/*--------------------------------*- C++ -*----------------------------------*\
  =========                 |
  \\      /  F ield         | OpenFOAM: The Open Source CFD Toolbox
   \\    /   O peration     | Website:  https://openfoam.org
    \\  /    A nd           | Version:  6
     \\/     M anipulation  |
\*---------------------------------------------------------------------------*/
FoamFile
{
    version     2.0;
    format      ascii;
    class       volScalarField;
    location    "0";
    object      P_rec;
}
// * * * * * * * * * * * * * * * * * * * * * * * * * * * * * * * * * * * * * //

dimensions      [0 2 -2 0 0 0 0];

internalField   nonuniform List<scalar> 
13046
(
0.641647
0.605658
0.603596
0.651052
0.618796
0.596824
0.642609
0.594361
0.615536
0.556271
0.196515
0.588233
0.648224
0.559667
0.598466
0.576953
0.574546
0.253801
0.640786
0.610515
0.635366
0.573966
0.579514
0.244883
0.643626
0.622897
0.605271
0.639788
0.560538
0.595137
0.647057
0.590944
0.59471
0.643547
0.61857
0.619547
0.639625
0.622825
0.62305
0.633163
0.584353
0.611344
0.628787
0.637328
0.629703
0.639793
0.625819
0.620636
0.638496
0.59571
0.605842
0.548733
0.621859
0.596688
0.551695
0.59602
0.622383
0.431279
0.616584
0.564603
0.632055
0.50225
0.605064
0.586591
0.341917
0.600875
0.616667
0.451219
0.559653
0.621292
0.472684
0.559429
0.398079
0.610875
0.564932
0.639986
0.615379
0.629597
0.571084
0.603955
0.366152
0.643457
0.613041
0.605336
0.584457
0.308547
0.588331
0.591246
0.598896
0.354868
0.605442
0.566773
0.34556
0.62978
0.625271
0.476991
0.454226
0.585544
0.589425
0.601663
0.590522
0.369594
0.645614
0.628211
0.613528
0.625
0.612511
0.560107
0.626236
0.573515
0.613143
0.501109
0.590483
0.0814109
0.648817
0.577442
0.59764
0.622435
0.627211
0.438556
0.578332
0.469913
0.579148
0.546032
0.166071
0.587724
0.642145
0.510567
0.592285
0.634983
0.584935
0.60269
0.606457
0.571897
0.375142
0.618632
0.415984
0.593154
0.646591
0.578164
0.589295
0.642186
0.569359
0.612091
0.622176
0.562545
0.618877
0.626023
0.627477
0.576175
0.633273
0.481109
0.604914
0.628128
0.629756
0.584152
0.522216
0.604118
0.50773
0.604526
0.617054
0.615845
0.642791
0.549728
0.619376
0.548513
0.591379
0.202839
0.520917
0.589392
0.108472
0.615637
0.393877
0.589891
0.634111
0.56855
0.574659
0.641972
0.621893
0.55985
0.595453
0.245194
0.559842
0.632843
0.584358
0.571634
0.626544
0.621646
0.573566
0.644084
0.576794
0.613336
0.542673
0.604908
0.642042
0.531682
0.591052
0.587715
0.594202
0.318176
0.605045
0.586774
0.386884
0.568362
0.329051
0.603895
0.538058
0.577867
0.616883
0.644309
0.606709
0.565107
0.371315
0.300488
0.570436
0.602212
0.638986
0.624745
0.617301
0.640094
0.573561
0.590251
0.606431
0.578518
0.390562
0.643601
0.548032
0.608332
0.593541
0.148429
0.521217
0.616238
0.581754
0.527521
0.577768
0.357762
0.6035
0.61485
0.527992
0.617987
0.635459
0.514814
0.59162
0.441873
0.582541
0.608443
0.599005
0.491079
0.612774
0.59586
0.140994
0.509961
0.631229
0.573185
0.595957
0.511131
0.584749
0.048523
0.632868
0.644273
0.60637
0.628649
0.623045
0.528652
0.538293
0.617603
0.61195
0.565653
0.600149
0.338276
0.637248
0.536008
0.583685
0.598002
0.467803
0.611129
0.616867
0.423095
0.58427
0.630034
0.625354
0.634224
0.614193
0.511161
0.61527
0.637963
0.524796
0.581144
0.642527
0.643527
0.631054
0.564532
0.580652
0.615298
0.494608
0.612664
0.607694
0.58443
0.400807
0.633001
0.573847
0.603061
0.616753
0.590004
0.512839
0.623208
0.46389
0.571303
0.623651
0.553389
0.586403
0.616706
0.619018
0.439982
0.571054
0.427059
0.575805
0.59241
0.263386
0.566263
0.627753
0.490497
0.579892
0.0072762
0.590768
0.467134
0.6448
0.629543
0.580833
0.637468
0.520421
0.604536
0.59329
0.594343
0.34774
0.541455
0.589273
0.620923
0.419683
0.581908
0.607313
0.571156
0.604986
0.629972
0.512497
0.598056
0.561156
0.613326
0.588187
0.574072
0.285257
0.54452
0.560617
0.618685
0.626415
0.494473
0.59396
0.633887
0.55667
0.616981
0.611056
0.552034
0.623737
0.646296
0.594494
0.609445
0.615371
0.594504
0.522544
0.577028
0.319415
0.597739
0.421485
0.581204
0.608502
0.617686
0.558193
0.510672
0.610727
0.613359
0.423529
0.396414
0.565184
0.567661
0.589633
0.0218717
0.482259
0.520929
0.583704
0.067688
0.630056
0.517795
0.609915
0.593215
0.584233
0.292259
0.620547
0.623035
0.486376
0.468891
0.569948
0.567569
0.603455
0.253361
0.541467
0.502985
0.58462
0.0229773
0.62669
0.639438
0.617749
0.501418
0.0547002
0.58939
0.635237
0.559658
0.570624
0.564607
0.259365
0.597273
0.0130456
0.597992
0.434289
0.633572
0.586226
0.621207
0.643545
0.61288
0.62334
0.545192
0.585857
0.158302
0.640253
0.599955
0.622392
0.628199
0.637188
0.623796
0.618202
0.573499
0.524611
0.633069
0.608086
0.63264
0.645261
0.581938
0.632906
0.618948
0.526853
0.55601
0.581976
0.586926
0.241331
0.236083
0.570344
0.56839
0.563297
0.298509
0.59761
0.563146
0.61815
0.487985
0.629178
0.569625
0.598459
0.591497
0.485951
0.610281
0.0858018
0.600161
0.460138
0.604094
0.563949
0.323244
0.529622
0.590231
0.138634
0.597905
-0.00965812
0.431303
-0.0390206
0.592514
0.449809
0.473536
0.618315
0.605768
0.182667
0.603268
0.50718
0.609607
0.404735
0.595483
0.566201
0.571661
0.187337
0.64713
0.603695
0.588585
0.279407
0.603557
0.552949
0.589895
0.611003
0.49801
0.457717
0.598581
0.610333
0.597198
-0.103114
0.395034
0.0284808
0.594238
0.457044
0.64887
0.612161
0.593206
0.239064
0.536055
0.600892
0.603642
0.523724
0.232881
0.578177
0.587489
0.28821
0.570385
0.333853
0.596419
0.622385
0.527722
0.556224
0.439354
0.618057
0.569945
0.570128
0.591425
0.279591
0.636636
0.63583
0.556775
0.538242
0.579772
0.581489
0.635994
0.567628
0.577248
0.624644
0.485715
0.569264
0.437969
0.589985
0.608797
0.291062
0.568119
0.599502
0.606034
0.595018
0.415187
-0.0313225
0.590599
0.463209
0.642164
0.642628
0.594852
0.606385
0.601351
0.607874
0.631006
0.623503
0.568846
0.520401
0.567171
0.547021
0.0293507
0.598698
0.434536
0.251976
0.543344
0.600278
0.623682
0.555377
0.576696
0.460403
0.58547
0.61028
0.568892
0.352711
0.600625
0.0848551
0.490718
0.595331
0.112251
0.498542
0.5963
0.626476
0.477719
0.574451
0.633004
0.570816
0.612806
0.575089
0.587663
0.259887
0.457067
0.607505
0.606674
0.585846
0.367733
0.606628
0.623562
0.569301
0.555581
0.618637
0.537954
0.619326
0.632119
0.578232
0.606041
0.590424
0.243855
0.565878
0.616558
0.416877
0.579687
0.638294
0.59206
0.617125
0.582323
0.568854
0.244047
0.638061
0.585458
0.590437
0.639786
0.576038
0.622965
0.474344
0.6087
0.610799
0.541531
0.579147
0.112755
0.549176
0.576666
0.127898
0.582148
0.360199
0.605956
0.61313
0.5408
0.617875
0.579014
0.0750561
0.526557
0.595584
0.375146
0.604345
0.59802
-0.0275997
0.414772
0.439169
-0.060891
0.591159
0.572811
0.295785
0.594034
0.593647
0.18746
0.538613
0.58306
0.588848
0.579859
0.268042
0.581231
0.299677
0.59666
0.380017
0.59801
0.612919
0.47285
0.577373
0.647989
0.603203
0.60605
0.602885
0.407099
0.603672
0.605433
0.606659
0.42384
0.596053
0.567482
0.302046
0.628851
0.503618
0.566067
0.630895
0.544557
0.566078
0.617868
0.464772
0.601438
0.615703
0.455056
0.603938
0.639294
0.58927
0.623938
0.63518
0.529336
0.582446
0.604215
0.287772
0.544989
0.487007
0.598852
0.116184
0.475763
0.601161
0.111403
0.635114
0.582125
0.58995
0.0597705
0.596812
0.469703
0.611701
0.57963
0.383967
0.598157
0.0659877
0.455075
0.648191
0.623421
0.602991
0.640766
0.53268
0.59734
0.5442
0.607706
0.620242
0.603155
0.201353
0.519528
0.456111
0.609163
0.608863
0.571514
0.576195
0.225704
0.633895
0.515233
0.596048
0.647258
0.60836
0.610301
0.208006
0.531675
0.599706
0.589995
0.35735
0.602306
0.536993
0.526316
0.583462
0.585039
0.125042
0.100598
0.633526
0.540995
0.614792
0.490209
0.621862
0.606801
0.636407
0.58687
0.618147
0.151811
0.501282
0.158462
0.599147
0.502179
0.601244
0.627645
0.463284
0.595531
0.530458
0.515901
0.190308
0.163732
0.598453
0.599067
0.616751
0.503412
0.612059
0.637147
0.544755
0.603589
0.559888
0.576032
0.170627
0.642091
0.532498
0.612308
0.642828
0.571856
0.61417
0.544412
0.579434
0.134448
0.63651
0.496673
0.588218
0.505903
0.576859
0.612858
0.624572
0.542943
0.563815
0.392073
0.606365
0.568496
0.595866
-0.080288
0.408963
0.634259
0.527005
0.601793
0.567704
0.578355
0.211054
0.551501
0.544015
0.620124
0.469034
0.586707
-0.0162557
0.628442
0.626774
0.575906
0.623991
0.574664
0.627666
0.642437
0.583877
0.623129
0.631554
0.6319
0.581684
0.627658
0.593387
0.624937
0.636136
0.551736
0.61236
0.641884
0.552188
0.614411
0.601621
0.130895
0.479795
0.636509
0.582167
0.57728
0.542664
0.207851
0.595565
0.616783
0.612885
0.44807
0.423233
0.597897
0.596857
0.635658
0.596383
0.584491
0.625056
0.504608
0.568792
0.627077
0.481733
0.600582
0.641234
0.623115
0.609712
0.61085
0.425202
0.602535
0.643394
0.594503
0.615198
0.625754
0.503473
0.61014
0.626187
0.515545
0.569702
0.639369
0.63825
0.621736
0.611463
0.626979
0.605755
0.636003
0.585797
0.634797
0.63131
0.603705
0.628893
0.639282
0.64034
0.564324
0.556278
0.58543
0.581879
0.57283
0.345033
0.603403
0.613702
0.584495
0.518205
0.577427
0.579691
0.316498
0.324703
0.596463
0.59588
0.622005
0.55516
0.580333
0.63945
0.622521
0.62575
0.609953
0.408976
0.599952
0.641345
0.587158
0.594583
0.626524
0.503004
0.571757
0.612982
0.614824
0.384808
0.573125
0.396166
0.574346
0.620863
0.445255
0.593697
0.482477
0.00903011
0.586753
0.54769
0.559818
0.619179
0.619465
0.622312
0.553694
0.543755
0.561797
0.556099
0.599456
0.434109
0.60769
0.624346
0.522817
0.571379
0.624302
0.551483
0.568986
0.622061
0.629793
0.562384
0.573938
0.574033
0.566561
0.621827
0.565992
0.559198
0.622396
0.456477
0.597589
0.64045
0.596361
0.623396
0.552453
0.582091
0.175634
0.623635
0.553014
0.557894
0.632281
0.629749
0.503913
0.485438
0.572423
0.578458
0.580591
0.209059
0.565803
0.563234
0.578458
0.184537
0.552956
0.579802
0.160639
0.611059
0.57596
0.376278
0.627825
0.538347
0.574713
0.220058
0.356041
0.525591
0.224668
0.485564
0.076467
0.43336
0.290654
0.190652
0.479933
0.477548
0.166907
0.224432
0.475115
0.361447
0.230945
0.248245
0.331323
0.359342
0.449326
0.390737
0.318916
0.49184
0.570571
0.539342
0.36045
0.497839
0.181336
0.406787
0.216454
0.195262
0.431703
0.375447
0.380711
0.228391
0.393488
0.525516
0.488807
0.264782
0.360417
0.297141
0.584719
0.249778
0.474139
0.480944
0.326909
0.334523
0.276439
0.173373
0.252551
0.539972
0.396496
0.233658
0.317173
0.190937
0.536377
0.450146
0.3822
0.270457
0.466237
0.248817
0.25797
0.540405
0.306973
0.384604
0.452647
0.400086
0.551989
0.490337
0.450387
0.154469
0.192222
0.285926
0.464097
0.180129
0.38042
0.341152
0.222395
0.452678
0.511169
0.328134
0.377447
0.177307
0.222458
0.323635
0.461541
0.325067
0.245394
0.356452
0.539015
0.23578
0.470015
0.537591
0.384178
0.228347
0.0338836
0.226669
0.28151
0.22709
0.151727
0.420749
0.495078
0.489055
0.55215
0.225015
0.230321
0.176861
0.246573
0.22927
0.523839
0.499173
0.449597
0.212225
0.197017
0.371212
0.466147
0.342702
0.246122
0.136278
0.32557
0.374362
0.535077
0.541804
0.466859
0.374686
0.289344
0.16914
0.549917
0.187134
0.461637
0.146209
0.531328
0.17837
0.183139
0.207495
0.510099
0.371955
0.110904
0.238698
0.436458
0.226888
0.466412
0.385361
0.252298
0.484338
0.313631
0.216555
0.517936
0.245254
0.344041
0.168147
0.375115
0.26228
0.512518
0.468981
0.334104
0.463572
0.466077
0.524403
0.346719
0.280243
0.2472
0.451423
0.186387
0.355764
0.18224
0.573963
0.328136
0.498977
0.553338
0.393793
0.553257
0.516777
0.525949
0.198548
0.139992
0.167722
0.526042
0.20484
0.185721
0.182961
0.187536
0.33872
0.309493
0.394079
0.553469
0.467787
0.301144
0.461327
0.295944
0.580722
0.158251
0.47668
0.259076
0.129943
0.544365
0.558503
0.25198
0.280658
0.572681
0.410467
0.259921
0.232039
0.4647
0.522647
0.41383
0.231224
0.272274
0.463187
0.363582
0.241248
0.371106
0.187698
0.206386
0.292368
0.451135
0.142093
0.280164
0.495633
0.319523
0.140233
0.332043
0.237004
0.268414
0.428677
0.437849
0.217769
0.183952
0.20185
0.451795
0.405429
0.341542
0.441834
0.320712
0.206184
0.418176
0.298003
0.12399
0.405298
0.517097
0.403921
0.52464
0.521325
0.584398
0.23077
0.104503
0.35271
0.334007
0.263222
0.149355
0.414576
0.541295
0.456564
0.415216
0.222386
0.344169
0.425284
0.388195
0.408772
0.246424
0.34776
0.299563
0.177941
0.221286
0.256908
0.235534
0.221773
0.439689
0.371645
0.339264
0.446035
0.232553
0.344549
0.255936
0.333987
0.315437
0.290961
0.410843
0.147756
0.099107
0.345403
0.1624
0.141566
0.414853
0.159739
0.141309
0.511288
0.445827
0.231888
0.413904
0.199689
0.43224
0.370168
0.191357
0.233539
0.472242
0.361709
0.449522
0.076212
0.210055
0.512181
0.293126
0.210339
0.0814835
0.15352
0.137168
0.15736
0.31358
0.446018
0.210121
0.129917
0.237531
0.277721
0.5819
0.226438
0.462424
0.39664
0.173325
0.288429
0.221569
0.187326
0.431088
0.315464
0.540546
0.412077
0.215544
0.308359
0.39823
0.569245
0.425191
0.526174
0.470663
0.295354
0.399487
0.34408
0.230112
0.153644
0.284115
0.254873
0.416194
0.264733
0.176884
0.23133
0.273136
0.227084
0.246015
0.501957
0.264394
0.259559
0.521603
0.485716
0.220749
0.338184
0.523663
0.281668
0.153607
0.305709
0.213399
0.181644
0.515183
0.24562
0.306268
0.508663
0.150084
0.382681
0.236416
0.396208
0.311021
0.266741
0.0468623
0.283589
0.175943
0.304801
0.326411
0.330097
0.441094
0.540517
0.226282
0.3416
0.270928
0.209299
0.1212
0.493267
0.387616
0.308945
0.181759
0.390394
0.16578
0.231986
0.223002
0.219572
0.435554
0.535058
0.288988
0.427537
0.556149
0.497209
0.476628
0.530047
0.257286
0.270135
0.18368
0.569455
0.470849
0.502847
0.270882
0.320317
0.135613
0.438723
0.273888
0.22167
0.499946
0.402422
0.193773
0.279679
0.232012
0.23089
0.2387
0.310856
0.336726
0.195696
0.276655
0.158472
0.289466
0.204727
0.394934
0.316372
0.14338
0.52513
0.535082
0.468248
0.295234
0.389872
0.159553
0.479227
0.391373
0.166663
0.522082
0.121042
0.542391
0.169591
0.340335
0.328262
0.467281
0.45142
0.227235
0.554421
0.235156
0.502064
0.340971
0.388322
0.272225
0.218646
0.269863
0.504565
0.315768
0.567128
0.454314
0.152237
0.226879
0.43684
0.131349
0.29902
0.340239
0.197818
0.544548
0.199091
0.183693
0.47795
0.27893
0.540413
0.562335
0.328735
0.563927
0.544264
0.506903
0.508902
0.410188
0.175465
0.247834
0.318961
0.496319
0.301172
0.120133
0.553093
0.214277
0.348356
0.240447
0.529161
0.580049
0.226484
0.498571
0.388902
0.540285
0.283118
0.474068
0.338277
0.552796
0.563117
0.444222
0.24282
0.460726
0.256376
0.332431
0.367649
0.311017
0.39663
0.240873
0.121364
0.185601
0.324675
0.410959
0.361458
0.516063
0.235054
0.270759
0.400875
0.185803
0.533965
0.217743
0.338064
0.507593
0.509304
0.373738
0.559048
0.219492
0.320139
0.474051
0.326573
0.310963
0.339696
0.270748
0.43832
0.457032
0.270102
0.229862
0.381339
0.155329
0.195169
0.536181
0.553092
0.562306
0.291766
0.559381
0.57612
0.547503
0.119693
0.412266
0.402302
0.558328
0.306475
0.22474
0.172528
0.240358
0.10186
0.548851
0.359514
0.365905
0.477199
0.445605
0.292854
0.336009
0.575678
0.54676
0.525724
0.426998
0.307135
0.427031
0.429985
0.307121
0.320017
0.201566
0.243257
0.346909
0.36168
0.264807
0.530173
0.540495
0.122859
0.509135
0.23955
0.230328
0.279682
0.527018
0.32032
0.43276
0.353067
0.527852
0.316085
0.35298
0.558888
0.132647
0.154518
0.219997
0.202078
0.0999909
0.0136272
0.211636
0.105496
0.367025
0.118174
0.206761
0.360419
0.294048
0.21331
0.270964
0.190865
0.0332284
0.542767
0.46852
0.327865
0.171969
0.470292
0.312395
0.223464
0.56362
0.217663
0.559866
0.309062
0.514863
0.289873
0.163837
0.201822
0.354747
0.361858
0.369341
0.166126
0.322099
0.214723
0.201252
0.237414
0.149458
0.195301
0.549104
0.215075
0.459219
0.478301
0.310004
0.446675
0.481934
0.1713
0.019807
0.338398
0.155445
0.106025
0.461057
0.468505
0.327962
0.423541
0.289536
0.560435
0.54281
0.346759
0.279971
0.556982
0.519391
0.42213
0.412201
0.314125
0.562269
0.33398
0.120913
0.530254
0.49178
0.541488
0.373859
0.252102
0.277726
0.47048
0.433401
-0.0236124
0.588297
0.334736
0.220895
0.384839
0.482404
0.548446
0.56888
0.418098
0.318381
0.480015
0.517849
0.504761
0.458605
0.49714
0.175069
0.233532
0.375632
0.183082
0.168332
0.144128
0.332289
0.485037
0.161097
0.360439
0.230836
0.460606
0.569093
0.35876
0.18167
0.135437
0.428085
0.285729
0.231604
0.138104
0.511835
0.40264
0.418651
0.161174
0.41319
0.232117
0.235222
0.4464
0.48336
0.515784
0.576121
0.209602
0.512326
0.123983
0.531142
0.540732
0.541733
0.481436
0.197681
0.196865
0.334271
0.118204
0.327178
0.147532
0.366901
0.165938
0.491462
0.311843
0.128672
0.507931
0.432286
0.335853
0.347424
0.453912
0.520135
0.405197
0.356477
0.126282
0.49464
0.332224
0.538319
0.103624
0.366006
0.531187
0.466919
0.55866
0.468091
0.3219
0.0888401
0.131781
0.350615
0.155196
0.549766
0.122937
0.239689
0.329443
0.244709
0.451313
0.108795
0.502641
0.471982
0.416671
0.121637
0.39529
0.207344
0.263773
0.354707
0.328843
0.321045
0.308631
0.487413
0.202615
0.557857
0.313557
0.304262
0.44455
0.429397
0.539733
0.322276
0.34782
0.211286
0.316231
0.302977
0.546837
0.238467
0.359559
0.314102
0.489724
0.287926
0.372342
0.189474
0.569678
0.115933
0.195363
0.247735
0.48822
0.132394
0.141325
0.189609
0.176513
0.536031
0.347441
0.437679
0.515087
0.422457
0.322836
0.569909
0.319021
0.435892
0.430876
0.347689
0.142763
0.36577
0.363132
0.244383
0.358848
0.192621
0.153095
0.395273
0.263314
0.209366
0.48651
0.312398
0.403091
0.355386
0.533583
0.322008
0.289802
0.426265
0.175854
0.229496
0.315786
0.356724
0.395709
0.431727
0.534824
0.42335
0.495077
0.391559
0.512628
0.547351
0.550208
0.340992
0.333396
0.388582
0.17554
0.551013
0.515053
0.496679
0.376909
0.199863
0.1455
0.391448
0.467049
0.218792
0.493216
0.504106
0.430428
0.233188
0.336146
0.250188
0.217858
0.378846
0.236221
0.418477
0.139466
0.418592
0.30488
0.348807
0.108882
0.38819
0.378965
0.441227
0.297803
0.411426
0.536019
0.541639
0.422419
0.315297
0.496218
0.393541
0.233735
0.236018
0.334063
0.168143
0.531048
0.33877
0.401779
0.472176
0.461387
0.388336
0.188406
0.559565
0.399797
0.251332
0.354365
0.383732
0.496118
0.531914
0.402054
0.413413
0.133368
0.218797
0.353223
0.426413
0.364543
0.423353
0.27326
0.541074
0.39985
0.441469
0.519509
0.397442
0.219788
0.346619
0.555489
0.302572
0.129734
0.343058
0.55893
0.284717
0.336994
0.489355
0.464536
0.499966
0.370621
0.139505
0.426995
0.18878
0.291973
0.507363
0.366803
0.180401
0.217158
0.282577
0.433819
0.270664
0.240606
0.513337
0.259399
0.570449
0.496909
0.168253
0.0952019
0.33406
0.460958
0.519784
0.37115
0.35332
0.214292
0.335048
0.314539
0.576434
0.526091
0.471762
0.263907
0.145604
0.509355
0.563279
0.536842
0.494568
0.516373
0.34431
0.192339
0.114401
0.131663
0.535961
0.381991
0.205502
0.280723
0.56003
0.312545
0.233806
0.157738
0.373024
0.229838
0.547454
0.429715
0.449498
0.528544
0.504166
0.342019
0.444563
0.351888
0.419543
0.296229
0.422831
0.261621
0.545679
0.173095
0.29618
0.205642
0.311843
0.534536
0.321299
0.505939
0.513349
0.526556
0.206685
0.351428
0.351255
0.217401
0.541258
0.374717
0.351256
0.425844
0.0900752
0.285023
0.517493
0.44755
0.543203
0.12292
0.195508
0.322967
0.549929
0.226402
0.314064
0.226755
0.184808
0.265618
0.522867
0.285629
0.357821
0.162632
0.542125
0.561279
0.0930332
0.513764
0.304743
0.208816
0.198584
0.371054
0.161482
0.398271
0.269309
0.295471
0.314955
0.490866
0.367496
0.50385
0.299558
0.18773
0.305213
0.122203
0.149271
0.356798
0.258862
0.364089
0.214083
0.339166
0.503348
0.401121
0.296825
0.160132
0.506132
0.376685
0.322671
0.567028
0.375366
0.291096
0.248046
0.19629
0.55491
0.252013
0.346281
0.435965
0.174558
0.513294
0.179088
0.509229
0.34334
0.481477
0.229891
0.457608
0.34621
0.173165
0.237002
0.340451
0.531954
0.0940933
0.224336
0.31976
0.547564
0.552454
0.208092
0.273507
0.392662
0.530893
0.313163
0.535958
0.518811
0.496973
0.474907
0.413082
0.404096
0.390689
0.543415
0.31407
0.361695
0.207853
0.233317
0.30673
0.201385
0.554543
0.177452
0.52467
0.306884
0.549433
0.280242
0.560546
0.48049
0.482493
0.550651
0.535735
0.564235
0.335495
0.525201
0.331919
0.321682
0.224156
0.21576
0.542692
0.179116
0.431027
0.436869
0.342246
0.404668
0.266866
0.519821
0.393437
0.470558
0.112671
0.224106
0.326319
0.546891
0.215477
0.451735
0.238982
0.324514
0.177876
0.322196
0.313471
0.500126
0.546663
0.155976
0.425823
0.321355
0.28606
0.509632
0.21362
0.229436
0.548941
0.130856
0.357797
0.468994
0.532538
0.566702
0.241425
0.23992
0.169013
0.276926
0.218898
0.318547
0.445233
0.298744
0.18136
0.353876
0.350365
0.269033
0.222358
0.318217
0.362303
0.178343
0.492216
0.482141
0.248276
0.476702
0.162771
0.168657
0.21414
0.132734
0.556289
0.307642
0.310384
0.268088
0.49674
0.542306
0.405012
0.463068
0.229997
0.254392
0.343532
0.310587
0.22333
0.542703
0.379463
0.400478
0.551936
0.490338
0.313163
0.5511
0.150793
0.409322
0.404853
0.437132
0.271571
0.526311
0.300838
0.432017
0.355164
0.263869
0.202116
0.246207
0.481086
0.511749
0.526778
0.354038
0.382742
0.536743
0.46425
0.36163
0.355651
0.199002
0.33926
0.503544
0.153043
0.518554
0.317519
0.527941
0.555026
0.545192
0.309752
0.486014
0.517901
0.137395
0.531519
0.234415
0.548689
0.499376
0.32741
0.220081
0.370747
0.341541
0.266582
0.227259
0.458311
0.250274
0.54845
0.196626
0.248027
0.216687
0.1922
0.311842
0.505169
0.556923
0.192471
0.450118
0.379752
0.433012
0.319554
0.38617
0.538293
0.503027
0.320051
0.532778
0.510219
0.562148
0.191215
0.303562
0.225263
0.470947
0.548008
0.51422
0.345097
0.561188
0.342499
0.156693
0.21837
0.0918241
0.313272
0.18271
0.558274
0.571733
0.383703
0.561533
0.505466
0.403164
0.558308
0.198355
0.523709
0.337256
0.542384
0.292112
0.198032
0.466244
0.397855
0.549105
0.536765
0.540924
0.209004
0.208996
0.140143
0.503386
0.501727
0.20349
0.335089
0.50308
0.122769
0.275453
0.211065
0.330619
0.424545
0.326247
0.404218
0.427
0.381512
0.390885
0.485024
0.297594
0.292714
0.429074
0.387825
0.306084
0.525616
0.547527
0.204988
0.499263
0.113796
0.261483
0.530027
0.491549
0.314574
0.544301
0.188207
0.480403
0.299086
0.288156
0.530687
0.296289
0.483172
0.455478
0.447935
0.57294
0.456352
0.172512
0.442343
0.302892
0.490132
0.574264
0.438347
0.335612
0.221683
0.289573
0.53191
0.193325
0.481583
0.2141
0.37785
0.490118
0.481528
0.386127
0.51796
0.561346
0.286958
0.295814
0.391348
0.205612
0.189433
0.407569
0.458881
0.245236
0.17137
0.218143
0.163439
0.478927
0.334149
0.493277
0.241874
0.538446
0.379118
0.512719
0.550187
0.255131
0.536449
0.273252
0.399606
0.336952
0.505231
0.229698
0.317096
0.345032
0.202367
0.302431
0.195824
0.177489
0.11454
0.557634
0.562705
0.245077
0.239547
0.48801
0.150611
0.213411
0.31278
0.467752
0.467487
0.138228
0.114028
0.536789
0.235433
0.417249
0.2307
0.163378
0.220198
0.350043
0.517052
0.407973
0.163224
0.539361
0.517092
0.228045
0.422688
0.304633
0.553512
0.320636
0.313625
0.172282
0.456909
0.541213
0.436573
0.350409
0.234459
0.324143
0.406565
0.558134
0.559119
0.226695
0.563217
0.242
0.41372
0.412933
0.359009
0.280004
0.509467
0.272291
0.387931
0.215582
0.286093
0.280979
0.199052
0.441987
0.542405
0.228776
0.261029
0.403554
0.286878
0.221438
0.117748
0.269184
0.494034
0.126874
0.309006
0.444789
0.408764
0.339749
0.449214
0.497291
0.20337
0.208154
0.512815
0.337767
0.198873
0.336317
0.502157
0.451968
0.417936
0.229697
0.265016
0.223006
0.559228
0.514561
0.56394
0.333518
0.465622
0.187406
0.371033
0.519718
0.156285
0.171418
0.482748
0.517428
0.149782
0.253237
0.224383
0.195707
0.221526
0.558579
0.305162
0.248203
0.349249
0.221433
0.467832
0.359509
0.182674
0.250504
0.482741
0.324712
0.559602
0.185429
0.277536
0.41432
0.414756
0.364187
0.426986
0.200667
0.564507
0.512507
0.418364
0.511157
0.242552
0.515937
0.452215
0.398522
0.552061
0.150529
0.27264
0.571252
0.454491
0.146453
0.311074
0.479737
0.567409
0.373191
0.488452
0.226917
0.172527
0.211962
0.13774
0.519003
0.249284
0.394135
0.547823
0.252421
0.205062
0.233417
0.371818
0.240574
0.31217
0.227233
0.203264
0.321537
0.502071
0.550558
0.443332
0.262346
0.275641
0.132794
0.283285
0.442673
0.428626
0.416287
0.454205
0.277674
0.374369
0.496616
0.519866
0.566843
0.530197
0.554262
0.335074
0.191064
0.216659
0.188643
0.559072
0.38494
0.246648
0.55053
0.196877
0.503245
0.468842
0.256636
0.229378
0.271288
0.271697
0.51788
0.341394
0.469186
0.361287
0.548346
0.418798
0.577764
0.22218
0.365992
0.30124
0.107384
0.284636
0.479095
0.192225
0.0794369
0.417758
0.52274
0.492316
0.267387
0.178043
0.214801
0.204231
0.231263
0.206979
0.359476
0.202248
0.483445
0.240607
0.239787
0.506125
0.326796
0.398916
0.512183
0.355328
0.393818
0.208135
0.463901
0.342437
0.2538
0.315646
0.218052
0.182004
0.238693
0.229413
0.489569
0.561829
0.52423
0.417177
0.471334
0.157182
0.562414
0.389428
0.447424
0.233096
0.467623
0.313116
0.295825
0.504769
0.537762
0.481529
0.421957
0.32638
0.569687
0.276331
0.484385
0.557244
0.460468
0.316257
0.150672
0.489957
0.365403
0.207429
0.45316
0.366975
0.544883
0.242408
0.54699
0.567337
0.349971
0.222274
0.55656
0.177046
0.212291
0.290904
0.204397
0.270602
0.212451
0.185991
0.361346
0.239095
0.211727
0.293281
0.427012
0.292303
0.245465
0.446768
0.393537
0.167298
0.542006
0.551443
0.547027
0.231654
0.163985
0.583119
0.169467
0.342096
0.217444
0.321683
0.231754
0.481761
0.298087
0.313223
0.169919
0.152452
0.211595
0.305834
0.150807
0.382421
0.411102
0.374453
0.549013
0.388356
0.429677
0.29498
0.512243
0.325897
0.313981
0.560093
0.278441
0.354932
0.182779
0.462066
0.554928
0.347712
0.408113
0.362576
0.310602
0.226592
0.25127
0.195098
0.484901
0.2173
0.32533
0.311595
0.351278
0.216471
0.252243
0.341173
0.338751
0.28859
0.547973
0.353181
0.303535
0.419733
0.536221
0.31047
0.154974
0.477562
0.178436
0.32192
0.225613
0.318205
0.31038
0.274356
0.315753
0.562392
0.522662
0.160775
0.285236
0.154861
0.217095
0.14478
0.198788
0.269555
0.215134
0.277246
0.44128
0.562763
0.295505
0.473631
0.360273
0.558343
0.303481
0.559129
0.439681
0.193216
0.425297
0.4791
0.322625
0.498601
0.224875
0.527765
0.269203
0.0965017
0.368878
0.562472
0.554737
0.486996
0.434228
0.450757
0.172014
0.301777
0.439041
0.578778
0.108578
0.334106
0.226966
0.323735
0.346913
0.215673
0.186082
0.25433
0.203488
0.247135
0.333745
0.334336
0.573807
0.508489
0.144333
0.498632
0.208687
0.245464
0.498773
0.273923
0.322146
0.437844
0.134462
0.233744
0.371196
0.519392
0.195281
0.248428
0.323945
0.441689
0.188447
0.544965
0.158507
0.313427
0.329184
0.264105
0.427542
0.44423
0.538684
0.224612
0.471582
0.413901
0.43393
0.224958
0.420698
0.229518
0.180767
0.131061
0.374078
0.369816
0.330814
0.518694
0.348862
0.351499
0.420043
0.224589
0.209662
0.303936
0.397205
0.231165
0.56329
0.184552
0.160597
0.278996
0.316147
0.23706
0.22246
0.460701
0.296343
0.377429
0.193971
0.225743
0.375834
0.182465
0.558037
0.539645
0.195885
0.216897
0.515401
0.33829
0.221126
0.174283
0.217509
0.207627
0.41043
0.540323
0.219995
0.167258
0.441701
0.346868
0.158826
0.196023
0.338475
0.471222
0.557651
0.187582
0.153482
0.425168
0.518904
0.344474
0.395177
0.324128
0.225687
0.315106
0.441335
0.367647
0.228566
0.501468
0.324484
0.127085
0.404913
0.242403
0.504817
0.574036
0.235279
0.306514
0.308066
0.301697
0.18283
0.321703
0.205666
0.551234
0.498393
0.469862
0.2716
0.173842
0.490987
0.562832
0.248369
0.400852
0.312066
0.113601
0.389435
0.320734
0.11949
0.236349
0.391835
0.200313
0.161619
0.200584
0.466815
0.187763
0.488538
0.304706
0.236092
0.335188
0.211588
0.505452
0.135256
0.31586
0.341274
0.179537
0.397406
0.433506
0.421437
0.371371
0.490598
0.198952
0.195545
0.533091
0.225099
0.528135
0.425977
0.345668
0.366965
0.524754
0.347741
0.15064
0.546554
0.221659
0.352008
0.519069
0.216938
0.550455
0.228735
0.325257
0.136144
0.320717
0.195649
0.367046
0.221435
0.12828
0.213083
0.189256
0.118268
0.540391
0.189267
0.313769
0.404631
0.354624
0.56398
0.563971
0.307253
0.313941
0.507981
0.298948
0.541027
0.128054
0.332621
0.394148
0.256546
0.512264
0.311554
0.31772
0.257034
0.25852
0.220329
0.130921
0.527289
0.043029
0.531982
0.466199
0.218785
0.159164
0.221013
0.558555
0.444692
0.446326
0.349167
0.398131
0.350013
0.524928
0.48926
0.212886
0.418087
0.538288
0.357751
0.397449
0.405648
0.145205
0.190265
0.467952
0.32365
0.325842
0.550916
0.187726
0.132568
0.270478
0.318725
0.360952
0.546006
0.232396
0.181334
0.242129
0.321301
0.235597
0.53343
0.309484
0.223577
0.314228
0.251732
0.216698
0.258334
0.430025
0.330394
0.20735
0.523744
0.326288
0.473536
0.208309
0.185016
0.287941
0.519025
0.555784
0.47042
0.384554
0.366794
0.502116
0.542088
0.186716
0.541832
0.214012
0.435373
0.440693
0.532627
0.381458
0.523003
0.530731
0.232611
0.225124
0.313906
0.33455
0.215495
0.207642
0.174434
0.482669
0.510954
0.177426
0.546387
0.376168
0.493247
0.347915
0.208122
0.508003
0.493157
0.313098
0.250384
0.197381
0.569099
0.463506
0.580764
0.175299
0.214662
0.345243
0.516499
0.435644
0.499031
0.358978
0.543699
0.264968
0.310375
0.397535
0.277998
0.429509
0.155975
0.503121
0.350342
0.391017
0.542634
0.168155
0.179947
0.139363
0.370354
0.527843
0.255667
0.427374
0.161683
0.176737
0.328486
0.246376
0.224485
0.499667
0.327149
0.223419
0.327205
0.390784
0.53699
0.375323
0.337867
0.527173
0.340469
0.55519
0.39138
0.470462
0.340127
0.186314
0.559098
0.205929
0.357365
0.418588
0.538999
0.462138
0.3646
0.232284
0.571785
0.331363
0.22993
0.486146
0.564348
0.472919
0.449316
0.166136
0.124584
0.404237
0.209148
0.33053
0.384021
0.206238
0.53868
0.568403
0.54497
0.284903
0.322306
0.222481
0.288798
0.444857
0.19749
0.44864
0.55036
0.192493
0.315322
0.26569
0.487658
0.444751
0.32309
0.211875
0.476708
0.220344
0.148387
0.21211
0.568771
0.129068
0.500388
0.389662
0.22458
0.528082
0.409676
0.554532
0.132683
0.317935
0.389768
0.543261
0.289935
0.540305
0.411291
0.129079
0.371007
0.274652
0.303983
0.122828
0.481814
0.3168
0.214983
0.152162
0.37332
0.503199
0.0831025
0.291486
0.527773
0.287941
0.517829
0.123553
0.22363
0.224657
0.347908
0.300435
0.166029
0.220388
0.0920144
0.334157
0.33766
0.493959
0.36321
0.529716
0.216073
0.320348
0.168779
0.334447
0.0913412
0.324939
0.576971
0.307417
0.267483
0.565329
0.235639
0.409767
0.436779
0.170365
0.2885
0.358407
0.377886
0.550533
0.562617
0.564174
0.385646
0.292308
0.347967
0.218389
0.516551
0.421271
0.241873
0.255426
0.261982
0.354566
0.556492
0.327943
0.554035
0.315027
0.39518
0.222803
0.222594
0.17643
0.252794
0.536789
0.256277
0.179984
0.197686
0.564149
0.291886
0.211641
0.203721
0.221788
0.468355
0.359092