/*--------------------------------*- C++ -*----------------------------------*\
  =========                 |
  \\      /  F ield         | OpenFOAM: The Open Source CFD Toolbox
   \\    /   O peration     | Website:  https://openfoam.org
    \\  /    A nd           | Version:  6
     \\/     M anipulation  |
\*---------------------------------------------------------------------------*/
FoamFile
{
    version     2.0;
    format      ascii;
    class       volScalarField;
    location    "./ITHACAoutput/Offline/1";
    object      P_rec;
}
// * * * * * * * * * * * * * * * * * * * * * * * * * * * * * * * * * * * * * //

dimensions      [0 2 -2 0 0 0 0];

internalField   nonuniform List<scalar> 
13046
(
1.33787
1.29181
1.36597
1.34729
1.37
1.31648
1.32234
1.31191
1.37599
0.835987
0.701553
1.34718
1.31509
1.2419
1.36279
0.967712
1.33385
0.773285
1.37811
1.35374
1.33314
0.944636
1.33831
0.766388
1.34645
1.32931
1.36342
1.29498
1.22972
1.35933
1.34825
1.26773
1.35935
1.35988
1.36988
1.33177
1.3572
1.37378
1.34536
1.35262
1.3394
1.24561
1.35386
1.3744
1.35845
1.35355
1.36558
1.35673
1.32169
1.28388
1.36769
1.29541
1.35947
1.17749
1.28988
1.15194
1.36422
0.98354
1.21185
1.32552
1.20896
1.19146
1.36693
1.35042
0.931267
1.04086
1.24198
0.997628
1.31986
1.26508
1.02705
1.32073
0.936472
1.186
1.32476
1.37713
1.3604
1.31275
1.32979
1.12767
0.908287
1.33849
1.32213
1.36392
1.34738
0.880405
0.995545
0.995983
1.3599
0.975948
1.36153
0.908598
0.978694
1.21121
1.17781
1.11831
1.09276
1.35238
1.35574
1.36223
1.00352
1.00464
1.35102
1.36953
1.34824
1.37442
1.2034
1.29469
1.35624
1.3201
1.21236
0.635388
1.34377
0.498381
1.32664
1.26595
1.36154
1.17995
1.20933
1.048
1.34449
1.09568
1.34603
0.795209
0.646887
1.34553
1.26477
1.16403
1.35922
1.34637
1.3432
1.24115
1.36111
0.945988
1.02448
1.11953
1.04872
1.35767
1.33768
1.24777
1.35499
1.26864
1.28461
1.3687
1.35477
1.3062
1.20882
1.37144
1.23062
1.31126
1.1948
1.15806
1.36429
1.38314
1.28285
1.32042
1.24597
1.1402
1.22301
1.13112
1.36681
1.36788
1.26106
1.27553
1.36731
0.823576
1.35024
0.726902
0.701809
1.34399
0.548039
1.10226
1.01199
1.35458
1.34211
1.17529
1.33497
1.26943
1.36751
1.29121
1.35511
0.793738
0.851406
1.34767
1.20247
1.33193
1.38138
1.26395
1.30979
1.28645
1.296
1.36795
1.226
1.36891
1.28026
1.19563
1.35821
0.96995
1.35578
0.909622
1.36271
0.997127
1.03707
0.917269
0.946644
1.35961
1.28313
1.11569
1.35062
1.29614
1.14547
1.32384
0.905525
0.898702
0.892724
1.35952
1.34824
1.37445
1.34386
1.31032
1.23982
1.3557
1.36355
0.979392
1.04702
1.27964
1.23956
1.37201
1.35023
0.637361
0.717212
1.35412
1.11302
1.26731
0.966035
0.991592
1.36105
1.19067
1.24963
1.37188
1.25733
1.15683
1.35669
1.12868
1.01383
1.35991
1.09839
1.19928
1.36353
1.35073
0.625205
0.676281
1.36065
1.32555
1.19329
0.669628
1.33696
0.432777
1.37341
1.3389
1.34365
1.20824
1.21542
1.23757
1.25938
1.37424
1.36692
1.32525
1.09383
0.871574
1.28526
1.17921
1.35016
1.08165
1.16819
1.36601
1.14482
1.0429
1.35014
1.36267
1.35148
1.37421
1.16172
1.22457
1.36829
1.28564
1.15591
1.3475
1.28581
1.275
1.36135
1.31811
1.17077
1.15076
1.19884
1.36701
1.10471
1.34973
1.01376
1.37125
1.32569
1.22911
1.36676
1.11502
1.23884
1.21927
1.06454
1.33656
1.35786
1.30409
1.16895
1.19046
1.17289
1.031
1.33547
1.02165
1.34014
1.35307
0.82371
0.888243
1.23003
1.11889
1.3459
0.351331
1.34239
0.513161
1.31571
1.37018
1.32262
1.23435
1.21398
1.36617
1.35547
1.01732
0.953485
1.27633
1.12242
1.36199
1.09589
1.00063
1.36157
1.27103
1.36788
1.21848
1.18428
1.36205
1.26917
1.37193
1.01394
1.33461
0.821692
1.29014
1.08741
1.34943
1.19615
1.15897
1.35946
1.25183
1.27666
1.37294
1.20573
1.29298
1.36811
1.34025
1.29659
1.36931
1.35833
1.12183
1.25303
0.94537
0.922506
1.35737
1.09353
1.00741
1.36332
1.28486
1.31686
1.06734
1.15576
1.18212
0.995815
0.958994
1.32807
1.33032
1.34068
0.381106
0.565114
0.709822
1.33682
0.474427
1.1884
1.21838
1.36326
1.35355
0.947623
0.865349
1.24958
1.23512
1.06304
1.05052
1.33126
1.33106
1.35707
0.827127
0.79324
0.641389
1.33661
0.366183
1.33274
1.37353
1.36247
0.625855
0.440148
1.34158
1.33127
1.17537
1.33429
0.866651
0.823328
1.35734
0.356124
1.34386
0.403722
1.35827
1.34005
1.26792
1.32361
1.34497
1.37243
0.80622
1.34331
0.635105
1.31126
1.33408
1.37227
1.34242
1.37243
1.36602
1.36237
1.08304
1.25843
1.30247
1.35274
1.37215
1.31996
1.32811
1.36885
1.30359
1.0816
1.31347
1.34294
1.34713
0.767416
0.764919
0.912364
0.894612
0.897224
0.888707
1.357
1.3207
1.27579
1.03152
1.3503
1.32575
1.21069
1.07765
1.19818
1.35841
0.519052
1.3497
0.497028
1.36119
0.891975
0.942469
0.733064
1.34677
0.604374
1.34287
0.299723
0.378056
0.245587
1.33954
0.438907
1.15473
1.13547
1.36253
0.707248
1.35525
0.665481
1.08716
1.03833
1.35884
0.910211
1.32777
0.658355
1.31419
1.36548
1.28647
0.870048
1.35895
0.832932
1.0896
1.35806
1.21766
1.15154
1.0812
1.36741
1.33992
0.0823169
0.232098
0.388566
1.34398
0.482632
1.33035
1.37118
1.29856
0.803142
0.787816
1.35663
1.3582
0.742405
0.794866
0.952889
1.34879
0.854719
1.33078
0.882322
1.07187
1.32164
1.06741
1.3124
1.00804
1.20906
1.33189
1.32909
1.03304
0.791353
1.31388
1.29981
1.19116
1.1643
1.34448
1.34712
1.32521
1.19603
1.34067
1.26846
1.05135
1.32995
1.11841
1.04496
1.36341
0.879119
0.887105
1.35932
1.3623
1.03897
1.07864
0.27398
1.34
0.487647
1.36029
1.35237
1.35475
1.2683
1.36081
1.27772
1.30296
1.30208
1.32884
1.10366
1.32984
1.132
0.405357
1.34702
0.406408
0.826116
0.823851
1.35738
1.34316
1.3105
1.16146
1.15732
1.04275
1.36229
1.32961
0.905019
1.09895
0.509557
0.593604
1.34746
0.564614
0.620921
1.34994
1.23857
1.07415
1.33888
1.37623
1.32218
1.24838
0.919623
1.34886
0.806408
1.13588
1.10101
1.36618
1.35045
0.963476
1.07839
1.31427
1.32691
1.1346
1.20105
1.26668
1.36749
1.35687
1.33234
1.2299
1.35086
0.789474
0.879355
1.14556
1.02366
1.34539
1.36298
1.34799
1.27759
0.991018
1.3267
0.737535
1.32318
1.23791
1.35274
1.29811
1.30578
1.37696
1.16937
1.11263
1.36519
0.792258
1.33365
0.537408
0.828741
1.33155
0.562873
1.34642
0.944296
1.07777
1.17238
1.2696
1.36341
1.3318
0.468913
0.738886
1.35816
0.996117
1.0503
1.34344
0.265445
0.315123
0.401937
0.169283
1.33696
1.33349
0.824929
1.04114
1.35151
0.70226
0.777264
0.962926
0.997392
1.34166
0.8047
1.34358
0.857023
1.03572
1.0103
1.3595
1.3674
1.17785
1.03611
1.36182
1.36223
1.2987
1.05831
1.06078
1.36354
1.36441
1.07266
1.08842
1.06402
1.32635
0.816124
1.29285
1.07371
1.32741
1.31485
1.15221
1.33023
1.14603
1.13414
1.36454
1.12623
1.1258
1.36513
1.36801
1.34524
1.30005
1.29492
1.14222
1.34628
1.36057
0.892526
0.829241
0.592611
1.35192
0.586727
0.549321
1.3513
0.572854
1.34271
1.34169
1.21889
0.462457
1.3468
0.525152
1.11422
1.34455
0.974159
1.34741
0.471205
0.480471
1.35004
1.3732
1.33059
1.26498
1.20376
1.36183
1.28041
1.17993
1.36479
1.35625
0.744521
0.714581
1.1412
1.10163
1.36573
1.32924
0.95626
0.71915
1.23462
1.18091
1.36176
1.36613
1.36658
1.3099
0.746395
0.74882
1.356
1.3542
0.96171
1.04809
0.771127
0.729121
1.33889
1.33981
0.578498
0.534028
1.23295
1.25194
1.37192
1.18007
1.15803
1.36351
1.30833
1.30792
1.37752
0.648725
0.646131
0.660772
1.35349
0.638136
1.35403
1.1793
1.11369
1.36041
0.742098
0.692319
0.712422
0.666486
1.35454
1.35332
1.15904
1.20381
1.37129
1.26499
1.23566
1.36676
0.874031
1.33209
0.636069
1.25048
1.23711
1.37013
1.30236
1.28712
1.3718
0.799235
1.3357
0.577281
1.23826
1.14971
1.35569
1.22694
1.06466
1.35879
1.31953
1.11033
1.32115
1.05405
1.36027
0.951751
1.34025
0.13989
0.286251
1.23569
1.21295
1.36566
0.906571
1.33699
0.711218
1.3027
1.07738
1.33706
0.524216
1.33434
0.269396
1.37344
1.36695
1.31867
1.26789
1.31755
1.2514
1.31173
1.31292
1.37534
1.36205
1.37078
1.33214
1.26945
1.33903
1.26632
1.25483
1.25512
1.37354
1.2667
1.25941
1.37306
1.35323
0.616542
0.572229
1.33645
1.21934
1.34049
0.788915
0.73562
1.35366
1.13482
1.10369
1.10477
1.06842
1.36093
1.3593
1.33145
1.24586
1.34639
1.26871
1.09778
1.33205
1.18377
1.15093
1.36415
1.36488
1.33266
1.36105
1.09157
1.08226
1.36317
1.35773
1.35374
1.29994
1.18162
1.19867
1.36923
1.26852
1.1236
1.33337
1.36326
1.36573
1.31854
1.36473
1.31798
1.35908
1.3691
1.33731
1.37398
1.30363
1.34946
1.27854
1.31525
1.30841
1.21115
1.20893
1.35028
1.34903
1.33594
0.906913
1.0821
1.35691
1.09327
1.24684
1.33979
1.34267
0.870976
0.889928
1.04308
1.03727
1.35268
1.30296
1.13705
1.36482
1.36771
1.34864
1.08145
1.05439
1.36146
1.35395
1.34888
1.24789
1.25567
1.1126
1.33622
1.1396
1.14488
0.953858
1.33632
0.977246
1.33882
1.14883
1.09085
1.35811
0.572598
0.336198
1.33567
1.29752
1.10029
1.34165
1.32824
1.33022
1.30777
1.08764
1.31383
1.10874
1.06168
1.1093
1.36411
1.28092
1.11548
1.33304
1.35089
1.30386
1.13601
1.32796
1.33253
1.31805
1.33082
1.15743
1.15395
1.32293
1.31952
1.12275
1.1554
1.11359
1.36164
1.36414
1.35276
1.30697
0.84584
1.33984
0.664046
1.34537
1.30503
1.11426
1.2632
1.23803
1.12619
1.1036
1.33905
1.34425
1.33997
0.712276
0.889642
0.879038
1.33663
0.66276
0.840819
1.33669
0.631131
1.11485
1.34017
0.954736
1.29131
1.14541
1.33691
0.796424
0.98098
1.24501
0.804476
1.15875
0.479197
1.07865
0.912815
0.75917
1.15562
1.15363
0.724104
0.814291
1.14238
0.963744
0.827155
0.848973
0.923974
0.981341
1.10767
1.01044
0.914934
1.18148
1.32334
1.25994
0.985728
1.17176
0.742472
1.03303
0.79986
0.75798
1.08004
0.982532
0.993372
0.798672
1.00042
1.23615
1.17246
0.880858
1.02026
0.880585
1.33283
0.825599
1.14547
1.1985
0.911317
0.917801
0.845686
0.734701
0.824673
1.27118
1.02243
0.827048
0.887176
0.753497
1.26752
1.10548
0.991953
0.8331
1.13071
0.818778
0.837605
1.26347
0.938204
0.988756
1.11052
1.02281
1.30221
1.17508
1.14782
0.688305
0.738488
0.896062
1.12859
0.724869
0.995237
0.97741
0.790781
1.12018
1.21334
0.924401
0.979407
0.743759
0.809359
0.896654
1.12931
0.899075
0.8546
0.949894
1.2711
0.831774
1.13266
1.25535
0.999944
0.824476
0.399531
0.795546
0.850097
0.821642
0.686796
1.05125
1.18687
1.20701
1.30432
0.817408
0.818814
0.742706
0.842422
0.798245
1.23598
1.19587
1.10716
0.79167
0.743254
1.03786
1.16958
0.925262
0.854327
0.666518
0.918948
0.981437
1.27155
1.29401
1.13592
0.996749
0.90184
0.72229
1.29096
0.732473
1.12439
0.675727
1.26384
0.744894
0.710915
0.777549
1.21315
0.982474
0.637604
0.820095
1.09203
0.821578
1.13949
1.05536
0.848169
1.19407
0.882627
0.807046
1.22477
0.830367
0.929149
0.727618
1.00938
0.877192
1.21019
1.13453
0.919516
1.12726
1.13972
1.24593
0.982557
0.889722
0.84224
1.13947
0.729574
1.01441
0.7484
1.3227
0.918383
1.20839
1.28991
1.0142
1.29569
1.21545
1.24653
0.779026
0.669998
0.721759
1.24889
0.783286
0.759281
0.718916
0.761433
0.934025
0.882524
1.01183
1.28911
1.13265
0.888798
1.1158
0.866702
1.32826
0.671163
1.18617
0.84421
0.650762
1.2728
1.29636
0.837025
0.85094
1.31996
1.03989
0.865802
0.805015
1.13384
1.23251
1.09385
0.829577
0.834952
1.1539
0.9952
0.79814
1.03085
0.729007
0.77183
0.903818
1.15038
0.674296
0.899172
1.19144
0.889031
0.669408
0.909117
0.830561
0.884812
1.06814
1.08349
0.807539
0.755365
0.769049
1.11249
1.08693
0.934064
1.09389
0.889877
0.783204
1.05333
0.886688
0.652402
1.08608
1.22349
1.0302
1.25909
1.23173
1.33459
0.826382
0.623525
0.948809
0.912109
0.874487
0.680982
1.04966
1.262
1.11003
1.04773
0.822836
0.937404
1.11448
0.999029
1.07238
0.835456
0.943779
0.88162
0.713045
0.809059
0.851144
0.833812
0.779043
1.08923
0.994495
0.917934
1.09558
0.825089
0.940938
0.822485
0.913706
0.894706
0.859677
1.04124
0.692053
0.624908
0.953986
0.717818
0.687015
1.04877
0.681528
0.685751
1.21738
1.10021
0.81541
1.09658
0.764489
1.08746
1.02415
0.731138
0.829248
1.17385
0.956815
1.12583
0.489194
0.796832
1.21617
0.87401
0.784775
0.59736
0.700524
0.667466
0.712491
0.88461
1.10175
0.782066
0.661176
0.802589
0.867912
1.33041
0.810205
1.13299
1.037
0.695084
0.90354
0.812276
0.745886
1.07298
0.889279
1.26789
1.09365
0.806687
0.896017
1.02328
1.3221
1.10909
1.23962
1.14231
0.888199
1.01519
0.934804
0.7943
0.697832
0.856859
0.849025
1.08355
0.826383
0.727585
0.824759
0.889701
0.822211
0.837088
1.19808
0.879873
0.853435
1.25679
1.19071
0.805645
0.988113
1.23219
0.842214
0.669483
0.897561
0.787665
0.74615
1.22147
0.804947
0.923842
1.23338
0.683991
1.00822
0.820308
1.01117
0.899441
0.846795
0.437806
0.90787
0.72379
0.875794
0.910636
0.912934
1.11315
1.26486
0.818831
0.991847
0.878828
0.769578
0.64762
1.18305
1.05426
0.883406
0.726994
1.03289
0.724292
0.817128
0.8187
0.800614
1.12794
1.25187
0.881353
1.10967
1.30698
1.19644
1.18152
1.24432
0.863447
0.866707
0.747801
1.32169
1.16776
1.212
0.838306
0.902235
0.658869
1.12623
0.891486
0.80476
1.21351
1.07372
0.74324
0.901302
0.81544
0.824714
0.824822
0.897772
0.91673
0.776448
0.880559
0.706707
0.90621
0.781374
1.06731
0.946747
0.674161
1.23811
1.25804
1.13755
0.86045
1.01665
0.672519
1.15642
1.00666
0.731894
1.23164
0.588109
1.26965
0.703613
0.929221
0.94987
1.13865
1.14902
0.822226
1.29211
0.836835
1.19281
0.925334
1.06308
0.869421
0.802217
0.851109
1.19523
0.944567
1.31516
1.11646
0.698605
0.814856
1.08148
0.613101
0.865261
0.928904
0.772205
1.27463
0.753095
0.730379
1.16225
0.846566
1.26805
1.30545
0.912464
1.31737
1.27993
1.20737
1.21949
1.03096
0.740505
0.818627
0.906458
1.18393
0.910567
0.590039
1.29088
0.782268
0.941439
0.81029
1.24405
1.32477
0.782322
1.19751
1.03904
1.26314
0.904249
1.14453
0.928278
1.29215
1.31177
1.09133
0.816398
1.15364
0.862483
0.973031
0.990411
0.930583
1.04516
0.832969
0.595424
0.753006
0.946225
1.06006
1.00118
1.21461
0.79906
0.892166
1.06347
0.753589
1.25267
0.804647
0.928596
1.23197
1.20924
1.02025
1.29888
0.811587
0.893049
1.14442
0.972199
0.93855
0.930127
0.855589
1.08363
1.11024
0.856703
0.822024
1.02001
0.696538
0.774403
1.26939
1.30102
1.31441
0.917128
1.31218
1.32281
1.28105
0.639215
1.03984
1.0412
1.29651
0.874852
0.813345
0.726793
0.81578
0.55897
1.28984
0.956256
0.973203
1.15055
1.09714
0.874497
0.925572
1.32291
1.28557
1.24016
1.09079
0.875649
1.11267
1.07209
0.877959
0.952926
0.750177
0.807764
0.985618
0.958273
0.866829
1.26414
1.26854
0.649325
1.21028
0.829429
0.832622
0.89312
1.25683
0.917064
1.10077
0.941682
1.24158
0.894098
0.939027
1.30736
0.65081
0.696959
0.811097
0.782598
0.622182
0.340336
0.792903
0.619403
0.966742
0.644266
0.755866
0.96076
0.858858
0.798089
0.875709
0.732232
0.398681
1.27842
1.17809
0.900337
0.730121
1.18079
0.884278
0.812602
1.30873
0.797854
1.30517
0.920927
1.22039
0.907928
0.690772
0.752005
0.998418
1.00189
0.969386
0.699405
0.8965
0.760921
0.781743
0.834075
0.676565
0.74071
1.28488
0.800735
1.12462
1.15723
0.877639
1.14324
1.16229
0.729014
0.352511
0.928301
0.697482
0.62978
1.11953
1.1386
0.904588
1.0682
0.880519
1.3069
1.27703
0.939562
0.86627
1.29411
1.22378
1.05349
1.05386
0.890517
1.31103
0.980335
0.646353
1.24654
1.17698
1.26711
1.00395
0.818683
0.890692
1.14235
1.07979
0.247121
1.33621
0.925876
0.813666
1.00323
1.19864
1.30146
1.31257
1.07053
0.953956
1.17169
1.22913
1.22811
1.11541
1.18268
0.702226
0.832546
1.02271
0.74922
0.690433
0.678878
0.921449
1.16665
0.701849
0.991938
0.828593
1.17073
1.31303
0.958879
0.739205
0.669043
1.11625
0.856107
0.811093
0.662577
1.24427
1.03106
1.0499
0.721127
1.04038
0.804439
0.826602
1.12657
1.16366
1.24442
1.32532
0.792352
1.22937
0.648307
1.24756
1.25548
1.2651
1.16191
0.774328
0.773738
0.91465
0.647995
0.969667
0.675488
1.02938
0.727391
1.21299
0.882437
0.660768
1.21125
1.12557
0.942693
0.944275
1.11418
1.24762
1.02165
0.97332
0.654
1.18657
0.975369
1.27773
0.623867
0.961194
1.24898
1.13129
1.29935
1.12515
0.897632
0.609603
0.660288
0.951132
0.682234
1.28479
0.664802
0.827631
0.937569
0.800882
1.15426
0.625947
1.23175
1.14418
1.05322
0.593475
1.06933
0.773773
0.867498
0.962557
0.93748
0.895265
0.888296
1.16872
0.787544
1.30719
0.882021
0.928484
1.09807
1.12122
1.28654
0.897514
0.945123
0.801195
0.95033
0.867202
1.27427
0.815251
0.978359
0.887488
1.18484
0.848842
1.0049
0.734421
1.31405
0.6428
0.774552
0.833898
1.19436
0.667179
0.664117
0.761808
0.723181
1.26464
0.970415
1.10097
1.22216
1.0742
0.949786
1.31608
0.957389
1.12764
1.07741
0.9959
0.68022
1.01327
0.964664
0.847194
1.01251
0.751342
0.69738
1.01495
0.865308
0.776797
1.16785
0.947636
1.0816
0.958497
1.26679
0.934575
0.918748
1.08018
0.725832
0.807973
0.889888
1.00066
1.02568
1.08163
1.25396
1.11262
1.18556
1.00444
1.23238
1.29014
1.28347
0.979787
0.977566
1.03736
0.743522
1.29995
1.22396
1.19398
0.983246
0.784639
0.688946
1.04002
1.12405
0.810685
1.18779
1.22187
1.06543
0.82997
0.983232
0.852953
0.804044
0.988056
0.837896
1.04911
0.662512
1.04763
0.937118
0.940183
0.629396
1.02178
0.978753
1.11019
0.885995
1.03591
1.25856
1.27173
1.06044
0.925879
1.18553
1.00669
0.81324
0.801747
0.918598
0.711431
1.24956
0.95663
1.02161
1.14705
1.12
1.05949
0.742877
1.30921
1.07259
0.81531
0.966668
0.993558
1.18506
1.25769
1.07663
1.0546
0.674589
0.781931
0.950748
1.05701
0.97668
1.06514
0.838802
1.26708
1.04906
1.13801
1.23462
1.02648
0.810376
0.992169
1.29832
0.877484
0.664397
0.986721
1.30173
0.867042
0.924809
1.17546
1.11676
1.20246
0.969268
0.678103
1.06258
0.733195
0.876058
1.20419
0.967803
0.750319
0.81619
0.86153
1.08176
0.878904
0.839835
1.23272
0.822024
1.31689
1.20196
0.728512
0.61071
0.961152
1.12651
1.22686
0.976895
0.94921
0.787826
0.912878
0.936411
1.32319
1.25036
1.12725
0.876133
0.694557
1.23965
1.31434
1.2668
1.18603
1.24424
0.985068
0.733424
0.644333
0.667796
1.2814
0.988414
0.761995
0.901761
1.3124
0.892056
0.832977
0.708167
0.974799
0.793229
1.29514
1.07028
1.13864
1.24754
1.20428
0.932695
1.10161
0.986443
1.10593
0.870935
1.0634
0.84212
1.27698
0.707177
0.865925
0.750168
0.906647
1.25639
0.890498
1.20483
1.21693
1.25062
0.766036
0.980078
0.944812
0.797728
1.26715
1.00051
1.00557
1.06426
0.516325
0.910189
1.25306
1.10113
1.26982
0.654517
0.769047
0.900423
1.28096
0.802643
0.943216
0.781034
0.730597
0.878217
1.25868
0.910271
0.955947
0.71735
1.28602
1.30312
0.53138
1.24656
0.875928
0.771745
0.77783
0.99272
0.689838
1.06639
0.878819
0.869548
0.917801
1.20878
0.981807
1.19928
0.917415
0.763768
0.913018
0.654063
0.688233
0.96626
0.854054
1.01978
0.776693
0.937518
1.21897
1.05609
0.870497
0.687148
1.23586
0.989421
0.947125
1.32226
1.01916
0.863157
0.832072
0.739739
1.28966
0.854485
0.95127
1.07509
0.711711
1.2434
0.715754
1.22901
0.973731
1.15676
0.785431
1.16352
0.948452
0.729468
0.808686
0.97331
1.24867
0.608373
0.816527
0.90073
1.28288
1.30713
0.779781
0.853811
1.05881
1.26933
0.929253
1.26311
1.22735
1.19394
1.14971
1.04103
1.0852
1.06129
1.27059
0.944741
0.997391
0.778525
0.827421
0.937022
0.78398
1.29356
0.70803
1.25533
0.928566
1.28363
0.845258
1.29741
1.15641
1.1958
1.28559
1.25849
1.3194
0.922295
1.23749
0.969949
0.893205
0.815804
0.7811
1.26992
0.71028
1.07584
1.08175
0.938489
1.06528
0.83246
1.2491
1.01642
1.16563
0.634754
0.813585
0.898047
1.28699
0.789576
1.10715
0.834249
0.899299
0.744693
0.925203
0.883026
1.19163
1.27752
0.702912
1.06738
0.900925
0.852228
1.21223
0.794955
0.823741
1.28924
0.669622
1.01141
1.12939
1.26437
1.31115
0.844117
0.831286
0.712597
0.896208
0.803361
0.897737
1.14772
0.875791
0.731632
0.950452
0.979613
0.86959
0.80507
0.89709
0.988598
0.733936
1.17954
1.15941
0.853502
1.16984
0.679765
0.707309
0.790652
0.652549
1.2974
0.883774
0.884168
0.833602
1.21105
1.26942
1.02996
1.14641
0.822568
0.814963
0.986051
0.884913
0.813246
1.26823
1.03278
1.07965
1.29953
1.18577
0.954238
1.28581
0.701827
1.03531
1.02995
1.08815
0.87845
1.2627
0.878417
1.07435
0.962363
0.869469
0.782402
0.840456
1.15664
1.21527
1.24405
0.9896
1.01125
1.27117
1.17129
0.957553
1.01069
0.75588
0.921071
1.20287
0.697175
1.22714
0.885122
1.23823
1.30883
1.27458
0.878064
1.20362
1.23038
0.620234
1.26673
0.818916
1.27998
1.19013
0.900748
0.768332
1.02976
0.925629
0.86103
0.823237
1.16169
0.85883
1.29059
0.771767
0.850741
0.795407
0.769023
0.88565
1.21224
1.3056
0.766634
1.15193
0.993183
1.07962
0.937389
1.05103
1.26181
1.19746
0.892318
1.25202
1.21206
1.30504
0.764157
0.876704
0.815546
1.15384
1.29586
1.222
0.952312
1.30092
0.966341
0.713201
0.767165
0.606266
0.944804
0.746395
1.30218
1.3197
1.018
1.31231
1.20385
1.03202
1.29458
0.75849
1.25864
0.921013
1.2689
0.894198
0.777054
1.15385
1.02413
1.28116
1.26095
1.26599
0.797614
0.800269
0.689637
1.22185
1.19543
0.766899
0.978482
1.1965
0.646871
0.854039
0.794128
0.914841
1.06328
0.905991
1.03071
1.11614
1.00148
1.01374
1.16761
0.889478
0.913039
1.07355
1.00528
0.894202
1.2399
1.27346
0.770871
1.18946
0.632474
0.84565
1.24197
1.17106
0.89051
1.27457
0.754205
1.1607
0.916199
0.9078
1.24894
0.897623
1.17082
1.15424
1.10944
1.32561
1.12313
0.716765
1.09785
0.938392
1.17598
1.31992
1.11063
0.967228
0.814555
0.908956
1.25135
0.744786
1.19631
0.803461
1.03911
1.17836
1.16146
0.996962
1.2459
1.30186
0.902509
0.890503
1.01344
0.789532
0.739767
1.03692
1.15862
0.803988
0.720291
0.79615
0.722583
1.1549
0.964106
1.18289
0.840174
1.2713
0.991762
1.21316
1.29515
0.825629
1.26016
0.887332
1.02106
0.984734
1.22805
0.826501
0.927346
0.993539
0.786715
0.900862
0.767374
0.747096
0.634278
1.2973
1.30622
0.80067
0.845559
1.17363
0.698399
0.799776
0.896396
1.13837
1.15868
0.67425
0.634518
1.25906
0.833046
1.06427
0.826217
0.706218
0.771075
1.00201
1.22295
1.06988
0.700169
1.27432
1.21924
0.807724
1.06015
0.882986
1.29624
0.904013
0.936684
0.7299
1.11645
1.26881
1.08039
0.997175
0.82998
0.955372
1.06037
1.29823
1.31663
0.820569
1.30537
0.839512
1.04474
1.03781
0.955569
0.875273
1.2334
0.883225
1.02338
0.815667
0.847425
0.897572
0.777229
1.11213
1.27113
0.812184
0.856064
1.02926
0.884742
0.790505
0.653867
0.877164
1.2146
0.599965
0.88057
1.13623
1.03383
0.952668
1.11557
1.20374
0.773893
0.764131
1.21332
0.941264
0.761256
0.974974
1.22481
1.1002
1.05421
0.825717
0.823879
0.815759
1.2979
1.21802
1.30955
0.946501
1.12992
0.748099
0.983033
1.22461
0.70674
0.714774
1.16181
1.22227
0.689659
0.858615
0.810072
0.750441
0.807973
1.31432
0.926591
0.853967
0.992632
0.81261
1.14411
1.01623
0.735832
0.857811
1.16722
0.951439
1.30208
0.735698
0.852768
1.08848
1.07735
0.969643
1.06091
0.783303
1.30889
1.23681
1.09285
1.23379
0.821144
1.2245
1.11028
1.07581
1.28448
0.699471
0.870546
1.31318
1.11475
0.687684
0.888774
1.19317
1.31063
0.986022
1.16998
0.821288
0.724737
0.800128
0.687015
1.22493
0.839543
1.0122
1.28606
0.815875
0.772549
0.837402
1.01009
0.842687
0.882039
0.817065
0.762037
0.955979
1.19613
1.28369
1.12921
0.879202
0.867321
0.668801
0.861229
1.09378
1.07408
1.10097
1.14536
0.869188
0.984633
1.19348
1.22887
1.31355
1.25027
1.28892
0.961751
0.750407
0.805553
0.762444
1.2993
1.01381
0.8459
1.28297
0.753933
1.19394
1.1379
0.86433
0.82133
0.86868
0.836387
1.22662
0.933652
1.14026
0.973576
1.28011
1.0496
1.32778
0.798175
0.981743
0.87007
0.624792
0.887971
1.15547
0.749195
0.495958
1.05452
1.26267
1.17771
0.838125
0.74076
0.805029
0.757014
0.82427
0.751441
0.953536
0.775283
1.16432
0.793989
0.839654
1.23158
0.965984
1.07038
1.21419
0.956497
1.01373
0.798243
1.16774
0.936901
0.857335
0.940515
0.778266
0.727418
0.839109
0.805579
1.16612
1.31
1.23532
1.04627
1.138
0.69639
1.30416
1.04251
1.14544
0.826465
1.15069
0.889263
0.895892
1.20413
1.27289
1.1638
1.06071
0.896926
1.32067
0.89087
1.193
1.29314
1.126
0.923464
0.691085
1.19256
1.02574
0.770444
1.11331
1.02202
1.27695
0.834801
1.28626
1.31495
0.941735
0.797711
1.29177
0.740909
0.781026
0.89698
0.781426
0.87243
0.778881
0.739456
0.971332
0.839162
0.800111
0.870827
1.06661
0.854363
0.825761
1.10752
1.00872
0.69871
1.27314
1.30068
1.2943
0.826458
0.696612
1.33144
0.729633
0.950759
0.802485
0.896398
0.823234
1.15832
0.874377
0.886778
0.72084
0.703505
0.77104
0.87446
0.676422
0.992867
1.03764
0.983293
1.28144
1.00653
1.10415
0.920685
1.21539
0.910546
0.891197
1.31503
0.897645
1.0136
0.743923
1.12118
1.30757
0.945184
1.0713
1.0193
0.88995
0.82067
0.813308
0.77466
1.16973
0.788861
0.934854
0.884586
0.945371
0.804011
0.814418
0.95661
0.926114
0.854586
1.29651
0.962422
0.920382
1.05809
1.27729
0.889457
0.707719
1.17889
0.743064
0.913404
0.814323
0.956131
0.881201
0.878111
0.954544
1.30675
1.23351
0.720195
0.852913
0.69864
0.798467
0.68751
0.778882
0.879201
0.794641
0.89337
1.08633
1.31529
0.88551
1.14388
0.993659
1.29812
0.876243
1.30944
1.0879
0.745717
1.07634
1.14756
0.895323
1.21749
0.812731
1.24386
0.84437
0.553999
0.96784
1.31685
1.29303
1.17026
1.08615
1.12738
0.707466
0.866299
1.12423
1.32666
0.569092
0.969427
0.814275
0.905198
0.938286
0.810676
0.758051
0.847276
0.773877
0.853484
0.919752
0.942284
1.32327
1.21642
0.681656
1.18365
0.795251
0.801302
1.19823
0.838586
0.912155
1.11614
0.624134
0.82502
0.979249
1.23687
0.762631
0.831954
0.902554
1.08662
0.762798
1.27845
0.695003
0.885142
0.911016
0.835346
1.08829
1.08786
1.28035
0.816526
1.15819
1.05054
1.0764
0.818795
1.08741
0.789589
0.752343
0.657195
1.03526
0.973865
0.910224
1.24515
0.97412
1.00507
1.08286
0.807242
0.787161
0.881459
1.05666
0.826685
1.31269
0.740695
0.697057
0.901443
0.887216
0.832574
0.801653
1.14201
0.896205
0.98361
0.754016
0.813543
0.988098
0.736576
1.31379
1.28619
0.763287
0.804683
1.21055
0.986916
0.810538
0.740282
0.806782
0.76088
1.04292
1.26406
0.809393
0.70181
1.0855
0.960596
0.696648
0.762489
0.961796
1.1369
1.31108
0.748211
0.710495
1.06485
1.22126
0.932699
1.03615
0.908489
0.816739
0.889772
1.089
0.971448
0.823329
1.19501
0.906631
0.667183
1.02821
0.839768
1.20074
1.32537
0.83009
0.88033
0.891966
0.875909
0.749012
0.891332
0.758148
1.28646
1.20672
1.13954
0.885582
0.715703
1.1874
1.3045
0.822846
1.02145
0.881654
0.630283
1.00661
0.890966
0.643315
0.797595
1.06533
0.743212
0.701597
0.774784
1.17151
0.726823
1.19577
0.938652
0.836581
0.922641
0.797483
1.20153
0.667245
0.886489
0.935271
0.748332
1.02966
1.12479
1.0539
0.980236
1.17761
0.76378
0.762421
1.25925
0.817864
1.25377
1.0694
0.939739
1.02448
1.23863
0.959524
0.696156
1.27534
0.81374
0.943519
1.23021
0.807981
1.28695
0.818551
0.910256
0.624572
0.899764
0.773207
0.971397
0.784168
0.665911
0.765397
0.765683
0.635537
1.26447
0.764502
0.90468
1.03997
0.972229
1.30782
1.30975
0.873772
0.950438
1.20387
0.863559
1.26612
0.645897
0.917081
1.00831
0.825322
1.21417
0.88078
0.885429
0.857689
0.817076
0.797091
0.674955
1.24032
0.42977
1.27228
1.14479
0.787732
0.706108
0.773456
1.31624
1.13394
1.10012
0.947957
1.02878
0.936047
1.23681
1.17541
0.800366
1.07066
1.28572
0.953287
1.01717
1.07672
0.679143
0.758444
1.17786
0.895765
0.941298
1.28873
0.760333
0.651761
0.831536
0.942435
0.962216
1.29604
0.823831
0.724116
0.822352
0.937724
0.831485
1.25542
0.944236
0.772655
0.889696
0.820335
0.80702
0.874041
1.07759
0.975958
0.791737
1.24469
0.902296
1.18415
0.793405
0.756384
0.90053
1.23625
1.29848
1.18637
1.00088
0.974062
1.18895
1.28845
0.738435
1.27015
0.769097
1.10995
1.09476
1.24894
0.99714
1.2388
1.27254
0.827705
0.807222
0.906709
0.975156
0.764663
0.766633
0.697898
1.16164
1.2203
0.73577
1.27794
0.991911
1.18004
0.953017
0.791677
1.20647
1.18311
0.879507
0.855419
0.772492
1.31505
1.13501
1.33064
0.742522
0.764768
0.921895
1.22178
1.08954
1.21829
1.01003
1.29115
0.838688
0.924596
1.01807
0.857925
1.07458
0.66372
1.19808
0.965886
1.01803
1.27131
0.73149
0.740313
0.662912
1.0359
1.24788
0.85746
1.10183
0.676951
0.719289
0.94776
0.842979
0.815493
1.22534
0.969707
0.813567
0.921591
1.04681
1.27235
1.04234
0.919012
1.24103
0.982493
1.29207
1.01202
1.14407
0.926204
0.7339
1.31413
0.789567
1.01708
1.05896
1.2653
1.12634
0.972397
0.819448
1.32132
0.911651
0.784072
1.17092
1.30558
1.15232
1.10332
0.725163
0.656781
1.03363
0.794163
0.90288
1.00547
0.791451
1.27202
1.31014
1.27219
0.849171
0.896221
0.814808
0.883919
1.10461
0.764604
1.12824
1.28251
0.732425
0.885459
0.828406
1.20131
1.11059
0.897264
0.798838
1.15025
0.811211
0.645282
0.768192
1.32446
0.662688
1.19431
1.06376
0.810666
1.27579
1.04109
1.30584
0.619701
0.885016
1.00493
1.27791
0.885946
1.26495
1.04511
0.663666
0.97969
0.847268
0.896675
0.657252
1.18262
0.887968
0.79694
0.704386
0.98094
1.23132
0.593515
0.856659
1.24414
0.913205
1.23135
0.644987
0.810405
0.817417
0.936627
0.87096
0.721818
0.810521
0.611241
0.913139
0.924133
1.18131
1.0126
1.24751
0.807869
0.892138
0.725748
0.980686
0.604135
0.893574
1.32816
0.942472
0.876557
1.3196
0.793322
1.02711
1.07524
0.702541
0.859215
0.95614
1.03317
1.28431
1.3033
1.3069
1.04417
0.915257
0.945543
0.773843
1.20748
1.10227
0.826923
0.859656
0.867522
0.949908
1.30972
0.926962
1.30418
0.890693
1.06968
0.777304
0.815217
0.712807
0.846711
1.25842
0.867595
0.735173
0.769851
1.31896
0.858917
0.79206
0.786835
0.814091
1.13371
1.00578
1.01457
0.917087
1.1299
0.710269
0.956546
0.987814
0.883996
1.23303
1.24488
0.784257
1.25299
1.27894
1.23577
1.00154
0.913381
0.854222
0.933476
1.2916
0.955123
1.04634
1.24643
1.31007
1.27898
1.24084
0.815369
1.08711
0.971137
0.793986
0.694131
0.923494
1.23207
1.31755
1.29066
0.861001
0.768092
0.759089
0.700662
1.10015
1.31257
1.07999
1.15992
1.17895
1.17852
1.15284
0.802224
0.876945
0.841082
0.770159
0.827871
0.904358
0.746001
0.862879
0.824492
1.26525
1.05995
0.698394
1.29832
0.837695
0.826356
0.938855
0.780014
1.1457
1.14853
0.840037
1.06281
1.30518
1.3105
1.10465
1.13276
0.953127
0.991587
0.933462
0.725284
1.02786
1.03374
0.853471
1.10401
1.07108
0.737957
0.50684
0.844732
1.29088
0.865099
1.13
0.89522
1.26939
0.929015
0.790608
1.19623
1.10838
1.10741
1.03814
0.753822
0.885949
0.733322
1.10557
0.803754
1.21483
0.892997
0.831242
1.05669
0.720761
0.905956
1.31684
0.727385
1.13549
0.847189
0.779627
0.897689
0.921569
1.23237
1.25083
0.90132
1.29041
0.698116
1.26051
1.2022
1.1673
0.824052
1.22714
0.767275
1.14818
1.09356
0.646148
0.902108
0.755428
1.29237
1.12949
0.717777
0.770281
0.949552
0.794771
1.12279
0.78763
1.02805
1.31866
0.840182
1.29985
1.03591
1.11103
0.70753
1.22105
0.824172
1.24967
0.480826
0.775769
1.09772
1.18508
0.998812
1.12973
0.786612
0.916721
1.14994
1.10479
0.839603
1.15833
1.12031
1.24469
0.679107
0.905854
0.637625
1.03996
1.14897
1.04253
0.580784
0.875948
1.27429
1.0571
0.881284
1.25668
0.940126
1.14347
0.735695
0.934686
0.795935
1.25569
1.29327
1.12441
0.954457
0.90138
0.778721
1.1092
0.823144
1.22108
0.72607
0.959123
0.745863
0.676483
1.0503
1.26231
0.961326
0.951025
0.822478
0.797527
1.2043
0.944232
0.961173
1.32831
1.10716
0.844091
1.15574
1.23157
0.906039
0.760714
0.763498
0.989404
0.818827
0.879446
0.596744
1.09223
0.926103
1.23997
0.744687
1.15116