/*--------------------------------*- C++ -*----------------------------------*\
  =========                 |
  \\      /  F ield         | OpenFOAM: The Open Source CFD Toolbox
   \\    /   O peration     | Website:  https://openfoam.org
    \\  /    A nd           | Version:  6
     \\/     M anipulation  |
\*---------------------------------------------------------------------------*/
FoamFile
{
    version     2.0;
    format      ascii;
    class       volScalarField;
    location    "./ITHACAoutput/Offline/1";
    object      P_rec;
}
// * * * * * * * * * * * * * * * * * * * * * * * * * * * * * * * * * * * * * //

dimensions      [0 2 -2 0 0 0 0];

internalField   nonuniform List<scalar> 
13046
(
1.08344
1.03044
1.07948
1.08966
1.08993
1.04309
1.073
1.03772
1.09205
0.787337
0.490204
1.07309
1.07531
0.980665
1.07858
0.871155
1.05538
0.561911
1.10397
1.0724
1.07139
0.855932
1.06094
0.553799
1.08772
1.06014
1.07834
1.06181
0.972417
1.07428
1.09289
1.01109
1.0721
1.09373
1.0872
1.06203
1.08953
1.09114
1.07157
1.09155
1.05318
1.00839
1.08154
1.09698
1.08378
1.08631
1.0887
1.07807
1.0732
1.02079
1.08209
1.01099
1.09473
0.965747
1.00608
0.952842
1.09795
0.770221
1.01856
1.04156
1.01004
0.923008
1.08919
1.07266
0.694706
0.915075
1.0349
0.788427
1.03541
1.04831
0.816056
1.03548
0.727307
1.00329
1.04131
1.10359
1.07721
1.05741
1.0483
0.968422
0.695094
1.08335
1.05148
1.0796
1.07
0.649467
0.885553
0.881078
1.08744
0.726869
1.0963
0.817367
0.724429
1.01589
0.995797
0.867591
0.842155
1.06998
1.07455
1.09105
0.88271
0.75095
1.08746
1.09265
1.06942
1.1013
0.99135
1.01174
1.09251
1.03512
0.992716
0.65307
1.07221
0.313781
1.08146
1.00248
1.07697
0.998822
1.01539
0.808776
1.06184
0.850905
1.06277
0.761124
0.443222
1.07184
1.04848
0.912179
1.07486
1.08916
1.05676
1.00113
1.09588
0.838762
0.765206
0.961801
0.79831
1.08004
1.0879
0.992783
1.06823
1.04414
1.00798
1.09022
1.09056
1.02244
0.993387
1.09955
1.01247
1.02808
1.00357
0.893932
1.0881
1.10386
1.04319
1.03913
0.966081
0.95266
0.945272
0.949086
1.09785
1.09856
1.03762
0.997277
1.0948
0.774952
1.07755
0.509692
0.69953
1.07122
0.356977
0.952286
0.766656
1.07644
1.08911
0.948046
1.04804
1.04124
1.09567
1.01113
1.08425
0.567425
0.792267
1.09069
0.971178
1.04497
1.1031
1.02931
1.028
1.05411
1.01908
1.08984
0.963131
1.08601
1.05599
0.939673
1.07364
0.868743
1.082
0.670461
1.09436
0.874753
0.77823
0.82554
0.697614
1.0927
0.999001
0.921532
1.08988
1.06114
0.98031
1.04243
0.696275
0.655729
0.814781
1.09261
1.08402
1.09327
1.06802
1.07047
0.984232
1.06952
1.09638
0.859794
0.785815
1.05241
0.973484
1.0894
1.07958
0.430549
0.704089
1.09147
0.922965
0.984213
0.855481
0.738018
1.09213
0.986492
0.97091
1.09899
1.04226
0.908548
1.07258
0.858512
0.876126
1.09543
0.92893
0.923361
1.0964
1.08119
0.41925
0.675638
1.09703
1.03924
0.973005
0.679764
1.06299
0.260644
1.09806
1.07953
1.06407
1.00507
1.00469
0.962528
0.98108
1.09865
1.0925
1.04365
0.950413
0.659562
1.05804
0.931442
1.06478
0.920098
0.894977
1.09794
0.976056
0.798247
1.06924
1.08743
1.07835
1.09508
0.970966
0.947795
1.09768
1.05982
0.913475
1.06174
1.05639
1.05209
1.09839
1.03156
0.95403
0.966499
0.925226
1.09596
0.950564
1.07002
0.770154
1.10263
1.03978
0.997702
1.09904
0.931256
0.958649
1.02127
0.830722
1.052
1.09501
1.01884
0.955421
1.00368
0.994718
0.799602
1.05195
0.788132
1.05764
1.0804
0.594271
0.815966
1.02592
0.874453
1.06196
0.189332
1.07236
0.569903
1.06653
1.09753
1.04083
1.02602
0.944983
1.08725
1.08039
0.896385
0.710586
0.993169
0.933531
1.09694
0.829006
0.869845
1.09583
1.00148
1.08475
1.01629
0.92258
1.08126
0.997804
1.09143
0.900597
1.05487
0.605101
1.00576
0.897073
1.0912
1.00368
0.898654
1.07882
1.03002
0.99899
1.09573
0.98982
1.00975
1.09841
1.08559
1.02902
1.08497
1.0939
0.935707
0.97178
0.848235
0.679431
1.08539
0.827457
0.874669
1.09632
1.05618
1.03184
0.857442
0.985881
0.999698
0.771943
0.737678
1.04514
1.04687
1.06904
0.215239
0.60693
0.706455
1.06239
0.296103
0.995493
0.945314
1.09069
1.07996
0.856822
0.632308
1.03706
1.03118
0.841406
0.826219
1.04658
1.04647
1.09188
0.591459
0.747617
0.661123
1.06301
0.206713
1.0675
1.09977
1.08085
0.649878
0.265722
1.06929
1.08389
0.943144
1.04713
0.801517
0.591663
1.08755
0.19283
1.07604
0.491732
1.09386
1.05412
1.02641
1.072
1.06529
1.09343
0.76721
1.06908
0.43408
1.06377
1.05325
1.09392
1.07388
1.09735
1.0856
1.09799
0.903352
0.976035
1.05407
1.06879
1.09819
1.06822
1.04538
1.09818
1.0661
0.873889
1.02809
1.06704
1.07254
0.551079
0.547276
0.836086
0.823939
0.815922
0.649317
1.08606
1.03579
1.05276
0.826635
1.09029
1.03942
0.982737
0.912157
0.921515
1.09367
0.327104
1.08383
0.553456
1.09516
0.808468
0.692839
0.719425
1.07448
0.404636
1.07432
0.147162
0.477273
0.102479
1.06865
0.521457
0.887195
0.963633
1.09026
0.486762
1.09057
0.664151
0.939119
0.786949
1.08257
0.838146
1.04948
0.462877
1.07266
1.0821
1.01785
0.628913
1.09349
0.773685
0.917236
1.09359
0.939184
0.880223
0.921233
1.09747
1.07013
-0.0299324
0.379403
0.220573
1.07532
0.547028
1.08111
1.08832
1.02875
0.571141
0.744042
1.08883
1.09362
0.711321
0.562726
0.857142
1.07322
0.624595
1.05037
0.663163
0.934711
1.07784
0.867124
1.02676
0.787791
1.01591
1.04805
1.04877
0.914816
0.584881
1.07361
1.06643
0.949572
0.924735
1.05781
1.06071
1.07962
0.957673
1.05376
1.04961
0.835537
1.04499
0.850228
0.898814
1.0955
0.639789
0.811574
1.09046
1.09342
0.900646
0.815996
0.124318
1.06851
0.555015
1.09763
1.09297
1.06771
1.01933
1.07422
1.02446
1.06988
1.06476
1.04291
0.8832
1.04362
0.910755
0.231166
1.0805
0.492432
0.591602
0.766072
1.08862
1.08635
1.02463
0.94499
0.884376
0.892619
1.09677
1.04849
0.685784
0.951086
0.321683
0.623687
1.07798
0.3675
0.641338
1.08115
1.0329
0.843662
1.05423
1.10478
1.03657
1.01337
0.839519
1.07375
0.582277
0.868684
0.939588
1.09346
1.07154
0.725894
0.937566
1.0709
1.0411
0.916812
0.9928
0.986304
1.09712
1.09418
1.04601
0.997759
1.07733
0.565014
0.812987
0.977936
0.784147
1.06377
1.09755
1.06169
1.03012
0.889254
1.04717
0.53632
1.077
0.989227
1.06636
1.05693
1.0269
1.09849
0.897748
0.943957
1.09506
0.762512
1.05772
0.354191
0.786462
1.05485
0.377484
1.06683
0.711167
0.93832
0.9739
0.988516
1.0953
1.05655
0.294961
0.726715
1.08323
0.748166
0.917698
1.0757
0.117946
0.434375
0.496449
0.0440536
1.06615
1.05331
0.611937
0.918735
1.08031
0.48708
0.744487
0.869369
0.888826
1.06365
0.585617
1.06527
0.631362
0.904645
0.758802
1.08578
1.10029
0.90258
0.883765
1.09906
1.07684
1.03664
0.916676
0.80179
1.09168
1.09339
0.924942
0.825903
0.934039
1.04517
0.610443
1.06444
0.858216
1.04178
1.07406
0.92221
1.04351
0.970878
0.870995
1.08757
0.958542
0.862017
1.09046
1.10017
1.05961
1.04605
1.06427
0.908223
1.06008
1.09607
0.64721
0.765809
0.618117
1.08468
0.383982
0.588894
1.08486
0.372549
1.08779
1.05496
0.982432
0.281405
1.07796
0.575837
0.960369
1.06364
0.740163
1.0806
0.288131
0.542916
1.08893
1.09359
1.05442
1.0463
0.943319
1.07925
0.997948
0.974317
1.09691
1.09089
0.518824
0.696127
0.872664
0.939188
1.09508
1.05025
0.867055
0.516633
1.02747
0.921751
1.07905
1.1002
1.08096
1.04558
0.522216
0.722303
1.08878
1.07736
0.71994
0.917537
0.746061
0.718112
1.06373
1.06558
0.385157
0.346388
1.02068
0.976933
1.0955
0.910214
0.976664
1.09063
1.0621
1.03198
1.09492
0.437602
0.653002
0.447271
1.08655
0.648263
1.08877
0.996113
0.858931
1.08067
0.719524
0.686012
0.493755
0.453948
1.08597
1.085
0.972708
0.930699
1.09677
1.04095
0.967861
1.08538
0.814709
1.05513
0.441334
1.03534
0.96527
1.09308
1.06241
1.01325
1.09156
0.76709
1.05985
0.387171
1.03247
0.895786
1.07229
0.947237
0.896614
1.09521
1.07566
0.898282
1.03514
0.790683
1.09647
0.83767
1.07081
0.0162041
0.4166
1.02602
0.946711
1.08495
0.834248
1.05939
0.504307
1.01758
0.882229
1.0849
0.579173
1.0622
0.126928
1.10014
1.0973
1.03525
1.03092
1.03354
1.02285
1.06556
1.03442
1.09648
1.09536
1.0991
1.04696
1.03082
1.05391
1.02969
1.03681
0.983835
1.09281
1.0434
0.986387
1.09412
1.08823
0.408416
0.60168
1.08514
0.978282
1.05336
0.751441
0.515683
1.08339
0.966136
0.948542
0.845854
0.812968
1.08395
1.08346
1.08063
0.998839
1.05978
1.04829
0.870322
1.04657
0.995911
0.8892
1.08531
1.09611
1.06455
1.07778
0.938673
0.822573
1.08995
1.09584
1.06774
1.04074
0.990439
0.927956
1.09397
1.04732
0.889747
1.04821
1.09507
1.09664
1.05581
1.07999
1.05774
1.07395
1.09949
1.05274
1.10146
1.05223
1.06409
1.0381
1.07434
1.07124
0.964448
0.95887
1.06356
1.06244
1.05515
0.682528
0.942479
1.09359
0.914828
0.965632
1.06024
1.06361
0.648146
0.662787
0.918288
0.913505
1.09214
1.01785
0.934663
1.09369
1.08699
1.07567
0.934455
0.798658
1.08729
1.09497
1.06164
1.0018
1.04077
0.877168
1.05136
0.977099
0.979496
0.729517
1.05431
0.747947
1.05664
0.977458
0.836509
1.0794
0.612272
0.180898
1.06314
1.01268
0.903307
1.08643
1.07949
1.0805
1.02217
0.88659
1.02855
0.904535
0.913637
0.843218
1.09492
1.05392
0.889071
1.04753
1.09204
1.01816
0.928049
1.07763
1.08277
1.03246
1.04449
0.940117
0.934688
1.07587
1.03415
0.913445
0.980061
0.855323
1.08341
1.09768
1.06707
1.04907
0.793162
1.06389
0.460063
1.0896
1.0194
0.910119
1.04668
1.03207
0.885984
0.863849
1.05375
1.05984
1.0632
0.503343
0.823938
0.817986
1.05978
0.462796
0.792396
1.06027
0.432963
0.961925
1.05892
0.725205
1.05961
0.91385
1.05119
0.551652
0.700962
0.961383
0.558678
0.873152
0.2954
0.793575
0.658028
0.491986
0.869427
0.867363
0.45611
0.561337
0.856548
0.679591
0.56586
0.598823
0.643357
0.699831
0.821161
0.725194
0.635514
0.895511
1.04496
0.976474
0.705979
0.886358
0.472563
0.748042
0.550023
0.487151
0.794636
0.699254
0.70796
0.525174
0.71636
0.952059
0.886474
0.624246
0.752356
0.602773
1.05905
0.55118
0.859489
0.918567
0.629545
0.635848
0.568943
0.466701
0.549702
0.988216
0.736335
0.565406
0.607758
0.483452
0.984396
0.819279
0.708405
0.557561
0.845053
0.543973
0.562672
0.980142
0.680716
0.704787
0.82425
0.737862
1.01927
0.889134
0.869956
0.418172
0.467424
0.623008
0.842191
0.454033
0.709466
0.702743
0.517334
0.835642
0.928166
0.644439
0.695351
0.476383
0.544397
0.614444
0.844467
0.616643
0.601938
0.666143
0.988181
0.566394
0.846443
0.971743
0.714251
0.567467
0.228358
0.523497
0.573158
0.565024
0.416498
0.766936
0.901066
0.926928
1.02047
0.554152
0.572861
0.473604
0.576735
0.525926
0.951696
0.91023
0.820357
0.52254
0.471412
0.768254
0.890513
0.642519
0.601743
0.397436
0.638528
0.696762
0.988952
1.00965
0.849521
0.715142
0.629618
0.454094
1.00895
0.500103
0.837873
0.405679
0.980968
0.477485
0.488768
0.535132
0.927992
0.696831
0.36833
0.548076
0.806302
0.561579
0.85439
0.781913
0.578259
0.913541
0.603908
0.542132
0.940206
0.55751
0.647073
0.459789
0.729594
0.620446
0.925018
0.84827
0.637164
0.840931
0.854811
0.962113
0.707183
0.617672
0.572945
0.859056
0.498071
0.748799
0.479251
1.04639
0.637795
0.926152
1.00891
0.729327
1.01392
0.930464
0.962355
0.513842
0.400108
0.453646
0.965426
0.515081
0.492949
0.490924
0.495168
0.652374
0.603497
0.727412
1.00792
0.846382
0.610154
0.830575
0.588784
1.05408
0.453833
0.906209
0.571896
0.381027
0.991507
1.01703
0.565122
0.574024
1.04322
0.754629
0.616462
0.532418
0.847352
0.947902
0.819157
0.562734
0.559368
0.873054
0.716067
0.524124
0.768253
0.499703
0.500402
0.630902
0.875721
0.405269
0.646052
0.905601
0.607058
0.399833
0.627675
0.567914
0.621766
0.782322
0.797354
0.545363
0.48811
0.527383
0.825963
0.814936
0.64943
0.807208
0.610262
0.515201
0.767305
0.608826
0.383023
0.815688
0.938904
0.744433
0.97671
0.947443
1.06158
0.567273
0.354119
0.665946
0.630181
0.613134
0.411887
0.764821
0.980203
0.824213
0.761693
0.556016
0.653457
0.840627
0.71414
0.794333
0.56223
0.662084
0.60311
0.486361
0.543515
0.579544
0.569911
0.506246
0.803007
0.713465
0.635345
0.809415
0.571173
0.65836
0.547182
0.631851
0.612161
0.58223
0.755548
0.423251
0.35559
0.673399
0.449679
0.418198
0.762516
0.459694
0.417024
0.932535
0.813544
0.545273
0.825899
0.493855
0.801686
0.763125
0.504036
0.570871
0.893419
0.672885
0.844287
0.302074
0.534463
0.931583
0.595985
0.539782
0.327807
0.431378
0.397052
0.444257
0.605266
0.815627
0.511604
0.392069
0.528457
0.592123
1.05647
0.566871
0.846587
0.75548
0.473482
0.636851
0.54631
0.475362
0.786959
0.610149
0.986037
0.818519
0.545369
0.616904
0.737294
1.0435
0.833633
0.955639
0.855958
0.611438
0.730341
0.652269
0.520497
0.429187
0.579419
0.599183
0.804627
0.550926
0.456558
0.565542
0.631433
0.563207
0.587887
0.912535
0.61634
0.582291
0.973988
0.909682
0.539585
0.725211
0.94776
0.559665
0.449977
0.619214
0.516855
0.477707
0.937241
0.530472
0.649629
0.951917
0.413269
0.726026
0.552501
0.726239
0.620368
0.571207
0.257421
0.645967
0.453226
0.592239
0.628988
0.630539
0.832209
0.982035
0.56156
0.722346
0.624166
0.533591
0.377925
0.897698
0.779734
0.599811
0.455247
0.75176
0.456382
0.569414
0.55817
0.531803
0.855161
0.968204
0.604995
0.832613
1.0245
0.911319
0.901364
0.960134
0.612269
0.593057
0.479846
1.04347
0.886946
0.929417
0.561886
0.619932
0.389465
0.848237
0.626818
0.562729
0.931247
0.797949
0.509165
0.640575
0.547449
0.564903
0.554876
0.618106
0.634109
0.511565
0.608211
0.437452
0.638695
0.512253
0.793823
0.692346
0.404867
0.953947
0.975108
0.851159
0.583362
0.733821
0.454622
0.870117
0.721246
0.464809
0.947078
0.383116
0.988007
0.433231
0.64742
0.673425
0.85206
0.870757
0.565337
1.01226
0.579799
0.907418
0.643663
0.793217
0.595848
0.55329
0.575482
0.910303
0.671716
1.0372
0.829878
0.429907
0.569739
0.795604
0.403611
0.587806
0.647483
0.505683
0.992022
0.519525
0.498833
0.877474
0.569812
0.986159
1.02652
0.62935
1.03783
0.997284
0.921941
0.936592
0.746142
0.471923
0.543978
0.626606
0.898076
0.634959
0.385413
1.01091
0.510513
0.657134
0.536021
0.960168
1.05037
0.509906
0.912189
0.760254
0.980219
0.644566
0.858342
0.643759
1.01131
1.03311
0.806447
0.542693
0.873557
0.601925
0.714324
0.708372
0.656275
0.764491
0.585029
0.387783
0.485123
0.670459
0.778655
0.72448
0.92961
0.524969
0.628093
0.785724
0.486257
0.969529
0.552764
0.643986
0.950757
0.923896
0.742529
1.01969
0.552556
0.6114
0.858573
0.704556
0.683975
0.648051
0.580004
0.79744
0.824194
0.581299
0.55636
0.739483
0.426633
0.508903
0.986322
1.01821
1.03456
0.662617
1.02977
1.04698
0.998873
0.36943
0.755779
0.758606
1.01736
0.59651
0.560275
0.458323
0.542254
0.357996
1.00853
0.672112
0.688416
0.864399
0.812028
0.596839
0.641381
1.04715
1.00307
0.956416
0.809875
0.593255
0.836121
0.787276
0.599127
0.679406
0.477831
0.533338
0.710655
0.675231
0.596026
0.981442
0.985998
0.379735
0.9249
0.562158
0.567825
0.624103
0.974077
0.637862
0.819203
0.658387
0.958063
0.614038
0.656109
1.02711
0.381328
0.427106
0.550114
0.517415
0.35277
0.182002
0.526356
0.349861
0.683715
0.374995
0.484041
0.678007
0.576362
0.532247
0.604906
0.460792
0.226535
0.995787
0.90059
0.618738
0.461516
0.903701
0.601755
0.560112
1.03009
0.531831
1.02565
0.645213
0.935631
0.655673
0.464727
0.480097
0.723088
0.724554
0.686183
0.470973
0.61631
0.48877
0.516187
0.58016
0.406488
0.468821
1.00367
0.549775
0.838063
0.871551
0.599364
0.870419
0.876559
0.460967
0.192515
0.646951
0.428468
0.360424
0.833545
0.852259
0.622997
0.784163
0.603772
1.02686
0.994231
0.656129
0.590123
1.01457
0.939025
0.768387
0.77073
0.610358
1.03117
0.713039
0.37689
0.963076
0.892596
0.984496
0.723492
0.543633
0.62109
0.856015
0.793694
0.107777
1.06417
0.644864
0.55003
0.718104
0.919716
1.01805
1.03521
0.78778
0.684652
0.887434
0.944583
0.94736
0.829412
0.89696
0.476663
0.569152
0.745345
0.481652
0.466729
0.409576
0.640528
0.880417
0.431726
0.712594
0.575189
0.894385
1.03582
0.674497
0.468383
0.399733
0.846181
0.578595
0.539105
0.393177
0.962594
0.746614
0.764089
0.453417
0.755718
0.53249
0.558677
0.845336
0.877485
0.962776
1.04964
0.527388
0.946147
0.378778
0.96349
0.973614
0.982866
0.877059
0.50798
0.507694
0.632333
0.378843
0.703779
0.4053
0.760782
0.459857
0.932347
0.603484
0.391752
0.926228
0.851132
0.662733
0.662984
0.827809
0.965701
0.73693
0.692429
0.384685
0.90163
0.716852
0.994876
0.35449
0.677826
0.965682
0.845275
1.02003
0.839771
0.617397
0.340187
0.390278
0.669266
0.412591
1.00297
0.396083
0.578899
0.658678
0.526975
0.878572
0.356486
0.950516
0.857762
0.767957
0.386455
0.797136
0.532857
0.614099
0.679099
0.658904
0.612878
0.605445
0.882698
0.520977
1.02457
0.601043
0.675555
0.812368
0.846068
1.00365
0.614771
0.659854
0.536559
0.680853
0.586192
0.993275
0.541872
0.69803
0.607539
0.901318
0.566876
0.724681
0.462975
1.0369
0.373628
0.509082
0.591877
0.912788
0.398216
0.394944
0.494919
0.452337
0.98123
0.691527
0.818665
0.937434
0.792411
0.696883
1.03903
0.698333
0.851485
0.792975
0.724024
0.41129
0.737544
0.679795
0.589716
0.741012
0.512715
0.42838
0.729375
0.618897
0.506547
0.883798
0.683411
0.812448
0.674264
0.98442
0.657369
0.658961
0.797001
0.454514
0.535456
0.609643
0.724387
0.742486
0.795242
0.970002
0.838316
0.899656
0.720029
0.94917
1.00827
1.00304
0.723502
0.707436
0.758126
0.4766
1.01807
0.939219
0.909791
0.69849
0.517548
0.420187
0.759947
0.838171
0.552135
0.903956
0.939053
0.77985
0.567952
0.721541
0.589588
0.556269
0.703009
0.58048
0.763113
0.393024
0.762391
0.674229
0.656683
0.360016
0.740105
0.695602
0.826112
0.607995
0.750479
0.975475
0.988707
0.773988
0.649122
0.899613
0.721804
0.540505
0.528171
0.637483
0.441109
0.965826
0.678368
0.736312
0.860651
0.833956
0.788575
0.505819
1.02778
0.797602
0.540567
0.68576
0.708805
0.899264
0.97471
0.801714
0.770519
0.405736
0.50942
0.666454
0.771636
0.695223
0.778323
0.562555
0.98389
0.768835
0.864001
0.950209
0.742219
0.547997
0.719954
1.01744
0.59378
0.395212
0.715518
1.02067
0.589849
0.643086
0.889468
0.831256
0.918143
0.685298
0.408806
0.776744
0.461288
0.598369
0.918855
0.68326
0.48336
0.555316
0.584516
0.796207
0.609451
0.578813
0.95012
0.546727
1.03987
0.917755
0.460725
0.341305
0.685392
0.842647
0.942044
0.692201
0.664911
0.54511
0.630193
0.662527
1.04733
0.966492
0.841675
0.61545
0.425939
0.958156
1.03459
0.983683
0.900061
0.961404
0.711841
0.462215
0.375162
0.398438
0.99825
0.704156
0.530467
0.634893
1.03172
0.611975
0.570747
0.439615
0.690331
0.52021
1.01057
0.784064
0.857924
0.964061
0.920979
0.648574
0.815053
0.709329
0.83131
0.587126
0.779069
0.567385
0.995915
0.479298
0.588197
0.522313
0.628015
0.973246
0.610838
0.9195
0.933441
0.966755
0.493215
0.701988
0.660824
0.550382
0.985034
0.719441
0.735053
0.778151
0.32481
0.642659
0.970545
0.814748
0.987116
0.385239
0.502596
0.618913
1.00055
0.564952
0.671648
0.507584
0.498139
0.620487
0.976141
0.651144
0.671492
0.448425
1.00203
1.02422
0.336208
0.964554
0.597437
0.498843
0.511954
0.709943
0.4201
0.790038
0.61287
0.591388
0.63942
0.930326
0.697771
0.91368
0.64502
0.497634
0.636956
0.384812
0.418245
0.682497
0.607682
0.747241
0.504745
0.657147
0.937109
0.776425
0.592253
0.461935
0.954222
0.703704
0.672088
1.04163
0.740737
0.585378
0.591643
0.510674
1.00996
0.590652
0.670086
0.789138
0.440937
0.961559
0.489129
0.94668
0.697215
0.870712
0.511908
0.886314
0.66591
0.460554
0.534515
0.697569
0.964531
0.338696
0.554604
0.616883
1.00044
1.02328
0.538243
0.577709
0.783254
0.986468
0.65459
0.979658
0.942923
0.909003
0.864796
0.755184
0.814439
0.794821
0.988635
0.673741
0.719404
0.536478
0.568154
0.670247
0.519418
1.01395
0.481521
0.972665
0.657485
1.00321
0.568729
1.01855
0.870182
0.917557
1.00507
0.975695
1.03857
0.639833
0.95367
0.697551
0.612202
0.552874
0.508918
0.987078
0.483098
0.788937
0.795699
0.656394
0.785503
0.556612
0.967258
0.730502
0.884087
0.36543
0.546375
0.617227
1.00325
0.547396
0.82081
0.573225
0.618801
0.477494
0.646312
0.604095
0.906045
0.995827
0.434331
0.780492
0.619897
0.575391
0.926908
0.546626
0.565492
1.00703
0.400739
0.738413
0.843375
0.981481
1.03348
0.583047
0.561566
0.442987
0.626456
0.554397
0.616944
0.871825
0.597404
0.462011
0.6664
0.702086
0.598232
0.557803
0.613482
0.708001
0.463272
0.89355
0.873204
0.597984
0.88685
0.457257
0.436056
0.549515
0.38307
1.01763
0.605005
0.604641
0.557844
0.929688
0.987624
0.744261
0.864733
0.571572
0.540029
0.712125
0.605585
0.551231
0.985922
0.755868
0.809414
1.01812
0.900852
0.69019
1.00565
0.433337
0.749669
0.744225
0.801643
0.629796
0.980135
0.59939
0.787827
0.68082
0.600487
0.516849
0.570347
0.870461
0.930011
0.960403
0.712783
0.729971
0.98886
0.893325
0.673564
0.741392
0.484163
0.637815
0.917475
0.428454
0.942428
0.604016
0.953812
1.02528
0.992957
0.596894
0.9246
0.9456
0.40988
0.984327
0.577345
0.998939
0.904393
0.618628
0.49584
0.757771
0.642506
0.617051
0.571589
0.886111
0.602615
1.00899
0.504167
0.585368
0.548691
0.50334
0.605987
0.928082
1.02466
0.499074
0.875172
0.709702
0.792972
0.660773
0.777243
0.9794
0.911886
0.610837
0.969029
0.92703
1.02578
0.497507
0.593345
0.561215
0.870542
1.01382
0.936867
0.671508
1.02226
0.688909
0.445234
0.494604
0.33674
0.677075
0.476873
1.02161
1.0431
0.736732
1.03001
0.918518
0.745882
1.01548
0.48634
0.976345
0.637575
0.98686
0.619113
0.511144
0.870983
0.740355
1.00025
0.977564
0.983377
0.53426
0.537733
0.421348
0.940189
0.909813
0.527206
0.709142
0.910894
0.37751
0.577503
0.528231
0.630968
0.777747
0.622513
0.745107
0.844001
0.718339
0.73085
0.881438
0.612064
0.641597
0.787311
0.721392
0.615614
0.955994
0.990727
0.530594
0.903747
0.363147
0.570913
0.957721
0.885299
0.6079
0.992893
0.484517
0.874561
0.644592
0.64454
0.965739
0.622109
0.885816
0.875092
0.825127
1.04849
0.838082
0.446699
0.811779
0.675542
0.890014
1.04379
0.828421
0.692119
0.552509
0.646379
0.968314
0.475318
0.917311
0.54181
0.765224
0.893604
0.875517
0.711855
0.962885
1.02328
0.631844
0.613789
0.729933
0.524957
0.468044
0.751015
0.878948
0.529649
0.450022
0.554036
0.454685
0.868713
0.688191
0.896862
0.575291
0.988299
0.708891
0.928754
1.01254
0.550445
0.9775
0.622855
0.736675
0.715319
0.946422
0.568574
0.650303
0.723278
0.520867
0.62342
0.500379
0.479893
0.364971
1.01703
1.02556
0.526692
0.58385
0.88761
0.429504
0.553561
0.616352
0.852291
0.874726
0.405354
0.365001
0.975595
0.575056
0.780439
0.567488
0.436749
0.498121
0.740363
0.938112
0.788673
0.429396
0.991512
0.934287
0.537162
0.774852
0.603676
1.01391
0.623618
0.663126
0.461865
0.829899
0.986033
0.794355
0.737918
0.562683
0.682905
0.779582
1.01908
1.03306
0.562732
1.02706
0.571678
0.758792
0.752533
0.671756
0.600237
0.950964
0.634639
0.742343
0.554275
0.564725
0.643951
0.511471
0.829619
0.988632
0.540994
0.582866
0.744482
0.608874
0.552089
0.384784
0.608189
0.934467
0.392371
0.597489
0.858048
0.748296
0.673282
0.829775
0.921191
0.53707
0.531063
0.928331
0.660702
0.522553
0.701383
0.943457
0.814311
0.767934
0.570696
0.549006
0.557501
1.0188
0.933234
1.03049
0.667832
0.843628
0.480026
0.700642
0.939799
0.437933
0.444078
0.875628
0.937753
0.420807
0.592301
0.560538
0.517455
0.557147
1.03116
0.65614
0.588734
0.734505
0.550877
0.860161
0.753501
0.466993
0.596329
0.883696
0.677997
1.02298
0.464215
0.575979
0.810959
0.795692
0.684808
0.775529
0.518828
1.03057
0.955865
0.814721
0.95161
0.547231
0.940846
0.82356
0.80358
1.00437
0.430841
0.597474
1.03633
0.827987
0.418105
0.60505
0.913964
1.03298
0.702952
0.88399
0.567248
0.455948
0.53722
0.418552
0.940086
0.567419
0.726786
1.00374
0.541105
0.536244
0.572761
0.731425
0.583056
0.600096
0.553308
0.490419
0.684574
0.910592
1.00295
0.850054
0.620009
0.592904
0.399818
0.584038
0.807878
0.787258
0.826973
0.865356
0.594467
0.699847
0.910016
0.944543
1.03547
0.966191
1.0092
0.685459
0.479153
0.5389
0.495826
1.02038
0.731747
0.576459
1.0026
0.482756
0.908434
0.853496
0.598879
0.566573
0.596132
0.560378
0.942143
0.650193
0.854054
0.691841
0.998745
0.764385
1.05236
0.52761
0.699392
0.587668
0.35541
0.613785
0.871961
0.512479
0.306921
0.768102
0.979655
0.891815
0.561936
0.471866
0.542474
0.484717
0.568843
0.479579
0.669655
0.506016
0.878058
0.520445
0.577945
0.951055
0.69587
0.804329
0.929261
0.671412
0.728
0.535349
0.889217
0.651979
0.59746
0.667791
0.505963
0.455941
0.576041
0.567335
0.880279
1.0302
0.951265
0.760723
0.852164
0.426923
1.02571
0.764203
0.868292
0.576032
0.866312
0.605904
0.619674
0.918756
0.990214
0.880056
0.774483
0.616489
1.04279
0.625548
0.912027
1.01375
0.839727
0.64601
0.422075
0.910002
0.755452
0.498989
0.826867
0.747937
0.994519
0.563849
1.00386
1.03693
0.658757
0.527546
1.01201
0.473365
0.509638
0.622366
0.511836
0.602183
0.508338
0.468415
0.689153
0.580256
0.537251
0.592699
0.780026
0.572309
0.552157
0.820934
0.723493
0.429053
0.991511
1.01702
1.01185
0.56609
0.426341
1.05771
0.461842
0.671086
0.556302
0.614912
0.575087
0.872129
0.596253
0.606234
0.450476
0.435103
0.498907
0.596222
0.406629
0.707871
0.751918
0.698089
1.00077
0.724107
0.824394
0.651685
0.93041
0.626348
0.611424
1.03035
0.629176
0.745247
0.474375
0.834987
1.02557
0.659647
0.792253
0.749134
0.605311
0.563916
0.538404
0.509477
0.883506
0.51708
0.656925
0.604111
0.662337
0.540666
0.539514
0.677464
0.642188
0.577704
1.01239
0.680994
0.646953
0.771447
0.994425
0.610317
0.439409
0.897832
0.475509
0.63382
0.562218
0.689946
0.598767
0.631198
0.691384
1.02759
0.949452
0.452386
0.575994
0.42932
0.550162
0.41785
0.513772
0.612675
0.526093
0.62546
0.800749
1.03399
0.608017
0.858376
0.715364
1.01889
0.597642
1.02854
0.801538
0.47519
0.79304
0.862296
0.61305
0.936187
0.561029
0.960144
0.568459
0.352737
0.683941
1.03557
1.01088
0.884084
0.802414
0.845032
0.436634
0.584525
0.845661
1.05183
0.36605
0.695187
0.564292
0.621403
0.656495
0.549564
0.491338
0.574702
0.50517
0.590174
0.636031
0.662782
1.04658
0.932482
0.411708
0.898042
0.530948
0.527313
0.913394
0.562428
0.632374
0.835625
0.413008
0.55429
0.696292
0.952542
0.49319
0.558706
0.622351
0.800627
0.496537
0.995945
0.424922
0.605611
0.629923
0.559381
0.80658
0.802
0.997634
0.561986
0.876007
0.764118
0.790776
0.558585
0.807578
0.516076
0.485841
0.387049
0.76374
0.689057
0.628996
0.962808
0.695464
0.742971
0.802154
0.538826
0.517799
0.602914
0.777545
0.56675
1.03155
0.470608
0.426571
0.631019
0.606433
0.571645
0.557734
0.859296
0.619687
0.698873
0.48538
0.562636
0.702815
0.502551
1.03188
1.00218
0.495628
0.540505
0.925706
0.719973
0.547486
0.472642
0.552137
0.489198
0.7569
0.982044
0.546351
0.431473
0.799732
0.680589
0.42661
0.493312
0.683993
0.850805
1.02724
0.479295
0.442041
0.778621
0.936256
0.648892
0.753837
0.627403
0.562764
0.610122
0.802781
0.686643
0.566269
0.909458
0.626038
0.398465
0.742648
0.575151
0.915329
1.04858
0.570522
0.60125
0.612155
0.597465
0.481544
0.610896
0.486962
1.00614
0.923494
0.853249
0.619301
0.445097
0.901626
1.02606
0.548478
0.736021
0.599987
0.360932
0.721044
0.609528
0.373366
0.564787
0.797541
0.471569
0.431371
0.506063
0.896287
0.45568
0.912861
0.677141
0.569369
0.638492
0.533487
0.916135
0.397638
0.607195
0.653029
0.481294
0.746653
0.848275
0.768054
0.695509
0.891552
0.49384
0.494465
0.975779
0.561642
0.970266
0.783286
0.655133
0.75358
0.95452
0.679304
0.427618
0.992969
0.558159
0.65951
0.946328
0.548207
1.00488
0.552202
0.629718
0.411348
0.620159
0.507301
0.688854
0.510549
0.396964
0.492398
0.500038
0.366115
0.982015
0.498522
0.625606
0.75663
0.691747
1.02958
1.03104
0.591823
0.692445
0.918521
0.581377
0.984123
0.376452
0.633834
0.72442
0.549849
0.929246
0.599864
0.604524
0.590219
0.542439
0.552861
0.406256
0.956495
0.251965
0.989197
0.859484
0.514931
0.4366
0.500409
1.03219
0.855201
0.814127
0.666777
0.746171
0.652867
0.952375
0.890307
0.536666
0.788195
1.00242
0.669233
0.731721
0.800371
0.409778
0.491148
0.900047
0.615314
0.664173
1.00672
0.49319
0.382237
0.556068
0.667192
0.677469
1.01196
0.554835
0.452807
0.549337
0.661208
0.56289
0.972577
0.68542
0.500094
0.606869
0.545333
0.545097
0.614904
0.79287
0.715552
0.52763
0.961384
0.620001
0.907607
0.529146
0.489549
0.628755
0.952738
1.01797
0.908816
0.714898
0.689115
0.903391
1.00491
0.468027
0.988
0.496393
0.828386
0.808239
0.965819
0.711618
0.954767
0.989572
0.571245
0.560693
0.627714
0.703419
0.492242
0.534643
0.473975
0.875429
0.934942
0.4674
0.996139
0.707571
0.894084
0.671503
0.523707
0.921057
0.897667
0.598404
0.599123
0.505631
1.03786
0.85133
1.05631
0.475353
0.492318
0.639905
0.937003
0.805022
0.938777
0.73632
1.00737
0.562921
0.649113
0.732523
0.581276
0.787917
0.444739
0.912686
0.68524
0.734582
0.989147
0.463978
0.471974
0.393076
0.768875
0.963742
0.591101
0.820881
0.455809
0.448206
0.670815
0.574747
0.551306
0.944602
0.708439
0.545039
0.641602
0.768808
0.989856
0.77412
0.636092
0.957282
0.710044
1.0125
0.726088
0.85749
0.642596
0.46239
1.0316
0.524323
0.750871
0.772715
0.983106
0.840206
0.688311
0.569956
1.0442
0.631218
0.51086
0.884816
1.02746
0.866838
0.81695
0.457155
0.387273
0.747108
0.52991
0.621282
0.721433
0.527488
0.98932
1.03265
0.991019
0.572714
0.615278
0.55328
0.60795
0.821725
0.493691
0.844668
1.00217
0.461408
0.60475
0.552823
0.920812
0.824934
0.61612
0.535279
0.86396
0.558345
0.429986
0.495007
1.04498
0.393653
0.908804
0.792626
0.560327
0.991624
0.755042
1.02144
0.410442
0.604084
0.721745
0.99583
0.610127
0.982012
0.758885
0.394647
0.694305
0.570548
0.618615
0.38821
0.900096
0.606942
0.529682
0.43591
0.695846
0.950314
0.323922
0.579524
0.960506
0.649875
0.947156
0.375694
0.561922
0.560193
0.653099
0.587641
0.453715
0.557965
0.341831
0.630262
0.640572
0.895423
0.738333
0.964101
0.547427
0.612051
0.457749
0.714707
0.334644
0.613485
1.05228
0.675153
0.605673
1.03808
0.519458
0.742308
0.790244
0.432211
0.581617
0.673971
0.757469
1.00348
1.02492
1.02879
0.767943
0.650107
0.660468
0.501006
0.922733
0.82579
0.556269
0.610539
0.598111
0.667546
1.02525
0.646427
1.01941
0.607182
0.798682
0.504086
0.557366
0.442
0.576042
0.975857
0.604787
0.466112
0.503022
1.03876
0.58143
0.52429
0.521551
0.55785
0.848507
0.730912
0.745542
0.652012
0.856069
0.440786
0.677677
0.702001
0.622441
0.948662
0.960912
0.510758
0.969629
0.995522
0.9514
0.716111
0.629787
0.580763
0.650554
1.00927
0.672876
0.76891
0.963183
1.0324
0.997904
0.956743
0.565379
0.801904
0.691534
0.520217
0.425581
0.645748
0.947852
1.03576
1.01018
0.601924
0.495584
0.490898
0.47213
0.828457
1.03004
0.793159
0.874091
0.893144
0.892716
0.866506
0.552537
0.60248
0.567289
0.50392
0.563811
0.626216
0.478711
0.607935
0.570133
0.981955
0.773989
0.42993
1.01348
0.58297
0.561463
0.658511
0.515218
0.868942
0.862301
0.579745
0.793755
1.02514
1.03306
0.818595
0.846307
0.68668
0.70706
0.650523
0.457643
0.746287
0.747749
0.599926
0.818797
0.785181
0.468843
0.314036
0.591942
1.00814
0.598166
0.843746
0.614754
0.986168