/*--------------------------------*- C++ -*----------------------------------*\
  =========                 |
  \\      /  F ield         | OpenFOAM: The Open Source CFD Toolbox
   \\    /   O peration     | Website:  https://openfoam.org
    \\  /    A nd           | Version:  6
     \\/     M anipulation  |
\*---------------------------------------------------------------------------*/
FoamFile
{
    version     2.0;
    format      ascii;
    class       volScalarField;
    location    "0";
    object      P_rec;
}
// * * * * * * * * * * * * * * * * * * * * * * * * * * * * * * * * * * * * * //

dimensions      [0 2 -2 0 0 0 0];

internalField   nonuniform List<scalar> 
13046
(
0.294051
0.293611
0.317238
0.297776
0.311441
0.29945
0.290493
0.301251
0.314664
0.22061
0.186952
0.31817
0.287549
0.284459
0.315401
0.23711
0.320648
0.195088
0.309344
0.309296
0.296821
0.23471
0.320473
0.19449
0.297114
0.303425
0.312059
0.283783
0.283473
0.318438
0.296322
0.286217
0.314936
0.301953
0.312446
0.300454
0.301395
0.312264
0.303616
0.299299
0.317127
0.280281
0.302584
0.3106
0.306633
0.301911
0.306247
0.308818
0.290008
0.293657
0.317407
0.310659
0.301901
0.263356
0.315194
0.257578
0.304872
0.2297
0.270095
0.322363
0.266611
0.283911
0.314332
0.31753
0.230739
0.24449
0.274406
0.232495
0.321333
0.278181
0.23728
0.320575
0.221135
0.266526
0.322881
0.308772
0.314748
0.291894
0.323605
0.258079
0.218203
0.294423
0.302463
0.311906
0.317684
0.22152
0.2386
0.236627
0.31521
0.246375
0.311498
0.223014
0.25368
0.268371
0.263327
0.264916
0.260507
0.316872
0.31814
0.314787
0.236536
0.253628
0.301084
0.308269
0.307107
0.309825
0.265719
0.311594
0.301527
0.316975
0.271358
0.198015
0.317927
0.147567
0.289921
0.290249
0.313427
0.26406
0.267924
0.248944
0.3188
0.259092
0.317817
0.216342
0.175415
0.318702
0.278823
0.268022
0.319032
0.296916
0.31707
0.280189
0.310481
0.226968
0.264894
0.254459
0.254066
0.316706
0.293526
0.283855
0.314638
0.278738
0.304515
0.311974
0.301645
0.313285
0.271265
0.309105
0.272793
0.314789
0.265635
0.276208
0.314648
0.313246
0.281625
0.307732
0.304659
0.255111
0.300081
0.253315
0.307943
0.309505
0.279036
0.299388
0.309233
0.218262
0.317121
0.193243
0.205874
0.318271
0.156553
0.252506
0.245538
0.317781
0.295087
0.264779
0.31925
0.280287
0.307961
0.30307
0.316859
0.209531
0.220434
0.296271
0.270578
0.315966
0.312194
0.276979
0.306965
0.28257
0.304576
0.310734
0.28253
0.317525
0.280507
0.276157
0.316724
0.235023
0.316125
0.230774
0.312449
0.234996
0.263064
0.225249
0.24693
0.312204
0.311944
0.252638
0.298704
0.284913
0.25957
0.323423
0.216585
0.234539
0.223864
0.313629
0.298495
0.311836
0.305181
0.286598
0.285018
0.317886
0.312005
0.231523
0.26779
0.281811
0.286508
0.317765
0.316992
0.17552
0.206183
0.300481
0.251904
0.309095
0.230809
0.254531
0.312986
0.263586
0.299935
0.310882
0.277491
0.269053
0.320164
0.2856
0.235633
0.307616
0.248053
0.296989
0.3081
0.316329
0.176367
0.200916
0.301267
0.318835
0.266949
0.205593
0.319007
0.128156
0.308795
0.298126
0.307317
0.26726
0.267927
0.296707
0.300152
0.312237
0.310884
0.321477
0.253472
0.210618
0.281623
0.273113
0.317902
0.246019
0.287914
0.309717
0.258222
0.251379
0.317897
0.304769
0.302523
0.311175
0.258589
0.297032
0.310245
0.28204
0.265756
0.318914
0.281867
0.279603
0.301553
0.317036
0.26087
0.257233
0.290611
0.311015
0.252376
0.317799
0.248128
0.305434
0.313715
0.272293
0.307142
0.250235
0.302887
0.270365
0.250351
0.318557
0.300959
0.312505
0.26135
0.265867
0.26345
0.245272
0.31913
0.24289
0.320088
0.316951
0.214275
0.224655
0.271384
0.26313
0.318834
0.114866
0.317313
0.187451
0.292261
0.307616
0.304706
0.271551
0.286971
0.314237
0.316746
0.240538
0.239074
0.314273
0.252307
0.304352
0.27738
0.234627
0.309208
0.295266
0.315163
0.268976
0.281161
0.316376
0.292663
0.314639
0.242969
0.320279
0.204234
0.316422
0.246831
0.298396
0.264836
0.277872
0.315904
0.275782
0.301296
0.31292
0.267794
0.308496
0.30644
0.294511
0.295044
0.314712
0.30373
0.253025
0.306423
0.230377
0.236546
0.31491
0.278315
0.234896
0.310899
0.282328
0.319314
0.246465
0.261116
0.264672
0.236771
0.229054
0.319521
0.319922
0.317928
0.121016
0.192765
0.209916
0.319482
0.1344
0.264629
0.294891
0.310376
0.316384
0.233003
0.220763
0.275919
0.273384
0.248282
0.244314
0.32148
0.320256
0.312261
0.224114
0.210879
0.202254
0.319676
0.11611
0.297499
0.307405
0.311059
0.19889
0.133637
0.318511
0.291445
0.266158
0.31732
0.221616
0.21592
0.316091
0.125411
0.316685
0.171791
0.301267
0.31508
0.283693
0.292666
0.31164
0.309886
0.218858
0.319404
0.17039
0.289171
0.309612
0.309742
0.299706
0.307644
0.310642
0.303344
0.245237
0.311432
0.288679
0.31522
0.307226
0.293861
0.305427
0.306033
0.285817
0.249094
0.318939
0.319704
0.319377
0.196716
0.197134
0.229174
0.227428
0.223893
0.232746
0.314841
0.323169
0.281022
0.237561
0.29765
0.315446
0.272882
0.245569
0.296813
0.305194
0.160255
0.314798
0.179924
0.312274
0.221695
0.245725
0.208765
0.318056
0.168161
0.31671
0.114274
0.171367
0.0961181
0.317207
0.180811
0.283033
0.25511
0.312137
0.201264
0.312877
0.197016
0.249589
0.254753
0.316472
0.231768
0.321213
0.170056
0.288109
0.314126
0.299308
0.232352
0.31242
0.215128
0.246911
0.304217
0.299683
0.283619
0.2463
0.311278
0.316777
0.0654376
0.158206
0.128797
0.317214
0.181177
0.292074
0.314396
0.298339
0.218052
0.210499
0.313856
0.312846
0.204311
0.219161
0.23333
0.317267
0.218776
0.320675
0.215949
0.249629
0.28934
0.244705
0.321059
0.236003
0.269536
0.322491
0.322305
0.246062
0.194593
0.287818
0.285206
0.271849
0.267336
0.317997
0.31932
0.29051
0.272241
0.317927
0.279187
0.2431
0.323122
0.281155
0.240177
0.310728
0.229129
0.223854
0.315153
0.311767
0.240834
0.270587
0.0973155
0.317264
0.186596
0.300431
0.298666
0.316808
0.28389
0.317576
0.287852
0.285524
0.285602
0.320041
0.251417
0.320499
0.260646
0.13374
0.314937
0.172745
0.221164
0.214605
0.314288
0.296052
0.314169
0.262587
0.290523
0.239264
0.3076
0.32087
0.219294
0.253194
0.152765
0.192874
0.316808
0.165528
0.195061
0.316269
0.273927
0.249925
0.321243
0.30676
0.31028
0.276177
0.229975
0.317606
0.207645
0.280169
0.249284
0.313678
0.318972
0.235404
0.249855
0.288364
0.321083
0.260545
0.266242
0.303175
0.308296
0.300557
0.316504
0.275435
0.317282
0.205736
0.22445
0.258833
0.24552
0.31879
0.302271
0.315128
0.285492
0.240741
0.322202
0.184406
0.290718
0.282813
0.318247
0.285256
0.302383
0.312063
0.287174
0.251055
0.310893
0.218152
0.320855
0.147861
0.222553
0.321345
0.15113
0.319547
0.230038
0.250242
0.261636
0.308495
0.306544
0.320863
0.134324
0.211536
0.315986
0.246895
0.244817
0.315731
0.106106
0.166428
0.176547
0.0846276
0.318019
0.321815
0.202165
0.246645
0.31685
0.189903
0.213053
0.236324
0.240027
0.318615
0.203441
0.318664
0.214653
0.241908
0.252872
0.315466
0.30851
0.29556
0.237721
0.300972
0.313469
0.292156
0.244458
0.263267
0.314211
0.313426
0.246176
0.268924
0.250569
0.322641
0.198157
0.283975
0.245256
0.321436
0.288037
0.262856
0.31672
0.256454
0.276147
0.315887
0.25392
0.275007
0.314965
0.303582
0.310984
0.290347
0.284773
0.261517
0.32169
0.311752
0.238256
0.213275
0.190862
0.315145
0.170988
0.185037
0.314849
0.172146
0.295541
0.31824
0.275239
0.145005
0.316338
0.185292
0.255186
0.319436
0.234761
0.315751
0.149604
0.178691
0.298447
0.310567
0.302669
0.278058
0.283004
0.316618
0.308694
0.262864
0.305527
0.312805
0.207219
0.202575
0.279814
0.250159
0.312274
0.321251
0.236584
0.182128
0.271948
0.278965
0.31837
0.302275
0.313784
0.293774
0.204521
0.207374
0.314516
0.317825
0.237867
0.244791
0.21533
0.210703
0.319021
0.318875
0.158234
0.149886
0.271979
0.296748
0.313538
0.286897
0.258865
0.311077
0.28695
0.301432
0.314734
0.184884
0.196138
0.18917
0.314976
0.195386
0.313851
0.263474
0.26547
0.318134
0.207402
0.201724
0.196631
0.187887
0.315428
0.31524
0.258822
0.291635
0.313829
0.27796
0.2913
0.315092
0.227468
0.32136
0.165911
0.275488
0.289766
0.313699
0.285755
0.297037
0.312797
0.21763
0.320175
0.157838
0.273127
0.269189
0.316254
0.306429
0.242129
0.304133
0.289681
0.253413
0.320475
0.272814
0.308888
0.227206
0.316839
0.0781082
0.164257
0.27199
0.286271
0.315113
0.230419
0.319657
0.183719
0.318967
0.245127
0.293962
0.187501
0.319359
0.102964
0.308384
0.305928
0.308926
0.279705
0.311912
0.277979
0.289044
0.302704
0.312089
0.303195
0.307032
0.3129
0.283881
0.315785
0.280748
0.275231
0.293063
0.316183
0.27866
0.29552
0.315412
0.313751
0.180701
0.187322
0.293104
0.276676
0.315942
0.213159
0.198803
0.316395
0.255326
0.251476
0.269256
0.262061
0.315344
0.314986
0.292336
0.28437
0.316894
0.278902
0.254456
0.319533
0.263842
0.275079
0.317093
0.303737
0.299141
0.310412
0.249256
0.266217
0.31466
0.300093
0.312319
0.292938
0.263174
0.287716
0.314428
0.27826
0.2612
0.318744
0.30268
0.303545
0.295526
0.314303
0.294706
0.31356
0.304634
0.309191
0.307974
0.291161
0.317508
0.28389
0.288499
0.285884
0.276485
0.277401
0.318266
0.316456
0.319772
0.220539
0.251032
0.302835
0.248
0.308258
0.320683
0.319902
0.214144
0.219499
0.246206
0.244787
0.299563
0.316734
0.256194
0.304746
0.309661
0.303373
0.24848
0.25923
0.31527
0.298449
0.316027
0.280748
0.276056
0.259255
0.318971
0.259311
0.259648
0.227273
0.321235
0.233385
0.320156
0.25829
0.263426
0.316443
0.19238
0.114273
0.319371
0.316418
0.249666
0.29543
0.291242
0.292874
0.319116
0.248908
0.321375
0.252338
0.243757
0.275853
0.311747
0.281283
0.258158
0.32052
0.297931
0.3152
0.255431
0.292344
0.293548
0.316904
0.32135
0.263376
0.261264
0.291299
0.321332
0.256194
0.259141
0.268266
0.316602
0.302429
0.312295
0.293406
0.222896
0.319065
0.17603
0.296661
0.317514
0.251366
0.277393
0.273317
0.261243
0.257477
0.317338
0.319927
0.319293
0.18504
0.22747
0.227445
0.320685
0.172292
0.222516
0.319877
0.168022
0.2554
0.320026
0.229803
0.283839
0.263623
0.319926
0.251067
0.310174
0.335583
0.25379
0.33821
0.170894
0.329126
0.261309
0.268912
0.33409
0.332759
0.264774
0.257754
0.336767
0.316755
0.268019
0.253854
0.312369
0.312241
0.328668
0.321269
0.30683
0.332752
0.322548
0.337946
0.31173
0.341574
0.269693
0.325457
0.250908
0.274603
0.327067
0.321914
0.318655
0.2845
0.327395
0.335875
0.333867
0.262707
0.28846
0.30433
0.318115
0.289824
0.334952
0.315984
0.312289
0.315155
0.302382
0.265764
0.292596
0.333819
0.319968
0.269801
0.31595
0.27285
0.332444
0.330508
0.32291
0.303699
0.334204
0.292163
0.291593
0.337245
0.266658
0.325295
0.330571
0.324268
0.326127
0.333732
0.313836
0.27203
0.281023
0.289878
0.330907
0.276785
0.317364
0.300226
0.282888
0.329448
0.333936
0.309696
0.322823
0.26503
0.271247
0.313997
0.332485
0.313749
0.253196
0.318115
0.333794
0.27274
0.335129
0.338861
0.318496
0.261558
0.143143
0.283706
0.304412
0.26139
0.270374
0.329725
0.333284
0.318421
0.324204
0.268516
0.24579
0.265554
0.277087
0.285124
0.335492
0.333298
0.327354
0.273435
0.283275
0.291132
0.317404
0.317752
0.254469
0.266734
0.309579
0.31949
0.328647
0.320394
0.331028
0.317493
0.289675
0.268502
0.332134
0.230049
0.330522
0.270949
0.331129
0.265955
0.204533
0.244156
0.333352
0.315528
0.256865
0.283182
0.327565
0.263829
0.332371
0.300332
0.281565
0.322851
0.315416
0.267833
0.334446
0.284223
0.31792
0.264937
0.313782
0.263253
0.338236
0.333922
0.314341
0.331886
0.332249
0.334654
0.301637
0.287482
0.279769
0.321532
0.229805
0.281685
0.267359
0.322363
0.311877
0.330117
0.33165
0.32257
0.332031
0.338967
0.334526
0.265705
0.267948
0.267174
0.33428
0.270442
0.264079
0.223248
0.264835
0.313394
0.312187
0.324053
0.332704
0.332898
0.30373
0.336191
0.308856
0.319342
0.196927
0.319287
0.288699
0.268984
0.3298
0.328175
0.286032
0.303329
0.323211
0.325689
0.250067
0.283915
0.330398
0.336564
0.306885
0.271274
0.304434
0.324222
0.311062
0.295298
0.267315
0.220153
0.277773
0.291331
0.29746
0.268041
0.256782
0.332852
0.313683
0.268488
0.317103
0.27244
0.273717
0.328466
0.329103
0.266471
0.264913
0.24037
0.329013
0.295617
0.310752
0.327008
0.31732
0.271275
0.325387
0.302515
0.261626
0.291078
0.33389
0.323054
0.324782
0.337791
0.317992
0.26489
0.25831
0.316804
0.31654
0.271793
0.27087
0.3255
0.331123
0.334592
0.324535
0.26785
0.313651
0.302207
0.322946
0.315368
0.283975
0.316537
0.304765
0.214934
0.271332
0.285044
0.270218
0.287557
0.328858
0.316692
0.317633
0.330844
0.263276
0.314044
0.296075
0.316425
0.308388
0.308152
0.32486
0.26533
0.251661
0.311781
0.264252
0.259992
0.32362
0.204888
0.261208
0.335846
0.327562
0.278969
0.291975
0.275453
0.325419
0.266614
0.215945
0.265844
0.322062
0.319121
0.325805
0.168955
0.263212
0.337017
0.303096
0.246187
0.249099
0.264625
0.266993
0.261957
0.31437
0.330032
0.275977
0.263432
0.289592
0.29478
0.319464
0.240012
0.330676
0.320055
0.206633
0.283477
0.270162
0.273259
0.32817
0.313939
0.330313
0.304655
0.26361
0.30636
0.320853
0.323624
0.309554
0.335218
0.331494
0.299994
0.32574
0.315963
0.287123
0.266185
0.303349
0.259413
0.316184
0.30172
0.272789
0.267351
0.267904
0.265097
0.255713
0.336083
0.27294
0.285867
0.325969
0.326608
0.272703
0.276051
0.337174
0.300619
0.201016
0.303972
0.276292
0.267939
0.337101
0.295839
0.294765
0.324286
0.270577
0.318564
0.279228
0.324949
0.307111
0.294562
0.14787
0.27312
0.273435
0.304326
0.312557
0.31326
0.324105
0.334522
0.262316
0.290671
0.264963
0.233395
0.261812
0.335574
0.303349
0.305179
0.277914
0.316777
0.264296
0.253263
0.26337
0.275374
0.29381
0.33914
0.297582
0.312166
0.327624
0.33348
0.32244
0.337405
0.254397
0.289752
0.268094
0.322474
0.324699
0.33107
0.300898
0.309943
0.269648
0.314903
0.276472
0.23682
0.32878
0.307168
0.233609
0.271537
0.278048
0.267434
0.28058
0.307475
0.316704
0.263752
0.288078
0.266207
0.284249
0.271802
0.302085
0.258548
0.269128
0.334581
0.33301
0.33196
0.311049
0.320908
0.199378
0.331599
0.321911
0.258965
0.335964
0.186827
0.330374
0.278198
0.315984
0.301267
0.330159
0.314897
0.262492
0.32766
0.261122
0.337982
0.317652
0.289876
0.290021
0.251404
0.295224
0.339085
0.293388
0.324214
0.329039
0.264576
0.243996
0.329672
0.193977
0.311833
0.316383
0.268564
0.334858
0.228014
0.22287
0.332389
0.304116
0.330539
0.326462
0.31149
0.324152
0.333712
0.333446
0.332253
0.328347
0.265194
0.29083
0.309798
0.335439
0.296078
0.183846
0.327845
0.279468
0.313966
0.288663
0.335286
0.321175
0.289438
0.334352
0.312632
0.335551
0.271304
0.333433
0.310303
0.329936
0.323943
0.33303
0.288044
0.322032
0.271218
0.267545
0.314504
0.295893
0.316262
0.251379
0.190906
0.267689
0.299771
0.321377
0.3063
0.339655
0.2895
0.27353
0.313207
0.267723
0.333757
0.253847
0.310127
0.323771
0.33684
0.308569
0.327448
0.26162
0.313444
0.33513
0.285619
0.259272
0.31493
0.293952
0.329234
0.33386
0.293386
0.272419
0.314002
0.268703
0.264181
0.332433
0.328521
0.32424
0.258081
0.326071
0.321837
0.333535
0.264871
0.32831
0.321287
0.32574
0.313127
0.257493
0.268715
0.28695
0.176995
0.329131
0.317531
0.316656
0.333595
0.332038
0.303527
0.31067
0.321208
0.332917
0.33278
0.322074
0.308654
0.309332
0.329719
0.312233
0.293926
0.283952
0.292135
0.301702
0.320225
0.28417
0.32903
0.332842
0.262363
0.33427
0.277704
0.268028
0.283834
0.330756
0.307329
0.321875
0.318831
0.332491
0.312221
0.320098
0.326541
0.272329
0.267281
0.264989
0.266215
0.254807
0.134578
0.271537
0.261543
0.321071
0.261494
0.285426
0.318664
0.304435
0.269483
0.285338
0.283519
0.143986
0.333161
0.30762
0.316628
0.266491
0.305387
0.309707
0.256782
0.325434
0.273454
0.327605
0.298015
0.333989
0.255693
0.215476
0.282965
0.302555
0.306768
0.321737
0.216795
0.315221
0.290491
0.26819
0.259358
0.27399
0.283247
0.330463
0.250858
0.329728
0.333527
0.314787
0.290178
0.333929
0.266855
0.136996
0.315322
0.267835
0.255963
0.334285
0.331905
0.315215
0.326432
0.29855
0.328094
0.334473
0.315405
0.29649
0.328405
0.336962
0.329943
0.323673
0.311923
0.325869
0.286168
0.261732
0.333706
0.336893
0.33445
0.314787
0.294759
0.283631
0.331859
0.327937
0.114514
0.317208
0.313966
0.267228
0.319742
0.311192
0.324996
0.323396
0.322298
0.288757
0.330448
0.336097
0.320134
0.333275
0.33682
0.219159
0.26875
0.309079
0.267064
0.218964
0.267123
0.313976
0.333737
0.271345
0.309394
0.256478
0.29566
0.323134
0.316249
0.271645
0.263764
0.283249
0.304992
0.281574
0.270523
0.318052
0.323855
0.32711
0.260662
0.328011
0.284261
0.276469
0.322772
0.332573
0.322183
0.319509
0.269204
0.33279
0.263645
0.336976
0.331584
0.333299
0.335231
0.267584
0.267022
0.31519
0.25845
0.283864
0.272572
0.290589
0.261918
0.318125
0.314031
0.261493
0.335708
0.302497
0.308928
0.316018
0.330675
0.327275
0.328327
0.312908
0.263101
0.335975
0.263411
0.328233
0.257359
0.321665
0.333213
0.333906
0.327555
0.337033
0.314843
0.249446
0.265453
0.315331
0.275758
0.333358
0.253202
0.255794
0.306927
0.296997
0.301494
0.260878
0.315303
0.330988
0.326244
0.192707
0.298798
0.243639
0.262371
0.314103
0.306449
0.312494
0.305597
0.334926
0.265954
0.327791
0.313537
0.255936
0.329914
0.304405
0.325004
0.312192
0.31042
0.265966
0.288499
0.311198
0.32995
0.285105
0.313301
0.312952
0.333194
0.304021
0.312732
0.280773
0.323406
0.25882
0.264877
0.238882
0.32695
0.262128
0.27236
0.268167
0.274562
0.334712
0.308017
0.325853
0.333672
0.324869
0.254374
0.322086
0.268433
0.309547
0.328262
0.295554
0.265247
0.304578
0.316103
0.264486
0.2959
0.234539
0.265711
0.322013
0.24547
0.277316
0.336433
0.279953
0.284785
0.314591
0.330419
0.302995
0.269434
0.324791
0.272646
0.28134
0.313055
0.303113
0.322145
0.326119
0.338561
0.302478
0.333087
0.324908
0.33159
0.328616
0.328547
0.258581
0.290659
0.313504
0.262266
0.326829
0.336138
0.333981
0.320275
0.265541
0.262768
0.31499
0.335834
0.260443
0.333969
0.328685
0.330532
0.268576
0.273943
0.273097
0.247359
0.319636
0.261705
0.326952
0.271817
0.328398
0.276938
0.316231
0.259734
0.319111
0.324826
0.325613
0.302616
0.326805
0.333571
0.335342
0.324334
0.300402
0.333177
0.324247
0.282052
0.288905
0.315369
0.27275
0.338059
0.306782
0.324921
0.331139
0.3334
0.295785
0.232065
0.328535
0.305958
0.295701
0.313749
0.322099
0.332905
0.331443
0.305066
0.324261
0.259609
0.283304
0.315067
0.33048
0.317297
0.323051
0.302758
0.336386
0.317729
0.296924
0.334667
0.322378
0.267932
0.295742
0.331173
0.302856
0.260623
0.29431
0.331763
0.299628
0.315094
0.333008
0.336995
0.334168
0.321408
0.262885
0.328587
0.281056
0.301558
0.335441
0.318169
0.263633
0.260391
0.300353
0.328232
0.282763
0.268902
0.330855
0.299494
0.321492
0.332062
0.263532
0.255648
0.301373
0.332962
0.336578
0.318514
0.315238
0.242875
0.316351
0.295342
0.320728
0.333794
0.338243
0.270927
0.260186
0.315996
0.325259
0.334187
0.334536
0.328703
0.297777
0.284206
0.256787
0.260877
0.324407
0.3228
0.220074
0.279698
0.324566
0.310503
0.267945
0.265023
0.320588
0.287344
0.320348
0.327328
0.320019
0.332478
0.336208
0.312716
0.32781
0.30467
0.304192
0.300333
0.327362
0.292571
0.329234
0.218307
0.309612
0.21302
0.304718
0.33355
0.317479
0.333937
0.33766
0.333245
0.280672
0.30723
0.315645
0.251029
0.332355
0.31722
0.292904
0.327001
0.175298
0.280043
0.316674
0.329868
0.335156
0.259436
0.268645
0.313335
0.328388
0.228027
0.290826
0.291122
0.228533
0.266564
0.31697
0.269161
0.315917
0.26487
0.320289
0.327207
0.175761
0.313454
0.311076
0.280763
0.266717
0.315494
0.278173
0.308092
0.27924
0.307376
0.302934
0.303384
0.315741
0.336206
0.290851
0.263782
0.297549
0.258744
0.267229
0.313967
0.24816
0.297822
0.282123
0.313335
0.328188
0.315611
0.307733
0.211922
0.320087
0.316866
0.297769
0.323794
0.310381
0.306666
0.234065
0.220361
0.327212
0.274411
0.313407
0.330457
0.27895
0.322742
0.215052
0.32906
0.303515
0.335379
0.291868
0.30809
0.313664
0.26814
0.286888
0.301409
0.338917
0.255889
0.268556
0.30729
0.33428
0.323552
0.23966
0.296588
0.306173
0.315927
0.297019
0.335105
0.33347
0.334283
0.334727
0.325418
0.292882
0.279322
0.332157
0.290416
0.307952
0.241618
0.267032
0.28381
0.265378
0.325842
0.224213
0.329282
0.291144
0.327829
0.305581
0.325343
0.334283
0.308209
0.32898
0.332904
0.324099
0.314411
0.333148
0.294053
0.315495
0.271461
0.281444
0.33532
0.225205
0.324218
0.329312
0.313629
0.314776
0.300715
0.324436
0.319874
0.325202
0.260019
0.272557
0.317297
0.321222
0.241504
0.330895
0.270638
0.315659
0.264738
0.305398
0.315193
0.333362
0.332311
0.265211
0.323328
0.312507
0.307398
0.335294
0.248733
0.264968
0.332153
0.258782
0.29776
0.335461
0.330961
0.324926
0.268117
0.278918
0.272992
0.28174
0.252298
0.311904
0.30342
0.306872
0.274447
0.315924
0.306409
0.286205
0.253328
0.307664
0.311265
0.271239
0.333844
0.334303
0.261506
0.328799
0.215767
0.276043
0.236703
0.270767
0.327411
0.310614
0.311993
0.30124
0.325984
0.330845
0.324104
0.328108
0.254898
0.298493
0.298412
0.31177
0.268188
0.333645
0.307791
0.290536
0.326754
0.333669
0.278097
0.327323
0.262283
0.325096
0.32389
0.326826
0.249727
0.323713
0.306917
0.326366
0.315628
0.281452
0.268463
0.280265
0.333559
0.335424
0.33272
0.305834
0.319244
0.329702
0.311902
0.318651
0.291753
0.278818
0.315261
0.333744
0.266745
0.337288
0.315
0.338959
0.325634
0.33185
0.311724
0.310462
0.334671
0.203075
0.328652
0.236061
0.330684
0.335458
0.315527
0.291544
0.297753
0.316192
0.240032
0.252739
0.302262
0.261836
0.328886
0.268293
0.274271
0.249674
0.264242
0.312422
0.333458
0.328417
0.26725
0.307902
0.320742
0.325485
0.299565
0.303087
0.332155
0.334658
0.313918
0.332392
0.333296
0.32861
0.267375
0.304149
0.259715
0.331134
0.326972
0.334847
0.312071
0.325142
0.305664
0.260903
0.290458
0.254946
0.286161
0.268888
0.330909
0.321165
0.317089
0.32806
0.333515
0.32131
0.326715
0.277103
0.322179
0.314016
0.332547
0.295332
0.266479
0.327256
0.323992
0.330278
0.335298
0.333981
0.26463
0.261623
0.256787
0.326683
0.334867
0.240493
0.290589
0.335766
0.263815
0.297948
0.269366
0.310346
0.327615
0.310645
0.323395
0.294067
0.319634
0.322474
0.3319
0.301004
0.287479
0.326387
0.322677
0.305457
0.333918
0.337949
0.240132
0.33495
0.262855
0.290602
0.338411
0.337237
0.309167
0.331371
0.270194
0.33348
0.290772
0.277554
0.332174
0.296797
0.333388
0.316792
0.330014
0.322015
0.330931
0.27393
0.329509
0.276056
0.334415
0.321013
0.322665
0.299555
0.267232
0.277341
0.331943
0.278185
0.31334
0.263522
0.302067
0.335525
0.334289
0.321785
0.328972
0.325818
0.286373
0.298935
0.323285
0.267158
0.278408
0.323739
0.317491
0.29567
0.271561
0.23963
0.262328
0.332456
0.300717
0.334604
0.27389
0.332674
0.321837
0.338889
0.32823
0.294208
0.33247
0.27724
0.32493
0.289779
0.324945
0.262512
0.302168
0.292278
0.2658
0.3003
0.271065
0.263026
0.26235
0.331067
0.331693
0.29758
0.267016
0.333227
0.262858
0.242896
0.308806
0.332275
0.326549
0.264347
0.262069
0.335974
0.264453
0.324193
0.266157
0.270528
0.29039
0.273
0.337432
0.316005
0.274294
0.331645
0.337682
0.279215
0.327734
0.307822
0.331934
0.311794
0.294756
0.267598
0.330584
0.336858
0.329588
0.264439
0.273909
0.294264
0.318371
0.326067
0.323392
0.263134
0.325094
0.27631
0.325624
0.327593
0.317863
0.293403
0.327655
0.246768
0.318242
0.259726
0.301617
0.260152
0.268032
0.325462
0.333167
0.278556
0.286021
0.324849
0.294456
0.23781
0.254572
0.282157
0.316248
0.197093
0.306991
0.315549
0.325612
0.308695
0.327485
0.330916
0.224703
0.22487
0.336373
0.311081
0.23627
0.297161
0.32338
0.333486
0.324241
0.258964
0.303315
0.262054
0.326522
0.33441
0.327729
0.305818
0.332768
0.271324
0.319277
0.337514
0.264019
0.27439
0.333187
0.333769
0.26673
0.275898
0.253683
0.225047
0.255358
0.324587
0.289964
0.273081
0.262712
0.267083
0.331868
0.272271
0.273411
0.269216
0.33481
0.296562
0.326099
0.276125
0.300249
0.31183
0.318087
0.316193
0.330109
0.264395
0.325219
0.314318
0.313489
0.328185
0.286447
0.336533
0.32827
0.297864
0.327961
0.261916
0.2894
0.322703
0.328498
0.264575
0.30513
0.315778
0.323104
0.319031
0.334647
0.257208
0.269515
0.264704
0.255922
0.337603
0.283769
0.322337
0.333
0.296298
0.227426
0.268345
0.311069
0.266109
0.310988
0.270866
0.279236
0.291783
0.333521
0.3301
0.318242
0.265953
0.293233
0.261459
0.301388
0.330678
0.324136
0.303019
0.320694
0.294089
0.318984
0.334918
0.333214
0.323858
0.335538
0.326907
0.301761
0.274605
0.269866
0.266589
0.325663
0.318351
0.278251
0.328441
0.277508
0.33781
0.334156
0.275368
0.261462
0.288977
0.302927
0.333181
0.313337
0.332298
0.315764
0.331948
0.328399
0.321442
0.278973
0.315858
0.306282
0.261093
0.292392
0.336171
0.232182
0.170986
0.323434
0.317402
0.334512
0.298377
0.267025
0.265473
0.282557
0.26298
0.288236
0.318724
0.272438
0.333691
0.296985
0.269105
0.308303
0.290431
0.27608
0.333028
0.31299
0.321065
0.261604
0.315579
0.309957
0.270148
0.293541
0.284982
0.277442
0.269817
0.230469
0.337591
0.32498
0.334397
0.327372
0.335146
0.270016
0.324307
0.312372
0.311228
0.253091
0.329549
0.307021
0.297466
0.333543
0.331319
0.33458
0.325266
0.318119
0.323863
0.278789
0.324261
0.327434
0.331464
0.30236
0.266947
0.330308
0.29365
0.279197
0.329641
0.300978
0.333976
0.279995
0.33245
0.324104
0.317381
0.278942
0.329454
0.266114
0.278565
0.293395
0.271747
0.285725
0.279265
0.275268
0.316733
0.265961
0.26528
0.304869
0.325227
0.305218
0.286868
0.327914
0.323275
0.278581
0.329803
0.326063
0.326726
0.267401
0.277058
0.319702
0.264633
0.311286
0.245932
0.313804
0.249115
0.334253
0.306938
0.312205
0.270092
0.262603
0.282315
0.312704
0.275094
0.320925
0.32556
0.318081
0.329226
0.323613
0.318208
0.284689
0.336963
0.307844
0.311581
0.323959
0.280853
0.289196
0.269777
0.333646
0.324782
0.309546
0.31411
0.293606
0.302148
0.261047
0.296697
0.264476
0.33328
0.279381
0.304527
0.31192
0.317018
0.267642
0.296844
0.308313
0.312613
0.308607
0.322803
0.314023
0.293388
0.322982
0.329117
0.310407
0.262801
0.325307
0.266127
0.309519
0.257335
0.283979
0.309277
0.24386
0.277651
0.327582
0.333024
0.261161
0.306525
0.267191
0.2515
0.263196
0.26575
0.279701
0.274173
0.281371
0.331506
0.327242
0.301162
0.334446
0.308582
0.326635
0.310251
0.328225
0.328236
0.278287
0.325677
0.337433
0.313629
0.324094
0.257333
0.333562
0.297164
0.173681
0.320979
0.324951
0.333968
0.331726
0.328328
0.326456
0.27893
0.308903
0.31678
0.321404
0.183597
0.297609
0.254777
0.30864
0.31734
0.261871
0.265317
0.284323
0.273482
0.270612
0.311716
0.308929
0.322974
0.334635
0.26608
0.337915
0.266185
0.297668
0.334956
0.3036
0.309845
0.31944
0.190243
0.277099
0.320266
0.334348
0.272445
0.286038
0.314594
0.330874
0.265314
0.332944
0.272096
0.313942
0.314561
0.297066
0.322904
0.33229
0.329397
0.258288
0.329533
0.322574
0.329976
0.266634
0.31812
0.289111
0.262782
0.266322
0.298117
0.318605
0.31594
0.328926
0.307307
0.268898
0.320698
0.276001
0.273235
0.308225
0.312336
0.269192
0.328795
0.272798
0.273255
0.281842
0.313839
0.270052
0.245185
0.327965
0.297862
0.320582
0.274502
0.257506
0.317688
0.224027
0.322393
0.32001
0.271605
0.268257
0.340835
0.285517
0.268938
0.263653
0.255675
0.28342
0.323459
0.331532
0.269685
0.277114
0.331809
0.310745
0.271868
0.272761
0.304052
0.334703
0.325272
0.271701
0.259729
0.326038
0.33873
0.314722
0.318301
0.312112
0.259602
0.313007
0.329822
0.317325
0.263413
0.332849
0.313305
0.256192
0.324542
0.273885
0.335047
0.321824
0.269854
0.310786
0.307072
0.309099
0.268567
0.316821
0.283234
0.328364
0.330232
0.333115
0.278462
0.275897
0.332794
0.325946
0.290105
0.323897
0.311229
0.264023
0.320421
0.314706
0.262462
0.222098
0.284347
0.286535
0.271932
0.271004
0.295764
0.283427
0.327297
0.273997
0.272661
0.31073
0.267088
0.33451
0.26503
0.315139
0.314189
0.264439
0.321978
0.309153
0.327408
0.318497
0.332086
0.274666
0.2719
0.33523
0.26105
0.333703
0.326199
0.312285
0.295836
0.333842
0.311749
0.264374
0.335258
0.258168
0.316224
0.336102
0.261635
0.335337
0.273498
0.31285
0.201558
0.313667
0.266838
0.320395
0.284856
0.2588
0.286454
0.263499
0.266165
0.333329
0.264567
0.306892
0.323137
0.312462
0.324839
0.325409
0.310039
0.265578
0.336623
0.306885
0.331571
0.270228
0.312339
0.325542
0.295231
0.334027
0.312483
0.315496
0.279877
0.301238
0.246986
0.255987
0.334407
0.145205
0.324435
0.329914
0.281
0.267213
0.289306
0.322862
0.316804
0.330598
0.31603
0.322418
0.318379
0.336461
0.335593
0.26705
0.322611
0.324038
0.317576
0.323097
0.30951
0.268022
0.269484
0.309033
0.316429
0.302652
0.334359
0.265501
0.271247
0.304268
0.297036
0.315703
0.323493
0.276171
0.278755
0.284885
0.300995
0.275362
0.331826
0.268539
0.291922
0.309078
0.293919
0.265299
0.265428
0.327764
0.268811
0.266255
0.334078
0.313824
0.298695
0.266555
0.265836
0.288727
0.33464
0.328471
0.297635
0.317539
0.316494
0.338273
0.32562
0.275707
0.331881
0.285348
0.320655
0.327311
0.333073
0.318386
0.332709
0.327019
0.264603
0.254747
0.306405
0.293681
0.289075
0.217092
0.223253
0.331806
0.333706
0.268414
0.332293
0.318168
0.332188
0.313678
0.269569
0.336928
0.334997
0.314093
0.262711
0.268605
0.324119
0.332469
0.320095
0.263389
0.28836
0.321641
0.334751
0.32773
0.311068
0.299912
0.324146
0.296524
0.297278
0.322803
0.298572
0.324779
0.211321
0.334755
0.31154
0.320662
0.332335
0.262377
0.26873
0.271295
0.284588
0.334729
0.277913
0.318204
0.214419
0.276601
0.302531
0.278376
0.270461
0.312647
0.274282
0.273273
0.310409
0.310995
0.329345
0.288066
0.315818
0.333851
0.295663
0.326592
0.319399
0.330546
0.31411
0.278374
0.322784
0.266682
0.282927
0.324223
0.331677
0.332349
0.31674
0.255081
0.323679
0.316638
0.292166
0.332389
0.324549
0.332001
0.33024
0.265023
0.259973
0.320092
0.267656
0.317789
0.320094
0.265695
0.332656
0.323125
0.329664
0.308169
0.314825
0.267428
0.296965
0.329474
0.273355
0.324458
0.328128
0.284224
0.314032
0.301486
0.321815
0.326684
0.314865
0.266446
0.332537
0.25506
0.208705
0.284651
0.323359
0.26176
0.334546
0.294771
0.254709
0.315107
0.323218
0.324664
0.184292
0.315986
0.324794
0.330737
0.297358
0.334869
0.322785
0.26105
0.31615
0.300156
0.303227
0.258394
0.328477
0.313791
0.272706
0.261425
0.317983
0.311231
0.253001
0.309346
0.333205
0.276105
0.335728
0.266001
0.250048
0.261679
0.316453
0.303693
0.26631
0.254092
0.25245
0.315173
0.313266
0.3332
0.301597
0.33312
0.262044
0.315899
0.266683
0.283684
0.255843
0.318928
0.321369
0.283338
0.282597
0.326635
0.292793
0.328822
0.332459
0.279681
0.306622
0.319369
0.30641
0.330364
0.3243
0.324358
0.308255
0.280455
0.310995
0.287141
0.342595
0.310261
0.282279
0.250301
0.281103
0.318653
0.323499
0.309063
0.324201
0.307314
0.296966
0.288994
0.261512
0.280166
0.282731
0.332231
0.271452
0.271477
0.270771
0.323074
0.308559
0.272154
0.266495
0.258843
0.335297
0.302019
0.291061
0.279145
0.29855
0.266983
0.306311
0.315665
0.270508
0.335259
0.335874