/*--------------------------------*- C++ -*----------------------------------*\
  =========                 |
  \\      /  F ield         | OpenFOAM: The Open Source CFD Toolbox
   \\    /   O peration     | Website:  https://openfoam.org
    \\  /    A nd           | Version:  6
     \\/     M anipulation  |
\*---------------------------------------------------------------------------*/
FoamFile
{
    version     2.0;
    format      ascii;
    class       volScalarField;
    location    "22934";
    object      alphat;
}
// * * * * * * * * * * * * * * * * * * * * * * * * * * * * * * * * * * * * * //

dimensions      [0 2 -1 0 0 0 0];

internalField   nonuniform List<scalar> 
115600
(
9.0626e-10
2.60079e-10
2.27514e-10
2.16288e-10
2.04693e-10
1.89739e-10
1.73718e-10
1.58494e-10
1.45498e-10
1.34076e-10
1.2409e-10
1.15402e-10
1.07869e-10
1.01343e-10
9.56918e-11
9.07953e-11
8.65519e-11
8.28758e-11
7.96944e-11
7.6947e-11
7.4582e-11
7.25558e-11
7.08314e-11
6.93769e-11
6.81652e-11
6.71724e-11
6.63778e-11
6.57631e-11
6.53118e-11
6.50091e-11
6.48414e-11
6.47985e-11
6.49397e-11
6.523e-11
6.56297e-11
6.612e-11
6.66871e-11
6.73199e-11
6.80084e-11
6.87436e-11
6.9518e-11
7.03253e-11
7.11604e-11
7.20198e-11
7.29022e-11
7.38098e-11
7.47498e-11
7.57382e-11
7.68039e-11
7.80095e-11
7.94529e-11
8.14323e-11
8.44135e-11
9.08621e-11
1.09752e-10
2.16946e-10
5.76945e-08
3.17892e-08
2.82653e-08
2.68368e-08
2.51126e-08
2.28258e-08
2.03465e-08
1.7996e-08
1.59965e-08
1.43023e-08
1.28742e-08
1.1674e-08
1.06661e-08
9.81852e-09
9.10393e-09
8.49964e-09
7.98727e-09
7.55196e-09
7.18173e-09
6.86688e-09
6.5995e-09
6.37312e-09
6.18244e-09
6.02303e-09
5.89121e-09
5.78389e-09
5.69845e-09
5.63263e-09
5.58447e-09
5.55226e-09
5.53448e-09
5.52999e-09
5.54325e-09
5.57187e-09
5.61232e-09
5.6626e-09
5.72126e-09
5.78712e-09
5.85911e-09
5.93629e-09
6.0178e-09
6.10291e-09
6.19098e-09
6.28149e-09
6.37413e-09
6.46886e-09
6.56606e-09
6.66692e-09
6.77381e-09
6.89182e-09
7.0302e-09
7.21289e-09
7.48821e-09
8.04311e-09
9.60668e-09
1.49309e-08
2.99806e-07
2.92828e-07
2.95602e-07
2.92713e-07
2.81508e-07
2.63523e-07
2.4214e-07
2.20154e-07
1.99458e-07
1.80912e-07
1.64509e-07
1.50146e-07
1.37655e-07
1.26839e-07
1.17494e-07
1.09434e-07
1.02492e-07
9.6523e-08
9.14016e-08
8.70195e-08
8.32839e-08
8.01154e-08
7.74461e-08
7.52178e-08
7.33808e-08
7.18924e-08
7.07159e-08
6.98192e-08
6.91746e-08
6.87576e-08
6.85464e-08
6.85248e-08
6.87241e-08
6.91229e-08
6.96859e-08
7.03866e-08
7.12039e-08
7.21196e-08
7.3117e-08
7.41804e-08
7.52952e-08
7.64476e-08
7.76244e-08
7.88137e-08
8.00045e-08
8.11881e-08
8.23591e-08
8.35182e-08
8.46767e-08
8.58665e-08
8.71618e-08
8.87352e-08
9.1029e-08
9.52639e-08
1.06668e-07
1.31748e-07
6.00859e-07
7.30698e-07
7.88999e-07
8.01941e-07
7.87498e-07
7.56196e-07
7.16168e-07
6.73224e-07
6.31266e-07
5.92173e-07
5.56613e-07
5.24621e-07
4.9607e-07
4.70709e-07
4.48249e-07
4.28409e-07
4.10928e-07
3.95577e-07
3.82148e-07
3.70459e-07
3.60346e-07
3.51665e-07
3.44287e-07
3.38094e-07
3.32983e-07
3.28859e-07
3.25638e-07
3.2324e-07
3.21593e-07
3.2063e-07
3.20287e-07
3.20515e-07
3.21333e-07
3.22689e-07
3.24501e-07
3.26694e-07
3.29199e-07
3.31954e-07
3.349e-07
3.37981e-07
3.41143e-07
3.44335e-07
3.47506e-07
3.50608e-07
3.53593e-07
3.56415e-07
3.59034e-07
3.61415e-07
3.63538e-07
3.65414e-07
3.6712e-07
3.68873e-07
3.71355e-07
3.76281e-07
3.91759e-07
4.26732e-07
8.31242e-07
1.1275e-06
1.28752e-06
1.35027e-06
1.35601e-06
1.32841e-06
1.28238e-06
1.22768e-06
1.17084e-06
1.11567e-06
1.06404e-06
1.01662e-06
9.73625e-07
9.3496e-07
9.0039e-07
8.69637e-07
8.42411e-07
8.18427e-07
7.97416e-07
7.79123e-07
7.63316e-07
7.49782e-07
7.38324e-07
7.28765e-07
7.20942e-07
7.14707e-07
7.09921e-07
7.06458e-07
7.042e-07
7.03037e-07
7.02864e-07
7.03591e-07
7.05198e-07
7.076e-07
7.10691e-07
7.14359e-07
7.185e-07
7.23014e-07
7.27805e-07
7.32782e-07
7.37858e-07
7.42945e-07
7.4796e-07
7.52819e-07
7.5744e-07
7.61742e-07
7.65646e-07
7.6908e-07
7.71988e-07
7.74346e-07
7.76201e-07
7.7779e-07
7.7981e-07
7.84449e-07
8.00974e-07
8.45235e-07
9.90809e-07
1.39781e-06
1.66449e-06
1.80124e-06
1.85398e-06
1.8552e-06
1.82566e-06
1.77879e-06
1.7234e-06
1.66543e-06
1.6081e-06
1.55339e-06
1.50221e-06
1.45497e-06
1.41179e-06
1.37269e-06
1.33757e-06
1.30626e-06
1.27857e-06
1.25429e-06
1.23319e-06
1.21507e-06
1.19971e-06
1.1869e-06
1.17645e-06
1.16818e-06
1.16192e-06
1.15749e-06
1.15474e-06
1.15353e-06
1.15372e-06
1.15517e-06
1.15782e-06
1.16154e-06
1.16621e-06
1.17169e-06
1.17786e-06
1.18457e-06
1.19171e-06
1.19913e-06
1.20673e-06
1.21438e-06
1.22198e-06
1.2294e-06
1.23654e-06
1.24329e-06
1.24954e-06
1.25521e-06
1.26022e-06
1.26455e-06
1.26825e-06
1.27164e-06
1.27557e-06
1.28265e-06
1.30364e-06
1.35667e-06
1.11284e-06
1.54255e-06
1.88396e-06
2.0937e-06
2.20549e-06
2.25225e-06
2.2573e-06
2.23629e-06
2.19974e-06
2.15481e-06
2.10625e-06
2.05672e-06
2.00822e-06
1.96174e-06
1.91796e-06
1.8773e-06
1.84001e-06
1.8062e-06
1.77587e-06
1.74898e-06
1.72542e-06
1.70505e-06
1.68774e-06
1.67332e-06
1.66162e-06
1.65248e-06
1.64573e-06
1.6412e-06
1.63872e-06
1.63814e-06
1.63931e-06
1.64207e-06
1.64629e-06
1.65183e-06
1.65857e-06
1.66636e-06
1.67505e-06
1.68449e-06
1.69452e-06
1.70499e-06
1.71577e-06
1.7267e-06
1.73765e-06
1.74849e-06
1.75909e-06
1.76932e-06
1.77909e-06
1.78828e-06
1.79683e-06
1.80475e-06
1.81214e-06
1.81938e-06
1.82757e-06
1.83943e-06
1.86705e-06
1.92601e-06
1.23305e-06
1.59482e-06
1.96129e-06
2.22544e-06
2.3943e-06
2.49247e-06
2.54163e-06
2.55775e-06
2.55209e-06
2.53251e-06
2.50452e-06
2.4717e-06
2.43643e-06
2.40045e-06
2.36499e-06
2.33089e-06
2.29876e-06
2.26901e-06
2.2419e-06
2.21758e-06
2.19612e-06
2.17754e-06
2.16181e-06
2.14887e-06
2.13863e-06
2.13099e-06
2.12582e-06
2.12301e-06
2.12241e-06
2.12389e-06
2.1273e-06
2.1325e-06
2.13932e-06
2.14763e-06
2.15729e-06
2.16818e-06
2.18014e-06
2.193e-06
2.20662e-06
2.22083e-06
2.23548e-06
2.2504e-06
2.26546e-06
2.28051e-06
2.29541e-06
2.31004e-06
2.32429e-06
2.33806e-06
2.35132e-06
2.36407e-06
2.3765e-06
2.38902e-06
2.40294e-06
2.42071e-06
2.45517e-06
2.51714e-06
1.38156e-06
1.59594e-06
1.92865e-06
2.21616e-06
2.42981e-06
2.57707e-06
2.67309e-06
2.73173e-06
2.76377e-06
2.7772e-06
2.77786e-06
2.76988e-06
2.75593e-06
2.73835e-06
2.71883e-06
2.69857e-06
2.6785e-06
2.65928e-06
2.6414e-06
2.62522e-06
2.611e-06
2.59889e-06
2.58902e-06
2.58145e-06
2.57618e-06
2.57321e-06
2.5725e-06
2.57398e-06
2.57757e-06
2.58318e-06
2.59071e-06
2.60005e-06
2.611e-06
2.62346e-06
2.63733e-06
2.65246e-06
2.66874e-06
2.68601e-06
2.70412e-06
2.72291e-06
2.74223e-06
2.76192e-06
2.78184e-06
2.80185e-06
2.82179e-06
2.84157e-06
2.86105e-06
2.88018e-06
2.89891e-06
2.91729e-06
2.93552e-06
2.95401e-06
2.97417e-06
2.99792e-06
3.03811e-06
3.10082e-06
1.57786e-06
1.58805e-06
1.82811e-06
2.09675e-06
2.33245e-06
2.51886e-06
2.65891e-06
2.76098e-06
2.83368e-06
2.88422e-06
2.91833e-06
2.94031e-06
2.95325e-06
2.95981e-06
2.96199e-06
2.96129e-06
2.95888e-06
2.95564e-06
2.95224e-06
2.94923e-06
2.947e-06
2.94589e-06
2.94612e-06
2.94788e-06
2.95128e-06
2.95642e-06
2.96332e-06
2.97202e-06
2.98249e-06
2.99471e-06
3.00862e-06
3.02416e-06
3.04115e-06
3.05952e-06
3.07919e-06
3.10005e-06
3.12199e-06
3.14489e-06
3.16862e-06
3.19303e-06
3.21799e-06
3.24334e-06
3.26894e-06
3.29467e-06
3.32039e-06
3.34598e-06
3.37135e-06
3.39642e-06
3.42117e-06
3.44564e-06
3.47005e-06
3.49475e-06
3.52109e-06
3.55032e-06
3.59473e-06
3.65661e-06
1.83195e-06
1.6079e-06
1.70977e-06
1.91099e-06
2.13382e-06
2.33936e-06
2.51357e-06
2.65513e-06
2.76779e-06
2.85659e-06
2.92641e-06
2.98137e-06
3.02478e-06
3.05942e-06
3.08744e-06
3.11054e-06
3.13005e-06
3.14703e-06
3.16233e-06
3.17661e-06
3.19043e-06
3.20421e-06
3.21831e-06
3.23302e-06
3.24854e-06
3.26506e-06
3.28269e-06
3.30153e-06
3.32163e-06
3.34303e-06
3.36572e-06
3.3897e-06
3.41482e-06
3.44105e-06
3.46834e-06
3.4966e-06
3.52577e-06
3.55573e-06
3.58639e-06
3.61764e-06
3.64933e-06
3.68136e-06
3.71358e-06
3.74589e-06
3.77815e-06
3.81026e-06
3.84213e-06
3.87368e-06
3.9049e-06
3.93581e-06
3.9666e-06
3.99751e-06
4.02976e-06
4.06386e-06
4.11111e-06
4.17117e-06
2.15474e-06
1.68484e-06
1.62593e-06
1.71716e-06
1.88279e-06
2.07422e-06
2.2618e-06
2.43107e-06
2.57766e-06
2.70219e-06
2.80743e-06
2.89652e-06
2.9724e-06
3.0376e-06
3.09425e-06
3.14413e-06
3.18868e-06
3.22908e-06
3.26629e-06
3.30111e-06
3.33418e-06
3.36606e-06
3.39717e-06
3.42791e-06
3.45855e-06
3.48936e-06
3.52052e-06
3.5522e-06
3.58452e-06
3.61756e-06
3.65137e-06
3.686e-06
3.72137e-06
3.75745e-06
3.79423e-06
3.83166e-06
3.8697e-06
3.90827e-06
3.9473e-06
3.98669e-06
4.02635e-06
4.06618e-06
4.10605e-06
4.14587e-06
4.18552e-06
4.22491e-06
4.26394e-06
4.30254e-06
4.34068e-06
4.37836e-06
4.41571e-06
4.45283e-06
4.49073e-06
4.52916e-06
4.57821e-06
4.63594e-06
2.56954e-06
1.84551e-06
1.62323e-06
1.58133e-06
1.64846e-06
1.78201e-06
1.9474e-06
2.11978e-06
2.28498e-06
2.43671e-06
2.57308e-06
2.69458e-06
2.80269e-06
2.89918e-06
2.98582e-06
3.06424e-06
3.13585e-06
3.20187e-06
3.26331e-06
3.32107e-06
3.37586e-06
3.4283e-06
3.47893e-06
3.52818e-06
3.57641e-06
3.62395e-06
3.67105e-06
3.71792e-06
3.76473e-06
3.81162e-06
3.85869e-06
3.90604e-06
3.95364e-06
4.00148e-06
4.04957e-06
4.0979e-06
4.14644e-06
4.19517e-06
4.24403e-06
4.29295e-06
4.34185e-06
4.39066e-06
4.43927e-06
4.4876e-06
4.53555e-06
4.58303e-06
4.62994e-06
4.67621e-06
4.72178e-06
4.76661e-06
4.81076e-06
4.85416e-06
4.89754e-06
4.93997e-06
4.99021e-06
5.0455e-06
3.11358e-06
2.1227e-06
1.74189e-06
1.56439e-06
1.51061e-06
1.54638e-06
1.64417e-06
1.78028e-06
1.93489e-06
2.09382e-06
2.24844e-06
2.39439e-06
2.53006e-06
2.65534e-06
2.77091e-06
2.87776e-06
2.97696e-06
3.06956e-06
3.15651e-06
3.23868e-06
3.31681e-06
3.39157e-06
3.46352e-06
3.53314e-06
3.60087e-06
3.66706e-06
3.73201e-06
3.79598e-06
3.85919e-06
3.92181e-06
3.98399e-06
4.04585e-06
4.10744e-06
4.16875e-06
4.22981e-06
4.29064e-06
4.35124e-06
4.4116e-06
4.47169e-06
4.53146e-06
4.59086e-06
4.64983e-06
4.70829e-06
4.76616e-06
4.82335e-06
4.87976e-06
4.93532e-06
4.98992e-06
5.04348e-06
5.09591e-06
5.14718e-06
5.19703e-06
5.24589e-06
5.29222e-06
5.3434e-06
5.3965e-06
3.84233e-06
2.57253e-06
2.03259e-06
1.72339e-06
1.54447e-06
1.46198e-06
1.45654e-06
1.51223e-06
1.61254e-06
1.74165e-06
1.8862e-06
2.03633e-06
2.18559e-06
2.33029e-06
2.46864e-06
2.60001e-06
2.72444e-06
2.84234e-06
2.95428e-06
3.06089e-06
3.16279e-06
3.26056e-06
3.35475e-06
3.44584e-06
3.53425e-06
3.62037e-06
3.70452e-06
3.78699e-06
3.86802e-06
3.94782e-06
4.02655e-06
4.10436e-06
4.18136e-06
4.25758e-06
4.33303e-06
4.40775e-06
4.48176e-06
4.55505e-06
4.62763e-06
4.69948e-06
4.77054e-06
4.84078e-06
4.91012e-06
4.9785e-06
5.04584e-06
5.11205e-06
5.17701e-06
5.24063e-06
5.30278e-06
5.36331e-06
5.42208e-06
5.47866e-06
5.53316e-06
5.58349e-06
5.63576e-06
5.68723e-06
4.87143e-06
3.3091e-06
2.59073e-06
2.14072e-06
1.83128e-06
1.62146e-06
1.49411e-06
1.43795e-06
1.44205e-06
1.49503e-06
1.58526e-06
1.7016e-06
1.83429e-06
1.97562e-06
2.12002e-06
2.26386e-06
2.40494e-06
2.54209e-06
2.67479e-06
2.80295e-06
2.92671e-06
3.04631e-06
3.16209e-06
3.2744e-06
3.38357e-06
3.48993e-06
3.59378e-06
3.69539e-06
3.79499e-06
3.89279e-06
3.98898e-06
4.0837e-06
4.17708e-06
4.26921e-06
4.36009e-06
4.44975e-06
4.53821e-06
4.62549e-06
4.7116e-06
4.79652e-06
4.88022e-06
4.96267e-06
5.04381e-06
5.12357e-06
5.20188e-06
5.27864e-06
5.35373e-06
5.42702e-06
5.49835e-06
5.56749e-06
5.6342e-06
5.69787e-06
5.75829e-06
5.81294e-06
5.86672e-06
5.9174e-06
6.36987e-06
4.50287e-06
3.56423e-06
2.94373e-06
2.48446e-06
2.13206e-06
1.86557e-06
1.67554e-06
1.55434e-06
1.49404e-06
1.4862e-06
1.52216e-06
1.5932e-06
1.69096e-06
1.80781e-06
1.93722e-06
2.07405e-06
2.21449e-06
2.35588e-06
2.49649e-06
2.63525e-06
2.77154e-06
2.90508e-06
3.03576e-06
3.1636e-06
3.28871e-06
3.41122e-06
3.53129e-06
3.64907e-06
3.76472e-06
3.87838e-06
3.99017e-06
4.10021e-06
4.20859e-06
4.31536e-06
4.42051e-06
4.52401e-06
4.6259e-06
4.72618e-06
4.82483e-06
4.92184e-06
5.01717e-06
5.11077e-06
5.20257e-06
5.29248e-06
5.38041e-06
5.46621e-06
5.54972e-06
5.63073e-06
5.70896e-06
5.78403e-06
5.85519e-06
5.92192e-06
5.98136e-06
6.03734e-06
6.08831e-06
8.30909e-06
6.22243e-06
5.04704e-06
4.23399e-06
3.60926e-06
3.10168e-06
2.68311e-06
2.34232e-06
2.07368e-06
1.87259e-06
1.7337e-06
1.65076e-06
1.61699e-06
1.62545e-06
1.66928e-06
1.74186e-06
1.83695e-06
1.9489e-06
2.07288e-06
2.20493e-06
2.34199e-06
2.48177e-06
2.62263e-06
2.76345e-06
2.90346e-06
3.04216e-06
3.17924e-06
3.31453e-06
3.44792e-06
3.57939e-06
3.70893e-06
3.83656e-06
3.96231e-06
4.08622e-06
4.2083e-06
4.32857e-06
4.44694e-06
4.56336e-06
4.67783e-06
4.79031e-06
4.90079e-06
5.00921e-06
5.11552e-06
5.21963e-06
5.32146e-06
5.42087e-06
5.51771e-06
5.61178e-06
5.70282e-06
5.79047e-06
5.87425e-06
5.95326e-06
6.0267e-06
6.0915e-06
6.15059e-06
6.20317e-06
1.02482e-05
8.22968e-06
6.91163e-06
5.94527e-06
5.17905e-06
4.53598e-06
3.98236e-06
3.50241e-06
3.08922e-06
2.73996e-06
2.45297e-06
2.22611e-06
2.05612e-06
1.93867e-06
1.86872e-06
1.84087e-06
1.84964e-06
1.88965e-06
1.95569e-06
2.04285e-06
2.14666e-06
2.26319e-06
2.3891e-06
2.52167e-06
2.65875e-06
2.79868e-06
2.9402e-06
3.08239e-06
3.22454e-06
3.36616e-06
3.50689e-06
3.64645e-06
3.78465e-06
3.92136e-06
4.05646e-06
4.18988e-06
4.3215e-06
4.45116e-06
4.57875e-06
4.70418e-06
4.82741e-06
4.94835e-06
5.06691e-06
5.18299e-06
5.29647e-06
5.40718e-06
5.51495e-06
5.61953e-06
5.72061e-06
5.81775e-06
5.91038e-06
5.99746e-06
6.07798e-06
6.14874e-06
6.21197e-06
6.26763e-06
1.17229e-05
1.01019e-05
8.83673e-06
7.82939e-06
6.99566e-06
6.27544e-06
5.63847e-06
5.06737e-06
4.55283e-06
4.09061e-06
3.67945e-06
3.31948e-06
3.01113e-06
2.75426e-06
2.54781e-06
2.38969e-06
2.27688e-06
2.20574e-06
2.17225e-06
2.17217e-06
2.20124e-06
2.25529e-06
2.3303e-06
2.42254e-06
2.52864e-06
2.64563e-06
2.77099e-06
2.9026e-06
3.03875e-06
3.17806e-06
3.31942e-06
3.46197e-06
3.60503e-06
3.74806e-06
3.89064e-06
4.03241e-06
4.17311e-06
4.31246e-06
4.45014e-06
4.58592e-06
4.71964e-06
4.85115e-06
4.98029e-06
5.10691e-06
5.2308e-06
5.35179e-06
5.46961e-06
5.58398e-06
5.69452e-06
5.80073e-06
5.90193e-06
5.99699e-06
6.08474e-06
6.16196e-06
6.23041e-06
6.29074e-06
1.264e-05
1.15546e-05
1.05227e-05
9.60933e-06
8.80626e-06
8.08627e-06
7.43217e-06
6.83147e-06
6.27574e-06
5.75995e-06
5.28164e-06
4.84026e-06
4.43647e-06
4.07158e-06
3.74711e-06
3.46429e-06
3.22378e-06
3.02546e-06
2.86838e-06
2.75081e-06
2.6704e-06
2.62431e-06
2.60939e-06
2.62234e-06
2.6598e-06
2.71844e-06
2.79509e-06
2.88681e-06
2.99091e-06
3.105e-06
3.22703e-06
3.35523e-06
3.48812e-06
3.62445e-06
3.76321e-06
3.90354e-06
4.04474e-06
4.18625e-06
4.3275e-06
4.46795e-06
4.60722e-06
4.74498e-06
4.88092e-06
5.01475e-06
5.14618e-06
5.2749e-06
5.4006e-06
5.52288e-06
5.64131e-06
5.75528e-06
5.86405e-06
5.96641e-06
6.0611e-06
6.14499e-06
6.2196e-06
6.28615e-06
1.31442e-05
1.25409e-05
1.18251e-05
1.11048e-05
1.04195e-05
9.77324e-06
9.16516e-06
8.59183e-06
8.04939e-06
7.53463e-06
7.04541e-06
6.58065e-06
6.14022e-06
5.72479e-06
5.33565e-06
4.9745e-06
4.64325e-06
4.34376e-06
4.07764e-06
3.84607e-06
3.64964e-06
3.4883e-06
3.36133e-06
3.26744e-06
3.20481e-06
3.17125e-06
3.1643e-06
3.18133e-06
3.21965e-06
3.2766e-06
3.34962e-06
3.4363e-06
3.53444e-06
3.64206e-06
3.75738e-06
3.87887e-06
4.00517e-06
4.13515e-06
4.26784e-06
4.40227e-06
4.53769e-06
4.67341e-06
4.80885e-06
4.94346e-06
5.07676e-06
5.20825e-06
5.33745e-06
5.46386e-06
5.58689e-06
5.70587e-06
5.81995e-06
5.92787e-06
6.02836e-06
6.11849e-06
6.19975e-06
6.27384e-06
1.34046e-05
1.31535e-05
1.27427e-05
1.22544e-05
1.17397e-05
1.12203e-05
1.07077e-05
1.02072e-05
9.72078e-06
9.24877e-06
8.79088e-06
8.34683e-06
7.91657e-06
7.50039e-06
7.09897e-06
6.7134e-06
6.34511e-06
5.99582e-06
5.66744e-06
5.36195e-06
5.0813e-06
4.82725e-06
4.60123e-06
4.40427e-06
4.23689e-06
4.0991e-06
3.99038e-06
3.90975e-06
3.85583e-06
3.8269e-06
3.82102e-06
3.83612e-06
3.87003e-06
3.92062e-06
3.9858e-06
4.06357e-06
4.15208e-06
4.24963e-06
4.35468e-06
4.46581e-06
4.58182e-06
4.7016e-06
4.82412e-06
4.94845e-06
5.07377e-06
5.1993e-06
5.3243e-06
5.44803e-06
5.56977e-06
5.68865e-06
5.80376e-06
5.91377e-06
6.01748e-06
6.11224e-06
6.19973e-06
6.28193e-06
1.35382e-05
1.35153e-05
1.33496e-05
1.30818e-05
1.27519e-05
1.23851e-05
1.19976e-05
1.16004e-05
1.11999e-05
1.08e-05
1.04028e-05
1.00095e-05
9.62086e-06
9.23759e-06
8.86034e-06
8.48987e-06
8.12717e-06
7.77339e-06
7.42995e-06
7.09843e-06
6.78061e-06
6.47837e-06
6.19361e-06
5.92823e-06
5.68396e-06
5.46232e-06
5.26453e-06
5.09144e-06
4.94347e-06
4.82068e-06
4.72266e-06
4.64868e-06
4.59766e-06
4.56827e-06
4.55899e-06
4.56818e-06
4.59411e-06
4.63503e-06
4.68922e-06
4.75503e-06
4.83077e-06
4.91524e-06
5.00701e-06
5.10476e-06
5.20729e-06
5.31346e-06
5.42222e-06
5.53255e-06
5.64346e-06
5.75392e-06
5.86287e-06
5.96897e-06
6.0711e-06
6.16695e-06
6.25862e-06
6.34813e-06
1.3611e-05
1.37267e-05
1.37371e-05
1.36512e-05
1.34917e-05
1.32779e-05
1.30249e-05
1.27452e-05
1.24474e-05
1.21374e-05
1.18192e-05
1.14957e-05
1.11687e-05
1.08394e-05
1.05091e-05
1.01785e-05
9.84868e-06
9.52041e-06
9.19477e-06
8.87291e-06
8.55614e-06
8.24591e-06
7.94379e-06
7.65149e-06
7.37075e-06
7.10337e-06
6.85109e-06
6.61554e-06
6.39822e-06
6.20037e-06
6.02298e-06
5.86673e-06
5.73198e-06
5.61875e-06
5.52673e-06
5.45536e-06
5.40381e-06
5.37104e-06
5.35586e-06
5.35691e-06
5.37266e-06
5.40197e-06
5.44349e-06
5.49584e-06
5.55767e-06
5.62767e-06
5.70455e-06
5.78709e-06
5.8741e-06
5.96437e-06
6.05674e-06
6.14989e-06
6.24285e-06
6.33371e-06
6.42508e-06
6.51885e-06
1.36557e-05
1.38541e-05
1.39831e-05
1.40342e-05
1.40156e-05
1.39385e-05
1.38132e-05
1.36509e-05
1.34599e-05
1.32469e-05
1.30167e-05
1.2773e-05
1.25187e-05
1.22556e-05
1.19853e-05
1.17092e-05
1.14281e-05
1.11432e-05
1.08552e-05
1.05651e-05
1.0274e-05
9.9829e-06
9.69299e-06
9.40558e-06
9.12209e-06
8.84401e-06
8.57291e-06
8.31041e-06
8.05813e-06
7.81764e-06
7.59047e-06
7.37799e-06
7.18141e-06
7.00175e-06
6.83978e-06
6.69602e-06
6.57077e-06
6.46404e-06
6.37561e-06
6.30501e-06
6.25141e-06
6.21397e-06
6.19195e-06
6.18446e-06
6.19049e-06
6.20895e-06
6.2387e-06
6.27859e-06
6.32747e-06
6.38416e-06
6.44758e-06
6.51654e-06
6.59036e-06
6.66764e-06
6.75151e-06
6.84372e-06
1.36872e-05
1.39361e-05
1.41426e-05
1.42912e-05
1.43811e-05
1.44162e-05
1.44024e-05
1.43473e-05
1.42577e-05
1.41396e-05
1.3998e-05
1.38368e-05
1.3659e-05
1.34672e-05
1.32633e-05
1.30487e-05
1.28248e-05
1.25927e-05
1.23532e-05
1.21074e-05
1.1856e-05
1.16e-05
1.13404e-05
1.1078e-05
1.08141e-05
1.05497e-05
1.02862e-05
1.00247e-05
9.76687e-06
9.51396e-06
9.26749e-06
9.02891e-06
8.79964e-06
8.58104e-06
8.37437e-06
8.18078e-06
8.00124e-06
7.83658e-06
7.68744e-06
7.55426e-06
7.43714e-06
7.33555e-06
7.24961e-06
7.1792e-06
7.12406e-06
7.08371e-06
7.0576e-06
7.04503e-06
7.04526e-06
7.05753e-06
7.0811e-06
7.11521e-06
7.1597e-06
7.21379e-06
7.28123e-06
7.36371e-06
1.3712e-05
1.39936e-05
1.42504e-05
1.44662e-05
1.46358e-05
1.47582e-05
1.48355e-05
1.48718e-05
1.4872e-05
1.48408e-05
1.47823e-05
1.47001e-05
1.45973e-05
1.44764e-05
1.43396e-05
1.41885e-05
1.40245e-05
1.3849e-05
1.36628e-05
1.34671e-05
1.32625e-05
1.30499e-05
1.28303e-05
1.26043e-05
1.23729e-05
1.2137e-05
1.18975e-05
1.16556e-05
1.14122e-05
1.11687e-05
1.09262e-05
1.06859e-05
1.04493e-05
1.02176e-05
9.99212e-06
9.77412e-06
9.56486e-06
9.3655e-06
9.17715e-06
9.00082e-06
8.83722e-06
8.68613e-06
8.54831e-06
8.42435e-06
8.31469e-06
8.21963e-06
8.13933e-06
8.07381e-06
8.02304e-06
7.98689e-06
7.96532e-06
7.95825e-06
7.96626e-06
7.98937e-06
8.03198e-06
8.09607e-06
1.37326e-05
1.40365e-05
1.43267e-05
1.45883e-05
1.48146e-05
1.50022e-05
1.51507e-05
1.52613e-05
1.5337e-05
1.53808e-05
1.5396e-05
1.53855e-05
1.5352e-05
1.52979e-05
1.52251e-05
1.51353e-05
1.50302e-05
1.49109e-05
1.47785e-05
1.46341e-05
1.44785e-05
1.43126e-05
1.4137e-05
1.39527e-05
1.37602e-05
1.35605e-05
1.33542e-05
1.31423e-05
1.29256e-05
1.2705e-05
1.24816e-05
1.22563e-05
1.20303e-05
1.18047e-05
1.15807e-05
1.13594e-05
1.1142e-05
1.09298e-05
1.0724e-05
1.05259e-05
1.03361e-05
1.0155e-05
9.98347e-06
9.8226e-06
9.67328e-06
9.53635e-06
9.41257e-06
9.30264e-06
9.2072e-06
9.12685e-06
9.06229e-06
9.01426e-06
8.98412e-06
8.97278e-06
8.98527e-06
9.02425e-06
1.37496e-05
1.40696e-05
1.43824e-05
1.4675e-05
1.4941e-05
1.5176e-05
1.53781e-05
1.55468e-05
1.56833e-05
1.57894e-05
1.58672e-05
1.59189e-05
1.59467e-05
1.59524e-05
1.59378e-05
1.59047e-05
1.58544e-05
1.57882e-05
1.57073e-05
1.56125e-05
1.55048e-05
1.53851e-05
1.52541e-05
1.51126e-05
1.49611e-05
1.48005e-05
1.46314e-05
1.44544e-05
1.42704e-05
1.40801e-05
1.38843e-05
1.36839e-05
1.34797e-05
1.32726e-05
1.30636e-05
1.28538e-05
1.26442e-05
1.24358e-05
1.223e-05
1.2028e-05
1.183e-05
1.16369e-05
1.14498e-05
1.12697e-05
1.10977e-05
1.0935e-05
1.07827e-05
1.06419e-05
1.05136e-05
1.03991e-05
1.02997e-05
1.02167e-05
1.01522e-05
1.01079e-05
1.00893e-05
1.01e-05
1.37631e-05
1.40947e-05
1.44228e-05
1.47364e-05
1.50297e-05
1.52983e-05
1.55396e-05
1.57522e-05
1.59362e-05
1.60921e-05
1.62212e-05
1.63248e-05
1.64046e-05
1.64621e-05
1.64987e-05
1.65158e-05
1.65148e-05
1.64968e-05
1.64629e-05
1.6414e-05
1.63511e-05
1.62751e-05
1.61865e-05
1.60863e-05
1.59749e-05
1.58532e-05
1.57217e-05
1.5581e-05
1.54319e-05
1.52748e-05
1.51105e-05
1.49397e-05
1.47631e-05
1.45815e-05
1.43956e-05
1.42063e-05
1.40145e-05
1.38211e-05
1.36273e-05
1.34339e-05
1.32413e-05
1.30504e-05
1.28622e-05
1.26778e-05
1.24983e-05
1.23248e-05
1.21585e-05
1.20008e-05
1.18529e-05
1.17164e-05
1.15929e-05
1.14841e-05
1.13927e-05
1.13205e-05
1.12736e-05
1.12566e-05
1.37732e-05
1.41125e-05
1.44506e-05
1.47778e-05
1.50893e-05
1.5381e-05
1.565e-05
1.58948e-05
1.61144e-05
1.63089e-05
1.64785e-05
1.66242e-05
1.67468e-05
1.68476e-05
1.69275e-05
1.69878e-05
1.70296e-05
1.70539e-05
1.70616e-05
1.70538e-05
1.70313e-05
1.69949e-05
1.69453e-05
1.68832e-05
1.68094e-05
1.67244e-05
1.66288e-05
1.65233e-05
1.64083e-05
1.62845e-05
1.61525e-05
1.60127e-05
1.58659e-05
1.57127e-05
1.55537e-05
1.53896e-05
1.52211e-05
1.50491e-05
1.48746e-05
1.46978e-05
1.45194e-05
1.43403e-05
1.41614e-05
1.39835e-05
1.38077e-05
1.36351e-05
1.34668e-05
1.33042e-05
1.31485e-05
1.30013e-05
1.28643e-05
1.27395e-05
1.26294e-05
1.25363e-05
1.24661e-05
1.24247e-05
1.37799e-05
1.41233e-05
1.44668e-05
1.48021e-05
1.51248e-05
1.54313e-05
1.57189e-05
1.59861e-05
1.62315e-05
1.64545e-05
1.66551e-05
1.68335e-05
1.69902e-05
1.71259e-05
1.72415e-05
1.73378e-05
1.74156e-05
1.74759e-05
1.75196e-05
1.75474e-05
1.75602e-05
1.75588e-05
1.75438e-05
1.75161e-05
1.74761e-05
1.74245e-05
1.7362e-05
1.7289e-05
1.72061e-05
1.71138e-05
1.70127e-05
1.69032e-05
1.6786e-05
1.66615e-05
1.65302e-05
1.63929e-05
1.625e-05
1.61025e-05
1.59505e-05
1.57946e-05
1.56356e-05
1.5474e-05
1.53107e-05
1.51464e-05
1.4982e-05
1.48184e-05
1.46566e-05
1.44979e-05
1.43434e-05
1.41945e-05
1.4053e-05
1.39205e-05
1.37996e-05
1.36925e-05
1.36049e-05
1.35436e-05
1.37831e-05
1.4127e-05
1.44719e-05
1.48103e-05
1.51385e-05
1.54532e-05
1.57521e-05
1.60335e-05
1.62961e-05
1.65391e-05
1.67621e-05
1.69648e-05
1.71475e-05
1.73105e-05
1.74543e-05
1.75795e-05
1.76868e-05
1.7777e-05
1.78507e-05
1.79086e-05
1.79516e-05
1.79803e-05
1.79954e-05
1.79976e-05
1.79874e-05
1.79655e-05
1.79324e-05
1.78887e-05
1.78348e-05
1.77714e-05
1.76988e-05
1.76176e-05
1.75282e-05
1.74311e-05
1.73268e-05
1.72158e-05
1.70987e-05
1.69757e-05
1.68474e-05
1.67142e-05
1.65768e-05
1.64356e-05
1.62912e-05
1.61444e-05
1.59957e-05
1.58461e-05
1.56963e-05
1.55473e-05
1.54002e-05
1.52562e-05
1.51166e-05
1.49831e-05
1.48578e-05
1.47428e-05
1.46433e-05
1.45671e-05
1.37826e-05
1.41235e-05
1.4466e-05
1.48031e-05
1.51317e-05
1.54489e-05
1.57526e-05
1.60414e-05
1.6314e-05
1.65695e-05
1.68071e-05
1.70266e-05
1.72278e-05
1.74109e-05
1.7576e-05
1.77236e-05
1.78541e-05
1.79681e-05
1.80662e-05
1.81489e-05
1.8217e-05
1.8271e-05
1.83116e-05
1.83393e-05
1.83548e-05
1.83586e-05
1.83513e-05
1.83334e-05
1.83053e-05
1.82676e-05
1.82207e-05
1.8165e-05
1.81011e-05
1.80292e-05
1.79499e-05
1.78637e-05
1.77708e-05
1.76716e-05
1.75665e-05
1.7456e-05
1.73404e-05
1.72203e-05
1.70961e-05
1.69684e-05
1.68376e-05
1.67045e-05
1.65697e-05
1.64339e-05
1.62979e-05
1.61628e-05
1.60297e-05
1.58998e-05
1.5775e-05
1.56569e-05
1.55503e-05
1.54638e-05
1.37785e-05
1.41128e-05
1.44488e-05
1.47804e-05
1.51047e-05
1.54193e-05
1.57223e-05
1.60123e-05
1.62883e-05
1.65495e-05
1.67949e-05
1.70243e-05
1.72373e-05
1.74337e-05
1.76137e-05
1.77775e-05
1.79253e-05
1.80575e-05
1.81745e-05
1.82769e-05
1.83652e-05
1.84399e-05
1.85016e-05
1.85508e-05
1.85879e-05
1.86137e-05
1.86285e-05
1.86329e-05
1.86272e-05
1.86121e-05
1.85878e-05
1.85549e-05
1.85137e-05
1.84646e-05
1.8408e-05
1.83443e-05
1.82737e-05
1.81966e-05
1.81134e-05
1.80244e-05
1.793e-05
1.78305e-05
1.77263e-05
1.76178e-05
1.75055e-05
1.73897e-05
1.72711e-05
1.71501e-05
1.70273e-05
1.69035e-05
1.67796e-05
1.66563e-05
1.65353e-05
1.64179e-05
1.63082e-05
1.62155e-05
1.37708e-05
1.40947e-05
1.44203e-05
1.47421e-05
1.50576e-05
1.53646e-05
1.56615e-05
1.59472e-05
1.62207e-05
1.64813e-05
1.67283e-05
1.69611e-05
1.71795e-05
1.73831e-05
1.75719e-05
1.7746e-05
1.79054e-05
1.80505e-05
1.81815e-05
1.82987e-05
1.84026e-05
1.84937e-05
1.85723e-05
1.86389e-05
1.86941e-05
1.87382e-05
1.87717e-05
1.87951e-05
1.88088e-05
1.88132e-05
1.88087e-05
1.87957e-05
1.87746e-05
1.87457e-05
1.87094e-05
1.86659e-05
1.86156e-05
1.85588e-05
1.84957e-05
1.84267e-05
1.83521e-05
1.8272e-05
1.81869e-05
1.8097e-05
1.80027e-05
1.79042e-05
1.78019e-05
1.76962e-05
1.75874e-05
1.74761e-05
1.73628e-05
1.72482e-05
1.71333e-05
1.70192e-05
1.69097e-05
1.68143e-05
1.37593e-05
1.4069e-05
1.43801e-05
1.46878e-05
1.49898e-05
1.52844e-05
1.55702e-05
1.58461e-05
1.61115e-05
1.63657e-05
1.66083e-05
1.68387e-05
1.70565e-05
1.72614e-05
1.74533e-05
1.76322e-05
1.7798e-05
1.79508e-05
1.80908e-05
1.82183e-05
1.83335e-05
1.84367e-05
1.85284e-05
1.86088e-05
1.86784e-05
1.87376e-05
1.87867e-05
1.88261e-05
1.88562e-05
1.88774e-05
1.88901e-05
1.88945e-05
1.8891e-05
1.888e-05
1.88617e-05
1.88364e-05
1.88043e-05
1.87659e-05
1.87212e-05
1.86705e-05
1.86141e-05
1.85522e-05
1.8485e-05
1.84127e-05
1.83355e-05
1.82536e-05
1.81673e-05
1.80767e-05
1.79821e-05
1.78837e-05
1.77819e-05
1.76771e-05
1.757e-05
1.74615e-05
1.73548e-05
1.72597e-05
1.37439e-05
1.40354e-05
1.43277e-05
1.46168e-05
1.49008e-05
1.5178e-05
1.54475e-05
1.57084e-05
1.59603e-05
1.62027e-05
1.64352e-05
1.66574e-05
1.6869e-05
1.70697e-05
1.72593e-05
1.74377e-05
1.76047e-05
1.77605e-05
1.79049e-05
1.80382e-05
1.81606e-05
1.82721e-05
1.83732e-05
1.84639e-05
1.85447e-05
1.86158e-05
1.86775e-05
1.87302e-05
1.87742e-05
1.88097e-05
1.88371e-05
1.88567e-05
1.88687e-05
1.88735e-05
1.88712e-05
1.88622e-05
1.88467e-05
1.88249e-05
1.8797e-05
1.87632e-05
1.87236e-05
1.86785e-05
1.8628e-05
1.85723e-05
1.85114e-05
1.84454e-05
1.83745e-05
1.82988e-05
1.82183e-05
1.8133e-05
1.80433e-05
1.79492e-05
1.78512e-05
1.77501e-05
1.76487e-05
1.75567e-05
1.37244e-05
1.39934e-05
1.42625e-05
1.45283e-05
1.47892e-05
1.50442e-05
1.52923e-05
1.55331e-05
1.57662e-05
1.59914e-05
1.62085e-05
1.64172e-05
1.66173e-05
1.68085e-05
1.69907e-05
1.71635e-05
1.7327e-05
1.7481e-05
1.76255e-05
1.77605e-05
1.7886e-05
1.80021e-05
1.8109e-05
1.82068e-05
1.82957e-05
1.83758e-05
1.84475e-05
1.8511e-05
1.85664e-05
1.8614e-05
1.8654e-05
1.86868e-05
1.87124e-05
1.87312e-05
1.87434e-05
1.87492e-05
1.87487e-05
1.87421e-05
1.87297e-05
1.87115e-05
1.86877e-05
1.86584e-05
1.86237e-05
1.85837e-05
1.85383e-05
1.84877e-05
1.84319e-05
1.83708e-05
1.83043e-05
1.82325e-05
1.81554e-05
1.80729e-05
1.79855e-05
1.78937e-05
1.78001e-05
1.77142e-05
1.37004e-05
1.39423e-05
1.41833e-05
1.44208e-05
1.46537e-05
1.48812e-05
1.51028e-05
1.53184e-05
1.55277e-05
1.57308e-05
1.59275e-05
1.61177e-05
1.63013e-05
1.64782e-05
1.66481e-05
1.68108e-05
1.69662e-05
1.71141e-05
1.72545e-05
1.73871e-05
1.7512e-05
1.76291e-05
1.77385e-05
1.78402e-05
1.79343e-05
1.80208e-05
1.80999e-05
1.81717e-05
1.82364e-05
1.8294e-05
1.83449e-05
1.83891e-05
1.84268e-05
1.84582e-05
1.84834e-05
1.85027e-05
1.8516e-05
1.85237e-05
1.85258e-05
1.85223e-05
1.85135e-05
1.84993e-05
1.84798e-05
1.84549e-05
1.84248e-05
1.83894e-05
1.83485e-05
1.83021e-05
1.82501e-05
1.81923e-05
1.81287e-05
1.80592e-05
1.79841e-05
1.79038e-05
1.78208e-05
1.7744e-05
1.36714e-05
1.3881e-05
1.40886e-05
1.42926e-05
1.44922e-05
1.46871e-05
1.48773e-05
1.50627e-05
1.52435e-05
1.54198e-05
1.55915e-05
1.57588e-05
1.59216e-05
1.60797e-05
1.62331e-05
1.63814e-05
1.65246e-05
1.66625e-05
1.67948e-05
1.69214e-05
1.70422e-05
1.7157e-05
1.72657e-05
1.73683e-05
1.74647e-05
1.7555e-05
1.76391e-05
1.77171e-05
1.7789e-05
1.78549e-05
1.79149e-05
1.7969e-05
1.80174e-05
1.80602e-05
1.80974e-05
1.81292e-05
1.81556e-05
1.81767e-05
1.81927e-05
1.82035e-05
1.82091e-05
1.82097e-05
1.82052e-05
1.81956e-05
1.81808e-05
1.81607e-05
1.81352e-05
1.81042e-05
1.80674e-05
1.80248e-05
1.79761e-05
1.79213e-05
1.78608e-05
1.77948e-05
1.77258e-05
1.76619e-05
1.36365e-05
1.38079e-05
1.39765e-05
1.41413e-05
1.43024e-05
1.44599e-05
1.46139e-05
1.47649e-05
1.4913e-05
1.50585e-05
1.52015e-05
1.53421e-05
1.54803e-05
1.56161e-05
1.57493e-05
1.58797e-05
1.60071e-05
1.61314e-05
1.62523e-05
1.63696e-05
1.6483e-05
1.65924e-05
1.66975e-05
1.67983e-05
1.68945e-05
1.69861e-05
1.7073e-05
1.71551e-05
1.72324e-05
1.73048e-05
1.73724e-05
1.74352e-05
1.74931e-05
1.75462e-05
1.75945e-05
1.76381e-05
1.7677e-05
1.77112e-05
1.77407e-05
1.77656e-05
1.77859e-05
1.78014e-05
1.78122e-05
1.78182e-05
1.78193e-05
1.78153e-05
1.78062e-05
1.77917e-05
1.77717e-05
1.77459e-05
1.77143e-05
1.76769e-05
1.76338e-05
1.75858e-05
1.75349e-05
1.74882e-05
1.35948e-05
1.37213e-05
1.38446e-05
1.39649e-05
1.40826e-05
1.41984e-05
1.43125e-05
1.44256e-05
1.45378e-05
1.46496e-05
1.47611e-05
1.48724e-05
1.49834e-05
1.50941e-05
1.52045e-05
1.53142e-05
1.54232e-05
1.55312e-05
1.56379e-05
1.57431e-05
1.58465e-05
1.59478e-05
1.60468e-05
1.61432e-05
1.62369e-05
1.63276e-05
1.64152e-05
1.64996e-05
1.65805e-05
1.6658e-05
1.67318e-05
1.6802e-05
1.68684e-05
1.69311e-05
1.69899e-05
1.70449e-05
1.7096e-05
1.71432e-05
1.71864e-05
1.72256e-05
1.72608e-05
1.72919e-05
1.73188e-05
1.73413e-05
1.73595e-05
1.7373e-05
1.73819e-05
1.73858e-05
1.73846e-05
1.73782e-05
1.73666e-05
1.73498e-05
1.73281e-05
1.73024e-05
1.72745e-05