/*--------------------------------*- C++ -*----------------------------------*\
  =========                 |
  \\      /  F ield         | OpenFOAM: The Open Source CFD Toolbox
   \\    /   O peration     | Website:  https://openfoam.org
    \\  /    A nd           | Version:  6
     \\/     M anipulation  |
\*---------------------------------------------------------------------------*/
FoamFile
{
    version     2.0;
    format      ascii;
    class       volScalarField;
    location    "26750";
    object      p;
}
// * * * * * * * * * * * * * * * * * * * * * * * * * * * * * * * * * * * * * //

dimensions      [0 2 -2 0 0 0 0];

internalField   nonuniform List<scalar> 
115600
(
-0.00224828
-0.0373157
-0.0723669
-0.107407
-0.142446
-0.177489
-0.212534
-0.24758
-0.282627
-0.317674
-0.35272
-0.387767
-0.422813
-0.457859
-0.492905
-0.527951
-0.562996
-0.598042
-0.633087
-0.668131
-0.703176
-0.73822
-0.773265
-0.808309
-0.843353
-0.878397
-0.913441
-0.948485
-0.983528
-1.01857
-1.05362
-1.08866
-1.1237
-1.15875
-1.19379
-1.22884
-1.26388
-1.29893
-1.33397
-1.36902
-1.40407
-1.43912
-1.47417
-1.50922
-1.54428
-1.57933
-1.61439
-1.64946
-1.68453
-1.7196
-1.75469
-1.78978
-1.82488
-1.86
-1.89517
-1.93025
-0.00229693
-0.0373166
-0.0723671
-0.107407
-0.142446
-0.177489
-0.212534
-0.24758
-0.282627
-0.317674
-0.35272
-0.387767
-0.422813
-0.457859
-0.492905
-0.527951
-0.562996
-0.598042
-0.633087
-0.668131
-0.703176
-0.73822
-0.773265
-0.808309
-0.843353
-0.878397
-0.913441
-0.948485
-0.983528
-1.01857
-1.05362
-1.08866
-1.1237
-1.15875
-1.19379
-1.22884
-1.26388
-1.29893
-1.33397
-1.36902
-1.40407
-1.43912
-1.47417
-1.50922
-1.54428
-1.57933
-1.61439
-1.64946
-1.68453
-1.7196
-1.75469
-1.78978
-1.82488
-1.86
-1.89517
-1.93025
-0.00233956
-0.0373178
-0.0723677
-0.107408
-0.142447
-0.177489
-0.212534
-0.24758
-0.282627
-0.317674
-0.35272
-0.387767
-0.422813
-0.457859
-0.492905
-0.527951
-0.562996
-0.598042
-0.633087
-0.668131
-0.703176
-0.73822
-0.773265
-0.808309
-0.843353
-0.878397
-0.913441
-0.948485
-0.983528
-1.01857
-1.05362
-1.08866
-1.1237
-1.15875
-1.19379
-1.22884
-1.26388
-1.29893
-1.33397
-1.36902
-1.40407
-1.43912
-1.47417
-1.50922
-1.54428
-1.57933
-1.61439
-1.64946
-1.68453
-1.7196
-1.75469
-1.78978
-1.82488
-1.86
-1.89517
-1.93025
-0.00237187
-0.0373191
-0.0723686
-0.107409
-0.142447
-0.17749
-0.212535
-0.247581
-0.282627
-0.317674
-0.352721
-0.387767
-0.422813
-0.457859
-0.492905
-0.527951
-0.562996
-0.598042
-0.633087
-0.668131
-0.703176
-0.73822
-0.773265
-0.808309
-0.843353
-0.878397
-0.913441
-0.948485
-0.983528
-1.01857
-1.05362
-1.08866
-1.1237
-1.15875
-1.19379
-1.22884
-1.26388
-1.29893
-1.33397
-1.36902
-1.40407
-1.43912
-1.47417
-1.50922
-1.54428
-1.57933
-1.61439
-1.64946
-1.68453
-1.7196
-1.75469
-1.78978
-1.82488
-1.86
-1.89517
-1.93025
-0.00239787
-0.0373209
-0.0723695
-0.107409
-0.142448
-0.17749
-0.212535
-0.247581
-0.282627
-0.317674
-0.352721
-0.387767
-0.422814
-0.45786
-0.492905
-0.527951
-0.562996
-0.598042
-0.633087
-0.668131
-0.703176
-0.73822
-0.773265
-0.808309
-0.843353
-0.878397
-0.913441
-0.948485
-0.983528
-1.01857
-1.05362
-1.08866
-1.1237
-1.15875
-1.19379
-1.22884
-1.26388
-1.29893
-1.33397
-1.36902
-1.40407
-1.43912
-1.47417
-1.50922
-1.54428
-1.57933
-1.61439
-1.64946
-1.68453
-1.7196
-1.75469
-1.78978
-1.82488
-1.86
-1.89517
-1.93025
-0.00241989
-0.0373228
-0.0723701
-0.10741
-0.142449
-0.177491
-0.212536
-0.247581
-0.282628
-0.317674
-0.352721
-0.387767
-0.422814
-0.45786
-0.492906
-0.527951
-0.562996
-0.598042
-0.633087
-0.668131
-0.703176
-0.73822
-0.773265
-0.808309
-0.843353
-0.878397
-0.913441
-0.948485
-0.983528
-1.01857
-1.05362
-1.08866
-1.1237
-1.15875
-1.19379
-1.22884
-1.26388
-1.29893
-1.33397
-1.36902
-1.40407
-1.43912
-1.47417
-1.50922
-1.54428
-1.57933
-1.61439
-1.64946
-1.68453
-1.7196
-1.75469
-1.78978
-1.82488
-1.86
-1.89517
-1.93025
-0.00243854
-0.037325
-0.0723704
-0.10741
-0.142449
-0.177491
-0.212536
-0.247582
-0.282628
-0.317675
-0.352721
-0.387768
-0.422814
-0.45786
-0.492906
-0.527951
-0.562997
-0.598042
-0.633087
-0.668131
-0.703176
-0.73822
-0.773265
-0.808309
-0.843353
-0.878397
-0.913441
-0.948484
-0.983528
-1.01857
-1.05362
-1.08866
-1.1237
-1.15875
-1.19379
-1.22884
-1.26388
-1.29893
-1.33397
-1.36902
-1.40407
-1.43912
-1.47417
-1.50922
-1.54428
-1.57933
-1.61439
-1.64946
-1.68453
-1.7196
-1.75469
-1.78978
-1.82488
-1.86
-1.89517
-1.93024
-0.00245384
-0.0373279
-0.0723706
-0.107411
-0.142449
-0.177492
-0.212536
-0.247582
-0.282628
-0.317675
-0.352721
-0.387768
-0.422814
-0.45786
-0.492906
-0.527951
-0.562997
-0.598042
-0.633087
-0.668131
-0.703176
-0.73822
-0.773265
-0.808309
-0.843353
-0.878397
-0.913441
-0.948484
-0.983528
-1.01857
-1.05362
-1.08866
-1.1237
-1.15875
-1.19379
-1.22884
-1.26388
-1.29893
-1.33397
-1.36902
-1.40407
-1.43912
-1.47417
-1.50922
-1.54428
-1.57933
-1.61439
-1.64946
-1.68453
-1.7196
-1.75469
-1.78978
-1.82488
-1.86
-1.89517
-1.93024
-0.00246572
-0.0373317
-0.072371
-0.107411
-0.142449
-0.177492
-0.212537
-0.247582
-0.282629
-0.317675
-0.352721
-0.387768
-0.422814
-0.45786
-0.492906
-0.527951
-0.562997
-0.598042
-0.633087
-0.668131
-0.703176
-0.73822
-0.773265
-0.808309
-0.843353
-0.878397
-0.913441
-0.948484
-0.983528
-1.01857
-1.05362
-1.08866
-1.1237
-1.15875
-1.19379
-1.22884
-1.26388
-1.29893
-1.33397
-1.36902
-1.40407
-1.43912
-1.47417
-1.50922
-1.54428
-1.57933
-1.61439
-1.64946
-1.68453
-1.7196
-1.75468
-1.78978
-1.82488
-1.85999
-1.89516
-1.93023
-0.00247412
-0.0373364
-0.0723718
-0.107411
-0.14245
-0.177492
-0.212537
-0.247582
-0.282629
-0.317675
-0.352722
-0.387768
-0.422814
-0.45786
-0.492906
-0.527951
-0.562997
-0.598042
-0.633087
-0.668131
-0.703176
-0.73822
-0.773265
-0.808309
-0.843353
-0.878397
-0.913441
-0.948484
-0.983528
-1.01857
-1.05362
-1.08866
-1.1237
-1.15875
-1.19379
-1.22884
-1.26388
-1.29893
-1.33397
-1.36902
-1.40407
-1.43912
-1.47417
-1.50922
-1.54428
-1.57933
-1.61439
-1.64946
-1.68453
-1.7196
-1.75468
-1.78978
-1.82488
-1.85999
-1.89516
-1.93023
-0.00247915
-0.0373419
-0.0723731
-0.107412
-0.14245
-0.177492
-0.212537
-0.247582
-0.282629
-0.317675
-0.352722
-0.387768
-0.422814
-0.45786
-0.492906
-0.527951
-0.562997
-0.598042
-0.633087
-0.668131
-0.703176
-0.73822
-0.773265
-0.808309
-0.843353
-0.878397
-0.913441
-0.948484
-0.983528
-1.01857
-1.05362
-1.08866
-1.1237
-1.15875
-1.19379
-1.22884
-1.26388
-1.29893
-1.33397
-1.36902
-1.40407
-1.43912
-1.47417
-1.50922
-1.54428
-1.57933
-1.61439
-1.64946
-1.68453
-1.7196
-1.75468
-1.78977
-1.82488
-1.85999
-1.89515
-1.93022
-0.00248109
-0.037348
-0.0723749
-0.107413
-0.142451
-0.177493
-0.212537
-0.247583
-0.282629
-0.317675
-0.352722
-0.387768
-0.422814
-0.45786
-0.492906
-0.527951
-0.562997
-0.598042
-0.633087
-0.668131
-0.703176
-0.73822
-0.773265
-0.808309
-0.843353
-0.878397
-0.91344
-0.948484
-0.983528
-1.01857
-1.05362
-1.08866
-1.1237
-1.15875
-1.19379
-1.22884
-1.26388
-1.29893
-1.33397
-1.36902
-1.40407
-1.43912
-1.47417
-1.50922
-1.54428
-1.57933
-1.61439
-1.64946
-1.68453
-1.7196
-1.75468
-1.78977
-1.82488
-1.85999
-1.89515
-1.93022
-0.0024803
-0.0373544
-0.0723773
-0.107414
-0.142451
-0.177493
-0.212537
-0.247583
-0.282629
-0.317675
-0.352721
-0.387768
-0.422814
-0.45786
-0.492906
-0.527951
-0.562996
-0.598042
-0.633087
-0.668131
-0.703176
-0.73822
-0.773265
-0.808309
-0.843353
-0.878397
-0.91344
-0.948484
-0.983528
-1.01857
-1.05362
-1.08866
-1.1237
-1.15875
-1.19379
-1.22884
-1.26388
-1.29893
-1.33397
-1.36902
-1.40407
-1.43912
-1.47417
-1.50922
-1.54428
-1.57933
-1.61439
-1.64946
-1.68453
-1.7196
-1.75468
-1.78977
-1.82488
-1.85999
-1.89514
-1.93021
-0.00247722
-0.0373608
-0.0723801
-0.107416
-0.142453
-0.177494
-0.212538
-0.247583
-0.282629
-0.317675
-0.352721
-0.387768
-0.422814
-0.45786
-0.492905
-0.527951
-0.562996
-0.598041
-0.633086
-0.668131
-0.703176
-0.73822
-0.773264
-0.808309
-0.843353
-0.878396
-0.91344
-0.948484
-0.983528
-1.01857
-1.05362
-1.08866
-1.1237
-1.15875
-1.19379
-1.22884
-1.26388
-1.29893
-1.33397
-1.36902
-1.40407
-1.43912
-1.47417
-1.50922
-1.54428
-1.57933
-1.61439
-1.64946
-1.68453
-1.7196
-1.75468
-1.78977
-1.82487
-1.85998
-1.89514
-1.9302
-0.00247227
-0.0373668
-0.0723831
-0.107418
-0.142454
-0.177495
-0.212538
-0.247583
-0.282629
-0.317675
-0.352721
-0.387768
-0.422814
-0.45786
-0.492905
-0.527951
-0.562996
-0.598041
-0.633086
-0.668131
-0.703176
-0.73822
-0.773264
-0.808308
-0.843352
-0.878396
-0.91344
-0.948484
-0.983528
-1.01857
-1.05362
-1.08866
-1.1237
-1.15875
-1.19379
-1.22884
-1.26388
-1.29893
-1.33397
-1.36902
-1.40407
-1.43912
-1.47417
-1.50922
-1.54428
-1.57933
-1.61439
-1.64946
-1.68452
-1.7196
-1.75468
-1.78977
-1.82487
-1.85998
-1.89513
-1.9302
-0.00246587
-0.0373723
-0.0723861
-0.10742
-0.142455
-0.177496
-0.212539
-0.247584
-0.282629
-0.317675
-0.352721
-0.387768
-0.422814
-0.457859
-0.492905
-0.527951
-0.562996
-0.598041
-0.633086
-0.668131
-0.703175
-0.73822
-0.773264
-0.808308
-0.843352
-0.878396
-0.91344
-0.948484
-0.983527
-1.01857
-1.05361
-1.08866
-1.1237
-1.15875
-1.19379
-1.22884
-1.26388
-1.29893
-1.33397
-1.36902
-1.40407
-1.43912
-1.47417
-1.50922
-1.54427
-1.57933
-1.61439
-1.64946
-1.68452
-1.7196
-1.75468
-1.78977
-1.82487
-1.85998
-1.89512
-1.93019
-0.00245863
-0.0373771
-0.0723891
-0.107422
-0.142457
-0.177497
-0.21254
-0.247584
-0.28263
-0.317676
-0.352722
-0.387768
-0.422814
-0.457859
-0.492905
-0.527951
-0.562996
-0.598041
-0.633086
-0.668131
-0.703175
-0.73822
-0.773264
-0.808308
-0.843352
-0.878396
-0.91344
-0.948484
-0.983527
-1.01857
-1.05361
-1.08866
-1.1237
-1.15875
-1.19379
-1.22884
-1.26388
-1.29893
-1.33397
-1.36902
-1.40407
-1.43912
-1.47417
-1.50922
-1.54427
-1.57933
-1.61439
-1.64945
-1.68452
-1.7196
-1.75468
-1.78976
-1.82487
-1.85997
-1.89512
-1.93018
-0.00245126
-0.0373811
-0.0723921
-0.107424
-0.142459
-0.177498
-0.212541
-0.247585
-0.28263
-0.317676
-0.352722
-0.387768
-0.422814
-0.457859
-0.492905
-0.52795
-0.562996
-0.598041
-0.633086
-0.66813
-0.703175
-0.738219
-0.773264
-0.808308
-0.843352
-0.878396
-0.91344
-0.948483
-0.983527
-1.01857
-1.05361
-1.08866
-1.1237
-1.15875
-1.19379
-1.22884
-1.26388
-1.29893
-1.33397
-1.36902
-1.40407
-1.43912
-1.47417
-1.50922
-1.54427
-1.57933
-1.61439
-1.64945
-1.68452
-1.71959
-1.75467
-1.78976
-1.82486
-1.85997
-1.89511
-1.93017
-0.00244428
-0.0373845
-0.0723949
-0.107426
-0.14246
-0.1775
-0.212542
-0.247586
-0.282631
-0.317676
-0.352722
-0.387768
-0.422814
-0.457859
-0.492905
-0.52795
-0.562996
-0.598041
-0.633085
-0.66813
-0.703175
-0.738219
-0.773263
-0.808308
-0.843352
-0.878395
-0.913439
-0.948483
-0.983527
-1.01857
-1.05361
-1.08866
-1.1237
-1.15875
-1.19379
-1.22884
-1.26388
-1.29893
-1.33397
-1.36902
-1.40407
-1.43912
-1.47417
-1.50922
-1.54427
-1.57933
-1.61439
-1.64945
-1.68452
-1.71959
-1.75467
-1.78976
-1.82486
-1.85996
-1.8951
-1.93016
-0.00243781
-0.0373874
-0.0723976
-0.107428
-0.142462
-0.177501
-0.212543
-0.247587
-0.282632
-0.317677
-0.352723
-0.387768
-0.422814
-0.45786
-0.492905
-0.52795
-0.562996
-0.598041
-0.633085
-0.66813
-0.703175
-0.738219
-0.773263
-0.808307
-0.843351
-0.878395
-0.913439
-0.948483
-0.983527
-1.01857
-1.05361
-1.08866
-1.1237
-1.15875
-1.19379
-1.22883
-1.26388
-1.29893
-1.33397
-1.36902
-1.40407
-1.43912
-1.47417
-1.50922
-1.54427
-1.57933
-1.61439
-1.64945
-1.68452
-1.71959
-1.75467
-1.78976
-1.82485
-1.85995
-1.89509
-1.93015
-0.00243178
-0.0373898
-0.0724002
-0.10743
-0.142464
-0.177502
-0.212544
-0.247588
-0.282632
-0.317678
-0.352723
-0.387769
-0.422814
-0.45786
-0.492905
-0.52795
-0.562996
-0.598041
-0.633085
-0.66813
-0.703174
-0.738219
-0.773263
-0.808307
-0.843351
-0.878395
-0.913439
-0.948483
-0.983526
-1.01857
-1.05361
-1.08866
-1.1237
-1.15875
-1.19379
-1.22883
-1.26388
-1.29893
-1.33397
-1.36902
-1.40407
-1.43911
-1.47417
-1.50922
-1.54427
-1.57933
-1.61439
-1.64945
-1.68452
-1.71959
-1.75467
-1.78975
-1.82485
-1.85995
-1.89508
-1.93014
-0.00242607
-0.0373919
-0.0724026
-0.107432
-0.142465
-0.177504
-0.212545
-0.247589
-0.282633
-0.317678
-0.352724
-0.387769
-0.422815
-0.45786
-0.492905
-0.527951
-0.562996
-0.598041
-0.633085
-0.66813
-0.703174
-0.738219
-0.773263
-0.808307
-0.843351
-0.878395
-0.913439
-0.948482
-0.983526
-1.01857
-1.05361
-1.08866
-1.1237
-1.15875
-1.19379
-1.22883
-1.26388
-1.29892
-1.33397
-1.36902
-1.40407
-1.43911
-1.47416
-1.50922
-1.54427
-1.57933
-1.61439
-1.64945
-1.68451
-1.71959
-1.75466
-1.78975
-1.82484
-1.85994
-1.89507
-1.93013
-0.00242064
-0.0373936
-0.0724048
-0.107434
-0.142467
-0.177505
-0.212547
-0.24759
-0.282634
-0.317679
-0.352724
-0.38777
-0.422815
-0.45786
-0.492906
-0.527951
-0.562996
-0.598041
-0.633086
-0.66813
-0.703175
-0.738219
-0.773263
-0.808307
-0.843351
-0.878395
-0.913439
-0.948482
-0.983526
-1.01857
-1.05361
-1.08866
-1.1237
-1.15874
-1.19379
-1.22883
-1.26388
-1.29892
-1.33397
-1.36902
-1.40406
-1.43911
-1.47416
-1.50922
-1.54427
-1.57932
-1.61438
-1.64945
-1.68451
-1.71958
-1.75466
-1.78974
-1.82484
-1.85993
-1.89505
-1.93012
-0.00241546
-0.037395
-0.0724068
-0.107435
-0.142469
-0.177507
-0.212548
-0.247591
-0.282635
-0.317679
-0.352725
-0.38777
-0.422815
-0.457861
-0.492906
-0.527951
-0.562996
-0.598041
-0.633086
-0.66813
-0.703175
-0.738219
-0.773263
-0.808307
-0.843351
-0.878395
-0.913438
-0.948482
-0.983526
-1.01857
-1.05361
-1.08866
-1.1237
-1.15874
-1.19379
-1.22883
-1.26388
-1.29892
-1.33397
-1.36902
-1.40406
-1.43911
-1.47416
-1.50921
-1.54427
-1.57932
-1.61438
-1.64944
-1.68451
-1.71958
-1.75466
-1.78974
-1.82483
-1.85992
-1.89504
-1.9301
-0.00241052
-0.0373961
-0.0724086
-0.107437
-0.14247
-0.177508
-0.212549
-0.247592
-0.282635
-0.31768
-0.352725
-0.38777
-0.422816
-0.457861
-0.492906
-0.527951
-0.562996
-0.598041
-0.633086
-0.66813
-0.703175
-0.738219
-0.773263
-0.808307
-0.843351
-0.878395
-0.913438
-0.948482
-0.983526
-1.01857
-1.05361
-1.08866
-1.1237
-1.15874
-1.19379
-1.22883
-1.26388
-1.29892
-1.33397
-1.36902
-1.40406
-1.43911
-1.47416
-1.50921
-1.54427
-1.57932
-1.61438
-1.64944
-1.68451
-1.71958
-1.75465
-1.78973
-1.82482
-1.85992
-1.89503
-1.93009
-0.00240582
-0.0373969
-0.0724103
-0.107438
-0.142472
-0.177509
-0.21255
-0.247592
-0.282636
-0.317681
-0.352726
-0.387771
-0.422816
-0.457861
-0.492906
-0.527952
-0.562997
-0.598041
-0.633086
-0.668131
-0.703175
-0.738219
-0.773263
-0.808307
-0.843351
-0.878395
-0.913439
-0.948482
-0.983526
-1.01857
-1.05361
-1.08866
-1.1237
-1.15874
-1.19379
-1.22883
-1.26388
-1.29892
-1.33397
-1.36902
-1.40406
-1.43911
-1.47416
-1.50921
-1.54427
-1.57932
-1.61438
-1.64944
-1.6845
-1.71957
-1.75465
-1.78973
-1.82482
-1.85991
-1.89501
-1.93008
-0.00240136
-0.0373975
-0.0724118
-0.10744
-0.142473
-0.17751
-0.212551
-0.247593
-0.282637
-0.317681
-0.352726
-0.387771
-0.422816
-0.457862
-0.492907
-0.527952
-0.562997
-0.598041
-0.633086
-0.668131
-0.703175
-0.738219
-0.773263
-0.808307
-0.843351
-0.878395
-0.913439
-0.948482
-0.983526
-1.01857
-1.05361
-1.08866
-1.1237
-1.15874
-1.19379
-1.22883
-1.26388
-1.29892
-1.33397
-1.36901
-1.40406
-1.43911
-1.47416
-1.50921
-1.54426
-1.57932
-1.61438
-1.64944
-1.6845
-1.71957
-1.75464
-1.78972
-1.82481
-1.8599
-1.895
-1.93006
-0.00239711
-0.0373979
-0.0724132
-0.107441
-0.142474
-0.177512
-0.212552
-0.247594
-0.282637
-0.317682
-0.352726
-0.387771
-0.422817
-0.457862
-0.492907
-0.527952
-0.562997
-0.598042
-0.633086
-0.668131
-0.703175
-0.738219
-0.773263
-0.808307
-0.843351
-0.878395
-0.913439
-0.948482
-0.983526
-1.01857
-1.05361
-1.08866
-1.1237
-1.15874
-1.19379
-1.22883
-1.26388
-1.29892
-1.33397
-1.36901
-1.40406
-1.43911
-1.47416
-1.50921
-1.54426
-1.57932
-1.61437
-1.64943
-1.6845
-1.71957
-1.75464
-1.78972
-1.8248
-1.85989
-1.89499
-1.93005
-0.00239307
-0.037398
-0.0724144
-0.107443
-0.142476
-0.177513
-0.212553
-0.247595
-0.282638
-0.317682
-0.352727
-0.387772
-0.422817
-0.457862
-0.492907
-0.527952
-0.562997
-0.598042
-0.633086
-0.668131
-0.703175
-0.738219
-0.773263
-0.808307
-0.843351
-0.878395
-0.913439
-0.948482
-0.983526
-1.01857
-1.05361
-1.08866
-1.1237
-1.15874
-1.19379
-1.22883
-1.26388
-1.29892
-1.33397
-1.36901
-1.40406
-1.43911
-1.47416
-1.50921
-1.54426
-1.57932
-1.61437
-1.64943
-1.6845
-1.71956
-1.75463
-1.78971
-1.82479
-1.85988
-1.89497
-1.93003
-0.00238923
-0.037398
-0.0724155
-0.107444
-0.142477
-0.177514
-0.212554
-0.247595
-0.282639
-0.317683
-0.352727
-0.387772
-0.422817
-0.457862
-0.492907
-0.527952
-0.562997
-0.598042
-0.633086
-0.668131
-0.703175
-0.738219
-0.773264
-0.808307
-0.843351
-0.878395
-0.913439
-0.948482
-0.983526
-1.01857
-1.05361
-1.08866
-1.1237
-1.15874
-1.19379
-1.22883
-1.26388
-1.29892
-1.33397
-1.36901
-1.40406
-1.43911
-1.47416
-1.50921
-1.54426
-1.57931
-1.61437
-1.64943
-1.68449
-1.71956
-1.75463
-1.7897
-1.82478
-1.85986
-1.89496
-1.93001
-0.00238557
-0.0373979
-0.0724164
-0.107445
-0.142478
-0.177515
-0.212554
-0.247596
-0.282639
-0.317683
-0.352728
-0.387772
-0.422817
-0.457862
-0.492907
-0.527952
-0.562997
-0.598042
-0.633086
-0.668131
-0.703175
-0.738219
-0.773264
-0.808307
-0.843351
-0.878395
-0.913439
-0.948482
-0.983526
-1.01857
-1.05361
-1.08866
-1.1237
-1.15874
-1.19379
-1.22883
-1.26388
-1.29892
-1.33397
-1.36901
-1.40406
-1.43911
-1.47416
-1.50921
-1.54426
-1.57931
-1.61437
-1.64943
-1.68449
-1.71955
-1.75462
-1.7897
-1.82477
-1.85985
-1.89494
-1.93
-0.0023821
-0.0373975
-0.0724173
-0.107446
-0.142479
-0.177516
-0.212555
-0.247597
-0.28264
-0.317683
-0.352728
-0.387773
-0.422817
-0.457862
-0.492907
-0.527952
-0.562997
-0.598042
-0.633086
-0.668131
-0.703175
-0.738219
-0.773263
-0.808307
-0.843351
-0.878395
-0.913439
-0.948482
-0.983526
-1.01857
-1.05361
-1.08866
-1.1237
-1.15874
-1.19379
-1.22883
-1.26388
-1.29892
-1.33397
-1.36901
-1.40406
-1.43911
-1.47415
-1.5092
-1.54426
-1.57931
-1.61436
-1.64942
-1.68448
-1.71955
-1.75462
-1.78969
-1.82476
-1.85984
-1.89492
-1.92998
-0.00237879
-0.0373971
-0.072418
-0.107447
-0.14248
-0.177517
-0.212556
-0.247598
-0.28264
-0.317684
-0.352728
-0.387773
-0.422818
-0.457862
-0.492907
-0.527952
-0.562997
-0.598042
-0.633086
-0.668131
-0.703175
-0.738219
-0.773263
-0.808307
-0.843351
-0.878395
-0.913438
-0.948482
-0.983526
-1.01857
-1.05361
-1.08866
-1.1237
-1.15874
-1.19379
-1.22883
-1.26388
-1.29892
-1.33397
-1.36901
-1.40406
-1.43911
-1.47415
-1.5092
-1.54425
-1.57931
-1.61436
-1.64942
-1.68448
-1.71954
-1.75461
-1.78968
-1.82475
-1.85983
-1.89491
-1.92996
-0.00237563
-0.0373965
-0.0724187
-0.107448
-0.142481
-0.177518
-0.212557
-0.247598
-0.282641
-0.317684
-0.352728
-0.387773
-0.422818
-0.457863
-0.492907
-0.527952
-0.562997
-0.598042
-0.633086
-0.668131
-0.703175
-0.738219
-0.773263
-0.808307
-0.843351
-0.878395
-0.913438
-0.948482
-0.983525
-1.01857
-1.05361
-1.08866
-1.1237
-1.15874
-1.19379
-1.22883
-1.26387
-1.29892
-1.33396
-1.36901
-1.40406
-1.4391
-1.47415
-1.5092
-1.54425
-1.5793
-1.61436
-1.64942
-1.68448
-1.71954
-1.7546
-1.78967
-1.82474
-1.85981
-1.89489
-1.92994
-0.00237262
-0.0373959
-0.0724192
-0.107449
-0.142482
-0.177519
-0.212558
-0.247599
-0.282641
-0.317685
-0.352729
-0.387773
-0.422818
-0.457863
-0.492907
-0.527952
-0.562997
-0.598042
-0.633086
-0.668131
-0.703175
-0.738219
-0.773263
-0.808307
-0.843351
-0.878395
-0.913438
-0.948482
-0.983525
-1.01857
-1.05361
-1.08866
-1.1237
-1.15874
-1.19379
-1.22883
-1.26387
-1.29892
-1.33396
-1.36901
-1.40406
-1.4391
-1.47415
-1.5092
-1.54425
-1.5793
-1.61436
-1.64941
-1.68447
-1.71953
-1.7546
-1.78966
-1.82473
-1.8598
-1.89487
-1.92992
-0.00236975
-0.0373952
-0.0724197
-0.107449
-0.142483
-0.177519
-0.212558
-0.247599
-0.282642
-0.317685
-0.352729
-0.387773
-0.422818
-0.457863
-0.492908
-0.527952
-0.562997
-0.598042
-0.633086
-0.668131
-0.703175
-0.738219
-0.773263
-0.808307
-0.843351
-0.878395
-0.913438
-0.948482
-0.983525
-1.01857
-1.05361
-1.08866
-1.1237
-1.15874
-1.19379
-1.22883
-1.26387
-1.29892
-1.33396
-1.36901
-1.40405
-1.4391
-1.47415
-1.5092
-1.54425
-1.5793
-1.61435
-1.64941
-1.68447
-1.71953
-1.75459
-1.78965
-1.82472
-1.85979
-1.89485
-1.9299
-0.00236701
-0.0373944
-0.07242
-0.10745
-0.142484
-0.17752
-0.212559
-0.2476
-0.282642
-0.317685
-0.352729
-0.387773
-0.422818
-0.457863
-0.492908
-0.527952
-0.562997
-0.598042
-0.633086
-0.668131
-0.703175
-0.738219
-0.773263
-0.808307
-0.843351
-0.878394
-0.913438
-0.948481
-0.983525
-1.01857
-1.05361
-1.08865
-1.1237
-1.15874
-1.19379
-1.22883
-1.26387
-1.29892
-1.33396
-1.36901
-1.40405
-1.4391
-1.47415
-1.5092
-1.54425
-1.5793
-1.61435
-1.6494
-1.68446
-1.71952
-1.75458
-1.78964
-1.82471
-1.85977
-1.89483
-1.92988
-0.00236438
-0.0373935
-0.0724203
-0.107451
-0.142485
-0.177521
-0.21256
-0.247601
-0.282643
-0.317686
-0.352729
-0.387774
-0.422818
-0.457863
-0.492908
-0.527952
-0.562997
-0.598042
-0.633086
-0.66813
-0.703175
-0.738219
-0.773263
-0.808307
-0.843351
-0.878394
-0.913438
-0.948481
-0.983525
-1.01857
-1.05361
-1.08865
-1.1237
-1.15874
-1.19378
-1.22883
-1.26387
-1.29892
-1.33396
-1.36901
-1.40405
-1.4391
-1.47415
-1.50919
-1.54424
-1.57929
-1.61434
-1.6494
-1.68445
-1.71951
-1.75457
-1.78963
-1.82469
-1.85975
-1.89481
-1.92986
-0.00236187
-0.0373927
-0.0724205
-0.107451
-0.142485
-0.177522
-0.212561
-0.247601
-0.282643
-0.317686
-0.35273
-0.387774
-0.422818
-0.457863
-0.492908
-0.527952
-0.562997
-0.598042
-0.633086
-0.66813
-0.703175
-0.738219
-0.773263
-0.808307
-0.84335
-0.878394
-0.913438
-0.948481
-0.983524
-1.01857
-1.05361
-1.08865
-1.1237
-1.15874
-1.19378
-1.22883
-1.26387
-1.29892
-1.33396
-1.36901
-1.40405
-1.4391
-1.47414
-1.50919
-1.54424
-1.57929
-1.61434
-1.64939
-1.68445
-1.7195
-1.75456
-1.78962
-1.82468
-1.85974
-1.89479
-1.92984
-0.00235946
-0.0373918
-0.0724207
-0.107452
-0.142486
-0.177523
-0.212561
-0.247602
-0.282644
-0.317686
-0.35273
-0.387774
-0.422818
-0.457863
-0.492908
-0.527952
-0.562997
-0.598041
-0.633086
-0.66813
-0.703175
-0.738219
-0.773263
-0.808306
-0.84335
-0.878394
-0.913437
-0.948481
-0.983524
-1.01857
-1.05361
-1.08865
-1.1237
-1.15874
-1.19378
-1.22883
-1.26387
-1.29891
-1.33396
-1.369
-1.40405
-1.43909
-1.47414
-1.50919
-1.54424
-1.57929
-1.61434
-1.64939
-1.68444
-1.7195
-1.75455
-1.78961
-1.82467
-1.85972
-1.89477
-1.92982
-0.00235715
-0.037391
-0.0724208
-0.107452
-0.142487
-0.177523
-0.212562
-0.247602
-0.282644
-0.317687
-0.35273
-0.387774
-0.422818
-0.457863
-0.492908
-0.527952
-0.562997
-0.598041
-0.633086
-0.66813
-0.703174
-0.738219
-0.773262
-0.808306
-0.84335
-0.878394
-0.913437
-0.94848
-0.983524
-1.01857
-1.05361
-1.08865
-1.1237
-1.15874
-1.19378
-1.22883
-1.26387
-1.29891
-1.33396
-1.369
-1.40405
-1.43909
-1.47414
-1.50919
-1.54423
-1.57928
-1.61433
-1.64938
-1.68443
-1.71949
-1.75454
-1.7896
-1.82465
-1.8597
-1.89475
-1.92979
-0.00235492
-0.0373901
-0.0724209
-0.107453
-0.142487
-0.177524
-0.212563
-0.247603
-0.282645
-0.317687
-0.352731
-0.387774
-0.422819
-0.457863
-0.492908
-0.527952
-0.562997
-0.598041
-0.633086
-0.66813
-0.703174
-0.738218
-0.773262
-0.808306
-0.84335
-0.878393
-0.913437
-0.94848
-0.983523
-1.01857
-1.05361
-1.08865
-1.1237
-1.15874
-1.19378
-1.22883
-1.26387
-1.29891
-1.33396
-1.369
-1.40405
-1.43909
-1.47414
-1.50918
-1.54423
-1.57928
-1.61433
-1.64938
-1.68443
-1.71948
-1.75453
-1.78958
-1.82464
-1.85969
-1.89473
-1.92977
-0.00235279
-0.0373893
-0.0724209
-0.107453
-0.142488
-0.177525
-0.212563
-0.247603
-0.282645
-0.317688
-0.352731
-0.387775
-0.422819
-0.457863
-0.492908
-0.527952
-0.562997
-0.598041
-0.633086
-0.66813
-0.703174
-0.738218
-0.773262
-0.808306
-0.84335
-0.878393
-0.913437
-0.94848
-0.983523
-1.01857
-1.05361
-1.08865
-1.1237
-1.15874
-1.19378
-1.22882
-1.26387
-1.29891
-1.33396
-1.369
-1.40404
-1.43909
-1.47413
-1.50918
-1.54423
-1.57927
-1.61432
-1.64937
-1.68442
-1.71947
-1.75452
-1.78957
-1.82462
-1.85967
-1.89471
-1.92975
-0.00235074
-0.0373886
-0.072421
-0.107454
-0.142488
-0.177525
-0.212564
-0.247604
-0.282645
-0.317688
-0.352731
-0.387775
-0.422819
-0.457863
-0.492908
-0.527952
-0.562997
-0.598041
-0.633086
-0.66813
-0.703174
-0.738218
-0.773262
-0.808306
-0.843349
-0.878393
-0.913436
-0.94848
-0.983523
-1.01857
-1.05361
-1.08865
-1.12369
-1.15874
-1.19378
-1.22882
-1.26387
-1.29891
-1.33395
-1.369
-1.40404
-1.43909
-1.47413
-1.50918
-1.54422
-1.57927
-1.61432
-1.64936
-1.68441
-1.71946
-1.75451
-1.78956
-1.82461
-1.85965
-1.89469
-1.92972
-0.00234881
-0.037388
-0.072421
-0.107454
-0.142489
-0.177526
-0.212564
-0.247605
-0.282646
-0.317688
-0.352731
-0.387775
-0.422819
-0.457863
-0.492908
-0.527952
-0.562997
-0.598041
-0.633086
-0.66813
-0.703174
-0.738218
-0.773262
-0.808306
-0.843349
-0.878393
-0.913436
-0.948479
-0.983523
-1.01857
-1.05361
-1.08865
-1.12369
-1.15874
-1.19378
-1.22882
-1.26387
-1.29891
-1.33395
-1.369
-1.40404
-1.43908
-1.47413
-1.50917
-1.54422
-1.57926
-1.61431
-1.64936
-1.6844
-1.71945
-1.7545
-1.78954
-1.82459
-1.85963
-1.89467
-1.9297
-0.00234701
-0.0373874
-0.0724211
-0.107454
-0.142489
-0.177526
-0.212565
-0.247605
-0.282646
-0.317689
-0.352732
-0.387775
-0.422819
-0.457864
-0.492908
-0.527952
-0.562997
-0.598041
-0.633086
-0.66813
-0.703174
-0.738218
-0.773262
-0.808306
-0.843349
-0.878393
-0.913436
-0.948479
-0.983522
-1.01857
-1.05361
-1.08865
-1.12369
-1.15874
-1.19378
-1.22882
-1.26386
-1.29891
-1.33395
-1.36899
-1.40404
-1.43908
-1.47412
-1.50917
-1.54421
-1.57926
-1.6143
-1.64935
-1.68439
-1.71944
-1.75449
-1.78953
-1.82457
-1.85961
-1.89464
-1.92968
-0.00234543
-0.037387
-0.0724211
-0.107454
-0.14249
-0.177527
-0.212565
-0.247605
-0.282647
-0.317689
-0.352732
-0.387776
-0.42282
-0.457864
-0.492908
-0.527953
-0.562997
-0.598041
-0.633086
-0.66813
-0.703174
-0.738218
-0.773262
-0.808305
-0.843349
-0.878392
-0.913436
-0.948479
-0.983522
-1.01856
-1.05361
-1.08865
-1.12369
-1.15874
-1.19378
-1.22882
-1.26386
-1.29891
-1.33395
-1.36899
-1.40403
-1.43908
-1.47412
-1.50916
-1.54421
-1.57925
-1.6143
-1.64934
-1.68439
-1.71943
-1.75447
-1.78951
-1.82455
-1.85959
-1.89462
-1.92965
-0.00234416
-0.0373866
-0.0724211
-0.107455
-0.14249
-0.177527
-0.212566
-0.247606
-0.282647
-0.317689
-0.352732
-0.387776
-0.42282
-0.457864
-0.492908
-0.527953
-0.562997
-0.598041
-0.633086
-0.66813
-0.703174
-0.738218
-0.773262
-0.808305
-0.843349
-0.878392
-0.913436
-0.948479
-0.983522
-1.01856
-1.05361
-1.08865
-1.12369
-1.15874
-1.19378
-1.22882
-1.26386
-1.2989
-1.33395
-1.36899
-1.40403
-1.43908
-1.47412
-1.50916
-1.5442
-1.57925
-1.61429
-1.64933
-1.68438
-1.71942
-1.75446
-1.7895
-1.82454
-1.85957
-1.8946
-1.92963
-0.00234337
-0.0373863
-0.0724211
-0.107455
-0.14249
-0.177527
-0.212566
-0.247606
-0.282647
-0.31769
-0.352733
-0.387776
-0.42282
-0.457864
-0.492908
-0.527953
-0.562997
-0.598041
-0.633086
-0.66813
-0.703174
-0.738218
-0.773262
-0.808305
-0.843349
-0.878392
-0.913435
-0.948478
-0.983521
-1.01856
-1.05361
-1.08865
-1.12369
-1.15873
-1.19378
-1.22882
-1.26386
-1.2989
-1.33395
-1.36899
-1.40403
-1.43907
-1.47411
-1.50916
-1.5442
-1.57924
-1.61428
-1.64932
-1.68437
-1.71941
-1.75445
-1.78948
-1.82452
-1.85955
-1.89457
-1.9296
-0.00234316
-0.0373861
-0.072421
-0.107455
-0.14249
-0.177528
-0.212566
-0.247606
-0.282648
-0.31769
-0.352733
-0.387776
-0.42282
-0.457864
-0.492908
-0.527953
-0.562997
-0.598042
-0.633086
-0.66813
-0.703174
-0.738218
-0.773262
-0.808305
-0.843349
-0.878392
-0.913435
-0.948478
-0.983521
-1.01856
-1.05361
-1.08865
-1.12369
-1.15873
-1.19378
-1.22882
-1.26386
-1.2989
-1.33394
-1.36899
-1.40403
-1.43907
-1.47411
-1.50915
-1.54419
-1.57924
-1.61428
-1.64932
-1.68436
-1.7194
-1.75443
-1.78947
-1.8245
-1.85953
-1.89455
-1.92957
-0.00234356
-0.037386
-0.0724209
-0.107455
-0.14249
-0.177528
-0.212567
-0.247607
-0.282648
-0.31769
-0.352733
-0.387776
-0.42282
-0.457864
-0.492909
-0.527953
-0.562997
-0.598042
-0.633086
-0.66813
-0.703174
-0.738218
-0.773262
-0.808305
-0.843349
-0.878392
-0.913435
-0.948478
-0.983521
-1.01856
-1.05361
-1.08865
-1.12369
-1.15873
-1.19377
-1.22882
-1.26386
-1.2989
-1.33394
-1.36898
-1.40402
-1.43907
-1.47411
-1.50915
-1.54419
-1.57923
-1.61427
-1.64931
-1.68435
-1.71938
-1.75442
-1.78945
-1.82448
-1.85951
-1.89453
-1.92955
-0.0023444
-0.0373859
-0.0724207
-0.107455
-0.14249
-0.177528
-0.212567
-0.247607
-0.282648
-0.31769
-0.352733
-0.387777
-0.42282
-0.457865
-0.492909
-0.527953
-0.562997
-0.598042
-0.633086
-0.66813
-0.703174
-0.738218
-0.773262
-0.808305
-0.843348
-0.878392
-0.913435
-0.948478
-0.98352
-1.01856
-1.05361
-1.08865
-1.12369
-1.15873
-1.19377
-1.22882
-1.26386
-1.2989
-1.33394
-1.36898
-1.40402
-1.43906
-1.4741
-1.50914
-1.54418
-1.57922
-1.61426
-1.6493
-1.68434
-1.71937
-1.75441
-1.78944
-1.82446
-1.85949
-1.8945
-1.92953
-0.00234552
-0.037386
-0.0724205
-0.107454
-0.14249
-0.177528
-0.212566
-0.247607
-0.282648
-0.31769
-0.352733
-0.387777
-0.422821
-0.457865
-0.492909
-0.527953
-0.562998
-0.598042
-0.633086
-0.66813
-0.703174
-0.738218
-0.773262
-0.808305
-0.843348
-0.878392
-0.913435
-0.948478
-0.98352
-1.01856
-1.05361
-1.08865
-1.12369
-1.15873
-1.19377
-1.22881
-1.26386
-1.2989
-1.33394
-1.36898
-1.40402
-1.43906
-1.4741
-1.50914
-1.54418
-1.57922
-1.61426
-1.64929
-1.68433
-1.71936
-1.75439
-1.78942
-1.82445
-1.85947
-1.89448
-1.9295
-0.00234678
-0.0373861
-0.0724203
-0.107454
-0.14249
-0.177527
-0.212566
-0.247607
-0.282648
-0.31769
-0.352733
-0.387777
-0.422821
-0.457865
-0.492909
-0.527953
-0.562998
-0.598042
-0.633086
-0.66813
-0.703174
-0.738218
-0.773262
-0.808305
-0.843348
-0.878392
-0.913435
-0.948477
-0.98352
-1.01856
-1.0536
-1.08865
-1.12369
-1.15873
-1.19377
-1.22881
-1.26385
-1.2989
-1.33394
-1.36898
-1.40402
-1.43906
-1.4741
-1.50914
-1.54417
-1.57921
-1.61425
-1.64929
-1.68432
-1.71935
-1.75438
-1.78941
-1.82443
-1.85945
-1.89446
-1.92948
-0.00234812
-0.0373864
-0.0724202
-0.107454
-0.14249
-0.177527
-0.212566
-0.247606
-0.282648
-0.31769
-0.352733
-0.387777
-0.422821
-0.457865
-0.492909
-0.527954
-0.562998
-0.598042
-0.633086
-0.66813
-0.703174
-0.738218
-0.773262
-0.808305
-0.843348
-0.878392
-0.913434
-0.948477
-0.98352
-1.01856
-1.0536
-1.08865
-1.12369
-1.15873
-1.19377
-1.22881
-1.26385
-1.29889
-1.33394
-1.36898
-1.40402
-1.43905
-1.47409
-1.50913
-1.54417
-1.57921
-1.61424
-1.64928
-1.68431
-1.71934
-1.75437
-1.7894
-1.82442
-1.85944
-1.89444
-1.92946
-0.00234953
-0.0373868
-0.07242
-0.107454
-0.142489
-0.177527
-0.212566
-0.247606
-0.282648
-0.31769