/*--------------------------------*- C++ -*----------------------------------*\
  =========                 |
  \\      /  F ield         | OpenFOAM: The Open Source CFD Toolbox
   \\    /   O peration     | Website:  https://openfoam.org
    \\  /    A nd           | Version:  6
     \\/     M anipulation  |
\*---------------------------------------------------------------------------*/
FoamFile
{
    version     2.0;
    format      ascii;
    class       volScalarField;
    location    "0";
    object      p;
}
// * * * * * * * * * * * * * * * * * * * * * * * * * * * * * * * * * * * * * //

dimensions      [0 2 -2 0 0 0 0];

internalField   nonuniform List<scalar> 
145945
(
3.80657e-06
3.80551e-06
3.80459e-06
3.80368e-06
3.80296e-06
3.8024e-06
3.802e-06
3.80175e-06
3.80164e-06
3.80168e-06
3.80187e-06
3.80221e-06
3.80271e-06
3.80336e-06
3.80422e-06
3.80517e-06
3.80631e-06
3.80551e-06
3.80467e-06
3.80381e-06
3.80295e-06
3.80226e-06
3.80171e-06
3.80133e-06
3.80108e-06
3.80097e-06
3.80101e-06
3.8012e-06
3.80152e-06
3.802e-06
3.80263e-06
3.80343e-06
3.80434e-06
3.80525e-06
3.80459e-06
3.80381e-06
3.80297e-06
3.80216e-06
3.8015e-06
3.80098e-06
3.80061e-06
3.80038e-06
3.80028e-06
3.80031e-06
3.80049e-06
3.8008e-06
3.80124e-06
3.80184e-06
3.8026e-06
3.80349e-06
3.80433e-06
3.80368e-06
3.80295e-06
3.80216e-06
3.8014e-06
3.80077e-06
3.80028e-06
3.79993e-06
3.79971e-06
3.79961e-06
3.79964e-06
3.79981e-06
3.8001e-06
3.80052e-06
3.80109e-06
3.8018e-06
3.80264e-06
3.80342e-06
3.80296e-06
3.80226e-06
3.8015e-06
3.80077e-06
3.80017e-06
3.7997e-06
3.79937e-06
3.79915e-06
3.79906e-06
3.79909e-06
3.79924e-06
3.79952e-06
3.79992e-06
3.80046e-06
3.80114e-06
3.80194e-06
3.8027e-06
3.8024e-06
3.80171e-06
3.80098e-06
3.80028e-06
3.7997e-06
3.79925e-06
3.79893e-06
3.79872e-06
3.79863e-06
3.79866e-06
3.79881e-06
3.79907e-06
3.79946e-06
3.79998e-06
3.80063e-06
3.8014e-06
3.80214e-06
3.802e-06
3.80133e-06
3.80061e-06
3.79993e-06
3.79937e-06
3.79893e-06
3.79861e-06
3.79841e-06
3.79832e-06
3.79835e-06
3.79849e-06
3.79875e-06
3.79912e-06
3.79963e-06
3.80026e-06
3.80101e-06
3.80173e-06
3.80175e-06
3.80108e-06
3.80038e-06
3.79971e-06
3.79915e-06
3.79872e-06
3.79841e-06
3.79821e-06
3.79813e-06
3.79815e-06
3.79829e-06
3.79854e-06
3.79891e-06
3.7994e-06
3.80003e-06
3.80077e-06
3.80148e-06
3.80164e-06
3.80097e-06
3.80028e-06
3.79961e-06
3.79906e-06
3.79863e-06
3.79832e-06
3.79813e-06
3.79804e-06
3.79806e-06
3.7982e-06
3.79845e-06
3.79882e-06
3.79931e-06
3.79993e-06
3.80066e-06
3.80137e-06
3.80168e-06
3.80101e-06
3.80032e-06
3.79964e-06
3.79909e-06
3.79866e-06
3.79835e-06
3.79815e-06
3.79806e-06
3.79809e-06
3.79823e-06
3.79848e-06
3.79885e-06
3.79934e-06
3.79996e-06
3.8007e-06
3.80141e-06
3.80187e-06
3.8012e-06
3.80049e-06
3.79981e-06
3.79924e-06
3.79881e-06
3.79849e-06
3.79829e-06
3.7982e-06
3.79823e-06
3.79837e-06
3.79863e-06
3.799e-06
3.7995e-06
3.80013e-06
3.80089e-06
3.80161e-06
3.80221e-06
3.80152e-06
3.8008e-06
3.8001e-06
3.79952e-06
3.79907e-06
3.79875e-06
3.79854e-06
3.79845e-06
3.79848e-06
3.79863e-06
3.79889e-06
3.79928e-06
3.79979e-06
3.80044e-06
3.80121e-06
3.80195e-06
3.80271e-06
3.802e-06
3.80124e-06
3.80052e-06
3.79992e-06
3.79946e-06
3.79912e-06
3.79891e-06
3.79882e-06
3.79885e-06
3.799e-06
3.79928e-06
3.79968e-06
3.80021e-06
3.80089e-06
3.80169e-06
3.80244e-06
3.80336e-06
3.80263e-06
3.80184e-06
3.80109e-06
3.80046e-06
3.79998e-06
3.79963e-06
3.7994e-06
3.79931e-06
3.79934e-06
3.7995e-06
3.79979e-06
3.80021e-06
3.80077e-06
3.80148e-06
3.80231e-06
3.80309e-06
3.80422e-06
3.80343e-06
3.8026e-06
3.8018e-06
3.80114e-06
3.80063e-06
3.80026e-06
3.80003e-06
3.79993e-06
3.79996e-06
3.80013e-06
3.80044e-06
3.80088e-06
3.80148e-06
3.80223e-06
3.80311e-06
3.80396e-06
3.80517e-06
3.80434e-06
3.80348e-06
3.80264e-06
3.80194e-06
3.8014e-06
3.80101e-06
3.80077e-06
3.80066e-06
3.8007e-06
3.80089e-06
3.80121e-06
3.80169e-06
3.80231e-06
3.80311e-06
3.80402e-06
3.80491e-06
3.80631e-06
3.80525e-06
3.80433e-06
3.80342e-06
3.8027e-06
3.80213e-06
3.80173e-06
3.80148e-06
3.80137e-06
3.80141e-06
3.80161e-06
3.80195e-06
3.80244e-06
3.80309e-06
3.80396e-06
3.80491e-06
3.80605e-06
3.76028e-06
3.75952e-06
3.75879e-06
3.75806e-06
3.75747e-06
3.75701e-06
3.75669e-06
3.75648e-06
3.75639e-06
3.75642e-06
3.75657e-06
3.75684e-06
3.75723e-06
3.75775e-06
3.75842e-06
3.75918e-06
3.75999e-06
3.75952e-06
3.75891e-06
3.75824e-06
3.75755e-06
3.75698e-06
3.75655e-06
3.75623e-06
3.75603e-06
3.75594e-06
3.75597e-06
3.75612e-06
3.75637e-06
3.75675e-06
3.75724e-06
3.75787e-06
3.75857e-06
3.75923e-06
3.75879e-06
3.75824e-06
3.7576e-06
3.75695e-06
3.75642e-06
3.756e-06
3.75571e-06
3.75552e-06
3.75543e-06
3.75546e-06
3.75559e-06
3.75583e-06
3.75618e-06
3.75665e-06
3.75723e-06
3.75791e-06
3.75851e-06
3.75806e-06
3.75755e-06
3.75695e-06
3.75635e-06
3.75584e-06
3.75545e-06
3.75517e-06
3.75498e-06
3.7549e-06
3.75492e-06
3.75505e-06
3.75528e-06
3.75561e-06
3.75604e-06
3.75659e-06
3.75722e-06
3.75777e-06
3.75747e-06
3.75699e-06
3.75642e-06
3.75584e-06
3.75536e-06
3.75498e-06
3.75471e-06
3.75454e-06
3.75446e-06
3.75448e-06
3.7546e-06
3.75481e-06
3.75512e-06
3.75554e-06
3.75606e-06
3.75666e-06
3.75718e-06
3.75701e-06
3.75655e-06
3.75601e-06
3.75545e-06
3.75498e-06
3.75462e-06
3.75436e-06
3.75419e-06
3.75411e-06
3.75413e-06
3.75425e-06
3.75445e-06
3.75475e-06
3.75515e-06
3.75565e-06
3.75622e-06
3.75672e-06
3.75669e-06
3.75623e-06
3.75571e-06
3.75517e-06
3.75471e-06
3.75436e-06
3.7541e-06
3.75394e-06
3.75386e-06
3.75388e-06
3.75399e-06
3.75419e-06
3.75448e-06
3.75487e-06
3.75535e-06
3.75591e-06
3.75639e-06
3.75648e-06
3.75603e-06
3.75552e-06
3.75498e-06
3.75454e-06
3.75419e-06
3.75394e-06
3.75377e-06
3.7537e-06
3.75372e-06
3.75383e-06
3.75402e-06
3.75431e-06
3.75469e-06
3.75516e-06
3.75571e-06
3.75618e-06
3.75639e-06
3.75594e-06
3.75543e-06
3.7549e-06
3.75446e-06
3.75411e-06
3.75386e-06
3.7537e-06
3.75363e-06
3.75364e-06
3.75375e-06
3.75395e-06
3.75423e-06
3.7546e-06
3.75508e-06
3.75562e-06
3.75609e-06
3.75642e-06
3.75597e-06
3.75546e-06
3.75492e-06
3.75448e-06
3.75413e-06
3.75388e-06
3.75372e-06
3.75364e-06
3.75366e-06
3.75377e-06
3.75396e-06
3.75425e-06
3.75463e-06
3.7551e-06
3.75565e-06
3.75612e-06
3.75657e-06
3.75612e-06
3.75559e-06
3.75505e-06
3.7546e-06
3.75425e-06
3.75399e-06
3.75383e-06
3.75375e-06
3.75377e-06
3.75388e-06
3.75408e-06
3.75437e-06
3.75475e-06
3.75524e-06
3.75579e-06
3.75628e-06
3.75684e-06
3.75637e-06
3.75583e-06
3.75528e-06
3.75481e-06
3.75445e-06
3.75419e-06
3.75402e-06
3.75395e-06
3.75396e-06
3.75408e-06
3.75428e-06
3.75458e-06
3.75498e-06
3.75548e-06
3.75605e-06
3.75655e-06
3.75723e-06
3.75675e-06
3.75618e-06
3.75561e-06
3.75512e-06
3.75475e-06
3.75448e-06
3.75431e-06
3.75423e-06
3.75425e-06
3.75437e-06
3.75458e-06
3.75489e-06
3.7553e-06
3.75582e-06
3.75642e-06
3.75694e-06
3.75775e-06
3.75724e-06
3.75665e-06
3.75604e-06
3.75554e-06
3.75515e-06
3.75487e-06
3.75469e-06
3.7546e-06
3.75463e-06
3.75475e-06
3.75498e-06
3.7553e-06
3.75574e-06
3.75628e-06
3.75691e-06
3.75746e-06
3.75842e-06
3.75786e-06
3.75723e-06
3.75659e-06
3.75606e-06
3.75565e-06
3.75535e-06
3.75516e-06
3.75508e-06
3.7551e-06
3.75524e-06
3.75548e-06
3.75582e-06
3.75628e-06
3.75687e-06
3.75754e-06
3.75814e-06
3.75918e-06
3.75857e-06
3.75791e-06
3.75722e-06
3.75666e-06
3.75622e-06
3.75591e-06
3.75571e-06
3.75562e-06
3.75565e-06
3.75579e-06
3.75605e-06
3.75642e-06
3.75691e-06
3.75754e-06
3.75824e-06
3.75889e-06
3.75999e-06
3.75923e-06
3.75851e-06
3.75777e-06
3.75718e-06
3.75672e-06
3.75639e-06
3.75618e-06
3.75609e-06
3.75612e-06
3.75628e-06
3.75655e-06
3.75694e-06
3.75746e-06
3.75814e-06
3.75889e-06
3.7597e-06
3.72536e-06
3.72501e-06
3.72469e-06
3.72436e-06
3.72408e-06
3.72385e-06
3.72368e-06
3.72356e-06
3.72351e-06
3.72352e-06
3.7236e-06
3.72374e-06
3.72394e-06
3.72419e-06
3.72448e-06
3.7248e-06
3.72516e-06
3.72501e-06
3.7247e-06
3.72438e-06
3.72405e-06
3.72377e-06
3.72354e-06
3.72337e-06
3.72325e-06
3.7232e-06
3.72321e-06
3.72329e-06
3.72343e-06
3.72363e-06
3.72388e-06
3.72417e-06
3.72449e-06
3.72481e-06
3.72469e-06
3.72438e-06
3.72405e-06
3.72372e-06
3.72343e-06
3.7232e-06
3.72303e-06
3.72291e-06
3.72286e-06
3.72287e-06
3.72295e-06
3.72309e-06
3.72329e-06
3.72354e-06
3.72383e-06
3.72417e-06
3.72449e-06
3.72436e-06
3.72405e-06
3.72372e-06
3.72338e-06
3.7231e-06
3.72287e-06
3.72269e-06
3.72258e-06
3.72253e-06
3.72254e-06
3.72262e-06
3.72276e-06
3.72295e-06
3.7232e-06
3.7235e-06
3.72384e-06
3.72416e-06
3.72408e-06
3.72377e-06
3.72343e-06
3.7231e-06
3.72282e-06
3.72258e-06
3.72241e-06
3.7223e-06
3.72225e-06
3.72226e-06
3.72233e-06
3.72247e-06
3.72266e-06
3.72292e-06
3.72321e-06
3.72356e-06
3.72388e-06
3.72385e-06
3.72354e-06
3.7232e-06
3.72287e-06
3.72258e-06
3.72235e-06
3.72218e-06
3.72207e-06
3.72202e-06
3.72203e-06
3.72211e-06
3.72224e-06
3.72243e-06
3.72268e-06
3.72298e-06
3.72333e-06
3.72365e-06
3.72368e-06
3.72337e-06
3.72303e-06
3.7227e-06
3.72241e-06
3.72218e-06
3.72201e-06
3.7219e-06
3.72185e-06
3.72186e-06
3.72193e-06
3.72207e-06
3.72226e-06
3.72251e-06
3.72281e-06
3.72315e-06
3.72348e-06
3.72356e-06
3.72325e-06
3.72291e-06
3.72258e-06
3.7223e-06
3.72207e-06
3.7219e-06
3.72179e-06
3.72174e-06
3.72175e-06
3.72182e-06
3.72196e-06
3.72215e-06
3.72239e-06
3.72269e-06
3.72304e-06
3.72336e-06
3.72351e-06
3.7232e-06
3.72286e-06
3.72253e-06
3.72225e-06
3.72202e-06
3.72185e-06
3.72174e-06
3.72168e-06
3.7217e-06
3.72177e-06
3.7219e-06
3.72209e-06
3.72234e-06
3.72264e-06
3.72299e-06
3.72331e-06
3.72352e-06
3.72321e-06
3.72287e-06
3.72254e-06
3.72226e-06
3.72203e-06
3.72186e-06
3.72175e-06
3.7217e-06
3.72171e-06
3.72178e-06
3.72192e-06
3.72211e-06
3.72235e-06
3.72265e-06
3.723e-06
3.72332e-06
3.7236e-06
3.72329e-06
3.72295e-06
3.72262e-06
3.72233e-06
3.72211e-06
3.72193e-06
3.72182e-06
3.72177e-06
3.72178e-06
3.72186e-06
3.72199e-06
3.72218e-06
3.72243e-06
3.72273e-06
3.72308e-06
3.7234e-06
3.72374e-06
3.72343e-06
3.72309e-06
3.72276e-06
3.72247e-06
3.72224e-06
3.72207e-06
3.72196e-06
3.7219e-06
3.72191e-06
3.72199e-06
3.72213e-06
3.72232e-06
3.72257e-06
3.72287e-06
3.72322e-06
3.72354e-06
3.72394e-06
3.72363e-06
3.72329e-06
3.72295e-06
3.72266e-06
3.72243e-06
3.72226e-06
3.72215e-06
3.72209e-06
3.72211e-06
3.72218e-06
3.72232e-06
3.72251e-06
3.72276e-06
3.72307e-06
3.72341e-06
3.72374e-06
3.72419e-06
3.72388e-06
3.72354e-06
3.7232e-06
3.72292e-06
3.72268e-06
3.72251e-06
3.72239e-06
3.72234e-06
3.72235e-06
3.72243e-06
3.72257e-06
3.72277e-06
3.72302e-06
3.72332e-06
3.72366e-06
3.72399e-06
3.72448e-06
3.72417e-06
3.72383e-06
3.7235e-06
3.72321e-06
3.72298e-06
3.72281e-06
3.72269e-06
3.72264e-06
3.72265e-06
3.72273e-06
3.72287e-06
3.72307e-06
3.72332e-06
3.72362e-06
3.72396e-06
3.72429e-06
3.7248e-06
3.72449e-06
3.72417e-06
3.72384e-06
3.72356e-06
3.72333e-06
3.72315e-06
3.72304e-06
3.72299e-06
3.723e-06
3.72308e-06
3.72322e-06
3.72341e-06
3.72366e-06
3.72396e-06
3.72428e-06
3.7246e-06
3.72516e-06
3.72481e-06
3.72449e-06
3.72416e-06
3.72388e-06
3.72365e-06
3.72348e-06
3.72336e-06
3.72331e-06
3.72332e-06
3.7234e-06
3.72354e-06
3.72374e-06
3.72399e-06
3.72429e-06
3.7246e-06
3.72496e-06
3.68454e-06
3.68437e-06
3.68425e-06
3.68412e-06
3.68401e-06
3.6839e-06
3.68382e-06
3.68376e-06
3.68374e-06
3.68374e-06
3.68377e-06
3.68384e-06
3.68392e-06
3.68402e-06
3.68413e-06
3.68424e-06
3.68439e-06
3.68437e-06
3.68421e-06
3.68408e-06
3.68394e-06
3.68382e-06
3.68371e-06
3.68362e-06
3.68356e-06
3.68353e-06
3.68354e-06
3.68357e-06
3.68364e-06
3.68373e-06
3.68384e-06
3.68396e-06
3.68408e-06
3.68422e-06
3.68425e-06
3.68408e-06
3.68393e-06
3.68378e-06
3.68365e-06
3.68353e-06
3.68344e-06
3.68338e-06
3.68335e-06
3.68335e-06
3.68339e-06
3.68346e-06
3.68356e-06
3.68368e-06
3.68381e-06
3.68395e-06
3.6841e-06
3.68412e-06
3.68394e-06
3.68378e-06
3.68362e-06
3.68348e-06
3.68335e-06
3.68326e-06
3.68319e-06
3.68316e-06
3.68317e-06
3.68321e-06
3.68328e-06
3.68339e-06
3.68351e-06
3.68366e-06
3.68381e-06
3.68397e-06
3.68401e-06
3.68382e-06
3.68365e-06
3.68348e-06
3.68333e-06
3.6832e-06
3.6831e-06
3.68303e-06
3.683e-06
3.683e-06
3.68304e-06
3.68312e-06
3.68323e-06
3.68337e-06
3.68352e-06
3.68369e-06
3.68386e-06
3.6839e-06
3.68371e-06
3.68353e-06
3.68335e-06
3.6832e-06
3.68306e-06
3.68296e-06
3.68289e-06
3.68286e-06
3.68286e-06
3.68291e-06
3.68298e-06
3.6831e-06
3.68324e-06
3.6834e-06
3.68358e-06
3.68376e-06
3.68382e-06
3.68362e-06
3.68344e-06
3.68326e-06
3.6831e-06
3.68296e-06
3.68285e-06
3.68278e-06
3.68275e-06
3.68276e-06
3.6828e-06
3.68288e-06
3.683e-06
3.68314e-06
3.68331e-06
3.68349e-06
3.68368e-06
3.68376e-06
3.68356e-06
3.68338e-06
3.68319e-06
3.68303e-06
3.68289e-06
3.68278e-06
3.68271e-06
3.68268e-06
3.68269e-06
3.68273e-06
3.68281e-06
3.68293e-06
3.68308e-06
3.68325e-06
3.68343e-06
3.68362e-06
3.68374e-06
3.68353e-06
3.68335e-06
3.68316e-06
3.683e-06
3.68286e-06
3.68275e-06
3.68268e-06
3.68265e-06
3.68265e-06
3.6827e-06
3.68278e-06
3.6829e-06
3.68305e-06
3.68322e-06
3.68341e-06
3.68359e-06
3.68374e-06
3.68354e-06
3.68335e-06
3.68317e-06
3.683e-06
3.68286e-06
3.68276e-06
3.68269e-06
3.68265e-06
3.68266e-06
3.6827e-06
3.68279e-06
3.6829e-06
3.68305e-06
3.68322e-06
3.68341e-06
3.6836e-06
3.68377e-06
3.68357e-06
3.68339e-06
3.68321e-06
3.68304e-06
3.68291e-06
3.6828e-06
3.68273e-06
3.6827e-06
3.6827e-06
3.68275e-06
3.68283e-06
3.68294e-06
3.68309e-06
3.68326e-06
3.68345e-06
3.68363e-06
3.68384e-06
3.68364e-06
3.68346e-06
3.68328e-06
3.68312e-06
3.68298e-06
3.68288e-06
3.68281e-06
3.68278e-06
3.68279e-06
3.68283e-06
3.68291e-06
3.68302e-06
3.68317e-06
3.68333e-06
3.68351e-06
3.68369e-06
3.68392e-06
3.68373e-06
3.68356e-06
3.68339e-06
3.68323e-06
3.6831e-06
3.683e-06
3.68293e-06
3.6829e-06
3.6829e-06
3.68294e-06
3.68302e-06
3.68313e-06
3.68327e-06
3.68343e-06
3.6836e-06
3.68377e-06
3.68402e-06
3.68384e-06
3.68368e-06
3.68351e-06
3.68337e-06
3.68324e-06
3.68314e-06
3.68308e-06
3.68305e-06
3.68305e-06
3.68309e-06
3.68317e-06
3.68327e-06
3.6834e-06
3.68355e-06
3.68371e-06
3.68387e-06
3.68413e-06
3.68396e-06
3.68381e-06
3.68366e-06
3.68352e-06
3.6834e-06
3.68331e-06
3.68325e-06
3.68322e-06
3.68322e-06
3.68326e-06
3.68333e-06
3.68343e-06
3.68355e-06
3.68369e-06
3.68383e-06
3.68399e-06
3.68424e-06
3.68408e-06
3.68395e-06
3.68381e-06
3.68369e-06
3.68358e-06
3.68349e-06
3.68343e-06
3.68341e-06
3.68341e-06
3.68345e-06
3.68351e-06
3.6836e-06
3.68371e-06
3.68383e-06
3.68395e-06
3.68409e-06
3.68439e-06
3.68422e-06
3.6841e-06
3.68397e-06
3.68386e-06
3.68376e-06
3.68368e-06
3.68362e-06
3.68359e-06
3.6836e-06
3.68363e-06
3.68369e-06
3.68378e-06
3.68387e-06
3.68399e-06
3.68409e-06
3.68424e-06
3.64606e-06
3.64599e-06
3.64595e-06
3.64591e-06
3.64587e-06
3.64583e-06
3.6458e-06
3.64577e-06
3.64576e-06
3.64576e-06
3.64577e-06
3.64579e-06
3.64581e-06
3.64584e-06
3.64586e-06
3.64589e-06
3.64593e-06
3.64599e-06
3.64593e-06
3.64588e-06
3.64583e-06
3.64578e-06
3.64574e-06
3.6457e-06
3.64568e-06
3.64566e-06
3.64566e-06
3.64567e-06
3.64569e-06
3.64572e-06
3.64575e-06
3.64579e-06
3.64582e-06
3.64587e-06
3.64595e-06
3.64588e-06
3.64581e-06
3.64575e-06
3.6457e-06
3.64565e-06
3.6456e-06
3.64557e-06
3.64556e-06
3.64556e-06
3.64557e-06
3.6456e-06
3.64563e-06
3.64567e-06
3.64572e-06
3.64577e-06
3.64582e-06
3.64591e-06
3.64583e-06
3.64575e-06
3.64567e-06
3.64561e-06
3.64555e-06
3.6455e-06
3.64547e-06
3.64545e-06
3.64545e-06
3.64547e-06
3.6455e-06
3.64554e-06
3.64559e-06
3.64565e-06
3.64571e-06
3.64578e-06
3.64587e-06
3.64578e-06
3.6457e-06
3.64561e-06
3.64553e-06
3.64547e-06
3.64541e-06
3.64538e-06
3.64536e-06
3.64536e-06
3.64538e-06
3.64541e-06
3.64546e-06
3.64553e-06
3.64559e-06
3.64567e-06
3.64575e-06
3.64583e-06
3.64574e-06
3.64565e-06
3.64555e-06
3.64547e-06
3.6454e-06
3.64534e-06
3.6453e-06
3.64528e-06
3.64528e-06
3.6453e-06
3.64534e-06
3.6454e-06
3.64546e-06
3.64554e-06
3.64563e-06
3.64571e-06
3.6458e-06
3.6457e-06
3.6456e-06
3.6455e-06
3.64541e-06
3.64534e-06
3.64528e-06
3.64524e-06
3.64522e-06
3.64522e-06
3.64524e-06
3.64528e-06
3.64534e-06
3.64542e-06
3.6455e-06
3.64559e-06
3.64567e-06
3.64577e-06
3.64568e-06
3.64557e-06
3.64547e-06
3.64538e-06
3.6453e-06
3.64524e-06
3.6452e-06
3.64518e-06
3.64518e-06
3.6452e-06
3.64524e-06
3.6453e-06
3.64538e-06
3.64547e-06
3.64556e-06
3.64565e-06
3.64576e-06
3.64566e-06
3.64556e-06
3.64545e-06
3.64536e-06
3.64528e-06
3.64522e-06
3.64518e-06
3.64516e-06
3.64516e-06
3.64518e-06
3.64522e-06
3.64529e-06
3.64536e-06
3.64545e-06
3.64555e-06
3.64563e-06
3.64576e-06
3.64566e-06
3.64556e-06
3.64545e-06
3.64536e-06
3.64528e-06
3.64522e-06
3.64518e-06
3.64516e-06
3.64516e-06
3.64518e-06
3.64522e-06
3.64529e-06
3.64536e-06
3.64545e-06
3.64554e-06
3.64563e-06
3.64577e-06
3.64567e-06
3.64557e-06
3.64547e-06
3.64538e-06
3.6453e-06
3.64524e-06
3.6452e-06
3.64518e-06
3.64518e-06
3.6452e-06
3.64525e-06
3.64531e-06
3.64538e-06
3.64546e-06
3.64556e-06
3.64564e-06
3.64579e-06
3.64569e-06
3.6456e-06
3.6455e-06
3.64541e-06
3.64534e-06
3.64528e-06
3.64524e-06
3.64522e-06
3.64522e-06
3.64525e-06
3.64529e-06
3.64534e-06
3.64541e-06
3.64549e-06
3.64558e-06
3.64566e-06
3.64581e-06
3.64572e-06
3.64563e-06
3.64554e-06
3.64546e-06
3.6454e-06
3.64534e-06
3.6453e-06
3.64529e-06
3.64529e-06
3.64531e-06
3.64534e-06
3.6454e-06
3.64546e-06
3.64553e-06
3.64561e-06
3.64569e-06
3.64584e-06
3.64576e-06
3.64567e-06
3.6456e-06
3.64553e-06
3.64547e-06
3.64542e-06
3.64538e-06
3.64536e-06
3.64536e-06
3.64538e-06
3.64541e-06
3.64546e-06
3.64551e-06
3.64558e-06
3.64564e-06
3.64571e-06
3.64586e-06
3.64579e-06
3.64572e-06
3.64565e-06
3.64559e-06
3.64554e-06
3.6455e-06
3.64547e-06
3.64545e-06
3.64545e-06
3.64546e-06
3.64549e-06
3.64553e-06
3.64558e-06
3.64562e-06
3.64567e-06
3.64574e-06
3.64589e-06
3.64582e-06
3.64577e-06
3.64571e-06
3.64567e-06
3.64563e-06
3.64559e-06
3.64556e-06
3.64555e-06
3.64555e-06
3.64556e-06
3.64558e-06
3.64561e-06
3.64564e-06
3.64567e-06
3.64571e-06
3.64576e-06
3.64593e-06
3.64587e-06
3.64582e-06
3.64578e-06
3.64575e-06
3.64571e-06
3.64567e-06
3.64565e-06
3.64564e-06
3.64563e-06
3.64564e-06
3.64566e-06
3.64569e-06
3.64571e-06
3.64574e-06
3.64576e-06
3.64581e-06
3.60731e-06
3.6073e-06
3.60732e-06
3.60733e-06
3.60735e-06
3.60736e-06
3.60736e-06
3.60736e-06
3.60735e-06
3.60735e-06
3.60734e-06
3.60734e-06
3.60732e-06
3.6073e-06
3.60727e-06
3.60723e-06
3.60722e-06
3.6073e-06
3.60729e-06
3.6073e-06
3.60731e-06
3.60732e-06
3.60733e-06
3.60732e-06
3.60732e-06
3.60731e-06
3.60731e-06
3.60731e-06
3.6073e-06
3.60729e-06
3.60727e-06
3.60725e-06
3.60722e-06
3.60721e-06
3.60732e-06
3.6073e-06
3.6073e-06
3.6073e-06
3.6073e-06
3.60729e-06
3.60729e-06
3.60728e-06
3.60727e-06
3.60727e-06
3.60727e-06
3.60727e-06
3.60726e-06
3.60725e-06
3.60724e-06
3.60723e-06
3.60723e-06
3.60733e-06
3.60731e-06
3.6073e-06
3.60729e-06
3.60728e-06
3.60727e-06
3.60725e-06
3.60724e-06
3.60723e-06
3.60723e-06
3.60723e-06
3.60723e-06
3.60724e-06
3.60724e-06
3.60724e-06
3.60724e-06
3.60724e-06
3.60735e-06
3.60732e-06
3.6073e-06
3.60728e-06
3.60726e-06
3.60724e-06
3.60722e-06
3.60721e-06
3.6072e-06
3.60719e-06
3.6072e-06
3.60721e-06
3.60722e-06
3.60723e-06
3.60724e-06
3.60725e-06
3.60726e-06
3.60736e-06
3.60733e-06
3.60729e-06
3.60727e-06
3.60724e-06
3.60721e-06
3.60719e-06
3.60717e-06
3.60716e-06
3.60716e-06
3.60717e-06
3.60718e-06
3.6072e-06
3.60721e-06
3.60723e-06
3.60725e-06
3.60727e-06
3.60736e-06
3.60732e-06
3.60729e-06
3.60725e-06
3.60722e-06
3.60719e-06
3.60717e-06
3.60715e-06
3.60714e-06
3.60713e-06
3.60714e-06
3.60716e-06
3.60718e-06
3.6072e-06
3.60722e-06
3.60725e-06
3.60727e-06
3.60736e-06
3.60732e-06
3.60728e-06
3.60724e-06
3.60721e-06
3.60717e-06
3.60715e-06
3.60713e-06
3.60712e-06
3.60711e-06
3.60712e-06
3.60714e-06
3.60716e-06
3.60719e-06
3.60721e-06
3.60724e-06
3.60727e-06
3.60735e-06
3.60731e-06
3.60727e-06
3.60723e-06
3.6072e-06
3.60716e-06
3.60714e-06
3.60712e-06
3.6071e-06
3.6071e-06
3.60711e-06
3.60713e-06
3.60715e-06
3.60718e-06
3.60721e-06
3.60724e-06
3.60727e-06
3.60735e-06
3.60731e-06
3.60727e-06
3.60723e-06
3.60719e-06
3.60716e-06
3.60713e-06
3.60711e-06
3.6071e-06
3.6071e-06
3.60711e-06
3.60713e-06
3.60715e-06
3.60718e-06
3.6072e-06
3.60723e-06
3.60726e-06
3.60734e-06
3.60731e-06
3.60727e-06
3.60723e-06
3.6072e-06
3.60717e-06
3.60714e-06
3.60712e-06
3.60711e-06
3.60711e-06
3.60712e-06
3.60713e-06
3.60715e-06
3.60718e-06
3.6072e-06
3.60723e-06
3.60726e-06
3.60734e-06
3.6073e-06
3.60727e-06
3.60723e-06
3.60721e-06
3.60718e-06
3.60716e-06
3.60714e-06
3.60713e-06
3.60713e-06
3.60713e-06
3.60714e-06
3.60716e-06
3.60718e-06
3.6072e-06
3.60722e-06
3.60725e-06
3.60732e-06
3.60729e-06
3.60726e-06
3.60724e-06
3.60722e-06
3.6072e-06
3.60718e-06
3.60716e-06
3.60715e-06
3.60715e-06
3.60715e-06
3.60716e-06
3.60718e-06
3.60719e-06
3.6072e-06
3.60721e-06
3.60723e-06
3.6073e-06
3.60727e-06
3.60726e-06
3.60724e-06
3.60723e-06
3.60721e-06
3.6072e-06
3.60719e-06
3.60718e-06
3.60718e-06
3.60718e-06
3.60718e-06
3.60719e-06
3.60719e-06
3.6072e-06
3.6072e-06
3.60721e-06
3.60727e-06
3.60725e-06
3.60724e-06
3.60724e-06
3.60724e-06
3.60723e-06
3.60722e-06
3.60722e-06
3.60721e-06
3.6072e-06
3.6072e-06
3.6072e-06
3.6072e-06
3.6072e-06
3.60719e-06
3.60717e-06
3.60718e-06
3.60723e-06
3.60722e-06
3.60723e-06
3.60724e-06
3.60725e-06
3.60725e-06
3.60725e-06
3.60724e-06
3.60724e-06
3.60723e-06
3.60723e-06
3.60722e-06
3.60721e-06
3.6072e-06
3.60717e-06
3.60715e-06
3.60714e-06
3.60722e-06
3.60721e-06
3.60723e-06
3.60724e-06
3.60726e-06
3.60727e-06
3.60727e-06
3.60727e-06
3.60727e-06
3.60726e-06
3.60726e-06
3.60725e-06
3.60723e-06
3.60721e-06
3.60718e-06
3.60714e-06
3.60713e-06
3.56897e-06
3.56899e-06
3.56901e-06
3.56905e-06
3.56908e-06
3.5691e-06
3.56911e-06
3.56911e-06
3.56911e-06
3.56911e-06
3.5691e-06
3.56908e-06
3.56906e-06
3.56902e-06
3.56898e-06
3.56893e-06
3.5689e-06
3.56899e-06
3.569e-06
3.56902e-06
3.56905e-06
3.56908e-06
3.56909e-06
3.56911e-06
3.56911e-06
3.56911e-06
3.5691e-06
3.56909e-06
3.56908e-06
3.56905e-06
3.56902e-06
3.56898e-06
3.56894e-06
3.56892e-06
3.56901e-06
3.56902e-06
3.56904e-06
3.56906e-06
3.56908e-06
3.56909e-06
3.5691e-06
3.5691e-06
3.5691e-06
3.5691e-06
3.56909e-06
3.56907e-06
3.56906e-06
3.56903e-06
3.569e-06
3.56896e-06
3.56894e-06
3.56905e-06
3.56905e-06
3.56906e-06
3.56907e-06
3.56909e-06
3.56909e-06
3.5691e-06
3.5691e-06
3.56909e-06
3.56909e-06
3.56908e-06
3.56907e-06
3.56906e-06
3.56904e-06
3.56902e-06
3.56899e-06
3.56897e-06
3.56908e-06
3.56908e-06
3.56908e-06
3.56909e-06
3.56909e-06
3.56909e-06
3.56909e-06
3.56909e-06
3.56908e-06
3.56908e-06
3.56908e-06
3.56907e-06
3.56906e-06
3.56905e-06
3.56904e-06
3.56902e-06
3.56901e-06
3.5691e-06
3.56909e-06
3.56909e-06
3.56909e-06
3.56909e-06
3.56909e-06
3.56909e-06
3.56908e-06
3.56908e-06
3.56907e-06
3.56907e-06
3.56907e-06
3.56906e-06
3.56906e-06
3.56905e-06
3.56904e-06
3.56903e-06
3.56911e-06
3.56911e-06
3.5691e-06
3.5691e-06
3.56909e-06
3.56909e-06
3.56908e-06
3.56907e-06
3.56907e-06
3.56906e-06
3.56906e-06
3.56906e-06
3.56906e-06
3.56906e-06
3.56905e-06
3.56905e-06
3.56904e-06
3.56911e-06
3.56911e-06
3.5691e-06
3.5691e-06
3.56909e-06
3.56908e-06
3.56907e-06
3.56906e-06
3.56906e-06
3.56906e-06
3.56905e-06
3.56906e-06
3.56906e-06
3.56906e-06
3.56905e-06
3.56905e-06
3.56904e-06
3.56911e-06
3.56911e-06
3.5691e-06
3.56909e-06
3.56908e-06
3.56908e-06
3.56907e-06
3.56906e-06
3.56905e-06
3.56905e-06
3.56905e-06
3.56905e-06
3.56905e-06
3.56905e-06
3.56905e-06
3.56905e-06
3.56904e-06
3.56911e-06
3.5691e-06
3.5691e-06
3.56909e-06
3.56908e-06
3.56907e-06
3.56906e-06
3.56906e-06
3.56905e-06
3.56905e-06
3.56905e-06
3.56905e-06
3.56905e-06
3.56905e-06
3.56905e-06
3.56904e-06
3.56904e-06
3.5691e-06
3.56909e-06
3.56909e-06
3.56908e-06
3.56908e-06
3.56907e-06
3.56906e-06
3.56905e-06
3.56905e-06
3.56905e-06
3.56904e-06
3.56904e-06
3.56904e-06
3.56904e-06
3.56904e-06
3.56903e-06
3.56903e-06
3.56908e-06
3.56908e-06
3.56907e-06
3.56907e-06
3.56907e-06
3.56907e-06
3.56906e-06
3.56906e-06
3.56905e-06
3.56905e-06
3.56904e-06
3.56904e-06
3.56904e-06
3.56904e-06
3.56903e-06
3.56902e-06
3.56901e-06
3.56906e-06
3.56905e-06
3.56906e-06
3.56906e-06
3.56906e-06
3.56906e-06
3.56906e-06
3.56906e-06
3.56905e-06
3.56905e-06
3.56904e-06
3.56904e-06
3.56903e-06
3.56903e-06
3.56901e-06
3.569e-06
3.56899e-06
3.56902e-06
3.56902e-06
3.56903e-06
3.56904e-06
3.56905e-06
3.56906e-06
3.56906e-06
3.56906e-06
3.56905e-06
3.56905e-06
3.56904e-06
3.56904e-06
3.56903e-06
3.56901e-06
3.56899e-06
3.56896e-06
3.56895e-06
3.56898e-06
3.56898e-06
3.569e-06
3.56902e-06
3.56904e-06
3.56905e-06
3.56905e-06
3.56905e-06
3.56905e-06
3.56905e-06
3.56904e-06
3.56903e-06
3.56901e-06
3.56899e-06
3.56896e-06
3.56893e-06
3.56891e-06
3.56894e-06
3.56894e-06
3.56897e-06
3.56899e-06
3.56902e-06
3.56904e-06
3.56905e-06
3.56905e-06
3.56905e-06
3.56904e-06
3.56903e-06
3.56902e-06
3.569e-06
3.56896e-06
3.56893e-06
3.56889e-06
3.56886e-06
3.5689e-06
3.56892e-06
3.56894e-06
3.56898e-06
3.56901e-06
3.56903e-06
3.56904e-06
3.56904e-06
3.56904e-06
3.56904e-06
3.56903e-06
3.56901e-06
3.56899e-06
3.56895e-06
3.56891e-06
3.56886e-06
3.56883e-06
3.53077e-06
3.5308e-06
3.53083e-06
3.53086e-06
3.53089e-06
3.53092e-06
3.53093e-06
3.53094e-06
3.53094e-06
3.53094e-06
3.53092e-06
3.5309e-06
3.53088e-06
3.53084e-06
3.5308e-06
3.53076e-06
3.53072e-06
3.5308e-06
3.53082e-06
3.53084e-06
3.53088e-06
3.53091e-06
3.53093e-06
3.53094e-06
3.53095e-06
3.53095e-06
3.53094e-06
3.53093e-06
3.53092e-06
3.53089e-06
3.53086e-06
3.53082e-06
3.53077e-06
3.53074e-06
3.53083e-06
3.53084e-06
3.53087e-06
3.5309e-06
3.53092e-06
3.53094e-06
3.53095e-06
3.53096e-06
3.53096e-06
3.53095e-06
3.53094e-06
3.53093e-06
3.5309e-06
3.53087e-06
3.53084e-06
3.5308e-06
3.53077e-06
3.53086e-06
3.53088e-06
3.5309e-06
3.53092e-06
3.53094e-06
3.53095e-06
3.53096e-06
3.53097e-06
3.53097e-06
3.53096e-06
3.53095e-06
3.53094e-06
3.53092e-06
3.5309e-06
3.53086e-06
3.53083e-06
3.53081e-06
3.53089e-06
3.53091e-06
3.53092e-06
3.53094e-06
3.53096e-06
3.53097e-06
3.53097e-06
3.53097e-06
3.53097e-06
3.53097e-06
3.53096e-06
3.53095e-06
3.53094e-06
3.53091e-06
3.53089e-06
3.53086e-06
3.53084e-06
3.53092e-06
3.53093e-06
3.53094e-06
3.53095e-06
3.53097e-06
3.53097e-06
3.53098e-06
3.53098e-06
3.53098e-06
3.53097e-06
3.53097e-06
3.53096e-06
3.53094e-06
3.53093e-06
3.53091e-06
3.53088e-06
3.53086e-06
3.53093e-06
3.53094e-06
3.53095e-06
3.53096e-06
3.53097e-06
3.53098e-06
3.53098e-06
3.53098e-06
3.53098e-06
3.53097e-06
3.53097e-06
3.53096e-06
3.53095e-06
3.53094e-06
3.53092e-06
3.5309e-06
3.53088e-06
3.53094e-06
3.53095e-06
3.53096e-06
3.53097e-06
3.53097e-06
3.53098e-06
3.53098e-06
3.53098e-06
3.53098e-06
3.53097e-06
3.53097e-06
3.53096e-06
3.53095e-06
3.53094e-06
3.53092e-06
3.5309e-06
3.53089e-06
3.53094e-06
3.53095e-06
3.53096e-06
3.53097e-06
3.53097e-06
3.53098e-06
3.53098e-06
3.53098e-06
3.53097e-06
3.53097e-06
3.53097e-06
3.53096e-06
3.53095e-06
3.53094e-06
3.53092e-06
3.5309e-06
3.53089e-06
3.53094e-06
3.53094e-06
3.53095e-06
3.53096e-06
3.53097e-06
3.53097e-06
3.53097e-06
3.53097e-06
3.53097e-06
3.53097e-06
3.53096e-06
3.53096e-06
3.53095e-06
3.53093e-06
3.53092e-06
3.5309e-06
3.53088e-06
3.53092e-06
3.53093e-06
3.53094e-06
3.53095e-06
3.53096e-06
3.53097e-06
3.53097e-06
3.53097e-06
3.53097e-06
3.53096e-06
3.53096e-06
3.53095e-06
3.53094e-06
3.53093e-06
3.53091e-06
3.53089e-06
3.53087e-06
3.53091e-06
3.53092e-06
3.53093e-06
3.53094e-06
3.53095e-06
3.53096e-06
3.53096e-06
3.53096e-06
3.53096e-06
3.53096e-06
3.53095e-06
3.53094e-06
3.53093e-06
3.53091e-06
3.53089e-06
3.53087e-06
3.53085e-06
3.53088e-06
3.53089e-06
3.5309e-06
3.53092e-06
3.53094e-06
3.53095e-06
3.53095e-06
3.53095e-06
3.53095e-06
3.53095e-06
3.53094e-06
3.53093e-06
3.53091e-06
3.5309e-06
3.53087e-06
3.53085e-06
3.53082e-06
3.53084e-06
3.53086e-06
3.53087e-06
3.5309e-06
3.53091e-06
3.53093e-06
3.53094e-06
3.53094e-06
3.53094e-06
3.53093e-06
3.53093e-06
3.53091e-06
3.5309e-06
3.53087e-06
3.53084e-06
3.53081e-06
3.53079e-06
3.5308e-06
3.53082e-06
3.53084e-06
3.53086e-06
3.53089e-06
3.53091e-06
3.53092e-06
3.53092e-06
3.53092e-06
3.53092e-06
3.53091e-06
3.53089e-06
3.53087e-06
3.53084e-06
3.53081e-06
3.53077e-06
3.53075e-06
3.53076e-06
3.53077e-06
3.5308e-06
3.53083e-06
3.53086e-06
3.53088e-06
3.5309e-06
3.5309e-06
3.53091e-06
3.5309e-06
3.53089e-06
3.53087e-06
3.53085e-06
3.53081e-06
3.53077e-06
3.53073e-06
3.5307e-06
3.53072e-06
3.53074e-06
3.53077e-06
3.53081e-06
3.53084e-06
3.53086e-06
3.53088e-06
3.53089e-06
3.53089e-06
3.53088e-06
3.53087e-06
3.53085e-06
3.53082e-06
3.53079e-06
3.53075e-06
3.5307e-06
3.53067e-06
3.4927e-06
3.49272e-06
3.49274e-06
3.49277e-06
3.4928e-06
3.49282e-06
3.49283e-06
3.49284e-06
3.49284e-06
3.49284e-06
3.49283e-06
3.49281e-06
3.49279e-06
3.49276e-06
3.49272e-06
3.49269e-06
3.49266e-06
3.49272e-06
3.49274e-06
3.49276e-06
3.49279e-06
3.49281e-06
3.49283e-06
3.49285e-06
3.49285e-06
3.49286e-06
3.49285e-06
3.49284e-06
3.49282e-06
3.4928e-06
3.49277e-06
3.49274e-06
3.4927e-06
3.49268e-06
3.49274e-06
3.49276e-06
3.49278e-06
3.49281e-06
3.49283e-06
3.49285e-06
3.49286e-06
3.49287e-06
3.49287e-06
3.49286e-06
3.49285e-06
3.49284e-06
3.49282e-06
3.49279e-06
3.49276e-06
3.49273e-06
3.4927e-06
3.49277e-06
3.49279e-06
3.49281e-06
3.49283e-06
3.49285e-06
3.49287e-06
3.49288e-06
3.49288e-06
3.49288e-06
3.49288e-06
3.49287e-06
3.49286e-06
3.49284e-06
3.49281e-06
3.49278e-06
3.49275e-06
3.49273e-06
3.4928e-06
3.49281e-06
3.49283e-06
3.49285e-06
3.49287e-06
3.49288e-06
3.49289e-06
3.49289e-06
3.49289e-06
3.49289e-06
3.49288e-06
3.49287e-06
3.49285e-06
3.49283e-06
3.49281e-06
3.49278e-06
3.49275e-06
3.49282e-06
3.49283e-06
3.49285e-06
3.49287e-06
3.49288e-06
3.49289e-06
3.4929e-06
3.4929e-06
3.4929e-06
3.4929e-06
3.49289e-06
3.49288e-06
3.49287e-06
3.49285e-06
3.49282e-06
3.4928e-06
3.49277e-06
3.49283e-06
3.49285e-06
3.49286e-06
3.49288e-06
3.49289e-06
3.4929e-06
3.49291e-06
3.49291e-06
3.49291e-06
3.4929e-06
3.4929e-06
3.49289e-06
3.49287e-06
3.49286e-06
3.49283e-06
3.49281e-06
3.49279e-06
3.49284e-06
3.49285e-06
3.49287e-06
3.49288e-06
3.4929e-06
3.4929e-06
3.49291e-06
3.49291e-06
3.49291e-06
3.49291e-06
3.4929e-06
3.49289e-06
3.49288e-06
3.49286e-06
3.49284e-06
3.49282e-06
3.4928e-06
3.49284e-06
3.49286e-06
3.49287e-06
3.49288e-06
3.49289e-06
3.4929e-06
3.49291e-06
3.49291e-06
3.49291e-06
3.49291e-06
3.4929e-06
3.49289e-06
3.49288e-06
3.49286e-06
3.49284e-06
3.49282e-06
3.4928e-06