/*--------------------------------*- C++ -*----------------------------------*\
  =========                 |
  \\      /  F ield         | OpenFOAM: The Open Source CFD Toolbox
   \\    /   O peration     | Website:  https://openfoam.org
    \\  /    A nd           | Version:  6
     \\/     M anipulation  |
\*---------------------------------------------------------------------------*/
FoamFile
{
    version     2.0;
    format      ascii;
    class       volVectorField;
    location    "0";
    object      uRec;
}
// * * * * * * * * * * * * * * * * * * * * * * * * * * * * * * * * * * * * * //

dimensions      [0 1 -1 0 0 0 0];

internalField   nonuniform List<vector> 
10000
(
(5.37328e-06 6.47575e-06 0)
(7.06794e-05 -6.5231e-06 0)
(0.000199604 -2.13295e-05 0)
(0.000391254 -3.32068e-05 0)
(0.00063814 -4.20942e-05 0)
(0.0009252 -4.79163e-05 0)
(0.00123594 -5.01643e-05 0)
(0.00155251 -4.85544e-05 0)
(0.00185849 -4.34681e-05 0)
(0.00214035 -3.57594e-05 0)
(0.00238806 -2.66089e-05 0)
(0.00259514 -1.71807e-05 0)
(0.00275866 -8.38836e-06 0)
(0.0028789 -9.25415e-07 0)
(0.00295881 4.65935e-06 0)
(0.00300425 7.70089e-06 0)
(0.00301768 8.49842e-06 0)
(0.00302232 1.83934e-05 0)
(0.00297097 2.38707e-05 0)
(0.0029117 1.87814e-05 0)
(0.00284011 1.83133e-05 0)
(0.00275809 1.81605e-05 0)
(0.0026677 1.77476e-05 0)
(0.00257124 1.7162e-05 0)
(0.00247128 1.62089e-05 0)
(0.00236945 1.51369e-05 0)
(0.00226782 1.4059e-05 0)
(0.00216802 1.28098e-05 0)
(0.00207051 1.16377e-05 0)
(0.00197639 1.06967e-05 0)
(0.00188658 9.69609e-06 0)
(0.00180068 8.67056e-06 0)
(0.00171873 7.96519e-06 0)
(0.0016415 7.40818e-06 0)
(0.00156868 6.69494e-06 0)
(0.00149944 6.03205e-06 0)
(0.00143396 5.67229e-06 0)
(0.00137254 5.41017e-06 0)
(0.00131461 4.96336e-06 0)
(0.0012595 4.50992e-06 0)
(0.0012073 4.30252e-06 0)
(0.00115828 4.18761e-06 0)
(0.00111201 3.93385e-06 0)
(0.00106794 3.61219e-06 0)
(0.00102611 3.40563e-06 0)
(0.000986755 3.31927e-06 0)
(0.000949749 3.18797e-06 0)
(0.000914726 2.94937e-06 0)
(0.000881559 2.73271e-06 0)
(0.00085047 2.61839e-06 0)
(0.000821576 2.53005e-06 0)
(0.000794706 2.37723e-06 0)
(0.00076966 2.15176e-06 0)
(0.000746455 1.92672e-06 0)
(0.000725294 1.76524e-06 0)
(0.000706306 1.62605e-06 0)
(0.000689454 1.44039e-06 0)
(0.000674544 1.22003e-06 0)
(0.000661524 9.37455e-07 0)
(0.000650774 8.98789e-07 0)
(0.000641063 1.10612e-06 0)
(0.000632602 1.06113e-06 0)
(0.000624989 9.2902e-07 0)
(0.000617752 8.60591e-07 0)
(0.000611277 6.45883e-07 0)
(0.000606027 3.62051e-07 0)
(0.000602549 1.53153e-07 0)
(0.000600694 1.51365e-08 0)
(0.000600103 -6.33032e-08 0)
(0.000600418 -1.18883e-07 0)
(0.000601358 -1.61865e-07 0)
(0.000602751 -1.70842e-07 0)
(0.00060453 -1.31496e-07 0)
(0.000606686 -8.40765e-08 0)
(0.000609215 -8.87201e-08 0)
(0.000612177 -1.49773e-07 0)
(0.00061583 -2.58061e-07 0)
(0.000620649 -4.62761e-07 0)
(0.000627261 -8.1974e-07 0)
(0.000636489 -1.34988e-06 0)
(0.000649449 -2.10055e-06 0)
(0.000667561 -3.17072e-06 0)
(0.000692512 -4.65929e-06 0)
(0.000726293 -6.64113e-06 0)
(0.000771215 -9.20378e-06 0)
(0.000829687 -1.2419e-05 0)
(0.000903914 -1.62694e-05 0)
(0.000995552 -2.06468e-05 0)
(0.00110521 -2.53611e-05 0)
(0.00123163 -3.00754e-05 0)
(0.00137078 -3.42017e-05 0)
(0.0015149 -3.68482e-05 0)
(0.00165151 -3.68227e-05 0)
(0.00176155 -3.20708e-05 0)
(0.00181762 -2.05197e-05 0)
(0.00178293 1.84714e-06 0)
(0.00160871 3.92277e-05 0)
(0.00124965 9.08272e-05 0)
(0.000711743 0.000140875 0)
(0.000148616 0.000139597 0)
(1.43413e-05 -4.26418e-05 0)
(0.000185038 -0.000175469 0)
(0.000508586 -0.000306738 0)
(0.000965494 -0.000418409 0)
(0.00153392 -0.000505843 0)
(0.00218387 -0.00056453 0)
(0.00288307 -0.000592126 0)
(0.00359838 -0.000589058 0)
(0.0042995 -0.000558641 0)
(0.00496115 -0.000506204 0)
(0.00556367 -0.000438261 0)
(0.00609302 -0.000361327 0)
(0.00654046 -0.000281266 0)
(0.006902 -0.000203188 0)
(0.00717766 -0.0001314 0)
(0.00737064 -6.9322e-05 0)
(0.00749056 -1.97762e-05 0)
(0.00752416 2.82446e-05 0)
(0.00756336 8.21376e-05 0)
(0.00747748 0.000120081 0)
(0.00737724 0.000141373 0)
(0.00723793 0.000160626 0)
(0.00706706 0.000175574 0)
(0.00687066 0.000186299 0)
(0.00665527 0.000192778 0)
(0.00642635 0.000195244 0)
(0.00618895 0.000194601 0)
(0.0059479 0.00019147 0)
(0.00570649 0.000186305 0)
(0.00546762 0.000179771 0)
(0.00523402 0.000172418 0)
(0.00500724 0.000164501 0)
(0.00478822 0.000156353 0)
(0.00457809 0.000148248 0)
(0.00437743 0.000140284 0)
(0.00418611 0.000132594 0)
(0.00400418 0.000125292 0)
(0.00383158 0.00011842 0)
(0.00366795 0.000111886 0)
(0.00351283 0.000105729 0)
(0.00336592 0.000100038 0)
(0.00322694 9.46929e-05 0)
(0.00309535 8.95567e-05 0)
(0.00297066 8.46954e-05 0)
(0.00285275 8.01348e-05 0)
(0.00274146 7.57791e-05 0)
(0.00263641 7.15161e-05 0)
(0.0025373 6.73092e-05 0)
(0.00244401 6.32492e-05 0)
(0.00235661 5.93556e-05 0)
(0.00227507 5.54772e-05 0)
(0.00219913 5.15253e-05 0)
(0.00212861 4.7553e-05 0)
(0.00206359 4.36333e-05 0)
(0.00200425 3.97565e-05 0)
(0.0019506 3.5827e-05 0)
(0.00190242 3.17562e-05 0)
(0.00185959 2.75507e-05 0)
(0.00182284 2.35556e-05 0)
(0.0017906 2.00501e-05 0)
(0.00176514 1.72684e-05 0)
(0.00174387 1.60973e-05 0)
(0.00172278 1.50673e-05 0)
(0.00170447 1.3387e-05 0)
(0.00168731 1.14891e-05 0)
(0.00167224 8.60789e-06 0)
(0.00166136 5.42672e-06 0)
(0.00165454 2.69405e-06 0)
(0.00165114 5.10311e-07 0)
(0.00165044 -1.14333e-06 0)
(0.00165185 -2.3531e-06 0)
(0.00165492 -3.22135e-06 0)
(0.00165935 -3.86531e-06 0)
(0.00166495 -4.47936e-06 0)
(0.00167176 -5.31707e-06 0)
(0.00167999 -6.59422e-06 0)
(0.00169015 -8.50748e-06 0)
(0.00170313 -1.13697e-05 0)
(0.0017203 -1.56047e-05 0)
(0.0017434 -2.16503e-05 0)
(0.00177462 -2.99929e-05 0)
(0.00181675 -4.1217e-05 0)
(0.00187304 -5.59163e-05 0)
(0.00194714 -7.45462e-05 0)
(0.00204299 -9.73448e-05 0)
(0.00216445 -0.000124191 0)
(0.0023146 -0.000154301 0)
(0.00249479 -0.000185987 0)
(0.00270367 -0.000216433 0)
(0.00293577 -0.000241396 0)
(0.00317966 -0.00025483 0)
(0.00341608 -0.000248627 0)
(0.00361669 -0.000212519 0)
(0.0037392 -0.00013421 0)
(0.00373497 3.76941e-06 0)
(0.00352817 0.00021909 0)
(0.0030499 0.000512632 0)
(0.00225217 0.000836673 0)
(0.00119858 0.00103147 0)
(0.000189333 0.000732933 0)
(1.82377e-05 -0.000159897 0)
(0.000261457 -0.000484541 0)
(0.000714301 -0.00078614 0)
(0.00134099 -0.00104376 0)
(0.00210774 -0.001245 0)
(0.00297509 -0.00138029 0)
(0.00390293 -0.00144657 0)
(0.0048528 -0.00144702 0)
(0.00579055 -0.00138956 0)
(0.00668757 -0.00128502 0)
(0.00752119 -0.0011455 0)
(0.00827459 -0.000982987 0)
(0.00893597 -0.000808414 0)
(0.00949806 -0.000631376 0)
(0.00995751 -0.000459977 0)
(0.0103138 -0.0003006 0)
(0.0105702 -0.000158523 0)
(0.010734 -3.8955e-05 0)
(0.0108062 8.51154e-05 0)
(0.0108243 0.000189552 0)
(0.0107652 0.000254909 0)
(0.0106497 0.000321405 0)
(0.0104779 0.000378058 0)
(0.0102612 0.000421885 0)
(0.0100078 0.000453838 0)
(0.00972554 0.000474683 0)
(0.00942199 0.000485704 0)
(0.00910356 0.00048882 0)
(0.00877548 0.000485505 0)
(0.0084434 0.000476885 0)
(0.00811184 0.000464342 0)
(0.00778351 0.00044902 0)
(0.00746126 0.000431662 0)
(0.00714811 0.000413105 0)
(0.00684544 0.000394067 0)
(0.0065537 0.000374933 0)
(0.00627399 0.000355935 0)
(0.00600721 0.000337497 0)
(0.00575311 0.000319886 0)
(0.00551116 0.000303031 0)
(0.00528135 0.000286863 0)
(0.00506369 0.000271508 0)
(0.00485763 0.000256993 0)
(0.00466238 0.000243212 0)
(0.00447757 0.000229977 0)
(0.00430313 0.000217158 0)
(0.00413871 0.000204791 0)
(0.0039838 0.000192858 0)
(0.00383812 0.000181213 0)
(0.00370157 0.00016973 0)
(0.00357407 0.000158343 0)
(0.00345546 0.000147051 0)
(0.00334551 0.000135884 0)
(0.0032441 0.000124822 0)
(0.00315126 0.000113773 0)
(0.00306699 0.000102654 0)
(0.00299104 9.14289e-05 0)
(0.00292328 8.0087e-05 0)
(0.00286313 6.89159e-05 0)
(0.00281261 5.83212e-05 0)
(0.00276909 4.89245e-05 0)
(0.00273258 4.18192e-05 0)
(0.00270917 3.86576e-05 0)
(0.00268143 3.63716e-05 0)
(0.00265798 3.24007e-05 0)
(0.00263384 2.62574e-05 0)
(0.00261345 1.80188e-05 0)
(0.00259969 1.02173e-05 0)
(0.00259131 3.915e-06 0)
(0.00258731 -9.97229e-07 0)
(0.00258684 -4.69724e-06 0)
(0.00258922 -7.53831e-06 0)
(0.00259394 -9.8946e-06 0)
(0.00260065 -1.21335e-05 0)
(0.0026093 -1.47194e-05 0)
(0.00262015 -1.82188e-05 0)
(0.0026338 -2.32216e-05 0)
(0.00265123 -3.04041e-05 0)
(0.00267395 -4.06342e-05 0)
(0.002704 -5.49306e-05 0)
(0.00274391 -7.43756e-05 0)
(0.0027967 -0.000100088 0)
(0.00286592 -0.000133123 0)
(0.00295542 -0.000174209 0)
(0.00306911 -0.000223455 0)
(0.00321048 -0.000280029 0)
(0.0033818 -0.000341632 0)
(0.00358299 -0.000403891 0)
(0.00381034 -0.000459794 0)
(0.00405492 -0.00049916 0)
(0.00430057 -0.000508077 0)
(0.00452174 -0.000468443 0)
(0.00468159 -0.000358032 0)
(0.00473096 -0.000151317 0)
(0.00460291 0.000185015 0)
(0.0042254 0.000672017 0)
(0.00353689 0.00128799 0)
(0.00251657 0.00190965 0)
(0.00127698 0.00220126 0)
(0.000174069 0.0014578 0)
(1.98341e-05 -0.000310282 0)
(0.000307923 -0.000877073 0)
(0.000841828 -0.00138367 0)
(0.00157378 -0.00181068 0)
(0.0024606 -0.00214075 0)
(0.00345584 -0.00236178 0)
(0.00451453 -0.00247186 0)
(0.00559611 -0.00247828 0)
(0.00666588 -0.00239478 0)
(0.00769548 -0.00223842 0)
(0.00866263 -0.00202705 0)
(0.00955067 -0.00177784 0)
(0.0103477 -0.00150639 0)
(0.0110457 -0.00122614 0)
(0.0116403 -0.000948535 0)
(0.0121292 -0.000682957 0)
(0.0125144 -0.00043685 0)
(0.012797 -0.000216844 0)
(0.0129654 -2.84787e-05 0)
(0.0131479 0.000151795 0)
(0.0131179 0.000323869 0)
(0.0130602 0.000453204 0)
(0.012931 0.000565623 0)
(0.0127437 0.000657128 0)
(0.0125077 0.000728399 0)
(0.0122296 0.000781126 0)
(0.0119176 0.000816869 0)
(0.0115792 0.000837712 0)
(0.0112203 0.00084601 0)
(0.0108473 0.000843727 0)
(0.0104661 0.000832696 0)
(0.0100814 0.000814813 0)
(0.00969708 0.000791695 0)
(0.00931721 0.0007647 0)
(0.00894473 0.000735054 0)
(0.00858151 0.000703841 0)
(0.00822969 0.00067191 0)
(0.00789097 0.000639891 0)
(0.00756587 0.000608264 0)
(0.00725467 0.000577397 0)
(0.00695797 0.000547515 0)
(0.00667609 0.000518801 0)
(0.00640857 0.000491264 0)
(0.00615481 0.000464777 0)
(0.00591463 0.000439278 0)
(0.005688 0.000414736 0)
(0.00547453 0.000391055 0)
(0.00527351 0.00036806 0)
(0.00508454 0.000345565 0)
(0.00490757 0.000323452 0)
(0.00474248 0.000301692 0)
(0.00458895 0.000280254 0)
(0.00444659 0.000259061 0)
(0.00431519 0.000238016 0)
(0.00419473 0.000217074 0)
(0.00408513 0.000196275 0)
(0.00398608 0.000175653 0)
(0.00389719 0.000155189 0)
(0.0038182 0.000134717 0)
(0.00374825 0.000114538 0)
(0.00368939 9.55835e-05 0)
(0.00364233 7.88471e-05 0)
(0.00359916 6.65849e-05 0)
(0.0035779 6.17815e-05 0)
(0.00355083 5.97819e-05 0)
(0.00352378 5.3289e-05 0)
(0.00349354 3.99166e-05 0)
(0.00347018 2.49507e-05 0)
(0.00345458 1.27128e-05 0)
(0.00344473 3.10205e-06 0)
(0.00343958 -4.37361e-06 0)
(0.00343821 -1.02473e-05 0)
(0.00344003 -1.51514e-05 0)
(0.00344458 -1.97392e-05 0)
(0.00345159 -2.47403e-05 0)
(0.00346119 -3.10385e-05 0)
(0.00347391 -3.96442e-05 0)
(0.00349066 -5.1681e-05 0)
(0.00351275 -6.84732e-05 0)
(0.00354204 -9.15731e-05 0)
(0.00358081 -0.000122617 0)
(0.00363182 -0.000163174 0)
(0.00369813 -0.000214609 0)
(0.00378304 -0.000277758 0)
(0.00388964 -0.00035242 0)
(0.00402043 -0.000436733 0)
(0.00417648 -0.000526454 0)
(0.00435629 -0.000614065 0)
(0.00455443 -0.000687856 0)
(0.0047599 -0.000731071 0)
(0.00495427 -0.000721182 0)
(0.00510944 -0.000629366 0)
(0.00518545 -0.000421741 0)
(0.00513191 -5.61297e-05 0)
(0.0048811 0.000507146 0)
(0.00437236 0.00128236 0)
(0.00356117 0.00221466 0)
(0.00245429 0.00309351 0)
(0.0011923 0.00340686 0)
(0.000143703 0.00215229 0)
(1.99634e-05 -0.000475993 0)
(0.000334787 -0.00131725 0)
(0.000920488 -0.00205265 0)
(0.001719 -0.00266299 0)
(0.00267898 -0.00312807 0)
(0.00374828 -0.00343622 0)
(0.00487845 -0.00358922 0)
(0.00602786 -0.0036004 0)
(0.00716234 -0.00349035 0)
(0.00825506 -0.00328274 0)
(0.00928557 -0.00300141 0)
(0.0102388 -0.00266849 0)
(0.0111044 -0.00230383 0)
(0.0118754 -0.00192421 0)
(0.0125474 -0.00154361 0)
(0.0131183 -0.00117369 0)
(0.0135875 -0.000823179 0)
(0.0139543 -0.000501569 0)
(0.0142257 -0.000220768 0)
(0.0143491 5.81176e-05 0)
(0.0145113 0.000304235 0)
(0.0145376 0.000508513 0)
(0.0144947 0.000690403 0)
(0.014376 0.000843091 0)
(0.014196 0.000966713 0)
(0.0139632 0.0010635 0)
(0.0136854 0.00113581 0)
(0.0133705 0.00118608 0)
(0.0130249 0.00121684 0)
(0.0126554 0.00123074 0)
(0.0122687 0.00123032 0)
(0.0118696 0.00121792 0)
(0.0114632 0.00119569 0)
(0.0110545 0.00116565 0)
(0.0106476 0.00112978 0)
(0.0102452 0.00108964 0)
(0.00985047 0.00104657 0)
(0.00946618 0.00100172 0)
(0.00909402 0.000956111 0)
(0.00873505 0.000910537 0)
(0.00839054 0.000865519 0)
(0.00806152 0.000821381 0)
(0.0077481 0.000778403 0)
(0.00745013 0.000736761 0)
(0.00716777 0.000696463 0)
(0.00690114 0.000657451 0)
(0.00664988 0.000619624 0)
(0.00641339 0.000582812 0)
(0.00619132 0.000546858 0)
(0.00598354 0.000511673 0)
(0.00578986 0.000477173 0)
(0.00560984 0.00044321 0)
(0.00544295 0.000409667 0)
(0.00528885 0.000376513 0)
(0.0051475 0.000343755 0)
(0.00501875 0.000311435 0)
(0.0049021 0.000279603 0)
(0.00479698 0.000248286 0)
(0.00470297 0.000217458 0)
(0.00461962 0.000186949 0)
(0.00454631 0.000156922 0)
(0.0044831 0.000129065 0)
(0.00443605 0.000105088 0)
(0.00439095 8.76256e-05 0)
(0.00437277 8.28435e-05 0)
(0.00435309 8.26833e-05 0)
(0.00432239 7.1899e-05 0)
(0.00428709 4.99329e-05 0)
(0.00426246 2.9342e-05 0)
(0.00424456 1.38466e-05 0)
(0.00423212 1.65897e-06 0)
(0.0042242 -8.04516e-06 0)
(0.00422 -1.61093e-05 0)
(0.00421891 -2.35162e-05 0)
(0.00422052 -3.12809e-05 0)
(0.00422476 -4.05483e-05 0)
(0.00423197 -5.26906e-05 0)
(0.00424277 -6.92858e-05 0)
(0.00425812 -9.20938e-05 0)
(0.00427946 -0.000123058 0)
(0.00430862 -0.000164213 0)
(0.00434772 -0.000217494 0)
(0.00439906 -0.000284482 0)
(0.00446502 -0.000365949 0)
(0.00454777 -0.000461213 0)
(0.00464879 -0.000567278 0)
(0.00476805 -0.000677871 0)
(0.00490299 -0.000782274 0)
(0.00504723 -0.000864068 0)
(0.005189 -0.000899986 0)
(0.00530941 -0.000859031 0)
(0.00537978 -0.000701994 0)
(0.00536286 -0.000382275 0)
(0.00520398 0.000151987 0)
(0.00484966 0.000942875 0)
(0.00424939 0.00199163 0)
(0.00337656 0.00320352 0)
(0.00225999 0.00427895 0)
(0.0010532 0.00454536 0)
(0.000112388 0.00276639 0)
(1.95815e-05 -0.000651643 0)
(0.000352121 -0.00178848 0)
(0.000973377 -0.00276852 0)
(0.00181583 -0.00356991 0)
(0.00282034 -0.00417061 0)
(0.00392995 -0.00456198 0)
(0.00509374 -0.00475236 0)
(0.00626969 -0.00476311 0)
(0.00742483 -0.00462277 0)
(0.00853427 -0.00436212 0)
(0.00957993 -0.00401117 0)
(0.0105491 -0.00359696 0)
(0.0114336 -0.00314314 0)
(0.0122285 -0.00266959 0)
(0.0129309 -0.00219228 0)
(0.0135401 -0.00172421 0)
(0.0140566 -0.00127537 0)
(0.0144806 -0.000853618 0)
(0.0148171 -0.000467272 0)
(0.0150578 -0.000139932 0)
(0.0152524 0.00016056 0)
(0.0153275 0.000470344 0)
(0.0153507 0.000734166 0)
(0.0152991 0.000957106 0)
(0.0151849 0.00114191 0)
(0.0150138 0.00129171 0)
(0.0147923 0.0014094 0)
(0.0145272 0.00149801 0)
(0.0142242 0.00156048 0)
(0.0138897 0.00159971 0)
(0.0135301 0.00161853 0)
(0.0131504 0.00161981 0)
(0.0127558 0.00160628 0)
(0.0123517 0.0015804 0)
(0.0119425 0.00154447 0)
(0.0115318 0.00150063 0)
(0.0111234 0.00145073 0)
(0.010721 0.00139651 0)
(0.0103269 0.00133943 0)
(0.00994326 0.00128062 0)
(0.00957197 0.00122106 0)
(0.0092149 0.00116155 0)
(0.00887297 0.00110264 0)
(0.00854657 0.00104476 0)
(0.00823626 0.000988162 0)
(0.0079426 0.000932909 0)
(0.00766561 0.000878996 0)
(0.00740483 0.000826423 0)
(0.00716005 0.000775106 0)
(0.00693124 0.000724902 0)
(0.00671812 0.000675705 0)
(0.0065201 0.000627398 0)
(0.00633669 0.000579875 0)
(0.00616751 0.000533108 0)
(0.00601231 0.000487121 0)
(0.00587076 0.000441968 0)
(0.00574233 0.000397716 0)
(0.00562631 0.000354427 0)
(0.00552211 0.000312156 0)
(0.0054292 0.000270965 0)
(0.00534695 0.000230906 0)
(0.00527501 0.000191765 0)
(0.00521102 0.000155558 0)
(0.00516689 0.000125056 0)
(0.00512153 0.000102737 0)
(0.00511428 0.000101895 0)
(0.00509792 0.000103065 0)
(0.00506257 8.47364e-05 0)
(0.00502428 5.67617e-05 0)
(0.00499756 3.33503e-05 0)
(0.00497603 1.58255e-05 0)
(0.00495932 1.82685e-06 0)
(0.00494652 -9.73672e-06 0)
(0.00493688 -2.00775e-05 0)
(0.00492986 -3.0497e-05 0)
(0.00492515 -4.24351e-05 0)
(0.00492274 -5.75761e-05 0)
(0.00492296 -7.78367e-05 0)
(0.00492643 -0.000105302 0)
(0.00493405 -0.000142211 0)
(0.00494704 -0.000190905 0)
(0.00496678 -0.0002536 0)
(0.00499479 -0.000331976 0)
(0.00503257 -0.00042664 0)
(0.00508141 -0.00053637 0)
(0.00514188 -0.000657109 0)
(0.00521316 -0.000780675 0)
(0.00529212 -0.000893275 0)
(0.00537206 -0.000973953 0)
(0.0054412 -0.000993259 0)
(0.00548113 -0.000912234 0)
(0.00546436 -0.000682109 0)
(0.00535434 -0.000246526 0)
(0.00510529 0.00045549 0)
(0.00467006 0.00146115 0)
(0.00401025 0.00275636 0)
(0.00311443 0.00420339 0)
(0.00202791 0.00541653 0)
(0.000907885 0.00558307 0)
(8.53504e-05 0.0032926 0)
(1.96772e-05 -0.000834628 0)
(0.000366425 -0.00228208 0)
(0.00101406 -0.00351645 0)
(0.00188616 -0.00451114 0)
(0.00291617 -0.00524346 0)
(0.00404304 -0.00571048 0)
(0.00521436 -0.00592966 0)
(0.00638857 -0.00593216 0)
(0.00753432 -0.00575551 0)
(0.00862885 -0.0054382 0)
(0.00965663 -0.00501645 0)
(0.0106076 -0.00452237 0)
(0.0114759 -0.00398309 0)
(0.0122588 -0.00342125 0)
(0.0129557 -0.00285493 0)
(0.013567 -0.00229818 0)
(0.0140943 -0.00176215 0)
(0.0145389 -0.00125587 0)
(0.0149034 -0.000786707 0)
(0.0151859 -0.000366862 0)
(0.0153804 2.61131e-05 0)
(0.0155373 0.000391381 0)
(0.0156247 0.000720568 0)
(0.0156415 0.00100655 0)
(0.0155953 0.0012507 0)
(0.0154914 0.00145515 0)
(0.0153351 0.00162198 0)
(0.0151324 0.00175387 0)
(0.014888 0.00185374 0)
(0.0146073 0.00192464 0)
(0.0142961 0.00196965 0)
(0.0139592 0.00199177 0)
(0.013601 0.00199398 0)
(0.0132269 0.00197907 0)
(0.0128414 0.00194967 0)
(0.0124482 0.00190828 0)
(0.0120516 0.00185718 0)
(0.0116556 0.00179841 0)
(0.0112632 0.00173389 0)
(0.0108769 0.00166519 0)
(0.0104997 0.00159367 0)
(0.0101339 0.00152059 0)
(0.00978102 0.00144692 0)
(0.00944227 0.00137329 0)
(0.00911877 0.00130025 0)
(0.0088115 0.00122824 0)
(0.00852096 0.0011575 0)
(0.00824714 0.00108817 0)
(0.00798996 0.00102024 0)
(0.00774951 0.000953716 0)
(0.00752568 0.000888543 0)
(0.00731797 0.000824671 0)
(0.00712576 0.000762037 0)
(0.00694858 0.000700632 0)
(0.00678617 0.000640499 0)
(0.00663811 0.000581707 0)
(0.00650365 0.000524333 0)
(0.00638193 0.000468491 0)
(0.00627235 0.000414334 0)
(0.00617433 0.000362031 0)
(0.00608714 0.000311709 0)
(0.00600988 0.000263376 0)
(0.00594202 0.000216286 0)
(0.00588004 0.000172974 0)
(0.00584096 0.000136565 0)
(0.00579048 0.000111383 0)
(0.00580751 0.000119927 0)
(0.00577995 0.000122181 0)
(0.00573957 9.41619e-05 0)
(0.00570271 6.32342e-05 0)
(0.00567288 3.97474e-05 0)
(0.00564648 2.13612e-05 0)
(0.00562368 6.34193e-06 0)
(0.00560365 -6.68642e-06 0)
(0.00558569 -1.93214e-05 0)
(0.00556931 -3.32988e-05 0)
(0.00555425 -5.05119e-05 0)
(0.00554053 -7.30693e-05 0)
(0.00552837 -0.000103318 0)
(0.00551818 -0.000143774 0)
(0.00551053 -0.000196981 0)
(0.00550617 -0.00026527 0)
(0.00550588 -0.000350357 0)
(0.00551042 -0.000452716 0)
(0.00552029 -0.000570664 0)
(0.00553538 -0.000699155 0)
(0.00555442 -0.000828266 0)
(0.00557408 -0.000941427 0)
(0.00558779 -0.00101359 0)
(0.00558425 -0.00100971 0)
(0.0055461 -0.000883617 0)
(0.00544691 -0.00057782 0)
(0.00525481 -2.43527e-05 0)
(0.0049294 0.000835823 0)
(0.00443276 0.00203774 0)
(0.00373601 0.00354834 0)
(0.00284001 0.0051861 0)
(0.0018017 0.00648494 0)
(0.000776306 0.00651329 0)
(6.40307e-05 0.00373749 0)
(2.05257e-05 -0.00102473 0)
(0.000380486 -0.00279441 0)
(0.0010485 -0.00428771 0)
(0.00193961 -0.00547281 0)
(0.00298062 -0.00632876 0)
(0.00410737 -0.00686111 0)
(0.005267 -0.00709861 0)
(0.00641901 -0.00708356 0)
(0.00753394 -0.00686337 0)
(0.00859139 -0.00648466 0)
(0.00957824 -0.00598992 0)
(0.0104873 -0.00541626 0)
(0.0113151 -0.00479443 0)
(0.0120613 -0.0041493 0)
(0.0127274 -0.00350056 0)
(0.0133156 -0.00286311 0)
(0.0138287 -0.00224807 0)
(0.0142688 -0.00166411 0)
(0.0146362 -0.00111815 0)
(0.0149381 -0.000618743 0)
(0.0151454 -0.000179494 0)
(0.0153266 0.000227651 0)
(0.0154695 0.000632492 0)
(0.0155418 0.000987451 0)
(0.0155549 0.00129231 0)
(0.0155133 0.00155183 0)
(0.015421 0.00176855 0)
(0.0152831 0.00194529 0)
(0.015103 0.00208515 0)
(0.0148851 0.00219127 0)
(0.0146339 0.00226681 0)
(0.0143531 0.00231483 0)
(0.0140469 0.00233823 0)
(0.0137199 0.00234006 0)
(0.0133764 0.0023231 0)
(0.0130199 0.00228996 0)
(0.0126545 0.00224321 0)
(0.0122846 0.00218519 0)
(0.0119134 0.00211804 0)
(0.0115437 0.00204373 0)
(0.0111787 0.00196404 0)
(0.0108216 0.00188048 0)
(0.0104743 0.00179438 0)
(0.0101384 0.00170685 0)
(0.0098157 0.00161874 0)
(0.00950783 0.00153077 0)
(0.00921566 0.00144351 0)
(0.00893947 0.00135737 0)
(0.00867962 0.00127255 0)
(0.00843655 0.0011892 0)
(0.00821026 0.00110746 0)
(0.00800031 0.00102738 0)
(0.00780622 0.000949032 0)
(0.00762759 0.00087245 0)
(0.007464 0.00079769 0)
(0.00731492 0.000724849 0)
(0.00717957 0.00065408 0)
(0.00705707 0.000585572 0)
(0.00694664 0.000519516 0)
(0.00684757 0.000456107 0)
(0.00675908 0.000395535 0)
(0.00668026 0.000337942 0)
(0.00661002 0.000283232 0)
(0.00654709 0.00023029 0)
(0.00648945 0.000182666 0)
(0.00645324 0.000141301 0)
(0.00640131 0.000123414 0)
(0.00643753 0.000140528 0)
(0.00639815 0.000135305 0)
(0.00635294 0.000101606 0)
(0.00631641 7.19848e-05 0)
(0.00628137 5.0489e-05 0)
(0.00624855 3.30466e-05 0)
(0.00621755 1.81077e-05 0)
(0.00618761 4.08255e-06 0)
(0.00615814 -1.08938e-05 0)
(0.00612874 -2.88606e-05 0)
(0.00609914 -5.20793e-05 0)
(0.00606915 -8.30614e-05 0)
(0.00603879 -0.000124485 0)
(0.00600816 -0.000179009 0)
(0.00597741 -0.00024902 0)
(0.00594666 -0.000336247 0)
(0.00591604 -0.000441068 0)
(0.00588549 -0.000561426 0)
(0.00585444 -0.000691389 0)
(0.00582134 -0.000819466 0)
(0.00578284 -0.000926564 0)
(0.00573263 -0.000983791 0)
(0.00566001 -0.000950611 0)
(0.00554853 -0.000773093 0)
(0.0053758 -0.000385736 0)
(0.0051183 0.000271419 0)
(0.00472969 0.0012776 0)
(0.00418595 0.00265511 0)
(0.00346728 0.00435019 0)
(0.00258367 0.00613809 0)
(0.00159963 0.00747909 0)
(0.000665051 0.00734299 0)
(4.8068e-05 0.00411341 0)
(2.18744e-05 -0.00122206 0)
(0.000394469 -0.00332272 0)
(0.00107788 -0.00507519 0)
(0.00197865 -0.0064437 0)
(0.00301833 -0.00741231 0)
(0.00413085 -0.0079978 0)
(0.00526374 -0.00824202 0)
(0.00637799 -0.00819952 0)
(0.00744614 -0.00792804 0)
(0.0084503 -0.00748265 0)
(0.0093799 -0.00691236 0)
(0.0102302 -0.00625899 0)
(0.0110005 -0.00555699 0)
(0.0116929 -0.00483343 0)
(0.012311 -0.00410906 0)
(0.0128589 -0.00339931 0)
(0.013341 -0.00271512 0)
(0.013761 -0.00206415 0)
(0.0141212 -0.00145191 0)
(0.0144255 -0.000881725 0)
(0.0146695 -0.000368404 0)
(0.0148422 6.50301e-05 0)
(0.0150151 0.00050487 0)
(0.0151226 0.000919192 0)
(0.0151769 0.00127827 0)
(0.0151861 0.00158825 0)
(0.015151 0.00185183 0)
(0.0150743 0.0020718 0)
(0.014958 0.0022514 0)
(0.0148046 0.00239368 0)
(0.0146175 0.00250171 0)
(0.0143991 0.00257853 0)
(0.0141528 0.0026269 0)
(0.0138827 0.00264967 0)
(0.0135923 0.00264974 0)
(0.0132847 0.00262975 0)
(0.012964 0.00259225 0)
(0.0126342 0.00253982 0)
(0.0122986 0.00247485 0)
(0.01196 0.00239947 0)
(0.0116221 0.0023157 0)
(0.0112879 0.00222539 0)
(0.0109599 0.00213019 0)
(0.0106401 0.00203151 0)
(0.0103307 0.00193062 0)
(0.0100338 0.00182852 0)
(0.00975057 0.0017261 0)
(0.00948192 0.00162407 0)
(0.00922842 0.00152296 0)
(0.00899078 0.00142314 0)
(0.00876937 0.00132496 0)
(0.00856401 0.00122871 0)
(0.00837425 0.00113459 0)
(0.00819968 0.00104272 0)
(0.00803999 0.000953234 0)
(0.00789471 0.000866368 0)
(0.00776299 0.000782351 0)
(0.0076438 0.000701368 0)
(0.00753629 0.00062363 0)
(0.00743974 0.000549431 0)
(0.00735334 0.000479053 0)
(0.0072761 0.000412673 0)
(0.00720687 0.00035029 0)
(0.00714453 0.000291523 0)
(0.00708601 0.000235105 0)
(0.00703897 0.000186093 0)
(0.00699414 0.000141147 0)
(0.00697953 0.000140606 0)
(0.00699176 0.000162959 0)
(0.00694663 0.000146917 0)
(0.00689857 0.000114693 0)
(0.0068568 8.93462e-05 0)
(0.00681435 7.0302e-05 0)
(0.00677263 5.44972e-05 0)
(0.00673083 4.02733e-05 0)
(0.00668815 2.56704e-05 0)
(0.00664403 8.49941e-06 0)
(0.00659798 -1.36047e-05 0)
(0.00654957 -4.31847e-05 0)
(0.00649845 -8.29549e-05 0)
(0.00644434 -0.000135663 0)
(0.00638694 -0.000203773 0)
(0.00632583 -0.000288994 0)
(0.00626061 -0.000391585 0)
(0.00619087 -0.000509203 0)
(0.00611578 -0.000635259 0)
(0.00603369 -0.000756974 0)
(0.00594154 -0.000853127 0)
(0.00583384 -0.000891581 0)
(0.00570181 -0.000827417 0)
(0.00552895 -0.000603345 0)
(0.00530416 -0.000156928 0)
(0.00496985 0.000625326 0)
(0.00453108 0.00176815 0)
(0.00395209 0.00330097 0)
(0.00322188 0.00515173 0)
(0.00235724 0.00705415 0)
(0.0014272 0.00840199 0)
(0.000574457 0.00808444 0)
(3.6508e-05 0.00443339 0)
(2.34753e-05 -0.00142656 0)
(0.000407395 -0.00386377 0)
(0.00110091 -0.00587191 0)
(0.00200237 -0.00741369 0)
(0.00302966 -0.00848194 0)
(0.004116 -0.00910737 0)
(0.00520985 -0.00934631 0)
(0.00627404 -0.0092663 0)
(0.00728325 -0.00893577 0)
(0.00822197 -0.00841833 0)
(0.00908229 -0.00776977 0)
(0.00986199 -0.0070367 0)
(0.0105629 -0.00625686 0)
(0.0111896 -0.00545951 0)
(0.0117478 -0.00466637 0)
(0.0122436 -0.00389303 0)
(0.0126831 -0.00315014 0)
(0.0130711 -0.00244474 0)
(0.0134124 -0.00178165 0)
(0.0137102 -0.00116292 0)
(0.0139666 -0.000602492 0)
(0.014182 -0.000116945 0)
(0.0143282 0.000359665 0)
(0.0144642 0.000827429 0)
(0.0145444 0.0012289 0)
(0.0145956 0.00157851 0)
(0.0146109 0.00188078 0)
(0.0145905 0.00213858 0)
(0.0145342 0.00235478 0)
(0.014443 0.00253194 0)
(0.0143192 0.00267253 0)
(0.0141641 0.00277916 0)
(0.0139799 0.00285446 0)
(0.0137704 0.00290091 0)
(0.0135384 0.00292114 0)
(0.0132863 0.00291785 0)
(0.0130179 0.0028936 0)
(0.012737 0.00285089 0)
(0.0124465 0.00279223 0)
(0.0121491 0.00271993 0)
(0.0118484 0.00263616 0)
(0.0115478 0.00254296 0)
(0.0112498 0.00244223 0)
(0.0109565 0.00233567 0)
(0.0106704 0.00222485 0)
(0.010394 0.00211112 0)
(0.0101289 0.00199566 0)
(0.00987611 0.00187947 0)
(0.00963663 0.00176341 0)
(0.00941156 0.00164821 0)
(0.00920151 0.00153449 0)
(0.00900649 0.00142269 0)
(0.00882623 0.00131322 0)
(0.00866049 0.00120645 0)
(0.00850908 0.00110266 0)
(0.00837154 0.00100216 0)
(0.008247 0.000905245 0)
(0.00813442 0.000812197 0)
(0.00803298 0.000723323 0)
(0.00794189 0.000638942 0)
(0.00786023 0.000559347 0)
(0.00778695 0.000484767 0)
(0.00772086 0.000415306 0)
(0.00766054 0.000350825 0)
(0.00760506 0.000290331 0)
(0.00754753 0.000233149 0)
(0.00751026 0.000182992 0)
(0.00743895 0.00014748 0)
(0.00747757 0.000169605 0)
(0.00745039 0.000185746 0)
(0.00740428 0.00016136 0)
(0.00735815 0.000135271 0)
(0.00731035 0.000116552 0)
(0.00726004 0.00010166 0)
(0.0072079 8.87575e-05 0)
(0.00715313 7.60354e-05 0)
(0.00709517 6.13112e-05 0)
(0.00703348 4.22035e-05 0)
(0.00696747 1.61767e-05 0)
(0.00689651 -1.94612e-05 0)
(0.00682002 -6.74822e-05 0)
(0.00673734 -0.000130412 0)
(0.00664771 -0.000209952 0)
(0.00655031 -0.000306232 0)
(0.00644439 -0.000416682 0)
(0.00632896 -0.000534268 0)
(0.00620227 -0.000645228 0)
(0.00606137 -0.00072653 0)
(0.00590119 -0.000743162 0)
(0.00571321 -0.000645646 0)
(0.00548475 -0.000368681 0)
(0.00518657 0.000175683 0)
(0.00481577 0.00103694 0)
(0.00433985 0.00229563 0)
(0.00373852 0.00396411 0)
(0.00300518 0.00594567 0)
(0.00216288 0.00793302 0)
(0.00128358 0.00925999 0)
(0.000502149 0.00875093 0)
(2.8293e-05 0.00470908 0)
(2.5186e-05 -0.00163765 0)
(0.000418015 -0.00441366 0)
(0.00111554 -0.0066705 0)
(0.00200894 -0.0083731 0)
(0.00301374 -0.00952683 0)
(0.00406356 -0.0101787 0)
(0.00510825 -0.0104005 0)
(0.00611256 -0.0102731 0)
(0.00705347 -0.00987602 0)
(0.00791781 -0.00928149 0)
(0.00870017 -0.00855208 0)
(0.00940093 -0.0077394 0)
(0.0100244 -0.00688434 0)
(0.0105775 -0.00601797 0)
(0.011068 -0.00516279 0)
(0.0115039 -0.00433432 0)
(0.0118926 -0.00354246 0)
(0.0122398 -0.00279346 0)
(0.0125515 -0.00209162 0)
(0.0128273 -0.00144078 0)
(0.0130819 -0.00084606 0)
(0.0133298 -0.000290224 0)
(0.0134153 0.000224618 0)
(0.013592 0.000713545 0)
(0.0137055 0.00114161 0)
(0.0138024 0.0015217 0)
(0.0138679 0.00185669 0)
(0.0139008 0.00214836 0)
(0.0139005 0.00239841 0)
(0.0138674 0.00260868 0)
(0.0138031 0.00278105 0)
(0.0137085 0.0029175 0)
(0.0135851 0.00302025 0)
(0.0134358 0.00309162 0)
(0.0132629 0.00313396 0)
(0.0130685 0.00314975 0)
(0.0128557 0.00314152 0)
(0.0126277 0.00311171 0)
(0.0123873 0.00306278 0)
(0.0121371 0.00299708 0)
(0.0118802 0.0029169 0)
(0.0116201 0.00282439 0)
(0.0113591 0.00272163 0)
(0.0110998 0.00261053 0)
(0.0108445 0.0024929 0)
(0.0105959 0.00237034 0)
(0.0103558 0.00224432 0)
(0.0101255 0.00211622 0)
(0.00990638 0.00198721 0)
(0.00969966 0.00185831 0)
(0.0095062 0.00173038 0)
(0.00932628 0.00160419 0)
(0.00915989 0.00148042 0)
(0.00900691 0.00135963 0)
(0.00886723 0.00124227 0)
(0.00874052 0.0011288 0)
(0.00862603 0.00101966 0)
(0.00852273 0.000915267 0)
(0.00842976 0.000815986 0)
(0.00834632 0.000722146 0)
(0.00827148 0.000634092 0)
(0.00820422 0.000552166 0)
(0.00814332 0.000476603 0)
(0.00808742 0.00040743 0)
(0.0080351 0.000344343 0)
(0.00798542 0.000285556 0)
(0.00793192 0.000231894 0)
(0.00789468 0.000181488 0)
(0.00783756 0.000168185 0)
(0.00788028 0.000204806 0)
(0.00783279 0.000209355 0)
(0.00777972 0.000187205 0)
(0.00772817 0.000169005 0)
(0.00767131 0.000157052 0)
(0.00761076 0.000147473 0)
(0.00754594 0.000138471 0)
(0.00747612 0.000128047 0)
(0.00740074 0.000113897 0)
(0.00731913 9.35229e-05 0)
(0.00723049 6.42902e-05 0)
(0.00713398 2.34986e-05 0)
(0.00702873 -3.13545e-05 0)
(0.00691376 -0.000101985 0)
(0.00678795 -0.000188453 0)
(0.00665023 -0.000288003 0)
(0.00649944 -0.000393239 0)
(0.00633383 -0.000489597 0)
(0.00615058 -0.000552429 0)
(0.005945 -0.000544031 0)
(0.00570928 -0.000410814 0)
(0.00543001 -8.30148e-05 0)
(0.00509264 0.000519897 0)
(0.00468212 0.00147622 0)
(0.00417369 0.00284719 0)
(0.00355344 0.0046371 0)
(0.00281968 0.00672856 0)
(0.00199949 0.00877628 0)
(0.00116574 0.0100609 0)