/*--------------------------------*- C++ -*----------------------------------*\
  =========                 |
  \\      /  F ield         | OpenFOAM: The Open Source CFD Toolbox
   \\    /   O peration     | Website:  https://openfoam.org
    \\  /    A nd           | Version:  6
     \\/     M anipulation  |
\*---------------------------------------------------------------------------*/
FoamFile
{
    version     2.0;
    format      ascii;
    class       volScalarField;
    location    "0";
    object      p;
}
// * * * * * * * * * * * * * * * * * * * * * * * * * * * * * * * * * * * * * //

dimensions      [0 2 -2 0 0 0 0];

internalField   nonuniform List<scalar> 
13046
(
0.791375
0.781749
0.806275
0.814318
0.808588
0.786841
0.788981
0.791685
0.812432
0.316329
0.224108
0.721706
0.780092
0.724475
0.788283
0.430892
0.720721
0.308134
0.823022
0.814639
0.808189
0.413764
0.723142
0.296816
0.799355
0.813207
0.809479
0.753121
0.72867
0.786669
0.800287
0.748173
0.7964
0.817688
0.820622
0.806522
0.81995
0.826237
0.818131
0.779524
0.789052
0.736135
0.818454
0.834601
0.822799
0.820064
0.818626
0.820602
0.778179
0.776082
0.804911
0.740742
0.761276
0.668433
0.753425
0.640576
0.763071
0.50236
0.647486
0.734608
0.689456
0.677218
0.767617
0.735994
0.445455
0.517916
0.669775
0.514961
0.731297
0.692528
0.537232
0.735141
0.461758
0.623223
0.732301
0.821751
0.825905
0.788671
0.731888
0.574763
0.446606
0.795188
0.80471
0.804705
0.731102
0.400206
0.472306
0.486189
0.735178
0.478319
0.720461
0.411721
0.462494
0.674973
0.647359
0.623812
0.5997
0.757867
0.757015
0.735622
0.495988
0.504369
0.820621
0.817797
0.814984
0.787735
0.686805
0.769003
0.768872
0.776553
0.700402
0.118979
0.715139
0.022986
0.786106
0.7477
0.789325
0.640475
0.668628
0.56113
0.748136
0.606691
0.752466
0.275104
0.16982
0.719302
0.731004
0.653704
0.77649
0.776418
0.78677
0.733954
0.722159
0.447593
0.513906
0.597872
0.550719
0.747446
0.787312
0.734171
0.787987
0.737789
0.771649
0.786837
0.759573
0.759083
0.701102
0.785456
0.710987
0.787013
0.675574
0.644549
0.761569
0.812049
0.760479
0.792087
0.713952
0.630746
0.697067
0.620835
0.757022
0.754609
0.743592
0.737386
0.774967
0.308594
0.721112
0.244904
0.183013
0.717065
0.0729221
0.580134
0.516597
0.744747
0.768956
0.670004
0.772912
0.750647
0.778508
0.750689
0.723431
0.305215
0.340057
0.772968
0.694885
0.768525
0.807127
0.742864
0.78044
0.75389
0.775369
0.788821
0.711233
0.788249
0.742017
0.685525
0.776264
0.456057
0.731939
0.419492
0.731535
0.494648
0.528183
0.413141
0.448319
0.722935
0.72107
0.615832
0.743219
0.764137
0.586524
0.724171
0.444021
0.397051
0.391198
0.721058
0.814017
0.823033
0.814806
0.7613
0.739486
0.785118
0.729658
0.478661
0.538954
0.745753
0.724969
0.792225
0.716743
0.151196
0.206515
0.743842
0.612242
0.709725
0.460706
0.492808
0.729681
0.678786
0.722363
0.77224
0.715157
0.663541
0.774852
0.602971
0.514309
0.723921
0.590814
0.671255
0.74272
0.716398
0.142017
0.167911
0.778886
0.777461
0.683877
0.152225
0.714236
-0.0432063
0.815165
0.810822
0.807322
0.686638
0.699695
0.717165
0.73301
0.780076
0.768485
0.723039
0.543052
0.40352
0.736021
0.681969
0.771177
0.583483
0.635528
0.741685
0.612586
0.556637
0.74816
0.824201
0.81589
0.834971
0.651239
0.698024
0.759148
0.73549
0.654933
0.768581
0.748154
0.742094
0.778667
0.765603
0.66057
0.641661
0.673602
0.75509
0.57384
0.743562
0.533935
0.793194
0.77893
0.715389
0.754057
0.611942
0.69875
0.668559
0.579454
0.746751
0.762425
0.744454
0.663686
0.639568
0.629067
0.554598
0.742501
0.541391
0.744608
0.72531
0.337954
0.373972
0.684745
0.632327
0.757899
-0.13096
0.711562
0.00636709
0.794113
0.798184
0.780642
0.711306
0.698378
0.772356
0.736486
0.499995
0.46676
0.740371
0.6128
0.756899
0.57344
0.504007
0.725992
0.760558
0.792632
0.684896
0.685933
0.770299
0.746056
0.794358
0.476967
0.724953
0.354104
0.730675
0.588754
0.743339
0.66339
0.664516
0.763254
0.730634
0.756505
0.786957
0.696528
0.749268
0.775184
0.802147
0.776933
0.807105
0.744002
0.61861
0.707572
0.435674
0.431155
0.730368
0.583841
0.50226
0.732296
0.702242
0.73486
0.580718
0.604108
0.628181
0.522168
0.484732
0.729848
0.736173
0.713947
-0.0965369
0.0533212
0.190135
0.714106
-0.00442693
0.666155
0.702416
0.758979
0.729212
0.432733
0.375242
0.684128
0.676336
0.584485
0.563318
0.748449
0.742786
0.714899
0.330525
0.294334
0.121018
0.712453
-0.10274
0.804009
0.825741
0.822664
0.108077
-0.0342334
0.715628
0.763664
0.669191
0.764315
0.358578
0.330437
0.722931
-0.109047
0.714223
-0.104045
0.787929
0.790205
0.754625
0.791785
0.820279
0.812601
0.284942
0.71835
0.159209
0.782055
0.807006
0.808003
0.811455
0.828416
0.827377
0.748923
0.581078
0.711306
0.778657
0.818131
0.813193
0.801548
0.779805
0.798137
0.717275
0.592943
0.735795
0.722378
0.723972
0.290625
0.283881
0.384399
0.372603
0.387462
0.402796
0.726895
0.741734
0.694496
0.542559
0.769448
0.767283
0.704383
0.574076
0.65873
0.73109
0.0388053
0.711147
-0.00867845
0.720582
0.394097
0.432569
0.21506
0.717669
0.125465
0.716591
-0.15957
-0.127617
-0.223133
0.716747
-0.0645279
0.645129
0.61756
0.74916
0.220097
0.711813
0.16596
0.568167
0.543498
0.745509
0.372776
0.713684
0.195274
0.775713
0.793686
0.779975
0.369687
0.717051
0.334528
0.58851
0.733857
0.671679
0.624967
0.581215
0.745579
0.721028
-0.371844
-0.268119
-0.0830245
0.711731
-0.0274826
0.791396
0.803917
0.780705
0.316185
0.283668
0.719332
0.713476
0.244129
0.300377
0.432925
0.728683
0.376905
0.725678
0.416391
0.527081
0.732105
0.576292
0.738983
0.52844
0.651424
0.742752
0.721819
0.487743
0.322747
0.755752
0.74269
0.688996
0.666816
0.772947
0.772998
0.760994
0.694631
0.773069
0.700872
0.567433
0.750075
0.604974
0.538639
0.736512
0.381336
0.383257
0.723806
0.735197
0.532479
0.56852
-0.206445
0.715817
-0.0163928
0.802611
0.798232
0.800937
0.753096
0.80652
0.764675
0.734651
0.723927
0.755432
0.603919
0.753838
0.643401
-0.0756345
0.711521
-0.0952942
0.339216
0.320202
0.721465
0.753667
0.745692
0.660748
0.629546
0.539625
0.731199
0.727056
0.436975
0.551623
0.0307616
0.0825397
0.715228
0.0848893
0.11018
0.714901
0.68487
0.587408
0.75312
0.79823
0.773912
0.732664
0.400391
0.726155
0.324038
0.626479
0.590475
0.750571
0.740632
0.479446
0.550696
0.732895
0.758792
0.64699
0.691172
0.730808
0.768125
0.780672
0.782011
0.720453
0.724315
0.305178
0.363145
0.60953
0.53944
0.744825
0.799749
0.798288
0.762421
0.445487
0.716417
0.2735
0.76559
0.736392
0.788926
0.773992
0.772511
0.801697
0.6471
0.603088
0.747779
0.261509
0.713913
0.0686929
0.294961
0.713023
0.095021
0.738029
0.46253
0.54687
0.658873
0.737105
0.757538
0.711189
0.000796139
0.207269
0.739749
0.499965
0.534916
0.714926
-0.199297
-0.18396
-0.105158
-0.281092
0.715018
0.725553
0.352963
0.499305
0.71964
0.218074
0.26534
0.435598
0.469512
0.725507
0.32727
0.729384
0.380656
0.520465
0.517489
0.739285
0.739962
0.646657
0.532851
0.814968
0.806829
0.776692
0.551066
0.554049
0.741638
0.742084
0.567216
0.574396
0.514733
0.722216
0.345275
0.722892
0.578193
0.749751
0.745245
0.651449
0.755376
0.625415
0.634318
0.758679
0.610951
0.621534
0.75371
0.805736
0.793337
0.781685
0.737223
0.646393
0.774021
0.715346
0.389933
0.33224
0.0889109
0.713188
0.100418
0.0450853
0.713747
0.0938628
0.773603
0.782686
0.714373
-0.0133376
0.714767
0.0172101
0.579821
0.740456
0.491237
0.711817
-0.00433691
-0.0275243
0.818968
0.81395
0.796981
0.728318
0.705758
0.776783
0.738482
0.669674
0.762587
0.71363
0.253898
0.21578
0.619959
0.596848
0.746242
0.717086
0.41615
0.254556
0.700355
0.686984
0.773763
0.822867
0.814839
0.783772
0.255956
0.244258
0.716408
0.738685
0.473679
0.527983
0.250441
0.209786
0.716866
0.715696
0.103719
0.0584514
0.712019
0.733572
0.77929
0.665498
0.640867
0.753274
0.779842
0.786179
0.810235
0.161879
0.14229
0.172143
0.713538
0.136944
0.711333
0.652603
0.61613
0.760406
0.234726
0.186052
0.226947
0.182877
0.7181
0.716863
0.647304
0.689587
0.76607
0.741133
0.729711
0.781459
0.340526
0.714989
0.16753
0.731313
0.711852
0.776932
0.774377
0.758959
0.79658
0.268011
0.71464
0.108491
0.70395
0.644176
0.764703
0.690136
0.56248
0.734685
0.73701
0.615661
0.752674
0.542913
0.718385
0.455573
0.717929
-0.316411
-0.215144
0.705358
0.703603
0.775353
0.375854
0.720253
0.240986
0.73546
0.581047
0.738323
0.0062358
0.712274
-0.18459
0.797877
0.782935
0.778763
0.751294
0.777781
0.732969
0.786311
0.78303
0.806599
0.786384
0.801524
0.785943
0.756151
0.805801
0.746704
0.724051
0.742247
0.791205
0.743926
0.745463
0.788176
0.710371
0.129059
0.0720196
0.770828
0.713418
0.774603
0.278198
0.249311
0.720131
0.613112
0.584169
0.607019
0.569748
0.752897
0.746718
0.767167
0.74542
0.783741
0.704719
0.61056
0.750326
0.660157
0.650656
0.764891
0.818808
0.808413
0.813846
0.579489
0.577211
0.745697
0.802503
0.797925
0.783425
0.66676
0.685039
0.766085
0.707259
0.637389
0.751973
0.815823
0.813002
0.79581
0.81914
0.797244
0.813866
0.802758
0.78936
0.808254
0.783782
0.818059
0.757779
0.761101
0.758321
0.707982
0.703245
0.781333
0.774357
0.730169
0.431026
0.54247
0.737365
0.589824
0.703248
0.730341
0.731888
0.397517
0.413321
0.506971
0.50506
0.753644
0.748734
0.633936
0.823947
0.824152
0.817652
0.568379
0.551183
0.744406
0.792922
0.791697
0.736436
0.698482
0.626108
0.751977
0.594908
0.602965
0.475166
0.736677
0.496742
0.739395
0.623744
0.595733
0.753036
0.0533915
-0.125852
0.713089
0.731261
0.601267
0.740159
0.732905
0.738217
0.737773
0.594158
0.752164
0.61466
0.557636
0.592433
0.739124
0.712542
0.630464
0.755391
0.757806
0.742323
0.631455
0.739152
0.753919
0.750677
0.770666
0.662564
0.655678
0.733811
0.756534
0.629483
0.6326
0.614233
0.757196
0.806862
0.802432
0.789019
0.320861
0.718913
0.192347
0.751854
0.744364
0.612358
0.711668
0.691105
0.630243
0.61362
0.754543
0.757285
0.720903
0.237658
0.360085
0.348292
0.717621
0.189524
0.31217
0.717201
0.161287
0.576439
0.736955
0.475137
0.724541
0.656271
0.761863
0.300201
0.431411
0.655711
0.308114
0.590342
0.0387537
0.519442
0.390467
0.241488
0.576497
0.572214
0.206081
0.302889
0.57593
0.410534
0.305178
0.33381
0.387676
0.427883
0.530566
0.450578
0.376161
0.592962
0.711399
0.66639
0.440654
0.607353
0.218319
0.477441
0.28694
0.234754
0.513302
0.441957
0.432682
0.269869
0.460708
0.642756
0.589373
0.352806
0.478753
0.351379
0.717585
0.297754
0.573461
0.62341
0.367972
0.379299
0.319992
0.214627
0.297643
0.669662
0.453772
0.308813
0.359741
0.232476
0.662561
0.5326
0.449547
0.312714
0.562952
0.292589
0.307417
0.667434
0.413996
0.448792
0.536147
0.46811
0.710008
0.591343
0.581853
0.179003
0.229499
0.356881
0.552266
0.212761
0.431297
0.430128
0.260849
0.550018
0.622646
0.38731
0.43548
0.222767
0.288629
0.358645
0.562584
0.360656
0.327889
0.405306
0.67689
0.30654
0.563453
0.666173
0.436863
0.304968
-0.0594154
0.275001
0.325611
0.304187
0.174706
0.505332
0.597681
0.638348
0.71842
0.294484
0.304565
0.214332
0.322575
0.278308
0.64012
0.603822
0.530026
0.264281
0.228469
0.494889
0.601652
0.389153
0.327996
0.163233
0.379154
0.427261
0.692609
0.708358
0.556327
0.452197
0.365368
0.210159
0.689672
0.243195
0.548791
0.168535
0.669064
0.225014
0.220483
0.278752
0.620551
0.418992
0.12523
0.292052
0.521877
0.297854
0.567042
0.501334
0.319072
0.619745
0.358619
0.279056
0.632047
0.29755
0.396009
0.209445
0.463047
0.349382
0.626371
0.56193
0.378085
0.552164
0.568769
0.651482
0.434446
0.352408
0.313151
0.570095
0.244121
0.478716
0.22303
0.706478
0.382699
0.630966
0.685011
0.458185
0.694519
0.632399
0.648176
0.256294
0.160742
0.207785
0.655709
0.257019
0.234852
0.234069
0.238504
0.392374
0.358113
0.463138
0.685481
0.558554
0.351825
0.560237
0.34098
0.712248
0.181248
0.610805
0.321337
0.149103
0.672048
0.689248
0.31201
0.326425
0.705842
0.48187
0.348594
0.280759
0.552944
0.640025
0.542728
0.294294
0.314013
0.585294
0.44859
0.27974
0.505621
0.231959
0.247536
0.366381
0.618237
0.171175
0.37859
0.5985
0.353732
0.164333
0.379311
0.313321
0.35441
0.502238
0.514995
0.287252
0.229652
0.266419
0.53423
0.536147
0.377248
0.519372
0.3656
0.258017
0.486225
0.35258
0.14249
0.550235
0.630647
0.465844
0.682929
0.645159
0.714322
0.305863
0.11692
0.405101
0.377436
0.348213
0.180876
0.491101
0.667033
0.549764
0.48167
0.282681
0.383282
0.566144
0.447997
0.521877
0.29963
0.407302
0.348997
0.215562
0.286545
0.320186
0.306679
0.262571
0.519517
0.450884
0.380613
0.52879
0.31926
0.394479
0.298579
0.37998
0.345234
0.336137
0.476093
0.181051
0.107554
0.41178
0.199858
0.166304
0.480682
0.184657
0.169385
0.628084
0.52497
0.289546
0.56048
0.242003
0.512391
0.508669
0.240792
0.31267
0.598625
0.410516
0.564637
0.0345884
0.272838
0.632204
0.341768
0.281469
0.0827709
0.183263
0.153354
0.191443
0.354986
0.526774
0.25695
0.153854
0.279034
0.334155
0.712404
0.29776
0.549615
0.486301
0.204899
0.375399
0.284136
0.225481
0.505181
0.367291
0.666279
0.531481
0.283735
0.358997
0.456763
0.710657
0.557999
0.644
0.562046
0.354364
0.46402
0.392706
0.26986
0.187223
0.328291
0.341133
0.527335
0.305373
0.206927
0.310477
0.363736
0.30429
0.329154
0.611761
0.346975
0.325788
0.662257
0.619175
0.285357
0.454982
0.640706
0.296071
0.17497
0.361468
0.260294
0.225029
0.637816
0.283981
0.382619
0.653354
0.167694
0.459793
0.300988
0.460714
0.364489
0.316305
-0.0381534
0.375922
0.208526
0.326594
0.370292
0.369065
0.555094
0.664982
0.30238
0.447811
0.364409
0.272708
0.136383
0.603015
0.498422
0.332561
0.208074
0.476735
0.205261
0.312995
0.293234
0.275353
0.596547
0.663821
0.346844
0.549229
0.711438
0.608498
0.610722
0.651489
0.343299
0.331556
0.227946
0.708367
0.597892
0.630648
0.313577
0.356181
0.158471
0.562954
0.358919
0.289986
0.631663
0.515408
0.253696
0.37193
0.296303
0.308765
0.299557
0.359918
0.381574
0.252019
0.346408
0.190144
0.376343
0.254872
0.514046
0.42946
0.171511
0.642831
0.657033
0.559023
0.339319
0.467441
0.182206
0.574407
0.449294
0.203735
0.638517
0.110273
0.668612
0.198582
0.393028
0.406319
0.556401
0.581323
0.305384
0.68522
0.312519
0.614082
0.39358
0.515265
0.335407
0.292036
0.321697
0.620803
0.401854
0.70333
0.537569
0.183905
0.301653
0.513583
0.136521
0.343394
0.395354
0.251765
0.672881
0.255175
0.230416
0.584029
0.321858
0.665771
0.697059
0.366065
0.706303
0.681969
0.616267
0.635717
0.483277
0.215144
0.292778
0.37199
0.600768
0.370219
0.113107
0.682918
0.257602
0.388972
0.283793
0.648519
0.709865
0.271552
0.609579
0.484727
0.664694
0.378275
0.567779
0.372712
0.684815
0.700785
0.537999
0.290476
0.586351
0.34157
0.450494
0.435877
0.390389
0.487881
0.322341
0.118383
0.230401
0.403032
0.507912
0.45391
0.634091
0.275107
0.356252
0.510041
0.234056
0.655424
0.291524
0.372669
0.656128
0.622809
0.467934
0.690579
0.290303
0.356278
0.573401
0.429916
0.417714
0.390798
0.323821
0.516142
0.545022
0.324827
0.296967
0.466297
0.183053
0.248238
0.667468
0.711307
0.704781
0.393462
0.717441
0.708685
0.67711
0.133797
0.495473
0.487844
0.692072
0.352604
0.300634
0.21297
0.288158
0.0816992
0.682402
0.406882
0.416937
0.572418
0.537985
0.345252
0.370477
0.708386
0.68862
0.643454
0.533931
0.333854
0.548734
0.517534
0.350348
0.407095
0.233325
0.285692
0.439083
0.419562
0.332967
0.671159
0.665712
0.139889
0.619741
0.308281
0.297954
0.358585
0.665198
0.380968
0.53638
0.401826
0.646765
0.360239
0.403962
0.700608
0.15803
0.179886
0.290843
0.258809
0.110399
-0.0997077
0.272553
0.118167
0.428333
0.13831
0.24427
0.418494
0.314345
0.274368
0.34218
0.219916
-0.0596393
0.68367
0.625062
0.368109
0.208736
0.634578
0.341021
0.300067
0.698558
0.28206
0.696359
0.381124
0.627302
0.39096
0.197184
0.236615
0.44959
0.452479
0.429593
0.200454
0.367562
0.249192
0.261741
0.316656
0.172616
0.225764
0.679025
0.284028
0.544798
0.579828
0.354805
0.603528
0.583486
0.212738
-0.0880208
0.393625
0.188416
0.117179
0.553744
0.559133
0.369589
0.510928
0.345395
0.700758
0.679724
0.393477
0.334079
0.687689
0.63481
0.502536
0.499704
0.356139
0.704788
0.439006
0.13736
0.650044
0.60817
0.667173
0.456818
0.294783
0.354993
0.561751
0.508282
-0.185005
0.717398
0.390562
0.287175
0.444258
0.645891
0.705622
0.70285
0.509042
0.412559
0.588698
0.638272
0.663492
0.545893
0.602826
0.216821
0.303818
0.473398
0.228589
0.211276
0.171524
0.387623
0.584827
0.189918
0.439582
0.308576
0.619372
0.702856
0.403426
0.215396
0.158707
0.57557
0.328925
0.281969
0.164083
0.670686
0.474875
0.488765
0.197222
0.491079
0.283468
0.30127
0.558136
0.580416
0.675568
0.711568
0.272379
0.642355
0.140626
0.653165
0.666353
0.666557
0.590649
0.251497
0.251816
0.374151
0.136155
0.431902
0.168549
0.482984
0.204535
0.631472
0.355843
0.150437
0.622937
0.575198
0.39972
0.410628
0.541481
0.666346
0.476765
0.427806
0.145818
0.608439
0.454185
0.693277
0.116339
0.422229
0.651566
0.560227
0.690503
0.567232
0.369416
0.0921108
0.148115
0.410439
0.183907
0.68075
0.139766
0.322824
0.397216
0.284697
0.602729
0.121308
0.665137
0.563671
0.492505
0.122273
0.5172
0.279076
0.353677
0.408732
0.398178
0.355281
0.335919
0.587821
0.255375
0.717165
0.346872
0.410962
0.53041
0.562169
0.685682
0.356721
0.384646
0.273197
0.408431
0.331675
0.675011
0.286849
0.435322
0.354226
0.610249
0.306711
0.452954
0.221703
0.703386
0.132789
0.249866
0.328045
0.617888
0.156103
0.171166
0.242712
0.207056
0.665207
0.425222
0.543269
0.627284
0.524337
0.441723
0.705007
0.430409
0.569043
0.519915
0.449763
0.171296
0.462996
0.408694
0.326517
0.464259
0.250212
0.18364
0.454168
0.356129
0.25739
0.603053
0.412387
0.54447
0.402921
0.683424
0.393753
0.386099
0.519695
0.203519
0.276153
0.354876
0.449209
0.475189
0.509359
0.661014
0.558426
0.598378
0.459104
0.642744
0.684819
0.680051
0.468144
0.431893
0.483773
0.218593
0.696723
0.633858
0.61294
0.429352
0.250965
0.173497
0.484516
0.559526
0.289102
0.611347
0.633194
0.507688
0.307273
0.453678
0.328175
0.288626
0.431651
0.312192
0.489069
0.164428
0.492576
0.402823
0.394863
0.123661
0.472207
0.444764
0.536436
0.350614
0.479721
0.65849
0.673072
0.491054
0.385643
0.600111
0.453594
0.281706
0.280647
0.385628
0.198614
0.660907
0.415933
0.467258
0.563807
0.549655
0.508861
0.243322
0.709871
0.517689
0.294166
0.42387
0.439369
0.599568
0.652913
0.520002
0.4955
0.158446
0.260813
0.395539
0.503577
0.438005
0.491694
0.315765
0.668698
0.498497
0.602028
0.639256
0.469904
0.291745
0.444553
0.692738
0.323994
0.150041
0.441264
0.701812
0.335414
0.386641
0.589381
0.558913
0.617953
0.425379
0.162716
0.501312
0.215917
0.343431
0.616869
0.415051
0.225294
0.283844
0.33152
0.51556
0.34472
0.318379
0.646987
0.299809
0.706705
0.613591
0.207123
0.103716
0.416521
0.568199
0.635886
0.422473
0.395839
0.281991
0.376119
0.394583
0.711207
0.652538
0.567795
0.349147
0.174058
0.676108
0.707796
0.668734
0.600137
0.650551
0.438767
0.223978
0.130658
0.151486
0.684162
0.442631
0.265637
0.364832
0.707737
0.355404
0.307109
0.193059
0.426221
0.274356
0.729725
0.503218
0.562179
0.647555
0.632115
0.379658
0.523433
0.437241
0.548098
0.313238
0.507815
0.314253
0.673835
0.210393
0.337332
0.255331
0.370289
0.656613
0.364783
0.614164
0.642325
0.650222
0.240468
0.433976
0.395725
0.293763
0.665709
0.456167
0.459323
0.497934
0.0629088
0.369657
0.685809
0.529851
0.66981
0.140883
0.250595
0.362892
0.680343
0.296081
0.400421
0.261146
0.239749
0.353883
0.696871
0.380422
0.401816
0.196779
0.726331
0.69366
0.0687585
0.686381
0.353061
0.242727
0.254381
0.435536
0.192076
0.507883
0.350815
0.340738
0.375793
0.666386
0.423544
0.613709
0.378094
0.238229
0.373362
0.139142
0.173565
0.408586
0.34395
0.469021
0.256847
0.403394
0.638838
0.499685
0.341076
0.18784
0.655456
0.426733
0.404312
0.718479
0.467421
0.334527
0.326533
0.247855
0.68724
0.33107
0.4095
0.51414
0.201649
0.661307
0.221167
0.6437
0.428829
0.581831
0.265679
0.601726
0.400717
0.211751
0.2797
0.426787
0.657645
0.09879
0.29857
0.347638
0.684597
0.716422
0.27338
0.323932
0.502386
0.710456
0.389854
0.663872
0.63336
0.610251
0.581797
0.479667
0.539949
0.525552
0.668699
0.40276
0.448691
0.27446
0.310807
0.399938
0.261273
0.688241
0.228542
0.664212
0.392336
0.680143
0.322891
0.695644
0.578027
0.654527
0.681043
0.657704
0.716504
0.380607
0.642524
0.423792
0.361309
0.300874
0.25839
0.669886
0.230605
0.502825
0.516243
0.393655
0.501695
0.308547
0.67839
0.449861
0.59127
0.12817
0.285654
0.369147
0.737127
0.283839
0.535949
0.318388
0.369985
0.222946
0.384769
0.356493
0.605364
0.673786
0.189175
0.494872
0.363312
0.330854
0.621531
0.284422
0.308142
0.69016
0.152639
0.461641
0.561746
0.653698
0.698803
0.319803
0.301162
0.205161
0.353709
0.295879
0.360985
0.585737
0.345862
0.221672
0.400176
0.434412
0.338126
0.303819
0.346053
0.436816
0.210933
0.594121
0.580488
0.33024
0.591607
0.199919
0.191805
0.279714
0.156108
0.689513
0.36004
0.352777
0.3122
0.633552
0.667709
0.469818
0.583987
0.308484
0.294243
0.437631
0.355593
0.294982
0.668068
0.47866
0.537111
0.694109
0.602476
0.416246
0.682948
0.183912
0.474598
0.468311
0.512685
0.364403
0.68767
0.344477
0.505661
0.421638
0.336327
0.262354
0.30918
0.57813
0.624501
0.644977
0.444493
0.46857
0.685295
0.606589
0.409578
0.465595
0.234917
0.378224
0.610375
0.187091
0.638223
0.353002
0.650988
0.719241
0.671977
0.340936
0.65156
0.634993
0.156229
0.686657
0.310209
0.677111
0.605376
0.365588
0.255163
0.479165
0.383078
0.354568
0.30301
0.618404
0.334204
0.684148
0.24652
0.322093
0.29057
0.244152
0.353273
0.624277
0.701279
0.240396
0.591552
0.445634
0.506164
0.394644
0.500581
0.661681
0.610648
0.356296
0.653925
0.620242
0.696299
0.243685
0.325263
0.303543
0.585069
0.69188
0.62798
0.409613
0.695166
0.423983
0.191407
0.253079
0.0984391
0.407404
0.221089
0.69701
0.706855
0.466935
0.721011
0.613207
0.463476
0.690334
0.231733
0.68778
0.376048
0.66744
0.357342
0.253629
0.579405
0.473837
0.677173
0.661392
0.66533
0.272752
0.269926
0.16614
0.64249
0.608285
0.270407
0.435683
0.610749
0.142254
0.322883
0.2699
0.363575
0.501547
0.358474
0.468688
0.582172
0.45132
0.469044
0.5827
0.354539
0.372041
0.501481
0.456218
0.361324
0.643241
0.678217
0.271167
0.605244
0.131098
0.313983
0.651381
0.595409
0.344112
0.67021
0.228621
0.579377
0.379648
0.378703
0.651043
0.362036
0.591301
0.581335
0.546711
0.709693
0.553559
0.206114
0.521365
0.403514
0.593143
0.709231
0.540098
0.420968
0.294143
0.380892
0.652821
0.239028
0.636262
0.279655
0.48717
0.603078
0.582374
0.443128
0.649195
0.693468
0.365476
0.356292
0.466907
0.268457
0.221902
0.473565
0.58128
0.285166
0.202978
0.286208
0.199723
0.574335
0.419088
0.597976
0.316046
0.668503
0.45133
0.635221
0.706876
0.299663
0.658873
0.357853
0.471245
0.440065
0.646291
0.305091
0.387289
0.447248
0.258205
0.363414
0.251319
0.220484
0.131935
0.690954
0.706155
0.282393
0.316345
0.587522
0.179133
0.282586
0.357385
0.561631
0.573871
0.16592
0.12849
0.661438
0.313767
0.503563
0.310708
0.196956
0.254431
0.479147
0.63494
0.499234
0.187398
0.670207
0.632267
0.282957
0.501348
0.348055
0.705343
0.369332
0.39531
0.215972
0.542646
0.682011
0.515239
0.474473
0.300218
0.413536
0.504678
0.690889
0.725118
0.303023
0.696095
0.310071
0.483528
0.484468
0.408978
0.341367
0.644246
0.370668
0.475794
0.279083
0.302029
0.377848
0.257498
0.547047
0.66851
0.281552
0.320474
0.474849
0.347615
0.293358
0.133052
0.344732
0.653491
0.135106
0.334164
0.57201
0.475134
0.410439
0.535958
0.624714
0.262958
0.266949
0.624931
0.398869
0.260521
0.428451
0.644471
0.537284
0.485051
0.30652
0.306405
0.295876
0.692066
0.627111
0.700815
0.403628
0.555704
0.23443
0.440837
0.635925
0.187443
0.200548
0.580404
0.631119
0.180962
0.327453
0.301188
0.250569
0.29978
0.722666
0.390189
0.321611
0.47371
0.294226
0.577139
0.488398
0.226167
0.330139
0.602384
0.410597
0.693747
0.217602
0.325165
0.526108
0.505959
0.410182
0.506782
0.258832
0.698242
0.696276
0.530236
0.650106
0.289429
0.642978
0.534354
0.523576
0.683308
0.179592
0.33787
0.705833
0.538006
0.170258
0.335211
0.627416
0.702827
0.438541
0.588932
0.302599
0.211551
0.275865
0.161389
0.636061
0.306904
0.452874
0.684883
0.294784
0.265805
0.302446
0.46262
0.318555
0.34252
0.297938
0.242735
0.412306
0.608599
0.679518
0.563586
0.347802
0.33648
0.156552
0.332058
0.522383
0.499695
0.547164
0.575572
0.337884
0.425205
0.620569
0.634616
0.702178
0.652439
0.686903
0.415682
0.227295
0.27659
0.24135
0.692009
0.463672
0.311044
0.68131
0.235634
0.613749
0.576075
0.333893
0.309503
0.337879
0.313868
0.631869
0.383718
0.562791
0.429503
0.676567
0.495815
0.708896
0.274606
0.431634
0.325157
0.123149
0.351376
0.597952
0.248245
0.0384099
0.484009
0.686571
0.594495
0.311832
0.216497
0.28121
0.238372
0.312645
0.240256
0.406863
0.250467
0.582528
0.278481
0.316304
0.683861
0.422222
0.543093
0.623111
0.396309
0.452085
0.267681
0.60053
0.377573
0.337997
0.398932
0.260856
0.210803
0.312203
0.299512
0.592605
0.702795
0.641239
0.487948
0.569233
0.188181
0.69732
0.49022
0.582665
0.30969
0.572426
0.339393
0.358928
0.611967
0.681145
0.5969
0.491517
0.370448
0.70663
0.361255
0.616011
0.689102
0.55123
0.383714
0.181545
0.615339
0.478457
0.249514
0.536449
0.470034
0.673616
0.30191
0.686489
0.702902
0.400593
0.276884
0.686088
0.221285
0.256546
0.358625
0.250577
0.345104
0.262723
0.219961
0.427334
0.318729
0.277849
0.339277
0.498332
0.313044
0.296088
0.529318
0.453343
0.201392
0.668321
0.716211
0.693583
0.308194
0.190445
0.712865
0.21003
0.413362
0.290304
0.360305
0.308212
0.579619
0.349315
0.3484
0.200122
0.18582
0.252311
0.35295
0.177089
0.438311
0.477713
0.425278
0.67783
0.469905
0.540327
0.380964
0.628246
0.355505
0.360027
0.735691
0.357924
0.47011
0.220865
0.552814
0.707537
0.383602
0.510846
0.470971
0.331627
0.300561
0.291165
0.250892
0.585607
0.262732
0.395751
0.347964
0.402126
0.283108
0.293373
0.412575
0.375568
0.330736
0.720656
0.418535
0.381903
0.486573
0.679417
0.36179
0.189583
0.605969
0.223469
0.379876
0.304288
0.41937
0.339242
0.367948
0.419575
0.697707
0.638926
0.197263
0.329606
0.185956
0.292569
0.167564
0.256352
0.350076
0.271962
0.357399
0.526342
0.716414
0.351896
0.573073
0.446293
0.690964
0.346771
0.705551
0.517074
0.23422
0.519249
0.583643
0.357121
0.637145
0.304562
0.646601
0.316913
0.0650832
0.423556
0.714992
0.706673
0.585437
0.530198
0.561394
0.197451
0.327834
0.560855
0.708668
0.0924492
0.423385
0.305428
0.353583
0.403937
0.282444
0.235223
0.312508
0.254744
0.322942
0.36866
0.40113
0.707678
0.631576
0.166621
0.606668
0.270654
0.284235
0.615107
0.315311
0.378541
0.546981
0.137919
0.289256
0.436479
0.640613
0.24066
0.301559
0.374886
0.522263
0.240505
0.676156
0.185957
0.355516
0.377116
0.308475
0.529669
0.526009
0.679091
0.300176
0.593244
0.478328
0.516468
0.30197
0.528075
0.270057
0.227511
0.145397
0.486985
0.42072
0.377887
0.659536
0.426904
0.480007
0.524823
0.283595
0.259133
0.356064
0.493546
0.313406
0.714812
0.223665
0.186584
0.355656
0.351422
0.315241
0.296168
0.572375
0.357929
0.431423
0.241817
0.307652
0.425855
0.230676
0.712724
0.711825
0.247473
0.281779
0.63469
0.446063
0.290877
0.21551
0.287943
0.248907
0.474578
0.664994
0.292682
0.19657
0.525022
0.418138
0.187246
0.243807
0.414671
0.56601
0.725837
0.232223
0.182947
0.495968
0.636062
0.385446
0.477953
0.369949
0.305078
0.360841
0.521633
0.415257
0.30813
0.607099
0.37321
0.147726
0.468363
0.317034
0.6127
0.70901
0.318202
0.349542
0.3516
0.34978
0.232042
0.362605
0.248322
0.681144
0.619077
0.56382
0.352493
0.204052
0.598355
0.694872
0.29548
0.462579
0.343008
0.131495
0.445232
0.357243
0.130564
0.302787
0.531663
0.231704
0.189959
0.250815
0.637678
0.217447
0.607821
0.405818
0.302905
0.370266
0.275364
0.613491
0.157248
0.361064
0.391755
0.226004
0.478484
0.562165
0.492384
0.421062
0.590843
0.244326
0.246023
0.662912
0.302118
0.657769
0.497022
0.384095
0.475117
0.641686
0.418411
0.182956
0.674564
0.294843
0.39464
0.644027
0.285637
0.686601
0.294659
0.375805
0.149203
0.377273
0.251609
0.433538
0.258301
0.150128
0.245846
0.24128
0.137739
0.664682
0.241175
0.369829
0.486511
0.427646
0.697449
0.6995
0.335655
0.425177
0.618321
0.322614
0.666073
0.151263
0.369795
0.465719
0.299867
0.623359
0.343648
0.353355
0.33186
0.298521
0.294042
0.152885
0.645912
-0.0409425
0.69278
0.565362
0.259364
0.189555
0.257713
0.727622
0.567546
0.532516
0.413813
0.481638
0.394776
0.643349
0.599259
0.278138
0.512081
0.695137
0.405889
0.458599
0.520719
0.172433
0.241937
0.621921
0.367609
0.399503
0.68699
0.234656
0.155689
0.311621
0.397717
0.405489
0.716079
0.294209
0.209806
0.293048
0.394997
0.299435
0.655266
0.415333
0.2623
0.342807
0.295419
0.285872
0.34171
0.516379
0.447638
0.269409
0.655407
0.363326
0.642304
0.270344
0.235147
0.364197
0.648514
0.692719
0.626132
0.436587
0.413638
0.61046
0.7061
0.224834
0.666982
0.250776
0.538377
0.517781
0.653554
0.433481
0.639215
0.675576
0.31525
0.310706
0.370905
0.429468
0.251417
0.265579
0.225288
0.57925
0.62442
0.218497
0.674061
0.433118
0.594794
0.409019
0.260686
0.62063
0.60075
0.34659
0.33183
0.25027
0.701225
0.572927
0.710702
0.219541
0.250444
0.393563
0.630217
0.525815
0.67651
0.461176
0.711485
0.311167
0.384083
0.458986
0.327956
0.500827
0.184488
0.610225
0.418648
0.463502
0.668393
0.208594
0.222168
0.160079
0.49809
0.648303
0.33097
0.530257
0.197225
0.206044
0.404814
0.315494
0.294715
0.666194
0.439818
0.283273
0.386247
0.490207
0.684489
0.499367
0.377376
0.645375
0.435712
0.687969
0.446927
0.561381
0.379744
0.217012
0.717308
0.264386
0.4777
0.485808
0.662853
0.550262
0.41652
0.311352
0.705667
0.390259
0.268357
0.584601
0.69838
0.573378
0.531826
0.207212
0.14135
0.463715
0.273765
0.37438
0.449527
0.269192
0.681049
0.703977
0.67302
0.327145
0.363215
0.29655
0.349051
0.550923
0.236218
0.547087
0.681125
0.226962
0.35027
0.306952
0.626638
0.53281
0.362827
0.276742
0.571218
0.294246
0.175466
0.244248
0.715009
0.152715
0.605975
0.514374
0.301293
0.701593
0.473372
0.731882
0.134095
0.353798
0.466294
0.671622
0.352259
0.665398
0.474993
0.152318
0.418447
0.320007
0.360789
0.143166
0.60421
0.3527
0.275406
0.182979
0.422889
0.670575
0.086036
0.336736
0.646514
0.379823
0.640975
0.145509
0.296076
0.300205
0.392306
0.321047
0.206915
0.292612
0.0991503
0.373683
0.376577
0.596329
0.463
0.649146
0.283641
0.362987
0.21064
0.441951
0.0991603
0.369226
0.710493
0.401788
0.33754
0.721524
0.273442
0.478857
0.52406
0.199414
0.327211
0.421195
0.483357
0.680135
0.697686
0.697849
0.494273
0.383163
0.385341
0.255961
0.637931
0.544397
0.302846
0.341558
0.332354
0.413521
0.732476
0.382627
0.732622
0.341811
0.526868
0.259669
0.296429
0.203918
0.317582
0.660478
0.337663
0.220783
0.253309
0.71176
0.334706