/*--------------------------------*- C++ -*----------------------------------*\
  =========                 |
  \\      /  F ield         | OpenFOAM: The Open Source CFD Toolbox
   \\    /   O peration     | Website:  https://openfoam.org
    \\  /    A nd           | Version:  6
     \\/     M anipulation  |
\*---------------------------------------------------------------------------*/
FoamFile
{
    version     2.0;
    format      ascii;
    class       volScalarField;
    location    "0";
    object      p;
}
// * * * * * * * * * * * * * * * * * * * * * * * * * * * * * * * * * * * * * //

dimensions      [0 2 -2 0 0 0 0];

internalField   nonuniform List<scalar> 
13046
(
0.658481
0.642621
0.707337
0.655053
0.694909
0.661701
0.643397
0.664329
0.703786
0.550203
0.536879
0.723929
0.644871
0.634239
0.708728
0.587713
0.72513
0.534652
0.686292
0.683017
0.649725
0.581093
0.725169
0.536912
0.6592
0.661075
0.696724
0.642313
0.630978
0.714752
0.664592
0.630478
0.704244
0.66776
0.692615
0.658824
0.665869
0.691655
0.665623
0.680038
0.70545
0.611632
0.667711
0.683167
0.673938
0.662053
0.680267
0.679651
0.650103
0.645414
0.708635
0.696177
0.696159
0.580413
0.702548
0.570086
0.702417
0.548448
0.646154
0.723185
0.600637
0.647831
0.71412
0.721435
0.582077
0.582962
0.655838
0.547702
0.720773
0.660314
0.551697
0.719139
0.540468
0.642847
0.724197
0.687148
0.69219
0.639738
0.726521
0.626017
0.546515
0.653546
0.661164
0.697997
0.7223
0.573572
0.575921
0.557546
0.721628
0.611446
0.723221
0.524371
0.628928
0.619195
0.60954
0.61296
0.610994
0.717053
0.720123
0.722109
0.5541
0.622457
0.659235
0.684922
0.676528
0.705093
0.588964
0.69415
0.689935
0.703788
0.593209
0.519137
0.724696
0.492759
0.647614
0.641706
0.704537
0.6192
0.622814
0.589863
0.720757
0.60209
0.718917
0.545614
0.522499
0.724719
0.635561
0.611558
0.717777
0.675097
0.70642
0.613047
0.720362
0.529925
0.643561
0.591665
0.608458
0.719608
0.660883
0.627549
0.70587
0.616586
0.674693
0.705165
0.691989
0.698191
0.591659
0.701285
0.598977
0.695705
0.600547
0.637453
0.714271
0.703425
0.621674
0.681804
0.687189
0.567575
0.6809
0.566313
0.70913
0.712099
0.61221
0.670724
0.701263
0.544135
0.723387
0.548783
0.531337
0.724154
0.502439
0.591076
0.597581
0.721787
0.67849
0.58779
0.712613
0.613399
0.698244
0.675989
0.725451
0.569228
0.539116
0.678843
0.596566
0.706737
0.703735
0.613709
0.68281
0.623318
0.673459
0.701252
0.634463
0.713032
0.636512
0.622374
0.713682
0.561649
0.721464
0.589775
0.720609
0.545869
0.636877
0.534624
0.620851
0.720181
0.69984
0.559721
0.69676
0.634144
0.63035
0.726466
0.54075
0.603466
0.533714
0.723126
0.658501
0.692303
0.6699
0.648996
0.629928
0.713545
0.721647
0.538309
0.645488
0.628948
0.642094
0.713678
0.72452
0.529465
0.525957
0.699948
0.558758
0.696158
0.543325
0.628297
0.720474
0.587422
0.676907
0.70966
0.636769
0.611777
0.718852
0.666721
0.536885
0.71579
0.556567
0.678111
0.712239
0.724504
0.534097
0.51563
0.689866
0.709127
0.587335
0.539191
0.723843
0.462192
0.686983
0.651412
0.678725
0.596076
0.596152
0.668226
0.674512
0.709774
0.707531
0.724332
0.618661
0.538218
0.64487
0.613313
0.715329
0.555277
0.665619
0.716223
0.604831
0.600578
0.720457
0.67352
0.666959
0.683943
0.57748
0.673694
0.711226
0.648263
0.600674
0.716819
0.632583
0.62908
0.692939
0.707311
0.578946
0.577014
0.664756
0.712654
0.595076
0.72156
0.600786
0.694242
0.698735
0.600419
0.71061
0.559847
0.686117
0.634782
0.584428
0.718736
0.695183
0.699203
0.578077
0.628854
0.621967
0.581037
0.720436
0.580459
0.72255
0.724259
0.573129
0.548322
0.62937
0.605044
0.719618
0.448901
0.724583
0.506191
0.636877
0.690568
0.678555
0.609253
0.649757
0.712382
0.721682
0.57111
0.598468
0.702779
0.560495
0.703761
0.65661
0.538096
0.718217
0.654594
0.709093
0.612172
0.638724
0.71557
0.653235
0.707013
0.596023
0.723894
0.543437
0.706958
0.550964
0.698343
0.605788
0.636093
0.716491
0.611499
0.672264
0.70767
0.590371
0.690825
0.700724
0.65471
0.650298
0.702872
0.704813
0.561352
0.690741
0.551142
0.602367
0.720871
0.658384
0.541253
0.719036
0.667822
0.715418
0.560409
0.62684
0.631547
0.567284
0.559008
0.721287
0.721156
0.724027
0.457014
0.515495
0.546569
0.724111
0.468934
0.590844
0.666207
0.707733
0.721435
0.56085
0.577023
0.650728
0.645288
0.572904
0.56931
0.720971
0.720294
0.722013
0.596908
0.514783
0.536115
0.724481
0.444813
0.653569
0.680933
0.686379
0.52377
0.471794
0.724251
0.670544
0.591903
0.711574
0.538024
0.577623
0.724925
0.470911
0.724892
0.476602
0.681694
0.70046
0.618252
0.641708
0.68283
0.692786
0.553612
0.725054
0.514585
0.63517
0.681576
0.694812
0.658949
0.680322
0.68413
0.707002
0.547721
0.700312
0.631879
0.693685
0.687894
0.638411
0.680866
0.686633
0.673736
0.561637
0.714257
0.72618
0.725921
0.54246
0.545483
0.566571
0.560931
0.540816
0.601269
0.722318
0.721433
0.667885
0.547872
0.681911
0.704858
0.597995
0.549793
0.678901
0.710133
0.518791
0.724971
0.481287
0.723637
0.525234
0.619977
0.532822
0.72469
0.516489
0.723838
0.45569
0.477058
0.427037
0.723062
0.496772
0.653073
0.578332
0.713725
0.572479
0.723252
0.498379
0.582104
0.61397
0.720364
0.584958
0.72518
0.502777
0.641164
0.705772
0.657863
0.605489
0.722989
0.518652
0.551847
0.708492
0.68175
0.660052
0.558417
0.717721
0.722411
0.386731
0.457586
0.471663
0.725392
0.492603
0.647397
0.703201
0.656464
0.589493
0.519567
0.722732
0.724691
0.505377
0.593385
0.566051
0.722649
0.574816
0.724436
0.552255
0.607249
0.681632
0.552143
0.716927
0.560677
0.641325
0.724037
0.725795
0.606882
0.523569
0.659149
0.655844
0.605571
0.600362
0.7133
0.715939
0.665524
0.603387
0.712409
0.658314
0.561788
0.722967
0.659664
0.549907
0.717132
0.595593
0.536832
0.725138
0.717426
0.555041
0.644038
0.425824
0.722763
0.507099
0.676065
0.67055
0.70458
0.622594
0.705503
0.630372
0.666409
0.666202
0.715926
0.569736
0.718133
0.581456
0.482392
0.724429
0.474963
0.592111
0.526863
0.722442
0.685724
0.704333
0.580527
0.672135
0.542543
0.714637
0.72426
0.553048
0.613925
0.502971
0.506719
0.724465
0.520402
0.506836
0.724734
0.642283
0.579481
0.721903
0.695061
0.692571
0.607452
0.561922
0.723022
0.559681
0.652203
0.568774
0.718557
0.722894
0.583814
0.593346
0.671777
0.716852
0.579447
0.589055
0.681403
0.704851
0.684669
0.704607
0.603451
0.72376
0.561175
0.551135
0.60965
0.589565
0.721712
0.680535
0.700334
0.624193
0.599842
0.726117
0.513784
0.659762
0.622044
0.711235
0.628489
0.671481
0.701348
0.66238
0.566687
0.714134
0.560761
0.725476
0.481277
0.569943
0.725565
0.482724
0.723467
0.574522
0.597303
0.577879
0.690517
0.704038
0.725764
0.465285
0.551627
0.720343
0.606155
0.574521
0.723603
0.445061
0.468288
0.491876
0.410422
0.723968
0.725563
0.534651
0.604287
0.724237
0.546733
0.534004
0.57899
0.582677
0.722659
0.547381
0.722764
0.561239
0.567562
0.617538
0.720488
0.71745
0.679589
0.538417
0.670032
0.698483
0.641918
0.565005
0.631541
0.719759
0.719022
0.564715
0.638052
0.616506
0.725611
0.523072
0.666162
0.561496
0.719646
0.666852
0.58818
0.71189
0.586302
0.641946
0.719109
0.580192
0.642393
0.718573
0.680905
0.693252
0.633643
0.657496
0.590603
0.719436
0.723917
0.615576
0.513821
0.497952
0.724757
0.531088
0.487272
0.724711
0.53572
0.674191
0.709697
0.605571
0.495643
0.724204
0.495512
0.606353
0.722586
0.576776
0.725507
0.502994
0.482492
0.655172
0.692188
0.667754
0.629245
0.636402
0.713454
0.691393
0.580315
0.702135
0.722506
0.579013
0.506496
0.651904
0.56761
0.716935
0.725172
0.590837
0.515677
0.619543
0.63319
0.718306
0.671135
0.697617
0.645561
0.570718
0.515973
0.724349
0.722837
0.592622
0.579983
0.551064
0.543832
0.723815
0.723996
0.500246
0.490738
0.605807
0.665519
0.710222
0.656985
0.583719
0.710936
0.63655
0.666524
0.70515
0.548298
0.50308
0.554918
0.725213
0.498755
0.724454
0.605979
0.619166
0.720056
0.519246
0.512404
0.560227
0.550794
0.724278
0.723645
0.582508
0.664411
0.716142
0.622086
0.651918
0.711395
0.575616
0.72606
0.499853
0.613458
0.653079
0.709744
0.633248
0.659816
0.703363
0.556525
0.725275
0.495088
0.624894
0.616669
0.71486
0.693419
0.543385
0.709597
0.676902
0.567836
0.715975
0.654934
0.71929
0.527697
0.723155
0.405026
0.46834
0.613751
0.645888
0.712881
0.575103
0.723806
0.524642
0.711958
0.550264
0.690211
0.511459
0.725204
0.431675
0.696644
0.694331
0.687088
0.615401
0.692482
0.608002
0.636312
0.671017
0.699482
0.686043
0.692081
0.696058
0.618122
0.697383
0.615598
0.619399
0.655519
0.711752
0.619818
0.660487
0.710977
0.724897
0.546835
0.48814
0.668646
0.609466
0.708038
0.530024
0.558737
0.724721
0.587786
0.58234
0.631691
0.623646
0.717762
0.717852
0.664232
0.621944
0.709062
0.652908
0.580959
0.718013
0.601515
0.635099
0.718883
0.673524
0.655863
0.689384
0.573964
0.632104
0.718933
0.671319
0.697271
0.640178
0.592093
0.65587
0.71532
0.648335
0.592323
0.717802
0.673827
0.677351
0.647384
0.696146
0.644087
0.694995
0.68352
0.689272
0.691391
0.634494
0.698306
0.621571
0.657119
0.650879
0.614195
0.617339
0.713284
0.71223
0.723335
0.558155
0.605344
0.70584
0.551893
0.694807
0.724869
0.724403
0.554283
0.563469
0.597214
0.591519
0.694937
0.70635
0.567314
0.6722
0.684816
0.666408
0.575621
0.622205
0.719492
0.674532
0.705477
0.617834
0.643743
0.591737
0.718526
0.620591
0.618025
0.559747
0.724078
0.569307
0.722848
0.597182
0.619769
0.718398
0.518123
0.446954
0.725188
0.707578
0.556248
0.691534
0.684181
0.684262
0.713025
0.557169
0.716002
0.562603
0.55755
0.649641
0.717646
0.657317
0.583482
0.718441
0.691782
0.70588
0.567914
0.679121
0.678618
0.708528
0.715627
0.581503
0.580089
0.679891
0.715832
0.569607
0.59541
0.627355
0.718942
0.676371
0.69546
0.640116
0.561633
0.723849
0.520814
0.691388
0.709974
0.56156
0.642618
0.635403
0.596332
0.594054
0.716366
0.720679
0.724208
0.528128
0.567177
0.572032
0.725397
0.508535
0.563613
0.724558
0.508336
0.609794
0.72334
0.568189
0.658772
0.591598
0.71689
0.659208
0.717838
0.733847
0.663282
0.73871
0.547175
0.730851
0.658801
0.690993
0.732257
0.730254
0.687757
0.668754
0.737266
0.719984
0.683867
0.656342
0.723078
0.718731
0.726261
0.722521
0.717922
0.729637
0.725923
0.73667
0.720176
0.742294
0.691623
0.727788
0.658052
0.696373
0.727232
0.728683
0.718757
0.703687
0.733012
0.734201
0.731673
0.667503
0.690145
0.719224
0.722067
0.707704
0.73471
0.712253
0.720501
0.723655
0.71971
0.688255
0.710866
0.73221
0.718346
0.686112
0.730082
0.695157
0.730123
0.729429
0.728784
0.723903
0.734357
0.710928
0.708703
0.735853
0.664611
0.731076
0.729242
0.726846
0.724364
0.731268
0.712847
0.699667
0.706939
0.703552
0.728164
0.702242
0.716318
0.709445
0.701992
0.729877
0.731368
0.720273
0.727609
0.686746
0.689762
0.722271
0.733448
0.721369
0.655474
0.723189
0.731592
0.689373
0.734454
0.737519
0.717691
0.673883
0.502633
0.70445
0.721721
0.67398
0.697232
0.734016
0.730364
0.715335
0.721632
0.685183
0.645695
0.686237
0.694732
0.706174
0.733478
0.730501
0.723294
0.693004
0.708273
0.69214
0.715708
0.725648
0.657503
0.696231
0.719515
0.722058
0.726472
0.716456
0.728376
0.724803
0.703406
0.693902
0.731709
0.628614
0.72769
0.699427
0.728694
0.688391
0.579101
0.649443
0.730387
0.714426
0.683352
0.701636
0.727823
0.677045
0.732336
0.70327
0.698421
0.721122
0.730909
0.684956
0.732252
0.701248
0.726915
0.688181
0.721368
0.669007
0.737102
0.732886
0.722247
0.730029
0.732676
0.732614
0.71011
0.701486
0.696772
0.722615
0.628646
0.679635
0.688308
0.725944
0.722643
0.729231
0.731083
0.72486
0.731891
0.737965
0.732063
0.684908
0.695818
0.69181
0.732013
0.689992
0.683894
0.616924
0.684975
0.721975
0.727042
0.727971
0.732176
0.731186
0.716377
0.738472
0.725132
0.723327
0.571629
0.716819
0.706879
0.69972
0.729073
0.728926
0.704091
0.720426
0.726504
0.727468
0.645988
0.703246
0.727539
0.734859
0.709164
0.686803
0.724508
0.72476
0.719572
0.717351
0.64946
0.608334
0.698902
0.704901
0.687808
0.697394
0.653413
0.729911
0.72245
0.697301
0.72787
0.689982
0.684961
0.728858
0.72839
0.683564
0.685148
0.643377
0.726692
0.692225
0.711604
0.723878
0.731607
0.691172
0.724784
0.716269
0.688871
0.685765
0.731363
0.722884
0.721855
0.736359
0.722674
0.678753
0.686902
0.723128
0.725542
0.683221
0.700514
0.727369
0.729727
0.735985
0.723517
0.682967
0.717469
0.700097
0.725487
0.720957
0.7006
0.7258
0.718002
0.601129
0.68997
0.702118
0.685443
0.710322
0.72797
0.724761
0.725574
0.730389
0.677583
0.720466
0.715023
0.725937
0.714147
0.725475
0.725225
0.692483
0.676316
0.720797
0.687706
0.683252
0.721889
0.586641
0.685974
0.733831
0.724256
0.697727
0.68531
0.697374
0.72443
0.648717
0.599843
0.680306
0.720708
0.723619
0.728513
0.542409
0.678664
0.735704
0.717008
0.651783
0.67484
0.68887
0.693863
0.684457
0.72837
0.729552
0.696295
0.691715
0.709268
0.709929
0.723815
0.635858
0.72866
0.726227
0.586149
0.696121
0.687471
0.69587
0.727747
0.728836
0.72899
0.70457
0.679015
0.718719
0.719656
0.72701
0.711314
0.733578
0.728823
0.714143
0.728576
0.723343
0.706904
0.692227
0.719101
0.664736
0.720084
0.721713
0.696035
0.683301
0.674527
0.68036
0.659942
0.734163
0.68417
0.703374
0.722061
0.726215
0.692308
0.673613
0.735759
0.705539
0.581093
0.716735
0.695917
0.690149
0.735938
0.71693
0.707072
0.72126
0.696945
0.724395
0.699172
0.727868
0.719781
0.711111
0.506523
0.680862
0.697852
0.706893
0.721553
0.72043
0.72754
0.732849
0.675452
0.696631
0.670663
0.628386
0.689265
0.734421
0.706861
0.707971
0.702397
0.722251
0.68739
0.659473
0.677069
0.69514
0.684768
0.738169
0.711725
0.71345
0.727742
0.731368
0.721802
0.735702
0.654579
0.705558
0.690098
0.725868
0.7251
0.729415
0.718523
0.716826
0.700258
0.7158
0.687946
0.631248
0.727217
0.709737
0.633459
0.679201
0.697723
0.68334
0.69935
0.719308
0.725068
0.682024
0.702784
0.69059
0.696986
0.691699
0.704297
0.647137
0.698461
0.732502
0.731418
0.729876
0.729081
0.726377
0.576034
0.728221
0.722686
0.677505
0.734068
0.562394
0.729248
0.706739
0.725268
0.711845
0.726662
0.714011
0.676106
0.728266
0.67143
0.737272
0.727593
0.68631
0.705727
0.658877
0.711757
0.739053
0.704282
0.726918
0.72621
0.689668
0.643611
0.729606
0.57444
0.729323
0.726544
0.689262
0.733472
0.620804
0.615316
0.731431
0.721845
0.729279
0.728237
0.717022
0.727325
0.732023
0.730585
0.730199
0.731882
0.686447
0.709049
0.721589
0.733376
0.70864
0.557097
0.727983
0.699892
0.716531
0.707282
0.733624
0.725267
0.713106
0.732307
0.718314
0.734368
0.678285
0.731767
0.711358
0.729311
0.726459
0.736103
0.706783
0.722635
0.684113
0.659788
0.720063
0.708166
0.721033
0.653518
0.571065
0.689153
0.710659
0.726601
0.714429
0.7389
0.709579
0.683685
0.718929
0.689857
0.73208
0.663045
0.711153
0.720963
0.735309
0.715205
0.728707
0.675053
0.722647
0.734722
0.691793
0.649706
0.723341
0.709692
0.728443
0.733972
0.709337
0.689928
0.719714
0.694675
0.68243
0.729912
0.727546
0.726971
0.652679
0.726909
0.725351
0.732115
0.694317
0.733575
0.725901
0.727013
0.729207
0.667895
0.693058
0.705856
0.549148
0.728595
0.721203
0.71909
0.731888
0.734119
0.718726
0.713013
0.724528
0.73135
0.730315
0.726234
0.715596
0.708896
0.7329
0.726978
0.70404
0.708166
0.711999
0.71079
0.727463
0.69969
0.725559
0.731533
0.69003
0.731616
0.696166
0.682356
0.697416
0.728155
0.719073
0.724035
0.725197
0.729834
0.724428
0.727752
0.728232
0.706001
0.691874
0.680664
0.68486
0.681874
0.49328
0.691897
0.691968
0.728303
0.690624
0.71041
0.725678
0.710301
0.688132
0.700573
0.710096
0.504412
0.73166
0.701525
0.726715
0.688956
0.698729
0.716628
0.667294
0.727472
0.69419
0.7291
0.710382
0.731422
0.648705
0.606339
0.707123
0.710695
0.714699
0.728546
0.607855
0.727663
0.716269
0.689019
0.668252
0.703873
0.708517
0.729643
0.657991
0.726889
0.732279
0.731003
0.67472
0.732326
0.690558
0.495754
0.725406
0.694226
0.682395
0.734583
0.729857
0.724758
0.72926
0.712685
0.729705
0.732798
0.720953
0.71146
0.729283
0.735415
0.733165
0.727615
0.723913
0.727866
0.691197
0.689404
0.731907
0.737334
0.733543
0.72215
0.713965
0.697124
0.729483
0.727447
0.464706
0.722071
0.724454
0.683478
0.721297
0.705911
0.724913
0.726128
0.72506
0.697904
0.72884
0.73414
0.716327
0.732905
0.735619
0.610768
0.68347
0.716254
0.688842
0.61304
0.694774
0.725001
0.731627
0.697654
0.716622
0.664911
0.68248
0.725559
0.719125
0.693777
0.690518
0.666005
0.721156
0.700301
0.701572
0.712439
0.726666
0.727674
0.681639
0.73172
0.704561
0.694672
0.724066
0.729512
0.718019
0.722835
0.689166
0.731272
0.691823
0.735394
0.730058
0.732423
0.735497
0.687729
0.687115
0.72263
0.684961
0.689085
0.701538
0.691869
0.683092
0.713393
0.728807
0.68822
0.733751
0.699228
0.718351
0.725782
0.72947
0.724349
0.732613
0.720947
0.691084
0.735493
0.652492
0.725548
0.68563
0.728239
0.731446
0.733221
0.728379
0.73842
0.727461
0.674067
0.692879
0.723201
0.706397
0.732416
0.67492
0.662205
0.717858
0.719606
0.693957
0.690072
0.709744
0.727743
0.727961
0.5751
0.699192
0.648745
0.667542
0.718838
0.717637
0.720143
0.710594
0.733227
0.68378
0.727325
0.724352
0.64543
0.729797
0.701941
0.721716
0.719057
0.709317
0.683084
0.697738
0.722441
0.72942
0.703289
0.721795
0.725315
0.733186
0.711046
0.719024
0.706273
0.726239
0.685896
0.683874
0.628053
0.725931
0.688873
0.704433
0.690601
0.699219
0.732952
0.717205
0.729166
0.730851
0.730231
0.637694
0.724856
0.664784
0.709261
0.730692
0.702456
0.692418
0.711642
0.717387
0.675366
0.701071
0.634591
0.690966
0.722351
0.636968
0.69883
0.737679
0.68573
0.674114
0.717679
0.728439
0.714774
0.673175
0.727565
0.695527
0.699663
0.724745
0.710494
0.727299
0.724944
0.737617
0.700452
0.730143
0.729655
0.729508
0.727572
0.728497
0.640767
0.697729
0.719434
0.682113
0.726703
0.734347
0.732526
0.722634
0.683215
0.68754
0.720715
0.736121
0.673051
0.733294
0.726252
0.731934
0.683958
0.67054
0.687662
0.651662
0.721057
0.671944
0.727326
0.703264
0.730416
0.682318
0.721564
0.688773
0.725668
0.732437
0.726372
0.716118
0.728289
0.731793
0.733929
0.721729
0.711974
0.730177
0.726779
0.699767
0.70933
0.725778
0.69841
0.736937
0.717271
0.726778
0.728125
0.732765
0.695927
0.63114
0.729321
0.709116
0.715922
0.722313
0.72489
0.729528
0.729387
0.707287
0.727123
0.684706
0.70439
0.718039
0.732578
0.72593
0.719192
0.721098
0.734812
0.72388
0.688794
0.731933
0.725727
0.685939
0.702466
0.731861
0.705243
0.686264
0.701336
0.73224
0.71418
0.724146
0.730095
0.738418
0.732814
0.726288
0.688197
0.728963
0.705898
0.715458
0.733438
0.720662
0.683703
0.673271
0.715771
0.728636
0.697075
0.683274
0.728892
0.719466
0.724294
0.730104
0.685323
0.683855
0.711694
0.735562
0.734735
0.720778
0.718061
0.644531
0.724139
0.706679
0.724042
0.731408
0.739206
0.681668
0.683276
0.709979
0.727741
0.732047
0.732632
0.725834
0.705857
0.711392
0.6828
0.686136
0.721238
0.726948
0.603987
0.691182
0.726598
0.722385
0.682654
0.689679
0.724018
0.708473
0.71483
0.726297
0.719777
0.730131
0.736771
0.715619
0.725446
0.712765
0.703499
0.701862
0.730332
0.710039
0.728587
0.608894
0.725985
0.588934
0.716705
0.732024
0.731514
0.731344
0.737413
0.730319
0.701579
0.716169
0.719524
0.659029
0.731337
0.725344
0.698138
0.726222
0.550597
0.690606
0.710284
0.728424
0.733857
0.685468
0.690157
0.722735
0.728331
0.613231
0.700865
0.713706
0.626335
0.67404
0.710233
0.673758
0.718344
0.687921
0.715235
0.728427
0.550445
0.704977
0.726523
0.70144
0.686369
0.719839
0.709255
0.711645
0.693252
0.722841
0.713843
0.691249
0.71883
0.734514
0.703089
0.683155
0.709689
0.684297
0.692994
0.717606
0.642662
0.702702
0.704133
0.724209
0.72624
0.72047
0.722795
0.600544
0.7156
0.716185
0.708436
0.726427
0.717257
0.722678
0.618677
0.606926
0.728152
0.689572
0.722383
0.730786
0.706423
0.718248
0.601494
0.72682
0.712967
0.734247
0.71442
0.703456
0.720554
0.691486
0.70524
0.71069
0.738294
0.683771
0.686223
0.709898
0.732935
0.722706
0.640338
0.712517
0.710042
0.707659
0.70892
0.733269
0.730974
0.73266
0.735542
0.725318
0.688577
0.667391
0.731055
0.700652
0.715681
0.644107
0.681997
0.692814
0.68407
0.726732
0.620525
0.726271
0.703232
0.72784
0.723846
0.72699
0.732564
0.701075
0.729108
0.731432
0.72661
0.722209
0.730611
0.702373
0.726637
0.691778
0.70246
0.733951
0.621839
0.720006
0.729058
0.720914
0.718181
0.719542
0.721381
0.718757
0.724657
0.688357
0.690447
0.729119
0.714936
0.641763
0.729724
0.68696
0.72758
0.686195
0.716051
0.730232
0.730092
0.731356
0.689919
0.718937
0.722548
0.725622
0.733088
0.654944
0.679732
0.731215
0.683226
0.703691
0.735303
0.729047
0.727185
0.681687
0.696409
0.699917
0.693999
0.660765
0.722474
0.698118
0.721339
0.699955
0.71982
0.715565
0.701883
0.662528
0.710952
0.717778
0.693839
0.731187
0.732394
0.669354
0.727973
0.608072
0.702165
0.633007
0.702836
0.728261
0.725834
0.725343
0.720529
0.724194
0.729472
0.72461
0.730415
0.662548
0.719099
0.706812
0.725404
0.685448
0.732455
0.713837
0.685204
0.726488
0.732716
0.682678
0.727659
0.686458
0.725493
0.724135
0.724569
0.642367
0.720487
0.719913
0.724013
0.724192
0.696531
0.689281
0.697208
0.731389
0.732975
0.730424
0.715008
0.727441
0.727008
0.708206
0.722737
0.695779
0.701384
0.720741
0.731142
0.693591
0.735964
0.725948
0.737632
0.725564
0.731267
0.721678
0.704114
0.73204
0.59188
0.726786
0.626388
0.730322
0.733451
0.724307
0.716632
0.701631
0.722536
0.624855
0.659052
0.694797
0.66957
0.727911
0.688266
0.689427
0.656547
0.683056
0.72545
0.731331
0.729832
0.68732
0.704452
0.72577
0.722278
0.7104
0.707206
0.730684
0.732387
0.723587
0.73041
0.730158
0.73005
0.688713
0.707487
0.671907
0.732323
0.726093
0.732224
0.720895
0.726744
0.715699
0.682919
0.715115
0.683156
0.695094
0.690272
0.731971
0.724107
0.72352
0.728909
0.730534
0.719635
0.727838
0.698122
0.718302
0.719117
0.731833
0.709365
0.686033
0.727331
0.728859
0.729777
0.733745
0.732638
0.681675
0.676308
0.678383
0.724579
0.732484
0.643694
0.69768
0.733797
0.693089
0.713606
0.688251
0.71334
0.728569
0.714823
0.723723
0.68671
0.724566
0.728567
0.728319
0.714544
0.699567
0.725052
0.727457
0.718674
0.7319
0.737179
0.642329
0.732892
0.693189
0.706765
0.737088
0.736306
0.71534
0.730086
0.691459
0.731544
0.703699
0.686993
0.729906
0.71049
0.73247
0.715782
0.7319
0.72613
0.731427
0.69991
0.729407
0.681536
0.732237
0.724193
0.723709
0.708964
0.684446
0.686464
0.729693
0.704119
0.708522
0.678922
0.706875
0.735291
0.732874
0.723564
0.725478
0.727256
0.699258
0.712433
0.729131
0.686621
0.702346
0.723783
0.715595
0.716967
0.696099
0.637479
0.684114
0.7298
0.71065
0.732643
0.690475
0.730141
0.729002
0.738624
0.726399
0.712612
0.730939
0.689501
0.72876
0.695926
0.722075
0.674926
0.714445
0.698054
0.683952
0.712851
0.694406
0.683106
0.692082
0.731487
0.732437
0.720076
0.680027
0.730657
0.686569
0.644937
0.719889
0.730815
0.724951
0.691933
0.691258
0.734333
0.677239
0.727104
0.681522
0.696633
0.71431
0.666076
0.735899
0.718422
0.700934
0.729129
0.736454
0.69839
0.729427
0.72027
0.731038
0.723301
0.706227
0.691994
0.728409
0.736085
0.729492
0.649695
0.690645
0.704317
0.723217
0.727288
0.723576
0.676924
0.726869
0.693008
0.726184
0.72972
0.722395
0.708258
0.725063
0.637001
0.725163
0.672005
0.706178
0.659254
0.688923
0.727758
0.731704
0.696639
0.701267
0.727678
0.707733
0.633876
0.678162
0.696704
0.711773
0.582956
0.71152
0.716082
0.726625
0.71851
0.725568
0.729998
0.613243
0.612131
0.734776
0.720631
0.636636
0.706279
0.720329
0.733963
0.722516
0.669307
0.724682
0.675482
0.727888
0.732126
0.729634
0.715524
0.73131
0.694958
0.726597
0.736169
0.687653
0.700051
0.730768
0.731036
0.693643
0.69067
0.661779
0.616163
0.665593
0.725002
0.701834
0.687269
0.646546
0.684172
0.733168
0.662134
0.69882
0.681385
0.736516
0.707246
0.72783
0.699445
0.716653
0.71428
0.719993
0.717919
0.732283
0.682312
0.727329
0.70644
0.715916
0.726002
0.704213
0.735659
0.724733
0.697284
0.728363
0.68509
0.705037
0.725454
0.725009
0.689411
0.707685
0.712295
0.725483
0.724665
0.732624
0.66687
0.694009
0.681104
0.677095
0.735891
0.700721
0.723204
0.731559
0.716526
0.61824
0.682489
0.718669
0.678628
0.719265
0.688635
0.70149
0.701254
0.730581
0.729821
0.719421
0.673404
0.709342
0.687566
0.717158
0.73111
0.720572
0.702478
0.721221
0.710028
0.721366
0.735206
0.730423
0.726368
0.733342
0.727627
0.711706
0.696561
0.68772
0.688043
0.727026
0.724001
0.694178
0.728673
0.700297
0.736897
0.735571
0.689394
0.67419
0.705104
0.721906
0.730439
0.718103
0.730518
0.723286
0.73141
0.730919
0.725248
0.699176
0.721773
0.712481
0.691574
0.706899
0.738854
0.630498
0.545234
0.720857
0.710561
0.732325
0.715773
0.688566
0.682317
0.705532
0.676511
0.714381
0.723346
0.693078
0.731562
0.720467
0.683624
0.696774
0.698657
0.659198
0.72952
0.713119
0.720863
0.6761
0.713465
0.709764
0.682707
0.704316
0.707709
0.702008
0.684468
0.616932
0.736959
0.726753
0.732375
0.728483
0.73517
0.696987
0.726218
0.718554
0.709779
0.658281
0.729035
0.710949
0.710896
0.730534
0.728928
0.735413
0.723853
0.730862
0.72711
0.691204
0.722757
0.728355
0.730075
0.714319
0.69368
0.729829
0.696724
0.701063
0.72756
0.706716
0.73273
0.696806
0.731089
0.726946
0.724258
0.699504
0.73013
0.688632
0.699175
0.706946
0.691146
0.701732
0.701644
0.698647
0.724259
0.679023
0.682407
0.719441
0.722654
0.712221
0.704912
0.72576
0.724967
0.709077
0.728726
0.724052
0.725486
0.682934
0.70599
0.724352
0.68719
0.72208
0.649791
0.723495
0.651451
0.732504
0.722255
0.723188
0.693768
0.686627
0.704495
0.728839
0.705973
0.722913
0.726009
0.719047
0.729007
0.731578
0.720596
0.695875
0.735387
0.709467
0.724181
0.722089
0.69279
0.691991
0.691687
0.73322
0.72556
0.707372
0.717402
0.69688
0.701213
0.673241
0.716994
0.683389
0.731039
0.699365
0.715831
0.723301
0.723465
0.685454
0.717139
0.717931
0.716005
0.726604
0.71817
0.722013
0.70597
0.719559
0.726437
0.724581
0.686549
0.724901
0.688237
0.721373
0.667912
0.691113
0.716169
0.630173
0.681343
0.72939
0.730289
0.682674
0.724396
0.692975
0.659737
0.687274
0.68499
0.693754
0.694209
0.694255
0.732689
0.729604
0.715101
0.733828
0.716702
0.727911
0.724872
0.730141
0.726548
0.70314
0.729164
0.738159
0.721759
0.721271
0.668306
0.731673
0.714124
0.543337
0.726057
0.727295
0.733476
0.727679
0.731646
0.728538
0.706673
0.717535
0.718234
0.725549
0.560422
0.706922
0.663291
0.711542
0.726611
0.676208
0.685808
0.700221
0.695086
0.683938
0.715643
0.719579
0.726468
0.733138
0.691973
0.736902
0.684152
0.720331
0.733884
0.72223
0.721404
0.720459
0.565155
0.693687
0.727
0.731898
0.69443
0.70332
0.727203
0.730847
0.685763
0.730693
0.699202
0.727687
0.724959
0.714558
0.72627
0.7329
0.727002
0.669267
0.730856
0.720123
0.731327
0.683407
0.721533
0.710575
0.682353
0.694094
0.702072
0.721092
0.72654
0.726374
0.715872
0.657572
0.725323
0.695524
0.692886
0.722765
0.716117
0.687147
0.730288
0.69599
0.700195
0.693452
0.724696
0.686138
0.647082
0.728965
0.711011
0.723131
0.69865
0.668889
0.718252
0.617667
0.723388
0.713787
0.694274
0.686008
0.740931
0.689199
0.68708
0.684678
0.665612
0.707447
0.722614
0.730157
0.68901
0.705609
0.732702
0.719977
0.699013
0.69504
0.713093
0.733917
0.724046
0.694815
0.681127
0.724703
0.737379
0.718845
0.722452
0.72209
0.671894
0.726192
0.729245
0.718917
0.677427
0.729146
0.724599
0.67952
0.725279
0.690285
0.732901
0.725609
0.687285
0.724713
0.718245
0.724253
0.692293
0.729289
0.708223
0.728255
0.727784
0.731748
0.691149
0.702117
0.730726
0.727462
0.708468
0.724796
0.719893
0.695305
0.720414
0.72465
0.689877
0.598074
0.676531
0.71304
0.698359
0.69148
0.681561
0.710872
0.724812
0.677646
0.688259
0.713144
0.685165
0.731912
0.692432
0.729505
0.721772
0.685384
0.727069
0.708495
0.72767
0.721118
0.72825
0.696762
0.694627
0.733304
0.67388
0.731284
0.725376
0.71385
0.69955
0.731367
0.721161
0.689824
0.734353
0.669213
0.719907
0.734252
0.675352
0.735361
0.691711
0.724184
0.588173
0.727777
0.687358
0.728438
0.704958
0.683919
0.709192
0.682432
0.69811
0.732101
0.684253
0.719077
0.727352
0.721116
0.726654
0.727501
0.71832
0.660857
0.735013
0.71395
0.730664
0.703179
0.717393
0.730918
0.713456
0.731246
0.722944
0.727075
0.696268
0.722867
0.650981
0.67847
0.732683
0.503142
0.72128
0.728641
0.700377
0.691871
0.712515
0.722262
0.717275
0.7306
0.725711
0.727918
0.724642
0.734679
0.73514
0.685103
0.726148
0.720993
0.721802
0.724009
0.712968
0.695968
0.692248
0.703947
0.728794
0.713614
0.734069
0.685415
0.703683
0.724468
0.707767
0.717252
0.720205
0.69388
0.704419
0.702706
0.712351
0.692226
0.730012
0.667178
0.71678
0.715203
0.712919
0.681626
0.673284
0.729665
0.662514
0.684523
0.731986
0.721551
0.685879
0.684835
0.687081
0.702301
0.73312
0.728786
0.683542
0.715518
0.717956
0.737417
0.723408
0.7
0.730366
0.707959
0.721625
0.72503
0.73125
0.718391
0.73003
0.72455
0.679006
0.664986
0.71855
0.70172
0.713805
0.596841
0.620134
0.728158
0.731072
0.691553
0.731218
0.720748
0.728123
0.721897
0.687945
0.735397
0.733311
0.725426
0.670723
0.689323
0.726693
0.73463
0.72443
0.684257
0.712852
0.732014
0.732694
0.729256
0.703168
0.706641
0.720892
0.714018
0.709168
0.723567
0.714311
0.721499
0.601329
0.732598
0.71991
0.724685
0.731115
0.683637
0.691703
0.701451
0.681618
0.732513
0.693585
0.719692
0.60616
0.70209
0.713315
0.695457
0.688611
0.705339
0.673294
0.691083
0.721624
0.716062
0.726794
0.686012
0.722491
0.731721
0.703492
0.727483
0.718066
0.727191
0.718725
0.702886
0.723196
0.684981
0.681165
0.722848
0.730225
0.731408
0.72003
0.66228
0.726791
0.729835
0.715371
0.729345
0.726552
0.730764
0.728959
0.688856
0.685722
0.716619
0.686841
0.728455
0.723911
0.683901
0.730974
0.725617
0.728901
0.727065
0.725723
0.684792
0.711465
0.733056
0.693408
0.723897
0.72827
0.711678
0.72523
0.721063
0.719545
0.725505
0.725319
0.684143
0.729918
0.664721
0.5992
0.706413
0.726832
0.689079
0.732378
0.694058
0.663476
0.70792
0.722128
0.722683
0.553548
0.727926
0.731818
0.729257
0.712286
0.733253
0.720972
0.687758
0.715875
0.716761
0.716337
0.684308
0.728096
0.724408
0.6928
0.684313
0.718958
0.702138
0.681201
0.727191
0.731153
0.684597
0.733913
0.696921
0.654955
0.674681
0.721685
0.707129
0.690954
0.662796
0.679157
0.722038
0.71788
0.730067
0.708025
0.731083
0.676211
0.728857
0.691071
0.687044
0.685028
0.732749
0.725728
0.691698
0.696436
0.729075
0.714603
0.73203
0.735422
0.709032
0.7228
0.7281
0.712939
0.730009
0.726198
0.726187
0.714356
0.690814
0.710644
0.709976
0.743215
0.71178
0.701032
0.647653
0.696011
0.727172
0.721008
0.718646
0.720509
0.710723
0.697294
0.711527
0.674613
0.707982
0.69967
0.730849
0.68367
0.69577
0.693316
0.725904
0.725304
0.691932
0.685217
0.670283
0.736607
0.709089
0.694278
0.688747
0.692477
0.691255
0.715215
0.714042
0.680006
0.733369