/*--------------------------------*- C++ -*----------------------------------*\
  =========                 |
  \\      /  F ield         | OpenFOAM: The Open Source CFD Toolbox
   \\    /   O peration     | Website:  https://openfoam.org
    \\  /    A nd           | Version:  6
     \\/     M anipulation  |
\*---------------------------------------------------------------------------*/
FoamFile
{
    version     2.0;
    format      ascii;
    class       volScalarField;
    location    "0";
    object      P_rec;
}
// * * * * * * * * * * * * * * * * * * * * * * * * * * * * * * * * * * * * * //

dimensions      [0 2 -2 0 0 0 0];

internalField   nonuniform List<scalar> 
918
(
0.574002
0.523753
0.103038
0.593043
-0.00056927
0.410593
-0.710839
0.540322
0.598455
-0.0753756
0.0470097
0.469042
0.226874
0.189566
-1.21642
0.0311091
0.587328
-0.760412
0.430385
0.0329753
0.0454847
0.598282
0.534102
0.43564
0.511
0.122308
0.293054
-0.0331268
-0.052137
-0.0382792
-0.00342854
0.047542
0.0109729
0.364167
0.373703
0.42147
0.441545
0.0343581
-0.554229
-0.623761
-0.595353
-0.808044
0.545807
0.559521
-0.259752
0.524067
0.507394
0.444922
0.577016
0.599828
0.537627
0.578929
0.607138
0.2907
-0.115116
-0.189926
-0.0304204
-0.0294779
0.0877837
0.0442436
0.040785
0.0711083
0.0649785
0.391579
0.459535
0.457113
0.478837
0.477083
0.478258
0.443904
0.490944
0.22232
0.361851
0.207484
0.308715
0.199828
0.235381
0.173688
0.154385
-1.53607
-2.34005
-0.719363
-0.546355
0.00472698
0.0326203
0.0351485
0.578799
0.583022
0.57631
0.587713
0.70515
-0.659752
-0.871281
0.467828
0.464339
0.58398
0.540667
0.477627
0.423487
0.0299808
0.02839
0.0171296
0.0452925
0.0389068
0.2167
0.313648
0.409476
0.438184
0.479076
0.497286
0.486422
0.223993
0.542562
0.549934
0.0599731
0.231622
0.11319
0.185813
0.295218
0.264352
0.362432
0.39543
-0.0553951
-0.00920682
0.0401449
0.00758675
0.0341846
0.437147
0.428986
0.454069
0.446803
0.447856
-0.0323999
-0.098348
0.111558
0.184178
-0.440454
-0.50268
-0.737851
-0.699987
-0.891826
0.735847
0.556988
0.572527
-0.3298
-0.213479
-0.380026
-0.146497
-0.201997
0.445963
0.440091
0.440429
0.444099
0.451569
0.453486
0.584351
0.576344
0.611994
0.298328
0.367681
0.275678
0.237232
-0.4298
-0.257562
-0.403054
-0.0145277
0.0181157
0.0854118
0.121765
0.116067
0.0946953
0.0217229
0.0335425
0.0235006
0.0385683
0.0325714
0.391466
0.377487
0.393545
0.406002
0.454104
0.455346
0.457365
0.459637
0.370793
0.369049
0.332154
0.304705
-3.16972
-5.3341
-0.30985
-0.203764
-0.00274506
-0.0129269
-0.00436138
-0.0772058
-0.0129891
-0.0384957
0.0807877
0.0522624
0.0421289
0.0575545
0.573839
0.586831
0.70288
0.747326
0.625879
0.620336
0.463145
0.471068
0.466219
0.464423
0.0427252
0.0313338
0.0423202
0.479474
0.400458
0.441881
0.187458
0.0941377
0.271869
0.308757
0.573024
0.558349
0.573322
0.0750273
0.153774
0.497112
0.268017
0.482183
0.322976
0.308371
0.359999
0.265339
0.410196
0.423703
0.420186
0.452221
0.455552
0.456584
0.456232
0.450897
0.455866
-0.223866
-0.465552
0.573088
0.498994
0.285806
0.416893
0.7582
0.793625
0.578293
0.568604
0.580008
-0.0536346
-0.102684
0.189219
0.169016
0.338291
0.358336
0.345028
0.296598
0.25743
0.298079
0.28142
0.257983
0.302085
-0.40391
-1.7764
-0.960663
0.0295584
-0.0777772
-0.0422447
0.0564336
0.107134
0.0770381
0.721943
0.780238
0.403245
0.542411
0.506711
0.0572642
0.137228
0.234779
0.112503
0.167409
0.24439
0.20169
0.656883
0.589559
0.646639
0.7739
0.818554
0.0625805
-0.00764338
-0.0450942
0.143805
0.144636
0.136044
0.771057
0.780092
0.793357
0.416443
0.411515
-0.0505423
0.00252384
0.515254
0.53547
-0.0540243
-0.0209087
0.0161255
-0.885767
0.066846
0.46767
0.429922
0.483735
-0.0852628
0.208981
0.0237094
0.0383245
-0.00945931
0.439748
0.375645
0.344626
-0.0539694
0.0113193
0.00408356
-0.354561
0.472002
0.456358
0.470367
0.479528
0.492064
-0.000964889
-0.00849904
0.0281751
-0.022328
0.0479463
0.0449002
0.446738
0.43795
-0.307244
0.462355
0.485582
0.483483
0.49439
0.498212
0.488607
-0.0054609
0.032542
0.0359899
0.172987
0.274487
0.161368
0.117163
0.188311
0.00505159
-0.203862
0.108931
0.118224
0.0941301
0.132107
0.538882
0.51975
0.166103
-0.00436361
0.125396
0.096741
0.463159
0.478567
0.452385
0.464644
0.480673
0.4412
0.492366
0.469497
0.46337
0.500873
-0.0418772
0.00498265
-0.0407125
-0.15544
0.291848
0.360774
0.199452
0.257583
0.118825
0.0127345
0.0591654
0.00493153
0.0237967
0.0247702
0.108909
0.0516122
0.138477
0.0320139
0.112381
-0.00876232
0.145498
0.0230141
0.427571
0.445025
0.441671
0.479512
0.40343
0.423081
0.398426
0.398969
0.411437
0.350186
0.363582
0.363189
0.0153071
0.0144019
0.0425445
0.0221217
0.0512025
-0.0101024
-0.00941715
-0.013103
0.00412876
-0.0335507
0.00309053
0.0121519
-0.266005
-0.428027
0.644051
0.541127
0.215513
0.44253
0.48122
0.454321
0.481988
0.497488
0.531952
0.499196
0.474233
0.445772
0.45979
0.444465
0.460411
-0.191788
-0.299402
-0.14683
-0.21635
0.0103541
0.551831
0.312435
0.27635
0.252699
0.422184
0.572313
0.324503
0.00775905
-0.130196
-0.574567
-0.305976
-0.53119
-0.00792102
-0.098939
0.0879009
0.154581
0.21726
0.15817
0.150082
-0.131466
0.325263
-0.112066
-0.0782374
0.0996881
0.0301229
0.335381
0.539052
0.55142
0.499088
0.489039
0.524229
0.494098
0.49603
0.533599
0.539635
0.413643
0.20126
0.195812
0.124303
0.554361
0.448497
0.483111
0.38685
0.481306
0.485061
0.468087
0.457959
0.491422
0.46068
0.451464
0.431926
0.430225
0.46142
0.465907
0.441363
0.0302219
0.0115281
-0.0353488
-0.232739
-0.127935
-0.229371
-0.0797116
0.0957126
0.00456316
0.177514
0.338619
0.0700331
-0.125817
-0.00707747
-0.0471494
0.168677
0.110039
0.151128
0.151185
0.166928
0.163647
0.2146
0.18858
0.0481126
0.061853
0.0969448
0.0171357
0.138644
0.114236
0.167102
0.0709122
0.123605
0.0808917
0.0479787
0.0324823
0.121705
0.0728897
0.0435577
0.0354661
0.0222652
-0.0494118
-0.0459691
0.170366
0.0557082
0.4659
0.450395
0.455158
0.467829
0.496297
0.494079
0.442389
0.442507
0.467747
0.441017
0.413092
0.402832
0.388483
0.421366
0.426703
0.427238
0.463786
0.456893
0.431814
0.445843
0.407005
0.425311
0.368531
0.380286
0.407828
-0.0752879
0.0323343
-0.0160445
-0.0253831
0.0182165
0.0536875
0.117094
0.042193
0.120427
0.092544
0.0702781
0.0429084
0.0660486
-0.0962379
0.0356204
-0.229084
-0.325526
-0.407715
0.642452
0.709403
0.586222
0.478994
0.52899
0.59616
0.661764
0.416728
0.452243
0.505148
0.626058
0.718033
0.457079
0.446052
0.468719
0.486517
0.464527
-0.0192085
0.105356
0.0786764
0.172037
0.136507
0.126831
0.367754
0.359893
0.398699
0.357431
0.530391
0.552667
0.514448
0.551238
0.550162
0.353402
0.44069
0.474663
0.462268
0.467545
0.487396
0.491513
0.489574
0.429858
0.426058
0.428546
0.384713
0.405469
0.379479
0.380811
0.437718
0.419312
0.416587
0.427379
0.475135
0.460855
0.481542
0.521217
0.504993
0.41117
0.39638
0.415384
0.42451
0.404675
0.399748
0.396428
0.191266
0.221408
0.0666941
-0.244429
-0.114812
-0.116484
-0.200427
-0.187598
-0.0426033
-0.567781
-0.413543
-0.921031
0.125842
0.583629
0.321951
0.125198
0.472889
0.495459
0.482281
0.425109
0.427499
0.537465
0.551102
0.563366
0.471719
0.476413
0.509652
0.492641
0.365218
0.311815
0.232046
0.294572
0.147262
0.198173
0.344913
0.300655
0.261271
0.286803
0.366277
0.265401
0.296883
0.3743
0.350685
0.330458
0.447018
0.50092
0.512189
0.460815
0.371657
0.423731
0.4161
0.462498
0.49725
0.504947
0.461894
0.449612
0.460808
0.45036
0.437856
0.455188
0.427966
0.469901
0.474763
0.484538
0.480027
0.00922001
0.0360086
0.0513382
0.00948038
0.0238821
-0.0234569
-0.00800035
-0.0252121
0.0979808
0.0843208
0.00729637
0.0288945
0.10762
0.0612518
0.143831
0.154599
0.108448
0.0535591
0.25127
0.375691
0.370152
0.335329
0.233428
0.246628
0.330769
0.0598255
0.146098
0.0978617
0.0752899
0.0702074
0.0402871
0.122696
0.0604206
0.096814
0.0498684
-0.0844315
0.0552619
0.1035
-0.0259724
0.0288112
0.0546383
0.43108
0.432711
0.411604
0.39432
0.400891
0.407671
0.439462
0.463862
0.465938
0.465154
0.470111
0.456429
0.461167
0.0296809
0.132836
0.158638
0.0965147
0.0590454
0.0135746
-0.00628079
0.274356
0.130098
0.209316
0.0291202
-0.144299
-0.0648789
0.488277
0.585011
0.571998
0.702594
0.600729
0.537982
0.613586
0.72112
0.427707
0.524755
0.445986
0.671119
0.658201
0.720316
0.56245
0.101311
-0.108065
0.10497
0.00217939
-0.16559
0.129803
0.159943
0.14781
0.138957
0.152721
0.257766
0.273581
0.29007
0.356352
0.321942
0.393581
0.254864
0.32531
0.276758
0.255719
0.237991
0.514773
0.538885
0.562411
0.534002
0.55801
0.494483
0.494036
0.519868
0.545645
0.530685
-0.816725
-0.680031
-1.40012
-0.743995
-0.494356
0.108403
-0.156031
0.655113
0.509992
0.498241
0.50512
0.499965
0.451156
0.472614
0.500027
0.288965
0.378268
0.328327
0.358866
0.282736
0.202998
0.494407
0.478732
0.511774
0.529524
0.490818
0.529256
0.391518
0.428571
0.414615
0.444342
0.459209
0.474506
0.125358
0.0643595
0.105281
0.0913518
0.0731452
0.0519782
-0.0177695
0.0102557
0.169389
0.114727
0.0630217
0.114452
0.225764
0.235418
0.0814939
0.175288
0.0268555
-0.109603
-0.103832
-0.0136618
0.0749117
0.146138
0.49176
0.59067
0.538425
0.610509
0.491857
0.593296
0.529419
0.430165
0.502301
0.441151
0.493956
-0.31572
-0.539376
-0.428343
0.799059
0.732774
0.256797
-0.00690071
-0.158706
0.25716
0.411657
0.364535
0.385104
0.449757
0.423048
-0.336081
-0.190548
-0.416308
-0.368594
0.0420033
-0.103825
-0.00940971
-0.228217
-0.145101
)
;

boundaryField
{
    wall-4
    {
        type            calculated;
        value           nonuniform List<scalar> 
100
(
0.574002
0.523753
0.103038
0.593043
0.410593
-0.710839
0.540322
-0.0753756
0.0470097
0.469042
0.226874
0.189566
-1.21642
0.587328
-0.760412
0.430385
0.0329753
0.0454847
0.43564
0.511
0.122308
0.293054
-0.0331268
0.364167
0.441545
-0.623761
-0.808044
0.559521
-0.259752
0.507394
0.444922
-0.189926
-0.0294779
0.040785
0.0649785
0.391579
0.457113
0.477083
0.361851
0.308715
0.235381
0.154385
-2.34005
-0.546355
0.583022
0.587713
-0.871281
0.464339
0.423487
0.02839
0.0389068
0.313648
0.438184
0.486422
0.223993
0.549934
0.0599731
0.185813
0.264352
0.39543
0.428986
0.454069
0.447856
-0.50268
-0.891826
0.572527
-0.380026
-0.201997
0.440429
0.453486
-0.403054
0.0181157
0.0235006
0.0325714
0.377487
0.406002
0.454104
0.459637
0.304705
-0.203764
0.586831
0.463145
0.464423
0.0423202
0.441881
0.0941377
0.308757
0.573322
0.153774
0.322976
0.420186
0.456584
0.455866
0.580008
-0.102684
0.345028
0.28142
-0.0422447
0.167409
-0.0450942
)
;
    }
    velocity-inlet-5
    {
        type            calculated;
        value           nonuniform List<scalar> 8(0.574002 0.593043 0.598455 0.598282 0.599828 0.607138 0.58398 0.611994);
    }
    velocity-inlet-6
    {
        type            calculated;
        value           nonuniform List<scalar> 4(0.523753 0.410593 0.42147 0.490944);
    }
    pressure-outlet-7
    {
        type            calculated;
        value           uniform 0;
    }
    wall-8
    {
        type            calculated;
        value           nonuniform List<scalar> 
34
(
-0.00056927
0.0311091
0.0109729
0.0343581
0.2907
0.0877837
0.0351485
0.70515
0.0341846
-0.098348
0.184178
0.735847
0.367681
0.237232
0.121765
0.0946953
-5.3341
0.0807877
0.0575545
0.747326
0.620336
-0.465552
0.573088
0.416893
0.793625
0.169016
-0.960663
0.0770381
0.780238
0.506711
0.646639
0.818554
0.136044
0.793357
)
;
    }
    frontAndBackPlanes
    {
        type            empty;
    }
}

