/*--------------------------------*- C++ -*----------------------------------*\
  =========                 |
  \\      /  F ield         | OpenFOAM: The Open Source CFD Toolbox
   \\    /   O peration     | Website:  https://openfoam.org
    \\  /    A nd           | Version:  6
     \\/     M anipulation  |
\*---------------------------------------------------------------------------*/
FoamFile
{
    version     2.0;
    format      ascii;
    class       volScalarField;
    location    "0";
    object      p;
}
// * * * * * * * * * * * * * * * * * * * * * * * * * * * * * * * * * * * * * //

dimensions      [0 2 -2 0 0 0 0];

internalField   nonuniform List<scalar> 
40000
(
0.0448443
0.0448499
0.0448588
0.0448684
0.0448764
0.0448813
0.0448823
0.0448789
0.0448708
0.0448578
0.0448399
0.0448173
0.04479
0.0447584
0.0447227
0.044683
0.0446396
0.0445929
0.0445429
0.04449
0.0444344
0.0443761
0.0443154
0.0442524
0.0441872
0.0441199
0.0440505
0.0439791
0.0439056
0.04383
0.0437524
0.0436726
0.0435906
0.0435063
0.0434197
0.0433306
0.043239
0.0431449
0.043048
0.0429485
0.0428461
0.0427409
0.0426328
0.0425217
0.0424078
0.0422908
0.042171
0.0420483
0.0419228
0.0417944
0.0416635
0.0415299
0.041394
0.0412557
0.0411154
0.0409732
0.0408293
0.0406839
0.0405374
0.0403901
0.0402422
0.0400941
0.0399462
0.0397989
0.0396525
0.0395077
0.0393647
0.0392241
0.0390865
0.0389523
0.0388221
0.0386965
0.038576
0.0384613
0.0383529
0.0382514
0.0381575
0.0380717
0.0379947
0.0379269
0.0378691
0.0378217
0.0377853
0.0377603
0.0377473
0.0377466
0.0377587
0.0377839
0.0378224
0.0378745
0.0379403
0.03802
0.0381136
0.0382209
0.038342
0.0384766
0.0386244
0.038785
0.038958
0.0391428
0.0393389
0.0395454
0.0397615
0.0399864
0.0402192
0.0404587
0.0407038
0.0409533
0.041206
0.0414606
0.0417156
0.0419698
0.0422217
0.0424697
0.0427125
0.0429486
0.0431765
0.0433948
0.0436022
0.0437971
0.0439784
0.0441448
0.0442952
0.0444285
0.0445437
0.04464
0.0447168
0.0447733
0.0448091
0.0448239
0.0448175
0.0447899
0.0447412
0.0446715
0.0445814
0.0444712
0.0443418
0.0441938
0.0440282
0.043846
0.0436483
0.0434363
0.0432112
0.0429744
0.0427273
0.0424713
0.0422078
0.0419381
0.0416639
0.0413864
0.0411071
0.0408272
0.040548
0.0402708
0.0399967
0.0397267
0.0394619
0.0392031
0.0389511
0.0387066
0.0384703
0.0382427
0.0380242
0.0378151
0.0376157
0.0374262
0.0372467
0.0370773
0.0369179
0.0367684
0.0366287
0.0364986
0.0363779
0.0362663
0.0361637
0.0360696
0.0359838
0.035906
0.0358359
0.0357732
0.0357176
0.0356689
0.0356267
0.0355909
0.0355613
0.0355376
0.0355198
0.0355076
0.0355008
0.0354993
0.0355029
0.0355112
0.0355239
0.0355402
0.0355595
0.0355805
0.0356016
0.0356206
0.0356343
0.0356407
0.0448387
0.0448443
0.044852
0.0448595
0.0448655
0.0448686
0.0448683
0.0448639
0.0448551
0.0448418
0.0448241
0.0448018
0.0447753
0.0447445
0.0447098
0.0446713
0.0446293
0.0445839
0.0445355
0.0444841
0.0444299
0.0443732
0.0443141
0.0442526
0.044189
0.0441232
0.0440553
0.0439853
0.0439132
0.0438391
0.0437629
0.0436845
0.0436039
0.0435211
0.0434359
0.0433483
0.0432582
0.0431656
0.0430703
0.0429723
0.0428716
0.0427681
0.0426617
0.0425525
0.0424404
0.0423254
0.0422075
0.0420868
0.0419634
0.0418372
0.0417083
0.041577
0.0414433
0.0413073
0.0411692
0.0410292
0.0408876
0.0407446
0.0406003
0.0404552
0.0403095
0.0401636
0.0400178
0.0398725
0.0397281
0.039585
0.0394438
0.0393049
0.0391688
0.039036
0.038907
0.0387824
0.0386628
0.0385488
0.0384409
0.0383397
0.0382458
0.0381598
0.0380824
0.038014
0.0379552
0.0379066
0.0378688
0.0378421
0.037827
0.037824
0.0378335
0.0378558
0.0378911
0.0379398
0.0380019
0.0380776
0.0381669
0.0382697
0.038386
0.0385155
0.0386581
0.0388132
0.0389805
0.0391594
0.0393494
0.0395497
0.0397595
0.0399779
0.0402041
0.040437
0.0406754
0.0409182
0.0411642
0.0414121
0.0416606
0.0419082
0.0421536
0.0423954
0.0426321
0.0428623
0.0430845
0.0432974
0.0434995
0.0436896
0.0438663
0.0440285
0.0441751
0.044305
0.0444172
0.0445109
0.0445855
0.0446403
0.0446749
0.044689
0.0446824
0.0446549
0.0446069
0.0445384
0.0444498
0.0443418
0.0442149
0.0440699
0.0439077
0.0437292
0.0435356
0.0433281
0.0431078
0.0428761
0.0426343
0.0423838
0.042126
0.0418622
0.0415939
0.0413225
0.0410492
0.0407754
0.0405024
0.0402312
0.039963
0.0396988
0.0394397
0.0391864
0.0389397
0.0387003
0.0384688
0.0382458
0.0380316
0.0378266
0.037631
0.037445
0.0372688
0.0371023
0.0369455
0.0367984
0.0366608
0.0365326
0.0364135
0.0363033
0.0362018
0.0361086
0.0360236
0.0359463
0.0358765
0.035814
0.0357584
0.0357095
0.035667
0.0356307
0.0356004
0.0355759
0.0355569
0.0355434
0.0355351
0.0355317
0.0355332
0.035539
0.0355488
0.035562
0.0355778
0.0355951
0.0356127
0.0356286
0.0356406
0.035647
0.0448297
0.0448366
0.0448443
0.0448507
0.0448552
0.0448569
0.0448554
0.0448501
0.0448408
0.0448273
0.0448096
0.0447877
0.0447618
0.0447319
0.0446982
0.0446609
0.0446202
0.0445763
0.0445293
0.0444795
0.044427
0.0443719
0.0443144
0.0442546
0.0441926
0.0441285
0.0440623
0.0439939
0.0439235
0.0438511
0.0437765
0.0436997
0.0436208
0.0435396
0.0434561
0.0433702
0.0432819
0.043191
0.0430975
0.0430014
0.0429026
0.042801
0.0426967
0.0425895
0.0424795
0.0423666
0.0422509
0.0421325
0.0420113
0.0418874
0.0417609
0.0416319
0.0415006
0.041367
0.0412313
0.0410937
0.0409544
0.0408137
0.0406718
0.0405289
0.0403854
0.0402416
0.0400978
0.0399544
0.0398119
0.0396706
0.0395309
0.0393934
0.0392585
0.0391268
0.0389987
0.0388749
0.0387558
0.038642
0.0385341
0.0384328
0.0383385
0.0382518
0.0381734
0.0381037
0.0380435
0.0379931
0.0379531
0.0379241
0.0379064
0.0379005
0.0379067
0.0379255
0.0379571
0.0380017
0.0380595
0.0381306
0.038215
0.0383128
0.0384238
0.0385479
0.0386847
0.038834
0.0389952
0.039168
0.0393516
0.0395454
0.0397487
0.0399606
0.0401801
0.0404063
0.040638
0.0408742
0.0411136
0.0413549
0.0415969
0.0418382
0.0420775
0.0423132
0.0425441
0.0427686
0.0429854
0.0431932
0.0433904
0.043576
0.0437485
0.0439068
0.0440498
0.0441765
0.044286
0.0443774
0.04445
0.0445033
0.0445368
0.0445502
0.0445433
0.0445161
0.0444686
0.0444012
0.0443142
0.0442081
0.0440836
0.0439413
0.0437822
0.0436073
0.0434175
0.0432142
0.0429984
0.0427715
0.0425347
0.0422894
0.0420371
0.041779
0.0415164
0.0412509
0.0409836
0.0407158
0.0404487
0.0401835
0.0399213
0.039663
0.0394095
0.0391619
0.0389206
0.0386865
0.0384602
0.038242
0.0380325
0.0378319
0.0376404
0.0374583
0.0372857
0.0371226
0.0369689
0.0368245
0.0366895
0.0365635
0.0364464
0.036338
0.036238
0.0361461
0.0360621
0.0359857
0.0359166
0.0358544
0.0357991
0.0357502
0.0357075
0.0356708
0.0356399
0.0356145
0.0355945
0.0355797
0.0355698
0.0355646
0.0355639
0.0355672
0.0355743
0.0355845
0.0355972
0.0356116
0.0356264
0.0356406
0.0356526
0.0356608
0.0448201
0.044829
0.0448378
0.0448443
0.0448483
0.0448493
0.0448471
0.0448413
0.0448316
0.0448179
0.0448003
0.0447787
0.0447532
0.044724
0.0446911
0.0446547
0.044615
0.0445723
0.0445265
0.044478
0.0444269
0.0443732
0.0443172
0.0442589
0.0441985
0.0441359
0.0440712
0.0440044
0.0439356
0.0438647
0.0437917
0.0437166
0.0436393
0.0435597
0.0434779
0.0433937
0.043307
0.0432179
0.0431262
0.0430319
0.0429349
0.0428352
0.0427328
0.0426275
0.0425194
0.0424086
0.0422949
0.0421785
0.0420594
0.0419375
0.0418131
0.0416862
0.0415569
0.0414254
0.0412917
0.0411561
0.0410188
0.0408799
0.0407398
0.0405986
0.0404568
0.0403145
0.0401722
0.0400301
0.0398887
0.0397485
0.0396097
0.0394729
0.0393386
0.0392072
0.0390793
0.0389554
0.038836
0.0387218
0.0386132
0.0385109
0.0384155
0.0383274
0.0382474
0.0381759
0.0381135
0.0380608
0.0380182
0.0379864
0.0379656
0.0379565
0.0379592
0.0379743
0.038002
0.0380425
0.0380961
0.0381627
0.0382426
0.0383357
0.0384418
0.0385609
0.0386926
0.0388367
0.0389927
0.0391602
0.0393385
0.0395269
0.0397249
0.0399314
0.0401456
0.0403665
0.040593
0.040824
0.0410584
0.0412948
0.041532
0.0417686
0.0420033
0.0422347
0.0424614
0.042682
0.0428951
0.0430992
0.0432932
0.0434757
0.0436453
0.0438011
0.0439418
0.0440664
0.0441741
0.044264
0.0443354
0.0443878
0.0444206
0.0444337
0.0444267
0.0443997
0.0443528
0.0442862
0.0442003
0.0440956
0.0439727
0.0438323
0.0436754
0.0435029
0.0433159
0.0431155
0.0429028
0.0426793
0.0424461
0.0422046
0.0419562
0.0417022
0.0414439
0.0411827
0.0409199
0.0406566
0.0403942
0.0401336
0.039876
0.0396224
0.0393736
0.0391306
0.0388939
0.0386642
0.0384422
0.0382283
0.0380228
0.0378262
0.0376385
0.03746
0.0372908
0.0371308
0.0369802
0.0368386
0.0367062
0.0365826
0.0364676
0.0363612
0.0362629
0.0361725
0.0360898
0.0360145
0.0359463
0.0358849
0.03583
0.0357814
0.0357388
0.035702
0.0356708
0.0356449
0.0356242
0.0356084
0.0355973
0.0355907
0.0355883
0.0355899
0.035595
0.0356032
0.035614
0.0356267
0.0356405
0.0356546
0.0356685
0.0356798
0.044812
0.044823
0.0448334
0.0448404
0.0448443
0.0448451
0.0448426
0.0448364
0.0448265
0.0448127
0.0447951
0.0447737
0.0447485
0.0447197
0.0446875
0.0446519
0.0446131
0.0445713
0.0445266
0.0444793
0.0444293
0.044377
0.0443223
0.0442654
0.0442064
0.0441452
0.044082
0.0440168
0.0439495
0.0438802
0.0438088
0.0437353
0.0436597
0.0435818
0.0435016
0.0434192
0.0433343
0.0432469
0.043157
0.0430645
0.0429693
0.0428714
0.0427708
0.0426674
0.0425613
0.0424523
0.0423406
0.042226
0.0421088
0.0419889
0.0418663
0.0417412
0.0416137
0.0414839
0.0413519
0.041218
0.0410822
0.0409448
0.0408061
0.0406662
0.0405255
0.0403842
0.0402427
0.0401014
0.0399606
0.0398207
0.0396822
0.0395454
0.0394109
0.0392792
0.0391507
0.039026
0.0389057
0.0387902
0.0386802
0.0385762
0.0384789
0.0383887
0.0383063
0.0382323
0.0381671
0.0381114
0.0380657
0.0380305
0.0380062
0.0379933
0.0379922
0.0380033
0.0380268
0.038063
0.0381121
0.0381743
0.0382496
0.038338
0.0384395
0.0385538
0.0386808
0.0388201
0.0389714
0.0391341
0.0393077
0.0394915
0.0396849
0.0398869
0.0400967
0.0403133
0.0405356
0.0407626
0.0409931
0.0412257
0.0414593
0.0416925
0.0419239
0.0421522
0.042376
0.0425939
0.0428044
0.0430062
0.0431981
0.0433786
0.0435465
0.0437007
0.0438401
0.0439636
0.0440703
0.0441594
0.0442303
0.0442823
0.0443149
0.044328
0.0443212
0.0442946
0.0442483
0.0441824
0.0440974
0.0439937
0.0438721
0.0437332
0.0435779
0.0434072
0.0432222
0.0430239
0.0428136
0.0425925
0.0423619
0.0421232
0.0418777
0.0416268
0.0413717
0.0411139
0.0408545
0.0405948
0.040336
0.0400792
0.0398255
0.0395757
0.0393308
0.0390917
0.0388589
0.0386332
0.038415
0.0382049
0.0380032
0.0378102
0.0376261
0.0374511
0.0372852
0.0371285
0.0369808
0.0368422
0.0367124
0.0365914
0.0364788
0.0363745
0.0362782
0.0361896
0.0361085
0.0360346
0.0359676
0.0359071
0.0358531
0.035805
0.0357628
0.0357262
0.035695
0.0356688
0.0356476
0.0356311
0.0356192
0.0356115
0.0356079
0.0356082
0.0356119
0.0356189
0.0356286
0.0356405
0.0356542
0.0356693
0.0356859
0.0357009
0.0448069
0.0448197
0.0448316
0.0448392
0.0448434
0.0448442
0.0448414
0.044835
0.0448249
0.0448111
0.0447934
0.0447721
0.0447472
0.0447188
0.044687
0.044652
0.044614
0.044573
0.0445293
0.0444829
0.0444341
0.044383
0.0443296
0.044274
0.0442163
0.0441566
0.0440949
0.0440312
0.0439654
0.0438977
0.0438279
0.0437561
0.0436821
0.0436059
0.0435275
0.0434467
0.0433636
0.043278
0.0431898
0.0430991
0.0430058
0.0429097
0.0428109
0.0427094
0.042605
0.0424979
0.0423879
0.0422751
0.0421596
0.0420413
0.0419204
0.0417969
0.0416709
0.0415426
0.041412
0.0412793
0.0411446
0.0410083
0.0408704
0.0407313
0.0405912
0.0404504
0.0403092
0.040168
0.0400271
0.0398869
0.0397479
0.0396104
0.039475
0.0393421
0.0392123
0.039086
0.0389638
0.0388463
0.0387341
0.0386276
0.0385275
0.0384345
0.038349
0.0382716
0.038203
0.0381436
0.0380941
0.0380549
0.0380265
0.0380094
0.0380039
0.0380105
0.0380295
0.0380612
0.0381057
0.0381632
0.0382339
0.0383176
0.0384144
0.0385241
0.0386465
0.0387814
0.0389282
0.0390866
0.039256
0.0394357
0.0396251
0.0398233
0.0400294
0.0402424
0.0404614
0.0406852
0.0409126
0.0411424
0.0413734
0.0416041
0.0418333
0.0420595
0.0422814
0.0424975
0.0427066
0.0429071
0.0430978
0.0432773
0.0434444
0.043598
0.0437369
0.0438601
0.0439666
0.0440557
0.0441266
0.0441788
0.0442118
0.0442253
0.0442191
0.0441932
0.0441476
0.0440826
0.0439985
0.0438959
0.0437755
0.0436378
0.0434839
0.0433146
0.0431311
0.0429345
0.042726
0.0425068
0.0422782
0.0420416
0.0417984
0.0415499
0.0412973
0.0410421
0.0407854
0.0405286
0.0402728
0.0400191
0.0397685
0.039522
0.0392805
0.0390447
0.0388154
0.0385932
0.0383786
0.038172
0.0379738
0.0377843
0.0376037
0.037432
0.0372694
0.0371159
0.0369714
0.0368357
0.0367088
0.0365905
0.0364805
0.0363786
0.0362845
0.036198
0.0361188
0.0360465
0.0359809
0.0359218
0.0358688
0.0358216
0.0357801
0.0357439
0.0357128
0.0356867
0.0356653
0.0356484
0.0356359
0.0356275
0.0356231
0.0356224
0.0356253
0.0356315
0.0356406
0.0356525
0.0356666
0.0356832
0.0357029
0.0357215
0.0448056
0.0448199
0.044833
0.0448413
0.0448457
0.0448466
0.0448437
0.0448372
0.0448269
0.0448129
0.0447952
0.0447739
0.0447492
0.044721
0.0446896
0.0446551
0.0446176
0.0445774
0.0445345
0.044489
0.0444412
0.0443912
0.0443389
0.0442846
0.0442283
0.0441699
0.0441097
0.0440474
0.0439832
0.0439171
0.0438489
0.0437787
0.0437064
0.0436319
0.0435552
0.0434762
0.0433948
0.0433109
0.0432246
0.0431356
0.043044
0.0429497
0.0428527
0.0427528
0.0426501
0.0425446
0.0424363
0.0423251
0.042211
0.0420942
0.0419747
0.0418524
0.0417276
0.0416003
0.0414707
0.0413388
0.0412048
0.041069
0.0409315
0.0407925
0.0406524
0.0405114
0.0403698
0.0402279
0.0400862
0.0399449
0.0398046
0.0396656
0.0395284
0.0393935
0.0392614
0.0391326
0.0390078
0.0388873
0.0387719
0.0386621
0.0385584
0.0384616
0.0383721
0.0382907
0.0382178
0.038154
0.0381
0.0380561
0.038023
0.0380011
0.0379908
0.0379926
0.0380067
0.0380334
0.0380731
0.0381258
0.0381916
0.0382706
0.0383628
0.038468
0.038586
0.0387165
0.0388592
0.0390136
0.0391792
0.0393553
0.0395412
0.0397361
0.0399392
0.0401494
0.0403657
0.0405871
0.0408123
0.0410401
0.0412692
0.0414984
0.0417262
0.0419513
0.0421723
0.0423877
0.0425962
0.0427963
0.0429868
0.0431663
0.0433336
0.0434874
0.0436267
0.0437504
0.0438575
0.0439473
0.0440191
0.0440722
0.0441061
0.0441206
0.0441154
0.0440906
0.0440461
0.0439823
0.0438994
0.043798
0.0436788
0.0435424
0.0433898
0.0432219
0.0430397
0.0428445
0.0426375
0.0424198
0.0421929
0.041958
0.0417166
0.0414699
0.0412193
0.0409662
0.0407117
0.0404572
0.0402038
0.0399527
0.0397048
0.039461
0.0392224
0.0389896
0.0387634
0.0385443
0.0383329
0.0381296
0.0379347
0.0377485
0.0375712
0.0374028
0.0372435
0.0370932
0.0369519
0.0368193
0.0366954
0.0365799
0.0364726
0.0363733
0.0362817
0.0361975
0.0361203
0.03605
0.0359862
0.0359286
0.0358769
0.0358309
0.0357903
0.0357548
0.0357243
0.0356984
0.0356771
0.0356602
0.0356474
0.0356386
0.0356337
0.0356325
0.0356348
0.0356406
0.0356496
0.0356617
0.0356767
0.035695
0.0357177
0.03574
0.0448088
0.0448241
0.0448382
0.044847
0.0448516
0.0448525
0.0448495
0.0448428
0.0448323
0.0448181
0.0448003
0.044779
0.0447543
0.0447263
0.0446951
0.044661
0.044624
0.0445843
0.0445421
0.0444975
0.0444506
0.0444016
0.0443504
0.0442973
0.0442422
0.0441852
0.0441263
0.0440655
0.0440029
0.0439383
0.0438717
0.0438031
0.0437325
0.0436597
0.0435846
0.0435073
0.0434276
0.0433455
0.0432608
0.0431736
0.0430836
0.042991
0.0428955
0.0427972
0.0426961
0.042592
0.042485
0.0423751
0.0422623
0.0421466
0.0420281
0.0419067
0.0417827
0.041656
0.0415267
0.0413951
0.0412612
0.0411253
0.0409875
0.040848
0.0407071
0.0405651
0.0404223
0.040279
0.0401355
0.0399923
0.0398497
0.0397083
0.0395683
0.0394305
0.0392951
0.0391629
0.0390343
0.0389099
0.0387904
0.0386762
0.0385681
0.0384666
0.0383723
0.0382858
0.0382079
0.0381389
0.0380796
0.0380304
0.037992
0.0379647
0.037949
0.0379454
0.0379542
0.0379758
0.0380102
0.0380579
0.0381188
0.038193
0.0382805
0.0383812
0.038495
0.0386214
0.0387602
0.0389109
0.039073
0.0392458
0.0394287
0.0396209
0.0398214
0.0400293
0.0402437
0.0404633
0.040687
0.0409136
0.0411418
0.0413702
0.0415975
0.0418223
0.0420432
0.0422588
0.0424676
0.0426683
0.0428596
0.04304
0.0432083
0.0433633
0.0435039
0.0436289
0.0437376
0.043829
0.0439023
0.043957
0.0439927
0.0440088
0.0440054
0.0439822
0.0439394
0.0438772
0.0437959
0.0436961
0.0435784
0.0434435
0.0432924
0.0431259
0.0429452
0.0427514
0.0425457
0.0423295
0.042104
0.0418706
0.0416307
0.0413856
0.0411367
0.0408852
0.0406326
0.04038
0.0401287
0.0398797
0.039634
0.0393927
0.0391565
0.0389264
0.0387029
0.0384866
0.0382781
0.0380778
0.0378861
0.037703
0.0375289
0.0373637
0.0372077
0.0370606
0.0369224
0.0367929
0.0366721
0.0365596
0.0364552
0.0363587
0.0362697
0.036188
0.0361132
0.036045
0.0359832
0.0359274
0.0358773
0.0358327
0.0357933
0.0357588
0.035729
0.0357038
0.0356828
0.0356661
0.0356533
0.0356444
0.0356393
0.0356379
0.0356401
0.0356458
0.0356549
0.0356676
0.0356836
0.0357037
0.0357292
0.0357547
0.0448167
0.0448327
0.0448473
0.0448565
0.0448612
0.044862
0.0448588
0.0448519
0.0448411
0.0448267
0.0448087
0.0447873
0.0447625
0.0447345
0.0447035
0.0446696
0.044633
0.0445938
0.0445522
0.0445083
0.0444623
0.0444141
0.044364
0.044312
0.0442581
0.0442023
0.0441448
0.0440854
0.0440242
0.0439612
0.0438961
0.0438292
0.0437601
0.043689
0.0436156
0.0435399
0.0434619
0.0433814
0.0432983
0.0432126
0.0431242
0.043033
0.042939
0.0428421
0.0427422
0.0426393
0.0425334
0.0424245
0.0423126
0.0421976
0.0420796
0.0419586
0.0418348
0.0417081
0.0415787
0.0414467
0.0413123
0.0411755
0.0410366
0.0408958
0.0407534
0.0406095
0.0404645
0.0403188
0.0401726
0.0400264
0.0398806
0.0397356
0.0395919
0.03945
0.0393103
0.0391736
0.0390402
0.0389109
0.0387861
0.0386666
0.0385529
0.0384457
0.0383457
0.0382534
0.0381694
0.0380945
0.0380291
0.0379739
0.0379295
0.0378962
0.0378746
0.0378652
0.0378682
0.0378842
0.0379132
0.0379555
0.0380113
0.0380806
0.0381634
0.0382596
0.0383691
0.0384915
0.0386265
0.0387737
0.0389326
0.0391026
0.0392828
0.0394727
0.0396712
0.0398774
0.0400903
0.0403087
0.0405316
0.0407576
0.0409855
0.0412139
0.0414415
0.0416669
0.0418886
0.0421052
0.0423153
0.0425174
0.0427103
0.0428925
0.0430628
0.04322
0.0433628
0.0434902
0.0436013
0.0436951
0.043771
0.0438282
0.0438664
0.0438851
0.0438841
0.0438634
0.0438229
0.043763
0.043684
0.0435863
0.0434707
0.0433378
0.0431885
0.0430238
0.0428448
0.0426526
0.0424485
0.0422338
0.0420098
0.0417779
0.0415394
0.0412958
0.0410484
0.0407985
0.0405475
0.0402966
0.040047
0.0397999
0.0395562
0.0393169
0.039083
0.0388552
0.0386341
0.0384205
0.0382147
0.0380172
0.0378283
0.0376482
0.0374771
0.0373151
0.0371622
0.0370183
0.0368833
0.036757
0.0366393
0.0365299
0.0364285
0.0363349
0.0362487
0.0361696
0.0360974
0.0360316
0.035972
0.0359182
0.03587
0.035827
0.035789
0.0357558
0.0357271
0.0357026
0.0356823
0.035666
0.0356536
0.0356449
0.0356399
0.0356385
0.0356407
0.0356466
0.0356561
0.0356694
0.0356865
0.0357082
0.0357363
0.0357646
0.0448295
0.0448459
0.0448608
0.04487
0.0448746
0.0448752
0.0448718
0.0448645
0.0448534
0.0448387
0.0448204
0.0447987
0.0447738
0.0447457
0.0447148
0.044681
0.0446447
0.0446059
0.0445648
0.0445215
0.0444761
0.0444288
0.0443796
0.0443287
0.0442759
0.0442214
0.0441651
0.0441071
0.0440473
0.0439857
0.0439222
0.0438567
0.0437892
0.0437196
0.0436478
0.0435737
0.0434972
0.0434182
0.0433366
0.0432523
0.0431653
0.0430753
0.0429825
0.0428867
0.0427878
0.0426858
0.0425806
0.0424722
0.0423607
0.0422459
0.042128
0.0420069
0.0418827
0.0417554
0.0416251
0.041492
0.0413562
0.0412177
0.0410769
0.0409338
0.0407888
0.0406421
0.040494
0.0403447
0.0401948
0.0400445
0.0398943
0.0397446
0.039596
0.0394488
0.0393037
0.0391612
0.039022
0.0388865
0.0387554
0.0386295
0.0385092
0.0383954
0.0382885
0.0381894
0.0380986
0.0380168
0.0379446
0.0378826
0.0378314
0.0377915
0.0377635
0.0377477
0.0377446
0.0377544
0.0377777
0.0378144
0.0378648
0.037929
0.038007
0.0380987
0.0382038
0.0383223
0.0384537
0.0385976
0.0387535
0.0389208
0.0390987
0.0392866
0.0394834
0.0396883
0.0399003
0.0401181
0.0403407
0.0405668
0.0407951
0.0410242
0.0412528
0.0414794
0.0417027
0.0419212
0.0421334
0.0423379
0.0425334
0.0427184
0.0428916
0.0430519
0.0431979
0.0433287
0.0434432
0.0435405
0.0436199
0.0436807
0.0437224
0.0437446
0.0437471
0.0437297
0.0436926
0.0436358
0.0435598
0.0434651
0.0433522
0.0432219
0.0430751
0.0429128
0.042736
0.0425459
0.0423438
0.042131
0.0419087
0.0416785
0.0414416
0.0411996
0.0409537
0.0407054
0.040456
0.0402067
0.0399587
0.0397133
0.0394714
0.0392341
0.0390022
0.0387765
0.0385577
0.0383464
0.0381431
0.0379482
0.037762
0.0375848
0.0374166
0.0372576
0.0371078
0.0369669
0.0368351
0.036712
0.0365974
0.0364911
0.0363928
0.0363022
0.0362189
0.0361427
0.0360732
0.0360099
0.0359527
0.0359012
0.035855
0.0358139
0.0357776
0.0357458
0.0357184
0.035695
0.0356756
0.03566
0.0356481
0.0356398
0.0356351
0.035634
0.0356365
0.0356427
0.0356527
0.0356666
0.0356848
0.035708
0.0357382
0.0357688
0.0448474
0.0448638
0.0448786
0.0448876
0.044892
0.0448922
0.0448883
0.0448806
0.0448691
0.0448539
0.0448353
0.0448132
0.0447881
0.0447599
0.0447289
0.0446952
0.044659
0.0446205
0.0445798
0.044537
0.0444923
0.0444457
0.0443974
0.0443474
0.0442956
0.0442422
0.0441872
0.0441305
0.044072
0.0440118
0.0439497
0.0438857
0.0438196
0.0437515
0.0436811
0.0436084
0.0435333
0.0434556
0.0433753
0.0432922
0.0432062
0.0431173
0.0430254
0.0429303
0.042832
0.0427304
0.0426255
0.0425173
0.0424056
0.0422905
0.042172
0.04205
0.0419247
0.041796
0.0416641
0.041529
0.0413908
0.0412498
0.041106
0.0409596
0.040811
0.0406603
0.0405078
0.040354
0.0401991
0.0400435
0.0398877
0.0397321
0.0395772
0.0394236
0.0392718
0.0391224
0.0389759
0.0388331
0.0386946
0.0385611
0.0384332
0.0383115
0.0381969
0.03809
0.0379914
0.0379019
0.037822
0.0377525
0.0376938
0.0376467
0.0376115
0.0375888
0.037579
0.0375824
0.0375994
0.0376302
0.037675
0.0377339
0.0378069
0.0378939
0.0379947
0.0381092
0.038237
0.0383777
0.0385307
0.0386955
0.0388713
0.0390575
0.039253
0.039457
0.0396684
0.0398861
0.0401089
0.0403356
0.0405648
0.0407953
0.0410256
0.0412543
0.04148
0.0417011
0.0419163
0.0421241
0.0423231
0.0425118
0.0426891
0.0428535
0.0430038
0.0431391
0.0432581
0.0433601
0.0434442
0.0435096
0.043556
0.0435828
0.0435899
0.043577
0.0435442
0.0434917
0.0434198
0.043329
0.0432198
0.0430931
0.0429496
0.0427904
0.0426166
0.0424293
0.0422297
0.0420193
0.0417993
0.0415712
0.0413363
0.0410961
0.040852
0.0406054
0.0403577
0.0401101
0.0398638
0.0396201
0.03938
0.0391445
0.0389145
0.0386908
0.0384741
0.038265
0.0380641
0.0378716
0.037688
0.0375135
0.0373481
0.037192
0.0370451
0.0369073
0.0367785
0.0366585
0.0365471
0.0364439
0.0363487
0.0362612
0.0361809
0.0361076
0.0360408
0.0359803
0.0359256
0.0358765
0.0358325
0.0357935
0.035759
0.0357289
0.0357029
0.0356809
0.0356626
0.0356479
0.0356367
0.0356291
0.0356249
0.0356242
0.0356271
0.0356337
0.0356443
0.0356589
0.0356779
0.0357024
0.0357344
0.0357667
0.0448705
0.0448866
0.0449009
0.0449095
0.0449133
0.044913
0.0449086
0.0449003
0.0448882
0.0448725
0.0448533
0.0448309
0.0448054
0.0447769
0.0447458
0.044712
0.0446759
0.0446376
0.0445972
0.0445549
0.0445107
0.0444648
0.0444172
0.0443681
0.0443173
0.044265
0.0442111
0.0441555
0.0440983
0.0440393
0.0439785
0.0439158
0.0438511
0.0437842
0.0437151
0.0436437
0.0435697
0.0434931
0.0434138
0.0433317
0.0432465
0.0431583
0.0430668
0.0429721
0.0428739
0.0427723
0.0426672
0.0425584
0.042446
0.0423298
0.04221
0.0420864
0.0419592
0.0418282
0.0416937
0.0415556
0.0414141
0.0412694
0.0411215
0.0409707
0.0408172
0.0406613
0.0405033
0.0403435
0.0401823
0.0400201
0.0398573
0.0396945
0.0395321
0.0393707
0.0392109
0.0390532
0.0388984
0.0387471
0.0385999
0.0384575
0.0383208
0.0381903
0.0380669
0.0379511
0.0378438
0.0377456
0.0376573
0.0375794
0.0375125
0.0374574
0.0374145
0.0373843
0.0373672
0.0373637
0.0373741
0.0373986
0.0374375
0.0374908
0.0375585
0.0376407
0.0377371
0.0378475
0.0379716
0.0381091
0.0382593
0.0384217
0.0385956
0.0387802
0.0389746
0.039178
0.0393892
0.0396071
0.0398306
0.0400584
0.0402892
0.0405217
0.0407543
0.0409858
0.0412146
0.0414393
0.0416583
0.0418703
0.0420738
0.0422673
0.0424496
0.0426193
0.0427751
0.042916
0.0430408
0.0431487
0.0432387
0.0433102
0.0433625
0.0433953
0.0434082
0.0434011
0.0433739
0.0433269
0.0432603
0.0431746
0.0430704
0.0429483
0.0428093
0.0426543
0.0424843
0.0423007
0.0421046
0.0418973
0.0416802
0.0414548
0.0412225
0.0409847
0.0407428
0.0404983
0.0402526
0.0400069
0.0397625
0.0395206
0.0392823
0.0390487
0.0388206
0.0385988
0.0383842
0.0381772
0.0379785
0.0377884
0.0376072
0.0374352
0.0372725
0.0371191
0.036975
0.0368402
0.0367144
0.0365974
0.0364891
0.036389
0.0362969
0.0362124
0.0361351
0.0360648
0.0360009
0.0359431
0.0358911
0.0358445
0.0358029
0.035766
0.0357336
0.0357053
0.035681
0.0356604
0.0356433
0.0356297
0.0356195
0.0356126
0.0356091
0.035609
0.0356124
0.0356195
0.0356306
0.0356458
0.0356656
0.035691
0.0357243
0.035758
0.0448987
0.0449141
0.0449277
0.0449356
0.0449387
0.0449377
0.0449326
0.0449235
0.0449107
0.0448944
0.0448746
0.0448517
0.0448257
0.0447969
0.0447655
0.0447317
0.0446955
0.0446573
0.0446171
0.0445751
0.0445314
0.0444861
0.0444392
0.0443908
0.0443409
0.0442895
0.0442366
0.0441821
0.044126
0.0440682
0.0440086
0.043947
0.0438834
0.0438177
0.0437497
0.0436792
0.0436061
0.0435304
0.0434518
0.0433702
0.0432854
0.0431974
0.043106
0.0430111
0.0429126
0.0428103
0.0427043
0.0425943
0.0424804
0.0423624
0.0422404
0.0421144
0.0419842
0.04185
0.0417118
0.0415696
0.0414237
0.041274
0.0411208
0.0409643
0.0408047
0.0406423
0.0404773
0.0403102
0.0401413
0.0399711
0.0398
0.0396285
0.0394572
0.0392866
0.0391174
0.0389501
0.0387856
0.0386244
0.0384673
0.038315
0.0381682
0.0380278
0.0378944
0.0377688
0.0376518
0.0375441
0.0374463
0.0373592
0.0372834
0.0372196
0.0371682
0.0371299
0.0371051
0.0370941
0.0370974
0.0371152
0.0371477
0.0371951
0.0372573
0.0373343
0.0374261
0.0375323
0.0376527
0.0377868
0.0379342
0.0380942
0.0382663
0.0384495
0.038643
0.038846
0.0390573
0.0392758
0.0395004
0.0397298
0.0399626
0.0401976
0.0404333
0.0406682
0.0409009
0.0411299
0.0413537
0.0415709
0.0417799
0.0419793
0.0421677
0.0423438
0.0425064
0.0426542
0.0427861
0.0429012
0.0429986
0.0430775
0.0431373
0.0431774
0.0431977
0.0431979
0.0431778
0.0431378
0.043078
0.0429988
0.0429008
0.0427848
0.0426514
0.0425018
0.042337
0.0421582
0.0419665
0.0417634
0.0415502
0.0413284
0.0410994
0.0408646
0.0406256
0.0403837
0.0401404
0.039897
0.0396548
0.0394151
0.0391788
0.0389472
0.0387211
0.0385013
0.0382887
0.0380838
0.0378872
0.0376994
0.0375205
0.0373509
0.0371907
0.03704
0.0368986
0.0367665
0.0366436
0.0365296
0.0364242
0.0363271
0.0362381
0.0361566
0.0360823
0.0360149
0.0359539
0.0358989
0.0358496
0.0358055
0.0357664
0.0357318
0.0357015
0.0356752
0.0356526
0.0356336
0.035618
0.0356056
0.0355965
0.0355905
0.0355877
0.0355883
0.0355922
0.0355999
0.0356114
0.0356272
0.0356475
0.0356736
0.0357077
0.0357423
0.044932
0.0449465
0.0449591
0.044966
0.0449682
0.0449662
0.0449602
0.0449503
0.0449367
0.0449196
0.0448992
0.0448756
0.0448491
0.0448199
0.0447881
0.0447541
0.0447178
0.0446796
0.0446396
0.0445978
0.0445545
0.0445096
0.0444633
0.0444156
0.0443665
0.0443159
0.0442638
0.0442103
0.0441551
0.0440983
0.0440396
0.043979
0.0439164
0.0438515
0.0437843
0.0437145
0.0436421
0.0435668
0.0434885
0.043407
0.0433222
0.0432339
0.0431421
0.0430464
0.0429468
0.0428433
0.0427356
0.0426236
0.0425073
0.0423866
0.0422615
0.0421319
0.0419978
0.0418592
0.0417161
0.0415687
0.041417
0.0412611
0.0411013
0.0409377
0.0407705
0.0406001
0.0404267
0.0402508
0.0400728
0.039893
0.0397121
0.0395305
0.0393488
0.0391676
0.0389876
0.0388094
0.0386337
0.0384614
0.0382931
0.0381296
0.0379716
0.0378201
0.0376757
0.0375392
0.0374115
0.0372932
0.0371851
0.037088
0.0370025
0.0369292
0.0368687
0.0368216
0.0367883
0.0367693
0.036765
0.0367756
0.0368013
0.0368423
0.0368986
0.0369702
0.037057
0.0371588
0.0372752
0.0374059
0.0375504
0.037708
0.0378782
0.0380601
0.0382528
0.0384556
0.0386672
0.0388866
0.0391126
0.0393439
0.0395793
0.0398174
0.0400567
0.0402957
0.0405331
0.0407673
0.0409968
0.0412201
0.0414356
0.041642
0.0418378
0.0420217
0.0421923
0.0423484
0.0424889
0.0426127
0.0427189
0.0428068
0.0428756
0.0429249
0.0429541
0.0429632
0.042952
0.0429205
0.0428691
0.0427981
0.042708
0.0425995
0.0424735
0.0423308
0.0421725
0.0419997
0.0418139
0.0416161
0.0414079
0.0411907
0.040966
0.0407352
0.0404998
0.0402613
0.0400211
0.0397806
0.039541
0.0393038
0.0390699
0.0388405
0.0386166
0.038399
0.0381885
0.0379857
0.0377913
0.0376056
0.037429
0.0372618
0.037104
0.0369557
0.0368169
0.0366875
0.0365673
0.0364561
0.0363535
0.0362594
0.0361732
0.0360946
0.0360233
0.0359587
0.0359006
0.0358484
0.0358017
0.0357603
0.0357236
0.0356913
0.0356632
0.0356389
0.0356182
0.0356009
0.0355868
0.0355757
0.0355677
0.0355627
0.0355608
0.035562
0.0355666
0.0355747
0.0355867
0.0356028
0.0356235
0.03565
0.0356846
0.0357195
0.0449703
0.0449836
0.0449949
0.0450007
0.0450017
0.0449987
0.0449916
0.0449807
0.0449662
0.0449482
0.044927
0.0449027
0.0448755
0.0448458
0.0448137
0.0447793
0.0447429
0.0447046
0.0446646
0.044623
0.0445799
0.0445354
0.0444896
0.0444424
0.0443939
0.044344
0.0442927
0.0442399
0.0441855
0.0441294
0.0440715
0.0440116
0.0439496
0.0438853
0.0438186
0.0437491
0.0436769
0.0436017
0.0435232
0.0434414
0.043356
0.0432669
0.0431739
0.0430768
0.0429755
0.0428698
0.0427596
0.0426447
0.0425251
0.0424007
0.0422713
0.0421371
0.0419978
0.0418536
0.0417044
0.0415503
0.0413915
0.041228
0.04106
0.0408878
0.0407115
0.0405316
0.0403483
0.0401621
0.0399733
0.0397825
0.0395902
0.0393969
0.0392033
0.0390101
0.0388178
0.0386272
0.0384391
0.0382543
0.0380735
0.0378975
0.0377271
0.0375633
0.0374068
0.0372583
0.0371189
0.0369891
0.0368698
0.0367617
0.0366656
0.036582
0.0365117
0.0364551
0.0364127
0.0363851
0.0363725
0.0363753
0.0363937
0.0364279
0.0364779
0.0365437
0.0366252
0.0367222
0.0368344
0.0369614
0.0371028
0.0372579
0.0374261
0.0376066
0.0377987
0.0380012
0.0382133
0.0384338
0.0386615
0.0388952
0.0391336
0.0393752
0.0396188
0.0398627
0.0401055
0.0403457
0.0405817
0.0408121
0.0410353
0.0412499
0.0414543
0.0416472
0.0418272
0.0419931
0.0421437
0.0422778
0.0423946
0.0424932
0.0425728
0.0426329
0.042673
0.0426928
0.0426922
0.0426713
0.0426301
0.0425691
0.0424887
0.0423896
0.0422725
0.0421384
0.0419883
0.0418233
0.0416446
0.0414537
0.0412519
0.0410406
0.0408213
0.0405956
0.0403649
0.0401306
0.0398943
0.0396574
0.0394212
0.0391869
0.0389559
0.0387291
0.0385077
0.0382925
0.0380843
0.0378838
0.0376916
0.0375081