/*--------------------------------*- C++ -*----------------------------------*\
  =========                 |
  \\      /  F ield         | OpenFOAM: The Open Source CFD Toolbox
   \\    /   O peration     | Website:  https://openfoam.org
    \\  /    A nd           | Version:  6
     \\/     M anipulation  |
\*---------------------------------------------------------------------------*/
FoamFile
{
    version     2.0;
    format      ascii;
    class       volScalarField;
    location    "./ITHACAoutput/Offline/1";
    object      P_rec;
}
// * * * * * * * * * * * * * * * * * * * * * * * * * * * * * * * * * * * * * //

dimensions      [0 2 -2 0 0 0 0];

internalField   nonuniform List<scalar> 
40000
(
0.0456209
0.0456267
0.0456361
0.045646
0.0456541
0.0456591
0.0456599
0.0456561
0.0456473
0.0456334
0.0456144
0.0455905
0.0455617
0.0455283
0.0454906
0.0454487
0.045403
0.0453537
0.045301
0.0452451
0.0451863
0.0451248
0.0450607
0.0449941
0.0449251
0.0448539
0.0447804
0.0447048
0.0446269
0.0445468
0.0444645
0.0443799
0.0442929
0.0442035
0.0441116
0.0440171
0.04392
0.0438201
0.0437174
0.0436118
0.0435032
0.0433916
0.0432769
0.0431592
0.0430384
0.0429144
0.0427874
0.0426573
0.0425243
0.0423883
0.0422495
0.042108
0.0419639
0.0418174
0.0416686
0.0415179
0.0413653
0.0412111
0.0410557
0.0408993
0.0407423
0.040585
0.0404277
0.040271
0.0401152
0.0399608
0.0398083
0.0396581
0.0395109
0.0393671
0.0392272
0.039092
0.038962
0.0388377
0.0387199
0.038609
0.0385058
0.0384108
0.0383247
0.038248
0.0381814
0.0381254
0.0380806
0.0380473
0.0380263
0.0380178
0.0380223
0.0380401
0.0380715
0.0381167
0.038176
0.0382494
0.038337
0.0384386
0.0385543
0.0386838
0.0388267
0.0389828
0.0391515
0.0393324
0.0395247
0.0397278
0.0399408
0.0401628
0.0403929
0.0406299
0.0408728
0.0411203
0.0413711
0.0416239
0.0418774
0.0421301
0.0423805
0.0426272
0.0428686
0.0431034
0.04333
0.0435469
0.0437527
0.043946
0.0441256
0.0442902
0.0444385
0.0445695
0.0446823
0.0447759
0.0448497
0.0449029
0.0449352
0.0449462
0.0449357
0.0449036
0.04485
0.0447753
0.0446797
0.0445638
0.0444284
0.044274
0.0441018
0.0439127
0.0437078
0.0434884
0.0432558
0.0430112
0.0427561
0.042492
0.0422202
0.0419423
0.0416596
0.0413737
0.0410859
0.0407976
0.04051
0.0402245
0.0399421
0.039664
0.0393911
0.0391244
0.0388647
0.0386127
0.038369
0.0381342
0.0379087
0.0376929
0.037487
0.0372913
0.0371058
0.0369306
0.0367656
0.0366108
0.0364661
0.0363312
0.0362059
0.03609
0.0359833
0.0358853
0.0357959
0.0357147
0.0356414
0.0355758
0.0355174
0.0354661
0.0354216
0.0353837
0.0353521
0.0353267
0.0353072
0.0352936
0.0352856
0.0352831
0.0352859
0.0352935
0.0353057
0.0353218
0.0353409
0.035362
0.0353833
0.0354025
0.0354166
0.0354232
0.045615
0.0456209
0.0456289
0.0456367
0.0456428
0.0456459
0.0456453
0.0456404
0.045631
0.0456168
0.0455979
0.0455744
0.0455463
0.0455138
0.0454771
0.0454365
0.0453921
0.0453442
0.045293
0.0452387
0.0451815
0.0451216
0.045059
0.044994
0.0449266
0.0448569
0.044785
0.0447108
0.0446344
0.0445558
0.044475
0.0443918
0.0443063
0.0442183
0.0441279
0.0440349
0.0439393
0.0438409
0.0437398
0.0436358
0.0435289
0.0434191
0.0433062
0.0431903
0.0430713
0.0429494
0.0428244
0.0426963
0.0425654
0.0424316
0.042295
0.0421557
0.0420139
0.0418696
0.0417232
0.0415747
0.0414245
0.0412726
0.0411195
0.0409654
0.0408106
0.0406555
0.0405004
0.0403457
0.0401919
0.0400394
0.0398887
0.0397402
0.0395944
0.039452
0.0393135
0.0391793
0.0390502
0.0389266
0.0388093
0.0386987
0.0385955
0.0385004
0.0384138
0.0383365
0.038269
0.0382117
0.0381654
0.0381304
0.0381073
0.0380965
0.0380984
0.0381132
0.0381415
0.0381832
0.0382387
0.0383081
0.0383913
0.0384884
0.0385992
0.0387235
0.0388611
0.0390116
0.0391746
0.0393495
0.0395357
0.0397324
0.039939
0.0401545
0.0403779
0.0406082
0.0408442
0.0410849
0.041329
0.041575
0.0418218
0.0420678
0.0423117
0.042552
0.0427873
0.043016
0.0432368
0.0434482
0.0436487
0.0438371
0.0440121
0.0441724
0.0443168
0.0444444
0.0445541
0.044645
0.0447166
0.0447681
0.0447992
0.0448094
0.0447986
0.0447667
0.0447138
0.0446402
0.0445463
0.0444325
0.0442995
0.0441482
0.0439794
0.0437941
0.0435934
0.0433785
0.0431507
0.0429113
0.0426616
0.042403
0.0421371
0.0418651
0.0415885
0.0413087
0.0410271
0.040745
0.0404636
0.0401842
0.0399078
0.0396356
0.0393685
0.0391074
0.038853
0.0386062
0.0383674
0.0381373
0.0379162
0.0377045
0.0375025
0.0373104
0.0371281
0.0369559
0.0367936
0.0366413
0.0364987
0.0363657
0.0362421
0.0361276
0.036022
0.035925
0.0358363
0.0357557
0.0356828
0.0356172
0.0355589
0.0355074
0.0354626
0.0354241
0.0353919
0.0353656
0.035345
0.0353301
0.0353206
0.0353162
0.0353167
0.0353219
0.0353312
0.035344
0.0353596
0.035377
0.0353947
0.0354108
0.0354231
0.0354297
0.0456056
0.0456128
0.0456209
0.0456275
0.0456321
0.0456337
0.0456319
0.0456261
0.0456161
0.0456017
0.0455829
0.0455597
0.0455323
0.0455006
0.045465
0.0454256
0.0453826
0.0453362
0.0452865
0.0452338
0.0451782
0.04512
0.0450591
0.0449958
0.0449301
0.0448621
0.0447919
0.0447194
0.0446447
0.0445678
0.0444886
0.0444071
0.0443233
0.044237
0.0441483
0.0440571
0.0439632
0.0438667
0.0437674
0.0436653
0.0435603
0.0434524
0.0433416
0.0432278
0.043111
0.0429912
0.0428684
0.0427426
0.042614
0.0424825
0.0423483
0.0422114
0.042072
0.0419302
0.0417862
0.0416402
0.0414923
0.0413429
0.0411921
0.0410403
0.0408877
0.0407347
0.0405817
0.040429
0.0402771
0.0401263
0.0399771
0.0398301
0.0396857
0.0395443
0.0394067
0.0392733
0.0391446
0.0390214
0.038904
0.0387933
0.0386897
0.0385938
0.0385063
0.0384277
0.0383587
0.0382996
0.0382512
0.0382138
0.038188
0.0381742
0.0381728
0.0381841
0.0382085
0.0382462
0.0382973
0.038362
0.0384403
0.0385323
0.0386377
0.0387565
0.0388883
0.0390329
0.0391897
0.0393583
0.0395381
0.0397283
0.0399283
0.040137
0.0403537
0.0405772
0.0408065
0.0410405
0.0412778
0.0415172
0.0417574
0.041997
0.0422346
0.0424688
0.0426981
0.0429212
0.0431364
0.0433426
0.0435382
0.043722
0.0438927
0.044049
0.0441898
0.0443142
0.044421
0.0445096
0.0445792
0.0446291
0.044659
0.0446685
0.0446575
0.0446258
0.0445735
0.044501
0.0444086
0.0442968
0.0441662
0.0440177
0.043852
0.0436703
0.0434735
0.0432628
0.0430396
0.042805
0.0425604
0.0423072
0.0420467
0.0417804
0.0415097
0.0412359
0.0409603
0.0406843
0.040409
0.0401356
0.0398653
0.039599
0.0393377
0.0390823
0.0388336
0.0385921
0.0383585
0.0381334
0.037917
0.0377098
0.037512
0.0373238
0.0371452
0.0369764
0.0368173
0.0366678
0.0365277
0.036397
0.0362755
0.0361628
0.0360587
0.035963
0.0358754
0.0357956
0.0357233
0.0356583
0.0356001
0.0355487
0.0355037
0.0354648
0.0354319
0.0354048
0.0353832
0.035367
0.0353558
0.0353496
0.035348
0.0353506
0.0353572
0.035367
0.0353795
0.0353938
0.0354088
0.0354231
0.0354354
0.0354439
0.0455957
0.045605
0.0456142
0.0456209
0.0456249
0.0456259
0.0456233
0.045617
0.0456066
0.0455921
0.0455733
0.0455504
0.0455234
0.0454924
0.0454576
0.0454192
0.0453772
0.0453319
0.0452835
0.0452322
0.0451781
0.0451212
0.0450619
0.0450001
0.044936
0.0448696
0.0448009
0.04473
0.0446569
0.0445816
0.044504
0.0444242
0.044342
0.0442575
0.0441704
0.0440809
0.0439888
0.043894
0.0437965
0.0436963
0.0435932
0.0434872
0.0433783
0.0432665
0.0431516
0.0430339
0.0429131
0.0427895
0.0426629
0.0425336
0.0424014
0.0422667
0.0421294
0.0419896
0.0418477
0.0417037
0.0415578
0.0414102
0.0412613
0.0411112
0.0409603
0.0408089
0.0406573
0.040506
0.0403552
0.0402055
0.0400572
0.0399109
0.039767
0.0396261
0.0394886
0.0393551
0.0392262
0.0391025
0.0389845
0.0388728
0.038768
0.0386707
0.0385815
0.0385011
0.0384298
0.0383684
0.0383173
0.0382771
0.0382482
0.0382311
0.0382262
0.0382337
0.0382542
0.0382877
0.0383345
0.0383947
0.0384683
0.0385555
0.038656
0.0387697
0.0388964
0.0390357
0.0391872
0.0393504
0.0395248
0.0397096
0.0399041
0.0401074
0.0403187
0.0405368
0.0407608
0.0409896
0.0412218
0.0414562
0.0416915
0.0419264
0.0421594
0.0423892
0.0426143
0.0428333
0.0430448
0.0432473
0.0434396
0.0436203
0.043788
0.0439417
0.0440802
0.0442025
0.0443075
0.0443946
0.0444629
0.0445119
0.0445412
0.0445503
0.0445392
0.0445077
0.044456
0.0443843
0.044293
0.0441825
0.0440536
0.043907
0.0437436
0.0435643
0.0433702
0.0431625
0.0429425
0.0427113
0.0424703
0.0422209
0.0419645
0.0417024
0.0414359
0.0411665
0.0408955
0.040624
0.0403534
0.0400848
0.0398192
0.0395577
0.0393011
0.0390504
0.0388062
0.0385692
0.0383401
0.0381192
0.037907
0.0377038
0.0375099
0.0373253
0.0371502
0.0369846
0.0368286
0.0366819
0.0365445
0.0364162
0.0362968
0.0361861
0.0360838
0.0359897
0.0359034
0.0358248
0.0357534
0.035689
0.0356314
0.0355803
0.0355354
0.0354964
0.0354632
0.0354356
0.0354132
0.035396
0.0353837
0.035376
0.0353727
0.0353736
0.0353781
0.035386
0.0353966
0.0354092
0.035423
0.0354373
0.0354516
0.0354632
0.0455874
0.0455989
0.0456097
0.0456169
0.0456209
0.0456216
0.0456187
0.0456121
0.0456014
0.0455867
0.045568
0.0455453
0.0455186
0.0454881
0.045454
0.0454163
0.0453752
0.0453309
0.0452836
0.0452335
0.0451806
0.0451251
0.0450671
0.0450067
0.0449441
0.0448791
0.044812
0.0447427
0.0446712
0.0445975
0.0445216
0.0444434
0.0443629
0.04428
0.0441947
0.0441069
0.0440166
0.0439236
0.0438279
0.0437295
0.0436282
0.0435241
0.0434171
0.0433072
0.0431943
0.0430785
0.0429597
0.0428379
0.0427133
0.0425859
0.0424556
0.0423227
0.0421872
0.0420493
0.0419091
0.0417667
0.0416224
0.0414763
0.0413288
0.04118
0.0410302
0.0408799
0.0407292
0.0405786
0.0404284
0.040279
0.040131
0.0399847
0.0398406
0.0396993
0.0395612
0.0394269
0.039297
0.039172
0.0390525
0.0389391
0.0388324
0.038733
0.0386414
0.0385583
0.0384843
0.0384198
0.0383655
0.0383219
0.0382894
0.0382684
0.0382596
0.038263
0.0382792
0.0383084
0.0383507
0.0384063
0.0384753
0.0385577
0.0386535
0.0387624
0.0388842
0.0390187
0.0391654
0.0393238
0.0394934
0.0396735
0.0398633
0.0400621
0.0402689
0.0404827
0.0407025
0.0409271
0.0411553
0.0413859
0.0416176
0.041849
0.0420787
0.0423053
0.0425275
0.0427437
0.0429526
0.0431528
0.0433429
0.0435216
0.0436876
0.0438398
0.0439769
0.044098
0.0442021
0.0442884
0.0443561
0.0444048
0.0444338
0.044443
0.044432
0.0444009
0.0443498
0.0442788
0.0441884
0.0440791
0.0439515
0.0438063
0.0436445
0.0434671
0.043275
0.0430695
0.0428517
0.042623
0.0423847
0.0421381
0.0418847
0.0416257
0.0413625
0.0410965
0.0408289
0.0405611
0.0402942
0.0400293
0.0397676
0.03951
0.0392574
0.0390106
0.0387704
0.0385374
0.0383122
0.0380952
0.0378868
0.0376874
0.037497
0.037316
0.0371443
0.0369819
0.0368289
0.0366852
0.0365506
0.0364249
0.0363079
0.0361994
0.0360991
0.0360068
0.0359221
0.0358449
0.0357747
0.0357114
0.0356546
0.035604
0.0355595
0.0355208
0.0354875
0.0354596
0.0354368
0.0354189
0.0354057
0.035397
0.0353925
0.035392
0.0353952
0.0354017
0.0354112
0.0354231
0.0354368
0.0354521
0.0354691
0.0354844
0.0455823
0.0455957
0.045608
0.0456159
0.0456201
0.0456208
0.0456177
0.0456108
0.0456
0.0455852
0.0455665
0.0455439
0.0455174
0.0454873
0.0454536
0.0454166
0.0453762
0.0453328
0.0452865
0.0452374
0.0451856
0.0451313
0.0450746
0.0450156
0.0449543
0.0448909
0.0448252
0.0447575
0.0446875
0.0446155
0.0445412
0.0444647
0.0443859
0.0443047
0.0442212
0.0441352
0.0440466
0.0439554
0.0438616
0.043765
0.0436656
0.0435633
0.0434581
0.0433501
0.043239
0.043125
0.043008
0.0428881
0.0427652
0.0426394
0.0425109
0.0423796
0.0422456
0.0421092
0.0419703
0.0418292
0.041686
0.041541
0.0413944
0.0412464
0.0410972
0.0409473
0.0407969
0.0406464
0.0404961
0.0403465
0.0401979
0.0400509
0.0399059
0.0397634
0.0396239
0.039488
0.0393562
0.0392291
0.0391073
0.0389913
0.0388818
0.0387794
0.0386847
0.0385982
0.0385206
0.0384524
0.0383942
0.0383465
0.0383098
0.0382846
0.0382713
0.0382702
0.0382818
0.0383063
0.0383439
0.0383948
0.0384591
0.0385367
0.0386277
0.0387319
0.0388491
0.038979
0.0391212
0.0392752
0.0394405
0.0396164
0.0398022
0.0399971
0.0402002
0.0404104
0.0406268
0.0408481
0.0410733
0.041301
0.04153
0.0417589
0.0419863
0.0422109
0.0424311
0.0426456
0.042853
0.0430519
0.0432408
0.0434185
0.0435838
0.0437353
0.0438719
0.0439927
0.0440966
0.0441828
0.0442507
0.0442996
0.044329
0.0443386
0.0443282
0.0442978
0.0442474
0.0441773
0.0440879
0.0439796
0.0438532
0.0437093
0.0435489
0.0433729
0.0431824
0.0429785
0.0427626
0.0425358
0.0422995
0.0420551
0.0418039
0.0415473
0.0412867
0.0410233
0.0407585
0.0404936
0.0402297
0.039968
0.0397095
0.0394552
0.039206
0.0389627
0.038726
0.0384965
0.0382749
0.0380614
0.0378566
0.0376607
0.0374739
0.0372962
0.0371279
0.0369688
0.036819
0.0366783
0.0365466
0.0364236
0.0363092
0.0362032
0.0361052
0.0360149
0.0359322
0.0358566
0.035788
0.0357259
0.0356702
0.0356205
0.0355767
0.0355383
0.0355054
0.0354775
0.0354545
0.0354362
0.0354224
0.0354129
0.0354076
0.0354062
0.0354085
0.0354142
0.0354231
0.0354349
0.0354491
0.035466
0.035486
0.0355052
0.0455812
0.0455961
0.0456097
0.0456183
0.0456228
0.0456235
0.0456203
0.0456133
0.0456023
0.0455873
0.0455686
0.045546
0.0455197
0.0454898
0.0454565
0.0454199
0.0453802
0.0453375
0.045292
0.0452438
0.0451931
0.0451399
0.0450844
0.0450267
0.0449668
0.0449047
0.0448406
0.0447743
0.0447059
0.0446355
0.0445628
0.044488
0.0444109
0.0443315
0.0442497
0.0441655
0.0440787
0.0439893
0.0438972
0.0438024
0.0437048
0.0436043
0.0435009
0.0433946
0.0432852
0.0431729
0.0430575
0.0429392
0.0428178
0.0426935
0.0425664
0.0424363
0.0423036
0.0421682
0.0420303
0.04189
0.0417475
0.041603
0.0414567
0.0413088
0.0411597
0.0410095
0.0408587
0.0407075
0.0405563
0.0404056
0.0402557
0.0401071
0.0399602
0.0398156
0.0396738
0.0395354
0.0394008
0.0392707
0.0391456
0.0390262
0.0389131
0.0388069
0.0387081
0.0386174
0.0385355
0.0384628
0.0383999
0.0383475
0.038306
0.0382759
0.0382576
0.0382516
0.0382582
0.0382777
0.0383103
0.0383563
0.0384157
0.0384885
0.0385748
0.0386744
0.0387871
0.0389127
0.0390506
0.0392006
0.039362
0.0395342
0.0397165
0.0399081
0.040108
0.0403153
0.040529
0.0407479
0.0409708
0.0411965
0.0414237
0.041651
0.0418771
0.0421005
0.0423198
0.0425336
0.0427404
0.0429389
0.0431277
0.0433054
0.0434707
0.0436225
0.0437596
0.0438809
0.0439855
0.0440724
0.0441411
0.0441909
0.0442213
0.0442319
0.0442226
0.0441933
0.0441441
0.0440752
0.043987
0.0438799
0.0437548
0.0436122
0.0434531
0.0432784
0.0430893
0.0428869
0.0426725
0.0424473
0.0422126
0.0419699
0.0417205
0.0414658
0.0412072
0.0409459
0.0406834
0.0404208
0.0401593
0.0399002
0.0396444
0.0393929
0.0391466
0.0389063
0.0386727
0.0384465
0.0382281
0.0380179
0.0378165
0.0376239
0.0374404
0.0372661
0.0371011
0.0369453
0.0367987
0.0366611
0.0365324
0.0364124
0.0363008
0.0361974
0.0361018
0.0360139
0.0359333
0.0358597
0.0357928
0.0357324
0.035678
0.0356295
0.0355866
0.035549
0.0355165
0.0354889
0.035466
0.0354477
0.0354336
0.0354238
0.0354179
0.035416
0.0354177
0.0354231
0.0354319
0.0354439
0.035459
0.0354775
0.0355007
0.0355234
0.0455848
0.0456008
0.0456153
0.0456245
0.0456292
0.0456299
0.0456266
0.0456194
0.0456082
0.0455931
0.0455742
0.0455515
0.0455253
0.0454956
0.0454625
0.0454263
0.0453871
0.045345
0.0453002
0.0452528
0.045203
0.0451509
0.0450965
0.04504
0.0449813
0.0449206
0.0448579
0.0447931
0.0447263
0.0446574
0.0445864
0.0445132
0.0444378
0.0443601
0.0442801
0.0441976
0.0441125
0.0440249
0.0439345
0.0438414
0.0437455
0.0436467
0.0435449
0.0434402
0.0433324
0.0432215
0.0431076
0.0429905
0.0428704
0.0427472
0.0426211
0.0424919
0.0423599
0.0422251
0.0420876
0.0419476
0.0418052
0.0416606
0.0415139
0.0413655
0.0412156
0.0410644
0.0409123
0.0407596
0.0406066
0.0404539
0.0403017
0.0401505
0.0400009
0.0398532
0.0397081
0.0395661
0.0394277
0.0392936
0.0391643
0.0390405
0.0389227
0.0388117
0.038708
0.0386122
0.0385251
0.0384471
0.0383789
0.038321
0.038274
0.0382384
0.0382147
0.0382032
0.0382044
0.0382186
0.0382459
0.0382867
0.0383411
0.0384091
0.0384906
0.0385856
0.0386939
0.0388153
0.0389493
0.0390955
0.0392533
0.0394222
0.0396015
0.0397902
0.0399876
0.0401927
0.0404043
0.0406214
0.0408428
0.0410673
0.0412935
0.04152
0.0417456
0.0419687
0.042188
0.0424019
0.0426092
0.0428082
0.0429978
0.0431764
0.0433428
0.0434958
0.0436342
0.0437569
0.043863
0.0439516
0.044022
0.0440734
0.0441055
0.0441179
0.0441103
0.0440827
0.0440352
0.043968
0.0438814
0.043776
0.0436524
0.0435114
0.0433538
0.0431806
0.042993
0.042792
0.042579
0.0423552
0.042122
0.0418808
0.041633
0.0413798
0.0411229
0.0408634
0.0406027
0.040342
0.0400826
0.0398256
0.0395721
0.039323
0.0390793
0.0388416
0.0386108
0.0383874
0.038172
0.0379649
0.0377666
0.0375772
0.0373969
0.0372259
0.0370642
0.0369116
0.0367682
0.0366338
0.0365082
0.0363912
0.0362826
0.0361819
0.0360891
0.0360037
0.0359255
0.0358541
0.0357893
0.0357306
0.0356779
0.0356308
0.0355891
0.0355525
0.0355208
0.0354938
0.0354713
0.0354531
0.0354391
0.0354292
0.0354232
0.035421
0.0354226
0.0354278
0.0354368
0.0354493
0.0354655
0.0354858
0.0355118
0.0355378
0.0455933
0.04561
0.0456252
0.0456346
0.0456394
0.0456401
0.0456366
0.0456292
0.0456177
0.0456024
0.0455833
0.0455605
0.0455342
0.0455045
0.0454716
0.0454357
0.0453968
0.0453552
0.045311
0.0452644
0.0452154
0.0451642
0.0451108
0.0450554
0.044998
0.0449386
0.0448772
0.0448139
0.0447486
0.0446812
0.0446118
0.0445402
0.0444665
0.0443905
0.0443121
0.0442312
0.0441479
0.0440619
0.0439732
0.0438817
0.0437873
0.04369
0.0435897
0.0434863
0.0433798
0.0432701
0.0431573
0.0430412
0.042922
0.0427995
0.0426739
0.0425452
0.0424134
0.0422786
0.0421409
0.0420005
0.0418575
0.041712
0.0415642
0.0414144
0.0412629
0.0411098
0.0409554
0.0408003
0.0406445
0.0404887
0.0403332
0.0401784
0.0400249
0.0398731
0.0397236
0.0395769
0.0394336
0.0392944
0.0391598
0.0390305
0.0389071
0.0387902
0.0386806
0.0385788
0.0384856
0.0384014
0.0383271
0.038263
0.0382099
0.0381682
0.0381384
0.038121
0.0381163
0.0381247
0.0381465
0.0381819
0.0382311
0.038294
0.0383707
0.0384612
0.0385651
0.0386824
0.0388125
0.0389552
0.0391098
0.0392758
0.0394523
0.0396387
0.039834
0.0400373
0.0402474
0.0404634
0.040684
0.0409078
0.0411337
0.0413603
0.0415862
0.0418098
0.0420299
0.0422449
0.0424534
0.042654
0.0428452
0.0430257
0.0431942
0.0433494
0.0434901
0.0436152
0.0437238
0.0438149
0.0438878
0.0439419
0.0439766
0.0439915
0.0439865
0.0439614
0.0439163
0.0438515
0.0437672
0.043664
0.0435425
0.0434034
0.0432477
0.0430764
0.0428905
0.0426912
0.0424798
0.0422576
0.0420259
0.0417862
0.0415398
0.0412882
0.0410328
0.0407748
0.0405157
0.0402568
0.0399992
0.0397441
0.0394926
0.0392456
0.0390041
0.0387688
0.0385405
0.0383197
0.038107
0.0379027
0.0377073
0.037521
0.0373438
0.0371759
0.0370174
0.0368681
0.0367279
0.0365967
0.0364743
0.0363604
0.0362548
0.0361571
0.0360671
0.0359845
0.0359088
0.0358398
0.0357772
0.0357207
0.0356698
0.0356244
0.0355842
0.0355488
0.0355182
0.035492
0.0354702
0.0354525
0.0354388
0.035429
0.0354231
0.035421
0.0354226
0.0354281
0.0354374
0.0354506
0.0354678
0.0354898
0.0355184
0.0355472
0.045607
0.0456241
0.0456395
0.045649
0.0456538
0.0456542
0.0456505
0.0456427
0.0456308
0.0456152
0.0455958
0.0455728
0.0455463
0.0455166
0.0454837
0.0454479
0.0454093
0.0453681
0.0453244
0.0452784
0.0452301
0.0451798
0.0451274
0.045073
0.0450167
0.0449586
0.0448985
0.0448366
0.0447727
0.0447068
0.0446389
0.0445689
0.0444968
0.0444223
0.0443455
0.0442663
0.0441844
0.0441
0.0440128
0.0439227
0.0438297
0.0437337
0.0436346
0.0435323
0.0434268
0.043318
0.0432058
0.0430903
0.0429715
0.0428493
0.0427237
0.0425948
0.0424625
0.0423271
0.0421886
0.042047
0.0419025
0.0417553
0.0416055
0.0414534
0.0412992
0.0411431
0.0409856
0.0408268
0.0406672
0.0405072
0.0403472
0.0401876
0.040029
0.0398718
0.0397167
0.0395642
0.0394148
0.0392693
0.0391283
0.0389924
0.0388622
0.0387385
0.038622
0.0385133
0.038413
0.0383219
0.0382405
0.0381695
0.0381095
0.0380611
0.0380246
0.0380007
0.0379897
0.037992
0.0380079
0.0380375
0.0380812
0.0381389
0.0382107
0.0382965
0.0383961
0.0385094
0.0386358
0.0387751
0.0389266
0.0390898
0.039264
0.0394484
0.039642
0.039844
0.0400532
0.0402685
0.0404888
0.0407127
0.040939
0.0411663
0.0413932
0.0416182
0.0418399
0.0420568
0.0422675
0.0424704
0.0426643
0.0428476
0.0430191
0.0431775
0.0433215
0.04345
0.0435621
0.0436568
0.0437334
0.0437911
0.0438294
0.0438479
0.0438464
0.0438248
0.0437831
0.0437215
0.0436403
0.0435401
0.0434214
0.0432851
0.043132
0.042963
0.0427794
0.0425823
0.0423729
0.0421525
0.0419227
0.0416847
0.04144
0.04119
0.0409361
0.0406797
0.0404222
0.0401649
0.039909
0.0396556
0.0394059
0.0391609
0.0389214
0.0386883
0.0384622
0.0382438
0.0380336
0.0378321
0.0376394
0.0374559
0.0372817
0.0371169
0.0369614
0.0368152
0.0366783
0.0365503
0.036431
0.0363203
0.0362178
0.0361232
0.0360362
0.0359564
0.0358835
0.0358171
0.0357569
0.0357026
0.0356538
0.0356103
0.0355718
0.035538
0.0355086
0.0354836
0.0354626
0.0354456
0.0354325
0.0354231
0.0354175
0.0354157
0.0354176
0.0354234
0.0354331
0.035447
0.0354653
0.0354888
0.0355195
0.0355507
0.045626
0.0456431
0.0456584
0.0456678
0.0456722
0.0456723
0.0456681
0.0456599
0.0456476
0.0456315
0.0456117
0.0455883
0.0455616
0.0455317
0.0454988
0.0454631
0.0454247
0.0453837
0.0453404
0.0452949
0.0452473
0.0451977
0.0451462
0.0450928
0.0450376
0.0449806
0.0449217
0.0448611
0.0447986
0.0447341
0.0446676
0.0445991
0.0445284
0.0444554
0.0443801
0.0443023
0.0442219
0.0441388
0.0440528
0.043964
0.0438721
0.0437771
0.0436789
0.0435773
0.0434724
0.0433641
0.0432522
0.0431368
0.0430178
0.0428952
0.042769
0.0426392
0.0425058
0.042369
0.0422287
0.042085
0.0419382
0.0417883
0.0416354
0.0414799
0.041322
0.0411619
0.0409999
0.0408363
0.0406716
0.0405062
0.0403404
0.0401747
0.0400098
0.039846
0.039684
0.0395244
0.0393677
0.0392147
0.0390661
0.0389224
0.0387844
0.0386527
0.0385282
0.0384115
0.0383033
0.0382042
0.0381151
0.0380364
0.0379688
0.0379128
0.0378691
0.0378382
0.0378203
0.037816
0.0378256
0.0378492
0.0378871
0.0379394
0.0380061
0.0380871
0.0381823
0.0382915
0.0384143
0.0385502
0.0386988
0.0388595
0.0390316
0.0392142
0.0394064
0.0396074
0.0398161
0.0400312
0.0402517
0.0404763
0.0407036
0.0409322
0.0411608
0.0413879
0.0416121
0.0418317
0.0420454
0.0422517
0.0424492
0.0426364
0.0428119
0.0429745
0.0431229
0.043256
0.0433728
0.0434722
0.0435535
0.043616
0.0436591
0.0436824
0.0436856
0.0436686
0.0436313
0.043574
0.0434971
0.0434009
0.043286
0.0431533
0.0430036
0.0428379
0.0426573
0.042463
0.0422563
0.0420384
0.0418108
0.041575
0.0413323
0.0410842
0.0408322
0.0405776
0.0403218
0.0400662
0.039812
0.0395604
0.0393125
0.0390693
0.0388317
0.0386006
0.0383767
0.0381605
0.0379527
0.0377536
0.0375635
0.0373827
0.0372114
0.0370494
0.036897
0.0367539
0.03662
0.0364952
0.0363791
0.0362716
0.0361722
0.0360807
0.0359967
0.0359199
0.0358498
0.0357862
0.0357286
0.0356767
0.0356302
0.0355888
0.0355521
0.03552
0.0354921
0.0354684
0.0354485
0.0354325
0.0354201
0.0354114
0.0354063
0.0354049
0.0354072
0.0354135
0.0354238
0.0354383
0.0354575
0.0354822
0.0355147
0.0355477
0.0456504
0.0456671
0.0456821
0.0456909
0.0456949
0.0456944
0.0456897
0.0456808
0.045668
0.0456513
0.045631
0.0456072
0.0455802
0.04555
0.0455169
0.0454811
0.0454428
0.0454021
0.0453591
0.045314
0.045267
0.045218
0.0451673
0.0451148
0.0450605
0.0450046
0.0449469
0.0448874
0.0448261
0.044763
0.0446978
0.0446307
0.0445613
0.0444896
0.0444156
0.044339
0.0442598
0.0441778
0.0440929
0.044005
0.0439139
0.0438195
0.0437218
0.0436206
0.0435158
0.0434074
0.0432953
0.0431793
0.0430595
0.0429359
0.0428083
0.0426768
0.0425415
0.0424023
0.0422593
0.0421126
0.0419623
0.0418086
0.0416516
0.0414915
0.0413286
0.0411631
0.0409954
0.0408258
0.0406546
0.0404824
0.0403095
0.0401364
0.0399637
0.039792
0.0396218
0.0394537
0.0392885
0.0391267
0.0389691
0.0388165
0.0386694
0.0385288
0.0383952
0.0382695
0.0381523
0.0380445
0.0379466
0.0378593
0.0377834
0.0377193
0.0376677
0.0376291
0.0376038
0.0375925
0.0375952
0.0376125
0.0376443
0.0376909
0.0377522
0.0378283
0.037919
0.038024
0.038143
0.0382756
0.0384214
0.0385797
0.0387497
0.0389308
0.0391219
0.0393223
0.0395307
0.0397461
0.0399673
0.040193
0.0404218
0.0406525
0.0408835
0.0411134
0.0413407
0.0415639
0.0417816
0.0419922
0.0421942
0.0423863
0.042567
0.0427349
0.0428889
0.0430278
0.0431505
0.0432559
0.0433433
0.0434119
0.0434611
0.0434905
0.0434997
0.0434885
0.0434571
0.0434054
0.0433339
0.0432429
0.0431331
0.0430052
0.04286
0.0426986
0.042522
0.0423315
0.0421282
0.0419136
0.0416891
0.041456
0.0412159
0.0409703
0.0407205
0.040468
0.0402143
0.0399606
0.0397083
0.0394586
0.0392126
0.0389712
0.0387356
0.0385065
0.0382846
0.0380706
0.037865
0.0376683
0.0374807
0.0373024
0.0371337
0.0369746
0.036825
0.0366849
0.036554
0.0364323
0.0363193
0.0362149
0.0361187
0.0360303
0.0359493
0.0358755
0.0358083
0.0357475
0.0356926
0.0356432
0.0355991
0.0355599
0.0355253
0.0354951
0.0354689
0.0354466
0.0354281
0.0354131
0.0354017
0.0353938
0.0353894
0.0353885
0.0353914
0.0353981
0.0354089
0.0354241
0.035444
0.0354697
0.0355035
0.0355378
0.0456802
0.0456962
0.0457104
0.0457186
0.0457218
0.0457206
0.0457152
0.0457056
0.045692
0.0456747
0.0456538
0.0456294
0.0456019
0.0455714
0.0455381
0.0455022
0.0454638
0.0454231
0.0453804
0.0453357
0.0452891
0.0452407
0.0451906
0.0451389
0.0450855
0.0450305
0.0449739
0.0449155
0.0448553
0.0447933
0.0447294
0.0446634
0.0445951
0.0445246
0.0444517
0.0443761
0.0442978
0.0442166
0.0441324
0.044045
0.0439544
0.0438603
0.0437626
0.0436612
0.043556
0.0434469
0.0433338
0.0432166
0.0430953
0.0429697
0.0428399
0.0427059
0.0425675
0.042425
0.0422782
0.0421273
0.0419724
0.0418137
0.0416512
0.0414853
0.0413161
0.0411439
0.0409691
0.0407919
0.0406129
0.0404324
0.040251
0.040069
0.0398872
0.0397061
0.0395262
0.0393484
0.0391732
0.0390014
0.0388336
0.0386708
0.0385135
0.0383626
0.0382189
0.0380832
0.0379561
0.0378384
0.0377309
0.0376343
0.0375492
0.0374763
0.0374161
0.0373691
0.037336
0.037317
0.0373125
0.0373228
0.0373482
0.0373887
0.0374444
0.0375153
0.0376012
0.0377019
0.0378171
0.0379464
0.0380893
0.0382451
0.0384132
0.0385929
0.0387831
0.038983
0.0391915
0.0394075
0.0396298
0.0398571
0.040088
0.0403212
0.0405553
0.0407887
0.04102
0.0412477
0.0414702
0.041686
0.0418936
0.0420917
0.0422786
0.0424532
0.042614
0.04276
0.0428899
0.0430027
0.0430976
0.0431738
0.0432306
0.0432675
0.0432842
0.0432805
0.0432564
0.0432118
0.0431472
0.0430629
0.0429596
0.0428378
0.0426985
0.0425426
0.0423713
0.0421856
0.0419869
0.0417766
0.041556
0.0413267
0.04109
0.0408474
0.0406006
0.0403508
0.0400996
0.0398483
0.0395982
0.0393506
0.0391066
0.0388673
0.0386337
0.0384066
0.0381868
0.0379749
0.0377715
0.037577
0.0373918
0.037216
0.0370499
0.0368934
0.0367465
0.0366092
0.0364813
0.0363625
0.0362525
0.0361512
0.036058
0.0359726
0.0358947
0.0358239
0.0357596
0.0357016
0.0356494
0.0356027
0.0355611
0.0355242
0.0354917
0.0354634
0.0354391
0.0354184
0.0354013
0.0353876
0.0353773
0.0353703
0.0353667
0.0353665
0.0353699
0.0353771
0.0353884
0.0354041
0.0354246
0.0354509
0.0354856
0.0355207
0.0457152
0.0457304
0.0457436
0.0457508
0.045753
0.0457509
0.0457445
0.0457341
0.0457197
0.0457016
0.0456799
0.045655
0.0456269
0.045596
0.0455623
0.0455261
0.0454876
0.045447
0.0454044
0.0453599
0.0453137
0.0452658
0.0452163
0.0451652
0.0451126
0.0450585
0.0450027
0.0449452
0.0448861
0.044825
0.0447621
0.044697
0.0446297
0.0445601
0.0444879
0.0444131
0.0443354
0.0442546
0.0441708
0.0440835
0.0439928
0.0438984
0.0438002
0.043698
0.0435918
0.0434813
0.0433665
0.0432472
0.0431235
0.0429951
0.0428621
0.0427244
0.042582
0.0424349
0.0422831
0.0421268
0.041966
0.0418009
0.0416316
0.0414584
0.0412814
0.0411011
0.0409176
0.0407315
0.0405431
0.0403529
0.0401613
0.039969
0.0397766
0.0395846
0.0393937
0.0392046
0.0390181
0.0388348
0.0386556
0.0384813
0.0383126
0.0381504
0.0379954
0.0378485
0.0377105
0.0375821
0.0374641
0.0373572
0.0372622
0.0371796
0.03711
0.0370541
0.0370124
0.0369852
0.0369729
0.0369759
0.0369944
0.0370284
0.0370781
0.0371435
0.0372243
0.0373205
0.0374316
0.0375574
0.0376973
0.0378506
0.0380169
0.0381951
0.0383845
0.0385842
0.038793
0.0390099
0.0392336
0.0394629
0.0396964
0.0399327
0.0401704
0.0404081
0.0406441
0.040877
0.0411053
0.0413274
0.0415417
0.0417468
0.0419413
0.0421237
0.0422928
0.0424472
0.0425858
0.0427075
0.0428115
0.0428968
0.0429629
0.043009
0.0430349
0.0430403
0.0430252
0.0429894
0.0429334
0.0428575
0.0427622
0.0426482
0.0425163
0.0423675
0.0422028
0.0420234
0.0418307
0.0416258
0.0414104
0.0411858
0.0409534
0.040715
0.0404718
0.0402255
0.0399774
0.0397291
0.0394817
0.0392367
0.0389951
0.0387581
0.0385267
0.0383018
0.0380841
0.0378744
0.0376732
0.0374809
0.037298
0.0371245
0.0369608
0.0368069
0.0366626
0.036528
0.0364028
0.0362868
0.0361797
0.0360813
0.0359911
0.0359087
0.0358337
0.0357658
0.0357044
0.0356492
0.0355997
0.0355556
0.0355165
0.0354819
0.0354517
0.0354255
0.035403
0.035384
0.0353685
0.0353561
0.035347
0.035341
0.0353382
0.0353387
0.0353427
0.0353504
0.0353621
0.0353782
0.035399
0.0354258
0.0354609
0.0354964
0.0457556
0.0457695
0.0457814
0.0457874
0.0457885
0.0457853
0.0457779
0.0457664
0.045751
0.045732
0.0457096
0.0456839
0.0456552
0.0456237
0.0455896
0.0455531
0.0455144
0.0454737
0.0454311
0.0453868
0.0453408
0.0452933
0.0452443
0.0451938
0.0451418
0.0450883
0.0450332
0.0449766
0.0449182
0.0448579
0.0447957
0.0447314
0.0446647
0.0445957
0.044524
0.0444495
0.044372
0.0442913
0.0442072
0.0441196
0.0440282
0.043933
0.0438336
0.0437299
0.0436218
0.0435092
0.0433918
0.0432695
0.0431424
0.0430101
0.0428728
0.0427303
0.0425826
0.0424297
0.0422717
0.0421085
0.0419404
0.0417675
0.0415899
0.0414078
0.0412216
0.0410314
0.0408378
0.0406411
0.0404417
0.0402401
0.040037
0.0398327
0.0396281
0.0394237
0.0392203
0.0390186
0.0388193
0.0386233
0.0384313
0.0382442
0.0380629
0.0378881
0.0377208
0.0375617
0.0374116
0.0372715
0.037142
0.037024
0.0369181
0.0368251
0.0367455
0.0366799
0.0366288
0.0365928
0.0365722
0.0365672
0.0365782
0.0366053
0.0366486
0.036708
0.0367834
0.0368747
0.0369816
0.0371036
0.0372403
0.0373911
0.0375553
0.0377322
0.0379208
0.0381203
0.0383296
0.0385476
0.038773
0.0390047
0.0392412
0.0394812
0.0397232
0.0399657
0.0402072
0.0404463
0.0406812
0.0409105
0.0411326
0.041346
0.0415493
0.0417409
0.0419195
0.0420839
0.0422328
0.0423651
0.0424798
0.042576
0.042653
0.0427103
0.0427472
0.0427636
0.0427593
0.0427343
0.0426888
0.0426231
0.0425377
0.0424332
0.0423105
0.0421705
0.0420142
0.0418427
0.0416574
0.0414595
0.0412506
0.041032
0.0408053
0.040572
0.0403336
0.0400916
0.0398476
0.0396029
0.0393589
0.039117
0.0388783
0.038644
0.0384152
0.0381927
0.0379774
0.0377699
0.037571
0.037381
0.0372002
0.0370291