/*--------------------------------*- C++ -*----------------------------------*\
  =========                 |
  \\      /  F ield         | OpenFOAM: The Open Source CFD Toolbox
   \\    /   O peration     | Website:  https://openfoam.org
    \\  /    A nd           | Version:  6
     \\/     M anipulation  |
\*---------------------------------------------------------------------------*/
FoamFile
{
    version     2.0;
    format      ascii;
    class       volScalarField;
    location    "0";
    object      p;
}
// * * * * * * * * * * * * * * * * * * * * * * * * * * * * * * * * * * * * * //

dimensions      [0 2 -2 0 0 0 0];

internalField   nonuniform List<scalar> 
145945
(
2.54796e-06
2.54759e-06
2.54754e-06
2.54752e-06
2.54762e-06
2.54767e-06
2.54776e-06
2.5478e-06
2.54784e-06
2.54783e-06
2.54781e-06
2.54774e-06
2.54771e-06
2.54763e-06
2.54769e-06
2.54771e-06
2.5481e-06
2.54759e-06
2.54742e-06
2.54739e-06
2.54742e-06
2.54752e-06
2.54759e-06
2.54767e-06
2.54772e-06
2.54776e-06
2.54775e-06
2.54773e-06
2.54766e-06
2.54762e-06
2.54754e-06
2.54755e-06
2.54755e-06
2.54774e-06
2.54754e-06
2.54739e-06
2.54736e-06
2.54743e-06
2.54755e-06
2.54763e-06
2.54772e-06
2.54777e-06
2.54781e-06
2.5478e-06
2.54777e-06
2.54771e-06
2.54765e-06
2.54757e-06
2.54754e-06
2.54753e-06
2.54769e-06
2.54752e-06
2.54742e-06
2.54743e-06
2.54754e-06
2.54767e-06
2.54777e-06
2.54786e-06
2.54791e-06
2.54795e-06
2.54794e-06
2.54791e-06
2.54785e-06
2.54778e-06
2.54769e-06
2.54762e-06
2.54758e-06
2.54768e-06
2.54762e-06
2.54752e-06
2.54755e-06
2.54767e-06
2.5478e-06
2.5479e-06
2.54799e-06
2.54805e-06
2.54809e-06
2.54808e-06
2.54805e-06
2.54799e-06
2.54791e-06
2.54782e-06
2.54774e-06
2.54769e-06
2.54778e-06
2.54767e-06
2.54759e-06
2.54763e-06
2.54777e-06
2.5479e-06
2.54802e-06
2.54811e-06
2.54817e-06
2.5482e-06
2.5482e-06
2.54817e-06
2.5481e-06
2.54803e-06
2.54793e-06
2.54783e-06
2.54776e-06
2.54784e-06
2.54776e-06
2.54767e-06
2.54772e-06
2.54786e-06
2.54799e-06
2.54811e-06
2.5482e-06
2.54826e-06
2.54829e-06
2.54829e-06
2.54826e-06
2.5482e-06
2.54812e-06
2.54802e-06
2.54792e-06
2.54785e-06
2.54792e-06
2.5478e-06
2.54772e-06
2.54777e-06
2.54791e-06
2.54805e-06
2.54817e-06
2.54826e-06
2.54832e-06
2.54836e-06
2.54835e-06
2.54832e-06
2.54826e-06
2.54818e-06
2.54808e-06
2.54798e-06
2.5479e-06
2.54797e-06
2.54784e-06
2.54776e-06
2.54781e-06
2.54795e-06
2.54809e-06
2.5482e-06
2.54829e-06
2.54836e-06
2.54839e-06
2.54839e-06
2.54835e-06
2.54829e-06
2.54821e-06
2.54811e-06
2.54801e-06
2.54793e-06
2.548e-06
2.54783e-06
2.54775e-06
2.5478e-06
2.54794e-06
2.54808e-06
2.5482e-06
2.54829e-06
2.54835e-06
2.54839e-06
2.54838e-06
2.54835e-06
2.54829e-06
2.54821e-06
2.54811e-06
2.54801e-06
2.54792e-06
2.54799e-06
2.54781e-06
2.54773e-06
2.54777e-06
2.54791e-06
2.54805e-06
2.54817e-06
2.54826e-06
2.54832e-06
2.54835e-06
2.54835e-06
2.54832e-06
2.54825e-06
2.54817e-06
2.54808e-06
2.54798e-06
2.5479e-06
2.54797e-06
2.54774e-06
2.54766e-06
2.54771e-06
2.54785e-06
2.54799e-06
2.5481e-06
2.5482e-06
2.54826e-06
2.54829e-06
2.54829e-06
2.54825e-06
2.54819e-06
2.54811e-06
2.54801e-06
2.54791e-06
2.54784e-06
2.5479e-06
2.54771e-06
2.54762e-06
2.54765e-06
2.54778e-06
2.54792e-06
2.54803e-06
2.54812e-06
2.54818e-06
2.54821e-06
2.54821e-06
2.54817e-06
2.54811e-06
2.54803e-06
2.54794e-06
2.54785e-06
2.54779e-06
2.54787e-06
2.54763e-06
2.54754e-06
2.54757e-06
2.54769e-06
2.54782e-06
2.54793e-06
2.54802e-06
2.54808e-06
2.54811e-06
2.54811e-06
2.54808e-06
2.54801e-06
2.54794e-06
2.54784e-06
2.54776e-06
2.54771e-06
2.54779e-06
2.54769e-06
2.54755e-06
2.54754e-06
2.54762e-06
2.54774e-06
2.54784e-06
2.54792e-06
2.54798e-06
2.54801e-06
2.54801e-06
2.54798e-06
2.54791e-06
2.54785e-06
2.54777e-06
2.54772e-06
2.5477e-06
2.54784e-06
2.54771e-06
2.54755e-06
2.54753e-06
2.54758e-06
2.54769e-06
2.54776e-06
2.54785e-06
2.5479e-06
2.54793e-06
2.54792e-06
2.5479e-06
2.54784e-06
2.54779e-06
2.54771e-06
2.5477e-06
2.54769e-06
2.54786e-06
2.5481e-06
2.54774e-06
2.54769e-06
2.54768e-06
2.54778e-06
2.54784e-06
2.54792e-06
2.54797e-06
2.548e-06
2.54799e-06
2.54797e-06
2.54791e-06
2.54787e-06
2.54779e-06
2.54784e-06
2.54786e-06
2.54824e-06
2.4753e-06
2.4752e-06
2.47537e-06
2.47555e-06
2.4758e-06
2.476e-06
2.47618e-06
2.47629e-06
2.47635e-06
2.47632e-06
2.47624e-06
2.47609e-06
2.4759e-06
2.47568e-06
2.47551e-06
2.47531e-06
2.4754e-06
2.4752e-06
2.47527e-06
2.47548e-06
2.47572e-06
2.476e-06
2.47623e-06
2.47642e-06
2.47654e-06
2.4766e-06
2.47657e-06
2.47648e-06
2.47632e-06
2.47611e-06
2.47586e-06
2.47564e-06
2.4754e-06
2.47531e-06
2.47537e-06
2.47548e-06
2.47571e-06
2.47599e-06
2.47629e-06
2.47655e-06
2.47675e-06
2.47689e-06
2.47695e-06
2.47692e-06
2.47682e-06
2.47664e-06
2.47642e-06
2.47614e-06
2.47587e-06
2.47562e-06
2.47548e-06
2.47555e-06
2.47572e-06
2.47599e-06
2.47632e-06
2.47664e-06
2.47691e-06
2.47713e-06
2.47727e-06
2.47733e-06
2.47731e-06
2.4772e-06
2.47702e-06
2.47677e-06
2.47648e-06
2.47617e-06
2.47587e-06
2.47567e-06
2.4758e-06
2.476e-06
2.47629e-06
2.47664e-06
2.47698e-06
2.47726e-06
2.47749e-06
2.47763e-06
2.47769e-06
2.47767e-06
2.47756e-06
2.47737e-06
2.47712e-06
2.47681e-06
2.47648e-06
2.47615e-06
2.47591e-06
2.476e-06
2.47623e-06
2.47655e-06
2.47691e-06
2.47726e-06
2.47756e-06
2.47779e-06
2.47793e-06
2.478e-06
2.47797e-06
2.47786e-06
2.47767e-06
2.47741e-06
2.47709e-06
2.47674e-06
2.47639e-06
2.47612e-06
2.47618e-06
2.47642e-06
2.47675e-06
2.47713e-06
2.47749e-06
2.47779e-06
2.47802e-06
2.47817e-06
2.47823e-06
2.47821e-06
2.47809e-06
2.4779e-06
2.47763e-06
2.47731e-06
2.47695e-06
2.47658e-06
2.4763e-06
2.47629e-06
2.47654e-06
2.47689e-06
2.47727e-06
2.47763e-06
2.47793e-06
2.47817e-06
2.47832e-06
2.47838e-06
2.47836e-06
2.47824e-06
2.47805e-06
2.47778e-06
2.47745e-06
2.47708e-06
2.47671e-06
2.47641e-06
2.47635e-06
2.4766e-06
2.47695e-06
2.47733e-06
2.47769e-06
2.478e-06
2.47823e-06
2.47838e-06
2.47845e-06
2.47842e-06
2.47831e-06
2.47811e-06
2.47784e-06
2.47751e-06
2.47714e-06
2.47676e-06
2.47647e-06
2.47632e-06
2.47657e-06
2.47692e-06
2.47731e-06
2.47767e-06
2.47797e-06
2.47821e-06
2.47836e-06
2.47842e-06
2.4784e-06
2.47828e-06
2.47809e-06
2.47782e-06
2.47749e-06
2.47712e-06
2.47674e-06
2.47645e-06
2.47624e-06
2.47648e-06
2.47682e-06
2.4772e-06
2.47756e-06
2.47786e-06
2.47809e-06
2.47824e-06
2.47831e-06
2.47828e-06
2.47817e-06
2.47797e-06
2.4777e-06
2.47738e-06
2.47702e-06
2.47665e-06
2.47636e-06
2.47609e-06
2.47632e-06
2.47664e-06
2.47702e-06
2.47737e-06
2.47767e-06
2.4779e-06
2.47805e-06
2.47811e-06
2.47809e-06
2.47797e-06
2.47778e-06
2.47751e-06
2.47719e-06
2.47684e-06
2.47648e-06
2.47621e-06
2.47591e-06
2.47611e-06
2.47642e-06
2.47677e-06
2.47712e-06
2.47741e-06
2.47763e-06
2.47778e-06
2.47784e-06
2.47782e-06
2.47771e-06
2.47751e-06
2.47726e-06
2.47694e-06
2.47661e-06
2.47627e-06
2.47602e-06
2.47568e-06
2.47586e-06
2.47614e-06
2.47648e-06
2.47681e-06
2.47709e-06
2.47731e-06
2.47745e-06
2.47751e-06
2.47749e-06
2.47738e-06
2.47719e-06
2.47694e-06
2.47664e-06
2.47632e-06
2.47601e-06
2.47579e-06
2.47551e-06
2.47564e-06
2.47587e-06
2.47617e-06
2.47648e-06
2.47674e-06
2.47695e-06
2.47708e-06
2.47714e-06
2.47712e-06
2.47702e-06
2.47684e-06
2.47661e-06
2.47632e-06
2.47604e-06
2.47578e-06
2.47562e-06
2.47531e-06
2.4754e-06
2.47562e-06
2.47587e-06
2.47615e-06
2.47639e-06
2.47658e-06
2.47671e-06
2.47677e-06
2.47674e-06
2.47665e-06
2.47648e-06
2.47627e-06
2.47601e-06
2.47578e-06
2.47553e-06
2.47542e-06
2.4754e-06
2.47531e-06
2.47548e-06
2.47567e-06
2.47591e-06
2.47612e-06
2.4763e-06
2.47641e-06
2.47647e-06
2.47645e-06
2.47636e-06
2.47621e-06
2.47602e-06
2.47579e-06
2.47562e-06
2.47542e-06
2.4755e-06
2.42529e-06
2.42628e-06
2.42721e-06
2.42803e-06
2.42878e-06
2.42933e-06
2.42974e-06
2.42998e-06
2.43008e-06
2.43002e-06
2.42981e-06
2.42944e-06
2.42892e-06
2.4282e-06
2.42737e-06
2.42634e-06
2.42531e-06
2.42628e-06
2.42718e-06
2.42808e-06
2.4289e-06
2.42963e-06
2.43019e-06
2.4306e-06
2.43084e-06
2.43094e-06
2.43088e-06
2.43067e-06
2.4303e-06
2.42978e-06
2.42907e-06
2.42823e-06
2.42723e-06
2.4263e-06
2.42721e-06
2.42808e-06
2.42892e-06
2.42971e-06
2.43042e-06
2.43097e-06
2.43137e-06
2.43161e-06
2.43171e-06
2.43165e-06
2.43144e-06
2.43108e-06
2.43056e-06
2.42988e-06
2.42905e-06
2.42812e-06
2.42723e-06
2.42803e-06
2.4289e-06
2.42971e-06
2.43049e-06
2.43118e-06
2.43172e-06
2.43211e-06
2.43235e-06
2.43245e-06
2.43239e-06
2.43218e-06
2.43183e-06
2.43132e-06
2.43065e-06
2.42984e-06
2.42894e-06
2.42805e-06
2.42878e-06
2.42963e-06
2.43042e-06
2.43118e-06
2.43186e-06
2.43239e-06
2.43277e-06
2.43301e-06
2.4331e-06
2.43305e-06
2.43284e-06
2.43249e-06
2.43199e-06
2.43134e-06
2.43054e-06
2.42967e-06
2.42879e-06
2.42933e-06
2.43019e-06
2.43097e-06
2.43172e-06
2.43239e-06
2.43291e-06
2.4333e-06
2.43353e-06
2.43362e-06
2.43357e-06
2.43337e-06
2.43302e-06
2.43253e-06
2.43188e-06
2.43109e-06
2.43023e-06
2.42935e-06
2.42974e-06
2.4306e-06
2.43137e-06
2.43211e-06
2.43277e-06
2.4333e-06
2.43367e-06
2.43391e-06
2.434e-06
2.43394e-06
2.43374e-06
2.4334e-06
2.43291e-06
2.43227e-06
2.43149e-06
2.43063e-06
2.42975e-06
2.42998e-06
2.43084e-06
2.43161e-06
2.43235e-06
2.43301e-06
2.43353e-06
2.43391e-06
2.43414e-06
2.43423e-06
2.43418e-06
2.43398e-06
2.43364e-06
2.43315e-06
2.43251e-06
2.43173e-06
2.43088e-06
2.43e-06
2.43008e-06
2.43094e-06
2.43171e-06
2.43245e-06
2.4331e-06
2.43362e-06
2.434e-06
2.43423e-06
2.43432e-06
2.43427e-06
2.43407e-06
2.43373e-06
2.43324e-06
2.4326e-06
2.43182e-06
2.43098e-06
2.43009e-06
2.43002e-06
2.43088e-06
2.43165e-06
2.43239e-06
2.43305e-06
2.43357e-06
2.43394e-06
2.43418e-06
2.43427e-06
2.43421e-06
2.43401e-06
2.43367e-06
2.43318e-06
2.43254e-06
2.43176e-06
2.43092e-06
2.43003e-06
2.42981e-06
2.43067e-06
2.43144e-06
2.43218e-06
2.43284e-06
2.43337e-06
2.43374e-06
2.43398e-06
2.43407e-06
2.43401e-06
2.43382e-06
2.43347e-06
2.43298e-06
2.43234e-06
2.43156e-06
2.43071e-06
2.42983e-06
2.42944e-06
2.4303e-06
2.43108e-06
2.43183e-06
2.43249e-06
2.43302e-06
2.4334e-06
2.43364e-06
2.43373e-06
2.43367e-06
2.43347e-06
2.43312e-06
2.43263e-06
2.43198e-06
2.4312e-06
2.43034e-06
2.42946e-06
2.42892e-06
2.42978e-06
2.43056e-06
2.43132e-06
2.43199e-06
2.43253e-06
2.43291e-06
2.43315e-06
2.43324e-06
2.43318e-06
2.43298e-06
2.43263e-06
2.43213e-06
2.43148e-06
2.43068e-06
2.42982e-06
2.42894e-06
2.42821e-06
2.42907e-06
2.42988e-06
2.43065e-06
2.43134e-06
2.43188e-06
2.43227e-06
2.43251e-06
2.4326e-06
2.43254e-06
2.43234e-06
2.43198e-06
2.43148e-06
2.43081e-06
2.43e-06
2.42911e-06
2.42822e-06
2.42737e-06
2.42823e-06
2.42905e-06
2.42984e-06
2.43054e-06
2.43109e-06
2.43149e-06
2.43173e-06
2.43182e-06
2.43176e-06
2.43156e-06
2.4312e-06
2.43068e-06
2.43e-06
2.42918e-06
2.42827e-06
2.42738e-06
2.42634e-06
2.42723e-06
2.42812e-06
2.42894e-06
2.42967e-06
2.43023e-06
2.43063e-06
2.43088e-06
2.43098e-06
2.43092e-06
2.43071e-06
2.43034e-06
2.42982e-06
2.42911e-06
2.42826e-06
2.42728e-06
2.42636e-06
2.42531e-06
2.4263e-06
2.42723e-06
2.42805e-06
2.42879e-06
2.42935e-06
2.42975e-06
2.43e-06
2.43009e-06
2.43003e-06
2.42983e-06
2.42945e-06
2.42894e-06
2.42822e-06
2.42738e-06
2.42636e-06
2.42532e-06
2.37388e-06
2.37566e-06
2.37728e-06
2.37882e-06
2.38012e-06
2.38109e-06
2.38178e-06
2.3822e-06
2.38236e-06
2.38226e-06
2.38189e-06
2.38126e-06
2.38036e-06
2.37913e-06
2.3776e-06
2.37583e-06
2.37392e-06
2.37566e-06
2.37716e-06
2.37873e-06
2.38023e-06
2.3815e-06
2.38245e-06
2.38312e-06
2.38353e-06
2.38369e-06
2.38359e-06
2.38323e-06
2.38262e-06
2.38174e-06
2.38054e-06
2.37905e-06
2.37732e-06
2.37571e-06
2.37728e-06
2.37873e-06
2.38024e-06
2.38168e-06
2.38289e-06
2.3838e-06
2.38445e-06
2.38484e-06
2.38499e-06
2.3849e-06
2.38456e-06
2.38397e-06
2.38312e-06
2.38198e-06
2.38054e-06
2.37888e-06
2.37733e-06
2.37882e-06
2.38023e-06
2.38168e-06
2.38306e-06
2.38423e-06
2.38511e-06
2.38573e-06
2.38611e-06
2.38626e-06
2.38617e-06
2.38584e-06
2.38527e-06
2.38446e-06
2.38336e-06
2.38197e-06
2.38038e-06
2.37887e-06
2.38012e-06
2.3815e-06
2.38289e-06
2.38423e-06
2.38536e-06
2.38621e-06
2.38681e-06
2.38718e-06
2.38733e-06
2.38724e-06
2.38692e-06
2.38637e-06
2.38558e-06
2.38452e-06
2.38318e-06
2.38164e-06
2.38017e-06
2.38109e-06
2.38244e-06
2.3838e-06
2.38511e-06
2.38621e-06
2.38704e-06
2.38763e-06
2.388e-06
2.38814e-06
2.38805e-06
2.38774e-06
2.3872e-06
2.38643e-06
2.38539e-06
2.38408e-06
2.38259e-06
2.38114e-06
2.38178e-06
2.38312e-06
2.38445e-06
2.38573e-06
2.38681e-06
2.38763e-06
2.38821e-06
2.38857e-06
2.38871e-06
2.38862e-06
2.38832e-06
2.38779e-06
2.38703e-06
2.38601e-06
2.38473e-06
2.38327e-06
2.38183e-06
2.3822e-06
2.38353e-06
2.38484e-06
2.38611e-06
2.38718e-06
2.388e-06
2.38857e-06
2.38892e-06
2.38906e-06
2.38898e-06
2.38867e-06
2.38815e-06
2.3874e-06
2.38639e-06
2.38512e-06
2.38367e-06
2.38225e-06
2.38236e-06
2.38369e-06
2.38499e-06
2.38626e-06
2.38733e-06
2.38814e-06
2.38871e-06
2.38906e-06
2.3892e-06
2.38911e-06
2.38881e-06
2.38829e-06
2.38754e-06
2.38654e-06
2.38527e-06
2.38383e-06
2.38241e-06
2.38226e-06
2.38359e-06
2.3849e-06
2.38617e-06
2.38724e-06
2.38805e-06
2.38862e-06
2.38898e-06
2.38911e-06
2.38903e-06
2.38873e-06
2.3882e-06
2.38745e-06
2.38645e-06
2.38517e-06
2.38373e-06
2.38231e-06
2.38189e-06
2.38323e-06
2.38456e-06
2.38584e-06
2.38692e-06
2.38774e-06
2.38832e-06
2.38867e-06
2.38881e-06
2.38873e-06
2.38842e-06
2.38789e-06
2.38713e-06
2.38612e-06
2.38484e-06
2.38338e-06
2.38195e-06
2.38126e-06
2.38262e-06
2.38397e-06
2.38527e-06
2.38637e-06
2.3872e-06
2.38779e-06
2.38815e-06
2.38829e-06
2.3882e-06
2.38789e-06
2.38736e-06
2.38658e-06
2.38555e-06
2.38425e-06
2.38276e-06
2.38131e-06
2.38036e-06
2.38174e-06
2.38312e-06
2.38446e-06
2.38558e-06
2.38643e-06
2.38703e-06
2.3874e-06
2.38754e-06
2.38745e-06
2.38713e-06
2.38658e-06
2.3858e-06
2.38474e-06
2.38341e-06
2.38188e-06
2.38042e-06
2.37913e-06
2.38054e-06
2.38198e-06
2.38336e-06
2.38452e-06
2.38539e-06
2.38601e-06
2.38639e-06
2.38654e-06
2.38645e-06
2.38612e-06
2.38556e-06
2.38474e-06
2.38366e-06
2.38227e-06
2.38069e-06
2.37918e-06
2.3776e-06
2.37905e-06
2.38054e-06
2.38197e-06
2.38318e-06
2.38408e-06
2.38473e-06
2.38512e-06
2.38527e-06
2.38518e-06
2.38484e-06
2.38425e-06
2.38341e-06
2.38228e-06
2.38085e-06
2.3792e-06
2.37765e-06
2.37583e-06
2.37732e-06
2.37888e-06
2.38038e-06
2.38165e-06
2.38259e-06
2.38327e-06
2.38367e-06
2.38383e-06
2.38373e-06
2.38338e-06
2.38276e-06
2.38189e-06
2.38069e-06
2.3792e-06
2.37748e-06
2.37588e-06
2.37392e-06
2.37571e-06
2.37733e-06
2.37887e-06
2.38017e-06
2.38114e-06
2.38183e-06
2.38225e-06
2.38241e-06
2.38231e-06
2.38195e-06
2.38131e-06
2.38042e-06
2.37918e-06
2.37765e-06
2.37588e-06
2.37396e-06
2.32327e-06
2.32533e-06
2.32716e-06
2.32896e-06
2.33047e-06
2.33161e-06
2.33242e-06
2.33292e-06
2.33311e-06
2.33298e-06
2.33255e-06
2.3318e-06
2.33074e-06
2.32931e-06
2.3275e-06
2.32551e-06
2.3233e-06
2.32533e-06
2.32705e-06
2.32885e-06
2.33061e-06
2.3321e-06
2.33323e-06
2.33403e-06
2.33452e-06
2.33471e-06
2.33459e-06
2.33417e-06
2.33343e-06
2.33237e-06
2.33096e-06
2.32919e-06
2.32721e-06
2.32537e-06
2.32716e-06
2.32886e-06
2.33063e-06
2.33233e-06
2.33376e-06
2.33486e-06
2.33564e-06
2.33611e-06
2.3363e-06
2.33618e-06
2.33577e-06
2.33505e-06
2.33403e-06
2.33267e-06
2.33096e-06
2.32901e-06
2.3272e-06
2.32896e-06
2.33061e-06
2.33233e-06
2.33397e-06
2.33537e-06
2.33643e-06
2.33719e-06
2.33765e-06
2.33783e-06
2.33771e-06
2.33731e-06
2.33662e-06
2.33563e-06
2.33431e-06
2.33265e-06
2.33077e-06
2.329e-06
2.33047e-06
2.3321e-06
2.33376e-06
2.33537e-06
2.33672e-06
2.33776e-06
2.33849e-06
2.33895e-06
2.33912e-06
2.33901e-06
2.33862e-06
2.33794e-06
2.33698e-06
2.3357e-06
2.33408e-06
2.33225e-06
2.33051e-06
2.33161e-06
2.33323e-06
2.33486e-06
2.33643e-06
2.33776e-06
2.33877e-06
2.3395e-06
2.33994e-06
2.34011e-06
2.34e-06
2.33962e-06
2.33896e-06
2.33801e-06
2.33675e-06
2.33517e-06
2.33338e-06
2.33165e-06
2.33242e-06
2.33403e-06
2.33564e-06
2.33718e-06
2.33849e-06
2.3395e-06
2.34021e-06
2.34065e-06
2.34081e-06
2.34071e-06
2.34033e-06
2.33968e-06
2.33875e-06
2.33751e-06
2.33595e-06
2.33419e-06
2.33246e-06
2.33292e-06
2.33452e-06
2.33611e-06
2.33765e-06
2.33895e-06
2.33994e-06
2.34065e-06
2.34108e-06
2.34125e-06
2.34114e-06
2.34077e-06
2.34012e-06
2.33919e-06
2.33797e-06
2.33642e-06
2.33468e-06
2.33296e-06
2.33311e-06
2.33471e-06
2.3363e-06
2.33783e-06
2.33912e-06
2.34011e-06
2.34081e-06
2.34125e-06
2.34141e-06
2.34131e-06
2.34093e-06
2.34029e-06
2.33937e-06
2.33815e-06
2.33661e-06
2.33487e-06
2.33315e-06
2.33298e-06
2.33459e-06
2.33618e-06
2.33771e-06
2.33901e-06
2.34e-06
2.34071e-06
2.34114e-06
2.34131e-06
2.3412e-06
2.34083e-06
2.34018e-06
2.33926e-06
2.33803e-06
2.33649e-06
2.33474e-06
2.33303e-06
2.33255e-06
2.33417e-06
2.33577e-06
2.33731e-06
2.33862e-06
2.33962e-06
2.34033e-06
2.34077e-06
2.34093e-06
2.34083e-06
2.34045e-06
2.3398e-06
2.33887e-06
2.33763e-06
2.33608e-06
2.33432e-06
2.3326e-06
2.3318e-06
2.33343e-06
2.33505e-06
2.33662e-06
2.33794e-06
2.33896e-06
2.33968e-06
2.34012e-06
2.34029e-06
2.34018e-06
2.3398e-06
2.33914e-06
2.3382e-06
2.33694e-06
2.33537e-06
2.33358e-06
2.33185e-06
2.33074e-06
2.33237e-06
2.33403e-06
2.33563e-06
2.33698e-06
2.33801e-06
2.33875e-06
2.3392e-06
2.33937e-06
2.33926e-06
2.33887e-06
2.3382e-06
2.33723e-06
2.33596e-06
2.33435e-06
2.33253e-06
2.33078e-06
2.32932e-06
2.33096e-06
2.33267e-06
2.33431e-06
2.3357e-06
2.33676e-06
2.33751e-06
2.33797e-06
2.33815e-06
2.33803e-06
2.33763e-06
2.33694e-06
2.33596e-06
2.33464e-06
2.333e-06
2.33112e-06
2.32935e-06
2.3275e-06
2.3292e-06
2.33096e-06
2.33266e-06
2.33409e-06
2.33518e-06
2.33595e-06
2.33643e-06
2.33661e-06
2.33649e-06
2.33608e-06
2.33537e-06
2.33435e-06
2.333e-06
2.3313e-06
2.32935e-06
2.32754e-06
2.32551e-06
2.32721e-06
2.32901e-06
2.33077e-06
2.33225e-06
2.33338e-06
2.33419e-06
2.33468e-06
2.33487e-06
2.33475e-06
2.33432e-06
2.33358e-06
2.33253e-06
2.33112e-06
2.32935e-06
2.32738e-06
2.32555e-06
2.3233e-06
2.32537e-06
2.3272e-06
2.329e-06
2.33051e-06
2.33165e-06
2.33246e-06
2.33296e-06
2.33315e-06
2.33303e-06
2.3326e-06
2.33185e-06
2.33078e-06
2.32935e-06
2.32754e-06
2.32555e-06
2.32333e-06
2.27639e-06
2.27854e-06
2.28043e-06
2.28233e-06
2.28389e-06
2.28509e-06
2.28595e-06
2.28647e-06
2.28667e-06
2.28654e-06
2.28608e-06
2.28529e-06
2.28417e-06
2.28268e-06
2.28075e-06
2.2787e-06
2.27641e-06
2.27854e-06
2.28033e-06
2.28221e-06
2.28407e-06
2.28563e-06
2.28683e-06
2.28769e-06
2.28821e-06
2.28841e-06
2.28828e-06
2.28782e-06
2.28703e-06
2.28591e-06
2.28442e-06
2.28254e-06
2.28049e-06
2.27855e-06
2.28043e-06
2.28221e-06
2.28409e-06
2.28589e-06
2.28741e-06
2.28858e-06
2.28941e-06
2.28992e-06
2.29012e-06
2.28999e-06
2.28955e-06
2.28878e-06
2.28768e-06
2.28623e-06
2.28441e-06
2.28235e-06
2.28044e-06
2.28233e-06
2.28407e-06
2.28589e-06
2.28764e-06
2.28912e-06
2.29027e-06
2.29108e-06
2.29158e-06
2.29177e-06
2.29164e-06
2.29121e-06
2.29046e-06
2.28939e-06
2.28797e-06
2.28621e-06
2.2842e-06
2.28234e-06
2.28389e-06
2.28563e-06
2.28741e-06
2.28912e-06
2.29058e-06
2.2917e-06
2.2925e-06
2.29298e-06
2.29317e-06
2.29305e-06
2.29262e-06
2.29189e-06
2.29084e-06
2.28945e-06
2.28772e-06
2.28576e-06
2.28391e-06
2.28509e-06
2.28683e-06
2.28858e-06
2.29026e-06
2.2917e-06
2.2928e-06
2.29358e-06
2.29407e-06
2.29425e-06
2.29413e-06
2.29371e-06
2.29299e-06
2.29196e-06
2.29059e-06
2.28889e-06
2.28696e-06
2.28511e-06
2.28595e-06
2.28769e-06
2.28941e-06
2.29108e-06
2.29249e-06
2.29358e-06
2.29436e-06
2.29484e-06
2.29502e-06
2.2949e-06
2.29448e-06
2.29377e-06
2.29275e-06
2.2914e-06
2.28972e-06
2.28782e-06
2.28597e-06
2.28647e-06
2.28821e-06
2.28992e-06
2.29158e-06
2.29298e-06
2.29407e-06
2.29484e-06
2.29531e-06
2.29549e-06
2.29537e-06
2.29496e-06
2.29425e-06
2.29324e-06
2.2919e-06
2.29022e-06
2.28834e-06
2.28649e-06
2.28667e-06
2.28841e-06
2.29012e-06
2.29177e-06
2.29317e-06
2.29425e-06
2.29502e-06
2.29549e-06
2.29567e-06
2.29555e-06
2.29514e-06
2.29443e-06
2.29342e-06
2.29209e-06
2.29042e-06
2.28854e-06
2.28669e-06
2.28654e-06
2.28828e-06
2.28999e-06
2.29164e-06
2.29305e-06
2.29413e-06
2.2949e-06
2.29537e-06
2.29555e-06
2.29543e-06
2.29502e-06
2.29431e-06
2.2933e-06
2.29196e-06
2.29029e-06
2.28841e-06
2.28656e-06
2.28608e-06
2.28782e-06
2.28955e-06
2.29121e-06
2.29262e-06
2.29371e-06
2.29448e-06
2.29496e-06
2.29514e-06
2.29502e-06
2.29461e-06
2.2939e-06
2.29288e-06
2.29153e-06
2.28985e-06
2.28795e-06
2.2861e-06
2.28529e-06
2.28703e-06
2.28878e-06
2.29046e-06
2.29189e-06
2.29299e-06
2.29377e-06
2.29425e-06
2.29443e-06
2.29431e-06
2.2939e-06
2.29318e-06
2.29215e-06
2.29079e-06
2.28908e-06
2.28716e-06
2.28531e-06
2.28417e-06
2.28591e-06
2.28768e-06
2.28939e-06
2.29084e-06
2.29196e-06
2.29275e-06
2.29324e-06
2.29342e-06
2.2933e-06
2.29288e-06
2.29215e-06
2.2911e-06
2.28972e-06
2.288e-06
2.28604e-06
2.28419e-06
2.28268e-06
2.28442e-06
2.28623e-06
2.28797e-06
2.28946e-06
2.29059e-06
2.2914e-06
2.2919e-06
2.29209e-06
2.29197e-06
2.29153e-06
2.29079e-06
2.28972e-06
2.28831e-06
2.28655e-06
2.28455e-06
2.2827e-06
2.28075e-06
2.28255e-06
2.28442e-06
2.28621e-06
2.28773e-06
2.28889e-06
2.28972e-06
2.29023e-06
2.29042e-06
2.29029e-06
2.28985e-06
2.28909e-06
2.288e-06
2.28655e-06
2.28474e-06
2.28268e-06
2.28077e-06
2.27871e-06
2.28049e-06
2.28235e-06
2.2842e-06
2.28576e-06
2.28696e-06
2.28782e-06
2.28834e-06
2.28854e-06
2.28841e-06
2.28795e-06
2.28716e-06
2.28604e-06
2.28455e-06
2.28268e-06
2.28063e-06
2.27872e-06
2.27641e-06
2.27855e-06
2.28044e-06
2.28234e-06
2.28391e-06
2.28511e-06
2.28597e-06
2.28649e-06
2.28669e-06
2.28656e-06
2.2861e-06
2.28531e-06
2.28419e-06
2.2827e-06
2.28077e-06
2.27872e-06
2.27642e-06
2.23274e-06
2.23483e-06
2.23668e-06
2.23857e-06
2.24012e-06
2.24132e-06
2.24218e-06
2.2427e-06
2.2429e-06
2.24277e-06
2.24231e-06
2.24152e-06
2.24039e-06
2.23892e-06
2.23699e-06
2.23499e-06
2.23275e-06
2.23483e-06
2.23659e-06
2.23844e-06
2.2403e-06
2.24186e-06
2.24307e-06
2.24393e-06
2.24445e-06
2.24466e-06
2.24452e-06
2.24406e-06
2.24326e-06
2.24213e-06
2.24065e-06
2.23877e-06
2.23674e-06
2.23484e-06
2.23668e-06
2.23844e-06
2.24031e-06
2.24212e-06
2.24365e-06
2.24483e-06
2.24568e-06
2.24619e-06
2.24639e-06
2.24626e-06
2.24581e-06
2.24503e-06
2.24392e-06
2.24246e-06
2.24063e-06
2.23858e-06
2.23669e-06
2.23857e-06
2.2403e-06
2.24212e-06
2.24388e-06
2.24538e-06
2.24655e-06
2.24737e-06
2.24788e-06
2.24807e-06
2.24795e-06
2.2475e-06
2.24674e-06
2.24565e-06
2.24422e-06
2.24243e-06
2.24042e-06
2.23858e-06
2.24012e-06
2.24186e-06
2.24365e-06
2.24538e-06
2.24687e-06
2.24801e-06
2.24882e-06
2.24932e-06
2.24951e-06
2.24939e-06
2.24895e-06
2.2482e-06
2.24713e-06
2.24572e-06
2.24396e-06
2.24198e-06
2.24013e-06
2.24132e-06
2.24306e-06
2.24483e-06
2.24654e-06
2.24801e-06
2.24914e-06
2.24994e-06
2.25044e-06
2.25062e-06
2.2505e-06
2.25007e-06
2.24933e-06
2.24827e-06
2.24687e-06
2.24514e-06
2.24319e-06
2.24133e-06
2.24218e-06
2.24393e-06
2.24568e-06
2.24737e-06
2.24882e-06
2.24994e-06
2.25074e-06
2.25123e-06
2.25142e-06
2.25129e-06
2.25087e-06
2.25013e-06
2.24908e-06
2.2477e-06
2.24598e-06
2.24405e-06
2.24219e-06
2.2427e-06
2.24445e-06
2.24619e-06
2.24788e-06
2.24932e-06
2.25044e-06
2.25123e-06
2.25172e-06
2.2519e-06
2.25178e-06
2.25135e-06
2.25062e-06
2.24958e-06
2.24821e-06
2.2465e-06
2.24458e-06
2.24271e-06
2.2429e-06
2.24465e-06
2.24639e-06
2.24807e-06
2.24951e-06
2.25062e-06
2.25142e-06
2.2519e-06
2.25209e-06
2.25197e-06
2.25154e-06
2.25081e-06
2.24977e-06
2.2484e-06
2.24669e-06
2.24478e-06
2.24291e-06
2.24277e-06
2.24452e-06
2.24626e-06
2.24795e-06
2.24939e-06
2.2505e-06
2.25129e-06
2.25178e-06
2.25197e-06
2.25185e-06
2.25142e-06
2.25069e-06
2.24965e-06
2.24827e-06
2.24656e-06
2.24465e-06
2.24278e-06
2.24231e-06
2.24406e-06
2.24581e-06
2.2475e-06
2.24895e-06
2.25007e-06
2.25087e-06
2.25135e-06
2.25154e-06
2.25142e-06
2.25099e-06
2.25026e-06
2.24921e-06
2.24783e-06
2.24611e-06
2.24419e-06
2.24232e-06
2.24152e-06
2.24326e-06
2.24503e-06
2.24674e-06
2.2482e-06
2.24933e-06
2.25013e-06
2.25062e-06
2.25081e-06
2.25069e-06
2.25026e-06
2.24952e-06
2.24846e-06
2.24707e-06
2.24534e-06
2.24339e-06
2.24153e-06
2.24039e-06
2.24213e-06
2.24392e-06
2.24565e-06
2.24713e-06
2.24827e-06
2.24908e-06
2.24958e-06
2.24977e-06
2.24965e-06
2.24921e-06
2.24846e-06
2.24739e-06
2.24598e-06
2.24423e-06
2.24226e-06
2.2404e-06
2.23892e-06
2.24065e-06
2.24246e-06
2.24422e-06
2.24572e-06
2.24688e-06
2.2477e-06
2.24821e-06
2.2484e-06
2.24827e-06
2.24783e-06
2.24707e-06
2.24598e-06
2.24455e-06
2.24278e-06
2.24078e-06
2.23893e-06
2.23699e-06
2.23877e-06
2.24063e-06
2.24243e-06
2.24397e-06
2.24514e-06
2.24598e-06
2.2465e-06
2.24669e-06
2.24656e-06
2.24611e-06
2.24534e-06
2.24423e-06
2.24278e-06
2.24096e-06
2.2389e-06
2.23701e-06
2.23499e-06
2.23674e-06
2.23858e-06
2.24043e-06
2.24199e-06
2.24319e-06
2.24405e-06
2.24458e-06
2.24478e-06
2.24465e-06
2.24419e-06
2.24339e-06
2.24226e-06
2.24078e-06
2.2389e-06
2.23689e-06
2.23501e-06
2.23275e-06
2.23484e-06
2.23669e-06
2.23858e-06
2.24013e-06
2.24133e-06
2.24219e-06
2.24272e-06
2.24292e-06
2.24278e-06
2.24232e-06
2.24153e-06
2.24041e-06
2.23893e-06
2.237e-06
2.235e-06
2.23276e-06
2.19178e-06
2.19372e-06
2.19544e-06
2.19722e-06
2.19868e-06
2.19982e-06
2.20064e-06
2.20114e-06
2.20133e-06
2.2012e-06
2.20076e-06
2.20001e-06
2.19894e-06
2.19755e-06
2.19573e-06
2.19387e-06
2.19179e-06
2.19372e-06
2.19537e-06
2.19709e-06
2.19885e-06
2.20033e-06
2.20148e-06
2.2023e-06
2.20281e-06
2.203e-06
2.20288e-06
2.20243e-06
2.20167e-06
2.20059e-06
2.19918e-06
2.19739e-06
2.1955e-06
2.19373e-06
2.19544e-06
2.19709e-06
2.19886e-06
2.20058e-06
2.20204e-06
2.20317e-06
2.20399e-06
2.20448e-06
2.20467e-06
2.20455e-06
2.20411e-06
2.20336e-06
2.2023e-06
2.2009e-06
2.19916e-06
2.19722e-06
2.19545e-06
2.19722e-06
2.19885e-06
2.20058e-06
2.20226e-06
2.2037e-06
2.20482e-06
2.20562e-06
2.20612e-06
2.2063e-06
2.20618e-06
2.20575e-06
2.20501e-06
2.20396e-06
2.20258e-06
2.20088e-06
2.19897e-06
2.19723e-06
2.19868e-06
2.20033e-06
2.20204e-06
2.2037e-06
2.20513e-06
2.20624e-06
2.20703e-06
2.20752e-06
2.20771e-06
2.20758e-06
2.20716e-06
2.20643e-06
2.20539e-06
2.20402e-06
2.20234e-06
2.20044e-06
2.19869e-06
2.19982e-06
2.20148e-06
2.20317e-06
2.20482e-06
2.20624e-06
2.20734e-06
2.20813e-06
2.20861e-06
2.20879e-06
2.20867e-06
2.20825e-06
2.20752e-06
2.20649e-06
2.20514e-06
2.20347e-06
2.2016e-06
2.19983e-06
2.20064e-06
2.2023e-06
2.20398e-06
2.20562e-06
2.20703e-06
2.20813e-06
2.20891e-06
2.20938e-06
2.20957e-06
2.20945e-06
2.20903e-06
2.20831e-06
2.20728e-06
2.20594e-06
2.20428e-06
2.20242e-06
2.20065e-06
2.20114e-06
2.20281e-06
2.20448e-06
2.20612e-06
2.20752e-06
2.20861e-06
2.20938e-06
2.20986e-06
2.21004e-06
2.20993e-06
2.20951e-06
2.20879e-06
2.20777e-06
2.20643e-06
2.20478e-06
2.20293e-06
2.20115e-06
2.20133e-06
2.203e-06
2.20467e-06
2.2063e-06
2.20771e-06
2.20879e-06
2.20957e-06
2.21004e-06
2.21023e-06
2.21011e-06
2.20969e-06
2.20897e-06
2.20796e-06
2.20662e-06
2.20496e-06
2.20312e-06
2.20134e-06
2.2012e-06
2.20288e-06
2.20455e-06
2.20618e-06
2.20758e-06
2.20867e-06
2.20945e-06
2.20993e-06
2.21011e-06
2.20999e-06
2.20957e-06
2.20885e-06
2.20783e-06
2.2065e-06
2.20484e-06
2.20299e-06
2.20121e-06
2.20076e-06
2.20243e-06
2.20411e-06
2.20575e-06
2.20716e-06
2.20825e-06
2.20903e-06
2.20951e-06
2.20969e-06
2.20957e-06
2.20915e-06
2.20843e-06
2.20741e-06
2.20607e-06
2.2044e-06
2.20255e-06
2.20077e-06
2.20001e-06
2.20167e-06
2.20336e-06
2.20501e-06
2.20643e-06
2.20752e-06
2.20831e-06
2.20879e-06
2.20897e-06
2.20885e-06
2.20843e-06
2.20771e-06
2.20668e-06
2.20533e-06
2.20366e-06
2.20179e-06
2.20002e-06
2.19894e-06
2.20059e-06
2.2023e-06
2.20396e-06
2.20539e-06
2.20649e-06
2.20728e-06
2.20777e-06
2.20796e-06
2.20783e-06
2.20741e-06
2.20668e-06
2.20564e-06
2.20428e-06
2.2026e-06
2.20071e-06
2.19895e-06
2.19756e-06
2.19918e-06
2.2009e-06
2.20258e-06
2.20402e-06
2.20514e-06
2.20594e-06
2.20643e-06
2.20662e-06
2.2065e-06
2.20607e-06
2.20533e-06
2.20428e-06
2.20291e-06
2.2012e-06
2.1993e-06
2.19756e-06
2.19573e-06
2.1974e-06
2.19916e-06
2.20088e-06
2.20234e-06
2.20347e-06
2.20428e-06
2.20478e-06
2.20497e-06
2.20484e-06
2.20441e-06
2.20366e-06
2.2026e-06
2.20121e-06
2.19947e-06
2.19752e-06
2.19574e-06
2.19387e-06
2.1955e-06
2.19722e-06
2.19897e-06
2.20045e-06
2.2016e-06
2.20242e-06
2.20293e-06
2.20312e-06
2.203e-06
2.20255e-06
2.20179e-06
2.20071e-06
2.1993e-06
2.19752e-06
2.19564e-06
2.19388e-06
2.19179e-06
2.19373e-06
2.19545e-06
2.19723e-06
2.19869e-06
2.19983e-06
2.20065e-06
2.20115e-06
2.20134e-06
2.20121e-06
2.20077e-06
2.20002e-06
2.19895e-06
2.19756e-06
2.19574e-06
2.19388e-06
2.1918e-06
2.15322e-06
2.15496e-06
2.15651e-06
2.15814e-06
2.15947e-06
2.16052e-06
2.16126e-06
2.16172e-06
2.1619e-06
2.16178e-06
2.16138e-06
2.16069e-06
2.1597e-06
2.15844e-06
2.15678e-06
2.15509e-06
2.15323e-06
2.15496e-06
2.15645e-06
2.15802e-06
2.15962e-06
2.16097e-06
2.16204e-06
2.1628e-06
2.16327e-06
2.16344e-06
2.16333e-06
2.16291e-06
2.16221e-06
2.16121e-06
2.15992e-06
2.15829e-06
2.15657e-06
2.15497e-06
2.15651e-06
2.15802e-06
2.15963e-06
2.16121e-06
2.16255e-06
2.1636e-06
2.16435e-06
2.16482e-06
2.16499e-06
2.16488e-06
2.16447e-06
2.16378e-06
2.16279e-06
2.16151e-06
2.1599e-06
2.15813e-06
2.15652e-06
2.15814e-06
2.15962e-06
2.16121e-06
2.16275e-06
2.16409e-06
2.16513e-06
2.16588e-06
2.16634e-06
2.16651e-06
2.1664e-06
2.166e-06
2.16531e-06
2.16433e-06
2.16305e-06
2.16148e-06
2.15973e-06
2.15815e-06
2.15947e-06
2.16097e-06
2.16255e-06
2.16409e-06
2.16542e-06
2.16646e-06
2.1672e-06
2.16765e-06
2.16783e-06
2.16771e-06
2.16731e-06
2.16663e-06
2.16566e-06
2.16439e-06
2.16283e-06
2.16108e-06
2.15947e-06
2.16052e-06
2.16204e-06
2.1636e-06
2.16513e-06
2.16646e-06
2.16748e-06
2.16822e-06
2.16867e-06
2.16885e-06
2.16873e-06
2.16833e-06
2.16765e-06
2.16669e-06
2.16543e-06
2.16387e-06
2.16214e-06
2.16052e-06
2.16126e-06
2.1628e-06
2.16435e-06
2.16588e-06
2.1672e-06
2.16822e-06
2.16895e-06
2.16941e-06
2.16958e-06
2.16946e-06
2.16907e-06
2.16839e-06
2.16743e-06
2.16617e-06
2.16462e-06
2.1629e-06
2.16127e-06
2.16172e-06
2.16327e-06
2.16482e-06
2.16634e-06
2.16765e-06
2.16867e-06
2.16941e-06
2.16986e-06
2.17003e-06
2.16992e-06
2.16952e-06
2.16884e-06
2.16789e-06
2.16663e-06
2.16509e-06
2.16337e-06
2.16173e-06
2.1619e-06
2.16344e-06
2.16499e-06
2.16651e-06
2.16783e-06
2.16885e-06
2.16958e-06
2.17003e-06
2.1702e-06
2.17009e-06
2.16969e-06
2.16902e-06
2.16806e-06
2.16681e-06
2.16526e-06
2.16355e-06