/*--------------------------------*- C++ -*----------------------------------*\
  =========                 |
  \\      /  F ield         | OpenFOAM: The Open Source CFD Toolbox
   \\    /   O peration     | Website:  https://openfoam.org
    \\  /    A nd           | Version:  6
     \\/     M anipulation  |
\*---------------------------------------------------------------------------*/
FoamFile
{
    version     2.0;
    format      ascii;
    class       volVectorField;
    location    "0";
    object      U;
}
// * * * * * * * * * * * * * * * * * * * * * * * * * * * * * * * * * * * * * //

dimensions      [0 1 -1 0 0 0 0];

internalField   nonuniform List<vector> 
13046
(
(-0.613939 0.282164 0)
(-0.689463 -0.202978 -6.82063e-21)
(-0.156905 -0.10343 -1.42543e-20)
(-0.554695 0.162647 0)
(-0.144688 -0.0117672 -1.31273e-20)
(-0.560835 -0.212527 0)
(-0.628643 0.198202 2.00956e-21)
(-0.637715 -0.265061 3.44132e-21)
(-0.113483 0.000909598 -1.42693e-20)
(-1.50433 0.704391 4.0245e-21)
(-1.5665 -0.684606 0)
(0.0843952 -0.0171241 8.61921e-21)
(-0.819835 0.355882 -6.32951e-21)
(-0.858457 -0.314175 -1.03201e-20)
(-0.0630543 -0.0658685 7.56618e-21)
(-1.43191 0.788515 -5.88961e-21)
(0.0463484 -0.0293099 2.07395e-20)
(-1.60467 -0.563003 3.38302e-21)
(-0.274537 0.0930114 0)
(-0.382804 -0.176451 -7.26553e-21)
(-0.500285 0.0234188 2.1196e-20)
(-1.44878 0.777948 -2.26339e-21)
(0.0594323 -0.0236488 -2.76864e-20)
(-1.5974 -0.589012 0)
(-0.492652 0.174312 8.37051e-21)
(-0.551138 -0.154768 -1.68145e-20)
(-0.180979 -0.0732063 0)
(-0.837916 0.39859 -1.13024e-20)
(-0.898021 -0.312218 3.04231e-21)
(-0.0690004 -0.0840214 -1.32825e-20)
(-0.63491 0.311047 0)
(-0.724888 -0.185485 0)
(-0.172594 -0.127806 1.45084e-20)
(-0.426352 0.129151 -9.7225e-21)
(-0.212434 -0.0713638 4.96648e-21)
(-0.487382 -0.114344 2.92987e-20)
(-0.41048 0.0983352 -1.50406e-20)
(-0.22231 -0.0435072 7.60776e-21)
(-0.447785 -0.110037 -1.50137e-20)
(-0.502789 0.298777 1.0258e-20)
(-0.398666 -0.284967 2.60741e-21)
(-0.730081 -0.0589203 -1.03067e-20)
(-0.367058 0.00784594 6.81545e-21)
(-0.28732 -0.00403127 1.15079e-20)
(-0.342477 -0.0667182 0)
(-0.407043 0.0203556 4.35983e-21)
(-0.261405 0.023701 -1.77111e-20)
(-0.355105 -0.102601 -2.21135e-21)
(-0.645038 0.276282 0)
(-0.704506 -0.233158 -4.85459e-22)
(-0.117079 -0.0786046 -7.62696e-23)
(-0.675624 -0.479758 1.61092e-20)
(-0.427378 0.307818 0)
(-0.885554 0.0540049 -1.21383e-20)
(-0.771257 -0.538856 -2.29713e-20)
(-0.939522 0.0935487 -1.92229e-20)
(-0.372771 0.275744 1.53548e-20)
(-1.34837 -0.327765 -2.04723e-21)
(-1.16796 0.746608 0)
(-0.161118 -0.175219 1.16308e-20)
(-1.10357 0.388525 -5.93264e-21)
(-1.09088 -0.548772 5.79007e-21)
(-0.00389677 0.0285126 -3.13379e-20)
(0.077384 -0.0244974 1.5986e-20)
(-1.47624 -0.629774 -2.98782e-21)
(-1.42631 0.654885 -8.00212e-21)
(-1.10083 0.731131 0)
(-1.27838 -0.268662 0)
(-0.225898 -0.226824 0)
(-1.04188 0.691481 -4.23858e-21)
(-1.21896 -0.246295 0)
(-0.247019 -0.240507 9.32297e-21)
(-1.41258 -0.343931 0)
(-1.22191 0.780108 1.59732e-22)
(-0.141948 -0.167096 -6.52567e-23)
(-0.306814 0.123505 0)
(-0.376841 -0.196358 7.81689e-21)
(-0.537187 -0.00237491 -1.50796e-20)
(-0.0653104 -0.10861 1.27212e-20)
(-1.29878 0.800431 -1.1882e-20)
(-1.49043 -0.416843 0)
(-0.539445 0.191659 4.40485e-21)
(-0.58011 -0.184796 0)
(-0.150832 -0.0499274 0)
(0.0807168 -0.0229395 -1.42848e-20)
(-1.51453 -0.642538 -2.07806e-21)
(-1.46105 0.680227 4.69311e-21)
(-1.47565 0.539864 -8.4522e-21)
(0.0629407 0.000187259 0)
(-1.41814 -0.740874 -2.37929e-21)
(-0.0127049 0.0334778 0)
(-1.56229 0.435559 0)
(-1.38792 -0.865799 2.87809e-22)
(-1.1488 0.543348 0)
(-1.21395 0.558154 5.03778e-21)
(-1.21199 -0.474257 1.09783e-20)
(-1.26742 -0.52154 -5.12216e-21)
(0.0171442 -0.052688 -6.68085e-21)
(0.0390014 -0.0369685 1.72301e-20)
(0.0453155 0.00989659 -8.05433e-22)
(-1.46346 0.508644 8.27194e-21)
(-1.38838 -0.76032 0)
(-0.443388 0.0562187 -3.27848e-23)
(-0.228319 0.0211859 9.16225e-21)
(-0.403111 -0.140341 0)
(-0.256011 0.191396 0)
(-0.84793 0.135061 -6.05799e-21)
(-0.738183 -0.461222 0)
(-0.413567 0.281237 1.75265e-20)
(-0.582843 -0.39813 0)
(-0.795218 0.0239018 -2.33244e-20)
(-1.41956 0.684105 0)
(0.0667095 -0.0165769 0)
(-1.46437 -0.682247 -6.0366e-22)
(-0.739834 0.315746 1.74816e-20)
(-0.791557 -0.278714 4.47312e-21)
(-0.0802272 -0.0602702 1.39407e-20)
(-1.22932 0.639038 6.46284e-21)
(-1.16147 0.589812 -1.22781e-20)
(-1.32527 -0.471566 -9.21101e-21)
(0.00484344 -0.0693479 7.69382e-21)
(-1.2449 -0.447161 5.37307e-21)
(-0.00182567 -0.0707065 -7.18665e-21)
(-1.49109 0.718106 -2.60799e-21)
(-1.56759 -0.678634 -2.43918e-21)
(0.080763 -0.0146878 -3.85036e-21)
(-1.00702 0.484996 0)
(-1.06715 -0.395559 -7.63565e-21)
(-0.0241353 -0.0761036 1.60342e-20)
(-0.565028 0.328689 0)
(-0.338208 -0.252314 -1.3148e-20)
(-0.749638 -0.0991623 5.73107e-22)
(-0.0302764 0.0493727 0)
(-1.51185 0.411576 0)
(-1.35685 -0.843048 0)
(-1.33007 0.569855 0)
(-1.35406 -0.611341 -1.33019e-20)
(0.0644011 -0.016699 -1.82783e-20)
(-0.70672 0.347304 0)
(-0.788814 -0.219648 0)
(-0.152519 -0.133902 0)
(-0.826866 0.246875 0)
(-0.809107 -0.409672 0)
(-0.0891174 0.0530873 0)
(-0.383321 0.270111 0)
(-0.6507 -0.440556 0)
(-0.830963 0.0562537 1.2574e-20)
(-0.251311 0.175899 -1.80566e-21)
(-0.810762 0.129025 -1.32181e-20)
(-0.712729 -0.434308 1.45445e-20)
(-1.16084 0.421221 1.33336e-20)
(-1.14582 -0.568471 0)
(0.0174121 0.0134893 4.06818e-20)
(-0.190027 0.107258 0)
(-0.698446 0.134966 1.43716e-20)
(-0.627643 -0.342041 -3.73894e-21)
(-0.934611 -0.615851 0)
(-1.04651 0.19165 1.35976e-20)
(-1.01466 -0.648454 0)
(-1.11236 0.241567 7.7842e-21)
(-0.243157 0.199103 0)
(-0.181995 0.159069 0)
(-0.855515 0.202967 1.82754e-21)
(-0.797393 -0.450719 7.63375e-21)
(-0.141445 0.100781 -7.85363e-21)
(-1.53218 0.681046 -4.12335e-21)
(0.0871389 -0.0194021 0)
(-1.5369 -0.714853 -4.10263e-21)
(-1.45121 0.70024 -1.9791e-21)
(0.0724214 -0.0132403 -1.76326e-21)
(-1.51894 -0.679098 0)
(-1.35416 0.601757 -7.00637e-21)
(-1.38767 -0.609502 0)
(0.0685096 -0.0225208 2.07745e-20)
(-0.68913 0.435863 0)
(-0.88175 -0.119955 3.18086e-21)
(-0.368939 -0.298466 7.5704e-21)
(-0.80741 0.174826 1.19917e-20)
(-0.175268 0.126049 3.80288e-21)
(-0.742151 -0.418108 0)
(0.0839533 -0.0189384 0)
(-1.50888 -0.760821 0)
(-1.55917 0.623538 3.2919e-21)
(-0.625327 0.393446 0)
(-0.828334 -0.094522 -7.01531e-21)
(-0.384972 -0.291478 1.9786e-21)
(-0.195804 0.125039 0)
(-0.723873 0.133158 0)
(-0.645021 -0.36413 0)
(-0.76542 0.21195 5.95209e-21)
(-0.747534 -0.375385 0)
(-0.101279 0.0493983 0)
(-0.940068 -0.380921 -2.80183e-23)
(-0.0269093 -0.0405871 -9.42004e-21)
(-0.950639 0.444374 1.78918e-20)
(-1.01024 -0.372199 0)
(-0.0325647 -0.069707 -2.00935e-20)
(-1.49405 0.61474 -8.31631e-21)
(0.0826941 -0.0140461 1.2914e-20)
(-1.4839 -0.711701 -1.04829e-20)
(-0.00138672 0.0382412 1.17432e-20)
(-1.45993 0.440534 5.37833e-21)
(-1.34817 -0.796828 1.20398e-20)
(-1.54721 0.494453 -1.34737e-20)
(-1.42449 -0.811787 0)
(0.0354024 0.010242 -1.15289e-20)
(-0.723259 -0.540674 -8.15467e-22)
(-0.972223 0.0426038 5.35049e-21)
(-0.508273 0.386866 0)
(-0.768917 0.274492 -2.6705e-20)
(-1.2792 0.814652 6.25527e-21)
(-0.0942152 -0.125995 -7.84553e-21)
(-1.49086 -0.402365 0)
(-1.44749 -0.817935 0)
(-1.57115 0.531984 -1.09776e-20)
(0.0504491 -0.00311192 0)
(-0.45065 0.0965651 -2.19593e-20)
(-0.200434 -0.00870733 -7.47108e-21)
(-0.451194 -0.146937 2.20192e-20)
(-0.803815 0.404324 0)
(-0.880068 -0.281163 -4.41317e-22)
(-0.106908 -0.108238 -7.73887e-21)
(-0.0239817 0.0502436 9.01094e-21)
(-1.46839 0.420974 0)
(-1.33734 -0.81876 -1.38826e-20)
(-0.834244 0.311251 2.13223e-20)
(-0.91522 -0.390021 1.85839e-20)
(-0.0291711 -0.0247655 0)
(0.0811756 -0.0228605 0)
(-1.49817 -0.728248 2.3621e-21)
(-1.52279 0.67119 0)
(-0.446426 0.34254 0)
(-0.993271 0.0715963 0)
(-0.781413 -0.580357 0)
(-1.50066 0.483835 1.18115e-20)
(-1.39653 -0.78684 0)
(0.0317752 0.0155382 -5.812e-23)
(-0.977509 0.222374 5.20834e-21)
(-0.905819 -0.547669 -5.70158e-21)
(-0.154064 0.129305 0)
(-1.00543 0.512062 0)
(-1.07932 -0.376008 7.15124e-21)
(-0.0450768 -0.0921625 1.26298e-20)
(-1.2303 -0.817528 -1.85214e-20)
(-1.37844 0.310862 -1.0008e-20)
(-0.132823 0.128149 7.07783e-21)
(-1.18778 0.255695 0)
(-1.07853 -0.699545 -7.6666e-21)
(-0.179458 0.158666 -2.59305e-22)
(0.0769833 -0.0278111 -1.12814e-20)
(-1.46926 -0.741375 0)
(-1.53221 0.649812 -1.46308e-21)
(-0.522856 0.349478 9.37416e-21)
(-0.515941 -0.372598 -9.51146e-21)
(-0.82396 -0.0293381 1.01115e-21)
(-1.32097 0.725015 1.55898e-21)
(0.0557427 0.000186359 -1.65591e-20)
(-1.49712 -0.598704 0)
(-0.228386 0.0615515 -4.36963e-21)
(-0.502596 0.0561362 -1.71284e-20)
(-0.426312 -0.187707 2.17879e-20)
(-0.999487 0.284688 6.04226e-21)
(-0.947249 0.235648 2.14811e-23)
(-0.956471 -0.528494 -1.3981e-20)
(-0.887625 -0.517421 0)
(-0.12931 0.107743 7.13982e-21)
(-0.0750728 0.0738882 -7.3749e-21)
(-0.0364871 -0.0857012 -1.66497e-20)
(-1.33763 0.807986 6.44806e-21)
(-1.54178 -0.441443 -9.07769e-21)
(-0.94499 0.496169 0)
(-1.02836 -0.328358 0)
(-0.087977 -0.116178 -1.65849e-20)
(-1.26121 0.297687 -2.69888e-21)
(-1.14405 -0.740828 0)
(-0.139018 0.132264 0)
(-1.28696 0.611701 -6.16553e-21)
(-1.34701 -0.537873 0)
(0.0467826 -0.0408236 7.5519e-21)
(-0.341457 0.0279124 4.56536e-21)
(-0.367757 -0.0477849 6.69798e-21)
(-0.287937 -0.0331721 -2.28099e-21)
(-1.08557 0.261449 -9.91706e-21)
(-1.00853 -0.616163 0)
(-0.136091 0.12717 -1.2142e-20)
(-0.961985 0.525608 0)
(-1.05892 -0.319429 8.89751e-21)
(-0.104965 -0.132344 -1.06006e-20)
(-0.87508 0.353136 0)
(-0.944496 0.387822 2.0985e-21)
(-0.542986 0.370021 3.36716e-21)
(-0.53771 -0.396017 2.75316e-20)
(-0.852863 -0.0223905 -2.41413e-20)
(-1.14358 0.304264 -1.00284e-20)
(-1.06733 -0.639264 1.16917e-20)
(-0.0897994 0.0969193 1.1077e-20)
(-1.33063 0.621797 0)
(0.0600829 -0.0325668 -2.67321e-20)
(-1.3924 -0.573206 -6.27874e-21)
(-0.409856 0.260562 -2.42513e-20)
(-0.539044 -0.369721 0)
(-0.760128 0.0219753 7.88926e-21)
(-0.278927 0.228281 -1.41988e-20)
(-1.06871 0.177327 -7.81649e-21)
(-0.941312 -0.645832 0)
(-1.13874 0.63463 -6.28504e-21)
(-1.2542 -0.383905 -7.47609e-21)
(-0.0653077 -0.112738 4.76564e-21)
(-0.485687 0.348268 1.21445e-21)
(-0.636985 -0.461434 0)
(-0.889227 0.0294058 1.68204e-20)
(-1.19522 0.670774 0)
(-1.23451 0.675736 0)
(-1.322 -0.412852 -4.62657e-21)
(-0.0490878 -0.10335 -1.23918e-20)
(-1.354 -0.454079 6.54246e-21)
(-0.0166182 -0.0813619 1.31553e-20)
(0.0869656 -0.0179306 -9.95806e-21)
(-1.51417 -0.734005 0)
(-1.53805 0.644326 -5.35556e-21)
(-1.09811 0.569781 7.33556e-21)
(-1.18322 -0.410183 0)
(-0.0298353 -0.0872019 4.29727e-21)
(-1.31814 -0.644313 -4.30291e-22)
(0.045026 -0.0161751 1.44411e-20)
(-1.27086 0.653271 4.81644e-22)
(-0.61666 0.0863053 -7.93386e-21)
(-0.223896 0.108499 0)
(-0.529458 -0.280196 0)
(-1.02363 0.361527 1.41081e-20)
(-1.02042 -0.497474 0)
(-0.0119662 0.0197592 2.41738e-20)
(0.0797078 -0.0153062 -8.23789e-21)
(-1.4479 0.607163 1.73195e-20)
(-1.45084 -0.677366 8.41217e-21)
(-0.807615 -0.570028 0)
(-0.974903 0.100785 7.04906e-21)
(-0.373339 0.292557 -1.73992e-20)
(-1.26881 -0.82328 -2.18987e-20)
(-1.41519 0.350108 -5.94529e-21)
(-0.0893991 0.0946402 0)
(-0.812895 -0.342648 -1.91014e-20)
(-0.0558521 -0.0154793 0)
(-1.07655 0.439339 1.49616e-20)
(-1.0848 -0.480594 6.47916e-21)
(0.015722 -0.0218744 7.37286e-21)
(-0.800064 -0.36388 1.1138e-20)
(-0.05929 0.00422832 -2.30752e-23)
(-1.41593 0.776239 -3.98026e-22)
(0.0372182 -0.0387356 9.80183e-21)
(-1.57778 -0.542307 -4.97655e-21)
(-0.704242 -0.554284 0)
(-0.999975 0.0215385 1.67079e-21)
(-0.567155 0.431531 0)
(-1.13645 0.47053 -1.52578e-20)
(-1.16098 -0.512803 -7.89622e-21)
(0.0297855 -0.0165654 -8.90992e-21)
(-0.853743 0.240441 0)
(-0.818844 -0.439456 -1.10866e-20)
(-0.102439 0.0708954 0)
(-0.852806 0.103357 0)
(-0.708928 -0.472716 0)
(-0.318631 0.225994 0)
(-0.612524 0.237701 -6.09711e-21)
(-0.651199 -0.222462 -1.0676e-20)
(-0.123902 -0.058602 1.99709e-23)
(-0.328293 0.264737 1.76037e-20)
(-1.03653 0.14352 1.88538e-20)
(-0.89087 -0.621802 1.12462e-20)
(-1.51989 0.573939 -6.72683e-21)
(-1.45959 -0.746013 8.80411e-21)
(0.0743283 -0.00867569 -1.21788e-20)
(-1.2794 -0.799255 1.49179e-20)
(-1.40082 0.371246 6.02824e-21)
(-0.0611542 0.0783388 9.08695e-21)
(-0.915205 0.622399 -1.31815e-20)
(-0.342838 -0.301633 1.4041e-20)
(-1.11296 -0.180379 -1.05216e-20)
(-1.26927 0.748382 3.52514e-21)
(-1.22263 0.719155 -3.33266e-21)
(-1.37151 -0.397193 -1.46671e-21)
(-1.42777 -0.418016 0)
(-0.0558721 -0.104409 -4.51333e-21)
(-0.0733581 -0.118762 -4.02138e-21)
(0.051107 -0.0104983 -1.95613e-20)
(-1.3742 -0.63057 4.74281e-22)
(-1.29356 0.664203 1.23932e-21)
(-1.34517 0.739597 -1.35969e-22)
(0.0589447 0.00177551 2.29098e-20)
(-1.53596 -0.596048 0)
(-1.07135 0.31719 -2.25955e-20)
(-1.03223 -0.566076 -3.04842e-21)
(-0.0605576 0.0708547 0)
(0.0860312 -0.0165591 -2.48705e-20)
(-1.51131 0.637053 5.33143e-21)
(-1.50813 -0.708501 0)
(-1.04553 0.650968 1.86677e-20)
(-1.1034 0.671056 -1.38953e-20)
(-1.19568 -0.29281 8.105e-21)
(-1.24552 -0.325913 3.05967e-21)
(-0.184992 -0.191938 -7.96605e-21)
(-0.14017 -0.160994 -3.98592e-21)
(0.0505786 -0.017787 0)
(-1.44019 -0.841785 0)
(-1.62459 0.51924 1.7409e-21)
(-1.2374 0.714397 -1.82966e-21)
(0.0490082 0.00441131 0)
(-1.45967 -0.572742 0)
(-0.458128 -0.0254125 -2.24052e-23)
(-0.316711 0.0892851 9.71654e-21)
(-0.308456 -0.124177 4.83919e-21)
(-1.34973 0.690348 -2.16939e-21)
(-1.45613 -0.650734 8.83054e-22)
(0.058966 -0.00952002 1.07368e-21)
(-0.772951 0.468579 0)
(-0.922487 -0.174666 -1.44617e-20)
(-0.285019 -0.245452 -8.22409e-23)
(-1.56368 0.606523 2.21954e-22)
(-1.49365 -0.776486 1.11084e-20)
(0.0793376 -0.0169069 1.86491e-23)
(-1.16955 -0.656206 -5.87999e-25)
(0.0373903 -0.0313625 -8.31878e-21)
(-1.23718 0.556463 6.17371e-22)
(-0.436246 0.253441 -8.88095e-21)
(-0.412362 -0.273756 8.46545e-21)
(-0.682917 -0.0310853 2.52878e-20)
(-0.549646 0.0961404 0)
(-0.499485 -0.2261 -2.41741e-20)
(-0.191691 0.0548049 1.20681e-20)
(-1.46987 0.74344 0)
(0.0759317 -0.01186 1.14922e-20)
(-1.58058 -0.658923 -1.96168e-22)
(-0.591101 0.112136 0)
(-0.537111 -0.255395 -8.3925e-21)
(-0.1814 0.0730735 -1.70981e-20)
(-0.424873 -0.0206955 1.01009e-20)
(-0.307161 0.0621086 -5.1407e-21)
(-0.308283 -0.0995227 2.56543e-21)
(-0.425138 0.336993 8.46606e-21)
(-1.05438 0.100397 -6.56582e-21)
(-0.862875 -0.644575 1.23786e-20)
(-0.565671 0.0206393 0)
(-0.420846 -0.22217 0)
(-0.288472 0.141934 1.42072e-21)
(-0.609249 0.0646894 1.25575e-20)
(-0.49195 -0.26211 6.40979e-21)
(-0.262009 0.137352 2.00645e-22)
(-0.853604 0.587803 2.00537e-20)
(-1.06058 -0.147829 -1.07378e-20)
(-0.396987 -0.343119 -1.38633e-20)
(0.0778413 -0.0192911 1.74218e-20)
(0.0833338 -0.0185418 -1.76676e-20)
(-1.57949 -0.647633 2.92644e-21)
(-1.56568 -0.667808 2.14777e-21)
(-1.48023 0.736869 0)
(-1.49636 0.722446 -4.12122e-21)
(-1.54902 0.574088 8.43812e-21)
(-1.47493 -0.766259 -7.23581e-21)
(0.0741126 -0.0101757 1.51073e-20)
(-0.32917 -0.302471 -8.96831e-21)
(-0.974186 0.674673 4.08079e-21)
(-1.17184 -0.195727 1.34069e-20)
(-0.554562 0.353846 -8.55965e-21)
(-0.445735 -0.327347 -8.7032e-21)
(-0.804484 -0.0579088 7.8059e-21)
(-1.2035 0.223231 0)
(-1.06825 -0.729619 7.93492e-21)
(-0.234215 0.197232 2.67935e-22)
(-1.2745 -0.733329 1.65067e-21)
(0.0560295 -0.0449928 -7.721e-21)
(-1.44656 0.562315 -4.23335e-22)
(0.0121054 0.017526 0)
(-1.57612 0.467363 0)
(-1.40561 -0.858913 5.06374e-21)
(-1.48546 0.692404 2.72928e-21)
(0.0785882 -0.0175748 0)
(-1.52922 -0.701821 -2.31987e-21)
(0.0301112 -0.0260338 -3.09923e-32)
(-1.10629 -0.625073 1.05339e-21)
(-1.15058 0.541642 -9.96988e-22)
(-1.16353 -0.556005 -1.21318e-21)
(0.0287963 -0.0123979 3.09177e-32)
(-1.09427 0.610301 8.60062e-22)
(-1.18585 -0.650287 -1.56745e-20)
(-1.23597 0.396122 0)
(-0.013624 0.0474288 -2.35308e-20)
(-1.40431 -0.814535 -1.27691e-21)
(0.0609025 -0.0381748 -7.88229e-21)
(-1.61563 0.546274 0)
(-1.36378 0.560064 -9.12026e-21)
(-1.36395 -0.646235 8.1749e-21)
(0.0659191 -0.00960644 1.21939e-20)
(-1.41119 0.818487 1.10619e-20)
(0.0393045 -0.0169755 6.99326e-21)
(-1.65111 -0.539121 0)
(-0.727793 0.282921 4.72795e-21)
(-0.0730999 -0.0301924 -4.76683e-21)
(-0.773958 -0.306832 4.63886e-21)
(-1.43576 -0.851636 2.49923e-21)
(0.0404572 -0.0074915 8.35896e-21)
(-1.61367 0.503816 2.30417e-21)
(-1.15436 0.196805 -7.55759e-21)
(-0.272037 0.22631 -4.8028e-21)
(-1.01887 -0.702646 0)
(-1.16681 -0.732364 0)
(-1.27086 0.32485 0)
(-0.0986247 0.107252 0)
(0.00814091 -0.0120053 0)
(-0.684732 -0.354826 2.45049e-21)
(-0.672814 0.345173 -2.23017e-21)
(-1.30377 -0.673372 4.99361e-22)
(0.0477657 -0.0240198 -1.00464e-20)
(-1.30816 0.633058 -7.16858e-22)
(-0.659741 0.241783 -1.21203e-20)
(-0.0969533 -0.0292179 1.13988e-20)
(-0.694161 -0.271134 5.43949e-21)
(-1.4674 -0.804706 8.59647e-21)
(-1.60468 0.571271 -3.28964e-21)
(0.0688613 -0.0217779 0)
(0.0491517 -0.0241271 -8.73213e-21)
(-1.64041 0.517885 0)
(-1.4206 -0.850616 -6.46756e-21)
(-1.49003 0.672977 -4.92692e-21)
(0.085552 -0.0195577 2.66627e-20)
(-1.5265 -0.673204 0)
(0.00516075 -0.0607923 -2.01005e-20)
(-1.53185 -0.494915 6.19094e-21)
(-1.36431 0.775441 0)
(-0.822325 0.594064 -2.52792e-20)
(-1.06104 -0.121779 1.36746e-20)
(-0.464884 -0.395316 -4.40525e-21)
(-1.32924 -0.358306 2.17712e-21)
(-1.17101 0.721915 7.98526e-21)
(-0.125095 -0.152979 -1.2414e-20)
(0.002306 -0.0543672 -1.79768e-20)
(-1.38534 0.821993 0)
(-1.60631 -0.491563 0)
(-0.819224 0.460705 -4.18949e-21)
(-0.894415 0.505141 0)
(-0.929699 -0.232647 -1.51105e-20)
(-1.00854 -0.268855 1.61703e-20)
(-0.188785 -0.173683 2.18971e-21)
(-0.160589 -0.165747 -2.33337e-21)
(-0.761741 0.445007 4.01874e-21)
(-0.895863 -0.192295 0)
(-0.245314 -0.211207 4.16928e-21)
(-1.02788 0.667131 0)
(-1.1932 -0.269533 -1.30919e-20)
(-0.225099 -0.220994 2.87409e-21)
(-1.24124 -0.766514 -7.62186e-21)
(-1.35307 0.359912 6.51167e-21)
(-0.063976 0.0803581 -1.85727e-20)
(-1.45845 -0.806526 0)
(-1.56363 0.557409 1.20901e-20)
(0.0634938 -0.00905138 0)
(-0.00860835 0.0439416 -6.02818e-21)
(-1.39577 0.423402 -3.84554e-21)
(-1.30616 -0.760604 -4.90566e-21)
(-1.2344 -0.56162 2.04344e-22)
(0.0343214 -0.00803935 5.37502e-21)
(-1.14347 0.63701 0)
(-0.53443 0.287306 8.17294e-21)
(-0.543136 0.275136 0)
(-0.285527 -0.198044 0)
(-0.689748 -0.10714 3.06473e-20)
(-0.24464 -0.167852 0)
(-0.674114 -0.13297 -1.9543e-20)
(-0.917291 0.59237 0)
(-0.834508 0.53916 0)
(-0.312156 -0.272257 2.53154e-23)
(-1.08099 -0.217616 8.56906e-21)
(-0.274033 -0.245393 2.11192e-20)
(-1.00856 -0.182197 -1.83271e-20)
(-1.13691 -0.678998 0)
(0.0412565 -0.040385 1.13132e-20)
(-1.29613 0.542446 0)
(-1.471 -0.794556 -5.66066e-21)
(-1.59229 0.576902 1.17614e-21)
(0.0717362 -0.0184994 5.30246e-21)
(-0.609166 0.41101 -1.45268e-20)
(-0.513792 -0.395321 -9.83172e-21)
(-0.886665 -0.0497516 2.49339e-20)
(-1.17608 -0.781843 1.66282e-20)
(-1.31233 0.286097 1.68959e-20)
(-0.156546 0.146803 0)
(-0.013505 -0.0747534 2.14941e-20)
(-1.50682 -0.473276 -6.58203e-21)
(-1.33965 0.773777 8.15667e-21)
(-1.41344 -0.710489 0)
(-1.45021 0.647275 0)
(0.0649841 -0.0264595 0)
(-1.4288 -0.735836 0)
(-1.49038 0.632458 2.04131e-21)
(0.0703984 -0.0314339 1.91659e-21)
(-1.0962 0.643193 -7.80576e-21)
(-1.22431 -0.350522 4.63725e-21)
(-0.108669 -0.139987 5.89544e-21)
(-0.365822 0.231191 -2.31205e-21)
(-0.549322 -0.355825 0)
(-0.733753 0.0443877 -1.41308e-22)
(-1.50411 0.689758 5.74072e-21)
(0.0862565 -0.0188904 1.544e-20)
(-1.55062 -0.679095 -2.50016e-21)
(-1.21736 -0.690601 0)
(-1.28203 0.400368 0)
(-0.0174799 0.0553817 2.0293e-20)
(0.0638888 -0.0330456 5.10398e-21)
(-1.44862 -0.588733 1.05801e-20)
(-1.37836 0.667627 1.80577e-20)
(-0.790718 0.521804 0)
(-0.362757 -0.306655 -1.42397e-20)
(-0.980157 -0.154454 9.46384e-21)
(-0.937885 0.186529 1.60958e-22)
(-0.843548 -0.522972 8.36109e-21)
(-0.209887 0.163248 0)
(-0.493585 0.304981 9.53e-23)
(-0.449851 -0.320727 -2.88519e-21)
(-0.757646 -0.0386207 -1.02257e-20)
(0.087891 -0.018582 -1.22272e-23)
(-1.53769 -0.715575 5.51429e-21)
(-1.52825 0.669383 5.54335e-21)
(-1.28397 0.649958 -3.47568e-21)
(-1.37396 -0.514286 -3.40394e-21)
(0.0298238 -0.0534115 0)
(-0.444489 0.244947 -8.86326e-21)
(-0.360451 -0.23418 1.84482e-20)
(-0.656483 -0.0527765 -1.66943e-20)
(-1.39588 0.833566 4.72964e-21)
(0.0130162 -0.0409999 7.9506e-21)
(-1.63803 -0.504403 -3.39641e-21)
(-0.704792 0.374344 -5.12964e-21)
(-0.809118 -0.204127 0)
(-0.188759 -0.162602 0)
(-0.71344 0.175516 -2.22479e-20)
(-0.670983 -0.342156 5.15803e-21)
(-0.13914 0.0750025 0)
(-1.14555 -0.686921 0)
(-1.22352 0.327559 1.43476e-20)
(-0.0777285 0.0952494 0)
(-1.38352 0.77553 -1.89713e-21)
(0.0579293 -0.000144327 -2.45317e-21)
(-1.60904 -0.585542 1.48817e-21)
(-1.38028 0.795261 5.3541e-21)
(0.0512575 -0.00146566 0)
(-1.63042 -0.562037 -2.40673e-21)
(0.0541216 -0.0390792 4.58557e-21)
(-1.47014 -0.567134 -5.90221e-21)
(-1.37771 0.691876 -1.66614e-20)
(-0.970901 0.166597 -6.76201e-21)
(-0.870665 -0.5674 -8.38842e-21)
(-0.254967 0.193911 0)
(0.0544793 0.00565202 2.24732e-21)
(-1.57196 -0.57911 -1.39901e-21)
(-1.32061 0.756216 0)
(0.0719257 -0.00923928 0)
(-1.40812 -0.678549 -6.17573e-21)
(-1.42067 0.57374 -2.06082e-21)
(0.0226597 -0.0279515 9.11186e-21)
(-0.946857 -0.589004 -6.8087e-22)
(-1.04154 0.464143 0)
(-0.93248 0.574031 5.30183e-22)
(-1.0552 -0.476857 0)
(0.0203891 -0.0071735 9.1273e-21)
(0.0136331 -0.0507933 -9.5201e-24)
(-1.57929 -0.511553 0)
(-1.3878 0.801403 0)
(0.0851469 -0.0218001 0)
(-1.52054 -0.737033 0)
(-1.54572 0.662964 6.30345e-21)
(-1.46413 0.735938 -5.2586e-21)
(-1.44564 0.719194 4.25377e-21)
(0.0709232 -0.0242123 -8.74794e-21)
(-1.57442 -0.611759 -1.03358e-21)
(0.0704145 -0.0272665 -1.42722e-20)
(-1.54303 -0.608713 2.16393e-21)
(-1.42439 0.544576 4.11664e-21)
(-1.39345 -0.702714 4.21195e-21)
(0.063912 -0.00207154 0)
(-0.218204 0.192046 0)
(-1.12165 -0.776486 0)
(-1.27174 0.244613 0)
(-0.514582 0.226448 0)
(-0.205229 -0.120239 -2.54096e-20)
(-0.611471 -0.142529 1.07434e-20)
(-1.38418 0.469283 1.21751e-20)
(-1.32294 -0.722767 1.65358e-21)
(0.0284353 0.0226702 1.77632e-20)
(0.00492533 0.0378458 1.15281e-20)
(-1.36337 0.440576 -1.69483e-20)
(-1.2884 -0.728447 -2.29149e-21)
(-1.35911 0.836451 6.07271e-21)
(-0.0282637 -0.0752386 8.60002e-21)
(-1.59018 -0.452021 9.4706e-21)
(-0.945181 0.619726 0)
(-1.11924 -0.221131 3.89348e-21)
(-0.280068 -0.255038 -2.07028e-20)
(-0.832934 0.510871 0)
(-0.97735 -0.196596 1.89886e-20)
(-0.269704 -0.241923 -4.04827e-23)
(-1.23293 0.446517 -1.69433e-20)
(-1.21527 -0.620216 2.14856e-21)
(0.0265345 0.0161483 -1.02936e-20)
(-1.26655 0.440276 0)
(-1.23038 -0.647876 2.02609e-21)
(0.017929 0.0250504 9.39896e-21)
(-0.396723 0.207465 0)
(-0.361229 -0.218377 -2.91627e-20)
(-0.610791 -0.036247 9.40902e-21)
(-0.919335 0.534249 0)
(-1.03736 -0.267292 0)
(-0.171581 -0.179728 3.14691e-21)
(0.0231356 0.00176994 -1.80793e-20)
(-1.41249 -0.868591 -1.39053e-20)
(-1.61884 0.480633 0)
(-1.5209 0.606459 1.69352e-21)
(0.0671907 -0.038125 0)
(-1.37768 -0.756325 1.36166e-21)
(-1.50682 0.57084 -5.16136e-22)
(0.0615803 -0.0438732 0)
(-1.33282 -0.754055 -3.58411e-21)
(-0.629717 0.376656 6.03693e-21)
(-0.330496 -0.251038 -3.08832e-21)
(-0.802932 -0.123568 -2.55524e-22)
(-1.33931 -0.694559 4.22208e-22)
(0.0568515 -0.0302567 1.53733e-20)
(-1.40632 0.62255 0)
(-1.33494 0.690251 1.46555e-20)
(0.0348152 -0.0502251 9.74226e-21)
(-1.4359 -0.529649 0)
(0.0523919 -0.0394835 -2.27868e-21)
(-1.26881 -0.716612 -1.01299e-21)
(-1.39664 0.576884 0)
(-0.525152 0.131028 1.52634e-20)
(-0.16939 0.0110233 1.53757e-20)
(-0.513917 -0.196742 3.95813e-23)
(-0.984629 0.431394 -2.61735e-21)
(-1.02825 -0.415066 -2.43212e-21)
(-0.0106708 -0.04512 -1.08399e-20)
(-0.795682 -0.534847 1.9108e-20)
(-0.928857 0.129878 1.63303e-20)
(-0.310078 0.228801 0)
(0.0620466 -0.0318095 0)
(-1.42667 -0.819282 -1.86795e-21)
(-1.62047 0.552166 0)
(-1.19586 -0.706984 0)
(-1.27981 0.375004 0)
(-0.0427078 0.0711678 0)
(0.0344462 -0.0277613 0)
(-1.41788 0.815258 -3.8943e-21)
(-1.64052 -0.534593 3.33978e-21)
(-1.05993 0.465428 0)
(-1.09209 -0.456351 1.24101e-21)
(0.00854613 -0.0371177 1.05943e-20)
(-0.480563 0.198276 0)
(-0.208897 -0.10725 2.18277e-20)
(-0.571866 -0.130909 0)
(-1.4633 -0.802402 -8.1173e-21)
(-1.59523 0.58883 3.13094e-21)
(0.0718603 -0.0283192 0)
(0.078309 -0.0203573 -1.06218e-20)
(-1.44564 -0.650672 3.90694e-22)
(-1.41879 0.629485 4.70587e-22)
(-1.43392 0.743397 0)
(-1.41183 0.736574 2.76784e-21)
(0.0694673 -0.00629459 -5.66082e-21)
(0.067725 -0.00583471 -6.95465e-21)
(-1.57566 -0.629913 -1.23274e-21)
(-1.55283 -0.638182 1.01419e-21)
(-0.951368 0.294723 0)
(-0.922849 -0.492995 3.27034e-20)
(-0.0656918 0.0562514 1.15306e-20)
(-1.12124 -0.612627 2.19993e-20)
(-1.17103 0.360773 0)
(-0.0292185 0.0558293 -1.24825e-20)
(-0.661966 0.193894 -1.25462e-20)
(-0.656343 -0.294675 8.84348e-21)
(-0.107499 0.0243764 1.86036e-20)
(-1.41516 -0.782938 3.91915e-21)
(-1.56829 0.595232 2.42778e-21)
(-1.39307 -0.797338 -1.72457e-21)
(0.0696647 -0.0369455 0)
(-1.5843 0.567497 -2.33972e-21)
(0.0639716 -0.0403947 0)
(-1.21078 0.532902 0)
(-1.24148 -0.54211 0)
(0.0427687 -0.0254971 1.16444e-20)
(-1.58234 0.607943 4.54296e-21)
(-1.57089 0.60971 -8.1459e-21)
(-1.47846 -0.781296 2.56324e-21)
(-1.45831 -0.772703 -7.23335e-21)
(0.0770387 -0.0283974 1.55366e-20)
(0.0751451 -0.0313683 -4.51885e-24)
(-1.11982 0.33499 0)
(-1.07251 -0.609908 -2.079e-20)
(-0.0652596 0.0806573 1.61931e-20)
(-0.884398 0.325593 1.16201e-20)
(-0.951421 -0.427815 -1.47429e-20)
(-0.017053 -0.00764321 0)
(-1.41787 0.802716 0)
(0.0514008 -0.0104885 0)
(-1.63881 -0.568079 2.31445e-21)
(-0.967047 0.325758 8.55211e-21)
(-0.950487 -0.477841 -9.09724e-21)
(-0.0387638 0.0350808 -1.90946e-20)
(-0.740014 0.236008 5.01524e-21)
(-0.741768 -0.344101 -1.03835e-20)
(-0.0802748 0.0189153 1.07094e-20)
(-1.41126 0.76303 0)
(0.0647576 -0.00438025 0)
(-1.60574 -0.610931 -3.29147e-21)
(-1.08339 0.498974 0)
(-1.1396 -0.443877 2.50358e-21)
(0.00861809 -0.0525206 -1.1636e-20)
(-0.996738 -0.711912 0)
(-1.14611 0.17355 0)
(-0.322304 0.265095 -6.17715e-22)
(-0.79463 0.540226 -6.51306e-22)
(-0.99993 -0.136232 0)
(-0.399178 -0.337624 2.18297e-20)
(-1.31849 -0.858711 8.41809e-21)
(-0.0693639 0.0762178 0)
(-1.48414 0.375321 0)
(0.0157826 -0.0156696 -2.19262e-20)
(-0.901782 -0.473411 -3.42778e-21)
(-0.887239 0.460558 3.12061e-21)
(-1.01563 0.388429 0)
(-1.01344 -0.464545 9.02493e-21)
(-0.00194286 -0.00407219 -9.73031e-21)
(-1.4519 0.775972 7.76425e-21)
(0.063344 -0.0171177 2.9538e-20)
(-1.61658 -0.593512 0)
(-0.584763 -0.473615 -5.83074e-21)
(-1.01343 -0.0508175 -9.08059e-21)
(-0.693294 0.51161 -5.72892e-21)
(-1.10057 0.65674 0)
(0.0365785 0.000783486 -8.16594e-21)
(-1.30593 -0.548276 0)
(-0.261686 0.160774 1.14616e-20)
(-0.292397 0.188825 -1.17121e-20)
(-0.582346 -0.348306 0)
(-0.705648 0.0877153 1.06914e-20)
(-0.619501 -0.387174 -1.87295e-20)
(-0.751499 0.0813654 -8.54386e-21)
(-0.64691 0.16076 1.18112e-20)
(-0.613209 -0.289799 1.17867e-20)
(-0.140361 0.0548917 0)
(-0.376621 0.223977 1.02017e-20)
(-0.312019 0.185374 0)
(-0.472996 -0.302722 -1.04624e-20)
(-0.681656 0.00804794 9.57305e-21)
(-0.49856 -0.300963 1.05438e-20)
(-0.662731 0.0401583 5.68043e-23)
(-0.956117 0.366369 7.30693e-22)
(-0.884606 -0.412691 -6.48871e-21)
(-0.0394781 0.0100169 -1.31095e-20)
(-0.887931 0.306135 -1.9968e-20)
(-0.887363 -0.429721 1.70186e-22)
(-0.0496573 0.0272087 0)
(0.0597846 -0.0464366 0)
(-1.33071 -0.783452 0)
(-1.55467 0.553696 1.32033e-21)
(-0.69203 0.400148 -5.56575e-21)
(-0.831624 -0.160294 0)
(-0.267316 -0.215716 5.71349e-21)
(-1.56465 0.632385 -1.03699e-20)
(-1.50541 -0.763847 3.67815e-21)
(0.0834273 -0.0228534 -8.86561e-21)
(-1.27 0.492347 0)
(-1.32777 0.518604 8.76447e-21)
(-1.26665 -0.614837 -2.68003e-21)
(-1.31887 -0.641885 8.0277e-21)
(0.0464452 0.0018647 -1.27661e-20)
(0.0556952 -0.000704674 -1.17671e-20)
(-0.663257 0.36548 0)
(-0.790915 -0.170181 0)
(-0.236301 -0.191111 2.73089e-21)
(-0.998107 0.607853 6.33055e-21)
(-1.13224 -0.279612 0)
(-0.185585 -0.189302 6.86031e-21)
(-1.15685 0.461345 -4.80485e-21)
(-1.16678 -0.550138 0)
(0.031188 -0.0030867 0)
(-0.374177 0.120936 1.17438e-20)
(-0.483742 -0.070148 -5.79602e-21)
(-0.259355 -0.108251 5.92947e-21)
(-1.34241 0.479343 0)
(-1.303 -0.685124 0)
(0.0358279 0.0164224 -1.88942e-20)
(-0.481492 0.227886 0)
(-0.254905 -0.156666 3.20367e-21)
(-0.613872 -0.107138 0)
(-1.12103 0.363125 -1.11443e-20)
(-1.08061 -0.586325 -1.16578e-20)
(-0.0269387 0.0476854 -1.62542e-21)
(-0.989116 0.577313 6.43647e-21)
(-1.11006 -0.298574 0)
(-0.148604 -0.166796 1.41582e-20)
(-0.400565 0.155734 -1.16407e-20)
(-0.377717 0.157007 -5.15349e-21)
(-0.52586 -0.082821 5.70816e-21)
(-0.259362 -0.128897 -1.17492e-20)
(-0.541101 -0.0579543 0)
(-0.299306 -0.160596 -2.09014e-20)
(-0.340219 0.175485 -5.1407e-21)
(-0.402742 -0.237339 1.36417e-20)
(-0.309177 0.169999 3.30398e-21)
(-0.599599 -0.00216979 -1.2997e-20)
(-0.478695 -0.282325 -6.62443e-21)
(-0.635524 0.0342417 2.94221e-22)
(-0.792475 0.428345 6.08399e-21)
(-0.857551 0.447606 0)
(-0.893527 -0.242045 1.13604e-20)
(-0.939858 -0.283731 -8.87707e-21)
(-0.160513 -0.151305 -1.27201e-20)
(-0.11379 -0.122334 2.11489e-20)
(0.0240357 -0.052605 0)
(-1.50487 -0.519824 -3.53722e-21)
(-1.36762 0.743668 -8.2344e-21)
(-0.358352 0.28826 7.52619e-21)
(-1.07864 0.139907 1.03611e-20)
(-0.921928 -0.663234 -1.95676e-20)
(0.0419058 -0.0407401 -1.00144e-20)
(0.0566603 -0.035261 7.99828e-21)
(-1.53678 -0.554161 3.06285e-21)
(-1.51943 -0.576494 5.40139e-21)
(-1.40112 0.751603 2.07325e-20)
(-1.41281 0.726243 -1.07269e-20)
(-0.520951 0.381246 1.06127e-20)
(-0.656239 -0.487205 -9.35259e-21)
(-0.923821 0.0180743 2.47775e-21)
(-0.354543 0.0621947 1.99608e-20)
(-0.264604 -0.0542349 0)
(-0.406873 -0.0634035 -1.98688e-20)
(-1.36782 0.513374 -4.08876e-21)
(-1.33851 -0.680323 -9.07225e-21)
(0.0521475 0.00539759 0)
(-0.587468 0.320754 0)
(-0.278432 -0.212086 -2.60174e-21)
(-0.734629 -0.12525 -9.93673e-21)
(-1.03137 0.592159 0)
(-1.14778 -0.325725 0)
(-0.119085 -0.146383 -1.31712e-20)
(-1.30045 0.741349 -9.2957e-21)
(-1.29313 0.712744 0)
(-1.44841 -0.463353 2.08883e-21)
(-0.0209559 -0.0821638 -1.23581e-20)
(-1.42265 -0.474025 -5.6852e-21)
(-0.00536859 -0.073868 1.674e-20)
(-1.26293 0.535715 8.96348e-21)
(-1.28774 -0.575048 8.6801e-21)
(0.0541801 -0.0173644 6.94116e-21)