/*--------------------------------*- C++ -*----------------------------------*\
  =========                 |
  \\      /  F ield         | OpenFOAM: The Open Source CFD Toolbox
   \\    /   O peration     | Website:  https://openfoam.org
    \\  /    A nd           | Version:  6
     \\/     M anipulation  |
\*---------------------------------------------------------------------------*/
FoamFile
{
    version     2.0;
    format      ascii;
    class       volScalarField;
    location    "0";
    object      p;
}
// * * * * * * * * * * * * * * * * * * * * * * * * * * * * * * * * * * * * * //

dimensions      [0 2 -2 0 0 0 0];

internalField   nonuniform List<scalar> 
918
(
0.198301
0.970721
0.00869125
0.197934
-0.000629597
0.93944
-0.842456
0.377268
0.17674
-0.466111
-0.0351698
0.167764
0.790134
0.553954
-1.51622
0.00919974
0.336143
-0.721647
0.175782
-0.00110441
0.452372
0.182811
0.186049
0.17798
0.234968
0.529144
0.662204
0.00120717
-0.00219405
-0.00374886
0.0036205
-0.00245414
0.00280341
0.81248
0.858784
0.877482
0.145912
-0.00558029
-0.72108
-0.781373
-0.750948
-0.881498
0.363458
0.366687
-0.511399
0.376612
0.391538
0.163313
0.176032
0.176827
0.178086
0.177068
0.178405
0.171127
-0.479213
-0.507237
-0.436497
-0.403293
-0.0357974
-0.0615894
-0.098603
-0.0150732
-0.00768939
0.102231
0.165438
0.164078
0.172651
0.183255
0.896212
0.86829
0.89107
0.815573
0.833117
0.764326
0.736364
0.575891
0.598234
0.5362
0.525564
-1.98494
-2.96419
-0.92124
-0.637647
0.00059806
0.0113734
0.0132423
0.321252
0.322566
0.332959
0.344281
0.706614
-0.700468
-0.857922
0.175187
0.174256
0.18216
0.18366
0.179998
0.179418
0.00561218
0.0121436
-0.00858639
-0.00400792
-0.00653443
0.42951
0.425157
0.177223
0.174844
0.193161
0.217685
0.204973
-0.0616213
0.245201
0.263344
0.356651
0.523156
0.516005
0.526622
0.636622
0.603085
0.694048
0.718717
0.0133742
0.00381058
0.00262346
0.00391111
0.00215309
0.142072
0.136414
0.159405
0.149279
0.152185
-0.103387
-0.250209
0.0743297
0.0996667
-0.630838
-0.680524
-0.801535
-0.790732
-0.871273
0.199658
0.35871
0.357174
-0.530889
-0.447954
-0.584699
-0.387379
-0.451293
0.155838
0.161264
0.158087
0.172062
0.165615
0.168575
0.17993
0.17724
0.178709
0.185814
0.299806
0.122941
0.0498266
-0.601768
-0.530856
-0.584911
-0.369026
-0.31053
-0.0390866
-0.0522854
-0.0421566
-0.0112277
-0.258254
-0.13859
-0.198558
0.00559672
0.00516524
0.0943362
0.0839947
0.111437
0.117505
0.156338
0.158229
0.160926
0.159152
0.684299
0.708003
0.715511
0.691933
-3.96995
-6.68975
-0.280931
-0.115234
0.00272931
0.00267463
0.00181968
0.00305068
0.00263232
0.00082253
0.007002
0.010097
0.0133799
0.014097
0.309494
0.311853
0.64809
0.67575
0.681708
0.671978
0.164196
0.166163
0.171136
0.168083
0.011926
0.0161128
0.0140508
0.393622
0.40902
0.404869
-0.0997038
-0.186409
-0.0144294
0.0145978
0.301126
0.277398
0.297191
0.420228
0.458964
0.732191
0.75647
0.743625
0.759916
0.808351
0.828684
0.793341
0.122268
0.131555
0.126149
0.162907
0.16099
0.161857
0.156125
0.157581
0.155228
-0.383202
-0.757431
0.160767
0.167214
0.136924
0.144685
0.277417
0.355072
0.341229
0.347297
0.351098
-0.340425
-0.393383
0.0261379
0.00354875
0.0405278
0.0731226
0.0564503
0.660006
0.622809
0.670422
0.646398
0.60918
0.632752
-0.691179
-2.47418
-1.42505
0.294465
0.0888128
0.185382
0.0088779
-0.00167014
0.00786288
0.677336
0.712255
0.35352
0.530546
0.49935
0.490987
0.521504
0.576042
0.503839
0.541199
0.577442
0.558366
0.170197
0.158086
0.151607
0.436476
0.501017
-0.2201
-0.286864
-0.320763
-0.0736912
-0.040395
-0.0676193
0.678907
0.567195
0.635351
0.174895
0.175349
0.0118124
0.0196621
0.178894
0.179113
0.00540627
0.00627853
0.191427
-1.27618
-0.202611
0.167826
0.158564
0.174696
-0.454537
-0.0214154
-0.069682
0.0383871
0.0741644
0.165442
0.112493
0.0790229
0.00475669
0.0149924
-0.00214791
-0.519845
0.172508
0.170997
0.174279
0.175304
0.175949
0.00588956
0.00783456
0.00555032
0.00079216
0.00237358
-0.00132755
0.141247
0.157209
-0.512185
0.174284
0.176474
0.176202
0.16973
0.175238
0.173484
0.012519
0.00723652
0.00566383
-0.115266
0.0101881
0.407651
0.509625
0.33842
0.156186
-0.137281
0.328073
0.389624
0.299628
0.451529
0.345096
0.357095
-0.141688
-0.283386
-0.144616
-0.200777
0.165667
0.164597
0.156441
0.154148
0.170105
0.168149
0.172349
0.169578
0.172259
0.17355
-0.489008
-0.421006
-0.443775
-0.484024
-0.00579477
0.254667
-0.165489
0.0234203
-0.109402
-0.0389983
-0.0182057
-0.1174
-0.140649
-0.0988914
0.0484167
0.0713055
-0.00932088
0.0678042
0.0145378
-0.0699669
0.0194299
-0.0104191
0.159675
0.15724
0.165612
0.172676
0.120325
0.122298
0.0947715
0.110784
0.0984624
0.0480162
0.0753667
0.0528641
0.00612581
0.006329
0.0050952
0.0192183
0.0169039
0.00779302
0.00817807
0.0133529
0.00727686
0.00697608
0.00192555
0.00978682
-0.48515
-0.608412
0.638374
0.599984
-0.153863
0.16171
0.167933
0.164561
0.16961
0.17239
0.172923
0.170927
0.167516
0.157605
0.159674
0.155882
0.156051
-0.457503
-0.562914
-0.393899
-0.460354
-0.195144
0.284236
0.0164672
-0.0325422
-0.0463502
0.165991
0.371639
0.324145
0.441426
0.43558
-0.729589
-0.306046
-0.652092
-0.104228
-0.147296
0.426767
0.474422
0.495201
0.447483
0.397714
-0.385974
0.175587
-0.379049
-0.33764
-0.15643
-0.253637
0.390744
0.325239
0.330487
0.349232
0.37299
0.336549
0.317403
0.313534
0.342595
0.347373
0.159972
-0.0835734
-0.113803
-0.162365
0.314039
0.192774
0.244497
0.163137
0.160615
0.163453
0.161703
0.146174
0.151883
0.148433
0.152539
0.156059
0.165298
0.165409
0.160934
0.162886
-0.410555
-0.383943
-0.463728
-0.475022
-0.472484
-0.533243
-0.432702
-0.313439
-0.456624
-0.0443214
0.00568092
-0.292694
-0.422705
-0.388033
-0.356956
-0.135338
-0.100926
-0.465052
-0.0904888
-0.314811
-0.352053
-0.0738228
-0.0151933
-0.106735
-0.154848
-0.240746
-0.1434
-0.0354166
-0.138142
-0.125715
0.0107193
-0.00800804
-0.0121092
0.00381309
-0.320517
-0.293222
-0.256121
-0.468952
0.0133972
0.0166203
0.0182236
0.0185208
0.0252435
0.0272745
0.15516
0.154229
0.15604
0.167856
0.179931
0.194525
0.16415
0.13971
0.131733
0.133985
0.109079
0.11739
0.112433
0.126181
0.145308
0.152449
0.150094
0.152555
0.137973
0.138759
0.12664
0.131037
0.107658
0.0916358
0.0846133
0.00972821
0.00752277
0.00908268
0.00822182
0.00807328
0.00867599
0.0286906
0.0232867
0.0268574
0.0214534
0.0140426
0.0137479
0.0107828
-0.406786
-0.347818
-0.521396
-0.56179
-0.624305
0.551992
0.662173
0.484212
0.253555
0.257748
0.482003
0.579857
0.27167
0.447543
0.468504
0.176873
0.446765
0.166443
0.16566
0.163841
0.162745
0.163859
-0.359409
-0.264762
-0.240241
-0.193747
-0.0703259
0.0422794
-0.0525396
-0.179807
-0.0444485
-0.0163803
0.279836
0.293304
0.237553
0.263577
0.265175
0.085851
0.161574
0.207675
0.156858
0.220462
0.251427
0.200042
0.243381
0.170017
0.126359
0.120874
0.0692094
0.104704
0.0849607
0.0590205
0.155964
0.136507
0.145636
0.139619
0.155695
0.18686
0.183789
0.201293
0.217742
0.143369
0.0991805
0.113711
0.138228
0.10085
0.114777
0.132011
-0.164006
-0.253315
-0.110455
-0.465403
-0.339617
-0.321357
-0.359368
-0.404351
-0.0908894
-0.766823
-0.699776
-1.38644
0.114537
0.518721
0.348588
0.360766
0.369278
0.347178
0.35702
0.381405
0.388057
0.304301
0.314134
0.320568
0.277813
0.309981
0.31719
0.322949
0.146915
0.070176
0.0588964
0.0093574
-0.122631
-0.0872917
0.0892234
0.0291289
-0.0358957
-0.0358419
0.122691
0.00659422
0.0745154
0.121328
0.069001
0.00619234
0.212396
0.27376
0.258793
0.229366
0.147972
0.165213
0.189578
0.22892
0.249945
0.280253
0.153353
0.158761
0.15947
0.156953
0.155359
0.157517
0.157224
0.160166
0.160923
0.163504
0.162852
-0.212464
-0.268094
-0.34776
-0.265969
-0.63811
-0.609552
-0.519484
-0.520041
-0.388622
-0.491798
-0.57987
-0.484614
-0.38531
-0.350484
-0.355822
-0.331149
-0.280747
-0.386747
-0.0577012
0.144832
0.185597
0.0463752
-0.101382
-0.0681597
0.0136506
-0.283195
-0.114882
-0.126325
-0.164789
-0.31116
-0.0297252
-0.0265751
-0.029999
-0.0179423
-0.0539797
-0.0189353
0.00959957
0.00513789
-0.00144541
0.00568539
0.0104511
0.14258
0.136074
0.133956
0.129093
0.129009
0.13968
0.144832
0.146694
0.151356
0.153103
0.145223
0.150376
0.152632
0.0207126
0.0146017
0.0190357
0.00685708
0.0103755
0.0130124
0.00924524
-0.250019
-0.298368
-0.258245
-0.340334
-0.463038
-0.404389
0.116479
0.108045
0.13965
0.321756
0.174302
0.0888459
0.172213
0.27565
-0.104606
0.103677
-0.0662152
0.524654
0.411362
0.552468
0.192284
-0.112112
0.0335953
0.0537178
-0.103072
0.00408124
-0.0111643
-0.128156
-0.0899003
-0.0728353
0.00539432
-0.0941667
-0.11738
-0.360337
-0.188876
-0.0634605
-0.0851337
0.0530365
0.114745
-0.105069
-0.179255
-0.234364
0.273287
0.290154
0.302883
0.272944
0.296607
0.224679
0.218247
0.235507
0.246184
0.237187
-1.03693
-0.650894
-1.80475
-1.1902
-0.750928
0.139997
0.123072
0.372673
0.285359
0.358219
0.343723
0.288548
0.256666
0.268931
0.3031
0.0046726
0.114299
0.0752757
0.0974721
0.0295854
-0.0489593
0.24179
0.237981
0.266732
0.288735
0.264787
0.29067
0.151482
0.150401
0.151178
0.148309
0.146654
0.148268
-0.55869
-0.55722
-0.512872
-0.504686
-0.54009
-0.561723
0.0259312
0.00526525
0.00541927
0.00862226
0.0282299
0.028176
-0.208723
-0.262483
-0.328725
-0.315381
-0.35949
-0.412468
-0.428687
-0.336819
-0.259376
-0.277595
0.0352467
0.310862
0.137837
0.315384
0.116541
0.212122
0.133822
0.11514
0.151893
0.0190429
0.094447
-0.333413
-0.562386
-0.594407
0.422775
0.385867
0.181527
-0.0701435
-0.19806
0.095628
0.174114
0.140228
0.176103
0.220582
0.217112
-0.375682
-0.283628
-0.196816
0.0971885
-0.0923224
-0.0919135
-0.0857006
0.0500595
0.024785
)
;

boundaryField
{
    wall-4
    {
        type            zeroGradient;
    }
    velocity-inlet-5
    {
        type            zeroGradient;
    }
    velocity-inlet-6
    {
        type            zeroGradient;
    }
    pressure-outlet-7
    {
        type            fixedValue;
        value           uniform 0;
    }
    wall-8
    {
        type            zeroGradient;
    }
    frontAndBackPlanes
    {
        type            empty;
    }
}

