/*--------------------------------*- C++ -*----------------------------------*\
  =========                 |
  \\      /  F ield         | OpenFOAM: The Open Source CFD Toolbox
   \\    /   O peration     | Website:  https://openfoam.org
    \\  /    A nd           | Version:  6
     \\/     M anipulation  |
\*---------------------------------------------------------------------------*/
FoamFile
{
    version     2.0;
    format      ascii;
    class       volScalarField;
    location    "0";
    object      p;
}
// * * * * * * * * * * * * * * * * * * * * * * * * * * * * * * * * * * * * * //

dimensions      [0 2 -2 0 0 0 0];

internalField   nonuniform List<scalar> 
10000
(
0
9.17088e-07
1.38632e-06
1.05778e-06
-3.53577e-07
-3.06637e-06
-7.22901e-06
-1.29172e-05
-2.01286e-05
-2.87842e-05
-3.87357e-05
-4.97793e-05
-6.16718e-05
-7.41481e-05
-8.69384e-05
-9.97824e-05
-0.000112442
-0.000124713
-0.000136424
-0.000147417
-0.000157564
-0.000166791
-0.000175064
-0.000182374
-0.000188732
-0.000194168
-0.000198723
-0.000202449
-0.000205402
-0.000207644
-0.000209236
-0.000210242
-0.000210722
-0.000210736
-0.00021034
-0.000209587
-0.000208525
-0.0002072
-0.000205654
-0.000203923
-0.000202042
-0.000200041
-0.000197948
-0.000195786
-0.000193577
-0.000191339
-0.00018909
-0.000186844
-0.000184614
-0.00018241
-0.000180241
-0.000178117
-0.000176043
-0.000174025
-0.00017207
-0.000170179
-0.000168358
-0.000166608
-0.000164932
-0.000163333
-0.000161811
-0.000160368
-0.000159006
-0.000157726
-0.00015653
-0.000155418
-0.000154394
-0.000153458
-0.000152613
-0.00015186
-0.000151205
-0.000150651
-0.000150206
-0.000149876
-0.000149674
-0.000149612
-0.000149708
-0.000149985
-0.000150468
-0.000151195
-0.000152207
-0.000153559
-0.000155316
-0.000157557
-0.000160376
-0.000163879
-0.000168187
-0.000173431
-0.000179745
-0.000187258
-0.000196081
-0.000206286
-0.000217891
-0.000230824
-0.000244811
-0.000259318
-0.000273433
-0.000285732
-0.000293896
-0.000295465
-0.00983997
-0.00983872
-0.00983808
-0.00983824
-0.00983943
-0.00984185
-0.00984566
-0.00985092
-0.00985763
-0.00986574
-0.0098751
-0.0098855
-0.00989673
-0.00990852
-0.00992062
-0.00993277
-0.00994476
-0.00995636
-0.00996744
-0.00997787
-0.00998749
-0.00999622
-0.010004
-0.0100109
-0.0100169
-0.010022
-0.0100262
-0.0100297
-0.0100324
-0.0100344
-0.0100359
-0.0100367
-0.0100371
-0.010037
-0.0100365
-0.0100357
-0.0100346
-0.0100332
-0.0100317
-0.0100299
-0.010028
-0.010026
-0.010024
-0.0100218
-0.0100196
-0.0100174
-0.0100152
-0.0100129
-0.0100107
-0.0100085
-0.0100064
-0.0100042
-0.0100022
-0.0100002
-0.00999821
-0.00999632
-0.0099945
-0.00999275
-0.00999107
-0.00998946
-0.00998793
-0.00998648
-0.00998511
-0.00998382
-0.00998262
-0.0099815
-0.00998046
-0.00997951
-0.00997865
-0.00997789
-0.00997722
-0.00997665
-0.00997619
-0.00997584
-0.00997562
-0.00997554
-0.00997561
-0.00997586
-0.0099763
-0.00997698
-0.00997793
-0.00997919
-0.00998082
-0.00998289
-0.00998547
-0.00998863
-0.00999248
-0.0099971
-0.0100026
-0.010009
-0.0100163
-0.0100246
-0.0100337
-0.0100435
-0.0100535
-0.0100634
-0.0100724
-0.0100793
-0.0100826
-0.0100806
-0.0196794
-0.0196778
-0.0196768
-0.0196767
-0.0196775
-0.0196796
-0.0196831
-0.019688
-0.0196943
-0.019702
-0.0197109
-0.0197209
-0.0197316
-0.0197429
-0.0197545
-0.0197662
-0.0197777
-0.0197887
-0.0197993
-0.0198092
-0.0198183
-0.0198266
-0.0198339
-0.0198404
-0.0198459
-0.0198507
-0.0198546
-0.0198577
-0.0198601
-0.0198619
-0.0198631
-0.0198638
-0.019864
-0.0198637
-0.0198631
-0.0198622
-0.019861
-0.0198596
-0.0198579
-0.0198561
-0.0198542
-0.0198522
-0.0198501
-0.0198479
-0.0198457
-0.0198435
-0.0198412
-0.019839
-0.0198368
-0.0198346
-0.0198324
-0.0198303
-0.0198283
-0.0198262
-0.0198243
-0.0198224
-0.0198206
-0.0198188
-0.0198171
-0.0198155
-0.019814
-0.0198125
-0.0198111
-0.0198098
-0.0198086
-0.0198075
-0.0198064
-0.0198055
-0.0198046
-0.0198038
-0.0198031
-0.0198025
-0.019802
-0.0198017
-0.0198014
-0.0198013
-0.0198013
-0.0198015
-0.0198019
-0.0198025
-0.0198033
-0.0198045
-0.0198059
-0.0198078
-0.0198101
-0.0198129
-0.0198162
-0.0198202
-0.0198248
-0.0198302
-0.0198361
-0.0198427
-0.0198496
-0.0198567
-0.0198635
-0.0198698
-0.0198747
-0.0198779
-0.019878
-0.0198741
-0.0295182
-0.0295161
-0.0295148
-0.0295144
-0.0295149
-0.0295167
-0.0295199
-0.0295245
-0.0295305
-0.029538
-0.0295466
-0.0295563
-0.0295668
-0.0295778
-0.0295891
-0.0296004
-0.0296114
-0.0296221
-0.0296322
-0.0296415
-0.0296502
-0.029658
-0.0296649
-0.0296709
-0.029676
-0.0296803
-0.0296838
-0.0296866
-0.0296886
-0.0296901
-0.029691
-0.0296914
-0.0296913
-0.0296909
-0.0296901
-0.029689
-0.0296877
-0.0296861
-0.0296844
-0.0296825
-0.0296805
-0.0296784
-0.0296763
-0.029674
-0.0296718
-0.0296696
-0.0296673
-0.029665
-0.0296628
-0.0296606
-0.0296585
-0.0296563
-0.0296543
-0.0296522
-0.0296503
-0.0296484
-0.0296465
-0.0296448
-0.0296431
-0.0296415
-0.0296399
-0.0296384
-0.029637
-0.0296357
-0.0296345
-0.0296333
-0.0296323
-0.0296313
-0.0296304
-0.0296296
-0.0296289
-0.0296283
-0.0296277
-0.0296273
-0.029627
-0.0296269
-0.0296269
-0.029627
-0.0296273
-0.0296278
-0.0296285
-0.0296294
-0.0296307
-0.0296323
-0.0296343
-0.0296366
-0.0296395
-0.0296429
-0.0296467
-0.0296511
-0.0296558
-0.0296609
-0.029666
-0.0296709
-0.0296752
-0.0296787
-0.0296809
-0.0296814
-0.0296796
-0.0296748
-0.0393562
-0.0393539
-0.0393523
-0.0393516
-0.0393519
-0.0393534
-0.0393564
-0.0393608
-0.0393667
-0.039374
-0.0393825
-0.0393921
-0.0394024
-0.0394132
-0.0394243
-0.0394353
-0.039446
-0.0394563
-0.039466
-0.0394749
-0.039483
-0.0394904
-0.0394968
-0.0395023
-0.039507
-0.0395108
-0.0395138
-0.0395162
-0.0395178
-0.0395189
-0.0395195
-0.0395195
-0.0395192
-0.0395185
-0.0395174
-0.0395161
-0.0395146
-0.0395129
-0.039511
-0.039509
-0.0395069
-0.0395047
-0.0395024
-0.0395002
-0.0394979
-0.0394956
-0.0394933
-0.039491
-0.0394888
-0.0394865
-0.0394844
-0.0394822
-0.0394801
-0.0394781
-0.0394761
-0.0394742
-0.0394724
-0.0394706
-0.0394689
-0.0394673
-0.0394657
-0.0394642
-0.0394628
-0.0394615
-0.0394602
-0.0394591
-0.039458
-0.039457
-0.0394561
-0.0394552
-0.0394545
-0.0394539
-0.0394533
-0.0394529
-0.0394525
-0.0394523
-0.0394522
-0.0394522
-0.0394524
-0.0394528
-0.0394534
-0.0394542
-0.0394552
-0.0394565
-0.0394582
-0.0394602
-0.0394626
-0.0394653
-0.0394685
-0.0394719
-0.0394757
-0.0394794
-0.0394831
-0.0394863
-0.0394887
-0.0394902
-0.0394904
-0.0394892
-0.0394862
-0.0394811
-0.0491936
-0.0491911
-0.0491893
-0.0491884
-0.0491885
-0.0491898
-0.0491927
-0.049197
-0.0492029
-0.0492101
-0.0492187
-0.0492282
-0.0492384
-0.0492491
-0.04926
-0.0492708
-0.0492813
-0.0492913
-0.0493006
-0.0493091
-0.0493168
-0.0493236
-0.0493295
-0.0493345
-0.0493386
-0.049342
-0.0493445
-0.0493464
-0.0493476
-0.0493483
-0.0493484
-0.0493481
-0.0493474
-0.0493464
-0.049345
-0.0493435
-0.0493417
-0.0493398
-0.0493377
-0.0493355
-0.0493333
-0.049331
-0.0493286
-0.0493263
-0.0493239
-0.0493216
-0.0493192
-0.0493169
-0.0493146
-0.0493123
-0.0493101
-0.049308
-0.0493059
-0.0493038
-0.0493018
-0.0492999
-0.0492981
-0.0492963
-0.0492946
-0.0492929
-0.0492914
-0.0492899
-0.0492884
-0.0492871
-0.0492858
-0.0492846
-0.0492835
-0.0492825
-0.0492816
-0.0492807
-0.0492799
-0.0492793
-0.0492787
-0.0492782
-0.0492778
-0.0492775
-0.0492773
-0.0492773
-0.0492774
-0.0492776
-0.0492781
-0.0492787
-0.0492795
-0.0492806
-0.0492819
-0.0492835
-0.0492854
-0.0492876
-0.0492901
-0.0492929
-0.0492957
-0.0492984
-0.0493009
-0.0493028
-0.0493038
-0.0493038
-0.0493027
-0.0493004
-0.0492969
-0.0492918
-0.0590304
-0.0590277
-0.0590258
-0.0590247
-0.0590247
-0.059026
-0.0590288
-0.0590332
-0.0590391
-0.0590464
-0.059055
-0.0590645
-0.0590748
-0.0590854
-0.0590962
-0.0591068
-0.059117
-0.0591267
-0.0591357
-0.0591438
-0.059151
-0.0591573
-0.0591627
-0.0591672
-0.0591708
-0.0591736
-0.0591757
-0.0591771
-0.0591778
-0.059178
-0.0591777
-0.059177
-0.0591759
-0.0591745
-0.0591729
-0.059171
-0.059169
-0.0591668
-0.0591645
-0.0591622
-0.0591597
-0.0591573
-0.0591548
-0.0591523
-0.0591499
-0.0591474
-0.059145
-0.0591426
-0.0591403
-0.059138
-0.0591358
-0.0591336
-0.0591314
-0.0591294
-0.0591274
-0.0591254
-0.0591236
-0.0591218
-0.05912
-0.0591184
-0.0591168
-0.0591153
-0.0591139
-0.0591125
-0.0591112
-0.05911
-0.0591089
-0.0591078
-0.0591069
-0.059106
-0.0591052
-0.0591045
-0.0591038
-0.0591033
-0.0591028
-0.0591025
-0.0591022
-0.0591021
-0.0591021
-0.0591022
-0.0591025
-0.0591029
-0.0591035
-0.0591043
-0.0591054
-0.0591066
-0.0591081
-0.0591098
-0.0591118
-0.0591138
-0.0591159
-0.0591178
-0.0591194
-0.0591203
-0.0591203
-0.0591193
-0.0591173
-0.0591144
-0.0591107
-0.0591059
-0.0688666
-0.0688639
-0.0688619
-0.0688607
-0.0688606
-0.0688619
-0.0688647
-0.0688692
-0.0688752
-0.0688827
-0.0688914
-0.068901
-0.0689113
-0.0689219
-0.0689326
-0.068943
-0.0689531
-0.0689624
-0.068971
-0.0689788
-0.0689855
-0.0689914
-0.0689962
-0.0690002
-0.0690032
-0.0690055
-0.0690071
-0.0690079
-0.0690082
-0.0690079
-0.0690072
-0.069006
-0.0690046
-0.0690028
-0.0690008
-0.0689986
-0.0689963
-0.0689939
-0.0689913
-0.0689888
-0.0689861
-0.0689835
-0.0689809
-0.0689783
-0.0689757
-0.0689732
-0.0689707
-0.0689682
-0.0689658
-0.0689635
-0.0689612
-0.068959
-0.0689568
-0.0689547
-0.0689527
-0.0689507
-0.0689489
-0.068947
-0.0689453
-0.0689436
-0.068942
-0.0689405
-0.0689391
-0.0689377
-0.0689364
-0.0689352
-0.068934
-0.0689329
-0.0689319
-0.068931
-0.0689302
-0.0689294
-0.0689288
-0.0689282
-0.0689277
-0.0689272
-0.0689269
-0.0689267
-0.0689266
-0.0689266
-0.0689267
-0.0689269
-0.0689273
-0.0689279
-0.0689286
-0.0689295
-0.0689306
-0.0689319
-0.0689334
-0.0689349
-0.0689363
-0.0689375
-0.0689383
-0.0689385
-0.0689378
-0.0689362
-0.0689336
-0.0689305
-0.0689268
-0.0689223
-0.0787023
-0.0786995
-0.0786974
-0.0786962
-0.0786962
-0.0786975
-0.0787005
-0.0787051
-0.0787113
-0.078719
-0.0787278
-0.0787376
-0.0787479
-0.0787585
-0.0787691
-0.0787793
-0.0787891
-0.0787981
-0.0788063
-0.0788136
-0.07882
-0.0788253
-0.0788296
-0.078833
-0.0788356
-0.0788373
-0.0788384
-0.0788387
-0.0788385
-0.0788377
-0.0788366
-0.078835
-0.0788331
-0.078831
-0.0788286
-0.0788261
-0.0788235
-0.0788208
-0.078818
-0.0788152
-0.0788124
-0.0788096
-0.0788068
-0.0788041
-0.0788014
-0.0787987
-0.0787961
-0.0787936
-0.0787911
-0.0787887
-0.0787864
-0.0787841
-0.0787819
-0.0787798
-0.0787778
-0.0787758
-0.0787739
-0.0787721
-0.0787703
-0.0787686
-0.078767
-0.0787655
-0.078764
-0.0787626
-0.0787613
-0.0787601
-0.0787589
-0.0787578
-0.0787568
-0.0787558
-0.0787549
-0.0787542
-0.0787534
-0.0787528
-0.0787522
-0.0787517
-0.0787513
-0.078751
-0.0787508
-0.0787506
-0.0787506
-0.0787507
-0.0787509
-0.0787512
-0.0787517
-0.0787523
-0.078753
-0.0787539
-0.0787549
-0.0787559
-0.0787568
-0.0787575
-0.0787577
-0.0787573
-0.0787561
-0.0787541
-0.0787513
-0.078748
-0.0787445
-0.0787404
-0.0885375
-0.0885347
-0.0885325
-0.0885314
-0.0885314
-0.0885329
-0.088536
-0.0885408
-0.0885473
-0.0885551
-0.0885642
-0.088574
-0.0885844
-0.088595
-0.0886054
-0.0886154
-0.0886249
-0.0886336
-0.0886414
-0.0886482
-0.0886541
-0.0886589
-0.0886627
-0.0886656
-0.0886676
-0.0886688
-0.0886693
-0.0886692
-0.0886685
-0.0886673
-0.0886656
-0.0886637
-0.0886614
-0.0886589
-0.0886562
-0.0886534
-0.0886505
-0.0886475
-0.0886445
-0.0886415
-0.0886385
-0.0886355
-0.0886325
-0.0886296
-0.0886268
-0.088624
-0.0886213
-0.0886187
-0.0886162
-0.0886137
-0.0886113
-0.088609
-0.0886068
-0.0886046
-0.0886026
-0.0886006
-0.0885987
-0.0885968
-0.088595
-0.0885933
-0.0885917
-0.0885902
-0.0885887
-0.0885873
-0.088586
-0.0885847
-0.0885835
-0.0885824
-0.0885813
-0.0885803
-0.0885794
-0.0885786
-0.0885778
-0.0885771
-0.0885765
-0.0885759
-0.0885754
-0.088575
-0.0885747
-0.0885744
-0.0885742
-0.0885741
-0.0885742
-0.0885743
-0.0885745
-0.0885748
-0.0885753
-0.0885758
-0.0885764
-0.088577
-0.0885774
-0.0885776
-0.0885774
-0.0885766
-0.0885751
-0.0885728
-0.0885699
-0.0885667
-0.0885634
-0.0885597
-0.0983721
-0.0983693
-0.0983672
-0.098366
-0.0983661
-0.0983678
-0.0983712
-0.0983763
-0.098383
-0.0983911
-0.0984003
-0.0984103
-0.0984206
-0.0984311
-0.0984414
-0.0984512
-0.0984603
-0.0984685
-0.0984759
-0.0984822
-0.0984875
-0.0984918
-0.0984951
-0.0984975
-0.0984989
-0.0984996
-0.0984996
-0.098499
-0.0984979
-0.0984962
-0.0984942
-0.0984919
-0.0984892
-0.0984864
-0.0984834
-0.0984803
-0.0984771
-0.0984739
-0.0984707
-0.0984674
-0.0984642
-0.098461
-0.0984579
-0.0984549
-0.0984519
-0.098449
-0.0984462
-0.0984435
-0.0984409
-0.0984384
-0.0984359
-0.0984336
-0.0984313
-0.0984291
-0.0984271
-0.098425
-0.0984231
-0.0984212
-0.0984195
-0.0984178
-0.0984161
-0.0984146
-0.0984131
-0.0984117
-0.0984103
-0.098409
-0.0984078
-0.0984067
-0.0984056
-0.0984046
-0.0984036
-0.0984027
-0.0984019
-0.0984012
-0.0984005
-0.0983998
-0.0983993
-0.0983988
-0.0983983
-0.0983979
-0.0983976
-0.0983974
-0.0983972
-0.0983971
-0.0983971
-0.0983972
-0.0983973
-0.0983976
-0.0983978
-0.098398
-0.0983981
-0.098398
-0.0983974
-0.0983963
-0.0983946
-0.0983922
-0.0983893
-0.0983862
-0.0983831
-0.0983798
-0.108206
-0.108203
-0.108201
-0.1082
-0.1082
-0.108202
-0.108206
-0.108211
-0.108218
-0.108227
-0.108236
-0.108246
-0.108256
-0.108267
-0.108277
-0.108286
-0.108295
-0.108303
-0.10831
-0.108315
-0.10832
-0.108324
-0.108327
-0.108328
-0.108329
-0.10833
-0.108329
-0.108328
-0.108327
-0.108324
-0.108322
-0.108319
-0.108316
-0.108313
-0.10831
-0.108307
-0.108303
-0.1083
-0.108296
-0.108293
-0.10829
-0.108286
-0.108283
-0.10828
-0.108277
-0.108274
-0.108271
-0.108268
-0.108265
-0.108263
-0.10826
-0.108258
-0.108256
-0.108253
-0.108251
-0.108249
-0.108247
-0.108245
-0.108244
-0.108242
-0.10824
-0.108239
-0.108237
-0.108236
-0.108234
-0.108233
-0.108232
-0.108231
-0.10823
-0.108228
-0.108228
-0.108227
-0.108226
-0.108225
-0.108224
-0.108223
-0.108223
-0.108222
-0.108222
-0.108221
-0.108221
-0.10822
-0.10822
-0.10822
-0.10822
-0.108219
-0.108219
-0.108219
-0.108219
-0.108219
-0.108219
-0.108218
-0.108218
-0.108216
-0.108214
-0.108212
-0.108209
-0.108206
-0.108203
-0.1082
-0.11804
-0.118037
-0.118035
-0.118034
-0.118034
-0.118036
-0.11804
-0.118046
-0.118053
-0.118062
-0.118071
-0.118081
-0.118092
-0.118102
-0.118112
-0.118121
-0.118129
-0.118136
-0.118142
-0.118148
-0.118152
-0.118155
-0.118157
-0.118158
-0.118159
-0.118159
-0.118158
-0.118156
-0.118154
-0.118152
-0.118149
-0.118146
-0.118143
-0.11814
-0.118136
-0.118132
-0.118129
-0.118125
-0.118121
-0.118118
-0.118114
-0.118111
-0.118108
-0.118104
-0.118101
-0.118098
-0.118095
-0.118092
-0.118089
-0.118087
-0.118084
-0.118082
-0.118079
-0.118077
-0.118075
-0.118073
-0.118071
-0.118069
-0.118067
-0.118066
-0.118064
-0.118062
-0.118061
-0.118059
-0.118058
-0.118057
-0.118055
-0.118054
-0.118053
-0.118052
-0.118051
-0.11805
-0.118049
-0.118048
-0.118048
-0.118047
-0.118046
-0.118045
-0.118045
-0.118044
-0.118044
-0.118043
-0.118043
-0.118042
-0.118042
-0.118042
-0.118041
-0.118041
-0.118041
-0.11804
-0.11804
-0.118039
-0.118038
-0.118037
-0.118035
-0.118032
-0.11803
-0.118027
-0.118024
-0.118021
-0.127872
-0.12787
-0.127868
-0.127867
-0.127867
-0.12787
-0.127874
-0.12788
-0.127888
-0.127896
-0.127906
-0.127916
-0.127926
-0.127936
-0.127945
-0.127954
-0.127962
-0.127968
-0.127974
-0.127979
-0.127982
-0.127985
-0.127986
-0.127987
-0.127987
-0.127986
-0.127985
-0.127983
-0.127981
-0.127978
-0.127975
-0.127972
-0.127968
-0.127965
-0.127961
-0.127957
-0.127954
-0.12795
-0.127946
-0.127942
-0.127939
-0.127935
-0.127932
-0.127928
-0.127925
-0.127922
-0.127919
-0.127916
-0.127913
-0.12791
-0.127908
-0.127905
-0.127903
-0.127901
-0.127898
-0.127896
-0.127894
-0.127893
-0.127891
-0.127889
-0.127887
-0.127886
-0.127884
-0.127883
-0.127881
-0.12788
-0.127879
-0.127878
-0.127876
-0.127875
-0.127874
-0.127873
-0.127872
-0.127871
-0.127871
-0.12787
-0.127869
-0.127868
-0.127868
-0.127867
-0.127866
-0.127866
-0.127865
-0.127865
-0.127864
-0.127863
-0.127863
-0.127863
-0.127862
-0.127861
-0.127861
-0.12786
-0.127859
-0.127857
-0.127855
-0.127853
-0.12785
-0.127848
-0.127845
-0.127843
-0.137705
-0.137702
-0.1377
-0.137699
-0.1377
-0.137703
-0.137707
-0.137714
-0.137721
-0.13773
-0.13774
-0.13775
-0.13776
-0.137769
-0.137778
-0.137786
-0.137793
-0.137799
-0.137804
-0.137808
-0.137811
-0.137813
-0.137814
-0.137815
-0.137814
-0.137813
-0.137811
-0.137809
-0.137806
-0.137803
-0.1378
-0.137797
-0.137793
-0.137789
-0.137785
-0.137782
-0.137778
-0.137774
-0.13777
-0.137766
-0.137762
-0.137759
-0.137755
-0.137752
-0.137748
-0.137745
-0.137742
-0.137739
-0.137736
-0.137734
-0.137731
-0.137728
-0.137726
-0.137724
-0.137722
-0.137719
-0.137717
-0.137716
-0.137714
-0.137712
-0.13771
-0.137709
-0.137707
-0.137706
-0.137704
-0.137703
-0.137702
-0.137701
-0.137699
-0.137698
-0.137697
-0.137696
-0.137695
-0.137694
-0.137693
-0.137693
-0.137692
-0.137691
-0.13769
-0.137689
-0.137689
-0.137688
-0.137687
-0.137687
-0.137686
-0.137685
-0.137685
-0.137684
-0.137683
-0.137683
-0.137682
-0.137681
-0.137679
-0.137678
-0.137676
-0.137673
-0.137671
-0.137669
-0.137666
-0.137664
-0.147536
-0.147533
-0.147531
-0.147531
-0.147532
-0.147535
-0.14754
-0.147546
-0.147554
-0.147563
-0.147573
-0.147583
-0.147592
-0.147601
-0.14761
-0.147617
-0.147624
-0.147629
-0.147633
-0.147637
-0.147639
-0.14764
-0.147641
-0.147641
-0.14764
-0.147638
-0.147636
-0.147634
-0.147631
-0.147628
-0.147624
-0.147621
-0.147617
-0.147613
-0.147609
-0.147605
-0.147601
-0.147597
-0.147593
-0.147589
-0.147585
-0.147582
-0.147578
-0.147575
-0.147571
-0.147568
-0.147565
-0.147562
-0.147559
-0.147556
-0.147554
-0.147551
-0.147549
-0.147546
-0.147544
-0.147542
-0.14754
-0.147538
-0.147537
-0.147535
-0.147533
-0.147532
-0.14753
-0.147529
-0.147527
-0.147526
-0.147525
-0.147523
-0.147522
-0.147521
-0.14752
-0.147519
-0.147518
-0.147517
-0.147516
-0.147515
-0.147514
-0.147513
-0.147513
-0.147512
-0.147511
-0.14751
-0.147509
-0.147509
-0.147508
-0.147507
-0.147506
-0.147506
-0.147505
-0.147504
-0.147503
-0.147502
-0.1475
-0.147498
-0.147496
-0.147494
-0.147492
-0.14749
-0.147488
-0.147485
-0.157366
-0.157363
-0.157362
-0.157361
-0.157363
-0.157366
-0.157371
-0.157378
-0.157386
-0.157395
-0.157405
-0.157414
-0.157423
-0.157432
-0.15744
-0.157447
-0.157452
-0.157457
-0.157461
-0.157463
-0.157465
-0.157466
-0.157466
-0.157465
-0.157464
-0.157462
-0.15746
-0.157457
-0.157454
-0.157451
-0.157447
-0.157443
-0.157439
-0.157436
-0.157432
-0.157427
-0.157423
-0.157419
-0.157416
-0.157412
-0.157408
-0.157404
-0.157401
-0.157397
-0.157394
-0.15739
-0.157387
-0.157384
-0.157381
-0.157379
-0.157376
-0.157374
-0.157371
-0.157369
-0.157367
-0.157365
-0.157363
-0.157361
-0.157359
-0.157357
-0.157356
-0.157354
-0.157352
-0.157351
-0.15735
-0.157348
-0.157347
-0.157346
-0.157345
-0.157343
-0.157342
-0.157341
-0.15734
-0.157339
-0.157338
-0.157337
-0.157336
-0.157336
-0.157335
-0.157334
-0.157333
-0.157332
-0.157331
-0.157331
-0.15733
-0.157329
-0.157328
-0.157327
-0.157326
-0.157325
-0.157324
-0.157323
-0.157321
-0.157319
-0.157317
-0.157315
-0.157313
-0.157311
-0.157309
-0.157307
-0.167196
-0.167193
-0.167191
-0.167191
-0.167193
-0.167196
-0.167202
-0.167209
-0.167217
-0.167226
-0.167235
-0.167244
-0.167253
-0.167261
-0.167268
-0.167274
-0.16728
-0.167284
-0.167287
-0.167289
-0.16729
-0.16729
-0.16729
-0.167289
-0.167287
-0.167285
-0.167282
-0.167279
-0.167276
-0.167273
-0.167269
-0.167265
-0.167261
-0.167257
-0.167253
-0.167249
-0.167245
-0.167241
-0.167237
-0.167233
-0.16723
-0.167226
-0.167222
-0.167219
-0.167216
-0.167212
-0.167209
-0.167206
-0.167203
-0.167201
-0.167198
-0.167196
-0.167193
-0.167191
-0.167189
-0.167187
-0.167185
-0.167183
-0.167181
-0.167179
-0.167178
-0.167176
-0.167175
-0.167173
-0.167172
-0.16717
-0.167169
-0.167168
-0.167167
-0.167166
-0.167164
-0.167163
-0.167162
-0.167161
-0.16716
-0.167159
-0.167159
-0.167158
-0.167157
-0.167156
-0.167155
-0.167154
-0.167153
-0.167152
-0.167151
-0.167151
-0.16715
-0.167149
-0.167148
-0.167146
-0.167145
-0.167144
-0.167142
-0.16714
-0.167138
-0.167136
-0.167134
-0.167132
-0.16713
-0.167129
-0.177024
-0.177021
-0.17702
-0.17702
-0.177022
-0.177026
-0.177031
-0.177038
-0.177047
-0.177055
-0.177064
-0.177073
-0.177081
-0.177089
-0.177095
-0.177101
-0.177105
-0.177108
-0.177111
-0.177112
-0.177113
-0.177113
-0.177112
-0.17711
-0.177108
-0.177106
-0.177103
-0.1771
-0.177097
-0.177093
-0.17709
-0.177086
-0.177082
-0.177078
-0.177074
-0.17707
-0.177066
-0.177062
-0.177058
-0.177055
-0.177051
-0.177047
-0.177044
-0.17704
-0.177037
-0.177034
-0.177031
-0.177028
-0.177025
-0.177022
-0.17702
-0.177017
-0.177015
-0.177013
-0.17701
-0.177008
-0.177006
-0.177005
-0.177003
-0.177001
-0.176999
-0.176998
-0.176996
-0.176995
-0.176994
-0.176992
-0.176991
-0.17699
-0.176989
-0.176987
-0.176986
-0.176985
-0.176984
-0.176983
-0.176982
-0.176981
-0.17698
-0.176979
-0.176978
-0.176978
-0.176977
-0.176976
-0.176975
-0.176974
-0.176973
-0.176972
-0.176971
-0.17697
-0.176969
-0.176968
-0.176966
-0.176965
-0.176963
-0.176962
-0.17696
-0.176958
-0.176955
-0.176954
-0.176952
-0.17695
-0.186852
-0.186849
-0.186848
-0.186848
-0.18685
-0.186854
-0.18686
-0.186867
-0.186875
-0.186883
-0.186892
-0.1869
-0.186908
-0.186915
-0.186921
-0.186925
-0.186929
-0.186932
-0.186933
-0.186934
-0.186934
-0.186934
-0.186932
-0.186931
-0.186929
-0.186926
-0.186923
-0.18692
-0.186917
-0.186913
-0.18691
-0.186906
-0.186902
-0.186898
-0.186894
-0.18689
-0.186887
-0.186883
-0.186879
-0.186875
-0.186872
-0.186868
-0.186865
-0.186861
-0.186858
-0.186855
-0.186852
-0.186849
-0.186846
-0.186844
-0.186841
-0.186839
-0.186836
-0.186834
-0.186832
-0.18683
-0.186828
-0.186826
-0.186824
-0.186823
-0.186821
-0.186819
-0.186818
-0.186817
-0.186815
-0.186814
-0.186813
-0.186811
-0.18681
-0.186809
-0.186808
-0.186807
-0.186806
-0.186805
-0.186804
-0.186803
-0.186802
-0.186801
-0.1868
-0.186799
-0.186798
-0.186797
-0.186796
-0.186795
-0.186795
-0.186794
-0.186793
-0.186791
-0.18679
-0.186789
-0.186788
-0.186786
-0.186785
-0.186783
-0.186781
-0.186779
-0.186777
-0.186775
-0.186773
-0.186772
-0.196678
-0.196676
-0.196674
-0.196675
-0.196677
-0.196681
-0.196687
-0.196694
-0.196702
-0.19671
-0.196718
-0.196726
-0.196733
-0.196739
-0.196744
-0.196748
-0.196751
-0.196753
-0.196754
-0.196755
-0.196754
-0.196753
-0.196752
-0.19675
-0.196748
-0.196745
-0.196742
-0.196739
-0.196736
-0.196732
-0.196729
-0.196725
-0.196721
-0.196717
-0.196714
-0.19671
-0.196706
-0.196702
-0.196699
-0.196695
-0.196692
-0.196688
-0.196685
-0.196682
-0.196679
-0.196675
-0.196673
-0.19667
-0.196667
-0.196664
-0.196662
-0.196659
-0.196657
-0.196655
-0.196653
-0.196651
-0.196649
-0.196647
-0.196645
-0.196644
-0.196642
-0.196641
-0.196639
-0.196638
-0.196636
-0.196635
-0.196634
-0.196633
-0.196632
-0.19663
-0.196629
-0.196628
-0.196627
-0.196626
-0.196625
-0.196624
-0.196623
-0.196622
-0.196622
-0.196621
-0.19662
-0.196619
-0.196618
-0.196617
-0.196616
-0.196615
-0.196614
-0.196613
-0.196612
-0.19661
-0.196609
-0.196607
-0.196606
-0.196604
-0.196602
-0.1966
-0.196598
-0.196596
-0.196595
-0.196593
-0.206504
-0.206501
-0.2065
-0.206501
-0.206503
-0.206507
-0.206513
-0.20652
-0.206528
-0.206535
-0.206543
-0.20655
-0.206556
-0.206562
-0.206566
-0.20657
-0.206572
-0.206573
-0.206574
-0.206574
-0.206573
-0.206572
-0.20657
-0.206568
-0.206566
-0.206563
-0.20656
-0.206557
-0.206554
-0.20655
-0.206547
-0.206543
-0.20654
-0.206536
-0.206532
-0.206529
-0.206525
-0.206522
-0.206518
-0.206515
-0.206511
-0.206508
-0.206505
-0.206502
-0.206499
-0.206496
-0.206493
-0.20649
-0.206487
-0.206485
-0.206482
-0.20648
-0.206478
-0.206476
-0.206474
-0.206472
-0.20647
-0.206468
-0.206466
-0.206465
-0.206463
-0.206462
-0.20646
-0.206459
-0.206458
-0.206456
-0.206455
-0.206454
-0.206453
-0.206452
-0.206451
-0.206449
-0.206448
-0.206447
-0.206446
-0.206445
-0.206445
-0.206444
-0.206443
-0.206442
-0.206441
-0.20644
-0.206439
-0.206438
-0.206437
-0.206436
-0.206435
-0.206434
-0.206433
-0.206432
-0.20643
-0.206429
-0.206427
-0.206425
-0.206423
-0.206421
-0.206419
-0.206417
-0.206416
-0.206414
-0.216328
-0.216326
-0.216325
-0.216326
-0.216328
-0.216332
-0.216338
-0.216345
-0.216352
-0.216359
-0.216366
-0.216373
-0.216378
-0.216383
-0.216387
-0.216389
-0.216391
-0.216392
-0.216392
-0.216392
-0.216391
-0.216389
-0.216387
-0.216385
-0.216383
-0.21638
-0.216377
-0.216374
-0.216371
-0.216368
-0.216364
-0.216361
-0.216358
-0.216354
-0.216351
-0.216347
-0.216344
-0.21634
-0.216337
-0.216334
-0.216331
-0.216327
-0.216324
-0.216321
-0.216318
-0.216316
-0.216313
-0.21631
-0.216308
-0.216305
-0.216303
-0.216301
-0.216298
-0.216296
-0.216294
-0.216292
-0.216291
-0.216289
-0.216287
-0.216286
-0.216284
-0.216282
-0.216281
-0.21628
-0.216278
-0.216277
-0.216276
-0.216275
-0.216274
-0.216272
-0.216271
-0.21627
-0.216269
-0.216268
-0.216267
-0.216266
-0.216266
-0.216265
-0.216264
-0.216263
-0.216262
-0.216261
-0.21626
-0.216259
-0.216258
-0.216257
-0.216256
-0.216255
-0.216254
-0.216253
-0.216251
-0.21625
-0.216248
-0.216246
-0.216244
-0.216242
-0.21624
-0.216238
-0.216237
-0.216236
-0.226151
-0.226149
-0.226148
-0.226149
-0.226152
-0.226156
-0.226161
-0.226168
-0.226175
-0.226182
-0.226188
-0.226194
-0.226199
-0.226203
-0.226206
-0.226208
-0.226209
-0.22621
-0.226209
-0.226209
-0.226207
-0.226206
-0.226204
-0.226202
-0.226199
-0.226197
-0.226194
-0.226191
-0.226188
-0.226185
-0.226181
-0.226178
-0.226175
-0.226172
-0.226168
-0.226165
-0.226162
-0.226159
-0.226156
-0.226152
-0.226149
-0.226146
-0.226143
-0.226141
-0.226138
-0.226135
-0.226132
-0.22613
-0.226127
-0.226125
-0.226123
-0.226121
-0.226118
-0.226116
-0.226115
-0.226113
-0.226111
-0.226109
-0.226108
-0.226106
-0.226104
-0.226103
-0.226102
-0.2261
-0.226099
-0.226098
-0.226097
-0.226095
-0.226094
-0.226093
-0.226092
-0.226091
-0.22609
-0.226089
-0.226088
-0.226087
-0.226086
-0.226085
-0.226085
-0.226084
-0.226083
-0.226082
-0.226081
-0.22608
-0.226079
-0.226078
-0.226077
-0.226076
-0.226075
-0.226074
-0.226072
-0.226071
-0.226069
-0.226067
-0.226065
-0.226063
-0.226061
-0.226059
-0.226058
-0.226057
-0.235973
-0.235971
-0.235971
-0.235972
-0.235974
-0.235978
-0.235984
-0.23599
-0.235996
-0.236002
-0.236008
-0.236013
-0.236018
-0.236021
-0.236023
-0.236025
-0.236026
-0.236026
-0.236025
-0.236024
-0.236023
-0.236021
-0.236019
-0.236017
-0.236015
-0.236012
-0.23601
-0.236007
-0.236004
-0.236001
-0.235998
-0.235995
-0.235992
-0.235989
-0.235986
-0.235983
-0.23598
-0.235977
-0.235974
-0.235971
-0.235968
-0.235965
-0.235962
-0.235959
-0.235957
-0.235954
-0.235952
-0.235949
-0.235947
-0.235945
-0.235942
-0.23594
-0.235938
-0.235936
-0.235935
-0.235933
-0.235931
-0.235929
-0.235928
-0.235926
-0.235925
-0.235923
-0.235922
-0.235921
-0.235919
-0.235918
-0.235917
-0.235916
-0.235915
-0.235914
-0.235913
-0.235912
-0.235911
-0.23591
-0.235909
-0.235908
-0.235907
-0.235906
-0.235905
-0.235904
-0.235903
-0.235903
-0.235902
-0.235901
-0.2359
-0.235899
-0.235898
-0.235897
-0.235896
-0.235895
-0.235893
-0.235891
-0.23589
-0.235888
-0.235886
-0.235884
-0.235882
-0.23588
-0.235879
-0.235878
-0.245794
-0.245793
-0.245792
-0.245793
-0.245796
-0.2458
-0.245805
-0.24581
-0.245816
-0.245822
-0.245827
-0.245832
-0.245835
-0.245838
-0.24584
-0.245841
-0.245841
-0.245841
-0.245841
-0.245839
-0.245838
-0.245836
-0.245834
-0.245832
-0.24583
-0.245828
-0.245825
-0.245822
-0.24582
-0.245817
-0.245814
-0.245811
-0.245808
-0.245806
-0.245803
-0.2458
-0.245797
-0.245794
-0.245791
-0.245789
-0.245786
-0.245783
-0.245781
-0.245778
-0.245776
-0.245773
-0.245771
-0.245768
-0.245766
-0.245764
-0.245762
-0.24576
-0.245758
-0.245756
-0.245754
-0.245753
-0.245751
-0.245749
-0.245748
-0.245746
-0.245745
-0.245743
-0.245742
-0.245741
-0.24574
-0.245738
-0.245737
-0.245736
-0.245735
-0.245734
-0.245733
-0.245732
-0.245731
-0.24573
-0.245729
-0.245728
-0.245727
-0.245726
-0.245726
-0.245725
-0.245724
-0.245723
-0.245722
-0.245721
-0.245721
-0.24572
-0.245719
-0.245718
-0.245716
-0.245715
-0.245714
-0.245712
-0.24571
-0.245708
-0.245706
-0.245704
-0.245703
-0.245701
-0.2457
-0.245699
-0.255614
-0.255613
-0.255612
-0.255613
-0.255616
-0.25562
-0.255624
-0.25563
-0.255635
-0.25564
-0.255645
-0.255649
-0.255652
-0.255654
-0.255656
-0.255656
-0.255656
-0.255656
-0.255655
-0.255654
-0.255652
-0.255651
-0.255649
-0.255647
-0.255645
-0.255642
-0.25564
-0.255638
-0.255635
-0.255633
-0.25563
-0.255627
-0.255625
-0.255622
-0.255619
-0.255617
-0.255614
-0.255611
-0.255609
-0.255606
-0.255604
-0.255601
-0.255599
-0.255596
-0.255594
-0.255592
-0.255589
-0.255587
-0.255585
-0.255583
-0.255581
-0.255579
-0.255577
-0.255576
-0.255574
-0.255572
-0.25557
-0.255569
-0.255567
-0.255566
-0.255565
-0.255563
-0.255562
-0.255561
-0.255559
-0.255558
-0.255557
-0.255556
-0.255555
-0.255554
-0.255553
-0.255552
-0.255551
-0.25555
-0.255549
-0.255548
-0.255547
-0.255546
-0.255546
-0.255545
-0.255544
-0.255543
-0.255543
-0.255542
-0.255541
-0.25554
-0.255539
-0.255538
-0.255537
-0.255536
-0.255534
-0.255532
-0.255531
-0.255529
-0.255527
-0.255525
-0.255523
-0.255522
-0.25552
-0.255519
-0.265433
-0.265432
-0.265432
-0.265433
-0.265435
-0.265439
-0.265443
-0.265448
-0.265453
-0.265458
-0.265462
-0.265465
-0.265467
-0.265469
-0.26547
-0.26547
-0.26547
-0.26547
-0.265469
-0.265467
-0.265466
-0.265464
-0.265463
-0.265461
-0.265459
-0.265457
-0.265455
-0.265453
-0.26545
-0.265448
-0.265445
-0.265443
-0.265441
-0.265438
-0.265436
-0.265433
-0.265431
-0.265428
-0.265426
-0.265424
-0.265421
-0.265419
-0.265417
-0.265414
-0.265412
-0.26541
-0.265408
-0.265406
-0.265404
-0.265402
-0.2654
-0.265398
-0.265396
-0.265395
-0.265393
-0.265391
-0.26539
-0.265388
-0.265387
-0.265385
-0.265384
-0.265383
-0.265381
-0.26538
-0.265379
-0.265378
-0.265377
-0.265376
-0.265375
-0.265374
-0.265372
-0.265372
-0.265371
-0.26537
-0.265369
-0.265368
-0.265367
-0.265366
-0.265365
-0.265365
-0.265364
-0.265363
-0.265363
-0.265362
-0.265361
-0.26536
-0.265359
-0.265358
-0.265357
-0.265356
-0.265354
-0.265353
-0.265351
-0.265349
-0.265347
-0.265345
-0.265343
-0.265342
-0.265341
-0.26534
-0.275251
-0.27525
-0.27525
-0.275251
-0.275253
-0.275257
-0.275261
-0.275265
-0.27527
-0.275274
-0.275277
-0.27528
-0.275282
-0.275283
-0.275284
-0.275284
-0.275284
-0.275283
-0.275282
-0.275281
-0.27528
-0.275278
-0.275276
-0.275275
-0.275273
-0.275271
-0.275269