/*--------------------------------*- C++ -*----------------------------------*\
  =========                 |
  \\      /  F ield         | OpenFOAM: The Open Source CFD Toolbox
   \\    /   O peration     | Website:  https://openfoam.org
    \\  /    A nd           | Version:  6
     \\/     M anipulation  |
\*---------------------------------------------------------------------------*/
FoamFile
{
    version     2.0;
    format      ascii;
    class       volVectorField;
    location    "23484";
    object      U;
}
// * * * * * * * * * * * * * * * * * * * * * * * * * * * * * * * * * * * * * //

dimensions      [0 1 -1 0 0 0 0];

internalField   nonuniform List<vector> 
115600
(
(0.00653181 -0.00184551 0)
(0.00745841 -3.61211e-05 0)
(0.00796519 1.46166e-06 0)
(0.00828591 1.33442e-06 0)
(0.00852954 6.48414e-07 0)
(0.00868706 1.00265e-06 0)
(0.00875867 1.18666e-06 0)
(0.0087706 1.12437e-06 0)
(0.00874988 1.0168e-06 0)
(0.00870523 9.72905e-07 0)
(0.00864564 9.16809e-07 0)
(0.00857754 8.51779e-07 0)
(0.00850549 7.83148e-07 0)
(0.00843267 7.15254e-07 0)
(0.00836112 6.51998e-07 0)
(0.00829209 5.93408e-07 0)
(0.00822639 5.3916e-07 0)
(0.00816452 4.88805e-07 0)
(0.00810679 4.41873e-07 0)
(0.00805336 3.97922e-07 0)
(0.00800433 3.56558e-07 0)
(0.00795972 3.17443e-07 0)
(0.00791951 2.80303e-07 0)
(0.00788365 2.4491e-07 0)
(0.00785208 2.11038e-07 0)
(0.00782471 1.78482e-07 0)
(0.00780145 1.47085e-07 0)
(0.00778221 1.16667e-07 0)
(0.0077669 8.70398e-08 0)
(0.00775544 5.7951e-08 0)
(0.00774777 2.93849e-08 0)
(0.00774376 -4.30397e-09 0)
(0.00774427 -4.42547e-08 0)
(0.00774936 -8.10308e-08 0)
(0.00775854 -1.12437e-07 0)
(0.00777161 -1.42341e-07 0)
(0.00778845 -1.72632e-07 0)
(0.00780905 -2.04257e-07 0)
(0.00783351 -2.37969e-07 0)
(0.00786201 -2.74671e-07 0)
(0.00789484 -3.15367e-07 0)
(0.00793239 -3.61635e-07 0)
(0.00797524 -4.15468e-07 0)
(0.00802414 -4.79097e-07 0)
(0.00808011 -5.55511e-07 0)
(0.0081445 -6.49461e-07 0)
(0.00821909 -7.66137e-07 0)
(0.00830647 -9.18526e-07 0)
(0.00840973 -1.11084e-06 0)
(0.00853513 -1.40249e-06 0)
(0.00868673 -1.73621e-06 0)
(0.00888899 -2.54304e-06 0)
(0.00912981 -3.07608e-06 0)
(0.00957629 -7.72045e-06 0)
(0.0100128 -1.44418e-05 0)
(0.0127673 -0.000262906 0)
(0.0197127 -0.000382164 0)
(0.0218172 -7.11495e-05 0)
(0.0235909 -4.57823e-05 0)
(0.0246874 -3.06943e-05 0)
(0.0254283 -2.04559e-05 0)
(0.0258895 -9.59993e-06 0)
(0.0261138 -1.24724e-06 0)
(0.0261678 3.83011e-06 0)
(0.0261195 6.70814e-06 0)
(0.026002 8.55939e-06 0)
(0.0258404 9.57776e-06 0)
(0.0256527 9.98827e-06 0)
(0.0254521 9.98082e-06 0)
(0.0252476 9.70549e-06 0)
(0.0250454 9.27413e-06 0)
(0.0248494 8.75304e-06 0)
(0.0246622 8.18256e-06 0)
(0.0244854 7.5878e-06 0)
(0.0243201 6.98454e-06 0)
(0.024167 6.38277e-06 0)
(0.0240264 5.78887e-06 0)
(0.0238984 5.2068e-06 0)
(0.0237831 4.63905e-06 0)
(0.0236804 4.08699e-06 0)
(0.0235899 3.55124e-06 0)
(0.0235117 3.03187e-06 0)
(0.0234452 2.5286e-06 0)
(0.0233904 2.04077e-06 0)
(0.0233468 1.56727e-06 0)
(0.0233143 1.1063e-06 0)
(0.0232925 6.55853e-07 0)
(0.0232812 1.63772e-07 0)
(0.0232825 -3.80912e-07 0)
(0.0232962 -8.98392e-07 0)
(0.0233212 -1.36517e-06 0)
(0.0233568 -1.80663e-06 0)
(0.0234026 -2.2387e-06 0)
(0.0234585 -2.67298e-06 0)
(0.0235244 -3.11939e-06 0)
(0.0236009 -3.58838e-06 0)
(0.0236884 -4.09188e-06 0)
(0.0237877 -4.64614e-06 0)
(0.0239002 -5.27158e-06 0)
(0.0240274 -5.99245e-06 0)
(0.0241717 -6.84097e-06 0)
(0.0243363 -7.86199e-06 0)
(0.0245251 -9.11762e-06 0)
(0.0247441 -1.07045e-05 0)
(0.0250008 -1.27583e-05 0)
(0.0253086 -1.55562e-05 0)
(0.0256799 -1.94494e-05 0)
(0.0261627 -2.57098e-05 0)
(0.0267572 -3.58227e-05 0)
(0.0277653 -6.09721e-05 0)
(0.0289676 -0.000137518 0)
(0.0335709 -0.000495526 0)
(0.0310013 -0.000463721 0)
(0.0342343 -0.000240013 0)
(0.0369922 -0.00016415 0)
(0.038747 -0.000110883 0)
(0.0399409 -7.44028e-05 0)
(0.0407424 -4.31424e-05 0)
(0.0412312 -1.91301e-05 0)
(0.0414854 -2.7512e-06 0)
(0.0415675 7.75116e-06 0)
(0.0415397 1.46399e-05 0)
(0.0414343 1.9044e-05 0)
(0.041276 2.16108e-05 0)
(0.0410836 2.28345e-05 0)
(0.0408711 2.31244e-05 0)
(0.0406487 2.27942e-05 0)
(0.0404236 2.20499e-05 0)
(0.0402013 2.10285e-05 0)
(0.0399856 1.98227e-05 0)
(0.0397795 1.84966e-05 0)
(0.039585 1.70959e-05 0)
(0.0394037 1.5653e-05 0)
(0.0392367 1.41916e-05 0)
(0.0390846 1.2729e-05 0)
(0.0389479 1.12775e-05 0)
(0.0388269 9.84617e-06 0)
(0.0387216 8.44101e-06 0)
(0.0386319 7.06609e-06 0)
(0.0385578 5.72362e-06 0)
(0.0384989 4.41392e-06 0)
(0.0384551 3.13493e-06 0)
(0.038426 1.87874e-06 0)
(0.0384117 5.36168e-07 0)
(0.0384138 -9.1366e-07 0)
(0.0384322 -2.3059e-06 0)
(0.0384657 -3.58515e-06 0)
(0.0385138 -4.79872e-06 0)
(0.0385759 -5.98189e-06 0)
(0.0386519 -7.16263e-06 0)
(0.0387418 -8.36649e-06 0)
(0.038846 -9.62043e-06 0)
(0.0389652 -1.09553e-05 0)
(0.0391004 -1.2412e-05 0)
(0.0392533 -1.40415e-05 0)
(0.0394259 -1.59051e-05 0)
(0.0396212 -1.80835e-05 0)
(0.0398431 -2.06867e-05 0)
(0.0400969 -2.38679e-05 0)
(0.0403899 -2.78569e-05 0)
(0.0407317 -3.29925e-05 0)
(0.0411383 -3.98925e-05 0)
(0.0416266 -4.95108e-05 0)
(0.042249 -6.44272e-05 0)
(0.0430204 -8.91256e-05 0)
(0.0442399 -0.000143845 0)
(0.0457345 -0.00029071 0)
(0.0500426 -0.000708948 0)
(0.0409267 -0.000925101 0)
(0.0441067 -0.000460149 0)
(0.0470783 -0.00031245 0)
(0.0490546 -0.000213804 0)
(0.0504511 -0.000146188 0)
(0.0514573 -9.19306e-05 0)
(0.0521591 -5.04213e-05 0)
(0.0526269 -2.07045e-05 0)
(0.0529108 -4.1456e-07 0)
(0.0530605 1.32329e-05 0)
(0.0531169 2.2398e-05 0)
(0.053104 2.83491e-05 0)
(0.0530405 3.18924e-05 0)
(0.0529409 3.36877e-05 0)
(0.0528164 3.42538e-05 0)
(0.0526757 3.39459e-05 0)
(0.0525254 3.30108e-05 0)
(0.0523709 3.16236e-05 0)
(0.0522164 2.99111e-05 0)
(0.0520651 2.79673e-05 0)
(0.0519198 2.58628e-05 0)
(0.0517825 2.36513e-05 0)
(0.0516547 2.13739e-05 0)
(0.0515377 1.90619e-05 0)
(0.0514324 1.67394e-05 0)
(0.0513395 1.44243e-05 0)
(0.0512594 1.21301e-05 0)
(0.0511925 9.86585e-06 0)
(0.0511389 7.63681e-06 0)
(0.0510988 5.44301e-06 0)
(0.0510722 3.26999e-06 0)
(0.0510595 9.73403e-07 0)
(0.0510614 -1.46767e-06 0)
(0.0510779 -3.83552e-06 0)
(0.0511088 -6.05459e-06 0)
(0.0511539 -8.18378e-06 0)
(0.0512132 -1.02728e-05 0)
(0.0512868 -1.23649e-05 0)
(0.051375 -1.45022e-05 0)
(0.0514785 -1.67305e-05 0)
(0.0515982 -1.91029e-05 0)
(0.0517355 -2.16886e-05 0)
(0.0518922 -2.45747e-05 0)
(0.0520709 -2.78663e-05 0)
(0.0522748 -3.17006e-05 0)
(0.0525082 -3.62636e-05 0)
(0.0527768 -4.18131e-05 0)
(0.0530883 -4.87282e-05 0)
(0.0534529 -5.75764e-05 0)
(0.0538866 -6.9339e-05 0)
(0.054407 -8.56367e-05 0)
(0.0550625 -0.000110316 0)
(0.0558714 -0.000150973 0)
(0.0570849 -0.00023463 0)
(0.0585246 -0.000439541 0)
(0.062033 -0.000882383 0)
(0.0502168 -0.00129848 0)
(0.0525605 -0.000652442 0)
(0.055158 -0.000455747 0)
(0.0569749 -0.000318283 0)
(0.0583121 -0.000222673 0)
(0.0593239 -0.000147916 0)
(0.0600791 -9.0673e-05 0)
(0.0606329 -4.86341e-05 0)
(0.0610263 -1.86483e-05 0)
(0.0612904 2.28118e-06 0)
(0.0614598 1.67292e-05 0)
(0.0615593 2.66342e-05 0)
(0.0616047 3.31687e-05 0)
(0.0616085 3.7188e-05 0)
(0.0615807 3.93722e-05 0)
(0.0615294 4.01986e-05 0)
(0.061461 4.0008e-05 0)
(0.0613808 3.90499e-05 0)
(0.0612933 3.75108e-05 0)
(0.0612019 3.55333e-05 0)
(0.0611097 3.32276e-05 0)
(0.061019 3.068e-05 0)
(0.0609318 2.79586e-05 0)
(0.0608497 2.51171e-05 0)
(0.060774 2.21977e-05 0)
(0.0607058 1.92336e-05 0)
(0.0606459 1.62505e-05 0)
(0.060595 1.32672e-05 0)
(0.0605537 1.0296e-05 0)
(0.0605225 7.34121e-06 0)
(0.0605018 4.38419e-06 0)
(0.0604922 1.27521e-06 0)
(0.060494 -1.99714e-06 0)
(0.0605075 -5.20393e-06 0)
(0.0605329 -8.26803e-06 0)
(0.0605708 -1.1251e-05 0)
(0.0606215 -1.421e-05 0)
(0.0606855 -1.71994e-05 0)
(0.0607636 -2.02755e-05 0)
(0.0608567 -2.35017e-05 0)
(0.060966 -2.69526e-05 0)
(0.0610933 -3.07255e-05 0)
(0.0612405 -3.49431e-05 0)
(0.0614104 -3.97547e-05 0)
(0.0616066 -4.53543e-05 0)
(0.0618334 -5.2003e-05 0)
(0.0620968 -6.00619e-05 0)
(0.0624046 -7.00549e-05 0)
(0.0627666 -8.27685e-05 0)
(0.0631984 -9.95187e-05 0)
(0.0637171 -0.000122541 0)
(0.0643662 -0.000156723 0)
(0.065163 -0.000212256 0)
(0.0663164 -0.000319969 0)
(0.0676357 -0.000567443 0)
(0.0705148 -0.00102294 0)
(0.0592111 -0.00154304 0)
(0.060458 -0.000799357 0)
(0.0623604 -0.000576446 0)
(0.0637677 -0.000411345 0)
(0.0648546 -0.000293871 0)
(0.0657174 -0.000202656 0)
(0.0663935 -0.000132435 0)
(0.0669178 -8.00219e-05 0)
(0.0673178 -4.16074e-05 0)
(0.0676151 -1.3917e-05 0)
(0.0678275 5.66845e-06 0)
(0.0679782 1.94347e-05 0)
(0.0680803 2.90062e-05 0)
(0.0681433 3.54202e-05 0)
(0.068175 3.94744e-05 0)
(0.0681818 4.1738e-05 0)
(0.0681693 4.26262e-05 0)
(0.068142 4.24485e-05 0)
(0.0681038 4.14412e-05 0)
(0.068058 3.97879e-05 0)
(0.0680072 3.7633e-05 0)
(0.067954 3.50912e-05 0)
(0.0679001 3.22544e-05 0)
(0.0678473 2.91962e-05 0)
(0.0677971 2.59757e-05 0)
(0.0677505 2.264e-05 0)
(0.0677087 1.92261e-05 0)
(0.0676726 1.57621e-05 0)
(0.0676429 1.22674e-05 0)
(0.0676203 8.7501e-06 0)
(0.0676055 5.19007e-06 0)
(0.0675991 1.44519e-06 0)
(0.0676017 -2.48308e-06 0)
(0.0676135 -6.37321e-06 0)
(0.0676352 -1.01572e-05 0)
(0.0676675 -1.38974e-05 0)
(0.067711 -1.76561e-05 0)
(0.0677667 -2.14965e-05 0)
(0.0678355 -2.54877e-05 0)
(0.0679185 -2.97091e-05 0)
(0.0680173 -3.42556e-05 0)
(0.0681336 -3.9252e-05 0)
(0.0682698 -4.48557e-05 0)
(0.0684286 -5.12596e-05 0)
(0.0686137 -5.8714e-05 0)
(0.0688295 -6.7554e-05 0)
(0.069082 -7.82419e-05 0)
(0.0693787 -9.14412e-05 0)
(0.0697294 -0.000108149 0)
(0.0701488 -0.000129989 0)
(0.070653 -0.000159771 0)
(0.0712815 -0.000203215 0)
(0.0720491 -0.000272774 0)
(0.0731334 -0.000400893 0)
(0.0743354 -0.000681776 0)
(0.0767688 -0.00114378 0)
(0.0678917 -0.00168025 0)
(0.0681175 -0.000890693 0)
(0.0692125 -0.000659283 0)
(0.0700715 -0.000480674 0)
(0.0707823 -0.000350023 0)
(0.0713865 -0.000248055 0)
(0.0718866 -0.000168761 0)
(0.0722941 -0.000108742 0)
(0.0726213 -6.39434e-05 0)
(0.0728789 -3.08643e-05 0)
(0.0730766 -6.8921e-06 0)
(0.0732239 1.02492e-05 0)
(0.0733347 2.24769e-05 0)
(0.0734142 3.10773e-05 0)
(0.0734677 3.6914e-05 0)
(0.0734999 4.0614e-05 0)
(0.0735146 4.26431e-05 0)
(0.0735154 4.33545e-05 0)
(0.0735053 4.30214e-05 0)
(0.0734867 4.18582e-05 0)
(0.073462 4.00355e-05 0)
(0.073433 3.76902e-05 0)
(0.0734016 3.49329e-05 0)
(0.0733691 3.1853e-05 0)
(0.0733369 2.85231e-05 0)
(0.0733061 2.50016e-05 0)
(0.0732778 2.13349e-05 0)
(0.0732528 1.75587e-05 0)
(0.073232 1.36983e-05 0)
(0.0732162 9.76496e-06 0)
(0.0732061 5.73848e-06 0)
(0.0732025 1.48736e-06 0)
(0.0732059 -2.97429e-06 0)
(0.0732166 -7.43724e-06 0)
(0.0732356 -1.18464e-05 0)
(0.0732636 -1.62655e-05 0)
(0.0733014 -2.0762e-05 0)
(0.0733502 -2.54076e-05 0)
(0.0734111 -3.02833e-05 0)
(0.0734853 -3.54839e-05 0)
(0.0735744 -4.11243e-05 0)
(0.0736804 -4.73556e-05 0)
(0.0738057 -5.43694e-05 0)
(0.073953 -6.24015e-05 0)
(0.0741261 -7.17575e-05 0)
(0.0743295 -8.28451e-05 0)
(0.0745687 -9.62255e-05 0)
(0.0748513 -0.000112697 0)
(0.0751867 -0.000133459 0)
(0.0755887 -0.000160418 0)
(0.0760726 -0.000196924 0)
(0.0766743 -0.000249367 0)
(0.077406 -0.000332198 0)
(0.0784222 -0.000478001 0)
(0.0795193 -0.000786093 0)
(0.0816305 -0.00125087 0)
(0.0760948 -0.00173448 0)
(0.0755554 -0.000926775 0)
(0.0758961 -0.000696397 0)
(0.0761701 -0.000517461 0)
(0.0764404 -0.000383215 0)
(0.0767174 -0.000277278 0)
(0.0769756 -0.000193745 0)
(0.0772045 -0.000129623 0)
(0.0774011 -8.10477e-05 0)
(0.077565 -4.45662e-05 0)
(0.0776977 -1.7559e-05 0)
(0.0778007 2.06045e-06 0)
(0.0778812 1.62429e-05 0)
(0.0779418 2.65178e-05 0)
(0.0779851 3.37702e-05 0)
(0.0780136 3.86509e-05 0)
(0.0780298 4.16524e-05 0)
(0.0780356 4.31531e-05 0)
(0.078033 4.34485e-05 0)
(0.0780237 4.27726e-05 0)
(0.0780092 4.13126e-05 0)
(0.0779909 3.92199e-05 0)
(0.07797 3.66172e-05 0)
(0.0779477 3.36047e-05 0)
(0.077925 3.02639e-05 0)
(0.0779027 2.66609e-05 0)
(0.0778819 2.28486e-05 0)
(0.0778632 1.88678e-05 0)
(0.0778475 1.47474e-05 0)
(0.0778354 1.05007e-05 0)
(0.0778277 6.10764e-06 0)
(0.0778252 1.44712e-06 0)
(0.0778283 -3.45737e-06 0)
(0.0778375 -8.41024e-06 0)
(0.0778536 -1.3369e-05 0)
(0.0778777 -1.84002e-05 0)
(0.0779105 -2.35769e-05 0)
(0.0779532 -2.89799e-05 0)
(0.0780069 -3.47022e-05 0)
(0.0780731 -4.08541e-05 0)
(0.0781534 -4.75699e-05 0)
(0.0782498 -5.50267e-05 0)
(0.0783646 -6.34498e-05 0)
(0.0785008 -7.3117e-05 0)
(0.0786619 -8.43881e-05 0)
(0.0788523 -9.7742e-05 0)
(0.0790776 -0.000113836 0)
(0.0793451 -0.000133597 0)
(0.0796636 -0.000158422 0)
(0.0800464 -0.000190478 0)
(0.0805078 -0.000233623 0)
(0.0810808 -0.000294786 0)
(0.0817752 -0.000390201 0)
(0.082728 -0.000551583 0)
(0.0837342 -0.000882515 0)
(0.0856028 -0.00134794 0)
(0.0836429 -0.00172884 0)
(0.0826445 -0.000918337 0)
(0.0824028 -0.000689198 0)
(0.0821495 -0.000518263 0)
(0.0819766 -0.000388547 0)
(0.0818982 -0.000285326 0)
(0.0818769 -0.000202727 0)
(0.0818873 -0.000138432 0)
(0.0819134 -8.90853e-05 0)
(0.0819451 -5.15291e-05 0)
(0.0819758 -2.32987e-05 0)
(0.0820017 -2.50903e-06 0)
(0.0820214 1.26957e-05 0)
(0.0820346 2.3898e-05 0)
(0.0820415 3.19769e-05 0)
(0.0820425 3.75769e-05 0)
(0.0820381 4.11933e-05 0)
(0.082029 4.32103e-05 0)
(0.082016 4.39303e-05 0)
(0.0819997 4.35941e-05 0)
(0.081981 4.23952e-05 0)
(0.0819604 4.04909e-05 0)
(0.0819387 3.80091e-05 0)
(0.0819165 3.50546e-05 0)
(0.0818944 3.1713e-05 0)
(0.0818731 2.80539e-05 0)
(0.0818532 2.41328e-05 0)
(0.0818353 1.99926e-05 0)
(0.0818199 1.56635e-05 0)
(0.0818076 1.11589e-05 0)
(0.0817992 6.45793e-06 0)
(0.0817952 1.44953e-06 0)
(0.0817959 -3.83953e-06 0)
(0.0818021 -9.22881e-06 0)
(0.0818145 -1.46854e-05 0)
(0.0818339 -2.02796e-05 0)
(0.0818614 -2.60917e-05 0)
(0.0818979 -3.22121e-05 0)
(0.0819447 -3.87466e-05 0)
(0.0820031 -4.5821e-05 0)
(0.0820749 -5.35894e-05 0)
(0.082162 -6.22548e-05 0)
(0.0822667 -7.20759e-05 0)
(0.082392 -8.33719e-05 0)
(0.0825412 -9.65562e-05 0)
(0.0827189 -0.000112177 0)
(0.0829302 -0.000130986 0)
(0.0831823 -0.000154036 0)
(0.0834837 -0.000182912 0)
(0.0838469 -0.000220026 0)
(0.0842855 -0.000269716 0)
(0.0848301 -0.000339344 0)
(0.0854883 -0.00044675 0)
(0.0863833 -0.000622104 0)
(0.0873116 -0.000972649 0)
(0.0889895 -0.00143753 0)
(0.0904081 -0.00168236 0)
(0.0892096 -0.000880922 0)
(0.0886184 -0.000646818 0)
(0.0879762 -0.000485519 0)
(0.0874208 -0.000364851 0)
(0.0870025 -0.000269505 0)
(0.086694 -0.000192554 0)
(0.0864673 -0.000131988 0)
(0.0862997 -8.5015e-05 0)
(0.0861738 -4.89061e-05 0)
(0.0860769 -2.15079e-05 0)
(0.0860004 -1.11436e-06 0)
(0.0859358 1.39686e-05 0)
(0.0858794 2.51667e-05 0)
(0.0858289 3.33057e-05 0)
(0.0857827 3.89985e-05 0)
(0.0857397 4.27192e-05 0)
(0.085699 4.48379e-05 0)
(0.0856602 4.56476e-05 0)
(0.0856229 4.53822e-05 0)
(0.085587 4.42308e-05 0)
(0.0855524 4.23473e-05 0)
(0.0855193 3.98573e-05 0)
(0.0854877 3.68639e-05 0)
(0.0854579 3.34514e-05 0)
(0.08543 2.9688e-05 0)
(0.0854043 2.56285e-05 0)
(0.0853812 2.13143e-05 0)
(0.0853611 1.67738e-05 0)
(0.0853443 1.20184e-05 0)
(0.0853313 7.02534e-06 0)
(0.0853226 1.69354e-06 0)
(0.0853183 -3.95511e-06 0)
(0.0853193 -9.75819e-06 0)
(0.0853261 -1.56874e-05 0)
(0.0853395 -2.18184e-05 0)
(0.0853606 -2.82393e-05 0)
(0.0853901 -3.50515e-05 0)
(0.0854294 -4.23743e-05 0)
(0.0854797 -5.03499e-05 0)
(0.0855428 -5.91525e-05 0)
(0.0856205 -6.90113e-05 0)
(0.0857151 -8.02183e-05 0)
(0.0858295 -9.31343e-05 0)
(0.085967 -0.000108226 0)
(0.0861319 -0.000126109 0)
(0.0863294 -0.000147629 0)
(0.0865663 -0.00017396 0)
(0.0868507 -0.00020687 0)
(0.0871947 -0.000249004 0)
(0.0876111 -0.000305153 0)
(0.0881283 -0.000383032 0)
(0.0887523 -0.000501918 0)
(0.0895948 -0.000690015 0)
(0.0904559 -0.00105764 0)
(0.0919783 -0.0015213 0)
(0.0963203 -0.00160775 0)
(0.0950903 -0.000829358 0)
(0.0943756 -0.000583204 0)
(0.0935362 -0.000427328 0)
(0.0927205 -0.000315304 0)
(0.0920261 -0.000229995 0)
(0.0914575 -0.000161931 0)
(0.0909998 -0.000108369 0)
(0.090633 -6.66997e-05 0)
(0.0903381 -3.45367e-05 0)
(0.0900987 -1.00631e-05 0)
(0.0899024 8.28168e-06 0)
(0.0897354 2.19557e-05 0)
(0.089592 3.20715e-05 0)
(0.0894677 3.93645e-05 0)
(0.0893587 4.43915e-05 0)
(0.0892622 4.75826e-05 0)
(0.0891761 4.92733e-05 0)
(0.0890984 4.973e-05 0)
(0.089028 4.91661e-05 0)
(0.0889637 4.77546e-05 0)
(0.0889048 4.56365e-05 0)
(0.0888507 4.29274e-05 0)
(0.088801 3.9722e-05 0)
(0.0887554 3.60976e-05 0)
(0.0887136 3.21167e-05 0)
(0.0886757 2.78286e-05 0)
(0.0886417 2.32701e-05 0)
(0.0886115 1.84649e-05 0)
(0.0885855 1.34197e-05 0)
(0.0885639 8.10814e-06 0)
(0.0885468 2.44041e-06 0)
(0.0885344 -3.57599e-06 0)
(0.0885274 -9.80103e-06 0)
(0.0885262 -1.62051e-05 0)
(0.0885317 -2.28709e-05 0)
(0.0885446 -2.98956e-05 0)
(0.0885658 -3.73925e-05 0)
(0.0885964 -4.54952e-05 0)
(0.0886378 -5.43632e-05 0)
(0.0886914 -6.41915e-05 0)
(0.0887592 -7.5236e-05 0)
(0.0888433 -8.78227e-05 0)
(0.0889465 -0.000102354 0)
(0.0890721 -0.000119349 0)
(0.0892243 -0.000139493 0)
(0.089408 -0.00016372 0)
(0.0896297 -0.000193327 0)
(0.0898975 -0.000230259 0)
(0.0902227 -0.000277382 0)
(0.0906175 -0.000339918 0)
(0.0911086 -0.000425871 0)
(0.0917004 -0.000555799 0)
(0.092495 -0.000755684 0)
(0.0932973 -0.00113828 0)
(0.094689 -0.00160035 0)
(0.101353 -0.0015135 0)
(0.100178 -0.000774595 0)
(0.0995019 -0.000513352 0)
(0.0986614 -0.000356246 0)
(0.0977537 -0.000247894 0)
(0.0968985 -0.00017069 0)
(0.0961387 -0.000112119 0)
(0.0954874 -6.73874e-05 0)
(0.0949386 -3.32106e-05 0)
(0.0944799 -7.10421e-06 0)
(0.094095 1.26514e-05 0)
(0.0937675 2.74045e-05 0)
(0.0934869 3.82947e-05 0)
(0.0932448 4.61473e-05 0)
(0.0930346 5.15908e-05 0)
(0.0928509 5.50987e-05 0)
(0.0926893 5.70332e-05 0)
(0.0925464 5.76763e-05 0)
(0.0924191 5.72511e-05 0)
(0.0923053 5.59371e-05 0)
(0.0922029 5.38798e-05 0)
(0.0921106 5.11979e-05 0)
(0.092027 4.7989e-05 0)
(0.0919512 4.43328e-05 0)
(0.0918824 4.02939e-05 0)
(0.0918201 3.59242e-05 0)
(0.0917636 3.12635e-05 0)
(0.0917129 2.63402e-05 0)
(0.0916675 2.11702e-05 0)
(0.0916276 1.5753e-05 0)
(0.0915929 1.00567e-05 0)
(0.0915638 4.00356e-06 0)
(0.0915398 -2.42052e-06 0)
(0.0915216 -9.10429e-06 0)
(0.0915098 -1.60133e-05 0)
(0.0915049 -2.32371e-05 0)
(0.0915075 -3.08834e-05 0)
(0.0915185 -3.90782e-05 0)
(0.0915389 -4.79705e-05 0)
(0.0915698 -5.7738e-05 0)
(0.0916129 -6.85972e-05 0)
(0.0916697 -8.08318e-05 0)
(0.0917425 -9.48021e-05 0)
(0.0918339 -0.000110953 0)
(0.0919472 -0.000129856 0)
(0.0920862 -0.000152264 0)
(0.0922559 -0.000179204 0)
(0.0924625 -0.000212089 0)
(0.0927137 -0.000253039 0)
(0.0930205 -0.000305134 0)
(0.0933943 -0.000373999 0)
(0.0938604 -0.000467884 0)
(0.0944218 -0.000608467 0)
(0.095172 -0.000819391 0)
(0.095922 -0.00121515 0)
(0.0972011 -0.00167545 0)
(0.105516 -0.00140657 0)
(0.10443 -0.000722905 0)
(0.103869 -0.000449249 0)
(0.103169 -0.000286255 0)
(0.102343 -0.000174816 0)
(0.101482 -0.000100035 0)
(0.100648 -4.80635e-05 0)
(0.0998813 -1.14649e-05 0)
(0.0991989 1.47564e-05 0)
(0.0985989 3.37838e-05 0)
(0.0980756 4.75764e-05 0)
(0.0976206 5.74132e-05 0)
(0.0972246 6.42013e-05 0)
(0.0968789 6.86254e-05 0)
(0.0965763 7.11991e-05 0)
(0.0963102 7.22963e-05 0)
(0.0960753 7.21968e-05 0)
(0.0958671 7.11148e-05 0)
(0.0956818 6.92181e-05 0)
(0.0955162 6.66406e-05 0)
(0.0953677 6.34906e-05 0)
(0.0952342 5.9856e-05 0)
(0.0951137 5.58089e-05 0)
(0.0950047 5.14076e-05 0)
(0.0949061 4.66987e-05 0)
(0.0948169 4.17185e-05 0)
(0.0947361 3.64933e-05 0)
(0.0946631 3.10397e-05 0)
(0.0945974 2.53625e-05 0)
(0.0945388 1.94512e-05 0)
(0.0944869 1.32664e-05 0)
(0.0944416 6.73976e-06 0)
(0.0944026 -1.60532e-07 0)
(0.0943699 -7.36316e-06 0)
(0.0943443 -1.48361e-05 0)
(0.0943262 -2.26669e-05 0)
(0.094316 -3.0976e-05 0)
(0.0943146 -3.99035e-05 0)
(0.0943228 -4.96148e-05 0)
(0.0943416 -6.03066e-05 0)
(0.0943725 -7.22182e-05 0)
(0.0944171 -8.56617e-05 0)
(0.0944775 -0.000101033 0)
(0.0945561 -0.000118819 0)
(0.0946562 -0.000139645 0)
(0.0947814 -0.000164334 0)
(0.0949366 -0.000194 0)
(0.0951277 -0.000230177 0)
(0.0953622 -0.000275151 0)
(0.0956506 -0.000332213 0)
(0.0960039 -0.000407367 0)
(0.0964456 -0.000509072 0)
(0.0969779 -0.000659964 0)
(0.0976866 -0.000881328 0)
(0.0983893 -0.00128865 0)
(0.0995691 -0.00174712 0)
(0.108854 -0.00129312 0)
(0.107866 -0.000676613 0)
(0.10743 -0.000397227 0)
(0.106923 -0.000228196 0)
(0.106294 -0.000109373 0)
(0.10558 -3.05759e-05 0)
(0.104824 2.08056e-05 0)
(0.10406 5.35074e-05 0)
(0.103322 7.3998e-05 0)
(0.102636 8.66998e-05 0)
(0.102011 9.42923e-05 0)
(0.101451 9.84392e-05 0)
(0.100952 0.000100193 0)
(0.100508 0.000100244 0)
(0.100114 9.90464e-05 0)
(0.099764 9.68986e-05 0)
(0.0994522 9.40061e-05 0)
(0.099174 9.05155e-05 0)
(0.0989251 8.65354e-05 0)
(0.0987018 8.21491e-05 0)
(0.098501 7.74215e-05 0)
(0.09832 7.2404e-05 0)
(0.0981564 6.71373e-05 0)
(0.0980084 6.16534e-05 0)
(0.0978741 5.5976e-05 0)
(0.0977523 5.01218e-05 0)
(0.0976418 4.40996e-05 0)
(0.0975415 3.79108e-05 0)
(0.0974508 3.15463e-05 0)
(0.0973689 2.49831e-05 0)
(0.0972955 1.8172e-05 0)
(0.0972301 1.1046e-05 0)
(0.0971724 3.57225e-06 0)
(0.0971218 -4.22926e-06 0)
(0.0970793 -1.23505e-05 0)
(0.0970449 -2.08633e-05 0)
(0.0970193 -2.99e-05 0)
(0.097003 -3.96171e-05 0)
(0.0969966 -5.01973e-05 0)
(0.0970013 -6.18577e-05 0)
(0.0970182 -7.48608e-05 0)
(0.0970489 -8.95485e-05 0)
(0.0970953 -0.000106353 0)
(0.0971599 -0.000125804 0)
(0.0972457 -0.000148583 0)
(0.0973562 -0.00017558 0)
(0.0974961 -0.000207999 0)
(0.0976712 -0.000247492 0)
(0.0978886 -0.000296511 0)
(0.0981584 -0.000358549 0)
(0.098491 -0.000439967 0)
(0.0989088 -0.000549404 0)
(0.0994129 -0.00071029 0)
(0.100082 -0.000941609 0)
(0.100741 -0.00135904 0)
(0.101832 -0.00181574 0)
(0.111442 -0.00117693 0)
(0.110549 -0.000635207 0)
(0.110215 -0.000358106 0)
(0.109885 -0.000186465 0)
(0.109477 -6.07755e-05 0)
(0.108997 2.54948e-05 0)
(0.108432 8.21502e-05 0)
(0.107802 0.00011723 0)
(0.107135 0.000137031 0)
(0.106463 0.000146649 0)
(0.105813 0.000149755 0)
(0.105199 0.000148856 0)
(0.104631 0.000145566 0)
(0.104112 0.000140874 0)
(0.10364 0.000135361 0)
(0.103214 0.000129357 0)
(0.102829 0.000123049 0)
(0.102482 0.000116548 0)
(0.102168 0.000109916 0)
(0.101885 0.000103193 0)
(0.101629 9.64036e-05 0)
(0.101396 8.95616e-05 0)
(0.101185 8.26748e-05 0)
(0.100994 7.57462e-05 0)
(0.100819 6.8774e-05 0)
(0.10066 6.17522e-05 0)
(0.100515 5.46698e-05 0)
(0.100383 4.75098e-05 0)
(0.100263 4.02469e-05 0)
(0.100154 3.28433e-05 0)
(0.100055 2.52382e-05 0)
(0.0999657 1.73583e-05 0)
(0.0998856 9.1765e-06 0)
(0.0998141 6.74572e-07 0)
(0.0997513 -8.191e-06 0)
(0.0996977 -1.74862e-05 0)
(0.0996537 -2.73398e-05 0)
(0.0996198 -3.79252e-05 0)
(0.0995965 -4.94452e-05 0)
(0.0995847 -6.21378e-05 0)
(0.0995855 -7.62902e-05 0)
(0.0996004 -9.22749e-05 0)
(0.0996313 -0.000110561 0)
(0.0996803 -0.000131725 0)
(0.0997503 -0.000156499 0)
(0.0998449 -0.000185846 0)
(0.0999685 -0.000221059 0)
(0.100127 -0.000263906 0)
(0.100326 -0.000317004 0)
(0.100577 -0.000384042 0)
(0.100889 -0.000471711 0)
(0.101283 -0.000588814 0)
(0.101759 -0.0007594 0)
(0.102389 -0.00100028 0)
(0.103007 -0.00142649 0)
(0.104016 -0.00188155 0)
(0.113364 -0.00106002 0)
(0.112564 -0.000597162 0)
(0.112308 -0.000329771 0)
(0.11211 -0.00015983 0)
(0.111883 -3.07789e-05 0)
(0.111618 6.20516e-05 0)
(0.111285 0.000126181 0)
(0.110876 0.000167831 0)
(0.110397 0.000192169 0)
(0.109863 0.000203825 0)
(0.109298 0.000206641 0)
(0.108723 0.000203656 0)
(0.108157 0.000197127 0)
(0.107613 0.000188613 0)
(0.107101 0.000179111 0)
(0.106624 0.000169212 0)
(0.106184 0.000159244 0)
(0.105779 0.000149378 0)
(0.105408 0.000139692 0)
(0.105068 0.000130214 0)
(0.104758 0.000120948 0)
(0.104474 0.000111882 0)
(0.104215 0.000102997 0)
(0.103978 9.427e-05 0)
(0.10376 8.5675e-05 0)
(0.103561 7.71833e-05 0)
(0.103379 6.8763e-05 0)
(0.103212 6.03783e-05 0)
(0.103059 5.1986e-05 0)
(0.102918 4.35322e-05 0)
(0.102791 3.49427e-05 0)
(0.102674 2.61344e-05 0)
(0.102568 1.70765e-05 0)
(0.102473 7.74244e-06 0)
(0.102387 -1.96911e-06 0)
(0.102311 -1.21603e-05 0)
(0.102246 -2.29435e-05 0)
(0.102192 -3.44978e-05 0)
(0.102149 -4.70482e-05 0)
(0.102118 -6.08563e-05 0)
(0.102101 -7.62344e-05 0)
(0.102098 -9.35867e-05 0)
(0.102111 -0.000113421 0)
(0.102143 -0.000136359 0)
(0.102196 -0.000163189 0)
(0.102273 -0.000194942 0)
(0.102379 -0.000233005 0)
(0.102519 -0.000279259 0)
(0.1027 -0.000336482 0)
(0.102931 -0.000408557 0)
(0.103222 -0.000502478 0)
(0.103591 -0.000627196 0)
(0.104039 -0.000807205 0)
(0.104632 -0.00105731 0)
(0.105211 -0.00149108 0)
(0.106144 -0.00194469 0)
(0.114716 -0.000947508 0)
(0.114015 -0.000562383 0)
(0.113821 -0.000310009 0)
(0.113716 -0.000144901 0)
(0.113616 -1.58981e-05 0)
(0.113508 8.05037e-05 0)
(0.113366 0.000150199 0)
(0.113172 0.000198403 0)
(0.112916 0.000229358 0)
(0.112595 0.000246772 0)
(0.112215 0.000253817 0)
(0.111787 0.000253229 0)
(0.111326 0.000247312 0)
(0.110847 0.000237924 0)
(0.110366 0.000226469 0)
(0.109894 0.000213942 0)
(0.109439 0.000201006 0)
(0.109007 0.000188073 0)
(0.108601 0.000175376 0)
(0.108221 0.000163033 0)
(0.107868 0.00015109 0)
(0.107541 0.00013955 0)
(0.107238 0.000128393 0)
(0.106958 0.000117586 0)
(0.106699 0.000107088 0)
(0.10646 9.68552e-05 0)
(0.10624 8.68375e-05 0)
(0.106036 7.69824e-05 0)
(0.105849 6.72304e-05 0)
(0.105676 5.75116e-05 0)
(0.105517 4.77385e-05 0)
(0.10537 3.78168e-05 0)
(0.105237 2.77035e-05 0)
(0.105114 1.73694e-05 0)
(0.105003 6.69317e-06 0)
(0.104903 -4.49882e-06 0)
(0.104814 -1.63374e-05 0)
(0.104737 -2.89813e-05 0)
(0.104673 -4.26714e-05 0)
(0.104621 -5.76955e-05 0)
(0.104583 -7.4393e-05 0)
(0.104561 -9.32007e-05 0)
(0.104555 -0.000114666 0)
(0.104567 -0.000139456 0)
(0.104601 -0.000168416 0)
(0.10466 -0.000202648 0)
(0.104747 -0.000243629 0)
(0.104868 -0.000293356 0)
(0.105029 -0.000354765 0)
(0.105239 -0.000431925 0)
(0.105507 -0.000532107 0)
(0.105852 -0.000664402 0)
(0.106272 -0.000853568 0)
(0.106827 -0.00111262 0)
(0.107367 -0.00155278 0)
(0.108229 -0.00200522 0)
(0.11564 -0.000847564 0)
(0.115044 -0.000532059 0)
(0.114902 -0.000297151 0)
(0.114861 -0.000138375 0)
(0.114843 -1.15551e-05 0)
(0.114837 8.57242e-05 0)
(0.114822 0.000158148 0)
(0.11478 0.000210505 0)
(0.114702 0.000246666 0)
(0.114578 0.000269853 0)
(0.114402 0.000282682 0)
(0.114172 0.000287326 0)
(0.113893 0.00028563 0)
(0.113569 0.000279175 0)
(0.11321 0.000269302 0)
(0.112828 0.000257118 0)
(0.112432 0.00024351 0)
(0.112034 0.000229156 0)
(0.111641 0.000214547 0)
(0.111259 0.000200013 0)
(0.110893 0.000185762 0)
(0.110544 0.000171908 0)
(0.110214 0.0001585 0)
(0.109903 0.000145544 0)
(0.109612 0.000133019 0)
(0.10934 0.000120886 0)
(0.109086 0.000109094 0)
(0.108849 9.75828e-05 0)
(0.108629 8.6283e-05 0)
(0.108424 7.51136e-05 0)
(0.108233 6.39764e-05 0)
(0.108057 5.27673e-05 0)
(0.107895 4.14292e-05 0)
(0.107745 2.99206e-05 0)
(0.107607 1.81245e-05 0)
(0.107482 5.83526e-06 0)
(0.107367 -7.15988e-06 0)
(0.107266 -2.10242e-05 0)
(0.107178 -3.59787e-05 0)
(0.107104 -5.23331e-05 0)
(0.107044 -7.04571e-05 0)
(0.107 -9.08216e-05 0)
(0.106973 -0.000114014 0)
(0.106965 -0.000140748 0)
(0.106978 -0.000171927 0)
(0.107017 -0.000208723 0)
(0.107084 -0.000252703 0)
(0.107184 -0.000305982 0)
(0.107324 -0.000371646 0)
(0.107513 -0.00045395 0)
(0.107757 -0.000560409 0)
(0.108076 -0.000700248 0)
(0.108467 -0.000898309 0)
(0.108985 -0.00116605 0)
(0.109487 -0.00161151 0)
(0.11028 -0.00206313 0)
(0.116308 -0.00076394 0)
(0.115807 -0.000506375 0)
(0.115706 -0.000289501 0)
(0.115709 -0.000137597 0)
(0.115741 -1.40078e-05 0)
(0.115796 8.25122e-05 0)
(0.115856 0.000155683 0)
(0.115907 0.000209977 0)
(0.11594 0.000249074 0)
(0.115948 0.000276022 0)
(0.115924 0.000293257 0)
(0.115862 0.000302718 0)
(0.115759 0.000305946 0)
(0.115614 0.00030418 0)
(0.115426 0.000298436 0)
(0.115199 0.000289573 0)
(0.114937 0.000278339 0)
(0.114648 0.000265392 0)
(0.11434 0.000251296 0)
(0.114018 0.000236523 0)
(0.113692 0.000221447 0)
(0.113366 0.000206349 0)
(0.113045 0.000191424 0)
(0.112734 0.000176795 0)
(0.112433 0.000162529 0)
(0.112146 0.000148647 0)
(0.111872 0.000135135 0)
(0.111613 0.000121957 0)
(0.111369 0.000109054 0)
(0.111138 9.63485e-05 0)
(0.110922 8.3743e-05 0)
(0.11072 7.11303e-05 0)
(0.110531 5.84431e-05 0)
(0.110355 4.56271e-05 0)
(0.110192 3.2561e-05 0)
(0.110041 1.90504e-05 0)
(0.109903 4.83499e-06 0)
(0.109777 -1.03379e-05 0)
(0.109665 -2.66807e-05 0)
(0.109567 -4.44855e-05 0)
(0.109485 -6.4148e-05 0)
(0.109418 -8.61766e-05 0)
(0.109369 -0.0001112 0)
(0.10934 -0.000139978 0)
(0.109332 -0.000173472 0)
(0.10935 -0.000212925 0)
(0.109395 -0.000259995 0)
(0.109474 -0.000316911 0)
(0.109593 -0.000386905 0)
(0.109758 -0.000474415 0)
(0.109979 -0.000587169 0)
(0.110271 -0.000734519 0)
(0.110633 -0.000941211 0)
(0.111112 -0.00121741 0)
(0.111576 -0.00166713 0)
(0.112302 -0.00211833 0)
(0.116851 -0.00069486 0)
(0.116426 -0.000484466 0)
(0.116355 -0.000285497 0)
(0.116385 -0.000140691 0)
(0.116449 -2.0819e-05 0)
(0.11654 7.40845e-05 0)
(0.116642 0.000146932 0)
(0.116745 0.000201857 0)
(0.116842 0.000242345 0)
(0.116926 0.000271322 0)
(0.116992 0.000291154 0)
(0.117037 0.000303721 0)
(0.117056 0.00031049 0)
(0.117046 0.000312595 0)
(0.117004 0.000310899 0)
(0.116928 0.000306072 0)
(0.116818 0.000298652 0)
(0.116675 0.000289098 0)
(0.1165 0.00027782 0)
(0.116297 0.000265196 0)
(0.116071 0.000251574 0)
(0.115827 0.000237266 0)
(0.11557 0.000222546 0)
(0.115305 0.000207636 0)
(0.115038 0.000192709 0)
(0.11477 0.000177886 0)
(0.114507 0.000163241 0)
(0.11425 0.000148806 0)
(0.114001 0.000134575 0)
(0.113762 0.000120507 0)
(0.113533 0.000106532 0)
(0.113315 9.25573e-05 0)
(0.113109 7.85221e-05 0)
(0.112914 6.43682e-05 0)
(0.112731 4.99726e-05 0)
(0.11256 3.51479e-05 0)
(0.112401 1.96465e-05 0)
(0.112255 3.1516e-06 0)
(0.112121 -1.46366e-05 0)
(0.112001 -3.39907e-05 0)
(0.111897 -5.52916e-05 0)
(0.111809 -7.90811e-05 0)
(0.111739 -0.000106031 0)
(0.111689 -0.000136948 0)
(0.11166 -0.00017285 0)
(0.111656 -0.000215051 0)
(0.11168 -0.0002653 0)
(0.111738 -0.000325937 0)
(0.111834 -0.000400337 0)
(0.111976 -0.00049311 0)
(0.112172 -0.000612167 0)
(0.112437 -0.000766984 0)
(0.112768 -0.000982029 0)
(0.113209 -0.00126645 0)
(0.113634 -0.00171944 0)
(0.114295 -0.00217068 0)
(0.117346 -0.000637119 0)
(0.11698 -0.000465416 0)
(0.116926 -0.000283913 0)
(0.116973 -0.000146383 0)
(0.117056 -3.05071e-05 0)