/*--------------------------------*- C++ -*----------------------------------*\
  =========                 |
  \\      /  F ield         | OpenFOAM: The Open Source CFD Toolbox
   \\    /   O peration     | Website:  https://openfoam.org
    \\  /    A nd           | Version:  6
     \\/     M anipulation  |
\*---------------------------------------------------------------------------*/
FoamFile
{
    version     2.0;
    format      ascii;
    class       volScalarField;
    location    "0";
    object      p;
}
// * * * * * * * * * * * * * * * * * * * * * * * * * * * * * * * * * * * * * //

dimensions      [0 2 -2 0 0 0 0];

internalField   nonuniform List<scalar> 
918
(
0.19612
0.964875
0.00678992
0.195549
0.000555782
0.933624
-0.83746
0.379845
0.174292
-0.242718
0.0178474
0.167253
0.784512
0.548492
-1.51549
0.0125156
0.33341
-0.731545
0.173286
0.00621141
0.450154
0.180631
0.183879
0.175862
0.231795
0.523496
0.657097
0.00275446
-0.00368658
-0.00161687
0.00336939
-0.000316139
0.00279092
0.806712
0.852951
0.871619
0.145847
-0.00936051
-0.720419
-0.782639
-0.753541
-0.898918
0.368329
0.371135
-0.517802
0.381798
0.395455
0.161367
0.173574
0.174346
0.175986
0.174682
0.176144
0.227173
-0.306052
-0.388189
-0.157235
-0.113494
0.0615902
0.0181082
0.0111186
0.0278181
0.025657
0.103177
0.163678
0.162058
0.174211
0.182928
0.890349
0.862495
0.885239
0.809664
0.827154
0.758767
0.730752
0.569849
0.593358
0.533618
0.520568
-1.98456
-2.96108
-0.921583
-0.639795
0.00155382
0.0186663
0.0232768
0.321987
0.324697
0.330201
0.343678
0.770637
-0.718894
-0.835263
0.172446
0.171835
0.179695
0.181275
0.177601
0.177099
0.0136421
0.0207964
-0.000132024
0.00379621
0.00393867
0.42639
0.426263
0.175292
0.172828
0.191572
0.215203
0.205271
-0.059819
0.243908
0.261115
0.351485
0.51486
0.510241
0.519501
0.631463
0.599644
0.688327
0.71311
0.00771409
0.00207993
0.00948862
0.00677113
0.00986204
0.140568
0.133756
0.155839
0.147203
0.149287
-0.101361
-0.245123
0.0638124
0.0830026
-0.633352
-0.682667
-0.781726
-0.802032
-0.862012
0.163658
0.358255
0.361258
-0.527794
-0.453077
-0.588904
-0.391669
-0.457945
0.152908
0.159503
0.15603
0.169507
0.163327
0.165616
0.177453
0.174719
0.176248
0.265996
0.350001
0.161272
0.163423
-0.616134
-0.470159
-0.569086
-0.0592607
-0.0413139
0.0688962
0.0786012
0.0557024
0.0505318
-0.0111045
0.0113563
-0.00222025
0.0248026
0.0248993
0.0962583
0.0851225
0.112157
0.117976
0.155985
0.156092
0.158058
0.157797
0.678509
0.70203
0.709769
0.686003
-3.96439
-6.67982
-0.285204
-0.120174
0.00190655
0.00274378
0.000980288
0.00252692
0.00352287
0.00148117
0.0303932
0.0295737
0.0271666
0.0305338
0.309335
0.313206
0.710801
0.705165
0.719019
0.681673
0.162121
0.163498
0.168733
0.16505
0.0231994
0.0220206
0.0237831
0.394011
0.411845
0.407757
-0.0959581
-0.185626
-0.0116725
0.0174564
0.298629
0.277869
0.298479
0.416372
0.456938
0.72669
0.75055
0.73837
0.754306
0.802596
0.82274
0.787246
0.121974
0.130193
0.125517
0.160851
0.157654
0.158529
0.155692
0.155145
0.152552
-0.377036
-0.74931
0.120564
0.124548
0.110966
0.112033
0.25189
0.347216
0.33548
0.348309
0.345565
-0.343687
-0.394818
0.145082
0.13282
0.0436775
0.0721738
0.0579504
0.654806
0.617091
0.664546
0.640351
0.603256
0.626671
-0.681634
-2.46621
-1.41525
0.289153
0.0833041
0.180564
0.0477382
0.0327684
0.0424385
0.678156
0.722769
0.429157
0.594657
0.553215
0.484813
0.512807
0.574299
0.503059
0.539429
0.573703
0.549472
0.130035
0.121466
0.114131
0.428881
0.488597
-0.220676
-0.283884
-0.321517
0.0855959
0.114907
0.111059
0.695573
0.558174
0.646243
0.173277
0.173288
0.0120894
0.0224689
0.176376
0.176572
0.00589868
0.00660669
0.185181
-1.27798
-0.199837
0.165918
0.157368
0.17224
-0.305059
0.280879
0.0172174
0.0751574
0.0487813
0.165145
0.113973
0.076479
0.00711594
0.0163834
0.0136474
-0.528828
0.170888
0.168753
0.171805
0.172943
0.173738
0.00872744
0.0106353
0.00732329
0.0121624
0.0112141
0.00878675
0.140574
0.153594
-0.503799
0.171885
0.17398
0.173706
0.167712
0.17249
0.170481
0.0137609
0.00864678
0.00851334
-0.114519
0.0113446
0.400947
0.504267
0.330934
0.149874
-0.142656
0.321648
0.382701
0.293052
0.44541
0.340998
0.358621
-0.142043
-0.289612
-0.145322
-0.204433
0.163794
0.161933
0.154254
0.151579
0.167254
0.16528
0.169835
0.167542
0.170158
0.171214
-0.20947
-0.139928
-0.374939
-0.447655
0.222681
0.365313
0.18288
0.158324
0.116522
0.0207878
0.024486
0.016775
0.0162038
0.0392778
0.0503803
0.0697356
0.055554
0.0473209
0.0351844
0.0373465
0.0444121
0.0469516
0.159886
0.156897
0.163747
0.171203
0.121194
0.123129
0.09584
0.110487
0.101477
0.0480438
0.0767105
0.0565266
0.00750804
0.00797914
0.00557294
0.0202877
0.0254914
0.0130403
0.0107973
0.0143732
0.0112582
0.0102358
0.0163465
0.0201321
-0.516492
-0.600086
0.61009
0.532714
-0.402763
0.160282
0.164828
0.162059
0.166827
0.169713
0.170399
0.168603
0.16556
0.154446
0.156944
0.151678
0.153049
-0.444999
-0.561546
-0.395841
-0.466761
-0.191423
0.282975
0.0197454
-0.031443
-0.0428061
0.168274
0.356984
0.314061
0.437251
0.4313
-0.725904
-0.310392
-0.651041
-0.108088
-0.133301
0.421582
0.467446
0.486081
0.44074
0.391358
-0.379198
0.17008
-0.37556
-0.34256
-0.165308
-0.258222
0.383937
0.321809
0.330419
0.347514
0.372844
0.337621
0.319134
0.313064
0.342351
0.350649
0.1541
-0.0775291
-0.112896
-0.156404
0.306679
0.19121
0.244659
0.153454
0.158318
0.161306
0.160679
0.145007
0.149735
0.14607
0.15182
0.154769
0.162677
0.163318
0.159187
0.160907
-0.0898532
-0.0559949
-0.356083
-0.530984
-0.487149
-0.536039
-0.492741
-0.481609
-0.303206
-0.429496
-0.0481014
-0.649243
-0.612991
-0.620396
-0.626808
-0.523779
-0.554307
0.0741285
0.135844
0.106349
0.146726
0.157651
0.161696
0.0302691
0.0319366
0.0127437
0.0214848
0.0691381
0.075097
0.0848637
0.0344238
0.0332151
0.0237284
0.0226534
0.0195696
0.0103389
0.017465
0.0233169
0.0200775
0.0216271
0.0254563
0.0292285
0.0329954
0.0387657
0.152363
0.154124
0.153565
0.167525
0.175806
0.189678
0.16369
0.139094
0.131055
0.132629
0.110687
0.117074
0.1154
0.12581
0.144039
0.151036
0.149008
0.150802
0.138286
0.139509
0.125091
0.129281
0.110596
0.0957474
0.0851739
0.016254
0.0103994
0.0129225
0.0138903
0.0100322
0.0114103
0.0355045
0.0282301
0.0324669
0.0284997
0.0314272
0.0173702
0.0165061
-0.475034
-0.466059
-0.540068
-0.558111
-0.62777
0.511285
0.639735
0.443323
0.244685
0.234585
0.475917
0.576608
0.300365
0.374223
0.450915
0.130481
0.440982
0.164301
0.164278
0.162091
0.161064
0.162034
-0.364183
-0.270312
-0.245904
-0.198673
-0.0721471
0.0343061
-0.0780074
-0.140962
-0.0123108
0.0300455
0.280626
0.295399
0.235216
0.261832
0.262345
0.0873729
0.167641
0.212867
0.161808
0.21625
0.24618
0.204518
0.238141
0.172014
0.131905
0.126304
0.0731758
0.106696
0.0865536
0.0622802
0.15455
0.135657
0.144286
0.136906
0.155323
0.186109
0.180998
0.199513
0.217655
0.143125
0.0993839
0.114271
0.139399
0.0993413
0.112698
0.129365
-0.18196
-0.277877
-0.150458
-0.452646
-0.340718
-0.320501
-0.358008
-0.415346
-0.116027
-0.760969
-0.694487
-1.38164
0.11086
0.50568
0.342462
0.350934
0.369735
0.346344
0.352579
0.376943
0.388107
0.295928
0.313258
0.315189
0.275487
0.307228
0.317888
0.322059
0.137927
0.0656788
0.0436492
0.00610648
-0.129116
-0.0931304
0.0834679
0.0232554
-0.0424605
-0.0380699
0.12455
0.00948478
0.0759123
0.115881
0.0652491
0.00529498
0.203949
0.266946
0.251957
0.223651
0.145096
0.163015
0.183799
0.220216
0.246155
0.277093
0.152404
0.156391
0.157591
0.155981
0.15189
0.155415
0.155647
0.157007
0.158415
0.160974
0.160004
0.00989903
0.00254013
-0.029904
-0.00285912
-0.167168
-0.205681
-0.251586
-0.248473
0.00156914
-0.0196085
-0.106665
-0.0617994
-0.0294342
-0.0141998
0.00927562
0.0163602
-0.126918
-0.150304
-0.230299
0.0175683
0.0946138
-0.0354226
-0.300582
-0.208564
-0.122586
0.0386348
0.0596736
0.0531865
0.0504546
0.0510799
0.0283213
0.025805
0.0252076
0.0275479
0.0278395
0.0237572
0.0217745
0.023132
0.0240786
0.0231382
0.0222066
0.139108
0.132746
0.134666
0.129349
0.129014
0.140582
0.144597
0.145982
0.150267
0.152278
0.144431
0.14833
0.151374
0.025213
0.0201416
0.0216415
0.0227743
0.0213828
0.0194495
0.0194461
-0.126221
-0.367318
-0.302941
-0.391066
-0.484454
-0.446867
0.144572
0.0784441
0.107877
0.300474
0.16992
0.049511
0.116061
0.249385
0.0252082
0.146308
0.0169609
0.508163
0.378567
0.529712
0.185142
-0.118628
0.0201933
0.0425129
-0.114464
-0.0218069
-0.0203655
-0.139535
-0.101777
-0.0792315
-0.0036922
-0.102873
-0.141267
-0.379534
-0.221867
-0.0703532
-0.0921003
0.0404782
0.091817
-0.120747
-0.20207
-0.245667
0.264772
0.288205
0.302109
0.269337
0.293724
0.223988
0.213784
0.230562
0.242768
0.235618
-1.03799
-0.656135
-1.80521
-1.19393
-0.745328
0.145881
0.125284
0.369672
0.279399
0.353524
0.338915
0.288536
0.254866
0.267813
0.302224
0.00718777
0.113148
0.0747106
0.0982981
0.0250925
-0.0528232
0.233015
0.231334
0.258756
0.28453
0.257962
0.286211
0.147899
0.148047
0.151234
0.148678
0.144968
0.146675
-0.00836021
0.00145214
-0.0863918
-0.123636
-0.139377
-0.0879489
0.0305387
0.0286995
0.0241254
0.0239812
0.0291609
0.0310672
-0.163729
-0.202577
-0.335074
-0.226265
-0.359659
-0.426095
-0.44672
-0.353196
-0.254123
-0.265286
0.0709835
0.306225
0.151679
0.270327
0.0319742
0.136205
0.10809
0.0886675
0.114963
0.0156352
0.108358
-0.348072
-0.581256
-0.61598
0.422895
0.39049
0.193328
-0.0651429
-0.179445
0.110741
0.172534
0.140721
0.17274
0.220756
0.215576
-0.377874
-0.273209
-0.202813
0.104616
-0.14053
-0.107954
-0.132735
0.0418222
-0.0132397
)
;

boundaryField
{
    wall-4
    {
        type            zeroGradient;
    }
    velocity-inlet-5
    {
        type            zeroGradient;
    }
    velocity-inlet-6
    {
        type            zeroGradient;
    }
    pressure-outlet-7
    {
        type            fixedValue;
        value           uniform 0;
    }
    wall-8
    {
        type            zeroGradient;
    }
    frontAndBackPlanes
    {
        type            empty;
    }
}

