/*--------------------------------*- C++ -*----------------------------------*\
  =========                 |
  \\      /  F ield         | OpenFOAM: The Open Source CFD Toolbox
   \\    /   O peration     | Website:  https://openfoam.org
    \\  /    A nd           | Version:  6
     \\/     M anipulation  |
\*---------------------------------------------------------------------------*/
FoamFile
{
    version     2.0;
    format      ascii;
    class       volVectorField;
    location    "0";
    object      U_rec;
}
// * * * * * * * * * * * * * * * * * * * * * * * * * * * * * * * * * * * * * //

dimensions      [0 1 -1 0 0 0 0];

internalField   nonuniform List<vector> 
918
(
(0.608617 -0.259187 0)
(0.311592 2.70672 0)
(-0.321343 1.69953 0)
(0.535818 0.222059 0)
(0.302562 1.80064 5.30036e-18)
(-0.344793 2.49408 -4.09744e-16)
(1.0926 1.81396 -8.27647e-17)
(0.430101 0.263134 -2.48224e-18)
(0.629762 0.00776381 0)
(0.0142206 1.77781 0)
(0.0113192 1.72807 0)
(0.939068 0.00281825 0)
(0.0862712 3.15996 0)
(0.0879277 2.99778 0)
(-0.10199 2.65355 -1.19701e-16)
(-0.00740773 1.71308 -8.10039e-18)
(0.686568 0.172463 1.86483e-16)
(0.165623 2.07069 -7.52156e-17)
(0.985834 0.0305071 0)
(0.000359203 1.72256 0)
(-0.0559514 -0.217301 -1.11127e-16)
(0.436679 -0.0515166 0)
(0.840752 0.0941108 0)
(1.07298 0.0332742 0)
(0.859538 0.0373448 0)
(0.113802 3.15828 0)
(0.00469931 2.92474 1.33192e-16)
(-0.5475 1.83586 0)
(-0.0462803 1.69281 0)
(-0.255116 1.77837 0)
(-0.0318251 1.6251 0)
(-0.222097 1.62327 1.13305e-17)
(-0.0192354 1.71724 0)
(-0.615335 3.17394 -1.53886e-20)
(-0.0811509 3.00985 3.15119e-16)
(0.0624443 2.87447 0)
(0.984325 -0.00332326 0)
(0.829623 1.34377 6.42569e-17)
(1.11692 1.69918 1.58875e-16)
(1.24013 1.61237 -1.2703e-16)
(0.930207 1.88219 2.02914e-17)
(0.885965 1.99223 -9.67473e-17)
(0.451759 0.316666 2.47164e-18)
(0.504512 0.266378 0)
(1.3768 0.812962 0)
(0.356617 0.321794 1.10153e-17)
(0.343657 0.237703 -1.12514e-17)
(0.99457 -0.00845279 0)
(0.956802 0.00868903 0)
(0.632594 0.00295448 0)
(0.937135 -0.156169 0)
(0.911872 0.0373521 0)
(0.638841 0.0475303 0)
(-0.00069123 1.62199 -1.10786e-16)
(0.0419589 1.81597 0)
(0.0149813 1.83776 0)
(-0.00194699 1.7983 0)
(-0.00226061 1.80463 0)
(-0.000680812 1.72595 0)
(0.0333541 1.74327 0)
(0.00481254 1.75028 0)
(-0.0063306 1.71211 0)
(-0.00135596 1.70797 0)
(1.01348 0.00389648 0)
(0.948179 0.0219946 0)
(0.956101 0.00209386 0)
(0.937113 0.00932793 0)
(0.934824 0.0045133 0)
(-0.243537 2.75971 1.50675e-16)
(0.478727 2.72092 0)
(-0.0265705 2.43916 0)
(0.204136 3.31928 1.74128e-21)
(-0.216373 3.15508 -2.20163e-16)
(0.0611102 3.14106 0)
(0.0535217 3.00552 0)
(0.148389 3.03228 3.6803e-22)
(0.0210283 2.96337 0)
(-0.0861718 3.00225 0)
(-0.100103 2.99182 0)
(0.153153 2.78828 0)
(-0.0536757 2.93091 0)
(-0.0304432 2.72585 1.13654e-16)
(-0.062374 2.65552 0)
(0.00132884 1.73483 0)
(-0.0201476 1.7194 1.82658e-17)
(0.00950445 1.72495 -1.13484e-17)
(0.705544 0.176708 -6.58644e-17)
(0.723639 0.145219 -6.357e-17)
(0.67039 0.219171 -1.89319e-16)
(0.651344 0.205936 -1.24408e-16)
(0.152925 1.41534 0)
(0.353168 2.08874 5.60481e-17)
(0.416835 2.14601 -1.07306e-16)
(1.00698 0.000275937 0)
(0.991488 0.000812265 0)
(0.612758 -0.00891546 0)
(0.996986 0.0514568 0)
(0.981775 0.129805 -7.88234e-16)
(1.10535 0.319633 6.45564e-16)
(0.0119613 1.73589 0)
(-0.00959525 1.74151 0)
(-0.0680944 1.67799 0)
(-0.0563211 1.74491 0)
(-0.0394497 1.73547 0)
(0.122684 0.118153 3.44804e-17)
(0.142122 0.145157 0)
(1.05001 -0.0141718 0)
(1.01742 -0.00633589 0)
(0.920704 0.0629533 0)
(0.87763 0.17531 0)
(0.899588 0.0148419 0)
(1.14334 -0.0070699 0)
(0.843059 0.066881 0)
(0.810049 0.0357139 3.10069e-16)
(-0.0807086 2.88107 1.6067e-16)
(0.0639074 3.09611 0)
(-0.0185143 3.1997 0)
(0.0484818 3.02347 0)
(0.0966534 2.95813 1.38576e-16)
(0.0472461 2.94184 0)
(0.0528047 2.93659 -4.40752e-16)
(-0.0246445 2.92025 1.52936e-16)
(0.0230722 1.73876 0)
(-0.0139076 1.74992 0)
(0.00753336 1.71833 -3.33986e-19)
(-0.0443194 1.72956 0)
(0.00775899 1.71862 0)
(0.982117 0.00385609 0)
(0.982708 -0.00277987 0)
(0.97866 -0.000612521 0)
(0.984881 -0.0129432 0)
(0.983592 0.00305375 0)
(0.884169 1.43389 -8.22131e-17)
(0.947809 1.39925 0)
(0.807437 1.35456 8.99226e-18)
(0.776835 1.29974 0)
(1.20232 1.46945 4.37199e-17)
(1.34122 1.32709 -8.92884e-17)
(0.556741 2.11342 0)
(0.758007 2.02678 0)
(0.668193 2.11065 0)
(0.532247 1.27935 -3.99356e-17)
(0.517646 0.307171 0)
(0.553671 0.251632 3.30068e-17)
(1.25281 1.22244 0)
(1.27302 0.984613 0)
(1.37655 1.05956 9.43584e-17)
(1.32194 0.767205 0)
(1.38626 0.635312 -3.56847e-18)
(0.990084 0.00889349 0)
(0.99817 -0.0134518 0)
(0.992677 -0.00189463 0)
(1.00923 -0.00575283 0)
(0.998758 -0.0332013 0)
(0.992636 -0.000761062 0)
(0.9269 -0.0126266 0)
(0.932304 -0.00756576 0)
(0.636002 -0.00212447 0)
(0.00224842 1.62588 6.24355e-17)
(0.00908827 1.58882 0)
(0.0270406 1.65609 1.0723e-16)
(0.00866324 1.66917 -9.99386e-17)
(0.0813265 2.01246 5.15696e-17)
(0.0346953 1.90304 0)
(0.00701937 1.9643 0)
(0.0175429 1.78136 0)
(0.0122329 1.72802 0)
(-0.00797941 1.71478 -5.35735e-19)
(-0.00641073 1.71549 0)
(0.0295648 1.726 -3.48584e-17)
(0.0196023 1.71957 5.82105e-17)
(0.0237963 1.73232 0)
(0.0250448 1.74828 0)
(0.00413478 1.73655 0)
(-0.00501238 1.74218 0)
(-0.00515809 1.78212 0)
(1.02 0.0221789 0)
(1.0233 0.0035668 0)
(1.00284 0.00644447 0)
(0.995232 0.00227486 0)
(0.969944 -0.000894229 0)
(0.957213 0.00187529 0)
(0.950665 0.00857644 0)
(0.949206 -0.000924534 0)
(0.0821731 3.04183 -1.36542e-18)
(0.109736 3.08022 0)
(0.0423703 3.02159 0)
(-0.00897774 2.96944 0)
(0.565465 2.9958 0)
(1.26625 2.32144 -3.30063e-17)
(-0.102951 2.72449 0)
(-0.0847648 2.67409 0)
(-0.0232335 1.79713 0)
(-0.00697869 1.71942 0)
(-0.00074953 1.74282 0)
(0.172865 1.8572 -7.86638e-18)
(0.015114 1.79687 0)
(0.0292524 1.78171 0)
(0.0212196 1.72377 -8.54529e-18)
(0.032019 1.71098 1.58273e-17)
(0.0088353 1.70714 2.22573e-17)
(0.00683445 1.69452 0)
(0.73355 0.172047 9.9527e-17)
(0.744052 0.0955458 -1.01657e-16)
(0.1883 1.42068 0)
(0.207208 1.36381 -2.28411e-17)
(0.12446 1.49321 -7.97839e-17)
(0.0687617 1.49662 7.07785e-17)
(0.98528 -0.00201628 0)
(0.983157 -0.0115838 0)
(0.987959 0.00655455 0)
(0.977173 0.00144271 0)
(0.00693853 1.76491 0)
(-0.0018969 1.73089 0)
(0.00457462 1.72627 0)
(0.253175 0.297063 1.00147e-16)
(0.139464 0.249764 -1.16486e-16)
(0.245827 0.194602 0)
(1.17464 0.109126 1.29314e-17)
(1.25443 0.0597224 0)
(1.10332 0.0508912 0)
(1.07379 0.0041329 0)
(0.763709 0.102276 0)
(0.803017 0.0649378 -4.83756e-16)
(0.770801 0.0589113 1.78372e-16)
(-0.138544 2.93506 1.40918e-16)
(-0.0687106 2.94278 -6.30085e-18)
(0.13459 3.12054 -2.83792e-18)
(0.153935 3.33374 1.03449e-16)
(-0.0226809 2.98534 4.98561e-18)
(-0.0624937 2.998 -2.01297e-20)
(-0.0687801 3.06273 -8.88373e-17)
(0.490906 3.21089 5.97948e-17)
(0.0983873 3.39663 -1.10053e-16)
(0.994685 0.00760745 0)
(0.981317 0.042568 0)
(0.992702 0.0107992 0)
(0.977905 -0.00503123 0)
(0.971902 -0.00363626 0)
(0.968233 -0.000688591 0)
(0.967671 -0.00658043 0)
(0.974264 0.00952091 0)
(0.969564 0.000562806 0)
(0.992001 1.45482 -9.50233e-17)
(1.03865 1.43906 0)
(0.645135 1.24292 1.27388e-17)
(0.677038 1.29965 1.04318e-16)
(0.754809 1.33045 -6.54875e-17)
(0.719489 1.29165 1.22757e-16)
(0.507587 1.3007 1.93282e-16)
(0.483245 1.28672 3.76931e-17)
(0.631399 0.249931 1.2835e-16)
(0.577216 0.27891 3.33236e-17)
(0.610708 0.236288 6.3947e-17)
(1.3004 0.568118 -1.02378e-16)
(1.35405 0.414279 -1.06364e-16)
(0.00252728 1.67852 4.28018e-17)
(-0.0025132 1.67325 0)
(1.06344 0.0394742 0)
(1.03735 0.0218243 0)
(1.04516 0.00350932 0)
(0.0267628 3.07082 0)
(0.114926 3.00278 1.96955e-16)
(0.0654349 3.00828 0)
(0.000684304 2.9603 -2.05371e-16)
(-0.0726769 3.04819 5.12397e-17)
(0.00194994 3.02055 0)
(1.0435 1.54317 2.66555e-17)
(1.15847 1.84776 -9.60586e-17)
(1.04016 1.55326 8.47861e-17)
(-0.140638 2.87821 -1.41106e-16)
(-0.140489 2.7831 0)
(-0.0777856 2.79109 0)
(-0.0102606 1.71399 8.61807e-18)
(0.0556107 1.70243 -4.76666e-17)
(-0.00429452 1.69042 8.54422e-18)
(0.235843 1.36816 7.29538e-17)
(0.263619 1.31203 -5.1962e-17)
(0.0446659 1.59499 6.00897e-17)
(0.0750425 1.54927 -7.63169e-17)
(0.0181006 1.54354 -7.23765e-18)
(-0.0230261 3.10034 -2.98573e-16)
(-0.0603182 3.10472 3.92409e-16)
(0.115784 2.96039 1.45013e-16)
(-0.134498 3.03537 -1.46949e-16)
(0.150427 2.95546 -1.38143e-16)
(-0.0773081 2.99137 -3.79367e-16)
(-0.178235 3.06486 3.57116e-16)
(0.544233 1.29267 0)
(0.5995 1.27535 -2.08498e-16)
(0.574959 1.23557 8.77289e-17)
(0.427631 1.32356 1.05775e-16)
(0.400063 1.29384 -1.53476e-16)
(1.25182 0.213885 5.09365e-17)
(1.29671 0.400782 0)
(1.33787 0.256879 -5.42083e-17)
(-0.0208191 1.72706 -6.06363e-19)
(0.000619968 1.69541 0)
(0.00887141 1.71279 0)
(0.2878 1.35081 -2.73183e-17)
(0.359558 1.33383 -6.57775e-17)
(0.35035 1.3304 1.10125e-16)
(0.996567 -0.0814884 0)
(1.11271 -0.143199 1.54464e-16)
(0.090923 1.73526 0)
(0.0434264 1.6133 0)
(1.05422 -0.081553 -7.00701e-20)
(0.884138 -0.108775 3.05042e-16)
(0.118009 1.91971 -1.67781e-17)
(0.111469 1.74118 0)
(-0.155424 2.83991 1.41657e-16)
(0.101098 2.63492 0)
(1.20101 0.656931 -5.20816e-17)
(1.07283 -0.00702837 1.1683e-17)
(1.09339 0.0194129 0)
(0.973243 -0.00576805 4.4551e-20)
(0.0152616 1.92392 0)
(0.105177 1.81351 0)
(-0.0166039 1.83006 0)
(0.104699 1.85381 2.65639e-17)
(0.06577 1.83897 3.55724e-17)
(1.00954 0.0039257 1.1485e-17)
(1.09286 0.0690589 0)
(1.10926 0.0546445 0)
(-0.0269306 1.70418 0)
(0.0629919 1.787 0)
(-0.0726777 1.81889 0)
(0.277215 2.00409 5.18986e-17)
(1.03093 -0.155507 0)
(0.974951 -0.0587598 0)
(0.968088 0.169343 1.90301e-16)
(0.921421 0.0592559 -2.28021e-16)
(1.12765 -0.0799587 0)
(0.150878 1.77383 0)
(-0.125327 1.71161 0)
(-0.067333 1.85011 0)
(-0.0786006 1.76539 0)
(-0.241771 1.84331 0)
(-0.0273086 1.58013 0)
(1.0246 0.00327963 0)
(1.03561 -0.00402189 1.1736e-17)
(0.942912 1.6825 -7.88752e-17)
(0.99996 -0.191157 -1.90248e-16)
(1.01272 0.076212 2.28748e-16)
(1.15968 0.0727163 0)
(0.985646 -0.0112818 1.93105e-16)
(1.09343 0.140365 -2.2299e-16)
(0.953417 0.0170414 0)
(0.0357782 1.75873 0)
(0.198875 1.77416 7.03797e-18)
(-2.26218e-06 1.63558 -1.46023e-17)
(1.19917 0.27641 2.5884e-16)
(1.13244 0.0856396 0)
(-0.89541 2.79287 -1.87065e-16)
(-0.303977 3.50121 -1.21783e-17)
(-0.496874 2.62482 2.81495e-16)
(-0.0458841 2.76203 -7.45099e-17)
(-0.0525153 2.71777 0)
(-0.0747848 2.90891 6.42681e-17)
(-0.494659 3.08848 1.83725e-16)
(-0.137 2.88631 -1.14357e-16)
(-0.409645 3.07258 0)
(0.604444 0.316367 0)
(0.420979 0.365631 0)
(1.03565 0.885904 1.50043e-16)
(1.13892 0.906113 -1.85185e-16)
(1.14565 0.532988 0)
(1.11939 0.583038 0)
(1.03076 0.0599826 -3.54593e-16)
(0.950399 0.0319397 4.40577e-16)
(1.09506 -0.166089 0)
(0.947434 -0.0680126 0)
(0.83931 0.0911711 0)
(1.10551 -0.0809843 0)
(1.02617 0.101339 0)
(0.951227 -0.0115947 0)
(1.0505 -0.167304 0)
(0.962806 -0.0143206 0)
(-0.00131656 1.84282 0)
(0.0452235 1.72595 0)
(-0.00071979 1.84491 0)
(0.111616 1.8027 0)
(0.243637 1.79429 0)
(0.0886922 1.61678 -4.64655e-17)
(0.110164 1.67306 0)
(-0.0110251 1.62255 4.6371e-17)
(0.0905304 1.79111 -7.01851e-17)
(0.0729909 1.77757 0)
(0.0908263 1.65673 0)
(-0.081185 1.7358 0)
(-0.0620709 1.68646 0)
(-0.0453864 1.78921 -4.31326e-17)
(0.0671346 1.72323 2.81431e-17)
(-0.0451578 1.79968 4.75227e-17)
(0.0129181 1.60976 0)
(-0.0363449 1.78772 -5.41334e-17)
(-0.0148872 1.65892 -4.6138e-17)
(0.145624 1.86776 8.16603e-18)
(-0.243879 1.4527 -5.15386e-17)
(-0.00933901 1.5045 -4.58152e-17)
(0.971445 -0.0474449 3.17413e-16)
(0.930314 -0.0552387 -4.00908e-16)
(0.967244 0.0549638 -3.10074e-16)
(0.890507 0.037653 3.84166e-16)
(1.07509 0.160834 0)
(0.951256 0.0510214 0)
(1.03219 0.0885217 0)
(1.04937 -0.0298339 0)
(0.9112 0.0117125 0)
(1.09089 0.128138 0)
(1.0798 0.00649641 0)
(0.939299 0.0417522 0)
(-0.263446 1.64327 2.2636e-19)
(-0.0970856 1.77737 0)
(0.0357006 1.78875 0)
(0.130032 1.71248 9.44931e-18)
(0.108196 1.68739 -4.89913e-19)
(-0.0549802 1.73037 2.00301e-17)
(-0.324366 1.66267 -6.5457e-18)
(-0.212219 1.70429 0)
(0.0589303 1.82601 0)
(0.0715439 1.70862 0)
(-0.141025 1.75021 0)
(-0.121678 1.71322 0)
(0.337916 1.90053 -1.41886e-16)
(0.455792 1.95681 -3.97993e-17)
(0.269949 1.50124 -1.93678e-17)
(0.165678 1.6373 6.66284e-17)
(0.306413 1.80365 3.35058e-17)
(1.03615 0.0459431 0)
(0.995216 0.0604329 0)
(0.982463 0.0634667 0)
(0.950365 -0.0363359 0)
(1.03192 -0.103897 0)
(0.922772 0.0395304 0)
(1.00714 0.174141 0)
(1.02003 -0.0313311 0)
(0.977023 -0.0465905 3.38464e-16)
(0.94946 -0.0411451 -4.28135e-16)
(0.995454 0.050549 -3.31801e-16)
(0.927184 0.0376126 4.14223e-16)
(0.87791 1.65942 0)
(0.834571 1.70104 -1.13203e-16)
(0.843977 1.60946 -7.31539e-17)
(0.969316 1.4211 1.22871e-16)
(0.917975 1.60179 2.58203e-16)
(0.835918 0.115664 1.17209e-16)
(1.08886 0.087585 0)
(1.14301 0.329908 -2.34523e-16)
(1.01881 0.116515 -9.43221e-18)
(0.968772 0.132021 0)
(-0.802128 2.55409 1.58784e-16)
(-1.05425 2.46559 -2.38526e-16)
(-1.46743 3.09325 1.45112e-16)
(-1.63728 0.969087 -6.43136e-17)
(-0.12896 2.61866 7.81265e-17)
(-0.250142 2.77002 0)
(-0.0474142 2.63102 -1.08716e-16)
(-0.427041 2.48533 -3.43576e-16)
(-0.28597 2.48304 0)
(-0.167936 2.89098 1.02979e-17)
(-0.101776 3.20958 -1.18762e-16)
(-0.0578906 2.97228 1.63871e-16)
(-0.315595 3.04319 0)
(-0.0728857 2.94529 0)
(1.06898 1.75098 0)
(0.334346 1.2552 -8.401e-17)
(1.07967 1.12807 6.48179e-17)
(0.883001 1.46359 0)
(0.756365 1.0827 -5.49062e-17)
(0.984337 1.14787 -8.12985e-18)
(-0.0777691 0.118914 -1.52375e-16)
(0.603691 0.268251 1.51567e-18)
(0.584498 0.288109 7.52044e-17)
(0.320059 0.484847 4.98875e-18)
(0.228014 0.336873 -1.96685e-16)
(0.506071 0.454867 0)
(0.495654 0.595865 1.25153e-16)
(0.52373 0.348889 0)
(0.386402 0.376081 0)
(0.426073 0.339498 0)
(0.558675 0.761336 1.03669e-16)
(1.20359 0.204828 -2.12182e-16)
(1.08683 0.573109 0)
(1.15928 0.27219 0)
(0.75552 0.226906 1.16492e-16)
(0.538288 0.753397 -6.87473e-17)
(0.48393 0.546024 1.39785e-16)
(0.819711 0.421654 -1.85637e-16)
(0.968036 -0.0483146 2.34913e-16)
(0.992311 0.184607 -2.2901e-16)
(0.943269 0.0432886 0)
(0.960043 -0.0307704 0)
(0.964495 -0.0245096 -2.26568e-16)
(0.939818 0.0401388 2.13378e-16)
(0.91653 0.109269 0)
(0.895945 0.0439676 0)
(1.04735 -0.0193813 0)
(0.906038 -0.0555574 0)
(1.05154 -0.0188541 0)
(0.957795 -0.0701087 0)
(0.248781 1.79782 0)
(0.143552 1.74421 0)
(0.271792 1.81606 -7.37142e-17)
(0.335947 1.95567 -4.37103e-17)
(0.361583 1.85477 -7.018e-17)
(0.236441 1.87392 1.37898e-16)
(-0.0682128 1.76381 0)
(0.117736 1.77376 -5.87793e-17)
(-0.106259 1.88823 0)
(0.208732 1.63446 -3.47775e-17)
(0.0879893 1.54396 8.29752e-17)
(0.336437 1.53999 7.23196e-17)
(0.145191 1.65555 -4.22949e-17)
(0.0213384 1.67744 2.23474e-17)
(0.139325 1.7529 -9.45997e-17)
(0.210079 1.7261 0)
(0.273101 1.58888 6.14643e-17)
(0.1568 1.62152 -2.18444e-17)
(0.186595 1.72957 0)
(-0.013236 1.76902 5.13437e-17)
(-0.176489 1.62983 0)
(0.0113987 1.66417 -4.03839e-17)
(0.0106471 1.59017 0)
(-0.0162962 1.74838 -3.26743e-17)
(0.0782803 1.62062 0)
(0.00550591 1.71806 0)
(0.0790198 1.67774 5.4682e-17)
(0.192488 1.77449 -1.6052e-17)
(0.00279477 1.72463 6.19232e-17)
(0.0485727 1.62854 5.129e-19)
(0.182078 1.69512 3.44274e-17)
(0.0310676 1.42276 7.46076e-18)
(-0.202716 1.66026 0)
(-0.107019 1.72264 0)
(-0.00972607 1.59356 6.91917e-17)
(-0.0449292 1.64041 6.63504e-17)
(0.0753765 1.75973 -7.03204e-17)
(-0.0270179 1.78832 0)
(0.141989 1.77923 -2.67885e-17)
(-0.0538351 1.54462 2.1043e-17)
(-0.0599897 1.70229 -8.61592e-18)
(0.158965 1.89919 -1.57831e-17)
(0.276372 1.52519 -9.92585e-18)
(0.0203607 1.496 3.54481e-17)
(0.953644 0.0675987 -2.14938e-16)
(0.958569 -0.160601 2.20379e-16)
(0.923121 0.0248245 0)
(0.940248 -0.0760693 2.71497e-16)
(0.880847 0.193912 -3.03146e-16)
(0.945064 0.0233047 3.33981e-16)
(0.929558 -0.0279147 -3.77399e-17)
(1.0514 -0.127382 0)
(0.969281 0.0144887 2.04926e-16)
(0.916749 -0.0466417 -2.17367e-16)
(0.907331 -0.0541524 -1.19358e-17)
(0.907134 0.197611 1.0441e-16)
(0.989271 0.138255 0)
(0.908758 0.0835466 -3.6346e-17)
(0.981027 0.0421947 0)
(0.877688 0.0952923 0)
(0.988202 0.0682798 0)
(0.884017 -0.0287412 0)
(0.957996 0.0988883 7.66526e-17)
(1.03178 0.0307702 -1.63235e-16)
(0.969477 -0.00268595 -8.33296e-17)
(0.941337 -0.0150178 -8.76006e-17)
(1.11963 0.0985382 1.78568e-16)
(0.896984 0.107166 0)
(0.880369 -0.0138587 0)
(0.0120186 1.88254 -2.6704e-17)
(0.330414 1.85876 -1.69802e-18)
(0.123279 1.58238 0)
(0.0760074 1.69736 1.05699e-17)
(-0.22013 1.71969 4.07751e-18)
(-0.137509 1.72614 -3.67786e-18)
(-0.142683 1.73701 1.92158e-17)
(-0.059684 1.68478 -1.94334e-18)
(0.269099 1.62251 8.34857e-18)
(0.154013 1.6959 -1.07701e-17)
(-0.0569234 1.68977 2.44767e-17)
(-0.0808273 1.58567 -2.93691e-18)
(0.0388817 1.86117 1.47345e-17)
(0.479342 1.67801 7.59536e-17)
(0.264633 1.83909 9.80772e-17)
(0.736012 1.78517 8.43745e-17)
(0.579227 1.91556 5.04384e-17)
(0.660271 1.90819 0)
(0.315222 1.43915 2.40423e-17)
(0.240658 1.34352 2.8586e-17)
(0.22088 1.50669 -8.38177e-19)
(0.193143 1.45948 -1.17517e-16)
(0.477861 1.5051 7.6287e-17)
(0.12407 1.50645 0)
(0.123265 1.38951 -5.08461e-17)
(0.0710425 1.64777 1.29167e-16)
(-0.0743157 1.63425 7.82758e-18)
(0.00868401 1.50676 -1.59858e-16)
(0.6913 1.40039 1.26074e-16)
(0.472694 1.42672 0)
(1.04033 0.225529 7.5897e-18)
(0.9892 -0.190722 -6.3581e-18)
(0.8988 -0.146901 -1.15809e-16)
(1.01086 0.0343072 1.1376e-16)
(0.935526 0.0074634 0)
(0.721 1.54268 0)
(0.94798 1.61279 0)
(0.815097 1.25554 0)
(0.739415 1.45866 0)
(0.787365 1.60853 3.69404e-18)
(0.706137 1.46154 0)
(0.538577 1.30932 1.28037e-18)
(0.412369 1.41892 0)
(0.552324 1.57687 -1.09364e-16)
(0.665197 1.36849 8.67641e-17)
(0.7786 0.0847254 0)
(0.77601 0.124058 3.05211e-17)
(0.811295 0.163173 2.03858e-16)
(0.828844 0.0602082 -7.54046e-17)
(0.80933 0.100607 -2.24788e-16)
(1.13056 0.227226 -2.74612e-16)
(0.622017 0.480431 3.63771e-18)
(0.959591 0.0962375 1.87957e-16)
(0.850316 0.0653246 1.69803e-16)
(0.798082 0.204929 -2.71435e-16)
(0.892983 0.293339 3.20049e-17)
(0.635798 0.318605 -7.51953e-17)
(0.784423 0.326216 0)
(0.886249 0.169549 1.43636e-16)
(0.960925 0.187177 0)
(0.993368 0.100291 0)
(0.887578 0.25001 8.23771e-17)
(0.896525 0.408772 3.95892e-18)
(0.794874 0.0675726 -4.19675e-17)
(0.904047 0.0572912 0)
(0.872067 0.0451124 1.59561e-16)
(0.88171 -0.14813 2.12362e-16)
(1.08409 0.0919072 -1.64125e-16)
(0.966218 0.212881 -1.32583e-16)
(0.911848 -0.0349988 -2.07767e-16)
(0.819687 0.235188 0)
(0.893648 0.0282805 0)
(0.868484 0.136864 -1.0988e-16)
(0.890502 -0.0806191 4.48621e-17)
(0.986677 0.190654 1.80928e-16)
(1.03077 0.105155 -2.40393e-16)
(0.888 0.175658 2.02716e-16)
(0.842475 0.25851 0)
(1.03263 0.190568 0)
(0.848691 0.116597 -9.15853e-17)
(0.895252 0.0852891 -1.58397e-16)
(0.573123 1.62045 6.96908e-17)
(0.622651 1.45842 -6.90641e-17)
(0.816538 1.56895 -9.73711e-17)
(0.735034 1.66561 2.54149e-17)
(0.912479 1.57863 -2.69606e-16)
(1.01787 1.73074 9.21598e-17)
(0.910439 1.48879 8.38978e-19)
(0.939378 1.71991 -1.15312e-16)
(0.721169 1.66193 1.65043e-16)
(0.758284 1.88882 5.21401e-17)
(1.08514 1.84534 -5.33561e-17)
(1.04322 1.94097 0)
(0.499288 1.41683 -1.12971e-17)
(-0.698095 1.81207 6.90816e-17)
(-0.686557 0.5209 9.61998e-17)
(-0.616303 0.709954 1.1012e-16)
(0.129046 0.456954 1.11275e-16)
(0.108808 0.43166 -1.90539e-16)
(0.03753 0.667249 1.56079e-16)
(-0.141392 0.350537 -5.6696e-17)
(0.105773 0.281498 1.25021e-16)
(0.691129 0.304185 -6.27674e-17)
(0.597444 0.354543 0)
(0.617945 0.269465 7.63688e-19)
(0.518805 0.517142 6.41441e-17)
(0.247679 0.638697 -2.37654e-16)
(0.174616 0.583309 -6.92338e-19)
(0.367452 0.432755 0)
(0.453145 0.959946 7.68224e-17)
(0.668931 0.864056 1.18766e-16)
(0.654482 1.31662 -1.18562e-16)
(0.636267 0.89683 -4.62016e-17)
(0.848384 0.887438 -1.91526e-17)
(0.963985 1.14867 1.82747e-17)
(0.630749 0.76623 -1.64019e-16)
(0.705687 1.02048 4.64567e-17)
(1.01034 0.833691 0)
(0.883079 0.765642 -6.29209e-17)
(0.829257 0.353343 6.67094e-17)
(0.888835 0.448832 1.12329e-16)
(1.02247 0.342045 9.77812e-17)
(0.841166 0.455602 -1.05786e-16)
(0.998156 0.394381 0)
(0.970972 0.346547 0)
(0.630194 0.43936 6.28881e-18)
(0.794065 0.240412 0)
(0.575061 0.336785 7.75115e-17)
(0.853812 0.298749 9.03508e-18)
(0.874688 0.654964 4.7845e-16)
(0.676472 0.581055 1.27397e-16)
(0.622892 0.551268 -1.20319e-16)
(0.599062 0.489763 1.29535e-16)
(0.599007 0.617425 6.99444e-17)
(0.511696 0.409324 -6.78583e-17)
(1.00841 0.10736 1.77573e-16)
(0.895126 -0.160069 0)
(0.915946 0.0256789 1.24753e-16)
(0.838532 0.25296 -2.79797e-16)
(1.0371 -0.0101027 1.31663e-16)
(0.86422 0.0333259 -2.85057e-16)
(1.01966 -0.0230376 0)
(0.936395 -0.0053842 -5.64743e-17)
(0.938745 0.107781 1.46259e-16)
(0.943548 2.3598e-05 -7.51417e-17)
(0.905709 -0.167037 5.59617e-17)
(-0.146396 1.75115 0)
(0.25173 1.61744 0)
(-0.100284 1.73855 0)
(-0.0226596 1.74521 0)
(0.0456867 1.87075 1.18178e-16)
(-0.0165348 1.76159 -5.25834e-17)
(0.113557 1.54454 -3.78443e-17)
(0.24013 1.51648 2.28298e-17)
(-0.310984 1.82194 -6.64895e-17)
(0.097752 1.57804 6.57347e-17)
(-0.00897165 1.84481 1.68874e-17)
(0.0289084 1.58976 -6.22864e-17)
(0.134282 1.71159 -8.22948e-18)
(0.364522 1.71188 -8.55871e-18)
(-0.0745657 1.67051 -7.77183e-17)
(0.0771097 1.60059 0)
(-0.0491453 1.71494 2.45112e-17)
(0.0470448 1.69833 2.9298e-17)
(0.0774968 1.52278 -2.7895e-17)
(0.000352274 1.70928 0)
(0.203669 1.50833 -9.68859e-17)
(0.0573264 1.58024 8.09507e-17)
(0.382152 1.60635 -7.73975e-17)
(0.167595 1.60391 2.29095e-17)
(-0.202269 1.32917 0)
(0.0956248 1.48273 -6.68314e-17)
(-0.0827217 1.42332 -8.18913e-17)
(-0.125602 1.63407 0)
(0.0431528 1.67593 2.70071e-18)
(-0.0223832 1.84664 3.79729e-17)
(-0.0216465 1.61955 7.70944e-18)
(0.0796508 1.53148 -1.12799e-16)
(-0.0802764 1.77444 1.72542e-17)
(-0.196385 1.31848 3.98874e-17)
(0.11054 1.91569 0)
(0.0131031 1.85346 0)
(-0.170943 1.75209 2.07466e-17)
(0.198743 1.66172 -8.88156e-18)
(-0.0636181 1.71784 0)
(0.110324 1.7453 2.64507e-17)
(0.0440713 1.6932 -4.11127e-17)
(0.900491 0.338505 0)
(1.08183 0.0872977 -1.95127e-17)
(0.873112 0.160327 -1.30436e-16)
(0.848225 -0.00124618 0)
(0.831671 -0.218862 0)
(1.08003 -0.0687061 2.69924e-18)
(0.960799 -0.205802 2.14322e-16)
(0.859471 0.00341191 2.68608e-16)
(0.985051 0.0200214 0)
(0.935435 -0.00960223 0)
(0.898122 -0.0778561 1.40078e-16)
(0.918562 0.0321997 0)
(0.88263 0.174299 0)
(-0.0260003 1.74385 0)
(-0.0727946 1.47857 -5.12572e-18)
(-0.117552 1.4892 1.58039e-17)
(-0.0748719 1.68619 0)
(0.246431 1.78272 8.53113e-18)
(0.0431674 1.70503 -1.02284e-17)
(0.0463084 1.55296 0)
(0.228009 1.58656 0)
(0.290414 1.35814 -1.63466e-16)
(0.287266 1.40392 0)
(0.495123 1.79211 2.17312e-16)
(0.557554 1.7225 0)
(0.605216 1.77486 -8.5097e-17)
(0.433299 1.28889 -3.19951e-18)
(0.786798 1.32435 -1.64384e-16)
(0.620445 1.30869 1.94387e-16)
(0.542929 1.35531 3.45519e-17)
(0.375645 1.42165 0)
(0.575284 1.35776 0)
(0.533153 1.41487 0)
(0.453894 1.28742 -1.26247e-16)
(0.408932 1.45675 -9.8488e-17)
(0.250663 1.4004 -2.12637e-17)
(0.522481 1.56237 1.825e-17)
(0.235553 1.41014 0)
(0.466025 1.37544 0)
(0.355712 1.3322 -3.37753e-17)
(0.375355 1.48777 0)
(0.505195 1.41123 0)
(0.71153 1.37344 -1.5256e-16)
(0.412889 1.11979 -9.56428e-18)
(0.832127 1.4995 0)
(0.707789 1.62222 2.07937e-16)
(0.733184 1.46441 -4.71118e-17)
(1.11621 1.20734 0)
(0.875154 0.959174 7.59589e-17)
(0.316343 1.6182 0)
(0.283738 1.28071 0)
(0.758461 1.33999 -8.83974e-17)
(0.707057 1.57596 -6.97527e-17)
(0.84269 1.49297 1.11713e-16)
(0.708731 1.54986 -3.4945e-17)
(0.736981 1.44633 0)
(0.678836 1.38564 4.40559e-17)
(0.753707 1.41876 -7.06084e-17)
(0.741698 1.3747 -8.11139e-19)
(0.598604 1.38461 0)
(0.542474 1.51422 -5.17745e-17)
(0.588953 1.33487 0)
(0.778707 0.136704 0)
(0.780177 0.227536 0)
(0.665827 0.195243 0)
(0.734151 0.355366 -1.28316e-16)
(0.734818 0.178393 7.11962e-17)
(1.03533 -0.0343295 -8.99898e-17)
(0.839279 -0.0339076 0)
(0.904403 -0.0162521 3.76256e-17)
(0.818076 0.187278 1.49494e-16)
(0.717503 0.0868098 -9.6224e-17)
(0.945525 2.33423 8.61238e-17)
(0.8255 1.94874 0)
(0.911705 2.30796 1.37275e-16)
(0.211232 2.46744 -1.37012e-16)
(0.136188 1.91213 -8.77678e-17)
(0.126832 1.41144 1.13474e-16)
(0.348296 1.49289 0)
(0.17667 1.06841 -2.20837e-17)
(-0.0437364 1.24228 1.59135e-16)
(-0.369465 1.0925 -3.43359e-17)
(-0.0365475 0.687951 3.85484e-17)
(0.165976 0.704952 8.41611e-17)
(0.46687 0.740575 0)
(0.190178 0.977857 0)
(0.0172308 0.997871 0)
(0.788654 0.780248 5.52419e-17)
(0.748179 0.6167 -1.20869e-16)
(0.895943 0.65052 1.12005e-16)
(0.737865 0.405962 -9.70452e-17)
(0.98131 0.707981 0)
(0.882058 0.667035 -3.60465e-17)
(0.756036 0.377625 -1.66079e-16)
(0.720241 0.227814 -2.12597e-16)
(0.548589 0.476897 1.27057e-16)
(0.551594 0.490658 -1.20656e-16)
(0.712365 0.411124 -1.01771e-16)
(0.644053 0.324369 1.21041e-16)
(1.05096 0.000746067 -1.49018e-16)
(1.05267 0.0267276 2.92904e-16)
(1.04812 0.0372745 1.82631e-16)
(1.01758 -0.0878664 -2.08517e-16)
(0.724196 0.0992121 0)
(0.674739 -0.0395773 -3.52045e-16)
(0.157369 1.49909 1.79257e-17)
(-0.189111 1.72042 0)
(0.173525 1.7846 1.12339e-16)
(0.120419 1.70998 -1.18404e-16)
(0.0199313 1.81045 5.65156e-17)
(0.164979 1.72736 0)
(-0.0863684 1.71826 0)
(0.115256 1.52574 -1.14327e-17)
(-0.0454243 1.52171 4.54453e-18)
(0.224066 1.53598 -6.43928e-18)
(-0.315611 1.7935 -1.4953e-17)
(-0.162591 1.64437 6.86458e-18)
(0.534264 1.57037 -1.88492e-16)
(0.717155 1.6109 1.61701e-16)
(0.447531 1.76967 -1.05181e-16)
(0.715365 1.60574 7.5295e-18)
(0.530977 1.71953 0)
(0.684847 1.7681 -1.01123e-16)
(0.574702 1.68024 1.19339e-16)
(0.499847 1.64007 1.21749e-16)
(0.560265 1.68091 0)
(0.778549 1.65092 0)
(0.744362 1.39835 1.34745e-16)
(0.259691 1.53601 1.72769e-16)
(0.0945916 1.54987 -1.32493e-16)
(-0.0364167 1.56084 -2.1178e-17)
(0.363529 1.38656 4.39163e-17)
(0.31905 1.25566 -1.07675e-16)
(0.672123 1.33975 -1.13999e-16)
(0.606468 1.41131 0)
(0.607993 1.34304 -1.24029e-16)
(0.786862 1.40022 0)
(0.6245 1.58413 0)
(0.61883 1.8528 -1.03807e-16)
(0.634084 1.83633 -1.03839e-16)
(0.393888 2.01615 1.07056e-16)
(-0.522069 1.67708 0)
(-0.0395533 1.54634 -5.35892e-17)
(0.0930454 1.53552 -8.04034e-17)
(0.498394 1.64481 0)
(0.477713 2.06401 6.49423e-17)
(0.00585537 2.21513 0)
(0.542464 1.01877 -1.75592e-16)
(0.552215 1.05751 2.44183e-16)
(0.719878 0.838649 -2.51397e-16)
(0.315648 0.856967 -2.1132e-17)
(0.324428 0.873762 -8.80894e-17)
(0.786146 1.77712 7.68526e-17)
(0.726281 1.7007 -1.34442e-16)
(0.555844 1.78129 1.71808e-16)
(0.570463 1.63625 -1.04328e-16)
(0.637099 1.75057 -1.50178e-16)
(0.664342 1.76342 -1.65032e-17)
(0.786747 1.5718 1.30329e-16)
(0.597035 1.73456 9.4415e-18)
(0.582113 1.5229 6.77909e-17)
)
;

boundaryField
{
    wall-4
    {
        type            calculated;
        value           uniform (0 0 0);
    }
    velocity-inlet-5
    {
        type            calculated;
        value           uniform (1 0 0);
    }
    velocity-inlet-6
    {
        type            calculated;
        value           uniform (0 3 0);
    }
    pressure-outlet-7
    {
        type            calculated;
        value           nonuniform List<vector> 8((-0.318966 1.70561 0) (0.299892 1.7926 5.30036e-18) (-0.0367488 1.69587 0) (-0.0171116 1.62342 0) (0.0042684 1.72963 0) (-0.00685688 1.74411 0) (0.000402712 1.7372 0) (0.0356264 1.7763 0));
    }
    wall-8
    {
        type            calculated;
        value           uniform (0 0 0);
    }
    frontAndBackPlanes
    {
        type            empty;
    }
}

