/*--------------------------------*- C++ -*----------------------------------*\
  =========                 |
  \\      /  F ield         | OpenFOAM: The Open Source CFD Toolbox
   \\    /   O peration     | Website:  https://openfoam.org
    \\  /    A nd           | Version:  6
     \\/     M anipulation  |
\*---------------------------------------------------------------------------*/
FoamFile
{
    version     2.0;
    format      ascii;
    class       volScalarField;
    location    "0";
    object      p;
}
// * * * * * * * * * * * * * * * * * * * * * * * * * * * * * * * * * * * * * //

dimensions      [0 2 -2 0 0 0 0];

internalField   nonuniform List<scalar> 
13046
(
0.881505
0.878272
0.982423
0.883153
0.96027
0.914589
0.86154
0.916933
0.974629
0.594256
0.77432
0.992313
0.84971
0.877729
0.982897
0.664705
0.99845
0.758691
0.942206
0.943821
0.883909
0.653736
0.997901
0.764879
0.890934
0.906896
0.964665
0.83968
0.866462
0.992271
0.889411
0.865797
0.977986
0.908275
0.957955
0.904455
0.907503
0.956721
0.915452
0.915322
0.97887
0.823693
0.914848
0.939535
0.926894
0.904491
0.93487
0.939091
0.86549
0.884299
0.983216
0.968301
0.938795
0.766714
0.9726
0.744354
0.949395
0.753476
0.800474
1.00198
0.764878
0.902997
0.986
0.994193
0.821725
0.684627
0.822263
0.748394
0.998713
0.836373
0.752478
0.997273
0.745587
0.787752
1.00119
0.94058
0.955814
0.867725
1.00388
0.750972
0.753912
0.87958
0.909833
0.966689
0.993665
0.813196
0.664939
0.653121
0.990454
0.863808
0.982818
0.605361
0.88931
0.778431
0.757575
0.850901
0.849958
0.992735
0.997177
0.990133
0.654083
0.877061
0.896778
0.94249
0.934629
0.963107
0.772547
0.962195
0.93059
0.976002
0.787377
0.513154
0.988031
0.728041
0.858954
0.886944
0.976439
0.765125
0.779783
0.81959
0.997836
0.833964
0.996289
0.578778
0.75818
0.992972
0.81655
0.848628
0.996361
0.904431
0.980684
0.828987
0.977497
0.622168
0.904477
0.719759
0.852756
0.993593
0.878953
0.862149
0.979665
0.809317
0.933465
0.971533
0.935145
0.970355
0.780772
0.958887
0.789121
0.961566
0.75848
0.890133
0.985846
0.969878
0.829602
0.94429
0.95485
0.728686
0.946057
0.720634
0.964813
0.970784
0.804014
0.934362
0.963044
0.588759
0.990034
0.792405
0.540867
0.989089
0.738076
0.712865
0.839795
0.997292
0.900371
0.794129
0.989141
0.810375
0.957385
0.941452
0.994009
0.815987
0.592608
0.905913
0.805651
0.98288
0.967636
0.815867
0.947398
0.823564
0.932974
0.965794
0.87789
0.989118
0.824488
0.861919
0.98996
0.646421
0.990732
0.836362
0.984248
0.649146
0.895552
0.614271
0.878006
0.980355
0.973782
0.732122
0.931202
0.836004
0.758098
1.00583
0.743883
0.857883
0.603896
0.987256
0.894505
0.956177
0.923962
0.853492
0.862172
0.991737
0.982862
0.639671
0.905581
0.823666
0.888227
0.989745
0.988928
0.773119
0.544475
0.938242
0.726141
0.969541
0.635799
0.885526
0.983132
0.759438
0.940554
0.971911
0.815996
0.840885
0.997208
0.9311
0.654651
0.969221
0.700441
0.943885
0.967745
0.986388
0.7805
0.525662
0.92767
0.98358
0.783675
0.541232
0.988607
0.688754
0.944369
0.883918
0.938572
0.766806
0.774135
0.929121
0.937498
0.975672
0.971321
1.00033
0.730853
0.750181
0.835131
0.842359
0.992708
0.692311
0.930344
0.976402
0.740471
0.837531
0.995686
0.924566
0.916103
0.943303
0.737804
0.937043
0.972756
0.837191
0.826032
0.995256
0.826925
0.816685
0.929971
0.982147
0.772588
0.730515
0.926651
0.975901
0.718943
0.99612
0.839091
0.942109
0.969914
0.803976
0.963819
0.717864
0.95474
0.795038
0.806531
0.995966
0.934609
0.972474
0.766705
0.778911
0.76501
0.802265
0.997404
0.804468
1.00089
0.992915
0.819113
0.610615
0.795481
0.83351
0.997951
0.676345
0.986628
0.473557
0.856749
0.947577
0.942248
0.782529
0.904199
0.984119
0.992669
0.669857
0.843923
0.973427
0.726594
0.948725
0.919704
0.650344
0.975053
0.903791
0.982565
0.778643
0.883928
0.989676
0.905687
0.978701
0.686189
0.9975
0.767728
0.98065
0.721532
0.929063
0.763384
0.882179
0.989955
0.800744
0.931367
0.975206
0.777296
0.961228
0.953372
0.877806
0.895993
0.974247
0.951337
0.723087
0.960586
0.632835
0.854486
0.986382
0.920126
0.65366
0.978166
0.8578
0.993114
0.75567
0.761331
0.776484
0.782437
0.77514
0.997819
0.997894
0.986231
0.685511
0.493496
0.557996
0.990387
0.69634
0.753347
0.9265
0.970557
0.990446
0.638054
0.821994
0.824279
0.810767
0.779827
0.782204
0.999217
0.99937
0.979248
0.853731
0.560504
0.528956
0.989596
0.663088
0.893144
0.932836
0.948283
0.514188
0.700771
0.988177
0.88368
0.805279
0.98924
0.596083
0.826209
0.992917
0.704665
0.982152
0.417013
0.922423
0.973637
0.833511
0.865413
0.942665
0.953468
0.590913
0.994391
0.747438
0.853239
0.943163
0.955777
0.902125
0.93354
0.944139
0.949359
0.70624
0.972293
0.853004
0.960738
0.940611
0.86157
0.947096
0.940546
0.87292
0.753276
0.991506
0.99936
0.998252
0.775624
0.781635
0.629682
0.621231
0.611012
0.854043
0.986134
0.998865
0.851472
0.741227
0.913808
0.980021
0.802473
0.69135
0.946051
0.960068
0.764018
0.980599
0.448819
0.984643
0.600355
0.879124
0.550765
0.990832
0.75389
0.981086
0.68548
0.411934
0.650565
0.982529
0.446161
0.910792
0.720313
0.979136
0.827101
0.978089
0.51161
0.702659
0.860925
0.992826
0.643847
0.996754
0.721244
0.849843
0.976979
0.904497
0.862334
0.982052
0.574505
0.699939
0.956738
0.949989
0.923286
0.693473
0.981181
0.979421
0.599018
0.358266
0.703419
0.985702
0.451734
0.864591
0.97351
0.904449
0.844674
0.562736
0.98159
0.981386
0.540469
0.850762
0.645341
0.992434
0.816716
1.00052
0.772201
0.714718
0.887527
0.736616
0.99483
0.770459
0.796259
1.00274
1.00106
0.699547
0.73793
0.864048
0.85341
0.827392
0.820624
0.991185
0.992906
0.877333
0.820796
0.989671
0.837519
0.762919
1.00216
0.921559
0.671816
0.976957
0.84802
0.605004
0.992282
0.980254
0.670234
0.902965
0.650241
0.983904
0.467835
0.911574
0.902033
0.978584
0.846588
0.97869
0.858843
0.862239
0.866659
0.993643
0.775108
0.996883
0.783564
0.721881
0.980025
0.421527
0.847067
0.578942
0.983034
0.912985
0.979764
0.774404
0.937211
0.669774
0.968397
1.00078
0.770643
0.729623
0.743247
0.493422
0.985807
0.763151
0.501159
0.985784
0.809904
0.795625
1.00112
0.947621
0.962817
0.814118
0.629792
0.992845
0.799815
0.91089
0.702465
0.986248
0.998267
0.819291
0.706903
0.879121
0.994632
0.776249
0.766619
0.947922
0.962755
0.922285
0.978327
0.810069
0.992552
0.804783
0.608924
0.744061
0.821443
0.998511
0.921784
0.972683
0.845592
0.679238
1.00056
0.728284
0.873523
0.847207
0.987358
0.837415
0.932497
0.96787
0.925205
0.707766
0.976433
0.589309
0.994529
0.703074
0.606931
0.995678
0.70198
0.999627
0.806028
0.709304
0.748323
0.95761
0.957287
0.993507
0.684498
0.565632
0.991701
0.853724
0.683093
0.979461
0.673882
0.392743
0.429971
0.622161
0.98378
1.00125
0.752983
0.700745
0.989946
0.791822
0.56817
0.655898
0.670545
0.994066
0.779941
0.995285
0.794759
0.674932
0.868037
0.989977
0.971792
0.94639
0.669564
0.905492
0.96877
0.880689
0.682203
0.886852
0.988212
0.986789
0.687431
0.895479
0.718691
1.00101
0.733399
0.856827
0.763559
0.998697
0.872167
0.800697
0.989178
0.729462
0.894904
0.99158
0.717989
0.896636
0.98913
0.92635
0.963644
0.86158
0.852116
0.805234
0.997338
0.980727
0.874918
0.572883
0.489071
0.983244
0.77995
0.46777
0.980565
0.785524
0.899143
0.985697
0.818759
0.736224
0.982741
0.467181
0.72965
0.998944
0.806512
0.982863
0.744153
0.444196
0.88727
0.955533
0.923932
0.812245
0.877309
0.987669
0.960529
0.757944
0.953237
0.978527
0.834905
0.53207
0.912455
0.703251
0.982747
0.998068
0.661832
0.734866
0.790372
0.873521
0.995646
0.91021
0.967077
0.886643
0.822405
0.546851
0.985562
0.996842
0.834776
0.685513
0.577962
0.560564
0.990678
0.990031
0.732838
0.722428
0.784853
0.922309
0.979025
0.915644
0.734254
0.97513
0.849851
0.921406
0.975518
0.798806
0.508687
0.806431
0.984424
0.503413
0.98193
0.755669
0.861209
0.996749
0.546753
0.527508
0.810069
0.800652
0.986583
0.983573
0.738547
0.923302
0.985209
0.81171
0.901326
0.983522
0.625659
0.997888
0.720958
0.794515
0.908391
0.980463
0.8397
0.916348
0.972
0.586195
0.994278
0.719927
0.794508
0.857389
0.990301
0.961581
0.689819
0.955174
0.885282
0.761811
0.992899
0.916519
0.973499
0.626199
0.980895
0.621738
0.381607
0.788215
0.896387
0.986033
0.635684
0.994303
0.752479
0.987789
0.727794
0.908952
0.475288
0.987557
0.645696
0.9533
0.946594
0.954953
0.821562
0.960627
0.808501
0.851386
0.93018
0.965026
0.931905
0.944098
0.96661
0.829643
0.965328
0.824436
0.80164
0.906118
0.985305
0.809355
0.913332
0.982888
0.979933
0.799312
0.477582
0.887868
0.82885
0.983952
0.567591
0.806036
0.990126
0.724943
0.70913
0.881801
0.873875
0.989011
0.988121
0.883522
0.844152
0.985129
0.834621
0.792967
0.996374
0.756277
0.882469
0.994173
0.918595
0.898668
0.954629
0.699444
0.885575
0.988669
0.907587
0.968042
0.875132
0.751551
0.911879
0.985975
0.830517
0.809195
0.996829
0.916582
0.922711
0.885142
0.964653
0.878026
0.963868
0.931983
0.957571
0.944605
0.859726
0.964687
0.834937
0.863841
0.851746
0.839604
0.848501
0.990593
0.989532
0.999309
0.783111
0.716021
0.949488
0.707785
0.96422
1.00081
0.999616
0.780015
0.793853
0.696477
0.69016
0.92987
0.979753
0.747543
0.920194
0.94551
0.915719
0.696307
0.873691
0.990342
0.905172
0.979327
0.840537
0.819859
0.811238
0.997578
0.749894
0.749977
0.778638
1.00205
0.792532
1.0001
0.736311
0.864178
0.991876
0.494056
0.667585
0.988098
0.983041
0.733823
0.915709
0.897245
0.900923
0.989352
0.740858
0.99252
0.74706
0.681053
0.909799
0.981242
0.846118
0.791448
0.996543
0.921957
0.980912
0.754727
0.897937
0.896605
0.985038
0.992721
0.776356
0.777966
0.893671
0.992002
0.758781
0.738598
0.874511
0.993014
0.918692
0.965126
0.872572
0.608049
0.99242
0.753596
0.917242
0.984865
0.745763
0.821171
0.803458
0.822223
0.818342
0.994603
1.0003
0.994791
0.759629
0.622611
0.623554
0.99705
0.732683
0.605804
0.993765
0.736316
0.731626
1.00047
0.793705
0.854239
0.802637
0.99522
0.919407
0.96389
0.993332
0.923032
0.9852
0.799677
0.974179
0.921569
0.941633
0.979886
0.978288
0.937881
0.927284
0.982452
0.960452
0.938921
0.918114
0.965242
0.963431
0.971518
0.963465
0.961676
0.980438
0.997123
0.996241
0.965777
0.988837
0.940868
0.96905
0.917679
0.945151
0.97101
0.96905
0.959374
0.950961
0.972851
0.99128
0.980911
0.928061
0.951847
0.96292
0.984446
0.954093
0.980662
0.979116
0.961481
0.963992
0.963629
0.938469
0.956758
0.996036
0.960108
0.940481
0.971429
0.9443
0.993582
0.974411
0.969171
0.968449
0.979647
0.956798
0.955191
0.996254
0.927586
0.970742
0.97454
0.967812
0.999504
0.980867
0.974586
0.947545
0.95414
0.953752
0.974101
0.949891
0.95691
0.961258
0.949119
0.977017
0.984602
0.963194
0.967459
0.937251
0.942352
0.962024
0.979811
0.960995
0.917908
0.962706
0.996632
0.942327
0.979104
0.996204
0.958409
0.931225
0.745742
0.952386
0.96522
0.931197
0.945059
0.975604
0.981941
0.982088
0.997603
0.939113
0.907751
0.936641
0.947186
0.954035
0.990925
0.98321
0.967889
0.943811
0.955166
0.953728
0.977629
0.964915
0.919866
0.944349
0.962268
0.961993
0.996453
0.992738
0.97517
0.968258
0.954285
0.943295
1.00092
0.890212
0.972985
0.946914
0.994663
0.938829
0.83588
0.910785
0.984227
0.954798
0.931715
0.950333
0.972256
0.932965
0.979645
0.962287
0.949135
0.983007
0.972464
0.938409
0.987502
0.949551
0.966789
0.938134
0.967616
0.929351
0.989424
0.97822
0.962364
0.975745
0.980158
0.992583
0.960909
0.952013
0.948127
0.978122
0.890556
0.94301
0.938321
0.993192
0.964529
0.987951
0.998136
0.965843
1.00197
0.990608
0.991243
0.937251
0.943954
0.941365
0.993105
0.940878
0.935625
0.8776
0.936547
0.963614
0.968462
0.968772
0.998864
0.976989
0.960474
0.982126
0.967824
0.986724
0.829421
0.979733
0.955162
0.946974
0.992146
0.995489
0.953061
0.964047
0.993647
0.968924
0.908754
0.950835
0.974443
0.990441
0.968815
0.940036
0.968976
0.980021
0.966633
0.962779
0.912996
0.868309
0.947426
0.955172
0.954298
0.945529
0.916867
0.982291
0.962041
0.945344
0.967671
0.943727
0.941204
0.972036
0.971776
0.937691
0.93646
0.904803
0.972186
0.956353
0.951188
0.967764
0.972363
0.942292
0.967293
0.960815
0.937099
0.951524
0.986578
0.964626
0.99198
0.99217
0.985752
0.934803
0.934796
0.963827
0.965461
0.939805
0.948495
0.969837
0.990666
0.978938
0.965544
0.936868
0.958021
0.964717
0.965445
0.972596
0.949301
0.967029
0.961228
0.861651
0.942358
0.952274
0.939551
0.957018
0.971283
0.968733
0.965239
0.973443
0.935193
0.961692
0.960089
0.965775
0.954329
0.968336
0.967627
0.941051
0.924876
0.964372
0.937506
0.932721
0.963827
0.846641
0.935059
0.988125
0.96855
0.947774
0.951431
0.946351
0.969267
0.910556
0.85983
0.936353
0.979863
0.963398
0.979404
0.795791
0.93311
0.989638
0.960734
0.912908
0.922992
0.937904
0.941451
0.934599
0.969933
0.975109
0.945514
0.939986
0.955283
0.956258
0.987359
0.898107
0.976304
0.97204
0.843994
0.949972
0.940405
0.944388
0.971036
0.970077
0.991642
0.964749
0.934019
0.962293
0.961202
0.999655
0.970976
0.991264
0.976076
0.959994
0.969108
0.963755
0.95325
0.941085
0.962752
0.924164
0.971739
0.966087
0.943988
0.938583
0.933694
0.936235
0.919341
0.985509
0.940312
0.953569
0.990524
0.985355
0.944239
0.936872
0.991648
0.94468
0.840162
0.961239
0.945206
0.940247
0.990794
0.9622
0.956966
0.987633
0.944518
0.967795
0.950212
0.968031
0.963322
0.957258
0.751792
0.939463
0.945809
0.945546
0.962397
0.960828
0.978101
0.994316
0.932169
0.95385
0.930185
0.889553
0.937359
0.984521
0.963455
0.946975
0.949556
0.969428
0.937398
0.91913
0.932927
0.946079
0.951591
0.996501
0.958035
0.970729
1.00214
0.984213
0.982219
0.992976
0.916651
0.954705
0.940462
0.995858
0.982053
0.987562
0.962399
0.957291
0.948042
0.973779
0.94341
0.894644
0.987656
0.96613
0.894309
0.937947
0.948336
0.938453
0.949684
0.962324
0.964109
0.934748
0.952298
0.939559
0.950588
0.941914
0.963579
0.910807
0.946434
0.989398
0.99212
0.976473
0.971878
0.969395
0.834329
0.97613
0.963055
0.928992
0.989885
0.816755
0.991973
0.95391
0.965877
0.96054
0.973824
0.975308
0.933099
0.994
0.929471
0.987302
0.967886
0.950899
0.954564
0.918587
0.957575
0.989331
0.95562
0.997436
0.971946
0.938962
0.906225
0.973647
0.831202
0.971785
0.967284
0.940674
0.996899
0.882019
0.877092
0.98118
0.965489
0.991929
0.996719
0.956757
1.00031
0.998716
0.983384
0.988048
0.972498
0.93691
0.954916
0.964103
0.983389
0.956393
0.811619
0.994174
0.948173
0.956201
0.953468
0.991289
0.989038
0.959852
0.984631
0.968001
0.99516
0.937423
0.978607
0.950779
0.997544
0.997255
0.978946
0.95379
0.979386
0.940194
0.923608
0.964568
0.957909
0.969074
0.914549
0.828027
0.939784
0.959602
0.973033
0.963965
0.990952
0.955732
0.940308
0.971425
0.940535
0.991456
0.922452
0.950261
0.987822
0.987571
0.965345
0.995336
0.931297
0.962612
0.980816
0.949731
0.913348
0.964001
0.956006
0.971487
0.977572
0.955647
0.942801
0.966388
0.942995
0.935042
0.995103
1.00134
0.998913
0.916413
1.00271
0.990947
0.997233
0.94184
0.974945
0.97055
0.992519
0.970972
0.926095
0.942575
0.953309
0.804246
0.997335
0.961058
0.959095
0.979132
0.977658
0.962532
0.952896
0.989867
0.999829
0.988317
0.975484
0.955232
0.968276
0.975536
0.968882
0.9553
0.954603
0.957658
0.962376
0.967293
0.950545
0.992738
0.993816
0.93808
0.98456
0.947572
0.936849
0.950555
0.99341
0.962612
0.973766
0.964547
0.987785
0.966162
0.967083
1.00073
0.952905
0.940356
0.935551
0.937508
0.930039
0.734171
0.943359
0.939314
0.968398
0.938534
0.957425
0.966545
0.949698
0.940403
0.951393
0.957013
0.748748
0.998711
0.968953
0.966615
0.938978
0.967619
0.956397
0.925872
0.996312
0.945524
1.00001
0.958415
0.986467
0.911933
0.867526
0.954268
0.962319
0.964162
0.968721
0.86968
0.968621
0.962527
0.940784
0.926924
0.951148
0.955316
0.995838
0.917653
0.973121
0.980601
0.972899
0.941841
0.980789
0.940415
0.734802
0.966465
0.94287
0.930816
0.978355
0.976824
0.964872
0.973349
0.958351
1.00142
0.998591
0.96078
0.957007
0.995156
0.989796
0.97434
0.971873
0.965438
1.00032
0.949802
0.937661
0.990346
0.986782
0.995004
0.967525
0.959338
0.949702
0.976892
0.971407
0.696108
0.982942
0.966045
0.937507
0.962146
0.974642
1.00044
0.991772
0.97173
0.953064
0.981096
0.990139
0.984331
0.978169
0.985162
0.871555
0.938171
0.966482
0.939434
0.874044
0.943163
0.966345
0.979852
0.945825
0.964221
0.924469
0.951341
0.991525
0.959763
0.942396
0.938908
0.932844
0.964324
0.949108
0.94898
0.983592
0.968883
0.969397
0.932202
0.972895
0.952784
0.946058
0.976893
0.978323
0.986844
0.987722
0.94156
0.991027
0.939977
0.993135
0.98924
0.993379
0.98391
0.939495
0.93889
0.962778
0.933376
0.947856
0.948919
0.953533
0.933724
0.980355
0.970571
0.93687
0.987268
0.96478
0.962619
0.966978
0.97382
0.990651
0.972418
0.964936
0.939491
0.986266
0.916833
0.996153
0.933586
0.968004
0.990278
0.978617
0.996296
0.982203
0.968292
0.922666
0.9409
0.964653
0.953871
0.998341
0.924782
0.921613
0.962867
0.965013
0.961182
0.937903
0.980654
0.974797
0.970202
0.833132
0.960071
0.909855
0.927124
0.960421
0.962841
0.959891
0.950565
0.981929
0.936752
1.00232
0.96471
0.909175
0.973982
0.965584
0.994629
0.958296
0.948573
0.936698
0.952919
0.963097
0.992305
0.950415
0.966125
0.966777
0.986273
0.950623
0.965567
0.953363
0.992571
0.934299
0.9363
0.890179
0.984756
0.937611
0.951691
0.941346
0.947203
0.995481
0.963495
0.976828
0.98656
0.976207
0.900295
0.990723
0.928336
0.971102
0.974475
0.957042
0.941059
0.963465
0.957219
0.932873
0.957604
0.896858
0.939987
0.963076
0.900572
0.947933
0.9865
0.944323
0.939318
0.958212
0.996448
0.961895
0.933928
0.973743
0.943364
0.948178
0.966069
0.961797
0.970401
0.968152
0.995885
0.964345
0.980598
0.969539
0.990409
0.997486
0.993241
0.903597
0.953806
0.968559
0.93343
1.00015
0.989559
0.985387
0.963003
0.935785
0.936883
0.969229
0.980509
0.929676
0.985841
0.987301
0.974019
0.938694
0.934034
0.942179
0.912659
0.961379
0.929963
0.968383
0.95089
0.971817
0.941438
0.961269
0.93669
0.970619
0.972084
0.974492
0.960806
0.968852
0.992122
0.997389
0.963808
0.959037
0.980083
0.967482
0.947763
0.955784
0.96657
0.946522
0.995531
0.963162
0.967085
0.976092
0.977978
0.957835
0.893739
1.00401
0.966922
0.961339
0.965891
0.965653
0.979982
0.990907
0.965972
0.971041
0.933627
0.951599
0.958539
0.973694
0.968296
0.961603
0.964988
0.996446
0.971592
0.955652
0.989361
0.968107
0.939787
0.957283
1.00196
0.944195
0.935078
0.956802
1.00323
0.958623
0.964976
0.980213
0.982141
0.986901
0.966197
0.937065
0.970982
0.952656
0.959613
0.98569
0.960599
0.935128
0.930026
0.960378
0.972038
0.949174
0.938693
0.990566
0.964227
0.989898
0.985319
0.935733
0.931759
0.961649
0.981892
0.989488
0.961019
0.958226
0.905436
0.963475
0.957248
0.988697
0.992331
0.983245
0.938704
0.932849
0.981045
1.00157
0.995707
0.982612
0.990578
0.959111
0.958436
0.931316
0.93498
0.994123
0.967096
0.865693
0.945783
1.00073
0.964471
0.937864
0.939085
0.963434
0.955298
0.989368
0.968676
0.97581
0.989577
0.990793
0.95552
0.970653
0.962236
0.965642
0.94082
0.973442
0.956737
0.992675
0.869687
0.969258
0.845846
0.960839
0.991988
0.972444
0.984336
0.99199
0.991235
0.948582
0.963656
0.959056
0.919251
0.993437
0.96996
0.955214
0.968637
0.803298
0.945569
0.982073
0.972382
0.996001
0.933987
0.94125
0.963136
0.99246
0.875848
0.953664
0.959562
0.888186
0.93298
0.982766
0.934166
0.958423
0.937512
0.988889
0.996689
0.805432
0.976532
0.968274
0.948951
0.9384
0.96361
0.956701
0.967112
0.947213
0.965905
0.959375
0.960505
0.960505
0.98584
0.954027
0.935118
0.956867
0.933085
0.941377
0.959522
0.904622
0.958992
0.952029
0.966482
0.987891
0.969829
0.965821
0.862451
0.984956
0.956206
0.95776
1.00115
0.966511
0.966037
0.880362
0.867295
0.992772
0.943783
0.965147
0.972697
0.953724
0.986671
0.862947
0.989218
0.961806
0.98111
0.960462
0.969636
0.962191
0.94118
0.951802
0.961096
0.995527
0.931625
0.940272
0.94935
0.999279
0.999136
0.90199
0.957924
0.9656
0.980066
0.958145
0.995106
0.986618
0.985107
0.983002
0.966485
0.953411
0.933721
0.993365
0.953758
0.964293
0.905196
0.937444
0.949043
0.936858
0.992915
0.882353
0.992231
0.955658
0.99285
0.967318
0.991945
0.979756
0.969245
0.99441
0.992291
1.00236
0.962378
0.988035
0.9555
0.966805
0.944855
0.95015
0.996256
0.883469
0.962375
0.971815
0.96253
0.969538
0.964055
0.989682
0.960257
0.980447
0.936421
0.942532
0.969241
0.986801
0.903047
0.974081
0.94136
0.968187
0.937051
0.960801
0.971819
0.981371
0.995351
0.93921
0.961186
0.963663
0.968676
0.986358
0.915441
0.935759
1.00031
0.93243
0.958476
0.979972
0.992356
0.994796
0.937369
0.947176
0.948265
0.946668
0.920992
0.963673
0.96496
0.964437
0.948627
0.959425
0.963412
0.952111
0.922547
0.95036
0.963602
0.942511
0.981195
0.979859
0.928628
0.981761
0.869586
0.949329
0.895244
0.950084
0.996277
0.967645
0.967077
0.964954
0.986254
0.992131
0.965482
0.982553
0.922499
0.963896
0.959741
0.96721
0.939472
0.994547
0.965778
0.9505
0.999115
0.984693
0.94306
0.99271
0.935764
0.966952
0.96541
0.968916
0.905822
0.991437
0.962739
0.966184
0.966568
0.948745
0.941094
0.947992
0.978833
0.986559
0.989178
0.963883
0.971472
0.995519
0.97359
0.962728
0.95481
0.94924
0.96006
0.984501
0.9424
0.990964
0.965952
0.993374
1.00152
0.994392
0.961792
0.973297
0.988351
0.850723
0.996498
0.889324
0.99437
0.984131
0.963835
0.962765
0.958904
0.962432
0.88592
0.919735
0.9622
0.929116
0.997417
0.939434
0.943299
0.916634
0.935365
0.967188
0.987017
1.00326
0.938602
0.969358
0.967052
0.965624
0.958059
0.963537
0.991839
0.983747
0.963529
0.990182
0.984211
0.999379
0.93993
0.946664
0.929775
0.98288
0.999008
0.987024
0.964239
0.992522
0.962801
0.933055
0.961268
0.930971
0.950672
0.939832
1.00273
0.990068
0.969099
1.00448
0.983538
0.961542
0.992918
0.945823
0.98951
0.958366
0.993615
0.957914
0.938086
0.979858
0.971051
0.994288
0.994359
0.994251
0.935644
0.931459
0.928453
0.987796
0.984131
0.904805
0.954277
0.985149
0.941078
0.958726
0.940585
0.952808
0.970954
0.954115
0.964911
0.952807
0.967059
0.970671
0.977557
0.959807
0.951168
0.968723
0.968713
0.962161
0.989609
0.999095
0.903503
0.983239
0.940983
0.953471
0.993471
0.984527
0.955185
0.994271
0.941459
0.979716
0.955429
0.943658
0.989206
0.958381
0.982633
0.976345
0.97779
0.99607
0.977877
0.948152
0.975213
0.941137
0.981577
0.988831
0.974233
0.959539
0.938737
0.94333
0.989508
0.952746
0.975749
0.933825
0.962683
0.98541
0.980655
0.96348
0.989712
0.993573
0.950501
0.957922
0.970831
0.939232
0.949662
0.964797
0.975773
0.962153
0.944805
0.899687
0.934478
0.977694
0.960106
0.982122
0.943751
0.994897
0.970196
0.99148
0.999443
0.958136
0.992084
0.944907
0.969917
0.953133
0.98745
0.931859
0.961133
0.954434
0.936618
0.95784
0.94487
0.93445
0.939929
0.999962
1.00378
0.965316
0.936216
0.980656
0.936172
0.907357
0.962514
0.97737
0.977901
0.940422
0.939201
0.994425
0.933976
0.972052
0.937329
0.945081
0.960155
0.93081
0.990151
0.969109
0.948413
0.995071
0.9899
0.947504
0.97177
0.962976
1.00207
0.964905
0.956666
0.941708
0.972916
0.999325
0.972077
0.914248
0.94293
0.956397
0.971432
0.993626
1.00109
0.933446
0.993251
0.945141
0.967169
0.970573
0.962178
0.955085
0.989156
0.901202
0.970375
0.928871
0.945031
0.921738
0.940546
0.977188
0.994464
0.94587
0.949736
0.969108
0.954154
0.895647
0.927389
0.948876
0.980071
0.84207
0.950563
0.975113
0.967786
0.963407
0.972082
0.987385
0.876428
0.872315
0.988409
0.964153
0.898357
0.958564
0.986214
0.977305
0.964941
0.927626
0.969154
0.931986
0.993943
0.986355
1.00076
0.960985
0.977009
0.944814
0.968506
0.990482
0.937346
0.94795
0.978956
0.9861
0.942392
0.94409
0.921175
0.878242
0.92486
1.00253
0.954912
0.941855
0.90989
0.938367
0.981747
0.927572
0.947839
0.937772
0.986673
0.958343
0.995456
0.946866
0.960774
0.969945
0.970378
0.958746
0.973878
0.935398
0.995143
0.975347
0.970878
0.989873
0.951512
0.991847
0.969313
0.958994
0.992586
0.934782
0.954122
0.990111
0.969631
0.938338
0.947093
0.978364
0.991113
0.966409
0.981511
0.925618
0.943183
0.935314
0.927187
0.990249
0.950057
0.964101
0.999387
0.962031
0.881796
0.937519
0.966066
0.935306
0.959113
0.941774
0.949133
0.954427
0.982165
0.994695
0.975613
0.932613
0.957212
0.936262
0.961218
0.976255
0.963348
0.964673
0.978032
0.957662
0.962801
0.988539
0.986503
0.994515
0.992191
0.992542
0.961086
0.944855
0.940311
0.939118
0.99306
0.968128
0.946013
0.99302
0.948291
0.986945
0.982116
0.943508
0.931659
0.954529
0.965909
0.986348
0.958159
0.976953
0.966039
0.995777
0.972199
0.992235
0.948587
0.964707
0.951725
0.939139
0.955557
0.986751
0.892463
0.79799
0.963239
0.983336
0.98198
0.960295
0.93889
0.936642
0.952504
0.933613
0.960875
0.963249
0.94313
0.979635
0.965876
0.938926
0.966465
0.953655
0.923583
0.983614
0.95316
0.961451
0.931073
0.976543
0.94935
0.938768
0.955936
0.955131
0.949209
0.939213
0.879277
0.984412
0.998014
0.989194
0.96984
0.980558
0.945359
0.992131
0.968584
0.972692
0.918507
0.979322
0.950459
0.957689
0.984006
0.996381
0.98494
0.966498
0.971211
0.997763
0.945977
0.983557
0.993782
0.975706
0.960886
0.942407
0.986265
0.955968
0.949407
0.973044
0.961293
0.996875
0.946714
0.999591
0.995726
0.964216
0.948736
0.995409
0.939117
0.947879
0.955345
0.942094
0.952576
0.950161
0.946854
0.966431
0.935555
0.936343
0.963
0.964267
0.95156
0.952489
0.970471
0.965249
0.956688
0.992525
0.998344
0.99831
0.938093
0.953522
0.988233
0.937385
0.965976
0.911606
0.963578
0.912606
0.97994
0.964795
0.964475
0.942556
0.936069
0.951825
0.970596
0.953258
0.96298
0.967082
0.959104
0.993421
0.973009
0.973499
0.949956
0.988837
0.948876
0.965826
0.998582
0.946588
0.952132
0.941145
0.9775
1.00098
0.946392
0.968994
0.955764
0.939747
0.930428
0.962067
0.935848
0.979715
0.947751
0.961435
0.964381
0.963641
0.939017
0.96212
0.963663
0.955628
0.970065
0.993695
0.964885
0.956045
0.961804
0.99643
0.966622
0.93609
0.983071
0.938636
0.96411
0.926423
0.948447
0.955456
0.892212
0.941692
0.998903
0.987088
0.933033
0.967867
0.941677
0.919817
0.936255
0.937428
0.947488
0.944589
0.947745
0.975424
1.00562
0.960012
0.980358
0.964286
0.994559
0.967473
1.00425
0.970035
0.951225
0.974631
0.984036
0.961624
0.985475
0.927096
0.989697
0.959208
0.797438
0.966066
1.0024
1.00261
0.976942
0.976468
0.979111
0.953801
0.957358
0.974811
0.991066
0.815854
0.95852
0.922727
0.950941
0.967189
0.932068
0.937113
0.949004
0.944969
0.939244
0.955518
0.964224
0.995271
0.988994
0.940335
0.98608
0.937521
0.965538
0.98668
0.966316
0.96388
0.973525
0.820989
0.943823
0.968045
0.990047
0.944593
0.951119
0.968077
0.973686
0.937248
0.996184
0.947087
0.969097
0.965803
0.959307
0.974507
0.975503
0.997118
0.927399
0.983113
0.962708
0.973559
0.938501
0.972574
0.95675
0.933918
0.941794
0.959452
0.960521
0.966792
0.991451
0.962923
0.921603
0.975167
0.946603
0.943684
0.9648
0.967845
0.941987
1.00498
0.944453
0.947735
0.946204
0.965333
0.940746
0.908169
0.980239
0.957516
0.963306
0.94812
0.927818
0.959281
0.880879
0.9995
0.988354
0.94454
0.939303
0.992203
0.948706
0.940709
0.935505
0.924007
0.954536
0.96501
0.991833
0.942236
0.952893
0.975335
0.964342
0.94697
0.944745
0.960699
0.9793
1.00054
0.944001
0.931642
0.967508
0.990645
0.958212
0.968222
0.963327
0.929932
0.967598
0.972178
0.959156
0.934186
0.980929
0.965832
0.928893
0.966497
0.94348
0.985264
0.9941
0.942137
0.966898
0.96123
0.966613
0.942446
0.969766
0.955932
0.993864
0.985147
0.977491
0.945486
0.949992
0.982264
0.994621
0.955113
0.965827
0.95982
0.942838
0.961232
0.964568
0.937696
0.855698
0.941745
0.959725
0.94642
0.941592
0.949133
0.95778
0.982699
0.938111
0.941172
0.95233
0.938405
0.984228
0.9406
0.970787
0.962838
0.936287
0.97058
0.969765
0.969564
0.962465
0.978383
0.945999
0.94489
0.995156
0.931175
0.9933
0.969227
0.953489
0.957443
0.988919
0.965025
0.938946
0.997353
0.9271
0.959508
0.990899
0.93128
1.0018
0.944035
0.965745
0.848093
0.968801
0.939104
0.969273
0.951455
0.93281
0.955369
0.934598
0.945495
0.993442
0.936083
0.962398
0.970961
0.965621
0.994154
0.996838
0.95786
0.924713
0.98704
0.953308
0.992142
0.950317
0.957081
0.971455
0.958459
0.985388
0.963349
0.967352
0.948619
0.967818
0.911303
0.927939
0.989802
0.748072
0.993041
0.97733
0.947879
0.941064
0.95841
1.00005
0.974958
0.974512
0.967106
0.97119
0.964506
0.990941
0.984714
0.938551
0.972834
0.995312
0.961538
0.96485
0.968406
0.944367
0.942735
0.971056
0.969196
0.96105
1.00126
0.936901
0.950884
0.968511
0.957021
0.957375
0.996128
0.945169
0.951591
0.950609
0.960537
0.943943
0.990407
0.929994
0.962664
0.955284
0.958467
0.936051
0.932409
0.973615
0.926886
0.937651
0.99274
0.961346
0.954703
0.937983
0.93801
0.953425
0.992306
0.998774
0.953232
0.955888
0.958879
0.987001
0.997483
0.94817
0.993356
0.954586
0.97349
0.969842
0.989861
0.95953
0.98828
0.995203
0.93572
0.92496
0.962259
0.95564
0.960228
0.85702
0.881955
0.976541
0.985862
0.941471
0.995458
0.962313
0.978165
0.964609
0.939517
0.987215
0.983682
0.965777
0.929547
0.9407
0.994353
0.982295
0.989711
0.935108
0.959388
0.971314
0.986983
0.974222
0.972325
0.960652
0.995685
0.959387
0.957269
0.9642
0.959178
0.96471
0.861943
0.984867
0.964495
0.967622
0.993893
0.934225
0.941694
0.948878
0.945741
0.991284
0.946648
0.972387
0.86748
0.949341
0.960951
0.947306
0.941748
0.97509
0.936141
0.942624
0.964236
0.967837
0.995027
0.949492
0.962283
0.989623
0.95745
0.992964
0.959037
0.974416
0.958044
0.9503
0.998681
0.9378
0.944386
0.966276
0.992619
0.977899
0.961111
0.92137
0.996464
0.9703
0.961429
0.979087
0.992433
0.979183
0.973089
0.938593
0.934303
0.958054
0.939617
0.967755
0.965963
0.937064
0.997393
0.9907
0.991806
0.970698
0.966117
0.939141
0.95834
0.979115
0.942302
0.975147
0.992534
0.95844
0.965735
0.965349
0.983076
0.971977
0.965666
0.937631
0.977092
0.92383
0.859532
0.952982
1.00103
0.937493
0.984474
0.956272
0.922584
0.983331
0.964303
0.998802
0.80792
0.968312
0.972822
0.994533
0.959015
0.99471
0.963429
0.936252
0.956229
0.960796
0.96126
0.932923
0.984277
0.964657
0.943987
0.934251
0.959422
0.972997
0.928861
0.96971
0.989519
0.941783
0.990923
0.944614
0.915258
0.931549
0.96112
0.946244
0.940537
0.921959
0.927323
0.961549
0.957301
0.980138
0.961413
0.99024
0.931886
0.969676
0.940699
0.946945
0.932669
0.972984
0.993412
0.948051
0.947322
1.0049
0.960468
0.972664
0.977376
0.956177
0.966643
0.968604
0.96551
0.99539
0.991837
0.993021
0.966789
0.946862
0.950371
0.956599
0.993232
0.969381
0.950403
0.910777
0.948123
0.967552
0.997884
0.962062
0.996113
0.949729
0.959325
0.957477
0.931316
0.955146
0.949793
0.990986
0.939589
0.945159
0.943971
0.99976
0.967935
0.94322
0.937813
0.92786
0.982085
0.962045
0.954055
0.944877
0.959316
0.940678
0.961566
0.954543
0.937574
0.989165
0.991953
0.958461
0.994249
0.992468
0.990527
0.961504