/*--------------------------------*- C++ -*----------------------------------*\
  =========                 |
  \\      /  F ield         | OpenFOAM: The Open Source CFD Toolbox
   \\    /   O peration     | Website:  https://openfoam.org
    \\  /    A nd           | Version:  6
     \\/     M anipulation  |
\*---------------------------------------------------------------------------*/
FoamFile
{
    version     2.0;
    format      ascii;
    class       volVectorField;
    location    "0";
    object      U;
}
// * * * * * * * * * * * * * * * * * * * * * * * * * * * * * * * * * * * * * //

dimensions      [0 1 -1 0 0 0 0];

internalField   nonuniform List<vector> 
918
(
(0.479262 -0.333637 0)
(0.625552 2.39557 0)
(-0.40296 1.64804 0)
(0.410382 0.265346 0)
(0.534125 1.84279 -2.46443e-19)
(-0.568917 2.05975 -8.395e-18)
(1.10965 1.83987 -2.12425e-19)
(0.429449 0.24927 -3.28513e-20)
(0.465361 0.00296452 0)
(0.00328514 1.81433 0)
(0.00138741 1.74622 0)
(0.952969 0.000527439 0)
(0.162926 3.06692 0)
(0.138811 2.9914 0)
(-0.0793644 2.54507 -1.40657e-18)
(-0.00414796 1.73188 -1.26819e-19)
(0.689691 0.172374 2.5411e-18)
(0.124729 2.10769 -1.9043e-19)
(0.977651 0.017075 0)
(0.00083169 1.7463 0)
(-0.342392 -0.270225 6.29406e-19)
(0.286586 -0.0770623 0)
(0.867414 0.130134 0)
(1.0713 0.0178144 0)
(0.87013 0.0180557 0)
(0.0815923 3.22342 0)
(-0.0129329 2.96574 1.65746e-18)
(-0.6701 1.87216 0)
(-0.02743 1.72799 0)
(-0.149664 1.81044 0)
(-0.0414087 1.54041 0)
(-0.309994 1.56011 1.92212e-19)
(-0.0087737 1.73189 0)
(-1.30292 3.02985 -1.56194e-22)
(-0.25887 2.78312 7.04187e-18)
(0.0157441 2.62065 0)
(0.995565 -0.00158509 0)
(0.859168 1.34906 7.47347e-19)
(1.098 1.70895 7.72502e-19)
(1.25907 1.61252 -6.93441e-19)
(0.939005 1.89771 4.30964e-20)
(0.909537 2.02418 -1.64893e-19)
(0.448645 0.312723 3.19192e-20)
(0.503636 0.257074 0)
(1.39679 0.841588 0)
(0.346215 0.316266 1.37053e-19)
(0.332348 0.216902 -1.42939e-19)
(0.993167 -0.00286339 0)
(0.969144 0.0060997 0)
(0.4659 0.00736225 0)
(0.989047 -0.195432 0)
(0.935898 0.0242318 0)
(0.477462 0.053251 0)
(0.00522324 1.63435 -1.13077e-18)
(0.0455469 1.84648 0)
(0.00895358 1.86673 0)
(0.0187397 1.81203 0)
(0.00170429 1.79939 0)
(0.00185334 1.73306 0)
(0.00903059 1.7555 0)
(0.000393474 1.75428 0)
(-0.00852973 1.75029 0)
(-0.000713316 1.74565 0)
(1.01981 -2.22798e-05 0)
(0.962867 0.0127991 0)
(0.966362 0.000522118 0)
(0.950235 0.0102293 0)
(0.941884 0.000754612 0)
(-0.412877 2.41209 2.84343e-18)
(0.721715 2.37044 0)
(0.0912859 1.72633 0)
(0.438802 3.16684 1.85095e-23)
(-0.131095 3.18509 -4.24583e-18)
(-0.0501313 3.0054 0)
(-0.0128835 2.995 0)
(0.282634 3.0215 4.26068e-24)
(0.0157497 2.9753 0)
(-0.307036 2.98606 0)
(-0.138464 3.02241 0)
(0.142004 2.62372 0)
(-0.0740995 2.94911 0)
(-0.0480804 2.57325 1.18708e-18)
(-0.043782 2.58875 0)
(0.000131723 1.73971 0)
(-0.016024 1.73864 1.25067e-19)
(-0.00220997 1.7378 -1.73673e-19)
(0.714546 0.177375 -8.83818e-19)
(0.724737 0.139119 -8.71822e-19)
(0.676718 0.215828 -2.66274e-18)
(0.652786 0.20411 -1.70104e-18)
(0.147838 1.42004 0)
(0.333965 2.09883 6.68844e-20)
(0.405068 2.18562 -7.96752e-20)
(1.00039 0.00443058 0)
(0.993212 -4.43206e-05 0)
(0.453383 0.000187184 0)
(1.02345 0.0720505 0)
(0.945752 0.107785 -9.09131e-18)
(1.07909 0.37983 6.79266e-18)
(0.00605044 1.75158 0)
(0.0012759 1.74926 0)
(-0.117944 1.65071 0)
(-0.0149002 1.75909 0)
(-0.024084 1.72276 0)
(-0.287594 0.161798 -6.47194e-20)
(0.0289635 0.0354392 0)
(1.03965 -0.0256037 0)
(1.0168 -0.00244472 0)
(0.929441 0.0766961 0)
(0.889132 0.217792 0)
(0.91002 0.00506065 0)
(1.16314 -0.00731379 0)
(0.852313 0.080483 0)
(0.803452 0.0293128 4.1547e-18)
(-0.0495919 2.8641 2.0419e-18)
(0.243327 3.11629 0)
(0.132818 3.20231 0)
(0.0667468 3.05864 0)
(0.135606 2.97744 1.63655e-18)
(0.00682743 2.96569 0)
(0.0273526 2.96785 -4.54805e-18)
(-0.0229527 2.97125 1.49632e-18)
(0.0287903 1.7408 0)
(0.00274809 1.74285 0)
(-0.00522413 1.73827 -5.16296e-21)
(-0.028278 1.73615 0)
(-0.00280291 1.73429 0)
(0.999538 0.00239242 0)
(0.997754 -0.000966457 0)
(0.985527 -4.75188e-05 0)
(0.998444 -0.0225109 0)
(0.994908 0.00118956 0)
(0.879303 1.42971 -9.1724e-19)
(0.950452 1.41034 0)
(0.819113 1.364 9.83359e-20)
(0.786603 1.3219 0)
(1.19736 1.48812 2.524e-19)
(1.34648 1.34972 -6.72832e-19)
(0.544719 2.10728 0)
(0.754622 2.03454 0)
(0.670973 2.14562 0)
(0.533176 1.30541 -5.36466e-19)
(0.522903 0.302704 0)
(0.561266 0.248873 4.52124e-19)
(1.2542 1.2516 0)
(1.29249 1.01017 0)
(1.38792 1.08481 8.4656e-19)
(1.32155 0.777576 0)
(1.40196 0.631171 5.72323e-20)
(0.995796 0.00705255 0)
(0.995004 -0.00410525 0)
(0.991685 -0.000318577 0)
(1.01146 -0.00731599 0)
(1.00023 -0.0409188 0)
(1.00159 -0.000662745 0)
(0.952365 -0.00971692 0)
(0.951023 -0.00131683 0)
(0.46645 -0.00464482 0)
(0.0376214 1.62034 5.86158e-19)
(0.00413235 1.59051 0)
(0.0369664 1.6602 1.08071e-18)
(0.00574508 1.67269 -9.84471e-19)
(0.0680898 2.02462 1.66752e-19)
(0.0611484 1.92259 0)
(-0.00630819 1.98387 0)
(0.0171233 1.78213 0)
(0.00242453 1.75585 0)
(0.0050406 1.72806 -4.31674e-21)
(-0.00454778 1.71741 0)
(0.00190435 1.73463 -2.11793e-19)
(0.000455912 1.72574 3.96959e-19)
(0.00878726 1.75932 0)
(0.0105949 1.75897 0)
(0.00114299 1.75541 0)
(-0.00271364 1.76331 0)
(-0.00124154 1.77149 0)
(1.02918 0.0130729 0)
(1.03198 -0.000175536 0)
(1.01673 0.0059783 0)
(1.00777 -0.0002827 0)
(0.981606 5.42171e-05 0)
(0.979191 0.00429536 0)
(0.971637 0.00882379 0)
(0.97148 0.000283206 0)
(-0.00474468 2.9851 -1.46676e-20)
(0.0290018 3.03537 0)
(-0.0249615 3.01592 0)
(-0.0210733 2.99117 0)
(0.340882 2.72611 0)
(1.57017 2.13445 1.13585e-19)
(-0.107527 2.62088 0)
(-0.0533053 2.62761 0)
(-0.00707455 1.75287 0)
(-0.00267469 1.7303 0)
(-0.0031246 1.73974 0)
(0.240031 1.88524 -1.51633e-19)
(0.0150613 1.75327 0)
(-0.0185364 1.7782 0)
(-0.000371455 1.7382 3.88068e-20)
(0.0138217 1.73695 8.60874e-20)
(-0.00713805 1.73769 1.77571e-19)
(0.000445335 1.72714 0)
(0.742566 0.17145 1.40991e-18)
(0.752167 0.0988612 -1.39782e-18)
(0.216093 1.42256 0)
(0.215052 1.37938 -3.35813e-19)
(0.148868 1.47776 -1.00165e-18)
(0.0708528 1.48602 1.00352e-18)
(0.990579 -0.000190409 0)
(0.991371 -0.0039091 0)
(0.9932 0.00495589 0)
(0.986912 0.000423284 0)
(0.0123403 1.76588 0)
(0.00870177 1.75222 0)
(0.00177847 1.74676 0)
(0.214503 0.292744 1.21134e-18)
(0.0192103 0.249313 -1.2047e-18)
(0.20726 0.152069 0)
(1.19355 0.0985714 1.57249e-19)
(1.26791 0.0658598 0)
(1.12279 0.0526729 0)
(1.08665 -0.000639269 0)
(0.777919 0.0969992 0)
(0.810352 0.0584127 -6.662e-18)
(0.781191 0.0582924 2.43435e-18)
(-0.158173 2.91118 1.69542e-18)
(-0.0791875 2.93299 -1.02067e-19)
(0.0340983 3.0079 -2.59619e-20)
(-0.0312254 3.25189 1.07664e-18)
(-0.0646679 2.99139 4.891e-20)
(0.0153635 2.95131 -1.80671e-22)
(-0.102956 2.7137 -1.29405e-18)
(0.519141 2.8812 9.82812e-19)
(-0.338049 3.19572 -1.13069e-18)
(1.01209 -0.00120466 0)
(1.00581 0.0372681 0)
(1.00917 0.00252354 0)
(0.990254 -0.00160864 0)
(0.988112 0.000870995 0)
(0.984755 -0.000248159 0)
(0.984648 -0.00047516 0)
(0.98726 0.00393563 0)
(0.982474 0.000198607 0)
(0.975011 1.50183 -8.96675e-19)
(1.06227 1.48435 0)
(0.647516 1.28559 1.5588e-19)
(0.677427 1.33358 1.1095e-18)
(0.746205 1.3461 -7.29325e-19)
(0.723369 1.31627 1.42535e-18)
(0.500071 1.32857 2.50131e-18)
(0.468928 1.30392 4.89196e-19)
(0.635146 0.247189 1.7733e-18)
(0.58446 0.27641 4.49763e-19)
(0.612161 0.230997 8.5553e-19)
(1.32767 0.569186 -1.03804e-18)
(1.38136 0.432594 -1.11432e-18)
(0.0237229 1.68924 4.80428e-19)
(0.00200499 1.69147 0)
(1.07521 0.0293424 0)
(1.04739 0.0184047 0)
(1.05602 0.000373031 0)
(-0.0504249 3.05205 0)
(0.200928 3.00456 2.44326e-18)
(0.089962 3.01372 0)
(-0.00235793 2.98083 -2.43991e-18)
(-0.144418 3.04571 5.49897e-19)
(-0.0778897 2.97392 0)
(1.06951 1.64305 2.03496e-19)
(1.28405 1.8381 -5.95443e-19)
(1.17913 1.60992 2.39612e-19)
(-0.144932 2.83355 -1.88231e-18)
(-0.146793 2.71826 0)
(-0.0475051 2.76737 0)
(-0.0108022 1.73039 -2.45709e-20)
(0.0170481 1.73288 -2.75424e-19)
(-0.00199273 1.72046 -1.43902e-20)
(0.272903 1.37978 1.06417e-18)
(0.274398 1.33628 -7.2486e-19)
(0.0492242 1.57884 7.25456e-19)
(0.0908242 1.53386 -7.99589e-19)
(0.00652505 1.5426 4.079e-20)
(0.109536 3.03815 -3.42506e-18)
(0.070336 3.07884 3.82519e-18)
(0.233276 2.97058 1.78878e-18)
(-0.291568 3.00943 -1.71198e-18)
(0.096517 2.97522 -1.82176e-18)
(-0.138907 2.94107 -4.09048e-18)
(-0.226174 3.09595 4.13431e-18)
(0.560093 1.32157 0)
(0.61096 1.31207 -2.5997e-18)
(0.586555 1.28328 1.16822e-18)
(0.438845 1.33388 1.4527e-18)
(0.404129 1.31285 -2.25795e-18)
(1.26514 0.218399 5.97003e-19)
(1.30235 0.413529 0)
(1.35097 0.248583 -5.76172e-19)
(-0.0443386 1.72731 -5.93403e-21)
(0.0201567 1.71259 0)
(0.00587411 1.72342 0)
(0.320765 1.36023 -3.56276e-19)
(0.38091 1.34567 -8.29558e-19)
(0.346382 1.3344 1.56572e-18)
(0.974947 -0.0717782 0)
(1.10224 -0.144739 1.70504e-18)
(0.1941 1.72435 0)
(0.177324 1.50778 0)
(1.00584 -0.114549 5.99137e-20)
(0.836881 -0.128919 3.50258e-18)
(0.218912 1.98969 1.98271e-19)
(0.119442 1.6813 0)
(-0.0687885 2.79519 1.86373e-18)
(0.213363 2.52879 0)
(1.22388 0.702064 -5.91235e-19)
(1.09738 -0.000427191 -2.55868e-20)
(1.1159 0.00537797 0)
(0.900371 -0.00657063 8.05283e-22)
(0.0266338 1.98693 0)
(0.0750134 1.84069 0)
(-0.0067756 1.9185 0)
(0.0527063 1.93576 2.35068e-19)
(0.0232869 1.93331 1.2091e-19)
(1.06205 0.00419669 2.03439e-20)
(1.13905 0.0289612 0)
(1.14123 0.0277728 0)
(-0.0217953 1.60454 0)
(0.0164924 1.88309 0)
(-0.0136771 1.94264 0)
(0.30542 2.09061 3.42363e-19)
(1.04406 -0.179042 0)
(0.961025 -0.035654 0)
(0.922957 0.221602 2.1435e-18)
(0.867189 0.0988286 -2.54029e-18)
(1.09529 -0.0887601 0)
(0.316976 1.73644 0)
(-0.156153 1.66236 0)
(-0.0731071 1.8789 0)
(-0.0112279 1.81571 0)
(-0.299653 1.9357 0)
(0.0413711 1.53547 0)
(1.09018 -0.0041916 0)
(1.08784 -0.00234034 5.06445e-21)
(1.04213 1.70619 -3.8073e-19)
(0.960624 -0.242513 -2.14404e-18)
(0.961617 0.0925872 2.64105e-18)
(1.11843 0.0821117 0)
(1.0156 -0.0187542 2.0996e-18)
(1.1158 0.196723 -2.61144e-18)
(0.905317 -0.00197496 0)
(-0.0401346 1.80363 0)
(0.279573 1.79887 1.93451e-19)
(-0.0255383 1.5944 -1.30164e-19)
(1.25469 0.239476 3.21712e-18)
(1.19211 0.0601944 0)
(-1.04321 2.61155 -2.06309e-18)
(-0.273102 3.67812 -9.01025e-20)
(-0.494017 2.39405 4.37791e-18)
(0.104087 2.59238 -9.98334e-19)
(0.0234239 2.50591 0)
(0.0403989 2.8361 6.91266e-19)
(-0.647857 3.00439 2.17372e-18)
(-0.0162033 2.79565 -1.30384e-18)
(-0.456975 3.05398 0)
(0.623697 0.315561 0)
(0.447247 0.347631 0)
(1.0348 0.898959 1.76609e-18)
(1.16875 0.90304 -2.17855e-18)
(1.18963 0.488839 0)
(1.16535 0.557614 0)
(1.04733 0.0903678 -3.91818e-18)
(0.954363 0.0431885 5.03547e-18)
(1.12991 -0.21636 0)
(0.939595 -0.0574739 0)
(0.782106 0.111362 0)
(1.17073 -0.117348 0)
(1.01547 0.164571 0)
(0.917167 0.0139906 0)
(1.03649 -0.205534 0)
(0.929249 -0.0348214 0)
(-0.00193018 1.84052 0)
(0.0788986 1.72425 0)
(-0.0407081 1.91664 0)
(0.0586811 1.79596 0)
(0.406642 1.86537 0)
(0.124257 1.53231 -6.33754e-19)
(0.109478 1.63119 0)
(-0.0314323 1.61533 3.71102e-19)
(0.0616421 1.8497 -5.1809e-19)
(0.131078 1.83634 0)
(0.0846517 1.67858 0)
(-0.100787 1.80006 0)
(-0.080221 1.69868 0)
(0.0549196 1.90775 -1.69868e-19)
(0.105113 1.84379 3.83456e-19)
(-0.148785 1.85164 4.31665e-19)
(-0.00473071 1.54028 0)
(-0.159194 1.85575 -4.61376e-19)
(-0.0847698 1.67155 -4.45463e-19)
(0.28066 2.0243 6.54743e-20)
(-0.325446 1.48476 -4.98873e-19)
(-0.0702985 1.44964 -5.24734e-19)
(1.01634 -0.0726607 3.7093e-18)
(0.945793 -0.0440533 -4.76823e-18)
(1.00004 0.0600715 -3.80991e-18)
(0.907999 0.0439219 5.0132e-18)
(1.13957 0.208088 0)
(0.954734 0.0499917 0)
(1.08898 0.0938003 0)
(1.08822 -0.0834781 0)
(0.89966 0.00653053 0)
(1.17137 0.136695 0)
(1.1066 -0.0458795 0)
(0.915642 0.0397062 0)
(-0.341906 1.55501 -2.64794e-20)
(-0.199396 1.67618 0)
(0.12961 1.76294 0)
(0.122153 1.78222 3.16532e-20)
(0.0813942 1.68736 -5.00273e-21)
(-0.0837696 1.68784 3.26751e-19)
(-0.381785 1.62065 -3.28142e-19)
(-0.203616 1.72988 0)
(0.274287 1.87404 0)
(0.152924 1.67012 0)
(-0.137625 1.84306 0)
(-0.100627 1.7019 0)
(0.300935 1.95604 -8.37572e-19)
(0.449865 1.9504 -2.77915e-19)
(0.295986 1.53324 -2.62633e-19)
(0.172021 1.6435 6.96863e-19)
(0.391321 1.94021 1.9831e-19)
(1.05929 0.0699971 0)
(1.00128 0.0960455 0)
(0.959154 0.0739426 0)
(0.936412 -0.0171196 0)
(1.03917 -0.145232 0)
(0.91546 0.0637494 0)
(0.998419 0.229711 0)
(1.02422 -0.0773106 0)
(1.02655 -0.0638817 3.82021e-18)
(0.956566 -0.0425923 -4.90686e-18)
(1.03401 0.0712261 -3.79533e-18)
(0.949319 0.0447517 4.83224e-18)
(0.953601 1.64108 0)
(0.890181 1.72304 -8.04316e-19)
(0.876476 1.65721 -6.9968e-19)
(0.998452 1.42477 9.08421e-19)
(0.978616 1.64507 2.45591e-18)
(0.854779 0.114267 1.59646e-18)
(1.13387 0.04379 0)
(1.21071 0.356569 -2.5587e-18)
(1.01752 0.109334 -1.08527e-19)
(1.04161 0.090705 0)
(-0.520011 2.28762 2.86364e-18)
(-0.945237 2.36547 -3.55169e-18)
(-1.81811 2.80232 9.34045e-19)
(-1.8992 0.415651 -3.02433e-19)
(-0.0651504 2.33607 1.11006e-18)
(-0.448602 2.56446 0)
(-0.0426743 2.31716 -1.34409e-18)
(-0.0808421 2.05938 -5.87037e-18)
(-0.0605655 2.25271 0)
(-0.176048 2.73442 1.33081e-19)
(-0.0377059 3.31531 -1.18736e-18)
(-0.0288158 2.82314 1.75147e-18)
(-0.427824 2.9967 0)
(0.132455 2.87005 0)
(1.03815 1.73486 0)
(0.444849 1.25826 -1.31194e-18)
(1.10523 1.15169 7.19007e-19)
(0.872876 1.54286 0)
(0.783387 1.04313 -6.58999e-19)
(0.977106 1.18597 5.32121e-20)
(-0.0656363 0.376693 -1.80206e-18)
(0.639237 0.23388 -3.45182e-21)
(0.602953 0.261195 9.96723e-19)
(0.332092 0.473347 6.14812e-20)
(0.230023 0.324707 -2.40837e-18)
(0.52694 0.451981 0)
(0.513471 0.622137 1.62314e-18)
(0.561507 0.303556 0)
(0.411785 0.345227 0)
(0.436337 0.311247 0)
(0.606785 0.733377 1.30144e-18)
(1.24858 0.14627 -2.66235e-18)
(1.11111 0.622483 0)
(1.17165 0.281799 0)
(0.769632 0.227752 1.5344e-18)
(0.563032 0.760484 -1.00296e-18)
(0.518795 0.500351 1.8927e-18)
(0.864919 0.403406 -2.21944e-18)
(1.00084 -0.0760216 2.69229e-18)
(1.02106 0.22276 -2.70139e-18)
(0.951136 0.0160279 0)
(0.987862 -0.0484256 0)
(0.990226 -0.0203688 -2.55698e-18)
(0.940384 0.0450797 2.53637e-18)
(0.959959 0.131673 0)
(0.916469 0.0640843 0)
(1.06653 -0.0114452 0)
(0.901561 -0.0878046 0)
(1.10918 -0.0065557 0)
(0.964491 -0.0642852 0)
(0.338387 1.83224 0)
(0.0891677 1.74374 0)
(0.514095 1.87391 -7.77705e-19)
(0.429765 2.02076 -2.75805e-19)
(0.450243 1.88457 -7.02848e-19)
(0.273733 1.86791 1.08758e-18)
(-0.107351 1.83591 0)
(0.00342621 1.95374 -6.76565e-19)
(-0.21825 1.97645 0)
(0.225158 1.70151 -2.79407e-19)
(0.147082 1.62687 1.0261e-18)
(0.411875 1.54213 5.8461e-19)
(0.0843846 1.67635 -3.59639e-19)
(-0.0123102 1.76701 2.92271e-19)
(0.132674 1.83353 -8.03515e-19)
(0.268895 1.87786 0)
(0.366573 1.66918 6.14574e-19)
(0.265873 1.64098 -2.72293e-19)
(0.320363 1.81671 0)
(0.0190549 1.84921 6.25977e-19)
(-0.277623 1.61556 0)
(0.0506418 1.67935 -4.1963e-19)
(0.0413331 1.57531 0)
(-0.0413646 1.87832 -2.90741e-19)
(0.0918791 1.62287 0)
(-0.0609977 1.80772 0)
(0.0979857 1.64353 3.18135e-19)
(0.288838 1.91106 2.63974e-19)
(-0.050274 1.73251 6.61804e-19)
(0.0746323 1.58988 4.91663e-21)
(0.275186 1.87731 1.58847e-19)
(0.0727182 1.46843 1.1038e-19)
(-0.337876 1.71378 0)
(-0.041494 1.75084 0)
(0.0458436 1.55986 5.02671e-19)
(-0.00136966 1.59204 5.44097e-19)
(0.111687 1.8358 -6.29888e-19)
(-0.042863 1.90736 0)
(0.160754 1.97301 -4.9898e-19)
(-0.108068 1.56315 1.27657e-19)
(-0.12808 1.73376 -1.6759e-20)
(0.174646 2.04503 -1.86383e-19)
(0.322757 1.59289 -1.09408e-19)
(0.0124236 1.44188 4.46218e-19)
(0.995726 0.0862189 -2.59251e-18)
(1.00665 -0.208529 2.59898e-18)
(0.942526 0.0135055 0)
(0.966272 -0.110113 3.6886e-18)
(0.899121 0.212259 -4.0209e-18)
(0.980264 -0.0171079 4.34767e-18)
(0.948718 -0.0612353 -4.67655e-19)
(1.11545 -0.172705 0)
(1.01084 0.00983392 2.59601e-18)
(0.93411 -0.0551905 -2.53421e-18)
(0.920467 -0.140263 -1.49007e-19)
(0.910973 0.225722 1.27733e-18)
(1.03835 0.14073 0)
(0.926621 0.0795229 -4.47315e-19)
(1.04337 0.031135 0)
(0.893296 0.115652 0)
(1.06904 0.0414785 0)
(0.909957 -0.0480196 0)
(0.979188 0.121976 9.1376e-19)
(1.10945 0.0230378 -2.02453e-18)
(1.01572 -0.0180109 -1.02001e-18)
(0.965602 -0.0353425 -1.07298e-18)
(1.19201 0.0793047 2.0991e-18)
(0.878709 0.103117 0)
(0.891444 -0.0800996 0)
(-0.0780748 2.0079 -3.2404e-19)
(0.412576 1.93446 -4.04149e-20)
(0.182654 1.51833 0)
(0.0381767 1.64793 3.33084e-19)
(-0.302267 1.63967 6.66745e-20)
(-0.271553 1.70036 -5.77476e-20)
(-0.227563 1.80439 3.96201e-19)
(-0.210369 1.74173 -1.332e-20)
(0.287189 1.66893 1.08592e-19)
(0.234471 1.74663 -1.49711e-19)
(-0.0631116 1.69002 1.74948e-19)
(-0.0743379 1.60816 -3.0685e-20)
(0.145394 2.03142 3.88133e-19)
(0.440697 1.64881 4.73699e-19)
(0.204211 2.04625 8.16524e-19)
(0.767418 1.80215 8.03047e-19)
(0.556069 1.9119 2.66887e-19)
(0.686619 1.88997 0)
(0.483083 1.47509 3.16343e-19)
(0.311789 1.33903 3.52144e-19)
(0.347813 1.56077 5.00196e-20)
(0.166065 1.46717 -1.14958e-18)
(0.681608 1.59613 9.73931e-19)
(0.149125 1.51443 0)
(0.176915 1.34827 -6.53047e-19)
(0.118228 1.63883 1.54026e-18)
(-0.123643 1.62745 -2.62412e-20)
(0.0539402 1.44573 -1.79862e-18)
(0.654308 1.485 1.35514e-18)
(0.466614 1.47632 0)
(1.07173 0.291563 8.51276e-20)
(0.997093 -0.211604 -7.18354e-20)
(0.877951 -0.159102 -1.29508e-18)
(1.05277 0.0623809 1.31168e-18)
(0.925387 -0.0237928 0)
(0.635079 1.55827 0)
(0.994241 1.65733 0)
(0.784346 1.23037 0)
(0.827696 1.55389 0)
(0.7145 1.68624 1.27381e-19)
(0.646714 1.42719 0)
(0.507103 1.34946 1.50631e-20)
(0.394414 1.37385 0)
(0.526698 1.74644 -1.49709e-18)
(0.721837 1.49437 9.825e-19)
(0.795716 0.049318 0)
(0.801064 0.125162 4.23356e-19)
(0.812536 0.182393 2.6009e-18)
(0.861171 0.0225812 -9.43378e-19)
(0.816014 0.071974 -3.04834e-18)
(1.24874 0.253454 -3.17973e-18)
(0.609399 0.543723 -4.05881e-20)
(1.08042 0.00306173 2.35478e-18)
(0.874814 0.0409766 2.34255e-18)
(0.836426 0.19321 -3.55241e-18)
(0.970859 0.317901 4.28709e-19)
(0.6561 0.296761 -1.07021e-18)
(0.806042 0.345659 0)
(0.920975 0.155366 1.76394e-18)
(1.0387 0.129208 0)
(1.05917 0.0356852 0)
(0.899195 0.267032 1.06018e-18)
(0.938205 0.442626 -1.21533e-20)
(0.809229 0.0109549 -6.08701e-19)
(0.938138 -0.00626118 0)
(0.875231 0.0185281 1.97181e-18)
(0.879713 -0.218706 2.52252e-18)
(1.15271 0.088462 -1.94894e-18)
(1.01261 0.24942 -1.69696e-18)
(0.960457 -0.0849752 -2.61684e-18)
(0.831272 0.232099 0)
(0.90555 0.00949083 0)
(0.877936 0.134971 -1.53833e-18)
(0.913903 -0.147907 5.71204e-19)
(1.03883 0.192643 2.25199e-18)
(1.08493 0.0642801 -2.92222e-18)
(0.916102 0.171586 2.6067e-18)
(0.861659 0.260953 0)
(1.11619 0.19449 0)
(0.841862 0.0991738 -1.15436e-18)
(0.913348 0.0458563 -1.86606e-18)
(0.391761 1.71572 7.35791e-19)
(0.566619 1.33262 -6.1592e-19)
(0.80435 1.47514 -1.06972e-18)
(0.6571 1.55389 2.66145e-19)
(0.962275 1.56244 -2.12325e-18)
(0.946578 1.67805 9.24881e-19)
(0.814847 1.34008 7.54583e-20)
(0.985658 1.73864 -1.05419e-18)
(0.567634 1.61855 1.6198e-18)
(0.606177 1.81087 4.35714e-19)
(1.07152 1.69951 -4.39787e-19)
(0.904482 1.845 0)
(0.57976 1.46421 -1.46763e-19)
(-0.38725 1.60516 1.09119e-18)
(-0.590963 0.580127 1.04367e-18)
(-0.478906 0.701832 3.65713e-19)
(0.124906 0.476068 1.36686e-18)
(0.156275 0.400015 -2.50445e-18)
(0.0942837 0.728019 1.98471e-18)
(-0.160644 0.372052 -5.85893e-19)
(0.0895513 0.32296 1.29442e-18)
(0.695979 0.30087 -9.06652e-19)
(0.611656 0.358791 0)
(0.630243 0.25759 8.88286e-21)
(0.591925 0.459195 8.73901e-19)
(0.261708 0.620664 -3.16535e-18)
(0.20308 0.574853 -2.0641e-20)
(0.451666 0.376353 0)
(0.494595 0.887223 1.10189e-18)
(0.688617 0.810654 1.26276e-18)
(0.744514 1.46819 -1.47928e-18)
(0.651075 0.860608 -6.20215e-19)
(0.844796 0.88534 -2.33336e-19)
(1.04672 1.23705 2.3741e-19)
(0.64037 0.774905 -2.1941e-18)
(0.737305 1.06079 5.83006e-19)
(1.08341 0.841063 0)
(0.931735 0.761995 -8.54357e-19)
(0.893289 0.321582 7.58824e-19)
(0.885671 0.463577 1.42806e-18)
(1.05573 0.353407 1.27626e-18)
(0.889232 0.442419 -1.46208e-18)
(1.05075 0.392766 0)
(1.01481 0.309945 0)
(0.642717 0.436366 -2.8491e-20)
(0.862367 0.199587 0)
(0.574522 0.320022 1.10054e-18)
(0.877308 0.312667 6.25974e-21)
(0.948478 0.683904 6.13357e-18)
(0.748113 0.566136 1.68203e-18)
(0.622781 0.51853 -1.56136e-18)
(0.611606 0.493605 1.69158e-18)
(0.662662 0.622475 9.47925e-19)
(0.543539 0.37135 -9.42385e-19)
(1.0652 0.0800005 2.12077e-18)
(0.89492 -0.187953 0)
(0.900908 0.0306894 1.41107e-18)
(0.822404 0.309288 -3.149e-18)
(1.1135 0.00431546 1.47623e-18)
(0.867061 0.0173141 -3.12606e-18)
(1.08188 -0.0412605 0)
(0.960874 0.0123906 -6.5499e-19)
(0.948172 0.124784 1.6488e-18)
(0.968377 -0.00826831 -8.54338e-19)
(0.91232 -0.216655 6.25214e-19)
(-0.236255 1.78989 0)
(0.254761 1.63657 0)
(-0.222877 1.75635 0)
(-0.0315726 1.72282 0)
(0.00233646 1.99419 1.00115e-18)
(-0.110637 1.78589 -1.79998e-19)
(0.120085 1.43592 -3.43078e-19)
(0.281786 1.42215 4.62946e-19)
(-0.496521 1.94941 -1.02564e-18)
(0.11602 1.53453 7.78127e-19)
(-0.0635942 1.9459 1.79322e-19)
(-0.0061449 1.50303 -8.51373e-19)
(0.205439 1.75145 -1.17524e-19)
(0.488448 1.71373 -9.49057e-20)
(-0.0970587 1.73612 -6.70347e-19)
(0.142654 1.60343 0)
(-0.129686 1.74706 2.96141e-19)
(0.146197 1.64181 2.61434e-19)
(0.110941 1.53676 -3.13638e-19)
(-0.0593222 1.81464 0)
(0.343135 1.51128 -1.19049e-18)
(0.121667 1.66967 8.66399e-19)
(0.557049 1.65276 -7.95668e-19)
(0.152914 1.56032 5.47622e-19)
(-0.271369 1.18221 0)
(0.178599 1.43845 -5.99476e-19)
(-0.108871 1.37262 -8.99203e-19)
(-0.0965879 1.76063 0)
(0.0496474 1.63235 3.40793e-20)
(-0.0645231 1.99878 2.95221e-19)
(-0.0747539 1.60797 5.44738e-20)
(0.111481 1.56054 -6.86788e-19)
(-0.104921 1.98168 2.15858e-19)
(-0.221866 1.22913 2.06446e-19)
(0.169117 2.11266 0)
(0.0716874 1.972 0)
(-0.278071 1.81912 1.61887e-19)
(0.329653 1.68361 -5.31815e-20)
(-0.0579165 1.70127 0)
(0.225099 1.76636 1.19111e-19)
(0.0068711 1.70462 -2.35934e-19)
(0.950246 0.404823 0)
(1.17216 0.000365785 -2.40127e-19)
(0.89155 0.196853 -1.67412e-18)
(0.887643 -0.0241027 0)
(0.833162 -0.306226 0)
(1.18457 -0.0394606 -2.75035e-20)
(1.054 -0.262962 2.63381e-18)
(0.87004 0.0152999 3.28447e-18)
(1.07559 0.048438 0)
(0.961099 -0.00967841 0)
(0.936444 -0.101434 1.63965e-18)
(0.96253 0.0278155 0)
(0.909485 0.226717 0)
(0.00837303 1.79906 0)
(-0.0921163 1.4328 1.14712e-19)
(-0.210325 1.47061 6.61843e-20)
(-0.084912 1.71981 0)
(0.353818 1.89114 2.92577e-19)
(0.087729 1.75497 -7.34718e-20)
(0.167871 1.52096 0)
(0.157363 1.54923 0)
(0.260737 1.28427 -1.51139e-18)
(0.312706 1.39322 0)
(0.538433 1.82959 1.77117e-18)
(0.52632 1.68799 0)
(0.621846 1.78864 -7.49869e-19)
(0.28118 1.26079 -3.08372e-20)
(0.949759 1.35681 -1.54101e-18)
(0.626493 1.30576 2.19139e-18)
(0.60002 1.39713 4.33935e-19)
(0.279314 1.47188 0)
(0.539469 1.32248 0)
(0.420305 1.48063 0)
(0.421406 1.2855 -1.52965e-18)
(0.467005 1.36119 -1.20467e-18)
(0.193102 1.34312 -2.89893e-19)
(0.640304 1.62562 2.3056e-19)
(0.235832 1.42659 0)
(0.494313 1.37042 0)
(0.339148 1.32579 -4.57059e-19)
(0.403221 1.54706 0)
(0.521693 1.35564 0)
(0.854426 1.36727 -1.88086e-18)
(0.445775 1.0378 -1.24752e-19)
(0.857223 1.39327 0)
(0.689611 1.55156 2.82023e-18)
(0.83969 1.55869 -5.327e-19)
(1.27927 1.25771 0)
(0.981252 0.887523 9.73328e-19)
(0.304218 1.72049 0)
(0.244625 1.3052 0)
(0.791103 1.23209 -9.42473e-19)
(0.694087 1.54073 -6.56295e-19)
(0.945538 1.49913 1.09245e-18)
(0.697248 1.69852 -3.32351e-19)
(0.749533 1.52288 0)
(0.669746 1.38469 4.29778e-19)
(0.800039 1.37786 -7.63125e-19)
(0.711622 1.36752 1.94068e-20)
(0.625709 1.42364 0)
(0.456531 1.58417 -6.59021e-19)
(0.450851 1.29004 0)
(0.814689 0.0971554 0)
(0.80906 0.241556 0)
(0.661206 0.182676 0)
(0.749668 0.410711 -1.71755e-18)
(0.766608 0.158074 9.3829e-19)
(1.11107 -0.0640344 -1.15659e-18)
(0.83553 -0.111254 0)
(0.968821 -0.0565256 4.94906e-19)
(0.852165 0.202305 2.00576e-18)
(0.666023 0.0975333 -1.29709e-18)
(0.856219 2.31217 8.06539e-19)
(0.701623 1.70822 0)
(0.900509 2.16577 1.99291e-18)
(0.179691 2.2475 -1.75725e-18)
(-0.0656671 1.66049 -1.28582e-18)
(0.0571347 1.41017 1.59979e-18)
(0.461824 1.5078 0)
(0.317916 0.921735 -3.36927e-19)
(-0.0560827 1.19757 2.10132e-18)
(-0.217914 1.09579 -4.79663e-19)
(0.0993941 0.623412 5.75714e-19)
(0.194818 0.678681 1.18128e-18)
(0.501993 0.758459 0)
(0.269935 0.925538 0)
(0.0998169 0.974943 0)
(0.800637 0.787438 6.98431e-19)
(0.822362 0.625199 -1.63754e-18)
(0.964485 0.626764 1.40961e-18)
(0.761942 0.312824 -1.2446e-18)
(1.04543 0.747374 0)
(0.894421 0.665806 -4.30877e-19)
(0.822584 0.372628 -2.21242e-18)
(0.775832 0.149394 -2.79138e-18)
(0.585917 0.444691 1.73858e-18)
(0.567553 0.507144 -1.60658e-18)
(0.734516 0.425788 -1.31653e-18)
(0.665224 0.288218 1.62878e-18)
(1.11242 -0.010483 -1.57029e-18)
(1.11574 0.0181645 3.30032e-18)
(1.08539 0.0102457 2.02601e-18)
(1.06169 -0.113957 -2.40804e-18)
(0.740854 0.113364 0)
(0.697168 -0.0652369 -4.20332e-18)
(0.238295 1.43913 1.97359e-19)
(-0.281493 1.80817 0)
(0.221685 1.84284 1.18192e-18)
(0.208521 1.7492 -1.06664e-18)
(-0.0323719 1.8799 6.1775e-19)
(0.230612 1.70061 0)
(-0.245991 1.72091 0)
(0.243091 1.51845 -1.01304e-19)
(0.0261727 1.62116 9.12607e-20)
(0.418689 1.59501 -2.22197e-20)
(-0.380764 1.90672 -2.3595e-19)
(-0.280761 1.75484 9.33403e-20)
(0.574616 1.6012 -1.93157e-18)
(0.866902 1.6252 2.02112e-18)
(0.433807 1.81643 -8.76574e-19)
(0.808138 1.55848 8.57506e-20)
(0.460281 1.77654 0)
(0.716893 1.75739 -1.09693e-18)
(0.615035 1.6201 1.06704e-18)
(0.448935 1.61341 8.91484e-19)
(0.521171 1.6911 0)
(0.844752 1.73897 0)
(0.895057 1.33602 1.82053e-18)
(0.390699 1.54711 2.30834e-18)
(0.0599123 1.56071 -1.6072e-18)
(-0.10008 1.60967 -2.65589e-19)
(0.423119 1.3562 5.66643e-19)
(0.497014 1.15365 -1.33256e-18)
(0.740168 1.35925 -1.24446e-18)
(0.524982 1.46808 0)
(0.615625 1.35964 -1.34803e-18)
(0.866379 1.47626 0)
(0.536076 1.81045 0)
(0.566207 1.90767 -1.22513e-18)
(0.669968 1.66331 -8.97258e-19)
(0.448769 1.96096 1.10179e-18)
(-0.414251 1.46575 0)
(0.10902 1.38273 -7.31073e-19)
(0.0886574 1.49388 -1.07714e-18)
(0.48465 1.56275 0)
(0.707927 1.87646 9.32561e-19)
(0.35932 1.97956 0)
(0.628074 1.0128 -2.34018e-18)
(0.549301 1.10074 3.25197e-18)
(0.82194 0.816962 -3.25323e-18)
(0.397136 0.808013 -2.88733e-19)
(0.35698 0.852613 -1.17441e-18)
(0.826493 1.75596 6.63034e-19)
(0.637756 1.60736 -1.38614e-18)
(0.372223 1.74684 2.05747e-18)
(0.511086 1.51429 -1.3581e-18)
(0.576627 1.78523 -1.83537e-18)
(0.585069 1.70092 -2.13377e-19)
(0.811183 1.36118 1.5063e-18)
(0.524516 1.72012 1.03452e-19)
(0.535728 1.34028 7.58085e-19)
)
;

boundaryField
{
    wall-4
    {
        type            noSlip;
    }
    velocity-inlet-5
    {
        type            fixedValue;
        value           uniform (1 0 0);
    }
    velocity-inlet-6
    {
        type            fixedValue;
        value           uniform (0 3 0);
    }
    pressure-outlet-7
    {
        type            zeroGradient;
    }
    wall-8
    {
        type            noSlip;
    }
    frontAndBackPlanes
    {
        type            empty;
    }
}

