/*--------------------------------*- C++ -*----------------------------------*\
  =========                 |
  \\      /  F ield         | OpenFOAM: The Open Source CFD Toolbox
   \\    /   O peration     | Website:  https://openfoam.org
    \\  /    A nd           | Version:  6
     \\/     M anipulation  |
\*---------------------------------------------------------------------------*/
FoamFile
{
    version     2.0;
    format      ascii;
    class       volScalarField;
    location    "0";
    object      p;
}
// * * * * * * * * * * * * * * * * * * * * * * * * * * * * * * * * * * * * * //

dimensions      [0 2 -2 0 0 0 0];

internalField   nonuniform List<scalar> 
13046
(
0.733828
0.720642
0.73719
0.756315
0.742634
0.721742
0.732986
0.726101
0.745087
0.306885
0.170533
0.656842
0.726971
0.662003
0.720055
0.411302
0.653333
0.254732
0.759612
0.74754
0.748372
0.395801
0.656349
0.242839
0.74066
0.750368
0.741278
0.701244
0.667349
0.717614
0.742647
0.688224
0.727077
0.756859
0.753728
0.743589
0.75868
0.759517
0.754147
0.719487
0.718679
0.682512
0.755351
0.770092
0.758806
0.758889
0.75415
0.754857
0.722193
0.714185
0.736223
0.669679
0.699905
0.621263
0.682104
0.596624
0.701187
0.451558
0.605328
0.664359
0.646455
0.610511
0.701921
0.669718
0.385572
0.491558
0.62419
0.465681
0.660685
0.644527
0.487916
0.66432
0.411492
0.583604
0.66233
0.758432
0.758147
0.730455
0.662711
0.540839
0.394079
0.737614
0.741144
0.736756
0.664929
0.341356
0.449489
0.462161
0.671237
0.414609
0.659357
0.392888
0.396984
0.632567
0.608076
0.562254
0.537648
0.689771
0.689341
0.672094
0.470683
0.439258
0.760663
0.753251
0.748911
0.724005
0.639866
0.69859
0.707838
0.705847
0.65167
0.123843
0.651353
-0.0230232
0.731512
0.685105
0.721147
0.601335
0.626494
0.502423
0.679448
0.546952
0.683643
0.268892
0.11845
0.654476
0.683425
0.592891
0.707727
0.717507
0.716479
0.679269
0.661072
0.425153
0.446864
0.564354
0.487914
0.681328
0.731086
0.674175
0.718539
0.688353
0.703935
0.721116
0.698259
0.688441
0.653722
0.721977
0.662901
0.717032
0.634367
0.578776
0.696332
0.746583
0.706789
0.723553
0.643313
0.589953
0.62679
0.581399
0.694284
0.691715
0.694593
0.668799
0.71121
0.299187
0.656968
0.189061
0.183596
0.65283
0.0249353
0.548373
0.45507
0.678213
0.711202
0.617927
0.701841
0.700472
0.715115
0.681878
0.659778
0.247309
0.328297
0.71418
0.642145
0.697614
0.741995
0.690307
0.711428
0.702468
0.707926
0.723375
0.647791
0.720612
0.692559
0.623976
0.707614
0.435083
0.667433
0.35838
0.669084
0.468933
0.461639
0.394169
0.383791
0.661303
0.649695
0.572908
0.683058
0.711961
0.551492
0.654602
0.39287
0.334443
0.375281
0.659089
0.753802
0.75688
0.749942
0.707648
0.679058
0.715481
0.667667
0.453498
0.47152
0.69546
0.660521
0.724749
0.653372
0.0983986
0.204719
0.683287
0.570357
0.638391
0.437612
0.427226
0.667233
0.634006
0.652655
0.708286
0.667624
0.6037
0.705919
0.533648
0.48502
0.662874
0.554303
0.601164
0.680556
0.653651
0.0891778
0.168719
0.718091
0.706294
0.634405
0.155417
0.649376
-0.0852781
0.751205
0.751924
0.740536
0.642405
0.653478
0.648785
0.663807
0.715361
0.704187
0.654005
0.51293
0.351307
0.68553
0.622887
0.701614
0.548866
0.566086
0.679165
0.576417
0.495683
0.68052
0.760248
0.752414
0.769839
0.609844
0.628388
0.695833
0.685321
0.597393
0.698728
0.697437
0.693068
0.718067
0.694217
0.611547
0.601872
0.604669
0.691649
0.540995
0.67631
0.472709
0.73098
0.708348
0.663115
0.691707
0.571743
0.627917
0.625251
0.522974
0.677102
0.701528
0.67328
0.615824
0.598914
0.590548
0.498187
0.67309
0.4842
0.67561
0.661028
0.27908
0.359395
0.640063
0.573013
0.688647
-0.169374
0.648235
0.0194346
0.738194
0.734741
0.712251
0.666027
0.631991
0.706229
0.67133
0.474669
0.404717
0.668933
0.571247
0.695421
0.504863
0.476303
0.664506
0.695677
0.724953
0.640815
0.621526
0.703169
0.680378
0.727917
0.453553
0.657233
0.299552
0.659071
0.546352
0.683837
0.621663
0.600101
0.696154
0.681734
0.688245
0.721588
0.648693
0.678714
0.712376
0.744866
0.71368
0.739236
0.682566
0.578012
0.636621
0.415577
0.368466
0.666808
0.515308
0.47407
0.670407
0.650871
0.663911
0.532289
0.567675
0.588651
0.467748
0.430755
0.660455
0.666609
0.650156
-0.136499
0.0632168
0.19055
0.648938
-0.0484696
0.624419
0.63416
0.695177
0.664771
0.414082
0.315782
0.636978
0.631511
0.531941
0.509964
0.678102
0.672584
0.654133
0.269237
0.285319
0.1264
0.647579
-0.140609
0.742851
0.76248
0.755966
0.114222
-0.0768629
0.651519
0.707706
0.615601
0.693392
0.345506
0.271267
0.659723
-0.148628
0.652168
-0.0841572
0.727043
0.720187
0.700146
0.735186
0.753432
0.747206
0.277717
0.653108
0.108443
0.726561
0.739496
0.742725
0.749408
0.76472
0.761325
0.687858
0.541572
0.639746
0.72259
0.749821
0.749632
0.744996
0.71123
0.735475
0.663708
0.545367
0.664618
0.656157
0.658437
0.235783
0.228634
0.369174
0.358498
0.370798
0.340579
0.663734
0.670749
0.644528
0.495092
0.709736
0.696358
0.652953
0.538409
0.588412
0.669737
-0.00970151
0.650063
0.00439873
0.659149
0.376882
0.368083
0.213175
0.653523
0.0750182
0.65435
-0.195741
-0.105483
-0.255912
0.65348
-0.0462311
0.577542
0.580818
0.685328
0.16277
0.651412
0.1665
0.536767
0.479924
0.679961
0.358835
0.646366
0.146332
0.721907
0.725981
0.715722
0.307145
0.656029
0.322491
0.551162
0.672509
0.601163
0.555969
0.546951
0.682507
0.658419
-0.394542
-0.235686
-0.123736
0.649036
-0.0126014
0.735586
0.736744
0.716451
0.255584
0.275026
0.657617
0.65294
0.238282
0.239907
0.413192
0.663244
0.317832
0.657223
0.361742
0.498316
0.676982
0.530675
0.667504
0.475472
0.609219
0.672734
0.653461
0.463508
0.27156
0.701742
0.690363
0.632532
0.610333
0.702641
0.702883
0.705449
0.639328
0.702451
0.652258
0.51663
0.6794
0.536198
0.507521
0.674299
0.319726
0.36788
0.660964
0.672612
0.503242
0.501244
-0.240983
0.652216
-0.00134189
0.742614
0.739138
0.731131
0.6959
0.737082
0.706242
0.682407
0.670213
0.684539
0.552738
0.682876
0.592593
-0.118343
0.650158
-0.075857
0.278066
0.308603
0.659312
0.694683
0.674426
0.611849
0.55971
0.507487
0.669777
0.658256
0.382598
0.520417
-0.0163039
0.089871
0.652449
0.0349664
0.115436
0.652418
0.639617
0.532222
0.683125
0.735298
0.70363
0.67969
0.384137
0.660894
0.266819
0.55866
0.555989
0.686558
0.673617
0.419743
0.520932
0.677598
0.687708
0.597195
0.645518
0.660854
0.704927
0.720149
0.711376
0.668115
0.659735
0.247676
0.349884
0.573579
0.480136
0.676583
0.738798
0.728546
0.706063
0.425058
0.648309
0.223555
0.709906
0.678573
0.719102
0.720208
0.704787
0.736428
0.578288
0.566926
0.684752
0.256531
0.647815
0.0234058
0.287409
0.646495
0.0489854
0.670557
0.404194
0.517386
0.615542
0.666583
0.695012
0.645325
-0.0417248
0.206155
0.674743
0.437049
0.507012
0.653079
-0.233619
-0.157519
-0.084111
-0.308217
0.651555
0.65736
0.299977
0.473995
0.656053
0.162867
0.25927
0.416489
0.446989
0.658922
0.271854
0.662652
0.323529
0.492862
0.453245
0.674804
0.678116
0.576256
0.499976
0.755244
0.738355
0.715519
0.521127
0.488043
0.677866
0.678587
0.535935
0.50767
0.487795
0.653425
0.294542
0.67181
0.528006
0.678788
0.690863
0.598073
0.684482
0.587826
0.568074
0.693054
0.575093
0.554895
0.688884
0.7442
0.724017
0.723694
0.685503
0.591284
0.703756
0.654727
0.325933
0.319206
0.095291
0.651522
0.0485254
0.0544421
0.652598
0.042426
0.715407
0.712117
0.660255
-0.0585081
0.652456
0.0289771
0.54706
0.672456
0.433052
0.65015
-0.0499948
-0.0131026
0.760009
0.748416
0.731258
0.680215
0.642438
0.70906
0.66779
0.624423
0.700189
0.652959
0.195037
0.212604
0.551898
0.562158
0.682887
0.649466
0.398329
0.203885
0.65508
0.62353
0.705728
0.76235
0.746574
0.722129
0.19802
0.239332
0.654597
0.672644
0.412356
0.500583
0.246182
0.208533
0.651531
0.650724
0.0549833
0.011469
0.665557
0.665693
0.714131
0.59763
0.601891
0.689355
0.724595
0.719861
0.743345
0.107479
0.144719
0.117125
0.651913
0.140027
0.65042
0.613093
0.552896
0.693381
0.2307
0.185562
0.170228
0.127958
0.655769
0.65485
0.606911
0.620944
0.701416
0.691702
0.664286
0.714493
0.329222
0.64819
0.118711
0.684379
0.645059
0.711551
0.720998
0.692775
0.730454
0.262484
0.648652
0.0612111
0.659068
0.582304
0.696552
0.618982
0.525851
0.673652
0.681608
0.567209
0.681448
0.47465
0.657633
0.431511
0.655271
-0.342891
-0.186351
0.659515
0.638248
0.708536
0.361459
0.65368
0.188744
0.663931
0.537074
0.680738
0.0190854
0.647987
-0.217242
0.734246
0.720215
0.709345
0.698268
0.707863
0.682155
0.731267
0.715852
0.741133
0.724703
0.738466
0.716044
0.702611
0.736298
0.693638
0.676195
0.676104
0.724545
0.694831
0.678662
0.722099
0.649753
0.0753704
0.0792209
0.713795
0.657804
0.704125
0.271102
0.192638
0.656929
0.577022
0.55118
0.541865
0.50525
0.687292
0.68153
0.710189
0.688393
0.713548
0.655635
0.556876
0.679863
0.619518
0.585572
0.698373
0.757188
0.746254
0.746371
0.547057
0.511356
0.68138
0.742776
0.728819
0.723521
0.625387
0.617349
0.701121
0.658107
0.582014
0.681592
0.754324
0.751134
0.735205
0.751029
0.737578
0.745311
0.740589
0.720257
0.744996
0.726692
0.748896
0.703707
0.706949
0.705432
0.650112
0.6442
0.711293
0.704518
0.661902
0.375244
0.513094
0.676373
0.550865
0.632029
0.662602
0.664505
0.341661
0.356166
0.48092
0.479189
0.693427
0.677311
0.588913
0.761517
0.758126
0.754067
0.537265
0.486394
0.679749
0.733856
0.721562
0.679639
0.650941
0.570079
0.68186
0.560196
0.567523
0.420059
0.667736
0.440305
0.670602
0.587012
0.532135
0.686598
0.0629787
-0.162655
0.6487
0.659793
0.557189
0.68167
0.676282
0.681118
0.666264
0.548708
0.680699
0.568584
0.526169
0.524565
0.676358
0.661698
0.577397
0.684837
0.698263
0.670852
0.584612
0.681805
0.696841
0.679575
0.699503
0.613571
0.60584
0.677364
0.685274
0.582197
0.594942
0.549664
0.690957
0.745767
0.733415
0.729819
0.310697
0.653142
0.14053
0.693106
0.672785
0.566196
0.66389
0.645923
0.572863
0.555803
0.684608
0.687692
0.654706
0.184973
0.347142
0.336501
0.651086
0.1394
0.303017
0.651092
0.111348
0.543928
0.668582
0.418269
0.672388
0.602113
0.691365
0.236272
0.362242
0.58604
0.243951
0.520815
-0.00890604
0.449774
0.324238
0.174297
0.50707
0.502804
0.138791
0.237583
0.50629
0.340764
0.238759
0.26877
0.318292
0.358531
0.460984
0.380788
0.306996
0.523682
0.643924
0.597397
0.371472
0.537886
0.150653
0.407699
0.222452
0.16692
0.443646
0.372264
0.362871
0.201538
0.390917
0.57391
0.520048
0.286649
0.410032
0.282345
0.652941
0.229292
0.503868
0.552636
0.298362
0.309641
0.251026
0.147327
0.229056
0.600461
0.383997
0.242378
0.290281
0.164778
0.593461
0.463015
0.379849
0.243832
0.493348
0.22401
0.238874
0.598469
0.347063
0.378991
0.466578
0.398346
0.639437
0.522041
0.511672
0.111098
0.161419
0.288666
0.482752
0.14477
0.361478
0.361525
0.192539
0.480389
0.553558
0.318057
0.365685
0.155528
0.221767
0.288855
0.492939
0.290859
0.262351
0.335492
0.60702
0.239544
0.493865
0.596995
0.36705
0.239125
-0.102027
0.206924
0.256589
0.238373
0.106783
0.435638
0.52844
0.567385
0.647438
0.22785
0.24062
0.146889
0.255481
0.210174
0.57123
0.534626
0.460422
0.196804
0.160214
0.425715
0.531269
0.319354
0.262447
0.0955585
0.309843
0.357447
0.621592
0.637131
0.486843
0.382787
0.297256
0.142746
0.620171
0.182264
0.479248
0.100582
0.599029
0.15776
0.162726
0.215444
0.551465
0.34916
0.0576119
0.224061
0.452167
0.231722
0.497416
0.432063
0.251407
0.549386
0.289253
0.212206
0.563078
0.229436
0.326343
0.142129
0.393829
0.283192
0.55719
0.492365
0.308381
0.482632
0.499137
0.581925
0.365824
0.284313
0.245623
0.500314
0.183262
0.410018
0.155545
0.640061
0.313314
0.560884
0.616408
0.388436
0.625057
0.563269
0.578953
0.189364
0.0929182
0.140401
0.58603
0.189686
0.16782
0.174265
0.171449
0.322863
0.288771
0.393405
0.616827
0.48904
0.282739
0.490566
0.271798
0.647158
0.124688
0.540442
0.253276
0.0811668
0.603592
0.621394
0.244035
0.257435
0.639224
0.412122
0.28357
0.212616
0.483451
0.571015
0.472891
0.22713
0.245106
0.515448
0.37947
0.211117
0.437733
0.172284
0.179595
0.298201
0.547492
0.103514
0.312535
0.529265
0.283943
0.0965397
0.309632
0.246735
0.287399
0.43256
0.445329
0.220703
0.162508
0.203496
0.464659
0.466479
0.307396
0.449732
0.29609
0.190742
0.416503
0.283604
0.074804
0.480291
0.561667
0.396084
0.611769
0.575694
0.649798
0.239788
0.0492073
0.335451
0.307723
0.281576
0.113169
0.421417
0.598488
0.480048
0.411933
0.21548
0.313477
0.495884
0.37818
0.452423
0.231377
0.337766
0.279885
0.156539
0.219572
0.252246
0.239929
0.19421
0.449827
0.381519
0.310807
0.459113
0.253593
0.324879
0.229866
0.310281
0.275513
0.267
0.406364
0.113486
0.0399872
0.342494
0.132504
0.0988575
0.410938
0.126961
0.101904
0.558694
0.455352
0.221871
0.490572
0.174229
0.442731
0.441027
0.181336
0.246602
0.52862
0.340691
0.494939
-0.0136335
0.206381
0.562736
0.272729
0.217671
0.0151301
0.115714
0.0853661
0.124131
0.285555
0.457196
0.189203
0.0862173
0.210554
0.265519
0.647393
0.234393
0.480128
0.416869
0.1473
0.308048
0.217139
0.157661
0.435501
0.297928
0.597683
0.461919
0.217318
0.289812
0.386985
0.642854
0.487977
0.575158
0.49259
0.285573
0.394232
0.32303
0.201451
0.11972
0.259257
0.2762
0.457823
0.236523
0.138973
0.244252
0.297324
0.238093
0.264671
0.542377
0.279988
0.257928
0.591739
0.548957
0.218314
0.386925
0.571767
0.226247
0.117866
0.292436
0.192469
0.157661
0.568333
0.215304
0.314222
0.582711
0.0996534
0.390341
0.233618
0.390905
0.295308
0.247667
-0.0830493
0.308932
0.14065
0.256723
0.300691
0.299356
0.485471
0.596292
0.236482
0.379262
0.298668
0.211044
0.0686182
0.533517
0.42926
0.262705
0.13988
0.407396
0.13795
0.248688
0.226941
0.207928
0.526126
0.594569
0.278139
0.479521
0.641294
0.539064
0.540445
0.582498
0.278092
0.263289
0.16067
0.641025
0.5279
0.560791
0.244663
0.286495
0.0906472
0.493077
0.291721
0.226829
0.56155
0.446072
0.192404
0.305099
0.228989
0.242488
0.231919
0.290643
0.311766
0.185156
0.2783
0.122559
0.308818
0.187355
0.444692
0.362943
0.103768
0.573935
0.588346
0.48953
0.270179
0.39791
0.125541
0.505004
0.379477
0.136671
0.569554
0.0574334
0.6001
0.130528
0.323432
0.337585
0.48692
0.511157
0.239472
0.617267
0.24662
0.544672
0.323957
0.445973
0.267135
0.227629
0.25304
0.551348
0.333455
0.635782
0.46801
0.11644
0.237726
0.443945
0.0820827
0.274205
0.325802
0.184696
0.604004
0.194159
0.169986
0.514451
0.25285
0.597192
0.629218
0.296282
0.63803
0.612316
0.547139
0.56597
0.413509
0.147789
0.22425
0.302698
0.531482
0.301616
0.0602466
0.614898
0.189601
0.31913
0.215327
0.579695
0.644496
0.2033
0.540118
0.41553
0.596015
0.311505
0.498325
0.302852
0.616177
0.632877
0.468289
0.222147
0.516416
0.275084
0.383172
0.366483
0.321917
0.418577
0.257922
0.0646294
0.163131
0.334416
0.438469
0.384981
0.564795
0.206615
0.288999
0.440679
0.166846
0.586721
0.226466
0.302797
0.585286
0.553528
0.398828
0.622781
0.224204
0.286553
0.503797
0.361634
0.351504
0.321184
0.255227
0.446458
0.475375
0.256239
0.229996
0.397038
0.115289
0.181362
0.597967
0.640742
0.636472
0.3271
0.647398
0.642632
0.608256
0.0658983
0.425769
0.418345
0.624383
0.283304
0.235486
0.14555
0.219866
0.0298739
0.613452
0.33706
0.347109
0.502986
0.468284
0.276238
0.300641
0.64242
0.618745
0.574585
0.464424
0.264047
0.479011
0.44783
0.281007
0.338521
0.165012
0.21713
0.370358
0.349832
0.265134
0.600863
0.597006
0.0721267
0.550611
0.241034
0.231004
0.290965
0.595056
0.311815
0.466879
0.332015
0.577911
0.290803
0.334166
0.6318
0.0900859
0.112113
0.224457
0.191971
0.0427477
-0.138914
0.205413
0.0503338
0.35864
0.0706166
0.176049
0.348862
0.244531
0.207386
0.274293
0.151671
-0.102629
0.613793
0.554076
0.298371
0.141348
0.563488
0.271216
0.234965
0.63086
0.215013
0.627941
0.312499
0.558283
0.325161
0.138241
0.168416
0.380751
0.383527
0.359866
0.140966
0.298059
0.18079
0.194697
0.251338
0.104604
0.157478
0.610412
0.219356
0.475267
0.510332
0.285494
0.533626
0.51403
0.145407
-0.127634
0.3241
0.12083
0.0495498
0.484058
0.489657
0.299909
0.441326
0.276627
0.632072
0.610044
0.323706
0.265379
0.619809
0.565803
0.432754
0.43015
0.286669
0.636221
0.370872
0.0696666
0.581284
0.538536
0.598491
0.38754
0.226117
0.287284
0.492294
0.43863
-0.218047
0.653509
0.321103
0.220498
0.374477
0.574554
0.635126
0.636035
0.439557
0.344495
0.519131
0.568896
0.592265
0.47633
0.53353
0.15782
0.237163
0.404312
0.161358
0.152446
0.103839
0.318149
0.515428
0.12207
0.370497
0.243253
0.548763
0.636118
0.333621
0.14754
0.0910454
0.506356
0.259838
0.213967
0.0962083
0.599399
0.405197
0.419007
0.13
0.421338
0.215438
0.2339
0.4885
0.511055
0.604296
0.645798
0.205496
0.572418
0.0728715
0.584185
0.597799
0.598041
0.521027
0.184462
0.184803
0.304418
0.0685603
0.363959
0.100532
0.414068
0.137332
0.560822
0.286468
0.0828627
0.553544
0.504804
0.330534
0.341153
0.471825
0.59574
0.406952
0.358494
0.0781525
0.538868
0.386847
0.622413
0.0486556
0.352455
0.582821
0.490655
0.622539
0.497591
0.299914
0.0245389
0.0802536
0.340933
0.115977
0.61193
0.0724081
0.258347
0.328136
0.216065
0.532074
0.0535377
0.593682
0.494215
0.422758
0.0683461
0.447874
0.216061
0.28824
0.339074
0.32914
0.285497
0.266168
0.518452
0.18836
0.646811
0.277181
0.344908
0.460762
0.492071
0.615344
0.286903
0.314773
0.206397
0.340423
0.261958
0.606669
0.218562
0.366072
0.284759
0.540498
0.236925
0.383769
0.153543
0.636579
0.0651832
0.182959
0.264789
0.547844
0.0885377
0.103324
0.175505
0.139102
0.59587
0.356147
0.473695
0.558267
0.4548
0.375708
0.638383
0.363085
0.49892
0.450279
0.381104
0.103719
0.39409
0.338854
0.260489
0.395618
0.187977
0.116101
0.384365
0.291437
0.189667
0.533411
0.344845
0.475041
0.333152
0.61282
0.324917
0.319127
0.450156
0.135519
0.208074
0.285375
0.380302
0.405616
0.439643
0.591854
0.488323
0.529115
0.389304
0.572768
0.615438
0.611847
0.401397
0.363564
0.414539
0.151498
0.626994
0.564501
0.543355
0.359537
0.183846
0.10604
0.415226
0.489956
0.223063
0.5417
0.563167
0.437955
0.240775
0.385831
0.261431
0.224453
0.361835
0.246336
0.41928
0.096564
0.422844
0.335528
0.32507
0.0559504
0.402781
0.375081
0.466822
0.281624
0.409922
0.589757
0.603804
0.421326
0.316896
0.530852
0.3838
0.213569
0.212258
0.316088
0.130739
0.591391
0.346934
0.397447
0.494368
0.480107
0.43974
0.181439
0.640173
0.448188
0.225515
0.35454
0.369569
0.53032
0.584114
0.450587
0.425874
0.090945
0.192623
0.325728
0.433847
0.368573
0.42197
0.246832
0.599709
0.429146
0.53135
0.569953
0.400237
0.225103
0.376066
0.623785
0.254136
0.0824662
0.372947
0.632575
0.266526
0.317053
0.520078
0.489303
0.548318
0.35557
0.0951138
0.43158
0.147643
0.27447
0.547733
0.345225
0.158209
0.217533
0.262641
0.445862
0.277065
0.252
0.576935
0.231003
0.640177
0.543952
0.139889
0.0360151
0.347904
0.498586
0.566841
0.352667
0.326014
0.218906
0.306294
0.326213
0.645319
0.583044
0.49821
0.282593
0.106645
0.604606
0.639151
0.599242
0.530777
0.580378
0.370199
0.155762
0.0630799
0.0838784
0.613639
0.372854
0.204843
0.297295
0.638712
0.285985
0.240582
0.125617
0.356381
0.206071
0.658183
0.433506
0.49252
0.578724
0.562342
0.309824
0.453833
0.368382
0.478238
0.243386
0.438167
0.245751
0.605425
0.151041
0.268153
0.196171
0.301245
0.58788
0.295269
0.545034
0.572565
0.580921
0.172212
0.365007
0.325901
0.229445
0.597216
0.386809
0.390514
0.428214
0.0133267
0.301972
0.614271
0.460206
0.601057
0.0732741
0.183484
0.293242
0.612119
0.233844
0.332245
0.192616
0.178818
0.287679
0.625243
0.313688
0.331989
0.1293
0.654667
0.62586
0.0182013
0.614798
0.28379
0.174429
0.187389
0.366056
0.124101
0.438594
0.283625
0.271561
0.306842
0.595369
0.353868
0.544428
0.309949
0.171221
0.304736
0.0715627
0.10578
0.33892
0.27979
0.400261
0.18876
0.33405
0.568591
0.430357
0.271889
0.129219
0.584419
0.356889
0.335719
0.649728
0.398339
0.265396
0.263744
0.187989
0.619297
0.264253
0.340102
0.444412
0.133549
0.590404
0.161896
0.573517
0.360014
0.512325
0.197141
0.53108
0.331102
0.144282
0.211259
0.358095
0.588435
0.0310106
0.231978
0.277793
0.615141
0.645722
0.210499
0.255211
0.43318
0.638945
0.321378
0.594627
0.564398
0.54076
0.512193
0.409896
0.47019
0.456793
0.600209
0.334597
0.379696
0.211465
0.24467
0.332316
0.194431
0.620257
0.168812
0.593907
0.324333
0.611868
0.253889
0.628087
0.508574
0.583177
0.612731
0.589066
0.647422
0.3109
0.573654
0.355423
0.29164
0.234054
0.190293
0.60104
0.170778
0.433116
0.446538
0.324125
0.432415
0.239692
0.607245
0.38008
0.521432
0.0604875
0.218445
0.299497
0.665437
0.220806
0.466328
0.251972
0.300439
0.155775
0.315727
0.287099
0.53616
0.60527
0.121737
0.425147
0.293765
0.261787
0.552345
0.220073
0.242049
0.620499
0.0851699
0.392742
0.492185
0.584904
0.631628
0.2533
0.233538
0.137435
0.285821
0.231217
0.291468
0.515283
0.276706
0.153979
0.330354
0.365504
0.270208
0.239364
0.276211
0.367614
0.143108
0.524826
0.511049
0.264519
0.521915
0.141467
0.123622
0.216861
0.0882076
0.621299
0.29077
0.28337
0.243348
0.563201
0.599193
0.400013
0.514197
0.243564
0.225482
0.368922
0.286236
0.228467
0.599492
0.409591
0.467447
0.624707
0.532884
0.348404
0.614762
0.116472
0.404836
0.398529
0.443047
0.299446
0.616411
0.275247
0.435949
0.352194
0.268755
0.195331
0.241489
0.508726
0.555325
0.576126
0.375581
0.399143
0.614863
0.535962
0.339762
0.397027
0.166868
0.308386
0.541223
0.119559
0.568949
0.28328
0.581793
0.648605
0.60351
0.271242
0.580216
0.565803
0.100998
0.615706
0.247
0.60874
0.536128
0.295805
0.186715
0.41034
0.313266
0.29093
0.237984
0.547601
0.26824
0.614977
0.179304
0.255083
0.226514
0.177241
0.283846
0.554708
0.631992
0.173196
0.521025
0.375991
0.43649
0.325861
0.431368
0.593094
0.541457
0.286585
0.58519
0.551155
0.628243
0.176571
0.255424
0.238042
0.51538
0.622106
0.558833
0.340294
0.627688
0.355084
0.124119
0.184641
0.0307105
0.339652
0.153508
0.628135
0.640484
0.39757
0.650878
0.544071
0.393714
0.622661
0.163612
0.616405
0.306211
0.598957
0.288888
0.186643
0.509732
0.40417
0.60887
0.592478
0.596702
0.206105
0.203499
0.0988386
0.572048
0.539088
0.207821
0.367472
0.541541
0.0745274
0.254083
0.202939
0.293731
0.431815
0.288628
0.398917
0.511858
0.38176
0.399469
0.513353
0.285685
0.303915
0.431813
0.386522
0.292219
0.574388
0.609306
0.208502
0.536005
0.0633471
0.245513
0.582393
0.526022
0.274345
0.601716
0.161037
0.509911
0.311623
0.311785
0.582242
0.293512
0.521715
0.511293
0.477071
0.642822
0.483921
0.138288
0.451784
0.335938
0.523764
0.643167
0.470574
0.352385
0.227568
0.314053
0.584039
0.171375
0.565192
0.213292
0.418107
0.533492
0.512872
0.373297
0.579172
0.625992
0.297513
0.287531
0.397243
0.201575
0.153759
0.403757
0.511344
0.216511
0.135192
0.223127
0.132451
0.504935
0.35031
0.528598
0.249089
0.59917
0.381713
0.565692
0.636334
0.231009
0.590241
0.290811
0.401527
0.371673
0.57572
0.239165
0.318442
0.378847
0.191237
0.294548
0.184082
0.153354
0.0641985
0.622496
0.637094
0.213718
0.249699
0.518208
0.111678
0.218603
0.288043
0.492095
0.504275
0.0983384
0.0607057
0.592524
0.247801
0.433975
0.244467
0.129267
0.185949
0.410973
0.565687
0.429866
0.119339
0.600877
0.563186
0.215194
0.431619
0.278783
0.635109
0.299893
0.326909
0.148608
0.47305
0.612148
0.44553
0.407387
0.232955
0.345181
0.435277
0.623131
0.654707
0.237052
0.628773
0.242701
0.413697
0.414692
0.339185
0.272856
0.573999
0.305361
0.406417
0.212737
0.232188
0.311892
0.190455
0.477457
0.599774
0.213669
0.252264
0.405116
0.278983
0.230911
0.0655727
0.27712
0.582185
0.0807484
0.264321
0.502026
0.405354
0.341305
0.466364
0.554813
0.200965
0.206105
0.555868
0.329562
0.198248
0.359821
0.573818
0.46764
0.415325
0.241023
0.237586
0.229918
0.624315
0.558108
0.632635
0.334617
0.486171
0.16708
0.371294
0.566878
0.119999
0.132584
0.511018
0.562136
0.113406
0.260251
0.236609
0.189574
0.234826
0.652251
0.322315
0.254608
0.406839
0.227689
0.507547
0.420246
0.158635
0.2636
0.532649
0.342226
0.62586
0.149543
0.256265
0.456673
0.436564
0.340378
0.43701
0.192056
0.630781
0.624563
0.460764
0.579726
0.221076
0.573365
0.46476
0.454086
0.615206
0.112186
0.269692
0.639355
0.468418
0.102615
0.265367
0.556545
0.635921
0.368942
0.519592
0.237277
0.14406
0.209335
0.094069
0.566898
0.238895
0.383078
0.61542
0.226118
0.203865
0.23553
0.393471
0.252356
0.272754
0.231221
0.174686
0.344044
0.53942
0.611214
0.493824
0.281317
0.268096
0.0889947
0.263112
0.452785
0.429989
0.477251
0.505722
0.269431
0.355428
0.550807
0.565664
0.634886
0.583364
0.618925
0.347033
0.159349
0.209491
0.174191
0.624389
0.394249
0.243472
0.613062
0.167673
0.544429
0.506452
0.266778
0.243952
0.269781
0.244945
0.562884
0.313955
0.493259
0.360068
0.608096
0.426044
0.642977
0.20682
0.362156
0.255365
0.0553829
0.282993
0.528219
0.186506
-0.0101566
0.414278
0.615185
0.525196
0.242999
0.14908
0.214685
0.170134
0.246966
0.171917
0.337037
0.18294
0.513104
0.209867
0.249839
0.612498
0.354
0.474445
0.554033
0.326469
0.382276
0.201239
0.530117
0.307714
0.271698
0.330701
0.192638
0.142678
0.245547
0.237239
0.523181
0.634432
0.572365
0.418182
0.499648
0.120489
0.629952
0.420961
0.512362
0.245001
0.502849
0.26956
0.290268
0.542822
0.610929
0.527204
0.421807
0.300834
0.639261
0.29409
0.545794
0.621265
0.481627
0.314893
0.113959
0.54543
0.409603
0.181554
0.466884
0.401151
0.604728
0.234059
0.616825
0.635542
0.33086
0.209164
0.618194
0.154054
0.188609
0.290175
0.18303
0.277365
0.194931
0.152015
0.357819
0.252585
0.211219
0.270175
0.428594
0.243247
0.227774
0.459666
0.383522
0.133464
0.599782
0.645283
0.623581
0.241898
0.122417
0.647903
0.142753
0.344151
0.226239
0.290624
0.243885
0.510196
0.280179
0.278847
0.13233
0.118407
0.184145
0.283679
0.109122
0.368489
0.407933
0.355444
0.609587
0.400336
0.470807
0.31309
0.558943
0.285649
0.290637
0.664676
0.290248
0.401174
0.153284
0.483197
0.637731
0.313713
0.441556
0.402387
0.261728
0.234868
0.222441
0.183993
0.51617
0.194733
0.326827
0.278409
0.332412
0.216475
0.224654
0.343494
0.305726
0.261654
0.649261
0.349138
0.313583
0.416841
0.60904
0.292503
0.122188
0.535901
0.156222
0.310638
0.239196
0.351471
0.269441
0.303521
0.351975
0.629697
0.570002
0.130005
0.260554
0.11832
0.228112
0.0999142
0.189465
0.282837
0.204536
0.28984
0.45664
0.646885
0.282976
0.503539
0.377235
0.623096
0.277512
0.636275
0.447418
0.166326
0.449675
0.514061
0.287326
0.566652
0.239459
0.577782
0.248164
0.0136363
0.353752
0.645769
0.636553
0.516097
0.460583
0.49174
0.129316
0.258057
0.491048
0.643006
0.0400544
0.354771
0.240735
0.283736
0.334362
0.216124
0.168117
0.244413
0.187297
0.256179
0.298832
0.331964
0.640993
0.56191
0.0988378
0.537304
0.203896
0.215568
0.545508
0.246376
0.309272
0.477437
0.0833174
0.221453
0.366843
0.571227
0.173116
0.233335
0.30542
0.45258
0.17343
0.607044
0.118072
0.286064
0.307566
0.239683
0.460184
0.45632
0.609018
0.234763
0.523425
0.408595
0.446728
0.235552
0.45861
0.201609
0.160453
0.0774736
0.417942
0.35086
0.308272
0.589129
0.357889
0.412027
0.455338
0.216194
0.191595
0.28687
0.424331
0.246936
0.645288
0.155917
0.1186
0.287608
0.281787
0.248814
0.232671
0.502702
0.289187
0.361605
0.174354
0.242623
0.356055
0.16956
0.643086
0.640303
0.180195
0.215041
0.56537
0.377862
0.224247
0.148288
0.222567
0.180777
0.404842
0.596444
0.225937
0.128539
0.455314
0.348932
0.11938
0.176276
0.345786
0.496454
0.655
0.164701
0.115615
0.426266
0.566873
0.315605
0.40852
0.300419
0.239607
0.291431
0.451941
0.345437
0.242143
0.537902
0.303737
0.0803137
0.398584
0.250133
0.543552
0.642422
0.251845
0.280213
0.28231
0.280561
0.164744
0.292982
0.18029
0.612931
0.54936
0.494256
0.285198
0.136083
0.528885
0.627395
0.227019
0.392796
0.273271
0.0637029
0.37543
0.287515
0.0626744
0.24233
0.462338
0.163403
0.122078
0.183357
0.567161
0.149236
0.538048
0.338499
0.235616
0.300411
0.208637
0.544346
0.0894924
0.291639
0.322159
0.15883
0.408937
0.492151
0.422643
0.351278
0.521539
0.176648
0.178712
0.593426
0.236319
0.588138
0.427354
0.31424
0.406391
0.572817
0.349158
0.115495
0.605867
0.229253
0.324796
0.5745
0.219473
0.617386
0.227583
0.306341
0.0935541
0.307913
0.184579
0.363921
0.189919
0.0826128
0.177429
0.174329
0.069896
0.596088
0.174168
0.300671
0.41695
0.35838
0.630067
0.631731
0.265866
0.357989
0.549163
0.252809
0.597569
0.0833612
0.300001
0.396006
0.231155
0.554308
0.27398
0.283647
0.264544
0.229754
0.23053
0.0854795
0.577095
-0.0853728
0.621578
0.495811
0.191159
0.121946
0.189259
0.656963
0.497685
0.462839
0.344366
0.412131
0.324965
0.574364
0.529733
0.211433
0.442583
0.624179
0.336064
0.388802
0.451272
0.104725
0.174702
0.550927
0.298025
0.330708
0.617791
0.167546
0.0877725
0.242724
0.329124
0.335662
0.644693
0.226725
0.141671
0.224845
0.326274
0.231944
0.58653
0.348225
0.193861
0.273006
0.226772
0.219335
0.275259
0.446722
0.379865
0.20266
0.585585
0.293573
0.571605
0.203581
0.167974
0.29617
0.578761
0.623963
0.555475
0.36676
0.343835
0.541174
0.63489
0.157001
0.598381
0.182449
0.468884
0.448163
0.584843
0.363684
0.57029
0.605023
0.249321
0.246255
0.30177
0.361073
0.183047
0.204944
0.166081
0.509876
0.555208
0.151125
0.605446
0.363409
0.525508
0.339592
0.1934
0.551331
0.531321
0.276861
0.266087
0.183153
0.634295
0.503265
0.645385
0.15236
0.182091
0.323782
0.561208
0.456187
0.605035
0.392305
0.640167
0.242426
0.315506
0.38918
0.259122
0.43114
0.127137
0.541064
0.349366
0.393923
0.599769
0.141372
0.154787
0.0921276
0.429041
0.579287
0.263819
0.460776
0.139132
0.137978
0.336007
0.248084
0.227893
0.594742
0.372162
0.215858
0.316958
0.421053
0.614137
0.430379
0.307565
0.576552
0.367245
0.620041
0.377126
0.491914
0.309909
0.148884
0.647482
0.197528
0.409054
0.416111
0.594258
0.480754
0.346782
0.246834
0.638686
0.320847
0.19987
0.51527
0.631156
0.50382
0.462209
0.139849
0.0736937
0.393934
0.206924
0.304615
0.379852
0.20241
0.610992
0.637165
0.604581
0.258103
0.293599
0.229993
0.280409
0.481307
0.168353
0.477537
0.612934
0.158771
0.280625
0.238096
0.556124
0.463183
0.293183
0.210052
0.501784
0.229097
0.118864
0.17585
0.646849
0.0851185
0.536792
0.445016
0.236602
0.62988
0.403629
0.660547
0.0799795
0.284082
0.396641
0.602746
0.283621
0.59663
0.405257
0.0847372
0.348621
0.251103
0.291804
0.0756102
0.53432
0.283032
0.208163
0.115611
0.353069
0.599137
0.0182858
0.267614
0.577697
0.312605
0.571455
0.077723
0.231826
0.234288
0.322486
0.251197
0.139536
0.227622
0.0315178
0.303862
0.306754
0.527058
0.394243
0.580364
0.217394
0.293449
0.143274
0.373936
0.0314137
0.299609
0.644344
0.333893
0.269619
0.652063
0.204878
0.409081
0.454342
0.13134
0.258065
0.351592
0.414255
0.611744
0.630348
0.630572
0.425014
0.315878
0.315486
0.187596
0.568537
0.474635
0.235041
0.276585
0.264727
0.343897
0.66128
0.313305
0.661128
0.271955
0.457243
0.191223