/*--------------------------------*- C++ -*----------------------------------*\
  =========                 |
  \\      /  F ield         | OpenFOAM: The Open Source CFD Toolbox
   \\    /   O peration     | Website:  https://openfoam.org
    \\  /    A nd           | Version:  6
     \\/     M anipulation  |
\*---------------------------------------------------------------------------*/
FoamFile
{
    version     2.0;
    format      ascii;
    class       volVectorField;
    location    "0";
    object      U;
}
// * * * * * * * * * * * * * * * * * * * * * * * * * * * * * * * * * * * * * //

dimensions      [0 1 -1 0 0 0 0];

internalField   nonuniform List<vector> 
13046
(
(-0.863759 0.427563 0)
(-0.624711 0.0449249 -8.23158e-21)
(-0.292087 -0.0552742 -1.83117e-20)
(-0.820845 0.330294 0)
(-0.362198 0.04533 -1.65577e-20)
(-0.514787 -0.00353128 0)
(-0.891561 0.372018 2.39199e-21)
(-0.51682 -0.0340236 4.21275e-21)
(-0.335843 0.0450063 -1.82481e-20)
(-1.45255 0.770793 5.89288e-21)
(-0.798019 -0.23645 0)
(-0.0332022 -0.149614 1.2177e-20)
(-1.04991 0.522336 -7.60872e-21)
(-0.608555 -0.0238766 -1.30961e-20)
(-0.236997 -0.062389 1.0052e-20)
(-1.43296 0.863953 -8.29617e-21)
(-0.0719755 -0.179416 2.92217e-20)
(-0.836826 -0.14599 6.87215e-21)
(-0.527911 0.190156 0)
(-0.420297 -0.0291385 -8.93155e-21)
(-0.71591 0.210164 2.51425e-20)
(-1.44268 0.853973 -3.32959e-21)
(-0.0624492 -0.171941 -3.90358e-20)
(-0.825735 -0.165146 0)
(-0.755055 0.318298 1.01406e-20)
(-0.577964 0.0533593 -2.01689e-20)
(-0.351396 -0.000119357 0)
(-1.05813 0.557938 -1.3668e-20)
(-0.63217 -0.0171063 3.8269e-21)
(-0.221884 -0.0853173 -1.741e-20)
(-0.875699 0.452929 0)
(-0.657092 0.0654492 0)
(-0.279437 -0.082102 1.86371e-20)
(-0.688292 0.26877 -1.17736e-20)
(-0.382473 0.0182033 6.18481e-21)
(-0.573296 0.0746393 3.51574e-20)
(-0.669273 0.240684 -1.81817e-20)
(-0.414665 0.0511662 9.44839e-21)
(-0.544868 0.0675997 -1.81241e-20)
(-0.723784 0.405953 1.30861e-20)
(-0.331937 -0.155812 3.42976e-21)
(-0.839495 0.187881 -1.2369e-20)
(-0.583779 0.154001 8.21089e-21)
(-0.505315 0.11715 1.41263e-20)
(-0.503861 0.0747496 0)
(-0.630754 0.1779 5.1759e-21)
(-0.497495 0.131591 -2.16462e-20)
(-0.473372 0.0418182 -2.70182e-21)
(-0.894945 0.431604 0)
(-0.596499 0.0149438 -5.92085e-22)
(-0.279076 -0.0413673 7.62269e-24)
(-0.407359 -0.23803 2.12814e-20)
(-0.612813 0.387832 0)
(-1.08699 0.305598 -1.49777e-20)
(-0.436393 -0.252645 -3.03099e-20)
(-1.16056 0.344534 -2.34946e-20)
(-0.551634 0.346865 2.056e-20)
(-0.845988 0.020597 -3.02922e-21)
(-1.27879 0.86169 0)
(-0.189657 -0.228081 1.60437e-20)
(-1.30405 0.579948 -7.0406e-21)
(-0.587923 -0.166527 7.80167e-21)
(-0.208807 0.00921055 -4.23648e-20)
(-0.0769365 -0.131532 2.2276e-20)
(-0.745683 -0.179873 -5.00691e-21)
(-1.47972 0.779439 -1.03144e-20)
(-1.22241 0.84698 0)
(-0.875291 0.0596949 0)
(-0.218167 -0.245274 0)
(-1.17601 0.810788 -5.52952e-21)
(-0.872777 0.0736113 0)
(-0.229468 -0.241344 1.2781e-20)
(-0.859228 0.0102094 0)
(-1.31527 0.890657 2.4569e-22)
(-0.177753 -0.234456 -4.1409e-24)
(-0.561038 0.223956 0)
(-0.397081 -0.0542224 9.69826e-21)
(-0.736136 0.19744 -1.79378e-20)
(-0.140187 -0.214206 1.7798e-20)
(-1.3708 0.903715 -1.56933e-20)
(-0.837992 -0.046271 0)
(-0.803052 0.34491 5.29724e-21)
(-0.557158 0.0298777 0)
(-0.337457 0.010092 0)
(-0.0662542 -0.140577 -2.00107e-20)
(-0.763418 -0.190206 -3.90328e-21)
(-1.48981 0.791908 6.08749e-21)
(-1.53261 0.688435 -1.06891e-20)
(-0.0891799 -0.0670517 0)
(-0.688374 -0.249863 -3.87064e-21)
(-0.123164 0.00424641 0)
(-1.59279 0.596448 0)
(-0.646575 -0.330086 5.19255e-22)
(-1.30807 0.701172 0)
(-1.35771 0.714579 6.21435e-21)
(-0.680329 -0.0938807 1.52564e-20)
(-0.684471 -0.121262 -7.16123e-21)
(-0.14956 -0.111931 -9.16142e-21)
(-0.133872 -0.104839 2.34985e-20)
(-0.105519 -0.044869 -1.12433e-21)
(-1.53304 0.666696 1.04628e-20)
(-0.669705 -0.263931 0)
(-0.684265 0.219496 -4.84677e-23)
(-0.46426 0.11564 1.13904e-20)
(-0.474109 0.0201236 0)
(-0.463362 0.250629 0)
(-1.09184 0.365876 -7.24103e-21)
(-0.444493 -0.194213 0)
(-0.617748 0.367517 2.26993e-20)
(-0.383817 -0.197421 0)
(-0.98647 0.271725 -2.81143e-20)
(-1.30108 0.699812 0)
(-0.0114561 -0.144891 0)
(-0.786983 -0.283031 -5.66404e-21)
(-0.98332 0.479977 2.09993e-20)
(-0.593945 -0.00958374 5.51999e-21)
(-0.25795 -0.0451312 1.82508e-20)
(-1.35415 0.778624 8.0139e-21)
(-1.30846 0.737993 -1.51937e-20)
(-0.734324 -0.0837187 -1.29396e-20)
(-0.132983 -0.150844 1.0524e-20)
(-0.707828 -0.073876 7.86983e-21)
(-0.146424 -0.136724 -9.83183e-21)
(-1.42408 0.771408 -4.43352e-21)
(-0.808447 -0.242261 -7.89334e-21)
(-0.0287069 -0.15348 -5.45488e-21)
(-1.1954 0.646155 0)
(-0.661621 -0.0547783 -1.0105e-20)
(-0.180113 -0.108775 2.13648e-20)
(-0.784171 0.445254 0)
(-0.309413 -0.150867 -1.70362e-20)
(-0.802553 0.154 7.20066e-22)
(-0.150928 0.029508 0)
(-1.57777 0.58706 0)
(-0.633182 -0.318326 0)
(-1.44142 0.7235 0)
(-0.692631 -0.172562 -1.99226e-20)
(-0.112334 -0.0927642 -2.52494e-20)
(-0.936027 0.491621 0)
(-0.667512 0.0487301 0)
(-0.259482 -0.10054 0)
(-1.07932 0.444228 0)
(-0.509327 -0.120862 0)
(-0.317913 0.0763098 0)
(-0.582968 0.346917 0)
(-0.405855 -0.209919 0)
(-1.04103 0.303982 1.51172e-20)
(-0.467918 0.23495 -2.38091e-21)
(-1.05579 0.35641 -1.56745e-20)
(-0.44206 -0.177977 1.84862e-20)
(-1.34159 0.608498 1.60035e-20)
(-0.610272 -0.17034 0)
(-0.18085 -0.0200322 5.51023e-20)
(-0.427999 0.163728 0)
(-0.953413 0.341243 1.70118e-20)
(-0.447885 -0.114827 -4.68604e-21)
(-0.494209 -0.258035 0)
(-1.27654 0.428726 1.64725e-20)
(-0.522594 -0.260317 0)
(-1.33153 0.470784 9.35814e-21)
(-0.416956 0.243759 0)
(-0.353153 0.188201 0)
(-1.10889 0.417052 2.15482e-21)
(-0.484328 -0.160143 9.78539e-21)
(-0.360689 0.131976 -1.04232e-20)
(-1.47982 0.754588 -6.04083e-21)
(-0.0320319 -0.141137 0)
(-0.776997 -0.253927 -9.74783e-21)
(-1.34883 0.728982 -3.80693e-21)
(-0.017523 -0.150209 -2.49607e-21)
(-0.804214 -0.265145 0)
(-1.45085 0.746967 -8.75868e-21)
(-0.710301 -0.169247 0)
(-0.100462 -0.109141 2.87093e-20)
(-0.881412 0.554668 0)
(-0.867052 0.155216 3.98887e-21)
(-0.297798 -0.201357 9.98316e-21)
(-1.0648 0.390772 1.42293e-20)
(-0.398704 0.168219 4.98226e-21)
(-0.465619 -0.15304 0)
(-0.0370268 -0.117995 0)
(-0.741929 -0.272689 0)
(-1.52527 0.720278 4.9477e-21)
(-0.827759 0.507815 0)
(-0.860481 0.171244 -8.61502e-21)
(-0.310951 -0.186053 2.58548e-21)
(-0.428095 0.182258 0)
(-0.977882 0.344208 0)
(-0.441288 -0.132161 0)
(-1.02335 0.408467 7.06296e-21)
(-0.49656 -0.105852 0)
(-0.333037 0.0788756 0)
(-0.601601 -0.0648757 -5.64859e-23)
(-0.218362 -0.0507666 -1.23722e-20)
(-1.15334 0.60776 2.16508e-20)
(-0.643198 -0.0455488 0)
(-0.196388 -0.0928567 -2.6772e-20)
(-1.5217 0.738774 -1.07226e-20)
(-0.0665395 -0.108402 1.81185e-20)
(-0.729774 -0.23175 -1.88533e-20)
(-0.14194 0.00742681 1.654e-20)
(-1.54478 0.615879 6.70152e-21)
(-0.64132 -0.288958 1.92825e-20)
(-1.57589 0.642915 -1.76089e-20)
(-0.674379 -0.295774 0)
(-0.0917434 -0.0395097 -1.62464e-20)
(-0.41351 -0.281434 -1.0928e-21)
(-1.15258 0.304427 6.69171e-21)
(-0.673898 0.472748 0)
(-1.02052 0.455936 -3.18357e-20)
(-1.35282 0.91339 8.21784e-21)
(-0.15366 -0.224376 -1.0951e-20)
(-0.856462 -0.0311494 0)
(-0.690009 -0.300831 0)
(-1.56813 0.663085 -1.4933e-20)
(-0.0695049 -0.0655387 0)
(-0.708314 0.252963 -2.62284e-20)
(-0.420318 0.0771901 -9.27693e-21)
(-0.504889 0.0290069 2.66771e-20)
(-1.0246 0.55412 0)
(-0.656459 0.0100269 -5.5161e-22)
(-0.235192 -0.0980506 -1.02169e-20)
(-0.156304 0.0286057 1.26593e-20)
(-1.55492 0.601413 0)
(-0.630798 -0.304788 -2.22126e-20)
(-1.07685 0.493151 2.54381e-20)
(-0.582402 -0.0777903 2.37024e-20)
(-0.232041 -0.0295018 0)
(-0.0166028 -0.142193 0)
(-0.770438 -0.283987 8.46274e-21)
(-1.42795 0.719506 0)
(-0.6102 0.419722 0)
(-1.2003 0.329763 0)
(-0.433627 -0.286507 0)
(-1.55917 0.645153 1.54416e-20)
(-0.663496 -0.282684 0)
(-0.10643 -0.0313748 -4.1677e-23)
(-1.2176 0.445942 6.20013e-21)
(-0.500128 -0.21043 -7.53261e-21)
(-0.350557 0.160021 0)
(-1.18908 0.665977 0)
(-0.680111 -0.0381018 9.43565e-21)
(-0.181748 -0.124454 1.68041e-20)
(-0.583123 -0.323051 -2.74775e-20)
(-1.51975 0.521401 -1.24845e-20)
(-0.262949 0.138974 9.9794e-21)
(-1.38939 0.482862 0)
(-0.538846 -0.281032 -1.07854e-20)
(-0.338356 0.184172 -3.58455e-22)
(-0.0110318 -0.138266 -1.60196e-20)
(-0.752594 -0.299624 0)
(-1.42306 0.694429 -3.88479e-21)
(-0.720867 0.449754 1.21007e-20)
(-0.35512 -0.20721 -1.24547e-20)
(-0.954563 0.231221 1.24408e-21)
(-1.21381 0.725822 3.80696e-21)
(-0.0212097 -0.147641 -2.34926e-20)
(-0.82943 -0.237948 0)
(-0.476155 0.148176 -5.39258e-21)
(-0.742368 0.237285 -2.0344e-20)
(-0.441486 -0.0242226 2.66965e-20)
(-1.23162 0.495675 7.23906e-21)
(-1.18918 0.453172 2.62419e-23)
(-0.530128 -0.180602 -1.81645e-20)
(-0.503134 -0.189464 0)
(-0.336816 0.135494 9.47655e-21)
(-0.283098 0.085128 -9.82301e-21)
(-0.123166 -0.207597 -2.32994e-20)
(-1.39118 0.903883 8.44123e-21)
(-0.844205 -0.0631179 -1.67827e-20)
(-1.13663 0.644596 0)
(-0.694708 -0.0051537 0)
(-0.202118 -0.1328 -2.21303e-20)
(-1.43991 0.516506 -3.32382e-21)
(-0.562484 -0.290598 0)
(-0.290706 0.145698 0)
(-1.403 0.75697 -7.60155e-21)
(-0.713947 -0.127102 0)
(-0.115814 -0.125761 1.04609e-20)
(-0.572183 0.163905 5.54943e-21)
(-0.539465 0.100448 8.0833e-21)
(-0.483409 0.0888717 -2.77582e-21)
(-1.30627 0.483196 -1.19485e-20)
(-0.528813 -0.236139 0)
(-0.318788 0.147495 -1.65332e-20)
(-1.14346 0.670564 0)
(-0.719155 0.0044427 1.17929e-20)
(-0.200282 -0.15017 -1.42827e-20)
(-1.10347 0.527639 0)
(-1.16111 0.563498 2.52098e-21)
(-0.733774 0.46991 4.38521e-21)
(-0.358097 -0.222575 3.61716e-20)
(-0.981451 0.238871 -2.99608e-20)
(-1.34995 0.519973 -1.20597e-20)
(-0.551283 -0.236491 1.58464e-20)
(-0.270272 0.103187 1.50829e-20)
(-1.43263 0.763359 0)
(-0.103667 -0.122444 -3.68815e-20)
(-0.720881 -0.146623 -9.95255e-21)
(-0.622153 0.348787 -3.13275e-20)
(-0.375826 -0.181707 0)
(-0.946994 0.263924 9.53366e-21)
(-0.442659 0.278563 -1.92966e-20)
(-1.2946 0.418854 -9.57909e-21)
(-0.49158 -0.278454 0)
(-1.27834 0.771694 -7.87373e-21)
(-0.753109 -0.0274908 -1.04008e-20)
(-0.162626 -0.172996 6.5431e-21)
(-0.66938 0.435804 1.59292e-21)
(-0.391887 -0.241433 0)
(-1.0643 0.287153 2.06826e-20)
(-1.31976 0.802279 0)
(-1.3504 0.806836 0)
(-0.765374 -0.042675 -6.76624e-21)
(-0.151084 -0.177066 -1.70088e-20)
(-0.757409 -0.0690175 9.57211e-21)
(-0.136176 -0.166623 1.80711e-20)
(-0.0457954 -0.123189 -1.40504e-20)
(-0.749258 -0.252217 0)
(-1.52084 0.743659 -7.26957e-21)
(-1.2592 0.719091 9.05861e-21)
(-0.704711 -0.0521679 0)
(-0.161397 -0.140348 5.78221e-21)
(-0.737029 -0.292878 1.64188e-20)
(-0.00562427 -0.12786 2.0528e-20)
(-1.13377 0.636794 7.41381e-21)
(-0.863809 0.288525 -9.36476e-21)
(-0.469556 0.17759 0)
(-0.427658 -0.0877983 0)
(-1.23988 0.553672 1.67564e-20)
(-0.571989 -0.143402 0)
(-0.223239 0.00745559 3.237e-20)
(-0.0792705 -0.106681 -1.14855e-20)
(-1.50584 0.742935 2.21968e-20)
(-0.719219 -0.211246 1.41507e-20)
(-0.4459 -0.266996 0)
(-1.19509 0.352065 8.69045e-21)
(-0.5449 0.363747 -2.32906e-20)
(-0.599919 -0.317512 -3.36993e-20)
(-1.53638 0.550751 -7.4609e-21)
(-0.218485 0.0942317 0)
(-0.556091 -0.0600841 -2.3783e-20)
(-0.26635 -0.00313852 0)
(-1.26729 0.61655 1.80958e-20)
(-0.615678 -0.117307 8.62953e-21)
(-0.180989 -0.0551276 9.86018e-21)
(-0.537332 -0.0794732 1.39936e-20)
(-0.279159 0.0191984 7.84145e-23)
(-1.43686 0.865699 -5.2953e-22)
(-0.0822473 -0.180455 1.37225e-20)
(-0.824342 -0.129768 -1.00956e-20)
(-0.403487 -0.298383 0)
(-1.15342 0.290051 2.14355e-21)
(-0.726117 0.523173 0)
(-1.3137 0.643585 -1.8461e-20)
(-0.634315 -0.131227 -1.05359e-20)
(-0.165047 -0.0592829 -1.20803e-20)
(-1.10424 0.445431 0)
(-0.500557 -0.142983 -1.42188e-20)
(-0.32596 0.0966155 0)
(-1.08655 0.343881 0)
(-0.428589 -0.211395 0)
(-0.518197 0.292084 0)
(-0.87019 0.397069 -7.34343e-21)
(-0.572315 0.0146621 -1.30652e-20)
(-0.304785 -0.0144463 2.88676e-23)
(-0.49354 0.323113 2.39529e-20)
(-1.26112 0.390666 2.31426e-20)
(-0.474144 -0.278628 1.53746e-20)
(-1.54473 0.706849 -9.09125e-21)
(-0.709232 -0.255835 1.60452e-20)
(-0.0695016 -0.0895684 -1.7109e-20)
(-0.607582 -0.30123 2.27761e-20)
(-1.52483 0.568588 7.56427e-21)
(-0.19929 0.0705328 1.26338e-20)
(-1.06712 0.741105 -1.72835e-20)
(-0.270401 -0.248973 1.92117e-20)
(-0.911816 0.122217 -1.44596e-20)
(-1.36054 0.862776 4.59409e-21)
(-1.33044 0.841487 -4.28097e-21)
(-0.796477 -0.0308788 -2.15566e-21)
(-0.808306 -0.0428412 0)
(-0.142584 -0.199094 -6.26392e-21)
(-0.154126 -0.19773 -5.50738e-21)
(-0.00979277 -0.134251 -2.77895e-20)
(-0.768685 -0.276235 -1.80793e-20)
(-1.16354 0.655715 2.4911e-21)
(-1.24761 0.74963 -2.64189e-22)
(-0.0263708 -0.154356 3.25017e-20)
(-0.843641 -0.227403 0)
(-1.28969 0.524535 -2.69508e-20)
(-0.553234 -0.193137 -4.08695e-21)
(-0.263239 0.0717581 0)
(-0.0568592 -0.121246 -3.48867e-20)
(-1.51991 0.749835 7.23475e-21)
(-0.745527 -0.23189 0)
(-1.19071 0.778387 2.38671e-20)
(-1.23976 0.79826 -1.78647e-20)
(-0.815814 0.0370133 1.11015e-20)
(-0.800898 0.0137354 4.26294e-21)
(-0.209303 -0.211147 -1.08511e-20)
(-0.189411 -0.202716 -5.44751e-21)
(-0.0453829 -0.080089 0)
(-0.685392 -0.324732 0)
(-1.56686 0.630816 2.52514e-21)
(-1.12775 0.703686 -4.46784e-21)
(-0.0204555 -0.1406 0)
(-0.824927 -0.232331 0)
(-0.639847 0.152461 -7.12612e-23)
(-0.572131 0.203548 1.1893e-20)
(-0.415023 0.00220461 5.9454e-21)
(-1.22902 0.693859 -7.1578e-21)
(-0.797148 -0.270908 8.28559e-21)
(-0.0129976 -0.142851 1.52152e-21)
(-0.963311 0.59549 0)
(-0.814626 0.111428 -1.85328e-20)
(-0.26739 -0.188248 -9.67817e-24)
(-1.53223 0.709456 1.94062e-22)
(-0.730152 -0.280128 2.31115e-20)
(-0.0442277 -0.108018 8.27799e-24)
(-0.650147 -0.320484 4.94653e-22)
(0.00509993 -0.113931 -1.18036e-20)
(-1.07715 0.532175 -2.40647e-21)
(-0.667947 0.354968 -1.13067e-20)
(-0.348431 -0.135529 1.08633e-20)
(-0.829951 0.204171 3.02632e-20)
(-0.804066 0.280088 0)
(-0.454641 -0.0399194 -2.95836e-20)
(-0.436651 0.128186 1.52659e-20)
(-1.40761 0.791128 0)
(-0.0332573 -0.158385 1.62665e-20)
(-0.822811 -0.22719 5.13908e-24)
(-0.847552 0.30255 0)
(-0.448505 -0.0602364 -1.04189e-20)
(-0.427237 0.140173 -2.15642e-20)
(-0.614175 0.147267 1.21509e-20)
(-0.556367 0.179704 -6.32169e-21)
(-0.438854 0.0288132 3.13434e-21)
(-0.580132 0.409869 1.15618e-20)
(-1.264 0.357125 -8.21269e-21)
(-0.457856 -0.307715 1.69847e-20)
(-0.773594 0.221818 0)
(-0.396406 -0.0707261 0)
(-0.541304 0.235468 1.77781e-21)
(-0.840335 0.270971 1.48305e-20)
(-0.413176 -0.0857527 8.02781e-21)
(-0.510689 0.21463 2.52851e-22)
(-1.01053 0.704084 2.63125e-20)
(-0.941029 0.144878 -1.4232e-20)
(-0.291681 -0.257511 -1.89765e-20)
(-0.0504341 -0.156531 2.45619e-20)
(-0.0446562 -0.150997 -2.49394e-20)
(-0.807406 -0.200524 6.86515e-21)
(-0.794834 -0.217207 4.7628e-21)
(-1.46337 0.814636 0)
(-1.47362 0.802215 -6.03442e-21)
(-1.55423 0.697249 1.13212e-20)
(-0.713242 -0.269045 -1.43801e-20)
(-0.0605703 -0.0887631 2.1185e-20)
(-0.261327 -0.260884 -1.23136e-20)
(-1.11347 0.792844 5.32345e-21)
(-0.92051 0.113398 1.84214e-20)
(-0.757973 0.459625 -1.105e-20)
(-0.333641 -0.190768 -1.13584e-20)
(-0.900542 0.200581 9.46235e-21)
(-1.40588 0.456572 0)
(-0.529547 -0.304762 1.1158e-20)
(-0.381847 0.233115 3.70937e-22)
(-0.672787 -0.33938 8.172e-21)
(0.00648391 -0.126465 -1.10127e-20)
(-1.27777 0.571232 -2.62334e-21)
(-0.0991191 -0.0215129 0)
(-1.58933 0.616058 0)
(-0.659472 -0.32364 9.68728e-21)
(-1.3928 0.733441 4.63949e-21)
(-0.0188668 -0.14848 0)
(-0.79515 -0.267445 -8.30465e-21)
(0.00364215 -0.104076 -4.37705e-32)
(-0.623127 -0.308959 -7.63399e-21)
(-0.993815 0.507986 2.2426e-21)
(-0.670066 -0.263051 8.54955e-21)
(-0.00504313 -0.105293 4.36637e-32)
(-0.959375 0.571306 -2.01261e-21)
(-0.601597 -0.220679 -2.1747e-20)
(-1.40735 0.591293 0)
(-0.199152 0.0247001 -3.23275e-20)
(-0.688276 -0.335112 -4.40216e-21)
(-0.0139164 -0.111622 -1.12679e-20)
(-1.49463 0.614782 0)
(-1.46689 0.715284 -1.12355e-20)
(-0.687467 -0.194446 1.2365e-20)
(-0.108776 -0.0824282 1.68298e-20)
(-1.37993 0.867681 1.63376e-20)
(-0.0645324 -0.185132 9.93004e-21)
(-0.876897 -0.14596 0)
(-0.97864 0.454522 5.62084e-21)
(-0.276587 -0.01094 -6.18669e-21)
(-0.5616 -0.0364705 5.7251e-21)
(-0.67888 -0.325082 4.99869e-21)
(-0.0604135 -0.0627423 1.19284e-20)
(-1.57616 0.627289 3.03926e-21)
(-1.36784 0.435171 -9.29928e-21)
(-0.423219 0.271243 -6.59429e-21)
(-0.512817 -0.300745 0)
(-0.574596 -0.279235 0)
(-1.44354 0.536608 0)
(-0.254131 0.112009 0)
(-2.12915e-05 -0.0524473 0)
(-0.404031 -0.181425 -6.39862e-21)
(-0.57209 0.303568 7.42376e-22)
(-0.718693 -0.312584 8.16134e-21)
(-0.000919124 -0.127921 -1.4278e-20)
(-1.16187 0.619762 -3.449e-21)
(-0.916867 0.41019 -1.45023e-20)
(-0.30127 0.00381505 1.45828e-20)
(-0.549718 -0.0214301 6.64859e-21)
(-0.709113 -0.305109 2.05036e-20)
(-1.5487 0.670625 -5.22339e-21)
(-0.036197 -0.0996241 0)
(-0.0367966 -0.0840725 -1.24933e-20)
(-1.56002 0.618757 0)
(-0.678168 -0.336645 -1.53105e-20)
(-1.5043 0.780562 -6.73704e-21)
(-0.0573902 -0.134431 3.73749e-20)
(-0.76143 -0.210732 0)
(-0.104904 -0.187267 -2.81549e-20)
(-0.817389 -0.0954412 1.06274e-20)
(-1.4164 0.876523 0)
(-0.975148 0.70646 -3.33223e-20)
(-0.993066 0.171813 1.8119e-20)
(-0.316537 -0.277035 -6.02255e-21)
(-0.814719 -0.00346288 3.22572e-21)
(-1.28808 0.844319 1.02269e-20)
(-0.176706 -0.212047 -1.71367e-20)
(-0.0975589 -0.199634 -2.53008e-20)
(-1.40757 0.902947 0)
(-0.856411 -0.0978032 0)
(-1.0194 0.598352 -5.24179e-21)
(-1.08192 0.645224 0)
(-0.738599 0.0610679 -1.92559e-20)
(-0.743387 0.0421688 2.05926e-20)
(-0.239743 -0.152515 2.90474e-21)
(-0.221834 -0.16154 -3.09505e-21)
(-0.962422 0.575768 5.02617e-21)
(-0.772242 0.0928388 0)
(-0.260715 -0.16539 5.56475e-21)
(-1.16984 0.7911 0)
(-0.84573 0.0574956 -1.79409e-20)
(-0.2237 -0.2264 3.91266e-21)
(-0.597728 -0.287587 -1.13056e-20)
(-1.49587 0.561998 7.99598e-21)
(-0.211799 0.0731882 -2.59585e-20)
(-0.700561 -0.291048 0)
(-1.55789 0.681387 1.63699e-20)
(-0.0588101 -0.0794903 0)
(-0.161781 0.01636 -8.36755e-21)
(-1.51155 0.608208 -4.8551e-21)
(-0.628494 -0.27254 -7.39417e-21)
(-0.711573 -0.260929 -1.17841e-21)
(-0.00814749 -0.114748 7.62972e-21)
(-1.01158 0.606998 0)
(-0.771298 0.409829 1.02034e-20)
(-0.785982 0.404189 0)
(-0.311012 -0.111812 0)
(-0.7373 0.135355 3.70314e-20)
(-0.306911 -0.0916416 0)
(-0.696779 0.107386 -2.35131e-20)
(-1.07982 0.717951 0)
(-1.00775 0.66318 0)
(-0.267781 -0.216435 1.99181e-24)
(-0.849987 0.091762 1.11823e-20)
(-0.249905 -0.218261 2.85966e-20)
(-0.85928 0.112608 -2.35958e-20)
(-0.624491 -0.333883 0)
(0.00861307 -0.114958 1.60943e-20)
(-1.12293 0.522135 0)
(-0.712124 -0.296643 -1.21157e-20)
(-1.55355 0.684114 1.70408e-21)
(-0.0416494 -0.100286 7.51071e-21)
(-0.792515 0.513944 -1.90485e-20)
(-0.346086 -0.234155 -1.30491e-20)
(-0.977832 0.220112 3.11222e-20)
(-0.566215 -0.312046 2.44454e-20)
(-1.47896 0.50517 2.1035e-20)
(-0.295012 0.164289 0)
(-0.116154 -0.193305 3.01124e-20)
(-0.817267 -0.0803284 -1.13063e-20)
(-1.40241 0.878383 1.05955e-20)
(-0.750549 -0.307389 0)
(-1.31462 0.664021 0)
(-0.00405339 -0.139208 0)
(-0.743519 -0.309788 0)
(-1.35963 0.661548 3.95666e-21)
(-0.00488988 -0.137173 2.71946e-21)
(-1.24 0.776922 -9.89809e-21)
(-0.771422 -0.0040511 6.45709e-21)
(-0.18033 -0.185586 8.06318e-21)
(-0.58688 0.314624 -2.98232e-21)
(-0.387548 -0.165529 0)
(-0.938918 0.278539 -1.45486e-22)
(-1.49359 0.782652 7.85003e-21)
(-0.0491275 -0.141295 2.179e-20)
(-0.777919 -0.218423 -5.54754e-21)
(-0.606712 -0.241301 0)
(-1.43997 0.594292 0)
(-0.191939 0.0353536 2.78861e-20)
(-0.0904392 -0.137593 7.04318e-21)
(-0.746143 -0.15353 1.70474e-20)
(-1.45266 0.795904 2.29987e-20)
(-0.965342 0.6421 0)
(-0.286462 -0.225715 -1.90413e-20)
(-0.889791 0.136913 1.20352e-20)
(-1.18207 0.416495 1.62846e-22)
(-0.477388 -0.21063 1.10542e-20)
(-0.407415 0.205248 0)
(-0.706702 0.4069 2.15268e-22)
(-0.343512 -0.17362 -3.71811e-21)
(-0.887343 0.211025 -1.24016e-20)
(-0.0417443 -0.134722 3.89885e-24)
(-0.768921 -0.243514 1.31174e-20)
(-1.4983 0.757269 8.1233e-21)
(-1.3924 0.78601 -4.38041e-21)
(-0.73718 -0.109002 -5.0355e-21)
(-0.117513 -0.144731 0)
(-0.683842 0.353441 -1.10643e-20)
(-0.340992 -0.114855 2.34533e-20)
(-0.78009 0.17848 -1.99563e-20)
(-1.39789 0.90146 6.71294e-21)
(-0.0869265 -0.198377 1.12617e-20)
(-0.870679 -0.111974 -7.99443e-21)
(-0.926028 0.513021 -6.34003e-21)
(-0.702458 0.0658813 0)
(-0.26002 -0.121744 0)
(-0.974261 0.375985 -2.63356e-20)
(-0.472547 -0.101185 6.46261e-21)
(-0.376031 0.118226 0)
(-0.572974 -0.254564 0)
(-1.40911 0.53834 1.72618e-20)
(-0.24782 0.0958032 0)
(-1.31048 0.80009 -3.17825e-21)
(-0.038139 -0.166653 -3.48482e-21)
(-0.867706 -0.198518 9.12572e-21)
(-1.31882 0.824029 8.88168e-21)
(-0.046189 -0.172963 0)
(-0.878008 -0.177478 -8.72841e-21)
(-0.0913414 -0.150895 6.42872e-21)
(-0.762882 -0.139737 -1.01481e-20)
(-1.44524 0.813219 -2.1216e-20)
(-1.20931 0.403989 -8.26133e-21)
(-0.475497 -0.238092 -1.10632e-20)
(-0.440576 0.242985 0)
(-0.0321494 -0.159318 3.19078e-21)
(-0.865557 -0.21013 -8.53043e-21)
(-1.2334 0.766019 0)
(-0.0940262 -0.0881856 0)
(-0.699129 -0.211425 -1.03752e-20)
(-1.49653 0.720386 -2.59899e-21)
(0.00599746 -0.0881293 1.28642e-20)
(-0.53809 -0.298926 8.52623e-21)
(-0.885219 0.422914 0)
(-0.813056 0.526008 -2.57057e-21)
(-0.616952 -0.224812 0)
(-0.00657543 -0.0884907 1.28811e-20)
(-0.0949518 -0.190921 7.60855e-24)
(-0.837591 -0.107429 0)
(-1.41715 0.889857 0)
(-0.0239675 -0.137111 0)
(-0.765681 -0.273693 0)
(-1.4746 0.731484 1.00641e-20)
(-1.46599 0.82529 -7.11206e-21)
(-1.47029 0.821155 5.75334e-21)
(-0.0615085 -0.161471 -1.23211e-20)
(-0.804907 -0.174437 -2.25216e-21)
(-0.0683304 -0.15586 -1.99649e-20)
(-0.786269 -0.168952 4.05901e-21)
(-1.50673 0.698643 5.1112e-21)
(-0.684971 -0.227644 6.84225e-21)
(-0.100744 -0.0706542 0)
(-0.355058 0.225505 0)
(-0.54438 -0.322227 0)
(-1.45495 0.472745 0)
(-0.769883 0.361915 0)
(-0.322724 -0.0500133 -3.21189e-20)
(-0.637589 0.0825493 1.296e-20)
(-1.4957 0.644073 1.48759e-20)
(-0.647236 -0.246814 2.52101e-21)
(-0.135733 -0.0206858 2.46642e-20)
(-0.158986 0.00515605 1.60654e-20)
(-1.48742 0.623366 -2.07085e-20)
(-0.630569 -0.253821 -3.49795e-21)
(-1.39422 0.921545 8.1631e-21)
(-0.114776 -0.210971 1.21095e-20)
(-0.8628 -0.071355 1.75259e-20)
(-1.09959 0.743493 0)
(-0.865788 0.0912492 5.3317e-21)
(-0.248026 -0.229509 -2.80318e-20)
(-1.01382 0.638162 0)
(-0.81994 0.0988771 2.4344e-20)
(-0.256657 -0.197876 1.40077e-24)
(-1.39426 0.629522 -2.03444e-20)
(-0.625552 -0.194392 3.05303e-21)
(-0.164701 -0.022835 -1.40091e-20)
(-1.42063 0.625648 0)
(-0.623554 -0.212145 2.86321e-21)
(-0.167016 -0.0111502 1.28875e-20)
(-0.643702 0.313023 0)
(-0.35677 -0.0933378 -3.70428e-20)
(-0.76201 0.182929 1.12344e-20)
(-1.09731 0.672251 0)
(-0.762404 0.0430086 0)
(-0.219303 -0.176628 4.20156e-21)
(-0.0744565 -0.0417651 -2.58299e-20)
(-0.662316 -0.335638 -2.72777e-20)
(-1.59171 0.612488 0)
(-1.3805 0.637515 4.6588e-21)
(-0.00150324 -0.132148 0)
(-0.712258 -0.3267 5.8955e-21)
(-1.34905 0.594851 -3.86529e-22)
(0.00288833 -0.128452 0)
(-0.689029 -0.334658 -1.69175e-20)
(-0.840811 0.497812 7.61637e-21)
(-0.297489 -0.163889 -4.05467e-21)
(-0.807894 0.142183 -1.84164e-22)
(-0.723226 -0.316065 2.29678e-22)
(0.000346277 -0.1329 2.18285e-20)
(-1.25552 0.625496 0)
(-1.41995 0.815656 1.86104e-20)
(-0.105625 -0.155619 1.35193e-20)
(-0.76031 -0.116059 0)
(0.00594927 -0.126463 -3.24197e-21)
(-0.680791 -0.334694 -9.17045e-21)
(-1.23205 0.575798 0)
(-0.789084 0.301417 1.82315e-20)
(-0.398647 0.0784215 1.9393e-20)
(-0.49412 -0.00336657 6.66349e-23)
(-1.18739 0.601761 -3.14371e-21)
(-0.622866 -0.0758956 -3.14796e-21)
(-0.197043 -0.069442 -1.44564e-20)
(-0.451092 -0.236913 2.51854e-20)
(-1.16374 0.37294 1.98753e-20)
(-0.49648 0.288695 0)
(-0.0225702 -0.1056 0)
(-0.694094 -0.327947 -5.51262e-21)
(-1.52293 0.634575 0)
(-0.594312 -0.255009 0)
(-1.44331 0.575963 0)
(-0.210554 0.0585807 0)
(-0.0731289 -0.188016 0)
(-1.40546 0.878668 -5.87094e-21)
(-0.864477 -0.134334 7.8371e-21)
(-1.24782 0.63521 0)
(-0.63215 -0.0984408 1.5623e-21)
(-0.17979 -0.0721023 1.41322e-20)
(-0.740186 0.334337 0)
(-0.341316 -0.0302889 2.75651e-20)
(-0.621104 0.0822456 0)
(-0.7167 -0.311351 -1.93971e-20)
(-1.51331 0.669934 4.97052e-21)
(-0.0243135 -0.113143 0)
(-0.0825863 -0.117132 -1.47885e-20)
(-0.726874 -0.192199 6.61713e-22)
(-1.48317 0.762166 4.58302e-22)
(-1.35367 0.776529 0)
(-1.32015 0.760248 5.32755e-21)
(-0.0305028 -0.159561 -8.01722e-21)
(-0.0253392 -0.155883 -9.8662e-21)
(-0.836157 -0.225388 -5.59196e-21)
(-0.831096 -0.238143 4.59798e-21)
(-1.18705 0.498479 0)
(-0.529954 -0.158527 4.2451e-20)
(-0.28122 0.0669534 1.53716e-20)
(-0.579817 -0.208195 3.05206e-20)
(-1.36313 0.562562 0)
(-0.220366 0.0434326 -1.69759e-20)
(-0.925499 0.376538 -1.48981e-20)
(-0.499288 -0.0595675 1.10428e-20)
(-0.337696 0.0654457 2.37935e-20)
(-0.71345 -0.326014 1.28755e-20)
(-1.4444 0.644949 5.36307e-21)
(-0.69592 -0.335085 -6.15149e-21)
(-0.00645944 -0.127688 0)
(-1.45146 0.620913 -5.16884e-21)
(-0.00636491 -0.1223 0)
(-1.36163 0.697311 0)
(-0.66567 -0.138059 0)
(-0.140543 -0.0862816 1.58103e-20)
(-1.49679 0.681887 8.15533e-21)
(-1.46251 0.668254 -1.50391e-20)
(-0.732362 -0.303603 8.43805e-21)
(-0.732042 -0.311059 -2.12044e-20)
(-0.0184912 -0.124251 2.20571e-20)
(-0.0115194 -0.129918 -1.08538e-23)
(-1.32751 0.541998 0)
(-0.559749 -0.215804 -2.82452e-20)
(-0.257665 0.0827686 2.20201e-20)
(-1.12266 0.512712 1.37474e-20)
(-0.573839 -0.10215 -1.89568e-20)
(-0.227325 -0.0155156 0)
(-1.37555 0.847619 0)
(-0.0535536 -0.17728 0)
(-0.868717 -0.168852 8.38631e-21)
(-1.19758 0.523003 1.01015e-20)
(-0.547972 -0.142822 -1.18097e-20)
(-0.255339 0.0357326 -2.5515e-20)
(-0.997626 0.423863 5.96607e-21)
(-0.516476 -0.0779135 -1.29514e-20)
(-0.307078 0.0438082 1.39237e-20)
(-1.34036 0.795995 0)
(-0.0368587 -0.165083 0)
(-0.854452 -0.208222 -1.15309e-20)
(-1.26033 0.662581 0)
(-0.659385 -0.0837096 3.34997e-21)
(-0.164719 -0.0984899 -1.57274e-20)
(-0.501035 -0.314386 0)
(-1.35774 0.417644 0)
(-0.469799 0.32086 -8.50028e-22)
(-0.962301 0.657529 -8.5022e-22)
(-0.925277 0.153541 0)
(-0.296898 -0.242341 2.96116e-20)
(-0.613616 -0.329469 1.31919e-20)
(-0.186938 0.0714434 0)
(-1.57113 0.562433 0)
(-0.000214894 -0.0751705 -3.09457e-20)
(-0.522259 -0.234927 8.95931e-21)
(-0.759723 0.413501 -1.03904e-21)
(-1.226 0.572915 0)
(-0.585963 -0.118464 1.16357e-20)
(-0.209726 -0.0218334 -1.30177e-20)
(-1.4277 0.841776 1.11567e-20)
(-0.0538058 -0.170224 4.16998e-20)
(-0.838516 -0.174487 0)
(-0.360129 -0.288081 -7.90005e-21)
(-1.07299 0.233303 -1.17406e-20)
(-0.850229 0.616118 -7.65224e-21)
(-0.984118 0.629084 0)
(-0.0130388 -0.118383 -1.15801e-20)
(-0.754925 -0.24265 0)
(-0.49371 0.230369 1.4805e-20)
(-0.513852 0.258605 -1.51591e-20)
(-0.414168 -0.138161 0)
(-0.943924 0.307766 1.27092e-20)
(-0.41336 -0.163781 -2.37761e-20)
(-0.984581 0.309382 -1.02198e-20)
(-0.908968 0.351422 1.4002e-20)
(-0.473614 -0.0689626 1.46236e-20)
(-0.379411 0.105376 0)
(-0.60752 0.314392 1.2999e-20)
(-0.548813 0.270002 0)
(-0.370998 -0.139088 -1.32254e-20)
(-0.86822 0.238691 1.14269e-20)
(-0.38901 -0.125229 1.33258e-20)
(-0.876827 0.259669 6.88027e-23)
(-1.1785 0.549859 8.70453e-22)
(-0.549271 -0.10405 -8.24677e-21)
(-0.258034 0.0151222 -1.71735e-20)
(-1.12888 0.499211 -2.35868e-20)
(-0.539668 -0.119161 2.18594e-22)
(-0.271665 0.0356284 0)
(0.00110725 -0.123983 0)
(-0.675632 -0.34392 0)
(-1.40112 0.590486 4.80638e-21)
(-0.90285 0.528357 -7.01646e-21)
(-0.771058 0.111221 0)
(-0.276429 -0.155 7.52038e-21)
(-1.5003 0.712449 -1.62109e-20)
(-0.746642 -0.285283 9.76433e-21)
(-0.0247771 -0.12705 -1.2584e-20)
(-1.41393 0.665701 0)
(-1.45075 0.684601 1.07933e-20)
(-0.64917 -0.18491 -3.80438e-21)
(-0.665951 -0.196402 1.21504e-20)
(-0.140325 -0.0508338 -1.7455e-20)
(-0.124443 -0.0613328 -1.62425e-20)
(-0.884788 0.495784 0)
(-0.733933 0.0948992 0)
(-0.276496 -0.132343 3.53926e-21)
(-1.15638 0.738991 8.11417e-21)
(-0.798099 0.043211 0)
(-0.215093 -0.198902 9.34418e-21)
(-1.3316 0.63972 -5.79982e-21)
(-0.626268 -0.154193 0)
(-0.164296 -0.0434722 0)
(-0.633629 0.245236 1.4347e-20)
(-0.619464 0.118501 -6.96871e-21)
(-0.388595 -0.00206922 7.40033e-21)
(-1.46763 0.65429 0)
(-0.647131 -0.225272 0)
(-0.139093 -0.0300258 -2.62102e-20)
(-0.732425 0.352901 0)
(-0.327772 -0.0710035 4.07076e-21)
(-0.682551 0.118923 0)
(-1.32129 0.563205 -1.32676e-20)
(-0.574233 -0.192831 -1.57458e-20)
(-0.226127 0.0360543 -2.19759e-21)
(-1.15551 0.713375 8.15272e-21)
(-0.766942 0.0246615 0)
(-0.205093 -0.181656 1.92126e-20)
(-0.660159 0.279464 -1.42274e-20)
(-0.63437 0.271854 -6.37518e-21)
(-0.643638 0.117885 6.84044e-21)
(-0.365794 -0.0271617 -1.46455e-20)
(-0.687424 0.146395 0)
(-0.367032 -0.046308 -2.60915e-20)
(-0.587736 0.271347 -6.47014e-21)
(-0.375057 -0.0937762 1.73074e-20)
(-0.55215 0.256053 4.16759e-21)
(-0.787183 0.210432 -1.54499e-20)
(-0.392563 -0.110375 -8.29242e-21)
(-0.847797 0.249986 3.59423e-22)
(-1.00221 0.57113 7.52742e-21)
(-1.06445 0.595797 0)
(-0.706308 0.0459451 1.42784e-20)
(-0.684962 0.0168091 -1.11461e-20)
(-0.238961 -0.131838 -1.67868e-20)
(-0.222563 -0.121686 2.79191e-20)
(-0.0995568 -0.174774 0)
(-0.796099 -0.108995 -6.2421e-21)
(-1.42676 0.852462 -1.07939e-20)
(-0.514201 0.349939 1.02955e-20)
(-1.29614 0.389749 1.29711e-20)
(-0.479423 -0.301285 -2.67138e-20)
(-0.08603 -0.171612 -1.40382e-20)
(-0.0805823 -0.161092 1.12302e-20)
(-0.801158 -0.131381 5.39647e-21)
(-0.784471 -0.147495 9.27283e-21)
(-1.44096 0.852645 2.72654e-20)
(-1.45586 0.833666 -1.41208e-20)
(-0.69633 0.472193 1.40578e-20)
(-0.393027 -0.259547 -1.24839e-20)
(-1.08661 0.281434 3.02906e-21)
(-0.602854 0.194749 2.41144e-20)
(-0.443822 0.0577942 0)
(-0.557897 0.100688 -2.39341e-20)
(-1.47773 0.67895 -5.07573e-21)
(-0.665808 -0.218158 -1.37202e-20)
(-0.121247 -0.0527696 0)
(-0.814112 0.44566 0)
(-0.296496 -0.131196 -3.37264e-21)
(-0.751416 0.126152 -1.20335e-20)
(-1.19199 0.729735 0)
(-0.756629 0.00744433 0)
(-0.191809 -0.175731 -1.7904e-20)
(-1.38366 0.857004 -1.20743e-20)
(-1.38599 0.835013 0)
(-0.797187 -0.0708871 3.29759e-21)
(-0.126256 -0.186705 -1.71384e-20)
(-0.777966 -0.079424 -8.99467e-21)
(-0.123456 -0.1745 2.31754e-20)
(-1.40059 0.698513 1.08973e-20)
(-0.67127 -0.156574 1.2771e-20)
(-0.128829 -0.0824919 9.50109e-21)
(-1.08414 0.659352 5.28264e-21)
(-0.785618 -0.250347 0)