/*--------------------------------*- C++ -*----------------------------------*\
  =========                 |
  \\      /  F ield         | OpenFOAM: The Open Source CFD Toolbox
   \\    /   O peration     | Website:  https://openfoam.org
    \\  /    A nd           | Version:  6
     \\/     M anipulation  |
\*---------------------------------------------------------------------------*/
FoamFile
{
    version     2.0;
    format      ascii;
    class       volScalarField;
    location    "0.044";
    object      p;
}
// * * * * * * * * * * * * * * * * * * * * * * * * * * * * * * * * * * * * * //

dimensions      [0 2 -2 0 0 0 0];

internalField   nonuniform List<scalar> 
16000
(
-0.00789778
-0.0242716
-0.0407928
-0.0573365
-0.0739591
-0.0906879
-0.107535
-0.124514
-0.141637
-0.158915
-0.176354
-0.193955
-0.211713
-0.229622
-0.247673
-0.265856
-0.284164
-0.302592
-0.321138
-0.339803
-0.358593
-0.377517
-0.396586
-0.415819
-0.435235
-0.454861
-0.474726
-0.494868
-0.515329
-0.536162
-0.557427
-0.579195
-0.601553
-0.624604
-0.648471
-0.673308
-0.699304
-0.726696
-0.755785
-0.786962
-0.820736
-0.85778
-0.899
-0.945634
-0.999425
-1.0629
-1.13978
-1.23561
-1.35811
-1.52378
-0.00784464
-0.0242155
-0.0407334
-0.0572621
-0.073877
-0.0906052
-0.107453
-0.12443
-0.141546
-0.15881
-0.176228
-0.193805
-0.211541
-0.22943
-0.247466
-0.265637
-0.283934
-0.302349
-0.320879
-0.339522
-0.358281
-0.377165
-0.396185
-0.415358
-0.434703
-0.454245
-0.474013
-0.49404
-0.514365
-0.535034
-0.556103
-0.577634
-0.599703
-0.622398
-0.645823
-0.670104
-0.695392
-0.721862
-0.749729
-0.779246
-0.810723
-0.844541
-0.881181
-0.921241
-0.965471
-1.01481
-1.0703
-1.13293
-1.20301
-1.27947
-0.00792294
-0.0242564
-0.04069
-0.0571679
-0.0737519
-0.0904519
-0.107269
-0.124214
-0.141299
-0.158535
-0.175926
-0.193474
-0.211175
-0.229022
-0.247005
-0.265112
-0.283335
-0.301664
-0.320094
-0.338623
-0.357254
-0.375992
-0.394844
-0.413822
-0.432941
-0.452218
-0.471677
-0.491343
-0.511248
-0.531427
-0.55192
-0.572773
-0.594037
-0.615766
-0.638026
-0.660889
-0.684438
-0.708767
-0.733976
-0.76018
-0.787502
-0.816078
-0.846052
-0.877531
-0.91058
-0.945094
-0.980722
-1.01669
-1.05196
-1.08485
-0.00793999
-0.0242056
-0.0405451
-0.0569559
-0.0734931
-0.0901541
-0.106934
-0.123841
-0.140887
-0.158085
-0.175438
-0.192943
-0.210592
-0.22837
-0.246265
-0.264264
-0.282353
-0.300524
-0.318772
-0.337092
-0.355485
-0.37395
-0.392493
-0.411119
-0.429835
-0.448651
-0.467578
-0.486631
-0.505825
-0.52518
-0.544715
-0.56445
-0.584409
-0.604614
-0.625088
-0.645857
-0.66695
-0.688393
-0.710208
-0.73241
-0.754993
-0.777905
-0.801046
-0.824272
-0.847338
-0.869874
-0.891442
-0.911346
-0.928591
-0.941836
-0.00793618
-0.0241437
-0.0404052
-0.0567473
-0.0732247
-0.089829
-0.106551
-0.123398
-0.140383
-0.157516
-0.174802
-0.192235
-0.209802
-0.227483
-0.245259
-0.263115
-0.281035
-0.299008
-0.317027
-0.335085
-0.353179
-0.371304
-0.389461
-0.407647
-0.425862
-0.444107
-0.462384
-0.480696
-0.499046
-0.517436
-0.535867
-0.554339
-0.572848
-0.591389
-0.609952
-0.628525
-0.647087
-0.665609
-0.684049
-0.702343
-0.720402
-0.738125
-0.75536
-0.771912
-0.787512
-0.801835
-0.814439
-0.82478
-0.832213
-0.836006
-0.00790988
-0.0240663
-0.0402773
-0.0565681
-0.0729921
-0.0895404
-0.106203
-0.122985
-0.139899
-0.156953
-0.17415
-0.191483
-0.208937
-0.226492
-0.244129
-0.261827
-0.27957
-0.297343
-0.315134
-0.332932
-0.350729
-0.368515
-0.386283
-0.404025
-0.421733
-0.4394
-0.457017
-0.474576
-0.492067
-0.509479
-0.526799
-0.544007
-0.561082
-0.577997
-0.59472
-0.611212
-0.627428
-0.643313
-0.658798
-0.673802
-0.688228
-0.701954
-0.714841
-0.72672
-0.737392
-0.746631
-0.754173
-0.759728
-0.76298
-0.763601
-0.00786439
-0.0239811
-0.0401725
-0.0564325
-0.072813
-0.0893096
-0.105915
-0.122634
-0.139475
-0.156444
-0.173543
-0.190763
-0.208092
-0.225514
-0.243009
-0.260557
-0.278137
-0.295731
-0.313321
-0.330891
-0.348426
-0.365913
-0.383337
-0.400685
-0.417942
-0.435095
-0.452127
-0.469023
-0.485763
-0.502327
-0.51869
-0.534824
-0.550694
-0.566262
-0.581481
-0.596302
-0.610667
-0.624514
-0.63777
-0.650357
-0.662188
-0.673169
-0.683199
-0.692172
-0.699982
-0.706523
-0.7117
-0.715429
-0.717655
-0.718334
-0.00781287
-0.0239244
-0.0401351
-0.0563862
-0.0727354
-0.0891894
-0.105746
-0.122409
-0.139185
-0.156079
-0.17309
-0.190212
-0.207437
-0.22475
-0.242132
-0.259562
-0.277017
-0.294475
-0.311912
-0.32931
-0.346649
-0.36391
-0.381076
-0.39813
-0.415053
-0.431826
-0.448428
-0.464837
-0.481029
-0.496977
-0.512651
-0.528018
-0.543039
-0.557669
-0.571861
-0.585559
-0.598708
-0.611245
-0.623106
-0.634228
-0.644542
-0.653987
-0.662501
-0.670032
-0.676538
-0.681993
-0.686394
-0.689782
-0.692307
-0.694196
-0.00772276
-0.0238334
-0.0400848
-0.0563426
-0.0726772
-0.0891112
-0.105646
-0.122286
-0.139034
-0.155894
-0.172864
-0.18994
-0.207114
-0.22437
-0.241691
-0.259053
-0.276433
-0.293807
-0.311151
-0.328445
-0.345667
-0.362798
-0.379817
-0.396707
-0.413445
-0.43001
-0.446379
-0.462528
-0.478431
-0.494058
-0.509378
-0.524355
-0.538949
-0.553115
-0.566804
-0.579964
-0.592539
-0.604473
-0.615708
-0.626185
-0.63585
-0.644649
-0.652535
-0.659471
-0.665434
-0.670429
-0.674515
-0.677871
-0.680853
-0.683836
-0.00777171
-0.0238741
-0.040116
-0.056376
-0.0727059
-0.0891281
-0.10565
-0.122277
-0.139017
-0.155873
-0.172842
-0.189917
-0.207086
-0.224332
-0.241636
-0.258975
-0.276326
-0.293667
-0.310977
-0.328234
-0.345417
-0.362506
-0.379483
-0.396326
-0.413015
-0.429529
-0.445844
-0.461936
-0.477779
-0.493343
-0.508597
-0.523506
-0.538032
-0.552133
-0.565762
-0.578874
-0.591421
-0.603353
-0.614625
-0.625191
-0.635012
-0.644055
-0.652297
-0.659732
-0.666379
-0.672294
-0.677603
-0.682711
-0.688428
-0.693829
-0.00781913
-0.0242317
-0.0407718
-0.0573055
-0.0739184
-0.0906399
-0.10748
-0.124454
-0.141573
-0.15885
-0.17629
-0.193892
-0.211653
-0.229566
-0.24762
-0.265806
-0.284116
-0.302545
-0.321089
-0.339752
-0.358538
-0.377456
-0.396519
-0.415743
-0.435149
-0.454762
-0.474612
-0.494737
-0.515178
-0.535986
-0.557223
-0.578957
-0.601275
-0.624277
-0.648086
-0.672852
-0.69876
-0.726042
-0.754991
-0.785984
-0.819523
-0.856272
-0.897103
-0.943201
-0.996245
-1.05873
-1.13453
-1.23016
-1.35748
-1.53872
-0.00788379
-0.0243593
-0.0408909
-0.0574084
-0.0740118
-0.0907254
-0.107555
-0.124511
-0.141605
-0.15885
-0.176253
-0.193818
-0.211545
-0.22943
-0.247462
-0.265633
-0.283931
-0.302349
-0.32088
-0.339526
-0.358289
-0.377176
-0.3962
-0.415375
-0.434723
-0.454269
-0.47404
-0.49407
-0.514399
-0.535073
-0.556145
-0.577681
-0.599754
-0.622454
-0.645885
-0.670175
-0.695474
-0.721958
-0.749837
-0.779361
-0.810832
-0.844613
-0.881174
-0.921107
-0.96515
-1.01423
-1.06959
-1.13264
-1.20432
-1.28249
-0.00804338
-0.0244475
-0.0408843
-0.0573752
-0.0739646
-0.0906548
-0.107451
-0.124367
-0.141421
-0.158625
-0.17599
-0.193517
-0.211204
-0.229041
-0.247019
-0.265125
-0.283349
-0.30168
-0.320113
-0.338646
-0.357281
-0.376023
-0.394881
-0.413866
-0.432993
-0.452279
-0.471747
-0.491424
-0.51134
-0.531531
-0.552038
-0.572907
-0.594189
-0.61594
-0.638224
-0.661109
-0.684679
-0.70903
-0.734263
-0.760477
-0.787789
-0.81632
-0.84621
-0.877593
-0.910608
-0.945135
-0.980703
-1.01623
-1.05068
-1.08243
-0.00809755
-0.0244005
-0.040734
-0.0571758
-0.0737326
-0.0903915
-0.107155
-0.124036
-0.141049
-0.158211
-0.175529
-0.193006
-0.210633
-0.228398
-0.246286
-0.264281
-0.28237
-0.300542
-0.318792
-0.337116
-0.355511
-0.37398
-0.392527
-0.411156
-0.429877
-0.448698
-0.467631
-0.486689
-0.50589
-0.52525
-0.544791
-0.564533
-0.584499
-0.604708
-0.625185
-0.645953
-0.667037
-0.688462
-0.710252
-0.732436
-0.755007
-0.777919
-0.801071
-0.824272
-0.847201
-0.869499
-0.890743
-0.910303
-0.927133
-0.939878
-0.00811213
-0.0243415
-0.0405891
-0.0569679
-0.0734705
-0.0900757
-0.106784
-0.123607
-0.140559
-0.157654
-0.174903
-0.192303
-0.209844
-0.227508
-0.245274
-0.263124
-0.281042
-0.299014
-0.317032
-0.335091
-0.353185
-0.371311
-0.389468
-0.407655
-0.425871
-0.444116
-0.462393
-0.480705
-0.499053
-0.517442
-0.535872
-0.554342
-0.57285
-0.591388
-0.609948
-0.628515
-0.647068
-0.665579
-0.684002
-0.702265
-0.720282
-0.737946
-0.755094
-0.771532
-0.786997
-0.801172
-0.813582
-0.823675
-0.8308
-0.834218
-0.00808572
-0.024263
-0.0404601
-0.0567873
-0.0732362
-0.0897849
-0.106433
-0.123191
-0.140072
-0.157089
-0.174247
-0.191547
-0.208974
-0.226511
-0.244136
-0.261827
-0.279566
-0.297337
-0.315127
-0.332924
-0.35072
-0.368505
-0.386272
-0.404012
-0.421718
-0.439382
-0.456995
-0.474549
-0.492034
-0.509439
-0.52675
-0.543948
-0.561012
-0.577913
-0.594619
-0.611089
-0.627278
-0.64313
-0.658575
-0.673531
-0.687901
-0.70156
-0.714364
-0.726145
-0.736704
-0.745813
-0.753208
-0.758598
-0.761673
-0.762107
-0.00802154
-0.0241722
-0.0403563
-0.0566457
-0.0730438
-0.089536
-0.106123
-0.122814
-0.139621
-0.156554
-0.173618
-0.190808
-0.208115
-0.22552
-0.243004
-0.260544
-0.27812
-0.295711
-0.313299
-0.330868
-0.3484
-0.365884
-0.383305
-0.400649
-0.417902
-0.435048
-0.452073
-0.468959
-0.485688
-0.502239
-0.518588
-0.534706
-0.550558
-0.566104
-0.581298
-0.59609
-0.610421
-0.624228
-0.637438
-0.649972
-0.661743
-0.672654
-0.682606
-0.691493
-0.699208
-0.705651
-0.710727
-0.714362
-0.716509
-0.717138
-0.00793331
-0.0241112
-0.040322
-0.0565843
-0.0729367
-0.0893786
-0.105912
-0.122546
-0.13929
-0.156152
-0.173134
-0.190233
-0.20744
-0.22474
-0.242114
-0.259539
-0.276991
-0.294446
-0.311882
-0.329278
-0.346614
-0.363873
-0.381035
-0.398084
-0.415001
-0.431767
-0.44836
-0.464759
-0.480939
-0.496874
-0.512533
-0.527883
-0.542884
-0.557492
-0.571657
-0.585327
-0.598443
-0.610943
-0.622764
-0.63384
-0.644104
-0.653495
-0.661952
-0.669424
-0.675871
-0.681267
-0.685604
-0.688904
-0.691301
-0.693082
-0.0077641
-0.023975
-0.0402372
-0.0564827
-0.072805
-0.0892236
-0.105739
-0.122358
-0.139084
-0.155924
-0.172878
-0.189941
-0.207105
-0.224355
-0.241672
-0.259033
-0.276413
-0.293787
-0.311133
-0.328427
-0.345649
-0.362779
-0.379798
-0.396685
-0.413421
-0.429983
-0.446349
-0.462494
-0.478391
-0.494011
-0.509324
-0.524292
-0.538877
-0.553032
-0.56671
-0.579856
-0.592416
-0.604332
-0.615547
-0.626001
-0.63564
-0.644408
-0.652259
-0.659153
-0.665066
-0.669991
-0.673978
-0.677177
-0.679899
-0.682533
-0.00769775
-0.0238374
-0.0400969
-0.0563476
-0.072669
-0.0890856
-0.105603
-0.122227
-0.138967
-0.155824
-0.172797
-0.189878
-0.207054
-0.224309
-0.241622
-0.258971
-0.276331
-0.29368
-0.310999
-0.328264
-0.345455
-0.362552
-0.379537
-0.396389
-0.413088
-0.429611
-0.445938
-0.462042
-0.477898
-0.493477
-0.508748
-0.523676
-0.538222
-0.552343
-0.565996
-0.579132
-0.591703
-0.603661
-0.614957
-0.625547
-0.635389
-0.644449
-0.652701
-0.660138
-0.666784
-0.672709
-0.678082
-0.683521
-0.690387
-0.697054
-0.00777262
-0.0242284
-0.0407758
-0.0572966
-0.0739013
-0.0906147
-0.107444
-0.124402
-0.141508
-0.158775
-0.176209
-0.193811
-0.211576
-0.229496
-0.24756
-0.265757
-0.284077
-0.302514
-0.321065
-0.339733
-0.358523
-0.377444
-0.396509
-0.415735
-0.435142
-0.454755
-0.474606
-0.49473
-0.515171
-0.535978
-0.557212
-0.578945
-0.601261
-0.62426
-0.648066
-0.672829
-0.698735
-0.726015
-0.754962
-0.785954
-0.81949
-0.85625
-0.897172
-0.943493
-0.996965
-1.06031
-1.13802
-1.23811
-1.37715
-1.57992
-0.00796338
-0.0244731
-0.0409995
-0.0575227
-0.0741297
-0.0908372
-0.107652
-0.124586
-0.141656
-0.158875
-0.176256
-0.193804
-0.211521
-0.229402
-0.247437
-0.265615
-0.283923
-0.30235
-0.320892
-0.339548
-0.358321
-0.377219
-0.396252
-0.415437
-0.434796
-0.454353
-0.474137
-0.494182
-0.514528
-0.53522
-0.556314
-0.577874
-0.599976
-0.622708
-0.646176
-0.670508
-0.695862
-0.722422
-0.750396
-0.780037
-0.811653
-0.845607
-0.882343
-0.922474
-0.966815
-1.01637
-1.07251
-1.13706
-1.21238
-1.29647
-0.00822843
-0.0245194
-0.0409347
-0.0574988
-0.0741372
-0.0908372
-0.107622
-0.124515
-0.141538
-0.158709
-0.176042
-0.193543
-0.211213
-0.229041
-0.247017
-0.265127
-0.283358
-0.3017
-0.320144
-0.338688
-0.357334
-0.376088
-0.394958
-0.413957
-0.433099
-0.452402
-0.471889
-0.491586
-0.511525
-0.531742
-0.552279
-0.573184
-0.594507
-0.616306
-0.638646
-0.661596
-0.685235
-0.709655
-0.734964
-0.761274
-0.788695
-0.817313
-0.847242
-0.878636
-0.911615
-0.946215
-0.982244
-1.01869
-1.05366
-1.08503
-0.00833289
-0.0244127
-0.0407117
-0.0572731
-0.0739124
-0.0905944
-0.107354
-0.12422
-0.14121
-0.15834
-0.175625
-0.193072
-0.210676
-0.228425
-0.246305
-0.264299
-0.282389
-0.300564
-0.318822
-0.337154
-0.355558
-0.374036
-0.39259
-0.411229
-0.429959
-0.448791
-0.467736
-0.486807
-0.506021
-0.525397
-0.544955
-0.564716
-0.584701
-0.604933
-0.625432
-0.64622
-0.66732
-0.688755
-0.710542
-0.732697
-0.75522
-0.778134
-0.801341
-0.824624
-0.847677
-0.870056
-0.891196
-0.910457
-0.926965
-0.939359
-0.00837243
-0.024331
-0.0405322
-0.0570476
-0.0736467
-0.0902796
-0.106985
-0.123795
-0.140725
-0.157792
-0.175008
-0.192379
-0.209895
-0.22754
-0.245294
-0.263137
-0.281051
-0.299021
-0.31704
-0.3351
-0.353195
-0.371323
-0.389482
-0.407671
-0.425888
-0.444136
-0.462414
-0.480726
-0.499075
-0.517464
-0.535895
-0.554366
-0.572874
-0.591413
-0.609972
-0.628536
-0.647085
-0.665587
-0.684
-0.702255
-0.720265
-0.737886
-0.754967
-0.771308
-0.786645
-0.800642
-0.812859
-0.822696
-0.8295
-0.832508
-0.00834586
-0.0242511
-0.0404012
-0.0568647
-0.0734096
-0.0899852
-0.10663
-0.123375
-0.140234
-0.157221
-0.174347
-0.191615
-0.209014
-0.22653
-0.24414
-0.261822
-0.279556
-0.297323
-0.315111
-0.332908
-0.350702
-0.368485
-0.38625
-0.403987
-0.421689
-0.439348
-0.456956
-0.474502
-0.491977
-0.509371
-0.526669
-0.543852
-0.560898
-0.577779
-0.594461
-0.610902
-0.627054
-0.642861
-0.658252
-0.673144
-0.687434
-0.700997
-0.713688
-0.725332
-0.735731
-0.744655
-0.751839
-0.756994
-0.759817
-0.760003
-0.00825616
-0.024179
-0.0403265
-0.0567334
-0.0732108
-0.0897226
-0.106302
-0.122976
-0.139756
-0.156654
-0.173681
-0.190837
-0.208117
-0.225502
-0.242972
-0.260505
-0.278077
-0.295666
-0.313252
-0.330819
-0.348349
-0.365828
-0.383243
-0.400579
-0.417823
-0.434959
-0.45197
-0.46884
-0.485549
-0.502078
-0.518401
-0.53449
-0.550311
-0.565821
-0.580974
-0.595717
-0.609991
-0.623731
-0.636864
-0.649309
-0.660977
-0.671771
-0.68159
-0.690325
-0.69787
-0.704126
-0.709002
-0.712436
-0.714404
-0.714938
-0.00811745
-0.0241755
-0.0403622
-0.0566946
-0.0730916
-0.0895387
-0.106057
-0.122665
-0.139377
-0.156202
-0.173147
-0.190215
-0.207398
-0.224682
-0.242047
-0.259468
-0.27692
-0.294376
-0.311813
-0.329209
-0.346543
-0.363796
-0.380952
-0.397992
-0.414898
-0.431651
-0.448228
-0.464607
-0.480763
-0.496671
-0.5123
-0.527616
-0.54258
-0.557147
-0.571266
-0.584883
-0.597938
-0.61037
-0.622113
-0.633101
-0.643269
-0.652551
-0.66089
-0.668233
-0.674539
-0.679778
-0.683933
-0.687011
-0.689121
-0.690671
-0.00784486
-0.0240843
-0.0403372
-0.0565861
-0.0729091
-0.0893189
-0.105817
-0.122411
-0.139111
-0.155924
-0.172852
-0.189894
-0.207044
-0.224286
-0.2416
-0.258963
-0.276346
-0.293725
-0.311074
-0.32837
-0.345592
-0.36272
-0.379735
-0.396617
-0.413346
-0.429899
-0.446254
-0.462385
-0.478265
-0.493867
-0.509158
-0.524104
-0.538663
-0.55279
-0.566436
-0.579547
-0.592068
-0.603939
-0.615103
-0.6255
-0.635074
-0.643768
-0.651531
-0.658319
-0.664096
-0.668834
-0.672539
-0.675301
-0.677417
-0.679526
-0.00765444
-0.0238341
-0.0400977
-0.0563338
-0.0726459
-0.0890538
-0.105559
-0.122171
-0.138897
-0.155745
-0.172712
-0.189792
-0.206973
-0.224235
-0.241558
-0.258917
-0.276287
-0.293647
-0.310974
-0.328246
-0.345442
-0.362544
-0.379532
-0.396387
-0.413087
-0.429613
-0.44594
-0.462044
-0.4779
-0.49348
-0.508751
-0.523679
-0.538226
-0.552349
-0.566004
-0.579143
-0.591717
-0.603677
-0.614977
-0.62557
-0.635415
-0.644478
-0.652731
-0.660166
-0.666804
-0.67271
-0.67806
-0.683579
-0.691057
-0.698597
-0.00776537
-0.0242303
-0.0407723
-0.0572871
-0.0738913
-0.0906023
-0.107423
-0.124368
-0.141458
-0.158709
-0.176134
-0.193732
-0.211501
-0.229429
-0.247504
-0.265713
-0.284046
-0.302495
-0.321057
-0.339734
-0.358532
-0.377461
-0.396533
-0.415766
-0.43518
-0.454801
-0.474661
-0.494794
-0.515244
-0.536063
-0.557311
-0.57906
-0.601395
-0.624417
-0.648251
-0.673047
-0.698995
-0.72633
-0.755351
-0.786439
-0.820104
-0.857043
-0.898242
-0.945097
-0.999537
-1.06456
-1.14539
-1.25134
-1.4019
-1.6216
-0.00805545
-0.0244783
-0.0409944
-0.0575573
-0.0741907
-0.0909066
-0.107719
-0.124642
-0.141695
-0.158892
-0.176251
-0.193782
-0.211488
-0.229365
-0.247404
-0.265591
-0.28391
-0.302351
-0.320907
-0.339575
-0.358361
-0.37727
-0.396314
-0.415512
-0.434883
-0.454453
-0.474253
-0.494316
-0.514682
-0.535398
-0.55652
-0.578111
-0.60025
-0.623025
-0.646542
-0.670931
-0.696349
-0.722996
-0.751093
-0.780892
-0.812706
-0.846927
-0.884025
-0.924585
-0.969511
-1.02003
-1.07771
-1.14455
-1.22345
-1.31321
-0.00840275
-0.0243799
-0.0407785
-0.0574811
-0.0742114
-0.0909444
-0.107737
-0.124627
-0.141636
-0.158784
-0.17609
-0.193568
-0.211219
-0.229037
-0.247011
-0.265125
-0.283363
-0.301718
-0.320175
-0.338732
-0.35739
-0.376157
-0.395041
-0.414055
-0.433212
-0.452533
-0.472039
-0.491758
-0.511721
-0.531967
-0.552537
-0.573479
-0.594848
-0.616699
-0.6391
-0.662123
-0.685848
-0.710361
-0.735767
-0.762191
-0.789757
-0.818565
-0.848691
-0.880232
-0.913352
-0.948152
-0.984584
-1.02206
-1.05867
-1.09082
-0.00854742
-0.0241564
-0.0404292
-0.0571931
-0.0739708
-0.0907027
-0.107479
-0.124352
-0.141341
-0.15846
-0.175726
-0.193149
-0.210731
-0.228463
-0.246331
-0.264321
-0.282409
-0.300586
-0.318853
-0.337195
-0.355607
-0.374093
-0.392658
-0.411307
-0.430048
-0.448891
-0.467849
-0.486934
-0.506164
-0.525558
-0.545136
-0.564919
-0.584931
-0.60519
-0.62572
-0.64654
-0.667673
-0.689137
-0.710948
-0.733116
-0.755637
-0.778507
-0.801703
-0.825107
-0.848368
-0.870985
-0.892364
-0.911656
-0.927975
-0.940102
-0.00860669
-0.0240271
-0.0401905
-0.0569333
-0.073692
-0.0903812
-0.107103
-0.123922
-0.140856
-0.157917
-0.17512
-0.192471
-0.209966
-0.227592
-0.24533
-0.263162
-0.281069
-0.299033
-0.31705
-0.335111
-0.353207
-0.371337
-0.389498
-0.407688
-0.425908
-0.444158
-0.462439
-0.480753
-0.499104
-0.517495
-0.535927
-0.5544
-0.572911
-0.591452
-0.610012
-0.628577
-0.647125
-0.665625
-0.684033
-0.702284
-0.720289
-0.737915
-0.754989
-0.771283
-0.78654
-0.800425
-0.812486
-0.82214
-0.828689
-0.831345
-0.00857997
-0.0239457
-0.0400573
-0.056748
-0.073452
-0.0900832
-0.106744
-0.123497
-0.140358
-0.157339
-0.174451
-0.191699
-0.209075
-0.226567
-0.244158
-0.261826
-0.27955
-0.297312
-0.315096
-0.33289
-0.350683
-0.368464
-0.386225
-0.403959
-0.421657
-0.439312
-0.456913
-0.474452
-0.491919
-0.509302
-0.526588
-0.543757
-0.560787
-0.577649
-0.594308
-0.610722
-0.626843
-0.64261
-0.657953
-0.672786
-0.687004
-0.700483
-0.713071
-0.724591
-0.73484
-0.743592
-0.750583
-0.755524
-0.758114
-0.758058
-0.00846992
-0.0239176
-0.0400367
-0.0566446
-0.0732579
-0.0898163
-0.106409
-0.123086
-0.139862
-0.156745
-0.173747
-0.190874
-0.208126
-0.225491
-0.242945
-0.260466
-0.278032
-0.295618
-0.313202
-0.330766
-0.348293
-0.365768
-0.383177
-0.400506
-0.41774
-0.434864
-0.451862
-0.468715
-0.485404
-0.50191
-0.518207
-0.534267
-0.550055
-0.565529
-0.58064
-0.595335
-0.609552
-0.623226
-0.636282
-0.648637
-0.660203
-0.670879
-0.680562
-0.689142
-0.696511
-0.702569
-0.707231
-0.710447
-0.712223
-0.712648
-0.00829058
-0.0240291
-0.040197
-0.0566648
-0.0731494
-0.0896247
-0.106146
-0.122747
-0.139443
-0.156241
-0.173156
-0.190193
-0.20735
-0.224616
-0.241971
-0.259388
-0.27684
-0.294298
-0.311737
-0.329133
-0.346465
-0.363714
-0.380864
-0.397895
-0.414789
-0.431527
-0.448087
-0.464445
-0.480578
-0.496457
-0.512055
-0.527335
-0.54226
-0.556784
-0.570855
-0.584416
-0.597409
-0.609769
-0.62143
-0.632326
-0.642389
-0.651555
-0.659761
-0.666955
-0.673092
-0.678138
-0.682069
-0.684884
-0.686695
-0.688007
-0.0079366
-0.0240843
-0.040324
-0.0566101
-0.0729565
-0.0893712
-0.105862
-0.122442
-0.139124
-0.155913
-0.172815
-0.189835
-0.206968
-0.224201
-0.241513
-0.258877
-0.276265
-0.293649
-0.311002
-0.328301
-0.345524
-0.362651
-0.379662
-0.396538
-0.413258
-0.429801
-0.446142
-0.462257
-0.478119
-0.493699
-0.508966
-0.523884
-0.538414
-0.552509
-0.56612
-0.579192
-0.591668
-0.603489
-0.614597
-0.624931
-0.634432
-0.643042
-0.650707
-0.657373
-0.66299
-0.667513
-0.670911
-0.673213
-0.674709
-0.676272
-0.00764831
-0.0238342
-0.040089
-0.0563168
-0.072626
-0.0890292
-0.105526
-0.122122
-0.138832
-0.155665
-0.172621
-0.189696
-0.206876
-0.224142
-0.241474
-0.258842
-0.276222
-0.293591
-0.310925
-0.328203
-0.345403
-0.362507
-0.379495
-0.396348
-0.413046
-0.429567
-0.445889
-0.461987
-0.477835
-0.493405
-0.508666
-0.523584
-0.53812
-0.552233
-0.565876
-0.579003
-0.591564
-0.60351
-0.614795
-0.625373
-0.635204
-0.644251
-0.652488
-0.659902
-0.666505
-0.672348
-0.677598
-0.682994
-0.690477
-0.698233
-0.00777104
-0.0242295
-0.0407644
-0.0572785
-0.0738859
-0.0905983
-0.107416
-0.124355
-0.141434
-0.158676
-0.176093
-0.193688
-0.211457
-0.229389
-0.247471
-0.265688
-0.28403
-0.302486
-0.321055
-0.339738
-0.358542
-0.377476
-0.396554
-0.415792
-0.435212
-0.454839
-0.474705
-0.494845
-0.515304
-0.536133
-0.557392
-0.579154
-0.601504
-0.624546
-0.648402
-0.673225
-0.699207
-0.726586
-0.755665
-0.78683
-0.820599
-0.857683
-0.899094
-0.946318
-1.00144
-1.06764
-1.15059
-1.26027
-1.41748
-1.64634
-0.00811682
-0.0244389
-0.0409497
-0.0575543
-0.0742153
-0.0909435
-0.10776
-0.124682
-0.141726
-0.158912
-0.176257
-0.193776
-0.211474
-0.229348
-0.247388
-0.265579
-0.283905
-0.302354
-0.320917
-0.339593
-0.358385
-0.377302
-0.396354
-0.415559
-0.434938
-0.454517
-0.474327
-0.494401
-0.51478
-0.535511
-0.55665
-0.578262
-0.600425
-0.623228
-0.646777
-0.671203
-0.696665
-0.723364
-0.751537
-0.781441
-0.813389
-0.847789
-0.885145
-0.926047
-0.971425
-1.02264
-1.08149
-1.14998
-1.23079
-1.32351
-0.00850818
-0.0242089
-0.040602
-0.0574217
-0.0742312
-0.0909966
-0.107804
-0.124702
-0.141711
-0.158849
-0.176141
-0.193602
-0.211239
-0.229047
-0.247017
-0.265131
-0.283372
-0.301732
-0.320198
-0.338761
-0.357426
-0.3762
-0.395092
-0.414114
-0.433281
-0.452611
-0.472129
-0.491862
-0.51184
-0.532103
-0.552693
-0.573659
-0.595055
-0.616939
-0.639377
-0.662444
-0.686223
-0.710801
-0.736273
-0.76277
-0.79043
-0.819364
-0.849663
-0.881365
-0.914618
-0.949623
-0.986329
-1.02436
-1.06218
-1.09499
-0.00867518
-0.0238895
-0.0401494
-0.0570788
-0.0739719
-0.0907492
-0.107546
-0.124436
-0.141437
-0.158559
-0.175818
-0.193228
-0.210793
-0.228509
-0.246365
-0.264346
-0.282431
-0.300606
-0.318874
-0.337222
-0.355638
-0.374129
-0.3927
-0.411355
-0.430102
-0.448952
-0.467918
-0.487012
-0.506252
-0.525657
-0.545247
-0.565046
-0.585073
-0.605352
-0.625902
-0.646745
-0.667901
-0.689389
-0.711221
-0.733407
-0.755939
-0.778804
-0.801966
-0.825414
-0.848831
-0.871608
-0.893167
-0.91259
-0.928913
-0.94084
-0.0087453
-0.0237205
-0.039863
-0.0567898
-0.0736808
-0.0904209
-0.107164
-0.124
-0.14095
-0.15802
-0.175223
-0.192565
-0.210046
-0.227655
-0.245377
-0.263195
-0.281093
-0.299049
-0.31706
-0.33512
-0.353216
-0.371346
-0.389508
-0.407699
-0.425921
-0.444172
-0.462455
-0.480771
-0.499124
-0.517516
-0.535949
-0.554424
-0.572935
-0.591477
-0.610039
-0.628605
-0.647154
-0.665654
-0.684061
-0.70231
-0.720313
-0.737942
-0.755025
-0.771307
-0.78653
-0.800365
-0.81235
-0.821908
-0.828303
-0.830734
-0.00871851
-0.0236381
-0.0397284
-0.0566031
-0.073439
-0.0901207
-0.106801
-0.123571
-0.140448
-0.157438
-0.174549
-0.191787
-0.209149
-0.226622
-0.244193
-0.261846
-0.279559
-0.297312
-0.315091
-0.332882
-0.350672
-0.36845
-0.38621
-0.403941
-0.421637
-0.439288
-0.456886
-0.474421
-0.491883
-0.50926
-0.526538
-0.543699
-0.560719
-0.57757
-0.594215
-0.610614
-0.626715
-0.64246
-0.657774
-0.672573
-0.686749
-0.700177
-0.712705
-0.724153
-0.73431
-0.742958
-0.749835
-0.754652
-0.757108
-0.756908
-0.00859723
-0.0236476
-0.0397525
-0.0565253
-0.0732527
-0.0898546
-0.106465
-0.123157
-0.139943
-0.156826
-0.173818
-0.190928
-0.20816
-0.225506
-0.242946
-0.260456
-0.278013
-0.295594
-0.313175
-0.330736
-0.348261
-0.365732
-0.383137
-0.40046
-0.417688
-0.434805
-0.451794
-0.468637
-0.485315
-0.501806
-0.518088
-0.53413
-0.549898
-0.565349
-0.580435
-0.5951
-0.609283
-0.622916
-0.635925
-0.648226
-0.659728
-0.670331
-0.67993
-0.688415
-0.695674
-0.70161
-0.706142
-0.709228
-0.7109
-0.71128
-0.00839542
-0.0238542
-0.0400143
-0.0565981
-0.0731597
-0.0896645
-0.106196
-0.122804
-0.139498
-0.156285
-0.173181
-0.190198
-0.207337
-0.224588
-0.241933
-0.259345
-0.276795
-0.294253
-0.311692
-0.329087
-0.346418
-0.363665
-0.380809
-0.397835
-0.414722
-0.431451
-0.448
-0.464345
-0.480463
-0.496325
-0.511903
-0.527162
-0.542063
-0.55656
-0.570601
-0.584129
-0.597083
-0.609399
-0.62101
-0.631849
-0.641847
-0.650939
-0.659062
-0.66616
-0.672186
-0.677106
-0.680895
-0.683556
-0.685215
-0.686423
-0.00799748
-0.0240417
-0.0402744
-0.056601
-0.0729747
-0.0893974
-0.105887
-0.122465
-0.139142
-0.155918
-0.172802
-0.189806
-0.206927
-0.224152
-0.24146
-0.258825
-0.276215
-0.293601
-0.310957
-0.328258
-0.345481
-0.362607
-0.379615
-0.396487
-0.413202
-0.429738
-0.446071
-0.462176
-0.478026
-0.493592
-0.508843
-0.523745
-0.538256
-0.552332
-0.565921
-0.578968
-0.591416
-0.603207
-0.614279
-0.624574
-0.63403
-0.642589
-0.650192
-0.656779
-0.662292
-0.666678
-0.669896
-0.671955
-0.673135
-0.674372
-0.0076542
-0.0238319
-0.0400778
-0.0563033
-0.0726138
-0.089016
-0.10551
-0.122098
-0.138797
-0.15562
-0.172569
-0.189638
-0.206815
-0.224083
-0.241419
-0.258793
-0.276177
-0.293552
-0.310891
-0.328171
-0.345374
-0.362478
-0.379466
-0.396317
-0.413013
-0.42953
-0.445848
-0.46194
-0.477781
-0.493344
-0.508597
-0.523507
-0.538034
-0.552137
-0.565771
-0.578887
-0.591437
-0.603371
-0.614643
-0.625208
-0.635025
-0.644058
-0.652279
-0.659673
-0.666246
-0.672041
-0.677206
-0.682466
-0.689777
-0.697489
-0.00777096
-0.0242294
-0.0407643
-0.0572785
-0.0738858
-0.0905982
-0.107416
-0.124354
-0.141434
-0.158676
-0.176093
-0.193688
-0.211457
-0.229389
-0.247471
-0.265688
-0.28403
-0.302486
-0.321055
-0.339738
-0.358542
-0.377476
-0.396554
-0.415792
-0.435211
-0.454839
-0.474705
-0.494845
-0.515304
-0.536133
-0.557392
-0.579154
-0.601504
-0.624546
-0.648402
-0.673225
-0.699207
-0.726586
-0.755665
-0.78683
-0.820598
-0.857683
-0.899094
-0.946318
-1.00144
-1.06764
-1.15058
-1.26027
-1.41748
-1.64634
-0.00811675
-0.0244388
-0.0409496
-0.0575542
-0.0742152
-0.0909434
-0.10776
-0.124682
-0.141726
-0.158912
-0.176257
-0.193776
-0.211474
-0.229348
-0.247388
-0.265579
-0.283905
-0.302354
-0.320917
-0.339593
-0.358385
-0.377302
-0.396354
-0.415559
-0.434938
-0.454517
-0.474327
-0.494401
-0.51478
-0.535511
-0.55665
-0.578262
-0.600425
-0.623228
-0.646777
-0.671203
-0.696665
-0.723364
-0.751537
-0.781441
-0.813389
-0.847789
-0.885145
-0.926046
-0.971424
-1.02264
-1.08149
-1.14998
-1.23079
-1.32351
-0.00850817
-0.0242088
-0.0406019
-0.0574216
-0.0742311
-0.0909965
-0.107804
-0.124702
-0.14171
-0.158849
-0.17614
-0.193602
-0.211239
-0.229048
-0.247017
-0.265132
-0.283372
-0.301732
-0.320198
-0.338761
-0.357426
-0.3762
-0.395092
-0.414114
-0.433281
-0.452611
-0.472129
-0.491862
-0.51184
-0.532103
-0.552693
-0.573659
-0.595055
-0.616939
-0.639377
-0.662444
-0.686223
-0.710801
-0.736273
-0.76277
-0.790429
-0.819363
-0.849662
-0.881365
-0.914618
-0.949622
-0.986329
-1.02436
-1.06218
-1.09499
-0.00867524
-0.0238896
-0.0401494
-0.0570788
-0.0739719
-0.0907492
-0.107546
-0.124436
-0.141437
-0.158559
-0.175818
-0.193228
-0.210794
-0.22851
-0.246365
-0.264346
-0.282431
-0.300606
-0.318874
-0.337222
-0.355638
-0.374129
-0.3927
-0.411354
-0.430102
-0.448952
-0.467918
-0.487012
-0.506252
-0.525657
-0.545247
-0.565046
-0.585073
-0.605352
-0.625902
-0.646745
-0.667901
-0.689389
-0.711221
-0.733406
-0.755939
-0.778803
-0.801965
-0.825414
-0.848831
-0.871608
-0.893167
-0.91259
-0.928912
-0.94084
-0.00874543
-0.0237206
-0.039863
-0.0567898
-0.0736808
-0.0904209
-0.107164
-0.124
-0.14095
-0.15802
-0.175223
-0.192566
-0.210046
-0.227655
-0.245377
-0.263195
-0.281092
-0.299048
-0.317059
-0.335119
-0.353216
-0.371346
-0.389507
-0.407699
-0.425921
-0.444172
-0.462455
-0.480771
-0.499124
-0.517516
-0.535949
-0.554424
-0.572935
-0.591477
-0.610039
-0.628605
-0.647154
-0.665654
-0.684061
-0.70231
-0.720313
-0.737942
-0.755024
-0.771306
-0.78653
-0.800364
-0.812349
-0.821907
-0.828302
-0.830733
-0.00871871
-0.0236383
-0.0397285
-0.0566032
-0.0734391
-0.0901207
-0.106801
-0.123571
-0.140448
-0.157438
-0.174549
-0.191788
-0.20915
-0.226623
-0.244194
-0.261846
-0.279558
-0.297312
-0.315091
-0.332881
-0.350671
-0.36845
-0.38621
-0.403941
-0.421637
-0.439288
-0.456886
-0.474421
-0.491883
-0.50926
-0.526538
-0.543699
-0.560719
-0.577569
-0.594215
-0.610614
-0.626715
-0.642459
-0.657774
-0.672572
-0.686749
-0.700177
-0.712704
-0.724152
-0.734309
-0.742957
-0.749834
-0.75465
-0.757107
-0.756908
-0.0085974
-0.0236478
-0.0397526
-0.0565254
-0.0732528
-0.0898547
-0.106465
-0.123157
-0.139943
-0.156826
-0.173818
-0.190929
-0.208161
-0.225507
-0.242946
-0.260456
-0.278013
-0.295593
-0.313174
-0.330736
-0.34826
-0.365732
-0.383136
-0.40046
-0.417688
-0.434805
-0.451794
-0.468637
-0.485315
-0.501806
-0.518088
-0.53413
-0.549897
-0.565349
-0.580435
-0.5951
-0.609283
-0.622916
-0.635924
-0.648225
-0.659727
-0.67033
-0.679929
-0.688413
-0.695672
-0.701608
-0.706139
-0.709225
-0.710897
-0.711278
-0.00839554
-0.0238543
-0.0400143
-0.0565982
-0.0731598
-0.0896645
-0.106196
-0.122804
-0.139498
-0.156285
-0.173182
-0.190199
-0.207337
-0.224588
-0.241933
-0.259345
-0.276795
-0.294253
-0.311692
-0.329087
-0.346418
-0.363664
-0.380809
-0.397835
-0.414722
-0.431451
-0.448
-0.464345
-0.480463
-0.496325
-0.511903
-0.527162
-0.542063
-0.55656
-0.570601
-0.584129
-0.597083
-0.609398
-0.621009
-0.631848
-0.641846
-0.650938
-0.65906
-0.666158
-0.672184
-0.677103
-0.680891
-0.683551
-0.685209
-0.686418
-0.00799754
-0.0240418
-0.0402745
-0.0566011
-0.0729748
-0.0893974
-0.105888
-0.122465
-0.139142
-0.155918
-0.172802
-0.189806
-0.206927
-0.224152
-0.241461
-0.258825
-0.276215
-0.293601
-0.310957
-0.328258
-0.345481
-0.362607
-0.379615
-0.396487
-0.413202
-0.429738
-0.446071
-0.462176