/*--------------------------------*- C++ -*----------------------------------*\
  =========                 |
  \\      /  F ield         | OpenFOAM: The Open Source CFD Toolbox
   \\    /   O peration     | Website:  https://openfoam.org
    \\  /    A nd           | Version:  6
     \\/     M anipulation  |
\*---------------------------------------------------------------------------*/
FoamFile
{
    version     2.0;
    format      ascii;
    class       volScalarField;
    location    "0";
    object      p;
}
// * * * * * * * * * * * * * * * * * * * * * * * * * * * * * * * * * * * * * //

dimensions      [0 2 -2 0 0 0 0];

internalField   nonuniform List<scalar> 
918
(
0.726284
0.504455
-0.0047639
0.688732
0.00282614
0.470697
-0.664923
0.474622
0.722115
-0.116963
0.012899
0.588078
0.311481
0.0441889
-1.19278
0.0374175
0.660318
-0.843121
0.545694
0.0114543
0.178501
0.754655
0.695472
0.562734
0.62008
0.062538
0.0489958
-0.026968
-7.84965e-05
-0.016986
0.00527023
0.0189961
0.0360468
0.33812
0.388884
0.407855
0.575849
0.309858
-0.488123
-0.496438
-0.563578
-0.859188
0.513899
0.542426
-0.108575
0.427868
0.384709
0.578994
0.707975
0.715949
0.708618
0.73272
0.748114
0.299981
-0.162653
-0.20671
-0.0816028
-0.0749355
0.120147
-0.00269278
-0.0196006
0.0181791
-0.00792982
0.545958
0.582858
0.574861
0.596344
0.586028
0.427944
0.385046
0.410582
0.365418
0.3705
0.281059
0.217585
0.0676262
0.057038
-0.00196818
-0.0167658
-1.37174
-1.86462
-0.872231
-0.714676
0.0150786
0.0199393
0.0487093
0.659717
0.665054
0.641823
0.647888
0.646402
-0.716698
-0.98157
0.62277
0.604015
0.716788
0.677092
0.586582
0.567405
-0.00924604
-0.0048776
0.00237612
0.0243747
-0.0143632
0.109744
0.163623
0.490718
0.546658
0.577669
0.592448
0.583199
0.36168
0.628359
0.631868
-0.0952588
-0.0271261
0.0505043
0.0314256
0.0976834
0.083587
0.222128
0.260147
0.00530795
0.0109043
0.0390318
0.0178594
0.0123587
0.571038
0.560449
0.596009
0.573836
0.59139
0.206894
0.0369776
0.388339
0.518079
-0.298605
-0.312379
-0.789
-0.730675
-0.988516
0.758747
0.559263
0.589506
-0.126568
-0.078832
-0.189003
0.0123794
-0.0445836
0.608614
0.579538
0.589016
0.568317
0.577462
0.580369
0.727277
0.723239
0.726633
0.279948
0.34719
0.288668
0.22139
-0.466275
-0.259834
-0.46325
-0.038119
-0.0341213
0.0934355
0.115802
0.134749
0.0741461
-0.025839
-0.00187536
0.0134396
-0.00546113
-0.00516837
0.554957
0.526954
0.533657
0.541212
0.586453
0.577201
0.573211
0.581151
0.224757
0.207887
0.196142
0.201918
-2.35444
-3.9845
-0.556239
-0.470968
0.0218456
0.0105045
0.00383693
-0.0271059
0.00473001
-0.0106558
0.0576315
0.0729912
0.0350243
0.0483821
0.653156
0.664776
0.647716
0.699576
0.577279
0.592363
0.594445
0.603315
0.603922
0.60551
-0.00998883
-0.0200961
-0.0189997
0.329987
0.202488
0.264345
0.338944
0.244954
0.398271
0.442015
0.652396
0.651172
0.66612
-0.0493266
-0.0331073
0.195549
0.284562
0.211368
0.246501
0.324943
0.357603
0.338736
0.538371
0.561992
0.553691
0.591283
0.59018
0.59389
0.596967
0.583903
0.586762
-0.0806058
-0.311781
0.700652
0.646057
0.570864
0.627251
0.728744
0.750537
0.634388
0.596839
0.621093
0.0683005
0.0518526
0.199903
0.175083
0.488085
0.498057
0.491332
0.143649
0.0502973
0.08825
0.0898414
0.0429746
0.114753
-0.258429
-1.31603
-0.702166
-0.207107
-0.36087
-0.250633
0.0472753
0.0993799
0.0823064
0.664499
0.703099
0.381961
0.506162
0.48
0.00451693
-0.0159548
0.105994
0.0367279
0.0263865
0.0562083
-0.0107283
0.719505
0.70564
0.743589
0.719051
0.743814
0.192121
0.155425
0.114668
0.144991
0.146913
0.151942
0.687723
0.715569
0.742488
0.501623
0.573059
0.00669412
0.00807734
0.673368
0.656809
-0.0286718
0.0117974
-0.356336
-0.97106
0.257122
0.607244
0.57317
0.634213
-0.12175
0.215879
-0.00930569
0.0940959
0.0623222
0.56945
0.517913
0.49736
-0.00610402
0.0243334
-0.040091
-0.311674
0.604696
0.5863
0.623683
0.632186
0.673353
-0.00506588
0.00524818
0.0324936
-0.0507888
-0.000776574
0.0209219
0.58482
0.572407
-0.203506
0.605679
0.62647
0.657876
0.621345
0.637593
0.646132
-0.00161762
0.0401411
0.0455564
0.277119
0.416303
-0.153379
0.092159
-0.386002
-0.421775
-0.517787
-0.228674
-0.139454
-0.255216
0.00573636
0.546263
0.429885
0.324118
0.135751
0.283205
0.233251
0.592827
0.610533
0.574246
0.609652
0.614353
0.586868
0.623121
0.600196
0.608062
0.632821
-0.0448341
-0.0725252
-0.0908148
-0.161857
0.274175
0.359457
0.176481
0.252452
0.148523
-0.0255569
0.0230918
-0.0107808
-0.0110043
0.0446604
0.111698
0.0217064
0.141782
0.0374397
0.0961284
0.000986664
0.059814
-0.015237
0.550506
0.560638
0.559962
0.597098
0.546756
0.549857
0.541266
0.530051
0.56844
0.495691
0.485441
0.509623
0.0217012
0.0188929
0.0238674
0.0621947
0.0417508
-0.0502773
-0.0526661
-0.0803963
-0.0429702
-0.0373374
-0.0302709
-0.0119096
-0.224111
-0.381849
0.599902
0.517169
0.26578
0.593951
0.611069
0.588589
0.602192
0.641634
0.6758
0.648545
0.59402
0.584798
0.596241
0.565231
0.590344
-0.126843
-0.246082
-0.0443918
-0.114361
0.288238
0.627365
0.428749
0.426934
0.413988
0.511518
-0.803974
-0.584619
0.0826415
0.0818033
-0.726384
-0.589908
-0.734665
-0.536462
-0.335209
-0.081715
-0.0350887
-0.0254563
0.00129931
-0.114932
-0.0398469
0.652389
0.0404434
0.0640243
0.334994
0.219647
-0.0286381
0.57903
0.595699
0.389566
0.336942
0.512026
0.48382
0.49653
0.482195
0.508805
0.526879
0.299443
0.371108
0.307909
0.614783
0.541667
0.547268
0.500089
0.627291
0.620391
0.612888
0.609187
0.618442
0.594108
0.594467
0.584396
0.560702
0.599933
0.583371
0.573521
-0.056057
-0.0256095
-0.138372
-0.216937
-0.133752
-0.221444
-0.10529
0.0770576
-0.0468826
0.194585
0.303728
0.118175
-0.167582
-0.0129071
-0.0433596
0.170769
0.111175
0.0913819
0.167045
0.15652
0.108529
0.228449
0.212509
0.0614758
0.0756523
0.0122893
0.00562096
0.133736
0.106292
0.142557
0.073364
0.0741989
0.0246263
0.0108224
0.0619745
0.0870283
0.0946076
0.0388363
0.00834045
0.0132836
-0.0357182
0.0030572
0.132358
0.0442114
0.587814
0.581378
0.58016
0.572481
0.596673
0.597287
0.532681
0.570304
0.584865
0.5665
0.539453
0.526856
0.523375
0.548146
0.551242
0.54901
0.597215
0.584709
0.554735
0.567464
0.518051
0.538987
0.488705
0.497321
0.535355
-0.0237673
-0.0273228
-0.0443238
-0.0362913
0.00415634
0.0266533
0.0805715
0.0406525
0.107753
0.0660204
0.080515
-0.0514629
-0.0132614
-0.0423398
0.0602418
-0.208818
-0.222163
-0.337777
0.588042
0.637381
0.517174
0.43297
0.501682
0.541757
0.569452
0.386435
0.429398
0.451579
0.667567
0.670242
0.552763
0.556317
0.609672
0.596129
0.583226
0.0154295
0.190158
0.223457
0.348597
0.407224
0.424774
0.395786
0.396746
0.500045
0.479255
0.608928
0.62476
0.606814
0.633216
0.652969
0.452296
0.554851
0.600302
0.571641
0.557689
0.566871
0.570518
0.550623
0.527563
0.543226
0.538572
0.481562
0.520866
0.508656
0.525517
0.553428
0.544466
0.550677
0.542947
0.595043
0.557529
0.574487
0.615774
0.594091
0.505513
0.487699
0.504652
0.510202
0.520819
0.505175
0.503774
0.433841
0.555604
0.410896
0.101865
0.194369
0.0162263
1.20733e-05
0.0913662
0.277195
-0.106612
-0.163805
-0.555411
0.713685
-0.955831
-0.365401
-0.65773
0.286434
0.299527
0.210738
0.10478
0.203131
0.587678
0.60786
0.613911
0.491118
0.466287
0.384018
0.422046
0.655814
0.586514
0.606361
0.546584
0.39202
0.45092
0.517659
0.488179
0.41754
0.438313
0.469399
0.378569
0.390801
0.497123
0.492735
0.493715
0.554071
0.584797
0.591467
0.573737
0.483423
0.531228
0.507112
0.538375
0.559082
0.541158
0.602052
0.575006
0.565868
0.570198
0.5856
0.593723
0.57029
0.610553
0.611717
0.641616
0.619912
-0.00410852
0.0162489
0.0080869
-0.0237785
0.0586799
0.0177944
-0.109915
-0.136648
0.0699689
0.0267762
-0.00555459
-0.0373575
0.037009
0.0510455
0.107284
0.155675
0.174768
0.0972513
0.231281
0.329526
0.37147
0.31689
0.199327
0.205222
0.260488
0.0562474
0.0859717
0.0649859
0.0673651
0.0604594
-0.0351067
-0.00712034
-0.0107679
0.0690807
0.0378228
-0.0675886
0.00675295
0.00688318
-0.0498341
-0.0106623
0.0038498
0.560839
0.532088
0.487744
0.459248
0.4984
0.499138
0.569061
0.574901
0.597822
0.592866
0.587177
0.57614
0.594218
-0.0282378
0.0155065
0.0144439
0.040986
0.00635414
-0.053608
-0.0222584
0.322021
0.159749
0.231923
0.105636
-0.0875366
-0.0317353
0.543624
0.641215
0.674848
0.645503
0.580352
0.587598
0.642927
0.67338
0.44514
0.538822
0.46361
0.620354
0.626994
0.658437
0.55324
0.390549
0.606177
0.730092
0.404696
0.41455
0.517828
0.351055
0.394547
0.432413
0.619185
0.426869
0.423082
0.483617
0.427154
0.471874
0.506965
0.498179
0.571578
0.346406
0.337645
0.236799
0.583167
0.609841
0.637456
0.606649
0.624085
0.595315
0.596648
0.610269
0.640178
0.627815
-0.283314
-0.046116
-0.931746
-0.812196
-0.279336
0.622797
0.621526
0.23562
0.49868
-0.0203475
0.207195
0.421501
0.470056
0.497682
0.399802
0.477244
0.532886
0.527466
0.477079
0.404836
0.349324
0.579936
0.593527
0.560099
0.577396
0.584078
0.586179
0.536844
0.581143
0.544703
0.585476
0.597951
0.605649
0.125848
0.0836438
0.104197
0.0886423
0.0565278
0.089175
-0.0655181
-0.0907787
0.0258816
0.0486492
0.0410309
0.0885301
0.355636
0.340529
0.151926
0.260392
0.0866139
-0.0155727
-0.0467708
0.0817647
0.218806
0.220373
0.45757
0.561002
0.501387
0.519189
0.454936
0.520787
0.630033
0.575579
0.62441
0.558592
0.555651
0.324286
0.0554285
0.0254917
-0.379636
0.192249
0.458824
0.405494
0.0642149
-0.191422
0.594148
0.56583
0.51546
0.533796
0.505393
0.158522
0.247948
0.564867
0.83421
0.549133
0.463435
0.467227
0.592163
0.508214
)
;

boundaryField
{
    wall-4
    {
        type            zeroGradient;
    }
    velocity-inlet-5
    {
        type            zeroGradient;
    }
    velocity-inlet-6
    {
        type            zeroGradient;
    }
    pressure-outlet-7
    {
        type            fixedValue;
        value           uniform 0;
    }
    wall-8
    {
        type            zeroGradient;
    }
    frontAndBackPlanes
    {
        type            empty;
    }
}

