/*--------------------------------*- C++ -*----------------------------------*\
  =========                 |
  \\      /  F ield         | OpenFOAM: The Open Source CFD Toolbox
   \\    /   O peration     | Website:  https://openfoam.org
    \\  /    A nd           | Version:  6
     \\/     M anipulation  |
\*---------------------------------------------------------------------------*/
FoamFile
{
    version     2.0;
    format      ascii;
    class       volScalarField;
    location    "./ITHACAoutput/Offline/1";
    object      prghRec;
}
// * * * * * * * * * * * * * * * * * * * * * * * * * * * * * * * * * * * * * //

dimensions      [0 2 -2 0 0 0 0];

internalField   nonuniform List<scalar> 
115600
(
-0.000355148
-0.000382946
-0.000396482
-0.000400634
-0.000403864
-0.000410471
-0.000419033
-0.000428508
-0.000438326
-0.000448154
-0.00045787
-0.000467414
-0.000476774
-0.000485972
-0.000495017
-0.000503897
-0.000512606
-0.000521098
-0.0005294
-0.000537475
-0.000545323
-0.000552955
-0.000560391
-0.000567658
-0.000574772
-0.000581761
-0.000588635
-0.000595397
-0.000602047
-0.000608607
-0.000615083
-0.000621471
-0.000627789
-0.000634058
-0.000640275
-0.000646497
-0.000652742
-0.000659074
-0.000665503
-0.000672068
-0.000678821
-0.000685815
-0.00069311
-0.000700751
-0.000708857
-0.000717519
-0.000726859
-0.000737064
-0.000748304
-0.000760854
-0.000775112
-0.000791337
-0.000810975
-0.000832842
-0.000866704
-0.000893566
-0.000398806
-0.000383832
-0.000396727
-0.000400784
-0.000403949
-0.000410521
-0.000419057
-0.000428508
-0.000438319
-0.000448139
-0.000457848
-0.000467397
-0.000476752
-0.000485952
-0.000494985
-0.000503864
-0.000512569
-0.000521084
-0.000529386
-0.000537461
-0.000545309
-0.000552943
-0.000560384
-0.00056765
-0.000574764
-0.000581753
-0.000588615
-0.000595385
-0.000602045
-0.000608607
-0.000615077
-0.000621465
-0.000627789
-0.000634058
-0.00064028
-0.000646497
-0.000652747
-0.000659074
-0.00066551
-0.000672069
-0.000678834
-0.00068582
-0.000693111
-0.000700763
-0.000708863
-0.000717529
-0.000726888
-0.000737069
-0.000748316
-0.000760859
-0.000775127
-0.000791363
-0.000811005
-0.000832901
-0.000866739
-0.000892943
-0.000437032
-0.000384832
-0.000397226
-0.000401142
-0.000404203
-0.000410708
-0.000419191
-0.000428597
-0.000438374
-0.00044818
-0.00045787
-0.000467406
-0.00047676
-0.000485951
-0.000494979
-0.000503852
-0.000512561
-0.000521076
-0.000529374
-0.000537447
-0.000545295
-0.000552934
-0.000560376
-0.000567643
-0.000574758
-0.000581745
-0.000588615
-0.000595378
-0.000602039
-0.0006086
-0.000615071
-0.000621463
-0.000627788
-0.000634058
-0.00064028
-0.000646497
-0.00065276
-0.000659081
-0.000665509
-0.000672086
-0.000678846
-0.000685826
-0.000693118
-0.000700769
-0.000708885
-0.000717552
-0.000726893
-0.000737091
-0.000748338
-0.000760888
-0.000775148
-0.000791389
-0.000811037
-0.000832906
-0.00086663
-0.000891701
-0.000465983
-0.000386081
-0.000398035
-0.000401764
-0.000404688
-0.000411108
-0.000419506
-0.000428842
-0.000438554
-0.00044832
-0.000457989
-0.000467499
-0.000476836
-0.000486007
-0.000495033
-0.000503898
-0.000512598
-0.000521083
-0.00052938
-0.000537452
-0.000545296
-0.000552935
-0.000560371
-0.000567636
-0.000574759
-0.000581745
-0.000588609
-0.000595377
-0.000602038
-0.000608599
-0.000615069
-0.000621457
-0.000627782
-0.000634051
-0.000640274
-0.000646491
-0.000652758
-0.000659073
-0.000665508
-0.00067209
-0.000678843
-0.000685824
-0.000693121
-0.000700779
-0.000708889
-0.000717551
-0.000726897
-0.0007371
-0.000748359
-0.000760901
-0.000775175
-0.000791409
-0.000811045
-0.000832858
-0.000866305
-0.000890053
-0.00048924
-0.000387624
-0.000398884
-0.000402515
-0.000405316
-0.000411629
-0.000419931
-0.00042918
-0.00043882
-0.000448535
-0.000458161
-0.000467637
-0.000476953
-0.000486107
-0.000495109
-0.000503952
-0.000512637
-0.000521133
-0.000529399
-0.000537466
-0.000545308
-0.000552937
-0.000560374
-0.000567639
-0.000574754
-0.000581744
-0.000588606
-0.000595369
-0.000602028
-0.000608583
-0.000615061
-0.000621449
-0.000627774
-0.000634037
-0.000640261
-0.000646484
-0.000652746
-0.000659065
-0.0006655
-0.000672082
-0.000678835
-0.000685838
-0.000693118
-0.000700775
-0.000708887
-0.000717553
-0.000726916
-0.000737114
-0.000748367
-0.000760915
-0.000775188
-0.000791417
-0.000811047
-0.000832756
-0.000865848
-0.000888122
-0.000508918
-0.000389334
-0.000399478
-0.000403149
-0.000405885
-0.000412142
-0.000420362
-0.000429532
-0.000439113
-0.000448765
-0.000458352
-0.000467801
-0.000477108
-0.000486239
-0.000495223
-0.000504038
-0.000512709
-0.000521171
-0.000529442
-0.00053748
-0.000545316
-0.00055294
-0.000560376
-0.000567635
-0.000574754
-0.000581734
-0.000588604
-0.000595366
-0.000602019
-0.000608574
-0.000615046
-0.000621435
-0.000627761
-0.000634024
-0.000640247
-0.000646464
-0.00065272
-0.000659056
-0.000665484
-0.000672071
-0.000678824
-0.000685829
-0.000693114
-0.000700772
-0.000708884
-0.000717568
-0.000726915
-0.000737118
-0.000748381
-0.000760934
-0.000775198
-0.000791416
-0.000811005
-0.00083259
-0.00086522
-0.000886002
-0.000525583
-0.00039133
-0.000399795
-0.000403588
-0.000406309
-0.000412548
-0.000420723
-0.000429845
-0.000439365
-0.000448981
-0.00045853
-0.000467965
-0.000477241
-0.000486356
-0.000495328
-0.000504132
-0.000512763
-0.000521227
-0.000529473
-0.000537511
-0.000545325
-0.00055296
-0.000560379
-0.000567637
-0.000574755
-0.000581733
-0.000588597
-0.000595357
-0.000602009
-0.000608564
-0.000615024
-0.000621415
-0.000627734
-0.000633993
-0.000640217
-0.000646446
-0.000652706
-0.000659036
-0.000665469
-0.000672049
-0.00067881
-0.000685812
-0.000693099
-0.000700758
-0.000708874
-0.00071756
-0.000726906
-0.000737116
-0.000748374
-0.000760917
-0.000775174
-0.000791378
-0.000810913
-0.000832333
-0.000864438
-0.000883752
-0.000539252
-0.000393893
-0.000400004
-0.000403878
-0.000406603
-0.000412836
-0.000420987
-0.000430064
-0.000439553
-0.000449139
-0.000458678
-0.000468091
-0.000477351
-0.000486459
-0.000495408
-0.000504207
-0.000512826
-0.000521259
-0.000529504
-0.000537529
-0.000545344
-0.000552957
-0.000560376
-0.000567635
-0.000574752
-0.000581726
-0.00058859
-0.000595337
-0.000601981
-0.000608547
-0.000615002
-0.000621388
-0.000627703
-0.000633973
-0.000640191
-0.000646413
-0.00065268
-0.000659004
-0.000665436
-0.000672016
-0.000678776
-0.000685778
-0.000693077
-0.000700743
-0.000708854
-0.000717523
-0.000726888
-0.000737093
-0.000748346
-0.000760898
-0.000775132
-0.00079131
-0.000810757
-0.000831992
-0.000863494
-0.000881394
-0.000549864
-0.000397242
-0.000400348
-0.000404157
-0.000406829
-0.000413053
-0.000421176
-0.000430214
-0.000439677
-0.000449241
-0.000458764
-0.000468171
-0.000477426
-0.000486535
-0.000495471
-0.000504247
-0.000512859
-0.000521283
-0.00052952
-0.000537527
-0.000545342
-0.00055295
-0.00056037
-0.000567629
-0.00057474
-0.000581714
-0.000588576
-0.000595321
-0.000601965
-0.000608512
-0.000614973
-0.000621359
-0.000627675
-0.00063394
-0.000640164
-0.000646381
-0.000652642
-0.000658971
-0.000665408
-0.000671989
-0.000678748
-0.000685752
-0.000693039
-0.000700698
-0.000708818
-0.000717487
-0.00072685
-0.000737054
-0.000748298
-0.000760834
-0.000775049
-0.000791186
-0.00081054
-0.000831548
-0.000862399
-0.000878975
-0.000557365
-0.000401432
-0.00040104
-0.000404536
-0.000407059
-0.000413229
-0.000421318
-0.000430319
-0.00043974
-0.000449283
-0.000458813
-0.00046821
-0.000477459
-0.000486561
-0.000495494
-0.000504269
-0.000512864
-0.000521279
-0.000529503
-0.000537515
-0.000545309
-0.000552917
-0.000560345
-0.000567604
-0.000574715
-0.000581683
-0.000588538
-0.000595293
-0.000601936
-0.000608477
-0.000614933
-0.000621312
-0.000627631
-0.000633895
-0.000640113
-0.000646336
-0.000652603
-0.000658921
-0.000665363
-0.000671938
-0.000678697
-0.000685701
-0.00069299
-0.000700651
-0.000708764
-0.000717437
-0.000726787
-0.000736984
-0.000748218
-0.000760738
-0.000774923
-0.000791003
-0.000810259
-0.000831013
-0.000861159
-0.000876515
-0.000561855
-0.000406388
-0.000402218
-0.000405127
-0.000407404
-0.000413428
-0.000421441
-0.000430394
-0.000439769
-0.000449294
-0.000458807
-0.000468202
-0.000477446
-0.000486556
-0.000495486
-0.000504255
-0.000512846
-0.000521253
-0.00052946
-0.00053746
-0.000545272
-0.000552876
-0.000560299
-0.000567553
-0.00057467
-0.000581642
-0.000588501
-0.000595244
-0.000601881
-0.000608428
-0.00061489
-0.000621265
-0.000627582
-0.000633834
-0.000640061
-0.000646291
-0.000652546
-0.000658868
-0.000665307
-0.00067188
-0.000678641
-0.000685644
-0.000692932
-0.000700596
-0.000708695
-0.000717364
-0.000726709
-0.000736892
-0.000748118
-0.000760598
-0.000774771
-0.000790776
-0.000809877
-0.000830379
-0.00085978
-0.00087404
-0.000563565
-0.000411892
-0.000403916
-0.000406041
-0.000407925
-0.000413727
-0.000421604
-0.00043047
-0.000439791
-0.000449288
-0.000458763
-0.000468151
-0.000477408
-0.000486506
-0.000495434
-0.000504203
-0.000512791
-0.000521189
-0.000529394
-0.000537401
-0.000545194
-0.000552807
-0.000560237
-0.000567498
-0.000574597
-0.000581578
-0.000588441
-0.000595178
-0.000601819
-0.00060836
-0.000614821
-0.000621199
-0.000627516
-0.000633765
-0.000639992
-0.000646222
-0.000652476
-0.000658806
-0.000665232
-0.000671818
-0.000678576
-0.000685559
-0.00069285
-0.000700515
-0.000708615
-0.000717275
-0.000726613
-0.000736768
-0.000747987
-0.000760444
-0.000774547
-0.000790483
-0.000809441
-0.000829646
-0.000858267
-0.000871531
-0.000562854
-0.000417643
-0.000406072
-0.000407279
-0.000408698
-0.000414171
-0.000421861
-0.000430579
-0.00043982
-0.000449252
-0.000458707
-0.00046809
-0.000477336
-0.000486427
-0.000495356
-0.000504122
-0.000512708
-0.000521105
-0.000529302
-0.000537308
-0.000545103
-0.00055271
-0.000560148
-0.00056741
-0.000574511
-0.000581496
-0.000588359
-0.0005951
-0.000601736
-0.000608284
-0.00061474
-0.000621117
-0.000627431
-0.000633685
-0.000639907
-0.000646133
-0.0006524
-0.000658723
-0.000665162
-0.000671726
-0.000678485
-0.000685468
-0.000692756
-0.000700404
-0.000708513
-0.00071715
-0.000726475
-0.00073663
-0.000747813
-0.00076023
-0.000774281
-0.000790136
-0.000808907
-0.000828824
-0.000856613
-0.000869007
-0.000560074
-0.000423353
-0.00040855
-0.000408764
-0.000409714
-0.00041482
-0.000422238
-0.00043077
-0.000439881
-0.000449244
-0.00045865
-0.000468009
-0.000477243
-0.000486327
-0.000495261
-0.000504019
-0.000512604
-0.000520994
-0.000529189
-0.000537184
-0.00054499
-0.000552592
-0.000560019
-0.000567289
-0.000574408
-0.000581395
-0.000588257
-0.000594998
-0.000601639
-0.00060818
-0.000614632
-0.000621011
-0.000627325
-0.000633587
-0.000639815
-0.000646037
-0.000652298
-0.000658629
-0.000665055
-0.000671619
-0.000678381
-0.000685366
-0.000692648
-0.000700284
-0.000708377
-0.000717021
-0.000726331
-0.000736449
-0.0007476
-0.000759994
-0.000773968
-0.000789709
-0.000808287
-0.000827891
-0.000854835
-0.000866463
-0.00055562
-0.000428783
-0.000411221
-0.000410436
-0.000410934
-0.00041565
-0.00042277
-0.000431093
-0.000440044
-0.000449289
-0.000458623
-0.000467927
-0.000477141
-0.000486218
-0.000495134
-0.000503891
-0.000512463
-0.000520857
-0.000529055
-0.000537054
-0.000544839
-0.000552452
-0.000559893
-0.000567164
-0.000574285
-0.000581266
-0.000588124
-0.000594871
-0.000601518
-0.000608059
-0.000614516
-0.000620895
-0.000627212
-0.00063347
-0.000639693
-0.000645927
-0.000652184
-0.000658509
-0.000664937
-0.000671508
-0.000678253
-0.00068524
-0.000692514
-0.000700151
-0.000708224
-0.000716854
-0.000726134
-0.000736249
-0.000747359
-0.0007597
-0.000773612
-0.000789225
-0.000807586
-0.000826859
-0.000852919
-0.000863907
-0.000549867
-0.000433686
-0.000413954
-0.00041218
-0.000412255
-0.000416605
-0.000423454
-0.000431542
-0.000440308
-0.000449431
-0.000458661
-0.000467897
-0.000477052
-0.000486092
-0.000495005
-0.000503755
-0.000512325
-0.00052071
-0.000528903
-0.000536889
-0.000544691
-0.000552288
-0.00055973
-0.000567002
-0.000574128
-0.000581111
-0.000587975
-0.000594735
-0.000601383
-0.000607924
-0.000614381
-0.000620762
-0.000627078
-0.000633332
-0.000639563
-0.000645791
-0.00065205
-0.000658377
-0.000664801
-0.000671361
-0.000678108
-0.00068509
-0.000692355
-0.000699989
-0.000708046
-0.000716656
-0.000725926
-0.000736005
-0.000747078
-0.000759353
-0.000773183
-0.000788676
-0.000806787
-0.000825714
-0.000850887
-0.000861309
-0.000543361
-0.000437968
-0.000416679
-0.000413977
-0.000413661
-0.000417663
-0.00042423
-0.000432097
-0.000440693
-0.000449656
-0.000458778
-0.000467919
-0.000477006
-0.000486003
-0.000494888
-0.000503606
-0.000512168
-0.000520546
-0.00052873
-0.000536711
-0.000544512
-0.000552109
-0.000559552
-0.00056683
-0.000573958
-0.000580941
-0.000587807
-0.000594571
-0.00060122
-0.000607766
-0.000614226
-0.000620607
-0.000626907
-0.00063318
-0.000639414
-0.000645643
-0.000651891
-0.00065822
-0.000664639
-0.000671206
-0.000677945
-0.00068492
-0.00069218
-0.000699796
-0.00070785
-0.000716437
-0.000725673
-0.00073572
-0.00074675
-0.000758969
-0.000772695
-0.000788039
-0.000805898
-0.000824457
-0.000848721
-0.000858695
-0.000536746
-0.000441593
-0.000419323
-0.000415793
-0.000415111
-0.000418807
-0.0004251
-0.000432748
-0.000441171
-0.000449992
-0.000458986
-0.000468029
-0.000477056
-0.000485987
-0.000494813
-0.000503496
-0.00051202
-0.000520382
-0.000528554
-0.000536532
-0.000544314
-0.000551922
-0.000559363
-0.000566644
-0.00057376
-0.000580761
-0.000587628
-0.000594378
-0.000601025
-0.00060758
-0.000614034
-0.000620417
-0.000626742
-0.000632997
-0.000639238
-0.000645471
-0.000651732
-0.00065805
-0.000664469
-0.000671034
-0.000677762
-0.000684735
-0.000691977
-0.000699585
-0.000707622
-0.00071619
-0.000725399
-0.000735404
-0.000746381
-0.000758511
-0.000772134
-0.000787331
-0.0008049
-0.000823094
-0.000846426
-0.000856035
-0.000530468
-0.000444653
-0.00042189
-0.000417623
-0.000416626
-0.000420004
-0.000426046
-0.000433475
-0.000441726
-0.000450396
-0.000459289
-0.000468236
-0.000477175
-0.000486047
-0.000494814
-0.000503444
-0.000511932
-0.000520267
-0.000528403
-0.000536367
-0.000544134
-0.000551742
-0.000559165
-0.000566433
-0.000573569
-0.000580558
-0.000587436
-0.00059419
-0.000600836
-0.000607385
-0.00061385
-0.000620236
-0.000626543
-0.000632823
-0.000639048
-0.000645283
-0.000651531
-0.000657868
-0.000664278
-0.000670832
-0.000677564
-0.000684517
-0.000691758
-0.000699335
-0.000707366
-0.000715908
-0.000725084
-0.000735051
-0.000745962
-0.000758013
-0.000771515
-0.000786523
-0.000803808
-0.000821592
-0.000843995
-0.000853323
-0.000524659
-0.000447239
-0.000424353
-0.000419454
-0.000418157
-0.00042126
-0.000427043
-0.000434271
-0.000442349
-0.000450887
-0.000459662
-0.000468522
-0.00047737
-0.000486179
-0.000494883
-0.000503483
-0.000511924
-0.000520212
-0.000528323
-0.000536252
-0.000544004
-0.000551581
-0.000558994
-0.000566255
-0.000573382
-0.00058036
-0.000587227
-0.000593977
-0.000600627
-0.000607182
-0.000613637
-0.000620029
-0.000626339
-0.000632614
-0.000638841
-0.000645084
-0.000651335
-0.00065765
-0.000664063
-0.000670609
-0.000677337
-0.000684282
-0.000691499
-0.000699075
-0.000707078
-0.000715581
-0.000724732
-0.000734647
-0.000745491
-0.000757463
-0.000770814
-0.000785645
-0.000802598
-0.000819982
-0.000841439
-0.000850525
-0.000519236
-0.000449457
-0.000426667
-0.000421255
-0.000419704
-0.000422542
-0.000428085
-0.000435108
-0.000443015
-0.000451427
-0.000460098
-0.000468857
-0.000477643
-0.00048638
-0.000495034
-0.000503585
-0.000511991
-0.000520229
-0.00052831
-0.000536207
-0.000543938
-0.00055149
-0.000558879
-0.000566129
-0.000573228
-0.000580196
-0.000587051
-0.0005938
-0.000600437
-0.000606975
-0.000613433
-0.000619819
-0.000626128
-0.000632393
-0.000638628
-0.000644862
-0.000651115
-0.000657432
-0.000663844
-0.000670375
-0.0006771
-0.00068403
-0.00069124
-0.00069879
-0.000706764
-0.000715241
-0.000724339
-0.000734202
-0.000744969
-0.000756834
-0.000770058
-0.000784667
-0.000801271
-0.000818241
-0.000838764
-0.000847669
-0.000514115
-0.000451315
-0.000428827
-0.000422987
-0.00042122
-0.000423806
-0.000429117
-0.000435954
-0.000443709
-0.000451996
-0.000460562
-0.000469253
-0.000477966
-0.00048664
-0.000495247
-0.000503744
-0.000512109
-0.000520319
-0.000528366
-0.00053623
-0.000543934
-0.000551466
-0.000558832
-0.000566057
-0.000573139
-0.000580087
-0.000586923
-0.000593654
-0.000600284
-0.000606811
-0.000613261
-0.000619622
-0.000625945
-0.000632187
-0.000638417
-0.000644646
-0.000650901
-0.000657216
-0.000663613
-0.000670141
-0.000676841
-0.000683759
-0.000690945
-0.000698473
-0.00070642
-0.000714871
-0.000723927
-0.000733714
-0.000744405
-0.000756159
-0.000769204
-0.000783603
-0.000799845
-0.00081638
-0.000835955
-0.000844717
-0.000509236
-0.000452865
-0.000430815
-0.000424636
-0.000422705
-0.000425055
-0.000430149
-0.0004368
-0.000444404
-0.000452578
-0.000461034
-0.000469651
-0.000478304
-0.000486929
-0.000495494
-0.000503957
-0.000512282
-0.00052047
-0.000528484
-0.000536321
-0.00054399
-0.000551503
-0.000558849
-0.000566041
-0.000573109
-0.000580045
-0.000586858
-0.000593574
-0.000600175
-0.000606694
-0.00061313
-0.000619481
-0.000625778
-0.000632032
-0.000638239
-0.000644458
-0.000650697
-0.000657009
-0.000663397
-0.000669907
-0.000676593
-0.00068348
-0.000690649
-0.000698153
-0.000706057
-0.000714466
-0.000723471
-0.00073319
-0.000743786
-0.000755425
-0.000768296
-0.00078245
-0.000798302
-0.000814378
-0.000833037
-0.000841656
-0.000504584
-0.000454112
-0.000432625
-0.000426197
-0.000424117
-0.000426262
-0.000431146
-0.000437621
-0.000445089
-0.000453135
-0.000461512
-0.000470044
-0.000478641
-0.000487223
-0.000495753
-0.00050417
-0.000512475
-0.000520623
-0.000528619
-0.000536447
-0.000544108
-0.000551589
-0.00055892
-0.000566105
-0.000573139
-0.000580061
-0.000586861
-0.000593547
-0.000600139
-0.000606638
-0.000613045
-0.000619388
-0.000625669
-0.000631898
-0.000638111
-0.000644307
-0.000650535
-0.000656814
-0.000663194
-0.000669685
-0.000676351
-0.000683229
-0.000690369
-0.000697828
-0.000705702
-0.000714057
-0.000722996
-0.000732638
-0.000743132
-0.00075463
-0.000767315
-0.000781203
-0.000796661
-0.000812268
-0.000829985
-0.000838481
-0.000500152
-0.000455104
-0.000434281
-0.000427679
-0.000425474
-0.000427422
-0.000432107
-0.000438411
-0.000445738
-0.000453671
-0.000461962
-0.000470437
-0.000478977
-0.000487512
-0.000496006
-0.00050439
-0.000512668
-0.000520797
-0.000528777
-0.000536586
-0.000544229
-0.000551702
-0.000559019
-0.000566195
-0.000573217
-0.000580114
-0.000586901
-0.000593579
-0.000600152
-0.000606638
-0.000613027
-0.000619351
-0.000625613
-0.000631831
-0.000638011
-0.000644199
-0.000650411
-0.000656679
-0.000663021
-0.000669503
-0.00067614
-0.000682995
-0.000690099
-0.000697518
-0.000705336
-0.000713646
-0.00072251
-0.000732074
-0.000742451
-0.000753791
-0.000766272
-0.000779884
-0.000794925
-0.000810021
-0.000826838
-0.000835174
-0.000495934
-0.000455862
-0.000435774
-0.000429055
-0.000426774
-0.000428539
-0.000433034
-0.00043918
-0.000446362
-0.000454189
-0.000462387
-0.000470795
-0.000479283
-0.000487778
-0.000496227
-0.000504602
-0.000512847
-0.000520963
-0.000528931
-0.000536727
-0.00054435
-0.000551816
-0.000559127
-0.000566285
-0.000573317
-0.000580206
-0.000586986
-0.000593633
-0.000600201
-0.000606664
-0.000613052
-0.000619357
-0.000625601
-0.000631807
-0.000637974
-0.000644141
-0.000650337
-0.000656579
-0.000662904
-0.000669359
-0.000675968
-0.000682775
-0.00068985
-0.000697231
-0.000705004
-0.000713235
-0.000722027
-0.000731486
-0.000741742
-0.000752921
-0.000765177
-0.000778494
-0.000793086
-0.000807672
-0.000823602
-0.000831742
-0.000491922
-0.000456399
-0.000437141
-0.000430354
-0.000428017
-0.000429609
-0.000433914
-0.000439903
-0.000446954
-0.000454671
-0.000462794
-0.000471128
-0.000479557
-0.000488018
-0.000496433
-0.000504786
-0.000513013
-0.000521115
-0.000529057
-0.000536846
-0.000544464
-0.000551927
-0.000559233
-0.000566378
-0.000573394
-0.000580294
-0.000587056
-0.000593719
-0.000600269
-0.00060672
-0.000613098
-0.000619391
-0.000625618
-0.000631813
-0.000637969
-0.000644114
-0.000650287
-0.000656515
-0.000662824
-0.000669248
-0.000675822
-0.000682606
-0.000689634
-0.000696971
-0.000704679
-0.00071284
-0.000721544
-0.000730902
-0.00074102
-0.000752025
-0.000764028
-0.000777033
-0.00079117
-0.000805238
-0.000820271
-0.000828176
-0.000488123
-0.000456731
-0.000438373
-0.000431584
-0.000429196
-0.000430632
-0.000434771
-0.000440595
-0.000447511
-0.000455124
-0.000463163
-0.000471434
-0.000479818
-0.000488224
-0.000496616
-0.000504932
-0.000513144
-0.000521233
-0.000529169
-0.000536951
-0.000544564
-0.000552022
-0.000559326
-0.000566471
-0.000573486
-0.000580369
-0.00058713
-0.000593784
-0.000600333
-0.00060678
-0.000613144
-0.000619434
-0.000625661
-0.000631823
-0.000637973
-0.000644115
-0.000650261
-0.000656467
-0.000662758
-0.000669157
-0.00067571
-0.000682455
-0.000689439
-0.000696726
-0.00070437
-0.000712457
-0.00072108
-0.000730313
-0.000740286
-0.000751094
-0.000762859
-0.00077552
-0.000789186
-0.000802708
-0.000816876
-0.000824476
-0.000484491
-0.000456888
-0.000439474
-0.000432738
-0.000430325
-0.000431624
-0.000435588
-0.000441255
-0.000448046
-0.000455548
-0.000463498
-0.000471708
-0.000480032
-0.00048841
-0.000496773
-0.000505074
-0.000513254
-0.000521331
-0.000529254
-0.000537031
-0.000544642
-0.000552095
-0.000559388
-0.000566551
-0.000573565
-0.000580441
-0.000587204
-0.000593846
-0.000600391
-0.000606832
-0.000613187
-0.000619466
-0.000625687
-0.00063185
-0.000637976
-0.000644108
-0.000650255
-0.000656442
-0.000662707
-0.000669084
-0.000675607
-0.000682308
-0.000689258
-0.000696479
-0.000704071
-0.000712075
-0.000720601
-0.000729714
-0.000739531
-0.000750147
-0.000761639
-0.000773962
-0.000787138
-0.000800098
-0.000813398
-0.00082066
-0.000481044
-0.000456887
-0.000440471
-0.000433816
-0.000431406
-0.000432584
-0.000436385
-0.000441896
-0.000448559
-0.000455958
-0.000463816
-0.000471953
-0.000480238
-0.000488573
-0.000496897
-0.000505177
-0.000513338
-0.000521407
-0.000529324
-0.000537078
-0.000544683
-0.00055214
-0.000559445
-0.000566592
-0.000573612
-0.000580489
-0.000587252
-0.00059389
-0.000600436
-0.000606877
-0.000613221
-0.000619502
-0.000625697
-0.000631873
-0.000637989
-0.000644101
-0.00065024
-0.000656397
-0.000662649
-0.000668995
-0.000675491
-0.000682165
-0.000689067
-0.00069624
-0.000703759
-0.000711687
-0.000720099
-0.000729099
-0.000738759
-0.000749151
-0.000760364
-0.000772332
-0.000785017
-0.000797402
-0.000809858
-0.000816745
-0.000477769
-0.000456735
-0.000441356
-0.000434827
-0.000432444
-0.000433514
-0.000437165
-0.00044252
-0.000449041
-0.000456334
-0.000464109
-0.000472182
-0.00048041
-0.000488705
-0.000496999
-0.000505247
-0.000513411
-0.000521444
-0.000529355
-0.000537102
-0.000544718
-0.000552167
-0.000559465
-0.000566622
-0.000573637
-0.000580505
-0.000587268
-0.000593924
-0.000600448
-0.000606891
-0.000613236
-0.000619503
-0.000625712
-0.000631867
-0.000637973
-0.000644082
-0.000650192
-0.000656356
-0.000662581
-0.000668904
-0.000675368
-0.000682008
-0.000688857
-0.000695984
-0.000703431
-0.000711272
-0.000719592
-0.00072845
-0.000737937
-0.000748111
-0.000759042
-0.000770623
-0.000782805
-0.000794611
-0.00080626
-0.000812712
-0.000474659
-0.000456458
-0.000442126
-0.000435771
-0.00043343
-0.000434405
-0.000437908
-0.000443118
-0.000449522
-0.000456697
-0.000464387
-0.000472389
-0.000480569
-0.000488822
-0.000497087
-0.000505306
-0.000513442
-0.000521466
-0.000529369
-0.000537111
-0.000544717
-0.00055217
-0.000559464
-0.000566618
-0.000573632
-0.000580517
-0.000587277
-0.000593922
-0.000600458
-0.000606891
-0.000613233
-0.000619501
-0.0006257
-0.000631847
-0.000637957
-0.000644046
-0.000650154
-0.00065629
-0.000662501
-0.000668792
-0.000675222
-0.000681826
-0.000688628
-0.000695689
-0.000703076
-0.000710826
-0.000719025
-0.000727743
-0.000737054
-0.000747007
-0.000757634
-0.000768833
-0.00078051
-0.000791737
-0.000802564
-0.000808585
-0.000471694
-0.00045607
-0.000442806
-0.000436651
-0.000434374
-0.000435274
-0.000438634
-0.000443713
-0.000449979
-0.000457047
-0.000464651
-0.000472577
-0.000480707
-0.000488917
-0.000497159
-0.000505343
-0.000513462
-0.000521475
-0.000529366
-0.000537106
-0.000544707
-0.000552154
-0.00055945
-0.000566608
-0.000573624
-0.000580498
-0.000587265
-0.000593905
-0.000600442
-0.000606877
-0.000613222
-0.000619474
-0.00062567
-0.000631802
-0.000637905
-0.000643993
-0.000650076
-0.000656212
-0.00066239
-0.000668659
-0.000675068
-0.000681612
-0.000688368
-0.00069538
-0.000702681
-0.000710348
-0.000718432
-0.000726998
-0.000736123
-0.000745827
-0.000756154
-0.000766963
-0.000778119
-0.000788761
-0.000798793
-0.000804379
-0.000468854
-0.000455572
-0.000443379
-0.000437464
-0.000435276
-0.000436111
-0.000439346
-0.000444283
-0.000450424
-0.000457393
-0.000464901
-0.000472758
-0.000480837
-0.000488999
-0.000497202
-0.000505369
-0.000513463
-0.000521469
-0.000529335
-0.000537088
-0.000544677
-0.000552125
-0.000559419
-0.000566568
-0.00057359
-0.000580466
-0.000587234
-0.000593874
-0.000600403
-0.00060684
-0.000613174
-0.000619429
-0.000625615
-0.000631746
-0.000637833
-0.000643915
-0.000649997
-0.000656094
-0.000662261
-0.000668502
-0.000674869
-0.000681383
-0.000688078
-0.000695018
-0.000702251
-0.000709809
-0.000717771
-0.000726196
-0.000735118
-0.000744581
-0.000754574
-0.000764987
-0.000775623
-0.00078568
-0.000794942
-0.000800089
-0.000466158
-0.000454998
-0.000443876
-0.00043822
-0.000436131
-0.000436918
-0.000440044
-0.000444857
-0.000450868
-0.000457714
-0.00046515
-0.000472938
-0.00048095
-0.000489073
-0.000497232
-0.000505377
-0.000513461
-0.000521443
-0.00052931
-0.000537038
-0.000544633
-0.00055207
-0.000559366
-0.000566519
-0.000573543
-0.000580418
-0.000587182
-0.000593819
-0.00060036
-0.000606781
-0.000613118
-0.00061937
-0.000625549
-0.000631669
-0.000637757
-0.000643808
-0.000649874
-0.000655965
-0.000662093
-0.000668318
-0.000674637
-0.000681105
-0.000687756
-0.000694633
-0.000701771
-0.000709225
-0.000717053
-0.000725315
-0.000734043
-0.000743242
-0.000752918
-0.000762915
-0.000773024
-0.000782507
-0.000791008
-0.000795726
-0.000463586
-0.000454345
-0.000444272
-0.000438915
-0.000436937
-0.000437698
-0.000440715
-0.000445406
-0.000451299
-0.000458041
-0.000465382
-0.000473103
-0.000481058
-0.000489137
-0.000497266
-0.000505378
-0.000513448
-0.00052141
-0.000529258
-0.000536987
-0.000544577
-0.000552013
-0.000559309
-0.000566463
-0.000573477
-0.000580366
-0.000587118
-0.000593762
-0.000600293
-0.000606711
-0.00061305
-0.000619287
-0.000625463
-0.00063157
-0.000637639
-0.000643689
-0.000649733
-0.000655805
-0.000661917
-0.000668108
-0.000674385
-0.000680813
-0.000687399
-0.000694195
-0.000701249
-0.000708596
-0.000716288
-0.000724373
-0.00073289
-0.000741824
-0.000751152
-0.000760737
-0.000770327
-0.000779217
-0.000786978
-0.000791281
-0.000461132
-0.00045364
-0.000444607
-0.000439554
-0.000437691
-0.00043845
-0.000441378
-0.000445946
-0.000451724
-0.000458373
-0.000465617
-0.000473271
-0.000481163
-0.000489199
-0.000497299
-0.000505378
-0.000513416
-0.000521364
-0.000529207
-0.000536923
-0.000544511
-0.000551943
-0.000559238
-0.000566394
-0.000573403
-0.000580282
-0.000587052
-0.000593679
-0.000600213
-0.000606633
-0.000612951
-0.000619192
-0.000625349
-0.000631454
-0.00063752
-0.000643553
-0.000649579
-0.000655619
-0.00066171
-0.000667858
-0.000674111
-0.000680472
-0.000687003
-0.000693722
-0.000700683
-0.000707908
-0.000715461
-0.00072336
-0.000731649
-0.000740315
-0.000749298
-0.000758453
-0.000767512
-0.000775814
-0.000782862
-0.000786784
-0.000458791
-0.000452902
-0.000444861
-0.000440146
-0.000438413
-0.000439169
-0.000442015
-0.000446485
-0.000452141
-0.000458687
-0.000465847
-0.000473425
-0.000481262
-0.000489255
-0.00049732
-0.000505377
-0.000513395
-0.00052133
-0.000529159
-0.000536858
-0.000544439
-0.000551872
-0.000559162
-0.000566308
-0.000573335
-0.000580213
-0.000586969
-0.000593599
-0.000600116
-0.000606525
-0.000612852
-0.00061909
-0.000625244
-0.000631331
-0.000637385
-0.000643399
-0.000649403
-0.000655421
-0.000661474
-0.000667587
-0.000673783
-0.0006801
-0.000686563
-0.000693196
-0.000700061
-0.00070717
-0.000714574
-0.00072229
-0.000730338
-0.000738711
-0.000747346
-0.000756051
-0.000764593
-0.000772329
-0.000778656
-0.000782214
-0.000456531
-0.000452135
-0.000445071
-0.000440681
-0.000439095
-0.000439865
-0.000442645
-0.00044701
-0.000452569
-0.000459013
-0.000466084
-0.000473591
-0.000481372
-0.000489318
-0.000497341
-0.000505373
-0.000513359
-0.000521279
-0.000529102
-0.000536789
-0.000544369
-0.000551796
-0.000559075
-0.000566231
-0.000573243
-0.000580122
-0.000586879
-0.000593505
-0.000600018
-0.000606436
-0.000612743
-0.000618959
-0.000625107
-0.000631185
-0.000637215
-0.000643229
-0.000649211
-0.000655202
-0.000661226
-0.000667295
-0.000673446
-0.000679693
-0.000686097
-0.000692637
-0.000699389
-0.000706374
-0.000713606
-0.000721131
-0.000728944
-0.000737015
-0.00074528
-0.000753562
-0.000761561
-0.000768724
-0.000774362
-0.000777596
-0.000454374
-0.000451362
-0.000445211
-0.000441158
-0.000439729
-0.00044054
-0.000443253
-0.000447518
-0.000452982
-0.000459332
-0.000466332
-0.000473764
-0.000481485
-0.000489393
-0.000497366
-0.00050538
-0.000513346
-0.000521235
-0.000529043
-0.000536723
-0.000544294
-0.000551708
-0.000558999
-0.00056614
-0.000573151
-0.000580031
-0.000586784
-0.000593398
-0.000599915
-0.000606323
-0.000612627
-0.000618836
-0.000624968
-0.000631035
-0.000637046
-0.000643032
-0.000648996
-0.000654957
-0.000660947
-0.000666976
-0.000673078
-0.000679266
-0.000685574
-0.000692039
-0.000698675
-0.000705513
-0.000712588
-0.000719901
-0.000727471
-0.000735232
-0.000743128
-0.000750957
-0.000758416
-0.000765014
-0.000769978
-0.000772904
-0.000452298
-0.000450589
-0.00044532
-0.0004416
-0.000440324
-0.000441176
-0.000443842
-0.00044803
-0.000453402
-0.000459665
-0.000466577
-0.000473945
-0.000481615
-0.000489459
-0.000497408
-0.000505376
-0.000513322
-0.000521209
-0.000528993
-0.000536666
-0.000544213
-0.000551638
-0.000558918
-0.000566064
-0.000573059
-0.000579935
-0.000586689
-0.000593306
-0.000599812