/*--------------------------------*- C++ -*----------------------------------*\
  =========                 |
  \\      /  F ield         | OpenFOAM: The Open Source CFD Toolbox
   \\    /   O peration     | Website:  https://openfoam.org
    \\  /    A nd           | Version:  6
     \\/     M anipulation  |
\*---------------------------------------------------------------------------*/
FoamFile
{
    version     2.0;
    format      ascii;
    class       volScalarField;
    location    "0";
    object      p;
}
// * * * * * * * * * * * * * * * * * * * * * * * * * * * * * * * * * * * * * //

dimensions      [0 2 -2 0 0 0 0];

internalField   nonuniform List<scalar> 
918
(
0.254294
1.00257
0.00204783
0.24473
0.00291002
0.970445
-0.727444
0.336437
0.233502
-0.109682
0.0209437
0.209095
0.825736
0.599214
-1.51601
0.019706
0.340942
-0.852757
0.191449
0.0140248
0.552494
0.25591
0.245918
0.214375
0.252761
0.636206
0.699844
0.00103521
-0.000632304
-0.00024364
-0.00564218
-0.00168249
0.00597507
0.843619
0.889909
0.908743
0.198595
-0.18974
-0.532134
-0.616641
-0.575204
-0.846924
0.332413
0.343043
-0.409858
0.33349
0.345619
0.20475
0.229115
0.229427
0.24107
0.235923
0.239152
0.260975
-0.136615
-0.224926
-0.0852587
-0.0528272
0.0712166
0.0217472
0.0212675
0.0253381
0.033084
0.158595
0.203641
0.206661
0.217272
0.219069
0.928144
0.89909
0.921993
0.850299
0.866147
0.799291
0.772908
0.625664
0.630004
0.580389
0.568626
-1.9556
-2.81023
-1.00665
-0.683588
0.00246568
0.0201473
0.0307132
0.336544
0.346903
0.339614
0.352754
0.659694
-0.713771
-0.940918
0.231475
0.214978
0.236094
0.234697
0.198709
0.220629
0.00970579
0.0179968
0.00915459
0.0111793
0.00832973
0.457754
0.425747
0.181902
0.190322
0.225337
0.228017
0.225457
0.0025022
0.260295
0.28754
0.351246
0.554118
0.583712
0.598685
0.676379
0.645209
0.73323
0.755716
0.00764792
0.00515541
0.00438995
0.0122012
0.0116353
0.190377
0.18765
0.207207
0.202699
0.200884
-0.274584
-0.412872
-0.045661
0.0932899
-0.425945
-0.519051
-0.771688
-0.674518
-0.942632
0.750506
0.328775
0.344467
-0.359783
-0.31884
-0.452637
-0.286257
-0.367041
0.206166
0.201472
0.203098
0.197381
0.203088
0.20878
0.235708
0.229556
0.232424
0.283238
0.351218
0.218355
0.204564
-0.479972
-0.230041
-0.426188
-0.0291099
-0.030817
0.0845668
0.088894
0.0531039
0.0608897
-0.00470305
0.00327944
0.00711876
0.032119
0.0171003
0.153999
0.13953
0.158984
0.176121
0.20344
0.207112
0.198903
0.202412
0.721154
0.745345
0.753083
0.726428
-3.63908
-5.77826
-0.336886
-0.155925
0.00174982
0.00352676
1.93416e-05
-0.00555416
0.00571306
-0.00108645
0.0505519
0.0464281
0.0314552
0.0147973
0.323518
0.329499
0.64538
0.700181
0.59429
0.570464
0.2114
0.211513
0.214949
0.20794
0.025956
0.0196708
0.0220536
0.345409
0.381072
0.372356
-0.0315322
-0.116958
0.0444519
0.0726502
0.311251
0.300744
0.307406
0.445365
0.49726
0.764061
0.790699
0.776875
0.793199
0.839908
0.858753
0.828035
0.177884
0.182624
0.176555
0.21592
0.201173
0.210562
0.206866
0.204593
0.207757
-0.478568
-0.70325
0.607027
0.504439
0.248043
0.411402
0.731308
0.773667
0.342736
0.342782
0.351022
-0.247099
-0.300798
0.177631
0.137254
0.101937
0.126112
0.112218
0.690842
0.658251
0.698323
0.672637
0.649871
0.672006
-0.604777
-1.99719
-1.10258
0.284846
0.0416959
0.139157
0.0608839
0.0364592
0.0414688
0.684192
0.736439
0.386458
0.469318
0.466704
0.569505
0.578756
0.600219
0.565157
0.583881
0.602424
0.60224
0.714906
0.646434
0.708991
0.74011
0.752121
-0.141995
-0.196187
-0.227534
0.0953319
0.130394
0.117371
0.718112
0.725176
0.758612
0.180218
0.209431
0.0119526
0.0236838
0.235116
0.220453
0.00603151
0.0147069
0.110411
-1.42484
-0.0830304
0.213341
0.206418
0.225132
-0.0792697
0.249435
0.0231085
0.079437
0.0666941
0.198758
0.165023
0.134261
0.0112565
0.0122347
0.00861421
-0.324053
0.20268
0.198929
0.225446
0.224002
0.232482
0.0109263
0.0108539
0.00774654
0.000752845
0.0164519
0.0137347
0.192783
0.199366
-0.238755
0.215504
0.221056
0.224891
0.213739
0.22714
0.23504
0.0123721
0.0109849
-0.00268461
-0.0355084
0.0759793
0.476912
0.644273
0.347846
0.0556133
-0.247284
0.341184
0.418177
0.271475
0.492021
0.304227
0.309613
-0.0112176
-0.117825
-0.0690149
-0.109462
0.208515
0.208147
0.196586
0.207765
0.205979
0.221751
0.201706
0.21607
0.209906
0.204461
-0.0361633
-0.0629773
-0.0998717
-0.136197
0.283321
0.350701
0.190273
0.20709
0.115914
0.0282407
0.0266625
0.0227292
0.00979488
0.0583175
0.06153
0.060858
0.0505478
0.0354682
0.0357145
0.0562263
0.0494392
0.0557121
0.200987
0.198374
0.198685
0.214046
0.172925
0.175872
0.150532
0.161161
0.153769
0.117407
0.121336
0.118293
0.00932585
0.00534738
0.00677877
0.0142133
0.0238775
0.0253163
0.0172453
-0.0054818
0.00363872
0.0135212
0.0210009
0.0204964
-0.260175
-0.386124
0.607679
0.530433
0.321453
0.217772
0.218177
0.205587
0.192041
0.215897
0.232408
0.225528
0.204634
0.204248
0.202044
0.202649
0.206286
-0.115001
-0.275787
-0.0767742
-0.185353
-0.173811
0.289406
0.0611202
0.0728306
0.0237174
0.206298
0.39793
0.465087
0.626039
0.577508
-1.01255
-0.502665
-0.861847
-0.338393
-0.693893
0.470685
0.518956
0.512187
0.478482
0.435949
-0.346506
-0.0420498
-0.172578
-0.106369
0.00529517
-0.0443209
0.348255
0.306848
0.323978
0.292061
0.318673
0.290002
0.263475
0.269832
0.297497
0.312295
0.149106
-0.037686
-0.0284467
-0.0925638
0.323926
0.194267
0.226924
0.191872
0.211056
0.208801
0.213223
0.208418
0.207629
0.209471
0.202642
0.205352
0.214986
0.208552
0.20773
0.209722
-0.0294863
-0.0159243
-0.0534453
-0.213551
-0.179596
-0.275737
-0.0999467
0.111259
0.0604084
0.26668
0.360741
0.0690044
-0.101489
-0.0568166
0.00560735
0.126702
0.0997123
0.102485
0.129392
0.166844
0.132201
0.195049
0.175665
0.0326701
0.0511055
0.0288584
0.0210751
0.0844637
0.0948503
0.0957223
0.0403708
0.0532375
0.032118
0.0443638
0.0665196
0.0475315
0.0629631
0.0684747
0.0166488
0.0168245
0.0315022
0.0329489
0.047903
0.0241464
0.196877
0.202522
0.205265
0.20037
0.210035
0.229492
0.195557
0.184546
0.181659
0.182698
0.160998
0.175259
0.169119
0.184294
0.185847
0.197735
0.197919
0.201589
0.192485
0.182427
0.187541
0.19224
0.146144
0.128005
0.136519
0.0233955
0.00863632
0.0177999
0.0249522
0.0101732
0.0122019
0.0480994
0.0367394
0.0558502
0.0263186
0.0496416
0.0190444
0.0273519
-0.0956312
0.025164
-0.233013
-0.305564
-0.342329
0.598544
0.654329
0.518535
0.44392
0.458169
0.540655
0.571724
0.359075
0.454704
0.414956
0.667232
0.684652
0.178437
0.182246
0.204722
0.19728
0.19481
0.0432289
0.184445
0.118352
0.204726
0.0827175
0.0392119
0.445935
0.43795
0.492761
0.450228
0.277454
0.296207
0.243872
0.276525
0.288599
0.131007
0.197524
0.245389
0.19172
0.228105
0.247308
0.210418
0.234688
0.211056
0.189685
0.181365
0.121459
0.151424
0.135252
0.130489
0.185075
0.180113
0.178202
0.173707
0.196778
0.231969
0.215592
0.225465
0.238445
0.174907
0.151699
0.157764
0.173578
0.147832
0.140204
0.156089
0.451395
0.455307
0.162674
-0.421843
-0.342739
-0.331754
-0.44703
-0.300924
-0.0538327
-0.753824
-0.612708
-1.15789
-0.208214
0.298908
0.274418
0.352894
0.307897
0.258951
0.2391
0.325688
0.342711
0.309484
0.310353
0.322121
0.21088
0.245951
0.238459
0.256952
0.073749
0.193012
0.182568
0.150102
0.0563431
0.0652911
0.156784
0.146871
0.1077
0.0851884
0.152015
0.0433826
0.0916984
0.161722
0.16822
0.0999881
0.219154
0.28742
0.271458
0.248261
0.181765
0.192504
0.2055
0.240339
0.250728
0.268181
0.194409
0.206786
0.208805
0.201517
0.19884
0.203137
0.201265
0.207006
0.208449
0.222367
0.218209
0.014942
0.0257841
-0.00424301
0.000704343
0.0584218
0.0151726
0.00992515
-0.000238726
0.0361279
0.0389957
0.0306122
-0.00360868
0.00275645
0.0251242
0.166777
0.172861
0.178681
0.119788
0.215361
0.327919
0.368706
0.311063
0.199896
0.234925
0.283193
0.0639971
0.0776102
0.0667532
0.0870354
0.0841619
0.0318489
0.0236835
0.0243437
0.0360864
0.0281542
0.0276502
0.0239369
0.0255762
0.0262745
0.0373693
0.0306884
0.188455
0.17547
0.144219
0.146422
0.149444
0.170479
0.187625
0.188589
0.198299
0.197599
0.189338
0.197019
0.200431
0.0267162
0.0266571
0.0153633
0.0225672
0.0351354
0.0409719
0.0312488
0.289067
0.132885
0.249486
0.0711287
-0.154585
-0.0632485
0.533264
0.618074
0.630534
0.650481
0.577802
0.576551
0.634693
0.683551
0.419359
0.535535
0.476062
0.636304
0.636989
0.668817
0.550295
0.291892
-0.134476
-0.0288451
0.334203
0.0523517
0.173937
0.0871186
0.0697499
0.183617
0.168391
0.257229
0.32914
0.392077
0.393904
0.284426
0.376442
0.205371
0.294834
0.364898
0.424025
0.342691
0.278056
0.297057
0.319563
0.287158
0.315093
0.250583
0.251757
0.252999
0.267627
0.253254
-0.97939
-0.932816
-1.76028
-1.42245
-1.12819
-0.547991
-0.349653
-0.22918
-0.108163
0.109202
0.153471
0.18648
0.165318
0.0880675
0.147218
0.111594
0.180284
0.173578
0.152909
0.100314
0.0167656
0.25617
0.250547
0.272346
0.291812
0.278343
0.292332
0.185629
0.191609
0.193394
0.192562
0.176646
0.172991
0.105269
0.0895269
0.116195
0.0835643
0.044899
0.0684267
0.0404845
0.0309149
0.0189432
0.0238229
0.0305753
0.037445
0.305594
0.329213
0.136235
0.246034
0.0218807
-0.0597937
-0.102067
0.0890365
0.184231
0.200724
0.45484
0.552063
0.499471
0.515008
0.407303
0.438913
0.567207
0.421564
0.52498
0.456275
0.532614
-0.792259
-0.876369
-0.929571
-0.303721
-0.532204
-0.75283
-0.875547
-0.935064
-0.714464
0.108276
0.13399
0.135183
0.115466
0.130394
-0.55615
-0.333579
-0.534369
-0.22823
0.299672
-0.0870561
0.122974
-0.0648489
0.151358
)
;

boundaryField
{
    wall-4
    {
        type            zeroGradient;
    }
    velocity-inlet-5
    {
        type            zeroGradient;
    }
    velocity-inlet-6
    {
        type            zeroGradient;
    }
    pressure-outlet-7
    {
        type            fixedValue;
        value           uniform 0;
    }
    wall-8
    {
        type            zeroGradient;
    }
    frontAndBackPlanes
    {
        type            empty;
    }
}

