/*--------------------------------*- C++ -*----------------------------------*\
  =========                 |
  \\      /  F ield         | OpenFOAM: The Open Source CFD Toolbox
   \\    /   O peration     | Website:  https://openfoam.org
    \\  /    A nd           | Version:  6
     \\/     M anipulation  |
\*---------------------------------------------------------------------------*/
FoamFile
{
    version     2.0;
    format      ascii;
    class       volScalarField;
    location    "0";
    object      p;
}
// * * * * * * * * * * * * * * * * * * * * * * * * * * * * * * * * * * * * * //

dimensions      [0 2 -2 0 0 0 0];

internalField   nonuniform List<scalar> 
918
(
0.184736
0.957184
0.00624691
0.18403
0.000931484
0.926026
-0.85188
0.370777
0.162722
-0.154386
0.0182232
0.156739
0.777039
0.541032
-1.52935
0.0152088
0.323758
-0.700794
0.161881
0.00548312
0.442988
0.169248
0.172503
0.164622
0.217975
0.516859
0.649756
0.00147336
-0.00389174
-0.0015703
0.00334377
0.000680556
0.00521814
0.799088
0.845384
0.864058
0.134734
-0.0322807
-0.718234
-0.789441
-0.764981
-0.875446
0.359077
0.360943
-0.529712
0.371388
0.383527
0.150831
0.161967
0.162733
0.164474
0.1632
0.164518
0.278676
-0.193214
-0.270695
-0.0878512
-0.0639164
0.0709488
0.0187147
0.00823981
0.0226196
0.0241729
0.093046
0.152025
0.14817
0.162951
0.172148
0.882667
0.854722
0.877465
0.802247
0.819626
0.751276
0.72329
0.562404
0.585826
0.526088
0.513179
-1.99994
-2.97297
-0.935096
-0.651578
0.00196057
0.0209907
0.0252527
0.309847
0.311901
0.318564
0.331248
0.793606
-0.680526
-0.784325
0.160712
0.159847
0.168044
0.169747
0.166078
0.165645
0.0138251
0.0231728
0.000283958
0.00568751
0.00587383
0.4175
0.41558
0.164149
0.161563
0.180392
0.203236
0.194197
-0.0708428
0.232451
0.251189
0.343349
0.507817
0.503076
0.512511
0.624275
0.592026
0.680754
0.705537
0.00609787
0.00169432
0.0109123
0.00831562
0.0103537
0.129392
0.123695
0.142506
0.135818
0.136895
-0.120832
-0.261779
0.0371059
0.0592066
-0.64464
-0.697133
-0.752183
-0.798144
-0.86382
0.147485
0.347501
0.351814
-0.541321
-0.464953
-0.602953
-0.403239
-0.46947
0.140018
0.148253
0.144438
0.158363
0.152899
0.15463
0.165783
0.163063
0.164625
0.300348
0.364653
0.234355
0.210948
-0.509414
-0.342672
-0.459707
-0.0335948
-0.0274661
0.0840102
0.0931705
0.060399
0.0588755
0.00210395
0.0108467
0.00764915
0.0239474
0.0263763
0.0873708
0.0760723
0.100513
0.107335
0.144003
0.143533
0.146054
0.147007
0.670932
0.694542
0.702378
0.67871
-3.97248
-6.68079
-0.29369
-0.128818
0.00207706
0.00322542
0.0013178
0.00319585
0.00394492
0.00132435
0.0385114
0.0386137
0.0292099
0.0348528
0.296774
0.299994
0.771443
0.776467
0.722297
0.673891
0.149586
0.151576
0.157282
0.153605
0.0262692
0.0250125
0.0278955
0.382563
0.399784
0.397812
-0.106038
-0.194923
-0.0224295
0.00522733
0.288101
0.266468
0.290757
0.408257
0.448723
0.719002
0.743031
0.730727
0.746741
0.794985
0.815042
0.779762
0.112669
0.121787
0.116851
0.14879
0.145699
0.146549
0.143934
0.143529
0.142005
-0.392659
-0.761312
0.116402
0.113152
0.088097
0.0937424
0.226106
0.302244
0.326046
0.336981
0.335892
-0.352429
-0.404911
0.175682
0.161507
0.0302574
0.0619279
0.0459264
0.647728
0.609609
0.657317
0.633047
0.595806
0.619706
-0.692471
-2.47098
-1.42111
0.280624
0.0743073
0.171861
0.0532252
0.041175
0.0469231
0.725045
0.721292
0.41627
0.557506
0.523666
0.476732
0.505231
0.566489
0.494828
0.531416
0.566268
0.542334
0.112714
0.123602
0.105848
0.373511
0.43972
-0.229127
-0.292362
-0.330365
0.101994
0.136776
0.123746
0.660475
0.519619
0.615394
0.162275
0.161964
0.0116722
0.0207183
0.164652
0.164788
0.00644757
0.00841388
0.175752
-1.3034
-0.212136
0.155263
0.145793
0.160672
-0.161857
0.294624
0.0172521
0.078031
0.0568946
0.152984
0.102305
0.0654705
0.00750163
0.0200966
0.016616
-0.473986
0.159525
0.157144
0.160198
0.161389
0.162239
0.00914692
0.0108964
0.0071084
0.0134444
0.0112706
0.0102955
0.130598
0.141605
-0.501018
0.160377
0.162403
0.162088
0.156825
0.160879
0.158966
0.0149191
0.0106127
0.00951999
-0.124531
0.00204675
0.393323
0.49809
0.321913
0.140319
-0.149932
0.313024
0.374534
0.284065
0.437869
0.328448
0.347733
-0.159343
-0.301571
-0.150379
-0.211879
0.152627
0.150998
0.142937
0.13997
0.155564
0.153504
0.158249
0.156118
0.158813
0.159808
-0.0933334
-0.069558
-0.219222
-0.296531
0.312175
0.398282
0.192685
0.227266
0.128678
0.0218746
0.0214389
0.0165991
0.0157401
0.050079
0.0608952
0.0737506
0.0588827
0.0478416
0.0448519
0.0523013
0.0583685
0.0624599
0.148086
0.146655
0.151245
0.159278
0.110435
0.112843
0.0841433
0.100805
0.0920451
0.0377095
0.0660488
0.0437599
0.00810631
0.00862497
0.00698975
0.0240753
0.0263106
0.0150315
0.0126528
0.0139137
0.0110698
0.0117084
0.0202829
0.0225801
-0.511202
-0.579545
0.654055
0.592382
-0.627222
0.149244
0.15303
0.150976
0.155359
0.158093
0.158468
0.156703
0.154307
0.142862
0.14525
0.139933
0.141293
-0.453585
-0.58748
-0.404924
-0.480921
-0.20681
0.271435
0.0105624
-0.0435242
-0.0525783
0.159971
0.353007
0.308108
0.43222
0.425398
-0.744285
-0.317316
-0.663023
-0.115057
-0.14692
0.413685
0.459936
0.478962
0.433171
0.383295
-0.395722
0.155976
-0.385754
-0.361832
-0.190546
-0.264027
0.373811
0.310417
0.319126
0.335474
0.361843
0.319708
0.306513
0.302599
0.32996
0.336692
0.139072
-0.0818185
-0.125577
-0.165672
0.29432
0.178411
0.231129
0.142947
0.146864
0.149975
0.149549
0.135684
0.137792
0.134747
0.140358
0.143308
0.150846
0.151587
0.147313
0.148947
-0.0401735
-0.0219292
-0.19449
-0.445088
-0.320719
-0.412868
-0.300163
-0.0886839
-0.000768058
-0.364703
0.0583053
-0.291013
-0.558774
-0.410117
-0.653069
-0.264827
-0.445982
0.0828768
0.141426
0.149603
0.135988
0.189459
0.173157
0.0353793
0.042468
0.0261443
0.0258873
0.0790286
0.0997685
0.099986
0.044267
0.0487592
0.0244669
0.0248059
0.0554006
0.0357938
0.0453182
0.0544779
0.0195651
0.0232822
0.0275525
0.0336948
0.0368705
0.038001
0.14143
0.144219
0.141531
0.155583
0.164089
0.177666
0.152086
0.128601
0.118438
0.122906
0.102145
0.107241
0.107515
0.116109
0.133287
0.139668
0.138317
0.139607
0.126999
0.128322
0.113952
0.118687
0.10136
0.0844983
0.0736163
0.0173874
0.011553
0.0151434
0.014467
0.010458
0.0119929
0.0402068
0.0310004
0.0342057
0.0305649
0.0378548
0.0174329
0.0183963
-0.607457
-0.681274
-0.553643
-0.574828
-0.621332
0.558638
0.622641
0.48772
0.264631
0.239453
0.452127
0.622861
0.367496
0.44661
0.474487
0.0998131
0.370142
0.153496
0.153196
0.150629
0.150077
0.151182
-0.372815
-0.275303
-0.253856
-0.211438
-0.0915677
0.0103021
0.000573204
-0.16958
-0.030327
0.0312717
0.270402
0.283004
0.226096
0.248086
0.24651
0.0792588
0.157253
0.197555
0.156019
0.205951
0.233428
0.188747
0.221736
0.162331
0.123982
0.120889
0.0648846
0.0945717
0.0762761
0.0541132
0.142915
0.124196
0.133113
0.124957
0.143381
0.175605
0.169585
0.188814
0.206254
0.132821
0.0888182
0.103171
0.13078
0.087898
0.101143
0.118075
-0.194575
-0.274919
-0.182983
-0.5012
-0.358839
-0.342633
-0.376959
-0.4494
-0.150971
-0.788698
-0.711947
-1.38994
0.0918457
0.499472
0.333578
0.344623
0.359275
0.334761
0.338852
0.364937
0.375644
0.2855
0.302741
0.305441
0.2598
0.292766
0.306221
0.308931
0.121224
0.0525648
0.0336313
-0.00551111
-0.141711
-0.11255
0.0711453
0.0116288
-0.0580696
-0.0564817
0.11453
0.00478639
0.0671888
0.106454
0.0554907
-0.00588287
0.199313
0.257256
0.245968
0.215728
0.132082
0.150593
0.168097
0.204637
0.234246
0.26911
0.140573
0.144246
0.146129
0.144262
0.139758
0.14337
0.14427
0.145182
0.145881
0.148299
0.147072
0.0141431
0.0134182
-0.00329939
0.00877056
-0.0408923
-0.0685123
-0.025133
-0.0825256
0.0227375
0.0164824
-0.0225037
-0.0192373
-0.00681535
0.00403023
0.0889092
0.0985506
0.0732134
0.0378411
-0.0495859
0.226019
0.209132
0.0786826
-0.00945893
0.0769477
0.186689
0.0651111
0.0734802
0.0668329
0.0792491
0.074247
0.032658
0.0279493
0.031241
0.0411994
0.0366744
0.0276745
0.0232609
0.0243867
0.0267409
0.0268437
0.0269272
0.127576
0.1216
0.125108
0.118916
0.117937
0.130658
0.133782
0.134889
0.139079
0.141085
0.133402
0.137334
0.140615
0.0273363
0.0215685
0.0233011
0.0228323
0.0222004
0.0195332
0.0203134
-0.276922
-0.662629
-0.663131
-0.515911
-0.540977
-0.520592
0.144113
0.0581506
0.114471
0.242561
0.140869
0.0335454
0.0845919
0.194136
-0.0970776
0.0829748
-0.0777217
0.467774
0.335408
0.477007
0.136345
-0.135084
-0.00801456
0.0183831
-0.13573
-0.0494796
-0.0317921
-0.154265
-0.121803
-0.0949815
-0.0189716
-0.124984
-0.156691
-0.359064
-0.169329
-0.0911839
-0.104295
0.0205335
0.0724276
-0.0654518
-0.188767
-0.243023
0.253297
0.273992
0.288705
0.261191
0.281518
0.211507
0.200948
0.219291
0.229123
0.22376
-1.0392
-0.654518
-1.81492
-1.22373
-0.764493
0.119699
0.0952369
0.348926
0.263245
0.339834
0.32733
0.275233
0.24067
0.25439
0.289683
-0.00346199
0.10106
0.0628639
0.0860395
0.0170435
-0.0570828
0.21726
0.222446
0.247742
0.274604
0.249082
0.277854
0.136904
0.137065
0.139158
0.13712
0.132694
0.134543
0.0595231
0.0484212
0.0291068
0.0182497
0.0201563
0.0245489
0.0313144
0.0287144
0.0252101
0.0249063
0.0282934
0.0330322
-0.179609
-0.28233
-0.434445
-0.337636
-0.378708
-0.478789
-0.476868
-0.392793
-0.264367
-0.286398
-0.0899894
0.2316
0.040522
0.224529
-0.17984
0.0560058
0.117893
0.0802736
0.110468
0.0167057
0.117499
-0.367293
-0.568016
-0.605942
0.412107
0.371101
0.163541
-0.0963924
-0.195946
0.099384
0.153855
0.119536
0.155864
0.20702
0.201526
-0.397901
-0.326796
-0.225154
0.0676958
-0.169682
-0.170771
-0.18523
-0.0158965
-0.0600954
)
;

boundaryField
{
    wall-4
    {
        type            zeroGradient;
    }
    velocity-inlet-5
    {
        type            zeroGradient;
    }
    velocity-inlet-6
    {
        type            zeroGradient;
    }
    pressure-outlet-7
    {
        type            fixedValue;
        value           uniform 0;
    }
    wall-8
    {
        type            zeroGradient;
    }
    frontAndBackPlanes
    {
        type            empty;
    }
}

