/*--------------------------------*- C++ -*----------------------------------*\
  =========                 |
  \\      /  F ield         | OpenFOAM: The Open Source CFD Toolbox
   \\    /   O peration     | Website:  https://openfoam.org
    \\  /    A nd           | Version:  6
     \\/     M anipulation  |
\*---------------------------------------------------------------------------*/
FoamFile
{
    version     2.0;
    format      ascii;
    class       volScalarField;
    location    "0";
    object      p;
}
// * * * * * * * * * * * * * * * * * * * * * * * * * * * * * * * * * * * * * //

dimensions      [0 2 -2 0 0 0 0];

internalField   nonuniform List<scalar> 
13046
(
0.298509
0.27051
0.306827
0.303576
0.307358
0.274057
0.291204
0.276526
0.310595
0.182427
0.0257872
0.281101
0.296403
0.238331
0.302266
0.212919
0.279794
0.0551562
0.315154
0.296519
0.291022
0.208262
0.282211
0.0507973
0.300129
0.290682
0.301547
0.287582
0.24134
0.303214
0.306554
0.252799
0.299984
0.30596
0.307557
0.286943
0.303201
0.309719
0.293919
0.303177
0.292811
0.256201
0.298195
0.312366
0.302317
0.301404
0.303884
0.299632
0.291585
0.267746
0.30778
0.262095
0.301943
0.232636
0.268682
0.225568
0.304222
0.141848
0.269881
0.282117
0.262034
0.215689
0.300991
0.287105
0.110704
0.229845
0.275526
0.149989
0.277893
0.282033
0.15989
0.278127
0.12423
0.26395
0.282064
0.314832
0.305884
0.281361
0.285402
0.249688
0.114363
0.29721
0.28525
0.301339
0.284613
0.0925183
0.217749
0.212299
0.290422
0.126786
0.288217
0.184125
0.125191
0.268614
0.259866
0.188313
0.177297
0.293669
0.295878
0.292253
0.210481
0.137849
0.302959
0.307619
0.294023
0.310169
0.24371
0.27312
0.301855
0.283501
0.247355
0.133028
0.277237
-0.0467158
0.298129
0.251476
0.299569
0.262619
0.268252
0.160968
0.29011
0.181551
0.290711
0.172893
0.00640943
0.279939
0.285768
0.202701
0.301994
0.30197
0.293403
0.252878
0.289014
0.190486
0.146095
0.24675
0.155221
0.293089
0.303569
0.244661
0.297232
0.274669
0.267348
0.304371
0.298932
0.272298
0.250675
0.309056
0.25622
0.281824
0.26205
0.199231
0.299866
0.315823
0.271305
0.280533
0.243565
0.229014
0.232872
0.228186
0.302014
0.301834
0.274376
0.249937
0.30439
0.176338
0.282143
0.0310739
0.150985
0.277993
-0.0291744
0.243794
0.14153
0.291856
0.303326
0.221175
0.290087
0.274868
0.304869
0.25839
0.285352
0.0590354
0.180655
0.303033
0.233984
0.284719
0.314242
0.262845
0.275096
0.27965
0.268841
0.303802
0.230606
0.30707
0.286695
0.218497
0.299103
0.210725
0.287415
0.101429
0.292104
0.205906
0.150299
0.18812
0.116766
0.287445
0.255114
0.214187
0.29608
0.286563
0.25246
0.280428
0.115632
0.0956431
0.187315
0.287251
0.298662
0.310348
0.292843
0.291371
0.247308
0.300632
0.292526
0.197449
0.155707
0.28228
0.237996
0.309402
0.280507
-0.00376281
0.150238
0.296373
0.215385
0.247545
0.198468
0.134016
0.290219
0.245318
0.243614
0.306474
0.280753
0.208461
0.302071
0.186902
0.202121
0.290803
0.220673
0.220964
0.297254
0.280464
-0.00491549
0.139135
0.306621
0.287705
0.23428
0.149583
0.275484
-0.0748499
0.310515
0.296813
0.290193
0.25651
0.254294
0.238528
0.248075
0.307668
0.301396
0.278472
0.243563
0.0962922
0.28725
0.218054
0.296345
0.220517
0.201551
0.297784
0.25191
0.158094
0.291265
0.302169
0.29602
0.311562
0.239676
0.231058
0.302772
0.289608
0.205784
0.295346
0.284116
0.283849
0.308274
0.281078
0.222088
0.239837
0.217745
0.300983
0.240235
0.289957
0.149019
0.311819
0.282772
0.245626
0.302213
0.218863
0.236622
0.271665
0.170709
0.286602
0.303188
0.266335
0.226932
0.263268
0.26061
0.159902
0.285944
0.15356
0.289082
0.284769
0.0694896
0.189387
0.271806
0.193817
0.293145
-0.103987
0.276063
0.106864
0.288662
0.308605
0.27482
0.26968
0.2261
0.301404
0.289684
0.219844
0.120175
0.262833
0.21702
0.302265
0.172281
0.201438
0.291499
0.25867
0.305033
0.264557
0.218713
0.300627
0.250164
0.308444
0.225427
0.280897
0.0728699
0.262253
0.200878
0.298118
0.258872
0.208868
0.296944
0.267963
0.259073
0.308157
0.245569
0.263683
0.306149
0.300429
0.267839
0.307105
0.297538
0.222405
0.242977
0.200178
0.105994
0.287628
0.177197
0.20054
0.293589
0.28301
0.275225
0.183513
0.257062
0.261946
0.146356
0.130212
0.279993
0.282938
0.275989
-0.0911831
0.120655
0.158486
0.276009
-0.0631799
0.253621
0.230349
0.298227
0.285853
0.20779
0.0841958
0.276835
0.275904
0.178294
0.166743
0.287435
0.284723
0.283269
0.0707187
0.161972
0.141278
0.274699
-0.0916825
0.287837
0.311588
0.303656
0.135075
-0.0677495
0.276754
0.300269
0.218286
0.286632
0.183595
0.0681403
0.285895
-0.0873599
0.277541
0.0721843
0.304944
0.290963
0.265384
0.290136
0.297309
0.308005
0.176274
0.280274
-0.00101826
0.284751
0.28966
0.307931
0.292227
0.310396
0.305983
0.300461
0.204697
0.248839
0.278717
0.30196
0.310059
0.290543
0.276465
0.308417
0.287299
0.191092
0.273713
0.281965
0.284044
0.049669
0.047372
0.198131
0.194676
0.186143
0.0961589
0.286274
0.281475
0.282714
0.165967
0.301306
0.281759
0.242408
0.21447
0.215537
0.29301
-0.0369381
0.27817
0.0917029
0.287828
0.181656
0.111815
0.156898
0.279291
-0.0105679
0.277705
-0.103324
0.0710051
-0.132296
0.276454
0.0940823
0.201524
0.240586
0.295975
0.0288085
0.280808
0.131689
0.235897
0.152901
0.293333
0.202976
0.275133
0.0129624
0.291929
0.303188
0.269122
0.0857087
0.285101
0.170795
0.215929
0.294026
0.222785
0.195577
0.22141
0.298692
0.278151
-0.178854
0.0381266
-0.0806392
0.276746
0.0927005
0.296746
0.307886
0.269578
0.0626932
0.159884
0.28364
0.283183
0.146522
0.0596443
0.206237
0.284716
0.0837764
0.281089
0.1007
0.235987
0.293191
0.186394
0.275535
0.150461
0.2695
0.287521
0.279637
0.230693
0.0633135
0.294931
0.292243
0.224893
0.212826
0.293609
0.296398
0.297686
0.229292
0.292024
0.283239
0.171735
0.288617
0.185709
0.210645
0.294721
0.0890369
0.18626
0.287857
0.292892
0.21569
0.167217
-0.131799
0.276104
0.10712
0.309026
0.305907
0.300515
0.258727
0.304412
0.264163
0.293605
0.287657
0.285167
0.18863
0.286252
0.210742
-0.0806506
0.27732
0.0731425
0.0698811
0.168052
0.284876
0.29819
0.271182
0.223456
0.199569
0.206691
0.293542
0.281287
0.109123
0.242512
-0.0426503
0.121674
0.27859
-0.0227561
0.126409
0.279188
0.276994
0.17554
0.291256
0.312927
0.277692
0.254457
0.201342
0.283279
0.0635588
0.193941
0.229662
0.298074
0.290221
0.12476
0.238056
0.290211
0.286562
0.214087
0.249365
0.25012
0.304389
0.305114
0.288586
0.249099
0.28324
0.0558277
0.190306
0.25341
0.151077
0.289462
0.308542
0.295606
0.266074
0.220192
0.276849
0.0442941
0.29537
0.249031
0.300073
0.281736
0.26772
0.310946
0.205823
0.230376
0.297798
0.175648
0.275704
-0.0324396
0.184292
0.27536
-0.0242031
0.2885
0.117985
0.238904
0.238955
0.25531
0.300963
0.273844
-0.0564618
0.161052
0.291032
0.13481
0.228688
0.277306
-0.119974
0.0564714
0.0820156
-0.145594
0.275491
0.282057
0.0741528
0.231939
0.28215
0.0226632
0.165057
0.214239
0.22039
0.281052
0.0637853
0.283517
0.0843866
0.220436
0.142542
0.291788
0.297912
0.210342
0.200048
0.310185
0.302323
0.268042
0.22458
0.159685
0.294742
0.295434
0.227429
0.169375
0.238466
0.279288
0.0728922
0.291035
0.177883
0.285288
0.295116
0.209873
0.282984
0.243948
0.195891
0.29872
0.239571
0.190089
0.298443
0.310102
0.289758
0.274905
0.291977
0.203903
0.298792
0.285816
0.0921061
0.164353
0.117003
0.279548
-0.0189395
0.105076
0.279495
-0.0173194
0.301712
0.293384
0.242216
-0.0574256
0.277995
0.104277
0.247856
0.288508
0.12975
0.277778
-0.0517569
0.0882639
0.302551
0.308929
0.281066
0.281154
0.227983
0.301399
0.257745
0.238364
0.302936
0.282129
0.0391441
0.143706
0.191181
0.231163
0.297888
0.276827
0.212928
0.0355016
0.271143
0.219155
0.302133
0.311097
0.305535
0.272572
0.040013
0.153442
0.282816
0.290064
0.122392
0.228936
0.171069
0.160617
0.277139
0.276875
-0.0220415
-0.0381142
0.26452
0.245578
0.306758
0.210985
0.246281
0.296641
0.284093
0.274035
0.311969
0.00480913
0.128535
0.0102103
0.28055
0.127328
0.280403
0.259523
0.184511
0.299137
0.153888
0.142143
0.0289751
0.0126521
0.282556
0.281173
0.242057
0.223984
0.304526
0.275715
0.241577
0.303258
0.194235
0.277104
0.00281426
0.275137
0.232991
0.305081
0.285995
0.258351
0.307253
0.175254
0.275628
-0.0163914
0.276909
0.197807
0.295427
0.234435
0.203408
0.295542
0.293866
0.200217
0.282377
0.158099
0.288977
0.18793
0.277312
-0.159267
0.0523675
0.268777
0.22809
0.301738
0.201439
0.278708
0.0297869
0.26947
0.192591
0.295256
0.108207
0.274033
-0.112367
0.310525
0.306555
0.277074
0.266065
0.277947
0.262381
0.287618
0.273929
0.310904
0.305637
0.310119
0.285766
0.268637
0.295381
0.264879
0.273636
0.248282
0.30936
0.277364
0.250782
0.309113
0.279553
-0.00659621
0.109043
0.300221
0.239255
0.28986
0.165793
0.0371045
0.282963
0.244257
0.238645
0.18212
0.165436
0.295392
0.293025
0.296201
0.254926
0.295117
0.282405
0.189162
0.286133
0.257002
0.202125
0.301148
0.308195
0.288097
0.300438
0.233435
0.169179
0.295569
0.30717
0.295554
0.273612
0.252399
0.219708
0.303682
0.280724
0.200431
0.286784
0.30708
0.308174
0.28188
0.305891
0.283191
0.301494
0.309152
0.28487
0.312308
0.27904
0.302165
0.269811
0.295499
0.293616
0.233129
0.229319
0.297997
0.29448
0.282624
0.105929
0.240644
0.295743
0.21199
0.241725
0.284757
0.285569
0.0911816
0.0978306
0.231193
0.228707
0.300288
0.271215
0.218128
0.306542
0.305218
0.295352
0.233552
0.157207
0.294207
0.307296
0.296254
0.249905
0.278312
0.194181
0.287977
0.254807
0.255559
0.124502
0.286294
0.133179
0.28697
0.251275
0.175505
0.294802
0.120094
-0.0957092
0.274699
0.264932
0.203523
0.295279
0.292345
0.294481
0.272121
0.196269
0.280667
0.204978
0.220232
0.178829
0.295286
0.283867
0.199662
0.288453
0.301498
0.269543
0.212203
0.292495
0.298507
0.27687
0.290541
0.224493
0.218117
0.292272
0.283158
0.210215
0.251251
0.184836
0.297549
0.308404
0.295954
0.277944
0.185823
0.278797
0.0106413
0.300322
0.272462
0.203474
0.282665
0.276118
0.194246
0.185552
0.288033
0.293371
0.279152
0.0293571
0.196369
0.195334
0.278272
0.0113878
0.185778
0.277317
0.000287567
0.248437
0.286417
0.123598
0.286945
0.211279
0.290699
0.0709054
0.111846
0.232527
0.0749344
0.191684
-0.0196689
0.150683
0.102058
0.0333452
0.181667
0.17873
0.0146988
0.0668907
0.181912
0.0894721
0.0661989
0.0798919
0.0888042
0.106741
0.153039
0.10908
0.0843748
0.191318
0.274087
0.241791
0.117326
0.202501
0.0173813
0.126119
0.0595817
0.0258464
0.145104
0.111084
0.0972235
0.0397047
0.121244
0.226431
0.189442
0.0860806
0.141911
0.0755669
0.274347
0.0527572
0.179978
0.211455
0.0737696
0.0800553
0.063312
0.0176522
0.0530704
0.244054
0.107739
0.068748
0.0788888
0.0259902
0.238766
0.156054
0.114458
0.0648242
0.174628
0.0508299
0.0568841
0.242433
0.111744
0.113977
0.157934
0.121022
0.266969
0.190557
0.190658
0.003593
0.0274149
0.0825781
0.165583
0.0184144
0.0947526
0.117677
0.0344706
0.168495
0.209899
0.0892826
0.104898
0.0210976
0.0571931
0.0670332
0.175662
0.0671862
0.0736594
0.0879497
0.246465
0.0649288
0.173616
0.241025
0.0983967
0.0663536
-0.0653307
0.0464013
0.0662232
0.0660798
-0.000353903
0.145148
0.194988
0.219603
0.269198
0.0598669
0.0675311
0.0160272
0.0748517
0.0484152
0.224723
0.199245
0.149981
0.041709
0.0260575
0.147041
0.200109
0.0833859
0.0738003
-0.00266933
0.0838838
0.0959646
0.253129
0.261527
0.168498
0.120471
0.0886097
0.018376
0.258034
0.0479556
0.162846
-0.000825967
0.24151
0.0236372
0.0310666
0.0604551
0.20875
0.0875174
-0.0281267
0.0528777
0.150051
0.0613852
0.177246
0.150919
0.0680298
0.210541
0.0802601
0.0501349
0.217532
0.0526599
0.0894331
0.0154264
0.128862
0.0840836
0.214665
0.172642
0.0773991
0.166482
0.178459
0.230206
0.118879
0.0809093
0.0661461
0.184212
0.0489523
0.139295
0.0203924
0.270121
0.0859218
0.217361
0.256378
0.114943
0.261793
0.218653
0.228297
0.0389233
-0.00603814
0.0166114
0.232804
0.037911
0.0273054
0.0452137
0.0293644
0.0877286
0.0783715
0.120142
0.256922
0.170476
0.0737103
0.175088
0.071868
0.271925
0.0154938
0.20541
0.0695076
-0.00950255
0.244791
0.258781
0.0649893
0.0660386
0.26926
0.127768
0.0837428
0.0470442
0.166355
0.223169
0.17136
0.0545531
0.0652599
0.191867
0.122698
0.049442
0.144218
0.0404002
0.0318586
0.088404
0.199332
0.000867868
0.095097
0.195752
0.0650294
-0.00312148
0.0821401
0.0712443
0.0856442
0.139057
0.145212
0.0563312
0.0242068
0.0539506
0.155289
0.166382
0.0660176
0.144649
0.081575
0.0397643
0.128418
0.0755596
-0.0176198
0.170385
0.216191
0.116671
0.245986
0.225518
0.273857
0.0666664
-0.0296806
0.0905742
0.0784197
0.0854298
0.00741641
0.133952
0.240475
0.166767
0.124792
0.0495414
0.0742119
0.180805
0.108814
0.160538
0.0537912
0.0966053
0.0722577
0.0327604
0.0553395
0.0681521
0.064308
0.0417654
0.147121
0.12051
0.0776661
0.153047
0.0766248
0.085431
0.0543128
0.0811199
0.0551382
0.0709812
0.123665
0.0031948
-0.040652
0.100913
0.0107898
-0.00902247
0.123034
0.0188477
-0.00551641
0.21431
0.148011
0.0541098
0.175411
0.0304846
0.143628
0.144551
0.041912
0.070923
0.199149
0.0903617
0.180483
-0.0263396
0.0475331
0.21726
0.0697103
0.0591283
-0.0527505
0.00128354
-0.0120098
0.00569829
0.0758979
0.153912
0.0370136
-0.0100635
0.0447541
0.0684784
0.272506
0.0635573
0.166176
0.138778
0.0282868
0.0983568
0.0528866
0.0214265
0.140063
0.0830682
0.240901
0.165161
0.0535344
0.0765367
0.109876
0.2747
0.178315
0.227087
0.172027
0.0781282
0.118469
0.0854042
0.0401372
0.00590895
0.0652211
0.0868884
0.161348
0.0601074
0.0116443
0.0700368
0.0918648
0.0662238
0.0819111
0.203372
0.0822346
0.0724611
0.235399
0.21047
0.0556931
0.128412
0.224886
0.0259008
0.0146666
0.0793495
0.037444
0.0228275
0.221252
0.050085
0.0945686
0.229807
-0.00491138
0.123027
0.0632969
0.116786
0.0800969
0.0612354
-0.063343
0.0970157
0.0148727
0.0393897
0.0756536
0.0722151
0.176128
0.241368
0.0649091
0.125712
0.0965829
0.0586831
-0.0209329
0.198473
0.149341
0.0431569
0.0135344
0.134618
0.0128967
0.074734
0.0577957
0.048365
0.190318
0.239644
0.0746444
0.173574
0.27012
0.202271
0.205685
0.231358
0.0828096
0.0708438
0.0248827
0.271365
0.198979
0.21709
0.0601692
0.0659511
-0.00452793
0.180634
0.0877716
0.0597265
0.218088
0.157286
0.0529683
0.0951833
0.060542
0.0688303
0.0603464
0.0757398
0.0795179
0.0358716
0.0778672
0.00515301
0.0976723
0.0357942
0.15766
0.113375
0.00141083
0.224812
0.235433
0.170574
0.0750911
0.126367
0.0174768
0.178368
0.107539
0.00842126
0.222442
-0.00537102
0.24261
0.0152397
0.0882252
0.1045
0.167637
0.190071
0.0667554
0.254959
0.0683635
0.205614
0.0897656
0.15689
0.0724851
0.0631912
0.063565
0.210575
0.103177
0.269787
0.156805
0.0036313
0.0655581
0.146217
0.00615868
0.0758626
0.0908949
0.0379532
0.246951
0.049925
0.0392301
0.187644
0.0647602
0.240841
0.264321
0.0670315
0.270456
0.251652
0.205524
0.219685
0.131214
0.016382
0.050521
0.0822413
0.196936
0.0856391
-0.00361643
0.253846
0.0362175
0.0750495
0.0462478
0.2294
0.271296
0.0477693
0.202383
0.140724
0.241418
0.0987053
0.176515
0.0636491
0.256349
0.26723
0.162153
0.050978
0.192951
0.0836531
0.125636
0.110392
0.0980192
0.140141
0.0767166
-0.00167231
0.0252112
0.103197
0.149966
0.126397
0.218836
0.0435365
0.0835734
0.155143
0.0290123
0.233852
0.0604686
0.063086
0.2307
0.210928
0.13251
0.259243
0.0571217
0.0673669
0.180134
0.117191
0.112262
0.0856756
0.0644236
0.145443
0.163108
0.0645209
0.0606431
0.128857
0.00296888
0.0342068
0.241754
0.267813
0.268646
0.100158
0.274659
0.270266
0.250009
-0.019717
0.140377
0.137826
0.258256
0.0782091
0.0661462
0.0191473
0.0498353
-0.015874
0.253676
0.087194
0.0929856
0.179102
0.161203
0.0728223
0.0644183
0.269843
0.255497
0.224889
0.165194
0.0507502
0.173381
0.151434
0.0749967
0.103769
0.027302
0.0489538
0.121674
0.0996518
0.0735162
0.241596
0.241276
-0.0189444
0.208118
0.0662557
0.0564793
0.0887496
0.238483
0.0873861
0.164663
0.0879503
0.226306
0.0758918
0.0911971
0.26727
-0.000602465
-0.000247675
0.0582143
0.040925
-0.0357939
-0.0748998
0.0485138
-0.0268059
0.10476
-0.0178549
0.0351696
0.0989786
0.0378655
0.0486062
0.0780054
0.0242353
-0.0648501
0.252139
0.20815
0.0754412
0.0136583
0.212007
0.0547263
0.0661688
0.265267
0.0550884
0.265228
0.0919087
0.214252
0.100892
0.0265874
0.0296881
0.125545
0.125489
0.105265
0.0259236
0.0800237
0.0390223
0.042815
0.0735199
0.00267338
0.0251296
0.251276
0.0570476
0.161247
0.184801
0.0797342
0.190966
0.186679
0.0182726
-0.0700041
0.0901138
0.0075289
-0.0321883
0.168089
0.171024
0.0749688
0.147929
0.0728631
0.267928
0.249647
0.0817489
0.0680728
0.257333
0.220096
0.141477
0.143187
0.0730869
0.270398
0.123691
-0.0193791
0.230005
0.202474
0.242673
0.124339
0.0528207
0.085397
0.172499
0.142006
-0.102673
0.275292
0.0894064
0.0547844
0.106786
0.219274
0.265972
0.265798
0.148293
0.111312
0.190939
0.221191
0.232261
0.165332
0.199083
0.0379277
0.0630475
0.136695
0.0251558
0.0377265
-0.000505421
0.0881488
0.186296
0.00742316
0.116928
0.068743
0.200041
0.266001
0.0844108
0.0151413
-0.00910541
0.177475
0.0663109
0.0475284
0.00145686
0.235971
0.126559
0.13101
0.00675441
0.136013
0.0510534
0.0609586
0.177059
0.18312
0.238995
0.270558
0.0494487
0.224173
-0.0162142
0.232196
0.238796
0.241888
0.192272
0.0373169
0.037272
0.0743241
-0.022368
0.120826
-0.00085723
0.143675
0.0112923
0.216111
0.0780187
-0.0131305
0.210996
0.184857
0.0955434
0.0999337
0.159522
0.237392
0.127285
0.108556
-0.0139179
0.202273
0.123276
0.253701
-0.0307115
0.0995877
0.230832
0.172304
0.260188
0.178051
0.0808429
-0.0485651
-0.0136913
0.09766
0.0112571
0.252826
-0.0233755
0.0802989
0.0963235
0.0532776
0.195839
-0.0263011
0.231341
0.171979
0.134
0.00244136
0.158558
0.0619667
0.0914524
0.0909039
0.097497
0.0639113
0.0493766
0.189082
0.0373239
0.273322
0.0652208
0.107223
0.155286
0.179365
0.251686
0.0631279
0.0672196
0.0482684
0.109957
0.056624
0.246758
0.0475294
0.113444
0.0731003
0.204646
0.0353275
0.122496
0.0230319
0.266831
-0.0229025
0.0355644
0.0756086
0.210151
-0.00997752
0.00699458
0.0332433
0.0143565
0.240125
0.11004
0.168071
0.214473
0.15867
0.117474
0.266781
0.117852
0.183802
0.152122
0.12574
-0.0010575
0.131771
0.0845492
0.0760773
0.13475
0.046475
0.00347
0.109789
0.084503
0.0394968
0.200059
0.112701
0.165289
0.0846128
0.249032
0.0969489
0.098893
0.153804
0.00916733
0.0433622
0.0722976
0.125123
0.130148
0.140766
0.237111
0.177629
0.194008
0.117928
0.224526
0.254438
0.250857
0.126668
0.119157
0.139917
0.0179116
0.262382
0.218461
0.205198
0.0985531
0.0335569
-0.00222061
0.139419
0.172877
0.0558134
0.204865
0.218552
0.14321
0.0667301
0.127787
0.0763933
0.0604093
0.0982391
0.0688153
0.13027
0.000517015
0.134598
0.108557
0.0825731
-0.0254551
0.131082
0.114005
0.162346
0.0746709
0.125775
0.235926
0.246123
0.12792
0.0931461
0.194556
0.112831
0.0447697
0.0475595
0.0870674
0.0113406
0.236098
0.106475
0.119022
0.173113
0.166684
0.156192
0.0439041
0.272095
0.158647
0.0542138
0.106837
0.105207
0.194356
0.232483
0.160611
0.139318
-0.0114174
0.0380933
0.0799701
0.1405
0.113738
0.126702
0.0625595
0.243664
0.147158
0.192883
0.222021
0.124189
0.0592659
0.125652
0.262221
0.0381142
-0.0148067
0.125596
0.268103
0.0674789
0.0848691
0.189241
0.173687
0.208247
0.0996861
-0.00836603
0.138143
0.0190988
0.0708251
0.207498
0.0899671
0.0220911
0.0527389
0.0669261
0.14628
0.0797955
0.0728757
0.227248
0.0568792
0.267346
0.205682
0.0131739
-0.0370499
0.11078
0.181515
0.220317
0.094538
0.0798934
0.0608175
0.0755217
0.100898
0.270404
0.23091
0.178515
0.0859199
-0.00423611
0.236785
0.272695
0.242295
0.195613
0.229172
0.122761
0.0278036
-0.0259599
-0.0147385
0.251027
0.110258
0.0482857
0.0885933
0.271155
0.072867
0.0659494
0.00822696
0.0967309
0.0457968
0.267624
0.13704
0.179401
0.228258
0.218263
0.0705478
0.148973
0.118467
0.173152
0.0303104
0.146
0.0618048
0.246448
0.0310924
0.0713993
0.0448963
0.0827776
0.234747
0.0812869
0.205411
0.223621
0.230079
0.025969
0.115473
0.0806562
0.0653646
0.241908
0.12463
0.129709
0.134392
-0.0148582
0.0898027
0.241962
0.152773
0.244895
-0.0205332
0.0374811
0.0713638
0.250331
0.059049
0.104166
0.039982
0.045609
0.0886093
0.247469
0.0981272
0.0825838
0.00801299
0.265692
0.262581
-0.0157565
0.239253
0.0777448
0.0273091
0.0382509
0.107797
0.0158892
0.153969
0.0862425
0.0708245
0.0855003
0.223705
0.0982249
0.205311
0.0935401
0.0286572
0.086874
-0.0212346
-0.00240348
0.0900919
0.0850543
0.136546
0.037882
0.0977022
0.221777
0.147152
0.0714586
0.0227543
0.229152
0.0919901
0.103169
0.277984
0.132555
0.0692898
0.0731392
0.0467582
0.254982
0.0784043
0.0987615
0.144895
0.0146956
0.23271
0.0346244
0.224766
0.114321
0.184818
0.0425346
0.198436
0.091916
0.0168986
0.043379
0.11512
0.234581
-0.040374
0.0626452
0.0516033
0.25394
0.27066
0.0563178
0.0640765
0.15159
0.253066
0.097882
0.239212
0.217677
0.203669
0.187263
0.124186
0.166278
0.158565
0.24342
0.105208
0.123241
0.0576232
0.0701313
0.107709
0.0416805
0.255875
0.0441751
0.237037
0.103699
0.25051
0.0665829
0.260022
0.182117
0.220927
0.251862
0.236218
0.276802
0.0784509
0.224101
0.113732
0.0735754
0.0653181
0.0368811
0.244708
0.044953
0.132501
0.145747
0.087227
0.148879
0.0595607
0.242453
0.106
0.194398
-0.0237869
0.0528904
0.0790451
0.268159
0.0611691
0.157275
0.0741969
0.0801466
0.0219302
0.0893365
0.0785391
0.198519
0.247789
0.00630913
0.127906
0.0738933
0.0700383
0.210187
0.0582125
0.0682403
0.257835
-0.0147689
0.130184
0.173414
0.234231
0.265288
0.0716544
0.0590718
0.0172322
0.0799897
0.0643718
0.0732698
0.190188
0.0724977
0.0252943
0.0832812
0.116436
0.0762765
0.0705286
0.0517238
0.11375
0.0138318
0.192102
0.183549
0.0776609
0.19383
0.0319205
0.0091015
0.0563601
-0.00308227
0.258707
0.0797098
0.0737133
0.0621445
0.218521
0.242216
0.119706
0.191338
0.0689349
0.0547534
0.120515
0.0759406
0.0610043
0.243629
0.138693
0.165529
0.261544
0.198672
0.111861
0.252155
0.00147626
0.122344
0.118239
0.1424
0.0900203
0.248275
0.069405
0.136452
0.104619
0.0765434
0.043477
0.0625763
0.18196
0.211882
0.226437
0.122094
0.130301
0.251124
0.201671
0.0893848
0.136017
0.0262897
0.073471
0.203658
0.00693791
0.221799
0.0686647
0.229964
0.273019
0.245981
0.0599743
0.221596
0.219182
0.0199501
0.250145
0.0671078
0.249329
0.200019
0.0713934
0.0411622
0.141791
0.0780615
0.0849142
0.0649753
0.202981
0.0785391
0.254721
0.0330839
0.0721091
0.0637688
0.0322896
0.0736436
0.212444
0.267576
0.0297939
0.193197
0.112613
0.136693
0.0968893
0.150431
0.238219
0.202686
0.068089
0.232359
0.208789
0.265365
0.0335388
0.0398792
0.0671316
0.190206
0.258813
0.214258
0.0992246
0.260556
0.111057
0.0040924
0.0391763
-0.04016
0.110908
0.0187389
0.26556
0.268033
0.128631
0.277843
0.204413
0.113318
0.257598
0.0216997
0.246838
0.0712438
0.24268
0.0829329
0.0378383
0.187242
0.127958
0.249715
0.238118
0.241587
0.0477195
0.04554
-0.00977596
0.223529
0.201921
0.0580766
0.122658
0.203595
-0.0149869
0.0627765
0.0468168
0.0613292
0.138885
0.0601992
0.11822
0.183917
0.116228
0.127278
0.183828
0.0770702
0.0887552
0.13676
0.1179
0.0789012
0.225531
0.250596
0.0573641
0.199282
-0.0184702
0.059547
0.231213
0.194626
0.055619
0.245423
0.0234886
0.183226
0.0968719
0.10083
0.229898
0.0846282
0.191731
0.190374
0.167232
0.272561
0.170062
0.0163612
0.151429
0.106026
0.191731
0.269126
0.166143
0.112374
0.060636
0.102132
0.231211
0.0342039
0.215819
0.0527129
0.144108
0.199286
0.185039
0.105175
0.228056
0.260519
0.0867606
0.0779929
0.124893
0.0461839
0.0218665
0.120107
0.189857
0.0509433
0.0126784
0.0602673
0.00860666
0.179459
0.109695
0.194009
0.0701232
0.242535
0.118336
0.219552
0.26502
0.0540125
0.236765
0.0899632
0.124854
0.122957
0.225555
0.065994
0.093233
0.126303
0.0388887
0.0796572
0.0391563
0.019094
-0.018721
0.261469
0.271387
0.0517694
0.0683424
0.18855
-0.000638002
0.0566777
0.0737784
0.172733
0.182615
-0.00385051
-0.0191654
0.238332
0.0710091
0.144008
0.0688679
0.0116083
0.0384884
0.13631
0.21936
0.14546
0.00685042
0.244022
0.218336
0.0496955
0.139705
0.070528
0.264857
0.0795743
0.100176
0.0221192
0.159372
0.250004
0.145229
0.133742
0.0590396
0.110266
0.149262
0.258409
0.276677
0.0656777
0.262094
0.0643089
0.126519
0.129885
0.0895684
0.072455
0.225294
0.088048
0.133683
0.0487947
0.0287337
0.0975218
0.0407281
0.170563
0.2433
0.0464534
0.0628133
0.125521
0.0735755
0.0668811
-0.0269873
0.0803903
0.225192
0.0101395
0.0468774
0.18574
0.122924
0.101893
0.157159
0.213607
0.0452592
0.0528757
0.213695
0.0943685
0.0520788
0.115752
0.224213
0.159668
0.125929
0.0675922
0.0633145
0.0615195
0.259205
0.213923
0.268884
0.0986447
0.168988
0.0306022
0.113288
0.220876
0.00401647
0.0120999
0.18341
0.21613
0.00421443
0.0728538
0.0677175
0.0456915
0.0665747
0.275783
0.103703
0.0707481
0.13309
0.0608195
0.187503
0.14065
0.0276804
0.076738
0.200476
0.109326
0.261063
0.0173999
0.064101
0.162682
0.148778
0.0867618
0.143362
0.0401069
0.264497
0.241485
0.164374
0.228396
0.0484466
0.225013
0.153099
0.160984
0.252299
-0.000620294
0.0745811
0.267022
0.155039
-0.00474126
0.0443775
0.212716
0.265125
0.10977
0.189656
0.0658828
0.01827
0.0497614
-0.0137154
0.219986
0.0593421
0.109978
0.254583
0.0548955
0.0487199
0.0599477
0.12871
0.0722427
0.0580565
0.0626455
0.0300636
0.108893
0.200758
0.251312
0.181008
0.0830918
0.0736837
-0.0108607
0.0668407
0.152474
0.131822
0.172181
0.187173
0.0737888
0.0966372
0.211069
0.218435
0.266867
0.231198
0.254676
0.109639
0.0211782
0.0485231
0.0314744
0.258917
0.125856
0.0630496
0.251101
0.0274072
0.205546
0.183898
0.0764167
0.0707969
0.0759054
0.0625369
0.216791
0.0754008
0.172836
0.107873
0.249685
0.136928
0.272069
0.0466953
0.107
0.0444906
-0.0238124
0.0791335
0.197598
0.0464505
-0.0253913
0.124257
0.243804
0.192756
0.059023
0.0192345
0.053061
0.0287663
0.0724213
0.0347879
0.088437
0.034496
0.18466
0.051434
0.0713502
0.233408
0.11479
0.161422
0.209869
0.0761147
0.107638
0.0441443
0.19969
0.0646783
0.0824954
0.103863
0.0407978
0.0154484
0.0678143
0.0622561
0.192674
0.268333
0.224014
0.130995
0.178039
0.00804898
0.261716
0.143442
0.190277
0.0706298
0.182075
0.0490066
0.0805724
0.20418
0.248839
0.195847
0.130074
0.0817353
0.271424
0.0910963
0.208696
0.257247
0.166076
0.0919636
0.00418922
0.208128
0.1408
0.0342042
0.157003
0.135633
0.247257
0.0566388
0.255122
0.267731
0.088382
0.0485406
0.256446
0.0220907
0.0363842
0.0814303
0.0337493
0.0819294
0.0426833
0.0195275
0.106069
0.0729843
0.0506868
0.069276
0.131477
0.0392294
0.0526771
0.151456
0.110853
0.0208326
0.242965
0.268346
0.258951
0.0683047
0.0119437
0.27336
0.0151427
0.104052
0.0614584
0.0700041
0.0694834
0.183196
0.0747591
0.067547
0.00961279
0.00278053
0.0350935
0.0784113
0.00652464
0.102775
0.123728
0.0935158
0.249603
0.129881
0.168542
0.0957968
0.214947
0.054529
0.0763176
0.278481
0.0841305
0.134919
0.0194386
0.167531
0.269451
0.0652606
0.15346
0.139168
0.0367149
0.064165
0.0525816
0.0358135
0.186282
0.0381966
0.0964198
0.067745
0.0885894
0.0548796
0.0536597
0.1037
0.068882
0.0708463
0.265984
0.102585
0.094883
0.124415
0.246943
0.0793858
0.00459467
0.203274
0.022333
0.0866141
0.0685916
0.114629
0.0533942
0.0895235
0.115233
0.26582
0.221301
0.00693259
0.069129
0.00497081
0.0639512
-0.00762338
0.0394501
0.0857419
0.0463616
0.0854214
0.153531
0.277179
0.0759644
0.180747
0.120847
0.258864
0.0733212
0.270639
0.145091
0.0299275
0.153795
0.187933
0.0660413
0.220125
0.0690267
0.227404
0.0610609
-0.0250861
0.0990728
0.27533
0.266748
0.184762
0.159337
0.178328
0.0134712
0.0502114
0.179467
0.271464
-0.010817
0.11369
0.0700416
0.0554027
0.0945563
0.0528349
0.0277344
0.059812
0.0386474
0.0718463
0.0656109
0.0977021
0.271875
0.216887
-0.00617843
0.2014
0.04719
0.0528638
0.206415
0.0636163
0.0854559
0.17084
0.00262678
0.0489667
0.109049
0.223001
0.0317365
0.055098
0.0834471
0.149854
0.0305502
0.248436
0.00636491
0.0755795
0.0818679
0.0571859
0.161428
0.152692
0.248829
0.0649782
0.195349
0.121232
0.147455
0.0646337
0.161753
0.0431888
0.0225633
-0.0158191
0.143665
0.0932873
0.0819182
0.234036
0.111272
0.135889
0.160991
0.053461
0.0388084
0.0768467
0.144929
0.0717373
0.276179
0.0215937
0.00599628
0.0793338
0.068132
0.0707925
0.0669201
0.183362
0.0788659
0.100224
0.0338026
0.0715708
0.0941589
0.036649
0.271554
0.258101
0.037438
0.0534089
0.219837
0.126949
0.0594233
0.0181606
0.0574519
0.0358475
0.121115
0.240291
0.0603606
0.01462
0.152446
0.105113
0.00698774
0.0336017
0.105716
0.175464
0.27514
0.0274705
0.000241102
0.132908
0.219727
0.0751828
0.132492
0.0782644
0.0683802
0.0777412
0.14853
0.0887131
0.0682008
0.199174
0.080942
-0.0186567
0.118989
0.0698012
0.205232
0.27185
0.0746494
0.0732984
0.0707983
0.074717
0.0284901
0.0767519
0.0377857
0.252083
0.209701
0.17312
0.0849157
0.0152007
0.196033
0.262319
0.052622
0.115815
0.059034
-0.0177238
0.104329
0.0690504
-0.0224574
0.0642763
0.159803
0.0306062
0.00754912
0.0345439
0.207387
0.0242678
0.203197
0.108573
0.0602952
0.0637876
0.050052
0.204862
-0.00940442
0.0797779
0.0853353
0.0225424
0.132225
0.179886
0.132879
0.0946367
0.188682
0.0327926
0.0361045
0.238287
0.0649404
0.234385
0.135085
0.0709209
0.140207
0.224223
0.105069
0.00346073
0.248337
0.0607458
0.0799764
0.22506
0.0544277
0.256255
0.0594109
0.082818
0.0130431
0.0870949
0.0372223
0.109185
0.0344712
-0.015863
0.0317331
0.0301517
-0.0136172
0.24082
0.0306612
0.0819236
0.135729
0.10952
0.263595
0.266069
0.0538264
0.11414
0.208963
0.0445389
0.240999
-0.00482705
0.0682453
0.123652
0.0538237
0.211273
0.0628713
0.0696637
0.0775338
0.059631
0.0670501
-0.0172171
0.226989
-0.0629235
0.251774
0.176974
0.0342571
0.00674121
0.0389236
0.276284
0.18291
0.156117
0.101489
0.134657
0.0843051
0.225414
0.197015
0.0516595
0.150768
0.255444
0.0872113
0.11316
0.159798
0.000600578
0.0346852
0.207325
0.0790767
0.100424
0.256864
0.027111
-0.00290901
0.0639989
0.0992129
0.083361
0.265069
0.0561117
0.0165482
0.0513566
0.0981916
0.0573792
0.233314
0.11193
0.0444951
0.054501
0.0526316
0.0548
0.0796191
0.149269
0.123223
0.0466088
0.232035
0.0682113
0.21159
0.0471743
0.0277794
0.0882286
0.228392
0.261607
0.204251
0.096356
0.0884095
0.203853
0.261099
0.0241598
0.242396
0.0345972
0.165919
0.145604
0.231713
0.0978269
0.222525
0.245201
0.0728522
0.0748074
0.0828702
0.117364
0.0388006
0.0457121
0.0451013
0.181209
0.211671
0.0216736
0.24768
0.102112
0.190551
0.0975628
0.0387649
0.209424
0.197208
0.0656861
0.0790684
0.0366896
0.266948
0.182373
0.27266
0.0187795
0.0376841
0.0874593
0.215817
0.154826
0.232272
0.131515
0.262555
0.0589861
0.0928132
0.112764
0.0651888
0.133447
0.0270984
0.203637
0.104441
0.122091
0.243201
0.0130426
0.0235893
-0.0037786
0.14765
0.228633
0.0767459
0.162149
0.0326977
0.0144209
0.10201
0.0680152