/*--------------------------------*- C++ -*----------------------------------*\
  =========                 |
  \\      /  F ield         | OpenFOAM: The Open Source CFD Toolbox
   \\    /   O peration     | Website:  https://openfoam.org
    \\  /    A nd           | Version:  6
     \\/     M anipulation  |
\*---------------------------------------------------------------------------*/
FoamFile
{
    version     2.0;
    format      ascii;
    class       volVectorField;
    location    "0";
    object      U_rec;
}
// * * * * * * * * * * * * * * * * * * * * * * * * * * * * * * * * * * * * * //

dimensions      [0 1 -1 0 0 0 0];

internalField   nonuniform List<vector> 
13046
(
(-0.702255 0.229907 0)
(-0.83558 -0.186358 -1.10408e-20)
(-0.387612 -0.17928 -2.47083e-20)
(-0.688068 0.11743 0)
(-0.360416 -0.0787708 -2.26747e-20)
(-0.732408 -0.217187 0)
(-0.749555 0.153465 3.36313e-21)
(-0.777056 -0.257797 5.60684e-21)
(-0.322609 -0.0672869 -2.48237e-20)
(-1.63438 0.736361 1.00246e-20)
(-1.23002 -0.469526 0)
(-0.0168029 -0.063518 1.61657e-20)
(-0.89077 0.310768 -1.08337e-20)
(-0.9257 -0.262914 -1.7073e-20)
(-0.286617 -0.149501 1.35198e-20)
(-1.53741 0.805257 -1.35904e-20)
(-0.0871668 -0.12878 3.86929e-20)
(-1.29292 -0.372181 7.87489e-21)
(-0.438426 0.0340942 0)
(-0.591429 -0.21521 -1.20924e-20)
(-0.693236 -0.00677158 3.46171e-20)
(-1.55883 0.796619 -5.59635e-21)
(-0.0701572 -0.113623 -5.16884e-20)
(-1.28074 -0.393496 0)
(-0.620774 0.120351 1.41448e-20)
(-0.737248 -0.161869 -2.72751e-20)
(-0.41407 -0.138395 0)
(-0.903617 0.353815 -1.983e-20)
(-0.9528 -0.255642 5.00456e-21)
(-0.291706 -0.171084 -2.34939e-20)
(-0.709162 0.259403 0)
(-0.865355 -0.166113 0)
(-0.396757 -0.208446 2.5139e-20)
(-0.576456 0.0780913 -1.64271e-20)
(-0.444163 -0.131923 8.40107e-21)
(-0.691295 -0.133815 4.76044e-20)
(-0.579469 0.0479491 -2.5124e-20)
(-0.450427 -0.102023 1.28881e-20)
(-0.657902 -0.136832 -2.45605e-20)
(-0.562425 0.246008 1.83312e-20)
(-0.560555 -0.342098 4.57909e-21)
(-0.893288 -0.051469 -1.67523e-20)
(-0.574674 -0.0365958 1.12749e-20)
(-0.500963 -0.0552776 1.94032e-20)
(-0.565357 -0.109719 0)
(-0.607359 -0.021585 7.16604e-21)
(-0.46647 -0.0317122 -2.97171e-20)
(-0.57718 -0.141549 -3.67022e-21)
(-0.734183 0.227082 0)
(-0.838667 -0.212269 -7.88749e-22)
(-0.34729 -0.154525 -1.33821e-23)
(-0.727002 -0.49152 2.77849e-20)
(-0.461597 0.264149 0)
(-1.02311 0.0577356 -2.02507e-20)
(-0.783099 -0.524854 -3.95616e-20)
(-1.06729 0.0938375 -3.26575e-20)
(-0.406256 0.236398 2.83593e-20)
(-1.2293 -0.211829 -3.75024e-21)
(-1.22399 0.72713 0)
(-0.311297 -0.310833 2.12221e-20)
(-1.18275 0.362982 -1.02325e-20)
(-1.00947 -0.442981 9.92196e-21)
(-0.150318 -0.027261 -5.72831e-20)
(-0.0707993 -0.0951334 2.9714e-20)
(-1.21163 -0.439607 -5.96614e-21)
(-1.5229 0.655429 -1.6454e-20)
(-1.14902 0.707571 0)
(-1.20699 -0.170391 0)
(-0.36637 -0.359349 0)
(-1.0855 0.664255 -8.04601e-21)
(-1.17921 -0.158406 0)
(-0.387665 -0.367182 1.6857e-20)
(-1.25975 -0.217216 0)
(-1.28266 0.765282 2.3621e-22)
(-0.288007 -0.306452 -9.97986e-24)
(-0.448968 0.0660848 0)
(-0.580158 -0.23756 1.30875e-20)
(-0.728749 -0.0261516 -2.46455e-20)
(-0.217247 -0.24418 2.35188e-20)
(-1.37277 0.793328 -2.42755e-20)
(-1.2788 -0.26973 0)
(-0.662115 0.139735 7.45598e-21)
(-0.753822 -0.186681 0)
(-0.381074 -0.117067 0)
(-0.05968 -0.0927167 -2.6648e-20)
(-1.22636 -0.444356 -4.53642e-21)
(-1.5647 0.686544 9.76202e-21)
(-1.57897 0.543827 -1.70204e-20)
(-0.039004 -0.0324474 0)
(-1.14934 -0.538604 -4.64598e-21)
(-0.0475859 0.0284559 0)
(-1.67497 0.45141 0)
(-1.09495 -0.644433 6.11438e-22)
(-1.21489 0.514113 0)
(-1.28607 0.534548 9.45588e-21)
(-1.10672 -0.350042 1.91137e-20)
(-1.12754 -0.383972 -8.95148e-21)
(-0.181365 -0.143018 -1.22617e-20)
(-0.148453 -0.120107 3.14704e-20)
(-0.0444902 -0.0178286 -1.50956e-21)
(-1.56522 0.512439 1.66579e-20)
(-1.12715 -0.559869 0)
(-0.628879 0.0143314 -1.33854e-23)
(-0.432457 -0.0376987 1.56909e-20)
(-0.615994 -0.171753 0)
(-0.324439 0.143731 0)
(-0.980991 0.118336 -1.02025e-20)
(-0.783966 -0.447977 0)
(-0.463391 0.23313 3.15461e-20)
(-0.677896 -0.424546 0)
(-0.947557 0.0243846 -3.85186e-20)
(-1.57496 0.742131 0)
(0.0061215 -0.0337514 0)
(-1.14807 -0.482367 -5.7304e-21)
(-0.818861 0.268651 2.98697e-20)
(-0.886395 -0.242394 7.28019e-21)
(-0.306655 -0.140869 2.47168e-20)
(-1.29819 0.617194 1.20847e-20)
(-1.22647 0.56212 -2.27851e-20)
(-1.17427 -0.331891 -1.61625e-20)
(-0.182977 -0.174014 1.40461e-20)
(-1.13299 -0.323108 9.71484e-21)
(-0.19815 -0.171277 -1.31231e-20)
(-1.62634 0.755799 -7.82802e-21)
(-1.22948 -0.466095 -8.52302e-21)
(-0.0131695 -0.0603239 -7.23214e-21)
(-1.06861 0.448627 0)
(-1.04257 -0.303129 -1.29327e-20)
(-0.235508 -0.169848 2.87228e-20)
(-0.621615 0.276506 0)
(-0.515395 -0.320978 -2.27525e-20)
(-0.903779 -0.0831115 9.62092e-22)
(-0.0670115 0.040833 0)
(-1.61691 0.421765 0)
(-1.08344 -0.635801 0)
(-1.41367 0.557572 0)
(-1.15251 -0.444618 -2.44215e-20)
(-0.0953862 -0.082557 -3.37895e-20)
(-0.770892 0.296415 0)
(-0.904291 -0.184975 0)
(-0.374582 -0.219774 0)
(-0.929423 0.210234 0)
(-0.857407 -0.369333 0)
(-0.245402 -0.00822719 0)
(-0.431009 0.222464 0)
(-0.720918 -0.451822 0)
(-0.975001 0.0537562 2.07709e-20)
(-0.332583 0.124362 -3.26678e-21)
(-0.946196 0.10994 -2.19647e-20)
(-0.773073 -0.425079 2.44291e-20)
(-1.23753 0.398282 2.39379e-20)
(-1.04174 -0.447117 0)
(-0.132315 -0.0465608 7.44611e-20)
(-0.323128 0.0485494 0)
(-0.840867 0.105322 2.37747e-20)
(-0.742004 -0.343278 -6.21309e-21)
(-0.883649 -0.553202 0)
(-1.15325 0.184341 2.33675e-20)
(-0.929742 -0.56182 0)
(-1.20862 0.232558 1.35295e-20)
(-0.283429 0.162389 0)
(-0.228137 0.123316 0)
(-0.965952 0.177812 3.02753e-21)
(-0.838035 -0.413928 1.28034e-20)
(-0.253445 0.0439931 -1.42519e-20)
(-1.66424 0.711564 -1.02437e-20)
(-0.0104584 -0.0560511 0)
(-1.20458 -0.494813 -1.08635e-20)
(-1.59934 0.750076 -6.76046e-21)
(-0.00018843 -0.0431678 -3.30916e-21)
(-1.18934 -0.472847 0)
(-1.44028 0.59194 -1.37675e-20)
(-1.17309 -0.438088 0)
(-0.091535 -0.0930373 3.841e-20)
(-0.727244 0.39081 0)
(-0.999043 -0.0863236 5.29135e-21)
(-0.51599 -0.378995 1.32412e-20)
(-0.930422 0.150907 1.99391e-20)
(-0.282797 0.0693354 6.85772e-21)
(-0.80404 -0.398161 0)
(-0.00440967 -0.0440758 0)
(-1.18066 -0.534313 0)
(-1.68777 0.647596 8.49879e-21)
(-0.667356 0.345362 0)
(-0.964103 -0.0705075 -1.1481e-20)
(-0.535538 -0.365912 3.44716e-21)
(-0.312704 0.0693968 0)
(-0.865273 0.107438 0)
(-0.746549 -0.363207 0)
(-0.87505 0.176358 9.96903e-21)
(-0.823698 -0.346072 0)
(-0.26418 -0.013772 0)
(-0.961446 -0.313909 -6.04938e-23)
(-0.238835 -0.119905 -1.67266e-20)
(-1.01369 0.404565 3.13961e-20)
(-1.00977 -0.291731 0)
(-0.247869 -0.15969 -3.59904e-20)
(-1.60214 0.623819 -1.72622e-20)
(-0.0351815 -0.0580169 2.41807e-20)
(-1.19013 -0.502856 -2.21258e-20)
(-0.0626734 0.0192933 2.22049e-20)
(-1.56021 0.444732 1.03771e-20)
(-1.09642 -0.600182 2.32545e-20)
(-1.65933 0.506253 -2.83042e-20)
(-1.12643 -0.592493 0)
(-0.0272812 -0.00286457 -2.18237e-20)
(-0.743016 -0.551874 -1.42676e-21)
(-1.09812 0.0570896 9.07047e-21)
(-0.529499 0.351396 0)
(-0.861953 0.233371 -4.54337e-20)
(-1.35013 0.808005 1.2488e-20)
(-0.240668 -0.264735 -1.44475e-20)
(-1.2867 -0.257875 0)
(-1.13635 -0.589589 0)
(-1.69204 0.550662 -2.48806e-20)
(-0.0140031 -0.0150973 0)
(-0.620244 0.0501816 -3.6326e-20)
(-0.417883 -0.0683105 -1.26585e-20)
(-0.655804 -0.171865 3.60641e-20)
(-0.866879 0.356372 0)
(-0.950235 -0.230667 -7.21366e-22)
(-0.32965 -0.196468 -1.37061e-20)
(-0.0713779 0.0355189 1.70622e-20)
(-1.56929 0.426977 0)
(-1.0821 -0.62133 -2.68078e-20)
(-0.918914 0.270782 3.64594e-20)
(-0.940899 -0.327077 3.08252e-20)
(-0.235026 -0.100116 0)
(0.00582121 -0.0427264 0)
(-1.16529 -0.510353 9.02782e-21)
(-1.66991 0.715162 0)
(-0.467773 0.307753 0)
(-1.11619 0.0818392 0)
(-0.780042 -0.569876 0)
(-1.6059 0.489989 2.48058e-20)
(-1.12005 -0.581243 0)
(-0.0393999 -0.00368889 -6.86425e-23)
(-1.08106 0.20522 8.83868e-21)
(-0.884117 -0.487706 -9.75346e-21)
(-0.230534 0.0843177 0)
(-1.06466 0.475253 0)
(-1.05477 -0.284086 1.20951e-20)
(-0.255177 -0.190294 2.2555e-20)
(-1.02526 -0.654131 -3.40103e-20)
(-1.4716 0.315786 -1.86111e-20)
(-0.156683 0.111084 1.34948e-20)
(-1.2815 0.250363 0)
(-0.958598 -0.593282 -1.36261e-20)
(-0.216425 0.128199 -4.88649e-22)
(0.0119771 -0.0374355 -2.13275e-20)
(-1.13738 -0.523399 0)
(-1.68478 0.695362 -7.21452e-21)
(-0.562823 0.303479 1.69209e-20)
(-0.625675 -0.421819 -1.64013e-20)
(-0.971305 -0.0171827 1.68296e-21)
(-1.46916 0.788202 6.81769e-21)
(-0.00427195 -0.0352828 -3.10552e-20)
(-1.18607 -0.416778 0)
(-0.406386 0.00141568 -7.43447e-21)
(-0.683265 0.021416 -2.79978e-20)
(-0.626834 -0.217804 3.59723e-20)
(-1.09092 0.260749 1.06756e-20)
(-1.05014 0.213618 1.03844e-22)
(-0.924812 -0.453327 -2.3529e-20)
(-0.881353 -0.461329 0)
(-0.22579 0.0591125 1.29571e-20)
(-0.189819 0.0242464 -1.33799e-20)
(-0.183533 -0.216989 -3.07851e-20)
(-1.41802 0.806568 1.29632e-20)
(-1.29779 -0.284778 -1.96855e-20)
(-1.00044 0.454958 0)
(-1.03591 -0.24856 0)
(-0.298546 -0.216006 -2.96894e-20)
(-1.35214 0.29517 -4.91465e-21)
(-0.993754 -0.610002 0)
(-0.176934 0.104145 0)
(-1.36361 0.594173 -1.1572e-20)
(-1.16738 -0.385125 0)
(-0.133446 -0.128678 1.3959e-20)
(-0.54452 -0.0205561 7.58243e-21)
(-0.587055 -0.0901691 1.10233e-20)
(-0.51058 -0.0836833 -3.79635e-21)
(-1.17978 0.248289 -1.72348e-20)
(-0.936152 -0.529656 0)
(-0.201493 0.0868028 -2.24964e-20)
(-1.01474 0.486934 0)
(-1.05926 -0.238287 1.50741e-20)
(-0.307373 -0.237124 -1.90569e-20)
(-0.949065 0.311549 0)
(-1.01591 0.349593 3.66502e-21)
(-0.577259 0.325941 6.13977e-21)
(-0.634518 -0.444427 4.77295e-20)
(-0.996102 -0.00903166 -4.02397e-20)
(-1.23226 0.290756 -1.77681e-20)
(-0.971065 -0.532751 2.01816e-20)
(-0.163788 0.0573834 2.05335e-20)
(-1.41275 0.608174 0)
(-0.110382 -0.112849 -4.92562e-20)
(-1.18205 -0.407599 -1.20004e-20)
(-0.466909 0.20984 -4.35877e-20)
(-0.654321 -0.401626 0)
(-0.918998 0.0194705 1.30045e-20)
(-0.307824 0.19474 -2.64762e-20)
(-1.17626 0.175465 -1.33628e-20)
(-0.880622 -0.582039 0)
(-1.19709 0.606324 -1.17066e-20)
(-1.15624 -0.267475 -1.30749e-20)
(-0.251001 -0.229483 8.69754e-21)
(-0.51676 0.305088 2.21525e-21)
(-0.698998 -0.487542 0)
(-1.02748 0.0386516 2.7973e-20)
(-1.25786 0.646679 0)
(-1.30311 0.655737 0)
(-1.18757 -0.283477 -8.34959e-21)
(-0.230355 -0.221344 -2.26526e-20)
(-1.19603 -0.314567 1.18156e-20)
(-0.198509 -0.193724 2.40406e-20)
(-0.0167022 -0.0540082 -1.87007e-20)
(-1.19374 -0.513233 0)
(-1.66012 0.664446 -1.21158e-20)
(-1.15878 0.537611 1.35139e-20)
(-1.10712 -0.298651 0)
(-0.230302 -0.19095 7.74574e-21)
(-1.04674 -0.468646 1.58975e-20)
(0.00906931 -0.0177695 2.72106e-20)
(-1.43619 0.727235 1.41502e-20)
(-0.77829 0.058254 -1.28635e-20)
(-0.363449 0.0479292 0)
(-0.68367 -0.297598 0)
(-1.10253 0.330778 2.44877e-20)
(-0.976546 -0.409895 0)
(-0.172422 -0.0397431 4.38661e-20)
(-0.0529299 -0.0687245 -1.53424e-20)
(-1.5473 0.607996 3.55419e-20)
(-1.18265 -0.481984 1.68494e-20)
(-0.801331 -0.548401 0)
(-1.099 0.102317 1.20931e-20)
(-0.401427 0.256336 -3.21335e-20)
(-1.04636 -0.645815 -4.11855e-20)
(-1.51049 0.355655 -1.1414e-20)
(-0.119512 0.0791507 0)
(-0.882411 -0.300745 -3.1272e-20)
(-0.26528 -0.08762 0)
(-1.14727 0.407163 2.68473e-20)
(-1.0257 -0.377689 1.09723e-20)
(-0.174129 -0.0957719 1.33235e-20)
(-0.868698 -0.322355 1.83634e-20)
(-0.254624 -0.0649861 5.62164e-23)
(-1.51375 0.785115 -8.51285e-22)
(-0.106071 -0.144474 1.81764e-20)
(-1.28564 -0.358378 -1.15771e-20)
(-0.724747 -0.571118 0)
(-1.11984 0.0423143 2.86823e-21)
(-0.586849 0.398697 0)
(-1.20866 0.44087 -2.73863e-20)
(-1.0629 -0.395599 -1.33782e-20)
(-0.152485 -0.0881977 -1.62488e-20)
(-0.958968 0.209643 0)
(-0.856048 -0.397422 -1.85954e-20)
(-0.237894 0.0142519 0)
(-0.989011 0.0953603 0)
(-0.76035 -0.46644 0)
(-0.371776 0.179125 0)
(-0.714932 0.188357 -1.03268e-20)
(-0.80194 -0.209998 -1.73901e-20)
(-0.353563 -0.132113 -1.99399e-23)
(-0.354808 0.230004 3.28095e-20)
(-1.1502 0.144323 3.25821e-20)
(-0.851006 -0.574874 1.97303e-20)
(-1.6307 0.583557 -1.49108e-20)
(-1.16512 -0.533927 1.87536e-20)
(-0.0263114 -0.0406172 -2.28902e-20)
(-1.05681 -0.622172 2.78916e-20)
(-1.49515 0.37263 1.15733e-20)
(-0.103292 0.05955 1.71161e-20)
(-0.951273 0.589345 -2.48175e-20)
(-0.468428 -0.411591 2.52967e-20)
(-1.13602 -0.113395 -1.84763e-20)
(-1.33874 0.734202 7.03682e-21)
(-1.28653 0.69974 -6.44155e-21)
(-1.21913 -0.264902 -2.65636e-21)
(-1.24511 -0.275352 0)
(-0.219784 -0.232427 -8.29841e-21)
(-0.24224 -0.245926 -7.33029e-21)
(0.00645842 -0.0220524 -3.68354e-20)
(-1.09176 -0.452761 -1.75182e-20)
(-1.45404 0.733573 4.51608e-21)
(-1.48878 0.796878 -4.64192e-22)
(-0.011202 -0.0450719 4.29728e-20)
(-1.21541 -0.410984 0)
(-1.15801 0.293941 -3.92354e-20)
(-0.965111 -0.472871 -5.21608e-21)
(-0.171982 0.0209118 0)
(-0.0299114 -0.0623828 -4.6552e-20)
(-1.62429 0.650144 1.20652e-20)
(-1.20341 -0.496341 0)
(-1.09358 0.620325 3.52218e-20)
(-1.15633 0.643251 -2.64048e-20)
(-1.15128 -0.197866 1.41125e-20)
(-1.17029 -0.221065 5.3615e-21)
(-0.349276 -0.314682 -1.44072e-20)
(-0.309628 -0.286044 -7.24189e-21)
(0.00309195 -0.0156214 0)
(-1.10978 -0.602199 0)
(-1.76102 0.546706 4.30711e-21)
(-1.38514 0.78607 -7.99743e-21)
(-0.00246538 -0.0278021 0)
(-1.1643 -0.40062 0)
(-0.664604 -0.0559566 -6.81217e-24)
(-0.486328 0.0350938 1.63829e-20)
(-0.533538 -0.17162 8.06553e-21)
(-1.50488 0.754349 -1.32633e-20)
(-1.14852 -0.459071 8.38371e-21)
(0.00427423 -0.0299346 2.01392e-21)
(-0.814034 0.423885 0)
(-1.0128 -0.12884 -2.41077e-20)
(-0.453469 -0.338701 -5.29467e-23)
(-1.6916 0.630969 2.54148e-22)
(-1.17049 -0.548164 2.63546e-20)
(-0.00636551 -0.0386153 1.06035e-23)
(-0.927551 -0.490656 4.82349e-22)
(0.0128364 -0.0141924 -1.57008e-20)
(-1.41192 0.630374 -4.91567e-21)
(-0.510575 0.198603 -1.57695e-20)
(-0.578858 -0.32433 1.44958e-20)
(-0.856305 -0.0340117 4.10588e-20)
(-0.712794 0.05731 0)
(-0.676313 -0.244707 -3.97861e-20)
(-0.37285 -0.00590943 2.09462e-20)
(-1.60232 0.782082 0)
(-0.0205258 -0.0661369 2.15615e-20)
(-1.24307 -0.448717 -4.07631e-23)
(-0.747931 0.0759235 0)
(-0.69658 -0.269682 -1.38821e-20)
(-0.349794 0.0134156 -2.96093e-20)
(-0.634585 -0.0559128 1.65901e-20)
(-0.493024 0.00911986 -8.71225e-21)
(-0.534906 -0.14666 4.25788e-21)
(-0.442508 0.307253 1.58959e-20)
(-1.17004 0.109877 -1.14659e-20)
(-0.824255 -0.610545 2.18074e-20)
(-0.751386 -0.00400013 0)
(-0.607736 -0.259541 0)
(-0.423206 0.0848329 2.4677e-21)
(-0.780879 0.0390044 2.03621e-20)
(-0.656477 -0.288186 1.07324e-20)
(-0.394139 0.0757665 3.50206e-22)
(-0.886424 0.553329 3.76727e-20)
(-1.11475 -0.0916443 -1.84863e-20)
(-0.511349 -0.441423 -2.50457e-20)
(-0.0447461 -0.0867144 3.25531e-20)
(-0.0337702 -0.0779097 -3.3124e-20)
(-1.25578 -0.439449 7.70742e-21)
(-1.24122 -0.457356 5.38671e-21)
(-1.59706 0.758907 0)
(-1.61695 0.745999 -1.02658e-20)
(-1.66626 0.587311 1.8461e-20)
(-1.16333 -0.545742 -1.65269e-20)
(-0.0163618 -0.0335197 2.8364e-20)
(-0.450719 -0.419723 -1.62256e-20)
(-1.01232 0.646587 7.75016e-21)
(-1.1693 -0.121141 2.35439e-20)
(-0.597876 0.304653 -1.54487e-20)
(-0.580868 -0.387185 -1.50543e-20)
(-0.952157 -0.0422572 1.27763e-20)
(-1.29899 0.224381 0)
(-0.945366 -0.626301 1.41016e-20)
(-0.257457 0.170572 5.05539e-22)
(-0.98885 -0.536425 8.49047e-21)
(0.0210587 -0.0243112 -1.4683e-20)
(-1.62256 0.623586 -5.10983e-21)
(-0.0308802 0.0123435 0)
(-1.69295 0.484432 0)
(-1.10578 -0.631765 1.12309e-20)
(-1.62974 0.737974 8.19543e-21)
(0.000138699 -0.0467425 0)
(-1.1935 -0.486949 -8.86268e-21)
(0.0100394 -0.00930775 -5.81753e-32)
(-0.883193 -0.470341 -7.10235e-21)
(-1.32562 0.619707 4.53665e-21)
(-0.937611 -0.411087 7.94707e-21)
(0.00709334 -0.00669624 5.80379e-32)
(-1.25713 0.696095 -4.04675e-21)
(-1.04222 -0.514018 -2.73766e-20)
(-1.31879 0.380044 0)
(-0.118675 0.0038822 -4.36782e-20)
(-1.07188 -0.579936 -4.7237e-21)
(0.0188089 -0.0259454 -1.50566e-20)
(-1.77163 0.587179 0)
(-1.45161 0.550628 -1.73738e-20)
(-1.14797 -0.471919 1.51074e-20)
(-0.0799367 -0.0668455 2.25924e-20)
(-1.5248 0.848468 2.6941e-20)
(-0.0735041 -0.118108 1.30792e-20)
(-1.31762 -0.351299 0)
(-0.819801 0.236971 7.93538e-21)
(-0.292222 -0.104408 -8.38985e-21)
(-0.864865 -0.272312 7.53612e-21)
(-1.11164 -0.613142 5.74402e-21)
(-0.00545505 -0.00789774 1.59636e-20)
(-1.74401 0.528582 5.02633e-21)
(-1.25471 0.199138 -1.32058e-20)
(-0.293694 0.198124 -9.00787e-21)
(-0.918458 -0.61764 0)
(-1.01008 -0.595823 0)
(-1.36023 0.32025 0)
(-0.146786 0.0783586 0)
(0.00275655 0.00147205 0)
(-0.5633 -0.272832 -5.4513e-21)
(-0.798632 0.412131 1.81558e-21)
(-1.02949 -0.49338 8.12195e-21)
(0.01208 -0.0189879 -1.8968e-20)
(-1.47689 0.705419 -6.35264e-21)
(-0.762673 0.195039 -2.05507e-20)
(-0.317569 -0.102025 1.98186e-20)
(-0.81935 -0.250637 8.8645e-21)
(-1.13445 -0.57113 2.29096e-20)
(-1.74105 0.59879 -9.05334e-21)
(0.00525771 -0.0275224 0)
(0.00833271 -0.0155465 -1.66841e-20)
(-1.78405 0.549657 0)
(-1.08705 -0.608313 -1.71289e-20)
(-1.60005 0.683242 -1.11067e-20)
(-0.0423268 -0.07692 4.97741e-20)
(-1.22049 -0.466424 0)
(-0.148467 -0.178053 -3.72672e-20)
(-1.27761 -0.326709 1.25989e-20)
(-1.45038 0.774167 0)
(-0.851845 0.562743 -4.7362e-20)
(-1.12695 -0.0696255 2.35366e-20)
(-0.558438 -0.483137 -7.92268e-21)
(-1.20976 -0.237257 3.98929e-21)
(-1.22899 0.700758 1.52759e-20)
(-0.287522 -0.28393 -2.26766e-20)
(-0.134818 -0.177448 -3.33969e-20)
(-1.47788 0.832164 0)
(-1.31626 -0.31653 0)
(-0.868236 0.414986 -7.49945e-21)
(-0.94288 0.46321 0)
(-0.999446 -0.178619 -2.5038e-20)
(-1.0413 -0.198958 2.68016e-20)
(-0.385479 -0.271398 3.88489e-21)
(-0.355559 -0.269535 -4.13669e-21)
(-0.808158 0.39793 7.19281e-21)
(-0.98805 -0.146906 0)
(-0.430718 -0.303923 7.39586e-21)
(-1.07289 0.638379 0)
(-1.15935 -0.17892 -2.2824e-20)
(-0.377142 -0.34494 5.1878e-21)
(-1.04306 -0.603644 -1.39709e-20)
(-1.44413 0.358024 1.21394e-20)
(-0.113665 0.0562641 -3.50773e-20)
(-1.14719 -0.57748 0)
(-1.68535 0.575628 2.73109e-20)
(-0.00993624 -0.0238936 0)
(-0.0790265 0.0181901 -1.12769e-20)
(-1.4891 0.421528 -7.62681e-21)
(-1.08211 -0.580215 -9.0831e-21)
(-0.994096 -0.412484 -1.08481e-21)
(0.00628392 -0.00984524 1.01107e-20)
(-1.3055 0.71809 0)
(-0.60791 0.233495 1.42719e-20)
(-0.624603 0.221447 0)
(-0.486821 -0.268377 0)
(-0.855398 -0.100032 4.97686e-20)
(-0.458856 -0.239223 0)
(-0.838779 -0.124733 -3.16812e-20)
(-0.95713 0.556843 0)
(-0.872535 0.500003 0)
(-0.461569 -0.371589 -1.92958e-23)
(-1.10586 -0.147399 1.44898e-20)
(-0.426352 -0.356778 3.78566e-20)
(-1.06874 -0.125139 -3.07569e-20)
(-0.896445 -0.509454 0)
(0.0159341 -0.0171438 2.14472e-20)
(-1.47671 0.615296 0)
(-1.14415 -0.564508 -1.37599e-20)
(-1.72326 0.600883 2.92854e-21)
(0.00018736 -0.0313235 1.00269e-20)
(-0.640242 0.367587 -2.66418e-20)
(-0.61391 -0.451581 -1.71786e-20)
(-1.01772 -0.0262168 4.16409e-20)
(-1.00088 -0.63917 3.03379e-20)
(-1.40382 0.28772 3.12954e-20)
(-0.182613 0.125224 0)
(-0.170055 -0.197601 3.98673e-20)
(-1.27205 -0.311863 -1.33976e-20)
(-1.42046 0.768859 1.63956e-20)
(-1.10184 -0.508741 0)
(-1.61428 0.705115 0)
(0.0133413 -0.0293041 0)
(-1.10773 -0.523155 0)
(-1.65148 0.685915 7.08031e-21)
(0.0156642 -0.0314608 3.62226e-21)
(-1.15106 0.614194 -1.46612e-20)
(-1.15063 -0.242998 8.09773e-21)
(-0.289253 -0.260006 1.07149e-20)
(-0.434457 0.178828 -4.12962e-21)
(-0.667949 -0.385227 0)
(-0.894672 0.0355772 -1.26777e-22)
(-1.62124 0.708318 1.29409e-20)
(-0.0342242 -0.0737106 2.89537e-20)
(-1.23133 -0.467119 -6.27204e-21)
(-1.05121 -0.542783 0)
(-1.36885 0.388659 0)
(-0.107059 0.0189246 3.76923e-20)
(-0.0991004 -0.115725 9.41592e-21)
(-1.21007 -0.410876 2.0494e-20)
(-1.46717 0.662695 3.61996e-20)
(-0.825985 0.481903 0)
(-0.499319 -0.398545 -2.52361e-20)
(-1.05956 -0.104283 1.5767e-20)
(-1.05215 0.171912 2.10118e-22)
(-0.846112 -0.481936 1.43038e-20)
(-0.276421 0.11719 0)
(-0.546937 0.254149 1.87272e-22)
(-0.5919 -0.371964 -4.9538e-21)
(-0.917041 -0.0321431 -1.67364e-20)
(-0.0192228 -0.0599221 2.1096e-23)
(-1.21135 -0.495607 1.46036e-20)
(-1.65286 0.692813 1.3775e-20)
(-1.35963 0.633267 -6.76258e-21)
(-1.18997 -0.361349 -6.19575e-21)
(-0.151512 -0.151176 0)
(-0.52727 0.189297 -1.5475e-20)
(-0.546254 -0.291106 3.14592e-20)
(-0.833691 -0.0563526 -2.70864e-20)
(-1.49551 0.851768 1.0853e-20)
(-0.114598 -0.160542 1.48296e-20)
(-1.32661 -0.324254 -8.98003e-21)
(-0.764146 0.324101 -9.08114e-21)
(-0.92349 -0.168811 0)
(-0.400144 -0.248592 0)
(-0.840554 0.142962 -3.68285e-20)
(-0.776414 -0.332696 8.5716e-21)
(-0.293007 0.0126048 0)
(-1.00734 -0.559419 0)
(-1.31079 0.316866 2.54275e-20)
(-0.143503 0.0604361 0)
(-1.51543 0.823258 -5.46352e-21)
(-0.0292309 -0.0691835 -4.59823e-21)
(-1.2726 -0.393246 9.40662e-21)
(-1.50613 0.839308 1.52079e-20)
(-0.0415528 -0.0827487 0)
(-1.29278 -0.372351 -9.32262e-21)
(-0.109515 -0.130432 8.5483e-21)
(-1.22732 -0.390965 -1.2028e-20)
(-1.46621 0.68744 -3.33268e-20)
(-1.08515 0.156691 -1.17474e-20)
(-0.850966 -0.520371 -1.43778e-20)
(-0.303695 0.153166 0)
(-0.0192748 -0.0533784 4.21151e-21)
(-1.24656 -0.393732 -8.79215e-21)
(-1.45745 0.813031 0)
(-0.0605196 -0.0595589 0)
(-1.16233 -0.489738 -1.23499e-20)
(-1.51611 0.571537 -4.11722e-21)
(0.00809944 -0.00675844 1.71206e-20)
(-0.760626 -0.449654 8.06824e-21)
(-1.21462 0.54134 0)
(-1.08299 0.66647 -4.90152e-21)
(-0.857789 -0.352178 0)
(0.00535666 -0.00122717 1.71098e-20)
(-0.130343 -0.167507 -1.99985e-23)
(-1.29852 -0.33371 0)
(-1.4801 0.809557 0)
(0.000426059 -0.0471302 0)
(-1.18401 -0.513498 0)
(-1.68523 0.697781 1.74573e-20)
(-1.57264 0.750315 -1.15817e-20)
(-1.54769 0.727525 9.36796e-21)
(-0.0637771 -0.104972 -1.63371e-20)
(-1.26516 -0.412544 -2.55554e-21)
(-0.0724623 -0.109464 -2.65215e-20)
(-1.24994 -0.414219 4.72136e-21)
(-1.51983 0.541921 7.97111e-21)
(-1.14575 -0.512318 8.22019e-21)
(-0.0559086 -0.0445632 0)
(-0.236274 0.17075 0)
(-0.968212 -0.653841 0)
(-1.36561 0.247789 0)
(-0.616822 0.172434 0)
(-0.434738 -0.190343 -4.34938e-20)
(-0.788571 -0.141175 1.73932e-20)
(-1.47606 0.464653 2.28986e-20)
(-1.10359 -0.544453 3.08552e-21)
(-0.0679113 -0.0116222 3.31676e-20)
(-0.0815162 0.00561869 2.16503e-20)
(-1.45466 0.436047 -3.18841e-20)
(-1.08339 -0.557059 -4.27772e-21)
(-1.44465 0.842484 1.27955e-20)
(-0.166513 -0.208284 1.59723e-20)
(-1.31964 -0.287548 2.05448e-20)
(-0.984846 0.586556 0)
(-1.12974 -0.146714 6.80043e-21)
(-0.424305 -0.370152 -3.71096e-20)
(-0.873305 0.467937 0)
(-1.04367 -0.140137 3.16583e-20)
(-0.436013 -0.341746 -1.88062e-23)
(-1.31331 0.42734 -3.0418e-20)
(-1.06902 -0.479852 3.80303e-21)
(-0.110138 -0.0370064 -1.88967e-20)
(-1.34967 0.424927 0)
(-1.07008 -0.502084 3.58016e-21)
(-0.101936 -0.0216313 1.74113e-20)
(-0.497317 0.150136 0)
(-0.55546 -0.271161 -4.97013e-20)
(-0.796032 -0.0468229 1.52035e-20)
(-0.966434 0.494751 0)
(-1.0616 -0.194922 0)
(-0.35876 -0.287646 5.59769e-21)
(-0.0139993 0.00419304 -3.45739e-20)
(-1.09368 -0.631215 -3.14425e-20)
(-1.74671 0.504566 0)
(-1.68603 0.659831 8.71386e-21)
(0.0195787 -0.0294933 0)
(-1.06479 -0.542513 6.17662e-21)
(-1.67807 0.625466 -5.6586e-22)
(0.0216233 -0.0271233 0)
(-1.02747 -0.544421 -1.76315e-20)
(-0.678494 0.327179 1.07712e-20)
(-0.501469 -0.328537 -5.40753e-21)
(-0.939488 -0.0982095 -3.22204e-22)
(-1.04871 -0.505176 3.55738e-22)
(0.0149581 -0.0238626 2.90176e-20)
(-1.57694 0.685911 0)
(-1.41628 0.680482 2.89144e-20)
(-0.137434 -0.149734 1.79928e-20)
(-1.2197 -0.364731 0)
(0.0181853 -0.0221187 -4.31668e-21)
(-0.99057 -0.525812 -9.26428e-21)
(-1.5729 0.641268 0)
(-0.676458 0.0876526 2.52585e-20)
(-0.377497 -0.0540608 2.65629e-20)
(-0.697465 -0.211411 5.14916e-23)
(-1.05151 0.394519 -4.571e-21)
(-1.00743 -0.328676 -4.04541e-21)
(-0.219606 -0.127534 -1.94893e-20)
(-0.806199 -0.509901 3.27773e-20)
(-1.05292 0.124626 2.76148e-20)
(-0.353728 0.18673 0)
(0.0145051 -0.0251406 0)
(-1.09271 -0.58259 -5.98252e-21)
(-1.76986 0.589018 0)
(-1.03547 -0.561365 0)
(-1.36699 0.366236 0)
(-0.116987 0.0369835 0)
(-0.0896639 -0.134548 0)
(-1.52505 0.837534 -9.74699e-21)
(-1.31684 -0.348152 8.80998e-21)
(-1.12808 0.432282 0)
(-1.03697 -0.357329 2.02783e-21)
(-0.192676 -0.117491 1.90486e-20)
(-0.596685 0.144748 0)
(-0.441013 -0.174444 3.73226e-20)
(-0.758604 -0.13735 0)
(-1.12784 -0.567194 -2.16471e-20)
(-1.73949 0.624221 8.62068e-21)
(0.0114269 -0.0307556 0)
(-0.067473 -0.0838458 -1.9703e-20)
(-1.19052 -0.460446 7.86319e-22)
(-1.51466 0.628735 5.61812e-22)
(-1.57101 0.788074 0)
(-1.55483 0.78748 9.42071e-21)
(-0.0178446 -0.0594148 -1.06181e-20)
(-0.0102518 -0.0501362 -1.30458e-20)
(-1.23991 -0.429976 -5.85485e-21)
(-1.22081 -0.438301 4.81558e-21)
(-1.04382 0.266876 0)
(-0.913459 -0.425469 5.50123e-20)
(-0.200405 0.00220541 2.09302e-20)
(-1.01001 -0.49597 3.8468e-20)
(-1.25377 0.342385 0)
(-0.135648 0.0122416 -2.30342e-20)
(-0.784607 0.153808 -2.08864e-20)
(-0.781075 -0.284893 1.45896e-20)
(-0.299984 -0.0413607 3.23802e-20)
(-1.08798 -0.55727 1.38422e-20)
(-1.72696 0.6406 9.80359e-21)
(-1.06737 -0.568881 -6.56662e-21)
(0.0193625 -0.0312029 0)
(-1.74532 0.613527 -9.44287e-21)
(0.0208544 -0.0288118 0)
(-1.28481 0.509804 0)
(-1.10712 -0.404915 0)
(-0.139168 -0.101743 2.12553e-20)
(-1.72768 0.643637 1.4531e-20)
(-1.7231 0.650916 -2.68815e-20)
(-1.14068 -0.550203 9.05353e-21)
(-1.12377 -0.545984 -2.30507e-20)
(0.0121383 -0.0359169 2.93848e-20)
(0.0157156 -0.0347745 -2.62246e-23)
(-1.20763 0.316585 0)
(-0.978745 -0.508358 -3.60216e-20)
(-0.159669 0.0376398 2.98424e-20)
(-0.969982 0.288579 1.97808e-20)
(-0.952015 -0.355573 -2.45185e-20)
(-0.207836 -0.077361 0)
(-1.53762 0.836736 0)
(-0.0552822 -0.0993345 0)
(-1.30236 -0.37515 8.96108e-21)
(-1.05191 0.295972 1.45318e-20)
(-0.936548 -0.406609 -1.5295e-20)
(-0.190579 -0.0226271 -3.46118e-20)
(-0.845092 0.198363 8.48493e-21)
(-0.831714 -0.314718 -1.71372e-20)
(-0.268973 -0.0489461 1.89626e-20)
(-1.54355 0.807668 0)
(-0.0281 -0.0691093 0)
(-1.26712 -0.411913 -1.23546e-20)
(-1.14745 0.4666 0)
(-1.07019 -0.337248 4.26323e-21)
(-0.194632 -0.140101 -2.11098e-20)
(-0.899723 -0.634459 0)
(-1.25009 0.17854 0)
(-0.33885 0.23906 -1.16495e-21)
(-0.827125 0.502795 -1.21179e-21)
(-1.07908 -0.0873601 0)
(-0.520519 -0.427594 3.91091e-20)
(-1.06018 -0.65775 1.60338e-20)
(-0.0954489 0.0679788 0)
(-1.58554 0.385437 0)
(0.00507092 -0.0014038 -4.11506e-20)
(-0.732144 -0.358237 7.62996e-21)
(-1.04044 0.541967 -2.54001e-21)
(-1.09026 0.354686 0)
(-0.983015 -0.378364 1.50303e-20)
(-0.184911 -0.0721501 -1.75896e-20)
(-1.56755 0.801326 1.85606e-20)
(-0.0554499 -0.0998038 5.51672e-20)
(-1.28571 -0.395372 0)
(-0.642998 -0.52953 -1.03343e-20)
(-1.11586 -0.0150151 -1.56032e-20)
(-0.716594 0.478645 -1.07019e-20)
(-1.2507 0.739202 0)
(0.00400246 -0.0111362 -1.5302e-20)
(-1.052 -0.395022 0)
(-0.361437 0.105642 2.04417e-20)
(-0.372952 0.136272 -2.09209e-20)
(-0.701694 -0.360845 0)
(-0.860052 0.0680434 1.75844e-20)
(-0.716584 -0.395289 -3.14278e-20)
(-0.901267 0.0665892 -1.40398e-20)
(-0.782468 0.124 1.96345e-20)
(-0.748379 -0.289426 1.94793e-20)
(-0.315233 -0.00868702 0)
(-0.45668 0.168871 1.81546e-20)
(-0.409491 0.13028 0)
(-0.623215 -0.34136 -1.76412e-20)
(-0.853099 -0.000494831 1.5617e-20)
(-0.646547 -0.330968 1.77795e-20)
(-0.833386 0.0230794 1.102e-22)
(-1.03248 0.329715 1.25756e-21)
(-0.911583 -0.356271 -1.07348e-20)
(-0.222943 -0.0561409 -2.33321e-20)
(-0.977281 0.27105 -3.39683e-20)
(-0.906981 -0.373615 2.84466e-22)
(-0.218709 -0.035586 0)
(0.0229073 -0.027704 0)
(-1.02075 -0.564807 0)
(-1.72355 0.60502 9.12533e-21)
(-0.741268 0.350442 -9.92901e-21)
(-0.950283 -0.126714 0)
(-0.454459 -0.301645 1.00462e-20)
(-1.70274 0.66457 -2.80235e-20)
(-1.17008 -0.535358 1.07367e-20)
(0.00442522 -0.0422206 -1.67589e-20)
(-1.35048 0.475184 0)
(-1.41226 0.505896 1.66906e-20)
(-1.09969 -0.464969 -4.74222e-21)
(-1.12327 -0.477605 1.48775e-20)
(-0.100528 -0.0549762 -2.34756e-20)
(-0.0848525 -0.0545087 -2.18038e-20)
(-0.721094 0.313224 0)
(-0.918205 -0.141317 0)
(-0.438729 -0.273022 4.74378e-21)
(-1.0449 0.573353 1.17701e-20)
(-1.11699 -0.193833 0)
(-0.357993 -0.30641 1.24137e-20)
(-1.23231 0.435885 -8.73264e-21)
(-1.05855 -0.4274 0)
(-0.135 -0.0677676 0)
(-0.526237 0.0669085 1.99311e-20)
(-0.68928 -0.0926239 -9.38725e-21)
(-0.489901 -0.163586 9.99452e-21)
(-1.43034 0.470184 0)
(-1.10219 -0.517042 0)
(-0.078531 -0.0251755 -3.52572e-20)
(-0.579478 0.172024 0)
(-0.474292 -0.223086 5.49858e-21)
(-0.794965 -0.10802 0)
(-1.20347 0.340932 -1.94876e-20)
(-0.994826 -0.477094 -1.99854e-20)
(-0.150365 -0.00292647 -2.97895e-21)
(-1.0383 0.540168 1.19129e-20)
(-1.0969 -0.213125 0)
(-0.333735 -0.279866 2.55682e-20)
(-0.534202 0.101645 -1.97562e-20)
(-0.506332 0.10122 -8.87413e-21)
(-0.724659 -0.0988944 9.2892e-21)
(-0.48739 -0.186384 -1.98457e-20)
(-0.737808 -0.0745131 0)
(-0.518494 -0.213611 -3.52027e-20)
(-0.451428 0.117037 -8.97458e-21)
(-0.587772 -0.280476 2.32061e-20)
(-0.41836 0.113081 5.78033e-21)
(-0.783153 -0.0179246 -2.12217e-20)
(-0.638015 -0.313514 -1.11012e-20)
(-0.809846 0.0141979 3.16646e-22)
(-0.846425 0.381379 1.07703e-20)
(-0.913333 0.402152 0)
(-0.971709 -0.192001 1.86606e-20)
(-0.990352 -0.223501 -1.45888e-20)
(-0.369142 -0.245176 -2.25079e-20)
(-0.328636 -0.217822 3.74384e-20)
(-0.135181 -0.161875 0)
(-1.25855 -0.348557 -7.36389e-21)
(-1.45369 0.740622 -1.70648e-20)
(-0.377902 0.258 1.41371e-20)
(-1.18932 0.144898 1.80987e-20)
(-0.861571 -0.60904 -3.43427e-20)
(-0.110073 -0.142813 -1.8602e-20)
(-0.0963716 -0.128468 1.49044e-20)
(-1.265 -0.371722 6.3727e-21)
(-1.24902 -0.392423 1.10012e-20)
(-1.49476 0.755617 4.33475e-20)
(-1.50814 0.729038 -2.25182e-20)
(-0.547088 0.342086 1.9583e-20)
(-0.704436 -0.512362 -1.63709e-20)
(-1.05621 0.0317171 4.03192e-21)
(-0.540658 0.0109202 3.32968e-20)
(-0.492649 -0.107332 0)
(-0.623188 -0.0975668 -3.26929e-20)
(-1.45723 0.50576 -7.92032e-21)
(-1.12448 -0.506095 -1.68076e-20)
(-0.071685 -0.0398265 0)
(-0.649323 0.268166 0)
(-0.474844 -0.286802 -4.51775e-21)
(-0.88736 -0.108417 -1.61662e-20)
(-1.08371 0.557239 0)
(-1.11156 -0.231701 0)
(-0.306982 -0.260484 -2.38255e-20)
(-1.37559 0.730708 -1.8686e-20)
(-1.3676 0.699458 0)
(-1.24629 -0.309753 3.99473e-21)
(-0.187504 -0.203093 -2.27434e-20)
(-1.22794 -0.321713 -1.08914e-20)
(-0.178148 -0.188102 3.07682e-20)
(-1.34037 0.516438 1.65226e-20)
(-1.12247 -0.426199 1.5725e-20)
(-0.114311 -0.0862809 1.27635e-20)