/*--------------------------------*- C++ -*----------------------------------*\
  =========                 |
  \\      /  F ield         | OpenFOAM: The Open Source CFD Toolbox
   \\    /   O peration     | Website:  https://openfoam.org
    \\  /    A nd           | Version:  6
     \\/     M anipulation  |
\*---------------------------------------------------------------------------*/
FoamFile
{
    version     2.0;
    format      ascii;
    class       volScalarField;
    location    "0";
    object      p;
}
// * * * * * * * * * * * * * * * * * * * * * * * * * * * * * * * * * * * * * //

dimensions      [0 2 -2 0 0 0 0];

internalField   nonuniform List<scalar> 
11644
(
0.121092
0.122151
0.12414
0.127062
0.130941
0.135789
0.141605
0.148378
0.156076
0.164639
0.173968
0.183914
0.194267
0.204743
0.214988
0.22458
0.233056
0.239942
0.244811
0.247334
0.247334
0.244811
0.239942
0.233056
0.224581
0.214988
0.204743
0.194267
0.183915
0.173969
0.16464
0.156077
0.148379
0.141606
0.13579
0.130942
0.127063
0.124141
0.122152
0.121093
0.119952
0.120943
0.122886
0.125783
0.129649
0.134496
0.140329
0.147145
0.154924
0.16362
0.173149
0.183378
0.194105
0.205053
0.215855
0.226061
0.235159
0.242608
0.247908
0.250666
0.250666
0.247908
0.242608
0.235159
0.226062
0.215855
0.205053
0.194106
0.183378
0.17315
0.163621
0.154925
0.147146
0.14033
0.134497
0.12965
0.125784
0.122887
0.120944
0.119953
0.117079
0.11803
0.11993
0.122789
0.126628
0.131467
0.137329
0.14423
0.152178
0.16116
0.17113
0.181993
0.19358
0.205626
0.217746
0.229427
0.240041
0.248882
0.255257
0.258605
0.258605
0.255258
0.248882
0.240042
0.229428
0.217747
0.205627
0.193581
0.181994
0.171131
0.161161
0.152179
0.144231
0.13733
0.131468
0.126629
0.12279
0.119931
0.118031
0.11708
0.112335
0.113252
0.1151
0.117897
0.121674
0.126473
0.13234
0.139327
0.147485
0.156858
0.167469
0.179296
0.192242
0.206087
0.220438
0.23469
0.248027
0.259429
0.267828
0.272297
0.272297
0.267828
0.259429
0.248027
0.234691
0.220439
0.206088
0.192243
0.179297
0.16747
0.156859
0.147486
0.139328
0.132341
0.126474
0.121675
0.117897
0.1151
0.113253
0.112335
0.105776
0.106645
0.108404
0.111084
0.114731
0.119405
0.125187
0.132173
0.140475
0.150215
0.161521
0.174504
0.189213
0.205548
0.223162
0.241351
0.259049
0.274758
0.286672
0.293126
0.293126
0.286672
0.274759
0.25905
0.241352
0.223163
0.205549
0.189214
0.174505
0.161522
0.150216
0.140475
0.132174
0.125188
0.119406
0.114731
0.111085
0.108405
0.106646
0.105777
0.0974616
0.0982535
0.0998679
0.102344
0.10574
0.11014
0.115657
0.122433
0.130651
0.140533
0.152346
0.166407
0.183045
0.202443
0.224453
0.248461
0.272716
0.295696
0.313656
0.323624
0.323625
0.313657
0.295697
0.272717
0.248462
0.224454
0.202444
0.183047
0.166408
0.152347
0.140534
0.130652
0.122434
0.115657
0.110141
0.105741
0.102344
0.0998687
0.0982543
0.0974623
0.0874609
0.0881379
0.0895305
0.0916827
0.0946615
0.0985651
0.10353
0.10974
0.117439
0.126948
0.138688
0.153225
0.171363
0.194058
0.221421
0.253521
0.274317
0.307681
0.335219
0.353376
0.357537
0.346545
0.323358
0.293188
0.253523
0.221423
0.194059
0.171364
0.153226
0.138689
0.126949
0.11744
0.109741
0.103531
0.0985659
0.0946622
0.0916834
0.0895313
0.0881386
0.0874616
0.0759038
0.0764218
0.077502
0.0791864
0.0815395
0.0846591
0.0886856
0.0938162
0.100324
0.108587
0.11914
0.132798
0.150705
0.172978
0.20275
0.238787
0.284393
0.333231
0.380305
0.41324
0.42058
0.399354
0.357738
0.308225
0.262187
0.221294
0.188791
0.150706
0.1328
0.119141
0.108588
0.100325
0.093817
0.0886863
0.0846599
0.0815403
0.0791871
0.0775027
0.0764225
0.0759045
0.0630088
0.0633228
0.0639965
0.0650605
0.0665618
0.0685749
0.0712115
0.0746347
0.0790811
0.0848851
0.0925327
0.102833
0.117183
0.142652
0.172572
0.21454
0.266567
0.337003
0.415677
0.481108
0.503582
0.470404
0.399968
0.321822
0.254236
0.191606
0.156887
0.117184
0.102834
0.0925338
0.0848861
0.079082
0.0746355
0.0712122
0.0685756
0.0665624
0.0650612
0.0639972
0.0633235
0.0630094
0.0490927
0.0491653
0.0493515
0.0496607
0.050106
0.0507133
0.0515251
0.0526096
0.0540752
0.0560831
0.0588502
0.0627041
0.0683444
0.0917158
0.11222
0.149941
0.206439
0.301501
0.433689
0.576758
0.638285
0.5611
0.415376
0.287955
0.192129
0.126661
0.101146
0.0683458
0.0627051
0.0588511
0.0560839
0.0540759
0.0526102
0.0515257
0.0507139
0.0501066
0.0496612
0.049352
0.0491658
0.0490932
0.0345682
0.034378
0.0340283
0.0334998
0.032759
0.0317623
0.0304507
0.0287443
0.0265388
0.023696
0.0199779
0.0148448
0.00732493
0.0210818
0.0172204
0.0340973
0.0619469
0.125637
0.305319
0.64235
0.875408
0.618213
0.298784
0.113786
0.0449336
0.0154398
0.0191744
0.00732571
0.0148455
0.0199785
0.0236966
0.0265393
0.0287448
0.0304513
0.0317628
0.0327595
0.0335002
0.0340288
0.0343785
0.0345687
0.019922
0.019472
0.018588
0.0172199
0.0152848
0.0126641
0.0091882
0.00461385
-0.0014034
-0.00934779
-0.0199585
-0.0346081
-0.0558018
-0.0577094
-0.0942582
-0.117146
-0.160959
-0.208402
-0.19456
-0.198905
-0.226053
-0.168835
-0.118478
-0.0745719
-0.0558019
-0.0346079
-0.0199583
-0.0093475
-0.00140308
0.0046142
0.00918857
0.0126645
0.0152851
0.0172203
0.0185884
0.0194724
0.0199224
0.0056732
0.00499335
0.00363379
0.00151909
-0.00147375
-0.00552307
-0.0108847
-0.0179242
-0.0271592
-0.0393184
-0.0554659
-0.0773272
-0.107554
-0.123666
-0.181005
-0.232509
-0.32083
-0.455006
-0.665718
-0.659056
-0.442892
-0.313164
-0.216667
-0.15048
-0.107555
-0.0773276
-0.055466
-0.0393184
-0.0271591
-0.017924
-0.0108845
-0.00552281
-0.00147346
0.00151939
0.0036341
0.00499367
0.00567353
-0.0076836
-0.00853965
-0.0102655
-0.0129504
-0.0167373
-0.0218327
-0.0285282
-0.0372304
-0.0484998
-0.0631034
-0.082111
-0.107051
-0.139663
-0.162852
-0.219806
-0.27278
-0.346347
-0.429905
-0.496454
-0.493309
-0.420323
-0.334412
-0.251867
-0.190271
-0.139664
-0.107052
-0.0821114
-0.0631036
-0.0484999
-0.0372304
-0.0285281
-0.0218326
-0.0167371
-0.0129502
-0.0102653
-0.00853941
-0.00768335
-0.0197357
-0.0207009
-0.0226548
-0.0256871
-0.0299388
-0.0356106
-0.042979
-0.0524163
-0.0644141
-0.0796121
-0.0988389
-0.123111
-0.153165
-0.177125
-0.222842
-0.264549
-0.31201
-0.352955
-0.375829
-0.37798
-0.375378
-0.37876
-0.374062
-0.348862
-0.302682
-0.246114
-0.199857
-0.153166
-0.123112
-0.0988394
-0.0796124
-0.0644143
-0.0524164
-0.042979
-0.0356105
-0.0299387
-0.025687
-0.0226547
-0.0207007
-0.0197355
-0.0301938
-0.0311999
-0.033241
-0.0363962
-0.0407876
-0.0465854
-0.0540167
-0.0633738
-0.07502
-0.0893954
-0.107004
-0.128243
-0.152858
-0.175416
-0.208796
-0.23926
-0.268773
-0.289276
-0.301892
-0.306961
-0.307762
-0.306257
-0.299512
-0.284781
-0.262524
-0.224222
-0.192998
-0.152859
-0.128244
-0.107004
-0.0893957
-0.0750202
-0.0633739
-0.0540168
-0.0465854
-0.0407875
-0.0363961
-0.0332409
-0.0311998
-0.0301937
-0.0389068
-0.0398946
-0.0419006
-0.0449876
-0.0492502
-0.0548174
-0.0618555
-0.0705677
-0.0811886
-0.0939655
-0.10913
-0.126885
-0.147396
-0.169734
-0.186658
-0.208439
-0.227731
-0.240787
-0.24867
-0.252482
-0.253374
-0.251847
-0.247123
-0.238054
-0.217523
-0.197986
-0.169734
-0.147397
-0.126886
-0.109131
-0.0939658
-0.0811889
-0.0705679
-0.0618555
-0.0548175
-0.0492502
-0.0449876
-0.0419006
-0.0398946
-0.0389068
-0.0458508
-0.0467754
-0.0486539
-0.051531
-0.0554724
-0.0605653
-0.0669164
-0.0746476
-0.0838831
-0.0947229
-0.107198
-0.121212
-0.13641
-0.151708
-0.166833
-0.180533
-0.193699
-0.201649
-0.206554
-0.209053
-0.20968
-0.208621
-0.205579
-0.199961
-0.1861
-0.174192
-0.151709
-0.13641
-0.121212
-0.107199
-0.0947232
-0.0838833
-0.0746477
-0.0669165
-0.0605653
-0.0554724
-0.051531
-0.0486539
-0.0467754
-0.0458508
-0.0511028
-0.0519345
-0.0536245
-0.0562007
-0.0597025
-0.06418
-0.0696898
-0.076287
-0.084012
-0.092864
-0.102756
-0.113445
-0.12448
-0.135221
-0.147219
-0.156085
-0.165242
-0.170051
-0.1731
-0.174681
-0.175087
-0.174405
-0.17249
-0.169005
-0.159567
-0.152086
-0.135222
-0.124481
-0.113445
-0.102756
-0.0928642
-0.0840121
-0.0762872
-0.0696899
-0.0641801
-0.0597025
-0.0562007
-0.0536245
-0.0519345
-0.0511027
-0.0548097
-0.0555328
-0.0570017
-0.0592306
-0.0622376
-0.0660437
-0.0706676
-0.0761173
-0.0823778
-0.0893923
-0.0970319
-0.105036
-0.112951
-0.120305
-0.129528
-0.135279
-0.141719
-0.144574
-0.146443
-0.147417
-0.147669
-0.147246
-0.14607
-0.143931
-0.137442
-0.132734
-0.120305
-0.112951
-0.105036
-0.097032
-0.0893925
-0.0823779
-0.0761174
-0.0706677
-0.0660438
-0.0622376
-0.0592306
-0.0570017
-0.0555328
-0.0548098
-0.0571601
-0.0577696
-0.0590078
-0.0608781
-0.0633829
-0.0665224
-0.0702893
-0.0746609
-0.0795882
-0.0849831
-0.0907071
-0.0965364
-0.101991
-0.106066
-0.114067
-0.117964
-0.121626
-0.123677
-0.124841
-0.125524
-0.125818
-0.125717
-0.125142
-0.123927
-0.117848
-0.116789
-0.106066
-0.101991
-0.0965365
-0.0907072
-0.0849832
-0.0795883
-0.074661
-0.0702893
-0.0665225
-0.0633829
-0.0608781
-0.0590078
-0.0577697
-0.0571602
-0.0583593
-0.0588586
-0.0598726
-0.0613977
-0.0634255
-0.0659426
-0.0689253
-0.072334
-0.0761037
-0.0801339
-0.0842823
-0.0883611
-0.0921201
-0.0952769
-0.0977707
-0.103277
-0.10433
-0.105146
-0.105665
-0.105986
-0.106128
-0.106065
-0.105753
-0.105117
-0.104093
-0.0977707
-0.095277
-0.0921202
-0.0883612
-0.0842824
-0.080134
-0.0761038
-0.0723341
-0.0689254
-0.0659426
-0.0634256
-0.0613978
-0.0598727
-0.0588586
-0.0583593
-0.0586118
-0.0590094
-0.0598168
-0.0610257
-0.0626216
-0.0645831
-0.0668785
-0.0694609
-0.0722624
-0.0751877
-0.0781115
-0.0808855
-0.0833476
-0.0853382
-0.0868431
-0.087997
-0.0883215
-0.088341
-0.0883154
-0.0882994
-0.0882994
-0.0883154
-0.0883409
-0.0883214
-0.0879969
-0.0868431
-0.0853382
-0.0833477
-0.0808855
-0.0781116
-0.0751877
-0.0722624
-0.0694609
-0.0668786
-0.0645832
-0.0626217
-0.0610258
-0.0598168
-0.0590094
-0.0586119
-0.0581093
-0.0584165
-0.0590407
-0.059971
-0.0611897
-0.0626723
-0.0643842
-0.066278
-0.06829
-0.0703372
-0.0723176
-0.0741175
-0.0756277
-0.0767715
-0.0775674
-0.0779914
-0.0781299
-0.078205
-0.0782679
-0.0783082
-0.0783082
-0.0782679
-0.078205
-0.0781298
-0.0779914
-0.0775674
-0.0767715
-0.0756277
-0.0741176
-0.0723177
-0.0703373
-0.0682901
-0.066278
-0.0643842
-0.0626723
-0.0611897
-0.059971
-0.0590407
-0.0584166
-0.0581094
-0.0570234
-0.0572529
-0.0577194
-0.0584113
-0.0593101
-0.0603909
-0.0616198
-0.0629528
-0.0643335
-0.0656933
-0.0669532
-0.0680325
-0.0688639
-0.0694163
-0.0697195
-0.069805
-0.069774
-0.0697202
-0.06968
-0.0696608
-0.0696608
-0.06968
-0.0697202
-0.069774
-0.069805
-0.0697195
-0.0694163
-0.0688639
-0.0680325
-0.0669532
-0.0656933
-0.0643336
-0.0629528
-0.0616199
-0.0603909
-0.0593102
-0.0584114
-0.0577195
-0.0572529
-0.0570234
-0.0555024
-0.0556667
-0.0560012
-0.0564943
-0.0571283
-0.0578797
-0.0587175
-0.059603
-0.0604886
-0.0613199
-0.0620387
-0.0625913
-0.0629414
-0.0630848
-0.0630591
-0.0629167
-0.0627273
-0.0625533
-0.0624294
-0.0623672
-0.0623672
-0.0624294
-0.0625533
-0.0627273
-0.0629167
-0.0630591
-0.0630848
-0.0629415
-0.0625914
-0.0620387
-0.06132
-0.0604887
-0.059603
-0.0587176
-0.0578797
-0.0571284
-0.0564944
-0.0560012
-0.0556667
-0.0555024
-0.053671
-0.053782
-0.0540084
-0.0543395
-0.0547591
-0.0552462
-0.0557739
-0.0563094
-0.0568143
-0.0572471
-0.0575668
-0.0577405
-0.0577534
-0.0576172
-0.0573733
-0.0570761
-0.0567834
-0.0565425
-0.0563784
-0.0562972
-0.0562972
-0.0563784
-0.0565426
-0.0567835
-0.0570762
-0.0573734
-0.0576172
-0.0577534
-0.0577406
-0.0575668
-0.0572472
-0.0568144
-0.0563094
-0.055774
-0.0552463
-0.0547592
-0.0543395
-0.0540084
-0.053782
-0.053671
-0.0516314
-0.0516997
-0.0518395
-0.0520414
-0.0522912
-0.0525708
-0.0528576
-0.053125
-0.0533431
-0.0534815
-0.053513
-0.0534204
-0.0532028
-0.0528816
-0.0524993
-0.052107
-0.0517542
-0.0514767
-0.0512912
-0.0511998
-0.0511998
-0.0512912
-0.0514767
-0.0517542
-0.052107
-0.0524993
-0.0528817
-0.0532028
-0.0534204
-0.0535131
-0.0534815
-0.0533431
-0.053125
-0.0528577
-0.0525709
-0.0522913
-0.0520415
-0.0518396
-0.0516997
-0.0516315
-0.0494657
-0.0495004
-0.0495725
-0.0496736
-0.0497917
-0.0499119
-0.0500157
-0.0500823
-0.0500892
-0.0500154
-0.0498446
-0.0495702
-0.0492011
-0.0487633
-0.0482982
-0.0478522
-0.0474666
-0.0471694
-0.0469722
-0.046875
-0.046875
-0.0469722
-0.0471695
-0.0474667
-0.0478523
-0.0482983
-0.0487634
-0.0492011
-0.0495703
-0.0498447
-0.0500155
-0.0500893
-0.0500823
-0.0500158
-0.0499119
-0.0497918
-0.0496736
-0.0495725
-0.0495004
-0.0494657
-0.0472378
-0.0472469
-0.0472671
-0.0472914
-0.04731
-0.0473107
-0.047279
-0.0471992
-0.0470552
-0.0468333
-0.0465253
-0.0461325
-0.0456692
-0.0451635
-0.0446542
-0.0441823
-0.0437828
-0.0434778
-0.0432759
-0.0431764
-0.0431764
-0.043276
-0.0434779
-0.0437829
-0.0441824
-0.0446543
-0.0451636
-0.0456693
-0.0461326
-0.0465254
-0.0468333
-0.0470552
-0.0471992
-0.0472791
-0.0473107
-0.04731
-0.0472914
-0.0472671
-0.0472469
-0.0472378
-0.0449968
-0.0449868
-0.0449684
-0.0449358
-0.0448812
-0.044795
-0.0446662
-0.0444833
-0.0442355
-0.0439148
-0.043519
-0.0430544
-0.0425383
-0.0419991
-0.0414721
-0.0409936
-0.0405932
-0.0402891
-0.0400877
-0.0399884
-0.0399884
-0.0400878
-0.0402891
-0.0405933
-0.0409938
-0.0414722
-0.0419992
-0.0425385
-0.0430545
-0.0435191
-0.0439149
-0.0442355
-0.0444833
-0.0446662
-0.044795
-0.0448812
-0.0449358
-0.0449684
-0.0449868
-0.0449968
-0.0427791
-0.0427554
-0.0427092
-0.042636
-0.0425295
-0.0423825
-0.042187
-0.0419351
-0.04162
-0.0412381
-0.0407912
-0.0402888
-0.0397496
-0.0392007
-0.0386743
-0.0382022
-0.0378095
-0.0375118
-0.0373145
-0.0372169
-0.037217
-0.0373146
-0.0375119
-0.0378097
-0.0382023
-0.0386745
-0.0392008
-0.0397497
-0.0402889
-0.0407913
-0.0412381
-0.04162
-0.0419351
-0.0421871
-0.0423825
-0.0425295
-0.042636
-0.0427092
-0.0427554
-0.0427791
-0.0406109
-0.0405777
-0.0405126
-0.0404116
-0.0402703
-0.0400833
-0.039845
-0.0395504
-0.0391957
-0.0387807
-0.0383098
-0.0377941
-0.0372526
-0.0367104
-0.0361967
-0.0357392
-0.0353598
-0.0350721
-0.034881
-0.0347862
-0.0347862
-0.034881
-0.0350722
-0.03536
-0.0357393
-0.0361968
-0.0367106
-0.0372527
-0.0377942
-0.0383098
-0.0387807
-0.0391958
-0.0395504
-0.039845
-0.0400833
-0.0402703
-0.0404116
-0.0405126
-0.0405777
-0.0406109
-0.0385101
-0.038471
-0.0383937
-0.0382753
-0.0381125
-0.0379016
-0.0376389
-0.0373216
-0.0369484
-0.036521
-0.0360456
-0.035534
-0.0350043
-0.0344798
-0.0339863
-0.0335485
-0.0331857
-0.0329099
-0.0327262
-0.0326347
-0.0326348
-0.0327262
-0.03291
-0.0331858
-0.0335487
-0.0339865
-0.0344799
-0.0350044
-0.0355341
-0.0360457
-0.0365211
-0.0369485
-0.0373217
-0.0376389
-0.0379015
-0.0381124
-0.0382753
-0.0383937
-0.0384709
-0.0385101
-0.0364883
-0.0364458
-0.0363617
-0.0362339
-0.0360599
-0.0358375
-0.0355645
-0.0352396
-0.0348633
-0.0344386
-0.0339724
-0.0334767
-0.0329682
-0.0324682
-0.0319996
-0.0315843
-0.0312396
-0.0309767
-0.0308008
-0.030713
-0.0307131
-0.0308009
-0.0309768
-0.0312397
-0.0315844
-0.0319997
-0.0324682
-0.0329683
-0.0334767
-0.0339725
-0.0344386
-0.0348633
-0.0352396
-0.0355645
-0.0358375
-0.0360599
-0.0362339
-0.0363617
-0.0364457
-0.0364882
-0.0345517
-0.0345079
-0.0344213
-0.0342901
-0.0341129
-0.0338882
-0.0336153
-0.033294
-0.0329257
-0.0325142
-0.0320668
-0.0315947
-0.0311134
-0.0306417
-0.0302003
-0.0298086
-0.0294825
-0.0292326
-0.0290647
-0.0289806
-0.0289806
-0.0290648
-0.0292327
-0.0294825
-0.0298087
-0.0302004
-0.0306418
-0.0311134
-0.0315947
-0.0320668
-0.0325142
-0.0329256
-0.0332939
-0.0336153
-0.0338882
-0.0341128
-0.0342901
-0.0344213
-0.0345078
-0.0345516
-0.032703
-0.0326595
-0.0325734
-0.0324435
-0.0322688
-0.0320489
-0.0317836
-0.0314738
-0.0311213
-0.0307304
-0.030308
-0.0298643
-0.0294134
-0.028972
-0.0285584
-0.0281903
-0.0278824
-0.0276453
-0.027485
-0.0274045
-0.0274045
-0.0274851
-0.0276453
-0.0278825
-0.0281904
-0.0285585
-0.028972
-0.0294134
-0.0298643
-0.0303079
-0.0307304
-0.0311213
-0.0314737
-0.0317836
-0.0320488
-0.0322687
-0.0324434
-0.0325733
-0.0326594
-0.0327029
-0.0309418
-0.0308998
-0.0308165
-0.0306912
-0.0305234
-0.0303131
-0.030061
-0.0297681
-0.0294368
-0.0290711
-0.0286774
-0.0282649
-0.0278458
-0.027435
-0.0270489
-0.0267036
-0.026413
-0.0261878
-0.0260347
-0.0259574
-0.0259574
-0.0260347
-0.0261878
-0.026413
-0.0267036
-0.0270489
-0.0274349
-0.0278457
-0.0282648
-0.0286773
-0.0290711
-0.0294367
-0.029768
-0.0300609
-0.030313
-0.0305233
-0.0306911
-0.0308164
-0.0308997
-0.0309417
-0.0292658
-0.029226
-0.0291473
-0.0290289
-0.028871
-0.0286739
-0.0284386
-0.0281664
-0.0278595
-0.0275218
-0.0271588
-0.0267784
-0.0263912
-0.0260105
-0.0256507
-0.0253269
-0.0250524
-0.024838
-0.0246914
-0.0246171
-0.0246171
-0.0246914
-0.024838
-0.0250523
-0.0253268
-0.0256507
-0.0260104
-0.0263911
-0.0267783
-0.0271587
-0.0275217
-0.0278594
-0.0281662
-0.0284385
-0.0286738
-0.0288709
-0.0290288
-0.0291472
-0.0292259
-0.0292657
-0.0276712
-0.0276342
-0.0275611
-0.0274514
-0.0273053
-0.0271237
-0.0269075
-0.0266581
-0.0263777
-0.0260693
-0.0257376
-0.0253893
-0.0250333
-0.0246812
-0.0243462
-0.0240421
-0.0237822
-0.0235776
-0.0234367
-0.0233649
-0.0233649
-0.0234366
-0.0235775
-0.0237821
-0.024042
-0.024346
-0.0246811
-0.0250331
-0.0253891
-0.0257374
-0.0260691
-0.0263775
-0.026658
-0.0269074
-0.0271236
-0.0273052
-0.0274512
-0.027561
-0.0276341
-0.027671
-0.0261529
-0.0261192
-0.0260524
-0.0259524
-0.0258196
-0.0256548
-0.025459
-0.0252337
-0.0249804
-0.0247016
-0.024401
-0.0240838
-0.0237576
-0.0234324
-0.0231202
-0.022834
-0.022587
-0.0223909
-0.0222548
-0.0221852
-0.0221852
-0.0222548
-0.0223908
-0.0225869
-0.0228339
-0.02312
-0.0234322
-0.0237574
-0.0240836
-0.0244008
-0.0247014
-0.0249802
-0.0252335
-0.0254589
-0.0256546
-0.0258194
-0.0259523
-0.0260523
-0.026119
-0.0261528
-0.0247057
-0.0246754
-0.0246155
-0.0245257
-0.0244067
-0.0242594
-0.0240848
-0.0238838
-0.0236576
-0.023408
-0.0231375
-0.02285
-0.0225518
-0.0222514
-0.0219599
-0.0216897
-0.0214539
-0.0212649
-0.0211329
-0.021065
-0.021065
-0.0211328
-0.0212648
-0.0214537
-0.0216894
-0.0219596
-0.0222512
-0.0225515
-0.0228497
-0.0231372
-0.0234078
-0.0236574
-0.0238835
-0.0240846
-0.0242593
-0.0244066
-0.0245256
-0.0246153
-0.0246752
-0.0247056
-0.0233239
-0.023297
-0.0232441
-0.0231649
-0.02306
-0.0229303
-0.0227767
-0.0225997
-0.0224001
-0.0221787
-0.0219368
-0.0216773
-0.021405
-0.0211273
-0.0208542
-0.0205979
-0.0203717
-0.0201886
-0.0200597
-0.0199931
-0.0199931
-0.0200596
-0.0201885
-0.0203715
-0.0205976
-0.0208539
-0.0211269
-0.0214047
-0.021677
-0.0219365
-0.0221784
-0.0223999
-0.0225995
-0.0227765
-0.0229301
-0.0230598
-0.0231647
-0.0232439
-0.0232969
-0.0233237
-0.0220015
-0.0219782
-0.0219322
-0.0218635
-0.0217726
-0.0216604
-0.0215273
-0.0213737
-0.0211995
-0.0210048
-0.0207899
-0.0205563
-0.0203076
-0.0200503
-0.0197935
-0.0195492
-0.019331
-0.0191525
-0.0190259
-0.0189602
-0.0189601
-0.0190258
-0.0191523
-0.0193307
-0.0195489
-0.0197931
-0.0200499
-0.0203073
-0.020556
-0.0207896
-0.0210045
-0.0211993
-0.0213735
-0.0215271
-0.0216602
-0.0217725
-0.0218634
-0.0219321
-0.021978
-0.0220014
-0.020733
-0.0207132
-0.0206741
-0.0206156
-0.0205383
-0.0204429
-0.0203296
-0.0201982
-0.0200482
-0.0198785
-0.0196885
-0.0194786
-0.0192514
-0.019012
-0.0187694
-0.0185352
-0.0183235
-0.0181485
-0.0180235
-0.0179583
-0.0179582
-0.0180234
-0.0181483
-0.0183232
-0.0185349
-0.0187691
-0.0190117
-0.019251
-0.0194783
-0.0196882
-0.0198782
-0.0200479
-0.020198
-0.0203294
-0.0204427
-0.0205382
-0.0206155
-0.0206739
-0.0207131
-0.0207329
-0.0195132
-0.0194966
-0.0194641
-0.0194155
-0.0193512
-0.0192718
-0.0191772
-0.0190667
-0.0189391
-0.0187926
-0.0186254
-0.018437
-0.0182288
-0.0180053
-0.0177748
-0.017549
-0.0173422
-0.0171698
-0.0170457
-0.0169807
-0.0169806
-0.0170455
-0.0171696
-0.017342
-0.0175486
-0.0177744
-0.0180049
-0.0182284
-0.0184367
-0.0186251
-0.0187923
-0.0189389
-0.0190665
-0.019177
-0.0192716
-0.019351
-0.0194153
-0.019464
-0.0194965
-0.0195131
-0.018337
-0.0183236
-0.0182973
-0.0182579
-0.0182059
-0.0181414
-0.0180642
-0.0179732
-0.0178662
-0.0177407
-0.0175942
-0.0174249
-0.0172334
-0.0170236
-0.0168033
-0.0165843
-0.0163814
-0.0162106
-0.0160868
-0.0160218
-0.0160217
-0.0160867
-0.0162104
-0.0163811
-0.016584
-0.016803
-0.0170233
-0.0172331
-0.0174246
-0.0175939
-0.0177405
-0.017866
-0.017973
-0.0180641
-0.0181413
-0.0182057
-0.0182578
-0.0182972
-0.0183235
-0.0183369
-0.0172001
-0.0171896
-0.0171691
-0.0171383
-0.0170976
-0.0170469
-0.0169857
-0.0169123
-0.0168239
-0.0167174
-0.0165891
-0.0164366
-0.0162597
-0.0160615
-0.0158498
-0.0156362
-0.0154361
-0.0152662
-0.0151425
-0.0150772
-0.0150771
-0.0151423
-0.015266
-0.0154358
-0.0156359
-0.0158495
-0.0160613
-0.0162594
-0.0164364
-0.0165889
-0.0167172
-0.0168238
-0.0169121
-0.0169856
-0.0170468
-0.0170975
-0.0171382
-0.017169
-0.0171896
-0.0172001
-0.0160988
-0.016091
-0.0160756
-0.0160527
-0.0160222
-0.0159841
-0.0159372
-0.0158795
-0.0158078
-0.0157178
-0.0156055
-0.0154676
-0.0153031
-0.0151147
-0.0149099
-0.0147006
-0.0145025
-0.0143332
-0.0142091
-0.0141435
-0.0141435
-0.014209
-0.014333
-0.0145023
-0.0147004
-0.0149097
-0.0151145
-0.0153028
-0.0154674
-0.0156054
-0.0157177
-0.0158076
-0.0158794
-0.0159371
-0.015984
-0.0160222
-0.0160526
-0.0160756
-0.0160909
-0.0160988
-0.01503
-0.0150245
-0.0150138
-0.0149978
-0.0149765
-0.0149494
-0.0149152
-0.0148713
-0.0148139
-0.0147383
-0.0146396
-0.014514
-0.0143599
-0.0141797
-0.0139806
-0.0137747
-0.0135781
-0.0134089
-0.0132845
-0.0132185
-0.0132185
-0.0132844
-0.0134088
-0.0135779
-0.0137745
-0.0139804
-0.0141795
-0.0143597
-0.0145139
-0.0146395
-0.0147382
-0.0148138
-0.0148712
-0.0149151
-0.0149494
-0.0149765
-0.0149978
-0.0150138
-0.0150244
-0.01503
-0.0139913
-0.0139878
-0.0139811
-0.0139712
-0.0139578
-0.0139402
-0.0139169
-0.0138847
-0.0138395
-0.0137759
-0.0136887
-0.0135732
-0.0134277
-0.0132542
-0.0130597
-0.0128566
-0.0126612
-0.0124922
-0.0123674
-0.0123012
-0.0123011
-0.0123674
-0.0124921
-0.0126611
-0.0128564
-0.0130596
-0.0132541
-0.0134276
-0.0135732
-0.0136886
-0.0137759
-0.0138394
-0.0138847
-0.0139169
-0.0139403
-0.0139578
-0.0139712
-0.0139812
-0.0139878
-0.0139913
-0.0129813
-0.0129794
-0.0129761
-0.0129713
-0.0129645
-0.0129549
-0.0129405
-0.012918
-0.0128827
-0.012829
-0.0127509
-0.0126437
-0.0125052
-0.0123371
-0.0121464
-0.0119456
-0.0117514
-0.0115827
-0.0114578
-0.0113914
-0.0113914
-0.0114578
-0.0115826
-0.0117514
-0.0119456
-0.0121464
-0.012337
-0.0125051
-0.0126437
-0.012751
-0.012829
-0.0128828
-0.0129181
-0.0129406
-0.012955
-0.0129646
-0.0129713
-0.0129762
-0.0129794
-0.0129813
-0.0119991
-0.0119985
-0.0119979
-0.0119972
-0.0119958
-0.0119926
-0.0119854
-0.0119705
-0.011943
-0.0118969
-0.011826
-0.0117252
-0.0115921
-0.0114284
-0.0112411
-0.0110425
-0.0108495
-0.0106814
-0.0105568
-0.0104904
-0.0104904
-0.0105568
-0.0106814
-0.0108496
-0.0110425
-0.0112411
-0.0114285
-0.0115922
-0.0117253
-0.0118261
-0.011897
-0.0119431
-0.0119706
-0.0119855
-0.0119927
-0.0119959
-0.0119973
-0.011998
-0.0119986
-0.0119992
-0.0110448
-0.0110452
-0.0110467
-0.0110491
-0.0110518
-0.0110535
-0.0110516
-0.0110423
-0.0110206
-0.01098
-0.0109144
-0.0108185
-0.0106896
-0.0105296
-0.0103452
-0.0101489
-0.00995755
-0.00979052
-0.00966652
-0.00960041
-0.00960042
-0.00966655
-0.00979058
-0.00995763
-0.010149
-0.0103453
-0.0105297
-0.0106898
-0.0108186
-0.0109146
-0.0109802
-0.0110207
-0.0110425
-0.0110517
-0.0110536
-0.0110519
-0.0110492
-0.0110468
-0.0110453
-0.011045
-0.0101193
-0.0101203
-0.0101232
-0.0101279
-0.0101335
-0.0101384
-0.0101402
-0.0101348
-0.0101168
-0.01008
-0.010018
-0.00992546
-0.00979987
-0.00964286
-0.00946131
-0.00926754
-0.00907838
-0.00891308
-0.00879028
-0.00872479
-0.00872481
-0.00879034
-0.00891318
-0.00907851
-0.0092677
-0.00946149
-0.00964306
-0.00980008
-0.00992567
-0.0100182
-0.0100802
-0.010117
-0.010135
-0.0101404
-0.0101386
-0.0101336
-0.010128
-0.0101234
-0.0101204
-0.0101195
-0.00922404
-0.00922534
-0.00922916
-0.00923515
-0.00924245
-0.0092494
-0.00925325
-0.00924993
-0.00923404
-0.00919931
-0.00913938
-0.0090491
-0.00892598
-0.00877168
-0.00859305
-0.00840228
-0.008216
-0.00805319
-0.00793223
-0.00786772
-0.00786775
-0.00793231
-0.00805332
-0.00821617
-0.00840249
-0.00859328
-0.00877193
-0.00892624
-0.00904936
-0.00913964
-0.00919956
-0.00923428
-0.00925015
-0.00925346
-0.00924959
-0.00924263
-0.00923532
-0.00922932
-0.0092255
-0.00922419
-0.00836107
-0.00836245
-0.00836659
-0.00837314
-0.00838113
-0.0083888
-0.00839332
-0.0083906
-0.00837527
-0.00834117
-0.00828212
-0.00819315
-0.00807194
-0.00792023
-0.00774482
-0.0075577
-0.00737516
-0.00721572
-0.00709733
-0.00703422
-0.00703425
-0.00709743
-0.00721587
-0.00737536
-0.00755795
-0.0077451
-0.00792052
-0.00807224
-0.00819345
-0.00828242
-0.00834145
-0.00837553
-0.00839084
-0.00839355
-0.008389
-0.00838132
-0.00837332
-0.00836676
-0.00836261
-0.00836123
-0.00753296
-0.00753419
-0.00753817
-0.00754458
-0.00755235
-0.00755964
-0.00756362
-0.00756019
-0.00754415
-0.0075095
-0.00745035
-0.00736201
-0.0072424
-0.00709339
-0.00692171
-0.00673906
-0.00656123
-0.00640616
-0.00629113
-0.00622984
-0.00622988
-0.00629123
-0.00640633
-0.00656146
-0.00673932
-0.00692201
-0.00709371
-0.00724273
-0.00736233
-0.00745066
-0.00750979
-0.00754442
-0.00756045
-0.00756385
-0.00755985
-0.00755254
-0.00754477
-0.00753834
-0.00753435
-0.00753313
-0.00674257
-0.00674344
-0.00674686
-0.00675252
-0.00675928
-0.00676529
-0.00676769
-0.00676251
-0.00674471
-0.00670861
-0.00664866
-0.00656054
-0.00644249
-0.00629651
-0.00612924
-0.00595202
-0.00578002
-0.00563036
-0.00551952
-0.00546052
-0.00546056
-0.00551963
-0.00563054
-0.00578025
-0.0059523
-0.00612955
-0.00629684
-0.00644282
-0.00656087
-0.00664897
-0.0067089
-0.00674498
-0.00676276
-0.00676792
-0.0067655
-0.00675948
-0.0067527
-0.00674702
-0.0067436
-0.00674273
-0.0059929
-0.00599323
-0.00599574
-0.00600016
-0.0060053
-0.00600927
-0.00600929
-0.00600154
-0.00598123
-0.00594305
-0.00588188
-0.00579386
-0.00567757
-0.00553518
-0.00537319
-0.00520248
-0.00503747
-0.00489431
-0.0047885
-0.00473225
-0.00473228
-0.00478861
-0.00489449
-0.0050377
-0.00520275
-0.00537349
-0.00553549
-0.00567789
-0.00579418
-0.00588218
-0.00594333
-0.00598149
-0.00600178
-0.00600951
-0.00600946
-0.00600547
-0.00600033
-0.0059959
-0.00599338
-0.00599304
-0.00528691
-0.00528656
-0.00528791
-0.0052907
-0.00529373
-0.00529512
-0.00529219
-0.00528131
-0.00525801
-0.00521742
-0.00515492
-0.00506715
-0.00495306
-0.00481499
-0.00465926
-0.00449623
-0.00433939
-0.0042038
-0.00410383
-0.00405075
-0.00405078
-0.00410393
-0.00420396
-0.0043396
-0.00449648
-0.00465955
-0.00481528
-0.00495336
-0.00506744
-0.0051552
-0.00521768
-0.00525825
-0.00528153
-0.00529239
-0.0052953
-0.00529389
-0.00529085
-0.00528804
-0.00528669
-0.00528703
-0.00462736
-0.00462624
-0.00462623
-0.00462714
-0.00462774
-0.00462621
-0.00461999
-0.00460568
-0.00457921
-0.00453617
-0.0044725
-0.00438537
-0.00427414
-0.00414128
-0.00399288
-0.00383866
-0.00369112
-0.00356409
-0.00347069
-0.00342118
-0.00342121
-0.00347078
-0.00356424
-0.00369131
-0.00383888
-0.00399313
-0.00414154
-0.00427441
-0.00438563
-0.00447275
-0.0045364
-0.00457942
-0.00460587
-0.00462016
-0.00462636
-0.00462788
-0.00462727
-0.00462635
-0.00462635
-0.00462747
-0.00401662
-0.00401468
-0.00401323
-0.00401213
-0.00401015
-0.00400554
-0.00399591
-0.00397815
-0.00394859
-0.00390334
-0.00383893
-0.00375307
-0.00364551
-0.00351881
-0.0033788
-0.00323446
-0.00309723
-0.00297961
-0.00289339
-0.00284777
-0.0028478
-0.00289347
-0.00297974
-0.0030974
-0.00323466
-0.00337901
-0.00351904
-0.00364574
-0.00375329
-0.00383914
-0.00390353
-0.00394876
-0.00397831
-0.00399605
-0.00400566
-0.00401026
-0.00401223
-0.00401332
-0.00401477
-0.00401671
-0.00345652
-0.00345377
-0.00345087
-0.00344775
-0.0034432
-0.00343556
-0.00342264
-0.00340164
-0.00336933
-0.00332236
-0.00325786
-0.00317405
-0.00307105
-0.00295148
-0.00282082
-0.0026873
-0.00256118
-0.00245361
-0.00237502
-0.00233352
-0.00233354
-0.00237508
-0.00245371
-0.00256132
-0.00268746
-0.002821
-0.00295166
-0.00307123
-0.00317423
-0.00325803
-0.00332252
-0.00336947
-0.00340177
-0.00342275
-0.00343566
-0.00344328
-0.00344783
-0.00345094
-0.00345383
-0.00345658
-0.00294815
-0.00294467
-0.00294044
-0.00293541
-0.00292845
-0.00291801
-0.00290211
-0.0028783
-0.00284379
-0.00279579
-0.00273198
-0.00265109
-0.00255356
-0.002442
-0.00232151
-0.00219949
-0.00208503
-0.00198791
-0.0019172
-0.00187994
-0.00187996
-0.00191725
-0.00198799
-0.00208514
-0.00219961
-0.00232165
-0.00244215
-0.0025537
-0.00265123
-0.00273211
-0.00279591
-0.0028439
-0.00287839
-0.00290219
-0.00291807
-0.0029285
-0.00293546
-0.00294048
-0.00294471
-0.00294819
-0.00249182
-0.00248775
-0.00248235
-0.00247565
-0.00246657
-0.0024537
-0.00243532
-0.0024093
-0.00237332
-0.00232509
-0.00226284
-0.00218576
-0.00209452
-0.00199171
-0.00188196
-0.00177185
-0.00166931
-0.00158276
-0.00151999
-0.00148698
-0.001487
-0.00152003
-0.00158282
-0.00166938
-0.00177194
-0.00188206
-0.00199181
-0.00209462
-0.00218585
-0.00226293
-0.00232517
-0.00237338
-0.00240936
-0.00243537
-0.00245374
-0.0024666
-0.00247568
-0.00248237
-0.00248777
-0.00249184
-0.00208692
-0.00208245
-0.00207615
-0.00206808
-0.00205727
-0.00204248
-0.00202222
-0.00199472
-0.00195806
-0.00191048
-0.00185066
-0.0017782
-0.00169395
-0.00160038
-0.00150169
-0.00140359
-0.00131291
-0.0012368
-0.0011818
-0.00115295
-0.00115296
-0.00118183
-0.00123683
-0.00131296
-0.00140365
-0.00150175
-0.00160045
-0.00169401
-0.00177826
-0.00185071
-0.00191052
-0.0019581
-0.00199474
-0.00202224
-0.0020425
-0.00205727
-0.00206808
-0.00207614
-0.00208244
-0.00208692
-0.00173195
-0.00172729
-0.00172038
-0.00171132
-0.00169925
-0.00168311
-0.00166165
-0.00163343
-0.00159694
-0.00155085
-0.00149427
-0.0014271
-0.00135033
-0.00126627
-0.00117864
-0.00109235
-0.00101319
-0.000947108
-0.000899553
-0.000874657
-0.000874662
-0.000899567
-0.000947131
-0.00101321
-0.00109239
-0.00117867
-0.00126631
-0.00135036
-0.00142713
-0.00149429
-0.00155086
-0.00159695
-0.00163343
-0.00166165
-0.0016831
-0.00169923
-0.0017113
-0.00172036
-0.00172727
-0.00173192
-0.00142453
-0.00141992
-0.00141271
-0.00140305
-0.00139022
-0.00137334
-0.00135137
-0.0013232
-0.00128767
-0.00124383
-0.00119115
-0.00112977
-0.00106074
-0.000986195
-0.000909352