/*--------------------------------*- C++ -*----------------------------------*\
  =========                 |
  \\      /  F ield         | OpenFOAM: The Open Source CFD Toolbox
   \\    /   O peration     | Website:  https://openfoam.org
    \\  /    A nd           | Version:  6
     \\/     M anipulation  |
\*---------------------------------------------------------------------------*/
FoamFile
{
    version     2.0;
    format      ascii;
    class       volScalarField;
    location    "./ITHACAoutput/Offline/1";
    object      nutRec;
}
// * * * * * * * * * * * * * * * * * * * * * * * * * * * * * * * * * * * * * //

dimensions      [0 2 -1 0 0 0 0];

internalField   nonuniform List<scalar> 
115600
(
8.16507e-10
2.34281e-10
2.04937e-10
1.9484e-10
1.84418e-10
1.70966e-10
1.56541e-10
1.42822e-10
1.31104e-10
1.208e-10
1.11793e-10
1.0396e-10
9.71714e-11
9.12949e-11
8.62075e-11
8.18002e-11
7.79801e-11
7.46689e-11
7.18015e-11
6.93233e-11
6.71889e-11
6.53596e-11
6.38025e-11
6.24894e-11
6.13955e-11
6.04991e-11
5.9781e-11
5.92241e-11
5.8813e-11
5.85341e-11
5.83758e-11
5.83532e-11
5.85111e-11
5.87853e-11
5.91536e-11
5.96022e-11
6.01197e-11
6.06962e-11
6.13233e-11
6.19934e-11
6.27004e-11
6.34392e-11
6.42061e-11
6.49995e-11
6.58206e-11
6.66752e-11
6.75749e-11
6.85433e-11
6.96194e-11
7.08863e-11
7.24668e-11
7.47446e-11
7.82606e-11
8.61371e-11
1.08946e-10
2.3156e-10
5.1984e-08
2.86343e-08
2.54552e-08
2.41697e-08
2.26211e-08
2.05661e-08
1.83355e-08
1.62185e-08
1.4416e-08
1.28876e-08
1.1599e-08
1.05162e-08
9.60758e-09
8.84407e-09
8.20078e-09
7.65701e-09
7.19597e-09
6.80411e-09
6.4706e-09
6.18672e-09
5.94544e-09
5.74102e-09
5.56875e-09
5.42474e-09
5.30567e-09
5.20875e-09
5.13155e-09
5.07198e-09
5.02819e-09
4.9986e-09
4.98188e-09
4.97886e-09
4.99326e-09
5.02012e-09
5.05715e-09
5.10281e-09
5.15592e-09
5.21543e-09
5.28042e-09
5.35006e-09
5.4236e-09
5.50041e-09
5.57995e-09
5.66186e-09
5.74601e-09
5.83263e-09
5.92252e-09
6.01741e-09
6.12054e-09
6.23856e-09
6.38292e-09
6.58329e-09
6.89579e-09
7.54314e-09
9.35583e-09
1.48322e-08
2.70142e-07
2.63789e-07
2.66232e-07
2.6362e-07
2.53559e-07
2.37408e-07
2.18188e-07
1.98403e-07
1.79756e-07
1.63029e-07
1.48225e-07
1.35262e-07
1.23994e-07
1.14244e-07
1.05829e-07
9.85756e-08
9.23313e-08
8.69613e-08
8.23506e-08
7.84015e-08
7.5031e-08
7.2169e-08
6.9756e-08
6.77409e-08
6.60796e-08
6.47337e-08
6.36695e-08
6.28574e-08
6.22709e-08
6.18869e-08
6.16861e-08
6.16703e-08
6.18647e-08
6.22281e-08
6.27324e-08
6.3356e-08
6.40809e-08
6.48905e-08
6.57697e-08
6.67038e-08
6.76788e-08
6.86814e-08
6.96987e-08
7.07193e-08
7.17331e-08
7.27325e-08
7.37145e-08
7.46827e-08
7.56535e-08
7.66672e-08
7.78113e-08
7.92834e-08
8.15662e-08
8.59353e-08
9.77646e-08
1.19678e-07
5.41415e-07
6.58284e-07
7.10684e-07
7.22302e-07
7.0934e-07
6.81239e-07
6.4528e-07
6.06658e-07
5.68871e-07
5.33621e-07
5.01528e-07
4.72643e-07
4.46873e-07
4.24e-07
4.03765e-07
3.85908e-07
3.70186e-07
3.56381e-07
3.44298e-07
3.33768e-07
3.24644e-07
3.168e-07
3.10123e-07
3.04512e-07
2.99879e-07
2.96141e-07
2.93219e-07
2.91039e-07
2.89531e-07
2.88631e-07
2.88281e-07
2.88464e-07
2.89187e-07
2.90371e-07
2.91946e-07
2.93844e-07
2.96005e-07
2.98371e-07
3.00886e-07
3.03495e-07
3.06146e-07
3.08783e-07
3.11357e-07
3.13816e-07
3.16109e-07
3.18191e-07
3.20018e-07
3.21557e-07
3.22789e-07
3.23732e-07
3.24479e-07
3.25278e-07
3.26861e-07
3.31018e-07
3.45933e-07
3.77047e-07
7.49009e-07
1.01579e-06
1.15978e-06
1.21624e-06
1.22146e-06
1.19674e-06
1.15542e-06
1.10625e-06
1.05508e-06
1.00534e-06
9.58735e-07
9.15917e-07
8.77104e-07
8.42223e-07
8.11069e-07
7.83387e-07
7.58898e-07
7.37333e-07
7.18432e-07
7.01958e-07
6.87701e-07
6.75471e-07
6.65099e-07
6.56433e-07
6.49335e-07
6.43673e-07
6.39323e-07
6.36167e-07
6.34092e-07
6.32989e-07
6.32762e-07
6.33355e-07
6.34731e-07
6.36797e-07
6.3945e-07
6.42593e-07
6.46128e-07
6.49962e-07
6.54005e-07
6.58165e-07
6.62353e-07
6.6648e-07
6.70456e-07
6.74194e-07
6.77605e-07
6.80603e-07
6.83105e-07
6.85036e-07
6.86339e-07
6.87001e-07
6.87089e-07
6.86907e-07
6.8724e-07
6.90616e-07
7.06807e-07
7.50665e-07
8.92783e-07
1.25934e-06
1.49939e-06
1.62249e-06
1.67006e-06
1.67132e-06
1.6449e-06
1.60281e-06
1.55296e-06
1.5007e-06
1.44895e-06
1.39954e-06
1.35333e-06
1.3107e-06
1.27179e-06
1.23658e-06
1.20499e-06
1.17684e-06
1.15193e-06
1.13007e-06
1.11105e-06
1.09468e-06
1.08077e-06
1.06917e-06
1.05969e-06
1.05218e-06
1.04648e-06
1.04245e-06
1.03992e-06
1.03877e-06
1.03885e-06
1.04006e-06
1.04232e-06
1.04552e-06
1.04955e-06
1.05427e-06
1.05957e-06
1.0653e-06
1.07137e-06
1.07764e-06
1.08398e-06
1.09028e-06
1.09642e-06
1.10228e-06
1.10774e-06
1.1127e-06
1.11705e-06
1.12069e-06
1.12357e-06
1.12567e-06
1.1271e-06
1.12831e-06
1.13032e-06
1.13635e-06
1.15842e-06
1.21491e-06
1.00272e-06
1.38976e-06
1.69714e-06
1.88597e-06
1.98673e-06
2.02902e-06
2.03377e-06
2.01501e-06
1.98216e-06
1.94164e-06
1.8978e-06
1.85305e-06
1.80922e-06
1.76726e-06
1.7278e-06
1.69119e-06
1.65765e-06
1.62726e-06
1.59999e-06
1.57578e-06
1.55454e-06
1.53615e-06
1.52049e-06
1.50741e-06
1.4968e-06
1.48851e-06
1.48237e-06
1.47824e-06
1.47596e-06
1.47537e-06
1.47634e-06
1.47871e-06
1.48235e-06
1.48717e-06
1.49303e-06
1.49981e-06
1.50735e-06
1.51552e-06
1.52417e-06
1.53315e-06
1.54232e-06
1.55154e-06
1.56067e-06
1.56957e-06
1.57812e-06
1.58619e-06
1.59368e-06
1.6005e-06
1.6066e-06
1.61203e-06
1.61699e-06
1.62201e-06
1.62852e-06
1.63991e-06
1.67036e-06
1.73522e-06
1.11101e-06
1.43687e-06
1.76683e-06
2.00467e-06
2.15683e-06
2.24542e-06
2.28992e-06
2.30463e-06
2.29962e-06
2.28197e-06
2.25665e-06
2.22694e-06
2.19504e-06
2.16253e-06
2.13054e-06
2.09984e-06
2.07096e-06
2.04422e-06
2.01986e-06
1.99798e-06
1.97864e-06
1.96186e-06
1.94763e-06
1.93589e-06
1.92659e-06
1.91964e-06
1.91494e-06
1.91237e-06
1.91178e-06
1.91306e-06
1.91606e-06
1.92063e-06
1.9266e-06
1.9339e-06
1.94239e-06
1.95195e-06
1.96244e-06
1.97371e-06
1.98561e-06
1.99798e-06
2.01067e-06
2.02353e-06
2.03641e-06
2.04918e-06
2.06169e-06
2.07384e-06
2.08553e-06
2.09667e-06
2.10727e-06
2.11741e-06
2.12737e-06
2.13778e-06
2.15036e-06
2.16812e-06
2.20653e-06
2.27499e-06
1.2448e-06
1.4379e-06
1.73747e-06
1.99635e-06
2.18883e-06
2.32163e-06
2.40834e-06
2.46135e-06
2.49033e-06
2.50244e-06
2.50295e-06
2.49563e-06
2.48292e-06
2.46698e-06
2.44934e-06
2.43109e-06
2.41306e-06
2.39582e-06
2.37978e-06
2.36525e-06
2.35244e-06
2.34151e-06
2.33256e-06
2.32566e-06
2.32084e-06
2.3181e-06
2.31741e-06
2.31871e-06
2.32192e-06
2.32693e-06
2.33366e-06
2.34194e-06
2.35165e-06
2.36269e-06
2.37496e-06
2.38836e-06
2.40276e-06
2.41802e-06
2.43399e-06
2.45053e-06
2.46749e-06
2.48472e-06
2.50207e-06
2.5194e-06
2.5366e-06
2.55354e-06
2.57015e-06
2.58637e-06
2.60222e-06
2.61782e-06
2.6335e-06
2.64987e-06
2.66879e-06
2.69255e-06
2.73681e-06
2.80503e-06
1.42163e-06
1.43079e-06
1.64694e-06
1.88883e-06
2.10115e-06
2.26918e-06
2.39553e-06
2.48768e-06
2.55329e-06
2.59886e-06
2.62954e-06
2.64921e-06
2.66074e-06
2.66652e-06
2.66841e-06
2.66778e-06
2.66565e-06
2.66279e-06
2.65981e-06
2.65715e-06
2.65516e-06
2.65414e-06
2.6543e-06
2.65581e-06
2.6588e-06
2.66337e-06
2.66955e-06
2.67735e-06
2.68676e-06
2.69774e-06
2.71023e-06
2.7241e-06
2.73925e-06
2.75562e-06
2.77313e-06
2.79169e-06
2.8112e-06
2.83155e-06
2.85261e-06
2.87425e-06
2.89633e-06
2.91871e-06
2.94125e-06
2.96384e-06
2.98635e-06
3.00867e-06
3.03074e-06
3.05252e-06
3.07403e-06
3.0954e-06
3.11697e-06
3.13926e-06
3.16408e-06
3.19278e-06
3.24039e-06
3.30573e-06
1.65054e-06
1.44869e-06
1.54037e-06
1.72153e-06
1.92224e-06
2.10747e-06
2.26456e-06
2.39227e-06
2.4939e-06
2.57396e-06
2.63683e-06
2.68623e-06
2.72521e-06
2.75629e-06
2.78145e-06
2.80223e-06
2.81983e-06
2.8352e-06
2.84905e-06
2.86197e-06
2.87445e-06
2.88686e-06
2.89952e-06
2.91271e-06
2.92663e-06
2.94144e-06
2.95728e-06
2.97422e-06
2.9923e-06
3.01155e-06
3.03197e-06
3.05344e-06
3.07592e-06
3.09937e-06
3.12373e-06
3.14896e-06
3.17497e-06
3.20168e-06
3.22899e-06
3.25679e-06
3.28496e-06
3.31338e-06
3.34192e-06
3.37048e-06
3.39893e-06
3.42719e-06
3.4552e-06
3.48291e-06
3.51034e-06
3.5376e-06
3.565e-06
3.59289e-06
3.62291e-06
3.65538e-06
3.70414e-06
3.7649e-06
1.94136e-06
1.51802e-06
1.46489e-06
1.54698e-06
1.69614e-06
1.86862e-06
2.03773e-06
2.19036e-06
2.32256e-06
2.43482e-06
2.52963e-06
2.60981e-06
2.67805e-06
2.73666e-06
2.7876e-06
2.83249e-06
2.87263e-06
2.90907e-06
2.94266e-06
2.97409e-06
3.00392e-06
3.03264e-06
3.06065e-06
3.08827e-06
3.11581e-06
3.1435e-06
3.17152e-06
3.20002e-06
3.2291e-06
3.25883e-06
3.28927e-06
3.32035e-06
3.35205e-06
3.38435e-06
3.41725e-06
3.45072e-06
3.4847e-06
3.51914e-06
3.55397e-06
3.58909e-06
3.62442e-06
3.65984e-06
3.69525e-06
3.73055e-06
3.76564e-06
3.80043e-06
3.83485e-06
3.86886e-06
3.90246e-06
3.93571e-06
3.96883e-06
4.00199e-06
4.03652e-06
4.07176e-06
4.12001e-06
4.17521e-06
2.31506e-06
1.66277e-06
1.46249e-06
1.42467e-06
1.48509e-06
1.6054e-06
1.75447e-06
1.90987e-06
2.05883e-06
2.1956e-06
2.31847e-06
2.42788e-06
2.52517e-06
2.61198e-06
2.68993e-06
2.76052e-06
2.82501e-06
2.88451e-06
2.93993e-06
2.99201e-06
3.04141e-06
3.08867e-06
3.13426e-06
3.17857e-06
3.22196e-06
3.26471e-06
3.30708e-06
3.34924e-06
3.39137e-06
3.43357e-06
3.47594e-06
3.51849e-06
3.56119e-06
3.60406e-06
3.64712e-06
3.69037e-06
3.73379e-06
3.77734e-06
3.82096e-06
3.86461e-06
3.90819e-06
3.95164e-06
3.99485e-06
4.03773e-06
4.08019e-06
4.12215e-06
4.16352e-06
4.20426e-06
4.24431e-06
4.28368e-06
4.32249e-06
4.36068e-06
4.3992e-06
4.43649e-06
4.48315e-06
4.53242e-06
2.80522e-06
1.9125e-06
1.56941e-06
1.40946e-06
1.36096e-06
1.39315e-06
1.48128e-06
1.60398e-06
1.74336e-06
1.88662e-06
2.02595e-06
2.15741e-06
2.27955e-06
2.39232e-06
2.49633e-06
2.59252e-06
2.68185e-06
2.76527e-06
2.84365e-06
2.91771e-06
2.98814e-06
3.0555e-06
3.1203e-06
3.18299e-06
3.24394e-06
3.30349e-06
3.36193e-06
3.41948e-06
3.47636e-06
3.53272e-06
3.58867e-06
3.64429e-06
3.69958e-06
3.75456e-06
3.80927e-06
3.86374e-06
3.91796e-06
3.97191e-06
4.02558e-06
4.07892e-06
4.13186e-06
4.18435e-06
4.23629e-06
4.28761e-06
4.33822e-06
4.38803e-06
4.43693e-06
4.48486e-06
4.53173e-06
4.57746e-06
4.62203e-06
4.66514e-06
4.70736e-06
4.74628e-06
4.79081e-06
4.83428e-06
3.4618e-06
2.31778e-06
1.83132e-06
1.55274e-06
1.39152e-06
1.31716e-06
1.31226e-06
1.36246e-06
1.4529e-06
1.56927e-06
1.69954e-06
1.83479e-06
1.9692e-06
2.09948e-06
2.22402e-06
2.34229e-06
2.45433e-06
2.56053e-06
2.6614e-06
2.75747e-06
2.8493e-06
2.9374e-06
3.02224e-06
3.10426e-06
3.18384e-06
3.26135e-06
3.33707e-06
3.41127e-06
3.48419e-06
3.55598e-06
3.62682e-06
3.6968e-06
3.76597e-06
3.83436e-06
3.90199e-06
3.9689e-06
4.03512e-06
4.10065e-06
4.16548e-06
4.22958e-06
4.2929e-06
4.35538e-06
4.41696e-06
4.47755e-06
4.53707e-06
4.59541e-06
4.65245e-06
4.70809e-06
4.76219e-06
4.81458e-06
4.86509e-06
4.91319e-06
4.95902e-06
4.99948e-06
5.04184e-06
5.08006e-06
4.38899e-06
2.98139e-06
2.33419e-06
1.92875e-06
1.64995e-06
1.46089e-06
1.34614e-06
1.29554e-06
1.29926e-06
1.34703e-06
1.42836e-06
1.53317e-06
1.65269e-06
1.77995e-06
1.90996e-06
2.03946e-06
2.16649e-06
2.29001e-06
2.40956e-06
2.52503e-06
2.63654e-06
2.74429e-06
2.84858e-06
2.94972e-06
3.04801e-06
3.14374e-06
3.2372e-06
3.32863e-06
3.41824e-06
3.50624e-06
3.59276e-06
3.67794e-06
3.76188e-06
3.84458e-06
3.92607e-06
4.00638e-06
4.08555e-06
4.16358e-06
4.24048e-06
4.31622e-06
4.39077e-06
4.46408e-06
4.53608e-06
4.60669e-06
4.67581e-06
4.74331e-06
4.80908e-06
4.87294e-06
4.93472e-06
4.99413e-06
5.05086e-06
5.10416e-06
5.15371e-06
5.19591e-06
5.2365e-06
5.27046e-06
5.73904e-06
4.05694e-06
3.21128e-06
2.65225e-06
2.23846e-06
1.92094e-06
1.68083e-06
1.50962e-06
1.40042e-06
1.34611e-06
1.33908e-06
1.37148e-06
1.43547e-06
1.5235e-06
1.6287e-06
1.74522e-06
1.86842e-06
1.99488e-06
2.12223e-06
2.24889e-06
2.3739e-06
2.49669e-06
2.61697e-06
2.73466e-06
2.84977e-06
2.96238e-06
3.07265e-06
3.18069e-06
3.28666e-06
3.3907e-06
3.49292e-06
3.59345e-06
3.69237e-06
3.78973e-06
3.88552e-06
3.97971e-06
4.07235e-06
4.16344e-06
4.25298e-06
4.34096e-06
4.42734e-06
4.51206e-06
4.59507e-06
4.67626e-06
4.75552e-06
4.83272e-06
4.90769e-06
4.98024e-06
5.05011e-06
5.1169e-06
5.1802e-06
5.23898e-06
5.29259e-06
5.33699e-06
5.37662e-06
5.40771e-06
7.48622e-06
5.60621e-06
4.54724e-06
3.81473e-06
3.25187e-06
2.79456e-06
2.41743e-06
2.11038e-06
1.86835e-06
1.68718e-06
1.56206e-06
1.48735e-06
1.45692e-06
1.46452e-06
1.50397e-06
1.56929e-06
1.65489e-06
1.75568e-06
1.86732e-06
1.98625e-06
2.1097e-06
2.23561e-06
2.36248e-06
2.4893e-06
2.61536e-06
2.74022e-06
2.8636e-06
2.98534e-06
3.10535e-06
3.22361e-06
3.34012e-06
3.45487e-06
3.56791e-06
3.67924e-06
3.78886e-06
3.89665e-06
4.0026e-06
4.10669e-06
4.2089e-06
4.30921e-06
4.40756e-06
4.5039e-06
4.59813e-06
4.69016e-06
4.77984e-06
4.86703e-06
4.95151e-06
5.03304e-06
5.1113e-06
5.18581e-06
5.25597e-06
5.32061e-06
5.37873e-06
5.42604e-06
5.46589e-06
5.4959e-06
9.23326e-06
7.41468e-06
6.22718e-06
5.35654e-06
4.66621e-06
4.08683e-06
3.58804e-06
3.15561e-06
2.78334e-06
2.46869e-06
2.21014e-06
2.00576e-06
1.85262e-06
1.74681e-06
1.68377e-06
1.65863e-06
1.66648e-06
1.70246e-06
1.76189e-06
1.84036e-06
1.93385e-06
2.03878e-06
2.15217e-06
2.27155e-06
2.39497e-06
2.52093e-06
2.6483e-06
2.77624e-06
2.90413e-06
3.03152e-06
3.15807e-06
3.28354e-06
3.40775e-06
3.53058e-06
3.65192e-06
3.77162e-06
3.88949e-06
4.00542e-06
4.11936e-06
4.23122e-06
4.34093e-06
4.44838e-06
4.55347e-06
4.65605e-06
4.75596e-06
4.853e-06
4.94694e-06
5.03746e-06
5.12417e-06
5.20653e-06
5.2838e-06
5.35465e-06
5.41782e-06
5.46892e-06
5.51054e-06
5.54165e-06
1.05619e-05
9.10149e-06
7.96163e-06
7.05406e-06
6.3029e-06
5.65402e-06
5.08015e-06
4.56563e-06
4.10205e-06
3.68563e-06
3.31521e-06
2.99093e-06
2.71315e-06
2.48175e-06
2.29577e-06
2.1533e-06
2.05164e-06
1.98751e-06
1.95728e-06
1.95716e-06
1.9833e-06
2.03194e-06
2.09946e-06
2.1825e-06
2.27801e-06
2.3833e-06
2.4961e-06
2.61452e-06
2.73699e-06
2.86228e-06
2.98939e-06
3.11753e-06
3.2461e-06
3.37459e-06
3.50262e-06
3.62988e-06
3.75601e-06
3.88067e-06
4.00364e-06
4.12476e-06
4.24384e-06
4.36072e-06
4.47521e-06
4.58711e-06
4.69622e-06
4.80226e-06
4.90496e-06
5.00394e-06
5.09874e-06
5.18872e-06
5.27306e-06
5.35032e-06
5.41906e-06
5.47498e-06
5.5202e-06
5.55499e-06
1.13882e-05
1.04103e-05
9.48065e-06
8.65772e-06
7.93418e-06
7.28551e-06
6.69622e-06
6.15502e-06
5.65436e-06
5.18968e-06
4.75879e-06
4.36117e-06
3.99742e-06
3.66874e-06
3.37646e-06
3.1217e-06
2.90503e-06
2.72637e-06
2.58485e-06
2.47891e-06
2.40644e-06
2.36489e-06
2.35142e-06
2.36305e-06
2.39673e-06
2.44948e-06
2.51843e-06
2.60092e-06
2.69452e-06
2.79711e-06
2.90681e-06
3.02202e-06
3.14143e-06
3.26388e-06
3.38846e-06
3.5144e-06
3.64105e-06
3.76777e-06
3.89401e-06
4.01935e-06
4.14345e-06
4.26595e-06
4.38654e-06
4.5049e-06
4.62072e-06
4.73365e-06
4.8433e-06
4.94925e-06
5.05094e-06
5.14766e-06
5.23852e-06
5.32201e-06
5.39664e-06
5.45837e-06
5.50921e-06
5.5506e-06
1.18424e-05
1.1299e-05
1.0654e-05
1.00051e-05
9.38764e-06
8.80541e-06
8.25757e-06
7.74105e-06
7.25236e-06
6.78862e-06
6.3479e-06
5.92924e-06
5.53249e-06
5.15829e-06
4.80778e-06
4.48249e-06
4.18414e-06
3.91439e-06
3.6747e-06
3.46614e-06
3.28923e-06
3.14392e-06
3.02958e-06
2.94502e-06
2.88862e-06
2.85838e-06
2.85209e-06
2.86737e-06
2.90179e-06
2.95296e-06
3.01857e-06
3.09645e-06
3.18461e-06
3.28124e-06
3.38477e-06
3.49377e-06
3.60703e-06
3.72349e-06
3.84218e-06
3.96228e-06
4.08306e-06
4.20388e-06
4.32416e-06
4.44337e-06
4.56099e-06
4.67654e-06
4.78948e-06
4.89927e-06
5.00525e-06
5.10665e-06
5.20249e-06
5.29129e-06
5.37164e-06
5.43988e-06
5.4983e-06
5.54933e-06
1.20771e-05
1.18509e-05
1.14807e-05
1.10409e-05
1.05771e-05
1.01091e-05
9.6473e-06
9.19642e-06
8.75822e-06
8.33299e-06
7.92051e-06
7.5205e-06
7.13293e-06
6.75806e-06
6.3965e-06
6.04923e-06
5.71754e-06
5.40298e-06
5.10727e-06
4.83219e-06
4.5795e-06
4.35078e-06
4.14732e-06
3.97005e-06
3.81942e-06
3.69543e-06
3.59762e-06
3.5251e-06
3.4766e-06
3.45059e-06
3.44531e-06
3.45888e-06
3.48936e-06
3.53481e-06
3.59334e-06
3.66314e-06
3.74251e-06
3.82991e-06
3.92392e-06
4.02335e-06
4.12702e-06
4.23385e-06
4.34287e-06
4.45321e-06
4.56408e-06
4.6747e-06
4.78436e-06
4.8923e-06
4.99775e-06
5.09981e-06
5.19749e-06
5.28935e-06
5.37418e-06
5.44885e-06
5.51633e-06
5.57969e-06
1.21975e-05
1.21769e-05
1.20275e-05
1.17863e-05
1.14891e-05
1.11586e-05
1.08094e-05
1.04516e-05
1.00909e-05
9.73062e-06
9.37278e-06
9.01847e-06
8.66841e-06
8.32319e-06
7.9834e-06
7.64975e-06
7.3231e-06
7.00453e-06
6.69528e-06
6.3968e-06
6.1107e-06
5.83865e-06
5.58239e-06
5.34361e-06
5.12387e-06
4.92455e-06
4.74672e-06
4.59114e-06
4.45821e-06
4.34794e-06
4.25998e-06
4.19365e-06
4.14799e-06
4.12178e-06
4.11364e-06
4.12207e-06
4.14549e-06
4.18228e-06
4.23083e-06
4.2898e-06
4.35783e-06
4.4335e-06
4.51551e-06
4.60266e-06
4.69381e-06
4.78791e-06
4.88394e-06
4.98095e-06
5.07795e-06
5.17395e-06
5.26792e-06
5.35852e-06
5.44482e-06
5.5244e-06
5.60108e-06
5.67834e-06
1.22631e-05
1.23673e-05
1.23767e-05
1.22993e-05
1.21555e-05
1.1963e-05
1.1735e-05
1.1483e-05
1.12147e-05
1.09355e-05
1.06489e-05
1.03575e-05
1.00629e-05
9.76634e-06
9.46881e-06
9.17112e-06
8.87405e-06
8.57845e-06
8.28526e-06
7.9955e-06
7.71037e-06
7.43117e-06
7.15933e-06
6.89638e-06
6.64391e-06
6.40353e-06
6.1768e-06
5.9652e-06
5.77007e-06
5.59253e-06
5.43346e-06
5.29348e-06
5.1729e-06
5.07171e-06
4.98965e-06
4.92619e-06
4.88056e-06
4.85176e-06
4.83857e-06
4.83987e-06
4.85457e-06
4.88146e-06
4.91925e-06
4.96667e-06
5.02248e-06
5.08546e-06
5.15443e-06
5.22827e-06
5.30587e-06
5.38615e-06
5.46809e-06
5.55054e-06
5.63295e-06
5.71364e-06
5.79743e-06
5.88785e-06
1.23033e-05
1.24821e-05
1.25983e-05
1.26444e-05
1.26277e-05
1.25581e-05
1.24453e-05
1.2299e-05
1.2127e-05
1.19351e-05
1.17277e-05
1.15083e-05
1.12791e-05
1.10422e-05
1.07988e-05
1.05501e-05
1.0297e-05
1.00404e-05
9.78112e-06
9.52001e-06
9.25798e-06
8.996e-06
8.73517e-06
8.47666e-06
8.22175e-06
7.9718e-06
7.72823e-06
7.49249e-06
7.26605e-06
7.05036e-06
6.84676e-06
6.65652e-06
6.48072e-06
6.32027e-06
6.17587e-06
6.048e-06
5.93688e-06
5.84252e-06
5.76456e-06
5.70231e-06
5.65536e-06
5.62318e-06
5.60505e-06
5.60013e-06
5.60746e-06
5.62606e-06
5.65489e-06
5.69293e-06
5.73917e-06
5.79264e-06
5.8525e-06
5.91788e-06
5.98878e-06
6.06426e-06
6.15011e-06
6.24971e-06
1.23317e-05
1.2556e-05
1.2742e-05
1.28759e-05
1.29569e-05
1.29885e-05
1.29761e-05
1.29265e-05
1.28457e-05
1.27394e-05
1.26119e-05
1.24666e-05
1.23065e-05
1.21337e-05
1.19501e-05
1.17569e-05
1.15552e-05
1.13462e-05
1.11306e-05
1.09093e-05
1.06831e-05
1.04528e-05
1.02192e-05
9.98321e-06
9.74591e-06
9.5083e-06
9.27154e-06
9.03683e-06
8.80543e-06
8.57865e-06
8.35784e-06
8.14431e-06
7.93937e-06
7.74426e-06
7.56012e-06
7.38799e-06
7.22878e-06
7.08327e-06
6.95193e-06
6.83448e-06
6.73115e-06
6.64229e-06
6.56797e-06
6.50806e-06
6.4623e-06
6.43027e-06
6.4115e-06
6.4054e-06
6.41142e-06
6.42899e-06
6.45773e-06
6.49729e-06
6.54831e-06
6.6107e-06
6.69103e-06
6.79247e-06
1.23541e-05
1.26077e-05
1.28391e-05
1.30336e-05
1.31864e-05
1.32967e-05
1.33662e-05
1.3399e-05
1.33993e-05
1.33711e-05
1.33184e-05
1.32444e-05
1.31518e-05
1.3043e-05
1.29197e-05
1.27837e-05
1.2636e-05
1.24779e-05
1.23104e-05
1.21341e-05
1.195e-05
1.17588e-05
1.15612e-05
1.1358e-05
1.11499e-05
1.09379e-05
1.07228e-05
1.05056e-05
1.02873e-05
1.00689e-05
9.85171e-06
9.63676e-06
9.42531e-06
9.21856e-06
9.01772e-06
8.82398e-06
8.63852e-06
8.46251e-06
8.29676e-06
8.14133e-06
7.9969e-06
7.86439e-06
7.74452e-06
7.63784e-06
7.54478e-06
7.46563e-06
7.40063e-06
7.34988e-06
7.31352e-06
7.29163e-06
7.28452e-06
7.29256e-06
7.31718e-06
7.35914e-06
7.4256e-06
7.51969e-06
1.23726e-05
1.26465e-05
1.29079e-05
1.31435e-05
1.33475e-05
1.35165e-05
1.36503e-05
1.375e-05
1.38181e-05
1.38576e-05
1.38713e-05
1.38619e-05
1.38318e-05
1.3783e-05
1.37174e-05
1.36366e-05
1.35419e-05
1.34345e-05
1.33154e-05
1.31854e-05
1.30454e-05
1.28961e-05
1.27382e-05
1.25725e-05
1.23994e-05
1.22199e-05
1.20347e-05
1.18444e-05
1.165e-05
1.14522e-05
1.12521e-05
1.10505e-05
1.08486e-05
1.06473e-05
1.04478e-05
1.02512e-05
1.00587e-05
9.87147e-06
9.6903e-06
9.51554e-06
9.3481e-06
9.18916e-06
9.03973e-06
8.90076e-06
8.77318e-06
8.65784e-06
8.55557e-06
8.46714e-06
8.39334e-06
8.33498e-06
8.29307e-06
8.26878e-06
8.26429e-06
8.28116e-06
8.3269e-06
8.40495e-06
1.23879e-05
1.26762e-05
1.2958e-05
1.32217e-05
1.34614e-05
1.36731e-05
1.38552e-05
1.40071e-05
1.41301e-05
1.42258e-05
1.42958e-05
1.43425e-05
1.43674e-05
1.43726e-05
1.43595e-05
1.43298e-05
1.42845e-05
1.42249e-05
1.4152e-05
1.40668e-05
1.39699e-05
1.38622e-05
1.37444e-05
1.36171e-05
1.34809e-05
1.33366e-05
1.31847e-05
1.30258e-05
1.28608e-05
1.26902e-05
1.25148e-05
1.23354e-05
1.21529e-05
1.19682e-05
1.17821e-05
1.15957e-05
1.141e-05
1.12263e-05
1.10448e-05
1.08663e-05
1.06917e-05
1.05223e-05
1.03591e-05
1.02031e-05
1.00557e-05
9.91782e-06
9.79073e-06
9.67564e-06
9.57381e-06
9.48661e-06
9.41562e-06
9.36262e-06
9.33037e-06
9.32102e-06
9.34223e-06
9.39805e-06
1.24001e-05
1.26988e-05
1.29945e-05
1.3277e-05
1.35412e-05
1.37833e-05
1.40006e-05
1.41922e-05
1.43579e-05
1.44984e-05
1.46147e-05
1.47081e-05
1.47801e-05
1.48318e-05
1.48648e-05
1.48803e-05
1.48794e-05
1.48632e-05
1.48327e-05
1.47887e-05
1.47322e-05
1.46637e-05
1.45841e-05
1.4494e-05
1.43939e-05
1.42845e-05
1.41664e-05
1.40402e-05
1.39063e-05
1.37655e-05
1.36183e-05
1.34655e-05
1.33076e-05
1.31455e-05
1.298e-05
1.28118e-05
1.2642e-05
1.24711e-05
1.22998e-05
1.21287e-05
1.19589e-05
1.17913e-05
1.1627e-05
1.14669e-05
1.13124e-05
1.11647e-05
1.1025e-05
1.08947e-05
1.07754e-05
1.06687e-05
1.05766e-05
1.0501e-05
1.04452e-05
1.04115e-05
1.04075e-05
1.04381e-05
1.24092e-05
1.27149e-05
1.30195e-05
1.33143e-05
1.3595e-05
1.38578e-05
1.41001e-05
1.43207e-05
1.45186e-05
1.46937e-05
1.48465e-05
1.49778e-05
1.50883e-05
1.51791e-05
1.52511e-05
1.53054e-05
1.53431e-05
1.5365e-05
1.5372e-05
1.5365e-05
1.53448e-05
1.5312e-05
1.52675e-05
1.52117e-05
1.51454e-05
1.5069e-05
1.49831e-05
1.48884e-05
1.47852e-05
1.46742e-05
1.45559e-05
1.44308e-05
1.42996e-05
1.41628e-05
1.40211e-05
1.38753e-05
1.3726e-05
1.35737e-05
1.34188e-05
1.32623e-05
1.31049e-05
1.29474e-05
1.27909e-05
1.26361e-05
1.24842e-05
1.23365e-05
1.21941e-05
1.20585e-05
1.19311e-05
1.18137e-05
1.17083e-05
1.1617e-05
1.15429e-05
1.14885e-05
1.1461e-05
1.14663e-05
1.24152e-05
1.27247e-05
1.30341e-05
1.33361e-05
1.36269e-05
1.3903e-05
1.41622e-05
1.44029e-05
1.4624e-05
1.48249e-05
1.50056e-05
1.51663e-05
1.53075e-05
1.54299e-05
1.5534e-05
1.56207e-05
1.56908e-05
1.57452e-05
1.57845e-05
1.58096e-05
1.58212e-05
1.58199e-05
1.58065e-05
1.57815e-05
1.57456e-05
1.56993e-05
1.56431e-05
1.55775e-05
1.55032e-05
1.54204e-05
1.53298e-05
1.52318e-05
1.51268e-05
1.50157e-05
1.48987e-05
1.47766e-05
1.46496e-05
1.45183e-05
1.43833e-05
1.42451e-05
1.41045e-05
1.39621e-05
1.38187e-05
1.36752e-05
1.35325e-05
1.33916e-05
1.32537e-05
1.31199e-05
1.29918e-05
1.28708e-05
1.27589e-05
1.26579e-05
1.25709e-05
1.25e-05
1.24521e-05
1.2434e-05
1.24181e-05
1.2728e-05
1.30387e-05
1.33436e-05
1.36392e-05
1.39227e-05
1.4192e-05
1.44456e-05
1.46823e-05
1.49012e-05
1.5102e-05
1.52846e-05
1.54492e-05
1.55961e-05
1.57256e-05
1.58384e-05
1.59351e-05
1.60163e-05
1.60827e-05
1.61349e-05
1.61736e-05
1.61995e-05
1.62131e-05
1.62151e-05
1.62059e-05
1.61863e-05
1.61566e-05
1.61173e-05
1.60689e-05
1.6012e-05
1.59469e-05
1.58741e-05
1.57941e-05
1.57073e-05
1.56142e-05
1.55152e-05
1.54106e-05
1.5301e-05
1.51867e-05
1.50683e-05
1.49463e-05
1.48214e-05
1.46942e-05
1.45652e-05
1.44354e-05
1.43055e-05
1.41766e-05
1.40495e-05
1.39256e-05
1.38062e-05
1.36928e-05
1.35872e-05
1.34919e-05
1.34088e-05
1.33441e-05
1.33056e-05
1.24177e-05
1.27249e-05
1.30333e-05
1.33371e-05
1.36331e-05
1.39189e-05
1.41926e-05
1.44527e-05
1.46984e-05
1.49285e-05
1.51426e-05
1.53403e-05
1.55216e-05
1.56865e-05
1.58353e-05
1.59682e-05
1.60858e-05
1.61885e-05
1.62768e-05
1.63513e-05
1.64126e-05
1.64612e-05
1.64978e-05
1.65227e-05
1.65367e-05
1.65401e-05
1.65335e-05
1.65174e-05
1.64922e-05
1.64583e-05
1.64161e-05
1.63662e-05
1.63088e-05
1.62445e-05
1.61735e-05
1.60962e-05
1.60129e-05
1.59241e-05
1.58302e-05
1.57315e-05
1.56285e-05
1.55216e-05
1.54115e-05
1.52985e-05
1.51833e-05
1.50667e-05
1.49492e-05
1.48317e-05
1.47152e-05
1.46007e-05
1.44894e-05
1.43828e-05
1.42829e-05
1.41913e-05
1.41135e-05
1.40581e-05
1.2414e-05
1.27151e-05
1.30179e-05
1.33166e-05
1.36088e-05
1.38922e-05
1.41652e-05
1.44265e-05
1.46752e-05
1.49104e-05
1.51316e-05
1.53382e-05
1.55301e-05
1.5707e-05
1.58692e-05
1.60167e-05
1.61498e-05
1.62689e-05
1.63743e-05
1.64665e-05
1.6546e-05
1.66133e-05
1.66688e-05
1.6713e-05
1.67464e-05
1.67696e-05
1.67829e-05
1.67867e-05
1.67816e-05
1.67679e-05
1.6746e-05
1.67164e-05
1.66792e-05
1.66351e-05
1.6584e-05
1.65266e-05
1.6463e-05
1.63937e-05
1.63189e-05
1.62389e-05
1.61542e-05
1.6065e-05
1.59718e-05
1.58749e-05
1.57749e-05
1.56721e-05
1.55672e-05
1.54607e-05
1.53533e-05
1.52457e-05
1.51389e-05
1.50339e-05
1.49322e-05
1.48353e-05
1.47478e-05
1.46792e-05
1.2407e-05
1.26988e-05
1.29921e-05
1.32822e-05
1.35664e-05
1.3843e-05
1.41104e-05
1.43678e-05
1.46143e-05
1.4849e-05
1.50715e-05
1.52813e-05
1.5478e-05
1.56614e-05
1.58315e-05
1.59883e-05
1.61319e-05
1.62626e-05
1.63805e-05
1.6486e-05
1.65796e-05
1.66615e-05
1.67323e-05
1.67922e-05
1.68418e-05
1.68814e-05
1.69115e-05
1.69324e-05
1.69446e-05
1.69484e-05
1.69442e-05
1.69323e-05
1.6913e-05
1.68867e-05
1.68536e-05
1.68141e-05
1.67684e-05
1.67168e-05
1.66596e-05
1.65971e-05
1.65294e-05
1.64568e-05
1.63798e-05
1.62985e-05
1.62132e-05
1.61243e-05
1.60322e-05
1.59371e-05
1.58396e-05
1.57401e-05
1.56392e-05
1.55376e-05
1.54365e-05
1.5337e-05
1.52431e-05
1.5165e-05
1.23966e-05
1.26757e-05
1.2956e-05
1.32332e-05
1.35053e-05
1.37707e-05
1.40282e-05
1.42767e-05
1.45159e-05
1.47449e-05
1.49634e-05
1.51709e-05
1.53671e-05
1.55517e-05
1.57246e-05
1.58857e-05
1.6035e-05
1.61727e-05
1.62987e-05
1.64135e-05
1.65172e-05
1.66101e-05
1.66926e-05
1.67649e-05
1.68275e-05
1.68806e-05
1.69246e-05
1.696e-05
1.69868e-05
1.70057e-05
1.70167e-05
1.70203e-05
1.70167e-05
1.70062e-05
1.69892e-05
1.69657e-05
1.69361e-05
1.69006e-05
1.68594e-05
1.68128e-05
1.67608e-05
1.67038e-05
1.66419e-05
1.65753e-05
1.65042e-05
1.64287e-05
1.63491e-05
1.62655e-05
1.61783e-05
1.60874e-05
1.59935e-05
1.58967e-05
1.57981e-05
1.56984e-05
1.56013e-05
1.55172e-05
1.23828e-05
1.26455e-05
1.29089e-05
1.31693e-05
1.34251e-05
1.36749e-05
1.39176e-05
1.41527e-05
1.43797e-05
1.4598e-05
1.48074e-05
1.50076e-05
1.51983e-05
1.53791e-05
1.55498e-05
1.57105e-05
1.58609e-05
1.60011e-05
1.61312e-05
1.62512e-05
1.63614e-05
1.64618e-05
1.65526e-05
1.66342e-05
1.67068e-05
1.67707e-05
1.6826e-05
1.68732e-05
1.69124e-05
1.6944e-05
1.69682e-05
1.69853e-05
1.69955e-05
1.69991e-05
1.69962e-05
1.69872e-05
1.69721e-05
1.69513e-05
1.69248e-05
1.68928e-05
1.68554e-05
1.68128e-05
1.67651e-05
1.67123e-05
1.66547e-05
1.65921e-05
1.65247e-05
1.64525e-05
1.63756e-05
1.62941e-05
1.62079e-05
1.61173e-05
1.60229e-05
1.59255e-05
1.58283e-05
1.57419e-05
1.23652e-05
1.26076e-05
1.28501e-05
1.30896e-05
1.33246e-05
1.35542e-05
1.37778e-05
1.39947e-05
1.42047e-05
1.44077e-05
1.46032e-05
1.47912e-05
1.49715e-05
1.51437e-05
1.53077e-05
1.54634e-05
1.56107e-05
1.57493e-05
1.58794e-05
1.60009e-05
1.61139e-05
1.62184e-05
1.63145e-05
1.64025e-05
1.64822e-05
1.65542e-05
1.66185e-05
1.66753e-05
1.67247e-05
1.67671e-05
1.68026e-05
1.68314e-05
1.68538e-05
1.68698e-05
1.68798e-05
1.68838e-05
1.6882e-05
1.68746e-05
1.68616e-05
1.68432e-05
1.68195e-05
1.67904e-05
1.67562e-05
1.67167e-05
1.66719e-05
1.6622e-05
1.65667e-05
1.6506e-05
1.64398e-05
1.63681e-05
1.62907e-05
1.62078e-05
1.61197e-05
1.60272e-05
1.59334e-05
1.58486e-05
1.23435e-05
1.25616e-05
1.27787e-05
1.29927e-05
1.32025e-05
1.34074e-05
1.36071e-05
1.38013e-05
1.39899e-05
1.41728e-05
1.435e-05
1.45213e-05
1.46868e-05
1.4846e-05
1.49991e-05
1.51456e-05
1.52855e-05
1.54187e-05
1.55451e-05
1.56645e-05
1.57769e-05
1.58823e-05
1.59806e-05
1.6072e-05
1.61565e-05
1.62341e-05
1.63051e-05
1.63693e-05
1.6427e-05
1.64784e-05
1.65236e-05
1.65626e-05
1.65957e-05
1.66229e-05
1.66445e-05
1.66604e-05
1.66709e-05
1.6676e-05
1.66757e-05
1.66702e-05
1.66594e-05
1.66434e-05
1.66222e-05
1.65957e-05
1.65638e-05
1.65264e-05
1.64834e-05
1.64346e-05
1.63799e-05
1.6319e-05
1.62518e-05
1.61784e-05
1.60992e-05
1.60148e-05
1.59282e-05
1.58494e-05
1.23174e-05
1.25063e-05
1.26934e-05
1.28771e-05
1.30569e-05
1.32326e-05
1.34039e-05
1.3571e-05
1.37338e-05
1.38926e-05
1.40473e-05
1.4198e-05
1.43446e-05
1.44871e-05
1.46252e-05
1.47588e-05
1.48877e-05
1.50118e-05
1.51309e-05
1.52449e-05
1.53535e-05
1.54568e-05
1.55545e-05
1.56467e-05
1.57334e-05
1.58143e-05
1.58897e-05
1.59595e-05
1.60238e-05
1.60825e-05
1.61357e-05
1.61837e-05
1.62263e-05
1.62636e-05
1.62958e-05
1.63229e-05
1.63449e-05
1.63619e-05
1.63739e-05
1.63809e-05
1.63828e-05
1.63797e-05
1.63715e-05
1.63581e-05
1.63393e-05
1.6315e-05
1.6285e-05
1.6249e-05
1.62069e-05
1.61585e-05
1.61036e-05
1.60422e-05
1.59749e-05
1.59025e-05
1.58278e-05
1.57602e-05
1.2286e-05
1.24405e-05
1.25923e-05
1.27408e-05
1.28859e-05
1.30278e-05
1.31666e-05
1.33026e-05
1.3436e-05
1.35671e-05
1.36959e-05
1.38226e-05
1.39471e-05
1.40693e-05
1.41893e-05
1.43067e-05
1.44214e-05
1.45334e-05
1.46422e-05
1.47477e-05
1.48497e-05
1.49481e-05
1.50426e-05
1.51332e-05
1.52195e-05
1.53017e-05
1.53796e-05
1.54531e-05
1.55221e-05
1.55867e-05
1.56468e-05
1.57024e-05
1.57535e-05
1.58001e-05
1.58422e-05
1.58798e-05
1.59129e-05
1.59415e-05
1.59656e-05
1.5985e-05
1.59999e-05
1.601e-05
1.60152e-05
1.60155e-05
1.60106e-05
1.60004e-05
1.59847e-05
1.59631e-05
1.59356e-05
1.59019e-05
1.5862e-05
1.5816e-05
1.57647e-05
1.57091e-05
1.56519e-05
1.56014e-05
1.22484e-05
1.23624e-05
1.24736e-05
1.25819e-05
1.2688e-05
1.27922e-05
1.28951e-05
1.29969e-05
1.3098e-05
1.31987e-05
1.32992e-05
1.33993e-05
1.34993e-05
1.35991e-05
1.36984e-05
1.37973e-05
1.38954e-05
1.39926e-05
1.40886e-05
1.41832e-05
1.42762e-05
1.43673e-05
1.44563e-05
1.45429e-05
1.4627e-05
1.47084e-05
1.47869e-05
1.48624e-05
1.49348e-05
1.50039e-05
1.50696e-05
1.51319e-05
1.51906e-05
1.52458e-05
1.52973e-05
1.53451e-05
1.53892e-05
1.54294e-05
1.54657e-05
1.5498e-05
1.55263e-05
1.55503e-05
1.557e-05
1.55851e-05
1.55955e-05
1.56011e-05
1.56015e-05
1.55967e-05
1.55864e-05
1.55706e-05
1.55495e-05
1.55232e-05
1.54928e-05