/*--------------------------------*- C++ -*----------------------------------*\
  =========                 |
  \\      /  F ield         | OpenFOAM: The Open Source CFD Toolbox
   \\    /   O peration     | Website:  https://openfoam.org
    \\  /    A nd           | Version:  6
     \\/     M anipulation  |
\*---------------------------------------------------------------------------*/
FoamFile
{
    version     2.0;
    format      ascii;
    class       volScalarField;
    location    "0";
    object      P_rec;
}
// * * * * * * * * * * * * * * * * * * * * * * * * * * * * * * * * * * * * * //

dimensions      [0 2 -2 0 0 0 0];

internalField   nonuniform List<scalar> 
918
(
4.06856
3.48502
0.424127
4.21158
0.0449625
2.80427
0.292471
2.73724
4.33293
1.00432
0.630314
3.34973
1.29613
1.31293
1.10927
0.288269
3.18645
-0.0317789
3.48882
0.286779
-0.676629
4.20508
3.91765
3.49262
3.28651
0.739755
1.64299
-0.189302
-0.252817
-0.164246
0.0889553
0.3774
0.246771
1.72214
2.64594
3.1438
3.3742
2.28882
0.60307
0.641058
0.407964
0.023616
2.81607
2.8834
1.83064
2.6537
2.51629
3.47206
4.21198
4.35459
3.96477
4.18788
4.33455
1.26296
0.913404
0.770681
1.03984
0.908595
0.69609
0.653308
0.70614
0.663862
0.651931
3.19736
3.33672
3.35006
3.3658
3.32379
3.31795
3.60821
3.9106
1.24095
2.17504
1.51414
1.7824
1.47609
1.55456
1.44712
1.38616
1.00513
0.300463
1.4867
1.52265
-0.0250207
0.294168
0.363408
3.19571
3.22297
3.14509
3.13373
2.01509
0.149588
-0.147691
3.54454
3.52983
4.25385
4.01569
3.68051
3.46315
0.278067
0.326477
0.106824
0.321116
0.245922
0.717998
1.30208
3.40322
3.48958
3.28781
3.30647
3.29096
2.83676
3.38212
3.31679
1.46268
1.35333
1.02274
1.18422
1.68249
1.6424
1.81373
1.75589
-0.217089
0.00351459
0.326911
0.233957
0.303031
3.36297
3.33098
3.42695
3.39711
3.41686
2.11443
2.04173
2.39343
2.50855
1.06888
1.09534
0.0644814
0.151688
-0.160942
2.59468
2.9426
2.98932
1.4662
1.81528
1.4967
1.9993
2.03081
3.41495
3.44381
3.42112
3.4975
3.52185
3.52056
4.23045
4.20134
4.39922
1.272
1.36959
1.25938
1.16332
0.465176
0.556377
0.454887
0.829016
0.911538
0.727577
0.829985
0.728583
0.614734
0.89497
0.781226
0.83452
0.586016
0.46082
3.19168
3.14408
3.21528
3.24622
3.36891
3.34698
3.38052
3.37508
1.94987
1.99296
1.86939
1.80727
-0.353036
-2.4408
1.67021
1.65026
0.0207274
-0.0632972
-0.0192946
-0.281012
-0.0478546
-0.124754
0.497411
0.381276
0.416882
0.432122
3.25642
3.30468
2.06153
2.13293
1.84811
1.79277
3.48496
3.5321
3.53238
3.53374
0.379714
0.394577
0.41147
2.36995
1.85327
2.1046
2.77641
2.61081
2.90313
2.98222
3.29825
3.29663
3.31706
1.4627
1.4253
2.13854
1.48568
1.90814
1.38168
1.86054
2.59165
1.38709
3.26545
3.31428
3.30673
3.42839
3.45569
3.45389
3.39227
3.39825
3.39643
1.83735
1.65852
2.57528
2.55107
2.56832
2.63212
2.57101
2.56011
3.09113
3.00278
3.05061
2.30805
2.27432
1.04053
1.01507
3.04948
3.09061
3.06705
1.74803
1.64621
1.73762
1.71567
1.65637
1.75202
1.52041
0.439026
1.05113
1.54545
1.62593
1.51567
0.478608
0.608957
0.537825
2.09901
2.18621
1.44033
1.67101
1.59502
1.06562
1.33362
1.5676
1.26951
1.54579
1.60853
1.48372
2.50961
2.4783
2.5392
2.46247
2.49483
2.54552
2.373
2.36601
0.929519
0.980963
0.955198
2.18275
2.36615
2.29818
3.45759
3.43295
-0.154776
0.0675064
3.83825
3.92565
-0.249121
0.0347441
1.63242
1.7401
2.41523
3.52906
3.37187
3.68475
0.82652
1.00914
0.501881
0.462703
0.18407
3.24302
3.11504
3.02602
-0.139924
0.154195
0.0830758
0.537563
3.65627
3.57354
3.63047
3.69738
3.74112
0.125828
0.0562033
0.14831
0.15249
0.294801
0.372666
3.38075
3.34322
0.928096
3.6143
3.71416
3.71426
3.6708
3.70511
3.63653
0.188203
0.243771
0.334479
2.67211
2.83017
1.39603
0.602386
1.85221
1.63979
1.65838
1.61303
1.2615
1.52082
1.11117
2.91355
2.69972
2.55578
2.17881
2.57243
2.57285
3.54395
3.58717
3.44573
3.50096
3.65179
3.40044
3.71561
3.56056
3.54158
3.73592
0.945181
1.13421
1.08696
0.798488
1.22827
1.43914
1.15608
1.26885
0.848178
0.470433
0.653962
0.552878
0.687005
0.474321
0.674194
0.591837
0.843275
0.43689
0.713418
0.388077
1.00551
0.606905
3.21628
3.32405
3.25629
3.38335
3.18918
3.316
3.22165
3.19349
3.26681
3.04336
3.10393
3.12068
0.175132
0.228794
0.28623
0.218825
0.423063
0.195025
0.276476
0.229291
0.183163
0.104197
0.126669
0.305924
0.828055
0.567584
1.92314
1.64911
1.17854
3.42191
3.65172
3.53824
3.66001
3.70451
3.82508
3.68798
3.60205
3.38824
3.4796
3.37358
3.42579
1.17568
1.06571
1.32123
1.42894
2.19676
3.24941
2.99976
2.8849
2.90334
3.0219
2.86142
2.49181
-0.261364
-1.13489
1.75331
1.5515
1.62202
2.00908
2.04165
1.50563
1.31859
1.38582
1.44703
1.69536
1.79865
2.76776
1.83991
1.7749
2.26609
2.18097
1.70002
2.96613
2.99269
2.63526
2.49101
2.8601
2.78722
2.82163
2.8354
2.85065
2.9108
2.75155
2.75043
2.63247
3.09088
2.92635
2.94395
2.82286
3.57134
3.61049
3.51682
3.41941
3.61143
3.45148
3.42329
3.32781
3.37584
3.54012
3.50224
3.41969
1.11936
0.961452
1.16265
0.808195
1.109
0.876156
1.1205
1.15023
0.926502
1.15064
1.52632
1.16191
1.04262
1.26937
1.06196
1.4259
1.27573
1.28558
0.924686
1.16227
1.21956
1.14727
1.03679
0.574935
0.677064
1.08472
0.650473
0.828848
0.904182
1.05344
0.625787
0.880686
0.707186
0.543632
0.728432
1.07252
0.774136
0.855546
0.326096
0.273333
0.041814
0.201522
0.865123
0.625531
3.44127
3.35142
3.36428
3.31413
3.43282
3.35029
3.17693
3.38318
3.53308
3.40033
3.25238
3.2176
3.08962
3.22613
3.24662
3.24456
3.45782
3.42411
3.28901
3.35943
3.23512
3.26409
3.04294
3.16793
3.23298
0.0284703
0.387565
0.263706
0.239075
0.263131
0.429554
0.780854
0.353312
0.683966
0.575808
0.508006
0.424616
0.460939
1.21212
1.36553
1.23951
0.843915
0.730329
1.99996
2.06579
1.92423
1.78523
1.96465
1.95879
2.07826
1.68435
1.54879
1.70009
2.33739
2.33217
3.56628
3.50155
3.56453
3.67036
3.57604
1.67134
1.99834
2.06732
2.47928
2.34084
2.42155
1.98611
1.99491
2.04943
2.17626
3.17052
3.20701
3.22845
3.30587
3.30354
2.88641
3.06797
3.02275
3.21007
3.09778
3.08447
3.23922
3.14271
3.02347
3.10199
3.11155
3.15869
3.13593
3.06129
3.14295
3.2671
3.21434
3.18369
3.21823
3.38248
3.11358
3.27104
3.4281
3.3173
3.07789
3.09825
3.14619
3.1425
3.14912
3.16282
3.09383
2.54535
2.65593
2.23024
2.24287
2.20433
1.95082
1.96285
2.12974
2.13427
1.86811
1.75275
1.30201
2.50881
2.36194
2.17187
1.28402
2.42532
2.62519
2.54188
2.15224
2.12129
3.03496
3.04193
3.08365
2.83708
2.74966
2.76145
2.70727
2.873
2.63009
2.33005
2.69101
2.47755
2.56261
2.72996
2.64926
2.6506
2.74494
2.90833
2.79917
2.75537
2.89534
2.77641
2.88462
2.93927
2.98317
3.11605
2.94624
2.73515
2.92695
2.82617
2.88368
2.96021
2.92764
3.48149
3.4332
3.49184
3.4677
3.3761
3.44838
3.31413
3.49703
3.5306
3.58599
3.56146
0.593188
0.791165
1.06422
0.802704
0.940288
0.988212
1.17098
1.1641
1.1937
1.25015
0.990856
1.13354
1.19107
0.914181
1.20576
1.17477
0.956913
0.960916
1.58601
1.64446
1.56424
1.56437
1.53066
1.40087
1.5784
0.778748
1.12011
0.880722
0.878977
0.856492
0.583755
0.855863
0.511821
0.74549
0.481891
0.0199893
0.446656
0.599661
0.280239
0.400264
0.434611
3.3178
3.37335
3.33809
3.28173
3.27836
3.30416
3.36605
3.49453
3.45619
3.43854
3.48167
3.38125
3.40179
0.47303
0.885236
0.986188
0.532708
0.630253
0.243165
0.0997266
2.04604
1.69983
1.72187
1.4053
1.24454
1.36724
2.20254
2.28938
2.34437
2.49094
2.40233
2.30345
2.3796
2.55501
2.20751
2.21728
2.17142
2.08171
2.21207
2.25277
2.20757
2.21757
2.33177
2.63493
2.1165
2.10427
2.15029
2.47248
2.4201
2.3676
2.49101
2.46332
2.38635
2.28283
2.0638
2.5307
2.31873
2.57528
2.56824
1.9315
2.36613
2.29353
3.12165
3.14033
3.18275
3.16379
3.16894
3.25575
3.16633
3.26697
3.37722
3.3815
1.34912
1.34007
1.18292
2.16385
2.33208
2.70459
2.21485
3.31977
3.06677
2.77117
2.77609
2.83918
2.77882
2.86318
2.82903
2.70375
2.81522
2.66681
2.7741
2.61545
2.56769
2.98785
2.94256
2.9901
2.99736
2.94434
3.02135
3.2
3.36996
3.27454
3.38751
3.46523
3.53164
1.22614
0.924145
1.12496
1.18458
1.10394
0.903545
0.349546
0.397408
0.94824
0.854942
0.587788
0.799682
1.7846
1.80298
1.42338
1.74338
1.78394
1.32079
1.5209
1.32477
1.4572
1.81651
2.21242
2.14533
2.26132
2.28197
2.09992
2.3265
2.37548
2.48837
2.47389
2.27884
2.22501
2.24855
1.51716
2.02238
3.42196
3.54537
2.84024
2.55757
2.22881
2.55622
2.91115
2.77419
2.76824
2.89784
2.77788
2.023
2.18686
1.98794
1.84869
2.59643
2.19846
2.30235
2.13529
2.35671
)
;

boundaryField
{
    wall-4
    {
        type            calculated;
        value           nonuniform List<scalar> 
100
(
4.06856
3.48502
0.424127
4.21158
2.80427
0.292471
2.73724
1.00432
0.630314
3.34973
1.29613
1.31293
1.10927
3.18645
-0.0317789
3.48882
0.286779
-0.676629
3.49262
3.28651
0.739755
1.64299
-0.189302
1.72214
3.3742
0.641058
0.023616
2.8834
1.83064
2.51629
3.47206
0.770681
0.908595
0.70614
0.651931
3.19736
3.35006
3.32379
2.17504
1.7824
1.55456
1.38616
0.300463
1.52265
3.22297
3.13373
-0.147691
3.52983
3.46315
0.326477
0.245922
1.30208
3.48958
3.29096
2.83676
3.31679
1.46268
1.18422
1.6424
1.75589
3.33098
3.42695
3.41686
1.09534
-0.160942
2.98932
1.4967
2.03081
3.42112
3.52056
0.454887
0.911538
0.83452
0.46082
3.14408
3.24622
3.36891
3.37508
1.80727
1.65026
3.30468
3.48496
3.53374
0.41147
2.1046
2.61081
2.98222
3.31706
1.4253
1.38168
3.30673
3.45389
3.39643
3.05061
2.27432
3.06705
1.71567
1.51567
1.54579
2.36601
)
;
    }
    velocity-inlet-5
    {
        type            calculated;
        value           nonuniform List<scalar> 8(4.06856 4.21158 4.33293 4.20508 4.35459 4.33455 4.25385 4.39922);
    }
    velocity-inlet-6
    {
        type            calculated;
        value           nonuniform List<scalar> 4(3.48502 2.80427 3.1438 3.9106);
    }
    pressure-outlet-7
    {
        type            calculated;
        value           uniform 0;
    }
    wall-8
    {
        type            calculated;
        value           nonuniform List<scalar> 
34
(
0.0449625
0.288269
0.246771
2.28882
1.26296
0.69609
0.363408
2.01509
0.303031
2.04173
2.50855
2.59468
1.36959
1.16332
0.829985
0.614734
-2.4408
0.497411
0.432122
2.13293
1.79277
1.65852
2.57528
2.63212
2.56011
1.01507
1.05113
0.537825
2.18621
1.59502
2.5392
2.49483
0.955198
2.29818
)
;
    }
    frontAndBackPlanes
    {
        type            empty;
    }
}

