/*--------------------------------*- C++ -*----------------------------------*\
  =========                 |
  \\      /  F ield         | OpenFOAM: The Open Source CFD Toolbox
   \\    /   O peration     | Website:  https://openfoam.org
    \\  /    A nd           | Version:  6
     \\/     M anipulation  |
\*---------------------------------------------------------------------------*/
FoamFile
{
    version     2.0;
    format      ascii;
    class       volVectorField;
    location    "0";
    object      U;
}
// * * * * * * * * * * * * * * * * * * * * * * * * * * * * * * * * * * * * * //

dimensions      [0 1 -1 0 0 0 0];

internalField   nonuniform List<vector> 
918
(
(0.976504 -0.0213057 0)
(-0.00468409 2.96762 0)
(-0.064483 1.72788 0)
(0.940468 0.0477717 0)
(-0.0439768 1.69171 -1.64996e-21)
(0.00138619 2.95085 -1.2007e-18)
(1.18909 1.52865 4.58128e-19)
(0.569395 0.309964 -5.72232e-21)
(0.991469 -0.0102981 0)
(0.00275265 1.73961 0)
(0.0188437 1.6888 0)
(0.914045 0.0321615 0)
(0.0126794 2.93053 0)
(-0.0235235 2.90781 0)
(-0.0334423 3.09526 7.89754e-19)
(0.00814113 1.67201 -1.65776e-20)
(0.714611 0.144352 4.73809e-19)
(0.278296 1.97087 4.57202e-19)
(0.990839 0.0736002 0)
(0.0220107 1.69588 0)
(0.438715 0.394766 -2.83687e-19)
(0.9366 0.00550169 0)
(0.941863 -0.00268705 0)
(0.969261 0.0428214 0)
(0.841603 0.0515848 0)
(0.062667 2.62253 0)
(-0.0317277 2.91778 3.7183e-19)
(-0.00748263 1.73427 0)
(-0.00718803 1.75329 0)
(-0.00174955 1.75601 0)
(-0.00598506 1.79092 0)
(-0.0224011 1.71399 1.29377e-21)
(-0.00725947 1.6746 0)
(-0.0194325 2.99075 -4.14379e-23)
(-0.0134921 3.00783 9.45417e-19)
(0.00156041 2.99947 0)
(0.968093 0.0063413 0)
(0.497707 0.610566 -1.07928e-20)
(1.11406 1.58121 -4.73343e-19)
(1.26033 1.27999 4.9704e-19)
(0.944098 1.78515 -1.02557e-19)
(1.05748 1.74801 6.29153e-19)
(0.605438 0.33018 5.58088e-21)
(0.57354 0.296895 0)
(1.3245 0.676324 0)
(0.59632 0.350183 2.25238e-20)
(0.53311 0.34321 -2.33767e-20)
(0.958284 0.00921192 0)
(0.986875 -0.00161622 0)
(0.995675 0.00628989 0)
(0.932592 -0.0384623 0)
(0.98192 0.00394331 0)
(0.99911 0.0078246 0)
(-0.00799803 1.62134 -3.12727e-19)
(-0.00703202 1.78254 0)
(0.0399872 1.77522 0)
(0.0121005 1.77666 0)
(0.0290313 1.69693 0)
(0.000156866 1.69097 0)
(0.00711708 1.73624 0)
(0.0148731 1.68614 0)
(0.0139683 1.73055 0)
(0.0176809 1.69422 0)
(0.965871 -0.0315843 0)
(0.960905 0.0165209 0)
(0.924355 0.000689344 0)
(0.934066 0.0154001 0)
(0.919124 -0.00337122 0)
(0.0139161 3.00376 4.30662e-19)
(0.0128232 3.00566 0)
(0.00719959 3.00324 0)
(0.0118379 2.99772 4.75968e-24)
(0.00667432 2.96178 -6.48026e-19)
(0.0167946 2.98213 0)
(0.0210421 2.89839 0)
(-0.016946 2.992 7.36591e-25)
(-0.0398051 2.91413 0)
(0.0212121 2.99201 0)
(0.00724667 2.83586 0)
(0.15117 3.31572 0)
(-0.111668 3.37004 0)
(0.0686559 3.1638 -7.29743e-19)
(-0.0169812 2.9786 0)
(-0.00684134 1.74761 0)
(0.0101893 1.71948 1.63502e-20)
(0.0182997 1.68006 -1.08776e-20)
(0.740374 0.183159 -1.65502e-19)
(0.718453 0.132091 -1.66878e-19)
(0.729002 0.222414 -4.93228e-19)
(0.667247 0.200218 -3.21492e-19)
(0.186182 1.32891 0)
(0.382215 2.05325 -4.68992e-19)
(0.502908 2.04357 7.92164e-19)
(0.971019 0.052721 0)
(0.940383 0.0203967 0)
(0.996396 -0.0117965 0)
(0.969827 0.00711425 0)
(1.04028 0.0749626 -1.18955e-18)
(1.00786 0.0356998 9.08337e-19)
(0.00573581 1.74499 0)
(-0.00293642 1.71048 0)
(-0.00669715 1.74669 0)
(0.0271075 1.73164 0)
(0.0252601 1.69154 0)
(0.401529 0.446756 8.04067e-20)
(0.516686 0.375802 0)
(1.03052 0.0105879 0)
(0.994713 0.00616409 0)
(0.936261 -0.00341016 0)
(0.912444 0.0237016 0)
(0.913999 0.00619001 0)
(1.11133 -0.0166103 0)
(0.844405 0.0780588 0)
(0.784373 0.0479038 7.01369e-19)
(-0.0121335 2.80735 1.46207e-19)
(0.0565199 2.96463 0)
(0.0393292 2.90853 0)
(0.029644 2.74861 0)
(-0.0539739 2.97846 3.69732e-19)
(-0.0556766 2.88878 0)
(-0.0104371 3.00946 -1.10593e-18)
(0.000784927 2.94498 3.77954e-19)
(0.0148402 1.76531 0)
(0.00997669 1.75923 0)
(-0.0188505 1.72137 -5.87973e-23)
(-0.00203275 1.7156 0)
(-0.0101886 1.66316 0)
(0.99631 0.0106418 0)
(0.975541 -0.00073146 0)
(0.939531 -0.0190003 0)
(0.991599 0.0165974 0)
(0.964833 0.012737 0)
(0.609604 0.879994 4.28915e-21)
(0.396517 0.776821 0)
(0.716035 0.910426 6.58852e-21)
(0.613474 0.716954 0)
(1.13855 1.37237 -1.35222e-19)
(1.29949 1.02869 2.56495e-19)
(0.579554 2.06462 0)
(0.774185 1.95655 0)
(0.819453 1.95393 0)
(0.581385 1.17558 -2.25574e-19)
(0.640313 0.317655 0)
(0.629799 0.242294 8.40374e-20)
(1.19565 1.11516 0)
(1.23718 0.909335 0)
(1.29717 0.834187 -1.94134e-19)
(1.251 0.65997 0)
(1.31246 0.451369 2.3052e-20)
(0.980321 -0.00158393 0)
(0.999673 -0.00415551 0)
(0.953034 -0.0325445 0)
(0.985102 0.0112898 0)
(0.982224 0.00689225 0)
(0.956918 0.00563607 0)
(0.969656 -0.00882086 0)
(0.982426 0.00382911 0)
(0.994812 0.00530681 0)
(0.0175558 1.66683 1.64039e-19)
(0.0633596 1.59413 0)
(-0.0294531 1.64733 2.98182e-19)
(-0.0211116 1.5914 -2.62762e-19)
(0.183838 1.93979 -3.80792e-19)
(0.0458783 1.83656 0)
(0.110792 1.84605 0)
(0.0039301 1.75275 0)
(-0.0241001 1.70993 0)
(0.00941028 1.71163 -6.77466e-22)
(0.00644978 1.65934 0)
(-0.0175998 1.72035 -3.56916e-20)
(-0.00848656 1.68603 6.74484e-20)
(-0.022856 1.75787 0)
(0.0151416 1.74295 0)
(-0.0078426 1.71199 0)
(0.00639996 1.73364 0)
(0.0107604 1.68544 0)
(1.01119 0.00522427 0)
(0.994356 0.0292087 0)
(1.028 0.00886785 0)
(0.973592 0.0289938 0)
(0.949969 -0.00628968 0)
(0.978706 -0.00366736 0)
(0.963183 0.0151814 0)
(0.950919 -0.0066445 0)
(0.00754609 3.06544 -3.18396e-21)
(0.0121639 3.05572 0)
(0.0169198 2.96376 0)
(0.0109835 2.88101 0)
(0.597508 3.51558 0)
(0.832075 2.81921 5.57795e-19)
(0.0655668 3.07383 0)
(-0.00119575 2.8746 0)
(-0.00279976 1.73957 0)
(0.00987547 1.73904 0)
(0.00356207 1.74097 0)
(-0.00204317 1.79035 -1.50271e-22)
(-0.00418947 1.74764 0)
(-0.00638009 1.77251 0)
(-0.0384855 1.65577 -4.79325e-21)
(-0.0116432 1.721 3.20636e-20)
(0.019791 1.73873 1.0974e-20)
(0.0400729 1.68323 0)
(0.768321 0.136997 2.5646e-19)
(0.740506 0.065903 -2.47582e-19)
(0.167988 1.4099 0)
(0.277499 1.33059 -1.40516e-19)
(0.1429 1.42363 -4.08995e-19)
(0.163162 1.39574 4.08612e-19)
(0.960166 -0.00733382 0)
(0.976145 -0.0055358 0)
(0.976919 -0.00348796 0)
(0.948254 0.00613903 0)
(0.00106605 1.72349 0)
(-0.00784679 1.7428 0)
(-0.0170004 1.70283 0)
(0.560674 0.3685 1.87616e-19)
(0.536876 0.38891 -1.96169e-19)
(0.519781 0.359537 0)
(1.20249 0.0871936 1.07465e-20)
(1.20727 0.0619367 0)
(1.13714 0.0456895 0)
(1.05328 0.0192341 0)
(0.789977 0.0982395 0)
(0.814599 0.0512658 -1.13428e-18)
(0.767999 0.0160657 4.32693e-19)
(0.00647963 2.95982 2.36275e-19)
(-0.0428568 2.81499 4.22011e-20)
(0.0225781 3.04265 -7.33006e-21)
(0.017514 3.04319 2.77462e-19)
(-0.00725739 2.99732 1.31561e-20)
(-0.0100203 2.95558 -5.42202e-23)
(-0.0158541 3.01046 -2.53101e-19)
(0.0112673 3.01882 1.86614e-19)
(0.0111208 3.02668 -3.10841e-19)
(1.0074 0.0229537 0)
(1.00834 0.0118244 0)
(0.969865 0.0236644 0)
(0.984395 -0.0219942 0)
(0.988917 -0.00471629 0)
(0.962077 -0.017859 0)
(0.974339 0.00948173 0)
(0.984613 0.00498593 0)
(0.949624 0.0155497 0)
(0.549438 1.06334 1.70229e-19)
(0.389628 1.09376 0)
(0.639445 1.02275 6.2514e-20)
(0.669139 1.14938 4.47079e-19)
(0.69713 1.02223 -2.33029e-19)
(0.639459 0.888572 4.27707e-19)
(0.472722 1.3115 1.09012e-18)
(0.473063 1.1933 2.19681e-19)
(0.690102 0.248131 3.42535e-19)
(0.676646 0.269735 8.35053e-20)
(0.658722 0.227516 1.64138e-19)
(1.26919 0.496936 8.10611e-20)
(1.31011 0.335175 9.92412e-20)
(0.00583754 1.66325 1.21372e-19)
(0.0286693 1.64458 0)
(1.06949 0.0286907 0)
(1.0574 0.0165615 0)
(1.02191 -0.0153535 0)
(0.0143405 3.06219 0)
(-0.031058 2.96504 4.68788e-19)
(-0.00632143 2.95526 0)
(-0.0368168 2.87986 -4.86062e-19)
(0.0362426 3.08036 1.03746e-19)
(0.0263086 3.07693 0)
(0.468107 1.2814 -1.17338e-19)
(0.848215 2.0426 3.4429e-19)
(0.391867 1.45909 -7.64946e-19)
(0.0449072 2.96927 -1.39072e-19)
(0.0620661 2.99358 0)
(0.00901874 2.81833 0)
(0.0140124 1.7288 -3.58602e-21)
(-0.0274068 1.74669 -5.17301e-20)
(0.0196151 1.71473 -3.93344e-21)
(0.262319 1.39311 4.42459e-19)
(0.343346 1.30456 -3.07688e-19)
(0.0469276 1.61219 2.79192e-19)
(0.0884958 1.51944 -3.38613e-19)
(0.0864192 1.49535 3.73827e-20)
(0.0484094 3.08326 -6.08783e-19)
(0.0494617 3.09399 6.81903e-19)
(-0.0359886 2.97224 3.14109e-19)
(-0.0412613 2.93815 -2.71955e-19)
(-0.0502184 2.8347 -3.20023e-19)
(0.0371673 3.0714 -7.62569e-19)
(0.0284721 3.08271 8.30814e-19)
(0.576427 1.26612 0)
(0.625208 1.22728 -1.05471e-18)
(0.621513 1.11433 4.74674e-19)
(0.429038 1.28934 6.0648e-19)
(0.471434 1.22409 -9.45842e-19)
(1.2856 0.159166 7.16504e-21)
(1.27702 0.2794 0)
(1.28771 0.124537 2.03132e-20)
(-0.0123398 1.70296 -9.47743e-22)
(0.017126 1.70033 0)
(0.00328179 1.6657 0)
(0.315258 1.36323 -1.60635e-19)
(0.385967 1.34793 -3.84661e-19)
(0.392938 1.26876 6.98505e-19)
(1.0188 -0.0646577 0)
(1.00245 -0.0738426 2.36968e-19)
(-0.00103087 1.76834 0)
(-0.00626913 1.77425 0)
(0.968555 -0.0146991 2.2975e-21)
(0.987221 -0.0232967 4.50855e-19)
(0.00427569 1.78076 2.02641e-22)
(0.0135755 1.77537 0)
(0.0736861 3.2473 -9.84392e-20)
(0.217421 3.39379 0)
(1.06381 0.691968 -2.67463e-20)
(1.01758 -0.0155622 9.77485e-22)
(1.02309 0.0158145 0)
(1.00344 -0.0090118 -4.686e-21)
(0.0648241 1.8557 0)
(0.0399564 1.68188 0)
(-0.0110049 1.79363 0)
(0.0287989 1.74924 5.18576e-20)
(0.0268431 1.74991 2.42489e-20)
(0.993247 -0.00805891 -1.57685e-21)
(1.05598 0.00108407 0)
(1.06675 0.0337332 0)
(0.00911191 1.7454 0)
(-0.0246995 1.78661 0)
(-0.00903603 1.79021 0)
(0.256432 1.9672 -1.8232e-19)
(0.988002 -0.0579854 0)
(0.976342 -0.0469388 0)
(1.01565 0.00597337 3.04188e-19)
(1.02092 -0.00127914 -3.53029e-19)
(0.992217 0.0134015 0)
(-0.0170094 1.75245 0)
(0.000840013 1.76196 0)
(-0.00561933 1.74386 0)
(-0.0107279 1.78696 0)
(-0.000191484 1.77644 0)
(-0.00971517 1.77976 0)
(1.02542 0.0100375 0)
(1.02378 -0.0162952 -2.322e-21)
(0.759326 1.63925 2.39255e-19)
(1.03364 -0.0146582 -3.04465e-19)
(1.03408 0.0288236 3.74501e-19)
(0.994034 0.00736795 0)
(1.02087 -0.00701704 2.84002e-19)
(0.974876 -0.0201711 -3.66481e-19)
(0.980973 -0.00896357 0)
(-0.0150898 1.78756 0)
(0.0021994 1.77552 4.7263e-21)
(-6.78031e-06 1.78129 -2.17849e-21)
(1.2061 0.290372 2.12689e-19)
(1.11286 0.0684411 0)
(0.157569 3.09388 -2.5984e-19)
(0.0684346 2.87239 -2.54115e-20)
(0.146892 3.25604 6.18302e-20)
(0.139953 3.28254 9.5603e-20)
(0.145141 3.30234 0)
(0.0216819 3.16874 3.28453e-20)
(0.0940412 3.17818 2.56847e-19)
(0.09468 3.23801 -7.8188e-20)
(0.0983258 3.12531 0)
(0.703068 0.331822 0)
(0.625906 0.404 0)
(1.03221 0.727547 6.09633e-20)
(1.12566 0.832923 -5.89933e-20)
(1.1276 0.597221 0)
(1.18098 0.535525 0)
(1.03428 -0.00256183 -5.5406e-19)
(1.02952 -0.00341917 6.9264e-19)
(1.04339 0.0188384 0)
(1.02563 0.00231341 0)
(0.992249 0.0170271 0)
(1.00723 -0.00713042 0)
(1.03555 -0.0216214 0)
(1.03285 -0.0139979 0)
(1.03784 0.017245 0)
(1.03951 0.0266454 0)
(0.0634056 1.86119 0)
(0.0342823 1.86743 0)
(0.0676561 1.87385 0)
(0.0603116 1.89902 0)
(0.0683252 1.65457 0)
(0.0879345 1.6677 -1.85751e-19)
(0.0198884 1.70789 0)
(0.0194197 1.69782 9.62342e-20)
(0.0168509 1.75365 -9.63629e-20)
(-0.0175751 1.78638 0)
(-0.0214011 1.78006 0)
(0.0168002 1.79697 0)
(0.00949999 1.80837 0)
(-0.0023647 1.74078 -3.08092e-20)
(0.0247098 1.75099 2.82724e-20)
(0.0218041 1.76692 3.2055e-20)
(0.0244722 1.77193 0)
(0.00918615 1.77929 -4.95466e-20)
(-0.0144451 1.77598 -2.95582e-20)
(0.00391282 1.73181 2.37075e-20)
(0.0312758 1.75058 -3.64469e-20)
(0.0246113 1.76717 -3.76586e-20)
(0.999053 -0.00400388 5.33493e-19)
(1.00588 -0.00397145 -6.68359e-19)
(0.998158 -0.00471701 -5.452e-19)
(0.966554 -0.0054261 6.90433e-19)
(1.0365 -0.00776156 0)
(1.04195 -0.0126553 0)
(1.02589 0.0201745 0)
(1.0754 0.0261739 0)
(1.07161 0.0260249 0)
(1.05075 0.048989 0)
(1.08403 0.0336192 0)
(1.08417 0.0388334 0)
(-0.00166133 1.76207 -1.2624e-21)
(0.01931 1.7468 0)
(0.014436 1.7441 0)
(-0.0207938 1.78689 6.87522e-21)
(-0.0243751 1.79864 -1.85874e-22)
(-0.00555461 1.72496 5.80704e-21)
(-0.0130574 1.75747 -5.88093e-21)
(0.013597 1.77094 0)
(0.00978541 1.75968 0)
(-0.00626366 1.76304 0)
(-0.00155233 1.77761 0)
(-0.0152917 1.77168 0)
(0.407662 1.94516 2.86523e-19)
(0.402544 1.95227 1.34826e-19)
(0.272536 1.50806 -1.09004e-19)
(0.15144 1.51556 2.83425e-19)
(0.325815 1.62947 6.49967e-20)
(0.996201 -0.000758348 0)
(0.984796 -0.0234041 0)
(0.996973 0.00804013 0)
(1.03183 -0.018555 0)
(1.01022 -0.0168896 0)
(0.982596 -0.0172534 0)
(0.964227 0.068686 0)
(1.03101 0.0781458 0)
(1.00768 -0.00485754 5.39632e-19)
(1.01644 0.0169185 -6.85468e-19)
(1.02101 -0.0205248 -5.28097e-19)
(1.01675 -0.00947201 6.76736e-19)
(0.757126 1.70846 0)
(0.661626 1.80268 1.78072e-19)
(0.834554 1.47459 5.45071e-20)
(0.852305 1.47176 -7.22698e-20)
(0.899506 1.76029 4.06057e-20)
(0.86433 0.118373 2.67577e-19)
(1.13655 0.100986 0)
(1.09269 0.15483 -1.83679e-19)
(1.14636 0.128618 -7.8412e-21)
(0.954329 0.165608 0)
(0.186273 3.20835 -4.63081e-19)
(0.227984 2.9634 -1.25148e-19)
(0.211857 2.26081 2.01915e-19)
(0.388005 0.299805 4.91778e-21)
(0.148607 3.38706 -3.83138e-19)
(0.128064 3.34885 0)
(0.142893 3.32492 4.68978e-19)
(0.144828 3.25697 9.26622e-19)
(0.168536 3.29492 0)
(0.0386002 3.11011 1.57832e-20)
(0.0581278 3.12203 -1.90139e-19)
(0.0647075 3.11624 2.79502e-19)
(0.0672919 3.14942 0)
(0.0585553 3.17307 0)
(0.892696 1.97464 0)
(0.0732695 0.634733 -8.44853e-20)
(1.02221 1.1973 -4.56275e-21)
(0.947931 1.20321 0)
(0.733745 1.08561 -8.0403e-20)
(0.974563 0.98567 1.86474e-20)
(0.62979 0.56098 -2.0283e-20)
(0.693685 0.329691 -1.0747e-20)
(0.679873 0.322794 1.75492e-19)
(0.623829 0.402728 8.66197e-21)
(0.610225 0.409281 -3.46749e-19)
(0.708063 0.346543 0)
(0.689985 0.385745 2.4263e-19)
(0.69233 0.387145 0)
(0.642245 0.379778 0)
(0.655477 0.353053 0)
(0.64706 0.668528 1.93018e-19)
(1.20428 0.333832 -1.43724e-19)
(1.17539 0.392856 0)
(1.18399 0.388138 0)
(0.786412 0.235261 2.79765e-19)
(0.690786 0.491641 -1.59881e-19)
(0.700625 0.4508 2.89355e-19)
(0.850321 0.423995 -3.11139e-19)
(1.00692 0.0327437 3.71246e-19)
(1.02733 0.00322371 -3.79248e-19)
(1.00898 0.033029 0)
(1.01621 -0.00397968 0)
(1.02147 -0.0360809 -3.6437e-19)
(1.01724 -0.0235249 3.55835e-19)
(1.00849 -0.0140762 0)
(0.995334 -0.00877169 0)
(1.0232 -0.00716457 0)
(1.02899 -0.00650413 0)
(1.00782 -0.0281216 0)
(1.01319 -0.000777044 0)
(0.0256978 1.85766 0)
(0.018147 1.84336 0)
(0.0401026 1.81587 7.45093e-20)
(0.249084 1.95068 9.45434e-20)
(0.0769451 1.90948 2.02017e-19)
(0.0970391 1.94983 -3.27565e-19)
(0.0938726 1.83421 0)
(0.1532 1.74926 -5.20265e-20)
(0.132042 1.80948 0)
(0.304693 1.69836 -9.38629e-20)
(0.232446 1.65517 3.28344e-19)
(0.172048 1.75209 4.51351e-20)
(0.269563 1.88314 3.08927e-20)
(0.210036 1.84402 -2.48301e-20)
(0.334721 1.77227 -2.09746e-20)
(0.263212 1.72957 0)
(0.294744 1.75163 2.47581e-20)
(0.0226452 1.74214 -2.73371e-20)
(0.0392131 1.75343 0)
(0.094247 1.72855 1.13079e-19)
(0.0501717 1.73316 0)
(0.0452571 1.72194 -1.10662e-19)
(0.0506851 1.75176 0)
(0.0168911 1.7701 -1.01452e-20)
(-0.00951916 1.77538 0)
(0.0176563 1.7597 0)
(0.0335939 1.76164 1.12567e-20)
(0.0122461 1.75346 -8.16047e-22)
(0.000370465 1.76022 1.10861e-19)
(0.00527559 1.75798 7.65015e-22)
(0.00444288 1.72864 1.58605e-20)
(-0.0263667 1.73933 1.35098e-20)
(-0.0129255 1.78376 0)
(0.00746971 1.76901 0)
(4.96057e-05 1.76374 6.29908e-20)
(0.019932 1.73992 5.40326e-20)
(-0.0052277 1.75174 -7.48315e-20)
(0.00102186 1.75608 0)
(-0.0169773 1.77164 -5.82511e-21)
(0.00994363 1.77199 9.06883e-21)
(0.0281316 1.76005 -4.39251e-21)
(0.0278899 1.72547 -1.95498e-20)
(-0.0199803 1.73773 -1.23642e-20)
(0.000989178 1.76971 2.66909e-20)
(1.01525 0.00368639 -3.65042e-19)
(0.994716 0.0320359 3.66251e-19)
(0.998404 0.0253405 0)
(0.967106 0.0347298 4.96698e-19)
(0.94549 0.0410967 -5.6262e-19)
(0.917709 0.0548984 6.35849e-19)
(0.97593 0.0124178 -6.39237e-20)
(1.05017 -0.00490172 0)
(1.03833 -0.0281975 3.32269e-19)
(1.03669 -0.0272329 -3.38095e-19)
(0.976557 0.0349206 -1.90439e-20)
(1.01376 0.0294006 1.61593e-19)
(0.96936 0.0601741 0)
(0.974737 0.0293585 -6.0804e-20)
(1.01823 0.0553284 0)
(0.996928 0.0477073 0)
(1.01213 0.0303316 0)
(1.01262 0.0189372 0)
(1.02282 0.0484415 1.22509e-19)
(0.993311 0.0116615 -2.71057e-19)
(0.915331 -0.00385497 -1.28026e-19)
(0.956111 0.0237339 -1.4444e-19)
(1.01473 0.0857957 2.50829e-19)
(1.06696 0.0701919 0)
(1.01322 0.0712989 0)
(-0.031162 1.76276 -2.36401e-20)
(-0.0266543 1.7698 -5.52851e-22)
(-0.0256075 1.76405 0)
(-0.0188439 1.77728 2.40932e-20)
(0.00941944 1.7676 1.71741e-21)
(-0.00287708 1.77699 -2.1027e-21)
(5.96051e-05 1.77393 2.00759e-20)
(0.032629 1.73756 -2.1235e-21)
(-0.000444667 1.7224 1.31249e-20)
(-0.00974513 1.8034 -1.92827e-20)
(0.00603409 1.77986 2.33798e-20)
(0.0313521 1.736 5.96806e-22)
(-0.00118154 1.70954 -3.00187e-22)
(0.384614 1.81189 -1.16892e-19)
(0.3362 1.78556 4.41667e-20)
(0.674616 1.82384 -1.71566e-19)
(0.542816 1.90701 -1.33258e-19)
(0.561064 1.88308 0)
(0.308033 1.51242 1.16779e-19)
(0.336917 1.51128 1.65657e-19)
(0.161233 1.53557 2.46644e-20)
(0.196327 1.52467 -3.75288e-19)
(0.217187 1.52917 3.17624e-19)
(0.236681 1.53054 0)
(0.165755 1.52916 -2.43271e-19)
(0.135485 1.62702 4.83069e-19)
(0.176217 1.57251 -3.50851e-20)
(0.131026 1.62423 -6.48481e-19)
(0.609326 1.46216 6.26913e-19)
(0.490279 1.47856 0)
(1.02918 -0.0072282 1.02592e-20)
(1.05719 0.070783 -8.72799e-21)
(1.01526 0.0121725 -1.70739e-19)
(0.992192 0.000309332 1.72608e-19)
(0.99397 0.0278896 0)
(0.622915 1.65464 0)
(0.582488 1.52431 0)
(0.703009 1.31125 0)
(0.516342 1.47852 0)
(0.888513 1.71272 9.61937e-20)
(0.948009 1.58082 0)
(0.635845 1.64448 4.14345e-21)
(0.500727 1.58644 0)
(0.578256 1.54368 -4.15346e-19)
(0.601325 1.57908 2.66887e-19)
(0.874428 0.137029 0)
(0.850172 0.150392 7.28687e-20)
(0.911034 0.0781169 4.04109e-19)
(0.860954 0.104729 -1.48532e-19)
(0.841979 0.0750998 -5.00024e-19)
(0.973485 0.1866 -3.57078e-19)
(0.916623 0.245435 -1.31425e-20)
(0.805845 0.272583 3.85855e-19)
(0.939794 0.212189 3.1297e-19)
(0.913119 0.129928 -5.24865e-19)
(0.895009 0.15352 6.56498e-20)
(0.825315 0.248276 -1.44812e-19)
(0.898006 0.226166 0)
(0.947936 0.17824 2.60445e-19)
(0.936624 0.178054 0)
(0.953865 0.225208 0)
(1.0644 0.160346 1.20492e-19)
(0.963142 0.1643 -8.21968e-22)
(0.970457 0.163242 -7.53062e-20)
(0.979155 0.190974 0)
(1.00928 0.0563801 2.6546e-19)
(1.01699 0.0333284 3.34599e-19)
(1.0189 0.0643407 -2.59472e-19)
(1.02554 0.055374 -2.25847e-19)
(0.961489 0.0597986 -3.51109e-19)
(0.957505 0.0687421 0)
(0.96136 0.0149726 0)
(0.924746 0.0883526 -2.22781e-19)
(0.913248 0.0808249 8.46458e-20)
(1.01206 0.0762525 2.92486e-19)
(0.995032 0.0875944 -3.40397e-19)
(0.985056 0.109595 3.1092e-19)
(0.970077 0.131516 0)
(0.984608 0.078219 0)
(1.00122 0.0933211 -1.38104e-19)
(1.00506 0.101785 -2.3665e-19)
(0.498034 1.67167 1.77543e-19)
(0.517257 1.84462 -1.97296e-19)
(0.773295 1.91665 -1.79929e-19)
(0.712439 2.46195 -8.16522e-21)
(0.926238 1.92765 5.34702e-20)
(0.899857 2.03051 -1.35723e-19)
(1.01141 1.62229 -3.70044e-20)
(0.724818 2.27112 -3.21758e-20)
(0.808771 2.13499 1.46926e-19)
(0.700409 2.67295 -1.11292e-19)
(0.942218 2.32866 1.26359e-19)
(0.936904 2.34398 0)
(0.0756747 0.823341 -2.70686e-20)
(0.396644 1.72836 -1.66349e-19)
(0.802653 0.369853 6.67169e-20)
(0.74187 0.2423 6.86353e-20)
(0.601764 0.416363 1.91316e-19)
(0.597795 0.403868 -2.50442e-19)
(0.576776 0.379749 1.67974e-19)
(0.640268 0.390735 -5.71377e-20)
(0.583746 0.442575 2.08399e-19)
(0.788144 0.258433 -1.58444e-19)
(0.721189 0.298391 0)
(0.759239 0.262826 6.39889e-21)
(0.628878 0.461449 1.24642e-19)
(0.629712 0.432297 -4.63966e-19)
(0.58561 0.393795 -3.85976e-21)
(0.599611 0.426927 0)
(0.360094 0.793155 1.60534e-19)
(0.628132 0.86033 2.93499e-19)
(0.553245 0.827016 -3.30669e-19)
(0.641343 0.89 -9.90371e-20)
(0.796655 0.9117 -3.0292e-20)
(0.785179 0.928052 3.08212e-20)
(0.78066 0.597398 -3.27931e-19)
(0.801938 0.692084 9.32308e-20)
(0.868614 0.771519 0)
(0.848995 0.746081 -1.05832e-19)
(0.961105 0.354767 8.75849e-20)
(1.09536 0.287018 9.14845e-20)
(1.05396 0.24502 1.41971e-19)
(0.905353 0.407226 -1.83036e-19)
(0.9551 0.371631 0)
(0.952772 0.386674 0)
(0.866106 0.33412 9.56261e-21)
(0.767167 0.315695 0)
(0.796059 0.308621 1.80088e-19)
(0.863466 0.274137 -1.41244e-20)
(0.852898 0.419759 8.50276e-19)
(0.792342 0.479713 2.55302e-19)
(0.813581 0.468591 -2.43417e-19)
(0.758806 0.373495 2.60048e-19)
(0.714414 0.393294 1.54086e-19)
(0.691417 0.418075 -1.48286e-19)
(0.98785 0.0521087 2.96908e-19)
(0.994013 -0.0519354 0)
(1.00616 0.00517188 1.93794e-19)
(0.987331 0.0455345 -4.4265e-19)
(1.01094 -0.0229536 2.144e-19)
(1.0126 0.058934 -4.54534e-19)
(1.00593 -0.000687538 0)
(0.992908 -0.0332522 -9.59676e-20)
(0.998782 0.0386215 2.45664e-19)
(0.973142 0.017306 -1.26741e-19)
(0.979529 -0.0251234 9.08465e-20)
(0.0187445 1.80604 0)
(0.0218561 1.75898 0)
(0.0130745 1.82998 0)
(0.00759182 1.81677 0)
(0.0670462 1.73451 3.92172e-20)
(0.0764831 1.76656 -4.23261e-20)
(0.0855865 1.80093 1.58344e-21)
(0.059648 1.77734 -6.09614e-20)
(0.0461873 1.76234 -2.65919e-20)
(0.0330187 1.77416 1.93893e-20)
(0.0682653 1.76759 -4.13978e-20)
(0.0379861 1.79863 2.22557e-20)
(0.0303044 1.77486 3.02206e-21)
(0.0159954 1.7541 -3.85442e-21)
(0.085653 1.73121 -1.2367e-19)
(0.066046 1.71565 0)
(0.0699505 1.70238 7.18112e-20)
(0.10664 1.79559 3.85864e-20)
(0.201784 1.68793 -5.06764e-20)
(0.174967 1.65557 0)
(0.192527 1.64151 -3.20412e-19)
(0.22778 1.65926 2.25921e-19)
(0.125733 1.70624 -1.32823e-19)
(0.0826176 1.67317 7.57031e-20)
(0.0623712 1.63844 0)
(0.0120548 1.75103 -7.14153e-20)
(0.0175038 1.74501 -1.01881e-19)
(0.00448906 1.73344 0)
(0.00521132 1.74378 -2.2213e-21)
(0.00715041 1.73462 3.66602e-20)
(0.000970311 1.79099 -1.70483e-21)
(0.00333501 1.78995 2.71237e-20)
(-0.0103528 1.78806 -2.02996e-20)
(-0.00914334 1.77485 5.08526e-21)
(0.0245421 1.7822 0)
(-0.00657057 1.78768 0)
(-0.0153487 1.77658 5.48147e-21)
(-0.000851228 1.79386 -1.196e-21)
(0.000371634 1.78994 0)
(0.0119316 1.78304 5.06688e-21)
(-0.00980558 1.77791 -9.60937e-21)
(0.964714 0.0631185 0)
(1.03634 0.10592 -2.976e-20)
(1.03931 -0.0101948 -1.87948e-19)
(0.987822 -0.0113306 0)
(1.04459 0.0456844 0)
(1.02897 -0.0485543 -2.20277e-20)
(0.954475 -0.0191355 3.52161e-19)
(1.01174 0.00379408 4.14657e-19)
(0.998143 0.0235051 0)
(0.994178 0.0119816 0)
(1.00119 -0.00370919 2.18297e-19)
(1.00878 0.0149668 0)
(0.992228 0.0205424 0)
(0.042213 1.78352 0)
(0.0107844 1.70683 -5.43859e-21)
(-0.0171799 1.78544 -1.10276e-22)
(0.000524507 1.7706 0)
(0.0141044 1.68302 9.12411e-21)
(0.0218171 1.71674 1.79331e-21)
(-0.000715331 1.76886 0)
(0.395214 1.66118 0)
(0.320826 1.74566 -1.19868e-19)
(0.322758 1.70256 0)
(0.468384 1.77222 7.07571e-20)
(0.47161 1.81573 0)
(0.430479 1.8029 -5.75693e-22)
(0.614136 1.53055 -1.32728e-20)
(0.670961 1.4778 -7.21967e-19)
(0.718903 1.47359 8.75056e-19)
(0.49378 1.49931 1.75537e-19)
(0.497275 1.51803 0)
(0.51108 1.502 0)
(0.569764 1.48333 0)
(0.511084 1.47648 -6.54101e-19)
(0.347918 1.5297 -3.39792e-19)
(0.472707 1.51501 -8.45832e-20)
(0.492271 1.54983 6.895e-20)
(0.38143 1.49488 0)
(0.472262 1.48901 0)
(0.433297 1.4914 -1.90402e-19)
(0.447292 1.53594 0)
(0.385888 1.49734 0)
(-0.053411 1.48546 -4.63625e-19)
(0.227041 1.1145 -3.22045e-20)
(0.357987 1.63876 0)
(0.133918 1.68528 7.26867e-19)
(0.643085 0.939598 -1.03989e-19)
(0.647571 1.21894 0)
(0.689969 1.14397 1.43253e-19)
(0.387208 1.32198 0)
(0.44546 1.14378 0)
(0.863413 1.73133 -1.74504e-19)
(0.798155 1.86154 -1.79128e-19)
(0.656523 1.77204 3.33227e-19)
(0.670549 1.71695 -9.88327e-20)
(0.900251 1.64444 0)
(0.839624 1.58991 1.2567e-19)
(0.952432 1.52439 -1.84215e-19)
(0.915892 1.47559 -1.50202e-20)
(0.569536 1.64327 0)
(0.518486 1.68312 -1.52375e-19)
(0.523557 1.63775 0)
(0.869626 0.232831 0)
(0.845334 0.151329 0)
(0.793284 0.181849 0)
(0.839187 0.236459 -2.83948e-19)
(0.789321 0.228798 1.6947e-19)
(0.910409 0.0672679 -1.75748e-19)
(0.931044 0.0646637 0)
(0.915912 0.0577717 7.97853e-20)
(0.871051 0.0319638 3.24728e-19)
(0.882917 0.0429773 -2.03516e-19)
(0.621613 2.95072 -4.78645e-19)
(0.653197 2.86974 0)
(0.709687 3.12282 -1.28588e-18)
(0.229722 3.34401 9.933e-19)
(0.261421 3.04313 3.96634e-19)
(-0.147514 1.12543 -4.33191e-20)
(-0.189808 1.48741 0)
(0.191718 0.478277 1.54437e-20)
(0.255745 0.39819 1.38226e-19)
(0.574485 0.165498 -4.00921e-20)
(0.652552 0.387456 -1.50766e-20)
(0.622383 0.445253 1.29128e-19)
(0.627035 0.46011 0)
(0.500623 0.470029 0)
(0.588526 0.34978 0)
(0.913908 0.604182 3.72458e-20)
(0.762007 0.489243 -2.48303e-19)
(0.757754 0.543657 2.16149e-19)
(0.858662 0.487514 -1.78755e-19)
(1.06023 0.421375 0)
(1.09725 0.553937 -4.78413e-20)
(0.766506 0.339882 -3.61408e-19)
(0.763842 0.338751 -4.47542e-19)
(0.701787 0.402385 2.85962e-19)
(0.738357 0.332655 -2.83481e-19)
(0.760053 0.316746 -2.29501e-19)
(0.750052 0.31999 2.83362e-19)
(1.02535 -0.0243272 -2.20912e-19)
(1.03226 -0.0139277 4.50929e-19)
(0.995739 0.0538467 2.81633e-19)
(1.00133 0.0575618 -3.43491e-19)
(0.934038 0.0468113 0)
(0.937577 -0.0324682 -5.60386e-19)
(0.0479824 1.77432 1.50189e-20)
(0.0342243 1.7273 0)
(0.0653313 1.78382 1.27887e-19)
(0.0926105 1.79151 -1.07759e-19)
(0.0620612 1.74497 -2.92977e-21)
(0.0357656 1.68662 0)
(0.0321223 1.72821 0)
(0.00773301 1.78847 4.44516e-21)
(0.00352629 1.76827 -4.03038e-21)
(0.0171248 1.71153 -4.08313e-21)
(0.0550585 1.74892 -3.95197e-21)
(0.00854571 1.72776 9.96778e-21)
(0.532855 1.61328 -4.12027e-19)
(0.503259 1.61753 4.40572e-19)
(0.472658 1.72682 -8.90658e-20)
(0.480133 1.66335 1.75001e-20)
(0.631181 1.68163 0)
(0.580162 1.75504 7.09684e-20)
(0.609568 1.71701 -6.93574e-20)
(0.509765 1.72588 8.57973e-20)
(0.569897 1.63583 0)
(0.559385 1.64446 0)
(0.347728 1.50854 5.20813e-19)
(0.386723 1.48908 7.59812e-19)
(0.404115 1.52397 -5.24988e-19)
(0.292716 1.51468 -9.83828e-20)
(0.321395 1.51528 1.59287e-19)
(0.219353 1.52079 -4.00497e-19)
(0.781437 1.46278 -4.86673e-19)
(0.868454 1.45818 0)
(0.825094 1.45911 -4.8783e-19)
(0.766176 1.53703 0)
(0.730215 1.50923 0)
(-0.031494 2.75744 1.26952e-19)
(0.3958 2.77374 1.16064e-19)
(0.222577 2.9754 -2.27024e-19)
(0.222849 1.76598 0)
(0.0707117 1.40985 1.00553e-19)
(-0.143476 1.35905 -9.44806e-20)
(-0.0691288 2.75684 0)
(0.0229544 3.03036 -2.87436e-19)
(0.0573648 3.00831 0)
(0.44049 0.542712 -3.47643e-19)
(0.620546 0.683985 4.99456e-19)
(0.625024 0.66356 -4.99214e-19)
(0.502184 0.491771 -3.64274e-20)
(0.633947 0.483091 -1.52142e-19)
(0.316049 2.61748 -8.82438e-20)
(0.376455 2.35472 -8.21165e-20)
(-0.024421 2.56448 2.35398e-19)
(-0.0751794 2.35448 -1.9444e-19)
(0.495728 1.99509 -4.74105e-19)
(0.466819 2.16907 -1.32641e-19)
(0.55689 1.87627 2.63337e-19)
(0.059591 2.29214 1.70694e-20)
(0.330395 2.12921 1.76336e-19)
)
;

boundaryField
{
    wall-4
    {
        type            noSlip;
    }
    velocity-inlet-5
    {
        type            fixedValue;
        value           uniform (1 0 0);
    }
    velocity-inlet-6
    {
        type            fixedValue;
        value           uniform (0 3 0);
    }
    pressure-outlet-7
    {
        type            zeroGradient;
    }
    wall-8
    {
        type            noSlip;
    }
    frontAndBackPlanes
    {
        type            empty;
    }
}

