/*--------------------------------*- C++ -*----------------------------------*\
  =========                 |
  \\      /  F ield         | OpenFOAM: The Open Source CFD Toolbox
   \\    /   O peration     | Website:  https://openfoam.org
    \\  /    A nd           | Version:  6
     \\/     M anipulation  |
\*---------------------------------------------------------------------------*/
FoamFile
{
    version     2.0;
    format      ascii;
    class       volScalarField;
    location    "0";
    object      p;
}
// * * * * * * * * * * * * * * * * * * * * * * * * * * * * * * * * * * * * * //

dimensions      [0 2 -2 0 0 0 0];

internalField   nonuniform List<scalar> 
918
(
0.198221
1.00408
0.00453107
0.198202
0.00130959
0.972642
-0.836774
0.398646
0.176185
-0.12473
0.0268555
0.166875
0.825177
0.590985
-1.45251
0.0146616
0.34709
-0.647529
0.174506
0.00931599
0.495281
0.182613
0.186169
0.17883
0.223632
0.57583
0.697777
-0.00131278
-0.00390984
-0.00122362
-0.000151062
0.00180267
0.0114241
0.845716
0.891973
0.910678
0.144118
0.095602
-0.711648
-0.778829
-0.735192
-0.84503
0.382483
0.384595
-0.520232
0.395514
0.405579
0.167653
0.176113
0.176744
0.178021
0.176506
0.178314
0.296048
-0.129596
-0.212926
-0.088223
-0.0682028
0.09049
0.0260183
0.0178872
0.0283328
0.0287681
0.106002
0.164168
0.161366
0.169853
0.183545
0.929536
0.901458
0.924209
0.849649
0.86655
0.799271
0.771446
0.610954
0.634067
0.576486
0.567367
-1.90779
-2.868
-0.865349
-0.58667
0.000899298
0.0226459
0.0361393
0.326869
0.329546
0.34052
0.35023
0.788107
-0.591472
-0.750513
0.174267
0.172483
0.181837
0.183833
0.17942
0.179973
0.0160928
0.0166309
0.0013773
0.00845844
0.00690474
0.459966
0.452032
0.178597
0.17354
0.189809
0.212221
0.197962
-0.0600459
0.244867
0.276455
0.387019
0.562939
0.55896
0.567193
0.671635
0.637787
0.730565
0.754601
0.00485568
0.00149681
0.0172153
0.0156613
0.0175732
0.145366
0.138283
0.154953
0.146987
0.151267
0.0153445
-0.141303
0.163457
0.118429
-0.631811
-0.689578
-0.657546
-0.716914
-0.812822
0.313935
0.370907
0.374396
-0.53573
-0.439112
-0.595401
-0.403745
-0.460763
0.151171
0.159935
0.153843
0.169118
0.167692
0.167091
0.179632
0.177274
0.178821
0.327938
0.406354
0.252357
0.228205
-0.410506
-0.257848
-0.378616
-0.0215463
-0.0152385
0.0988742
0.110928
0.0862344
0.0762911
-0.00347646
0.00899638
0.00139821
0.0283913
0.0333282
0.0964614
0.086671
0.115401
0.120943
0.156326
0.154347
0.158562
0.155091
0.720906
0.743189
0.7515
0.728244
-3.85287
-6.5118
-0.239335
-0.0779724
0.00112659
0.00248692
0.000693012
0.00163281
0.00278842
0.00246743
0.0496886
0.0436207
0.040056
0.0400894
0.31386
0.31195
0.804667
0.868256
0.713302
0.687867
0.15968
0.163684
0.169532
0.164231
0.0285358
0.0212407
0.027444
0.407454
0.429863
0.426504
-0.104249
-0.187238
-0.00988311
0.0150768
0.300617
0.280579
0.303078
0.451682
0.494355
0.766348
0.79077
0.77851
0.793868
0.841658
0.861185
0.826957
0.125949
0.132847
0.129996
0.163062
0.158421
0.159701
0.153092
0.156031
0.155895
-0.285731
-0.6644
-0.257459
-0.169618
0.0793712
-0.00572815
0.470843
0.615479
0.349433
0.363911
0.368
-0.336973
-0.397877
0.197969
0.175993
0.045424
0.0723756
0.0592358
0.696199
0.658563
0.706154
0.68109
0.645603
0.668761
-0.616397
-2.37097
-1.34495
0.323615
0.116292
0.213489
0.0669206
0.0548801
0.0592016
0.835438
0.870042
0.446427
0.590644
0.550578
0.528052
0.559141
0.609709
0.541782
0.575667
0.609729
0.589991
0.08973
-0.258102
-0.110452
0.71878
0.80332
-0.210951
-0.288193
-0.320146
0.120111
0.153874
0.139786
0.84845
0.816063
0.863962
0.175749
0.176422
0.00936956
0.0144919
0.178525
0.17796
0.00638134
0.01221
0.211614
-1.20653
-0.221263
0.171757
0.157589
0.175169
-0.0685155
0.288432
0.0307962
0.099042
0.0626776
0.161842
0.116114
0.0760814
0.00672798
0.0245382
0.0181505
-0.373725
0.170183
0.167028
0.173707
0.175758
0.175488
0.00801694
0.00990694
0.00518235
0.0145714
0.00965483
0.0100552
0.146033
0.152993
-0.518748
0.175131
0.176174
0.176401
0.172591
0.175074
0.17469
0.0198793
0.0130023
0.0187627
-0.0945202
0.0208336
0.44139
0.557123
0.358996
0.174395
-0.102465
0.356714
0.421271
0.325064
0.488415
0.349933
0.37735
-0.170314
-0.28268
-0.124991
-0.189032
0.16704
0.165908
0.156096
0.149532
0.164948
0.164933
0.171133
0.169823
0.173323
0.17291
-0.0381145
-0.0486515
-0.0905046
-0.166064
0.311524
0.395131
0.237009
0.234461
0.142595
0.0292654
0.0290679
0.0304316
0.0181132
0.0731164
0.068621
0.0791683
0.0796539
0.0536149
0.0520653
0.0706895
0.0663858
0.0717834
0.158064
0.158109
0.16011
0.167606
0.120904
0.125839
0.0949735
0.113903
0.0997002
0.0483401
0.0748206
0.0546722
0.00757648
0.00929991
0.00472295
0.0305832
0.0369247
0.0161385
0.0124582
0.0145725
0.0109453
0.011162
0.0214469
0.0259865
-0.331779
-0.477131
0.777843
0.628937
0.353451
0.161671
0.166952
0.163958
0.166582
0.170395
0.172106
0.169738
0.168014
0.154253
0.157196
0.153178
0.151401
-0.515471
-0.555779
-0.406654
-0.468178
-0.0742161
0.285797
0.0282498
-0.0367518
-0.050627
0.165949
0.376659
0.348938
0.496775
0.483744
-0.673534
-0.263229
-0.600145
-0.0708521
-0.121603
0.458923
0.509135
0.532268
0.483014
0.42983
-0.308819
0.202326
-0.387613
-0.358714
-0.180031
-0.252378
0.410855
0.335413
0.343559
0.367842
0.385324
0.339892
0.323531
0.315867
0.354058
0.359583
0.167375
-0.0587709
-0.116374
-0.15891
0.316268
0.193531
0.250693
0.163936
0.157556
0.162213
0.160698
0.147978
0.152341
0.14822
0.152552
0.154577
0.164189
0.161884
0.159381
0.164086
-0.0264303
-0.0148692
-0.0616073
-0.260705
-0.211994
-0.289989
-0.126634
0.12533
0.109848
0.362612
0.388441
0.060617
-0.13789
-0.0879228
-0.0656512
0.162575
0.151379
0.111248
0.157099
0.180215
0.148515
0.20797
0.190094
0.0488758
0.0632019
0.0378503
0.0395759
0.103536
0.121681
0.122759
0.0544786
0.0525063
0.0327949
0.0289467
0.0826303
0.0498843
0.0684721
0.0696735
0.0256838
0.030585
0.0331694
0.0484212
0.0454729
0.049111
0.153614
0.155102
0.154266
0.170091
0.179352
0.190882
0.163784
0.139303
0.130373
0.132265
0.115818
0.121434
0.124102
0.131526
0.145037
0.151543
0.15085
0.152273
0.137872
0.139814
0.126867
0.131614
0.112137
0.092904
0.0795129
0.0187369
0.0158515
0.0168183
0.0131526
0.0113116
0.00976644
0.0472145
0.0370616
0.0434318
0.0400662
0.0442983
0.0191994
0.0228832
-0.218868
-0.0963747
-0.505861
-0.435673
-0.534253
0.730156
0.789184
0.611666
0.497638
0.53988
0.662057
0.716713
0.43222
0.529489
0.520325
0.186884
0.80102
0.165011
0.165269
0.161065
0.160382
0.164304
-0.452812
-0.385533
-0.266549
-0.219785
0.0014928
0.121624
-0.505054
-0.248559
-0.0916392
-0.207714
0.27732
0.292034
0.24128
0.26667
0.26151
0.0972362
0.162148
0.215596
0.164258
0.222482
0.246374
0.198195
0.235302
0.171956
0.128398
0.128387
0.0761327
0.104152
0.0829167
0.0525897
0.15104
0.134489
0.142918
0.13566
0.153229
0.185564
0.177572
0.194313
0.215613
0.141983
0.104699
0.117135
0.138197
0.0982506
0.110026
0.127136
-0.222774
-0.201187
-0.0699029
-0.365772
-0.22757
-0.234391
-0.266417
-0.304295
0.00678905
-0.656232
-0.616536
-1.29207
0.164968
0.502121
0.365106
0.371514
0.383748
0.365108
0.371801
0.39781
0.404939
0.307929
0.329605
0.329717
0.28207
0.314349
0.33564
0.337556
0.162075
0.0485785
0.0416826
-0.00307378
-0.12436
-0.0972757
0.0947647
0.0235359
-0.0395869
-0.048908
0.118664
0.0236358
0.0917359
0.119442
0.0717457
0.00729332
0.218501
0.271375
0.268783
0.248825
0.153965
0.164611
0.194065
0.236169
0.26117
0.287733
0.151822
0.15898
0.160469
0.157127
0.154103
0.156515
0.157411
0.158038
0.158019
0.15807
0.158351
0.0157182
0.0294901
-0.00343746
0.00103581
0.0159108
-0.00863558
0.0592865
0.00274267
0.0458229
0.0434608
0.0132417
-0.00773063
0.0058342
0.0301163
0.175887
0.200217
0.186314
0.13936
0.243455
0.392535
0.434906
0.368722
0.209254
0.2296
0.297457
0.0968563
0.0948688
0.0886447
0.103599
0.102688
0.0369392
0.0392471
0.04102
0.0462131
0.0466578
0.0347268
0.02731
0.0277659
0.0312353
0.0292822
0.0284735
0.142504
0.136432
0.134732
0.128071
0.127899
0.141769
0.144401
0.147092
0.151514
0.152087
0.145099
0.148416
0.150815
0.0348691
0.0293787
0.0314065
0.0280111
0.0296418
0.0230582
0.0229106
-0.127486
-0.0471368
0.072223
-0.241574
-0.372095
-0.258574
-0.0742963
-0.0149865
-0.306163
0.660419
0.399692
0.225173
0.337263
0.5191
0.0898664
0.388494
0.155665
0.747539
0.690587
0.782456
0.534703
-0.101451
0.0945843
0.0952108
-0.0915932
0.0446062
-0.0231145
-0.158807
-0.116997
-0.0906289
0.00752253
-0.132016
-0.143703
-0.500618
-0.618029
-0.145655
-0.28074
0.0459107
0.00757733
-0.62631
-0.458867
-0.495856
0.268437
0.284696
0.302782
0.277163
0.299274
0.2232
0.219214
0.238391
0.241454
0.23319
-0.947628
-0.56053
-1.72778
-1.13905
-0.660668
0.212967
0.215209
0.380557
0.296704
0.371941
0.358961
0.309575
0.272983
0.287396
0.324489
0.00803944
0.113291
0.0765199
0.107426
0.0389727
-0.0293799
0.246811
0.236693
0.275343
0.302093
0.253593
0.298572
0.151131
0.151254
0.148702
0.147421
0.144005
0.145719
0.0998521
0.0744458
0.126162
0.107051
0.0663678
0.0511401
0.0424286
0.0367692
0.0355477
0.0354272
0.037254
0.041811
-0.654784
-0.446779
-0.366806
-0.340232
-0.473119
-0.457995
-0.462599
-0.529202
-0.627141
-0.543144
0.350374
0.671348
0.559128
0.682878
0.426138
0.536877
-0.358187
-0.192524
-0.300864
-0.212738
-0.154342
-0.209811
-0.476595
-0.499572
0.410915
0.399153
0.229212
-0.0195192
-0.136669
0.111157
0.185983
0.135852
0.179985
0.237824
0.233008
-0.282049
-0.23681
-0.0246123
0.264072
0.0400351
-0.0537264
-0.0137585
0.148074
0.107978
)
;

boundaryField
{
    wall-4
    {
        type            zeroGradient;
    }
    velocity-inlet-5
    {
        type            zeroGradient;
    }
    velocity-inlet-6
    {
        type            zeroGradient;
    }
    pressure-outlet-7
    {
        type            fixedValue;
        value           uniform 0;
    }
    wall-8
    {
        type            zeroGradient;
    }
    frontAndBackPlanes
    {
        type            empty;
    }
}

