/*--------------------------------*- C++ -*----------------------------------*\
  =========                 |
  \\      /  F ield         | OpenFOAM: The Open Source CFD Toolbox
   \\    /   O peration     | Website:  https://openfoam.org
    \\  /    A nd           | Version:  6
     \\/     M anipulation  |
\*---------------------------------------------------------------------------*/
FoamFile
{
    version     2.0;
    format      ascii;
    class       volScalarField;
    location    "0";
    object      p_rgh;
}
// * * * * * * * * * * * * * * * * * * * * * * * * * * * * * * * * * * * * * //

dimensions      [0 2 -2 0 0 0 0];

internalField   nonuniform List<scalar> 
10000
(
0.00492096
0.00492161
0.00492162
0.00492056
0.00491807
0.0049139
0.00490791
0.00490006
0.00489044
0.00487923
0.00486667
0.00485308
0.0048388
0.00482416
0.0048095
0.0047951
0.0047812
0.00476801
0.00475573
0.00474447
0.00473428
0.00472521
0.00471723
0.00471032
0.00470443
0.0046995
0.00469547
0.00469227
0.00468981
0.00468803
0.00468687
0.00468624
0.00468609
0.00468636
0.00468699
0.00468794
0.00468916
0.00469062
0.00469227
0.00469409
0.00469604
0.00469811
0.00470026
0.00470249
0.00470477
0.00470708
0.00470942
0.00471177
0.00471412
0.00471646
0.00471877
0.00472106
0.00472331
0.00472552
0.00472768
0.00472978
0.00473183
0.00473381
0.00473572
0.00473756
0.00473932
0.004741
0.0047426
0.00474412
0.00474554
0.00474688
0.00474812
0.00474926
0.0047503
0.00475124
0.00475207
0.00475278
0.00475336
0.00475382
0.00475413
0.00475428
0.00475425
0.00475402
0.00475356
0.00475283
0.00475179
0.00475036
0.00474849
0.00474608
0.004743
0.00473913
0.0047343
0.00472832
0.00472097
0.00471203
0.00470127
0.00468846
0.00467342
0.00465604
0.00463644
0.00461505
0.00459289
0.00457177
0.00455507
0.00454684
0.00491982
0.00491996
0.00491933
0.00491766
0.00491469
0.00491019
0.00490401
0.0048961
0.00488654
0.00487548
0.00486318
0.00484991
0.004836
0.00482178
0.00480755
0.0047936
0.00478015
0.00476737
0.00475543
0.00474451
0.00473464
0.00472585
0.00471812
0.00471141
0.00470569
0.0047009
0.00469698
0.00469384
0.00469144
0.00468968
0.00468852
0.00468788
0.0046877
0.00468794
0.00468852
0.00468942
0.00469058
0.00469197
0.00469356
0.00469531
0.0046972
0.0046992
0.00470129
0.00470345
0.00470566
0.00470791
0.00471019
0.00471248
0.00471477
0.00471705
0.00471931
0.00472154
0.00472375
0.00472591
0.00472802
0.00473008
0.00473208
0.00473402
0.0047359
0.0047377
0.00473943
0.00474108
0.00474264
0.00474412
0.00474551
0.00474682
0.00474802
0.00474913
0.00475014
0.00475104
0.00475183
0.0047525
0.00475305
0.00475346
0.00475372
0.00475381
0.00475372
0.00475342
0.00475288
0.00475207
0.00475093
0.00474941
0.00474744
0.00474493
0.00474177
0.00473783
0.00473297
0.00472702
0.00471978
0.00471106
0.00470066
0.00468839
0.0046741
0.00465768
0.00463922
0.00461902
0.00459768
0.00457638
0.00455772
0.00454448
0.00491933
0.00491896
0.00491776
0.00491553
0.00491209
0.00490719
0.0049007
0.00489256
0.00488284
0.00487171
0.00485939
0.00484618
0.0048324
0.00481836
0.00480437
0.00479069
0.00477756
0.00476517
0.0047536
0.00474298
0.00473343
0.00472494
0.0047175
0.00471106
0.00470558
0.00470101
0.00469727
0.0046943
0.00469202
0.00469038
0.0046893
0.00468873
0.0046886
0.00468886
0.00468946
0.00469036
0.00469152
0.0046929
0.00469446
0.00469618
0.00469803
0.0047
0.00470205
0.00470417
0.00470634
0.00470855
0.00471078
0.00471303
0.00471528
0.00471752
0.00471974
0.00472194
0.0047241
0.00472623
0.00472831
0.00473034
0.00473231
0.00473422
0.00473606
0.00473783
0.00473953
0.00474116
0.0047427
0.00474415
0.00474552
0.00474679
0.00474797
0.00474906
0.00475004
0.00475091
0.00475168
0.00475232
0.00475284
0.00475321
0.00475344
0.0047535
0.00475337
0.00475304
0.00475246
0.00475161
0.00475044
0.0047489
0.00474691
0.00474439
0.00474125
0.00473736
0.00473259
0.00472679
0.00471976
0.00471134
0.00470132
0.00468952
0.00467576
0.00465991
0.00464186
0.00462156
0.0045992
0.00457525
0.00455154
0.00453021
0.00491967
0.00491855
0.00491659
0.00491365
0.00490954
0.00490403
0.00489698
0.00488834
0.00487818
0.00486668
0.00485408
0.00484068
0.0048268
0.00481275
0.00479884
0.00478534
0.00477247
0.00476041
0.00474925
0.00473903
0.00472987
0.00472179
0.00471474
0.00470869
0.00470358
0.00469934
0.00469592
0.00469324
0.00469122
0.00468981
0.00468893
0.00468853
0.00468855
0.00468893
0.00468963
0.00469061
0.00469183
0.00469325
0.00469484
0.00469659
0.00469845
0.00470042
0.00470247
0.00470458
0.00470674
0.00470893
0.00471115
0.00471338
0.00471561
0.00471783
0.00472003
0.0047222
0.00472434
0.00472645
0.00472851
0.00473051
0.00473246
0.00473435
0.00473618
0.00473793
0.00473961
0.00474122
0.00474274
0.00474418
0.00474553
0.00474678
0.00474794
0.00474901
0.00474997
0.00475083
0.00475157
0.0047522
0.00475269
0.00475305
0.00475326
0.00475331
0.00475317
0.00475282
0.00475225
0.0047514
0.00475025
0.00474873
0.00474679
0.00474435
0.00474131
0.00473755
0.00473296
0.00472737
0.0047206
0.00471248
0.00470277
0.00469126
0.0046777
0.00466178
0.00464316
0.0046214
0.00459623
0.00456757
0.00453671
0.00450582
0.0049208
0.00491854
0.00491548
0.0049115
0.00490641
0.00489996
0.00489202
0.00488255
0.00487165
0.0048595
0.00484636
0.00483255
0.00481838
0.00480419
0.00479027
0.00477687
0.00476422
0.00475248
0.00474177
0.00473209
0.00472344
0.00471588
0.00470936
0.00470384
0.00469924
0.0046955
0.00469255
0.0046903
0.00468869
0.00468764
0.00468709
0.00468699
0.00468726
0.00468788
0.00468878
0.00468993
0.00469129
0.00469284
0.00469453
0.00469636
0.0046983
0.00470032
0.00470241
0.00470456
0.00470675
0.00470896
0.00471119
0.00471343
0.00471566
0.00471789
0.00472009
0.00472226
0.0047244
0.0047265
0.00472855
0.00473055
0.0047325
0.00473438
0.0047362
0.00473794
0.00473962
0.00474121
0.00474273
0.00474416
0.0047455
0.00474674
0.00474789
0.00474894
0.00474989
0.00475074
0.00475147
0.00475209
0.00475258
0.00475293
0.00475314
0.00475319
0.00475306
0.00475273
0.00475217
0.00475136
0.00475026
0.00474881
0.00474695
0.00474462
0.00474172
0.00473814
0.00473374
0.00472837
0.00472183
0.00471391
0.00470435
0.00469284
0.00467903
0.00466239
0.00464228
0.00461793
0.00458862
0.00455388
0.00451468
0.0044735
0.00492262
0.00491881
0.00491427
0.00490886
0.00490239
0.00489463
0.00488543
0.0048748
0.00486283
0.00484973
0.0048358
0.00482136
0.00480673
0.00479226
0.00477823
0.00476489
0.00475244
0.00474104
0.00473078
0.00472168
0.00471368
0.00470679
0.00470096
0.00469611
0.00469219
0.0046891
0.00468677
0.00468512
0.00468406
0.00468354
0.00468347
0.00468379
0.00468447
0.00468543
0.00468665
0.00468808
0.00468969
0.00469145
0.00469334
0.00469533
0.0046974
0.00469955
0.00470174
0.00470398
0.00470624
0.00470852
0.00471081
0.00471309
0.00471536
0.00471762
0.00471985
0.00472205
0.00472421
0.00472632
0.00472839
0.0047304
0.00473236
0.00473425
0.00473607
0.00473782
0.0047395
0.0047411
0.00474262
0.00474405
0.00474539
0.00474664
0.00474778
0.00474883
0.00474978
0.00475062
0.00475136
0.00475197
0.00475247
0.00475283
0.00475305
0.00475311
0.004753
0.0047527
0.00475219
0.00475144
0.00475041
0.00474905
0.00474731
0.00474512
0.00474238
0.00473897
0.00473476
0.00472957
0.00472318
0.00471534
0.00470571
0.00469389
0.00467934
0.00466135
0.00463896
0.00461108
0.00457662
0.00453489
0.00448674
0.0044351
0.00492503
0.00491928
0.00491284
0.0049056
0.00489736
0.00488789
0.00487707
0.00486491
0.00485156
0.00483725
0.00482228
0.004807
0.00479176
0.00477689
0.00476266
0.00474933
0.00473707
0.00472601
0.00471622
0.00470774
0.00470049
0.00469439
0.00468937
0.00468535
0.00468224
0.00467996
0.00467841
0.0046775
0.00467715
0.00467729
0.00467784
0.00467875
0.00467995
0.00468139
0.00468305
0.00468487
0.00468684
0.00468891
0.00469108
0.00469332
0.00469562
0.00469796
0.00470033
0.00470271
0.00470511
0.0047075
0.00470989
0.00471227
0.00471462
0.00471694
0.00471923
0.00472149
0.0047237
0.00472585
0.00472796
0.00473001
0.00473199
0.00473391
0.00473576
0.00473753
0.00473922
0.00474084
0.00474237
0.00474382
0.00474517
0.00474643
0.00474759
0.00474864
0.0047496
0.00475045
0.00475119
0.00475182
0.00475233
0.0047527
0.00475294
0.00475303
0.00475296
0.00475271
0.00475226
0.00475158
0.00475064
0.00474939
0.00474778
0.00474573
0.00474315
0.00473991
0.00473586
0.0047308
0.00472447
0.00471655
0.00470663
0.00469418
0.00467847
0.00465856
0.00463323
0.00460109
0.00456078
0.00451149
0.00445416
0.0043922
0.00492795
0.0049199
0.00491119
0.00490173
0.00489133
0.00487977
0.00486697
0.00485297
0.00483794
0.00482214
0.00480592
0.00478964
0.00477364
0.00475827
0.00474378
0.00473042
0.00471833
0.00470761
0.00469833
0.00469047
0.00468402
0.00467879
0.00467469
0.0046716
0.00466943
0.00466807
0.00466743
0.0046674
0.0046679
0.00466883
0.00467014
0.00467174
0.00467359
0.00467564
0.00467785
0.00468018
0.0046826
0.0046851
0.00468764
0.00469022
0.00469283
0.00469544
0.00469805
0.00470065
0.00470324
0.00470581
0.00470836
0.00471087
0.00471335
0.00471579
0.00471818
0.00472052
0.00472281
0.00472504
0.00472721
0.00472931
0.00473135
0.00473332
0.00473521
0.00473702
0.00473875
0.0047404
0.00474196
0.00474343
0.00474481
0.00474609
0.00474728
0.00474835
0.00474932
0.00475019
0.00475095
0.0047516
0.00475213
0.00475253
0.0047528
0.00475293
0.00475291
0.00475271
0.00475233
0.00475173
0.00475089
0.00474976
0.00474828
0.00474638
0.00474395
0.00474086
0.00473693
0.00473193
0.00472556
0.00471742
0.00470699
0.00469362
0.00467636
0.00465407
0.00462528
0.00458834
0.00454169
0.00448455
0.00441804
0.00434606
0.00493138
0.00492068
0.00490934
0.0048973
0.00488438
0.0048704
0.00485529
0.00483915
0.00482218
0.00480469
0.00478703
0.00476959
0.00475273
0.00473678
0.00472198
0.00470855
0.00469663
0.00468627
0.00467751
0.00467032
0.00466464
0.00466033
0.00465721
0.00465513
0.00465398
0.00465365
0.00465401
0.00465496
0.0046564
0.00465823
0.00466039
0.00466281
0.00466541
0.00466817
0.00467103
0.00467396
0.00467694
0.00467994
0.00468295
0.00468596
0.00468894
0.00469191
0.00469483
0.00469773
0.00470058
0.00470338
0.00470614
0.00470884
0.00471149
0.00471408
0.00471661
0.00471908
0.00472149
0.00472382
0.00472609
0.00472828
0.00473039
0.00473243
0.00473438
0.00473625
0.00473803
0.00473973
0.00474133
0.00474285
0.00474426
0.00474558
0.00474681
0.00474792
0.00474892
0.00474981
0.0047506
0.00475128
0.00475184
0.00475228
0.00475259
0.00475276
0.00475279
0.00475266
0.00475236
0.00475185
0.00475111
0.0047501
0.00474875
0.00474699
0.0047447
0.00474174
0.00473789
0.00473288
0.00472636
0.00471786
0.00470673
0.00469216
0.00467305
0.004648
0.00461535
0.00457321
0.00451992
0.00445479
0.00437925
0.00429764
0.00493534
0.00492168
0.00490739
0.00489243
0.00487666
0.00485994
0.00484225
0.00482371
0.00480458
0.0047852
0.00476596
0.00474727
0.00472947
0.00471289
0.00469777
0.00468427
0.00467252
0.00466254
0.00465432
0.00464781
0.00464292
0.00463954
0.00463743
0.0046364
0.00463631
0.00463705
0.00463847
0.00464045
0.0046429
0.00464571
0.00464879
0.00465208
0.00465552
0.00465906
0.00466265
0.00466626
0.00466987
0.00467346
0.00467701
0.00468051
0.00468395
0.00468733
0.00469064
0.00469389
0.00469706
0.00470015
0.00470317
0.00470612
0.00470899
0.00471178
0.0047145
0.00471713
0.00471969
0.00472216
0.00472455
0.00472685
0.00472907
0.0047312
0.00473324
0.00473519
0.00473704
0.0047388
0.00474047
0.00474203
0.0047435
0.00474487
0.00474613
0.0047473
0.00474834
0.00474927
0.0047501
0.00475081
0.00475141
0.0047519
0.00475226
0.00475249
0.00475258
0.00475252
0.0047523
0.00475188
0.00475125
0.00475036
0.00474914
0.0047475
0.00474533
0.00474246
0.00473864
0.00473357
0.00472682
0.00471782
0.00470582
0.00468982
0.00466859
0.0046405
0.00460368
0.00455606
0.00449595
0.00442283
0.00433848
0.00424764
0.00493986
0.00492296
0.00490542
0.00488724
0.00486834
0.0048486
0.00482806
0.0048069
0.00478543
0.00476403
0.00474312
0.0047231
0.00470434
0.00468713
0.00467169
0.00465816
0.0046466
0.00463703
0.00462939
0.00462359
0.0046195
0.00461704
0.00461594
0.00461595
0.00461694
0.00461875
0.00462125
0.00462429
0.00462777
0.00463157
0.00463562
0.00463983
0.00464414
0.0046485
0.00465286
0.00465721
0.0046615
0.00466573
0.00466987
0.00467392
0.00467788
0.00468174
0.00468549
0.00468913
0.00469267
0.00469611
0.00469945
0.00470268
0.00470582
0.00470885
0.00471179
0.00471463
0.00471737
0.00472001
0.00472256
0.004725
0.00472735
0.0047296
0.00473175
0.0047338
0.00473574
0.00473758
0.00473932
0.00474096
0.00474249
0.00474391
0.00474523
0.00474645
0.00474755
0.00474854
0.00474941
0.00475017
0.00475082
0.00475135
0.00475177
0.00475206
0.00475222
0.00475223
0.00475209
0.00475178
0.00475125
0.00475047
0.00474937
0.00474785
0.00474578
0.00474296
0.00473914
0.00473393
0.00472686
0.00471725
0.00470425
0.00468665
0.00466307
0.00463171
0.00459048
0.0045372
0.00447019
0.00438915
0.00429623
0.00419655
0.00494501
0.0049246
0.00490354
0.00488187
0.00485957
0.00483656
0.00481295
0.00478899
0.00476504
0.00474152
0.00471888
0.00469753
0.00467781
0.00466001
0.0046443
0.00463079
0.00461949
0.00461038
0.00460335
0.00459829
0.00459504
0.00459348
0.00459336
0.0045944
0.00459644
0.00459932
0.00460287
0.00460696
0.00461146
0.00461625
0.00462125
0.00462638
0.00463156
0.00463676
0.00464191
0.00464701
0.00465201
0.0046569
0.00466167
0.00466631
0.00467082
0.00467519
0.00467941
0.00468351
0.00468746
0.00469128
0.00469497
0.00469854
0.00470197
0.00470529
0.00470848
0.00471156
0.00471452
0.00471736
0.00472009
0.0047227
0.00472521
0.0047276
0.00472987
0.00473204
0.00473409
0.00473603
0.00473786
0.00473958
0.00474119
0.00474268
0.00474407
0.00474534
0.00474651
0.00474756
0.00474849
0.0047493
0.00475001
0.0047506
0.00475107
0.00475143
0.00475166
0.00475175
0.00475169
0.00475147
0.00475105
0.00475038
0.00474938
0.00474796
0.00474597
0.00474319
0.00473931
0.00473392
0.00472645
0.00471613
0.00470197
0.00468265
0.00465656
0.00462174
0.00457593
0.00451688
0.00444296
0.00435412
0.0042529
0.00414473
0.00495088
0.00492669
0.00490185
0.00487645
0.00485049
0.004824
0.00479714
0.00477024
0.00474371
0.00471802
0.00469365
0.00467098
0.00465037
0.00463205
0.00461615
0.00460274
0.00459178
0.00458319
0.00457684
0.00457256
0.00457016
0.0045695
0.00457033
0.00457237
0.00457543
0.00457932
0.00458389
0.00458898
0.00459445
0.00460019
0.00460611
0.00461212
0.00461815
0.00462416
0.00463009
0.00463592
0.00464163
0.00464719
0.00465259
0.00465783
0.0046629
0.0046678
0.00467253
0.00467709
0.00468148
0.00468572
0.00468979
0.00469371
0.00469748
0.0047011
0.00470458
0.00470792
0.00471113
0.00471419
0.00471713
0.00471994
0.00472262
0.00472517
0.00472759
0.00472989
0.00473207
0.00473413
0.00473606
0.00473787
0.00473957
0.00474114
0.0047426
0.00474395
0.00474518
0.00474629
0.00474729
0.00474817
0.00474893
0.00474959
0.00475012
0.00475054
0.00475084
0.00475102
0.00475105
0.00475092
0.00475059
0.00475002
0.00474912
0.00474779
0.00474585
0.00474307
0.00473909
0.00473346
0.00472553
0.00471442
0.00469898
0.00467782
0.00464911
0.0046107
0.00456021
0.00449532
0.00441452
0.00431803
0.00420876
0.00409242
0.00495753
0.00492932
0.00490046
0.00487109
0.00484127
0.0048111
0.00478084
0.00475089
0.00472173
0.00469387
0.00466779
0.00464389
0.00462247
0.00460373
0.00458776
0.00457456
0.00456404
0.00455606
0.00455045
0.00454699
0.00454547
0.00454569
0.00454744
0.00455045
0.00455447
0.00455933
0.00456485
0.00457086
0.00457724
0.00458386
0.00459063
0.00459746
0.00460428
0.00461105
0.00461772
0.00462426
0.00463063
0.00463684
0.00464286
0.00464868
0.00465431
0.00465974
0.00466497
0.00467
0.00467484
0.0046795
0.00468397
0.00468826
0.00469238
0.00469633
0.00470012
0.00470374
0.00470721
0.00471052
0.00471369
0.0047167
0.00471957
0.0047223
0.00472489
0.00472734
0.00472966
0.00473184
0.00473389
0.0047358
0.00473759
0.00473926
0.0047408
0.00474222
0.00474352
0.0047447
0.00474577
0.00474672
0.00474755
0.00474826
0.00474887
0.00474936
0.00474973
0.00474998
0.00475009
0.00475005
0.00474982
0.00474934
0.00474853
0.00474726
0.00474536
0.00474254
0.00473844
0.00473253
0.00472407
0.0047121
0.00469532
0.00467221
0.00464076
0.00459867
0.00454341
0.00447269
0.00438507
0.00428109
0.004164
0.00403976
0.00496504
0.00493259
0.00489949
0.00486592
0.00483204
0.00479804
0.00476427
0.0047312
0.0046994
0.00466939
0.00464168
0.00461664
0.00459454
0.00457552
0.00455962
0.00454675
0.00453678
0.00452951
0.0045247
0.00452211
0.0045215
0.00452262
0.00452527
0.00452918
0.00453411
0.00453985
0.00454624
0.00455309
0.00456029
0.0045677
0.00457523
0.0045828
0.00459034
0.0045978
0.00460513
0.00461231
0.00461931
0.00462611
0.0046327
0.00463908
0.00464524
0.00465117
0.00465689
0.00466239
0.00466767
0.00467275
0.00467762
0.00468229
0.00468676
0.00469105
0.00469514
0.00469906
0.0047028
0.00470637
0.00470977
0.00471301
0.00471608
0.004719
0.00472176
0.00472437
0.00472683
0.00472915
0.00473132
0.00473335
0.00473524
0.004737
0.00473863
0.00474012
0.0047415
0.00474275
0.00474389
0.00474491
0.0047458
0.00474659
0.00474726
0.00474782
0.00474827
0.00474859
0.00474879
0.00474883
0.00474868
0.00474828
0.00474754
0.00474633
0.00474444
0.00474157
0.00473731
0.00473106
0.00472202
0.0047091
0.00469095
0.00466581
0.00463155
0.0045857
0.00452566
0.00444911
0.00435476
0.00424346
0.00411877
0.00398689
0.00497351
0.00493659
0.00489903
0.00486107
0.00482297
0.004785
0.00474763
0.00471142
0.00467699
0.00464491
0.00461567
0.00458963
0.004567
0.00454786
0.00453216
0.00451977
0.00451047
0.004504
0.00450007
0.0044984
0.00449871
0.00450073
0.00450425
0.00450902
0.00451478
0.00452134
0.00452849
0.0045361
0.00454401
0.00455211
0.0045603
0.00456851
0.00457667
0.00458473
0.00459264
0.00460039
0.00460793
0.00461527
0.00462238
0.00462926
0.0046359
0.00464231
0.00464848
0.00465442
0.00466012
0.0046656
0.00467085
0.00467588
0.0046807
0.00468532
0.00468973
0.00469394
0.00469795
0.00470178
0.00470542
0.00470888
0.00471216
0.00471527
0.00471821
0.00472098
0.00472359
0.00472604
0.00472834
0.00473049
0.00473249
0.00473434
0.00473606
0.00473764
0.00473908
0.00474041
0.00474161
0.0047427
0.00474366
0.00474452
0.00474526
0.00474589
0.0047464
0.0047468
0.00474708
0.0047472
0.00474713
0.0047468
0.00474613
0.00474495
0.00474305
0.00474011
0.00473564
0.00472902
0.00471936
0.00470544
0.00468584
0.00465862
0.0046215
0.00457187
0.00450703
0.00442469
0.00432373
0.00420526
0.00407318
0.00393386
0.00498301
0.0049414
0.00489919
0.00485667
0.0048142
0.00477216
0.00473114
0.00469179
0.00465478
0.00462073
0.00459009
0.0045632
0.00454021
0.00452112
0.0045058
0.00449402
0.00448551
0.00447993
0.00447695
0.00447624
0.00447749
0.00448041
0.00448477
0.00449033
0.00449686
0.00450413
0.00451197
0.00452022
0.00452873
0.00453741
0.00454616
0.0045549
0.00456358
0.00457214
0.00458054
0.00458876
0.00459677
0.00460457
0.00461213
0.00461944
0.00462651
0.00463334
0.00463992
0.00464625
0.00465233
0.00465818
0.00466379
0.00466917
0.00467431
0.00467924
0.00468394
0.00468843
0.00469271
0.00469679
0.00470066
0.00470434
0.00470782
0.00471112
0.00471424
0.00471717
0.00471993
0.00472252
0.00472495
0.00472721
0.00472931
0.00473126
0.00473307
0.00473473
0.00473625
0.00473764
0.0047389
0.00474005
0.00474109
0.00474201
0.00474282
0.00474352
0.0047441
0.00474458
0.00474493
0.00474512
0.00474513
0.00474487
0.00474425
0.0047431
0.00474117
0.00473811
0.00473342
0.00472639
0.00471605
0.00470112
0.00468002
0.00465068
0.00461066
0.00455722
0.0044876
0.00439953
0.00429206
0.00416658
0.0040273
0.00388074
0.00499359
0.00494711
0.00490007
0.00485283
0.00480587
0.0047597
0.00471501
0.00467255
0.00463305
0.00459714
0.00456526
0.0045377
0.00451452
0.00449564
0.00448085
0.00446983
0.00446222
0.00445762
0.00445565
0.00445593
0.00445812
0.00446192
0.00446708
0.00447339
0.0044806
0.00448851
0.00449693
0.00450571
0.00451472
0.00452387
0.00453306
0.00454222
0.00455131
0.00456026
0.00456905
0.00457766
0.00458605
0.00459421
0.00460214
0.00460982
0.00461726
0.00462444
0.00463136
0.00463804
0.00464446
0.00465063
0.00465656
0.00466224
0.00466769
0.0046729
0.00467787
0.00468262
0.00468715
0.00469145
0.00469555
0.00469943
0.00470311
0.00470658
0.00470987
0.00471296
0.00471586
0.00471858
0.00472112
0.00472349
0.0047257
0.00472774
0.00472963
0.00473137
0.00473296
0.00473442
0.00473575
0.00473695
0.00473805
0.00473904
0.00473991
0.00474068
0.00474134
0.00474188
0.00474231
0.00474258
0.00474265
0.00474245
0.00474187
0.00474073
0.00473876
0.00473557
0.00473063
0.00472315
0.00471208
0.00469612
0.00467348
0.00464198
0.00459904
0.00454179
0.00446741
0.00437368
0.00425983
0.0041275
0.00398119
0.00382756
0.00500533
0.0049538
0.00490176
0.00484967
0.00479813
0.00474777
0.00469942
0.00465391
0.00461202
0.00457439
0.00454144
0.00451338
0.00449019
0.0044717
0.00445759
0.00444745
0.00444084
0.0044373
0.00443637
0.00443765
0.00444078
0.00444543
0.00445135
0.00445834
0.00446616
0.00447461
0.00448351
0.00449272
0.00450213
0.00451163
0.00452116
0.00453064
0.00454003
0.00454928
0.00455836
0.00456725
0.00457593
0.00458438
0.0045926
0.00460057
0.00460829
0.00461575
0.00462297
0.00462992
0.00463663
0.00464308
0.00464927
0.00465522
0.00466092
0.00466637
0.00467159
0.00467657
0.00468131
0.00468583
0.00469011
0.00469418
0.00469803
0.00470167
0.0047051
0.00470833
0.00471137
0.00471421
0.00471686
0.00471933
0.00472163
0.00472376
0.00472573
0.00472754
0.0047292
0.00473072
0.00473211
0.00473337
0.00473453
0.00473558
0.00473651
0.00473735
0.00473807
0.00473869
0.00473919
0.00473953
0.00473967
0.00473953
0.00473898
0.00473784
0.0047358
0.00473247
0.00472724
0.00471928
0.00470748
0.00469043
0.00466622
0.00463255
0.00458667
0.00452562
0.00444653
0.00434722
0.0042271
0.00408808
0.00393489
0.00377436
0.00501826
0.00496152
0.00490434
0.0048473
0.0047911
0.00473654
0.00468456
0.00463607
0.00459192
0.00455272
0.00451886
0.00449046
0.00446744
0.00444949
0.00443619
0.00442704
0.00442151
0.00441907
0.00441922
0.00442151
0.00442556
0.00443102
0.00443765
0.00444525
0.0044536
0.00446249
0.00447178
0.00448132
0.00449102
0.00450078
0.00451054
0.00452024
0.00452983
0.00453928
0.00454856
0.00455765
0.00456653
0.00457518
0.0045836
0.00459178
0.00459972
0.0046074
0.00461483
0.00462201
0.00462893
0.0046356
0.00464201
0.00464817
0.00465408
0.00465974
0.00466515
0.00467032
0.00467525
0.00467994
0.00468439
0.00468862
0.00469262
0.0046964
0.00469996
0.00470331
0.00470646
0.0047094
0.00471215
0.00471471
0.00471709
0.0047193
0.00472133
0.00472321
0.00472494
0.00472652
0.00472796
0.00472928
0.00473049
0.0047316
0.0047326
0.0047335
0.0047343
0.00473499
0.00473556
0.00473597
0.00473618
0.00473609
0.00473557
0.00473441
0.00473231
0.0047288
0.00472326
0.00471479
0.00470225
0.00468407
0.00465828
0.0046224
0.00457358
0.00450874
0.00442498
0.00432018
0.00419392
0.00404834
0.00388845
0.00372118
0.00503242
0.00497032
0.00490789
0.00484581
0.00478491
0.00472615
0.00467057
0.0046192
0.0045729
0.00453228
0.00449767
0.00446911
0.00444639
0.00442912
0.00441675
0.00440868
0.00440429
0.00440298
0.00440421
0.00440749
0.00441242
0.00441864
0.00442591
0.00443406
0.00444285
0.00445212
0.0044617
0.00447148
0.00448138
0.00449131
0.00450121
0.00451103
0.00452074
0.00453031
0.0045397
0.0045489
0.00455789
0.00456667
0.00457522
0.00458353
0.00459161
0.00459943
0.00460701
0.00461434
0.00462142
0.00462825
0.00463482
0.00464114
0.00464721
0.00465303
0.00465859
0.00466391
0.00466898
0.00467381
0.0046784
0.00468275
0.00468687
0.00469076
0.00469443
0.00469788
0.00470112
0.00470415
0.00470698
0.00470961
0.00471206
0.00471433
0.00471643
0.00471837
0.00472015
0.00472178
0.00472328
0.00472466
0.00472592
0.00472708
0.00472815
0.00472912
0.00472999
0.00473076
0.0047314
0.00473189
0.00473216
0.00473213
0.00473163
0.00473045
0.00472826
0.00472457
0.0047187
0.0047097
0.00469638
0.00467707
0.00464966
0.00461156
0.0045598
0.0044912
0.00440283
0.00429262
0.00416033
0.00400835
0.00384189
0.00366803
0.00504781
0.00498024
0.00491246
0.00484526
0.00477964
0.00471669
0.00465759
0.00460343
0.00455511
0.0045132
0.00447798
0.0044494
0.00442712
0.00441063
0.00439927
0.00439234
0.00438912
0.00438896
0.00439125
0.00439549
0.00440125
0.00440817
0.00441602
0.00442463
0.0044338
0.00444334
0.00445314
0.00446308
0.0044731
0.00448311
0.00449308
0.00450295
0.0045127
0.0045223
0.00453173
0.00454097
0.00455001
0.00455884
0.00456744
0.00457582
0.00458396
0.00459187
0.00459953
0.00460695
0.00461413
0.00462105
0.00462773
0.00463415
0.00464033
0.00464625
0.00465192
0.00465734
0.00466252
0.00466744
0.00467213
0.00467657
0.00468078
0.00468475
0.0046885
0.00469202
0.00469533
0.00469842
0.00470131
0.00470401
0.00470651
0.00470884
0.00471099
0.00471297
0.00471481
0.00471649
0.00471805
0.00471948
0.0047208
0.00472202
0.00472315
0.00472419
0.00472514
0.00472599
0.00472671
0.00472728
0.00472762
0.00472764
0.00472717
0.00472597
0.00472367
0.00471978
0.00471355
0.00470403
0.00468991
0.00466944
0.00464039
0.00460006
0.00454536
0.00447303
0.0043801
0.00426458
0.00412638
0.00396813
0.00379526
0.00361496
0.00506443
0.00499129
0.00491809
0.00484573
0.00477537
0.00470827
0.00464571
0.00458886
0.00453862
0.00449556
0.00445985
0.00443135
0.00440961
0.00439398
0.00438369
0.00437792
0.00437588
0.00437684
0.00438016
0.0043853
0.00439184
0.00439939
0.00440775
0.00441676
0.00442621
0.00443596
0.0044459
0.00445594
0.004466
0.00447604
0.004486
0.00449586
0.00450559
0.00451516
0.00452456
0.00453378
0.0045428
0.00455161
0.0045602
0.00456858
0.00457673
0.00458466
0.00459235
0.0045998
0.00460701
0.00461398
0.0046207
0.00462717
0.0046334
0.00463938
0.00464511
0.00465059
0.00465582
0.00466081
0.00466555
0.00467005
0.00467431
0.00467833
0.00468213
0.0046857
0.00468905
0.00469219
0.00469513
0.00469786
0.00470041
0.00470278
0.00470497
0.004707
0.00470888
0.00471062
0.00471223
0.00471372
0.0047151
0.00471638
0.00471758
0.0047187
0.00471973
0.00472067
0.00472149
0.00472214
0.00472256
0.00472263
0.00472219
0.00472096
0.00471856
0.00471446
0.00470787
0.00469781
0.00468287
0.00466121
0.00463051
0.00458794
0.00453031
0.00445427
0.00435683
0.00423609
0.0040921
0.00392772
0.00374859
0.00356199
0.00508227
0.00500347
0.00492478
0.00484723
0.00477215
0.00470092
0.00463497
0.00457552
0.00452347
0.00447935
0.00444326
0.00441493
0.00439379
0.00437906
0.00436985
0.00436525
0.00436434
0.0043664
0.00437071
0.00437671
0.00438394
0.00439204
0.00440082
0.00441014
0.00441981
0.0044297
0.00443972
0.0044498
0.00445986
0.00446987
0.00447977
0.00448956
0.00449922
0.00450871
0.00451803
0.00452717
0.00453612
0.00454486
0.0045534
0.00456172
0.00456983
0.00457771
0.00458537
0.00459279
0.00459999
0.00460695
0.00461367
0.00462014
0.00462637
0.00463236
0.0046381
0.0046436
0.00464885
0.00465385
0.00465861
0.00466313
0.00466741
0.00467146
0.00467528
0.00467887
0.00468225
0.00468541
0.00468837
0.00469114
0.00469371
0.00469611
0.00469834
0.00470042
0.00470234
0.00470413
0.0047058
0.00470735
0.0047088
0.00471015
0.00471143
0.00471264
0.00471376
0.0047148
0.00471572
0.00471647
0.00471697
0.00471711
0.00471669
0.00471544
0.00471294
0.0047086
0.00470167
0.00469105
0.00467528
0.00465241
0.00462004
0.00457522
0.00451466
0.00443495
0.00433307
0.00420718
0.00405752
0.00388716
0.0037019
0.00350916
0.00510127
0.00501676
0.00493255
0.00484979
0.00476999
0.00469469
0.00462541
0.00456343
0.00450966
0.00446456
0.00442814
0.00440002
0.00437951
0.00436569
0.00435753
0.0043541
0.00435437
0.00435745
0.00436263
0.00436936
0.00437717
0.00438573
0.00439486
0.00440443
0.00441426
0.00442425
0.0044343
0.00444437
0.00445438
0.0044643
0.00447412
0.0044838
0.00449336
0.00450274
0.00451194
0.00452096
0.00452979
0.00453842
0.00454685
0.00455507
0.00456309
0.00457089
0.00457847
0.00458582
0.00459296
0.00459986
0.00460652
0.00461296
0.00461915
0.0046251
0.00463082
0.00463629
0.00464151
0.0046465
0.00465125
0.00465575
0.00466003
0.00466407
0.00466788
0.00467148
0.00467486
0.00467803
0.004681
0.00468378
0.00468638
0.0046888
0.00469106
0.00469318
0.00469515
0.00469699
0.00469872
0.00470034
0.00470187
0.00470331
0.00470468
0.00470598
0.00470722
0.00470836
0.0047094
0.00471026
0.00471086
0.00471108
0.00471069
0.00470942
0.00470681
0.00470227
0.00469498
0.00468379
0.00466716
0.00464307
0.00460901
0.00456194
0.00449846
0.0044151
0.00430884
0.00417791
0.00402269
0.00384647
0.00365524
0.00345651
0.00512139
0.00503113
0.00494136
0.0048534
0.0047689
0.00468957
0.00461702
0.00455258
0.00449713
0.0044511
0.00441439
0.00438649
0.00436659
0.00435364
0.00434662
0.00434431
0.00434563
0.0043496
0.00435552
0.00436284
0.00437114
0.0043801
0.00438953
0.0043993
0.00440925
0.00441929
0.00442934
0.00443936
0.00444929
0.00445911
0.00446881
0.00447836
0.00448775
0.00449698
0.00450602
0.00451489
0.00452358
0.00453207
0.00454036
0.00454845
0.00455634
0.00456401
0.00457148
0.00457873
0.00458576
0.00459256
0.00459914
0.00460549
0.0046116
0.00461749
0.00462313
0.00462854
0.00463372
0.00463865
0.00464336
0.00464782
0.00465206
0.00465607
0.00465987
0.00466344
0.00466681
0.00466997
0.00467295
0.00467573
0.00467835
0.00468079
0.00468309
0.00468524
0.00468726
0.00468916
0.00469096
0.00469266
0.00469428
0.00469582
0.00469729
0.00469871
0.00470007
0.00470135
0.00470252
0.00470351
0.00470423
0.00470453
0.0047042
0.00470291
0.0047002
0.00469546
0.00468781
0.00467604
0.00465854
0.00463322
0.00459746
0.00454813
0.00448175
0.00439477
0.00428418
0.00414829
0.00398763
0.00380569
0.00360864
0.00340407
0.00514257
0.00504653
0.00495119
0.00485802
0.00476886
0.00468553
0.00460976
0.00454289
0.00448581
0.00443886
0.00440185
0.00437414
0.00435483
0.00434285
0.00433689
0.00433554
0.00433768
0.00434239
0.00434895
0.00435681
0.00436554
0.00437484
0.00438452
0.00439445
0.00440449
0.00441455
0.00442458
0.00443452
0.00444435
0.00445404
0.00446358
0.00447296
0.00448218
0.00449122
0.00450008
0.00450877
0.00451727
0.00452558
0.0045337
0.00454164
0.00454937
0.00455689
0.00456421
0.00457132
0.00457822
0.00458489
0.00459135
0.00459759
0.0046036
0.00460938
0.00461493
0.00462025
0.00462534
0.0046302
0.00463484
0.00463924
0.00464343
0.00464739
0.00465115
0.00465469
0.00465803
0.00466118
0.00466415
0.00466694
0.00466956
0.00467203
0.00467436
0.00467656
0.00467863
0.00468061
0.00468248
0.00468428
0.004686
0.00468765
0.00468924
0.0046908
0.00469231
0.00469375
0.00469507
0.00469621
0.00469706
0.00469747
0.0046972
0.00469592
0.00469313
0.00468819
0.00468017
0.00466781
0.00464944
0.00462287
0.00458541
0.00453382