/*--------------------------------*- C++ -*----------------------------------*\
  =========                 |
  \\      /  F ield         | OpenFOAM: The Open Source CFD Toolbox
   \\    /   O peration     | Website:  https://openfoam.org
    \\  /    A nd           | Version:  6
     \\/     M anipulation  |
\*---------------------------------------------------------------------------*/
FoamFile
{
    version     2.0;
    format      ascii;
    class       volVectorField;
    location    "0";
    object      U;
}
// * * * * * * * * * * * * * * * * * * * * * * * * * * * * * * * * * * * * * //

dimensions      [0 1 -1 0 0 0 0];

internalField   nonuniform List<vector> 
13046
(
(-0.501465 0.213174 0)
(-0.68106 -0.251227 -5.81509e-21)
(-0.151848 -0.141301 -1.19531e-20)
(-0.457545 0.100713 0)
(-0.111316 -0.0544489 -1.11272e-20)
(-0.558454 -0.259585 0)
(-0.523339 0.134136 1.73935e-21)
(-0.638527 -0.310897 2.91079e-21)
(-0.078894 -0.0414282 -1.20561e-20)
(-1.37357 0.634332 3.73574e-21)
(-1.51153 -0.689724 0)
(0.0888053 -0.0263401 7.15836e-21)
(-0.693127 0.282093 -5.50019e-21)
(-0.856517 -0.359578 -8.66279e-21)
(-0.0525587 -0.0994878 6.32638e-21)
(-1.29863 0.708589 -5.36771e-21)
(0.0427294 -0.0408523 1.71236e-20)
(-1.55477 -0.577675 2.51309e-21)
(-0.205801 0.0395121 0)
(-0.380518 -0.220527 -6.14748e-21)
(-0.444646 -0.0325564 1.826e-20)
(-1.3152 0.69827 -2.09238e-21)
(0.0572578 -0.034691 -2.28753e-20)
(-1.54708 -0.60212 0)
(-0.397242 0.112571 7.19934e-21)
(-0.539756 -0.2036 -1.43539e-20)
(-0.164712 -0.115435 0)
(-0.710556 0.322682 -9.85792e-21)
(-0.894713 -0.356733 2.56211e-21)
(-0.0646736 -0.11617 -1.11182e-20)
(-0.519352 0.24086 0)
(-0.714694 -0.234627 0)
(-0.172367 -0.164406 1.21654e-20)
(-0.342529 0.0709111 -8.36325e-21)
(-0.193701 -0.115083 4.19976e-21)
(-0.469426 -0.163928 2.50163e-20)
(-0.335131 0.0415348 -1.29009e-20)
(-0.195843 -0.0890686 6.45514e-21)
(-0.430367 -0.159275 -1.27859e-20)
(-0.397811 0.228479 8.76964e-21)
(-0.407662 -0.32254 2.16388e-21)
(-0.68965 -0.110994 -8.88522e-21)
(-0.320006 -0.0446597 5.83242e-21)
(-0.24576 -0.053688 9.80737e-21)
(-0.316817 -0.114904 0)
(-0.354279 -0.0326411 3.76444e-21)
(-0.21262 -0.026096 -1.51071e-20)
(-0.339737 -0.149502 -1.87882e-21)
(-0.530973 0.207617 0)
(-0.700144 -0.28002 -4.12116e-22)
(-0.107445 -0.115994 -8.1995e-23)
(-0.683552 -0.515756 1.32706e-20)
(-0.332362 0.235665 0)
(-0.804198 -0.000395195 -1.04897e-20)
(-0.777808 -0.574287 -1.89263e-20)
(-0.841699 0.0369138 -1.67262e-20)
(-0.283728 0.205765 1.30158e-20)
(-1.32606 -0.363034 -1.68175e-21)
(-1.03268 0.652023 0)
(-0.170298 -0.197982 9.56801e-21)
(-0.963883 0.318524 -5.20656e-21)
(-1.08635 -0.58581 4.75258e-21)
(0.0346663 -0.0076052 -2.63007e-20)
(0.0844324 -0.0417068 1.32976e-20)
(-1.44375 -0.651551 -2.33211e-21)
(-1.28448 0.578231 -7.20848e-21)
(-0.968055 0.63414 0)
(-1.25764 -0.306869 0)
(-0.235632 -0.25132 0)
(-0.910646 0.596197 -3.67639e-21)
(-1.19949 -0.286289 0)
(-0.256781 -0.266448 7.6536e-21)
(-1.38623 -0.376892 0)
(-1.08617 0.684773 1.14435e-22)
(-0.150912 -0.188259 -6.05958e-23)
(-0.229009 0.0673461 0)
(-0.377697 -0.239139 6.5961e-21)
(-0.48449 -0.0578025 -1.29659e-20)
(-0.0733343 -0.126877 1.04593e-20)
(-1.16247 0.707858 -1.05667e-20)
(-1.45779 -0.444364 0)
(-0.439135 0.128508 3.80653e-21)
(-0.574077 -0.232769 0)
(-0.131152 -0.0913691 0)
(0.0861412 -0.038158 -1.18699e-20)
(-1.47664 -0.660554 -1.57113e-21)
(-1.32066 0.604106 4.23525e-21)
(-1.33003 0.470798 -7.62283e-21)
(0.0888853 -0.0244148 0)
(-1.39079 -0.760929 -1.85827e-21)
(0.0271626 -0.00298594 0)
(-1.41543 0.375256 0)
(-1.36148 -0.880218 2.17208e-22)
(-1.00879 0.463287 0)
(-1.07235 0.479492 4.46037e-21)
(-1.20018 -0.511002 9.01321e-21)
(-1.25273 -0.555626 -4.19532e-21)
(0.0225357 -0.0782582 -5.55701e-21)
(0.0472858 -0.0615479 1.43361e-20)
(0.0771619 -0.017913 -6.74688e-22)
(-1.31761 0.440215 7.45967e-21)
(-1.36346 -0.780562 0)
(-0.378743 0.000621157 -2.17163e-23)
(-0.180713 -0.0273604 7.80304e-21)
(-0.39403 -0.187242 0)
(-0.174472 0.131411 0)
(-0.745715 0.0760492 -5.28159e-21)
(-0.744681 -0.499775 0)
(-0.31771 0.211888 1.49304e-20)
(-0.592112 -0.435814 0)
(-0.725422 -0.0305454 -2.02299e-20)
(-1.30285 0.621665 0)
(0.0693132 -0.0186246 0)
(-1.39397 -0.67076 4.16926e-23)
(-0.618178 0.244995 1.51859e-20)
(-0.790176 -0.325036 3.78103e-21)
(-0.0677873 -0.0958383 1.16829e-20)
(-1.08875 0.554903 5.69998e-21)
(-1.02179 0.506965 -1.08066e-20)
(-1.3064 -0.505151 -7.56569e-21)
(0.00299722 -0.0914647 6.37789e-21)
(-1.23116 -0.483683 4.37618e-21)
(-0.00210613 -0.0948305 -5.95734e-21)
(-1.36304 0.648504 -2.49758e-21)
(-1.50796 -0.680204 -1.46231e-21)
(0.0837266 -0.022131 -3.19344e-21)
(-0.871802 0.404918 0)
(-1.06051 -0.43666 -6.35656e-21)
(-0.0207384 -0.104458 1.33764e-20)
(-0.455515 0.256038 0)
(-0.346818 -0.288847 -1.09482e-20)
(-0.71965 -0.149903 5.05261e-22)
(0.0136549 0.00976161 0)
(-1.36347 0.350589 0)
(-1.33459 -0.8613 0)
(-1.1862 0.493934 0)
(-1.33349 -0.640084 -1.06647e-20)
(0.0799927 -0.0401658 -1.52332e-20)
(-0.586441 0.27484 0)
(-0.78049 -0.268006 0)
(-0.153459 -0.168901 0)
(-0.70634 0.181462 0)
(-0.812893 -0.451857 0)
(-0.0379876 0.00951543 0)
(-0.29036 0.201998 0)
(-0.659095 -0.478093 0)
(-0.75048 0.000647975 1.09256e-20)
(-0.170692 0.117349 -1.52742e-21)
(-0.711527 0.0690222 -1.15177e-20)
(-0.719734 -0.473575 1.21241e-20)
(-1.01916 0.349658 1.1789e-20)
(-1.13852 -0.604154 0)
(0.0506623 -0.0195393 3.41319e-20)
(-0.121551 0.0560824 0)
(-0.602168 0.0737426 1.24626e-20)
(-0.633563 -0.384308 -3.13347e-21)
(-0.936876 -0.650479 0)
(-0.922789 0.131845 1.18985e-20)
(-1.01407 -0.681957 0)
(-0.979189 0.179924 6.83751e-21)
(-0.166247 0.137367 0)
(-0.111674 0.102646 0)
(-0.737893 0.140053 1.59594e-21)
(-0.802152 -0.491324 6.34796e-21)
(-0.076138 0.0519732 -6.63677e-21)
(-1.39897 0.612025 -3.8309e-21)
(0.094405 -0.0297721 0)
(-1.48487 -0.718937 -2.84485e-21)
(-1.33043 0.635523 -1.94045e-21)
(0.0748678 -0.0171814 -1.46374e-21)
(-1.45116 -0.672604 0)
(-1.21054 0.524581 -6.2807e-21)
(-1.36412 -0.636929 0)
(0.0799419 -0.0438832 1.73108e-20)
(-0.573391 0.354248 0)
(-0.853674 -0.169652 2.72316e-21)
(-0.379075 -0.332172 6.26942e-21)
(-0.698 0.113414 1.0446e-20)
(-0.105042 0.0738808 3.22256e-21)
(-0.748029 -0.459082 0)
(0.0981385 -0.0338692 0)
(-1.46342 -0.767604 0)
(-1.42109 0.556408 3.08049e-21)
(-0.512613 0.31544 0)
(-0.796691 -0.145109 -6.01479e-21)
(-0.394738 -0.326483 1.64354e-21)
(-0.124025 0.0724469 0)
(-0.626746 0.0735 0)
(-0.651612 -0.405605 0)
(-0.650359 0.148297 5.17335e-21)
(-0.752133 -0.418406 0)
(-0.0501068 0.00571769 0)
(-0.938264 -0.424003 -7.45498e-24)
(-0.0107333 -0.073347 -7.90038e-21)
(-0.81739 0.366873 1.5599e-20)
(-1.00578 -0.414889 0)
(-0.026389 -0.0996977 -1.67611e-20)
(-1.35181 0.54289 -7.5227e-21)
(0.098503 -0.0325223 1.07687e-20)
(-1.44872 -0.728737 -7.96153e-21)
(0.0404048 0.00254461 9.84626e-21)
(-1.31235 0.375943 4.81402e-21)
(-1.32743 -0.818078 9.41128e-21)
(-1.40118 0.43093 -1.21967e-20)
(-1.39432 -0.826877 0)
(0.0679382 -0.0188912 -9.66828e-21)
(-0.730695 -0.574296 -6.69501e-22)
(-0.891616 -0.00955306 4.63454e-21)
(-0.410294 0.30582 0)
(-0.64797 0.206797 -2.32391e-20)
(-1.14403 0.721388 5.52321e-21)
(-0.102524 -0.144669 -6.4429e-21)
(-1.4581 -0.430024 0)
(-1.41256 -0.829306 0)
(-1.42822 0.4671 -1.00981e-20)
(0.0784891 -0.0278491 0)
(-0.374429 0.0390555 -1.8915e-20)
(-0.16395 -0.0548045 -6.33979e-21)
(-0.441789 -0.19445 1.87255e-20)
(-0.677941 0.328425 0)
(-0.874893 -0.326866 -3.73315e-22)
(-0.106533 -0.141194 -6.4461e-21)
(0.0208645 0.0114425 7.56978e-21)
(-1.32046 0.35704 0)
(-1.3171 -0.839062 -1.08504e-20)
(-0.708497 0.241965 1.85671e-20)
(-0.914413 -0.432742 1.55334e-20)
(-0.00689542 -0.059129 0)
(0.0878569 -0.0301475 0)
(-1.43851 -0.724155 1.31202e-21)
(-1.39582 0.606231 0)
(-0.353601 0.26526 0)
(-0.898935 0.0186865 0)
(-0.78777 -0.613945 0)
(-1.35351 0.417818 1.06937e-20)
(-1.37063 -0.805449 0)
(0.0662216 -0.0143751 -5.01086e-23)
(-0.85195 0.160147 4.55173e-21)
(-0.90848 -0.584973 -4.69679e-21)
(-0.0852044 0.0772836 0)
(-0.870667 0.430653 0)
(-1.07169 -0.417179 5.95752e-21)
(-0.0456837 -0.119941 1.05196e-20)
(-1.2192 -0.842318 -1.47494e-20)
(-1.23229 0.251685 -8.88202e-21)
(-0.0742357 0.0749599 5.95241e-21)
(-1.05044 0.195024 0)
(-1.07563 -0.731156 -6.19853e-21)
(-0.111104 0.101865 -2.18112e-22)
(0.084582 -0.0349802 -9.42457e-21)
(-1.40935 -0.735026 0)
(-1.40567 0.586615 -1.55282e-21)
(-0.418549 0.273837 8.00705e-21)
(-0.525634 -0.40872 -7.87104e-21)
(-0.77058 -0.0818621 8.71148e-22)
(-1.20996 0.66033 1.61378e-21)
(0.0553547 0.00018913 -1.37248e-20)
(-1.41794 -0.587782 0)
(-0.168726 0.0113207 -3.72657e-21)
(-0.434953 -0.000436362 -1.47503e-20)
(-0.424775 -0.232782 1.84313e-20)
(-0.867203 0.218719 5.33054e-21)
(-0.822025 0.171652 2.67264e-23)
(-0.957554 -0.566743 -1.15784e-20)
(-0.890513 -0.5558 0)
(-0.0641955 0.0583922 6.03321e-21)
(-0.0196353 0.0297808 -6.21578e-21)
(-0.0437984 -0.10231 -1.36902e-20)
(-1.20179 0.718372 5.70862e-21)
(-1.50448 -0.466505 -7.01363e-21)
(-0.812605 0.415369 0)
(-1.02096 -0.371548 0)
(-0.0912148 -0.145362 -1.38075e-20)
(-1.11901 0.235587 -2.38933e-21)
(-1.13774 -0.770199 0)
(-0.0757995 0.0792718 0)
(-1.14423 0.531336 -5.46069e-21)
(-1.32679 -0.568942 0)
(0.0516198 -0.0626772 6.26749e-21)
(-0.290178 -0.0248895 3.89252e-21)
(-0.337039 -0.0974783 5.71494e-21)
(-0.25571 -0.0814233 -1.94681e-21)
(-0.951772 0.19884 -8.70835e-21)
(-1.00806 -0.65123 0)
(-0.0701528 0.0754092 -1.023e-20)
(-0.829719 0.442754 0)
(-1.04987 -0.362274 7.44013e-21)
(-0.110317 -0.160802 -8.78472e-21)
(-0.745561 0.280827 0)
(-0.811357 0.314031 1.83491e-21)
(-0.437869 0.292443 2.87725e-21)
(-0.547328 -0.431509 2.2772e-20)
(-0.798036 -0.0744806 -2.07838e-20)
(-1.00463 0.239565 -8.85917e-21)
(-1.06439 -0.673178 9.55975e-21)
(-0.0305615 0.0501335 9.33362e-21)
(-1.18764 0.542749 0)
(0.0664845 -0.0534037 -2.22086e-20)
(-1.36875 -0.6016 -4.97942e-21)
(-0.313386 0.193398 -2.06734e-20)
(-0.548097 -0.407851 0)
(-0.694182 -0.0340517 6.81979e-21)
(-0.199938 0.162802 -1.20047e-20)
(-0.946569 0.119102 -6.81748e-21)
(-0.943214 -0.679227 0)
(-1.00104 0.547816 -5.51012e-21)
(-1.23887 -0.421208 -6.19127e-21)
(-0.0716762 -0.136739 3.93459e-21)
(-0.386333 0.272174 1.0353e-21)
(-0.645522 -0.496915 0)
(-0.817503 -0.0247319 1.45226e-20)
(-1.05639 0.583404 0)
(-1.09491 0.58952 0)
(-1.30298 -0.447821 -3.77471e-21)
(-0.0553855 -0.125883 -1.02514e-20)
(-1.33298 -0.487064 5.34025e-21)
(-0.0211907 -0.102789 1.08692e-20)
(0.0995486 -0.032713 -8.28482e-21)
(-1.47037 -0.74383 0)
(-1.39929 0.574317 -4.91299e-21)
(-0.960342 0.486303 6.44385e-21)
(-1.17193 -0.448378 0)
(-0.0321205 -0.112624 3.57288e-21)
(-1.24156 -0.622041 -2.17451e-21)
(0.0463283 -0.0131666 1.20115e-20)
(-1.16551 0.59464 1.16911e-21)
(-0.535909 0.0278607 -6.86729e-21)
(-0.152895 0.0565836 0)
(-0.534594 -0.323085 0)
(-0.887083 0.291546 1.24082e-20)
(-1.01845 -0.536618 0)
(0.0251994 -0.0161125 2.03116e-20)
(0.094888 -0.0347842 -6.86193e-21)
(-1.3041 0.533036 1.56311e-20)
(-1.42028 -0.698295 6.52735e-21)
(-0.813426 -0.604755 0)
(-0.873524 0.0455088 6.13159e-21)
(-0.285249 0.220221 -1.47508e-20)
(-1.25454 -0.846523 -1.72682e-20)
(-1.2675 0.289215 -5.30539e-21)
(-0.0358475 0.0469269 0)
(-0.813978 -0.386899 -1.60765e-20)
(-0.0298037 -0.052506 0)
(-0.938021 0.364428 1.31472e-20)
(-1.07963 -0.519212 5.35462e-21)
(0.0358227 -0.0522359 6.17629e-21)
(-0.801998 -0.407795 9.34742e-21)
(-0.0251721 -0.034243 -3.29225e-23)
(-1.28017 0.694067 -3.58876e-22)
(0.0331944 -0.0520356 8.08948e-21)
(-1.53328 -0.560689 -3.69699e-21)
(-0.711957 -0.586651 0)
(-0.926136 -0.0300377 1.44148e-21)
(-0.465837 0.346043 0)
(-0.995831 0.395703 -1.34028e-20)
(-1.15282 -0.549683 -6.52485e-21)
(0.049549 -0.0460727 -7.44125e-21)
(-0.732906 0.175327 0)
(-0.822512 -0.480559 -9.21855e-21)
(-0.0457077 0.025849 0)
(-0.757849 0.0454756 0)
(-0.716071 -0.510399 0)
(-0.231181 0.162355 0)
(-0.502538 0.171105 -5.26749e-21)
(-0.647012 -0.270103 -9.04143e-21)
(-0.107609 -0.0977212 1.66129e-24)
(-0.245006 0.195515 1.48782e-20)
(-0.922998 0.0867715 1.64838e-20)
(-0.894499 -0.655641 9.1665e-21)
(-1.3759 0.504687 -6.13283e-21)
(-1.42603 -0.761842 6.6622e-21)
(0.0957244 -0.029611 -1.01814e-20)
(-1.26465 -0.823252 1.17947e-20)
(-1.25339 0.308714 5.37866e-21)
(-0.00990246 0.0340628 7.6456e-21)
(-0.789757 0.528411 -1.13569e-20)
(-0.353079 -0.330376 1.15129e-20)
(-1.09131 -0.223747 -8.87229e-21)
(-1.13111 0.658464 3.1216e-21)
(-1.08454 0.628597 -2.92968e-21)
(-1.34914 -0.430551 -1.19925e-21)
(-1.40136 -0.449133 0)
(-0.0633526 -0.124212 -3.7153e-21)
(-0.0811702 -0.140211 -3.32246e-21)
(0.0521105 -0.00841966 -1.6272e-20)
(-1.297 -0.611845 2.39625e-21)
(-1.18638 0.604991 1.23897e-21)
(-1.23193 0.673315 -1.33321e-22)
(0.0580173 0.000363734 1.89873e-20)
(-1.45926 -0.588206 0)
(-0.934587 0.250603 -1.98544e-20)
(-1.03077 -0.603061 -2.5019e-21)
(-0.00717774 0.0275162 0)
(0.098931 -0.0327178 -2.0736e-20)
(-1.37032 0.56536 4.88988e-21)
(-1.46898 -0.723509 0)
(-0.91291 0.55915 1.62866e-20)
(-0.968235 0.580028 -1.21239e-20)
(-1.1796 -0.332527 6.78594e-21)
(-1.22893 -0.364179 2.54021e-21)
(-0.19445 -0.217998 -6.55697e-21)
(-0.148996 -0.185671 -3.29048e-21)
(0.0749062 -0.0397012 0)
(-1.39975 -0.845868 0)
(-1.48456 0.459635 1.61932e-21)
(-1.13348 0.651216 -1.89421e-21)
(0.0486025 0.00623136 0)
(-1.37599 -0.558263 0)
(-0.417857 -0.0780112 1.69324e-24)
(-0.247148 0.0353996 8.30803e-21)
(-0.298741 -0.168783 4.09827e-21)
(-1.23816 0.628326 -2.45845e-21)
(-1.38086 -0.637016 -6.09869e-23)
(0.0603429 -0.00960285 8.91398e-22)
(-0.651545 0.386049 0)
(-0.904182 -0.222375 -1.22801e-20)
(-0.294681 -0.277714 -8.74001e-23)
(-1.42565 0.53946 1.89737e-22)
(-1.4511 -0.784361 8.04997e-21)
(0.0970151 -0.0339176 1.28987e-23)
(-1.09828 -0.628825 -5.32291e-23)
(0.0394378 -0.027426 -6.94234e-21)
(-1.13563 0.504268 2.2393e-22)
(-0.336374 0.187162 -7.58085e-21)
(-0.420512 -0.312904 7.06116e-21)
(-0.636401 -0.0844507 2.17916e-20)
(-0.468206 0.0369639 0)
(-0.501085 -0.270914 -2.0456e-20)
(-0.136086 0.0060038 1.02317e-20)
(-1.34273 0.67236 0)
(0.077064 -0.0187041 9.53063e-21)
(-1.51949 -0.660656 -1.8928e-22)
(-0.504811 0.052822 0)
(-0.540834 -0.29965 -7.06102e-21)
(-0.122177 0.0239945 -1.45083e-20)
(-0.384413 -0.0729115 8.63196e-21)
(-0.245557 0.00960365 -4.39268e-21)
(-0.292986 -0.145195 2.17968e-21)
(-0.33578 0.259192 7.17019e-21)
(-0.950051 0.0464019 -5.7318e-21)
(-0.867428 -0.676793 1.00768e-20)
(-0.507453 -0.0341714 0)
(-0.424705 -0.26455 0)
(-0.209916 0.0848894 1.21341e-21)
(-0.538507 0.00646258 1.08676e-20)
(-0.497138 -0.304814 5.37976e-21)
(-0.185436 0.0821093 1.7103e-22)
(-0.73146 0.494462 1.72667e-20)
(-1.03441 -0.192312 -9.15183e-21)
(-0.407453 -0.37312 -1.13833e-20)
(0.0793771 -0.0302141 1.4425e-20)
(0.0869475 -0.0295149 -1.46773e-20)
(-1.52869 -0.658009 2.05415e-21)
(-1.51565 -0.677304 1.53381e-21)
(-1.34596 0.662049 0)
(-1.36178 0.647852 -3.82539e-21)
(-1.40576 0.507331 7.6728e-21)
(-1.43784 -0.77919 -5.32821e-21)
(0.0952084 -0.0309505 1.26347e-20)
(-0.339454 -0.329854 -7.35933e-21)
(-0.846716 0.577129 3.53556e-21)
(-1.1496 -0.23769 1.13063e-20)
(-0.447318 0.278653 -7.31079e-21)
(-0.455569 -0.363382 -7.21497e-21)
(-0.761691 -0.109622 6.73e-21)
(-1.06785 0.165437 0)
(-1.06561 -0.759971 6.41574e-21)
(-0.16251 0.134744 2.25647e-22)
(-1.2117 -0.714148 6.59643e-22)
(0.06246 -0.0475276 -6.47098e-21)
(-1.33118 0.508253 -6.10915e-22)
(0.047739 -0.0147665 0)
(-1.43039 0.406061 0)
(-1.37624 -0.871487 3.74945e-21)
(-1.36133 0.626875 2.61284e-21)
(0.0828089 -0.0235718 0)
(-1.46595 -0.697907 -1.28763e-21)
(0.0311867 -0.0203919 -2.58653e-32)
(-1.03392 -0.593985 1.78299e-21)
(-1.05353 0.490096 -5.2471e-22)
(-1.08314 -0.528238 -2.03059e-21)
(0.0293943 -0.0061154 2.58032e-32)
(-1.00114 0.55412 4.43376e-22)
(-1.17709 -0.682502 -1.27529e-20)
(-1.09193 0.327927 0)
(0.0317165 0.00973611 -1.97486e-20)
(-1.35396 -0.808984 -7.18071e-22)
(0.0771866 -0.0523456 -6.61636e-21)
(-1.48372 0.489369 0)
(-1.21905 0.485134 -8.13233e-21)
(-1.34233 -0.672912 6.53643e-21)
(0.0853514 -0.0336443 1.01885e-20)
(-1.28446 0.740102 1.01754e-20)
(0.034866 -0.0256024 5.75315e-21)
(-1.5892 -0.547838 0)
(-0.609002 0.213808 4.09749e-21)
(-0.0508103 -0.0675627 -4.00133e-21)
(-0.774465 -0.352212 3.90884e-21)
(-1.39879 -0.858408 1.82324e-21)
(0.0684961 -0.0328877 7.01481e-21)
(-1.4722 0.443765 2.10908e-21)
(-1.02458 0.13976 -6.62346e-21)
(-0.196119 0.160294 -4.05299e-21)
(-1.01836 -0.734094 0)
(-1.15907 -0.761688 0)
(-1.12729 0.261988 0)
(-0.0398429 0.0584145 0)
(0.00828313 -0.0048257 0)
(-0.627768 -0.327687 2.92507e-21)
(-0.612715 0.310227 -1.63695e-21)
(-1.23039 -0.651043 -4.085e-22)
(0.0499664 -0.0218321 -8.37861e-21)
(-1.20134 0.574931 -9.28611e-22)
(-0.547777 0.175227 -1.0515e-20)
(-0.0727037 -0.068475 9.60607e-21)
(-0.69393 -0.317578 4.61408e-21)
(-1.42366 -0.808959 5.92206e-21)
(-1.46587 0.508205 -3.10335e-21)
(0.0883546 -0.0397521 0)
(0.0721708 -0.0450531 -7.3283e-21)
(-1.50208 0.459657 0)
(-1.37775 -0.850959 -4.43961e-21)
(-1.34982 0.598545 -4.50148e-21)
(0.0931903 -0.0341759 2.21652e-20)
(-1.4856 -0.688384 0)
(-0.000496118 -0.0767388 -1.6552e-20)
(-1.49472 -0.518651 4.85707e-21)
(-1.227 0.689025 0)
(-0.703185 0.498391 -2.1725e-20)
(-1.0282 -0.167194 1.16568e-20)
(-0.474979 -0.425382 -3.61214e-21)
(-1.30837 -0.393311 1.78858e-21)
(-1.03484 0.62842 7.00216e-21)
(-0.133916 -0.175771 -1.0214e-20)
(-0.00381263 -0.0678593 -1.47913e-20)
(-1.25189 0.735967 0)
(-1.55952 -0.510766 0)
(-0.69367 0.380161 -3.61974e-21)
(-0.765848 0.422251 0)
(-0.919228 -0.278898 -1.27785e-20)
(-0.998416 -0.313741 1.3674e-20)
(-0.196215 -0.205318 1.81877e-21)
(-0.167912 -0.195605 -1.93788e-21)
(-0.64 0.364721 3.47301e-21)
(-0.880993 -0.239742 0)
(-0.253917 -0.243953 3.44765e-21)
(-0.89672 0.573015 0)
(-1.17526 -0.309534 -1.09693e-20)
(-0.234814 -0.247369 2.36904e-21)
(-1.22907 -0.792707 -6.07608e-21)
(-1.20638 0.296488 5.79666e-21)
(-0.0112073 0.0361902 -1.56154e-20)
(-1.42226 -0.817538 0)
(-1.42119 0.491681 1.11136e-20)
(0.0875628 -0.0310482 0)
(0.0354599 0.00726729 -5.05732e-21)
(-1.2487 0.357693 -3.45763e-21)
(-1.28921 -0.785101 -3.89803e-21)
(-1.15348 -0.536514 3.17036e-22)
(0.0347006 -0.00267361 4.474e-21)
(-1.04681 0.579759 0)
(-0.426337 0.218104 7.01074e-21)
(-0.435174 0.20684 0)
(-0.291118 -0.235788 0)
(-0.664461 -0.158575 2.62355e-20)
(-0.247607 -0.205906 0)
(-0.654261 -0.183646 -1.67381e-20)
(-0.790444 0.501823 0)
(-0.711661 0.451036 0)
(-0.322445 -0.302836 1.99273e-23)
(-1.06344 -0.261614 7.27257e-21)
(-0.283967 -0.274256 1.74037e-20)
(-0.988971 -0.227569 -1.56077e-20)
(-1.0716 -0.651875 0)
(0.0440887 -0.0377157 9.47364e-21)
(-1.19033 0.490059 0)
(-1.42884 -0.80036 -4.05355e-21)
(-1.45221 0.511994 1.09248e-21)
(0.091439 -0.0364563 4.43352e-21)
(-0.500432 0.33029 -1.24016e-20)
(-0.523695 -0.429688 -8.10901e-21)
(-0.839216 -0.100678 2.14462e-20)
(-1.16822 -0.809067 1.32758e-20)
(-1.16872 0.226556 1.49796e-20)
(-0.0939708 0.0910965 0)
(-0.0198986 -0.091802 1.76998e-20)
(-1.47246 -0.498762 -5.16416e-21)
(-1.2021 0.6859 7.25409e-21)
(-1.34588 -0.696949 0)
(-1.33204 0.587267 0)
(0.0693349 -0.0289134 0)
(-1.36553 -0.725084 0)
(-1.36993 0.572786 2.00518e-21)
(0.0771025 -0.0364136 1.59992e-21)
(-0.960728 0.553607 -6.82665e-21)
(-1.20908 -0.388928 3.83103e-21)
(-0.116543 -0.164939 4.86627e-21)
(-0.272721 0.167129 -1.9709e-21)
(-0.557798 -0.394983 0)
(-0.663556 -0.0123293 -1.12095e-22)
(-1.36693 0.616476 5.24503e-21)
(0.0926161 -0.0317747 1.28373e-20)
(-1.50474 -0.690933 -1.78541e-21)
(-1.20656 -0.720497 0)
(-1.13716 0.333217 0)
(0.0290458 0.0164725 1.70394e-20)
(0.0677638 -0.0512908 4.24395e-21)
(-1.41932 -0.613704 8.35022e-21)
(-1.2366 0.587336 1.61802e-20)
(-0.670423 0.433582 0)
(-0.373205 -0.338071 -1.17546e-20)
(-0.95585 -0.200713 8.08589e-21)
(-0.820058 0.125339 1.2592e-22)
(-0.848054 -0.560701 6.88726e-21)
(-0.134141 0.106884 0)
(-0.390094 0.233884 6.88516e-23)
(-0.459371 -0.358029 -2.40277e-21)
(-0.709562 -0.0917213 -8.8154e-21)
(0.0968952 -0.0313446 6.28609e-25)
(-1.48994 -0.723716 3.82402e-21)
(-1.39219 0.599072 5.1512e-21)
(-1.14283 0.567264 -3.09099e-21)
(-1.35173 -0.545078 -2.75853e-21)
(0.0299731 -0.0742554 0)
(-0.344369 0.179337 -7.60302e-21)
(-0.367055 -0.273549 1.54422e-20)
(-0.617635 -0.105859 -1.43826e-20)
(-1.2655 0.749409 4.29944e-21)
(0.00722054 -0.0526792 6.53189e-21)
(-1.58505 -0.519736 -2.41789e-21)
(-0.585223 0.29919 -4.43661e-21)
(-0.798044 -0.251839 0)
(-0.193683 -0.197093 0)
(-0.608033 0.112889 -1.9298e-20)
(-0.676041 -0.385388 4.32299e-21)
(-0.0808451 0.0278118 0)
(-1.13933 -0.718407 0)
(-1.08122 0.263749 1.26705e-20)
(-0.0207684 0.0487643 0)
(-1.2647 0.704411 -1.79574e-21)
(0.0558295 -0.00441017 -2.02633e-21)
(-1.53701 -0.58418 4.44435e-22)
(-1.26076 0.722007 5.0528e-21)
(0.0482066 -0.00676059 0)
(-1.55992 -0.56337 -1.37176e-21)
(0.0548126 -0.0564143 3.80249e-21)
(-1.43898 -0.591972 -4.59226e-21)
(-1.23688 0.61074 -1.49118e-20)
(-0.854818 0.106729 -5.92509e-21)
(-0.874981 -0.603552 -6.90953e-21)
(-0.175562 0.133129 0)
(0.05262 0.00370029 1.85628e-21)
(-1.49425 -0.572346 -4.23742e-22)
(-1.20904 0.688493 0)
(0.091559 -0.0315853 0)
(-1.38239 -0.702092 -4.79475e-21)
(-1.27599 0.500248 -1.85312e-21)
(0.0231298 -0.0212422 7.61423e-21)
(-0.880419 -0.553935 -1.51435e-21)
(-0.951483 0.417489 0)
(-0.851629 0.519732 1.15431e-22)
(-0.974685 -0.447823 0)
(0.0210341 0.000273081 7.61075e-21)
(0.00814843 -0.0647813 -2.00896e-23)
(-1.53581 -0.531535 0)
(-1.25327 0.715744 0)
(0.0937188 -0.0318169 0)
(-1.46722 -0.738413 0)
(-1.41375 0.596172 5.95997e-21)
(-1.32777 0.658879 -4.78108e-21)
(-1.30708 0.640885 3.86756e-21)
(0.0712759 -0.0366438 -7.244e-21)
(-1.52848 -0.627206 -7.4587e-22)
(0.0716167 -0.0412591 -1.18188e-20)
(-1.50226 -0.626861 1.63598e-21)
(-1.27878 0.4727 3.68792e-21)
(-1.36865 -0.725634 3.28967e-21)
(0.0884565 -0.0265415 0)
(-0.149823 0.129521 0)
(-1.11653 -0.804507 0)
(-1.13213 0.186934 0)
(-0.411566 0.161903 0)
(-0.200654 -0.159853 -2.139e-20)
(-0.595713 -0.192791 9.16027e-21)
(-1.23784 0.400681 1.08789e-20)
(-1.30444 -0.748149 1.31236e-21)
(0.0648848 -0.00886409 1.48821e-20)
(0.046812 0.00278869 9.67442e-21)
(-1.21694 0.372669 -1.51401e-20)
(-1.27276 -0.754943 -1.8185e-21)
(-1.22512 0.746965 5.43611e-21)
(-0.0353176 -0.0901447 7.07123e-21)
(-1.54677 -0.47408 7.31854e-21)
(-0.8176 0.527369 0)
(-1.10069 -0.264028 3.26773e-21)
(-0.290102 -0.283303 -1.70608e-20)
(-0.708815 0.425838 0)
(-0.960478 -0.243143 1.61229e-20)
(-0.279495 -0.272801 -4.47625e-23)
(-1.08948 0.375181 -1.49779e-20)
(-1.2044 -0.652567 1.74153e-21)
(0.0601941 -0.015913 -8.62807e-21)
(-1.12194 0.369899 0)
(-1.21857 -0.678992 1.64092e-21)
(0.0555202 -0.00813244 7.88432e-21)
(-0.302519 0.144868 0)
(-0.366128 -0.259206 -2.44129e-20)
(-0.568522 -0.0898009 8.08171e-21)
(-0.790167 0.44893 0)
(-1.02579 -0.311221 0)
(-0.179891 -0.208873 2.6077e-21)
(0.0545278 -0.0272506 -1.51767e-20)
(-1.37845 -0.87594 -1.02091e-20)
(-1.47569 0.42094 0)
(-1.39842 0.54789 1.81678e-21)
(0.0754193 -0.0440813 0)
(-1.31782 -0.743687 6.34967e-22)
(-1.3865 0.515809 -4.41328e-22)
(0.0698068 -0.0492024 0)
(-1.27249 -0.739388 -1.51983e-21)
(-0.516039 0.300045 5.18851e-21)
(-0.339769 -0.286411 -2.56296e-21)
(-0.777415 -0.173379 -2.30077e-22)
(-1.26959 -0.676224 3.67216e-22)
(0.0605128 -0.0306753 1.28266e-20)
(-1.29189 0.564899 0)
(-1.19402 0.607075 1.30655e-20)
(0.0335473 -0.0688474 8.07189e-21)
(-1.40822 -0.557359 0)
(0.0569123 -0.0397979 -1.90601e-21)
(-1.20241 -0.695099 3.90926e-23)
(-1.28393 0.522362 0)
(-0.437268 0.0704587 1.31524e-20)
(-0.128511 -0.0343783 1.30338e-20)
(-0.511353 -0.243651 2.14241e-23)
(-0.850281 0.355338 -2.2888e-21)
(-1.02426 -0.456499 -2.02694e-21)
(0.00277817 -0.0759667 -9.06284e-21)
(-0.801616 -0.571294 1.57433e-20)
(-0.823265 0.0712102 1.42108e-20)
(-0.225203 0.164299 0)
(0.0802149 -0.047932 0)
(-1.37903 -0.816948 -1.15286e-21)
(-1.48594 0.493202 0)
(-1.1864 -0.736703 0)
(-1.13497 0.308797 0)
(0.00837421 0.029304 0)
(0.0297401 -0.0382392 0)
(-1.28787 0.734467 -3.60251e-21)
(-1.58464 -0.547513 2.37705e-21)
(-0.922485 0.388263 0)
(-1.08593 -0.495562 1.03983e-21)
(0.0225895 -0.0668186 8.85468e-21)
(-0.382767 0.135333 0)
(-0.200724 -0.148307 1.83801e-20)
(-0.554791 -0.181166 0)
(-1.41506 -0.802611 -5.59121e-21)
(-1.46118 0.526768 2.95256e-21)
(0.0883728 -0.0430806 0)
(0.0896005 -0.0391338 -8.82514e-21)
(-1.4159 -0.672971 3.03444e-22)
(-1.27609 0.553184 3.99564e-22)
(-1.31186 0.674554 0)
(-1.2931 0.669175 2.71397e-21)
(0.0692633 -0.0110846 -4.69255e-21)
(0.0679601 -0.00929445 -5.76113e-21)
(-1.50831 -0.628032 -5.60977e-22)
(-1.48246 -0.63309 4.61516e-22)
(-0.821512 0.227035 0)
(-0.924156 -0.532459 2.70976e-20)
(-0.0143626 0.0142847 9.71622e-21)
(-1.11582 -0.647034 1.79097e-20)
(-1.02898 0.293649 0)
(0.0189012 0.0162653 -1.05023e-20)
(-0.555397 0.130561 -1.08642e-20)
(-0.659195 -0.339488 7.43195e-21)
(-0.0656768 -0.0186511 1.572e-20)
(-1.35919 -0.77462 2.28102e-21)
(-1.44035 0.536099 2.46437e-21)
(-1.33902 -0.788841 -9.48114e-22)
(0.0808103 -0.0461794 0)
(-1.45615 0.510081 -2.37593e-21)
(0.0771177 -0.0509699 0)
(-1.06865 0.454633 0)
(-1.22833 -0.576069 0)
(0.0568496 -0.0515806 9.72238e-21)
(-1.44909 0.545675 4.40359e-21)
(-1.44102 0.548974 -7.93667e-21)
(-1.42666 -0.780304 1.48944e-21)
(-1.40287 -0.76778 -4.51325e-21)
(0.0900896 -0.0405106 1.29851e-20)
(0.0861914 -0.0412158 -1.07481e-23)
(-0.981314 0.268126 0)
(-1.06893 -0.64487 -1.69906e-20)
(-0.010057 0.0362409 1.36151e-20)
(-0.755641 0.255575 1.0151e-20)
(-0.950962 -0.469437 -1.22919e-20)
(0.0110572 -0.0424491 0)
(-1.29214 0.726523 0)
(0.0480221 -0.0179373 0)
(-1.57508 -0.574215 1.31884e-21)
(-0.834098 0.256886 7.48652e-21)
(-0.950645 -0.518033 -7.54391e-21)
(0.00538399 -0.00370443 -1.60535e-20)
(-0.623734 0.170309 4.36121e-21)
(-0.744968 -0.388488 -8.72713e-21)
(-0.0400933 -0.0219433 9.03367e-21)
(-1.29079 0.692014 0)
(0.0633943 -0.00953202 0)
(-1.53786 -0.61091 -1.89496e-21)
(-0.945169 0.420696 0)
(-1.13153 -0.482982 2.07383e-21)
(0.0163409 -0.0799277 -9.69071e-21)
(-0.997004 -0.742606 0)
(-1.022 0.117063 0)
(-0.242958 0.193992 -5.2137e-22)
(-0.674888 0.450176 -5.59847e-22)
(-0.972224 -0.182636 0)
(-0.409593 -0.368692 1.79641e-20)
(-1.29975 -0.877944 6.60269e-21)
(-0.020564 0.0309425 0)
(-1.33586 0.315281 0)
(0.0161467 -0.00822643 -1.83028e-20)
(-0.832387 -0.441598 -4.09175e-21)
(-0.809256 0.414816 2.29069e-21)
(-0.879032 0.315974 0)
(-1.0112 -0.504764 7.51537e-21)
(0.0262509 -0.0377321 -8.15084e-21)
(-1.32114 0.69895 7.12843e-21)
(0.0614474 -0.0266392 2.4417e-20)
(-1.56048 -0.603459 0)
(-0.594004 -0.505261 -4.77664e-21)
(-0.96251 -0.100008 -7.81432e-21)
(-0.582933 0.42035 -4.88547e-21)
(-1.00829 0.598551 0)
(0.0367319 0.00590326 -6.77045e-21)
(-1.22032 -0.524578 0)
(-0.18052 0.10417 9.73976e-21)
(-0.207197 0.129134 -9.94811e-21)
(-0.589797 -0.389177 0)
(-0.621249 0.0294775 9.25075e-21)
(-0.627692 -0.427054 -1.5617e-20)
(-0.666169 0.0240967 -7.39457e-21)
(-0.547546 0.0987661 1.0233e-20)
(-0.617028 -0.33423 9.92126e-21)
(-0.0878665 0.00868924 0)
(-0.282635 0.16072 8.70804e-21)
(-0.225419 0.125718 0)
(-0.481114 -0.342599 -8.75466e-21)
(-0.623146 -0.0468159 8.27368e-21)
(-0.505979 -0.341688 8.82315e-21)
(-0.594659 -0.0157326 3.96273e-23)
(-0.822218 0.294534 6.38168e-22)
(-0.885666 -0.454879 -5.42092e-21)
(-0.00405717 -0.0275485 -1.10427e-20)
(-0.760138 0.237083 -1.74692e-20)
(-0.888765 -0.471347 1.41578e-22)
(-0.00792522 -0.0122106 0)
(0.0706827 -0.0545612 0)
(-1.27483 -0.770109 0)
(-1.43047 0.498533 1.54179e-21)
(-0.573755 0.322731 -4.78567e-21)
(-0.813678 -0.20923 0)
(-0.275574 -0.25 4.7439e-21)
(-1.43055 0.566845 -9.77157e-21)
(-1.45568 -0.766311 2.42059e-21)
(0.0952158 -0.0351027 -7.40296e-21)
(-1.12583 0.419077 0)
(-1.18275 0.445448 7.81871e-21)
(-1.2526 -0.646123 -2.17249e-21)
(-1.30116 -0.670746 6.40029e-21)
(0.0726954 -0.0266248 -1.06738e-20)
(0.0803631 -0.0275505 -9.83169e-21)
(-0.546357 0.290847 0)
(-0.775053 -0.218922 0)
(-0.242897 -0.226367 2.27731e-21)
(-0.866402 0.518305 5.48148e-21)
(-1.11815 -0.321365 0)
(-0.194826 -0.216641 5.64522e-21)
(-1.01596 0.386973 -4.24849e-21)
(-1.15791 -0.585686 0)
(0.0564094 -0.0334575 0)
(-0.294272 0.0643479 1.00744e-20)
(-0.454632 -0.121669 -4.9418e-21)
(-0.248247 -0.152046 4.9993e-21)
(-1.19667 0.408713 0)
(-1.28622 -0.71277 0)
(0.0695513 -0.0139714 -1.58298e-20)
(-0.380174 0.163359 0)
(-0.255539 -0.196405 2.68976e-21)
(-0.590569 -0.158704 0)
(-0.981295 0.293455 -9.81047e-21)
(-1.07653 -0.621835 -9.56842e-21)
(0.0192196 0.00859263 -1.36695e-21)
(-0.856978 0.490324 5.59491e-21)
(-1.09796 -0.340232 0)
(-0.156877 -0.194416 1.1695e-20)
(-0.312945 0.0967055 -9.98418e-21)
(-0.290432 0.098089 -4.41529e-21)
(-0.49785 -0.134068 4.88435e-21)
(-0.253485 -0.171378 -9.92167e-21)
(-0.504822 -0.110231 0)
(-0.298103 -0.202884 -1.76083e-20)
(-0.252615 0.116078 -4.38933e-21)
(-0.407753 -0.278701 1.14195e-20)
(-0.224065 0.111266 2.82007e-21)
(-0.546688 -0.0562856 -1.12156e-20)
(-0.485305 -0.323686 -5.56019e-21)
(-0.570108 -0.022511 2.35294e-22)
(-0.667983 0.350063 5.25901e-21)
(-0.728922 0.369267 0)
(-0.884749 -0.288357 9.61512e-21)
(-0.933558 -0.329017 -7.51411e-21)
(-0.165773 -0.183672 -1.05885e-20)
(-0.116715 -0.153606 1.76093e-20)
(0.0200402 -0.0690669 0)
(-1.47056 -0.544433 -2.74213e-21)
(-1.2287 0.659368 -7.38735e-21)
(-0.274285 0.215741 6.35755e-21)
(-0.964352 0.0839483 9.04221e-21)
(-0.924678 -0.695491 -1.59467e-20)
(0.0390393 -0.0555279 -8.26941e-21)
(0.0559424 -0.0504131 6.62162e-21)
(-1.49806 -0.575353 2.37432e-21)
(-1.48235 -0.597772 4.20245e-21)
(-1.26342 0.669194 1.86448e-20)
(-1.2737 0.645109 -9.65525e-21)
(-0.420404 0.301382 9.03786e-21)
(-0.664797 -0.521697 -7.69331e-21)
(-0.853167 -0.0346408 2.12387e-21)
(-0.29137 0.0084366 1.71175e-20)
(-0.239317 -0.10067 0)
(-0.379757 -0.113647 -1.69697e-20)
(-1.22209 0.441664 -3.66175e-21)
(-1.31884 -0.706961 -7.23368e-21)
(0.080283 -0.0219704 0)
(-0.475467 0.249071 0)
(-0.285222 -0.248633 -2.16941e-21)
(-0.711728 -0.175714 -8.48864e-21)
(-0.897435 0.505178 0)
(-1.13559 -0.366378 0)
(-0.126699 -0.173037 -1.08801e-20)
(-1.16194 0.653177 -8.26725e-21)
(-1.1534 0.626361 0)
(-1.41973 -0.492465 1.67334e-21)
(-0.0271122 -0.100996 -1.0203e-20)
(-1.39637 -0.504073 -4.54386e-21)
(-0.0102588 -0.093282 1.38252e-20)
(-1.11948 0.459598 7.94049e-21)