/*--------------------------------*- C++ -*----------------------------------*\
  =========                 |
  \\      /  F ield         | OpenFOAM: The Open Source CFD Toolbox
   \\    /   O peration     | Website:  https://openfoam.org
    \\  /    A nd           | Version:  6
     \\/     M anipulation  |
\*---------------------------------------------------------------------------*/
FoamFile
{
    version     2.0;
    format      ascii;
    class       volVectorField;
    location    "0";
    object      U;
}
// * * * * * * * * * * * * * * * * * * * * * * * * * * * * * * * * * * * * * //

dimensions      [0 1 -1 0 0 0 0];

internalField   nonuniform List<vector> 
13046
(
(0.437842 0.199992 0)
(0.440675 0.00770056 3.93691e-21)
(0.238247 0.0470919 8.85844e-21)
(0.438263 0.150065 0)
(0.271438 0.0942092 7.9516e-21)
(0.382945 0.0061506 0)
(0.459419 0.159308 -1.15319e-21)
(0.392522 -0.0145698 -2.02171e-21)
(0.256884 0.101869 8.7909e-21)
(0.586226 0.279116 -4.11458e-21)
(0.634086 -0.217976 0)
(0.0524925 0.0528355 -6.00938e-21)
(0.488681 0.212553 7.29976e-21)
(0.459399 -0.0357512 6.26663e-21)
(0.203889 0.0611538 -4.90742e-21)
(0.561281 0.317251 -1.88036e-21)
(0.0622365 0.0236789 -9.61678e-21)
(0.666401 -0.163043 -3.26417e-21)
(0.33537 0.141689 0)
(0.321377 0.0213818 4.29246e-21)
(0.426762 0.0953966 -1.2034e-20)
(0.567405 0.310373 2.27922e-21)
(0.0592523 0.0307093 1.92546e-20)
(0.65863 -0.174507 -1.07649e-21)
(0.414212 0.161306 -4.86064e-21)
(0.404486 0.0273303 7.23819e-21)
(0.271101 0.0649937 0)
(0.488071 0.22943 -7.91566e-23)
(0.474682 -0.0381129 -1.83066e-21)
(0.192741 0.0491795 1.69466e-20)
(0.436697 0.212738 0)
(0.456186 0.0114965 0)
(0.230368 0.032619 -9.01827e-21)
(0.395223 0.146382 1.70077e-20)
(0.288044 0.0659276 -2.97215e-21)
(0.393186 0.0440449 -1.12284e-20)
(0.392993 0.13291 4.55738e-23)
(0.301532 0.0792368 0)
(0.378143 0.0475853 0)
(0.385621 0.22848 -6.31633e-21)
(0.265919 -0.0324922 -8.2381e-21)
(0.499781 0.0526519 5.93614e-21)
(0.373729 0.0972454 -3.92288e-21)
(0.33953 0.0955896 4.00302e-21)
(0.349263 0.0670633 0)
(0.391175 0.099288 -2.47376e-21)
(0.331608 0.108604 0)
(0.340281 0.0516284 1.29589e-21)
(0.449261 0.194698 0)
(0.432989 -0.00566724 2.83522e-22)
(0.230037 0.0584957 -8.9547e-24)
(0.319344 -0.10612 -1.03873e-20)
(0.342739 0.253 0)
(0.560753 0.0811395 7.27225e-21)
(0.34382 -0.125575 1.47924e-20)
(0.574538 0.0923656 7.8249e-21)
(0.322263 0.247632 -9.95742e-21)
(0.623789 -0.0609302 1.44705e-21)
(0.513188 0.340982 0)
(0.139477 -0.0317347 -7.89659e-21)
(0.56719 0.198393 3.49372e-21)
(0.473412 -0.121253 -3.76494e-21)
(0.188331 0.126343 2.05731e-20)
(0.0922255 0.0631694 -1.09361e-20)
(0.601819 -0.171828 2.39301e-21)
(0.591447 0.272996 6.09053e-21)
(0.49815 0.34498 0)
(0.617898 -0.0412761 -6.75126e-21)
(0.158778 -0.0504427 -2.30763e-21)
(0.487862 0.337389 2.79435e-21)
(0.605221 -0.0309936 9.14918e-21)
(0.16919 -0.0515552 3.13776e-21)
(0.641022 -0.0706895 1.50563e-23)
(0.520818 0.347381 -8.19876e-23)
(0.12853 -0.033313 -1.35187e-24)
(0.344877 0.155766 0)
(0.309341 0.011767 -4.6803e-21)
(0.439326 0.0845795 8.57511e-21)
(0.103487 -0.0120408 -8.77668e-21)
(0.537249 0.340325 8.81254e-21)
(0.64923 -0.101193 3.20174e-21)
(0.42842 0.164552 -2.54769e-21)
(0.401092 0.015304 2.58956e-21)
(0.261885 0.075435 0)
(0.081891 0.0586062 9.83967e-21)
(0.615532 -0.182201 0)
(0.593081 0.278331 -3.63352e-21)
(0.623618 0.226546 6.34782e-21)
(0.116865 0.111677 0)
(0.558112 -0.205975 1.86425e-21)
(0.143129 0.161186 0)
(0.659659 0.179534 0)
(0.522723 -0.250965 -2.5091e-22)
(0.547967 0.258178 7.23067e-21)
(0.562404 0.257843 -1.00873e-20)
(0.538865 -0.100551 -7.31192e-21)
(0.547466 -0.118832 3.43267e-21)
(0.143355 0.0572378 4.48904e-21)
(0.134564 0.066959 -1.1485e-20)
(0.130045 0.124816 5.5041e-22)
(0.628904 0.214155 -6.2099e-21)
(0.543477 -0.210673 0)
(0.406727 0.112024 1.94914e-23)
(0.316604 0.109235 0)
(0.346854 0.0363179 0)
(0.296003 0.206614 -1.77753e-20)
(0.54187 0.11542 3.57409e-21)
(0.353585 -0.0929041 0)
(0.348277 0.235303 -2.72551e-21)
(0.303412 -0.0749017 0)
(0.531779 0.0770134 1.36488e-20)
(0.543067 0.267877 0)
(0.0270366 0.0408019 8.21976e-21)
(0.604289 -0.242243 2.64625e-21)
(0.471827 0.201487 -5.07184e-21)
(0.444248 -0.02229 -2.65057e-21)
(0.216692 0.0657118 -8.8284e-21)
(0.550841 0.287658 -4.2111e-21)
(0.542215 0.275467 3.93127e-21)
(0.57974 -0.106412 -2.03353e-21)
(0.122343 0.034746 -5.15387e-21)
(0.556268 -0.0944898 1.9769e-21)
(0.135309 0.040078 4.81556e-21)
(0.57599 0.283217 1.07307e-20)
(0.638269 -0.222263 3.7165e-21)
(0.0445251 0.0470164 2.69535e-21)
(0.519732 0.249936 0)
(0.510536 -0.070563 4.83254e-21)
(0.16427 0.047629 -2.60154e-20)
(0.403752 0.234614 0)
(0.249023 -0.0220359 8.29068e-21)
(0.496898 0.0379155 -3.55273e-22)
(0.157603 0.170363 0)
(0.654386 0.174606 0)
(0.512373 -0.238107 0)
(0.588852 0.250261 0)
(0.559567 -0.153842 9.56551e-21)
(0.124918 0.0840435 1.16365e-20)
(0.45259 0.223406 0)
(0.469989 -0.0024841 0)
(0.217168 0.0274083 0)
(0.516079 0.163304 0)
(0.40489 -0.0684229 0)
(0.243355 0.135853 0)
(0.33618 0.235375 2.52203e-21)
(0.320224 -0.0886072 0)
(0.543008 0.0865706 -7.3561e-21)
(0.299707 0.197195 1.7229e-20)
(0.531071 0.116238 7.64499e-21)
(0.352568 -0.0810778 -8.98892e-21)
(0.574492 0.208312 -8.37709e-21)
(0.491882 -0.130876 0)
(0.173053 0.114612 -2.67952e-20)
(0.289858 0.158284 0)
(0.493184 0.126781 -1.64873e-20)
(0.355064 -0.0444093 -2.29124e-21)
(0.392995 -0.148067 -4.14277e-21)
(0.590311 0.122535 -8.28419e-21)
(0.418109 -0.159566 0)
(0.599008 0.137817 -4.775e-21)
(0.274996 0.223965 -8.65179e-21)
(0.25105 0.208528 8.30886e-21)
(0.532016 0.142712 -1.05085e-21)
(0.386932 -0.0857374 -4.72454e-21)
(0.260417 0.16227 5.03408e-21)
(0.599284 0.268596 4.21963e-21)
(0.0578942 0.0622351 -3.12071e-21)
(0.619475 -0.226721 4.63668e-21)
(0.555894 0.276105 3.19397e-21)
(0.0321155 0.0420062 1.23333e-21)
(0.624425 -0.23452 0)
(0.587739 0.260012 -8.80059e-23)
(0.573219 -0.156034 0)
(0.113866 0.0744388 -1.40616e-20)
(0.423982 0.2741 0)
(0.536326 0.0241262 -1.92055e-21)
(0.234496 -0.0483022 -4.88523e-21)
(0.523087 0.133892 -6.94028e-21)
(0.275338 0.172636 0)
(0.370876 -0.0739933 0)
(0.0729832 0.0833981 0)
(0.595285 -0.234814 0)
(0.619576 0.247836 -3.58454e-21)
(0.410457 0.260548 0)
(0.52412 0.0354454 4.13624e-21)
(0.24622 -0.042376 -1.25911e-21)
(0.288057 0.168486 0)
(0.502165 0.123711 0)
(0.35094 -0.0549527 0)
(0.50115 0.154774 -3.42746e-21)
(0.392883 -0.0559978 0)
(0.251542 0.13159 0)
(0.467106 -0.0601111 3.46858e-23)
(0.192565 0.0760972 5.99757e-21)
(0.511327 0.238003 -1.06962e-20)
(0.494729 -0.0601747 0)
(0.176403 0.0541625 2.6866e-20)
(0.613735 0.251247 7.29624e-21)
(0.0945285 0.0858821 -8.89624e-21)
(0.590034 -0.203136 9.04956e-21)
(0.153215 0.154065 -8.10397e-21)
(0.63946 0.190019 -3.81647e-21)
(0.519649 -0.219076 -9.35136e-21)
(0.646407 0.203547 1.08585e-20)
(0.545597 -0.234693 0)
(0.122629 0.134948 7.9668e-21)
(0.319421 -0.132784 4.27139e-21)
(0.589073 0.070403 -3.28761e-21)
(0.355541 0.288648 -8.45307e-21)
(0.490134 0.181074 6.71282e-21)
(0.530395 0.34827 -4.4648e-21)
(0.110123 -0.0211814 5.40379e-21)
(0.655836 -0.0938426 -1.50386e-23)
(0.557119 -0.242686 0)
(0.643399 0.213065 3.26714e-21)
(0.107474 0.120976 0)
(0.408855 0.128778 1.25239e-20)
(0.299565 0.0958956 0)
(0.364979 0.0326405 -4.26068e-21)
(0.476664 0.23565 0)
(0.480563 -0.0251511 2.63767e-22)
(0.20002 0.0380961 -4.99857e-21)
(0.161107 0.166033 -6.19847e-21)
(0.646168 0.180496 0)
(0.511047 -0.227177 1.07701e-20)
(0.505018 0.190982 0)
(0.455123 -0.0628526 -1.1376e-20)
(0.201161 0.0873409 0)
(0.0447166 0.0583414 0)
(0.606686 -0.245795 -3.99414e-21)
(0.589533 0.261842 0)
(0.336647 0.276898 9.14588e-21)
(0.593369 0.0797663 0)
(0.337323 -0.144641 0)
(0.639377 0.20283 -9.53107e-21)
(0.538153 -0.222923 0)
(0.131704 0.135483 1.10284e-23)
(0.564896 0.141412 -9.21693e-21)
(0.400315 -0.122461 -3.60137e-21)
(0.252993 0.185139 1.15785e-20)
(0.51505 0.261218 0)
(0.520181 -0.0645047 -4.51159e-21)
(0.161792 0.036515 -2.71014e-21)
(0.469031 -0.222045 1.34076e-20)
(0.647362 0.146338 6.84998e-21)
(0.21088 0.211007 -4.87711e-21)
(0.614805 0.137805 0)
(0.431545 -0.178319 5.26093e-21)
(0.243711 0.213553 1.74511e-22)
(0.0431331 0.0613232 6.32636e-21)
(0.590777 -0.254911 0)
(0.591847 0.251039 3.7825e-21)
(0.377843 0.25648 -1.17834e-20)
(0.279313 -0.0698694 6.08413e-21)
(0.537168 0.0574865 6.02695e-22)
(0.499509 0.285829 -3.49142e-21)
(0.0195133 0.0259079 6.81507e-22)
(0.626611 -0.210133 0)
(0.316616 0.129008 -2.61664e-21)
(0.429006 0.108339 9.73068e-21)
(0.335647 0.0164208 -1.28468e-20)
(0.557947 0.164859 -3.74926e-21)
(0.553743 0.148673 -2.72567e-23)
(0.425881 -0.11431 8.7848e-21)
(0.402997 -0.109963 8.63477e-21)
(0.248148 0.17192 -9.18581e-21)
(0.225037 0.154536 4.75805e-21)
(0.0910931 -0.00448411 1.14859e-20)
(0.54217 0.338097 -4.64175e-21)
(0.660584 -0.112341 0)
(0.500111 0.262063 0)
(0.517542 -0.0459769 0)
(0.173995 0.0259972 1.08034e-20)
(0.624212 0.149027 1.78188e-21)
(0.452036 -0.192816 0)
(0.224538 0.20317 0)
(0.569966 0.270961 -3.9172e-21)
(0.572321 -0.129942 0)
(0.118563 0.0574554 -5.1389e-21)
(0.365129 0.106388 -2.65811e-21)
(0.363719 0.0738744 -3.86283e-21)
(0.333719 0.0824759 1.32875e-21)
(0.587036 0.148663 6.09679e-21)
(0.424002 -0.147084 0)
(0.238549 0.189303 8.02322e-21)
(0.498634 0.273285 0)
(0.531236 -0.0444987 -5.63022e-21)
(0.169508 0.0145483 6.97572e-21)
(0.507474 0.206742 -1.09758e-20)
(0.521786 0.214301 8.83212e-21)
(0.379265 0.266147 9.3042e-21)
(0.279826 -0.0802553 -1.76529e-20)
(0.547366 0.0569086 1.33388e-20)
(0.593488 0.161303 6.31662e-21)
(0.443804 -0.156241 -7.67247e-21)
(0.217822 0.174791 -7.32087e-21)
(0.57944 0.270292 1.39985e-20)
(0.111298 0.0634751 1.80899e-20)
(0.580185 -0.144062 4.76482e-21)
(0.351921 0.223572 4.08938e-21)
(0.299244 -0.0629519 0)
(0.519103 0.0782022 -4.60723e-21)
(0.282353 0.239032 9.35954e-21)
(0.59982 0.115026 4.77802e-21)
(0.389278 -0.159915 0)
(0.526083 0.298455 1.35872e-21)
(0.576001 -0.0749304 4.97822e-21)
(0.136163 0.01048 -3.20601e-21)
(0.359409 0.265501 -7.69282e-22)
(0.305701 -0.101731 0)
(0.561858 0.0718349 -1.00135e-20)
(0.535618 0.305539 0)
(0.545537 0.301181 0)
(0.592028 -0.0865585 3.23609e-21)
(0.126209 0.0119239 8.34447e-21)
(0.594228 -0.101286 -4.57776e-21)
(0.118609 0.0229075 -8.86962e-21)
(0.0764783 0.0780039 6.92685e-21)
(0.60282 -0.221666 0)
(0.614267 0.256321 4.78091e-21)
(0.52919 0.275009 0)
(0.54585 -0.0802374 2.29006e-21)
(0.144608 0.0324229 -2.82935e-21)
(0.546389 -0.234791 -7.5865e-21)
(0.0138705 0.0296647 -1.01517e-20)
(0.479128 0.249154 -8.96629e-21)
(0.469713 0.112762 1.32769e-20)
(0.308046 0.154777 0)
(0.336751 -0.0207309 4.83405e-21)
(0.549457 0.194576 -8.45319e-21)
(0.458959 -0.102741 0)
(0.196081 0.118981 -1.56932e-20)
(0.102555 0.0831212 5.64106e-21)
(0.606757 0.252752 -1.3256e-20)
(0.58249 -0.187315 -6.79177e-21)
(0.349725 -0.137291 5.56164e-21)
(0.584883 0.0927617 0)
(0.317688 0.257668 1.12837e-20)
(0.484024 -0.224955 1.64016e-20)
(0.647666 0.158249 4.23622e-21)
(0.191243 0.193589 0)
(0.430761 -0.0444325 5.72067e-21)
(0.220425 0.0933403 0)
(0.548643 0.223509 -9.31245e-21)
(0.491157 -0.0995887 -4.15738e-21)
(0.170412 0.0870354 -4.82205e-21)
(0.419935 -0.0514758 -2.03562e-22)
(0.227168 0.105053 -5.62194e-23)
(0.562216 0.316346 1.04205e-20)
(0.0712951 0.0220707 -1.35076e-20)
(0.657318 -0.151846 4.79539e-21)
(0.309617 -0.140806 -5.56401e-21)
(0.598633 0.0611228 -1.05349e-21)
(0.369721 0.303822 0)
(0.560096 0.22972 9.48298e-21)
(0.50839 -0.112408 5.07662e-21)
(0.159941 0.0902937 1.17918e-20)
(0.525948 0.157578 0)
(0.399756 -0.0805012 3.45409e-21)
(0.245921 0.147163 0)
(0.546813 0.102098 4.59753e-21)
(0.33994 -0.0982908 0)
(0.314445 0.220724 0)
(0.444295 0.179728 3.5321e-21)
(0.416725 0.000783975 6.264e-21)
(0.244582 0.0695093 -2.61032e-23)
(0.300111 0.251335 -1.16191e-20)
(0.596539 0.104263 -1.16854e-20)
(0.373413 -0.15301 -1.50743e-20)
(0.625845 0.234658 5.83299e-21)
(0.574337 -0.215615 -7.70938e-21)
(0.10181 0.100572 -1.33483e-22)
(0.491202 -0.216663 -1.10855e-20)
(0.641426 0.167818 -4.29341e-21)
(0.182665 0.181263 -6.16206e-21)
(0.462182 0.330106 8.60284e-21)
(0.201083 -0.0670392 -4.67754e-21)
(0.591755 -0.00621433 0)
(0.539007 0.325442 -2.5167e-21)
(0.532901 0.321245 2.26334e-21)
(0.612255 -0.0854879 1.0323e-21)
(0.626744 -0.0950759 -4.5091e-21)
(0.111841 -0.00131445 3.0744e-21)
(0.121767 -0.00316588 2.70052e-21)
(0.0163332 0.0289042 1.03035e-20)
(0.573621 -0.22753 8.35211e-21)
(0.488814 0.258784 -2.19507e-21)
(0.510021 0.292914 2.19797e-22)
(0.0231831 0.0252385 0)
(0.64427 -0.206336 0)
(0.572391 0.172368 1.37284e-20)
(0.445237 -0.127611 1.98165e-21)
(0.21544 0.154474 0)
(0.0845764 0.0771913 1.71303e-20)
(0.610504 0.257811 -5.96365e-21)
(0.60148 -0.206784 0)
(0.498284 0.318159 -1.22448e-20)
(0.510414 0.317775 9.19042e-21)
(0.585505 -0.0439995 -5.34167e-21)
(0.590715 -0.0565564 -2.03979e-21)
(0.161376 -0.0264198 5.3264e-21)
(0.147561 -0.0155423 2.67255e-21)
(0.0912299 0.115457 0)
(0.550506 -0.262233 0)
(0.647613 0.204305 -1.79677e-21)
(0.467713 0.281573 4.10088e-21)
(0.0151655 0.0210403 -6.41571e-21)
(0.612806 -0.200169 0)
(0.404905 0.0785403 3.10192e-23)
(0.354555 0.136441 -5.68435e-21)
(0.311866 0.0433369 -2.85699e-21)
(0.513496 0.271008 7.31147e-21)
(0.604182 -0.230858 -3.87165e-21)
(0.0209877 0.0326496 -1.27762e-20)
(0.446914 0.276446 -1.0167e-20)
(0.533358 0.00538981 8.85782e-21)
(0.212569 -0.0304461 4.2902e-24)
(0.626276 0.240145 -4.83569e-23)
(0.587159 -0.236727 -1.10897e-20)
(0.0824021 0.0916818 3.52472e-21)
(0.476643 -0.247279 -2.32025e-22)
(0.0132464 0.0310989 1.16847e-20)
(0.463547 0.200461 3.56441e-21)
(0.37016 0.211775 5.44343e-21)
(0.279146 -0.0250584 3.50716e-22)
(0.487304 0.0649715 -1.45057e-20)
(0.445103 0.121906 0)
(0.34917 0.00108438 1.42351e-20)
(0.299512 0.128452 -7.34042e-21)
(0.565937 0.29327 -1.07616e-20)
(0.0418573 0.0407013 -8.03987e-21)
(0.648799 -0.213027 -4.51366e-25)
(0.458563 0.125028 0)
(0.348846 -0.0111551 5.01102e-21)
(0.293236 0.138294 1.03661e-20)
(0.39233 0.0822951 -5.80551e-21)
(0.351899 0.124122 6.00271e-21)
(0.321656 0.0540307 -1.50334e-21)
(0.325195 0.281414 5.61238e-21)
(0.609107 0.0862764 4.1754e-21)
(0.357137 -0.16521 -8.32219e-21)
(0.451079 0.0907171 0)
(0.310951 0.000270064 0)
(0.334913 0.165782 -8.53548e-22)
(0.467038 0.104766 -7.08625e-21)
(0.325281 -0.0132074 -3.88059e-21)
(0.322958 0.165817 -1.21274e-22)
(0.447945 0.324832 -1.30582e-20)
(0.587373 0.00482661 6.90244e-21)
(0.218182 -0.0795534 9.29479e-21)
(0.0599884 0.0465334 -1.21207e-20)
(0.0604736 0.0520004 1.23005e-20)
(0.644788 -0.194829 -3.24885e-21)
(0.635477 -0.204775 -2.26256e-21)
(0.58181 0.294324 -8.4669e-21)
(0.588565 0.286389 1.28152e-20)
(0.631237 0.232533 -7.16049e-21)
(0.575918 -0.225754 6.90649e-21)
(0.0958937 0.103851 0)
(0.191084 -0.0724785 -6.03187e-21)
(0.470858 0.343115 -2.69346e-21)
(0.606659 -0.0143286 0)
(0.391184 0.252142 0)
(0.263859 -0.0535388 5.54146e-21)
(0.525477 0.0480927 -4.55974e-21)
(0.624677 0.124196 0)
(0.422105 -0.189936 -5.442e-21)
(0.258679 0.234448 -1.80566e-22)
(0.512836 -0.270921 -3.89058e-21)
(0.0297682 0.0531259 0)
(0.550793 0.205832 9.02935e-21)
(0.128785 0.147681 0)
(0.656073 0.189922 0)
(0.532915 -0.250621 -4.68008e-21)
(0.573044 0.272878 -3.66046e-21)
(0.03932 0.0495055 0)
(0.622969 -0.236736 3.91966e-21)
(0.00934241 0.0249133 4.3216e-32)
(0.450391 -0.232848 3.55246e-21)
(0.424434 0.191188 -3.64127e-21)
(0.479254 -0.200753 -3.97204e-21)
(0.00706098 0.0200173 -4.31161e-32)
(0.404505 0.222835 3.23934e-21)
(0.486779 -0.16041 1.05397e-20)
(0.599518 0.190764 0)
(0.183581 0.144859 1.57608e-20)
(0.544852 -0.272948 2.11222e-21)
(0.0629283 0.0905488 0)
(0.628419 0.207392 0)
(0.598953 0.243067 6.21732e-21)
(0.55664 -0.167455 -5.93809e-21)
(0.12497 0.0932597 -8.22829e-21)
(0.539428 0.325213 -1.08182e-20)
(0.0470826 0.0141148 -4.9029e-21)
(0.689855 -0.164931 0)
(0.476336 0.186902 -2.7287e-21)
(0.226643 0.0847662 2.99298e-21)
(0.428587 -0.0302723 -2.75781e-21)
(0.546525 -0.259449 0)
(0.102856 0.126296 -5.8687e-21)
(0.651665 0.200027 -1.96442e-21)
(0.618008 0.116726 4.75318e-21)
(0.273497 0.244686 3.20061e-21)
(0.406769 -0.180526 0)
(0.462667 -0.189988 0)
(0.621139 0.159627 0)
(0.208922 0.189337 -5.73499e-21)
(0.00185552 0.00872131 0)
(0.278056 -0.127717 2.9467e-21)
(0.242973 0.115028 -2.72043e-21)
(0.535901 -0.249483 -3.82955e-21)
(0.016571 0.0341891 7.06193e-21)
(0.495983 0.23711 3.74847e-21)
(0.461423 0.176352 7.03526e-21)
(0.240779 0.0851633 -7.04043e-21)
(0.41352 -0.0165565 -3.17895e-21)
(0.568835 -0.252778 -9.84323e-21)
(0.636831 0.223499 3.95966e-21)
(0.079937 0.100475 0)
(0.0852927 0.113811 6.17173e-21)
(0.648601 0.200138 0)
(0.542831 -0.270321 7.38079e-21)
(0.600419 0.272211 4.33611e-21)
(0.0783506 0.0655067 -1.83747e-20)
(0.613777 -0.195752 -9.27987e-21)
(0.0856956 0.0139798 1.38784e-20)
(0.647839 -0.129014 -5.06822e-21)
(0.555094 0.322446 0)
(0.436667 0.33299 1.64365e-20)
(0.597288 0.0132255 -8.79964e-21)
(0.235852 -0.0980923 8.87144e-21)
(0.610997 -0.0703837 -1.54185e-21)
(0.520055 0.329356 -5.33669e-21)
(0.134922 -0.0180337 8.4302e-21)
(0.07245 0.00389452 1.24785e-20)
(0.54625 0.334512 0)
(0.676412 -0.135074 3.71519e-21)
(0.466094 0.263832 2.56079e-21)
(0.481642 0.274556 0)
(0.514997 -0.0122152 9.22043e-21)
(0.5297 -0.0260515 -9.85246e-21)
(0.196934 0.000900943 -5.65369e-21)
(0.182847 0.000767254 0)
(0.450269 0.264669 2.5128e-21)
(0.518097 0.00224034 0)
(0.210676 -0.0135242 -2.71645e-21)
(0.489855 0.327699 0)
(0.593413 -0.0355739 8.62717e-21)
(0.168609 -0.0400459 -1.92301e-21)
(0.48319 -0.204648 5.48625e-21)
(0.632616 0.167445 -4.41443e-21)
(0.189426 0.17828 1.26895e-20)
(0.565473 -0.238685 0)
(0.636522 0.223279 -1.19718e-21)
(0.0977901 0.111223 0)
(0.164053 0.153569 4.08257e-21)
(0.630067 0.188281 2.84674e-21)
(0.509472 -0.204186 3.58412e-21)
(0.514907 -0.203658 5.408e-22)
(0.0084551 0.0210992 -1.36111e-24)
(0.425518 0.240115 0)
(0.403304 0.214944 -4.89716e-21)
(0.411037 0.207211 0)
(0.251836 0.00281133 1.28581e-21)
(0.471247 0.0393913 -1.77192e-20)
(0.249072 0.0172967 -1.62677e-21)
(0.458717 0.0315116 1.12605e-20)
(0.470165 0.312302 0)
(0.453958 0.301646 1.66959e-21)
(0.206569 -0.047212 -2.3942e-23)
(0.57231 -0.0146114 -5.37474e-21)
(0.191806 -0.0417752 -1.40137e-20)
(0.560349 -0.00166246 1.13657e-20)
(0.463001 -0.257344 0)
(0.0167373 0.0367051 -1.27454e-20)
(0.484607 0.190504 0)
(0.573282 -0.246959 5.80971e-21)
(0.635458 0.227172 -1.20946e-21)
(0.083421 0.0984594 -3.70104e-21)
(0.395365 0.278531 3.08086e-21)
(0.26872 -0.082942 6.36454e-21)
(0.555479 0.0454577 -1.50641e-20)
(0.454449 -0.208705 -1.1929e-20)
(0.637825 0.141274 -1.14514e-20)
(0.224601 0.216048 0)
(0.0927058 0.00765667 -1.48406e-20)
(0.644128 -0.119316 5.39323e-21)
(0.550383 0.325266 0)
(0.576419 -0.256466 0)
(0.553937 0.249176 0)
(0.0283559 0.046963 0)
(0.576805 -0.25947 0)
(0.574581 0.243922 -6.52134e-21)
(0.0361805 0.0564216 0)
(0.514579 0.305934 5.07681e-21)
(0.577371 -0.0624835 -3.0944e-21)
(0.145643 -0.0023272 -3.95584e-21)
(0.340825 0.211595 1.43357e-21)
(0.308874 -0.0556352 0)
(0.510462 0.0882687 -4.86945e-21)
(0.597432 0.27591 -5.05239e-21)
(0.0697817 0.060942 -1.07376e-20)
(0.624446 -0.203155 1.34462e-20)
(0.490629 -0.175451 0)
(0.610464 0.188389 0)
(0.179809 0.153813 -1.35906e-20)
(0.0981054 0.0553952 -3.45597e-21)
(0.600279 -0.153789 -8.15567e-21)
(0.581137 0.281431 -1.31839e-20)
(0.441674 0.300983 -1.7007e-21)
(0.220279 -0.0587001 9.33914e-21)
(0.561129 0.00828105 -5.80995e-21)
(0.559209 0.128987 8.95624e-21)
(0.380814 -0.113432 -5.36254e-21)
(0.275157 0.19888 -1.13062e-20)
(0.378507 0.234433 -8.79742e-23)
(0.273801 -0.0472654 1.80957e-21)
(0.512948 0.0577634 5.97472e-21)
(0.0683307 0.068039 4.18978e-21)
(0.616327 -0.218395 -6.23888e-21)
(0.604666 0.266089 -5.67573e-21)
(0.562654 0.285531 2.41175e-21)
(0.587601 -0.123154 2.40719e-21)
(0.113577 0.0433775 0)
(0.377441 0.204685 5.31096e-21)
(0.273578 -0.00906453 -1.13397e-20)
(0.473477 0.0595242 9.56162e-21)
(0.542359 0.334903 -4.21587e-21)
(0.0624115 0.00458089 -5.56557e-21)
(0.687247 -0.14479 -2.7777e-23)
(0.44691 0.236636 3.10429e-21)
(0.484075 0.00105746 0)
(0.215311 0.0127509 0)
(0.491637 0.142471 1.2719e-20)
(0.372708 -0.0440733 -3.11174e-21)
(0.26952 0.142205 0)
(0.461586 -0.173693 0)
(0.609293 0.164911 -9.02559e-21)
(0.206905 0.178205 6.00428e-21)
(0.525383 0.306847 0)
(0.0307676 0.0226238 1.72304e-21)
(0.672154 -0.193625 -4.25352e-21)
(0.524444 0.315268 -4.41247e-21)
(0.0334895 0.0184002 -5.50423e-21)
(0.682563 -0.181818 4.09046e-21)
(0.0934735 0.0448177 -3.16131e-21)
(0.612066 -0.148219 4.83744e-21)
(0.575034 0.291363 1.20964e-20)
(0.573301 0.11817 4.20485e-21)
(0.378644 -0.12993 1.07614e-20)
(0.285562 0.216911 0)
(0.0235506 0.0204015 -1.57852e-21)
(0.660829 -0.196088 3.97801e-21)
(0.501739 0.30056 0)
(0.115641 0.0935954 0)
(0.566555 -0.182147 4.98083e-21)
(0.607115 0.242964 1.51245e-21)
(0.00709664 0.0206715 -6.35355e-21)
(0.383494 -0.218537 -4.02653e-21)
(0.37731 0.154737 0)
(0.342906 0.204563 3.66731e-21)
(0.431123 -0.166233 0)
(0.00416038 0.0142824 -6.36014e-21)
(0.0755355 0.012005 -1.0216e-23)
(0.66411 -0.139006 6.33357e-22)
(0.553201 0.327047 0)
(0.0545125 0.0659349 0)
(0.608728 -0.239312 0)
(0.602513 0.260174 -7.60874e-21)
(0.579135 0.297345 4.44681e-21)
(0.581651 0.293516 -3.59758e-21)
(0.0668787 0.0413663 6.07648e-21)
(0.644639 -0.178287 1.06782e-21)
(0.0750419 0.0451707 0)
(0.631857 -0.172045 0)
(0.61424 0.231601 -2.90984e-21)
(0.555738 -0.189538 -3.29493e-21)
(0.122769 0.105537 0)
(0.247314 0.237085 0)
(0.434746 -0.206943 0)
(0.63788 0.1275 0)
(0.411294 0.184669 -6.52854e-21)
(0.258073 0.0402027 1.54767e-20)
(0.432396 0.030458 -6.19787e-21)
(0.619614 0.206802 -8.26604e-21)
(0.524785 -0.191982 -1.21685e-21)
(0.148456 0.132272 -1.20541e-20)
(0.16245 0.144633 -7.8446e-21)
(0.62049 0.196657 1.14904e-20)
(0.510926 -0.191375 1.68866e-21)
(0.539458 0.34354 -4.72746e-21)
(0.0814346 -0.00675019 -5.97206e-21)
(0.676632 -0.119527 0)
(0.472959 0.321761 0)
(0.583589 -0.0176326 -2.56224e-21)
(0.187584 -0.048678 1.37356e-20)
(0.458489 0.287288 0)
(0.54521 -0.00433639 -1.16324e-20)
(0.202535 -0.0329158 -2.06517e-23)
(0.589492 0.21128 1.06396e-20)
(0.506147 -0.150494 -1.47307e-21)
(0.163729 0.119219 6.82743e-21)
(0.598703 0.205607 0)
(0.505143 -0.161547 -1.38504e-21)
(0.165618 0.128258 -6.28733e-21)
(0.3672 0.189366 0)
(0.284279 -0.000248511 1.78929e-20)
(0.460473 0.0671802 0)
(0.48276 0.284385 0)
(0.541157 -0.028685 6.5395e-21)
(0.178171 -0.0092216 -2.05769e-21)
(0.113374 0.139654 1.27151e-20)
(0.534229 -0.262864 1.05718e-20)
(0.659471 0.189973 0)
(0.584927 0.228871 1.43862e-22)
(0.0389301 0.0621099 -3.91001e-21)
(0.553991 -0.268547 -2.80414e-21)
(0.576834 0.212876 6.78415e-23)
(0.0368086 0.0614484 0)
(0.532352 -0.27206 8.05107e-21)
(0.417325 0.250352 -3.68526e-21)
(0.238515 -0.0249699 1.97429e-21)
(0.508821 0.0280261 9.0034e-23)
(0.547437 -0.257059 -1.28013e-22)
(0.0232608 0.0427626 -1.62001e-20)
(0.53324 0.235011 0)
(0.566229 0.295202 -1.03941e-20)
(0.101243 0.0382873 0)
(0.607039 -0.132375 0)
(0.0237683 0.0453894 6.42283e-21)
(0.513781 -0.26612 4.3276e-21)
(0.529264 0.211851 -7.02165e-21)
(0.432579 0.137873 -8.6996e-21)
(0.287 0.105541 -9.31227e-21)
(0.368455 0.0132267 -4.87515e-23)
(0.525545 0.228731 1.56519e-21)
(0.488049 -0.0736254 1.51447e-21)
(0.178596 0.071734 6.16804e-21)
(0.357581 -0.120971 -1.22833e-20)
(0.566972 0.106304 -1.4837e-20)
(0.305101 0.227938 0)
(0.0705046 0.0964572 0)
(0.552898 -0.268044 2.64759e-21)
(0.635041 0.211911 0)
(0.480099 -0.181224 0)
(0.614403 0.178383 0)
(0.189434 0.164849 0)
(0.0559706 0.0141199 0)
(0.547888 0.326112 3.97664e-21)
(0.683886 -0.157759 -3.70335e-21)
(0.540423 0.234309 0)
(0.500808 -0.0900525 -7.53468e-22)
(0.167409 0.0757402 1.61326e-23)
(0.404858 0.173601 6.30568e-21)
(0.268178 0.0475717 -1.32832e-20)
(0.421096 0.0357074 0)
(0.571617 -0.258684 9.31501e-21)
(0.627667 0.227997 -3.75885e-21)
(0.0686369 0.0899837 0)
(0.101199 0.0736165 7.25768e-21)
(0.587872 -0.175671 -3.1646e-22)
(0.596956 0.263002 -1.16658e-22)
(0.547492 0.294344 0)
(0.539167 0.290865 -4.46929e-21)
(0.0338843 0.0338033 -3.94078e-21)
(0.0296333 0.0337478 4.86976e-21)
(0.652678 -0.210778 2.61844e-21)
(0.644127 -0.217342 -2.15288e-21)
(0.544122 0.171504 0)
(0.425055 -0.0996452 -1.02771e-20)
(0.224924 0.141996 -7.44378e-21)
(0.468356 -0.14673 -1.47946e-20)
(0.588291 0.182607 0)
(0.194291 0.149036 8.25508e-21)
(0.471679 0.154875 7.17461e-21)
(0.385969 -0.0268258 -5.30196e-21)
(0.25596 0.114838 -1.14591e-20)
(0.560881 -0.2695 -6.1431e-21)
(0.606652 0.226593 -5.05475e-21)
(0.547397 -0.274163 2.92052e-21)
(0.0487557 0.0727084 4.14186e-21)
(0.613014 0.214184 4.73775e-21)
(0.0527061 0.0782607 0)
(0.567541 0.246807 0)
(0.534458 -0.124867 0)
(0.142579 0.0788606 -7.71917e-21)
(0.61781 0.237325 -4.99472e-21)
(0.608855 0.236205 1.25616e-20)
(0.582238 -0.256317 -4.03106e-21)
(0.578129 -0.261408 1.01238e-20)
(0.0593683 0.0792356 -1.0882e-20)
(0.0513127 0.0721545 -1.71234e-26)
(0.584207 0.173515 0)
(0.451009 -0.143383 1.36673e-20)
(0.2117 0.16384 -1.07004e-20)
(0.518792 0.191324 -6.78438e-21)
(0.454163 -0.0774965 9.12284e-21)
(0.198485 0.099208 0)
(0.541529 0.318065 0)
(0.0420718 0.0202424 -7.58135e-22)
(0.682316 -0.178398 -3.92842e-21)
(0.541401 0.183438 -4.99185e-21)
(0.438959 -0.0944324 0)
(0.212394 0.128277 1.2361e-20)
(0.488655 0.16681 -2.90731e-21)
(0.403401 -0.0444232 6.21555e-21)
(0.241234 0.113005 -6.72004e-21)
(0.540037 0.301958 0)
(0.035058 0.0282511 0)
(0.666659 -0.200958 5.42215e-21)
(0.53808 0.247478 0)
(0.519561 -0.0884633 -1.6049e-21)
(0.155173 0.0611977 7.65984e-21)
(0.395676 -0.184713 0)
(0.622603 0.10724 0)
(0.288339 0.261852 4.13186e-22)
(0.437956 0.310326 4.18678e-22)
(0.57225 0.0125106 0)
(0.225613 -0.0720145 -7.25546e-21)
(0.495738 -0.239182 -6.42252e-21)
(0.175246 0.189156 0)
(0.657101 0.162012 0)
(0.00391625 0.0139833 1.52835e-20)
(0.363958 -0.167867 -4.12611e-21)
(0.320222 0.154878 3.80894e-21)
(0.54169 0.207785 0)
(0.467062 -0.091528 -5.60549e-21)
(0.188484 0.101369 0)
(0.563009 0.308615 -7.41792e-21)
(0.0515293 0.0312345 -2.05606e-20)
(0.665412 -0.181538 7.99772e-21)
(0.272312 -0.119578 0)
(0.59712 0.0374017 5.76719e-21)
(0.403242 0.320031 0)
(0.415255 0.253597 0)
(0.00864505 0.0183583 3.82061e-21)
(0.545108 -0.192288 0)
(0.312144 0.18247 -7.12363e-21)
(0.317397 0.197859 7.29429e-21)
(0.329973 -0.0494129 0)
(0.499053 0.106733 -6.13271e-21)
(0.329574 -0.0645009 1.15599e-20)
(0.514915 0.101629 4.93688e-21)
(0.471742 0.141566 -6.75137e-21)
(0.368575 -0.0241112 -7.03409e-21)
(0.273192 0.129987 0)
(0.351164 0.203824 -6.27336e-21)
(0.33248 0.189371 0)
(0.296198 -0.0344122 0)
(0.49149 0.0789427 0)
(0.309811 -0.0327634 6.47002e-21)
(0.486271 0.0919597 -3.6351e-23)
(0.529673 0.203858 -4.30978e-22)
(0.434342 -0.0702812 3.97039e-21)
(0.215092 0.110417 8.30809e-21)
(0.523657 0.182654 1.1673e-20)
(0.429133 -0.0761186 0)
(0.221346 0.121746 0)
(0.0444753 0.0714844 0)
(0.526592 -0.278368 0)
(0.597362 0.204927 -5.13543e-21)
(0.435203 0.252 1.01423e-20)
(0.506004 0.014873 0)
(0.223662 -0.0123295 -3.66121e-21)
(0.614109 0.24862 1.01122e-20)
(0.595864 -0.24531 -4.65803e-21)
(0.061278 0.0761288 6.20914e-21)
(0.589396 0.225632 0)
(0.598074 0.23061 -5.98921e-21)
(0.525286 -0.151165 1.83544e-21)
(0.539339 -0.163135 -5.85089e-21)
(0.147356 0.105762 8.52625e-21)
(0.137209 0.103926 7.94516e-21)
(0.434206 0.237722 0)
(0.489236 0.0134988 0)
(0.225878 0.00149671 -1.71984e-21)
(0.492394 0.306017 -4.06288e-21)
(0.568759 -0.0369362 0)
(0.169201 -0.0202878 -4.58201e-21)
(0.568187 0.222954 3.05481e-21)
(0.503942 -0.12494 0)
(0.161299 0.101359 -7.78022e-21)
(0.375288 0.146714 -6.86648e-21)
(0.405019 0.0604448 -3.33979e-21)
(0.29543 0.0493194 -3.56664e-21)
(0.609063 0.213674 0)
(0.524689 -0.17709 0)
(0.149146 0.123893 1.28141e-20)
(0.397499 0.189945 0)
(0.262862 0.0239837 -1.96396e-21)
(0.444365 0.0422537 0)
(0.576822 0.187063 6.76907e-21)
(0.463244 -0.134921 7.60228e-21)
(0.198028 0.14081 1.06856e-21)
(0.496104 0.293249 -4.10413e-21)
(0.555349 -0.0419983 -7.45777e-21)
(0.165985 -0.00742185 0)
(0.380811 0.161801 6.80634e-21)
(0.369974 0.165627 3.05254e-21)
(0.418958 0.0543419 -3.2673e-21)
(0.284245 0.0395595 7.04688e-21)
(0.431386 0.0627295 0)
(0.287678 0.0256977 1.25878e-20)
(0.349137 0.178934 3.10613e-21)
(0.297605 -0.00743194 -8.3491e-21)
(0.335487 0.181276 -2.00007e-21)
(0.461407 0.0796339 0)
(0.312107 -0.0233749 -4.11004e-21)
(0.476837 0.0921565 7.01705e-21)
(0.46515 0.250996 -3.67727e-21)
(0.482506 0.250619 0)
(0.499152 -0.0138545 -6.83226e-21)
(0.500016 -0.0286877 5.3306e-21)
(0.199159 0.0137579 1.6343e-20)
(0.189153 0.0264711 -1.35923e-20)
(0.087986 0.0244529 0)
(0.633913 -0.134402 2.97052e-21)
(0.561522 0.311115 6.28113e-21)
(0.304731 0.264957 -1.38984e-20)
(0.609936 0.0994651 -6.58239e-21)
(0.376836 -0.168409 1.30593e-20)
(0.0792601 0.0292125 6.91909e-21)
(0.0812962 0.0386945 0)
(0.640471 -0.149485 -2.56752e-21)
(0.629246 -0.157491 -4.41923e-21)
(0.56696 0.309562 -1.60958e-20)
(0.575137 0.299102 8.38129e-21)
(0.364847 0.280104 0)
(0.304653 -0.113072 6.96554e-21)
(0.573928 0.0658177 -1.43782e-21)
(0.37184 0.120441 -1.44408e-20)
(0.317789 0.0738827 0)
(0.375412 0.0665103 1.14382e-20)
(0.607771 0.224891 2.88387e-21)
(0.53974 -0.177293 6.60492e-21)
(0.136767 0.112174 0)
(0.414162 0.226785 0)
(0.241061 -0.00546089 1.63943e-21)
(0.483242 0.0302029 5.74475e-21)
(0.505697 0.29383 0)
(0.558825 -0.0516892 0)
(0.15711 0.000507674 1.0956e-21)
(0.548054 0.318478 0)
(0.551894 0.308702 0)
(0.62596 -0.109929 -1.57223e-21)
(0.103903 0.0108576 8.4247e-21)
(0.613623 -0.11209 4.28736e-21)
(0.106503 0.0203531 -1.1394e-20)
(0.579061 0.24371 -5.79592e-21)
(0.541484 -0.13884 -6.1336e-21)
(0.136153 0.0854656 -3.71196e-21)
(0.455826 0.264073 -5.62807e-21)
(0.578066 -0.206379 0)
(0.0130206 0.0223829 4.67617e-21)
(0.286618 -0.121793 0)
(0.590879 0.0480646 -4.70051e-21)
(0.388782 0.306858 0)
(0.418809 0.320819 -4.24341e-21)
(0.413181 0.308799 4.5622e-21)
(0.253614 -0.10259 4.54038e-21)
(0.590322 0.027315 0)
(0.256973 -0.0949602 0)
(0.579147 0.0315114 0)
(0.627143 0.178961 1.00744e-20)
(0.492968 -0.199228 -1.24643e-20)
(0.179419 0.164681 -5.84736e-22)
(0.48091 0.304779 8.34422e-21)
(0.564486 -0.0257164 0)