/*--------------------------------*- C++ -*----------------------------------*\
  =========                 |
  \\      /  F ield         | OpenFOAM: The Open Source CFD Toolbox
   \\    /   O peration     | Website:  https://openfoam.org
    \\  /    A nd           | Version:  6
     \\/     M anipulation  |
\*---------------------------------------------------------------------------*/
FoamFile
{
    version     2.0;
    format      ascii;
    class       volVectorField;
    location    "0";
    object      U;
}
// * * * * * * * * * * * * * * * * * * * * * * * * * * * * * * * * * * * * * //

dimensions      [0 1 -1 0 0 0 0];

internalField   nonuniform List<vector> 
13046
(
(0.65152 0.307892 0)
(0.544778 0.0303762 5.33947e-21)
(0.276547 -0.00375461 1.20318e-20)
(0.634467 0.235666 0)
(0.33119 0.0737858 1.08082e-20)
(0.462015 0.00572185 0)
(0.676765 0.25818 -1.54684e-21)
(0.46628 -0.0196115 -2.74549e-21)
(0.309931 0.0770921 1.19419e-20)
(0.951571 0.469985 -4.45515e-21)
(0.699296 -0.215575 0)
(0.039749 -0.0655916 -8.0197e-21)
(0.757988 0.351915 9.67358e-21)
(0.542554 -0.0241518 8.50086e-21)
(0.230054 -0.00164587 -6.63292e-21)
(0.932717 0.535529 -2.26304e-21)
(0.0660539 -0.094789 -1.28622e-20)
(0.738597 -0.144057 -4.40553e-21)
(0.445758 0.170446 0)
(0.384323 -0.000540074 5.83731e-21)
(0.582249 0.151941 -1.62774e-20)
(0.939989 0.526371 2.49178e-21)
(0.059292 -0.0874117 2.57595e-20)
(0.728455 -0.159095 -1.45592e-21)
(0.592415 0.23856 -6.57017e-21)
(0.505306 0.0442005 9.83084e-21)
(0.325136 0.0353063 0)
(0.76119 0.377827 -1.84704e-22)
(0.561579 -0.021859 -2.48294e-21)
(0.215595 -0.0206758 2.29352e-20)
(0.655513 0.32637 0)
(0.567773 0.0417765 0)
(0.264942 -0.0255654 -1.22471e-20)
(0.552357 0.208163 2.30271e-20)
(0.35001 0.0455605 -4.04441e-21)
(0.497848 0.0629908 -1.52549e-20)
(0.542867 0.187985 8.48038e-23)
(0.373499 0.0692892 0)
(0.476569 0.0614641 0)
(0.559934 0.318431 -8.47025e-21)
(0.305378 -0.0963339 -1.1155e-20)
(0.67475 0.117073 7.98529e-21)
(0.493501 0.128648 -5.33068e-21)
(0.438109 0.110438 5.44561e-21)
(0.442369 0.0750188 0)
(0.52469 0.140489 -3.35381e-21)
(0.429769 0.124525 0)
(0.42222 0.0507267 1.76408e-21)
(0.671922 0.306159 0)
(0.526571 0.0092485 3.84828e-22)
(0.265943 0.00923716 -5.72395e-24)
(0.363675 -0.174213 -1.4036e-20)
(0.48456 0.325573 0)
(0.812462 0.178653 9.65361e-21)
(0.388873 -0.190171 1.99874e-20)
(0.850715 0.199931 1.0257e-20)
(0.444647 0.303561 -1.33112e-20)
(0.731843 -0.0151736 1.94378e-21)
(0.857998 0.567622 0)
(0.166139 -0.143461 -1.06242e-20)
(0.904319 0.358714 4.56367e-21)
(0.528849 -0.137073 -5.09777e-21)
(0.206719 0.0688252 2.77378e-20)
(0.0843006 -0.0460149 -1.46575e-20)
(0.662751 -0.165159 3.23424e-21)
(0.977853 0.477254 7.17332e-21)
(0.828033 0.567142 0)
(0.743453 0.0116869 -9.03753e-21)
(0.189999 -0.160821 -3.10993e-21)
(0.804245 0.549139 3.58985e-21)
(0.736776 0.0230282 1.22476e-20)
(0.201034 -0.158474 4.23026e-21)
(0.745557 -0.0247926 2.01888e-23)
(0.875569 0.581242 -1.42062e-22)
(0.154483 -0.148416 4.03833e-24)
(0.465943 0.194036 0)
(0.365809 -0.0186405 -6.3604e-21)
(0.598139 0.140337 1.16069e-20)
(0.122705 -0.12845 -1.17785e-20)
(0.904002 0.57727 1.06196e-20)
(0.737509 -0.0657274 4.30247e-21)
(0.620998 0.251346 -3.42569e-21)
(0.492637 0.026791 3.52018e-21)
(0.313295 0.045736 0)
(0.0728878 -0.0543685 1.31605e-20)
(0.676995 -0.175126 0)
(0.980219 0.483842 -4.2544e-21)
(1.01895 0.410011 7.4715e-21)
(0.103997 0.0152798 0)
(0.610294 -0.217365 2.51785e-21)
(0.135447 0.0789618 0)
(1.06343 0.340914 0)
(0.569053 -0.280388 -3.38804e-22)
(0.893439 0.44686 9.14395e-21)
(0.920403 0.450058 -1.27033e-20)
(0.609114 -0.0888994 -9.88527e-21)
(0.613015 -0.111192 4.64224e-21)
(0.150767 -0.0341164 6.03675e-21)
(0.137899 -0.0258961 -1.5468e-20)
(0.119699 0.0346289 7.3614e-22)
(1.02353 0.393557 -7.31066e-21)
(0.593837 -0.227053 0)
(0.557561 0.166078 3.66877e-23)
(0.405738 0.11712 0)
(0.425273 0.0322465 0)
(0.390004 0.23527 -2.3963e-20)
(0.805519 0.224667 4.69439e-21)
(0.40096 -0.142495 0)
(0.490524 0.306108 -3.64787e-21)
(0.346732 -0.137998 0)
(0.755454 0.164236 1.81482e-20)
(0.856387 0.433285 0)
(0.0155891 -0.0719217 1.09409e-20)
(0.677701 -0.251559 3.59537e-21)
(0.720919 0.32854 -6.77034e-21)
(0.529088 -0.0108328 -3.59445e-21)
(0.248021 0.0104859 -1.19645e-20)
(0.910817 0.495126 -5.29937e-21)
(0.889353 0.472996 4.94551e-21)
(0.654322 -0.0863219 -2.74725e-21)
(0.129935 -0.068499 -6.93941e-21)
(0.63155 -0.0760477 2.6748e-21)
(0.14423 -0.0570172 6.48345e-21)
(0.931147 0.471851 1.11474e-20)
(0.706199 -0.220723 5.04056e-21)
(0.0333277 -0.0713127 3.59398e-21)
(0.833739 0.423323 0)
(0.590066 -0.0555326 6.53951e-21)
(0.178135 -0.0357379 -3.51818e-20)
(0.59679 0.338659 0)
(0.285886 -0.0893164 1.12268e-20)
(0.656179 0.0945409 -4.60167e-22)
(0.157822 0.0983223 0)
(1.05598 0.3354 0)
(0.558319 -0.269018 0)
(0.966419 0.444123 0)
(0.618598 -0.153511 1.2934e-20)
(0.121241 -0.0115766 1.56292e-20)
(0.690201 0.348835 0)
(0.578926 0.026971 0)
(0.247281 -0.0387433 0)
(0.786841 0.287476 0)
(0.462499 -0.0901237 0)
(0.292578 0.110637 0)
(0.467847 0.29699 3.37533e-21)
(0.364925 -0.150565 0)
(0.784517 0.182233 -9.76477e-21)
(0.394785 0.222717 2.3233e-20)
(0.785063 0.222234 1.01407e-20)
(0.400654 -0.128193 -1.21655e-20)
(0.923181 0.375543 -1.05965e-20)
(0.54823 -0.143141 0)
(0.183811 0.0464925 -3.60936e-20)
(0.371966 0.166687 0)
(0.721696 0.224047 -2.21109e-20)
(0.409357 -0.076696 -3.11421e-21)
(0.439879 -0.201283 -5.59351e-21)
(0.906362 0.249855 -1.07349e-20)
(0.465357 -0.206717 0)
(0.933544 0.2751 -6.13193e-21)
(0.35518 0.240959 -1.15927e-20)
(0.311319 0.20489 1.11317e-20)
(0.807821 0.262156 -1.39496e-21)
(0.438934 -0.11965 -6.40742e-21)
(0.322382 0.153229 6.7954e-21)
(0.97118 0.456889 4.57114e-21)
(0.0416576 -0.0560799 -4.16224e-21)
(0.6814 -0.228389 6.27701e-21)
(0.885015 0.449894 3.18767e-21)
(0.0212978 -0.073425 1.64402e-21)
(0.696467 -0.238644 0)
(0.968253 0.45895 -1.77384e-22)
(0.633591 -0.152648 0)
(0.108789 -0.0261407 -1.88825e-20)
(0.648997 0.409236 0)
(0.703843 0.0870409 -2.56927e-21)
(0.269905 -0.130729 -6.60073e-21)
(0.7842 0.246396 -9.20504e-21)
(0.349084 0.177022 0)
(0.422365 -0.110909 0)
(0.0522123 -0.0313585 0)
(0.651865 -0.241741 0)
(1.00508 0.431455 -3.82138e-21)
(0.618484 0.381347 0)
(0.695193 0.100008 5.55916e-21)
(0.283089 -0.118902 -1.70499e-21)
(0.370518 0.181377 0)
(0.737067 0.222922 0)
(0.402625 -0.0911454 0)
(0.755524 0.268423 -4.56849e-21)
(0.451753 -0.0766245 0)
(0.304842 0.109976 0)
(0.540278 -0.056119 4.41166e-23)
(0.21453 0.0116493 8.12605e-21)
(0.812272 0.401053 -1.40478e-20)
(0.574209 -0.046275 0)
(0.193517 -0.0231162 3.6338e-20)
(1.00623 0.444305 8.47462e-21)
(0.079867 -0.0222635 -1.18952e-20)
(0.646126 -0.206219 1.22258e-20)
(0.151201 0.0787384 -1.08024e-20)
(1.03522 0.358217 -4.59907e-21)
(0.567596 -0.244715 -1.2614e-20)
(1.04828 0.375101 1.25442e-20)
(0.594666 -0.254544 0)
(0.108105 0.0413525 1.06065e-20)
(0.364558 -0.21075 5.76748e-21)
(0.853104 0.17034 -4.32475e-21)
(0.518061 0.384897 -1.12596e-20)
(0.747418 0.304667 8.93468e-21)
(0.892909 0.587088 -5.47645e-21)
(0.132941 -0.138244 7.25659e-21)
(0.749933 -0.0550159 -2.01621e-23)
(0.607414 -0.260318 0)
(1.04117 0.387796 3.60091e-21)
(0.0880788 0.0186959 0)
(0.569245 0.190632 1.69741e-20)
(0.375251 0.0909804 0)
(0.449731 0.0349968 -5.79886e-21)
(0.740483 0.381049 0)
(0.577197 -0.00242412 3.57164e-22)
(0.225878 -0.0329295 -6.75764e-21)
(0.162709 0.0962002 -8.25189e-21)
(1.04337 0.345922 0)
(0.557636 -0.256988 1.4529e-20)
(0.779157 0.325223 0)
(0.524696 -0.0640845 -1.54226e-20)
(0.226441 0.0290895 0)
(0.0264933 -0.0604037 0)
(0.670779 -0.252955 -5.41719e-21)
(0.940846 0.437715 0)
(0.478617 0.354172 1.21776e-20)
(0.875662 0.185241 0)
(0.382752 -0.217934 0)
(1.03928 0.376906 -1.10057e-20)
(0.586934 -0.24265 0)
(0.120832 0.0472114 2.92466e-23)
(0.870032 0.270583 -1.20483e-20)
(0.449273 -0.163234 -4.87982e-21)
(0.312147 0.178947 1.55914e-20)
(0.828356 0.439234 0)
(0.604284 -0.0444202 -6.1049e-21)
(0.177119 -0.0502552 -3.66549e-21)
(0.514735 -0.266302 1.8063e-20)
(1.0324 0.294519 8.42638e-21)
(0.243553 0.179057 -6.47691e-21)
(0.964882 0.278058 0)
(0.478218 -0.22591 7.09668e-21)
(0.299484 0.205038 2.32666e-22)
(0.0225471 -0.0572222 8.40128e-21)
(0.65364 -0.265365 0)
(0.939816 0.421072 3.56127e-21)
(0.552947 0.354721 -1.57924e-20)
(0.320278 -0.142131 8.23173e-21)
(0.743794 0.136656 8.02366e-22)
(0.790963 0.453089 -3.36334e-21)
(0.0183821 -0.0800332 9.08683e-22)
(0.710492 -0.214648 0)
(0.411051 0.143555 -3.55168e-21)
(0.595447 0.171228 1.31774e-20)
(0.402019 -0.00028101 -1.74591e-20)
(0.871006 0.305112 -4.78317e-21)
(0.85223 0.278547 -2.55834e-23)
(0.477787 -0.142696 1.18933e-20)
(0.453604 -0.145975 1.16968e-20)
(0.303062 0.159581 -1.23933e-20)
(0.263983 0.124379 6.41596e-21)
(0.107659 -0.121887 1.54172e-20)
(0.912558 0.573029 -5.65825e-21)
(0.744445 -0.0792745 0)
(0.798806 0.432821 0)
(0.61164 -0.0196175 0)
(0.193788 -0.0594714 1.45926e-20)
(0.989271 0.296888 2.22093e-21)
(0.498829 -0.236552 0)
(0.265598 0.179376 0)
(0.940584 0.473015 -4.72905e-21)
(0.638044 -0.119136 0)
(0.119312 -0.0434205 -6.88827e-21)
(0.483322 0.138169 -3.61874e-21)
(0.467096 0.0909352 -5.2556e-21)
(0.424427 0.0897789 1.80973e-21)
(0.917157 0.287697 7.83019e-21)
(0.472614 -0.187667 0)
(0.28817 0.174239 1.07712e-20)
(0.80026 0.450365 0)
(0.629956 -0.014364 -7.61123e-21)
(0.189839 -0.0750337 9.42245e-21)
(0.791361 0.349428 -1.44416e-20)
(0.822446 0.367147 1.16246e-20)
(0.559123 0.369319 1.24843e-20)
(0.321013 -0.155494 -2.38844e-20)
(0.760294 0.138964 1.77549e-20)
(0.937679 0.309172 7.98988e-21)
(0.492683 -0.191281 -1.03803e-20)
(0.252692 0.143542 -9.82472e-21)
(0.956853 0.473489 1.71421e-20)
(0.108957 -0.0391475 2.42874e-20)
(0.643391 -0.13554 6.43699e-21)
(0.495082 0.290521 5.4908e-21)
(0.342047 -0.12367 0)
(0.73199 0.162383 -6.1479e-21)
(0.371042 0.265963 1.25057e-20)
(0.918751 0.240431 6.22535e-21)
(0.435832 -0.21797 0)
(0.867632 0.503332 1.72786e-21)
(0.664745 -0.0441691 6.70423e-21)
(0.151976 -0.0919508 -4.31877e-21)
(0.519518 0.354383 -1.02978e-21)
(0.349293 -0.174793 0)
(0.802749 0.165889 -1.33243e-20)
(0.888584 0.518516 0)
(0.905587 0.515424 0)
(0.677067 -0.0569045 4.36431e-21)
(0.140733 -0.0942519 1.12304e-20)
(0.67283 -0.0765941 -6.17148e-21)
(0.129252 -0.0834966 -1.19346e-20)
(0.0588702 -0.0364413 9.23647e-21)
(0.660217 -0.225093 0)
(1.00158 0.44652 5.34739e-21)
(0.863165 0.467395 0)
(0.626886 -0.0586269 3.09303e-21)
(0.156794 -0.0622527 -3.81533e-21)
(0.62439 -0.253927 -1.0351e-20)
(0.00703048 -0.0686268 -1.34985e-20)
(0.745357 0.397307 -7.82697e-21)
(0.670754 0.194641 1.78784e-20)
(0.40237 0.171854 0)
(0.3921 -0.0515627 6.56892e-21)
(0.869465 0.347887 -1.0941e-20)
(0.51611 -0.116766 0)
(0.218585 0.0647158 -2.11888e-20)
(0.0910974 -0.0217289 7.55299e-21)
(0.998117 0.449073 -1.55447e-20)
(0.638998 -0.188544 -9.17709e-21)
(0.395495 -0.20322 7.50595e-21)
(0.870395 0.202444 0)
(0.43836 0.316977 1.50814e-20)
(0.52983 -0.2639 2.21038e-20)
(1.03845 0.312694 5.11962e-21)
(0.210732 0.14622 0)
(0.501653 -0.0467461 7.75703e-21)
(0.254704 0.0468233 0)
(0.879548 0.391728 -1.19014e-20)
(0.55454 -0.101065 -5.62149e-21)
(0.182649 0.013687 -6.50236e-21)
(0.486251 -0.0601621 -2.76268e-22)
(0.264954 0.0648475 -6.57778e-23)
(0.938293 0.537983 1.19474e-20)
(0.0760738 -0.0953233 -1.81038e-20)
(0.729409 -0.130616 6.47186e-21)
(0.354508 -0.224076 -7.51123e-21)
(0.858014 0.159073 -1.38442e-21)
(0.548883 0.415821 0)
(0.903641 0.405089 1.21296e-20)
(0.570177 -0.11403 6.8641e-21)
(0.168487 0.0124012 1.58761e-20)
(0.802578 0.283479 0)
(0.454076 -0.107606 4.68721e-21)
(0.297662 0.126969 0)
(0.805706 0.20716 6.06154e-21)
(0.385597 -0.154904 0)
(0.425807 0.262966 0)
(0.65772 0.281886 4.75424e-21)
(0.50697 0.0122583 8.50528e-21)
(0.28731 0.0294745 -3.42018e-23)
(0.404822 0.294272 -1.55346e-20)
(0.903107 0.2232 -1.5106e-20)
(0.419938 -0.215736 -2.0338e-20)
(1.02261 0.420707 6.60175e-21)
(0.62743 -0.224535 -1.04122e-20)
(0.0851152 -0.00415931 -1.78372e-22)
(0.53767 -0.251298 -1.49416e-20)
(1.03067 0.326512 -5.19056e-21)
(0.196465 0.127427 -8.22314e-21)
(0.746727 0.520128 1.11826e-20)
(0.237237 -0.168377 -6.31654e-21)
(0.748391 0.0564015 0)
(0.903305 0.552577 -3.07797e-21)
(0.889791 0.543826 2.82926e-21)
(0.701629 -0.0507929 1.38906e-21)
(0.713065 -0.0610986 -6.0587e-21)
(0.128399 -0.11418 4.13709e-21)
(0.139497 -0.113607 3.63593e-21)
(0.0104272 -0.0721318 1.37049e-20)
(0.653751 -0.24209 1.13969e-20)
(0.763872 0.410129 -2.15204e-21)
(0.812328 0.467223 2.20303e-22)
(0.0227916 -0.0836366 0)
(0.726628 -0.20728 0)
(0.901838 0.31989 1.77142e-20)
(0.497266 -0.15502 2.67902e-21)
(0.248584 0.116922 0)
(0.0693021 -0.0346121 2.29055e-20)
(1.00122 0.451966 -6.69917e-21)
(0.658996 -0.207926 0)
(0.817112 0.522975 -1.56176e-20)
(0.842694 0.528545 1.16917e-20)
(0.701138 0.000686489 -7.14682e-21)
(0.695705 -0.0160557 -2.74473e-21)
(0.18775 -0.130019 7.17797e-21)
(0.170778 -0.120779 3.6019e-21)
(0.0661419 0.00588101 0)
(0.600311 -0.281449 0)
(1.03978 0.368486 -1.93568e-21)
(0.735333 0.441316 3.94924e-21)
(0.0164735 -0.0784764 -8.56109e-21)
(0.701521 -0.207454 0)
(0.536017 0.117356 5.40382e-23)
(0.47709 0.173601 -7.73017e-21)
(0.378088 0.0263785 -3.88612e-21)
(0.807137 0.432409 6.76563e-21)
(0.682893 -0.240608 -5.26054e-21)
(0.0141187 -0.0747421 -1.70081e-20)
(0.696566 0.426376 -1.34768e-20)
(0.67817 0.0586002 1.19328e-20)
(0.244278 -0.116001 6.85925e-24)
(1.01344 0.422279 -9.66906e-23)
(0.642105 -0.246362 -1.4983e-20)
(0.0610431 -0.0212571 4.68913e-21)
(0.546873 -0.273578 -3.14605e-22)
(0.000445129 -0.0608799 1.54834e-20)
(0.714062 0.327046 2.91693e-21)
(0.526774 0.286076 7.3281e-21)
(0.321385 -0.081118 4.75814e-22)
(0.664342 0.131047 -1.95434e-20)
(0.631486 0.197443 0)
(0.41454 -0.0157062 1.93456e-20)
(0.382504 0.133443 -9.9518e-21)
(0.917947 0.485769 -1.12521e-20)
(0.0347571 -0.0771 -1.07198e-20)
(0.718896 -0.208836 -2.87051e-24)
(0.657603 0.208277 0)
(0.409838 -0.0322067 6.81398e-21)
(0.37425 0.144536 1.40559e-20)
(0.517422 0.117164 -7.89196e-21)
(0.468519 0.155634 8.16125e-21)
(0.395526 0.0454008 -2.04648e-21)
(0.45781 0.351615 7.4705e-21)
(0.910335 0.198771 5.37239e-21)
(0.403228 -0.237924 -1.12205e-20)
(0.621164 0.154111 0)
(0.365056 -0.0329862 0)
(0.450757 0.205171 -1.15492e-21)
(0.658666 0.182437 -9.57975e-21)
(0.379321 -0.0470972 -5.26753e-21)
(0.42993 0.195502 -1.6429e-22)
(0.715143 0.502509 -1.70096e-20)
(0.760052 0.0713972 9.15993e-21)
(0.256147 -0.177996 1.25431e-20)
(0.0530679 -0.0714039 -1.61964e-20)
(0.0500137 -0.0657038 1.64221e-20)
(0.711074 -0.186191 -4.39907e-21)
(0.699746 -0.199403 -3.06272e-21)
(0.956519 0.499183 -9.32909e-21)
(0.964513 0.488829 1.40492e-20)
(1.02799 0.414663 -8.16353e-21)
(0.629018 -0.235917 9.32917e-21)
(0.077102 -0.0029104 0)
(0.22748 -0.178039 -8.12933e-21)
(0.769588 0.54816 -3.45841e-21)
(0.759459 0.0480641 0)
(0.577464 0.356312 0)
(0.302902 -0.125995 7.49674e-21)
(0.714097 0.119068 -6.10728e-21)
(0.976288 0.258527 0)
(0.468169 -0.244462 -7.34133e-21)
(0.328297 0.240602 -2.40757e-22)
(0.575573 -0.293493 -5.2583e-21)
(0.00635416 -0.0573704 0)
(0.853081 0.345397 7.81209e-21)
(0.115155 0.0574251 0)
(1.05894 0.355007 0)
(0.580266 -0.276375 -6.31594e-21)
(0.915565 0.450153 -3.74579e-21)
(0.0253827 -0.0683156 0)
(0.691249 -0.240466 5.31607e-21)
(-0.000106982 -0.0577547 5.74714e-32)
(0.52107 -0.261201 4.82953e-21)
(0.654321 0.311376 -2.92706e-21)
(0.558424 -0.223573 -5.4035e-21)
(0.00454267 -0.0599478 -5.73337e-32)
(0.627156 0.355157 2.61146e-21)
(0.53792 -0.183333 1.42363e-20)
(0.962896 0.355046 0)
(0.198221 0.0858121 2.11339e-20)
(0.598211 -0.291693 2.84932e-21)
(0.0340838 -0.0273329 0)
(0.99462 0.363251 0)
(0.981878 0.435124 7.60679e-21)
(0.613275 -0.171076 -8.02925e-21)
(0.119241 -0.00136197 -1.10406e-20)
(0.891954 0.538375 -1.1954e-20)
(0.0549401 -0.103607 -6.56077e-21)
(0.76864 -0.145579 0)
(0.72228 0.30877 -3.64151e-21)
(0.263308 0.0385408 4.05531e-21)
(0.504833 -0.0280602 -3.73893e-21)
(0.595496 -0.280525 0)
(0.0805347 0.0218689 -7.78214e-21)
(1.04802 0.364797 -2.21608e-21)
(0.957058 0.246105 6.0959e-21)
(0.356383 0.265193 4.27437e-21)
(0.453106 -0.238802 0)
(0.510116 -0.228739 0)
(0.988997 0.311738 0)
(0.239098 0.154725 -7.68171e-21)
(0.000274216 -0.0324714 0)
(0.331779 -0.150041 4.02004e-21)
(0.373356 0.185753 -1.87813e-21)
(0.609871 -0.270487 -5.19633e-21)
(0.00514135 -0.0668999 9.37417e-21)
(0.768613 0.383278 3.39891e-21)
(0.688685 0.284762 9.39972e-21)
(0.283673 0.0468476 -9.55635e-21)
(0.492855 -0.014034 -4.31802e-21)
(0.621457 -0.266865 -1.32906e-20)
(1.02495 0.395932 4.14406e-21)
(0.0552152 -0.012911 0)
(0.058235 0.00172843 8.15973e-21)
(1.03628 0.360575 0)
(0.592495 -0.291174 9.95551e-21)
(0.988892 0.473967 4.88758e-21)
(0.0661987 -0.048039 -2.45736e-20)
(0.673653 -0.191908 -1.25476e-20)
(0.0953743 -0.101921 1.86119e-20)
(0.723922 -0.102749 -6.82646e-21)
(0.930252 0.550347 0)
(0.693408 0.509043 2.15037e-20)
(0.787783 0.0865571 -1.16701e-20)
(0.276713 -0.196648 1.19564e-20)
(0.710984 -0.0306031 -2.0705e-21)
(0.866241 0.552469 -6.72718e-21)
(0.157532 -0.128049 1.13454e-20)
(0.0849352 -0.114676 1.67345e-20)
(0.916277 0.565192 0)
(0.755479 -0.107025 5.00879e-21)
(0.73132 0.418154 3.38893e-21)
(0.766004 0.442977 0)
(0.633552 0.0276458 1.24348e-20)
(0.641919 0.0121368 -1.32929e-20)
(0.22399 -0.08162 -7.65234e-21)
(0.207247 -0.0874626 0)
(0.698789 0.410562 3.32089e-21)
(0.651453 0.049173 0)
(0.24115 -0.0951626 -3.6748e-21)
(0.803374 0.534807 0)
(0.719051 0.0140001 1.15444e-20)
(0.198294 -0.1447 -2.59034e-21)
(0.530121 -0.238953 7.40465e-21)
(1.01503 0.325004 -5.41513e-21)
(0.206705 0.127906 1.69118e-20)
(0.616899 -0.253237 0)
(1.03229 0.401645 -1.3155e-21)
(0.0772158 0.00578361 0)
(0.16753 0.0841735 5.46975e-21)
(1.01852 0.355676 3.37695e-21)
(0.557819 -0.22977 4.83785e-21)
(0.596698 -0.22389 7.39473e-22)
(0.00675915 -0.0646798 -1.83974e-24)
(0.661083 0.379711 0)
(0.591236 0.310891 -6.60353e-21)
(0.602678 0.303621 0)
(0.290483 -0.055688 1.7452e-21)
(0.613763 0.0877294 -2.39433e-20)
(0.288105 -0.0376977 -2.20835e-21)
(0.588727 0.0712908 1.52157e-20)
(0.756491 0.497823 0)
(0.71834 0.47075 2.18889e-21)
(0.240038 -0.140358 -1.67952e-23)
(0.711717 0.039498 -7.19892e-21)
(0.223528 -0.13965 -1.89187e-20)
(0.710994 0.0550099 1.51993e-20)
(0.527789 -0.284477 0)
(-0.000461841 -0.0592097 -1.68737e-20)
(0.746136 0.316512 0)
(0.62575 -0.25982 7.85078e-21)
(1.02686 0.404084 -1.30383e-21)
(0.0599582 -0.0136902 -4.92219e-21)
(0.593949 0.395871 4.1117e-21)
(0.309075 -0.163847 8.61229e-21)
(0.762287 0.124741 -2.00536e-20)
(0.500468 -0.255176 -1.60711e-20)
(1.01185 0.286335 -1.41435e-20)
(0.267124 0.195442 0)
(0.104826 -0.107877 -1.99044e-20)
(0.723263 -0.0907255 7.26344e-21)
(0.923294 0.554754 0)
(0.645481 -0.27056 0)
(0.868607 0.408063 0)
(0.0117822 -0.0662763 0)
(0.64202 -0.272861 0)
(0.902559 0.404182 -6.30789e-21)
(0.0158864 -0.0600925 0)
(0.845894 0.511715 6.47543e-21)
(0.675275 -0.0270851 -4.16872e-21)
(0.165635 -0.104767 -5.33142e-21)
(0.472676 0.267905 1.93673e-21)
(0.353477 -0.110993 0)
(0.723968 0.174575 -6.51186e-21)
(0.97997 0.475264 -5.69486e-21)
(0.0572431 -0.0551097 -1.43377e-20)
(0.686166 -0.199238 1.81845e-20)
(0.540774 -0.200897 0)
(0.9814 0.353427 0)
(0.1922 0.0955861 -1.82209e-20)
(0.0946909 -0.052705 -4.63613e-21)
(0.664268 -0.143319 -1.10197e-20)
(0.962887 0.490996 -1.57792e-20)
(0.693401 0.462002 -2.22971e-21)
(0.255859 -0.150267 1.25963e-20)
(0.725451 0.0704134 -7.75722e-21)
(0.850775 0.251506 1.16886e-20)
(0.428834 -0.159956 -7.25988e-21)
(0.351955 0.209062 -1.52129e-20)
(0.547926 0.322485 -1.42877e-22)
(0.313935 -0.11294 2.45069e-21)
(0.702544 0.12917 8.00334e-21)
(0.0524158 -0.0484741 5.60041e-21)
(0.67658 -0.219086 -8.44639e-21)
(0.985026 0.45787 -6.14798e-21)
(0.931689 0.494432 2.95132e-21)
(0.657502 -0.10672 3.25212e-21)
(0.117241 -0.0614433 0)
(0.538497 0.280958 7.16105e-21)
(0.316322 -0.0623251 -1.5404e-20)
(0.635029 0.1175 1.28905e-20)
(0.90631 0.561891 -4.77246e-21)
(0.0743744 -0.114375 -7.45256e-21)
(0.766549 -0.118803 -3.19138e-23)
(0.682347 0.366674 4.11021e-21)
(0.602626 0.0365646 0)
(0.245445 -0.0578061 0)
(0.72933 0.247618 1.70198e-20)
(0.430591 -0.0689476 -4.22929e-21)
(0.335905 0.135522 0)
(0.510257 -0.208292 0)
(0.969392 0.317119 -1.14258e-20)
(0.235081 0.140838 8.04172e-21)
(0.849683 0.496348 0)
(0.0327629 -0.0908065 2.2993e-21)
(0.753119 -0.186145 -5.77284e-21)
(0.853753 0.511699 -4.63196e-21)
(0.0385861 -0.0958666 -7.35453e-21)
(0.764011 -0.169899 5.54175e-21)
(0.0926097 -0.0657564 -4.24153e-21)
(0.678639 -0.133725 6.53557e-21)
(0.955652 0.504673 1.45197e-20)
(0.870639 0.239 5.41426e-21)
(0.425182 -0.182662 1.45364e-20)
(0.372758 0.237141 0)
(0.0263417 -0.0883207 -2.10576e-21)
(0.746128 -0.193612 5.39782e-21)
(0.801767 0.47834 0)
(0.106196 -0.00520838 0)
(0.622022 -0.186432 6.72968e-21)
(0.996295 0.434843 1.79848e-21)
(-0.00229192 -0.0503143 -8.44096e-21)
(0.446932 -0.24983 -5.44329e-21)
(0.580199 0.254925 0)
(0.530082 0.325949 3.0606e-21)
(0.508868 -0.188502 0)
(0.00485237 -0.0522448 -8.46224e-21)
(0.0850044 -0.105729 -1.45836e-23)
(0.740306 -0.113411 8.54035e-22)
(0.925862 0.55539 0)
(0.0354327 -0.0525719 0)
(0.669754 -0.244504 0)
(0.970038 0.442044 -7.95969e-21)
(0.958555 0.507283 5.07733e-21)
(0.964849 0.505053 -4.10747e-21)
(0.0626482 -0.0758363 8.12332e-21)
(0.711304 -0.165381 1.44519e-21)
(0.0705245 -0.0700074 0)
(0.696789 -0.159654 0)
(1.00511 0.418796 -3.50638e-21)
(0.609127 -0.198401 -4.45037e-21)
(0.1135 0.0107902 0)
(0.308643 0.237358 0)
(0.480437 -0.260793 0)
(1.0028 0.265655 0)
(0.596371 0.2714 -8.83451e-21)
(0.302646 -0.00366647 2.10529e-20)
(0.547819 0.0595693 -8.40627e-21)
(1.00603 0.382269 -1.00976e-20)
(0.575577 -0.210277 -1.64501e-21)
(0.145898 0.053 -1.61484e-20)
(0.165597 0.0738121 -1.04919e-20)
(1.0038 0.367697 1.40457e-20)
(0.56078 -0.214025 2.28271e-21)
(0.908754 0.58071 -5.59483e-21)
(0.0985126 -0.12547 -8.01084e-21)
(0.760082 -0.0867375 0)
(0.766004 0.514309 0)
(0.724139 0.0376712 -3.42849e-21)
(0.22 -0.149445 1.85443e-20)
(0.723957 0.45003 0)
(0.685889 0.0480175 -1.56726e-20)
(0.233288 -0.123188 -1.11308e-23)
(0.951815 0.384092 1.34639e-20)
(0.560518 -0.164342 -1.99117e-21)
(0.169977 0.0466292 9.18297e-21)
(0.967063 0.377726 0)
(0.557658 -0.178809 -1.87148e-21)
(0.172011 0.0574753 -8.43319e-21)
(0.515224 0.25395 0)
(0.330798 -0.0460361 2.43133e-20)
(0.620319 0.12373 0)
(0.772178 0.45995 0)
(0.656318 0.0111107 8.80271e-21)
(0.202887 -0.101043 -2.77739e-21)
(0.0934631 0.0405771 1.68438e-20)
(0.581272 -0.287795 1.42605e-20)
(1.05991 0.352495 0)
(0.917599 0.385207 1.3713e-22)
(0.0151179 -0.0546989 -5.18234e-21)
(0.615291 -0.28563 -3.79425e-21)
(0.899889 0.359201 1.79114e-22)
(0.0116757 -0.0535801 0)
(0.593032 -0.291581 1.08857e-20)
(0.628541 0.37044 -4.91872e-21)
(0.273756 -0.098539 2.67365e-21)
(0.664213 0.0841408 1.27606e-22)
(0.617644 -0.275469 -1.66872e-22)
(0.00704319 -0.0654639 -2.14839e-20)
(0.830687 0.384364 0)
(0.942096 0.510175 -1.26119e-20)
(0.104247 -0.0710086 0)
(0.6768 -0.114398 0)
(0.00399291 -0.0611987 8.51098e-21)
(0.580002 -0.288915 5.86348e-21)
(0.819284 0.350942 -6.01326e-21)
(0.617518 0.215985 -1.17911e-20)
(0.357672 0.0965825 -1.26583e-20)
(0.444778 0.00912034 -5.94027e-23)
(0.834917 0.391592 2.04578e-21)
(0.559483 -0.0678427 2.04741e-21)
(0.195535 -0.00146335 8.32251e-21)
(0.403449 -0.178797 -1.65953e-20)
(0.848252 0.219667 -1.94813e-20)
(0.40996 0.265173 0)
(0.0427793 -0.0199359 0)
(0.605339 -0.285662 3.5703e-21)
(1.0114 0.373884 0)
(0.529167 -0.21115 0)
(0.984969 0.339269 0)
(0.2068 0.1138 0)
(0.0637937 -0.104557 0)
(0.91089 0.545574 4.34416e-21)
(0.760579 -0.136088 -4.99912e-21)
(0.866842 0.40673 0)
(0.568387 -0.086808 -1.01769e-21)
(0.180382 -0.00145926 1.43576e-23)
(0.579943 0.252728 8.53201e-21)
(0.317963 0.010743 -1.80684e-20)
(0.534501 0.0621362 0)
(0.626169 -0.272683 1.25761e-20)
(1.00311 0.397917 -3.93795e-21)
(0.0428523 -0.0270295 0)
(0.0921975 -0.0322454 9.73644e-21)
(0.646632 -0.173225 -4.27873e-22)
(0.983811 0.464154 -2.34683e-22)
(0.882213 0.480012 0)
(0.862383 0.470816 -4.46085e-21)
(0.029588 -0.081701 -5.25895e-21)
(0.0247883 -0.0802477 6.49992e-21)
(0.727229 -0.207469 3.55746e-21)
(0.720086 -0.217206 -2.92498e-21)
(0.845703 0.311678 0)
(0.479082 -0.124133 -1.39082e-20)
(0.263581 0.108473 -1.00392e-20)
(0.519385 -0.17105 -1.99828e-20)
(0.939574 0.339978 0)
(0.21503 0.0986532 1.10984e-20)
(0.697886 0.256849 9.62958e-21)
(0.452922 -0.038735 -7.20718e-21)
(0.310243 0.0943219 -1.55688e-20)
(0.619002 -0.285593 -8.30759e-21)
(0.958455 0.386945 -4.88703e-21)
(0.603423 -0.292484 3.95724e-21)
(0.022704 -0.0459699 5.48857e-21)
(0.96604 0.369732 4.57763e-21)
(0.0247115 -0.0402753 0)
(0.925242 0.435456 0)
(0.596962 -0.122699 0)
(0.145962 -0.00925996 -1.0394e-20)
(0.988727 0.408609 -4.98448e-21)
(0.967828 0.402283 1.25973e-20)
(0.639239 -0.267759 -5.44759e-21)
(0.636935 -0.274127 1.36874e-20)
(0.0348642 -0.039016 -1.446e-20)
(0.0268361 -0.0467114 1.73282e-24)
(0.923662 0.326477 0)
(0.501394 -0.174124 1.84964e-20)
(0.243523 0.127174 -1.43823e-20)
(0.805299 0.332315 -8.93067e-21)
(0.518189 -0.083613 1.23559e-20)
(0.222317 0.0425606 0)
(0.88999 0.524829 0)
(0.0464212 -0.0967831 -1.0133e-21)
(0.759953 -0.163466 -5.32328e-21)
(0.847889 0.32893 -6.56063e-21)
(0.495239 -0.113167 0)
(0.244007 0.0849484 1.66972e-20)
(0.737328 0.282482 -3.86785e-21)
(0.468386 -0.056356 8.45113e-21)
(0.286763 0.0821224 -9.11076e-21)
(0.872727 0.492314 0)
(0.033784 -0.0871818 0)
(0.743712 -0.194103 7.34523e-21)
(0.86971 0.42603 0)
(0.590847 -0.0784238 -2.17286e-21)
(0.165472 -0.0238272 1.03405e-20)
(0.441721 -0.248596 0)
(0.955667 0.233561 0)
(0.386053 0.298389 5.49756e-22)
(0.689554 0.474154 5.48971e-22)
(0.746504 0.0793098 0)
(0.263021 -0.165505 -9.79309e-21)
(0.540826 -0.275955 -8.65177e-21)
(0.185801 0.130705 0)
(1.0561 0.318085 0)
(0.000811039 -0.0446131 2.03197e-20)
(0.429604 -0.193445 -5.62979e-21)
(0.493794 0.250391 2.63033e-21)
(0.859662 0.364988 0)
(0.528703 -0.0983436 -7.59044e-21)
(0.207665 0.0398534 0)
(0.927943 0.518015 -8.22562e-21)
(0.0508604 -0.0868812 -2.75015e-20)
(0.736972 -0.167391 1.08229e-20)
(0.315482 -0.210768 0)
(0.822614 0.123921 7.5862e-21)
(0.62142 0.464852 0)
(0.644267 0.395839 0)
(0.00985164 -0.0676126 5.0885e-21)
(0.633195 -0.209233 0)
(0.414778 0.212178 -9.62272e-21)
(0.426534 0.23441 9.85095e-21)
(0.378655 -0.0923385 0)
(0.720338 0.197631 -8.21215e-21)
(0.376279 -0.113435 1.56459e-20)
(0.746188 0.194852 6.60069e-21)
(0.691025 0.238082 -9.0563e-21)
(0.431194 -0.0426004 -9.56428e-21)
(0.340063 0.122685 0)
(0.489358 0.263485 -8.4469e-21)
(0.45198 0.234625 0)
(0.340769 -0.0869294 0)
(0.683672 0.153364 0)
(0.357376 -0.0781059 8.77451e-21)
(0.684821 0.16985 -5.14963e-23)
(0.833924 0.354406 -5.65529e-22)
(0.496976 -0.0815164 5.38008e-21)
(0.247347 0.0650547 1.1253e-20)
(0.810854 0.320976 1.53378e-20)
(0.488723 -0.0922829 0)
(0.257545 0.081762 0)
(0.016393 -0.0457275 0)
(0.583316 -0.29922 0)
(0.934811 0.352232 -4.67978e-21)
(0.66516 0.383243 1.34964e-20)
(0.645509 0.0637984 0)
(0.256254 -0.0881861 -4.95712e-21)
(0.989039 0.427721 1.06738e-20)
(0.653774 -0.253137 -6.30079e-21)
(0.0392579 -0.0413461 8.25473e-21)
(0.958178 0.406706 0)
(0.976289 0.415705 -7.31874e-21)
(0.581131 -0.15938 2.48104e-21)
(0.594754 -0.170544 -7.90924e-21)
(0.148308 0.02386 1.14577e-20)
(0.134247 0.0164755 1.06579e-20)
(0.657523 0.360846 0)
(0.620353 0.0559982 0)
(0.258725 -0.0687576 -2.33061e-21)
(0.800447 0.499887 -5.26904e-21)
(0.685425 0.0069408 0)
(0.195128 -0.119668 -6.17753e-21)
(0.915566 0.397953 3.84942e-21)
(0.56262 -0.13177 0)
(0.168855 0.0266364 -1.04742e-20)
(0.516693 0.198262 -9.30574e-21)
(0.526209 0.0919023 -4.53706e-21)
(0.356393 0.0268611 -4.85167e-21)
(0.989489 0.391924 0)
(0.576925 -0.192221 0)
(0.14824 0.0440172 1.71641e-20)
(0.572094 0.271249 0)
(0.306612 -0.0228451 -2.66941e-21)
(0.575218 0.0821035 0)
(0.917436 0.344693 8.71111e-21)
(0.516024 -0.157399 1.02913e-20)
(0.220523 0.0905727 1.43973e-21)
(0.802874 0.481077 -5.30454e-21)
(0.664361 -0.00393015 -1.00347e-20)
(0.18906 -0.103791 0)
(0.531262 0.2224 9.22632e-21)
(0.513295 0.221474 4.13222e-21)
(0.544681 0.0883725 -4.43742e-21)
(0.338549 0.00873208 9.58846e-21)
(0.571404 0.105605 0)
(0.340073 -0.00813301 1.71103e-20)
(0.479901 0.229313 4.20274e-21)
(0.346592 -0.0493646 -1.13479e-20)
(0.455454 0.223498 -2.70665e-21)
(0.63231 0.14247 0)
(0.361525 -0.0654788 -5.56757e-21)
(0.667458 0.16639 9.39404e-21)
(0.724199 0.398724 -4.87417e-21)
(0.759476 0.407018 0)
(0.610741 0.0199734 -9.23729e-21)
(0.599883 -0.000895102 7.20848e-21)
(0.225784 -0.0636278 2.21222e-20)
(0.212675 -0.0522204 -1.83958e-20)
(0.0938594 -0.0895618 0)
(0.706504 -0.111894 4.01049e-21)
(0.939039 0.533277 7.43507e-21)
(0.416325 0.314267 -1.85099e-20)
(0.924184 0.219098 -8.47643e-21)
(0.423141 -0.23499 1.76183e-20)
(0.0821941 -0.0862259 9.27199e-21)
(0.0803178 -0.0755233 0)
(0.710501 -0.130116 -3.4667e-21)
(0.696348 -0.141959 -5.97105e-21)
(0.945693 0.530001 -1.89156e-20)
(0.956996 0.515469 9.8238e-21)
(0.53384 0.379245 0)
(0.348447 -0.190255 9.41414e-21)
(0.818433 0.159761 -1.9424e-21)
(0.501158 0.160348 -1.96175e-20)
(0.396439 0.0700294 0)
(0.481894 0.0870762 1.55526e-20)
(0.991614 0.408371 3.47824e-21)
(0.593298 -0.188261 8.92905e-21)
(0.1322 0.0250549 0)
(0.615797 0.333373 0)
(0.276667 -0.0707103 2.22122e-21)
(0.626027 0.0786343 7.777e-21)
(0.822789 0.48677 0)
(0.660366 -0.0165652 0)
(0.177836 -0.0970903 1.47841e-21)
(0.916995 0.543875 0)
(0.921068 0.528954 0)
(0.705998 -0.0815478 -2.12015e-21)
(0.116 -0.101788 1.13254e-20)
(0.690649 -0.0867414 5.78545e-21)
(0.116116 -0.090045 -1.53151e-20)
(0.946506 0.432354 -7.25287e-21)
(0.601172 -0.138753 -8.29253e-21)
(0.136205 -0.00427496 -4.99224e-21)
(0.710754 0.413908 -5.12201e-21)
(0.664611 -0.219451 0)
(0.0119608 -0.072878 6.22273e-21)
(0.33013 -0.208234 0)
(0.827851 0.137825 -6.19836e-21)
(0.587766 0.433991 0)
(0.652827 0.477301 -5.56475e-21)
(0.637314 0.454978 6.01105e-21)
(0.29535 -0.196047 6.12503e-21)
(0.795359 0.106446 0)
(0.298133 -0.184773 0)
(0.783328 0.109729 0)
(1.00916 0.341869 1.23364e-20)
(0.540925 -0.229075 -1.68239e-20)
(0.190953 0.106166 -7.81075e-22)
(0.775392 0.491318 1.08107e-20)
(0.69056 0.0222086 0)