/*--------------------------------*- C++ -*----------------------------------*\
  =========                 |
  \\      /  F ield         | OpenFOAM: The Open Source CFD Toolbox
   \\    /   O peration     | Website:  https://openfoam.org
    \\  /    A nd           | Version:  6
     \\/     M anipulation  |
\*---------------------------------------------------------------------------*/
FoamFile
{
    version     2.0;
    format      ascii;
    class       volScalarField;
    location    "0";
    object      TRec;
}
// * * * * * * * * * * * * * * * * * * * * * * * * * * * * * * * * * * * * * //

dimensions      [0 0 0 1 0 0 0];

internalField   nonuniform List<scalar> 
10000
(
298.763
298.788
298.813
298.836
298.859
298.881
298.901
298.92
298.937
298.954
298.969
298.983
298.996
299.009
299.02
299.031
299.041
299.05
299.059
299.067
299.075
299.083
299.09
299.097
299.104
299.11
299.117
299.123
299.129
299.134
299.14
299.145
299.151
299.156
299.161
299.166
299.171
299.176
299.181
299.186
299.19
299.195
299.199
299.204
299.208
299.212
299.215
299.219
299.222
299.225
299.228
299.231
299.234
299.236
299.238
299.24
299.242
299.243
299.245
299.246
299.248
299.249
299.251
299.252
299.254
299.255
299.257
299.259
299.26
299.262
299.264
299.266
299.268
299.271
299.273
299.276
299.279
299.283
299.287
299.291
299.296
299.302
299.309
299.317
299.327
299.34
299.356
299.377
299.404
299.438
299.483
299.542
299.619
299.718
299.846
300.005
300.2
300.429
300.686
300.96
298.763
298.789
298.814
298.838
298.861
298.883
298.903
298.922
298.94
298.956
298.972
298.986
298.999
299.011
299.023
299.033
299.043
299.052
299.061
299.069
299.077
299.084
299.091
299.098
299.105
299.111
299.117
299.123
299.129
299.134
299.14
299.145
299.15
299.156
299.161
299.166
299.171
299.175
299.18
299.185
299.19
299.194
299.199
299.203
299.207
299.211
299.215
299.219
299.222
299.225
299.228
299.231
299.233
299.236
299.238
299.24
299.242
299.244
299.245
299.247
299.248
299.25
299.251
299.252
299.254
299.256
299.257
299.259
299.261
299.262
299.264
299.266
299.269
299.271
299.274
299.276
299.279
299.283
299.286
299.291
299.295
299.301
299.308
299.316
299.325
299.338
299.353
299.372
299.398
299.431
299.474
299.53
299.605
299.702
299.827
299.986
300.182
300.415
300.677
300.957
298.763
298.79
298.816
298.841
298.865
298.888
298.909
298.929
298.947
298.964
298.98
298.995
299.008
299.02
299.031
299.041
299.051
299.059
299.067
299.075
299.082
299.089
299.096
299.102
299.108
299.114
299.12
299.125
299.13
299.136
299.141
299.146
299.151
299.156
299.16
299.165
299.17
299.175
299.179
299.184
299.189
299.193
299.198
299.202
299.206
299.21
299.214
299.218
299.221
299.225
299.228
299.231
299.233
299.236
299.238
299.24
299.242
299.244
299.246
299.247
299.249
299.25
299.252
299.253
299.255
299.256
299.258
299.26
299.261
299.263
299.265
299.267
299.269
299.271
299.274
299.277
299.279
299.283
299.286
299.29
299.295
299.3
299.306
299.313
299.323
299.334
299.348
299.366
299.39
299.421
299.461
299.515
299.587
299.681
299.805
299.964
300.162
300.399
300.668
300.954
298.764
298.793
298.82
298.847
298.872
298.896
298.919
298.94
298.96
298.978
298.994
299.01
299.023
299.035
299.046
299.056
299.065
299.073
299.08
299.087
299.093
299.099
299.105
299.11
299.115
299.12
299.125
299.13
299.134
299.139
299.143
299.148
299.152
299.157
299.161
299.165
299.17
299.174
299.179
299.183
299.188
299.192
299.196
299.201
299.205
299.209
299.213
299.217
299.221
299.224
299.227
299.231
299.233
299.236
299.239
299.241
299.243
299.245
299.247
299.248
299.25
299.252
299.253
299.255
299.256
299.258
299.259
299.261
299.263
299.264
299.266
299.268
299.27
299.273
299.275
299.277
299.28
299.283
299.286
299.29
299.294
299.299
299.305
299.312
299.32
299.33
299.343
299.36
299.382
299.411
299.449
299.501
299.57
299.663
299.786
299.946
300.147
300.387
300.66
300.951
298.765
298.796
298.826
298.854
298.882
298.908
298.933
298.956
298.978
298.997
299.015
299.031
299.045
299.057
299.068
299.077
299.086
299.093
299.099
299.104
299.11
299.115
299.119
299.123
299.127
299.131
299.134
299.138
299.141
299.145
299.148
299.152
299.156
299.159
299.163
299.167
299.171
299.175
299.179
299.183
299.187
299.192
299.196
299.2
299.204
299.208
299.212
299.216
299.22
299.224
299.227
299.231
299.234
299.237
299.239
299.242
299.244
299.246
299.248
299.25
299.252
299.253
299.255
299.257
299.258
299.26
299.262
299.263
299.265
299.267
299.268
299.27
299.272
299.274
299.277
299.279
299.281
299.284
299.287
299.291
299.295
299.299
299.304
299.31
299.318
299.327
299.339
299.355
299.375
299.403
299.439
299.489
299.558
299.65
299.773
299.934
300.137
300.38
300.656
300.95
298.767
298.8
298.832
298.864
298.894
298.923
298.951
298.976
299
299.021
299.04
299.057
299.072
299.084
299.095
299.104
299.112
299.118
299.124
299.128
299.132
299.135
299.138
299.14
299.143
299.145
299.147
299.149
299.152
299.154
299.156
299.159
299.161
299.164
299.167
299.17
299.174
299.177
299.181
299.184
299.188
299.192
299.196
299.2
299.204
299.208
299.212
299.216
299.22
299.224
299.227
299.231
299.234
299.237
299.24
299.243
299.246
299.248
299.25
299.252
299.254
299.256
299.258
299.259
299.261
299.263
299.264
299.266
299.268
299.269
299.271
299.273
299.275
299.277
299.279
299.281
299.283
299.286
299.289
299.292
299.295
299.3
299.304
299.31
299.317
299.326
299.337
299.351
299.371
299.397
299.432
299.482
299.549
299.641
299.765
299.927
300.132
300.377
300.654
300.95
298.768
298.805
298.84
298.875
298.909
298.941
298.971
298.999
299.025
299.048
299.069
299.087
299.103
299.116
299.127
299.136
299.143
299.149
299.153
299.156
299.157
299.16
299.161
299.162
299.163
299.163
299.164
299.164
299.165
299.166
299.167
299.168
299.169
299.171
299.173
299.175
299.178
299.181
299.183
299.187
299.19
299.194
299.197
299.201
299.205
299.209
299.213
299.217
299.221
299.225
299.228
299.232
299.235
299.239
299.242
299.245
299.247
299.25
299.253
299.255
299.257
299.259
299.261
299.263
299.264
299.266
299.268
299.269
299.271
299.273
299.275
299.276
299.278
299.28
299.282
299.284
299.286
299.289
299.291
299.294
299.297
299.301
299.305
299.311
299.317
299.325
299.335
299.349
299.368
299.393
299.428
299.477
299.545
299.637
299.762
299.926
300.132
300.378
300.655
300.95
298.77
298.81
298.849
298.888
298.925
298.96
298.994
299.024
299.053
299.078
299.1
299.12
299.136
299.15
299.162
299.171
299.177
299.182
299.185
299.187
299.186
299.189
299.188
299.187
299.186
299.185
299.184
299.182
299.181
299.18
299.18
299.18
299.18
299.18
299.181
299.182
299.184
299.186
299.188
299.19
299.193
299.196
299.2
299.203
299.207
299.21
299.214
299.218
299.222
299.226
299.23
299.233
299.237
299.241
299.244
299.247
299.25
299.253
299.255
299.258
299.26
299.262
299.264
299.266
299.268
299.27
299.272
299.274
299.275
299.277
299.279
299.28
299.282
299.284
299.286
299.288
299.29
299.292
299.294
299.297
299.3
299.303
299.307
299.312
299.318
299.326
299.336
299.349
299.367
299.392
299.427
299.476
299.544
299.637
299.763
299.928
300.135
300.381
300.658
300.951
298.772
298.816
298.859
298.901
298.942
298.98
299.017
299.051
299.081
299.109
299.133
299.154
299.172
299.187
299.198
299.207
299.214
299.218
299.221
299.222
299.222
299.22
299.218
299.216
299.213
299.209
299.206
299.203
299.2
299.198
299.195
299.194
299.192
299.191
299.191
299.191
299.192
299.193
299.194
299.196
299.198
299.2
299.203
299.206
299.21
299.213
299.217
299.22
299.224
299.228
299.232
299.236
299.239
299.243
299.247
299.25
299.253
299.256
299.259
299.262
299.264
299.266
299.269
299.271
299.273
299.275
299.276
299.278
299.28
299.282
299.284
299.285
299.287
299.289
299.29
299.292
299.294
299.296
299.298
299.301
299.304
299.307
299.31
299.315
299.32
299.328
299.337
299.35
299.368
299.393
299.428
299.477
299.545
299.64
299.767
299.933
300.14
300.386
300.661
300.952
298.774
298.821
298.868
298.914
298.959
299.001
299.041
299.078
299.111
299.141
299.167
299.19
299.208
299.224
299.236
299.245
299.251
299.255
299.257
299.257
299.255
299.251
299.251
299.246
299.241
299.236
299.231
299.226
299.221
299.217
299.213
299.21
299.207
299.205
299.203
299.202
299.201
299.201
299.202
299.203
299.204
299.206
299.208
299.211
299.214
299.217
299.22
299.224
299.228
299.231
299.235
299.239
299.243
299.246
299.25
299.253
299.257
299.26
299.263
299.266
299.269
299.271
299.273
299.276
299.278
299.28
299.282
299.283
299.285
299.287
299.289
299.291
299.292
299.294
299.296
299.297
299.299
299.301
299.303
299.305
299.308
299.311
299.314
299.318
299.324
299.331
299.34
299.352
299.37
299.395
299.43
299.48
299.549
299.645
299.773
299.94
300.147
300.392
300.666
300.954
298.776
298.827
298.878
298.928
298.976
299.022
299.065
299.105
299.141
299.173
299.201
299.225
299.245
299.261
299.274
299.283
299.289
299.293
299.294
299.293
299.29
299.284
299.282
299.276
299.27
299.264
299.257
299.25
299.244
299.238
299.232
299.227
299.223
299.219
299.216
299.214
299.212
299.211
299.211
299.211
299.212
299.213
299.215
299.217
299.219
299.222
299.225
299.228
299.232
299.235
299.239
299.243
299.247
299.25
299.254
299.258
299.261
299.264
299.268
299.271
299.273
299.276
299.279
299.281
299.283
299.285
299.287
299.289
299.291
299.293
299.295
299.296
299.298
299.3
299.301
299.303
299.305
299.306
299.308
299.31
299.313
299.315
299.319
299.323
299.328
299.334
299.343
299.356
299.374
299.399
299.434
299.485
299.555
299.652
299.781
299.948
300.156
300.4
300.671
300.956
298.778
298.833
298.888
298.941
298.993
299.042
299.089
299.131
299.17
299.204
299.234
299.26
299.281
299.298
299.311
299.321
299.327
299.33
299.331
299.329
299.325
299.319
299.313
299.307
299.3
299.292
299.284
299.276
299.268
299.26
299.253
299.247
299.241
299.236
299.231
299.228
299.225
299.223
299.222
299.221
299.221
299.221
299.222
299.224
299.226
299.228
299.231
299.234
299.237
299.241
299.244
299.248
299.252
299.255
299.259
299.262
299.266
299.269
299.273
299.276
299.279
299.282
299.284
299.287
299.289
299.291
299.293
299.295
299.297
299.299
299.301
299.303
299.304
299.306
299.307
299.309
299.311
299.312
299.314
299.316
299.318
299.321
299.324
299.328
299.333
299.339
299.348
299.361
299.378
299.404
299.44
299.491
299.562
299.66
299.79
299.958
300.165
300.408
300.676
300.957
298.78
298.839
298.897
298.955
299.01
299.062
299.112
299.157
299.198
299.235
299.267
299.294
299.316
299.334
299.348
299.358
299.364
299.367
299.367
299.365
299.36
299.354
299.347
299.339
299.33
299.321
299.311
299.302
299.292
299.283
299.275
299.267
299.26
299.253
299.248
299.243
299.239
299.236
299.234
299.232
299.231
299.231
299.232
299.233
299.234
299.236
299.238
299.241
299.244
299.247
299.25
299.254
299.257
299.261
299.265
299.268
299.272
299.275
299.278
299.282
299.285
299.288
299.29
299.293
299.295
299.298
299.3
299.302
299.304
299.305
299.307
299.309
299.311
299.313
299.314
299.316
299.317
299.319
299.32
299.322
299.324
299.327
299.33
299.333
299.338
299.344
299.353
299.366
299.384
299.409
299.446
299.498
299.57
299.669
299.8
299.968
300.175
300.416
300.681
300.959
298.782
298.844
298.907
298.968
299.026
299.082
299.134
299.183
299.226
299.265
299.298
299.327
299.35
299.369
299.383
299.393
299.399
299.402
299.402
299.399
299.394
299.388
299.379
299.37
299.36
299.349
299.338
299.328
299.317
299.307
299.297
299.288
299.28
299.272
299.265
299.26
299.255
299.251
299.247
299.245
299.243
299.242
299.242
299.242
299.243
299.245
299.247
299.249
299.251
299.254
299.257
299.261
299.264
299.268
299.271
299.275
299.278
299.281
299.285
299.288
299.291
299.294
299.297
299.3
299.302
299.304
299.307
299.309
299.311
299.312
299.314
299.316
299.318
299.32
299.321
299.323
299.324
299.326
299.327
299.329
299.331
299.333
299.336
299.339
299.344
299.35
299.359
299.372
299.39
299.416
299.453
299.506
299.579
299.678
299.81
299.979
300.185
300.424
300.687
300.961
298.783
298.85
298.916
298.98
299.042
299.101
299.156
299.207
299.253
299.294
299.329
299.358
299.383
299.402
299.417
299.427
299.433
299.435
299.435
299.431
299.426
299.419
299.409
299.4
299.388
299.377
299.365
299.353
299.341
299.33
299.319
299.309
299.3
299.291
299.284
299.277
299.271
299.266
299.262
299.259
299.256
299.255
299.254
299.254
299.254
299.255
299.256
299.258
299.26
299.263
299.265
299.268
299.272
299.275
299.278
299.282
299.285
299.288
299.292
299.295
299.298
299.301
299.304
299.307
299.309
299.312
299.314
299.316
299.318
299.32
299.321
299.323
299.325
299.327
299.328
299.33
299.331
299.333
299.334
299.336
299.338
299.34
299.343
299.346
299.351
299.357
299.366
299.378
299.397
299.423
299.461
299.514
299.588
299.689
299.821
299.99
300.195
300.432
300.692
300.963
298.785
298.855
298.925
298.992
299.058
299.12
299.178
299.231
299.279
299.321
299.358
299.389
299.414
299.434
299.449
299.459
299.465
299.467
299.466
299.462
299.456
299.448
299.437
299.427
299.415
299.402
299.39
299.377
299.365
299.353
299.341
299.33
299.32
299.311
299.302
299.295
299.288
299.282
299.278
299.274
299.27
299.268
299.266
299.266
299.265
299.266
299.267
299.268
299.27
299.272
299.274
299.277
299.28
299.283
299.286
299.289
299.293
299.296
299.299
299.302
299.305
299.308
299.311
299.314
299.317
299.319
299.321
299.323
299.325
299.327
299.329
299.331
299.332
299.334
299.336
299.338
299.339
299.34
299.342
299.343
299.345
299.347
299.35
299.353
299.358
299.364
299.373
299.386
299.404
299.431
299.469
299.523
299.598
299.699
299.833
300.001
300.206
300.441
300.697
300.965
298.787
298.861
298.933
299.004
299.073
299.138
299.198
299.254
299.304
299.348
299.386
299.418
299.444
299.464
299.479
299.489
299.494
299.496
299.494
299.49
299.483
299.474
299.463
299.452
299.44
299.427
299.413
299.4
299.387
299.375
299.363
299.351
299.34
299.331
299.321
299.313
299.306
299.299
299.294
299.289
299.285
299.282
299.28
299.279
299.278
299.278
299.278
299.279
299.28
299.282
299.284
299.286
299.289
299.292
299.295
299.298
299.301
299.304
299.307
299.31
299.313
299.316
299.319
299.322
299.324
299.327
299.329
299.331
299.333
299.335
299.337
299.339
299.34
299.342
299.344
299.346
299.347
299.348
299.35
299.351
299.353
299.355
299.358
299.361
299.365
299.371
299.38
299.393
299.412
299.439
299.478
299.533
299.608
299.711
299.844
300.013
300.216
300.449
300.703
300.967
298.789
298.866
298.942
299.016
299.087
299.155
299.219
299.276
299.328
299.374
299.413
299.445
299.472
299.492
299.507
299.517
299.522
299.523
299.521
299.516
299.508
299.499
299.487
299.475
299.462
299.449
299.435
299.422
299.409
299.396
299.383
299.371
299.36
299.35
299.34
299.331
299.323
299.316
299.31
299.305
299.301
299.297
299.294
299.292
299.291
299.29
299.29
299.29
299.291
299.293
299.294
299.296
299.299
299.301
299.304
299.307
299.31
299.313
299.316
299.319
299.321
299.324
299.327
299.33
299.332
299.335
299.337
299.34
299.342
299.343
299.345
299.347
299.349
299.35
299.352
299.354
299.355
299.357
299.358
299.36
299.361
299.363
299.366
299.369
299.373
299.379
299.388
299.402
299.421
299.448
299.487
299.543
299.619
299.722
299.856
300.024
300.226
300.457
300.708
300.969
298.79
298.871
298.95
299.027
299.102
299.172
299.238
299.298
299.351
299.398
299.438
299.472
299.498
299.519
299.533
299.542
299.547
299.548
299.545
299.539
299.531
299.521
299.509
299.496
299.483
299.469
299.456
299.442
299.429
299.415
299.403
299.391
299.379
299.369
299.359
299.349
299.341
299.334
299.327
299.321
299.316
299.312
299.309
299.306
299.304
299.303
299.303
299.303
299.303
299.304
299.305
299.307
299.309
299.311
299.314
299.316
299.319
299.322
299.324
299.327
299.33
299.333
299.336
299.338
299.341
299.343
299.346
299.348
299.35
299.352
299.354
299.355
299.357
299.359
299.36
299.362
299.364
299.366
299.367
299.369
299.37
299.372
299.374
299.377
299.382
299.388
299.397
299.41
299.429
299.457
299.497
299.553
299.63
299.733
299.867
300.035
300.236
300.465
300.713
300.97
298.792
298.875
298.958
299.038
299.116
299.189
299.257
299.319
299.374
299.422
299.462
299.496
299.523
299.543
299.557
299.566
299.57
299.57
299.566
299.559
299.551
299.54
299.528
299.515
299.501
299.488
299.474
299.46
299.447
299.434
299.421
299.409
299.397
299.386
299.376
299.367
299.358
299.35
299.343
299.337
299.332
299.327
299.324
299.321
299.318
299.317
299.316
299.315
299.315
299.316
299.317
299.318
299.32
299.322
299.324
299.326
299.329
299.331
299.334
299.337
299.339
299.342
299.345
299.347
299.35
299.352
299.355
299.357
299.359
299.361
299.363
299.365
299.367
299.368
299.369
299.371
299.373
299.375
299.377
299.378
299.38
299.381
299.384
299.387
299.391
299.397
299.406
299.419
299.439
299.467
299.507
299.563
299.641
299.745
299.879
300.047
300.247
300.473
300.718
300.972
298.793
298.88
298.966
299.049
299.129
299.205
299.275
299.338
299.395
299.444
299.485
299.519
299.546
299.566
299.579
299.587
299.59
299.589
299.585
299.577
299.568
299.557
299.544
299.531
299.518
299.504
299.49
299.477
299.463
299.45
299.438
299.426
299.414
299.403
299.393
299.383
299.375
299.367
299.359
299.353
299.347
299.342
299.338
299.335
299.332
299.33
299.329
299.328
299.328
299.328
299.328
299.329
299.331
299.332
299.334
299.336
299.339
299.341
299.344
299.346
299.349
299.352
299.354
299.357
299.359
299.362
299.364
299.367
299.369
299.371
299.373
299.375
299.377
299.378
299.379
299.381
299.383
299.385
299.387
299.388
299.39
299.391
299.394
299.397
299.401
299.407
299.416
299.429
299.448
299.477
299.517
299.574
299.652
299.756
299.891
300.058
300.257
300.481
300.723
300.974
298.795
298.885
298.973
299.059
299.142
299.22
299.292
299.358
299.415
299.465
299.507
299.541
299.567
299.586
299.599
299.606
299.608
299.606
299.601
299.593
299.583
299.572
299.559
299.545
299.532
299.519
299.505
299.491
299.478
299.465
299.453
299.441
299.429
299.419
299.409
299.399
299.39
299.382
299.375
299.368
299.362
299.357
299.353
299.349
299.346
299.344
299.342
299.341
299.34
299.34
299.34
299.341
299.342
299.344
299.345
299.347
299.349
299.352
299.354
299.356
299.359
299.362
299.364
299.367
299.369
299.372
299.374
299.377
299.379
299.381
299.383
299.385
299.387
299.389
299.391
299.392
299.393
299.395
299.397
299.399
299.401
299.402
299.404
299.407
299.411
299.417
299.426
299.439
299.459
299.487
299.528
299.585
299.664
299.768
299.903
300.069
300.266
300.489
300.728
300.975
298.796
298.889
298.98
299.069
299.155
299.235
299.309
299.376
299.434
299.485
299.527
299.56
299.586
299.605
299.617
299.623
299.624
299.621
299.615
299.606
299.596
299.584
299.571
299.558
299.545
299.532
299.518
299.504
299.491
299.479
299.467
299.455
299.444
299.433
299.423
299.413
299.405
299.397
299.389
299.383
299.377
299.371
299.367
299.363
299.36
299.357
299.355
299.354
299.353
299.353
299.353
299.353
299.354
299.355
299.357
299.358
299.36
299.362
299.365
299.367
299.37
299.372
299.375
299.377
299.38
299.383
299.385
299.388
299.39
299.392
299.395
299.397
299.399
299.401
299.403
299.404
299.405
299.407
299.408
299.41
299.412
299.414
299.416
299.418
299.421
299.428
299.437
299.45
299.469
299.498
299.539
299.597
299.675
299.78
299.915
300.081
300.276
300.496
300.733
300.977
298.798
298.893
298.987
299.079
299.167
299.249
299.325
299.393
299.452
299.503
299.545
299.579
299.604
299.622
299.633
299.638
299.638
299.634
299.627
299.618
299.607
299.595
299.582
299.569
299.556
299.543
299.529
299.516
299.503
299.491
299.479
299.467
299.456
299.446
299.436
299.427
299.418
299.41
299.403
299.396
299.39
299.385
299.38
299.376
299.373
299.37
299.368
299.367
299.366
299.365
299.365
299.365
299.366
299.367
299.368
299.37
299.372
299.374
299.376
299.378
299.381
299.383
299.386
299.389
299.391
299.394
299.397
299.399
299.402
299.405
299.407
299.41
299.412
299.414
299.416
299.417
299.418
299.419
299.421
299.422
299.424
299.425
299.427
299.429
299.433
299.439
299.448
299.461
299.481
299.509
299.551
299.608
299.687
299.792
299.927
300.092
300.286
300.504
300.738
300.979
298.799
298.897
298.994
299.088
299.179
299.263
299.34
299.409
299.47
299.521
299.562
299.595
299.621
299.638
299.647
299.651
299.65
299.645
299.638
299.628
299.617
299.605
299.592
299.579
299.566
299.553
299.54
299.527
299.514
299.501
299.49
299.479
299.468
299.458
299.448
299.439
299.431
299.423
299.416
299.409
299.403
299.398
299.393
299.389
299.386
299.383
299.381
299.38
299.378
299.378
299.378
299.378
299.378
299.379
299.381
299.382
299.384
299.386
299.388
299.391
299.393
299.396
299.398
299.401
299.404
299.407
299.409
299.412
299.415
299.418
299.421
299.423
299.426
299.428
299.43
299.431
299.432
299.433
299.434
299.436
299.437
299.438
299.44
299.442
299.446
299.452
299.461
299.474
299.493
299.521
299.563
299.621
299.7
299.805
299.939
300.103
300.296
300.511
300.742
300.98
298.8
298.901
299.001
299.097
299.19
299.276
299.355
299.425
299.486
299.537
299.578
299.611
299.635
299.652
299.66
299.663
299.661
299.655
299.647
299.638
299.627
299.614
299.601
299.588
299.574
299.561
299.548
299.535
299.523
299.511
299.499
299.489
299.479
299.469
299.459
299.451
299.442
299.435
299.428
299.421
299.416
299.41
299.406
299.402
299.399
299.396
299.394
299.392
299.391
299.391
299.39
299.391
299.391
299.392
299.393
299.395
299.397
299.399
299.401
299.403
299.406
299.409
299.411
299.414
299.417
299.42
299.423
299.426
299.429
299.432
299.436
299.439
299.441
299.443
299.445
299.446
299.448
299.449
299.45
299.451
299.452
299.453
299.454
299.456
299.46
299.466
299.474
299.486
299.505
299.534
299.575
299.633
299.712
299.817
299.951
300.114
300.305
300.519
300.747
300.982
298.802
298.905
299.007
299.106
299.201
299.289
299.369
299.44
299.501
299.552
299.593
299.625
299.649
299.664
299.671
299.673
299.67
299.665
299.656
299.646
299.635
299.622
299.609
299.595
299.582
299.569
299.556
299.543
299.531
299.52
299.508
299.498
299.488
299.479
299.469
299.461
299.454
299.446
299.439
299.433
299.428
299.423
299.418
299.415
299.411
299.409
299.407
299.405
299.404
299.404
299.403
299.404
299.404
299.405
299.407
299.408
299.41
299.412
299.415
299.417
299.42
299.423
299.426
299.429
299.432
299.435
299.438
299.442
299.445
299.449
299.452
299.455
299.457
299.459
299.461
299.463
299.464
299.466
299.466
299.467
299.468
299.469
299.47
299.472
299.475
299.48
299.488
299.5
299.519
299.547
299.588
299.646
299.725
299.83
299.963
300.125
300.315
300.526
300.752
300.983
298.803
298.909
299.013
299.115
299.211
299.301
299.382
299.454
299.515
299.566
299.607
299.639
299.661
299.675
299.681
299.682
299.68
299.673
299.664
299.654
299.642
299.63
299.616
299.602
299.589
299.576
299.563
299.551
299.539
299.528
299.517
299.507
299.497
299.488
299.479
299.471
299.464
299.457
299.45
299.445
299.439
299.435
299.43
299.427
299.424
299.422
299.42
299.418
299.418
299.417
299.417
299.418
299.418
299.419
299.421
299.423
299.425
299.427
299.43
299.432
299.435
299.438
299.441
299.445
299.448
299.452
299.455
299.459
299.463
299.467
299.47
299.473
299.475
299.477
299.478
299.48
299.482
299.484
299.485
299.485
299.486
299.486
299.487
299.489
299.491
299.495
299.502
299.514
299.532
299.56
299.601
299.659
299.738
299.843
299.975
300.137
300.325
300.534
300.756
300.985
298.804
298.912
299.019
299.123
299.221
299.313
299.395
299.467
299.528
299.579
299.62
299.65
299.672
299.684
299.69
299.691
299.688
299.681
299.672
299.661
299.649
299.636
299.623
299.609
299.596
299.583
299.57
299.558
299.546
299.535
299.525
299.515
299.505
299.497
299.488
299.481
299.474
299.467
299.461
299.456
299.451
299.446
299.443
299.439
299.437
299.435
299.433
299.432
299.431
299.431
299.431
299.432
299.433
299.434
299.436
299.438
299.44
299.443
299.445
299.448
299.452
299.455
299.458
299.462
299.466
299.469
299.473
299.478
299.482
299.486
299.489
299.491
299.493
299.495
299.497
299.5
299.502
299.504
299.505
299.505
299.505
299.505
299.505
299.506
299.508
299.511
299.518
299.529
299.547
299.574
299.615
299.673
299.752
299.856
299.988
300.148
300.334
300.541
300.761
300.986
298.805
298.916
299.025
299.131
299.231
299.324
299.407
299.479
299.542
299.591
299.632
299.662
299.681
299.694
299.7
299.7
299.696
299.689
299.679
299.668
299.656
299.643
299.629
299.616
299.602
299.589
299.577
299.565
299.554
299.543
299.533
299.523
299.514
299.506
299.498
299.491
299.484
299.478
299.472
299.467
299.463
299.459
299.455
299.452
299.45
299.448
299.447
299.446
299.446
299.446
299.446
299.447
299.449
299.45
299.452
299.454
299.457
299.46
299.463
299.466
299.469
299.473
299.477
299.481
299.485
299.489
299.493
299.498
299.503
299.506
299.508
299.51
299.512
299.515
299.518
299.521
299.524
299.525
299.526
299.526
299.526
299.525
299.524
299.524
299.525
299.528
299.534
299.544
299.562
299.589
299.629
299.687
299.765
299.869
300
300.159
300.344
300.548
300.765
300.988
298.806
298.919
299.03
299.138
299.24
299.334
299.418
299.491
299.553
299.603
299.642
299.67
299.691
299.703
299.708
299.708
299.704
299.696
299.687
299.676
299.664
299.65
299.636
299.623
299.609
299.596
299.584
299.572
299.561
299.551
299.541
299.532
299.523
299.515
299.508
299.501
299.495
299.489
299.484
299.479
299.475
299.472
299.469
299.466
299.464
299.463
299.462
299.461
299.461
299.462
299.462
299.463
299.465
299.467
299.469
299.472
299.475
299.478
299.481
299.484
299.488
299.492
299.496
299.501
299.505
299.51
299.515
299.52
299.523
299.525
299.527
299.53
299.533
299.537
299.541
299.544
299.546
299.547
299.548
299.548
299.547
299.546
299.544
299.543
299.543
299.545
299.55
299.56
299.577
299.604
299.644
299.701
299.779
299.883
300.013
300.171
300.354
300.555
300.77
300.989
298.807
298.922
299.036
299.146
299.249
299.345
299.43
299.503
299.564
299.613
299.652
299.68
299.7
299.712
299.717
299.716
299.712
299.704
299.694
299.683
299.671
299.657
299.643
299.63
299.617
299.604
299.592
299.581
299.57
299.56
299.55
299.541
299.533
299.525
299.518
299.512
299.506
299.501
299.496
299.492
299.488
299.485
299.483
299.481
299.479
299.478
299.477
299.477
299.477
299.478
299.479
299.481
299.483
299.485
299.487
299.49
299.493
299.497
299.5
299.504
299.508
299.513
299.517
299.522
299.527
299.532
299.537
299.54
299.542
299.545
299.548
299.552
299.557
299.561
299.565
299.567
299.569
299.57
299.571
299.57
299.569
299.567
299.565
299.563
299.562
299.563
299.568
299.577
299.593
299.619
299.659
299.716
299.794
299.896
300.026
300.182
300.363
300.563
300.774
300.991
298.809
298.926
299.041
299.153
299.258
299.355
299.441
299.512
299.574
299.623
299.661
299.69
299.71
299.721
299.725
299.725
299.72
299.712
299.703
299.692
299.679
299.665
299.651
299.638
299.625
299.613
299.601
299.59
299.579
299.569
299.56
299.552
299.544
299.537
299.53
299.524
299.519
299.514
299.51
299.506
299.503
299.5
299.498
299.496
299.495
299.494
299.494
299.494
299.495
299.496
299.497
299.499
299.502
299.504
299.507
299.51
299.514
299.517
299.521
299.525
299.53
299.535
299.54
299.545
299.55
299.554
299.557
299.559
299.562
299.566
299.571
299.576
299.581
299.585
299.589
299.591
299.593
299.594
299.594
299.593
299.592
299.59
299.587
299.584
299.582
299.582
299.586
299.594
299.609
299.635
299.674
299.73
299.808
299.91
300.039
300.194
300.373
300.57
300.779
300.992
298.81
298.929
299.046
299.16
299.267
299.365
299.451
299.522
299.583
299.633
299.672
299.7
299.719
299.73
299.734
299.733
299.728
299.72
299.711
299.7
299.687
299.673
299.66
299.647
299.634
299.622
299.611
299.6
299.59
299.58
299.572
299.564
299.556
299.55
299.543
299.538
299.533
299.529
299.525
299.521
299.519
299.516
299.515
299.513
299.512
299.512
299.512
299.513
299.514
299.515
299.517
299.519
299.521
299.524
299.527
299.531
299.535
299.539
299.543
299.548
299.552
299.558
299.563
299.567
299.571
299.573
299.576
299.58
299.585
299.59
299.596
299.601
299.606
299.609
299.612
299.615
299.616
299.617
299.617
299.616
299.615
299.612
299.609
299.605
299.602
299.602
299.604
299.612
299.626
299.651
299.69
299.746
299.823
299.924
300.052
300.206
300.383
300.578
300.783
300.994
298.811
298.932
299.051
299.167
299.276
299.374
299.459
299.533
299.592
299.643
299.682
299.71
299.728
299.739
299.743
299.741
299.737
299.729
299.721
299.709
299.696
299.683
299.67
299.657
299.644
299.633
299.622
299.611
299.602
299.593
299.585
299.577
299.57
299.564
299.558
299.553
299.549
299.545
299.541
299.538
299.536
299.534
299.532
299.531
299.531
299.531
299.531
299.532
299.533
299.535
299.537
299.539
299.542
299.545
299.549
299.553
299.557
299.561
299.566
299.57
299.576
299.58
299.584
299.587
299.589
299.593
299.597
299.603
299.609
299.615
299.62
299.625
299.629
299.632
299.635
299.637
299.639
299.64
299.64
299.639
299.638
299.635
299.631
299.627
299.623
299.621
299.623
299.63
299.644
299.668
299.706
299.761
299.838
299.939
300.065
300.218
300.393
300.585
300.787
300.995
298.812
298.935
299.057
299.174
299.284
299.384
299.467
299.544
299.602
299.653
299.692
299.719
299.738
299.748
299.752
299.75
299.746
299.74
299.73
299.718
299.705
299.693
299.68
299.668
299.656
299.644
299.634
299.624
299.615
299.606
299.599
299.592
299.585
299.58
299.574
299.57
299.566
299.562
299.559
299.556
299.554
299.553
299.552
299.551
299.551
299.551
299.552
299.553
299.554
299.556
299.558
299.561
299.564
299.567
299.571
299.575
299.579
299.584
299.589
299.593
299.597
299.599
299.602
299.605
299.609
299.615
299.621
299.627
299.633
299.638
299.643
299.647
299.651
299.655
299.657
299.659
299.661
299.662
299.662
299.662
299.66
299.658
299.654
299.649
299.644
299.641
299.642
299.648
299.661
299.685
299.722
299.777
299.853
299.953
300.079
300.23
300.403
300.593
300.791
300.997
298.813
298.938
299.062
299.181
299.293
299.392
299.478
299.552
299.613
299.664
299.702
299.729
299.747
299.757
299.761
299.76
299.755
299.749
299.74
299.728
299.716
299.703
299.691
299.679
299.668
299.657
299.647
299.638
299.629
299.621
299.614
299.608
299.602
299.597
299.592
299.588
299.584
299.581
299.578
299.576
299.574
299.573
299.572
299.572
299.572
299.572
299.573
299.574
299.576
299.578
299.58
299.583
299.586
299.59
299.594
299.598
299.602
299.606
299.61
299.612
299.614
299.617
299.621
299.626
299.632
299.638
299.644
299.65
299.655
299.66
299.664
299.669
299.673
299.676
299.679
299.682
299.684
299.685
299.685
299.684
299.683
299.68
299.676
299.671
299.665
299.662
299.662
299.667
299.679
299.702
299.739
299.793
299.868
299.968
300.092
300.242
300.414
300.6
300.795
300.998
298.814
298.941
299.067
299.188
299.302
299.399
299.49
299.562
299.624
299.674
299.712
299.739
299.757
299.767
299.77
299.769