/*--------------------------------*- C++ -*----------------------------------*\
  =========                 |
  \\      /  F ield         | OpenFOAM: The Open Source CFD Toolbox
   \\    /   O peration     | Website:  https://openfoam.org
    \\  /    A nd           | Version:  6
     \\/     M anipulation  |
\*---------------------------------------------------------------------------*/
FoamFile
{
    version     2.0;
    format      ascii;
    class       volScalarField;
    location    "0";
    object      p;
}
// * * * * * * * * * * * * * * * * * * * * * * * * * * * * * * * * * * * * * //

dimensions      [0 2 -2 0 0 0 0];

internalField   nonuniform List<scalar> 
145945
(
3.51252e-06
3.5113e-06
3.51031e-06
3.50931e-06
3.50856e-06
3.50795e-06
3.50754e-06
3.50728e-06
3.50719e-06
3.50725e-06
3.50749e-06
3.50787e-06
3.50845e-06
3.50916e-06
3.51016e-06
3.51118e-06
3.51249e-06
3.5113e-06
3.5103e-06
3.50931e-06
3.50833e-06
3.50754e-06
3.50691e-06
3.50647e-06
3.5062e-06
3.5061e-06
3.50617e-06
3.50642e-06
3.50682e-06
3.50742e-06
3.50817e-06
3.50916e-06
3.51021e-06
3.51128e-06
3.51031e-06
3.50931e-06
3.50826e-06
3.50728e-06
3.50647e-06
3.50584e-06
3.50539e-06
3.50512e-06
3.50502e-06
3.50509e-06
3.50534e-06
3.50576e-06
3.50636e-06
3.50713e-06
3.50811e-06
3.50922e-06
3.5103e-06
3.50931e-06
3.50833e-06
3.50728e-06
3.50631e-06
3.50548e-06
3.50483e-06
3.50437e-06
3.50409e-06
3.50398e-06
3.50406e-06
3.50432e-06
3.50475e-06
3.50536e-06
3.50615e-06
3.50714e-06
3.50825e-06
3.5093e-06
3.50856e-06
3.50754e-06
3.50647e-06
3.50548e-06
3.50463e-06
3.50396e-06
3.50349e-06
3.5032e-06
3.5031e-06
3.50318e-06
3.50344e-06
3.50388e-06
3.50451e-06
3.50533e-06
3.50633e-06
3.50746e-06
3.50856e-06
3.50795e-06
3.50691e-06
3.50584e-06
3.50483e-06
3.50396e-06
3.50329e-06
3.50281e-06
3.50252e-06
3.50241e-06
3.50249e-06
3.50276e-06
3.50321e-06
3.50385e-06
3.50468e-06
3.50569e-06
3.50684e-06
3.50795e-06
3.50754e-06
3.50647e-06
3.50539e-06
3.50437e-06
3.50349e-06
3.50281e-06
3.50232e-06
3.50202e-06
3.50191e-06
3.502e-06
3.50227e-06
3.50273e-06
3.50338e-06
3.50422e-06
3.50525e-06
3.5064e-06
3.50754e-06
3.50728e-06
3.5062e-06
3.50512e-06
3.50409e-06
3.5032e-06
3.50252e-06
3.50202e-06
3.50172e-06
3.50161e-06
3.50169e-06
3.50197e-06
3.50244e-06
3.50309e-06
3.50394e-06
3.50497e-06
3.50613e-06
3.50728e-06
3.50719e-06
3.5061e-06
3.50502e-06
3.50398e-06
3.5031e-06
3.50241e-06
3.50191e-06
3.50161e-06
3.5015e-06
3.50158e-06
3.50186e-06
3.50233e-06
3.50298e-06
3.50384e-06
3.50487e-06
3.50603e-06
3.50718e-06
3.50725e-06
3.50617e-06
3.50509e-06
3.50406e-06
3.50318e-06
3.50249e-06
3.502e-06
3.50169e-06
3.50158e-06
3.50166e-06
3.50194e-06
3.50241e-06
3.50306e-06
3.50391e-06
3.50494e-06
3.5061e-06
3.50725e-06
3.50749e-06
3.50642e-06
3.50534e-06
3.50432e-06
3.50344e-06
3.50276e-06
3.50227e-06
3.50197e-06
3.50186e-06
3.50194e-06
3.50222e-06
3.50268e-06
3.50333e-06
3.50417e-06
3.5052e-06
3.50635e-06
3.50748e-06
3.50787e-06
3.50682e-06
3.50576e-06
3.50475e-06
3.50388e-06
3.50321e-06
3.50273e-06
3.50244e-06
3.50233e-06
3.50241e-06
3.50268e-06
3.50313e-06
3.50377e-06
3.5046e-06
3.50561e-06
3.50676e-06
3.50787e-06
3.50845e-06
3.50742e-06
3.50636e-06
3.50536e-06
3.50451e-06
3.50385e-06
3.50338e-06
3.50309e-06
3.50298e-06
3.50306e-06
3.50333e-06
3.50377e-06
3.5044e-06
3.50521e-06
3.50621e-06
3.50735e-06
3.50844e-06
3.50916e-06
3.50817e-06
3.50713e-06
3.50616e-06
3.50533e-06
3.50468e-06
3.50422e-06
3.50394e-06
3.50383e-06
3.50391e-06
3.50417e-06
3.5046e-06
3.50521e-06
3.50601e-06
3.50699e-06
3.5081e-06
3.50915e-06
3.51016e-06
3.50916e-06
3.50811e-06
3.50714e-06
3.50632e-06
3.50569e-06
3.50525e-06
3.50497e-06
3.50487e-06
3.50494e-06
3.50519e-06
3.50561e-06
3.50621e-06
3.50699e-06
3.50797e-06
3.50908e-06
3.51015e-06
3.51118e-06
3.51021e-06
3.50923e-06
3.50825e-06
3.50746e-06
3.50684e-06
3.5064e-06
3.50613e-06
3.50603e-06
3.5061e-06
3.50635e-06
3.50675e-06
3.50735e-06
3.5081e-06
3.50908e-06
3.51011e-06
3.51117e-06
3.5125e-06
3.51128e-06
3.5103e-06
3.5093e-06
3.50856e-06
3.50795e-06
3.50754e-06
3.50728e-06
3.50718e-06
3.50725e-06
3.50748e-06
3.50787e-06
3.50844e-06
3.50915e-06
3.51015e-06
3.51117e-06
3.51247e-06
3.45456e-06
3.4538e-06
3.45315e-06
3.45249e-06
3.45199e-06
3.4516e-06
3.45133e-06
3.45116e-06
3.4511e-06
3.45114e-06
3.45128e-06
3.45152e-06
3.45188e-06
3.45233e-06
3.45297e-06
3.45364e-06
3.45446e-06
3.4538e-06
3.4532e-06
3.45258e-06
3.45195e-06
3.45144e-06
3.45105e-06
3.45078e-06
3.45061e-06
3.45054e-06
3.45058e-06
3.45073e-06
3.45097e-06
3.45133e-06
3.45179e-06
3.4524e-06
3.45305e-06
3.4537e-06
3.45315e-06
3.45258e-06
3.45196e-06
3.45135e-06
3.45084e-06
3.45046e-06
3.45019e-06
3.45002e-06
3.44996e-06
3.44999e-06
3.45014e-06
3.45038e-06
3.45073e-06
3.45119e-06
3.45178e-06
3.45244e-06
3.45305e-06
3.45249e-06
3.45195e-06
3.45135e-06
3.45075e-06
3.45025e-06
3.44987e-06
3.4496e-06
3.44943e-06
3.44936e-06
3.4494e-06
3.44955e-06
3.44979e-06
3.45014e-06
3.4506e-06
3.45117e-06
3.45182e-06
3.4524e-06
3.45199e-06
3.45144e-06
3.45084e-06
3.45025e-06
3.44975e-06
3.44936e-06
3.44909e-06
3.44892e-06
3.44886e-06
3.4489e-06
3.44904e-06
3.44929e-06
3.44964e-06
3.4501e-06
3.45067e-06
3.45132e-06
3.4519e-06
3.4516e-06
3.45105e-06
3.45046e-06
3.44987e-06
3.44936e-06
3.44898e-06
3.4487e-06
3.44853e-06
3.44847e-06
3.44851e-06
3.44865e-06
3.4489e-06
3.44926e-06
3.44972e-06
3.45029e-06
3.45093e-06
3.45151e-06
3.45133e-06
3.45078e-06
3.45019e-06
3.4496e-06
3.44909e-06
3.4487e-06
3.44843e-06
3.44825e-06
3.44819e-06
3.44823e-06
3.44838e-06
3.44863e-06
3.44898e-06
3.44945e-06
3.45002e-06
3.45066e-06
3.45124e-06
3.45116e-06
3.45061e-06
3.45002e-06
3.44943e-06
3.44892e-06
3.44853e-06
3.44825e-06
3.44808e-06
3.44802e-06
3.44806e-06
3.44821e-06
3.44846e-06
3.44881e-06
3.44928e-06
3.44985e-06
3.45049e-06
3.45107e-06
3.4511e-06
3.45055e-06
3.44996e-06
3.44936e-06
3.44886e-06
3.44847e-06
3.44819e-06
3.44802e-06
3.44795e-06
3.44799e-06
3.44814e-06
3.44839e-06
3.44875e-06
3.44921e-06
3.44979e-06
3.45043e-06
3.45101e-06
3.45114e-06
3.45058e-06
3.44999e-06
3.4494e-06
3.4489e-06
3.44851e-06
3.44823e-06
3.44806e-06
3.44799e-06
3.44803e-06
3.44818e-06
3.44843e-06
3.44879e-06
3.44925e-06
3.44983e-06
3.45046e-06
3.45104e-06
3.45128e-06
3.45073e-06
3.45014e-06
3.44955e-06
3.44904e-06
3.44865e-06
3.44838e-06
3.44821e-06
3.44814e-06
3.44818e-06
3.44833e-06
3.44858e-06
3.44893e-06
3.4494e-06
3.44997e-06
3.45061e-06
3.45119e-06
3.45152e-06
3.45097e-06
3.45038e-06
3.44979e-06
3.44929e-06
3.4489e-06
3.44863e-06
3.44846e-06
3.44839e-06
3.44843e-06
3.44858e-06
3.44883e-06
3.44918e-06
3.44964e-06
3.45021e-06
3.45085e-06
3.45143e-06
3.45188e-06
3.45133e-06
3.45073e-06
3.45014e-06
3.44964e-06
3.44926e-06
3.44898e-06
3.44881e-06
3.44875e-06
3.44879e-06
3.44893e-06
3.44918e-06
3.44953e-06
3.44999e-06
3.45056e-06
3.45121e-06
3.45179e-06
3.45233e-06
3.45179e-06
3.45119e-06
3.4506e-06
3.4501e-06
3.44972e-06
3.44945e-06
3.44928e-06
3.44921e-06
3.44925e-06
3.4494e-06
3.44964e-06
3.44999e-06
3.45044e-06
3.45102e-06
3.45166e-06
3.45224e-06
3.45297e-06
3.4524e-06
3.45178e-06
3.45117e-06
3.45067e-06
3.45029e-06
3.45002e-06
3.44985e-06
3.44979e-06
3.44983e-06
3.44997e-06
3.45021e-06
3.45056e-06
3.45102e-06
3.4516e-06
3.45227e-06
3.45287e-06
3.45364e-06
3.45305e-06
3.45244e-06
3.45182e-06
3.45132e-06
3.45093e-06
3.45066e-06
3.45049e-06
3.45043e-06
3.45046e-06
3.45061e-06
3.45085e-06
3.4512e-06
3.45166e-06
3.45227e-06
3.45291e-06
3.45354e-06
3.45446e-06
3.4537e-06
3.45305e-06
3.4524e-06
3.4519e-06
3.45151e-06
3.45124e-06
3.45107e-06
3.45101e-06
3.45104e-06
3.45119e-06
3.45143e-06
3.45178e-06
3.45224e-06
3.45287e-06
3.45354e-06
3.45435e-06
3.41731e-06
3.41731e-06
3.4173e-06
3.41725e-06
3.41722e-06
3.41717e-06
3.41713e-06
3.4171e-06
3.41709e-06
3.41709e-06
3.41711e-06
3.41714e-06
3.41718e-06
3.4172e-06
3.41723e-06
3.41721e-06
3.41721e-06
3.41731e-06
3.41731e-06
3.41727e-06
3.4172e-06
3.41714e-06
3.41707e-06
3.41701e-06
3.41697e-06
3.41695e-06
3.41696e-06
3.41699e-06
3.41703e-06
3.41709e-06
3.41714e-06
3.41719e-06
3.41721e-06
3.41722e-06
3.4173e-06
3.41727e-06
3.41718e-06
3.41707e-06
3.41697e-06
3.41688e-06
3.41682e-06
3.41677e-06
3.41674e-06
3.41675e-06
3.41679e-06
3.41685e-06
3.41692e-06
3.417e-06
3.41708e-06
3.41716e-06
3.41721e-06
3.41725e-06
3.4172e-06
3.41707e-06
3.41693e-06
3.41681e-06
3.4167e-06
3.41661e-06
3.41656e-06
3.41653e-06
3.41654e-06
3.41659e-06
3.41666e-06
3.41675e-06
3.41685e-06
3.41696e-06
3.41708e-06
3.41716e-06
3.41722e-06
3.41714e-06
3.41697e-06
3.41681e-06
3.41666e-06
3.41654e-06
3.41644e-06
3.41638e-06
3.41635e-06
3.41636e-06
3.41641e-06
3.41649e-06
3.4166e-06
3.41673e-06
3.41686e-06
3.41702e-06
3.41713e-06
3.41717e-06
3.41707e-06
3.41688e-06
3.4167e-06
3.41654e-06
3.4164e-06
3.4163e-06
3.41623e-06
3.4162e-06
3.41621e-06
3.41626e-06
3.41636e-06
3.41648e-06
3.41662e-06
3.41677e-06
3.41695e-06
3.41707e-06
3.41713e-06
3.41701e-06
3.41682e-06
3.41661e-06
3.41644e-06
3.4163e-06
3.41618e-06
3.41611e-06
3.41608e-06
3.41609e-06
3.41615e-06
3.41625e-06
3.41638e-06
3.41653e-06
3.4167e-06
3.41689e-06
3.41703e-06
3.4171e-06
3.41697e-06
3.41677e-06
3.41656e-06
3.41638e-06
3.41623e-06
3.41611e-06
3.41604e-06
3.416e-06
3.41602e-06
3.41608e-06
3.41618e-06
3.41631e-06
3.41647e-06
3.41665e-06
3.41685e-06
3.417e-06
3.41709e-06
3.41695e-06
3.41674e-06
3.41653e-06
3.41635e-06
3.4162e-06
3.41608e-06
3.416e-06
3.41597e-06
3.41599e-06
3.41605e-06
3.41615e-06
3.41629e-06
3.41645e-06
3.41663e-06
3.41683e-06
3.41699e-06
3.41709e-06
3.41696e-06
3.41675e-06
3.41654e-06
3.41636e-06
3.41621e-06
3.41609e-06
3.41602e-06
3.41599e-06
3.416e-06
3.41606e-06
3.41616e-06
3.4163e-06
3.41646e-06
3.41664e-06
3.41684e-06
3.41699e-06
3.41711e-06
3.41699e-06
3.41679e-06
3.41659e-06
3.41641e-06
3.41627e-06
3.41615e-06
3.41608e-06
3.41605e-06
3.41606e-06
3.41612e-06
3.41622e-06
3.41635e-06
3.4165e-06
3.41667e-06
3.41687e-06
3.41701e-06
3.41714e-06
3.41703e-06
3.41685e-06
3.41666e-06
3.41649e-06
3.41636e-06
3.41625e-06
3.41618e-06
3.41615e-06
3.41616e-06
3.41622e-06
3.41631e-06
3.41643e-06
3.41658e-06
3.41673e-06
3.41691e-06
3.41704e-06
3.41718e-06
3.41709e-06
3.41692e-06
3.41675e-06
3.4166e-06
3.41648e-06
3.41638e-06
3.41631e-06
3.41629e-06
3.4163e-06
3.41635e-06
3.41643e-06
3.41654e-06
3.41667e-06
3.41681e-06
3.41697e-06
3.41709e-06
3.4172e-06
3.41714e-06
3.417e-06
3.41686e-06
3.41673e-06
3.41662e-06
3.41653e-06
3.41647e-06
3.41645e-06
3.41646e-06
3.4165e-06
3.41658e-06
3.41667e-06
3.41678e-06
3.41689e-06
3.41702e-06
3.4171e-06
3.41723e-06
3.41719e-06
3.41708e-06
3.41696e-06
3.41686e-06
3.41677e-06
3.4167e-06
3.41665e-06
3.41663e-06
3.41664e-06
3.41667e-06
3.41673e-06
3.41681e-06
3.41689e-06
3.41698e-06
3.41708e-06
3.41713e-06
3.41721e-06
3.41721e-06
3.41716e-06
3.41708e-06
3.41702e-06
3.41695e-06
3.41689e-06
3.41685e-06
3.41683e-06
3.41684e-06
3.41687e-06
3.41691e-06
3.41697e-06
3.41702e-06
3.41707e-06
3.4171e-06
3.41712e-06
3.41721e-06
3.41722e-06
3.41721e-06
3.41716e-06
3.41713e-06
3.41708e-06
3.41704e-06
3.417e-06
3.41699e-06
3.41699e-06
3.41701e-06
3.41704e-06
3.41709e-06
3.4171e-06
3.41713e-06
3.41712e-06
3.41712e-06
3.37266e-06
3.37311e-06
3.37354e-06
3.37396e-06
3.3743e-06
3.37453e-06
3.37469e-06
3.37479e-06
3.37482e-06
3.37479e-06
3.37471e-06
3.37456e-06
3.37434e-06
3.37402e-06
3.3736e-06
3.37311e-06
3.3726e-06
3.37311e-06
3.37345e-06
3.37385e-06
3.37422e-06
3.37452e-06
3.37472e-06
3.37486e-06
3.37494e-06
3.37497e-06
3.37495e-06
3.37487e-06
3.37474e-06
3.37455e-06
3.37427e-06
3.3739e-06
3.37346e-06
3.37305e-06
3.37354e-06
3.37385e-06
3.37418e-06
3.3745e-06
3.37475e-06
3.37493e-06
3.37504e-06
3.37511e-06
3.37514e-06
3.37512e-06
3.37506e-06
3.37495e-06
3.37478e-06
3.37455e-06
3.37423e-06
3.37384e-06
3.37349e-06
3.37396e-06
3.37422e-06
3.3745e-06
3.37477e-06
3.37499e-06
3.37513e-06
3.37523e-06
3.37528e-06
3.3753e-06
3.37529e-06
3.37524e-06
3.37515e-06
3.37501e-06
3.37482e-06
3.37455e-06
3.37421e-06
3.37391e-06
3.3743e-06
3.37452e-06
3.37475e-06
3.37499e-06
3.37517e-06
3.37529e-06
3.37536e-06
3.37541e-06
3.37542e-06
3.37541e-06
3.37537e-06
3.3753e-06
3.37519e-06
3.37503e-06
3.37479e-06
3.37451e-06
3.37425e-06
3.37453e-06
3.37472e-06
3.37493e-06
3.37513e-06
3.37529e-06
3.37539e-06
3.37545e-06
3.37548e-06
3.3755e-06
3.37549e-06
3.37546e-06
3.3754e-06
3.37531e-06
3.37517e-06
3.37496e-06
3.37472e-06
3.37449e-06
3.37469e-06
3.37486e-06
3.37504e-06
3.37523e-06
3.37536e-06
3.37545e-06
3.3755e-06
3.37553e-06
3.37554e-06
3.37554e-06
3.37551e-06
3.37546e-06
3.37538e-06
3.37526e-06
3.37508e-06
3.37486e-06
3.37465e-06
3.37479e-06
3.37494e-06
3.37511e-06
3.37528e-06
3.37541e-06
3.37549e-06
3.37553e-06
3.37556e-06
3.37557e-06
3.37556e-06
3.37554e-06
3.37549e-06
3.37542e-06
3.37531e-06
3.37514e-06
3.37494e-06
3.37474e-06
3.37482e-06
3.37497e-06
3.37514e-06
3.3753e-06
3.37542e-06
3.3755e-06
3.37554e-06
3.37557e-06
3.37558e-06
3.37557e-06
3.37555e-06
3.37551e-06
3.37544e-06
3.37533e-06
3.37517e-06
3.37497e-06
3.37478e-06
3.37479e-06
3.37495e-06
3.37512e-06
3.37529e-06
3.37541e-06
3.37549e-06
3.37554e-06
3.37556e-06
3.37557e-06
3.37556e-06
3.37554e-06
3.3755e-06
3.37543e-06
3.37532e-06
3.37515e-06
3.37494e-06
3.37475e-06
3.37471e-06
3.37487e-06
3.37506e-06
3.37524e-06
3.37537e-06
3.37546e-06
3.37551e-06
3.37554e-06
3.37555e-06
3.37554e-06
3.37551e-06
3.37546e-06
3.37539e-06
3.37527e-06
3.37509e-06
3.37487e-06
3.37466e-06
3.37456e-06
3.37474e-06
3.37495e-06
3.37515e-06
3.3753e-06
3.3754e-06
3.37546e-06
3.37549e-06
3.37551e-06
3.3755e-06
3.37546e-06
3.37541e-06
3.37532e-06
3.37518e-06
3.37498e-06
3.37474e-06
3.37451e-06
3.37434e-06
3.37455e-06
3.37479e-06
3.37501e-06
3.37519e-06
3.37531e-06
3.37538e-06
3.37542e-06
3.37544e-06
3.37543e-06
3.37539e-06
3.37532e-06
3.37521e-06
3.37505e-06
3.37483e-06
3.37455e-06
3.37429e-06
3.37402e-06
3.37427e-06
3.37455e-06
3.37482e-06
3.37503e-06
3.37517e-06
3.37526e-06
3.37531e-06
3.37533e-06
3.37532e-06
3.37527e-06
3.37518e-06
3.37505e-06
3.37487e-06
3.3746e-06
3.37427e-06
3.37397e-06
3.3736e-06
3.3739e-06
3.37423e-06
3.37455e-06
3.3748e-06
3.37497e-06
3.37508e-06
3.37515e-06
3.37517e-06
3.37515e-06
3.37509e-06
3.37498e-06
3.37483e-06
3.3746e-06
3.37428e-06
3.3739e-06
3.37355e-06
3.37311e-06
3.37346e-06
3.37385e-06
3.37422e-06
3.37451e-06
3.37472e-06
3.37486e-06
3.37494e-06
3.37497e-06
3.37494e-06
3.37487e-06
3.37474e-06
3.37455e-06
3.37427e-06
3.3739e-06
3.37346e-06
3.37306e-06
3.37261e-06
3.37305e-06
3.37349e-06
3.37391e-06
3.37425e-06
3.37449e-06
3.37465e-06
3.37474e-06
3.37478e-06
3.37475e-06
3.37467e-06
3.37451e-06
3.37429e-06
3.37397e-06
3.37355e-06
3.37306e-06
3.37255e-06
3.33012e-06
3.33077e-06
3.33136e-06
3.33194e-06
3.33242e-06
3.33278e-06
3.33302e-06
3.33317e-06
3.33322e-06
3.33318e-06
3.33305e-06
3.33281e-06
3.33248e-06
3.33202e-06
3.33141e-06
3.33075e-06
3.33004e-06
3.33077e-06
3.33129e-06
3.33185e-06
3.33239e-06
3.33284e-06
3.33318e-06
3.33341e-06
3.33355e-06
3.3336e-06
3.33356e-06
3.33343e-06
3.33321e-06
3.33289e-06
3.33246e-06
3.3319e-06
3.33127e-06
3.33069e-06
3.33136e-06
3.33185e-06
3.33236e-06
3.33286e-06
3.33327e-06
3.33357e-06
3.33379e-06
3.33391e-06
3.33396e-06
3.33392e-06
3.33381e-06
3.33361e-06
3.33332e-06
3.33292e-06
3.3324e-06
3.33182e-06
3.33128e-06
3.33194e-06
3.33239e-06
3.33286e-06
3.33331e-06
3.33368e-06
3.33396e-06
3.33415e-06
3.33427e-06
3.33431e-06
3.33428e-06
3.33417e-06
3.33399e-06
3.33372e-06
3.33336e-06
3.33289e-06
3.33236e-06
3.33186e-06
3.33242e-06
3.33284e-06
3.33327e-06
3.33368e-06
3.33403e-06
3.33428e-06
3.33446e-06
3.33456e-06
3.3346e-06
3.33457e-06
3.33447e-06
3.33431e-06
3.33406e-06
3.33373e-06
3.3333e-06
3.33281e-06
3.33235e-06
3.33278e-06
3.33318e-06
3.33357e-06
3.33396e-06
3.33428e-06
3.33452e-06
3.33468e-06
3.33478e-06
3.33481e-06
3.33478e-06
3.3347e-06
3.33454e-06
3.33432e-06
3.33401e-06
3.33361e-06
3.33314e-06
3.3327e-06
3.33302e-06
3.33341e-06
3.33379e-06
3.33415e-06
3.33446e-06
3.33468e-06
3.33483e-06
3.33492e-06
3.33496e-06
3.33493e-06
3.33485e-06
3.3347e-06
3.33449e-06
3.3342e-06
3.33381e-06
3.33338e-06
3.33295e-06
3.33317e-06
3.33355e-06
3.33391e-06
3.33427e-06
3.33456e-06
3.33478e-06
3.33492e-06
3.33501e-06
3.33504e-06
3.33502e-06
3.33494e-06
3.3348e-06
3.33459e-06
3.33431e-06
3.33394e-06
3.33351e-06
3.33309e-06
3.33322e-06
3.3336e-06
3.33396e-06
3.33431e-06
3.3346e-06
3.33481e-06
3.33496e-06
3.33504e-06
3.33507e-06
3.33505e-06
3.33497e-06
3.33483e-06
3.33463e-06
3.33435e-06
3.33398e-06
3.33356e-06
3.33315e-06
3.33318e-06
3.33356e-06
3.33392e-06
3.33428e-06
3.33457e-06
3.33478e-06
3.33493e-06
3.33502e-06
3.33505e-06
3.33503e-06
3.33495e-06
3.33481e-06
3.3346e-06
3.33432e-06
3.33395e-06
3.33352e-06
3.33311e-06
3.33305e-06
3.33343e-06
3.33381e-06
3.33417e-06
3.33447e-06
3.3347e-06
3.33485e-06
3.33494e-06
3.33497e-06
3.33495e-06
3.33486e-06
3.33472e-06
3.33451e-06
3.33422e-06
3.33384e-06
3.3334e-06
3.33297e-06
3.33281e-06
3.33321e-06
3.33361e-06
3.33399e-06
3.33431e-06
3.33454e-06
3.3347e-06
3.3348e-06
3.33483e-06
3.33481e-06
3.33472e-06
3.33457e-06
3.33434e-06
3.33404e-06
3.33364e-06
3.33318e-06
3.33274e-06
3.33248e-06
3.33289e-06
3.33332e-06
3.33373e-06
3.33407e-06
3.33432e-06
3.33449e-06
3.33459e-06
3.33463e-06
3.3346e-06
3.33451e-06
3.33434e-06
3.3341e-06
3.33378e-06
3.33335e-06
3.33286e-06
3.3324e-06
3.33202e-06
3.33246e-06
3.33292e-06
3.33336e-06
3.33374e-06
3.33401e-06
3.3342e-06
3.33431e-06
3.33435e-06
3.33432e-06
3.33422e-06
3.33404e-06
3.33378e-06
3.33342e-06
3.33296e-06
3.33243e-06
3.33194e-06
3.33141e-06
3.3319e-06
3.33241e-06
3.3329e-06
3.3333e-06
3.33361e-06
3.33382e-06
3.33394e-06
3.33399e-06
3.33395e-06
3.33384e-06
3.33364e-06
3.33335e-06
3.33296e-06
3.33245e-06
3.33187e-06
3.33134e-06
3.33075e-06
3.33127e-06
3.33182e-06
3.33236e-06
3.33281e-06
3.33314e-06
3.33338e-06
3.33351e-06
3.33356e-06
3.33353e-06
3.3334e-06
3.33318e-06
3.33286e-06
3.33243e-06
3.33187e-06
3.33125e-06
3.33067e-06
3.33004e-06
3.33069e-06
3.33128e-06
3.33187e-06
3.33235e-06
3.3327e-06
3.33295e-06
3.33309e-06
3.33315e-06
3.33311e-06
3.33297e-06
3.33274e-06
3.3324e-06
3.33194e-06
3.33134e-06
3.33067e-06
3.32996e-06
3.28941e-06
3.29015e-06
3.29083e-06
3.29152e-06
3.29209e-06
3.29252e-06
3.29282e-06
3.293e-06
3.29307e-06
3.29302e-06
3.29285e-06
3.29257e-06
3.29216e-06
3.29162e-06
3.2909e-06
3.29014e-06
3.28933e-06
3.29015e-06
3.29076e-06
3.2914e-06
3.29205e-06
3.2926e-06
3.29302e-06
3.29331e-06
3.29348e-06
3.29355e-06
3.2935e-06
3.29334e-06
3.29307e-06
3.29267e-06
3.29214e-06
3.29147e-06
3.29074e-06
3.29007e-06
3.29083e-06
3.2914e-06
3.29202e-06
3.29262e-06
3.29314e-06
3.29353e-06
3.2938e-06
3.29397e-06
3.29403e-06
3.29398e-06
3.29383e-06
3.29357e-06
3.2932e-06
3.29271e-06
3.29208e-06
3.29138e-06
3.29075e-06
3.29152e-06
3.29205e-06
3.29262e-06
3.29319e-06
3.29367e-06
3.29404e-06
3.29429e-06
3.29444e-06
3.2945e-06
3.29446e-06
3.29432e-06
3.29408e-06
3.29373e-06
3.29327e-06
3.29268e-06
3.29203e-06
3.29144e-06
3.29209e-06
3.2926e-06
3.29314e-06
3.29367e-06
3.29412e-06
3.29447e-06
3.2947e-06
3.29485e-06
3.2949e-06
3.29486e-06
3.29473e-06
3.29451e-06
3.29418e-06
3.29375e-06
3.29319e-06
3.29257e-06
3.29201e-06
3.29252e-06
3.29302e-06
3.29353e-06
3.29403e-06
3.29447e-06
3.29479e-06
3.29502e-06
3.29515e-06
3.2952e-06
3.29517e-06
3.29504e-06
3.29483e-06
3.29452e-06
3.29411e-06
3.29358e-06
3.29299e-06
3.29244e-06
3.29282e-06
3.29331e-06
3.2938e-06
3.29429e-06
3.2947e-06
3.29502e-06
3.29524e-06
3.29537e-06
3.29541e-06
3.29538e-06
3.29526e-06
3.29505e-06
3.29476e-06
3.29436e-06
3.29385e-06
3.29328e-06
3.29274e-06
3.293e-06
3.29348e-06
3.29397e-06
3.29444e-06
3.29485e-06
3.29515e-06
3.29537e-06
3.29549e-06
3.29554e-06
3.29551e-06
3.29539e-06
3.29519e-06
3.2949e-06
3.29451e-06
3.29401e-06
3.29346e-06
3.29292e-06
3.29307e-06
3.29355e-06
3.29403e-06
3.2945e-06
3.2949e-06
3.2952e-06
3.29541e-06
3.29554e-06
3.29559e-06
3.29555e-06
3.29544e-06
3.29524e-06
3.29495e-06
3.29457e-06
3.29407e-06
3.29352e-06
3.29299e-06
3.29302e-06
3.2935e-06
3.29398e-06
3.29446e-06
3.29486e-06
3.29517e-06
3.29538e-06
3.29551e-06
3.29555e-06
3.29552e-06
3.2954e-06
3.2952e-06
3.29491e-06
3.29452e-06
3.29403e-06
3.29347e-06
3.29294e-06
3.29285e-06
3.29334e-06
3.29383e-06
3.29432e-06
3.29473e-06
3.29504e-06
3.29526e-06
3.29539e-06
3.29544e-06
3.2954e-06
3.29528e-06
3.29508e-06
3.29478e-06
3.29439e-06
3.29388e-06
3.29331e-06
3.29277e-06
3.29257e-06
3.29307e-06
3.29358e-06
3.29408e-06
3.29451e-06
3.29483e-06
3.29505e-06
3.29519e-06
3.29524e-06
3.2952e-06
3.29508e-06
3.29487e-06
3.29456e-06
3.29415e-06
3.29363e-06
3.29304e-06
3.29249e-06
3.29216e-06
3.29267e-06
3.29321e-06
3.29373e-06
3.29418e-06
3.29452e-06
3.29476e-06
3.2949e-06
3.29495e-06
3.29491e-06
3.29478e-06
3.29456e-06
3.29424e-06
3.29381e-06
3.29326e-06
3.29264e-06
3.29208e-06
3.29162e-06
3.29215e-06
3.29271e-06
3.29327e-06
3.29375e-06
3.29411e-06
3.29436e-06
3.29451e-06
3.29457e-06
3.29453e-06
3.29439e-06
3.29415e-06
3.29381e-06
3.29335e-06
3.29277e-06
3.29212e-06
3.29154e-06
3.2909e-06
3.29147e-06
3.29208e-06
3.29268e-06
3.2932e-06
3.29358e-06
3.29385e-06
3.29401e-06
3.29407e-06
3.29403e-06
3.29388e-06
3.29363e-06
3.29326e-06
3.29277e-06
3.29215e-06
3.29145e-06
3.29082e-06
3.29014e-06
3.29074e-06
3.29138e-06
3.29203e-06
3.29258e-06
3.29299e-06
3.29328e-06
3.29346e-06
3.29352e-06
3.29347e-06
3.29331e-06
3.29304e-06
3.29265e-06
3.29212e-06
3.29145e-06
3.29072e-06
3.29006e-06
3.28933e-06
3.29007e-06
3.29075e-06
3.29144e-06
3.29201e-06
3.29244e-06
3.29274e-06
3.29293e-06
3.29299e-06
3.29294e-06
3.29278e-06
3.29249e-06
3.29208e-06
3.29154e-06
3.29082e-06
3.29006e-06
3.28925e-06
3.24993e-06
3.25066e-06
3.25134e-06
3.25204e-06
3.25262e-06
3.25307e-06
3.25339e-06
3.25358e-06
3.25365e-06
3.25359e-06
3.25342e-06
3.25312e-06
3.2527e-06
3.25214e-06
3.2514e-06
3.25065e-06
3.24984e-06
3.25066e-06
3.25127e-06
3.25191e-06
3.25258e-06
3.25315e-06
3.25359e-06
3.2539e-06
3.25408e-06
3.25415e-06
3.2541e-06
3.25393e-06
3.25364e-06
3.25322e-06
3.25267e-06
3.25198e-06
3.25124e-06
3.25057e-06
3.25134e-06
3.25191e-06
3.25254e-06
3.25317e-06
3.25371e-06
3.25413e-06
3.25442e-06
3.2546e-06
3.25466e-06
3.25462e-06
3.25445e-06
3.25418e-06
3.25378e-06
3.25326e-06
3.2526e-06
3.25189e-06
3.25125e-06
3.25204e-06
3.25258e-06
3.25317e-06
3.25376e-06
3.25428e-06
3.25467e-06
3.25495e-06
3.25512e-06
3.25518e-06
3.25514e-06
3.25498e-06
3.25472e-06
3.25435e-06
3.25385e-06
3.25323e-06
3.25255e-06
3.25195e-06
3.25262e-06
3.25315e-06
3.25371e-06
3.25428e-06
3.25477e-06
3.25515e-06
3.25541e-06
3.25557e-06
3.25563e-06
3.25559e-06
3.25544e-06
3.25519e-06
3.25483e-06
3.25436e-06
3.25377e-06
3.25312e-06
3.25254e-06
3.25307e-06
3.25359e-06
3.25413e-06
3.25467e-06
3.25515e-06
3.25551e-06
3.25576e-06
3.25592e-06
3.25597e-06
3.25593e-06
3.25579e-06
3.25555e-06
3.25521e-06
3.25475e-06
3.25419e-06
3.25356e-06
3.25299e-06
3.25339e-06
3.2539e-06
3.25442e-06
3.25495e-06
3.25541e-06
3.25576e-06
3.25601e-06
3.25616e-06
3.25621e-06
3.25617e-06
3.25604e-06
3.2558e-06
3.25547e-06
3.25503e-06
3.25448e-06
3.25387e-06
3.25331e-06
3.25358e-06
3.25408e-06
3.2546e-06
3.25512e-06
3.25557e-06
3.25592e-06
3.25616e-06
3.25631e-06
3.25636e-06
3.25632e-06
3.25619e-06
3.25596e-06
3.25563e-06
3.2552e-06
3.25465e-06
3.25405e-06
3.2535e-06
3.25365e-06
3.25415e-06
3.25466e-06
3.25518e-06
3.25563e-06
3.25597e-06
3.25621e-06
3.25636e-06
3.25641e-06
3.25637e-06
3.25624e-06
3.25602e-06
3.25569e-06
3.25526e-06
3.25472e-06
3.25412e-06
3.25357e-06
3.25359e-06
3.2541e-06
3.25462e-06
3.25514e-06
3.25559e-06
3.25593e-06
3.25617e-06
3.25632e-06
3.25637e-06
3.25634e-06
3.2562e-06
3.25597e-06
3.25565e-06
3.25522e-06
3.25467e-06
3.25407e-06
3.25351e-06
3.25342e-06
3.25393e-06
3.25445e-06
3.25498e-06
3.25544e-06
3.25579e-06
3.25604e-06
3.25619e-06
3.25624e-06
3.2562e-06
3.25607e-06
3.25583e-06
3.2555e-06
3.25506e-06
3.25451e-06
3.2539e-06
3.25334e-06
3.25312e-06
3.25364e-06
3.25418e-06
3.25472e-06
3.25519e-06
3.25555e-06
3.25581e-06
3.25596e-06
3.25602e-06
3.25597e-06
3.25583e-06
3.2556e-06
3.25526e-06
3.2548e-06
3.25424e-06
3.25361e-06
3.25304e-06
3.2527e-06
3.25322e-06
3.25378e-06
3.25435e-06
3.25484e-06
3.25521e-06
3.25547e-06
3.25563e-06
3.25569e-06
3.25565e-06
3.2555e-06
3.25526e-06
3.2549e-06
3.25443e-06
3.25384e-06
3.25319e-06
3.25261e-06
3.25214e-06
3.25268e-06
3.25326e-06
3.25385e-06
3.25436e-06
3.25476e-06
3.25503e-06
3.2552e-06
3.25526e-06
3.25522e-06
3.25506e-06
3.2548e-06
3.25443e-06
3.25394e-06
3.25333e-06
3.25265e-06
3.25205e-06
3.25141e-06
3.25198e-06
3.25261e-06
3.25323e-06
3.25377e-06
3.25419e-06
3.25448e-06
3.25466e-06
3.25472e-06
3.25467e-06
3.25451e-06
3.25424e-06
3.25384e-06
3.25333e-06
3.25267e-06
3.25196e-06
3.25132e-06
3.25065e-06
3.25125e-06
3.25189e-06
3.25255e-06
3.25312e-06
3.25356e-06
3.25387e-06
3.25406e-06
3.25413e-06
3.25407e-06
3.2539e-06
3.25361e-06
3.2532e-06
3.25265e-06
3.25196e-06
3.25122e-06
3.25056e-06
3.24985e-06
3.25058e-06
3.25125e-06
3.25196e-06
3.25254e-06
3.25299e-06
3.25331e-06
3.2535e-06
3.25357e-06
3.25352e-06
3.25334e-06
3.25304e-06
3.25261e-06
3.25206e-06
3.25132e-06
3.25056e-06
3.24976e-06
3.2117e-06
3.21236e-06
3.21297e-06
3.21363e-06
3.21417e-06
3.2146e-06
3.2149e-06
3.21508e-06
3.21514e-06
3.21509e-06
3.21493e-06
3.21464e-06
3.21424e-06
3.21371e-06
3.21303e-06
3.21234e-06
3.21161e-06
3.21236e-06
3.21292e-06
3.2135e-06
3.21413e-06
3.21466e-06
3.21508e-06
3.21538e-06
3.21556e-06
3.21562e-06
3.21557e-06
3.21541e-06
3.21513e-06
3.21473e-06
3.21421e-06
3.21356e-06
3.21288e-06
3.21227e-06
3.21297e-06
3.2135e-06
3.21408e-06
3.21468e-06
3.21519e-06
3.2156e-06
3.21588e-06
3.21605e-06
3.21612e-06
3.21607e-06
3.21591e-06
3.21564e-06
3.21526e-06
3.21476e-06
3.21414e-06
3.21347e-06
3.21288e-06
3.21363e-06
3.21413e-06
3.21468e-06
3.21524e-06
3.21574e-06
3.21612e-06
3.21639e-06
3.21656e-06
3.21662e-06
3.21658e-06
3.21642e-06
3.21617e-06
3.2158e-06
3.21532e-06
3.21473e-06
3.21409e-06
3.21354e-06
3.21417e-06
3.21466e-06
3.21519e-06
3.21574e-06
3.21621e-06
3.21658e-06
3.21685e-06
3.21701e-06
3.21706e-06
3.21702e-06
3.21687e-06
3.21663e-06
3.21628e-06
3.21582e-06
3.21525e-06
3.21463e-06
3.21409e-06
3.2146e-06
3.21508e-06
3.21559e-06
3.21612e-06
3.21658e-06
3.21694e-06
3.21719e-06
3.21735e-06
3.21741e-06
3.21736e-06
3.21722e-06
3.21698e-06
3.21664e-06
3.2162e-06
3.21565e-06
3.21505e-06
3.21451e-06
3.2149e-06
3.21538e-06
3.21588e-06
3.21639e-06
3.21685e-06
3.21719e-06
3.21744e-06
3.21759e-06
3.21765e-06
3.21761e-06
3.21747e-06
3.21724e-06
3.2169e-06
3.21647e-06
3.21593e-06
3.21534e-06
3.21481e-06
3.21508e-06
3.21556e-06
3.21605e-06
3.21656e-06
3.21701e-06
3.21735e-06
3.21759e-06
3.21774e-06
3.2178e-06
3.21776e-06
3.21762e-06
3.21739e-06
3.21706e-06
3.21663e-06
3.2161e-06
3.21552e-06
3.21499e-06
3.21514e-06
3.21562e-06
3.21612e-06
3.21662e-06
3.21706e-06
3.21741e-06
3.21765e-06
3.2178e-06
3.21785e-06
3.21781e-06
3.21768e-06
3.21745e-06
3.21712e-06
3.2167e-06
3.21617e-06
3.21559e-06
3.21506e-06
3.21509e-06
3.21557e-06
3.21607e-06
3.21658e-06
3.21702e-06
3.21736e-06
3.21761e-06
3.21776e-06
3.21781e-06
3.21777e-06
3.21764e-06
3.21741e-06
3.21708e-06
3.21665e-06
3.21612e-06
3.21554e-06
3.21501e-06
3.21493e-06
3.21541e-06
3.21591e-06
3.21643e-06
3.21688e-06
3.21722e-06
3.21747e-06
3.21762e-06
3.21768e-06
3.21764e-06
3.2175e-06
3.21727e-06
3.21693e-06
3.2165e-06
3.21596e-06
3.21537e-06
3.21484e-06
3.21465e-06
3.21513e-06
3.21564e-06
3.21617e-06
3.21663e-06
3.21698e-06
3.21724e-06
3.21739e-06
3.21745e-06
3.21741e-06
3.21727e-06
3.21703e-06
3.21669e-06
3.21624e-06
3.21569e-06
3.21509e-06
3.21456e-06
3.21424e-06
3.21473e-06
3.21526e-06
3.2158e-06
3.21628e-06
3.21664e-06
3.21691e-06
3.21706e-06
3.21712e-06
3.21708e-06
3.21694e-06
3.21669e-06
3.21634e-06
3.21588e-06
3.21531e-06
3.21469e-06
3.21415e-06
3.21372e-06
3.21421e-06
3.21476e-06
3.21532e-06
3.21582e-06
3.2162e-06
3.21647e-06
3.21664e-06
3.2167e-06
3.21665e-06
3.2165e-06
3.21624e-06
3.21588e-06
3.2154e-06
3.21482e-06
3.21418e-06
3.21363e-06
3.21303e-06
3.21356e-06
3.21414e-06
3.21473e-06
3.21525e-06
3.21565e-06
3.21593e-06
3.2161e-06
3.21617e-06
3.21612e-06
3.21596e-06
3.21569e-06
3.21531e-06
3.21482e-06
3.2142e-06
3.21353e-06
3.21294e-06
3.21234e-06
3.21289e-06
3.21347e-06
3.21409e-06
3.21463e-06
3.21505e-06
3.21534e-06
3.21552e-06
3.21559e-06
3.21554e-06
3.21538e-06
3.21509e-06
3.21469e-06
3.21418e-06
3.21353e-06
3.21285e-06
3.21225e-06
3.21161e-06
3.21227e-06
3.21288e-06
3.21354e-06
3.21409e-06
3.21451e-06
3.21481e-06
3.21499e-06
3.21506e-06
3.21501e-06
3.21484e-06
3.21456e-06
3.21415e-06
3.21363e-06
3.21294e-06
3.21225e-06
3.21152e-06
3.17449e-06
3.17505e-06
3.17558e-06
3.17616e-06
3.17664e-06
3.17702e-06
3.17729e-06
3.17745e-06
3.17751e-06
3.17747e-06
3.17732e-06
3.17706e-06
3.1767e-06
3.17623e-06
3.17562e-06
3.17502e-06
3.1744e-06
3.17505e-06
3.17553e-06
3.17604e-06
3.17659e-06
3.17707e-06
3.17744e-06
3.17771e-06
3.17787e-06
3.17793e-06
3.17789e-06
3.17774e-06
3.17748e-06
3.17712e-06
3.17666e-06
3.17608e-06
3.17549e-06
3.17496e-06
3.17558e-06
3.17604e-06
3.17654e-06
3.17707e-06
3.17754e-06
3.1779e-06
3.17816e-06
3.17832e-06
3.17838e-06
3.17833e-06
3.17819e-06
3.17794e-06
3.17759e-06
3.17714e-06
3.17659e-06
3.176e-06
3.17549e-06
3.17616e-06
3.17659e-06
3.17707e-06
3.17758e-06
3.17802e-06
3.17838e-06
3.17863e-06
3.17878e-06
3.17884e-06
3.17879e-06
3.17865e-06
3.17842e-06
3.17808e-06
3.17765e-06
3.17711e-06
3.17655e-06
3.17607e-06
3.17664e-06
3.17707e-06
3.17754e-06
3.17802e-06
3.17846e-06
3.1788e-06
3.17904e-06
3.17919e-06
3.17924e-06
3.1792e-06
3.17907e-06
3.17884e-06
3.17851e-06
3.17809e-06
3.17758e-06
3.17703e-06
3.17655e-06
3.17702e-06
3.17744e-06
3.1779e-06
3.17838e-06
3.1788e-06
3.17913e-06
3.17936e-06
3.17951e-06
3.17956e-06
3.17952e-06
3.17939e-06
3.17917e-06
3.17885e-06
3.17844e-06
3.17794e-06
3.1774e-06
3.17693e-06
3.17729e-06
3.17771e-06
3.17816e-06
3.17863e-06
3.17904e-06
3.17936e-06
3.17959e-06
3.17974e-06
3.17979e-06
3.17975e-06
3.17962e-06
3.1794e-06
3.17909e-06
3.17869e-06
3.1782e-06
3.17767e-06
3.1772e-06
3.17745e-06
3.17788e-06
3.17832e-06
3.17878e-06
3.17919e-06
3.17951e-06
3.17974e-06
3.17988e-06
3.17993e-06
3.17989e-06
3.17976e-06
3.17955e-06
3.17924e-06
3.17884e-06
3.17836e-06
3.17784e-06
3.17737e-06
3.17751e-06
3.17794e-06
3.17838e-06
3.17884e-06
3.17924e-06
3.17956e-06
3.17979e-06
3.17993e-06
3.17998e-06
3.17994e-06
3.17981e-06
3.1796e-06
3.1793e-06
3.1789e-06
3.17842e-06