/*--------------------------------*- C++ -*----------------------------------*\
  =========                 |
  \\      /  F ield         | OpenFOAM: The Open Source CFD Toolbox
   \\    /   O peration     | Website:  https://openfoam.org
    \\  /    A nd           | Version:  6
     \\/     M anipulation  |
\*---------------------------------------------------------------------------*/
FoamFile
{
    version     2.0;
    format      ascii;
    class       surfaceScalarField;
    location    "0";
    object      phi;
}
// * * * * * * * * * * * * * * * * * * * * * * * * * * * * * * * * * * * * * //

dimensions      [0 3 -1 0 0 0 0];

internalField   nonuniform List<scalar> 
17780
(
0.00140905
0.00101072
0.00085083
0.000558221
0.000578802
0.000272028
0.000430884
0.000147918
0.000345309
8.55755e-05
0.000292448
5.28606e-05
0.00025797
3.44782e-05
0.000234625
2.33453e-05
0.000218443
1.61812e-05
0.000207078
1.13651e-05
0.000199048
8.03056e-06
0.000193369
5.67913e-06
0.000189365
4.00392e-06
0.000186559
2.80536e-06
0.000184611
1.94803e-06
0.000183274
1.33715e-06
0.000182369
9.04958e-07
0.000181767
6.02316e-07
0.000181374
3.93324e-07
0.000181122
2.51658e-07
0.000180964
1.58016e-07
0.000180866
9.828e-08
0.000180803
6.21591e-08
0.000180761
4.21858e-08
0.000180728
3.29548e-08
0.000180698
3.05481e-08
0.000180666
3.20962e-08
0.00018063
3.5439e-08
0.000180591
3.88605e-08
0.000180551
4.08745e-08
0.00018051
4.00422e-08
0.000180476
3.48037e-08
0.000180452
2.33071e-08
0.000180449
3.21287e-09
0.000180478
-2.85544e-08
0.000180554
-7.61473e-08
0.000180699
-1.45298e-07
0.000180943
-2.44102e-07
0.000181328
-3.84297e-07
0.000181911
-5.83486e-07
0.00018278
-8.69243e-07
0.000184068
-1.28729e-06
0.000185987
-1.91929e-06
0.000188912
-2.92492e-06
0.000193561
-4.64962e-06
0.000201495
-7.93389e-06
0.000216602
-1.51071e-05
0.00024904
-3.24372e-05
0.000328709
-7.96688e-05
-0.000279561
0.000608269
0.00225695
0.00117355
0.00178876
0.00102642
0.00140002
0.000660765
0.00113048
0.000417458
0.0009478
0.000268258
0.00082298
0.00017768
0.000736308
0.00012115
0.00067522
8.44332e-05
0.000631701
5.97009e-05
0.000600503
4.25626e-05
0.000578088
3.04461e-05
0.000561998
2.17689e-05
0.000550491
1.55106e-05
0.000542311
1.09854e-05
0.000536542
7.71669e-06
0.000532514
5.36532e-06
0.000529734
3.68528e-06
0.00052784
2.49626e-06
0.000526568
1.66521e-06
0.000525726
1.09369e-06
0.000525175
7.08933e-07
0.000524816
4.57231e-07
0.000524579
2.99105e-07
0.000524416
2.05623e-07
0.000524293
1.55615e-07
0.00052419
1.33542e-07
0.000524094
1.27854e-07
0.000524
1.29707e-07
0.000523907
1.31948e-07
0.00052382
1.28283e-07
0.000523747
1.12552e-07
0.000523704
7.80536e-08
0.00052371
1.68333e-08
0.000523795
-8.11341e-08
0.000523995
-2.29e-07
0.000524364
-4.44506e-07
0.00052497
-7.52147e-07
0.000525913
-1.18653e-06
0.000527326
-1.79785e-06
0.000529404
-2.66124e-06
0.000532428
-3.89354e-06
0.000536826
-5.68514e-06
0.000543271
-8.36432e-06
0.000552881
-1.25351e-05
0.000567623
-1.93909e-05
0.000591166
-3.14772e-05
0.000630684
-5.46252e-05
0.000700848
-0.000102601
0.000831284
-0.000210105
-0.00048646
0.00103818
0.00249032
0.001103
0.00225849
0.00125825
0.00194053
0.000978722
0.00166232
0.000695666
0.00144601
0.000484566
0.00128469
0.000339008
0.00116606
0.000239776
0.00107916
0.000171337
0.00101553
0.000123323
0.000968989
8.91077e-05
0.000935003
6.44322e-05
0.000910274
4.64984e-05
0.000892371
3.34137e-05
0.000879494
2.38615e-05
0.000870308
1.69036e-05
0.000863814
1.18593e-05
0.000859271
8.22761e-06
0.00085613
5.63711e-06
0.000853985
3.81104e-06
0.000852535
2.54295e-06
0.000851565
1.67901e-06
0.000850918
1.10494e-06
0.000850481
7.36098e-07
0.000850176
5.10003e-07
0.000849951
3.80565e-07
0.000849771
3.13639e-07
0.000849615
2.83571e-07
0.000849475
2.70478e-07
0.000849348
2.58074e-07
0.000849245
2.31858e-07
0.00084918
1.77532e-07
0.000849178
7.94845e-08
0.000849276
-8.07973e-08
0.000849522
-3.26598e-07
0.000849981
-6.88378e-07
0.000850744
-1.20711e-06
0.000851931
-1.93919e-06
0.000853708
-2.964e-06
0.000856306
-4.39609e-06
0.000860051
-6.40552e-06
0.00086541
-9.2534e-06
0.000873082
-1.33566e-05
0.000884128
-1.94109e-05
0.000900229
-2.86356e-05
0.000924115
-4.32774e-05
0.00096032
-6.76813e-05
0.00101628
-0.000110587
0.00110351
-0.000189829
0.00123414
-0.000340735
-0.000635623
0.0013833
0.00255535
0.000967426
0.002481
0.0013326
0.00227394
0.00118579
0.00204376
0.000925841
0.00183847
0.000689853
0.0016712
0.000506276
0.00154059
0.000370387
0.00144079
0.000271139
0.00136546
0.000198653
0.00130907
0.000145495
0.00126716
0.000106351
0.0012362
7.74535e-05
0.0012135
5.61114e-05
0.00119699
4.03762e-05
0.00118507
2.88178e-05
0.00117656
2.03749e-05
0.00117053
1.42533e-05
0.00116631
9.85614e-06
0.00116339
6.73378e-06
0.00116139
4.54791e-06
0.00116002
3.04447e-06
0.00115909
2.03331e-06
0.00115846
1.3727e-06
0.00115801
9.57236e-07
0.00115768
7.08632e-07
0.00115743
5.68395e-07
0.00115722
4.92161e-07
0.00115704
4.45177e-07
0.0011569
3.98647e-07
0.00115681
3.26669e-07
0.00115678
2.0352e-07
0.00115686
1.03369e-09
0.00115709
-3.14177e-07
0.00115755
-7.8399e-07
0.00115832
-1.46298e-06
0.00115954
-2.42423e-06
0.00116137
-3.76781e-06
0.00116404
-5.63364e-06
0.00116787
-8.22182e-06
0.00117329
-1.18259e-05
0.00118092
-1.68888e-05
0.00119167
-2.41008e-05
0.00120683
-3.45748e-05
0.00122836
-5.01704e-05
0.00125919
-7.40989e-05
0.00130356
-0.000112056
0.00136725
-0.000174274
0.00145625
-0.000278829
0.00157023
-0.000454718
-0.00074318
0.00167779
0.00256048
0.000826718
0.00257862
0.00131447
0.00247058
0.00129383
0.00230684
0.00108958
0.00213721
0.000859479
0.00198545
0.000658039
0.00185913
0.000496706
0.00175811
0.000372158
0.00167927
0.000277495
0.00161874
0.000206027
0.00157284
0.000152252
0.00153839
0.000111899
0.00151279
8.17138e-05
0.00149393
5.9229e-05
0.00148018
4.25701e-05
0.00147025
3.03099e-05
0.00146314
2.13596e-05
0.00145811
1.48882e-05
0.00145458
1.02624e-05
0.00145213
7.00096e-06
0.00145043
4.73948e-06
0.00144926
3.20322e-06
0.00144845
2.18596e-06
0.00144787
1.53339e-06
0.00144745
1.13002e-06
0.00144713
8.88902e-07
0.00144688
7.43503e-07
0.00144668
6.41165e-07
0.00144654
5.37787e-07
0.00144648
3.93307e-07
0.00144651
1.67662e-07
0.0014467
-1.83133e-07
0.0014471
-7.11183e-07
0.00144779
-1.48163e-06
0.00144891
-2.57899e-06
0.0014506
-4.11577e-06
0.00145308
-6.24489e-06
0.00145662
-9.17833e-06
0.00146162
-1.32158e-05
0.00146858
-1.87901e-05
0.00147823
-2.65418e-05
0.00149157
-3.7442e-05
0.00151
-5.30016e-05
0.00153546
-7.56274e-05
0.00157059
-0.000109226
0.00161872
-0.000160192
0.00168332
-0.000238873
0.00176571
-0.000361217
0.00185921
-0.000548216
-0.000819895
0.00193592
0.00254496
0.000701532
0.00261341
0.00124601
0.00258112
0.00132613
0.00248286
0.00118784
0.00235886
0.000983483
0.00223522
0.000781678
0.00212473
0.00060719
0.00203184
0.000465054
0.00195661
0.00035272
0.00189722
0.000265419
0.00185119
0.000198283
0.00181604
0.000147054
0.00178952
0.000108229
0.00176975
7.90028e-05
0.00175516
5.71596e-05
0.0017445
4.09633e-05
0.0017368
2.90602e-05
0.00173129
2.03998e-05
0.00172738
1.41713e-05
0.00172463
9.75166e-06
0.00172271
6.66516e-06
0.00172136
4.55046e-06
0.00172041
3.13441e-06
0.00171973
2.21125e-06
0.00171924
1.62591e-06
0.00171886
1.26076e-06
0.00171858
1.025e-06
0.00171838
8.46044e-07
0.00171825
6.62443e-07
0.00171823
4.17846e-07
0.00171834
5.55179e-08
0.00171865
-4.87011e-07
0.00171922
-1.28366e-06
0.00172016
-2.42655e-06
0.00172162
-4.03448e-06
0.00172377
-6.26455e-06
0.00172685
-9.32846e-06
0.00173119
-1.35165e-05
0.00173721
-1.92336e-05
0.00174547
-2.70549e-05
0.00175674
-3.7812e-05
0.00177203
-5.27313e-05
0.00179268
-7.36511e-05
0.00182042
-0.000103366
0.00185734
-0.000146147
0.00190562
-0.000208473
0.00196659
-0.000299844
0.00203846
-0.000433087
0.00211218
-0.000621939
-0.000873392
0.00216568
0.00252533
0.000595976
0.00261824
0.0011531
0.00263935
0.00130502
0.0025975
0.00122968
0.00252003
0.00106095
0.00243025
0.000871461
0.00234267
0.000694767
0.00226458
0.000543149
0.00219861
0.000418691
0.00214484
0.000319182
0.00210214
0.000240987
0.00206888
0.000180315
0.00204338
0.000133724
0.00202411
9.82784e-05
0.00200971
7.15554e-05
0.00199908
5.15934e-05
0.00199131
3.68269e-05
0.0019857
2.60189e-05
0.00198167
1.8201e-05
0.0019788
1.26211e-05
0.00197676
8.69959e-06
0.00197532
5.99269e-06
0.00197429
4.16269e-06
0.00197355
2.95341e-06
0.001973
2.1705e-06
0.0019726
1.66538e-06
0.0019723
1.32236e-06
0.0019721
1.04802e-06
0.001972
7.62461e-07
0.00197203
3.91656e-07
0.00197222
-1.39415e-07
0.00197265
-9.13589e-07
0.00197339
-2.02879e-06
0.00197457
-3.60654e-06
0.00197634
-5.80266e-06
0.0019789
-8.82152e-06
0.00198251
-1.29359e-05
0.00198751
-1.85153e-05
0.00199434
-2.60675e-05
0.00200358
-3.63004e-05
0.00201599
-5.02141e-05
0.0020325
-6.924e-05
0.00205429
-9.54464e-05
0.00208276
-0.000131835
0.00211935
-0.000182734
0.00216512
-0.000254244
0.00221977
-0.000354497
0.00227977
-0.000493092
0.00233591
-0.000678072
-0.00090905
0.00237157
0.00250752
0.000508228
0.00261008
0.00105055
0.00266682
0.00124827
0.00267016
0.00122634
0.00263533
0.00109579
0.00258042
0.000926366
0.00251919
0.000756001
0.00246007
0.000602266
0.00240739
0.000471378
0.00236275
0.000363818
0.00232624
0.000277498
0.00229714
0.000209414
0.00227441
0.000156449
0.00225696
0.000115732
0.00224375
8.47691e-05
0.00223387
6.14717e-05
0.00222657
4.41288e-05
0.00222122
3.13626e-05
0.00221735
2.20786e-05
0.00221455
1.54169e-05
0.00221254
1.07083e-05
0.0022111
7.43687e-06
0.00221005
5.20676e-06
0.00220929
3.71588e-06
0.00220873
2.73339e-06
0.00220831
2.08149e-06
0.00220801
1.62045e-06
0.00220783
1.23634e-06
0.00220776
8.30605e-07
0.00220784
3.11048e-07
0.00220811
-4.16448e-07
0.00220866
-1.45609e-06
0.00220956
-2.93095e-06
0.00221095
-4.99308e-06
0.00221298
-7.83618e-06
0.00221587
-1.17121e-05
0.00221989
-1.69535e-05
0.00222538
-2.40051e-05
0.00223278
-3.34683e-05
0.00224264
-4.61651e-05
0.00225566
-6.32293e-05
0.00227265
-8.62358e-05
0.00229458
-0.000117378
0.00232245
-0.000159695
0.00235704
-0.000217332
0.00239853
-0.000295725
0.00244549
-0.000401458
0.00249365
-0.000541258
0.00253464
-0.000719061
-0.000930655
0.00255625
0.00249301
0.000434992
0.00259732
0.000946245
0.00267684
0.00116875
0.00271478
0.0011884
0.00271667
0.0010939
0.0026948
0.000948236
0.00266067
0.000790122
0.00262262
0.000640324
0.00258573
0.000508264
0.00255269
0.000396858
0.00252456
0.000305628
0.00250145
0.000232524
0.00248296
0.000174935
0.00246849
0.00013021
0.00245734
9.59149e-05
0.00244888
6.9929e-05
0.00244255
5.04675e-05
0.00243784
3.60645e-05
0.00243438
2.55378e-05
0.00243185
1.79473e-05
0.00243001
1.2555e-05
0.00242866
8.78675e-06
0.00242766
6.19924e-06
0.00242693
4.45175e-06
0.00242638
3.28209e-06
0.00242597
2.48673e-06
0.00242569
1.90427e-06
0.00242553
1.40167e-06
0.00242549
8.62517e-07
0.00242563
1.76793e-07
0.00242598
-7.68661e-07
0.00242662
-2.09953e-06
0.00242766
-3.96406e-06
0.00242921
-6.54465e-06
0.00243144
-1.0072e-05
0.00243458
-1.48434e-05
0.00243887
-2.12469e-05
0.00244466
-2.97944e-05
0.00245236
-4.11667e-05
0.00246247
-5.62756e-05
0.00247559
-7.6348e-05
0.00249239
-0.000103038
0.00251357
-0.000138565
0.00253975
-0.000185873
0.00257118
-0.000248755
0.0026073
-0.000331845
0.00264606
-0.000440227
0.00268308
-0.000578278
0.00271118
-0.000747152
-0.000940917
0.00272144
0.00248172
0.000373051
0.00258391
0.000844056
0.00267741
0.00107525
0.00274106
0.00112475
0.00277333
0.00106163
0.00278114
0.000940428
0.00277312
0.000798145
0.00275658
0.000656863
0.00273672
0.000528126
0.00271677
0.000416805
0.00269851
0.000323886
0.00268274
0.000248301
0.00266963
0.000188038
0.00265906
0.000140781
0.00265072
0.000104254
0.00264426
7.63925e-05
0.00263932
5.54065e-05
0.00263559
3.9797e-05
0.00263279
2.83357e-05
0.0026307
2.00349e-05
0.00262915
1.4111e-05
0.00262798
9.95006e-06
0.00262711
7.07453e-06
0.00262644
5.11482e-06
0.00262594
3.78449e-06
0.00262557
2.85935e-06
0.00262531
2.1599e-06
0.00262518
1.5365e-06
0.00262518
8.56603e-07
0.00262537
-6.45724e-09
0.00262578
-1.184e-06
0.00262651
-2.82238e-06
0.00262764
-5.09406e-06
0.0026293
-8.21028e-06
0.00263167
-1.24363e-05
0.00263493
-1.81107e-05
0.00263936
-2.56704e-05
0.00264525
-3.56834e-05
0.00265297
-4.88923e-05
0.00266297
-6.62714e-05
0.00267572
-8.90996e-05
0.00269173
-0.00011905
0.00271145
-0.000158288
0.00273514
-0.000209561
0.0027626
-0.000276217
0.00279282
-0.000362062
0.00282344
-0.000470843
0.00285028
-0.000605124
0.00286741
-0.000764275
-0.000941828
0.00286832
0.00247311
0.000319714
0.00257155
0.000745617
0.00267324
0.000973563
0.0027556
0.00104238
0.00281234
0.00100489
0.00284586
0.000906903
0.00286185
0.000782163
0.00286613
0.000652579
0.00286347
0.000530785
0.00285727
0.00042301
0.00284972
0.000331433
0.00284213
0.000255885
0.0028352
0.000194971
0.00282922
0.000146766
0.00282424
0.000109227
0.00282022
8.0413e-05
0.00281704
5.85943e-05
0.00281454
4.22899e-05
0.00281261
3.02683e-05
0.00281112
2.1527e-05
0.00280997
1.52639e-05
0.00280907
1.08448e-05
0.00280837
7.77348e-06
0.00280782
5.66296e-06
0.0028074
4.21116e-06
0.00280708
3.17959e-06
0.00280686
2.37531e-06
0.00280676
1.63545e-06
0.0028068
8.13862e-07
0.00280703
-2.30832e-07
0.00280749
-1.64646e-06
0.00280827
-3.59842e-06
0.00280946
-6.2815e-06
0.00281118
-9.93319e-06
0.00281359
-1.48496e-05
0.00281689
-2.1405e-05
0.00282129
-3.00765e-05
0.00282708
-4.14756e-05
0.00283458
-5.63878e-05
0.00284413
-7.58225e-05
0.0028561
-0.000101072
0.00287083
-0.000133778
0.00288853
-0.000175991
0.00290917
-0.000230196
0.00293221
-0.000299262
0.00295636
-0.000386209
0.00297918
-0.000493661
0.0029969
-0.000622841
0.00300467
-0.000772044
-0.0009349
0.00299774
0.00246662
0.000272867
0.00256087
0.000651372
0.00266703
0.000867404
0.0027628
0.000946607
0.00283886
0.000928841
0.00289408
0.000851676
0.00293142
0.000744828
0.00295506
0.000628943
0.00296899
0.000516847
0.00297648
0.000415527
0.00297989
0.000328014
0.0029809
0.000254881
0.00298057
0.000195298
0.00297959
0.000147749
0.00297835
0.000110465
0.00297708
8.1681e-05
0.0029759
5.97791e-05
0.00297484
4.33438e-05
0.00297393
3.11805e-05
0.00297315
2.23054e-05
0.00297249
1.59243e-05
0.00297193
1.14046e-05
0.00297146
8.24729e-06
0.00297106
6.06094e-06
0.00297073
4.53738e-06
0.00297048
3.43109e-06
0.00297032
2.54111e-06
0.00297026
1.69549e-06
0.00297033
7.37639e-07
0.00297059
-4.85943e-07
0.00297108
-2.1373e-06
0.00297188
-4.39853e-06
0.00297308
-7.48403e-06
0.0029748
-1.16541e-05
0.00297718
-1.7231e-05
0.0029804
-2.46179e-05
0.00298464
-3.43228e-05
0.00299015
-4.69869e-05
0.00299719
-6.34201e-05
0.00300601
-8.46415e-05
0.00301686
-0.000111924
0.00302992
-0.000146837
0.0030452
-0.000191272
0.00306243
-0.000247425
0.00308085
-0.000317686
0.00309901
-0.000404373
0.00311456
-0.000509201
0.00312416
-0.000632445
0.00312392
-0.000771804
-0.000921315
0.00311034
0.00246174
0.000230901
0.00255195
0.000561162
0.00266029
0.000759064
0.00276556
0.000841344
0.00285664
0.000837757
0.0029298
0.000778512
0.00298563
0.000689001
0.00302668
0.000587892
0.00305604
0.000487483
0.0030766
0.000394968
0.00309075
0.000313872
0.00310032
0.000245304
0.0031067
0.000188917
0.00311088
0.000143575
0.00311354
0.000107798
0.00311519
8.00351e-05
0.00311615
5.88185e-05
0.00311666
4.28387e-05
0.00311686
3.09744e-05
0.00311688
2.22921e-05
0.00311677
1.60315e-05
0.00311659
1.15825e-05
0.00311638
8.46061e-06
0.00311616
6.28267e-06
0.00311595
4.74468e-06
0.00311578
3.60182e-06
0.00311567
2.65109e-06
0.00311565
1.71603e-06
0.00311575
6.33316e-07
0.00311602
-7.5962e-07
0.00311652
-2.63619e-06
0.00311732
-5.19233e-06
0.00311849
-8.65871e-06
0.00312015
-1.33144e-05
0.00312242
-1.95021e-05
0.00312545
-2.76471e-05
0.00312941
-3.82779e-05
0.00313447
-5.20527e-05
0.00314084
-6.97878e-05
0.00314869
-9.24898e-05
0.00315815
-0.000121386
0.00316926
-0.000157944
0.00318186
-0.000203872
0.0031955
-0.000261067
0.00320928
-0.000331472
0.00322171
-0.000416801
0.00323058
-0.000518064
0.00323301
-0.000634882
0.00322589
-0.000764681
-0.000902029
0.0032066
0.00245808
0.000192598
0.00254469
0.000474553
0.00265385
0.000649905
0.00276575
0.00072944
0.00286838
0.000735128
0.0029561
0.000690796
0.00302756
0.000617538
0.00308384
0.000531613
0.00312708
0.000444246
0.00315968
0.000362366
0.0031839
0.00028965
0.00320167
0.000227533
0.00321456
0.000176025
0.00322381
0.000134329
0.00323036
0.000101248
0.00323493
7.54612e-05
0.00323807
5.56814e-05
0.00324017
4.07374e-05
0.00324153
2.96128e-05
0.00324237
2.1453e-05
0.00324285
1.55559e-05
0.00324308
1.1354e-05
0.00324314
8.39355e-06
0.00324311
6.31278e-06
0.00324304
4.82193e-06
0.00324295
3.6848e-06
0.0032429
2.70248e-06
0.00324292
1.69892e-06
0.00324305
5.07937e-07
0.00324332
-1.03863e-06
0.00324381
-3.1224e-06
0.00324457
-5.94981e-06
0.00324567
-9.76412e-06
0.00324722
-1.48585e-05
0.00324931
-2.15907e-05
0.00325206
-3.04001e-05
0.00325561
-4.18265e-05
0.00326009
-5.65323e-05
0.00326562
-7.53251e-05
0.00327232
-9.91804e-05
0.00328019
-0.000129259
0.00328915
-0.000166909
0.00329893
-0.000213646
0.00330893
-0.000271074
0.0033182
-0.000340736
0.00332524
-0.000423844
0.00332805
-0.000520872
0.00332418
-0.000631015
0.00331113
-0.000751624
-0.000877836
0.00328693
0.00245534
0.000157037
0.00253889
0.000391001
0.00264811
0.000540686
0.00276461
0.000612936
0.00287599
0.000623746
0.0029753
0.000591491
0.00305967
0.000533166
0.00312889
0.00046239
0.00318421
0.000388928
0.00322751
0.000319062
0.00326085
0.000256316
0.00328614
0.000202241
0.00330508
0.000157084
0.00331909
0.000120318
0.00332933
9.1014e-05
0.0033367
6.80859e-05
0.00334194
5.04451e-05
0.00334559
3.70847e-05
0.00334808
2.71198e-05
0.00334974
1.9799e-05
0.00335079
1.45004e-05
0.00335143
1.07177e-05
0.00335178
8.04266e-06
0.00335195
6.14735e-06
0.003352
4.76591e-06
0.00335201
3.67841e-06
0.00335201
2.69611e-06
0.00335207
1.6482e-06
0.0033522
3.69773e-07
0.00335247
-1.30942e-06
0.00335293
-3.57576e-06
0.00335362
-6.64268e-06
0.00335462
-1.0762e-05
0.003356
-1.62364e-05
0.00335784
-2.34327e-05
0.00336024
-3.27971e-05
0.00336328
-4.48718e-05
0.00336706
-6.03121e-05
0.00337164
-7.99039e-05
0.00337704
-0.000104577
0.00338319
-0.000135412
0.00338991
-0.000173629
0.00339681
-0.000220548
0.00340324
-0.000277502
0.00340819
-0.000345687
0.00341025
-0.000425907
0.00340762
-0.000518241
0.00339823
-0.000621621
0.00338006
-0.000733452
-0.000849414
0.00335163
0.0024533
0.00012351
0.00253436
0.000309943
0.00264326
0.000431784
0.00276291
0.000493288
0.00288082
0.000505837
0.00298915
0.000483163
0.00308389
0.000438427
0.00316376
0.000382514
0.00322923
0.000323463
0.00328168
0.000266613
0.00332291
0.000215082
0.0033548
0.000170348
0.00337911
0.000132775
0.00339739
0.000102042
0.00341095
7.74556e-05
0.00342087
5.81633e-05
0.00342803
4.32872e-05
0.00343311
3.2003e-05
0.00343665
2.35778e-05
0.00343906
1.73847e-05
0.00344066
1.29002e-05
0.00344169
9.69516e-06
0.00344231
7.42093e-06
0.00344266
5.79399e-06
0.00344285
4.58132e-06
0.00344294
3.58635e-06
0.003443
2.63618e-06
0.00344308
1.56991e-06
0.00344322
2.27848e-07
0.00344347
-1.55875e-06
0.00344387
-3.9776e-06
0.00344447
-7.24551e-06
0.00344533
-1.16189e-05
0.0034465
-1.74051e-05
0.00344804
-2.49743e-05
0.00345002
-3.47731e-05
0.00345248
-4.73374e-05
0.00345548
-6.33062e-05
0.00345901
-8.34332e-05
0.00346302
-0.000108592
0.00346738
-0.000139775
0.00347182
-0.00017807
0.00347589
-0.000224611
0.00347887
-0.000280487
0.00347978
-0.000346596
0.0034773
-0.000423423
0.00346982
-0.000510762
0.0034556
-0.000607402
0.00343302
-0.000710871
-0.000817357
0.00340096
0.00245182
9.14624e-05
0.00253094
0.000230829
0.00263939
0.000323333
0.00276114
0.000371532
0.00288379
0.000383187
0.00299892
0.000368034
0.00310168
0.000335671
0.00318996
0.000294231
0.00326357
0.000249856
0.00332346
0.000206722
0.0033712
0.000167342
0.00340859
0.000132964
0.0034374
0.000103962
0.00345928
8.01587e-05
0.00347567
6.10673e-05
0.00348777
4.60595e-05
0.00349659
3.44746e-05
0.00350291
2.56837e-05
0.00350736
1.91225e-05
0.00351044
1.43042e-05
0.00351252
1.08194e-05
0.00351389
8.32961e-06
0.00351475
6.55668e-06
0.00351528
5.27111e-06
0.00351558
4.2803e-06
0.00351575
3.41722e-06
0.00351585
2.5299e-06
0.00351595
1.47158e-06
0.00351609
9.14228e-08
0.0035163
-1.77438e-06
0.00351664
-4.31155e-06
0.00351713
-7.73672e-06
0.00351782
-1.2307e-05
0.00351874
-1.83298e-05
0.00351994
-2.61736e-05
0.00352144
-3.62787e-05
0.00352328
-4.9168e-05
0.00352543
-6.54565e-05
0.00352785
-8.58574e-05
0.00353044
-0.000111182
0.00353299
-0.00014233
0.00353518
-0.000180259
0.0035365
-0.00022593
0.00353623
-0.000280219
0.00353341
-0.000343774
0.00352682
-0.000416834
0.00351506
-0.000498998
0.00349665
-0.000588993
0.00347029
-0.00068451
-0.000782193
0.00343512
0.00245079
6.04448e-05
0.00252848
0.000153138
0.0026365
0.000215318
0.00275962
0.000248414
0.00288556
0.000257248
0.00300555
0.000248046
0.00311415
0.000227071
0.00320866
0.00019972
0.00328837
0.000170138
0.00335391
0.000141186
0.00340663
0.00011462
0.00344826
9.13415e-05
0.00348057
7.1649e-05
0.00350527
5.5456e-05
0.00352388
4.24547e-05
0.00353771
3.22327e-05
0.00354784
2.43485e-05
0.00355514
1.83772e-05
0.00356033
1.39345e-05
0.00356395
1.0686e-05
0.00356642
8.34801e-06
0.00356807
6.68279e-06
0.00356913
5.49168e-06
0.0035698
4.60659e-06
0.0035702
3.88146e-06
0.00357043
3.18386e-06
0.00357057
2.38695e-06
0.00357068
1.36171e-06
0.0035708
-3.05322e-08
0.00357097
-1.94562e-06
0.00357123
-4.56414e-06
0.00357159
-8.09926e-06
0.00357209
-1.2805e-05
0.00357274
-1.89848e-05
0.00357357
-2.70005e-05
0.00357457
-3.72808e-05
0.00357573
-5.03296e-05
0.00357701
-6.67317e-05
0.00357831
-8.71544e-05
0.00357947
-0.000112343
0.00358024
-0.000143103
0.00358025
-0.00018027
0.00357897
-0.000224648
0.00357568
-0.000276927
0.00356946
-0.000337554
0.0035592
-0.000406581
0.00354368
-0.000483479
0.00352166
-0.000566971
0.00349208
-0.000654929
-0.000744401
0.00345429
0.00245014
3.00782e-05
0.0025269
7.63773e-05
0.00263459
0.000107633
0.00275852
0.000124484
0.00288653
0.000129238
0.00300964
0.000124932
0.00312206
0.000114655
0.00322068
0.000101099
0.00330447
8.63477e-05
0.0033738
7.18572e-05
0.00342989
5.85297e-05
0.00347439
4.68367e-05
0.0035091
3.69433e-05
0.00353574
2.88164e-05
0.00355588
2.23074e-05
0.0035709
1.72117e-05
0.00358195
1.33076e-05
0.00358994
1.03794e-05
0.00359565
8.23014e-06
0.00359965
6.68586e-06
0.0036024
5.59617e-06
0.00360425
4.83141e-06
0.00360546
4.27847e-06
0.00360624
3.83588e-06
0.00360671
3.40853e-06
0.00360699
2.90229e-06
0.00360716
2.21865e-06
0.00360727
1.24923e-06
0.00360737
-1.29868e-07
0.00360749
-2.06383e-06
0.00360765
-4.72534e-06
0.00360787
-8.32111e-06
0.00360816
-1.30987e-05
0.00360853
-1.93539e-05
0.00360897
-2.74374e-05
0.00360945
-3.77621e-05
0.00360993
-5.0808e-05
0.00361032
-6.71251e-05
0.0036105
-8.73315e-05
0.00361026
-0.000112104
0.00360932
-0.00014216
0.00360727
-0.000178218
0.00360356
-0.000220943
0.00359751
-0.000270869
0.00358823
-0.000328282
0.00357475
-0.000393095
0.00355597
-0.000464704
0.00353087
-0.000541865
0.00349857
-0.000622637
-0.000704425
0.0034586
0.00244983
2.67404e-08
0.00252613
7.61692e-08
0.00263364
1.24605e-07
0.00275795
1.74661e-07
0.00288696
2.28528e-07
0.0030116
2.88203e-07
0.0031259
3.55571e-07
0.00322657
4.32462e-07
0.00331239
5.20663e-07
0.00338363
6.21903e-07
0.00344142
7.37801e-07
0.00348739
8.69795e-07
0.00352331
1.01902e-06
0.00355094
1.18616e-06
0.00357188
1.37123e-06
0.00358752
1.57331e-06
0.00359903
1.7902e-06
0.00360739
2.01794e-06
0.00361337
2.25031e-06
0.00361758
2.47809e-06
0.00362049
2.68818e-06
0.00362246
2.86258e-06
0.00362376
2.97708e-06
0.0036246
2.99967e-06
0.00362512
2.8887e-06
0.00362543
2.59059e-06
0.00362561
2.03721e-06
0.00362572
1.14278e-06
0.00362579
-1.9976e-07
0.00362585
-2.12284e-06
0.00362591
-4.78891e-06
0.00362598
-8.39559e-06
0.00362607
-1.31812e-05
0.00362614
-1.94302e-05
0.00362618
-2.74792e-05
0.00362614
-3.7721e-05
0.00362594
-5.06082e-05
0.00362547
-6.66531e-05
0.00362456
-8.64228e-05
0.00362299
-0.000110527
0.00362042
-0.000139597
0.00361645
-0.000174247
0.00361053
-0.000215021
0.00360198
-0.00026232
0.00359001
-0.000316306
0.00357371
-0.000376794
0.00355214
-0.000443142
0.00352444
-0.000514164
0.00348991
-0.000588101
-0.000662676
0.00344816
0.00244983
-3.00251e-05
0.00252613
-7.6226e-05
0.00263364
-0.000107386
0.00275795
-0.000124137
0.00288696
-0.000128784
0.00301161
-0.000124359
0.00312592
-0.000113948
0.00322659
-0.000100239
0.00331242
-8.53123e-05
0.00338366
-7.06204e-05
0.00344146
-5.70624e-05
0.00348744
-4.51067e-05
0.00352337
-3.49163e-05
0.00355102
-2.64568e-05
0.00357197
-1.95794e-05
0.00358762
-1.40814e-05
0.00359916
-9.74544e-06
0.00360754
-6.3637e-06
0.00361354
-3.75145e-06
0.00361777
-1.75315e-06
0.00362071
-2.44348e-07
0.0036227
8.68849e-07
0.00362402
1.65143e-06
0.00362488
2.14131e-06
0.00362542
2.3508e-06
0.00362574
2.26756e-06
0.00362593
1.85472e-06
0.00362602
1.05013e-06
0.00362605
-2.35162e-07
0.00362605
-2.11926e-06
0.00362601
-4.75256e-06
0.00362594
-8.32145e-06
0.00362581
-1.30524e-05
0.0036256
-1.92162e-05
0.00362525
-2.71319e-05
0.0036247
-3.71698e-05
0.00362384
-4.97524e-05
0.00362254
-6.53523e-05
0.00362061
-8.44854e-05
0.00361777
-0.000107697
0.00361371
-0.000135537
0.00360799
-0.000168527
0.00360008
-0.000207106
0.00358933
-0.000251568
0.003575
-0.000301977
0.00355629
-0.000358083
0.00353238
-0.000419236
0.00350254
-0.000484322
0.00346619
-0.000551758
-0.000619545
0.00342306
0.00245014
-6.0393e-05
0.00252691
-0.00015299
0.0026346
-0.000215075
0.00275853
-0.000248073
0.00288655
-0.000256802
0.00300968
-0.000247483
0.0031221
-0.000226376
0.00322074
-0.000198875
0.00330455
-0.00016912
0.0033739
-0.00013997
0.00343001
-0.000113177
0.00347455
-8.964e-05
0.00350928
-6.9655e-05
0.00353596
-5.31343e-05
0.00355615
-3.97699e-05
0.00357122
-2.91512e-05
0.00358232
-2.08408e-05
0.00359038
-1.44216e-05
0.00359615
-9.52133e-06
0.00360022
-5.82341e-06
0.00360304
-3.06955e-06
0.00360497
-1.0571e-06
0.00360625
3.655e-07
0.00360709
1.30402e-06
0.00360762
1.82333e-06
0.00360793
1.95143e-06
0.00360811
1.6823e-06
0.00360818
9.7753e-07
0.00360818
-2.33185e-07
0.00360811
-2.05272e-06
0.00360798
-4.61808e-06
0.00360776
-8.10275e-06
0.00360742
-1.27194e-05
0.00360693
-1.87229e-05
0.00360621
-2.64127e-05
0.00360518
-3.61342e-05
0.0036037
-4.82782e-05
0.00360163
-6.32769e-05
0.00359874
-8.15959e-05
0.00359476
-0.000103718
0.00358934
-0.000130122
0.00358206
-0.000161244
0.00357239
-0.000197435
0.00355972
-0.000238902
0.00354339
-0.000285639
0.00352266
-0.000337353
0.00349683
-0.000393405
0.00346527
-0.000452766
0.00342753
-0.000514016
-0.000575403
0.00338339
0.0024508
-9.14126e-05
0.00252849
-0.000230686
0.00263652
-0.000323099
0.00275964
-0.000371203
0.0028856
-0.000382755
0.0030056
-0.000367489
0.00311422
-0.000334998
0.00320876
-0.00029341
0.00328851
-0.000248867
0.00335408
-0.000205541
0.00340684
-0.00016594
0.00344851
-0.000131309
0.00348088
-0.000102022
0.00350564
-7.78994e-05
0.00352432
-5.84537e-05
0.00353823
-4.30584e-05
0.00354845
-3.10569e-05
0.00355585
-2.18275e-05
0.00356115
-1.48176e-05
0.00356488
-9.55751e-06
0.00356748
-5.66245e-06
0.00356925
-2.82765e-06
0.00357043
-8.20498e-07
0.00357121
5.28234e-07
0.0035717
1.3326e-06
0.00357199
1.65852e-06
0.00357215
1.52923e-06
0.00357219
9.29232e-07
0.00357215
-1.93383e-07
0.00357203
-1.92592e-06
0.0035718
-4.3912e-06
0.00357145
-7.74864e-06
0.00357092
-1.21957e-05
0.00357017
-1.79696e-05
0.00356911
-2.53485e-05
0.00356762
-3.46515e-05
0.00356558
-4.62368e-05
0.0035628
-6.04967e-05
0.00355905
-7.78476e-05
0.00355405
-9.87152e-05
0.00354744
-0.00012351
0.00353879
-0.000152598
0.00352761
-0.000186255
0.00351333
-0.000224619
0.00349532
-0.000267631
0.00347295
-0.000314979
0.00344559
-0.00036605
0.00341272
-0.000419899
0.00337397
-0.000475263
-0.000530608
0.00332918
0.00245183
-0.000123463
0.00253095
-0.000309808
0.00263941
-0.000431561
0.00276118
-0.000492973
0.00288385
-0.000505424
0.002999
-0.000482641
0.00310179
-0.000437782
0.0031901
-0.000381727
0.00326375
-0.000322515
0.00332369
-0.000265479
0.00337148
-0.000213735
0.00340893
-0.000168758
0.00343782
-0.00013091
0.00345979
-9.98683e-05
0.00347628
-7.49399e-05
0.00348849
-5.52728e-05
0.00349743
-3.99934e-05
0.00350388
-2.82838e-05
0.00350849
-1.94225e-05
0.00351173
-1.27985e-05
0.00351398
-7.91173e-06
0.00351552
-4.36525e-06
0.00351655
-1.85366e-06
0.00351723
-1.50931e-07
0.00351766
9.00994e-07
0.00351792
1.40211e-06
0.00351804
1.40224e-06
0.00351807
9.07044e-07
0.00351799
-1.17901e-07
0.00351781
-1.74458e-06
0.0035175
-4.08139e-06
0.00351702
-7.27292e-06
0.00351633
-1.15004e-05
0.00351534
-1.69824e-05
0.00351397
-2.39746e-05
0.00351208
-3.2769e-05
0.00350954
-4.36911e-05
0.00350614
-5.70937e-05
0.00350164
-7.3347e-05
0.00349574
-9.28227e-05
0.00348811
-0.000115873
0.00347831
-0.000142799
0.00346587
-0.000173816
0.00345026
-0.00020901
0.00343091
-0.000248285
0.00340726
-0.000291325
0.00337876
-0.000337551
0.00334497
-0.000386107
0.00330558
-0.000435872
-0.000485509
0.00326048
0.00245331
-0.000156993
0.00253437
-0.000390875
0.00264329
-0.000540477
0.00276296
-0.00061264
0.00288089
-0.000623356
0.00298924
-0.000590998
0.00308402
-0.000532555
0.00316394
-0.000461645
0.00322945
-0.00038803
0.00328196
-0.000317987
0.00332326
-0.000255039
0.00335524
-0.000200731
0.00337964
-0.000155312
0.00339802
-0.000118252
0.0034117
-8.86212e-05
0.00342177
-6.53346e-05
0.00342908
-4.73072e-05
0.00343433
-3.35385e-05
0.00343806
-2.31534e-05
0.00344068
-1.54159e-05
0.0034425
-9.72582e-06
0.00344374
-5.60681e-06
0.00344458
-2.69153e-06
0.00344513
-7.05866e-07
0.00344549
5.4549e-07
0.0034457
1.19152e-06
0.00344579
1.30496e-06
0.00344579
9.10115e-07
0.00344568
-1.14918e-08
0.00344546
-1.51732e-06
0.00344508
-3.70147e-06
0.0034445
-6.69352e-06
0.00344366
-1.06579e-05
0.00344247
-1.57937e-05
0.00344083
-2.23337e-05
0.0034386
-3.05426e-05
0.00343562
-4.07134e-05
0.00343169
-5.31607e-05
0.00342655
-6.82109e-05
0.00341992
-8.61869e-05
0.00341143
-0.000107388
0.00340069
-0.000132062
0.00338725
-0.000160373
0.00337061
-0.000192367
0.00335025
-0.000227928
0.00332567
-0.000266742
0.00329639
-0.000308276
0.00326205
-0.000351759
0.00322238
-0.000396203
-0.000440445
0.00317731
0.00245534
-0.000192558
0.0025389
-0.000474437
0.00264814
-0.000649712
0.00276466