/*--------------------------------*- C++ -*----------------------------------*\
  =========                 |
  \\      /  F ield         | OpenFOAM: The Open Source CFD Toolbox
   \\    /   O peration     | Website:  https://openfoam.org
    \\  /    A nd           | Version:  6
     \\/     M anipulation  |
\*---------------------------------------------------------------------------*/
FoamFile
{
    version     2.0;
    format      ascii;
    class       volScalarField;
    location    "0";
    object      p;
}
// * * * * * * * * * * * * * * * * * * * * * * * * * * * * * * * * * * * * * //

dimensions      [0 2 -2 0 0 0 0];

internalField   nonuniform List<scalar> 
13046
(
0.416657
0.386697
0.399129
0.429948
0.407236
0.379852
0.415296
0.382745
0.406951
0.244152
-0.0947878
0.34925
0.419636
0.330358
0.388335
0.285472
0.344751
-0.0190162
0.426178
0.403092
0.415167
0.279878
0.348078
-0.0312415
0.419297
0.410966
0.399156
0.405591
0.337336
0.387025
0.424134
0.360595
0.389137
0.42536
0.411759
0.403708
0.423086
0.416019
0.410643
0.406547
0.382144
0.376569
0.414746
0.428332
0.417903
0.423161
0.41397
0.411105
0.410227
0.378628
0.40002
0.337162
0.391297
0.346392
0.348608
0.338361
0.392145
0.173809
0.363334
0.349767
0.383001
0.276862
0.381586
0.356982
0.0851791
0.32282
0.368082
0.193807
0.345305
0.377227
0.214326
0.346651
0.138476
0.353661
0.349471
0.425604
0.414038
0.404225
0.352193
0.33728
0.113203
0.417896
0.400604
0.397028
0.353352
0.047134
0.302837
0.306195
0.362033
0.1049
0.358337
0.269067
0.0910892
0.379687
0.369905
0.241903
0.217897
0.368282
0.369737
0.363976
0.306879
0.125139
0.427882
0.415749
0.403993
0.402997
0.362155
0.358576
0.397404
0.37059
0.367872
0.159727
0.345627
-0.250615
0.420605
0.351807
0.387379
0.366714
0.37639
0.194353
0.360971
0.232415
0.36296
0.227326
-0.136025
0.347576
0.403805
0.270609
0.381424
0.4072
0.381315
0.369402
0.360351
0.280033
0.1336
0.353399
0.172031
0.36602
0.41985
0.348157
0.383007
0.400278
0.362307
0.394353
0.390468
0.354224
0.374075
0.402913
0.380538
0.376857
0.381283
0.249376
0.379234
0.414218
0.395854
0.378876
0.310104
0.343441
0.293807
0.341866
0.384859
0.38274
0.403294
0.330373
0.393974
0.237168
0.350252
-0.0841575
0.189006
0.346446
-0.212356
0.347559
0.144348
0.363258
0.405635
0.322517
0.371436
0.403701
0.396929
0.343095
0.353656
-0.0338748
0.250736
0.405155
0.34229
0.365168
0.411329
0.38437
0.367612
0.405815
0.366425
0.395939
0.315108
0.392357
0.405152
0.297985
0.379505
0.297958
0.357975
0.0589057
0.364129
0.302901
0.145513
0.271036
0.0781637
0.358675
0.322481
0.320214
0.381142
0.410476
0.340929
0.344919
0.116919
0.0371633
0.268922
0.356525
0.420436
0.416151
0.406115
0.407504
0.350976
0.383344
0.364172
0.291971
0.153908
0.404842
0.324678
0.395921
0.348306
-0.15854
0.194263
0.38021
0.322758
0.310571
0.288767
0.114413
0.36211
0.364452
0.315145
0.391957
0.393665
0.28349
0.381203
0.211682
0.301664
0.363655
0.330832
0.271954
0.375558
0.349069
-0.166192
0.176901
0.405195
0.372418
0.347891
0.177829
0.342737
-0.298182
0.41803
0.423177
0.396611
0.376876
0.376014
0.312302
0.324996
0.394743
0.386454
0.343458
0.327747
0.075431
0.399638
0.304116
0.374631
0.33053
0.239205
0.3735
0.35566
0.182345
0.362968
0.417515
0.410998
0.426164
0.357177
0.294213
0.384512
0.40096
0.284763
0.372549
0.40505
0.405553
0.405458
0.361292
0.328664
0.356574
0.272177
0.380915
0.339212
0.360488
0.160844
0.411128
0.369952
0.361816
0.38359
0.328075
0.296779
0.374023
0.220082
0.357185
0.393594
0.342006
0.336919
0.361754
0.361303
0.197395
0.355361
0.18167
0.358699
0.353349
-0.0083087
0.263247
0.380221
0.257222
0.366655
-0.364724
0.34343
0.112523
0.41858
0.409537
0.368789
0.392636
0.296716
0.383752
0.360423
0.312498
0.0981034
0.337086
0.325923
0.388537
0.184617
0.299901
0.363494
0.35636
0.393133
0.379871
0.290198
0.380359
0.340798
0.398778
0.304758
0.346961
0.0187874
0.333377
0.299262
0.383389
0.371842
0.271049
0.374338
0.392744
0.346755
0.397453
0.365224
0.341924
0.397129
0.42302
0.37534
0.401841
0.379022
0.333973
0.306849
0.28464
0.0643768
0.358924
0.193089
0.297557
0.367106
0.37509
0.344768
0.25963
0.349684
0.35695
0.175853
0.143063
0.346238
0.351037
0.344248
-0.338893
0.133999
0.193206
0.342582
-0.270843
0.372914
0.299897
0.381045
0.356051
0.290889
0.0240759
0.374439
0.375379
0.242077
0.218532
0.359313
0.35431
0.353397
-0.0184326
0.22613
0.164034
0.341621
-0.334922
0.40725
0.425881
0.411792
0.15871
-0.290489
0.345346
0.405426
0.31521
0.364026
0.258088
-0.0152991
0.354367
-0.347664
0.348147
0.0602194
0.409375
0.381522
0.388518
0.416086
0.408986
0.410972
0.229964
0.346654
-0.144946
0.410422
0.394727
0.408528
0.410896
0.425167
0.417076
0.383112
0.307274
0.312395
0.403718
0.406155
0.417297
0.421383
0.368599
0.411545
0.379354
0.275794
0.343864
0.347767
0.350751
-0.0389309
-0.0464032
0.26921
0.265416
0.262831
0.0417488
0.356824
0.35316
0.37421
0.228891
0.400499
0.363129
0.357763
0.32174
0.261966
0.369001
-0.242842
0.347903
0.0996318
0.357322
0.263729
0.0651896
0.201876
0.347349
-0.172674
0.349219
-0.382124
0.0536454
-0.430033
0.34662
0.084936
0.248292
0.353681
0.373869
-0.106829
0.350796
0.172819
0.339057
0.163407
0.366187
0.264914
0.339307
-0.105156
0.415553
0.392783
0.377087
0.0135578
0.35485
0.243017
0.323791
0.371185
0.274372
0.228626
0.330526
0.37447
0.350988
-0.532093
-0.00607115
-0.327403
0.345261
0.0943616
0.42077
0.402068
0.377295
-0.0316634
0.219929
0.353956
0.352377
0.201579
-0.0431632
0.286153
0.353381
0.0255117
0.346482
0.0766112
0.321013
0.385479
0.270573
0.346236
0.187769
0.365831
0.356926
0.344556
0.308986
0.00450669
0.404471
0.400643
0.320268
0.300312
0.373158
0.375526
0.404848
0.330648
0.372053
0.381852
0.234294
0.360659
0.211062
0.312906
0.369563
0.0250369
0.265854
0.35628
0.366867
0.317291
0.18005
-0.421768
0.345265
0.10654
0.421061
0.41993
0.39245
0.374774
0.39895
0.380936
0.395236
0.384816
0.360484
0.266575
0.359688
0.305022
-0.328868
0.346965
0.0630928
-0.0141475
0.233789
0.355006
0.391508
0.345083
0.330547
0.234785
0.308944
0.368298
0.346838
0.0968121
0.329867
-0.246739
0.14405
0.34775
-0.206571
0.154983
0.348241
0.380168
0.232519
0.36343
0.412415
0.363666
0.37378
0.27691
0.351735
-0.0152873
0.230636
0.339509
0.374552
0.359913
0.116212
0.334273
0.386748
0.36301
0.313202
0.37099
0.324209
0.391252
0.406394
0.375287
0.367054
0.351701
-0.0339486
0.261451
0.355016
0.172242
0.359554
0.416964
0.388518
0.386973
0.292309
0.340667
-0.0368264
0.406801
0.358363
0.385966
0.408399
0.362181
0.406826
0.249067
0.34227
0.376042
0.222114
0.341408
-0.206823
0.235072
0.340287
-0.185454
0.357144
0.105364
0.333037
0.357716
0.33183
0.386049
0.339517
-0.258023
0.198184
0.363003
0.126496
0.327947
0.348278
-0.413052
0.0288192
0.0661844
-0.45992
0.345339
0.34758
0.0250816
0.313619
0.35029
-0.105363
0.219867
0.291534
0.303047
0.348449
-0.00706365
0.351411
0.0349839
0.317616
0.138455
0.364111
0.373761
0.250644
0.30014
0.428694
0.397982
0.381884
0.329008
0.168101
0.368376
0.369656
0.335188
0.185848
0.31855
0.344174
0.0285606
0.39063
0.247212
0.357711
0.397211
0.300476
0.357491
0.356393
0.239068
0.37559
0.351508
0.227085
0.374777
0.419146
0.382102
0.397753
0.399226
0.286942
0.377892
0.354612
0.027175
0.235596
0.142495
0.348451
-0.200012
0.123522
0.349817
-0.203346
0.407125
0.378737
0.353431
-0.280396
0.347895
0.114277
0.345066
0.357556
0.13206
0.347188
-0.272417
0.0917991
0.428698
0.411613
0.38809
0.399874
0.311471
0.383158
0.333467
0.3559
0.389902
0.35196
-0.0821145
0.193459
0.224977
0.342886
0.37401
0.341434
0.281842
-0.057722
0.387772
0.293308
0.381098
0.430703
0.404206
0.386605
-0.0773814
0.208234
0.351647
0.360048
0.106088
0.325283
0.217224
0.20026
0.344248
0.344019
-0.188861
-0.223228
0.388019
0.326902
0.392956
0.266281
0.361974
0.376363
0.407967
0.375923
0.407769
-0.15166
0.163947
-0.143297
0.349152
0.163249
0.349274
0.372352
0.229536
0.374463
0.205865
0.184663
-0.0998108
-0.134524
0.351674
0.350972
0.359063
0.286128
0.385148
0.399865
0.327823
0.387822
0.252935
0.341673
-0.129368
0.401317
0.308551
0.390288
0.411884
0.35235
0.399745
0.224668
0.341708
-0.177117
0.392245
0.259517
0.372352
0.291777
0.306168
0.373179
0.389246
0.291457
0.357289
0.157622
0.359228
0.278359
0.34881
-0.493581
0.0179307
0.388001
0.304115
0.383851
0.267104
0.345067
-0.0755719
0.340707
0.283667
0.384141
0.111828
0.342316
-0.389271
0.409127
0.402435
0.36778
0.389495
0.368525
0.387171
0.414534
0.372084
0.40904
0.407018
0.412775
0.376374
0.394516
0.39393
0.38787
0.39435
0.336494
0.397009
0.403926
0.338602
0.396939
0.348553
-0.178842
0.132537
0.407483
0.346804
0.371371
0.22464
-0.0798403
0.351536
0.353719
0.344463
0.217039
0.185398
0.371101
0.36741
0.40482
0.370305
0.379677
0.383167
0.260963
0.358326
0.372576
0.255765
0.37875
0.424521
0.406781
0.402588
0.341317
0.189139
0.369999
0.421074
0.388182
0.392494
0.371877
0.282699
0.384192
0.384078
0.27821
0.35901
0.422522
0.420789
0.401022
0.40787
0.405297
0.401741
0.415648
0.377792
0.417255
0.404712
0.405793
0.394033
0.40773
0.407948
0.331938
0.323528
0.380084
0.373917
0.349186
0.08571
0.330321
0.375266
0.318989
0.304068
0.351425
0.352855
0.0543627
0.0643437
0.316988
0.315868
0.38937
0.347965
0.325471
0.424525
0.414323
0.412209
0.339126
0.167806
0.367833
0.417485
0.384374
0.361888
0.38246
0.264828
0.360087
0.349588
0.352724
0.129073
0.353861
0.143794
0.355348
0.360419
0.210561
0.369376
0.132447
-0.352247
0.342831
0.335107
0.301847
0.38319
0.382547
0.386375
0.343393
0.288294
0.356351
0.302427
0.326271
0.200988
0.369901
0.383839
0.282352
0.362672
0.393176
0.342345
0.314122
0.386002
0.397562
0.352422
0.371184
0.331053
0.31971
0.385035
0.360628
0.309923
0.363143
0.22454
0.373267
0.420236
0.391088
0.40032
0.243839
0.345399
-0.119072
0.391298
0.345915
0.300567
0.390689
0.38399
0.262997
0.245699
0.360691
0.366158
0.345931
-0.0800688
0.261752
0.257076
0.343732
-0.113427
0.241812
0.343579
-0.139932
0.343754
0.354348
0.122158
0.389142
0.300847
0.366737
-0.046888
0.061589
0.284192
-0.0399669
0.218601
-0.237039
0.147407
0.0302693
-0.12037
0.204897
0.20065
-0.156239
-0.0502525
0.203826
0.0381695
-0.0530833
-0.0194884
0.0169218
0.0572769
0.158529
0.0780806
0.00629735
0.221669
0.33806
0.29657
0.0707941
0.235801
-0.145547
0.10514
-0.0627994
-0.129793
0.141285
0.0699326
0.0600518
-0.0966741
0.0882593
0.272502
0.217978
-0.00478995
0.109273
-0.0179799
0.34367
-0.0693016
0.20148
0.245293
-0.00370566
0.00742675
-0.0490961
-0.147713
-0.0699245
0.299483
0.0812238
-0.0495592
-0.011331
-0.131514
0.292458
0.160597
0.0774963
-0.0560413
0.191018
-0.0749483
-0.0599608
0.29767
0.0505286
0.0763112
0.164183
0.0957253
0.331319
0.219999
0.207516
-0.185868
-0.136061
-0.00902627
0.180392
-0.152448
0.0586231
0.0627021
-0.105613
0.178225
0.251776
0.0170901
0.0630122
-0.139264
-0.0717126
-0.0137799
0.190662
-0.0117953
-0.0272611
0.0327728
0.304732
-0.0542936
0.19143
0.295981
0.0642139
-0.0506448
-0.312148
-0.0905123
-0.0437004
-0.05127
-0.190234
0.133251
0.226502
0.259048
0.33521
-0.0647965
-0.0436551
-0.148598
-0.0386724
-0.0874372
0.269816
0.232751
0.157873
-0.0987458
-0.137797
0.12304
0.226446
0.0167016
-0.0266387
-0.200704
0.00869097
0.0547041
0.313716
0.322961
0.184538
0.0813593
-8.31117e-05
-0.152673
0.318595
-0.0910399
0.176826
-0.196525
0.296243
-0.137081
-0.106766
-0.0657574
0.249692
0.0462836
-0.238476
-0.0730843
0.149635
-0.0591712
0.195164
0.130577
-0.0446326
0.24513
-0.0120735
-0.0811967
0.261445
-0.0680781
0.0241044
-0.152942
0.0930896
-0.00814425
0.255536
0.189974
0.00602365
0.180271
0.196896
0.280285
0.0669591
-0.012986
-0.0499953
0.198199
-0.0899392
0.107446
-0.140063
0.334806
0.0119399
0.257994
0.315744
0.0858796
0.323389
0.26171
0.27769
-0.10432
-0.203807
-0.154921
0.284218
-0.105394
-0.12628
-0.0959475
-0.12271
0.0211035
-0.0124796
0.0909097
0.316269
0.186718
-0.0177341
0.188132
-0.0289705
0.339425
-0.139143
0.235893
-0.0440652
-0.215889
0.301322
0.319079
-0.0530327
-0.0427578
0.333996
0.10952
-0.00633544
-0.085013
0.181129
0.269592
0.169838
-0.0672726
-0.0548892
0.213142
0.0790264
-0.0879926
0.125894
-0.0981384
-0.117438
0.000621338
0.227898
-0.19271
0.0186099
0.227344
-0.0186814
-0.200092
0.00735911
-0.0457497
-0.00628466
0.130009
0.142777
-0.0715576
-0.132001
-0.0765207
0.162218
0.161081
0.00451837
0.147148
-0.00567233
-0.104181
0.113845
-0.0165221
-0.221497
0.1699
0.259992
0.0933579
0.302331
0.274016
0.341876
-0.05088
-0.247175
0.0332513
0.00533847
-0.0109422
-0.183199
0.119039
0.29649
0.177417
0.109228
-0.0790093
0.0107469
0.188485
0.0754049
0.151227
-0.0665373
0.0359295
-0.0206668
-0.112005
-0.0742643
-0.0446776
-0.0530743
-0.104107
0.147245
0.0802503
0.00811984
0.156537
-0.035364
0.0228345
-0.0695022
0.00794451
-0.026902
-0.0336394
0.103715
-0.182402
-0.255944
0.0414398
-0.162716
-0.196683
0.108196
-0.137405
-0.193728
0.256998
0.152807
-0.0742696
0.17939
-0.122302
0.140335
0.128376
-0.0912003
-0.0439675
0.22575
0.0379192
0.192951
-0.243829
-0.0856985
0.260953
-0.0276054
-0.0651877
-0.281035
-0.180149
-0.211847
-0.170969
-0.0159692
0.154823
-0.107213
-0.209924
-0.0881165
-0.0335707
0.340104
-0.0486906
0.177861
0.115441
-0.11829
0.0131825
-0.0767783
-0.139012
0.132938
-0.00338757
0.295685
0.159807
-0.074482
-0.0109596
0.0842085
0.337865
0.184187
0.273738
0.19033
-0.013988
0.091529
0.0207617
-0.0970048
-0.175997
-0.0410688
-0.00931386
0.156436
-0.0632508
-0.158124
-0.0468327
0.00533026
-0.0528482
-0.0212304
0.240451
-0.0136406
-0.0387513
0.286814
0.245507
-0.0757919
0.0863212
0.270375
-0.0764882
-0.14491
-0.00785924
-0.104172
-0.137591
0.266621
-0.0839653
0.0160002
0.276855
-0.197717
0.088775
-0.0615677
0.0881505
-0.00544663
-0.0514619
-0.300816
0.0150928
-0.156216
-0.0461695
-0.00134487
-0.00302419
0.183708
0.295356
-0.0534768
0.0806326
0.00838547
-0.0658804
-0.227922
0.231464
0.128826
-0.0401466
-0.15795
0.106257
-0.157117
-0.0360733
-0.0644176
-0.0874611
0.208758
0.293439
-0.0211655
0.177359
0.334887
0.237215
0.236584
0.281367
-0.0110072
-0.0346478
-0.134301
0.335261
0.225184
0.258468
-0.0553085
-0.0158122
-0.206075
0.190443
-0.00258021
-0.0559068
0.258536
0.145144
-0.0819707
0.0117637
-0.0660134
-0.048802
-0.0641001
-0.0104007
0.00909199
-0.108307
-0.019079
-0.173413
0.0134162
-0.108311
0.143111
0.0626373
-0.192707
0.272474
0.286918
0.187228
-0.0304677
0.0960901
-0.137609
0.202774
0.076653
-0.157599
0.268118
-0.188796
0.298045
-0.166886
0.0214095
0.0383245
0.184603
0.207239
-0.050453
0.314093
-0.0433589
0.242704
0.021852
0.141281
-0.0308073
-0.0572738
-0.0461385
0.249433
0.035378
0.332154
0.165583
-0.179165
-0.0466522
0.141486
-0.170141
-0.0265694
0.0239174
-0.10955
0.303426
-0.0806595
-0.102403
0.212386
-0.0474031
0.295259
0.326188
-0.00633309
0.332958
0.310613
0.245307
0.263933
0.110862
-0.147424
-0.0745534
0.00160474
0.229524
0.00270245
-0.187847
0.312004
-0.107605
0.016294
-0.083291
0.278359
0.338307
-0.0946849
0.238151
0.114994
0.295037
0.0182564
0.196094
-3.89035e-05
0.315318
0.329062
0.165815
-0.0760484
0.2138
-0.016932
0.081862
0.065092
0.0234909
0.117598
-0.0279688
-0.185176
-0.131802
0.035524
0.137054
0.0852571
0.2631
-0.092092
-0.00544132
0.139741
-0.127883
0.285317
-0.0605977
-0.000126507
0.278336
0.251751
0.0986166
0.32003
-0.0664822
-0.0158694
0.20144
0.0636607
0.0540135
0.019105
-0.0437494
0.143862
0.172857
-0.0427142
-0.0638269
0.0961527
-0.181245
-0.112212
0.296557
0.333566
0.331184
0.0311866
0.339808
0.336312
0.30779
-0.231046
0.123376
0.116656
0.319738
-0.017817
-0.051943
-0.149902
-0.0782151
-0.214005
0.31212
0.0342937
0.044321
0.200785
0.16582
-0.0240244
-0.00217839
0.335637
0.316319
0.272948
0.162936
-0.0386402
0.176602
0.145381
-0.0202376
0.0399597
-0.13317
-0.0817836
0.0712982
0.0473891
-0.0314039
0.296892
0.295927
-0.224408
0.24883
-0.053698
-0.0625922
-0.00479947
0.291899
0.0111576
0.165376
0.0293168
0.276252
-0.0107321
0.0315138
0.328725
-0.206992
-0.184443
-0.0672262
-0.10148
-0.253443
-0.337759
-0.0890008
-0.246413
0.056306
-0.225696
-0.121858
0.0467213
-0.0581804
-0.0865088
-0.0223876
-0.146313
-0.313454
0.311477
0.240857
-0.00409636
-0.154
0.246682
-0.0314707
-0.0522625
0.327324
-0.0791229
0.326236
0.013529
0.256605
0.0304393
-0.128438
-0.129422
0.0813596
0.0836991
0.0574294
-0.127589
-0.0036804
-0.117662
-0.0993421
-0.036756
-0.192684
-0.140623
0.309426
-0.0665007
0.172883
0.208223
-0.0156634
0.214373
0.211984
-0.149741
-0.327142
0.0222969
-0.175157
-0.24658
0.181488
0.187382
-0.00237383
0.139246
-0.0228728
0.329804
0.308389
0.021131
-0.0339198
0.317251
0.264299
0.130083
0.12828
-0.0149688
0.33261
0.0730865
-0.226661
0.279781
0.236391
0.297521
0.0865705
-0.0731073
-0.0087632
0.190052
0.136103
-0.394498
0.345175
0.0195012
-0.0722883
0.0718025
0.259565
0.326888
0.330299
0.137936
0.0474877
0.217219
0.267299
0.281426
0.173991
0.23159
-0.109418
-0.0555247
0.104211
-0.133447
-0.113722
-0.192462
0.0165031
0.213248
-0.174719
0.0701356
-0.0448418
0.229127
0.330117
0.0308772
-0.14925
-0.205181
0.189211
-0.0406497
-0.0832155
-0.200666
0.287042
0.102876
0.116291
-0.164783
0.118805
-0.0818486
-0.0612137
0.186712
0.208928
0.29335
0.337078
-0.0880596
0.269971
-0.223642
0.283044
0.295785
0.296697
0.218807
-0.109662
-0.109227
0.00196403
-0.227454
0.0667575
-0.19677
0.114234
-0.157388
0.254286
-0.0148833
-0.213093
0.251768
0.196347
0.0297825
0.0395047
0.169284
0.290235
0.104206
0.0573685
-0.218092
0.236756
0.0819534
0.315091
-0.247637
0.0498671
0.28129
0.188323
0.320413
0.195214
-0.00181981
-0.271418
-0.216582
0.039187
-0.181067
0.311434
-0.222868
-0.0271599
0.0277285
-0.0830708
0.219102
-0.243022
0.279336
0.191918
0.120185
-0.181565
0.145772
-0.0641316
-0.000966549
0.0368472
0.028863
-0.0171167
-0.0363394
0.216367
-0.105688
0.339173
-0.025142
0.0472072
0.158371
0.186644
0.309751
-0.0158135
0.0118185
-0.0868602
0.0435687
-0.0404492
0.304383
-0.0794898
0.0651519
-0.0168732
0.238285
-0.0656942
0.0830867
-0.144186
0.331182
-0.230871
-0.110701
-0.0212847
0.244984
-0.207387
-0.193454
-0.119142
-0.158003
0.294726
0.0558078
0.171906
0.256605
0.153102
0.0717769
0.331491
0.0644344
0.19444
0.148073
0.0822695
-0.192241
0.0944805
0.0359979
-0.0299343
0.0968579
-0.0897794
-0.179737
0.0815682
-0.000143264
-0.10669
0.231272
0.0490447
0.163471
0.0305668
0.307602
0.0252699
0.0247629
0.148347
-0.161722
-0.0893477
-0.0163599
0.0808064
0.103665
0.136987
0.290683
0.182406
0.227089
0.0866099
0.27023
0.313435
0.309093
0.0931946
0.065685
0.113861
-0.142844
0.322978
0.262852
0.241431
0.0567476
-0.110508
-0.189549
0.114327
0.187589
-0.067409
0.239672
0.260431
0.135329
-0.051357
0.0850124
-0.0315115
-0.0598209
0.0590358
-0.0435435
0.116477
-0.200281
0.120276
0.040458
0.0224227
-0.240423
0.101336
0.0727767
0.16475
-0.0185489
0.107153
0.288539
0.302805
0.118595
0.0175138
0.228788
0.0810572
-0.0840202
-0.0861319
0.0142374
-0.166128
0.289802
0.0468198
0.0946561
0.192134
0.177782
0.138107
-0.0951928
0.335918
0.146464
-0.073669
0.0533517
0.0668155
0.228304
0.282505
0.14891
0.123724
-0.204756
-0.10517
0.0229689
0.131279
0.0670703
0.119223
-0.0531983
0.298993
0.12808
0.214621
0.268505
0.0979561
-0.0674554
0.0777804
0.322795
-0.04871
-0.213495
0.0751308
0.331056
-0.0333822
0.0150559
0.218042
0.186932
0.246266
0.0528444
-0.200927
0.128937
-0.150425
-0.0256412
0.24595
0.04242
-0.136113
-0.073935
-0.0372048
0.143375
-0.0188494
-0.0397229
0.274112
-0.0686488
0.332487
0.241948
-0.15495
-0.260336
0.0490163
0.196504
0.265376
0.0499398
0.0232194
-0.0617673
0.00355485
0.0281055
0.337271
0.281503
0.195889
-0.00966249
-0.188785
0.288848
0.335017
0.297924
0.228713
0.277193
0.0718212
-0.14213
-0.23288
-0.212182
0.307398
0.0702207
-0.0738505
0.00191706
0.33347
-0.0155012
-0.0516488
-0.1699
0.0535555
-0.0920101
0.33726
0.130844
0.190716
0.277137
0.26015
0.00701383
0.151357
0.0688103
0.174304
-0.0594444
0.135926
-0.0529542
0.303011
-0.117114
-0.0326026
-0.07847
0.000914854
0.286564
-0.00650686
0.243214
0.270403
0.279672
-0.125787
0.0650347
0.0231464
-0.055075
0.2956
0.0855674
0.0910762
0.12557
-0.221487
0.0061329
0.297735
0.157671
0.300337
-0.222787
-0.11087
-0.00894962
0.309164
-0.0499705
0.0348385
-0.106218
-0.0945648
-0.00356188
0.306497
0.0202569
0.0291828
-0.166329
0.333569
0.32341
-0.220714
0.295013
-0.0172459
-0.123696
-0.106552
0.0643877
-0.173076
0.137924
-0.0107543
-0.0291939
0.00680805
0.271113
0.0515637
0.242546
0.0125347
-0.122784
0.00572633
-0.224413
-0.190821
0.0366609
-0.00744025
0.101103
-0.108722
0.0328077
0.265032
0.129405
-0.0288973
-0.136631
0.275736
0.0539849
0.0369434
0.342519
0.098096
-0.0352229
-0.0229544
-0.0849085
0.315708
-0.0289427
0.0386968
0.141739
-0.164008
0.282773
-0.10814
0.270257
0.0605613
0.210085
-0.101713
0.222238
0.029019
-0.151318
-0.0872815
0.059016
0.287162
-0.265577
-0.060373
-0.0250362
0.313882
0.334611
-0.0695927
-0.0441716
0.132765
0.317106
0.0229027
0.293517
0.262719
0.238841
0.20999
0.107136
0.162956
0.1467
0.298888
0.0372172
0.07969
-0.0687939
-0.0461748
0.0366201
-0.0989396
0.315944
-0.10036
0.290096
0.0274059
0.308915
-0.0463426
0.322868
0.206351
0.264033
0.310597
0.287536
0.340522
0.00853405
0.272029
0.0572247
-0.0106082
-0.0590594
-0.107215
0.300304
-0.098814
0.130369
0.14394
0.0223015
0.13161
-0.0601084
0.297758
0.0773009
0.219149
-0.235805
-0.0761655
-0.00268969
0.341814
-0.0599268
0.163827
-0.0398751
-0.00143099
-0.138819
0.0154159
-0.0143122
0.234221
0.304248
-0.17378
0.122388
-0.00810688
-0.0386447
0.25063
-0.0646287
-0.048568
0.318502
-0.210458
0.0931857
0.189815
0.283318
0.327838
-0.0387448
-0.0624018
-0.158983
-0.0107099
-0.0544292
-0.0103137
0.206489
-0.0239823
-0.14233
0.0276058
0.0657305
-0.0266021
-0.0454783
-0.0266
0.0668442
-0.15359
0.222824
0.208866
-0.0250242
0.2199
-0.123607
-0.174166
-0.0639504
-0.208742
0.319003
-0.0102607
-0.01808
-0.0564389
0.259169
0.297433
0.0972011
0.212005
-0.0432411
-0.0740351
0.0700508
-0.0150606
-0.0636346
0.298343
0.109474
0.159682
0.321692
0.230759
0.051327
0.311322
-0.17901
0.10212
0.0957682
0.140507
0.00794039
0.305646
-0.0256618
0.133231
0.050647
-0.0269199
-0.0986553
-0.0546481
0.206537
0.253679
0.274534
0.0758667
0.0977013
0.309975
0.228409
0.0370103
0.0979702
-0.130514
0.00559193
0.239415
-0.176244
0.267403
-0.0191374
0.280432
0.338355
0.302084
-0.0310909
0.263881
0.264338
-0.153222
0.308495
-0.0380424
0.307112
0.234226
-0.00679613
-0.111872
0.111061
0.0105515
0.000796843
-0.0492757
0.231979
-0.022125
0.313384
-0.115423
-0.0387687
-0.0572011
-0.116463
-0.0176641
0.252858
0.329176
-0.121489
0.213309
0.0738001
0.133855
0.0264344
0.130721
0.291482
0.239566
-0.0157954
0.28355
0.249377
0.326524
-0.117807
-0.0473684
-0.0505194
0.213272
0.318517
0.257231
0.0391365
0.322746
0.0553209
-0.170878
-0.113918
-0.265722
0.0435576
-0.142418
0.32693
0.333047
0.0963258
0.343766
0.242236
0.0909625
0.318821
-0.133976
0.30406
0.00342737
0.297544
-0.00959177
-0.107286
0.207746
0.101916
0.307072
0.291535
0.295606
-0.086676
-0.0885329
-0.196238
0.267659
0.237242
-0.0710174
0.0699166
0.239694
-0.2219
-0.0455103
-0.0909142
-0.00909517
0.129237
-0.014191
0.0962271
0.197454
0.0798369
0.0975144
0.211219
-0.0140702
0.00661783
0.129245
0.0841694
-0.00830298
0.272861
0.308736
-0.070646
0.23405
-0.233155
-0.0530831
0.281195
0.224015
-0.0282135
0.300118
-0.134896
0.207733
0.0145843
0.0182637
0.280597
-0.00519119
0.219581
0.208124
0.17488
0.33703
0.181634
-0.158434
0.149418
0.0398987
0.221728
0.335381
0.168967
0.0536453
-0.0647876
0.0207765
0.282371
-0.12481
0.253927
-0.0784218
0.118034
0.231395
0.210681
0.0704577
0.276377
0.322006
0.000703628
-0.011929
0.0950023
-0.0919062
-0.143912
0.100934
0.208563
-0.0826893
-0.1614
-0.0582988
-0.162505
0.202743
0.050977
0.226499
-0.0446063
0.298069
0.0796214
0.263809
0.329309
-0.0681749
0.288674
-0.00304753
0.0990763
0.0735255
0.270567
-0.0509288
0.0187917
0.0807165
-0.102606
-0.00521967
-0.110685
-0.141107
-0.232261
0.321826
0.335608
-0.085548
-0.0427989
0.216168
-0.1839
-0.0652868
-0.0132041
0.189841
0.202356
-0.197631
-0.235898
0.291618
-0.0424413
0.131958
-0.0465647
-0.167035
-0.112741
0.105419
0.264111
0.128714
-0.178082
0.299706
0.261622
-0.0812339
0.129071
-0.0222558
0.330521
-0.00164905
0.028736
-0.146646
0.170552
0.309984
0.142917
0.100392
-0.0617796
0.0472622
0.134051
0.319243
0.342727
-0.0531555
0.32422
-0.0523674
0.110797
0.112001
0.0365308
-0.0258464
0.270483
0.0104635
0.105153
-0.07885
-0.0706001
0.019453
-0.103619
0.17563
0.298835
-0.0831141
-0.0454854
0.102605
-0.0200577
-0.0492488
-0.230084
-0.0186469
0.269839
-0.170731
-0.0384794
0.19899
0.102617
0.0407376
0.164113
0.252393
-0.0792466
-0.070355
0.25424
0.0284345
-0.079691
0.061148
0.268103
0.165141
0.112632
-0.0476326
-0.062107
-0.0603113
0.320741
0.256414
0.330735
0.0344366
0.18382
-0.128135
0.0694373
0.265371
-0.175536
-0.164552
0.208853
0.260443
-0.182489
-0.034192
-0.0489002
-0.0857243
-0.0518353
0.341537
0.0257865
-0.0391913
0.100106
-0.0645354
0.205533
0.112954
-0.137171
-0.0286063
0.2304
0.0441588
0.322586
-0.147874
-0.0436529
0.155542
0.1353
0.037614
0.134314
-0.101131
0.326899
0.301607
0.159519
0.275697
-0.077181
0.271535
0.162229
0.150909
0.31197
-0.183228
-0.0279542
0.33258
0.165885
-0.19355
-0.037453
0.248118
0.329385
0.0668928
0.217542
-0.0507805
-0.151621
-0.08304
-0.201064
0.265429
-0.0582586
0.0802968
0.31406
-0.0731113
-0.0755616
-0.0579694
0.0930059
-0.0387232
-0.0298029
-0.0617354
-0.122689
0.0462975
0.2375
0.309565
0.191708
-0.0107918
-0.0302253
-0.206902
-0.0369407
0.150401
0.127271
0.172846
0.203387
-0.0290991
0.0527352
0.248585
0.263993
0.330059
0.282213
0.315052
0.0480526
-0.13771
-0.0847737
-0.120285
0.320039
0.0927813
-0.0522531
0.310389
-0.129437
0.242535
0.204298
-0.0273469
-0.0447796
-0.0276182
-0.0550519
0.261203
0.0114039
0.19098
0.0585488
0.306932
0.123374
0.337308
-0.0897017
0.0604979
-0.0472684
-0.241157
-0.0152596
0.225918
-0.0896888
-0.24123
0.111562
0.300203
0.223186
-0.0567242
-0.146347
-0.0774567
-0.127824
-0.0421924
-0.126347
0.0342568
-0.112787
0.210914
-0.0892158
-0.0421868
0.288475
0.0565172
0.159572
0.252253
0.0236065
0.0794579
-0.0909231
0.224827
0.00481198
-0.019703
0.0330739
-0.105246
-0.154943
-0.047115
-0.0459459
0.221079
0.330455
0.270828
0.115472
0.197293
-0.175831
0.32441
0.120278
0.207116
-0.0411559
0.200854
-0.0332215
-0.00886244
0.241014
0.307325
0.225002
0.119178
-0.00124207
0.334712
-0.000167052
0.24225
0.318011
0.179235
0.0152837
-0.182031
0.242955
0.109673
-0.115545
0.164468
0.101612
0.304066
-0.0625761
0.31497
0.331074
0.0284062
-0.0871489
0.3161
-0.140755
-0.1084
-0.00827817
-0.112753
-0.0188565
-0.101641
-0.145057
0.0560517
-0.0382686
-0.0813594
-0.0303489
0.125817
-0.0594075
-0.0703563
0.157126
0.0807009
-0.163571
0.297664
0.334659
0.319117
-0.0495278
-0.17492
0.341025
-0.152206
0.0433424
-0.0578004
-0.0116628
-0.0415021
0.208004
-0.0204486
-0.0230465
-0.164276
-0.176998
-0.113583
-0.0173589
-0.188027
0.065693
0.105173
0.0525998
0.307105
0.0984109
0.169394
0.0166506
0.257286
-0.017218
-0.0107586
0.3489
-0.00561736
0.101201
-0.142658
0.180718
0.331428
0.0107036
0.140774
0.103487
-0.0412662
-0.0544941
-0.0769609
-0.109609
0.213975
-0.102458
0.0269288
-0.0234897
0.0300144
-0.076173
-0.0747344
0.0430933
0.00290223
-0.0388467
0.33315
0.047734
0.0156196
0.114095
0.304686
-0.00857935
-0.173156
0.232946
-0.13862
0.00971071
-0.047968
0.054778
-0.0332202
0.0107349
0.0554984
0.327282
0.268355
-0.164889
-0.0398314
-0.177817
-0.0569163
-0.196269
-0.104109
-0.0117193
-0.0908309
-0.00567553
0.154102
0.341161
-0.0169818
0.201406
0.0770171
0.320013
-0.0234907
0.332911
0.144842
-0.130589
0.147748
0.211837
-0.0153233
0.261852
-0.0477193
0.276269
-0.0512948
-0.228058
0.0510505
0.33906
0.332822
0.213956
0.158497
0.189801
-0.168341
-0.0445375
0.188762
0.337434
-0.204463
0.0561238
-0.0452073
-0.0190946
0.0324063
-0.075418
-0.126233
-0.0529927
-0.108192
-0.0367954
-0.00394859
0.0312845
0.336136
0.259915
-0.197756
0.235358
-0.0892217
-0.0836754
0.243413
-0.0536507
0.00825111
0.175938
-0.170794
-0.0750401
0.0646941
0.269726
-0.122695
-0.0645108
0.0037986
0.150019
-0.120781
0.306305
-0.17883
-0.0155206
0.00568518
-0.0599126
0.158685
0.153735
0.305879
-0.053568
0.221131
0.105884
0.144102
-0.0561477
0.157323
-0.096969
-0.133735
-0.219545
0.118133
0.0479707
0.00618944
0.284925
0.0577436
0.10443
0.153923
-0.0790897
-0.104152
-0.0139327
0.123737
-0.0448672
0.340908
-0.14054
-0.178601
-0.00939165
-0.0203604
-0.0429976
-0.049665
0.2007
-0.010205
0.0588221
-0.121226
-0.0442504
0.0532764
-0.104981
0.334797
0.322901
-0.114768
-0.0780048
0.263659
0.0796741
-0.0683182
-0.1465
-0.0656712
-0.11685
0.102154
0.294622
-0.0670487
-0.168802
0.152737
0.0481348
-0.177466
-0.119479
0.0460474
0.194117
0.342837
-0.131046
-0.179558
0.123632
0.265288
0.0127976
0.107046
-0.00139834
-0.0488131
-0.0100269
0.149328
0.0426331
-0.0480025
0.235967
0.00209093
-0.215129
0.0958315
-0.0433688
0.241748
0.336621
-0.039643
-0.0209969
-0.0187851
-0.0203187
-0.130235
-0.00912498
-0.117044
0.310553
0.247344
0.191871
-0.00946949
-0.16107
0.226782
0.323889
-0.0715759
0.0900447
-0.029192
-0.232921
0.0726285
-0.0149217
-0.234243
-0.0392988
0.152391
-0.13475
-0.174811
-0.112132
0.243416
-0.148646
0.2359
0.0429618
-0.0591515
-0.00244554
-0.0843712
0.242521
-0.207018
-0.00986622
0.0201319
-0.135741
0.107067
0.188301
0.119954
0.0485712
0.219462
-0.119575
-0.116366
0.292062
-0.0532399
0.286419
0.124805
0.0113619
0.107494
0.271328
0.048221
-0.180087
0.305237
-0.0596385
0.0219633
0.272843
-0.071495
0.316643
-0.0666039
0.00472349
-0.162214
0.00660947
-0.109471
0.0618374
-0.108457
-0.213149
-0.121065
-0.119468
-0.226879
0.29478
-0.119826
-1.33112e-05
0.115025
0.0574047
0.325671
0.32827
-0.0367635
0.0590611
0.24742
-0.0498704
0.2958
-0.21359
-0.00264847
0.0935833
-0.068206
0.252584
-0.0282712
-0.01873
-0.0303365
-0.0697893
-0.0515565
-0.209925
0.275601
-0.302563
0.311179
0.193703
-0.106668
-0.174111
-0.109346
0.343357
0.195178
0.160304
0.0428057
0.110397
0.0222499
0.273034
0.227669
-0.0814719
0.140952
0.314895
0.0332946
0.0860354
0.150081
-0.191646
-0.120102
0.239017
-0.00396295
0.0312031
0.316972
-0.126861
-0.209226
-0.0572335
0.0303301
0.0328436
0.330543
-0.0687703
-0.155985
-0.0729449
0.0269975
-0.0635205
0.284856
0.0515657
-0.104699
-0.0296787
-0.0723908
-0.07286
-0.0166818
0.144436
0.0781242
-0.0904223
0.283417
-0.0089409
0.249248
-0.0895418
-0.126571
-0.000901184
0.276735
0.322243
0.236679