/*--------------------------------*- C++ -*----------------------------------*\
  =========                 |
  \\      /  F ield         | OpenFOAM: The Open Source CFD Toolbox
   \\    /   O peration     | Website:  https://openfoam.org
    \\  /    A nd           | Version:  6
     \\/     M anipulation  |
\*---------------------------------------------------------------------------*/
FoamFile
{
    version     2.0;
    format      ascii;
    class       volVectorField;
    location    "0";
    object      U_rec;
}
// * * * * * * * * * * * * * * * * * * * * * * * * * * * * * * * * * * * * * //

dimensions      [0 1 -1 0 0 0 0];

internalField   nonuniform List<vector> 
13046
(
(-0.505919 0.212734 0)
(-0.667493 -0.246916 -5.58603e-21)
(-0.144156 -0.144475 -1.14622e-20)
(-0.457101 0.1015 0)
(-0.105814 -0.0582413 -1.06666e-20)
(-0.545707 -0.257039 0)
(-0.524156 0.135552 1.6665e-21)
(-0.625583 -0.307756 2.7969e-21)
(-0.074089 -0.0458769 -1.15523e-20)
(-1.39188 0.642998 3.32718e-21)
(-1.51071 -0.687831 0)
(0.0900839 -0.034395 6.81066e-21)
(-0.701139 0.283521 -5.26103e-21)
(-0.842619 -0.354621 -8.30429e-21)
(-0.0466078 -0.104244 6.0531e-21)
(-1.31642 0.715845 -4.87533e-21)
(0.044254 -0.0476632 1.63242e-20)
(-1.55186 -0.574309 2.30531e-21)
(-0.20355 0.03648 0)
(-0.369739 -0.220346 -5.9064e-21)
(-0.437582 -0.0304532 1.75334e-20)
(-1.33311 0.705895 -1.87021e-21)
(0.0587816 -0.0418044 -2.1802e-20)
(-1.54449 -0.598967 0)
(-0.397433 0.111994 6.90221e-21)
(-0.527299 -0.200834 -1.3797e-20)
(-0.157073 -0.118184 0)
(-0.719818 0.323873 -9.39648e-21)
(-0.880684 -0.351347 2.45692e-21)
(-0.0585278 -0.120773 -1.06448e-20)
(-0.525172 0.240112 0)
(-0.701001 -0.229802 0)
(-0.164576 -0.167238 1.16657e-20)
(-0.340959 0.0699715 -8.01816e-21)
(-0.185792 -0.117276 4.03175e-21)
(-0.458113 -0.161886 2.40438e-20)
(-0.332038 0.0409658 -1.23845e-20)
(-0.188478 -0.0913008 6.19588e-21)
(-0.419445 -0.157825 -1.22901e-20)
(-0.403534 0.225442 8.3734e-21)
(-0.399015 -0.322511 2.0753e-21)
(-0.678824 -0.105086 -8.51871e-21)
(-0.313191 -0.0448061 5.60196e-21)
(-0.239212 -0.0550879 9.41332e-21)
(-0.30781 -0.115094 0)
(-0.347751 -0.0321932 3.61512e-21)
(-0.207331 -0.0282173 -1.45039e-20)
(-0.329719 -0.149492 -1.80518e-21)
(-0.535482 0.20762 0)
(-0.686378 -0.27576 -3.95887e-22)
(-0.100467 -0.119717 -8.22605e-23)
(-0.675921 -0.513344 1.27362e-20)
(-0.338507 0.231326 0)
(-0.797686 0.00757003 -1.00104e-20)
(-0.770058 -0.571162 -1.81648e-20)
(-0.837332 0.0452582 -1.59212e-20)
(-0.289203 0.200856 1.23968e-20)
(-1.31435 -0.355972 -1.59021e-21)
(-1.04787 0.655226 0)
(-0.167121 -0.201345 9.15487e-21)
(-0.974368 0.323912 -4.96418e-21)
(-1.0763 -0.580827 4.54884e-21)
(0.0365557 -0.0147802 -2.50948e-20)
(0.0868659 -0.0493842 1.26674e-20)
(-1.43795 -0.647256 -2.19107e-21)
(-1.30251 0.585402 -6.68158e-21)
(-0.982442 0.63662 0)
(-1.24498 -0.299212 0)
(-0.232154 -0.253733 0)
(-0.924539 0.598076 -3.47652e-21)
(-1.18631 -0.27842 0)
(-0.252934 -0.268522 7.3328e-21)
(-1.37566 -0.370234 0)
(-1.10177 0.688528 1.14507e-22)
(-0.148193 -0.191854 -6.41309e-23)
(-0.228178 0.0642069 0)
(-0.367087 -0.239032 6.33674e-21)
(-0.476527 -0.0549961 -1.245e-20)
(-0.0709881 -0.131667 9.99332e-21)
(-1.17886 0.712797 -9.84057e-21)
(-1.44939 -0.438711 0)
(-0.439918 0.128423 3.64684e-21)
(-0.561156 -0.22983 0)
(-0.124226 -0.0947308 0)
(0.0883578 -0.0458888 -1.13012e-20)
(-1.47203 -0.656804 -1.4588e-21)
(-1.33896 0.611662 3.91723e-21)
(-1.34803 0.479081 -7.06698e-21)
(0.0900694 -0.0328824 0)
(-1.38551 -0.756862 -1.75462e-21)
(0.0265064 -0.011182 0)
(-1.43291 0.385095 0)
(-1.35737 -0.876634 2.03665e-22)
(-1.02353 0.467374 0)
(-1.08783 0.484321 4.202e-21)
(-1.18891 -0.505334 8.59134e-21)
(-1.24264 -0.550095 -3.99837e-21)
(0.0268113 -0.0845153 -5.30334e-21)
(0.0510428 -0.0683602 1.36883e-20)
(0.0779004 -0.0263934 -6.41671e-22)
(-1.33501 0.448632 6.91577e-21)
(-1.35797 -0.776398 0)
(-0.373543 0.00131939 -2.31148e-23)
(-0.175736 -0.0300678 7.48234e-21)
(-0.383082 -0.186549 0)
(-0.177337 0.125905 0)
(-0.742957 0.0823299 -5.03816e-21)
(-0.735484 -0.496687 0)
(-0.323032 0.207662 1.42531e-20)
(-0.583604 -0.434048 0)
(-0.717862 -0.0236724 -1.93428e-20)
(-1.31972 0.630462 0)
(0.0698779 -0.0266155 0)
(-1.3967 -0.671232 2.3944e-22)
(-0.624342 0.246007 1.45255e-20)
(-0.77625 -0.320474 3.63063e-21)
(-0.0615871 -0.100299 1.11831e-20)
(-1.10483 0.559424 5.38021e-21)
(-1.037 0.5109 -1.02134e-20)
(-1.29603 -0.499403 -7.20127e-21)
(0.00684721 -0.0974085 6.0924e-21)
(-1.21969 -0.477772 4.15116e-21)
(0.00219672 -0.100623 -5.69057e-21)
(-1.38107 0.65723 -2.12216e-21)
(-1.50806 -0.67889 -1.21307e-21)
(0.0848026 -0.0301015 -3.0394e-21)
(-0.884421 0.407425 0)
(-1.04742 -0.430919 -6.07488e-21)
(-0.0155641 -0.109836 1.27956e-20)
(-0.462134 0.253636 0)
(-0.338577 -0.289522 -1.05079e-20)
(-0.70755 -0.143888 4.79356e-22)
(0.0127686 0.00168199 0)
(-1.37973 0.36024 0)
(-1.32981 -0.857295 0)
(-1.20291 0.50029 0)
(-1.3255 -0.635092 -1.01232e-20)
(0.0827306 -0.0478167 -1.45203e-20)
(-0.593917 0.274502 0)
(-0.766364 -0.262767 0)
(-0.146062 -0.171989 0)
(-0.709312 0.185276 0)
(-0.801204 -0.447962 0)
(-0.0361027 0.00357601 0)
(-0.295435 0.197409 0)
(-0.650643 -0.475816 0)
(-0.744219 0.00778294 1.04448e-20)
(-0.172993 0.111974 -1.45856e-21)
(-0.708449 0.0749164 -1.10131e-20)
(-0.709885 -0.470721 1.16452e-20)
(-1.03146 0.355135 1.11564e-20)
(-1.12868 -0.599034 0)
(0.0528182 -0.0267922 3.256e-20)
(-0.121076 0.0510152 0)
(-0.599633 0.0776214 1.19408e-20)
(-0.622279 -0.381765 -3.01019e-21)
(-0.928976 -0.646386 0)
(-0.923582 0.140023 1.13063e-20)
(-1.00617 -0.677553 0)
(-0.98299 0.187997 6.48767e-21)
(-0.169912 0.131338 0)
(-0.114452 0.0960769 0)
(-0.738932 0.144994 1.52691e-21)
(-0.791543 -0.487662 6.09203e-21)
(-0.0763342 0.0459472 -6.33552e-21)
(-1.41753 0.620901 -3.41107e-21)
(0.0957332 -0.0380746 0)
(-1.48384 -0.717133 -2.56224e-21)
(-1.34775 0.64428 -1.58725e-21)
(0.0755615 -0.0251423 -1.39231e-21)
(-1.45316 -0.672458 0)
(-1.22771 0.531076 -5.86521e-21)
(-1.35653 -0.631978 0)
(0.0827316 -0.0514741 1.64999e-20)
(-0.582916 0.352595 0)
(-0.840853 -0.162264 2.60135e-21)
(-0.372235 -0.332609 6.01495e-21)
(-0.697271 0.118309 9.98768e-21)
(-0.105633 0.0681859 3.07773e-21)
(-0.737569 -0.455912 0)
(0.0993534 -0.0424537 0)
(-1.46158 -0.765379 0)
(-1.44001 0.565469 2.71189e-21)
(-0.521025 0.313274 0)
(-0.784459 -0.138105 -5.75991e-21)
(-0.38733 -0.326783 1.57657e-21)
(-0.124348 0.06719 0)
(-0.624139 0.0777625 0)
(-0.640775 -0.402868 0)
(-0.652192 0.151588 4.95118e-21)
(-0.740116 -0.414802 0)
(-0.0479168 0.000109341 0)
(-0.925176 -0.418847 -8.5234e-24)
(-0.00581414 -0.0789879 -7.56146e-21)
(-0.828692 0.369059 1.48691e-20)
(-0.992402 -0.409347 0)
(-0.0210065 -0.104994 -1.60332e-20)
(-1.37038 0.551073 -6.94711e-21)
(0.100204 -0.0408577 1.0243e-20)
(-1.44441 -0.725133 -7.44342e-21)
(0.0401037 -0.00572736 9.35192e-21)
(-1.32852 0.384806 4.49004e-21)
(-1.32185 -0.813808 8.91711e-21)
(-1.41951 0.440233 -1.11988e-20)
(-1.3903 -0.823375 0)
(0.06819 -0.0273733 -9.17985e-21)
(-0.724129 -0.571634 -6.42272e-22)
(-0.884621 -0.000181106 4.41113e-21)
(-0.417875 0.30232 0)
(-0.652547 0.208931 -2.22084e-20)
(-1.16014 0.726077 5.16919e-21)
(-0.100232 -0.149108 -6.16035e-21)
(-1.44944 -0.424046 0)
(-1.4093 -0.826307 0)
(-1.44699 0.476525 -9.13277e-21)
(0.0789487 -0.0364524 0)
(-0.370993 0.0393057 -1.81589e-20)
(-0.157975 -0.0576596 -6.08525e-21)
(-0.430288 -0.193042 1.79977e-20)
(-0.687033 0.329147 0)
(-0.860683 -0.321358 -3.57908e-22)
(-0.0998743 -0.145263 -6.1719e-21)
(0.0200943 0.00330031 7.18759e-21)
(-1.3361 0.366287 0)
(-1.31176 -0.834843 -1.02808e-20)
(-0.714484 0.244546 1.77303e-20)
(-0.901598 -0.427865 1.48943e-20)
(-0.00240256 -0.0649339 0)
(0.0888416 -0.0385043 0)
(-1.43952 -0.723593 1.04614e-21)
(-1.41384 0.6153 0)
(-0.360324 0.261124 0)
(-0.893663 0.0280629 0)
(-0.780976 -0.610782 0)
(-1.37112 0.426757 9.81874e-21)
(-1.36569 -0.801527 0)
(0.0665255 -0.0228565 -5.14719e-23)
(-0.854337 0.166618 4.33813e-21)
(-0.899247 -0.580822 -4.50443e-21)
(-0.0868059 0.0707837 0)
(-0.88358 0.432986 0)
(-1.05838 -0.411183 5.69423e-21)
(-0.0404045 -0.124964 1.00694e-20)
(-1.21313 -0.837827 -1.4065e-20)
(-1.24271 0.26138 -8.32196e-21)
(-0.0766368 0.0678191 5.64698e-21)
(-1.05568 0.203757 0)
(-1.06824 -0.726619 -5.92909e-21)
(-0.114022 0.0951743 -2.07482e-22)
(0.0855134 -0.0433702 -8.9458e-21)
(-1.41065 -0.734789 0)
(-1.42356 0.595823 -1.0963e-21)
(-0.425738 0.270548 7.63893e-21)
(-0.517892 -0.407682 -7.55919e-21)
(-0.760795 -0.0744933 8.32116e-22)
(-1.22597 0.668844 1.21046e-21)
(0.0554473 -0.00728905 -1.30626e-20)
(-1.42154 -0.588163 0)
(-0.165593 0.00796041 -3.57475e-21)
(-0.429576 0.00131131 -1.41656e-20)
(-0.4134 -0.231925 1.77131e-20)
(-0.872986 0.224282 5.04966e-21)
(-0.824886 0.177438 2.26272e-23)
(-0.947506 -0.562195 -1.11036e-20)
(-0.880679 -0.551703 0)
(-0.0649235 0.0519203 5.75942e-21)
(-0.0193353 0.0229782 -5.93372e-21)
(-0.041812 -0.107537 -1.30804e-20)
(-1.21861 0.723896 5.33245e-21)
(-1.49755 -0.461259 -6.49208e-21)
(-0.824787 0.417009 0)
(-1.00705 -0.36548 0)
(-0.0853828 -0.149703 -1.32135e-20)
(-1.12708 0.244349 -2.24802e-21)
(-1.13066 -0.765569 0)
(-0.0782077 0.0722149 0)
(-1.16079 0.536766 -5.14428e-21)
(-1.31775 -0.563594 0)
(0.0550872 -0.0695423 5.97549e-21)
(-0.284263 -0.0256039 3.73942e-21)
(-0.328257 -0.0973121 5.49109e-21)
(-0.248082 -0.0826336 -1.87014e-21)
(-0.956599 0.206051 -8.26221e-21)
(-0.999543 -0.646757 0)
(-0.0719267 0.0686133 -9.74463e-21)
(-0.842438 0.444402 0)
(-1.03596 -0.355908 7.1033e-21)
(-0.104703 -0.164815 -8.40655e-21)
(-0.753671 0.283088 0)
(-0.820848 0.316862 1.74794e-21)
(-0.445582 0.289228 2.74149e-21)
(-0.540026 -0.430222 2.18579e-20)
(-0.788346 -0.0667291 -1.98435e-20)
(-1.01221 0.246747 -8.37997e-21)
(-1.05595 -0.668452 9.15309e-21)
(-0.0316553 0.0429517 8.88977e-21)
(-1.20467 0.548798 0)
(0.0696105 -0.0606538 -2.11831e-20)
(-1.36074 -0.596496 -4.70175e-21)
(-0.318203 0.189245 -1.9737e-20)
(-0.539207 -0.40637 0)
(-0.686337 -0.0276181 6.52454e-21)
(-0.204312 0.157055 -1.14215e-20)
(-0.946621 0.127857 -6.48094e-21)
(-0.935816 -0.675088 0)
(-1.01619 0.551058 -5.21109e-21)
(-1.22665 -0.414795 -5.88893e-21)
(-0.0674407 -0.141398 3.76144e-21)
(-0.393362 0.268388 9.86968e-22)
(-0.638217 -0.494847 0)
(-0.809711 -0.0164317 1.38687e-20)
(-1.07216 0.587254 0)
(-1.11107 0.593976 0)
(-1.29177 -0.4416 -3.58093e-21)
(-0.0515565 -0.130871 -9.7949e-21)
(-1.32271 -0.481127 5.06484e-21)
(-0.0175278 -0.108383 1.03873e-20)
(0.101032 -0.041157 -7.88188e-21)
(-1.46794 -0.741176 0)
(-1.41811 0.583055 -4.46101e-21)
(-0.974766 0.489473 6.09767e-21)
(-1.15948 -0.442294 0)
(-0.0273861 -0.117898 3.41685e-21)
(-1.24547 -0.623467 -2.78782e-21)
(0.0465392 -0.0207655 1.14152e-20)
(-1.1804 0.603036 -8.6006e-24)
(-0.531522 0.0313273 -6.59389e-21)
(-0.152144 0.052112 0)
(-0.523243 -0.321289 0)
(-0.896222 0.296206 1.18082e-20)
(-1.00753 -0.531661 0)
(0.0275857 -0.0229992 1.93928e-20)
(0.0969451 -0.0429275 -6.53348e-21)
(-1.3222 0.540699 1.44689e-20)
(-1.41472 -0.694124 6.13983e-21)
(-0.806062 -0.601386 0)
(-0.869504 0.0541994 5.82788e-21)
(-0.290883 0.215434 -1.40493e-20)
(-1.24871 -0.842046 -1.64199e-20)
(-1.28011 0.298735 -4.94511e-21)
(-0.0376395 0.039352 0)
(-0.800872 -0.382518 -1.54379e-20)
(-0.0251036 -0.0579035 0)
(-0.95019 0.368528 1.24599e-20)
(-1.06814 -0.513861 5.12317e-21)
(0.0395708 -0.0588327 5.90019e-21)
(-0.789273 -0.403558 8.97256e-21)
(-0.0212863 -0.0398166 -3.49637e-23)
(-1.29788 0.700894 -3.30854e-22)
(0.0350418 -0.058594 7.71988e-21)
(-1.52908 -0.556793 -3.39101e-21)
(-0.705797 -0.584161 0)
(-0.918284 -0.0202737 1.36954e-21)
(-0.47415 0.343125 0)
(-1.00907 0.400419 -1.27024e-20)
(-1.14215 -0.544299 -6.24241e-21)
(0.0529703 -0.0529719 -7.10325e-21)
(-0.735479 0.179744 0)
(-0.811485 -0.47658 -8.84669e-21)
(-0.0447879 0.019671 0)
(-0.753714 0.052373 0)
(-0.707373 -0.507491 0)
(-0.235291 0.157167 0)
(-0.505467 0.171295 -5.04626e-21)
(-0.633586 -0.266486 -8.68533e-21)
(-0.10086 -0.101431 3.96234e-24)
(-0.250047 0.190262 1.41581e-20)
(-0.921114 0.0957257 1.56421e-20)
(-0.887186 -0.651846 8.78525e-21)
(-1.39454 0.51326 -5.58212e-21)
(-1.4219 -0.758372 6.22269e-21)
(0.0970118 -0.0381266 -9.67373e-21)
(-1.25856 -0.818717 1.1221e-20)
(-1.26664 0.317775 5.0135e-21)
(-0.0112435 0.0262718 7.26599e-21)
(-0.802332 0.528951 -1.076e-20)
(-0.348473 -0.331409 1.1033e-20)
(-1.0779 -0.215349 -8.41787e-21)
(-1.14747 0.663016 2.91908e-21)
(-1.10049 0.632603 -2.75594e-21)
(-1.33835 -0.424303 -1.13647e-21)
(-1.39173 -0.443201 0)
(-0.0603884 -0.129102 -3.55079e-21)
(-0.0778096 -0.144777 -3.1762e-21)
(0.052323 -0.016013 -1.54654e-20)
(-1.30078 -0.612999 3.07257e-21)
(-1.20168 0.613303 9.93052e-22)
(-1.24827 0.681775 -1.09186e-22)
(0.0582328 -0.00705633 1.8071e-20)
(-1.46239 -0.58821 0)
(-0.942029 0.256677 -1.88602e-20)
(-1.02109 -0.598364 -2.39611e-21)
(-0.0068908 0.0205661 0)
(0.100612 -0.0409985 -1.97216e-20)
(-1.38907 0.573679 4.44009e-21)
(-1.46534 -0.720177 0)
(-0.927012 0.56116 1.53917e-20)
(-0.982974 0.582663 -1.14466e-20)
(-1.16619 -0.325328 6.45032e-21)
(-1.21612 -0.357242 2.41496e-21)
(-0.190041 -0.220966 -6.28708e-21)
(-0.144928 -0.189275 -3.14826e-21)
(0.0753363 -0.0483213 0)
(-1.39793 -0.843873 0)
(-1.50363 0.469347 1.43548e-21)
(-1.14845 0.659455 -1.42088e-21)
(0.0484159 -0.00108934 0)
(-1.38014 -0.559006 0)
(-0.409185 -0.0763794 -6.2701e-25)
(-0.244383 0.0331736 7.97337e-21)
(-0.288992 -0.169465 3.93759e-21)
(-1.25428 0.636916 -1.56709e-21)
(-1.38411 -0.637688 -3.50276e-22)
(0.0606084 -0.0173372 8.47983e-22)
(-0.662143 0.38532 0)
(-0.890312 -0.21526 -1.1734e-20)
(-0.288185 -0.279148 -8.52509e-23)
(-1.4445 0.548582 1.91663e-22)
(-1.44876 -0.781962 7.40624e-21)
(0.0981208 -0.0425485 1.41694e-23)
(-1.10213 -0.630803 -7.11863e-23)
(0.0399249 -0.0347664 -6.59033e-21)
(-1.1497 0.51205 7.2849e-22)
(-0.340531 0.18376 -7.24447e-21)
(-0.41123 -0.312693 6.77778e-21)
(-0.626611 -0.0791574 2.09023e-20)
(-0.464522 0.0389813 0)
(-0.489041 -0.269329 -1.96605e-20)
(-0.132937 0.00207406 9.80258e-21)
(-1.3606 0.680943 0)
(0.0780271 -0.0264997 9.06868e-21)
(-1.51974 -0.659236 -1.9199e-22)
(-0.501554 0.0553778 0)
(-0.528949 -0.297776 -6.78335e-21)
(-0.119834 0.0195838 -1.39017e-20)
(-0.376151 -0.0718658 8.29305e-21)
(-0.241576 0.00768889 -4.21467e-21)
(-0.28358 -0.14591 2.09425e-21)
(-0.342223 0.254909 6.8152e-21)
(-0.946065 0.0562656 -5.42752e-21)
(-0.860805 -0.673218 9.66168e-21)
(-0.500141 -0.0309853 0)
(-0.414037 -0.264064 0)
(-0.20965 0.0813284 1.162e-21)
(-0.532766 0.0101001 1.04358e-20)
(-0.486182 -0.303635 5.16762e-21)
(-0.1852 0.077974 1.63747e-22)
(-0.743295 0.494348 1.63669e-20)
(-1.02132 -0.183716 -8.69839e-21)
(-0.402395 -0.373526 -1.09194e-20)
(0.0809861 -0.0379516 1.37369e-20)
(0.0885267 -0.0374462 -1.39645e-20)
(-1.52665 -0.655273 1.84576e-21)
(-1.51369 -0.674763 1.39364e-21)
(-1.36426 0.67014 0)
(-1.38015 0.656178 -3.40701e-21)
(-1.42469 0.516268 7.00291e-21)
(-1.43462 -0.776093 -4.92976e-21)
(0.0963496 -0.0395415 1.20025e-20)
(-0.335335 -0.330979 -7.05158e-21)
(-0.859796 0.578326 3.34436e-21)
(-1.13642 -0.229259 1.07265e-20)
(-0.454697 0.27577 -6.97463e-21)
(-0.447741 -0.362975 -6.92445e-21)
(-0.750762 -0.10259 6.44356e-21)
(-1.0716 0.174886 0)
(-1.05873 -0.755503 6.13698e-21)
(-0.166334 0.128555 2.14441e-22)
(-1.21453 -0.715529 4.04156e-22)
(0.0632753 -0.0555349 -6.1312e-21)
(-1.34743 0.51701 -2.12934e-22)
(0.0474636 -0.0231564 0)
(-1.44861 0.4158 0)
(-1.37249 -0.868135 3.49576e-21)
(-1.37904 0.635729 2.22012e-21)
(0.0836727 -0.0317072 0)
(-1.46719 -0.697402 -1.02746e-21)
(0.0315872 -0.0273495 -2.45755e-32)
(-1.03793 -0.596162 2.08452e-21)
(-1.0667 0.497571 -1.04711e-21)
(-1.08769 -0.530144 -2.36927e-21)
(0.0293619 -0.0129805 2.45163e-32)
(-1.01398 0.561939 9.06136e-22)
(-1.16873 -0.677622 -1.21866e-20)
(-1.10399 0.334957 0)
(0.032192 0.00206078 -1.88066e-20)
(-1.35436 -0.80855 -5.88864e-22)
(0.0778969 -0.0608416 -6.26638e-21)
(-1.50219 0.498899 0)
(-1.23599 0.492009 -7.62533e-21)
(-1.33497 -0.66813 6.20096e-21)
(0.0876645 -0.0415655 9.70627e-21)
(-1.30186 0.747665 9.14174e-21)
(0.0355976 -0.032235 5.48715e-21)
(-1.58868 -0.545529 0)
(-0.613599 0.215411 3.92194e-21)
(-0.0454318 -0.0724789 -3.83144e-21)
(-0.76094 -0.348006 3.75665e-21)
(-1.39638 -0.855996 1.69071e-21)
(0.0687073 -0.0414391 6.64888e-21)
(-1.4911 0.453469 1.92277e-21)
(-1.02625 0.149195 -6.27341e-21)
(-0.200478 0.154502 -3.85351e-21)
(-1.01142 -0.729769 0)
(-1.15191 -0.75695 0)
(-1.13687 0.27029 0)
(-0.041601 0.0510453 0)
(0.00833442 -0.00932553 0)
(-0.63102 -0.329521 3.21505e-21)
(-0.620027 0.314558 -2.08253e-21)
(-1.23406 -0.652569 -6.94026e-22)
(0.0503861 -0.0295484 -7.95537e-21)
(-1.21642 0.583441 -4.59927e-22)
(-0.550737 0.176287 -1.00625e-20)
(-0.0670624 -0.0729049 9.20587e-21)
(-0.680509 -0.313839 4.43116e-21)
(-1.42219 -0.807086 5.34185e-21)
(-1.48489 0.517751 -2.68267e-21)
(0.0891724 -0.0484444 0)
(0.0726038 -0.0536284 -6.94129e-21)
(-1.52111 0.469528 0)
(-1.37671 -0.849523 -4.02105e-21)
(-1.36839 0.606618 -4.09556e-21)
(0.0951356 -0.0422162 2.11001e-20)
(-1.48195 -0.68504 0)
(0.001748 -0.08272 -1.57997e-20)
(-1.48834 -0.513776 4.54174e-21)
(-1.24423 0.695022 0)
(-0.714577 0.498023 -2.06125e-20)
(-1.01588 -0.158095 1.1079e-20)
(-0.469917 -0.425106 -3.46161e-21)
(-1.29666 -0.38663 1.69116e-21)
(-1.05018 0.631754 6.60002e-21)
(-0.130427 -0.179634 -9.77301e-21)
(-0.00236309 -0.0737472 -1.41219e-20)
(-1.26914 0.742439 0)
(-1.55532 -0.506668 0)
(-0.704423 0.380234 -3.44952e-21)
(-0.777806 0.423007 0)
(-0.904836 -0.272464 -1.22246e-20)
(-0.984101 -0.307152 1.30814e-20)
(-0.189659 -0.20811 1.74252e-21)
(-0.161952 -0.198787 -1.85663e-21)
(-0.650075 0.36414 3.30963e-21)
(-0.866876 -0.233151 0)
(-0.247066 -0.24595 3.30437e-21)
(-0.910584 0.574814 0)
(-1.16185 -0.301977 -1.04245e-20)
(-0.230577 -0.249797 2.26857e-21)
(-1.22244 -0.788088 -5.78724e-21)
(-1.21868 0.305124 5.43637e-21)
(-0.0124927 0.0284298 -1.48332e-20)
(-1.41907 -0.814501 0)
(-1.44009 0.500987 1.00595e-20)
(0.0883021 -0.0397331 0)
(0.0352048 -0.000879928 -4.81169e-21)
(-1.2636 0.366134 -3.20901e-21)
(-1.2828 -0.780583 -3.70774e-21)
(-1.15797 -0.538207 3.6464e-22)
(0.0346524 -0.00975749 4.25281e-21)
(-1.06033 0.587765 0)
(-0.431418 0.215981 6.70807e-21)
(-0.439692 0.205116 0)
(-0.282451 -0.237107 0)
(-0.652195 -0.153511 2.5173e-20)
(-0.238997 -0.207716 0)
(-0.641559 -0.178909 -1.60648e-20)
(-0.803128 0.502458 0)
(-0.7233 0.45088 0)
(-0.316815 -0.304043 2.14879e-23)
(-1.04958 -0.253938 6.9337e-21)
(-0.278886 -0.276109 1.66777e-20)
(-0.975169 -0.219855 -1.48909e-20)
(-1.07509 -0.653902 0)
(0.0448226 -0.0451834 8.98167e-21)
(-1.20482 0.498094 0)
(-1.42689 -0.798242 -3.71737e-21)
(-1.47121 0.521397 9.70016e-22)
(0.092353 -0.0451444 4.2087e-21)
(-0.509159 0.327619 -1.18102e-20)
(-0.516841 -0.428639 -7.78015e-21)
(-0.828536 -0.0925855 2.04728e-20)
(-1.16172 -0.804492 1.26657e-20)
(-1.17707 0.236047 1.40477e-20)
(-0.0966921 0.0841754 0)
(-0.0174863 -0.0974282 1.68954e-20)
(-1.46516 -0.493569 -4.82881e-21)
(-1.21906 0.691465 6.77168e-21)
(-1.34853 -0.697664 0)
(-1.34901 0.596199 0)
(0.0700141 -0.0370216 0)
(-1.36757 -0.725471 0)
(-1.38731 0.581837 1.62471e-21)
(0.0778861 -0.0447018 1.51873e-21)
(-0.975391 0.556336 -6.45391e-21)
(-1.19628 -0.382234 3.64547e-21)
(-0.1122 -0.168998 4.65588e-21)
(-0.276518 0.162759 -1.88394e-21)
(-0.548474 -0.393411 0)
(-0.656505 -0.0064488 -1.13937e-22)
(-1.38551 0.62476 4.77205e-21)
(0.094357 -0.0398177 1.22118e-20)
(-1.5021 -0.688123 -1.62182e-21)
(-1.1989 -0.715659 0)
(-1.14969 0.340707 0)
(0.0290763 0.00866008 1.62253e-20)
(0.0705779 -0.0585839 4.04659e-21)
(-1.41244 -0.608974 7.87275e-21)
(-1.25416 0.593842 1.50737e-20)
(-0.681549 0.432908 0)
(-0.367394 -0.338669 -1.12676e-20)
(-0.942512 -0.192767 7.71952e-21)
(-0.820044 0.132225 1.28028e-22)
(-0.83899 -0.557007 6.60503e-21)
(-0.136566 0.100782 0)
(-0.396086 0.230566 6.86369e-23)
(-0.45088 -0.357499 -2.30641e-21)
(-0.699474 -0.0852934 -8.44011e-21)
(0.0984044 -0.0396352 -3.6378e-24)
(-1.48807 -0.721417 3.44478e-21)
(-1.41086 0.607715 4.58655e-21)
(-1.15946 0.572482 -2.89712e-21)
(-1.34259 -0.539636 -2.61612e-21)
(0.0334837 -0.080731 0)
(-0.348039 0.176366 -7.27475e-21)
(-0.357675 -0.27391 1.48235e-20)
(-0.60706 -0.101004 -1.37987e-20)
(-1.2828 0.756291 3.9148e-21)
(0.0082943 -0.0587737 6.23461e-21)
(-1.58228 -0.516304 -2.1641e-21)
(-0.593367 0.298575 -4.23151e-21)
(-0.783941 -0.2462 0)
(-0.186251 -0.199728 0)
(-0.607582 0.116282 -1.84896e-20)
(-0.664342 -0.382395 4.15296e-21)
(-0.0791885 0.0225871 0)
(-1.1315 -0.713643 0)
(-1.09059 0.271469 1.19853e-20)
(-0.0219283 0.0414038 0)
(-1.28163 0.712658 -1.54906e-21)
(0.056178 -0.0116221 -1.92991e-21)
(-1.53889 -0.583335 1.24972e-22)
(-1.27769 0.730055 4.37597e-21)
(0.0485107 -0.0137528 0)
(-1.56133 -0.562141 -1.08013e-21)
(0.0575882 -0.0634079 3.62257e-21)
(-1.43216 -0.587205 -4.29966e-21)
(-1.25446 0.617065 -1.39013e-20)
(-0.854316 0.114368 -5.61883e-21)
(-0.866507 -0.599732 -6.62947e-21)
(-0.17912 0.127201 0)
(0.0526936 -0.00351215 1.76794e-21)
(-1.49724 -0.572182 -1.25513e-22)
(-1.22518 0.696719 0)
(0.0935271 -0.0397364 0)
(-1.37603 -0.697619 -4.51102e-21)
(-1.29366 0.507709 -1.72343e-21)
(0.0236638 -0.0275994 7.23207e-21)
(-0.884272 -0.556393 -1.83507e-21)
(-0.963137 0.423963 0)
(-0.862458 0.526873 6.1481e-22)
(-0.979305 -0.449844 0)
(0.0207502 -0.00596123 7.23415e-21)
(0.0099058 -0.0709295 -1.59333e-23)
(-1.53099 -0.5273 0)
(-1.27063 0.722204 0)
(0.0948463 -0.040246 0)
(-1.46669 -0.736969 0)
(-1.43228 0.605275 5.15873e-21)
(-1.34598 0.666466 -4.37822e-21)
(-1.32522 0.648219 3.54166e-21)
(0.0731222 -0.0440027 -6.89923e-21)
(-1.52512 -0.623872 -6.78421e-22)
(0.0737382 -0.0486119 -1.12654e-20)
(-1.49787 -0.623067 1.51912e-21)
(-1.29621 0.480444 3.44502e-21)
(-1.36246 -0.721175 3.10633e-21)
(0.0900318 -0.0348374 0)
(-0.153389 0.123215 0)
(-1.11008 -0.799977 0)
(-1.13752 0.196808 0)
(-0.414085 0.160642 0)
(-0.19221 -0.162195 -2.05268e-20)
(-0.583081 -0.189058 8.79958e-21)
(-1.25364 0.408533 1.02022e-20)
(-1.29774 -0.743526 1.24644e-21)
(0.0655608 -0.017094 1.41631e-20)
(0.0470294 -0.005334 9.1992e-21)
(-1.23167 0.380631 -1.41986e-20)
(-1.26584 -0.75028 -1.72704e-21)
(-1.24204 0.752944 5.03469e-21)
(-0.033833 -0.095497 6.75275e-21)
(-1.5414 -0.469414 6.77428e-21)
(-0.830594 0.528263 0)
(-1.08698 -0.25616 3.10431e-21)
(-0.285375 -0.285073 -1.63492e-20)
(-0.72034 0.425661 0)
(-0.94644 -0.235852 1.54057e-20)
(-0.273488 -0.27444 -4.41108e-23)
(-1.10307 0.381459 -1.41743e-20)
(-1.19551 -0.647484 1.66071e-21)
(0.061956 -0.0235477 -8.22792e-21)
(-1.13566 0.376739 0)
(-1.21029 -0.674015 1.56618e-21)
(0.0566978 -0.0159551 7.50993e-21)
(-0.304688 0.141818 0)
(-0.356305 -0.259557 -2.34344e-20)
(-0.558701 -0.0855601 7.76321e-21)
(-0.802637 0.449831 0)
(-1.01155 -0.30442 0)
(-0.174277 -0.211802 2.49831e-21)
(0.0544275 -0.0357207 -1.43821e-20)
(-1.37579 -0.873366 -9.49439e-21)
(-1.49441 0.430893 0)
(-1.41589 0.557168 1.25521e-21)
(0.0762785 -0.0524063 0)
(-1.31977 -0.74427 4.53591e-22)
(-1.40362 0.524856 -4.50369e-22)
(0.0706588 -0.0573922 0)
(-1.27474 -0.740248 -9.93336e-22)
(-0.524076 0.298137 4.95056e-21)
(-0.332077 -0.287336 -2.45879e-21)
(-0.764589 -0.166902 -2.27545e-22)
(-1.27286 -0.677505 3.69951e-22)
(0.0611558 -0.0386052 1.21773e-20)
(-1.30813 0.57364 0)
(-1.2112 0.612809 1.22181e-20)
(0.0366277 -0.0754289 7.70075e-21)
(-1.40026 -0.552233 0)
(0.0576537 -0.0476931 -1.80757e-21)
(-1.20559 -0.696655 3.47717e-22)
(-1.29974 0.530917 0)
(-0.435164 0.0714852 1.26261e-20)
(-0.123545 -0.0379856 1.24944e-20)
(-0.499073 -0.241704 2.17873e-23)
(-0.861352 0.358267 -2.18031e-21)
(-1.01155 -0.451097 -1.94171e-21)
(0.00750125 -0.0818485 -8.66418e-21)
(-0.793349 -0.567883 1.51079e-20)
(-0.820587 0.0789272 1.35367e-20)
(-0.229575 0.158867 0)
(0.0808968 -0.0565027 0)
(-1.37873 -0.816027 -9.95014e-22)
(-1.50477 0.502983 0)
(-1.17886 -0.731904 0)
(-1.1466 0.31656 0)
(0.00778883 0.0216104 0)
(0.0308159 -0.0447551 0)
(-1.30539 0.741791 -3.21813e-21)
(-1.58272 -0.54447 2.12799e-21)
(-0.934952 0.391973 0)
(-1.07405 -0.490026 9.97904e-22)
(0.0268745 -0.0731234 8.46506e-21)
(-0.383967 0.134139 0)
(-0.192305 -0.150565 1.76392e-20)
(-0.542626 -0.177948 0)
(-1.41439 -0.80126 -5.04306e-21)
(-1.47991 0.536289 2.55237e-21)
(0.0892104 -0.0517514 0)
(0.091983 -0.0470327 -8.41019e-21)
(-1.40981 -0.668575 2.8497e-22)
(-1.29396 0.560428 4.03289e-22)
(-1.32915 0.683055 0)
(-1.3103 0.677821 2.21873e-21)
(0.0699609 -0.0186957 -4.46592e-21)
(0.0684925 -0.0169721 -5.48365e-21)
(-1.50979 -0.627246 -3.76341e-22)
(-1.48465 -0.632758 3.09676e-22)
(-0.827014 0.231975 0)
(-0.913495 -0.527908 2.59856e-20)
(-0.0132824 0.00761517 9.27511e-21)
(-1.107 -0.642173 1.71138e-20)
(-1.03938 0.300257 0)
(0.0193046 0.00874443 -1.00066e-20)
(-0.555962 0.132583 -1.04113e-20)
(-0.646574 -0.336296 7.13705e-21)
(-0.0619258 -0.02353 1.50632e-20)
(-1.36032 -0.774583 1.89969e-21)
(-1.4584 0.54554 1.88346e-21)
(-1.34004 -0.788839 -7.6222e-22)
(0.0816846 -0.0546578 0)
(-1.47417 0.519588 -1.81585e-21)
(0.0778883 -0.0594266 0)
(-1.08366 0.45976 0)
(-1.21839 -0.570681 0)
(0.0603256 -0.0586305 9.28067e-21)
(-1.46776 0.555029 3.65395e-21)
(-1.45931 0.558295 -6.52426e-21)
(-1.42646 -0.779175 1.23922e-21)
(-1.40354 -0.767288 -3.89107e-21)
(0.0910217 -0.0491024 1.23254e-20)
(0.0871045 -0.0496979 -8.7279e-24)
(-0.989358 0.274887 0)
(-1.06017 -0.640022 -1.62648e-20)
(-0.0103789 0.0290239 1.29751e-20)
(-0.76204 0.258895 9.69478e-21)
(-0.938724 -0.464506 -1.17833e-20)
(0.0147659 -0.0486834 0)
(-1.30957 0.734449 0)
(0.0487188 -0.0248939 0)
(-1.57509 -0.572236 1.03848e-21)
(-0.841176 0.261488 7.14807e-21)
(-0.939651 -0.513285 -7.23326e-21)
(0.00727299 -0.0104041 -1.53295e-20)
(-0.626464 0.17274 4.17189e-21)
(-0.732334 -0.384692 -8.38093e-21)
(-0.0365708 -0.0272936 8.64459e-21)
(-1.30802 0.700309 0)
(0.0640216 -0.0169305 0)
(-1.53909 -0.609874 -1.51903e-21)
(-0.958696 0.424208 0)
(-1.11953 -0.477314 1.98162e-21)
(0.0208596 -0.086007 -9.25956e-21)
(-0.99032 -0.73841 0)
(-1.02194 0.127048 0)
(-0.248001 0.18871 -4.95325e-22)
(-0.686091 0.449474 -5.31504e-22)
(-0.959245 -0.174301 0)
(-0.40413 -0.368844 1.72539e-20)
(-1.29469 -0.87375 6.27137e-21)
(-0.0220687 0.023181 0)
(-1.35047 0.325179 0)
(0.0162391 -0.0139228 -1.73905e-20)
(-0.836392 -0.443813 -4.49743e-21)
(-0.8193 0.42082 2.91413e-21)
(-0.889104 0.319906 0)
(-0.999572 -0.499707 7.20449e-21)
(0.0296131 -0.0443041 -7.78639e-21)
(-1.3391 0.706893 6.41781e-21)
(0.0626752 -0.0338542 2.32644e-20)
(-1.55909 -0.600976 0)
(-0.588387 -0.503788 -4.58142e-21)
(-0.952142 -0.0903434 -7.42398e-21)
(-0.592809 0.418668 -4.64166e-21)
(-1.0214 0.606383 0)
(0.036439 -0.00114755 -6.44341e-21)
(-1.22494 -0.52614 0)
(-0.182011 0.0992922 9.30956e-21)
(-0.209827 0.124162 -9.50733e-21)
(-0.579409 -0.38717 0)
(-0.616609 0.0343006 8.86196e-21)
(-0.617843 -0.42481 -1.50013e-20)
(-0.661251 0.0296903 -7.08006e-21)
(-0.546453 0.101325 9.80689e-21)
(-0.604871 -0.33163 9.53222e-21)
(-0.0851261 0.00387466 0)
(-0.285943 0.156747 8.32219e-21)
(-0.227338 0.121444 0)
(-0.471488 -0.341721 -8.40895e-21)
(-0.614886 -0.0415813 7.92947e-21)
(-0.49579 -0.340548 8.4748e-21)
(-0.587844 -0.0110973 3.92913e-23)
(-0.831025 0.297932 6.08729e-22)
(-0.873472 -0.450317 -5.20153e-21)
(-0.000759755 -0.0336628 -1.05631e-20)
(-0.76579 0.240841 -1.66808e-20)
(-0.87699 -0.466901 1.35794e-22)
(-0.00532548 -0.0184608 0)
(0.0715154 -0.0628739 0)
(-1.27661 -0.770787 0)
(-1.44796 0.507858 8.93982e-22)
(-0.582577 0.321576 -4.56611e-21)
(-0.800022 -0.202907 0)
(-0.268181 -0.251652 4.54751e-21)
(-1.44926 0.576063 -8.50833e-21)
(-1.45469 -0.764676 2.13936e-21)
(0.0962982 -0.0436652 -7.03013e-21)
(-1.14086 0.42539 0)
(-1.19883 0.452229 7.33105e-21)
(-1.24398 -0.640997 -2.07178e-21)
(-1.29331 -0.665788 6.07533e-21)
(0.0749274 -0.0343105 -1.01771e-20)
(0.0824447 -0.035442 -9.36579e-21)
(-0.554107 0.289712 0)
(-0.761355 -0.213155 0)
(-0.235137 -0.228379 2.18421e-21)
(-0.879991 0.519858 5.19669e-21)
(-1.10433 -0.314237 0)
(-0.18994 -0.219515 5.41484e-21)
(-1.02905 0.392156 -4.01614e-21)
(-1.14791 -0.580335 0)
(0.0592064 -0.0406574 0)
(-0.292625 0.0625776 9.66107e-21)
(-0.444475 -0.119528 -4.75052e-21)
(-0.239201 -0.153435 4.80109e-21)
(-1.21215 0.416094 0)
(-1.27887 -0.70796 0)
(0.070728 -0.0220888 -1.50653e-20)
(-0.382943 0.161395 0)
(-0.246547 -0.198113 2.57962e-21)
(-0.578609 -0.154588 0)
(-0.990989 0.299384 -9.31704e-21)
(-1.06698 -0.617 -9.1576e-21)
(0.0201576 0.0013597 -1.30363e-21)
(-0.870366 0.491935 5.30366e-21)
(-1.08405 -0.333384 0)
(-0.151718 -0.197733 1.119e-20)
(-0.312719 0.0947399 -9.57445e-21)
(-0.290579 0.0955715 -4.22987e-21)
(-0.487143 -0.131295 4.693e-21)
(-0.244278 -0.172807 -9.52662e-21)
(-0.49488 -0.107171 0)
(-0.288361 -0.203787 -1.69115e-20)
(-0.253887 0.112596 -4.20181e-21)
(-0.39751 -0.27843 1.09615e-20)
(-0.225345 0.107194 2.69924e-21)
(-0.538197 -0.0523016 -1.07573e-20)
(-0.474622 -0.322791 -5.34085e-21)
(-0.563148 -0.0182296 2.38114e-22)
(-0.677845 0.350169 5.01596e-21)
(-0.739556 0.370172 0)
(-0.870372 -0.282365 9.21135e-21)
(-0.919279 -0.323129 -7.19843e-21)
(-0.158991 -0.186817 -1.01426e-20)
(-0.110272 -0.15748 1.68617e-20)
(0.0225351 -0.0753661 0)
(-1.46379 -0.5395 -2.55813e-21)
(-1.24608 0.665438 -6.85164e-21)
(-0.279807 0.210759 6.04269e-21)
(-0.962322 0.0936186 8.56238e-21)
(-0.9178 -0.691597 -1.52856e-20)
(0.0412462 -0.0622229 -7.88758e-21)
(0.0583177 -0.0574261 6.30883e-21)
(-1.49262 -0.571022 2.21519e-21)
(-1.47682 -0.593443 3.93495e-21)
(-1.28109 0.675804 1.72574e-20)
(-1.29151 0.651915 -8.92892e-21)
(-0.428079 0.29792 8.60322e-21)
(-0.657914 -0.51948 -7.38166e-21)
(-0.845086 -0.0258219 2.03546e-21)
(-0.287001 0.00743577 1.64332e-20)
(-0.231248 -0.10217 0)
(-0.370156 -0.112775 -1.63038e-20)
(-1.23849 0.448985 -3.42065e-21)
(-1.31173 -0.702181 -6.86627e-21)
(0.0818614 -0.0301112 0)
(-0.481921 0.247144 0)
(-0.276965 -0.249969 -2.0807e-21)
(-0.698976 -0.170285 -8.14532e-21)
(-0.911305 0.50727 0)
(-1.12207 -0.359672 0)
(-0.12178 -0.176857 -1.04099e-20)
(-1.17864 0.658212 -7.71755e-21)
(-1.17011 0.631399 0)
(-1.41102 -0.486844 1.57659e-21)
(-0.0242239 -0.106513 -9.74576e-21)
(-1.38739 -0.498455 -4.2814e-21)
(-0.00710913 -0.0990647 1.32057e-20)
(-1.13518 0.465355 7.49141e-21)