/*--------------------------------*- C++ -*----------------------------------*\
  =========                 |
  \\      /  F ield         | OpenFOAM: The Open Source CFD Toolbox
   \\    /   O peration     | Website:  https://openfoam.org
    \\  /    A nd           | Version:  6
     \\/     M anipulation  |
\*---------------------------------------------------------------------------*/
FoamFile
{
    version     2.0;
    format      ascii;
    class       volVectorField;
    location    "0";
    object      U;
}
// * * * * * * * * * * * * * * * * * * * * * * * * * * * * * * * * * * * * * //

dimensions      [0 1 -1 0 0 0 0];

internalField   nonuniform List<vector> 
10000
(
(-4.38016e-07 -6.07554e-07 0)
(5.94265e-05 -1.22321e-05 0)
(0.000190025 -2.28282e-05 0)
(0.000375999 -3.12578e-05 0)
(0.000606309 -3.75676e-05 0)
(0.000869401 -4.17168e-05 0)
(0.00115325 -4.36077e-05 0)
(0.00144568 -4.32126e-05 0)
(0.00173492 -4.06675e-05 0)
(0.00201031 -3.62767e-05 0)
(0.00226278 -3.04702e-05 0)
(0.00248527 -2.37408e-05 0)
(0.00267282 -1.65835e-05 0)
(0.00282257 -9.45076e-06 0)
(0.00293359 -2.72893e-06 0)
(0.00300665 3.26279e-06 0)
(0.00304393 8.25085e-06 0)
(0.00304889 1.22528e-05 0)
(0.00302563 1.57621e-05 0)
(0.0029768 1.8736e-05 0)
(0.00290603 2.0834e-05 0)
(0.00281709 2.21574e-05 0)
(0.00271354 2.28471e-05 0)
(0.00259866 2.30206e-05 0)
(0.0024754 2.27787e-05 0)
(0.00234639 2.22118e-05 0)
(0.00221395 2.13973e-05 0)
(0.00208006 2.03998e-05 0)
(0.00194643 1.92763e-05 0)
(0.00181448 1.80745e-05 0)
(0.00168539 1.68306e-05 0)
(0.00156009 1.5575e-05 0)
(0.00143933 1.43337e-05 0)
(0.00132366 1.31241e-05 0)
(0.0012135 1.19571e-05 0)
(0.00110911 1.08431e-05 0)
(0.00101067 9.78962e-06 0)
(0.000918256 8.79846e-06 0)
(0.000831862 7.86901e-06 0)
(0.000751424 7.00219e-06 0)
(0.000676835 6.19811e-06 0)
(0.000607948 5.45366e-06 0)
(0.000544582 4.76467e-06 0)
(0.000486533 4.12872e-06 0)
(0.000433584 3.54415e-06 0)
(0.000385506 3.00796e-06 0)
(0.000342061 2.51604e-06 0)
(0.000303004 2.06502e-06 0)
(0.000268091 1.65297e-06 0)
(0.000237079 1.27802e-06 0)
(0.00020973 9.37344e-07 0)
(0.000185809 6.27642e-07 0)
(0.000165086 3.46347e-07 0)
(0.000147344 9.17222e-08 0)
(0.000132374 -1.38041e-07 0)
(0.000119982 -3.45428e-07 0)
(0.000109985 -5.33335e-07 0)
(0.000102214 -7.04466e-07 0)
(9.65172e-05 -8.61139e-07 0)
(9.27614e-05 -1.00567e-06 0)
(9.0833e-05 -1.14089e-06 0)
(9.06391e-05 -1.2696e-06 0)
(9.21062e-05 -1.39128e-06 0)
(9.51734e-05 -1.50673e-06 0)
(9.97947e-05 -1.61983e-06 0)
(0.000105941 -1.73356e-06 0)
(0.000113609 -1.8517e-06 0)
(0.000122822 -1.9791e-06 0)
(0.000133639 -2.12116e-06 0)
(0.000146156 -2.28337e-06 0)
(0.000160506 -2.47173e-06 0)
(0.00017687 -2.69324e-06 0)
(0.000195474 -2.9564e-06 0)
(0.000216603 -3.27156e-06 0)
(0.000240607 -3.65148e-06 0)
(0.000267906 -4.11161e-06 0)
(0.000299006 -4.67039e-06 0)
(0.000334502 -5.34944e-06 0)
(0.000375086 -6.17352e-06 0)
(0.000421544 -7.16989e-06 0)
(0.000474746 -8.36673e-06 0)
(0.000535617 -9.79034e-06 0)
(0.000605086 -1.14607e-05 0)
(0.000684004 -1.33852e-05 0)
(0.000773021 -1.55495e-05 0)
(0.000872409 -1.79071e-05 0)
(0.000981838 -2.03671e-05 0)
(0.00110009 -2.278e-05 0)
(0.0012247 -2.4924e-05 0)
(0.00135162 -2.64891e-05 0)
(0.00147471 -2.70515e-05 0)
(0.00158532 -2.60327e-05 0)
(0.00167164 -2.26079e-05 0)
(0.00171759 -1.56729e-05 0)
(0.001703 -3.41526e-06 0)
(0.00160016 1.67413e-05 0)
(0.00138006 4.61499e-05 0)
(0.00102199 8.24143e-05 0)
(0.000550717 0.000112129 0)
(0.000105491 9.99422e-05 0)
(1.08444e-05 -6.0694e-05 0)
(0.000180352 -0.000189574 0)
(0.000501724 -0.000303998 0)
(0.000945375 -0.000397831 0)
(0.00148691 -0.000470427 0)
(0.00210158 -0.000520944 0)
(0.00276371 -0.000548844 0)
(0.00344785 -0.000554432 0)
(0.0041298 -0.000539147 0)
(0.00478765 -0.00050549 0)
(0.0054026 -0.000456745 0)
(0.00595941 -0.000396629 0)
(0.00644661 -0.000328961 0)
(0.00685651 -0.000257395 0)
(0.00718489 -0.000185252 0)
(0.00743073 -0.000115432 0)
(0.00759586 -5.04056e-05 0)
(0.00768407 7.92118e-06 0)
(0.00770223 5.95446e-05 0)
(0.00765857 0.000105183 0)
(0.00755855 0.000144326 0)
(0.00740949 0.000176754 0)
(0.00721848 0.000202813 0)
(0.00699242 0.000222994 0)
(0.00673788 0.00023784 0)
(0.00646101 0.00024792 0)
(0.00616745 0.000253808 0)
(0.00586231 0.000256062 0)
(0.00555015 0.000255212 0)
(0.00523502 0.000251759 0)
(0.00492039 0.000246159 0)
(0.00460927 0.000238828 0)
(0.00430417 0.000230133 0)
(0.00400717 0.000220401 0)
(0.00371997 0.000209913 0)
(0.00344389 0.00019891 0)
(0.00317995 0.000187595 0)
(0.00292889 0.000176139 0)
(0.00269121 0.000164682 0)
(0.00246721 0.000153338 0)
(0.00225701 0.0001422 0)
(0.00206059 0.000131342 0)
(0.0018778 0.000120819 0)
(0.00170838 0.000110678 0)
(0.00155201 0.00010095 0)
(0.00140828 9.16589e-05 0)
(0.00127674 8.28202e-05 0)
(0.0011569 7.44427e-05 0)
(0.00104823 6.65303e-05 0)
(0.000950192 5.90817e-05 0)
(0.000862234 5.20899e-05 0)
(0.000783797 4.5544e-05 0)
(0.000714327 3.943e-05 0)
(0.000653281 3.37308e-05 0)
(0.000600136 2.84258e-05 0)
(0.000554389 2.34907e-05 0)
(0.000515562 1.88979e-05 0)
(0.000483211 1.46177e-05 0)
(0.000456929 1.06177e-05 0)
(0.000436353 6.86289e-06 0)
(0.00042116 3.31455e-06 0)
(0.000411081 -6.85105e-08 0)
(0.000405891 -3.32573e-06 0)
(0.000405453 -6.47906e-06 0)
(0.000409626 -9.5508e-06 0)
(0.000418312 -1.25848e-05 0)
(0.00043147 -1.56353e-05 0)
(0.000449123 -1.87631e-05 0)
(0.00047138 -2.20355e-05 0)
(0.000498435 -2.55254e-05 0)
(0.000530574 -2.93125e-05 0)
(0.000568187 -3.34856e-05 0)
(0.000611776 -3.81449e-05 0)
(0.000661966 -4.34042e-05 0)
(0.000719514 -4.93929e-05 0)
(0.00078533 -5.6256e-05 0)
(0.00086048 -6.41529e-05 0)
(0.000946196 -7.32527e-05 0)
(0.00104387 -8.37246e-05 0)
(0.00115501 -9.57213e-05 0)
(0.00128124 -0.000109354 0)
(0.00142414 -0.000124651 0)
(0.00158517 -0.000141512 0)
(0.0017654 -0.00015963 0)
(0.00196525 -0.000178416 0)
(0.0021841 -0.000196896 0)
(0.00241974 -0.00021361 0)
(0.00266781 -0.000226511 0)
(0.00292107 -0.000232878 0)
(0.00316864 -0.000229234 0)
(0.00339518 -0.000211273 0)
(0.00358009 -0.00017373 0)
(0.00369657 -0.000110127 0)
(0.003711 -1.26113e-05 0)
(0.00358195 0.000128796 0)
(0.00326179 0.000320252 0)
(0.00271197 0.000551756 0)
(0.00192221 0.000775714 0)
(0.000976851 0.000865267 0)
(0.00014299 0.000564463 0)
(1.79657e-05 -0.000180367 0)
(0.000265252 -0.000501892 0)
(0.00071559 -0.000776877 0)
(0.00132759 -0.00100263 0)
(0.00206802 -0.00117798 0)
(0.00290444 -0.00130126 0)
(0.00380392 -0.00137189 0)
(0.00473455 -0.00139125 0)
(0.00566653 -0.00136299 0)
(0.00657317 -0.00129271 0)
(0.00743151 -0.00118742 0)
(0.00822269 -0.00105486 0)
(0.00893201 -0.000902935 0)
(0.00954883 -0.000739259 0)
(0.0100663 -0.000570814 0)
(0.0104809 -0.000403785 0)
(0.0107923 -0.000243475 0)
(0.0110028 -9.44198e-05 0)
(0.0111153 4.00508e-05 0)
(0.0111403 0.000159801 0)
(0.0110852 0.000265619 0)
(0.0109578 0.000356777 0)
(0.0107666 0.00043348 0)
(0.0105201 0.000496383 0)
(0.0102264 0.000546349 0)
(0.00989331 0.000584377 0)
(0.00952834 0.000611552 0)
(0.00913847 0.000628997 0)
(0.00873016 0.00063784 0)
(0.00830931 0.000639181 0)
(0.00788123 0.000634077 0)
(0.00745064 0.000623519 0)
(0.00702167 0.000608427 0)
(0.00659795 0.000589637 0)
(0.00618253 0.000567904 0)
(0.005778 0.000543896 0)
(0.00538649 0.000518203 0)
(0.00500973 0.000491336 0)
(0.00464905 0.000463736 0)
(0.00430548 0.000435778 0)
(0.00397972 0.000407779 0)
(0.00367224 0.000380004 0)
(0.00338326 0.000352674 0)
(0.00311283 0.00032597 0)
(0.00286079 0.000300036 0)
(0.00262689 0.000274989 0)
(0.00241071 0.000250917 0)
(0.00221177 0.000227889 0)
(0.00202949 0.000205951 0)
(0.00186323 0.00018513 0)
(0.00171232 0.000165437 0)
(0.00157604 0.000146871 0)
(0.00145365 0.000129415 0)
(0.00134444 0.00011304 0)
(0.00124766 9.7705e-05 0)
(0.0011626 8.33578e-05 0)
(0.00108859 6.99376e-05 0)
(0.00102498 5.73743e-05 0)
(0.000971152 4.5589e-05 0)
(0.000926564 3.44939e-05 0)
(0.00089072 2.39927e-05 0)
(0.000863187 1.39809e-05 0)
(0.000843611 4.3462e-06 0)
(0.000831685 -5.01235e-06 0)
(0.000827292 -1.41513e-05 0)
(0.000830269 -2.31402e-05 0)
(0.000840497 -3.211e-05 0)
(0.000857953 -4.12218e-05 0)
(0.000882721 -5.06451e-05 0)
(0.000915005 -6.05624e-05 0)
(0.000955134 -7.11721e-05 0)
(0.00100357 -8.26913e-05 0)
(0.00106091 -9.53596e-05 0)
(0.00112792 -0.000109443 0)
(0.0012055 -0.000125233 0)
(0.00129473 -0.000143049 0)
(0.00139688 -0.000163227 0)
(0.00151336 -0.000186103 0)
(0.00164572 -0.000211989 0)
(0.00179561 -0.000241125 0)
(0.00196469 -0.000273613 0)
(0.00215447 -0.000309326 0)
(0.00236613 -0.000347779 0)
(0.00260025 -0.000387975 0)
(0.00285638 -0.000428211 0)
(0.00313256 -0.000465867 0)
(0.00342472 -0.000497184 0)
(0.00372585 -0.000517051 0)
(0.00402522 -0.000518831 0)
(0.00430742 -0.00049424 0)
(0.00455142 -0.00043326 0)
(0.00472975 -0.000324096 0)
(0.00480759 -0.000153056 0)
(0.00474316 9.59011e-05 0)
(0.00448617 0.000437389 0)
(0.00399143 0.000871322 0)
(0.00323061 0.00136034 0)
(0.00221868 0.00178835 0)
(0.00108242 0.00188996 0)
(0.000138216 0.00116164 0)
(2.07688e-05 -0.000333639 0)
(0.000313532 -0.000895605 0)
(0.00084381 -0.00136615 0)
(0.00156043 -0.00175022 0)
(0.00242338 -0.00204784 0)
(0.00339491 -0.00225764 0)
(0.0044377 -0.00237995 0)
(0.00551652 -0.00241819 0)
(0.0065992 -0.00237901 0)
(0.0076574 -0.00227176 0)
(0.00866702 -0.00210758 0)
(0.00960835 -0.00189844 0)
(0.0104659 -0.00165639 0)
(0.0112282 -0.00139292 0)
(0.0118873 -0.00111856 0)
(0.0124385 -0.000842623 0)
(0.0128798 -0.000573136 0)
(0.0132114 -0.000316777 0)
(0.0134362 -7.95819e-05 0)
(0.0135559 0.000134858 0)
(0.0135823 0.000326144 0)
(0.0135217 0.000494468 0)
(0.0133829 0.000639746 0)
(0.0131742 0.000762635 0)
(0.0129042 0.000864149 0)
(0.012581 0.000945554 0)
(0.0122126 0.0010083 0)
(0.0118067 0.00105395 0)
(0.0113705 0.00108415 0)
(0.0109108 0.00110054 0)
(0.0104341 0.00110475 0)
(0.00994595 0.00109834 0)
(0.00945176 0.00108282 0)
(0.00895622 0.00105959 0)
(0.00846353 0.00102994 0)
(0.00797736 0.000995051 0)
(0.00750091 0.000955995 0)
(0.00703688 0.000913728 0)
(0.00658758 0.000869096 0)
(0.00615485 0.000822842 0)
(0.00574021 0.000775618 0)
(0.00534482 0.000727983 0)
(0.0049695 0.000680418 0)
(0.00461482 0.000633332 0)
(0.00428111 0.000587069 0)
(0.00396845 0.000541915 0)
(0.00367675 0.000498106 0)
(0.00340575 0.000455827 0)
(0.00315505 0.000415222 0)
(0.00292412 0.000376398 0)
(0.00271235 0.000339425 0)
(0.00251905 0.00030434 0)
(0.00234349 0.000271153 0)
(0.00218487 0.000239843 0)
(0.00204241 0.000210366 0)
(0.00191531 0.000182653 0)
(0.00180277 0.000156615 0)
(0.00170403 0.000132142 0)
(0.00161836 0.000109108 0)
(0.00154508 8.7367e-05 0)
(0.00148358 6.67582e-05 0)
(0.00143328 4.71053e-05 0)
(0.00139372 2.82178e-05 0)
(0.00136451 9.88871e-06 0)
(0.00134529 -8.06848e-06 0)
(0.00133603 -2.57456e-05 0)
(0.00133659 -4.3284e-05 0)
(0.00134681 -6.09532e-05 0)
(0.00136671 -7.90583e-05 0)
(0.00139643 -9.79126e-05 0)
(0.00143625 -0.000117852 0)
(0.00148656 -0.000139241 0)
(0.00154795 -0.00016247 0)
(0.00162112 -0.000187966 0)
(0.00170693 -0.000216187 0)
(0.00180641 -0.000247618 0)
(0.00192072 -0.000282751 0)
(0.00205114 -0.000322058 0)
(0.00219906 -0.000365936 0)
(0.00236587 -0.000414634 0)
(0.00255286 -0.000468136 0)
(0.00276111 -0.000526006 0)
(0.00299118 -0.00058719 0)
(0.0032429 -0.000649756 0)
(0.00351485 -0.000710598 0)
(0.00380393 -0.00076509 0)
(0.00410459 -0.000806743 0)
(0.00440814 -0.000826872 0)
(0.00470178 -0.000814333 0)
(0.00496767 -0.000755368 0)
(0.00518196 -0.000633577 0)
(0.00531405 -0.000430072 0)
(0.00532619 -0.000123734 0)
(0.00517346 0.000308226 0)
(0.00480882 0.000878863 0)
(0.00419497 0.00157391 0)
(0.00331873 0.0023194 0)
(0.00221772 0.00292149 0)
(0.00104175 0.00297502 0)
(0.000118914 0.00175554 0)
(2.11693e-05 -0.000503507 0)
(0.000337725 -0.00133531 0)
(0.000914908 -0.00202413 0)
(0.00169477 -0.00258283 0)
(0.00263202 -0.00301379 0)
(0.0036845 -0.0033171 0)
(0.00481155 -0.00349513 0)
(0.00597574 -0.00355437 0)
(0.0071437 -0.00350536 0)
(0.00828672 -0.00336185 0)
(0.00938093 -0.00313948 0)
(0.0104072 -0.00285464 0)
(0.0113507 -0.00252346 0)
(0.0122005 -0.00216114 0)
(0.0129492 -0.00178144 0)
(0.0135922 -0.00139646 0)
(0.0141273 -0.00101657 0)
(0.014554 -0.000650383 0)
(0.0148738 -0.000304998 0)
(0.0150884 1.31372e-05 0)
(0.0152021 0.00030026 0)
(0.0152233 0.000556202 0)
(0.015159 0.000780926 0)
(0.0150172 0.000975047 0)
(0.0148057 0.00113961 0)
(0.0145322 0.00127601 0)
(0.0142042 0.00138589 0)
(0.0138293 0.00147112 0)
(0.0134145 0.00153366 0)
(0.0129668 0.00157558 0)
(0.0124927 0.00159894 0)
(0.0119984 0.0016058 0)
(0.0114895 0.00159813 0)
(0.0109713 0.00157785 0)
(0.0104486 0.00154675 0)
(0.00992586 0.00150651 0)
(0.00940698 0.00145868 0)
(0.00889546 0.00140467 0)
(0.00839434 0.00134577 0)
(0.00790628 0.00128314 0)
(0.00743353 0.00121782 0)
(0.00697797 0.00115073 0)
(0.00654112 0.00108268 0)
(0.00612419 0.00101436 0)
(0.00572808 0.000946414 0)
(0.0053534 0.00087935 0)
(0.00500053 0.00081362 0)
(0.00466962 0.000749597 0)
(0.00436062 0.000687584 0)
(0.0040733 0.000627822 0)
(0.00380729 0.000570492 0)
(0.0035621 0.00051572 0)
(0.00333714 0.000463578 0)
(0.00313172 0.000414093 0)
(0.00294513 0.000367246 0)
(0.0027766 0.000322977 0)
(0.00262535 0.00028119 0)
(0.00249059 0.000241753 0)
(0.00237157 0.000204501 0)
(0.00226754 0.000169241 0)
(0.00217783 0.000135754 0)
(0.00210181 0.000103795 0)
(0.00203889 7.30944e-05 0)
(0.00198861 4.33619e-05 0)
(0.00195057 1.42756e-05 0)
(0.00192437 -1.44479e-05 0)
(0.00191021 -4.29207e-05 0)
(0.00190782 -7.13925e-05 0)
(0.0019171 -0.000100312 0)
(0.00193806 -0.000130138 0)
(0.00197085 -0.000161346 0)
(0.00201575 -0.000194442 0)
(0.00207319 -0.000229961 0)
(0.00214372 -0.000268475 0)
(0.00222802 -0.000310583 0)
(0.00232688 -0.000356902 0)
(0.00244122 -0.000408037 0)
(0.00257199 -0.000464537 0)
(0.00272021 -0.000526815 0)
(0.00288682 -0.000595045 0)
(0.0030726 -0.000668997 0)
(0.00327801 -0.000747826 0)
(0.00350297 -0.000829797 0)
(0.00374654 -0.000911931 0)
(0.00400652 -0.0009896 0)
(0.00427893 -0.00105606 0)
(0.00455739 -0.00110197 0)
(0.00483227 -0.00111494 0)
(0.00508987 -0.00107921 0)
(0.00531145 -0.000975432 0)
(0.00547233 -0.00078081 0)
(0.00554135 -0.000469599 0)
(0.0054808 -1.38359e-05 0)
(0.00524693 0.000612034 0)
(0.00480062 0.00141468 0)
(0.00411386 0.00236104 0)
(0.00318777 0.00333555 0)
(0.00207701 0.00406607 0)
(0.00094078 0.00401977 0)
(9.62245e-05 0.00229592 0)
(2.068e-05 -0.000680739 0)
(0.000349525 -0.00180049 0)
(0.00095469 -0.00272317 0)
(0.0017737 -0.00346744 0)
(0.0027569 -0.00403824 0)
(0.0038581 -0.00443791 0)
(0.00503359 -0.00467198 0)
(0.00624404 -0.00475108 0)
(0.00745527 -0.00469065 0)
(0.00863866 -0.00450956 0)
(0.00977112 -0.0042285 0)
(0.0108347 -0.00386854 0)
(0.011816 -0.00345003 0)
(0.0127057 -0.00299174 0)
(0.0134976 -0.00251048 0)
(0.0141883 -0.00202082 0)
(0.0147763 -0.00153508 0)
(0.0152618 -0.00106342 0)
(0.0156461 -0.000614029 0)
(0.0159317 -0.000193984 0)
(0.0161194 0.000190972 0)
(0.0162154 0.000537401 0)
(0.0162257 0.000845423 0)
(0.0161571 0.00111559 0)
(0.0160162 0.0013489 0)
(0.0158097 0.00154676 0)
(0.0155445 0.00171092 0)
(0.0152271 0.00184337 0)
(0.014864 0.00194631 0)
(0.0144615 0.00202205 0)
(0.0140256 0.00207295 0)
(0.0135624 0.0021014 0)
(0.0130772 0.00210974 0)
(0.0125754 0.00210026 0)
(0.012062 0.00207515 0)
(0.0115414 0.0020365 0)
(0.0110179 0.00198625 0)
(0.0104955 0.00192625 0)
(0.0099777 0.00185816 0)
(0.00946761 0.00178356 0)
(0.00896808 0.00170385 0)
(0.00848157 0.00162033 0)
(0.00801021 0.00153414 0)
(0.00755579 0.00144633 0)
(0.0071198 0.00135783 0)
(0.00670341 0.00126944 0)
(0.00630754 0.00118187 0)
(0.00593281 0.00109573 0)
(0.00557965 0.00101153 0)
(0.00524822 0.000929716 0)
(0.00493854 0.000850614 0)
(0.00465044 0.000774489 0)
(0.00438358 0.000701528 0)
(0.00413754 0.000631844 0)
(0.00391179 0.000565486 0)
(0.0037057 0.000502436 0)
(0.00351864 0.000442623 0)
(0.00334988 0.00038592 0)
(0.00319874 0.00033215 0)
(0.00306451 0.000281094 0)
(0.0029465 0.000232491 0)
(0.00284407 0.000186041 0)
(0.00275662 0.000141412 0)
(0.0026836 9.82361e-05 0)
(0.00262456 5.61156e-05 0)
(0.00257912 1.4598e-05 0)
(0.00254685 -2.66809e-05 0)
(0.00252818 -6.78488e-05 0)
(0.00252271 -0.000109295 0)
(0.00253032 -0.000151656 0)
(0.00255101 -0.000195541 0)
(0.00258489 -0.000241581 0)
(0.00263216 -0.000290433 0)
(0.00269316 -0.000342785 0)
(0.0027683 -0.000399341 0)
(0.00285807 -0.000460807 0)
(0.00296303 -0.000527853 0)
(0.00308375 -0.000601044 0)
(0.00322076 -0.000680753 0)
(0.00337452 -0.000767013 0)
(0.00354524 -0.000859323 0)
(0.00373279 -0.000956379 0)
(0.00393648 -0.00105573 0)
(0.00415475 -0.00115333 0)
(0.00438482 -0.00124304 0)
(0.0046222 -0.00131604 0)
(0.00486007 -0.00136021 0)
(0.00508854 -0.00135954 0)
(0.00529379 -0.00129377 0)
(0.0054572 -0.00113817 0)
(0.00555448 -0.000863881 0)
(0.00555566 -0.000438872 0)
(0.00542434 0.000170378 0)
(0.0051222 0.000987941 0)
(0.00461731 0.00201178 0)
(0.00389116 0.0031871 0)
(0.00295668 0.00435482 0)
(0.00188034 0.00516803 0)
(0.000821888 0.00498308 0)
(7.49619e-05 0.00276805 0)
(2.02061e-05 -0.000861571 0)
(0.000356945 -0.002281 0)
(0.000981092 -0.00344826 0)
(0.00182656 -0.00438521 0)
(0.00283974 -0.0050989 0)
(0.00397053 -0.00559453 0)
(0.00517232 -0.00588183 0)
(0.00640404 -0.00597673 0)
(0.00763091 -0.00590056 0)
(0.00882464 -0.00567816 0)
(0.00996319 -0.00533586 0)
(0.0110301 -0.00489979 0)
(0.0120139 -0.00439465 0)
(0.012907 -0.00384284 0)
(0.0137051 -0.00326406 0)
(0.0144064 -0.00267513 0)
(0.015011 -0.00209007 0)
(0.0155203 -0.00152022 0)
(0.0159363 -0.000974605 0)
(0.0162619 -0.000460351 0)
(0.0164996 1.62926e-05 0)
(0.0166513 0.000449967 0)
(0.0167223 0.000839192 0)
(0.0167182 0.00118449 0)
(0.0166443 0.00148681 0)
(0.0165063 0.00174753 0)
(0.0163096 0.0019684 0)
(0.0160599 0.00215151 0)
(0.0157625 0.00229914 0)
(0.0154228 0.00241374 0)
(0.0150461 0.00249786 0)
(0.0146375 0.00255406 0)
(0.0142019 0.00258493 0)
(0.0137441 0.00259299 0)
(0.0132687 0.0025807 0)
(0.01278 0.00255042 0)
(0.0122823 0.00250441 0)
(0.0117793 0.00244481 0)
(0.0112749 0.00237361 0)
(0.0107723 0.00229269 0)
(0.0102746 0.0022038 0)
(0.0097847 0.00210855 0)
(0.00930509 0.00200841 0)
(0.00883801 0.00190474 0)
(0.0083854 0.00179877 0)
(0.00794894 0.00169159 0)
(0.00753001 0.00158421 0)
(0.00712975 0.00147748 0)
(0.00674902 0.00137217 0)
(0.00638846 0.00126892 0)
(0.00604849 0.00116828 0)
(0.00572933 0.00107068 0)
(0.00543102 0.000976472 0)
(0.00515346 0.000885887 0)
(0.00489638 0.000799085 0)
(0.00465943 0.000716131 0)
(0.00444215 0.000637014 0)
(0.00424404 0.000561648 0)
(0.00406452 0.000489876 0)
(0.00390299 0.000421483 0)
(0.00375886 0.000356191 0)
(0.00363153 0.000293675 0)
(0.00352041 0.000233558 0)
(0.00342497 0.00017542 0)
(0.00334469 0.000118797 0)
(0.00327916 6.31818e-05 0)
(0.00322799 7.98248e-06 0)
(0.00319083 -4.71717e-05 0)
(0.00316814 -0.000102454 0)
(0.00315943 -0.00015844 0)
(0.00316455 -0.000215907 0)
(0.00318343 -0.000275588 0)
(0.00321606 -0.000338232 0)
(0.00326249 -0.000404609 0)
(0.00332285 -0.00047549 0)
(0.0033973 -0.000551628 0)
(0.00348602 -0.000633707 0)
(0.00358916 -0.000722266 0)
(0.00370681 -0.000817587 0)
(0.00383891 -0.000919527 0)
(0.00398516 -0.00102728 0)
(0.00414492 -0.00113909 0)
(0.00431697 -0.00125178 0)
(0.00449931 -0.00136032 0)
(0.00468877 -0.00145712 0)
(0.00488061 -0.00153142 0)
(0.00506794 -0.00156847 0)
(0.00524099 -0.00154888 0)
(0.00538634 -0.00144814 0)
(0.00548613 -0.0012365 0)
(0.00551729 -0.000879562 0)
(0.00545182 -0.000339833 0)
(0.00525593 0.000419541 0)
(0.00489795 0.00141903 0)
(0.00435236 0.00264611 0)
(0.00360937 0.00402251 0)
(0.00269117 0.00534582 0)
(0.00167171 0.00620022 0)
(0.00070567 0.00584967 0)
(5.70665e-05 0.00317122 0)
(2.01269e-05 -0.00104545 0)
(0.000364247 -0.00277333 0)
(0.00100404 -0.00419265 0)
(0.00186966 -0.00532623 0)
(0.00290346 -0.00618284 0)
(0.00405159 -0.00677114 0)
(0.00526472 -0.00710612 0)
(0.0065003 -0.00721021 0)
(0.00772323 -0.00711168 0)
(0.00890582 -0.00684216 0)
(0.0100273 -0.0064342 0)
(0.011073 -0.00591938 0)
(0.0120333 -0.00532694 0)
(0.0129029 -0.00468293 0)
(0.0136793 -0.00400988 0)
(0.0143629 -0.00332671 0)
(0.0149553 -0.00264887 0)
(0.0154595 -0.00198866 0)
(0.0158787 -0.00135561 0)
(0.0162167 -0.000756984 0)
(0.016477 -0.00019852 0)
(0.0166619 0.000314537 0)
(0.0167741 0.000778454 0)
(0.0168185 0.00119353 0)
(0.0167996 0.00156071 0)
(0.0167215 0.00188133 0)
(0.0165888 0.00215718 0)
(0.0164057 0.00239037 0)
(0.0161766 0.00258324 0)
(0.0159056 0.00273831 0)
(0.015597 0.00285818 0)
(0.0152549 0.00294554 0)
(0.0148834 0.00300305 0)
(0.0144863 0.00303339 0)
(0.0140678 0.00303913 0)
(0.0136315 0.0030228 0)
(0.0131812 0.00298683 0)
(0.0127205 0.00293355 0)
(0.0122527 0.00286516 0)
(0.0117813 0.00278378 0)
(0.0113093 0.00269137 0)
(0.0108396 0.0025898 0)
(0.010375 0.0024808 0)
(0.00991776 0.002366 0)
(0.00947027 0.00224687 0)
(0.00903452 0.00212481 0)
(0.00861225 0.00200105 0)
(0.00820499 0.00187672 0)
(0.00781401 0.00175283 0)
(0.00744037 0.00163025 0)
(0.00708489 0.00150975 0)
(0.00674819 0.00139196 0)
(0.00643069 0.00127741 0)
(0.00613263 0.0011665 0)
(0.0058541 0.00105953 0)
(0.00559504 0.000956672 0)
(0.00535527 0.000858023 0)
(0.0051345 0.000763568 0)
(0.00493238 0.000673207 0)
(0.00474848 0.000586759 0)
(0.00458234 0.000503966 0)
(0.00443347 0.000424503 0)
(0.00430137 0.000347983 0)
(0.00418554 0.000273961 0)
(0.00408548 0.000201935 0)
(0.00400075 0.000131354 0)
(0.00393094 6.15976e-05 0)
(0.00387554 -8.02843e-06 0)
(0.00383459 -7.78174e-05 0)
(0.00380819 -0.000148065 0)
(0.00379585 -0.000219538 0)
(0.00379735 -0.000293071 0)
(0.00381248 -0.000369474 0)
(0.00384104 -0.000449563 0)
(0.00388287 -0.000534141 0)
(0.00393782 -0.000623966 0)
(0.0040057 -0.000719699 0)
(0.00408627 -0.000821818 0)
(0.0041792 -0.000930483 0)
(0.00428399 -0.00104535 0)
(0.00439992 -0.00116533 0)
(0.00452589 -0.00128818 0)
(0.00466031 -0.00141011 0)
(0.00480083 -0.00152513 0)
(0.0049441 -0.00162438 0)
(0.00508532 -0.00169528 0)
(0.00521771 -0.00172069 0)
(0.00533193 -0.0016781 0)
(0.00541527 -0.00153913 0)
(0.00545096 -0.00126943 0)
(0.00541768 -0.000829717 0)
(0.00528955 -0.000177866 0)
(0.0050365 0.000724249 0)
(0.00463328 0.00189182 0)
(0.00406019 0.00330101 0)
(0.0033149 0.00484928 0)
(0.00242664 0.00629232 0)
(0.0014734 0.00715248 0)
(0.000601354 0.00661924 0)
(4.28973e-05 0.00351188 0)
(2.05205e-05 -0.00123321 0)
(0.000373028 -0.0032771 0)
(0.00102754 -0.00495347 0)
(0.00190974 -0.0062848 0)
(0.00295768 -0.00728146 0)
(0.00411388 -0.00795641 0)
(0.00532665 -0.00833112 0)
(0.00655236 -0.00843571 0)
(0.00775595 -0.00830643 0)
(0.00891068 -0.00798247 0)
(0.00999732 -0.00750318 0)
(0.0110031 -0.00690588 0)
(0.0119207 -0.0062245 0)
(0.0127467 -0.0054888 0)
(0.013481 -0.00472403 0)
(0.0141259 -0.00395104 0)
(0.0146848 -0.00318653 0)
(0.0151621 -0.00244351 0)
(0.0155626 -0.00173177 0)
(0.0158909 -0.00105851 0)
(0.0161514 -0.000428907 0)
(0.0163483 0.00015296 0)
(0.0164821 0.000682487 0)
(0.0165577 0.00115906 0)
(0.0165785 0.00158385 0)
(0.0165478 0.00195827 0)
(0.0164689 0.00228415 0)
(0.0163452 0.00256365 0)
(0.0161798 0.00279915 0)
(0.0159757 0.00299322 0)
(0.015736 0.00314849 0)
(0.0154638 0.00326767 0)
(0.0151622 0.00335345 0)
(0.014834 0.00340852 0)
(0.0144825 0.0034355 0)
(0.0141107 0.00343696 0)
(0.0137216 0.00341539 0)
(0.0133182 0.00337319 0)
(0.0129037 0.00331267 0)
(0.0124808 0.00323606 0)
(0.0120524 0.00314546 0)
(0.0116215 0.00304289 0)
(0.0111904 0.00293027 0)
(0.0107619 0.0028094 0)
(0.0103381 0.00268199 0)
(0.00992135 0.00254961 0)
(0.00951354 0.00241374 0)
(0.00911646 0.00227572 0)
(0.00873169 0.00213679 0)
(0.0083606 0.00199805 0)
(0.00800437 0.00186047 0)
(0.00766395 0.0017249 0)
(0.00734012 0.00159204 0)
(0.00703346 0.00146249 0)
(0.00674438 0.0013367 0)
(0.00647314 0.00121499 0)
(0.00621986 0.00109758 0)
(0.00598453 0.000984555 0)
(0.00576701 0.000875912 0)
(0.00556711 0.000771534 0)
(0.00538455 0.000671214 0)
(0.00521898 0.000574663 0)
(0.00507002 0.000481511 0)
(0.00493726 0.000391323 0)
(0.00482027 0.000303594 0)
(0.00471862 0.00021776 0)
(0.00463187 0.000133194 0)
(0.00455964 4.91586e-05 0)
(0.00450118 -3.50687e-05 0)
(0.00445713 -0.000119655 0)
(0.00442693 -0.000205068 0)
(0.00441017 -0.000292201 0)
(0.00440647 -0.000381899 0)
(0.00441545 -0.000474982 0)
(0.00443668 -0.000572247 0)
(0.00446974 -0.000674428 0)
(0.00451411 -0.000782132 0)
(0.00456924 -0.000895745 0)
(0.00463444 -0.00101529 0)
(0.00470884 -0.00114023 0)
(0.00479135 -0.00126917 0)
(0.00488056 -0.00139946 0)
(0.00497458 -0.00152672 0)
(0.00507087 -0.00164412 0)
(0.00516598 -0.00174163 0)
(0.00525517 -0.00180508 0)
(0.00533195 -0.00181516 0)
(0.00538749 -0.00174655 0)
(0.00540999 -0.00156734 0)
(0.00538393 -0.00123912 0)
(0.00529 -0.000718254 0)
(0.00510415 4.12719e-05 0)
(0.00480178 0.00107578 0)
(0.00436213 0.00239582 0)
(0.00377114 0.00396521 0)
(0.00303261 0.00565702 0)
(0.00218096 0.00718734 0)
(0.00129557 0.00802416 0)
(0.000512163 0.00729888 0)
(3.21306e-05 0.003799 0)
(2.13239e-05 -0.00142594 0)
(0.000383333 -0.0037928 0)
(0.00105205 -0.00572912 0)
(0.00194777 -0.00725655 0)
(0.003004 -0.00838761 0)
(0.0041599 -0.00914072 0)
(0.00536183 -0.00954515 0)
(0.00656558 -0.00963994 0)
(0.00773658 -0.00947029 0)
(0.00884939 -0.0090837 0)
(0.00988663 -0.00852672 0)
(0.0108377 -0.00784272 0)
(0.0116974 -0.00707043 0)
(0.0124648 -0.00624322 0)
(0.0131419 -0.00538899 0)
(0.0137328 -0.00453032 0)
(0.0142427 -0.00368495 0)
(0.0146777 -0.00286634 0)
(0.0150437 -0.00208433 0)
(0.0153463 -0.00134581 0)
(0.0155907 -0.000655426 0)
(0.0157816 -1.60021e-05 0)
(0.0159215 0.000568751 0)
(0.0160129 0.00109714 0)
(0.0160593 0.00157063 0)
(0.0160631 0.00199082 0)
(0.0160268 0.00235969 0)
(0.0159527 0.0026795 0)
(0.015843 0.00295274 0)
(0.0156998 0.00318202 0)
(0.0155251 0.00337 0)
(0.0153207 0.00351938 0)
(0.0150888 0.00363283 0)
(0.0148315 0.00371299 0)
(0.0145507 0.00376244 0)
(0.0142488 0.00378371 0)
(0.0139281 0.00377926 0)
(0.0135908 0.00375145 0)
(0.0132393 0.00370261 0)
(0.0128762 0.00363496 0)
(0.0125039 0.00355066 0)
(0.0121247 0.0034518 0)
(0.0117412 0.00334037 0)
(0.0113556 0.00321829 0)
(0.0109702 0.00308739 0)
(0.0105873 0.00294939 0)
(0.0102087 0.00280595 0)
(0.00983653 0.00265858 0)
(0.00947239 0.00250869 0)
(0.0091179 0.00235758 0)
(0.00877447 0.00220641 0)
(0.00844332 0.00205623 0)
(0.00812552 0.00190793 0)
(0.00782193 0.00176226 0)
(0.00753326 0.00161986 0)
(0.00726006 0.00148121 0)
(0.00700273 0.00134667 0)
(0.00676151 0.00121644 0)
(0.00653654 0.00109064 0)
(0.00632784 0.000969246 0)
(0.00613533 0.000852126 0)
(0.00595885 0.000739058 0)
(0.00579816 0.000629724 0)
(0.00565297 0.000523726 0)
(0.00552295 0.00042059 0)
(0.00540772 0.000319772 0)
(0.00530687 0.000220661 0)
(0.00521997 0.000122572 0)
(0.0051466 2.46534e-05 0)
(0.00508596 -7.36746e-05 0)
(0.00503876 -0.00017254 0)
(0.00500415 -0.000272595 0)
(0.00498167 -0.000374731 0)
(0.00497075 -0.000479748 0)
(0.0049708 -0.000588401 0)
(0.00498114 -0.00070137 0)
(0.00500104 -0.000819183 0)
(0.00502964 -0.000942118 0)
(0.00506599 -0.00107005 0)
(0.00510895 -0.00120225 0)
(0.00515714 -0.00133704 0)
(0.00520892 -0.0014714 0)
(0.0052622 -0.00160041 0)
(0.00531432 -0.00171653 0)
(0.00536183 -0.00180869 0)
(0.00540014 -0.00186128 0)
(0.00542309 -0.00185308 0)
(0.00542248 -0.00175625 0)
(0.00538739 -0.00153573 0)
(0.00530367 -0.00114951 0)
(0.00515394 -0.000550234 0)
(0.00491651 0.000310597 0)
(0.00457189 0.00146637 0)
(0.00410298 0.002923 0)
(0.00350095 0.00463124 0)
(0.0027746 0.00644029 0)
(0.00196189 0.00802945 0)
(0.00114163 0.00881975 0)
(0.0004382 0.0078989 0)
(2.41897e-05 0.00404183 0)
(2.24278e-05 -0.00162444 0)
(0.000394465 -0.00432057 0)
(0.00107618 -0.00651767 0)
(0.00198177 -0.00823695 0)
(0.00304008 -0.00949423 0)
(0.00418724 -0.0103148 0)
(0.00536819 -0.0107373 0)
(0.00653866 -0.0108108 0)
(0.00766505 -0.0105905 0)
(0.00872359 -0.0101326 0)
(0.00969901 -0.0094915 0)
(0.010583 -0.0087166 0)
(0.0113729 -0.0078515 0)
(0.01207 -0.00693314 0)
(0.0126784 -0.00599185 0)
(0.0132042 -0.00505175 0)
(0.0136545 -0.00413135 0)
(0.0140364 -0.00324432 0)
(0.0143571 -0.00240027 0)
(0.0146233 -0.00160555 0)
(0.0148407 -0.000864044 0)
(0.015014 -0.000177716 0)
(0.015148 0.000451172 0)
(0.0152432 0.00102117 0)
(0.0153035 0.00153377 0)
(0.0153307 0.00199081 0)
(0.0153264 0.00239451 0)
(0.0152924 0.00274737 0)
(0.0152299 0.00305203 0)
(0.01514 0.0033112 0)
(0.0150238 0.00352758 0)
(0.0148824 0.00370388 0)
(0.0147167 0.0038427 0)
(0.0145279 0.00394662 0)
(0.0143172 0.00401812 0)
(0.014086 0.00405961 0)
(0.0138357 0.00407344 0)
(0.013568 0.00406189 0)
(0.0132846 0.00402719 0)
(0.0129874 0.0039715 0)
(0.0126782 0.00389695 0)
(0.0123592 0.00380557 0)
(0.0120322 0.00369939 0)
(0.0116995 0.00358034 0)
(0.0113631 0.00345032 0)
(0.0110249 0.00331112 0)
(0.010687 0.0031645 0)
(0.0103513 0.00301209 0)
(0.0100195 0.00285543 0)
(0.00969323 0.00269599 0)
(0.00937415 0.00253506 0)
(0.00906361 0.00237387 0)
(0.00876285 0.00221346 0)
(0.00847297 0.00205477 0)
(0.00819489 0.00189859 0)
(0.00792942 0.00174555 0)
(0.00767718 0.00159616 0)
(0.00743867 0.00145077 0)
(0.00721425 0.00130961 0)
(0.00700416 0.00117277 0)
(0.00680852 0.00104024 0)
(0.00662735 0.000911865 0)
(0.00646058 0.000787416 0)
(0.00630806 0.000666557 0)
(0.00616955 0.000548872 0)
(0.00604477 0.000433866 0)
(0.00593337 0.000320974 0)
(0.00583493 0.000209559 0)
(0.00574903 9.88936e-05 0)
(0.00567493 -1.1902e-05 0)
(0.00561246 -0.000123148 0)
(0.00556159 -0.000235086 0)
(0.00552151 -0.000348479 0)
(0.00549161 -0.00046409 0)
(0.00547116 -0.00058261 0)
(0.00545931 -0.000704639 0)
(0.00545514 -0.000830608 0)
(0.00545762 -0.000960678 0)
(0.00546557 -0.00109457 0)
(0.00547766 -0.00123136 0)
(0.00549233 -0.00136912 0)
(0.00550776 -0.0015045 0)
(0.00552176 -0.00163211 0)
(0.00553162 -0.00174375 0)
(0.00553392 -0.00182746 0)
(0.00552427 -0.00186637 0)
(0.00549689 -0.00183756 0)
(0.00544415 -0.00171094 0)
(0.00535609 -0.00144869 0)
(0.00521991 -0.00100568 0)
(0.00501985 -0.000331447 0)
(0.0047372 0.000623442 0)
(0.00435661 0.0018895 0)
(0.00386447 0.00346724 0)
(0.00325646 0.00529425 0)
(0.00254534 0.00719676 0)
(0.00177137 0.00882038 0)
(0.00101132 0.00954626 0)