/*--------------------------------*- C++ -*----------------------------------*\
  =========                 |
  \\      /  F ield         | OpenFOAM: The Open Source CFD Toolbox
   \\    /   O peration     | Website:  https://openfoam.org
    \\  /    A nd           | Version:  6
     \\/     M anipulation  |
\*---------------------------------------------------------------------------*/
FoamFile
{
    version     2.0;
    format      ascii;
    class       volScalarField;
    location    "0";
    object      P_rec;
}
// * * * * * * * * * * * * * * * * * * * * * * * * * * * * * * * * * * * * * //

dimensions      [0 2 -2 0 0 0 0];

internalField   nonuniform List<scalar> 
13046
(
0.620671
0.62028
0.70129
0.624478
0.684666
0.647875
0.606541
0.648772
0.694207
0.355803
0.514372
0.705389
0.592544
0.617921
0.70116
0.410745
0.714702
0.501277
0.671314
0.671681
0.625944
0.402355
0.713628
0.505961
0.631367
0.643605
0.686362
0.58352
0.60727
0.708274
0.625272
0.611326
0.698058
0.644235
0.682896
0.641587
0.643252
0.681636
0.650184
0.645531
0.698619
0.580484
0.648891
0.669259
0.659831
0.642436
0.664255
0.668304
0.607747
0.623793
0.701727
0.690561
0.659859
0.535694
0.692144
0.518515
0.66791
0.513917
0.532126
0.720576
0.524693
0.633163
0.700742
0.708071
0.558015
0.441601
0.550427
0.511964
0.718344
0.564384
0.517769
0.716798
0.504401
0.518256
0.720203
0.668672
0.681392
0.613738
0.721882
0.48695
0.503888
0.621702
0.645298
0.687995
0.707478
0.548047
0.422373
0.423459
0.700883
0.592007
0.688251
0.390872
0.615147
0.527841
0.510044
0.589774
0.586758
0.708253
0.71118
0.699595
0.427226
0.602611
0.636434
0.670935
0.664369
0.681224
0.538157
0.682281
0.656234
0.696517
0.553332
0.277554
0.700633
0.476444
0.602238
0.626648
0.696122
0.511348
0.526613
0.563037
0.713017
0.576189
0.711448
0.339672
0.501753
0.706104
0.560688
0.592375
0.711677
0.636377
0.700492
0.583531
0.685536
0.406768
0.626124
0.478143
0.587953
0.707114
0.616268
0.606927
0.698828
0.567173
0.660083
0.690668
0.66013
0.692155
0.548018
0.680139
0.553772
0.68352
0.518295
0.621979
0.701519
0.689697
0.581932
0.669399
0.676149
0.503967
0.667465
0.496291
0.680225
0.684912
0.562958
0.662735
0.684851
0.352316
0.702597
0.526829
0.302861
0.702634
0.484216
0.47016
0.576373
0.709966
0.62812
0.555182
0.707489
0.568987
0.680405
0.669537
0.702854
0.549411
0.363488
0.634593
0.564867
0.702654
0.686684
0.57028
0.671466
0.579013
0.661345
0.686952
0.616636
0.706356
0.569761
0.60414
0.706414
0.411901
0.7028
0.568516
0.693176
0.427144
0.619429
0.393254
0.600784
0.690157
0.696631
0.508934
0.650122
0.584642
0.492848
0.723736
0.497113
0.585922
0.382155
0.694897
0.633167
0.681065
0.656818
0.59542
0.605115
0.70791
0.690679
0.421085
0.626697
0.575062
0.624271
0.706288
0.700247
0.511674
0.311329
0.656083
0.503788
0.692147
0.412638
0.607255
0.693216
0.52523
0.663918
0.687885
0.5597
0.584011
0.713292
0.653278
0.440816
0.679713
0.480176
0.665939
0.68111
0.696969
0.516309
0.295844
0.652243
0.702328
0.549317
0.292517
0.704146
0.446128
0.672928
0.626805
0.667195
0.53084
0.536659
0.655692
0.662394
0.691965
0.68936
0.718379
0.467911
0.502578
0.57659
0.587902
0.709262
0.470066
0.654889
0.686937
0.492624
0.574424
0.710123
0.656044
0.650603
0.672301
0.508498
0.660986
0.687731
0.576254
0.576038
0.711751
0.576304
0.565991
0.651729
0.701369
0.539154
0.500894
0.651559
0.690503
0.473891
0.70967
0.572749
0.664955
0.691014
0.563026
0.677009
0.494086
0.676685
0.535107
0.55511
0.713013
0.655185
0.694877
0.534439
0.519992
0.509099
0.548278
0.713957
0.549734
0.716163
0.703465
0.551365
0.377743
0.540743
0.576098
0.713111
0.439163
0.698564
0.233665
0.605542
0.674436
0.66901
0.539801
0.635198
0.700018
0.705245
0.432885
0.57403
0.692379
0.504677
0.666037
0.642211
0.434078
0.684186
0.637118
0.699923
0.53397
0.616561
0.705132
0.639008
0.697832
0.431015
0.714248
0.510494
0.701991
0.500255
0.645835
0.520313
0.614031
0.704488
0.5583
0.657964
0.693263
0.54195
0.683415
0.673389
0.618352
0.63347
0.694851
0.667681
0.500839
0.683205
0.402662
0.580585
0.698159
0.639974
0.435849
0.687889
0.584723
0.713949
0.52169
0.498986
0.514316
0.532351
0.525719
0.715428
0.715627
0.69982
0.44432
0.252096
0.308069
0.706443
0.451588
0.520505
0.65294
0.688764
0.703106
0.401839
0.556751
0.558254
0.545749
0.535741
0.538155
0.717289
0.717039
0.68735
0.578834
0.342849
0.280272
0.70539
0.427533
0.632742
0.663116
0.675429
0.274086
0.456552
0.701918
0.614176
0.56354
0.707634
0.369218
0.558683
0.70118
0.456673
0.693241
0.189411
0.652199
0.694897
0.58818
0.613016
0.670692
0.678134
0.346401
0.708595
0.491653
0.602717
0.670537
0.679191
0.639741
0.663585
0.672496
0.663194
0.488098
0.692851
0.602909
0.685359
0.667451
0.609455
0.673638
0.669475
0.598507
0.521219
0.71232
0.711992
0.71057
0.516826
0.521576
0.38601
0.38014
0.383471
0.578048
0.696489
0.718535
0.576852
0.510291
0.642132
0.7002
0.563365
0.474632
0.669394
0.673611
0.503954
0.688954
0.227242
0.690505
0.383695
0.604135
0.315178
0.703075
0.497912
0.692984
0.441469
0.180548
0.416218
0.695851
0.204857
0.63689
0.489705
0.693876
0.553703
0.685847
0.293833
0.464663
0.591997
0.705575
0.385942
0.714624
0.471274
0.59675
0.696189
0.638634
0.587597
0.688898
0.358067
0.481306
0.670576
0.674429
0.647346
0.469077
0.691478
0.692458
0.375367
0.123955
0.457729
0.696864
0.21987
0.609573
0.694531
0.640127
0.56796
0.340162
0.690902
0.687305
0.324383
0.574914
0.405645
0.705539
0.54856
0.716965
0.516925
0.457875
0.609564
0.509685
0.714865
0.525649
0.530939
0.720024
0.718882
0.438694
0.49028
0.600003
0.58981
0.578842
0.57218
0.708783
0.710351
0.611203
0.574637
0.707475
0.568055
0.524518
0.719819
0.642602
0.451281
0.688123
0.576984
0.380429
0.699292
0.691791
0.445859
0.626876
0.418452
0.697375
0.224354
0.643176
0.636314
0.69883
0.596922
0.699212
0.60635
0.591036
0.598344
0.712773
0.538624
0.714733
0.545057
0.472421
0.689103
0.194327
0.569368
0.35448
0.693179
0.637583
0.700723
0.540031
0.6591
0.454228
0.679582
0.717558
0.517313
0.470722
0.48848
0.262649
0.696913
0.504085
0.273492
0.695727
0.547522
0.548131
0.717572
0.670575
0.685456
0.571091
0.390232
0.705844
0.537172
0.635531
0.473724
0.697478
0.712181
0.557133
0.46051
0.60896
0.713335
0.539725
0.532641
0.671887
0.681124
0.649816
0.69832
0.569366
0.704222
0.539774
0.373288
0.493193
0.56222
0.712988
0.651935
0.694027
0.596432
0.41897
0.718388
0.480151
0.611574
0.595632
0.705484
0.588016
0.661707
0.689229
0.649573
0.481921
0.690007
0.337872
0.711071
0.457415
0.352379
0.713117
0.456422
0.713938
0.54674
0.460343
0.521086
0.679538
0.676198
0.710032
0.442925
0.31574
0.704177
0.585743
0.44686
0.690338
0.433409
0.159446
0.188737
0.393048
0.697571
0.718156
0.502659
0.442686
0.70101
0.527017
0.334965
0.407995
0.423713
0.709308
0.522216
0.710173
0.533816
0.442062
0.595175
0.701942
0.680826
0.667357
0.455602
0.64003
0.690795
0.622605
0.452554
0.613501
0.69919
0.697532
0.459169
0.622982
0.453887
0.719602
0.489156
0.584726
0.528053
0.716766
0.603318
0.558305
0.707729
0.493798
0.621729
0.703848
0.484598
0.623137
0.701398
0.656711
0.686427
0.608958
0.587121
0.559952
0.714292
0.686353
0.596181
0.358818
0.264417
0.692072
0.516172
0.246969
0.689232
0.518829
0.630643
0.704545
0.574449
0.481659
0.693907
0.237037
0.477847
0.713952
0.548798
0.691787
0.48886
0.219844
0.628068
0.681028
0.656006
0.561366
0.613396
0.704838
0.68303
0.527996
0.672393
0.687058
0.55986
0.312767
0.638714
0.475388
0.694592
0.715513
0.404521
0.483487
0.542298
0.608125
0.710313
0.643899
0.689487
0.62779
0.552247
0.324441
0.693384
0.709129
0.568452
0.445346
0.331289
0.315088
0.706164
0.705094
0.479096
0.471445
0.544644
0.650286
0.696061
0.642365
0.501728
0.691187
0.596237
0.652139
0.694568
0.531645
0.285367
0.538614
0.692364
0.283182
0.689275
0.510757
0.596203
0.710595
0.32132
0.301902
0.541163
0.532613
0.695649
0.69349
0.505838
0.647858
0.697994
0.563545
0.633203
0.700507
0.371497
0.714531
0.471831
0.550576
0.640506
0.698131
0.588411
0.649026
0.692263
0.339057
0.70973
0.471321
0.542601
0.598171
0.706624
0.68211
0.474128
0.66822
0.611203
0.529333
0.712022
0.63568
0.681634
0.412897
0.693478
0.39276
0.14565
0.54376
0.629002
0.702074
0.384985
0.710563
0.496776
0.708967
0.504267
0.628604
0.233152
0.702317
0.412406
0.675903
0.670956
0.679303
0.575998
0.684212
0.568854
0.59921
0.659693
0.68719
0.660225
0.669196
0.688799
0.585237
0.687729
0.580756
0.554888
0.637323
0.702211
0.563452
0.643183
0.700176
0.687173
0.531144
0.258046
0.621305
0.582232
0.702981
0.338669
0.539692
0.699735
0.487346
0.472444
0.610927
0.604026
0.702621
0.701664
0.620214
0.594143
0.703414
0.569119
0.548183
0.714297
0.514675
0.613359
0.707528
0.651902
0.636554
0.679478
0.467161
0.613579
0.70071
0.642139
0.68985
0.618852
0.515206
0.639116
0.700121
0.568215
0.560523
0.713508
0.649168
0.654153
0.626855
0.687679
0.621644
0.686836
0.661631
0.681306
0.670492
0.607902
0.688068
0.589262
0.601454
0.591487
0.58834
0.595366
0.707857
0.706426
0.714942
0.528425
0.461408
0.664679
0.489798
0.685781
0.716065
0.714128
0.523196
0.5344
0.443992
0.441041
0.650381
0.700524
0.520488
0.653895
0.67309
0.650207
0.461951
0.603517
0.702545
0.637023
0.698797
0.59096
0.558873
0.561464
0.714116
0.49083
0.493308
0.52784
0.718302
0.539281
0.715884
0.493827
0.597296
0.706147
0.251882
0.428991
0.70287
0.704841
0.509793
0.635864
0.619707
0.624755
0.710257
0.514162
0.711724
0.519189
0.456617
0.634607
0.692283
0.57978
0.548073
0.714678
0.642924
0.70154
0.525632
0.625498
0.624261
0.705856
0.710996
0.541423
0.542624
0.619707
0.711364
0.527861
0.49808
0.60616
0.706415
0.651109
0.687407
0.61753
0.360862
0.707893
0.495237
0.63744
0.704684
0.518346
0.561012
0.545544
0.57102
0.565527
0.710874
0.715757
0.70952
0.503445
0.376107
0.37284
0.712953
0.482972
0.35721
0.709677
0.482678
0.477556
0.71569
0.538612
0.588866
0.557568
0.713096
0.629234
0.704581
0.729451
0.631999
0.730317
0.52202
0.722189
0.638369
0.666532
0.727818
0.726856
0.665285
0.640958
0.728633
0.714534
0.656831
0.632305
0.710342
0.707761
0.723255
0.717262
0.704581
0.726902
0.716662
0.733343
0.705079
0.733369
0.670943
0.720161
0.633212
0.67603
0.720632
0.717389
0.715639
0.685704
0.723091
0.73119
0.727629
0.644625
0.672048
0.703072
0.699086
0.689617
0.72722
0.706402
0.712322
0.714602
0.704066
0.665591
0.693498
0.730585
0.716367
0.658779
0.717686
0.673701
0.729256
0.725191
0.718174
0.706887
0.726625
0.693415
0.691196
0.732975
0.644222
0.721271
0.725188
0.719259
0.724345
0.727563
0.702415
0.678383
0.684718
0.684217
0.724859
0.681082
0.714209
0.691767
0.684431
0.721584
0.727671
0.706934
0.71965
0.663153
0.664038
0.714881
0.7241
0.714353
0.633637
0.716006
0.729514
0.664166
0.728018
0.733501
0.715218
0.647197
0.485188
0.683937
0.706034
0.646736
0.676544
0.722733
0.727713
0.7079
0.720828
0.65934
0.623367
0.666098
0.66818
0.685497
0.731056
0.727883
0.721363
0.671261
0.688246
0.674103
0.706142
0.716522
0.635436
0.672292
0.707918
0.716346
0.722563
0.716307
0.725149
0.711352
0.682991
0.669466
0.730557
0.603319
0.724221
0.677716
0.727024
0.664101
0.561354
0.622406
0.727459
0.71277
0.663409
0.681572
0.720729
0.652159
0.724398
0.687495
0.676131
0.71329
0.716951
0.660854
0.728875
0.68239
0.716192
0.664585
0.705733
0.645698
0.731958
0.727071
0.713519
0.725842
0.724019
0.729333
0.693249
0.681027
0.674562
0.711713
0.60259
0.661705
0.667257
0.712516
0.710072
0.721455
0.729354
0.718044
0.730816
0.732655
0.729818
0.659941
0.674963
0.667986
0.728965
0.667404
0.660739
0.592296
0.661089
0.711388
0.712286
0.719081
0.730475
0.726651
0.70302
0.727895
0.710185
0.702703
0.554858
0.709657
0.685644
0.67695
0.724152
0.723114
0.683411
0.70445
0.71373
0.720283
0.625089
0.68348
0.724686
0.731053
0.692866
0.664624
0.707689
0.71395
0.703871
0.698911
0.635139
0.588581
0.67902
0.685196
0.673074
0.673174
0.632679
0.727464
0.714768
0.674968
0.716524
0.662005
0.660164
0.72387
0.723788
0.656739
0.662881
0.618737
0.723512
0.679384
0.709571
0.721288
0.718471
0.668727
0.720952
0.701142
0.667986
0.6701
0.728265
0.719163
0.717483
0.730984
0.699784
0.652054
0.666155
0.714743
0.716386
0.657929
0.675966
0.719517
0.725337
0.726669
0.719977
0.661422
0.713118
0.686218
0.719003
0.703537
0.681893
0.71375
0.704172
0.582601
0.664435
0.68142
0.660641
0.690244
0.72276
0.710242
0.717605
0.72441
0.645986
0.712346
0.697913
0.715762
0.709304
0.709697
0.72097
0.668035
0.658473
0.707711
0.665014
0.663457
0.718882
0.570074
0.664235
0.7292
0.721812
0.675986
0.670765
0.676472
0.719369
0.630941
0.579502
0.651957
0.712503
0.717142
0.715304
0.522082
0.654666
0.729755
0.702858
0.62603
0.657727
0.66767
0.674209
0.663256
0.716161
0.725345
0.675287
0.668903
0.691329
0.692621
0.703148
0.615056
0.725647
0.712304
0.567967
0.672404
0.663815
0.674851
0.723343
0.713559
0.725049
0.692408
0.653381
0.70568
0.717079
0.719756
0.695186
0.730533
0.725556
0.697769
0.721547
0.714497
0.689081
0.668937
0.704556
0.638226
0.70473
0.704771
0.676348
0.654146
0.65058
0.652018
0.63393
0.729207
0.66035
0.681681
0.721579
0.716723
0.6666
0.65518
0.732085
0.703115
0.564043
0.702322
0.675541
0.667548
0.729876
0.699208
0.688224
0.716587
0.67775
0.712362
0.67446
0.720483
0.706015
0.694466
0.494498
0.657908
0.676945
0.705054
0.712176
0.713378
0.713418
0.73073
0.648334
0.676302
0.645042
0.605214
0.669059
0.727938
0.691274
0.705821
0.683237
0.709849
0.664357
0.631889
0.652071
0.672609
0.66996
0.733552
0.69555
0.699832
0.726219
0.72677
0.712139
0.732372
0.632675
0.686873
0.667457
0.715485
0.714557
0.723086
0.702535
0.710203
0.677077
0.703254
0.663956
0.611491
0.721062
0.695333
0.607105
0.655572
0.67314
0.654729
0.677108
0.706959
0.715638
0.657896
0.6822
0.669027
0.673475
0.66951
0.68878
0.628804
0.674707
0.729281
0.728524
0.725916
0.7134
0.71475
0.559194
0.725211
0.718115
0.657973
0.730692
0.544608
0.725088
0.684262
0.714232
0.695072
0.724298
0.703863
0.647972
0.721524
0.646079
0.730421
0.716183
0.672876
0.686472
0.632674
0.694436
0.730993
0.68388
0.719329
0.723475
0.667494
0.620914
0.725033
0.554213
0.713885
0.714387
0.664953
0.731786
0.598955
0.59481
0.724477
0.7061
0.725446
0.721405
0.711033
0.720861
0.730935
0.727291
0.724524
0.722986
0.665262
0.691478
0.708583
0.729133
0.690798
0.53899
0.72236
0.68015
0.712553
0.689536
0.730317
0.706923
0.69201
0.727435
0.703653
0.731544
0.654181
0.727242
0.709275
0.727961
0.719418
0.724863
0.688237
0.711364
0.65709
0.641677
0.710248
0.688744
0.708362
0.629081
0.552032
0.666626
0.69319
0.712296
0.696935
0.732432
0.691705
0.660256
0.702463
0.665842
0.72891
0.637308
0.708829
0.715254
0.730114
0.699491
0.721762
0.649538
0.714336
0.727404
0.670785
0.632421
0.713196
0.692795
0.723582
0.727199
0.691585
0.665194
0.706588
0.67333
0.659499
0.729566
0.726132
0.720143
0.633413
0.725125
0.709642
0.731085
0.67332
0.721423
0.714071
0.717538
0.714374
0.640948
0.669831
0.68707
0.533031
0.727205
0.715533
0.713523
0.727328
0.72417
0.702718
0.710113
0.708251
0.730388
0.727491
0.712021
0.710255
0.697288
0.722308
0.713732
0.683988
0.688447
0.693934
0.692543
0.717103
0.678588
0.724363
0.728844
0.669292
0.728104
0.671191
0.659058
0.675607
0.725762
0.704311
0.712489
0.717002
0.726891
0.71291
0.718284
0.72496
0.679977
0.671686
0.654154
0.660911
0.662193
0.472
0.666333
0.670183
0.717544
0.667777
0.689446
0.715817
0.706493
0.66354
0.678955
0.689607
0.48797
0.729921
0.691348
0.717316
0.667718
0.687399
0.711057
0.639888
0.719908
0.667647
0.725577
0.692571
0.728509
0.629087
0.586545
0.687024
0.692653
0.698114
0.718435
0.58951
0.715742
0.695695
0.662326
0.642245
0.681403
0.688467
0.727479
0.634084
0.724066
0.726435
0.716674
0.6647
0.726928
0.667091
0.472919
0.713349
0.671238
0.66331
0.726597
0.72608
0.715435
0.719177
0.696658
0.726467
0.731251
0.713594
0.69479
0.72288
0.731313
0.7234
0.716061
0.712854
0.723655
0.671316
0.668931
0.728607
0.727594
0.730301
0.707636
0.696607
0.67558
0.726113
0.723203
0.441616
0.696275
0.712041
0.658676
0.715642
0.695858
0.72389
0.712941
0.714651
0.676932
0.722998
0.7299
0.708794
0.727704
0.730343
0.588404
0.659106
0.69934
0.665745
0.587965
0.672249
0.712098
0.727006
0.676191
0.703343
0.639351
0.674544
0.712558
0.714857
0.67406
0.669096
0.656713
0.706444
0.680523
0.677105
0.708699
0.718534
0.722277
0.660657
0.72182
0.683868
0.670437
0.713304
0.726495
0.711996
0.704046
0.662855
0.726021
0.671199
0.73196
0.725123
0.728497
0.726575
0.663705
0.662611
0.715269
0.664252
0.668233
0.680048
0.675272
0.661465
0.709691
0.715577
0.667012
0.728968
0.686655
0.705403
0.712337
0.72374
0.720003
0.722884
0.70783
0.66984
0.7279
0.634545
0.723226
0.664884
0.718999
0.728053
0.726999
0.723296
0.728681
0.714834
0.657438
0.672898
0.711984
0.682485
0.731083
0.657493
0.634559
0.702636
0.700675
0.683744
0.669318
0.704018
0.724731
0.720296
0.554579
0.684102
0.620764
0.642243
0.711301
0.701872
0.713262
0.70635
0.728607
0.661964
0.726244
0.715528
0.627264
0.723295
0.690603
0.723344
0.712471
0.708451
0.658927
0.677415
0.714056
0.724154
0.684259
0.707401
0.714486
0.724316
0.70667
0.706253
0.685456
0.713583
0.665256
0.659979
0.608245
0.717997
0.667182
0.67862
0.664811
0.67887
0.730903
0.701683
0.716017
0.728503
0.71498
0.619025
0.710241
0.645731
0.696416
0.720721
0.682677
0.669596
0.694447
0.713815
0.648882
0.683132
0.612188
0.669145
0.718087
0.616094
0.677107
0.726731
0.664257
0.660702
0.712402
0.724928
0.698121
0.651387
0.716805
0.676671
0.680918
0.714593
0.694027
0.715795
0.719957
0.733252
0.6877
0.726702
0.719946
0.725318
0.727164
0.722711
0.623
0.678304
0.704691
0.660367
0.726212
0.729858
0.725928
0.717633
0.661754
0.666404
0.70676
0.729153
0.648115
0.725376
0.722015
0.725063
0.65763
0.651819
0.66203
0.627799
0.716656
0.647291
0.721622
0.679292
0.722947
0.660881
0.714576
0.667305
0.712216
0.720895
0.718048
0.701711
0.721639
0.729052
0.73189
0.719069
0.695324
0.726413
0.720817
0.680918
0.690187
0.714058
0.677184
0.731902
0.700373
0.720089
0.725414
0.727555
0.681206
0.609251
0.728471
0.6934
0.697985
0.709157
0.719313
0.726488
0.726863
0.692901
0.717704
0.663248
0.684763
0.713925
0.72455
0.711811
0.717695
0.704897
0.73267
0.708359
0.674582
0.729227
0.716909
0.657934
0.684599
0.73013
0.703531
0.666067
0.683096
0.730924
0.698776
0.713915
0.727118
0.729862
0.726591
0.718765
0.667786
0.723239
0.686576
0.700531
0.729399
0.715882
0.661594
0.649833
0.700443
0.721697
0.675293
0.656753
0.724127
0.702444
0.708664
0.725004
0.663493
0.664076
0.694464
0.723481
0.730897
0.715797
0.713915
0.620259
0.716059
0.688123
0.70624
0.729164
0.731006
0.656481
0.662621
0.703949
0.723628
0.73044
0.727656
0.723615
0.687674
0.690009
0.662662
0.666341
0.722472
0.719126
0.584398
0.66822
0.722843
0.711325
0.657245
0.666902
0.717491
0.688864
0.71033
0.72188
0.711422
0.727589
0.727044
0.711914
0.722692
0.697109
0.690567
0.701355
0.720289
0.69187
0.723754
0.589112
0.712272
0.571269
0.702206
0.728873
0.719002
0.728151
0.728712
0.72911
0.683482
0.700022
0.713833
0.631395
0.727845
0.710835
0.678526
0.721848
0.527923
0.668648
0.705449
0.723793
0.731592
0.665279
0.664706
0.713755
0.722055
0.594973
0.6812
0.695326
0.601886
0.649627
0.704858
0.651397
0.714244
0.666579
0.708876
0.72261
0.53084
0.699165
0.711389
0.683577
0.661888
0.711616
0.684896
0.697166
0.668944
0.708535
0.699993
0.681198
0.712401
0.72965
0.683198
0.659884
0.692493
0.664796
0.672519
0.711614
0.621673
0.685675
0.683829
0.709666
0.720085
0.706162
0.709045
0.583071
0.712293
0.713502
0.689805
0.721269
0.701957
0.70836
0.600311
0.58644
0.719949
0.663601
0.709921
0.724453
0.685269
0.715139
0.582268
0.722065
0.695353
0.728015
0.695962
0.694392
0.711074
0.669543
0.687654
0.693464
0.733135
0.665197
0.657834
0.707502
0.731541
0.721488
0.616788
0.696089
0.694719
0.701778
0.690687
0.731104
0.727734
0.727092
0.726223
0.720614
0.674184
0.655263
0.727715
0.680008
0.700158
0.619238
0.654013
0.671216
0.658823
0.718423
0.594631
0.723999
0.682393
0.721784
0.707874
0.716239
0.727534
0.688654
0.723974
0.728417
0.722745
0.713395
0.727783
0.683394
0.716494
0.661143
0.682574
0.731824
0.59598
0.718254
0.723221
0.711926
0.706512
0.703147
0.715198
0.716383
0.71576
0.667333
0.66706
0.718035
0.706167
0.61807
0.724898
0.658334
0.71593
0.663038
0.702003
0.717007
0.727154
0.728759
0.667747
0.717748
0.712952
0.70918
0.729225
0.630332
0.651136
0.730275
0.663288
0.684978
0.728669
0.727062
0.717754
0.655368
0.67449
0.676563
0.672461
0.633595
0.712306
0.68931
0.707402
0.676885
0.713742
0.698794
0.680797
0.632823
0.708036
0.705881
0.674052
0.727715
0.727533
0.644587
0.7204
0.585112
0.682378
0.611751
0.678429
0.723206
0.709985
0.713252
0.703299
0.717268
0.72599
0.719336
0.717515
0.636377
0.701566
0.688402
0.712584
0.658122
0.729621
0.697996
0.671259
0.725998
0.726172
0.661713
0.720605
0.663854
0.720775
0.719621
0.721812
0.62264
0.716178
0.707791
0.72048
0.71149
0.67425
0.662752
0.675591
0.727026
0.729379
0.727697
0.696818
0.711803
0.724792
0.699402
0.716819
0.677552
0.681757
0.714716
0.728355
0.66965
0.73105
0.716608
0.732873
0.723487
0.727403
0.713596
0.694506
0.729231
0.56614
0.722832
0.606871
0.726017
0.729228
0.716059
0.696517
0.684839
0.715746
0.606121
0.634884
0.682557
0.644928
0.727401
0.665654
0.665115
0.629682
0.659969
0.7139
0.726574
0.728094
0.665005
0.693959
0.716293
0.720134
0.693185
0.689673
0.727298
0.728291
0.714924
0.727288
0.727555
0.725595
0.664026
0.705205
0.64385
0.721804
0.726325
0.729207
0.70831
0.716516
0.698301
0.661483
0.695284
0.663707
0.673749
0.669438
0.729926
0.708389
0.710325
0.727227
0.727728
0.717354
0.719194
0.67969
0.713431
0.713235
0.727857
0.6921
0.661722
0.71843
0.718211
0.72571
0.731173
0.729959
0.656528
0.65334
0.659107
0.718513
0.728958
0.617137
0.677883
0.729634
0.670884
0.698224
0.664131
0.71
0.721691
0.71062
0.718714
0.671336
0.714816
0.716067
0.725744
0.699133
0.678708
0.721714
0.717862
0.703695
0.728866
0.734145
0.616857
0.728436
0.670691
0.689131
0.73299
0.730394
0.710197
0.727487
0.67092
0.726756
0.683193
0.66374
0.726876
0.693436
0.725571
0.706969
0.721561
0.714211
0.723185
0.67792
0.725215
0.659065
0.727733
0.706941
0.714206
0.691476
0.656809
0.662945
0.726735
0.680065
0.699713
0.654128
0.689658
0.727136
0.727001
0.718064
0.724092
0.718365
0.677518
0.69576
0.717441
0.660179
0.682234
0.71862
0.708265
0.698693
0.675434
0.615539
0.662694
0.72626
0.692516
0.727595
0.664508
0.729791
0.716539
0.730801
0.725311
0.695355
0.727866
0.665443
0.719636
0.676257
0.717422
0.648786
0.697233
0.679142
0.660561
0.696555
0.667747
0.661358
0.669929
0.729058
0.730811
0.701734
0.654806
0.727418
0.666105
0.622475
0.709146
0.725541
0.71936
0.668765
0.67015
0.731728
0.650315
0.717172
0.652396
0.674104
0.69482
0.647194
0.731073
0.709022
0.68051
0.7293
0.731665
0.676565
0.72162
0.70871
0.729172
0.711181
0.686617
0.667571
0.724141
0.731465
0.723585
0.634651
0.667196
0.684362
0.709313
0.719007
0.721686
0.649477
0.716916
0.669528
0.720117
0.72229
0.715492
0.689767
0.721611
0.616936
0.710387
0.649906
0.703718
0.63761
0.662778
0.716482
0.729422
0.676011
0.682158
0.719538
0.690568
0.609946
0.659874
0.674115
0.703535
0.559985
0.707896
0.704099
0.721039
0.703695
0.721161
0.722523
0.595087
0.591603
0.730839
0.708172
0.612618
0.687062
0.715462
0.727332
0.719617
0.64318
0.706765
0.649243
0.719663
0.728615
0.725493
0.700651
0.726569
0.670918
0.714476
0.731764
0.666707
0.679269
0.726801
0.728043
0.670592
0.666761
0.634677
0.595434
0.637545
0.723448
0.681287
0.663849
0.630695
0.6564
0.722812
0.646477
0.674693
0.656556
0.724868
0.688084
0.720257
0.679616
0.700463
0.701312
0.711215
0.71442
0.723873
0.658084
0.718499
0.694691
0.703004
0.721134
0.686189
0.729075
0.72216
0.682536
0.721158
0.664625
0.685328
0.710484
0.722123
0.669468
0.705789
0.703946
0.712097
0.714769
0.728394
0.64109
0.671082
0.656404
0.658615
0.731547
0.680898
0.718715
0.731075
0.69888
0.598858
0.659378
0.702035
0.652871
0.712493
0.661976
0.681127
0.680929
0.727245
0.72565
0.707461
0.650226
0.69087
0.666142
0.701326
0.726244
0.718571
0.688344
0.71069
0.691892
0.717026
0.725849
0.72762
0.716291
0.730809
0.719564
0.695105
0.676713
0.664436
0.662829
0.717824
0.712128
0.672844
0.722321
0.679651
0.730638
0.724917
0.665199
0.645393
0.684759
0.705313
0.727609
0.712062
0.725511
0.711202
0.728177
0.722318
0.710382
0.677571
0.711642
0.707756
0.668912
0.687928
0.725399
0.607955
0.524975
0.718706
0.708436
0.728296
0.699485
0.667869
0.656564
0.686255
0.647111
0.693656
0.717059
0.671029
0.726973
0.701281
0.657577
0.688144
0.678487
0.645512
0.727065
0.711161
0.717004
0.653776
0.704199
0.708599
0.655839
0.685337
0.687115
0.682182
0.659366
0.59842
0.730551
0.721528
0.72915
0.72224
0.727522
0.674456
0.714896
0.702075
0.698795
0.633899
0.721849
0.707813
0.693903
0.728102
0.72718
0.72487
0.720437
0.719082
0.718208
0.667192
0.715257
0.720877
0.724751
0.698454
0.670882
0.721622
0.679167
0.680735
0.724147
0.689447
0.731003
0.675691
0.730454
0.717206
0.715403
0.676881
0.724331
0.665156
0.679069
0.688474
0.671018
0.679097
0.678929
0.678491
0.712559
0.65206
0.656485
0.70558
0.71929
0.70749
0.686014
0.721646
0.719332
0.684414
0.724774
0.722206
0.725647
0.655248
0.683898
0.704011
0.66438
0.706379
0.625208
0.714427
0.627939
0.727618
0.706367
0.714258
0.673751
0.664216
0.684283
0.713678
0.682293
0.71741
0.720789
0.715043
0.723733
0.716698
0.70806
0.674099
0.730369
0.707561
0.711832
0.719485
0.671138
0.672738
0.670837
0.726725
0.724127
0.707367
0.704365
0.680312
0.702004
0.646991
0.699533
0.659045
0.726406
0.679367
0.699462
0.713625
0.714946
0.65936
0.69939
0.70349
0.711923
0.711413
0.71649
0.709985
0.686201
0.717903
0.726263
0.709892
0.664035
0.715681
0.664786
0.707177
0.639831
0.668933
0.710329
0.611606
0.660539
0.723925
0.727473
0.661176
0.708499
0.670763
0.632628
0.667869
0.660125
0.669888
0.670586
0.671509
0.724732
0.727193
0.699374
0.726835
0.700523
0.720572
0.711873
0.727953
0.722671
0.680691
0.717554
0.729012
0.714637
0.715894
0.639745
0.728371
0.697419
0.530534
0.718361
0.723377
0.730393
0.725362
0.719862
0.717045
0.685669
0.7111
0.705419
0.709006
0.542563
0.688381
0.635881
0.708651
0.714842
0.651673
0.662323
0.680704
0.671681
0.659538
0.711488
0.705035
0.71494
0.72721
0.671695
0.730819
0.659189
0.701512
0.727378
0.706337
0.707739
0.709808
0.548318
0.673278
0.716057
0.728996
0.672699
0.684273
0.71383
0.724888
0.661365
0.730543
0.677559
0.715418
0.713986
0.698079
0.713606
0.726216
0.727557
0.642723
0.719012
0.718183
0.723194
0.654442
0.707798
0.691498
0.659795
0.67433
0.683706
0.71548
0.71538
0.722531
0.701082
0.640743
0.711312
0.672374
0.671876
0.707148
0.703915
0.65601
0.728552
0.674233
0.679011
0.672599
0.715657
0.657864
0.622099
0.718817
0.694452
0.717649
0.674545
0.639157
0.715207
0.598381
0.720941
0.711668
0.66968
0.660695
0.733197
0.669937
0.659981
0.662759
0.641078
0.68597
0.719395
0.726464
0.660107
0.682981
0.725403
0.705685
0.677047
0.672173
0.697969
0.727617
0.722559
0.671523
0.661545
0.721202
0.732272
0.713469
0.711634
0.711619
0.64336
0.713522
0.723671
0.715051
0.648776
0.726666
0.712708
0.660255
0.720418
0.664234
0.729319
0.712707
0.656336
0.71213
0.707587
0.709464
0.666676
0.71824
0.686082
0.723251
0.723065
0.725985
0.667908
0.680976
0.726056
0.719394
0.690497
0.71996
0.712743
0.67205
0.716958
0.71582
0.670626
0.580167
0.660739
0.692339
0.676995
0.668614
0.66962
0.689603
0.720174
0.65622
0.665265
0.709718
0.65963
0.728567
0.670994
0.716255
0.712482
0.662046
0.715409
0.69664
0.722521
0.716676
0.725893
0.674877
0.67048
0.730823
0.646379
0.729049
0.721892
0.710907
0.682535
0.72889
0.706788
0.667024
0.731934
0.643583
0.714827
0.729199
0.650391
0.732981
0.667039
0.711922
0.56743
0.712076
0.662091
0.716162
0.687162
0.66327
0.690575
0.658986
0.674177
0.728902
0.660428
0.704885
0.716474
0.707263
0.717398
0.720326
0.711699
0.641663
0.73056
0.708784
0.72631
0.678065
0.711872
0.72034
0.696555
0.728379
0.714529
0.71739
0.672004
0.705041
0.624557
0.65931
0.729026
0.489236
0.718189
0.722693
0.681972
0.671005
0.692975
0.720601
0.705808
0.723937
0.712062
0.715294
0.717534
0.731123
0.727676
0.659126
0.714457
0.720943
0.715517
0.719074
0.697384
0.673486
0.667148
0.693918
0.717067
0.697342
0.732367
0.663246
0.679144
0.707333
0.689488
0.713751
0.718742
0.671419
0.684057
0.683704
0.695663
0.66951
0.726668
0.647393
0.696003
0.71034
0.695375
0.655322
0.650093
0.720687
0.644912
0.659147
0.727985
0.714292
0.675884
0.659566
0.662658
0.681752
0.728206
0.726494
0.678675
0.713904
0.714588
0.731494
0.721295
0.67829
0.727886
0.688557
0.712303
0.722282
0.727659
0.715574
0.727779
0.72411
0.649106
0.633347
0.704325
0.682348
0.693603
0.579089
0.592554
0.72543
0.727963
0.669033
0.728879
0.714835
0.725734
0.710545
0.666029
0.730097
0.727907
0.716231
0.646427
0.665316
0.71617
0.722858
0.706221
0.661435
0.692772
0.721108
0.728784
0.720206
0.691967
0.688225
0.719032
0.697391
0.691035
0.71851
0.698203
0.719588
0.578984
0.729053
0.707289
0.71531
0.728274
0.661425
0.668968
0.679168
0.664713
0.73016
0.669267
0.709913
0.582827
0.681444
0.696326
0.671954
0.661849
0.697953
0.653744
0.668544
0.707731
0.701803
0.724567
0.670271
0.715725
0.728799
0.684965
0.719326
0.715709
0.724406
0.713114
0.682868
0.72062
0.660929
0.664079
0.720086
0.727174
0.727013
0.714168
0.635175
0.717233
0.71484
0.695957
0.726454
0.715377
0.724653
0.724371
0.664799
0.66617
0.715642
0.660173
0.717686
0.715698
0.658169
0.728487
0.711651
0.723805
0.71118
0.715559
0.656477
0.694537
0.719344
0.673935
0.717433
0.721587
0.689329
0.715902
0.704188
0.712352
0.720058
0.715727
0.658409
0.726119
0.638825
0.574598
0.688526
0.720117
0.666729
0.729007
0.678798
0.636326
0.705781
0.719083
0.719306
0.537887
0.718024
0.718983
0.727712
0.694375
0.731048
0.71862
0.665848
0.713528
0.700866
0.701541
0.663329
0.719924
0.715204
0.667904
0.663523
0.715443
0.696461
0.662418
0.711008
0.728057
0.661182
0.729373
0.673181
0.630539
0.647762
0.714987
0.704947
0.666711
0.637746
0.660296
0.71497
0.712336
0.726854
0.690729
0.728253
0.651346
0.717064
0.66676
0.667708
0.66467
0.719994
0.710804
0.670035
0.675331
0.725687
0.69635
0.724288
0.725261
0.686259
0.709624
0.715729
0.694747
0.726344
0.714643
0.716021
0.69605
0.667615
0.709376
0.69052
0.73403
0.697237
0.67868
0.626571
0.674394
0.715724
0.718879
0.707238
0.717459
0.707695
0.679661
0.692426
0.648248
0.686618
0.677938
0.726803
0.65881
0.673038
0.667228
0.719962
0.710406
0.668623
0.660682
0.644803
0.726919
0.692279
0.676089
0.665053
0.680901
0.670559
0.701438
0.712733
0.65631