/*--------------------------------*- C++ -*----------------------------------*\
  =========                 |
  \\      /  F ield         | OpenFOAM: The Open Source CFD Toolbox
   \\    /   O peration     | Website:  https://openfoam.org
    \\  /    A nd           | Version:  6
     \\/     M anipulation  |
\*---------------------------------------------------------------------------*/
FoamFile
{
    version     2.0;
    format      ascii;
    class       volScalarField;
    location    "0";
    object      p;
}
// * * * * * * * * * * * * * * * * * * * * * * * * * * * * * * * * * * * * * //

dimensions      [0 2 -2 0 0 0 0];

internalField   nonuniform List<scalar> 
918
(
0.196687
0.968155
0.00863192
0.196315
-0.000619291
0.936895
-0.847447
0.375934
0.175114
-0.464948
-0.0294755
0.166145
0.787605
0.552945
-1.51786
0.00946146
0.334456
-0.723903
0.17416
-0.000651441
0.450684
0.181191
0.184436
0.17637
0.233412
0.526804
0.659934
0.00145985
-0.00225889
-0.00360034
0.00345832
-0.00233329
0.003118
0.809956
0.856229
0.874911
0.144349
-0.00645954
-0.724721
-0.784606
-0.753858
-0.891492
0.362028
0.365409
-0.513367
0.375375
0.390288
0.161725
0.174405
0.175202
0.176471
0.175444
0.176791
0.165114
-0.481568
-0.509576
-0.432727
-0.393893
-0.0198671
-0.0533524
-0.0879721
-0.0101711
-0.00391168
0.100799
0.163841
0.162533
0.170983
0.181512
0.893637
0.865758
0.888522
0.812932
0.83048
0.761826
0.733764
0.573362
0.595826
0.536853
0.523995
-1.98655
-2.96555
-0.923066
-0.639621
0.00058584
0.0120382
0.014547
0.319728
0.321309
0.331568
0.342765
0.704345
-0.70511
-0.860986
0.173557
0.172636
0.18054
0.182041
0.17838
0.1778
0.00601233
0.0121931
-0.00787859
-0.00412278
-0.00621409
0.427886
0.423759
0.175619
0.17324
0.19146
0.216114
0.203377
-0.0632031
0.243628
0.261699
0.355035
0.519844
0.513658
0.523752
0.634508
0.601815
0.691294
0.716144
0.0131623
0.00374532
0.00352874
0.00444445
0.00298129
0.140486
0.134753
0.157777
0.14768
0.150604
-0.104182
-0.251063
0.0733799
0.098531
-0.63326
-0.682812
-0.805097
-0.792652
-0.875483
0.197651
0.357223
0.355584
-0.532745
-0.449907
-0.586725
-0.389228
-0.4534
0.154261
0.159714
0.156509
0.170447
0.163965
0.166924
0.178311
0.175617
0.177088
0.182469
0.29843
0.132254
0.0570646
-0.603464
-0.533194
-0.586594
-0.351504
-0.291069
-0.0215416
-0.0402379
-0.0303309
-0.00304905
-0.237851
-0.125546
-0.182358
0.00848709
0.00726925
0.0929566
0.0826211
0.109892
0.115935
0.154659
0.156536
0.159288
0.15753
0.681508
0.705369
0.712791
0.689027
-3.9712
-6.69068
-0.283244
-0.117636
0.00280969
0.00266098
0.00180822
0.00264488
0.00255086
0.000823183
0.00984535
0.0121399
0.0146188
0.015672
0.307877
0.310283
0.649173
0.677743
0.679223
0.675176
0.162577
0.164521
0.169505
0.16642
0.0144224
0.0162959
0.0162366
0.392284
0.407608
0.403469
-0.101309
-0.188202
-0.0159455
0.0131669
0.299525
0.275952
0.295762
0.419608
0.459366
0.729837
0.753824
0.741302
0.757416
0.805826
0.826105
0.790631
0.120726
0.129762
0.124453
0.161272
0.159383
0.160203
0.154508
0.155875
0.15348
-0.384134
-0.7585
0.158777
0.165201
0.135666
0.143135
0.275233
0.3533
0.339281
0.345763
0.349378
-0.342539
-0.395255
0.0207416
0.00157928
0.0390888
0.0716713
0.0549446
0.657506
0.619904
0.667542
0.643523
0.606005
0.630008
-0.69245
-2.47564
-1.42632
0.292655
0.0867678
0.183857
0.0143255
0.00266604
0.0115029
0.678512
0.712266
0.355977
0.530616
0.499923
0.487186
0.516962
0.575877
0.505196
0.54185
0.575667
0.553728
0.167664
0.155759
0.148883
0.435364
0.4998
-0.221889
-0.28842
-0.322564
-0.0708693
-0.0376086
-0.064767
0.677844
0.565903
0.63435
0.173289
0.173734
0.0120962
0.0203585
0.177273
0.177488
0.00524907
0.00631885
0.189092
-1.27824
-0.20424
0.166226
0.157011
0.173066
-0.460268
-0.0319797
-0.0608563
0.0689881
0.0740935
0.163645
0.110975
0.0776602
0.00481147
0.0152816
-0.000837048
-0.525013
0.170912
0.169416
0.172651
0.173685
0.174325
0.00605011
0.00812867
0.0056646
0.00164169
0.00313369
-0.000869709
0.13966
0.155603
-0.514617
0.172657
0.174851
0.17458
0.168112
0.17361
0.171848
0.0126888
0.00735794
0.00628171
-0.117037
0.00872305
0.405104
0.507361
0.335951
0.153786
-0.139874
0.325775
0.38699
0.297271
0.44905
0.343527
0.355677
-0.143193
-0.285231
-0.146648
-0.203012
0.164063
0.162985
0.154846
0.15261
0.168485
0.166515
0.170722
0.167964
0.170647
0.171929
-0.494559
-0.417268
-0.449495
-0.485757
-0.0109546
0.253157
-0.188586
0.018083
-0.0995794
-0.0324526
-0.0128484
-0.103162
-0.126496
-0.079429
0.0516192
0.076507
0.000127078
0.0661855
0.016145
-0.0598762
0.0222512
-0.00909683
0.157917
0.155539
0.16374
0.170823
0.118778
0.120769
0.0932909
0.109249
0.0970329
0.0466466
0.0738166
0.0513623
0.00604564
0.00619533
0.00490852
0.0191549
0.0177928
0.00807802
0.00826141
0.0136321
0.00778743
0.0072271
0.00345234
0.0105648
-0.489053
-0.609612
0.634417
0.618206
-0.145731
0.160121
0.16632
0.162917
0.168
0.17076
0.171304
0.169313
0.165895
0.156023
0.158068
0.154274
0.154462
-0.459167
-0.563952
-0.39619
-0.462406
-0.196194
0.28247
0.0150222
-0.0341622
-0.0478062
0.164559
0.367863
0.321358
0.439308
0.433619
-0.731791
-0.308548
-0.654098
-0.107108
-0.148842
0.42524
0.471217
0.491144
0.444736
0.395379
-0.387266
0.173477
-0.380924
-0.339444
-0.158248
-0.255631
0.388887
0.323729
0.328975
0.347731
0.371484
0.335182
0.316145
0.312316
0.341196
0.346003
0.158176
-0.0852874
-0.115417
-0.163766
0.312475
0.191358
0.243695
0.161028
0.158969
0.161846
0.160081
0.14456
0.150279
0.14682
0.150886
0.154474
0.163661
0.163789
0.159296
0.161251
-0.399046
-0.36705
-0.468076
-0.475764
-0.476053
-0.533903
-0.436954
-0.342978
-0.504658
-0.0471734
-0.000845235
-0.311253
-0.419247
-0.390987
-0.357344
-0.15755
-0.109666
-0.420786
-0.0836103
-0.282018
-0.309059
-0.0614813
-0.0219551
-0.090532
-0.133646
-0.217865
-0.125185
-0.00557988
-0.128618
-0.114472
0.0137267
0.00104006
-0.00794466
0.00644495
-0.288399
-0.26819
-0.230007
-0.427152
0.0137739
0.0170133
0.0189211
0.0203225
0.0273007
0.0288721
0.15337
0.152459
0.154116
0.16617
0.178099
0.192687
0.162636
0.138191
0.130068
0.132409
0.107482
0.115794
0.110915
0.124646
0.143684
0.150779
0.14838
0.150822
0.136385
0.137219
0.124976
0.129396
0.106169
0.0901137
0.0831688
0.0100223
0.00771184
0.0094114
0.00844831
0.00786578
0.00839612
0.029288
0.0244713
0.0283682
0.0222123
0.0149978
0.0140745
0.0114261
-0.412387
-0.351443
-0.521331
-0.561854
-0.622341
0.549792
0.661799
0.491657
0.25464
0.263436
0.484488
0.585255
0.266949
0.433182
0.474207
0.174775
0.445501
0.164831
0.164092
0.162273
0.161127
0.162211
-0.360751
-0.266133
-0.242567
-0.195741
-0.0716724
0.0411151
-0.0565942
-0.182935
-0.0478642
-0.0204083
0.278226
0.291771
0.235849
0.261867
0.263695
0.0844493
0.160116
0.20641
0.155464
0.218977
0.249873
0.198971
0.241973
0.168651
0.125008
0.119511
0.0676756
0.103336
0.0835453
0.0574968
0.154361
0.134907
0.144046
0.137942
0.154096
0.185431
0.182254
0.19946
0.216144
0.141847
0.0976453
0.112273
0.136739
0.0992273
0.113121
0.130303
-0.164862
-0.254176
-0.110148
-0.465975
-0.340459
-0.322088
-0.360142
-0.404465
-0.0906802
-0.768134
-0.701435
-1.38793
0.112898
0.515813
0.346344
0.358228
0.36764
0.345589
0.35518
0.379703
0.386514
0.302481
0.31249
0.318678
0.276875
0.308869
0.31563
0.321483
0.144741
0.0682678
0.0565497
0.00757173
-0.12452
-0.0889467
0.0879091
0.0274238
-0.0376837
-0.0372905
0.120899
0.00506499
0.0730672
0.119211
0.0670747
0.00455881
0.210367
0.27214
0.256991
0.227515
0.146297
0.163429
0.187769
0.227292
0.248572
0.278696
0.151814
0.157138
0.157838
0.155338
0.153684
0.15584
0.155553
0.158512
0.159266
0.161859
0.161219
-0.193914
-0.245941
-0.326208
-0.243558
-0.645254
-0.620407
-0.565734
-0.532216
-0.359466
-0.455442
-0.56551
-0.46463
-0.364557
-0.327713
-0.361458
-0.359265
-0.295458
-0.391133
-0.074133
0.140117
0.179968
0.0353784
-0.113233
-0.0750196
0.00890622
-0.246966
-0.0920147
-0.0996248
-0.149893
-0.266218
-0.0213333
-0.0200451
-0.0224415
-0.00952846
-0.0432905
-0.0131996
0.0108553
0.00697703
0.00206593
0.00777942
0.0119214
0.140895
0.13422
0.1324
0.127516
0.127429
0.138162
0.143314
0.145104
0.149615
0.15138
0.143616
0.148754
0.150974
0.0207029
0.0155734
0.019746
0.00806497
0.0112581
0.013582
0.0102884
-0.251001
-0.298642
-0.254753
-0.34186
-0.464013
-0.408639
0.11309
0.105333
0.136944
0.320445
0.173959
0.0866707
0.170787
0.27348
-0.105883
0.102982
-0.0677537
0.523693
0.410356
0.551237
0.192279
-0.113877
0.0321749
0.0522203
-0.104455
0.00316062
-0.0134563
-0.130012
-0.0918337
-0.0743524
0.00386611
-0.0959283
-0.118859
-0.363866
-0.19306
-0.0652217
-0.0871039
0.0516834
0.113368
-0.108572
-0.18046
-0.23534
0.271531
0.288644
0.301255
0.270973
0.294887
0.223254
0.216724
0.233769
0.24467
0.23572
-1.03842
-0.652565
-1.80619
-1.19181
-0.753133
0.138429
0.12143
0.370234
0.283135
0.355898
0.341551
0.287045
0.255495
0.267062
0.301242
0.00314672
0.112802
0.0738688
0.0961136
0.0279614
-0.0507092
0.240172
0.236341
0.264952
0.287101
0.263076
0.288989
0.14978
0.148753
0.149653
0.146789
0.145241
0.146836
-0.531857
-0.524073
-0.481855
-0.484789
-0.573644
-0.56334
0.0266664
0.0078393
0.00730404
0.00998447
0.028185
0.0284772
-0.211996
-0.263731
-0.328404
-0.315646
-0.360726
-0.411804
-0.428453
-0.336129
-0.261674
-0.278858
0.0372275
0.311649
0.140436
0.317017
0.121856
0.216775
0.131117
0.113352
0.149699
0.0162653
0.090964
-0.333632
-0.563832
-0.595992
0.420222
0.383547
0.179889
-0.0714143
-0.200722
0.0930949
0.172491
0.138599
0.174211
0.218876
0.215551
-0.376915
-0.284643
-0.197644
0.0963119
-0.0913185
-0.0917193
-0.0844895
0.0503274
0.0252219
)
;

boundaryField
{
    wall-4
    {
        type            zeroGradient;
    }
    velocity-inlet-5
    {
        type            zeroGradient;
    }
    velocity-inlet-6
    {
        type            zeroGradient;
    }
    pressure-outlet-7
    {
        type            fixedValue;
        value           uniform 0;
    }
    wall-8
    {
        type            zeroGradient;
    }
    frontAndBackPlanes
    {
        type            empty;
    }
}

