/*--------------------------------*- C++ -*----------------------------------*\
  =========                 |
  \\      /  F ield         | OpenFOAM: The Open Source CFD Toolbox
   \\    /   O peration     | Website:  https://openfoam.org
    \\  /    A nd           | Version:  6
     \\/     M anipulation  |
\*---------------------------------------------------------------------------*/
FoamFile
{
    version     2.0;
    format      ascii;
    class       volVectorField;
    location    "0";
    object      U;
}
// * * * * * * * * * * * * * * * * * * * * * * * * * * * * * * * * * * * * * //

dimensions      [0 1 -1 0 0 0 0];

internalField   nonuniform List<vector> 
918
(
(0.0284668 0.0193488 0)
(-0.019822 0.0191277 0)
(0.0243535 0.000496199 0)
(0.0345654 -0.0166109 0)
(-0.0203074 -0.00588391 8.44858e-18)
(0.0227466 0.0341348 1.62758e-17)
(0.00253581 -0.00423348 4.64165e-18)
(0.00169212 -0.00135996 1.62599e-19)
(0.0275125 -0.000794054 0)
(-1.00794e-05 -0.00230519 0)
(-0.00138509 -0.00432043 0)
(-0.000142695 0.000641245 0)
(-0.00272299 -0.00934271 0)
(-0.00808999 0.000640896 0)
(0.00689277 0.00584878 8.60405e-18)
(0.00243914 -0.000489989 5.63627e-18)
(0.000601794 -0.000492655 -9.40217e-18)
(0.00204163 0.00118651 -1.95354e-18)
(0.00197754 -0.00115113 0)
(-0.0011268 -0.00167772 0)
(-0.0299409 -0.000662948 6.41108e-18)
(0.041998 0.00633091 0)
(0.0148887 -0.00466997 0)
(-0.00411756 -0.00208197 0)
(-0.00178179 -0.0017165 0)
(-0.00978093 0.00327402 0)
(0.000287146 0.0049853 -2.08173e-17)
(0.0377747 -0.0064965 0)
(0.0048246 0.00673291 0)
(0.0237677 -0.00293513 0)
(-0.00104161 0.0112996 0)
(0.0150501 0.00829532 8.10671e-18)
(0.00213818 0.000130738 0)
(0.0425539 -0.00208181 8.62168e-22)
(0.00674638 0.00779241 -2.43541e-17)
(-0.000222489 0.0103011 0)
(0.000767 0.000488789 0)
(0.00143996 -0.0148614 -4.96367e-18)
(0.000115911 0.00527587 -9.44426e-18)
(0.000216969 -0.00889258 1.00608e-17)
(0.00316106 0.00502065 4.66486e-19)
(0.00160512 -0.00226137 7.02951e-18)
(-0.000264018 -0.000801295 -1.15666e-19)
(-0.000873509 -0.000173056 0)
(-0.00280361 -0.00250192 0)
(0.00091272 -0.000220485 -5.45856e-19)
(0.00179862 0.000723687 7.04604e-19)
(-0.000759609 0.00116534 0)
(0.00694916 -0.000582796 0)
(0.0275178 0.000431403 0)
(0.00571054 0.0139306 0)
(0.00825534 -0.00263431 0)
(0.0264527 -0.00186655 0)
(-0.00286259 0.0132084 6.21862e-18)
(0.00230378 -4.43519e-05 0)
(0.00300922 0.00885425 0)
(0.00578474 -0.0079506 0)
(0.00405412 -0.013176 0)
(0.0038862 9.55806e-05 0)
(-0.00351621 -0.00944104 0)
(-0.00146432 -0.0100485 0)
(-0.000315731 -0.00439498 0)
(0.000380104 7.58498e-05 0)
(-0.000938487 -0.00136875 0)
(-0.000880407 -0.00115056 0)
(-0.00181793 2.94814e-05 0)
(-0.00095586 0.000647529 0)
(-0.000787248 -0.0011545 0)
(0.00869849 0.0260143 -3.78638e-18)
(-0.0278876 0.024022 0)
(-0.00107316 0.042211 0)
(-0.00432997 -0.0110635 -9.66563e-23)
(0.0170414 0.00275461 1.69978e-17)
(0.000532182 -0.00662662 0)
(-0.00230128 -0.000958164 0)
(-0.0123346 -0.00160222 -2.06914e-23)
(-0.00242824 0.00179157 0)
(0.000115086 0.00228686 0)
(0.00360025 0.00519307 0)
(0.000235876 0.0061308 0)
(0.0047347 0.00249013 0)
(0.00185352 0.00363095 -4.51679e-18)
(0.00626008 0.00263886 0)
(0.00115419 0.00134466 0)
(0.00373727 -0.00208482 4.15647e-18)
(0.0010762 -0.00331114 5.8108e-18)
(-0.00143053 -0.000619239 2.62562e-18)
(-0.00212904 -0.00147648 3.57108e-18)
(-0.000395972 -0.00015331 1.27333e-17)
(0.000249082 0.000482745 4.92384e-18)
(-0.00550079 0.0020511 0)
(-0.00184573 0.00442061 -9.57095e-18)
(-0.000856029 -0.00460124 -4.12666e-19)
(-0.000474691 0.0028578 0)
(-0.00092826 0.000948308 0)
(0.0286923 8.03206e-05 0)
(0.0017226 -0.00365868 0)
(0.00379918 -0.00928894 6.13336e-17)
(-0.00771055 -0.0244991 -1.41249e-17)
(-0.00231724 -0.00245947 0)
(0.000405648 -0.00299242 0)
(-8.25095e-05 0.0051641 0)
(0.00227092 -0.00157245 0)
(0.00357527 -0.00229389 0)
(-0.0486223 0.0138532 -2.13292e-18)
(-0.00532366 -0.0100502 0)
(-0.000836076 -0.00121306 0)
(0.000208529 0.000671712 0)
(-0.000542913 -0.00293231 0)
(-0.00033826 -0.00941283 0)
(0.00047715 -0.00086505 0)
(-0.000813589 0.00106191 0)
(-0.00232961 0.000161424 0)
(-0.00270596 -0.00187655 -1.24903e-17)
(0.00472472 -0.00115367 -4.72678e-18)
(-0.00624619 0.00038531 0)
(-0.010472 -0.00135921 0)
(-0.00531095 0.00285038 0)
(-0.00608942 0.00314197 -1.22148e-17)
(-0.0053354 0.00363145 0)
(-0.00105301 0.00499215 2.02545e-17)
(0.00552706 0.00726503 -4.10628e-18)
(-0.00412109 0.00197252 0)
(0.00089126 0.000998621 0)
(0.000260116 0.000458474 1.64662e-20)
(0.00296356 -8.76009e-05 0)
(-0.00179914 -0.000247368 0)
(0.000270905 2.92031e-06 0)
(0.00040043 0.000370923 0)
(-0.00106115 -0.000439868 0)
(-0.000170218 0.00163496 0)
(7.39168e-05 0.000459977 0)
(0.00155149 -0.0115196 3.41313e-18)
(-0.0116283 -0.0197669 0)
(0.00885768 0.00647541 -6.55248e-19)
(0.00271735 0.0104884 0)
(0.00106924 0.0049896 4.84944e-19)
(-0.00200114 -0.00698723 5.00847e-18)
(-0.00062416 0.00151143 0)
(-0.000919265 0.00262753 0)
(0.000513442 -0.0042266 0)
(-0.00150546 -0.00697637 1.17912e-18)
(3.47066e-05 0.000704156 0)
(0.00224893 0.00047035 -2.31834e-18)
(0.00404295 0.0032557 0)
(0.00440891 0.00388104 0)
(-0.00274591 -0.00434254 -5.29366e-18)
(0.000542645 0.00118963 0)
(-0.00443592 -0.00503005 -4.22037e-18)
(-0.000547869 -0.00122905 0)
(-0.000144157 0.000977445 0)
(-0.000416688 -0.00132843 0)
(-0.000371157 -0.000168706 0)
(-0.000362246 0.00179558 0)
(0.000212508 -2.68073e-05 0)
(0.00839082 0.000561448 0)
(0.00801607 0.00112471 0)
(0.0269938 -0.000167751 0)
(-0.00143205 0.0098053 1.38714e-18)
(0.00205954 0.0108673 0)
(-0.00664648 0.00949409 -5.9205e-18)
(-0.00546477 0.00697259 5.61162e-18)
(0.00408074 0.00565009 -9.06166e-18)
(0.00657418 0.00705141 0)
(-0.00100407 0.00535777 0)
(0.00233322 -0.0164471 0)
(-0.00173372 -0.0144371 0)
(0.00596864 -0.00194936 3.10211e-20)
(0.00115445 -0.00431744 0)
(4.1851e-05 0.000916366 -3.19237e-18)
(-0.00310364 -0.00101146 -3.27052e-18)
(-0.00256337 -0.0153732 0)
(-0.00352282 -0.0134709 0)
(-0.00301387 -0.0123648 0)
(0.000303387 -0.00316811 0)
(0.000152655 -0.0037433 0)
(-0.00153066 -0.00129129 0)
(-0.00138881 0.00121384 0)
(5.02355e-05 0.00107727 0)
(-0.000774505 0.000598323 0)
(0.000280709 -8.6058e-05 0)
(0.000591575 -9.58466e-05 0)
(0.000101182 0.000980562 0)
(0.00123542 8.36312e-05 0)
(-0.00366849 -0.00161185 7.63165e-20)
(-0.00407207 -0.00297641 0)
(-0.00120068 -0.0011555 0)
(0.00175634 0.00135056 0)
(0.0237014 0.0310622 0)
(0.01259 -0.0264605 1.39226e-18)
(0.00289883 0.00281878 0)
(0.00684356 0.00175241 0)
(0.000352588 -0.00352441 0)
(0.000659793 0.00596024 0)
(-0.000137095 0.00122842 0)
(-0.0144687 -0.0071575 -1.12012e-17)
(4.54031e-05 -0.00482652 0)
(-0.00439223 -0.00116443 0)
(-0.00301669 -0.00226568 -9.87892e-18)
(-0.00279036 -3.33401e-05 -6.0674e-18)
(0.00118257 0.00013791 3.92636e-18)
(-0.00024333 -0.000125166 0)
(-0.00239976 -0.00164768 -7.89474e-18)
(-0.000105679 0.00117307 3.41492e-18)
(0.00268508 -0.00332758 0)
(-0.00146892 0.00335763 1.28133e-18)
(0.00387561 -0.00452976 -9.74678e-21)
(0.000100704 -0.000726975 -8.44232e-18)
(2.86712e-05 9.71415e-05 0)
(-0.000257158 0.000906139 0)
(-0.000637781 -0.00105875 0)
(0.000521885 -0.00101133 0)
(-0.000525174 -0.00349482 0)
(-0.000236902 -0.00155477 0)
(-0.000675994 -0.00195147 0)
(-0.00233879 0.00186714 -5.34584e-18)
(-0.0102328 0.00323962 6.12406e-18)
(-0.00119999 -0.00166026 0)
(0.00156633 -0.000488287 -7.44554e-19)
(-0.00293786 0.00197935 0)
(-0.000248197 0.00100772 0)
(-0.000811876 -0.000189513 0)
(-0.000494359 0.00128137 0)
(-0.000567125 -0.000173895 2.9726e-17)
(0.00135226 -0.000972472 -1.23961e-17)
(0.003764 -0.00121531 -1.23178e-17)
(0.00160197 -0.00149159 -8.43719e-18)
(-0.00664114 -0.0017189 1.5749e-19)
(-0.00580158 -0.0115861 -1.08499e-17)
(0.00484095 0.00610415 -2.81377e-19)
(0.0104578 0.00623279 1.12848e-21)
(0.0160645 0.00795334 4.01834e-18)
(-0.0284862 -0.000766791 -4.30775e-18)
(-0.00250333 -0.0118433 1.11487e-18)
(-0.000352928 -3.87863e-05 0)
(0.000826985 -0.00242284 0)
(0.000182194 -0.000389967 0)
(0.000320544 -0.000242611 0)
(0.00030023 0.00125327 0)
(0.000553635 -0.000158948 0)
(0.000196899 0.000977755 0)
(-0.000731249 -0.00119887 0)
(0.000658292 0.000148818 0)
(-0.0164938 -0.0119757 5.31375e-18)
(-0.0135915 -0.0141616 0)
(0.0100786 0.0166479 -4.4013e-19)
(-0.00551277 0.00781008 -5.7521e-18)
(-0.000997809 0.0105448 1.39601e-18)
(0.00971086 0.0218806 -8.96735e-18)
(0.00392708 -1.71358e-05 -9.89035e-18)
(-0.00683191 -0.00961577 1.03866e-18)
(-0.00120522 -7.14056e-05 -8.35678e-18)
(0.000467272 -0.000983383 -2.24217e-18)
(6.17493e-05 -0.00134823 -2.60626e-18)
(0.00309666 0.000913361 1.32753e-18)
(-0.00192973 -0.00146922 5.97253e-18)
(-0.00384004 0.00440252 -7.39957e-18)
(-0.00284858 0.00166008 0)
(-0.00039973 -0.000812556 0)
(-4.74897e-05 0.0012078 0)
(-7.41336e-05 -0.000466014 0)
(0.00036316 -0.00422953 0)
(-0.00700467 -0.000518112 -1.55162e-17)
(-0.00288023 -0.000737869 0)
(0.000224839 0.00204515 7.03157e-18)
(0.00670161 -0.00281871 -2.97194e-19)
(0.000851497 -0.00121973 0)
(-0.0188249 -0.00791014 -1.88261e-18)
(-0.0120241 0.000175609 3.39527e-18)
(-0.00308387 -0.00832109 -6.68821e-18)
(0.00262376 -0.00106133 1.22565e-17)
(0.00249865 2.12054e-05 0)
(0.00577451 -0.000663008 0)
(0.00351738 -0.000222866 9.8018e-18)
(-0.00172883 0.00350575 2.63344e-18)
(0.00367442 0.00289196 9.78865e-18)
(0.00294479 -0.00561853 -6.22729e-18)
(-0.000936236 0.00649511 8.32243e-19)
(-0.00197413 0.00712892 -8.01057e-18)
(0.000252716 0.00103364 -3.54668e-19)
(0.00173875 0.0053767 -8.87212e-18)
(-0.000329472 -0.00586504 3.45155e-17)
(0.00328796 -0.00734842 -4.30001e-18)
(-0.00785288 0.00291791 -3.64408e-18)
(0.00191052 -0.00300192 3.83747e-18)
(-0.0149894 0.00288153 1.22223e-17)
(0.00693463 0.000965272 5.79277e-18)
(0.011839 -0.00463858 -3.8137e-17)
(0.00247067 -0.00100505 0)
(-0.00656346 0.00678315 9.89597e-18)
(0.00134153 0.0040297 -7.06897e-18)
(0.00235995 -0.00452494 -7.17208e-19)
(0.00124492 -0.00331496 1.17312e-17)
(0.00304839 0.000517498 -2.96189e-18)
(0.00210968 -0.00250258 0)
(-0.00353073 -0.00391911 3.04334e-18)
(0.00294748 -0.00294405 3.4543e-20)
(4.71958e-05 -0.000223748 0)
(0.000217766 -0.00167468 0)
(-0.000138813 -0.00962022 1.5731e-18)
(-0.00133858 -0.00560307 -1.54323e-18)
(-0.000338771 0.000645963 -1.03279e-17)
(0.000221952 0.00309659 0)
(-0.0103434 0.00914779 -5.90136e-18)
(-0.00953764 0.00218429 0)
(-0.00635107 0.0106966 0)
(-0.00426107 0.00527306 7.25996e-20)
(0.0103599 0.00846743 -1.30152e-17)
(-0.00689292 -0.0110209 -1.0707e-17)
(-0.0088194 0.00036999 0)
(0.00263295 0.00103395 -3.56766e-18)
(0.0080926 0.0134837 0)
(-0.00879396 0.00117626 -1.31303e-18)
(-0.00660532 9.42635e-05 1.23148e-17)
(-0.00736662 -0.00270272 0)
(0.00357102 -0.000101352 5.19119e-20)
(0.0176587 -0.00482908 0)
(0.0092196 -0.011661 0)
(-0.00376535 -0.0193759 0)
(-0.0110374 -0.000804299 -1.29354e-17)
(-0.0034483 -0.00929978 9.44402e-18)
(-0.00449553 -1.99339e-06 1.20669e-17)
(-0.00853616 -0.00473542 0)
(-0.00822523 -0.00174799 0)
(0.000436749 0.00727541 0)
(-0.00436763 -0.00492946 0)
(0.00232638 -0.00921159 0)
(-0.0101593 0.00117483 -1.5489e-17)
(-0.001377 0.00898301 0)
(0.00149359 0.00285535 0)
(0.00331245 -0.0127333 -1.28133e-17)
(0.00534226 -0.00574795 1.5573e-17)
(-0.0112089 0.00576526 0)
(-0.0114453 0.00241106 0)
(0.00500631 0.0034513 0)
(0.00188061 -0.00451465 0)
(0.00252371 -0.00696115 0)
(0.010058 -0.00600308 0)
(-0.00255112 0.00996982 0)
(-0.0037095 0.00114774 0)
(-0.00546837 -0.000193244 1.23373e-17)
(-0.00207601 -0.000565796 3.88744e-18)
(0.00240163 0.0135562 1.28647e-17)
(-0.000287104 -0.00564463 -1.55706e-17)
(-0.0125146 -0.00578944 0)
(0.00150192 0.00104352 -4.3693e-18)
(-0.00637047 -0.00888216 1.88805e-17)
(0.00274144 -0.00116486 0)
(-0.000945377 -0.00381862 0)
(-0.0115766 -0.00114379 -6.26172e-18)
(0.00278133 0.00739437 -4.43056e-18)
(-0.0061034 -0.00465722 -2.25543e-17)
(-0.007688 -0.00205109 0)
(0.0224875 0.000325754 1.41371e-17)
(-0.0273356 0.00963067 7.33986e-19)
(0.0219254 0.0158849 -7.421e-18)
(-0.0111365 0.00540219 9.43339e-18)
(0.000357321 0.00789188 0)
(-0.00273199 0.00410205 -1.30816e-18)
(0.0122121 0.00209419 -6.04688e-18)
(-0.00828825 0.00176713 8.71404e-18)
(0.0160421 0.000119961 0)
(-0.00374025 0.00316782 0)
(-0.00144376 0.000138004 0)
(0.000103781 0.00168225 -3.27724e-18)
(-0.000297941 -0.00134517 1.53851e-17)
(0.00129333 0.00625314 0)
(0.00308589 -0.0092861 0)
(-0.00374809 -0.00544413 2.02692e-17)
(0.00249583 -0.00257809 -2.47468e-17)
(-0.0073644 0.0127698 0)
(0.00337021 0.00673092 0)
(0.0125562 -0.00633428 0)
(-0.00833088 0.00576772 0)
(0.00107852 -0.0072784 0)
(0.00397826 0.00233829 0)
(-0.00225752 0.0149869 0)
(0.00473865 0.00153042 0)
(0.0220204 -0.00128586 0)
(0.0137225 -0.00241319 0)
(0.0206035 0.00858207 0)
(-0.00241766 0.0135387 0)
(0.00342414 -0.0141968 0)
(0.00943708 -0.00361595 7.79983e-18)
(0.00261066 0.0028702 0)
(0.00559678 0.013891 2.49656e-18)
(-0.0114056 0.0165079 -6.92294e-18)
(-0.010405 -0.0166231 0)
(-0.0134052 -0.0051965 0)
(0.00299493 -0.0128491 0)
(0.00238946 -0.0103612 0)
(-0.00735734 0.00158924 -9.10493e-18)
(-0.00583217 0.00574719 -8.90021e-18)
(0.000572366 0.00311846 3.15623e-18)
(4.82829e-05 0.0156405 0)
(0.00627612 -0.0026552 7.72119e-18)
(0.00221356 0.00820096 -8.41295e-18)
(-0.0275891 -0.00358346 -1.7986e-17)
(0.0123536 0.0242672 -4.42096e-18)
(-0.0079481 0.0195471 8.39381e-18)
(-0.00129719 0.00557892 -1.75691e-17)
(0.00121643 0.0062368 2.24622e-17)
(-0.00214749 -0.00265229 1.79045e-17)
(0.00359546 -0.00151755 -2.14985e-17)
(-0.00625868 -0.0111917 0)
(0.00266567 -0.00426555 0)
(-0.00114256 -0.00354598 0)
(-0.00384028 0.00531026 0)
(0.00750559 0.00167186 0)
(-0.00409478 -0.00508155 0)
(-0.00432191 0.00500049 0)
(0.0068823 0.000364903 0)
(0.0221756 0.0108203 1.50304e-18)
(0.00246186 -0.000460443 0)
(-0.000532756 -0.00103511 0)
(-0.00936163 0.00241837 -2.77757e-18)
(-0.00900549 0.00412638 2.97226e-20)
(-0.00121987 -0.00180106 5.65564e-18)
(0.0172793 0.00746361 7.14551e-18)
(0.0126788 -0.000441667 0)
(-0.0100458 -0.00741149 0)
(-0.0128829 0.000422397 0)
(0.00917925 -0.002753 0)
(0.00925243 -0.000581922 0)
(-0.00678705 0.00157764 -9.8394e-19)
(-0.00208972 -0.0113945 8.46587e-18)
(-0.011709 -0.0173649 1.02992e-18)
(-0.00806736 -0.0315822 9.80433e-19)
(-0.0390974 -0.0118124 3.82074e-18)
(-0.00258499 -0.00529164 0)
(2.0838e-05 -0.00611447 0)
(0.00112586 -0.00668436 0)
(0.00488266 0.00384136 0)
(-0.00121808 0.00694524 0)
(0.0065803 -0.00497536 0)
(-0.00189835 -0.0139324 0)
(-0.00208909 0.00177728 0)
(-0.000824405 0.00408445 -1.86488e-17)
(0.00151624 0.00493689 2.40277e-17)
(-0.00303195 -0.00444566 1.90281e-17)
(0.00279947 -0.00405004 -2.32586e-17)
(-0.00622036 0.0117751 0)
(-0.00257676 0.0070985 -5.71321e-18)
(0.0077792 0.000558523 1.47038e-17)
(0.00521971 -0.00335289 3.7097e-18)
(-0.00181511 -0.0283464 -1.72755e-17)
(-0.00334525 0.00159973 -9.17596e-18)
(-0.00185435 0.00612955 0)
(-0.00379654 -0.0106731 -2.17625e-18)
(0.00547323 -0.00015457 5.11211e-19)
(-0.00520888 0.00135964 0)
(0.04762 -0.00490304 -3.07931e-19)
(0.00923758 -0.0152388 2.30747e-17)
(-0.0349448 -0.0304353 -6.51037e-18)
(-0.00233173 -0.0762813 1.57306e-18)
(0.0090706 0.0186427 -6.25787e-18)
(0.00491747 0.00832381 0)
(0.0040125 0.0134625 4.2634e-18)
(0.0252121 0.00610892 2.97955e-17)
(0.0445178 0.0105916 0)
(0.0056601 0.00573201 -5.96217e-19)
(0.000389535 -0.0109964 2.68022e-18)
(0.00099688 0.00636918 -1.31748e-17)
(0.00884017 0.00488657 0)
(-0.00502877 0.0038664 0)
(-0.0203808 -0.0149851 0)
(-0.0078058 -0.0229607 1.18896e-17)
(0.00285972 0.0042054 -8.68524e-18)
(0.0138154 -0.00949956 0)
(0.00164491 0.00490374 7.01973e-19)
(0.00424709 -0.00658874 -8.98839e-18)
(0.0029287 0.0400126 7.71008e-18)
(-0.00343382 0.00728959 1.75973e-18)
(0.00180683 -0.000792257 -2.0096e-18)
(-0.00402015 0.000628081 -2.5123e-19)
(0.00467903 0.00217836 1.06276e-17)
(-0.000605853 -0.00267589 0)
(-0.00184912 -0.00652312 -4.86689e-18)
(0.000532176 0.00564957 0)
(0.00189772 0.000468692 0)
(0.00493415 -0.000163499 0)
(0.00292164 -0.00240413 -3.08979e-19)
(-0.00450627 0.014474 1.69119e-17)
(0.00639969 -0.00626481 0)
(-0.00108002 0.00967194 0)
(-0.00336761 0.000169218 -3.09035e-18)
(0.0123886 -0.00833998 9.11858e-18)
(0.0045005 0.00328618 -5.62557e-18)
(-0.000806386 0.00244611 -2.62743e-18)
(-9.15996e-05 0.0050451 -7.07428e-18)
(-0.00116493 -0.013531 1.89987e-17)
(0.00206295 -0.00284188 0)
(0.00078577 0.00447515 0)
(0.00167455 0.00106262 6.75334e-18)
(0.00240744 -0.00301687 -1.7879e-17)
(0.00263056 -0.0100494 0)
(0.00337905 -0.00338192 0)
(-0.00523208 0.000723792 0)
(0.00600475 0.00357382 0)
(-0.00546255 0.00153841 0)
(0.00154911 0.0057292 0)
(-0.00336231 -0.0117977 0)
(-0.00445073 -0.0131569 0)
(0.00845043 0.0141259 -3.98148e-18)
(-0.0200573 0.00984557 -3.68698e-18)
(-0.0181945 0.0207141 1.56876e-17)
(-0.0162558 0.0195115 -2.12139e-18)
(0.0246442 0.0176736 0)
(0.0278802 -0.0230734 1.42109e-17)
(0.0505763 -0.0216041 0)
(-0.032474 -0.0118273 7.62831e-18)
(-0.00327892 -0.0107499 -1.12894e-17)
(0.00309308 -0.00216889 6.89079e-18)
(-0.00799219 0.0304675 -3.94422e-18)
(0.0152299 0.0267659 -7.5605e-18)
(-0.0211308 0.0115947 3.57755e-18)
(-0.0159191 -0.00669948 0)
(-0.0235703 9.90383e-05 -1.13089e-17)
(-0.00379 0.0258074 2.05851e-18)
(-0.0136443 0.0201066 0)
(0.0172839 0.00744035 -1.39092e-17)
(0.0226421 0.0235535 0)
(0.00125608 0.0149603 7.3783e-18)
(-0.00453923 0.0270337 0)
(-0.00634916 -0.00847351 1.00585e-17)
(-0.0170435 0.00272823 0)
(-0.00507261 -0.00846449 0)
(-0.00981204 -0.00674058 5.14768e-18)
(-0.0203139 0.0154393 -1.71027e-17)
(-0.00315277 0.0211781 -1.39353e-17)
(-0.00630452 0.0286182 -2.84284e-20)
(-0.0233058 0.00227561 9.8971e-18)
(-0.0197351 0.0237309 -6.42248e-18)
(0.00763456 -0.0024767 0)
(0.00702168 -0.0048126 0)
(-0.00666934 0.00208174 9.4069e-19)
(0.00421922 -0.00419031 3.94837e-19)
(-0.0108992 -0.00840068 1.2984e-17)
(0.0079476 -0.014686 0)
(-0.00776227 -0.00250339 1.70965e-17)
(0.00697014 0.0130577 1.4567e-18)
(0.00747517 -0.00121105 -2.49477e-18)
(-0.0185042 -0.018046 1.2712e-17)
(-0.0194372 0.0141787 -5.86664e-20)
(0.000796591 0.0146955 -8.74169e-18)
(0.000364036 -0.00451719 1.81881e-17)
(-0.0015391 0.0137038 -6.352e-18)
(0.00162098 -0.00141828 0)
(-0.000184566 0.0115924 -2.43233e-17)
(0.00282089 -0.0109973 1.7589e-17)
(-0.00341997 0.00143844 -1.79516e-17)
(0.00206888 0.0096998 2.15131e-18)
(-0.00532395 0.0120615 0)
(0.00123742 -0.00102842 -1.75882e-17)
(0.0048682 0.00429433 6.20209e-18)
(0.00645852 0.00655988 1.11069e-18)
(0.00628769 -0.00996768 -6.80749e-18)
(-0.000540977 -0.00707351 0)
(0.00490463 -0.002581 1.87106e-18)
(-0.000798051 5.67045e-05 0)
(0.00561351 -0.00510229 0)
(-0.00297309 -0.00382147 0)
(0.00399422 0.0024974 0)
(-0.000478335 -0.00540769 -3.24301e-18)
(-0.00540406 -0.00256327 1.282e-17)
(-0.000986214 0.00299367 3.29423e-18)
(0.000889827 0.00371411 5.98199e-18)
(-0.010067 -0.000306572 -4.81192e-18)
(0.00884135 -0.00151978 0)
(0.00941037 0.00906521 0)
(-0.00120832 -0.0120746 -6.71962e-18)
(-0.0257376 -0.0041003 -3.76351e-20)
(-0.0118806 0.01152 0)
(-0.00417468 0.00285239 -8.80679e-18)
(0.0191952 0.00517676 1.1534e-18)
(0.0104366 0.00507721 -4.09209e-19)
(0.0108512 0.00178968 -1.28307e-17)
(0.00271691 -0.000167948 7.64957e-20)
(-0.0230724 0.00641756 -1.2109e-18)
(-0.00873018 0.00434997 5.78467e-18)
(0.00588484 0.00433151 3.83673e-18)
(0.00272711 0.00541263 -3.3723e-18)
(-0.00395546 -0.0107146 -6.70898e-18)
(-0.0350095 0.00629146 1.39268e-19)
(-0.033444 0.0017439 -6.29033e-18)
(0.00221082 0.0010285 -1.67956e-17)
(0.00184858 -0.0109619 3.4051e-18)
(0.00346121 -0.0107943 0)
(-0.0120175 -0.00837682 -1.80782e-18)
(0.00272448 -0.00593172 -1.56025e-18)
(-0.00796804 -0.0255062 -1.08687e-18)
(-0.0107407 -0.0129724 9.62014e-19)
(-0.0295732 -0.00609531 -8.35659e-18)
(0.000348827 -0.0223604 0)
(-0.00426175 -0.0130618 7.02779e-19)
(0.0160618 -0.0211672 -6.53282e-18)
(0.0135146 -0.0341295 9.0539e-18)
(0.00987023 -0.0135383 9.25919e-18)
(-0.00871878 0.0210926 -1.19345e-17)
(-0.00295388 0.0144081 0)
(-0.00250711 -0.0174854 -4.18129e-19)
(0.00165677 0.017071 3.65056e-19)
(0.00771487 0.0113268 4.70534e-18)
(-0.000744687 -0.00287797 -8.18921e-18)
(0.00370111 -0.00176182 0)
(0.0169175 0.00990124 0)
(-0.00780885 0.00804902 0)
(-0.00870348 0.0190385 0)
(-0.000228319 0.0347142 0)
(-0.00342015 -0.0307544 4.24164e-18)
(0.0167661 -0.0240818 0)
(0.0398956 -0.0319121 -2.32779e-19)
(0.0180988 0.0110386 0)
(0.0204071 -0.0181979 1.68578e-17)
(0.0262277 -0.014031 5.83e-18)
(-0.000452476 0.0086166 0)
(-0.000137183 0.00381137 -1.72155e-18)
(0.0022395 -0.000863486 -9.01814e-18)
(-0.00227881 0.00349052 -5.3232e-19)
(0.00218497 -0.00426701 1.13719e-17)
(-0.0136993 0.00462927 9.90225e-18)
(0.0154825 -0.0159849 4.18479e-18)
(-0.0129793 0.012884 -5.65415e-18)
(0.00204914 0.014031 -6.72986e-18)
(0.00120336 -0.00382055 1.99306e-17)
(-0.0058691 -0.00990046 -3.30069e-18)
(0.0123504 -0.00758172 4.07397e-18)
(0.000781899 -0.00722467 0)
(-0.000843661 0.00606057 -3.96237e-18)
(-0.00207013 0.00116306 0)
(-0.00661241 0.0167861 0)
(0.00928721 -0.00629016 -6.12575e-18)
(0.00398577 -0.0153781 4.60647e-18)
(0.0117288 0.00953254 5.40863e-18)
(0.00661616 0.0138758 0)
(0.00562599 -0.000149962 -1.37692e-17)
(0.00620204 0.0149894 -6.19222e-18)
(-0.00926664 -0.00224009 4.40989e-18)
(0.00159613 -0.0106687 1.33504e-17)
(0.00240637 0.0079093 2.17184e-18)
(0.00574939 -0.00872344 0)
(0.00126722 0.00279447 0)
(0.00166163 -0.00401741 1.23869e-17)
(0.000507877 0.01152 -9.60068e-19)
(-0.00157745 -0.00631019 -1.51684e-17)
(-0.00555495 0.00195355 8.24609e-18)
(0.00609205 -0.000757112 -1.17633e-17)
(0.00648219 -0.00752999 0)
(-0.00378297 -0.0073012 0)
(0.0104918 -0.00106998 1.01386e-17)
(0.00377599 0.00054446 4.06019e-18)
(0.00808459 -0.00461146 5.96777e-19)
(-0.00905509 -0.0288605 3.15408e-19)
(-0.01793 -0.0175336 7.90307e-18)
(-0.0163094 0.0116377 -1.65593e-18)
(-0.0100799 -0.0168022 9.55537e-18)
(-0.024568 -0.0132965 -3.8794e-18)
(-0.0018946 -0.014799 1.21295e-18)
(-0.0259271 -0.0101934 3.4483e-18)
(-0.00459235 -0.0142497 -1.05834e-17)
(-0.0111192 0.00365645 -2.85143e-18)
(-0.0255274 0.000171839 3.07893e-18)
(-0.0164875 -0.00480044 0)
(-0.0317347 -0.0256048 5.04073e-20)
(0.0479723 -0.0160876 -5.74551e-18)
(0.0354364 0.0140187 -5.91379e-18)
(0.046004 0.0379906 -8.20964e-18)
(0.000646764 0.00238973 -6.97022e-18)
(0.00953961 0.00690401 1.00603e-17)
(0.00568627 0.00465909 -8.85549e-18)
(0.00722198 0.00722243 3.24564e-18)
(0.00319301 0.00868397 -7.42427e-18)
(-0.00199752 -0.000999193 6.9005e-18)
(0.00278451 -0.00462665 0)
(0.00383088 0.000431827 9.00801e-19)
(0.000181507 0.00459162 -5.04792e-18)
(0.0120911 -0.0110314 1.40697e-17)
(0.00680368 0.00444045 -8.63587e-19)
(0.000533159 0.00409922 0)
(-0.0102846 0.00166197 -7.67192e-18)
(-0.00234411 0.00662041 1.29589e-18)
(-0.0105419 -0.0186643 1.38291e-17)
(0.000748504 0.0128977 4.38068e-18)
(-0.00277932 0.0062738 3.08036e-19)
(-0.00831627 -0.000893116 -1.79304e-18)
(0.0086045 0.0029336 9.06329e-18)
(0.0058625 -0.0155926 -8.2106e-19)
(-0.0128258 0.0106835 0)
(-0.000216779 -0.000486524 7.14379e-18)
(0.00714732 -0.00552989 4.40578e-18)
(0.0117736 -0.0114839 -8.74256e-18)
(-0.00658619 -0.00236487 -1.2616e-17)
(-0.000504236 -0.000815832 1.26629e-17)
(-0.00394737 0.00590439 0)
(-0.000509499 0.00497495 0)
(0.00907543 -0.0010056 7.3806e-18)
(-0.00656818 0.00520987 0)
(0.010957 -0.00411271 -6.18289e-18)
(-0.00558957 0.00459297 1.0028e-17)
(-0.0106003 -0.00619482 -3.72894e-17)
(0.0024905 -0.00179705 -6.48303e-18)
(0.00889312 -0.00166854 7.29297e-18)
(0.00104546 -0.000895184 -6.74288e-18)
(0.0016998 -0.00765632 -4.44488e-18)
(0.00096734 0.0077686 3.29618e-18)
(-0.00112368 -0.00787434 -1.62164e-17)
(0.0055498 0.0113249 0)
(0.00549239 -0.00161666 -4.63981e-18)
(0.0110974 -0.0172377 1.19025e-17)
(-0.00536897 0.00190333 -1.03001e-17)
(0.00708406 -0.000231783 1.47784e-17)
(-0.00529479 0.00259839 0)
(0.00216389 0.000734224 4.84391e-18)
(0.00186247 -0.00737577 -7.48433e-18)
(0.00211014 0.00135208 3.27113e-18)
(0.00428665 0.0134884 -1.47021e-18)
(0.00760614 -0.0153734 0)
(-0.0258491 0.000114314 0)
(0.012135 -0.0132896 0)
(0.00400909 -0.0182488 0)
(0.026439 -0.0185042 -6.94596e-18)
(0.0337884 -0.00337483 -1.38875e-17)
(0.0324833 0.00421465 -3.08377e-18)
(0.0255497 0.00323354 -1.43827e-17)
(0.0224849 -0.0149516 1.21999e-17)
(-0.000905935 0.00268218 6.06351e-18)
(0.0209626 -0.0215039 1.76006e-17)
(0.0137123 -0.00134228 1.20069e-17)
(0.000495207 -0.00860344 1.97826e-18)
(-0.0258009 -0.00769367 6.68005e-19)
(0.025998 0.00793016 -6.63699e-18)
(0.0194007 0.00722537 0)
(0.0375455 -0.0147789 -7.52822e-18)
(0.0412957 -0.00848802 -2.2891e-18)
(0.0141601 -0.00468969 -1.3361e-18)
(0.0182618 -0.0269711 0)
(0.00075524 -0.0131284 1.33426e-17)
(0.00646334 -0.0168644 3.3803e-18)
(0.00443411 -0.0155219 -5.62613e-18)
(0.0186869 -0.00529326 -1.38494e-17)
(0.0396916 -0.000766391 0)
(-0.015995 0.0273692 8.44399e-18)
(-0.00463598 0.0356254 8.85734e-19)
(-0.00332308 0.020217 0)
(-0.00868919 0.0181184 3.09574e-18)
(-0.00332148 0.00761856 7.17088e-19)
(-0.00701193 -0.00209008 1.06598e-18)
(-0.0126742 0.00729632 -9.60467e-18)
(-0.00477734 -0.0074868 -1.10703e-17)
(0.000581413 0.0209889 5.1073e-18)
(-0.0184875 -0.0222524 0)
(-0.00552769 -0.0168711 0)
(0.00939775 -0.00261109 -7.0769e-18)
(-0.0179307 0.00289964 -1.07705e-19)
(-0.000737321 -0.00523857 0)
(-0.00882211 -0.00441006 3.75548e-18)
(-0.00530425 0.00112069 2.24135e-18)
(0.00325798 -0.0235806 0)
(-0.0082676 -0.00570683 1.02252e-18)
(0.00623124 -0.0117669 1.34012e-17)
(0.0106645 0.000457353 0)
(0.0113305 0.0197606 0)
(-0.0119183 0.00581233 3.15251e-18)
(-0.00344084 0.0181814 -1.91953e-17)
(0.00568364 -0.000187268 -1.61991e-17)
(-0.00332245 1.00167e-05 0)
(0.000183582 0.00243421 0)
(0.00465602 0.00634021 -2.55651e-18)
(0.00233302 -0.0020458 0)
(0.00444845 -0.0120012 0)
(0.00552934 -0.00417939 0)
(0.00562134 0.0163835 -6.09937e-18)
(0.00861315 0.0177792 5.75995e-18)
(0.00122187 -0.00185247 0)
(-0.0221741 -0.00726524 -6.44948e-18)
(-0.00972109 -0.00443609 -2.39182e-18)
(-0.00747421 0.00718085 0)
(-0.00305884 0.0451095 0)
(-0.0411078 0.0396186 1.19574e-17)
(-0.0372187 0.04642 0)
(-0.0256593 -0.0212299 1.53965e-18)
(-0.00512071 -0.0181631 0)
(-0.0261855 -0.00952828 9.59112e-18)
(0.0190302 0.000852345 1.19883e-19)
(-0.0083505 0.0261192 4.34391e-18)
(-0.00177735 0.0172028 -1.3136e-17)
(-0.00252614 0.0238184 -3.01457e-18)
(0.0157608 0.0194247 0)
(0.011604 0.00683578 0)
(-0.00546756 0.0207123 0)
(0.00424771 0.0310196 5.94617e-18)
(-0.0112862 0.0308893 -9.05301e-19)
(0.0148623 0.0298795 1.68379e-18)
(0.00303691 0.0152294 -5.42804e-19)
(-0.000514275 0.00166377 0)
(-0.00848335 0.0158038 0)
(-0.00381346 0.00802039 1.8548e-18)
(-0.00536878 0.0270152 0)
(-0.00803184 0.0311447 0)
(-0.0583054 0.0200694 -1.9961e-18)
(-0.0245167 0.0156728 -4.31747e-19)
(-0.0342053 0.0353796 0)
(-0.0558836 0.0238402 -2.15706e-17)
(-0.0106576 -0.0311536 8.61052e-19)
(-0.0342463 0.0203134 0)
(-0.00742201 0.0186807 -8.41994e-18)
(0.0135903 -0.00578851 0)
(0.00774347 0.0104393 0)
(0.00201408 -0.0284994 6.59474e-18)
(-0.00393582 -0.0274141 1.96777e-18)
(-0.00597399 -0.0396251 -1.16865e-17)
(0.0158794 -0.0450698 1.30109e-18)
(0.00872336 -0.0282015 0)
(0.0153259 -0.0272848 -2.96321e-18)
(0.00599467 -0.0214541 2.79423e-18)
(0.00594344 -0.0195068 -1.13356e-18)
(0.0508208 -0.0218956 0)
(0.043493 0.000833684 7.35672e-18)
(0.0353963 0.00944579 0)
(0.000240265 0.00400885 0)
(-0.00181829 -0.00306801 0)
(0.00603911 -0.00251464 0)
(0.00196291 -0.00722554 5.38003e-18)
(-0.00150379 0.00192189 -2.8615e-18)
(-0.00976226 0.0127931 6.61741e-18)
(0.00461968 0.0115679 0)
(-0.00299047 0.00712621 -2.03271e-18)
(0.00185509 -0.0115821 -8.34394e-18)
(0.00904867 -0.00216318 4.1101e-18)
(-0.0154478 -0.000951284 -6.68338e-18)
(-0.0261855 0.0161654 0)
(-0.0281454 0.00603519 -1.50767e-17)
(0.0087929 0.0225326 2.19951e-18)
(-0.00783545 0.0378703 6.3473e-18)
(-0.00546858 -0.0196778 -9.72693e-18)
(-0.0340444 0.00448109 0)
(0.00832417 -0.00751759 2.1801e-18)
(0.0217942 -0.03096 -1.80237e-18)
(0.0348952 -2.80115e-05 3.27182e-18)
(0.0150889 0.000712911 -1.17029e-18)
(0.0143806 0.000498242 -5.6622e-18)
(-0.00853371 0.00383901 0)
(0.0182656 -0.0121703 0)
(0.0174602 -0.0169681 0)
(0.00932566 -0.00370695 -1.17971e-18)
(0.00266575 0.000598958 7.31465e-18)
(-0.0121689 -0.00158916 -6.14151e-18)
(0.00438867 0.0091197 8.08303e-18)
(-0.00366421 -0.0104531 0)
(0.00580788 -0.00493949 1.88729e-19)
(-0.00708925 0.0067668 1.00328e-17)
(-0.00193709 0.0109153 1.47045e-17)
(0.00202425 -0.00425799 -7.09337e-18)
(0.0058685 -0.00842588 6.50345e-18)
(-0.00370145 -0.00255456 3.80916e-18)
(0.00281936 -0.000571992 -8.70951e-18)
(-0.00692191 -4.94566e-05 1.65574e-18)
(-0.00713904 -0.00270016 -2.01675e-17)
(-0.00590175 -0.00151508 -3.6234e-18)
(-0.00328531 0.0103172 1.83345e-17)
(0.0174592 -0.00459915 0)
(0.0190689 0.00415531 1.56063e-17)
(0.00117306 0.0154879 3.11821e-18)
(0.0272704 -0.0060067 0)
(0.0194289 -0.0131433 -1.28098e-17)
(0.0312377 -0.0050899 -2.76998e-18)
(0.0371947 -0.0113386 -8.39126e-18)
(0.0197366 -0.0130895 0)
(0.00201966 -0.00447867 0)
(-0.0123884 0.00983528 -2.3713e-18)
(-0.00315687 0.0146586 -3.26948e-18)
(-0.0214339 0.0120496 -7.21821e-18)
(0.0232105 -0.00911301 -7.70391e-19)
(0.0110662 0.00466243 -1.00321e-18)
(0.0444516 -0.0163151 -7.46035e-18)
(0.0113976 -0.00487466 -2.78864e-17)
(0.000464746 -0.0172665 1.6922e-17)
(-0.0253928 0.0104307 -1.13336e-18)
(0.0320254 -0.00728427 0)
(0.00553319 -0.0224313 1.67049e-17)
(0.020849 -0.0136098 4.31774e-18)
(0.0143588 -0.0326005 4.14997e-18)
(0.0344547 -0.0320899 0)
(0.0302583 -0.0154817 0)
(-0.0551062 0.0370814 -1.40261e-17)
(-0.00848771 0.0124419 -1.88568e-17)
(0.00258821 0.0167398 -1.71597e-18)
(-0.000288041 0.00839445 7.27168e-19)
(-0.0362859 0.0262893 -1.90817e-18)
(-0.019938 0.0162511 2.50855e-18)
(-0.000383202 0.00474458 4.11028e-18)
(0.00983736 -0.0154708 0)
(0.00450138 -0.00385012 6.87864e-18)
(0.00333668 -0.0233532 0)
(0.0128291 -0.0296367 0)
(-0.0465498 0.0411522 4.85484e-18)
(-0.0177279 0.0284358 4.73657e-18)
(-0.0133179 0.0356071 -5.56731e-18)
(0.0646414 0.0161339 0)
(0.0191139 0.0088288 4.65002e-19)
(-0.00657762 -0.00498991 -1.34409e-18)