/*--------------------------------*- C++ -*----------------------------------*\
  =========                 |
  \\      /  F ield         | OpenFOAM: The Open Source CFD Toolbox
   \\    /   O peration     | Website:  https://openfoam.org
    \\  /    A nd           | Version:  6
     \\/     M anipulation  |
\*---------------------------------------------------------------------------*/
FoamFile
{
    version     2.0;
    format      ascii;
    class       volVectorField;
    location    "0";
    object      U_rec;
}
// * * * * * * * * * * * * * * * * * * * * * * * * * * * * * * * * * * * * * //

dimensions      [0 1 -1 0 0 0 0];

internalField   nonuniform List<vector> 
918
(
(0.982962 -0.00529667 0)
(-0.000610472 2.98172 0)
(-0.0138706 1.68753 0)
(0.976202 0.00708565 0)
(-0.00127028 1.64637 6.11064e-17)
(-0.00270799 2.97052 -4.87419e-17)
(0.951581 1.45668 2.16471e-20)
(0.458876 0.230507 1.50814e-19)
(0.992398 -0.00010147 0)
(0.00628996 1.40264 0)
(0.00138948 1.52586 0)
(0.877513 -0.00331775 0)
(0.00204939 2.98865 0)
(0.0050807 2.89942 0)
(0.00158283 2.88582 1.31517e-17)
(-0.00755531 1.614 3.61716e-17)
(0.639474 0.129279 8.30596e-18)
(0.157897 1.55365 -4.30988e-17)
(0.983035 0.00507282 0)
(0.00145425 1.59519 0)
(-0.0436886 -0.00966516 9.52187e-19)
(0.983968 0.00948242 0)
(1.00583 0.0121423 0)
(1.01617 -0.000266924 0)
(0.793297 -0.0036554 0)
(0.0182078 2.94805 0)
(-0.00761518 2.94522 -9.26748e-17)
(-0.0177696 1.71519 0)
(0.00183798 1.76299 0)
(-0.00822025 1.71237 0)
(-0.0130844 1.79413 0)
(-0.0133403 1.65935 6.1128e-17)
(-0.00776896 1.61618 0)
(-0.0114512 3.01171 -7.12649e-23)
(0.00351181 3.02136 -4.52641e-17)
(0.0213535 3.00218 0)
(0.930168 -0.0037006 0)
(0.602156 1.11817 -9.27546e-18)
(0.976234 1.46246 -3.65221e-18)
(1.09262 1.29382 2.04941e-17)
(0.82793 1.59194 1.1207e-17)
(0.799571 1.57059 1.12813e-17)
(0.477085 0.302453 1.72844e-19)
(0.510801 0.221866 0)
(1.27122 0.680873 0)
(0.40784 0.317031 5.576e-19)
(0.383469 0.215995 4.57807e-19)
(0.95714 -0.00333918 0)
(0.998179 0.00228857 0)
(0.992499 0.00373413 0)
(0.992216 0.00291207 0)
(0.983051 0.00815686 0)
(0.993255 0.0137989 0)
(0.0420559 1.60233 -4.9627e-19)
(0.0102026 1.45323 0)
(0.0231093 1.37192 0)
(-0.00996004 1.49471 0)
(-0.0097578 1.45277 0)
(-0.0107056 1.65245 0)
(-0.000177315 1.62411 0)
(0.000972086 1.53065 0)
(-0.0104598 1.63528 0)
(-0.00463676 1.53167 0)
(0.950054 0.00147952 0)
(0.925141 0.0125239 0)
(0.891977 0.000659841 0)
(0.91495 0.0148155 0)
(0.862948 -0.00293934 0)
(-0.0273225 3.03949 3.32525e-17)
(0.00657837 2.96498 0)
(-0.0284386 3.00316 0)
(0.037815 3.0431 1.48849e-23)
(-0.00157257 3.03523 3.14797e-17)
(0.0182725 3.01 0)
(0.0031066 2.95849 0)
(0.00492769 2.96993 1.11939e-24)
(0.00379392 2.90517 0)
(-2.64846e-05 2.97743 0)
(0.00447698 2.89064 0)
(0.269725 3.1605 0)
(-0.0617006 3.24514 0)
(0.0889111 2.94308 1.30376e-17)
(0.00196823 2.79365 0)
(-0.0066412 1.77201 0)
(-0.00351327 1.68586 3.62639e-17)
(-0.00418795 1.62343 3.6104e-17)
(0.671452 0.169741 -7.78784e-18)
(0.666682 0.0968476 -2.70097e-19)
(0.634595 0.204255 1.38496e-17)
(0.603495 0.162409 -1.49582e-17)
(0.220833 1.21047 0)
(0.281461 1.65169 -4.49917e-17)
(0.364237 1.63253 -4.48467e-17)
(0.994286 0.005699 0)
(0.969577 0.00266087 0)
(0.991687 -0.00622205 0)
(1.00241 0.000898289 0)
(1.00454 0.0129255 1.16484e-16)
(1.00525 0.0151248 1.56849e-16)
(-0.00983331 1.65812 0)
(-0.00476101 1.58422 0)
(-0.0110638 1.71297 0)
(-0.0152284 1.67936 0)
(-0.00269466 1.61618 0)
(-0.0677797 0.24405 -1.2819e-18)
(0.158623 0.149208 0)
(1.01552 -0.016393 0)
(0.984906 -0.0035288 0)
(0.891629 0.0247897 0)
(0.853789 0.0458249 0)
(0.835655 -0.00185066 0)
(1.08715 -0.00251553 0)
(0.807041 0.0479608 0)
(0.736345 0.00259026 3.56675e-17)
(-0.0171481 2.87469 3.05747e-17)
(0.00812051 2.99128 0)
(-0.0538884 3.03534 0)
(0.0058634 2.88243 0)
(-0.00524356 2.98551 -3.04691e-17)
(-0.00438498 2.9344 0)
(-0.0108815 2.98935 -3.30471e-17)
(-0.0110717 2.95598 3.18908e-17)
(0.00180946 1.7786 0)
(-0.00109296 1.77787 0)
(0.000891142 1.68476 -1.7437e-20)
(-0.00484802 1.67068 0)
(-0.00289062 1.61611 0)
(0.963304 -0.00037094 0)
(0.926946 -0.00340561 0)
(0.925093 0.00629487 0)
(0.969553 -0.00183403 0)
(0.941002 -0.00264503 0)
(0.650245 1.2445 -8.65757e-18)
(0.742664 1.28759 0)
(0.539488 1.06991 -1.02226e-18)
(0.507277 0.990668 0)
(1.08903 1.29794 2.05465e-17)
(1.18758 1.0856 -6.01726e-20)
(0.495287 1.70374 0)
(0.671542 1.68585 0)
(0.60165 1.63294 0)
(0.302308 0.663513 -7.59662e-18)
(0.527467 0.27987 0)
(0.545709 0.204427 -3.09666e-18)
(1.16174 1.10783 0)
(1.22029 0.904146 0)
(1.23969 0.872532 1.06161e-19)
(1.26478 0.711926 0)
(1.29022 0.500656 -3.08701e-17)
(0.975051 0.00168628 0)
(0.97739 -0.00413994 0)
(0.946893 -0.00182997 0)
(0.997951 -0.00842737 0)
(0.98814 -0.00913579 0)
(0.970175 -0.00237817 0)
(0.990277 -0.00392213 0)
(0.988752 9.83613e-05 0)
(0.993134 -0.00197663 0)
(0.0324731 1.6952 3.44576e-17)
(0.0420493 1.55373 0)
(0.0389787 1.71264 1.15037e-18)
(0.0242948 1.61808 -4.17213e-19)
(0.109565 1.55185 -4.3157e-17)
(0.043855 1.46329 0)
(0.0706153 1.4312 0)
(-0.0123805 1.56173 0)
(0.000755746 1.49701 0)
(-0.00551535 1.72019 4.43067e-21)
(0.00165734 1.66023 0)
(-0.0101126 1.71115 -3.61186e-17)
(-0.000797473 1.64528 2.2383e-19)
(-0.000593622 1.60009 0)
(0.00050727 1.61745 0)
(0.00328441 1.51886 0)
(-0.00968228 1.64527 0)
(-0.005798 1.54955 0)
(0.994832 0.0173877 0)
(0.969066 0.00423277 0)
(0.97782 0.00999779 0)
(0.939354 0.00172555 0)
(0.899045 -0.0024046 0)
(0.943677 0.00347681 0)
(0.93551 0.00757673 0)
(0.894205 -0.00263681 0)
(0.0092467 3.03694 -8.16946e-21)
(0.0145025 3.03317 0)
(0.0058876 2.99361 0)
(0.00326745 2.94294 0)
(0.984457 3.68134 0)
(1.3749 2.71471 -2.91041e-18)
(0.00455643 2.86759 0)
(-0.00946746 2.79436 0)
(-0.00692235 1.76662 0)
(-0.00874198 1.77103 0)
(-0.0101877 1.76959 0)
(-0.00750578 1.78687 -8.1387e-17)
(-0.0115385 1.7742 0)
(-0.00864978 1.78074 0)
(0.0024648 1.6276 -7.23879e-17)
(0.00427478 1.69734 -3.61256e-17)
(-0.00487733 1.69328 3.62398e-17)
(-0.000318886 1.62609 0)
(0.701774 0.12997 -1.56668e-17)
(0.685754 0.0607727 -1.64642e-17)
(0.183249 1.42577 0)
(0.273317 1.06241 -1.58271e-19)
(0.115654 1.50189 -3.18954e-17)
(0.141009 1.35359 -3.07183e-17)
(0.94873 0.00528558 0)
(0.979042 0.00439891 0)
(0.98457 0.00843096 0)
(0.956282 0.00512156 0)
(-0.010023 1.64987 0)
(-0.0062025 1.65098 0)
(-0.00701266 1.56835 0)
(0.323549 0.310549 2.37925e-18)
(0.188388 0.278739 -3.38542e-18)
(0.300296 0.199268 0)
(1.17673 0.101866 -9.05146e-20)
(1.18224 0.0595927 0)
(1.09006 0.0482747 0)
(1.02808 0.00600629 0)
(0.717498 0.0909376 0)
(0.74896 0.0540447 1.58591e-17)
(0.697046 0.0260514 -1.58498e-17)
(-0.0189929 2.95356 -3.02617e-17)
(-0.00968178 2.90617 -6.14324e-17)
(0.00535936 3.02877 -2.52069e-20)
(0.0312765 3.01982 -3.47896e-17)
(-0.0158989 3.00301 1.12715e-20)
(-0.0101308 2.98315 -9.30412e-23)
(-0.0101658 3.02485 -7.13085e-18)
(0.00398654 2.9855 -6.42319e-18)
(0.0448072 3.02222 -3.57828e-17)
(0.973333 0.00471809 0)
(0.967992 0.00852039 0)
(0.932212 0.00130265 0)
(0.973796 0.00723978 0)
(0.965191 0.00821584 0)
(0.9366 0.00550616 0)
(0.949258 0.00295447 0)
(0.95699 0.00967489 0)
(0.907818 0.0028836 0)
(0.797223 1.4564 -3.90115e-19)
(0.88374 1.51508 0)
(0.40466 0.828994 1.96048e-18)
(0.387993 0.891262 9.79132e-19)
(0.454334 0.970137 -1.60799e-17)
(0.431503 0.904738 -1.42513e-17)
(0.372053 0.958104 7.57525e-18)
(0.287827 0.685275 2.22193e-17)
(0.601774 0.2325 -7.45006e-18)
(0.568832 0.25811 -2.44313e-18)
(0.580553 0.188388 7.16401e-18)
(1.29048 0.52451 -3.10809e-17)
(1.28751 0.333938 -2.12688e-19)
(0.0221702 1.71508 -3.47291e-17)
(0.0142408 1.63209 0)
(1.04082 0.0321508 0)
(1.0113 0.0211312 0)
(0.992198 0.00172817 0)
(0.0130046 3.04444 0)
(0.0145922 2.97421 -3.03978e-17)
(0.0102725 2.98523 0)
(0.00333842 2.92508 -3.2205e-17)
(0.0101768 3.05608 1.82183e-17)
(0.00959705 3.04895 0)
(0.861924 1.74647 -2.69998e-18)
(1.20232 2.31141 -1.39789e-17)
(0.957078 1.82604 -1.38137e-17)
(-0.0313843 2.91425 2.97674e-17)
(-0.030048 2.87233 0)
(-0.0186793 2.83431 0)
(-0.0103499 1.69502 7.18841e-17)
(0.00381509 1.68978 -4.84056e-19)
(-0.00812864 1.62641 7.1773e-17)
(0.237408 1.32285 -1.44307e-17)
(0.289185 0.890885 -1.4883e-17)
(0.0331922 1.65592 -3.20293e-17)
(0.0726276 1.59746 -3.28834e-17)
(0.0674856 1.47374 -6.48098e-17)
(-0.0211866 3.06671 1.22975e-16)
(-0.00944789 3.06358 1.25312e-16)
(0.00763281 2.98672 3.19459e-17)
(-0.0183991 2.98013 -3.13299e-17)
(-0.00147243 2.93686 3.07041e-17)
(0.0158045 3.05976 -1.09718e-16)
(-0.00802036 3.05445 -1.25027e-16)
(0.335985 0.907068 0)
(0.326581 0.864684 -1.34218e-17)
(0.347669 0.700309 -1.46459e-17)
(0.351332 1.02492 3.69944e-17)
(0.295888 0.712762 2.09968e-17)
(1.26679 0.202189 -5.78349e-19)
(1.29208 0.36185 0)
(1.2619 0.177356 -1.2155e-19)
(-0.00407292 1.72621 4.66676e-22)
(0.0187035 1.72528 0)
(0.00591897 1.64921 0)
(0.287431 1.25094 1.18944e-19)
(0.344449 1.15571 -3.69559e-17)
(0.278553 0.788118 -2.83391e-17)
(1.00195 -0.0239863 0)
(1.00131 -0.0130241 1.99077e-17)
(0.00057456 1.77393 0)
(-0.0126387 1.78995 0)
(1.00104 -0.00209401 4.90928e-19)
(1.00169 0.00140141 2.98485e-17)
(8.80394e-05 1.78709 -8.14104e-17)
(-0.00172547 1.78257 0)
(-0.0248311 2.95977 3.11183e-17)
(0.300459 2.96973 0)
(1.09953 0.699791 -2.97447e-17)
(1.00428 0.00845511 9.06506e-17)
(1.01384 -0.00475804 0)
(1.005 -0.00159708 3.80409e-19)
(-0.102552 1.52287 0)
(-0.0543203 2.04278 0)
(-0.0185853 1.77123 0)
(-0.00300653 1.78839 -7.9837e-17)
(-0.014344 1.77744 8.00332e-17)
(0.987836 0.0120974 8.88499e-17)
(1.03461 0.0203447 0)
(1.0587 0.0313234 0)
(-0.00357374 1.77471 0)
(0.000273203 1.77669 0)
(-0.019053 1.77688 0)
(0.273841 1.56022 -8.78895e-17)
(1.00527 -0.0138032 0)
(1.00596 -0.0148725 0)
(0.995181 0.00583666 -1.41855e-17)
(0.995418 -0.00495494 1.85284e-17)
(0.995148 -0.00395523 0)
(-0.00170135 1.76762 0)
(-0.00465676 1.7663 0)
(-0.00396796 1.76444 0)
(-0.0121287 1.77719 0)
(-0.0306304 1.77718 0)
(-0.0178086 1.76939 0)
(1.01219 -0.00142044 0)
(1.00908 0.00858094 9.08342e-17)
(0.842946 1.42797 -3.78463e-18)
(1.00156 -0.00758788 1.45667e-17)
(0.99824 0.00454894 -1.82058e-17)
(1.00222 0.00331748 0)
(1.00144 0.0111733 4.59247e-17)
(1.0067 0.0142046 4.35908e-17)
(1.00407 0.0111931 0)
(0.00209321 1.77925 0)
(0.00448765 1.77955 -4.09483e-17)
(-0.00308157 1.77541 -3.67374e-17)
(1.16211 0.256154 -5.52448e-17)
(1.09974 0.083067 0)
(-0.257018 2.96141 2.47747e-17)
(-0.27371 3.2491 3.10043e-19)
(-0.0464316 3.00407 5.9617e-17)
(-0.0472012 2.95709 3.64224e-17)
(0.0425787 2.93032 0)
(-0.0293785 3.02044 1.63015e-17)
(-0.112728 3.12652 3.03314e-17)
(-0.0909842 3.00238 1.56148e-17)
(-0.0673377 3.09521 0)
(0.634154 0.334671 0)
(0.523814 0.382708 0)
(1.07679 0.825528 3.6338e-17)
(1.07482 0.901005 3.44006e-17)
(1.14493 0.639115 0)
(1.16089 0.557414 0)
(1.00698 0.0060769 1.20032e-18)
(1.00378 0.00535791 1.56059e-18)
(1.01615 -0.00576533 0)
(1.00982 -0.0124091 0)
(0.999374 0.0110649 0)
(1.0058 0.0044386 0)
(1.00549 0.00659585 0)
(1.00169 0.00687957 0)
(1.00365 0.00513768 0)
(0.993361 0.00574851 0)
(-0.0906323 1.54186 0)
(-0.108722 1.56377 0)
(-0.0285832 1.50481 0)
(0.0179224 1.52126 0)
(-0.0433436 2.07891 0)
(0.0106804 2.07932 3.60289e-17)
(-0.051981 2.03067 0)
(-0.0603793 1.97237 3.58319e-17)
(-0.0179734 1.83734 -7.62006e-17)
(-0.0214167 1.77454 0)
(-0.00907046 1.77683 0)
(-0.0169328 1.7629 0)
(-0.0227626 1.75014 0)
(-0.0206184 1.7918 -8.067e-17)
(-0.032114 1.77319 -5.10138e-17)
(-0.00178773 1.78949 4.08499e-17)
(-0.0127835 1.79104 0)
(0.0101765 1.78214 3.2545e-17)
(0.0012457 1.78318 -7.7063e-17)
(-0.0470501 1.80575 -1.22424e-16)
(-0.0338904 1.75328 -5.13105e-17)
(-0.0115834 1.76666 4.05078e-17)
(0.992228 0.0191754 2.96241e-18)
(0.995713 0.00515446 -1.84019e-18)
(0.986538 0.0251249 2.26766e-18)
(0.974862 0.0165289 1.97283e-18)
(1.03188 0.0131505 0)
(1.02873 0.0074028 0)
(1.04432 0.0350588 0)
(1.03802 0.0303909 0)
(1.04034 0.0154168 0)
(1.08703 0.0735378 0)
(1.06511 0.0628739 0)
(1.07894 0.0408588 0)
(-0.0139179 1.78715 1.05894e-17)
(-0.00434356 1.76367 0)
(-0.0154508 1.77262 0)
(-0.00325575 1.77591 -1.5667e-17)
(-0.000957318 1.77813 1.3656e-20)
(-0.0139982 1.79109 4.74258e-17)
(-0.0281765 1.77777 4.73401e-17)
(-0.00842797 1.76914 0)
(-0.0316969 1.77495 0)
(-0.0173224 1.7663 0)
(-0.00918092 1.77944 0)
(-0.0118481 1.78185 0)
(0.436591 1.61936 -6.2576e-17)
(0.432272 1.6509 4.35539e-17)
(0.43003 1.9856 -5.1427e-19)
(0.242417 2.06391 3.3309e-17)
(0.379778 1.95584 3.98115e-17)
(1.0131 -0.01099 0)
(1.01078 -0.00617464 0)
(1.01464 -0.00846397 0)
(1.00513 0.00403288 0)
(0.997859 -0.00459991 0)
(0.990879 -0.00190126 0)
(1.00247 -0.00238454 0)
(1.00444 -0.00172146 0)
(1.00671 0.00653803 3.73612e-18)
(1.0023 0.00655751 -1.67193e-18)
(1.0098 0.0108674 1.55512e-18)
(1.00517 0.00948751 1.55425e-18)
(0.760749 1.52996 0)
(0.731671 1.56057 -8.44078e-17)
(0.900453 1.37987 7.39814e-17)
(0.94764 1.29803 7.42749e-17)
(1.00352 2.08748 -1.89133e-17)
(0.824946 0.119685 -1.76239e-17)
(1.11241 0.135383 0)
(1.15751 0.189214 -1.07938e-16)
(1.13632 0.14115 -1.58126e-19)
(0.952201 0.137686 0)
(-0.0999079 2.67736 6.06418e-17)
(-0.409942 2.59325 6.69245e-17)
(-0.880934 2.69213 1.18723e-17)
(-0.715352 0.18896 -1.43998e-17)
(0.190091 2.96264 -1.29198e-17)
(0.0337119 2.96007 0)
(0.134888 2.9343 -1.31093e-17)
(0.0130368 2.67408 7.20695e-17)
(0.193493 2.70089 0)
(-0.0252973 3.04863 -8.91818e-20)
(-0.0369106 3.07001 -2.83088e-17)
(-0.00624344 3.09285 -2.71375e-17)
(-0.0488296 3.10969 0)
(-0.0518491 3.04583 0)
(1.14029 2.1475 0)
(0.490993 1.06282 4.96499e-17)
(1.02243 1.09832 -3.51352e-17)
(0.989253 1.22718 0)
(0.822774 1.09428 -1.67701e-17)
(1.04604 1.04466 -6.59955e-17)
(0.157101 0.423224 -6.48845e-18)
(0.64527 0.337501 1.28858e-17)
(0.665463 0.298996 1.57877e-17)
(0.460801 0.452301 2.24196e-19)
(0.426053 0.387638 -3.77527e-18)
(0.59903 0.379953 0)
(0.597076 0.477981 1.56454e-17)
(0.617578 0.42776 0)
(0.541066 0.404782 0)
(0.579695 0.347165 0)
(0.676802 0.687506 3.88909e-17)
(1.17492 0.343404 3.42639e-17)
(1.18246 0.464811 0)
(1.17481 0.385335 0)
(0.741052 0.233075 2.46055e-17)
(0.72262 0.626229 3.64291e-17)
(0.613004 0.566312 1.61198e-17)
(0.87801 0.427042 -9.18635e-17)
(1.0025 0.00407786 4.35868e-17)
(1.00362 0.0150656 4.2041e-17)
(0.997899 0.00923323 0)
(1.00848 0.00228788 0)
(1.00747 -0.0156811 -4.25233e-17)
(1.00016 -0.0113987 -4.04205e-17)
(1.0157 -0.00011016 0)
(1.00446 0.00720552 0)
(1.008 0.000762849 0)
(1.00294 0.0020874 0)
(1.00849 -0.000607751 0)
(1.00513 -0.00456762 0)
(-0.0966979 1.62191 0)
(-0.0834959 1.64028 0)
(-0.071733 1.4372 -5.68432e-17)
(0.229191 1.57558 -4.2924e-17)
(0.103604 1.51262 8.21006e-17)
(0.135398 1.52163 3.92944e-17)
(0.0563577 1.47737 0)
(-0.0531483 1.87576 7.64095e-17)
(-0.149522 1.81542 0)
(0.296108 2.01743 3.97285e-17)
(0.236965 2.08546 -4.60673e-17)
(0.0595595 1.73005 7.64208e-17)
(0.260296 1.45645 -4.41196e-17)
(0.0944591 1.46871 -4.41126e-17)
(0.288243 1.47081 -1.2e-17)
(0.177498 1.80273 0)
(0.27954 1.79415 -5.50299e-17)
(-0.107747 1.83257 5.69065e-18)
(-0.0296704 1.87071 0)
(-0.14179 1.91343 -7.67947e-17)
(-0.131488 1.85624 0)
(-0.0448667 1.94572 3.55227e-17)
(-0.0316388 1.89094 0)
(-0.0149767 1.76865 5.73197e-17)
(-0.0242405 1.78369 0)
(-0.0397118 1.75604 0)
(-0.0301515 1.76876 5.76296e-17)
(-0.0261063 1.79105 -1.25799e-16)
(-0.00568257 1.82782 -7.27771e-17)
(-0.0142774 1.81011 5.06294e-21)
(-0.0135128 1.77131 8.27504e-17)
(-0.0420046 1.79099 -4.1915e-17)
(-0.0157711 1.77972 0)
(-0.0121021 1.7883 0)
(-0.0979066 1.81062 3.40236e-17)
(-0.0864801 1.76877 2.90988e-17)
(-0.0628999 1.79483 6.27809e-17)
(-0.165025 1.81092 0)
(0.000322855 1.78151 1.08807e-16)
(-0.011295 1.77485 1.84977e-17)
(0.00156997 1.78011 -2.08328e-17)
(-0.00354985 1.78475 8.25763e-17)
(0.00982921 1.75015 -4.34752e-18)
(-0.00443257 1.75689 -4.70395e-17)
(1.00368 0.0145541 4.19364e-17)
(0.999902 0.00559509 4.28859e-17)
(0.999113 0.00840163 0)
(0.9905 0.0482218 -6.23838e-17)
(0.966465 0.0502637 2.78326e-18)
(0.949738 0.0324536 6.92972e-18)
(0.984864 0.0895643 8.23099e-20)
(1.01687 0.00442958 0)
(1.02139 0.011441 -4.17416e-17)
(1.01747 0.00367123 -4.27396e-17)
(1.02851 0.0366313 3.03353e-18)
(1.03047 0.0368411 -6.22348e-18)
(1.02382 0.049345 0)
(1.01449 0.0437496 -1.3178e-18)
(1.00629 0.0281406 0)
(1.00033 0.029703 0)
(1.01814 0.0220879 0)
(1.00591 0.0109339 0)
(1.01249 0.0299833 7.69507e-18)
(1.01307 0.0226042 2.49096e-17)
(1.02771 0.0318161 -9.96614e-18)
(1.02009 0.0283809 7.10521e-18)
(1.02094 0.0682541 3.70728e-17)
(1.04016 0.0629309 0)
(1.0313 0.0926286 0)
(-9.04399e-05 1.78896 -5.74864e-17)
(0.0166199 1.76815 -9.35957e-19)
(-0.00646604 1.77566 0)
(0.00712098 1.78525 -5.73678e-17)
(0.000944098 1.79096 9.67283e-18)
(0.00154998 1.78257 -4.3173e-18)
(-0.00623099 1.78222 -8.20019e-17)
(0.00163361 1.77312 -2.35164e-19)
(0.00571164 1.76815 -5.14943e-18)
(-0.00315316 1.77645 3.61435e-17)
(-0.00310463 1.78047 3.64971e-17)
(-0.000104131 1.76699 -2.47268e-17)
(-0.00329061 1.78291 -4.10189e-17)
(0.439838 1.49021 3.08169e-17)
(0.430409 1.54183 -5.42046e-18)
(0.677179 1.63621 -8.42554e-17)
(0.547915 1.67597 4.35914e-17)
(0.585521 1.64823 0)
(0.439991 1.96634 -3.09182e-18)
(0.501478 1.94999 4.7418e-19)
(0.295533 2.04526 -7.87831e-18)
(0.264673 2.14129 -3.97056e-17)
(0.373499 2.10817 -2.81746e-17)
(0.380232 2.00491 0)
(0.35622 2.00694 -1.53089e-17)
(0.0830334 2.09867 5.6756e-18)
(0.183707 2.08599 6.63542e-17)
(0.126838 2.08076 1.15425e-18)
(0.753435 1.90655 -3.33916e-17)
(0.645903 1.9266 0)
(1.01003 0.0101393 8.35522e-20)
(1.00807 -0.00410474 3.31665e-20)
(1.00456 -0.0173468 -1.29898e-17)
(1.01478 -0.00563246 -1.2161e-17)
(1.00985 0.00308897 0)
(0.690003 1.45002 0)
(0.629914 1.36855 0)
(0.764096 1.23897 0)
(0.680503 1.28782 0)
(0.983228 2.10355 3.10613e-17)
(0.930558 1.9325 0)
(0.684152 1.89982 -1.12216e-18)
(0.681398 2.01791 0)
(0.703931 2.05877 7.44482e-17)
(0.768373 2.01572 7.50828e-17)
(0.805942 0.14919 0)
(0.789678 0.152636 7.8208e-20)
(0.886581 0.136835 1.78162e-17)
(0.840764 0.114378 -3.36137e-17)
(0.849358 0.0847482 -9.67519e-18)
(1.0189 0.253421 -3.95359e-17)
(0.897765 0.304779 3.06645e-17)
(0.851511 0.290868 3.49914e-17)
(0.946864 0.233379 2.02631e-17)
(0.890912 0.165828 3.1675e-17)
(0.871187 0.193312 -1.03723e-17)
(0.863333 0.265683 -1.33605e-18)
(0.850306 0.225808 0)
(0.947935 0.202942 2.92235e-17)
(0.989594 0.182634 0)
(0.981726 0.252338 0)
(1.05378 0.126423 -1.01807e-17)
(0.999901 0.182827 3.37434e-17)
(0.993838 0.213637 2.11651e-17)
(1.03828 0.201154 0)
(0.994942 0.0266118 -3.29981e-17)
(1.00682 0.0350813 4.08274e-17)
(1.00821 0.0352143 -3.4179e-17)
(1.00709 0.0559224 4.07664e-17)
(0.983487 0.049641 -6.71185e-17)
(0.94584 0.145035 0)
(0.955017 0.0704085 0)
(0.945499 0.0555777 4.29922e-17)
(0.921602 0.0535419 1.10729e-17)
(0.989632 0.0978779 -3.43152e-17)
(1.01582 0.128071 -3.75812e-17)
(1.00999 0.150062 -1.92133e-18)
(0.974177 0.148664 0)
(1.01932 0.100686 0)
(1.01182 0.0863994 3.45717e-17)
(0.993198 0.0866336 -3.43557e-17)
(0.568132 1.32563 3.14544e-17)
(0.587461 1.54177 -2.48054e-17)
(0.927378 2.20018 1.68952e-17)
(0.984769 2.4559 -1.55076e-18)
(1.04035 2.17995 -3.96866e-17)
(1.09894 2.22635 9.20815e-18)
(1.09706 1.96631 8.81526e-18)
(1.01276 2.35868 -2.13446e-17)
(1.01292 2.33608 -8.91527e-18)
(1.04933 2.55973 6.11015e-19)
(1.17556 2.43769 5.09215e-19)
(1.24285 2.39125 0)
(0.469422 1.11918 -4.12324e-18)
(-0.189298 1.41471 -1.27324e-17)
(0.01138 0.603276 -3.18387e-18)
(-0.11557 0.834974 -1.38634e-17)
(0.338678 0.454362 -4.54915e-18)
(0.354602 0.509508 -5.34249e-18)
(0.29956 0.605775 1.02586e-19)
(0.202248 0.473053 2.04667e-19)
(0.300724 0.382413 -2.31243e-18)
(0.724049 0.276542 2.33184e-17)
(0.679589 0.302937 0)
(0.701161 0.260494 6.60091e-18)
(0.59896 0.567876 -9.81763e-18)
(0.514069 0.539776 4.01488e-18)
(0.423332 0.583121 -6.31069e-18)
(0.494374 0.492492 0)
(0.568975 0.941746 -2.31258e-17)
(0.73902 0.903213 5.60075e-17)
(0.681479 1.05483 4.97374e-17)
(0.781181 0.929909 1.23307e-17)
(0.894462 0.927354 -5.4139e-18)
(0.895867 0.993011 -5.30711e-18)
(0.780662 0.761187 -1.63108e-18)
(0.843717 0.807271 1.26375e-17)
(0.931594 0.856449 0)
(0.926139 0.732707 2.50248e-17)
(0.951645 0.328957 5.71834e-17)
(1.06073 0.328156 -1.66534e-17)
(0.996922 0.313887 -4.94372e-17)
(0.907139 0.40261 4.65708e-17)
(0.99757 0.453075 0)
(1.02978 0.427711 0)
(0.821388 0.390846 5.40572e-17)
(0.779153 0.29293 0)
(0.776929 0.295933 -1.246e-17)
(0.866664 0.324651 7.36294e-17)
(0.831961 0.49958 -7.10094e-17)
(0.756875 0.554328 5.17873e-18)
(0.797223 0.506695 3.25756e-18)
(0.725195 0.468219 4.23195e-18)
(0.713732 0.478392 -3.31091e-18)
(0.675176 0.453995 -3.87755e-18)
(1.0178 -0.00420095 -4.29961e-17)
(1.00894 -0.0101861 0)
(1.01747 -0.000830669 1.69669e-17)
(1.0091 0.00663979 -2.76106e-17)
(1.01934 0.00363614 -1.98257e-17)
(1.00946 0.0146624 -9.6151e-18)
(1.00698 0.0113284 0)
(1.0087 0.00462252 1.14775e-17)
(1.00957 0.00786465 5.61928e-18)
(1.00482 0.00799598 -6.89458e-18)
(1.00823 0.00313453 1.18843e-17)
(-0.0546964 1.73111 0)
(-0.0694271 1.76594 0)
(-0.0641588 1.67695 0)
(-0.0484289 1.69786 0)
(-0.190671 1.70751 -1.8165e-18)
(-0.170433 1.61515 -1.17813e-16)
(-0.185139 1.81781 -3.64817e-17)
(-0.222659 1.72491 -9.15507e-17)
(-0.144675 1.76829 5.87739e-17)
(-0.13569 1.77235 6.84742e-17)
(-0.169914 1.70227 1.29691e-16)
(-0.148269 1.70382 5.91883e-17)
(-0.108655 1.71842 1.05524e-17)
(-0.105075 1.75711 1.26754e-18)
(-0.151264 1.95129 -7.71779e-17)
(-0.121016 2.02108 0)
(-0.179477 2.01079 -4.29699e-17)
(-0.213712 1.87607 -4.451e-18)
(0.106584 1.98064 -2.02957e-17)
(0.0511516 2.12518 0)
(0.0861942 2.10613 5.49563e-17)
(0.142055 2.10813 5.55826e-17)
(0.00476904 2.00174 -6.97329e-17)
(-0.089928 2.03289 -8.78335e-17)
(-0.0822657 2.08431 0)
(-0.0736762 1.79424 3.24518e-17)
(-0.0481167 1.76094 -2.63102e-17)
(-0.0506239 1.7775 0)
(-0.0482312 1.80936 2.26982e-17)
(-0.107123 1.82483 2.00933e-17)
(-0.021205 1.77826 1.05009e-17)
(-0.0177396 1.77462 -1.11798e-16)
(-0.030603 1.78675 -7.04864e-17)
(-0.0446574 1.77618 5.14744e-17)
(-0.0320165 1.77637 0)
(0.00615901 1.78914 0)
(-0.00982255 1.77936 -4.12301e-17)
(-0.00576953 1.77382 -4.26967e-18)
(-0.00560473 1.78072 0)
(-0.00728206 1.78565 3.66934e-17)
(-0.00862897 1.77988 -5.98079e-19)
(1.01873 0.0323591 0)
(1.02951 0.0248983 -5.82462e-19)
(1.012 0.0238596 4.19812e-17)
(1.02264 0.0158402 0)
(1.01925 0.00770615 0)
(1.02184 0.00546963 2.30865e-17)
(1.01738 0.0114305 -4.9232e-17)
(1.01069 0.00879108 -6.79462e-18)
(1.00693 0.00878521 0)
(1.00815 0.0111412 0)
(1.00886 0.0167962 3.76129e-17)
(1.00258 0.0172375 0)
(1.00661 0.0156598 0)
(-0.00500674 1.78347 0)
(-0.00101106 1.77911 -4.46262e-17)
(-0.00106065 1.77353 4.64962e-17)
(-0.00729129 1.7685 0)
(0.00723 1.78701 -4.16666e-17)
(-0.00713015 1.7734 -2.07534e-17)
(-0.011105 1.76531 0)
(0.475591 1.67266 0)
(0.407656 1.54336 1.92236e-17)
(0.388313 1.57102 0)
(0.484865 1.48291 9.63971e-17)
(0.518215 1.54604 0)
(0.522051 1.5413 3.34803e-17)
(0.812455 2.08616 -4.3127e-19)
(0.773516 1.89355 -3.48643e-17)
(0.731845 1.74793 -1.47525e-17)
(0.66147 1.9054 -7.36039e-18)
(0.672765 2.00582 0)
(0.723068 1.99753 0)
(0.711593 1.9046 0)
(0.703151 1.89614 -8.54286e-18)
(0.561649 2.06811 -4.53429e-17)
(0.646679 1.99277 3.31926e-18)
(0.63766 2.04083 3.45463e-18)
(0.519511 1.93988 0)
(0.592494 1.92873 0)
(0.574715 1.93792 -4.57338e-19)
(0.607164 2.01785 0)
(0.627677 1.24555 0)
(0.569032 1.16604 -7.41051e-17)
(0.556873 1.14309 -6.79191e-18)
(0.589397 1.24911 0)
(0.576786 1.20299 -6.87243e-17)
(0.72089 1.06694 -1.25795e-17)
(0.774096 1.20088 0)
(0.787614 1.11816 -2.8844e-17)
(0.685455 1.20641 0)
(0.614063 1.15591 0)
(0.916608 2.17063 1.12384e-17)
(0.90322 2.2453 -1.36433e-17)
(0.747038 1.99558 -3.79174e-17)
(0.733359 1.96209 -4.68467e-18)
(0.898414 2.13824 0)
(0.844217 2.11929 -3.33258e-18)
(0.889544 1.99543 -8.31448e-18)
(0.841213 1.8215 -8.24285e-18)
(0.525016 1.47776 0)
(0.524347 1.32033 3.11696e-17)
(0.555448 1.37404 0)
(0.821339 0.212131 0)
(0.778193 0.1853 0)
(0.758663 0.195221 0)
(0.804879 0.254607 -1.32977e-17)
(0.748156 0.23267 8.2482e-18)
(0.929059 0.0787668 1.05521e-17)
(0.921398 0.118394 0)
(0.900423 0.0954301 7.18491e-19)
(0.858661 0.080044 9.93595e-19)
(0.865289 0.0546573 -9.4376e-18)
(1.04263 2.72664 -1.29217e-17)
(0.974179 2.62671 0)
(0.934163 2.79922 -5.16303e-17)
(0.587632 3.0066 -3.82824e-17)
(0.715733 2.53072 9.57431e-18)
(0.448037 1.1978 -2.26712e-17)
(0.529405 1.111 0)
(0.234621 0.841996 6.43835e-18)
(0.256129 0.941056 5.06717e-17)
(0.179301 0.81636 9.23746e-18)
(0.254424 0.643638 7.14706e-18)
(0.488885 0.642083 -6.15129e-18)
(0.512279 0.690431 0)
(0.460821 0.790731 0)
(0.351019 0.746687 0)
(0.906958 0.68951 1.35908e-17)
(0.828019 0.603776 3.22447e-18)
(0.842756 0.642513 1.40611e-18)
(0.867304 0.525529 1.80379e-17)
(0.974973 0.55479 0)
(0.97932 0.61923 -1.29379e-17)
(0.774666 0.419187 4.23466e-18)
(0.77427 0.370782 1.84531e-17)
(0.715067 0.39633 8.19843e-19)
(0.713784 0.375628 -2.43363e-18)
(0.759534 0.336902 -1.37492e-17)
(0.737676 0.315203 -1.28404e-17)
(1.02581 -0.000650804 -4.74328e-17)
(1.025 -0.0036175 -2.49105e-17)
(1.02375 -0.00022468 4.69572e-17)
(1.02267 -0.000874069 4.5551e-17)
(1.01782 0.0189676 0)
(1.0025 0.0137526 -3.03483e-17)
(-0.179457 1.83221 2.89285e-17)
(-0.176014 1.81744 0)
(-0.243244 1.86646 -4.50768e-17)
(-0.237036 1.85652 -6.61438e-17)
(-0.232533 1.81204 -3.63147e-17)
(-0.227498 1.82736 0)
(0.0142623 1.79302 0)
(0.0108309 1.78186 -2.10945e-17)
(-0.00206329 1.77162 -2.10385e-17)
(-0.00246431 1.7795 -5.29749e-17)
(-0.013815 1.78451 -1.13093e-17)
(0.0148563 1.78747 -4.28479e-18)
(0.534686 1.4793 -1.26727e-16)
(0.540099 1.51568 -1.30796e-16)
(0.527946 1.49461 7.66866e-17)
(0.540179 1.48784 -4.93526e-18)
(0.647293 1.49193 0)
(0.585939 1.57259 7.68939e-17)
(0.626688 1.53463 7.71794e-17)
(0.54331 1.47549 7.70596e-17)
(0.563643 1.46826 0)
(0.585867 1.41873 0)
(0.573449 2.07727 -4.4597e-17)
(0.519157 2.02132 -6.32265e-17)
(0.554869 2.01924 -6.45017e-17)
(0.460675 2.02687 -3.32334e-18)
(0.456151 2.18425 4.02548e-18)
(0.391804 2.12562 -2.50635e-17)
(0.787233 1.8712 -1.64359e-17)
(0.834281 1.9011 0)
(0.771795 1.74809 -8.87835e-19)
(0.847416 2.08593 0)
(0.817303 2.0886 0)
(0.560351 2.00503 -7.17027e-18)
(0.921515 2.46006 -7.88899e-18)
(0.798749 2.4666 3.46146e-18)
(0.167477 1.24689 0)
(0.206226 1.20206 -1.81716e-17)
(0.440777 1.11582 -4.13741e-17)
(0.377956 1.94842 0)
(0.375271 2.30575 9.82776e-18)
(0.202282 2.28172 0)
(0.598113 0.853896 -2.25005e-17)
(0.630333 0.845304 -4.10095e-17)
(0.648679 0.799206 -3.48883e-17)
(0.48756 0.825609 -2.77463e-18)
(0.562466 0.720681 -2.03519e-18)
(0.837698 2.27243 -7.60855e-18)
(0.890518 2.25319 -1.43689e-17)
(0.648447 1.97611 1.74797e-17)
(0.628091 1.67759 2.6952e-17)
(0.687407 1.74896 3.53471e-17)
(0.845028 2.04259 -3.19265e-17)
(0.847871 2.0453 -1.47795e-17)
(0.710367 1.70623 1.14312e-18)
(0.562538 1.45172 3.75153e-17)
)
;

boundaryField
{
    wall-4
    {
        type            calculated;
        value           uniform (0 0 0);
    }
    velocity-inlet-5
    {
        type            calculated;
        value           uniform (1 0 0);
    }
    velocity-inlet-6
    {
        type            calculated;
        value           uniform (0 3 0);
    }
    pressure-outlet-7
    {
        type            calculated;
        value           nonuniform List<vector> 8((-0.0138197 1.68775 0) (-0.00136924 1.6461 6.11064e-17) (0.00221461 1.76314 0) (-0.0125742 1.79409 0) (-0.00651252 1.77182 0) (-0.000822634 1.77763 0) (-0.0101283 1.76937 0) (-0.008412 1.78054 0));
    }
    wall-8
    {
        type            calculated;
        value           uniform (0 0 0);
    }
    frontAndBackPlanes
    {
        type            empty;
    }
}

