/*--------------------------------*- C++ -*----------------------------------*\
  =========                 |
  \\      /  F ield         | OpenFOAM: The Open Source CFD Toolbox
   \\    /   O peration     | Website:  https://openfoam.org
    \\  /    A nd           | Version:  6
     \\/     M anipulation  |
\*---------------------------------------------------------------------------*/
FoamFile
{
    version     2.0;
    format      ascii;
    class       volScalarField;
    location    "0";
    object      p;
}
// * * * * * * * * * * * * * * * * * * * * * * * * * * * * * * * * * * * * * //

dimensions      [0 2 -2 0 0 0 0];

internalField   nonuniform List<scalar> 
13046
(
0.410169
0.380275
0.392453
0.423431
0.400543
0.373284
0.408886
0.37617
0.40022
0.241006
-0.0998152
0.342779
0.413269
0.324026
0.381682
0.281378
0.338297
-0.0241824
0.419501
0.396409
0.40865
0.275939
0.341623
-0.036406
0.412806
0.404422
0.392437
0.399358
0.331036
0.380403
0.417612
0.354283
0.382456
0.418751
0.405039
0.397133
0.416429
0.409284
0.404005
0.400058
0.375534
0.370539
0.408078
0.421619
0.411232
0.416561
0.407248
0.404431
0.403821
0.372184
0.393352
0.330621
0.384822
0.340864
0.342067
0.333018
0.385637
0.168447
0.357648
0.34329
0.377312
0.270507
0.374989
0.350477
0.079497
0.318223
0.362213
0.18851
0.338827
0.371218
0.208979
0.340155
0.133214
0.348127
0.343005
0.418918
0.407355
0.397813
0.345743
0.332105
0.107845
0.411432
0.394056
0.390322
0.346856
0.0415734
0.298546
0.301887
0.355535
0.0989911
0.3519
0.265347
0.0851619
0.374019
0.364417
0.235822
0.21184
0.361718
0.363186
0.357484
0.302505
0.119144
0.421308
0.409044
0.397328
0.396351
0.356449
0.351992
0.390913
0.364016
0.36215
0.158092
0.339161
-0.254973
0.414233
0.345425
0.380709
0.361221
0.370717
0.188505
0.354445
0.226439
0.356418
0.224478
-0.140854
0.34111
0.397739
0.264474
0.374823
0.400752
0.374704
0.363339
0.353916
0.276054
0.127535
0.348292
0.166047
0.359486
0.41343
0.341898
0.376347
0.39432
0.355768
0.387697
0.384016
0.347676
0.368406
0.396313
0.374747
0.370269
0.375713
0.243107
0.372674
0.4075
0.389628
0.372244
0.303619
0.3382
0.28735
0.3367
0.378343
0.376232
0.397348
0.323859
0.387426
0.234088
0.343785
-0.089342
0.186867
0.339978
-0.216881
0.342549
0.138467
0.356734
0.399198
0.316735
0.364864
0.397705
0.390364
0.336555
0.347194
-0.0392255
0.247463
0.398695
0.336422
0.358583
0.404619
0.37824
0.360991
0.39976
0.359876
0.389283
0.308768
0.385726
0.399031
0.29177
0.372888
0.293841
0.351483
0.0532124
0.35766
0.298571
0.139437
0.267283
0.072292
0.352226
0.315981
0.315031
0.374722
0.404281
0.335634
0.338478
0.11164
0.0314571
0.265322
0.350086
0.413833
0.409426
0.399471
0.401214
0.344701
0.37672
0.35771
0.287746
0.147783
0.398791
0.318279
0.389279
0.341847
-0.163435
0.191955
0.373771
0.317628
0.304079
0.284658
0.108418
0.355641
0.358835
0.308639
0.385391
0.387685
0.277389
0.374629
0.205407
0.297275
0.357243
0.325897
0.265551
0.369087
0.34261
-0.171075
0.174911
0.398659
0.365838
0.342168
0.175932
0.336271
-0.302256
0.411356
0.416698
0.389956
0.371266
0.370249
0.305843
0.318484
0.38813
0.379875
0.337001
0.3228
0.0701838
0.393517
0.29802
0.368048
0.325587
0.232863
0.367028
0.350393
0.176413
0.356435
0.410809
0.40433
0.419441
0.35179
0.287763
0.377991
0.394822
0.278772
0.365974
0.398954
0.399492
0.398906
0.354718
0.323026
0.351256
0.265779
0.374407
0.334212
0.353967
0.154947
0.404529
0.363343
0.355869
0.377083
0.322909
0.290307
0.368294
0.214294
0.350659
0.387122
0.335465
0.331359
0.356211
0.355854
0.191663
0.348854
0.175924
0.352195
0.346873
-0.0137495
0.259698
0.374426
0.251212
0.360109
-0.368519
0.336973
0.111829
0.412263
0.402934
0.362164
0.38681
0.290326
0.377147
0.353926
0.308056
0.0922878
0.330563
0.320769
0.382038
0.178401
0.295537
0.357066
0.349885
0.38647
0.374182
0.283901
0.373771
0.334313
0.392125
0.300343
0.340493
0.0134689
0.326876
0.294194
0.376965
0.366296
0.264801
0.367751
0.38678
0.340214
0.39083
0.359495
0.335366
0.390575
0.416502
0.368852
0.395148
0.372583
0.328826
0.300374
0.280675
0.0585926
0.352434
0.186861
0.293194
0.360642
0.368998
0.338272
0.254259
0.344338
0.351446
0.170272
0.137573
0.339756
0.344548
0.33778
-0.342803
0.132913
0.190992
0.336122
-0.275075
0.367493
0.293482
0.374497
0.349567
0.28694
0.0185397
0.368542
0.369545
0.236468
0.212922
0.352813
0.347806
0.346965
-0.0239798
0.223243
0.162364
0.335158
-0.338676
0.400701
0.419191
0.405084
0.15718
-0.294593
0.338877
0.399035
0.309368
0.35745
0.254684
-0.0207677
0.347908
-0.351557
0.341682
0.0604372
0.402826
0.374899
0.382387
0.409707
0.402345
0.40425
0.227021
0.340199
-0.14974
0.404099
0.388092
0.40182
0.404292
0.418452
0.410365
0.376625
0.302331
0.305912
0.397391
0.39949
0.410594
0.415027
0.361971
0.40495
0.373154
0.270446
0.337362
0.341306
0.34429
-0.0441148
-0.051602
0.26551
0.261833
0.259206
0.0360391
0.35034
0.346673
0.368163
0.223642
0.394043
0.356549
0.351926
0.316968
0.255576
0.362589
-0.247367
0.341455
0.0990546
0.350881
0.260115
0.0593441
0.199497
0.340884
-0.177392
0.342745
-0.385795
0.0540969
-0.433463
0.340138
0.084886
0.241989
0.34855
0.367346
-0.112039
0.344361
0.170882
0.334159
0.157408
0.359662
0.261213
0.332858
-0.10991
0.409274
0.386111
0.37061
0.00789343
0.348414
0.239833
0.318877
0.364768
0.267959
0.222305
0.325578
0.367973
0.344492
-0.534914
-0.00440415
-0.331363
0.338807
0.0939196
0.414391
0.39538
0.370793
-0.0371707
0.217083
0.347494
0.345938
0.199048
-0.0486332
0.282157
0.346897
0.0199799
0.340024
0.0712203
0.316217
0.37916
0.265367
0.339739
0.182245
0.360153
0.350441
0.338102
0.30444
-0.000558699
0.398174
0.394448
0.314245
0.294347
0.36657
0.368948
0.398506
0.32467
0.365468
0.37582
0.228799
0.35416
0.204786
0.308294
0.363093
0.019402
0.262287
0.349826
0.360396
0.312716
0.17388
-0.425297
0.338787
0.106084
0.414472
0.413389
0.385794
0.368536
0.392302
0.374628
0.388994
0.378645
0.353962
0.260992
0.353158
0.299374
-0.332977
0.340509
0.0632428
-0.0197388
0.230659
0.34854
0.385102
0.338538
0.324963
0.22845
0.304374
0.361862
0.340376
0.0913961
0.324889
-0.251172
0.142743
0.341289
-0.211216
0.153453
0.341783
0.37431
0.226772
0.356914
0.405793
0.35705
0.367749
0.27315
0.345253
-0.020634
0.224354
0.334496
0.368015
0.353409
0.110474
0.329427
0.380499
0.35649
0.307595
0.365329
0.317691
0.384718
0.399877
0.368686
0.361104
0.345224
-0.0392816
0.257971
0.349739
0.16641
0.353035
0.410375
0.381867
0.380737
0.288055
0.33422
-0.0417682
0.400464
0.352176
0.379346
0.402148
0.355599
0.40015
0.242724
0.337234
0.369537
0.219294
0.334953
-0.211194
0.231974
0.333835
-0.189896
0.35065
0.0997149
0.328194
0.352337
0.325316
0.379561
0.333063
-0.262144
0.195775
0.356493
0.120602
0.323286
0.341806
-0.416611
0.029751
0.066448
-0.462981
0.338862
0.34112
0.0198797
0.309015
0.343828
-0.11047
0.217129
0.287471
0.298753
0.341965
-0.0123357
0.344925
0.0295325
0.313063
0.132462
0.357605
0.367276
0.244272
0.295591
0.422096
0.391283
0.375454
0.324258
0.161993
0.361876
0.363157
0.330346
0.179685
0.313791
0.337719
0.0235105
0.38445
0.241727
0.351196
0.390937
0.294698
0.350935
0.351121
0.232813
0.369016
0.346349
0.220839
0.368237
0.412535
0.375436
0.391415
0.393044
0.281068
0.371331
0.348177
0.0214006
0.232415
0.141126
0.341998
-0.204798
0.12251
0.343361
-0.208096
0.400686
0.372135
0.347438
-0.284686
0.341429
0.113495
0.339985
0.351053
0.126361
0.340736
-0.276736
0.0913701
0.422138
0.404901
0.381485
0.393899
0.30517
0.376549
0.326942
0.350398
0.383402
0.345523
-0.0874575
0.191142
0.218695
0.337856
0.367514
0.334981
0.277835
-0.0626679
0.38195
0.287038
0.374502
0.424041
0.397486
0.380131
-0.0826707
0.20569
0.345199
0.353543
0.100291
0.320623
0.21455
0.197903
0.337781
0.337554
-0.19348
-0.227689
0.382196
0.320419
0.386356
0.25993
0.356675
0.369831
0.401592
0.369336
0.401058
-0.156644
0.162169
-0.148324
0.342703
0.161537
0.342841
0.366859
0.223407
0.367909
0.20339
0.182558
-0.104978
-0.139558
0.345218
0.344513
0.353646
0.279712
0.378578
0.393748
0.32141
0.381188
0.249499
0.335227
-0.134058
0.395375
0.302123
0.383698
0.405605
0.345835
0.393067
0.221803
0.335247
-0.181639
0.386394
0.253378
0.365759
0.285333
0.301387
0.366755
0.38295
0.285993
0.350766
0.151464
0.352819
0.274321
0.342325
-0.496619
0.0191441
0.38219
0.297753
0.377232
0.263451
0.3386
-0.0805615
0.334207
0.278534
0.377762
0.111095
0.335849
-0.392658
0.402483
0.395877
0.36117
0.383348
0.361935
0.381243
0.408182
0.365486
0.402351
0.400479
0.406123
0.369754
0.388417
0.387288
0.381762
0.388393
0.330019
0.390367
0.397857
0.332112
0.390316
0.342112
-0.18376
0.131315
0.401084
0.340769
0.364765
0.221817
-0.085038
0.345074
0.348528
0.339479
0.210869
0.17932
0.364549
0.360875
0.398459
0.364144
0.373064
0.377154
0.255247
0.351804
0.367048
0.249506
0.372182
0.417868
0.400213
0.395874
0.336379
0.182998
0.363485
0.414525
0.381508
0.386103
0.36634
0.276308
0.377629
0.378066
0.272364
0.352482
0.415859
0.414133
0.394529
0.401165
0.398839
0.39505
0.409046
0.371133
0.410588
0.3984
0.399144
0.387855
0.401421
0.401672
0.325815
0.317379
0.373475
0.367301
0.342704
0.0802207
0.325456
0.368847
0.314054
0.297601
0.344953
0.346375
0.048924
0.0588329
0.312382
0.311299
0.382929
0.341435
0.320119
0.417862
0.407596
0.405571
0.334251
0.161743
0.361319
0.410966
0.37773
0.355721
0.376517
0.258972
0.35356
0.344338
0.347445
0.123547
0.347378
0.138166
0.348851
0.355129
0.204463
0.362829
0.13132
-0.355928
0.336364
0.328605
0.296667
0.376802
0.376221
0.380042
0.33689
0.283057
0.349836
0.297074
0.321512
0.194761
0.363423
0.377764
0.276628
0.356154
0.386718
0.335811
0.308708
0.379695
0.391191
0.345892
0.364634
0.325454
0.314051
0.378749
0.354107
0.304476
0.357804
0.218371
0.366711
0.413641
0.384404
0.393926
0.24061
0.338934
-0.123974
0.384871
0.339387
0.295234
0.384693
0.378131
0.25707
0.239786
0.354136
0.359621
0.33946
-0.0850729
0.258236
0.253609
0.337275
-0.118211
0.238628
0.337117
-0.144682
0.338669
0.347856
0.116547
0.383008
0.295019
0.360203
-0.0526617
0.0552119
0.277741
-0.0457634
0.212142
-0.241518
0.140962
0.0243344
-0.126569
0.198436
0.194189
-0.162455
-0.0561802
0.197366
0.0317281
-0.0591617
-0.0253423
0.0105208
0.0508778
0.152069
0.0716311
-8.38465e-05
0.215207
0.331619
0.290115
0.0644177
0.229344
-0.151799
0.0986941
-0.0686515
-0.13606
0.134838
0.0635004
0.0535981
-0.102984
0.081815
0.266045
0.211515
-0.010765
0.103091
-0.0243496
0.337177
-0.0756216
0.195019
0.238903
-0.010127
0.001001
-0.0554615
-0.153927
-0.076257
0.293029
0.0747678
-0.055644
-0.017738
-0.137769
0.286002
0.154139
0.0710623
-0.0624005
0.184563
-0.0812805
-0.0662874
0.291215
0.0445354
0.0698675
0.157725
0.0892783
0.324883
0.213537
0.20116
-0.192149
-0.142355
-0.0153049
0.173929
-0.158734
0.0521677
0.0563987
-0.111921
0.171786
0.24531
0.0107012
0.0565679
-0.145465
-0.0778603
-0.0202176
0.184216
-0.0182339
-0.0331637
0.0263294
0.298289
-0.0604452
0.184968
0.289529
0.0577588
-0.056642
-0.316283
-0.0967998
-0.0500705
-0.0572632
-0.196516
0.12681
0.220041
0.252652
0.328758
-0.0709097
-0.0494142
-0.154826
-0.0448342
-0.0937301
0.263359
0.226291
0.151409
-0.104971
-0.144106
0.116824
0.220072
0.0102627
-0.0325491
-0.206964
0.00229592
0.0482572
0.30728
0.316499
0.178076
0.0749558
-0.00634739
-0.158901
0.312155
-0.0965377
0.170363
-0.20281
0.289803
-0.143284
-0.112003
-0.0714752
0.243228
0.0398289
-0.244731
-0.0793592
0.143182
-0.0652181
0.188716
0.124293
-0.0508638
0.23873
-0.0184721
-0.0873395
0.254983
-0.0743633
0.0176775
-0.159156
0.0867139
-0.0141276
0.249075
0.183513
-0.000406236
0.17381
0.190449
0.273832
0.0606507
-0.0192501
-0.0562136
0.191805
-0.09543
0.101304
-0.146294
0.328352
0.00553907
0.251567
0.309302
0.0794356
0.316952
0.255251
0.271232
-0.110476
-0.210082
-0.161146
0.277771
-0.111603
-0.132457
-0.101343
-0.128887
0.0146904
-0.0188761
0.0844684
0.309827
0.180257
-0.024109
0.18168
-0.0353537
0.332946
-0.144279
0.229506
-0.050345
-0.222174
0.29487
0.312632
-0.0593039
-0.049125
0.327539
0.103071
-0.0121613
-0.0913048
0.174668
0.26313
0.163527
-0.0734452
-0.0612513
0.206742
0.0726597
-0.0943309
0.119787
-0.103524
-0.123714
-0.00565351
0.221556
-0.198969
0.0127004
0.220883
-0.0251182
-0.206364
0.000932662
-0.0518548
-0.0123906
0.123554
0.136319
-0.0776566
-0.138194
-0.0822103
0.155758
0.154828
-0.00193131
0.140686
-0.0120834
-0.110386
0.107388
-0.0228863
-0.227759
0.163651
0.253529
0.0869026
0.295899
0.267561
0.335397
-0.0569159
-0.253441
0.026824
-0.00109191
-0.0170153
-0.189462
0.112598
0.290034
0.170958
0.10277
-0.0851823
0.00430179
0.182186
0.0689547
0.144869
-0.0728317
0.0295145
-0.0270441
-0.117338
-0.0804233
-0.0509405
-0.0591948
-0.110423
0.140787
0.073854
0.00167962
0.150078
-0.0413237
0.0164117
-0.0758467
0.00151583
-0.0333334
-0.040019
0.0972608
-0.188646
-0.262195
0.0350483
-0.168938
-0.202918
0.101736
-0.142625
-0.199965
0.250541
0.146345
-0.0805111
0.173137
-0.128563
0.133886
0.122282
-0.0965598
-0.0499958
0.219357
0.0314729
0.186542
-0.24835
-0.0917949
0.254498
-0.0339765
-0.0709555
-0.287295
-0.186394
-0.218135
-0.177188
-0.0223737
0.148367
-0.113468
-0.21618
-0.0944412
-0.0399027
0.333628
-0.0543866
0.171403
0.109041
-0.123506
0.00701658
-0.08294
-0.145278
0.126481
-0.00978581
0.289233
0.153504
-0.0805608
-0.0173431
0.0777522
0.331433
0.177863
0.267281
0.183868
-0.0203344
0.0850793
0.0143337
-0.103323
-0.182237
-0.0474399
-0.0151842
0.150068
-0.0696072
-0.164406
-0.0528805
-0.000680955
-0.0588896
-0.0270562
0.233991
-0.0197515
-0.0450062
0.280382
0.239097
-0.081963
0.0802298
0.263916
-0.0829272
-0.150083
-0.0142282
-0.110433
-0.143811
0.260169
-0.0903077
0.00970693
0.270441
-0.20401
0.082366
-0.0677774
0.0817006
-0.0118297
-0.0577978
-0.305102
0.00901563
-0.162491
-0.0526148
-0.00776523
-0.00945501
0.177309
0.288901
-0.0594837
0.0744158
0.00244824
-0.0714311
-0.234192
0.225007
0.12253
-0.0465914
-0.164254
0.0998654
-0.163331
-0.0418859
-0.0704777
-0.0936802
0.202454
0.286986
-0.0275046
0.171019
0.32845
0.230759
0.230188
0.274909
-0.0168712
-0.0409428
-0.140512
0.328814
0.21878
0.252041
-0.0616695
-0.022241
-0.212351
0.184085
-0.00871328
-0.0615777
0.252109
0.138828
-0.0875036
0.00570577
-0.0722171
-0.0548585
-0.0703367
-0.0167922
0.00265327
-0.114456
-0.0253495
-0.179661
0.0072332
-0.114539
0.136829
0.0566968
-0.198973
0.266012
0.280461
0.180766
-0.0368477
0.0896725
-0.142751
0.196309
0.0701988
-0.163786
0.261657
-0.193651
0.291592
-0.17318
0.0149892
0.0319969
0.178141
0.200877
-0.0564554
0.307642
-0.0493523
0.236244
0.0154293
0.135064
-0.0371013
-0.063111
-0.0524751
0.242978
0.0291062
0.325722
0.159122
-0.185402
-0.0524015
0.135032
-0.175115
-0.0329529
0.0175016
-0.115732
0.296974
-0.0861553
-0.107854
0.20594
-0.0537721
0.288806
0.319746
-0.0127716
0.326519
0.30417
0.238842
0.257501
0.104413
-0.153643
-0.0808808
-0.00478804
0.223062
-0.00361741
-0.192698
0.305555
-0.113886
0.00984581
-0.089613
0.271899
0.331838
-0.100992
0.231692
0.108633
0.288581
0.0122154
0.189633
-0.00648841
0.308879
0.322629
0.159368
-0.0823576
0.207409
-0.0229953
0.0758456
0.0586881
0.0171939
0.111213
-0.0337727
-0.190122
-0.138011
0.0292078
0.130654
0.0789246
0.25664
-0.098418
-0.0115646
0.133387
-0.134084
0.278858
-0.0665012
-0.00657661
0.271923
0.245288
0.0922716
0.31358
-0.0725189
-0.0223002
0.194983
0.0574733
0.0480883
0.0126824
-0.0500797
0.137403
0.166397
-0.0490426
-0.0699838
0.0897698
-0.187512
-0.118369
0.29011
0.327129
0.324739
0.0252539
0.333371
0.329846
0.301342
-0.237328
0.116937
0.110242
0.313283
-0.02421
-0.057865
-0.156132
-0.0845205
-0.218778
0.305677
0.0278471
0.0378729
0.194323
0.159372
-0.0303925
-0.00862537
0.329168
0.309879
0.266489
0.15654
-0.0450791
0.170276
0.138936
-0.0266342
0.0336773
-0.139483
-0.0881154
0.0649933
0.0409549
-0.0376486
0.290461
0.289469
-0.230677
0.242364
-0.0598871
-0.068728
-0.0110062
0.285462
0.00477848
0.158976
0.0228751
0.269791
-0.0171373
0.0250739
0.322296
-0.213277
-0.19071
-0.0732998
-0.107631
-0.259702
-0.341701
-0.0951827
-0.252689
0.0498741
-0.231957
-0.128164
0.0402957
-0.0646193
-0.0926728
-0.0286342
-0.152622
-0.317597
0.305037
0.234497
-0.0105286
-0.160226
0.240311
-0.03791
-0.0581753
0.320881
-0.0852965
0.319808
0.00720773
0.250144
0.0245536
-0.133776
-0.135726
0.0750477
0.0773602
0.0509947
-0.132973
-0.0100913
-0.123984
-0.105509
-0.0426863
-0.198975
-0.146935
0.302979
-0.0723721
0.166421
0.201768
-0.0220575
0.208077
0.205529
-0.155959
-0.331084
0.015883
-0.181406
-0.252838
0.175029
0.180921
-0.00880095
0.132814
-0.0292184
0.323376
0.301944
0.0146929
-0.0402594
0.3108
0.257839
0.123635
0.12186
-0.021377
0.326182
0.0669126
-0.232925
0.273321
0.229945
0.291064
0.0801852
-0.0794477
-0.0149801
0.183592
0.129647
-0.398046
0.338687
0.0130936
-0.0784066
0.0653545
0.253172
0.320437
0.323836
0.131525
0.0412762
0.21078
0.260842
0.275018
0.167534
0.225128
-0.114751
-0.061634
0.0978726
-0.139651
-0.119037
-0.198723
0.0100944
0.206783
-0.180994
0.0637692
-0.0507651
0.222776
0.323655
0.0244299
-0.155521
-0.21144
0.182972
-0.0470253
-0.0894921
-0.206945
0.280622
0.0964392
0.109834
-0.170989
0.112362
-0.0881309
-0.0674144
0.180312
0.202466
0.28693
0.330599
-0.0942115
0.263527
-0.229912
0.276584
0.289326
0.290239
0.212357
-0.115838
-0.115399
-0.0044695
-0.233707
0.0606073
-0.203061
0.108028
-0.16359
0.247892
-0.0212828
-0.219344
0.24531
0.19004
0.0233999
0.0330951
0.162823
0.283814
0.0977576
0.0509746
-0.224353
0.230302
0.0759426
0.308655
-0.253899
0.0434275
0.27483
0.181866
0.313972
0.188761
-0.00823045
-0.277671
-0.22286
0.0327736
-0.187352
0.304988
-0.229097
-0.0329899
0.0213585
-0.0894102
0.212775
-0.249294
0.272915
0.185455
0.113739
-0.186509
0.139514
-0.0698212
-0.00687879
0.0304178
0.0224971
-0.0235539
-0.0427736
0.209906
-0.11186
0.332738
-0.0315692
0.0413019
0.15192
0.180335
0.303316
-0.0222534
0.00536525
-0.0929992
0.0373567
-0.0468791
0.29793
-0.0857928
0.0587659
-0.0232812
0.231846
-0.0721297
0.0767088
-0.150487
0.324724
-0.237126
-0.116859
-0.0269563
0.23857
-0.213637
-0.19973
-0.125335
-0.164286
0.288271
0.0494432
0.165493
0.250145
0.146694
0.065848
0.325024
0.0584141
0.188109
0.141636
0.0760125
-0.198491
0.0881616
0.0295467
-0.0359383
0.0906149
-0.0954034
-0.185982
0.0751137
-0.00592806
-0.112945
0.224828
0.0429268
0.157262
0.0241261
0.301171
0.0189255
0.0187239
0.141927
-0.168008
-0.095632
-0.0227708
0.0744933
0.0972428
0.130527
0.284222
0.176107
0.220624
0.0801637
0.263788
0.306995
0.302643
0.0871766
0.0594606
0.107494
-0.149032
0.316543
0.256393
0.234987
0.0502969
-0.116689
-0.195787
0.107948
0.18113
-0.0734367
0.233232
0.253998
0.128874
-0.0574454
0.0789392
-0.0376226
-0.0656248
0.0525841
-0.0495384
0.110018
-0.20656
0.113826
0.0343664
0.015982
-0.246689
0.0949331
0.0663447
0.158315
-0.024915
0.100699
0.28208
0.296353
0.112134
0.0111773
0.222321
0.0746059
-0.0903085
-0.0924483
0.00782239
-0.172404
0.283347
0.0404623
0.0882028
0.185673
0.171324
0.131872
-0.100785
0.329493
0.14015
-0.0800088
0.046956
0.060365
0.221839
0.276052
0.142606
0.117291
-0.210997
-0.111469
0.0165218
0.124828
0.060665
0.11276
-0.0595613
0.29254
0.121698
0.208298
0.26205
0.0915211
-0.0735612
0.0715269
0.316359
-0.055154
-0.219746
0.0688938
0.324629
-0.0397401
0.00863645
0.21158
0.180477
0.239816
0.0463986
-0.20718
0.122481
-0.156735
-0.0320051
0.239487
0.0359705
-0.1423
-0.0799977
-0.0435623
0.136926
-0.0250665
-0.0457929
0.267679
-0.0750015
0.326016
0.235501
-0.161158
-0.266601
0.0427019
0.190068
0.258915
0.0434926
0.0167715
-0.0674662
-0.00288622
0.0218185
0.330792
0.275048
0.189434
-0.0157226
-0.195016
0.282421
0.328593
0.291476
0.222247
0.270756
0.0655482
-0.148436
-0.239131
-0.218436
0.300961
0.0637762
-0.0793165
-0.004255
0.327038
-0.0219051
-0.0577392
-0.176132
0.0471064
-0.0983182
0.330773
0.124385
0.184324
0.27068
0.253707
0.000566767
0.144898
0.0624769
0.168002
-0.0658878
0.129489
-0.0592771
0.296561
-0.122483
-0.0389858
-0.0838188
-0.00545492
0.280104
-0.0129185
0.236751
0.263959
0.273219
-0.132093
0.058684
0.0167015
-0.0608934
0.289145
0.0791723
0.0848373
0.119113
-0.226097
-4.93781e-05
0.291294
0.151211
0.293882
-0.229041
-0.117054
-0.015374
0.302713
-0.0555534
0.0285913
-0.112549
-0.100061
-0.00956135
0.300048
0.0142321
0.022734
-0.172564
0.327088
0.316969
-0.225396
0.288571
-0.0236366
-0.130005
-0.112719
0.0579744
-0.179364
0.1316
-0.01691
-0.0355769
0.000447299
0.2647
0.0451296
0.236082
0.0062716
-0.128956
-0.000598957
-0.230665
-0.197091
0.0302299
-0.0131967
0.0948425
-0.115013
0.0264113
0.258611
0.12303
-0.0352813
-0.141941
0.26932
0.0475295
0.0306372
0.33608
0.0917423
-0.0416023
-0.0285899
-0.0903036
0.309253
-0.0350636
0.0322942
0.13528
-0.170306
0.276356
-0.113486
0.263829
0.0542332
0.203625
-0.108045
0.215893
0.0225954
-0.157552
-0.0936006
0.0527023
0.280699
-0.271849
-0.0664702
-0.0314816
0.30744
0.328157
-0.0752683
-0.0505148
0.126454
0.310643
0.0165994
0.287061
0.256256
0.232387
0.203541
0.100678
0.156714
0.140545
0.292432
0.0309762
0.0733421
-0.074486
-0.052217
0.0304562
-0.105083
0.309494
-0.105747
0.283663
0.0211651
0.302465
-0.0527113
0.316409
0.199888
0.257636
0.304147
0.28108
0.334088
0.0021037
0.265569
0.0509618
-0.0170334
-0.0651821
-0.113505
0.293849
-0.104215
0.123904
0.137483
0.0158855
0.12524
-0.0664652
0.291335
0.0708453
0.212741
-0.242068
-0.0823514
-0.00911297
0.335326
-0.0656125
0.157367
-0.045953
-0.00784563
-0.145015
0.00904715
-0.0207134
0.227757
0.297796
-0.180014
0.115924
-0.0145222
-0.0450184
0.244167
-0.0704554
-0.0545972
0.312063
-0.216698
0.0869098
0.183354
0.276868
0.321391
-0.0448177
-0.068632
-0.165246
-0.0169325
-0.0602794
-0.0167263
0.200166
-0.0303635
-0.148589
0.0211614
0.0593871
-0.0328567
-0.0513011
-0.0330444
0.0604613
-0.159859
0.216361
0.202404
-0.0309838
0.213474
-0.128897
-0.180468
-0.0696053
-0.215024
0.31256
-0.0166508
-0.0244825
-0.0627952
0.252755
0.290979
0.0907452
0.205591
-0.0491206
-0.0803841
0.0637631
-0.0214589
-0.0697314
0.291889
0.103138
0.153453
0.315261
0.224305
0.0452043
0.304872
-0.18524
0.0956654
0.0893129
0.134048
0.00212701
0.29921
-0.0320497
0.126768
0.04424
-0.033131
-0.104822
-0.0608838
0.200074
0.247217
0.268076
0.0695325
0.0913001
0.303549
0.222053
0.030564
0.0917609
-0.136803
-0.000852288
0.232955
-0.182487
0.260942
-0.0255674
0.273974
0.331902
0.295629
-0.0375182
0.257486
0.257877
-0.158264
0.302059
-0.043706
0.30066
0.227764
-0.0132321
-0.118197
0.10481
0.00410917
-0.00490729
-0.0551622
0.225639
-0.0281007
0.306945
-0.121622
-0.0449155
-0.0629996
-0.122625
-0.0240684
0.24641
0.322747
-0.127687
0.20697
0.0673704
0.127393
0.0201025
0.124431
0.285025
0.233101
-0.0222245
0.277093
0.242914
0.320087
-0.123993
-0.0538109
-0.0564749
0.20684
0.312082
0.250768
0.0327417
0.316289
0.048977
-0.177092
-0.120241
-0.271989
0.0373772
-0.14866
0.320497
0.326578
0.0899299
0.337335
0.235774
0.0845057
0.312366
-0.14027
0.297627
-0.00301636
0.291086
-0.0159036
-0.113454
0.201322
0.0954841
0.300621
0.285075
0.289149
-0.0927918
-0.0946253
-0.202457
0.26124
0.23078
-0.0766719
0.0637067
0.233231
-0.228167
-0.0518606
-0.0970788
-0.0155412
0.122786
-0.0206357
0.0897749
0.191168
0.0734157
0.091093
0.204755
-0.0204237
0.000366113
0.122787
0.0777347
-0.0146787
0.266402
0.302285
-0.0763056
0.227585
-0.239424
-0.0594014
0.274736
0.217556
-0.0346488
0.293668
-0.141139
0.201273
0.00833316
0.012167
0.274139
-0.01151
0.213129
0.20175
0.168443
0.330582
0.175187
-0.164706
0.142964
0.0337965
0.215267
0.328905
0.162559
0.0473419
-0.0708849
0.0146914
0.275914
-0.131065
0.247547
-0.0845048
0.111746
0.224944
0.204221
0.0640048
0.26994
0.315554
-0.00553547
-0.0182718
0.0885719
-0.0980523
-0.15021
0.0944776
0.202186
-0.0890297
-0.167668
-0.063978
-0.168717
0.19628
0.0446564
0.220033
-0.0507504
0.291622
0.0731964
0.257355
0.322878
-0.0745135
0.282219
-0.00917433
0.0926357
0.0673137
0.26415
-0.05694
0.0124477
0.0744934
-0.108769
-0.0115707
-0.116883
-0.147299
-0.238529
0.31539
0.329185
-0.0918907
-0.0488828
0.209706
-0.190137
-0.0710581
-0.0196017
0.183384
0.195921
-0.203881
-0.24217
0.285161
-0.0484557
0.12553
-0.0526053
-0.173294
-0.119069
0.0993164
0.257651
0.122322
-0.184375
0.293259
0.255161
-0.0874853
0.122622
-0.0286474
0.324087
-0.00805473
0.0224509
-0.152867
0.164089
0.303539
0.13646
0.0943731
-0.0679645
0.0409983
0.127661
0.312792
0.336268
-0.0591717
0.317765
-0.0585623
0.104338
0.10555
0.0300889
-0.0321643
0.264052
0.00462981
0.0987579
-0.0849177
-0.0770406
0.0135365
-0.10979
0.169214
0.29238
-0.0893749
-0.0517726
0.096161
-0.0263854
-0.0548598
-0.236325
-0.0248572
0.263436
-0.175709
-0.0449217
0.192629
0.0961629
0.0343633
0.157663
0.245964
-0.0848072
-0.0758288
0.24778
0.0220404
-0.0853146
0.0548646
0.26169
0.158683
0.106173
-0.053588
-0.0684611
-0.0663324
0.31429
0.249952
0.324308
0.0280745
0.177359
-0.134356
0.0630199
0.25891
-0.181771
-0.170837
0.20239
0.25398
-0.188737
-0.0403564
-0.0547526
-0.0912116
-0.0577233
0.335086
0.0195587
-0.0453329
0.0940944
-0.0706284
0.199096
0.106853
-0.143413
-0.03468
0.223961
0.0378781
0.316139
-0.154164
-0.0500119
0.149199
0.128904
0.0311647
0.127861
-0.10727
0.32045
0.295158
0.153167
0.26927
-0.0834904
0.265089
0.155765
0.144652
0.305517
-0.189458
-0.0342384
0.32611
0.15942
-0.199807
-0.0438975
0.241738
0.32292
0.0604681
0.21108
-0.0567163
-0.157858
-0.0891463
-0.207286
0.258969
-0.0645299
0.0738427
0.307618
-0.0794527
-0.0811224
-0.0641012
0.0866445
-0.0447638
-0.0362375
-0.067861
-0.128976
0.0400489
0.231035
0.303114
0.185335
-0.0168196
-0.0365345
-0.213151
-0.0433033
0.143947
0.120808
0.166551
0.197
-0.0354147
0.0462868
0.242144
0.257531
0.323609
0.275753
0.3086
0.0417332
-0.143988
-0.0909488
-0.126472
0.313584
0.0863749
-0.0584714
0.303938
-0.135717
0.236074
0.197857
-0.0334949
-0.0507415
-0.0338947
-0.061414
0.254741
0.00496643
0.184521
0.0521423
0.30048
0.116923
0.330851
-0.0959583
0.0540861
-0.0537047
-0.247427
-0.0215607
0.219479
-0.0952661
-0.245785
0.105103
0.293766
0.216723
-0.0630781
-0.152575
-0.0835596
-0.13413
-0.0481684
-0.132663
0.0278101
-0.119019
0.20445
-0.0955538
-0.0482682
0.282037
0.0502921
0.153396
0.245789
0.0171552
0.0730025
-0.0970199
0.218461
-0.00163892
-0.0257491
0.026808
-0.111548
-0.161241
-0.05322
-0.0515349
0.214619
0.324022
0.264367
0.109017
0.190834
-0.182092
0.317951
0.113921
0.20077
-0.047011
0.194414
-0.0396645
-0.0151942
0.234553
0.30089
0.218564
0.112721
-0.00766217
0.328271
-0.00630883
0.235844
0.311559
0.172777
0.00893723
-0.188282
0.236526
0.103449
-0.121824
0.158007
0.0953216
0.297613
-0.0688277
0.30853
0.324628
0.021972
-0.0933986
0.309648
-0.14696
-0.114674
-0.0145843
-0.118987
-0.0250888
-0.107903
-0.151338
0.0496375
-0.0443008
-0.0874702
-0.0367255
0.119353
-0.0658441
-0.0766614
0.150666
0.0742474
-0.169854
0.291214
0.328212
0.312679
-0.0555906
-0.181212
0.334553
-0.158417
0.0369602
-0.0635819
-0.0180895
-0.0473045
0.201542
-0.0268275
-0.0294619
-0.170543
-0.183226
-0.119881
-0.0237494
-0.194315
0.0592423
0.0987173
0.0461476
0.300653
0.0919917
0.163015
0.0104418
0.250827
-0.0236654
-0.0171597
0.342429
-0.0118155
0.0949945
-0.148902
0.174257
0.324993
0.00424842
0.134413
0.0972664
-0.0477164
-0.0604848
-0.0833066
-0.115763
0.20751
-0.108737
0.0205754
-0.029905
0.0235816
-0.0822915
-0.0810797
0.0367238
-0.00354446
-0.0452228
0.326689
0.0413313
0.00933671
0.107633
0.298244
-0.0149712
-0.179382
0.22654
-0.144825
0.00332314
-0.0538764
0.0486183
-0.0396577
0.00496718
0.0493987
0.320844
0.261894
-0.171098
-0.0462042
-0.184071
-0.0627523
-0.202525
-0.110263
-0.0178835
-0.0970474
-0.0118657
0.147649
0.334732
-0.0233402
0.194955
0.0706618
0.313565
-0.0298806
0.326482
0.138382
-0.136865
0.141325
0.205385
-0.0217616
0.255442
-0.0536252
0.269808
-0.0576409
-0.232806
0.0446059
0.332622
0.326391
0.207491
0.152066
0.183385
-0.174641
-0.0509728
0.182396
0.330975
-0.20929
0.0498359
-0.0510701
-0.0255402
0.0259876
-0.0814887
-0.132418
-0.05927
-0.114417
-0.0429032
-0.0103936
0.0249053
0.329689
0.253467
-0.204025
0.228898
-0.0953566
-0.0900175
0.236956
-0.0600139
0.00186061
0.169551
-0.175774
-0.0812873
0.0582679
0.263269
-0.128933
-0.070806
-0.00260888
0.143562
-0.12696
0.299862
-0.185109
-0.0219268
-0.00073044
-0.0662627
0.152283
0.147277
0.299439
-0.0595181
0.214712
0.0994253
0.137648
-0.0622166
0.150945
-0.103292
-0.139915
-0.225828
0.111878
0.0415197
-0.0002316
0.278495
0.0513852
0.0983513
0.14753
-0.0853037
-0.110384
-0.0203163
0.117376
-0.0509357
0.334484
-0.1468
-0.184888
-0.0156266
-0.0267823
-0.0490725
-0.0553921
0.194279
-0.0165439
0.0523722
-0.127459
-0.0501439
0.0468246
-0.110488
0.328359
0.316438
-0.120977
-0.0841369
0.2572
0.0735099
-0.0744329
-0.152706
-0.0716216
-0.123147
0.0956976
0.288168
-0.0731691
-0.175093
0.146281
0.0417523
-0.183742
-0.125715
0.0397023
0.187657
0.336383
-0.137283
-0.185779
0.117174
0.258827
0.00635182
0.10064
-0.00781213
-0.0547622
-0.0164297
0.142869
0.0361827
-0.0540108
0.229502
-0.00431772
-0.221363
0.0893764
-0.0495062
0.235286
0.330169
-0.0457023
-0.0273927
-0.0251784
-0.0267049
-0.136443
-0.0155456
-0.123332
0.304104
0.240911
0.185409
-0.0156294
-0.167356
0.220318
0.317441
-0.0778969
0.0835906
-0.0356238
-0.239194
0.0661739
-0.0213527
-0.240524
-0.0447644
0.146186
-0.141064
-0.181089
-0.118355
0.237054
-0.154952
0.229473
0.0368909
-0.0653324
-0.00889281
-0.0905018
0.236058
-0.213286
-0.01627
0.0137105
-0.141934
0.100647
0.181968
0.113498
0.0421229
0.212998
-0.125827
-0.12258
0.28561
-0.0592299
0.27997
0.118349
0.00491219
0.10126
0.264867
0.0418341
-0.186323
0.298783
-0.0656085
0.0155157
0.266396
-0.077545
0.310197
-0.0727751
-0.00168446
-0.167296
0.000211455
-0.115643
0.0554139
-0.114773
-0.219392
-0.127387
-0.125632
-0.233156
0.288324
-0.125997
-0.0063938
0.108602
0.0510167
0.31922
0.32183
-0.0431999
0.0530588
0.240959
-0.056308
0.289344
-0.219872
-0.00908811
0.0871453
-0.0745497
0.246122
-0.0346961
-0.0251589
-0.0365229
-0.0761396
-0.0572952
-0.216156
0.269139
-0.30681
0.304738
0.187254
-0.112966
-0.180363
-0.11567
0.336891
0.188811
0.153847
0.0363992
0.103982
0.0158069
0.266573
0.221216
-0.0875974
0.134541
0.30845
0.0268484
0.0795821
0.143753
-0.19791
-0.126305
0.232653
-0.0103808
0.0248632
0.310527
-0.133051
-0.215509
-0.0635941
0.0240219
0.0263935
0.324083
-0.0749856
-0.162285
-0.0792394
0.0206658
-0.06973
0.2784
0.0455501
-0.111023
-0.0361187
-0.078729
-0.0789541
-0.0227103
0.137996
0.0720824
-0.0965558
0.276973
-0.015375
0.242875