/*--------------------------------*- C++ -*----------------------------------*\
  =========                 |
  \\      /  F ield         | OpenFOAM: The Open Source CFD Toolbox
   \\    /   O peration     | Website:  https://openfoam.org
    \\  /    A nd           | Version:  6
     \\/     M anipulation  |
\*---------------------------------------------------------------------------*/
FoamFile
{
    version     2.0;
    format      ascii;
    class       volScalarField;
    location    "0";
    object      p;
}
// * * * * * * * * * * * * * * * * * * * * * * * * * * * * * * * * * * * * * //

dimensions      [0 2 -2 0 0 0 0];

internalField   nonuniform List<scalar> 
918
(
0.217101
1.12296
0.00324004
0.21072
0.00054067
1.0918
-0.659813
0.413972
0.194535
-0.110722
0.0231387
0.190406
0.942785
0.702845
-1.45591
0.0278049
0.353236
-0.749543
0.174665
0.016503
0.618243
0.207702
0.208136
0.195625
0.243445
0.698546
0.820939
0.00192172
0.000232842
0.00252391
-0.0034868
-0.00175976
0.00350589
0.965003
1.01138
1.03005
0.169375
-0.42094
-0.498899
-0.601769
-0.531042
-0.739528
0.394713
0.397858
-0.456587
0.420218
0.443694
0.182908
0.19256
0.191091
0.200586
0.195362
0.19746
0.272447
-0.131632
-0.201606
-0.0472462
-0.0281046
0.0803947
0.0249201
0.0375563
0.0265678
0.0355441
0.131895
0.182764
0.18083
0.19288
0.20039
1.0486
1.01994
1.04295
0.96944
0.986558
0.916036
0.889683
0.725495
0.750353
0.688472
0.678373
-1.97336
-2.97352
-0.837251
-0.534553
0.00434496
0.0305659
0.0148286
0.342326
0.347266
0.351123
0.366563
0.672988
-0.65828
-0.857382
0.189824
0.186619
0.197128
0.197644
0.178427
0.187191
0.0214506
0.0253581
0.00891613
0.0128561
0.0176821
0.573932
0.54822
0.181381
0.176352
0.211473
0.221003
0.210634
-0.0278888
0.247288
0.282915
0.504037
0.681467
0.676716
0.678407
0.79263
0.758156
0.850812
0.871367
0.00721294
0.00173677
0.0147647
0.00723677
0.018058
0.159671
0.156263
0.178191
0.176567
0.170856
-0.410566
-0.451878
-0.351297
-0.244892
-0.447256
-0.542758
-0.711175
-0.618955
-0.85463
0.738851
0.374402
0.378932
-0.414121
-0.359528
-0.495034
-0.340032
-0.420821
0.172431
0.178415
0.175764
0.177199
0.182446
0.185105
0.1944
0.191106
0.193275
0.292145
0.348601
0.236639
0.220251
-0.425236
-0.208352
-0.390098
-0.0228733
-0.00689867
0.0953414
0.11872
0.0785214
0.0791824
0.012801
0.0250063
0.0102135
0.0356947
0.0302107
0.121191
0.115123
0.138612
0.148723
0.174041
0.179907
0.175846
0.176605
0.837394
0.862339
0.870411
0.847818
-3.99217
-6.54137
-0.134791
0.0229084
-0.000238881
0.00135609
0.00150364
-0.00071015
0.00355915
0.000878105
0.0543909
0.0416904
0.0289644
0.0373266
0.324174
0.328906
0.659743
0.71844
0.608887
0.589787
0.182459
0.181946
0.183372
0.172778
0.0273527
0.0268529
0.0211196
0.45152
0.507428
0.487328
-0.0708587
-0.152736
0.0211738
0.0444749
0.310583
0.293683
0.300765
0.562069
0.60717
0.887508
0.911669
0.895363
0.913663
0.961025
0.980654
0.94667
0.1499
0.151547
0.148206
0.182114
0.175789
0.176666
0.17329
0.176679
0.179906
-0.532566
-0.758281
0.414756
0.246896
-0.0899308
0.0818425
0.72782
0.776316
0.360396
0.370898
0.37658
-0.293283
-0.366673
0.191579
0.165793
0.0689869
0.104037
0.0830733
0.814182
0.775228
0.826332
0.799814
0.762692
0.786147
-0.619206
-2.31094
-1.2255
0.441564
0.222419
0.318146
0.0655449
0.0552788
0.0521515
0.706549
0.760212
0.377554
0.495193
0.47778
0.637992
0.674695
0.732457
0.656922
0.696754
0.734418
0.713602
0.660831
0.516127
0.618347
0.765576
0.797376
-0.173457
-0.255191
-0.286908
0.126389
0.147434
0.127411
0.738295
0.750722
0.762164
0.177899
0.187507
0.0127448
0.0205063
0.192224
0.185761
0.00378163
0.00348275
0.325908
-1.37003
-0.156792
0.18647
0.17681
0.192879
-0.0471477
0.248427
0.0311342
0.0938426
0.0679877
0.178474
0.13882
0.109836
-0.000491914
0.0169972
0.0165985
-0.291991
0.178718
0.175011
0.191806
0.190468
0.193435
0.00804662
0.0112155
0.0050487
0.0147886
0.0168113
0.0140233
0.163469
0.170863
-0.222371
0.186442
0.190035
0.190429
0.188173
0.192214
0.194941
0.0147701
0.0109813
0.00831866
-0.0480188
0.0547397
0.572349
0.68028
0.536397
0.327353
0.0590916
0.482577
0.542462
0.442299
0.60724
0.351107
0.394519
-0.0567785
-0.181199
-0.116283
-0.152269
0.179682
0.17936
0.170466
0.169148
0.178647
0.189979
0.177263
0.188286
0.185948
0.182493
-0.0102905
-0.0209202
-0.0719605
-0.12879
0.281142
0.329382
0.201814
0.222054
0.143848
0.0384856
0.0310996
0.0304089
0.0213519
0.064401
0.0691383
0.0747952
0.0733573
0.0510987
0.0538204
0.0606456
0.0619022
0.0656681
0.17791
0.174882
0.180984
0.187769
0.142261
0.149231
0.12324
0.137569
0.120663
0.0857882
0.0972094
0.0819287
0.00464769
-0.000817432
0.00186518
0.013267
0.0315152
0.0251268
0.0135452
0.0142366
0.0101035
0.00978904
0.0238212
0.0290568
-0.247682
-0.362581
0.628171
0.540275
0.314633
0.186675
0.184661
0.178251
0.168947
0.18393
0.196868
0.194
0.181538
0.174548
0.175663
0.171579
0.171359
-0.101952
-0.275215
-0.11468
-0.234268
-0.413856
0.292085
0.0490486
0.0249966
-0.0152664
0.183882
0.731502
0.602779
0.65431
0.619687
-0.755359
-0.108963
-0.56607
0.129297
-0.11129
0.574366
0.627002
0.653897
0.59616
0.547797
-0.393145
-0.0306304
-0.230566
-0.180394
-0.101952
-0.15879
0.518033
0.337125
0.347911
0.38618
0.424769
0.343937
0.317954
0.317949
0.365489
0.370271
0.135174
-0.048917
-0.0639598
-0.127143
0.336566
0.194625
0.241117
0.177861
0.17811
0.178924
0.182729
0.171798
0.170108
0.177299
0.17242
0.175269
0.185317
0.176613
0.180124
0.186873
-0.0132822
-0.0133136
-0.07086
-0.188243
-0.178046
-0.243436
-0.115739
0.144351
0.106769
0.286746
0.379752
0.0661226
-0.0944605
-0.0580134
0.0137243
0.141127
0.143092
0.103717
0.159636
0.165285
0.140288
0.197049
0.189788
0.0434378
0.0569272
0.040741
0.0313379
0.10297
0.115985
0.115228
0.0464048
0.0484655
0.037438
0.0376701
0.0709173
0.0522285
0.0613179
0.0719185
0.0178742
0.0178594
0.032468
0.037862
0.0336628
0.0360173
0.173205
0.173001
0.179611
0.189323
0.189335
0.210297
0.18604
0.156253
0.150373
0.151298
0.141699
0.156697
0.147035
0.161466
0.163088
0.174654
0.170271
0.173105
0.165258
0.158863
0.164247
0.172984
0.132043
0.108171
0.109994
0.0159564
0.016119
0.0239923
0.0136733
0.0114271
0.011032
0.0476161
0.0375808
0.0387233
0.0370355
0.0456938
0.0243199
0.0249773
-0.100867
0.0182329
-0.218006
-0.275711
-0.334477
0.613791
0.672555
0.534071
0.461805
0.475289
0.559058
0.589341
0.371466
0.461534
0.447648
0.643523
0.698164
0.166048
0.175184
0.178641
0.174435
0.176273
0.02508
0.088825
-0.023427
-0.00580563
-0.220818
-0.293109
0.416278
0.457212
0.465263
0.320038
0.279963
0.299637
0.238807
0.274151
0.279407
0.110089
0.178694
0.232653
0.176001
0.219904
0.242855
0.208458
0.235758
0.192427
0.161342
0.155034
0.102277
0.123433
0.107327
0.0908244
0.170965
0.158611
0.158613
0.155365
0.178097
0.212244
0.198627
0.211133
0.229916
0.162364
0.138754
0.141533
0.157618
0.131433
0.130578
0.144359
-0.0986833
-0.0956161
-0.223816
-0.762142
-0.580392
-0.458072
-0.567996
-0.671357
-0.416773
-1.07741
-0.776772
-1.37948
-0.296583
0.780366
0.498838
0.571276
0.429297
0.397526
0.401989
0.471096
0.469828
0.32455
0.327177
0.338216
0.258595
0.302279
0.355508
0.344146
0.01769
0.0642567
-0.00324244
0.0349901
-0.088598
-0.0584544
0.107688
0.0747804
0.0165335
0.0233806
0.13919
0.0224575
0.0867462
0.140385
0.130349
0.0640729
0.221651
0.290698
0.272182
0.253659
0.172842
0.182259
0.208633
0.246768
0.264848
0.296798
0.165881
0.174402
0.180726
0.173383
0.167521
0.173385
0.174633
0.176398
0.176081
0.179767
0.181606
0.0255319
0.0336826
0.0119972
0.0243014
0.0367533
0.00211183
0.0540345
-0.00751061
0.0454959
0.0500685
0.0369914
0.00815747
0.0164749
0.0304747
0.155915
0.175363
0.183719
0.135074
0.219363
0.351151
0.375361
0.323778
0.209994
0.246708
0.301408
0.0752657
0.0918921
0.0753878
0.0986863
0.085591
0.0384891
0.0362053
0.0348558
0.0429053
0.0420787
0.0345936
0.0299435
0.0267304
0.0315989
0.0361504
0.0334597
0.157685
0.148432
0.138136
0.127672
0.132441
0.154775
0.160181
0.162689
0.170087
0.173294
0.164158
0.171746
0.17253
0.0361464
0.0210605
0.0238519
0.0265384
0.0198495
0.0291412
0.0297424
0.269087
0.124004
0.237579
0.0846994
-0.151818
-0.063766
0.434007
0.575033
0.545217
0.650184
0.587738
0.550902
0.581437
0.679764
0.398315
0.550463
0.488377
0.649314
0.645592
0.690825
0.558277
-0.0609503
-0.673014
-0.38396
-0.267113
-0.63099
-0.0661716
-0.0719602
-0.0774999
-0.126807
-0.20952
0.0310437
0.0812846
0.182031
0.383854
0.0998378
0.29019
-0.105044
-0.0267211
0.261327
0.104647
0.202312
0.281079
0.301323
0.319752
0.289926
0.319736
0.237069
0.23896
0.245068
0.256834
0.237983
-1.18915
-1.09146
-1.88168
-1.34136
-1.03401
-0.447196
-0.689182
0.291906
0.17882
0.393657
0.356932
0.300837
0.239722
0.212972
0.286188
0.0534022
0.146289
0.117747
0.132675
0.0885483
-0.000434893
0.258573
0.250172
0.289625
0.309101
0.284681
0.310687
0.162197
0.162455
0.164219
0.165742
0.150964
0.148439
0.100421
0.079949
0.105874
0.0776999
0.0440526
0.0495646
0.0381511
0.0390925
0.0271942
0.0246715
0.0369282
0.0362735
0.25785
0.292855
0.121761
0.22934
0.00635429
-0.0865983
-0.114116
0.0587772
0.112085
0.120044
0.444945
0.568055
0.516142
0.530419
0.412263
0.455832
0.437721
0.178405
0.297885
0.32816
0.423319
-1.00363
-1.02471
-0.988934
0.562387
0.264151
-0.31488
-0.656205
-0.593742
0.0216374
0.104693
0.0968547
0.137571
0.174415
0.178922
-0.901772
-0.68066
-1.11074
-0.951441
-0.409697
-0.553762
-0.380568
-0.840953
-0.721487
)
;

boundaryField
{
    wall-4
    {
        type            zeroGradient;
    }
    velocity-inlet-5
    {
        type            zeroGradient;
    }
    velocity-inlet-6
    {
        type            zeroGradient;
    }
    pressure-outlet-7
    {
        type            fixedValue;
        value           uniform 0;
    }
    wall-8
    {
        type            zeroGradient;
    }
    frontAndBackPlanes
    {
        type            empty;
    }
}

