/*--------------------------------*- C++ -*----------------------------------*\
  =========                 |
  \\      /  F ield         | OpenFOAM: The Open Source CFD Toolbox
   \\    /   O peration     | Website:  https://openfoam.org
    \\  /    A nd           | Version:  6
     \\/     M anipulation  |
\*---------------------------------------------------------------------------*/
FoamFile
{
    version     2.0;
    format      ascii;
    class       volVectorField;
    location    "0";
    object      U_rec;
}
// * * * * * * * * * * * * * * * * * * * * * * * * * * * * * * * * * * * * * //

dimensions      [0 1 -1 0 0 0 0];

internalField   nonuniform List<vector> 
13046
(
(-0.496369 0.257199 0)
(-0.471384 0.0512439 -5.95201e-21)
(-0.264242 0.104461 -1.32245e-20)
(-0.494144 0.20222 0)
(-0.311858 0.153068 -1.1889e-20)
(-0.408456 0.0545302 0)
(-0.516737 0.21053 1.74058e-21)
(-0.414352 0.0319725 3.05079e-21)
(-0.29738 0.162108 -1.3106e-20)
(-0.648659 0.320012 6.49261e-21)
(-0.71959 -0.23267 0)
(-0.0679535 0.0941738 8.9885e-21)
(-0.549067 0.266026 -5.54282e-21)
(-0.48394 0.00422829 -9.5385e-21)
(-0.232612 0.119099 7.30031e-21)
(-0.623288 0.365826 -8.28878e-21)
(-0.0698295 0.0650189 2.15589e-20)
(-0.743707 -0.165513 5.15381e-21)
(-0.385827 0.201407 0)
(-0.346183 0.0745664 -6.43694e-21)
(-0.474462 0.144816 1.8123e-20)
(-0.629541 0.357375 -3.57284e-21)
(-0.0688871 0.0721532 -2.87913e-20)
(-0.736484 -0.179069 0)
(-0.470275 0.216835 7.29834e-21)
(-0.436904 0.0747429 -1.45235e-20)
(-0.304609 0.122631 0)
(-0.548896 0.284405 -1.0234e-20)
(-0.500822 -0.000605069 2.78408e-21)
(-0.217012 0.106215 -1.2619e-20)
(-0.495472 0.270807 0)
(-0.488054 0.0540193 0)
(-0.251748 0.0889947 1.34642e-20)
(-0.449111 0.202046 -8.47578e-21)
(-0.322903 0.122661 4.44697e-21)
(-0.428696 0.0932434 2.52977e-20)
(-0.445253 0.187733 -1.30243e-20)
(-0.339901 0.136257 6.77122e-21)
(-0.413292 0.0981745 -1.30166e-20)
(-0.443067 0.293445 9.47745e-21)
(-0.272215 0.0205335 2.50586e-21)
(-0.54385 0.092875 -9.009e-21)
(-0.419446 0.151146 5.88966e-21)
(-0.383435 0.151449 1.0126e-20)
(-0.387803 0.120435 0)
(-0.438369 0.151315 3.71126e-21)
(-0.377558 0.165651 -1.55079e-20)
(-0.374023 0.104622 -1.94015e-21)
(-0.508266 0.250145 0)
(-0.460526 0.0371734 -4.28455e-22)
(-0.259173 0.116233 1.96095e-23)
(-0.317964 -0.0592066 1.56523e-20)
(-0.397743 0.324192 0)
(-0.612744 0.117133 -1.1135e-20)
(-0.34404 -0.0817008 -2.22956e-20)
(-0.629371 0.127986 -1.78865e-20)
(-0.375863 0.320175 1.49183e-20)
(-0.669475 -0.0399331 -2.25062e-21)
(-0.575046 0.403318 0)
(-0.134888 0.0176683 1.1801e-20)
(-0.628495 0.241719 -5.30304e-21)
(-0.493746 -0.0889894 5.74089e-21)
(-0.22769 0.189224 -3.07273e-20)
(-0.113436 0.113659 1.63406e-20)
(-0.657495 -0.164885 -3.72934e-21)
(-0.653917 0.317489 -9.44386e-21)
(-0.559948 0.410222 0)
(-0.661809 -0.0177947 0)
(-0.151628 -0.000580981 0)
(-0.549267 0.40307 -4.23421e-21)
(-0.647394 -0.00536785 0)
(-0.162533 -0.00115238 9.39804e-21)
(-0.691049 -0.0526175 0)
(-0.582899 0.409138 1.07056e-22)
(-0.123403 0.0150574 6.89449e-24)
(-0.397294 0.216439 0)
(-0.331281 0.0650041 6.99972e-21)
(-0.48657 0.132671 -1.29326e-20)
(-0.102462 0.0344288 1.31212e-20)
(-0.599592 0.398207 -1.35494e-20)
(-0.705186 -0.0889544 0)
(-0.485094 0.2188 3.8319e-21)
(-0.429777 0.0621767 0)
(-0.296829 0.133587 0)
(-0.101269 0.106974 -1.47175e-20)
(-0.678078 -0.180214 -2.91929e-21)
(-0.655638 0.322282 5.64219e-21)
(-0.686181 0.264336 -9.90195e-21)
(-0.147856 0.169322 0)
(-0.607394 -0.199754 -2.88873e-21)
(-0.178658 0.225372 0)
(-0.721648 0.210201 0)
(-0.571877 -0.250346 3.89709e-22)
(-0.609974 0.308765 0)
(-0.62457 0.306542 5.08786e-21)
(-0.570832 -0.0738884 1.12433e-20)
(-0.581855 -0.095323 -5.27928e-21)
(-0.166381 0.112999 -6.69829e-21)
(-0.159232 0.122764 1.71449e-20)
(-0.163597 0.184784 -8.22917e-22)
(-0.691459 0.251058 9.68537e-21)
(-0.589221 -0.203344 0)
(-0.456675 0.163915 -2.49119e-23)
(-0.36203 0.167348 8.169e-21)
(-0.377148 0.0884251 0)
(-0.347802 0.275283 0)
(-0.597727 0.155043 -5.46378e-21)
(-0.357455 -0.0478758 0)
(-0.403765 0.304048 1.63895e-20)
(-0.304089 -0.0255201 0)
(-0.582226 0.115287 -2.08112e-20)
(-0.605675 0.306411 0)
(-0.0372977 0.0720718 0)
(-0.708213 -0.275516 -4.28665e-21)
(-0.531291 0.255008 1.53144e-20)
(-0.468802 0.0196347 4.00934e-21)
(-0.246855 0.123891 1.31992e-20)
(-0.613049 0.34017 6.42907e-21)
(-0.604314 0.3281 -1.20708e-20)
(-0.620061 -0.0853768 -9.5391e-21)
(-0.137277 0.0871475 7.69784e-21)
(-0.591194 -0.0694041 5.81757e-21)
(-0.152788 0.0940106 -7.19299e-21)
(-0.638464 0.324182 -5.59324e-21)
(-0.729281 -0.241164 -5.94443e-21)
(-0.0579003 0.0856324 -4.03418e-21)
(-0.581371 0.303582 0)
(-0.538571 -0.0383607 -7.40836e-21)
(-0.186764 0.104008 1.55053e-20)
(-0.462017 0.298548 0)
(-0.256525 0.0317772 -1.24108e-20)
(-0.537912 0.0776324 5.50983e-22)
(-0.195146 0.236435 0)
(-0.716232 0.205719 0)
(-0.555383 -0.231451 0)
(-0.651145 0.29496 0)
(-0.600217 -0.13677 -1.47698e-20)
(-0.153006 0.140099 -1.84607e-20)
(-0.512349 0.281335 0)
(-0.501097 0.0383272 0)
(-0.237127 0.0837377 0)
(-0.575194 0.209181 0)
(-0.41843 -0.0253279 0)
(-0.288011 0.199593 0)
(-0.390981 0.304947 0)
(-0.320558 -0.0404819 0)
(-0.594988 0.124321 1.1213e-20)
(-0.351573 0.265173 -1.71673e-21)
(-0.586618 0.15746 -1.16156e-20)
(-0.357906 -0.0347917 1.35083e-20)
(-0.636312 0.251898 1.28354e-20)
(-0.515889 -0.101833 0)
(-0.210227 0.176075 4.00301e-20)
(-0.339366 0.222335 0)
(-0.548694 0.172628 1.24219e-20)
(-0.36746 0.00373233 -3.40045e-21)
(-0.399411 -0.109954 0)
(-0.648342 0.158152 1.27249e-20)
(-0.428839 -0.125346 0)
(-0.658438 0.17365 7.33693e-21)
(-0.325161 0.29602 0)
(-0.299292 0.279646 0)
(-0.590157 0.185504 1.5912e-21)
(-0.396554 -0.0422562 7.14686e-21)
(-0.308648 0.227851 -7.52585e-21)
(-0.662284 0.30808 -6.66839e-21)
(-0.0757575 0.105654 0)
(-0.701914 -0.242151 -7.33168e-21)
(-0.618362 0.315509 -5.108e-21)
(-0.043177 0.0755958 -1.84826e-21)
(-0.725182 -0.262233 0)
(-0.650233 0.305179 -7.69422e-21)
(-0.617723 -0.141369 0)
(-0.139225 0.128707 2.10006e-20)
(-0.483159 0.340891 0)
(-0.577584 0.0598519 2.94487e-21)
(-0.234229 0.00441992 7.30784e-21)
(-0.579804 0.176573 1.05499e-20)
(-0.324893 0.238561 3.59343e-21)
(-0.379172 -0.0283236 0)
(-0.0957895 0.13237 0)
(-0.668572 -0.246095 0)
(-0.682638 0.284948 5.69648e-21)
(-0.468945 0.326794 0)
(-0.566046 0.0726969 -6.30574e-21)
(-0.247712 0.0105526 1.88466e-21)
(-0.338195 0.233281 0)
(-0.557829 0.167834 0)
(-0.360657 -0.00773643 0)
(-0.559592 0.201317 5.18363e-21)
(-0.40711 -0.0114555 0)
(-0.296612 0.194593 0)
(-0.489618 -0.0224064 -5.02169e-23)
(-0.223844 0.13512 -8.94563e-21)
(-0.572587 0.291178 1.61831e-20)
(-0.520917 -0.025345 0)
(-0.201161 0.111294 -1.94289e-20)
(-0.676336 0.291373 -1.01204e-20)
(-0.120239 0.138389 1.33134e-20)
(-0.649481 -0.201786 -1.41162e-20)
(-0.190408 0.218476 1.21303e-20)
(-0.701504 0.224241 5.93894e-21)
(-0.55989 -0.208954 1.44278e-20)
(-0.708937 0.236774 -1.70507e-20)
(-0.599012 -0.234269 0)
(-0.15532 0.195034 -1.19351e-20)
(-0.315816 -0.0873195 -8.04607e-22)
(-0.640891 0.102969 5.05437e-21)
(-0.411213 0.363223 0)
(-0.549443 0.230864 -2.35561e-20)
(-0.592502 0.407647 6.83528e-21)
(-0.106628 0.0254427 -8.0806e-21)
(-0.712077 -0.0812897 0)
(-0.617125 -0.247806 0)
(-0.706005 0.246912 -1.57274e-20)
(-0.137637 0.178022 0)
(-0.461337 0.181846 -1.88056e-20)
(-0.341499 0.153899 -6.64717e-21)
(-0.39567 0.0831526 1.91811e-20)
(-0.537225 0.292444 0)
(-0.508852 0.0130877 -4.01402e-22)
(-0.22098 0.0950611 -7.42795e-21)
(-0.199281 0.232009 9.27812e-21)
(-0.708196 0.213537 0)
(-0.550575 -0.217575 -1.66191e-20)
(-0.565047 0.240358 1.89144e-20)
(-0.475953 -0.0243879 1.73009e-20)
(-0.235522 0.147355 0)
(-0.0605201 0.0977118 0)
(-0.69822 -0.27091 6.38924e-21)
(-0.652859 0.29955 0)
(-0.391283 0.351549 0)
(-0.647191 0.112239 0)
(-0.335685 -0.101534 0)
(-0.701989 0.237375 1.49667e-20)
(-0.585231 -0.217772 0)
(-0.165758 0.19658 -7.12034e-24)
(-0.623964 0.180767 4.71523e-21)
(-0.408724 -0.0834661 -5.5307e-21)
(-0.301317 0.253421 0)
(-0.576744 0.316369 0)
(-0.549715 -0.0330175 6.91596e-21)
(-0.180222 0.0920237 1.22264e-20)
(-0.495399 -0.203175 -2.05246e-20)
(-0.707879 0.177425 -1.06502e-20)
(-0.254577 0.282952 7.31394e-21)
(-0.674518 0.171882 0)
(-0.445453 -0.147542 -8.00939e-21)
(-0.291116 0.285397 -2.61676e-22)
(-0.0591304 0.100582 -1.18565e-20)
(-0.68258 -0.282933 0)
(-0.655558 0.286819 -6.14898e-21)
(-0.434785 0.325526 8.75621e-21)
(-0.27833 -0.0191418 -9.11513e-21)
(-0.584565 0.0945285 9.23616e-22)
(-0.560156 0.327477 5.60437e-21)
(-0.0253793 0.051811 -1.73726e-20)
(-0.739134 -0.240888 0)
(-0.364992 0.188606 -3.86614e-21)
(-0.479445 0.158062 -1.46336e-20)
(-0.360182 0.068343 1.92772e-20)
(-0.618083 0.206427 5.73533e-21)
(-0.612924 0.18981 3.53956e-23)
(-0.438464 -0.0771321 -1.33225e-20)
(-0.412658 -0.0700808 0)
(-0.29557 0.239105 6.84112e-21)
(-0.269872 0.220199 -7.10896e-21)
(-0.0913101 0.0405742 -1.71701e-20)
(-0.604161 0.393751 7.12758e-21)
(-0.722144 -0.102868 -1.25725e-20)
(-0.561478 0.318969 0)
(-0.547701 -0.0124871 0)
(-0.189696 0.0815554 -1.61164e-20)
(-0.684466 0.183185 -2.76165e-21)
(-0.471141 -0.16672 0)
(-0.270076 0.274132 0)
(-0.632448 0.319541 -6.23464e-21)
(-0.613225 -0.111146 0)
(-0.139943 0.111081 7.68035e-21)
(-0.411829 0.16132 3.97176e-21)
(-0.404211 0.126712 5.80243e-21)
(-0.374448 0.137748 -1.98498e-21)
(-0.646778 0.186323 -9.37163e-21)
(-0.435629 -0.112255 0)
(-0.285672 0.258487 -1.19971e-20)
(-0.559987 0.331372 0)
(-0.563232 -0.0121918 8.64347e-21)
(-0.181534 0.069216 -1.04235e-20)
(-0.568238 0.257758 0)
(-0.582898 0.264543 1.90072e-21)
(-0.436267 0.336033 3.18745e-21)
(-0.277162 -0.0302085 2.64745e-20)
(-0.59511 0.0928081 -2.22371e-20)
(-0.654053 0.199149 -9.71858e-21)
(-0.45916 -0.125019 1.16826e-20)
(-0.262821 0.242486 1.09507e-20)
(-0.642107 0.317285 0)
(-0.133475 0.116831 -2.70161e-20)
(-0.624768 -0.128553 -7.39732e-21)
(-0.407474 0.290878 -2.26213e-20)
(-0.302503 -0.0127644 0)
(-0.568896 0.11844 7.02602e-21)
(-0.333008 0.312427 -1.40202e-20)
(-0.657482 0.149287 -7.34686e-21)
(-0.395259 -0.12254 0)
(-0.588006 0.355104 -6.17393e-21)
(-0.613831 -0.0502732 -7.68691e-21)
(-0.144075 0.0625156 4.79308e-21)
(-0.415353 0.337004 1.15234e-21)
(-0.30306 -0.0536797 0)
(-0.61225 0.107475 1.53212e-20)
(-0.59772 0.361521 0)
(-0.607682 0.355295 0)
(-0.633289 -0.0646855 -5.00741e-21)
(-0.133742 0.0632838 -1.24619e-20)
(-0.637142 -0.0813951 7.08658e-21)
(-0.129129 0.0740882 1.3254e-20)
(-0.0990815 0.126868 -1.0366e-20)
(-0.673839 -0.229362 0)
(-0.677125 0.295357 -7.4913e-21)
(-0.591253 0.329417 7.12929e-21)
(-0.578831 -0.0531269 0)
(-0.160339 0.0865194 4.22088e-21)
(-0.653826 -0.276508 1.24242e-20)
(-0.0200682 0.0532546 1.52213e-20)
(-0.540144 0.286203 1.47139e-20)
(-0.522478 0.159262 -6.73851e-21)
(-0.358671 0.217118 0)
(-0.351924 0.0299011 0)
(-0.610531 0.239298 1.28745e-20)
(-0.477301 -0.0675994 0)
(-0.235525 0.181267 2.34397e-20)
(-0.128745 0.136528 -8.42853e-21)
(-0.66957 0.294458 2.06211e-20)
(-0.635528 -0.180859 1.056e-20)
(-0.349846 -0.0947387 0)
(-0.640148 0.127012 6.6754e-21)
(-0.370957 0.331359 -1.69043e-20)
(-0.515169 -0.209543 -2.52118e-20)
(-0.708886 0.189918 -6.6083e-21)
(-0.232902 0.263439 0)
(-0.450684 -0.00274803 -1.72819e-20)
(-0.256911 0.153605 0)
(-0.610537 0.271399 1.42215e-20)
(-0.514795 -0.0680777 6.34641e-21)
(-0.202812 0.146298 7.1582e-21)
(-0.43807 -0.0090251 1.01708e-20)
(-0.266754 0.166045 7.29222e-23)
(-0.624278 0.365937 -4.9497e-22)
(-0.0790317 0.0652779 1.00998e-20)
(-0.727502 -0.150003 -7.5717e-21)
(-0.304717 -0.0956771 0)
(-0.64975 0.092763 1.62481e-21)
(-0.426186 0.379391 0)
(-0.622124 0.276545 -1.4483e-20)
(-0.534731 -0.0835984 -7.75007e-21)
(-0.191705 0.149533 -8.80106e-21)
(-0.584993 0.202086 0)
(-0.411603 -0.0381904 -1.03875e-20)
(-0.291885 0.211715 0)
(-0.601268 0.140615 0)
(-0.3421 -0.0523383 0)
(-0.36784 0.290031 0)
(-0.502231 0.23418 -5.31452e-21)
(-0.443932 0.0459423 -9.46272e-21)
(-0.277632 0.127653 3.34616e-23)
(-0.352166 0.325225 1.73985e-20)
(-0.652914 0.138158 1.79947e-20)
(-0.376722 -0.113332 1.13836e-20)
(-0.688663 0.272231 -9.17844e-21)
(-0.631821 -0.215584 1.2026e-20)
(-0.130061 0.155272 -1.25842e-20)
(-0.522793 -0.200984 1.70256e-20)
(-0.703143 0.200661 6.69895e-21)
(-0.223492 0.249666 9.22964e-21)
(-0.522931 0.398683 -1.30088e-20)
(-0.193206 -0.0158448 1.41323e-20)
(-0.633249 0.0221962 -1.0795e-20)
(-0.601123 0.382093 3.85958e-21)
(-0.595007 0.378926 -3.45467e-21)
(-0.657356 -0.066093 -1.59955e-21)
(-0.676177 -0.0783987 0)
(-0.114409 0.0471432 -4.59932e-21)
(-0.12448 0.046547 -4.03592e-21)
(-0.0229153 0.0532048 -2.05981e-20)
(-0.683149 -0.265852 -1.3682e-20)
(-0.550034 0.297066 3.51344e-21)
(-0.570851 0.335365 -3.50624e-22)
(-0.0292242 0.0527478 2.40362e-20)
(-0.754547 -0.234124 0)
(-0.633055 0.213259 -2.0975e-20)
(-0.460501 -0.0929288 -3.01457e-21)
(-0.259314 0.22031 0)
(-0.108102 0.127305 -2.56339e-20)
(-0.673186 0.297859 7.44618e-21)
(-0.666194 -0.208477 0)
(-0.559874 0.380993 1.86038e-20)
(-0.572101 0.378579 -1.39739e-20)
(-0.624783 -0.0177671 8.25866e-21)
(-0.630601 -0.031771 3.15196e-21)
(-0.160124 0.0251872 -7.96387e-21)
(-0.148101 0.0357906 -3.99169e-21)
(-0.118538 0.169799 0)
(-0.618737 -0.276858 0)
(-0.710626 0.235044 2.86002e-21)
(-0.526725 0.323779 -6.58217e-21)
(-0.0196524 0.0435556 0)
(-0.72895 -0.23287 0)
(-0.448692 0.128501 -4.37647e-23)
(-0.405446 0.194253 8.50086e-21)
(-0.342169 0.0977366 4.27947e-21)
(-0.575025 0.310441 -1.185e-20)
(-0.712906 -0.265249 6.27145e-21)
(-0.0288218 0.0601374 1.12619e-21)
(-0.506889 0.340949 0)
(-0.571184 0.0403874 -1.3573e-20)
(-0.21473 0.0230696 2.5496e-24)
(-0.689195 0.276873 6.12045e-23)
(-0.657308 -0.246959 1.73897e-20)
(-0.107426 0.14259 1.51268e-24)
(-0.575288 -0.294528 3.76258e-22)
(-0.0199996 0.0536879 -8.77645e-21)
(-0.523593 0.230654 -5.93305e-21)
(-0.42663 0.275938 -8.16295e-21)
(-0.288014 0.0279263 7.91126e-21)
(-0.532708 0.106867 2.19903e-20)
(-0.498389 0.171384 0)
(-0.370646 0.0513961 -2.13659e-20)
(-0.346666 0.189213 1.0975e-20)
(-0.628163 0.33576 0)
(-0.0532518 0.0779976 1.20357e-20)
(-0.741744 -0.230984 3.5803e-24)
(-0.512521 0.173103 0)
(-0.366663 0.0384765 -7.53971e-21)
(-0.341083 0.199805 -1.54999e-20)
(-0.436096 0.133485 8.7258e-21)
(-0.401019 0.181108 -4.51883e-21)
(-0.355123 0.108384 2.25071e-21)
(-0.378838 0.357758 8.42072e-21)
(-0.664355 0.118052 -6.44911e-21)
(-0.358023 -0.125233 1.25859e-20)
(-0.499451 0.137264 0)
(-0.328805 0.0526205 0)
(-0.387296 0.227609 1.27712e-21)
(-0.517486 0.151154 1.06659e-20)
(-0.340277 0.0388413 5.82212e-21)
(-0.374826 0.228283 1.81505e-22)
(-0.508346 0.394816 1.97318e-20)
(-0.629957 0.0340888 -1.06578e-20)
(-0.210016 -0.0286978 -1.39471e-20)
(-0.074136 0.0895074 1.81317e-20)
(-0.0763479 0.095523 -1.83964e-20)
(-0.723775 -0.202446 5.14859e-21)
(-0.713799 -0.213968 3.57148e-21)
(-0.644067 0.338492 0)
(-0.651093 0.32927 -6.64739e-21)
(-0.694168 0.268653 1.12522e-20)
(-0.638165 -0.229413 -1.08081e-20)
(-0.12345 0.158179 1.55671e-20)
(-0.181871 -0.0220933 -9.05995e-21)
(-0.531928 0.412195 4.08067e-21)
(-0.649509 0.0123554 1.37713e-20)
(-0.448906 0.319309 -7.99561e-21)
(-0.264749 -0.00151029 -8.30705e-21)
(-0.570317 0.085646 6.94476e-21)
(-0.683631 0.156443 0)
(-0.43497 -0.15913 8.28476e-21)
(-0.307167 0.308349 2.7077e-22)
(-0.606558 -0.312896 6.21696e-21)
(-0.0426744 0.0858453 -8.18624e-21)
(-0.614312 0.235784 -5.02178e-21)
(-0.162328 0.209529 0)
(-0.718459 0.221199 0)
(-0.586052 -0.252866 7.29643e-21)
(-0.635555 0.31207 5.84028e-21)
(-0.0527798 0.0865048 0)
(-0.718594 -0.261423 -6.27032e-21)
(-0.0143639 0.0439571 -3.24396e-32)
(-0.547103 -0.280801 -5.80587e-21)
(-0.482187 0.220625 6.04184e-21)
(-0.583543 -0.242378 6.49895e-21)
(-0.0104977 0.0369564 3.23652e-32)
(-0.460534 0.257617 -5.36911e-21)
(-0.510914 -0.134463 -1.61003e-20)
(-0.661233 0.23021 0)
(-0.224109 0.209367 -2.35656e-20)
(-0.625828 -0.299861 -3.34922e-21)
(-0.0845155 0.137081 -8.35809e-21)
(-0.692238 0.237244 0)
(-0.661448 0.286058 -9.59323e-21)
(-0.598316 -0.152745 9.17334e-21)
(-0.154595 0.150085 1.22954e-20)
(-0.600592 0.373593 1.69197e-20)
(-0.0507001 0.0501505 7.34181e-21)
(-0.781895 -0.174238 0)
(-0.535546 0.238787 4.1194e-21)
(-0.26182 0.144429 -4.47367e-21)
(-0.450445 0.0126108 4.16051e-21)
(-0.610223 -0.270276 3.77289e-21)
(-0.132217 0.18329 8.79756e-21)
(-0.714299 0.230991 3.09363e-21)
(-0.675994 0.149146 -7.33108e-21)
(-0.323248 0.319169 -4.79614e-21)
(-0.416283 -0.14661 0)
(-0.483897 -0.165191 0)
(-0.681953 0.19451 0)
(-0.252934 0.258822 0)
(-0.00296215 0.0165896 0)
(-0.344521 -0.158232 -4.86959e-21)
(-0.280132 0.133791 4.60327e-21)
(-0.640124 -0.29303 6.19773e-21)
(-0.0242236 0.0596081 -1.05937e-20)
(-0.557907 0.272292 -6.09642e-21)
(-0.519742 0.228884 -1.06034e-20)
(-0.277149 0.144522 1.05124e-20)
(-0.436801 0.0283691 4.80841e-21)
(-0.640984 -0.26767 1.54984e-20)
(-0.700244 0.256581 -6.33428e-21)
(-0.105029 0.151968 0)
(-0.111448 0.16699 -9.25597e-21)
(-0.712008 0.229834 0)
(-0.614409 -0.289541 -1.15934e-20)
(-0.663082 0.314297 -6.79297e-21)
(-0.0987783 0.113792 2.74851e-20)
(-0.680006 -0.197238 0)
(-0.0912397 0.059522 -2.0753e-20)
(-0.709092 -0.120837 7.93434e-21)
(-0.617348 0.375027 0)
(-0.496485 0.405496 -2.4784e-20)
(-0.642003 0.04228 1.35856e-20)
(-0.226694 -0.0481403 -4.43626e-21)
(-0.654906 -0.0493213 2.39777e-21)
(-0.582003 0.390093 8.13003e-21)
(-0.134026 0.0321107 -1.25968e-20)
(-0.0744801 0.0458164 -1.86538e-20)
(-0.60796 0.387333 0)
(-0.749207 -0.132452 0)
(-0.526576 0.324674 -3.85938e-21)
(-0.542628 0.334949 0)
(-0.548303 0.0234153 -1.41048e-20)
(-0.562903 0.0077523 1.50732e-20)
(-0.206027 0.0556767 2.11522e-21)
(-0.191288 0.0552521 -2.25538e-21)
(-0.510358 0.327469 3.70422e-21)
(-0.553985 0.0384646 0)
(-0.216958 0.0408682 4.06407e-21)
(-0.551197 0.392524 0)
(-0.634177 -0.00933164 -1.33436e-20)
(-0.164378 0.0111296 2.87332e-21)
(-0.510871 -0.185693 -8.41914e-21)
(-0.694225 0.201536 6.84709e-21)
(-0.231119 0.24642 -1.90044e-20)
(-0.627377 -0.244332 0)
(-0.699319 0.258198 1.71885e-20)
(-0.126141 0.166573 0)
(-0.202616 0.218339 -6.10683e-21)
(-0.69209 0.223767 -4.44323e-21)
(-0.544071 -0.189262 -5.50923e-21)
(-0.622899 -0.24397 -8.9237e-22)
(-0.0121828 0.0394525 5.64685e-21)
(-0.483446 0.276929 0)
(-0.461082 0.276615 7.33793e-21)
(-0.468974 0.267559 0)
(-0.266022 0.0574894 0)
(-0.510373 0.0817853 2.68924e-20)
(-0.267388 0.0728868 0)
(-0.495652 0.0746526 -1.70713e-20)
(-0.530778 0.378021 0)
(-0.514361 0.368104 0)
(-0.203621 0.0052993 2.99476e-23)
(-0.611499 0.0155577 8.26686e-21)
(-0.188712 0.0104435 2.09562e-20)
(-0.59971 0.0300489 -1.74567e-20)
(-0.556193 -0.305566 0)
(-0.0250996 0.0616987 1.19628e-20)
(-0.546007 0.21921 0)
(-0.642824 -0.259535 -9.12398e-21)
(-0.698986 0.261353 1.91695e-21)
(-0.108963 0.150173 5.53928e-21)
(-0.453344 0.348629 -1.38609e-20)
(-0.264803 -0.0323872 -9.55955e-21)
(-0.601796 0.080162 2.3099e-20)
(-0.475667 -0.185322 1.82489e-20)
(-0.698014 0.173162 1.77953e-20)
(-0.269785 0.288572 0)
(-0.0969246 0.0539618 2.21909e-20)
(-0.702123 -0.108932 -8.44254e-21)
(-0.612662 0.379294 9.06938e-21)
(-0.676727 -0.292485 0)
(-0.617473 0.284859 0)
(-0.0400366 0.0794485 0)
(-0.672814 -0.292312 0)
(-0.637925 0.278832 5.40944e-21)
(-0.0505107 0.0926517 2.01634e-21)
(-0.576336 0.365199 -7.71568e-21)
(-0.615414 -0.0369314 4.77392e-21)
(-0.150121 0.0497126 5.90829e-21)
(-0.395482 0.278139 -2.14227e-21)
(-0.313925 -0.00536005 0)
(-0.560878 0.129637 -7.04168e-23)
(-0.659913 0.317721 7.91518e-21)
(-0.0885105 0.107039 1.60608e-20)
(-0.697302 -0.208929 -4.15974e-21)
(-0.516938 -0.152472 0)
(-0.672266 0.226363 0)
(-0.220175 0.219176 2.03183e-20)
(-0.117468 0.106328 5.16232e-21)
(-0.651973 -0.142908 1.26782e-20)
(-0.643601 0.328664 2.03604e-20)
(-0.501691 0.368935 0)
(-0.216047 -0.00658782 -1.39799e-20)
(-0.602081 0.0402995 8.91086e-21)
(-0.616664 0.168063 7.78777e-23)
(-0.386727 -0.0715795 8.11834e-21)
(-0.325476 0.267832 0)
(-0.435541 0.300834 1.10257e-22)
(-0.277426 0.00480803 -2.71009e-21)
(-0.559002 0.0972388 -9.10028e-21)
(-0.0883446 0.114341 1.08809e-23)
(-0.692012 -0.228133 9.86605e-21)
(-0.667352 0.305955 8.96934e-21)
(-0.624988 0.336094 -3.70455e-21)
(-0.631249 -0.105356 -3.72525e-21)
(-0.13043 0.0954412 0)
(-0.433997 0.267494 -7.95822e-21)
(-0.286178 0.0446408 1.6992e-20)
(-0.517002 0.102648 -1.44876e-20)
(-0.603909 0.386649 6.55795e-21)
(-0.0640957 0.0441439 8.32664e-21)
(-0.767665 -0.146794 -6.0095e-21)
(-0.506804 0.296607 -4.67912e-21)
(-0.517195 0.0400384 0)
(-0.230081 0.0683845 0)
(-0.548365 0.189052 -1.92442e-20)
(-0.386484 0.00276738 4.68904e-21)
(-0.316581 0.205284 0)
(-0.481102 -0.146528 0)
(-0.670264 0.20118 1.38877e-20)
(-0.250736 0.246415 0)
(-0.586088 0.351565 -3.77343e-21)
(-0.0364304 0.0535057 -2.58127e-21)
(-0.777144 -0.214451 6.8934e-21)
(-0.584976 0.361441 1.04126e-20)
(-0.0377903 0.0500405 0)
(-0.785363 -0.199316 -6.57929e-21)
(-0.109603 0.0942093 4.7324e-21)
(-0.666083 -0.137925 -7.56131e-21)
(-0.637417 0.339828 -1.86721e-20)
(-0.630533 0.155161 -6.47783e-21)
(-0.383388 -0.0890283 -8.14322e-21)
(-0.336717 0.28787 0)
(-0.0281974 0.0475766 2.3651e-21)
(-0.772317 -0.222155 -6.44513e-21)
(-0.561632 0.344493 0)
(-0.14457 0.149387 0)
(-0.613643 -0.171778 -7.74305e-21)
(-0.669594 0.284422 -2.34667e-21)
(-0.0112243 0.0366566 9.53748e-21)
(-0.469291 -0.266483 6.51532e-21)
(-0.4311 0.179324 0)
(-0.392621 0.237615 -6.008e-21)
(-0.530156 -0.203588 0)
(-0.00612094 0.0271799 9.54912e-21)
(-0.0801107 0.0552603 1.38343e-23)
(-0.733201 -0.135327 0)
(-0.615018 0.379135 0)
(-0.0725614 0.10902 0)
(-0.693019 -0.258426 0)
(-0.665787 0.298025 1.21281e-20)
(-0.641259 0.34282 -6.92267e-21)
(-0.643968 0.33955 5.60285e-21)
(-0.0804313 0.0853743 -9.08821e-21)
(-0.717299 -0.180209 -1.68717e-21)
(-0.090239 0.0912915 -1.46903e-20)
(-0.697809 -0.170139 3.03544e-21)
(-0.67693 0.271488 4.50727e-21)
(-0.601172 -0.179277 5.10583e-21)
(-0.153835 0.163153 0)
(-0.294552 0.311752 0)
(-0.451524 -0.1803 0)
(-0.697438 0.158701 0)
(-0.468265 0.242498 0)
(-0.283967 0.0965797 -2.31349e-20)
(-0.467389 0.0760334 9.36983e-21)
(-0.68199 0.244691 1.2795e-20)
(-0.561741 -0.177096 1.87455e-21)
(-0.184596 0.194245 1.80167e-20)
(-0.200702 0.20842 1.17377e-20)
(-0.682518 0.234009 -1.77869e-20)
(-0.544095 -0.174087 -2.6014e-21)
(-0.60119 0.398843 7.28895e-21)
(-0.0806023 0.0361983 8.92928e-21)
(-0.745392 -0.113682 1.31347e-20)
(-0.533778 0.388064 0)
(-0.623819 0.0111014 3.96588e-21)
(-0.18259 0.00297638 -2.05396e-20)
(-0.518944 0.351744 0)
(-0.582858 0.0290517 1.78252e-20)
(-0.203351 0.0202623 3.13536e-23)
(-0.651775 0.253316 -1.63033e-20)
(-0.533953 -0.125996 2.2591e-21)
(-0.200465 0.180852 -1.01969e-20)
(-0.660954 0.246223 0)
(-0.533599 -0.138444 2.12071e-21)
(-0.203399 0.190698 9.39943e-21)
(-0.422718 0.251311 0)
(-0.300056 0.053695 -2.68296e-20)
(-0.504819 0.111786 8.0948e-21)
(-0.543913 0.345718 0)
(-0.575808 0.00341547 0)
(-0.183804 0.044391 3.07312e-21)
(-0.144322 0.199188 -1.90646e-20)
(-0.594227 -0.272509 -2.05788e-20)
(-0.722111 0.220109 0)
(-0.648997 0.261564 7.48821e-21)
(-0.0544269 0.0996397 0)
(-0.64614 -0.303455 4.47699e-21)
(-0.640673 0.243251 -7.80868e-23)
(-0.0518647 0.0978894 0)
(-0.624113 -0.309409 -1.28618e-20)
(-0.47608 0.314883 5.54182e-21)
(-0.243755 0.028802 -2.95504e-21)
(-0.548671 0.0661609 -1.1579e-22)
(-0.648877 -0.297707 1.78388e-22)
(-0.0335234 0.0722664 1.62076e-20)
(-0.596687 0.269024 0)
(-0.628487 0.345538 1.59863e-20)
(-0.115692 0.0882906 9.92223e-21)
(-0.657024 -0.118617 0)
(-0.0346178 0.0751053 -2.40932e-21)
(-0.610829 -0.30994 -6.96982e-21)
(-0.592448 0.24283 0)
(-0.486691 0.189619 1.30633e-20)
(-0.329988 0.16473 1.39223e-20)
(-0.394012 0.0632025 6.46344e-23)
(-0.586933 0.279958 -2.37118e-21)
(-0.512259 -0.0389207 -2.30886e-21)
(-0.207896 0.13031 -1.05072e-20)
(-0.360033 -0.0776021 1.85367e-20)
(-0.622698 0.143338 1.50677e-20)
(-0.357694 0.298993 0)
(-0.0936514 0.145157 0)
(-0.630393 -0.290832 -4.19136e-21)
(-0.698709 0.242777 0)
(-0.504421 -0.157715 0)
(-0.675883 0.215398 0)
(-0.231193 0.231427 0)
(-0.0602071 0.0529086 0)
(-0.609374 0.375508 -6.22625e-21)
(-0.768101 -0.162386 5.88846e-21)
(-0.602226 0.284205 0)
(-0.52625 -0.0583524 1.14471e-21)
(-0.196813 0.134253 1.0278e-20)
(-0.460892 0.231022 0)
(-0.296831 0.104168 1.98529e-20)
(-0.45647 0.0825216 0)
(-0.649901 -0.278658 -1.46643e-20)
(-0.691047 0.261341 6.01371e-21)
(-0.0914626 0.138257 0)
(-0.125535 0.126128 -1.08442e-20)
(-0.640042 -0.167522 4.93135e-22)
(-0.659595 0.306766 1.46589e-22)
(-0.609301 0.336571 0)
(-0.600845 0.332555 7.14601e-21)
(-0.0428046 0.0672549 -5.92635e-21)
(-0.0382552 0.065511 -7.29785e-21)
(-0.752827 -0.232694 -4.21961e-21)
(-0.747817 -0.242829 3.46956e-21)
(-0.604272 0.215358 0)
(-0.438785 -0.0611352 3.11131e-20)
(-0.26889 0.20646 1.1123e-20)
(-0.488069 -0.117025 2.25806e-20)
(-0.649466 0.222308 0)
(-0.235994 0.213923 -1.23351e-20)
(-0.529114 0.2044 -1.08316e-20)
(-0.404501 0.0192306 8.00907e-21)
(-0.298682 0.175863 1.70812e-20)
(-0.64848 -0.299699 9.76215e-21)
(-0.670816 0.258839 7.95859e-21)
(-0.632813 -0.304631 -4.65707e-21)
(-0.0670072 0.114387 0)
(-0.677103 0.244947 -7.69e-21)
(-0.0719178 0.121156 0)
(-0.629679 0.294419 0)
(-0.566564 -0.10071 0)
(-0.170917 0.136085 1.15155e-20)
(-0.681379 0.271508 1.08165e-20)
(-0.672698 0.269843 -2.0221e-20)
(-0.664466 -0.277874 6.40285e-21)
(-0.664852 -0.287765 -1.60473e-20)
(-0.0798939 0.124662 1.63062e-20)
(-0.0699027 0.11459 2.25238e-25)
(-0.644943 0.21324 0)
(-0.467643 -0.111092 -2.0802e-20)
(-0.255655 0.230639 1.59966e-20)
(-0.579128 0.239328 1.0292e-20)
(-0.473188 -0.0400718 -1.38711e-20)
(-0.235084 0.160076 0)
(-0.602752 0.364946 0)
(-0.0473541 0.0554185 0)
(-0.777048 -0.191222 6.31985e-21)
(-0.601777 0.228227 7.57209e-21)
(-0.45483 -0.0563666 -8.64635e-21)
(-0.254237 0.191378 -1.846e-20)
(-0.54722 0.215671 4.38764e-21)
(-0.420689 -0.000157764 -9.38823e-21)
(-0.283161 0.174407 1.00315e-20)
(-0.601192 0.345944 0)
(-0.0426474 0.0613447 0)
(-0.767318 -0.220837 -8.69255e-21)
(-0.599764 0.298343 0)
(-0.547972 -0.0582814 2.4584e-21)
(-0.180258 0.117969 -1.14404e-20)
(-0.403376 -0.150222 0)
(-0.68009 0.139003 0)
(-0.339121 0.337973 -6.20195e-22)
(-0.497748 0.379724 -6.31694e-22)
(-0.614576 0.043907 0)
(-0.219311 -0.0206221 2.17557e-20)
(-0.533744 -0.229615 9.88734e-21)
(-0.2147 0.258198 0)
(-0.718727 0.192468 0)
(-0.00610479 0.0258805 -2.29502e-20)
(-0.449677 -0.208408 6.81447e-21)
(-0.36823 0.181057 -6.4439e-21)
(-0.603127 0.254885 0)
(-0.487063 -0.0563932 8.51926e-21)
(-0.224765 0.162234 -9.44943e-21)
(-0.624962 0.354552 1.15948e-20)
(-0.0606502 0.0706064 3.0763e-20)
(-0.75038 -0.189849 0)
(-0.264489 -0.0715137 -5.81785e-21)
(-0.645057 0.0679624 -8.89892e-21)
(-0.46143 0.394474 -5.6045e-21)
(-0.471311 0.292996 0)
(-0.0118891 0.036107 -8.58439e-21)
(-0.658553 -0.230444 0)
(-0.364649 0.247443 1.06551e-20)
(-0.370622 0.264594 -1.0913e-20)
(-0.338507 -0.000482268 0)
(-0.552259 0.149932 9.31e-21)
(-0.335177 -0.0159826 -1.7372e-20)
(-0.5681 0.143017 -7.50311e-21)
(-0.527808 0.189911 1.01913e-20)
(-0.385616 0.0237298 1.05842e-20)
(-0.31907 0.191647 0)
(-0.406477 0.268519 9.40932e-21)
(-0.386227 0.253694 0)
(-0.304341 0.0175204 -9.61233e-21)
(-0.53966 0.121184 8.34356e-21)
(-0.319576 0.0181266 9.68385e-21)
(-0.536597 0.135448 5.58263e-23)
(-0.590834 0.251853 6.54443e-22)
(-0.45162 -0.03028 -6.0221e-21)
(-0.254625 0.17217 -1.23888e-20)
(-0.583778 0.22954 -1.77051e-20)
(-0.44504 -0.0357829 1.59694e-22)
(-0.26291 0.184445 0)
(-0.0616027 0.111385 0)
(-0.613949 -0.314079 0)
(-0.66154 0.234309 8.43055e-21)
(-0.494627 0.314784 -5.11255e-21)
(-0.542934 0.0528905 0)
(-0.231298 0.0421128 5.47841e-21)
(-0.677442 0.284941 -1.92436e-20)
(-0.675536 -0.262974 7.37081e-21)
(-0.0816454 0.12197 -9.30051e-21)
(-0.651714 0.268471 0)
(-0.660497 0.272673 9.24005e-21)
(-0.557405 -0.129295 -2.81474e-21)
(-0.576013 -0.144989 9.02341e-21)
(-0.180917 0.165325 -1.27347e-20)
(-0.169545 0.162663 -1.18745e-20)
(-0.493681 0.299084 0)
(-0.524866 0.0527846 0)
(-0.237902 0.0567691 2.57207e-21)
(-0.553739 0.368437 6.14934e-21)
(-0.606031 -0.00825418 0)
(-0.170245 0.0322431 6.85213e-21)
(-0.63025 0.268304 -4.68069e-21)
(-0.530082 -0.097147 0)
(-0.195289 0.161479 0)
(-0.428419 0.203894 1.02874e-20)
(-0.445085 0.109486 -5.01266e-21)
(-0.326429 0.104893 5.33292e-21)
(-0.671402 0.253383 0)
(-0.559607 -0.159351 0)
(-0.184781 0.185167 -1.91544e-20)
(-0.454355 0.249502 0)
(-0.284117 0.0795022 2.93854e-21)
(-0.482619 0.0871017 0)
(-0.638085 0.229086 -1.03499e-20)
(-0.481928 -0.10353 -1.15917e-20)
(-0.239584 0.205298 -1.59397e-21)
(-0.557721 0.353757 6.22147e-21)
(-0.590709 -0.0125951 0)
(-0.170901 0.0457969 1.40755e-20)
(-0.435325 0.220089 -1.01985e-20)
(-0.424352 0.225187 -4.57329e-21)
(-0.45874 0.101916 4.92128e-21)
(-0.311706 0.0951182 -1.0539e-20)
(-0.47392 0.109688 0)
(-0.311408 0.0805216 -1.88307e-20)
(-0.403533 0.241005 -4.64792e-21)
(-0.313075 0.0452743 1.25366e-20)
(-0.389014 0.245006 2.9929e-21)
(-0.508465 0.124524 -1.12315e-20)
(-0.324516 0.0282371 -6.01106e-21)
(-0.526686 0.137035 1.67675e-22)
(-0.525529 0.310479 5.54434e-21)
(-0.543239 0.308027 0)
(-0.530923 0.0230335 1.04159e-20)
(-0.529585 0.0076301 -8.12784e-21)
(-0.212595 0.0692162 -1.22016e-20)
(-0.20577 0.0824316 2.0303e-20)
(-0.0972721 0.0712524 0)
(-0.691946 -0.124853 -4.65571e-21)
(-0.623758 0.362169 -9.70759e-21)
(-0.356933 0.340465 7.507e-21)
(-0.666283 0.13202 1.0168e-20)
(-0.380855 -0.130316 -1.9772e-20)
(-0.0896816 0.0747899 -1.03425e-20)
(-0.0949901 0.0854704 8.27399e-21)
(-0.703766 -0.14395 4.02452e-21)
(-0.690504 -0.151896 6.90833e-21)
(-0.629163 0.359185 2.49175e-20)
(-0.6376 0.347199 -1.29884e-20)
(-0.421062 0.353146 1.02136e-20)
(-0.300721 -0.0656451 -9.16909e-21)
(-0.624523 0.0998312 2.19248e-21)
(-0.421457 0.175607 1.72726e-20)
(-0.355837 0.129621 0)
(-0.414725 0.118119 -1.71848e-20)
(-0.670169 0.265337 -4.4673e-21)
(-0.578582 -0.161686 -1.01879e-20)
(-0.170073 0.171547 0)
(-0.472733 0.288807 0)
(-0.252823 0.0490622 -2.45199e-21)
(-0.52176 0.0709681 -8.72398e-21)
(-0.567453 0.353091 0)
(-0.594106 -0.0232556 0)
(-0.163402 0.0536845 -1.31155e-20)
(-0.610188 0.373166 -1.03368e-20)
(-0.614069 0.362159 0)
(-0.677413 -0.0951416 2.45068e-21)
(-0.109808 0.0591823 -1.25804e-20)
(-0.66236 -0.0959296 -6.68133e-21)