/*--------------------------------*- C++ -*----------------------------------*\
  =========                 |
  \\      /  F ield         | OpenFOAM: The Open Source CFD Toolbox
   \\    /   O peration     | Website:  https://openfoam.org
    \\  /    A nd           | Version:  6
     \\/     M anipulation  |
\*---------------------------------------------------------------------------*/
FoamFile
{
    version     2.0;
    format      ascii;
    class       volScalarField;
    location    "25518";
    object      p;
}
// * * * * * * * * * * * * * * * * * * * * * * * * * * * * * * * * * * * * * //

dimensions      [0 2 -2 0 0 0 0];

internalField   nonuniform List<scalar> 
115600
(
-0.00607353
-0.0411409
-0.0761921
-0.111233
-0.146272
-0.181314
-0.216359
-0.251405
-0.286452
-0.321499
-0.356546
-0.391592
-0.426639
-0.461685
-0.49673
-0.531776
-0.566822
-0.601867
-0.636912
-0.671956
-0.707001
-0.742045
-0.77709
-0.812134
-0.847178
-0.882222
-0.917265
-0.952309
-0.987353
-1.0224
-1.05744
-1.09248
-1.12753
-1.16257
-1.19762
-1.23266
-1.2677
-1.30275
-1.33779
-1.37284
-1.40789
-1.44294
-1.47799
-1.51304
-1.54809
-1.58314
-1.6182
-1.65326
-1.68833
-1.7234
-1.75847
-1.79356
-1.82866
-1.86376
-1.89891
-1.93399
-0.00612218
-0.0411419
-0.0761924
-0.111233
-0.146272
-0.181314
-0.216359
-0.251405
-0.286452
-0.321499
-0.356546
-0.391592
-0.426639
-0.461685
-0.49673
-0.531776
-0.566821
-0.601867
-0.636912
-0.671956
-0.707001
-0.742045
-0.77709
-0.812134
-0.847178
-0.882222
-0.917265
-0.952309
-0.987353
-1.0224
-1.05744
-1.09248
-1.12753
-1.16257
-1.19762
-1.23266
-1.2677
-1.30275
-1.33779
-1.37284
-1.40789
-1.44294
-1.47799
-1.51304
-1.54809
-1.58314
-1.6182
-1.65326
-1.68833
-1.7234
-1.75847
-1.79356
-1.82866
-1.86376
-1.89891
-1.93399
-0.0061648
-0.041143
-0.0761929
-0.111233
-0.146272
-0.181315
-0.21636
-0.251406
-0.286452
-0.321499
-0.356546
-0.391592
-0.426639
-0.461685
-0.49673
-0.531776
-0.566821
-0.601867
-0.636912
-0.671956
-0.707001
-0.742045
-0.77709
-0.812134
-0.847178
-0.882222
-0.917265
-0.952309
-0.987353
-1.0224
-1.05744
-1.09248
-1.12753
-1.16257
-1.19762
-1.23266
-1.2677
-1.30275
-1.33779
-1.37284
-1.40789
-1.44294
-1.47799
-1.51304
-1.54809
-1.58314
-1.6182
-1.65326
-1.68833
-1.7234
-1.75847
-1.79356
-1.82866
-1.86376
-1.89891
-1.93398
-0.00619712
-0.0411444
-0.0761938
-0.111234
-0.146273
-0.181315
-0.21636
-0.251406
-0.286452
-0.321499
-0.356546
-0.391592
-0.426639
-0.461685
-0.496731
-0.531776
-0.566821
-0.601867
-0.636912
-0.671956
-0.707001
-0.742045
-0.77709
-0.812134
-0.847178
-0.882222
-0.917265
-0.952309
-0.987353
-1.0224
-1.05744
-1.09248
-1.12753
-1.16257
-1.19762
-1.23266
-1.2677
-1.30275
-1.33779
-1.37284
-1.40789
-1.44294
-1.47799
-1.51304
-1.54809
-1.58314
-1.6182
-1.65326
-1.68833
-1.7234
-1.75847
-1.79356
-1.82866
-1.86376
-1.89891
-1.93398
-0.00622312
-0.0411461
-0.0761947
-0.111235
-0.146273
-0.181316
-0.21636
-0.251406
-0.286453
-0.321499
-0.356546
-0.391592
-0.426639
-0.461685
-0.496731
-0.531776
-0.566822
-0.601867
-0.636912
-0.671956
-0.707001
-0.742045
-0.77709
-0.812134
-0.847178
-0.882222
-0.917265
-0.952309
-0.987353
-1.0224
-1.05744
-1.09248
-1.12753
-1.16257
-1.19762
-1.23266
-1.2677
-1.30275
-1.33779
-1.37284
-1.40789
-1.44294
-1.47799
-1.51304
-1.54809
-1.58314
-1.6182
-1.65326
-1.68833
-1.7234
-1.75847
-1.79356
-1.82866
-1.86376
-1.89891
-1.93398
-0.00624513
-0.041148
-0.0761954
-0.111235
-0.146274
-0.181316
-0.216361
-0.251407
-0.286453
-0.3215
-0.356546
-0.391593
-0.426639
-0.461685
-0.496731
-0.531776
-0.566822
-0.601867
-0.636912
-0.671956
-0.707001
-0.742045
-0.77709
-0.812134
-0.847178
-0.882222
-0.917265
-0.952309
-0.987353
-1.0224
-1.05744
-1.09248
-1.12753
-1.16257
-1.19762
-1.23266
-1.2677
-1.30275
-1.33779
-1.37284
-1.40789
-1.44294
-1.47799
-1.51304
-1.54809
-1.58314
-1.6182
-1.65326
-1.68833
-1.7234
-1.75847
-1.79356
-1.82866
-1.86376
-1.89891
-1.93398
-0.00626378
-0.0411503
-0.0761957
-0.111236
-0.146274
-0.181317
-0.216361
-0.251407
-0.286453
-0.3215
-0.356546
-0.391593
-0.426639
-0.461685
-0.496731
-0.531776
-0.566822
-0.601867
-0.636912
-0.671956
-0.707001
-0.742045
-0.77709
-0.812134
-0.847178
-0.882222
-0.917265
-0.952309
-0.987353
-1.0224
-1.05744
-1.09248
-1.12753
-1.16257
-1.19762
-1.23266
-1.2677
-1.30275
-1.33779
-1.37284
-1.40789
-1.44294
-1.47799
-1.51304
-1.54809
-1.58314
-1.6182
-1.65326
-1.68833
-1.7234
-1.75847
-1.79356
-1.82866
-1.86376
-1.89891
-1.93398
-0.00627909
-0.0411532
-0.0761959
-0.111236
-0.146275
-0.181317
-0.216362
-0.251407
-0.286454
-0.3215
-0.356547
-0.391593
-0.426639
-0.461685
-0.496731
-0.531776
-0.566822
-0.601867
-0.636912
-0.671957
-0.707001
-0.742045
-0.77709
-0.812134
-0.847178
-0.882222
-0.917265
-0.952309
-0.987353
-1.0224
-1.05744
-1.09248
-1.12753
-1.16257
-1.19762
-1.23266
-1.2677
-1.30275
-1.33779
-1.37284
-1.40789
-1.44294
-1.47799
-1.51304
-1.54809
-1.58314
-1.6182
-1.65326
-1.68833
-1.7234
-1.75847
-1.79356
-1.82866
-1.86376
-1.89891
-1.93397
-0.00629096
-0.0411569
-0.0761963
-0.111236
-0.146275
-0.181317
-0.216362
-0.251408
-0.286454
-0.3215
-0.356547
-0.391593
-0.426639
-0.461685
-0.496731
-0.531776
-0.566822
-0.601867
-0.636912
-0.671957
-0.707001
-0.742045
-0.77709
-0.812134
-0.847178
-0.882222
-0.917265
-0.952309
-0.987353
-1.0224
-1.05744
-1.09248
-1.12753
-1.16257
-1.19762
-1.23266
-1.2677
-1.30275
-1.33779
-1.37284
-1.40789
-1.44294
-1.47799
-1.51304
-1.54809
-1.58314
-1.6182
-1.65326
-1.68833
-1.7234
-1.75847
-1.79356
-1.82865
-1.86376
-1.8989
-1.93397
-0.00629936
-0.0411616
-0.076197
-0.111237
-0.146275
-0.181317
-0.216362
-0.251408
-0.286454
-0.3215
-0.356547
-0.391593
-0.426639
-0.461685
-0.496731
-0.531776
-0.566822
-0.601867
-0.636912
-0.671957
-0.707001
-0.742045
-0.77709
-0.812134
-0.847178
-0.882221
-0.917265
-0.952309
-0.987352
-1.0224
-1.05744
-1.09248
-1.12753
-1.16257
-1.19762
-1.23266
-1.2677
-1.30275
-1.33779
-1.37284
-1.40789
-1.44294
-1.47799
-1.51304
-1.54809
-1.58314
-1.6182
-1.65326
-1.68833
-1.7234
-1.75847
-1.79356
-1.82865
-1.86375
-1.8989
-1.93396
-0.0063044
-0.0411672
-0.0761983
-0.111237
-0.146275
-0.181318
-0.216362
-0.251408
-0.286454
-0.3215
-0.356547
-0.391593
-0.426639
-0.461685
-0.496731
-0.531776
-0.566822
-0.601867
-0.636912
-0.671956
-0.707001
-0.742045
-0.77709
-0.812134
-0.847178
-0.882221
-0.917265
-0.952309
-0.987352
-1.0224
-1.05744
-1.09248
-1.12753
-1.16257
-1.19761
-1.23266
-1.2677
-1.30275
-1.33779
-1.37284
-1.40789
-1.44294
-1.47799
-1.51304
-1.54809
-1.58314
-1.6182
-1.65326
-1.68833
-1.7234
-1.75847
-1.79356
-1.82865
-1.86375
-1.8989
-1.93396
-0.00630633
-0.0411733
-0.0762002
-0.111238
-0.146276
-0.181318
-0.216362
-0.251408
-0.286454
-0.3215
-0.356547
-0.391593
-0.426639
-0.461685
-0.496731
-0.531776
-0.566822
-0.601867
-0.636912
-0.671956
-0.707001
-0.742045
-0.77709
-0.812134
-0.847178
-0.882221
-0.917265
-0.952309
-0.987352
-1.0224
-1.05744
-1.09248
-1.12753
-1.16257
-1.19761
-1.23266
-1.2677
-1.30275
-1.33779
-1.37284
-1.40789
-1.44294
-1.47799
-1.51304
-1.54809
-1.58314
-1.6182
-1.65326
-1.68833
-1.7234
-1.75847
-1.79356
-1.82865
-1.86375
-1.89889
-1.93395
-0.00630554
-0.0411797
-0.0762026
-0.11124
-0.146277
-0.181318
-0.216363
-0.251408
-0.286454
-0.3215
-0.356547
-0.391593
-0.426639
-0.461685
-0.496731
-0.531776
-0.566822
-0.601867
-0.636912
-0.671956
-0.707001
-0.742045
-0.777089
-0.812133
-0.847177
-0.882221
-0.917265
-0.952309
-0.987352
-1.0224
-1.05744
-1.09248
-1.12753
-1.16257
-1.19761
-1.23266
-1.2677
-1.30275
-1.33779
-1.37284
-1.40789
-1.44294
-1.47799
-1.51304
-1.54809
-1.58314
-1.6182
-1.65326
-1.68833
-1.7234
-1.75847
-1.79355
-1.82865
-1.86375
-1.89889
-1.93395
-0.00630246
-0.041186
-0.0762054
-0.111241
-0.146278
-0.181319
-0.216363
-0.251408
-0.286454
-0.3215
-0.356547
-0.391593
-0.426639
-0.461685
-0.496731
-0.531776
-0.566821
-0.601867
-0.636911
-0.671956
-0.707001
-0.742045
-0.777089
-0.812133
-0.847177
-0.882221
-0.917265
-0.952309
-0.987352
-1.0224
-1.05744
-1.09248
-1.12753
-1.16257
-1.19761
-1.23266
-1.2677
-1.30275
-1.33779
-1.37284
-1.40789
-1.44294
-1.47799
-1.51304
-1.54809
-1.58314
-1.6182
-1.65326
-1.68833
-1.7234
-1.75847
-1.79355
-1.82865
-1.86375
-1.89888
-1.93394
-0.00629751
-0.0411921
-0.0762083
-0.111243
-0.146279
-0.18132
-0.216364
-0.251409
-0.286454
-0.3215
-0.356547
-0.391593
-0.426639
-0.461685
-0.49673
-0.531776
-0.566821
-0.601866
-0.636911
-0.671956
-0.707001
-0.742045
-0.777089
-0.812133
-0.847177
-0.882221
-0.917265
-0.952308
-0.987352
-1.0224
-1.05744
-1.09248
-1.12753
-1.16257
-1.19761
-1.23266
-1.2677
-1.30275
-1.33779
-1.37284
-1.40789
-1.44294
-1.47799
-1.51304
-1.54809
-1.58314
-1.6182
-1.65326
-1.68833
-1.72339
-1.75847
-1.79355
-1.82865
-1.86374
-1.89888
-1.93394
-0.00629112
-0.0411975
-0.0762114
-0.111245
-0.146281
-0.181321
-0.216364
-0.251409
-0.286455
-0.321501
-0.356547
-0.391593
-0.426639
-0.461685
-0.49673
-0.531776
-0.566821
-0.601866
-0.636911
-0.671956
-0.707
-0.742045
-0.777089
-0.812133
-0.847177
-0.882221
-0.917265
-0.952308
-0.987352
-1.0224
-1.05744
-1.09248
-1.12753
-1.16257
-1.19761
-1.23266
-1.2677
-1.30275
-1.33779
-1.37284
-1.40789
-1.44294
-1.47798
-1.51304
-1.54809
-1.58314
-1.6182
-1.65326
-1.68832
-1.72339
-1.75847
-1.79355
-1.82864
-1.86374
-1.89887
-1.93393
-0.00628387
-0.0412023
-0.0762144
-0.111247
-0.146282
-0.181322
-0.216365
-0.25141
-0.286455
-0.321501
-0.356547
-0.391593
-0.426639
-0.461685
-0.49673
-0.531776
-0.566821
-0.601866
-0.636911
-0.671956
-0.707
-0.742045
-0.777089
-0.812133
-0.847177
-0.882221
-0.917264
-0.952308
-0.987352
-1.0224
-1.05744
-1.09248
-1.12753
-1.16257
-1.19761
-1.23266
-1.2677
-1.30275
-1.33779
-1.37284
-1.40789
-1.44294
-1.47798
-1.51303
-1.54809
-1.58314
-1.6182
-1.65326
-1.68832
-1.72339
-1.75847
-1.79355
-1.82864
-1.86373
-1.89886
-1.93392
-0.00627651
-0.0412063
-0.0762173
-0.111249
-0.146284
-0.181324
-0.216366
-0.25141
-0.286456
-0.321501
-0.356547
-0.391593
-0.426639
-0.461685
-0.49673
-0.531776
-0.566821
-0.601866
-0.636911
-0.671955
-0.707
-0.742044
-0.777089
-0.812133
-0.847177
-0.88222
-0.917264
-0.952308
-0.987351
-1.02239
-1.05744
-1.09248
-1.12753
-1.16257
-1.19761
-1.23266
-1.2677
-1.30275
-1.33779
-1.37284
-1.40789
-1.44293
-1.47798
-1.51303
-1.54809
-1.58314
-1.6182
-1.65326
-1.68832
-1.72339
-1.75847
-1.79355
-1.82864
-1.86373
-1.89886
-1.93391
-0.00626953
-0.0412097
-0.0762202
-0.111251
-0.146286
-0.181325
-0.216367
-0.251411
-0.286456
-0.321502
-0.356547
-0.391593
-0.426639
-0.461685
-0.49673
-0.531775
-0.566821
-0.601866
-0.636911
-0.671955
-0.707
-0.742044
-0.777088
-0.812132
-0.847176
-0.88222
-0.917264
-0.952308
-0.987351
-1.02239
-1.05744
-1.09248
-1.12753
-1.16257
-1.19761
-1.23266
-1.2677
-1.30275
-1.33779
-1.37284
-1.40789
-1.44293
-1.47798
-1.51303
-1.54809
-1.58314
-1.6182
-1.65326
-1.68832
-1.72339
-1.75846
-1.79354
-1.82863
-1.86373
-1.89885
-1.93391
-0.00626306
-0.0412126
-0.0762229
-0.111253
-0.146287
-0.181326
-0.216368
-0.251412
-0.286457
-0.321502
-0.356548
-0.391593
-0.426639
-0.461685
-0.49673
-0.531775
-0.566821
-0.601866
-0.63691
-0.671955
-0.707
-0.742044
-0.777088
-0.812132
-0.847176
-0.88222
-0.917264
-0.952307
-0.987351
-1.02239
-1.05744
-1.09248
-1.12753
-1.16257
-1.19761
-1.23266
-1.2677
-1.30275
-1.33779
-1.37284
-1.40789
-1.44293
-1.47798
-1.51303
-1.54809
-1.58314
-1.6182
-1.65326
-1.68832
-1.72339
-1.75846
-1.79354
-1.82863
-1.86372
-1.89884
-1.9339
-0.00625703
-0.0412151
-0.0762255
-0.111255
-0.146289
-0.181328
-0.21637
-0.251413
-0.286458
-0.321503
-0.356548
-0.391594
-0.426639
-0.461685
-0.49673
-0.531776
-0.566821
-0.601866
-0.63691
-0.671955
-0.706999
-0.742044
-0.777088
-0.812132
-0.847176
-0.88222
-0.917263
-0.952307
-0.987351
-1.02239
-1.05744
-1.09248
-1.12753
-1.16257
-1.19761
-1.23266
-1.2677
-1.30275
-1.33779
-1.37284
-1.40789
-1.44293
-1.47798
-1.51303
-1.54808
-1.58314
-1.6182
-1.65325
-1.68832
-1.72339
-1.75846
-1.79354
-1.82863
-1.86372
-1.89883
-1.93389
-0.00625132
-0.0412171
-0.0762278
-0.111257
-0.146291
-0.181329
-0.216371
-0.251414
-0.286458
-0.321503
-0.356549
-0.391594
-0.42664
-0.461685
-0.496731
-0.531776
-0.566821
-0.601866
-0.63691
-0.671955
-0.706999
-0.742044
-0.777088
-0.812132
-0.847176
-0.88222
-0.917263
-0.952307
-0.98735
-1.02239
-1.05744
-1.09248
-1.12752
-1.16257
-1.19761
-1.23266
-1.2677
-1.30275
-1.33779
-1.37284
-1.40788
-1.44293
-1.47798
-1.51303
-1.54808
-1.58314
-1.61819
-1.65325
-1.68832
-1.72338
-1.75846
-1.79353
-1.82862
-1.86371
-1.89882
-1.93388
-0.00624589
-0.0412189
-0.07623
-0.111259
-0.146292
-0.181331
-0.216372
-0.251415
-0.286459
-0.321504
-0.356549
-0.391595
-0.42664
-0.461686
-0.496731
-0.531776
-0.566821
-0.601866
-0.636911
-0.671955
-0.707
-0.742044
-0.777088
-0.812132
-0.847176
-0.882219
-0.917263
-0.952307
-0.98735
-1.02239
-1.05744
-1.09248
-1.12752
-1.16257
-1.19761
-1.23266
-1.2677
-1.30275
-1.33779
-1.37284
-1.40788
-1.44293
-1.47798
-1.51303
-1.54808
-1.58314
-1.61819
-1.65325
-1.68831
-1.72338
-1.75845
-1.79353
-1.82862
-1.8637
-1.89881
-1.93387
-0.00624071
-0.0412202
-0.0762321
-0.111261
-0.146294
-0.181332
-0.216373
-0.251416
-0.28646
-0.321505
-0.35655
-0.391595
-0.426641
-0.461686
-0.496731
-0.531776
-0.566821
-0.601866
-0.636911
-0.671955
-0.707
-0.742044
-0.777088
-0.812132
-0.847176
-0.882219
-0.917263
-0.952307
-0.98735
-1.02239
-1.05744
-1.09248
-1.12752
-1.16257
-1.19761
-1.23266
-1.2677
-1.30275
-1.33779
-1.37284
-1.40788
-1.44293
-1.47798
-1.51303
-1.54808
-1.58314
-1.61819
-1.65325
-1.68831
-1.72338
-1.75845
-1.79353
-1.82861
-1.8637
-1.8988
-1.93386
-0.00623577
-0.0412213
-0.0762339
-0.111262
-0.146295
-0.181333
-0.216374
-0.251417
-0.286461
-0.321505
-0.35655
-0.391596
-0.426641
-0.461686
-0.496731
-0.531776
-0.566821
-0.601866
-0.636911
-0.671955
-0.707
-0.742044
-0.777088
-0.812132
-0.847176
-0.88222
-0.917263
-0.952307
-0.98735
-1.02239
-1.05744
-1.09248
-1.12752
-1.16257
-1.19761
-1.23266
-1.2677
-1.30275
-1.33779
-1.37284
-1.40788
-1.44293
-1.47798
-1.51303
-1.54808
-1.58313
-1.61819
-1.65325
-1.68831
-1.72338
-1.75845
-1.79352
-1.8286
-1.86369
-1.89879
-1.93385
-0.00623108
-0.0412222
-0.0762355
-0.111264
-0.146297
-0.181334
-0.216375
-0.251418
-0.286461
-0.321506
-0.356551
-0.391596
-0.426641
-0.461686
-0.496732
-0.531777
-0.566822
-0.601866
-0.636911
-0.671956
-0.707
-0.742044
-0.777088
-0.812132
-0.847176
-0.88222
-0.917263
-0.952307
-0.98735
-1.02239
-1.05744
-1.09248
-1.12752
-1.16257
-1.19761
-1.23266
-1.2677
-1.30274
-1.33779
-1.37284
-1.40788
-1.44293
-1.47798
-1.51303
-1.54808
-1.58313
-1.61819
-1.65325
-1.68831
-1.72337
-1.75844
-1.79352
-1.8286
-1.86368
-1.89878
-1.93383
-0.00622661
-0.0412228
-0.076237
-0.111265
-0.146298
-0.181336
-0.216376
-0.251418
-0.286462
-0.321506
-0.356551
-0.391596
-0.426642
-0.461687
-0.496732
-0.531777
-0.566822
-0.601867
-0.636911
-0.671956
-0.707
-0.742044
-0.777088
-0.812132
-0.847176
-0.88222
-0.917263
-0.952307
-0.98735
-1.02239
-1.05744
-1.09248
-1.12752
-1.16257
-1.19761
-1.23266
-1.2677
-1.30274
-1.33779
-1.37284
-1.40788
-1.44293
-1.47798
-1.51303
-1.54808
-1.58313
-1.61819
-1.65324
-1.68831
-1.72337
-1.75844
-1.79351
-1.82859
-1.86367
-1.89876
-1.93382
-0.00622236
-0.0412231
-0.0762384
-0.111267
-0.1463
-0.181337
-0.216377
-0.251419
-0.286463
-0.321507
-0.356552
-0.391597
-0.426642
-0.461687
-0.496732
-0.531777
-0.566822
-0.601867
-0.636911
-0.671956
-0.707
-0.742044
-0.777088
-0.812132
-0.847176
-0.88222
-0.917263
-0.952307
-0.98735
-1.02239
-1.05744
-1.09248
-1.12752
-1.16257
-1.19761
-1.23266
-1.2677
-1.30274
-1.33779
-1.37284
-1.40788
-1.44293
-1.47798
-1.51303
-1.54808
-1.58313
-1.61818
-1.65324
-1.6883
-1.72337
-1.75843
-1.79351
-1.82858
-1.86366
-1.89875
-1.93381
-0.00621832
-0.0412233
-0.0762396
-0.111268
-0.146301
-0.181338
-0.216378
-0.25142
-0.286463
-0.321507
-0.356552
-0.391597
-0.426642
-0.461687
-0.496732
-0.531777
-0.566822
-0.601867
-0.636911
-0.671956
-0.707
-0.742044
-0.777088
-0.812132
-0.847176
-0.88222
-0.917263
-0.952307
-0.98735
-1.02239
-1.05744
-1.09248
-1.12752
-1.16257
-1.19761
-1.23266
-1.2677
-1.30274
-1.33779
-1.37283
-1.40788
-1.44293
-1.47798
-1.51303
-1.54808
-1.58313
-1.61818
-1.65324
-1.6883
-1.72336
-1.75843
-1.7935
-1.82858
-1.86365
-1.89874
-1.93379
-0.00621448
-0.0412233
-0.0762407
-0.111269
-0.146302
-0.181339
-0.216379
-0.251421
-0.286464
-0.321508
-0.356552
-0.391597
-0.426642
-0.461687
-0.496732
-0.531777
-0.566822
-0.601867
-0.636912
-0.671956
-0.707
-0.742044
-0.777088
-0.812132
-0.847176
-0.88222
-0.917263
-0.952307
-0.98735
-1.02239
-1.05744
-1.09248
-1.12752
-1.16257
-1.19761
-1.23265
-1.2677
-1.30274
-1.33779
-1.37283
-1.40788
-1.44293
-1.47798
-1.51302
-1.54807
-1.58313
-1.61818
-1.65324
-1.6883
-1.72336
-1.75843
-1.79349
-1.82857
-1.86364
-1.89873
-1.93378
-0.00621083
-0.0412231
-0.0762417
-0.11127
-0.146303
-0.18134
-0.21638
-0.251421
-0.286464
-0.321508
-0.356553
-0.391598
-0.426642
-0.461687
-0.496732
-0.531777
-0.566822
-0.601867
-0.636912
-0.671956
-0.707
-0.742044
-0.777088
-0.812132
-0.847176
-0.88222
-0.917263
-0.952307
-0.98735
-1.02239
-1.05744
-1.09248
-1.12752
-1.16257
-1.19761
-1.23265
-1.2677
-1.30274
-1.33779
-1.37283
-1.40788
-1.44293
-1.47797
-1.51302
-1.54807
-1.58313
-1.61818
-1.65324
-1.68829
-1.72336
-1.75842
-1.79349
-1.82856
-1.86363
-1.89871
-1.93377
-0.00620735
-0.0412228
-0.0762426
-0.111271
-0.146304
-0.181341
-0.216381
-0.251422
-0.286465
-0.321509
-0.356553
-0.391598
-0.426643
-0.461688
-0.496733
-0.531777
-0.566822
-0.601867
-0.636912
-0.671956
-0.707
-0.742044
-0.777088
-0.812132
-0.847176
-0.88222
-0.917263
-0.952307
-0.98735
-1.02239
-1.05744
-1.09248
-1.12752
-1.16257
-1.19761
-1.23265
-1.2677
-1.30274
-1.33779
-1.37283
-1.40788
-1.44293
-1.47797
-1.51302
-1.54807
-1.58312
-1.61818
-1.65323
-1.68829
-1.72335
-1.75841
-1.79348
-1.82855
-1.86362
-1.8987
-1.93375
-0.00620404
-0.0412224
-0.0762433
-0.111272
-0.146305
-0.181342
-0.216381
-0.251423
-0.286465
-0.321509
-0.356553
-0.391598
-0.426643
-0.461688
-0.496733
-0.531777
-0.566822
-0.601867
-0.636912
-0.671956
-0.707
-0.742044
-0.777088
-0.812132
-0.847176
-0.88222
-0.917263
-0.952307
-0.98735
-1.02239
-1.05744
-1.09248
-1.12752
-1.16257
-1.19761
-1.23265
-1.2677
-1.30274
-1.33779
-1.37283
-1.40788
-1.44292
-1.47797
-1.51302
-1.54807
-1.58312
-1.61817
-1.65323
-1.68829
-1.72335
-1.75841
-1.79347
-1.82854
-1.86361
-1.89868
-1.93374
-0.00620089
-0.0412218
-0.0762439
-0.111273
-0.146306
-0.181343
-0.216382
-0.251423
-0.286466
-0.321509
-0.356554
-0.391598
-0.426643
-0.461688
-0.496733
-0.531777
-0.566822
-0.601867
-0.636911
-0.671956
-0.707
-0.742044
-0.777088
-0.812132
-0.847176
-0.88222
-0.917263
-0.952307
-0.98735
-1.02239
-1.05744
-1.09248
-1.12752
-1.16257
-1.19761
-1.23265
-1.2677
-1.30274
-1.33779
-1.37283
-1.40788
-1.44292
-1.47797
-1.51302
-1.54807
-1.58312
-1.61817
-1.65323
-1.68828
-1.72334
-1.7584
-1.79347
-1.82853
-1.8636
-1.89867
-1.93372
-0.00619788
-0.0412212
-0.0762445
-0.111274
-0.146307
-0.181344
-0.216383
-0.251424
-0.286466
-0.32151
-0.356554
-0.391598
-0.426643
-0.461688
-0.496733
-0.531777
-0.566822
-0.601867
-0.636911
-0.671956
-0.707
-0.742044
-0.777088
-0.812132
-0.847176
-0.882219
-0.917263
-0.952306
-0.98735
-1.02239
-1.05744
-1.09248
-1.12752
-1.16257
-1.19761
-1.23265
-1.2677
-1.30274
-1.33779
-1.37283
-1.40788
-1.44292
-1.47797
-1.51302
-1.54807
-1.58312
-1.61817
-1.65322
-1.68828
-1.72334
-1.7584
-1.79346
-1.82852
-1.86359
-1.89865
-1.9337
-0.00619501
-0.0412204
-0.0762449
-0.111275
-0.146308
-0.181345
-0.216384
-0.251425
-0.286467
-0.32151
-0.356554
-0.391599
-0.426643
-0.461688
-0.496733
-0.531777
-0.566822
-0.601867
-0.636911
-0.671956
-0.707
-0.742044
-0.777088
-0.812132
-0.847176
-0.882219
-0.917263
-0.952306
-0.98735
-1.02239
-1.05744
-1.09248
-1.12752
-1.16257
-1.19761
-1.23265
-1.2677
-1.30274
-1.33779
-1.37283
-1.40788
-1.44292
-1.47797
-1.51302
-1.54806
-1.58311
-1.61817
-1.65322
-1.68827
-1.72333
-1.75839
-1.79345
-1.82851
-1.86358
-1.89864
-1.93369
-0.00619226
-0.0412196
-0.0762453
-0.111275
-0.146309
-0.181345
-0.216384
-0.251425
-0.286467
-0.321511
-0.356554
-0.391599
-0.426643
-0.461688
-0.496733
-0.531777
-0.566822
-0.601867
-0.636911
-0.671956
-0.707
-0.742044
-0.777088
-0.812132
-0.847176
-0.882219
-0.917263
-0.952306
-0.987349
-1.02239
-1.05744
-1.09248
-1.12752
-1.16257
-1.19761
-1.23265
-1.2677
-1.30274
-1.33778
-1.37283
-1.40787
-1.44292
-1.47797
-1.51301
-1.54806
-1.58311
-1.61816
-1.65322
-1.68827
-1.72333
-1.75838
-1.79344
-1.8285
-1.86356
-1.89862
-1.93367
-0.00618964
-0.0412188
-0.0762456
-0.111276
-0.14631
-0.181346
-0.216385
-0.251426
-0.286468
-0.321511
-0.356555
-0.391599
-0.426643
-0.461688
-0.496733
-0.531777
-0.566822
-0.601867
-0.636911
-0.671956
-0.707
-0.742044
-0.777088
-0.812132
-0.847175
-0.882219
-0.917263
-0.952306
-0.987349
-1.02239
-1.05744
-1.09248
-1.12752
-1.16257
-1.19761
-1.23265
-1.2677
-1.30274
-1.33778
-1.37283
-1.40787
-1.44292
-1.47796
-1.51301
-1.54806
-1.58311
-1.61816
-1.65321
-1.68826
-1.72332
-1.75838
-1.79343
-1.82849
-1.86355
-1.89861
-1.93365
-0.00618713
-0.0412179
-0.0762458
-0.111277
-0.146311
-0.181347
-0.216386
-0.251426
-0.286468
-0.321511
-0.356555
-0.391599
-0.426643
-0.461688
-0.496733
-0.531777
-0.566822
-0.601867
-0.636911
-0.671956
-0.707
-0.742044
-0.777088
-0.812132
-0.847175
-0.882219
-0.917262
-0.952306
-0.987349
-1.02239
-1.05744
-1.09248
-1.12752
-1.16256
-1.19761
-1.23265
-1.26769
-1.30274
-1.33778
-1.37283
-1.40787
-1.44292
-1.47796
-1.51301
-1.54806
-1.58311
-1.61816
-1.65321
-1.68826
-1.72331
-1.75837
-1.79342
-1.82848
-1.86354
-1.89859
-1.93363
-0.00618472
-0.0412171
-0.0762459
-0.111277
-0.146311
-0.181348
-0.216387
-0.251427
-0.286469
-0.321512
-0.356555
-0.391599
-0.426644
-0.461688
-0.496733
-0.531777
-0.566822
-0.601867
-0.636911
-0.671955
-0.707
-0.742044
-0.777088
-0.812131
-0.847175
-0.882219
-0.917262
-0.952305
-0.987349
-1.02239
-1.05744
-1.09248
-1.12752
-1.16256
-1.19761
-1.23265
-1.26769
-1.30274
-1.33778
-1.37283
-1.40787
-1.44292
-1.47796
-1.51301
-1.54805
-1.5831
-1.61815
-1.6532
-1.68825
-1.72331
-1.75836
-1.79341
-1.82847
-1.86352
-1.89857
-1.93361
-0.0061824
-0.0412162
-0.0762461
-0.111278
-0.146312
-0.181349
-0.216387
-0.251428
-0.286469
-0.321512
-0.356555
-0.391599
-0.426644
-0.461688
-0.496733
-0.531777
-0.566822
-0.601867
-0.636911
-0.671955
-0.707
-0.742044
-0.777088
-0.812131
-0.847175
-0.882219
-0.917262
-0.952305
-0.987348
-1.02239
-1.05743
-1.09248
-1.12752
-1.16256
-1.19761
-1.23265
-1.26769
-1.30274
-1.33778
-1.37282
-1.40787
-1.44291
-1.47796
-1.51301
-1.54805
-1.5831
-1.61815
-1.6532
-1.68825
-1.7233
-1.75835
-1.7934
-1.82846
-1.86351
-1.89855
-1.93359
-0.00618018
-0.0412154
-0.0762461
-0.111278
-0.146313
-0.181349
-0.216388
-0.251428
-0.28647
-0.321512
-0.356556
-0.3916
-0.426644
-0.461688
-0.496733
-0.531777
-0.566822
-0.601866
-0.636911
-0.671955
-0.706999
-0.742043
-0.777087
-0.812131
-0.847175
-0.882218
-0.917262
-0.952305
-0.987348
-1.02239
-1.05743
-1.09248
-1.12752
-1.16256
-1.19761
-1.23265
-1.26769
-1.30274
-1.33778
-1.37282
-1.40787
-1.44291
-1.47796
-1.513
-1.54805
-1.5831
-1.61814
-1.65319
-1.68824
-1.72329
-1.75834
-1.79339
-1.82844
-1.86349
-1.89854
-1.93357
-0.00617805
-0.0412146
-0.0762462
-0.111278
-0.146313
-0.18135
-0.216388
-0.251429
-0.28647
-0.321513
-0.356556
-0.3916
-0.426644
-0.461688
-0.496733
-0.531777
-0.566822
-0.601866
-0.636911
-0.671955
-0.706999
-0.742043
-0.777087
-0.812131
-0.847175
-0.882218
-0.917262
-0.952305
-0.987348
-1.02239
-1.05743
-1.09248
-1.12752
-1.16256
-1.19761
-1.23265
-1.26769
-1.30274
-1.33778
-1.37282
-1.40787
-1.44291
-1.47795
-1.513
-1.54805
-1.58309
-1.61814
-1.65319
-1.68823
-1.72328
-1.75833
-1.79338
-1.82843
-1.86348
-1.89852
-1.93355
-0.006176
-0.0412139
-0.0762462
-0.111279
-0.146314
-0.18135
-0.216389
-0.251429
-0.286471
-0.321513
-0.356556
-0.3916
-0.426644
-0.461689
-0.496733
-0.531777
-0.566822
-0.601866
-0.636911
-0.671955
-0.706999
-0.742043
-0.777087
-0.812131
-0.847174
-0.882218
-0.917261
-0.952305
-0.987348
-1.02239
-1.05743
-1.09248
-1.12752
-1.16256
-1.19761
-1.23265
-1.26769
-1.30273
-1.33778
-1.37282
-1.40786
-1.44291
-1.47795
-1.513
-1.54804
-1.58309
-1.61813
-1.65318
-1.68823
-1.72328
-1.75832
-1.79337
-1.82842
-1.86346
-1.8985
-1.93353
-0.00617407
-0.0412132
-0.0762463
-0.111279
-0.146314
-0.181351
-0.21639
-0.25143
-0.286471
-0.321514
-0.356557
-0.3916
-0.426644
-0.461689
-0.496733
-0.531778
-0.566822
-0.601866
-0.636911
-0.671955
-0.706999
-0.742043
-0.777087
-0.812131
-0.847174
-0.882218
-0.917261
-0.952304
-0.987347
-1.02239
-1.05743
-1.09248
-1.12752
-1.16256
-1.1976
-1.23265
-1.26769
-1.30273
-1.33778
-1.37282
-1.40786
-1.44291
-1.47795
-1.51299
-1.54804
-1.58308
-1.61813
-1.65317
-1.68822
-1.72327
-1.75831
-1.79336
-1.8284
-1.86344
-1.89848
-1.93351
-0.00617228
-0.0412127
-0.0762463
-0.111279
-0.146315
-0.181352
-0.21639
-0.25143
-0.286472
-0.321514
-0.356557
-0.391601
-0.426645
-0.461689
-0.496733
-0.531778
-0.566822
-0.601866
-0.636911
-0.671955
-0.706999
-0.742043
-0.777087
-0.812131
-0.847174
-0.882218
-0.917261
-0.952304
-0.987347
-1.02239
-1.05743
-1.09248
-1.12752
-1.16256
-1.1976
-1.23265
-1.26769
-1.30273
-1.33777
-1.37282
-1.40786
-1.4429
-1.47795
-1.51299
-1.54803
-1.58308
-1.61812
-1.65317
-1.68821
-1.72326
-1.7583
-1.79335
-1.82839
-1.86343
-1.89846
-1.93349
-0.00617069
-0.0412122
-0.0762464
-0.11128
-0.146315
-0.181352
-0.216391
-0.251431
-0.286472
-0.321514
-0.356557
-0.391601
-0.426645
-0.461689
-0.496733
-0.531778
-0.566822
-0.601867
-0.636911
-0.671955
-0.706999
-0.742043
-0.777087
-0.812131
-0.847174
-0.882217
-0.917261
-0.952304
-0.987347
-1.02239
-1.05743
-1.09248
-1.12752
-1.16256
-1.1976
-1.23265
-1.26769
-1.30273
-1.33777
-1.37282
-1.40786
-1.4429
-1.47794
-1.51299
-1.54803
-1.58307
-1.61812
-1.65316
-1.68821
-1.72325
-1.75829
-1.79333
-1.82837
-1.86341
-1.89844
-1.93347
-0.00616942
-0.0412119
-0.0762464
-0.11128
-0.146315
-0.181352
-0.216391
-0.251431
-0.286472
-0.321515
-0.356558
-0.391601
-0.426645
-0.461689
-0.496733
-0.531778
-0.566822
-0.601867
-0.636911
-0.671955
-0.706999
-0.742043
-0.777087
-0.81213
-0.847174
-0.882217
-0.917261
-0.952304
-0.987347
-1.02239
-1.05743
-1.09247
-1.12752
-1.16256
-1.1976
-1.23264
-1.26769
-1.30273
-1.33777
-1.37281
-1.40786
-1.4429
-1.47794
-1.51298
-1.54803
-1.58307
-1.61811
-1.65316
-1.6882
-1.72324
-1.75828
-1.79332
-1.82836
-1.86339
-1.89842
-1.93345
-0.00616863
-0.0412116
-0.0762464
-0.11128
-0.146316
-0.181353
-0.216391
-0.251431
-0.286473
-0.321515
-0.356558
-0.391601
-0.426645
-0.461689
-0.496734
-0.531778
-0.566822
-0.601867
-0.636911
-0.671955
-0.706999
-0.742043
-0.777087
-0.81213
-0.847174
-0.882217
-0.91726
-0.952303
-0.987346
-1.02239
-1.05743
-1.09247
-1.12752
-1.16256
-1.1976
-1.23264
-1.26769
-1.30273
-1.33777
-1.37281
-1.40785
-1.4429
-1.47794
-1.51298
-1.54802
-1.58306
-1.61811
-1.65315
-1.68819
-1.72323
-1.75827
-1.79331
-1.82834
-1.86337
-1.8984
-1.93343
-0.00616843
-0.0412114
-0.0762463
-0.11128
-0.146316
-0.181353
-0.216392
-0.251432
-0.286473
-0.321515
-0.356558
-0.391602
-0.426645
-0.461689
-0.496734
-0.531778
-0.566822
-0.601867
-0.636911
-0.671955
-0.706999
-0.742043
-0.777087
-0.81213
-0.847174
-0.882217
-0.91726
-0.952303
-0.987346
-1.02239
-1.05743
-1.09247
-1.12752
-1.16256
-1.1976
-1.23264
-1.26768
-1.30273
-1.33777
-1.37281
-1.40785
-1.44289
-1.47794
-1.51298
-1.54802
-1.58306
-1.6181
-1.65314
-1.68818
-1.72322
-1.75826
-1.79329
-1.82833
-1.86336
-1.89838
-1.93341
-0.00616882
-0.0412112
-0.0762462
-0.11128
-0.146316
-0.181353
-0.216392
-0.251432
-0.286473
-0.321515
-0.356558
-0.391602
-0.426646
-0.46169
-0.496734
-0.531778
-0.566823
-0.601867
-0.636911
-0.671955
-0.706999
-0.742043
-0.777087
-0.81213
-0.847174
-0.882217
-0.91726
-0.952303
-0.987346
-1.02239
-1.05743
-1.09247
-1.12752
-1.16256
-1.1976
-1.23264
-1.26768
-1.30273
-1.33777
-1.37281
-1.40785
-1.44289
-1.47793
-1.51297
-1.54801
-1.58305
-1.61809
-1.65313
-1.68817
-1.72321
-1.75825
-1.79328
-1.82831
-1.86334
-1.89836
-1.93339
-0.00616967
-0.0412112
-0.076246
-0.11128
-0.146316
-0.181353
-0.216392
-0.251432
-0.286473
-0.321515
-0.356558
-0.391602
-0.426646
-0.46169
-0.496734
-0.531778
-0.566823
-0.601867
-0.636911
-0.671955
-0.706999
-0.742043
-0.777087
-0.81213
-0.847174
-0.882217
-0.91726
-0.952303
-0.987346
-1.02239
-1.05743
-1.09247
-1.12752
-1.16256
-1.1976
-1.23264
-1.26768
-1.30272
-1.33777
-1.37281
-1.40785
-1.44289
-1.47793
-1.51297
-1.54801
-1.58305
-1.61809
-1.65313
-1.68816
-1.7232
-1.75824
-1.79327
-1.8283
-1.86332
-1.89834
-1.93337
-0.00617079
-0.0412112
-0.0762458
-0.11128
-0.146315
-0.181353
-0.216392
-0.251432
-0.286473
-0.321516
-0.356558
-0.391602
-0.426646
-0.46169
-0.496734
-0.531778
-0.566823
-0.601867
-0.636911
-0.671955
-0.706999
-0.742043
-0.777087
-0.81213
-0.847174
-0.882217
-0.91726
-0.952303
-0.987345
-1.02239
-1.05743
-1.09247
-1.12751
-1.16256
-1.1976
-1.23264
-1.26768
-1.30272
-1.33776
-1.3728
-1.40785
-1.44289
-1.47793
-1.51297
-1.54801
-1.58304
-1.61808
-1.65312
-1.68816
-1.72319
-1.75822
-1.79326
-1.82828
-1.86331
-1.89832
-1.93335
-0.00617205
-0.0412114
-0.0762456
-0.111279
-0.146315
-0.181353
-0.216392
-0.251432
-0.286473
-0.321516
-0.356559
-0.391602
-0.426646
-0.46169
-0.496734
-0.531779
-0.566823
-0.601867
-0.636911
-0.671955
-0.706999
-0.742043
-0.777087
-0.81213
-0.847174
-0.882217
-0.91726
-0.952303
-0.987345
-1.02239
-1.05743
-1.09247
-1.12751
-1.16256
-1.1976
-1.23264
-1.26768
-1.30272
-1.33776
-1.3728
-1.40784
-1.44288
-1.47792
-1.51296
-1.548
-1.58304
-1.61808
-1.65311
-1.68815
-1.72318
-1.75821
-1.79324
-1.82827
-1.86329
-1.89831
-1.93333
-0.0061734
-0.0412117
-0.0762454
-0.111279
-0.146315
-0.181352
-0.216391
-0.251432
-0.286473
-0.321516
-0.356559
-0.391602
-0.426646
-0.46169
-0.496734
-0.531779
-0.566823
-0.601867
-0.636912
-0.671956
-0.707
-0.742043
-0.777087
-0.81213
-0.847174
-0.882217
-0.91726
-0.952303
-0.987345
-1.02239
-1.05743
-1.09247
-1.12751
-1.16256
-1.1976
-1.23264
-1.26768
-1.30272
-1.33776
-1.3728
-1.40784
-1.44288
-1.47792
-1.51296
-1.548
-1.58304
-1.61807
-1.65311
-1.68814
-1.72318
-1.75821
-1.79323
-1.82826
-1.86328
-1.89829
-1.93331
-0.0061748
-0.041212
-0.0762453
-0.111279
-0.146315
-0.181352
-0.216391
-0.251432
-0.286473
-0.321516
-0.356559
-0.391602
-0.426646
-0.46169
-0.496735