/*--------------------------------*- C++ -*----------------------------------*\
  =========                 |
  \\      /  F ield         | OpenFOAM: The Open Source CFD Toolbox
   \\    /   O peration     | Website:  https://openfoam.org
    \\  /    A nd           | Version:  6
     \\/     M anipulation  |
\*---------------------------------------------------------------------------*/
FoamFile
{
    version     2.0;
    format      ascii;
    class       volScalarField;
    location    "./ITHACAoutput/Offline/1";
    object      p;
}
// * * * * * * * * * * * * * * * * * * * * * * * * * * * * * * * * * * * * * //

dimensions      [0 2 -2 0 0 0 0];

internalField   nonuniform List<scalar> 
145945
(
95.6531
84.0291
65.4301
40.4066
15.7646
-1.76119
-13.1756
-19.8474
-22.3435
-21.0418
-15.7124
-6.24522
8.30767
29.1802
53.9427
77.1643
89.3978
83.5961
64.2823
45.0869
26.833
10.0375
-2.9815
-12.26
-17.3994
-19.7258
-18.7954
-14.3868
-6.77331
4.24254
18.7969
35.4129
57.6282
77.3292
64.8868
44.6659
25.3092
10.6875
-0.828064
-9.84304
-16.3313
-20.7189
-21.9884
-21.6154
-18.2672
-12.9651
-5.26162
4.50253
17.0955
38.2284
59.3192
39.1526
26.1226
10.4213
-0.938572
-10.0558
-17.1651
-22.3519
-25.905
-27.3128
-26.7747
-24.0547
-19.9564
-13.3515
-6.48764
3.11582
20.1772
34.4243
14.8515
9.18906
-1.3143
-10.3023
-17.4456
-23.2361
-27.9621
-30.5913
-31.9741
-31.557
-29.6146
-25.6279
-20.742
-14.8455
-7.86282
4.10878
11.1209
-2.75625
-4.08652
-10.4646
-17.4465
-23.396
-28.5916
-32.6388
-35.1364
-36.5767
-36.0827
-34.3525
-31.2014
-26.8956
-21.6847
-16.29
-8.35932
-6.63959
-14.1408
-13.2009
-16.9768
-22.754
-27.8969
-32.7416
-36.4839
-39.3296
-40.2401
-39.9642
-38.3265
-35.0292
-31.4126
-27.3002
-22.9232
-17.0201
-17.7071
-20.9032
-17.9933
-21.3939
-26.3421
-30.6665
-35.1209
-39.3744
-41.7533
-42.9375
-42.7457
-40.6891
-37.7083
-34.5369
-30.7889
-26.5952
-22.5117
-24.3831
-23.2751
-20.4615
-22.7964
-27.6939
-32.2581
-36.7157
-40.2701
-42.895
-43.9558
-43.8007
-42.0625
-39.1534
-35.7038
-32.1558
-28.4169
-24.682
-26.7879
-21.9062
-19.424
-21.9947
-27.0595
-31.8827
-36.084
-39.9805
-42.4278
-43.7708
-43.6646
-41.4033
-38.9223
-35.2405
-31.3309
-27.6995
-23.778
-25.3662
-16.4983
-15.0186
-18.7679
-24.2138
-29.764
-34.1519
-37.9458
-40.6179
-41.5121
-41.3604
-39.7101
-36.9464
-33.0182
-28.921
-24.4735
-19.3803
-20.1049
-6.76117
-7.314
-13.2406
-20.1285
-25.7568
-30.7656
-34.5993
-37.4835
-38.9396
-38.5157
-36.7216
-33.4249
-28.988
-24.4583
-19.1061
-11.6673
-10.5118
8.0444
3.90626
-5.2457
-13.4775
-20.3707
-26.4214
-30.7621
-33.9354
-35.2901
-34.6707
-32.6582
-28.8123
-23.9737
-18.8531
-11.9955
-1.67829
4.2479
28.8318
18.7313
4.60328
-6.14135
-14.4428
-21.1329
-26.2992
-29.8835
-31.2472
-30.6366
-28.4732
-24.1589
-18.7157
-11.664
-2.39506
12.2757
24.7271
54.0163
35.731
17.315
3.52829
-7.16658
-15.5914
-21.8929
-25.8661
-27.5009
-26.8844
-23.644
-18.8837
-11.6396
-2.44845
9.59464
29.3662
48.793
77.6367
57.8995
38.8051
20.4911
4.86793
-7.71043
-16.2955
-21.8128
-24.2727
-23.0969
-18.7737
-11.3983
-1.36049
12.8127
29.3909
50.8531
70.9905
89.5375
77.7132
59.6232
34.8333
11.2785
-6.39249
-17.3226
-24.1019
-26.7278
-25.7407
-19.8524
-10.4232
4.42842
24.5596
48.8709
71.0498
83.4341
134.684
123.326
103.785
78.1157
52.7474
32.8285
19.3538
10.8526
7.56568
9.29777
15.9633
27.3268
44.5437
66.8374
92.1971
114.539
126.187
122.789
107.097
87.5405
67.7959
48.6894
32.7856
21.4269
14.8487
11.3858
12.9917
18.2238
27.6335
41.0709
58.6634
77.4252
98.6998
114.46
103.22
87.3543
69.6548
54.1999
40.6099
29.0971
20.4941
15.1087
13.0935
13.5802
17.8461
24.5051
34.0077
46.8126
61.2377
80.5026
96.2418
77.6574
67.6154
54.07
42.7479
32.9116
24.1358
18.1764
14.0845
12.0693
12.8616
15.5692
20.2561
27.7857
36.7672
46.9131
62.0694
72.2477
52.3933
48.3626
40.463
32.8045
25.8635
19.3066
14.5194
11.7127
10.1649
10.4695
12.3763
15.9483
20.9311
27.342
34.0419
43.4563
48.0383
32.5777
32.5498
28.9434
24.2791
19.4006
15.1981
11.1341
8.74389
7.52774
8.12988
9.13984
12.0118
15.6402
19.4785
23.8777
28.9986
29.077
19.2453
21.417
20.3407
18.2292
14.4494
11.3287
8.37952
6.34127
5.7319
5.44647
6.81485
8.64899
11.3647
13.7699
16.0142
18.4431
16.2885
11.0197
15.084
15.2231
14.1845
11.7902
8.7946
6.51544
5.29755
4.22256
4.15519
5.00064
6.10897
8.33053
10.3035
11.543
11.5518
8.52615
7.70179
11.5114
13.1323
12.2276
10.3547
7.77925
5.98062
4.25912
3.5531
3.42777
4.12264
5.33153
7.41082
8.83353
9.66854
9.5009
5.59199
9.58826
13.1757
13.9566
13.1522
10.7671
8.4512
5.86731
4.56026
3.56068
3.84066
4.54787
6.04594
7.7681
9.66196
10.6195
10.645
7.1972
16.142
18.3949
18.0784
15.9548
12.8075
9.57623
7.35239
5.28971
4.36463
4.61581
5.87907
7.35271
9.57811
12.3334
14.0977
15.6176
13.277
27.7176
28.0099
24.9465
20.9061
16.3762
12.5276
8.99082
6.64883
5.8328
6.23943
7.42072
9.69346
13.3467
16.7251
20.459
25.02
24.1403
44.7624
41.3549
34.3208
27.7443
21.0594
15.6343
11.5567
8.78555
7.63124
7.83432
9.69007
13.3139
17.8324
23.1792
29.1075
37.2245
40.4214
67.0505
58.5521
46.4619
36.4089
27.1535
19.1785
13.3737
10.1508
8.49867
9.47233
12.2534
16.4751
22.9001
30.7784
39.7837
52.8602
60.8596
92.0477
77.1602
60.7045
46.1949
33.3086
23.2187
15.0429
10.903
8.91357
9.79787
13.7193
19.6472
28.424
39.4845
52.0461
69.3631
83.438
113.997
97.6056
79.2684
60.3446
42.1277
27.5097
16.9981
10.308
8.01782
9.51114
14.2989
23.7144
36.1524
51.5054
68.9472
88.2295
103.207
125.176
113.478
94.866
70.3949
45.8586
26.98
13.7809
6.43699
3.63992
4.99693
11.6233
22.1934
38.564
59.126
82.2736
102.472
113.863
33.9978
28.5431
19.7361
7.64061
-4.77909
-15.3187
-23.3676
-28.1404
-30.1411
-29.3175
-25.4726
-18.9668
-9.38739
1.95939
14.0769
23.7319
28.93
29.0054
20.4313
12.2329
3.03609
-6.65956
-15.1311
-21.8875
-25.9475
-27.6871
-27.1918
-24.2814
-18.6413
-10.9644
-1.94254
7.18849
16.4176
23.9584
20.4804
12.5253
3.92585
-3.23534
-10.1501
-16.0669
-21.3876
-24.6038
-25.9675
-25.5565
-23.3286
-19.0176
-13.6893
-7.11325
-0.627707
8.28576
16.1021
8.67112
3.78977
-2.89735
-7.68355
-12.7324
-17.3573
-21.025
-23.9178
-24.9176
-24.6746
-23.0628
-19.8494
-15.9976
-11.2684
-6.80736
0.425415
4.89028
-3.33119
-5.50846
-9.32216
-12.389
-15.6381
-19.1887
-21.685
-23.5502
-24.8484
-24.548
-23.3648
-21.5395
-18.8574
-15.6052
-12.601
-8.44906
-7.01097
-13.4112
-13.6268
-14.9452
-16.5728
-18.599
-20.93
-23.0892
-24.5394
-25.3358
-24.7332
-24.5639
-22.9101
-21.3747
-19.7082
-18.0967
-16.2072
-16.6056
-21.3006
-20.0146
-20.179
-19.7074
-20.8487
-22.8129
-24.0356
-25.2799
-25.579
-26.3257
-25.3705
-24.6221
-23.4857
-22.7903
-21.8975
-22.3487
-23.5858
-25.7929
-23.9986
-22.7251
-22.3815
-22.3897
-23.7894
-24.8708
-25.743
-26.5638
-26.6276
-26.1387
-25.5373
-24.9034
-24.3217
-24.661
-26.0693
-28.2179
-27.6513
-25.4607
-23.9724
-23.0166
-23.3184
-24.1557
-24.9171
-26.1218
-26.8964
-26.8751
-26.4059
-25.9255
-25.3121
-25.0742
-25.5239
-27.1077
-29.237
-26.9064
-24.8668
-23.2766
-22.7579
-22.9556
-23.4746
-25.348
-26.0044
-26.6594
-26.448
-26.3062
-25.4106
-25.046
-24.6275
-24.8655
-26.3617
-28.4923
-22.8172
-21.882
-21.0169
-21.1073
-21.7373
-23.2465
-24.3065
-25.5669
-25.8424
-26.1504
-25.1775
-24.5098
-23.2378
-22.9257
-22.5191
-23.2207
-24.4963
-16.5844
-16.7567
-17.2782
-18.1562
-20.1582
-21.6589
-24.0266
-24.988
-25.5314
-25.1932
-24.3566
-23.2802
-21.7394
-20.011
-18.7011
-18.2153
-18.4864
-7.59165
-9.13242
-12.2979
-15.1347
-18.165
-20.7632
-23.0819
-24.8391
-25.3444
-25.3207
-23.6734
-21.9297
-19.2671
-16.4609
-14.1668
-11.1583
-10.2718
3.36147
-1.19937
-6.57709
-11.4044
-16.0642
-20.0334
-23.2713
-25.1596
-25.9051
-25.3546
-23.6804
-20.7261
-17.0469
-13.115
-9.27371
-3.60928
0.0264675
14.3411
6.74804
-1.28398
-7.79008
-13.8139
-19.7822
-23.6283
-26.4605
-27.1535
-26.4835
-23.9126
-20.0951
-15.4243
-9.94579
-4.4085
3.66735
10.1958
23.2019
15.5475
6.46998
-1.6433
-10.8303
-18.4802
-24.8164
-28.5252
-29.8164
-28.7364
-25.4633
-20.0348
-12.9614
-4.92021
2.84598
10.9988
17.9372
27.4824
21.9606
13.5525
2.0172
-9.90512
-19.6989
-26.8431
-31.2315
-32.5642
-31.4932
-27.3738
-21.148
-12.6831
-1.88948
8.69745
17.4705
21.4919
41.0353
36.3671
29.2375
19.8871
10.3293
2.12258
-3.65015
-8.03393
-9.81173
-9.19194
-6.09149
-1.54479
5.71854
14.1962
23.2041
31.3612
35.3656
37.0216
32.4829
25.3677
17.6693
9.92449
3.17774
-2.12394
-5.52538
-7.31689
-6.65389
-4.15107
-0.102662
5.35542
11.9309
19.7585
26.7674
31.8211
30.5383
26.1379
20.2137
13.6142
7.55718
2.57195
-1.71622
-4.59564
-5.57004
-5.1453
-3.60763
-0.572442
3.40856
8.54553
14.3075
20.414
24.8241
21.8213
19.1404
14.4603
9.5386
5.04721
0.83002
-2.25294
-4.18827
-5.45016
-5.27648
-4.22507
-1.83605
0.924067
4.57781
8.6921
14.0069
16.1988
12.7864
11.788
8.81799
5.81269
2.59065
-0.610417
-3.14913
-4.59915
-5.71583
-5.61592
-4.85942
-3.1938
-1.13043
0.98546
3.55584
6.51162
7.53387
4.94318
5.64115
4.43448
2.29061
-0.00715371
-2.0804
-3.82211
-5.52959
-5.97131
-6.3986
-5.92395
-4.47624
-3.21855
-2.03069
-0.783687
0.671947
0.0110466
-0.449762
0.861715
0.68497
-0.430849
-2.00658
-3.41397
-4.78116
-5.99852
-6.41222
-6.4842
-6.36996
-6.02738
-5.19347
-4.08638
-4.00247
-3.83848
-5.00206
-4.40388
-2.33353
-1.82374
-1.90703
-2.94166
-4.51237
-5.45282
-5.95714
-6.92954
-7.16371
-6.72694
-6.63008
-6.36277
-6.01162
-5.6161
-6.81321
-8.41402
-6.04548
-3.70052
-2.66145
-3.02166
-3.78566
-4.68226
-5.61507
-6.63228
-6.90439
-6.89656
-7.15738
-7.22197
-6.42056
-6.30029
-6.614
-7.77883
-10.2922
-5.52744
-3.32475
-2.22294
-2.6718
-3.47957
-4.80909
-5.45658
-6.55209
-6.74501
-7.11394
-7.12257
-6.65912
-6.20712
-5.96482
-6.11854
-7.32798
-9.20575
-2.42449
-0.918958
-0.594909
-1.7588
-2.90098
-4.2814
-5.48793
-6.23633
-6.87143
-6.96599
-6.5515
-6.03353
-5.36041
-4.90263
-4.47045
-5.09021
-6.3049
1.9288
2.93132
1.88501
0.172077
-1.44762
-3.39498
-5.23578
-6.48064
-6.80784
-6.64989
-6.23739
-5.05976
-4.17996
-2.72197
-1.38545
-0.767506
-1.57406
8.24327
7.84154
5.52157
2.6562
-0.194637
-2.67945
-4.9273
-6.28191
-6.79634
-6.64853
-5.87714
-4.64273
-2.16557
-0.426525
1.78275
4.17345
4.44126
16.261
13.8146
9.46446
5.09378
0.750143
-2.38085
-4.7358
-6.72956
-7.34264
-6.91147
-5.7761
-3.61584
-1.17141
2.25205
5.95909
9.82251
11.8261
24.0266
20.1738
14.0849
8.13885
2.5513
-1.85749
-5.62432
-7.47472
-8.27534
-7.89763
-6.31993
-3.13654
0.461879
5.27442
10.3388
15.3677
19.2203
31.0398
26.0676
19.3871
12.245
4.57698
-1.75334
-6.20481
-9.38795
-10.6233
-9.52516
-7.52015
-3.13257
2.21464
8.52937
14.9626
21.4831
25.8182
34.1965
30.0807
22.8116
13.4955
4.59462
-2.70036
-8.53629
-11.8396
-13.248
-12.4123
-9.29104
-4.26162
2.34265
9.79039
17.8577
25.4571
29.2059
45.3549
44.096
41.1299
36.4482
31.3671
26.0916
22.0608
19.1351
17.854
18.2297
20.2106
23.3247
27.3884
32.1075
36.4521
39.365
40.4848
44.8094
42.9939
39.7834
36.178
31.5012
27.3195
23.7417
21.1185
19.7241
20.186
21.3547
24.5131
27.5412
31.5364
35.2775
38.0133
39.9436
42.4899
40.761
37.3748
34.5383
30.8479
27.5037
24.3889
22.368
21.4884
21.3545
22.6349
24.7306
27.1109
30.0358
32.6814
35.6596
37.2211
38.627
37.7241
35.309
32.6602
29.9001
27.3619
24.9136
23.3533
22.3799
22.4262
23.3025
24.3398
26.239
28.3508
30.4293
32.5675
33.1094
34.1185
33.5972
32.2126
30.5473
28.7561
26.5285
24.7434
23.6157
22.8141
22.5891
23.0746
23.7499
25.3475
26.5491
27.5599
28.4726
28.2473
29.1322
30.1185
29.4671
28.4072
27.1102
26.0447
24.5801
23.665
23.0503
22.7874
22.7956
23.4354
24.188
24.9844
24.4034
24.8443
23.7953
25.5968
26.9518
26.8952
26.6716
25.9232
25.2005
24.2187
23.2201
22.7548
22.8107
22.4397
22.7657
22.9251
22.9891
22.7731
21.8126
20.4155
22.797
24.4457
25.3422
25.5433
25.2136
24.7153
23.6272
23.244
22.5875
22.1195
22.1983
22.2863
22.2765
22.1212
21.3326
19.713
18.4612
21.7426
23.208
24.5631
25.108
24.5533
24.2435
23.5209
22.9551
22.0623
22.0067
22.2692
21.9896
21.7095
21.5751
20.527
19.3637
17.0837
22.0112
23.7094
24.3951
25.1012
24.4891
24.2685
23.7539
22.6664
22.1286
22.1533
22.2467
21.9929
22.1658
21.7932
21.0317
19.6185
17.6431
23.7319
24.7983
25.8519
25.9362
25.2607
24.1604
23.3935
22.7766
22.4855
22.4741
21.9496
22.5516
22.4528
22.9297
22.2526
21.2458
19.7219
26.9962
27.6406
27.5862
26.5015
25.6777
24.6099
23.611
22.7079
22.2069
21.9078
22.3688
22.9451
23.1283
23.8094
23.7048
23.69
22.5624
30.4141
30.2294
29.3424
28.0541
26.5486
24.9162
23.2421
22.3607
21.5661
21.6789
22.0527
22.9291
24.3097
25.108
25.9912
26.5133
26.1058
34.2319
33.4703
31.6457
29.4136
26.981
24.6285
22.867
21.388
20.9737
20.7823
21.8028
23.1545
24.6921
26.6168
28.2826
29.5065
30.1308
37.773
35.7385
33.254
30.3707
27.0466
24.0982
21.6354
19.5243
19.0634
19.6122
21.0087
22.6932
25.109
27.6214
29.9669
32.0158
33.2795
39.655
38.1444
35.3661
31.8945
27.3611
22.975
20.0591
18.0939
17.4641
17.4378
19.3838
22.0106
25.0696
28.4873
31.6554
34.1946
35.6856
39.9184
39.4248
36.4396
31.9854
26.657
21.7919
18.1671
16.0577
14.9776
15.3368
17.1514
20.7096
24.5115
29.0976
32.7217
35.298
36.078
28.2065
28.77
27.7549
26.6511
24.0705
21.3254
18.9096
17.6415
16.3196
16.8665
17.6842
18.8566
20.8631
22.8117
24.0616
24.4572
23.5114
29.3724
28.8657
27.8762
26.2908
24.4265
22.0592
20.0141
18.6787
17.8793
17.8362
18.5149
19.8431
21.4644
22.7128
23.9657
24.4529
24.7302
29.1047
28.5703
27.4369
26.1088
24.3066
22.5128
20.9139
19.4506
19.0993
18.7838
19.1581
19.9403
21.5231
22.4989
23.4155
24.0461
24.8676
28.4046
27.7778
26.6988
25.8258
24.1293
22.9452
21.7344
20.7336
20.2344
20.0569
20.2475
20.6459
21.5323
22.3377
22.7859
23.3758
23.5391
26.3654
26.4302
25.5967
24.9311
24.2252
23.0253
22.0196
21.2112
20.7313
20.5513
20.3073
20.8437
21.1578
21.7787
21.7345
21.4258
21.0762
24.1166
24.2379
24.2747
24.061
23.6024
22.5499
22.4017
21.6981
20.8859
20.4671
20.8038
20.724
20.7014
20.6622
20.5595
20.04
19.3518
22.4838
22.6996
23.1043
23.4421
23.0261
22.887
21.8954
21.51
21.0752
20.668
20.8498
20.632
20.3043
20.1314
19.4364
18.1643
17.5242
20.9966
21.7365
21.9182
22.8436
22.7362
22.6067
21.7838
21.6939
21.2743
20.5293
20.621
20.3238
20.1212
19.5503
18.8109
17.2838
16.4101
19.9744
21.1824
21.8044
22.3975
22.4384
21.9638
21.7522
21.6765
21.1369
20.8517
20.4098
20.6657
19.917
19.5426
18.4218
16.7992
15.6907
20.4796
20.8957
21.6915
22.3766
22.2066
22.001
21.6293
21.1251
21.1786
20.5016
20.4945
20.2276
20.0262
19.6213
18.3899
16.8778
16.0911
21.2019
21.6413
22.045
22.536
22.3315
22.0134
21.9087
21.1957
20.7274
20.7343
20.4247
20.3161
20.1807
19.8424
18.5182
17.8732
16.9488
22.3554
22.7538
22.5927
22.8354
22.7086
21.8414
21.4973
20.9712
20.9817
20.1744
20.3677
20.4909
20.564
20.2674
19.8841
18.9701
18.0785
23.8228
24.0636
23.6683
23.2088
22.533
21.6591
20.9658
20.484
19.7092
19.7991
20.062
20.3992
20.5849
20.9097
20.5851
20.2647
20.1346
25.2387
24.8768
24.2572
23.5482
22.6428
21.2951
20.2236
19.6226
19.4733
19.1166
19.3494
20.0287
20.5079
21.3124
21.3803
22.0445
21.7437
25.8655
25.6675
24.5727
23.6066
21.9728
20.4297
19.3076
18.5184
17.7132
17.9372
17.8634
18.8484
20.2348
21.1946
21.5308
22.1348
22.4875
25.7447
25.4291
24.6578
23.2128
21.3366
19.5206
17.6421
16.4319
16.2824
16.1376
16.8097
17.8917
19.6587
21.3393
21.9782
22.5642
22.5251
24.3808
25.2199
24.9466
23.0929
20.5928
18.4209
16.2694
15.1646
14.4488
14.3544
15.7846
17.0099
19.2677
21.0282
22.1086
22.3696
21.2962
21.0863
22.0974
22.2511
21.4366
20.3179
18.5814
16.6339
15.8296
14.6266
15.1653
15.3065
16.5645
17.2443
17.9484
18.497
18.0891
16.3614
22.6255
23.1817
22.3161
21.4836
19.6085
18.4871
17.5833
16.5098
15.4236
15.5465
15.6298
16.2992
17.2125
17.733
18.0986
18.7445
17.9891
23.1248
22.9559
21.8053
20.9724
19.7823
18.6362
17.3997
16.7715
16.2495
15.7926
16.3783
16.5875
16.9635
17.5863
17.9532
18.0392
18.3358
22.9964
22.6333
21.587
20.6828
19.8478
18.6815
18.0453
17.599
16.5276
16.2361
16.7228
16.9569
17.0289
17.4517
17.4765
17.8311
18.103
22.2217
21.5576
21.2173
20.3079
19.9641
19.109
18.3355
17.8008
17.258
17.2626
16.6896
16.7524
17.0534
17.5039
17.0961
16.9053
16.9544
21.151
20.6051
20.1074
19.7547
19.5171
19.0701
18.3315
17.7652
17.2011
17.2146
16.6101
16.7046
16.6745
16.5098
16.171
16.0076
15.7709
19.5514
19.8606
19.3909
19.4139
19.3246
18.6805
18.165
17.7266
17.349
17.2091
16.842
17.0248
16.4671
16.1873
15.8844
15.154
14.541
18.8428
19.1546
19.0011
19.2454
19.0218
18.4336
17.9359
17.8625
17.4715
16.8393
16.7973
16.57
16.4577
16.2704
15.0543
14.2185
13.5588
17.8631
18.4913
18.5967
18.74
18.6317
18.3518
18.0135
17.6974
17.4095
17.1388
16.9955
16.3875
16.1116
15.8987
14.9942
14.2794
13.2189
18.3565
18.5044
18.3857
18.5193
18.717
18.3664
18.001
17.5835
17.3207
17.1986
16.8688
16.5027
16.0602
15.7422
14.5914
13.9493
13.4244
18.4932
18.7225
19.0333
18.7836
18.4825
18.1887
17.8235
17.3802
17.5672
16.8526
16.515
16.5133
16.33
15.8249
15.262
14.3731
14.0273
19.5109
19.1945
19.2724
19.1984
18.5755
18.0902
18.085
17.5212
16.7239
16.689
16.5661
16.7232
16.6868
16.2735
15.7859
15.1915
15.3617
19.8121
19.9763
19.5219
19.0675
18.5807
17.8744
17.3947
16.8028
16.653
16.4341
16.2363
16.6137
16.2589
16.4303
15.7989
15.6905
15.6066
20.4581
20.0623
19.8542
19.2168
18.4681
17.5627
16.8957
16.3097
15.7468
15.4776
15.8738
16.0203
16.4447
16.6228
16.5606
16.6186
15.9119
20.2194
19.9592
19.6052
18.8828
17.9617
17.3131
15.9408
15.2849
15.1179
14.8964
14.9068
15.2144
15.8147
16.3263
16.7623
15.9897
15.7801
19.696
19.9221
19.7397
19.1635
17.2402
16.1162
15.4624
14.3788
13.6573
13.6741
14.2621
14.8979
15.2598
16.2189
16.05
16.0354
15.724
17.9407
19.5265
18.9512
18.8305
17.4422
16.0802
14.8048
13.3627
12.8552
13.0949
13.5602
14.535
15.3869
15.825
15.8115
15.644
13.6574
14.7088
15.4825
15.1687
15.329
14.1922
13.3707
11.9971
11.405
11.0743
10.6459
11.0598
11.1828
11.5727
12.0279
11.3432
11.3516
9.84261
15.8685
15.6457
15.3519
14.6272
13.4974
12.6682
11.8165
11.1018
10.5367
10.5401
10.5368
10.7918
11.243
11.5965
11.2938
11.4076
11.0968
16.1185
15.7167
14.5957
14.333
13.0897
12.4932
11.5654
11.1628
10.5998
10.3179
10.6034
10.5798
10.6223
10.8875
11.2375
10.9924
11.1093
16.4461
15.5294
14.8204
13.9353
13.6191
12.5134
11.7129
11.433
10.6684
10.53
10.3516
10.8803
10.6442
10.9326
10.6604
10.6626
11.4335
15.9107
15.0639
14.2162
14.0643
13.0006
12.4524
11.7733
11.2541
11.0087
10.7247
10.1571
10.469
10.3969
10.4191
10.5886
10.4671
10.9496
15.4625
14.3301
13.8332
13.4484
12.9423
12.0618
12.1455
11.4823
10.9301
10.7147
10.6719
10.3481
10.5309
10.2445
9.92766
9.84651
9.9939
14.5458
14.0881
13.4354
13.0524
12.6445
12.3983
11.6841
11.2668
10.9486
10.4435
10.6828
10.2805
10.0794
10.1441
9.77779
9.42533
9.7091
14.3099
13.7106
13.1375
13.0104
12.4383
12.0483
11.5863
11.2176
10.94
10.8144
10.217
10.1861
9.87778
9.5059
9.03961
8.57321
9.22202
13.8928
13.2281
12.8588
12.4568
12.4437
11.748
11.7117
11.3452
10.9245
10.4149
10.5675
10.0145
9.87972
9.6806
9.19405
8.82354
8.62154
13.6433
13.2402
12.8206
12.6689
12.2819
11.8894
11.4006
11.2803
10.716
10.4558
10.4791
10.2771
10.1201
9.50265
9.23488
8.90864
8.97457
13.8049
13.239
12.861
12.5817
12.2805
12.2119
11.7992
11.0834
11.0789
10.6831
10.318
10.262
9.83613
9.63776
9.11103
9.03233
8.70366
14.1282
13.3981
12.9843
13.0011
12.2927
11.9575
11.4982
11.2247
10.693
10.5294
10.5261
10.0839
9.9642
9.88824
9.57831
9.01742
9.23251
14.4422
13.6534
13.1228
12.8515
12.5719
11.9038
11.2706
10.7826
10.3054
10.5648
9.9806
10.0582
9.88649
9.76108
9.8385
9.44194
9.90258
14.4649
13.7308
13.2536
12.9155
12.0411
11.7543
11.1409
10.5117
10.2393
9.92545
9.61457
10.0188
9.79685
9.47152
9.9846
9.88389
10.0765
14.0372
13.528
13.1029
12.5075
11.7775
11.1366
10.4216
9.97681
9.5581
9.22072
9.60169
9.40235
9.60697
9.89538
9.59726
9.48755
9.58707
13.4288
13.3857
13.0694
12.3126
11.5698
10.883
10.157
9.66145
9.26092
9.21715
8.92824
8.94234
9.64536
10.1396
9.71988
9.97867
9.56578
12.125
12.9524
12.9732
12.8823
12.3297
11.1319
10.3045
9.32278
8.97951
9.15497
9.05733
9.51263
10.1748
10.2637
9.85748
9.64262
8.20012
8.91078
8.83034
7.92587
7.5376
6.97613
5.86333
5.4442
4.80186
4.27226
4.45114
4.1207
4.36995
4.89028
4.94809
4.52977
4.78746
4.27034
9.13309
8.66731
7.84714
6.75146
5.69162
4.9823
4.14168
3.57502
3.1741
2.99556
3.04193
3.14964
3.58285
3.24069
3.85182
4.44914
4.70768
8.75776
7.94194
6.54853
6.04959
5.26599
4.34211
3.62374
3.14186
2.58101
2.47623
2.25916
2.52897
2.81896
2.90736
2.82423
3.45569
4.13232
8.29504
7.53991
6.47864
5.13583
4.25774
3.92888
3.14953
2.46293
2.26208
1.78376
2.03017
1.96974
1.99555
2.26722
2.49391
3.31431
4.01544
8.69614
6.93368
5.96243
4.6325
3.80334
3.64145
2.89212
2.04594
1.92749
1.90543
1.68632
1.64361
1.88011
2.06767
2.0772
2.34841
3.69351
7.99325
6.40023
5.67653
4.65102
4.16799
3.52244
2.58705
2.48703
1.83192
1.51155
1.63424
1.62014
1.31004
1.63421
1.94541
2.09634
3.10989
7.67262
5.99584
5.2076
4.3846
3.55612
3.05081
2.124
1.78946
1.755
1.62582
1.16374
1.02761
1.06336
1.37086
1.48971
1.66928
2.45371
7.39526
5.70711
4.85642
4.06781
3.11767
2.99702
2.06753
1.71705
1.64374
1.34065
1.19644
1.52259
1.0521
1.15232
1.14438
1.44819
2.09626
7.00197
5.50373
4.69248
4.02859
3.26818
2.97611
2.48527
1.79819
1.6739
1.2899
1.12488
0.892795
0.977278
1.05079
1.11663
1.26537
1.64754
7.10368
5.50466
4.63405
3.80754
3.18069
2.74019
2.30611
2.02945
1.42799
1.12145
1.23306
1.10426
1.09434
1.1562
1.04752
1.05428
2.0709
7.2065
5.73656
4.61115
4.08589
3.2941
3.16528
2.62433
2.06735
1.55151
1.35113
1.10953
1.49796
0.959555
1.20702
1.0818
1.33911
2.28445
7.33838
5.95211
4.94823
4.30126
3.72961
2.96597
2.59082
2.31898
1.41187
1.49824
1.52569
1.47827
1.26914
1.15843
1.52665
1.3763
2.33923
7.6039
5.89179
5.21807
4.4896
3.75832
3.22551
2.49267
2.16426
1.74815
1.60826
1.18466
1.40823
1.41036
1.66948
1.91122
2.13407
2.71018
7.40507
6.04997
5.36218
4.42553
3.85193
3.43947
2.45345
2.44337
2.02596
1.7756
1.3858
1.3429
1.6961
2.08259
1.99523
2.26454
3.19535
7.22585
6.06341
5.49649
4.51105
4.00505
3.44388
2.78131
2.75133
1.7964
1.86632
1.50836
1.68216
1.92116
2.0803
1.97889
2.08601
2.56261
7.02742
6.62144
5.96259
5.23576
4.78575
3.53517
3.11787
2.40248
2.19608
1.91129
1.97871
1.8966
2.31218
2.56095
2.47135
2.9718
3.14928
6.77699
6.96054
6.91325
6.15058
5.64391
4.58965
4.03219
2.91132
2.76904
2.66937
2.76152
3.11711
3.30203
3.51879
3.02073
3.42704
2.46587
4.45784
2.86365
1.53217
0.435555
-0.352889
-1.4827
-2.30553
-2.60348
-3.05406
-3.20117
-3.23681
-2.66993
-2.32433
-2.0437
-1.56509
-0.621845
0.452956
3.14205
2.01842
0.0423669
-1.04806
-2.36271
-3.08011
-3.87619
-4.91352
-4.87712
-5.33775
-4.67813
-4.82943
-4.36749
-3.50065
-2.87863
-1.76918
-0.87661
2.1117
0.292974
-1.53005
-2.70708
-3.84618
-4.97771
-4.93712
-5.90248
-6.21262
-6.24101
-6.5429
-5.86835
-5.856
-5.0459
-4.39482
-3.16442
-1.99273
1.41051
-0.275966
-2.36316
-3.60681
-4.57524
-5.69819
-6.35651
-6.92973
-7.26374
-7.49684
-7.21168
-7.04659
-6.58674
-6.12754
-5.50265
-4.38354
-2.80136
0.863008
-1.24234
-2.96441
-4.11141
-5.39297
-6.10649
-6.97291
-7.44648
-7.58142
-8.17658
-7.75232
-7.96896
-7.12708
-6.99399
-5.87199
-5.26352
-3.36662
0.120952
-1.65671
-3.72138
-5.11589
-5.64775
-6.93188
-7.2189
-7.83456
-8.05137
-8.54317
-8.49356
-8.26358
-8.07161
-7.5866
-6.67884
-6.13051
-4.08447
-0.336953
-2.12765
-3.45816
-5.19208
-6.36553
-6.7694
-7.89977
-8.28044
-9.05473
-8.94048
-8.88948
-8.88427
-8.60229
-8.09106
-7.22862
-6.37534
-4.90101
-0.334109
-2.84194
-4.02239
-5.50849
-6.6096
-7.17183
-8.0135
-8.56313
-8.72998
-9.2634
-9.24346
-9.05603
-8.85373
-8.48609
-7.69485
-6.91329
-5.58265
-0.577557
-2.66193
-4.54973
-5.70167
-6.15842
-7.3301
-8.22682
-8.60405
-9.11825
-8.75376
-8.89539
-9.26472
-9.04743
-8.3553
-7.68507
-6.82175
-5.11032
-0.795769
-2.65278
-4.15767
-5.4914
-6.70392
-7.33034
-7.85402
-8.47313
-8.41444
-8.76984
-8.96322
-9.01988
-8.68752
-8.24571
-8.02923
-6.73536
-5.54706
-0.698626
-2.45042
-4.17452
-5.25202
-6.12782
-7.07846
-7.68332
-8.35846
-8.37388
-8.65043
-8.73057
-8.57694
-8.18291
-7.97773
-7.36949
-6.7365
-4.83535
0.149497
-2.30925
-3.32887
-4.91222
-5.88373
-6.64028
-7.47774
-7.93675
-8.50601
-8.61456
-8.43174
-8.38637
-8.03676
-7.44133
-7.14515
-6.02863
-4.81227
-0.067034
-1.60903
-3.25203
-4.30282
-5.28314
-6.34378
-6.92324
-7.48833
-7.95605
-8.25261
-7.86497
-7.88813
-7.23172
-6.80925
-6.20719
-5.36021
-3.93372
0.565884
-1.04128
-2.76323
-3.95338
-4.83358
-5.82109
-6.25676
-7.06484
-7.27168
-7.31799
-7.55435
-7.26823
-6.68356
-6.16357
-5.53143
-4.88425
-3.26957
0.872333
-0.441752
-2.0039
-2.77164
-3.8283
-5.09869
-5.62205
-6.55299
-6.43004
-6.75263
-6.76467
-6.61684
-5.92567
-5.52158
-4.94648
-3.88787
-2.90382
2.16084
1.08457
-0.382465
-1.83977
-2.97509
-3.98773
-4.5901
-5.4328
-5.43815
-5.90836
-5.71172
-5.12665
-4.97499
-4.4737
-3.43248
-2.33796
-1.3067
3.19342
2.01959
0.967319
-0.306207
-1.43982
-2.25394
-2.83044
-3.98855
-4.13894
-4.29908
-3.9594
-3.74705
-3.10766
-2.68685
-2.10667
-0.955726
-0.185471
0.35721
-2.17933
-4.52057
-6.27175
-7.89349
-9.17254
-10.0344
-10.4715
-10.6831
-11.3417
-10.4626
-9.86018
-9.31204
-8.30494
-7.06464
-4.97498
-2.19521
-2.08765
-4.53691
-6.50102
-8.55116
-10.0492
-11.3398
-12.3195
-12.5628
-13.0092
-13.439
-12.9038
-12.3438
-11.2897
-10.3979
-8.77046
-6.85824
-4.92926
-4.17599
-6.26326
-8.37547
-10.2757
-12.0894
-13.3047
-13.9747
-14.6779
-14.8441
-15.0036
-14.7527
-14.3478
-13.2378
-12.2758
-10.9699
-9.51814
-7.39749
-5.46436
-8.0954
-9.88522
-11.9886
-13.5385
-14.3495
-15.5001
-16.2648
-16.4575
-16.7282
-16.1569
-15.8506
-15.059
-14.062
-12.7976
-10.6973
-9.03108
-6.92524
-9.15837
-11.4183
-13.265
-14.4726
-15.5909
-16.8942
-16.9851
-17.7701
-17.4067
-17.5082
-17.4361
-16.2666
-15.42
-13.837
-12.4631
-10.0485
-7.63226
-10.0776
-12.4816
-13.8387
-15.2019
-16.3624
-17.2584
-17.9582
-18.4387
-18.5932
-18.1633
-18.1758
-17.3976
-16.2183
-15.0814
-13.1924
-11.2123
-8.18785
-10.786
-12.8473
-14.5364
-16.3582
-17.0869
-17.8825
-18.7883
-19.0663
-18.834
-19.135
-18.4319
-17.7395
-16.8843
-15.7582
-14.259
-12.3325
-8.57291
-10.8411
-13.2297
-14.9329
-16.2331
-17.1804
-18.3933
-19.1429
-19.6174
-19.4652
-19.1118
-18.8642
-18.1363
-17.272
-16.1866
-14.512
-13.0111
-8.73915
-11.0531
-13.2897
-15.0196
-16.478
-17.3246
-18.2724
-19.229
-19.6987
-19.6042
-19.4295
-19.1257
-18.5044
-17.5936
-16.0054
-14.9435
-12.8342
-8.99414
-11.191
-13.0953
-15.0635
-15.9908
-17.3367
-17.937
-18.9425
-19.5613
-19.3689
-19.1851
-18.8539
-18.4963
-17.2151
-16.2223
-14.5356
-12.8899
-8.47991
-10.7094
-12.6434
-14.4061
-15.8724
-17.0451
-17.9242
-18.4407
-18.9884
-18.9416
-18.6673
-18.558
-17.7892
-16.7272
-15.9846
-13.9764
-12.1358
-7.50214
-9.86701
-12.3783
-13.8239
-15.3774
-16.3294
-17.371
-17.6676
-17.9798
-18.4655
-18.271
-17.6519
-17.2472
-16.192
-14.8718
-13.5769
-11.1765
-6.85381
-9.03106
-11.0954
-12.7142
-14.3163
-15.5263
-16.167
-16.9412
-17.3779
-17.7582
-17.3686
-16.9299
-16.3953
-15.1738
-14.2209
-12.5133
-10.9078
-6.01995
-8.22357
-9.94347
-11.9781
-13.4056
-14.6172
-15.2662
-15.7563
-16.266
-16.3283
-16.4098
-15.7735
-15.0139
-14.4574
-12.5509
-11.2068
-8.95333
-4.50199
-6.83598
-8.66319
-10.3127
-12.0007
-13.1757
-14.2834
-14.8276
-14.6396
-15.1461
-14.7877
-14.1457
-13.8226
-12.3032
-11.019
-9.56809
-7.64318
-2.49806
-4.25825
-6.47825
-8.48302
-9.9773
-11.4217
-12.3676
-12.9414
-13.3504
-13.5428
-13.4564
-12.7878
-12.0631
-10.6126
-9.24394
-7.13721
-5.29478
0.869226
-2.1028
-4.26238
-6.35614
-8.07704
-8.82339
-10.3267
-11.065
-11.4617
-11.5566
-10.8701
-10.126
-9.98475
-8.20279
-6.99297
-4.99177
-2.99006
-3.07133
-6.95901
-10.0505
-12.664
-14.4376
-16.4712
-17.4649
-17.7237
-18.2928
-18.0509
-17.6531
-16.9186
-15.5915
-14.1196
-11.657
-8.54099
-5.00748
-6.94536
-9.48171
-12.4311
-14.4329
-16.7728
-18.5022
-19.4037
-20.0202
-20.4204
-20.5985
-20.0379
-19.3802
-18.0299
-16.6582
-13.9504
-11.3868
-8.70354
-9.82455
-12.2588
-14.7235
-17.2111
-19.238
-20.6258
-21.7413
-22.681
-22.9872
-22.6597
-22.4749
-21.8665
-20.323
-18.8854
-16.489
-13.9389
-11.7399
-12.0922
-14.0507
-17.0315
-19.2961
-21.3943
-22.9007
-23.8035
-24.4084
-24.5573
-24.5639
-24.5526
-23.7015
-22.5234
-20.9882
-18.9839
-16.6652
-14.4155
-13.6152
-16.0178
-18.5282
-21.0348
-22.9144
-24.203
-25.4573
-26.0255
-26.333
-26.0942
-26.3206
-25.3373
-24.1512
-22.7959
-20.912
-18.3275
-16.484
-15.1037
-17.4113
-19.6423
-22.1517
-23.847
-25.5456
-26.4322
-27.4602
-27.3918
-27.7348
-27.3277
-26.3702
-25.3481
-24.1521
-22.2013
-20.3197
-17.5476
-16.0447
-18.3069
-20.7591
-22.9121
-24.8819
-26.0834
-27.209
-28.2221
-28.5578
-28.5214
-28.0922
-27.5027
-26.7711
-24.8434
-23.3023
-21.0842
-18.8359
-15.8649
-18.544
-21.1834
-23.0297
-25.1256
-27.0006
-27.8786
-28.3365
-28.7023
-29.021
-28.6662
-28.0428
-26.886
-25.8186
-23.6262
-21.8362
-19.2704
-16.3482
-18.8586
-21.5171
-23.1399
-25.1128
-26.6352
-27.9915
-28.4865
-29.1847
-29.1438
-28.715
-28.1623
-26.8907
-25.6583
-24.219
-21.8475
-19.686
-16.0976
-18.4749
-21.0071
-23.0887
-24.7876
-26.451
-27.5532
-28.305
-28.75
-28.6369
-28.6793
-27.8254
-26.851
-25.4302
-23.8408
-21.5255
-19.1681
-15.7526
-17.9134
-20.636
-22.6729
-24.787
-25.6914
-26.7824
-27.7825
-28.2289
-28.3484
-28.2572
-27.3022
-26.2567
-24.6346
-23.0694
-21.0559
-18.8789
-14.5123
-17.1457
-19.757
-21.7303
-23.6473
-24.9739
-26.2046
-26.9092
-27.2081
-27.2242
-27.0223
-26.284
-25.41
-23.9317
-21.9052
-19.9137
-17.6568
-13.5898
-15.7702
-18.0855
-20.191
-22.4217
-23.6181
-24.9936
-25.5091
-26.0429
-26.2384
-25.9268
-25.3256
-23.962
-22.6648
-20.4794
-18.8901
-16.0782
-11.7804
-14.3755
-16.8043
-18.7576
-20.8176
-22.0307
-23.2426
-24.2558
-24.4632
-24.7261
-24.4085
-23.3508
-22.5161
-20.9095
-18.6791
-16.6515
-14.2887
-9.66877
-11.9818
-14.3614
-16.6403
-18.8398
-20.4491
-21.3269
-22.3567
-22.7752
-22.9266
-22.1754
-21.1914
-19.9829
-18.5956
-16.6442
-13.9443
-11.5758
-6.30458
-9.04982
-11.6336
-14.2687
-16.5157
-18.1894
-19.4043
-20.2798
-20.6656
-20.4916
-20.0083
-19.1709
-17.9636
-16.0359
-13.7281
-11.1733
-8.17615
-2.26181
-5.85928
-8.84311
-11.7739
-13.8884
-15.4061
-16.7688
-17.6614
-17.9788
-17.8652
-17.4862
-16.7356
-15.0255
-13.4595
-10.5756
-7.51275
-4.39985
-7.0645
-11.3697
-14.5092
-18.0744
-20.489
-22.4638
-23.7543
-24.2798
-24.8687
-24.4316
-24.1137
-22.7789
-21.1992
-18.942
-16.2284
-12.3348
-7.94201
-11.3703
-14.2024
-17.6573
-20.3979
-22.621
-24.4284
-25.9109
-26.8544
-27.3313
-26.9422
-26.2498
-25.3725
-23.6897
-21.7246
-18.4955
-15.6181
-12.6251
-14.3609
-17.4856
-19.6194
-22.5771
-25.0817