/*--------------------------------*- C++ -*----------------------------------*\
  =========                 |
  \\      /  F ield         | OpenFOAM: The Open Source CFD Toolbox
   \\    /   O peration     | Website:  https://openfoam.org
    \\  /    A nd           | Version:  6
     \\/     M anipulation  |
\*---------------------------------------------------------------------------*/
FoamFile
{
    version     2.0;
    format      ascii;
    class       volScalarField;
    location    "./ITHACAoutput/Offline/1";
    object      P_rec;
}
// * * * * * * * * * * * * * * * * * * * * * * * * * * * * * * * * * * * * * //

dimensions      [0 2 -2 0 0 0 0];

internalField   nonuniform List<scalar> 
40000
(
0.00850668
0.00850622
0.00850472
0.00850217
0.00849888
0.00849514
0.00849119
0.00848723
0.00848341
0.00847985
0.00847664
0.00847388
0.00847161
0.00846988
0.00846872
0.0084681
0.00846809
0.00846867
0.00846985
0.00847162
0.00847397
0.00847692
0.00848045
0.00848453
0.00848918
0.00849436
0.0085001
0.00850636
0.00851314
0.00852043
0.00852821
0.00853651
0.00854528
0.00855453
0.00856427
0.00857447
0.00858514
0.00859626
0.00860783
0.00861984
0.00863231
0.00864521
0.00865854
0.00867231
0.0086865
0.0087011
0.00871613
0.00873157
0.00874742
0.00876366
0.0087803
0.00879731
0.00881473
0.00883252
0.00885066
0.00886917
0.00888802
0.00890722
0.00892675
0.00894658
0.00896672
0.00898715
0.00900786
0.00902882
0.00905005
0.0090715
0.00909315
0.00911502
0.00913705
0.00915924
0.00918155
0.00920401
0.00922653
0.00924915
0.0092718
0.00929449
0.00931718
0.00933987
0.0093625
0.00938509
0.00940759
0.00942999
0.00945226
0.00947437
0.00949632
0.00951808
0.00953964
0.00956098
0.00958208
0.00960296
0.00962354
0.00964385
0.00966387
0.00968361
0.00970304
0.00972216
0.00974099
0.00975951
0.00977771
0.00979561
0.00981322
0.00983056
0.0098476
0.00986439
0.0098809
0.00989717
0.00991324
0.00992909
0.00994476
0.00996027
0.00997563
0.00999088
0.010006
0.0100211
0.0100361
0.0100511
0.0100661
0.0100811
0.0100961
0.0101112
0.0101263
0.0101416
0.010157
0.0101724
0.010188
0.0102038
0.0102197
0.0102357
0.0102519
0.0102682
0.0102846
0.0103012
0.0103178
0.0103346
0.0103515
0.0103684
0.0103853
0.0104022
0.0104192
0.010436
0.0104528
0.0104694
0.0104859
0.0105021
0.0105182
0.0105339
0.0105493
0.0105644
0.0105791
0.0105933
0.0106071
0.0106203
0.010633
0.0106452
0.0106567
0.0106676
0.0106778
0.0106873
0.0106962
0.0107043
0.0107117
0.0107184
0.0107243
0.0107294
0.0107339
0.0107375
0.0107404
0.0107426
0.0107441
0.0107449
0.0107449
0.0107444
0.0107431
0.0107413
0.0107388
0.0107358
0.0107323
0.0107283
0.0107238
0.010719
0.0107137
0.0107081
0.0107022
0.0106961
0.0106898
0.0106833
0.0106768
0.0106702
0.0106637
0.0106573
0.0106511
0.0106452
0.0106397
0.0106347
0.0106303
0.0106267
0.0106241
0.0106224
0.0106219
0.0106221
0.00850714
0.00850668
0.00850533
0.00850308
0.00850016
0.00849685
0.00849334
0.0084898
0.00848639
0.0084832
0.00848034
0.00847788
0.00847588
0.00847438
0.00847339
0.00847296
0.0084731
0.00847378
0.00847505
0.00847688
0.00847929
0.00848226
0.0084858
0.00848988
0.00849451
0.00849966
0.00850536
0.00851157
0.00851829
0.00852551
0.00853324
0.00854144
0.00855013
0.0085593
0.00856893
0.00857903
0.0085896
0.00860059
0.00861206
0.00862397
0.00863632
0.00864909
0.00866231
0.00867594
0.00869
0.00870447
0.00871937
0.00873468
0.00875038
0.00876648
0.00878299
0.00879987
0.00881714
0.00883478
0.00885278
0.00887114
0.00888987
0.00890891
0.00892829
0.00894799
0.008968
0.00898828
0.00900886
0.00902969
0.00905077
0.0090721
0.00909362
0.00911534
0.00913726
0.00915933
0.00918154
0.00920387
0.0092263
0.00924882
0.0092714
0.00929402
0.00931662
0.00933922
0.00936181
0.00938433
0.00940677
0.00942913
0.00945135
0.00947344
0.00949537
0.00951713
0.00953869
0.00956004
0.00958117
0.00960203
0.00962265
0.009643
0.00966306
0.00968285
0.00970234
0.00972154
0.00974041
0.00975901
0.00977731
0.0097953
0.009813
0.0098304
0.00984755
0.00986443
0.00988105
0.00989743
0.00991357
0.00992955
0.0099453
0.00996091
0.00997635
0.00999168
0.0100069
0.0100221
0.0100371
0.0100522
0.0100672
0.0100823
0.0100973
0.0101124
0.0101276
0.0101429
0.0101582
0.0101737
0.0101893
0.010205
0.0102208
0.0102368
0.0102528
0.0102691
0.0102854
0.0103018
0.0103184
0.010335
0.0103517
0.0103684
0.0103852
0.0104019
0.0104187
0.0104353
0.0104518
0.0104682
0.0104845
0.0105005
0.0105163
0.0105318
0.010547
0.0105618
0.0105762
0.0105901
0.0106037
0.0106167
0.0106291
0.010641
0.0106523
0.010663
0.010673
0.0106823
0.010691
0.010699
0.0107062
0.0107127
0.0107185
0.0107235
0.0107278
0.0107314
0.0107342
0.0107364
0.0107378
0.0107386
0.0107387
0.0107381
0.0107369
0.0107351
0.0107328
0.0107299
0.0107265
0.0107226
0.0107183
0.0107136
0.0107086
0.0107032
0.0106976
0.0106918
0.0106857
0.0106796
0.0106734
0.0106672
0.010661
0.010655
0.0106492
0.0106436
0.0106385
0.0106339
0.0106298
0.0106265
0.0106241
0.0106225
0.0106221
0.0106223
0.00850863
0.00850802
0.00850667
0.00850462
0.00850205
0.00849916
0.0084961
0.00849304
0.00849009
0.00848731
0.00848486
0.00848276
0.00848108
0.00847986
0.00847911
0.00847888
0.00847918
0.00848002
0.00848139
0.00848332
0.00848579
0.0084888
0.00849234
0.00849643
0.00850104
0.00850617
0.00851181
0.00851796
0.00852462
0.00853175
0.00853939
0.00854749
0.00855608
0.00856513
0.00857465
0.00858463
0.00859505
0.00860593
0.00861725
0.00862902
0.0086412
0.00865382
0.00866687
0.00868037
0.00869426
0.00870856
0.0087233
0.00873844
0.00875396
0.00876989
0.00878621
0.00880292
0.00882002
0.00883748
0.00885531
0.00887349
0.00889202
0.0089109
0.00893009
0.00894961
0.00896945
0.00898956
0.00900996
0.00903065
0.00905156
0.00907272
0.00909409
0.00911569
0.00913745
0.00915937
0.00918145
0.00920367
0.00922598
0.00924838
0.00927085
0.00929337
0.00931587
0.00933842
0.00936094
0.00938339
0.00940578
0.00942808
0.0094503
0.00947235
0.00949429
0.00951604
0.00953762
0.00955898
0.00958012
0.00960103
0.00962169
0.00964209
0.00966223
0.00968208
0.00970163
0.00972092
0.00973991
0.0097586
0.00977698
0.00979508
0.00981289
0.00983042
0.00984768
0.00986466
0.00988141
0.00989791
0.0099142
0.00993024
0.00994614
0.00996183
0.00997739
0.00999281
0.0100081
0.0100234
0.0100385
0.0100536
0.0100687
0.0100838
0.0100989
0.0101141
0.0101293
0.0101445
0.0101599
0.0101753
0.0101908
0.0102065
0.0102222
0.0102381
0.0102541
0.0102702
0.0102864
0.0103027
0.0103191
0.0103355
0.010352
0.0103685
0.0103851
0.0104016
0.0104181
0.0104345
0.0104507
0.0104669
0.0104828
0.0104986
0.010514
0.0105292
0.0105441
0.0105586
0.0105727
0.0105864
0.0105996
0.0106123
0.0106245
0.0106361
0.0106471
0.0106575
0.0106672
0.0106763
0.0106848
0.0106925
0.0106995
0.0107058
0.0107114
0.0107163
0.0107205
0.0107239
0.0107267
0.0107288
0.0107301
0.0107308
0.0107309
0.0107304
0.0107293
0.0107275
0.0107253
0.0107225
0.0107193
0.0107155
0.0107114
0.010707
0.0107022
0.0106971
0.0106918
0.0106862
0.0106806
0.0106748
0.010669
0.0106632
0.0106574
0.0106518
0.0106465
0.0106414
0.0106367
0.0106325
0.0106288
0.0106258
0.0106235
0.0106221
0.0106216
0.0106217
0.0085112
0.00851028
0.00850872
0.00850665
0.00850422
0.00850156
0.00849879
0.00849602
0.00849339
0.00849095
0.0084888
0.00848698
0.00848557
0.00848456
0.00848405
0.00848399
0.00848443
0.00848539
0.00848689
0.00848889
0.00849141
0.00849446
0.00849803
0.00850211
0.00850671
0.00851183
0.00851743
0.00852352
0.00853012
0.0085372
0.00854475
0.00855277
0.00856126
0.00857022
0.00857962
0.00858949
0.00859979
0.00861053
0.00862173
0.00863335
0.00864541
0.00865789
0.0086708
0.00868413
0.00869787
0.00871204
0.00872661
0.00874158
0.00875696
0.00877273
0.00878888
0.00880543
0.00882236
0.00883966
0.00885733
0.00887534
0.00889373
0.00891245
0.00893149
0.00895085
0.00897052
0.00899051
0.00901076
0.00903128
0.00905207
0.0090731
0.00909434
0.0091158
0.00913746
0.0091593
0.00918126
0.00920339
0.0092256
0.00924791
0.0092703
0.00929275
0.00931523
0.00933771
0.00936017
0.00938259
0.00940497
0.00942728
0.00944946
0.00947154
0.00949346
0.00951524
0.00953684
0.00955823
0.00957943
0.00960039
0.00962109
0.00964156
0.00966177
0.0096817
0.00970133
0.00972072
0.00973976
0.00975856
0.00977704
0.00979523
0.00981315
0.00983079
0.00984812
0.00986522
0.00988207
0.00989865
0.00991505
0.0099312
0.00994715
0.00996293
0.00997859
0.00999408
0.0100095
0.0100248
0.01004
0.0100551
0.0100703
0.0100854
0.0101005
0.0101157
0.0101309
0.0101461
0.0101614
0.0101768
0.0101923
0.0102079
0.0102236
0.0102393
0.0102552
0.0102712
0.0102873
0.0103035
0.0103197
0.010336
0.0103524
0.0103687
0.0103851
0.0104014
0.0104176
0.0104338
0.0104499
0.0104658
0.0104815
0.010497
0.0105122
0.0105272
0.0105418
0.0105561
0.0105699
0.0105833
0.0105963
0.0106087
0.0106206
0.010632
0.0106428
0.0106529
0.0106624
0.0106713
0.0106795
0.0106871
0.0106939
0.0107
0.0107055
0.0107102
0.0107142
0.0107175
0.0107202
0.0107222
0.0107235
0.0107242
0.0107242
0.0107236
0.0107225
0.0107208
0.0107186
0.0107159
0.0107128
0.0107092
0.0107053
0.010701
0.0106963
0.0106915
0.0106864
0.0106811
0.0106757
0.0106702
0.0106647
0.0106592
0.0106539
0.0106486
0.0106436
0.0106388
0.0106345
0.0106305
0.0106271
0.0106243
0.0106221
0.0106206
0.0106201
0.0106201
0.0085145
0.0085132
0.00851128
0.00850907
0.00850662
0.00850405
0.00850144
0.00849889
0.00849647
0.00849427
0.00849236
0.00849077
0.00848956
0.00848878
0.00848842
0.00848853
0.00848912
0.0084902
0.00849177
0.00849385
0.00849644
0.00849953
0.00850313
0.00850723
0.00851183
0.00851692
0.00852248
0.00852854
0.00853508
0.00854209
0.00854957
0.00855752
0.00856591
0.00857478
0.00858407
0.00859382
0.00860401
0.00861465
0.00862571
0.0086372
0.00864914
0.00866148
0.00867424
0.00868743
0.00870104
0.00871506
0.00872947
0.0087443
0.00875952
0.00877514
0.00879115
0.00880754
0.00882431
0.00884147
0.00885899
0.00887686
0.00889508
0.00891365
0.00893256
0.00895178
0.00897133
0.00899116
0.00901128
0.0090317
0.00905236
0.00907328
0.00909442
0.00911578
0.00913735
0.00915907
0.00918098
0.00920301
0.00922516
0.00924742
0.00926978
0.00929217
0.00931461
0.00933707
0.00935952
0.00938195
0.00940432
0.00942661
0.00944882
0.00947092
0.00949288
0.00951468
0.00953634
0.00955778
0.00957903
0.00960006
0.00962084
0.0096414
0.00966166
0.00968168
0.0097014
0.00972087
0.00974004
0.0097589
0.00977749
0.00979579
0.00981378
0.00983149
0.00984895
0.00986613
0.00988308
0.00989975
0.0099162
0.00993245
0.00994849
0.00996434
0.00998006
0.00999561
0.010011
0.0100264
0.0100416
0.0100568
0.010072
0.0100871
0.0101022
0.0101174
0.0101325
0.0101477
0.010163
0.0101784
0.0101938
0.0102093
0.0102249
0.0102407
0.0102564
0.0102723
0.0102883
0.0103043
0.0103205
0.0103366
0.0103528
0.010369
0.0103852
0.0104013
0.0104174
0.0104334
0.0104493
0.010465
0.0104805
0.0104958
0.0105108
0.0105255
0.0105399
0.010554
0.0105676
0.0105808
0.0105935
0.0106057
0.0106174
0.0106286
0.0106391
0.010649
0.0106583
0.010667
0.010675
0.0106823
0.010689
0.0106949
0.0107002
0.0107048
0.0107087
0.0107119
0.0107144
0.0107163
0.0107175
0.0107182
0.0107182
0.0107176
0.0107164
0.0107147
0.0107126
0.0107099
0.0107068
0.0107033
0.0106995
0.0106953
0.0106909
0.0106861
0.0106812
0.0106762
0.010671
0.0106658
0.0106605
0.0106553
0.0106502
0.0106452
0.0106405
0.010636
0.0106318
0.0106281
0.0106248
0.010622
0.0106199
0.0106184
0.0106177
0.0106175
0.00851827
0.00851654
0.00851417
0.00851172
0.00850918
0.00850659
0.00850405
0.00850162
0.00849935
0.00849732
0.0084956
0.00849419
0.00849317
0.00849254
0.00849234
0.00849258
0.00849331
0.00849448
0.00849616
0.00849832
0.00850095
0.00850409
0.00850772
0.00851181
0.00851641
0.00852149
0.00852703
0.00853305
0.00853955
0.0085465
0.00855392
0.00856178
0.0085701
0.00857886
0.00858807
0.00859771
0.0086078
0.00861831
0.00862926
0.00864063
0.00865242
0.00866465
0.00867727
0.00869033
0.00870378
0.00871764
0.00873192
0.00874661
0.00876169
0.00877716
0.00879303
0.00880927
0.00882592
0.00884292
0.0088603
0.00887802
0.00889611
0.00891456
0.00893333
0.00895244
0.00897186
0.00899158
0.00901159
0.0090319
0.00905248
0.00907328
0.00909435
0.00911562
0.0091371
0.00915878
0.00918062
0.00920261
0.00922471
0.00924696
0.00926926
0.00929165
0.00931407
0.00933654
0.009359
0.00938145
0.00940383
0.00942615
0.00944839
0.00947055
0.00949258
0.00951444
0.00953614
0.00955767
0.00957899
0.00960009
0.00962097
0.0096416
0.00966196
0.00968208
0.0097019
0.00972146
0.00974072
0.00975968
0.00977837
0.00979675
0.00981487
0.00983267
0.00985021
0.00986747
0.00988449
0.00990126
0.00991778
0.00993408
0.00995018
0.0099661
0.00998185
0.00999744
0.0100129
0.0100283
0.0100435
0.0100588
0.0100739
0.010089
0.0101041
0.0101193
0.0101344
0.0101496
0.0101648
0.0101801
0.0101955
0.0102109
0.0102265
0.0102421
0.0102578
0.0102736
0.0102894
0.0103054
0.0103214
0.0103374
0.0103534
0.0103695
0.0103855
0.0104016
0.0104175
0.0104333
0.010449
0.0104645
0.0104798
0.0104949
0.0105098
0.0105243
0.0105385
0.0105523
0.0105657
0.0105787
0.0105913
0.0106033
0.0106147
0.0106256
0.010636
0.0106457
0.0106549
0.0106633
0.0106711
0.0106783
0.0106848
0.0106905
0.0106956
0.0107
0.0107038
0.0107069
0.0107093
0.010711
0.0107122
0.0107127
0.0107126
0.010712
0.0107108
0.0107091
0.0107069
0.0107043
0.0107012
0.0106978
0.010694
0.0106899
0.0106856
0.010681
0.0106763
0.0106714
0.0106664
0.0106613
0.0106563
0.0106513
0.0106464
0.0106416
0.0106371
0.0106328
0.0106288
0.0106252
0.010622
0.0106192
0.010617
0.0106154
0.0106144
0.010614
0.00852228
0.00852007
0.00851723
0.00851448
0.00851175
0.00850909
0.00850654
0.00850416
0.00850198
0.00850009
0.00849848
0.00849722
0.00849634
0.00849585
0.00849578
0.00849616
0.00849698
0.00849826
0.00850002
0.00850224
0.00850494
0.00850812
0.00851177
0.00851588
0.00852047
0.00852554
0.00853106
0.00853706
0.0085435
0.00855039
0.00855776
0.00856554
0.00857378
0.00858245
0.00859157
0.00860112
0.00861108
0.00862149
0.00863232
0.00864358
0.00865525
0.00866735
0.00867984
0.00869276
0.00870609
0.00871983
0.00873397
0.00874851
0.00876345
0.00877878
0.00879452
0.00881063
0.00882714
0.00884401
0.00886125
0.00887887
0.00889683
0.00891516
0.00893382
0.00895283
0.00897213
0.00899176
0.00901169
0.0090319
0.00905238
0.00907315
0.00909415
0.00911535
0.0091368
0.00915843
0.00918022
0.00920219
0.0092243
0.00924651
0.00926884
0.00929124
0.00931368
0.00933615
0.00935866
0.00938112
0.00940356
0.00942597
0.00944827
0.00947047
0.00949257
0.00951453
0.00953633
0.00955792
0.00957934
0.00960055
0.00962152
0.00964225
0.00966273
0.00968295
0.00970289
0.00972252
0.0097419
0.00976098
0.00977976
0.00979824
0.00981643
0.00983433
0.00985197
0.00986932
0.00988639
0.00990322
0.00991982
0.00993619
0.00995234
0.0099683
0.00998408
0.00999971
0.0100152
0.0100306
0.0100459
0.010061
0.0100762
0.0100913
0.0101064
0.0101215
0.0101366
0.0101517
0.0101669
0.0101821
0.0101974
0.0102128
0.0102283
0.0102438
0.0102594
0.0102751
0.0102908
0.0103067
0.0103225
0.0103384
0.0103544
0.0103703
0.0103862
0.010402
0.0104178
0.0104335
0.010449
0.0104644
0.0104795
0.0104945
0.0105091
0.0105235
0.0105375
0.0105512
0.0105644
0.0105772
0.0105895
0.0106013
0.0106126
0.0106233
0.0106335
0.0106431
0.010652
0.0106602
0.0106679
0.0106748
0.0106811
0.0106867
0.0106917
0.0106959
0.0106995
0.0107025
0.0107047
0.0107064
0.0107074
0.0107078
0.0107077
0.010707
0.0107057
0.010704
0.0107017
0.0106991
0.0106961
0.0106926
0.0106889
0.0106849
0.0106806
0.0106761
0.0106714
0.0106667
0.0106618
0.0106569
0.010652
0.0106472
0.0106425
0.0106379
0.0106334
0.0106293
0.0106254
0.0106218
0.0106187
0.0106159
0.0106136
0.0106118
0.0106105
0.0106097
0.00852631
0.00852365
0.00852029
0.0085172
0.00851428
0.00851148
0.00850887
0.00850648
0.00850435
0.00850251
0.00850101
0.00849986
0.00849908
0.00849871
0.00849876
0.00849922
0.00850013
0.00850151
0.00850334
0.00850563
0.00850838
0.00851159
0.00851527
0.00851941
0.008524
0.00852905
0.00853456
0.00854051
0.00854693
0.00855377
0.00856105
0.00856879
0.00857694
0.00858553
0.00859457
0.00860402
0.00861389
0.00862418
0.00863491
0.00864605
0.00865761
0.00866956
0.00868195
0.00869476
0.00870795
0.00872156
0.00873558
0.00875
0.0087648
0.00878003
0.00879562
0.00881161
0.00882799
0.00884475
0.00886188
0.00887939
0.00889725
0.00891547
0.00893403
0.00895293
0.00897217
0.00899171
0.00901158
0.00903173
0.00905216
0.00907287
0.00909382
0.00911501
0.00913641
0.00915803
0.00917985
0.00920179
0.00922391
0.00924617
0.00926851
0.00929094
0.00931343
0.00933598
0.00935851
0.00938106
0.00940361
0.00942606
0.00944846
0.00947076
0.00949296
0.00951502
0.00953692
0.00955864
0.00958018
0.00960149
0.00962259
0.00964344
0.00966403
0.00968435
0.00970442
0.00972417
0.00974366
0.00976284
0.00978171
0.00980032
0.00981862
0.00983661
0.00985432
0.00987174
0.0098889
0.00990579
0.00992246
0.00993885
0.00995506
0.00997107
0.00998686
0.0100025
0.010018
0.0100334
0.0100487
0.0100638
0.010079
0.010094
0.0101091
0.0101241
0.0101392
0.0101543
0.0101694
0.0101845
0.0101998
0.0102151
0.0102304
0.0102459
0.0102614
0.0102769
0.0102926
0.0103083
0.010324
0.0103398
0.0103556
0.0103714
0.0103872
0.0104029
0.0104185
0.0104341
0.0104494
0.0104647
0.0104797
0.0104944
0.0105089
0.0105231
0.010537
0.0105505
0.0105635
0.0105762
0.0105883
0.0106
0.010611
0.0106216
0.0106316
0.0106409
0.0106497
0.0106578
0.0106652
0.010672
0.0106781
0.0106836
0.0106883
0.0106924
0.0106959
0.0106987
0.0107008
0.0107023
0.0107032
0.0107035
0.0107032
0.0107024
0.0107011
0.0106993
0.010697
0.0106943
0.0106912
0.0106878
0.0106841
0.0106801
0.0106758
0.0106714
0.0106668
0.0106621
0.0106573
0.0106525
0.0106477
0.010643
0.0106384
0.0106339
0.0106296
0.0106255
0.0106217
0.0106182
0.010615
0.0106121
0.0106097
0.0106076
0.010606
0.0106049
0.0085302
0.0085271
0.00852325
0.00851981
0.00851663
0.00851365
0.00851096
0.00850853
0.0085064
0.00850462
0.00850316
0.00850208
0.00850139
0.00850111
0.00850124
0.0085018
0.0085028
0.00850425
0.00850614
0.00850848
0.00851128
0.00851452
0.00851822
0.00852237
0.00852698
0.00853201
0.0085375
0.00854343
0.00854979
0.0085566
0.00856384
0.0085715
0.00857958
0.00858811
0.00859704
0.00860641
0.00861619
0.00862639
0.00863702
0.00864804
0.00865947
0.00867133
0.0086836
0.00869629
0.00870937
0.00872286
0.00873675
0.00875105
0.00876575
0.00878085
0.00879634
0.00881221
0.00882849
0.00884514
0.00886218
0.00887957
0.00889736
0.00891549
0.00893399
0.00895283
0.00897199
0.00899149
0.0090113
0.0090314
0.00905182
0.00907249
0.00909343
0.00911462
0.00913605
0.00915765
0.0091795
0.0092015
0.00922365
0.00924594
0.00926834
0.00929085
0.00931342
0.00933603
0.00935868
0.00938133
0.00940396
0.00942654
0.00944906
0.00947149
0.00949381
0.00951599
0.00953803
0.00955988
0.00958155
0.00960301
0.00962423
0.00964523
0.00966596
0.00968641
0.0097066
0.0097265
0.00974611
0.00976542
0.00978439
0.00980309
0.00982148
0.00983957
0.00985737
0.00987489
0.00989212
0.00990908
0.00992578
0.00994222
0.00995845
0.00997448
0.00999031
0.010006
0.0100215
0.0100368
0.0100521
0.0100673
0.0100823
0.0100974
0.0101124
0.0101274
0.0101424
0.0101574
0.0101724
0.0101875
0.0102026
0.0102178
0.010233
0.0102484
0.0102638
0.0102793
0.0102948
0.0103104
0.010326
0.0103417
0.0103573
0.010373
0.0103886
0.0104042
0.0104197
0.0104351
0.0104503
0.0104654
0.0104803
0.0104949
0.0105092
0.0105233
0.010537
0.0105503
0.0105632
0.0105757
0.0105876
0.0105991
0.0106101
0.0106204
0.0106302
0.0106394
0.010648
0.0106559
0.0106632
0.0106698
0.0106757
0.010681
0.0106856
0.0106895
0.0106928
0.0106954
0.0106974
0.0106987
0.0106995
0.0106996
0.0106992
0.0106983
0.0106969
0.010695
0.0106927
0.0106899
0.0106868
0.0106833
0.0106796
0.0106755
0.0106713
0.0106669
0.0106623
0.0106576
0.0106529
0.0106482
0.0106435
0.0106388
0.0106343
0.0106298
0.0106256
0.0106216
0.0106177
0.0106142
0.0106109
0.010608
0.0106054
0.0106031
0.0106011
0.0105997
0.00853383
0.0085303
0.00852597
0.00852218
0.00851874
0.0085156
0.00851276
0.00851025
0.00850812
0.00850632
0.00850491
0.00850387
0.00850324
0.00850304
0.00850325
0.00850388
0.00850494
0.00850645
0.00850839
0.0085108
0.00851362
0.0085169
0.00852062
0.00852478
0.00852938
0.00853442
0.0085399
0.00854579
0.00855212
0.00855888
0.00856607
0.00857367
0.0085817
0.00859013
0.008599
0.00860828
0.00861798
0.00862809
0.00863861
0.00864953
0.00866089
0.00867261
0.00868479
0.00869736
0.00871033
0.00872371
0.0087375
0.00875169
0.00876627
0.00878128
0.00879668
0.00881246
0.00882864
0.0088452
0.00886217
0.0088795
0.00889718
0.00891527
0.00893371
0.00895249
0.00897162
0.00899108
0.00901087
0.00903096
0.00905137
0.00907205
0.009093
0.00911422
0.00913568
0.00915735
0.00917923
0.0092013
0.00922353
0.0092459
0.00926841
0.009291
0.00931368
0.00933643
0.0093592
0.00938197
0.00940473
0.00942747
0.00945014
0.00947271
0.00949518
0.00951753
0.00953971
0.00956174
0.00958357
0.0096052
0.0096266
0.00964772
0.00966861
0.00968922
0.00970955
0.00972959
0.00974932
0.00976875
0.00978788
0.00980669
0.00982519
0.00984337
0.00986125
0.00987885
0.00989615
0.00991317
0.00992995
0.00994644
0.00996266
0.00997873
0.00999457
0.0100102
0.0100257
0.0100411
0.0100563
0.0100714
0.0100865
0.0101014
0.0101164
0.0101313
0.0101462
0.0101611
0.0101761
0.010191
0.0102061
0.0102212
0.0102363
0.0102515
0.0102668
0.0102822
0.0102976
0.010313
0.0103285
0.010344
0.0103596
0.0103751
0.0103906
0.010406
0.0104214
0.0104366
0.0104517
0.0104667
0.0104814
0.0104958
0.01051
0.0105239
0.0105375
0.0105506
0.0105634
0.0105757
0.0105875
0.0105988
0.0106096
0.0106198
0.0106294
0.0106384
0.0106468
0.0106546
0.0106616
0.0106681
0.0106738
0.0106789
0.0106833
0.0106871
0.0106902
0.0106926
0.0106945
0.0106956
0.0106962
0.0106963
0.0106957
0.0106947
0.0106931
0.0106911
0.0106887
0.0106858
0.0106826
0.0106791
0.0106753
0.0106712
0.0106669
0.0106625
0.0106579
0.0106533
0.0106486
0.0106439
0.0106392
0.0106346
0.0106301
0.0106257
0.0106214
0.0106174
0.0106136
0.01061
0.0106066
0.0106035
0.0106007
0.0105982
0.0105959
0.0105941
0.00853706
0.00853315
0.00852837
0.00852424
0.00852052
0.00851718
0.00851421
0.00851163
0.00850942
0.00850763
0.00850621
0.00850521
0.00850463
0.00850446
0.00850472
0.00850543
0.00850655
0.0085081
0.00851011
0.00851254
0.0085154
0.00851871
0.00852246
0.00852663
0.00853124
0.00853625
0.00854172
0.00854759
0.00855389
0.0085606
0.00856774
0.00857529
0.00858326
0.00859163
0.00860042
0.00860963
0.00861923
0.00862926
0.00863968
0.00865053
0.00866177
0.00867343
0.00868549
0.00869797
0.00871084
0.00872414
0.00873781
0.00875191
0.00876641
0.00878132
0.00879663
0.00881234
0.00882844
0.00884495
0.00886183
0.00887911
0.00889677
0.00891482
0.00893321
0.00895198
0.00897109
0.00899055
0.00901035
0.00903046
0.00905089
0.00907162
0.00909262
0.00911388
0.0091354
0.00915717
0.00917913
0.00920129
0.00922363
0.00924613
0.00926875
0.00929149
0.00931432
0.00933721
0.00936014
0.00938309
0.00940603
0.00942894
0.00945177
0.00947455
0.0094972
0.00951974
0.00954213
0.00956433
0.00958634
0.00960815
0.00962972
0.00965105
0.00967211
0.0096929
0.00971338
0.00973359
0.00975348
0.00977305
0.00979232
0.00981123
0.00982985
0.00984814
0.00986612
0.00988379
0.00990117
0.00991826
0.00993505
0.00995158
0.00996788
0.00998394
0.0099998
0.0100154
0.0100309
0.0100462
0.0100614
0.0100765
0.0100915
0.0101064
0.0101213
0.0101361
0.0101509
0.0101657
0.0101805
0.0101954
0.0102104
0.0102253
0.0102403
0.0102554
0.0102706
0.0102858
0.010301
0.0103163
0.0103317
0.0103471
0.0103624
0.0103778
0.0103932
0.0104084
0.0104236
0.0104387
0.0104537
0.0104684
0.010483
0.0104973
0.0105114
0.0105251
0.0105385
0.0105515
0.0105641
0.0105762
0.0105879
0.010599
0.0106096
0.0106197
0.0106291
0.0106379
0.0106461
0.0106537
0.0106606
0.0106669
0.0106724
0.0106774
0.0106816
0.0106852
0.0106881
0.0106903
0.010692
0.010693
0.0106935
0.0106933
0.0106926
0.0106914
0.0106897
0.0106876
0.010685
0.0106821
0.0106787
0.0106751
0.0106712
0.0106671
0.0106628
0.0106583
0.0106537
0.010649
0.0106443
0.0106396
0.0106349
0.0106303
0.0106258
0.0106214
0.0106171
0.0106131
0.0106092
0.0106055
0.0106021
0.0105989
0.0105959
0.0105931
0.0105904
0.0105884
0.00853983
0.00853555
0.00853035
0.00852589
0.00852192
0.00851837
0.00851527
0.0085126
0.00851032
0.00850848
0.00850706
0.00850609
0.00850551
0.0085054
0.00850569
0.00850643
0.00850761
0.00850922
0.00851124
0.00851372
0.00851663
0.00851996
0.00852371
0.0085279
0.00853249
0.00853751
0.00854296
0.00854882
0.00855509
0.00856176
0.00856885
0.00857636
0.00858425
0.00859258
0.00860129
0.00861042
0.00861996
0.00862991
0.00864025
0.00865101
0.00866216
0.00867374
0.00868572
0.0086981
0.00871089
0.00872409
0.00873771
0.00875172
0.00876615
0.00878098
0.00879623
0.00881186
0.00882794
0.00884438
0.00886124
0.00887848
0.00889612
0.00891413
0.00893255
0.00895129
0.00897043
0.00898993
0.00900975
0.00902992
0.0090504
0.00907119
0.00909229
0.00911365
0.00913527
0.00915716
0.00917924
0.00920156
0.00922404
0.0092467
0.00926951
0.00929241
0.00931542
0.0093385
0.00936163
0.00938477
0.00940793
0.00943104
0.00945411
0.00947709
0.00949997
0.00952274
0.00954534
0.00956776
0.00959
0.00961201
0.00963381
0.00965533
0.00967659
0.00969756
0.00971826
0.0097386
0.00975868
0.00977839
0.00979781
0.00981688
0.00983562
0.00985403
0.0098721
0.00988987
0.00990732
0.00992448
0.00994133
0.00995789
0.00997422
0.0099903
0.0100061
0.0100218
0.0100372
0.0100525
0.0100677
0.0100827
0.0100976
0.0101124
0.0101272
0.0101419
0.0101566
0.0101713
0.010186
0.0102008
0.0102155
0.0102303
0.0102452
0.0102601
0.0102751
0.0102902
0.0103053
0.0103204
0.0103356
0.0103508
0.010366
0.0103812
0.0103964
0.0104115
0.0104265
0.0104415
0.0104562
0.0104708
0.0104852
0.0104994
0.0105133
0.0105268
0.01054
0.0105529
0.0105653
0.0105773
0.0105888
0.0105997
0.0106101
0.01062
0.0106293
0.0106379
0.010646
0.0106533
0.0106601
0.0106662
0.0106715
0.0106763
0.0106803
0.0106837
0.0106864
0.0106885
0.01069
0.0106908
0.010691
0.0106907
0.0106899
0.0106885
0.0106867
0.0106844
0.0106816
0.0106786
0.0106751
0.0106714
0.0106674
0.0106632
0.0106588
0.0106542
0.0106496
0.0106449
0.0106401
0.0106353
0.0106306
0.010626
0.0106214
0.010617
0.0106127
0.0106086
0.0106047
0.0106009
0.0105973
0.010594
0.0105908
0.0105878
0.0105848
0.0105825
0.00854203
0.00853743
0.00853184
0.00852708
0.00852286
0.00851914
0.00851587
0.00851308
0.00851075
0.00850886
0.00850743
0.00850644
0.0085059
0.00850579
0.00850613
0.00850689
0.00850811
0.00850976
0.00851183
0.00851434
0.00851726
0.0085206
0.00852437
0.00852857
0.00853316
0.00853819
0.00854361
0.00854944
0.00855569
0.00856233
0.00856938
0.00857683
0.00858469
0.00859296
0.00860162
0.00861068
0.00862015
0.00863002
0.00864029
0.00865098
0.00866207
0.00867356
0.00868545
0.00869777
0.00871049
0.00872362
0.00873717
0.00875112
0.00876551
0.00878028
0.00879548
0.00881109
0.00882712
0.00884353
0.00886038
0.00887762
0.00889524
0.00891328
0.00893171
0.00895052
0.0089697
0.00898926
0.00900914
0.00902939
0.00904998
0.00907089
0.0090921
0.00911359
0.00913538
0.00915741
0.00917967
0.00920215
0.00922483
0.00924768
0.0092707
0.00929383
0.00931706
0.00934039
0.00936375
0.00938714
0.00941054
0.00943393
0.00945723
0.00948048
0.00950362
0.00952662
0.00954948
0.00957217
0.00959465
0.00961692
0.00963892
0.00966069
0.00968219
0.00970338
0.00972427
0.00974485
0.00976509
0.009785
0.00980456
0.0098238
0.00984266
0.00986121
0.0098794
0.00989727
0.00991479
0.009932
0.00994893
0.00996555
0.00998189
0.00999797
0.0100138
0.0100294
0.0100449
0.0100601
0.0100752
0.0100901
0.0101049
0.0101196
0.0101343
0.0101489
0.0101635
0.0101781
0.0101926
0.0102072
0.0102218
0.0102364
0.0102511
0.0102659
0.0102807
0.0102955
0.0103105
0.0103254
0.0103404
0.0103554
0.0103704
0.0103854
0.0104004
0.0104153
0.0104301
0.0104449
0.0104595
0.0104739
0.0104881
0.010502
0.0105157
0.0105291
0.0105421
0.0105548
0.010567
0.0105788
0.0105901
0.0106009
0.0106112
0.0106208
0.0106299
0.0106384
0.0106462
0.0106534
0.01066
0.0106658
0.010671
0.0106756
0.0106794
0.0106826
0.0106851
0.010687
0.0106883
0.0106889
0.010689
0.0106885
0.0106874
0.0106859
0.0106839
0.0106814
0.0106785
0.0106753
0.0106717
0.0106679
0.0106637
0.0106594
0.0106549
0.0106503
0.0106455
0.0106407
0.0106359
0.0106311
0.0106263
0.0106216
0.010617
0.0106125
0.0106082
0.010604
0.0106
0.0105961
0.0105924
0.0105889
0.0105856
0.0105823
0.010579
0.0105765
0.00854363
0.00853871
0.00853279
0.00852773
0.0085233
0.00851937
0.00851596
0.00851307
0.00851065
0.00850873
0.00850727
0.00850627
0.00850573
0.00850565
0.008506
0.00850681
0.00850804
0.00850971
0.00851182
0.00851435
0.00851729
0.00852065
0.00852444
0.00852864
0.00853324
0.00853824
0.00854365
0.00854948
0.00855568
0.00856231
0.00856932
0.00857674
0.00858454
0.00859275
0.00860136
0.00861037
0.00861979
0.00862959
0.0086398
0.00865042
0.00866145
0.00867287
0.00868472
0.00869697
0.00870962
0.00872272
0.00873621
0.00875013
0.00876446
0.00877922
0.0087944
0.00880999
0.008826
0.00884244
0.00885929
0.00887656
0.00889423
0.0089123
0.00893079
0.00894967
0.00896894
0.00898858
0.00900859
0.00902897
0.00904968
0.00907074
0.00909212
0.00911379
0.00913577
0.00915798
0.00918047
0.00920319
0.0092261
0.00924921
0.00927246
0.00929585
0.00931938
0.00934296
0.00936662
0.00939032
0.009414
0.00943766
0.00946128
0.00948483
0.00950827
0.00953156
0.00955473
0.0095777
0.00960046
0.00962301
0.0096453
0.00966733
0.00968908
0.00971053
0.00973164
0.00975243
0.00977288
0.00979301
0.00981275
0.00983217
0.00985118
0.00986986
0.00988818
0.00990614
0.00992376
0.00994107
0.00995803
0.00997468
0.00999106
0.0100072
0.010023
0.0100386
0.0100539
0.0100691
0.0100841
0.010099
0.0101137
0.0101283
0.0101428
0.0101573
0.0101717
0.0101861
0.0102005
0.0102149
0.0102293
0.0102438
0.0102583
0.0102728
0.0102874
0.010302
0.0103167
0.0103314
0.0103461
0.010361
0.0103757
0.0103905
0.0104052
0.0104199
0.0104345
0.0104491
0.0104634
0.0104776
0.0104916
0.0105053
0.0105188
0.010532
0.0105448
0.0105573
0.0105693
0.0105809
0.010592
0.0106026
0.0106126
0.0106221
0.010631
0.0106392
0.0106469
0.0106539
0.0106602
0.0106659
0.0106709
0.0106752
0.0106789
0.0106818
0.0106842
0.0106858
0.0106869
0.0106873
0.0106872
0.0106865
0.0106853
0.0106835
0.0106813
0.0106787
0.0106756
0.0106722
0.0106685
0.0106645
0.0106602
0.0106557
0.0106511
0.0106464
0.0106415
0.0106366
0.0106317
0.0106268
0.010622
0.0106172
0.0106125
0.010608
0.0106035
0.0105993
0.0105952
0.0105912
0.0105874
0.0105838
0.0105802
0.0105768
0.0105733
0.0105706
0.00854456
0.00853937