/*--------------------------------*- C++ -*----------------------------------*\
  =========                 |
  \\      /  F ield         | OpenFOAM: The Open Source CFD Toolbox
   \\    /   O peration     | Website:  https://openfoam.org
    \\  /    A nd           | Version:  6
     \\/     M anipulation  |
\*---------------------------------------------------------------------------*/
FoamFile
{
    version     2.0;
    format      ascii;
    class       volScalarField;
    location    "0";
    object      T;
}
// * * * * * * * * * * * * * * * * * * * * * * * * * * * * * * * * * * * * * //

dimensions      [0 0 0 1 0 0 0];

internalField   nonuniform List<scalar> 
10000
(
0.593676
1.91507
0.791904
-1.11832
-3.3207
-5.55998
-7.71114
-9.72184
-11.5637
-13.211
-14.6417
-15.8405
-16.7996
-17.5123
-17.9662
-18.1149
-17.8014
-17.8646
-18.368
-18.2399
-17.569
-16.6881
-15.7864
-14.9147
-14.063
-13.208
-12.3412
-11.4809
-10.6673
-9.95768
-9.42557
-9.1524
-9.22054
-9.70877
-10.6855
-12.2004
-14.2797
-16.9218
-20.0936
-23.7299
-27.7364
-31.995
-36.3701
-40.7182
-44.8985
-48.7819
-52.2598
-55.2493
-57.6976
-59.583
-60.9133
-61.7211
-62.0588
-61.9932
-61.5989
-60.9543
-60.1367
-59.2147
-58.2501
-57.273
-56.3187
-55.4174
-54.62
-53.9641
-53.4477
-53.0808
-52.8725
-52.8278
-52.9472
-53.2271
-53.6594
-54.2315
-54.9249
-55.7135
-56.5617
-57.422
-58.2321
-58.9115
-59.3574
-59.44
-58.9965
-57.8254
-55.6797
-52.2616
-47.2206
-40.1592
-30.6555
-18.3176
-2.89263
15.5359
36.23
57.3522
75.4978
85.6759
83.5509
61.8615
20.5178
-27.5034
-54.0216
-31.6809
0.950605
2.66174
2.77872
1.91197
0.52078
-1.15051
-2.98809
-4.93183
-6.92139
-8.88582
-10.75
-12.4491
-13.9334
-15.1713
-16.1487
-16.8725
-17.3624
-16.2521
-18.6051
-18.554
-17.7531
-16.8035
-15.9267
-15.1339
-14.3728
-13.597
-12.7856
-11.9497
-11.1257
-10.3707
-9.75755
-9.36982
-9.29459
-9.61738
-10.4148
-11.7471
-13.6514
-16.1365
-19.179
-22.7215
-26.6749
-30.9225
-35.3275
-39.7421
-44.0188
-48.0204
-51.6292
-54.7536
-57.3338
-59.3417
-60.7811
-61.6817
-62.0952
-62.0881
-61.7365
-61.1186
-60.3109
-59.397
-58.4578
-57.4983
-56.5289
-55.523
-54.6507
-53.9869
-53.4072
-52.9817
-52.7121
-52.6029
-52.6548
-52.8643
-53.2253
-53.7269
-54.3529
-55.0796
-55.8744
-56.6929
-57.477
-58.1503
-58.6153
-58.7472
-58.3892
-57.3443
-55.3691
-52.165
-47.3734
-40.5755
-31.3068
-19.0994
-3.57805
15.3535
37.1838
60.2671
81.0258
92.5122
95.2862
74.9271
30.9615
-23.115
-55.3209
-33.5635
1.95623
5.62626
8.08768
9.46005
9.9483
9.67217
8.70524
7.13514
5.08413
2.70525
0.158495
-2.40632
-4.86829
-7.13961
-9.18259
-11.0546
-13.0841
-16.6633
-23.5884
-16.8377
-15.6483
-14.731
-14.1469
-13.7255
-13.334
-12.892
-12.3671
-11.7642
-11.1135
-10.4653
-9.88833
-9.46286
-9.27678
-9.42093
-9.9821
-11.0348
-12.6342
-14.81
-17.5599
-20.8471
-24.5995
-28.714
-33.0612
-37.4955
-41.8646
-46.0229
-49.8395
-53.2089
-56.0552
-58.3365
-60.0429
-61.1949
-61.8359
-62.028
-61.8435
-61.3605
-60.6551
-59.8011
-58.8584
-58.014
-57.1455
-56.2804
-55.0782
-54.0564
-53.6029
-52.9727
-52.5735
-52.324
-52.2234
-52.2713
-52.465
-52.7986
-53.26
-53.8311
-54.485
-55.1843
-55.878
-56.4989
-56.9584
-57.142
-56.902
-56.05
-54.3469
-51.492
-47.1129
-40.7583
-31.9034
-19.9803
-4.45934
14.9786
38.1215
63.7194
88.9441
110.208
111.824
91.8498
46.5506
-11.0261
-47.4235
-30.0803
3.25882
9.63488
14.9616
18.9964
21.6792
23.0187
23.0967
22.0721
20.1613
17.6066
14.6445
11.4849
8.29797
5.20737
2.29222
-0.402002
-2.72634
-3.36571
10.2925
-12.51
-8.97634
-8.80545
-9.10423
-9.41589
-9.658
-9.78954
-9.79067
-9.66755
-9.44528
-9.16357
-8.8769
-8.65303
-8.57046
-8.71518
-9.17523
-10.0339
-11.3622
-13.2114
-15.6054
-18.5357
-21.9599
-25.8012
-29.9519
-34.2811
-38.6441
-42.8945
-46.8942
-50.5238
-53.6903
-56.3324
-58.4212
-59.9587
-60.9732
-61.5136
-61.6432
-61.4327
-60.9542
-60.2767
-59.4599
-58.5484
-57.8498
-57.234
-56.5771
-55.002
-53.7055
-53.4655
-52.6387
-52.2063
-51.8916
-51.7058
-51.6546
-51.7382
-51.9514
-52.2835
-52.7164
-53.2226
-53.7623
-54.2804
-54.7016
-54.9249
-54.8159
-54.1967
-52.834
-50.4246
-46.5798
-40.8132
-32.538
-21.0888
-5.79415
13.8575
37.8852
65.1892
92.2154
114.813
121.373
103.959
59.4096
1.14092
-37.1004
-24.6126
4.45882
13.3018
21.0079
27.0238
31.1403
33.39
33.9743
33.1949
31.3901
28.885
25.9594
22.8332
19.6695
16.5754
13.6098
10.7836
7.96025
4.10373
-8.33645
-16.9056
6.13726
-0.115415
-1.85412
-2.77978
-3.5752
-4.2843
-4.87861
-5.35146
-5.71511
-5.99375
-6.22197
-6.44464
-6.7184
-7.11165
-7.70081
-8.56481
-9.77898
-11.4073
-13.4957
-16.0644
-19.1038
-22.5715
-26.3934
-30.4674
-34.6713
-38.872
-42.936
-46.7395
-50.1781
-53.1727
-55.6741
-57.6618
-59.1428
-60.1459
-60.7175
-60.9145
-60.7986
-60.4313
-59.87
-59.1637
-58.3504
-57.7659
-57.5882
-57.2443
-54.9793
-53.6524
-53.3407
-52.2946
-51.7274
-51.2617
-50.9155
-50.693
-50.5956
-50.6223
-50.7663
-51.0127
-51.336
-51.6965
-52.0357
-52.2697
-52.2804
-51.9033
-50.9131
-49.005
-45.7759
-40.7058
-33.1514
-22.3626
-7.55126
11.9468
36.3705
65.1512
97.1771
117.892
126.011
110.388
67.2151
9.98562
-28.1211
-19.3931
5.24465
15.588
24.4418
31.0413
35.2
37.1361
37.2773
36.1175
34.1203
31.6695
29.0521
26.458
23.9977
21.7207
19.6305
17.7092
15.9465
14.5484
15.9177
44.5808
-18.631
-0.153299
4.55999
4.7625
3.78579
2.61906
1.50504
0.480981
-0.460907
-1.3342
-2.15466
-2.94282
-3.72824
-4.55225
-5.46721
-6.5339
-7.81782
-9.38286
-11.2843
-13.5623
-16.2348
-19.2938
-22.7024
-26.3958
-30.2854
-34.2656
-38.2217
-42.0392
-45.6135
-48.8571
-51.7046
-54.1156
-56.0737
-57.5847
-58.6724
-59.3735
-59.7326
-59.7974
-59.6154
-59.2317
-58.6863
-58.0138
-57.5031
-57.9165
-57.9366
-54.157
-53.9056
-52.5864
-51.6294
-50.8828
-50.2364
-49.6875
-49.2462
-48.9242
-48.729
-48.6607
-48.7107
-48.8577
-49.0628
-49.2627
-49.3584
-49.2026
-48.5811
-47.1911
-44.6182
-40.3146
-33.5884
-23.6201
-9.5339
9.4172
33.4392
61.3213
88.5055
114.758
125.276
111.273
69.8113
14.7707
-21.6934
-15.2881
5.50515
16.1601
24.7837
30.5501
33.46
34.0243
32.9323
30.8496
28.3237
25.7559
23.412
21.4396
19.8925
18.757
17.9744
17.4671
17.1521
16.8536
14.9939
-3.12976
-20.2796
33.934
20.5989
14.3457
11.2251
9.28115
7.73916
6.33272
4.97796
3.64952
2.34019
1.04719
-0.234501
-1.51699
-2.8228
-4.18555
-5.64933
-7.265
-9.08403
-11.1529
-13.5071
-16.1644
-19.1211
-22.3495
-25.7992
-29.3997
-33.0663
-36.7069
-40.2296
-43.5499
-46.597
-49.3171
-51.6754
-53.6554
-55.2571
-56.4938
-57.388
-57.9677
-58.2636
-58.3069
-58.1286
-57.7582
-57.2296
-56.9047
-58.0732
-58.8827
-53.1462
-53.6654
-51.1488
-50.3734
-49.4889
-48.6317
-47.844
-47.1572
-46.5949
-46.1742
-45.905
-45.7866
-45.8025
-45.9123
-46.0403
-46.0597
-45.7715
-44.8801
-42.9656
-39.4597
-33.6329
-24.6089
-11.4337
6.74879
30.2982
58.2168
86.542
110.845
121.181
107.839
68.0782
15.9348
-17.8448
-12.446
5.32317
15.3335
22.732
26.7878
27.7957
26.5678
23.9906
20.8107
17.5827
14.6826
12.3445
10.6875
9.73995
9.46059
9.75777
10.5202
11.6655
13.3494
17.0943
33.2859
121.694
21.293
12.197
12.5369
13.0254
12.5924
11.5528
10.2355
8.80213
7.30826
5.77088
4.20087
2.61134
1.01546
-0.57978
-2.17821
-3.79647
-5.46374
-7.21813
-9.10151
-11.1543
-13.4093
-15.8866
-18.589
-21.5011
-24.5887
-27.8018
-31.0778
-34.3478
-37.5418
-40.5943
-43.4482
-46.058
-48.3909
-50.4261
-52.1541
-53.5739
-54.691
-55.5149
-56.0573
-56.3319
-56.3536
-56.1368
-55.6818
-55.9237
-57.5788
-57.2686
-52.0858
-52.2612
-49.6741
-48.4946
-47.3413
-46.2281
-45.1883
-44.2571
-43.4681
-42.8504
-42.4254
-42.2008
-42.1619
-42.2589
-42.3895
-42.375
-41.9325
-40.6444
-37.9318
-33.0407
-25.0569
-12.9678
4.20061
27.1205
55.5179
82.2107
104.891
114.391
101.221
63.1228
14.2778
-16.1745
-10.7214
4.88527
13.7486
19.5309
21.7119
20.9018
18.1261
14.3342
10.2345
6.31527
2.9015
0.204671
-1.65198
-2.6227
-2.72859
-2.04991
-0.711544
1.10636
3.03993
3.72893
-3.58724
-57.316
-88.3608
-16.4806
6.03519
11.9243
12.549
11.7
10.5158
9.25601
7.93129
6.51633
5.00669
3.42139
1.79265
0.153621
-1.47193
-3.07419
-4.65863
-6.24535
-7.86551
-9.55593
-11.3542
-13.2938
-15.3993
-17.6824
-20.1404
-22.7559
-25.4983
-28.326
-31.1902
-34.0396
-36.8232
-39.4936
-42.0089
-44.334
-46.4408
-48.307
-49.9159
-51.2544
-52.313
-53.0849
-53.5655
-53.751
-53.6152
-53.0387
-54.5913
-56.8321
-51.8212
-51.3114
-48.2399
-46.8499
-45.5169
-44.1508
-42.804
-41.5299
-40.3805
-39.4055
-38.649
-38.144
-37.903
-37.9048
-38.0749
-38.2597
-38.1953
-37.4745
-35.5183
-31.5648
-24.6908
-13.8836
1.84681
23.4747
53.1331
75.8793
96.8517
105.4
92.2489
55.8342
10.5197
-16.2303
-9.89705
4.37605
12.0126
16.2975
16.9717
14.8994
11.1772
6.6745
1.96867
-2.55841
-6.63142
-10.0375
-12.6164
-14.2667
-14.9525
-14.7043
-13.6101
-11.8125
-9.54288
-7.3726
-7.15656
-14.0644
-34.2974
49.1032
24.9083
13.8178
8.82921
6.61164
5.53713
4.8137
4.07626
3.18391
2.11235
0.893348
-0.419168
-1.76903
-3.11018
-4.41216
-5.66199
-6.86359
-8.03588
-9.20878
-10.419
-11.7055
-13.1053
-14.6493
-16.3585
-18.2427
-20.2994
-22.5141
-24.8618
-27.3093
-29.8175
-32.3443
-34.8463
-37.2808
-39.6066
-41.7849
-43.7794
-45.5567
-47.086
-48.3397
-49.2931
-49.923
-50.1923
-49.984
-48.965
-52.7412
-57.3122
-48.7717
-49.2865
-43.9602
-42.8822
-41.3568
-39.7588
-38.1835
-36.7012
-35.3804
-34.2866
-33.4777
-32.994
-32.8443
-32.9847
-33.2906
-33.523
-33.2919
-32.0272
-28.9716
-23.2194
-13.8369
-0.119715
17.7986
36.5735
65.4479
87.0569
94.959
81.721
46.9497
5.24907
-17.6079
-9.7607
3.90856
10.4788
13.6321
13.361
10.6702
6.58736
1.80113
-3.28155
-8.38272
-13.255
-17.6561
-21.3632
-24.1983
-26.0499
-26.8827
-26.7303
-25.6617
-23.6488
-20.066
-11.7055
14.7879
83.7657
25.149
3.26706
-4.89675
-6.9831
-6.7892
-6.02156
-5.36476
-5.03989
-5.06708
-5.38784
-5.91936
-6.57673
-7.28538
-7.98802
-8.64508
-9.23455
-9.75192
-10.2088
-10.6291
-11.0468
-11.5028
-12.0409
-12.7038
-13.5286
-14.5453
-15.7737
-17.2226
-18.8883
-20.7558
-22.8005
-24.9895
-27.2827
-29.6351
-31.9984
-34.3221
-36.5552
-38.6467
-40.5473
-42.21
-43.5913
-44.6494
-45.335
-45.5545
-45.0895
-43.6355
-48.9416
-49.8023
-44.9606
-42.8635
-39.707
-37.6687
-35.8069
-33.9746
-32.2029
-30.5667
-29.1494
-28.0321
-27.2825
-26.9399
-26.9926
-27.3486
-27.7976
-27.9721
-27.3158
-25.0774
-20.3648
-12.3042
-0.336384
15.6499
36.0423
59.4086
78.1121
84.0933
70.2494
36.9541
-1.14304
-20.0122
-10.1463
3.50625
9.20437
11.5745
10.8179
7.95657
3.8483
-1.03907
-6.46054
-12.2104
-18.0388
-23.6516
-28.7485
-33.0668
-36.4164
-38.699
-39.9082
-40.1061
-39.3064
-36.998
-30.3249
-8.03488
67.606
-50.1121
-43.9897
-36.7643
-30.6334
-26.0526
-22.8431
-20.6832
-19.2766
-18.3847
-17.8251
-17.4623
-17.1956
-16.9502
-16.6744
-16.3355
-15.917
-15.4169
-14.8472
-14.2316
-13.6039
-13.0067
-12.488
-12.0977
-11.8837
-11.8897
-12.1516
-12.6951
-13.5337
-14.6682
-16.087
-17.7668
-19.6731
-21.7621
-23.9823
-26.2762
-28.5818
-30.8352
-32.9717
-34.928
-36.6438
-38.0613
-39.1202
-39.7426
-39.8147
-39.3151
-39.2071
-45.0667
-40.023
-40.7851
-33.4221
-32.3513
-30.6201
-28.6687
-26.6782
-24.7728
-23.0616
-21.6491
-20.6291
-20.071
-19.9961
-20.3461
-20.9436
-21.4477
-21.3171
-19.7982
-15.9783
-8.99973
1.26795
12.0742
33.8709
54.1863
69.5602
72.9731
58.1247
26.1491
-8.38508
-23.2144
-10.9215
3.12374
8.03003
9.78815
8.75349
5.86728
1.76486
-3.29803
-9.20114
-15.7724
-22.7322
-29.7189
-36.3482
-42.2712
-47.2228
-51.0491
-53.7202
-55.3381
-56.14
-56.4407
-56.168
-52.6262
-31.1343
-101.412
-78.328
-62.7261
-52.9227
-46.7285
-42.7125
-39.9849
-37.9976
-36.4097
-35.0084
-33.6629
-32.2927
-30.8503
-29.3113
-27.6665
-25.9184
-24.0798
-22.1734
-20.2303
-18.2896
-16.3985
-14.6101
-12.9802
-11.5639
-10.4136
-9.57571
-9.08756
-8.97427
-9.24781
-9.90643
-10.9346
-12.3034
-13.9711
-15.8849
-17.9831
-20.1968
-22.4524
-24.6736
-26.7842
-28.7099
-30.3794
-31.7227
-32.6646
-33.1169
-32.992
-32.0963
-36.716
-39.7845
-34.8495
-33.8851
-26.2801
-24.3795
-22.2135
-20.0056
-17.8619
-15.8902
-14.2078
-12.93
-12.1533
-11.931
-12.2402
-12.939
-13.7185
-14.0567
-13.1862
-10.087
-3.5035
7.97846
24.9891
35.5599
49.9814
61.1205
61.5275
45.4567
14.7271
-16.2706
-27.0233
-11.9771
2.68261
6.70051
7.79914
6.43093
3.39514
-0.907125
-6.39719
-13.035
-20.6503
-28.9157
-37.393
-45.61
-53.131
-59.6184
-64.869
-68.8383
-71.6597
-73.7393
-76.0354
-80.8932
-94.449
-134.404
-134.902
-87.0432
-77.4727
-71.6146
-67.6549
-64.7866
-62.5064
-60.4707
-58.45
-56.3049
-53.9625
-51.3941
-48.5988
-45.5941
-42.4071
-39.0712
-35.6251
-32.1122
-28.5798
-25.0791
-21.6675
-18.4061
-15.3575
-12.5827
-10.14
-8.08245
-6.45376
-5.28557
-4.59611
-4.38947
-4.65496
-5.36682
-6.48471
-7.95516
-9.71362
-11.6865
-13.7935
-15.9499
-18.0695
-20.0675
-21.8618
-23.3733
-24.5219
-25.2167
-25.3223
-24.4488
-21.2967
-28.4586
-27.8279
-26.4343
-20.2301
-17.0647
-14.498
-12.0799
-9.74033
-7.55325
-5.63988
-4.1328
-3.153
-2.78453
-3.04033
-3.81826
-4.85084
-5.65611
-5.49815
-3.34664
2.31877
14.8098
22.3585
32.7203
44.1721
51.9023
49.5339
32.3186
2.87796
-24.5848
-31.2444
-13.2132
2.10498
4.97169
5.1815
3.22929
-0.259447
-5.10013
-11.3477
-19.0041
-27.8798
-37.5908
-47.6182
-57.3976
-66.4022
-74.222
-80.6099
-85.5185
-89.0908
-91.7573
-94.4864
-99.6647
-113.564
-153.332
-139.655
-95.1573
-93.5749
-91.9588
-90.5061
-89.1058
-87.568
-85.7197
-83.437
-80.656
-77.3659
-73.5926
-69.3865
-64.813
-59.9433
-54.85
-49.6066
-44.2869
-38.963
-33.7068
-28.5913
-23.6901
-19.0745
-14.8123
-10.9664
-7.59349
-4.74012
-2.44021
-0.713868
0.433191
1.01041
1.04306
0.571874
-0.348374
-1.65072
-3.25795
-5.08481
-7.04067
-9.03246
-10.9675
-12.7558
-14.3108
-15.5478
-16.3779
-16.6923
-16.3506
-15.5383
-18.0579
-19.7143
-19.0322
-18.2054
-6.40014
-4.92455
-2.74182
-0.361935
1.96303
4.05402
5.74863
6.90011
7.39515
7.18506
6.32886
5.04188
3.73727
3.03188
3.64237
5.901
6.9638
18.5825
28.6904
37.8157
42.4903
37.4676
19.1389
-9.02241
-33.0155
-35.6401
-14.5253
1.33418
2.67392
1.64922
-1.24753
-5.57734
-11.3379
-18.6737
-27.5993
-37.8944
-49.1165
-60.6636
-71.8722
-82.118
-90.9179
-97.9879
-103.307
-107.042
-109.606
-111.677
-114.589
-121.291
-137.978
-135.149
-113.004
-113.717
-114.312
-114.624
-114.496
-113.751
-112.244
-109.882
-106.634
-102.532
-97.6471
-92.0778
-85.9389
-79.35
-72.4296
-65.2941
-58.0558
-50.8203
-43.6866
-36.7499
-30.1005
-23.8216
-17.9886
-12.6689
-7.92118
-3.79233
-0.315482
2.49091
4.62308
6.09245
6.92635
7.16786
6.87433
6.1155
4.97174
3.53187
1.89066
0.145949
-1.60426
-3.26431
-4.74246
-5.95057
-6.79988
-7.187
-6.95159
-5.72057
-1.77291
-6.18408
-11.9577
-9.08476
-4.0664
5.1634
7.4643
10.0338
12.5167
14.7643
16.6115
17.8975
18.4875
18.3008
17.3532
15.8048
13.9993
12.4601
11.7881
12.9449
13.7229
18.8914
26.0035
32.1652
33.6484
25.9168
6.41874
-20.5501
-41.2231
-39.9673
-15.8158
0.343014
-0.269105
-2.92436
-7.16799
-12.7439
-19.7883
-28.4912
-38.8578
-50.631
-63.3105
-76.2093
-88.5565
-99.6217
-108.853
-115.947
-120.963
-124.144
-125.984
-126.927
-127.458
-128.354
-130.751
-131.668
-130.314
-133.015
-135.531
-137.519
-138.768
-139.052
-138.179
-136.034
-132.595
-127.917
-122.112
-115.325
-107.724
-99.4799
-90.7644
-81.7429
-72.573
-63.3998
-54.3558
-45.563
-37.1321
-29.1608
-21.733
-14.9211
-8.78496
-3.37051
1.29217
5.18863
8.31954
10.7007
12.3635
13.3551
13.7364
13.5804
12.9704
11.9979
10.7607
9.35969
7.89609
6.46901
5.17338
4.09947
3.33511
2.97368
3.13429
4.00078
5.8215
6.88608
7.51215
2.06452
2.3739
13.6124
18.0479
21.1324
23.8602
26.275
28.2541
29.6394
30.2869
30.0917
29.0271
27.195
24.8826
22.5719
20.3292
13.6745
17.519
20.9564
25.0774
27.8992
25.9685
15.4016
-5.37578
-31.3055
-48.8894
-44.0057
-17.0025
-0.867698
-3.84937
-8.52988
-14.5177
-21.7192
-30.3567
-40.6216
-52.4895
-65.6644
-79.5878
-93.4814
-106.459
-117.682
-126.544
-132.755
-136.545
-138.32
-138.841
-138.455
-137.224
-135.279
-133.066
-131.747
-143.475
-148.167
-152.708
-156.628
-159.65
-161.421
-161.638
-160.127
-156.858
-151.916
-145.454
-137.671
-128.793
-119.05
-108.669
-97.8684
-86.8563
-75.8208
-64.9313
-54.3394
-44.1786
-34.5621
-25.5838
-17.3212
-9.83533
-3.17028
2.6479
7.60991
11.7221
15.0059
17.4981
19.2507
20.3287
20.8087
20.7765
20.3258
19.5562
18.5703
17.471
16.3589
15.3305
14.4774
13.8868
13.6476
13.8641
14.6879
16.3681
19.3129
22.2522
11.2135
10.9031
14.6536
30.8886
33.2683
35.8937
38.3458
40.3962
41.8323
42.4952
42.2548
41.0307
38.8397
35.9146
33.2957
34.5868
31.7403
26.0097
25.1373
25.7746
25.0889
19.6697
6.21823
-15.921
-40.9837
-55.7642
-47.5849
-18.0256
-2.2741
-7.99403
-15.0566
-23.1499
-32.3044
-42.7655
-54.6804
-67.9769
-82.3162
-97.077
-111.38
-124.216
-134.641
-142.04
-146.202
-147.643
-147.047
-145.759
-143.985
-141.544
-138.701
-136.552
-131.503
-150.762
-157.14
-163.806
-169.916
-175.23
-179.092
-180.952
-180.54
-177.83
-172.959
-166.137
-157.627
-147.724
-136.718
-124.891
-112.519
-99.8567
-87.1374
-74.5676
-62.3291
-50.5782
-39.4443
-29.0316
-19.4226
-10.68
-2.84609
4.05698
10.0251
15.0704
19.2201
22.5165
25.0164
26.7888
27.9133
28.478
28.578
28.3137
27.7883
27.1048
26.3641
25.6632
25.0938
24.743
24.6972
25.0554
25.9668
27.7422
31.2663
39.2055
37.7058
27.3827
26.4655
32.0596
46.5932
48.4952
50.676
52.6711
54.0841
54.7233
54.4151
52.9878
50.2461
45.7725
39.5446
29.8533
32.5774
30.6812
28.9401
27.1882
23.4234
14.7226
-1.51666
-25.031
-49.3851
-61.6745
-50.5877
-18.8478
-3.83598
-12.5847
-22.3255
-32.8252
-44.1853
-56.6035
-70.1341
-84.639
-99.7338
-114.722
-128.605
-140.241
-148.6
-153.139
-153.883
-151.717
-147.729
-144.512
-141.541
-138.152
-135.373
-136.094
-126.372
-150.759
-158.875
-167.655
-175.74
-183.956
-190.654
-194.751
-195.889
-194.083
-189.595
-182.698
-173.742
-163.115
-151.153
-138.187
-124.543
-110.523
-96.3991
-82.412
-68.7725
-55.6581
-43.2134
-31.5525
-20.7633
-10.9105
-2.03572
5.84185
12.7223
18.6224
23.5741
27.6244
30.8338
33.2745
35.0283
36.1846
36.839
37.0919
37.0457
36.8029
36.4635
36.1241
35.8762
35.807
36.0021
36.5555
37.5945
39.3355
42.2264
47.3928
54.5922
39.4101
34.9603
36.5668
47.2588
60.8817
62.5964
64.5292
65.8771
66.5128
66.1888
64.6335
61.5161
54.9396
41.7126
43.7388
39.8562
36.5737
33.3978
29.4703
22.9002
11.1415
-7.73941
-32.6036
-56.395
-66.5183
-52.9453
-19.4491
-5.50169
-17.4716
-30.1066
-43.2351
-56.9598
-71.355
-86.3341
-101.68
-116.96
-131.378
-143.789
-152.915
-157.651
-157.643
-153.584
-146.562
-138.016
-133.749
-130.239
-125.378
-122.004
-124.246
-115.574
-143.324
-153.332
-164.158
-172.088
-184.478
-195.129
-202.062
-205.148
-204.449
-200.597
-193.837
-184.668
-173.66
-161.116
-147.386
-132.86
-117.867
-102.707
-87.6555
-72.9467
-58.7756
-45.2996
-32.6419
-20.8963
-10.1305
-0.386834
8.31653
15.9818
22.6282
28.2908
33.0189
36.8753
39.934
42.2774
43.9952
45.1823
45.9381
46.3635
46.5595
46.6249
46.6554
46.7427
46.9752
47.4414
48.2395
49.4999
51.4325
54.4351
59.3772
74.0495
66.4793
51.4088
45.8922
46.7259
59.3077
73.1972
75.232
76.5291
77.3769
77.2071
75.708
73.6154
67.4685
71.5173
57.5565
49.5768
43.927
38.8214
32.6943
23.4909
8.89078
-12.4578
-38.617
-61.976
-70.2575
-54.6325
-19.8245
-7.21331
-22.4871
-38.1368
-54.0184
-70.1576
-86.4255
-102.55
-118.235
-133.003
-145.919
-155.654
-160.81
-160.192
-153.634
-143.74
-130.966
-115.678
-113.928
-111.394
-102.34
-95.9243
-101.792
-98.0046
-129.738
-141.964
-156.2
-153.918
-175.962
-192.362
-202.439
-207.933
-208.137
-205.164
-198.543
-189.189
-178.25
-165.554
-151.467
-136.527
-121.024
-105.27
-89.5819
-74.2104
-59.3595
-45.1952
-31.8494
-19.4231
-7.98779
2.41171
11.7554
20.0447
27.2987
33.5522
38.8548
43.2696
46.87
49.7377
51.9609
53.6332
54.8516
55.7151
56.3228
56.7721
57.1581
57.5734
58.1102
58.8646
59.9487
61.5158
63.8127
67.2915
72.8958
84.569
87.2358
66.8742
58.0585
54.3397
53.8523
64.882
79.6412
85.4854
86.8567
86.9652
84.8596
71.402
70.8985
67.7385
63.2986
57.1716
51.0432
44.6093
36.5913
25.0277
7.85081
-15.7532
-43.1207
-66.1552
-72.9066
-55.6589
-19.9812
-8.90961
-27.4549
-46.1322
-64.7796
-83.2603
-101.168
-118.006
-133.418
-146.913
-157.35
-163.15
-162.952
-155.432
-139.744
-123.766
-106.117
-88.3567
-94.6643
-94.2154
-68.4966
-48.7145
-56.7974
-65.592
-105.028
-115.919
-109.851
-113.585
-161.783
-184.194
-195.806
-205.328
-204.519
-203.327
-196.233
-186.013
-176.159
-163.752
-149.592
-134.829
-119.337
-103.457
-87.6175
-72.0536
-56.9571
-42.4985
-28.8205
-16.0334
-4.21329
6.59115
16.355
25.0748
32.766
39.4608
45.2061
50.0625
54.1011
57.401
60.0476
62.1316
63.7477
64.9922
65.9622
66.7539
67.4629
68.1849
69.0189
70.0748
71.4889
73.4547
76.2817
80.4987
87.0379
93.5845
99.9092
83.5548
69.0572
58.9169
55.9447
54.3191
60.1799
68.6127
73.706
71.2066
61.5676
64.6543
77.5519
74.3979
69.9021
64.2494
57.8997
50.5356
40.9692
27.3551
7.88934
-17.7374
-46.2054
-69.0033
-74.5167
-56.0573
-19.9338
-10.5305
-32.2016
-53.8048
-75.1091
-95.7315
-114.922
-131.932
-146.386
-157.854
-164.886
-165.492
-158.933
-144.279
-112.874
-95.0216
-80.5127
-44.286
-24.211
-12.2399
-3.81331
9.0285
-14.7858
-44.1292
-95.7143
-125.596
-144.936
-145.142
-158.151
-158.099
-170.903
-173.569
-190.85
-197.446
-187.023
-172.531
-167.833
-155.59
-140.943
-127.446
-112.458
-96.8186
-81.3793
-66.1549
-51.2887
-36.9629
-23.342
-10.5519
1.33187
12.2574
22.1896
31.1153
39.0428
45.9989
52.0257
57.1789
61.525
65.1387
68.1015
70.5007
72.4275
73.976
75.2414
76.3197
77.3084
78.3092
79.4328
80.8105
82.6139
85.0918
88.6224
93.7356
100.64
101.722
105.751
92.1994
76.476
66.7973
57.7277
54.2823
50.2509
50.2312
51.7071
56.3073
70.1875
103.846
87.8133
81.8396
76.6758
71.0462
64.5277
56.4898
45.6787
30.3223
8.86222
-18.5449
-47.9918
-70.6221
-75.1663
-55.8789
-19.7022
-12.0206
-36.5652
-60.8811
-84.6103
-107.053
-127.063
-143.621
-156.397
-165.15
-168.01
-161.929
-148.322
-117.583
-74.7882
-79.1064
-24.5748
35.5143
62.2014
31.3636
10.0242
4.30785
-23.862
-40.7012
-70.1016
-84.1328
-92.9522
-98.7507
-113.489
-131.317
-166.446
-223.811
-225.531
-181.685
-156.767
-138.864
-158.922
-141.824
-123.526
-115.143
-100.493
-84.9583
-70.7359
-56.4591
-42.3089
-28.5452
-15.3846
-2.98574
8.60682
19.3447
29.1694
38.0493
45.9835
52.993
59.1132
64.3924
68.8905
72.6766
75.8273
78.4255
80.5594
82.3207
83.8037
85.1052
86.3271
87.5804
88.9934
90.7271
93.0028
96.1489
100.67
107.453
110.728
102.649
95.0679
85.9058
74.1565
67.2509
59.1207
53.8968
52.6578
53.6364
58.8868
71.3352
102.021
89.1198
89.2557
86.3353
82.2834
77.2029
70.8005
62.3627
50.5952
33.7926
10.627
-18.3182
-48.6159
-71.1316
-74.9493
-55.1846
-19.3089
-13.3324
-40.405
-67.1192
-92.9283
-116.763
-137.056
-152.507
-162.892
-168.293
-166.612
-151.24
-114.416
-110.686
-94.6834
-26.2323
61.105
83.0069
67.4866
51.3226
60.1561
58.9654
28.1539
4.11352
-26.7606
-48.7027
-65.9166
-81.692
-100.405
-123.12
-156.095
-174.671
-146.394
-117.121
-127.248
-180.632
-164.662
-117.006
-88.4838
-103.529
-83.857
-66.7303
-56.0673
-43.2923
-30.2595
-17.4322
-5.11571
6.43335
17.3438
27.5812
37.0131
45.5758
53.2631
60.0955
66.0998
71.3142
75.7899
79.5894
82.7837
85.4516
87.6781
89.553
91.1705
92.6303
94.0408
95.5261
97.2377
99.3744
102.222
106.22
112.012
120.019
112.852
92.8322
75.1518
67.5247
63.3439
60.6448
55.4494
49.6488
49.5518
53.8772
64.6179
90.0317
104.244
92.9044
91.4807
89.7064
86.8554
82.6321
76.6332
68.0686
55.6185
37.6488
13.0517
-17.1984
-48.2182
-70.6595
-73.9672
-54.0395
-18.7762
-14.431
-43.6163
-72.3311
-99.7826
-124.496
-144.498
-158.234
-165.622
-166.798
-161.558
-111.908
-135.427
-145.532
-58.2566
96.6328
118.413
111.31
114.336
101.006
91.235
75.1333
61.9897
39.5037
10.9217
-13.466
-34.6778
-54.3854
-74.1763
-94.2901
-113.629
-122.861
-115.819
-108.579
-115.933
-136.368
-100.265
-73.8459
-101.642
-110.418
-65.8997
-36.979
-39.9524
-27.396
-15.6663
-4.01524
7.18251
17.2055
26.9988
36.4852
45.257
53.2178
60.3828
66.7947
72.464
77.4111
81.6784
85.3215
88.406
91.0062
93.2044
95.0893
96.7561
98.3086
99.8639
101.563
103.584
106.168
109.674
114.685
122.202
119.448
95.8944
65.7938
39.7547
38.317
44.7866
45.1959
43.4135
42.1977
43.2049
50.4948
68.7194
96.4109
92.9982
91.578
91.8773
91.6964
90.3379
87.2761
81.9672
73.544
60.6715
41.7952
16.0214
-15.3157
-46.9352
-69.3339
-72.3227
-52.5078
-18.1254
-15.2972
-46.1396
-76.4035
-104.996
-130.014
-149.141
-160.693
-164.978
-159.536
-135.379
-135.221
-196.893
-94.5889
115.128
141.437
136.77
146.503
146.404
136.466
121.532
94.9545
86.4493
68.0143
44.2862
20.5345
-1.63547
-22.267
-41.5649
-59.1168
-73.5078
-81.6152
-82.8922
-83.1678
-86.8811
-90.1632
-77.2769
-67.4596
-73.123
-60.4276
-25.2103
-45.6277
-42.1556
-8.16215
0.703643
11.1827
21.5097
28.4052
36.6604
45.4406
53.3263
60.375
66.708
72.4628
77.5857
82.0591
85.9262
89.2377
92.0534
94.4432
96.4862
98.271
99.8945
101.466
103.111
104.988
107.317
110.377
114.591
120.678
120.077
96.1204
54.3037
16.1599
-5.34014
6.43907
20.7482
24.5244
25.5924
27.9164
32.5408
41.8909
61.1134
80.6059
85.6142
87.2832
89.9683
92.0941
92.6924
91.1343
86.7994
78.7708
65.7156
46.1681
19.4466
-12.7816
-44.8904
-67.2746
-70.1141
-50.652
-17.375
-15.9291
-47.9687
-79.3156
-108.524
-133.227
-150.854
-159.845
-163.032
-119.008
-131.306
-245.093
-153.347
117.292
132.42
148.263
166.698
175.023
174.033
165.748
155.975
132.796
119.507
95.1538
74.3736
52.0872
30.4372
10.225
-8.12483
-24.0672
-36.7698
-45.3076
-50.0395
-53.1002
-55.7173
-56.12
-50.9701
-45.7838
-43.0104
-34.0387
-20.8288
-21.1946
-4.41099
17.5964
-11.1969
15.4494
39.7908
37.7786
44.8299
54.0435
60.6969
66.4259
71.512
76.4448
80.8475
84.6302
87.9007
90.702
93.0835
95.1106
96.8572
98.413
99.8777
101.365
103.003
104.964
107.554
111.096
116.067
113.931
86.6955
36.6921
-9.45628
-45.0332
-45.1897
-15.1584
-1.48331
-0.10525
5.24702
11.6915
17.7523
25.9579
40.555
60.5604
72.0182
79.2789
85.9729
91.1242
94.0888
94.3286
91.2114
83.7946
70.761
50.7431
23.2693
-9.68262
-42.1883
-64.5879
-67.4329
-48.5334
-16.536
-16.3431
-49.1535
-81.1506
-110.483
-134.243
-149.615
-154.79
-137.042
-57.3736
-267.543
-248.83
89.5351
108.853
141.596
170.591
188.947
196.635
194.732
184.383
165.485
157.489
153.989
120.552
101
79.8899
59.1231
39.7137
22.2713
7.27698
-4.84293
-13.8631
-20.1253
-24.4493
-27.2159
-27.8654
-25.8182
-22.7001
-19.0644
-12.9546
-5.51866
-0.266896
9.2916
18.0725
14.8996
44.3658
44.1225
26.0575
49.2123
63.4764
67.0386
70.8805
73.9084
78.2134
81.8016
84.5939
87.0679
89.1774
90.9431
92.4354
93.7096
94.8642
96.0016
97.2438
98.6859
100.433
103.101
107.027
99.8604
66.825
9.80922
-42.2758
-84.584
-87.6198
-55.7297
-24.4931
-18.5645
-15.3375
-6.55353
1.50423
6.87196
10.815
17.5182
36.7613
55.3041
69.2028
80.5779
89.1869
94.8129
97.0751
95.3624
88.7236
75.8688
55.5372
27.4656
-6.07712
-38.9082
-61.3579
-64.3599
-46.2345
-15.5898
-16.5701
-49.7918
-82.0877
-111.162
-133.42
-145.807
-151.382
-95.7532
-142.579
-307.16
11.3039
83.6189
116.588
156.903
186.467
204.678
212.078
210.025
199.993
186.373
178.654
173.035
144.423
123.538
102.744
82.6272
63.9182
47.1592
32.7222
20.8274
11.497
4.49697
-0.540571
-3.80706
-5.22271
-4.79797
-3.09022
-0.329879
3.80205
8.80637
13.8883
20.224
26.2753
30.8074
42.2748
46.2371
47.2838
64.9751
46.6156
62.1126
73.7994
72.1703
77.7953
80.4657
81.5451
83.1013
84.343
85.2682
86.0246
86.5786
87.0784
87.6217
88.3787
89.3365
89.8882
92.0328
75.599
33.8672
-28.6384
-83.6853
-126.583
-128.218
-91.2744
-43.2698
-31.6995
-31.1386
-18.0867
-4.78668
2.76216
4.45221
3.28557
-0.104716
15.1121
40.2395
59.1156
74.7894
86.8707
95.2711
99.6768
99.4794
93.7202
81.144
60.6033
32.0421
-1.99531
-35.0997
-57.6307
-60.9508
-43.979
-14.3295
-16.6505
-50.0062
-82.3684
-110.985
-131.321
-138.277
-120.488
-84.2727
-283.397
-102.92
71.356
75.4039
127.196
167.886
197.096
214.845
221.901
219.885
211.469
192.899
207.028
184.361
161.687
140.297
119.582
99.8227
81.5453
65.1893
51.0375
39.2134
29.6824
22.2739
16.7648
12.9906
10.8593
10.235
10.8467
12.5171
15.1922
18.6218
22.5309
27.0302
31.6771
36.381
42.5792
46.8797
50.4604
56.3613
54.5879
73.3918
63.9794
55.0361
72.2084
77.8599
74.7835
76.0643
76.2486
75.9596
75.7953
75.2342
74.7091
74.2086
74.1736
74.8632
70.8611
40.5679
-12.9898
-78.1733
-132.894
-169.43
-159.033
-107.276
-50.7676
-34.9711
-38.985
-22.1585
-2.06696
9.28669
10.768
7.83512
2.45013
-6.61754
-2.43029
31.7344
51.7451
70.1063
85.0412
96.0136
102.517
103.84
98.9848
86.7225
66.0197
37.0273
2.55439
-30.7748
-53.3465
-57.0241
-42.8102
-11.6387
-16.6284
-49.9344
-82.2801
-110.543
-129.387
-134.786
-50.8307
-178.502
-227.916
48.5281
22.3391
85.9171
135.946
175.107
203.228
220.222
226.574
223.68
217.741
208.369
220.92
187.599
170.337
150.253
129.884
110.3
92.1686
75.9267
61.8205
49.9335
40.2141
32.515
26.6505
22.4459
19.7443
18.3767
18.1461
18.887
20.4703
22.7308
25.5086
28.7282
32.2227
35.9401
40.0297
43.6287
46.9228
50.4283
52.7637
58.6279
57.459
66.8177
65.4779
53.2246
58.6959
65.0667
65.5392
63.1007
62.2214
59.751
57.7792
55.375
53.6589
34.9559
-6.85554
-71.0933
-134.488
-184.431
-208.096
-177.807
-106.407
-45.7958
-31.3723
-40.3635
-22.2497
4.95583
19.4103
23.3964
22.0309
15.2483
6.39661
-3.79895
-19.5661
27.5696
47.7624
67.4606
84.412
97.5516
105.97
108.727
104.728
92.7509
71.8738
42.4504
7.54807
-25.9781
-48.3498
-50.8111
-30.7888
-17.4298
-16.5422
-49.6981
-82.0728
-110.3
-127.57
-111.418
-53.1875
-277.49
-6.38712
3.58844
47.0658
96.6535
141.732
178.549
205.341
221.431
226.267
228.518
195.345
232.183
223.572
193.313
174.742
154.596
134.142
114.408
96.1061
79.6881
65.3927
53.2908
43.3242
35.349
29.1801
24.6248
21.494
19.6017
18.7651
18.8212
19.6291
21.0527
22.9667
25.2723
27.8649
30.6659
33.614
36.4334
39.0872
41.6588
43.9749
46.7946
48.2106
51.2201
50.8614
55.9465
53.6596
42.4657
37.5284
44.4645
45.5306
40.5393
37.1387
25.1004
-12.0461
-70.2228
-138.563
-191.996
-231.125
-233.735
-178.586
-91.0888
-31.4132
-23.1773
-40.2745
-24.7701
7.15009
21.9578
27.5721
29.0285
29.4863
25.5693
12.9798
-0.298147
-21.9246
16.453
45.3307
66.4692
85.027
100.082
110.269
114.358
111.129
99.3629
78.243
48.3187
12.886
-21.0302
-43.5717
-45.206
-14.8948
-22.5349
-16.416
-49.3698
-81.8923
-110.786
-132.918
-53.7202
-172.463
-120.391
-0.93951
14.8307
55.3745
100.84
143.158
178.236
203.901
219.246
224.683
225.706
207.416
240.308
213.721
194.861
175.052
154.225
133.244
113.011
94.2305
77.3638
62.6574
50.1828
39.88
31.6013
25.1516
20.3189
16.8913
14.6663
13.4561
13.0937
13.4339
14.3485
15.7234
17.4595
19.4642
21.6498
23.9285
26.1656
28.2834
30.264
32.0622
33.7771
35.0356
36.3151
36.7205
37.6433
35.9135
38.3951