/*--------------------------------*- C++ -*----------------------------------*\
  =========                 |
  \\      /  F ield         | OpenFOAM: The Open Source CFD Toolbox
   \\    /   O peration     | Website:  https://openfoam.org
    \\  /    A nd           | Version:  6
     \\/     M anipulation  |
\*---------------------------------------------------------------------------*/
FoamFile
{
    version     2.0;
    format      ascii;
    class       volScalarField;
    location    "0";
    object      P_rec;
}
// * * * * * * * * * * * * * * * * * * * * * * * * * * * * * * * * * * * * * //

dimensions      [0 2 -2 0 0 0 0];

internalField   nonuniform List<scalar> 
13046
(
0.565688
0.561595
0.632256
0.567681
0.618269
0.584806
0.552933
0.585773
0.626461
0.360582
0.458788
0.640116
0.543594
0.557766
0.63291
0.405665
0.647362
0.449587
0.606962
0.606297
0.567396
0.398517
0.646597
0.453361
0.573506
0.581694
0.619292
0.53686
0.549363
0.63907
0.570004
0.552799
0.629411
0.584046
0.616238
0.58005
0.582926
0.614962
0.587443
0.587211
0.630009
0.527764
0.58709
0.604634
0.596331
0.581575
0.600576
0.602973
0.555172
0.564463
0.632846
0.622761
0.599911
0.490343
0.624933
0.476774
0.607004
0.46501
0.501041
0.650831
0.488329
0.570844
0.633812
0.641271
0.501551
0.427543
0.515263
0.463828
0.648697
0.525885
0.469338
0.647074
0.455967
0.490643
0.650828
0.60516
0.614979
0.557033
0.652759
0.465925
0.455911
0.565666
0.582753
0.620783
0.64108
0.492094
0.412389
0.41029
0.635733
0.532367
0.626044
0.381184
0.553177
0.493858
0.479902
0.53228
0.529376
0.640101
0.642867
0.634807
0.41214
0.54239
0.576957
0.606443
0.59953
0.617307
0.494617
0.615658
0.596673
0.628332
0.505556
0.296924
0.636844
0.420752
0.550815
0.565633
0.628338
0.482383
0.493667
0.508052
0.644439
0.520226
0.642733
0.347848
0.446339
0.640934
0.519972
0.534693
0.64244
0.579809
0.631688
0.529918
0.623688
0.393241
0.564157
0.454748
0.529494
0.640099
0.562992
0.548719
0.630422
0.520612
0.595657
0.624635
0.59978
0.624234
0.501721
0.616106
0.50759
0.616989
0.484023
0.56066
0.634716
0.623071
0.531298
0.60401
0.610207
0.466915
0.602506
0.461484
0.617284
0.621411
0.516703
0.597367
0.619744
0.356383
0.637948
0.470405
0.318112
0.638229
0.428746
0.449114
0.518663
0.642565
0.574239
0.50461
0.638133
0.520952
0.615944
0.603402
0.638229
0.491472
0.364138
0.578849
0.513306
0.633433
0.620885
0.521519
0.605666
0.529964
0.59659
0.621211
0.556779
0.637636
0.52625
0.545338
0.637748
0.402922
0.63741
0.510474
0.629559
0.41048
0.557879
0.384416
0.540388
0.627562
0.628351
0.467593
0.592631
0.536099
0.470892
0.654263
0.450004
0.525905
0.376944
0.631626
0.574356
0.614756
0.592972
0.546215
0.547674
0.63849
0.62778
0.404626
0.564898
0.528553
0.56373
0.637621
0.636476
0.454841
0.323111
0.597512
0.464055
0.624293
0.399554
0.546797
0.629765
0.485494
0.599008
0.623149
0.519307
0.528469
0.643959
0.589436
0.41791
0.618277
0.448642
0.600973
0.618706
0.633891
0.458994
0.309842
0.593402
0.633539
0.501316
0.310964
0.639428
0.392267
0.6083
0.568502
0.602111
0.491399
0.495177
0.591386
0.597441
0.626132
0.624234
0.649684
0.451496
0.452879
0.532291
0.531772
0.640134
0.441736
0.590464
0.623584
0.466714
0.51802
0.642313
0.593123
0.588318
0.606837
0.472279
0.596372
0.623478
0.532746
0.520961
0.642277
0.529948
0.522236
0.593449
0.632572
0.492271
0.467126
0.587693
0.62586
0.451797
0.642249
0.516338
0.603411
0.623162
0.513229
0.614944
0.458279
0.610539
0.501414
0.501722
0.643896
0.596307
0.626586
0.488697
0.489732
0.481241
0.495555
0.645072
0.496387
0.647189
0.638538
0.49384
0.375916
0.504471
0.520987
0.644
0.383997
0.635388
0.260841
0.550713
0.610112
0.603254
0.500393
0.572863
0.63288
0.639247
0.419073
0.516409
0.625188
0.465469
0.605847
0.579039
0.413634
0.622046
0.575287
0.63187
0.496743
0.556898
0.637371
0.576595
0.630179
0.421723
0.64659
0.458588
0.633686
0.459421
0.589832
0.486162
0.554266
0.637142
0.513372
0.593713
0.626844
0.49716
0.616246
0.610698
0.5634
0.572242
0.626902
0.607217
0.463187
0.616435
0.394059
0.52173
0.633777
0.57737
0.415196
0.625175
0.54129
0.644282
0.474335
0.474719
0.486146
0.481325
0.474494
0.646587
0.646585
0.63618
0.389482
0.276601
0.323842
0.641282
0.397945
0.483492
0.588982
0.624143
0.637729
0.395681
0.499089
0.52009
0.510649
0.486136
0.486877
0.647606
0.64732
0.625722
0.518872
0.345024
0.301249
0.640699
0.374772
0.572898
0.599862
0.609591
0.295084
0.401745
0.637785
0.56296
0.511004
0.638089
0.36836
0.500217
0.636887
0.400812
0.631264
0.222616
0.592345
0.626318
0.53463
0.557194
0.60523
0.612987
0.353511
0.642999
0.437318
0.548707
0.604753
0.614101
0.578921
0.600057
0.60709
0.603852
0.451142
0.625492
0.548205
0.617971
0.604412
0.553643
0.607145
0.605876
0.551898
0.47467
0.642777
0.645491
0.644415
0.462304
0.466349
0.384856
0.379693
0.378347
0.519274
0.632808
0.648857
0.535843
0.463684
0.58475
0.631277
0.512839
0.443254
0.603981
0.612573
0.446168
0.627786
0.252687
0.627979
0.376225
0.542921
0.327657
0.638617
0.442008
0.630822
0.386283
0.21596
0.361971
0.632872
0.237369
0.574429
0.459887
0.629023
0.49464
0.624939
0.305982
0.443383
0.533227
0.639075
0.387503
0.647518
0.420651
0.545859
0.628672
0.577156
0.527347
0.626903
0.357057
0.448125
0.60993
0.608381
0.583557
0.441685
0.627198
0.630122
0.323106
0.169163
0.402077
0.634234
0.248489
0.555872
0.626972
0.578241
0.508993
0.343375
0.628702
0.626139
0.329442
0.51503
0.398609
0.639741
0.492296
0.648614
0.465607
0.442443
0.561045
0.465094
0.645224
0.475813
0.49947
0.650402
0.650587
0.429039
0.440218
0.55115
0.543397
0.524306
0.518335
0.63922
0.641023
0.560116
0.521104
0.638042
0.528288
0.476402
0.649883
0.579719
0.427538
0.625009
0.517538
0.376
0.635253
0.628068
0.425066
0.564985
0.363702
0.633992
0.253953
0.584739
0.579026
0.62997
0.541437
0.630442
0.549553
0.545956
0.55088
0.643088
0.488665
0.644903
0.495623
0.415193
0.627835
0.22609
0.510682
0.354768
0.630437
0.581929
0.631856
0.492662
0.594817
0.428011
0.617924
0.648975
0.466472
0.452563
0.431677
0.283722
0.633896
0.446909
0.292153
0.632976
0.511479
0.496188
0.647886
0.607534
0.617888
0.520417
0.38734
0.640153
0.48085
0.573057
0.447039
0.632231
0.644616
0.501528
0.442445
0.559232
0.643637
0.491768
0.490937
0.605945
0.617387
0.59098
0.629661
0.518413
0.639062
0.482845
0.373383
0.468036
0.506991
0.644656
0.591874
0.625635
0.541442
0.413736
0.650433
0.43025
0.559611
0.539824
0.636309
0.536935
0.59663
0.62261
0.585697
0.452133
0.625817
0.348565
0.64505
0.405131
0.360702
0.64665
0.404998
0.646023
0.492079
0.443071
0.480642
0.613382
0.613637
0.644415
0.390807
0.330568
0.638107
0.526918
0.429804
0.628704
0.378189
0.198242
0.22419
0.341221
0.634518
0.649917
0.45156
0.431493
0.636852
0.469935
0.342057
0.402877
0.414544
0.642679
0.467716
0.643225
0.479211
0.424762
0.535967
0.636449
0.618863
0.602404
0.427771
0.581461
0.623075
0.563088
0.431877
0.55255
0.63399
0.632533
0.436505
0.561086
0.44131
0.651044
0.439775
0.54144
0.479291
0.646873
0.554545
0.506119
0.638341
0.464153
0.5608
0.63717
0.456809
0.561952
0.635327
0.595335
0.618729
0.551961
0.541895
0.507865
0.64467
0.625121
0.535745
0.356144
0.283526
0.630125
0.458065
0.26883
0.627873
0.4607
0.575413
0.635341
0.52191
0.424862
0.631547
0.262239
0.456801
0.645758
0.494434
0.630128
0.431643
0.247033
0.570035
0.615078
0.591852
0.519051
0.554425
0.636781
0.616184
0.485564
0.610306
0.62572
0.500734
0.321254
0.575619
0.448041
0.629742
0.648043
0.401927
0.432662
0.503987
0.549685
0.641588
0.584328
0.621838
0.56762
0.493537
0.331729
0.630888
0.642296
0.511354
0.429611
0.342165
0.328883
0.640821
0.640124
0.424886
0.417084
0.502929
0.586895
0.62957
0.579347
0.469199
0.62641
0.544308
0.588632
0.626959
0.473265
0.300098
0.479838
0.630376
0.298109
0.627817
0.479825
0.537983
0.642525
0.329879
0.314214
0.483011
0.474542
0.632649
0.630967
0.471673
0.584625
0.631921
0.519213
0.571817
0.633043
0.375585
0.647695
0.420225
0.50871
0.577619
0.631085
0.538341
0.585222
0.625404
0.349121
0.643885
0.418225
0.505268
0.539512
0.638313
0.61611
0.441114
0.608325
0.561688
0.482187
0.642516
0.573523
0.620585
0.396781
0.631121
0.339632
0.187497
0.503855
0.567569
0.634534
0.385378
0.643996
0.443796
0.639883
0.461542
0.576005
0.261428
0.638469
0.360179
0.611988
0.608157
0.612346
0.525785
0.617031
0.519478
0.546435
0.594977
0.620834
0.598869
0.606438
0.621013
0.532725
0.620314
0.529444
0.512545
0.575546
0.634247
0.518784
0.580778
0.632694
0.626311
0.47241
0.277123
0.567755
0.527879
0.633854
0.344379
0.481867
0.635857
0.460059
0.448841
0.550876
0.544128
0.636185
0.635649
0.566314
0.538808
0.634297
0.528144
0.496843
0.64462
0.481642
0.553538
0.639803
0.59061
0.575744
0.612966
0.443696
0.552849
0.635074
0.583329
0.622003
0.560007
0.480131
0.5767
0.633595
0.526711
0.507832
0.643892
0.588683
0.592925
0.567474
0.620109
0.563139
0.619216
0.599376
0.614232
0.607302
0.551591
0.620731
0.53661
0.551938
0.543741
0.532846
0.538261
0.638469
0.637239
0.646776
0.475483
0.444984
0.605054
0.453505
0.619167
0.64808
0.646487
0.470428
0.480421
0.43133
0.428293
0.592775
0.632153
0.477009
0.591646
0.607573
0.587618
0.44045
0.543431
0.636559
0.580051
0.630155
0.535924
0.519515
0.508168
0.644537
0.468238
0.469585
0.476126
0.649348
0.486344
0.64719
0.466437
0.538656
0.638975
0.276873
0.375791
0.638838
0.63596
0.466884
0.58148
0.568644
0.572522
0.64096
0.469548
0.642397
0.474561
0.433107
0.571972
0.628235
0.536283
0.497613
0.644949
0.586732
0.63278
0.480341
0.572337
0.571588
0.636572
0.641456
0.493673
0.494449
0.568278
0.642047
0.481837
0.469053
0.546659
0.639156
0.590524
0.61981
0.559273
0.365361
0.642096
0.441356
0.582727
0.635923
0.473855
0.520948
0.508982
0.516012
0.511397
0.641633
0.64619
0.643239
0.449326
0.377867
0.376274
0.646314
0.430291
0.363388
0.643612
0.429537
0.45724
0.647213
0.485286
0.543087
0.506096
0.643382
0.568824
0.640796
0.662759
0.571688
0.664975
0.464128
0.657444
0.576441
0.604383
0.662023
0.660961
0.602925
0.580032
0.663504
0.650166
0.595316
0.57106
0.64672
0.643759
0.657697
0.652618
0.641043
0.660715
0.64936
0.666278
0.641483
0.667951
0.608453
0.655598
0.572051
0.613423
0.655722
0.653407
0.650864
0.622892
0.658847
0.664366
0.661636
0.582966
0.608839
0.639922
0.635065
0.626751
0.661939
0.639976
0.648496
0.650803
0.641053
0.603276
0.630564
0.663045
0.651314
0.597224
0.654421
0.611197
0.661768
0.659723
0.654086
0.644078
0.66147
0.630521
0.628237
0.665823
0.582105
0.657104
0.659673
0.65475
0.65503
0.66151
0.637311
0.615969
0.622326
0.62137
0.65918
0.61861
0.649353
0.628588
0.621637
0.656683
0.661281
0.643382
0.655368
0.601046
0.60212
0.650999
0.659213
0.650418
0.572136
0.651851
0.661932
0.602256
0.66267
0.666583
0.650364
0.585934
0.428152
0.62124
0.643046
0.585572
0.614128
0.658383
0.661439
0.641495
0.651426
0.597573
0.562133
0.603542
0.606303
0.622783
0.664187
0.661514
0.655785
0.608763
0.625806
0.610859
0.640731
0.652662
0.573952
0.609987
0.644218
0.651933
0.654617
0.646959
0.659398
0.647527
0.620208
0.607242
0.662263
0.542916
0.658616
0.615431
0.659403
0.60202
0.501664
0.56175
0.660994
0.647961
0.600924
0.618847
0.655825
0.590512
0.659304
0.623842
0.613659
0.64744
0.653834
0.598868
0.662291
0.619592
0.652433
0.602407
0.642132
0.584115
0.665733
0.661629
0.649697
0.660244
0.658979
0.662512
0.629927
0.618357
0.612058
0.646941
0.542297
0.59865
0.604784
0.646553
0.646478
0.655582
0.66149
0.653515
0.662374
0.666373
0.662864
0.59809
0.612493
0.605745
0.662026
0.605092
0.598623
0.532123
0.599064
0.647581
0.649136
0.654711
0.662606
0.661043
0.639565
0.663093
0.647111
0.638272
0.495159
0.643764
0.622905
0.614731
0.657148
0.655991
0.620627
0.641445
0.64765
0.655639
0.563651
0.620764
0.658911
0.664456
0.628968
0.602394
0.644921
0.649056
0.640291
0.636294
0.572322
0.527985
0.616349
0.622324
0.608436
0.610883
0.570976
0.661139
0.650966
0.612588
0.652958
0.600416
0.598427
0.658722
0.658546
0.595207
0.600598
0.557857
0.657936
0.615064
0.645084
0.655844
0.655244
0.606342
0.655832
0.637836
0.605551
0.606136
0.661673
0.654192
0.649716
0.664684
0.635834
0.59064
0.603711
0.650675
0.652613
0.596234
0.613689
0.6549
0.658393
0.661817
0.654901
0.599208
0.648706
0.621709
0.654504
0.639998
0.61912
0.650006
0.640847
0.522026
0.602512
0.618681
0.598778
0.627645
0.657624
0.646558
0.653641
0.65928
0.585406
0.648297
0.635026
0.652072
0.645332
0.646729
0.655947
0.605854
0.595886
0.644002
0.602728
0.600956
0.653776
0.509655
0.601888
0.662992
0.656307
0.613426
0.606553
0.613856
0.6543
0.568766
0.519332
0.590779
0.647035
0.652862
0.650925
0.463579
0.592849
0.663696
0.639567
0.565164
0.595092
0.605233
0.611852
0.600826
0.652891
0.659858
0.612748
0.606551
0.628515
0.629574
0.638753
0.553831
0.659847
0.648399
0.507909
0.610129
0.601694
0.612355
0.658137
0.650406
0.657986
0.628038
0.591819
0.642204
0.652076
0.652016
0.631157
0.663695
0.659754
0.634547
0.656983
0.650575
0.626271
0.606636
0.641408
0.577114
0.640921
0.642001
0.613819
0.593
0.588928
0.590833
0.572853
0.663242
0.598472
0.619001
0.653762
0.651233
0.60461
0.592461
0.665419
0.63914
0.503933
0.638915
0.612947
0.605189
0.66375
0.636519
0.625233
0.649596
0.615353
0.64837
0.612209
0.655996
0.642558
0.63138
0.436377
0.59591
0.614456
0.640901
0.648432
0.649435
0.64921
0.663451
0.587122
0.613656
0.58358
0.544528
0.606598
0.662282
0.627621
0.641633
0.620762
0.645785
0.602118
0.571072
0.59049
0.610146
0.605485
0.66677
0.632315
0.635584
0.657088
0.660751
0.646677
0.665546
0.571148
0.62389
0.605098
0.648537
0.649454
0.657043
0.639599
0.646292
0.614763
0.63872
0.602026
0.550254
0.654887
0.631429
0.54676
0.593735
0.610896
0.59349
0.614555
0.643442
0.651868
0.596008
0.619538
0.606608
0.611186
0.607164
0.62501
0.566879
0.612409
0.662537
0.661484
0.660214
0.650517
0.650663
0.499265
0.659303
0.653402
0.595549
0.664027
0.485246
0.658037
0.622017
0.650495
0.631746
0.658463
0.63877
0.586905
0.654605
0.584727
0.664667
0.652482
0.60882
0.623576
0.571699
0.631427
0.665344
0.62121
0.652002
0.657837
0.605087
0.559809
0.659744
0.494734
0.650957
0.650743
0.602833
0.66427
0.538312
0.534054
0.659119
0.643152
0.658383
0.654127
0.646995
0.652951
0.663003
0.660924
0.658336
0.658487
0.602796
0.628596
0.645058
0.663062
0.627778
0.479846
0.655307
0.617467
0.64816
0.626701
0.663485
0.642137
0.62935
0.661489
0.639902
0.664378
0.592435
0.661521
0.644825
0.659968
0.651923
0.660338
0.625372
0.646473
0.59561
0.579196
0.646075
0.625832
0.64431
0.567949
0.492488
0.604297
0.629983
0.648367
0.63368
0.666382
0.628903
0.598393
0.63884
0.603665
0.661956
0.576211
0.644432
0.648371
0.663987
0.635967
0.654786
0.588096
0.65064
0.662126
0.608373
0.570141
0.649384
0.629699
0.658391
0.662016
0.62861
0.603146
0.642693
0.610876
0.597383
0.661848
0.657082
0.652362
0.571475
0.655748
0.644178
0.663319
0.610993
0.657222
0.649912
0.650944
0.651329
0.579872
0.607481
0.62422
0.473734
0.659154
0.651196
0.649133
0.661572
0.659503
0.639575
0.645702
0.642924
0.662206
0.660671
0.64794
0.646299
0.632739
0.657807
0.650543
0.621314
0.625969
0.631135
0.629402
0.653181
0.615986
0.656619
0.661601
0.606874
0.661731
0.60905
0.597132
0.613067
0.658377
0.640908
0.648083
0.652976
0.660073
0.649426
0.654357
0.656571
0.617887
0.609251
0.592672
0.598853
0.59969
0.416036
0.604354
0.607844
0.65358
0.60545
0.626935
0.651805
0.642525
0.601518
0.616428
0.627266
0.430518
0.661991
0.625609
0.653617
0.605241
0.621644
0.647071
0.57889
0.652738
0.605722
0.657545
0.62948
0.661921
0.56727
0.525931
0.624467
0.6295
0.634685
0.654412
0.528629
0.652308
0.633366
0.600604
0.581009
0.619188
0.626059
0.659812
0.572795
0.658372
0.660853
0.653607
0.599795
0.661261
0.604819
0.417192
0.649678
0.608881
0.600753
0.661577
0.660338
0.65174
0.654678
0.633451
0.658169
0.663499
0.649524
0.631715
0.655894
0.664795
0.658914
0.651827
0.649381
0.655361
0.608632
0.606424
0.661751
0.662395
0.663139
0.643942
0.633732
0.613036
0.660305
0.657921
0.387507
0.632941
0.648396
0.59684
0.651068
0.629706
0.654616
0.646964
0.650233
0.614378
0.657415
0.663478
0.642008
0.662229
0.664371
0.528033
0.597218
0.635884
0.603487
0.527941
0.609862
0.648529
0.661171
0.613752
0.639536
0.578154
0.608844
0.646589
0.650332
0.611477
0.60668
0.592126
0.643374
0.617805
0.614949
0.641085
0.654036
0.657331
0.598311
0.657413
0.621146
0.608267
0.648641
0.660495
0.644764
0.639081
0.601018
0.659647
0.608732
0.665124
0.658314
0.661478
0.661421
0.601587
0.600593
0.651326
0.601808
0.605738
0.617789
0.611871
0.599159
0.642891
0.652373
0.604556
0.662844
0.621853
0.64171
0.648718
0.658508
0.652792
0.658561
0.644065
0.607358
0.662364
0.572184
0.654973
0.602427
0.654921
0.661191
0.661636
0.655922
0.663758
0.651437
0.594748
0.610451
0.64816
0.620264
0.663273
0.594841
0.57366
0.639204
0.638087
0.618379
0.606884
0.636784
0.658922
0.655657
0.495021
0.620265
0.560271
0.580837
0.647108
0.63849
0.649348
0.642364
0.662712
0.599629
0.656912
0.651967
0.56532
0.658239
0.625804
0.654456
0.648564
0.643856
0.596984
0.614731
0.650364
0.657188
0.621538
0.643752
0.651044
0.658953
0.642816
0.642352
0.623022
0.647496
0.602772
0.59796
0.547105
0.652275
0.604762
0.616498
0.60288
0.616337
0.663561
0.638198
0.651751
0.661838
0.651097
0.5574
0.644497
0.583348
0.631763
0.656162
0.619915
0.607233
0.631148
0.649272
0.58759
0.619945
0.551196
0.606709
0.653309
0.554896
0.614551
0.661733
0.601939
0.596769
0.648052
0.657209
0.634833
0.589462
0.652367
0.614089
0.618125
0.651091
0.630581
0.651644
0.654869
0.666474
0.623105
0.660571
0.655722
0.658739
0.658773
0.655708
0.56116
0.615521
0.640934
0.598111
0.657324
0.663519
0.660239
0.653057
0.59944
0.603917
0.642878
0.663832
0.586668
0.659887
0.655526
0.66015
0.595999
0.589197
0.600232
0.566646
0.652023
0.585788
0.656743
0.617025
0.658233
0.598632
0.650463
0.604879
0.648299
0.656852
0.653237
0.63833
0.656982
0.66198
0.664389
0.65389
0.632082
0.66032
0.656178
0.618184
0.627433
0.650448
0.614717
0.665282
0.637082
0.655497
0.659518
0.662081
0.617316
0.548252
0.659326
0.629693
0.635164
0.645404
0.6547
0.66031
0.659817
0.628893
0.653235
0.600879
0.622091
0.649434
0.659816
0.648119
0.652401
0.642009
0.66535
0.644596
0.609935
0.662549
0.652507
0.596522
0.621457
0.661875
0.639367
0.60355
0.619976
0.66231
0.635601
0.650153
0.660998
0.664764
0.660787
0.654478
0.605282
0.658257
0.624167
0.637287
0.663095
0.651409
0.599311
0.588079
0.637226
0.656832
0.612795
0.595164
0.657513
0.639661
0.643061
0.659055
0.601135
0.601578
0.631122
0.658864
0.66436
0.651291
0.649457
0.559338
0.652159
0.625079
0.64113
0.662128
0.665824
0.594838
0.600197
0.636614
0.655177
0.662964
0.661737
0.656453
0.624515
0.627685
0.600188
0.60381
0.653571
0.654764
0.524032
0.60612
0.654215
0.647798
0.59551
0.604566
0.653165
0.626119
0.641547
0.656753
0.646371
0.660652
0.661535
0.647523
0.657149
0.63359
0.626135
0.637165
0.655815
0.628898
0.656696
0.528485
0.649149
0.511245
0.638791
0.661883
0.655723
0.661764
0.662989
0.661949
0.620802
0.636585
0.649599
0.570647
0.660748
0.647064
0.61578
0.65675
0.469599
0.606424
0.637706
0.658474
0.664235
0.602793
0.602737
0.650063
0.65512
0.534099
0.618396
0.632775
0.541391
0.588012
0.637012
0.589506
0.649764
0.604156
0.640511
0.655332
0.471954
0.631738
0.648301
0.620902
0.599895
0.647316
0.622713
0.633274
0.606825
0.645347
0.636458
0.615173
0.648021
0.663567
0.620399
0.597811
0.629354
0.602238
0.610028
0.647258
0.560215
0.622347
0.621154
0.646178
0.653791
0.642326
0.645822
0.522259
0.64493
0.648775
0.626816
0.652671
0.638299
0.645206
0.539279
0.525988
0.65321
0.601771
0.646165
0.65947
0.622947
0.647774
0.521774
0.655473
0.632153
0.662478
0.633359
0.628777
0.647135
0.607075
0.624818
0.630179
0.666538
0.602683
0.596481
0.643206
0.66361
0.651971
0.555851
0.632996
0.630957
0.633931
0.627625
0.663854
0.661132
0.661205
0.661127
0.655707
0.610146
0.591247
0.660569
0.617394
0.6366
0.55841
0.592705
0.608771
0.597028
0.651619
0.534553
0.656585
0.619613
0.654773
0.644997
0.649807
0.661832
0.622905
0.656794
0.661372
0.653869
0.649546
0.660998
0.620504
0.652969
0.599949
0.619901
0.664441
0.535864
0.652929
0.658169
0.647941
0.642272
0.640253
0.647907
0.6514
0.650546
0.604874
0.604854
0.654561
0.638257
0.557121
0.659519
0.596973
0.652468
0.600844
0.638481
0.653842
0.660895
0.661364
0.605338
0.652424
0.649285
0.646326
0.662895
0.569239
0.590026
0.661957
0.60076
0.622027
0.663308
0.659881
0.65114
0.59388
0.61202
0.614167
0.61018
0.572756
0.648706
0.623839
0.644116
0.614448
0.649537
0.635447
0.618134
0.572316
0.643808
0.641908
0.611467
0.661618
0.661791
0.583172
0.655036
0.524891
0.620024
0.550706
0.616245
0.655748
0.646857
0.649913
0.64044
0.651104
0.658865
0.654578
0.652931
0.575334
0.638861
0.62535
0.649264
0.596594
0.662383
0.634435
0.607151
0.657243
0.660535
0.599418
0.653705
0.601606
0.65587
0.654746
0.656373
0.561034
0.648262
0.644366
0.655278
0.647713
0.611833
0.600982
0.613069
0.661215
0.662985
0.660829
0.633647
0.648157
0.656796
0.633703
0.652477
0.614461
0.619101
0.65062
0.661939
0.607376
0.664688
0.653037
0.666321
0.654108
0.660249
0.650017
0.628238
0.662585
0.506829
0.655018
0.545739
0.658823
0.663095
0.652268
0.634137
0.62145
0.651625
0.544963
0.57363
0.617315
0.583493
0.659098
0.603359
0.60307
0.568864
0.597858
0.650517
0.660432
0.659351
0.602691
0.628685
0.652105
0.654753
0.630033
0.626333
0.660274
0.66209
0.651287
0.660348
0.661049
0.657925
0.60197
0.641072
0.582868
0.656901
0.657477
0.662682
0.644563
0.650044
0.63507
0.599158
0.632872
0.601206
0.611219
0.606988
0.661603
0.642846
0.646408
0.657816
0.661323
0.652274
0.652568
0.617031
0.645615
0.649145
0.660827
0.628843
0.599703
0.653324
0.653998
0.658492
0.664036
0.662753
0.594781
0.591394
0.596605
0.652075
0.662691
0.556538
0.61508
0.663431
0.60849
0.635044
0.602028
0.64571
0.656882
0.646457
0.653935
0.607082
0.650609
0.652078
0.659689
0.635799
0.616187
0.65642
0.653633
0.640394
0.662062
0.666793
0.55615
0.662341
0.608317
0.626183
0.6663
0.664621
0.646234
0.660155
0.60833
0.661035
0.620392
0.601579
0.659973
0.630162
0.660122
0.641692
0.656905
0.647618
0.65821
0.615474
0.659734
0.597094
0.661823
0.64172
0.649516
0.628253
0.595384
0.600859
0.659793
0.61761
0.633576
0.592389
0.626302
0.661738
0.661441
0.6535
0.656896
0.65174
0.615101
0.632619
0.653375
0.598482
0.619723
0.653849
0.642819
0.636027
0.612861
0.554464
0.600344
0.66038
0.629444
0.661729
0.602683
0.662068
0.652614
0.665004
0.656386
0.632441
0.660824
0.603386
0.655256
0.613509
0.650619
0.587409
0.634077
0.616226
0.598493
0.633405
0.605827
0.599064
0.607549
0.661142
0.662152
0.639201
0.59322
0.661326
0.603571
0.561266
0.645528
0.660052
0.653838
0.606444
0.607751
0.664605
0.588986
0.652709
0.591348
0.611697
0.632395
0.584603
0.664761
0.644526
0.618122
0.661406
0.66529
0.614074
0.656907
0.645231
0.66061
0.647673
0.623791
0.605371
0.658684
0.66425
0.658553
0.571812
0.605026
0.621542
0.645337
0.652228
0.652074
0.588238
0.650437
0.60731
0.655364
0.657642
0.651296
0.626871
0.654735
0.555631
0.646649
0.588014
0.639746
0.575878
0.600965
0.651944
0.662057
0.61347
0.619398
0.655039
0.62755
0.54921
0.597272
0.611738
0.637001
0.500474
0.64385
0.63937
0.656242
0.640188
0.655845
0.656733
0.534179
0.531053
0.664396
0.644439
0.551828
0.624172
0.648676
0.662153
0.654444
0.581935
0.644146
0.587852
0.652848
0.662123
0.657525
0.637189
0.661003
0.608628
0.650561
0.665288
0.604206
0.616795
0.660914
0.661443
0.608227
0.604699
0.573775
0.534775
0.576705
0.65385
0.618453
0.601752
0.568198
0.595014
0.657891
0.583373
0.612357
0.59481
0.659965
0.625086
0.653191
0.617077
0.637426
0.637117
0.646624
0.649771
0.65919
0.596174
0.651677
0.628279
0.638785
0.654374
0.623331
0.662939
0.656596
0.618621
0.65433
0.602136
0.622471
0.644859
0.656572
0.606908
0.64152
0.637881
0.646119
0.650651
0.662436
0.579858
0.608706
0.59458
0.596064
0.665131
0.618151
0.653934
0.662928
0.636032
0.537932
0.597369
0.638644
0.591312
0.648684
0.600243
0.618556
0.618292
0.660983
0.658385
0.642873
0.588497
0.627817
0.603727
0.638218
0.660843
0.653251
0.62411
0.645804
0.628823
0.652323
0.660436
0.660953
0.649575
0.663855
0.652802
0.6317
0.61412
0.60225
0.600909
0.651231
0.648079
0.610328
0.655356
0.617083
0.664751
0.660083
0.603204
0.584443
0.621945
0.642495
0.660965
0.647934
0.659985
0.647334
0.660821
0.657739
0.644767
0.615012
0.647572
0.643925
0.606575
0.625016
0.660824
0.547107
0.46641
0.653495
0.640202
0.662256
0.636504
0.605313
0.594854
0.623655
0.586185
0.631321
0.652759
0.608611
0.661173
0.638812
0.595894
0.621578
0.615812
0.582123
0.660542
0.646523
0.652206
0.591739
0.638718
0.644036
0.594347
0.622349
0.62448
0.619708
0.597567
0.537426
0.664878
0.653523
0.66241
0.65744
0.662286
0.612036
0.648567
0.638573
0.63373
0.572646
0.656572
0.643628
0.630725
0.661647
0.659304
0.65994
0.655265
0.655673
0.651103
0.605093
0.649464
0.654022
0.659358
0.635038
0.608504
0.656067
0.615929
0.618059
0.658571
0.626184
0.663451
0.613173
0.66222
0.650372
0.651429
0.614429
0.657312
0.602922
0.616414
0.625529
0.608385
0.616541
0.616414
0.615912
0.648663
0.590692
0.594858
0.642292
0.654157
0.643668
0.623201
0.656316
0.654705
0.622187
0.657658
0.653065
0.656741
0.593842
0.621611
0.639538
0.60212
0.642935
0.564221
0.650782
0.566725
0.661859
0.643265
0.650693
0.611174
0.60193
0.621677
0.650652
0.620095
0.652876
0.655947
0.650435
0.656703
0.652944
0.643739
0.611727
0.664179
0.643186
0.648428
0.649885
0.608792
0.609931
0.608334
0.661446
0.654955
0.642716
0.640287
0.61694
0.637592
0.585681
0.636776
0.597128
0.660609
0.616718
0.636146
0.650128
0.650935
0.597604
0.636637
0.639897
0.647613
0.648486
0.647344
0.646156
0.623347
0.652651
0.658078
0.646622
0.601767
0.650312
0.60259
0.64374
0.578937
0.606667
0.646485
0.550218
0.598183
0.656361
0.660743
0.598874
0.64554
0.608373
0.571778
0.60531
0.598221
0.607676
0.608328
0.609287
0.659865
0.65799
0.636132
0.661502
0.637114
0.653586
0.64861
0.659142
0.657356
0.618226
0.653202
0.66388
0.650703
0.649384
0.578917
0.661563
0.634416
0.470998
0.654106
0.654527
0.662076
0.659283
0.65547
0.652456
0.62339
0.647296
0.640978
0.643796
0.483153
0.625319
0.574967
0.64438
0.651111
0.589981
0.600208
0.617999
0.609354
0.597694
0.647201
0.641498
0.648498
0.661164
0.609212
0.664985
0.597314
0.638978
0.661614
0.643441
0.644262
0.645213
0.488736
0.610768
0.652071
0.662305
0.61012
0.621482
0.650453
0.659788
0.599394
0.662609
0.615162
0.65213
0.650355
0.63513
0.649355
0.661165
0.659195
0.581545
0.654235
0.652964
0.658437
0.593277
0.643741
0.628827
0.59766
0.611924
0.620612
0.651106
0.65181
0.655451
0.637492
0.577984
0.647244
0.609983
0.609324
0.644026
0.639782
0.59507
0.659397
0.611796
0.616638
0.610265
0.652137
0.596516
0.561198
0.653979
0.631299
0.653123
0.612204
0.578479
0.650426
0.537375
0.651798
0.642912
0.607474
0.598822
0.667301
0.607146
0.598331
0.600451
0.579726
0.623456
0.654298
0.65943
0.598722
0.620721
0.660445
0.642081
0.614662
0.609751
0.63447
0.662211
0.652997
0.609228
0.599022
0.655997
0.665963
0.64926
0.647401
0.647981
0.58244
0.65018
0.658545
0.650472
0.587767
0.660348
0.649172
0.597728
0.655568
0.60242
0.662983
0.646452
0.595347
0.648826
0.643966
0.6463
0.604661
0.654833
0.623529
0.656078
0.656966
0.660558
0.605751
0.618507
0.660142
0.652578
0.627586
0.655155
0.649012
0.609732
0.652137
0.65216
0.608233
0.519852
0.597199
0.630022
0.614558
0.606342
0.604527
0.627325
0.654153
0.594076
0.603113
0.645432
0.59782
0.662227
0.608596
0.653029
0.648572
0.599943
0.651266
0.631931
0.657518
0.652002
0.659739
0.612368
0.608193
0.663645
0.585284
0.661905
0.656612
0.646444
0.619229
0.662049
0.643198
0.604701
0.664506
0.582317
0.65052
0.662837
0.588845
0.665164
0.604935
0.648398
0.507416
0.648829
0.600182
0.652317
0.624403
0.600829
0.628027
0.596978
0.611923
0.661779
0.598414
0.641485
0.652207
0.643565
0.650715
0.653025
0.647911
0.579426
0.664299
0.644933
0.659342
0.6159
0.647783
0.656135
0.633652
0.661854
0.650996
0.653841
0.609771
0.642393
0.563787
0.596825
0.662286
0.431574
0.649918
0.657286
0.619255
0.608448
0.630459
0.650913
0.641108
0.658863
0.64846
0.65126
0.653385
0.664445
0.662179
0.597385
0.650172
0.652025
0.651237
0.65432
0.633615
0.611083
0.605047
0.628168
0.653651
0.633981
0.664393
0.60093
0.616966
0.644673
0.626468
0.649199
0.649508
0.609031
0.621643
0.620913
0.632379
0.607245
0.659725
0.585148
0.6336
0.646228
0.632509
0.593806
0.58842
0.656046
0.582293
0.597337
0.6612
0.650403
0.610223
0.597724
0.600662
0.618999
0.661697
0.65831
0.612402
0.649015
0.649902
0.665562
0.65245
0.615788
0.660601
0.62596
0.647578
0.656788
0.66081
0.650722
0.660931
0.655898
0.58824
0.573071
0.640897
0.619502
0.631118
0.518788
0.532713
0.659455
0.661473
0.606632
0.661419
0.650368
0.65957
0.646684
0.603704
0.664036
0.662099
0.65258
0.584859
0.603157
0.649749
0.658223
0.641303
0.599286
0.630254
0.657414
0.662308
0.655527
0.625708
0.625162
0.650021
0.634381
0.627996
0.653784
0.635098
0.654224
0.518904
0.66274
0.64349
0.651012
0.66102
0.599198
0.606608
0.616913
0.601342
0.66322
0.607126
0.645285
0.522692
0.619019
0.633086
0.609646
0.600143
0.631138
0.591226
0.606226
0.644245
0.637951
0.656547
0.606726
0.651655
0.661957
0.621954
0.652556
0.650782
0.658579
0.648972
0.620369
0.651411
0.59889
0.600938
0.654829
0.660055
0.661373
0.64981
0.574237
0.650424
0.651385
0.633376
0.660379
0.649066
0.659225
0.658993
0.602664
0.603645
0.650505
0.59851
0.654128
0.65135
0.596468
0.660731
0.645784
0.65682
0.648338
0.65201
0.595162
0.631357
0.655117
0.611391
0.652281
0.654698
0.627068
0.652435
0.641406
0.646245
0.654878
0.652127
0.596681
0.660322
0.577684
0.514889
0.625881
0.652034
0.604374
0.662709
0.615027
0.57537
0.637177
0.653996
0.649967
0.478728
0.654434
0.655012
0.660071
0.631311
0.663772
0.653456
0.603479
0.648788
0.637845
0.638148
0.600916
0.65448
0.651675
0.605824
0.601069
0.650761
0.62935
0.599899
0.648144
0.661219
0.599274
0.662972
0.610909
0.569391
0.586563
0.650871
0.6408
0.604522
0.576493
0.597737
0.650965
0.648212
0.660725
0.627453
0.661333
0.589737
0.653703
0.604594
0.604943
0.602213
0.656754
0.644997
0.607737
0.612912
0.656562
0.633672
0.659692
0.660671
0.624048
0.646463
0.651972
0.631538
0.65895
0.648361
0.649505
0.632815
0.605414
0.644763
0.627911
0.668355
0.633175
0.616183
0.565119
0.611917
0.651892
0.649316
0.643499
0.648236
0.643541
0.616137
0.629849
0.586963
0.624341
0.615389
0.659901
0.597093
0.610594
0.605277
0.651707
0.647436
0.606329
0.59873
0.583466
0.661951
0.628921
0.612971
0.603115
0.615934
0.607985