/*--------------------------------*- C++ -*----------------------------------*\
  =========                 |
  \\      /  F ield         | OpenFOAM: The Open Source CFD Toolbox
   \\    /   O peration     | Website:  https://openfoam.org
    \\  /    A nd           | Version:  6
     \\/     M anipulation  |
\*---------------------------------------------------------------------------*/
FoamFile
{
    version     2.0;
    format      ascii;
    class       volVectorField;
    location    "0";
    object      U;
}
// * * * * * * * * * * * * * * * * * * * * * * * * * * * * * * * * * * * * * //

dimensions      [0 1 -1 0 0 0 0];

internalField   nonuniform List<vector> 
40000
(
(5.07762e-07 -5.07782e-07 0)
(2.12583e-06 -6.53054e-07 0)
(3.46223e-06 -4.45849e-07 0)
(3.80618e-06 -7.53454e-08 0)
(2.68461e-06 3.46523e-07 0)
(-4.64465e-08 7.74166e-07 0)
(-4.38724e-06 1.18376e-06 0)
(-1.02684e-05 1.56392e-06 0)
(-1.75846e-05 1.91028e-06 0)
(-2.62147e-05 2.22208e-06 0)
(-3.60337e-05 2.50034e-06 0)
(-4.69188e-05 2.74696e-06 0)
(-5.87531e-05 2.96424e-06 0)
(-7.14271e-05 3.15463e-06 0)
(-8.48396e-05 3.32056e-06 0)
(-9.8898e-05 3.46437e-06 0)
(-0.000113518 3.58827e-06 0)
(-0.000128623 3.69434e-06 0)
(-0.000144145 3.78448e-06 0)
(-0.000160022 3.86044e-06 0)
(-0.000176198 3.92383e-06 0)
(-0.000192625 3.97609e-06 0)
(-0.00020926 4.01856e-06 0)
(-0.000226063 4.05242e-06 0)
(-0.000243 4.07873e-06 0)
(-0.000260043 4.09847e-06 0)
(-0.000277164 4.11249e-06 0)
(-0.000294342 4.12154e-06 0)
(-0.000311555 4.12631e-06 0)
(-0.000328787 4.12738e-06 0)
(-0.000346024 4.12529e-06 0)
(-0.000363251 4.12047e-06 0)
(-0.000380458 4.11334e-06 0)
(-0.000397636 4.10421e-06 0)
(-0.000414775 4.0934e-06 0)
(-0.00043187 4.08112e-06 0)
(-0.000448914 4.0676e-06 0)
(-0.000465902 4.05299e-06 0)
(-0.000482828 4.03744e-06 0)
(-0.000499689 4.02103e-06 0)
(-0.000516481 4.00386e-06 0)
(-0.000533201 3.98598e-06 0)
(-0.000549845 3.96742e-06 0)
(-0.000566411 3.94822e-06 0)
(-0.000582895 3.92837e-06 0)
(-0.000599294 3.90788e-06 0)
(-0.000615606 3.88672e-06 0)
(-0.000631827 3.86487e-06 0)
(-0.000647955 3.84229e-06 0)
(-0.000663986 3.81896e-06 0)
(-0.000679916 3.79483e-06 0)
(-0.000695743 3.76985e-06 0)
(-0.000711462 3.74398e-06 0)
(-0.00072707 3.71716e-06 0)
(-0.000742562 3.68934e-06 0)
(-0.000757934 3.66047e-06 0)
(-0.000773182 3.6305e-06 0)
(-0.000788301 3.59937e-06 0)
(-0.000803286 3.56703e-06 0)
(-0.000818131 3.53343e-06 0)
(-0.000832832 3.49851e-06 0)
(-0.000847382 3.46223e-06 0)
(-0.000861777 3.42452e-06 0)
(-0.000876009 3.38535e-06 0)
(-0.000890073 3.34465e-06 0)
(-0.000903962 3.30239e-06 0)
(-0.000917669 3.25851e-06 0)
(-0.000931189 3.21296e-06 0)
(-0.000944513 3.1657e-06 0)
(-0.000957635 3.11668e-06 0)
(-0.000970548 3.06586e-06 0)
(-0.000983243 3.0132e-06 0)
(-0.000995713 2.95866e-06 0)
(-0.00100795 2.90219e-06 0)
(-0.00101995 2.84376e-06 0)
(-0.00103169 2.78334e-06 0)
(-0.00104318 2.72089e-06 0)
(-0.00105441 2.65638e-06 0)
(-0.00106536 2.58978e-06 0)
(-0.00107603 2.52107e-06 0)
(-0.0010864 2.45023e-06 0)
(-0.00109648 2.37722e-06 0)
(-0.00110625 2.30203e-06 0)
(-0.00111569 2.22465e-06 0)
(-0.00112481 2.14507e-06 0)
(-0.0011336 2.06327e-06 0)
(-0.00114204 1.97925e-06 0)
(-0.00115012 1.893e-06 0)
(-0.00115784 1.80452e-06 0)
(-0.00116519 1.71382e-06 0)
(-0.00117215 1.62092e-06 0)
(-0.00117872 1.52581e-06 0)
(-0.0011849 1.42851e-06 0)
(-0.00119066 1.32906e-06 0)
(-0.00119601 1.22747e-06 0)
(-0.00120093 1.12377e-06 0)
(-0.00120541 1.01801e-06 0)
(-0.00120945 9.10223e-07 0)
(-0.00121304 8.00454e-07 0)
(-0.00121617 6.88756e-07 0)
(-0.00121883 5.75187e-07 0)
(-0.00122102 4.59809e-07 0)
(-0.00122272 3.42689e-07 0)
(-0.00122394 2.239e-07 0)
(-0.00122466 1.03521e-07 0)
(-0.00122487 -1.83662e-08 0)
(-0.00122458 -1.41672e-07 0)
(-0.00122377 -2.66302e-07 0)
(-0.00122245 -3.92158e-07 0)
(-0.0012206 -5.19137e-07 0)
(-0.00121822 -6.47127e-07 0)
(-0.00121531 -7.76017e-07 0)
(-0.00121186 -9.05686e-07 0)
(-0.00120788 -1.03601e-06 0)
(-0.00120335 -1.16686e-06 0)
(-0.00119828 -1.29811e-06 0)
(-0.00119267 -1.42962e-06 0)
(-0.00118651 -1.56125e-06 0)
(-0.0011798 -1.69286e-06 0)
(-0.00117255 -1.8243e-06 0)
(-0.00116475 -1.95542e-06 0)
(-0.00115642 -2.08607e-06 0)
(-0.00114754 -2.21611e-06 0)
(-0.00113812 -2.34536e-06 0)
(-0.00112817 -2.47369e-06 0)
(-0.00111769 -2.60093e-06 0)
(-0.00110668 -2.72692e-06 0)
(-0.00109515 -2.85152e-06 0)
(-0.00108311 -2.97456e-06 0)
(-0.00107056 -3.09589e-06 0)
(-0.00105751 -3.21536e-06 0)
(-0.00104396 -3.33281e-06 0)
(-0.00102993 -3.4481e-06 0)
(-0.00101543 -3.56108e-06 0)
(-0.00100046 -3.6716e-06 0)
(-0.000985035 -3.77952e-06 0)
(-0.000969165 -3.88469e-06 0)
(-0.000952862 -3.98699e-06 0)
(-0.000936137 -4.08628e-06 0)
(-0.000919004 -4.18243e-06 0)
(-0.000901475 -4.27531e-06 0)
(-0.000883563 -4.36479e-06 0)
(-0.000865283 -4.45076e-06 0)
(-0.00084665 -4.5331e-06 0)
(-0.000827678 -4.61168e-06 0)
(-0.000808383 -4.6864e-06 0)
(-0.000788781 -4.75715e-06 0)
(-0.000768888 -4.8238e-06 0)
(-0.000748721 -4.88624e-06 0)
(-0.000728299 -4.94438e-06 0)
(-0.000707638 -4.99808e-06 0)
(-0.000686757 -5.04724e-06 0)
(-0.000665675 -5.09173e-06 0)
(-0.000644411 -5.13143e-06 0)
(-0.000622985 -5.16622e-06 0)
(-0.000601419 -5.19595e-06 0)
(-0.000579733 -5.22048e-06 0)
(-0.000557948 -5.23965e-06 0)
(-0.000536088 -5.25331e-06 0)
(-0.000514175 -5.26126e-06 0)
(-0.000492234 -5.26332e-06 0)
(-0.000470289 -5.25929e-06 0)
(-0.000448367 -5.24893e-06 0)
(-0.000426493 -5.23201e-06 0)
(-0.000404696 -5.20826e-06 0)
(-0.000383005 -5.17741e-06 0)
(-0.00036145 -5.13914e-06 0)
(-0.000340062 -5.09313e-06 0)
(-0.000318875 -5.03903e-06 0)
(-0.000297923 -4.97646e-06 0)
(-0.000277242 -4.90503e-06 0)
(-0.00025687 -4.8243e-06 0)
(-0.000236847 -4.73384e-06 0)
(-0.000217214 -4.63315e-06 0)
(-0.000198014 -4.52175e-06 0)
(-0.000179293 -4.39912e-06 0)
(-0.0001611 -4.2647e-06 0)
(-0.000143483 -4.11796e-06 0)
(-0.000126496 -3.95831e-06 0)
(-0.000110192 -3.7852e-06 0)
(-9.46288e-05 -3.59805e-06 0)
(-7.98638e-05 -3.39633e-06 0)
(-6.59582e-05 -3.17952e-06 0)
(-5.2974e-05 -2.94718e-06 0)
(-4.09746e-05 -2.69897e-06 0)
(-3.00239e-05 -2.43466e-06 0)
(-2.01859e-05 -2.15426e-06 0)
(-1.15229e-05 -1.85806e-06 0)
(-4.09425e-06 -1.54679e-06 0)
(2.04618e-06 -1.2218e-06 0)
(6.85335e-06 -8.85382e-07 0)
(1.0296e-05 -5.41252e-07 0)
(1.23639e-05 -1.95279e-07 0)
(1.30786e-05 1.43286e-07 0)
(1.251e-05 4.59714e-07 0)
(1.08005e-05 7.30425e-07 0)
(8.19734e-06 9.19203e-07 0)
(5.11668e-06 9.71088e-07 0)
(2.27458e-06 7.84632e-07 0)
(3.4114e-07 3.40394e-07 0)
(6.54444e-07 -2.12715e-06 0)
(2.75989e-06 -2.75601e-06 0)
(3.52326e-06 -1.14007e-06 0)
(1.58894e-06 1.64275e-06 0)
(-3.97667e-06 4.94642e-06 0)
(-1.35459e-05 8.39966e-06 0)
(-2.71873e-05 1.17931e-05 0)
(-4.47952e-05 1.50134e-05 0)
(-6.61615e-05 1.80038e-05 0)
(-9.10226e-05 2.07399e-05 0)
(-0.00011909 2.32164e-05 0)
(-0.000150068 2.54391e-05 0)
(-0.000183667 2.74199e-05 0)
(-0.000219608 2.91739e-05 0)
(-0.00025763 3.0718e-05 0)
(-0.000297487 3.20692e-05 0)
(-0.000338956 3.32446e-05 0)
(-0.000381828 3.42606e-05 0)
(-0.000425917 3.51328e-05 0)
(-0.000471051 3.58757e-05 0)
(-0.000517078 3.65028e-05 0)
(-0.000563859 3.70268e-05 0)
(-0.000611271 3.7459e-05 0)
(-0.000659204 3.781e-05 0)
(-0.000707559 3.80892e-05 0)
(-0.000756252 3.83053e-05 0)
(-0.000805204 3.84661e-05 0)
(-0.000854349 3.85784e-05 0)
(-0.000903628 3.86484e-05 0)
(-0.000952989 3.86818e-05 0)
(-0.00100239 3.86833e-05 0)
(-0.00105178 3.86572e-05 0)
(-0.00110114 3.86072e-05 0)
(-0.00115043 3.85367e-05 0)
(-0.00119964 3.84483e-05 0)
(-0.00124872 3.83444e-05 0)
(-0.00129767 3.82271e-05 0)
(-0.00134648 3.80979e-05 0)
(-0.00139511 3.79583e-05 0)
(-0.00144356 3.78094e-05 0)
(-0.00149182 3.7652e-05 0)
(-0.00153988 3.74866e-05 0)
(-0.00158772 3.73139e-05 0)
(-0.00163534 3.71341e-05 0)
(-0.00168272 3.69474e-05 0)
(-0.00172986 3.67538e-05 0)
(-0.00177675 3.65531e-05 0)
(-0.00182337 3.63454e-05 0)
(-0.00186973 3.61304e-05 0)
(-0.00191579 3.59077e-05 0)
(-0.00196157 3.56771e-05 0)
(-0.00200705 3.54383e-05 0)
(-0.00205221 3.51907e-05 0)
(-0.00209704 3.4934e-05 0)
(-0.00214153 3.46677e-05 0)
(-0.00218568 3.43914e-05 0)
(-0.00222946 3.41047e-05 0)
(-0.00227287 3.3807e-05 0)
(-0.00231588 3.3498e-05 0)
(-0.00235848 3.3177e-05 0)
(-0.00240067 3.28438e-05 0)
(-0.00244241 3.24977e-05 0)
(-0.0024837 3.21385e-05 0)
(-0.00252452 3.17655e-05 0)
(-0.00256485 3.13783e-05 0)
(-0.00260467 3.09766e-05 0)
(-0.00264397 3.05599e-05 0)
(-0.00268272 3.01277e-05 0)
(-0.0027209 2.96797e-05 0)
(-0.00275849 2.92155e-05 0)
(-0.00279548 2.87346e-05 0)
(-0.00283184 2.82368e-05 0)
(-0.00286755 2.77216e-05 0)
(-0.00290259 2.71887e-05 0)
(-0.00293694 2.66378e-05 0)
(-0.00297056 2.60685e-05 0)
(-0.00300345 2.54807e-05 0)
(-0.00303557 2.48739e-05 0)
(-0.0030669 2.42479e-05 0)
(-0.00309742 2.36026e-05 0)
(-0.0031271 2.29377e-05 0)
(-0.00315591 2.2253e-05 0)
(-0.00318384 2.15484e-05 0)
(-0.00321086 2.08237e-05 0)
(-0.00323694 2.00788e-05 0)
(-0.00326205 1.93136e-05 0)
(-0.00328618 1.85281e-05 0)
(-0.00330929 1.77223e-05 0)
(-0.00333136 1.68962e-05 0)
(-0.00335236 1.60498e-05 0)
(-0.00337228 1.51833e-05 0)
(-0.00339107 1.42967e-05 0)
(-0.00340873 1.33902e-05 0)
(-0.00342522 1.2464e-05 0)
(-0.00344051 1.15184e-05 0)
(-0.0034546 1.05537e-05 0)
(-0.00346744 9.57011e-06 0)
(-0.00347902 8.56813e-06 0)
(-0.00348931 7.54815e-06 0)
(-0.0034983 6.51063e-06 0)
(-0.00350596 5.4561e-06 0)
(-0.00351226 4.38512e-06 0)
(-0.0035172 3.29831e-06 0)
(-0.00352075 2.19632e-06 0)
(-0.00352288 1.07987e-06 0)
(-0.0035236 -5.02942e-08 0)
(-0.00352286 -1.19337e-06 0)
(-0.00352067 -2.3485e-06 0)
(-0.00351701 -3.51479e-06 0)
(-0.00351186 -4.69131e-06 0)
(-0.00350521 -5.87706e-06 0)
(-0.00349705 -7.07101e-06 0)
(-0.00348738 -8.27211e-06 0)
(-0.00347617 -9.47922e-06 0)
(-0.00346343 -1.06912e-05 0)
(-0.00344915 -1.19069e-05 0)
(-0.00343333 -1.3125e-05 0)
(-0.00341596 -1.43443e-05 0)
(-0.00339704 -1.55636e-05 0)
(-0.00337658 -1.67815e-05 0)
(-0.00335458 -1.79967e-05 0)
(-0.00333103 -1.92078e-05 0)
(-0.00330595 -2.04134e-05 0)
(-0.00327935 -2.16123e-05 0)
(-0.00325123 -2.28029e-05 0)
(-0.0032216 -2.39839e-05 0)
(-0.00319049 -2.51539e-05 0)
(-0.00315789 -2.63115e-05 0)
(-0.00312383 -2.74552e-05 0)
(-0.00308833 -2.85838e-05 0)
(-0.00305141 -2.96957e-05 0)
(-0.00301308 -3.07897e-05 0)
(-0.00297337 -3.18643e-05 0)
(-0.00293231 -3.29183e-05 0)
(-0.00288992 -3.39503e-05 0)
(-0.00284624 -3.49591e-05 0)
(-0.00280128 -3.59432e-05 0)
(-0.00275508 -3.69016e-05 0)
(-0.00270768 -3.7833e-05 0)
(-0.00265911 -3.87361e-05 0)
(-0.00260941 -3.96099e-05 0)
(-0.0025586 -4.04531e-05 0)
(-0.00250674 -4.12647e-05 0)
(-0.00245386 -4.20434e-05 0)
(-0.0024 -4.27883e-05 0)
(-0.00234521 -4.34983e-05 0)
(-0.00228953 -4.41723e-05 0)
(-0.00223301 -4.48091e-05 0)
(-0.00217569 -4.54078e-05 0)
(-0.00211763 -4.59673e-05 0)
(-0.00205887 -4.64864e-05 0)
(-0.00199946 -4.69641e-05 0)
(-0.00193946 -4.73991e-05 0)
(-0.00187892 -4.77903e-05 0)
(-0.0018179 -4.81364e-05 0)
(-0.00175645 -4.84361e-05 0)
(-0.00169464 -4.86878e-05 0)
(-0.00163252 -4.88902e-05 0)
(-0.00157017 -4.90417e-05 0)
(-0.00150764 -4.91404e-05 0)
(-0.00144501 -4.91845e-05 0)
(-0.00138233 -4.9172e-05 0)
(-0.0013197 -4.91008e-05 0)
(-0.00125718 -4.89685e-05 0)
(-0.00119485 -4.87727e-05 0)
(-0.0011328 -4.85106e-05 0)
(-0.00107111 -4.81794e-05 0)
(-0.00100987 -4.7776e-05 0)
(-0.000949171 -4.72971e-05 0)
(-0.000889118 -4.67391e-05 0)
(-0.000829812 -4.60984e-05 0)
(-0.000771359 -4.53711e-05 0)
(-0.000713873 -4.4553e-05 0)
(-0.000657471 -4.36398e-05 0)
(-0.000602276 -4.2627e-05 0)
(-0.000548418 -4.15101e-05 0)
(-0.000496032 -4.02842e-05 0)
(-0.000445258 -3.89445e-05 0)
(-0.000396242 -3.74864e-05 0)
(-0.000349136 -3.59051e-05 0)
(-0.000304097 -3.41962e-05 0)
(-0.000261288 -3.23555e-05 0)
(-0.000220874 -3.03796e-05 0)
(-0.000183024 -2.82658e-05 0)
(-0.000147908 -2.60127e-05 0)
(-0.000115697 -2.36205e-05 0)
(-8.65562e-05 -2.10919e-05 0)
(-6.06453e-05 -1.84328e-05 0)
(-3.81107e-05 -1.56539e-05 0)
(-1.90797e-05 -1.2772e-05 0)
(-3.6501e-06 -9.81321e-06 0)
(8.12277e-06 -6.81657e-06 0)
(1.62443e-05 -3.83968e-06 0)
(2.08059e-05 -9.67228e-07 0)
(2.20201e-05 1.67658e-06 0)
(2.0267e-05 3.91044e-06 0)
(1.61501e-05 5.4731e-06 0)
(1.05905e-05 5.9992e-06 0)
(5.02524e-06 5.03106e-06 0)
(7.83583e-07 2.27096e-06 0)
(4.49028e-07 -3.46888e-06 0)
(1.14786e-06 -3.52117e-06 0)
(-9.02316e-07 9.07096e-07 0)
(-7.2605e-06 7.76597e-06 0)
(-1.89788e-05 1.58019e-05 0)
(-3.6546e-05 2.42409e-05 0)
(-6.00921e-05 3.26105e-05 0)
(-8.95151e-05 4.06335e-05 0)
(-0.000124563 4.81552e-05 0)
(-0.000164896 5.50981e-05 0)
(-0.000210122 6.14329e-05 0)
(-0.00025983 6.71598e-05 0)
(-0.000313608 7.22977e-05 0)
(-0.00037105 7.68758e-05 0)
(-0.000431771 8.09297e-05 0)
(-0.000495404 8.44976e-05 0)
(-0.000561611 8.76187e-05 0)
(-0.000630075 9.03316e-05 0)
(-0.000700508 9.26738e-05 0)
(-0.000772645 9.46808e-05 0)
(-0.000846246 9.63861e-05 0)
(-0.000921094 9.78207e-05 0)
(-0.000996995 9.90137e-05 0)
(-0.00107377 9.99914e-05 0)
(-0.00115127 0.000100778 0)
(-0.00122935 0.000101396 0)
(-0.00130788 0.000101865 0)
(-0.00138676 0.000102204 0)
(-0.00146589 0.000102427 0)
(-0.00154518 0.00010255 0)
(-0.00162457 0.000102586 0)
(-0.00170397 0.000102546 0)
(-0.00178335 0.000102439 0)
(-0.00186264 0.000102275 0)
(-0.0019418 0.000102061 0)
(-0.00202079 0.000101802 0)
(-0.00209958 0.000101506 0)
(-0.00217814 0.000101175 0)
(-0.00225644 0.000100815 0)
(-0.00233447 0.000100428 0)
(-0.00241218 0.000100015 0)
(-0.00248957 9.95807e-05 0)
(-0.00256662 9.91245e-05 0)
(-0.00264331 9.86479e-05 0)
(-0.00271963 9.81515e-05 0)
(-0.00279555 9.76355e-05 0)
(-0.00287106 9.70998e-05 0)
(-0.00294614 9.65443e-05 0)
(-0.00302078 9.59684e-05 0)
(-0.00309496 9.53715e-05 0)
(-0.00316866 9.47528e-05 0)
(-0.00324187 9.41115e-05 0)
(-0.00331457 9.34466e-05 0)
(-0.00338674 9.27571e-05 0)
(-0.00345835 9.20418e-05 0)
(-0.00352939 9.12998e-05 0)
(-0.00359984 9.05297e-05 0)
(-0.00366967 8.97305e-05 0)
(-0.00373886 8.89009e-05 0)
(-0.00380739 8.80398e-05 0)
(-0.00387523 8.7146e-05 0)
(-0.00394236 8.62183e-05 0)
(-0.00400874 8.52555e-05 0)
(-0.00407436 8.42565e-05 0)
(-0.00413918 8.32202e-05 0)
(-0.00420317 8.21453e-05 0)
(-0.00426631 8.10309e-05 0)
(-0.00432856 7.98758e-05 0)
(-0.0043899 7.8679e-05 0)
(-0.00445028 7.74395e-05 0)
(-0.00450968 7.61563e-05 0)
(-0.00456806 7.48284e-05 0)
(-0.00462539 7.3455e-05 0)
(-0.00468163 7.2035e-05 0)
(-0.00473675 7.05678e-05 0)
(-0.0047907 6.90525e-05 0)
(-0.00484346 6.74884e-05 0)
(-0.00489499 6.58748e-05 0)
(-0.00494524 6.42109e-05 0)
(-0.00499418 6.24963e-05 0)
(-0.00504178 6.07305e-05 0)
(-0.00508798 5.89128e-05 0)
(-0.00513275 5.7043e-05 0)
(-0.00517606 5.51208e-05 0)
(-0.00521786 5.31457e-05 0)
(-0.00525811 5.11177e-05 0)
(-0.00529676 4.90367e-05 0)
(-0.00533379 4.69025e-05 0)
(-0.00536915 4.47154e-05 0)
(-0.0054028 4.24754e-05 0)
(-0.0054347 4.01827e-05 0)
(-0.00546481 3.78378e-05 0)
(-0.00549309 3.54411e-05 0)
(-0.0055195 3.29931e-05 0)
(-0.005544 3.04945e-05 0)
(-0.00556656 2.7946e-05 0)
(-0.00558714 2.53486e-05 0)
(-0.00560569 2.27032e-05 0)
(-0.00562219 2.0011e-05 0)
(-0.0056366 1.72731e-05 0)
(-0.00564889 1.44911e-05 0)
(-0.00565902 1.16662e-05 0)
(-0.00566696 8.8002e-06 0)
(-0.00567268 5.89474e-06 0)
(-0.00567615 2.95169e-06 0)
(-0.00567735 -2.69879e-08 0)
(-0.00567625 -3.0392e-06 0)
(-0.00567281 -6.08275e-06 0)
(-0.00566703 -9.15529e-06 0)
(-0.00565888 -1.22544e-05 0)
(-0.00564834 -1.53774e-05 0)
(-0.00563539 -1.85218e-05 0)
(-0.00562002 -2.16848e-05 0)
(-0.00560222 -2.48633e-05 0)
(-0.00558197 -2.80546e-05 0)
(-0.00555926 -3.12554e-05 0)
(-0.0055341 -3.44627e-05 0)
(-0.00550648 -3.76732e-05 0)
(-0.00547639 -4.08835e-05 0)
(-0.00544383 -4.40903e-05 0)
(-0.00540882 -4.72901e-05 0)
(-0.00537136 -5.04795e-05 0)
(-0.00533145 -5.36549e-05 0)
(-0.00528911 -5.68127e-05 0)
(-0.00524435 -5.99493e-05 0)
(-0.0051972 -6.30611e-05 0)
(-0.00514766 -6.61445e-05 0)
(-0.00509577 -6.91958e-05 0)
(-0.00504154 -7.22115e-05 0)
(-0.00498502 -7.51878e-05 0)
(-0.00492622 -7.81213e-05 0)
(-0.00486518 -8.10083e-05 0)
(-0.00480193 -8.38454e-05 0)
(-0.00473653 -8.6629e-05 0)
(-0.004669 -8.93558e-05 0)
(-0.0045994 -9.20224e-05 0)
(-0.00452776 -9.46254e-05 0)
(-0.00445414 -9.71617e-05 0)
(-0.00437859 -9.9628e-05 0)
(-0.00430116 -0.000102021 0)
(-0.00422191 -0.000104338 0)
(-0.0041409 -0.000106576 0)
(-0.00405818 -0.000108731 0)
(-0.00397383 -0.000110802 0)
(-0.00388791 -0.000112785 0)
(-0.00380048 -0.000114676 0)
(-0.00371162 -0.000116474 0)
(-0.00362139 -0.000118176 0)
(-0.00352987 -0.000119778 0)
(-0.00343714 -0.000121277 0)
(-0.00334328 -0.000122672 0)
(-0.00324837 -0.000123958 0)
(-0.00315248 -0.000125133 0)
(-0.00305571 -0.000126193 0)
(-0.00295815 -0.000127135 0)
(-0.00285989 -0.000127955 0)
(-0.00276102 -0.00012865 0)
(-0.00266163 -0.000129214 0)
(-0.00256184 -0.000129645 0)
(-0.00246175 -0.000129938 0)
(-0.00236145 -0.000130086 0)
(-0.00226107 -0.000130086 0)
(-0.00216072 -0.00012993 0)
(-0.00206053 -0.000129614 0)
(-0.00196061 -0.00012913 0)
(-0.00186111 -0.000128471 0)
(-0.00176216 -0.000127629 0)
(-0.00166389 -0.000126597 0)
(-0.00156647 -0.000125366 0)
(-0.00147005 -0.000123926 0)
(-0.00137479 -0.000122268 0)
(-0.00128086 -0.000120381 0)
(-0.00118845 -0.000118256 0)
(-0.00109774 -0.00011588 0)
(-0.00100892 -0.000113242 0)
(-0.000922206 -0.000110331 0)
(-0.000837806 -0.000107134 0)
(-0.000755942 -0.00010364 0)
(-0.000676844 -9.98372e-05 0)
(-0.000600751 -9.57139e-05 0)
(-0.000527907 -9.12598e-05 0)
(-0.000458564 -8.6466e-05 0)
(-0.000392978 -8.13251e-05 0)
(-0.000331407 -7.58324e-05 0)
(-0.000274113 -6.9987e-05 0)
(-0.000221348 -6.37929e-05 0)
(-0.000173361 -5.72609e-05 0)
(-0.000130383 -5.04111e-05 0)
(-9.26235e-05 -4.32759e-05 0)
(-6.02563e-05 -3.59048e-05 0)
(-3.34066e-05 -2.83704e-05 0)
(-1.2131e-05 -2.07774e-05 0)
(3.60714e-06 -1.32743e-05 0)
(1.3971e-05 -6.07022e-06 0)
(1.92923e-05 5.42026e-07 0)
(2.01224e-05 6.15659e-06 0)
(1.72874e-05 1.02197e-05 0)
(1.1978e-05 1.1999e-05 0)
(5.979e-06 1.05931e-05 0)
(9.65585e-07 5.10316e-06 0)
(7.88252e-08 -3.81856e-06 0)
(-1.64673e-06 -1.58017e-06 0)
(-7.80154e-06 7.27664e-06 0)
(-1.99289e-05 1.9868e-05 0)
(-3.89607e-05 3.43618e-05 0)
(-6.53823e-05 4.95641e-05 0)
(-9.93326e-05 6.47052e-05 0)
(-0.000140702 7.93062e-05 0)
(-0.000189212 9.30825e-05 0)
(-0.000244473 0.000105878 0)
(-0.000306031 0.000117622 0)
(-0.000373396 0.000128298 0)
(-0.000446067 0.000137925 0)
(-0.000523548 0.000146545 0)
(-0.000605359 0.000154214 0)
(-0.000691039 0.000160995 0)
(-0.000780157 0.000166952 0)
(-0.00087231 0.000172154 0)
(-0.000967124 0.000176664 0)
(-0.00106425 0.000180548 0)
(-0.00116339 0.000183864 0)
(-0.00126424 0.000186668 0)
(-0.00136655 0.000189014 0)
(-0.00147008 0.00019095 0)
(-0.00157463 0.000192521 0)
(-0.00168 0.000193768 0)
(-0.00178604 0.000194727 0)
(-0.00189258 0.000195434 0)
(-0.00199949 0.000195917 0)
(-0.00210667 0.000196205 0)
(-0.002214 0.000196321 0)
(-0.00232139 0.000196287 0)
(-0.00242877 0.000196121 0)
(-0.00253606 0.000195841 0)
(-0.00264319 0.000195461 0)
(-0.00275012 0.000194993 0)
(-0.0028568 0.000194448 0)
(-0.00296318 0.000193834 0)
(-0.00306922 0.000193159 0)
(-0.00317488 0.000192429 0)
(-0.00328014 0.000191648 0)
(-0.00338497 0.000190822 0)
(-0.00348934 0.000189951 0)
(-0.00359322 0.000189039 0)
(-0.00369659 0.000188087 0)
(-0.00379943 0.000187095 0)
(-0.00390171 0.000186064 0)
(-0.00400341 0.000184993 0)
(-0.0041045 0.000183882 0)
(-0.00420496 0.000182729 0)
(-0.00430477 0.000181534 0)
(-0.0044039 0.000180294 0)
(-0.00450233 0.000179008 0)
(-0.00460003 0.000177674 0)
(-0.00469697 0.00017629 0)
(-0.00479312 0.000174855 0)
(-0.00488846 0.000173365 0)
(-0.00498296 0.00017182 0)
(-0.00507658 0.000170216 0)
(-0.00516928 0.000168552 0)
(-0.00526105 0.000166825 0)
(-0.00535183 0.000165033 0)
(-0.00544161 0.000163174 0)
(-0.00553033 0.000161245 0)
(-0.00561795 0.000159246 0)
(-0.00570445 0.000157173 0)
(-0.00578978 0.000155025 0)
(-0.0058739 0.000152799 0)
(-0.00595677 0.000150494 0)
(-0.00603834 0.000148108 0)
(-0.00611856 0.000145639 0)
(-0.0061974 0.000143084 0)
(-0.00627481 0.000140444 0)
(-0.00635073 0.000137715 0)
(-0.00642513 0.000134896 0)
(-0.00649795 0.000131986 0)
(-0.00656914 0.000128984 0)
(-0.00663866 0.000125887 0)
(-0.00670645 0.000122696 0)
(-0.00677246 0.000119408 0)
(-0.00683664 0.000116024 0)
(-0.00689894 0.000112541 0)
(-0.0069593 0.00010896 0)
(-0.00701767 0.000105279 0)
(-0.007074 0.000101499 0)
(-0.00712823 9.76182e-05 0)
(-0.00718032 9.36374e-05 0)
(-0.0072302 8.95564e-05 0)
(-0.00727782 8.53753e-05 0)
(-0.00732314 8.10943e-05 0)
(-0.00736609 7.67141e-05 0)
(-0.00740663 7.22352e-05 0)
(-0.0074447 6.76586e-05 0)
(-0.00748024 6.29853e-05 0)
(-0.00751322 5.82166e-05 0)
(-0.00754358 5.3354e-05 0)
(-0.00757126 4.83991e-05 0)
(-0.00759623 4.33539e-05 0)
(-0.00761843 3.82205e-05 0)
(-0.00763782 3.30013e-05 0)
(-0.00765434 2.76988e-05 0)
(-0.00766797 2.23158e-05 0)
(-0.00767865 1.68553e-05 0)
(-0.00768635 1.13207e-05 0)
(-0.00769103 5.7154e-06 0)
(-0.00769265 4.31186e-08 0)
(-0.00769118 -5.69219e-06 0)
(-0.00768658 -1.14864e-05 0)
(-0.00767883 -1.7335e-05 0)
(-0.00766789 -2.32335e-05 0)
(-0.00765375 -2.9177e-05 0)
(-0.00763638 -3.51605e-05 0)
(-0.00761576 -4.11788e-05 0)
(-0.00759187 -4.72264e-05 0)
(-0.0075647 -5.32978e-05 0)
(-0.00753424 -5.93871e-05 0)
(-0.00750048 -6.54885e-05 0)
(-0.00746342 -7.15959e-05 0)
(-0.00742305 -7.77029e-05 0)
(-0.00737938 -8.38033e-05 0)
(-0.00733241 -8.98907e-05 0)
(-0.00728215 -9.59583e-05 0)
(-0.00722861 -0.000102 0)
(-0.00717182 -0.000108008 0)
(-0.00711178 -0.000113977 0)
(-0.00704852 -0.000119899 0)
(-0.00698207 -0.000125768 0)
(-0.00691245 -0.000131576 0)
(-0.00683971 -0.000137318 0)
(-0.00676388 -0.000142986 0)
(-0.00668499 -0.000148573 0)
(-0.0066031 -0.000154073 0)
(-0.00651824 -0.00015948 0)
(-0.00643048 -0.000164786 0)
(-0.00633987 -0.000169986 0)
(-0.00624646 -0.000175073 0)
(-0.00615032 -0.00018004 0)
(-0.00605151 -0.000184882 0)
(-0.0059501 -0.000189592 0)
(-0.00584616 -0.000194165 0)
(-0.00573977 -0.000198595 0)
(-0.005631 -0.000202875 0)
(-0.00551993 -0.000207002 0)
(-0.00540665 -0.000210968 0)
(-0.00529124 -0.000214768 0)
(-0.00517379 -0.000218398 0)
(-0.0050544 -0.00022185 0)
(-0.00493316 -0.000225121 0)
(-0.00481017 -0.000228205 0)
(-0.00468553 -0.000231095 0)
(-0.00455934 -0.000233786 0)
(-0.00443172 -0.000236272 0)
(-0.00430277 -0.000238548 0)
(-0.00417261 -0.000240607 0)
(-0.00404136 -0.000242442 0)
(-0.00390914 -0.000244046 0)
(-0.00377608 -0.000245412 0)
(-0.0036423 -0.000246532 0)
(-0.00350794 -0.000247397 0)
(-0.00337314 -0.000247999 0)
(-0.00323805 -0.000248327 0)
(-0.00310282 -0.000248372 0)
(-0.00296759 -0.000248123 0)
(-0.00283254 -0.000247567 0)
(-0.00269784 -0.000246692 0)
(-0.00256365 -0.000245484 0)
(-0.00243017 -0.000243928 0)
(-0.00229759 -0.000242009 0)
(-0.00216611 -0.000239711 0)
(-0.00203593 -0.000237016 0)
(-0.00190728 -0.000233906 0)
(-0.00178039 -0.000230362 0)
(-0.00165549 -0.000226363 0)
(-0.00153284 -0.000221889 0)
(-0.0014127 -0.000216918 0)
(-0.00129534 -0.00021143 0)
(-0.00118104 -0.000205402 0)
(-0.0010701 -0.000198813 0)
(-0.000962813 -0.000191642 0)
(-0.000859503 -0.00018387 0)
(-0.000760487 -0.000175478 0)
(-0.000666095 -0.000166452 0)
(-0.000576657 -0.000156781 0)
(-0.000492508 -0.00014646 0)
(-0.00041398 -0.000135491 0)
(-0.000341396 -0.000123886 0)
(-0.000275066 -0.00011167 0)
(-0.000215277 -9.88887e-05 0)
(-0.000162281 -8.56077e-05 0)
(-0.000116283 -7.19261e-05 0)
(-7.74213e-05 -5.79846e-05 0)
(-4.57472e-05 -4.39798e-05 0)
(-2.11939e-05 -3.01827e-05 0)
(-3.54368e-06 -1.69638e-05 0)
(7.61556e-06 -4.82398e-06 0)
(1.29385e-05 5.56627e-06 0)
(1.33713e-05 1.33243e-05 0)
(1.02347e-05 1.73184e-05 0)
(5.45733e-06 1.61507e-05 0)
(9.10671e-07 8.16808e-06 0)
(-3.46317e-07 -2.6928e-06 0)
(-4.99259e-06 4.02969e-06 0)
(-1.59558e-05 1.90673e-05 0)
(-3.4646e-05 3.89448e-05 0)
(-6.17169e-05 6.13625e-05 0)
(-9.75527e-05 8.47573e-05 0)
(-0.000142241 0.000108078 0)
(-0.000195636 0.000130642 0)
(-0.000257425 0.000152024 0)
(-0.00032718 0.000171976 0)
(-0.000404398 0.000190372 0)
(-0.000488535 0.000207171 0)
(-0.000579027 0.000222385 0)
(-0.00067531 0.000236066 0)
(-0.000776833 0.000248286 0)
(-0.000883065 0.000259133 0)
(-0.0009935 0.0002687 0)
(-0.00110766 0.000277086 0)
(-0.00122512 0.000284387 0)
(-0.00134544 0.000290698 0)
(-0.00146827 0.000296109 0)
(-0.00159326 0.000300708 0)
(-0.00172008 0.000304573 0)
(-0.00184846 0.000307782 0)
(-0.00197814 0.000310403 0)
(-0.00210889 0.000312501 0)
(-0.00224049 0.000314133 0)
(-0.00237277 0.000315353 0)
(-0.00250555 0.000316209 0)
(-0.00263869 0.000316744 0)
(-0.00277206 0.000316997 0)
(-0.00290555 0.000317002 0)
(-0.00303904 0.00031679 0)
(-0.00317244 0.000316386 0)
(-0.00330569 0.000315815 0)
(-0.0034387 0.000315096 0)
(-0.00357141 0.000314247 0)
(-0.00370376 0.000313281 0)
(-0.00383571 0.000312212 0)
(-0.0039672 0.000311049 0)
(-0.0040982 0.0003098 0)
(-0.00422867 0.000308473 0)
(-0.00435857 0.000307071 0)
(-0.00448786 0.000305598 0)
(-0.00461651 0.000304057 0)
(-0.0047445 0.000302449 0)
(-0.00487179 0.000300775 0)
(-0.00499835 0.000299034 0)
(-0.00512415 0.000297225 0)
(-0.00524916 0.000295348 0)
(-0.00537334 0.0002934 0)
(-0.00549667 0.000291378 0)
(-0.00561912 0.000289281 0)
(-0.00574065 0.000287106 0)
(-0.00586122 0.000284849 0)
(-0.0059808 0.000282508 0)
(-0.00609936 0.000280078 0)
(-0.00621684 0.000277558 0)
(-0.00633323 0.000274943 0)
(-0.00644846 0.00027223 0)
(-0.00656251 0.000269416 0)
(-0.00667533 0.000266497 0)
(-0.00678687 0.00026347 0)
(-0.00689708 0.000260331 0)
(-0.00700593 0.000257078 0)
(-0.00711336 0.000253706 0)
(-0.00721931 0.000250213 0)
(-0.00732375 0.000246596 0)
(-0.00742662 0.000242851 0)
(-0.00752786 0.000238976 0)
(-0.00762741 0.000234967 0)
(-0.00772523 0.000230822 0)
(-0.00782126 0.000226538 0)
(-0.00791543 0.000222113 0)
(-0.0080077 0.000217544 0)
(-0.00809799 0.000212829 0)
(-0.00818625 0.000207966 0)
(-0.00827241 0.000202953 0)
(-0.00835642 0.000197787 0)
(-0.00843821 0.000192468 0)
(-0.00851772 0.000186993 0)
(-0.00859488 0.000181362 0)
(-0.00866963 0.000175573 0)
(-0.00874191 0.000169625 0)
(-0.00881164 0.000163518 0)
(-0.00887877 0.000157252 0)
(-0.00894322 0.000150825 0)
(-0.00900494 0.000144238 0)
(-0.00906385 0.000137492 0)
(-0.00911989 0.000130586 0)
(-0.009173 0.000123523 0)
(-0.00922312 0.000116302 0)
(-0.00927017 0.000108925 0)
(-0.00931409 0.000101394 0)
(-0.00935483 9.3712e-05 0)
(-0.00939233 8.588e-05 0)
(-0.00942651 7.79012e-05 0)
(-0.00945732 6.97788e-05 0)
(-0.00948471 6.15161e-05 0)
(-0.00950862 5.31169e-05 0)
(-0.009529 4.45853e-05 0)
(-0.00954578 3.59259e-05 0)
(-0.00955892 2.71435e-05 0)
(-0.00956838 1.82432e-05 0)
(-0.0095741 9.2308e-06 0)
(-0.00957605 1.12085e-07 0)
(-0.00957417 -9.10662e-06 0)
(-0.00956843 -1.84187e-05 0)
(-0.0095588 -2.7817e-05 0)
(-0.00954524 -3.72944e-05 0)
(-0.00952772 -4.6843e-05 0)
(-0.00950621 -5.6455e-05 0)
(-0.0094807 -6.6122e-05 0)
(-0.00945115 -7.58353e-05 0)
(-0.00941756 -8.55862e-05 0)
(-0.00937991 -9.53653e-05 0)
(-0.00933819 -0.000105163 0)
(-0.00929239 -0.000114971 0)
(-0.00924252 -0.000124777 0)
(-0.00918858 -0.000134573 0)
(-0.00913057 -0.000144348 0)
(-0.00906851 -0.000154091 0)
(-0.0090024 -0.000163793 0)
(-0.00893227 -0.000173442 0)
(-0.00885815 -0.000183028 0)
(-0.00878005 -0.000192539 0)
(-0.00869802 -0.000201966 0)
(-0.00861209 -0.000211298 0)
(-0.0085223 -0.000220523 0)
(-0.0084287 -0.000229631 0)
(-0.00833133 -0.000238611 0)
(-0.00823025 -0.000247453 0)
(-0.00812551 -0.000256146 0)
(-0.00801719 -0.000264679 0)
(-0.00790535 -0.000273044 0)
(-0.00779005 -0.000281228 0)
(-0.00767138 -0.000289223 0)
(-0.0075494 -0.000297019 0)
(-0.00742421 -0.000304606 0)
(-0.00729589 -0.000311975 0)
(-0.00716454 -0.000319116 0)
(-0.00703024 -0.00032602 0)
(-0.00689309 -0.000332678 0)
(-0.0067532 -0.000339082 0)
(-0.00661067 -0.000345222 0)
(-0.00646561 -0.000351089 0)
(-0.00631813 -0.000356676 0)
(-0.00616835 -0.000361972 0)
(-0.0060164 -0.000366969 0)
(-0.00586238 -0.000371658 0)
(-0.00570644 -0.00037603 0)
(-0.00554871 -0.000380075 0)
(-0.00538931 -0.000383783 0)
(-0.0052284 -0.000387144 0)
(-0.00506611 -0.000390147 0)
(-0.0049026 -0.000392781 0)
(-0.00473801 -0.000395034 0)
(-0.00457252 -0.000396892 0)
(-0.00440629 -0.000398342 0)
(-0.00423948 -0.00039937 0)
(-0.00407228 -0.00039996 0)
(-0.00390487 -0.000400094 0)
(-0.00373745 -0.000399756 0)
(-0.0035702 -0.000398926 0)
(-0.00340335 -0.000397583 0)
(-0.00323711 -0.000395706 0)
(-0.00307171 -0.00039327 0)
(-0.00290737 -0.000390252 0)
(-0.00274436 -0.000386624 0)
(-0.00258293 -0.00038236 0)
(-0.00242334 -0.00037743 0)
(-0.00226588 -0.000371804 0)
(-0.00211084 -0.00036545 0)
(-0.00195853 -0.000358336 0)
(-0.00180927 -0.000350429 0)
(-0.00166339 -0.000341694 0)
(-0.00152123 -0.0003321 0)
(-0.00138315 -0.000321613 0)
(-0.00124952 -0.000310201 0)
(-0.00112072 -0.000297837 0)
(-0.000997128 -0.000284495 0)
(-0.000879141 -0.000270154 0)
(-0.000767156 -0.000254801 0)
(-0.000661567 -0.000238433 0)
(-0.000562766 -0.000221058 0)
(-0.000471131 -0.000202702 0)
(-0.000387019 -0.000183413 0)
(-0.000310758 -0.000163266 0)
(-0.000242633 -0.000142374 0)
(-0.00018287 -0.0001209 0)
(-0.000131616 -9.90671e-05 0)
(-8.89148e-05 -7.71821e-05 0)
(-5.46816e-05 -5.56575e-05 0)
(-2.86656e-05 -3.50425e-05 0)
(-1.04123e-05 -1.60614e-05 0)
(7.80292e-07 3.41662e-07 0)
(5.90509e-06 1.29525e-05 0)
(6.31963e-06 2.02411e-05 0)
(3.94225e-06 2.03078e-05 0)
(7.23841e-07 1.07623e-05 0)
(-7.82394e-07 6.93565e-08 0)
(-8.53051e-06 1.37254e-05 0)
(-2.46192e-05 3.68362e-05 0)
(-5.02673e-05 6.55722e-05 0)
(-8.57585e-05 9.72997e-05 0)
(-0.000131304 0.000130165 0)
(-0.000186887 0.000162878 0)
(-0.000252294 0.000194573 0)
(-0.000327159 0.000224687 0)
(-0.000411011 0.000252881 0)
(-0.000503306 0.000278971 0)
(-0.000603455 0.000302882 0)
(-0.000710846 0.000324618 0)
(-0.000824864 0.000344232 0)
(-0.000944903 0.000361814 0)
(-0.00107038 0.000377474 0)
(-0.00120072 0.000391336 0)
(-0.00133541 0.000403527 0)
(-0.00147395 0.000414178 0)
(-0.00161586 0.000423419 0)
(-0.00176073 0.000431372 0)
(-0.00190815 0.000438158 0)
(-0.00205776 0.000443887 0)
(-0.00220924 0.000448667 0)
(-0.00236229 0.000452593 0)
(-0.00251663 0.000455757 0)
(-0.00267203 0.000458242 0)
(-0.00282826 0.000460122 0)