/*--------------------------------*- C++ -*----------------------------------*\
  =========                 |
  \\      /  F ield         | OpenFOAM: The Open Source CFD Toolbox
   \\    /   O peration     | Website:  https://openfoam.org
    \\  /    A nd           | Version:  6
     \\/     M anipulation  |
\*---------------------------------------------------------------------------*/
FoamFile
{
    version     2.0;
    format      ascii;
    class       volVectorField;
    location    "./ITHACAoutput/Offline/1";
    object      U_rec;
}
// * * * * * * * * * * * * * * * * * * * * * * * * * * * * * * * * * * * * * //

dimensions      [0 1 -1 0 0 0 0];

internalField   nonuniform List<vector> 
13046
(
(-0.293239 0.0766133 0)
(-0.730933 -0.348911 -2.75488e-21)
(-0.203126 -0.17136 -5.54885e-21)
(-0.312159 -0.0181312 0)
(-0.124721 -0.0944289 -5.30512e-21)
(-0.614009 -0.340524 0)
(-0.34669 0.0043896 8.64655e-22)
(-0.69466 -0.391822 1.35288e-21)
(-0.0900034 -0.0771174 -5.70643e-21)
(-0.931612 0.38743 2.02708e-21)
(-1.44084 -0.733439 0)
(0.062062 0.00895177 3.16583e-21)
(-0.412795 0.114841 -2.76931e-21)
(-0.906818 -0.455732 -3.75481e-21)
(-0.0968285 -0.115187 2.93397e-21)
(-0.859088 0.432571 -2.80359e-21)
(0.00834218 -0.017248 7.5148e-21)
(-1.4971 -0.647108 -8.75649e-23)
(-0.144706 -0.03087 0)
(-0.436392 -0.280062 -2.91151e-21)
(-0.413065 -0.137727 9.04492e-21)
(-0.872877 0.423554 -1.12488e-21)
(0.0238211 -0.00875132 -1.00436e-20)
(-1.48809 -0.667002 0)
(-0.25665 0.00206478 3.56218e-21)
(-0.58767 -0.292758 -6.9418e-21)
(-0.204277 -0.157429 0)
(-0.422235 0.146325 -4.96596e-21)
(-0.943686 -0.456236 1.12891e-21)
(-0.114311 -0.129611 -5.12596e-21)
(-0.29688 0.0998351 0)
(-0.762095 -0.338429 0)
(-0.22735 -0.192546 5.64673e-21)
(-0.23976 -0.0266117 -4.1388e-21)
(-0.230664 -0.164044 1.98929e-21)
(-0.507954 -0.250793 1.20888e-20)
(-0.256964 -0.0533614 -6.3406e-21)
(-0.221485 -0.142625 3.09679e-21)
(-0.469853 -0.24127 -6.14393e-21)
(-0.21217 0.108977 4.2382e-21)
(-0.462338 -0.359886 9.84711e-22)
(-0.6894 -0.229129 -4.34422e-21)
(-0.307461 -0.127963 2.8408e-21)
(-0.245493 -0.122891 4.75522e-21)
(-0.343862 -0.18633 0)
(-0.329766 -0.121864 1.89348e-21)
(-0.197721 -0.0921646 -7.33768e-21)
(-0.381386 -0.218268 -9.03457e-22)
(-0.31506 0.0693286 0)
(-0.753518 -0.374723 -1.92238e-22)
(-0.153788 -0.143626 -7.27881e-23)
(-0.723451 -0.556395 5.75194e-21)
(-0.172088 0.12835 0)
(-0.703395 -0.138079 -5.0166e-21)
(-0.814061 -0.618062 -8.19712e-21)
(-0.688683 -0.108716 -8.21172e-21)
(-0.141786 0.11276 6.11825e-21)
(-1.34025 -0.475127 -5.39625e-22)
(-0.650092 0.382116 0)
(-0.209916 -0.198042 4.22859e-21)
(-0.606399 0.127974 -2.66185e-21)
(-1.11449 -0.661656 1.86028e-21)
(0.036635 -0.0124965 -1.20905e-20)
(0.0504457 -0.0167426 5.93345e-21)
(-1.42056 -0.724102 -4.41733e-22)
(-0.837962 0.327437 -3.77637e-21)
(-0.605704 0.370959 0)
(-1.28133 -0.425476 0)
(-0.273798 -0.255738 0)
(-0.564871 0.346262 -1.78165e-21)
(-1.22794 -0.406647 0)
(-0.296129 -0.273858 3.36307e-21)
(-1.3903 -0.486377 0)
(-0.689948 0.404923 2.95162e-23)
(-0.18887 -0.185516 -5.69715e-23)
(-0.142848 -0.00928182 0)
(-0.435901 -0.294419 3.1255e-21)
(-0.45866 -0.164956 -6.36633e-21)
(-0.111844 -0.118144 4.59051e-21)
(-0.746816 0.420029 -5.32878e-21)
(-1.44323 -0.54273 0)
(-0.281343 0.0103155 1.89637e-21)
(-0.627144 -0.320512 0)
(-0.16565 -0.129485 0)
(0.052576 -0.0106962 -5.26024e-21)
(-1.44263 -0.728223 -1.04638e-22)
(-0.868859 0.349162 2.22246e-21)
(-0.872747 0.245962 -4.00445e-21)
(0.0790114 -0.000843903 0)
(-1.37398 -0.819383 -4.15525e-22)
(0.0476114 0.00942164 0)
(-0.947671 0.175444 0)
(-1.34276 -0.920278 2.93025e-23)
(-0.627974 0.240198 0)
(-0.67431 0.251419 2.28312e-21)
(-1.22261 -0.604511 3.24744e-21)
(-1.26712 -0.644057 -1.4919e-21)
(-0.0213729 -0.0723067 -2.50122e-21)
(0.00764601 -0.0513971 6.4489e-21)
(0.0762003 0.00187475 -3.05589e-22)
(-0.864667 0.22008 3.91942e-21)
(-1.35066 -0.836532 0)
(-0.326499 -0.0971183 -1.16271e-23)
(-0.168473 -0.0865362 3.77117e-21)
(-0.443689 -0.258236 0)
(-0.0694275 0.0635823 0)
(-0.577885 -0.0660066 -2.6266e-21)
(-0.78774 -0.553789 0)
(-0.160206 0.108198 7.1545e-21)
(-0.639216 -0.479029 0)
(-0.657243 -0.160046 -1.00007e-20)
(-0.906691 0.400628 0)
(0.0510077 0.0191247 0)
(-1.29084 -0.681227 2.02404e-21)
(-0.367635 0.0903983 7.64337e-21)
(-0.843407 -0.420049 1.73573e-21)
(-0.110341 -0.116587 5.36535e-21)
(-0.686713 0.307584 2.89403e-21)
(-0.637067 0.272996 -5.46925e-21)
(-1.31629 -0.60119 -2.67144e-21)
(-0.0433756 -0.0820328 2.84366e-21)
(-1.25205 -0.581784 1.39067e-21)
(-0.0493774 -0.088884 -2.65633e-21)
(-0.928094 0.401725 -1.39695e-21)
(-1.42763 -0.718026 1.42317e-21)
(0.058208 0.0132516 -1.40834e-21)
(-0.530763 0.200497 0)
(-1.09777 -0.535142 -2.5371e-21)
(-0.0691436 -0.10771 6.10164e-21)
(-0.249702 0.123434 0)
(-0.402221 -0.321689 -5.01304e-21)
(-0.739123 -0.266377 2.48346e-22)
(0.0410034 0.0151657 0)
(-0.904762 0.153466 0)
(-1.32297 -0.905858 0)
(-0.759845 0.260639 0)
(-1.33303 -0.717602 -3.17648e-21)
(0.0510137 -0.0230438 -6.84904e-21)
(-0.338291 0.122579 0)
(-0.82942 -0.373552 0)
(-0.208915 -0.192242 0)
(-0.463825 0.0276861 0)
(-0.861081 -0.525466 0)
(-0.0153429 -0.0190151 0)
(-0.142702 0.105409 0)
(-0.702993 -0.522519 0)
(-0.652146 -0.134376 5.44946e-21)
(-0.0698654 0.0521897 -7.2068e-22)
(-0.554781 -0.0731486 -5.81936e-21)
(-0.766658 -0.52874 5.4996e-21)
(-0.641429 0.151412 6.06254e-21)
(-1.16202 -0.681226 0)
(0.0441436 -0.0188504 1.5676e-20)
(-0.059476 0.00374243 0)
(-0.457562 -0.0602134 6.20628e-21)
(-0.687948 -0.448085 -1.41852e-21)
(-0.966458 -0.700955 0)
(-0.665509 -0.0274221 5.95635e-21)
(-1.0396 -0.735297 0)
(-0.672539 0.0123553 3.44437e-21)
(-0.0652779 0.0758493 0)
(-0.0306714 0.0575911 0)
(-0.510849 -0.0103428 8.14165e-22)
(-0.847309 -0.556218 2.75531e-21)
(-0.0190817 0.0130777 -3.11866e-21)
(-0.949706 0.369084 -2.07754e-21)
(0.0695539 0.00699132 0)
(-1.42 -0.759058 7.39876e-22)
(-0.91816 0.404808 -1.09706e-21)
(0.053876 0.0197169 -6.43257e-22)
(-1.35387 -0.694089 0)
(-0.778178 0.283925 -3.28538e-21)
(-1.35828 -0.71478 0)
(0.0473185 -0.0246998 7.77954e-21)
(-0.329548 0.190124 0)
(-0.876746 -0.2939 1.24615e-21)
(-0.428174 -0.357916 2.83234e-21)
(-0.506615 -0.031106 5.27132e-21)
(-0.0357713 0.0248767 1.52811e-21)
(-0.79493 -0.521359 0)
(0.0789316 0.0021545 0)
(-1.41336 -0.810337 0)
(-0.960484 0.323162 1.68653e-21)
(-0.286922 0.165572 0)
(-0.813842 -0.267895 -2.82666e-21)
(-0.445317 -0.355878 7.43261e-22)
(-0.0525534 0.0180426 0)
(-0.478744 -0.0588191 0)
(-0.703843 -0.467757 0)
(-0.433035 0.00581477 2.60618e-21)
(-0.804188 -0.49218 0)
(-0.0281403 -0.0257875 0)
(-0.983191 -0.515938 1.87019e-23)
(-0.0469086 -0.0833633 -3.66128e-21)
(-0.493415 0.174532 7.85031e-21)
(-1.0478 -0.513138 0)
(-0.0730979 -0.105928 -7.64275e-21)
(-0.894276 0.302865 -3.9746e-21)
(0.0759426 -0.00318267 4.80885e-21)
(-1.41811 -0.788173 -9.38443e-22)
(0.0586861 0.0115607 4.44466e-21)
(-0.862158 0.170763 2.49208e-21)
(-1.32011 -0.869466 2.38251e-21)
(-0.933862 0.219522 -6.36882e-21)
(-1.37035 -0.873539 0)
(0.072189 0.0029617 -4.35624e-21)
(-0.763727 -0.609004 -2.88202e-22)
(-0.795263 -0.150769 2.21642e-21)
(-0.229472 0.174478 0)
(-0.402923 0.0562441 -1.17283e-20)
(-0.733854 0.431537 2.74666e-21)
(-0.139151 -0.137501 -2.82763e-21)
(-1.44478 -0.529618 0)
(-1.38039 -0.8716 0)
(-0.960219 0.247488 -5.45609e-21)
(0.0765549 0.000129932 0)
(-0.2928 -0.0621725 -9.38552e-21)
(-0.172619 -0.107097 -3.04186e-21)
(-0.491469 -0.271485 8.94797e-21)
(-0.398627 0.154716 0)
(-0.92405 -0.429308 -1.67047e-22)
(-0.159769 -0.157423 -2.92427e-21)
(0.0469722 0.0159791 3.43737e-21)
(-0.870939 0.154641 0)
(-1.30978 -0.886995 -2.74664e-21)
(-0.438111 0.0805317 9.38367e-21)
(-0.959841 -0.520679 6.65688e-21)
(-0.034967 -0.0713193 0)
(0.0669201 0.0096634 0)
(-1.35908 -0.74878 -1.73955e-21)
(-0.963076 0.375104 0)
(-0.192515 0.151287 0)
(-0.760049 -0.124074 0)
(-0.819273 -0.651516 0)
(-0.892592 0.204267 5.58612e-21)
(-1.3548 -0.857285 0)
(0.0718292 0.00445578 -3.46944e-23)
(-0.58582 0.00266265 2.2763e-21)
(-0.944305 -0.644767 -1.96527e-21)
(-0.0151057 0.0367816 0)
(-0.529866 0.220873 0)
(-1.10917 -0.519082 2.38724e-21)
(-0.0964843 -0.123411 4.80013e-21)
(-1.22453 -0.887639 -4.87878e-21)
(-0.823792 0.0709424 -4.50258e-21)
(-0.0133624 0.0486643 2.69768e-21)
(-0.715284 0.0239772 0)
(-1.09579 -0.782529 -2.3331e-21)
(-0.0318417 0.059392 -1.00112e-22)
(0.0660226 0.00635986 -4.18149e-21)
(-1.32916 -0.754297 0)
(-0.974645 0.362875 -9.18628e-22)
(-0.226084 0.1449 3.84773e-21)
(-0.572406 -0.444675 -3.52879e-21)
(-0.743233 -0.209725 4.12258e-22)
(-0.834155 0.431996 9.49735e-22)
(0.0383909 0.0311935 -6.00796e-21)
(-1.29398 -0.59911 0)
(-0.129651 -0.0487334 -1.80844e-21)
(-0.374923 -0.106573 -7.31656e-21)
(-0.48163 -0.298316 8.73092e-21)
(-0.564245 0.0501948 2.76257e-21)
(-0.557025 0.0120239 3.64272e-23)
(-0.993834 -0.635694 -4.88651e-21)
(-0.929175 -0.619042 0)
(-0.00616689 0.0228715 2.83485e-21)
(0.0161298 0.00752965 -2.8998e-21)
(-0.081041 -0.0901547 -6.00849e-21)
(-0.777369 0.430474 2.85429e-21)
(-1.47753 -0.560588 -6.67022e-22)
(-0.488809 0.214443 0)
(-1.06276 -0.477104 0)
(-0.144214 -0.153113 -6.29038e-21)
(-0.746673 0.0560462 -1.2092e-21)
(-1.15277 -0.820992 0)
(-0.0101663 0.0482864 0)
(-0.727048 0.289112 -2.79787e-21)
(-1.3302 -0.656327 0)
(0.0106251 -0.048443 2.78334e-21)
(-0.26939 -0.106601 1.89329e-21)
(-0.355447 -0.174693 2.75786e-21)
(-0.272102 -0.147875 -9.5215e-22)
(-0.638966 0.0311307 -4.38103e-21)
(-1.03625 -0.709694 0)
(-0.00476757 0.0401678 -4.74056e-21)
(-0.501217 0.234704 0)
(-1.08974 -0.470351 3.00278e-21)
(-0.162875 -0.168264 -3.92895e-21)
(-0.452692 0.110704 0)
(-0.49467 0.132556 9.31102e-22)
(-0.239866 0.15796 1.37625e-21)
(-0.591578 -0.466236 1.01472e-20)
(-0.76735 -0.205009 -9.76719e-21)
(-0.658397 0.0627414 -4.5197e-21)
(-1.089 -0.734215 3.73192e-21)
(0.01834 0.0275807 4.32582e-21)
(-0.761047 0.298415 0)
(0.028358 -0.0355593 -9.91717e-21)
(-1.36408 -0.684298 -1.22044e-21)
(-0.157517 0.0939068 -9.92425e-21)
(-0.5987 -0.451537 0)
(-0.635349 -0.164348 3.32075e-21)
(-0.0890883 0.0920874 -5.57458e-21)
(-0.696274 -0.0376582 -3.35206e-21)
(-0.970311 -0.725891 0)
(-0.623479 0.305827 -2.76152e-21)
(-1.26172 -0.5274 -2.25851e-21)
(-0.119877 -0.134685 1.73852e-21)
(-0.208103 0.149673 4.93795e-22)
(-0.685636 -0.534048 0)
(-0.744708 -0.163349 6.93757e-21)
(-0.664095 0.330902 0)
(-0.692122 0.333761 0)
(-1.31655 -0.551186 -1.21187e-21)
(-0.102083 -0.120344 -4.55754e-21)
(-1.3398 -0.585215 1.71453e-21)
(-0.0671787 -0.0939369 4.81661e-21)
(0.0767972 0.00161899 -3.68144e-21)
(-1.42369 -0.793056 0)
(-0.939404 0.332908 -2.64161e-21)
(-0.593177 0.259649 3.25139e-21)
(-1.20046 -0.549457 0)
(-0.0815984 -0.110971 1.61968e-21)
(-1.12335 -0.606738 -7.78715e-21)
(0.0346967 0.0206952 5.27406e-21)
(-0.813613 0.391529 9.0344e-22)
(-0.440881 -0.0941655 -3.4572e-21)
(-0.0852156 -0.00253549 0)
(-0.591997 -0.384472 0)
(-0.553897 0.109758 6.3507e-21)
(-1.05353 -0.615571 0)
(0.0236628 -0.0234947 9.39307e-21)
(0.0696688 -0.00885992 -3.07097e-21)
(-0.852767 0.291912 8.22608e-21)
(-1.39943 -0.764642 1.23406e-21)
(-0.846285 -0.647792 0)
(-0.707913 -0.098937 2.99225e-21)
(-0.14423 0.12279 -6.93542e-21)
(-1.25567 -0.892577 -5.05791e-21)
(-0.839622 0.101156 -2.70947e-21)
(0.0114889 0.0335203 0)
(-0.86513 -0.473447 -7.25356e-21)
(-0.053138 -0.0722473 0)
(-0.580629 0.166104 6.66886e-21)
(-1.11248 -0.60605 2.12273e-21)
(0.00753081 -0.052217 2.8362e-21)
(-0.85267 -0.490319 4.14716e-21)
(-0.035813 -0.0560307 -2.41598e-23)
(-0.840301 0.417381 -1.86194e-22)
(-0.00366946 -0.030859 3.56716e-21)
(-1.48805 -0.637483 1.28449e-22)
(-0.743858 -0.617897 0)
(-0.848264 -0.172004 6.69578e-22)
(-0.26908 0.1994 0)
(-0.620925 0.188827 -6.7923e-21)
(-1.17801 -0.635333 -2.58543e-21)
(0.0220405 -0.0422784 -3.38248e-21)
(-0.488734 0.0200923 0)
(-0.86803 -0.55063 -4.00053e-21)
(-0.00978834 -0.00436199 0)
(-0.614885 -0.0953316 0)
(-0.75878 -0.559071 0)
(-0.104688 0.0829211 0)
(-0.307113 0.0401785 -2.62543e-21)
(-0.700483 -0.360806 -4.19862e-21)
(-0.146577 -0.129489 -9.11801e-24)
(-0.119006 0.110984 6.9102e-21)
(-0.710152 -0.0657109 8.12752e-21)
(-0.923553 -0.699687 3.73102e-21)
(-0.912177 0.273875 -3.23033e-21)
(-1.39777 -0.816141 7.13256e-22)
(0.0811046 -0.000752728 -4.55609e-21)
(-1.26595 -0.873063 3.5411e-21)
(-0.82549 0.116852 2.74566e-21)
(0.0293155 0.0264639 3.49645e-21)
(-0.482729 0.304882 -5.43162e-21)
(-0.392012 -0.344393 5.00808e-21)
(-1.12308 -0.348819 -3.54839e-21)
(-0.720883 0.384838 1.56637e-21)
(-0.686108 0.363036 -1.45822e-21)
(-1.35732 -0.535172 -3.85099e-22)
(-1.3995 -0.550686 0)
(-0.105702 -0.115883 -1.6271e-21)
(-0.125104 -0.134685 -1.47356e-21)
(0.0383582 0.0247772 -7.14491e-21)
(-1.17727 -0.604896 8.57965e-21)
(-0.826253 0.398332 7.38939e-22)
(-0.846509 0.437541 -7.5409e-23)
(0.0387804 0.03061 8.31275e-21)
(-1.34099 -0.607036 0)
(-0.603557 0.0731484 -1.01568e-20)
(-1.06159 -0.671741 -1.00188e-21)
(0.0250114 0.00906265 0)
(0.0743661 -0.00133405 -9.25136e-21)
(-0.910586 0.322199 2.62765e-21)
(-1.431 -0.781157 0)
(-0.564568 0.318119 8.02987e-21)
(-0.602046 0.330707 -5.9619e-21)
(-1.21042 -0.447424 2.61856e-21)
(-1.25462 -0.476384 9.33468e-22)
(-0.239518 -0.223723 -2.92548e-21)
(-0.194378 -0.187747 -1.46495e-21)
(0.0716494 -0.00551334 0)
(-1.35685 -0.876767 0)
(-1.01459 0.251905 8.77579e-22)
(-0.783031 0.429463 -1.11477e-21)
(0.034137 0.0343853 0)
(-1.24072 -0.560446 0)
(-0.418143 -0.171762 3.28839e-23)
(-0.184092 -0.0419745 4.06518e-21)
(-0.34738 -0.226645 1.95036e-21)
(-0.860866 0.409777 -1.53679e-21)
(-1.26651 -0.641917 -2.96045e-21)
(0.0439598 0.0250495 3.9134e-22)
(-0.381222 0.207068 0)
(-0.941705 -0.342338 -5.41443e-21)
(-0.34565 -0.298023 -7.43785e-23)
(-0.964824 0.307457 9.83066e-23)
(-1.40589 -0.82661 -3.98285e-22)
(0.0809434 0.000841998 6.13105e-24)
(-0.99048 -0.60242 -2.1927e-22)
(0.0296773 0.00742699 -3.06812e-21)
(-0.800332 0.326986 1.13387e-23)
(-0.17474 0.0818995 -3.65979e-21)
(-0.476636 -0.355337 3.23212e-21)
(-0.623678 -0.201709 1.06531e-20)
(-0.370982 -0.0778081 0)
(-0.560067 -0.339753 -9.69295e-21)
(-0.105812 -0.0468901 4.86455e-21)
(-0.911215 0.419855 0)
(0.0510002 0.0148744 4.19473e-21)
(-1.43613 -0.700056 -1.57046e-22)
(-0.392579 -0.0665362 0)
(-0.598834 -0.367579 -3.2519e-21)
(-0.0839559 -0.0276972 -6.91912e-21)
(-0.38461 -0.162282 4.18003e-21)
(-0.202127 -0.0655683 -2.14736e-21)
(-0.334721 -0.206563 1.04814e-21)
(-0.182941 0.14987 3.32787e-21)
(-0.773747 -0.103246 -2.79596e-21)
(-0.89478 -0.714379 4.1279e-21)
(-0.469102 -0.144267 0)
(-0.48302 -0.320403 0)
(-0.121763 0.00824521 5.88718e-22)
(-0.470098 -0.11468 5.47054e-21)
(-0.554309 -0.362374 2.48599e-21)
(-0.102668 0.0125338 8.26376e-23)
(-0.443327 0.283818 8.25358e-21)
(-1.06136 -0.318791 -3.96385e-21)
(-0.446039 -0.391094 -5.00404e-21)
(0.0477344 0.000536483 6.34149e-21)
(0.0570213 0.00281099 -6.49476e-21)
(-1.46859 -0.714381 -5.05721e-22)
(-1.45685 -0.730502 -2.33711e-22)
(-0.899381 0.401236 0)
(-0.912849 0.388726 -2.07552e-21)
(-0.939217 0.280868 4.02215e-21)
(-1.40268 -0.828224 -6.02569e-23)
(0.0817498 -0.000182321 5.65454e-21)
(-0.376027 -0.341414 -3.23424e-21)
(-0.522736 0.335654 1.71376e-21)
(-1.17817 -0.362461 4.5214e-21)
(-0.244685 0.144999 -3.51272e-21)
(-0.505258 -0.397063 -3.24162e-21)
(-0.757755 -0.234318 3.25129e-21)
(-0.745743 -0.000461914 0)
(-1.08419 -0.805858 2.41507e-21)
(-0.0683206 0.0793337 1.03459e-22)
(-1.12385 -0.706391 -2.17424e-21)
(0.0495419 -0.00503487 -2.86875e-21)
(-0.94415 0.319933 -4.03006e-22)
(0.0596814 0.00420378 0)
(-0.95989 0.200731 0)
(-1.35305 -0.910714 2.48418e-22)
(-0.937856 0.393548 1.45986e-21)
(0.0606049 0.0144044 0)
(-1.37852 -0.724222 1.70848e-21)
(0.0232003 0.0107684 -1.14378e-32)
(-0.922017 -0.558447 4.28106e-21)
(-0.73645 0.317563 -1.23823e-22)
(-0.954186 -0.497421 -4.83344e-21)
(0.022301 0.0215282 1.14108e-32)
(-0.694398 0.364791 9.54947e-23)
(-1.19347 -0.749194 -4.73161e-21)
(-0.700083 0.131658 0)
(0.0496855 0.00659997 -9.03238e-21)
(-1.29235 -0.825436 8.15114e-22)
(0.0674832 -0.0105036 -2.94814e-21)
(-1.03485 0.287419 0)
(-0.785069 0.252933 -4.21668e-21)
(-1.33866 -0.745326 1.89664e-21)
(0.062287 -0.0152079 4.60006e-21)
(-0.856917 0.46324 5.35395e-21)
(0.00591076 -0.00250775 2.49903e-21)
(-1.50438 -0.607294 0)
(-0.373374 0.0631886 2.05955e-21)
(-0.0803607 -0.0902015 -1.85056e-21)
(-0.828178 -0.440823 1.78883e-21)
(-1.36212 -0.892012 1.94341e-23)
(0.0696581 -0.00327691 3.13994e-21)
(-1.00114 0.236412 1.13622e-21)
(-0.736837 -0.0217653 -3.27361e-21)
(-0.0896503 0.0931666 -1.86759e-21)
(-1.03981 -0.778915 0)
(-1.1728 -0.815287 0)
(-0.742772 0.0792948 0)
(0.0128543 0.0365648 0)
(0.0061788 0.010393 0)
(-0.534734 -0.287806 4.90499e-21)
(-0.419012 0.198872 -7.23376e-22)
(-1.11967 -0.636593 -3.19242e-21)
(0.037762 0.0144789 -3.6962e-21)
(-0.84411 0.374069 -6.15401e-22)
(-0.343206 0.0377994 -5.2962e-21)
(-0.100178 -0.0975519 4.51683e-21)
(-0.74932 -0.404852 2.14317e-21)
(-1.37519 -0.843534 -1.47835e-21)
(-0.999959 0.288391 -1.68917e-21)
(0.0776096 -0.0029006 0)
(0.0686659 -0.00893565 -3.26984e-21)
(-1.03485 0.255541 0)
(-1.33051 -0.875495 1.01656e-21)
(-0.894149 0.346725 -2.39471e-21)
(0.0631929 -0.00358865 9.82835e-21)
(-1.445 -0.749805 0)
(-0.0397337 -0.0606343 -7.24744e-21)
(-1.46637 -0.606403 8.25881e-22)
(-0.795983 0.40906 0)
(-0.426225 0.287864 -1.03569e-20)
(-1.04426 -0.29673 5.04959e-21)
(-0.510704 -0.444739 -1.57488e-21)
(-1.32314 -0.502047 5.73827e-22)
(-0.651018 0.362833 3.47782e-21)
(-0.176715 -0.174411 -4.516e-21)
(-0.0385945 -0.0509859 -6.47949e-21)
(-0.819605 0.447233 0)
(-1.51009 -0.592292 0)
(-0.407368 0.197409 -1.78147e-21)
(-0.458217 0.224343 0)
(-0.964603 -0.39148 -5.56965e-21)
(-1.04129 -0.426457 5.96093e-21)
(-0.250395 -0.221857 8.23516e-22)
(-0.220957 -0.207539 -8.77294e-22)
(-0.372032 0.190518 1.7102e-21)
(-0.922666 -0.355231 0)
(-0.307437 -0.264333 1.5381e-21)
(-0.554286 0.328601 0)
(-1.20511 -0.426689 -4.2474e-21)
(-0.277188 -0.254979 1.05615e-21)
(-1.23538 -0.845499 -1.93578e-21)
(-0.791187 0.106395 2.97348e-21)
(0.0293718 0.0264776 -7.11498e-21)
(-1.38837 -0.860805 0)
(-0.954173 0.267617 5.99581e-21)
(0.079699 -0.000305084 0)
(0.056138 0.0121776 -2.30483e-21)
(-0.814657 0.155103 -1.80062e-21)
(-1.28894 -0.840918 -1.18508e-21)
(-1.02399 -0.512182 7.08285e-22)
(0.0261648 0.0256972 1.96566e-21)
(-0.726345 0.383971 0)
(-0.233671 0.0933467 3.43533e-21)
(-0.243949 0.0820258 0)
(-0.348814 -0.270921 0)
(-0.691351 -0.269314 1.24614e-20)
(-0.305489 -0.240377 0)
(-0.689627 -0.290271 -7.98839e-21)
(-0.479524 0.283388 0)
(-0.426016 0.252137 0)
(-0.368242 -0.319809 3.46803e-23)
(-1.09878 -0.382385 3.13535e-21)
(-0.328864 -0.287253 7.72859e-21)
(-1.02459 -0.349414 -6.89501e-21)
(-0.975891 -0.626959 0)
(0.0335594 -0.000349419 4.19531e-21)
(-0.841379 0.312693 0)
(-1.38402 -0.838033 3.78574e-22)
(-0.984643 0.287417 5.88629e-22)
(0.0796389 -0.000880098 1.97962e-21)
(-0.283704 0.182025 -5.90446e-21)
(-0.566958 -0.460046 -3.56037e-21)
(-0.825876 -0.231976 1.00445e-20)
(-1.17893 -0.856217 4.48866e-21)
(-0.78606 0.0496924 7.58014e-21)
(-0.0245224 0.0563577 0)
(-0.0599188 -0.0782667 7.75085e-21)
(-1.45104 -0.590235 -8.78017e-22)
(-0.776115 0.405706 3.68415e-21)
(-1.24896 -0.702055 0)
(-0.93216 0.375489 0)
(0.0529438 0.011456 0)
(-1.27785 -0.735668 0)
(-0.960335 0.36111 1.12775e-21)
(0.0602298 0.00563121 7.085e-22)
(-0.59596 0.30997 -3.3925e-21)
(-1.23526 -0.498292 1.38692e-21)
(-0.164352 -0.166399 2.16575e-21)
(-0.132149 0.0771641 -9.51254e-22)
(-0.609358 -0.442084 0)
(-0.59438 -0.142506 -5.03363e-23)
(-0.913108 0.363829 2.79023e-21)
(0.0630733 0.000493915 5.68446e-21)
(-1.45456 -0.747333 2.72364e-22)
(-1.21798 -0.783018 0)
(-0.734359 0.135927 0)
(0.050987 0.0131653 7.79551e-21)
(0.0292455 -0.0303925 1.89726e-21)
(-1.40363 -0.692965 1.904e-21)
(-0.799712 0.331262 8.41388e-21)
(-0.398173 0.241953 0)
(-0.417795 -0.357922 -5.25105e-21)
(-0.985385 -0.324309 3.65424e-21)
(-0.591396 -0.0285513 3.48565e-23)
(-0.886289 -0.616495 2.88144e-21)
(-0.0443035 0.053097 0)
(-0.206833 0.115523 2.4327e-23)
(-0.511807 -0.396031 -1.09541e-21)
(-0.693284 -0.21498 -4.25765e-21)
(0.0712411 0.00342017 7.9218e-24)
(-1.43598 -0.772233 -9.95301e-22)
(-0.937677 0.35432 2.79471e-21)
(-0.727643 0.316443 -1.5869e-21)
(-1.35272 -0.63561 -8.49596e-22)
(-0.0139688 -0.0607153 0)
(-0.183598 0.072395 -3.72567e-21)
(-0.424795 -0.315412 7.09238e-21)
(-0.620132 -0.219227 -7.02764e-21)
(-0.834747 0.460631 2.227e-21)
(-0.0250286 -0.0341965 2.84465e-21)
(-1.52124 -0.593693 5.83783e-22)
(-0.335713 0.142059 -2.19656e-21)
(-0.844702 -0.360106 0)
(-0.249983 -0.220593 0)
(-0.431293 -0.0237363 -9.6238e-21)
(-0.72966 -0.454993 1.95725e-21)
(-0.043622 -0.0142668 0)
(-1.15683 -0.777283 0)
(-0.707652 0.0820034 6.45889e-21)
(0.0248714 0.0297383 0)
(-0.859517 0.450589 -9.78874e-22)
(0.032408 0.0236496 -8.84057e-22)
(-1.42893 -0.619082 -2.82627e-21)
(-0.85249 0.460387 2.73866e-21)
(0.0237511 0.0190849 0)
(-1.45545 -0.605344 1.83062e-21)
(0.0145595 -0.0362408 1.6875e-21)
(-1.42048 -0.673712 -7.48509e-22)
(-0.800606 0.350257 -7.73055e-21)
(-0.631894 -0.0477956 -2.96845e-21)
(-0.910032 -0.655203 -2.95231e-21)
(-0.0703185 0.0706378 0)
(0.0327248 0.031212 8.0987e-22)
(-1.37297 -0.594631 2.63331e-21)
(-0.828346 0.447127 0)
(0.0704862 -0.00895394 0)
(-1.37032 -0.769821 -9.18144e-22)
(-0.829362 0.265548 -9.71681e-22)
(0.0165979 0.00624683 3.37126e-21)
(-0.777546 -0.508548 -4.27293e-21)
(-0.66126 0.265994 0)
(-0.587052 0.339714 -1.26881e-22)
(-0.841964 -0.410584 0)
(0.0164931 0.0224512 3.36116e-21)
(-0.028771 -0.0467945 -1.25619e-23)
(-1.49342 -0.613032 0)
(-0.819998 0.430425 0)
(0.0717444 0.00688383 0)
(-1.39932 -0.772291 0)
(-0.966564 0.360294 3.28365e-21)
(-0.879552 0.394673 -2.52682e-21)
(-0.859944 0.377595 2.04422e-21)
(0.0366892 -0.00923644 -3.18695e-21)
(-1.47865 -0.694123 9.60737e-23)
(0.0357538 -0.0152738 -5.22335e-21)
(-1.46328 -0.697993 1.09039e-22)
(-0.831938 0.244555 1.92546e-21)
(-1.35763 -0.789791 7.35662e-22)
(0.0745939 -0.00520728 0)
(-0.0620158 0.077501 0)
(-1.13045 -0.848604 0)
(-0.781486 0.0166411 0)
(-0.242415 0.0451486 0)
(-0.253339 -0.197396 -1.00201e-20)
(-0.637211 -0.291483 4.34075e-21)
(-0.802855 0.188752 5.66068e-21)
(-1.30318 -0.809542 3.80769e-22)
(0.0695188 0.00283813 6.76131e-21)
(0.0612321 0.00855399 4.3988e-21)
(-0.788992 0.165593 -7.87248e-21)
(-1.27578 -0.814817 -5.27485e-22)
(-0.796888 0.452339 2.76806e-21)
(-0.0699092 -0.076698 3.09389e-21)
(-1.50576 -0.562999 6.95828e-22)
(-0.49977 0.301139 0)
(-1.13375 -0.385162 1.27476e-21)
(-0.33251 -0.295504 -7.57622e-21)
(-0.421484 0.232654 0)
(-0.998925 -0.363665 7.10762e-21)
(-0.329023 -0.289648 -2.01126e-23)
(-0.692288 0.169745 -7.69877e-21)
(-1.21992 -0.725383 6.01762e-22)
(0.0557646 -0.0109857 -3.95003e-21)
(-0.716649 0.164431 0)
(-1.23097 -0.748176 5.7939e-22)
(0.0590436 -0.00332656 3.60503e-21)
(-0.164629 0.0478919 0)
(-0.424392 -0.305282 -1.11861e-20)
(-0.564379 -0.200713 3.94211e-21)
(-0.475943 0.242256 0)
(-1.0665 -0.425125 0)
(-0.231529 -0.220342 1.17883e-21)
(0.0617186 -0.00195622 -6.79502e-21)
(-1.34698 -0.908482 -3.7728e-22)
(-1.00235 0.216482 0)
(-0.982262 0.340975 1.07797e-21)
(0.0603804 -0.000832008 0)
(-1.23698 -0.749556 -1.42925e-21)
(-0.979363 0.32187 -2.23758e-22)
(0.0561656 -0.00549337 0)
(-1.19048 -0.740826 4.36592e-21)
(-0.288866 0.151813 2.53191e-21)
(-0.393504 -0.315553 -1.15965e-21)
(-0.804523 -0.291165 -1.68007e-22)
(-1.16739 -0.670921 2.73786e-22)
(0.0462696 0.00899469 5.66419e-21)
(-0.907694 0.363622 0)
(-0.766687 0.346325 6.72902e-21)
(-0.00929381 -0.0522686 3.58875e-21)
(-1.39794 -0.644929 0)
(0.0441459 0.0008378 -8.43041e-22)
(-1.10692 -0.682725 3.18126e-21)
(-0.907636 0.333301 0)
(-0.322183 -0.0441407 6.52831e-21)
(-0.128756 -0.0810426 6.21462e-21)
(-0.567092 -0.32032 1.29102e-23)
(-0.519304 0.163 -1.16168e-21)
(-1.06367 -0.54938 -8.44187e-22)
(-0.0356435 -0.0806945 -4.15653e-21)
(-0.839294 -0.619623 6.76714e-21)
(-0.642762 -0.077946 6.99757e-21)
(-0.102061 0.087734 0)
(0.0710788 -0.00793415 0)
(-1.32281 -0.839039 8.07088e-22)
(-1.02893 0.285084 0)
(-1.1992 -0.796111 0)
(-0.736768 0.115682 0)
(0.0409373 0.0205156 0)
(-0.00208422 -0.0162153 0)
(-0.854103 0.45382 -1.9105e-21)
(-1.51369 -0.615318 -5.73595e-22)
(-0.568485 0.184361 0)
(-1.11888 -0.585856 4.53165e-22)
(-0.0137028 -0.0673281 4.05967e-21)
(-0.233996 0.0243467 0)
(-0.250183 -0.189597 8.61936e-21)
(-0.594369 -0.276525 0)
(-1.35784 -0.830293 1.39652e-21)
(-1.00653 0.30769 1.60535e-21)
(0.0755553 -0.00328037 0)
(0.0591007 -0.0147027 -3.92806e-21)
(-1.39769 -0.74342 5.43007e-23)
(-0.83108 0.306162 2.05051e-22)
(-0.895015 0.42872 0)
(-0.888544 0.42881 1.52786e-21)
(0.0453815 0.0215665 -2.06194e-21)
(0.0462235 0.024235 -2.52145e-21)
(-1.41125 -0.660652 1.46525e-21)
(-1.37914 -0.658611 -1.20541e-21)
(-0.530357 0.0573346 0)
(-0.963895 -0.604527 1.14251e-20)
(0.0112653 -0.00596992 4.53201e-21)
(-1.13818 -0.715237 6.6859e-21)
(-0.658615 0.106564 0)
(0.0418252 0.0081226 -4.84441e-21)
(-0.374498 -0.000650595 -5.41144e-21)
(-0.715042 -0.417252 3.35561e-21)
(-0.063331 -0.0541295 7.44179e-21)
(-1.28669 -0.787776 -2.28084e-21)
(-1.00514 0.326499 1.41332e-21)
(-1.2702 -0.800558 1.23746e-21)
(0.0663746 -0.00314236 0)
(-1.01968 0.306678 -1.36411e-21)
(0.0651381 -0.00771806 0)
(-0.671835 0.23019 0)
(-1.24434 -0.660825 0)
(0.0233327 -0.0423212 4.4175e-21)
(-0.997146 0.325218 2.46723e-21)
(-0.998902 0.333317 -4.45252e-21)
(-1.36259 -0.807382 -1.51012e-21)
(-1.33157 -0.787947 3.08092e-21)
(0.0740659 0.000160162 5.77476e-21)
(0.0700535 0.000692287 -1.2502e-23)
(-0.636476 0.0846503 0)
(-1.09411 -0.709787 -6.61159e-21)
(0.0275442 0.0179064 6.28087e-21)
(-0.470013 0.086901 5.14313e-21)
(-0.993835 -0.554774 -5.2164e-21)
(-0.0073981 -0.0525443 0)
(-0.866664 0.456315 0)
(0.020169 0.0077439 0)
(-1.48586 -0.626378 -1.75909e-21)
(-0.52654 0.0820528 3.82009e-21)
(-0.989838 -0.594613 -3.17342e-21)
(0.0161421 -0.017994 -7.44151e-21)
(-0.401532 0.0272755 2.19263e-21)
(-0.798238 -0.468137 -3.9421e-21)
(-0.0407041 -0.0495033 4.24478e-21)
(-0.879257 0.438865 0)
(0.0382062 0.0205063 0)
(-1.43942 -0.64838 2.32365e-21)
(-0.582608 0.210281 0)
(-1.16192 -0.577693 8.11478e-22)
(-0.0265477 -0.0777307 -4.37181e-21)
(-1.01843 -0.783837 0)
(-0.760968 -0.0443883 0)
(-0.122461 0.113011 -2.3988e-22)
(-0.402705 0.25415 -2.68119e-22)
(-0.99616 -0.309084 0)
(-0.451567 -0.388543 8.02047e-21)
(-1.29341 -0.920192 1.83349e-21)
(0.0190544 0.0253764 0)
(-0.888551 0.123829 0)
(0.0120997 0.0131587 -8.09378e-21)
(-0.720459 -0.397859 -6.86184e-21)
(-0.55686 0.266769 1.01232e-21)
(-0.542753 0.130313 0)
(-1.04875 -0.588898 3.17941e-21)
(0.00875177 -0.043405 -3.74295e-21)
(-0.883165 0.429667 3.78414e-21)
(0.0302137 0.00110266 1.07074e-20)
(-1.489 -0.662324 0)
(-0.627878 -0.531055 -2.05681e-21)
(-0.942031 -0.23694 -3.56872e-21)
(-0.346825 0.241919 -2.29795e-21)
(-0.700481 0.398095 0)
(0.0274068 0.0320344 -2.96153e-21)
(-1.0798 -0.503751 0)
(-0.0822042 0.0368505 4.65466e-21)
(-0.09321 0.0558854 -4.74987e-21)
(-0.643143 -0.445001 0)
(-0.51272 -0.0990999 4.5575e-21)
(-0.678535 -0.479824 -7.08865e-21)
(-0.553824 -0.10751 -3.6393e-21)
(-0.392598 -0.0297977 5.10362e-21)
(-0.673145 -0.406236 4.57555e-21)
(-0.0641917 -0.0344964 0)
(-0.141906 0.068164 4.21227e-21)
(-0.110936 0.045551 0)
(-0.536144 -0.389253 -4.03364e-21)
(-0.583994 -0.167762 4.06661e-21)
(-0.56157 -0.393646 4.0655e-21)
(-0.531702 -0.13573 2.60141e-23)
(-0.505678 0.116304 3.22017e-22)
(-0.93143 -0.536209 -2.35035e-21)
(-0.0111911 -0.0439958 -5.17756e-21)
(-0.480161 0.0701982 -8.89057e-21)
(-0.933209 -0.549305 6.03123e-23)
(-0.00317518 -0.0309604 0)
(0.0586702 -0.0104281 0)
(-1.20185 -0.772901 0)
(-1.00889 0.304063 9.37424e-22)
(-0.326721 0.16344 -2.3375e-21)
(-0.852077 -0.32482 0)
(-0.330343 -0.274799 2.13723e-21)
(-0.976925 0.33621 -5.37386e-21)
(-1.39514 -0.800668 -1.09708e-21)
(0.0759041 0.00359251 -3.29229e-21)
(-0.715927 0.203088 0)
(-0.757842 0.223073 4.05966e-21)
(-1.26298 -0.721458 -7.50858e-22)
(-1.30415 -0.743589 1.86441e-21)
(0.0573874 -0.0161246 -4.8492e-21)
(0.0638507 -0.0129907 -4.4393e-21)
(-0.309516 0.139997 0)
(-0.816375 -0.329867 0)
(-0.299302 -0.252667 1.04053e-21)
(-0.530333 0.29003 2.67044e-21)
(-1.15355 -0.436898 0)
(-0.242568 -0.224443 2.51777e-21)
(-0.637237 0.179767 -2.18245e-21)
(-1.17998 -0.666508 0)
(0.0375701 -0.0293908 0)
(-0.202902 -0.0237061 4.94972e-21)
(-0.475439 -0.214607 -2.36991e-21)
(-0.295051 -0.204168 2.3552e-21)
(-0.770514 0.193897 0)
(-1.28917 -0.779094 0)
(0.0681101 -0.00241822 -7.1937e-21)
(-0.216544 0.0521526 0)
(-0.31209 -0.236265 1.24201e-21)
(-0.621187 -0.26332 0)
(-0.625182 0.105707 -5.01144e-21)
(-1.10372 -0.691862 -3.74425e-21)
(0.0363523 -0.000611943 -6.31525e-22)
(-0.522733 0.269543 2.75179e-21)
(-1.13517 -0.452711 0)
(-0.206882 -0.201845 5.18838e-21)
(-0.197998 0.00263106 -4.90393e-21)
(-0.176335 0.00860013 -2.16124e-21)
(-0.520319 -0.230123 2.3621e-21)
(-0.305803 -0.219597 -4.68771e-21)
(-0.512639 -0.21105 0)
(-0.354497 -0.252217 -8.27827e-21)
(-0.136393 0.0309339 -2.13008e-21)
(-0.465687 -0.329151 5.20619e-21)
(-0.115903 0.0327528 1.36823e-21)
(-0.519379 -0.167898 -5.53759e-21)
(-0.54298 -0.376644 -2.57013e-21)
(-0.513636 -0.141759 1.23355e-22)
(-0.390358 0.174796 2.60034e-21)
(-0.430982 0.184536 0)
(-0.93174 -0.397267 4.27684e-21)
(-0.980509 -0.435243 -3.34247e-21)
(-0.220789 -0.201249 -4.80648e-21)
(-0.17058 -0.166603 7.98506e-21)
(-0.0206204 -0.0517953 0)
(-1.44729 -0.630968 -3.73759e-22)
(-0.795314 0.387134 -3.81711e-21)
(-0.141192 0.124705 2.93545e-21)
(-0.747592 -0.0714503 4.40794e-21)
(-0.950522 -0.736361 -6.50081e-21)
(0.000294762 -0.0348677 -3.63973e-21)
(0.0173799 -0.0281032 2.91555e-21)
(-1.46486 -0.655026 3.2379e-22)
(-1.45179 -0.675456 6.85178e-22)
(-0.824813 0.396324 9.67533e-21)
(-0.831567 0.377452 -5.01513e-21)
(-0.233111 0.168821 4.26948e-21)
(-0.702263 -0.556781 -3.34887e-21)
(-0.78344 -0.172804 9.87552e-22)
(-0.243858 -0.0756689 8.40252e-21)
(-0.266654 -0.160418 0)
(-0.404274 -0.19601 -8.20625e-21)
(-0.787935 0.220027 -1.90993e-21)
(-1.31715 -0.774515 -2.10537e-21)
(0.0702116 -0.00609703 0)
(-0.263203 0.114666 0)
(-0.342294 -0.280248 -9.90674e-22)
(-0.742234 -0.287528 -3.9842e-21)
(-0.550526 0.27814 0)
(-1.16963 -0.476891 0)