/*--------------------------------*- C++ -*----------------------------------*\
  =========                 |
  \\      /  F ield         | OpenFOAM: The Open Source CFD Toolbox
   \\    /   O peration     | Website:  https://openfoam.org
    \\  /    A nd           | Version:  6
     \\/     M anipulation  |
\*---------------------------------------------------------------------------*/
FoamFile
{
    version     2.0;
    format      ascii;
    class       volScalarField;
    location    "100";
    object      p;
}
// * * * * * * * * * * * * * * * * * * * * * * * * * * * * * * * * * * * * * //

dimensions      [0 2 -2 0 0 0 0];

internalField   nonuniform List<scalar> 
103000
(
-1.89755
-3.03568
-3.25682
-2.94282
-2.55527
-2.22177
-1.94166
-1.69991
-1.48479
-1.28712
-1.10164
-0.926293
-0.760853
-0.60602
-0.462876
-0.332613
-0.215946
-0.112581
-0.0219348
0.0563077
0.122645
0.177916
0.223182
0.259618
0.288428
0.310784
0.32778
0.340406
0.349529
0.355892
0.360113
0.362699
0.364053
0.364492
0.364256
0.363527
0.362437
0.361083
0.35953
0.357825
0.355999
0.354072
0.352057
0.349964
0.347799
0.345564
0.343265
0.340902
0.338479
0.335998
0.33346
0.330868
0.328223
0.325527
0.32278
0.319981
0.317127
0.314213
0.311227
0.308135
0.304829
0.301079
0.29694
0.293103
0.290093
0.287838
0.286354
0.285756
0.285296
0.283667
0.280754
0.277289
0.273675
0.270077
0.26655
0.263108
0.259742
0.256439
0.253183
0.249961
0.24676
0.243572
0.240387
0.237201
0.234007
0.230803
0.227585
0.224351
0.2211
0.217829
0.214538
0.211225
0.207889
0.20453
0.201147
0.197739
0.194305
0.190845
0.187358
0.183843
0.1803
0.176728
0.173127
0.169495
0.165833
0.16214
0.158414
0.154657
0.150867
0.147043
0.143186
0.139296
0.135371
0.131411
0.127417
0.123388
0.119324
0.115224
0.11109
0.10692
0.102715
0.098475
0.0942002
0.0898909
0.0855473
0.0811695
0.0767581
0.0723132
0.0678353
0.0633246
0.0587814
0.0542058
0.0495978
0.0449574
0.040284
0.0355769
0.0308351
0.0260566
0.0212393
0.0163796
0.0114735
0.00651508
0.00149728
-0.00358914
-0.00875556
-0.0140162
-0.0193884
-0.0248931
-0.0305558
-0.0364063
-0.0424802
-0.0488185
-0.0554683
-0.0624833
-0.0699229
-0.0778523
-0.0863412
-0.0954624
-0.105289
-0.115891
-0.127331
-0.139658
-0.152895
-0.167025
-0.181959
-0.197472
-0.213065
-0.227754
-0.240448
-0.251184
-0.260606
-0.268209
-0.2726
-0.272408
-0.266304
-0.252913
-0.230852
-0.198212
-0.152243
-0.0902249
-0.00972369
0.0919621
0.217867
0.371356
0.556141
0.776393
1.03686
1.34312
1.702
2.12228
2.61606
3.20142
3.90856
4.79408
5.96301
7.58305
10.0136
14.7365
25.0592
33.6596
1.70389
2.10248
1.96863
1.64723
1.36361
1.1607
1.02009
0.919488
0.84349
0.782183
0.730188
0.684837
0.644831
0.609544
0.578679
0.552149
0.529773
0.510922
0.49502
0.481841
0.471147
0.462587
0.455786
0.450368
0.445989
0.442347
0.439185
0.436296
0.433521
0.430743
0.427881
0.424886
0.421732
0.418413
0.414934
0.411311
0.407564
0.403715
0.399788
0.395804
0.391784
0.387743
0.383699
0.379662
0.375643
0.371649
0.367687
0.363761
0.359873
0.356027
0.352222
0.348459
0.344738
0.341057
0.337417
0.333815
0.330251
0.326725
0.323241
0.319811
0.316489
0.31343
0.310658
0.307796
0.304563
0.301047
0.297246
0.293016
0.288711
0.285072
0.282085
0.279266
0.276424
0.273509
0.270521
0.267474
0.264385
0.261265
0.258124
0.25497
0.251804
0.248631
0.24545
0.242264
0.23907
0.235869
0.232661
0.229443
0.226216
0.222978
0.219729
0.216467
0.213192
0.209903
0.206598
0.203279
0.199942
0.196589
0.193218
0.189829
0.186422
0.182996
0.179551
0.176086
0.172602
0.169099
0.165575
0.162033
0.158471
0.15489
0.151291
0.147673
0.144039
0.140388
0.136722
0.133042
0.129349
0.125645
0.121931
0.118211
0.114485
0.110757
0.107031
0.103308
0.0995931
0.0958903
0.0922042
0.0885399
0.0849033
0.0813004
0.0777386
0.0742254
0.0707695
0.0673803
0.0640685
0.0608454
0.0577241
0.0547186
0.0518449
0.0491201
0.0465638
0.0441973
0.0420448
0.0401326
0.0384908
0.0371523
0.0361549
0.0355401
0.0353552
0.0356531
0.0364938
0.0379445
0.0400816
0.0429908
0.0467692
0.0515258
0.0573836
0.0644799
0.0729694
0.0830239
0.0948358
0.108618
0.124608
0.143064
0.164269
0.188493
0.21593
0.246501
0.280041
0.317138
0.358857
0.405629
0.457528
0.514806
0.577859
0.64721
0.723608
0.807719
0.899935
1.00103
1.1123
1.2353
1.3719
1.52448
1.69601
1.89033
2.11231
2.36834
2.66673
3.01859
3.43873
3.94695
4.56898
5.33649
6.28011
7.39278
8.56698
9.669
10.4663
7.90372
1.52221
1.61008
1.44657
1.26105
1.097
0.964584
0.862211
0.783818
0.723135
0.674899
0.635461
0.602498
0.574552
0.550693
0.530318
0.513044
0.498543
0.486347
0.476038
0.467379
0.460169
0.454179
0.449181
0.444954
0.4413
0.438044
0.435038
0.432164
0.429328
0.426463
0.423521
0.420475
0.417309
0.41402
0.410613
0.407099
0.403493
0.399808
0.396062
0.392271
0.388449
0.384609
0.380762
0.376918
0.373085
0.369271
0.365478
0.361713
0.357976
0.354272
0.3506
0.346961
0.343355
0.339783
0.336243
0.332735
0.329259
0.325815
0.322404
0.319034
0.315732
0.312562
0.309532
0.306482
0.303279
0.299952
0.296514
0.292893
0.289196
0.285737
0.282574
0.27954
0.27654
0.273533
0.270501
0.267444
0.264364
0.261265
0.258152
0.255027
0.251892
0.248749
0.245599
0.242442
0.239277
0.236104
0.232923
0.229732
0.226531
0.223319
0.220095
0.216858
0.213608
0.210344
0.207065
0.203771
0.20046
0.197132
0.193788
0.190425
0.187045
0.183646
0.180229
0.176792
0.173337
0.169862
0.166369
0.162856
0.159325
0.155775
0.152208
0.148623
0.145022
0.141405
0.137773
0.134127
0.13047
0.126801
0.123124
0.11944
0.115752
0.112061
0.108372
0.104686
0.101009
0.0973434
0.0936941
0.0900662
0.086465
0.0828966
0.0793678
0.075886
0.0724593
0.0690969
0.0658085
0.0626053
0.0594993
0.056504
0.053634
0.0509058
0.0483372
0.0459484
0.0437614
0.0418008
0.0400938
0.0386708
0.0375657
0.036816
0.0364639
0.0365565
0.0371464
0.0382927
0.0400613
0.0425263
0.0457704
0.0498862
0.054977
0.0611582
0.0685578
0.0773182
0.0875966
0.0995667
0.113418
0.129355
0.147591
0.16833
0.191736
0.217889
0.246922
0.27932
0.315702
0.356389
0.401595
0.451678
0.507087
0.568362
0.636163
0.711158
0.793993
0.885596
0.98723
1.10038
1.22684
1.36879
1.52893
1.71056
1.91775
2.15551
2.43002
2.74878
3.12076
3.55606
4.06468
4.65324
5.31749
6.02234
6.66388
7.04733
6.82148
4.95546
1.32232
1.28104
1.16436
1.05094
0.945277
0.851417
0.772749
0.708997
0.658008
0.617214
0.584347
0.557617
0.535697
0.517614
0.502641
0.49024
0.479974
0.471428
0.464244
0.458173
0.45302
0.448598
0.44474
0.441299
0.438148
0.435182
0.432315
0.429477
0.426618
0.423701
0.420702
0.417609
0.414416
0.411124
0.407741
0.404275
0.400738
0.397142
0.3935
0.389822
0.386121
0.382406
0.378687
0.37497
0.371262
0.367569
0.363895
0.360242
0.356614
0.353012
0.349437
0.34589
0.342372
0.338882
0.33542
0.331986
0.32858
0.325201
0.321853
0.318537
0.315263
0.312045
0.308883
0.305726
0.302526
0.299289
0.296029
0.292724
0.289392
0.286123
0.282955
0.279853
0.276784
0.273728
0.270671
0.267606
0.264532
0.261449
0.258357
0.255257
0.252149
0.249035
0.245914
0.242785
0.239649
0.236505
0.233352
0.230189
0.227016
0.223832
0.220636
0.217428
0.214206
0.21097
0.20772
0.204455
0.201174
0.197876
0.194562
0.191231
0.187882
0.184516
0.181131
0.177728
0.174307
0.170868
0.16741
0.163934
0.160441
0.15693
0.153401
0.149857
0.146296
0.142721
0.139132
0.13553
0.131917
0.128294
0.124663
0.121026
0.117386
0.113744
0.110104
0.106469
0.102842
0.0992279
0.0956303
0.0920542
0.088505
0.0849886
0.0815114
0.0780807
0.0747043
0.0713909
0.0681502
0.0649925
0.0619296
0.0589741
0.0561402
0.0534432
0.0509003
0.0485303
0.0463539
0.044394
0.042676
0.041228
0.0400812
0.0392699
0.0388325
0.0388115
0.0392542
0.0402132
0.0417471
0.0439208
0.0468067
0.0504852
0.0550456
0.0605867
0.067218
0.07506
0.0842455
0.0949198
0.107241
0.121377
0.137506
0.155806
0.176448
0.199603
0.225492
0.25447
0.286928
0.323158
0.363452
0.408194
0.457826
0.512859
0.573882
0.641548
0.716577
0.799886
0.892622
0.996121
1.11196
1.24202
1.38853
1.55413
1.74188
1.95534
2.19845
2.47548
2.79053
3.14666
3.54407
3.97677
4.42698
4.8553
5.1879
5.31256
5.05135
3.96079
1.21318
1.16768
1.09531
1.01261
0.928401
0.849685
0.780403
0.721544
0.672469
0.631893
0.598414
0.570731
0.547755
0.528626
0.512658
0.499303
0.488112
0.478679
0.470659
0.463793
0.457877
0.452725
0.448172
0.444076
0.440317
0.436795
0.433426
0.430148
0.426907
0.423668
0.420403
0.417095
0.413735
0.410319
0.406847
0.403324
0.399755
0.396149
0.392513
0.388856
0.385185
0.381508
0.377831
0.374161
0.370503
0.36686
0.363236
0.359634
0.356055
0.352502
0.348975
0.345476
0.342003
0.338557
0.335139
0.331747
0.328382
0.325044
0.321734
0.318453
0.315204
0.31199
0.308806
0.305633
0.302448
0.299248
0.296039
0.292821
0.289604
0.286419
0.283283
0.280188
0.277119
0.274064
0.271014
0.267962
0.264907
0.261846
0.258779
0.255706
0.252626
0.249541
0.246448
0.243349
0.240242
0.237128
0.234004
0.230871
0.227728
0.224575
0.22141
0.218233
0.215043
0.21184
0.208623
0.205392
0.202146
0.198884
0.195606
0.192312
0.189001
0.185674
0.18233
0.178968
0.17559
0.172194
0.168781
0.165351
0.161905
0.158442
0.154964
0.151471
0.147964
0.144443
0.14091
0.137366
0.133812
0.13025
0.126682
0.12311
0.119536
0.115963
0.112393
0.10883
0.105278
0.10174
0.0982203
0.0947247
0.091258
0.0878262
0.0844357
0.0810939
0.0778084
0.0745881
0.0714424
0.0683819
0.065418
0.0625634
0.059832
0.0572391
0.0548016
0.052538
0.0504687
0.0486162
0.0470053
0.0456635
0.0446209
0.0439111
0.0435708
0.0436411
0.0441671
0.0451988
0.0467917
0.049007
0.0519123
0.0555823
0.0600995
0.0655546
0.072047
0.0796858
0.08859
0.0988885
0.110721
0.124235
0.139586
0.156938
0.176454
0.198312
0.222724
0.249964
0.280338
0.314121
0.351589
0.393081
0.438989
0.489757
0.545895
0.60798
0.676657
0.75271
0.837111
0.930984
1.03562
1.15251
1.28338
1.43014
1.59491
1.7799
1.98724
2.21871
2.47506
2.75511
3.05399
3.36064
3.65411
3.89851
4.03851
4.00261
3.69999
2.96212
1.10781
1.07102
1.02279
0.961491
0.895576
0.831514
0.772774
0.720847
0.675983
0.637758
0.605447
0.578227
0.555295
0.535955
0.519624
0.50581
0.494093
0.484101
0.475507
0.468057
0.461556
0.455831
0.450723
0.446097
0.441841
0.437861
0.434079
0.430434
0.426875
0.423366
0.419877
0.416389
0.412889
0.409368
0.405824
0.402255
0.398664
0.395054
0.391429
0.387796
0.384158
0.380522
0.376891
0.37327
0.369663
0.366073
0.362502
0.358953
0.355428
0.351927
0.348452
0.345002
0.341578
0.33818
0.334808
0.331461
0.328139
0.324841
0.321569
0.318321
0.315099
0.311901
0.308725
0.305564
0.302406
0.299248
0.296089
0.292933
0.289787
0.286661
0.283563
0.280491
0.277439
0.274399
0.271365
0.268332
0.265299
0.262263
0.259223
0.256178
0.253129
0.250073
0.247011
0.243943
0.240867
0.237783
0.234691
0.23159
0.228479
0.225358
0.222226
0.219082
0.215927
0.212758
0.209576
0.206381
0.203171
0.199946
0.196707
0.193452
0.190182
0.186896
0.183594
0.180275
0.176941
0.173591
0.170225
0.166843
0.163446
0.160034
0.156608
0.153168
0.149716
0.146252
0.142776
0.139292
0.135799
0.1323
0.128796
0.12529
0.121784
0.11828
0.114782
0.111293
0.107815
0.104354
0.100913
0.0974981
0.0941137
0.090766
0.0874614
0.0842071
0.0810108
0.0778812
0.0748278
0.0718607
0.0689915
0.0662325
0.0635974
0.0611014
0.0587607
0.0565937
0.05462
0.0528617
0.0513428
0.0500897
0.0491315
0.0485003
0.0482313
0.0483634
0.0489394
0.0500062
0.0516158
0.0538249
0.0566962
0.0602982
0.0647059
0.0700015
0.0762743
0.0836215
0.0921483
0.101968
0.113202
0.125979
0.140437
0.156716
0.174969
0.195359
0.218073
0.243335
0.271398
0.302504
0.336893
0.374849
0.416711
0.462858
0.513724
0.569799
0.631631
0.69986
0.775277
0.858797
0.951425
1.05428
1.16858
1.29562
1.43665
1.59281
1.76483
1.95273
2.15522
2.36882
2.58666
2.79681
2.98031
3.10903
3.14463
3.04229
2.75589
2.23309
1.01004
0.979562
0.946
0.900835
0.850285
0.79942
0.751085
0.706887
0.667531
0.633107
0.603361
0.577859
0.556068
0.537462
0.521572
0.507986
0.496337
0.486301
0.47758
0.469934
0.463186
0.457181
0.451774
0.446843
0.442284
0.438013
0.433959
0.430067
0.426289
0.422591
0.418946
0.415332
0.411735
0.408145
0.404555
0.400963
0.397366
0.393767
0.390166
0.386566
0.382971
0.379383
0.375805
0.37224
0.368691
0.36516
0.361649
0.35816
0.354694
0.351251
0.347832
0.344438
0.341068
0.337722
0.334401
0.331102
0.327827
0.324574
0.321342
0.318132
0.314941
0.311767
0.308611
0.305473
0.302349
0.299233
0.296125
0.293028
0.289943
0.286872
0.283814
0.280773
0.277745
0.274727
0.271715
0.268707
0.265699
0.26269
0.259679
0.256664
0.253645
0.25062
0.24759
0.244554
0.241511
0.23846
0.235401
0.232333
0.229256
0.226169
0.223071
0.219962
0.216842
0.21371
0.210565
0.207406
0.204235
0.201049
0.19785
0.194636
0.191407
0.188164
0.184905
0.181632
0.178343
0.17504
0.171722
0.16839
0.165043
0.161683
0.158311
0.154925
0.151529
0.148122
0.144705
0.141281
0.13785
0.134414
0.130975
0.127536
0.124097
0.120663
0.117236
0.113819
0.110416
0.10703
0.103667
0.10033
0.097026
0.0937596
0.0905375
0.0873668
0.0842552
0.081211
0.0782436
0.075363
0.0725803
0.0699077
0.0673584
0.0649471
0.0626897
0.0606036
0.0587081
0.057024
0.0555745
0.0543846
0.0534821
0.0528972
0.0526631
0.0528161
0.053396
0.0544464
0.056015
0.0581537
0.0609193
0.0643737
0.0685839
0.0736231
0.0795698
0.0865093
0.0945328
0.103738
0.11423
0.126118
0.139519
0.154558
0.171366
0.190086
0.210879
0.233927
0.259438
0.287625
0.318685
0.352847
0.390394
0.431644
0.476953
0.526728
0.581415
0.641521
0.707661
0.780549
0.860935
0.949601
1.04734
1.15492
1.27293
1.4017
1.54103
1.68985
1.84581
2.0046
2.15916
2.29879
2.40832
2.46756
2.4519
2.33556
2.09699
1.72399
0.925015
0.900015
0.876569
0.843183
0.804387
0.764173
0.724806
0.687771
0.653929
0.62363
0.596905
0.57359
0.553383
0.535911
0.520811
0.507754
0.49644
0.486592
0.477953
0.470301
0.463476
0.457347
0.451786
0.446682
0.441942
0.43749
0.433263
0.429209
0.425288
0.421467
0.417718
0.414024
0.410367
0.406737
0.403126
0.399529
0.395943
0.392366
0.388798
0.38524
0.381692
0.378158
0.374637
0.371132
0.367645
0.364177
0.360729
0.357303
0.353898
0.350516
0.347157
0.343821
0.340508
0.337218
0.333949
0.330702
0.327476
0.32427
0.321082
0.317913
0.314759
0.311617
0.308489
0.305381
0.302292
0.299219
0.296159
0.293113
0.290084
0.287063
0.284048
0.281042
0.278044
0.275054
0.27207
0.269089
0.26611
0.263131
0.26015
0.257167
0.25418
0.251188
0.248191
0.245188
0.242179
0.239162
0.236137
0.233104
0.230062
0.22701
0.223949
0.220876
0.217793
0.214698
0.211591
0.208472
0.20534
0.202195
0.199036
0.195865
0.192679
0.18948
0.186266
0.183039
0.179798
0.176543
0.173274
0.169993
0.166698
0.163391
0.160073
0.156743
0.153404
0.150055
0.146699
0.143336
0.139967
0.136596
0.133222
0.12985
0.12648
0.123115
0.119759
0.116415
0.113086
0.109776
0.106489
0.10323
0.100004
0.0968174
0.0936759
0.0905864
0.0875564
0.0845942
0.0817087
0.0789097
0.0762081
0.0736154
0.0711446
0.0688097
0.066626
0.0646101
0.0627805
0.0611569
0.0597611
0.0586171
0.0577506
0.0571901
0.0569663
0.0571129
0.0576666
0.0586672
0.060158
0.0621859
0.0648018
0.0680608
0.0720221
0.0767496
0.0823118
0.088782
0.0962383
0.104764
0.114447
0.12538
0.137661
0.151395
0.166693
0.183675
0.202474
0.223234
0.246125
0.271329
0.299009
0.329334
0.36253
0.398855
0.438594
0.48207
0.529636
0.581677
0.638641
0.701063
0.769479
0.844393
0.926264
1.01544
1.11207
1.21593
1.32626
1.44149
1.55892
1.67424
1.78118
1.87102
1.93242
1.9516
1.91341
1.80387
1.61401
1.34445
0.851453
0.831172
0.814828
0.790065
0.760234
0.728506
0.696648
0.665935
0.637226
0.610985
0.587395
0.566464
0.548062
0.531955
0.517869
0.50555
0.494759
0.485272
0.476871
0.469358
0.462592
0.456464
0.450866
0.445699
0.440879
0.436339
0.432022
0.427883
0.423885
0.419998
0.416197
0.412464
0.408783
0.405143
0.401535
0.397954
0.394393
0.390852
0.387327
0.383819
0.380327
0.376851
0.373393
0.369953
0.366531
0.363129
0.359747
0.356387
0.353047
0.349729
0.346433
0.343158
0.339904
0.336672
0.333459
0.330266
0.327091
0.323935
0.320794
0.317669
0.314557
0.311453
0.308359
0.305285
0.302233
0.299201
0.296187
0.293191
0.290213
0.287241
0.284269
0.2813
0.278337
0.275379
0.272426
0.269476
0.266528
0.263581
0.260633
0.257683
0.25473
0.251772
0.24881
0.245841
0.242867
0.239885
0.236896
0.233898
0.230892
0.227877
0.224852
0.221817
0.218772
0.215716
0.212648
0.209569
0.206478
0.203375
0.200259
0.19713
0.193989
0.190835
0.187668
0.184488
0.181295
0.178089
0.174871
0.171641
0.1684
0.165147
0.161884
0.158611
0.155329
0.15204
0.148743
0.145442
0.142137
0.13883
0.135522
0.132217
0.128915
0.125621
0.122336
0.119064
0.115808
0.112572
0.109361
0.106178
0.103029
0.0999205
0.0968571
0.093846
0.0908944
0.0880104
0.0852025
0.0824803
0.0798541
0.0773351
0.0749356
0.0726689
0.0705497
0.0685938
0.0668184
0.0652423
0.063886
0.0627717
0.0619236
0.0613677
0.0611326
0.061249
0.0617503
0.0626725
0.0640545
0.0659381
0.0683684
0.0713937
0.0750655
0.0794389
0.0845727
0.0905287
0.0973728
0.105174
0.114006
0.123943
0.135068
0.147464
0.161222
0.176439
0.19322
0.211679
0.231949
0.254178
0.2785
0.305036
0.333949
0.365442
0.399737
0.437078
0.477735
0.521988
0.570142
0.622576
0.67966
0.741685
0.808861
0.881256
0.958711
1.04071
1.12624
1.21359
1.30012
1.38203
1.45416
1.50982
1.54091
1.53836
1.49307
1.39778
1.24946
1.05215
0.787658
0.771338
0.760076
0.741712
0.718769
0.693783
0.668118
0.642832
0.618714
0.596255
0.575713
0.55719
0.540673
0.526042
0.513105
0.501663
0.491532
0.482536
0.474497
0.467243
0.460649
0.454629
0.449095
0.443959
0.439147
0.4346
0.430268
0.42611
0.422095
0.418194
0.414386
0.410654
0.406982
0.403361
0.39978
0.396233
0.392716
0.389223
0.385753
0.382304
0.378875
0.375466
0.372075
0.368704
0.365352
0.36202
0.358708
0.355416
0.352145
0.348893
0.345662
0.342451
0.33926
0.336087
0.332932
0.329795
0.326675
0.323571
0.320481
0.317403
0.314336
0.311275
0.308221
0.305183
0.302169
0.299179
0.296208
0.293259
0.290329
0.287406
0.284478
0.281549
0.278622
0.2757
0.272781
0.269865
0.266951
0.264038
0.261124
0.258209
0.25529
0.252368
0.249441
0.246508
0.243569
0.240624
0.237671
0.23471
0.231741
0.228763
0.225776
0.222779
0.219773
0.216756
0.213729
0.210691
0.207641
0.20458
0.201508
0.198423
0.195327
0.192219
0.189099
0.185967
0.182823
0.179667
0.176501
0.173323
0.170135
0.166937
0.163729
0.160513
0.15729
0.15406
0.150824
0.147585
0.144343
0.1411
0.137859
0.13462
0.131387
0.128162
0.124947
0.121746
0.118562
0.1154
0.112262
0.109154
0.10608
0.103047
0.100059
0.0971227
0.0942459
0.091436
0.0887011
0.0860504
0.0834937
0.0810417
0.078706
0.0764994
0.0744356
0.0725294
0.070797
0.0692561
0.0679255
0.0668258
0.0659793
0.06541
0.0651437
0.0652083
0.0656339
0.0664526
0.067699
0.0694098
0.0716243
0.0743843
0.077734
0.0817201
0.0863918
0.0918007
0.0980009
0.105048
0.113002
0.121923
0.131874
0.142922
0.155136
0.168593
0.183372
0.199561
0.217256
0.236572
0.257623
0.280486
0.305268
0.33212
0.361208
0.392709
0.426818
0.46373
0.503643
0.546804
0.593457
0.643748
0.697714
0.755251
0.816034
0.879422
0.944346
1.00918
1.07161
1.12848
1.17578
1.2086
1.22133
1.20815
1.16375
1.0845
0.969934
0.824239
0.732187
0.719331
0.711842
0.698302
0.680674
0.66102
0.640395
0.619667
0.599529
0.580457
0.562735
0.546513
0.531847
0.518702
0.506958
0.49646
0.487068
0.478646
0.471053
0.464144
0.45781
0.451981
0.446589
0.441559
0.436826
0.432338
0.428052
0.423932
0.41995
0.416082
0.412307
0.408611
0.404979
0.401402
0.397871
0.394378
0.390918
0.387488
0.384084
0.380703
0.377345
0.374007
0.37069
0.367392
0.364115
0.360856
0.357617
0.354397
0.351197
0.348015
0.344851
0.341706
0.338579
0.335468
0.332374
0.329296
0.326232
0.323182
0.320145
0.317118
0.3141
0.311086
0.308074
0.305074
0.302099
0.299151
0.296223
0.293317
0.290435
0.287559
0.284676
0.281789
0.278901
0.276015
0.273132
0.270252
0.267374
0.264497
0.261619
0.25874
0.255857
0.252971
0.25008
0.247184
0.244281
0.241372
0.238456
0.235533
0.232601
0.229661
0.226713
0.223755
0.220788
0.217812
0.214825
0.211828
0.208821
0.205803
0.202774
0.199735
0.196684
0.193622
0.19055
0.187466
0.184372
0.181267
0.178151
0.175026
0.171892
0.168748
0.165597
0.162438
0.159273
0.156102
0.152927
0.14975
0.146571
0.143392
0.140215
0.137043
0.133877
0.13072
0.127574
0.124444
0.121331
0.11824
0.115174
0.112138
0.109137
0.106176
0.10326
0.100395
0.0975895
0.0948492
0.0921824
0.0895978
0.0871046
0.084713
0.0824339
0.0802793
0.0782619
0.0763958
0.0746958
0.0731783
0.0718606
0.0707618
0.0699019
0.0693029
0.068988
0.0689822
0.0693122
0.0700064
0.071095
0.0726099
0.0745849
0.0770556
0.080059
0.0836342
0.0878214
0.0926626
0.098201
0.104481
0.111548
0.119448
0.12823
0.137944
0.14864
0.160374
0.173204
0.187192
0.202404
0.218925
0.236845
0.256217
0.277093
0.299576
0.323785
0.349845
0.377886
0.40804
0.440427
0.475188
0.512478
0.552353
0.594749
0.63947
0.686127
0.734065
0.78229
0.829384
0.873429
0.911961
0.941961
0.959934
0.962118
0.944839
0.905046
0.841038
0.753292
0.645184
0.684009
0.674268
0.669634
0.659772
0.646264
0.630814
0.614251
0.597288
0.580524
0.564396
0.549193
0.535082
0.522154
0.51043
0.499853
0.490309
0.481683
0.473875
0.466777
0.460269
0.454252
0.448672
0.443479
0.438611
0.434012
0.429635
0.425444
0.421407
0.4175
0.413701
0.409993
0.406363
0.402797
0.399287
0.395824
0.392402
0.389015
0.385658
0.38233
0.379026
0.375745
0.372486
0.369247
0.366028
0.362828
0.359647
0.356484
0.353338
0.350211
0.3471
0.344007
0.34093
0.337868
0.334822
0.33179
0.328772
0.325767
0.322773
0.31979
0.316817
0.313851
0.310887
0.307919
0.304959
0.302024
0.299116
0.29623
0.293367
0.29053
0.287703
0.284865
0.282019
0.279171
0.276324
0.273479
0.270636
0.267796
0.264956
0.262115
0.259272
0.256427
0.253578
0.250724
0.247864
0.244999
0.242127
0.239248
0.236362
0.233468
0.230567
0.227657
0.224739
0.221812
0.218875
0.21593
0.212975
0.21001
0.207035
0.204051
0.201056
0.198051
0.195036
0.192011
0.188975
0.18593
0.182876
0.179812
0.176739
0.173658
0.17057
0.167474
0.164372
0.161264
0.158153
0.155038
0.151921
0.148804
0.145689
0.142576
0.139469
0.136369
0.133279
0.130201
0.127139
0.124095
0.121073
0.118077
0.115111
0.112179
0.109287
0.10644
0.103644
0.100904
0.0982291
0.0956254
0.0931014
0.0906657
0.088328
0.0860983
0.0839879
0.0820086
0.0801732
0.0784957
0.0769909
0.0756747
0.0745643
0.0736779
0.0730351
0.0726566
0.0725647
0.0727827
0.0733353
0.0742487
0.0755501
0.0772682
0.0794324
0.0820736
0.0852233
0.0889139
0.0931783
0.0980498
0.103562
0.109749
0.116644
0.124282
0.132696
0.141923
0.151997
0.162959
0.174848
0.18771
0.201597
0.216578
0.232687
0.249937
0.268384
0.288112
0.309203
0.331738
0.355803
0.381465
0.408787
0.437861
0.468704
0.5012
0.535119
0.570077
0.605477
0.640462
0.673868
0.704187
0.729555
0.747782
0.756442
0.753051
0.735326
0.701535
0.650937
0.584225
0.503844
0.642284
0.6354
0.632941
0.625902
0.6156
0.603458
0.590144
0.57625
0.562295
0.548672
0.535655
0.523421
0.512071
0.50166
0.492178
0.483549
0.475679
0.468489
0.461902
0.455821
0.450155
0.44486
0.439903
0.435235
0.430807
0.426579
0.422519
0.4186
0.4148
0.4111
0.407486
0.403946
0.400467
0.397043
0.393665
0.390327
0.387024
0.383752
0.380508
0.377288
0.374091
0.370916
0.36776
0.364623
0.361503
0.358402
0.355317
0.352248
0.349196
0.346159
0.343136
0.340129
0.337135
0.334154
0.331186
0.328229
0.325284
0.322348
0.319421
0.316502
0.313589
0.310678
0.30776
0.304842
0.301945
0.299077
0.296232
0.293411
0.290617
0.287836
0.285044
0.28224
0.279432
0.276624
0.273819
0.271015
0.268213
0.265411
0.262609
0.259804
0.256996
0.254184
0.251367
0.248545
0.245717
0.242882
0.240041
0.237192
0.234337
0.231473
0.228602
0.225723
0.222836
0.21994
0.217036
0.214122
0.2112
0.208268
0.205328
0.202378
0.199418
0.19645
0.193472
0.190485
0.187489
0.184485
0.181472
0.178452
0.175424
0.172389
0.169348
0.166302
0.163252
0.160198
0.157142
0.154086
0.15103
0.147976
0.144927
0.141883
0.138848
0.135823
0.132811
0.129815
0.126837
0.123882
0.120953
0.118054
0.115189
0.112362
0.10958
0.106848
0.104171
0.101556
0.0990102
0.0965412
0.0941571
0.0918668
0.0896797
0.087606
0.0856568
0.0838437
0.0821796
0.0806777
0.0793526
0.0782197
0.0772953
0.0765966
0.0761422
0.0759513
0.0760442
0.0764422
0.0771674
0.0782429
0.0796922
0.0815396
0.0838099
0.0865279
0.0897188
0.0934074
0.0976184
0.102376
0.107703
0.113622
0.120156
0.127324
0.135149
0.143651
0.152851
0.162772
0.173442
0.184887
0.197151
0.210262
0.224206
0.238995
0.254683
0.271322
0.28896
0.307647
0.327415
0.348284
0.370306
0.393481
0.417684
0.442692
0.468162
0.493592
0.518289
0.541341
0.561607
0.577725
0.588147
0.591223
0.585332
0.569059
0.541421
0.502115
0.451753
0.391984
0.606414
0.602124
0.601285
0.596405
0.588598
0.57905
0.568315
0.556898
0.545247
0.533714
0.522555
0.511945
0.50199
0.492756
0.484268
0.476484
0.469329
0.462737
0.456651
0.450996
0.445691
0.440698
0.435998
0.431553
0.427321
0.423266
0.419362
0.415584
0.411913
0.408334
0.404834
0.401401
0.398026
0.394702
0.391421
0.388179
0.38497
0.38179
0.378637
0.375507
0.372399
0.369311
0.366241
0.363189
0.360153
0.357133
0.354128
0.351138
0.348161
0.345199
0.342249
0.339312
0.336386
0.333472
0.330568
0.327674
0.324788
0.321911
0.319041
0.316177
0.313317
0.310461
0.307598
0.304726
0.301868
0.299039
0.296233
0.29345
0.290696
0.287958
0.285211
0.28245
0.279683
0.276916
0.27415
0.271386
0.268624
0.265862
0.263098
0.260332
0.257562
0.254788
0.252008
0.249223
0.246432
0.243634
0.24083
0.238018
0.2352
0.232375
0.229543
0.226703
0.223855
0.220999
0.218136
0.215264
0.212383
0.209495
0.206598
0.203692
0.200778
0.197855
0.194924
0.191985
0.189038
0.186083
0.183121
0.180152
0.177176
0.174194
0.171208
0.168217
0.165222
0.162225
0.159227
0.15623
0.153233
0.15024
0.147252
0.14427
0.141297
0.138335
0.135387
0.132454
0.129541
0.12665
0.123785
0.120949
0.118147
0.115383
0.112662
0.109989
0.10737
0.104811
0.102318
0.0998987
0.0975603
0.0953112
0.09316
0.0911162
0.0891896
0.087391
0.0857319
0.0842244
0.0828814
0.0817165
0.0807444
0.0799801
0.0794396
0.0791397
0.0790977
0.0793316
0.0798599
0.0807015
0.0818757
0.0834018
0.085299
0.0875865
0.0902827
0.0934055
0.0969718
0.100997
0.105496
0.110481
0.115964
0.121955
0.128462
0.135493
0.143056
0.15116
0.159815
0.16903
0.178828
0.189229
0.200205
0.211733
0.223844
0.236569
0.249934
0.26396
0.278662
0.294046
0.310133
0.326927
0.344323
0.362123
0.380049
0.397704
0.414556
0.429921
0.442968
0.452727
0.45813
0.458069
0.45149
0.437509
0.415547
0.385472
0.347713
0.303303
0.575867
0.57391
0.574203
0.570958
0.565089
0.557563
0.548859
0.539417
0.52963
0.519814
0.510205
0.500971
0.492218
0.484016
0.476406
0.469377
0.462874
0.456837
0.451224
0.445976
0.441025
0.436336
0.431898
0.427685
0.42366
0.419792
0.416057
0.412434
0.408907
0.405463
0.402089
0.398776
0.395515
0.392301
0.389126
0.385987
0.382878
0.379796
0.376739
0.373703
0.370687
0.367689
0.364708
0.361742
0.358791
0.355854
0.35293
0.350018
0.347119
0.344231
0.341354
0.338487
0.335631
0.332783
0.329944
0.327112
0.324288
0.321469
0.318656
0.315846
0.31304
0.31024
0.307435
0.304614
0.301795
0.299004
0.296236
0.293489
0.290767
0.288069
0.285366
0.282648
0.279923
0.277197
0.274472
0.271748
0.269026
0.266305
0.263581
0.260854
0.258122
0.255385
0.252642
0.249894
0.247139
0.244378
0.24161
0.238836
0.236055
0.233267
0.230473
0.227671
0.224863
0.222047
0.219223
0.216392
0.213554
0.210707
0.207853
0.204991
0.202121
0.199244
0.196359
0.193467
0.190568
0.187661
0.184748
0.181829
0.178905
0.175975
0.173041
0.170104
0.167164
0.164223
0.161281
0.15834
0.155401
0.152466
0.149537
0.146615
0.143703
0.140802
0.137914
0.135043
0.132191
0.129361
0.126557
0.123781
0.121039
0.118333
0.115669
0.113051
0.110485
0.107977
0.105532
0.103157
0.100859
0.098645
0.0965235
0.0945029
0.0925921
0.090801
0.0891396
0.0876188
0.0862501
0.0850455
0.0840177
0.0831798
0.0825456
0.0821294
0.0819456
0.0820094
0.0823358
0.0829402
0.0838377
0.0850432
0.0865712
0.0884356
0.0906491
0.0932234
0.0961689
0.0994941
0.103206
0.107309
0.111805
0.116696
0.121981
0.127655
0.133717
0.140163
0.146992
0.154201
0.161798
0.169789
0.17814
0.186811
0.195808
0.20515
0.21485
0.224913
0.235348
0.246159
0.257349
0.268933
0.280846
0.292928
0.304968
0.316672
0.327651
0.337416
0.345379
0.35087
0.353162
0.351517
0.345243
0.333768
0.316723
0.29401
0.265865
0.23287
0.550167
0.550293
0.551266
0.549233
0.544853
0.538887
0.531764
0.523878
0.51558
0.507153
0.498815
0.490725
0.482987
0.475669
0.468816
0.462445
0.456518
0.450981
0.445799
0.440929
0.436311
0.431914
0.427732
0.423747
0.419929
0.41625
0.412689
0.409227
0.40585
0.402546
0.399305
0.396118
0.392978
0.389879
0.386815
0.383783
0.380778
0.377797
0.374838
0.371899
0.368976
0.36607
0.363177
0.360299
0.357433
0.354578
0.351735
0.348902
0.34608
0.343266
0.340462
0.337665
0.334877
0.332095
0.32932
0.326551
0.323787
0.321028
0.318272
0.315518
0.312767
0.310021
0.307272
0.304502
0.301724
0.29897
0.296241
0.293527
0.290835
0.288172
0.285512
0.282836
0.280152
0.277467
0.274782
0.2721
0.26942
0.266739
0.264056
0.261367
0.258673
0.255973
0.253267
0.250554
0.247836
0.24511
0.242378
0.23964
0.236896
0.234145
0.231388
0.228624
0.225854
0.223077
0.220293
0.217502
0.214704
0.211898
0.209086
0.206267
0.203441
0.200608
0.197768
0.194922
0.192069
0.18921
0.186346
0.183476
0.180601
0.177722
0.174839
0.171954
0.169066
0.166178
0.163291
0.160405
0.157522
0.154643
0.151771
0.148906
0.146052
0.143209
0.140379
0.137567
0.134773
0.132001
0.129254
0.126535
0.123848
0.121196
0.118585
0.116019
0.113502
0.111039
0.108637
0.106301
0.104038
0.101854
0.0997562
0.0977529
0.0958519
0.0940618
0.0923917
0.0908513
0.0894504
0.0881997
0.08711
0.0861926
0.0854592
0.0849218
0.0845923
0.0844831
0.0846063
0.0849738
0.0855972
0.0864876
0.0876552
0.0891092
0.0908578
0.0929073
0.0952624
0.0979259
0.100898
0.104177
0.107759
0.111636
0.1158
0.12024
0.124944
0.1299
0.135097
0.140527
0.146184
0.15206
0.158128
0.164336
0.170668
0.177138
0.183752
0.19051
0.197416
0.204477
0.2117
0.219115
0.226697
0.23433
0.241863
0.249095
0.255759
0.261518
0.265973
0.26867
0.26912
0.266828
0.261326
0.252223
0.239241
0.222262
0.201353
0.176775
0.528871
0.530771
0.532089
0.53091
0.527645
0.522857
0.516944
0.510268
0.503143
0.495824
0.488513
0.481357
0.47446
0.467884
0.461676
0.455864
0.45043
0.44533
0.440531
0.435999
0.431686
0.427559
0.423617
0.419848
0.416228
0.412732
0.40934
0.406036
0.402808
0.399645
0.396537
0.393477
0.390458
0.387475
0.384524
0.3816
0.3787
0.375821
0.37296
0.370116
0.367287
0.364472
0.361668
0.358876
0.356094
0.353322
0.350558
0.347803
0.345056
0.342316
0.339582
0.336855
0.334134
0.331418
0.328706