/*--------------------------------*- C++ -*----------------------------------*\
  =========                 |
  \\      /  F ield         | OpenFOAM: The Open Source CFD Toolbox
   \\    /   O peration     | Website:  https://openfoam.org
    \\  /    A nd           | Version:  6
     \\/     M anipulation  |
\*---------------------------------------------------------------------------*/
FoamFile
{
    version     2.0;
    format      ascii;
    class       volVectorField;
    location    "0";
    object      U_rec;
}
// * * * * * * * * * * * * * * * * * * * * * * * * * * * * * * * * * * * * * //

dimensions      [0 1 -1 0 0 0 0];

internalField   nonuniform List<vector> 
40000
(
(3.82524e-07 -3.82663e-07 0)
(2.5966e-06 -8.98162e-07 0)
(5.88058e-06 -1.11918e-06 0)
(9.4627e-06 -1.06235e-06 0)
(1.2511e-05 -8.45196e-07 0)
(1.45418e-05 -5.33139e-07 0)
(1.52734e-05 -1.7031e-07 0)
(1.45534e-05 2.1372e-07 0)
(1.23214e-05 5.99908e-07 0)
(8.57916e-06 9.7599e-07 0)
(3.37054e-06 1.33412e-06 0)
(-3.23289e-06 1.66938e-06 0)
(-1.11424e-05 1.97895e-06 0)
(-2.02583e-05 2.26145e-06 0)
(-3.04764e-05 2.51656e-06 0)
(-4.16906e-05 2.74469e-06 0)
(-5.37972e-05 2.9468e-06 0)
(-6.66948e-05 3.12418e-06 0)
(-8.02882e-05 3.27842e-06 0)
(-9.44874e-05 3.41125e-06 0)
(-0.000109209 3.52447e-06 0)
(-0.000124377 3.61995e-06 0)
(-0.000139922 3.69953e-06 0)
(-0.000155783 3.765e-06 0)
(-0.000171903 3.81809e-06 0)
(-0.000188235 3.86045e-06 0)
(-0.000204736 3.8936e-06 0)
(-0.000221371 3.91897e-06 0)
(-0.000238108 3.93787e-06 0)
(-0.000254922 3.95149e-06 0)
(-0.000271791 3.96088e-06 0)
(-0.0002887 3.967e-06 0)
(-0.000305634 3.97067e-06 0)
(-0.000322583 3.97261e-06 0)
(-0.00033954 3.97344e-06 0)
(-0.0003565 3.97365e-06 0)
(-0.00037346 3.97368e-06 0)
(-0.000390419 3.97383e-06 0)
(-0.000407376 3.97437e-06 0)
(-0.000424331 3.97545e-06 0)
(-0.000441287 3.97718e-06 0)
(-0.000458245 3.97961e-06 0)
(-0.000475207 3.98272e-06 0)
(-0.000492174 3.98645e-06 0)
(-0.000509147 3.99068e-06 0)
(-0.000526129 3.99529e-06 0)
(-0.000543119 4.00008e-06 0)
(-0.000560117 4.00485e-06 0)
(-0.000577121 4.00938e-06 0)
(-0.000594131 4.0134e-06 0)
(-0.000611141 4.01664e-06 0)
(-0.000628149 4.01881e-06 0)
(-0.000645148 4.01962e-06 0)
(-0.000662132 4.01876e-06 0)
(-0.000679093 4.01591e-06 0)
(-0.000696023 4.01074e-06 0)
(-0.000712909 4.00292e-06 0)
(-0.000729741 3.99212e-06 0)
(-0.000746505 3.97801e-06 0)
(-0.000763187 3.96023e-06 0)
(-0.00077977 3.93847e-06 0)
(-0.000796239 3.91237e-06 0)
(-0.000812572 3.88159e-06 0)
(-0.000828751 3.8458e-06 0)
(-0.000844755 3.80466e-06 0)
(-0.00086056 3.75782e-06 0)
(-0.000876142 3.70497e-06 0)
(-0.000891475 3.64575e-06 0)
(-0.000906533 3.57986e-06 0)
(-0.000921288 3.50696e-06 0)
(-0.000935711 3.42674e-06 0)
(-0.000949769 3.33888e-06 0)
(-0.000963431 3.24308e-06 0)
(-0.000976666 3.13906e-06 0)
(-0.000989437 3.02652e-06 0)
(-0.00100171 2.90519e-06 0)
(-0.00101345 2.77482e-06 0)
(-0.00102461 2.63517e-06 0)
(-0.00103516 2.48601e-06 0)
(-0.00104507 2.32717e-06 0)
(-0.00105428 2.15844e-06 0)
(-0.00106276 1.97969e-06 0)
(-0.00107047 1.79081e-06 0)
(-0.00107736 1.59171e-06 0)
(-0.0010834 1.38233e-06 0)
(-0.00108855 1.16268e-06 0)
(-0.00109275 9.32782e-07 0)
(-0.00109597 6.92712e-07 0)
(-0.00109818 4.42603e-07 0)
(-0.00109932 1.82625e-07 0)
(-0.00109935 -8.69806e-08 0)
(-0.00109825 -3.65924e-07 0)
(-0.00109598 -6.53865e-07 0)
(-0.00109249 -9.50389e-07 0)
(-0.00108775 -1.25502e-06 0)
(-0.00108174 -1.56724e-06 0)
(-0.00107442 -1.88642e-06 0)
(-0.00106576 -2.2119e-06 0)
(-0.00105575 -2.54296e-06 0)
(-0.00104436 -2.87878e-06 0)
(-0.00103158 -3.2185e-06 0)
(-0.00101739 -3.5612e-06 0)
(-0.00100178 -3.90587e-06 0)
(-0.000984752 -4.25148e-06 0)
(-0.000966299 -4.59691e-06 0)
(-0.000946421 -4.94102e-06 0)
(-0.000925135 -5.28261e-06 0)
(-0.000902449 -5.62042e-06 0)
(-0.000878384 -5.9532e-06 0)
(-0.000852961 -6.27962e-06 0)
(-0.00082621 -6.59838e-06 0)
(-0.000798168 -6.90812e-06 0)
(-0.000768873 -7.20751e-06 0)
(-0.000738369 -7.4952e-06 0)
(-0.000706708 -7.76987e-06 0)
(-0.000673947 -8.03022e-06 0)
(-0.000640144 -8.27495e-06 0)
(-0.000605368 -8.50285e-06 0)
(-0.000569691 -8.71272e-06 0)
(-0.000533188 -8.90344e-06 0)
(-0.000495937 -9.07394e-06 0)
(-0.000458026 -9.22322e-06 0)
(-0.00041954 -9.35039e-06 0)
(-0.000380574 -9.45467e-06 0)
(-0.000341221 -9.53533e-06 0)
(-0.000301578 -9.59175e-06 0)
(-0.000261746 -9.62347e-06 0)
(-0.000221826 -9.63013e-06 0)
(-0.000181921 -9.6114e-06 0)
(-0.000142135 -9.5672e-06 0)
(-0.000102571 -9.49752e-06 0)
(-6.33335e-05 -9.40252e-06 0)
(-2.45256e-05 -9.28235e-06 0)
(1.37513e-05 -9.13751e-06 0)
(5.13964e-05 -8.96838e-06 0)
(8.83123e-05 -8.77562e-06 0)
(0.000124403 -8.55997e-06 0)
(0.000159577 -8.32226e-06 0)
(0.000193744 -8.06342e-06 0)
(0.000226821 -7.78449e-06 0)
(0.000258727 -7.4866e-06 0)
(0.000289386 -7.17097e-06 0)
(0.000318726 -6.83884e-06 0)
(0.000346684 -6.49158e-06 0)
(0.000373197 -6.13055e-06 0)
(0.000398212 -5.75718e-06 0)
(0.000421681 -5.37293e-06 0)
(0.000443559 -4.97928e-06 0)
(0.000463812 -4.5777e-06 0)
(0.000482406 -4.16969e-06 0)
(0.000499315 -3.75669e-06 0)
(0.000514527 -3.34017e-06 0)
(0.000528023 -2.92155e-06 0)
(0.000539794 -2.50221e-06 0)
(0.000549843 -2.08348e-06 0)
(0.000558176 -1.66664e-06 0)
(0.000564791 -1.25293e-06 0)
(0.00056971 -8.43501e-07 0)
(0.000572947 -4.39452e-07 0)
(0.000574529 -4.1814e-08 0)
(0.000574481 3.4846e-07 0)
(0.000572831 7.30486e-07 0)
(0.000569618 1.10345e-06 0)
(0.000564874 1.46661e-06 0)
(0.000558645 1.81927e-06 0)
(0.000550971 2.16081e-06 0)
(0.0005419 2.49067e-06 0)
(0.00053148 2.80831e-06 0)
(0.000519761 3.11323e-06 0)
(0.000506798 3.40496e-06 0)
(0.000492645 3.68303e-06 0)
(0.00047736 3.94697e-06 0)
(0.000461003 4.19627e-06 0)
(0.000443635 4.43038e-06 0)
(0.000425322 4.64869e-06 0)
(0.000406131 4.85049e-06 0)
(0.000386133 5.03493e-06 0)
(0.000365404 5.20105e-06 0)
(0.000344023 5.34766e-06 0)
(0.000322076 5.47335e-06 0)
(0.000299655 5.57648e-06 0)
(0.000276857 5.65504e-06 0)
(0.000253793 5.7067e-06 0)
(0.000230579 5.72867e-06 0)
(0.000207347 5.71768e-06 0)
(0.000184241 5.66989e-06 0)
(0.000161422 5.58082e-06 0)
(0.000139069 5.44524e-06 0)
(0.000117383 5.25711e-06 0)
(9.6589e-05 5.00949e-06 0)
(7.69366e-05 4.69451e-06 0)
(5.87064e-05 4.30342e-06 0)
(4.2207e-05 3.82686e-06 0)
(2.77744e-05 3.25567e-06 0)
(1.57632e-05 2.58289e-06 0)
(6.52382e-06 1.80864e-06 0)
(3.57488e-07 9.49333e-07 0)
(-2.59633e-06 5.41159e-08 0)
(-2.67581e-06 -7.14359e-07 0)
(-8.91109e-07 -8.91125e-07 0)
(9.01266e-07 -2.59992e-06 0)
(5.82819e-06 -5.81478e-06 0)
(1.23415e-05 -6.98353e-06 0)
(1.89058e-05 -6.42075e-06 0)
(2.38545e-05 -4.65336e-06 0)
(2.61251e-05 -2.11375e-06 0)
(2.50378e-05 8.80746e-07 0)
(2.01879e-05 4.10385e-06 0)
(1.13836e-05 7.39666e-06 0)
(-1.41281e-06 1.0649e-05 0)
(-1.81272e-05 1.37853e-05 0)
(-3.86061e-05 1.67553e-05 0)
(-6.26432e-05 1.9527e-05 0)
(-8.99984e-05 2.20816e-05 0)
(-0.00012041 2.44105e-05 0)
(-0.00015361 2.65127e-05 0)
(-0.000189325 2.83923e-05 0)
(-0.000227292 3.00575e-05 0)
(-0.000267254 3.15196e-05 0)
(-0.000308969 3.27916e-05 0)
(-0.000352211 3.38876e-05 0)
(-0.000396769 3.48227e-05 0)
(-0.000442452 3.5612e-05 0)
(-0.000489084 3.62707e-05 0)
(-0.000536511 3.68135e-05 0)
(-0.000584592 3.72544e-05 0)
(-0.000633206 3.76069e-05 0)
(-0.000682247 3.78834e-05 0)
(-0.000731622 3.80956e-05 0)
(-0.000781255 3.8254e-05 0)
(-0.000831079 3.83683e-05 0)
(-0.000881041 3.8447e-05 0)
(-0.000931097 3.84978e-05 0)
(-0.000981213 3.85273e-05 0)
(-0.00103136 3.85412e-05 0)
(-0.00108152 3.85444e-05 0)
(-0.00113168 3.85409e-05 0)
(-0.00118183 3.85338e-05 0)
(-0.00123196 3.85256e-05 0)
(-0.00128207 3.85183e-05 0)
(-0.00133216 3.85128e-05 0)
(-0.00138222 3.85099e-05 0)
(-0.00143227 3.85097e-05 0)
(-0.00148229 3.85119e-05 0)
(-0.00153229 3.85157e-05 0)
(-0.00158227 3.85201e-05 0)
(-0.00163223 3.85235e-05 0)
(-0.00168216 3.85244e-05 0)
(-0.00173206 3.85208e-05 0)
(-0.00178192 3.85106e-05 0)
(-0.00183172 3.84913e-05 0)
(-0.00188146 3.84607e-05 0)
(-0.00193111 3.84161e-05 0)
(-0.00198066 3.83547e-05 0)
(-0.00203008 3.82738e-05 0)
(-0.00207934 3.81706e-05 0)
(-0.00212842 3.80422e-05 0)
(-0.00217728 3.78854e-05 0)
(-0.00222588 3.76975e-05 0)
(-0.00227418 3.74755e-05 0)
(-0.00232214 3.72162e-05 0)
(-0.0023697 3.69166e-05 0)
(-0.00241681 3.65737e-05 0)
(-0.00246342 3.61845e-05 0)
(-0.00250946 3.57458e-05 0)
(-0.00255487 3.52549e-05 0)
(-0.00259959 3.47086e-05 0)
(-0.00264354 3.41039e-05 0)
(-0.00268664 3.3438e-05 0)
(-0.00272882 3.27079e-05 0)
(-0.00276999 3.19108e-05 0)
(-0.00281008 3.1044e-05 0)
(-0.00284897 3.01048e-05 0)
(-0.0028866 2.90904e-05 0)
(-0.00292286 2.79985e-05 0)
(-0.00295765 2.68267e-05 0)
(-0.00299086 2.55727e-05 0)
(-0.00302241 2.42344e-05 0)
(-0.00305216 2.28099e-05 0)
(-0.00308003 2.12975e-05 0)
(-0.0031059 1.96958e-05 0)
(-0.00312965 1.80035e-05 0)
(-0.00315118 1.62196e-05 0)
(-0.00317035 1.43436e-05 0)
(-0.00318707 1.2375e-05 0)
(-0.00320122 1.0314e-05 0)
(-0.00321267 8.16078e-06 0)
(-0.00322132 5.91647e-06 0)
(-0.00322706 3.58217e-06 0)
(-0.00322976 1.15975e-06 0)
(-0.00322933 -1.34871e-06 0)
(-0.00322565 -3.94041e-06 0)
(-0.00321864 -6.61206e-06 0)
(-0.00320818 -9.35981e-06 0)
(-0.00319419 -1.21794e-05 0)
(-0.00317658 -1.50657e-05 0)
(-0.00315528 -1.80134e-05 0)
(-0.0031302 -2.10162e-05 0)
(-0.0031013 -2.40674e-05 0)
(-0.0030685 -2.71598e-05 0)
(-0.00303178 -3.02854e-05 0)
(-0.00299108 -3.34359e-05 0)
(-0.0029464 -3.66024e-05 0)
(-0.0028977 -3.97752e-05 0)
(-0.00284501 -4.29446e-05 0)
(-0.00278832 -4.61001e-05 0)
(-0.00272766 -4.9231e-05 0)
(-0.00266307 -5.23261e-05 0)
(-0.0025946 -5.5374e-05 0)
(-0.00252233 -5.83631e-05 0)
(-0.00244633 -6.12814e-05 0)
(-0.0023667 -6.41171e-05 0)
(-0.00228354 -6.68582e-05 0)
(-0.002197 -6.94927e-05 0)
(-0.0021072 -7.20088e-05 0)
(-0.0020143 -7.43949e-05 0)
(-0.00191848 -7.66395e-05 0)
(-0.00181992 -7.87318e-05 0)
(-0.00171881 -8.0661e-05 0)
(-0.00161537 -8.24172e-05 0)
(-0.00150982 -8.3991e-05 0)
(-0.00140238 -8.53733e-05 0)
(-0.00129332 -8.65566e-05 0)
(-0.00118287 -8.75327e-05 0)
(-0.00107131 -8.82965e-05 0)
(-0.000958892 -8.88413e-05 0)
(-0.000845905 -8.91636e-05 0)
(-0.000732626 -8.92595e-05 0)
(-0.000619339 -8.91264e-05 0)
(-0.000506333 -8.87638e-05 0)
(-0.000393895 -8.81708e-05 0)
(-0.000282312 -8.73481e-05 0)
(-0.000171872 -8.62979e-05 0)
(-6.28528e-05 -8.50241e-05 0)
(4.4457e-05 -8.35299e-05 0)
(0.000149795 -8.18207e-05 0)
(0.000252886 -7.9903e-05 0)
(0.000353478 -7.77841e-05 0)
(0.000451314 -7.54719e-05 0)
(0.000546169 -7.29756e-05 0)
(0.000637808 -7.03049e-05 0)
(0.000726017 -6.74702e-05 0)
(0.000810596 -6.44829e-05 0)
(0.000891361 -6.13545e-05 0)
(0.000968132 -5.80973e-05 0)
(0.00104076 -5.4724e-05 0)
(0.0011091 -5.12471e-05 0)
(0.00117303 -4.768e-05 0)
(0.00123244 -4.40358e-05 0)
(0.00128723 -4.03276e-05 0)
(0.00133734 -3.65686e-05 0)
(0.00138269 -3.27719e-05 0)
(0.00142325 -2.89502e-05 0)
(0.001459 -2.51159e-05 0)
(0.0014899 -2.12812e-05 0)
(0.00151598 -1.74579e-05 0)
(0.00153724 -1.36571e-05 0)
(0.00155372 -9.88963e-06 0)
(0.00156547 -6.16567e-06 0)
(0.00157253 -2.49473e-06 0)
(0.00157497 1.11413e-06 0)
(0.00157288 4.65244e-06 0)
(0.00156636 8.11235e-06 0)
(0.00155548 1.14866e-05 0)
(0.00154038 1.47683e-05 0)
(0.00152116 1.79513e-05 0)
(0.00149795 2.10297e-05 0)
(0.00147089 2.39978e-05 0)
(0.00144011 2.68505e-05 0)
(0.00140577 2.95825e-05 0)
(0.00136802 3.21889e-05 0)
(0.00132703 3.46643e-05 0)
(0.00128295 3.70033e-05 0)
(0.00123598 3.91999e-05 0)
(0.00118629 4.12477e-05 0)
(0.00113409 4.31392e-05 0)
(0.00107957 4.48661e-05 0)
(0.00102296 4.64184e-05 0)
(0.000964487 4.77849e-05 0)
(0.000904393 4.89522e-05 0)
(0.000842952 4.99048e-05 0)
(0.000780445 5.06246e-05 0)
(0.000717186 5.10906e-05 0)
(0.000653509 5.12782e-05 0)
(0.000589788 5.11593e-05 0)
(0.000526428 5.07014e-05 0)
(0.000463878 4.98677e-05 0)
(0.00040263 4.86162e-05 0)
(0.000343226 4.69003e-05 0)
(0.000286265 4.46685e-05 0)
(0.000232399 4.18659e-05 0)
(0.00018234 3.84361e-05 0)
(0.000136847 3.43267e-05 0)
(9.6718e-05 2.94993e-05 0)
(6.27504e-05 2.39491e-05 0)
(3.56824e-05 1.7745e-05 0)
(1.60773e-05 1.11043e-05 0)
(4.1055e-06 4.53331e-06 0)
(-8.72039e-07 -8.66629e-07 0)
(-7.16184e-07 -2.67746e-06 0)
(1.13005e-06 -5.90463e-06 0)
(7.03695e-06 -1.23442e-05 0)
(1.41548e-05 -1.40863e-05 0)
(2.05371e-05 -1.21345e-05 0)
(2.41117e-05 -7.53541e-06 0)
(2.35146e-05 -1.16203e-06 0)
(1.78257e-05 6.3096e-06 0)
(6.46747e-06 1.43721e-05 0)
(-1.08601e-05 2.26522e-05 0)
(-3.42403e-05 3.08792e-05 0)
(-6.35944e-05 3.88608e-05 0)
(-9.87256e-05 4.64633e-05 0)
(-0.000139351 5.3598e-05 0)
(-0.00018513 6.02097e-05 0)
(-0.000235687 6.62693e-05 0)
(-0.000290625 7.17672e-05 0)
(-0.000349543 7.67085e-05 0)
(-0.000412042 8.11093e-05 0)
(-0.000477735 8.49939e-05 0)
(-0.000546251 8.83919e-05 0)
(-0.000617241 9.13372e-05 0)
(-0.000690379 9.38656e-05 0)
(-0.000765365 9.60143e-05 0)
(-0.000841923 9.78204e-05 0)
(-0.000919807 9.93204e-05 0)
(-0.000998793 0.00010055 0)
(-0.00107869 0.000101542 0)
(-0.00115931 0.00010233 0)
(-0.00124052 0.000102942 0)
(-0.00132218 0.000103406 0)
(-0.00140418 0.000103746 0)
(-0.00148643 0.000103986 0)
(-0.00156886 0.000104143 0)
(-0.0016514 0.000104238 0)
(-0.001734 0.000104283 0)
(-0.00181662 0.000104292 0)
(-0.00189924 0.000104276 0)
(-0.00198183 0.000104244 0)
(-0.00206437 0.000104201 0)
(-0.00214685 0.000104154 0)
(-0.00222927 0.000104106 0)
(-0.00231162 0.000104059 0)
(-0.0023939 0.000104013 0)
(-0.00247609 0.000103968 0)
(-0.00255821 0.000103923 0)
(-0.00264023 0.000103875 0)
(-0.00272217 0.00010382 0)
(-0.00280399 0.000103755 0)
(-0.0028857 0.000103674 0)
(-0.00296727 0.000103574 0)
(-0.00304869 0.000103446 0)
(-0.00312994 0.000103287 0)
(-0.00321097 0.000103088 0)
(-0.00329176 0.000102844 0)
(-0.00337227 0.000102547 0)
(-0.00345245 0.00010219 0)
(-0.00353225 0.000101765 0)
(-0.00361162 0.000101265 0)
(-0.00369051 0.000100683 0)
(-0.00376883 0.00010001 0)
(-0.00384651 9.92389e-05 0)
(-0.00392349 9.83618e-05 0)
(-0.00399968 9.73707e-05 0)
(-0.00407498 9.62585e-05 0)
(-0.0041493 9.50163e-05 0)
(-0.00422253 9.3637e-05 0)
(-0.00429458 9.21128e-05 0)
(-0.00436532 9.04359e-05 0)
(-0.00443464 8.85992e-05 0)
(-0.00450242 8.65948e-05 0)
(-0.00456851 8.44152e-05 0)
(-0.0046328 8.20538e-05 0)
(-0.00469513 7.95033e-05 0)
(-0.00475537 7.67571e-05 0)
(-0.00481335 7.38089e-05 0)
(-0.00486892 7.06526e-05 0)
(-0.00492194 6.72819e-05 0)
(-0.00497222 6.36922e-05 0)
(-0.0050196 5.9878e-05 0)
(-0.00506392 5.58355e-05 0)
(-0.00510499 5.15611e-05 0)
(-0.00514264 4.70509e-05 0)
(-0.00517669 4.23035e-05 0)
(-0.00520696 3.73166e-05 0)
(-0.00523328 3.209e-05 0)
(-0.00525546 2.66238e-05 0)
(-0.00527331 2.09194e-05 0)
(-0.00528667 1.4979e-05 0)
(-0.00529535 8.80591e-06 0)
(-0.00529917 2.40531e-06 0)
(-0.00529799 -4.21724e-06 0)
(-0.00529162 -1.10545e-05 0)
(-0.00527992 -1.80975e-05 0)
(-0.00526272 -2.53363e-05 0)
(-0.0052399 -3.27596e-05 0)
(-0.00521131 -4.0354e-05 0)
(-0.00517683 -4.81054e-05 0)
(-0.00513636 -5.59975e-05 0)
(-0.0050898 -6.40129e-05 0)
(-0.00503705 -7.21327e-05 0)
(-0.00497806 -8.03363e-05 0)
(-0.00491276 -8.86019e-05 0)
(-0.00484113 -9.69061e-05 0)
(-0.00476314 -0.000105225 0)
(-0.0046788 -0.000113532 0)
(-0.00458813 -0.0001218 0)
(-0.00449116 -0.000130002 0)
(-0.00438796 -0.00013811 0)
(-0.00427862 -0.000146092 0)
(-0.00416324 -0.000153921 0)
(-0.00404195 -0.000161563 0)
(-0.0039149 -0.000168991 0)
(-0.00378227 -0.000176171 0)
(-0.00364427 -0.000183073 0)
(-0.00350109 -0.000189668 0)
(-0.00335301 -0.000195924 0)
(-0.00320027 -0.000201814 0)
(-0.00304318 -0.000207307 0)
(-0.00288203 -0.000212378 0)
(-0.00271716 -0.000217 0)
(-0.00254891 -0.000221149 0)
(-0.00237765 -0.000224802 0)
(-0.00220376 -0.000227938 0)
(-0.00202764 -0.000230539 0)
(-0.0018497 -0.000232588 0)
(-0.00167036 -0.00023407 0)
(-0.00149004 -0.000234975 0)
(-0.0013092 -0.000235292 0)
(-0.00112827 -0.000235017 0)
(-0.00094771 -0.000234144 0)
(-0.000767964 -0.000232673 0)
(-0.000589484 -0.000230606 0)
(-0.000412724 -0.000227949 0)
(-0.000238125 -0.000224708 0)
(-6.61276e-05 -0.000220893 0)
(0.000102838 -0.000216519 0)
(0.000268354 -0.0002116 0)
(0.00043001 -0.000206155 0)
(0.000587418 -0.000200204 0)
(0.000740194 -0.000193771 0)
(0.000887981 -0.000186879 0)
(0.00103044 -0.000179556 0)
(0.00116724 -0.00017183 0)
(0.0012981 -0.000163732 0)
(0.00142272 -0.000155291 0)
(0.00154087 -0.00014654 0)
(0.0016523 -0.000137513 0)
(0.00175682 -0.000128242 0)
(0.00185424 -0.000118762 0)
(0.00194442 -0.000109106 0)
(0.00202722 -9.93083e-05 0)
(0.00210254 -8.94034e-05 0)
(0.0021703 -7.94233e-05 0)
(0.00223045 -6.94013e-05 0)
(0.00228295 -5.93684e-05 0)
(0.00232782 -4.93554e-05 0)
(0.00236505 -3.93919e-05 0)
(0.00239469 -2.9506e-05 0)
(0.00241682 -1.97245e-05 0)
(0.00243149 -1.0073e-05 0)
(0.00243881 -5.75554e-07 0)
(0.00243892 8.7452e-06 0)
(0.00243192 1.78681e-05 0)
(0.002418 2.67732e-05 0)
(0.0023973 3.54422e-05 0)
(0.00237 4.38577e-05 0)
(0.00233633 5.20028e-05 0)
(0.00229646 5.98623e-05 0)
(0.00225063 6.74216e-05 0)
(0.00219907 7.46654e-05 0)
(0.00214202 8.15793e-05 0)
(0.00207976 8.81488e-05 0)
(0.00201253 9.43577e-05 0)
(0.00194064 0.00010019 0)
(0.00186438 0.000105626 0)
(0.00178405 0.000110647 0)
(0.00170001 0.000115228 0)
(0.00161259 0.000119344 0)
(0.00152216 0.000122964 0)
(0.00142914 0.000126053 0)
(0.00133395 0.000128571 0)
(0.00123704 0.00013047 0)
(0.00113891 0.000131697 0)
(0.00104011 0.00013219 0)
(0.000941221 0.00013188 0)
(0.000842874 0.000130686 0)
(0.000745777 0.000128521 0)
(0.000650681 0.000125284 0)
(0.000558419 0.000120869 0)
(0.000469888 0.000115161 0)
(0.000386055 0.000108042 0)
(0.00030795 9.93992e-05 0)
(0.000236653 8.91403e-05 0)
(0.000173262 7.72173e-05 0)
(0.000118842 6.36745e-05 0)
(7.43393e-05 4.87312e-05 0)
(4.04348e-05 3.2923e-05 0)
(1.73325e-05 1.73424e-05 0)
(4.52094e-06 4.10799e-06 0)
(4.97501e-08 -2.60532e-06 0)
(1.08366e-06 -9.53317e-06 0)
(6.51758e-06 -1.89579e-05 0)
(1.22637e-05 -2.04806e-05 0)
(1.61273e-05 -1.60031e-05 0)
(1.58636e-05 -7.17131e-06 0)
(9.96843e-06 4.65292e-06 0)
(-2.59552e-06 1.83848e-05 0)
(-2.24983e-05 3.31841e-05 0)
(-5.01001e-05 4.84117e-05 0)
(-8.55128e-05 6.35912e-05 0)
(-0.000128656 7.83731e-05 0)
(-0.0001793 9.25087e-05 0)
(-0.000237107 0.000105827 0)
(-0.000301665 0.000118217 0)
(-0.000372509 0.000129618 0)
(-0.000449144 0.000140002 0)
(-0.000531064 0.000149371 0)
(-0.000617763 0.000157749 0)
(-0.000708746 0.000165174 0)
(-0.000803533 0.000171696 0)
(-0.000901672 0.000177374 0)
(-0.00100274 0.00018227 0)
(-0.00110633 0.000186452 0)
(-0.0012121 0.000189986 0)
(-0.0013197 0.000192937 0)
(-0.00142884 0.000195371 0)
(-0.00153925 0.00019735 0)
(-0.0016507 0.000198932 0)
(-0.00176298 0.000200171 0)
(-0.00187591 0.000201119 0)
(-0.00198935 0.000201822 0)
(-0.00210315 0.000202322 0)
(-0.0022172 0.000202655 0)
(-0.00233142 0.000202855 0)
(-0.00244573 0.000202951 0)
(-0.00256007 0.000202966 0)
(-0.0026744 0.000202923 0)
(-0.00278866 0.000202836 0)
(-0.00290285 0.000202721 0)
(-0.00301692 0.000202586 0)
(-0.00313086 0.00020244 0)
(-0.00324467 0.000202286 0)
(-0.00335833 0.000202126 0)
(-0.00347182 0.000201961 0)
(-0.00358514 0.000201786 0)
(-0.00369827 0.0002016 0)
(-0.00381121 0.000201395 0)
(-0.00392392 0.000201165 0)
(-0.0040364 0.000200901 0)
(-0.00414861 0.000200593 0)
(-0.00426053 0.000200231 0)
(-0.00437212 0.000199804 0)
(-0.00448334 0.0001993 0)
(-0.00459413 0.000198706 0)
(-0.00470446 0.000198009 0)
(-0.00481425 0.000197196 0)
(-0.00492343 0.000196254 0)
(-0.00503194 0.000195168 0)
(-0.00513969 0.000193923 0)
(-0.0052466 0.000192507 0)
(-0.00535255 0.000190903 0)
(-0.00545745 0.000189099 0)
(-0.00556119 0.000187078 0)
(-0.00566365 0.000184827 0)
(-0.00576469 0.00018233 0)
(-0.00586419 0.000179574 0)
(-0.005962 0.000176544 0)
(-0.00605797 0.000173225 0)
(-0.00615194 0.000169603 0)
(-0.00624375 0.000165666 0)
(-0.00633322 0.000161397 0)
(-0.00642017 0.000156785 0)
(-0.00650443 0.000151816 0)
(-0.00658579 0.000146479 0)
(-0.00666405 0.000140759 0)
(-0.006739 0.000134648 0)
(-0.00681045 0.000128133 0)
(-0.00687816 0.000121204 0)
(-0.00694192 0.000113853 0)
(-0.00700149 0.000106072 0)
(-0.00705666 9.78535e-05 0)
(-0.00710718 8.91926e-05 0)
(-0.00715282 8.00844e-05 0)
(-0.00719333 7.05267e-05 0)
(-0.00722849 6.0518e-05 0)
(-0.00725805 5.00589e-05 0)
(-0.00728177 3.91526e-05 0)
(-0.00729942 2.78033e-05 0)
(-0.00731077 1.60178e-05 0)
(-0.00731558 3.80512e-06 0)
(-0.00731365 -8.82309e-06 0)
(-0.00730473 -2.18534e-05 0)
(-0.00728864 -3.52687e-05 0)
(-0.00726518 -4.90503e-05 0)
(-0.00723415 -6.3176e-05 0)
(-0.00719539 -7.76213e-05 0)
(-0.00714872 -9.23588e-05 0)
(-0.00709401 -0.000107358 0)
(-0.00703114 -0.000122586 0)
(-0.00695998 -0.000138008 0)
(-0.00688046 -0.000153583 0)
(-0.00679251 -0.000169273 0)
(-0.00669606 -0.000185031 0)
(-0.0065911 -0.000200813 0)
(-0.00647765 -0.000216571 0)
(-0.00635572 -0.000232253 0)
(-0.00622538 -0.000247808 0)
(-0.00608669 -0.000263181 0)
(-0.0059398 -0.000278318 0)
(-0.00578481 -0.000293161 0)
(-0.00562192 -0.000307655 0)
(-0.00545134 -0.000321741 0)
(-0.00527327 -0.000335361 0)
(-0.00508799 -0.000348459 0)
(-0.0048958 -0.000360976 0)
(-0.00469701 -0.000372858 0)
(-0.00449199 -0.000384048 0)
(-0.00428109 -0.000394495 0)
(-0.00406475 -0.000404148 0)
(-0.00384339 -0.000412957 0)
(-0.00361746 -0.000420877 0)
(-0.00338744 -0.000427866 0)
(-0.00315386 -0.000433884 0)
(-0.00291722 -0.000438897 0)
(-0.00267806 -0.000442873 0)
(-0.00243695 -0.000445785 0)
(-0.00219445 -0.000447611 0)
(-0.00195114 -0.000448333 0)
(-0.00170761 -0.00044794 0)
(-0.00146446 -0.000446424 0)
(-0.00122227 -0.000443783 0)
(-0.00098166 -0.000440019 0)
(-0.000743213 -0.000435142 0)
(-0.00050752 -0.000429164 0)
(-0.000275161 -0.000422105 0)
(-4.67142e-05 -0.000413988 0)
(0.000177266 -0.000404843 0)
(0.000396236 -0.000394701 0)
(0.00060967 -0.000383601 0)
(0.000817063 -0.000371583 0)
(0.00101793 -0.000358697 0)
(0.00121181 -0.000344988 0)
(0.00139828 -0.000330511 0)
(0.00157693 -0.00031532 0)
(0.00174738 -0.000299474 0)
(0.00190929 -0.000283031 0)
(0.00206234 -0.000266054 0)
(0.00220626 -0.000248603 0)
(0.00234079 -0.000230744 0)
(0.00246572 -0.00021254 0)
(0.00258086 -0.000194053 0)
(0.00268607 -0.000175347 0)
(0.00278124 -0.000156485 0)
(0.00286628 -0.000137527 0)
(0.00294113 -0.000118533 0)
(0.00300578 -9.95613e-05 0)
(0.00306025 -8.06676e-05 0)
(0.00310457 -6.19055e-05 0)
(0.00313881 -4.33265e-05 0)
(0.00316307 -2.49793e-05 0)
(0.00317748 -6.91023e-06 0)
(0.00318218 1.08369e-05 0)
(0.00317734 2.82211e-05 0)
(0.00316317 4.5203e-05 0)
(0.00313986 6.17471e-05 0)
(0.00310768 7.78182e-05 0)
(0.00306686 9.33845e-05 0)
(0.00301767 0.000108414 0)
(0.00296043 0.000122878 0)
(0.00289543 0.000136745 0)
(0.002823 0.000149988 0)
(0.00274349 0.000162575 0)
(0.00265726 0.000174475 0)
(0.0025647 0.000185654 0)
(0.0024662 0.000196077 0)
(0.00236218 0.000205703 0)
(0.00225311 0.000214486 0)
(0.00213945 0.000222376 0)
(0.00202172 0.000229314 0)
(0.00190044 0.000235235 0)
(0.0017762 0.000240061 0)
(0.00164962 0.000243706 0)
(0.00152135 0.000246071 0)
(0.00139212 0.000247045 0)
(0.00126271 0.0002465 0)
(0.00113395 0.000244297 0)
(0.00100676 0.000240279 0)
(0.000882124 0.000234276 0)
(0.00076109 0.000226107 0)
(0.0006448 0.000215583 0)
(0.000534461 0.000202519 0)
(0.000431337 0.000186748 0)
(0.000336734 0.000168147 0)
(0.000251956 0.000146685 0)
(0.00017825 0.000122496 0)
(0.000116712 9.59973e-05 0)
(6.8155e-05 6.80911e-05 0)
(3.29568e-05 4.04575e-05 0)
(1.11031e-05 1.60848e-05 0)
(9.44005e-07 3.39157e-07 0)
(8.74649e-07 -1.26499e-05 0)
(4.76106e-06 -2.39642e-05 0)
(7.6257e-06 -2.40424e-05 0)
(7.15572e-06 -1.5702e-05 0)
(1.11376e-06 -1.21581e-06 0)
(-1.20325e-05 1.75541e-05 0)
(-3.33504e-05 3.91042e-05 0)
(-6.35328e-05 6.2245e-05 0)
(-0.000102955 8.60515e-05 0)
(-0.00015173 0.000109818 0)
(-0.000209762 0.000133017 0)
(-0.000276792 0.000155262 0)
(-0.000352437 0.000176284 0)
(-0.000436222 0.000195901 0)
(-0.000527613 0.000214007 0)
(-0.00062604 0.000230552 0)
(-0.000730907 0.000245528 0)
(-0.000841623 0.000258963 0)
(-0.000957599 0.00027091 0)
(-0.00107827 0.000281442 0)
(-0.0012031 0.000290644 0)
(-0.00133156 0.00029861 0)
(-0.00146319 0.00030544 0)
(-0.00159754 0.000311236 0)
(-0.00173421 0.0003161 0)
(-0.00187283 0.00032013 0)
(-0.00201307 0.000323424 0)
(-0.00215465 0.000326072 0)
(-0.00229729 0.00032816 0)
(-0.00244079 0.000329767 0)
(-0.00258492 0.000330966 0)
(-0.00272955 0.000331823 0)
(-0.0028745 0.000332398 0)
(-0.00301967 0.000332743 0)
(-0.00316496 0.000332904 0)
(-0.00331028 0.00033292 0)
(-0.00345555 0.000332825 0)
(-0.00360074 0.000332646 0)
(-0.00374579 0.000332405 0)
(-0.00389066 0.000332119 0)
(-0.00403533 0.0003318 0)
(-0.00417978 0.000331456 0)
(-0.00432397 0.00033109 0)
(-0.0044679 0.000330704 0)
(-0.00461153 0.000330294 0)
(-0.00475486 0.000329854 0)
(-0.00489786 0.000329376 0)
(-0.00504049 0.000328848 0)
(-0.00518274 0.000328259 0)
(-0.00532457 0.000327594 0)
(-0.00546593 0.000326836 0)
(-0.00560678 0.000325969 0)
(-0.00574707 0.000324973 0)
(-0.00588673 0.000323831 0)
(-0.0060257 0.00032252 0)
(-0.0061639 0.000321021 0)
(-0.00630125 0.000319312 0)
(-0.00643765 0.000317371 0)
(-0.006573 0.000315176 0)
(-0.0067072 0.000312704 0)
(-0.00684012 0.000309932 0)
(-0.00697162 0.000306838 0)
(-0.00710159 0.000303398 0)
(-0.00722987 0.00029959 0)
(-0.0073563 0.00029539 0)
(-0.00748072 0.000290776 0)
(-0.00760295 0.000285723 0)
(-0.00772282 0.000280211 0)
(-0.00784012 0.000274216 0)
(-0.00795466 0.000267716 0)
(-0.00806623 0.000260689 0)
(-0.0081746 0.000253115 0)
(-0.00827955 0.000244972 0)
(-0.00838084 0.00023624 0)
(-0.00847823 0.000226902 0)
(-0.00857146 0.000216938 0)
(-0.00866029 0.000206331 0)
(-0.00874444 0.000195066 0)
(-0.00882364 0.000183129 0)
(-0.00889762 0.000170507 0)
(-0.00896609 0.000157188 0)
(-0.00902876 0.000143166 0)
(-0.00908536 0.000128432 0)
(-0.00913558 0.000112983 0)
(-0.00917916 9.68171e-05 0)
(-0.00921576 7.99353e-05 0)
(-0.00924513 6.23428e-05 0)
(-0.00926697 4.40465e-05 0)
(-0.00928099 2.50575e-05 0)
(-0.00928692 5.39058e-06 0)
(-0.0092845 -1.49357e-05 0)
(-0.00927344 -3.58991e-05 0)
(-0.00925351 -5.74732e-05 0)
(-0.00922447 -7.9627e-05 0)
(-0.00918608 -0.000102326 0)
(-0.00913812 -0.00012553 0)
(-0.00908041 -0.000149196 0)
(-0.00901278 -0.000173275 0)
(-0.00893506 -0.000197714 0)
(-0.00884714 -0.000222458 0)
(-0.00874889 -0.000247443 0)
(-0.00864024 -0.000272605 0)
(-0.00852112 -0.000297874 0)
(-0.00839151 -0.000323177 0)
(-0.00825143 -0.000348438 0)
(-0.00810089 -0.000373576 0)
(-0.00793997 -0.000398508 0)
(-0.00776879 -0.000423149 0)
(-0.00758747 -0.000447412 0)
(-0.00739617 -0.000471206 0)
(-0.00719512 -0.000494443 0)
(-0.00698456 -0.00051703 0)
(-0.00676478 -0.000538876 0)
(-0.0065361 -0.000559891 0)
(-0.00629885 -0.000579983 0)
(-0.00605344 -0.000599065 0)
(-0.00580032 -0.00061705 0)
(-0.0055399 -0.000633853 0)
(-0.00527272 -0.000649395 0)
(-0.00499929 -0.000663598 0)
(-0.00472017 -0.000676389 0)
(-0.00443592 -0.000687702 0)
(-0.00414718 -0.000697475 0)
(-0.00385459 -0.000705651 0)
(-0.00355877 -0.000712179 0)
(-0.00326044 -0.000717018 0)
(-0.00296026 -0.000720132 0)
(-0.00265895 -0.000721493 0)
(-0.00235723 -0.000721082 0)
(-0.0020558 -0.000718881 0)
(-0.00175542 -0.000714893 0)
(-0.0014568 -0.000709117 0)
(-0.00116067 -0.000701567 0)
(-0.000867752 -0.000692262 0)
(-0.000578762 -0.000681233 0)
(-0.000294393 -0.000668514 0)
(-1.53382e-05 -0.00065415 0)
(0.00025774 -0.000638192 0)
(0.000524192 -0.0006207 0)
(0.000783394 -0.000601737 0)
(0.00103475 -0.000581376 0)
(0.00127769 -0.000559693 0)
(0.00151168 -0.000536771 0)
(0.00173622 -0.000512696 0)
(0.00195083 -0.000487557 0)
(0.00215508 -0.00046145 0)
(0.00234858 -0.00043447 0)
(0.00253096 -0.000406718 0)
(0.00270192 -0.00037829 0)
(0.00286117 -0.00034929 0)
(0.00300848 -0.000319816 0)
(0.00314365 -0.00028997 0)
(0.00326653 -0.00025985 0)
(0.00337699 -0.000229554 0)
(0.00347496 -0.000199176 0)
(0.00356041 -0.00016881 0)
(0.00363334 -0.000138545 0)
(0.00369377 -0.000108468 0)
(0.0037418 -7.86615e-05 0)
(0.00377751 -4.92043e-05 0)
(0.00380105 -2.01722e-05 0)
(0.00381258 8.36404e-06 0)
(0.00381233 3.63372e-05 0)
(0.0038005 6.36827e-05 0)
(0.00377735 9.03411e-05 0)
(0.00374317 0.000116255 0)
(0.00369827 0.00014137 0)
(0.00364298 0.000165635 0)
(0.00357765 0.000188998 0)
(0.00350266 0.00021141 0)
(0.00341841 0.000232821 0)
(0.00332533 0.000253181 0)
(0.00322386 0.000272437 0)
(0.00311448 0.000290531 0)
(0.00299768 0.000307406 0)
(0.00287399 0.000322993 0)
(0.00274397 0.000337219 0)
(0.0026082 0.000350002 0)
(0.00246732 0.000361247 0)
(0.00232199 0.00037085 0)
(0.00217292 0.000378689 0)
(0.00202087 0.000384631 0)
(0.00186665 0.000388522 0)
(0.00171116 0.00039019 0)
(0.00155532 0.000389444 0)
(0.00140015 0.000386072 0)
(0.00124674 0.000379845 0)
(0.00109626 0.000370514 0)
(0.000949942 0.00035782 0)
(0.000809122 0.0003415 0)
(0.000675187 0.000321305 0)
(0.000549579 0.00029702 0)
(0.000433772 0.000268509 0)
(0.000329227 0.000235773 0)
(0.000237343 0.000199047 0)
(0.000159377 0.000158949 0)
(9.63348e-05 0.000116704 0)
(4.89066e-05 7.44487e-05 0)
(1.77922e-05 3.57386e-05 0)
(1.80658e-06 6.50634e-06 0)
(5.6328e-07 -1.47491e-05 0)
(2.16013e-06 -2.62299e-05 0)
(1.01763e-06 -2.3286e-05 0)
(-5.18943e-06 -9.55531e-06 0)
(-1.85449e-05 1.20857e-05 0)
(-4.05212e-05 3.92865e-05 0)
(-7.21446e-05 7.0132e-05 0)
(-0.000114076 0.000103085 0)
(-0.000166663 0.000136933 0)
(-0.000229992 0.000170731 0)
(-0.000303935 0.000203764 0)
(-0.000388194 0.000235495 0)
(-0.00048234 0.000265547 0)
(-0.000585847 0.000293657 0)
(-0.000698117 0.000319668 0)
(-0.000818515 0.000343497 0)
(-0.000946374 0.000365125 0)
(-0.00108103 0.000384582 0)
(-0.00122182 0.000401933 0)
(-0.0013681 0.000417274 0)
(-0.00151925 0.000430718 0)
(-0.00167468 0.000442395 0)
(-0.00183386 0.00045244 0)
(-0.00199626 0.000460995 0)
(-0.00216143 0.0004682 0)
(-0.00232893 0.000474194 0)
(-0.00249837 0.000479113 0)
(-0.00266942 0.000483084 0)
(-0.00284177 0.000486229 0)
(-0.00301514 0.000488661 0)
(-0.0031893 0.000490483 0)
(-0.00336404 0.00049179 0)
(-0.00353919 0.000492667 0)
(-0.0037146 0.000493189 0)
(-0.00389013 0.000493422 0)
(-0.00406569 0.000493425 0)
(-0.00424117 0.000493246 0)
(-0.00441652 0.000492924 0)
(-0.00459167 0.000492492 0)
(-0.00476657 0.000491976 0)