/*--------------------------------*- C++ -*----------------------------------*\
  =========                 |
  \\      /  F ield         | OpenFOAM: The Open Source CFD Toolbox
   \\    /   O peration     | Website:  https://openfoam.org
    \\  /    A nd           | Version:  6
     \\/     M anipulation  |
\*---------------------------------------------------------------------------*/
FoamFile
{
    version     2.0;
    format      ascii;
    class       volVectorField;
    location    "0";
    object      U_rec;
}
// * * * * * * * * * * * * * * * * * * * * * * * * * * * * * * * * * * * * * //

dimensions      [0 1 -1 0 0 0 0];

internalField   nonuniform List<vector> 
13046
(
(-0.536207 0.283582 0)
(-0.500364 0.066968 -6.18629e-21)
(-0.284871 0.113913 -1.37363e-20)
(-0.533681 0.224942 0)
(-0.337041 0.167488 -1.23436e-20)
(-0.434052 0.0684583 0)
(-0.557843 0.233995 1.80242e-21)
(-0.437456 0.0453522 3.17234e-21)
(-0.321285 0.17643 -1.36055e-20)
(-0.699378 0.34631 6.58419e-21)
(-0.721796 -0.220326 0)
(-0.0716231 0.0919745 9.31199e-21)
(-0.593268 0.293463 -5.72944e-21)
(-0.505828 0.019035 -9.92532e-21)
(-0.251106 0.127601 7.57957e-21)
(-0.674137 0.396946 -8.41867e-21)
(-0.0751249 0.0609354 2.23464e-20)
(-0.748738 -0.151148 5.38046e-21)
(-0.416831 0.221571 0)
(-0.370283 0.0867497 -6.68858e-21)
(-0.511657 0.164117 1.88083e-20)
(-0.680599 0.387827 -3.623e-21)
(-0.0739036 0.0685686 -2.98395e-20)
(-0.74072 -0.165097 0)
(-0.507899 0.240087 7.5665e-21)
(-0.467092 0.0903116 -1.5093e-20)
(-0.328888 0.135066 0)
(-0.593308 0.313161 -1.05539e-20)
(-0.523035 0.0144234 2.89668e-21)
(-0.234137 0.11321 -1.31009e-20)
(-0.535486 0.298012 0)
(-0.517747 0.0701408 0)
(-0.270683 0.0970378 1.39855e-20)
(-0.48518 0.223934 -8.78673e-21)
(-0.348624 0.136044 4.61989e-21)
(-0.459923 0.109255 2.62886e-20)
(-0.481071 0.20869 -1.3516e-20)
(-0.367302 0.151049 7.03319e-21)
(-0.443906 0.113945 -1.3528e-20)
(-0.478398 0.321352 9.80356e-21)
(-0.286567 0.0265672 2.60137e-21)
(-0.582061 0.110811 -9.35303e-21)
(-0.452916 0.169454 6.11525e-21)
(-0.414396 0.168694 1.05131e-20)
(-0.418164 0.136227 0)
(-0.473385 0.170157 3.85133e-21)
(-0.408097 0.183515 -1.6101e-20)
(-0.402537 0.119279 -2.01596e-21)
(-0.548978 0.276258 0)
(-0.487264 0.052089 -4.45468e-22)
(-0.279832 0.126213 1.88733e-23)
(-0.325178 -0.054002 1.62659e-20)
(-0.428954 0.35296 0)
(-0.656721 0.135361 -1.15418e-20)
(-0.349859 -0.0758351 -2.31702e-20)
(-0.675017 0.14655 -1.85061e-20)
(-0.404685 0.347851 1.54236e-20)
(-0.688401 -0.0233121 -2.34344e-21)
(-0.62446 0.440746 0)
(-0.142278 0.0143845 1.22466e-20)
(-0.677827 0.266521 -5.46764e-21)
(-0.501546 -0.0762751 5.97464e-21)
(-0.244152 0.201413 -3.18637e-20)
(-0.121174 0.114862 1.69377e-20)
(-0.660835 -0.15031 -3.88907e-21)
(-0.706597 0.345972 -9.63533e-21)
(-0.608295 0.448627 0)
(-0.685032 -0.00113421 0)
(-0.158672 -0.00373687 0)
(-0.596555 0.440871 -4.34735e-21)
(-0.672596 0.0112019 0)
(-0.169935 -0.00355232 9.75562e-21)
(-0.708079 -0.0357709 0)
(-0.633126 0.446827 1.14542e-22)
(-0.130257 0.0109384 8.17278e-24)
(-0.428942 0.237841 0)
(-0.353833 0.076082 7.27327e-21)
(-0.524135 0.1516 -1.34259e-20)
(-0.109317 0.0301277 1.36095e-20)
(-0.65054 0.434481 -1.38272e-20)
(-0.717345 -0.0728552 0)
(-0.523915 0.242467 3.96792e-21)
(-0.457838 0.077166 0)
(-0.320713 0.14636 0)
(-0.107981 0.107045 -1.52486e-20)
(-0.680861 -0.165872 -3.04714e-21)
(-0.708341 0.350739 5.75382e-21)
(-0.739791 0.288657 -1.01198e-20)
(-0.156395 0.175752 0)
(-0.607486 -0.186458 -3.01073e-21)
(-0.188024 0.236242 0)
(-0.776115 0.230059 0)
(-0.568946 -0.238685 4.0626e-22)
(-0.659823 0.338665 0)
(-0.67531 0.335857 5.21734e-21)
(-0.582723 -0.0586837 1.1708e-20)
(-0.590953 -0.080401 -5.49812e-21)
(-0.179239 0.117158 -6.94808e-21)
(-0.171361 0.127159 1.7784e-20)
(-0.172975 0.192841 -8.52383e-22)
(-0.745052 0.274634 9.89845e-21)
(-0.588951 -0.190381 0)
(-0.493206 0.183862 -2.91564e-23)
(-0.391331 0.184691 8.47905e-21)
(-0.404529 0.10246 0)
(-0.374124 0.298875 0)
(-0.642806 0.175192 -5.65092e-21)
(-0.366936 -0.0399093 0)
(-0.435334 0.331678 1.69596e-20)
(-0.314505 -0.0196887 0)
(-0.624538 0.133836 -2.15713e-20)
(-0.651511 0.330356 0)
(-0.0385553 0.0679699 0)
(-0.713098 -0.267659 -4.50081e-21)
(-0.574033 0.28154 1.58332e-20)
(-0.492259 0.0343326 4.17023e-21)
(-0.266575 0.133465 1.37001e-20)
(-0.663819 0.372167 6.59519e-21)
(-0.654183 0.359462 -1.23902e-20)
(-0.631307 -0.0696317 -9.93485e-21)
(-0.147744 0.0880145 7.98601e-21)
(-0.604164 -0.0538621 6.06052e-21)
(-0.16455 0.0962837 -7.46243e-21)
(-0.688158 0.350421 -5.65016e-21)
(-0.732159 -0.2296 -6.22269e-21)
(-0.0609337 0.0825982 -4.17882e-21)
(-0.628853 0.33357 0)
(-0.555867 -0.0231259 -7.71152e-21)
(-0.201371 0.109094 1.60928e-20)
(-0.499155 0.327293 0)
(-0.271192 0.0373704 -1.28932e-20)
(-0.574123 0.0950657 5.70374e-22)
(-0.206068 0.249036 0)
(-0.7703 0.225662 0)
(-0.552784 -0.219869 0)
(-0.703321 0.322669 0)
(-0.604992 -0.122327 -1.53894e-20)
(-0.163779 0.145003 -1.91408e-20)
(-0.553904 0.309517 0)
(-0.529523 0.0544301 0)
(-0.254849 0.0905513 0)
(-0.620304 0.23257 0)
(-0.432963 -0.0137138 0)
(-0.31005 0.215518 0)
(-0.421365 0.332078 0)
(-0.329658 -0.0343154 0)
(-0.638526 0.143092 1.16202e-20)
(-0.378326 0.288152 -1.77978e-21)
(-0.631143 0.17787 -1.20241e-20)
(-0.369057 -0.0263867 1.40387e-20)
(-0.686543 0.277272 1.31969e-20)
(-0.523145 -0.0887181 0)
(-0.225187 0.186393 4.15063e-20)
(-0.365731 0.242057 0)
(-0.591348 0.193946 1.28657e-20)
(-0.384232 0.0140939 -3.53607e-21)
(-0.40341 -0.102089 0)
(-0.696384 0.177665 1.31445e-20)
(-0.432028 -0.116488 0)
(-0.707674 0.193851 7.56689e-21)
(-0.348948 0.319821 0)
(-0.320542 0.301072 0)
(-0.63583 0.207309 1.64632e-21)
(-0.408299 -0.0321497 7.43308e-21)
(-0.331732 0.246486 -7.80189e-21)
(-0.713834 0.333711 -6.76458e-21)
(-0.0795164 0.104395 0)
(-0.703308 -0.23 -7.66423e-21)
(-0.665715 0.340323 -5.14987e-21)
(-0.0450171 0.0717112 -1.91395e-21)
(-0.729374 -0.25285 0)
(-0.702594 0.333493 -7.86751e-21)
(-0.62242 -0.1268 0)
(-0.149064 0.13225 2.17744e-20)
(-0.522856 0.373258 0)
(-0.613186 0.0770929 3.05867e-21)
(-0.245102 0.00718722 7.59032e-21)
(-0.624585 0.197849 1.09216e-20)
(-0.349531 0.258737 3.72398e-21)
(-0.391563 -0.018644 0)
(-0.100299 0.1337 0)
(-0.66843 -0.233611 0)
(-0.735588 0.309337 5.77685e-21)
(-0.507145 0.357795 0)
(-0.602722 0.0901066 -6.54998e-21)
(-0.25954 0.014365 1.95785e-21)
(-0.364239 0.253853 0)
(-0.601 0.188871 0)
(-0.375634 0.0019163 0)
(-0.603591 0.224241 5.36383e-21)
(-0.423502 0.000187541 0)
(-0.31953 0.210653 0)
(-0.50725 -0.00819918 -5.0716e-23)
(-0.241589 0.144095 -9.28603e-21)
(-0.619122 0.320258 1.66905e-20)
(-0.539239 -0.0102234 0)
(-0.216948 0.117548 -2.01644e-20)
(-0.729714 0.317328 -1.03252e-20)
(-0.127288 0.141302 1.37916e-20)
(-0.650288 -0.188024 -1.4726e-20)
(-0.201413 0.229985 1.25543e-20)
(-0.755104 0.2459 6.08589e-21)
(-0.558669 -0.196808 1.50265e-20)
(-0.763349 0.258587 -1.74107e-20)
(-0.597053 -0.221792 0)
(-0.163322 0.202996 -1.23489e-20)
(-0.320323 -0.0836937 -8.36029e-22)
(-0.685051 0.120228 5.23632e-21)
(-0.444261 0.395367 0)
(-0.593189 0.255707 -2.43498e-20)
(-0.643022 0.444661 6.98469e-21)
(-0.113269 0.0208305 -8.38414e-21)
(-0.72557 -0.0650261 0)
(-0.615322 -0.235381 0)
(-0.760125 0.269138 -1.60156e-20)
(-0.14429 0.183916 0)
(-0.498324 0.202848 -1.95081e-20)
(-0.369256 0.169721 -6.90401e-21)
(-0.423868 0.0976579 1.99364e-20)
(-0.580824 0.321684 0)
(-0.533515 0.0286862 -4.17529e-22)
(-0.238048 0.101565 -7.71305e-21)
(-0.210764 0.244712 9.59897e-21)
(-0.761889 0.234453 0)
(-0.548754 -0.205857 -1.73086e-20)
(-0.610047 0.265805 1.95458e-20)
(-0.492916 -0.0106448 1.79998e-20)
(-0.254124 0.157619 0)
(-0.0628021 0.0954257 0)
(-0.700247 -0.260646 6.69166e-21)
(-0.702802 0.323881 0)
(-0.422124 0.382075 0)
(-0.692815 0.129669 0)
(-0.339623 -0.0970076 0)
(-0.756086 0.259731 1.52823e-20)
(-0.583889 -0.205213 0)
(-0.174817 0.205443 -1.01717e-23)
(-0.671467 0.201942 4.87063e-21)
(-0.415846 -0.0741017 -5.75142e-21)
(-0.323206 0.27345 0)
(-0.624156 0.34732 0)
(-0.568078 -0.0174949 7.19834e-21)
(-0.194119 0.095988 1.26918e-20)
(-0.493904 -0.193137 -2.13528e-20)
(-0.760356 0.196301 -1.09459e-20)
(-0.271014 0.301908 7.55921e-21)
(-0.724684 0.191549 0)
(-0.447001 -0.138527 -8.33016e-21)
(-0.311407 0.306662 -2.70576e-22)
(-0.0609538 0.0984515 -1.22675e-20)
(-0.684312 -0.27339 0)
(-0.705429 0.310297 -6.18503e-21)
(-0.469627 0.35565 9.05163e-21)
(-0.288425 -0.0147376 -9.47005e-21)
(-0.625097 0.112469 9.58223e-22)
(-0.602863 0.352284 5.63453e-21)
(-0.0268304 0.0466404 -1.79913e-20)
(-0.746868 -0.233759 0)
(-0.394316 0.207288 -4.01375e-21)
(-0.517527 0.17806 -1.51874e-20)
(-0.3846 0.080849 2.00361e-20)
(-0.665954 0.229188 5.90656e-21)
(-0.659943 0.211672 3.35525e-23)
(-0.446881 -0.0661991 -1.38574e-20)
(-0.421498 -0.0600719 0)
(-0.317222 0.25802 7.09204e-21)
(-0.289371 0.236632 -7.37006e-21)
(-0.0977192 0.036064 -1.78089e-20)
(-0.655239 0.428991 7.28094e-21)
(-0.732189 -0.0870708 -1.31144e-20)
(-0.607729 0.350167 0)
(-0.569299 0.0035188 0)
(-0.203902 0.0854194 -1.67293e-20)
(-0.735544 0.203205 -2.84123e-21)
(-0.471827 -0.15694 0)
(-0.288317 0.293551 0)
(-0.684088 0.349513 -6.39284e-21)
(-0.620964 -0.0960284 0)
(-0.150444 0.113573 7.96146e-21)
(-0.444978 0.179956 4.12503e-21)
(-0.435877 0.143308 6.02826e-21)
(-0.404538 0.15402 -2.06174e-21)
(-0.695745 0.207366 -9.66685e-21)
(-0.440202 -0.102608 0)
(-0.305876 0.277963 -1.24248e-20)
(-0.606362 0.363478 0)
(-0.585273 0.0039007 8.9979e-21)
(-0.194683 0.0719666 -1.08203e-20)
(-0.61379 0.284496 0)
(-0.62962 0.291637 1.9599e-21)
(-0.471471 0.366911 3.29183e-21)
(-0.285988 -0.0263651 2.75067e-20)
(-0.63591 0.110575 -2.30683e-20)
(-0.703941 0.220847 -1.00051e-20)
(-0.463085 -0.114604 1.21532e-20)
(-0.280879 0.259724 1.13407e-20)
(-0.694311 0.346774 0)
(-0.143263 0.119336 -2.80117e-20)
(-0.630663 -0.113627 -7.71047e-21)
(-0.439417 0.317605 -2.34067e-20)
(-0.314604 -0.00643312 0)
(-0.610458 0.137307 7.28575e-21)
(-0.357674 0.337725 -1.44952e-20)
(-0.705604 0.16815 -7.59788e-21)
(-0.398262 -0.115349 0)
(-0.637385 0.388692 -6.33855e-21)
(-0.6303 -0.0340842 -8.00202e-21)
(-0.154352 0.0624454 4.97364e-21)
(-0.448495 0.367338 1.19093e-21)
(-0.310273 -0.0493369 0)
(-0.655212 0.125486 1.5885e-20)
(-0.647962 0.395449 0)
(-0.658369 0.38848 0)
(-0.647586 -0.0484903 -5.21527e-21)
(-0.143411 0.0625483 -1.29297e-20)
(-0.649059 -0.065457 7.38071e-21)
(-0.138814 0.0737267 1.37513e-20)
(-0.104298 0.127942 -1.07352e-20)
(-0.674274 -0.216281 0)
(-0.73011 0.320826 -7.62101e-21)
(-0.640166 0.361194 7.32226e-21)
(-0.594616 -0.0374187 0)
(-0.172547 0.0888554 4.38078e-21)
(-0.661033 -0.272578 1.3071e-20)
(-0.0204528 0.0486073 1.57553e-20)
(-0.580171 0.308367 1.47262e-20)
(-0.563414 0.179712 -6.9905e-21)
(-0.386949 0.237168 0)
(-0.371098 0.0405253 0)
(-0.658719 0.264314 1.32677e-20)
(-0.487509 -0.0550057 0)
(-0.253016 0.193536 2.43134e-20)
(-0.136851 0.13985 -8.73531e-21)
(-0.722841 0.321265 2.10486e-20)
(-0.637386 -0.166801 1.10109e-20)
(-0.354482 -0.0890628 0)
(-0.686287 0.145255 6.90597e-21)
(-0.399436 0.359748 -1.74762e-20)
(-0.513476 -0.198876 -2.62403e-20)
(-0.761919 0.209455 -6.77973e-21)
(-0.247344 0.280038 0)
(-0.469962 0.0107997 -1.79749e-20)
(-0.277377 0.165385 0)
(-0.659492 0.298706 1.46307e-20)
(-0.526539 -0.0541951 6.60486e-21)
(-0.218266 0.154604 7.42576e-21)
(-0.456063 0.00389024 1.05804e-20)
(-0.287791 0.179054 7.57115e-23)
(-0.675709 0.397697 -5.04161e-22)
(-0.0849912 0.0616313 1.04734e-20)
(-0.733188 -0.135101 -7.90408e-21)
(-0.308817 -0.0928563 0)
(-0.693143 0.109821 1.68388e-21)
(-0.460893 0.413215 0)
(-0.671955 0.303975 -1.49007e-20)
(-0.544304 -0.0696318 -8.06647e-21)
(-0.206095 0.15737 -9.12778e-21)
(-0.630535 0.225058 0)
(-0.424281 -0.0272873 -1.08039e-20)
(-0.313939 0.228671 0)
(-0.645988 0.160106 0)
(-0.350816 -0.0453413 0)
(-0.396071 0.31528 0)
(-0.542453 0.259102 -5.50423e-21)
(-0.470649 0.0608367 -9.83995e-21)
(-0.299912 0.139133 3.66127e-23)
(-0.378781 0.352219 1.79915e-20)
(-0.700238 0.156536 1.85912e-20)
(-0.380174 -0.106923 1.18329e-20)
(-0.742522 0.296778 -9.34986e-21)
(-0.631593 -0.20234 1.25475e-20)
(-0.137128 0.15969 -1.30259e-20)
(-0.521598 -0.189894 1.77203e-20)
(-0.756224 0.221108 6.87242e-21)
(-0.237143 0.264951 9.54991e-21)
(-0.567679 0.436165 -1.33783e-20)
(-0.200386 -0.0170037 1.46751e-20)
(-0.663831 0.0388292 -1.12247e-20)
(-0.652016 0.417209 3.94433e-21)
(-0.645447 0.414195 -3.5382e-21)
(-0.671924 -0.0497058 -1.66583e-21)
(-0.688915 -0.0620439 0)
(-0.122326 0.0442455 -4.77129e-21)
(-0.132948 0.0442499 -4.18732e-21)
(-0.0236327 0.0484107 -2.13212e-20)
(-0.690672 -0.260841 -1.43953e-20)
(-0.591165 0.319741 3.54082e-21)
(-0.614731 0.360993 -3.53452e-22)
(-0.0310721 0.0474702 2.48932e-20)
(-0.761709 -0.22596 0)
(-0.682028 0.236211 -2.16313e-20)
(-0.46742 -0.0816202 -3.13663e-21)
(-0.277717 0.235928 0)
(-0.11433 0.128912 -2.65542e-20)
(-0.726348 0.323991 7.57529e-21)
(-0.667105 -0.194838 0)
(-0.607462 0.417121 1.90964e-20)
(-0.620651 0.414268 -1.43382e-20)
(-0.647848 -0.00117913 8.58868e-21)
(-0.650747 -0.0152976 3.28085e-21)
(-0.169241 0.0239482 -8.26696e-21)
(-0.15724 0.0344244 -4.14306e-21)
(-0.123236 0.174099 0)
(-0.616455 -0.265307 0)
(-0.764782 0.255841 2.90667e-21)
(-0.566491 0.347849 -6.61761e-21)
(-0.0209151 0.0382114 0)
(-0.738322 -0.227117 0)
(-0.483512 0.146488 -4.87432e-23)
(-0.438123 0.21462 8.82329e-21)
(-0.368027 0.110848 4.44606e-21)
(-0.618416 0.33422 -1.18935e-20)
(-0.719375 -0.258464 6.58458e-21)
(-0.0299127 0.0554782 1.1661e-21)
(-0.548826 0.373597 0)
(-0.603264 0.0573097 -1.41149e-20)
(-0.226399 0.0254757 2.16815e-24)
(-0.742377 0.300816 6.6644e-23)
(-0.6568 -0.234406 1.81559e-20)
(-0.112522 0.144876 2.89721e-24)
(-0.58131 -0.292238 3.95592e-22)
(-0.0197802 0.0493599 -9.07983e-21)
(-0.561834 0.249152 -5.92071e-21)
(-0.46048 0.302168 -8.45237e-21)
(-0.303787 0.0351764 8.22081e-21)
(-0.57148 0.125135 2.28305e-20)
(-0.537904 0.192398 0)
(-0.393886 0.0636858 -2.22089e-20)
(-0.374398 0.207203 1.13866e-20)
(-0.677363 0.362788 0)
(-0.0563918 0.0743688 1.24674e-20)
(-0.74525 -0.219339 5.43438e-24)
(-0.55299 0.194314 0)
(-0.387731 0.0501358 -7.83942e-21)
(-0.368249 0.218315 -1.60818e-20)
(-0.470274 0.151429 9.06395e-21)
(-0.433443 0.200609 -4.68926e-21)
(-0.382476 0.122556 2.33865e-21)
(-0.408412 0.388167 8.69336e-21)
(-0.711034 0.135434 -6.66357e-21)
(-0.360629 -0.120281 1.30789e-20)
(-0.537941 0.156447 0)
(-0.349645 0.0631083 0)
(-0.418041 0.249556 1.32368e-21)
(-0.55774 0.171201 1.10655e-20)
(-0.359524 0.0492907 6.05057e-21)
(-0.4045 0.249604 1.88218e-22)
(-0.551579 0.431874 2.02972e-20)
(-0.663505 0.0506773 -1.10671e-20)
(-0.216981 -0.0292792 -1.44839e-20)
(-0.0790162 0.0872287 1.87892e-20)
(-0.0809883 0.0937311 -1.90593e-20)
(-0.726685 -0.188854 5.38147e-21)
(-0.71614 -0.200751 3.7317e-21)
(-0.695441 0.366966 0)
(-0.702694 0.357135 -6.74122e-21)
(-0.748117 0.292578 1.14679e-20)
(-0.637354 -0.216408 -1.12818e-20)
(-0.129769 0.162375 1.61128e-20)
(-0.188474 -0.0242205 -9.40471e-21)
(-0.577753 0.450925 4.18919e-21)
(-0.678548 0.0289931 1.43194e-20)
(-0.485052 0.34933 -8.26566e-21)
(-0.276205 0.00288958 -8.63101e-21)
(-0.609277 0.103326 7.20763e-21)
(-0.733749 0.17494 0)
(-0.435649 -0.151018 8.61631e-21)
(-0.329046 0.331901 2.79994e-22)
(-0.609401 -0.307231 6.51598e-21)
(-0.0428413 0.0826025 -8.46269e-21)
(-0.659906 0.25547 -5.03781e-21)
(-0.170467 0.218635 0)
(-0.773008 0.241712 0)
(-0.583364 -0.240986 7.60926e-21)
(-0.684361 0.33696 5.90008e-21)
(-0.0550466 0.0833905 0)
(-0.72161 -0.251096 -6.56746e-21)
(-0.0141016 0.0396646 -3.35666e-32)
(-0.553955 -0.279861 -6.11874e-21)
(-0.517097 0.238198 6.02252e-21)
(-0.592491 -0.241163 6.84974e-21)
(-0.0106675 0.0325057 3.34895e-32)
(-0.494175 0.277419 -5.35243e-21)
(-0.514521 -0.122308 -1.6758e-20)
(-0.712519 0.253714 0)
(-0.239134 0.222267 -2.44142e-20)
(-0.62479 -0.290037 -3.50353e-21)
(-0.0867833 0.13773 -8.63868e-21)
(-0.744605 0.257725 0)
(-0.714076 0.312999 -9.82921e-21)
(-0.601778 -0.138651 9.55937e-21)
(-0.164993 0.155681 1.27426e-20)
(-0.649333 0.404214 1.71508e-20)
(-0.0547667 0.0445344 7.60932e-21)
(-0.787881 -0.161079 0)
(-0.578341 0.264265 4.26469e-21)
(-0.282798 0.155855 -4.64378e-21)
(-0.472087 0.0266068 4.32562e-21)
(-0.607697 -0.258488 3.93566e-21)
(-0.13793 0.189075 9.09648e-21)
(-0.768674 0.251663 3.15422e-21)
(-0.72517 0.167369 -7.56675e-21)
(-0.34689 0.344338 -4.95877e-21)
(-0.417552 -0.139193 0)
(-0.484755 -0.154859 0)
(-0.733358 0.215176 0)
(-0.269693 0.276513 0)
(-0.00289204 0.0137649 0)
(-0.350922 -0.159505 -5.15022e-21)
(-0.299163 0.143681 4.55928e-21)
(-0.646229 -0.288936 6.51099e-21)
(-0.0244153 0.0551744 -1.09613e-20)
(-0.599116 0.293823 -6.11316e-21)
(-0.561277 0.253558 -1.09704e-20)
(-0.299417 0.156783 1.09156e-20)
(-0.460439 0.0424345 5.00036e-21)
(-0.639574 -0.25593 1.61909e-20)
(-0.75391 0.278917 -6.42051e-21)
(-0.109261 0.154692 0)
(-0.115422 0.170595 -9.56795e-21)
(-0.766031 0.250187 0)
(-0.612082 -0.278514 -1.21067e-20)
(-0.715975 0.341879 -6.90927e-21)
(-0.104885 0.114183 2.84752e-20)
(-0.681729 -0.183308 0)
(-0.0980395 0.0561461 -2.1523e-20)
(-0.716996 -0.105288 8.27204e-21)
(-0.668875 0.408524 0)
(-0.538643 0.443278 -2.55049e-20)
(-0.677575 0.0589202 1.41063e-20)
(-0.232733 -0.0486264 -4.60684e-21)
(-0.672575 -0.0327898 2.49664e-21)
(-0.631589 0.426585 8.33386e-21)
(-0.142269 0.0296154 -1.30724e-20)
(-0.0800902 0.0407956 -1.93431e-20)
(-0.658699 0.420973 0)
(-0.756631 -0.117313 0)
(-0.569978 0.356259 -3.98201e-21)
(-0.587655 0.367398 0)
(-0.576266 0.0399057 -1.46699e-20)
(-0.588461 0.0242804 1.56779e-20)
(-0.219726 0.0592105 2.19615e-21)
(-0.20413 0.0578321 -2.34171e-21)
(-0.552341 0.359156 3.82174e-21)
(-0.584859 0.0552738 0)
(-0.230225 0.0442698 4.22082e-21)
(-0.598255 0.429548 0)
(-0.658955 0.00732038 -1.38781e-20)
(-0.172733 0.00943909 2.98248e-21)
(-0.51064 -0.174652 -8.76324e-21)
(-0.746783 0.222325 7.02917e-21)
(-0.245563 0.261939 -1.96634e-20)
(-0.625931 -0.231802 0)
(-0.753217 0.28118 1.75067e-20)
(-0.132235 0.171449 0)
(-0.214849 0.230517 -6.32594e-21)
(-0.745167 0.245854 -4.54718e-21)
(-0.543923 -0.177142 -5.73612e-21)
(-0.632105 -0.24196 -9.41157e-22)
(-0.0125353 0.0347863 5.84523e-21)
(-0.519067 0.298062 0)
(-0.498097 0.303706 7.59773e-21)
(-0.506583 0.294215 0)
(-0.283615 0.0647659 0)
(-0.545108 0.0990895 2.79431e-20)
(-0.286382 0.0810081 0)
(-0.5289 0.091462 -1.7736e-20)
(-0.575633 0.41385 0)
(-0.557444 0.403107 0)
(-0.213168 0.00599361 3.13331e-23)
(-0.640249 0.0324017 8.59384e-21)
(-0.197929 0.0102957 2.17584e-20)
(-0.631295 0.0468007 -1.81392e-20)
(-0.560916 -0.302786 0)
(-0.0247214 0.0575742 1.23686e-20)
(-0.585903 0.237304 0)
(-0.641599 -0.247476 -9.5269e-21)
(-0.752793 0.284283 1.94591e-21)
(-0.11363 0.152996 5.73246e-21)
(-0.490397 0.380875 -1.43113e-20)
(-0.273079 -0.0295149 -9.93274e-21)
(-0.641629 0.0976522 2.3966e-20)
(-0.475075 -0.175768 1.89849e-20)
(-0.749687 0.192165 1.82951e-20)
(-0.287771 0.308849 0)
(-0.103997 0.0505282 2.30141e-20)
(-0.711418 -0.0931604 -8.80191e-21)
(-0.664074 0.413486 9.26156e-21)
(-0.680603 -0.285297 0)
(-0.663897 0.30764 0)
(-0.0408777 0.075828 0)
(-0.675376 -0.283988 0)
(-0.685974 0.301399 5.45873e-21)
(-0.0517143 0.0898698 2.08654e-21)
(-0.62485 0.399866 -7.92032e-21)
(-0.634482 -0.0206108 4.97016e-21)
(-0.160167 0.0492946 6.13249e-21)
(-0.426419 0.303607 -2.21882e-21)
(-0.32697 0.00180765 0)
(-0.602593 0.148846 -7.74452e-23)
(-0.712211 0.344931 8.0507e-21)
(-0.0938077 0.106458 1.66382e-20)
(-0.699072 -0.195348 -4.3465e-21)
(-0.51912 -0.140507 0)
(-0.724048 0.249338 0)
(-0.234502 0.232628 2.10465e-20)
(-0.126005 0.107289 5.35206e-21)
(-0.657058 -0.12794 1.32163e-20)
(-0.695898 0.358529 2.07978e-20)
(-0.543641 0.403847 0)
(-0.225069 -0.00567102 -1.45178e-20)
(-0.635897 0.0571945 9.2555e-21)
(-0.66324 0.188629 8.45865e-23)
(-0.394271 -0.0630172 8.44263e-21)
(-0.349617 0.289822 0)
(-0.470162 0.329085 1.17582e-22)
(-0.29033 0.0104243 -2.81575e-21)
(-0.598456 0.115342 -9.44508e-21)
(-0.0931103 0.114157 9.46344e-24)
(-0.693107 -0.215161 1.03139e-20)
(-0.719625 0.331918 9.09858e-21)
(-0.67643 0.367383 -3.79031e-21)
(-0.64003 -0.0898462 -3.88132e-21)
(-0.140353 0.0964146 0)
(-0.46857 0.293334 -8.24003e-21)
(-0.30372 0.0524584 1.76586e-20)
(-0.554357 0.120639 -1.50413e-20)
(-0.653889 0.419501 6.65719e-21)
(-0.0690546 0.038573 8.63299e-21)
(-0.774498 -0.132285 -6.27879e-21)
(-0.547929 0.325961 -4.83046e-21)
(-0.547011 0.0563118 0)
(-0.246377 0.0740981 0)
(-0.591372 0.211239 -1.99302e-20)
(-0.403673 0.0139055 4.87594e-21)
(-0.341301 0.223072 0)
(-0.483344 -0.135806 0)
(-0.721253 0.222584 1.42981e-20)
(-0.267424 0.263248 0)
(-0.632088 0.378983 -3.81117e-21)
(-0.0390933 0.0480645 -2.67413e-21)
(-0.783534 -0.204035 7.22951e-21)
(-0.631379 0.389862 1.05174e-20)
(-0.0407873 0.0443343 0)
(-0.791845 -0.188129 -6.88948e-21)
(-0.117738 0.0939735 4.90557e-21)
(-0.671811 -0.122737 -7.88603e-21)
(-0.689573 0.370506 -1.90739e-20)
(-0.677561 0.174869 -6.68959e-21)
(-0.389157 -0.0812456 -8.46464e-21)
(-0.361658 0.311592 0)
(-0.0302729 0.0419156 2.45015e-21)
(-0.780108 -0.213485 -6.75926e-21)
(-0.60503 0.37069 0)
(-0.153795 0.154372 0)
(-0.615739 -0.157788 -8.07393e-21)
(-0.722655 0.310701 -2.39824e-21)
(-0.0107977 0.0326471 9.86736e-21)
(-0.475606 -0.266836 6.85748e-21)
(-0.461668 0.193638 0)
(-0.420748 0.25547 -5.99656e-21)
(-0.53976 -0.203406 0)
(-0.00636471 0.0231038 9.88183e-21)
(-0.0861438 0.0510579 1.56609e-23)
(-0.740203 -0.120084 0)
(-0.666091 0.41225 0)
(-0.0756625 0.107893 0)
(-0.694053 -0.246996 0)
(-0.717149 0.322704 1.2281e-20)
(-0.693082 0.372174 -7.04324e-21)
(-0.696243 0.369198 5.70008e-21)
(-0.0860455 0.0830625 -9.41817e-21)
(-0.720859 -0.165884 -1.76276e-21)
(-0.0966003 0.0898622 -1.52282e-20)
(-0.701485 -0.155558 3.16823e-21)
(-0.730221 0.296864 4.61331e-21)
(-0.602515 -0.16569 5.32113e-21)
(-0.16332 0.169466 0)
(-0.315097 0.334954 0)
(-0.451086 -0.171834 0)
(-0.748389 0.177025 0)
(-0.50583 0.267381 0)
(-0.305692 0.106672 -2.40337e-20)
(-0.499191 0.0923782 9.73839e-21)
(-0.734964 0.268336 1.31217e-20)
(-0.562723 -0.164315 1.95259e-21)
(-0.195956 0.204144 1.86657e-20)
(-0.213207 0.219996 1.21534e-20)
(-0.735155 0.25701 -1.82417e-20)
(-0.545054 -0.161688 -2.70988e-21)
(-0.651941 0.433963 7.42623e-21)
(-0.0863676 0.0309121 9.2594e-21)
(-0.754426 -0.0981255 1.37006e-20)
(-0.579188 0.424708 0)
(-0.652098 0.0278695 4.12491e-21)
(-0.190976 0.00209937 -2.13257e-20)
(-0.562249 0.385406 0)
(-0.613505 0.0459561 1.85376e-20)
(-0.214243 0.0217314 3.14513e-23)
(-0.703025 0.278531 -1.67632e-20)
(-0.539047 -0.11292 2.35234e-21)
(-0.214279 0.190881 -1.05713e-20)
(-0.712618 0.270759 0)
(-0.537333 -0.125698 2.20761e-21)
(-0.217042 0.201431 9.73948e-21)
(-0.456394 0.275777 0)
(-0.319239 0.0626765 -2.78833e-20)
(-0.542235 0.129923 8.40804e-21)
(-0.589245 0.379026 0)
(-0.601421 0.0198169 0)
(-0.195635 0.0459691 3.19064e-21)
(-0.150704 0.206472 -1.97047e-20)
(-0.591187 -0.260916 -2.14629e-20)
(-0.776823 0.240227 0)
(-0.69782 0.283281 7.53389e-21)
(-0.0554151 0.0973122 0)
(-0.647928 -0.295543 4.69164e-21)
(-0.688668 0.263655 -9.22455e-23)
(-0.0524942 0.0954181 0)
(-0.625936 -0.302264 -1.34788e-20)
(-0.514722 0.345181 5.72612e-21)
(-0.257289 0.0332935 -3.06969e-21)
(-0.583799 0.0834013 -1.19627e-22)
(-0.653546 -0.292117 1.82428e-22)
(-0.033879 0.0683089 1.67686e-20)
(-0.641204 0.290668 0)
(-0.680304 0.377095 1.63424e-20)
(-0.124447 0.0880069 1.02896e-20)
(-0.664563 -0.103052 0)
(-0.0346433 0.0713409 -2.49169e-21)
(-0.614796 -0.305064 -7.31663e-21)
(-0.636255 0.262786 0)
(-0.525642 0.211507 1.35497e-20)
(-0.356692 0.180617 1.44544e-20)
(-0.419617 0.0769158 6.7137e-23)
(-0.634254 0.308159 -2.44496e-21)
(-0.527945 -0.0244198 -2.40194e-21)
(-0.224185 0.137901 -1.09006e-20)
(-0.366517 -0.0706822 1.92669e-20)
(-0.668692 0.162602 1.55902e-20)
(-0.38476 0.324398 0)
(-0.0966503 0.146734 0)
(-0.628992 -0.280241 -4.38313e-21)
(-0.751766 0.263791 0)
(-0.506202 -0.146277 0)
(-0.72757 0.237585 0)
(-0.246215 0.24618 0)
(-0.0649296 0.0477334 0)
(-0.659263 0.406972 -6.3054e-21)
(-0.77389 -0.148346 6.15281e-21)
(-0.65075 0.312576 0)
(-0.539414 -0.0440934 1.19003e-21)
(-0.212228 0.14151 1.06638e-20)
(-0.497799 0.255044 0)
(-0.319923 0.115319 2.06236e-20)
(-0.488315 0.098783 0)
(-0.64903 -0.267529 -1.53208e-20)
(-0.743675 0.283653 6.09596e-21)
(-0.0947705 0.139444 0)
(-0.133923 0.12867 -1.12421e-20)
(-0.643037 -0.153123 5.14309e-22)
(-0.712393 0.334653 1.59116e-22)
(-0.656767 0.36309 0)
(-0.647186 0.358462 7.20587e-21)
(-0.0453701 0.062788 -6.1387e-21)
(-0.040375 0.0609245 -7.55855e-21)
(-0.757557 -0.22224 -4.42415e-21)
(-0.753012 -0.233279 3.63765e-21)
(-0.651358 0.238953 0)
(-0.449255 -0.0498202 3.23618e-20)
(-0.288757 0.221959 1.15323e-20)
(-0.492766 -0.105236 2.35041e-20)
(-0.699857 0.245465 0)
(-0.252161 0.227956 -1.27788e-20)
(-0.571011 0.227554 -1.12192e-20)
(-0.425252 0.0317353 8.33123e-21)
(-0.322519 0.19114 1.77314e-20)
(-0.649014 -0.290581 1.02174e-20)
(-0.721519 0.280609 8.02732e-21)
(-0.632777 -0.295627 -4.87666e-21)
(-0.0686118 0.113216 0)
(-0.728181 0.265791 -7.75582e-21)
(-0.0735493 0.120458 0)
(-0.680393 0.322951 0)
(-0.574932 -0.0862286 0)
(-0.183715 0.141864 1.19435e-20)
(-0.73347 0.294355 1.09323e-20)
(-0.723871 0.292345 -2.04285e-20)
(-0.66429 -0.266986 6.70179e-21)
(-0.665364 -0.277825 -1.67889e-20)
(-0.0826866 0.124685 1.68737e-20)
(-0.0719568 0.113587 4.07643e-25)
(-0.6945 0.236048 0)
(-0.472559 -0.100144 -2.16398e-20)
(-0.273579 0.246864 1.65778e-20)
(-0.624946 0.264698 1.06305e-20)
(-0.487634 -0.0268147 -1.44331e-20)
(-0.253232 0.17108 0)
(-0.651134 0.394537 0)
(-0.051013 0.0501225 0)
(-0.782606 -0.178763 6.61786e-21)
(-0.649047 0.252534 7.81942e-21)
(-0.465853 -0.0444509 -8.99442e-21)
(-0.273247 0.205245 -1.91482e-20)
(-0.590507 0.239558 4.53659e-21)
(-0.439325 0.0123923 -9.76577e-21)
(-0.305467 0.188696 1.04111e-20)
(-0.648247 0.373194 0)
(-0.0455086 0.0564276 0)
(-0.772646 -0.209854 -9.10158e-21)
(-0.648609 0.327561 0)
(-0.561486 -0.0433606 2.55964e-21)
(-0.194327 0.123366 -1.1869e-20)
(-0.404404 -0.143623 0)
(-0.728823 0.156858 0)
(-0.364462 0.365223 -6.40777e-22)
(-0.539585 0.415359 -6.50483e-22)
(-0.649222 0.0607723 0)
(-0.227221 -0.0201199 2.25953e-20)
(-0.531035 -0.218606 1.02909e-20)
(-0.227277 0.273279 0)
(-0.772492 0.211735 0)
(-0.00601526 0.0222455 -2.37466e-20)
(-0.457214 -0.209095 7.20775e-21)
(-0.39419 0.194907 -6.38225e-21)
(-0.651191 0.281107 0)
(-0.499367 -0.0430701 8.86411e-21)
(-0.241889 0.172787 -9.80286e-21)
(-0.675184 0.384002 1.1769e-20)
(-0.0649875 0.0666627 3.18784e-20)
(-0.75455 -0.176469 0)
(-0.269483 -0.0704815 -6.04337e-21)
(-0.685023 0.0848352 -9.22569e-21)
(-0.499966 0.43061 -5.77907e-21)
(-0.506044 0.314686 0)
(-0.0125321 0.0312086 -8.8887e-21)
(-0.668958 -0.22781 0)
(-0.392947 0.269843 1.10409e-20)
(-0.39917 0.288265 -1.13085e-20)
(-0.353363 0.0083726 0)
(-0.594592 0.170085 9.65207e-21)
(-0.347906 -0.00791755 -1.8054e-20)
(-0.611165 0.162692 -7.77874e-21)
(-0.569504 0.212172 1.05553e-20)
(-0.405641 0.0356055 1.10051e-20)
(-0.344396 0.208757 0)
(-0.438503 0.29365 9.74462e-21)
(-0.416474 0.277252 0)
(-0.319657 0.0251791 -9.98942e-21)
(-0.579903 0.140012 8.65491e-21)
(-0.335883 0.026743 1.00636e-20)
(-0.577402 0.154877 6.19232e-23)
(-0.637923 0.277977 6.75523e-22)
(-0.466707 -0.0175716 -6.26374e-21)
(-0.27439 0.184956 -1.28575e-20)
(-0.629764 0.254256 -1.82829e-20)
(-0.458857 -0.0235823 1.66115e-22)
(-0.283096 0.198309 0)
(-0.0624965 0.109793 0)
(-0.614553 -0.306373 0)
(-0.7112 0.254353 8.47352e-21)
(-0.535034 0.345289 -5.28196e-21)
(-0.575578 0.0698255 0)
(-0.245449 0.0464359 5.69003e-21)
(-0.729592 0.308873 -1.94954e-20)
(-0.67565 -0.251346 7.70758e-21)
(-0.0849597 0.122026 -9.62588e-21)
(-0.703355 0.29458 0)
(-0.712821 0.29876 9.46655e-21)
(-0.562312 -0.11574 -2.93073e-21)
(-0.57968 -0.131288 9.40148e-21)
(-0.193419 0.173425 -1.32031e-20)
(-0.180922 0.169905 -1.2307e-20)
(-0.533721 0.328414 0)
(-0.556887 0.0694926 0)
(-0.253788 0.0622898 2.67165e-21)
(-0.600472 0.403564 6.32489e-21)
(-0.630317 0.00834242 0)
(-0.180317 0.0320659 7.11289e-21)
(-0.680357 0.295043 -4.80934e-21)
(-0.538056 -0.0836876 0)
(-0.209565 0.170326 0)
(-0.462799 0.225463 1.06677e-20)
(-0.478669 0.126593 -5.21078e-21)
(-0.351615 0.117581 5.54152e-21)
(-0.723887 0.277951 0)
(-0.561837 -0.146283 0)
(-0.196643 0.194555 -1.98449e-20)
(-0.490766 0.274624 0)
(-0.304636 0.0887554 3.05239e-21)
(-0.516624 0.104118 0)
(-0.687766 0.253211 -1.06655e-20)
(-0.488503 -0.0914857 -1.20647e-20)
(-0.256466 0.219014 -1.65205e-21)
(-0.604465 0.387738 6.39687e-21)
(-0.614042 0.003716 0)
(-0.182005 0.0465216 1.46119e-20)
(-0.47011 0.242864 -1.05763e-20)
(-0.458205 0.247984 -4.74046e-21)
(-0.492664 0.118969 5.11274e-21)
(-0.33538 0.106689 -1.09497e-20)
(-0.509533 0.127362 0)
(-0.333964 0.0914482 -1.95655e-20)
(-0.435586 0.264211 -4.81814e-21)
(-0.332306 0.0545596 1.30302e-20)
(-0.419605 0.267955 3.10267e-21)
(-0.547024 0.143236 -1.16543e-20)
(-0.342377 0.0374824 -6.24712e-21)
(-0.566868 0.156544 1.80387e-22)
(-0.568548 0.341025 5.72461e-21)
(-0.587737 0.338381 0)
(-0.558248 0.0392013 1.08339e-20)
(-0.553897 0.0235792 -8.45392e-21)
(-0.2277 0.0739369 -1.26696e-20)
(-0.221132 0.0873745 2.10824e-20)
(-0.104604 0.06894 0)
(-0.699203 -0.109335 -4.85639e-21)
(-0.675526 0.394576 -9.89906e-21)
(-0.384116 0.368663 7.75745e-21)
(-0.713911 0.149885 1.0507e-20)
(-0.383157 -0.124329 -2.05493e-20)
(-0.096426 0.0722838 -1.07231e-20)
(-0.101967 0.0839007 8.57499e-21)
(-0.709522 -0.1288 4.19779e-21)
(-0.695515 -0.136925 7.20466e-21)
(-0.68095 0.390822 2.53977e-20)
(-0.689744 0.377945 -1.32355e-20)
(-0.454886 0.384912 1.05468e-20)
(-0.306829 -0.0620352 -9.52564e-21)
(-0.667522 0.117464 2.2771e-21)
(-0.455495 0.195288 1.79259e-20)
(-0.38418 0.144746 0)
(-0.446768 0.134739 -1.78504e-20)
(-0.722881 0.290606 -4.57261e-21)
(-0.580867 -0.148258 -1.06146e-20)
(-0.181041 0.179329 0)
(-0.510864 0.317007 0)
(-0.269039 0.0552106 -2.54696e-21)
(-0.556045 0.0881414 -9.0669e-21)
(-0.614988 0.386932 0)
(-0.61528 -0.00698807 0)
(-0.174463 0.0543923 -1.3616e-20)
(-0.661387 0.407291 -1.05554e-20)
(-0.665352 0.39543 0)
(-0.688004 -0.0790944 2.55409e-21)
(-0.117834 0.0567878 -1.305e-20)
(-0.672546 -0.0799592 -6.96377e-21)