/*--------------------------------*- C++ -*----------------------------------*\
  =========                 |
  \\      /  F ield         | OpenFOAM: The Open Source CFD Toolbox
   \\    /   O peration     | Website:  https://openfoam.org
    \\  /    A nd           | Version:  6
     \\/     M anipulation  |
\*---------------------------------------------------------------------------*/
FoamFile
{
    version     2.0;
    format      ascii;
    class       volVectorField;
    location    "0";
    object      U_rec;
}
// * * * * * * * * * * * * * * * * * * * * * * * * * * * * * * * * * * * * * //

dimensions      [0 1 -1 0 0 0 0];

internalField   nonuniform List<vector> 
918
(
(0.985866 -0.0032833 0)
(-0.0119886 2.99392 0)
(-0.00865783 1.71251 0)
(0.979165 0.00495203 0)
(-0.00865878 1.67569 5.66044e-17)
(0.00499357 2.98496 -1.97391e-17)
(0.943445 1.40995 5.32832e-18)
(0.482362 0.254878 2.96729e-19)
(0.996628 0.00072613 0)
(0.0414923 1.64029 0)
(-0.00627053 1.61897 0)
(0.904581 -0.0022191 0)
(-0.00154483 2.99009 0)
(0.004315 2.89114 0)
(0.000129445 2.90856 1.98635e-17)
(-0.00531164 1.64729 3.42191e-17)
(0.651189 0.1431 -3.99015e-18)
(0.199813 1.78028 -3.5408e-17)
(0.982462 0.00802166 0)
(0.00503826 1.65284 0)
(0.00413109 0.027685 7.96742e-18)
(0.98832 0.00866177 0)
(1.00461 0.00960064 0)
(1.01363 -0.00125101 0)
(0.821974 -0.00862451 0)
(0.0213207 2.92187 0)
(-0.00583461 2.9407 -9.47385e-17)
(-0.0115664 1.73135 0)
(0.0024933 1.76701 0)
(-0.0146023 1.73293 0)
(-0.00912176 1.78954 0)
(-0.00875085 1.69084 5.62579e-17)
(-0.00389126 1.64837 0)
(0.00939816 3.01315 9.01066e-22)
(0.00782308 3.02455 -6.19818e-17)
(0.0214936 3.01375 0)
(0.939048 -0.00377727 0)
(0.560744 1.13273 -1.26687e-17)
(0.946957 1.43077 -1.35628e-17)
(1.07124 1.24517 2.72303e-17)
(0.801119 1.56472 9.14578e-18)
(0.779062 1.54048 1.67086e-17)
(0.507901 0.31458 5.59898e-21)
(0.53908 0.232934 0)
(1.26914 0.67724 0)
(0.428679 0.32741 -1.73998e-19)
(0.419374 0.236267 1.13541e-18)
(0.953108 -0.00215067 0)
(0.996867 0.00267453 0)
(0.996703 0.00304307 0)
(0.992812 0.00332459 0)
(0.982278 0.00840653 0)
(0.997232 0.0124086 0)
(0.0213792 1.57997 6.432e-18)
(0.0330607 1.73398 0)
(0.060854 1.67183 0)
(0.0183626 1.73226 0)
(0.0171745 1.63172 0)
(-0.00776315 1.66163 0)
(-0.0070587 1.68783 0)
(-0.00508828 1.61892 0)
(-0.014122 1.697 0)
(-0.00776341 1.63023 0)
(0.971982 0.00733718 0)
(0.941326 0.00796768 0)
(0.915919 -0.00167866 0)
(0.932967 0.011121 0)
(0.887469 0.00649283 0)
(-0.0182641 3.04549 2.15171e-17)
(-0.00246627 2.97517 0)
(-0.030223 3.02716 0)
(0.024968 3.04413 -9.51469e-23)
(-0.00580781 3.02644 4.31517e-17)
(0.0201653 3.01374 0)
(0.00680368 2.95564 0)
(0.00240472 2.96601 -2.20935e-23)
(0.00405291 2.89666 0)
(0.00986517 2.97293 0)
(0.00661948 2.8776 0)
(0.273527 3.19289 0)
(-0.0662818 3.2707 0)
(0.0935218 2.96988 4.92709e-18)
(-0.000545862 2.81014 0)
(0.0082107 1.75336 0)
(-0.00368857 1.69653 3.26441e-17)
(-0.00107836 1.64758 3.43571e-17)
(0.694908 0.170495 -3.11394e-18)
(0.683812 0.0956756 3.74906e-18)
(0.655487 0.207411 2.48269e-17)
(0.63584 0.165613 -6.10611e-18)
(0.205634 1.35949 0)
(0.252649 1.82455 -4.54976e-17)
(0.399167 1.73265 -3.49665e-17)
(0.994703 0.00646933 0)
(0.971308 0.00537895 0)
(0.995627 -0.00569286 0)
(1.00192 0.00128685 0)
(1.00367 0.0144938 1.58346e-16)
(1.00534 0.0132462 1.05418e-16)
(-0.000963276 1.7041 0)
(0.0033562 1.65648 0)
(-0.00497075 1.73821 0)
(-0.0110343 1.71282 0)
(-0.000636041 1.66155 0)
(-0.00232063 0.258018 -3.38579e-18)
(0.188865 0.178051 0)
(1.01255 -0.015243 0)
(0.983446 -0.00109763 0)
(0.905916 0.0326726 0)
(0.869856 0.0401239 0)
(0.855792 0.00964153 0)
(1.09535 0.00742042 0)
(0.830189 0.0244029 0)
(0.773252 -0.00753279 1.37049e-17)
(-0.0215979 2.87751 1.84202e-17)
(0.00481684 2.9836 0)
(-0.0500482 3.02504 0)
(0.0051508 2.86746 0)
(-0.00499519 2.98469 -3.71094e-17)
(-0.00109812 2.9315 0)
(-0.00951422 2.98776 -3.0802e-18)
(-0.0124744 2.95128 2.01024e-17)
(0.00349904 1.77544 0)
(0.00217545 1.77234 0)
(0.002745 1.70074 4.70214e-21)
(-0.00291811 1.69651 0)
(0.0011822 1.64583 0)
(0.96954 0.00285197 0)
(0.941646 0.00429546 0)
(0.926505 -0.00405668 0)
(0.969823 -0.00293475 0)
(0.939455 -0.00159575 0)
(0.631997 1.25373 -2.9187e-18)
(0.730946 1.30098 0)
(0.451377 1.05162 -1.51376e-18)
(0.46268 0.951874 0)
(1.06084 1.26331 1.63546e-17)
(1.16973 1.05041 5.64793e-18)
(0.425599 1.7635 0)
(0.625044 1.67449 0)
(0.597854 1.64007 0)
(0.335536 0.5349 -4.57859e-18)
(0.55771 0.297196 0)
(0.578751 0.227875 -4.96181e-18)
(1.14698 1.07876 0)
(1.21452 0.880672 0)
(1.23363 0.8511 -5.91702e-18)
(1.27472 0.698314 0)
(1.29883 0.508504 -2.85366e-17)
(0.971532 0.00438232 0)
(0.972648 -0.00472858 0)
(0.94477 -3.25536e-05 0)
(0.998424 -0.00662275 0)
(0.985248 -0.00594829 0)
(0.971169 -0.000377471 0)
(0.989744 -0.00322689 0)
(0.987403 -0.00040026 0)
(0.997439 -0.00192264 0)
(0.0248421 1.60743 2.82202e-17)
(0.0328331 1.54996 0)
(0.0211435 1.64153 -5.59687e-18)
(0.011179 1.59838 5.83485e-18)
(0.0893304 1.8058 -4.3483e-17)
(0.0491876 1.77191 0)
(0.0927908 1.72719 0)
(0.005735 1.7157 0)
(0.0115979 1.60627 0)
(-0.00764052 1.70375 3.78859e-20)
(0.00379303 1.66606 0)
(-0.00887008 1.70466 -3.14676e-17)
(-0.000309547 1.65957 -3.44547e-18)
(0.00355589 1.69994 0)
(-0.00473943 1.69375 0)
(0.00173496 1.60921 0)
(-0.0105829 1.70687 0)
(-0.00457549 1.6443 0)
(1.00874 0.0190272 0)
(0.989936 0.00541365 0)
(0.992938 0.00981313 0)
(0.962652 0.00309741 0)
(0.923724 -0.00290047 0)
(0.956856 0.00585501 0)
(0.950832 0.00811417 0)
(0.918695 0.00376767 0)
(0.0103975 3.04212 7.78324e-20)
(0.0163006 3.03585 0)
(0.010584 2.99197 0)
(0.00581577 2.9354 0)
(0.985224 3.70629 0)
(1.35085 2.76673 -5.66889e-19)
(0.0104169 2.88745 0)
(-0.0116772 2.80487 0)
(0.000163385 1.76841 0)
(0.00480721 1.754 0)
(0.0025203 1.7561 0)
(-0.00133325 1.77735 -7.53587e-17)
(0.00489616 1.7574 0)
(0.00394538 1.76942 0)
(0.00280422 1.6478 -6.69185e-17)
(0.00242312 1.70121 -3.46615e-17)
(-0.00208602 1.69669 3.23762e-17)
(-0.000928263 1.64579 0)
(0.717829 0.134674 -2.08624e-17)
(0.712776 0.0742053 -8.94027e-18)
(0.197571 1.36109 0)
(0.268101 1.26407 1.26138e-18)
(0.133636 1.44282 -2.47431e-17)
(0.128652 1.43096 -3.30411e-17)
(0.942228 0.00812781 0)
(0.980259 0.0105711 0)
(0.98605 0.0114356 0)
(0.957584 0.011893 0)
(-0.00449019 1.71007 0)
(0.00391099 1.70617 0)
(0.00317856 1.65137 0)
(0.347847 0.329199 -4.09461e-18)
(0.226161 0.297244 4.20066e-18)
(0.318792 0.209195 0)
(1.19009 0.102058 -9.0361e-19)
(1.19403 0.0526121 0)
(1.09835 0.0510483 0)
(1.03645 0.000406553 0)
(0.746761 0.10647 0)
(0.784238 0.0614357 4.52558e-17)
(0.738638 0.052763 -2.59947e-17)
(-0.0164708 2.95859 -3.70294e-17)
(-0.0104234 2.90644 -5.68539e-17)
(0.00921498 3.03234 1.54027e-19)
(0.0370993 3.02095 -3.88923e-17)
(-0.0162057 3.00023 -3.01366e-19)
(-0.0152608 2.98008 1.17486e-21)
(-0.0139751 3.03277 -1.07284e-18)
(0.00356287 2.99404 -9.75756e-18)
(0.0569897 3.026 -2.64201e-17)
(0.988936 0.00454132 0)
(0.980649 0.0118766 0)
(0.954001 0.00534874 0)
(0.970402 0.0103766 0)
(0.961825 0.00461431 0)
(0.9253 0.00712192 0)
(0.959323 -0.00335517 0)
(0.957756 -0.00146436 0)
(0.922979 -0.00786803 0)
(0.800317 1.46244 5.59408e-18)
(0.8822 1.5212 0)
(0.358656 0.547926 1.00643e-18)
(0.353014 0.767398 -5.77682e-18)
(0.378272 0.874288 -1.0852e-17)
(0.417474 0.753004 -2.10278e-17)
(0.436036 0.912435 -4.95787e-18)
(0.334828 0.682443 1.83943e-17)
(0.639149 0.234376 -1.50162e-17)
(0.602037 0.270861 -4.37336e-18)
(0.612899 0.195715 2.65572e-18)
(1.29843 0.524004 -2.24684e-17)
(1.30214 0.329096 6.55177e-18)
(0.00513225 1.65901 -3.50346e-17)
(0.00529719 1.61782 0)
(1.05015 0.027259 0)
(1.02569 0.0159629 0)
(1.0051 -0.00188084 0)
(0.0135696 3.04795 0)
(0.0122148 2.96977 -4.0691e-17)
(0.0107467 2.98129 0)
(0.00430865 2.91577 -1.7118e-17)
(0.0102243 3.05915 1.37647e-17)
(0.0103521 3.05432 0)
(0.861697 1.75155 -4.20568e-18)
(1.20311 2.33004 -6.96408e-18)
(0.940692 1.83852 -1.82932e-17)
(-0.0276989 2.92268 3.65807e-17)
(-0.0235881 2.88586 0)
(-0.0212123 2.84066 0)
(-0.0131059 1.69665 6.64463e-17)
(0.00528244 1.69214 2.54397e-18)
(-0.0077438 1.64172 6.63508e-17)
(0.25732 1.28866 -1.79458e-17)
(0.315791 1.16552 -1.06561e-17)
(0.0373074 1.57102 -3.36143e-17)
(0.0741043 1.51069 -2.58668e-17)
(0.0621396 1.49654 -5.99378e-17)
(-0.0249166 3.07257 1.33352e-16)
(-0.0127348 3.069 9.21936e-17)
(0.00485909 2.9871 2.06563e-17)
(-0.00958539 2.98247 -1.99506e-17)
(0.00204466 2.93457 3.72987e-17)
(0.0161092 3.06543 -7.84117e-17)
(-0.00729864 3.05699 -1.38928e-16)
(0.437858 0.824443 0)
(0.373337 0.768705 9.18043e-19)
(0.325638 0.451375 -1.92891e-17)
(0.411808 1.01887 2.79673e-17)
(0.380659 0.865591 2.90038e-17)
(1.27521 0.20436 -3.76562e-18)
(1.30659 0.361817 0)
(1.27219 0.181936 3.32425e-18)
(-0.00238805 1.69647 3.83717e-20)
(0.00720492 1.67679 0)
(0.00463906 1.64556 0)
(0.297935 1.19296 1.79839e-18)
(0.350818 1.11518 -3.03933e-17)
(0.348861 1.0341 -3.31646e-17)
(1.0007 -0.020565 0)
(1.00191 -0.0111908 8.79483e-18)
(0.000584185 1.77613 0)
(-0.00986733 1.79208 0)
(1.00431 -0.0010458 4.65486e-19)
(1.00301 0.00249522 8.56228e-18)
(0.00225772 1.77432 -7.47998e-17)
(0.00213104 1.77519 0)
(-0.0221988 2.9795 2.00983e-17)
(0.29956 3.00836 0)
(1.10364 0.703415 -2.44189e-17)
(1.00285 0.00578601 8.37415e-17)
(1.00488 -0.00855853 0)
(1.00588 -0.00136584 3.51922e-19)
(-0.0162638 1.83117 0)
(0.0057297 1.70094 0)
(-0.0035532 1.80292 0)
(0.0288768 1.73237 -7.60753e-17)
(0.000882544 1.75302 7.23368e-17)
(0.988722 0.0118899 8.20783e-17)
(1.03458 0.020894 0)
(1.05943 0.0304878 0)
(0.0066657 1.76547 0)
(0.00912099 1.76004 0)
(-0.0100129 1.77582 0)
(0.0926076 1.76265 -8.51827e-17)
(1.00806 -0.0140456 0)
(1.00922 -0.0176138 0)
(0.997828 0.00408173 -2.52354e-17)
(0.99516 -0.00522558 3.16565e-17)
(0.998553 -0.00530076 0)
(-0.00117904 1.76417 0)
(0.00155841 1.77226 0)
(0.00211864 1.76376 0)
(-0.00370445 1.7798 0)
(-0.0187123 1.77659 0)
(-0.00876351 1.77293 0)
(1.01257 0.00910431 0)
(1.01064 0.00313681 8.39115e-17)
(0.801916 1.36658 1.51332e-18)
(1.00047 -0.00694892 2.55873e-17)
(0.998738 0.00305155 -3.13923e-17)
(1.00464 0.0031081 0)
(0.998679 0.00993674 3.0612e-17)
(1.0076 0.0127301 5.46803e-17)
(1.00498 0.0079674 0)
(0.0104472 1.76448 0)
(0.00777062 1.76493 -3.85976e-17)
(0.00447043 1.76264 -3.33196e-17)
(1.14864 0.258518 -6.78504e-17)
(1.09111 0.0827193 0)
(-0.225075 2.97602 3.48528e-17)
(-0.244324 3.21474 1.05347e-18)
(-0.0267514 3.02824 3.79573e-17)
(-0.0320888 2.98454 3.86229e-17)
(0.0488999 2.96349 0)
(-0.0267787 3.02996 1.11651e-17)
(-0.0889346 3.13347 1.66274e-17)
(-0.0790752 3.02122 2.17177e-17)
(-0.0565305 3.09823 0)
(0.646805 0.347577 0)
(0.509115 0.387759 0)
(1.08336 0.833501 2.43504e-17)
(1.06551 0.89437 4.37846e-17)
(1.12899 0.622933 0)
(1.14313 0.561387 0)
(1.00398 0.00451532 2.34726e-17)
(1.00081 0.00572508 -2.63344e-17)
(1.00637 -0.0085936 0)
(1.00524 -0.0102054 0)
(1.00628 0.00386527 0)
(1.00869 0.00657624 0)
(1.00511 0.00535267 0)
(1.00357 0.00750842 0)
(1.00327 0.00352161 0)
(0.993776 0.0055557 0)
(-0.0029238 1.83401 0)
(-0.0165152 1.84734 0)
(0.0110784 1.82885 0)
(-0.00395909 1.83004 0)
(0.00951279 1.69507 0)
(0.0175463 1.69438 3.64613e-17)
(0.0137374 1.69896 0)
(-0.00277741 1.69121 3.05063e-17)
(0.0314162 1.6998 -6.66039e-17)
(-0.0110854 1.80591 0)
(-0.0008457 1.79974 0)
(0.00638703 1.81066 0)
(-0.00199844 1.82683 0)
(0.0356204 1.76779 -7.2452e-17)
(-0.0141613 1.73942 -4.92982e-17)
(0.0256135 1.73951 3.50746e-17)
(0.00277044 1.75004 0)
(0.0245792 1.75872 3.37484e-17)
(0.0084936 1.76352 -6.89247e-17)
(0.00518584 1.78684 -1.1461e-16)
(-0.00218577 1.73175 -4.45845e-17)
(0.024278 1.73715 4.06338e-17)
(0.992453 0.0169338 -1.72516e-17)
(0.995629 0.00229722 2.35648e-17)
(0.987402 0.0280959 2.16682e-17)
(0.973838 0.0222189 -2.24092e-17)
(1.03001 0.0111193 0)
(1.0338 0.00950767 0)
(1.0457 0.0323597 0)
(1.03369 0.0225134 0)
(1.04386 0.0124666 0)
(1.08344 0.0649154 0)
(1.06325 0.0593281 0)
(1.08222 0.0411765 0)
(-0.000763517 1.76875 9.85382e-18)
(0.00844662 1.7499 0)
(-0.00742455 1.75423 0)
(0.00185957 1.76009 -1.51951e-17)
(0.0043209 1.7631 4.34207e-20)
(-0.0077843 1.78555 4.29364e-17)
(-0.0192824 1.77517 4.45278e-17)
(-0.00156858 1.77127 0)
(-0.029048 1.77657 0)
(-0.00964778 1.77045 0)
(-0.000310547 1.77863 0)
(-0.00464634 1.78807 0)
(0.213637 1.71634 -4.93643e-17)
(0.288679 1.66732 4.31243e-17)
(0.326414 1.59959 7.13673e-19)
(0.163392 1.62767 2.68985e-17)
(0.0783688 1.935 3.50745e-17)
(1.00533 -0.017558 0)
(1.00934 -0.012115 0)
(1.00876 -0.0151825 0)
(1.0071 -0.00144692 0)
(0.998013 -0.00447099 0)
(0.989883 -0.00271691 0)
(1.00297 -0.00685082 0)
(0.999427 -0.0072774 0)
(1.00937 0.000926541 -1.78696e-17)
(1.01113 -7.01302e-05 2.54444e-17)
(1.00956 0.00599034 2.23833e-17)
(1.0043 0.00627489 -2.46773e-17)
(0.748368 1.44571 0)
(0.677927 1.46452 -7.14542e-17)
(0.873065 1.32143 7.3612e-17)
(0.933121 1.24697 6.14092e-17)
(1.02934 2.13291 -3.38558e-17)
(0.810996 0.124596 -2.37996e-17)
(1.10115 0.129895 0)
(1.15879 0.195394 -8.57794e-17)
(1.14059 0.138189 4.48741e-19)
(0.951996 0.142793 0)
(-0.0855672 2.71119 4.64699e-17)
(-0.369579 2.61653 7.73975e-17)
(-0.789743 2.67935 1.93798e-18)
(-0.635788 0.241816 -9.35279e-18)
(0.201191 3.00113 -1.6981e-17)
(0.0573694 2.9944 0)
(0.14078 2.97993 -5.37042e-18)
(0.0191263 2.71903 8.87688e-17)
(0.195015 2.74428 0)
(-0.0218869 3.05868 -7.2832e-19)
(-0.0348675 3.06955 -1.89457e-17)
(-0.00554536 3.10046 -3.55447e-17)
(-0.0348379 3.11328 0)
(-0.0504829 3.05448 0)
(1.16211 2.17733 0)
(0.508614 1.06244 5.1553e-17)
(1.02354 1.08122 -3.68542e-17)
(0.990268 1.19107 0)
(0.853421 1.0544 -1.21499e-17)
(1.04566 1.0142 -6.09845e-17)
(0.179681 0.416718 3.56246e-18)
(0.658594 0.348505 1.19126e-17)
(0.689187 0.305761 9.97686e-18)
(0.454342 0.457681 -1.0504e-19)
(0.425059 0.398995 8.87662e-18)
(0.60777 0.391424 0)
(0.581767 0.477625 6.69781e-18)
(0.60447 0.436709 0)
(0.535849 0.416353 0)
(0.58732 0.35844 0)
(0.682927 0.68819 2.97027e-17)
(1.15601 0.329487 4.53406e-17)
(1.1732 0.460034 0)
(1.17322 0.38694 0)
(0.760712 0.231753 1.55915e-17)
(0.732407 0.63865 3.82771e-17)
(0.615112 0.568573 6.2132e-18)
(0.859826 0.435168 -7.38939e-17)
(1.00624 0.00169566 2.57937e-17)
(1.00243 0.0151024 5.36222e-17)
(1.00274 0.0114558 0)
(1.00845 0.0155999 0)
(1.00122 -0.00670381 -2.53326e-17)
(0.99926 0.000742311 -5.11309e-17)
(1.0097 0.00115846 0)
(1.00236 0.00182996 0)
(1.01205 0.00265045 0)
(1.00816 0.0061397 0)
(1.01614 0.00223532 0)
(1.01149 -0.0026625 0)
(0.00371526 1.84636 0)
(0.00993861 1.84049 0)
(-0.0254184 1.80916 -4.84425e-17)
(0.0554596 1.79931 -3.7275e-17)
(0.0293557 1.83172 8.08632e-17)
(0.0117559 1.81523 2.80337e-17)
(-0.00789694 1.80033 0)
(0.00497504 1.80497 7.46813e-17)
(-0.0241752 1.79333 0)
(0.04984 1.92203 3.90881e-17)
(0.124465 1.79628 -4.80122e-17)
(0.00256131 1.81878 6.68663e-17)
(0.0285818 1.76345 -3.85134e-17)
(-0.00871332 1.78889 -4.24697e-17)
(-0.0182991 1.75261 -5.39395e-18)
(0.0046665 1.84203 0)
(0.0304655 1.84367 -5.50015e-17)
(0.0244263 1.71955 6.66032e-18)
(0.0220261 1.68904 0)
(-0.0084032 1.7001 -7.47202e-17)
(0.00171936 1.69815 0)
(0.00863517 1.68578 3.56135e-17)
(0.00986987 1.68586 0)
(0.0351968 1.77609 5.54783e-17)
(0.0572624 1.78294 0)
(0.0330073 1.80409 0)
(0.0205142 1.80233 5.02632e-17)
(0.00920444 1.71486 -1.16207e-16)
(0.0388768 1.70746 -7.17061e-17)
(0.0192629 1.71782 -2.73832e-20)
(0.00926118 1.75546 7.49419e-17)
(-0.00654647 1.7812 -3.9532e-17)
(-0.00716876 1.79592 0)
(-0.0133865 1.80203 0)
(0.0326646 1.77015 2.737e-17)
(0.0283907 1.81095 2.29638e-17)
(0.0408732 1.78643 6.29032e-17)
(0.0125243 1.77154 0)
(0.00325765 1.76009 1.03066e-16)
(-0.00649673 1.76042 1.59128e-17)
(0.00394788 1.76708 -1.88702e-17)
(0.0156322 1.77317 7.79511e-17)
(0.01807 1.73284 -3.43074e-18)
(0.00787218 1.74108 -4.60668e-17)
(1.00011 0.0125482 5.26342e-17)
(0.995493 0.00238081 2.60598e-17)
(0.995568 0.00651183 0)
(0.987715 0.0553564 -7.52692e-17)
(0.964449 0.0475333 2.1714e-17)
(0.947881 0.0339098 -1.45856e-17)
(0.984601 0.101404 2.45764e-18)
(1.0188 0.0112241 0)
(1.02407 0.0148675 -5.18378e-17)
(1.02563 0.0084973 -2.6124e-17)
(1.02452 0.0374752 3.57972e-18)
(1.02436 0.0317424 -1.23879e-17)
(1.00595 0.0404754 0)
(0.996005 0.0389431 1.06719e-18)
(0.995389 0.0261331 0)
(0.997445 0.0250296 0)
(1.00864 0.0204961 0)
(1.00036 0.00836771 0)
(1.00029 0.0271485 2.33635e-18)
(1.00439 0.0202226 3.3505e-17)
(1.02002 0.0373908 -4.02319e-18)
(1.0059 0.0323004 1.21469e-17)
(1.00448 0.0562427 2.32723e-17)
(1.03155 0.054933 0)
(1.02783 0.0900878 0)
(0.00641087 1.77014 -5.18893e-17)
(0.0191082 1.74829 -7.66209e-19)
(-0.00330896 1.76174 0)
(0.0122992 1.77146 -5.41296e-17)
(0.00678032 1.7746 8.75845e-18)
(0.00927133 1.76596 -3.79312e-18)
(-0.000398423 1.76234 -7.76145e-17)
(0.00889852 1.75965 -9.70281e-20)
(0.011085 1.7543 -5.32164e-18)
(-0.00387944 1.76029 3.43575e-17)
(-0.00179564 1.76446 3.24739e-17)
(0.00448512 1.76579 -2.28598e-17)
(-0.00419538 1.76914 -3.91417e-17)
(0.0995249 1.61742 2.39488e-17)
(0.0414417 1.74841 -1.11361e-17)
(0.623369 1.52075 -8.39208e-17)
(0.419599 1.60776 3.74206e-17)
(0.509178 1.57054 0)
(0.35073 1.61863 -4.34581e-18)
(0.432173 1.53663 -1.31422e-18)
(0.217885 1.60405 -7.29422e-18)
(0.206094 1.71697 -2.982e-17)
(0.255004 1.75736 -3.08906e-17)
(0.308629 1.60047 0)
(0.246537 1.59139 -1.11275e-17)
(0.0703774 1.67465 -2.73389e-18)
(0.128897 1.64502 6.13391e-17)
(0.0676524 1.64767 1.09888e-17)
(0.750953 1.91756 -3.91482e-17)
(0.58972 1.72606 0)
(1.01271 -0.00128097 -4.01333e-19)
(1.00128 -0.0154504 4.32445e-19)
(1.00028 -0.0203334 -4.80416e-18)
(1.02078 -0.00928664 -1.85051e-17)
(1.02023 -0.00324732 0)
(0.726812 1.25857 0)
(0.728929 1.21957 0)
(0.774254 1.22492 0)
(0.74911 1.2045 0)
(1.00651 2.17662 2.86898e-17)
(0.925056 1.97936 0)
(0.796293 2.0917 -1.12872e-18)
(0.549671 2.18629 0)
(0.694739 2.21319 7.63213e-17)
(0.779464 2.17018 6.44633e-17)
(0.804369 0.157848 0)
(0.791692 0.15591 -1.85023e-18)
(0.869012 0.136373 3.7712e-18)
(0.82702 0.116564 -2.6578e-17)
(0.845392 0.086002 5.15022e-18)
(1.00586 0.24693 -1.95335e-17)
(0.881673 0.300746 2.83442e-17)
(0.860993 0.285483 2.07673e-17)
(0.934725 0.207676 8.16635e-18)
(0.878752 0.168075 4.66324e-17)
(0.869951 0.185139 -1.16827e-17)
(0.888649 0.246043 3.50082e-18)
(0.863616 0.214373 0)
(0.948908 0.190136 1.81787e-17)
(0.985996 0.186985 0)
(0.975322 0.238966 0)
(1.03348 0.12681 -1.46839e-17)
(0.999178 0.188833 3.11948e-17)
(0.988694 0.21911 2.23743e-17)
(1.04117 0.20995 0)
(0.99081 0.0282809 -4.08155e-17)
(0.996313 0.0303293 2.46478e-17)
(1.00042 0.0353858 -2.14904e-17)
(1.00406 0.0493979 4.63586e-17)
(0.985305 0.05374 -4.94377e-17)
(0.926666 0.144187 0)
(0.957899 0.0816568 0)
(0.941901 0.0493319 4.69926e-17)
(0.916462 0.051457 7.49302e-18)
(0.997321 0.10298 -4.33948e-17)
(1.00598 0.133342 -1.98669e-17)
(1.00861 0.16013 -1.4589e-17)
(0.986127 0.158148 0)
(1.01106 0.0931906 0)
(1.00541 0.0831869 3.80005e-17)
(0.993887 0.0849472 -2.20191e-17)
(0.771107 1.35839 2.48784e-17)
(0.755341 1.53477 -1.87438e-17)
(0.978414 2.23765 2.18548e-17)
(1.01598 2.49875 -3.04569e-18)
(1.06697 2.22917 -2.01399e-17)
(1.13207 2.26073 2.75247e-18)
(1.12456 2.00303 8.16399e-18)
(1.0421 2.40072 -1.26472e-17)
(1.04922 2.38639 -1.86615e-17)
(1.07633 2.60312 -2.70836e-18)
(1.1996 2.472 3.82505e-18)
(1.26516 2.42419 0)
(0.475303 1.11925 -3.13192e-18)
(-0.169808 1.42205 -1.62015e-17)
(0.037284 0.600737 -9.02531e-18)
(-0.0939361 0.811523 -1.98909e-17)
(0.349401 0.456273 -1.12475e-17)
(0.362864 0.509466 7.01184e-18)
(0.311171 0.591339 -9.70924e-18)
(0.224705 0.470797 3.76561e-18)
(0.322524 0.379592 -1.0047e-17)
(0.737729 0.272586 2.56896e-17)
(0.697214 0.300895 0)
(0.719576 0.26669 6.10485e-18)
(0.59058 0.569467 -1.31895e-17)
(0.513001 0.533982 1.87123e-17)
(0.426378 0.582825 -5.83863e-18)
(0.493243 0.482275 0)
(0.580389 0.931791 -2.63847e-17)
(0.760404 0.868621 4.46864e-17)
(0.693632 1.01432 5.38526e-17)
(0.782948 0.905101 1.44104e-17)
(0.909786 0.907207 -3.83488e-18)
(0.912589 0.966741 -6.09996e-18)
(0.774753 0.754062 8.82827e-18)
(0.833114 0.810104 8.84116e-18)
(0.927201 0.84507 0)
(0.930328 0.734423 2.73e-17)
(0.936535 0.319442 4.90802e-17)
(1.05893 0.308593 -2.26152e-17)
(0.988066 0.292321 -5.22465e-17)
(0.898177 0.396353 5.00741e-17)
(0.983446 0.455975 0)
(1.02703 0.423423 0)
(0.776558 0.405321 4.99773e-17)
(0.794161 0.286584 0)
(0.784651 0.282906 -1.64934e-17)
(0.851126 0.311663 6.80502e-17)
(0.822788 0.501963 -9.63416e-17)
(0.761047 0.554756 -3.20424e-18)
(0.789041 0.508227 1.06114e-17)
(0.705803 0.471886 -4.21714e-18)
(0.693386 0.491886 -7.48739e-18)
(0.642003 0.474368 6.65201e-19)
(1.01798 0.0119998 -5.12839e-17)
(1.01637 -0.000360278 0)
(1.02412 0.00563452 7.93164e-18)
(1.00828 0.0148284 -8.06722e-18)
(1.02083 0.00874265 -2.67805e-17)
(1.01247 0.0128753 9.02232e-18)
(1.00684 0.00805913 0)
(1.00914 0.000576242 1.42581e-17)
(1.01699 0.00735879 -3.9955e-18)
(1.01054 0.00649472 -1.67993e-18)
(1.01182 0.00418308 7.54255e-18)
(-0.00387311 1.82659 0)
(0.0176799 1.82843 0)
(0.0215443 1.83524 0)
(0.00354719 1.83379 0)
(-0.0027402 1.82658 -8.9796e-18)
(-0.0137927 1.83106 -1.06522e-16)
(-0.0298191 1.79388 -3.16765e-17)
(-0.0320255 1.83517 -8.66953e-17)
(0.0127172 1.80863 5.89128e-17)
(0.0232725 1.8235 5.97025e-17)
(0.00394427 1.83933 1.19768e-16)
(0.0131149 1.84366 5.90282e-17)
(0.0135279 1.83368 1.03483e-17)
(0.0141879 1.84242 1.71722e-18)
(-0.00885137 1.70087 -6.71152e-17)
(0.00825895 1.71739 0)
(-0.0120899 1.7475 -4.15207e-17)
(-0.0321521 1.78853 -5.92983e-18)
(0.049956 1.78332 -1.72249e-17)
(0.0690849 1.71021 0)
(0.0670494 1.72257 5.7111e-17)
(0.0796357 1.76392 4.68338e-17)
(0.034282 1.76657 -6.02873e-17)
(0.0149471 1.75993 -8.31898e-17)
(0.00543912 1.69429 0)
(0.0298008 1.7438 3.44269e-17)
(0.0219145 1.71055 -1.93789e-17)
(0.0277655 1.73799 0)
(0.0377041 1.71863 2.09833e-17)
(0.0186239 1.72637 1.63489e-17)
(0.00326304 1.78907 9.30158e-18)
(-0.00640452 1.77974 -9.71126e-17)
(-0.0152772 1.77701 -6.67626e-17)
(-0.0155943 1.77482 4.54615e-17)
(0.00735941 1.77561 0)
(0.0140212 1.78352 0)
(0.0039366 1.78361 -3.97285e-17)
(0.00186924 1.76761 -3.42123e-18)
(0.00307418 1.77714 0)
(-0.00592743 1.79561 3.2527e-17)
(0.00163837 1.78939 2.0349e-18)
(1.01379 0.0301578 0)
(1.01885 0.0252288 6.88695e-19)
(1.00054 0.0193246 4.73586e-17)
(1.01263 0.0161278 0)
(1.00973 0.00959112 0)
(1.01016 0.00166507 2.1343e-17)
(1.00937 0.00942218 -5.94104e-17)
(1.00301 0.00551705 -2.32674e-17)
(0.999698 0.00534384 0)
(1.00536 0.00895569 0)
(1.0018 0.0128827 2.62175e-17)
(0.999404 0.01421 0)
(1.00471 0.012604 0)
(-0.0054433 1.76822 0)
(0.00207152 1.76882 -4.12597e-17)
(0.00454345 1.75635 4.23365e-17)
(0.00334906 1.76407 0)
(0.0109268 1.77623 -3.93576e-17)
(-0.000361431 1.76896 -1.86966e-17)
(-0.00403642 1.76481 0)
(0.199114 2.09646 0)
(-0.0321693 1.8125 2.8167e-17)
(0.0333724 1.95344 0)
(0.104122 1.61315 7.61058e-17)
(0.281679 1.41116 0)
(0.193197 1.57342 3.65881e-17)
(0.848964 2.26357 -1.97858e-19)
(0.766478 1.99146 -2.2063e-17)
(0.737166 1.86057 -2.62678e-17)
(0.626611 1.78131 -8.98751e-18)
(0.617825 2.09262 0)
(0.686098 2.10736 0)
(0.70908 1.88185 0)
(0.698963 1.77232 -1.40989e-19)
(0.314605 2.18909 -3.61022e-17)
(0.501028 2.12733 4.42037e-18)
(0.481573 2.20635 2.07975e-18)
(0.444877 1.63245 0)
(0.537912 1.70104 0)
(0.515304 1.6099 1.64707e-18)
(0.443928 2.01032 0)
(0.725515 1.20258 0)
(0.605398 1.1807 -5.94716e-17)
(0.584288 1.13532 -5.72899e-18)
(0.721836 1.21713 0)
(0.630805 1.25114 -7.70863e-17)
(0.737069 1.05147 -8.73958e-18)
(0.797737 1.17358 0)
(0.801005 1.08306 -3.16922e-17)
(0.709744 1.21991 0)
(0.632434 1.14684 0)
(0.965498 2.26621 1.60317e-17)
(0.965379 2.31244 -8.30891e-18)
(0.881693 2.03533 -4.24032e-17)
(0.88679 2.06075 -2.12821e-18)
(0.942982 2.25989 0)
(0.894509 2.26923 -5.92614e-18)
(0.880207 2.09125 -3.30702e-18)
(0.808559 1.89054 -7.6283e-18)
(0.680235 1.73669 0)
(0.697107 1.29573 3.23547e-17)
(0.696314 1.27821 0)
(0.819812 0.203447 0)
(0.789209 0.189544 0)
(0.765575 0.20063 0)
(0.812764 0.239428 -4.31926e-18)
(0.763859 0.224536 3.20682e-18)
(0.922161 0.0746447 1.54907e-17)
(0.90878 0.116072 0)
(0.874831 0.09748 -1.69765e-18)
(0.858204 0.073123 -8.48251e-18)
(0.872033 0.0522081 -2.73552e-18)
(1.0536 2.76174 -1.74836e-17)
(1.00124 2.66751 0)
(0.950892 2.84309 -5.68864e-17)
(0.596225 3.04571 -2.69345e-17)
(0.742254 2.58798 1.44618e-17)
(0.474261 1.19189 -2.82384e-17)
(0.51487 1.1476 0)
(0.241506 0.826742 7.38458e-18)
(0.261909 0.943513 3.72282e-17)
(0.194055 0.793613 1.0764e-17)
(0.262098 0.633317 4.24239e-18)
(0.479536 0.614153 -1.1032e-17)
(0.510626 0.670706 0)
(0.47145 0.772301 0)
(0.351019 0.728607 0)
(0.905981 0.674121 9.17217e-18)
(0.833787 0.602825 1.06309e-17)
(0.848649 0.636382 -5.76586e-18)
(0.860485 0.525633 2.29297e-17)
(0.968731 0.555386 0)
(0.953492 0.609509 -9.7807e-18)
(0.74826 0.426111 1.43979e-17)
(0.757733 0.374556 3.05871e-17)
(0.691575 0.421468 -7.24088e-18)
(0.697981 0.39077 5.32038e-18)
(0.769989 0.333245 -6.40461e-18)
(0.744792 0.320247 -1.95877e-17)
(1.02301 0.00723398 -3.48046e-17)
(1.02041 0.0038214 -4.16809e-17)
(1.02491 0.014251 3.22116e-17)
(1.02299 0.0122785 5.56209e-17)
(1.01054 0.0235564 0)
(0.997536 0.0132311 -6.04176e-18)
(0.0185249 1.76668 2.58323e-17)
(0.01811 1.78606 0)
(-0.0189449 1.77626 -4.88839e-17)
(-0.0280319 1.77546 -5.43799e-17)
(-0.0352308 1.79048 -3.72777e-17)
(-0.0153677 1.80105 0)
(0.0316969 1.78255 0)
(0.016687 1.77255 -1.89408e-17)
(0.00320215 1.75839 -1.98901e-17)
(-0.000550719 1.76771 -4.89637e-17)
(-0.00966838 1.76827 -9.60283e-18)
(0.024014 1.77049 -4.42237e-18)
(0.558191 1.75775 -1.05872e-16)
(0.402588 1.82414 -1.32445e-16)
(0.219922 1.61358 7.82479e-17)
(0.223799 1.90108 -5.08556e-18)
(0.636468 1.27435 0)
(0.410531 1.38095 7.81142e-17)
(0.506061 1.30974 6.43236e-17)
(0.321487 1.31298 6.39662e-17)
(0.520633 1.35712 0)
(0.634437 1.23314 0)
(0.265945 2.15369 -4.99662e-17)
(0.335498 1.90015 -6.94613e-17)
(0.387705 1.96907 -5.1977e-17)
(0.300226 1.85879 -1.80273e-18)
(0.185507 2.03148 1.07358e-18)
(0.232198 1.82053 -1.67897e-17)
(0.765195 1.99995 -7.96472e-18)
(0.811629 2.01857 0)
(0.748251 1.86473 7.12481e-18)
(0.877637 2.24884 0)
(0.856806 2.25062 0)
(0.550534 2.01392 -1.80169e-19)
(0.945727 2.51427 -8.30888e-19)
(0.815109 2.5016 -3.46329e-18)
(0.170205 1.23592 0)
(0.189806 1.17034 -1.35734e-17)
(0.445556 1.10495 -3.34968e-17)
(0.346132 1.95096 0)
(0.380191 2.36004 5.05667e-18)
(0.198205 2.30935 0)
(0.623303 0.83684 -9.92056e-18)
(0.656862 0.829587 -5.35897e-17)
(0.669711 0.773275 -1.66687e-17)
(0.502772 0.798975 -1.25568e-18)
(0.56866 0.700489 3.65263e-18)
(0.853415 2.30646 -1.19111e-17)
(0.927777 2.28405 -4.94615e-18)
(0.613988 1.93431 5.56745e-18)
(0.628387 1.68468 3.16307e-17)
(0.747099 1.72619 4.23135e-17)
(0.875025 2.07734 -2.87275e-17)
(0.900589 2.05743 -2.19563e-17)
(0.677522 1.69505 4.74407e-19)
(0.604776 1.41411 3.07228e-17)
)
;

boundaryField
{
    wall-4
    {
        type            calculated;
        value           uniform (0 0 0);
    }
    velocity-inlet-5
    {
        type            calculated;
        value           uniform (1 0 0);
    }
    velocity-inlet-6
    {
        type            calculated;
        value           uniform (0 3 0);
    }
    pressure-outlet-7
    {
        type            calculated;
        value           nonuniform List<vector> 8((-0.00857412 1.71276 0) (-0.00875883 1.6753 5.66044e-17) (0.00297199 1.76708 0) (-0.00844186 1.78926 0) (0.00837382 1.75292 0) (0.00253525 1.77187 0) (0.00259788 1.75562 0) (0.00425193 1.76898 0));
    }
    wall-8
    {
        type            calculated;
        value           uniform (0 0 0);
    }
    frontAndBackPlanes
    {
        type            empty;
    }
}

