/*--------------------------------*- C++ -*----------------------------------*\
  =========                 |
  \\      /  F ield         | OpenFOAM: The Open Source CFD Toolbox
   \\    /   O peration     | Website:  https://openfoam.org
    \\  /    A nd           | Version:  6
     \\/     M anipulation  |
\*---------------------------------------------------------------------------*/
FoamFile
{
    version     2.0;
    format      ascii;
    class       volVectorField;
    location    "0";
    object      U;
}
// * * * * * * * * * * * * * * * * * * * * * * * * * * * * * * * * * * * * * //

dimensions      [0 1 -1 0 0 0 0];

internalField   nonuniform List<vector> 
13046
(
(-0.827037 0.365521 0)
(-0.635452 -0.0108239 -8.5653e-21)
(-0.307186 -0.0983492 -1.91961e-20)
(-0.784836 0.267461 0)
(-0.353464 -0.00365562 -1.74422e-20)
(-0.535269 -0.0564569 0)
(-0.856038 0.309729 2.53055e-21)
(-0.545762 -0.0861011 4.37463e-21)
(-0.326543 -0.00224284 -1.92164e-20)
(-1.52517 0.786759 6.48897e-21)
(-0.85056 -0.271486 0)
(-0.0378928 -0.147178 1.28159e-20)
(-1.01987 0.463918 -8.10579e-21)
(-0.641105 -0.0752782 -1.35301e-20)
(-0.246517 -0.100556 1.05593e-20)
(-1.4851 0.867394 -9.18143e-21)
(-0.0866094 -0.186972 3.06756e-20)
(-0.890457 -0.182183 6.94166e-21)
(-0.499437 0.131834 0)
(-0.439881 -0.0799181 -9.3396e-21)
(-0.691162 0.148636 2.63867e-20)
(-1.49763 0.858616 -3.6546e-21)
(-0.0750045 -0.17764 -4.09893e-20)
(-0.88 -0.201147 0)
(-0.718987 0.255148 1.07181e-20)
(-0.582704 -0.00247375 -2.10388e-20)
(-0.355192 -0.0480784 0)
(-1.02963 0.50096 -1.46439e-20)
(-0.663176 -0.0681193 3.95539e-21)
(-0.237344 -0.121638 -1.8291e-20)
(-0.838723 0.39161 0)
(-0.665765 0.00976816 0)
(-0.300829 -0.124078 1.95354e-20)
(-0.654513 0.20655 -1.24452e-20)
(-0.383659 -0.0320731 6.48467e-21)
(-0.572341 0.0177958 3.66928e-20)
(-0.637976 0.178753 -1.91529e-20)
(-0.409272 -0.00119134 9.92541e-21)
(-0.544563 0.0107013 -1.89331e-20)
(-0.68593 0.345291 1.39458e-20)
(-0.374755 -0.20062 3.58528e-21)
(-0.820659 0.129266 -1.28963e-20)
(-0.564303 0.0944543 8.6225e-21)
(-0.489064 0.0602156 1.48639e-20)
(-0.497742 0.0187238 0)
(-0.607631 0.117138 5.44507e-21)
(-0.47809 0.0745986 -2.27665e-20)
(-0.476089 -0.0121559 -2.82817e-21)
(-0.858948 0.369528 0)
(-0.61484 -0.0384321 -6.15049e-22)
(-0.28917 -0.0837561 1.07534e-23)
(-0.463541 -0.287226 2.20598e-20)
(-0.575787 0.331787 0)
(-1.06053 0.252094 -1.56303e-20)
(-0.494668 -0.302909 -3.14114e-20)
(-1.13561 0.292963 -2.46656e-20)
(-0.515967 0.29313 2.19265e-20)
(-0.875545 -0.0246757 -3.09522e-21)
(-1.28131 0.827654 0)
(-0.224121 -0.259541 1.67731e-20)
(-1.29366 0.536285 -7.532e-21)
(-0.647341 -0.215108 8.0267e-21)
(-0.196766 -0.0246787 -4.47546e-20)
(-0.0838332 -0.143899 2.34597e-20)
(-0.804389 -0.221306 -5.09094e-21)
(-1.51751 0.767325 -1.12816e-20)
(-1.21742 0.807556 0)
(-0.893507 0.0134488 0)
(-0.25633 -0.280996 0)
(-1.16509 0.767558 -5.98551e-21)
(-0.886788 0.0261255 0)
(-0.268922 -0.27848 1.33314e-20)
(-0.892101 -0.0334129 0)
(-1.32465 0.861111 2.49032e-22)
(-0.210533 -0.264401 1.91167e-24)
(-0.529233 0.164775 0)
(-0.421101 -0.103197 1.01378e-20)
(-0.712679 0.135848 -1.88057e-20)
(-0.167632 -0.237529 1.86311e-20)
(-1.3921 0.882983 -1.71768e-20)
(-0.882188 -0.0866471 0)
(-0.766738 0.281605 5.61605e-21)
(-0.569878 -0.0246844 0)
(-0.338571 -0.0371307 0)
(-0.0736427 -0.149834 -2.10717e-20)
(-0.821141 -0.230203 -3.95339e-21)
(-1.536 0.785805 6.66372e-21)
(-1.57393 0.676532 -1.16179e-20)
(-0.0825113 -0.0816667 0)
(-0.74887 -0.293999 -3.94324e-21)
(-0.10663 -0.01254 0)
(-1.64662 0.591397 0)
(-0.705669 -0.376187 5.28281e-22)
(-1.30386 0.660122 0)
(-1.36121 0.678828 6.73396e-21)
(-0.731858 -0.140619 1.56315e-20)
(-0.740213 -0.167359 -7.33545e-21)
(-0.162094 -0.138771 -9.63913e-21)
(-0.142939 -0.129203 2.47186e-20)
(-0.0953942 -0.0618157 -1.18919e-21)
(-1.57097 0.652864 1.13708e-20)
(-0.730436 -0.309103 0)
(-0.656282 0.15761 -3.42203e-23)
(-0.445914 0.0600964 1.20115e-20)
(-0.483608 -0.0331956 0)
(-0.429452 0.198007 0)
(-1.06335 0.310112 -7.63959e-21)
(-0.500598 -0.243201 0)
(-0.58072 0.309792 2.41713e-20)
(-0.436404 -0.244573 0)
(-0.959096 0.214387 -2.94115e-20)
(-1.39171 0.733738 0)
(-0.0137771 -0.130616 0)
(-0.829987 -0.311948 -5.63502e-21)
(-0.949397 0.419943 2.23517e-20)
(-0.622454 -0.0615924 5.71596e-21)
(-0.265767 -0.0854656 1.9206e-20)
(-1.36082 0.745503 8.68662e-21)
(-1.30685 0.698942 -1.64454e-20)
(-0.784989 -0.12843 -1.32466e-20)
(-0.152211 -0.174496 1.105e-20)
(-0.756473 -0.119889 8.04018e-21)
(-0.164745 -0.162824 -1.03233e-20)
(-1.50139 0.791888 -4.8942e-21)
(-0.85918 -0.27572 -7.91653e-21)
(-0.0336139 -0.148567 -5.73859e-21)
(-1.17841 0.596248 0)
(-0.70368 -0.103561 -1.0399e-20)
(-0.195742 -0.140597 2.2451e-20)
(-0.746924 0.384186 0)
(-0.349407 -0.194197 -1.77758e-20)
(-0.789895 0.0964494 7.4619e-22)
(-0.132199 0.00847669 0)
(-1.62088 0.575827 0)
(-0.693388 -0.365612 0)
(-1.45981 0.697829 0)
(-0.752572 -0.217331 -2.03527e-20)
(-0.114393 -0.112714 -2.6605e-20)
(-0.900996 0.431025 0)
(-0.680222 -0.005663 0)
(-0.2823 -0.140735 0)
(-1.04895 0.386745 0)
(-0.55912 -0.170448 0)
(-0.299021 0.0313567 0)
(-0.546087 0.290694 0)
(-0.46093 -0.258134 0)
(-1.0129 0.247851 1.58234e-20)
(-0.434703 0.181687 -2.52386e-21)
(-1.02565 0.299088 -1.65201e-20)
(-0.496126 -0.226811 1.91948e-20)
(-1.33686 0.567458 1.71991e-20)
(-0.669964 -0.218012 0)
(-0.172046 -0.050769 5.82083e-20)
(-0.400156 0.111431 0)
(-0.920739 0.280639 1.79437e-20)
(-0.492008 -0.164286 -4.86682e-21)
(-0.555338 -0.309033 0)
(-1.25898 0.382703 1.73958e-20)
(-0.584523 -0.311065 0)
(-1.31954 0.427912 9.93988e-21)
(-0.384162 0.196156 0)
(-0.322792 0.144583 0)
(-1.07959 0.361333 2.276e-21)
(-0.538803 -0.20904 1.01291e-20)
(-0.334203 0.084395 -1.10451e-20)
(-1.55353 0.769382 -6.64596e-21)
(-0.0349931 -0.138882 0)
(-0.829453 -0.289868 -9.8269e-21)
(-1.43549 0.758356 -4.19699e-21)
(-0.0208335 -0.139208 -2.62747e-21)
(-0.85013 -0.2956 0)
(-1.47375 0.724432 -9.54556e-21)
(-0.769835 -0.213222 0)
(-0.105295 -0.127059 3.02481e-20)
(-0.84765 0.495987 0)
(-0.85666 0.0999722 4.13524e-21)
(-0.342991 -0.244401 1.04068e-20)
(-1.0336 0.334057 1.49934e-20)
(-0.369681 0.117841 5.28616e-21)
(-0.518815 -0.20186 0)
(-0.0358916 -0.119429 0)
(-0.796919 -0.311483 0)
(-1.59449 0.728921 5.42936e-21)
(-0.791657 0.448291 0)
(-0.846811 0.114926 -8.94478e-21)
(-0.356128 -0.229529 2.69825e-21)
(-0.398541 0.129757 0)
(-0.94556 0.284504 0)
(-0.489068 -0.18079 0)
(-0.990616 0.348983 7.47578e-21)
(-0.542661 -0.155431 0)
(-0.314143 0.0324766 0)
(-0.644495 -0.11497 -5.97144e-23)
(-0.222748 -0.0870513 -1.30164e-20)
(-1.13174 0.555165 2.31944e-20)
(-0.683505 -0.0951966 0)
(-0.209791 -0.126453 -2.8133e-20)
(-1.57045 0.733476 -1.17105e-20)
(-0.0660647 -0.117822 1.91088e-20)
(-0.788548 -0.273297 -1.91394e-20)
(-0.125603 -0.0141408 1.75211e-20)
(-1.57981 0.599635 7.22667e-21)
(-0.7027 -0.336069 1.96803e-20)
(-1.62859 0.637791 -1.91055e-20)
(-0.733348 -0.339814 0)
(-0.079979 -0.0529063 -1.72107e-20)
(-0.470578 -0.332327 -1.13357e-21)
(-1.12907 0.255535 6.98055e-21)
(-0.638131 0.417599 0)
(-0.987887 0.39659 -3.38349e-20)
(-1.37226 0.893029 8.97779e-21)
(-0.182898 -0.249422 -1.14473e-20)
(-0.896996 -0.0726382 0)
(-0.747544 -0.343326 0)
(-1.63024 0.664584 -1.62853e-20)
(-0.0603767 -0.0743179 0)
(-0.676699 0.190516 -2.76277e-20)
(-0.408349 0.024327 -9.74644e-21)
(-0.51353 -0.0254417 2.78501e-20)
(-0.994214 0.496448 0)
(-0.680222 -0.0429437 -5.69843e-22)
(-0.25552 -0.135576 -1.07091e-20)
(-0.13783 0.00582909 1.34346e-20)
(-1.59052 0.585791 0)
(-0.69176 -0.352504 -2.26724e-20)
(-1.04675 0.435905 2.70605e-20)
(-0.626922 -0.127802 2.44819e-20)
(-0.231734 -0.0672529 0)
(-0.0183817 -0.133668 0)
(-0.818441 -0.317171 8.47872e-21)
(-1.51384 0.744285 0)
(-0.574434 0.365842 0)
(-1.17739 0.2818 0)
(-0.491974 -0.338112 0)
(-1.60195 0.633453 1.67517e-20)
(-0.72388 -0.327674 0)
(-0.0941717 -0.0480291 -4.61138e-23)
(-1.19553 0.39549 6.56759e-21)
(-0.55991 -0.259985 -7.78661e-21)
(-0.321575 0.114432 0)
(-1.17228 0.616774 0)
(-0.718976 -0.0869632 9.71286e-21)
(-0.202068 -0.155965 1.76331e-20)
(-0.645147 -0.373988 -2.81788e-20)
(-1.53876 0.497088 -1.33263e-20)
(-0.236809 0.105724 1.06173e-20)
(-1.38508 0.444908 0)
(-0.601262 -0.332147 -1.1101e-20)
(-0.308607 0.142764 -3.81594e-22)
(-0.0119111 -0.12817 -1.69082e-20)
(-0.799506 -0.332172 0)
(-1.51319 0.720939 -4.24437e-21)
(-0.683723 0.390918 1.29144e-20)
(-0.40596 -0.25351 -1.29447e-20)
(-0.931546 0.17429 1.29648e-21)
(-1.29973 0.763183 4.17832e-21)
(-0.0243994 -0.133566 -2.46877e-20)
(-0.870642 -0.263855 0)
(-0.451856 0.0920083 -5.68229e-21)
(-0.713015 0.175203 -2.13561e-20)
(-0.461952 -0.0753536 2.7852e-20)
(-1.21155 0.445926 7.73572e-21)
(-1.16559 0.401204 4.41299e-23)
(-0.589033 -0.229492 -1.87574e-20)
(-0.561277 -0.239002 0)
(-0.309972 0.0901986 1.00418e-20)
(-0.261402 0.0439833 -1.03952e-20)
(-0.147602 -0.227376 -2.43898e-20)
(-1.42007 0.889443 9.22601e-21)
(-0.89225 -0.101942 -1.70018e-20)
(-1.11498 0.592401 0)
(-0.725278 -0.0559194 0)
(-0.226632 -0.166597 -2.32235e-20)
(-1.44441 0.483361 -3.54436e-21)
(-0.625133 -0.341576 0)
(-0.263073 0.108147 0)
(-1.41625 0.727846 -8.23777e-21)
(-0.770315 -0.171391 0)
(-0.127179 -0.146814 1.10067e-20)
(-0.550447 0.104537 5.82471e-21)
(-0.529608 0.0427517 8.46455e-21)
(-0.472826 0.0330144 -2.91424e-21)
(-1.29276 0.438778 -1.26803e-20)
(-0.590572 -0.286154 0)
(-0.290787 0.105191 -1.75444e-20)
(-1.12378 0.619824 0)
(-0.747782 -0.0460053 1.2121e-20)
(-0.228014 -0.183707 -1.49639e-20)
(-1.0759 0.471128 0)
(-1.13825 0.510198 2.69851e-21)
(-0.696856 0.411642 4.6888e-21)
(-0.41013 -0.269475 3.76211e-20)
(-0.958667 0.183194 -3.11847e-20)
(-1.34185 0.478506 -1.28728e-20)
(-0.613566 -0.285995 1.63151e-20)
(-0.245613 0.0649334 1.60079e-20)
(-1.45193 0.738488 0)
(-0.112831 -0.141088 -3.88045e-20)
(-0.77895 -0.190238 -1.01358e-20)
(-0.584734 0.290503 -3.33638e-20)
(-0.425516 -0.228851 0)
(-0.92051 0.205553 9.96437e-21)
(-0.408861 0.230377 -2.05671e-20)
(-1.27844 0.374427 -1.00662e-20)
(-0.552641 -0.330352 0)
(-1.27499 0.731705 -8.52223e-21)
(-0.792785 -0.0736995 -1.06585e-20)
(-0.189919 -0.201304 6.85713e-21)
(-0.632276 0.378845 1.70084e-21)
(-0.447072 -0.29023 0)
(-1.03904 0.233584 2.1585e-20)
(-1.32283 0.766983 0)
(-1.35891 0.775532 0)
(-0.808891 -0.0877643 -6.91246e-21)
(-0.177262 -0.203381 -1.78412e-20)
(-0.805942 -0.113564 9.7777e-21)
(-0.158907 -0.190345 1.89438e-20)
(-0.0462442 -0.126446 -1.48098e-20)
(-0.804974 -0.291452 0)
(-1.5843 0.749089 -8.00306e-21)
(-1.25081 0.67523 9.79168e-21)
(-0.747914 -0.0993728 0)
(-0.182893 -0.168807 6.06906e-21)
(-0.773401 -0.317273 1.62493e-20)
(-0.00654598 -0.108899 2.16132e-20)
(-1.22692 0.679549 7.94314e-21)
(-0.831488 0.227121 -9.82539e-21)
(-0.440182 0.122716 0)
(-0.465149 -0.136857 0)
(-1.22224 0.50479 1.79214e-20)
(-0.628669 -0.191969 0)
(-0.212325 -0.0283753 3.41866e-20)
(-0.0800346 -0.11947 -1.21063e-20)
(-1.54414 0.730291 2.42294e-20)
(-0.778857 -0.253663 1.43948e-20)
(-0.504894 -0.317942 0)
(-1.17192 0.30233 9.11795e-21)
(-0.509363 0.310702 -2.484e-20)
(-0.661717 -0.367484 -3.44761e-20)
(-1.56152 0.529541 -8.0042e-21)
(-0.194843 0.0647795 0)
(-0.595632 -0.110894 -2.46228e-20)
(-0.263286 -0.0441936 0)
(-1.25497 0.569656 1.94423e-20)
(-0.669146 -0.165032 8.86889e-21)
(-0.181764 -0.0865976 1.03955e-20)
(-0.58009 -0.129793 1.44847e-20)
(-0.270572 -0.0230903 7.91126e-23)
(-1.48177 0.862232 -5.85011e-22)
(-0.0987614 -0.191391 1.43941e-20)
(-0.878423 -0.167123 -1.01989e-20)
(-0.45962 -0.349811 0)
(-1.13132 0.241559 2.22908e-21)
(-0.691815 0.468166 0)
(-1.30719 0.601011 -1.98349e-20)
(-0.690704 -0.178281 -1.08257e-20)
(-0.165581 -0.0885238 -1.27301e-20)
(-1.07569 0.389302 0)
(-0.55347 -0.192306 -1.47174e-20)
(-0.303863 0.0512819 0)
(-1.05819 0.288662 0)
(-0.48487 -0.260534 0)
(-0.482228 0.237972 0)
(-0.833785 0.334274 -7.7817e-21)
(-0.590521 -0.0393814 -1.3571e-20)
(-0.30896 -0.0592108 8.12226e-24)
(-0.458691 0.272885 2.55163e-20)
(-1.24207 0.3447 2.43834e-20)
(-0.534571 -0.330324 1.58794e-20)
(-1.59612 0.701434 -9.91259e-21)
(-0.767982 -0.297929 1.62803e-20)
(-0.0653123 -0.0996112 -1.80807e-20)
(-0.669599 -0.350347 2.33079e-20)
(-1.54784 0.545628 8.11854e-21)
(-0.1774 0.0422158 1.34178e-20)
(-1.04608 0.690553 -1.86374e-20)
(-0.314773 -0.290301 2.00151e-20)
(-0.912094 0.0726066 -1.48634e-20)
(-1.37553 0.837008 5.01566e-21)
(-1.33832 0.809765 -4.65658e-21)
(-0.837804 -0.074729 -2.20066e-21)
(-0.852799 -0.0854701 0)
(-0.16963 -0.223214 -6.5591e-21)
(-0.182801 -0.224218 -5.77213e-21)
(-0.0113023 -0.116525 -2.92568e-20)
(-0.806379 -0.301121 -1.78947e-20)
(-1.25519 0.695825 2.74694e-21)
(-1.33088 0.783424 -2.90981e-22)
(-0.030926 -0.142708 3.41569e-20)
(-0.88666 -0.254335 0)
(-1.27518 0.478444 -2.86965e-20)
(-0.613667 -0.24195 -4.20804e-21)
(-0.242524 0.0329946 0)
(-0.0579264 -0.128003 -3.67893e-20)
(-1.57459 0.749181 7.96595e-21)
(-0.803364 -0.272189 0)
(-1.17931 0.733575 2.58447e-20)
(-1.23396 0.757438 -1.93608e-20)
(-0.837328 -0.0111384 1.14012e-20)
(-0.830017 -0.0332072 4.36936e-21)
(-0.245881 -0.245381 -1.13437e-20)
(-0.223045 -0.234403 -5.70215e-21)
(-0.0374783 -0.0827973 0)
(-0.739358 -0.364789 0)
(-1.64438 0.640585 2.7575e-21)
(-1.21243 0.744904 -4.90335e-21)
(-0.0226415 -0.124983 0)
(-0.863545 -0.256278 0)
(-0.622862 0.0924917 -5.29395e-23)
(-0.543101 0.144046 1.25328e-20)
(-0.424535 -0.0493754 6.2228e-21)
(-1.31891 0.731166 -7.81021e-21)
(-0.83843 -0.297855 8.24374e-21)
(-0.0151651 -0.127319 1.5999e-21)
(-0.932761 0.538169 0)
(-0.814194 0.0572133 -1.91232e-20)
(-0.308279 -0.228585 -1.54276e-23)
(-1.60094 0.717375 2.09285e-22)
(-0.785687 -0.319793 2.33782e-20)
(-0.0413173 -0.11088 6.06751e-24)
(-0.683371 -0.343756 4.9017e-22)
(0.00404896 -0.0938443 -1.24469e-20)
(-1.17374 0.573978 -2.53649e-21)
(-0.630088 0.294542 -1.20202e-20)
(-0.389521 -0.181264 1.13258e-20)
(-0.808399 0.144615 3.15778e-20)
(-0.771411 0.217098 0)
(-0.480862 -0.0908233 -3.08405e-20)
(-0.414876 0.074374 1.61157e-20)
(-1.48277 0.812325 0)
(-0.0393655 -0.15392 1.71082e-20)
(-0.87307 -0.260406 3.53411e-24)
(-0.814473 0.240021 0)
(-0.481509 -0.110327 -1.08328e-20)
(-0.403493 0.0869619 -2.2762e-20)
(-0.59757 0.0874366 1.2727e-20)
(-0.530587 0.120661 -6.66786e-21)
(-0.44255 -0.0243994 3.28095e-21)
(-0.545183 0.358042 1.23554e-20)
(-1.24528 0.312475 -8.62713e-21)
(-0.517181 -0.360754 1.75507e-20)
(-0.748126 0.160371 0)
(-0.426942 -0.118964 0)
(-0.509054 0.176999 1.88428e-21)
(-0.810278 0.209433 1.5558e-20)
(-0.449624 -0.13476 8.36447e-21)
(-0.478915 0.157641 2.67738e-22)
(-0.985886 0.65133 2.83599e-20)
(-0.934002 0.0945333 -1.46826e-20)
(-0.338541 -0.301125 -1.97797e-20)
(-0.0588276 -0.1593 2.58145e-20)
(-0.0513032 -0.152841 -2.6251e-20)
(-0.861861 -0.237384 6.9191e-21)
(-0.849446 -0.253922 4.80764e-21)
(-1.52393 0.822629 0)
(-1.53683 0.810601 -6.64464e-21)
(-1.61254 0.696567 1.23329e-20)
(-0.770747 -0.310466 -1.45602e-20)
(-0.0559049 -0.0964565 2.23913e-20)
(-0.304538 -0.301956 -1.28409e-20)
(-1.09742 0.745717 5.76353e-21)
(-0.924076 0.0648013 1.89384e-20)
(-0.720774 0.399793 -1.1792e-20)
(-0.381426 -0.235622 -1.18248e-20)
(-0.880617 0.143724 9.85794e-21)
(-1.40238 0.420361 0)
(-0.591578 -0.357073 1.1485e-20)
(-0.350478 0.189994 3.94859e-22)
(-0.711677 -0.36733 8.16526e-21)
(0.00605668 -0.108859 -1.16395e-20)
(-1.38095 0.607393 -2.82728e-21)
(-0.0851577 -0.035224 0)
(-1.64763 0.61424 0)
(-0.717845 -0.368639 9.83211e-21)
(-1.47705 0.75931 5.12249e-21)
(-0.0218586 -0.139592 0)
(-0.843114 -0.299713 -8.3204e-21)
(0.00266818 -0.0840827 -4.61201e-32)
(-0.653881 -0.33044 -7.52044e-21)
(-1.08809 0.55147 2.31808e-21)
(-0.70075 -0.282662 8.42124e-21)
(-0.00505612 -0.0856752 4.60084e-32)
(-1.04741 0.618736 -2.08124e-21)
(-0.663903 -0.268851 -2.23343e-20)
(-1.40967 0.555394 0)
(-0.182369 -0.00615193 -3.42232e-20)
(-0.736278 -0.370219 -4.42112e-21)
(-0.0100091 -0.104688 -1.19284e-20)
(-1.58887 0.63716 0)
(-1.48966 0.692024 -1.21784e-20)
(-0.748049 -0.239175 1.26257e-20)
(-0.107778 -0.101539 1.77643e-20)
(-1.44193 0.882144 1.80617e-20)
(-0.0777505 -0.188572 1.04054e-20)
(-0.927576 -0.178336 0)
(-0.944766 0.394126 5.94827e-21)
(-0.276347 -0.0527911 -6.50871e-21)
(-0.59519 -0.0881477 5.92886e-21)
(-0.734332 -0.366749 5.06621e-21)
(-0.050509 -0.0689265 1.26399e-20)
(-1.64819 0.633478 3.31601e-21)
(-1.35947 0.39679 -9.82326e-21)
(-0.390321 0.225474 -7.02435e-21)
(-0.574498 -0.353289 0)
(-0.637354 -0.329604 0)
(-1.44939 0.50428 0)
(-0.228788 0.0768143 0)
(-6.16306e-05 -0.0389955 0)
(-0.42233 -0.192625 -6.24354e-21)
(-0.633649 0.336761 6.03752e-22)
(-0.755652 -0.337832 8.10744e-21)
(-0.00204952 -0.108788 -1.50525e-20)
(-1.25772 0.661933 -3.71835e-21)
(-0.881135 0.348282 -1.53935e-20)
(-0.299409 -0.0404732 1.53351e-20)
(-0.577586 -0.0738731 6.90553e-21)
(-0.762708 -0.343917 2.06869e-20)
(-1.62505 0.681826 -5.70907e-21)
(-0.031333 -0.100444 0)
(-0.0294059 -0.0841955 -1.32298e-20)
(-1.64422 0.632601 0)
(-0.729995 -0.375648 -1.546e-20)
(-1.55625 0.778293 -7.39192e-21)
(-0.0623926 -0.141209 3.93634e-20)
(-0.818803 -0.250256 0)
(-0.125718 -0.203685 -2.95086e-20)
(-0.86959 -0.134782 1.0786e-20)
(-1.44843 0.863221 0)
(-0.949607 0.654084 -3.58874e-20)
(-0.981284 0.121603 1.86947e-20)
(-0.365585 -0.323052 -6.2731e-21)
(-0.848602 -0.0487085 3.29574e-21)
(-1.29013 0.808927 1.11074e-20)
(-0.20929 -0.241984 -1.7918e-20)
(-0.117423 -0.213367 -2.65035e-20)
(-1.44941 0.8996 0)
(-0.907913 -0.134295 0)
(-0.990384 0.541543 -5.61661e-21)
(-1.05738 0.591131 0)
(-0.751146 0.00758438 -1.98702e-20)
(-0.762283 -0.00993119 2.12504e-20)
(-0.273097 -0.190133 3.04088e-21)
(-0.254289 -0.197486 -3.23953e-21)
(-0.930883 0.517653 5.38579e-21)
(-0.775894 0.0381824 0)
(-0.297991 -0.204917 5.81092e-21)
(-1.15756 0.746442 0)
(-0.862007 0.00877778 -1.84287e-20)
(-0.262394 -0.262524 4.08866e-21)
(-0.660149 -0.336749 -1.15825e-20)
(-1.51216 0.535074 8.58539e-21)
(-0.189577 0.0429452 -2.75562e-20)
(-0.757868 -0.333206 0)
(-1.6204 0.683703 1.78389e-20)
(-0.0520233 -0.0867774 0)
(-0.144647 -0.00834148 -8.85896e-21)
(-1.53564 0.585629 -5.24847e-21)
(-0.690648 -0.320045 -7.56733e-21)
(-0.743919 -0.281346 -1.15915e-21)
(-0.00847225 -0.0953552 8.03211e-21)
(-1.10048 0.652719 0)
(-0.733326 0.348135 1.08446e-20)
(-0.748284 0.342015 0)
(-0.343108 -0.155357 0)
(-0.728866 0.0768635 3.85363e-20)
(-0.333477 -0.135287 0)
(-0.693105 0.0496926 -2.44873e-20)
(-1.05847 0.666999 0)
(-0.9813 0.608485 0)
(-0.311162 -0.256793 -9.86922e-24)
(-0.856868 0.0403988 1.15288e-20)
(-0.291241 -0.256838 2.98485e-20)
(-0.858701 0.0603466 -2.43555e-20)
(-0.657567 -0.358179 0)
(0.00735047 -0.0949679 1.69997e-20)
(-1.22408 0.563668 0)
(-0.766775 -0.335999 -1.22491e-20)
(-1.62467 0.691755 1.87139e-21)
(-0.0371416 -0.102783 7.93643e-21)
(-0.757081 0.455867 -2.03769e-20)
(-0.397638 -0.280677 -1.35689e-20)
(-0.956785 0.165569 3.23579e-20)
(-0.628492 -0.363381 2.50793e-20)
(-1.48895 0.475812 2.24492e-20)
(-0.267339 0.127767 0)
(-0.139035 -0.212248 3.15613e-20)
(-0.867411 -0.120473 -1.14746e-20)
(-1.42952 0.861455 1.15848e-20)
(-0.792843 -0.336316 0)
(-1.41076 0.698334 0)
(-0.00547134 -0.123777 0)
(-0.787833 -0.340575 0)
(-1.45429 0.692777 4.34e-21)
(-0.00559495 -0.123565 2.86929e-21)
(-1.23314 0.734916 -1.07236e-20)
(-0.804562 -0.0512949 6.61472e-21)
(-0.21145 -0.216219 8.43981e-21)
(-0.549811 0.256892 -3.16956e-21)
(-0.436387 -0.213069 0)
(-0.910944 0.219856 -1.34545e-22)
(-1.55344 0.78722 8.61304e-21)
(-0.0543011 -0.14505 2.29448e-20)
(-0.834025 -0.256517 -5.59948e-21)
(-0.669318 -0.28974 0)
(-1.4483 0.562213 0)
(-0.174075 0.00543536 2.95323e-20)
(-0.100986 -0.153012 7.41509e-21)
(-0.803927 -0.195776 1.73543e-20)
(-1.48181 0.778533 2.51194e-20)
(-0.936642 0.586285 0)
(-0.332245 -0.267958 -1.98586e-20)
(-0.883196 0.0838124 1.24357e-20)
(-1.15806 0.364709 1.67179e-22)
(-0.536366 -0.260286 1.14257e-20)
(-0.375322 0.15646 0)
(-0.669128 0.347076 2.1765e-22)
(-0.389902 -0.219024 -3.87538e-21)
(-0.865771 0.15265 -1.29186e-20)
(-0.0444244 -0.136146 1.55941e-23)
(-0.823834 -0.281446 1.3224e-20)
(-1.5649 0.766064 8.93714e-21)
(-1.40663 0.758113 -4.7715e-21)
(-0.791461 -0.152866 -5.14263e-21)
(-0.133519 -0.16558 0)
(-0.645894 0.292386 -1.1759e-20)
(-0.3767 -0.160227 2.44874e-20)
(-0.762385 0.118815 -2.08294e-20)
(-1.4472 0.905175 7.41132e-21)
(-0.10478 -0.20884 1.17918e-20)
(-0.922102 -0.146668 -8.05165e-21)
(-0.891943 0.452647 -6.78223e-21)
(-0.710257 0.0112555 0)
(-0.289066 -0.161478 0)
(-0.940673 0.315673 -2.77843e-20)
(-0.516427 -0.150867 6.71239e-21)
(-0.353032 0.0684957 0)
(-0.635914 -0.304034 0)
(-1.40915 0.502053 1.84251e-20)
(-0.224056 0.0602225 0)
(-1.38647 0.827602 -3.51991e-21)
(-0.0455196 -0.16051 -3.65746e-21)
(-0.914585 -0.227784 9.09315e-21)
(-1.39068 0.84884 9.8459e-21)
(-0.0551821 -0.16951 0)
(-0.925834 -0.207168 -8.73506e-21)
(-0.104786 -0.166065 6.76182e-21)
(-0.819624 -0.181313 -1.03069e-20)
(-1.47548 0.796742 -2.31812e-20)
(-1.18625 0.353995 -8.71511e-21)
(-0.535597 -0.288407 -1.14485e-20)
(-0.407124 0.193539 0)
(-0.0377617 -0.149502 3.34893e-21)
(-0.909235 -0.237222 -8.50004e-21)
(-1.31259 0.799053 0)
(-0.0922064 -0.103985 0)
(-0.759679 -0.255279 -1.05539e-20)
(-1.52937 0.703827 -2.83099e-21)
(0.00471651 -0.0692595 1.35642e-20)
(-0.564477 -0.318491 8.4207e-21)
(-0.975589 0.464263 0)
(-0.891435 0.574625 -2.68996e-21)
(-0.64402 -0.241088 0)
(-0.00582185 -0.070163 1.35675e-20)
(-0.114237 -0.204433 -3.92732e-24)
(-0.890203 -0.145095 0)
(-1.45724 0.884385 0)
(-0.0255474 -0.132682 0)
(-0.817013 -0.309021 0)
(-1.55428 0.749421 1.10461e-20)
(-1.51914 0.826582 -7.81736e-21)
(-1.51614 0.816857 6.32375e-21)
(-0.0720906 -0.167925 -1.29509e-20)
(-0.860702 -0.211965 -2.27322e-21)
(-0.0791109 -0.164944 -2.09812e-20)
(-0.843007 -0.207965 4.11157e-21)
(-1.53842 0.681036 5.53976e-21)
(-0.745782 -0.272131 6.97147e-21)
(-0.0956083 -0.0875091 0)
(-0.324913 0.184751 0)
(-0.606194 -0.37498 0)
(-1.45909 0.440876 0)
(-0.732284 0.299416 0)
(-0.338675 -0.095353 -3.36726e-20)
(-0.637948 0.0254952 1.34869e-20)
(-1.51923 0.621354 1.60543e-20)
(-0.709246 -0.293333 2.5778e-21)
(-0.123298 -0.0430592 2.60853e-20)
(-0.143454 -0.0199459 1.70201e-20)
(-1.5077 0.598771 -2.23508e-20)
(-0.692913 -0.301344 -3.5763e-21)
(-1.4299 0.913644 8.96539e-21)
(-0.137629 -0.228569 1.26799e-20)
(-0.911883 -0.108516 1.77543e-20)
(-1.08048 0.694059 0)
(-0.873273 0.040758 5.48012e-21)
(-0.289581 -0.268298 -2.92591e-20)
(-0.986407 0.582709 0)
(-0.822995 0.0459052 2.51176e-20)
(-0.297374 -0.237278 -3.12138e-24)
(-1.39746 0.593626 -2.18623e-20)
(-0.686561 -0.241847 3.12796e-21)
(-0.155146 -0.0506745 -1.47971e-20)
(-1.42773 0.592284 0)
(-0.685448 -0.259569 2.93672e-21)
(-0.15473 -0.0386004 1.36359e-20)
(-0.606784 0.252181 0)
(-0.389054 -0.140011 -3.86734e-20)
(-0.742474 0.123035 1.1723e-20)
(-1.07514 0.619648 0)
(-0.780436 -0.00796252 0)
(-0.253654 -0.212388 4.39364e-21)
(-0.0625668 -0.0504608 -2.73824e-20)
(-0.717986 -0.378381 -2.76629e-20)
(-1.66168 0.61723 0)
(-1.4785 0.669005 5.07766e-21)
(-0.00144669 -0.118435 0)
(-0.755722 -0.35769 5.88668e-21)
(-1.45063 0.627405 -4.31097e-22)
(0.00310483 -0.113235 0)
(-0.730814 -0.364647 -1.69097e-20)
(-0.804706 0.437376 8.13589e-21)
(-0.338652 -0.206248 -4.23175e-21)
(-0.798777 0.0854186 -2.04083e-22)
(-0.76239 -0.342959 2.45075e-22)
(-0.000880275 -0.115084 2.30157e-20)
(-1.35475 0.663306 0)
(-1.44277 0.794228 2.0309e-20)
(-0.122111 -0.173642 1.42043e-20)
(-0.815296 -0.158491 0)
(0.00498505 -0.107845 -3.42252e-21)
(-0.718494 -0.361598 -9.12839e-21)
(-1.33382 0.613874 0)
(-0.754526 0.238576 1.92103e-20)
(-0.38484 0.0266343 2.04305e-20)
(-0.51351 -0.0563878 5.97099e-23)
(-1.16787 0.550591 -3.36519e-21)
(-0.669239 -0.125 -3.24186e-21)
(-0.203636 -0.103017 -1.52175e-20)
(-0.509827 -0.287022 2.60736e-20)
(-1.1385 0.321513 2.08726e-20)
(-0.461416 0.23663 0)
(-0.0178806 -0.101705 0)
(-0.744155 -0.364623 -5.54144e-21)
(-1.61145 0.653142 0)
(-0.657084 -0.303959 0)
(-1.45079 0.543742 0)
(-0.189973 0.026981 0)
(-0.0882522 -0.194872 0)
(-1.46089 0.88652 -6.50013e-21)
(-0.916618 -0.168558 7.89478e-21)
(-1.23477 0.588268 0)
(-0.682795 -0.14672 1.61211e-21)
(-0.185294 -0.103461 1.48749e-20)
(-0.703292 0.27184 0)
(-0.353068 -0.0773054 2.88991e-20)
(-0.620398 0.0250484 0)
(-0.768098 -0.34846 -1.95674e-20)
(-1.597 0.68748 5.43386e-21)
(-0.020853 -0.109826 0)
(-0.0865676 -0.130713 -1.55623e-20)
(-0.786154 -0.234797 6.72658e-22)
(-1.51808 0.748034 4.87576e-22)
(-1.43334 0.802473 0)
(-1.40276 0.790128 5.87282e-21)
(-0.0364961 -0.15225 -8.4297e-21)
(-0.0301058 -0.146031 -1.0368e-20)
(-0.883834 -0.25595 -5.58429e-21)
(-0.876996 -0.26771 4.59186e-21)
(-1.16415 0.446747 0)
(-0.586265 -0.207712 4.38425e-20)
(-0.262035 0.0257816 1.62658e-20)
(-0.641797 -0.256641 3.13517e-20)
(-1.35825 0.522427 0)
(-0.202057 0.00974996 -1.79949e-20)
(-0.890732 0.314877 -1.57416e-20)
(-0.534729 -0.110242 1.14528e-20)
(-0.323826 0.0179318 2.50598e-20)
(-0.759683 -0.35921 1.29029e-20)
(-1.53906 0.671301 5.84115e-21)
(-0.742127 -0.368535 -6.16802e-21)
(-0.00524176 -0.117412 0)
(-1.54829 0.64714 -5.62825e-21)
(-0.00407963 -0.112259 0)
(-1.36423 0.660563 0)
(-0.72281 -0.184385 0)
(-0.145037 -0.111655 1.66588e-20)
(-1.58139 0.700443 8.93534e-21)
(-1.55297 0.691465 -1.64734e-20)
(-0.78301 -0.339437 8.46572e-21)
(-0.780302 -0.345031 -2.13099e-20)
(-0.0168857 -0.1192 2.32879e-20)
(-0.0106394 -0.12162 -1.77481e-23)
(-1.31778 0.499819 0)
(-0.621359 -0.265375 -2.90876e-20)
(-0.235297 0.0450759 2.33162e-20)
(-1.09587 0.457606 1.46337e-20)
(-0.623581 -0.151117 -1.95535e-20)
(-0.222703 -0.0526395 0)
(-1.44199 0.865371 0)
(-0.0646414 -0.177592 0)
(-0.919132 -0.20075 8.39297e-21)
(-1.17561 0.472291 1.07535e-20)
(-0.603591 -0.191718 -1.21958e-20)
(-0.240169 -0.00325437 -2.69508e-20)
(-0.964383 0.363835 6.33928e-21)
(-0.557728 -0.128214 -1.34354e-20)
(-0.294563 -0.00106843 1.46858e-20)
(-1.4162 0.821076 0)
(-0.04431 -0.159487 0)
(-0.902774 -0.23889 -1.15485e-20)
(-1.24943 0.617362 0)
(-0.708854 -0.131229 3.44319e-21)
(-0.175498 -0.127897 -1.65434e-20)
(-0.562043 -0.367704 0)
(-1.34782 0.378825 0)
(-0.43617 0.273246 -9.0694e-22)
(-0.934236 0.602768 -9.14658e-22)
(-0.916412 0.101172 0)
(-0.344079 -0.285976 3.08468e-20)
(-0.674127 -0.378479 1.34857e-20)
(-0.16535 0.0461843 0)
(-1.60796 0.548179 0)
(-0.000357001 -0.0581264 -3.26146e-20)
(-0.54645 -0.2505 8.74145e-21)
(-0.837855 0.455489 -8.44939e-22)
(-1.20804 0.522831 0)
(-0.639242 -0.167016 1.19986e-20)
(-0.204884 -0.0568159 -1.37245e-20)
(-1.4897 0.852668 1.22064e-20)
(-0.0647102 -0.172728 4.37657e-20)
(-0.89166 -0.208895 0)
(-0.41297 -0.337204 -8.20479e-21)
(-1.0538 0.183297 -1.21887e-20)
(-0.819294 0.560957 -8.20589e-21)
(-1.06705 0.67445 0)
(-0.0133696 -0.0997842 -1.21665e-20)
(-0.788382 -0.263278 0)
(-0.460253 0.175034 1.5713e-20)
(-0.479163 0.203333 -1.6088e-20)
(-0.461134 -0.186225 0)
(-0.91313 0.247709 1.3342e-20)
(-0.46419 -0.211854 -2.46888e-20)
(-0.954094 0.250747 -1.07079e-20)
(-0.87451 0.289587 1.47939e-20)
(-0.510429 -0.119177 1.52041e-20)
(-0.359373 0.0551466 0)
(-0.570407 0.255399 1.38188e-20)
(-0.513786 0.212197 0)
(-0.414714 -0.185784 -1.37744e-20)
(-0.842143 0.178867 1.19548e-20)
(-0.431624 -0.172501 1.38797e-20)
(-0.848523 0.199003 6.31607e-23)
(-1.15593 0.497026 9.28202e-22)
(-0.598023 -0.153692 -8.52075e-21)
(-0.248501 -0.024964 -1.81102e-20)
(-1.10203 0.444147 -2.51143e-20)
(-0.590759 -0.168605 2.25925e-22)
(-0.258056 -0.00541262 0)
(0.0024712 -0.110833 0)
(-0.718643 -0.375464 0)
(-1.50246 0.620617 5.19547e-21)
(-0.868194 0.468586 -7.49623e-21)
(-0.769464 0.0555603 0)
(-0.313715 -0.195768 7.8605e-21)
(-1.57859 0.727913 -1.7791e-20)
(-0.799117 -0.322 9.83072e-21)
(-0.0244923 -0.124302 -1.3283e-20)
(-1.42245 0.633418 0)
(-1.46712 0.65738 1.16983e-20)
(-0.709953 -0.231261 -3.89819e-21)
(-0.727116 -0.242045 1.24156e-20)
(-0.135328 -0.0755138 -1.84172e-20)
(-0.120087 -0.0832518 -1.71434e-20)
(-0.849173 0.43502 0)
(-0.734483 0.0389167 0)
(-0.309442 -0.173252 3.7006e-21)
(-1.14053 0.691 8.74986e-21)
(-0.817628 -0.00623103 0)
(-0.251493 -0.233843 9.77029e-21)
(-1.32738 0.598955 -6.24901e-21)
(-0.684756 -0.201505 0)
(-0.160786 -0.0725711 0)
(-0.600998 0.184022 1.51651e-20)
(-0.609163 0.0597769 -7.26098e-21)
(-0.396946 -0.0522224 7.74076e-21)
(-1.48545 0.628086 0)
(-0.70907 -0.271801 0)
(-0.128717 -0.0533092 -2.7719e-20)
(-0.694754 0.290444 0)
(-0.35102 -0.116217 4.26418e-21)
(-0.675103 0.0607232 0)
(-1.31185 0.519075 -1.41795e-20)
(-0.634736 -0.241651 -1.61953e-20)
(-0.209675 0.000785341 -2.32631e-21)
(-1.13839 0.664101 8.7975e-21)
(-0.790151 -0.024732 0)
(-0.238581 -0.215654 2.01055e-20)
(-0.625422 0.217824 -1.50365e-20)
(-0.599685 0.210641 -6.75248e-21)
(-0.633822 0.0590655 7.14731e-21)
(-0.37986 -0.0756119 -1.53393e-20)
(-0.671902 0.0865256 0)
(-0.387307 -0.0943537 -2.72809e-20)
(-0.552481 0.211821 -6.85722e-21)
(-0.408669 -0.140844 1.8062e-20)
(-0.517789 0.198045 4.41782e-21)
(-0.763059 0.149953 -1.61826e-20)
(-0.431509 -0.158328 -8.64197e-21)
(-0.82006 0.188623 3.47109e-22)
(-0.971621 0.513081 8.05001e-21)
(-1.037 0.539951 0)
(-0.721573 -0.00737918 1.47508e-20)
(-0.709032 -0.0354491 -1.15169e-20)
(-0.268117 -0.169577 -1.75878e-20)
(-0.247348 -0.15783 2.92561e-20)
(-0.118137 -0.190765 0)
(-0.850082 -0.149396 -6.33287e-21)
(-1.45752 0.837697 -1.18339e-20)
(-0.479527 0.300071 1.09832e-20)
(-1.27994 0.346593 1.36241e-20)
(-0.539837 -0.354054 -2.76006e-20)
(-0.102114 -0.184304 -1.47321e-20)
(-0.0942724 -0.173245 1.1803e-20)
(-0.85629 -0.170793 5.47564e-21)
(-0.840765 -0.187407 9.41909e-21)
(-1.47958 0.844145 2.99059e-20)
(-1.49481 0.824469 -1.54977e-20)
(-0.660206 0.41568 1.50355e-20)
(-0.448643 -0.308928 -1.29665e-20)
(-1.06217 0.229018 3.14983e-21)
(-0.575805 0.134343 2.5393e-20)
(-0.439086 0.00399762 0)
(-0.549632 0.042853 -2.50764e-20)
(-1.5001 0.655569 -5.5023e-21)
(-0.727381 -0.263943 -1.402e-20)
(-0.114222 -0.0735026 0)
(-0.776714 0.384159 0)
(-0.330968 -0.173855 -3.52595e-21)
(-0.744849 0.0688546 -1.25225e-20)
(-1.17855 0.682772 0)
(-0.785497 -0.0412022 0)
(-0.223154 -0.208069 -1.87372e-20)
(-1.4034 0.834155 -1.32021e-20)
(-1.40337 0.810153 0)
(-0.846303 -0.113181 3.35885e-21)
(-0.15004 -0.208023 -1.79696e-20)
(-0.82853 -0.122311 -9.16095e-21)
(-0.145407 -0.195633 2.43004e-20)
(-1.40911 0.665951 1.177e-20)
(-0.730451 -0.202094 1.30556e-20)