/*--------------------------------*- C++ -*----------------------------------*\
  =========                 |
  \\      /  F ield         | OpenFOAM: The Open Source CFD Toolbox
   \\    /   O peration     | Website:  https://openfoam.org
    \\  /    A nd           | Version:  6
     \\/     M anipulation  |
\*---------------------------------------------------------------------------*/
FoamFile
{
    version     2.0;
    format      ascii;
    class       volScalarField;
    location    "0";
    object      p;
}
// * * * * * * * * * * * * * * * * * * * * * * * * * * * * * * * * * * * * * //

dimensions      [0 2 -2 0 0 0 0];

internalField   nonuniform List<scalar> 
9000
(
115.883
64.3849
50.1066
44.0731
40.9328
39.1367
37.9744
37.1335
36.4677
35.9008
35.39
34.9105
34.4472
33.9911
33.5369
33.0815
32.6235
32.1621
31.6972
31.229
30.758
30.2844
29.8089
29.3318
28.8535
28.3746
27.8953
27.4159
26.9369
26.4585
25.981
25.5048
25.0302
24.5578
24.0879
23.6212
23.1584
22.7003
22.2482
21.8035
21.3683
20.9454
20.5389
20.1545
19.8009
19.4894
19.2256
18.9803
18.9774
17.9277
87.2785
61.1219
50.7453
45.1747
41.9021
39.8711
38.5095
37.5207
36.7483
36.1045
35.5381
35.0179
34.5248
34.0469
33.5767
33.1097
32.6433
32.1758
31.7066
31.2354
30.7622
30.2873
29.8108
29.3331
28.8545
28.3753
27.8959
27.4164
26.9373
26.4588
25.9811
25.5047
25.0297
24.5566
24.0858
23.6178
23.1532
22.6926
22.237
21.7874
21.3451
20.9119
20.4899
20.0816
19.6892
19.3126
18.9398
18.523
18.0485
16.5389
69.9559
57.4648
50.6157
45.7626
42.5787
40.4537
38.9681
37.8702
37.0111
36.3008
35.684
35.1259
34.6043
34.105
33.619
33.1402
32.665
32.1912
31.7174
31.2429
30.7674
30.2908
29.8132
29.3348
28.8557
28.3762
27.8965
27.4169
26.9376
26.4589
25.981
25.5041
25.0285
24.5546
24.0827
23.6131
23.1463
22.6828
22.223
21.7676
21.3172
20.8723
20.4331
19.9986
19.5656
19.1241
18.6483
18.0703
17.3115
15.8981
60.5904
53.9474
49.4265
45.5431
42.7327
40.7125
39.2274
38.0957
37.1957
36.4472
35.7979
35.2134
34.6708
34.1551
33.6564
33.1679
32.6854
32.206
31.7281
31.2506
30.7728
30.2947
29.8159
29.3367
28.857
28.3771
27.8971
27.4172
26.9377
26.4586
25.9803
25.5029
25.0267
24.5519
24.0787
23.6074
23.1383
22.6717
22.2077
21.7465
21.2881
20.832
20.3767
19.9193
19.4527
18.963
18.4211
17.7646
16.922
15.6811
54.39
50.8202
47.8758
44.9142
42.5623
40.7435
39.3345
38.2213
37.3149
36.551
35.8841
35.2828
34.7258
34.198
33.6893
33.193
32.7043
32.2201
31.7386
31.2583
30.7785
30.2987
29.8188
29.3387
28.8584
28.378
27.8977
27.4174
26.9375
26.4581
25.9793
25.5013
25.0243
24.5485
24.074
23.6009
23.1295
22.6597
22.1915
21.7247
21.2586
20.792
20.3226
19.8457
19.3531
18.8297
18.2491
17.563
16.7187
15.6274
49.9374
48.1658
46.3119
44.1157
42.2053
40.6205
39.3276
38.2664
37.3788
36.617
35.9448
35.3354
34.7696
34.2336
33.7177
33.2153
32.7216
32.2334
31.7486
31.2658
30.7841
30.3029
29.8219
29.3409
28.8599
28.379
27.8982
27.4175
26.9372
26.4573
25.978
25.4994
25.0215
24.5446
24.0687
23.5939
23.12
22.6472
22.1749
21.7028
21.2297
20.7539
20.2724
19.78
19.2681
18.7229
18.1224
17.4322
16.6173
15.6505
46.7116
45.9725
44.8556
43.2613
41.7418
40.3928
39.2343
38.2458
37.3947
36.6491
35.9819
35.3717
34.8023
34.2617
33.7412
33.2344
32.7369
32.2455
31.758
31.273
30.7896
30.307
29.8249
29.343
28.8614
28.3799
27.8986
27.4175
26.9367
26.4563
25.9764
25.4971
25.0184
24.5404
24.0631
23.5865
23.1104
22.6346
22.1586
21.6816
21.2024
20.7188
20.2276
19.7236
19.1988
18.6413
18.0342
17.3543
16.5812
15.7166
44.3372
44.178
43.5508
42.4169
41.2284
40.0995
39.0796
38.1745
37.3715
36.652
35.9977
35.3928
34.8244
34.2826
33.7597
33.2502
32.75
32.2562
31.7666
31.2798
30.7948
30.3109
29.8278
29.3452
28.8628
28.3807
27.8989
27.4173
26.9361
26.4552
25.9747
25.4946
25.0151
24.536
24.0573
23.579
23.1008
22.6223
22.143
21.6618
21.1775
20.6877
20.1892
19.6772
19.1448
18.5823
17.9774
17.3156
16.587
15.8053
42.5496
42.7123
42.4092
41.6213
40.7048
39.7722
38.8856
38.067
37.3181
36.6313
35.9958
35.4009
34.8371
34.2968
33.7736
33.2629
32.761
32.2654
31.7742
31.2859
30.7996
30.3147
29.8306
29.3472
28.8642
28.3815
27.8992
27.4171
26.9353
26.4539
25.9727
25.492
25.0116
24.5314
24.0515
23.5716
23.0915
22.6107
22.1284
21.6438
21.1554
20.6609
20.1574
19.6405
19.1047
18.5424
17.9453
17.3052
16.6188
15.9036
41.176
41.5139
41.4253
40.8947
40.1973
39.4342
38.6701
37.9361
37.2434
36.5927
35.9797
35.3981
34.8418
34.305
33.7832
33.2725
32.7699
32.2733
31.7808
31.2914
30.804
30.3181
29.8332
29.349
28.8654
28.3822
27.8993
27.4167
26.9344
26.4524
25.9707
25.4893
25.008
24.5269
24.0458
23.5646
23.0827
22.5998
22.1152
21.6279
21.1363
20.6386
20.132
19.6129
19.0768
18.5184
17.9324
17.3147
16.6663
16.0043
40.1028
40.5324
40.5859
40.2456
39.7223
39.1022
38.4473
37.7925
37.1551
36.5417
35.9531
35.3869
34.8398
34.3084
33.7892
33.2794
32.7769
32.2797
31.7865
31.2962
30.808
30.3212
29.8356
29.3507
28.8665
28.3827
27.8993
27.4162
26.9335
26.4509
25.9686
25.4865
25.0045
24.5225
24.0404
23.5578
23.0746
22.59
22.1035
21.6141
21.1204
20.6207
20.1126
19.5933
19.0594
18.5072
17.9337
17.3378
16.7225
16.1035
39.2534
39.7279
39.8756
39.6756
39.2892
38.788
38.2281
37.6452
37.06
36.4832
35.9194
35.3696
34.8329
34.3077
33.792
33.2841
32.7822
32.2849
31.7913
31.3003
30.8114
30.324
29.8377
29.3522
28.8674
28.3831
27.8992
27.4157
26.9324
26.4494
25.9665
25.4838
25.0011
24.5183
24.0352
23.5516
23.0672
22.5813
22.0934
21.6026
21.1076
20.6069
20.0988
19.5808
19.0507
18.5061
17.9456
17.3699
16.7832
16.1989
38.5755
39.0691
39.2795
39.1826
38.9033
38.4994
38.0206
37.5012
36.9637
36.4214
35.8817
35.3484
34.8225
34.3041
33.7926
33.2868
32.7859
32.289
31.7952
31.3038
30.8144
30.3264
29.8395
29.3535
28.8682
28.3834
27.8991
27.415
26.9313
26.4478
25.9644
25.4811
24.9977
24.5142
24.0304
23.5459
23.0605
22.5737
22.0848
21.5931
21.0976
20.5969
20.0897
19.5742
19.0489
18.5125
17.9648
17.4075
16.8452
16.2892
38.0331
38.532
38.7842
38.7632
38.5668
38.2416
37.8306
37.3661
36.8709
36.36
35.843
35.3254
34.8101
34.2986
33.7913
33.2881
32.7885
32.2921
31.7983
31.3067
30.8168
30.3284
29.841
29.3545
28.8688
28.3835
27.8987
27.4143
26.9301
26.4461
25.9623
25.4784
24.9946
24.5104
24.0259
23.5408
23.0547
22.5672
22.0778
21.5857
21.0902
20.5902
20.0847
19.5725
19.0526
18.5246
17.9891
17.4482
16.9067
16.3738
37.6008
38.0985
38.3785
38.4131
38.2804
38.0177
37.6623
37.2441
36.7854
36.3022
35.8055
35.3023
34.797
34.2921
33.789
33.2883
32.7901
32.2943
31.8007
31.309
30.8188
30.33
29.8422
29.3553
28.8691
28.3835
27.8983
27.4135
26.9289
26.4445
25.9602
25.4759
24.9915
24.5069
24.0219
23.5362
23.0496
22.5617
22.0721
21.5801
21.0851
20.5863
20.0831
19.5746
19.0604
18.5406
18.0164
17.4901
16.9661
16.4523
37.2611
37.7547
38.0533
38.1281
38.0436
37.8298
37.5189
37.1384
36.7101
36.2505
35.7713
35.2807
34.7843
34.2853
33.7861
33.2878
32.791
32.2959
31.8025
31.3107
30.8204
30.3312
29.8431
29.3559
28.8693
28.3833
27.8978
27.4125
26.9276
26.4428
25.9581
25.4735
24.9887
24.5036
24.0182
23.5322
23.0453
22.5572
22.0676
21.576
21.0818
20.5847
20.084
19.5795
19.0711
18.5592
18.0452
17.5317
17.0227
16.5245
37.0016
37.4904
37.8011
37.9047
37.8558
37.6788
37.4023
37.0515
36.6475
36.2069
35.742
35.262
34.7729
34.2791
33.7832
33.287
32.7914
32.2969
31.8038
31.312
30.8215
30.3321
29.8437
29.3562
28.8693
28.383
27.8971
27.4115
26.9263
26.4411
25.9561
25.4711
24.9859
24.5006
24.0148
23.5285
23.0415
22.5535
22.0641
21.5731
21.0801
20.5848
20.087
19.5865
19.0836
18.579
18.0743
17.572
17.0756
16.5906
36.8135
37.298
37.6166
37.7399
37.7159
37.5654
37.3138
36.9849
36.5991
36.1729
35.719
35.247
34.7637
34.2738
33.7806
33.2861
32.7915
32.2975
31.8046
31.3128
30.8222
30.3326
29.844
29.3562
28.869
28.3824
27.8963
27.4104
26.9249
26.4395
25.9541
25.4688
24.9834
24.4977
24.0118
23.5253
23.0383
22.5504
22.0615
21.5713
21.0796
20.5863
20.0913
19.5947
19.0971
18.5992
18.1028
17.6102
17.1245
16.6504
36.6911
37.1725
37.4957
37.6312
37.6231
37.4896
37.2544
36.94
36.5662
36.1496
35.7031
35.2366
34.7572
34.2701
33.7787
33.2853
32.7914
32.2978
31.805
31.3133
30.8225
30.3328
29.844
29.3559
28.8686
28.3817
27.8953
27.4093
26.9234
26.4378
25.9522
25.4666
24.9809
24.4951
24.0089
23.5225
23.0355
22.5478
22.0594
21.5702
21.0799
20.5886
20.0964
19.6036
19.1108
18.6191
18.1299
17.6456
17.1691
16.704
36.6307
37.1106
37.4359
37.5773
37.5769
37.4518
37.2246
36.9173
36.5496
36.1378
35.695
35.2312
34.7538
34.2681
33.7776
33.2848
32.7912
32.2978
31.8051
31.3133
30.8225
30.3326
29.8437
29.3555
28.8679
28.3809
27.8943
27.408
26.9219
26.436
25.9502
25.4644
24.9785
24.4925
24.0063
23.5198
23.0329
22.5457
22.0578
21.5695
21.0806
20.5913
20.1018
19.6125
19.1241
18.6378
18.1551
17.6779
17.209
16.7515
36.6307
37.1105
37.4359
37.5773
37.5769
37.4518
37.2246
36.9173
36.5495
36.1377
35.6949
35.2312
34.7537
34.268
33.7775
33.2846
32.791
32.2976
31.8048
31.3129
30.822
30.3321
29.843
29.3547
28.867
28.3799
27.8931
27.4066
26.9204
26.4343
25.9483
25.4623
24.9762
24.4901
24.0038
23.5173
23.0306
22.5437
22.0565
21.569
21.0815
20.5941
20.107
19.6209
19.1365
18.655
18.1778
17.7067
17.2442
16.793
36.691
37.1725
37.4957
37.6312
37.6231
37.4896
37.2543
36.9399
36.5661
36.1495
35.703
35.2364
34.757
34.2698
33.7783
33.2848
32.7908
32.2971
31.8041
31.3122
30.8212
30.3312
29.8421
29.3537
28.866
28.3787
27.8918
27.4052
26.9188
26.4325
25.9463
25.4601
24.9739
24.4877
24.0013
23.5149
23.0284
22.5418
22.0551
21.5686
21.0823
20.5966
20.1118
19.6285
19.1476
18.6702
18.1977
17.7318
17.2746
16.8285
36.8134
37.2979
37.6165
37.7398
37.7158
37.5653
37.3137
36.9848
36.599
36.1727
35.7188
35.2467
34.7633
34.2734
33.78
33.2853
32.7905
32.2964
31.8032
31.3111
30.8201
30.33
29.8409
29.3525
28.8647
28.3773
27.8904
27.4036
26.9171
26.4307
25.9443
25.458
24.9716
24.4853
23.9989
23.5125
23.0261
22.5398
22.0537
21.5679
21.0827
20.5985
20.1156
19.6348
19.1569
18.683
18.2145
17.7529
17.3001
16.8582
37.0014
37.4902
37.801
37.9046
37.8557
37.6787
37.4021
37.0513
36.6473
36.2066
35.7417
35.2616
34.7724
34.2784
33.7824
33.2859
32.7901
32.2953
31.8018
31.3096
30.8185
30.3285
29.8394
29.351
28.8632
28.3759
27.8888
27.402
26.9154
26.4288
25.9423
25.4558
24.9693
24.4828
23.9964
23.5099
23.0237
22.5376
22.0519
21.5668
21.0826
20.5996
20.1184
19.6397
19.1643
18.6933
18.228
17.7699
17.3206
16.8822
37.2609
37.7545
38.0531
38.128
38.0435
37.8297
37.5187
37.1382
36.7099
36.2502
35.7709
35.2802
34.7836
34.2845
33.7851
33.2865
32.7894
32.2938
31.8
31.3076
30.8166
30.3267
29.8377
29.3494
28.8616
28.3743
27.8872
27.4003
26.9136
26.4269
25.9403
25.4536
24.967
24.4803
23.9938
23.5073
23.021
22.5351
22.0497
21.5651
21.0816
20.5997
20.1198
19.6428
19.1694
18.7008
18.238
17.7827
17.3362
16.9004
37.6005
38.0983
38.3783
38.4129
38.2802
38.0176
37.6622
37.2439
36.7851
36.3019
35.8051
35.3017
34.7962
34.2911
33.7878
33.2867
32.7882
32.2919
31.7977
31.3053
30.8143
30.3245
29.8357
29.3475
28.8598
28.3725
27.8855
27.3986
26.9118
26.425
25.9382
25.4514
24.9645
24.4777
23.991
23.5044
23.0181
22.5323
22.0471
21.5628
21.0798
20.5986
20.1198
19.644
19.1721
18.7053
18.2445
17.7913
17.3469
16.9131
38.0327
38.5318
38.784
38.763
38.5667
38.2414
37.8304
37.3658
36.8706
36.3596
35.8425
35.3247
34.8093
34.2975
33.7899
33.2863
32.7863
32.2893
31.7948
31.3024
30.8116
30.3221
29.8334
29.3454
28.8579
28.3707
27.8837
27.3968
26.9099
26.423
25.9361
25.4491
24.962
24.475
23.9881
23.5013
23.0149
22.529
22.0438
21.5596
21.077
20.5962
20.118
19.6431
19.1723
18.7067
18.2474
17.7956
17.3527
16.9202
38.5752
39.0688
39.2793
39.1825
38.9031
38.4992
38.0204
37.501
36.9633
36.421
35.8812
35.3477
34.8216
34.303
33.791
33.2849
32.7835
32.2859
31.7913
31.2991
30.8085
30.3193
29.8309
29.3432
28.8559
28.3688
27.8819
27.395
26.908
26.421
25.9339
25.4467
24.9595
24.4722
23.985
23.498
23.0113
22.5252
22.0398
21.5556
21.073
20.5924
20.1145
19.6401
19.1699
18.7051
18.2466
17.7957
17.3537
16.922
39.2531
39.7276
39.8754
39.6754
39.2891
38.7878
38.2279
37.645
37.0597
36.4828
35.9188
35.3689
34.832
34.3065
33.7904
33.282
32.7795
32.2816
31.7871
31.2952
30.8051
30.3162
29.8283
29.3409
28.8538
28.3669
27.8801
27.3932
26.9062
26.4191
25.9318
25.4444
24.9568
24.4693
23.9817
23.4944
23.0073
22.5209
22.0352
21.5507
21.0679
20.5872
20.1092
19.6349
19.1649
18.7002
18.2421
17.7916
17.3499
16.9185
40.1024
40.5322
40.5857
40.2454
39.7221
39.1021
38.4471
37.7923
37.1548
36.5413
35.9525
35.3862
34.8389
34.3071
33.7875
33.2773
32.7741
32.2762
31.7821
31.2907
30.8012
30.3129
29.8254
29.3384
28.8517
28.365
27.8783
27.3914
26.9044
26.4171
25.9297
25.442
24.9542
24.4662
23.9783
23.4905
23.003
22.516
22.0298
21.5449
21.0615
20.5804
20.1021
19.6274
19.1571
18.6923
18.2339
17.7833
17.3414
16.9097
41.1757
41.5136
41.4251
40.8946
40.1972
39.434
38.6699
37.9359
37.2431
36.5924
35.9792
35.3974
34.8408
34.3038
33.7815
33.2703
32.7671
32.2697
31.7763
31.2857
30.7969
30.3093
29.8224
29.3359
28.8495
28.3631
27.8765
27.3897
26.9026
26.4152
25.9276
25.4396
24.9514
24.4631
23.9747
23.4863
22.9982
22.5106
22.0238
21.5381
21.054
20.5721
20.0931
19.6177
19.1467
18.6811
18.2221
17.7708
17.3283
16.8959
42.5493
42.7121
42.409
41.6211
40.7047
39.7721
38.8854
38.0668
37.3179
36.6309
35.9953
35.4002
34.8362
34.2955
33.772
33.2607
32.7582
32.2618
31.7695
31.28
30.7923
30.3055
29.8194
29.3334
28.8474
28.3612
27.8748
27.3881
26.9009
26.4134
25.9255
25.4373
24.9487
24.4599
23.9709
23.4819
22.9931
22.5047
22.017
21.5304
21.0453
20.5624
20.0823
19.6057
19.1336
18.6669
18.2068
17.7542
17.3105
16.8769
44.337
44.1778
43.5507
42.4167
41.2283
40.0994
39.0795
38.1744
37.3713
36.6517
35.9973
35.3922
34.8236
34.2815
33.7582
33.2482
32.7473
32.2526
31.7619
31.2739
30.7873
30.3016
29.8162
29.3309
28.8454
28.3595
27.8733
27.3866
26.8994
26.4118
25.9236
25.435
24.946
24.4567
23.9671
23.4774
22.9877
22.4984
22.0096
21.5218
21.0355
20.5513
20.0697
19.5916
19.118
18.6497
18.1879
17.7337
17.2883
16.8531
46.7113
45.9723
44.8555
43.2612
41.7418
40.3927
39.2343
38.2457
37.3946
36.6489
35.9815
35.3712
34.8016
34.2607
33.7398
33.2325
32.7343
32.242
31.7535
31.2672
30.7822
30.2976
29.8132
29.3285
28.8435
28.358
27.8719
27.3853
26.8981
26.4102
25.9219
25.4329
24.9434
24.4535
23.9632
23.4727
22.9821
22.4916
22.0016
21.5125
21.0247
20.5388
20.0554
19.5755
19.0998
18.6295
18.1655
17.7092
17.2617
16.8243
49.9372
48.1656
46.3118
44.1156
42.2052
40.6205
39.3276
38.2664
37.3788
36.617
35.9446
35.3351
34.769
34.2327
33.7165
33.2135
32.7192
32.2302
31.7443
31.2602
30.7769
30.2937
29.8102
29.3263
28.8418
28.3566
27.8708
27.3842
26.8969
26.4089
25.9203
25.4309
24.941
24.4504
23.9593
23.4679
22.9762
22.4846
21.9932
21.5025
21.0129
20.525
20.0396
19.5573
19.0793
18.6064
18.1399
17.6809
17.2307
16.7907
54.3898
50.8201
47.8757
44.9142
42.5623
40.7435
39.3346
38.2214
37.315
36.551
35.884
35.2827
34.7254
34.1973
33.6883
33.1915
32.7022
32.2172
31.7346
31.253
30.7716
30.2898
29.8075
29.3243
28.8404
28.3556
27.8699
27.3834
26.896
26.4079
25.9189
25.4292
24.9387
24.4475
23.9556
23.4632
22.9703
22.4773
21.9843
21.4918
21.0002
20.5101
20.0222
19.5373
19.0564
18.5806
18.111
17.6488
17.1955
16.7523
60.5903
53.9473
49.4265
45.5431
42.7328
40.7126
39.2276
38.0959
37.1959
36.4474
35.798
35.2134
34.6706
34.1547
33.6556
33.1667
32.6836
32.2035
31.7246
31.2458
30.7664
30.2863
29.805
29.3227
28.8393
28.3548
27.8694
27.3829
26.8955
26.4071
25.9179
25.4277
24.9367
24.4447
23.952
23.4585
22.9644
22.4699
21.9752
21.4807
20.9869
20.4943
20.0036
19.5157
19.0315
18.5522
18.079
17.6132
17.1562
16.7094
69.9558
57.4647
50.6157
45.7626
42.5788
40.4539
38.9683
37.8705
37.0114
36.3011
35.6843
35.1261
34.6044
34.1049
33.6186
33.1394
32.6637
32.1892
31.7144
31.2387
30.7617
30.2831
29.803
29.3215
28.8387
28.3545
27.8692
27.3828
26.8953
26.4068
25.9172
25.4266
24.935
24.4423
23.9486
23.454
22.9586
22.4625
21.9659
21.4692
20.9728
20.4774
19.9835
19.4921
19.0042
18.5209
18.0435
17.5735
17.1122
16.6611
87.2785
61.1219
50.7453
45.1748
41.9023
39.8713
38.5099
37.5211
36.7488
36.105
35.5385
35.0183
34.5252
34.0471
33.5768
33.1095
32.6425
32.1744
31.7043
31.232
30.7574
30.2805
29.8016
29.3209
28.8386
28.3547
27.8696
27.3832
26.8956
26.4068
25.9169
25.4259
24.9336
24.4402
23.9456
23.4497
22.9528
22.4549
21.9562
21.457
20.9577
20.459
19.9614
19.4659
18.9735
18.4855
18.0031
17.5279
17.0615
16.6053
115.883
64.3849
50.1066
44.0732
40.933
39.137
37.9749
37.134
36.4683
35.9015
35.3907
34.9112
34.4478
33.9917
33.5373
33.0817
32.6233
32.1613
31.6957
31.2265
30.754
30.2787
29.8008
29.3208
28.8389
28.3553
27.8702
27.3838
26.8961
26.4072
25.917
25.4255
24.9328
24.4386
23.9431
23.4461
22.9478
22.4481
21.9474
21.4458
20.9437
20.4418
19.9406
19.4411
18.9443
18.4516
17.9643
17.484
17.0124
16.5512
8.31141
10.2664
10.3773
10.7647
10.9753
11.1263
11.2163
11.2657
11.283
11.2754
11.2477
11.2036
11.146
11.0769
10.9981
10.9112
10.8172
10.7172
10.612
10.5023
10.3888
10.2721
10.1526
10.0307
9.9068
9.78121
9.6542
9.526
9.39682
9.26684
9.13621
9.00506
8.8735
8.74163
8.60952
8.47724
8.34485
8.21239
8.0799
7.9474
7.81493
7.68251
7.55013
7.41782
7.28558
7.15342
7.02134
6.88933
6.7574
6.62555
6.49377
6.36206
6.23041
6.09882
5.96728
5.8358
5.70437
5.57297
5.44162
5.3103
5.17901
5.04775
4.91651
4.7853
4.6541
4.52293
4.39176
4.26061
4.12947
3.99834
3.86722
3.7361
3.60499
3.47388
3.34278
3.21168
3.08058
2.94949
2.8184
2.68731
2.55622
2.42513
2.29404
2.16295
2.03186
1.90077
1.76969
1.6386
1.50751
1.37643
1.24534
1.11425
0.983165
0.852078
0.720991
0.589904
0.458817
0.327728
0.196649
0.0655365
10.7428
11.2948
11.0005
11.1645
11.2573
11.3362
11.3792
11.3952
11.3875
11.3603
11.317
11.2601
11.1918
11.1138
11.0276
10.9344
10.8351
10.7306
10.6217
10.509
10.3929
10.2741
10.1529
10.0297
9.90479
9.77841
9.65082
9.52223
9.3928
9.26269
9.13202
9.00091
8.86946
8.73773
8.6058
8.47373
8.34156
8.20933
8.07707
7.94481
7.81257
7.68036
7.54819
7.41608
7.28402
7.15203
7.02011
6.88824
6.75645
6.62471
6.49304
6.36142
6.22986
6.09835
5.96689
5.83546
5.70408
5.57273
5.44142
5.31014
5.17888
5.04764
4.91643
4.78523
4.65405
4.52289
4.39174
4.26059
4.12946
3.99834
3.86722
3.7361
3.605
3.47389
3.34279
3.21169
3.0806
2.9495
2.81841
2.68732
2.55623
2.42514
2.29405
2.16296
2.03187
1.90078
1.7697
1.63861
1.50752
1.37643
1.24534
1.11426
0.983169
0.852082
0.720994
0.589906
0.458818
0.327729
0.196646
0.0655421
12.0749
12.0417
11.5671
11.5568
11.5442
11.553
11.5482
11.5296
11.4959
11.4484
11.3888
11.3186
11.2393
11.1522
11.0583
10.9585
10.8538
10.7448
10.632
10.5161
10.3975
10.2765
10.1536
10.029
9.90298
9.77578
9.64759
9.51856
9.38886
9.2586
9.12788
8.9968
8.86543
8.73385
8.60209
8.47022
8.33827
8.20626
8.07423
7.9422
7.81018
7.67819
7.54623
7.41431
7.28244
7.15062
7.01885
6.88714
6.75547
6.62386
6.4923
6.36078
6.22931
6.09787
5.96648
5.83512
5.70379
5.57249
5.44122
5.30997
5.17874
5.04753
4.91634
4.78517
4.654
4.52285
4.39171
4.26058
4.12945
3.99833
3.86722
3.73611
3.605
3.4739
3.3428
3.2117
3.08061
2.94952
2.81842
2.68733
2.55624
2.42515
2.29406
2.16297
2.03188
1.90079
1.76971
1.63862
1.50753
1.37644
1.24535
1.11426
0.983174
0.852085
0.720997
0.589908
0.458819
0.32773
0.196643
0.0655474
12.987
12.6283
12.0701
11.9273
11.8262
11.7705
11.7196
11.6667
11.6067
11.5386
11.4623
11.3786
11.2881
11.1915
11.0898
10.9834
10.8731
10.7594
10.6428
10.5236
10.4023
10.2792
10.1545
10.0284
9.90133
9.77328
9.64446
9.51499
9.38499
9.25456
9.12378
8.99271
8.86143
8.72997
8.59839
8.46671
8.33497
8.20319
8.07138
7.93958
7.80778
7.676
7.54425
7.41253
7.28084
7.14919
7.01759
6.88602
6.75449
6.623
6.49154
6.36012
6.22874
6.09739
5.96606
5.83476
5.70349
5.57224
5.44101
5.3098
5.1786
5.04742
4.91625
4.78509
4.65395
4.52281
4.39168
4.26056
4.12944
3.99833
3.86722
3.73611
3.60501
3.47391
3.34281
3.21172
3.08062
2.94953
2.81844
2.68735
2.55625
2.42516
2.29407
2.16298
2.03189
1.9008
1.76972
1.63863
1.50754
1.37645
1.24536
1.11427
0.983179
0.852089
0.721
0.58991
0.45882
0.32773
0.19664
0.0655526
13.6499
13.1081
12.5117
12.2703
12.0972
11.9843
11.8904
11.8044
11.7185
11.6298
11.5369
11.4394
11.3376
11.2315
11.1218
11.0088
10.8928
10.7744
10.6538
10.5314
10.4073
10.282
10.1555
10.028
9.89979
9.77088
9.6414
9.51148
9.38117
9.25056
9.1197
8.98865
8.85744
8.7261
8.59468
8.4632
8.33166
8.2001
8.06852
7.93694
7.80537
7.6738
7.54226
7.41073
7.27923
7.14776
7.01631
6.88488
6.75349
6.62212
6.49078
6.35946
6.22816
6.09689
5.96564
5.8344
5.70318
5.57198
5.44079
5.30962
5.17845
5.0473
4.91616
4.78502
4.65389
4.52277
4.39165
4.26053
4.12943
3.99832
3.86722
3.73612
3.60502
3.47392
3.34282
3.21173
3.08064
2.94954
2.81845
2.68736
2.55627
2.42518
2.29409
2.163
2.03191
1.90082
1.76972
1.63863
1.50754
1.37645
1.24536
1.11427
0.983183
0.852093
0.721003
0.589912
0.458821
0.327731
0.196637
0.0655577
14.137
13.5052
12.8969
12.5841
12.3535
12.1912
12.0581
11.9409
11.83
11.7211
11.6117
11.5006
11.3874
11.2719
11.1541
11.0344
10.9128
10.7896
10.665
10.5393
10.4125
10.2849
10.1566
10.0277
9.89832
9.76852
9.6384
9.508
9.37738
9.24658
9.11565
8.98459
8.85345
8.72224
8.59098
8.45968
8.32836
8.19701
8.06566
7.9343
7.80295
7.6716
7.54026
7.40893
7.27761
7.14631
7.01502
6.88375
6.75249
6.62124
6.49001
6.35879
6.22758
6.09639
5.96521
5.83404
5.70288
5.57172
5.44058
5.30944
5.17831
5.04718
4.91606
4.78494
4.65383
4.52272
4.39162
4.26051
4.12941
3.99831
3.86721
3.73612
3.60502
3.47393
3.34283
3.21174
3.08065
2.94956
2.81846
2.68737
2.55628
2.42519
2.2941
2.16301
2.03192
1.90083
1.76973
1.63864
1.50755
1.37646
1.24537
1.11428
0.983188
0.852097
0.721006
0.589914
0.458823
0.327732
0.196635
0.0655626
14.5062
13.8382
13.2324
12.8691
12.5933
12.3889
12.2208
12.0746
11.9401
11.8117
11.6861
11.5616
11.4371
11.3121
11.1864
11.06
10.9327
10.8048
10.6763
10.5472
10.4177
10.2879
10.1578
10.0274
9.89686
9.76619
9.63541
9.50454
9.3736
9.24262
9.1116
8.98055
8.84947
8.71838
8.58728
8.45617
8.32505
8.19392
8.06279
7.93166
7.80053
7.66939
7.53826
7.40712
7.27599
7.14486
7.01373
6.8826
6.75148
6.62035
6.48923
6.35812
6.227
6.09589
5.96478
5.83367
5.70257
5.57146
5.44036
5.30926
5.17816
5.04706
4.91596
4.78487
4.65377
4.52268
4.39158
4.26049
4.1294
3.99831
3.86721
3.73612
3.60503
3.47394
3.34284
3.21175
3.08066
2.94957
2.81848
2.68739
2.55629
2.4252
2.29411
2.16302
2.03193
1.90084
1.76974
1.63865
1.50756
1.37647
1.24538
1.11428
0.983193
0.852101
0.721009
0.589917
0.458824
0.327733
0.196633
0.0655673
14.7968
14.1217
13.525
13.1267
12.8157
12.576
12.377
12.2044
12.0476
11.9006
11.7595
11.6219
11.4863
11.352
11.2185
11.0854
10.9525
10.8199
10.6874
10.5551
10.4229
10.2908
10.1589
10.0271
9.89539
9.76384
9.6324
9.50106
9.36982
9.23865
9.10754
8.9765
8.84549
8.71452
8.58358
8.45265
8.32174
8.19083
8.05992
7.92902
7.7981
7.66718
7.53625
7.40531
7.27437
7.14341
7.01244
6.88146
6.75047
6.61947
6.48846
6.35744
6.22642
6.09539
5.96435
5.8333
5.70225
5.5712
5.44014
5.30908
5.17801
5.04694
4.91587
4.78479
4.65371
4.52263
4.39155
4.26047
4.12938
3.9983
3.86721
3.73612
3.60503
3.47395
3.34286
3.21176
3.08067
2.94958
2.81849
2.6874
2.55631
2.42522
2.29412
2.16303
2.03194
1.90085
1.76975
1.63866
1.50757
1.37648
1.24538
1.11429
0.983197
0.852105
0.721012
0.589919
0.458825
0.327734
0.19663
0.0655718
15.033
14.3659
13.7812
13.359
13.0208
12.7517
12.5257
12.3292
12.1518
11.9873
11.8312
11.6809
11.5347
11.3913
11.25
11.1103
10.972
10.8347
10.6983
10.5627
10.4278
10.2936
10.1598
10.0266
9.89383
9.76142
9.62935
9.49755
9.366
9.23466
9.10348
8.97244
8.84151
8.71066
8.57988
8.44914
8.31843
8.18774
8.05706
7.92638
7.79568
7.66498
7.53425
7.40351
7.27275
7.14196
7.01115
6.88032
6.74946
6.61858
6.48769
6.35677
6.22584
6.09489
5.96392
5.83294
5.70194
5.57094
5.43992
5.3089
5.17786
5.04682
4.91577
4.78472
4.65365
4.52259
4.39152
4.26045
4.12937
3.99829
3.86721
3.73613
3.60504
3.47395
3.34287
3.21178
3.08069
2.9496
2.8185
2.68741
2.55632
2.42523
2.29414
2.16304
2.03195
1.90086
1.76976
1.63867
1.50758
1.37648
1.24539
1.1143
0.983202
0.852109
0.721015
0.589921
0.458826
0.327735
0.196628
0.065576
15.2304
14.5782
14.0064
13.5683
13.2091
12.9156
12.6662
12.4482
12.252
12.071
11.9008
11.7384
11.5817
11.4295
11.2807
11.1346
10.9909
10.849
10.7088
10.5701
10.4325
10.2961
10.1607
10.026
9.89217
9.75892
9.62622
9.49399
9.36214
9.23063
9.09939
8.96836
8.83751
8.70679
8.57617
8.44563
8.31513
8.18466
8.0542
7.92374
7.79327
7.66278
7.53226
7.40171
7.27113
7.14052
7.00987
6.87918
6.74846
6.61771
6.48692
6.3561
6.22526
6.09439
5.96349
5.83258
5.70164
5.57068
5.43971
5.30872
5.17772
5.0467
4.91568
4.78464
4.6536
4.52255
4.39149
4.26042
4.12936
3.99828
3.86721
3.73613
3.60505
3.47396
3.34288
3.21179
3.0807
2.94961
2.81852
2.68743
2.55633
2.42524
2.29415
2.16305
2.03196
1.90087
1.76977
1.63868
1.50758
1.37649
1.2454
1.1143
0.983207
0.852112
0.721018
0.589923
0.458828
0.327736
0.196627
0.06558
15.3989
14.7645
14.205
13.7566
13.3813
13.0677
12.7981
12.5611
12.3475
12.1512
11.9677
11.7937
11.6272
11.4664
11.3103
11.1581
11.009
10.8628
10.7188
10.577
10.4369
10.2984
10.1612
10.0253
9.89034
9.75629
9.62299
9.49034
9.35822
9.22656
9.09526
8.96426
8.8335
8.70291
8.57247
8.44212
8.31183
8.18159
8.05135
7.92112
7.79087
7.66059
7.53028
7.39993
7.26953
7.13909
7.0086
6.87806
6.74747
6.61684
6.48616
6.35544
6.22469
6.0939
5.96307
5.83222
5.70133
5.57043
5.43949
5.30854
5.17757
5.04658
4.91558
4.78457
4.65354
4.5225
4.39146
4.2604
4.12934
3.99828
3.86721
3.73613
3.60505
3.47397
3.34289
3.2118
3.08071
2.94962
2.81853
2.68744
2.55635
2.42525
2.29416
2.16307
2.03197
1.90088
1.76978
1.63869
1.50759
1.3765
1.2454
1.11431
0.983212
0.852116
0.721021
0.589926
0.458829
0.327737
0.196625
0.0655837
15.5453
14.9288
14.3807
13.926
13.5382
13.2082
12.9212
12.6672
12.438
12.2276
12.0316
11.8467
11.6707
11.5017
11.3386
11.1804
11.0263
10.8758
10.7282
10.5834
10.4408
10.3003
10.1615
10.0243
9.88831
9.75349
9.61963
9.48659
9.35422
9.22243
9.09109
8.96013
8.82947
8.69903
8.56876
8.43861
8.30854
8.17852
8.04852
7.91851
7.78849
7.65842
7.52832
7.39816
7.26795
7.13767
7.00734
6.87694
6.74649
6.61598
6.48541
6.35479
6.22413
6.09341
5.96266
5.83187
5.70104
5.57018
5.43929
5.30837
5.17743
5.04647
4.91549
4.7845
4.65349
4.52246
4.39143
4.26038
4.12933
3.99827
3.86721
3.73614
3.60506
3.47398
3.3429
3.21181
3.08073
2.94964
2.81855
2.68745
2.55636
2.42527
2.29417
2.16308
2.03198
1.90089
1.76979
1.6387
1.5076
1.3765
1.24541
1.11431
0.983216
0.85212
0.721024
0.589928
0.458831
0.327738
0.196624
0.065587
15.674
15.0744
14.5367
14.0782
13.6809
13.3373
13.0353
12.7664
12.5231
12.2997
12.0921
11.897
11.712
11.5353
11.3655
11.2015
11.0426
10.8879
10.7369
10.5892
10.4442
10.3018
10.1614
10.0229
9.88603
9.75049
9.61611
9.48271
9.35012
9.21822
9.08687
8.95596
8.82541
8.69513
8.56505
8.43511
8.30526
8.17547
8.0457
7.91592
7.78612
7.65627
7.52637
7.39641
7.26638
7.13628
7.0061
6.87585
6.74553
6.61513
6.48468
6.35416
6.22358
6.09294
5.96226
5.83152
5.70075
5.56993
5.43909
5.3082
5.1773
5.04636
4.9154
4.78443
4.65343
4.52242
4.3914
4.26037
4.12932
3.99827
3.86721
3.73614
3.60507
3.47399
3.34291
3.21183
3.08074
2.94965
2.81856
2.68747
2.55637
2.42528
2.29418
2.16309
2.03199
1.9009
1.7698
1.6387
1.50761
1.37651
1.24541
1.11432
0.983221
0.852124
0.721027
0.589931
0.458832
0.327739
0.196622
0.0655901
15.788
15.2039
14.6754
14.2148
13.8102
13.4553
13.1406
12.8585
12.6024
12.3673
12.1489
11.9442
11.7508
11.5668
11.3906
11.2212
11.0576
10.899
10.7447
10.5942
10.447
10.3027
10.1609
10.0213
9.88347
9.74726
9.6124
9.47868
9.34591
9.21393
9.08258
8.95175
8.82133
8.69121
8.56133
8.43161
8.30199
8.17243
8.0429
7.91335
7.78378
7.65415
7.52445
7.39469
7.26484
7.1349
7.00488
6.87477
6.74458
6.61431
6.48396
6.35353
6.22304
6.09248
5.96186
5.83119
5.70047
5.5697
5.43889
5.30804
5.17717
5.04626
4.91532
4.78436
4.65339
4.52239
4.39138
4.26035
4.12931
3.99827
3.86721
3.73615
3.60508
3.474
3.34292
3.21184
3.08075
2.94966
2.81857
2.68748
2.55639
2.42529
2.2942
2.1631
2.032
1.90091
1.76981
1.63871
1.50762
1.37652
1.24542
1.11432
0.983226
0.852129
0.721031
0.589933
0.458834
0.32774
0.196622
0.0655928
15.8896
15.3191
14.7986
14.3373
13.927
13.5628
13.237
12.9434
12.6759
12.43
12.2018
11.9882
11.7869
11.596
11.4138
11.2393
11.0713
10.9089
10.7515
10.5985
10.4491
10.3031
10.1599
10.0192
9.88057
9.74376
9.60848
9.47448
9.34156
9.20953
9.07822
8.94749
8.81721
8.68728
8.5576
8.42811
8.29873
8.16941
8.04012
7.91081
7.78146
7.65205
7.52256
7.39299
7.26332
7.13355
7.00369
6.87372
6.74366
6.6135
6.48326
6.35293
6.22252
6.09203
5.96148
5.83087
5.7002
5.56947
5.4387
5.30789
5.17704
5.04616
4.91524
4.7843
4.65334
4.52236
4.39136
4.26034
4.12931
3.99827
3.86721
3.73615
3.60509
3.47401
3.34294
3.21185
3.08077
2.94968
2.81859
2.6875
2.5564
2.42531
2.29421
2.16311
2.03202
1.90092
1.76982
1.63872
1.50762
1.37653
1.24543
1.11433
0.983231
0.852133
0.721034
0.589936
0.458836
0.327742
0.196621
0.0655952
15.9802
15.4216
14.9082
14.4467
14.0319
13.66
13.3249
13.021
12.7434
12.4877
12.2505
12.0287
11.8201
11.6227
11.435
11.2556
11.0834
10.9176
10.7573
10.6018
10.4505
10.3029
10.1584
10.0167
9.87731
9.73996
9.60431
9.4701
9.33707
9.20503
9.07378
8.94317
8.81306
8.68333
8.55388
8.42462
8.29548
8.16641
8.03736
7.90829
7.77917
7.64998
7.5207
7.39132
7.26183
7.13223
7.00252
6.87269
6.74276
6.61272
6.48258
6.35234
6.22201
6.0916
5.96112
5.83056
5.69994
5.56926
5.43853
5.30775
5.17692
5.04606
4.91517
4.78425
4.6533
4.52233
4.39134
4.26033
4.1293
3.99827
3.86722
3.73616
3.6051
3.47403
3.34295
3.21187
3.08078
2.94969
2.8186
2.68751
2.55641
2.42532
2.29422
2.16312
2.03203
1.90093
1.76983
1.63873
1.50763
1.37653
1.24543
1.11433
0.983236
0.852137
0.721037
0.589938
0.458838
0.327743
0.196621
0.0655973
16.061
15.5127
15.0053
14.5441
14.1258
13.7475
13.4042
13.0914
12.8048
12.5403
12.2948
12.0656
11.8502
11.6468
11.4539
11.27
11.094
10.9249
10.7618
10.6041
10.451
10.3019
10.1563
10.0137
9.87365
9.73583
9.59988
9.4655
9.33241
9.2004
9.06925
8.93879
8.80887
8.67936
8.55014
8.42114
8.29225
8.16344
8.03464
7.90581
7.77692
7.64795
7.51888
7.38969
7.26038
7.13095
7.00139
6.8717
6.74189
6.61196
6.48192
6.35177
6.22153
6.09119
5.96077
5.83027
5.69969
5.56906
5.43836
5.30761
5.17682
5.04598
4.91511
4.7842
4.65326
4.5223
4.39132
4.26032
4.1293
3.99827
3.86723
3.73617
3.60511
3.47404
3.34296
3.21188
3.0808
2.94971
2.81862
2.68752
2.55643
2.42533
2.29423
2.16314
2.03204
1.90094
1.76984
1.63874
1.50764
1.37654
1.24544
1.11434
0.983241
0.852141
0.721041
0.589941