/*--------------------------------*- C++ -*----------------------------------*\
  =========                 |
  \\      /  F ield         | OpenFOAM: The Open Source CFD Toolbox
   \\    /   O peration     | Website:  https://openfoam.org
    \\  /    A nd           | Version:  6
     \\/     M anipulation  |
\*---------------------------------------------------------------------------*/
FoamFile
{
    version     2.0;
    format      ascii;
    class       volScalarField;
    location    "0";
    object      p;
}
// * * * * * * * * * * * * * * * * * * * * * * * * * * * * * * * * * * * * * //

dimensions      [0 2 -2 0 0 0 0];

internalField   nonuniform List<scalar> 
145945
(
2.70697e-06
2.70654e-06
2.70641e-06
2.70631e-06
2.70634e-06
2.70634e-06
2.70639e-06
2.70641e-06
2.70643e-06
2.70643e-06
2.70644e-06
2.70641e-06
2.70644e-06
2.70642e-06
2.70657e-06
2.70667e-06
2.70714e-06
2.70654e-06
2.70629e-06
2.70618e-06
2.70612e-06
2.70615e-06
2.70616e-06
2.70621e-06
2.70623e-06
2.70625e-06
2.70626e-06
2.70626e-06
2.70624e-06
2.70626e-06
2.70625e-06
2.70635e-06
2.70644e-06
2.70671e-06
2.70641e-06
2.70618e-06
2.70607e-06
2.70604e-06
2.70608e-06
2.7061e-06
2.70614e-06
2.70617e-06
2.7062e-06
2.7062e-06
2.7062e-06
2.70618e-06
2.70619e-06
2.70618e-06
2.70625e-06
2.70634e-06
2.70659e-06
2.70631e-06
2.70612e-06
2.70604e-06
2.70605e-06
2.7061e-06
2.70613e-06
2.70617e-06
2.7062e-06
2.70623e-06
2.70623e-06
2.70623e-06
2.70622e-06
2.70621e-06
2.70621e-06
2.70624e-06
2.7063e-06
2.70649e-06
2.70634e-06
2.70615e-06
2.70608e-06
2.7061e-06
2.70614e-06
2.70618e-06
2.70622e-06
2.70625e-06
2.70627e-06
2.70628e-06
2.70628e-06
2.70626e-06
2.70626e-06
2.70625e-06
2.70628e-06
2.70634e-06
2.70653e-06
2.70634e-06
2.70616e-06
2.7061e-06
2.70613e-06
2.70618e-06
2.70622e-06
2.70626e-06
2.70629e-06
2.70631e-06
2.70632e-06
2.70632e-06
2.70631e-06
2.7063e-06
2.70629e-06
2.70631e-06
2.70635e-06
2.70653e-06
2.70639e-06
2.70621e-06
2.70614e-06
2.70617e-06
2.70622e-06
2.70626e-06
2.7063e-06
2.70633e-06
2.70635e-06
2.70636e-06
2.70636e-06
2.70635e-06
2.70634e-06
2.70634e-06
2.70635e-06
2.7064e-06
2.70658e-06
2.70641e-06
2.70623e-06
2.70617e-06
2.7062e-06
2.70625e-06
2.70629e-06
2.70633e-06
2.70636e-06
2.70638e-06
2.70639e-06
2.70639e-06
2.70638e-06
2.70637e-06
2.70637e-06
2.70638e-06
2.70642e-06
2.7066e-06
2.70643e-06
2.70625e-06
2.7062e-06
2.70623e-06
2.70627e-06
2.70631e-06
2.70635e-06
2.70638e-06
2.7064e-06
2.70641e-06
2.70641e-06
2.7064e-06
2.7064e-06
2.70639e-06
2.70641e-06
2.70645e-06
2.70663e-06
2.70643e-06
2.70626e-06
2.7062e-06
2.70623e-06
2.70628e-06
2.70632e-06
2.70636e-06
2.70639e-06
2.70641e-06
2.70642e-06
2.70642e-06
2.70641e-06
2.7064e-06
2.7064e-06
2.70641e-06
2.70645e-06
2.70663e-06
2.70644e-06
2.70626e-06
2.7062e-06
2.70623e-06
2.70628e-06
2.70632e-06
2.70636e-06
2.70639e-06
2.70641e-06
2.70642e-06
2.70642e-06
2.70641e-06
2.7064e-06
2.7064e-06
2.70641e-06
2.70645e-06
2.70663e-06
2.70641e-06
2.70624e-06
2.70618e-06
2.70622e-06
2.70626e-06
2.70631e-06
2.70635e-06
2.70638e-06
2.7064e-06
2.70641e-06
2.70641e-06
2.7064e-06
2.70639e-06
2.70638e-06
2.70639e-06
2.70643e-06
2.70661e-06
2.70644e-06
2.70626e-06
2.70619e-06
2.70621e-06
2.70626e-06
2.7063e-06
2.70634e-06
2.70637e-06
2.7064e-06
2.7064e-06
2.7064e-06
2.70639e-06
2.70638e-06
2.70637e-06
2.70639e-06
2.70644e-06
2.70663e-06
2.70643e-06
2.70625e-06
2.70618e-06
2.70621e-06
2.70625e-06
2.7063e-06
2.70634e-06
2.70637e-06
2.70639e-06
2.7064e-06
2.7064e-06
2.70638e-06
2.70637e-06
2.70636e-06
2.70638e-06
2.70643e-06
2.70661e-06
2.70657e-06
2.70635e-06
2.70625e-06
2.70624e-06
2.70628e-06
2.70631e-06
2.70635e-06
2.70638e-06
2.70641e-06
2.70641e-06
2.70641e-06
2.70639e-06
2.70639e-06
2.70639e-06
2.70644e-06
2.70652e-06
2.70675e-06
2.70667e-06
2.70644e-06
2.70634e-06
2.7063e-06
2.70634e-06
2.70635e-06
2.7064e-06
2.70642e-06
2.70645e-06
2.70645e-06
2.70645e-06
2.70643e-06
2.70644e-06
2.70644e-06
2.70652e-06
2.7066e-06
2.70685e-06
2.70714e-06
2.70671e-06
2.70659e-06
2.70649e-06
2.70653e-06
2.70653e-06
2.70658e-06
2.7066e-06
2.70663e-06
2.70663e-06
2.70663e-06
2.70661e-06
2.70663e-06
2.70661e-06
2.70675e-06
2.70685e-06
2.70731e-06
2.6354e-06
2.63523e-06
2.63531e-06
2.6354e-06
2.63557e-06
2.63571e-06
2.63585e-06
2.63593e-06
2.63598e-06
2.63596e-06
2.6359e-06
2.63579e-06
2.63567e-06
2.63552e-06
2.63544e-06
2.63534e-06
2.63551e-06
2.63523e-06
2.63523e-06
2.63535e-06
2.6355e-06
2.63569e-06
2.63586e-06
2.636e-06
2.6361e-06
2.63615e-06
2.63613e-06
2.63606e-06
2.63595e-06
2.6358e-06
2.63563e-06
2.6355e-06
2.63536e-06
2.63535e-06
2.63531e-06
2.63535e-06
2.63549e-06
2.63568e-06
2.63589e-06
2.63609e-06
2.63624e-06
2.63635e-06
2.6364e-06
2.63638e-06
2.63631e-06
2.63618e-06
2.63601e-06
2.63582e-06
2.63564e-06
2.63549e-06
2.63543e-06
2.6354e-06
2.6355e-06
2.63568e-06
2.63591e-06
2.63614e-06
2.63635e-06
2.63652e-06
2.63663e-06
2.63668e-06
2.63666e-06
2.63659e-06
2.63645e-06
2.63627e-06
2.63606e-06
2.63585e-06
2.63565e-06
2.63553e-06
2.63557e-06
2.63569e-06
2.63589e-06
2.63614e-06
2.63639e-06
2.63661e-06
2.63678e-06
2.6369e-06
2.63695e-06
2.63694e-06
2.63685e-06
2.63671e-06
2.63652e-06
2.6363e-06
2.63607e-06
2.63585e-06
2.63569e-06
2.63571e-06
2.63586e-06
2.63608e-06
2.63635e-06
2.63661e-06
2.63684e-06
2.63701e-06
2.63713e-06
2.63718e-06
2.63717e-06
2.63709e-06
2.63694e-06
2.63675e-06
2.63651e-06
2.63626e-06
2.63602e-06
2.63584e-06
2.63585e-06
2.636e-06
2.63624e-06
2.63652e-06
2.63678e-06
2.63701e-06
2.63719e-06
2.63731e-06
2.63737e-06
2.63735e-06
2.63727e-06
2.63712e-06
2.63692e-06
2.63668e-06
2.63643e-06
2.63617e-06
2.63598e-06
2.63593e-06
2.6361e-06
2.63635e-06
2.63663e-06
2.6369e-06
2.63713e-06
2.63731e-06
2.63743e-06
2.63749e-06
2.63747e-06
2.63739e-06
2.63724e-06
2.63704e-06
2.63679e-06
2.63653e-06
2.63627e-06
2.63606e-06
2.63598e-06
2.63615e-06
2.6364e-06
2.63668e-06
2.63695e-06
2.63719e-06
2.63737e-06
2.63749e-06
2.63754e-06
2.63753e-06
2.63744e-06
2.63729e-06
2.63709e-06
2.63685e-06
2.63658e-06
2.63631e-06
2.63611e-06
2.63596e-06
2.63613e-06
2.63638e-06
2.63666e-06
2.63694e-06
2.63717e-06
2.63735e-06
2.63747e-06
2.63753e-06
2.63751e-06
2.63742e-06
2.63728e-06
2.63708e-06
2.63683e-06
2.63657e-06
2.6363e-06
2.63609e-06
2.6359e-06
2.63607e-06
2.63631e-06
2.63659e-06
2.63685e-06
2.63709e-06
2.63727e-06
2.63739e-06
2.63744e-06
2.63742e-06
2.63734e-06
2.63719e-06
2.63699e-06
2.63675e-06
2.63649e-06
2.63623e-06
2.63603e-06
2.63579e-06
2.63595e-06
2.63618e-06
2.63645e-06
2.63671e-06
2.63694e-06
2.63712e-06
2.63724e-06
2.63729e-06
2.63728e-06
2.63719e-06
2.63705e-06
2.63685e-06
2.63661e-06
2.63636e-06
2.63611e-06
2.63592e-06
2.63567e-06
2.6358e-06
2.63601e-06
2.63627e-06
2.63653e-06
2.63675e-06
2.63692e-06
2.63704e-06
2.63709e-06
2.63708e-06
2.63699e-06
2.63685e-06
2.63666e-06
2.63643e-06
2.63619e-06
2.63596e-06
2.6358e-06
2.63552e-06
2.63563e-06
2.63582e-06
2.63606e-06
2.6363e-06
2.63651e-06
2.63668e-06
2.6368e-06
2.63685e-06
2.63683e-06
2.63675e-06
2.63661e-06
2.63643e-06
2.63621e-06
2.63599e-06
2.63578e-06
2.63564e-06
2.63544e-06
2.6355e-06
2.63564e-06
2.63585e-06
2.63607e-06
2.63627e-06
2.63643e-06
2.63653e-06
2.63658e-06
2.63657e-06
2.63649e-06
2.63636e-06
2.63619e-06
2.63599e-06
2.6358e-06
2.63564e-06
2.63556e-06
2.63534e-06
2.63536e-06
2.63549e-06
2.63565e-06
2.63585e-06
2.63602e-06
2.63617e-06
2.63627e-06
2.63632e-06
2.6363e-06
2.63623e-06
2.63611e-06
2.63596e-06
2.63578e-06
2.63564e-06
2.63549e-06
2.63546e-06
2.63551e-06
2.63535e-06
2.63543e-06
2.63553e-06
2.6357e-06
2.63584e-06
2.63598e-06
2.63606e-06
2.63611e-06
2.63609e-06
2.63603e-06
2.63592e-06
2.6358e-06
2.63564e-06
2.63556e-06
2.63546e-06
2.63562e-06
2.58772e-06
2.58857e-06
2.58937e-06
2.59007e-06
2.59071e-06
2.59118e-06
2.59153e-06
2.59174e-06
2.59182e-06
2.59177e-06
2.5916e-06
2.59128e-06
2.59084e-06
2.59023e-06
2.58951e-06
2.58863e-06
2.58774e-06
2.58857e-06
2.58935e-06
2.59012e-06
2.59083e-06
2.59145e-06
2.59193e-06
2.59227e-06
2.59248e-06
2.59257e-06
2.59252e-06
2.59234e-06
2.59203e-06
2.59159e-06
2.59098e-06
2.59026e-06
2.5894e-06
2.5886e-06
2.58937e-06
2.59012e-06
2.59084e-06
2.59151e-06
2.59212e-06
2.59258e-06
2.59293e-06
2.59313e-06
2.59322e-06
2.59317e-06
2.59299e-06
2.59268e-06
2.59225e-06
2.59166e-06
2.59096e-06
2.59017e-06
2.5894e-06
2.59007e-06
2.59083e-06
2.59151e-06
2.59217e-06
2.59276e-06
2.59322e-06
2.59355e-06
2.59376e-06
2.59384e-06
2.59379e-06
2.59362e-06
2.59332e-06
2.59289e-06
2.59232e-06
2.59163e-06
2.59086e-06
2.5901e-06
2.59071e-06
2.59145e-06
2.59212e-06
2.59276e-06
2.59333e-06
2.59378e-06
2.59411e-06
2.59431e-06
2.59439e-06
2.59435e-06
2.59418e-06
2.59388e-06
2.59346e-06
2.5929e-06
2.59222e-06
2.59149e-06
2.59073e-06
2.59118e-06
2.59193e-06
2.59258e-06
2.59322e-06
2.59378e-06
2.59423e-06
2.59455e-06
2.59476e-06
2.59483e-06
2.59479e-06
2.59462e-06
2.59433e-06
2.59391e-06
2.59336e-06
2.59269e-06
2.59197e-06
2.59121e-06
2.59153e-06
2.59227e-06
2.59293e-06
2.59355e-06
2.59411e-06
2.59455e-06
2.59488e-06
2.59508e-06
2.59515e-06
2.59511e-06
2.59494e-06
2.59465e-06
2.59424e-06
2.59369e-06
2.59303e-06
2.59231e-06
2.59156e-06
2.59174e-06
2.59248e-06
2.59313e-06
2.59376e-06
2.59431e-06
2.59476e-06
2.59508e-06
2.59527e-06
2.59535e-06
2.59531e-06
2.59514e-06
2.59485e-06
2.59444e-06
2.5939e-06
2.59324e-06
2.59252e-06
2.59176e-06
2.59182e-06
2.59257e-06
2.59322e-06
2.59384e-06
2.59439e-06
2.59483e-06
2.59515e-06
2.59535e-06
2.59543e-06
2.59538e-06
2.59522e-06
2.59493e-06
2.59452e-06
2.59398e-06
2.59332e-06
2.59261e-06
2.59185e-06
2.59177e-06
2.59252e-06
2.59317e-06
2.59379e-06
2.59435e-06
2.59479e-06
2.59511e-06
2.59531e-06
2.59538e-06
2.59534e-06
2.59517e-06
2.59489e-06
2.59447e-06
2.59393e-06
2.59327e-06
2.59256e-06
2.5918e-06
2.5916e-06
2.59234e-06
2.59299e-06
2.59362e-06
2.59418e-06
2.59462e-06
2.59494e-06
2.59514e-06
2.59522e-06
2.59517e-06
2.59501e-06
2.59472e-06
2.5943e-06
2.59376e-06
2.5931e-06
2.59238e-06
2.59162e-06
2.59128e-06
2.59203e-06
2.59268e-06
2.59332e-06
2.59388e-06
2.59433e-06
2.59465e-06
2.59485e-06
2.59493e-06
2.59489e-06
2.59472e-06
2.59443e-06
2.59401e-06
2.59346e-06
2.59279e-06
2.59207e-06
2.59131e-06
2.59084e-06
2.59159e-06
2.59225e-06
2.59289e-06
2.59346e-06
2.59391e-06
2.59424e-06
2.59444e-06
2.59452e-06
2.59447e-06
2.5943e-06
2.59401e-06
2.59359e-06
2.59303e-06
2.59236e-06
2.59162e-06
2.59087e-06
2.59023e-06
2.59098e-06
2.59166e-06
2.59232e-06
2.5929e-06
2.59336e-06
2.59369e-06
2.5939e-06
2.59398e-06
2.59393e-06
2.59376e-06
2.59346e-06
2.59303e-06
2.59246e-06
2.59177e-06
2.59102e-06
2.59025e-06
2.58951e-06
2.59026e-06
2.59096e-06
2.59163e-06
2.59222e-06
2.59269e-06
2.59303e-06
2.59324e-06
2.59332e-06
2.59327e-06
2.5931e-06
2.59279e-06
2.59236e-06
2.59177e-06
2.59107e-06
2.5903e-06
2.58954e-06
2.58863e-06
2.58941e-06
2.59017e-06
2.59087e-06
2.59149e-06
2.59197e-06
2.59231e-06
2.59252e-06
2.59261e-06
2.59256e-06
2.59238e-06
2.59207e-06
2.59162e-06
2.59102e-06
2.5903e-06
2.58945e-06
2.58866e-06
2.58774e-06
2.5886e-06
2.5894e-06
2.5901e-06
2.59073e-06
2.59121e-06
2.59156e-06
2.59177e-06
2.59185e-06
2.5918e-06
2.59162e-06
2.59131e-06
2.59087e-06
2.59025e-06
2.58954e-06
2.58866e-06
2.58777e-06
2.53745e-06
2.53907e-06
2.54055e-06
2.54195e-06
2.54314e-06
2.54403e-06
2.54466e-06
2.54504e-06
2.54519e-06
2.54509e-06
2.54477e-06
2.54419e-06
2.54338e-06
2.54226e-06
2.54086e-06
2.53925e-06
2.53751e-06
2.53907e-06
2.54043e-06
2.54186e-06
2.54323e-06
2.54438e-06
2.54524e-06
2.54585e-06
2.54622e-06
2.54637e-06
2.54628e-06
2.54596e-06
2.54541e-06
2.54461e-06
2.54353e-06
2.54217e-06
2.5406e-06
2.53913e-06
2.54055e-06
2.54186e-06
2.54323e-06
2.54454e-06
2.54563e-06
2.54646e-06
2.54705e-06
2.5474e-06
2.54754e-06
2.54746e-06
2.54715e-06
2.54662e-06
2.54586e-06
2.54483e-06
2.54353e-06
2.54202e-06
2.54062e-06
2.54195e-06
2.54323e-06
2.54454e-06
2.54579e-06
2.54685e-06
2.54764e-06
2.5482e-06
2.54855e-06
2.54868e-06
2.5486e-06
2.54831e-06
2.5478e-06
2.54707e-06
2.54608e-06
2.54483e-06
2.54339e-06
2.54202e-06
2.54314e-06
2.54438e-06
2.54563e-06
2.54685e-06
2.54786e-06
2.54863e-06
2.54917e-06
2.54951e-06
2.54964e-06
2.54956e-06
2.54927e-06
2.54878e-06
2.54808e-06
2.54713e-06
2.54592e-06
2.54454e-06
2.54322e-06
2.54403e-06
2.54524e-06
2.54646e-06
2.54764e-06
2.54863e-06
2.54938e-06
2.54991e-06
2.55023e-06
2.55036e-06
2.55029e-06
2.55001e-06
2.54953e-06
2.54884e-06
2.54792e-06
2.54674e-06
2.5454e-06
2.5441e-06
2.54466e-06
2.54585e-06
2.54704e-06
2.5482e-06
2.54917e-06
2.54991e-06
2.55043e-06
2.55075e-06
2.55087e-06
2.5508e-06
2.55053e-06
2.55006e-06
2.54938e-06
2.54848e-06
2.54732e-06
2.54601e-06
2.54473e-06
2.54504e-06
2.54622e-06
2.5474e-06
2.54855e-06
2.54951e-06
2.55023e-06
2.55075e-06
2.55106e-06
2.55119e-06
2.55111e-06
2.55085e-06
2.55038e-06
2.54971e-06
2.54882e-06
2.54768e-06
2.54638e-06
2.54511e-06
2.54519e-06
2.54637e-06
2.54754e-06
2.54868e-06
2.54964e-06
2.55036e-06
2.55087e-06
2.55119e-06
2.55131e-06
2.55124e-06
2.55097e-06
2.55051e-06
2.54984e-06
2.54895e-06
2.54781e-06
2.54653e-06
2.54526e-06
2.54509e-06
2.54628e-06
2.54746e-06
2.5486e-06
2.54956e-06
2.55029e-06
2.5508e-06
2.55111e-06
2.55124e-06
2.55117e-06
2.5509e-06
2.55043e-06
2.54976e-06
2.54887e-06
2.54773e-06
2.54644e-06
2.54517e-06
2.54477e-06
2.54596e-06
2.54715e-06
2.54831e-06
2.54928e-06
2.55001e-06
2.55053e-06
2.55085e-06
2.55097e-06
2.5509e-06
2.55063e-06
2.55016e-06
2.54948e-06
2.54858e-06
2.54743e-06
2.54612e-06
2.54484e-06
2.54419e-06
2.54541e-06
2.54662e-06
2.5478e-06
2.54878e-06
2.54953e-06
2.55006e-06
2.55038e-06
2.55051e-06
2.55043e-06
2.55016e-06
2.54968e-06
2.54899e-06
2.54807e-06
2.5469e-06
2.54556e-06
2.54427e-06
2.54338e-06
2.54461e-06
2.54586e-06
2.54707e-06
2.54808e-06
2.54884e-06
2.54938e-06
2.54971e-06
2.54984e-06
2.54976e-06
2.54948e-06
2.54899e-06
2.54829e-06
2.54735e-06
2.54614e-06
2.54477e-06
2.54345e-06
2.54226e-06
2.54353e-06
2.54483e-06
2.54608e-06
2.54713e-06
2.54792e-06
2.54848e-06
2.54882e-06
2.54895e-06
2.54887e-06
2.54858e-06
2.54807e-06
2.54735e-06
2.54637e-06
2.54512e-06
2.54369e-06
2.54233e-06
2.54086e-06
2.54217e-06
2.54353e-06
2.54483e-06
2.54592e-06
2.54674e-06
2.54732e-06
2.54768e-06
2.54781e-06
2.54773e-06
2.54743e-06
2.5469e-06
2.54614e-06
2.54512e-06
2.54383e-06
2.54234e-06
2.54093e-06
2.53925e-06
2.5406e-06
2.54202e-06
2.54339e-06
2.54454e-06
2.5454e-06
2.54601e-06
2.54638e-06
2.54653e-06
2.54644e-06
2.54612e-06
2.54557e-06
2.54477e-06
2.54369e-06
2.54233e-06
2.54077e-06
2.53931e-06
2.53751e-06
2.53913e-06
2.54062e-06
2.54202e-06
2.54322e-06
2.5441e-06
2.54473e-06
2.54511e-06
2.54526e-06
2.54517e-06
2.54484e-06
2.54427e-06
2.54345e-06
2.54233e-06
2.54093e-06
2.53931e-06
2.53757e-06
2.48771e-06
2.48959e-06
2.49127e-06
2.49293e-06
2.49431e-06
2.49535e-06
2.4961e-06
2.49656e-06
2.49673e-06
2.49662e-06
2.49623e-06
2.49554e-06
2.49457e-06
2.49326e-06
2.4916e-06
2.48977e-06
2.48776e-06
2.48959e-06
2.49117e-06
2.49282e-06
2.49443e-06
2.49579e-06
2.49683e-06
2.49757e-06
2.49801e-06
2.49819e-06
2.49808e-06
2.49769e-06
2.49702e-06
2.49606e-06
2.49477e-06
2.49315e-06
2.49134e-06
2.48964e-06
2.49127e-06
2.49282e-06
2.49444e-06
2.49599e-06
2.49731e-06
2.49831e-06
2.49902e-06
2.49946e-06
2.49963e-06
2.49952e-06
2.49915e-06
2.49849e-06
2.49757e-06
2.49632e-06
2.49476e-06
2.49298e-06
2.49132e-06
2.49293e-06
2.49443e-06
2.49599e-06
2.4975e-06
2.49877e-06
2.49974e-06
2.50043e-06
2.50085e-06
2.50102e-06
2.50092e-06
2.50055e-06
2.49992e-06
2.49902e-06
2.49782e-06
2.49631e-06
2.49459e-06
2.49298e-06
2.49431e-06
2.49579e-06
2.49731e-06
2.49877e-06
2.5e-06
2.50095e-06
2.50162e-06
2.50203e-06
2.50219e-06
2.50209e-06
2.50174e-06
2.50113e-06
2.50025e-06
2.49909e-06
2.49762e-06
2.49595e-06
2.49436e-06
2.49535e-06
2.49683e-06
2.49831e-06
2.49974e-06
2.50095e-06
2.50187e-06
2.50253e-06
2.50294e-06
2.50309e-06
2.503e-06
2.50265e-06
2.50205e-06
2.50119e-06
2.50005e-06
2.49862e-06
2.49698e-06
2.49541e-06
2.4961e-06
2.49756e-06
2.49902e-06
2.50043e-06
2.50162e-06
2.50253e-06
2.50318e-06
2.50358e-06
2.50373e-06
2.50364e-06
2.5033e-06
2.50271e-06
2.50186e-06
2.50074e-06
2.49933e-06
2.49772e-06
2.49616e-06
2.49656e-06
2.49801e-06
2.49946e-06
2.50085e-06
2.50203e-06
2.50294e-06
2.50358e-06
2.50397e-06
2.50412e-06
2.50403e-06
2.50369e-06
2.50311e-06
2.50227e-06
2.50116e-06
2.49976e-06
2.49817e-06
2.49661e-06
2.49673e-06
2.49819e-06
2.49963e-06
2.50102e-06
2.50219e-06
2.50309e-06
2.50373e-06
2.50412e-06
2.50428e-06
2.50418e-06
2.50385e-06
2.50327e-06
2.50243e-06
2.50132e-06
2.49993e-06
2.49835e-06
2.49679e-06
2.49662e-06
2.49808e-06
2.49952e-06
2.50092e-06
2.50209e-06
2.503e-06
2.50364e-06
2.50403e-06
2.50418e-06
2.50409e-06
2.50375e-06
2.50317e-06
2.50233e-06
2.50122e-06
2.49982e-06
2.49824e-06
2.49668e-06
2.49623e-06
2.49769e-06
2.49915e-06
2.50055e-06
2.50174e-06
2.50265e-06
2.5033e-06
2.50369e-06
2.50385e-06
2.50375e-06
2.50341e-06
2.50282e-06
2.50198e-06
2.50086e-06
2.49945e-06
2.49785e-06
2.49629e-06
2.49554e-06
2.49702e-06
2.49849e-06
2.49992e-06
2.50113e-06
2.50205e-06
2.50271e-06
2.50311e-06
2.50327e-06
2.50317e-06
2.50282e-06
2.50223e-06
2.50137e-06
2.50023e-06
2.4988e-06
2.49717e-06
2.4956e-06
2.49457e-06
2.49606e-06
2.49757e-06
2.49902e-06
2.50025e-06
2.50119e-06
2.50186e-06
2.50227e-06
2.50243e-06
2.50233e-06
2.50198e-06
2.50137e-06
2.5005e-06
2.49934e-06
2.49788e-06
2.49621e-06
2.49463e-06
2.49326e-06
2.49477e-06
2.49632e-06
2.49782e-06
2.49909e-06
2.50005e-06
2.50074e-06
2.50116e-06
2.50132e-06
2.50122e-06
2.50086e-06
2.50023e-06
2.49934e-06
2.49814e-06
2.49664e-06
2.49493e-06
2.49332e-06
2.4916e-06
2.49315e-06
2.49476e-06
2.49631e-06
2.49762e-06
2.49862e-06
2.49933e-06
2.49976e-06
2.49993e-06
2.49982e-06
2.49945e-06
2.4988e-06
2.49788e-06
2.49664e-06
2.49509e-06
2.49331e-06
2.49165e-06
2.48978e-06
2.49134e-06
2.49298e-06
2.49459e-06
2.49595e-06
2.49699e-06
2.49772e-06
2.49817e-06
2.49835e-06
2.49824e-06
2.49785e-06
2.49718e-06
2.49621e-06
2.49493e-06
2.49331e-06
2.49151e-06
2.48983e-06
2.48776e-06
2.48964e-06
2.49133e-06
2.49298e-06
2.49436e-06
2.49541e-06
2.49616e-06
2.49661e-06
2.49679e-06
2.49668e-06
2.49629e-06
2.4956e-06
2.49463e-06
2.49332e-06
2.49165e-06
2.48983e-06
2.4878e-06
2.44153e-06
2.4435e-06
2.44524e-06
2.44698e-06
2.44843e-06
2.44953e-06
2.45032e-06
2.4508e-06
2.45099e-06
2.45087e-06
2.45045e-06
2.44972e-06
2.44869e-06
2.44732e-06
2.44555e-06
2.44367e-06
2.44156e-06
2.4435e-06
2.44515e-06
2.44688e-06
2.44858e-06
2.45002e-06
2.45113e-06
2.45191e-06
2.45239e-06
2.45258e-06
2.45246e-06
2.45204e-06
2.45132e-06
2.45029e-06
2.44892e-06
2.4472e-06
2.44531e-06
2.44353e-06
2.44524e-06
2.44688e-06
2.4486e-06
2.45025e-06
2.45165e-06
2.45272e-06
2.45349e-06
2.45396e-06
2.45414e-06
2.45402e-06
2.45361e-06
2.45291e-06
2.45191e-06
2.45058e-06
2.44891e-06
2.44702e-06
2.44527e-06
2.44699e-06
2.44859e-06
2.45025e-06
2.45185e-06
2.45322e-06
2.45427e-06
2.45501e-06
2.45547e-06
2.45564e-06
2.45553e-06
2.45513e-06
2.45445e-06
2.45347e-06
2.45217e-06
2.45055e-06
2.44872e-06
2.44701e-06
2.44843e-06
2.45002e-06
2.45165e-06
2.45322e-06
2.45455e-06
2.45558e-06
2.45631e-06
2.45676e-06
2.45693e-06
2.45682e-06
2.45643e-06
2.45576e-06
2.4548e-06
2.45353e-06
2.45195e-06
2.45016e-06
2.44846e-06
2.44953e-06
2.45113e-06
2.45272e-06
2.45427e-06
2.45558e-06
2.45659e-06
2.4573e-06
2.45774e-06
2.45791e-06
2.45781e-06
2.45742e-06
2.45677e-06
2.45582e-06
2.45458e-06
2.45302e-06
2.45126e-06
2.44956e-06
2.45032e-06
2.45191e-06
2.45349e-06
2.45501e-06
2.45631e-06
2.4573e-06
2.45801e-06
2.45845e-06
2.45862e-06
2.45851e-06
2.45813e-06
2.45748e-06
2.45655e-06
2.45532e-06
2.45378e-06
2.45204e-06
2.45035e-06
2.4508e-06
2.45239e-06
2.45396e-06
2.45547e-06
2.45676e-06
2.45774e-06
2.45845e-06
2.45888e-06
2.45905e-06
2.45894e-06
2.45857e-06
2.45792e-06
2.457e-06
2.45578e-06
2.45425e-06
2.45252e-06
2.45083e-06
2.45099e-06
2.45258e-06
2.45414e-06
2.45564e-06
2.45693e-06
2.45791e-06
2.45862e-06
2.45905e-06
2.45921e-06
2.45911e-06
2.45873e-06
2.45809e-06
2.45717e-06
2.45595e-06
2.45442e-06
2.45271e-06
2.45102e-06
2.45087e-06
2.45246e-06
2.45402e-06
2.45553e-06
2.45682e-06
2.45781e-06
2.45851e-06
2.45894e-06
2.45911e-06
2.459e-06
2.45863e-06
2.45798e-06
2.45706e-06
2.45584e-06
2.45431e-06
2.45259e-06
2.4509e-06
2.45045e-06
2.45204e-06
2.45361e-06
2.45513e-06
2.45643e-06
2.45742e-06
2.45813e-06
2.45857e-06
2.45873e-06
2.45863e-06
2.45825e-06
2.4576e-06
2.45667e-06
2.45544e-06
2.4539e-06
2.45217e-06
2.45048e-06
2.44972e-06
2.45132e-06
2.45291e-06
2.45445e-06
2.45576e-06
2.45677e-06
2.45748e-06
2.45792e-06
2.45809e-06
2.45798e-06
2.4576e-06
2.45694e-06
2.456e-06
2.45476e-06
2.45321e-06
2.45145e-06
2.44975e-06
2.44869e-06
2.45029e-06
2.45191e-06
2.45347e-06
2.4548e-06
2.45582e-06
2.45655e-06
2.457e-06
2.45717e-06
2.45706e-06
2.45667e-06
2.456e-06
2.45505e-06
2.45379e-06
2.45221e-06
2.45042e-06
2.44872e-06
2.44732e-06
2.44892e-06
2.45058e-06
2.45218e-06
2.45353e-06
2.45458e-06
2.45532e-06
2.45578e-06
2.45595e-06
2.45584e-06
2.45544e-06
2.45476e-06
2.45379e-06
2.45249e-06
2.45088e-06
2.44905e-06
2.44735e-06
2.44555e-06
2.4472e-06
2.44891e-06
2.45056e-06
2.45195e-06
2.45302e-06
2.45378e-06
2.45425e-06
2.45443e-06
2.45431e-06
2.45391e-06
2.45321e-06
2.45221e-06
2.45088e-06
2.44922e-06
2.44734e-06
2.44558e-06
2.44367e-06
2.44531e-06
2.44702e-06
2.44872e-06
2.45016e-06
2.45126e-06
2.45205e-06
2.45253e-06
2.45271e-06
2.45259e-06
2.45217e-06
2.45145e-06
2.45042e-06
2.44905e-06
2.44734e-06
2.44546e-06
2.4437e-06
2.44156e-06
2.44353e-06
2.44527e-06
2.44701e-06
2.44846e-06
2.44956e-06
2.45035e-06
2.45083e-06
2.45102e-06
2.4509e-06
2.45048e-06
2.44975e-06
2.44872e-06
2.44735e-06
2.44558e-06
2.4437e-06
2.44159e-06
2.3983e-06
2.40022e-06
2.40193e-06
2.40368e-06
2.40511e-06
2.40622e-06
2.40701e-06
2.4075e-06
2.40768e-06
2.40756e-06
2.40714e-06
2.40641e-06
2.40537e-06
2.40401e-06
2.40223e-06
2.40038e-06
2.39832e-06
2.40022e-06
2.40185e-06
2.40356e-06
2.40526e-06
2.40671e-06
2.40782e-06
2.40862e-06
2.4091e-06
2.40929e-06
2.40917e-06
2.40874e-06
2.40801e-06
2.40697e-06
2.4056e-06
2.40387e-06
2.402e-06
2.40025e-06
2.40193e-06
2.40356e-06
2.40527e-06
2.40694e-06
2.40835e-06
2.40944e-06
2.41022e-06
2.4107e-06
2.41088e-06
2.41076e-06
2.41035e-06
2.40963e-06
2.40861e-06
2.40727e-06
2.40558e-06
2.40369e-06
2.40195e-06
2.40368e-06
2.40526e-06
2.40694e-06
2.40856e-06
2.40995e-06
2.41102e-06
2.41178e-06
2.41225e-06
2.41243e-06
2.41231e-06
2.41191e-06
2.4112e-06
2.4102e-06
2.40888e-06
2.40724e-06
2.4054e-06
2.4037e-06
2.40511e-06
2.40671e-06
2.40835e-06
2.40995e-06
2.41131e-06
2.41237e-06
2.41312e-06
2.41358e-06
2.41375e-06
2.41364e-06
2.41324e-06
2.41255e-06
2.41156e-06
2.41027e-06
2.40865e-06
2.40684e-06
2.40513e-06
2.40622e-06
2.40782e-06
2.40944e-06
2.41102e-06
2.41237e-06
2.4134e-06
2.41414e-06
2.4146e-06
2.41477e-06
2.41466e-06
2.41426e-06
2.41358e-06
2.41261e-06
2.41133e-06
2.40974e-06
2.40795e-06
2.40625e-06
2.40701e-06
2.40862e-06
2.41022e-06
2.41178e-06
2.41312e-06
2.41414e-06
2.41488e-06
2.41533e-06
2.4155e-06
2.41539e-06
2.415e-06
2.41432e-06
2.41336e-06
2.41209e-06
2.41052e-06
2.40875e-06
2.40704e-06
2.4075e-06
2.4091e-06
2.4107e-06
2.41225e-06
2.41358e-06
2.4146e-06
2.41533e-06
2.41578e-06
2.41595e-06
2.41584e-06
2.41545e-06
2.41478e-06
2.41382e-06
2.41256e-06
2.41099e-06
2.40923e-06
2.40752e-06
2.40768e-06
2.40929e-06
2.41088e-06
2.41243e-06
2.41375e-06
2.41477e-06
2.4155e-06
2.41595e-06
2.41612e-06
2.41601e-06
2.41562e-06
2.41495e-06
2.414e-06
2.41274e-06
2.41117e-06
2.40942e-06
2.40771e-06
2.40756e-06
2.40917e-06
2.41076e-06
2.41231e-06
2.41364e-06
2.41466e-06
2.41539e-06
2.41584e-06
2.41601e-06
2.4159e-06
2.41551e-06
2.41484e-06
2.41388e-06
2.41262e-06
2.41105e-06
2.4093e-06
2.40759e-06
2.40714e-06
2.40874e-06
2.41035e-06
2.41191e-06
2.41324e-06
2.41426e-06
2.415e-06
2.41545e-06
2.41562e-06
2.41551e-06
2.41512e-06
2.41444e-06
2.41348e-06
2.41222e-06
2.41064e-06
2.40887e-06
2.40716e-06
2.40641e-06
2.40801e-06
2.40963e-06
2.4112e-06
2.41255e-06
2.41358e-06
2.41432e-06
2.41478e-06
2.41495e-06
2.41484e-06
2.41444e-06
2.41376e-06
2.4128e-06
2.41152e-06
2.40993e-06
2.40814e-06
2.40643e-06
2.40537e-06
2.40697e-06
2.40861e-06
2.4102e-06
2.41156e-06
2.41261e-06
2.41336e-06
2.41382e-06
2.414e-06
2.41388e-06
2.41348e-06
2.4128e-06
2.41181e-06
2.41052e-06
2.40891e-06
2.4071e-06
2.40539e-06
2.40401e-06
2.4056e-06
2.40727e-06
2.40888e-06
2.41027e-06
2.41133e-06
2.4121e-06
2.41256e-06
2.41274e-06
2.41263e-06
2.41222e-06
2.41152e-06
2.41052e-06
2.40921e-06
2.40757e-06
2.40573e-06
2.40403e-06
2.40224e-06
2.40387e-06
2.40558e-06
2.40724e-06
2.40866e-06
2.40974e-06
2.41052e-06
2.41099e-06
2.41117e-06
2.41106e-06
2.41064e-06
2.40993e-06
2.40891e-06
2.40757e-06
2.40589e-06
2.404e-06
2.40226e-06
2.40038e-06
2.402e-06
2.4037e-06
2.4054e-06
2.40684e-06
2.40795e-06
2.40875e-06
2.40924e-06
2.40942e-06
2.4093e-06
2.40887e-06
2.40814e-06
2.4071e-06
2.40573e-06
2.404e-06
2.40214e-06
2.40041e-06
2.39832e-06
2.40025e-06
2.40195e-06
2.4037e-06
2.40514e-06
2.40625e-06
2.40704e-06
2.40752e-06
2.40771e-06
2.40759e-06
2.40717e-06
2.40643e-06
2.4054e-06
2.40403e-06
2.40226e-06
2.40041e-06
2.39835e-06
2.35751e-06
2.35929e-06
2.36089e-06
2.36254e-06
2.36389e-06
2.36495e-06
2.3657e-06
2.36617e-06
2.36634e-06
2.36623e-06
2.36582e-06
2.36513e-06
2.36413e-06
2.36285e-06
2.36117e-06
2.35944e-06
2.35753e-06
2.35929e-06
2.36082e-06
2.36242e-06
2.36403e-06
2.3654e-06
2.36647e-06
2.36723e-06
2.3677e-06
2.36788e-06
2.36777e-06
2.36736e-06
2.36665e-06
2.36565e-06
2.36435e-06
2.3627e-06
2.36095e-06
2.35932e-06
2.36089e-06
2.36242e-06
2.36404e-06
2.36563e-06
2.36698e-06
2.36803e-06
2.36878e-06
2.36924e-06
2.36942e-06
2.3693e-06
2.3689e-06
2.36821e-06
2.36723e-06
2.36594e-06
2.36433e-06
2.36254e-06
2.36091e-06
2.36254e-06
2.36403e-06
2.36563e-06
2.36718e-06
2.36851e-06
2.36955e-06
2.37029e-06
2.37075e-06
2.37092e-06
2.37081e-06
2.37041e-06
2.36973e-06
2.36876e-06
2.36749e-06
2.36591e-06
2.36416e-06
2.36256e-06
2.36389e-06
2.3654e-06
2.36698e-06
2.36851e-06
2.36983e-06
2.37086e-06
2.37159e-06
2.37204e-06
2.37221e-06
2.3721e-06
2.37171e-06
2.37103e-06
2.37008e-06
2.36882e-06
2.36727e-06
2.36553e-06
2.36391e-06
2.36495e-06
2.36647e-06
2.36803e-06
2.36955e-06
2.37086e-06
2.37187e-06
2.37259e-06
2.37304e-06
2.37321e-06
2.3731e-06
2.37271e-06
2.37204e-06
2.3711e-06
2.36985e-06
2.36831e-06
2.36659e-06
2.36497e-06
2.3657e-06
2.36723e-06
2.36878e-06
2.37029e-06
2.37159e-06
2.37259e-06
2.37331e-06
2.37376e-06
2.37392e-06
2.37382e-06
2.37343e-06
2.37277e-06
2.37183e-06
2.37059e-06
2.36906e-06
2.36736e-06
2.36572e-06
2.36617e-06
2.3677e-06
2.36924e-06
2.37074e-06
2.37204e-06
2.37304e-06
2.37376e-06
2.3742e-06
2.37436e-06
2.37426e-06
2.37387e-06
2.37321e-06
2.37228e-06
2.37105e-06
2.36952e-06
2.36782e-06
2.36619e-06
2.36634e-06
2.36788e-06
2.36942e-06
2.37092e-06
2.37221e-06
2.37321e-06
2.37392e-06
2.37437e-06
2.37453e-06
2.37442e-06
2.37404e-06
2.37338e-06
2.37245e-06
2.37122e-06
2.3697e-06
2.368e-06
2.36636e-06
2.36623e-06
2.36777e-06
2.3693e-06
2.37081e-06
2.3721e-06
2.3731e-06
2.37382e-06
2.37426e-06
2.37443e-06
2.37432e-06
2.37393e-06
2.37327e-06
2.37234e-06
2.37111e-06
2.36958e-06
2.36789e-06
2.36625e-06
2.36582e-06
2.36736e-06
2.3689e-06
2.37041e-06
2.37171e-06
2.37271e-06
2.37343e-06
2.37387e-06
2.37404e-06
2.37393e-06
2.37355e-06
2.37289e-06
2.37195e-06
2.37071e-06
2.36918e-06
2.36748e-06
2.36584e-06
2.36513e-06
2.36665e-06
2.36821e-06
2.36973e-06
2.37103e-06
2.37205e-06
2.37277e-06
2.37321e-06
2.37338e-06
2.37327e-06
2.37289e-06
2.37222e-06
2.37127e-06
2.37003e-06
2.36849e-06
2.36677e-06
2.36515e-06
2.36414e-06
2.36565e-06
2.36723e-06
2.36876e-06
2.37008e-06
2.3711e-06
2.37183e-06
2.37228e-06
2.37245e-06
2.37234e-06
2.37195e-06
2.37127e-06
2.37032e-06
2.36906e-06
2.36751e-06
2.36577e-06
2.36416e-06
2.36285e-06
2.36435e-06
2.36594e-06
2.36749e-06
2.36882e-06
2.36985e-06
2.37059e-06
2.37105e-06
2.37122e-06
2.37111e-06
2.37071e-06
2.37003e-06
2.36907e-06
2.3678e-06
2.36623e-06
2.36447e-06
2.36287e-06
2.36117e-06
2.36271e-06
2.36433e-06
2.36592e-06
2.36727e-06
2.36832e-06
2.36906e-06
2.36952e-06
2.3697e-06
2.36958e-06
2.36918e-06
2.36849e-06
2.36751e-06
2.36623e-06
2.36462e-06
2.36283e-06
2.36119e-06
2.35944e-06
2.36095e-06
2.36255e-06
2.36416e-06
2.36553e-06
2.36659e-06
2.36736e-06
2.36783e-06
2.36801e-06
2.36789e-06
2.36748e-06
2.36678e-06
2.36578e-06
2.36447e-06
2.36283e-06
2.36109e-06
2.35946e-06
2.35753e-06
2.35932e-06
2.36091e-06
2.36256e-06
2.36391e-06
2.36497e-06
2.36573e-06
2.36619e-06
2.36637e-06
2.36625e-06
2.36584e-06
2.36515e-06
2.36416e-06
2.36287e-06
2.36119e-06
2.35946e-06
2.35755e-06
2.31892e-06
2.32052e-06
2.32196e-06
2.32347e-06
2.3247e-06
2.32567e-06
2.32636e-06
2.32679e-06
2.32695e-06
2.32684e-06
2.32647e-06
2.32583e-06
2.32492e-06
2.32375e-06
2.32221e-06
2.32065e-06
2.31894e-06
2.32052e-06
2.3219e-06
2.32335e-06
2.32483e-06
2.32608e-06
2.32707e-06
2.32777e-06
2.32821e-06
2.32837e-06
2.32827e-06
2.32789e-06
2.32724e-06
2.32631e-06
2.32512e-06
2.32361e-06
2.32202e-06
2.32054e-06
2.32196e-06
2.32335e-06
2.32483e-06
2.32629e-06
2.32754e-06
2.32851e-06
2.32921e-06
2.32963e-06
2.3298e-06
2.32969e-06
2.32932e-06
2.32868e-06
2.32776e-06
2.32658e-06
2.3251e-06
2.32346e-06
2.32198e-06
2.32347e-06
2.32483e-06
2.32629e-06
2.32772e-06
2.32896e-06
2.32992e-06
2.33061e-06
2.33104e-06
2.3312e-06
2.33109e-06
2.33072e-06
2.33009e-06
2.32918e-06
2.32801e-06
2.32655e-06
2.32494e-06
2.32348e-06
2.3247e-06
2.32608e-06
2.32754e-06
2.32896e-06
2.33019e-06
2.33114e-06
2.33183e-06
2.33225e-06
2.33241e-06
2.33231e-06
2.33194e-06
2.33131e-06
2.33041e-06
2.32924e-06
2.3278e-06
2.32619e-06
2.32471e-06
2.32567e-06
2.32707e-06
2.32851e-06
2.32992e-06
2.33114e-06
2.33209e-06
2.33277e-06
2.33319e-06
2.33335e-06
2.33325e-06
2.33288e-06
2.33225e-06
2.33136e-06
2.3302e-06
2.32877e-06
2.32718e-06
2.32569e-06
2.32636e-06
2.32777e-06
2.32921e-06
2.33061e-06
2.33183e-06
2.33277e-06
2.33345e-06
2.33387e-06
2.33403e-06
2.33392e-06
2.33356e-06
2.33293e-06
2.33205e-06
2.33089e-06
2.32947e-06
2.32788e-06
2.32638e-06
2.32679e-06
2.32821e-06
2.32963e-06
2.33104e-06
2.33225e-06
2.33319e-06
2.33387e-06
2.33428e-06
2.33444e-06
2.33434e-06
2.33397e-06
2.33335e-06
2.33247e-06
2.33132e-06
2.32989e-06
2.32832e-06
2.3268e-06
2.32695e-06
2.32837e-06
2.3298e-06
2.3312e-06
2.33241e-06
2.33335e-06
2.33403e-06
2.33444e-06
2.3346e-06
2.3345e-06
2.33413e-06
2.33351e-06
2.33263e-06
2.33148e-06