/*--------------------------------*- C++ -*----------------------------------*\
  =========                 |
  \\      /  F ield         | OpenFOAM: The Open Source CFD Toolbox
   \\    /   O peration     | Website:  https://openfoam.org
    \\  /    A nd           | Version:  6
     \\/     M anipulation  |
\*---------------------------------------------------------------------------*/
FoamFile
{
    version     2.0;
    format      ascii;
    class       volVectorField;
    location    "0";
    object      U;
}
// * * * * * * * * * * * * * * * * * * * * * * * * * * * * * * * * * * * * * //

dimensions      [0 1 -1 0 0 0 0];

internalField   nonuniform List<vector> 
918
(
(0.985647 0.00381023 0)
(-0.00398975 2.96739 0)
(-0.00818372 1.59527 0)
(0.980697 -0.00203439 0)
(-0.00940903 1.56453 1.53577e-21)
(0.00135457 2.95102 -1.38002e-18)
(0.849711 1.17879 4.99157e-19)
(0.438773 0.178112 -5.49133e-21)
(0.999913 -0.000299359 0)
(0.0603121 0.726535 0)
(-0.0234065 1.16283 0)
(0.775013 -0.00866566 0)
(0.0089461 2.93491 0)
(0.00366222 2.79774 0)
(-0.00120513 3.20114 8.0235e-19)
(-0.00596466 1.46416 -6.36876e-21)
(0.553464 0.0725962 3.45089e-19)
(0.214967 1.12975 4.44904e-19)
(0.965443 0.00387459 0)
(-0.0025456 1.32777 0)
(0.198861 0.248803 -2.98273e-19)
(1.00192 -0.00490635 0)
(1.00172 -0.00830558 0)
(0.977605 -0.0047446 0)
(0.691502 -0.0271869 0)
(0.0308614 2.63741 0)
(-0.0106651 2.9158 4.59503e-19)
(-0.0259692 1.61604 0)
(-0.0278549 1.7441 0)
(-0.0291072 1.61099 0)
(-0.00886104 1.83564 0)
(-0.000750479 1.58798 -1.20172e-21)
(-0.0105311 1.47365 0)
(-0.0197783 2.9896 -4.83418e-23)
(-0.0137407 3.00795 1.08614e-18)
(0.00163159 2.99971 0)
(0.876108 -0.00680936 0)
(0.375934 0.922229 -3.11231e-20)
(0.855417 1.19094 -7.32916e-19)
(0.992204 1.04181 6.72386e-19)
(0.717279 1.27324 -1.1555e-19)
(0.725185 1.25194 6.55659e-19)
(0.478017 0.268573 5.35575e-21)
(0.468835 0.15768 0)
(1.17821 0.532639 0)
(0.442887 0.292909 2.50524e-20)
(0.396807 0.200676 -2.60054e-20)
(0.923046 -0.00616296 0)
(1.00031 5.16356e-05 0)
(0.999897 0.000332761 0)
(1.00328 -0.00756449 0)
(1.00089 -0.00103457 0)
(1.00017 3.88142e-06 0)
(-0.00189758 1.75633 -2.105e-19)
(0.0687141 0.862582 0)
(0.112259 0.820579 0)
(0.00801926 0.809989 0)
(0.0108818 0.70471 0)
(0.0334755 1.54515 0)
(-0.0398584 1.26533 0)
(-0.0458354 1.07192 0)
(-0.0228003 1.36276 0)
(-0.0147053 1.22213 0)
(0.854488 -0.00174928 0)
(0.870373 0.0127849 0)
(0.788109 -0.00481543 0)
(0.863158 0.0173073 0)
(0.755915 -0.0106523 0)
(0.0136682 3.00362 4.97521e-19)
(0.011465 3.00444 0)
(0.0073525 3.00384 0)
(0.0106121 2.99819 5.55359e-24)
(0.00614251 2.96202 -7.48627e-19)
(0.0117352 2.98461 0)
(0.0085095 2.90912 0)
(0.0212564 2.93302 1.00779e-24)
(0.00460995 2.82847 0)
(0.0271461 2.91985 0)
(0.000128462 2.7466 0)
(0.312783 3.60727 0)
(-0.127967 3.68972 0)
(0.151183 3.29301 -7.4352e-19)
(0.00613028 3.02306 0)
(-0.0163662 1.81392 0)
(0.00332726 1.61657 6.28159e-21)
(-0.00393066 1.47056 -7.96191e-21)
(0.605376 0.137721 -1.18512e-19)
(0.557727 0.0318568 -1.13272e-19)
(0.593991 0.177603 -3.57174e-19)
(0.538473 0.10553 -2.39327e-19)
(0.253512 0.919119 0)
(0.310262 1.28069 -4.36865e-19)
(0.374412 1.2692 7.21984e-19)
(0.989043 0.00631743 0)
(0.945294 0.00471565 0)
(0.999816 0.000751242 0)
(1.00381 0.00759283 0)
(1.0035 0.00860398 -6.01922e-19)
(0.992851 0.00737407 4.60765e-19)
(-0.0173792 1.49047 0)
(-0.00483649 1.31297 0)
(-0.032531 1.61871 0)
(-0.0248301 1.52771 0)
(-0.00425558 1.36985 0)
(0.216698 0.269203 9.16588e-20)
(0.269895 0.239961 0)
(0.994784 -0.00615155 0)
(0.956491 -0.0055623 0)
(0.833591 0.0256235 0)
(0.798781 0.0355797 0)
(0.730087 -0.0195692 0)
(1.00993 0.000621192 0)
(0.750249 0.0464916 0)
(0.611087 -0.0191043 4.43081e-19)
(-0.0346424 2.86708 2.62504e-19)
(0.034961 2.91398 0)
(0.0449906 2.89035 0)
(0.0051828 2.70087 0)
(-0.00777687 2.98786 4.27221e-19)
(-0.0126239 2.89895 0)
(-0.00979338 2.99277 -1.34261e-18)
(-0.00912622 2.93253 4.62452e-19)
(-0.0227124 1.81669 0)
(-0.0176028 1.81269 0)
(0.00109534 1.61614 -7.83833e-23)
(0.00133794 1.58869 0)
(-0.010027 1.47368 0)
(0.937314 -0.00315371 0)
(0.860263 -0.00792267 0)
(0.870873 0.00807432 0)
(0.950192 -0.00409252 0)
(0.888056 -0.00557011 0)
(0.50511 1.12056 3.09445e-20)
(0.55169 1.19162 0)
(0.334981 0.852184 1.96615e-21)
(0.27533 0.718556 0)
(0.952398 1.07472 -1.96297e-19)
(1.06852 0.8675 3.97737e-19)
(0.477046 1.36057 0)
(0.568671 1.34543 0)
(0.591311 1.25756 0)
(0.0898064 0.13467 -7.3457e-20)
(0.505277 0.248149 0)
(0.486627 0.153821 6.82314e-20)
(1.03097 0.921875 0)
(1.09694 0.759799 0)
(1.12709 0.694815 -3.47004e-19)
(1.15772 0.598276 0)
(1.21384 0.387095 3.24064e-20)
(0.957515 -0.005434 0)
(0.963472 -0.0073393 0)
(0.902364 -0.00626517 0)
(0.985137 -0.00674086 0)
(0.976405 -0.00691212 0)
(0.93929 -0.00507034 0)
(0.999855 0.00207963 0)
(1.00084 0.00123273 0)
(0.999936 0.000738437 0)
(-0.0392654 2.01443 1.18429e-19)
(0.137345 1.71254 0)
(-0.0590174 1.99031 1.47768e-19)
(0.0175485 1.77986 -7.56358e-20)
(0.119551 1.12818 -3.69223e-19)
(0.0752042 1.00408 0)
(0.154018 0.953444 0)
(-0.0399764 0.854752 0)
(-0.0459332 0.791583 0)
(0.0602625 1.71403 1.60007e-22)
(-0.00328814 1.53138 0)
(0.038562 1.7192 1.68774e-20)
(0.00116393 1.5456 -1.84433e-20)
(-0.0569736 0.982478 0)
(-0.0570062 1.13441 0)
(-0.0442749 0.934719 0)
(-0.0171676 1.42948 0)
(-0.00983924 1.25844 0)
(0.942263 0.0164298 0)
(0.879388 0.00153564 0)
(0.924591 0.00898923 0)
(0.848096 -0.00428617 0)
(0.818442 0.00395805 0)
(0.906803 0.0135322 0)
(0.888622 0.0102708 0)
(0.796111 -0.000492999 0)
(0.00834577 3.06479 -4.2356e-21)
(0.014467 3.05728 0)
(0.0121722 2.97254 0)
(0.00731222 2.88097 0)
(0.91564 4.0163 0)
(1.2203 3.39389 7.60838e-19)
(0.0807943 3.10554 0)
(-0.014009 2.92862 0)
(-0.0209485 1.80305 0)
(-0.0212037 1.80869 0)
(-0.0188648 1.80446 0)
(-0.0108809 1.82386 2.50838e-21)
(-0.0153808 1.82255 0)
(-0.0128018 1.82048 0)
(-0.00699948 1.49692 -3.60914e-21)
(-0.000693638 1.66523 4.62546e-21)
(0.00197856 1.63423 8.1576e-21)
(-0.00771979 1.47432 0)
(0.621998 0.107973 1.74316e-19)
(0.554948 0.00725124 -1.69802e-19)
(0.241751 1.52001 0)
(0.299142 0.650124 -1.41606e-19)
(0.201887 1.62139 -4.98204e-19)
(0.247416 1.14721 4.97712e-19)
(0.906364 0.00742925 0)
(0.968729 0.010124 0)
(0.976323 0.0088185 0)
(0.926453 0.00687412 0)
(-0.015397 1.46988 0)
(-0.014964 1.47998 0)
(-0.005008 1.28196 0)
(0.388125 0.299625 2.30693e-19)
(0.340941 0.275701 -2.80904e-19)
(0.351189 0.223433 0)
(1.13158 0.0870452 -5.46351e-21)
(1.11858 0.0417282 0)
(1.04194 0.0415339 0)
(0.946012 0.00935604 0)
(0.640995 0.079908 0)
(0.684788 0.0591914 -7.19886e-19)
(0.563321 -0.0111915 2.80174e-19)
(0.0110883 2.98069 3.19917e-19)
(-0.0293767 2.86653 3.10252e-20)
(0.00680623 3.05016 -9.13613e-21)
(0.0154332 3.04132 3.48894e-19)
(-0.00962761 3.00011 1.54137e-20)
(-0.00885896 2.95413 -6.29887e-23)
(-0.0149869 3.01283 -2.95235e-19)
(0.0125899 3.02387 2.08314e-19)
(0.00619698 3.03173 -3.33705e-19)
(0.927948 0.00323872 0)
(0.934476 -0.000620654 0)
(0.850116 -0.00633618 0)
(0.958335 0.0110692 0)
(0.944785 0.0119806 0)
(0.887108 0.00952758 0)
(0.923698 0.0137467 0)
(0.931735 0.0117234 0)
(0.848686 0.00790398 0)
(0.691634 1.42646 2.20471e-19)
(0.711673 1.53958 0)
(0.187519 0.383468 1.50251e-20)
(0.159628 0.556134 1.1923e-19)
(0.240435 0.672009 -6.84927e-20)
(0.203431 0.561751 1.2315e-19)
(0.283579 0.690684 4.3076e-19)
(0.114503 0.166758 1.34683e-19)
(0.559611 0.218009 2.58676e-19)
(0.53275 0.235573 6.29163e-20)
(0.506254 0.134054 1.29169e-19)
(1.20481 0.446119 2.26648e-19)
(1.229 0.244867 2.37721e-19)
(-0.00479534 1.94643 2.29251e-20)
(-0.0082923 1.70335 0)
(0.990743 0.0322665 0)
(0.955656 0.021733 0)
(0.903939 0.000980667 0)
(0.0112546 3.07319 0)
(0.0171086 2.94609 5.86647e-19)
(0.0140185 2.95918 0)
(0.00582467 2.85417 -5.83665e-19)
(0.00784559 3.08817 1.38107e-19)
(0.0105583 3.08045 0)
(0.731258 1.835 -1.72515e-19)
(1.26482 2.62756 5.71498e-19)
(0.711865 2.00649 -1.14585e-18)
(0.023202 2.98399 -2.43e-19)
(0.0418556 3.01071 0)
(-0.0317697 2.88755 0)
(0.0229702 1.6914 5.90623e-21)
(0.00390376 1.69817 -2.35816e-21)
(0.00468121 1.52432 -2.99087e-21)
(0.261512 1.3034 4.57879e-19)
(0.259488 0.436313 -3.13518e-19)
(0.0223089 1.94429 2.93447e-19)
(0.122439 1.81304 -3.79307e-19)
(0.21572 1.51793 6.36709e-20)
(0.00365389 3.11819 -8.12312e-19)
(0.0163429 3.11772 9.04946e-19)
(-0.00432132 2.98265 3.78417e-19)
(-0.000955591 2.978 -3.42832e-19)
(-0.0150319 2.88216 -3.8553e-19)
(0.0118884 3.09813 -1.01528e-18)
(0.0058737 3.10227 1.0169e-18)
(0.191481 0.58215 0)
(0.140872 0.549068 -2.38146e-19)
(0.0873639 0.183528 1.05714e-19)
(0.309029 0.795752 4.11573e-19)
(0.172436 0.208198 -6.2696e-19)
(1.21739 0.169888 -5.243e-20)
(1.227 0.30195 0)
(1.21312 0.114376 9.62121e-20)
(0.0287268 1.75923 9.17686e-22)
(-0.0236401 1.8382 0)
(0.000327035 1.61231 0)
(0.304149 1.20638 -1.60726e-19)
(0.324854 1.02101 -3.37137e-19)
(0.21479 0.314877 5.80192e-19)
(1.00563 -0.010414 0)
(1.00686 -0.00721218 1.10753e-19)
(-0.0237837 1.80497 0)
(-0.0330654 1.81359 0)
(1.00143 0.00326842 1.17651e-21)
(1.00336 0.0088922 2.25553e-19)
(-0.0104369 1.8277 -3.37268e-21)
(-0.00767758 1.8264 0)
(0.0480172 3.17899 1.20821e-19)
(0.383711 3.55324 0)
(1.08448 0.684284 5.01217e-20)
(1.01228 0.0121631 -1.44759e-21)
(1.02034 -0.00967842 0)
(1.00157 3.46171e-05 1.55744e-24)
(0.126653 1.14021 0)
(0.175729 2.66954 0)
(-0.19134 1.48546 0)
(-0.167453 2.2476 -7.04062e-21)
(-0.0828132 1.98895 3.69649e-20)
(1.00684 0.0163813 2.10291e-21)
(1.04579 0.0108662 0)
(1.07469 0.0278952 0)
(-0.0226138 1.81264 0)
(-0.0135717 1.85107 0)
(-0.0268156 1.7921 0)
(0.287024 1.45246 -2.97287e-19)
(1.01013 -0.0088543 0)
(1.00913 -0.0148469 0)
(1.00224 0.000354982 1.39386e-19)
(1.00536 -0.00514984 -1.66972e-19)
(1.00121 -0.000998668 0)
(-0.0260793 1.80722 0)
(-0.0247829 1.8021 0)
(-0.0245071 1.80523 0)
(-0.0275604 1.79223 0)
(-0.0291329 1.792 0)
(-0.0291685 1.79394 0)
(1.02765 -0.012419 0)
(1.01824 0.0111675 -5.99773e-22)
(0.762326 1.30563 3.69077e-19)
(1.00303 0.000279158 -1.40032e-19)
(1.00321 0.00494693 1.69118e-19)
(1.00126 0.00204858 0)
(1.01233 0.0100439 1.35739e-19)
(1.0072 0.00846556 -1.70472e-19)
(1.00858 0.0132892 0)
(-0.0119462 1.85001 0)
(-0.00778188 1.83742 5.67258e-21)
(-0.00575358 1.83704 -3.826e-21)
(1.19304 0.2638 -1.06578e-19)
(1.12727 0.0945224 0)
(0.0583594 3.08545 -3.91479e-19)
(0.0525739 2.86522 -2.9847e-20)
(0.121053 3.20417 5.04595e-19)
(0.129707 3.22105 -4.2032e-20)
(0.150451 3.26341 0)
(0.0254695 3.13732 9.55577e-20)
(0.0720889 3.16164 3.84803e-19)
(0.0698095 3.18369 -1.82862e-19)
(0.0311823 3.12533 0)
(0.659381 0.335396 0)
(0.629836 0.37474 0)
(1.0773 0.708575 -1.8508e-19)
(1.03778 0.856264 2.81411e-19)
(1.13473 0.603123 0)
(1.16108 0.536912 0)
(1.01505 0.0127433 -2.51289e-19)
(1.01384 0.0134408 3.13857e-19)
(1.02449 -0.00878372 0)
(1.02291 -0.0109737 0)
(1.00715 0.00284108 0)
(1.00941 0.00296948 0)
(1.0041 0.00179798 0)
(1.00832 0.00640646 0)
(1.00784 0.00540057 0)
(1.00382 0.00479152 0)
(0.138396 1.14776 0)
(0.0447558 0.943072 0)
(0.233098 1.21361 0)
(0.151531 1.24916 0)
(0.169793 2.65061 0)
(0.226263 2.6663 -1.37134e-19)
(0.0810822 2.74804 0)
(0.0762274 2.73509 -1.61878e-20)
(-0.184741 2.64771 9.9328e-20)
(-0.150063 1.52025 0)
(-0.12381 1.56817 0)
(-0.219794 1.4236 0)
(-0.198647 1.30544 0)
(-0.391104 2.05143 4.62244e-20)
(-0.121342 2.06446 2.11093e-20)
(-0.15164 2.22936 1.79195e-20)
(-0.0882161 2.13228 0)
(-0.0771208 1.98596 -7.25607e-20)
(-0.0568123 1.95645 -1.85502e-20)
(-0.396267 2.02579 -4.87195e-20)
(-0.207861 2.01344 -2.73071e-20)
(-0.236543 2.13291 -2.29341e-20)
(1.01705 0.0247717 2.46053e-19)
(1.01564 0.0117818 -3.0097e-19)
(1.00772 0.0261677 -2.57936e-19)
(0.991929 0.0158359 3.30556e-19)
(1.04558 0.0123664 0)
(1.03114 -0.00654911 0)
(1.06936 0.0395709 0)
(1.05372 0.0217493 0)
(1.05573 0.0146446 0)
(1.10628 0.0760979 0)
(1.08299 0.050242 0)
(1.09574 0.0423209 0)
(-0.0140833 1.83043 -7.95416e-22)
(-0.0223104 1.82364 0)
(-0.0179063 1.82361 0)
(-0.0245514 1.86813 7.74034e-21)
(-0.024379 1.87312 -2.43368e-22)
(-0.0336225 1.81576 6.2107e-21)
(-0.0306425 1.81102 -6.26097e-21)
(-0.0320861 1.80049 0)
(-0.0304407 1.80388 0)
(-0.0305955 1.80355 0)
(-0.0322894 1.78399 0)
(-0.022292 1.76194 0)
(0.363305 1.48512 5.72205e-19)
(0.375663 1.48544 2.29877e-19)
(0.587671 2.42873 -1.06905e-19)
(0.387996 2.51871 2.99251e-19)
(0.340925 2.0848 -2.26993e-20)
(1.02009 -0.00823285 0)
(1.01358 -0.0094233 0)
(1.01499 -0.0147326 0)
(1.00749 -0.000883964 0)
(1.00417 -0.00116297 0)
(1.0064 -0.0038341 0)
(1.00977 -0.00372251 0)
(1.01252 -0.00513911 0)
(1.02076 0.0139684 2.39767e-19)
(1.01469 0.0111414 -3.04401e-19)
(1.0215 0.0168953 -2.4094e-19)
(1.01586 0.0165223 3.01356e-19)
(0.735287 1.34181 0)
(0.654041 1.39082 4.20431e-19)
(0.837513 1.21831 2.49206e-19)
(0.853288 1.20391 -3.30645e-19)
(1.1581 2.6281 -3.90991e-19)
(0.836165 0.12314 1.75817e-19)
(1.13362 0.103272 0)
(1.16942 0.183773 8.70317e-20)
(1.15342 0.160795 3.98217e-21)
(0.981215 0.123837 0)
(0.10779 3.02515 -5.27825e-20)
(0.106789 2.90123 -4.5701e-19)
(0.0490182 2.34485 3.0749e-19)
(0.175525 0.0520615 -1.36372e-19)
(0.352041 3.45881 -3.2334e-19)
(0.200489 3.348 0)
(0.232436 3.40679 4.20985e-19)
(0.242969 3.08524 -1.44864e-19)
(0.280726 3.21041 0)
(0.00881452 3.11937 2.07572e-20)
(0.0187844 3.12869 -2.5793e-19)
(0.0180864 3.12447 3.78916e-19)
(0.0383608 3.13777 0)
(0.0364273 3.14942 0)
(1.25568 2.6052 0)
(0.490777 0.840664 -1.39532e-19)
(0.965471 1.04207 -1.43665e-19)
(0.94764 1.0648 0)
(0.797617 0.946324 4.28358e-20)
(1.02928 0.893373 2.0135e-20)
(0.445039 0.445647 -3.37137e-19)
(0.70492 0.328613 -1.55159e-20)
(0.691955 0.28245 1.35116e-19)
(0.638286 0.399935 1.07622e-20)
(0.577389 0.400771 -4.45577e-19)
(0.677007 0.354443 0)
(0.709656 0.419579 2.25195e-19)
(0.706013 0.418526 0)
(0.663451 0.373001 0)
(0.63798 0.340447 0)
(0.733044 0.605986 6.69605e-20)
(1.19541 0.283218 8.38252e-20)
(1.1698 0.418914 0)
(1.18783 0.389009 0)
(0.767508 0.207282 2.05173e-19)
(0.804742 0.513749 -1.09987e-19)
(0.740072 0.481681 1.78434e-19)
(0.909526 0.41907 -1.53294e-19)
(1.01826 0.0125176 1.6372e-19)
(1.01628 0.0132994 -1.67629e-19)
(1.01452 0.0133767 0)
(1.02902 -0.0118247 0)
(1.0275 -0.0101529 -1.48751e-19)
(1.02455 -0.0137918 1.47284e-19)
(1.0275 0.0052934 0)
(1.026 0.0135319 0)
(1.01174 0.00425112 0)
(1.01381 0.00921351 0)
(1.01548 0.00393798 0)
(1.01386 0.00209402 0)
(-0.0557805 1.00562 0)
(-0.131448 1.00104 0)
(0.341242 1.27578 3.48338e-19)
(0.286003 1.46905 1.81417e-19)
(0.209541 1.39961 4.06053e-19)
(0.214634 1.40682 -6.42789e-19)
(0.315522 1.37956 0)
(0.364752 1.65071 2.13289e-19)
(0.376254 1.70336 0)
(0.339921 2.03034 3.29068e-20)
(0.339167 2.38589 1.27757e-19)
(0.37926 1.47057 -1.91572e-19)
(0.301651 1.43706 1.405e-19)
(0.323253 1.3701 -1.13447e-19)
(0.311198 1.37109 2.24872e-19)
(0.285788 1.61694 0)
(0.306336 1.6258 -1.44818e-19)
(-0.262499 2.5324 1.53469e-19)
(-0.169458 2.69984 0)
(-0.008374 2.60943 -2.59118e-19)
(-0.10511 2.64615 0)
(-0.0479184 2.77576 1.684e-20)
(-0.125258 2.72295 0)
(-0.358972 1.66459 9.18711e-20)
(-0.463468 1.76483 0)
(-0.35624 1.4943 0)
(-0.322181 1.51788 -1.035e-19)
(-0.229087 2.40698 -5.84509e-20)
(-0.181654 2.6098 -1.2641e-19)
(-0.17051 2.50106 -7.16637e-22)
(-0.223307 1.89894 7.32577e-21)
(-0.29719 1.88666 -1.23069e-20)
(-0.100137 1.62042 0)
(-0.0666707 1.65067 0)
(-0.486227 1.86721 -2.94462e-19)
(-0.397364 1.51372 -2.73513e-19)
(-0.443678 1.7402 3.45449e-19)
(-0.32496 1.81645 0)
(-0.0431162 1.84739 -2.50865e-20)
(-0.0421773 1.86775 9.89262e-21)
(-0.0548334 1.87539 -3.48039e-21)
(-0.179902 1.85706 -8.86395e-21)
(-0.087789 1.91629 -6.28942e-21)
(-0.102969 1.94279 4.21946e-20)
(1.02048 0.0192539 -1.61572e-19)
(1.022 0.0193926 1.59853e-19)
(1.01579 0.0177831 0)
(1.0016 0.045035 2.32954e-19)
(0.992794 0.0294653 -2.78616e-19)
(0.969438 0.029494 3.24259e-19)
(1.00031 0.0818709 -3.02865e-20)
(1.03169 -0.0121866 0)
(1.03373 -0.00407655 1.30337e-19)
(1.02445 -0.0179277 -1.31243e-19)
(1.05348 0.0416819 -6.85756e-21)
(1.05211 0.0346004 6.22203e-20)
(1.0527 0.0554741 0)
(1.04152 0.047777 -2.37817e-20)
(1.03311 0.0317303 0)
(1.02862 0.0223234 0)
(1.03254 0.00857827 0)
(1.02925 0.0121521 0)
(1.04174 0.029906 4.94283e-20)
(1.04435 0.0215783 -1.13463e-19)
(1.04448 0.0338262 -4.90522e-20)
(1.04276 0.0335117 -5.78716e-20)
(1.05277 0.0588978 9.78132e-20)
(1.07463 0.0542817 0)
(1.06628 0.0947998 0)
(-0.0360127 1.8467 -8.03533e-21)
(-0.0232582 1.82632 -8.57261e-22)
(-0.0288092 1.83091 0)
(-0.0196931 1.84408 8.08824e-21)
(-0.0164063 1.83367 1.58143e-21)
(-0.0154347 1.8392 -1.63409e-21)
(-0.0516554 1.94301 1.44679e-20)
(-0.0622065 1.89157 -1.30982e-21)
(-0.0738064 1.90312 6.69145e-21)
(-0.0407957 1.90517 -7.76436e-21)
(-0.0410698 1.91277 9.61104e-21)
(-0.0407948 1.80722 3.21606e-22)
(-0.044232 1.81875 1.02049e-20)
(0.401786 1.41948 -2.82071e-19)
(0.345884 1.39667 -2.85046e-19)
(0.629113 1.42722 -4.06182e-19)
(0.512101 1.48741 -2.21318e-19)
(0.530009 1.47187 0)
(0.592844 2.39963 8.50129e-20)
(0.65863 2.38634 1.50844e-19)
(0.420879 2.48335 5.64571e-20)
(0.40908 2.54978 -8.59651e-20)
(0.514562 2.51774 1.62257e-19)
(0.539985 2.44171 0)
(0.494714 2.47967 -2.31641e-19)
(0.297056 2.55225 4.10906e-19)
(0.362192 2.52423 -4.4985e-20)
(0.307246 2.6143 -6.42315e-19)
(0.926753 2.3907 1.29795e-19)
(0.825741 2.37886 0)
(1.01025 0.000896394 5.42472e-21)
(1.01547 -0.00524133 -4.51875e-21)
(1.01569 -0.00445913 -7.9353e-20)
(1.01497 -0.000949218 8.16015e-20)
(1.01249 0.00102431 0)
(0.615656 1.25931 0)
(0.638633 1.16371 0)
(0.742247 1.09078 0)
(0.620838 1.13078 0)
(1.18779 2.6465 3.33343e-20)
(1.07697 2.38391 0)
(0.837807 2.23161 -1.38843e-21)
(0.828081 2.49826 0)
(0.919918 2.57749 2.99789e-20)
(0.9526 2.52498 -1.98016e-20)
(0.840918 0.141432 0)
(0.811168 0.157507 5.10827e-20)
(0.928503 0.130608 2.55323e-19)
(0.864565 0.106509 -1.02965e-19)
(0.848357 0.0758876 -3.11948e-19)
(1.03019 0.209971 -1.16741e-19)
(0.943466 0.267948 -6.66107e-21)
(0.898081 0.302088 2.20033e-19)
(0.975316 0.206317 1.56098e-19)
(0.925215 0.169839 -3.15616e-19)
(0.893717 0.178433 4.25212e-20)
(0.92348 0.279766 -7.40301e-20)
(0.897846 0.191136 0)
(0.970904 0.162471 1.47938e-19)
(1.00766 0.17398 0)
(1.00462 0.184997 0)
(1.08833 0.112902 3.63449e-20)
(1.01607 0.156062 -6.96601e-21)
(1.02186 0.217077 -2.4885e-20)
(1.07237 0.191299 0)
(1.02023 0.0306843 1.21805e-19)
(1.03469 0.0506063 1.41535e-19)
(1.03069 0.0345904 -1.2024e-19)
(1.02823 0.0515901 -9.55372e-20)
(1.01208 0.0524965 -1.64181e-19)
(0.974862 0.125829 0)
(0.975824 0.0760253 0)
(0.968426 0.045726 -1.16889e-19)
(0.936757 0.0609524 5.05926e-20)
(1.01665 0.0829202 1.35168e-19)
(1.03538 0.113677 -1.20526e-19)
(1.0263 0.145404 1.15171e-19)
(1.00374 0.121842 0)
(1.04799 0.098095 0)
(1.03022 0.0870973 -5.2124e-20)
(1.0279 0.0801181 -1.06932e-19)
(0.574292 1.09688 -7.78797e-20)
(0.604915 1.44184 1.42205e-19)
(1.14134 2.75121 6.46083e-20)
(1.20121 3.12741 -5.47764e-20)
(1.2497 2.74972 4.14244e-19)
(1.29325 2.72613 -2.10359e-19)
(1.26195 2.35004 -1.92943e-20)
(1.18577 3.02995 1.64475e-19)
(1.20335 2.98513 -1.73749e-19)
(1.18912 3.28182 -1.91678e-19)
(1.40311 2.9964 2.30133e-19)
(1.41832 2.93102 0)
(0.516016 0.858565 -5.96688e-21)
(0.249554 1.27086 1.87799e-19)
(0.490189 0.539188 2.18364e-19)
(0.344152 0.316367 2.56721e-19)
(0.580914 0.428569 2.48453e-19)
(0.564988 0.504651 -3.93491e-19)
(0.564758 0.507272 3.28948e-19)
(0.539769 0.463338 -1.31552e-19)
(0.510753 0.405853 3.0031e-19)
(0.776066 0.259493 -1.14641e-19)
(0.737357 0.302006 0)
(0.72631 0.263731 7.32139e-21)
(0.72684 0.500326 1.17636e-19)
(0.690002 0.471006 -4.34944e-19)
(0.653922 0.490932 1.55734e-20)
(0.662225 0.453011 0)
(0.647871 0.737964 8.0342e-20)
(0.743819 0.766224 4.0044e-20)
(0.688053 0.823479 -5.1016e-20)
(0.821026 0.789163 -5.27521e-21)
(0.874243 0.83294 1.20713e-20)
(0.879157 0.84255 -1.24004e-20)
(0.800877 0.637445 -1.14298e-19)
(0.879826 0.689373 4.90903e-21)
(0.942418 0.698101 0)
(0.932206 0.673526 4.90244e-21)
(0.979458 0.314235 3.2593e-20)
(1.10213 0.291971 -2.46757e-20)
(1.01543 0.248457 4.67253e-20)
(0.951803 0.35299 -7.66797e-20)
(0.98571 0.440914 0)
(1.05556 0.401271 0)
(0.879375 0.374725 6.90575e-21)
(0.81432 0.300888 0)
(0.847251 0.277407 1.19269e-19)
(0.867451 0.308504 2.66121e-21)
(0.907946 0.428357 4.18292e-19)
(0.854082 0.488551 1.05053e-19)
(0.858872 0.441662 -1.47834e-19)
(0.802684 0.429051 1.57251e-19)
(0.797906 0.422445 1.08348e-19)
(0.774579 0.397052 -1.05993e-19)
(1.02606 -0.00489651 1.2642e-19)
(1.01915 -0.00203167 0)
(1.01764 -0.000843262 8.59121e-20)
(1.02251 -0.00190336 -1.92952e-19)
(1.02104 0.000903974 9.35592e-20)
(1.02094 0.0093901 -1.98958e-19)
(1.0224 0.00915398 0)
(1.02034 0.0114586 -4.14844e-20)
(1.01633 0.00730528 1.04138e-19)
(1.01651 0.0103079 -5.27692e-20)
(1.01754 0.00910198 3.85198e-20)
(-0.247567 1.25962 0)
(-0.35534 1.43289 0)
(-0.185208 1.11263 0)
(-0.178827 1.11265 0)
(0.054461 1.35012 -8.87931e-19)
(0.217011 1.18627 3.0283e-19)
(0.26935 1.69294 2.01521e-19)
(0.314449 1.27561 -1.5748e-19)
(-0.34827 1.5032 4.55946e-19)
(-0.334887 1.50761 -3.44656e-19)
(-0.111127 1.23143 6.20901e-20)
(-0.158986 1.23367 4.97667e-19)
(-0.226536 1.24085 5.80972e-20)
(-0.332846 1.36505 4.70947e-20)
(0.0951734 2.58917 2.77985e-19)
(0.135351 2.58717 0)
(0.226122 2.20501 -2.54567e-20)
(0.277465 1.82867 -1.07483e-19)
(0.306703 2.0968 1.99017e-20)
(0.239768 2.4296 0)
(0.257737 2.39855 -1.28688e-19)
(0.345058 2.39061 8.73688e-20)
(0.336752 2.0434 6.50552e-20)
(0.220932 2.25331 1.10321e-20)
(0.111767 2.38869 0)
(-0.432011 2.19079 3.14423e-19)
(-0.376176 2.30648 1.1817e-19)
(-0.440903 2.18837 0)
(-0.330082 2.46752 2.87415e-21)
(-0.349452 2.43621 -1.56666e-19)
(-0.244589 1.65292 -3.74404e-21)
(-0.16384 1.68074 6.03844e-20)
(-0.17043 1.72653 -1.99962e-20)
(-0.261885 1.71803 -1.73336e-20)
(-0.328164 1.68135 0)
(-0.143363 1.73099 0)
(-0.0431374 1.75255 6.61105e-21)
(-0.0787264 1.76335 -1.67003e-21)
(-0.103901 1.7462 0)
(-0.0610324 1.69863 4.15975e-21)
(-0.0313175 1.71768 -9.56129e-21)
(1.03132 0.00389958 0)
(1.03803 0.00460841 -1.22173e-20)
(1.04691 0.0189971 -8.88237e-20)
(1.04752 0.0200128 0)
(1.04497 0.0184787 0)
(1.04429 0.00449161 -4.46926e-21)
(1.03816 0.00338993 1.51321e-19)
(1.04047 0.0112953 1.81394e-19)
(1.03178 0.0169416 0)
(1.02934 0.0173031 0)
(1.04135 0.0206952 9.07888e-20)
(1.03175 0.0178224 0)
(1.02976 0.0170334 0)
(-0.0887041 1.84582 0)
(-0.0583743 1.81455 1.83947e-21)
(-0.0686635 1.83755 5.72716e-21)
(-0.0592414 1.7743 0)
(-0.0721795 1.80444 4.22272e-21)
(-0.0547001 1.79897 -3.78482e-21)
(-0.0513976 1.79047 0)
(0.39237 1.71821 0)
(0.305366 1.3251 4.66038e-19)
(0.249199 1.38283 0)
(0.424429 1.27876 -5.8685e-19)
(0.496507 1.43057 0)
(0.435942 1.40085 2.79426e-19)
(1.02559 2.71243 -2.43648e-21)
(0.948551 2.41895 -1.61363e-19)
(0.887029 2.16555 2.02608e-19)
(0.847065 2.3753 7.83161e-20)
(0.8469 2.5352 0)
(0.912771 2.52793 0)
(0.908593 2.38546 0)
(0.894459 2.35839 -2.66299e-19)
(0.685911 2.52248 1.64063e-20)
(0.802967 2.50709 -4.34492e-21)
(0.81451 2.48168 3.38543e-21)
(0.687597 2.37001 0)
(0.792258 2.37316 0)
(0.754895 2.38087 -1.50732e-19)
(0.772212 2.51476 0)
(0.569 1.06224 0)
(0.488078 0.903479 -1.26047e-20)
(0.491787 0.959128 1.52682e-22)
(0.483212 1.07939 0)
(0.471565 1.00721 2.3486e-20)
(0.727628 0.872906 1.22379e-20)
(0.753368 1.00253 0)
(0.72585 0.976254 -5.00642e-20)
(0.602398 1.01774 0)
(0.605909 0.937078 0)
(1.15691 2.77997 4.78198e-20)
(1.13216 2.84086 9.10888e-20)
(0.924349 2.37301 -2.10564e-19)
(0.895551 2.34846 3.03385e-20)
(1.12454 2.75631 0)
(1.07573 2.72653 -3.73233e-20)
(1.08679 2.50906 -3.98416e-20)
(0.98345 2.24537 -2.01926e-20)
(0.50817 1.36675 0)
(0.51019 1.07528 6.83826e-20)
(0.560466 1.15367 0)
(0.863209 0.199641 0)
(0.81954 0.162612 0)
(0.770915 0.156641 0)
(0.861035 0.208875 -1.87376e-19)
(0.805183 0.207616 1.18595e-19)
(0.940045 0.0562306 -1.05053e-19)
(0.945897 0.10341 0)
(0.921976 0.111776 4.80563e-20)
(0.885232 0.07064 1.97434e-19)
(0.883087 0.0519774 -1.20997e-19)
(1.11545 3.37874 -6.64069e-19)
(1.17855 3.30192 0)
(1.13653 3.45194 -1.39398e-18)
(0.670593 3.59766 1.19539e-18)
(1.0105 3.10199 2.94582e-19)
(0.496692 0.850001 1.158e-19)
(0.482188 0.821553 0)
(0.391587 0.562148 -5.04888e-20)
(0.426524 0.695523 2.27859e-19)
(0.510122 0.542557 -7.02054e-20)
(0.507694 0.560552 7.86538e-20)
(0.667643 0.548005 1.56317e-19)
(0.682317 0.559892 0)
(0.61569 0.637028 0)
(0.587519 0.575834 0)
(0.941735 0.592377 -3.91027e-20)
(0.878394 0.52162 -1.00258e-19)
(0.905883 0.564966 2.64245e-20)
(0.951468 0.486191 -7.06684e-20)
(1.00324 0.468786 0)
(1.02159 0.581561 3.57565e-21)
(0.82481 0.38768 -2.40563e-19)
(0.822284 0.382945 -2.8149e-19)
(0.784657 0.376123 1.88498e-19)
(0.778831 0.347647 -2.14464e-19)
(0.816072 0.317296 -1.59449e-19)
(0.782618 0.315603 1.96049e-19)
(1.02664 0.000372041 -9.79341e-20)
(1.02798 -0.00190124 2.00899e-19)
(1.02689 -0.00553334 1.19697e-19)
(1.02836 -0.00725961 -1.46342e-19)
(1.03269 -0.000927996 0)
(1.03252 -0.000990825 -2.38621e-19)
(-0.200197 2.00825 -9.66598e-20)
(-0.214229 1.81901 0)
(0.162275 1.82287 -7.18866e-19)
(0.246851 1.85939 6.28601e-19)
(0.253832 1.69925 -3.78357e-19)
(0.0592308 1.69733 0)
(-0.15692 1.84841 0)
(-0.139066 1.77122 -1.05769e-21)
(-0.100289 1.77654 9.5202e-22)
(-0.0888676 1.80038 3.52803e-21)
(-0.104327 1.8486 -7.04264e-21)
(-0.118452 1.84806 5.06768e-21)
(0.505178 1.37862 3.17107e-19)
(0.487375 1.39754 -3.37764e-19)
(0.430545 1.27352 3.01789e-19)
(0.411963 1.31075 -1.95154e-20)
(0.61047 1.29722 0)
(0.551308 1.36506 3.71905e-19)
(0.558314 1.36239 -3.59608e-19)
(0.445664 1.25078 -2.97119e-19)
(0.49652 1.20562 0)
(0.568113 1.18704 0)
(0.648437 2.47632 -2.45614e-20)
(0.661751 2.47663 3.54381e-19)
(0.714419 2.503 -2.42371e-19)
(0.616912 2.48622 -7.90628e-20)
(0.540747 2.57756 6.24969e-20)
(0.50508 2.53291 -1.82741e-19)
(0.963033 2.38397 -1.10529e-19)
(1.00808 2.41073 0)
(0.908712 2.1556 -1.41417e-19)
(1.0436 2.70655 0)
(1.04367 2.6944 0)
(0.616566 2.32686 2.42882e-19)
(1.10784 3.10996 3.12377e-19)
(0.981906 2.99667 -3.40293e-19)
(0.339466 0.938563 0)
(0.374761 0.846338 -8.28595e-20)
(0.54168 0.762643 -2.9829e-20)
(0.390143 2.16835 0)
(0.420905 2.77131 -2.08568e-19)
(0.434564 2.51817 0)
(0.644362 0.691103 -1.68306e-19)
(0.699858 0.663685 2.35724e-19)
(0.710704 0.627669 -2.3492e-19)
(0.642537 0.662694 -2.54703e-20)
(0.700838 0.601743 -1.08437e-19)
(0.97349 2.78759 -2.36024e-19)
(1.01353 2.80032 1.94239e-19)
(0.576067 2.25496 -1.13968e-19)
(0.613723 1.78286 4.68338e-20)
(0.698438 1.90323 4.08225e-20)
(0.977192 2.43923 -6.49809e-20)
(0.97257 2.40277 -8.13966e-20)
(0.659463 1.84973 -2.19001e-21)
(0.450166 1.34243 -4.15819e-20)
)
;

boundaryField
{
    wall-4
    {
        type            noSlip;
    }
    velocity-inlet-5
    {
        type            fixedValue;
        value           uniform (1 0 0);
    }
    velocity-inlet-6
    {
        type            fixedValue;
        value           uniform (0 3 0);
    }
    pressure-outlet-7
    {
        type            zeroGradient;
    }
    wall-8
    {
        type            noSlip;
    }
    frontAndBackPlanes
    {
        type            empty;
    }
}

