/*--------------------------------*- C++ -*----------------------------------*\
  =========                 |
  \\      /  F ield         | OpenFOAM: The Open Source CFD Toolbox
   \\    /   O peration     | Website:  https://openfoam.org
    \\  /    A nd           | Version:  6
     \\/     M anipulation  |
\*---------------------------------------------------------------------------*/
FoamFile
{
    version     2.0;
    format      ascii;
    class       volScalarField;
    location    "0";
    object      p;
}
// * * * * * * * * * * * * * * * * * * * * * * * * * * * * * * * * * * * * * //

dimensions      [0 2 -2 0 0 0 0];

internalField   nonuniform List<scalar> 
13046
(
0.116499
0.0866072
0.0922308
0.125063
0.0995997
0.0756631
0.114179
0.0784249
0.10063
0.0463783
-0.27216
0.0639535
0.122214
0.0403302
0.0843735
0.0640894
0.055565
-0.215236
0.11835
0.0926145
0.109628
0.0620159
0.059394
-0.225783
0.115514
0.105064
0.091521
0.114289
0.0482923
0.0845652
0.123151
0.0665702
0.0822768
0.118493
0.101495
0.0970908
0.114367
0.105275
0.101196
0.112123
0.076101
0.0885035
0.105584
0.117549
0.106823
0.113924
0.10466
0.101387
0.112279
0.0791052
0.0943579
0.0376185
0.104049
0.0761618
0.0503656
0.0725096
0.105583
-0.0640681
0.0993437
0.0522005
0.105199
-0.00307637
0.0874258
0.0677177
-0.141837
0.0812057
0.100318
-0.0457203
0.0468565
0.104541
-0.0303535
0.0473308
-0.0907935
0.0949535
0.0522008
0.119413
0.102898
0.101503
0.0573991
0.0875391
-0.112416
0.115033
0.0956497
0.0905189
0.0654491
-0.170068
0.0712229
0.0718917
0.0771858
-0.130602
0.0816712
0.0539732
-0.143269
0.106026
0.10134
-0.023502
-0.0429074
0.0719502
0.0748915
0.0799913
0.0709958
-0.116403
0.11968
0.106711
0.0950323
0.108447
0.0827423
0.0578792
0.107013
0.0674093
0.0884636
0.00828046
0.0625155
-0.382823
0.122051
0.0576671
0.0832072
0.100501
0.104015
-0.0572326
0.0656198
-0.0288254
0.0668377
0.0389639
-0.301038
0.0624962
0.117581
-0.00450511
0.0804033
0.113309
0.0752852
0.0815492
0.0833942
0.0572223
-0.110966
0.0950526
-0.0786703
0.0747079
0.122514
0.0582302
0.0771321
0.111288
0.0642906
0.0954908
0.10238
0.0531686
0.0963072
0.107657
0.0972722
0.0747431
0.107461
-0.0235065
0.0856375
0.111014
0.100067
0.0723068
0.0196991
0.0803831
0.0079704
0.0812873
0.0991872
0.097404
0.116107
0.0348845
0.0983682
0.0419015
0.0662795
-0.268149
0.0219644
0.062327
-0.355897
0.092639
-0.0991435
0.0722222
0.1156
0.0478693
0.0665171
0.114596
0.100574
0.0449948
0.0707002
-0.230107
0.0485585
0.113398
0.0629921
0.0607755
0.110109
0.0924586
0.0630601
0.113968
0.0667955
0.0956973
0.0278661
0.0901656
0.116608
0.01725
0.0785637
0.069666
0.0719938
-0.162929
0.0828236
0.0684725
-0.102074
0.0546912
-0.150785
0.0791477
0.0260847
0.0628738
0.100315
0.116386
0.0890898
0.0501615
-0.107447
-0.180839
0.0564263
0.0764799
0.113139
0.106834
0.0967557
0.115122
0.0610316
0.0801566
0.0847493
0.0616257
-0.0960686
0.115211
0.0342569
0.093975
0.065942
-0.322047
0.0225868
0.0994433
0.0663862
0.0171407
0.0615963
-0.124692
0.0808659
0.0895981
0.023507
0.100352
0.111875
0.00930293
0.0803723
-0.0535744
0.0667517
0.0872885
0.0776745
-0.00838739
0.0936206
0.0681071
-0.327229
0.0143261
0.113548
0.0679542
0.0706642
0.0188599
0.0567579
-0.416917
0.110716
0.118007
0.0880376
0.10106
0.0958786
0.024283
0.0315992
0.100198
0.0934094
0.0504234
0.0835542
-0.140728
0.113931
0.02683
0.0730065
0.0777042
-0.035051
0.091478
0.0947785
-0.0684804
0.0697922
0.107901
0.100646
0.114322
0.0895219
0.00829953
0.0962662
0.115607
0.0121586
0.0708411
0.115577
0.116895
0.114565
0.0575499
0.0560125
0.0913217
-0.00870423
0.0931933
0.0864514
0.0692331
-0.0843623
0.114871
0.0644386
0.0773094
0.0996369
0.0695727
0.00750526
0.102956
-0.0347335
0.0600797
0.106468
0.0410585
0.066989
0.0970105
0.0980566
-0.0513454
0.0592734
-0.0651338
0.0632581
0.0692963
-0.211791
0.0531618
0.105018
-0.00933632
0.0691712
-0.463374
0.0596947
-0.0105834
0.119056
0.107025
0.0639834
0.110169
0.0121502
0.0880185
0.0730942
0.0752034
-0.134029
0.0413009
0.0664836
0.104262
-0.0745212
0.065759
0.0859824
0.0599809
0.0909719
0.103732
0.0109519
0.0838259
0.0447416
0.0962045
0.0733163
0.0565176
-0.187609
0.0352356
0.0474505
0.103498
0.0999936
-0.00292055
0.0796684
0.105352
0.0496505
0.099709
0.0869148
0.0419129
0.105737
0.120297
0.074318
0.0947214
0.097391
0.0755264
0.0159034
0.0614074
-0.160571
0.0752129
-0.0662613
0.0632587
0.0875183
0.101233
0.0449424
0.0074605
0.0923899
0.0950804
-0.0659377
-0.0906622
0.0515103
0.0552666
0.0599664
-0.445068
-0.0013891
0.0253793
0.0562015
-0.399456
0.102309
0.0162241
0.0900215
0.0700714
0.0676676
-0.187752
0.102425
0.103833
-0.0126382
-0.0329589
0.0600327
0.0559426
0.0763416
-0.221526
0.0357379
0.0127151
0.0551154
-0.437426
0.101004
0.117519
0.100619
0.00978372
-0.409267
0.0606467
0.11557
0.0407787
0.0605276
0.0517135
-0.217883
0.0719219
-0.448515
0.0676739
-0.0357582
0.11186
0.0751254
0.0959138
0.113485
0.0999989
0.105072
0.0402344
0.0606151
-0.308805
0.110283
0.0875627
0.104143
0.102787
0.11551
0.105351
0.102495
0.0570811
0.0202059
0.102614
0.0968652
0.1129
0.120181
0.0632407
0.108896
0.102878
0.0215035
0.0439762
0.0608531
0.064324
-0.231515
-0.238046
0.0567899
0.0556621
0.0503743
-0.176585
0.0748604
0.052698
0.102738
-0.0163439
0.109744
0.0595964
0.0775386
0.0751741
-0.0176091
0.0908641
-0.378881
0.0699903
-0.0199373
0.079822
0.0515585
-0.162328
0.0274473
0.063488
-0.328185
0.0672953
-0.47088
-0.0363115
-0.506988
0.0620126
-0.0207195
-0.0230243
0.0932707
0.0858597
-0.284896
0.0744077
0.0116144
0.0872399
-0.0856064
0.0766838
0.0561406
0.0504953
-0.276077
0.11892
0.0896681
0.0785285
-0.198505
0.0774833
0.0433596
0.0731608
0.0923172
-0.00896386
-0.0428501
0.0776558
0.0908643
0.0665011
-0.574821
-0.060684
-0.434423
0.0637451
-0.0208612
0.121416
0.0963694
0.0764992
-0.231553
0.0310783
0.07512
0.0765373
0.0231689
-0.239877
0.0632795
0.0670438
-0.186217
0.0547787
-0.142401
0.0795887
0.107108
0.0198165
0.0457197
-0.0562668
0.10017
0.059121
0.05272
0.0761838
-0.194367
0.114961
0.114723
0.0408766
0.0261788
0.0698748
0.0724151
0.114868
0.0508276
0.0682806
0.107158
-0.0174504
0.0602518
-0.0532204
0.0706096
0.0882014
-0.189352
0.0546584
0.0750344
0.0840875
0.0752968
-0.0758872
-0.504075
0.0595439
-0.0108036
0.120329
0.119489
0.0841904
0.0801492
0.0909195
0.0841021
0.112612
0.105202
0.0592212
0.00613944
0.0578434
0.0387591
-0.439956
0.0674528
-0.0340525
-0.219798
0.0368069
0.0751055
0.106332
0.0436528
0.0614949
-0.036619
0.0685411
0.0900226
0.0542269
-0.12685
0.0835908
-0.380997
0.00135917
0.0660286
-0.352953
0.00561248
0.0674626
0.106437
-0.0244968
0.0645644
0.114047
0.0586808
0.0858999
0.0606301
0.0654946
-0.215218
-0.0376406
0.0835136
0.0877128
0.0687332
-0.117924
0.0863058
0.106025
0.0612383
0.0464158
0.0937009
0.0298728
0.100469
0.11243
0.070101
0.0820518
0.0669789
-0.230403
0.0533091
0.0948608
-0.074709
0.0659521
0.116555
0.0806843
0.0912193
0.0684956
0.0500283
-0.224323
0.114383
0.0695336
0.0809195
0.111684
0.0597341
0.104097
-0.0254461
0.0854013
0.0907263
0.0374863
0.054249
-0.349092
0.0434014
0.0523626
-0.334073
0.0655598
-0.124801
0.0860362
0.0892417
0.0376292
0.0992521
0.0530755
-0.384537
0.0261504
0.0749782
-0.113055
0.0830105
0.0666725
-0.494446
-0.046098
-0.0294609
-0.520234
0.0607126
0.0557897
-0.180673
0.0779228
0.0674712
-0.283006
0.0345132
0.0677045
0.0722846
0.0599147
-0.207511
0.0624641
-0.177245
0.0765449
-0.10485
0.0775334
0.0949442
-0.0257868
0.0611648
0.124053
0.0886492
0.0815909
0.0812701
-0.0847314
0.0825763
0.0842
0.0842318
-0.0720113
0.0805817
0.0510681
-0.174806
0.11114
-0.00780072
0.0562024
0.111811
0.030863
0.0551276
0.0923623
-0.0298711
0.0845446
0.0909005
-0.0397682
0.0854883
0.116281
0.0740887
0.0986239
0.115047
0.0166974
0.0747918
0.0788952
-0.190909
0.0375365
-0.00107764
0.0694355
-0.352093
-0.0100284
0.0719837
-0.352558
0.114492
0.0732267
0.0690685
-0.404782
0.067047
-0.0121997
0.0913564
0.0645968
-0.104617
0.0681787
-0.397707
-0.0231809
0.122155
0.103314
0.0815107
0.115222
0.0287722
0.0836315
0.0368936
0.0847847
0.102021
0.0748261
-0.268928
0.0207478
-0.0438249
0.086506
0.0884219
0.0518864
0.0637273
-0.241551
0.108059
0.01427
0.0835174
0.123558
0.0941651
0.083923
-0.263884
0.0282208
0.0724348
0.0711176
-0.12748
0.0816515
0.0349992
0.0274332
0.0584177
0.0585811
-0.340964
-0.36485
0.105583
0.0350882
0.0969465
-0.0100583
0.0962485
0.087165
0.108563
0.0719272
0.103047
-0.317123
0.00801203
-0.310724
0.0706199
0.00888278
0.0718071
0.102731
-0.0354365
0.0798811
0.027687
0.017847
-0.279239
-0.304136
0.0713241
0.0710759
0.0904522
0.00353073
0.0943273
0.109295
0.038809
0.089036
0.0510527
0.0534832
-0.294357
0.114933
0.0198341
0.0933927
0.115047
0.05361
0.0966439
0.0378554
0.0553139
-0.327547
0.11202
-0.0115981
0.0746065
0.00616647
0.0603566
0.0955353
0.108034
0.0308266
0.0555369
-0.0933617
0.0838796
0.0547891
0.0648843
-0.547838
-0.0499458
0.107024
0.0197985
0.0863972
0.0568443
0.0571261
-0.257008
0.0410702
0.0321889
0.105107
-0.0120468
0.0576112
-0.470145
0.109591
0.106778
0.063524
0.0967953
0.0657481
0.100392
0.11455
0.068043
0.104654
0.110046
0.112715
0.0707001
0.102462
0.0867158
0.0950665
0.108786
0.0428896
0.0966069
0.11372
0.0444029
0.0978276
0.0719772
-0.337648
-0.00621529
0.114989
0.0632172
0.0670182
0.03624
-0.263847
0.0696266
0.0924459
0.0894469
-0.0454525
-0.069147
0.0804145
0.0779681
0.112445
0.0809639
0.0747794
0.106123
0.000159652
0.058562
0.101097
-0.0171649
0.0846684
0.116925
0.100336
0.092655
0.0876765
-0.068124
0.0822797
0.118598
0.0804613
0.0927381
0.099227
0.00107434
0.0918858
0.105824
0.0117437
0.0597015
0.11623
0.115191
0.0963333
0.0977863
0.101511
0.0921727
0.113249
0.0708263
0.115193
0.105753
0.0978173
0.0982823
0.11645
0.116769
0.0481467
0.0408378
0.076191
0.0713677
0.0571932
-0.137429
0.0847759
0.0963711
0.0680617
0.0146761
0.0602871
0.0625733
-0.161378
-0.154843
0.0790752
0.0779132
0.105474
0.0477874
0.0619655
0.115023
0.103367
0.10318
0.0873937
-0.0837965
0.0797176
0.119735
0.0770965
0.071541
0.105625
0.000435895
0.0611594
0.0939005
0.0948764
-0.103653
0.0592069
-0.0934874
0.060843
0.0967126
-0.0493063
0.0770409
-0.00344897
-0.448487
0.0582815
0.0363342
0.0467787
0.10335
0.104021
0.106287
0.0435163
0.0343688
0.05522
0.0425096
0.0785891
-0.0610833
0.0865764
0.105766
0.0179603
0.0621046
0.10806
0.0417538
0.0507209
0.103793
0.111789
0.0507602
0.0673142
0.0620355
0.0489755
0.105086
0.0589081
0.0469641
0.0974708
-0.0400546
0.0808613
0.116905
0.0825318
0.0993817
0.0458049
0.0589545
-0.290469
0.108141
0.0450852
0.04111
0.110316
0.107894
-0.00351837
-0.017211
0.0613804
0.0678037
0.0587661
-0.260678
0.054557
0.0529593
0.0557677
-0.283014
0.0454303
0.0567319
-0.303664
0.0909861
0.0611796
-0.11066
0.108101
0.0307421
0.065017
-0.253202
-0.216076
-0.01239
-0.248653
-0.0786854
-0.367038
-0.144067
-0.19482
-0.36024
-0.0914566
-0.094869
-0.39579
-0.266038
-0.0924644
-0.254267
-0.282982
-0.23402
-0.272395
-0.225336
-0.13523
-0.213927
-0.276801
-0.0735826
0.0485821
-0.00186405
-0.206453
-0.0636808
-0.395259
-0.187871
-0.272623
-0.385029
-0.150502
-0.221235
-0.229901
-0.364854
-0.207681
-0.0251685
-0.0774312
-0.229142
-0.141183
-0.30195
0.054181
-0.339628
-0.0937809
-0.0385532
-0.301453
-0.290438
-0.342626
-0.388041
-0.346695
0.00285285
-0.208451
-0.280272
-0.323588
-0.382751
-0.00411442
-0.134945
-0.214078
-0.358619
-0.10401
-0.35248
-0.331412
-0.000898989
-0.179952
-0.218832
-0.131434
-0.196672
0.0334247
-0.0752249
-0.0692647
-0.449925
-0.404734
-0.267544
-0.11333
-0.417349
-0.229618
-0.201722
-0.373816
-0.113361
-0.0424435
-0.267792
-0.231743
-0.376528
-0.307869
-0.310126
-0.101879
-0.30636
-0.244199
-0.260596
0.00670459
-0.290873
-0.105331
-0.00265223
-0.224844
-0.271879
-0.423756
-0.352643
-0.339992
-0.271853
-0.452645
-0.158351
-0.0694221
-0.0256757
0.0366075
-0.296328
-0.251056
-0.391651
-0.278119
-0.351345
-0.028349
-0.0636242
-0.133182
-0.345193
-0.417341
-0.129998
-0.0533799
-0.279032
-0.244278
-0.450331
-0.278925
-0.23872
0.0182984
0.0257857
-0.109884
-0.202034
-0.255792
-0.39697
0.0219031
-0.27913
-0.116281
-0.46139
6.4271e-05
-0.375032
-0.285385
-0.266825
-0.0451015
-0.240896
-0.479652
-0.331564
-0.141779
-0.284659
-0.0981885
-0.131267
-0.294411
-0.040302
-0.32378
-0.315497
-0.0343235
-0.328312
-0.271541
-0.391791
-0.183142
-0.232566
-0.0423346
-0.105711
-0.290149
-0.114729
-0.0953797
-0.0166032
-0.198584
-0.267928
-0.297875
-0.0837819
-0.277094
-0.138318
-0.383379
0.0463697
-0.277862
-0.0323328
0.0201531
-0.206276
0.0263884
-0.0367581
-0.0188344
-0.33715
-0.462748
-0.397859
-0.0123176
-0.347413
-0.360724
-0.278938
-0.357168
-0.269891
-0.312207
-0.200358
0.0202637
-0.108641
-0.302147
-0.106619
-0.330279
0.0501298
-0.309673
-0.0474184
-0.303965
-0.47895
0.00747165
0.0264142
-0.311047
-0.335078
0.045107
-0.183147
-0.221618
-0.346941
-0.113101
-0.0278071
-0.0973214
-0.306636
-0.35965
-0.0702888
-0.196217
-0.380936
-0.120235
-0.282013
-0.376167
-0.258078
-0.0423335
-0.443188
-0.203436
-0.0691523
-0.315255
-0.456595
-0.292069
-0.27914
-0.240709
-0.165994
-0.152079
-0.300507
-0.369529
-0.275236
-0.131792
-0.0996472
-0.281796
-0.144635
-0.316364
-0.347771
-0.179319
-0.297406
-0.468967
-0.089155
-0.0352712
-0.198924
0.00951373
-0.023654
0.0530546
-0.276197
-0.491877
-0.260144
-0.293742
-0.242854
-0.436967
-0.172132
0.00359429
-0.117356
-0.18301
-0.31587
-0.279766
-0.0777951
-0.217518
-0.122032
-0.326645
-0.25531
-0.307792
-0.292413
-0.311217
-0.300663
-0.28678
-0.379951
-0.146625
-0.20197
-0.289178
-0.138077
-0.254543
-0.269165
-0.354835
-0.290145
-0.322399
-0.335513
-0.190408
-0.426004
-0.49185
-0.241501
-0.402761
-0.437955
-0.182871
-0.31058
-0.43417
-0.0398148
-0.139154
-0.324779
-0.0808822
-0.37706
-0.15139
-0.116812
-0.274879
-0.268934
-0.0582439
-0.255844
-0.0901247
-0.375502
-0.313036
-0.035498
-0.313658
-0.268897
-0.516645
-0.425484
-0.47512
-0.409282
-0.326911
-0.142037
-0.359746
-0.455877
-0.363924
-0.304147
0.0518076
-0.252347
-0.118303
-0.167257
-0.293541
-0.230819
-0.314075
-0.392917
-0.162019
-0.30242
0.000924718
-0.107953
-0.300561
-0.298837
-0.206045
0.0476707
-0.0847283
-0.023795
-0.104299
-0.289137
-0.203662
-0.274538
-0.370454
-0.420723
-0.333542
-0.225333
-0.117991
-0.363453
-0.417801
-0.273165
-0.222066
-0.277821
-0.234078
-0.0569821
-0.248363
-0.293895
-0.00751585
-0.0412439
-0.314743
-0.154211
-0.0280683
-0.360226
-0.315522
-0.289189
-0.357207
-0.38044
-0.029885
-0.376843
-0.245531
-0.0131754
-0.467378
-0.195884
-0.309511
-0.205566
-0.292161
-0.32678
-0.41958
-0.218918
-0.414771
-0.329984
-0.297495
-0.300165
-0.0978259
-0.00148601
-0.275112
-0.170135
-0.214314
-0.259775
-0.479061
-0.063996
-0.135665
-0.324998
-0.432212
-0.175035
-0.39609
-0.246054
-0.290149
-0.334602
-0.0579129
-0.00519586
-0.29408
-0.0947563
0.0367145
-0.0573355
-0.0470524
-0.0166217
-0.227713
-0.297116
-0.376492
0.0462456
-0.059041
-0.0333664
-0.347499
-0.310203
-0.465833
-0.0847519
-0.240364
-0.257927
-0.0322184
-0.122928
-0.272782
-0.220144
-0.311701
-0.27576
-0.315346
-0.300316
-0.286502
-0.33895
-0.275325
-0.420086
-0.231942
-0.353335
-0.120246
-0.16648
-0.446471
-0.0234384
-0.00925806
-0.107687
-0.34127
-0.190584
-0.308356
-0.0905574
-0.21511
-0.390428
-0.0288319
-0.340846
0.00367332
-0.440428
-0.272798
-0.229658
-0.109031
-0.0707267
-0.272285
0.020662
-0.264841
-0.0544419
-0.274391
-0.115057
-0.292518
-0.266984
-0.320514
-0.047407
-0.221466
0.04172
-0.12804
-0.422794
-0.252793
-0.15499
-0.328425
-0.336788
-0.270135
-0.347715
0.00615956
-0.270857
-0.287983
-0.0812877
-0.345365
0.000221372
0.0346413
-0.297939
0.0422264
0.0126629
-0.0490097
-0.0290746
-0.183168
-0.388456
-0.348629
-0.287765
-0.0666724
-0.263003
-0.340083
0.0174723
-0.367087
-0.272913
-0.355807
-0.0180372
0.0508647
-0.369205
-0.0577051
-0.159663
-0.00228517
-0.212171
-0.0996168
-0.285985
0.0205047
0.0384562
-0.12717
-0.344488
-0.0679732
-0.247281
-0.153259
-0.219977
-0.238337
-0.161654
-0.238791
-0.340406
-0.373678
-0.230822
-0.144597
-0.183226
-0.034961
-0.36967
-0.240464
-0.133304
-0.367688
-0.0103248
-0.273146
-0.286488
-0.011469
-0.0447243
-0.172359
0.0280911
-0.289334
-0.315977
-0.0943327
-0.182881
-0.174002
-0.273843
-0.315326
-0.150403
-0.123652
-0.312664
-0.301695
-0.18187
-0.435547
-0.345169
-0.000558466
0.035139
0.0397804
-0.193726
0.0433017
0.047712
0.0113175
-0.490312
-0.167395
-0.168215
0.0277334
-0.324812
-0.267807
-0.39479
-0.345197
-0.359943
0.0177091
-0.257893
-0.245567
-0.0951166
-0.127254
-0.30856
-0.289604
0.0460211
0.0179836
-0.0223252
-0.117724
-0.329196
-0.0947886
-0.14601
-0.327011
-0.217219
-0.413544
-0.361331
-0.193319
-0.246574
-0.284441
0.000972753
0.00054043
-0.475013
-0.0460555
-0.296982
-0.295877
-0.253158
-0.00361701
-0.270564
-0.116756
-0.26556
-0.0179592
-0.311772
-0.26424
0.0356638
-0.469086
-0.437925
-0.293591
-0.33534
-0.493179
-0.43846
-0.32766
-0.497316
-0.236422
-0.470325
-0.398438
-0.245972
-0.345321
-0.322874
-0.275559
-0.431554
-0.424481
0.0141635
-0.0359569
-0.305192
-0.398513
-0.0303897
-0.323048
-0.267396
0.0361857
-0.318503
0.0334275
-0.253075
-0.0392463
-0.191639
-0.305771
-0.403559
-0.183433
-0.186049
-0.23715
-0.307098
-0.307493
-0.410823
-0.334291
-0.255063
-0.463881
-0.421903
0.0146252
-0.277319
-0.121032
-0.0858674
-0.328316
-0.0541294
-0.0829102
-0.391236
-0.429494
-0.270287
-0.423096
-0.488503
-0.114212
-0.107956
-0.302635
-0.14987
-0.298214
0.0359829
0.0103023
-0.27144
-0.307934
0.0244422
-0.0331022
-0.163745
-0.158045
-0.316895
0.0398683
-0.174222
-0.475576
-0.0156519
-0.0574247
0.00138763
-0.192692
-0.356371
-0.257366
-0.105279
-0.158989
-0.475607
0.0570682
-0.271751
-0.304086
-0.217957
-0.0215395
0.0304592
0.040712
-0.147237
-0.20298
-0.0750166
-0.0296742
-0.0056641
-0.122943
-0.0656334
-0.288069
-0.288121
-0.165707
-0.373736
-0.290989
-0.443292
-0.275236
-0.0813004
-0.433092
-0.206007
-0.261296
-0.0454471
0.0393319
-0.260594
-0.403975
-0.453102
-0.0736822
-0.337552
-0.341489
-0.459888
-0.00302315
-0.188769
-0.177761
-0.400342
-0.173986
-0.342743
-0.304612
-0.0962112
-0.0857546
0.00342229
0.0458022
-0.323244
-0.0247986
-0.476946
-0.0147065
0.00476562
0.0019828
-0.0755733
-0.346851
-0.344875
-0.295881
-0.468724
-0.177561
-0.46732
-0.138632
-0.393391
-0.032147
-0.323971
-0.45733
-0.0447932
-0.0717782
-0.251544
-0.248678
-0.123984
-0.00206684
-0.190718
-0.224347
-0.467194
-0.05844
-0.152008
0.0192504
-0.489824
-0.245278
-0.0138358
-0.107498
0.027621
-0.100649
-0.302993
-0.506803
-0.47528
-0.249715
-0.449052
0.0148999
-0.45721
-0.239265
-0.249981
-0.378455
-0.0533355
-0.493401
-0.0084922
-0.10145
-0.17249
-0.336306
-0.115194
-0.263932
-0.220844
-0.252161
-0.247681
-0.311695
-0.327857
-0.0800746
-0.342309
0.0418322
-0.330618
-0.178964
-0.135296
-0.0825831
0.0133698
-0.309638
-0.272813
-0.319294
-0.207168
-0.339179
0.011347
-0.343202
-0.215132
-0.323289
-0.0534954
-0.354914
-0.195502
-0.417864
0.0416264
-0.473294
-0.343913
-0.22721
-0.0429579
-0.451699
-0.451587
-0.357318
-0.420531
-0.00226384
-0.218777
-0.112184
-0.0397015
-0.13
-0.157605
0.0405308
-0.169318
-0.0770691
-0.141997
-0.173478
-0.438629
-0.171815
-0.253654
-0.253254
-0.159781
-0.28357
-0.426108
-0.210719
-0.213542
-0.360197
-0.0615621
-0.191097
-0.0933791
-0.259909
0.0123151
-0.247122
-0.206414
-0.138164
-0.423135
-0.349499
-0.322815
-0.185001
-0.18351
-0.153864
-0.0081851
-0.0847415
-0.0672222
-0.206279
-0.0244816
0.0182572
0.0154236
-0.142504
-0.186723
-0.161486
-0.37745
0.027342
-0.0339919
-0.0526988
-0.235894
-0.347303
-0.432494
-0.163221
-0.109892
-0.288952
-0.0534829
-0.0316315
-0.160608
-0.2814
-0.153888
-0.266084
-0.267539
-0.232413
-0.26613
-0.176503
-0.462735
-0.174086
-0.197017
-0.270769
-0.485736
-0.18181
-0.219869
-0.124476
-0.300628
-0.187816
-0.00707642
0.00529711
-0.171971
-0.252015
-0.0643232
-0.213807
-0.343862
-0.358907
-0.281482
-0.42551
-0.00870873
-0.226417
-0.198281
-0.102536
-0.119472
-0.120808
-0.286584
0.0390988
-0.119701
-0.359687
-0.230074
-0.227213
-0.065337
-0.0145982
-0.117332
-0.165511
-0.443986
-0.371681
-0.267703
-0.163757
-0.217564
-0.169946
-0.350194
0.00081656
-0.149351
-0.0542092
-0.0286506
-0.191897
-0.297404
-0.179698
0.0273705
-0.332556
-0.457887
-0.180816
0.0343534
-0.313333
-0.280381
-0.0772585
-0.1107
-0.0487605
-0.240796
-0.447814
-0.16557
-0.430994
-0.307163
-0.0499904
-0.24962
-0.37182
-0.298238
-0.320383
-0.149872
-0.267236
-0.269064
-0.019185
-0.364728
0.0411334
-0.0520491
-0.393046
-0.502628
-0.217629
-0.0937483
-0.0319021
-0.241688
-0.267149
-0.263644
-0.29203
-0.232727
0.0472685
-0.0150725
-0.103386
-0.240727
-0.4276
0.000212124
0.042445
0.000560004
-0.0664048
-0.0170041
-0.187763
-0.425598
-0.472438
-0.457938
0.0125294
-0.222418
-0.264658
-0.24021
0.0401947
-0.314808
-0.281903
-0.411929
-0.240021
-0.362593
0.0395185
-0.162431
-0.0922175
-0.0189899
-0.0329821
-0.281998
-0.142447
-0.200433
-0.0933441
-0.343018
-0.154695
-0.323655
0.00852664
-0.297823
-0.341255
-0.265201
-0.279158
-0.00904627
-0.318654
-0.0523587
-0.0245907
-0.0171234
-0.395097
-0.207125
-0.268754
-0.263023
-8.60296e-05
-0.196349
-0.161756
-0.167984
-0.358784
-0.236762
0.00695759
-0.135975
0.00329177
-0.466522
-0.348373
-0.3086
0.0163177
-0.249311
-0.219043
-0.396686
-0.281837
-0.229683
0.0146578
-0.210059
-0.261568
-0.409569
0.0368296
0.0307661
-0.361436
0.00531886
-0.31686
-0.393685
-0.341686
-0.223106
-0.444991
-0.131268
-0.251817
-0.326631
-0.269952
-0.011055
-0.237405
-0.0538584
-0.243839
-0.356296
-0.261459
-0.467765
-0.445361
-0.253656
-0.218833
-0.157833
-0.373161
-0.253132
-0.0254396
-0.1474
-0.327777
-0.312711
-0.0141587
-0.23441
-0.225567
0.0495485
-0.175014
-0.334629
-0.227483
-0.2705
0.0241328
-0.264612
-0.247415
-0.153288
-0.441327
-0.00884436
-0.289065
-0.0218549
-0.206768
-0.0857913
-0.391604
-0.0533328
-0.260949
-0.396441
-0.357449
-0.206696
-0.0112401
-0.51332
-0.290345
-0.310836
0.0159227
0.0373285
-0.269107
-0.321216
-0.134215
0.023509
-0.240651
-0.00418558
-0.0321666
-0.0556291
-0.0831434
-0.186053
-0.0965628
-0.106075
0.00432079
-0.215978
-0.192061
-0.269096
-0.272989
-0.208199
-0.330274
0.022593
-0.282174
-0.00495087
-0.226853
0.0154069
-0.348886
0.0319943
-0.089548
-0.0157351
0.0173647
-0.00865396
0.0468263
-0.286557
-0.0229842
-0.198958
-0.315398
-0.291533
-0.370425
0.00308217
-0.281194
-0.158281
-0.149852
-0.269252
-0.146031
-0.354972
0.0067672
-0.212612
-0.0662452
-0.481312
-0.316907
-0.308853
0.0446685
-0.26093
-0.130511
-0.270251
-0.304589
-0.375892
-0.262821
-0.327095
-0.0599777
0.00877662
-0.417063
-0.166145
-0.307596
-0.34132
-0.0457119
-0.272079
-0.272403
0.0212395
-0.450438
-0.164657
-0.107728
-0.0156946
0.0372416
-0.26754
-0.311392
-0.413836
-0.258191
-0.264286
-0.309318
-0.0661983
-0.317477
-0.396605
-0.264612
-0.205003
-0.281183
-0.255037
-0.313445
-0.212079
-0.408588
-0.0725644
-0.0867428
-0.246561
-0.0697728
-0.298434
-0.449475
-0.263913
-0.470276
0.026518
-0.304146
-0.322475
-0.349758
-0.0292219
0.00292588
-0.19492
-0.0731021
-0.256705
-0.369692
-0.190812
-0.316848
-0.293787
0.00211648
-0.160015
-0.0984907
0.0266707
-0.063361
-0.188198
0.0181308
-0.418306
-0.191298
-0.19675
-0.152676
-0.207736
0.0123623
-0.320751
-0.157684
-0.235736
-0.274721
-0.33414
-0.304624
-0.0882512
-0.0424877
-0.0214857
-0.19252
-0.184427
0.0148682
-0.0491623
-0.256395
-0.155072
-0.39509
-0.287914
-0.0572434
-0.421668
-0.0298409
-0.32309
-0.0180635
0.0398756
0.00731536
-0.33474
-0.017889
-0.0319383
-0.314485
0.0133046
-0.241812
0.0132638
-0.0619403
-0.305519
-0.405652
-0.147767
-0.283259
-0.209722
-0.262648
-0.040798
-0.244206
0.0180602
-0.355624
-0.276856
-0.264216
-0.349801
-0.323471
-0.0421917
0.0339764
-0.361478
-0.0602754
-0.216885
-0.157258
-0.240086
-0.131818
-0.00363094
-0.0555791
-0.318159
-0.0115992
-0.0456661
0.0334991
-0.354947
-0.333338
-0.268255
-0.0762714
0.0227246
-0.0392576
-0.244866
0.0310605
-0.215302
-0.407171
-0.405072
-0.508456
-0.203401
-0.389832
0.0313254
0.0417241
-0.185471
0.0466887
-0.0529737
-0.199358
0.0271344
-0.39779
0.0117928
-0.289038
0.00282968
-0.276369
-0.341997
-0.0795933
-0.18865
0.0127254
-0.0054085
-0.000633553
-0.315865
-0.315455
-0.430824
-0.0222129
-0.0588338
-0.268589
-0.181868
-0.0567893
-0.472039
-0.326719
-0.328507
-0.297104
-0.164083
-0.303622
-0.196267
-0.0666821
-0.208785
-0.189894
-0.0826602
-0.291345
-0.245783
-0.16456
-0.207577
-0.291933
-0.0233228
0.00975151
-0.268799
-0.0612644
-0.482527
-0.320881
-0.0174986
-0.073407
-0.322879
0.0036347
-0.383111
-0.0873851
-0.241043
-0.219153
-0.014317
-0.273347
-0.0746075
-0.0719674
-0.115552
0.0489639
-0.110719
-0.417148
-0.147917
-0.196975
-0.0735604
0.0450913
-0.115704
-0.210069
-0.293649
-0.216155
-0.0126542
-0.380604
-0.0269291
-0.305238
-0.144338
-0.0632237
-0.0850229
-0.221765
-0.0188194
0.0300583
-0.250267
-0.284521
-0.194666
-0.324375
-0.411527
-0.191165
-0.0729476
-0.373302
-0.417767
-0.25986
-0.400982
-0.0917102
-0.21392
-0.0689253
-0.281582
0.000942182
-0.209572
-0.0331324
0.0318239
-0.348077
-0.00732573
-0.24149
-0.192883
-0.177192
-0.0195253
-0.273791
-0.25361
-0.17241
-0.337145
-0.278972
-0.35177
-0.377385
-0.480857
0.0269669
0.0386781
-0.385854
-0.271611
-0.0796455
-0.427193
-0.270303
-0.308043
-0.104677
-0.0870131
-0.442752
-0.488151
-0.00596265
-0.266409
-0.156008
-0.271783
-0.419209
-0.403771
-0.13593
-0.0334074
-0.153073
-0.447981
0.00306011
-0.0358338
-0.333264
-0.163491
-0.318464
0.0318216
-0.296817
-0.230839
-0.387952
-0.122747
0.0117891
-0.151863
-0.138943
-0.302459
-0.209273
-0.144627
0.026883
0.0448848
-0.275834
0.0325361
-0.295078
-0.181709
-0.181781
-0.256276
-0.292319
-0.021959
-0.206713
-0.176058
-0.303905
-0.354747
-0.203203
-0.339053
-0.109629
0.0032157
-0.335797
-0.303788
-0.18953
-0.286785
-0.247718
-0.467413
-0.265671
-0.0146317
-0.327385
-0.326878
-0.0774525
-0.191315
-0.237203
-0.128603
-0.038604
-0.273713
-0.2614
-0.0433981
-0.256797
-0.27501
-0.198603
-0.0209773
-0.131654
-0.179049
-0.266119
-0.367614
-0.282863
0.0294302
-0.0388626
0.0380589
-0.240531
-0.111596
-0.37311
-0.218754
-0.032447
-0.419177
-0.428585
-0.0858984
-0.034313
-0.429666
-0.274435
-0.260132
-0.275069
-0.264503
0.0439175
-0.227399
-0.276622
-0.13849
-0.292592
-0.0845806
-0.131003
-0.38746
-0.259123
-0.060449
-0.215918
0.0313395
-0.411145
-0.328531
-0.117361
-0.148685
-0.252797
-0.159655
-0.331949
0.036066
0.014246
-0.114802
-0.0161582
-0.343831
-0.0239347
-0.129211
-0.110141
0.0196867
-0.424687
-0.287809
0.0428064
-0.125596
-0.443284
-0.321931
-0.0333044
0.0383955
-0.222688
-0.0783968
-0.267588
-0.398536
-0.311981
-0.436213
-0.0323851
-0.315289
-0.212183
0.0162521
-0.360753
-0.269927
-0.291558
-0.180068
-0.26559
-0.326382
-0.295453
-0.385133
-0.207816
-0.0567613
0.0158349
-0.0865518
-0.238182
-0.297119
-0.449988
-0.321916
-0.147422
-0.1625
-0.0930414
-0.077986
-0.29715
-0.239895
-0.0438563
-0.0308828
0.0397628
-0.0149836
0.02274
-0.219619
-0.395145
-0.322948
-0.356466
0.027592
-0.191516
-0.299296
0.0180349
-0.38972
-0.0546457
-0.087191
-0.265578
-0.264049
-0.286283
-0.354137
-0.0340472
-0.281225
-0.103533
-0.227107
0.0118133
-0.169727
0.0488739
-0.34306
-0.226481
-0.340573
-0.487875
-0.278135
-0.0654785
-0.281807
-0.374386
-0.179098
0.00789846
-0.072717
-0.342499
-0.390634
-0.306793
-0.401185
-0.262803
-0.416266
-0.259287
-0.3597
-0.0841509
-0.389182
-0.272458
0.00186666
-0.195405
-0.0942154
-0.0419502
-0.263487
-0.211195
-0.318224
-0.0540892
-0.280079
-0.248498
-0.224506
-0.374316
-0.425068
-0.27959
-0.246012
-0.0766191
0.0385194
-0.0251307
-0.178918
-0.0981925
-0.429199
0.0327325
-0.152033
-0.0674001
-0.254102
-0.0900345
-0.320051
-0.27835
-0.055116
0.0104799
-0.0674593
-0.173276
-0.30963
0.0447874
-0.24011
-0.0444913
0.0260251
-0.114547
-0.257917
-0.430044
-0.0472948
-0.145039
-0.375813
-0.129791
-0.16043
0.00742105
-0.313327
0.0175237
0.0413735
-0.265601
-0.33905
0.0233991
-0.38002
-0.366096
-0.271665
-0.360606
-0.269473
-0.356521
-0.405759
-0.231523
-0.263834
-0.310157
-0.322063
-0.164444
-0.349929
-0.335217
-0.135605
-0.212681
-0.431951
0.00209882
0.0365351
0.0234304
-0.276909
-0.44921
0.05383
-0.391152
-0.236892
-0.264072
-0.312693
-0.251267
-0.087568
-0.310483
-0.330472
-0.41933
-0.416618
-0.379912
-0.322625
-0.457461
-0.226761
-0.188186
-0.237675
0.0130533
-0.188599
-0.108975
-0.231003
-0.0398845
-0.30231
-0.30934
0.0495738
-0.250659
-0.14875
-0.391583
-0.114547
0.0362723
-0.271889
-0.134434
-0.151864
-0.320578
-0.276053
-0.368333
-0.341465
-0.0807073
-0.360575
-0.246758
-0.329211
-0.263837
-0.307674
-0.364657
-0.234385
-0.286424
-0.347958
0.0352316
-0.237571
-0.243297
-0.175388
0.00699675
-0.302073
-0.412446
-0.0527993
-0.377359
-0.276143
-0.26283
-0.189029
-0.327117
-0.204014
-0.183442
0.0346696
-0.0264445
-0.400885
-0.340837
-0.426579
-0.265633
-0.444624
-0.336866
-0.253821
-0.335238
-0.250671
-0.140375
0.0459633
-0.294876
-0.0936996
-0.195203
0.0286023
-0.327066
0.0376335
-0.14848
-0.390688
-0.139089
-0.0840774
-0.310045
-0.0267394
-0.26214
-0.019158
-0.331912
-0.372721
-0.242707
0.0449026
0.0347404
-0.0792103
-0.13006
-0.0960866
-0.448224
-0.338118
-0.0877987
0.0499355
-0.353159
-0.204309
-0.257383
-0.306034
-0.260489
-0.300719
-0.362332
-0.310133
-0.354482
-0.270204
-0.293527
-0.24916
0.0472831
-0.0350239
-0.451897
-0.0619652
-0.321205
-0.382179
-0.0515083
-0.354819
-0.278614
-0.104442
-0.330556
-0.324764
-0.226339
-0.0269225
-0.37137
-0.326403
-0.293907
-0.145521
-0.355374
0.00930632
-0.440036
-0.323957
-0.291694
-0.343846
-0.124036
-0.143099
0.00884215
-0.27094
-0.0653157
-0.184775
-0.149381
-0.282575
-0.120299
-0.374645
-0.367272
-0.482443
-0.139863
-0.24401
-0.293428
-0.00841283
-0.216065
-0.136235
-0.126668
-0.325211
-0.352306
-0.303956
-0.151699
-0.272614
0.0446418
-0.392814
-0.4439
-0.257107
-0.328591
-0.273379
-0.253781
-0.0868298
-0.281129
-0.233488
-0.370771
-0.258227
-0.236849
-0.292773
0.0405193
0.0258492
-0.358088
-0.311239
-0.0345144
-0.166921
-0.300306
-0.384565
-0.281508
-0.38516
-0.190128
-5.95134e-05
-0.298642
-0.439415
-0.142357
-0.231349
-0.437269
-0.36651
-0.225229
-0.101749
0.0442431
-0.378236
-0.418373
-0.1694
-0.0326619
-0.278491
-0.17647
-0.297461
-0.266177
-0.312037
-0.145049
-0.24828
-0.270276
-0.0579172
-0.294525
-0.451368
-0.197576
-0.279575
-0.0545368
0.0485547
-0.26767
-0.324237
-0.312233
-0.316744
-0.370816
-0.318482
-0.38392
0.0169415
-0.045517
-0.103157
-0.250462
-0.427051