/*--------------------------------*- C++ -*----------------------------------*\
  =========                 |
  \\      /  F ield         | OpenFOAM: The Open Source CFD Toolbox
   \\    /   O peration     | Website:  https://openfoam.org
    \\  /    A nd           | Version:  6
     \\/     M anipulation  |
\*---------------------------------------------------------------------------*/
FoamFile
{
    version     2.0;
    format      ascii;
    class       volScalarField;
    location    "0";
    object      p;
}
// * * * * * * * * * * * * * * * * * * * * * * * * * * * * * * * * * * * * * //

dimensions      [0 2 -2 0 0 0 0];

internalField   nonuniform List<scalar> 
13046
(
0.216279
0.187497
0.219827
0.219264
0.220671
0.189399
0.208613
0.191474
0.224464
0.133867
-0.0209257
0.202286
0.21506
0.158652
0.216175
0.157849
0.198341
0.00391831
0.228966
0.208922
0.20658
0.154036
0.201172
-0.000204151
0.216182
0.205512
0.215046
0.208801
0.161885
0.217633
0.223649
0.172221
0.212625
0.22079
0.219945
0.201648
0.217467
0.22212
0.207389
0.222735
0.205535
0.177782
0.212178
0.225144
0.215013
0.215157
0.217503
0.212764
0.210314
0.184724
0.221405
0.176591
0.224148
0.160238
0.18337
0.154884
0.226903
0.0794991
0.201566
0.196264
0.187615
0.138197
0.219375
0.20658
0.0500469
0.167621
0.206045
0.0872687
0.191517
0.210651
0.0956543
0.191572
0.0645937
0.19761
0.196119
0.229606
0.21757
0.198028
0.200859
0.1862
0.0551966
0.213736
0.200273
0.215204
0.204721
0.0346616
0.158737
0.152084
0.212663
0.0625802
0.214749
0.129461
0.0597012
0.195838
0.188958
0.116491
0.106598
0.210211
0.213076
0.215094
0.149823
0.0714654
0.217281
0.221033
0.207435
0.229531
0.168845
0.187605
0.223029
0.196989
0.171939
0.0978693
0.199595
-0.0808869
0.216162
0.170459
0.213663
0.192639
0.19612
0.0935666
0.206547
0.111167
0.207061
0.127202
-0.036918
0.201133
0.208682
0.127872
0.216546
0.221748
0.206118
0.174559
0.215551
0.133429
0.077664
0.178954
0.0872659
0.212027
0.222002
0.165492
0.210152
0.196341
0.183987
0.221464
0.220878
0.186644
0.175712
0.227967
0.179835
0.195992
0.188901
0.124126
0.218213
0.231258
0.190769
0.194057
0.161057
0.159163
0.151927
0.159242
0.224892
0.224726
0.196288
0.167095
0.222451
0.128345
0.204219
-0.0177666
0.111383
0.199689
-0.0664363
0.177194
0.0757013
0.210745
0.224769
0.147316
0.202408
0.195931
0.222787
0.174514
0.208222
0.00598659
0.130544
0.223631
0.15852
0.197561
0.230581
0.183611
0.188956
0.200125
0.185141
0.220281
0.151651
0.221592
0.208668
0.141878
0.213889
0.152534
0.208787
0.0417313
0.216406
0.145462
0.0815234
0.133322
0.0535088
0.212512
0.169913
0.145679
0.221327
0.206405
0.18856
0.195677
0.0568426
0.0356524
0.133784
0.211816
0.213539
0.223403
0.206117
0.2121
0.16774
0.214634
0.217911
0.138319
0.0858283
0.203756
0.157773
0.224283
0.203477
-0.0469984
0.109184
0.221609
0.147262
0.163384
0.140387
0.0680211
0.214507
0.171984
0.161347
0.226487
0.205463
0.13405
0.216558
0.112034
0.141009
0.217646
0.153958
0.141592
0.221669
0.204327
-0.0477782
0.100534
0.227374
0.20039
0.159685
0.112118
0.195713
-0.104718
0.224457
0.212374
0.203585
0.182391
0.179109
0.158077
0.165527
0.226423
0.220688
0.194702
0.181696
0.039902
0.210379
0.14289
0.210514
0.15403
0.124139
0.221912
0.183576
0.0905644
0.209058
0.215846
0.209231
0.223745
0.168483
0.150569
0.224143
0.2129
0.13226
0.20918
0.205675
0.205646
0.229346
0.193703
0.149171
0.169434
0.139089
0.222408
0.174612
0.208719
0.0828955
0.230393
0.195459
0.168709
0.225873
0.150456
0.154092
0.200201
0.102822
0.201891
0.225487
0.18003
0.154663
0.194095
0.191871
0.0937422
0.201697
0.087687
0.205216
0.207093
0.0147012
0.136915
0.198787
0.121849
0.208949
-0.12869
0.197975
0.0797128
0.206279
0.224192
0.189101
0.193583
0.147299
0.21918
0.210469
0.158909
0.0575261
0.17805
0.148346
0.226082
0.0993882
0.140818
0.217715
0.176336
0.220231
0.190895
0.141999
0.217727
0.167909
0.223347
0.167116
0.198839
0.0189431
0.176068
0.134274
0.223938
0.186654
0.133748
0.214871
0.190478
0.175711
0.225489
0.170714
0.1783
0.226586
0.217125
0.184334
0.220267
0.222203
0.153809
0.159896
0.14341
0.0449489
0.210409
0.10439
0.140139
0.218984
0.211203
0.188613
0.116795
0.190635
0.193972
0.0825473
0.0687146
0.195815
0.19846
0.197509
-0.117905
0.0899473
0.118701
0.195931
-0.0956455
0.181215
0.151324
0.218338
0.207027
0.151137
0.0273791
0.205397
0.204506
0.110639
0.100067
0.201484
0.199126
0.209459
0.0148721
0.114914
0.106426
0.19451
-0.117133
0.203
0.225508
0.21579
0.100636
-0.0978336
0.198007
0.221836
0.144462
0.199531
0.132211
0.0132304
0.209116
-0.113146
0.201736
0.0527723
0.223195
0.20381
0.185334
0.206768
0.210347
0.222718
0.130275
0.200749
-0.0438016
0.202356
0.203076
0.223149
0.206608
0.22389
0.218052
0.225925
0.138691
0.164742
0.195956
0.214088
0.225696
0.207399
0.190425
0.224036
0.214503
0.123764
0.187088
0.20222
0.204646
-0.0011269
-0.00340274
0.145471
0.14263
0.132755
0.0367144
0.210069
0.194333
0.211925
0.101477
0.222261
0.195075
0.166645
0.14954
0.13615
0.219089
-0.0731114
0.203855
0.0656382
0.213903
0.128029
0.0484765
0.115228
0.201247
-0.0512343
0.201023
-0.12568
0.0528818
-0.150857
0.197948
0.0709992
0.126314
0.17171
0.217235
-0.0198374
0.207388
0.0933823
0.170241
0.0851629
0.213272
0.151953
0.193366
-0.030972
0.21084
0.218095
0.186299
0.027264
0.211162
0.121032
0.149646
0.219788
0.142155
0.119237
0.155093
0.22206
0.200037
-0.188044
0.0292736
-0.10817
0.200135
0.0680645
0.214542
0.221677
0.186051
0.00816147
0.113397
0.209034
0.21018
0.103129
0.00520151
0.149912
0.205693
0.0270971
0.198429
0.0430362
0.174746
0.219858
0.12014
0.188322
0.0860962
0.200364
0.201954
0.196347
0.172487
0.0117256
0.216642
0.215341
0.149246
0.138956
0.206967
0.209599
0.21915
0.153612
0.20514
0.211081
0.105139
0.201898
0.111679
0.147642
0.2192
0.0302171
0.133293
0.211798
0.216482
0.152765
0.0962112
-0.151416
0.196803
0.0809859
0.226223
0.223286
0.212603
0.178115
0.216716
0.182635
0.218267
0.21322
0.198599
0.119344
0.199179
0.139489
-0.109342
0.202014
0.053247
0.0139122
0.119225
0.209686
0.221532
0.184595
0.151456
0.122849
0.143881
0.219554
0.198138
0.0502848
0.179746
-0.0777843
0.0889398
0.201885
-0.061488
0.0918148
0.203128
0.204746
0.107
0.205732
0.230442
0.190829
0.176314
0.147053
0.204125
0.0103449
0.119214
0.16249
0.219945
0.208692
0.0620774
0.173988
0.215523
0.199734
0.14268
0.175029
0.166918
0.224812
0.224825
0.201412
0.17181
0.205005
0.00341939
0.138433
0.185467
0.0849215
0.206762
0.225677
0.208029
0.185074
0.164888
0.194042
-0.00422377
0.215979
0.170072
0.21323
0.200596
0.182909
0.226254
0.128918
0.162604
0.220423
0.131483
0.195069
-0.0687745
0.138299
0.194114
-0.0620673
0.206535
0.0566503
0.175302
0.167335
0.171897
0.223289
0.193578
-0.0883886
0.120698
0.21156
0.069839
0.165181
0.200822
-0.140124
0.042415
0.0623137
-0.159853
0.196912
0.19908
0.0204911
0.172625
0.204903
-0.0246986
0.119904
0.157889
0.161865
0.200329
0.0111019
0.202742
0.0283035
0.158163
0.076217
0.213252
0.223945
0.131536
0.137812
0.225812
0.214537
0.185329
0.160083
0.0899592
0.216709
0.217646
0.161759
0.0979404
0.178773
0.195194
0.0201154
0.216973
0.110305
0.19813
0.218273
0.137616
0.196144
0.174309
0.121666
0.21852
0.171003
0.116333
0.218961
0.226033
0.202455
0.192662
0.215882
0.131335
0.211723
0.212937
0.0314778
0.115127
0.0840077
0.204573
-0.0596121
0.0748916
0.205303
-0.0573387
0.222063
0.206115
0.165104
-0.0899735
0.201856
0.0760118
0.182097
0.205846
0.0667688
0.202808
-0.0847866
0.0635457
0.217545
0.222162
0.195395
0.204503
0.150557
0.217079
0.173404
0.165814
0.224769
0.208269
-0.0118454
0.102007
0.116141
0.163685
0.220151
0.194799
0.159039
-0.0120745
0.196355
0.142639
0.218579
0.225844
0.217585
0.188903
-0.0106347
0.109778
0.207814
0.209927
0.0594867
0.166106
0.127
0.119326
0.197595
0.197567
-0.0612548
-0.0744862
0.188526
0.164011
0.224647
0.134318
0.17558
0.217384
0.202337
0.188794
0.22649
-0.0399032
0.0919007
-0.0352176
0.205896
0.091126
0.206279
0.188143
0.112296
0.216662
0.11073
0.102224
-0.0194418
-0.0329257
0.206857
0.205704
0.170935
0.144907
0.224665
0.197351
0.161638
0.219741
0.145136
0.195852
-0.0397287
0.197627
0.152777
0.22229
0.204968
0.175126
0.222191
0.130445
0.195639
-0.05506
0.201774
0.124246
0.211374
0.152689
0.138973
0.222134
0.219102
0.130941
0.195234
0.0874778
0.216356
0.130693
0.199465
-0.171791
0.0400499
0.19338
0.149617
0.218644
0.149426
0.197954
-0.0173824
0.182643
0.126136
0.221623
0.0811124
0.195203
-0.132291
0.227621
0.225155
0.190748
0.18636
0.192054
0.184551
0.205418
0.188567
0.225677
0.223914
0.227405
0.198968
0.18891
0.207879
0.185136
0.196662
0.166605
0.225191
0.198874
0.168749
0.225611
0.206041
-0.0496686
0.0773581
0.220585
0.162342
0.202951
0.119732
-0.0124356
0.206366
0.17546
0.171819
0.110221
0.0959568
0.21508
0.213162
0.216715
0.175811
0.208348
0.208919
0.1196
0.20016
0.185029
0.127025
0.219262
0.222565
0.202988
0.213006
0.167067
0.0984203
0.216625
0.223468
0.208281
0.191007
0.179813
0.141333
0.222976
0.206754
0.128892
0.20133
0.222167
0.223369
0.197448
0.218108
0.199073
0.21382
0.225127
0.198148
0.228775
0.19696
0.214258
0.189094
0.216517
0.214628
0.155916
0.152409
0.211366
0.208441
0.200025
0.0471201
0.177762
0.221721
0.145778
0.158888
0.202579
0.20409
0.0343501
0.0396994
0.170811
0.1681
0.22421
0.184869
0.147933
0.220168
0.217736
0.209148
0.167814
0.0883691
0.214904
0.225576
0.20852
0.170929
0.204868
0.123224
0.202687
0.188805
0.188673
0.063061
0.202288
0.0702935
0.203285
0.181763
0.104812
0.213422
0.0895508
-0.119778
0.195979
0.178626
0.135812
0.221148
0.218874
0.220226
0.185351
0.129061
0.193648
0.135901
0.155536
0.10578
0.218627
0.210131
0.128988
0.202154
0.224962
0.18291
0.142056
0.2171
0.2218
0.190219
0.203022
0.152327
0.145516
0.217989
0.196152
0.140175
0.181086
0.112417
0.216315
0.224321
0.208522
0.194942
0.137323
0.199004
-0.0340093
0.224738
0.185526
0.13464
0.207725
0.202882
0.122645
0.114912
0.202746
0.208403
0.199006
-0.0177667
0.145182
0.145398
0.197348
-0.032493
0.137971
0.197123
-0.0420228
0.183172
0.203415
0.0619242
0.21201
0.13868
0.20413
0.00571801
0.010405
0.137994
0.00848174
0.0889023
-0.0556685
0.046593
0.034311
-0.0572266
0.0796768
0.0772413
-0.0775112
-0.00374339
0.0786943
-0.021026
-0.0140682
0.0137418
-0.0230384
0.00246411
0.0499205
0.00143812
-0.0239824
0.0920506
0.19157
0.146603
0.0164223
0.0991203
-0.0796394
0.0187392
-0.00778951
-0.0738708
0.0412388
0.00162855
-0.00957701
-0.0656621
0.00976717
0.129554
0.0893876
0.0148991
0.063788
-0.0353128
0.192569
-0.0526036
0.0777688
0.124965
-0.0432135
-0.0367125
-0.0552431
-0.0743086
-0.0563831
0.151583
0.00259318
-0.0121414
-0.0486032
-0.0715812
0.14606
0.0514305
0.00532137
-0.0600122
0.0715931
-0.0593726
-0.0485231
0.147517
0.0423414
0.00258468
0.0535618
0.0134646
0.179069
0.090873
0.103936
-0.105562
-0.0816983
-0.011725
0.0639871
-0.089094
-0.010768
0.0248119
-0.0712711
0.0669571
0.113978
-0.019657
-0.00641528
-0.0683878
-0.0282434
-0.0497069
0.0740365
-0.0482907
0.00643897
-0.0239376
0.15395
-0.0193855
0.0697811
0.14538
-0.00741527
-0.00777332
-0.0950252
-0.0556117
-0.053784
-0.00771895
-0.108356
0.0391171
0.0955406
0.133253
0.181568
-0.0220052
0.00390321
-0.0772217
-0.0107937
-0.0546411
0.127337
0.100075
0.0490604
-0.0509139
-0.0893614
0.0687252
0.113011
-0.0316548
0.00595257
-0.104758
-0.0269996
-0.0138701
0.16425
0.174324
0.0667459
0.0163636
-0.00357124
-0.0770333
0.168055
-0.00876424
0.0614394
-0.111189
0.149974
-0.066533
-0.0183124
-0.00222525
0.112406
-0.0179437
-0.12568
-0.045676
0.0469329
-0.0158864
0.0758077
0.0668584
-0.0234804
0.121196
-0.0472489
-0.0340104
0.121355
-0.0462281
-0.0255378
-0.0761128
0.0299557
0.0124959
0.115305
0.0696348
-0.0380869
0.0637158
0.0777438
0.135442
0.0256063
-0.0112434
-0.0246574
0.0916222
-0.00710413
0.065105
-0.0725964
0.188017
-0.0265087
0.124765
0.166521
0.0070372
0.172055
0.11937
0.133467
-0.0458636
-0.113051
-0.0779091
0.138736
-0.0523962
-0.05953
-0.00869094
-0.0574075
-0.0242277
-0.0420277
0.0123747
0.166572
0.0678015
-0.0369107
0.0709672
-0.0503135
0.189856
-0.0317034
0.117232
-0.0287189
-0.120275
0.154944
0.171613
-0.0324066
-0.0515025
0.186683
0.021025
0.0195913
-0.0542202
0.0645316
0.126173
0.0869128
-0.0312223
-0.0607357
0.0993407
0.0235325
-0.0713093
0.0743497
-0.0132801
-0.0693244
-0.00562347
0.121458
-0.101181
0.0289203
0.0960876
-0.0522571
-0.108778
-0.0361968
-0.0113262
0.00690974
0.032093
0.039863
-0.0243583
-0.0647345
-0.00765256
0.0522388
0.0872579
-0.0414719
0.0423077
-0.0448296
-0.0516384
0.0224644
-0.0330664
-0.118312
0.0938402
0.120381
0.0101301
0.158348
0.128503
0.192421
-0.0103077
-0.130547
-0.0217441
-0.0392444
0.00751021
-0.0963929
0.0285723
0.150586
0.0625119
0.0193778
-0.0352415
-0.0363888
0.100142
-1.39027e-05
0.0683537
-0.044691
-0.0150997
-0.0402715
-0.0195468
-0.0305923
-0.0271985
-0.0178612
-0.0694707
0.0426465
0.016871
-0.038347
0.0484737
0.0040018
-0.0264582
-0.0604291
-0.0361203
-0.060565
-0.0519419
0.0163842
-0.0935602
-0.13512
-0.00532284
-0.0819507
-0.103613
0.0185437
-0.0304737
-0.100139
0.116635
0.0459258
-0.0397341
0.098932
-0.068753
0.0402856
0.0752066
-0.0100423
-0.00563984
0.108645
-0.0212857
0.0852774
-0.0627004
-0.0324339
0.119707
-0.0426096
-0.00462873
-0.148643
-0.0954155
-0.121357
-0.0861983
-0.0508772
0.0479287
-0.0598194
-0.109827
-0.065138
-0.0347769
0.191182
0.00237529
0.0625813
0.037287
-0.0211305
0.0139676
-0.0328966
-0.0780598
0.0339588
-0.0366096
0.149801
0.0801844
-0.0251285
-0.0357814
0.00442109
0.191613
0.0938833
0.130631
0.0705594
-0.0268828
0.00907058
-0.0289026
-0.0687281
-0.0909052
-0.0520098
0.0191469
0.0693112
-0.063574
-0.0922345
-0.00786626
0.0189214
-0.0108726
0.0150484
0.103596
0.00285347
-0.0223824
0.145462
0.119243
-0.0317046
0.0558994
0.126968
-0.0849686
-0.0335575
-0.029009
-0.059199
-0.0701648
0.124233
-0.0702357
-0.000110795
0.141253
-0.117259
0.0189083
-0.0286051
0.00785127
-0.0314273
-0.0461138
-0.094872
0.0206088
-0.0887827
-0.0695217
-0.040472
-0.0441172
0.0810906
0.147876
-0.00973249
0.0440732
0.026098
0.00104558
-0.124102
0.0988365
0.0628314
-0.0661002
-0.0992685
0.0338799
-0.0787978
0.00858025
-0.0197319
-0.0443656
0.113055
0.143631
-0.0292991
0.086307
0.181861
0.104469
0.116441
0.134959
0.0163531
-0.0276539
-0.0675555
0.18897
0.107368
0.123466
-0.0579335
-0.0494041
-0.112779
0.0925289
0.00711602
-0.000550896
0.125844
0.0697611
-0.00507683
0.0198297
-0.0305581
-0.0094866
-0.0336787
-0.0377047
-0.0358779
-0.0475269
-0.015726
-0.0920752
0.0126843
-0.0563628
0.0735354
0.0477019
-0.102578
0.129585
0.141866
0.0684283
-0.0532883
0.0213745
-0.0303139
0.0789693
8.93327e-05
-0.078348
0.125702
-0.0479001
0.151945
-0.0989054
-0.0259932
0.00737351
0.0666195
0.102431
-0.00786117
0.166845
-0.00485359
0.105493
-0.0259217
0.0791794
-0.0253152
-0.00405329
-0.0429943
0.110799
0.013082
0.185956
0.0543196
-0.0924614
0.0028698
0.0394608
-0.0385305
-0.0519339
-0.0234195
-0.0507496
0.154126
-0.00627056
-0.0155886
0.0877628
-0.0564614
0.149454
0.178901
-0.0456062
0.186732
0.159733
0.109091
0.125799
0.0229211
-0.0755549
-0.0574498
-0.030562
0.096985
-0.0122386
-0.0457391
0.164805
-0.0648017
-0.0341621
-0.0612001
0.134225
0.190205
-0.0629398
0.103713
0.0452242
0.14728
0.0248147
0.074313
-0.043918
0.167362
0.183213
0.0576434
-0.0538092
0.102011
0.00580932
0.0568407
0.00501721
0.00363989
0.0417616
0.0116521
-0.0455003
-0.0666224
0.0069544
0.0509109
0.0324643
0.119718
-0.0676684
0.00515155
0.0625258
-0.0617969
0.140322
-0.00830032
-0.0446601
0.14247
0.11261
0.0381684
0.172818
-0.0187581
-0.051793
0.0774833
0.0372202
0.0456207
-0.0275614
-0.0401841
0.0404914
0.0581153
-0.0389904
-0.0250947
0.0296494
-0.0995698
-0.0507894
0.149307
0.179261
0.184311
0.0335951
0.187934
0.188231
0.158526
-0.128371
0.0341175
0.0355948
0.172024
-0.0470393
-0.00478926
-0.0762736
-0.0542029
-0.0560347
0.164986
-0.0233847
-0.0157769
0.0772358
0.0570697
-0.0387466
-0.0444918
0.18716
0.164197
0.130647
0.0690299
-0.0632048
0.0871879
0.0467205
-0.0498056
0.0141729
-0.0881817
-0.0630009
0.0291061
-0.0126863
-0.0188726
0.150902
0.149317
-0.121588
0.11137
-0.0225078
-0.0252694
0.000642603
0.146921
-0.0201096
0.0684382
-0.0254613
0.133257
-0.044451
-0.0231002
0.181365
-0.111696
-0.102023
-0.0205526
-0.0443622
-0.133364
-0.101059
-0.0395562
-0.131886
-0.00654747
-0.117849
-0.077923
-0.0125861
-0.0745345
-0.0374267
-0.0137678
-0.0953152
-0.0942075
0.160858
0.126345
-0.0442651
-0.0808442
0.131155
-0.0594659
-0.00431871
0.180373
-0.0332084
0.178971
-0.00599495
0.117647
0.0356693
-0.0254978
-0.082032
0.0339449
0.0306526
-0.00689246
-0.0268925
-0.0418225
-0.0838553
-0.0434323
0.00227942
-0.111603
-0.0914803
0.161656
-0.0109163
0.0590613
0.0841479
-0.0486476
0.114185
0.0859369
-0.0749979
-0.0969901
-0.0233079
-0.0913448
-0.130557
0.0639522
0.0686372
-0.0437658
0.0445835
-0.0326234
0.181269
0.157267
-0.030179
-0.0373075
0.169855
0.122377
0.0343078
0.0407578
-0.0478313
0.185023
0.0438457
-0.12148
0.136052
0.103388
0.149925
0.0231982
-0.0608786
-0.00286569
0.0703737
0.0361435
-0.123398
0.194549
-0.0234526
-0.0273837
-0.000125049
0.136326
0.178412
0.182431
0.0476326
0.026438
0.0929504
0.124435
0.14642
0.0601613
0.0982408
-0.0144596
-0.0184573
0.0430856
-0.0660017
-0.0145474
-0.10215
-0.0252752
0.0862151
-0.0973952
0.0171618
-0.00137196
0.120875
0.181809
-0.0255468
-0.0850608
-0.109203
0.102476
-0.0536814
-0.0512875
-0.107018
0.149862
0.0196081
0.0241169
-0.082677
0.0288151
-0.0498345
-0.0279345
0.0822916
0.0831001
0.152443
0.187048
-0.0364301
0.129935
-0.120971
0.136309
0.150083
0.150207
0.0916155
-0.0506194
-0.0496925
-0.042058
-0.119446
0.0423773
-0.11453
0.0645611
-0.0782077
0.128767
-0.0479553
-0.11158
0.112942
0.104019
-0.0102545
-0.0100196
0.0568344
0.14824
0.0177723
0.00430687
-0.115915
0.103052
0.0561833
0.164949
-0.129994
-0.0130473
0.137397
0.0689363
0.173221
0.0739322
-0.0394048
-0.143522
-0.120877
-0.0121561
-0.101163
0.161679
-0.115038
0.0131008
-0.00768913
-0.0688444
0.115416
-0.13042
0.146235
0.0716452
0.027807
-0.041339
0.076836
-0.000145419
0.0220905
-0.0178845
-0.00575866
-0.0516783
-0.0641385
0.0878502
-0.049199
0.185796
-0.057914
0.0416831
0.0512055
0.0966353
0.163073
-0.0517661
-0.0383272
-0.0350146
0.0245703
-0.0633782
0.157727
-0.0541403
0.0101931
-0.050684
0.108007
-0.078858
0.0220187
-0.0892912
0.18361
-0.121138
-0.049718
0.0160357
0.118279
-0.10821
-0.101142
-0.0562114
-0.0917374
0.146835
0.00997631
0.0701391
0.11764
0.0594133
0.0528821
0.182794
0.0479603
0.0994806
0.0487025
0.0405873
-0.10001
0.0402677
-0.0235902
0.00220055
0.0505009
-0.0126554
-0.0942589
0.00250542
0.0227525
-0.0583795
0.101039
0.0352787
0.0904637
-0.024955
0.159199
-0.00387136
0.0261708
0.0528443
-0.0957807
-0.0566937
-0.0512974
0.0328017
0.0253345
0.0377156
0.140985
0.0959053
0.0958344
0.0089118
0.130752
0.165694
0.162073
0.0605311
0.0349822
0.0435737
-0.0696877
0.174674
0.121273
0.10771
-0.0108664
-0.0532992
-0.0982622
0.0417808
0.0680857
-0.0190265
0.10752
0.126065
0.0358219
-0.0133993
0.0563306
-0.00520419
-0.00499225
-0.0099749
-0.0052718
0.0240356
-0.109628
0.027167
0.0321903
-0.0296782
-0.126553
0.028377
0.00265593
0.061952
-0.0347462
0.0176752
0.142855
0.153079
0.0245689
-0.00625516
0.0972815
0.00316798
-0.054595
-0.0606495
-0.0286948
-0.0935304
0.140276
0.00633017
0.0113854
0.0718242
0.0617949
0.0753134
-0.0141251
0.184409
0.0725477
-0.0614011
0.000970659
-0.00473795
0.0968344
0.138279
0.0749251
0.0351584
-0.105897
-0.0672018
-0.0299149
0.0331588
0.00765763
0.0246309
-0.0584467
0.149406
0.0499664
0.114599
0.125757
0.017984
-0.0220846
0.0388418
0.17342
-0.0709033
-0.112915
0.0394452
0.179148
-0.0415271
-0.0303238
0.0895178
0.0681469
0.110807
-0.0114359
-0.107208
0.031671
-0.0973919
-0.0386784
0.109359
-0.0196416
-0.0659716
-0.0240897
-0.0443811
0.0415166
-0.00899248
-0.00606255
0.134808
-0.0644859
0.183261
0.109059
-0.0776486
-0.137014
0.0151939
0.0811316
0.122949
-0.0146803
-0.029823
-0.00178119
-0.039928
0.00762185
0.187631
0.136754
0.0725853
0.00869086
-0.0971969
0.151922
0.187796
0.149316
0.0965634
0.137446
0.0337476
-0.090816
-0.122107
-0.113364
0.162942
0.000338826
-0.00552396
0.00571199
0.185898
-0.0464852
-0.0139939
-0.0864055
-0.0135996
-0.0615824
0.181305
0.0321813
0.086173
0.133905
0.122339
-0.0390912
0.0453396
0.0229988
0.0899652
-0.0785582
0.0414485
-0.0430247
0.15643
-0.0221949
-0.0553051
-0.00713003
-0.0242428
0.141433
-0.0459639
0.107679
0.127423
0.135702
-0.0817928
0.0175112
-0.030274
-0.000866441
0.149569
0.021183
0.0479146
0.0289138
-0.0527863
0.00713603
0.156712
0.0492388
0.151661
-0.118597
-0.0510675
-0.0472238
0.162177
0.00209081
0.0162372
-0.0800581
-0.0104892
0.0154526
0.162246
0.025043
-0.0269166
-0.086576
0.179622
0.176002
-0.0545878
0.154847
-0.0429274
-0.080266
-0.0481473
0.00125301
-0.098523
0.0647311
0.00206787
-0.0488486
-0.018811
0.142718
-0.00956901
0.106217
0.00194156
-0.0573022
-0.0117228
-0.119097
-0.105391
-0.0191816
0.0220442
0.0511094
-0.0666393
-0.0113803
0.130511
0.0513431
-0.0490157
-0.0288249
0.141707
-0.013921
0.00958653
0.193659
0.0365213
-0.0519162
0.0149779
-0.006481
0.168467
-0.00383799
-0.00954781
0.0389604
-0.101017
0.144358
-0.0172991
0.133108
0.0191608
0.0830698
-0.076964
0.115504
-0.0185843
-0.0783787
-0.0626469
0.0209668
0.138272
-0.143462
-0.0182397
-0.0574617
0.162113
0.18362
-0.00496705
-0.0438789
0.063455
0.168076
0.00238118
0.145206
0.122542
0.105671
0.0865389
0.0177651
0.0887016
0.0849689
0.152344
0.0177997
0.0267737
-0.00449432
-0.00788912
0.0255215
-0.0418971
0.168427
-0.00970424
0.146023
0.0141367
0.162024
-0.0574851
0.174927
0.0805032
0.13949
0.163514
0.142633
0.191969
-0.0362468
0.129872
0.0261925
-0.0487138
-0.0177264
-0.0665768
0.151379
-0.0092348
0.0315369
0.0408532
-0.0248319
0.053013
-0.0604959
0.155255
0.000385456
0.101428
-0.124527
-0.0349828
-0.0440109
0.182012
-0.000410742
0.0535103
-0.00597728
-0.0410808
-0.0674826
-0.0155028
-0.0495565
0.101081
0.156629
-0.0893372
0.0265012
-0.0448384
-0.0538127
0.112312
-0.0075328
-0.00779982
0.167501
-0.109748
0.0448116
0.0689802
0.138858
0.180803
-0.00635596
-0.0330846
-0.08515
-0.00682038
-0.00257326
-0.0453937
0.108361
-0.0444111
-0.075759
-0.0276251
0.0194011
-0.0169756
0.003825
-0.0582433
0.0120355
-0.0869616
0.0925384
0.0823261
0.00581259
0.0977218
-0.0191779
-0.105794
-0.0038233
-0.113412
0.171974
-0.0371502
-0.0491822
-0.056975
0.128359
0.151307
0.012981
0.0964067
0.000656888
-0.0667488
0.0306721
-0.0454381
-0.0201058
0.150989
0.0464417
0.0885932
0.173996
0.10022
0.0359725
0.164162
-0.0915897
0.0153215
0.0114756
0.0384822
0.0268585
0.160934
-0.0481301
0.0336719
-0.00327638
-0.0124861
-0.0431031
-0.0295369
0.0813179
0.114404
0.131853
0.0272856
0.0275032
0.161745
0.117429
-0.0219223
0.0545602
-0.0793836
-0.0398561
0.104849
-0.0906092
0.124469
-0.0535422
0.132747
0.185199
0.15514
-0.062017
0.13887
0.122962
-0.0267139
0.160881
0.00785147
0.159894
0.100538
-0.0467622
-0.081684
0.057421
-0.035571
0.0249147
-0.00296387
0.123436
0.00695053
0.165722
-0.0566755
-0.0118536
-0.00191992
-0.0532711
-0.0499902
0.115949
0.180181
-0.060101
0.110415
0.00414954
0.0340064
-6.3529e-05
0.0651013
0.146041
0.10468
-0.0525271
0.139334
0.112266
0.178607
-0.0550178
-0.0704544
-0.00495448
0.0925626
0.170667
0.117125
-0.00774443
0.174896
0.0132775
-0.0862816
-0.0821221
-0.140595
0.0278517
-0.0767007
0.177026
0.184023
0.0266836
0.1906
0.106983
0.0083222
0.171359
-0.0828866
0.160157
-0.0413454
0.151253
-0.0167992
-0.0483268
0.0914947
0.0210031
0.159948
0.144145
0.148632
-0.0337394
-0.0341038
-0.10019
0.133354
0.102945
-0.00301666
0.0390095
0.104357
-0.118099
-0.0476629
-0.0402647
-0.0484762
0.0330234
-0.0511065
0.0115157
0.106956
0.00940646
0.0216613
0.0847719
-0.0292033
-0.000167538
0.0315728
0.0093252
-0.0309877
0.130322
0.156315
-0.00375921
0.100556
-0.122336
-0.0431075
0.134052
0.0927238
-0.0600289
0.153239
-0.0721763
0.0822532
0.0055207
0.0214098
0.136836
-0.0156244
0.09211
0.101383
0.065594
0.190995
0.0682145
-0.0879903
0.0447341
0.030597
0.0918038
0.185998
0.0688149
0.0191329
-0.0198561
0.023163
0.138302
-0.0671356
0.132013
-0.0268517
0.0577863
0.0998658
0.0837575
-0.00319102
0.135646
0.174487
-0.00193061
-0.0252199
0.0178829
-0.0379811
-0.0866939
0.0140759
0.100069
-0.0680407
-0.0898823
-0.000818258
-0.0824704
0.079027
0.015473
0.0945431
-0.0138653
0.150135
0.0103644
0.12132
0.176542
-0.0572484
0.143575
0.00826371
0.0172057
0.0407128
0.13615
-0.00916476
-0.00788147
0.043069
-0.0464466
-0.0236751
-0.0519796
-0.0694432
-0.121875
0.172739
0.182682
-0.0733413
-0.0094646
0.088217
-0.09622
-0.00668396
-0.0426633
0.0706657
0.0857978
-0.102405
-0.124753
0.143729
-0.00452836
0.041072
-0.00786512
-0.0892658
-0.0824342
0.0659934
0.121505
0.0474267
-0.105073
0.152343
0.120112
-0.0454837
0.0339911
-0.0473858
0.175103
-0.0366638
0.00778923
-0.0712481
0.0572012
0.156911
0.0396593
0.0649874
-0.0277574
0.0213612
0.0521356
0.171876
0.190044
-0.0098158
0.176551
-0.0233105
0.0205252
0.0222648
-0.0215984
-0.0277813
0.134001
0.0255608
0.0324724
-0.0283955
-0.0820848
0.0300175
-0.0460595
0.0725751
0.151411
-0.0486726
-0.0332771
0.0183198
-0.0264572
0.00797167
-0.120887
-0.00764612
0.14048
-0.0345565
-0.0650019
0.0977363
0.0154384
-0.00136113
0.054945
0.119765
-0.0109389
-0.00217024
0.115045
-0.0139833
-0.00759108
0.0259476
0.135501
0.0538749
0.0212673
-0.00436366
-0.0637316
-0.0141449
0.173428
0.11761
0.182952
-0.00295887
0.0659916
-0.0638253
0.00547177
0.122831
-0.0914118
-0.0954374
0.0830803
0.120758
-0.0947251
-0.0118766
-3.89765e-05
-0.00955981
-0.00229917
0.189015
0.0146707
-0.0125385
0.0649565
-0.0192145
0.088375
0.0697237
-0.0707946
-0.00151505
0.102718
0.017672
0.17568
-0.0883251
-0.0487459
0.0725661
0.0496635
-0.0219116
0.0367516
-0.0430946
0.179773
0.158262
0.0734976
0.137712
-0.0548925
0.129187
0.0520591
0.0801712
0.164853
-0.0950087
-0.0220193
0.183791
0.0542478
-0.104818
-0.064407
0.127617
0.180784
0.00154813
0.0889299
-0.00514907
-0.078447
-0.0313211
-0.104287
0.122112
-0.0372016
0.00233322
0.163232
-0.0616507
-0.00789623
-0.0216771
0.0321831
-0.00458087
-0.0594192
-0.0207912
-0.073743
0.0217046
0.103512
0.162285
0.0904854
0.00927609
-0.0274512
-0.108073
-0.0456552
0.0453042
0.0297601
0.0900133
0.0957316
-0.0279379
-0.0128409
0.114602
0.123511
0.18297
0.136097
0.167674
0.0133658
-0.0801745
-0.0381802
-0.0565182
0.172464
0.0222609
-0.0270466
0.163418
-0.0756008
0.10553
0.0834339
-0.0066577
-0.00218608
-0.0201239
-0.0598856
0.121315
-0.0366745
0.0710003
0.0011466
0.159088
0.0302305
0.190195
-0.0498775
7.38844e-05
-0.0710399
-0.126337
-0.0183683
0.0985582
-0.0117827
-0.0623034
0.0204011
0.157858
0.0927316
-0.0551772
-0.0750319
-0.0280132
-0.0820936
-0.00138528
-0.0866326
-0.0232622
-0.0592563
0.0840988
-0.07386
-0.00818172
0.150769
0.0300042
0.0893512
0.114337
-0.0307412
0.00143046
-0.0358557
0.113368
-0.0416202
0.00529415
0.0130889
-0.0664597
-0.0949129
-0.0132204
0.00459924
0.0902579
0.183383
0.128633
0.0237495
0.0751814
-0.0942694
0.176352
0.0496
0.105445
0.00296534
0.083237
-0.0614642
-0.0206821
0.105962
0.15803
0.0969105
0.0251971
-0.0428611
0.188185
0.00865073
0.117968
0.170598
0.0636838
-0.010028
-0.0951226
0.113726
0.0595077
-0.0681018
0.0538194
0.0480548
0.155158
-0.0360573
0.164285
0.184351
-0.0246663
-0.0471974
0.168686
-0.0690858
-0.063695
-0.0157739
-0.0602213
-0.00920074
-0.0559649
-0.084522
-0.00197937
-0.00321082
-0.0303009
-0.0467948
0.0287798
-0.0756236
-0.0493271
0.0488573
0.00236635
-0.091003
0.151569
0.180477
0.170961
-0.0101942
-0.103157
0.192784
-0.0761859
-0.000895436
-0.00274152
-0.0496056
0.00424568
0.0819795
-0.0401931
-0.0566423
-0.0919303
-0.0904004
-0.0706085
-0.0458438
-0.106927
-0.00603259
0.0168742
-0.014129
0.160221
0.0239102
0.0755438
0.0104427
0.116696
-0.0534314
-0.0427173
0.19145
-0.00103005
0.0565398
-0.0770953
0.063949
0.183078
-0.0389201
0.060023
0.0566074
-0.0681114
-0.0103352
-0.0664004
-0.0485555
0.0863602
-0.0616173
-0.00512037
-0.0556137
-0.0241393
-0.0277864
-0.0643953
0.000936457
-0.0413373
-0.0567337
0.178706
-0.00457192
0.00186236
0.0216948
0.156237
-0.0369062
-0.08815
0.11158
-0.0682458
-0.0236178
-0.00154054
0.0351525
-0.0621873
0.0279659
0.0397428
0.179598
0.126895
-0.0828697
-0.0536578
-0.0941862
-0.00274105
-0.10662
-0.0453698
0.000888889
-0.0449453
-0.000179538
0.0481781
0.190911
-0.0309661
0.0785651
0.023788
0.173011
-0.049654
0.183534
0.0411731
-0.0736723
0.0523267
0.0852179
-0.0498205
0.13078
-0.000849102
0.133196
-0.0495631
-0.0652194
-0.012279
0.189918
0.176865
0.0865467
0.0574165
0.0812164
-0.104167
-0.0663
0.0899002
0.190252
-0.0525554
0.0229379
0.00190155
-0.0541617
-0.0185044
-0.0250927
-0.0602449
-0.0361465
-0.0549117
-0.00871409
-0.0451201
-0.00776391
0.189487
0.120786
-0.10925
0.100436
-0.0362324
-0.0711493
0.108495
-0.0599608
-0.0254243
0.077412
-0.0418474
-0.0435231
-0.000555088
0.127319
-0.0640197
-0.0446813
-0.0345216
0.0441442
-0.0562857
0.156789
-0.10054
-0.0496822
-0.0352158
-0.0559745
0.0636223
0.0462135
0.158302
-0.00681955
0.1004
0.0170295
0.0421426
-0.0137043
0.0676929
-0.068583
-0.0639336
-0.125475
0.0606555
-0.0162956
-0.0365159
0.143372
0.0119455
0.0662414
0.0641746
-0.0382352
-0.0550517
-0.037682
0.0500885
-0.00718936
0.188915
-0.0772055
-0.103235
-0.00709525
-0.0564047
-0.0092166
0.00405655
0.0862336
-0.0231653
-0.00911835
-0.0628783
0.00195555
-0.0132192
-0.0190092
0.186507
0.171033
-0.0551674
-0.0303052
0.120298
0.0483453
-0.0232933
-0.0720314
-0.0136988
-0.0718701
0.0152507
0.148848
-0.0223053
-0.0980028
0.0466795
0.00138455
-0.0990698
-0.0612001
0.00735259
0.0724752
0.187803
-0.0679701
-0.0918178
0.0279127
0.121366
-0.0359653
0.0307809
-0.0381184
-0.00346917
-0.0434497
0.0437724
-0.0198113
-0.00663231
0.102295
-0.0360424
-0.111337
0.0115547
-0.0137019
0.10648
0.190183
-0.00420018
-0.0491836
-0.0450093
-0.044003
-0.063227
-0.0485731
-0.0694598
0.163544
0.114767
0.0709233
0.00144899
-0.0935504
0.0977191
0.176567
-0.0537758
0.00806021
-0.0598511
-0.122644
-0.00241398
-0.0511266
-0.130175
0.00930368
0.0855402
-0.0907162
-0.0982845
-0.0571585
0.128452
-0.095414
0.109136
0.0347393
-0.0250978
-0.045374
-0.0332914
0.106985
-0.112021
-0.045375
-0.0273625
-0.0658945
0.027982
0.0950156
0.0264049
-0.0149901
0.0904241
-0.0644539
-0.0571085
0.144252
-0.00861566
0.140726
0.0291104
-0.0371413
0.0566344
0.128976
0.000462246
-0.0922556
0.155525
-0.0117178
-0.0311732