/*--------------------------------*- C++ -*----------------------------------*\
  =========                 |
  \\      /  F ield         | OpenFOAM: The Open Source CFD Toolbox
   \\    /   O peration     | Website:  https://openfoam.org
    \\  /    A nd           | Version:  6
     \\/     M anipulation  |
\*---------------------------------------------------------------------------*/
FoamFile
{
    version     2.0;
    format      ascii;
    class       volScalarField;
    location    "./ITHACAoutput/Offline/1";
    object      P_rec;
}
// * * * * * * * * * * * * * * * * * * * * * * * * * * * * * * * * * * * * * //

dimensions      [0 2 -2 0 0 0 0];

internalField   nonuniform List<scalar> 
40000
(
0.0078353
0.00783487
0.00783342
0.00783091
0.00782766
0.00782397
0.00782005
0.00781611
0.00781229
0.00780871
0.00780546
0.0078026
0.0078002
0.00779829
0.00779689
0.00779599
0.00779565
0.00779584
0.00779657
0.00779785
0.00779966
0.00780202
0.0078049
0.00780829
0.00781221
0.00781662
0.00782153
0.00782693
0.00783281
0.00783916
0.00784598
0.00785327
0.00786099
0.00786918
0.00787781
0.00788687
0.00789637
0.00790629
0.00791664
0.00792741
0.00793859
0.00795019
0.00796219
0.00797461
0.00798742
0.00800063
0.00801423
0.00802823
0.00804261
0.00805737
0.00807251
0.008088
0.00810388
0.00812011
0.00813668
0.00815361
0.00817086
0.00818844
0.00820635
0.00822454
0.00824305
0.00826183
0.00828089
0.0083002
0.00831977
0.00833956
0.00835956
0.00837978
0.00840017
0.00842073
0.00844143
0.00846228
0.00848322
0.00850427
0.00852538
0.00854656
0.00856777
0.008589
0.00861021
0.00863142
0.00865258
0.00867368
0.0086947
0.00871561
0.00873643
0.00875709
0.00877763
0.008798
0.00881819
0.00883822
0.00885803
0.00887764
0.00889704
0.00891622
0.00893518
0.0089539
0.00897241
0.00899068
0.00900872
0.00902655
0.00904416
0.00906158
0.00907879
0.00909581
0.00911266
0.00912934
0.0091459
0.0091623
0.00917862
0.00919484
0.00921098
0.00922708
0.00924314
0.0092592
0.00927527
0.00929137
0.00930753
0.00932374
0.00934004
0.00935644
0.00937297
0.00938963
0.00940646
0.0094234
0.00944053
0.00945784
0.00947531
0.00949294
0.00951073
0.0095287
0.00954682
0.00956508
0.00958347
0.00960196
0.00962056
0.00963922
0.0096579
0.00967661
0.00969531
0.00971395
0.00973253
0.00975095
0.00976925
0.00978734
0.00980519
0.00982278
0.00984004
0.00985698
0.00987352
0.0098896
0.00990523
0.00992036
0.00993495
0.00994897
0.00996238
0.00997515
0.00998724
0.0099987
0.0100094
0.0100194
0.0100287
0.0100372
0.0100449
0.0100519
0.0100581
0.0100635
0.0100681
0.010072
0.0100751
0.0100774
0.010079
0.0100799
0.0100801
0.0100796
0.0100784
0.0100766
0.0100742
0.0100712
0.0100677
0.0100636
0.0100591
0.0100541
0.0100488
0.010043
0.010037
0.0100307
0.0100243
0.0100176
0.0100109
0.0100043
0.00999766
0.00999127
0.00998517
0.00997954
0.0099745
0.00997024
0.00996694
0.0099648
0.00996395
0.00996401
0.00783575
0.0078353
0.007834
0.00783179
0.0078289
0.00782562
0.00782213
0.00781859
0.00781517
0.00781194
0.00780901
0.00780644
0.00780429
0.00780259
0.00780137
0.00780064
0.00780043
0.00780072
0.00780154
0.00780288
0.00780474
0.00780712
0.00781003
0.00781341
0.00781731
0.0078217
0.00782659
0.00783194
0.00783778
0.00784407
0.00785083
0.00785803
0.0078657
0.0078738
0.00788235
0.00789132
0.00790073
0.00791054
0.0079208
0.00793148
0.00794255
0.00795404
0.00796595
0.00797824
0.00799094
0.00800403
0.00801751
0.00803139
0.00804565
0.00806028
0.0080753
0.00809068
0.00810642
0.00812252
0.00813896
0.00815575
0.00817289
0.00819034
0.0082081
0.00822618
0.00824456
0.00826321
0.00828215
0.00830134
0.00832077
0.00834045
0.00836033
0.00838042
0.00840071
0.00842116
0.00844176
0.0084625
0.00848335
0.00850432
0.00852536
0.00854646
0.00856759
0.00858874
0.00860991
0.00863106
0.00865217
0.00867323
0.0086942
0.0087151
0.0087359
0.00875656
0.00877709
0.00879746
0.00881768
0.0088377
0.00885755
0.00887719
0.00889662
0.00891586
0.00893486
0.00895365
0.0089722
0.00899055
0.00900868
0.00902658
0.00904428
0.00906176
0.00907907
0.00909618
0.00911312
0.0091299
0.00914652
0.00916305
0.00917943
0.00919574
0.00921196
0.00922814
0.00924427
0.00926041
0.00927652
0.00929268
0.00930887
0.00932515
0.00934148
0.00935789
0.00937442
0.00939108
0.00940788
0.00942482
0.00944191
0.00945916
0.00947657
0.00949413
0.00951184
0.00952971
0.00954772
0.00956584
0.00958411
0.00960246
0.00962087
0.00963935
0.00965787
0.00967638
0.00969488
0.00971329
0.00973164
0.00974986
0.00976789
0.00978574
0.00980335
0.00982067
0.0098377
0.00985436
0.00987063
0.00988646
0.00990184
0.00991672
0.00993103
0.00994482
0.00995798
0.00997051
0.00998241
0.00999361
0.0100041
0.0100139
0.010023
0.0100313
0.0100389
0.0100457
0.0100518
0.0100571
0.0100616
0.0100654
0.0100685
0.0100708
0.0100724
0.0100732
0.0100734
0.0100729
0.0100718
0.0100701
0.0100678
0.0100649
0.0100615
0.0100576
0.0100533
0.0100486
0.0100434
0.010038
0.0100322
0.0100262
0.0100201
0.0100139
0.0100075
0.0100013
0.0099951
0.00998914
0.0099835
0.00997828
0.00997365
0.00996974
0.00996673
0.00996476
0.009964
0.00996405
0.00783719
0.00783661
0.0078353
0.00783328
0.00783074
0.00782787
0.00782482
0.00782174
0.00781875
0.00781592
0.00781338
0.00781114
0.00780929
0.00780785
0.00780685
0.00780632
0.00780626
0.00780669
0.00780761
0.00780905
0.00781097
0.00781339
0.0078163
0.0078197
0.00782359
0.00782796
0.0078328
0.00783811
0.00784388
0.0078501
0.00785679
0.00786391
0.00787148
0.00787948
0.00788793
0.00789679
0.00790608
0.0079158
0.00792591
0.00793646
0.0079474
0.00795875
0.0079705
0.00798268
0.00799523
0.00800817
0.00802151
0.00803524
0.00804933
0.00806381
0.00807866
0.00809388
0.00810947
0.00812541
0.00814169
0.00815832
0.00817529
0.00819258
0.00821018
0.0082281
0.00824632
0.00826482
0.0082836
0.00830265
0.00832193
0.00834146
0.00836121
0.00838117
0.00840131
0.00842164
0.00844211
0.00846274
0.00848349
0.00850434
0.00852529
0.00854629
0.00856733
0.00858843
0.00860953
0.00863062
0.00865167
0.00867268
0.00869365
0.00871451
0.0087353
0.00875596
0.00877649
0.00879689
0.00881712
0.00883718
0.00885706
0.00887675
0.00889624
0.00891554
0.0089346
0.00895347
0.00897212
0.00899055
0.00900876
0.00902677
0.00904456
0.00906216
0.00907956
0.00909677
0.00911382
0.00913072
0.00914747
0.00916406
0.00918057
0.00919696
0.00921329
0.00922954
0.00924577
0.00926198
0.00927817
0.00929437
0.00931062
0.00932691
0.00934326
0.00935971
0.00937625
0.0093929
0.00940968
0.0094266
0.00944363
0.00946081
0.00947815
0.00949561
0.00951322
0.00953096
0.00954884
0.00956681
0.00958489
0.00960307
0.00962129
0.00963955
0.00965785
0.00967612
0.00969436
0.00971254
0.0097306
0.00974854
0.00976631
0.00978385
0.00980116
0.00981818
0.00983488
0.00985125
0.0098672
0.00988272
0.00989779
0.00991235
0.00992637
0.00993984
0.00995271
0.00996497
0.00997655
0.00998751
0.00999778
0.0100073
0.0100162
0.0100243
0.0100316
0.0100383
0.0100442
0.0100493
0.0100537
0.0100574
0.0100604
0.0100626
0.0100642
0.010065
0.0100652
0.0100648
0.0100637
0.0100621
0.0100599
0.0100571
0.0100539
0.0100502
0.0100461
0.0100416
0.0100367
0.0100316
0.0100262
0.0100206
0.0100148
0.010009
0.0100031
0.00999735
0.00999168
0.00998621
0.00998105
0.00997632
0.00997213
0.00996859
0.00996584
0.00996401
0.00996322
0.0099632
0.00783971
0.00783883
0.00783732
0.00783528
0.00783288
0.00783023
0.00782746
0.00782467
0.00782198
0.00781947
0.0078172
0.00781523
0.00781363
0.00781239
0.00781161
0.00781123
0.00781131
0.00781186
0.0078129
0.0078144
0.00781638
0.00781884
0.00782178
0.00782518
0.00782907
0.00783343
0.00783823
0.00784349
0.00784922
0.00785539
0.007862
0.00786905
0.00787654
0.00788446
0.0078928
0.00790157
0.00791074
0.00792034
0.00793036
0.00794077
0.0079516
0.00796282
0.00797445
0.00798649
0.0079989
0.00801171
0.00802491
0.00803848
0.00805245
0.00806679
0.00808148
0.00809657
0.008112
0.00812779
0.00814393
0.00816041
0.00817724
0.00819439
0.00821185
0.00822963
0.0082477
0.00826608
0.00828472
0.00830363
0.00832279
0.0083422
0.00836182
0.00838167
0.00840171
0.00842195
0.00844233
0.00846286
0.00848352
0.00850429
0.00852516
0.0085461
0.0085671
0.00858814
0.00860919
0.00863025
0.00865128
0.0086723
0.00869323
0.0087141
0.00873488
0.00875556
0.00877612
0.00879653
0.00881681
0.00883692
0.00885683
0.00887658
0.00889614
0.0089155
0.00893464
0.00895359
0.0089723
0.00899082
0.00900912
0.00902721
0.0090451
0.0090628
0.00908028
0.00909759
0.00911473
0.0091317
0.00914855
0.00916523
0.00918179
0.00919826
0.00921468
0.009231
0.00924729
0.00926354
0.00927978
0.00929602
0.0093123
0.0093286
0.00934499
0.00936143
0.00937797
0.00939461
0.00941133
0.00942822
0.0094452
0.00946232
0.00947957
0.00949695
0.00951445
0.0095321
0.00954983
0.00956769
0.00958563
0.00960364
0.0096217
0.0096398
0.00965789
0.00967598
0.00969401
0.00971197
0.00972979
0.00974749
0.00976503
0.00978233
0.0097994
0.00981615
0.00983262
0.00984869
0.0098644
0.00987965
0.00989445
0.00990876
0.00992251
0.00993571
0.00994833
0.00996035
0.0099717
0.0099824
0.00999243
0.0100018
0.0100104
0.0100183
0.0100255
0.010032
0.0100377
0.0100427
0.010047
0.0100505
0.0100534
0.0100556
0.010057
0.0100579
0.010058
0.0100576
0.0100566
0.010055
0.0100529
0.0100502
0.0100471
0.0100436
0.0100396
0.0100353
0.0100307
0.0100258
0.0100207
0.0100153
0.0100099
0.0100044
0.00999889
0.00999347
0.00998814
0.00998305
0.00997825
0.00997386
0.00996994
0.00996663
0.00996398
0.00996214
0.00996128
0.00996106
0.00784297
0.00784172
0.00783984
0.00783767
0.00783526
0.0078327
0.00783008
0.00782749
0.00782502
0.00782272
0.00782069
0.00781894
0.00781753
0.0078165
0.00781585
0.00781564
0.00781585
0.00781652
0.00781764
0.00781921
0.00782125
0.00782375
0.00782672
0.00783014
0.00783402
0.00783836
0.00784313
0.00784837
0.00785405
0.00786016
0.00786672
0.0078737
0.00788109
0.00788893
0.00789718
0.00790584
0.00791493
0.00792442
0.00793433
0.00794463
0.00795534
0.00796644
0.00797794
0.00798985
0.00800214
0.00801482
0.00802788
0.00804132
0.00805515
0.00806934
0.00808392
0.00809885
0.00811415
0.00812981
0.00814582
0.00816216
0.00817884
0.00819587
0.00821321
0.00823085
0.00824881
0.00826705
0.00828557
0.00830437
0.00832343
0.00834273
0.00836226
0.00838201
0.00840197
0.0084221
0.00844241
0.00846287
0.00848346
0.00850418
0.00852501
0.0085459
0.00856687
0.00858788
0.00860892
0.00862997
0.008651
0.008672
0.00869295
0.00871384
0.00873464
0.00875534
0.00877595
0.0087964
0.00881672
0.00883689
0.00885687
0.0088767
0.0088963
0.00891573
0.00893495
0.00895399
0.0089728
0.00899138
0.00900978
0.00902796
0.00904592
0.00906368
0.00908126
0.00909865
0.00911588
0.00913294
0.00914983
0.0091666
0.00918325
0.00919978
0.00921624
0.00923261
0.00924893
0.00926523
0.0092815
0.00929777
0.00931406
0.00933037
0.00934675
0.0093632
0.00937969
0.00939631
0.00941302
0.00942984
0.00944676
0.00946382
0.009481
0.0094983
0.00951571
0.00953325
0.00955089
0.0095686
0.00958642
0.00960427
0.00962219
0.00964012
0.00965805
0.00967597
0.00969381
0.00971159
0.00972924
0.00974672
0.00976405
0.00978113
0.00979798
0.00981455
0.00983074
0.0098466
0.00986207
0.0098771
0.00989167
0.00990572
0.00991924
0.00993224
0.00994461
0.00995638
0.0099675
0.00997801
0.00998782
0.00999694
0.0100054
0.0100131
0.0100201
0.0100264
0.010032
0.0100368
0.010041
0.0100444
0.0100471
0.0100492
0.0100506
0.0100514
0.0100516
0.0100511
0.0100501
0.0100485
0.0100464
0.0100439
0.0100408
0.0100374
0.0100336
0.0100294
0.010025
0.0100202
0.0100153
0.0100103
0.0100051
0.00999986
0.00999461
0.00998947
0.00998444
0.00997962
0.00997508
0.00997091
0.00996717
0.00996392
0.00996132
0.00995939
0.00995827
0.00995779
0.0078467
0.00784502
0.00784272
0.00784032
0.00783781
0.00783523
0.00783268
0.00783021
0.00782788
0.00782575
0.00782388
0.00782231
0.00782107
0.00782019
0.0078197
0.0078196
0.00781994
0.0078207
0.00782191
0.00782356
0.00782565
0.00782819
0.00783118
0.00783461
0.00783849
0.00784282
0.00784758
0.00785278
0.00785842
0.00786448
0.00787098
0.00787789
0.00788523
0.00789297
0.00790114
0.00790971
0.0079187
0.00792809
0.00793789
0.00794809
0.00795867
0.00796967
0.00798104
0.00799282
0.00800499
0.00801752
0.00803046
0.00804378
0.00805748
0.00807154
0.00808599
0.00810079
0.00811597
0.00813148
0.00814737
0.00816359
0.00818015
0.00819705
0.00821426
0.0082318
0.00824964
0.00826778
0.0082862
0.0083049
0.00832387
0.00834308
0.00836253
0.0083822
0.00840208
0.00842216
0.00844241
0.00846282
0.00848337
0.00850406
0.00852484
0.00854573
0.00856667
0.00858769
0.00860873
0.00862978
0.00865082
0.00867184
0.00869281
0.00871375
0.00873461
0.00875536
0.008776
0.00879652
0.00881691
0.00883713
0.0088572
0.00887709
0.00889678
0.0089163
0.00893561
0.00895471
0.0089736
0.00899228
0.00901076
0.00902902
0.00904708
0.00906493
0.00908258
0.00910005
0.00911735
0.00913447
0.00915143
0.00916826
0.00918495
0.00920155
0.00921805
0.00923445
0.0092508
0.00926712
0.0092834
0.00929969
0.00931599
0.0093323
0.00934866
0.00936507
0.00938157
0.00939813
0.0094148
0.00943156
0.00944843
0.00946541
0.00948253
0.00949974
0.00951706
0.00953448
0.00955201
0.00956962
0.00958731
0.00960506
0.00962283
0.00964062
0.00965842
0.00967618
0.00969386
0.00971146
0.00972895
0.00974625
0.00976337
0.0097803
0.00979694
0.00981331
0.00982931
0.00984495
0.00986021
0.00987503
0.00988939
0.00990322
0.00991654
0.00992928
0.00994146
0.00995301
0.00996396
0.00997422
0.00998383
0.00999276
0.010001
0.0100085
0.0100154
0.0100215
0.0100269
0.0100316
0.0100356
0.0100389
0.0100416
0.0100435
0.0100448
0.0100455
0.0100456
0.0100451
0.0100441
0.0100425
0.0100404
0.0100379
0.0100349
0.0100315
0.0100278
0.0100238
0.0100195
0.0100149
0.0100102
0.0100053
0.0100003
0.00999529
0.00999029
0.00998535
0.00998056
0.00997592
0.00997157
0.00996753
0.00996388
0.00996067
0.00995799
0.00995588
0.00995441
0.0099536
0.00785066
0.00784853
0.00784577
0.00784308
0.0078404
0.00783775
0.00783519
0.00783276
0.00783052
0.00782852
0.00782677
0.00782533
0.00782422
0.00782347
0.0078231
0.00782314
0.00782357
0.00782442
0.0078257
0.00782741
0.00782956
0.00783214
0.00783516
0.00783859
0.00784249
0.0078468
0.00785154
0.00785672
0.00786232
0.00786833
0.00787478
0.00788162
0.00788888
0.00789655
0.00790464
0.00791313
0.00792201
0.0079313
0.00794099
0.00795109
0.00796158
0.00797245
0.00798371
0.00799536
0.00800741
0.00801984
0.00803265
0.00804585
0.00805942
0.00807336
0.00808768
0.00810236
0.00811742
0.00813282
0.00814858
0.00816469
0.00818114
0.00819793
0.00821504
0.00823248
0.00825023
0.00826827
0.00828661
0.00830523
0.00832411
0.00834326
0.00836265
0.00838226
0.00840209
0.00842213
0.00844234
0.00846273
0.00848326
0.00850392
0.00852472
0.0085456
0.00856656
0.00858757
0.00860864
0.00862971
0.0086508
0.00867188
0.0086929
0.00871388
0.00873479
0.00875562
0.00877635
0.00879693
0.00881739
0.0088377
0.00885785
0.00887783
0.00889762
0.00891723
0.00893663
0.00895581
0.0089748
0.00899358
0.00901213
0.00903048
0.00904862
0.00906655
0.0090843
0.00910184
0.00911918
0.00913637
0.0091534
0.00917028
0.00918703
0.00920366
0.00922017
0.00923662
0.009253
0.00926932
0.00928562
0.00930189
0.00931818
0.00933447
0.00935081
0.0093672
0.00938364
0.00940016
0.00941678
0.0094335
0.0094503
0.00946721
0.00948423
0.00950135
0.00951861
0.00953593
0.00955335
0.00957087
0.00958843
0.00960605
0.0096237
0.00964137
0.00965902
0.00967663
0.00969418
0.00971162
0.00972894
0.00974612
0.00976306
0.00977982
0.00979627
0.00981246
0.0098283
0.00984377
0.00985882
0.00987346
0.00988763
0.00990127
0.00991438
0.00992693
0.00993892
0.00995027
0.00996101
0.00997108
0.00998049
0.00998923
0.00999729
0.0100046
0.0100113
0.0100172
0.0100225
0.010027
0.0100309
0.0100341
0.0100366
0.0100384
0.0100396
0.0100402
0.0100402
0.0100397
0.0100386
0.010037
0.0100349
0.0100324
0.0100294
0.0100261
0.0100224
0.0100185
0.0100142
0.0100098
0.0100052
0.0100004
0.0099956
0.00999075
0.00998591
0.00998114
0.00997648
0.009972
0.00996776
0.00996376
0.00996013
0.00995686
0.00995406
0.00995174
0.00994989
0.00994867
0.00785466
0.00785209
0.00784884
0.00784583
0.00784296
0.00784019
0.00783757
0.00783514
0.00783293
0.00783099
0.00782934
0.007828
0.00782699
0.00782635
0.00782608
0.0078262
0.00782672
0.00782766
0.00782901
0.00783078
0.00783297
0.00783558
0.00783863
0.00784209
0.00784598
0.00785029
0.00785501
0.00786016
0.00786573
0.00787169
0.00787807
0.00788487
0.00789206
0.00789966
0.00790767
0.00791607
0.00792487
0.00793406
0.00794366
0.00795364
0.00796402
0.00797478
0.00798594
0.0079975
0.00800943
0.00802173
0.00803444
0.00804752
0.00806098
0.00807481
0.008089
0.00810358
0.00811851
0.00813381
0.00814946
0.00816548
0.00818183
0.00819852
0.00821554
0.00823289
0.00825056
0.00826853
0.0082868
0.00830536
0.00832419
0.00834328
0.00836264
0.00838222
0.00840201
0.00842202
0.00844225
0.00846261
0.00848315
0.00850384
0.00852464
0.00854554
0.00856654
0.00858761
0.0086087
0.00862984
0.008651
0.00867213
0.00869324
0.00871429
0.00873528
0.00875619
0.008777
0.00879769
0.00881826
0.00883866
0.00885892
0.00887899
0.00889889
0.00891858
0.0089381
0.00895738
0.00897647
0.00899534
0.00901397
0.00903242
0.00905066
0.00906867
0.00908648
0.00910408
0.0091215
0.00913874
0.00915583
0.00917274
0.00918953
0.0092062
0.00922273
0.0092392
0.00925558
0.0092719
0.0092882
0.00930446
0.00932072
0.00933699
0.00935331
0.00936966
0.00938605
0.00940254
0.00941908
0.00943571
0.00945247
0.0094693
0.00948625
0.00950329
0.00952044
0.00953766
0.00955499
0.00957238
0.00958983
0.00960735
0.00962488
0.00964243
0.00965994
0.00967742
0.00969482
0.00971215
0.00972931
0.00974634
0.00976314
0.00977972
0.00979603
0.00981206
0.00982774
0.00984304
0.00985793
0.00987239
0.00988636
0.00989985
0.00991276
0.00992514
0.00993693
0.00994812
0.00995866
0.00996856
0.00997779
0.00998633
0.0099942
0.0100014
0.0100078
0.0100136
0.0100187
0.0100231
0.0100268
0.0100298
0.0100322
0.0100339
0.010035
0.0100355
0.0100354
0.0100348
0.0100336
0.0100319
0.0100298
0.0100272
0.0100243
0.010021
0.0100173
0.0100134
0.0100092
0.0100049
0.0100003
0.00999568
0.00999095
0.00998621
0.00998148
0.00997681
0.00997225
0.00996785
0.00996365
0.00995971
0.00995604
0.00995266
0.00994968
0.00994707
0.00994479
0.00994321
0.00785853
0.00785555
0.00785183
0.00784849
0.00784537
0.00784244
0.00783974
0.00783728
0.00783507
0.00783317
0.00783157
0.00783029
0.00782937
0.00782881
0.00782862
0.00782882
0.00782942
0.00783042
0.00783184
0.00783365
0.00783589
0.00783853
0.00784159
0.00784507
0.00784897
0.00785326
0.00785798
0.0078631
0.00786861
0.00787455
0.00788089
0.00788762
0.00789475
0.00790229
0.00791021
0.00791854
0.00792725
0.00793636
0.00794587
0.00795575
0.00796602
0.00797669
0.00798774
0.00799919
0.00801101
0.00802322
0.00803581
0.00804878
0.00806213
0.00807586
0.00808996
0.00810442
0.00811927
0.00813446
0.00815003
0.00816594
0.00818222
0.00819883
0.00821579
0.00823307
0.00825067
0.00826859
0.00828681
0.00830532
0.00832413
0.0083432
0.00836252
0.00838209
0.0084019
0.0084219
0.00844214
0.00846254
0.0084831
0.00850382
0.00852466
0.00854563
0.00856669
0.0085878
0.00860899
0.00863021
0.00865145
0.00867268
0.00869389
0.00871504
0.00873614
0.00875715
0.00877808
0.00879887
0.00881955
0.00884009
0.00886044
0.00888065
0.00890066
0.00892047
0.00894009
0.00895949
0.00897869
0.00899766
0.00901639
0.00903493
0.00905324
0.00907133
0.00908922
0.0091069
0.00912438
0.00914169
0.00915881
0.00917576
0.00919257
0.00920926
0.00922583
0.0092423
0.00925868
0.00927501
0.00929128
0.00930753
0.00932375
0.00934
0.00935626
0.00937255
0.00938891
0.00940533
0.0094218
0.00943838
0.00945503
0.00947178
0.00948862
0.00950557
0.00952261
0.00953976
0.00955698
0.00957427
0.00959162
0.00960902
0.00962642
0.00964384
0.00966123
0.00967861
0.00969589
0.00971306
0.0097301
0.00974697
0.00976365
0.00978008
0.00979626
0.00981213
0.00982766
0.0098428
0.00985753
0.00987183
0.00988563
0.00989894
0.00991171
0.0099239
0.00993552
0.00994652
0.00995687
0.00996659
0.00997565
0.00998403
0.00999172
0.0099987
0.010005
0.0100106
0.0100155
0.0100197
0.0100233
0.0100261
0.0100283
0.0100299
0.0100309
0.0100313
0.0100311
0.0100303
0.0100291
0.0100273
0.0100251
0.0100225
0.0100195
0.0100162
0.0100125
0.0100086
0.0100044
0.0100001
0.00999563
0.00999104
0.00998638
0.0099817
0.00997703
0.00997241
0.00996792
0.00996354
0.00995934
0.00995535
0.00995162
0.00994813
0.00994495
0.00994203
0.00993933
0.00993736
0.00786216
0.00785878
0.00785461
0.00785094
0.00784758
0.00784449
0.00784166
0.00783913
0.00783691
0.00783501
0.00783343
0.0078322
0.00783133
0.00783084
0.00783073
0.00783099
0.00783165
0.00783271
0.00783416
0.00783604
0.0078383
0.00784097
0.00784406
0.00784754
0.00785144
0.00785573
0.00786044
0.00786552
0.00787101
0.00787691
0.0078832
0.00788988
0.00789696
0.00790441
0.00791227
0.00792052
0.00792916
0.00793818
0.00794759
0.00795739
0.00796759
0.00797814
0.0079891
0.00800045
0.00801217
0.00802428
0.00803676
0.00804964
0.00806288
0.00807653
0.00809055
0.00810492
0.00811968
0.0081348
0.00815029
0.00816614
0.00818233
0.00819889
0.00821579
0.00823301
0.00825058
0.00826846
0.00828666
0.00830515
0.00832394
0.00834301
0.00836233
0.00838193
0.00840176
0.00842181
0.00844206
0.00846252
0.00848315
0.00850393
0.00852486
0.00854589
0.00856703
0.00858826
0.00860955
0.00863087
0.00865221
0.00867357
0.0086949
0.00871619
0.00873741
0.00875857
0.00877961
0.00880056
0.00882137
0.00884204
0.00886256
0.00888287
0.00890302
0.00892296
0.0089427
0.00896222
0.00898153
0.00900061
0.00901947
0.0090381
0.0090565
0.00907468
0.00909264
0.0091104
0.00912794
0.00914529
0.00916248
0.00917948
0.00919629
0.00921301
0.00922959
0.00924606
0.00926243
0.00927874
0.00929501
0.00931121
0.00932741
0.00934359
0.00935981
0.00937604
0.00939233
0.00940866
0.00942507
0.00944155
0.00945813
0.00947478
0.00949155
0.00950838
0.00952532
0.00954235
0.00955945
0.00957663
0.00959387
0.00961113
0.00962843
0.00964572
0.00966301
0.00968024
0.00969737
0.00971444
0.00973133
0.00974809
0.00976463
0.00978091
0.00979695
0.00981267
0.00982804
0.00984304
0.0098576
0.00987174
0.00988541
0.00989856
0.00991116
0.0099232
0.00993465
0.00994548
0.00995567
0.00996521
0.00997409
0.00998228
0.00998977
0.00999659
0.0100027
0.0100081
0.0100128
0.0100169
0.0100203
0.010023
0.010025
0.0100264
0.0100273
0.0100275
0.0100272
0.0100263
0.0100249
0.0100231
0.0100208
0.0100181
0.0100151
0.0100117
0.010008
0.010004
0.00999988
0.00999555
0.00999107
0.0099865
0.00998187
0.00997721
0.00997257
0.00996797
0.00996347
0.00995911
0.00995488
0.00995083
0.00994697
0.00994331
0.0099399
0.00993669
0.00993359
0.00993126
0.00786543
0.00786168
0.0078571
0.00785311
0.00784951
0.00784623
0.00784327
0.00784067
0.00783839
0.00783647
0.0078349
0.00783371
0.00783288
0.00783243
0.00783235
0.00783268
0.00783339
0.00783449
0.00783601
0.00783791
0.0078402
0.0078429
0.00784601
0.0078495
0.00785339
0.00785767
0.00786236
0.00786743
0.00787289
0.00787874
0.00788499
0.00789162
0.00789864
0.00790604
0.00791383
0.00792201
0.00793057
0.00793952
0.00794885
0.00795857
0.00796866
0.00797915
0.00799001
0.00800127
0.0080129
0.00802493
0.00803732
0.00805011
0.00806327
0.00807682
0.00809076
0.00810507
0.00811975
0.0081348
0.00815023
0.00816602
0.00818219
0.0081987
0.00821556
0.00823277
0.00825031
0.00826819
0.00828638
0.00830489
0.00832369
0.00834278
0.00836215
0.00838177
0.00840165
0.00842177
0.00844209
0.00846262
0.00848334
0.00850422
0.00852525
0.0085464
0.00856766
0.00858902
0.00861044
0.00863191
0.0086534
0.0086749
0.00869636
0.00871782
0.0087392
0.00876051
0.00878174
0.00880284
0.0088238
0.00884464
0.00886529
0.00888578
0.00890607
0.00892618
0.00894604
0.00896572
0.00898515
0.00900435
0.00902333
0.00904205
0.00906056
0.00907883
0.00909687
0.0091147
0.00913232
0.00914973
0.00916694
0.00918396
0.00920084
0.00921755
0.00923415
0.00925061
0.00926698
0.00928326
0.00929947
0.00931564
0.00933181
0.00934795
0.00936408
0.00938024
0.00939645
0.0094127
0.009429
0.0094454
0.00946188
0.00947842
0.00949508
0.0095118
0.00952863
0.00954553
0.00956251
0.00957956
0.00959667
0.00961383
0.00963099
0.00964815
0.00966529
0.00968238
0.00969939
0.0097163
0.00973307
0.00974968
0.00976607
0.00978225
0.00979813
0.00981371
0.00982895
0.0098438
0.00985822
0.00987221
0.00988571
0.0098987
0.00991114
0.00992302
0.00993429
0.00994494
0.00995496
0.00996431
0.00997303
0.00998105
0.00998837
0.009995
0.0100009
0.0100062
0.0100107
0.0100146
0.0100178
0.0100203
0.0100222
0.0100235
0.0100241
0.0100242
0.0100237
0.0100227
0.0100212
0.0100193
0.0100169
0.0100141
0.0100109
0.0100075
0.0100037
0.00999971
0.00999552
0.00999114
0.00998664
0.00998204
0.00997738
0.00997272
0.00996807
0.00996347
0.00995895
0.00995454
0.00995023
0.00994611
0.00994213
0.0099383
0.0099347
0.00993118
0.00992766
0.00992502
0.00786826
0.00786418
0.00785922
0.00785493
0.00785108
0.00784761
0.00784453
0.00784183
0.0078395
0.00783754
0.00783597
0.00783479
0.00783397
0.00783355
0.00783352
0.00783388
0.00783464
0.00783579
0.00783732
0.00783926
0.00784158
0.00784431
0.00784743
0.00785093
0.00785482
0.00785909
0.00786376
0.00786881
0.00787425
0.00788007
0.00788627
0.00789285
0.00789981
0.00790716
0.00791488
0.00792299
0.00793149
0.00794037
0.00794961
0.00795925
0.00796926
0.00797968
0.00799047
0.00800163
0.00801319
0.00802513
0.00803747
0.00805017
0.00806327
0.00807675
0.00809063
0.00810487
0.00811952
0.00813452
0.00814991
0.00816567
0.00818179
0.00819828
0.00821515
0.00823233
0.0082499
0.00826779
0.008286
0.00830454
0.00832339
0.00834253
0.00836197
0.00838167
0.00840163
0.00842185
0.00844227
0.00846293
0.00848376
0.00850477
0.00852595
0.00854725
0.00856866
0.00859017
0.00861176
0.00863339
0.00865507
0.00867674
0.00869841
0.00872004
0.00874161
0.00876312
0.00878452
0.00880581
0.00882697
0.00884797
0.00886883
0.00888948
0.00890994
0.00893019
0.00895025
0.00897005
0.00898964
0.00900897
0.00902809
0.00904693
0.00906555
0.00908392
0.00910205
0.00911995
0.00913763
0.00915511
0.00917237
0.00918942
0.00920633
0.00922306
0.00923965
0.00925611
0.00927246
0.00928871
0.00930488
0.00932101
0.00933709
0.00935317
0.00936922
0.00938531
0.00940142
0.00941757
0.00943378
0.00945007
0.0094664
0.00948283
0.00949935
0.00951595
0.00953266
0.00954942
0.00956627
0.00958315
0.00960014
0.00961713
0.00963415
0.00965118
0.00966817
0.0096851
0.00970199
0.00971875
0.00973539
0.00975183
0.0097681
0.0097841
0.00979985
0.00981526
0.00983035
0.00984504
0.00985931
0.00987317
0.00988652
0.00989932
0.0099116
0.00992331
0.00993441
0.00994492
0.00995475
0.00996395
0.00997249
0.00998031
0.00998744
0.00999391
0.00999965
0.0100047
0.010009
0.0100127
0.0100157
0.0100181
0.0100198
0.0100209
0.0100214
0.0100212
0.0100206
0.0100195
0.0100178
0.0100157
0.0100132
0.0100103
0.010007
0.0100035
0.00999964
0.00999556
0.00999128
0.00998686
0.0099823
0.00997767
0.00997297
0.00996827
0.00996359
0.00995892
0.00995435
0.00994987
0.00994551
0.00994124
0.00993714
0.00993316
0.0099293
0.00992554
0.00992169
0.00991874
0.00787059
0.00786622
0.0078609
0.00785632
0.00785225
0.00784861
0.00784538
0.00784258
0.00784019
0.00783819
0.0078366
0.00783541
0.00783461
0.0078342
0.0078342
0.00783459
0.00783538
0.00783657
0.00783813
0.0078401
0.00784244
0.00784517
0.0078483
0.00785181
0.00785569
0.00785997
0.00786461
0.00786964
0.00787506
0.00788084
0.007887
0.00789354
0.00790046
0.00790776
0.00791543
0.00792348
0.00793191
0.00794071
0.0079499
0.00795947
0.00796942
0.00797975
0.00799046
0.00800157
0.00801306
0.00802493
0.0080372
0.00804985
0.00806291
0.00807633
0.00809016
0.00810437
0.00811897
0.00813394
0.00814931
0.00816506
0.00818118
0.00819768
0.00821455
0.00823178
0.00824936
0.00826731
0.00828557
0.00830418
0.00832311
0.00834234
0.00836187
0.00838168
0.00840177
0.00842211
0.00844268
0.00846347
0.00848447
0.00850565
0.008527
0.00854849
0.00857009
0.00859181
0.00861359
0.00863543
0.00865731
0.00867922
0.00870109
0.00872294
0.00874474
0.00876646
0.00878808
0.00880959
0.00883096
0.00885219
0.00887321
0.00889409
0.00891475
0.00893519
0.00895542
0.00897541
0.00899515
0.00901465
0.00903389
0.00905289
0.00907161
0.0090901
0.00910833
0.00912632
0.00914407
0.00916159
0.00917891
0.00919602
0.00921293
0.00922968
0.00924627
0.0092627
0.00927903
0.00929523
0.00931136
0.00932743
0.00934346
0.00935943
0.00937541
0.00939139
0.00940738
0.00942343
0.0094395
0.00945566
0.00947187
0.00948814
0.00950452
0.00952097
0.0095375
0.00955413
0.00957081
0.00958756
0.00960436
0.00962119
0.00963802
0.00965488
0.00967172
0.0096885
0.00970521
0.00972181
0.0097383
0.00975457
0.00977067
0.00978652
0.00980209
0.00981736
0.00983227
0.00984681
0.00986094
0.0098746
0.00988778
0.00990043
0.00991255
0.0099241
0.00993503
0.00994535
0.00995501
0.00996401
0.00997237
0.00998
0.00998696
0.00999322
0.00999878
0.0100036
0.0100078
0.0100113
0.0100141
0.0100162
0.0100178
0.0100187
0.010019
0.0100187
0.0100179
0.0100166
0.0100148
0.0100125
0.0100098
0.0100068
0.0100034
0.00999971
0.00999576
0.00999157
0.00998722
0.00998269
0.00997807
0.00997335
0.0099686
0.00996384
0.00995908
0.00995435
0.00994973
0.00994514
0.00994067
0.00993631
0.00993205
0.00992788
0.00992382
0.00991983
0.00991566
0.00991243
0.00787237
0.0078677
0.00786207
0.00785723
0.00785295
0.00784914
0.00784578
0.00784288
0.00784041
0.00783838
0.00783675
0.00783556
0.00783476
0.00783437
0.00783438
0.0078348
0.00783561
0.00783681
0.00783841
0.00784038
0.00784274
0.0078455
0.00784863
0.00785214
0.00785602
0.00786028
0.00786492
0.00786993
0.00787531
0.00788107
0.0078872
0.0078937
0.00790057
0.00790781
0.00791544
0.00792343
0.00793181
0.00794055
0.00794968
0.0079592
0.00796908
0.00797935
0.00799001
0.00800106
0.00801249
0.00802432
0.00803654
0.00804915
0.00806215
0.00807556
0.00808936
0.00810355
0.00811813
0.00813311
0.00814849
0.00816425
0.0081804
0.00819691
0.00821384
0.00823112
0.00824877
0.00826679
0.00828514
0.00830385
0.00832288
0.00834225
0.00836192
0.00838188
0.00840212
0.00842261
0.00844338
0.00846437
0.00848556
0.00850695
0.00852851
0.00855021
0.00857206
0.008594
0.00861603
0.00863813
0.00866027
0.00868241
0.00870455
0.00872666
0.0087487
0.00877067
0.00879256
0.00881431
0.00883592
0.00885739
0.00887867
0.00889976
0.00892065
0.00894132
0.00896173
0.00898192
0.00900183
0.00902152
0.00904092
0.00906007
0.00907892
0.00909754
0.00911587
0.00913395
0.00915178
0.00916939
0.00918674
0.00920389
0.00922083
0.00923759
0.00925418
0.0092706
0.00928687
0.00930304
0.00931911
0.00933512
0.00935102
0.00936691
0.00938279
0.00939866