/*--------------------------------*- C++ -*----------------------------------*\
  =========                 |
  \\      /  F ield         | OpenFOAM: The Open Source CFD Toolbox
   \\    /   O peration     | Website:  https://openfoam.org
    \\  /    A nd           | Version:  6
     \\/     M anipulation  |
\*---------------------------------------------------------------------------*/
FoamFile
{
    version     2.0;
    format      ascii;
    class       volScalarField;
    location    "0";
    object      p;
}
// * * * * * * * * * * * * * * * * * * * * * * * * * * * * * * * * * * * * * //

dimensions      [0 2 -2 0 0 0 0];

internalField   nonuniform List<scalar> 
918
(
-0.000578017
-0.030021
0.0303663
0.0100076
0.00214652
-0.0367367
-0.0416893
0.00171098
0.0103466
0.00947809
0.000456263
-0.00162094
0.0216185
0.0717317
0.00220766
-0.00680036
-0.000273159
-0.0107159
-0.0103348
0.0105555
0.0279915
-0.00352612
-0.00551581
-0.00673416
-0.00268127
0.0366702
0.0711398
0.00649222
-0.00840294
-0.00516266
-0.00221983
0.00142389
-0.0141035
-0.0545662
-0.0788594
-0.0237771
0.00471237
-0.0238829
-0.00977041
-0.0288142
0.00181997
-0.0106802
0.00171577
0.00108689
-0.0167409
-0.000946005
0.000438739
0.000898521
0.00080947
0.0105516
-0.0087989
-0.00239352
0.0153756
-0.0114581
0.0134598
0.000569611
0.000663097
0.0100484
-0.017598
0.00729376
0.0163929
0.0012881
0.000732292
0.00169094
-0.00231467
1.24524e-05
-0.00265961
-0.00341701
-0.0486898
-0.0590726
-0.0117982
-0.0172421
-0.0433834
-0.00785317
0.0372616
0.0112478
0.0168788
0.0707778
0.0732483
-0.0101923
0.00558323
0.0373413
0.0468765
-0.00642105
-0.000709187
-0.00883303
0.000716773
0.00113433
0.00051193
0.00170747
-0.014217
-0.0267025
-0.0397354
-0.00281377
-0.00206541
0.015228
0.0035293
-0.0045658
-0.00264769
0.00943217
0.0012768
0.0165576
0.0108631
0.0164471
-0.00467184
-0.00499795
-0.00613287
-0.00447737
-0.000627804
-0.00273305
0.00069681
0.00140608
0.000647685
-0.000700321
0.0235811
0.130488
0.0224394
0.0619644
0.0311989
0.0304568
0.00505992
-0.0181279
-0.0107646
-0.00450175
-0.00618805
-0.00941871
-0.000836125
0.00433409
0.00381852
0.000186377
0.00410984
0.00567359
-0.0260147
-0.0181556
-0.0140016
-0.0129497
-0.0191589
-0.0188544
-0.0175585
-0.0194633
-0.0228771
0.0361287
0.00118745
0.000821853
-0.0120374
-0.00880156
-0.0140826
-0.00513602
0.00760752
0.00778808
0.00186149
0.00479699
-0.00199404
0.000861544
0.000560886
0.00358009
-0.00414434
0.0169455
-0.0155758
-0.00632198
0.0102371
0.0066849
-0.00713062
-0.00721789
-0.0132857
0.00937876
0.00701794
-0.0115509
-0.00288915
-0.00571913
-0.00280188
0.000634495
0.0117424
0.000117663
0.00215167
0.00636077
0.00375979
0.00281778
-0.000943125
0.00156091
0.000340343
0.000202418
-0.000332987
-0.000714919
0.00135983
0.0716678
0.0756855
0.030656
0.0159329
0.0302415
0.0414193
0.0417781
-0.00422989
-0.00383142
-0.00268574
-0.00926412
-0.00809692
-0.00406504
0.00447225
-0.000205835
-0.0120012
-0.00568421
-0.000680641
0.000488714
-0.0178474
-0.0173482
-0.0127502
-0.01031
0.00177539
0.000968337
-0.00262339
-0.00304858
0.00839306
0.000277669
0.00694821
0.00166129
0.00207323
0.00284261
0.000925989
-0.00494374
0.000696425
0.00183834
0.000211618
0.0028326
0.0028592
0.0412219
0.0776293
0.108129
-0.00888121
0.0515258
-0.0037709
-0.0845739
-0.140699
-0.04913
0.0035715
0.00591633
0.00502392
-0.000206788
0.000717735
0.000114639
-0.000532933
-0.00140679
-0.000769068
-0.0160536
0.00177367
-0.00508246
0.0230668
0.0130437
0.0404054
0.0389184
0.0156714
0.00163606
-0.000784295
0.000801307
-0.00421213
-0.0129884
-0.00481712
-0.00909519
0.00141042
0.000408966
-0.000367324
0.0565036
0.00825902
0.0641706
0.0525458
0.0298514
0.0413048
-0.00450374
0.019448
0.0122981
0.0693631
0.0512192
0.0841618
-0.00508345
-0.00330171
-0.0109581
-0.0310946
-0.037029
-0.00730082
-0.00809793
-0.00641932
0.00148068
-0.00850709
0.0425302
0.0561794
0.0476161
0.0317793
0.00249244
0.00958843
-0.00945397
-0.00231435
-0.000907817
0.00495525
-0.00708753
-0.00581542
-0.000900658
-0.0075952
-0.0123428
-0.0122079
-0.0378088
-0.011716
-0.0314161
-0.00966632
-0.00949489
-0.0103071
-0.00714284
-0.00220827
-0.00306978
-0.00131047
-0.00656987
0.0416666
0.0425706
-0.0131632
-0.00374007
0.00447513
-0.0014087
0.00440064
-0.0206029
0.007842
-0.0175253
-0.0181903
-0.00218306
0.00535551
0.00170527
-3.88605e-06
-0.00457361
0.00442445
-0.0161534
-0.00668561
-0.0035439
-0.00113156
-0.0105457
-0.008129
0.00225772
-0.00983725
0.00268597
-0.0143387
0.00461929
0.00488929
0.00232902
-0.00268047
-0.00606474
0.000300468
-0.00126199
-0.00767936
-0.0054566
-0.00281475
-0.00483901
-0.0119124
-0.0103381
-0.0112857
-0.00605344
-0.000350821
0.00137215
-0.00115835
0.0402108
0.0293028
0.00325994
0.0456313
0.0508645
0.0486578
0.0492664
-6.83239e-05
-0.000197733
0.00065169
-0.0013504
-0.0131945
-0.0148947
0.00133131
0.00128221
0.00599151
0.00772421
0.000175889
-0.000753804
0.0016486
-0.00259825
-0.00610648
-0.00125124
-0.00474279
0.000984565
0.0106874
0.00753392
0.0165357
0.00443442
-0.00917928
0.000227116
-0.0145844
0.00308569
0.00272611
0.00834988
0.0126943
0.00565896
-0.0175345
-0.00132244
-0.0137736
-0.0182722
-0.0196324
0.0174422
-0.00315669
0.00216246
-0.000444467
0.00118747
-0.003363
-0.00186751
0.0117215
0.00700741
0.000865951
0.00619644
0.00675995
-0.000170749
-0.0013612
0.00153989
-0.00344342
0.00485331
-0.0109492
-0.011418
-0.0153021
0.00107396
0.00492541
-0.00677986
-0.00293244
-0.0157507
0.00172987
-0.00371025
-0.0148013
-0.0218807
-0.0468932
-0.00704942
-0.0457976
0.0031913
0.000216597
-0.00226601
0.00196363
0.000609767
-0.00554013
-0.00387835
-0.00273045
-0.000456684
-0.00250324
0.00201578
0.00309881
-0.0176634
-0.00689022
-0.00374413
-0.0151044
-0.00917432
-0.00119453
0.000422368
0.00274661
0.0013958
0.00261368
0.0447866
0.0444824
-0.0525069
-0.0948632
0.0228099
0.0126356
0.0407833
0.02631
0.0143248
0.0585956
0.048776
0.123439
0.0500107
0.0504532
-0.0142058
0.00850004
-0.0146244
-0.00174648
0.0065043
-0.00915447
-0.0385705
0.000323982
0.00220087
9.19952e-05
-0.000322111
-0.00352367
-0.000430472
0.00022384
0.000880116
-0.000701103
0.00448701
0.000807276
-0.00792949
-0.00034454
0.00056339
0.00260057
0.00137141
-0.00914171
-0.00131778
0.000817834
0.000628619
0.00390322
0.0104149
0.00469299
0.00566432
0.00228662
0.00208178
0.00342502
0.00119743
-0.000671594
0.00814709
0.00432482
0.0102153
0.017854
0.00491948
0.00866803
0.00440305
0.00952799
-0.0367185
-0.00462258
0.00166549
0.0162142
0.0316829
0.0154748
-0.00660534
0.0256542
0.0110143
0.00638403
-0.00233335
0.0111222
0.0116524
-0.00522954
-0.0165395
0.00242158
0.00453643
0.00592337
0.0112297
-0.0100206
0.0070853
0.00520815
-0.00281909
0.0200768
0.0011793
0.00553399
0.0163321
0.0182644
0.0192457
0.0153082
-0.0104377
-0.0103065
-0.00713342
-0.00960403
0.00758959
-0.00606401
0.00206763
-0.000501474
0.000934373
0.000120473
0.000829334
0.00182717
0.00335694
0.00153993
0.0129605
0.00922781
0.00295048
-0.000519768
0.000463806
0.00188036
-0.00263335
-0.00103684
0.00831944
0.00435288
0.00217881
0.000695984
-0.000189463
0.000698506
-0.00370118
-0.00505447
0.00392767
-0.0197447
0.00685235
-0.000863314
-0.00207096
-0.0106811
-0.00311057
-0.0189649
0.00959126
0.0040893
-0.00526523
-0.0128982
-0.00716945
0.00600272
-0.0172019
-0.0179983
0.00559031
-0.0256714
-0.00988455
-0.0394642
-0.0252284
-0.0210837
-0.0205199
-0.0326234
-0.0304049
-0.0210052
0.0064021
0.0252157
0.00609142
0.0379367
0.00280063
0.00608756
-0.0117911
-0.00535093
0.000982393
0.00209987
0.0237303
0.0122934
0.00409527
0.00159372
-0.00514081
-0.0104197
-0.013462
-0.02725
-0.055646
-0.101507
-7.62788e-05
-0.00177808
0.00168082
-0.00188074
-0.00198917
0.00560577
-0.0106336
-0.00698539
-0.00759693
-0.000527355
-0.00253061
-0.00757798
-0.00300838
0.00547251
0.00412311
0.00141568
0.000928079
0.00384374
0.00322019
0.00468205
-0.00346674
0.000471359
-0.00433029
-0.000671091
0.00174398
0.00587953
0.00114148
-6.63675e-05
-0.00610523
0.00316965
0.000391702
0.00341414
0.00502942
0.00466457
1.65721e-05
-0.000608625
-0.0396208
0.00529563
-0.00622288
-0.00936736
-0.0279672
-0.00520979
-0.00970633
-0.0134607
-0.0103651
-0.0253198
-0.0203323
0.0100113
0.0304878
-0.0111849
-0.0731297
-0.0829801
-0.00281543
-0.0014208
-0.00110559
-0.00793243
-0.00301512
0.00190078
0.00397191
0.00364418
0.00104264
-0.00160417
-0.00136303
-0.00205287
0.00513764
0.0141864
0.0150187
0.012726
0.00751355
0.0109148
0.00548195
0.00720687
0.00492934
0.00449691
-0.0126849
-0.00234192
-0.00839058
-0.00718632
-0.00189488
0.0020858
-0.00699716
-0.00203416
-0.00280977
0.000123043
-0.00757385
-0.00190561
-0.00515059
0.00263884
0.00252369
0.000853548
0.00864173
0.00285909
0.003789
0.00525859
-0.000262308
0.000906318
0.00133822
0.00225556
0.00263394
0.00572641
0.00531816
0.010095
0.00704593
0.00444375
0.00383263
-0.00158992
-0.0166515
-0.0312199
-0.0171274
0.0114542
0.012213
-0.00135603
-0.00914872
0.00539901
0.0040692
-0.00725243
-0.0131011
-0.00763047
-0.0291286
0.022
0.0287963
0.01214
0.00253327
0.0284055
0.0267808
0.0258286
0.0247939
0.00900165
0.0120212
0.0104286
0.0215039
0.0151791
0.00705239
-0.00818929
0.000262317
0.010493
-0.0121129
0.0062888
0.0198703
0.00776903
0.0165635
0.0127833
0.00399017
0.00392203
-0.000838344
0.000921399
-0.00274172
-0.00518116
0.0027513
0.00117227
0.00178979
-0.000725343
0.000764883
3.20943e-05
-0.00064409
-0.00880772
-0.000472041
-0.00232213
0.0156375
-0.00710391
-0.00285013
0.000555951
0.0324082
0.0220035
0.0138215
0.0281443
-0.0236274
0.0188905
-0.0413507
0.0275138
-0.0168679
0.0391032
0.0459231
0.0299859
0.0502411
0.0334435
0.00780549
0.0103897
7.78258e-05
-0.014478
-0.00631115
-0.00579306
-0.00352244
-0.00361403
0.0263212
0.0407661
-0.0547402
-0.0259281
0.011288
-0.00192101
-0.00293423
0.00845393
0.018671
0.0509416
0.0549183
0.0443781
-0.00375657
0.0427443
0.0270847
0.0328774
0.0353648
0.00190262
0.0174232
0.0197927
-0.00357981
-0.00256252
-0.000162286
-0.00218443
0.000171601
-0.0052853
0.00746607
0.00173205
-0.00228243
-0.00322576
0.0036325
-0.00570252
0.0136682
0.0182337
0.0259784
0.076564
0.054846
-0.0680329
-0.0289435
-0.0216825
-0.00101013
-0.0027235
-0.0022202
-0.0115658
-0.00669264
0.00423637
0.000856165
0.00810491
-0.00080761
-0.00631717
-0.00637895
0.000692576
-0.00397069
0.00172236
0.00348616
-0.00309781
-0.000540727
0.000157994
0.00258964
0.00837626
0.00719255
0.00764265
0.00645402
-0.00791322
0.00398849
-0.00952912
-0.0213285
-0.00730908
-0.00109989
0.00129345
-0.0129913
0.0145247
-0.00512461
-0.0221072
-0.0107647
-0.0337875
-0.0215716
0.0507885
0.0197454
0.0251259
-0.0316347
0.00226366
-0.00185808
-0.0328269
0.00211151
-0.00540719
-0.0162564
0.0167025
-0.00701285
-0.0472261
-0.0324604
-0.036055
0.0257574
0.00559868
0.0204545
-0.00695447
0.0270282
-0.00342817
0.0505726
-0.065141
-0.0698928
0.0183549
0.0280916
0.0308989
0.0169502
0.0043426
0.00632541
0.00347246
-0.00337903
-0.00183384
0.0135267
0.00326491
-0.0100897
0.00529816
-0.06449
-0.0350568
-0.0331961
-0.0530804
-0.0751701
)
;

boundaryField
{
    wall-4
    {
        type            calculated;
        value           nonuniform List<scalar> 
100
(
-0.000578017
-0.030021
0.0303663
0.0100076
-0.0367367
-0.0416893
0.00171098
0.00947809
0.000456263
-0.00162094
0.0216185
0.0717317
0.00220766
-0.000273159
-0.0107159
-0.0103348
0.0105555
0.0279915
-0.00673416
-0.00268127
0.0366702
0.0711398
0.00649222
-0.0545662
0.00471237
-0.0288142
-0.0106802
0.00108689
-0.0167409
0.000438739
0.000898521
0.000569611
0.0100484
0.0163929
0.000732292
0.00169094
1.24524e-05
-0.00341701
-0.0433834
0.0372616
0.0168788
0.0732483
0.00558323
0.0468765
0.00113433
0.00170747
-0.0397354
-0.00206541
-0.00264769
0.0012768
0.0164471
-0.00499795
-0.00447737
0.00069681
0.00140608
-0.000700321
0.0235811
0.0619644
0.0304568
-0.0181279
0.00381852
0.000186377
0.00567359
-0.0188544
-0.0228771
0.000821853
-0.0140826
0.00760752
0.00479699
0.000560886
-0.0132857
0.00701794
0.000117663
0.00636077
0.00281778
0.00156091
0.000340343
-0.000714919
0.030656
0.0417781
0.000488714
0.00177539
-0.00304858
0.00694821
0.00284261
-0.00494374
0.00183834
0.0028592
0.0776293
-0.0037709
0.00502392
0.000114639
-0.000769068
0.000801307
-0.0129884
-0.000367324
0.0525458
0.0841618
0.0476161
-0.000900658
)
;
    }
    velocity-inlet-5
    {
        type            calculated;
        value           nonuniform List<scalar> 8(-0.000578017 0.0100076 0.0103466 -0.00352612 0.0105516 0.0153756 0.015228 0.0169455);
    }
    velocity-inlet-6
    {
        type            calculated;
        value           nonuniform List<scalar> 4(-0.030021 -0.0367367 -0.0237771 -0.0117982);
    }
    pressure-outlet-7
    {
        type            calculated;
        value           uniform 0;
    }
    wall-8
    {
        type            calculated;
        value           nonuniform List<scalar> 
34
(
0.00214652
-0.00680036
-0.0141035
-0.0238829
-0.0114581
-0.017598
-0.00883303
-0.014217
-0.000836125
-0.0181556
-0.0129497
0.0361287
-0.00632198
0.0066849
-0.00288915
-0.00280188
0.0302415
0.00447225
-0.00568421
-0.0173482
-0.01031
0.00177367
-0.00508246
0.0404054
0.0156714
-0.00909519
0.0122981
-0.0109581
-0.037029
-0.00641932
-0.00231435
0.00495525
-0.0122079
-0.0314161
)
;
    }
    frontAndBackPlanes
    {
        type            empty;
    }
}

