/*--------------------------------*- C++ -*----------------------------------*\
  =========                 |
  \\      /  F ield         | OpenFOAM: The Open Source CFD Toolbox
   \\    /   O peration     | Website:  https://openfoam.org
    \\  /    A nd           | Version:  6
     \\/     M anipulation  |
\*---------------------------------------------------------------------------*/
FoamFile
{
    version     2.0;
    format      ascii;
    class       volVectorField;
    location    "0";
    object      U_rec;
}
// * * * * * * * * * * * * * * * * * * * * * * * * * * * * * * * * * * * * * //

dimensions      [0 1 -1 0 0 0 0];

internalField   nonuniform List<vector> 
40000
(
(5.18107e-07 -5.18137e-07 0)
(2.33093e-06 -7.34433e-07 0)
(4.07846e-06 -5.89775e-07 0)
(5.0034e-06 -2.53674e-07 0)
(4.54058e-06 1.58115e-07 0)
(2.4645e-06 5.96313e-07 0)
(-1.29388e-06 1.03268e-06 0)
(-6.71889e-06 1.45099e-06 0)
(-1.37421e-05 1.84248e-06 0)
(-2.22642e-05 2.20275e-06 0)
(-3.21691e-05 2.53009e-06 0)
(-4.33344e-05 2.82451e-06 0)
(-5.56369e-05 3.08708e-06 0)
(-6.89569e-05 3.31956e-06 0)
(-8.31807e-05 3.52409e-06 0)
(-9.82034e-05 3.70299e-06 0)
(-0.000113925 3.85856e-06 0)
(-0.000130259 3.99305e-06 0)
(-0.000147122 4.10862e-06 0)
(-0.000164442 4.20726e-06 0)
(-0.000182153 4.29082e-06 0)
(-0.000200197 4.36098e-06 0)
(-0.00021852 4.41927e-06 0)
(-0.000237076 4.4671e-06 0)
(-0.000255825 4.50567e-06 0)
(-0.000274728 4.53611e-06 0)
(-0.000293755 4.55939e-06 0)
(-0.000312875 4.57639e-06 0)
(-0.000332065 4.58787e-06 0)
(-0.000351301 4.59453e-06 0)
(-0.000370563 4.59693e-06 0)
(-0.000389836 4.5956e-06 0)
(-0.000409102 4.59099e-06 0)
(-0.000428349 4.58348e-06 0)
(-0.000447565 4.5734e-06 0)
(-0.000466737 4.56104e-06 0)
(-0.000485858 4.54663e-06 0)
(-0.000504919 4.53039e-06 0)
(-0.00052391 4.51246e-06 0)
(-0.000542827 4.49301e-06 0)
(-0.000561659 4.47213e-06 0)
(-0.000580404 4.44991e-06 0)
(-0.000599054 4.42645e-06 0)
(-0.000617603 4.40178e-06 0)
(-0.000636047 4.37595e-06 0)
(-0.00065438 4.34897e-06 0)
(-0.000672596 4.32089e-06 0)
(-0.000690692 4.29169e-06 0)
(-0.000708662 4.26136e-06 0)
(-0.000726501 4.22989e-06 0)
(-0.000744203 4.19728e-06 0)
(-0.000761765 4.16349e-06 0)
(-0.000779179 4.1285e-06 0)
(-0.000796442 4.09225e-06 0)
(-0.000813548 4.05471e-06 0)
(-0.000830491 4.01584e-06 0)
(-0.000847264 3.97557e-06 0)
(-0.000863863 3.93387e-06 0)
(-0.00088028 3.89067e-06 0)
(-0.00089651 3.8459e-06 0)
(-0.000912546 3.79952e-06 0)
(-0.000928379 3.75145e-06 0)
(-0.000944003 3.70161e-06 0)
(-0.000959411 3.64998e-06 0)
(-0.000974596 3.59645e-06 0)
(-0.000989548 3.54095e-06 0)
(-0.00100426 3.48345e-06 0)
(-0.00101872 3.42384e-06 0)
(-0.00103293 3.36206e-06 0)
(-0.00104687 3.2981e-06 0)
(-0.00106053 3.23182e-06 0)
(-0.00107391 3.16319e-06 0)
(-0.00108699 3.09214e-06 0)
(-0.00109976 3.01864e-06 0)
(-0.00111222 2.94265e-06 0)
(-0.00112435 2.86409e-06 0)
(-0.00113615 2.78288e-06 0)
(-0.0011476 2.69906e-06 0)
(-0.00115869 2.61251e-06 0)
(-0.00116941 2.52326e-06 0)
(-0.00117975 2.43126e-06 0)
(-0.0011897 2.33649e-06 0)
(-0.00119924 2.23895e-06 0)
(-0.00120837 2.13859e-06 0)
(-0.00121708 2.03545e-06 0)
(-0.00122534 1.92949e-06 0)
(-0.00123316 1.82077e-06 0)
(-0.00124052 1.70923e-06 0)
(-0.0012474 1.59492e-06 0)
(-0.0012538 1.47787e-06 0)
(-0.00125972 1.35811e-06 0)
(-0.00126512 1.23568e-06 0)
(-0.00127001 1.11064e-06 0)
(-0.00127437 9.82991e-07 0)
(-0.0012782 8.52828e-07 0)
(-0.00128148 7.2021e-07 0)
(-0.0012842 5.85209e-07 0)
(-0.00128635 4.47893e-07 0)
(-0.00128793 3.08358e-07 0)
(-0.00128893 1.66692e-07 0)
(-0.00128933 2.30045e-08 0)
(-0.00128914 -1.22615e-07 0)
(-0.00128833 -2.70042e-07 0)
(-0.00128691 -4.19149e-07 0)
(-0.00128486 -5.69807e-07 0)
(-0.0012822 -7.21899e-07 0)
(-0.00127889 -8.75251e-07 0)
(-0.00127495 -1.02973e-06 0)
(-0.00127037 -1.18518e-06 0)
(-0.00126513 -1.34141e-06 0)
(-0.00125926 -1.49828e-06 0)
(-0.00125273 -1.65559e-06 0)
(-0.00124555 -1.81315e-06 0)
(-0.00123771 -1.97077e-06 0)
(-0.00122922 -2.12824e-06 0)
(-0.00122008 -2.28536e-06 0)
(-0.00121029 -2.4419e-06 0)
(-0.00119985 -2.59768e-06 0)
(-0.00118878 -2.75243e-06 0)
(-0.00117705 -2.90588e-06 0)
(-0.0011647 -3.05787e-06 0)
(-0.00115172 -3.20817e-06 0)
(-0.00113812 -3.3565e-06 0)
(-0.00112391 -3.50254e-06 0)
(-0.0011091 -3.64611e-06 0)
(-0.0010937 -3.78695e-06 0)
(-0.00107772 -3.92479e-06 0)
(-0.00106118 -4.05925e-06 0)
(-0.00104408 -4.1903e-06 0)
(-0.00102645 -4.31762e-06 0)
(-0.0010083 -4.44083e-06 0)
(-0.000989641 -4.55965e-06 0)
(-0.000970499 -4.67409e-06 0)
(-0.00095089 -4.78356e-06 0)
(-0.000930834 -4.88812e-06 0)
(-0.000910352 -4.98737e-06 0)
(-0.000889467 -5.08111e-06 0)
(-0.000868199 -5.1691e-06 0)
(-0.000846574 -5.25117e-06 0)
(-0.000824619 -5.32715e-06 0)
(-0.000802354 -5.3967e-06 0)
(-0.000779809 -5.45975e-06 0)
(-0.000757008 -5.51614e-06 0)
(-0.000733983 -5.56569e-06 0)
(-0.000710759 -5.60821e-06 0)
(-0.000687365 -5.6436e-06 0)
(-0.000663831 -5.67176e-06 0)
(-0.000640188 -5.69257e-06 0)
(-0.000616468 -5.70588e-06 0)
(-0.000592694 -5.71167e-06 0)
(-0.000568898 -5.70985e-06 0)
(-0.000545125 -5.70034e-06 0)
(-0.000521395 -5.6831e-06 0)
(-0.000497735 -5.65808e-06 0)
(-0.000474189 -5.62525e-06 0)
(-0.000450793 -5.58459e-06 0)
(-0.000427557 -5.53608e-06 0)
(-0.000404534 -5.4797e-06 0)
(-0.000381747 -5.41545e-06 0)
(-0.000359232 -5.34332e-06 0)
(-0.000337026 -5.26332e-06 0)
(-0.000315151 -5.17545e-06 0)
(-0.000293651 -5.07971e-06 0)
(-0.00027255 -4.97611e-06 0)
(-0.000251884 -4.86465e-06 0)
(-0.000231688 -4.74534e-06 0)
(-0.000211992 -4.61818e-06 0)
(-0.00019283 -4.48318e-06 0)
(-0.000174235 -4.34034e-06 0)
(-0.000156241 -4.18966e-06 0)
(-0.000138878 -4.03117e-06 0)
(-0.00012218 -3.86486e-06 0)
(-0.000106181 -3.69076e-06 0)
(-9.09122e-05 -3.50889e-06 0)
(-7.64064e-05 -3.31928e-06 0)
(-6.26963e-05 -3.122e-06 0)
(-4.98142e-05 -2.91711e-06 0)
(-3.77898e-05 -2.70473e-06 0)
(-2.66555e-05 -2.48499e-06 0)
(-1.64412e-05 -2.25805e-06 0)
(-7.17547e-06 -2.02421e-06 0)
(1.11413e-06 -1.78375e-06 0)
(8.40138e-06 -1.53715e-06 0)
(1.4664e-05 -1.28498e-06 0)
(1.98815e-05 -1.02803e-06 0)
(2.4037e-05 -7.67355e-07 0)
(2.71217e-05 -5.04409e-07 0)
(2.91328e-05 -2.41138e-07 0)
(3.00769e-05 1.97549e-08 0)
(2.99752e-05 2.7457e-07 0)
(2.88681e-05 5.18216e-07 0)
(2.68178e-05 7.43706e-07 0)
(2.39217e-05 9.41485e-07 0)
(2.03192e-05 1.09872e-06 0)
(1.62056e-05 1.19829e-06 0)
(1.1846e-05 1.21795e-06 0)
(7.58609e-06 1.13047e-06 0)
(3.86951e-06 9.03399e-07 0)
(1.25407e-06 4.9782e-07 0)
(3.9606e-08 3.94848e-08 0)
(7.3643e-07 -2.33279e-06 0)
(3.43929e-06 -3.43315e-06 0)
(5.2269e-06 -2.20843e-06 0)
(4.64054e-06 3.44237e-07 0)
(5.53414e-07 3.58681e-06 0)
(-7.58509e-06 7.13405e-06 0)
(-2.00025e-05 1.07503e-05 0)
(-3.67216e-05 1.42893e-05 0)
(-5.76285e-05 1.7661e-05 0)
(-8.25176e-05 2.0812e-05 0)
(-0.000111128 2.37145e-05 0)
(-0.000143171 2.63574e-05 0)
(-0.000178345 2.87418e-05 0)
(-0.00021635 3.08758e-05 0)
(-0.000256894 3.27728e-05 0)
(-0.000299701 3.44484e-05 0)
(-0.000344513 3.59198e-05 0)
(-0.000391089 3.72044e-05 0)
(-0.000439209 3.8319e-05 0)
(-0.00048867 3.92803e-05 0)
(-0.000539292 4.01034e-05 0)
(-0.000590911 4.08028e-05 0)
(-0.000643377 4.13916e-05 0)
(-0.000696558 4.18817e-05 0)
(-0.000750335 4.22842e-05 0)
(-0.000804603 4.26089e-05 0)
(-0.000859264 4.28645e-05 0)
(-0.000914237 4.3059e-05 0)
(-0.000969446 4.31994e-05 0)
(-0.00102482 4.3292e-05 0)
(-0.00108031 4.33421e-05 0)
(-0.00113586 4.33547e-05 0)
(-0.00119142 4.3334e-05 0)
(-0.00124694 4.32836e-05 0)
(-0.0013024 4.32067e-05 0)
(-0.00135776 4.3106e-05 0)
(-0.00141298 4.29839e-05 0)
(-0.00146804 4.28423e-05 0)
(-0.00152292 4.2683e-05 0)
(-0.00157758 4.25073e-05 0)
(-0.00163202 4.23166e-05 0)
(-0.00168621 4.21115e-05 0)
(-0.00174013 4.18929e-05 0)
(-0.00179376 4.16616e-05 0)
(-0.00184708 4.14177e-05 0)
(-0.00190008 4.11619e-05 0)
(-0.00195275 4.08942e-05 0)
(-0.00200507 4.06147e-05 0)
(-0.00205701 4.03236e-05 0)
(-0.00210857 4.00207e-05 0)
(-0.00215973 3.97062e-05 0)
(-0.00221047 3.93794e-05 0)
(-0.00226078 3.90406e-05 0)
(-0.00231064 3.86891e-05 0)
(-0.00236004 3.83249e-05 0)
(-0.00240895 3.79474e-05 0)
(-0.00245736 3.75562e-05 0)
(-0.00250525 3.71511e-05 0)
(-0.00255261 3.67314e-05 0)
(-0.00259941 3.62968e-05 0)
(-0.00264563 3.58465e-05 0)
(-0.00269125 3.53801e-05 0)
(-0.00273626 3.48972e-05 0)
(-0.00278063 3.4397e-05 0)
(-0.00282433 3.3879e-05 0)
(-0.00286735 3.33429e-05 0)
(-0.00290966 3.27875e-05 0)
(-0.00295124 3.2213e-05 0)
(-0.00299206 3.16185e-05 0)
(-0.00303209 3.10033e-05 0)
(-0.00307132 3.03671e-05 0)
(-0.00310971 2.97093e-05 0)
(-0.00314724 2.90294e-05 0)
(-0.00318386 2.83272e-05 0)
(-0.00321956 2.76019e-05 0)
(-0.00325433 2.68532e-05 0)
(-0.0032881 2.60806e-05 0)
(-0.00332087 2.52839e-05 0)
(-0.0033526 2.44633e-05 0)
(-0.00338326 2.36175e-05 0)
(-0.0034128 2.27471e-05 0)
(-0.00344123 2.18517e-05 0)
(-0.00346847 2.0931e-05 0)
(-0.00349454 1.99853e-05 0)
(-0.00351937 1.90142e-05 0)
(-0.00354293 1.80181e-05 0)
(-0.00356522 1.69965e-05 0)
(-0.00358618 1.595e-05 0)
(-0.00360578 1.48786e-05 0)
(-0.003624 1.37826e-05 0)
(-0.0036408 1.26622e-05 0)
(-0.00365617 1.15179e-05 0)
(-0.00367006 1.03499e-05 0)
(-0.00368244 9.15873e-06 0)
(-0.00369328 7.94505e-06 0)
(-0.00370257 6.70924e-06 0)
(-0.00371028 5.45208e-06 0)
(-0.00371638 4.17423e-06 0)
(-0.00372082 2.87641e-06 0)
(-0.00372361 1.55961e-06 0)
(-0.00372472 2.24521e-07 0)
(-0.00372412 -1.12771e-06 0)
(-0.00372179 -2.49608e-06 0)
(-0.00371772 -3.87957e-06 0)
(-0.00371187 -5.27689e-06 0)
(-0.00370424 -6.68694e-06 0)
(-0.00369482 -8.10835e-06 0)
(-0.00368359 -9.53969e-06 0)
(-0.00367054 -1.09797e-05 0)
(-0.00365566 -1.24266e-05 0)
(-0.00363893 -1.3879e-05 0)
(-0.00362036 -1.53354e-05 0)
(-0.00359996 -1.67938e-05 0)
(-0.00357768 -1.82526e-05 0)
(-0.00355357 -1.97099e-05 0)
(-0.00352761 -2.11639e-05 0)
(-0.00349982 -2.26128e-05 0)
(-0.00347019 -2.40541e-05 0)
(-0.00343874 -2.5486e-05 0)
(-0.00340549 -2.69067e-05 0)
(-0.00337044 -2.83138e-05 0)
(-0.00333361 -2.97052e-05 0)
(-0.00329504 -3.10778e-05 0)
(-0.00325475 -3.24314e-05 0)
(-0.00321274 -3.37615e-05 0)
(-0.00316907 -3.50672e-05 0)
(-0.00312376 -3.63456e-05 0)
(-0.00307684 -3.7594e-05 0)
(-0.00302836 -3.88116e-05 0)
(-0.00297837 -3.9994e-05 0)
(-0.00292688 -4.11404e-05 0)
(-0.00287397 -4.22476e-05 0)
(-0.00281968 -4.33151e-05 0)
(-0.00276406 -4.43379e-05 0)
(-0.00270715 -4.5316e-05 0)
(-0.00264905 -4.62468e-05 0)
(-0.00258978 -4.71276e-05 0)
(-0.00252942 -4.79569e-05 0)
(-0.00246802 -4.87326e-05 0)
(-0.00240568 -4.94529e-05 0)
(-0.00234245 -5.01163e-05 0)
(-0.0022784 -5.07209e-05 0)
(-0.00221361 -5.12651e-05 0)
(-0.00214816 -5.17473e-05 0)
(-0.00208211 -5.21662e-05 0)
(-0.00201557 -5.25209e-05 0)
(-0.00194859 -5.28095e-05 0)
(-0.00188127 -5.30315e-05 0)
(-0.0018137 -5.31858e-05 0)
(-0.00174595 -5.32716e-05 0)
(-0.00167812 -5.3288e-05 0)
(-0.00161029 -5.32343e-05 0)
(-0.00154255 -5.31098e-05 0)
(-0.00147499 -5.29141e-05 0)
(-0.00140769 -5.26468e-05 0)
(-0.00134076 -5.23075e-05 0)
(-0.00127428 -5.18958e-05 0)
(-0.00120835 -5.14117e-05 0)
(-0.00114304 -5.08544e-05 0)
(-0.00107847 -5.02244e-05 0)
(-0.00101471 -4.95211e-05 0)
(-0.000951866 -4.87445e-05 0)
(-0.000890033 -4.78945e-05 0)
(-0.000829291 -4.6971e-05 0)
(-0.000769752 -4.59739e-05 0)
(-0.000711485 -4.49032e-05 0)
(-0.000654614 -4.37587e-05 0)
(-0.000599213 -4.25404e-05 0)
(-0.000545379 -4.12484e-05 0)
(-0.000493216 -3.98825e-05 0)
(-0.000442809 -3.84429e-05 0)
(-0.00039425 -3.69297e-05 0)
(-0.000347633 -3.53431e-05 0)
(-0.000303063 -3.36835e-05 0)
(-0.000260627 -3.19514e-05 0)
(-0.000220408 -3.01473e-05 0)
(-0.000182511 -2.82724e-05 0)
(-0.000147015 -2.63279e-05 0)
(-0.000114011 -2.43157e-05 0)
(-8.3572e-05 -2.22378e-05 0)
(-5.57969e-05 -2.00977e-05 0)
(-3.07481e-05 -1.78989e-05 0)
(-8.50037e-06 -1.56469e-05 0)
(1.08957e-05 -1.3348e-05 0)
(2.73811e-05 -1.10112e-05 0)
(4.09224e-05 -8.64785e-06 0)
(5.14999e-05 -6.27305e-06 0)
(5.91194e-05 -3.90661e-06 0)
(6.38151e-05 -1.57508e-06 0)
(6.56576e-05 6.86499e-07 0)
(6.47728e-05 2.83165e-06 0)
(6.13474e-05 4.79933e-06 0)
(5.56505e-05 6.50961e-06 0)
(4.80572e-05 7.86069e-06 0)
(3.90659e-05 8.72608e-06 0)
(2.93204e-05 8.95574e-06 0)
(1.96143e-05 8.38431e-06 0)
(1.08959e-05 6.85467e-06 0)
(4.30753e-06 4.31548e-06 0)
(4.96086e-07 1.25205e-06 0)
(5.94762e-07 -4.08886e-06 0)
(2.2235e-06 -5.2245e-06 0)
(1.62257e-06 -1.60951e-06 0)
(-2.92582e-06 4.79646e-06 0)
(-1.2737e-05 1.2756e-05 0)
(-2.8534e-05 2.14721e-05 0)
(-5.06602e-05 3.04193e-05 0)
(-7.91898e-05 3.9249e-05 0)
(-0.000114002 4.77319e-05 0)
(-0.000154842 5.57234e-05 0)
(-0.000201365 6.31395e-05 0)
(-0.000253169 6.99404e-05 0)
(-0.000309831 7.61161e-05 0)
(-0.000370917 8.16784e-05 0)
(-0.000436002 8.66524e-05 0)
(-0.000504674 9.10714e-05 0)
(-0.000576544 9.49737e-05 0)
(-0.000651248 9.83997e-05 0)
(-0.000728449 0.000101389 0)
(-0.000807836 0.000103982 0)
(-0.000889122 0.000106216 0)
(-0.000972054 0.000108126 0)
(-0.0010564 0.000109746 0)
(-0.00114193 0.000111104 0)
(-0.00122848 0.000112229 0)
(-0.00131586 0.000113147 0)
(-0.00140393 0.000113879 0)
(-0.00149255 0.000114446 0)
(-0.00158158 0.000114867 0)
(-0.00167093 0.000115157 0)
(-0.0017605 0.000115332 0)
(-0.0018502 0.000115403 0)
(-0.00193994 0.000115381 0)
(-0.00202966 0.000115278 0)
(-0.0021193 0.0001151 0)
(-0.00220879 0.000114856 0)
(-0.00229809 0.000114551 0)
(-0.00238715 0.000114192 0)
(-0.00247592 0.000113782 0)
(-0.00256436 0.000113326 0)
(-0.00265245 0.000112826 0)
(-0.00274013 0.000112287 0)
(-0.00282738 0.000111708 0)
(-0.00291417 0.000111093 0)
(-0.00300047 0.000110443 0)
(-0.00308624 0.000109759 0)
(-0.00317146 0.000109041 0)
(-0.00325611 0.00010829 0)
(-0.00334015 0.000107506 0)
(-0.00342356 0.000106689 0)
(-0.00350632 0.000105839 0)
(-0.00358838 0.000104956 0)
(-0.00366974 0.000104039 0)
(-0.00375035 0.000103088 0)
(-0.00383019 0.000102101 0)
(-0.00390924 0.000101078 0)
(-0.00398746 0.000100017 0)
(-0.00406482 9.89194e-05 0)
(-0.00414129 9.77815e-05 0)
(-0.00421685 9.66036e-05 0)
(-0.00429145 9.53832e-05 0)
(-0.00436506 9.41206e-05 0)
(-0.00443766 9.28134e-05 0)
(-0.0045092 9.14594e-05 0)
(-0.00457965 9.00592e-05 0)
(-0.00464898 8.86104e-05 0)
(-0.00471714 8.71114e-05 0)
(-0.00478409 8.55615e-05 0)
(-0.0048498 8.39582e-05 0)
(-0.00491423 8.23012e-05 0)
(-0.00497733 8.05883e-05 0)
(-0.00503905 7.88196e-05 0)
(-0.00509936 7.69936e-05 0)
(-0.00515821 7.51076e-05 0)
(-0.00521555 7.31614e-05 0)
(-0.00527135 7.11545e-05 0)
(-0.00532556 6.90875e-05 0)
(-0.00537811 6.69556e-05 0)
(-0.00542899 6.47615e-05 0)
(-0.00547812 6.25032e-05 0)
(-0.00552546 6.01796e-05 0)
(-0.00557097 5.7793e-05 0)
(-0.00561457 5.53397e-05 0)
(-0.00565627 5.28217e-05 0)
(-0.00569598 5.02382e-05 0)
(-0.00573365 4.75899e-05 0)
(-0.00576924 4.48754e-05 0)
(-0.00580271 4.2097e-05 0)
(-0.00583399 3.92543e-05 0)
(-0.00586305 3.63476e-05 0)
(-0.0058898 3.33784e-05 0)
(-0.00591428 3.03474e-05 0)
(-0.00593638 2.72552e-05 0)
(-0.00595605 2.4103e-05 0)
(-0.00597328 2.0893e-05 0)
(-0.005988 1.76258e-05 0)
(-0.00600019 1.43038e-05 0)
(-0.00600979 1.09281e-05 0)
(-0.00601678 7.50138e-06 0)
(-0.0060211 4.02561e-06 0)
(-0.00602272 5.03158e-07 0)
(-0.00602162 -3.06356e-06 0)
(-0.00601778 -6.67192e-06 0)
(-0.00601114 -1.03189e-05 0)
(-0.00600168 -1.40016e-05 0)
(-0.00598936 -1.77171e-05 0)
(-0.00597419 -2.14609e-05 0)
(-0.00595615 -2.52306e-05 0)
(-0.00593519 -2.90219e-05 0)
(-0.0059113 -3.28307e-05 0)
(-0.0058845 -3.66539e-05 0)
(-0.00585475 -4.04858e-05 0)
(-0.00582209 -4.43232e-05 0)
(-0.00578647 -4.81611e-05 0)
(-0.00574789 -5.19949e-05 0)
(-0.0057064 -5.5819e-05 0)
(-0.00566197 -5.96296e-05 0)
(-0.00561464 -6.342e-05 0)
(-0.0055644 -6.71859e-05 0)
(-0.00551128 -7.09209e-05 0)
(-0.00545532 -7.46218e-05 0)
(-0.00539654 -7.82801e-05 0)
(-0.00533496 -8.18915e-05 0)
(-0.00527065 -8.54502e-05 0)
(-0.00520364 -8.89493e-05 0)
(-0.00513396 -9.23848e-05 0)
(-0.00506168 -9.5748e-05 0)
(-0.00498684 -9.90358e-05 0)
(-0.00490952 -0.00010224 0)
(-0.00482976 -0.000105355 0)
(-0.00474766 -0.000108376 0)
(-0.00466328 -0.000111296 0)
(-0.00457669 -0.00011411 0)
(-0.00448797 -0.000116812 0)
(-0.00439722 -0.000119397 0)
(-0.00430453 -0.000121857 0)
(-0.00420999 -0.00012419 0)
(-0.0041137 -0.000126389 0)
(-0.00401577 -0.00012845 0)
(-0.00391628 -0.000130366 0)
(-0.00381536 -0.000132135 0)
(-0.00371313 -0.000133751 0)
(-0.00360969 -0.000135212 0)
(-0.00350518 -0.000136511 0)
(-0.00339969 -0.000137646 0)
(-0.00329338 -0.000138615 0)
(-0.00318636 -0.000139412 0)
(-0.00307876 -0.000140037 0)
(-0.0029707 -0.000140484 0)
(-0.00286234 -0.000140754 0)
(-0.0027538 -0.000140843 0)
(-0.00264522 -0.000140749 0)
(-0.00253675 -0.000140471 0)
(-0.00242851 -0.000140006 0)
(-0.00232065 -0.000139355 0)
(-0.00221333 -0.000138515 0)
(-0.00210667 -0.000137485 0)
(-0.00200083 -0.000136265 0)
(-0.00189595 -0.000134853 0)
(-0.00179218 -0.00013325 0)
(-0.00168966 -0.000131453 0)
(-0.00158855 -0.000129464 0)
(-0.00148899 -0.000127281 0)
(-0.00139113 -0.000124903 0)
(-0.00129512 -0.000122331 0)
(-0.00120111 -0.000119565 0)
(-0.00110927 -0.000116602 0)
(-0.00101971 -0.000113444 0)
(-0.000932617 -0.000110091 0)
(-0.000848123 -0.000106542 0)
(-0.000766384 -0.000102798 0)
(-0.000687552 -9.88589e-05 0)
(-0.000611785 -9.47251e-05 0)
(-0.000539215 -9.0398e-05 0)
(-0.000470005 -8.58796e-05 0)
(-0.000404289 -8.11716e-05 0)
(-0.000342229 -7.62774e-05 0)
(-0.000283947 -7.12011e-05 0)
(-0.000229587 -6.59473e-05 0)
(-0.000179282 -6.05248e-05 0)
(-0.000133164 -5.49411e-05 0)
(-9.13248e-05 -4.9208e-05 0)
(-5.38891e-05 -4.33407e-05 0)
(-2.09431e-05 -3.73587e-05 0)
(7.44816e-06 -3.12875e-05 0)
(3.12427e-05 -2.51569e-05 0)
(5.03995e-05 -1.90113e-05 0)
(6.49626e-05 -1.29031e-05 0)
(7.49827e-05 -6.90251e-06 0)
(8.05895e-05 -1.10139e-06 0)
(8.19877e-05 4.38505e-06 0)
(7.94728e-05 9.40362e-06 0)
(7.34588e-05 1.37644e-05 0)
(6.45005e-05 1.72325e-05 0)
(5.33144e-05 1.95285e-05 0)
(4.07951e-05 2.03356e-05 0)
(2.80045e-05 1.93277e-05 0)
(1.61738e-05 1.62172e-05 0)
(6.82147e-06 1.0894e-05 0)
(8.96891e-07 3.85504e-06 0)
(2.60111e-07 -5.02551e-06 0)
(-3.3898e-07 -4.63503e-06 0)
(-4.82615e-06 2.95146e-06 0)
(-1.49602e-05 1.48992e-05 0)
(-3.19935e-05 2.93866e-05 0)
(-5.66834e-05 4.51825e-05 0)
(-8.94141e-05 6.14323e-05 0)
(-0.00013028 7.75404e-05 0)
(-0.000179158 9.30979e-05 0)
(-0.00023576 0.000107834 0)
(-0.000299685 0.000121583 0)
(-0.000370462 0.000134257 0)
(-0.000447578 0.000145823 0)
(-0.000530504 0.000156292 0)
(-0.000618709 0.000165696 0)
(-0.000711682 0.000174089 0)
(-0.000808929 0.000181534 0)
(-0.000909985 0.000188099 0)
(-0.00101441 0.000193853 0)
(-0.00112182 0.000198867 0)
(-0.00123181 0.000203206 0)
(-0.00134408 0.000206934 0)
(-0.00145829 0.000210111 0)
(-0.00157417 0.000212792 0)
(-0.00169146 0.000215028 0)
(-0.00180994 0.000216864 0)
(-0.00192939 0.000218344 0)
(-0.00204964 0.000219505 0)
(-0.00217051 0.00022038 0)
(-0.00229185 0.000221002 0)
(-0.00241351 0.000221396 0)
(-0.0025354 0.000221587 0)
(-0.00265738 0.000221596 0)
(-0.00277937 0.000221442 0)
(-0.00290127 0.000221141 0)
(-0.00302301 0.000220707 0)
(-0.00314449 0.000220152 0)
(-0.00326567 0.000219487 0)
(-0.00338648 0.000218721 0)
(-0.00350685 0.000217861 0)
(-0.00362674 0.000216914 0)
(-0.00374609 0.000215885 0)
(-0.00386486 0.000214778 0)
(-0.003983 0.000213597 0)
(-0.00410046 0.000212345 0)
(-0.00421722 0.000211024 0)
(-0.00433322 0.000209636 0)
(-0.00444841 0.00020818 0)
(-0.00456278 0.000206658 0)
(-0.00467628 0.000205072 0)
(-0.00478886 0.000203419 0)
(-0.00490049 0.0002017 0)
(-0.00501114 0.000199913 0)
(-0.00512075 0.000198059 0)
(-0.0052293 0.000196136 0)
(-0.00533674 0.00019414 0)
(-0.00544303 0.000192073 0)
(-0.00554813 0.000189931 0)
(-0.00565199 0.000187713 0)
(-0.00575458 0.000185415 0)
(-0.00585585 0.000183037 0)
(-0.00595575 0.000180575 0)
(-0.00605424 0.000178029 0)
(-0.00615127 0.000175394 0)
(-0.00624679 0.00017267 0)
(-0.00634073 0.000169851 0)
(-0.00643307 0.000166937 0)
(-0.00652375 0.000163926 0)
(-0.00661271 0.000160814 0)
(-0.0066999 0.000157599 0)
(-0.00678524 0.00015428 0)
(-0.00686872 0.000150854 0)
(-0.00695024 0.000147317 0)
(-0.00702977 0.00014367 0)
(-0.0071072 0.00013991 0)
(-0.00718253 0.000136034 0)
(-0.0072557 0.000132042 0)
(-0.00732658 0.000127932 0)
(-0.00739517 0.000123703 0)
(-0.00746136 0.000119353 0)
(-0.00752514 0.000114883 0)
(-0.00758641 0.000110291 0)
(-0.00764509 0.000105576 0)
(-0.00770118 0.000100739 0)
(-0.00775457 9.57798e-05 0)
(-0.00780515 9.06982e-05 0)
(-0.00785295 8.54937e-05 0)
(-0.00789783 8.01692e-05 0)
(-0.00793979 7.47244e-05 0)
(-0.0079787 6.91599e-05 0)
(-0.00801457 6.3478e-05 0)
(-0.00804728 5.7681e-05 0)
(-0.0080768 5.17699e-05 0)
(-0.00810305 4.57468e-05 0)
(-0.008126 3.96152e-05 0)
(-0.00814556 3.33774e-05 0)
(-0.0081617 2.70363e-05 0)
(-0.00817439 2.05963e-05 0)
(-0.00818352 1.40609e-05 0)
(-0.00818907 7.43369e-06 0)
(-0.00819102 7.19028e-07 0)
(-0.00818929 -6.07756e-06 0)
(-0.00818385 -1.29517e-05 0)
(-0.00817465 -1.98979e-05 0)
(-0.00816168 -2.69093e-05 0)
(-0.00814488 -3.3982e-05 0)
(-0.00812424 -4.11076e-05 0)
(-0.00809974 -4.828e-05 0)
(-0.00807132 -5.5493e-05 0)
(-0.00803901 -6.27386e-05 0)
(-0.00800276 -7.00085e-05 0)
(-0.00796257 -7.72958e-05 0)
(-0.00791846 -8.45912e-05 0)
(-0.00787037 -9.18877e-05 0)
(-0.00781837 -9.91746e-05 0)
(-0.00776244 -0.000106442 0)
(-0.00770257 -0.000113682 0)
(-0.0076388 -0.000120885 0)
(-0.00757115 -0.00012804 0)
(-0.00749967 -0.000135138 0)
(-0.00742438 -0.000142168 0)
(-0.00734529 -0.000149118 0)
(-0.0072625 -0.00015598 0)
(-0.00717602 -0.000162741 0)
(-0.00708591 -0.00016939 0)
(-0.00699225 -0.000175917 0)
(-0.0068951 -0.00018231 0)
(-0.00679455 -0.000188559 0)
(-0.00669065 -0.000194651 0)
(-0.0065835 -0.000200576 0)
(-0.0064732 -0.000206323 0)
(-0.00635986 -0.000211881 0)
(-0.00624354 -0.000217237 0)
(-0.00612437 -0.000222384 0)
(-0.00600249 -0.000227311 0)
(-0.00587798 -0.000232005 0)
(-0.005751 -0.000236458 0)
(-0.00562164 -0.00024066 0)
(-0.00549007 -0.000244603 0)
(-0.00535642 -0.000248276 0)
(-0.00522082 -0.000251671 0)
(-0.00508344 -0.000254781 0)
(-0.00494442 -0.000257596 0)
(-0.00480393 -0.00026011 0)
(-0.00466212 -0.000262316 0)
(-0.00451914 -0.000264208 0)
(-0.00437519 -0.000265778 0)
(-0.00423043 -0.000267024 0)
(-0.00408502 -0.000267936 0)
(-0.00393916 -0.000268514 0)
(-0.00379301 -0.000268751 0)
(-0.00364676 -0.000268643 0)
(-0.00350061 -0.000268187 0)
(-0.00335471 -0.000267379 0)
(-0.00320928 -0.000266219 0)
(-0.0030645 -0.000264701 0)
(-0.00292056 -0.000262824 0)
(-0.00277766 -0.000260586 0)
(-0.00263598 -0.000257984 0)
(-0.00249573 -0.000255019 0)
(-0.0023571 -0.000251687 0)
(-0.0022203 -0.000247988 0)
(-0.00208552 -0.00024392 0)
(-0.00195294 -0.000239481 0)
(-0.0018228 -0.000234672 0)
(-0.00169527 -0.00022949 0)
(-0.00157058 -0.000223937 0)
(-0.00144891 -0.00021801 0)
(-0.00133047 -0.000211709 0)
(-0.00121547 -0.000205036 0)
(-0.0011041 -0.000197988 0)
(-0.000996573 -0.000190568 0)
(-0.000893092 -0.000182778 0)
(-0.000793848 -0.000174619 0)
(-0.000699052 -0.000166096 0)
(-0.000608888 -0.000157212 0)
(-0.000523549 -0.000147975 0)
(-0.000443234 -0.000138394 0)
(-0.000368117 -0.00012848 0)
(-0.000298361 -0.000118247 0)
(-0.000234147 -0.000107714 0)
(-0.00017561 -9.69069e-05 0)
(-0.000122879 -8.58541e-05 0)
(-7.60807e-05 -7.45949e-05 0)
(-3.52922e-05 -6.31793e-05 0)
(-5.6468e-07 -5.16707e-05 0)
(2.80765e-05 -4.01509e-05 0)
(5.06764e-05 -2.87206e-05 0)
(6.7332e-05 -1.75134e-05 0)
(7.82137e-05 -6.6978e-06 0)
(8.35928e-05 3.51309e-06 0)
(8.38543e-05 1.28524e-05 0)
(7.95214e-05 2.09868e-05 0)
(7.12749e-05 2.75194e-05 0)
(5.99787e-05 3.19887e-05 0)
(4.66885e-05 3.3892e-05 0)
(3.26344e-05 3.27228e-05 0)
(1.92395e-05 2.80385e-05 0)
(8.32137e-06 1.95797e-05 0)
(1.11724e-06 7.54268e-06 0)
(-1.54814e-07 -4.56461e-06 0)
(-3.6318e-06 -4.99775e-07 0)
(-1.29339e-05 1.28521e-05 0)
(-2.9734e-05 3.19911e-05 0)
(-5.50458e-05 5.46042e-05 0)
(-8.95519e-05 7.90688e-05 0)
(-0.000133602 0.000104211 0)
(-0.00018727 0.000129183 0)
(-0.000250408 0.00015338 0)
(-0.000322697 0.000176388 0)
(-0.000403695 0.000197941 0)
(-0.000492877 0.000217893 0)
(-0.000589662 0.000236176 0)
(-0.000693453 0.00025279 0)
(-0.000803642 0.000267776 0)
(-0.000919635 0.000281202 0)
(-0.00104086 0.000293157 0)
(-0.00116677 0.00030374 0)
(-0.00129685 0.000313052 0)
(-0.00143061 0.000321198 0)
(-0.00156763 0.000328275 0)
(-0.00170747 0.000334382 0)
(-0.00184979 0.000339609 0)
(-0.00199422 0.000344042 0)
(-0.00214045 0.000347758 0)
(-0.00228822 0.00035083 0)
(-0.00243724 0.000353324 0)
(-0.00258729 0.000355299 0)
(-0.00273816 0.000356809 0)
(-0.00288967 0.000357902 0)
(-0.00304164 0.000358622 0)
(-0.0031939 0.000359006 0)
(-0.00334634 0.00035909 0)
(-0.00349881 0.000358901 0)
(-0.0036512 0.000358468 0)
(-0.00380341 0.000357812 0)
(-0.00395533 0.000356954 0)
(-0.00410689 0.00035591 0)
(-0.00425798 0.000354696 0)
(-0.00440856 0.000353323 0)
(-0.00455853 0.000351803 0)
(-0.00470783 0.000350143 0)
(-0.00485641 0.000348353 0)
(-0.0050042 0.000346437 0)
(-0.00515115 0.0003444 0)
(-0.00529719 0.000342246 0)
(-0.00544227 0.000339978 0)
(-0.00558635 0.000337598 0)
(-0.00572937 0.000335106 0)
(-0.00587128 0.000332505 0)
(-0.00601202 0.000329793 0)
(-0.00615156 0.00032697 0)
(-0.00628983 0.000324035 0)
(-0.00642679 0.000320987 0)
(-0.00656239 0.000317825 0)
(-0.00669659 0.000314544 0)
(-0.0068293 0.000311144 0)
(-0.00696049 0.000307622 0)
(-0.00709011 0.000303974 0)
(-0.00721811 0.000300197 0)
(-0.00734441 0.000296288 0)
(-0.00746897 0.000292244 0)
(-0.00759174 0.000288063 0)
(-0.00771264 0.000283737 0)
(-0.00783162 0.000279265 0)
(-0.0079486 0.000274644 0)
(-0.00806356 0.000269867 0)
(-0.00817635 0.000264935 0)
(-0.00828701 0.00025984 0)
(-0.00839541 0.000254581 0)
(-0.00850149 0.000249156 0)
(-0.00860518 0.000243556 0)
(-0.00870642 0.000237784 0)
(-0.00880511 0.000231832 0)
(-0.00890122 0.000225701 0)
(-0.00899463 0.000219387 0)
(-0.00908532 0.000212889 0)
(-0.00917315 0.000206198 0)
(-0.00925809 0.000199323 0)
(-0.00934003 0.000192256 0)
(-0.00941893 0.000184995 0)
(-0.0094947 0.000177544 0)
(-0.00956725 0.000169898 0)
(-0.00963649 0.000162058 0)
(-0.00970237 0.000154023 0)
(-0.00976482 0.000145795 0)
(-0.0098237 0.000137374 0)
(-0.00987904 0.000128764 0)
(-0.00993064 0.000119962 0)
(-0.00997852 0.000110972 0)
(-0.0100226 0.000101795 0)
(-0.0100627 9.2437e-05 0)
(-0.0100989 8.28989e-05 0)
(-0.010131 7.31844e-05 0)
(-0.010159 6.32991e-05 0)
(-0.0101829 5.32456e-05 0)
(-0.0102025 4.303e-05 0)
(-0.0102177 3.26581e-05 0)
(-0.0102286 2.21356e-05 0)
(-0.0102351 1.14692e-05 0)
(-0.0102371 6.65765e-07 0)
(-0.0102345 -1.02682e-05 0)
(-0.0102274 -2.13221e-05 0)
(-0.0102156 -3.24901e-05 0)
(-0.0101992 -4.37603e-05 0)
(-0.010178 -5.51258e-05 0)
(-0.0101521 -6.6575e-05 0)
(-0.0101215 -7.80972e-05 0)
(-0.010086 -8.96809e-05 0)
(-0.0100456 -0.000101316 0)
(-0.0100005 -0.000112988 0)
(-0.00995045 -0.000124684 0)
(-0.0098956 -0.000136394 0)
(-0.00983586 -0.000148101 0)
(-0.00977134 -0.000159792 0)
(-0.00970188 -0.000171453 0)
(-0.00962761 -0.000183067 0)
(-0.00954858 -0.00019462 0)
(-0.00946475 -0.000206096 0)
(-0.00937618 -0.000217478 0)
(-0.00928293 -0.000228753 0)
(-0.00918507 -0.000239898 0)
(-0.00908256 -0.000250901 0)
(-0.00897557 -0.000261741 0)
(-0.0088641 -0.000272403 0)
(-0.00874824 -0.000282871 0)
(-0.00862815 -0.000293124 0)
(-0.00850381 -0.000303147 0)
(-0.0083754 -0.000312923 0)
(-0.00824297 -0.000322429 0)
(-0.00810665 -0.000331653 0)
(-0.00796656 -0.000340576 0)
(-0.00782284 -0.000349181 0)
(-0.00767562 -0.00035745 0)
(-0.00752505 -0.00036537 0)
(-0.00737121 -0.000372923 0)
(-0.00721432 -0.00038009 0)
(-0.00705452 -0.00038686 0)
(-0.00689197 -0.000393222 0)
(-0.00672685 -0.000399152 0)
(-0.0065593 -0.000404641 0)
(-0.00638954 -0.000409676 0)
(-0.00621774 -0.000414249 0)
(-0.00604409 -0.000418342 0)
(-0.00586879 -0.000421944 0)
(-0.00569203 -0.000425048 0)
(-0.00551402 -0.000427643 0)
(-0.00533498 -0.000429721 0)
(-0.0051551 -0.000431271 0)
(-0.00497461 -0.000432288 0)
(-0.00479372 -0.000432761 0)
(-0.00461266 -0.000432687 0)
(-0.00443166 -0.000432058 0)
(-0.00425092 -0.000430869 0)
(-0.00407069 -0.000429114 0)
(-0.00389121 -0.000426791 0)
(-0.0037127 -0.000423894 0)
(-0.00353539 -0.000420419 0)
(-0.00335955 -0.000416364 0)
(-0.00318538 -0.000411724 0)
(-0.00301315 -0.000406497 0)
(-0.0028431 -0.00040068 0)
(-0.00267546 -0.000394272 0)
(-0.00251048 -0.000387269 0)
(-0.00234844 -0.00037967 0)
(-0.00218954 -0.000371472 0)
(-0.00203405 -0.000362676 0)
(-0.00188223 -0.000353278 0)
(-0.00173433 -0.000343279 0)
(-0.00159057 -0.000332679 0)
(-0.00145125 -0.000321478 0)
(-0.00131658 -0.000309679 0)
(-0.00118681 -0.000297284 0)
(-0.00106221 -0.000284296 0)
(-0.000943021 -0.000270724 0)
(-0.000829472 -0.000256576 0)
(-0.000721797 -0.000241862 0)
(-0.000620226 -0.000226599 0)
(-0.000524989 -0.000210807 0)
(-0.000436288 -0.000194511 0)
(-0.000354302 -0.000177744 0)
(-0.000279232 -0.000160547 0)
(-0.00021121 -0.00014297 0)
(-0.000150389 -0.000125079 0)
(-9.68592e-05 -0.000106957 0)
(-5.06772e-05 -8.8707e-05 0)
(-1.18426e-05 -7.04602e-05 0)
(1.96895e-05 -5.23793e-05 0)
(4.40414e-05 -3.4674e-05 0)
(6.14321e-05 -1.76035e-05 0)
(7.21761e-05 -1.49395e-06 0)
(7.67314e-05 1.32541e-05 0)
(7.56928e-05 2.61521e-05 0)
(6.98302e-05 3.66275e-05 0)
(6.01026e-05 4.4026e-05 0)
(4.76648e-05 4.76491e-05 0)
(3.38622e-05 4.67949e-05 0)
(2.02555e-05 4.08274e-05 0)
(8.87945e-06 2.92423e-05 0)
(1.19891e-06 1.17579e-05 0)
(-6.03146e-07 -2.45777e-06 0)
(-7.28851e-06 7.79344e-06 0)
(-2.19477e-05 2.89116e-05 0)
(-4.60941e-05 5.69577e-05 0)
(-8.03899e-05 8.92496e-05 0)
(-0.000125356 0.000123842 0)
(-0.000181248 0.000159283 0)
(-0.000248075 0.000194486 0)
(-0.000325638 0.000228655 0)
(-0.000413577 0.00026123 0)
(-0.000511406 0.000291838 0)
(-0.000618552 0.000320264 0)
(-0.000734387 0.000346401 0)
(-0.000858256 0.000370234 0)
(-0.000989491 0.000391804 0)
(-0.00112744 0.000411196 0)
(-0.00127146 0.000428524 0)
(-0.00142094 0.000443912 0)
(-0.0015753 0.0004575 0)
(-0.001734 0.000469426 0)
(-0.00189654 0.000479826 0)
(-0.00206244 0.000488834 0)
(-0.00223128 0.000496574 0)
(-0.00240265 0.000503165 0)
(-0.0025762 0.000508716 0)
(-0.00275159 0.000513329 0)
(-0.00292853 0.000517097 0)
(-0.00310672 0.000520105 0)
(-0.00328594 0.000522428 0)
(-0.00346594 0.000524136 0)