/*--------------------------------*- C++ -*----------------------------------*\
  =========                 |
  \\      /  F ield         | OpenFOAM: The Open Source CFD Toolbox
   \\    /   O peration     | Website:  https://openfoam.org
    \\  /    A nd           | Version:  6
     \\/     M anipulation  |
\*---------------------------------------------------------------------------*/
FoamFile
{
    version     2.0;
    format      ascii;
    class       volVectorField;
    location    "0";
    object      U_rec;
}
// * * * * * * * * * * * * * * * * * * * * * * * * * * * * * * * * * * * * * //

dimensions      [0 1 -1 0 0 0 0];

internalField   nonuniform List<vector> 
918
(
(0.995752 -0.00539478 0)
(-0.00294594 2.97484 0)
(-0.0292076 1.7366 0)
(0.976357 0.0216397 0)
(-0.0297536 1.69636 5.0035e-17)
(0.00596772 2.96849 -5.07633e-17)
(1.14583 1.60316 -2.12736e-18)
(0.525239 0.290214 5.71383e-20)
(1.00336 -0.00674338 0)
(-0.000335172 1.77215 0)
(0.0120851 1.71617 0)
(0.930941 0.0204184 0)
(0.00792127 2.95565 0)
(-0.00907363 2.90445 0)
(-0.0146526 2.91356 7.7869e-18)
(0.00784093 1.69644 2.93123e-17)
(0.711453 0.157753 1.17698e-17)
(0.216922 2.0351 -3.70911e-17)
(0.996385 0.0440655 0)
(0.0115978 1.7205 0)
(0.127235 0.142135 -2.32614e-18)
(0.979476 0.0156436 0)
(0.985459 0.00822852 0)
(0.99584 0.0255914 0)
(0.855701 0.025869 0)
(0.0276936 2.88551 0)
(-0.0195443 2.94296 -7.20745e-17)
(0.0136023 1.7453 0)
(0.00522645 1.763 0)
(0.0175338 1.75976 0)
(-0.0102956 1.78716 0)
(-0.0118244 1.71991 5.01985e-17)
(-0.00726076 1.69235 0)
(-0.0140797 2.98984 -4.72229e-22)
(-0.00403045 3.00986 -2.84663e-17)
(0.0115794 2.99094 0)
(0.978851 0.00657061 0)
(0.56528 0.774872 -5.92488e-18)
(1.08149 1.65959 1.26814e-18)
(1.21908 1.36833 1.33785e-17)
(0.936084 1.85939 9.67731e-18)
(0.987974 1.82278 6.73243e-18)
(0.55076 0.329398 2.06762e-19)
(0.556583 0.284959 0)
(1.31357 0.710883 0)
(0.509543 0.339846 7.47212e-19)
(0.470408 0.295454 7.52245e-20)
(0.966411 0.00640251 0)
(0.995049 0.000215514 0)
(1.00528 0.00631369 0)
(0.961722 -0.00770348 0)
(0.983419 0.00572513 0)
(1.00796 0.0129512 0)
(-0.00243603 1.62635 -3.40901e-18)
(0.00525955 1.81809 0)
(0.0284246 1.8175 0)
(0.00580392 1.79211 0)
(0.00700809 1.73938 0)
(-0.00329629 1.69509 0)
(0.00261961 1.74468 0)
(0.0041541 1.71699 0)
(0.0038328 1.7452 0)
(0.0135534 1.72 0)
(0.989491 -0.01275 0)
(0.960412 0.0148857 0)
(0.940866 0.00263147 0)
(0.939314 0.0192191 0)
(0.925065 0.00353238 0)
(-0.0127351 3.03042 3.12045e-17)
(-0.00419693 2.97115 0)
(-0.0141529 2.99599 0)
(0.0379395 3.00855 5.86231e-23)
(0.0188286 3.01463 1.97927e-17)
(0.0118383 2.98564 0)
(-0.00249165 2.94168 0)
(-0.00638186 2.97688 1.07337e-23)
(-0.0083562 2.91391 0)
(-0.0101954 2.98195 0)
(-0.00876696 2.89704 0)
(0.199294 3.12094 0)
(-0.0653869 3.20663 0)
(0.0709444 2.96569 1.3453e-17)
(-0.00388336 2.82645 0)
(-0.00273876 1.74732 0)
(0.00846404 1.72858 3.00926e-17)
(0.0144308 1.69659 2.91743e-17)
(0.726379 0.183626 -8.12044e-18)
(0.723481 0.135957 -1.92556e-18)
(0.712147 0.219638 6.22964e-18)
(0.670333 0.202559 -1.55481e-17)
(0.1655 1.3887 0)
(0.340876 2.12009 -3.53388e-17)
(0.454924 2.09396 -3.92895e-17)
(0.982128 0.0349108 0)
(0.959303 0.0197077 0)
(1.00635 -0.010892 0)
(0.985521 0.000218724 0)
(1.02592 0.041306 7.40025e-17)
(1.00075 0.0124458 1.45295e-16)
(-0.00155229 1.74707 0)
(-0.00379164 1.71966 0)
(-0.00129683 1.75767 0)
(0.0130318 1.7439 0)
(0.0181067 1.71981 0)
(0.0683478 0.361535 -9.5983e-20)
(0.322115 0.240672 0)
(1.02747 -0.00351546 0)
(1.00217 0.00509453 0)
(0.930207 0.00647814 0)
(0.905219 0.0249316 0)
(0.917101 0.00242486 0)
(1.12667 -0.00616784 0)
(0.846757 0.0689242 0)
(0.796967 0.0471147 3.74308e-17)
(-0.0067832 2.84769 2.91492e-17)
(0.015622 2.99221 0)
(-0.0213534 3.00732 0)
(0.0018561 2.87277 0)
(-0.0246123 2.98741 -2.1155e-17)
(-0.026524 2.92304 0)
(-0.0224123 2.9957 -3.88146e-17)
(-0.00999949 2.95817 3.0141e-17)
(0.0101791 1.75573 0)
(0.00774405 1.75163 0)
(-0.00658739 1.73008 -2.29498e-20)
(-0.0050243 1.72544 0)
(-0.00648199 1.69433 0)
(0.998702 0.00916058 0)
(0.985039 0.00134712 0)
(0.958591 -0.0121077 0)
(0.992361 0.0120434 0)
(0.974092 0.00463462 0)
(0.642865 1.00089 -9.17974e-18)
(0.532336 0.940239 0)
(0.706604 1.00701 -6.03394e-19)
(0.613954 0.814358 0)
(1.15569 1.42849 1.79339e-17)
(1.27953 1.11903 -2.41737e-18)
(0.559707 2.12349 0)
(0.752617 2.02968 0)
(0.754256 2.0125 0)
(0.57628 1.24699 -7.37783e-18)
(0.605533 0.312434 0)
(0.616607 0.245354 -1.64711e-18)
(1.21508 1.18416 0)
(1.26469 0.956707 0)
(1.29827 0.907361 2.58944e-18)
(1.28112 0.725651 0)
(1.31946 0.500486 -2.52952e-17)
(0.985762 -0.00117683 0)
(0.991894 -0.000222785 0)
(0.966583 -0.0157614 0)
(0.994179 0.00405296 0)
(0.984554 0.00150937 0)
(0.971897 0.00361181 0)
(0.982715 -0.00698948 0)
(0.986943 0.002752 0)
(1.00493 0.00136092 0)
(0.0232685 1.64161 2.98156e-17)
(0.0395435 1.58679 0)
(-0.00685505 1.6571 3.85407e-18)
(-0.0158124 1.63488 -3.05232e-18)
(0.170095 1.99857 -3.39401e-17)
(0.0502511 1.86749 0)
(0.0713089 1.89503 0)
(0.00719895 1.77029 0)
(-0.00956606 1.73615 0)
(0.00361931 1.71666 -1.06364e-20)
(0.00341163 1.68207 0)
(-0.0111991 1.72096 -3.04118e-17)
(-0.00399336 1.697 1.72366e-18)
(-0.0128413 1.76372 0)
(-0.00182905 1.7496 0)
(-0.0102199 1.72348 0)
(0.0051971 1.74218 0)
(0.0042136 1.71653 0)
(1.01988 0.00494048 0)
(1.0062 0.0147043 0)
(1.021 0.0104691 0)
(0.987178 0.0192429 0)
(0.961855 -0.000938257 0)
(0.980519 0.00167629 0)
(0.971461 0.0124406 0)
(0.962282 -0.00649945 0)
(0.00639509 3.03514 -4.28985e-20)
(0.00490675 3.03281 0)
(-0.00469937 2.98652 0)
(-0.00312492 2.93664 0)
(0.809743 3.50974 0)
(1.13914 2.56627 -3.19426e-18)
(0.0224362 2.91079 0)
(-0.00477268 2.80607 0)
(-0.00215943 1.73162 0)
(0.00285991 1.7453 0)
(-0.00231012 1.74125 0)
(-0.010138 1.77579 -6.66437e-17)
(-0.00811275 1.74099 0)
(-0.00881173 1.76503 0)
(-0.014977 1.69779 -5.93283e-17)
(-0.00896185 1.73088 -2.90635e-17)
(0.00465454 1.7399 3.01732e-17)
(0.0103989 1.70807 0)
(0.758825 0.140148 -1.01262e-17)
(0.748975 0.0775343 -1.61651e-17)
(0.177298 1.41357 0)
(0.250542 1.3691 -7.48624e-19)
(0.12936 1.43207 -2.81598e-17)
(0.119515 1.43394 -2.31944e-17)
(0.964143 -0.00370899 0)
(0.979979 -0.00313648 0)
(0.981674 0.0042998 0)
(0.957601 0.00496226 0)
(0.00286945 1.7416 0)
(0.000931232 1.74609 0)
(-0.00636526 1.72529 0)
(0.434085 0.349118 4.59579e-18)
(0.330647 0.351565 -5.86184e-18)
(0.41091 0.277923 0)
(1.21117 0.0986864 2.72301e-19)
(1.21663 0.068025 0)
(1.13359 0.0537752 0)
(1.0663 0.0140079 0)
(0.782495 0.100239 0)
(0.804363 0.0658392 -1.93423e-20)
(0.778332 0.0340799 -8.17284e-18)
(-0.0118326 2.94768 -2.09963e-17)
(-0.0201623 2.87091 -5.03037e-17)
(-0.00744024 3.02148 -9.58678e-20)
(0.00595225 3.00359 -2.56482e-17)
(-0.0154834 3.00609 1.41439e-19)
(-0.00133021 2.97628 -6.13348e-22)
(-0.00859332 3.00143 -8.2028e-18)
(-0.0207662 2.96478 -3.61705e-18)
(0.012067 2.99086 -3.21846e-17)
(1.01091 0.0135896 0)
(1.00995 0.00990215 0)
(0.988378 0.0137428 0)
(0.985748 -0.0123305 0)
(0.98899 -0.00370659 0)
(0.970115 -0.0146271 0)
(0.979282 0.00864418 0)
(0.984242 0.00209206 0)
(0.962004 0.00862159 0)
(0.626775 1.16845 -2.7336e-18)
(0.61821 1.2156 0)
(0.637251 1.06604 1.9687e-18)
(0.665029 1.16167 3.74456e-18)
(0.69498 1.0723 -1.49324e-17)
(0.628439 0.927014 -8.25952e-18)
(0.485501 1.33115 1.18097e-17)
(0.50015 1.28809 1.92132e-17)
(0.671203 0.252579 -2.64426e-18)
(0.644769 0.274169 -1.10395e-18)
(0.646472 0.231847 7.56049e-18)
(1.30739 0.531274 -2.80847e-17)
(1.31767 0.340857 -2.98268e-18)
(-0.0010112 1.67536 -2.71822e-17)
(0.00630334 1.6652 0)
(1.07252 0.0303744 0)
(1.05105 0.0197232 0)
(1.03476 -0.00566926 0)
(0.0160411 3.04283 0)
(0.00203543 2.9804 -1.95663e-17)
(-0.000508498 2.98474 0)
(-0.00642022 2.92873 -3.17671e-17)
(0.0259393 3.05832 1.62336e-17)
(0.015945 3.04772 0)
(0.618641 1.43152 -1.51154e-18)
(0.982081 2.07027 -1.39245e-17)
(0.675351 1.55029 -9.08897e-18)
(-0.00611392 2.9243 2.06297e-17)
(-0.000984553 2.90576 0)
(-0.00148621 2.82352 0)
(0.00220853 1.72637 5.89141e-17)
(-0.00935184 1.73438 -1.66432e-18)
(0.00518434 1.71186 5.88179e-17)
(0.251465 1.38672 -9.80154e-18)
(0.318861 1.35347 -1.35674e-17)
(0.0373999 1.58168 -2.45392e-17)
(0.0762819 1.5016 -2.88776e-17)
(0.0517586 1.5052 -5.3108e-17)
(0.00919928 3.05848 9.24464e-17)
(0.0176011 3.06273 1.12664e-16)
(-0.013588 2.98207 2.99529e-17)
(-0.0319085 2.96161 -2.94986e-17)
(-0.0341401 2.90754 2.13715e-17)
(0.0283246 3.06032 -9.96842e-17)
(0.0201008 3.06304 -9.257e-17)
(0.565685 1.28376 0)
(0.624723 1.23753 -1.70066e-17)
(0.619995 1.18526 -9.39111e-18)
(0.42029 1.33411 3.32053e-17)
(0.447928 1.30708 1.27539e-17)
(1.29689 0.19084 8.85235e-19)
(1.30544 0.335983 0)
(1.29243 0.163547 -1.53832e-18)
(-0.00617278 1.70845 -1.56088e-20)
(0.00921041 1.70098 0)
(0.00241277 1.67901 0)
(0.307703 1.36058 -6.50549e-19)
(0.365374 1.35533 -3.19871e-17)
(0.380237 1.32267 -2.00585e-17)
(1.00953 -0.0497955 0)
(0.992057 -0.0402937 2.03916e-17)
(0.00530536 1.75617 0)
(-0.00108751 1.77132 0)
(0.976834 -0.00877007 3.9595e-19)
(1.00048 -0.0119936 3.25143e-17)
(0.000762205 1.7672 -6.69174e-17)
(-0.00278957 1.76597 0)
(0.0236151 3.04209 2.9028e-17)
(0.276665 3.07536 0)
(1.09016 0.70033 -2.56794e-17)
(1.00497 -0.00597544 7.4317e-17)
(1.00847 0.0107588 0)
(1.00445 -0.00813962 3.08938e-19)
(0.0408603 1.8528 0)
(0.0418267 1.64338 0)
(-0.00489185 1.7737 0)
(0.00505159 1.74393 -6.44693e-17)
(0.00491885 1.73638 6.62915e-17)
(0.984694 0.00494344 7.28382e-17)
(1.03818 0.00213744 0)
(1.04981 0.031883 0)
(0.00484783 1.74381 0)
(-0.0144181 1.76927 0)
(-0.00755833 1.77479 0)
(0.22696 1.9738 -7.03389e-17)
(0.99136 -0.0357661 0)
(0.984952 -0.032695 0)
(1.00435 -0.000408917 -6.4826e-18)
(1.00574 -0.00545411 9.0311e-18)
(0.982889 0.00805654 0)
(-0.00542633 1.73525 0)
(0.0104582 1.74405 0)
(0.000642693 1.73155 0)
(-0.000224779 1.77238 0)
(-0.00617114 1.76541 0)
(-0.0056108 1.76971 0)
(1.01817 0.00615266 0)
(1.01025 -0.00456751 7.44656e-17)
(0.786815 1.61737 -5.19913e-18)
(1.01725 -0.00546811 6.79661e-18)
(1.00844 0.013715 -8.74995e-18)
(0.987175 0.00342095 0)
(1.00943 0.00267658 4.26526e-17)
(0.979984 -0.00985978 2.96376e-17)
(0.985139 -0.00412141 0)
(-0.00942932 1.77114 0)
(-0.00467552 1.76322 -3.32501e-17)
(-0.00276426 1.76953 -3.03749e-17)
(1.16839 0.266744 -3.8181e-17)
(1.09468 0.0707308 0)
(-0.10519 2.98354 1.5273e-17)
(-0.181256 3.16789 -7.24566e-20)
(0.0595259 3.07962 5.59256e-17)
(0.0110899 3.04711 2.78555e-17)
(0.0814427 3.0263 0)
(-0.00418645 3.05748 1.49726e-17)
(-0.0328991 3.13476 2.97102e-17)
(-0.0227949 3.06632 9.77829e-18)
(-0.00741608 3.08827 0)
(0.658389 0.336886 0)
(0.556956 0.386631 0)
(1.02999 0.806712 3.3697e-17)
(1.10049 0.88544 2.31157e-17)
(1.14754 0.626513 0)
(1.17339 0.552624 0)
(1.01767 -0.00508527 -8.48327e-18)
(1.01887 -0.00445067 1.30449e-17)
(1.02328 0.0214359 0)
(1.01915 0.006977 0)
(1.00131 0.0131522 0)
(1.00274 0.0051742 0)
(1.02567 -0.0138126 0)
(1.01958 0.0021364 0)
(1.01923 0.0243479 0)
(1.02022 0.0195387 0)
(0.0489297 1.85303 0)
(0.0209042 1.85551 0)
(0.0668977 1.87954 0)
(0.0395344 1.90333 0)
(0.0584865 1.62324 0)
(0.0612402 1.62307 2.81513e-17)
(0.0417064 1.66985 0)
(0.0275282 1.67289 3.05052e-17)
(0.0160599 1.73769 -6.40761e-17)
(-0.0145881 1.77485 0)
(-0.0196507 1.77575 0)
(0.012184 1.78236 0)
(0.000478933 1.79828 0)
(0.00918869 1.75638 -6.70109e-17)
(-0.00542647 1.74446 -4.0914e-17)
(0.00977034 1.75841 3.46067e-17)
(0.0105539 1.76406 0)
(0.0212618 1.75934 2.51247e-17)
(0.00224837 1.76673 -6.41253e-17)
(-0.0307668 1.76522 -9.97228e-17)
(0.0102126 1.7442 -4.32433e-17)
(0.00811001 1.75465 3.18652e-17)
(0.990435 0.0142292 1.08874e-17)
(0.997362 0.00774594 -1.2208e-17)
(0.985771 0.00801986 -6.431e-18)
(0.966152 0.00443035 1.18952e-17)
(1.02882 -0.0101853 0)
(1.03664 -0.0123702 0)
(1.03095 0.0217462 0)
(1.05223 0.0256784 0)
(1.05906 0.0227853 0)
(1.05887 0.0572975 0)
(1.06711 0.0493669 0)
(1.0784 0.0402949 0)
(-0.00206077 1.76666 8.65132e-18)
(0.00535969 1.73031 0)
(-0.00297543 1.74005 0)
(-0.0192809 1.77205 -1.25398e-17)
(-0.0217639 1.779 -1.70269e-21)
(-0.00484859 1.73691 3.92454e-17)
(-0.00505148 1.74868 3.84777e-17)
(0.0208956 1.75549 0)
(-0.00668473 1.74777 0)
(-0.0100622 1.74413 0)
(0.00608182 1.77331 0)
(0.00394482 1.76978 0)
(0.384097 1.9798 -5.49734e-17)
(0.385544 1.98245 3.44758e-17)
(0.241092 1.4608 -9.4718e-19)
(0.109979 1.50463 2.90016e-17)
(0.292921 1.59975 3.34798e-17)
(0.99812 -0.00343984 0)
(0.988977 -0.02034 0)
(0.995603 -0.00464347 0)
(1.02696 -0.00412648 0)
(1.00253 -0.0124235 0)
(0.984075 -0.0134218 0)
(0.973161 0.0262317 0)
(1.01387 0.0461399 0)
(1.00265 0.00225133 1.20877e-17)
(1.00939 0.0140016 -1.2796e-17)
(1.00951 -0.0102361 -7.5922e-18)
(1.00979 -0.00661662 1.23278e-17)
(0.724627 1.73342 0)
(0.680733 1.79833 -7.19825e-17)
(0.855833 1.49501 5.83913e-17)
(0.906072 1.41873 6.39724e-17)
(0.84744 1.68519 -8.5963e-18)
(0.845248 0.120723 -1.12585e-17)
(1.11833 0.127681 0)
(1.10906 0.17498 -9.43744e-17)
(1.14607 0.13304 -3.80199e-19)
(0.945052 0.148168 0)
(0.0796291 2.79898 5.35112e-17)
(-0.178357 2.68799 4.83449e-17)
(-0.586145 2.53862 1.35762e-17)
(-0.362187 0.227683 -1.34541e-17)
(0.156667 3.06605 -8.64113e-18)
(0.0537071 3.05496 0)
(0.140337 3.03499 -1.33545e-17)
(0.0990623 2.83463 5.03132e-17)
(0.271707 2.8901 0)
(0.000743491 3.05945 1.98171e-19)
(-0.0022624 3.07801 -2.62336e-17)
(0.0201077 3.09358 -1.78494e-17)
(-0.0082795 3.11579 0)
(-0.00543989 3.07869 0)
(0.885438 1.90151 0)
(0.287266 0.817755 3.83911e-17)
(1.02749 1.17621 -2.69366e-17)
(0.965991 1.26533 0)
(0.751466 1.14417 -1.5185e-17)
(1.00471 1.03849 -5.40953e-17)
(0.351804 0.526988 -9.25753e-18)
(0.653374 0.340546 1.05597e-17)
(0.668383 0.315415 1.48977e-17)
(0.50619 0.432527 3.14709e-19)
(0.499883 0.392704 -8.28573e-18)
(0.635347 0.368591 0)
(0.629633 0.433123 1.60879e-17)
(0.645152 0.401572 0)
(0.564744 0.390154 0)
(0.603793 0.354975 0)
(0.670297 0.679213 3.45285e-17)
(1.18833 0.360666 2.23262e-17)
(1.17464 0.446061 0)
(1.1815 0.402944 0)
(0.760886 0.238854 2.32112e-17)
(0.712284 0.566871 2.79102e-17)
(0.653011 0.512459 1.68882e-17)
(0.855284 0.4373 -7.99691e-17)
(1.00343 0.0185627 4.18681e-17)
(1.0144 -0.000245335 2.82038e-17)
(1.00662 0.0143028 0)
(1.01215 0.00582994 0)
(1.01548 -0.0200451 -4.07799e-17)
(1.01128 -0.0142679 -2.72869e-17)
(1.00713 -0.0163699 0)
(0.991755 -0.00560231 0)
(1.01191 -0.00282542 0)
(1.01748 -0.00571226 0)
(1.00323 -0.00943499 0)
(1.00718 0.00392799 0)
(0.0202411 1.83956 0)
(0.00985755 1.82543 0)
(0.0582711 1.83798 -4.84126e-17)
(0.20492 1.97097 -3.62201e-17)
(0.0792864 1.9377 6.51242e-17)
(0.093253 1.96866 3.58014e-17)
(0.113993 1.84901 0)
(0.131657 1.73225 6.06084e-17)
(0.110471 1.7607 0)
(0.236986 1.63874 3.13852e-17)
(0.206151 1.59185 -3.52599e-17)
(0.145617 1.74818 6.44884e-17)
(0.233849 1.87447 -3.72052e-17)
(0.169164 1.85332 -3.53671e-17)
(0.263708 1.79747 -1.25387e-17)
(0.187137 1.72061 0)
(0.243515 1.72447 -4.3122e-17)
(0.0479402 1.75205 4.0648e-18)
(0.0317597 1.72718 0)
(0.066396 1.70358 -6.12925e-17)
(0.048204 1.71895 0)
(0.0383952 1.68863 2.78994e-17)
(0.02393 1.71368 0)
(0.0153456 1.75629 4.59381e-17)
(0.00629072 1.76389 0)
(0.0169152 1.75869 0)
(0.0184529 1.75483 4.84818e-17)
(-0.0113875 1.75324 -1.0314e-16)
(0.0181892 1.75063 -5.7766e-17)
(0.000853545 1.7628 1.76773e-20)
(-0.0114676 1.74512 6.8475e-17)
(-0.0443792 1.77711 -3.40194e-17)
(-0.00958378 1.77691 0)
(0.00362771 1.77006 0)
(0.00733832 1.75013 2.96152e-17)
(0.0229525 1.74636 2.55093e-17)
(0.00383678 1.74849 4.93918e-17)
(0.0153365 1.74646 0)
(-0.00570987 1.76527 8.81491e-17)
(0.002721 1.76016 1.56565e-17)
(0.0156959 1.74968 -1.72377e-17)
(-0.000418133 1.73552 6.69918e-17)
(-0.00819127 1.72588 -3.80956e-18)
(0.00641485 1.74601 -3.74725e-17)
(1.00515 0.00617158 2.84977e-17)
(0.991665 0.0264221 4.09072e-17)
(0.996476 0.0138998 0)
(0.971567 0.0564586 -4.36598e-17)
(0.947564 0.0407296 -5.83684e-18)
(0.920274 0.0428928 1.45753e-17)
(0.975962 0.0567812 -9.40645e-19)
(1.03544 0.0107001 0)
(1.03298 -0.0133706 -2.85933e-17)
(1.0355 -0.00793166 -4.06931e-17)
(0.997696 0.0359986 2.15769e-18)
(1.01671 0.0265416 -2.28861e-18)
(0.984269 0.0444186 0)
(0.983106 0.0319494 -2.0502e-18)
(1.00918 0.0447107 0)
(0.994505 0.0398896 0)
(1.00837 0.0230312 0)
(1.00569 0.0129457 0)
(1.0079 0.0359018 8.33101e-18)
(0.991744 0.0186057 1.59819e-17)
(0.953884 0.0125984 -1.03719e-17)
(0.967973 0.0237941 3.45808e-18)
(1.00341 0.0820295 3.50336e-17)
(1.05443 0.0690505 0)
(1.02606 0.0880736 0)
(-0.0118916 1.75689 -4.76447e-17)
(-0.0118683 1.74452 -8.07763e-19)
(-0.0157973 1.75503 0)
(-0.00691736 1.76689 -4.65479e-17)
(0.01387 1.76697 8.00341e-18)
(0.000291453 1.76599 -3.62044e-18)
(0.00639241 1.7636 -6.64485e-17)
(0.00856988 1.73651 -2.43443e-19)
(-0.00962056 1.72834 -3.98295e-18)
(-0.011598 1.77692 2.92196e-17)
(0.00136209 1.76448 3.04472e-17)
(0.0288224 1.73581 -2.02621e-17)
(0.01147 1.72428 -3.31158e-17)
(0.337604 1.83623 2.72416e-17)
(0.313419 1.79228 -1.60624e-18)
(0.649712 1.87422 -6.64636e-17)
(0.519655 1.96114 3.69489e-17)
(0.557678 1.91184 0)
(0.285166 1.45401 -1.86186e-18)
(0.311578 1.45678 1.16803e-18)
(0.164959 1.50715 -6.47492e-18)
(0.16216 1.51145 -3.57147e-17)
(0.227203 1.50845 -2.08826e-17)
(0.232342 1.48071 0)
(0.167923 1.50145 -1.38714e-17)
(0.107707 1.58834 8.11403e-18)
(0.117157 1.53784 5.43679e-17)
(0.078852 1.57221 -3.35202e-18)
(0.588946 1.38862 -2.35648e-17)
(0.436011 1.41228 0)
(1.0232 -0.00708732 2.70485e-19)
(1.03512 0.0552789 -1.42455e-19)
(1.01327 0.0121813 -1.36887e-17)
(1.00384 0.00266121 -6.89813e-18)
(1.00393 0.0161428 0)
(0.60381 1.65353 0)
(0.515005 1.5548 0)
(0.668659 1.34357 0)
(0.523309 1.49289 0)
(0.808528 1.65256 2.55188e-17)
(0.878575 1.53152 0)
(0.574789 1.63162 -8.79129e-19)
(0.464627 1.51071 0)
(0.508572 1.48679 5.76386e-17)
(0.570975 1.51756 6.37574e-17)
(0.844576 0.154402 0)
(0.825854 0.161547 8.80921e-19)
(0.902083 0.102434 1.99712e-17)
(0.84453 0.111078 -2.945e-17)
(0.840666 0.0746984 -1.39192e-17)
(0.982951 0.232651 -3.95794e-17)
(0.902639 0.282074 2.51295e-17)
(0.796919 0.290574 3.35982e-17)
(0.92961 0.24509 2.10851e-17)
(0.901608 0.143747 1.86107e-17)
(0.882457 0.166657 -7.61456e-18)
(0.836469 0.245831 -3.10281e-18)
(0.873294 0.229449 0)
(0.935856 0.201379 2.76917e-17)
(0.94953 0.182373 0)
(0.948894 0.271232 0)
(1.0643 0.150616 -6.1135e-18)
(0.975148 0.169977 2.76543e-17)
(0.983583 0.18794 1.61553e-17)
(1.01348 0.215754 0)
(1.00354 0.0459824 -2.26832e-17)
(1.01114 0.0422055 3.90047e-17)
(1.00648 0.0556036 -3.22887e-17)
(1.02087 0.0575734 2.97357e-17)
(0.968563 0.0661025 -6.0355e-17)
(0.941049 0.0901164 0)
(0.942447 0.0381009 0)
(0.921044 0.0773371 3.21596e-17)
(0.910722 0.0758352 1.0237e-17)
(1.00296 0.0921533 -2.31888e-17)
(0.996649 0.119106 -3.70839e-17)
(0.996176 0.129184 3.85177e-18)
(0.970118 0.143557 0)
(0.992731 0.0882602 0)
(1.00931 0.097734 2.5779e-17)
(0.998283 0.102909 -3.22729e-17)
(0.408782 1.69441 2.76788e-17)
(0.432105 1.88053 -2.22749e-17)
(0.668505 1.93252 1.11464e-17)
(0.704714 2.33959 -6.02825e-19)
(0.848155 1.86587 -3.93778e-17)
(0.854121 1.96884 9.92413e-18)
(0.940293 1.60917 7.20209e-18)
(0.725165 2.1608 -2.04708e-17)
(0.762789 2.06505 -2.88524e-18)
(0.759447 2.47734 1.83693e-18)
(0.929523 2.26094 -9.50361e-19)
(0.988051 2.23398 0)
(0.262335 0.939877 -3.66437e-18)
(0.126901 1.52923 -8.69548e-18)
(0.345902 0.529436 -8.96942e-20)
(0.262562 0.731978 -8.38007e-18)
(0.430132 0.438543 -7.76993e-19)
(0.464915 0.445581 -9.34711e-18)
(0.410103 0.516902 4.1304e-18)
(0.362904 0.442818 -1.32229e-18)
(0.416007 0.419441 1.43354e-18)
(0.748121 0.270672 1.73491e-17)
(0.696585 0.30167 0)
(0.730313 0.271315 5.40953e-18)
(0.609349 0.512172 -6.31777e-18)
(0.559281 0.473727 -3.01486e-18)
(0.47326 0.502076 -5.17046e-18)
(0.530155 0.45657 0)
(0.444211 0.863441 -1.68452e-17)
(0.670365 0.91154 4.89663e-17)
(0.5927 0.959308 3.73565e-17)
(0.688826 0.935553 8.81251e-18)
(0.829441 0.959758 -4.93899e-18)
(0.821471 1.00428 -3.8376e-18)
(0.778735 0.69083 -5.73676e-18)
(0.8111 0.743299 1.15775e-17)
(0.881461 0.858193 0)
(0.882258 0.753132 1.87295e-17)
(0.95663 0.348505 4.84652e-17)
(1.08286 0.317013 -1.06084e-17)
(1.01834 0.290375 -3.77475e-17)
(0.897764 0.424175 3.51936e-17)
(0.97388 0.425728 0)
(0.972644 0.421434 0)
(0.830014 0.374174 4.42997e-17)
(0.754091 0.316808 0)
(0.780163 0.311041 -8.09753e-18)
(0.839122 0.312546 6.03426e-17)
(0.818786 0.481382 -4.51811e-17)
(0.764545 0.530064 7.63938e-18)
(0.798826 0.505137 -5.50789e-19)
(0.725748 0.423806 6.91611e-18)
(0.699678 0.440928 -8.3922e-19)
(0.654852 0.449131 -4.98155e-18)
(0.999979 0.0257786 -3.0342e-17)
(0.998022 -0.0264887 0)
(1.00903 0.00979556 1.71945e-17)
(1.00156 0.0272129 -3.003e-17)
(1.00689 -0.00663987 -1.2669e-17)
(1.00792 0.0435201 -1.54669e-17)
(0.996204 0.00640535 0)
(0.99483 -0.0209393 7.86043e-18)
(0.999182 0.0202882 8.50567e-18)
(0.986387 0.0114031 -7.64492e-18)
(0.989215 -0.00787264 1.12015e-17)
(0.00145865 1.79615 0)
(-0.00245801 1.77863 0)
(0.0232099 1.81108 0)
(0.00947638 1.79674 0)
(0.0684652 1.75909 1.77181e-18)
(0.0639781 1.78334 -9.76316e-17)
(0.0706039 1.77082 -3.08232e-17)
(0.0575881 1.78767 -7.41093e-17)
(0.028916 1.75511 4.62566e-17)
(0.0295687 1.78138 5.76215e-17)
(0.0544428 1.77068 1.06271e-16)
(0.0358998 1.78632 4.66687e-17)
(0.0268481 1.77345 8.4e-18)
(-0.00292726 1.77348 8.09791e-19)
(0.0714358 1.702 -6.51131e-17)
(0.0729225 1.69889 0)
(0.0603077 1.69442 -3.4363e-17)
(0.0903205 1.76335 -2.80519e-18)
(0.162502 1.67133 -1.73629e-17)
(0.121544 1.61463 0)
(0.133743 1.60108 4.21413e-17)
(0.160535 1.60979 4.76422e-17)
(0.10954 1.68126 -5.91246e-17)
(0.0733793 1.68247 -7.10079e-17)
(0.0709621 1.60759 0)
(0.0104643 1.75992 2.4728e-17)
(0.00495183 1.74268 -2.36367e-17)
(0.00419436 1.75142 0)
(0.0213723 1.73953 1.85997e-17)
(0.0182214 1.74478 1.74003e-17)
(-0.00940158 1.77731 8.77299e-18)
(-0.00861223 1.78331 -9.41895e-17)
(-0.0218415 1.78562 -5.71167e-17)
(-0.026347 1.77745 4.30706e-17)
(-0.00455996 1.75626 0)
(0.00595689 1.77719 0)
(-0.000394736 1.77078 -3.31166e-17)
(-0.00619176 1.77607 -3.71737e-18)
(0.00326247 1.77312 0)
(0.000348175 1.77239 3.06566e-17)
(-0.0100237 1.76981 -1.57444e-18)
(0.985729 0.0380683 0)
(1.02268 0.0640529 -9.96773e-19)
(1.02176 0.000616342 3.07974e-17)
(1.01199 -0.00198401 0)
(1.03637 0.0371191 0)
(1.00814 -0.0208892 1.89099e-17)
(0.976956 0.00347447 -3.44645e-17)
(1.0049 0.00742739 1.60835e-18)
(0.996079 0.0182164 0)
(0.996623 0.0154157 0)
(0.999722 0.0111583 3.4445e-17)
(0.999796 0.0182716 0)
(0.995314 0.0150652 0)
(0.0182681 1.75952 0)
(0.0197613 1.7378 -3.65767e-17)
(0.00241328 1.77305 3.83728e-17)
(0.00407682 1.7563 0)
(0.00707828 1.71952 -3.37997e-17)
(0.0119439 1.73159 -1.72114e-17)
(0.00169841 1.76364 0)
(0.39056 1.6478 0)
(0.304982 1.76805 1.09633e-17)
(0.285204 1.68119 0)
(0.399854 1.76586 8.48649e-17)
(0.441021 1.82972 0)
(0.410368 1.83484 2.49221e-17)
(0.606842 1.4325 -4.43762e-19)
(0.638436 1.37515 -3.31971e-17)
(0.693935 1.37679 -6.50434e-18)
(0.46285 1.41255 -5.02086e-18)
(0.445448 1.44375 0)
(0.490589 1.4279 0)
(0.537798 1.40015 0)
(0.510074 1.40733 -1.05913e-17)
(0.339023 1.51648 -3.98378e-17)
(0.416225 1.44128 2.10068e-18)
(0.42251 1.51211 3.34066e-18)
(0.348438 1.4268 0)
(0.394684 1.42406 0)
(0.366067 1.43286 -1.32e-18)
(0.393686 1.46447 0)
(0.415468 1.45519 0)
(0.135936 1.36626 -6.45979e-17)
(0.343994 1.10438 -5.80236e-18)
(0.317723 1.59224 0)
(0.201439 1.62756 -5.05098e-17)
(0.641903 1.00458 -1.15633e-17)
(0.652286 1.28341 0)
(0.726187 1.17997 -2.1471e-17)
(0.539104 1.25221 0)
(0.528609 1.16948 0)
(0.754804 1.66346 6.76139e-18)
(0.681433 1.83387 -1.31233e-17)
(0.560698 1.77483 -2.77003e-17)
(0.595578 1.70138 -4.81842e-18)
(0.783315 1.56404 0)
(0.73647 1.51803 -1.46646e-18)
(0.835433 1.48372 -8.69914e-18)
(0.838516 1.4233 -6.75071e-18)
(0.546132 1.66812 0)
(0.459336 1.70243 2.39342e-17)
(0.483319 1.67619 0)
(0.848181 0.227082 0)
(0.81378 0.176782 0)
(0.783411 0.190014 0)
(0.823926 0.255492 -1.42812e-17)
(0.764989 0.232412 8.63649e-18)
(0.907674 0.0922116 6.22313e-18)
(0.919972 0.0981701 0)
(0.90203 0.0741921 1.58861e-18)
(0.857088 0.0509963 4.79559e-18)
(0.872509 0.0540263 -1.0272e-17)
(0.788595 2.70333 -8.34788e-18)
(0.701856 2.61369 0)
(0.741462 2.7857 -3.87899e-17)
(0.405227 3.05278 -3.46484e-17)
(0.380973 2.7085 5.72399e-18)
(0.169455 1.18788 -1.58093e-17)
(0.120072 1.43944 0)
(0.310678 0.653889 4.71209e-18)
(0.317179 0.641627 4.54304e-17)
(0.379499 0.57166 6.64728e-18)
(0.454902 0.516802 6.80001e-18)
(0.547152 0.548075 -2.81119e-18)
(0.552365 0.580849 0)
(0.504801 0.63401 0)
(0.466094 0.564033 0)
(0.925604 0.670389 1.25742e-17)
(0.78722 0.556348 -6.12853e-19)
(0.7621 0.603353 4.17569e-18)
(0.844299 0.527036 1.21271e-17)
(1.00336 0.502555 0)
(1.03135 0.591804 -1.15305e-17)
(0.746978 0.398367 -9.76723e-19)
(0.755614 0.367157 9.38476e-18)
(0.680139 0.40007 4.07281e-18)
(0.703239 0.361602 -5.20356e-18)
(0.73418 0.346036 -1.39423e-17)
(0.721311 0.331931 -7.24841e-18)
(1.01685 -0.0159858 -4.26978e-17)
(1.02077 -0.0144447 -1.25326e-17)
(1.00137 0.0312853 4.32419e-17)
(1.00443 0.0437265 3.15995e-17)
(0.975628 0.0357647 0)
(0.968996 -0.0110907 -3.42031e-17)
(0.0607732 1.7705 2.40814e-17)
(0.0624543 1.74997 0)
(0.0572988 1.76423 -3.36856e-17)
(0.073479 1.76939 -5.72673e-17)
(0.0521509 1.74843 -2.80906e-17)
(0.0532521 1.71899 0)
(0.0272899 1.74435 0)
(0.0142031 1.78154 -1.75177e-17)
(0.00713842 1.76721 -1.70611e-17)
(0.0027868 1.747 -4.34195e-17)
(0.0313548 1.74148 -9.62198e-18)
(0.0269701 1.74806 -3.31772e-18)
(0.492687 1.63416 -1.08838e-16)
(0.457623 1.63967 -1.02097e-16)
(0.439336 1.73657 5.9618e-17)
(0.427805 1.66817 -3.811e-18)
(0.580369 1.70286 0)
(0.514776 1.80611 5.99849e-17)
(0.563454 1.7478 6.62811e-17)
(0.466797 1.7476 6.63539e-17)
(0.503706 1.70296 0)
(0.520645 1.67066 0)
(0.32649 1.51096 -3.25218e-17)
(0.345778 1.44382 -4.67593e-17)
(0.359188 1.45744 -5.63706e-17)
(0.280464 1.45978 -3.29372e-18)
(0.300728 1.53029 4.52574e-18)
(0.234498 1.48833 -2.34752e-17)
(0.719771 1.35986 -1.66568e-17)
(0.794501 1.38242 0)
(0.778707 1.37994 -4.20951e-18)
(0.706386 1.4573 0)
(0.681032 1.43112 0)
(0.219487 2.44324 -8.43149e-18)
(0.546852 2.52397 -9.06826e-18)
(0.454112 2.67171 5.46814e-18)
(0.297568 1.52563 0)
(0.228467 1.35915 -1.60828e-17)
(0.173313 1.34268 -3.57779e-17)
(0.195205 2.42145 0)
(0.28282 2.60304 9.57574e-18)
(0.171247 2.61616 0)
(0.514436 0.680138 -2.30217e-17)
(0.611545 0.781369 -2.69942e-17)
(0.620662 0.766493 -3.51735e-17)
(0.502279 0.651222 -2.82222e-18)
(0.593766 0.59724 -3.98999e-18)
(0.458211 2.43664 -4.27561e-18)
(0.516091 2.25508 -1.52603e-17)
(0.315394 2.32553 1.86612e-17)
(0.245781 2.21421 1.93101e-17)
(0.390941 1.97764 2.47128e-17)
(0.476809 2.15478 -2.65717e-17)
(0.502854 1.97392 -8.51935e-18)
(0.319675 2.1467 1.18335e-18)
(0.350456 2.10105 3.25356e-17)
)
;

boundaryField
{
    wall-4
    {
        type            calculated;
        value           uniform (0 0 0);
    }
    velocity-inlet-5
    {
        type            calculated;
        value           uniform (1 0 0);
    }
    velocity-inlet-6
    {
        type            calculated;
        value           uniform (0 3 0);
    }
    pressure-outlet-7
    {
        type            calculated;
        value           nonuniform List<vector> 8((-0.0293567 1.73654 0) (-0.0295022 1.69718 5.0035e-17) (0.00468209 1.76341 0) (-0.0111812 1.78814 0) (-0.00281973 1.7485 0) (0.00736455 1.75281 0) (-0.00228036 1.7425 0) (-0.00919449 1.76617 0));
    }
    wall-8
    {
        type            calculated;
        value           uniform (0 0 0);
    }
    frontAndBackPlanes
    {
        type            empty;
    }
}

