/*--------------------------------*- C++ -*----------------------------------*\
  =========                 |
  \\      /  F ield         | OpenFOAM: The Open Source CFD Toolbox
   \\    /   O peration     | Website:  https://openfoam.org
    \\  /    A nd           | Version:  6
     \\/     M anipulation  |
\*---------------------------------------------------------------------------*/
FoamFile
{
    version     2.0;
    format      ascii;
    class       volVectorField;
    location    "0.007";
    object      U;
}
// * * * * * * * * * * * * * * * * * * * * * * * * * * * * * * * * * * * * * //

dimensions      [0 1 -1 0 0 0 0];

internalField   nonuniform List<vector> 
16000
(
(-0.122685 -0.00211193 -0.00133289)
(-0.119044 -0.00250276 -0.000956429)
(-0.113402 -0.00219431 -0.000331586)
(-0.109838 -0.00179355 -0.000213959)
(-0.107429 -0.00135792 -0.000143224)
(-0.105656 -0.000997882 -9.82611e-05)
(-0.104359 -0.00073941 -7.1199e-05)
(-0.103401 -0.000567159 -4.4795e-05)
(-0.102679 -0.000446247 -2.09505e-05)
(-0.102143 -0.000358025 -6.00826e-06)
(-0.101739 -0.000296895 5.71187e-06)
(-0.101409 -0.000260909 1.466e-05)
(-0.101126 -0.000240646 1.84874e-05)
(-0.100882 -0.000209678 2.13244e-05)
(-0.10064 -0.000165118 1.91126e-05)
(-0.100457 -0.000145262 9.72791e-06)
(-0.100309 -0.000181278 1.10658e-05)
(-0.100093 -0.000253467 2.32046e-05)
(-0.0998138 -0.000319536 3.4791e-05)
(-0.0994735 -0.000374977 4.27723e-05)
(-0.0990748 -0.000428086 4.91938e-05)
(-0.0986241 -0.000482874 5.77282e-05)
(-0.0981233 -0.000545966 7.02149e-05)
(-0.0975626 -0.000627615 8.49874e-05)
(-0.0969244 -0.000730003 0.000102739)
(-0.0961744 -0.000847185 0.000121558)
(-0.0952957 -0.00097682 0.000124609)
(-0.0942678 -0.00111738 0.000116317)
(-0.0930331 -0.00128043 0.000129472)
(-0.0916298 -0.00148368 0.00016741)
(-0.0900499 -0.00172787 0.000211647)
(-0.0882089 -0.00202475 0.000253553)
(-0.0860721 -0.00238297 0.000299116)
(-0.083551 -0.00280421 0.000354022)
(-0.0805937 -0.00329835 0.000417813)
(-0.0771227 -0.003884 0.000494856)
(-0.0730454 -0.00458653 0.000589334)
(-0.0682479 -0.00543768 0.000707282)
(-0.0625889 -0.00648027 0.000856941)
(-0.055893 -0.0077735 0.00105051)
(-0.0479404 -0.00940134 0.00130704)
(-0.0384534 -0.0114875 0.00165598)
(-0.0270808 -0.0142171 0.00214629)
(-0.0133616 -0.0178773 0.00285819)
(0.00327731 -0.0228976 0.00392682)
(0.0235964 -0.0299882 0.00554859)
(0.0485105 -0.0403381 0.00806291)
(0.0792346 -0.0561435 0.0123211)
(0.119754 -0.0830599 0.0201348)
(0.172975 -0.149936 0.0298566)
(-0.0473246 -0.0038165 -0.00318483)
(-0.043721 -0.00531779 -0.00289985)
(-0.0363461 -0.00545471 -0.00161828)
(-0.0317758 -0.00455162 -0.000890027)
(-0.0294684 -0.0034784 -0.000523618)
(-0.0280264 -0.00257868 -0.000331114)
(-0.0270241 -0.00190644 -0.000236398)
(-0.0262627 -0.00144267 -0.000186084)
(-0.0256468 -0.00114028 -0.000135166)
(-0.0251744 -0.000947759 -8.50582e-05)
(-0.0248324 -0.000832942 -4.61892e-05)
(-0.0245729 -0.000778267 -2.48423e-05)
(-0.0243184 -0.000773429 -2.19037e-05)
(-0.0240357 -0.000796811 -1.83068e-05)
(-0.023701 -0.000778516 2.81518e-05)
(-0.0234093 -0.000714743 8.34076e-05)
(-0.0232832 -0.000688112 8.11631e-05)
(-0.0232246 -0.000793401 2.3885e-05)
(-0.0230126 -0.000997484 -9.95583e-07)
(-0.0226683 -0.00121679 3.93989e-06)
(-0.0222542 -0.00141846 1.08932e-05)
(-0.0217794 -0.00161781 2.21788e-05)
(-0.0212648 -0.00184146 3.95405e-05)
(-0.0206865 -0.00213127 5.35665e-05)
(-0.020021 -0.00251773 6.54916e-05)
(-0.0192101 -0.00295547 8.41141e-05)
(-0.018268 -0.00338931 8.21307e-05)
(-0.0172375 -0.00384434 5.69828e-05)
(-0.0159577 -0.00439016 5.85634e-05)
(-0.0144932 -0.00507463 9.63625e-05)
(-0.0129136 -0.0059068 0.000140756)
(-0.0110855 -0.00688632 0.00016134)
(-0.00892631 -0.00804839 0.000165084)
(-0.00635039 -0.00943226 0.000180387)
(-0.00332706 -0.0110716 0.000213172)
(0.000193277 -0.0130163 0.000256905)
(0.00428808 -0.0153355 0.000311656)
(0.00905393 -0.0181195 0.000381745)
(0.0145994 -0.0214875 0.000471571)
(0.0210471 -0.0255987 0.000587604)
(0.0285306 -0.0306693 0.000741483)
(0.037189 -0.0370019 0.000948642)
(0.0471484 -0.0450206 0.00123254)
(0.0585056 -0.0553228 0.00161475)
(0.0712793 -0.0687792 0.002141)
(0.0854437 -0.0866941 0.00283491)
(0.100687 -0.110952 0.00377327)
(0.116703 -0.144358 0.00492513)
(0.132242 -0.190934 0.00659815)
(0.143382 -0.25891 0.00825425)
(0.0101683 -0.00279486 -0.00400606)
(0.0142421 -0.00403842 -0.00370308)
(0.0225451 -0.00451265 -0.00220319)
(0.027845 -0.00408252 -0.00114012)
(0.0302454 -0.00330696 -0.000585747)
(0.0314408 -0.00256708 -0.000325377)
(0.0321086 -0.00197142 -0.000200275)
(0.0325466 -0.00153141 -0.000128063)
(0.0328794 -0.00124544 -8.76268e-05)
(0.0331453 -0.00108928 -6.26858e-05)
(0.0333497 -0.00103014 -4.23988e-05)
(0.0334993 -0.00103613 -2.74143e-05)
(0.0336379 -0.00108547 -2.82436e-05)
(0.0338456 -0.00118809 -4.75652e-05)
(0.0341163 -0.00134866 -5.43025e-05)
(0.0344415 -0.00147651 1.97831e-05)
(0.0347489 -0.00152022 0.000123578)
(0.0348596 -0.00151749 0.000135472)
(0.0348502 -0.00160931 5.77739e-05)
(0.035026 -0.00185062 -8.29312e-06)
(0.035363 -0.00217707 -7.32296e-06)
(0.0357458 -0.00254221 1.38779e-05)
(0.036115 -0.00296157 3.94226e-05)
(0.0365883 -0.00345969 5.95223e-05)
(0.0371486 -0.00402736 4.57989e-05)
(0.0377103 -0.00466235 2.92549e-05)
(0.0383803 -0.00537264 3.85368e-05)
(0.039195 -0.00617947 6.01561e-05)
(0.0401833 -0.00711367 7.92771e-05)
(0.0413193 -0.00823766 9.38508e-05)
(0.0425861 -0.00957455 0.00011437)
(0.0440204 -0.0111116 0.000140587)
(0.0456601 -0.0129205 0.000163522)
(0.0475734 -0.0150861 0.000187097)
(0.0498127 -0.0176514 0.000217327)
(0.0524044 -0.0206705 0.000253945)
(0.0553767 -0.0242312 0.000297614)
(0.0587657 -0.0284497 0.000350951)
(0.0626056 -0.0334675 0.000417571)
(0.0669124 -0.0394593 0.000500468)
(0.0717035 -0.0466572 0.000604208)
(0.0769618 -0.055357 0.00073184)
(0.0826155 -0.065939 0.000887763)
(0.088528 -0.0788905 0.00106947)
(0.0944851 -0.0948011 0.00129783)
(0.100091 -0.114836 0.00153091)
(0.104595 -0.140232 0.00179382)
(0.106998 -0.172792 0.00204411)
(0.105336 -0.214871 0.00218958)
(0.0964571 -0.267416 0.00153549)
(0.0386427 -0.00164361 -0.00451655)
(0.0433904 -0.00241523 -0.00420543)
(0.0525649 -0.00280555 -0.00257754)
(0.0585868 -0.00266341 -0.00128657)
(0.0611791 -0.00228209 -0.000605775)
(0.0622579 -0.00189052 -0.000307726)
(0.0627131 -0.00155706 -0.000174455)
(0.0629216 -0.00130044 -0.000100471)
(0.0630311 -0.00112739 -6.09445e-05)
(0.0631039 -0.00103729 -4.07748e-05)
(0.0631571 -0.00102196 -3.34864e-05)
(0.0632046 -0.00106137 -3.52263e-05)
(0.0632637 -0.00113915 -3.64253e-05)
(0.0633365 -0.00125621 -3.96874e-05)
(0.063445 -0.00144495 -5.16515e-05)
(0.0635821 -0.00172764 -6.67924e-05)
(0.063742 -0.00203477 -7.03025e-05)
(0.0639846 -0.00225211 -4.05126e-06)
(0.0642687 -0.00243429 9.52245e-05)
(0.0644147 -0.00265138 0.000113244)
(0.0644572 -0.00288827 6.11107e-05)
(0.0646305 -0.00318021 2.93792e-05)
(0.064843 -0.00363305 1.76289e-05)
(0.0650882 -0.00428001 -2.85513e-06)
(0.0654304 -0.00502102 -1.29649e-05)
(0.0658278 -0.00582533 -5.31628e-06)
(0.0663892 -0.00676385 7.90662e-06)
(0.0669946 -0.00786418 3.29694e-05)
(0.0676103 -0.00910473 7.77762e-05)
(0.0683281 -0.0104918 8.12092e-05)
(0.0690446 -0.0121239 6.98489e-05)
(0.069807 -0.0141049 0.000126245)
(0.0706332 -0.0164549 0.000165299)
(0.0716063 -0.019146 0.000148684)
(0.072809 -0.0222432 0.000136614)
(0.0742095 -0.0258597 0.000146483)
(0.0757733 -0.0300924 0.000163588)
(0.0774903 -0.0350409 0.000182262)
(0.079355 -0.0408112 0.000204649)
(0.0813546 -0.0475876 0.000228814)
(0.0834212 -0.0555384 0.000254899)
(0.0854705 -0.0648804 0.000281406)
(0.0873515 -0.0758838 0.000314703)
(0.0888558 -0.0889001 0.000348712)
(0.0896249 -0.104442 0.000362447)
(0.0892388 -0.122759 0.0003393)
(0.0870161 -0.144545 0.000246664)
(0.0821832 -0.170438 -7.47971e-06)
(0.0736522 -0.200747 -0.000692285)
(0.0594347 -0.23424 -0.00177908)
(0.0500602 -0.000530749 -0.00476138)
(0.0551967 -0.000797813 -0.00444467)
(0.0648369 -0.000963501 -0.0027552)
(0.0712482 -0.000990262 -0.00134954)
(0.0739793 -0.000968591 -0.000605835)
(0.0750317 -0.000936127 -0.000294041)
(0.0754144 -0.000890122 -0.000156051)
(0.0755326 -0.000847247 -8.09691e-05)
(0.075542 -0.000827041 -4.30124e-05)
(0.0755161 -0.000839091 -2.54365e-05)
(0.0754871 -0.000882209 -1.64104e-05)
(0.0754633 -0.00095389 -1.26121e-05)
(0.0754468 -0.0010565 -1.06998e-05)
(0.0754387 -0.00119122 -1.26487e-05)
(0.0754396 -0.00136085 -1.72593e-05)
(0.0754518 -0.00158006 -2.64665e-05)
(0.0754547 -0.00187313 -3.97699e-05)
(0.0754945 -0.00224909 -7.19469e-05)
(0.0755585 -0.00264526 -0.000123455)
(0.0757455 -0.0029983 -0.000143914)
(0.0759825 -0.00335448 -6.10019e-05)
(0.0762593 -0.00380065 9.39969e-05)
(0.0764249 -0.00437736 0.000182045)
(0.0763214 -0.00501702 0.000136098)
(0.07624 -0.00569518 4.251e-05)
(0.076315 -0.00646274 -6.68664e-06)
(0.0765163 -0.00740417 -3.50601e-05)
(0.0767278 -0.00856024 -3.18921e-05)
(0.0769715 -0.00992414 -9.53284e-06)
(0.077159 -0.0114961 1.92115e-05)
(0.0773503 -0.0133169 6.79673e-05)
(0.0775096 -0.0154878 7.60216e-05)
(0.0775508 -0.0180506 2.551e-05)
(0.0776967 -0.0209278 2.52608e-05)
(0.0778947 -0.0241919 4.60749e-05)
(0.0780804 -0.0279774 4.98665e-05)
(0.078266 -0.0323727 4.72556e-05)
(0.0784274 -0.037455 4.5216e-05)
(0.0785109 -0.0433294 4.40327e-05)
(0.0784541 -0.0500709 4.24057e-05)
(0.078172 -0.0578068 3.74572e-05)
(0.077557 -0.0666655 2.36178e-05)
(0.0764563 -0.0767813 -6.00925e-06)
(0.0746782 -0.0882879 -6.58544e-05)
(0.071926 -0.101304 -0.000166906)
(0.0678425 -0.115939 -0.000344288)
(0.0619565 -0.132263 -0.000636952)
(0.0537188 -0.150244 -0.00111867)
(0.0425254 -0.169631 -0.00200624)
(0.0271285 -0.189576 -0.00316753)
(0.0500645 0.000580597 -0.00474693)
(0.0551866 0.000825251 -0.00443161)
(0.0647818 0.000920774 -0.00273525)
(0.0711395 0.00074615 -0.0013466)
(0.073832 0.000398787 -0.000627335)
(0.0748971 6.26832e-05 -0.000320724)
(0.0753161 -0.000177079 -0.000170411)
(0.0754433 -0.000337203 -8.55629e-05)
(0.075437 -0.000457758 -4.29578e-05)
(0.0753807 -0.00056628 -2.37179e-05)
(0.0753095 -0.000676565 -1.4844e-05)
(0.0752398 -0.000796104 -1.10761e-05)
(0.0751759 -0.000931028 -1.00081e-05)
(0.0751181 -0.00108429 -1.05637e-05)
(0.0750656 -0.00125885 -1.25029e-05)
(0.0750186 -0.00145968 -1.60347e-05)
(0.0749716 -0.00169489 -1.9356e-05)
(0.0749244 -0.00196111 -2.11208e-05)
(0.0748728 -0.00226351 -1.90288e-05)
(0.0748295 -0.00265352 -2.03996e-05)
(0.0747753 -0.00319495 -2.81619e-05)
(0.0747231 -0.00386223 -5.94557e-05)
(0.0746432 -0.00451383 -0.000108926)
(0.0745082 -0.00508799 -0.000117967)
(0.0743771 -0.00568476 -7.54004e-05)
(0.0742453 -0.00641508 -1.09363e-05)
(0.0741225 -0.00732186 1.6552e-05)
(0.0739292 -0.00844024 2.26831e-05)
(0.0737168 -0.00979423 2.53222e-05)
(0.0734078 -0.0114385 3.07561e-05)
(0.073061 -0.0133322 5.52586e-05)
(0.072614 -0.0154134 4.18769e-05)
(0.0719815 -0.0177528 -2.60791e-05)
(0.0713442 -0.0204876 -3.02391e-05)
(0.0706007 -0.0236506 -1.42667e-05)
(0.0696843 -0.0272723 -2.97118e-05)
(0.0686222 -0.031415 -5.70685e-05)
(0.0673783 -0.0361448 -8.21691e-05)
(0.0658841 -0.0415304 -0.000105704)
(0.0640685 -0.0476407 -0.000131859)
(0.0618506 -0.0545394 -0.000162685)
(0.0591368 -0.0622771 -0.00020277)
(0.0558026 -0.0708807 -0.000255261)
(0.051705 -0.0803396 -0.000330835)
(0.0466441 -0.0905815 -0.0004402)
(0.0403996 -0.10144 -0.000611316)
(0.0326646 -0.112617 -0.000871754)
(0.0231371 -0.123679 -0.00128686)
(0.0114352 -0.134082 -0.00203041)
(-0.0033428 -0.14364 -0.00299556)
(0.0386588 0.00167184 -0.0044652)
(0.0433458 0.00241999 -0.00415364)
(0.0523778 0.00274699 -0.00250463)
(0.0582402 0.00243195 -0.00125419)
(0.0607235 0.00177357 -0.000659554)
(0.0618521 0.00112968 -0.000404927)
(0.0624251 0.000639366 -0.000245964)
(0.0626709 0.0002855 -0.000136449)
(0.0627282 2.02909e-05 -7.57894e-05)
(0.0626943 -0.000191771 -4.50775e-05)
(0.0626239 -0.000373726 -2.86827e-05)
(0.0625399 -0.000540986 -1.99381e-05)
(0.0624506 -0.000704404 -1.55214e-05)
(0.0623577 -0.000871779 -1.36682e-05)
(0.06226 -0.00104944 -1.35661e-05)
(0.0621556 -0.0012435 -1.50507e-05)
(0.0620409 -0.00146066 -1.78976e-05)
(0.0619128 -0.00170608 -2.28233e-05)
(0.0617719 -0.00198676 -3.14431e-05)
(0.0616184 -0.00231352 -4.33324e-05)
(0.0614532 -0.00269857 -5.83177e-05)
(0.061285 -0.00313404 -7.60301e-05)
(0.061105 -0.00361469 -7.2564e-05)
(0.0608316 -0.00418684 -3.48865e-05)
(0.0604537 -0.00489887 -6.09224e-06)
(0.0600065 -0.00574733 -4.86466e-06)
(0.059546 -0.00668067 -1.26645e-05)
(0.0590097 -0.00771904 6.83963e-06)
(0.0583321 -0.00892328 1.53877e-05)
(0.05754 -0.0103309 -4.23116e-05)
(0.0566571 -0.0119428 -8.62582e-05)
(0.055632 -0.0137188 -6.96676e-05)
(0.054416 -0.0157226 -7.6543e-05)
(0.0530333 -0.0180793 -0.000105339)
(0.0514598 -0.0208152 -0.000120194)
(0.0496215 -0.0239282 -0.000139854)
(0.047493 -0.0274617 -0.000171855)
(0.0450384 -0.031473 -0.000205232)
(0.0421981 -0.0360152 -0.00023842)
(0.0389065 -0.0411323 -0.000274321)
(0.0350913 -0.0468575 -0.000312853)
(0.0306771 -0.0532047 -0.000354762)
(0.0255712 -0.0601544 -0.000397056)
(0.0196828 -0.0676333 -0.00044172)
(0.0128855 -0.0754781 -0.000482189)
(0.00507589 -0.0833978 -0.000528216)
(-0.00392126 -0.0909025 -0.00056866)
(-0.0141699 -0.0973367 -0.000650861)
(-0.0258761 -0.102065 -0.000874853)
(-0.0390446 -0.105503 -0.00136953)
(0.0101681 0.00271699 -0.00392812)
(0.0141487 0.00387379 -0.00361134)
(0.0222716 0.0042369 -0.0020815)
(0.0274081 0.00370717 -0.00107155)
(0.0296668 0.00287675 -0.000645215)
(0.0308915 0.00211521 -0.000454199)
(0.0316767 0.0014861 -0.000300335)
(0.0321143 0.000973171 -0.000183234)
(0.0323167 0.00056558 -0.000113238)
(0.0323857 0.000244844 -7.3093e-05)
(0.0323819 -1.14027e-05 -4.87841e-05)
(0.0323357 -0.000223484 -3.41399e-05)
(0.0322617 -0.000408307 -2.562e-05)
(0.0321665 -0.000578271 -2.08608e-05)
(0.032052 -0.000742893 -1.85491e-05)
(0.0319173 -0.000910421 -1.80092e-05)
(0.0317606 -0.00108805 -1.87975e-05)
(0.0315794 -0.00128172 -2.073e-05)
(0.0313714 -0.00149706 -2.36898e-05)
(0.0311327 -0.00174092 -2.71891e-05)
(0.0308589 -0.00202018 -3.0619e-05)
(0.0305466 -0.00234342 -3.44552e-05)
(0.0301867 -0.00273313 -3.84048e-05)
(0.0297453 -0.00321292 -4.07466e-05)
(0.0292037 -0.00378245 -4.64534e-05)
(0.0285629 -0.00444061 -5.67803e-05)
(0.0278174 -0.00518162 -6.51774e-05)
(0.0269662 -0.00600962 -6.82901e-05)
(0.0259821 -0.00695341 -7.87792e-05)
(0.0248544 -0.00801032 -9.90234e-05)
(0.0235728 -0.00919434 -0.000108687)
(0.0220677 -0.0105517 -0.000110875)
(0.0203156 -0.0121037 -0.000130506)
(0.0183214 -0.0138857 -0.000162185)
(0.0160413 -0.0159399 -0.00019189)
(0.0134161 -0.0182885 -0.000222323)
(0.0103989 -0.0209575 -0.00025683)
(0.0069401 -0.0239851 -0.000295097)
(0.00297819 -0.0274111 -0.00033609)
(-0.00155492 -0.0312707 -0.000378479)
(-0.00673693 -0.0355918 -0.000418218)
(-0.0126504 -0.0403893 -0.000450567)
(-0.0193962 -0.0456545 -0.000463589)
(-0.0270756 -0.0513372 -0.000445425)
(-0.035833 -0.0573197 -0.000366216)
(-0.0457898 -0.0633788 -0.000206743)
(-0.0571791 -0.0691134 0.000102309)
(-0.0701299 -0.0739326 0.000653278)
(-0.0842355 -0.0776073 0.00167377)
(-0.095117 -0.0815754 0.00199657)
(-0.0476284 0.00365268 -0.00312333)
(-0.0441577 0.00505131 -0.00285874)
(-0.0370063 0.00511627 -0.00161114)
(-0.0325719 0.00424814 -0.00093369)
(-0.0302646 0.00331254 -0.000607481)
(-0.0287486 0.00249516 -0.000398152)
(-0.0276966 0.00178972 -0.000247779)
(-0.0270255 0.00121535 -0.000154992)
(-0.0266065 0.000775616 -9.87508e-05)
(-0.0263589 0.000447168 -6.52369e-05)
(-0.0262297 0.000199515 -4.51332e-05)
(-0.0261823 7.09766e-06 -3.32828e-05)
(-0.0261959 -0.000148738 -2.66872e-05)
(-0.0262585 -0.000282195 -2.27587e-05)
(-0.0263619 -0.000403581 -2.03873e-05)
(-0.0265031 -0.000520164 -1.94606e-05)
(-0.0266812 -0.000638351 -1.97071e-05)
(-0.0268968 -0.000763474 -2.09753e-05)
(-0.0271523 -0.000900305 -2.32414e-05)
(-0.0274515 -0.00105353 -2.65055e-05)
(-0.027799 -0.00122776 -3.08472e-05)
(-0.0282 -0.00142813 -3.62871e-05)
(-0.028663 -0.0016621 -4.26211e-05)
(-0.0292179 -0.00193569 -4.37084e-05)
(-0.0298652 -0.00224982 -3.57433e-05)
(-0.0306382 -0.00262219 -4.69661e-05)
(-0.0315843 -0.00307519 -8.41265e-05)
(-0.0326298 -0.00361159 -9.66082e-05)
(-0.0337828 -0.00420427 -0.000102185)
(-0.0351843 -0.00485486 -0.000125695)
(-0.0367951 -0.0055746 -0.000133194)
(-0.0386524 -0.00638707 -0.000136499)
(-0.0408178 -0.00730762 -0.00015603)
(-0.043281 -0.00836067 -0.000184364)
(-0.0460951 -0.00957204 -0.000219895)
(-0.0493134 -0.0109606 -0.000261087)
(-0.0529945 -0.0125449 -0.000304672)
(-0.0572092 -0.0143479 -0.000350355)
(-0.0620379 -0.0163956 -0.000398584)
(-0.0675697 -0.0187144 -0.000447267)
(-0.0739127 -0.0213284 -0.000490459)
(-0.0811996 -0.024252 -0.000520139)
(-0.0896112 -0.0274778 -0.000520716)
(-0.099394 -0.0309453 -0.000472481)
(-0.110933 -0.0344947 -0.000341428)
(-0.124741 -0.0377687 -0.000118222)
(-0.141579 -0.0399685 0.000154511)
(-0.162262 -0.0398154 0.000316117)
(-0.185501 -0.0406405 0.000471632)
(-0.197476 -0.0651852 -0.000688804)
(-0.123217 0.00203877 -0.00132571)
(-0.1197 0.00241189 -0.000966464)
(-0.114156 0.00211524 -0.000347943)
(-0.110652 0.00176715 -0.000219504)
(-0.108246 0.00138158 -0.000135387)
(-0.106467 0.00101621 -9.14827e-05)
(-0.105189 0.000706681 -7.09973e-05)
(-0.104298 0.000470463 -5.28885e-05)
(-0.103707 0.000301218 -3.75574e-05)
(-0.10333 0.000180276 -2.77283e-05)
(-0.103095 9.22623e-05 -2.31211e-05)
(-0.102972 2.83922e-05 -2.12633e-05)
(-0.10293 -2.41164e-05 -1.93886e-05)
(-0.102946 -6.81723e-05 -1.83299e-05)
(-0.103015 -0.00010677 -1.91379e-05)
(-0.103128 -0.00014298 -2.08458e-05)
(-0.103281 -0.000178836 -2.34305e-05)
(-0.103473 -0.000216088 -2.6734e-05)
(-0.103706 -0.000256193 -3.07688e-05)
(-0.103982 -0.000300511 -3.55562e-05)
(-0.104306 -0.000350383 -4.10371e-05)
(-0.104683 -0.000407339 -4.6911e-05)
(-0.105125 -0.00047312 -5.28394e-05)
(-0.105647 -0.000549047 -5.79537e-05)
(-0.106268 -0.000634758 -5.94537e-05)
(-0.106985 -0.000732898 -7.02849e-05)
(-0.107837 -0.000864227 -0.000100847)
(-0.108775 -0.00103187 -0.000136722)
(-0.109851 -0.001203 -0.000165801)
(-0.111112 -0.00137745 -0.000183188)
(-0.11256 -0.00157698 -0.000193414)
(-0.114275 -0.00180558 -0.000213035)
(-0.116244 -0.00206419 -0.000243947)
(-0.118491 -0.00235807 -0.000282116)
(-0.121055 -0.00269343 -0.000325505)
(-0.123983 -0.00307673 -0.000374807)
(-0.127331 -0.00351596 -0.000430676)
(-0.131164 -0.00401952 -0.000493777)
(-0.135555 -0.00459637 -0.000564743)
(-0.140592 -0.00525645 -0.000643637)
(-0.146378 -0.00600977 -0.000728972)
(-0.153034 -0.00686188 -0.000815993)
(-0.16071 -0.00780685 -0.000895478)
(-0.169584 -0.00880877 -0.000953108)
(-0.179872 -0.00980216 -0.000944761)
(-0.191461 -0.0107728 -0.00081738)
(-0.203247 -0.0122676 -0.000922445)
(-0.217185 -0.0190549 -0.00236049)
(-0.249989 -0.0563694 -0.00295561)
(-0.298431 -0.188371 0.00407715)
(-0.105659 -0.00455953 -0.00390988)
(-0.103938 -0.00513796 -0.004325)
(-0.0960844 -0.00410437 -0.00305294)
(-0.0910085 -0.00312328 -0.00184155)
(-0.0877046 -0.00227842 -0.00116412)
(-0.0852828 -0.00164443 -0.000816581)
(-0.0834749 -0.00120752 -0.00060847)
(-0.0821245 -0.000927075 -0.000440812)
(-0.0810733 -0.000726012 -0.000290116)
(-0.0802841 -0.000576467 -0.000174168)
(-0.0796794 -0.000475662 -9.22197e-05)
(-0.0791927 -0.000423838 -4.33326e-05)
(-0.0787531 -0.000397971 -1.74171e-05)
(-0.0783044 -0.000342265 1.11205e-05)
(-0.0778976 -0.000230642 4.98934e-05)
(-0.0776073 -0.000151851 6.71191e-05)
(-0.0774187 -0.000214556 4.42759e-05)
(-0.0771683 -0.000376565 2.10538e-05)
(-0.0767701 -0.000505807 2.25674e-05)
(-0.07625 -0.000593403 2.88249e-05)
(-0.0756176 -0.000670845 3.66528e-05)
(-0.0748967 -0.000748398 5.4353e-05)
(-0.0740962 -0.000838132 7.99568e-05)
(-0.0731964 -0.000961145 0.000106494)
(-0.072162 -0.00112469 0.000137675)
(-0.0709438 -0.00130841 0.000169885)
(-0.0694532 -0.0015083 0.000168651)
(-0.0677855 -0.00173324 0.000111469)
(-0.0658884 -0.00197584 8.68146e-05)
(-0.0636772 -0.00226787 0.000160374)
(-0.0612045 -0.0026434 0.000243072)
(-0.0583111 -0.00311024 0.000282097)
(-0.0548904 -0.0036752 0.000318977)
(-0.0508492 -0.00433469 0.000376317)
(-0.0461029 -0.00509978 0.000454348)
(-0.0405313 -0.00600385 0.000552971)
(-0.0339864 -0.00708603 0.000680308)
(-0.0262841 -0.00839392 0.000849567)
(-0.0171953 -0.00999212 0.00107925)
(-0.00643026 -0.0119699 0.00139879)
(0.0063762 -0.014453 0.00185638)
(0.0216985 -0.0176281 0.00252822)
(0.0401548 -0.0217755 0.00354045)
(0.0625985 -0.0273396 0.00510036)
(0.0901983 -0.035019 0.00756058)
(0.124606 -0.0459777 0.0114561)
(0.168093 -0.0621722 0.017716)
(0.224141 -0.0872386 0.0280553)
(0.300387 -0.129023 0.0463754)
(0.407148 -0.237618 0.0776398)
(0.161108 -0.00723041 -0.00824851)
(0.158443 -0.00959595 -0.0095898)
(0.164041 -0.0100634 -0.00798306)
(0.169675 -0.00835789 -0.0045513)
(0.172116 -0.00623632 -0.00233281)
(0.173507 -0.00452656 -0.0013588)
(0.174656 -0.0032816 -0.000977775)
(0.17557 -0.00243642 -0.000827108)
(0.176394 -0.00190122 -0.000652529)
(0.177079 -0.00156793 -0.000416964)
(0.177591 -0.00136549 -0.000200672)
(0.177955 -0.0012666 -8.7849e-05)
(0.178295 -0.00127159 -9.51681e-05)
(0.178691 -0.00135692 -0.000144759)
(0.179186 -0.00134893 -3.04463e-05)
(0.179815 -0.0011582 0.000287391)
(0.180298 -0.000939391 0.000481341)
(0.180398 -0.00100669 0.000316273)
(0.180611 -0.00138614 7.26163e-05)
(0.181087 -0.00181864 -8.24076e-06)
(0.181676 -0.00216379 -7.22085e-06)
(0.182387 -0.00247023 3.6162e-05)
(0.183178 -0.00279161 0.000103085)
(0.184094 -0.00319744 0.000143827)
(0.185168 -0.00378466 0.000152293)
(0.186475 -0.00451997 0.000180138)
(0.188148 -0.00523564 0.00023833)
(0.189894 -0.00590175 0.000227351)
(0.191775 -0.00666809 0.000203663)
(0.194007 -0.00765971 0.000327999)
(0.196469 -0.00891169 0.000510648)
(0.199305 -0.010391 0.000547868)
(0.202743 -0.0121536 0.000483691)
(0.206853 -0.0142629 0.000477141)
(0.211692 -0.0167613 0.000570398)
(0.217328 -0.0197156 0.000712086)
(0.223888 -0.0232278 0.000886028)
(0.231535 -0.0274332 0.00110787)
(0.240455 -0.0325087 0.00139504)
(0.25087 -0.0386918 0.00177128)
(0.263029 -0.0463073 0.00228136)
(0.277221 -0.0558145 0.00299038)
(0.293742 -0.0678702 0.00400042)
(0.312929 -0.0834348 0.00543239)
(0.334949 -0.103897 0.00748412)
(0.360168 -0.131423 0.0103534)
(0.388251 -0.16921 0.0144368)
(0.419372 -0.222338 0.0198079)
(0.450318 -0.296968 0.0274753)
(0.479354 -0.407608 0.0378209)
(0.335459 -0.00510771 -0.0102537)
(0.332577 -0.00679201 -0.0118674)
(0.33628 -0.00787766 -0.0109459)
(0.341697 -0.00736878 -0.00663722)
(0.343745 -0.00598141 -0.00331823)
(0.344624 -0.00460811 -0.00168285)
(0.345168 -0.00349459 -0.000978906)
(0.345586 -0.00264654 -0.000650367)
(0.345976 -0.00208645 -0.000477182)
(0.346338 -0.00178149 -0.000341378)
(0.346631 -0.00166282 -0.000201416)
(0.346812 -0.00166437 -9.80647e-05)
(0.34695 -0.00171849 -0.000100749)
(0.347154 -0.00183931 -0.000219402)
(0.347466 -0.00214971 -0.00034033)
(0.347888 -0.00247146 -0.000164112)
(0.348496 -0.00257524 0.000342153)
(0.34909 -0.00241128 0.000691634)
(0.349216 -0.00233274 0.00055135)
(0.349371 -0.00257382 0.00014131)
(0.349831 -0.00308834 -2.60327e-05)
(0.350406 -0.00369909 9.32727e-07)
(0.350933 -0.0043417 4.60004e-05)
(0.351653 -0.00511274 5.73969e-05)
(0.352712 -0.0059926 6.82907e-05)
(0.353631 -0.00699372 0.000118003)
(0.354533 -0.00810535 0.000167022)
(0.35568 -0.00926977 0.000193882)
(0.357163 -0.0105767 0.000218534)
(0.358987 -0.0122244 0.000274658)
(0.360968 -0.0142355 0.000366221)
(0.363199 -0.0165051 0.00046421)
(0.365782 -0.0191585 0.000534334)
(0.368818 -0.0223927 0.000575046)
(0.372388 -0.0262503 0.000631057)
(0.376537 -0.0307735 0.000728469)
(0.381308 -0.0360909 0.00086517)
(0.386768 -0.0423833 0.00103875)
(0.392988 -0.0498662 0.00125923)
(0.400038 -0.0588101 0.00154125)
(0.407962 -0.0695685 0.00190548)
(0.416778 -0.0826062 0.00237715)
(0.426401 -0.0985368 0.00300006)
(0.436619 -0.118155 0.00380512)
(0.446947 -0.142573 0.00486438)
(0.456901 -0.173376 0.00613903)
(0.46511 -0.212735 0.00770719)
(0.470311 -0.26367 0.00959753)
(0.469717 -0.332095 0.0119239)
(0.459593 -0.425541 0.0135939)
(0.422741 -0.00291456 -0.0114136)
(0.420429 -0.00388322 -0.0131595)
(0.423915 -0.00466673 -0.0125968)
(0.429788 -0.00461109 -0.00790605)
(0.431993 -0.00398278 -0.00385271)
(0.432607 -0.00330843 -0.00180333)
(0.43279 -0.00272083 -0.000930811)
(0.43284 -0.00224362 -0.000526369)
(0.432865 -0.00189494 -0.000321083)
(0.432885 -0.00169002 -0.000206927)
(0.432917 -0.00162881 -0.000153017)
(0.432948 -0.00165778 -0.000152908)
(0.432982 -0.00174923 -0.000161376)
(0.433058 -0.00187643 -0.000167183)
(0.433143 -0.00209741 -0.000214546)
(0.433249 -0.00255011 -0.000280686)
(0.433341 -0.00322147 -0.000339779)
(0.433484 -0.00369518 -0.000195791)
(0.433955 -0.00390405 0.000164722)
(0.434617 -0.00413852 0.000508382)
(0.434791 -0.00438625 0.000461029)
(0.434975 -0.00465909 0.000209025)
(0.435346 -0.00510282 0.000128355)
(0.435748 -0.00602463 4.55606e-05)
(0.436286 -0.00727635 -1.7683e-05)
(0.436861 -0.0085549 -5.41617e-05)
(0.437584 -0.00996962 -0.000114662)
(0.438432 -0.0116011 -0.00011638)
(0.439476 -0.0134676 4.66388e-05)
(0.440814 -0.0154705 0.00020038)
(0.442034 -0.0177663 0.000287016)
(0.44315 -0.0206562 0.000548457)
(0.444454 -0.0241862 0.000739465)
(0.446028 -0.0282461 0.000624037)
(0.447953 -0.0328592 0.000471942)
(0.450199 -0.0382279 0.000461961)
(0.452718 -0.0445216 0.000528059)
(0.455502 -0.0518958 0.000608663)
(0.458538 -0.0605302 0.000704435)
(0.461784 -0.0706541 0.000823062)
(0.465152 -0.0825435 0.000967341)
(0.468523 -0.0965377 0.00113331)
(0.471646 -0.113059 0.00132785)
(0.474337 -0.132657 0.00156319)
(0.476072 -0.15614 0.00181838)
(0.476076 -0.184392 0.00207241)
(0.472998 -0.218775 0.00230249)
(0.465033 -0.260924 0.00218314)
(0.449283 -0.312222 0.00116188)
(0.420537 -0.373278 -0.002053)
(0.458429 -0.000919308 -0.0119762)
(0.456432 -0.00123726 -0.0137793)
(0.459956 -0.00150567 -0.0133432)
(0.466154 -0.00156943 -0.00846234)
(0.468573 -0.00155496 -0.00404174)
(0.469133 -0.00154907 -0.00183455)
(0.469211 -0.00149802 -0.000905317)
(0.469132 -0.00141594 -0.000469828)
(0.469001 -0.00134849 -0.000251756)
(0.468875 -0.00132973 -0.000147526)
(0.468771 -0.00136513 -9.68026e-05)
(0.468693 -0.00144243 -7.35875e-05)
(0.468635 -0.00157083 -5.96746e-05)
(0.468599 -0.00175184 -6.02565e-05)
(0.468581 -0.00197535 -8.08784e-05)
(0.46859 -0.00226559 -0.000122165)
(0.46854 -0.00265795 -0.000170356)
(0.4685 -0.00325802 -0.00023547)
(0.468417 -0.00403516 -0.000412534)
(0.468385 -0.0047004 -0.000597247)
(0.468462 -0.00518677 -0.000511553)
(0.468869 -0.00569772 -7.32264e-05)
(0.469579 -0.00648448 0.000577766)
(0.470017 -0.00744031 0.000803436)
(0.46993 -0.00842486 0.000434152)
(0.469991 -0.00947283 2.8022e-05)
(0.470173 -0.0107777 -0.000174725)
(0.470348 -0.0124497 -0.000226765)
(0.470636 -0.0145159 -0.000124759)
(0.470789 -0.0168386 1.32469e-05)
(0.471132 -0.0194745 0.000187465)
(0.471785 -0.0226208 0.000383646)
(0.471981 -0.0264818 0.000322135)
(0.472026 -0.0308362 0.000233653)
(0.472301 -0.0356788 0.00023552)
(0.472608 -0.0412908 0.000233906)
(0.472946 -0.0478408 0.000213922)
(0.473286 -0.0554345 0.000199507)
(0.473548 -0.0642067 0.000202024)
(0.473638 -0.0743203 0.000215109)
(0.473424 -0.0859667 0.000232815)
(0.472742 -0.0993605 0.000243292)
(0.471327 -0.114745 0.000238807)
(0.468778 -0.132387 0.00016694)
(0.464515 -0.152491 1.87298e-05)
(0.457805 -0.175322 -0.00029199)
(0.447445 -0.201111 -0.000882406)
(0.431719 -0.23004 -0.00195929)
(0.408586 -0.262089 -0.00403503)
(0.373614 -0.296488 -0.00784925)
(0.458517 0.00105232 -0.0119409)
(0.45656 0.00137086 -0.013733)
(0.460076 0.00166812 -0.0132571)
(0.46628 0.00155057 -0.00836577)
(0.468623 0.000934122 -0.00403416)
(0.469096 0.000242258 -0.00192769)
(0.469172 -0.000237734 -0.00100274)
(0.469086 -0.000515248 -0.000523876)
(0.46891 -0.000693164 -0.000271139)
(0.468717 -0.000841305 -0.000147904)
(0.468539 -0.000991559 -8.71975e-05)
(0.468385 -0.00115703 -5.82003e-05)
(0.468253 -0.0013485 -4.6136e-05)
(0.468139 -0.00156868 -4.39644e-05)
(0.468039 -0.0018189 -5.02384e-05)
(0.467953 -0.00210498 -6.61218e-05)
(0.46787 -0.00244542 -8.86246e-05)
(0.467794 -0.00283335 -0.000114765)
(0.467684 -0.00323961 -0.000129379)
(0.467555 -0.00374167 -0.000141443)
(0.467362 -0.0045157 -0.000155339)
(0.467254 -0.00566495 -0.000187532)
(0.467034 -0.00688667 -0.000258025)
(0.466624 -0.00781897 -0.000302909)
(0.466156 -0.00857611 -0.000283905)
(0.465846 -0.00949059 -0.000155542)
(0.46575 -0.0107093 -3.46656e-05)
(0.465572 -0.0122547 2.52083e-05)
(0.465345 -0.0142092 0.00010087)
(0.464829 -0.0166727 0.000120438)
(0.464431 -0.0196262 0.000149461)
(0.464226 -0.0228198 0.000244505)
(0.463422 -0.0262236 0.000109929)
(0.462265 -0.0302577 2.09533e-05)
(0.46112 -0.0349917 4.67053e-05)
(0.45974 -0.0404275 5.42068e-06)
(0.458146 -0.0466591 -9.62106e-05)
(0.456285 -0.053793 -0.000186415)
(0.454039 -0.0619391 -0.000255136)
(0.451292 -0.0712125 -0.000318813)
(0.447905 -0.0817219 -0.000387197)
(0.443718 -0.0935579 -0.000471808)
(0.438489 -0.106773 -0.000578787)
(0.431929 -0.121361 -0.0007313)
(0.423569 -0.137204 -0.000947227)
(0.412846 -0.154025 -0.0012913)
(0.398833 -0.171262 -0.0018432)
(0.380295 -0.188036 -0.00277346)
(0.355563 -0.202933 -0.00444797)
(0.320877 -0.214572 -0.00757152)
(0.422964 0.00300684 -0.0112502)
(0.420712 0.00397444 -0.0129413)
(0.424133 0.00476588 -0.0122489)
(0.429983 0.00454039 -0.00753943)
(0.432029 0.00339996 -0.00383851)
(0.432503 0.00215305 -0.0021796)
(0.432725 0.00121933 -0.0013446)
(0.432743 0.000596016 -0.000773547)
(0.4326 0.000160133 -0.000423117)
(0.432401 -0.00017594 -0.000237539)
(0.4322 -0.000460199 -0.000140517)
(0.432009 -0.000719207 -8.91895e-05)
(0.43183 -0.000970254 -6.2927e-05)
(0.431659 -0.00122504 -5.07056e-05)
(0.431488 -0.00149243 -4.70974e-05)
(0.431314 -0.00178088 -4.99254e-05)
(0.431128 -0.00210138 -5.77283e-05)
(0.430921 -0.00246161 -7.11036e-05)
(0.430691 -0.0028716 -9.66875e-05)
(0.430436 -0.00334696 -0.000144521)
(0.430163 -0.00392166 -0.000232388)
(0.429869 -0.00458398 -0.00036091)
(0.429505 -0.00528652 -0.000359411)