/*--------------------------------*- C++ -*----------------------------------*\
  =========                 |
  \\      /  F ield         | OpenFOAM: The Open Source CFD Toolbox
   \\    /   O peration     | Website:  https://openfoam.org
    \\  /    A nd           | Version:  6
     \\/     M anipulation  |
\*---------------------------------------------------------------------------*/
FoamFile
{
    version     2.0;
    format      ascii;
    class       volScalarField;
    location    "0";
    object      p;
}
// * * * * * * * * * * * * * * * * * * * * * * * * * * * * * * * * * * * * * //

dimensions      [0 2 -2 0 0 0 0];

internalField   nonuniform List<scalar> 
145945
(
3.3933e-06
3.39228e-06
3.39152e-06
3.39075e-06
3.39021e-06
3.38977e-06
3.38948e-06
3.3893e-06
3.38924e-06
3.38929e-06
3.38947e-06
3.38974e-06
3.39017e-06
3.39069e-06
3.39147e-06
3.39226e-06
3.39336e-06
3.39228e-06
3.39149e-06
3.39074e-06
3.39e-06
3.38943e-06
3.38898e-06
3.38867e-06
3.38849e-06
3.38843e-06
3.38848e-06
3.38866e-06
3.38895e-06
3.38939e-06
3.38994e-06
3.39069e-06
3.39149e-06
3.39235e-06
3.39152e-06
3.39074e-06
3.38994e-06
3.38922e-06
3.38864e-06
3.38819e-06
3.38789e-06
3.3877e-06
3.38764e-06
3.38769e-06
3.38788e-06
3.38817e-06
3.38861e-06
3.38916e-06
3.3899e-06
3.39074e-06
3.39159e-06
3.39075e-06
3.39e-06
3.38922e-06
3.38852e-06
3.38793e-06
3.38748e-06
3.38717e-06
3.38698e-06
3.38692e-06
3.38697e-06
3.38716e-06
3.38746e-06
3.3879e-06
3.38847e-06
3.38919e-06
3.39001e-06
3.39083e-06
3.39021e-06
3.38943e-06
3.38864e-06
3.38793e-06
3.38734e-06
3.38689e-06
3.38657e-06
3.38637e-06
3.38631e-06
3.38637e-06
3.38655e-06
3.38687e-06
3.38731e-06
3.38789e-06
3.38861e-06
3.38945e-06
3.39029e-06
3.38977e-06
3.38898e-06
3.38819e-06
3.38748e-06
3.38689e-06
3.38643e-06
3.3861e-06
3.38591e-06
3.38584e-06
3.3859e-06
3.38609e-06
3.38641e-06
3.38686e-06
3.38744e-06
3.38817e-06
3.389e-06
3.38985e-06
3.38948e-06
3.38867e-06
3.38789e-06
3.38717e-06
3.38657e-06
3.3861e-06
3.38577e-06
3.38558e-06
3.38551e-06
3.38557e-06
3.38576e-06
3.38608e-06
3.38654e-06
3.38713e-06
3.38786e-06
3.3887e-06
3.38956e-06
3.3893e-06
3.38849e-06
3.3877e-06
3.38698e-06
3.38637e-06
3.38591e-06
3.38558e-06
3.38538e-06
3.38531e-06
3.38537e-06
3.38556e-06
3.38589e-06
3.38635e-06
3.38694e-06
3.38768e-06
3.38852e-06
3.38938e-06
3.38924e-06
3.38843e-06
3.38764e-06
3.38692e-06
3.38631e-06
3.38584e-06
3.38551e-06
3.38531e-06
3.38524e-06
3.3853e-06
3.3855e-06
3.38582e-06
3.38628e-06
3.38688e-06
3.38762e-06
3.38846e-06
3.38933e-06
3.38929e-06
3.38848e-06
3.38769e-06
3.38697e-06
3.38637e-06
3.3859e-06
3.38557e-06
3.38537e-06
3.3853e-06
3.38536e-06
3.38556e-06
3.38588e-06
3.38634e-06
3.38694e-06
3.38767e-06
3.38851e-06
3.38938e-06
3.38947e-06
3.38866e-06
3.38788e-06
3.38716e-06
3.38655e-06
3.38609e-06
3.38576e-06
3.38556e-06
3.3855e-06
3.38556e-06
3.38575e-06
3.38607e-06
3.38653e-06
3.38712e-06
3.38785e-06
3.38869e-06
3.38955e-06
3.38974e-06
3.38895e-06
3.38817e-06
3.38746e-06
3.38687e-06
3.38641e-06
3.38608e-06
3.38589e-06
3.38582e-06
3.38588e-06
3.38607e-06
3.38639e-06
3.38684e-06
3.38743e-06
3.38815e-06
3.38898e-06
3.38982e-06
3.39017e-06
3.38939e-06
3.38861e-06
3.3879e-06
3.38731e-06
3.38686e-06
3.38654e-06
3.38635e-06
3.38628e-06
3.38634e-06
3.38653e-06
3.38684e-06
3.38728e-06
3.38786e-06
3.38858e-06
3.38942e-06
3.39025e-06
3.39069e-06
3.38994e-06
3.38917e-06
3.38847e-06
3.38789e-06
3.38744e-06
3.38713e-06
3.38694e-06
3.38688e-06
3.38694e-06
3.38712e-06
3.38743e-06
3.38786e-06
3.38843e-06
3.38914e-06
3.38996e-06
3.39077e-06
3.39147e-06
3.39069e-06
3.3899e-06
3.38919e-06
3.38861e-06
3.38817e-06
3.38786e-06
3.38768e-06
3.38762e-06
3.38767e-06
3.38785e-06
3.38815e-06
3.38858e-06
3.38914e-06
3.38986e-06
3.3907e-06
3.39155e-06
3.39226e-06
3.39149e-06
3.39074e-06
3.39002e-06
3.38945e-06
3.389e-06
3.3887e-06
3.38852e-06
3.38846e-06
3.38851e-06
3.38869e-06
3.38898e-06
3.38942e-06
3.38996e-06
3.3907e-06
3.39149e-06
3.39233e-06
3.39336e-06
3.39235e-06
3.39159e-06
3.39083e-06
3.39029e-06
3.38985e-06
3.38956e-06
3.38938e-06
3.38933e-06
3.38938e-06
3.38955e-06
3.38982e-06
3.39025e-06
3.39077e-06
3.39155e-06
3.39233e-06
3.39342e-06
3.33153e-06
3.3309e-06
3.33041e-06
3.32991e-06
3.32956e-06
3.32929e-06
3.32911e-06
3.329e-06
3.32897e-06
3.32899e-06
3.32909e-06
3.32926e-06
3.32951e-06
3.32983e-06
3.33032e-06
3.33083e-06
3.3315e-06
3.3309e-06
3.33044e-06
3.32999e-06
3.32953e-06
3.32918e-06
3.32892e-06
3.32875e-06
3.32864e-06
3.3286e-06
3.32863e-06
3.32873e-06
3.32889e-06
3.32914e-06
3.32945e-06
3.3299e-06
3.33038e-06
3.33088e-06
3.33041e-06
3.32999e-06
3.32954e-06
3.32911e-06
3.32878e-06
3.32853e-06
3.32836e-06
3.32826e-06
3.32823e-06
3.32825e-06
3.32835e-06
3.3285e-06
3.32874e-06
3.32904e-06
3.32946e-06
3.32994e-06
3.33039e-06
3.32991e-06
3.32953e-06
3.32911e-06
3.32871e-06
3.32839e-06
3.32815e-06
3.32798e-06
3.32789e-06
3.32785e-06
3.32788e-06
3.32797e-06
3.32812e-06
3.32835e-06
3.32865e-06
3.32904e-06
3.32949e-06
3.3299e-06
3.32956e-06
3.32918e-06
3.32878e-06
3.32839e-06
3.32807e-06
3.32783e-06
3.32767e-06
3.32758e-06
3.32754e-06
3.32757e-06
3.32766e-06
3.32781e-06
3.32803e-06
3.32833e-06
3.32871e-06
3.32915e-06
3.32955e-06
3.32929e-06
3.32892e-06
3.32853e-06
3.32815e-06
3.32783e-06
3.3276e-06
3.32744e-06
3.32735e-06
3.32731e-06
3.32734e-06
3.32743e-06
3.32758e-06
3.3278e-06
3.32809e-06
3.32846e-06
3.32889e-06
3.32928e-06
3.32911e-06
3.32875e-06
3.32836e-06
3.32798e-06
3.32767e-06
3.32744e-06
3.32728e-06
3.32719e-06
3.32715e-06
3.32718e-06
3.32727e-06
3.32742e-06
3.32764e-06
3.32793e-06
3.3283e-06
3.32872e-06
3.32911e-06
3.329e-06
3.32864e-06
3.32826e-06
3.32789e-06
3.32758e-06
3.32735e-06
3.32719e-06
3.32709e-06
3.32706e-06
3.32709e-06
3.32718e-06
3.32733e-06
3.32755e-06
3.32783e-06
3.3282e-06
3.32862e-06
3.329e-06
3.32897e-06
3.3286e-06
3.32823e-06
3.32785e-06
3.32754e-06
3.32731e-06
3.32715e-06
3.32706e-06
3.32703e-06
3.32705e-06
3.32714e-06
3.3273e-06
3.32751e-06
3.3278e-06
3.32817e-06
3.32858e-06
3.32896e-06
3.32899e-06
3.32863e-06
3.32825e-06
3.32788e-06
3.32757e-06
3.32734e-06
3.32718e-06
3.32709e-06
3.32705e-06
3.32708e-06
3.32717e-06
3.32732e-06
3.32754e-06
3.32783e-06
3.32819e-06
3.32861e-06
3.32899e-06
3.32909e-06
3.32873e-06
3.32835e-06
3.32797e-06
3.32766e-06
3.32743e-06
3.32727e-06
3.32718e-06
3.32714e-06
3.32717e-06
3.32726e-06
3.32741e-06
3.32763e-06
3.32792e-06
3.32829e-06
3.3287e-06
3.32909e-06
3.32926e-06
3.32889e-06
3.3285e-06
3.32812e-06
3.32781e-06
3.32758e-06
3.32742e-06
3.32733e-06
3.3273e-06
3.32732e-06
3.32741e-06
3.32757e-06
3.32778e-06
3.32807e-06
3.32844e-06
3.32886e-06
3.32925e-06
3.32951e-06
3.32914e-06
3.32874e-06
3.32835e-06
3.32803e-06
3.3278e-06
3.32764e-06
3.32755e-06
3.32751e-06
3.32754e-06
3.32763e-06
3.32778e-06
3.328e-06
3.32829e-06
3.32867e-06
3.32911e-06
3.3295e-06
3.32983e-06
3.32945e-06
3.32904e-06
3.32865e-06
3.32833e-06
3.32809e-06
3.32793e-06
3.32783e-06
3.3278e-06
3.32783e-06
3.32792e-06
3.32807e-06
3.32829e-06
3.32858e-06
3.32897e-06
3.32942e-06
3.32982e-06
3.33032e-06
3.3299e-06
3.32946e-06
3.32904e-06
3.32871e-06
3.32846e-06
3.3283e-06
3.3282e-06
3.32817e-06
3.32819e-06
3.32829e-06
3.32844e-06
3.32867e-06
3.32897e-06
3.32938e-06
3.32986e-06
3.33031e-06
3.33083e-06
3.33038e-06
3.32994e-06
3.32949e-06
3.32915e-06
3.32889e-06
3.32872e-06
3.32862e-06
3.32858e-06
3.32861e-06
3.3287e-06
3.32886e-06
3.32911e-06
3.32942e-06
3.32986e-06
3.33033e-06
3.33082e-06
3.3315e-06
3.33088e-06
3.3304e-06
3.3299e-06
3.32955e-06
3.32928e-06
3.32911e-06
3.329e-06
3.32896e-06
3.32899e-06
3.32909e-06
3.32925e-06
3.3295e-06
3.32982e-06
3.33031e-06
3.33082e-06
3.33148e-06
3.29262e-06
3.29281e-06
3.29297e-06
3.29308e-06
3.29319e-06
3.29326e-06
3.2933e-06
3.29332e-06
3.29333e-06
3.29333e-06
3.29331e-06
3.29327e-06
3.29321e-06
3.29309e-06
3.29296e-06
3.29277e-06
3.29258e-06
3.29281e-06
3.29298e-06
3.29312e-06
3.29321e-06
3.2933e-06
3.29335e-06
3.29339e-06
3.29341e-06
3.29341e-06
3.29341e-06
3.29339e-06
3.29336e-06
3.29331e-06
3.29322e-06
3.2931e-06
3.29294e-06
3.29277e-06
3.29297e-06
3.29312e-06
3.2932e-06
3.29327e-06
3.29333e-06
3.29337e-06
3.29339e-06
3.2934e-06
3.29341e-06
3.2934e-06
3.2934e-06
3.29337e-06
3.29334e-06
3.29327e-06
3.29317e-06
3.29307e-06
3.29293e-06
3.29308e-06
3.29321e-06
3.29327e-06
3.29331e-06
3.29335e-06
3.29337e-06
3.29339e-06
3.29339e-06
3.29339e-06
3.29339e-06
3.29339e-06
3.29338e-06
3.29335e-06
3.2933e-06
3.29323e-06
3.29316e-06
3.29304e-06
3.29319e-06
3.2933e-06
3.29333e-06
3.29335e-06
3.29337e-06
3.29338e-06
3.29339e-06
3.29339e-06
3.29339e-06
3.29339e-06
3.29339e-06
3.29339e-06
3.29337e-06
3.29334e-06
3.29329e-06
3.29325e-06
3.29315e-06
3.29326e-06
3.29335e-06
3.29337e-06
3.29337e-06
3.29338e-06
3.29339e-06
3.29339e-06
3.29338e-06
3.29338e-06
3.29338e-06
3.29339e-06
3.29339e-06
3.29338e-06
3.29336e-06
3.29333e-06
3.2933e-06
3.29322e-06
3.2933e-06
3.29339e-06
3.29339e-06
3.29339e-06
3.29339e-06
3.29339e-06
3.29338e-06
3.29337e-06
3.29337e-06
3.29337e-06
3.29338e-06
3.29339e-06
3.29339e-06
3.29338e-06
3.29335e-06
3.29333e-06
3.29326e-06
3.29333e-06
3.29341e-06
3.2934e-06
3.29339e-06
3.29339e-06
3.29338e-06
3.29337e-06
3.29337e-06
3.29336e-06
3.29336e-06
3.29337e-06
3.29338e-06
3.29339e-06
3.29338e-06
3.29336e-06
3.29335e-06
3.29329e-06
3.29333e-06
3.29341e-06
3.29341e-06
3.29339e-06
3.29339e-06
3.29338e-06
3.29337e-06
3.29336e-06
3.29336e-06
3.29336e-06
3.29337e-06
3.29338e-06
3.29338e-06
3.29338e-06
3.29336e-06
3.29335e-06
3.29329e-06
3.29333e-06
3.29341e-06
3.2934e-06
3.29339e-06
3.29339e-06
3.29338e-06
3.29337e-06
3.29336e-06
3.29336e-06
3.29336e-06
3.29337e-06
3.29338e-06
3.29338e-06
3.29338e-06
3.29336e-06
3.29335e-06
3.29329e-06
3.29331e-06
3.29339e-06
3.2934e-06
3.29339e-06
3.29339e-06
3.29339e-06
3.29338e-06
3.29337e-06
3.29337e-06
3.29337e-06
3.29338e-06
3.29338e-06
3.29339e-06
3.29338e-06
3.29335e-06
3.29334e-06
3.29327e-06
3.29327e-06
3.29336e-06
3.29337e-06
3.29338e-06
3.29339e-06
3.29339e-06
3.29339e-06
3.29338e-06
3.29338e-06
3.29338e-06
3.29339e-06
3.29339e-06
3.29338e-06
3.29337e-06
3.29333e-06
3.2933e-06
3.29323e-06
3.29321e-06
3.29331e-06
3.29334e-06
3.29335e-06
3.29337e-06
3.29338e-06
3.29339e-06
3.29339e-06
3.29339e-06
3.29339e-06
3.29339e-06
3.29338e-06
3.29337e-06
3.29334e-06
3.2933e-06
3.29326e-06
3.29317e-06
3.29309e-06
3.29322e-06
3.29327e-06
3.2933e-06
3.29334e-06
3.29336e-06
3.29338e-06
3.29338e-06
3.29338e-06
3.29338e-06
3.29338e-06
3.29337e-06
3.29334e-06
3.2933e-06
3.29323e-06
3.29316e-06
3.29305e-06
3.29296e-06
3.2931e-06
3.29318e-06
3.29323e-06
3.29329e-06
3.29333e-06
3.29335e-06
3.29336e-06
3.29336e-06
3.29336e-06
3.29335e-06
3.29333e-06
3.2933e-06
3.29323e-06
3.29315e-06
3.29305e-06
3.29293e-06
3.29277e-06
3.29294e-06
3.29307e-06
3.29316e-06
3.29325e-06
3.2933e-06
3.29333e-06
3.29335e-06
3.29335e-06
3.29335e-06
3.29334e-06
3.2933e-06
3.29326e-06
3.29316e-06
3.29305e-06
3.29289e-06
3.29274e-06
3.29259e-06
3.29278e-06
3.29293e-06
3.29304e-06
3.29316e-06
3.29322e-06
3.29327e-06
3.29329e-06
3.29329e-06
3.29329e-06
3.29327e-06
3.29323e-06
3.29317e-06
3.29305e-06
3.29293e-06
3.29274e-06
3.29255e-06
3.24654e-06
3.24722e-06
3.24787e-06
3.2485e-06
3.24902e-06
3.24939e-06
3.24965e-06
3.24981e-06
3.24987e-06
3.24983e-06
3.2497e-06
3.24946e-06
3.24912e-06
3.24863e-06
3.24801e-06
3.2473e-06
3.24655e-06
3.24722e-06
3.24778e-06
3.24839e-06
3.24897e-06
3.24945e-06
3.2498e-06
3.25004e-06
3.25019e-06
3.25025e-06
3.25021e-06
3.25009e-06
3.24987e-06
3.24955e-06
3.24911e-06
3.24853e-06
3.24786e-06
3.24723e-06
3.24787e-06
3.24839e-06
3.24894e-06
3.24948e-06
3.24992e-06
3.25023e-06
3.25045e-06
3.25059e-06
3.25064e-06
3.25061e-06
3.25049e-06
3.2503e-06
3.25001e-06
3.2496e-06
3.24908e-06
3.24846e-06
3.24789e-06
3.2485e-06
3.24897e-06
3.24948e-06
3.24997e-06
3.25037e-06
3.25066e-06
3.25086e-06
3.25098e-06
3.25102e-06
3.251e-06
3.2509e-06
3.25072e-06
3.25045e-06
3.25009e-06
3.24961e-06
3.24904e-06
3.24851e-06
3.24902e-06
3.24945e-06
3.24992e-06
3.25037e-06
3.25073e-06
3.251e-06
3.25118e-06
3.25129e-06
3.25134e-06
3.25131e-06
3.25122e-06
3.25106e-06
3.25082e-06
3.25048e-06
3.25004e-06
3.24952e-06
3.24903e-06
3.24939e-06
3.2498e-06
3.25023e-06
3.25066e-06
3.251e-06
3.25125e-06
3.25142e-06
3.25152e-06
3.25156e-06
3.25154e-06
3.25145e-06
3.2513e-06
3.25108e-06
3.25077e-06
3.25035e-06
3.24987e-06
3.24941e-06
3.24965e-06
3.25004e-06
3.25045e-06
3.25086e-06
3.25118e-06
3.25142e-06
3.25158e-06
3.25168e-06
3.25172e-06
3.2517e-06
3.25162e-06
3.25147e-06
3.25126e-06
3.25097e-06
3.25057e-06
3.25011e-06
3.24967e-06
3.24981e-06
3.25019e-06
3.25059e-06
3.25098e-06
3.25129e-06
3.25152e-06
3.25168e-06
3.25177e-06
3.25181e-06
3.25179e-06
3.25171e-06
3.25157e-06
3.25137e-06
3.25109e-06
3.2507e-06
3.25026e-06
3.24983e-06
3.24987e-06
3.25025e-06
3.25064e-06
3.25102e-06
3.25134e-06
3.25156e-06
3.25172e-06
3.25181e-06
3.25185e-06
3.25183e-06
3.25175e-06
3.25162e-06
3.25141e-06
3.25113e-06
3.25075e-06
3.25031e-06
3.24989e-06
3.24983e-06
3.25021e-06
3.25061e-06
3.251e-06
3.25131e-06
3.25154e-06
3.2517e-06
3.25179e-06
3.25183e-06
3.25181e-06
3.25173e-06
3.25159e-06
3.25139e-06
3.25111e-06
3.25072e-06
3.25028e-06
3.24985e-06
3.2497e-06
3.25009e-06
3.25049e-06
3.2509e-06
3.25122e-06
3.25145e-06
3.25162e-06
3.25171e-06
3.25175e-06
3.25173e-06
3.25165e-06
3.25151e-06
3.2513e-06
3.25101e-06
3.25061e-06
3.25016e-06
3.24972e-06
3.24946e-06
3.24987e-06
3.2503e-06
3.25072e-06
3.25106e-06
3.2513e-06
3.25147e-06
3.25158e-06
3.25162e-06
3.25159e-06
3.25151e-06
3.25136e-06
3.25114e-06
3.25083e-06
3.25042e-06
3.24994e-06
3.24948e-06
3.24912e-06
3.24955e-06
3.25001e-06
3.25045e-06
3.25082e-06
3.25108e-06
3.25126e-06
3.25137e-06
3.25141e-06
3.25139e-06
3.2513e-06
3.25114e-06
3.2509e-06
3.25057e-06
3.25013e-06
3.24962e-06
3.24914e-06
3.24864e-06
3.24911e-06
3.24961e-06
3.25009e-06
3.25049e-06
3.25077e-06
3.25097e-06
3.25109e-06
3.25113e-06
3.25111e-06
3.25101e-06
3.25083e-06
3.25057e-06
3.25021e-06
3.24974e-06
3.24918e-06
3.24865e-06
3.24802e-06
3.24853e-06
3.24908e-06
3.24961e-06
3.25004e-06
3.25036e-06
3.25057e-06
3.2507e-06
3.25076e-06
3.25073e-06
3.25061e-06
3.25042e-06
3.25013e-06
3.24974e-06
3.24921e-06
3.2486e-06
3.24803e-06
3.2473e-06
3.24786e-06
3.24846e-06
3.24904e-06
3.24952e-06
3.24987e-06
3.25011e-06
3.25026e-06
3.25032e-06
3.25028e-06
3.25016e-06
3.24994e-06
3.24962e-06
3.24918e-06
3.2486e-06
3.24793e-06
3.24731e-06
3.24655e-06
3.24724e-06
3.24789e-06
3.24852e-06
3.24904e-06
3.24941e-06
3.24967e-06
3.24983e-06
3.24989e-06
3.24986e-06
3.24972e-06
3.24948e-06
3.24914e-06
3.24865e-06
3.24803e-06
3.24731e-06
3.24656e-06
3.20214e-06
3.20303e-06
3.20384e-06
3.20464e-06
3.2053e-06
3.2058e-06
3.20615e-06
3.20636e-06
3.20644e-06
3.20638e-06
3.2062e-06
3.20588e-06
3.20541e-06
3.20479e-06
3.20397e-06
3.20309e-06
3.20212e-06
3.20303e-06
3.20377e-06
3.20455e-06
3.20531e-06
3.20595e-06
3.20643e-06
3.20676e-06
3.20697e-06
3.20704e-06
3.20699e-06
3.20682e-06
3.20651e-06
3.20606e-06
3.20546e-06
3.20468e-06
3.20382e-06
3.20301e-06
3.20384e-06
3.20455e-06
3.20529e-06
3.206e-06
3.2066e-06
3.20706e-06
3.20737e-06
3.20757e-06
3.20764e-06
3.20759e-06
3.20742e-06
3.20713e-06
3.20671e-06
3.20614e-06
3.20542e-06
3.20459e-06
3.20382e-06
3.20464e-06
3.20531e-06
3.206e-06
3.20667e-06
3.20724e-06
3.20766e-06
3.20796e-06
3.20814e-06
3.20821e-06
3.20817e-06
3.20801e-06
3.20774e-06
3.20734e-06
3.20681e-06
3.20613e-06
3.20535e-06
3.20462e-06
3.2053e-06
3.20595e-06
3.2066e-06
3.20724e-06
3.20777e-06
3.20817e-06
3.20846e-06
3.20863e-06
3.20869e-06
3.20865e-06
3.2085e-06
3.20824e-06
3.20787e-06
3.20737e-06
3.20672e-06
3.20599e-06
3.20529e-06
3.2058e-06
3.20643e-06
3.20706e-06
3.20766e-06
3.20817e-06
3.20856e-06
3.20883e-06
3.20899e-06
3.20906e-06
3.20902e-06
3.20888e-06
3.20863e-06
3.20827e-06
3.20779e-06
3.20717e-06
3.20646e-06
3.20578e-06
3.20615e-06
3.20676e-06
3.20737e-06
3.20796e-06
3.20846e-06
3.20883e-06
3.20909e-06
3.20925e-06
3.20931e-06
3.20927e-06
3.20914e-06
3.2089e-06
3.20855e-06
3.20808e-06
3.20748e-06
3.2068e-06
3.20613e-06
3.20636e-06
3.20697e-06
3.20757e-06
3.20814e-06
3.20863e-06
3.20899e-06
3.20925e-06
3.20941e-06
3.20947e-06
3.20943e-06
3.2093e-06
3.20906e-06
3.20872e-06
3.20826e-06
3.20768e-06
3.20701e-06
3.20634e-06
3.20644e-06
3.20704e-06
3.20764e-06
3.20821e-06
3.20869e-06
3.20906e-06
3.20931e-06
3.20947e-06
3.20953e-06
3.20949e-06
3.20936e-06
3.20912e-06
3.20879e-06
3.20833e-06
3.20775e-06
3.20708e-06
3.20642e-06
3.20638e-06
3.20699e-06
3.20759e-06
3.20817e-06
3.20865e-06
3.20902e-06
3.20927e-06
3.20943e-06
3.20949e-06
3.20945e-06
3.20932e-06
3.20908e-06
3.20875e-06
3.20829e-06
3.2077e-06
3.20703e-06
3.20637e-06
3.2062e-06
3.20682e-06
3.20742e-06
3.20801e-06
3.2085e-06
3.20888e-06
3.20914e-06
3.2093e-06
3.20936e-06
3.20932e-06
3.20918e-06
3.20894e-06
3.2086e-06
3.20813e-06
3.20754e-06
3.20685e-06
3.20619e-06
3.20588e-06
3.20651e-06
3.20713e-06
3.20774e-06
3.20825e-06
3.20863e-06
3.2089e-06
3.20906e-06
3.20912e-06
3.20909e-06
3.20894e-06
3.2087e-06
3.20834e-06
3.20786e-06
3.20725e-06
3.20654e-06
3.20586e-06
3.20542e-06
3.20606e-06
3.20671e-06
3.20734e-06
3.20787e-06
3.20827e-06
3.20855e-06
3.20872e-06
3.20879e-06
3.20875e-06
3.2086e-06
3.20834e-06
3.20797e-06
3.20747e-06
3.20683e-06
3.2061e-06
3.2054e-06
3.20479e-06
3.20546e-06
3.20614e-06
3.20681e-06
3.20737e-06
3.20779e-06
3.20808e-06
3.20826e-06
3.20833e-06
3.20829e-06
3.20813e-06
3.20786e-06
3.20747e-06
3.20694e-06
3.20627e-06
3.2055e-06
3.20477e-06
3.20398e-06
3.20468e-06
3.20542e-06
3.20613e-06
3.20672e-06
3.20717e-06
3.20749e-06
3.20768e-06
3.20775e-06
3.2077e-06
3.20754e-06
3.20725e-06
3.20683e-06
3.20627e-06
3.20555e-06
3.20473e-06
3.20396e-06
3.20309e-06
3.20382e-06
3.20459e-06
3.20535e-06
3.20599e-06
3.20647e-06
3.2068e-06
3.20701e-06
3.20708e-06
3.20703e-06
3.20686e-06
3.20655e-06
3.2061e-06
3.2055e-06
3.20473e-06
3.20387e-06
3.20307e-06
3.20212e-06
3.20301e-06
3.20382e-06
3.20463e-06
3.20529e-06
3.20578e-06
3.20613e-06
3.20634e-06
3.20642e-06
3.20637e-06
3.20619e-06
3.20586e-06
3.2054e-06
3.20477e-06
3.20396e-06
3.20307e-06
3.2021e-06
3.1601e-06
3.16109e-06
3.16198e-06
3.16289e-06
3.16364e-06
3.16421e-06
3.16462e-06
3.16486e-06
3.16495e-06
3.16489e-06
3.16467e-06
3.1643e-06
3.16377e-06
3.16306e-06
3.16213e-06
3.16114e-06
3.16007e-06
3.16109e-06
3.16192e-06
3.16279e-06
3.16366e-06
3.16439e-06
3.16495e-06
3.16535e-06
3.16559e-06
3.16568e-06
3.16562e-06
3.1654e-06
3.16504e-06
3.16452e-06
3.16382e-06
3.16293e-06
3.16196e-06
3.16106e-06
3.16198e-06
3.16279e-06
3.16363e-06
3.16446e-06
3.16516e-06
3.1657e-06
3.16607e-06
3.1663e-06
3.16639e-06
3.16633e-06
3.16613e-06
3.16578e-06
3.16528e-06
3.16462e-06
3.16377e-06
3.16283e-06
3.16196e-06
3.16289e-06
3.16366e-06
3.16446e-06
3.16525e-06
3.16591e-06
3.16642e-06
3.16678e-06
3.167e-06
3.16709e-06
3.16703e-06
3.16684e-06
3.16651e-06
3.16603e-06
3.16539e-06
3.16459e-06
3.16369e-06
3.16287e-06
3.16364e-06
3.16439e-06
3.16516e-06
3.16591e-06
3.16655e-06
3.16704e-06
3.16739e-06
3.1676e-06
3.16768e-06
3.16763e-06
3.16744e-06
3.16712e-06
3.16667e-06
3.16606e-06
3.16529e-06
3.16443e-06
3.16362e-06
3.16421e-06
3.16495e-06
3.1657e-06
3.16642e-06
3.16704e-06
3.16752e-06
3.16785e-06
3.16805e-06
3.16813e-06
3.16808e-06
3.1679e-06
3.1676e-06
3.16715e-06
3.16656e-06
3.16582e-06
3.16498e-06
3.16419e-06
3.16462e-06
3.16535e-06
3.16607e-06
3.16678e-06
3.16739e-06
3.16785e-06
3.16818e-06
3.16837e-06
3.16845e-06
3.1684e-06
3.16823e-06
3.16793e-06
3.1675e-06
3.16692e-06
3.16619e-06
3.16538e-06
3.16459e-06
3.16486e-06
3.16559e-06
3.1663e-06
3.167e-06
3.1676e-06
3.16805e-06
3.16837e-06
3.16857e-06
3.16864e-06
3.1686e-06
3.16843e-06
3.16813e-06
3.16771e-06
3.16714e-06
3.16642e-06
3.16562e-06
3.16484e-06
3.16495e-06
3.16568e-06
3.16639e-06
3.16709e-06
3.16768e-06
3.16813e-06
3.16845e-06
3.16864e-06
3.16872e-06
3.16867e-06
3.1685e-06
3.16821e-06
3.16779e-06
3.16722e-06
3.16651e-06
3.16571e-06
3.16493e-06
3.16489e-06
3.16562e-06
3.16633e-06
3.16703e-06
3.16763e-06
3.16808e-06
3.1684e-06
3.1686e-06
3.16867e-06
3.16862e-06
3.16845e-06
3.16816e-06
3.16773e-06
3.16717e-06
3.16645e-06
3.16565e-06
3.16487e-06
3.16468e-06
3.16541e-06
3.16613e-06
3.16684e-06
3.16744e-06
3.1679e-06
3.16823e-06
3.16843e-06
3.1685e-06
3.16845e-06
3.16828e-06
3.16798e-06
3.16755e-06
3.16698e-06
3.16625e-06
3.16544e-06
3.16465e-06
3.1643e-06
3.16504e-06
3.16578e-06
3.16651e-06
3.16713e-06
3.1676e-06
3.16793e-06
3.16813e-06
3.16821e-06
3.16816e-06
3.16798e-06
3.16768e-06
3.16723e-06
3.16665e-06
3.16591e-06
3.16507e-06
3.16428e-06
3.16377e-06
3.16452e-06
3.16528e-06
3.16603e-06
3.16667e-06
3.16715e-06
3.1675e-06
3.16771e-06
3.16779e-06
3.16773e-06
3.16755e-06
3.16723e-06
3.16678e-06
3.16617e-06
3.16541e-06
3.16455e-06
3.16374e-06
3.16306e-06
3.16382e-06
3.16462e-06
3.1654e-06
3.16606e-06
3.16657e-06
3.16692e-06
3.16714e-06
3.16722e-06
3.16717e-06
3.16698e-06
3.16665e-06
3.16618e-06
3.16554e-06
3.16475e-06
3.16386e-06
3.16303e-06
3.16213e-06
3.16293e-06
3.16377e-06
3.1646e-06
3.16529e-06
3.16582e-06
3.1662e-06
3.16642e-06
3.16651e-06
3.16645e-06
3.16625e-06
3.16591e-06
3.16541e-06
3.16475e-06
3.16391e-06
3.16297e-06
3.1621e-06
3.16114e-06
3.16197e-06
3.16283e-06
3.1637e-06
3.16443e-06
3.16499e-06
3.16538e-06
3.16562e-06
3.16571e-06
3.16565e-06
3.16544e-06
3.16507e-06
3.16455e-06
3.16386e-06
3.16297e-06
3.16201e-06
3.16112e-06
3.16007e-06
3.16106e-06
3.16196e-06
3.16287e-06
3.16362e-06
3.16419e-06
3.16459e-06
3.16484e-06
3.16493e-06
3.16487e-06
3.16465e-06
3.16428e-06
3.16374e-06
3.16303e-06
3.1621e-06
3.16112e-06
3.16005e-06
3.11957e-06
3.12055e-06
3.12144e-06
3.12237e-06
3.12314e-06
3.12373e-06
3.12414e-06
3.1244e-06
3.1245e-06
3.12443e-06
3.1242e-06
3.12382e-06
3.12326e-06
3.12254e-06
3.12158e-06
3.1206e-06
3.11954e-06
3.12055e-06
3.12137e-06
3.12225e-06
3.12314e-06
3.1239e-06
3.12448e-06
3.1249e-06
3.12515e-06
3.12524e-06
3.12518e-06
3.12496e-06
3.12457e-06
3.12402e-06
3.1233e-06
3.12239e-06
3.12142e-06
3.12052e-06
3.12144e-06
3.12225e-06
3.12311e-06
3.12397e-06
3.1247e-06
3.12526e-06
3.12566e-06
3.1259e-06
3.12599e-06
3.12593e-06
3.12572e-06
3.12535e-06
3.12482e-06
3.12413e-06
3.12325e-06
3.12229e-06
3.12141e-06
3.12237e-06
3.12314e-06
3.12397e-06
3.12478e-06
3.12549e-06
3.12603e-06
3.12641e-06
3.12665e-06
3.12674e-06
3.12668e-06
3.12647e-06
3.12612e-06
3.12561e-06
3.12494e-06
3.1241e-06
3.12318e-06
3.12234e-06
3.12314e-06
3.1239e-06
3.1247e-06
3.12549e-06
3.12617e-06
3.12669e-06
3.12706e-06
3.12729e-06
3.12738e-06
3.12732e-06
3.12712e-06
3.12678e-06
3.12629e-06
3.12564e-06
3.12483e-06
3.12393e-06
3.12311e-06
3.12373e-06
3.12448e-06
3.12526e-06
3.12603e-06
3.12669e-06
3.1272e-06
3.12756e-06
3.12779e-06
3.12787e-06
3.12781e-06
3.12762e-06
3.12729e-06
3.12681e-06
3.12618e-06
3.12539e-06
3.12451e-06
3.1237e-06
3.12414e-06
3.1249e-06
3.12566e-06
3.12641e-06
3.12706e-06
3.12756e-06
3.12792e-06
3.12814e-06
3.12822e-06
3.12816e-06
3.12797e-06
3.12765e-06
3.12718e-06
3.12656e-06
3.12579e-06
3.12493e-06
3.12412e-06
3.1244e-06
3.12515e-06
3.1259e-06
3.12665e-06
3.12729e-06
3.12779e-06
3.12814e-06
3.12835e-06
3.12843e-06
3.12838e-06
3.12819e-06
3.12787e-06
3.12741e-06
3.1268e-06
3.12603e-06
3.12518e-06
3.12437e-06
3.1245e-06
3.12524e-06
3.12599e-06
3.12674e-06
3.12738e-06
3.12787e-06
3.12822e-06
3.12843e-06
3.12851e-06
3.12846e-06
3.12827e-06
3.12795e-06
3.12749e-06
3.12688e-06
3.12612e-06
3.12528e-06
3.12447e-06
3.12443e-06
3.12518e-06
3.12593e-06
3.12668e-06
3.12732e-06
3.12782e-06
3.12817e-06
3.12838e-06
3.12846e-06
3.12841e-06
3.12822e-06
3.1279e-06
3.12744e-06
3.12683e-06
3.12606e-06
3.12521e-06
3.1244e-06
3.12421e-06
3.12496e-06
3.12572e-06
3.12647e-06
3.12712e-06
3.12762e-06
3.12797e-06
3.12819e-06
3.12827e-06
3.12822e-06
3.12803e-06
3.1277e-06
3.12724e-06
3.12662e-06
3.12585e-06
3.12499e-06
3.12418e-06
3.12382e-06
3.12457e-06
3.12535e-06
3.12612e-06
3.12678e-06
3.12729e-06
3.12765e-06
3.12787e-06
3.12795e-06
3.1279e-06
3.1277e-06
3.12737e-06
3.1269e-06
3.12627e-06
3.12548e-06
3.12461e-06
3.12379e-06
3.12326e-06
3.12403e-06
3.12482e-06
3.12561e-06
3.12629e-06
3.12681e-06
3.12718e-06
3.12741e-06
3.12749e-06
3.12744e-06
3.12724e-06
3.1269e-06
3.12641e-06
3.12576e-06
3.12496e-06
3.12406e-06
3.12323e-06
3.12254e-06
3.12331e-06
3.12413e-06
3.12494e-06
3.12564e-06
3.12618e-06
3.12656e-06
3.1268e-06
3.12689e-06
3.12683e-06
3.12662e-06
3.12627e-06
3.12576e-06
3.1251e-06
3.12426e-06
3.12334e-06
3.12251e-06
3.12159e-06
3.12239e-06
3.12325e-06
3.12411e-06
3.12483e-06
3.12539e-06
3.12579e-06
3.12603e-06
3.12612e-06
3.12606e-06
3.12585e-06
3.12548e-06
3.12496e-06
3.12427e-06
3.12339e-06
3.12243e-06
3.12156e-06
3.1206e-06
3.12142e-06
3.12229e-06
3.12318e-06
3.12393e-06
3.12452e-06
3.12493e-06
3.12518e-06
3.12528e-06
3.12522e-06
3.12499e-06
3.12461e-06
3.12406e-06
3.12334e-06
3.12243e-06
3.12146e-06
3.12057e-06
3.11954e-06
3.12052e-06
3.12141e-06
3.12234e-06
3.12311e-06
3.1237e-06
3.12412e-06
3.12437e-06
3.12447e-06
3.12441e-06
3.12418e-06
3.12379e-06
3.12324e-06
3.12251e-06
3.12156e-06
3.12057e-06
3.11951e-06
3.08054e-06
3.08144e-06
3.08227e-06
3.08314e-06
3.08387e-06
3.08443e-06
3.08483e-06
3.08508e-06
3.08517e-06
3.08511e-06
3.08489e-06
3.08452e-06
3.08399e-06
3.0833e-06
3.0824e-06
3.08148e-06
3.0805e-06
3.08144e-06
3.08221e-06
3.08303e-06
3.08387e-06
3.08459e-06
3.08515e-06
3.08555e-06
3.0858e-06
3.08589e-06
3.08583e-06
3.08561e-06
3.08524e-06
3.08471e-06
3.08402e-06
3.08315e-06
3.08224e-06
3.0814e-06
3.08227e-06
3.08303e-06
3.08384e-06
3.08465e-06
3.08535e-06
3.0859e-06
3.08629e-06
3.08652e-06
3.08661e-06
3.08655e-06
3.08634e-06
3.08598e-06
3.08547e-06
3.0848e-06
3.08396e-06
3.08305e-06
3.08223e-06
3.08315e-06
3.08387e-06
3.08465e-06
3.08543e-06
3.08612e-06
3.08664e-06
3.08702e-06
3.08725e-06
3.08734e-06
3.08728e-06
3.08708e-06
3.08673e-06
3.08623e-06
3.08558e-06
3.08477e-06
3.08389e-06
3.08311e-06
3.08387e-06
3.08459e-06
3.08535e-06
3.08612e-06
3.08678e-06
3.08729e-06
3.08766e-06
3.08789e-06
3.08797e-06
3.08791e-06
3.08771e-06
3.08737e-06
3.08689e-06
3.08626e-06
3.08547e-06
3.08461e-06
3.08383e-06
3.08443e-06
3.08515e-06
3.0859e-06
3.08664e-06
3.08729e-06
3.0878e-06
3.08816e-06
3.08838e-06
3.08846e-06
3.0884e-06
3.08821e-06
3.08788e-06
3.0874e-06
3.08678e-06
3.08602e-06
3.08517e-06
3.0844e-06
3.08484e-06
3.08555e-06
3.08629e-06
3.08702e-06
3.08766e-06
3.08816e-06
3.08851e-06
3.08873e-06
3.08881e-06
3.08875e-06
3.08856e-06
3.08824e-06
3.08777e-06
3.08716e-06
3.0864e-06
3.08557e-06
3.0848e-06
3.08508e-06
3.0858e-06
3.08652e-06
3.08725e-06
3.08789e-06
3.08838e-06
3.08873e-06
3.08894e-06
3.08902e-06
3.08897e-06
3.08878e-06
3.08846e-06
3.08799e-06
3.08739e-06
3.08664e-06
3.08582e-06
3.08504e-06
3.08517e-06
3.08589e-06
3.08661e-06
3.08734e-06
3.08797e-06
3.08846e-06
3.08881e-06
3.08902e-06
3.0891e-06
3.08905e-06
3.08886e-06
3.08854e-06
3.08808e-06
3.08748e-06
3.08673e-06
3.08591e-06
3.08514e-06
3.08511e-06
3.08583e-06
3.08655e-06
3.08728e-06
3.08791e-06
3.0884e-06
3.08875e-06
3.08897e-06
3.08905e-06
3.089e-06
3.08881e-06
3.08848e-06
3.08802e-06
3.08742e-06
3.08667e-06
3.08585e-06
3.08507e-06
3.08489e-06
3.08561e-06
3.08634e-06
3.08708e-06
3.08772e-06
3.08821e-06
3.08856e-06
3.08878e-06
3.08886e-06
3.08881e-06
3.08862e-06
3.08829e-06
3.08783e-06
3.08722e-06
3.08646e-06
3.08563e-06
3.08485e-06
3.08452e-06
3.08524e-06
3.08598e-06
3.08673e-06
3.08738e-06
3.08788e-06
3.08824e-06
3.08846e-06
3.08854e-06
3.08848e-06
3.08829e-06
3.08796e-06
3.08749e-06
3.08687e-06
3.0861e-06
3.08526e-06
3.08448e-06
3.08399e-06
3.08471e-06
3.08547e-06
3.08623e-06
3.08689e-06
3.08741e-06
3.08777e-06
3.088e-06
3.08808e-06
3.08802e-06
3.08783e-06
3.08749e-06
3.08701e-06
3.08637e-06
3.08559e-06
3.08473e-06
3.08395e-06
3.0833e-06
3.08402e-06
3.0848e-06
3.08558e-06
3.08626e-06
3.08679e-06
3.08716e-06
3.08739e-06
3.08748e-06
3.08742e-06
3.08722e-06
3.08687e-06
3.08637e-06
3.08573e-06
3.08492e-06
3.08404e-06
3.08326e-06
3.0824e-06
3.08315e-06
3.08396e-06
3.08478e-06
3.08548e-06
3.08602e-06
3.08641e-06
3.08664e-06
3.08673e-06
3.08667e-06
3.08646e-06
3.0861e-06
3.08559e-06
3.08492e-06
3.08409e-06
3.08318e-06
3.08236e-06
3.08148e-06
3.08224e-06
3.08305e-06
3.08389e-06
3.08461e-06
3.08518e-06
3.08558e-06
3.08582e-06
3.08591e-06
3.08585e-06
3.08563e-06
3.08526e-06
3.08473e-06
3.08404e-06
3.08318e-06
3.08227e-06
3.08144e-06
3.0805e-06
3.0814e-06
3.08224e-06
3.08311e-06
3.08383e-06
3.0844e-06
3.0848e-06
3.08505e-06
3.08514e-06
3.08507e-06
3.08486e-06
3.08448e-06
3.08395e-06
3.08326e-06
3.08236e-06
3.08144e-06
3.08046e-06
3.04281e-06
3.04361e-06
3.04435e-06
3.04514e-06
3.0458e-06
3.04631e-06
3.04668e-06
3.04691e-06
3.04699e-06
3.04693e-06
3.04673e-06
3.04639e-06
3.0459e-06
3.04527e-06
3.04445e-06
3.04363e-06
3.04276e-06
3.04361e-06
3.04429e-06
3.04502e-06
3.04579e-06
3.04644e-06
3.04696e-06
3.04733e-06
3.04755e-06
3.04764e-06
3.04758e-06
3.04738e-06
3.04703e-06
3.04655e-06
3.04592e-06
3.04513e-06
3.04431e-06
3.04356e-06
3.04435e-06
3.04502e-06
3.04575e-06
3.04649e-06
3.04714e-06
3.04764e-06
3.048e-06
3.04822e-06
3.0483e-06
3.04825e-06
3.04805e-06
3.04771e-06
3.04724e-06
3.04662e-06
3.04586e-06
3.04503e-06
3.0443e-06
3.04514e-06
3.04579e-06
3.04649e-06
3.04721e-06
3.04784e-06
3.04833e-06
3.04868e-06
3.04889e-06
3.04898e-06
3.04892e-06
3.04873e-06
3.0484e-06
3.04794e-06
3.04734e-06
3.0466e-06
3.0458e-06
3.04509e-06
3.0458e-06
3.04644e-06
3.04714e-06
3.04784e-06
3.04845e-06
3.04893e-06
3.04927e-06
3.04949e-06
3.04957e-06
3.04951e-06
3.04932e-06
3.049e-06
3.04855e-06
3.04796e-06
3.04724e-06
3.04645e-06
3.04575e-06
3.04631e-06
3.04696e-06
3.04764e-06
3.04833e-06
3.04893e-06
3.0494e-06
3.04974e-06
3.04995e-06
3.05002e-06
3.04997e-06
3.04979e-06
3.04947e-06
3.04903e-06
3.04845e-06
3.04774e-06
3.04697e-06
3.04627e-06
3.04668e-06
3.04733e-06
3.048e-06
3.04868e-06
3.04927e-06
3.04974e-06
3.05007e-06
3.05028e-06
3.05035e-06
3.0503e-06
3.05012e-06
3.04981e-06
3.04937e-06
3.0488e-06
3.0481e-06
3.04734e-06
3.04664e-06
3.04691e-06
3.04755e-06
3.04822e-06
3.0489e-06
3.04949e-06
3.04995e-06
3.05028e-06
3.05048e-06
3.05056e-06
3.0505e-06
3.05032e-06
3.05002e-06
3.04958e-06
3.04902e-06
3.04832e-06
3.04756e-06
3.04686e-06
3.04699e-06
3.04764e-06
3.0483e-06
3.04898e-06
3.04957e-06
3.05002e-06
3.05035e-06
3.05056e-06
3.05063e-06
3.05058e-06
3.0504e-06
3.0501e-06
3.04966e-06
3.0491e-06
3.04841e-06
3.04765e-06
3.04695e-06