/*--------------------------------*- C++ -*----------------------------------*\
  =========                 |
  \\      /  F ield         | OpenFOAM: The Open Source CFD Toolbox
   \\    /   O peration     | Website:  https://openfoam.org
    \\  /    A nd           | Version:  6
     \\/     M anipulation  |
\*---------------------------------------------------------------------------*/
FoamFile
{
    version     2.0;
    format      ascii;
    class       volVectorField;
    location    "0";
    object      U;
}
// * * * * * * * * * * * * * * * * * * * * * * * * * * * * * * * * * * * * * //

dimensions      [0 1 -1 0 0 0 0];

internalField   nonuniform List<vector> 
13046
(
(0.587806 0.308644 0)
(0.51681 0.0669974 4.71437e-21)
(0.279942 0.0793069 1.06204e-20)
(0.579296 0.243647 0)
(0.335618 0.144608 9.52029e-21)
(0.443932 0.0575731 0)
(0.61045 0.257471 -1.36167e-21)
(0.445782 0.0340963 -2.42725e-21)
(0.317256 0.151268 1.05304e-20)
(0.788775 0.392379 -4.23366e-21)
(0.650734 -0.183425 0)
(0.0514963 0.0381567 -7.10503e-21)
(0.663676 0.330136 8.52282e-21)
(0.513353 0.0174441 7.53365e-21)
(0.240144 0.0881516 -5.86692e-21)
(0.770005 0.452115 -2.05509e-21)
(0.0638578 0.00784243 -1.1386e-20)
(0.691053 -0.120441 -3.97141e-21)
(0.432405 0.217337 0)
(0.375097 0.0655034 5.14899e-21)
(0.543797 0.173211 -1.43334e-20)
(0.776146 0.442554 2.35404e-21)
(0.0603451 0.0154626 2.27948e-20)
(0.680903 -0.133521 -1.3162e-21)
(0.547048 0.254982 -5.77833e-21)
(0.483191 0.0862812 8.67004e-21)
(0.327452 0.108759 0)
(0.664743 0.352368 -1.43721e-22)
(0.530678 0.0158576 -2.19929e-21)
(0.223524 0.0711838 2.0277e-20)
(0.589243 0.324858 0)
(0.536253 0.07295 0)
(0.266002 0.0599515 -1.08121e-20)
(0.517112 0.233076 2.02492e-20)
(0.349884 0.113874 -3.56585e-21)
(0.476647 0.105028 -1.34546e-20)
(0.510526 0.215663 7.48059e-23)
(0.37133 0.132845 0)
(0.458593 0.107402 0)
(0.516838 0.338053 -7.46081e-21)
(0.28938 -0.0109913 -9.86778e-21)
(0.620606 0.125712 7.0514e-21)
(0.472625 0.167944 -4.69119e-21)
(0.426869 0.160413 4.79301e-21)
(0.430002 0.126356 0)
(0.497841 0.173048 -2.94707e-21)
(0.419788 0.175236 0)
(0.411749 0.106127 1.55485e-21)
(0.60344 0.302981 0)
(0.500571 0.0497425 3.39973e-22)
(0.272741 0.0921247 -6.61382e-24)
(0.329001 -0.0883798 -1.24373e-20)
(0.456832 0.361437 0)
(0.720202 0.161498 8.55621e-21)
(0.351229 -0.106205 1.77138e-20)
(0.746226 0.175992 9.11548e-21)
(0.425681 0.349501 -1.17525e-20)
(0.683328 -0.003575 1.73646e-21)
(0.719624 0.502178 0)
(0.145748 -0.0407984 -9.39687e-21)
(0.769103 0.311124 4.03214e-21)
(0.491074 -0.080195 -4.53246e-21)
(0.227264 0.162577 2.45081e-20)
(0.0994796 0.0605127 -1.29768e-20)
(0.617518 -0.128271 2.90073e-21)
(0.809494 0.400573 6.57833e-21)
(0.699344 0.508789 0)
(0.691109 0.0183931 -8.07151e-21)
(0.164893 -0.0585624 -2.74877e-21)
(0.683615 0.497856 3.18775e-21)
(0.683885 0.0295692 1.09384e-20)
(0.176063 -0.057317 3.73771e-21)
(0.696522 -0.0139833 1.80891e-23)
(0.730946 0.510092 -1.19297e-22)
(0.133758 -0.0449532 -4.33608e-24)
(0.448147 0.236786 0)
(0.357256 0.0515536 -5.61451e-21)
(0.557325 0.160884 1.02255e-20)
(0.10823 -0.0251043 -1.04188e-20)
(0.750256 0.498167 9.63884e-21)
(0.690976 -0.0494692 3.85537e-21)
(0.56808 0.261139 -3.01222e-21)
(0.471467 0.0714819 3.10599e-21)
(0.317759 0.119895 0)
(0.0866646 0.0521903 1.16528e-20)
(0.631053 -0.139957 0)
(0.8102 0.404999 -3.91014e-21)
(0.844661 0.338449 6.87459e-21)
(0.130566 0.123163 0)
(0.563782 -0.167867 2.25642e-21)
(0.16497 0.186034 0)
(0.88226 0.273906 0)
(0.520187 -0.220154 -3.03702e-22)
(0.753972 0.390799 8.17012e-21)
(0.772725 0.388811 -1.1366e-20)
(0.570812 -0.0504826 -8.81075e-21)
(0.572963 -0.070836 4.13859e-21)
(0.162626 0.0672796 5.34438e-21)
(0.152566 0.076813 -1.36797e-20)
(0.147665 0.141689 6.52074e-22)
(0.849884 0.323631 -6.72601e-21)
(0.547466 -0.173856 0)
(0.523394 0.191395 3.17616e-23)
(0.3998 0.172989 0)
(0.413371 0.0884517 0)
(0.384337 0.291664 -2.11354e-20)
(0.710337 0.204669 4.16359e-21)
(0.369315 -0.0657186 0)
(0.462699 0.340249 -3.21952e-21)
(0.319202 -0.0542605 0)
(0.678876 0.156566 1.60602e-20)
(0.717128 0.364431 0)
(0.023267 0.0203477 9.68831e-21)
(0.628356 -0.221773 3.29063e-21)
(0.637843 0.314114 -5.95642e-21)
(0.501801 0.0313675 -3.18284e-21)
(0.257203 0.0969186 -1.05574e-20)
(0.762195 0.42907 -4.73878e-21)
(0.748942 0.413837 4.42306e-21)
(0.613074 -0.0552304 -2.45425e-21)
(0.134405 0.0348694 -6.1393e-21)
(0.59228 -0.0429277 2.38563e-21)
(0.150738 0.0447849 5.73647e-21)
(0.772877 0.39475 1.0783e-20)
(0.657229 -0.190227 4.57298e-21)
(0.0425578 0.0302154 3.1833e-21)
(0.713556 0.380794 0)
(0.554987 -0.0182384 5.81093e-21)
(0.187674 0.0620402 -3.10793e-20)
(0.544114 0.349321 0)
(0.272749 -0.00217933 9.93056e-21)
(0.607469 0.107614 -4.09594e-22)
(0.18528 0.202283 0)
(0.877176 0.270037 0)
(0.509751 -0.206861 0)
(0.805437 0.375737 0)
(0.575577 -0.109485 1.15597e-20)
(0.141239 0.0936109 1.38319e-20)
(0.614009 0.340498 0)
(0.546331 0.0579286 0)
(0.248902 0.0502304 0)
(0.690691 0.265778 0)
(0.434878 -0.028212 0)
(0.303696 0.189029 0)
(0.445098 0.337054 2.9791e-21)
(0.333861 -0.0673472 0)
(0.698914 0.168634 -8.64311e-21)
(0.388683 0.27994 2.04935e-20)
(0.695657 0.205996 8.96018e-21)
(0.371903 -0.0522346 -1.07756e-20)
(0.781192 0.323746 -9.48072e-21)
(0.509394 -0.0890752 0)
(0.205821 0.14389 -3.19083e-20)
(0.371164 0.228607 0)
(0.64755 0.218017 -1.94784e-20)
(0.38822 -0.00782835 -2.75152e-21)
(0.398401 -0.123322 -4.96611e-21)
(0.780838 0.213137 -9.56532e-21)
(0.422826 -0.132309 0)
(0.797944 0.2323 -5.474e-21)
(0.354918 0.306882 -1.02454e-20)
(0.319338 0.280468 9.83834e-21)
(0.708054 0.239371 -1.23052e-21)
(0.409247 -0.0513183 -5.67876e-21)
(0.329898 0.225944 5.9962e-21)
(0.804947 0.379836 4.34568e-21)
(0.0572587 0.0493319 -3.68694e-21)
(0.633382 -0.19303 5.67245e-21)
(0.738602 0.378068 3.13694e-21)
(0.0288468 0.0225175 1.45515e-21)
(0.647036 -0.209345 0)
(0.805231 0.387716 -1.36529e-22)
(0.590011 -0.111415 0)
(0.126873 0.0796664 -1.67137e-20)
(0.579361 0.405264 0)
(0.64756 0.0931283 -2.27887e-21)
(0.249146 -0.0377169 -5.83925e-21)
(0.692056 0.227671 -8.1351e-21)
(0.351972 0.243321 0)
(0.39399 -0.0405631 0)
(0.07476 0.0772015 0)
(0.603792 -0.200444 0)
(0.832379 0.355912 -3.6644e-21)
(0.557769 0.38506 0)
(0.639144 0.106028 4.91985e-21)
(0.263335 -0.0283578 -1.50761e-21)
(0.3698 0.241917 0)
(0.65926 0.213963 0)
(0.379379 -0.0209347 0)
(0.668629 0.253831 -4.02583e-21)
(0.426931 -0.0151267 0)
(0.314563 0.18583 0)
(0.509277 -0.0105335 3.88959e-23)
(0.228061 0.103661 7.17227e-21)
(0.699721 0.364464 -1.24058e-20)
(0.540794 -0.00747478 0)
(0.203767 0.0726055 3.20972e-20)
(0.832646 0.368427 7.82799e-21)
(0.102054 0.0862867 -1.05315e-20)
(0.599478 -0.163605 1.09898e-20)
(0.179077 0.18291 -9.57177e-21)
(0.860878 0.292285 -4.19862e-21)
(0.52018 -0.185112 -1.12828e-20)
(0.868682 0.304999 1.16481e-20)
(0.546492 -0.200579 0)
(0.137543 0.150039 9.39763e-21)
(0.32372 -0.120545 5.10697e-21)
(0.751801 0.147595 -3.8465e-21)
(0.479979 0.41137 -9.93476e-21)
(0.659402 0.287844 7.87359e-21)
(0.741832 0.508658 -4.93784e-21)
(0.114869 -0.0347272 6.4199e-21)
(0.70202 -0.0409945 -1.8065e-23)
(0.559284 -0.209103 0)
(0.8627 0.315435 3.41234e-21)
(0.117531 0.128646 0)
(0.531452 0.21278 1.49176e-20)
(0.373608 0.15311 0)
(0.434846 0.0868817 -5.11674e-21)
(0.649386 0.359544 0)
(0.544794 0.0318236 3.16335e-22)
(0.229963 0.0590137 -5.98274e-21)
(0.189961 0.199067 -7.31418e-21)
(0.867965 0.28025 0)
(0.509884 -0.194949 1.29957e-20)
(0.68181 0.301491 0)
(0.494656 -0.0150511 -1.36751e-20)
(0.240959 0.119347 0)
(0.0416671 0.0415861 0)
(0.622433 -0.218225 -4.92281e-21)
(0.783739 0.364426 0)
(0.450533 0.39109 1.07463e-20)
(0.765853 0.158803 0)
(0.340952 -0.130021 0)
(0.862058 0.307544 -1.02217e-20)
(0.539658 -0.187897 0)
(0.149718 0.154406 2.49214e-23)
(0.752653 0.237509 -1.06942e-20)
(0.412721 -0.0918674 -4.32886e-21)
(0.320945 0.252956 1.37616e-20)
(0.708684 0.395683 0)
(0.568373 -0.0107646 -5.4235e-21)
(0.182626 0.0477736 -3.239e-21)
(0.466263 -0.194553 1.61051e-20)
(0.864811 0.237746 7.64843e-21)
(0.261208 0.269296 -5.73988e-21)
(0.819569 0.230992 0)
(0.433349 -0.15147 6.31316e-21)
(0.30894 0.283797 2.05877e-22)
(0.0394684 0.0442102 7.44605e-21)
(0.605346 -0.229628 0)
(0.784078 0.349574 3.61058e-21)
(0.50893 0.374049 -1.39017e-20)
(0.293655 -0.0539119 7.27907e-21)
(0.67331 0.133039 7.1154e-22)
(0.662239 0.384312 -3.36028e-21)
(0.017178 0.005338 8.03731e-22)
(0.659838 -0.191416 0)
(0.404229 0.197709 -3.12844e-21)
(0.553198 0.189397 1.1598e-20)
(0.390726 0.0621332 -1.54179e-20)
(0.74985 0.268091 -4.27e-21)
(0.739063 0.247256 -2.16998e-23)
(0.442353 -0.0783986 1.05591e-20)
(0.419323 -0.0768636 1.03743e-20)
(0.313254 0.235466 -1.09373e-20)
(0.279455 0.207588 5.66707e-21)
(0.0949338 -0.0187429 1.36351e-20)
(0.755272 0.491397 -5.11477e-21)
(0.697366 -0.0624167 0)
(0.687858 0.396108 0)
(0.575236 0.0108273 0)
(0.1954 0.0376301 1.29013e-20)
(0.834741 0.244527 2.00514e-21)
(0.452961 -0.164501 0)
(0.280814 0.264983 0)
(0.784835 0.40497 -4.29703e-21)
(0.596265 -0.0821294 0)
(0.131784 0.0610038 -6.10117e-21)
(0.463997 0.178277 -3.18658e-21)
(0.450916 0.137009 -4.62888e-21)
(0.414994 0.143161 1.59265e-21)
(0.784817 0.246047 6.99172e-21)
(0.431911 -0.11676 0)
(0.300468 0.253674 9.51886e-21)
(0.687602 0.411079 0)
(0.591573 0.0128232 -6.76573e-21)
(0.187984 0.0229027 8.33049e-21)
(0.688722 0.322603 -1.2754e-20)
(0.709953 0.333061 1.02655e-20)
(0.51271 0.386846 1.09876e-20)
(0.291554 -0.0661816 -2.1129e-20)
(0.685933 0.132221 1.57465e-20)
(0.797197 0.262237 7.16506e-21)
(0.451221 -0.123937 -9.2259e-21)
(0.270119 0.229577 -8.68414e-21)
(0.79634 0.402327 1.54939e-20)
(0.123143 0.0662267 2.14987e-20)
(0.600254 -0.0977027 5.76447e-21)
(0.467163 0.325205 4.83512e-21)
(0.318581 -0.0406002 0)
(0.66126 0.158388 -5.43755e-21)
(0.367077 0.328091 1.10457e-20)
(0.790816 0.202936 5.54433e-21)
(0.39253 -0.13769 0)
(0.731082 0.444826 1.53955e-21)
(0.623396 -0.0199703 5.97725e-21)
(0.147563 0.00950188 -3.8191e-21)
(0.482944 0.381707 -9.06812e-22)
(0.314957 -0.0865695 0)
(0.714842 0.150609 -1.18014e-20)
(0.744844 0.453796 0)
(0.756822 0.447045 0)
(0.634652 -0.0326131 3.89724e-21)
(0.136229 0.00851159 9.93721e-21)
(0.630505 -0.0492349 -5.5122e-21)
(0.128679 0.0198625 -1.05608e-20)
(0.0794773 0.0718323 8.18756e-21)
(0.612817 -0.185038 0)
(0.828676 0.369495 5.01684e-21)
(0.731095 0.414081 0)
(0.588734 -0.0271056 2.75432e-21)
(0.160863 0.0381334 -3.37599e-21)
(0.576142 -0.22628 -9.51092e-21)
(0.0106581 0.00899113 -1.19519e-20)
(0.627488 0.334897 -8.21503e-21)
(0.610751 0.198476 1.57388e-20)
(0.396615 0.227763 0)
(0.375645 0.0171757 5.80625e-21)
(0.744922 0.306852 -9.70864e-21)
(0.481439 -0.0608881 0)
(0.237512 0.156155 -1.87207e-20)
(0.112379 0.0858037 6.69006e-21)
(0.826807 0.374196 -1.43018e-20)
(0.593604 -0.146042 -8.23233e-21)
(0.355026 -0.11879 6.65951e-21)
(0.760383 0.175495 0)
(0.420036 0.362256 1.33158e-20)
(0.481615 -0.195731 1.97408e-20)
(0.867407 0.252457 4.67891e-21)
(0.232918 0.242006 0)
(0.475026 0.00372148 6.86693e-21)
(0.267133 0.131594 0)
(0.748965 0.345241 -1.06093e-20)
(0.519397 -0.053466 -5.00235e-21)
(0.200491 0.110616 -5.75295e-21)
(0.460016 -0.00590362 -2.44687e-22)
(0.278065 0.147619 -6.53933e-23)
(0.77463 0.455156 1.10626e-20)
(0.073904 0.0079047 -1.60179e-20)
(0.682733 -0.106923 5.83366e-21)
(0.312884 -0.131288 -6.65251e-21)
(0.75761 0.136822 -1.23328e-21)
(0.502637 0.434495 0)
(0.76512 0.352704 1.08089e-20)
(0.532382 -0.0667958 6.10937e-21)
(0.187058 0.111589 1.40455e-20)
(0.702687 0.258881 0)
(0.424943 -0.0431275 4.15407e-21)
(0.308489 0.203953 0)
(0.712038 0.188312 5.37318e-21)
(0.353432 -0.0745677 0)
(0.412643 0.313099 0)
(0.594003 0.282974 4.17962e-21)
(0.483386 0.0560972 7.5189e-21)
(0.294147 0.108665 -3.61413e-23)
(0.393819 0.348534 -1.37219e-20)
(0.781502 0.189458 -1.34837e-20)
(0.377085 -0.132927 -1.80502e-20)
(0.84634 0.346605 6.17213e-21)
(0.580618 -0.178182 -9.36466e-21)
(0.110743 0.104903 -1.57915e-22)
(0.49017 -0.185655 -1.33419e-20)
(0.861072 0.26553 -4.74309e-21)
(0.220349 0.224933 -7.2808e-21)
(0.644609 0.486018 9.90253e-21)
(0.208133 -0.0688025 -5.58756e-21)
(0.688923 0.0578118 0)
(0.751751 0.478848 -2.77846e-21)
(0.743514 0.474957 2.53457e-21)
(0.657419 -0.0311195 1.24177e-21)
(0.668025 -0.0416923 -5.4297e-21)
(0.118327 -0.0108493 3.65698e-21)
(0.129362 -0.0106578 3.21593e-21)
(0.0132193 0.00822853 1.21302e-20)
(0.604802 -0.2156 1.04712e-20)
(0.642253 0.347106 -2.13826e-21)
(0.678832 0.396079 2.16264e-22)
(0.0210517 0.00473262 0)
(0.676273 -0.184407 0)
(0.771 0.27746 1.57619e-20)
(0.459366 -0.0913081 2.3837e-21)
(0.265841 0.20393 0)
(0.0896642 0.0735255 2.02781e-20)
(0.8278 0.374859 -6.27325e-21)
(0.612053 -0.167769 0)
(0.694677 0.472505 -1.39056e-20)
(0.711927 0.471625 1.04176e-20)
(0.654446 0.0151379 -6.37298e-21)
(0.650657 0.000906893 -2.44632e-21)
(0.170957 -0.0293087 6.34979e-21)
(0.156913 -0.0193345 3.18551e-21)
(0.0960711 0.11625 0)
(0.552068 -0.232002 0)
(0.862763 0.298684 -1.85253e-21)
(0.617695 0.375589 3.94613e-21)
(0.013306 0.00096148 -7.56697e-21)
(0.650628 -0.185562 0)
(0.507695 0.14911 4.87016e-23)
(0.458012 0.214059 -6.79874e-21)
(0.37236 0.0910289 -3.42577e-21)
(0.677203 0.365391 6.89582e-21)
(0.633022 -0.213512 -4.81475e-21)
(0.017735 0.0119849 -1.50595e-20)
(0.613549 0.411186 -1.18703e-20)
(0.629334 0.0709165 1.05848e-20)
(0.228374 -0.0213844 7.9074e-24)
(0.839912 0.347295 -7.36828e-23)
(0.594222 -0.202333 -1.35037e-20)
(0.0860142 0.0881641 4.1566e-21)
(0.501583 -0.243547 -2.89433e-22)
(0.008944 0.0104944 1.37308e-20)
(0.602754 0.272382 3.16289e-21)
(0.492546 0.313494 6.45395e-21)
(0.306613 0.000766017 4.2077e-22)
(0.610954 0.140007 -1.7245e-20)
(0.580033 0.208394 0)
(0.400515 0.0459332 1.70872e-20)
(0.380209 0.193443 -8.77423e-21)
(0.76141 0.407536 -1.08526e-20)
(0.0402729 0.0231028 -9.49474e-21)
(0.669868 -0.180567 -4.32274e-24)
(0.599428 0.213282 0)
(0.393654 0.0311767 6.02211e-21)
(0.373256 0.204861 1.23902e-20)
(0.492319 0.152209 -6.95145e-21)
(0.451436 0.198202 7.17794e-21)
(0.3887 0.105991 -1.80374e-21)
(0.433805 0.393742 6.60127e-21)
(0.789926 0.166678 4.80999e-21)
(0.358591 -0.150005 -9.95234e-21)
(0.574866 0.168897 0)
(0.353514 0.0379455 0)
(0.435355 0.248552 -1.01603e-21)
(0.60218 0.18858 -8.42346e-21)
(0.363958 0.0240194 -4.65626e-21)
(0.418714 0.245014 -1.446e-22)
(0.62281 0.477483 -1.50543e-20)
(0.695875 0.0701799 8.16156e-21)
(0.225092 -0.0794251 1.10923e-20)
(0.0609536 0.0331432 -1.43461e-20)
(0.0610514 0.0393422 1.4548e-20)
(0.663154 -0.15575 -3.9732e-21)
(0.651972 -0.167075 -2.76306e-21)
(0.79052 0.418065 -8.79753e-21)
(0.797527 0.407848 1.32782e-20)
(0.850664 0.340834 -7.60813e-21)
(0.581311 -0.189579 8.40232e-21)
(0.103165 0.106694 0)
(0.196994 -0.0770969 -7.18814e-21)
(0.659403 0.505338 -3.07122e-21)
(0.699749 0.0487923 0)
(0.528045 0.37053 0)
(0.280671 -0.0375365 6.63509e-21)
(0.651847 0.121145 -5.40229e-21)
(0.82924 0.212546 0)
(0.421781 -0.166382 -6.53021e-21)
(0.33195 0.313928 -2.13047e-22)
(0.528901 -0.257308 -4.80033e-21)
(0.023993 0.0321146 0)
(0.71831 0.285211 8.26104e-21)
(0.145523 0.166065 0)
(0.877981 0.286219 0)
(0.531606 -0.219104 -5.67333e-21)
(0.762855 0.376826 -3.64816e-21)
(0.0363411 0.0314823 0)
(0.642079 -0.208794 4.83087e-21)
(0.00580163 0.00571451 5.08679e-32)
(0.477468 -0.23314 4.46993e-21)
(0.551888 0.259208 -3.19946e-21)
(0.513149 -0.200025 -5.00072e-21)
(0.00508569 0.00177421 -5.07492e-32)
(0.528378 0.298454 2.84997e-21)
(0.495683 -0.12316 1.26919e-20)
(0.811116 0.299733 0)
(0.221067 0.182209 1.87054e-20)
(0.550442 -0.247754 2.58739e-21)
(0.0610179 0.0791487 0)
(0.829671 0.296109 0)
(0.817215 0.36567 6.88485e-21)
(0.569517 -0.124918 -7.17874e-21)
(0.141406 0.104348 -9.76928e-21)
(0.737082 0.455336 -1.12288e-20)
(0.0473303 -0.00511185 -5.79993e-21)
(0.719185 -0.126576 0)
(0.640734 0.295426 -3.21407e-21)
(0.273853 0.122315 3.58086e-21)
(0.47947 0.020208 -3.30874e-21)
(0.546971 -0.228525 0)
(0.111096 0.132385 -6.90144e-21)
(0.869307 0.295051 -2.07924e-21)
(0.816881 0.203374 5.45384e-21)
(0.354538 0.331769 3.77738e-21)
(0.40707 -0.158578 0)
(0.464489 -0.159806 0)
(0.83319 0.257662 0)
(0.258163 0.244186 -6.79591e-21)
(0.00102944 -0.00199138 0)
(0.302494 -0.13441 3.75411e-21)
(0.314129 0.153955 -2.22478e-21)
(0.562113 -0.240392 -4.76621e-21)
(0.0124156 0.0130791 8.30666e-21)
(0.647806 0.321231 3.50218e-21)
(0.61737 0.279953 8.27648e-21)
(0.292585 0.126543 -8.43238e-21)
(0.469679 0.034761 -3.81593e-21)
(0.573359 -0.221381 -1.2012e-20)
(0.850199 0.323319 4.01271e-21)
(0.0823936 0.0968358 0)
(0.0883536 0.111749 7.24674e-21)
(0.860996 0.291652 0)
(0.544389 -0.241944 8.98891e-21)
(0.817099 0.394795 4.56602e-21)
(0.0822298 0.0590131 -2.17561e-20)
(0.626973 -0.15541 -1.13114e-20)
(0.089858 0.00167589 1.64763e-20)
(0.677957 -0.0806702 -6.12738e-21)
(0.769515 0.469103 0)
(0.606642 0.487638 1.90095e-20)
(0.715999 0.0803413 -1.04005e-20)
(0.241471 -0.0977669 1.05781e-20)
(0.665296 -0.014205 -1.8499e-21)
(0.72688 0.487323 -6.0098e-21)
(0.142378 -0.0253183 1.00321e-20)
(0.0748323 -0.0125246 1.47959e-20)
(0.756443 0.480454 0)
(0.707671 -0.0888769 4.5188e-21)
(0.639536 0.396177 2.98709e-21)
(0.663501 0.411885 0)
(0.593507 0.0495333 1.10341e-20)
(0.601348 0.0345326 -1.1794e-20)
(0.217066 0.0128696 -6.76346e-21)
(0.200651 0.0093156 0)
(0.616403 0.395826 2.9237e-21)
(0.607686 0.0666191 0)
(0.23007 -0.00149005 -3.24845e-21)
(0.684104 0.485217 0)
(0.669117 0.0246962 1.02931e-20)
(0.177044 -0.0438827 -2.2912e-21)
(0.483729 -0.173149 6.60788e-21)
(0.850151 0.266471 -4.9125e-21)
(0.2296 0.22359 1.49856e-20)
(0.568881 -0.204466 0)
(0.854934 0.328069 -1.24696e-21)
(0.105357 0.115693 0)
(0.193905 0.185854 4.84157e-21)
(0.84968 0.292401 3.10215e-21)
(0.511623 -0.16952 4.32073e-21)
(0.549949 -0.200446 6.84082e-22)
(0.00643772 0.00218894 -1.31544e-25)
(0.556979 0.320715 0)
(0.541167 0.323411 -5.80544e-21)
(0.550741 0.3144 0)
(0.28338 0.0283537 1.54124e-21)
(0.573335 0.107957 -2.11525e-20)
(0.284672 0.0455342 -1.95015e-21)
(0.553281 0.0972114 1.34379e-20)
(0.652792 0.462731 0)
(0.627173 0.446609 1.93554e-21)
(0.217991 -0.0434207 -2.31188e-23)
(0.659918 0.0488006 -6.39974e-21)
(0.202281 -0.0408242 -1.67213e-20)
(0.657321 0.0628739 1.35072e-20)
(0.483667 -0.252185 0)
(0.0114634 0.015471 -1.4963e-20)
(0.629543 0.261737 0)
(0.578181 -0.214452 7.07887e-21)
(0.850984 0.330335 -1.24393e-21)
(0.0867273 0.0958779 -4.3645e-21)
(0.538127 0.405872 3.62199e-21)
(0.279046 -0.0720923 7.61851e-21)
(0.68939 0.118795 -1.77905e-20)
(0.452861 -0.181889 -1.43281e-20)
(0.851373 0.232877 -1.28163e-20)
(0.281219 0.280653 0)
(0.0974371 -0.00425329 -1.76188e-20)
(0.677589 -0.0696504 6.51991e-21)
(0.76481 0.474953 0)
(0.596906 -0.238076 0)
(0.728534 0.341117 0)
(0.0237464 0.02652 0)
(0.593465 -0.237853 0)
(0.756235 0.336466 -6.31766e-21)
(0.0317294 0.0373253 0)
(0.715538 0.455977 5.76352e-21)
(0.632704 -0.00598316 -3.71873e-21)
(0.156666 -0.0036585 -4.71509e-21)
(0.450153 0.307561 1.70325e-21)
(0.330835 -0.0303632 0)
(0.653857 0.170297 -5.75107e-21)
(0.810046 0.39587 -5.32026e-21)
(0.0718448 0.0513784 -1.26993e-20)
(0.638667 -0.164237 1.63955e-20)
(0.496719 -0.139618 0)
(0.824368 0.295474 0)
(0.215996 0.192464 -1.61229e-20)
(0.106572 0.0531888 -4.10598e-21)
(0.619901 -0.10803 -9.87233e-21)
(0.798439 0.414944 -1.4382e-20)
(0.609275 0.444393 -1.97157e-21)
(0.230963 -0.0540224 1.1151e-20)
(0.667323 0.0746998 -6.89168e-21)
(0.740292 0.222122 1.03798e-20)
(0.393318 -0.0851066 -6.44002e-21)
(0.353748 0.275523 -1.34269e-20)
(0.507078 0.344618 -1.20469e-22)
(0.294089 -0.0272015 2.16794e-21)
(0.641541 0.132676 7.0796e-21)
(0.0697857 0.0585708 4.95524e-21)
(0.62878 -0.181937 -7.63283e-21)
(0.815318 0.380257 -5.84493e-21)
(0.776791 0.424447 2.6661e-21)
(0.615213 -0.0738481 2.90523e-21)
(0.124621 0.0429322 0)
(0.502123 0.305709 6.29602e-21)
(0.305536 0.0187324 -1.36104e-20)
(0.588757 0.132408 1.13714e-20)
(0.748087 0.4766 -4.43752e-21)
(0.063881 -0.0134535 -6.59079e-21)
(0.717988 -0.101252 -2.12108e-23)
(0.607149 0.357967 3.62571e-21)
(0.566576 0.0627075 0)
(0.24259 0.0322024 0)
(0.650927 0.237832 1.49957e-20)
(0.407983 -0.00460373 -3.73951e-21)
(0.341046 0.204181 0)
(0.466252 -0.141451 0)
(0.818971 0.265384 -1.02429e-20)
(0.25459 0.230374 7.11384e-21)
(0.706433 0.420009 0)
(0.0292655 0.00248642 2.03456e-21)
(0.702663 -0.164599 -5.26591e-21)
(0.708626 0.433337 -4.44743e-21)
(0.0325049 -0.00168197 -6.50408e-21)
(0.713606 -0.150191 5.03325e-21)
(0.100571 0.0396129 -3.75439e-21)
(0.634048 -0.101598 5.86401e-21)
(0.79182 0.427659 1.32182e-20)
(0.756168 0.208321 4.83757e-21)
(0.387085 -0.104688 1.28989e-20)
(0.369764 0.300304 0)
(0.0218141 -6.46285e-05 -1.8638e-21)
(0.695199 -0.172533 4.92399e-21)
(0.669678 0.406392 0)
(0.129235 0.101752 0)
(0.577037 -0.140754 6.03703e-21)
(0.826768 0.362816 1.64554e-21)
(0.0037884 0.00318944 -7.47379e-21)
(0.408099 -0.222865 -5.0341e-21)
(0.489032 0.210725 0)
(0.446886 0.273229 3.27837e-21)
(0.466733 -0.168634 0)
(0.00326666 -0.00134611 -7.48831e-21)
(0.0783724 -0.00274954 -1.21198e-23)
(0.693251 -0.0924464 7.69032e-22)
(0.764799 0.471562 0)
(0.0528103 0.0525912 0)
(0.621499 -0.208102 0)
(0.805442 0.366711 -7.69368e-21)
(0.791467 0.42597 4.71157e-21)
(0.797042 0.4244 -3.8117e-21)
(0.0689945 0.028831 7.19427e-21)
(0.664134 -0.136193 1.30358e-21)
(0.0786077 0.0353014 0)
(0.650555 -0.128738 0)
(0.834699 0.348081 -3.19473e-21)
(0.563919 -0.149706 -3.9878e-21)
(0.138456 0.117596 0)
(0.315445 0.314142 0)
(0.43263 -0.183177 0)
(0.847441 0.215762 0)
(0.547708 0.284902 -7.75677e-21)
(0.303272 0.0753252 1.85641e-20)
(0.519292 0.0933433 -7.42147e-21)
(0.838817 0.316815 -9.16067e-21)
(0.530255 -0.154643 -1.46937e-21)
(0.172703 0.156766 -1.42957e-20)
(0.191811 0.175331 -9.28746e-21)
(0.838447 0.304394 1.27386e-20)
(0.5155 -0.155161 2.03929e-21)
(0.750712 0.495926 -5.11111e-21)
(0.0843323 -0.0230751 -7.08116e-21)
(0.712095 -0.0711513 0)
(0.658651 0.475678 0)
(0.670792 0.0452013 -3.05595e-21)
(0.196452 -0.0498127 1.63894e-20)
(0.632267 0.427316 0)
(0.636892 0.060144 -1.39022e-20)
(0.216464 -0.0269424 -1.62242e-23)
(0.801088 0.326707 1.20447e-20)
(0.519493 -0.109912 -1.77649e-21)
(0.193478 0.146457 8.12392e-21)
(0.812291 0.318716 0)
(0.515396 -0.122587 -1.66883e-21)
(0.196289 0.157449 -7.4652e-21)
(0.485254 0.284202 0)
(0.321218 0.0317634 2.1481e-20)
(0.576197 0.140635 0)
(0.666785 0.425581 0)
(0.614145 0.0312856 7.8237e-21)
(0.193517 -0.00356252 -2.45657e-21)
(0.124533 0.1507 1.49409e-20)
(0.53278 -0.232773 1.28161e-20)
(0.879124 0.28341 0)
(0.76884 0.318489 1.38506e-22)
(0.0340894 0.0433917 -4.59535e-21)
(0.567821 -0.248391 -3.45824e-21)
(0.755531 0.29637 1.30331e-22)
(0.0314884 0.0419549 0)
(0.545857 -0.254163 9.93164e-21)
(0.566162 0.372638 -4.33013e-21)
(0.259179 -0.00877759 2.3639e-21)
(0.615283 0.0965392 1.08671e-22)
(0.569665 -0.243456 -1.46068e-22)
(0.0183678 0.0215319 -1.90463e-20)
(0.698394 0.32099 0)
(0.782106 0.435197 -1.14283e-20)
(0.109456 0.0337939 0)
(0.633053 -0.0836937 0)
(0.0182549 0.0239897 7.54783e-21)
(0.533182 -0.254798 5.37099e-21)
(0.690157 0.291208 -6.38998e-21)
(0.567506 0.227633 -1.03593e-20)
(0.358802 0.162132 -1.11487e-20)
(0.428772 0.0638786 -5.78986e-23)
(0.717326 0.352454 1.8099e-21)
(0.526262 -0.0239338 1.81919e-21)
(0.209292 0.0940794 7.36021e-21)
(0.366832 -0.098168 -1.47173e-20)
(0.742029 0.193541 -1.73e-20)
(0.399272 0.319624 0)
(0.0703259 0.0883046 0)
(0.557512 -0.240614 3.24151e-21)
(0.841708 0.304465 0)
(0.484742 -0.147295 0)
(0.827999 0.282525 0)
(0.229611 0.208448 0)
(0.0569674 -0.00385822 0)
(0.751953 0.461379 4.09849e-21)
(0.711913 -0.116245 -4.51597e-21)
(0.738933 0.360027 0)
(0.53331 -0.0421364 -9.03171e-22)
(0.195621 0.096232 1.65195e-23)
(0.536188 0.269919 7.49062e-21)
(0.318541 0.0867122 -1.59316e-20)
(0.507865 0.0982305 0)
(0.578043 -0.229237 1.13681e-20)
(0.834165 0.325891 -3.81136e-21)
(0.0685778 0.0813379 0)
(0.110762 0.0746829 8.61704e-21)
(0.601826 -0.132803 -3.83837e-22)
(0.815505 0.388758 -1.77473e-22)
(0.733633 0.404465 0)
(0.719023 0.397099 -4.38957e-21)
(0.0317976 0.0144751 -4.65062e-21)
(0.0271497 0.0138076 5.75015e-21)
(0.677647 -0.181909 3.24074e-21)
(0.670231 -0.191361 -2.66447e-21)
(0.731546 0.277332 0)
(0.446242 -0.0617668 -1.23526e-20)
(0.27873 0.191993 -8.86773e-21)
(0.478587 -0.109789 -1.78124e-20)
(0.795267 0.289563 0)
(0.236119 0.191289 9.81187e-21)
(0.626538 0.252419 8.47691e-21)
(0.431828 0.0182924 -6.37561e-21)
(0.318431 0.16744 -1.37252e-20)
(0.571295 -0.245909 -7.54296e-21)
(0.80058 0.3185 -4.90794e-21)
(0.55587 -0.251087 3.59464e-21)
(0.0449305 0.0568914 4.86767e-21)
(0.80751 0.302822 4.59859e-21)
(0.0491736 0.0632483 0)
(0.777626 0.375095 0)
(0.557307 -0.0785696 0)
(0.163728 0.0928886 -9.19399e-21)
(0.822058 0.336381 -4.9261e-21)
(0.806744 0.332023 1.24185e-20)
(0.591048 -0.227343 -4.95209e-21)
(0.588884 -0.235227 1.2417e-20)
(0.0577357 0.0676499 -1.28188e-20)
(0.0481718 0.0574458 1.7943e-24)
(0.786236 0.278767 0)
(0.461059 -0.10895 1.64324e-20)
(0.261556 0.214863 -1.27213e-20)
(0.700533 0.302741 -7.89672e-21)
(0.486875 -0.0320554 1.09699e-20)
(0.238814 0.133124 0)
(0.73632 0.443142 0)
(0.0416037 0.00108011 -8.96252e-22)
(0.710304 -0.142596 -4.83448e-21)
(0.731134 0.292435 -5.79978e-21)
(0.462299 -0.0542865 0)
(0.260808 0.171946 1.47471e-20)
(0.653781 0.269147 -3.40866e-21)
(0.444184 0.000203932 7.47455e-21)
(0.298143 0.160818 -8.03572e-21)
(0.725472 0.415545 0)
(0.0333877 0.00871114 0)
(0.693745 -0.170281 6.67308e-21)
(0.738777 0.376659 0)
(0.554302 -0.0384254 -1.93277e-21)
(0.17818 0.0755831 9.13576e-21)
(0.39509 -0.165356 0)
(0.81818 0.192043 0)
(0.377606 0.358052 4.86264e-22)
(0.605507 0.456412 4.85166e-22)
(0.683523 0.0795897 0)
(0.234304 -0.0686163 -8.65994e-21)
(0.491919 -0.209758 -7.73016e-21)
(0.210279 0.230655 0)
(0.879182 0.254988 0)
(0.00236348 -0.000521611 1.79864e-20)
(0.39257 -0.172915 -5.25705e-21)
(0.415803 0.208263 3.11543e-21)
(0.736773 0.324446 0)
(0.495172 -0.0467138 -6.74062e-21)
(0.225771 0.132971 0)
(0.766833 0.43548 -7.7253e-21)
(0.0515866 0.0146521 -2.43296e-20)
(0.688328 -0.142733 9.79313e-21)
(0.276552 -0.114865 0)
(0.73689 0.109206 6.76151e-21)
(0.555139 0.463825 0)
(0.543674 0.336336 0)
(0.0070883 -0.000230241 4.50414e-21)
(0.584572 -0.187175 0)
(0.405726 0.264335 -8.4757e-21)
(0.414428 0.28467 8.67934e-21)
(0.357211 -0.0181375 0)
(0.648465 0.192729 -7.24774e-21)
(0.351535 -0.0363164 1.38573e-20)
(0.668356 0.186538 5.83008e-21)
(0.622833 0.2355 -7.9734e-21)
(0.411523 0.018671 -8.45286e-21)
(0.344426 0.190087 0)
(0.464039 0.299474 -7.43947e-21)
(0.435262 0.277742 0)
(0.323188 -0.00715486 0)
(0.624328 0.157483 0)
(0.33985 -0.002075 7.75395e-21)
(0.623721 0.173128 -5.15677e-23)
(0.719241 0.319189 -5.00246e-22)
(0.467544 -0.0263831 4.77018e-21)
(0.262603 0.151202 9.93269e-21)
(0.705542 0.291638 1.35647e-20)
(0.458779 -0.034231 0)
(0.272407 0.166396 0)
(0.0396047 0.0537066 0)
(0.536407 -0.259 0)
(0.783535 0.288583 -4.83167e-21)
(0.592867 0.377049 1.1886e-20)
(0.601559 0.0807692 0)
(0.245501 0.00295715 -4.38226e-21)
(0.820863 0.353197 1.02765e-20)
(0.605603 -0.213771 -5.70333e-21)
(0.0603115 0.0656435 7.31884e-21)
(0.803249 0.344874 0)
(0.81502 0.349948 -6.62759e-21)
(0.539372 -0.109132 2.21326e-21)
(0.551532 -0.121387 -7.0713e-21)
(0.171245 0.126064 1.01413e-20)
(0.157666 0.12066 9.43365e-21)
(0.588937 0.35777 0)
(0.580779 0.0779526 0)
(0.252201 0.020654 -2.05998e-21)
(0.68425 0.455697 -4.67017e-21)
(0.640056 0.0230033 0)
(0.18074 -0.0200117 -5.46381e-21)
(0.774396 0.343665 3.4485e-21)
(0.523913 -0.0815753 0)
(0.189652 0.125572 -9.26859e-21)
(0.489211 0.230465 -8.18073e-21)
(0.500189 0.126941 -3.99636e-21)
(0.353722 0.0950355 -4.28188e-21)
(0.826459 0.327319 0)
(0.532809 -0.138071 0)
(0.17375 0.147275 1.51982e-20)
(0.528928 0.289774 0)
(0.303613 0.0565538 -2.35551e-21)
(0.541548 0.109093 0)
(0.779904 0.297119 7.7532e-21)
(0.477539 -0.0967441 9.15221e-21)
(0.240987 0.182444 1.27216e-21)
(0.687501 0.438426 -4.70326e-21)
(0.622023 0.016428 -8.91995e-21)
(0.179596 -0.00471403 0)
(0.499655 0.250753 8.11119e-21)
(0.48525 0.253796 3.63261e-21)
(0.515716 0.120815 -3.90987e-21)
(0.33619 0.0808845 8.45675e-21)
(0.537044 0.132558 0)
(0.335353 0.064755 1.51023e-20)
(0.458195 0.267376 3.69882e-21)
(0.335197 0.0257894 -1.00276e-20)
(0.438489 0.267429 -2.38211e-21)
(0.584522 0.156007 0)
(0.346276 0.00957067 -4.91863e-21)
(0.6106 0.173239 8.29991e-21)
(0.635867 0.379058 -4.29859e-21)
(0.660944 0.379744 0)
(0.57397 0.046319 -8.18656e-21)
(0.564732 0.0293528 6.3876e-21)
(0.22303 0.0293977 1.9552e-20)
(0.213848 0.0421279 -1.62652e-20)
(0.0930941 0.0145332 0)
(0.661266 -0.0862645 3.60136e-21)
(0.777084 0.453828 6.79823e-21)
(0.401945 0.366682 -1.63595e-20)
(0.797388 0.183062 -7.58673e-21)
(0.378246 -0.150227 1.56328e-20)
(0.083283 0.0180133 8.20598e-21)
(0.0858608 0.0294497 0)
(0.664674 -0.103417 -3.11274e-21)
(0.650831 -0.112197 -5.35698e-21)
(0.781612 0.44869 -1.735e-20)
(0.791168 0.435098 9.02138e-21)
(0.492587 0.402395 0)
(0.311621 -0.100311 8.33009e-21)
(0.727799 0.14298 -1.71411e-21)
(0.478018 0.19669 -1.7252e-20)
(0.390802 0.12939 0)
(0.46329 0.130164 1.36969e-20)
(0.826227 0.341142 3.16773e-21)
(0.54893 -0.137203 7.98289e-21)
(0.157218 0.129933 0)
(0.558777 0.340437 0)
(0.268552 0.0161175 1.96367e-21)
(0.584063 0.0976636 6.86923e-21)
(0.701175 0.439327 0)
(0.618903 0.00566031 0)
(0.170477 0.00272771 1.30779e-21)
(0.76183 0.468151 0)
(0.765989 0.455156 0)
(0.661352 -0.0585234 -1.89791e-21)
(0.110399 0.00200225 1.00165e-20)
(0.646885 -0.0609331 5.17924e-21)
(0.114265 0.0138731 -1.35492e-20)
(0.792588 0.369116 -6.50902e-21)
(0.559955 -0.0939349 -7.40753e-21)
(0.155793 0.0989085 -4.41636e-21)
(0.598599 0.351731 -5.25646e-21)
(0.614887 -0.196019 0)
(0.0108196 0.00252728 5.50905e-21)
(0.291388 -0.114235 0)
(0.738107 0.121528 -5.52128e-21)
(0.531457 0.442802 0)
(0.578285 0.467718 -4.91328e-21)
(0.567896 0.450504 5.3161e-21)
(0.259407 -0.0992512 5.41817e-21)
(0.718701 0.0971458 0)
(0.264148 -0.0892934 0)
(0.708416 0.102207 0)
(0.844572 0.281547 1.11969e-20)
(0.4951 -0.165864 -1.50172e-20)
(0.215472 0.204232 -6.91679e-22)
(0.667079 0.453376 9.5813e-21)
(0.643263 0.0359594 0)
(0.193044 -0.0257223 5.64331e-21)
(0.525209 0.417678 0)
(0.290759 -0.0923903 -1.93648e-20)