/*--------------------------------*- C++ -*----------------------------------*\
  =========                 |
  \\      /  F ield         | OpenFOAM: The Open Source CFD Toolbox
   \\    /   O peration     | Website:  https://openfoam.org
    \\  /    A nd           | Version:  6
     \\/     M anipulation  |
\*---------------------------------------------------------------------------*/
FoamFile
{
    version     2.0;
    format      ascii;
    class       volScalarField;
    location    "0";
    object      p;
}
// * * * * * * * * * * * * * * * * * * * * * * * * * * * * * * * * * * * * * //

dimensions      [0 2 -2 0 0 0 0];

internalField   nonuniform List<scalar> 
13046
(
0.83982
0.82787
0.856893
0.861816
0.858845
0.834405
0.836107
0.83914
0.863133
0.357656
0.266571
0.774818
0.827529
0.770469
0.839496
0.475222
0.773601
0.349879
0.872665
0.863536
0.855106
0.457462
0.77606
0.338813
0.84763
0.860261
0.85959
0.80076
0.774195
0.838035
0.849009
0.793902
0.847044
0.866153
0.870318
0.853848
0.868225
0.875826
0.865842
0.829834
0.839292
0.780623
0.866665
0.883533
0.871214
0.867816
0.867859
0.869184
0.826153
0.822357
0.855699
0.790754
0.8131
0.711319
0.803257
0.683123
0.815252
0.543923
0.69626
0.786805
0.734157
0.724173
0.819831
0.788765
0.489528
0.561794
0.719314
0.556303
0.783346
0.742293
0.578807
0.787048
0.502974
0.671768
0.784606
0.871518
0.875059
0.835137
0.784403
0.622071
0.488177
0.843104
0.851813
0.855036
0.783984
0.443898
0.515734
0.52824
0.788292
0.524005
0.774262
0.451421
0.509496
0.721275
0.69303
0.668734
0.644663
0.809986
0.809322
0.788818
0.537852
0.550571
0.868166
0.86735
0.863375
0.839488
0.730623
0.818161
0.820101
0.826518
0.744013
0.157442
0.768439
0.0638074
0.833708
0.793971
0.840336
0.686969
0.715344
0.604974
0.800431
0.651
0.804626
0.315988
0.211716
0.772453
0.778115
0.698733
0.828261
0.826412
0.83725
0.778473
0.775846
0.48777
0.561306
0.642231
0.595916
0.800035
0.835931
0.779627
0.838861
0.783382
0.819474
0.838293
0.811119
0.808896
0.74448
0.836963
0.755271
0.836112
0.720243
0.691105
0.813839
0.863034
0.806156
0.840642
0.763097
0.673175
0.745853
0.663273
0.809642
0.807372
0.788404
0.785726
0.826544
0.349431
0.774326
0.288
0.22257
0.770275
0.114077
0.624509
0.561323
0.797396
0.819343
0.71333
0.823822
0.795496
0.8299
0.799303
0.776764
0.349216
0.380663
0.823369
0.738596
0.81922
0.858274
0.788109
0.829132
0.799803
0.823277
0.840023
0.75735
0.839743
0.789232
0.730932
0.827884
0.49833
0.784962
0.464194
0.784917
0.535865
0.575165
0.453559
0.494589
0.776426
0.771446
0.657437
0.79551
0.810766
0.634352
0.776693
0.485196
0.442753
0.431409
0.774592
0.861817
0.872812
0.862751
0.809474
0.78482
0.836365
0.783208
0.519451
0.586313
0.792184
0.771438
0.843731
0.770115
0.193717
0.245776
0.796332
0.653839
0.759881
0.501827
0.539289
0.783037
0.722472
0.770906
0.824413
0.76259
0.708198
0.826606
0.651418
0.55487
0.777514
0.632646
0.720035
0.795744
0.769855
0.184703
0.206312
0.830006
0.827827
0.727232
0.191704
0.767371
-0.00369331
0.864988
0.857847
0.855915
0.730929
0.743935
0.765086
0.781337
0.832067
0.820513
0.775644
0.589804
0.444986
0.784053
0.726575
0.822764
0.625136
0.683969
0.794874
0.658056
0.601112
0.800603
0.872756
0.864043
0.883877
0.694326
0.746466
0.811678
0.783768
0.69908
0.820214
0.794972
0.788627
0.829977
0.816044
0.703569
0.684727
0.721653
0.80771
0.618697
0.79616
0.578411
0.844207
0.828787
0.759564
0.806857
0.653866
0.748099
0.716234
0.6228
0.798828
0.814144
0.794698
0.706415
0.686936
0.675877
0.597721
0.794721
0.584692
0.796932
0.778522
0.382002
0.415332
0.731955
0.676597
0.809929
-0.0917355
0.764932
0.0427517
0.840167
0.848646
0.829412
0.756509
0.74534
0.824347
0.789391
0.543027
0.51162
0.790251
0.654813
0.809319
0.621476
0.544632
0.779589
0.807377
0.843902
0.730653
0.732014
0.822296
0.793186
0.845589
0.521896
0.777723
0.396187
0.781286
0.629956
0.795695
0.708797
0.710479
0.815445
0.775799
0.8045
0.838566
0.740064
0.798727
0.826948
0.850031
0.823692
0.857675
0.796672
0.660465
0.757196
0.477272
0.476425
0.783537
0.631662
0.543277
0.785763
0.752623
0.786463
0.622379
0.651388
0.675823
0.564645
0.52697
0.782244
0.788455
0.767218
-0.0571474
0.0907613
0.230406
0.767224
0.0353916
0.710131
0.750184
0.81119
0.782235
0.474861
0.419443
0.733129
0.72486
0.626924
0.605853
0.800357
0.794821
0.768597
0.375999
0.333186
0.16027
0.76559
-0.0641403
0.851248
0.874934
0.871757
0.146568
0.00570133
0.768832
0.813539
0.712719
0.815454
0.399146
0.374912
0.776307
-0.0692482
0.767727
-0.0697382
0.838199
0.84017
0.799525
0.838579
0.868644
0.862826
0.326282
0.771471
0.200729
0.828476
0.855423
0.858473
0.859048
0.877458
0.876308
0.8018
0.622213
0.761415
0.824713
0.867304
0.863256
0.847527
0.82884
0.848417
0.768058
0.634613
0.787257
0.775423
0.777058
0.333108
0.326627
0.427148
0.414799
0.428347
0.447983
0.780218
0.793498
0.744879
0.583798
0.820157
0.817761
0.74808
0.615333
0.70784
0.784299
0.0809506
0.764842
0.0266655
0.774335
0.433832
0.479096
0.254893
0.77091
0.167293
0.769991
-0.120598
-0.0938801
-0.185192
0.770005
-0.0295635
0.692383
0.660894
0.801805
0.264514
0.76558
0.203306
0.611921
0.588954
0.798232
0.416752
0.766616
0.235754
0.822895
0.84474
0.826743
0.415551
0.770768
0.373761
0.629846
0.786937
0.721012
0.673069
0.623126
0.798718
0.774283
-0.335999
-0.237232
-0.0430907
0.765198
0.00829275
0.838829
0.854677
0.827696
0.361157
0.322864
0.772896
0.767346
0.282262
0.345711
0.47558
0.781681
0.420721
0.778348
0.45854
0.573031
0.783399
0.61753
0.790394
0.570601
0.69973
0.794952
0.774564
0.533568
0.363853
0.80477
0.791509
0.733213
0.710795
0.824212
0.824452
0.810485
0.738659
0.824177
0.750375
0.609446
0.801949
0.652852
0.580201
0.789769
0.426604
0.423692
0.777295
0.788356
0.574289
0.615703
-0.168204
0.769031
0.0195907
0.852214
0.847439
0.851245
0.798361
0.856879
0.810286
0.784484
0.774021
0.80682
0.646405
0.805416
0.686079
-0.0349198
0.76516
-0.0613223
0.384225
0.360032
0.774951
0.804904
0.796346
0.703458
0.678208
0.580591
0.784612
0.779657
0.479084
0.598067
0.0721046
0.119898
0.768635
0.127027
0.147774
0.768371
0.733072
0.630471
0.805137
0.849209
0.823536
0.7772
0.442659
0.779186
0.367412
0.673803
0.633246
0.803463
0.793301
0.523411
0.595334
0.783372
0.810058
0.68953
0.734768
0.779697
0.820155
0.831304
0.832223
0.764593
0.777465
0.348746
0.404641
0.655395
0.58337
0.797265
0.849681
0.848276
0.807729
0.490804
0.769253
0.31422
0.814525
0.78133
0.83986
0.819966
0.820699
0.852704
0.695081
0.645571
0.800658
0.303373
0.766962
0.108628
0.337629
0.766038
0.13495
0.790684
0.50603
0.591825
0.701845
0.786305
0.80981
0.764288
0.0401357
0.248431
0.792589
0.545258
0.578106
0.768409
-0.160641
-0.151674
-0.0706717
-0.244409
0.768278
0.778289
0.394631
0.544918
0.772962
0.261206
0.305296
0.47914
0.513396
0.778376
0.369856
0.782207
0.423737
0.563255
0.563216
0.792228
0.793476
0.695692
0.573597
0.863773
0.856999
0.823059
0.593547
0.600614
0.794642
0.795103
0.609615
0.621348
0.561235
0.774888
0.386228
0.772802
0.620272
0.801423
0.795029
0.694699
0.80669
0.669465
0.68087
0.811244
0.654494
0.668281
0.806393
0.855569
0.84309
0.827467
0.786217
0.689946
0.825542
0.769242
0.436271
0.371217
0.125832
0.766817
0.143178
0.0812032
0.76742
0.136644
0.823596
0.833406
0.758532
0.0276549
0.768236
0.0533921
0.625421
0.792994
0.534717
0.76544
0.037011
0.00776116
0.866379
0.864031
0.844916
0.775003
0.751614
0.828489
0.787949
0.712692
0.814697
0.767345
0.298623
0.253813
0.667543
0.639347
0.79919
0.769958
0.460679
0.295519
0.746597
0.732702
0.825728
0.871612
0.864853
0.830443
0.300284
0.283017
0.770004
0.791507
0.518235
0.571682
0.291441
0.250104
0.769962
0.768838
0.144674
0.0990983
0.756902
0.781275
0.831149
0.712972
0.684457
0.805732
0.826538
0.833833
0.861105
0.205292
0.179814
0.215899
0.767202
0.174095
0.765064
0.697931
0.661549
0.812727
0.273659
0.224353
0.270758
0.226271
0.771595
0.770374
0.69085
0.737364
0.818577
0.787163
0.776427
0.833143
0.383724
0.767982
0.208081
0.776535
0.759148
0.82875
0.820835
0.806433
0.847656
0.309759
0.767709
0.149041
0.750452
0.689414
0.816653
0.739775
0.603449
0.787872
0.787768
0.657797
0.803946
0.590781
0.772183
0.495638
0.771244
-0.27969
-0.183114
0.751053
0.750185
0.827232
0.419035
0.77319
0.282634
0.786484
0.622243
0.790204
0.0433991
0.765501
-0.146896
0.84882
0.834077
0.827872
0.796361
0.827119
0.777537
0.832736
0.831112
0.857322
0.836938
0.852147
0.835634
0.801048
0.855173
0.791846
0.770069
0.789316
0.842751
0.789654
0.792786
0.839788
0.764185
0.172517
0.108232
0.820444
0.757758
0.825481
0.31802
0.292977
0.773521
0.657265
0.62791
0.653132
0.615635
0.805447
0.799384
0.816507
0.790222
0.834549
0.753747
0.653465
0.802102
0.705125
0.696822
0.817195
0.86769
0.855555
0.863339
0.622599
0.62366
0.798528
0.851673
0.848024
0.829485
0.710867
0.732377
0.818433
0.755972
0.680782
0.803742
0.864856
0.862369
0.842528
0.868839
0.843714
0.863478
0.852796
0.838843
0.858673
0.829621
0.867371
0.803263
0.809848
0.806644
0.752655
0.748111
0.832531
0.825722
0.782804
0.473651
0.588128
0.790281
0.631169
0.753047
0.783075
0.784654
0.440096
0.45636
0.552019
0.54968
0.805556
0.799157
0.67608
0.8725
0.873333
0.865526
0.611601
0.597207
0.797223
0.842562
0.842205
0.781371
0.746843
0.669576
0.803846
0.641656
0.649484
0.517673
0.789144
0.539699
0.791833
0.668515
0.641238
0.805485
0.091361
-0.0873095
0.76631
0.782068
0.642714
0.792123
0.784424
0.789598
0.788946
0.635621
0.803213
0.656485
0.599582
0.639942
0.792259
0.761919
0.67336
0.807036
0.80945
0.792965
0.673675
0.790107
0.804555
0.801532
0.821633
0.705202
0.698507
0.784875
0.807601
0.671615
0.677221
0.660145
0.809644
0.856312
0.85227
0.835136
0.362931
0.77196
0.233988
0.80353
0.795172
0.654255
0.759733
0.738717
0.674134
0.657449
0.806369
0.809292
0.773893
0.279582
0.40273
0.391255
0.770611
0.230586
0.354467
0.770228
0.202385
0.622365
0.789497
0.518165
0.773896
0.699577
0.813344
0.348734
0.483448
0.708266
0.356767
0.642918
0.0810108
0.571868
0.439284
0.292693
0.629123
0.624841
0.2574
0.352353
0.628481
0.46289
0.355602
0.382561
0.439833
0.480039
0.583134
0.502995
0.42823
0.645643
0.764318
0.719145
0.492681
0.659939
0.269815
0.529849
0.336009
0.286324
0.565742
0.494266
0.485124
0.321629
0.513082
0.695521
0.642044
0.402319
0.529105
0.403393
0.770571
0.349552
0.626035
0.67491
0.420219
0.431565
0.371997
0.265927
0.349503
0.722426
0.506245
0.359287
0.411918
0.283983
0.715338
0.585153
0.50187
0.364697
0.615476
0.344449
0.359242
0.720205
0.463059
0.501158
0.588707
0.520517
0.762195
0.64402
0.633335
0.23067
0.281207
0.408418
0.604875
0.26444
0.48375
0.481704
0.312603
0.60241
0.675412
0.439413
0.487852
0.273984
0.339506
0.410962
0.615029
0.412978
0.376902
0.457664
0.729396
0.357405
0.616034
0.718859
0.489316
0.35487
-0.0185319
0.326659
0.377635
0.354062
0.226374
0.557706
0.650364
0.689804
0.770349
0.34514
0.352867
0.265703
0.373495
0.329992
0.692873
0.656515
0.582617
0.315615
0.280246
0.545319
0.653231
0.441478
0.377068
0.214799
0.431287
0.479648
0.744561
0.76013
0.608939
0.504369
0.416821
0.261543
0.742374
0.290263
0.601398
0.220219
0.721497
0.276241
0.265275
0.326996
0.673302
0.471434
0.176779
0.343631
0.574347
0.348103
0.619511
0.55247
0.370394
0.671603
0.41076
0.329896
0.684815
0.349172
0.448282
0.260741
0.515059
0.398968
0.679069
0.614518
0.430369
0.604758
0.621231
0.704093
0.486079
0.403863
0.36441
0.622095
0.2911
0.528488
0.274411
0.759506
0.434854
0.683184
0.737859
0.510572
0.747223
0.685102
0.700894
0.307224
0.212385
0.259151
0.708246
0.30826
0.285923
0.280512
0.289572
0.444587
0.410246
0.515509
0.738321
0.611153
0.403867
0.612719
0.393057
0.765263
0.225755
0.662532
0.372933
0.200788
0.72489
0.742166
0.363568
0.378436
0.758843
0.534298
0.396854
0.332429
0.60555
0.692786
0.593925
0.345285
0.366002
0.637323
0.500562
0.331636
0.553685
0.278291
0.299146
0.4179
0.66781
0.222733
0.427157
0.65118
0.406042
0.215961
0.431575
0.36392
0.404857
0.554736
0.567519
0.337812
0.280826
0.314548
0.586804
0.586589
0.429643
0.571938
0.417794
0.309252
0.53872
0.404573
0.194069
0.600038
0.683414
0.518317
0.734682
0.697772
0.767382
0.35603
0.168522
0.457384
0.42972
0.398503
0.232459
0.54349
0.719883
0.602287
0.534169
0.333664
0.435655
0.616779
0.50041
0.573669
0.351282
0.459522
0.401049
0.261581
0.337482
0.371684
0.357358
0.314368
0.572035
0.503012
0.432945
0.581325
0.36888
0.446742
0.350495
0.432255
0.397524
0.3882
0.528567
0.232521
0.159084
0.463895
0.251204
0.217738
0.53319
0.230075
0.220823
0.680715
0.577543
0.340954
0.610205
0.293545
0.564851
0.55648
0.286525
0.36277
0.650553
0.462893
0.616775
0.0770322
0.323409
0.684801
0.393794
0.33
0.134351
0.234742
0.20505
0.242781
0.407153
0.579307
0.308444
0.2054
0.330865
0.385994
0.765457
0.34559
0.602197
0.538441
0.250072
0.426264
0.33509
0.277048
0.557688
0.419431
0.719098
0.582717
0.334175
0.411077
0.509237
0.763568
0.609232
0.696773
0.614666
0.406271
0.516438
0.444985
0.321664
0.238678
0.380319
0.390075
0.579192
0.357343
0.258575
0.36069
0.413501
0.354459
0.377936
0.664406
0.397479
0.377246
0.714421
0.671188
0.336376
0.50449
0.693458
0.348386
0.220092
0.41348
0.311811
0.276356
0.690395
0.335892
0.434219
0.705232
0.219409
0.511997
0.352228
0.513127
0.416566
0.368175
0.00346892
0.426092
0.260149
0.378946
0.422533
0.421355
0.607179
0.717802
0.352349
0.49867
0.41373
0.319873
0.187999
0.655599
0.549772
0.384913
0.259829
0.52884
0.256566
0.361736
0.343543
0.326654
0.646042
0.716492
0.398717
0.600774
0.763877
0.6611
0.662581
0.70424
0.392034
0.383213
0.279233
0.761317
0.649921
0.682939
0.365562
0.408462
0.210118
0.614596
0.409544
0.337624
0.683875
0.566873
0.300976
0.421978
0.347509
0.359044
0.350936
0.412034
0.433894
0.302907
0.39791
0.241636
0.427297
0.306217
0.565163
0.477451
0.22311
0.695624
0.709851
0.611631
0.391384
0.519688
0.226915
0.627067
0.501738
0.254891
0.691283
0.15422
0.721445
0.250301
0.445271
0.458089
0.609019
0.632886
0.355306
0.738094
0.362362
0.666716
0.445833
0.565454
0.387054
0.340996
0.373566
0.673393
0.453278
0.756277
0.590151
0.235347
0.34984
0.56609
0.180945
0.395476
0.447575
0.30287
0.725688
0.302054
0.277158
0.636499
0.373877
0.718592
0.749986
0.418392
0.759192
0.734571
0.669016
0.688076
0.535697
0.266472
0.344614
0.42411
0.653445
0.421967
0.156756
0.735775
0.309228
0.441359
0.335606
0.701321
0.762944
0.323318
0.662195
0.536639
0.717518
0.42817
0.620397
0.425102
0.737661
0.753711
0.590429
0.34223
0.638278
0.391828
0.499136
0.488057
0.441997
0.539944
0.370896
0.162725
0.281666
0.454766
0.560051
0.505665
0.686759
0.326945
0.406763
0.561824
0.285276
0.708245
0.340857
0.425061
0.707891
0.675504
0.519754
0.743512
0.340468
0.408561
0.625944
0.48059
0.465958
0.443054
0.375661
0.568669
0.597568
0.376652
0.347887
0.518355
0.234646
0.299189
0.720112
0.763555
0.757651
0.442002
0.769882
0.761691
0.729923
0.185473
0.547831
0.540072
0.744944
0.404722
0.350102
0.264368
0.339892
0.1251
0.735229
0.459263
0.46933
0.625046
0.590426
0.397261
0.422855
0.761372
0.741158
0.69624
0.586025
0.386174
0.60013
0.56995
0.402482
0.458561
0.285118
0.337555
0.490673
0.471874
0.384347
0.723411
0.718563
0.191504
0.672488
0.359385
0.348697
0.409716
0.717546
0.433024
0.588516
0.45417
0.699566
0.412411
0.456297
0.753428
0.209715
0.231479
0.341254
0.30973
0.161969
-0.0597901
0.323631
0.16982
0.480639
0.189884
0.296034
0.47077
0.366663
0.325347
0.393558
0.271699
-0.0185997
0.736197
0.675643
0.4204
0.260112
0.68485
0.393345
0.349468
0.751493
0.333098
0.749248
0.432879
0.680053
0.439183
0.243486
0.288367
0.501198
0.504278
0.481911
0.246989
0.419758
0.301024
0.312727
0.366132
0.224327
0.277553
0.73188
0.333212
0.597391
0.632392
0.406928
0.652664
0.636066
0.264065
-0.0480138
0.44584
0.239925
0.168745
0.606277
0.61174
0.421858
0.563268
0.397303
0.753596
0.732325
0.445806
0.38596
0.740602
0.687558
0.554955
0.551969
0.408324
0.757614
0.48959
0.188952
0.702856
0.660634
0.720021
0.508888
0.346681
0.40618
0.614362
0.560801
-0.146627
0.77049
0.442747
0.337859
0.496667
0.696594
0.758009
0.755807
0.561264
0.463568
0.641133
0.690921
0.714822
0.598444
0.655492
0.263031
0.354433
0.525179
0.279832
0.25739
0.223096
0.439812
0.63749
0.241548
0.491562
0.357985
0.66908
0.755783
0.455818
0.266988
0.210268
0.624401
0.380972
0.333559
0.21574
0.722006
0.527231
0.541249
0.24848
0.543472
0.335098
0.352432
0.610225
0.633073
0.727015
0.764473
0.323286
0.694775
0.192247
0.705937
0.719226
0.71942
0.643137
0.302568
0.302857
0.426454
0.187687
0.482341
0.220262
0.533544
0.255775
0.683102
0.407988
0.201961
0.675572
0.6258
0.451794
0.462825
0.594033
0.718331
0.529168
0.479932
0.197397
0.660991
0.502423
0.745319
0.167926
0.474569
0.704385
0.612783
0.743418
0.619728
0.421611
0.143659
0.199772
0.462657
0.235592
0.733577
0.191176
0.371665
0.449221
0.336599
0.653016
0.17294
0.716238
0.616308
0.544919
0.166632
0.568045
0.327161
0.402871
0.46103
0.450164
0.407597
0.388222
0.64047
0.306421
0.769439
0.399136
0.458948
0.582889
0.613118
0.737989
0.409046
0.437063
0.324023
0.459465
0.383952
0.727877
0.338564
0.487404
0.406411
0.662636
0.359012
0.504994
0.273447
0.756355
0.184335
0.300822
0.375218
0.67
0.207617
0.222811
0.29387
0.258718
0.717929
0.477188
0.595481
0.680027
0.576515
0.489029
0.757914
0.479486
0.62028
0.572286
0.500949
0.222809
0.514621
0.461106
0.376406
0.51535
0.297977
0.235126
0.50662
0.403719
0.308894
0.655488
0.462693
0.593781
0.455273
0.73557
0.445626
0.435843
0.571965
0.255189
0.327783
0.407072
0.500878
0.527462
0.561881
0.713764
0.609232
0.651085
0.511491
0.695145
0.737547
0.732907
0.515604
0.48291
0.535714
0.269739
0.749346
0.68652
0.665411
0.481769
0.302048
0.22495
0.536539
0.612093
0.33921
0.66377
0.685499
0.560164
0.357758
0.502962
0.378773
0.33735
0.484075
0.362066
0.54156
0.21609
0.545014
0.452977
0.447205
0.175259
0.524369
0.497078
0.588804
0.402617
0.532171
0.711322
0.725805
0.543583
0.437476
0.652836
0.506023
0.333348
0.33244
0.437847
0.250249
0.713534
0.467863
0.519698
0.61643
0.602217
0.559553
0.290912
0.762455
0.569046
0.346065
0.476004
0.491789
0.652279
0.705689
0.571292
0.547837
0.209903
0.312531
0.447927
0.556031
0.490183
0.544235
0.367759
0.721464
0.550527
0.651791
0.691915
0.522247
0.342334
0.495787
0.745569
0.376339
0.201566
0.492406
0.75453
0.387375
0.438879
0.642052
0.611436
0.670464
0.477758
0.214246
0.553798
0.267701
0.395419
0.669596
0.467454
0.27644
0.334173
0.38349
0.568013
0.395925
0.368743
0.699291
0.351762
0.759587
0.666082
0.258397
0.155321
0.468221
0.620581
0.688631
0.474865
0.448229
0.330136
0.428452
0.446138
0.764142
0.705192
0.620328
0.399346
0.225463
0.727111
0.760597
0.721367
0.652822
0.702876
0.49015
0.275751
0.182181
0.203024
0.736402
0.495011
0.311637
0.415681
0.760467
0.407572
0.357603
0.244473
0.478616
0.326116
0.780873
0.555738
0.614209
0.700338
0.684533
0.432037
0.575988
0.489021
0.599144
0.36558
0.560181
0.366062
0.726666
0.256817
0.389413
0.300634
0.422304
0.709444
0.41698
0.666891
0.694765
0.702898
0.292218
0.485867
0.448091
0.342573
0.718545
0.508288
0.510277
0.550432
0.10573
0.420543
0.736893
0.582401
0.722633
0.192422
0.301701
0.415149
0.7332
0.342641
0.45171
0.313011
0.2868
0.403636
0.747785
0.430151
0.454213
0.248202
0.777375
0.746583
0.111814
0.737066
0.40517
0.294488
0.305389
0.487765
0.243775
0.559456
0.401649
0.392815
0.427766
0.716113
0.475876
0.666404
0.429523
0.289268
0.425145
0.190676
0.225173
0.460894
0.391864
0.520212
0.308529
0.455527
0.690952
0.551663
0.393158
0.233991
0.707093
0.479178
0.455951
0.771177
0.5193
0.38659
0.373235
0.293935
0.74013
0.381729
0.461667
0.566652
0.253385
0.713062
0.26711
0.695918
0.480573
0.634431
0.317547
0.652652
0.452982
0.263172
0.331497
0.478451
0.710393
0.150431
0.349099
0.4
0.737261
0.768591
0.32137
0.375834
0.553878
0.761145
0.441507
0.716605
0.686139
0.662819
0.634286
0.532152
0.590087
0.57454
0.721566
0.453991
0.500545
0.322583
0.361006
0.450678
0.312125
0.741074
0.274969
0.716473
0.443627
0.73299
0.374911
0.748529
0.630657
0.704753
0.733926
0.710519
0.769168
0.432894
0.695314
0.47511
0.413565
0.351546
0.310065
0.722697
0.277125
0.55539
0.568748
0.445886
0.553654
0.360516
0.730026
0.502328
0.643376
0.179757
0.336745
0.421394
0.787872
0.33185
0.58851
0.368808
0.422197
0.274141
0.436776
0.408645
0.658082
0.726648
0.2406
0.547422
0.41553
0.382892
0.674251
0.333309
0.358242
0.742788
0.204106
0.512906
0.614325
0.70645
0.751771
0.370146
0.352489
0.256735
0.40488
0.34486
0.41319
0.636473
0.397932
0.273218
0.452539
0.486266
0.38956
0.352619
0.398407
0.48889
0.262519
0.646797
0.633119
0.37982
0.643902
0.245909
0.243562
0.327421
0.20778
0.742416
0.412145
0.404937
0.364167
0.685558
0.72055
0.522282
0.636145
0.357626
0.34618
0.489097
0.407735
0.345532
0.720906
0.530385
0.587059
0.74679
0.655022
0.466441
0.73579
0.235303
0.527068
0.520777
0.565226
0.412315
0.739345
0.396577
0.558211
0.473825
0.387508
0.313339
0.36053
0.63078
0.677217
0.69776
0.496263
0.520719
0.737442
0.657754
0.461959
0.516348
0.286598
0.430578
0.663079
0.238559
0.690917
0.405279
0.70369
0.771467
0.724846
0.3932
0.702141
0.687708
0.201023
0.738656
0.357453
0.729992
0.658066
0.417894
0.307008
0.530269
0.435426
0.401548
0.352171
0.668499
0.383834
0.736909
0.297718
0.372914
0.339294
0.295138
0.405441
0.676795
0.75403
0.291594
0.642534
0.497941
0.558713
0.446428
0.551853
0.714515
0.663372
0.40857
0.706734
0.672983
0.74922
0.294809
0.377602
0.353186
0.637406
0.744471
0.68071
0.461743
0.748054
0.475836
0.24271
0.304919
0.150055
0.458245
0.272534
0.749841
0.759755
0.519063
0.773401
0.665933
0.51596
0.743238
0.283429
0.739256
0.428399
0.72031
0.409083
0.304641
0.631687
0.526151
0.730042
0.7142
0.718169
0.323428
0.320475
0.217489
0.694518
0.660987
0.318328
0.486611
0.663451
0.193857
0.374824
0.320891
0.415943
0.553996
0.41083
0.521133
0.631863
0.503585
0.521307
0.635371
0.406484
0.423378
0.553998
0.508548
0.413367
0.696027
0.730995
0.319107
0.657953
0.182718
0.365764
0.704132
0.64803
0.396417
0.723031
0.280068
0.63199
0.431017
0.429097
0.703845
0.413811
0.643817
0.633072
0.599091
0.762695
0.606015
0.25773
0.573885
0.45364
0.645788
0.762162
0.592282
0.47258
0.344679
0.431207
0.705623
0.290554
0.687252
0.330138
0.538497
0.65559
0.634967
0.495557
0.701568
0.74638
0.416763
0.408177
0.519213
0.319314
0.273626
0.526034
0.633087
0.337069
0.25457
0.334081
0.251018
0.626983
0.470778
0.650653
0.366859
0.72119
0.503607
0.687793
0.759037
0.351551
0.711691
0.408482
0.523616
0.490937
0.698248
0.355091
0.439167
0.498223
0.309178
0.415335
0.302505
0.271655
0.183548
0.743835
0.758881
0.334307
0.366735
0.640185
0.230577
0.331052
0.409527
0.614196
0.62626
0.217432
0.180126
0.714225
0.363779
0.55588
0.360855
0.248513
0.306283
0.527995
0.687629
0.551339
0.239114
0.722903
0.685002
0.334417
0.553781
0.400172
0.757728
0.421508
0.446837
0.267317
0.595235
0.73453
0.567745
0.522532
0.35128
0.464912
0.55675
0.743777
0.777335
0.353049
0.74901
0.361183
0.53601
0.536906
0.461331
0.393124
0.696474
0.418303
0.527911
0.329444
0.354351
0.426669
0.308513
0.599274
0.721354
0.333051
0.372082
0.527239
0.399421
0.340714
0.184528
0.395893
0.704592
0.179609
0.386501
0.623648
0.527592
0.462462
0.588444
0.676999
0.309796
0.313385
0.677656
0.450997
0.308252
0.479909
0.696335
0.58982
0.537558
0.356167
0.358369
0.345951
0.744983
0.679874
0.753719
0.455593
0.608296
0.28577
0.493076
0.688667
0.238872
0.25222
0.63306
0.683889
0.232463
0.378359
0.350222
0.297287
0.349005
0.774925
0.441414
0.372388
0.521568
0.344737
0.629541
0.53714
0.277625
0.380476
0.654763
0.462095
0.746675
0.269292
0.377139
0.577791
0.558095
0.46259
0.559237
0.309664
0.751188
0.746569
0.581987
0.702256
0.341175
0.695488
0.586951
0.57432
0.73618
0.231001
0.389466
0.758773
0.590611
0.221805
0.387565
0.678711
0.755723
0.490822
0.641589
0.352131
0.262991
0.32649
0.21275
0.688766
0.35845
0.505324
0.737555
0.346691
0.312732
0.353169
0.514538
0.36872
0.39482
0.348672
0.294404
0.463556
0.661327
0.732404
0.615417
0.397714
0.388214
0.208057
0.384046
0.574898
0.552246
0.598091
0.6275
0.38965
0.477616
0.672968
0.687393
0.755125
0.705201
0.739766
0.467448
0.278918
0.327626
0.292467
0.744893
0.515865
0.362288
0.734188
0.287273
0.666416
0.628492
0.384685
0.359188
0.389437
0.365859
0.684635
0.436045
0.615371
0.481691
0.729437
0.548252
0.761944
0.326102
0.48385
0.377462
0.174769
0.403044
0.650322
0.295732
0.0811329
0.536523
0.737835
0.647169
0.363787
0.267878
0.331803
0.290133
0.362412
0.292069
0.459243
0.301846
0.635176
0.330378
0.366739
0.733902
0.473291
0.591498
0.675866
0.448722
0.504542
0.318264
0.651993
0.429975
0.388169
0.45036
0.312595
0.26253
0.362778
0.34623
0.645225
0.755638
0.694023
0.540417
0.621793
0.239749
0.7502
0.542075
0.633956
0.358686
0.624857
0.39174
0.41076
0.664678
0.733487
0.649278
0.544019
0.422682
0.759591
0.411972
0.667989
0.742004
0.603779
0.435615
0.233059
0.667608
0.529254
0.301142
0.589022
0.521432
0.726441
0.353342
0.73911
0.755864
0.452904
0.328345
0.739016
0.272535
0.308142
0.410311
0.301964
0.396411
0.314259
0.271606
0.479557
0.368836
0.328486
0.391328
0.550878
0.365349
0.347812
0.581868
0.50578
0.253071
0.721132
0.768217
0.746096
0.358524
0.242161
0.765954
0.261314
0.465425
0.338839
0.412569
0.356832
0.63226
0.401372
0.400616
0.251709
0.237203
0.304028
0.405057
0.228784
0.490726
0.530186
0.4777
0.730686
0.522151
0.592279
0.43202
0.680911
0.407879
0.412182
0.787496
0.408956
0.520678
0.272326
0.605382
0.760085
0.436029
0.562725
0.521823
0.384009
0.350447
0.343089
0.301819
0.638258
0.314343
0.447679
0.400179
0.454431
0.33381
0.345294
0.464578
0.427941
0.382783
0.772149
0.470703
0.433443
0.539102
0.731777
0.413903
0.24095
0.658001
0.274711
0.431971
0.353652
0.469945
0.391554
0.415236
0.469635
0.75063
0.691709
0.248537
0.381642
0.237483
0.341493
0.219108
0.307275
0.400967
0.32324
0.408402
0.578821
0.769036
0.403859
0.625592
0.498189
0.743887
0.398879
0.758299
0.569621
0.285843
0.571536
0.636153
0.409441
0.689065
0.353897
0.699409
0.368832
0.108547
0.475927
0.767657
0.75907
0.63812
0.58253
0.613614
0.2492
0.380135
0.612606
0.761747
0.136324
0.474907
0.354513
0.405946
0.456174
0.33284
0.286345
0.364073
0.306092
0.373504
0.421024
0.453184
0.760688
0.684076
0.21823
0.659303
0.321457
0.336147
0.667673
0.36731
0.43065
0.598996
0.182166
0.340666
0.488759
0.693272
0.292087
0.35323
0.427067
0.574777
0.291575
0.728877
0.237609
0.40769
0.429336
0.360412
0.581818
0.578528
0.731569
0.349807
0.645442
0.530832
0.568938
0.352306
0.580035
0.321883
0.278603
0.197077
0.538024
0.473124
0.430129
0.711706
0.478839
0.528525
0.576898
0.334862
0.310508
0.40814
0.545452
0.363719
0.767421
0.275205
0.238272
0.406879
0.403662
0.365632
0.344385
0.624626
0.409789
0.483832
0.293223
0.356898
0.478285
0.277703
0.76524
0.763122
0.298743
0.332564
0.68734
0.49652
0.341545
0.266762
0.337589
0.300623
0.527064
0.717826
0.34336
0.248279
0.577515
0.470205
0.238887
0.295212
0.466541
0.618587
0.777864
0.283642
0.234303
0.54848
0.688769
0.437813
0.530143
0.422161
0.354675
0.413002
0.574163
0.467669
0.358078
0.659822
0.425399
0.199157
0.520828
0.367808
0.665414
0.762024
0.368473
0.401674
0.403725
0.40187
0.28329
0.414839
0.300008
0.734015
0.671447
0.616412
0.403325
0.255731
0.651001
0.747806
0.347287
0.515035
0.395294
0.18313
0.497684
0.409526
0.182235
0.348336
0.581043
0.283506
0.241604
0.302135
0.686904
0.26922
0.660125
0.455715
0.353924
0.42264
0.32614
0.666215
0.208851
0.413228
0.444008
0.277173
0.530746
0.613477
0.544876
0.473469
0.643532
0.295814
0.29732
0.715556
0.351968
0.710348
0.549526
0.436489
0.526114
0.69447
0.470498
0.234387
0.727403
0.344591
0.447021
0.69657
0.335893
0.739378
0.345668
0.427991
0.194257
0.429412
0.302634
0.485801
0.310094
0.201608
0.297671
0.292266
0.189391
0.717524
0.292206
0.421894
0.538794
0.479739
0.750363
0.752433
0.387961
0.474029
0.671031
0.374925
0.718929
0.202935
0.422127
0.51807
0.351778
0.676105
0.395901
0.405627
0.382917
0.350467
0.342401
0.204295
0.69872
0.000311221
0.74458
0.617866
0.311069
0.241075
0.309551
0.779702
0.619285
0.585031
0.465994
0.533868
0.44713
0.696115
0.65181
0.328876
0.564287
0.74716
0.458265
0.511044
0.57227
0.224019
0.293166
0.672689
0.419834
0.451354
0.739763
0.285814
0.207369
0.363605
0.449374
0.457896
0.767779
0.345457
0.261545
0.344722
0.446805
0.35063
0.708073
0.464592
0.31414
0.395139
0.347306
0.336396
0.391646
0.568767
0.496553
0.320202
0.707877
0.415627
0.69187
0.32115
0.286292
0.415597
0.701017
0.745546
0.67604
0.489055
0.466051
0.663125
0.758019
0.276434
0.719821
0.302565
0.590498
0.570329
0.706384
0.485923
0.691978
0.727897
0.365135
0.359444
0.422958
0.4807
0.303235
0.311392
0.27149
0.63192
0.677161
0.269868
0.726917
0.485464
0.647499
0.461202
0.311879
0.67332
0.653346
0.398873
0.381496
0.301405
0.754205
0.625277
0.763778
0.270725
0.302255
0.445865
0.682993
0.578191
0.726741
0.512557
0.763214
0.363085
0.435798
0.511436
0.379898
0.553368
0.230122
0.662931
0.470761
0.515788
0.72125
0.259826
0.273532
0.211772
0.547923
0.701082
0.381903
0.582325
0.243056
0.257752
0.456638
0.366653
0.345501
0.71694
0.489298
0.334477
0.438362
0.542015
0.73671
0.549492
0.429718
0.698165
0.487019
0.740833
0.499396
0.614013
0.432101
0.26874
0.769723
0.3153
0.527614
0.538308
0.715663
0.602836
0.468857
0.360329
0.758666
0.442415
0.32021
0.637267
0.751292
0.625904
0.584388
0.25853
0.192914
0.516217
0.324582
0.426673
0.501855
0.319969
0.733484
0.756883
0.725864
0.379178
0.415454
0.347035
0.400888
0.603189
0.287782
0.599398
0.733981
0.278723
0.402512
0.358924
0.678421
0.585288
0.415075
0.327462
0.623858
0.343672
0.220752
0.296061
0.767842
0.204237
0.658669
0.564952
0.350431
0.752692
0.525858
0.783575
0.177816
0.406075
0.518588
0.72446
0.404086
0.718211
0.527487
0.20383
0.47088
0.371985
0.412784
0.194667
0.656472
0.404953
0.326562
0.234357
0.475313
0.721183
0.137665
0.388792
0.699311
0.430187
0.693572
0.197137
0.34489
0.350167
0.444658
0.373388
0.258262
0.341983
0.150719
0.42602
0.428926
0.649028
0.514461
0.70194
0.333967
0.415192
0.261974
0.492275
0.150783
0.421453
0.763542
0.452549
0.388869
0.77412
0.325317
0.531284
0.576497
0.251145
0.379283
0.473444
0.534943
0.733008
0.750563
0.750759
0.545881
0.433787
0.437751
0.307766
0.690547
0.595842
0.354304
0.389912
0.383579
0.465787
0.784167
0.434764
0.784114
0.394163
0.577414
0.311502
0.346462
0.25567
0.368984
0.713324
0.388127
0.272243
0.30447
0.764541
0.386773
0.318771
0.313024
0.343864
0.622931
0.506537
0.521583