/*--------------------------------*- C++ -*----------------------------------*\
  =========                 |
  \\      /  F ield         | OpenFOAM: The Open Source CFD Toolbox
   \\    /   O peration     | Website:  https://openfoam.org
    \\  /    A nd           | Version:  6
     \\/     M anipulation  |
\*---------------------------------------------------------------------------*/
FoamFile
{
    version     2.0;
    format      ascii;
    class       volScalarField;
    location    "0";
    object      p;
}
// * * * * * * * * * * * * * * * * * * * * * * * * * * * * * * * * * * * * * //

dimensions      [0 2 -2 0 0 0 0];

internalField   nonuniform List<scalar> 
13046
(
0.553135
0.530795
0.594483
0.559606
0.587893
0.547043
0.540044
0.550598
0.596146
0.280081
0.251805
0.560378
0.538694
0.500219
0.588477
0.348218
0.561886
0.279676
0.588932
0.577113
0.550463
0.33786
0.563431
0.277292
0.557254
0.558138
0.587224
0.524165
0.499549
0.590983
0.562809
0.508629
0.587834
0.570938
0.589747
0.554848
0.569798
0.591886
0.56567
0.565591
0.581004
0.492142
0.568898
0.588532
0.575258
0.566152
0.579968
0.577377
0.540641
0.530073
0.59489
0.549408
0.569352
0.445756
0.556643
0.427248
0.574346
0.360132
0.477984
0.568812
0.46806
0.487876
0.583508
0.569365
0.356918
0.383932
0.494325
0.364202
0.56492
0.508227
0.374833
0.565893
0.340133
0.464558
0.567906
0.588688
0.588439
0.534425
0.569693
0.432154
0.336891
0.550887
0.554428
0.58665
0.566514
0.335325
0.360121
0.355708
0.569551
0.385734
0.562115
0.307147
0.389153
0.474281
0.455664
0.443616
0.433342
0.57932
0.581099
0.570589
0.357208
0.401493
0.564357
0.583987
0.57185
0.587723
0.458148
0.559635
0.567805
0.571128
0.466323
0.180605
0.554611
0.157402
0.543386
0.51489
0.585612
0.458893
0.473582
0.405703
0.576118
0.430759
0.577348
0.260238
0.225465
0.558941
0.510396
0.45659
0.589314
0.560427
0.581607
0.491876
0.561881
0.324654
0.415979
0.423495
0.412102
0.575583
0.554483
0.499868
0.585116
0.49924
0.546111
0.586077
0.565252
0.558927
0.46618
0.584437
0.474744
0.567708
0.462532
0.467671
0.58066
0.597779
0.510942
0.563172
0.528315
0.422477
0.516114
0.417319
0.575945
0.576635
0.498856
0.529929
0.57969
0.273544
0.560236
0.264505
0.214355
0.556032
0.180354
0.415643
0.393824
0.575143
0.559298
0.449348
0.579469
0.502691
0.579323
0.539753
0.563465
0.29914
0.283884
0.561758
0.465486
0.573604
0.595556
0.497935
0.558686
0.510718
0.547222
0.584352
0.494461
0.592462
0.51583
0.475859
0.586174
0.345587
0.566899
0.351322
0.568011
0.352739
0.418743
0.312361
0.378605
0.561469
0.542205
0.412201
0.559863
0.522967
0.439011
0.565249
0.333519
0.350483
0.303188
0.562182
0.561187
0.591408
0.566947
0.533049
0.503381
0.589239
0.567512
0.341447
0.427168
0.511531
0.505289
0.594907
0.557278
0.220432
0.220772
0.562307
0.410133
0.534158
0.336393
0.399603
0.566009
0.453752
0.52625
0.583924
0.503597
0.45973
0.588827
0.464832
0.356842
0.561779
0.399379
0.502808
0.57019
0.556464
0.22028
0.199684
0.572557
0.576853
0.455184
0.207412
0.55392
0.116977
0.585538
0.553752
0.56948
0.463816
0.46863
0.517165
0.52963
0.58762
0.579872
0.563046
0.414392
0.316892
0.518999
0.468008
0.584208
0.396043
0.480393
0.572521
0.437552
0.409824
0.576001
0.576338
0.567256
0.589319
0.436718
0.512454
0.578642
0.521272
0.449906
0.583688
0.515251
0.510621
0.574653
0.570464
0.440702
0.432405
0.49653
0.577302
0.414548
0.574017
0.40132
0.582944
0.570634
0.476903
0.575391
0.410248
0.521442
0.481481
0.4093
0.573802
0.569232
0.554054
0.442363
0.46438
0.455256
0.397705
0.572431
0.393076
0.57515
0.563809
0.312275
0.302922
0.484892
0.442578
0.580396
0.0789322
0.552326
0.127419
0.536141
0.582035
0.556851
0.483366
0.498192
0.584466
0.570119
0.368992
0.373836
0.550666
0.410163
0.571691
0.447503
0.353067
0.564203
0.528954
0.590905
0.473399
0.48472
0.585036
0.522278
0.591409
0.373186
0.563863
0.30109
0.550187
0.39568
0.560631
0.460029
0.474161
0.581645
0.491995
0.538747
0.588888
0.46337
0.549854
0.579205
0.554443
0.534596
0.592388
0.566333
0.414204
0.528284
0.330773
0.361751
0.565547
0.452856
0.352864
0.567757
0.51844
0.562823
0.397209
0.446893
0.460517
0.37703
0.3585
0.565783
0.569073
0.553117
0.0960219
0.152507
0.226508
0.554659
0.133608
0.452261
0.507966
0.575187
0.564964
0.335684
0.328493
0.498672
0.49161
0.404825
0.395051
0.57473
0.572098
0.556035
0.321594
0.252724
0.191233
0.552789
0.0874577
0.55107
0.584703
0.584255
0.179568
0.126092
0.554431
0.550699
0.451317
0.576064
0.290771
0.312294
0.563284
0.101768
0.552436
0.0635748
0.57075
0.578286
0.505122
0.539143
0.576697
0.587843
0.268952
0.559278
0.216127
0.530225
0.570177
0.587712
0.558722
0.584812
0.585047
0.569444
0.390729
0.535901
0.525373
0.585589
0.585096
0.54044
0.559187
0.579443
0.529735
0.402473
0.561769
0.563202
0.56417
0.278499
0.277865
0.316815
0.309183
0.304646
0.350767
0.56371
0.569071
0.514403
0.3751
0.56246
0.570357
0.470385
0.389113
0.497534
0.56276
0.176535
0.55158
0.107039
0.562276
0.300007
0.372836
0.228046
0.55735
0.205755
0.553028
0.0776112
0.0561346
0.0377137
0.553263
0.0959545
0.47545
0.423534
0.573781
0.268435
0.553017
0.190283
0.404716
0.412367
0.574902
0.322254
0.55665
0.222603
0.533296
0.588476
0.538377
0.340372
0.558615
0.271381
0.396679
0.563415
0.505618
0.473004
0.396456
0.575323
0.554489
-0.0314862
-0.0107423
0.10976
0.552198
0.104158
0.544151
0.591852
0.539123
0.311919
0.250231
0.558368
0.556081
0.226335
0.308672
0.337901
0.565256
0.327408
0.56508
0.3298
0.400684
0.541651
0.390792
0.563876
0.376301
0.477059
0.574141
0.562921
0.383165
0.279863
0.538469
0.530038
0.467294
0.454211
0.582494
0.584742
0.545787
0.468361
0.581169
0.510857
0.39192
0.576386
0.46239
0.372987
0.569245
0.34084
0.301268
0.564782
0.568372
0.373849
0.438569
0.0409218
0.553208
0.120803
0.57271
0.566158
0.588474
0.50641
0.591879
0.516002
0.533103
0.528999
0.573364
0.411482
0.575161
0.434007
0.116812
0.551187
0.0678567
0.32148
0.268602
0.560172
0.557385
0.55957
0.441766
0.479632
0.37019
0.565221
0.56581
0.337488
0.415345
0.16587
0.159388
0.554567
0.193613
0.170738
0.554821
0.493568
0.409991
0.578738
0.58623
0.564624
0.489239
0.322197
0.563489
0.300278
0.468079
0.40592
0.577455
0.573364
0.370769
0.403847
0.536763
0.574945
0.434204
0.460392
0.5337
0.578862
0.569629
0.57695
0.480602
0.562599
0.293863
0.300415
0.439167
0.397138
0.574893
0.575034
0.582835
0.511964
0.360531
0.559552
0.256916
0.543233
0.497392
0.588158
0.522526
0.547087
0.591551
0.483428
0.410358
0.573861
0.262766
0.555609
0.167072
0.28117
0.555615
0.176468
0.572154
0.359315
0.404395
0.43983
0.540517
0.572861
0.553312
0.134312
0.234161
0.571553
0.391346
0.386275
0.55205
0.0559142
0.0286737
0.0735206
0.00942712
0.552311
0.565401
0.29656
0.386883
0.559514
0.254267
0.250414
0.34668
0.362843
0.562952
0.294441
0.565827
0.321169
0.375591
0.40386
0.571427
0.571416
0.49233
0.364915
0.572921
0.58802
0.529045
0.387322
0.426828
0.5732
0.573376
0.394316
0.438828
0.400625
0.563068
0.287572
0.527146
0.396683
0.573852
0.539939
0.4416
0.57201
0.431195
0.465742
0.581491
0.421344
0.460688
0.579081
0.57829
0.575872
0.527127
0.528495
0.440049
0.587134
0.55852
0.35191
0.26719
0.15689
0.553962
0.204023
0.133276
0.553276
0.205189
0.558355
0.58223
0.478585
0.146826
0.553329
0.126338
0.424211
0.573018
0.37112
0.552113
0.153699
0.0993181
0.561431
0.588626
0.556549
0.50441
0.491318
0.586519
0.543561
0.446051
0.574305
0.554668
0.283448
0.21523
0.465723
0.408492
0.574984
0.559098
0.343743
0.250787
0.485188
0.482118
0.58841
0.5769
0.591073
0.535384
0.28062
0.231701
0.557642
0.572201
0.373466
0.385931
0.253894
0.232957
0.55655
0.555608
0.189052
0.167875
0.480676
0.52314
0.587253
0.48629
0.437051
0.57434
0.530594
0.54984
0.596615
0.235112
0.18222
0.242352
0.555016
0.178255
0.553478
0.455695
0.444506
0.583221
0.229872
0.205973
0.265028
0.244275
0.558229
0.556219
0.43787
0.502201
0.584881
0.504132
0.512064
0.587687
0.303588
0.557887
0.211596
0.49488
0.506599
0.585904
0.526462
0.532601
0.589678
0.262665
0.555842
0.188768
0.491127
0.454679
0.581556
0.519682
0.380146
0.564192
0.542056
0.415012
0.571126
0.432283
0.560032
0.326584
0.5534
-0.00377638
0.0163637
0.483441
0.497415
0.586054
0.319081
0.559932
0.250648
0.557615
0.391904
0.55125
0.128537
0.551663
0.0539374
0.586373
0.578439
0.561792
0.50272
0.56362
0.490096
0.533281
0.552187
0.591446
0.573466
0.583817
0.572274
0.505823
0.581345
0.500165
0.495471
0.521241
0.593347
0.504053
0.525683
0.591573
0.552265
0.222259
0.144954
0.552923
0.480262
0.578762
0.253351
0.272792
0.560104
0.427194
0.411896
0.447989
0.428414
0.577389
0.574018
0.547612
0.501346
0.583621
0.510219
0.42015
0.574214
0.455785
0.468747
0.584853
0.576372
0.554187
0.583396
0.404456
0.436242
0.574935
0.569045
0.582007
0.531224
0.452785
0.495016
0.584205
0.508191
0.43748
0.57509
0.575274
0.577392
0.542495
0.590536
0.541046
0.586686
0.578717
0.570016
0.58634
0.528886
0.587621
0.508735
0.539494
0.533685
0.480438
0.480129
0.586725
0.583248
0.567072
0.338597
0.407096
0.563311
0.396608
0.527573
0.568106
0.568728
0.323622
0.334765
0.386601
0.382553
0.564066
0.559469
0.423226
0.576442
0.584981
0.566492
0.401088
0.420495
0.574281
0.567436
0.584689
0.495574
0.50088
0.43279
0.575902
0.439077
0.441215
0.355626
0.571549
0.369098
0.572423
0.437778
0.43619
0.577875
0.152335
0.0819511
0.552523
0.552765
0.404031
0.553862
0.54434
0.547866
0.560346
0.400896
0.569309
0.412098
0.385926
0.452267
0.571214
0.516785
0.429305
0.576495
0.563464
0.558097
0.42268
0.545508
0.551914
0.564921
0.579583
0.443033
0.43873
0.542967
0.571704
0.421797
0.440376
0.448847
0.580669
0.574697
0.58198
0.53399
0.288484
0.558781
0.23096
0.559906
0.561279
0.41092
0.506628
0.491843
0.437189
0.428969
0.576339
0.580943
0.560291
0.251849
0.307849
0.305009
0.5591
0.224007
0.285457
0.55771
0.213748
0.42456
0.571315
0.360398
0.523849
0.445101
0.578853
0.333498
0.38845
0.513336
0.338176
0.471083
0.196825
0.429476
0.369615
0.305132
0.461101
0.458175
0.286708
0.333573
0.461368
0.367091
0.335977
0.344675
0.364714
0.383715
0.432356
0.387511
0.360013
0.471036
0.555221
0.521522
0.394058
0.481739
0.289853
0.404518
0.323787
0.298411
0.423938
0.388636
0.375887
0.312979
0.398963
0.505823
0.469134
0.354127
0.417326
0.350398
0.553229
0.326474
0.459579
0.494025
0.349671
0.356189
0.336771
0.289676
0.326614
0.52463
0.386697
0.338609
0.35272
0.298445
0.51916
0.435088
0.39214
0.337081
0.453888
0.324263
0.330809
0.522207
0.381401
0.391669
0.436998
0.399416
0.551415
0.470271
0.470995
0.275257
0.299535
0.356628
0.445184
0.290491
0.373669
0.393023
0.307678
0.447474
0.490073
0.365158
0.382606
0.293208
0.328178
0.343585
0.454938
0.343965
0.339767
0.365527
0.527995
0.336327
0.452941
0.520908
0.377261
0.334491
0.134892
0.319337
0.339664
0.334208
0.271516
0.423538
0.47458
0.502829
0.555138
0.330318
0.329078
0.288179
0.346275
0.321373
0.504062
0.478806
0.429807
0.313914
0.297813
0.423866
0.481303
0.360316
0.340229
0.269422
0.359667
0.374001
0.537592
0.548187
0.448007
0.39774
0.362451
0.290415
0.5396
0.301488
0.442548
0.270844
0.523377
0.295735
0.272359
0.32131
0.488778
0.366407
0.244396
0.325998
0.429224
0.330389
0.456611
0.428335
0.340803
0.49199
0.353766
0.321117
0.497371
0.326202
0.365902
0.287629
0.405993
0.352533
0.494201
0.452066
0.353902
0.445883
0.457913
0.510861
0.394531
0.354779
0.338551
0.463782
0.302414
0.414132
0.292728
0.549732
0.361752
0.498447
0.536262
0.393122
0.543292
0.49814
0.508532
0.310395
0.2657
0.288661
0.513655
0.309993
0.298972
0.294545
0.301128
0.364074
0.352848
0.398268
0.536749
0.449882
0.348696
0.454161
0.345516
0.550779
0.254022
0.486701
0.34278
0.262129
0.525135
0.538551
0.338038
0.339731
0.549075
0.406368
0.347431
0.320295
0.445838
0.50291
0.450601
0.326281
0.337436
0.471744
0.399404
0.321514
0.41596
0.28864
0.304538
0.362354
0.481877
0.272927
0.362112
0.475267
0.341467
0.268738
0.358086
0.341531
0.356747
0.417711
0.424204
0.326764
0.295985
0.313511
0.43462
0.444452
0.344401
0.42422
0.355766
0.311533
0.407271
0.350492
0.254647
0.449701
0.496115
0.395415
0.530755
0.50574
0.55212
0.335568
0.242713
0.36741
0.354599
0.355444
0.279343
0.412416
0.520929
0.446131
0.403793
0.321358
0.351913
0.461167
0.387109
0.438776
0.327427
0.373081
0.347106
0.279282
0.326658
0.341266
0.334979
0.314299
0.426278
0.397621
0.35447
0.43227
0.344476
0.36216
0.327526
0.357308
0.331588
0.344386
0.402232
0.27563
0.232132
0.377322
0.28296
0.263222
0.402236
0.261159
0.266894
0.494315
0.427605
0.326728
0.454661
0.302938
0.422603
0.416123
0.289168
0.339807
0.479481
0.368047
0.459907
0.191503
0.317752
0.497333
0.344342
0.321447
0.220105
0.273571
0.259865
0.277827
0.349733
0.432597
0.309637
0.262221
0.317948
0.343002
0.551171
0.322997
0.445234
0.416405
0.269861
0.370287
0.324175
0.294012
0.418872
0.357729
0.521116
0.443397
0.323606
0.351635
0.388815
0.555867
0.458245
0.506567
0.451559
0.352878
0.39665
0.362007
0.313255
0.278099
0.339096
0.351666
0.439928
0.332462
0.284114
0.339398
0.360969
0.335511
0.345214
0.483135
0.353272
0.345403
0.51824
0.491656
0.327147
0.401525
0.504281
0.303293
0.25507
0.354477
0.31027
0.294871
0.501364
0.322374
0.369181
0.51253
0.266677
0.400498
0.335192
0.395077
0.355285
0.335188
0.142137
0.367629
0.287165
0.317387
0.351659
0.348577
0.455194
0.52096
0.333331
0.401036
0.363391
0.313101
0.251196
0.478275
0.426521
0.321069
0.28548
0.411973
0.285062
0.337926
0.327279
0.320385
0.471493
0.519601
0.349225
0.452647
0.554112
0.482185
0.486939
0.510987
0.347748
0.344667
0.296726
0.552399
0.479426
0.497696
0.33354
0.342379
0.267111
0.460274
0.359416
0.318467
0.499227
0.434983
0.307518
0.365444
0.332421
0.338309
0.332811
0.350993
0.356413
0.307294
0.351756
0.277458
0.370071
0.308277
0.435248
0.381481
0.273406
0.504688
0.515204
0.450036
0.3477
0.404037
0.256566
0.458293
0.386164
0.28027
0.502127
0.223655
0.522805
0.286646
0.36455
0.379848
0.447268
0.470432
0.335258
0.535061
0.336523
0.48536
0.365956
0.433632
0.346415
0.327036
0.337711
0.490312
0.378145
0.55002
0.436228
0.275775
0.327029
0.424817
0.239824
0.348739
0.367049
0.309477
0.526825
0.302442
0.290246
0.467129
0.337982
0.520959
0.544633
0.344233
0.552513
0.532927
0.485657
0.500218
0.409597
0.288492
0.324088
0.357666
0.476572
0.360659
0.22453
0.533761
0.309087
0.353137
0.319695
0.509128
0.550065
0.320195
0.482344
0.417956
0.520951
0.368772
0.455939
0.342017
0.536466
0.548148
0.441091
0.324348
0.473026
0.353406
0.39616
0.387353
0.3729
0.417675
0.339718
0.230631
0.297062
0.378482
0.428057
0.402967
0.498586
0.316555
0.355403
0.433029
0.30084
0.513681
0.326552
0.341469
0.513946
0.49087
0.409419
0.539263
0.326239
0.343288
0.459527
0.391754
0.379278
0.362219
0.33864
0.424555
0.442258
0.338886
0.331815
0.40615
0.275127
0.305449
0.522651
0.552239
0.550769
0.367896
0.559019
0.549815
0.529989
0.252066
0.418707
0.415704
0.538882
0.351808
0.332296
0.291141
0.323191
0.209815
0.534632
0.36504
0.371195
0.458581
0.44022
0.347497
0.342462
0.549332
0.53742
0.50488
0.443793
0.327714
0.452168
0.43025
0.348786
0.379256
0.299208
0.322079
0.397323
0.376827
0.346625
0.523838
0.521308
0.25325
0.488182
0.338076
0.3277
0.361275
0.520373
0.36313
0.443324
0.365232
0.506532
0.350675
0.368279
0.548925
0.271096
0.271995
0.328183
0.311989
0.236858
0.117967
0.320175
0.245379
0.382041
0.25461
0.307107
0.375953
0.315045
0.320011
0.351285
0.295386
0.135688
0.533915
0.49124
0.351354
0.285602
0.495839
0.331675
0.332184
0.545636
0.326495
0.545761
0.366971
0.49406
0.366813
0.273851
0.301757
0.401733
0.402049
0.382487
0.274779
0.354831
0.31015
0.314527
0.339753
0.273981
0.296787
0.531419
0.321761
0.440707
0.464301
0.352938
0.470498
0.466145
0.290273
0.122529
0.366311
0.279678
0.240248
0.447443
0.450402
0.350859
0.426358
0.347637
0.549007
0.530925
0.359099
0.342576
0.537224
0.499695
0.420001
0.421348
0.347896
0.551865
0.397576
0.252725
0.509882
0.482287
0.522501
0.401423
0.326016
0.358239
0.451881
0.420832
0.0738796
0.553091
0.365431
0.325382
0.385287
0.503898
0.551064
0.546016
0.426434
0.385193
0.470514
0.501345
0.516607
0.444228
0.478587
0.285649
0.333435
0.413554
0.297007
0.2849
0.271585
0.364145
0.466129
0.279486
0.393404
0.334959
0.481929
0.546031
0.362319
0.287732
0.263136
0.454505
0.339979
0.320626
0.273256
0.520761
0.40461
0.409759
0.27889
0.414343
0.323976
0.333141
0.456132
0.462821
0.523752
0.550406
0.320576
0.505233
0.255681
0.511986
0.519575
0.521736
0.471883
0.308783
0.308813
0.350807
0.250152
0.394229
0.270516
0.419554
0.283354
0.49838
0.351751
0.259112
0.490966
0.465596
0.371633
0.376522
0.439052
0.520244
0.405487
0.385376
0.258121
0.482214
0.393898
0.537975
0.241823
0.376907
0.510797
0.451586
0.540078
0.457163
0.355887
0.224172
0.258135
0.374378
0.282592
0.532872
0.249059
0.34381
0.372237
0.325173
0.477524
0.24578
0.516607
0.451767
0.412557
0.235486
0.436042
0.321933
0.357541
0.368307
0.373365
0.340619
0.326269
0.468596
0.308775
0.557526
0.3404
0.373949
0.434233
0.459115
0.535058
0.340063
0.346054
0.319343
0.383615
0.332308
0.527101
0.321186
0.390155
0.347471
0.484798
0.312102
0.399295
0.294939
0.546901
0.249498
0.306905
0.334012
0.490911
0.262259
0.278787
0.305203
0.286517
0.520789
0.38643
0.446963
0.494191
0.437163
0.383661
0.547025
0.388507
0.46403
0.430768
0.401527
0.271107
0.408188
0.362933
0.344579
0.410225
0.304188
0.275605
0.388445
0.347473
0.311929
0.479775
0.38488
0.442405
0.362352
0.532275
0.372383
0.369368
0.432235
0.28163
0.316555
0.346809
0.401229
0.408039
0.420216
0.517211
0.457355
0.474
0.396115
0.505626
0.53611
0.531125
0.395181
0.393711
0.417233
0.289744
0.545215
0.498558
0.485075
0.376721
0.305217
0.269906
0.416943
0.451992
0.324789
0.484756
0.499669
0.421812
0.336761
0.40035
0.346934
0.323177
0.376633
0.33677
0.409238
0.272021
0.413123
0.379983
0.359965
0.246904
0.408584
0.391455
0.441329
0.349503
0.404359
0.515835
0.52667
0.407365
0.368427
0.474763
0.391004
0.318247
0.32067
0.362941
0.28345
0.516657
0.382638
0.397644
0.452626
0.445655
0.432864
0.300687
0.55478
0.436873
0.327109
0.383471
0.38328
0.47443
0.512262
0.438423
0.417606
0.261117
0.310996
0.357875
0.419198
0.390772
0.406377
0.335571
0.52349
0.424996
0.474976
0.502077
0.402318
0.329916
0.400507
0.543017
0.315993
0.257445
0.399976
0.549217
0.342047
0.360992
0.468903
0.452607
0.488396
0.377436
0.263823
0.416912
0.290753
0.345567
0.487272
0.368084
0.293814
0.322248
0.341186
0.425154
0.352658
0.342453
0.508566
0.329404
0.547748
0.485859
0.285218
0.23544
0.386041
0.460716
0.500018
0.372597
0.357872
0.32028
0.352425
0.375483
0.550272
0.511635
0.457351
0.355732
0.268133
0.522347
0.554448
0.523066
0.475626
0.510998
0.397829
0.298989
0.246628
0.257513
0.534886
0.388143
0.299413
0.361239
0.553828
0.34772
0.335981
0.280458
0.374791
0.318703
0.555392
0.416206
0.458573
0.508113
0.498729
0.348505
0.428173
0.394435
0.452342
0.308201
0.424454
0.335662
0.526694
0.279212
0.344365
0.28977
0.358192
0.514664
0.355379
0.485218
0.504121
0.51033
0.298758
0.391818
0.358408
0.329226
0.521611
0.401733
0.405907
0.413379
0.205382
0.362807
0.528022
0.432113
0.524587
0.251862
0.30921
0.347149
0.530858
0.314381
0.378425
0.311888
0.299024
0.357064
0.534062
0.367926
0.360646
0.280274
0.55335
0.542372
0.207262
0.525443
0.351937
0.30014
0.30974
0.384941
0.287053
0.431463
0.357815
0.344822
0.360943
0.508082
0.376047
0.485117
0.367561
0.300316
0.361946
0.251072
0.269734
0.367423
0.346355
0.412289
0.310549
0.373906
0.50329
0.424931
0.345368
0.269433
0.512957
0.370884
0.378496
0.560904
0.409406
0.3429
0.329743
0.295478
0.535603
0.349108
0.37528
0.423924
0.286012
0.516186
0.282044
0.506338
0.390279
0.464396
0.314513
0.480134
0.368877
0.288968
0.31693
0.390578
0.514772
0.231862
0.333054
0.329559
0.534903
0.556571
0.315208
0.338234
0.428876
0.539759
0.372653
0.519638
0.497721
0.48356
0.466778
0.403077
0.444951
0.433513
0.523288
0.379497
0.399604
0.317049
0.339085
0.380285
0.312969
0.536583
0.294313
0.519268
0.37724
0.531034
0.33937
0.540904
0.461703
0.505769
0.532201
0.515911
0.560007
0.355078
0.504115
0.38882
0.348857
0.336439
0.309752
0.524545
0.29554
0.412445
0.424816
0.363666
0.42634
0.332455
0.526905
0.384878
0.474402
0.248518
0.324683
0.354169
0.556241
0.32032
0.43657
0.343939
0.355199
0.293836
0.365036
0.352049
0.478522
0.52754
0.278396
0.407731
0.349294
0.343079
0.490074
0.321981
0.337351
0.53953
0.257572
0.406681
0.452617
0.513689
0.545014
0.341598
0.331591
0.289273
0.353587
0.329165
0.34858
0.471132
0.346826
0.297386
0.361023
0.392685
0.349555
0.334506
0.329512
0.390497
0.286302
0.471808
0.46316
0.344985
0.473547
0.278331
0.280654
0.314504
0.268541
0.539177
0.354477
0.348017
0.335156
0.500235
0.522273
0.398487
0.47108
0.334373
0.327123
0.396127
0.350302
0.331222
0.523274
0.415709
0.443454
0.543622
0.478714
0.38493
0.532793
0.273932
0.401035
0.396986
0.421584
0.353712
0.533454
0.343888
0.416073
0.38139
0.349103
0.315065
0.335314
0.461665
0.491771
0.5063
0.398512
0.407808
0.533929
0.483409
0.367099
0.411113
0.298757
0.350811
0.483227
0.279134
0.501801
0.344107
0.509794
0.558727
0.525902
0.335339
0.506265
0.49922
0.257388
0.534419
0.325377
0.529393
0.47969
0.347658
0.31242
0.417684
0.355245
0.343558
0.330438
0.485547
0.346538
0.535896
0.304917
0.343298
0.326644
0.303639
0.3479
0.492581
0.549667
0.301582
0.474567
0.390192
0.416195
0.372405
0.427865
0.518135
0.482609
0.343755
0.512365
0.488735
0.545223
0.305279
0.317532
0.33452
0.469853
0.541517
0.494166
0.375642
0.541061
0.387205
0.276365
0.310636
0.232344
0.383831
0.291138
0.546295
0.548113
0.405955
0.561845
0.484276
0.392335
0.537904
0.294507
0.532328
0.348691
0.52254
0.357221
0.309342
0.466912
0.405861
0.529621
0.518089
0.52127
0.318423
0.315589
0.262569
0.505593
0.481582
0.316592
0.396808
0.483261
0.257111
0.336913
0.31803
0.339225
0.417579
0.337827
0.39687
0.464707
0.393676
0.405032
0.463706
0.352001
0.363022
0.415713
0.395694
0.354109
0.50531
0.530301
0.315881
0.479157
0.253633
0.333632
0.510792
0.473961
0.332213
0.525081
0.295765
0.462835
0.37047
0.371323
0.510006
0.35909
0.471448
0.470481
0.446228
0.553199
0.4493
0.288405
0.42994
0.378472
0.47145
0.549109
0.444787
0.387762
0.331138
0.372421
0.51131
0.306094
0.49927
0.322633
0.421022
0.479062
0.464656
0.383642
0.50952
0.540558
0.360651
0.352962
0.402768
0.31753
0.294216
0.399036
0.469699
0.323363
0.284809
0.319199
0.280685
0.459159
0.38546
0.473978
0.34137
0.523162
0.395846
0.499591
0.549098
0.327522
0.516523
0.361042
0.402979
0.397734
0.508018
0.334354
0.368726
0.401197
0.310321
0.355032
0.311028
0.290906
0.253423
0.541301
0.552284
0.323371
0.338703
0.468106
0.271485
0.318674
0.348795
0.452134
0.462211
0.268411
0.252771
0.518119
0.339446
0.422407
0.338236
0.283754
0.310122
0.410148
0.499248
0.423245
0.278534
0.524758
0.497992
0.322527
0.418358
0.345095
0.547971
0.355001
0.374986
0.294255
0.439007
0.53151
0.424227
0.403662
0.331034
0.385029
0.427341
0.538769
0.562617
0.334233
0.542185
0.3365
0.405505
0.40841
0.367144
0.34693
0.507111
0.352713
0.411177
0.318476
0.30622
0.364472
0.3124
0.449485
0.523299
0.319621
0.336834
0.403826
0.348503
0.323643
0.245531
0.353128
0.509685
0.245497
0.324317
0.465675
0.40155
0.378127
0.436287
0.494279
0.299937
0.303958
0.493211
0.370514
0.309443
0.391292
0.506845
0.438636
0.405052
0.334599
0.335095
0.330152
0.539593
0.49382
0.549103
0.374667
0.448351
0.302455
0.390491
0.500492
0.276106
0.284104
0.463134
0.496144
0.276294
0.344616
0.33214
0.298154
0.332299
0.561468
0.376819
0.341865
0.401984
0.331283
0.466952
0.413839
0.299641
0.346557
0.480425
0.384068
0.541632
0.289932
0.338216
0.440745
0.426571
0.364929
0.422037
0.311199
0.544678
0.528393
0.442604
0.510533
0.322068
0.505356
0.432917
0.43889
0.532866
0.271498
0.348342
0.547216
0.43493
0.267374
0.322321
0.495528
0.545604
0.387171
0.469204
0.332374
0.290341
0.320085
0.258632
0.49971
0.332667
0.388544
0.53566
0.32768
0.303875
0.330993
0.405816
0.341225
0.334353
0.333334
0.302766
0.383561
0.480782
0.531313
0.460406
0.352427
0.347585
0.261481
0.341153
0.430951
0.411506
0.451517
0.46691
0.347828
0.374644
0.491335
0.498475
0.547284
0.51124
0.535349
0.385104
0.293884
0.320087
0.30345
0.539247
0.403266
0.335585
0.531666
0.299952
0.485251
0.463233
0.347931
0.338165
0.349469
0.335325
0.496761
0.35267
0.452332
0.3848
0.529515
0.415582
0.55115
0.319388
0.384071
0.321157
0.248546
0.353466
0.477348
0.302219
0.193056
0.40354
0.529437
0.472408
0.332666
0.291241
0.323335
0.301077
0.340138
0.305937
0.366112
0.306849
0.464408
0.322826
0.341148
0.518985
0.389188
0.436144
0.490013
0.354655
0.386491
0.314211
0.480891
0.343282
0.351748
0.378233
0.313468
0.287542
0.338185
0.317795
0.472035
0.549701
0.503814
0.40968
0.457481
0.280048
0.542323
0.421053
0.471056
0.334701
0.461538
0.326652
0.355492
0.483854
0.531096
0.475489
0.409118
0.356514
0.551893
0.362512
0.489777
0.537499
0.445525
0.367298
0.27629
0.488641
0.416683
0.306794
0.436298
0.412136
0.527364
0.32989
0.536692
0.548212
0.365425
0.321186
0.536138
0.294043
0.309162
0.356005
0.306
0.354815
0.315232
0.291905
0.383099
0.341927
0.321402
0.343544
0.411155
0.315961
0.326332
0.430944
0.389323
0.292193
0.523031
0.553867
0.542098
0.337821
0.283125
0.551937
0.287217
0.380355
0.323938
0.345724
0.332217
0.462822
0.349351
0.342171
0.28189
0.275127
0.307863
0.352067
0.277832
0.381084
0.402515
0.372032
0.529722
0.407539
0.447196
0.369247
0.49479
0.332736
0.351138
0.565416
0.357138
0.411148
0.291724
0.446905
0.553239
0.344378
0.431175
0.414135
0.315503
0.332045
0.325208
0.307259
0.466187
0.311206
0.372192
0.342501
0.365612
0.3254
0.326404
0.37979
0.34675
0.343359
0.55286
0.379292
0.369378
0.403948
0.529919
0.354288
0.27693
0.483902
0.294307
0.362261
0.334574
0.388068
0.330114
0.350638
0.387363
0.546011
0.501377
0.279151
0.342259
0.277205
0.328284
0.26464
0.31079
0.357407
0.318622
0.358128
0.43244
0.560536
0.350923
0.459966
0.397516
0.539249
0.347106
0.552926
0.424376
0.302222
0.432285
0.467193
0.342728
0.5022
0.335174
0.507355
0.334987
0.19927
0.376733
0.558743
0.549241
0.464816
0.438033
0.457541
0.284612
0.326647
0.458963
0.550318
0.21747
0.389056
0.334841
0.333306
0.37101
0.322556
0.2995
0.333526
0.310822
0.342414
0.343316
0.373752
0.551611
0.4973
0.265957
0.4809
0.318083
0.3246
0.486566
0.336243
0.361098
0.449652
0.235411
0.322127
0.386321
0.503312
0.303857
0.328778
0.358726
0.428818
0.302374
0.528669
0.278262
0.349688
0.357562
0.330858
0.439839
0.431587
0.531295
0.331912
0.475285
0.400403
0.426431
0.334741
0.440138
0.315977
0.29439
0.255852
0.420488
0.371497
0.357643
0.516358
0.387484
0.407846
0.439333
0.325469
0.311041
0.351707
0.422245
0.341895
0.558791
0.294083
0.27787
0.353437
0.342846
0.340512
0.327403
0.462727
0.353831
0.378383
0.305679
0.337482
0.372631
0.290026
0.55579
0.545035
0.309276
0.324142
0.499558
0.400823
0.329903
0.290168
0.324502
0.308273
0.399961
0.520341
0.331288
0.286166
0.431361
0.381593
0.278961
0.305852
0.381602
0.454869
0.561235
0.299737
0.272418
0.411968
0.499478
0.352918
0.41016
0.353946
0.335677
0.352321
0.427728
0.367011
0.336902
0.479268
0.356387
0.253828
0.397627
0.340806
0.484858
0.552
0.344375
0.347393
0.345733
0.349015
0.300537
0.351335
0.309971
0.53227
0.489902
0.452729
0.356813
0.287043
0.476159
0.542185
0.326177
0.394374
0.335006
0.254374
0.383037
0.344835
0.249409
0.313164
0.437063
0.30167
0.279562
0.306928
0.489581
0.295321
0.483435
0.379989
0.332365
0.341863
0.320862
0.484675
0.262767
0.353818
0.361911
0.294547
0.4101
0.459709
0.411694
0.372614
0.46866
0.305194
0.307948
0.518958
0.333165
0.515276
0.413843
0.34923
0.415765
0.504
0.381588
0.275672
0.528007
0.328246
0.357762
0.505305
0.323834
0.536987
0.330812
0.358417
0.251793
0.362414
0.308864
0.386299
0.30745
0.256611
0.303874
0.301755
0.25835
0.520613
0.302329
0.357359
0.413746
0.38618
0.543697
0.546536
0.330318
0.384473
0.488567
0.321353
0.521097
0.266912
0.345444
0.401599
0.32729
0.491142
0.337865
0.344908
0.34948
0.331354
0.327847
0.255342
0.506897
0.141497
0.537089
0.456507
0.307499
0.278779
0.311104
0.562818
0.462505
0.435341
0.378027
0.41242
0.361526
0.505162
0.476685
0.322422
0.42897
0.540484
0.365058
0.391751
0.437945
0.272571
0.306568
0.490389
0.35406
0.375867
0.5376
0.298768
0.268648
0.336069
0.374558
0.361609
0.551801
0.328493
0.288308
0.324919
0.373531
0.329912
0.513349
0.382251
0.316162
0.331679
0.325988
0.325238
0.349023
0.427923
0.394891
0.317551
0.513146
0.344652
0.494378
0.318094
0.299787
0.361871
0.50915
0.542428
0.486095
0.37553
0.366639
0.483288
0.546936
0.296448
0.522273
0.307059
0.444434
0.424779
0.511818
0.37645
0.502313
0.528619
0.34133
0.338731
0.358318
0.392298
0.310414
0.295497
0.294133
0.461183
0.491888
0.293666
0.527593
0.379866
0.470718
0.374084
0.310784
0.489307
0.476834
0.3413
0.34636
0.308303
0.546559
0.461798
0.551356
0.290841
0.309411
0.363579
0.495819
0.433573
0.517946
0.407708
0.548823
0.332697
0.367899
0.391486
0.339498
0.412922
0.270783
0.483222
0.380976
0.399834
0.523194
0.285186
0.295597
0.267603
0.423737
0.508624
0.348219
0.440574
0.278123
0.286443
0.377663
0.34019
0.331848
0.514191
0.395254
0.322618
0.364846
0.421552
0.533613
0.425509
0.351925
0.50667
0.395718
0.53633
0.382613
0.450255
0.350232
0.290864
0.558021
0.31445
0.413766
0.406435
0.519467
0.446396
0.370556
0.337333
0.551009
0.368667
0.317242
0.465643
0.543235
0.460242
0.433719
0.286652
0.252108
0.390191
0.320238
0.355484
0.390733
0.31703
0.531654
0.546109
0.525583
0.342751
0.349657
0.331913
0.351441
0.450562
0.297005
0.447839
0.531428
0.300927
0.342665
0.332652
0.496098
0.435133
0.348693
0.321233
0.456828
0.328036
0.266795
0.301761
0.558817
0.260426
0.480642
0.43377
0.332665
0.538136
0.398861
0.562705
0.228063
0.345772
0.403846
0.525846
0.353399
0.521232
0.399183
0.259462
0.367007
0.335682
0.355006
0.253525
0.481991
0.342949
0.321445
0.272731
0.371523
0.515713
0.225086
0.345937
0.50732
0.368566
0.503348
0.26344
0.3277
0.33196
0.358192
0.315435
0.288096
0.326939
0.230339
0.350241
0.34831
0.472639
0.409033
0.509416
0.3229
0.352557
0.289585
0.398998
0.233687
0.356459
0.552514
0.378136
0.345769
0.563355
0.317939
0.406231
0.433089
0.288431
0.339736
0.37933
0.418551
0.532007
0.542412
0.543474
0.423708
0.373915
0.347634
0.310179
0.501314
0.449862
0.333272
0.344701
0.34657
0.375174
0.562651
0.361248
0.560714
0.327169
0.440457
0.311351
0.329625
0.288196
0.339535
0.516665
0.349203
0.29551
0.311229
0.556289
0.343624
0.316524
0.313184
0.328034
0.459718
0.404945
0.413569
0.369525
0.466815
0.2795
0.378787