/*--------------------------------*- C++ -*----------------------------------*\
  =========                 |
  \\      /  F ield         | OpenFOAM: The Open Source CFD Toolbox
   \\    /   O peration     | Website:  https://openfoam.org
    \\  /    A nd           | Version:  6
     \\/     M anipulation  |
\*---------------------------------------------------------------------------*/
FoamFile
{
    version     2.0;
    format      ascii;
    class       volScalarField;
    location    "./ITHACAoutput/Offline/1";
    object      P_rec;
}
// * * * * * * * * * * * * * * * * * * * * * * * * * * * * * * * * * * * * * //

dimensions      [0 2 -2 0 0 0 0];

internalField   nonuniform List<scalar> 
40000
(
0.0140906
0.0140906
0.0140896
0.0140873
0.014084
0.0140797
0.0140748
0.0140694
0.0140637
0.0140578
0.0140519
0.014046
0.0140402
0.0140347
0.0140294
0.0140244
0.0140197
0.0140153
0.0140113
0.0140076
0.0140043
0.0140013
0.0139987
0.0139964
0.0139944
0.0139928
0.0139915
0.0139904
0.0139897
0.0139892
0.0139891
0.0139891
0.0139895
0.0139901
0.013991
0.0139921
0.0139934
0.013995
0.0139969
0.0139989
0.0140013
0.0140038
0.0140066
0.0140097
0.014013
0.0140165
0.0140203
0.0140244
0.0140287
0.0140333
0.0140382
0.0140433
0.0140487
0.0140544
0.0140603
0.0140666
0.0140731
0.0140799
0.014087
0.0140943
0.014102
0.0141099
0.0141181
0.0141265
0.0141353
0.0141442
0.0141534
0.0141629
0.0141726
0.0141824
0.0141925
0.0142028
0.0142133
0.0142239
0.0142346
0.0142454
0.0142564
0.0142674
0.0142785
0.0142897
0.0143008
0.0143119
0.014323
0.0143341
0.0143451
0.0143559
0.0143667
0.0143772
0.0143876
0.0143978
0.0144078
0.0144175
0.0144269
0.014436
0.0144448
0.0144533
0.0144614
0.0144691
0.0144764
0.0144833
0.0144898
0.0144958
0.0145014
0.0145065
0.0145111
0.0145152
0.0145189
0.014522
0.0145246
0.0145268
0.0145284
0.0145295
0.0145301
0.0145302
0.0145298
0.0145289
0.0145275
0.0145257
0.0145233
0.0145205
0.0145173
0.0145135
0.0145094
0.0145048
0.0144998
0.0144944
0.0144885
0.0144823
0.0144757
0.0144687
0.0144613
0.0144536
0.0144455
0.0144371
0.0144283
0.0144192
0.0144097
0.0143999
0.0143898
0.0143794
0.0143687
0.0143576
0.0143463
0.0143347
0.0143228
0.0143106
0.0142981
0.0142853
0.0142723
0.0142591
0.0142456
0.0142318
0.0142179
0.0142038
0.0141895
0.014175
0.0141604
0.0141456
0.0141308
0.0141159
0.0141009
0.0140859
0.0140709
0.0140559
0.014041
0.0140262
0.0140115
0.013997
0.0139827
0.0139685
0.0139547
0.0139411
0.0139279
0.013915
0.0139025
0.0138905
0.0138789
0.0138678
0.0138573
0.0138473
0.013838
0.0138292
0.0138211
0.0138137
0.013807
0.0138009
0.0137957
0.0137911
0.0137873
0.0137843
0.0137821
0.0137805
0.0137797
0.0137795
0.01378
0.0137809
0.0137822
0.0137836
0.0137849
0.0137856
0.0140907
0.0140906
0.0140897
0.0140877
0.0140846
0.0140807
0.0140762
0.0140712
0.014066
0.0140605
0.014055
0.0140495
0.0140441
0.0140389
0.0140339
0.0140291
0.0140246
0.0140205
0.0140166
0.0140131
0.0140099
0.014007
0.0140044
0.0140022
0.0140002
0.0139986
0.0139973
0.0139962
0.0139954
0.013995
0.0139947
0.0139948
0.0139951
0.0139956
0.0139964
0.0139975
0.0139987
0.0140002
0.014002
0.014004
0.0140062
0.0140087
0.0140114
0.0140143
0.0140175
0.0140209
0.0140246
0.0140286
0.0140328
0.0140372
0.014042
0.014047
0.0140522
0.0140578
0.0140636
0.0140697
0.0140761
0.0140827
0.0140897
0.0140969
0.0141044
0.0141121
0.0141201
0.0141284
0.014137
0.0141458
0.0141548
0.0141641
0.0141736
0.0141833
0.0141932
0.0142033
0.0142136
0.014224
0.0142346
0.0142453
0.014256
0.0142669
0.0142778
0.0142888
0.0142998
0.0143107
0.0143217
0.0143326
0.0143434
0.0143541
0.0143647
0.0143751
0.0143853
0.0143954
0.0144052
0.0144147
0.014424
0.0144331
0.0144417
0.0144501
0.0144581
0.0144657
0.0144729
0.0144797
0.0144861
0.014492
0.0144975
0.0145025
0.0145071
0.0145112
0.0145147
0.0145178
0.0145204
0.0145225
0.0145241
0.0145251
0.0145257
0.0145258
0.0145253
0.0145244
0.014523
0.0145212
0.0145188
0.014516
0.0145127
0.014509
0.0145048
0.0145002
0.0144952
0.0144898
0.014484
0.0144778
0.0144712
0.0144642
0.0144569
0.0144492
0.0144411
0.0144327
0.014424
0.0144149
0.0144055
0.0143957
0.0143857
0.0143753
0.0143646
0.0143536
0.0143424
0.0143308
0.0143189
0.0143068
0.0142944
0.0142817
0.0142688
0.0142557
0.0142423
0.0142286
0.0142148
0.0142008
0.0141866
0.0141723
0.0141578
0.0141432
0.0141285
0.0141137
0.0140989
0.0140841
0.0140692
0.0140544
0.0140397
0.0140251
0.0140106
0.0139962
0.0139821
0.0139682
0.0139545
0.0139411
0.0139281
0.0139154
0.0139031
0.0138913
0.0138799
0.013869
0.0138586
0.0138488
0.0138396
0.013831
0.013823
0.0138157
0.0138091
0.0138031
0.0137979
0.0137934
0.0137896
0.0137866
0.0137842
0.0137826
0.0137817
0.0137813
0.0137815
0.0137822
0.0137833
0.0137845
0.0137856
0.0137864
0.0140916
0.0140915
0.0140906
0.0140887
0.0140859
0.0140824
0.0140783
0.0140738
0.014069
0.0140641
0.014059
0.014054
0.014049
0.0140442
0.0140395
0.0140351
0.0140309
0.0140269
0.0140233
0.0140199
0.0140168
0.014014
0.0140116
0.0140094
0.0140075
0.0140059
0.0140045
0.0140035
0.0140027
0.0140022
0.0140019
0.0140019
0.0140021
0.0140026
0.0140033
0.0140042
0.0140054
0.0140068
0.0140084
0.0140103
0.0140124
0.0140148
0.0140173
0.0140201
0.0140232
0.0140265
0.01403
0.0140338
0.0140378
0.0140421
0.0140467
0.0140516
0.0140566
0.014062
0.0140677
0.0140736
0.0140797
0.0140862
0.0140929
0.0140999
0.0141072
0.0141148
0.0141226
0.0141307
0.014139
0.0141476
0.0141565
0.0141655
0.0141748
0.0141843
0.014194
0.0142039
0.0142139
0.0142241
0.0142345
0.014245
0.0142555
0.0142662
0.0142769
0.0142876
0.0142984
0.0143092
0.0143199
0.0143306
0.0143412
0.0143517
0.0143622
0.0143724
0.0143825
0.0143923
0.014402
0.0144114
0.0144206
0.0144294
0.014438
0.0144462
0.0144541
0.0144615
0.0144687
0.0144753
0.0144816
0.0144875
0.0144928
0.0144978
0.0145022
0.0145062
0.0145097
0.0145127
0.0145153
0.0145173
0.0145188
0.0145198
0.0145203
0.0145204
0.0145199
0.014519
0.0145175
0.0145156
0.0145133
0.0145104
0.0145071
0.0145034
0.0144993
0.0144947
0.0144897
0.0144843
0.0144785
0.0144722
0.0144657
0.0144587
0.0144514
0.0144437
0.0144357
0.0144273
0.0144186
0.0144096
0.0144002
0.0143905
0.0143805
0.0143702
0.0143596
0.0143487
0.0143375
0.014326
0.0143142
0.0143022
0.0142898
0.0142773
0.0142645
0.0142514
0.0142381
0.0142246
0.0142109
0.0141971
0.014183
0.0141688
0.0141545
0.0141401
0.0141255
0.014111
0.0140963
0.0140817
0.0140671
0.0140525
0.0140379
0.0140235
0.0140093
0.0139951
0.0139812
0.0139675
0.0139541
0.0139409
0.0139281
0.0139157
0.0139036
0.013892
0.0138808
0.0138701
0.01386
0.0138504
0.0138413
0.0138329
0.0138251
0.0138179
0.0138114
0.0138055
0.0138003
0.0137959
0.0137921
0.013789
0.0137867
0.0137849
0.0137838
0.0137833
0.0137833
0.0137838
0.0137846
0.0137856
0.0137868
0.0137876
0.0140939
0.0140936
0.0140925
0.0140906
0.0140879
0.0140846
0.0140808
0.0140766
0.0140722
0.0140676
0.0140629
0.0140582
0.0140536
0.014049
0.0140447
0.0140405
0.0140365
0.0140328
0.0140293
0.0140261
0.0140232
0.0140205
0.0140181
0.014016
0.0140141
0.0140125
0.0140112
0.0140102
0.0140094
0.0140088
0.0140085
0.0140084
0.0140086
0.014009
0.0140096
0.0140105
0.0140115
0.0140128
0.0140144
0.0140161
0.0140181
0.0140203
0.0140228
0.0140254
0.0140283
0.0140315
0.0140349
0.0140385
0.0140424
0.0140466
0.014051
0.0140556
0.0140606
0.0140658
0.0140712
0.014077
0.014083
0.0140893
0.0140958
0.0141026
0.0141097
0.0141171
0.0141247
0.0141326
0.0141408
0.0141492
0.0141578
0.0141667
0.0141757
0.0141851
0.0141946
0.0142043
0.0142141
0.0142241
0.0142343
0.0142446
0.014255
0.0142654
0.014276
0.0142865
0.0142971
0.0143078
0.0143183
0.0143289
0.0143393
0.0143497
0.0143599
0.01437
0.01438
0.0143897
0.0143993
0.0144086
0.0144176
0.0144263
0.0144348
0.0144429
0.0144506
0.014458
0.014465
0.0144716
0.0144778
0.0144836
0.0144889
0.0144937
0.0144982
0.0145021
0.0145055
0.0145084
0.0145109
0.0145129
0.0145143
0.0145153
0.0145158
0.0145158
0.0145153
0.0145143
0.0145128
0.0145109
0.0145085
0.0145056
0.0145023
0.0144986
0.0144944
0.0144898
0.0144848
0.0144794
0.0144736
0.0144674
0.0144608
0.0144539
0.0144466
0.0144389
0.0144309
0.0144226
0.0144139
0.0144049
0.0143955
0.0143859
0.0143759
0.0143657
0.0143551
0.0143443
0.0143331
0.0143217
0.01431
0.014298
0.0142858
0.0142733
0.0142606
0.0142476
0.0142344
0.014221
0.0142074
0.0141937
0.0141798
0.0141657
0.0141515
0.0141372
0.0141228
0.0141084
0.0140939
0.0140794
0.0140649
0.0140505
0.0140361
0.0140219
0.0140078
0.0139939
0.0139801
0.0139666
0.0139534
0.0139404
0.0139278
0.0139155
0.0139037
0.0138922
0.0138812
0.0138707
0.0138607
0.0138512
0.0138423
0.013834
0.0138263
0.0138193
0.0138128
0.0138071
0.0138019
0.0137975
0.0137938
0.0137907
0.0137882
0.0137864
0.0137852
0.0137846
0.0137845
0.0137849
0.0137856
0.0137867
0.013788
0.0137891
0.0140973
0.0140967
0.0140953
0.0140933
0.0140905
0.0140873
0.0140837
0.0140797
0.0140755
0.0140711
0.0140667
0.0140623
0.014058
0.0140537
0.0140496
0.0140456
0.0140419
0.0140383
0.014035
0.014032
0.0140291
0.0140266
0.0140243
0.0140222
0.0140204
0.0140189
0.0140176
0.0140165
0.0140157
0.0140151
0.0140148
0.0140147
0.0140148
0.0140151
0.0140156
0.0140164
0.0140174
0.0140186
0.01402
0.0140216
0.0140235
0.0140256
0.0140279
0.0140305
0.0140332
0.0140362
0.0140395
0.014043
0.0140467
0.0140507
0.0140549
0.0140594
0.0140642
0.0140692
0.0140745
0.01408
0.0140859
0.014092
0.0140984
0.014105
0.0141119
0.0141191
0.0141266
0.0141343
0.0141422
0.0141504
0.0141589
0.0141676
0.0141765
0.0141856
0.0141949
0.0142044
0.0142141
0.014224
0.014234
0.0142441
0.0142543
0.0142647
0.014275
0.0142855
0.0142959
0.0143064
0.0143168
0.0143272
0.0143376
0.0143478
0.014358
0.0143679
0.0143778
0.0143874
0.0143968
0.014406
0.0144149
0.0144236
0.0144319
0.01444
0.0144476
0.0144549
0.0144619
0.0144684
0.0144745
0.0144802
0.0144855
0.0144903
0.0144946
0.0144985
0.0145018
0.0145047
0.0145071
0.014509
0.0145105
0.0145114
0.0145118
0.0145118
0.0145112
0.0145102
0.0145087
0.0145067
0.0145043
0.0145014
0.0144981
0.0144943
0.0144902
0.0144855
0.0144805
0.0144751
0.0144693
0.0144631
0.0144565
0.0144495
0.0144422
0.0144346
0.0144266
0.0144183
0.0144096
0.0144006
0.0143913
0.0143817
0.0143718
0.0143616
0.014351
0.0143402
0.0143291
0.0143178
0.0143061
0.0142942
0.014282
0.0142696
0.014257
0.0142441
0.014231
0.0142177
0.0142042
0.0141905
0.0141767
0.0141627
0.0141486
0.0141344
0.0141202
0.0141058
0.0140915
0.0140771
0.0140628
0.0140485
0.0140343
0.0140202
0.0140062
0.0139924
0.0139788
0.0139655
0.0139524
0.0139396
0.0139271
0.013915
0.0139033
0.013892
0.0138811
0.0138708
0.0138609
0.0138516
0.0138428
0.0138346
0.013827
0.01382
0.0138136
0.0138079
0.0138029
0.0137985
0.0137947
0.0137916
0.0137892
0.0137873
0.0137861
0.0137854
0.0137853
0.0137856
0.0137863
0.0137875
0.013789
0.0137904
0.0141017
0.0141006
0.0140989
0.0140965
0.0140937
0.0140904
0.0140868
0.014083
0.014079
0.0140748
0.0140706
0.0140664
0.0140623
0.0140582
0.0140543
0.0140506
0.014047
0.0140436
0.0140405
0.0140376
0.0140349
0.0140324
0.0140302
0.0140282
0.0140264
0.0140249
0.0140237
0.0140226
0.0140218
0.0140212
0.0140208
0.0140206
0.0140207
0.0140209
0.0140214
0.0140221
0.014023
0.0140241
0.0140254
0.0140269
0.0140287
0.0140306
0.0140328
0.0140352
0.0140378
0.0140407
0.0140438
0.0140471
0.0140507
0.0140545
0.0140586
0.0140629
0.0140675
0.0140724
0.0140775
0.0140829
0.0140885
0.0140945
0.0141007
0.0141071
0.0141139
0.0141209
0.0141281
0.0141357
0.0141435
0.0141515
0.0141598
0.0141683
0.014177
0.014186
0.0141952
0.0142045
0.0142141
0.0142238
0.0142336
0.0142436
0.0142537
0.0142639
0.0142741
0.0142844
0.0142948
0.0143051
0.0143154
0.0143257
0.014336
0.0143461
0.0143561
0.014366
0.0143758
0.0143853
0.0143947
0.0144038
0.0144127
0.0144212
0.0144295
0.0144375
0.0144451
0.0144523
0.0144592
0.0144657
0.0144717
0.0144774
0.0144826
0.0144873
0.0144916
0.0144954
0.0144987
0.0145016
0.0145039
0.0145058
0.0145072
0.014508
0.0145084
0.0145084
0.0145078
0.0145067
0.0145052
0.0145032
0.0145007
0.0144978
0.0144944
0.0144906
0.0144864
0.0144818
0.0144767
0.0144713
0.0144654
0.0144592
0.0144526
0.0144457
0.0144384
0.0144307
0.0144227
0.0144144
0.0144058
0.0143968
0.0143875
0.0143779
0.014368
0.0143578
0.0143473
0.0143365
0.0143255
0.0143142
0.0143025
0.0142907
0.0142786
0.0142662
0.0142536
0.0142408
0.0142278
0.0142145
0.0142011
0.0141875
0.0141738
0.0141599
0.0141459
0.0141317
0.0141176
0.0141033
0.0140891
0.0140748
0.0140606
0.0140464
0.0140323
0.0140183
0.0140045
0.0139908
0.0139773
0.0139641
0.0139511
0.0139384
0.0139261
0.0139141
0.0139025
0.0138913
0.0138806
0.0138703
0.0138606
0.0138513
0.0138427
0.0138345
0.013827
0.0138201
0.0138138
0.0138082
0.0138031
0.0137988
0.013795
0.0137919
0.0137895
0.0137877
0.0137864
0.0137857
0.0137855
0.0137859
0.0137867
0.013788
0.0137898
0.0137914
0.0141067
0.0141052
0.014103
0.0141003
0.0140973
0.0140939
0.0140903
0.0140865
0.0140825
0.0140785
0.0140745
0.0140704
0.0140665
0.0140626
0.0140589
0.0140553
0.0140519
0.0140487
0.0140457
0.0140429
0.0140403
0.0140379
0.0140358
0.0140339
0.0140322
0.0140307
0.0140294
0.0140284
0.0140276
0.0140269
0.0140265
0.0140263
0.0140263
0.0140265
0.0140269
0.0140275
0.0140283
0.0140293
0.0140305
0.0140319
0.0140335
0.0140354
0.0140374
0.0140397
0.0140422
0.0140449
0.0140478
0.014051
0.0140544
0.0140581
0.014062
0.0140662
0.0140706
0.0140753
0.0140802
0.0140854
0.0140909
0.0140967
0.0141027
0.014109
0.0141156
0.0141224
0.0141295
0.0141368
0.0141445
0.0141524
0.0141605
0.0141689
0.0141774
0.0141863
0.0141953
0.0142045
0.0142139
0.0142235
0.0142332
0.014243
0.014253
0.0142631
0.0142732
0.0142834
0.0142937
0.0143039
0.0143142
0.0143244
0.0143345
0.0143446
0.0143546
0.0143644
0.0143741
0.0143836
0.0143929
0.0144019
0.0144107
0.0144193
0.0144275
0.0144354
0.014443
0.0144502
0.014457
0.0144635
0.0144695
0.0144751
0.0144802
0.0144849
0.0144892
0.0144929
0.0144962
0.014499
0.0145014
0.0145032
0.0145045
0.0145054
0.0145057
0.0145056
0.014505
0.0145038
0.0145023
0.0145002
0.0144977
0.0144948
0.0144914
0.0144875
0.0144833
0.0144786
0.0144735
0.014468
0.0144622
0.0144559
0.0144493
0.0144424
0.014435
0.0144274
0.0144194
0.014411
0.0144024
0.0143934
0.0143841
0.0143745
0.0143646
0.0143545
0.014344
0.0143332
0.0143222
0.0143109
0.0142993
0.0142875
0.0142754
0.0142631
0.0142505
0.0142378
0.0142248
0.0142116
0.0141982
0.0141847
0.014171
0.0141571
0.0141432
0.0141292
0.0141151
0.0141009
0.0140867
0.0140725
0.0140583
0.0140442
0.0140302
0.0140163
0.0140025
0.013989
0.0139756
0.0139624
0.0139495
0.0139369
0.0139247
0.0139128
0.0139013
0.0138902
0.0138796
0.0138694
0.0138597
0.0138506
0.013842
0.0138339
0.0138265
0.0138196
0.0138134
0.0138078
0.0138028
0.0137985
0.0137948
0.0137917
0.0137892
0.0137874
0.0137861
0.0137854
0.0137853
0.0137857
0.0137866
0.013788
0.0137901
0.0137919
0.0141123
0.0141103
0.0141075
0.0141045
0.0141012
0.0140976
0.0140939
0.0140901
0.0140862
0.0140822
0.0140783
0.0140744
0.0140706
0.0140668
0.0140632
0.0140598
0.0140566
0.0140535
0.0140506
0.0140479
0.0140454
0.0140431
0.0140411
0.0140392
0.0140376
0.0140361
0.0140349
0.0140339
0.014033
0.0140324
0.0140319
0.0140317
0.0140316
0.0140318
0.0140321
0.0140326
0.0140333
0.0140342
0.0140353
0.0140366
0.0140381
0.0140398
0.0140417
0.0140438
0.0140462
0.0140487
0.0140515
0.0140546
0.0140578
0.0140613
0.0140651
0.0140691
0.0140733
0.0140779
0.0140826
0.0140877
0.014093
0.0140986
0.0141044
0.0141106
0.014117
0.0141237
0.0141306
0.0141378
0.0141453
0.014153
0.014161
0.0141692
0.0141777
0.0141864
0.0141953
0.0142044
0.0142137
0.0142231
0.0142327
0.0142425
0.0142524
0.0142624
0.0142724
0.0142826
0.0142927
0.0143029
0.0143131
0.0143232
0.0143334
0.0143434
0.0143533
0.0143631
0.0143727
0.0143822
0.0143915
0.0144005
0.0144093
0.0144178
0.014426
0.0144339
0.0144414
0.0144486
0.0144554
0.0144618
0.0144678
0.0144734
0.0144785
0.0144832
0.0144874
0.0144912
0.0144944
0.0144972
0.0144995
0.0145013
0.0145026
0.0145034
0.0145037
0.0145035
0.0145029
0.0145017
0.0145001
0.014498
0.0144955
0.0144925
0.014489
0.0144851
0.0144808
0.0144761
0.014471
0.0144655
0.0144596
0.0144533
0.0144467
0.0144397
0.0144323
0.0144246
0.0144166
0.0144082
0.0143996
0.0143906
0.0143813
0.0143717
0.0143618
0.0143516
0.0143411
0.0143304
0.0143193
0.014308
0.0142965
0.0142847
0.0142726
0.0142603
0.0142477
0.014235
0.014222
0.0142089
0.0141955
0.014182
0.0141683
0.0141545
0.0141406
0.0141266
0.0141126
0.0140984
0.0140843
0.0140702
0.014056
0.014042
0.014028
0.0140142
0.0140005
0.0139869
0.0139736
0.0139605
0.0139477
0.0139352
0.013923
0.0139112
0.0138997
0.0138887
0.0138781
0.013868
0.0138584
0.0138493
0.0138408
0.0138328
0.0138254
0.0138186
0.0138124
0.0138068
0.0138019
0.0137975
0.0137938
0.0137908
0.0137883
0.0137865
0.0137853
0.0137846
0.0137845
0.013785
0.013786
0.0137876
0.0137899
0.0137919
0.0141183
0.0141158
0.0141124
0.0141089
0.0141053
0.0141016
0.0140977
0.0140938
0.0140899
0.0140859
0.014082
0.0140782
0.0140745
0.0140709
0.0140674
0.0140641
0.014061
0.014058
0.0140553
0.0140527
0.0140503
0.0140481
0.0140461
0.0140443
0.0140427
0.0140413
0.01404
0.014039
0.0140382
0.0140375
0.014037
0.0140367
0.0140366
0.0140367
0.0140369
0.0140374
0.014038
0.0140388
0.0140398
0.014041
0.0140423
0.0140439
0.0140457
0.0140477
0.0140499
0.0140523
0.014055
0.0140578
0.0140609
0.0140643
0.0140679
0.0140717
0.0140758
0.0140801
0.0140848
0.0140896
0.0140948
0.0141002
0.0141059
0.0141119
0.0141182
0.0141247
0.0141315
0.0141386
0.0141459
0.0141535
0.0141613
0.0141695
0.0141778
0.0141864
0.0141952
0.0142042
0.0142134
0.0142228
0.0142323
0.014242
0.0142518
0.0142617
0.0142717
0.0142818
0.0142919
0.0143021
0.0143122
0.0143224
0.0143324
0.0143424
0.0143524
0.0143621
0.0143718
0.0143812
0.0143905
0.0143995
0.0144083
0.0144168
0.014425
0.0144329
0.0144404
0.0144476
0.0144544
0.0144608
0.0144668
0.0144724
0.0144775
0.0144822
0.0144864
0.0144901
0.0144933
0.0144961
0.0144984
0.0145001
0.0145014
0.0145022
0.0145024
0.0145022
0.0145015
0.0145003
0.0144987
0.0144966
0.014494
0.0144909
0.0144874
0.0144835
0.0144791
0.0144744
0.0144692
0.0144636
0.0144577
0.0144514
0.0144447
0.0144376
0.0144302
0.0144225
0.0144144
0.014406
0.0143973
0.0143883
0.0143789
0.0143693
0.0143594
0.0143492
0.0143387
0.0143279
0.0143169
0.0143055
0.014294
0.0142821
0.0142701
0.0142578
0.0142452
0.0142325
0.0142195
0.0142063
0.014193
0.0141795
0.0141659
0.0141521
0.0141382
0.0141242
0.0141101
0.014096
0.0140819
0.0140678
0.0140537
0.0140397
0.0140257
0.0140119
0.0139982
0.0139847
0.0139714
0.0139584
0.0139456
0.0139331
0.013921
0.0139092
0.0138978
0.0138868
0.0138763
0.0138662
0.0138566
0.0138476
0.0138391
0.0138311
0.0138237
0.013817
0.0138108
0.0138052
0.0138003
0.013796
0.0137923
0.0137893
0.0137869
0.013785
0.0137838
0.0137832
0.0137833
0.0137838
0.0137849
0.0137866
0.0137891
0.0137913
0.0141245
0.0141214
0.0141174
0.0141135
0.0141096
0.0141056
0.0141015
0.0140975
0.0140935
0.0140895
0.0140857
0.0140819
0.0140782
0.0140747
0.0140714
0.0140682
0.0140651
0.0140623
0.0140596
0.0140571
0.0140548
0.0140527
0.0140507
0.014049
0.0140474
0.0140461
0.0140449
0.0140438
0.014043
0.0140423
0.0140418
0.0140414
0.0140413
0.0140413
0.0140415
0.0140418
0.0140423
0.014043
0.0140439
0.014045
0.0140463
0.0140477
0.0140493
0.0140512
0.0140533
0.0140555
0.014058
0.0140607
0.0140637
0.0140669
0.0140703
0.014074
0.0140779
0.0140821
0.0140866
0.0140913
0.0140963
0.0141016
0.0141072
0.014113
0.0141191
0.0141255
0.0141322
0.0141391
0.0141463
0.0141538
0.0141616
0.0141696
0.0141778
0.0141863
0.014195
0.014204
0.0142131
0.0142224
0.0142319
0.0142415
0.0142513
0.0142612
0.0142712
0.0142812
0.0142913
0.0143015
0.0143116
0.0143218
0.0143319
0.0143419
0.0143518
0.0143616
0.0143712
0.0143807
0.01439
0.014399
0.0144078
0.0144164
0.0144246
0.0144325
0.0144401
0.0144473
0.0144541
0.0144605
0.0144665
0.0144721
0.0144772
0.0144819
0.0144861
0.0144898
0.0144931
0.0144958
0.0144981
0.0144998
0.0145011
0.0145018
0.0145021
0.0145018
0.0145011
0.0144999
0.0144982
0.014496
0.0144933
0.0144902
0.0144867
0.0144827
0.0144783
0.0144734
0.0144682
0.0144626
0.0144566
0.0144502
0.0144434
0.0144363
0.0144288
0.014421
0.0144129
0.0144044
0.0143957
0.0143866
0.0143772
0.0143675
0.0143575
0.0143473
0.0143367
0.0143259
0.0143148
0.0143035
0.0142919
0.01428
0.0142679
0.0142556
0.014243
0.0142302
0.0142172
0.014204
0.0141907
0.0141772
0.0141635
0.0141497
0.0141358
0.0141218
0.0141077
0.0140936
0.0140795
0.0140654
0.0140512
0.0140372
0.0140233
0.0140095
0.0139958
0.0139823
0.013969
0.013956
0.0139432
0.0139307
0.0139186
0.0139068
0.0138954
0.0138845
0.0138739
0.0138639
0.0138543
0.0138453
0.0138368
0.0138289
0.0138215
0.0138148
0.0138086
0.0138031
0.0137982
0.0137939
0.0137902
0.0137872
0.0137848
0.013783
0.0137818
0.0137813
0.0137814
0.013782
0.0137833
0.0137851
0.0137877
0.0137901
0.0141307
0.0141272
0.0141226
0.0141182
0.0141139
0.0141096
0.0141053
0.0141012
0.014097
0.0140931
0.0140892
0.0140854
0.0140818
0.0140784
0.0140751
0.0140719
0.014069
0.0140662
0.0140636
0.0140612
0.014059
0.0140569
0.0140551
0.0140534
0.0140518
0.0140505
0.0140493
0.0140483
0.0140474
0.0140467
0.0140462
0.0140458
0.0140456
0.0140455
0.0140456
0.0140459
0.0140463
0.0140469
0.0140477
0.0140487
0.0140498
0.0140511
0.0140526
0.0140544
0.0140563
0.0140584
0.0140608
0.0140633
0.0140661
0.0140692
0.0140724
0.014076
0.0140798
0.0140838
0.0140881
0.0140927
0.0140976
0.0141027
0.0141081
0.0141138
0.0141198
0.0141261
0.0141327
0.0141395
0.0141466
0.014154
0.0141617
0.0141696
0.0141778
0.0141862
0.0141948
0.0142037
0.0142128
0.0142221
0.0142316
0.0142412
0.0142509
0.0142608
0.0142708
0.0142809
0.014291
0.0143012
0.0143114
0.0143215
0.0143317
0.0143417
0.0143517
0.0143615
0.0143712
0.0143807
0.01439
0.0143992
0.014408
0.0144166
0.0144249
0.0144328
0.0144404
0.0144477
0.0144546
0.014461
0.0144671
0.0144727
0.0144778
0.0144825
0.0144867
0.0144905
0.0144937
0.0144965
0.0144987
0.0145004
0.0145017
0.0145024
0.0145026
0.0145024
0.0145016
0.0145003
0.0144986
0.0144963
0.0144936
0.0144905
0.0144868
0.0144828
0.0144783
0.0144734
0.0144681
0.0144624
0.0144563
0.0144498
0.014443
0.0144358
0.0144282
0.0144203
0.0144121
0.0144036
0.0143947
0.0143855
0.0143761
0.0143663
0.0143562
0.0143459
0.0143353
0.0143244
0.0143132
0.0143018
0.0142901
0.0142782
0.014266
0.0142537
0.014241
0.0142282
0.0142152
0.0142019
0.0141885
0.014175
0.0141612
0.0141474
0.0141334
0.0141194
0.0141053
0.0140912
0.014077
0.0140628
0.0140487
0.0140347
0.0140207
0.0140068
0.0139931
0.0139796
0.0139663
0.0139533
0.0139405
0.013928
0.0139158
0.0139041
0.0138927
0.0138817
0.0138712
0.0138611
0.0138516
0.0138425
0.013834
0.0138261
0.0138188
0.013812
0.0138059
0.0138003
0.0137954
0.0137911
0.0137875
0.0137845
0.0137821
0.0137804
0.0137793
0.0137788
0.0137789
0.0137796
0.013781
0.013783
0.0137858
0.0137882
0.014137
0.0141329
0.0141277
0.0141228
0.0141182
0.0141135
0.0141091
0.0141047
0.0141005
0.0140964
0.0140925
0.0140887
0.0140851
0.0140817
0.0140785
0.0140754
0.0140725
0.0140698
0.0140673
0.014065
0.0140628
0.0140608
0.014059
0.0140574
0.0140559
0.0140545
0.0140533
0.0140523
0.0140515
0.0140507
0.0140502
0.0140497
0.0140495
0.0140494
0.0140494
0.0140496
0.0140499
0.0140504
0.0140511
0.014052
0.014053
0.0140542
0.0140556
0.0140572
0.0140589
0.0140609
0.0140631
0.0140656
0.0140682
0.0140711
0.0140742
0.0140776
0.0140813
0.0140852
0.0140894
0.0140938
0.0140985
0.0141035
0.0141089
0.0141144
0.0141203
0.0141265
0.014133
0.0141397
0.0141468
0.0141541
0.0141617
0.0141695
0.0141777
0.0141861
0.0141947
0.0142036
0.0142126
0.0142219
0.0142314
0.014241
0.0142508
0.0142607
0.0142708
0.0142809
0.014291
0.0143013
0.0143115
0.0143217
0.0143319
0.014342
0.0143521
0.014362
0.0143718
0.0143814
0.0143908
0.0144
0.0144089
0.0144176
0.0144259
0.014434
0.0144416
0.014449
0.0144559
0.0144624
0.0144685
0.0144742
0.0144794
0.0144841
0.0144884
0.0144921
0.0144954
0.0144982
0.0145004
0.0145021
0.0145034
0.0145041
0.0145043
0.014504
0.0145032
0.0145018
0.0145
0.0144978
0.014495
0.0144918
0.0144881
0.0144839
0.0144794
0.0144744
0.014469
0.0144631
0.0144569
0.0144504
0.0144434
0.0144361
0.0144284
0.0144204
0.0144121
0.0144034
0.0143944
0.0143852
0.0143756
0.0143657
0.0143555
0.0143451
0.0143344
0.0143234
0.0143121
0.0143006
0.0142888
0.0142768
0.0142645
0.014252
0.0142393
0.0142264
0.0142133
0.0142
0.0141865
0.0141729
0.0141591
0.0141452
0.0141312
0.014117
0.0141029
0.0140887
0.0140744
0.0140602
0.0140461
0.0140319
0.0140179
0.014004
0.0139903
0.0139767
0.0139634
0.0139503
0.0139374
0.0139249
0.0139127
0.0139009
0.0138895
0.0138785
0.0138679
0.0138579
0.0138483
0.0138392
0.0138307
0.0138228
0.0138154
0.0138087
0.0138025
0.013797
0.0137921
0.0137878
0.0137842
0.0137812
0.0137788
0.0137771
0.0137761
0.0137756
0.0137758
0.0137767
0.0137781
0.0137802
0.0137831
0.0137857
0.0141431
0.0141385
0.0141327
0.0141274
0.0141223
0.0141174
0.0141126
0.0141081
0.0141037
0.0140996
0.0140956
0.0140918
0.0140882
0.0140848
0.0140816
0.0140786
0.0140758
0.0140731
0.0140707
0.0140684
0.0140663
0.0140643
0.0140626
0.0140609
0.0140595
0.0140582
0.014057
0.014056
0.0140551
0.0140543
0.0140537
0.0140533
0.014053
0.0140528
0.0140527
0.0140528
0.0140531
0.0140535
0.0140541
0.0140548
0.0140557
0.0140568
0.0140581
0.0140595
0.0140612
0.0140631
0.0140651
0.0140674
0.0140699
0.0140727
0.0140757
0.014079
0.0140825
0.0140862
0.0140903
0.0140946
0.0140992
0.0141041
0.0141093
0.0141148
0.0141206
0.0141267
0.0141331
0.0141398
0.0141468
0.0141541
0.0141616
0.0141695
0.0141776
0.014186
0.0141946
0.0142035
0.0142126
0.0142219
0.0142314
0.0142411
0.0142509
0.0142609
0.014271
0.0142812
0.0142915
0.0143018
0.0143121
0.0143224
0.0143327
0.014343
0.0143531
0.0143632
0.014373
0.0143828
0.0143923
0.0144016
0.0144106
0.0144194
0.0144279
0.014436
0.0144438
0.0144512
0.0144582
0.0144648
0.014471
0.0144767
0.014482
0.0144868
0.0144911
0.0144949
0.0144982
0.014501
0.0145033
0.014505
0.0145062
0.0145069
0.0145071
0.0145068
0.0145059
0.0145046
0.0145027
0.0145004
0.0144975
0.0144942
0.0144904
0.0144862
0.0144815
0.0144764
0.0144709
0.014465
0.0144586
0.0144519
0.0144448
0.0144374
0.0144296
0.0144214
0.0144129
0.0144041
0.014395
0.0143856
0.0143758
0.0143658
0.0143555
0.0143449
0.014334
0.0143229
0.0143115
0.0142998
0.0142879
0.0142757
0.0142634
0.0142507
0.0142379
0.0142249
0.0142116
0.0141982
0.0141846
0.0141709
0.014157
0.014143
0.0141289
0.0141147
0.0141004
0.0140861
0.0140718
0.0140575
0.0140432
0.014029
0.0140149
0.014001
0.0139872
0.0139735
0.0139601
0.0139469
0.013934
0.0139215
0.0139092
0.0138974
0.0138859
0.0138748
0.0138642
0.0138541
0.0138445
0.0138354
0.0138269
0.0138189
0.0138115
0.0138048
0.0137986
0.013793
0.0137881
0.0137838
0.0137802
0.0137772
0.0137749
0.0137733
0.0137722
0.0137719
0.0137722
0.0137731
0.0137746
0.0137768
0.0137799
0.0137826
0.0141489
0.0141439
0.0141375
0.0141317
0.0141262
0.014121
0.014116
0.0141112
0.0141067
0.0141024
0.0140984
0.0140946
0.014091
0.0140876
0.0140844
0.0140814
0.0140786
0.014076
0.0140736
0.0140714
0.0140693
0.0140674
0.0140657
0.0140641
0.0140627
0.0140613
0.0140602
0.0140592
0.0140583
0.0140575
0.0140569
0.0140563
0.014056
0.0140557
0.0140556
0.0140557
0.0140558
0.0140562
0.0140566
0.0140573
0.0140581
0.0140591
0.0140602
0.0140615
0.014063
0.0140648
0.0140667
0.0140689
0.0140713
0.0140739
0.0140768
0.0140799
0.0140833
0.014087
0.0140909
0.0140952
0.0140997
0.0141045
0.0141096
0.014115
0.0141208
0.0141268
0.0141331
0.0141398
0.0141467
0.014154
0.0141616
0.0141694
0.0141776
0.014186
0.0141946
0.0142036
0.0142127
0.0142221
0.0142317
0.0142415
0.0142514
0.0142615
0.0142717
0.014282
0.0142924
0.0143028
0.0143133
0.0143238
0.0143342
0.0143446
0.0143549
0.0143651
0.0143751
0.014385
0.0143947
0.0144041
0.0144133
0.0144222
0.0144308
0.0144391
0.014447
0.0144545
0.0144617
0.0144684
0.0144747
0.0144805
0.0144859
0.0144907
0.0144951
0.0144989
0.0145023
0.0145051
0.0145074
0.0145092
0.0145104
0.0145111
0.0145113
0.0145109
0.01451
0.0145086
0.0145067
0.0145043
0.0145014
0.0144979
0.0144941
0.0144897
0.0144849
0.0144797
0.014474
0.0144679
0.0144614
0.0144546
0.0144473
0.0144397
0.0144317
0.0144234
0.0144147
0.0144057
0.0143964
0.0143867
0.0143768
0.0143666
0.0143561
0.0143453
0.0143342
0.0143229
0.0143113
0.0142995
0.0142874
0.0142751
0.0142625
0.0142497
0.0142367
0.0142235
0.0142102
0.0141966
0.0141828
0.014169
0.0141549
0.0141408
0.0141265
0.0141122
0.0140978
0.0140834
0.014069
0.0140546
0.0140402
0.0140259
0.0140117
0.0139976
0.0139837
0.01397
0.0139565
0.0139433
0.0139303
0.0139176
0.0139053
0.0138934
0.0138818
0.0138707
0.0138601
0.0138499
0.0138402
0.0138311
0.0138225
0.0138145
0.0138071
0.0138003
0.0137941
0.0137885
0.0137836
0.0137793
0.0137757
0.0137727
0.0137704
0.0137688
0.0137678
0.0137675
0.0137678
0.0137688
0.0137705
0.0137728
0.013776
0.0137788
0.0141545
0.0141489
0.014142
0.0141357
0.0141299
0.0141243
0.014119
0.0141141
0.0141094
0.014105
0.0141009
0.014097
0.0140934
0.01409
0.0140868
0.0140838
0.0140811
0.0140785
0.0140761
0.014074
0.0140719
0.0140701
0.0140683
0.0140668
0.0140654
0.0140641
0.0140629
0.0140619
0.014061
0.0140602
0.0140595
0.014059
0.0140585
0.0140582
0.0140581
0.014058
0.0140581
0.0140583
0.0140587
0.0140592
0.01406
0.0140608
0.0140618
0.0140631
0.0140645
0.0140661
0.0140679
0.01407
0.0140723
0.0140748
0.0140775
0.0140806
0.0140839
0.0140874
0.0140913
0.0140954
0.0140999
0.0141046
0.0141097
0.0141151
0.0141207
0.0141268
0.0141331
0.0141397
0.0141467
0.014154
0.0141616
0.0141695
0.0141777
0.0141861
0.0141949
0.0142039
0.0142131
0.0142226
0.0142323
0.0142422
0.0142523
0.0142625
0.0142729
0.0142834
0.0142939
0.0143045
0.0143152
0.0143258
0.0143364
0.014347
0.0143575
0.0143679
0.0143781
0.0143882
0.014398
0.0144076
0.014417
0.0144261
0.0144349
0.0144433
0.0144514
0.0144591
0.0144664
0.0144732
0.0144796
0.0144856
0.014491
0.014496
0.0145005
0.0145044
0.0145078
0.0145107
0.014513
0.0145148
0.0145161
0.0145168
0.0145169
0.0145165
0.0145156
0.0145141
0.0145121
0.0145096
0.0145066
0.0145031
0.0144991
0.0144946
0.0144897
0.0144843
0.0144784
0.0144722
0.0144655
0.0144584
0.0144509
0.0144431
0.0144349
0.0144263
0.0144174
0.0144082
0.0143986
0.0143888
0.0143786
0.0143682
0.0143574
0.0143464
0.0143351
0.0143235
0.0143117
0.0142996
0.0142873
0.0142748
0.014262
0.014249
0.0142358
0.0142224
0.0142088
0.0141951
0.0141812
0.0141671
0.0141529
0.0141386
0.0141242
0.0141097
0.0140952
0.0140806