/*--------------------------------*- C++ -*----------------------------------*\
  =========                 |
  \\      /  F ield         | OpenFOAM: The Open Source CFD Toolbox
   \\    /   O peration     | Website:  https://openfoam.org
    \\  /    A nd           | Version:  6
     \\/     M anipulation  |
\*---------------------------------------------------------------------------*/
FoamFile
{
    version     2.0;
    format      ascii;
    class       volScalarField;
    location    "0";
    object      p;
}
// * * * * * * * * * * * * * * * * * * * * * * * * * * * * * * * * * * * * * //

dimensions      [0 2 -2 0 0 0 0];

internalField   nonuniform List<scalar> 
145945
(
3.57394e-06
3.57261e-06
3.57152e-06
3.5704e-06
3.56955e-06
3.56886e-06
3.56839e-06
3.56809e-06
3.56798e-06
3.56805e-06
3.56831e-06
3.56875e-06
3.56939e-06
3.57019e-06
3.57131e-06
3.57245e-06
3.57387e-06
3.57261e-06
3.57151e-06
3.57041e-06
3.5693e-06
3.5684e-06
3.56769e-06
3.56719e-06
3.56688e-06
3.56677e-06
3.56684e-06
3.56712e-06
3.56758e-06
3.56824e-06
3.56909e-06
3.57019e-06
3.57136e-06
3.57254e-06
3.57152e-06
3.57041e-06
3.56924e-06
3.56813e-06
3.56721e-06
3.56649e-06
3.56598e-06
3.56566e-06
3.56555e-06
3.56563e-06
3.5659e-06
3.56637e-06
3.56705e-06
3.56792e-06
3.56902e-06
3.57026e-06
3.57145e-06
3.5704e-06
3.5693e-06
3.56813e-06
3.56702e-06
3.56608e-06
3.56534e-06
3.56482e-06
3.5645e-06
3.56438e-06
3.56446e-06
3.56474e-06
3.56523e-06
3.56592e-06
3.56681e-06
3.56792e-06
3.56917e-06
3.57034e-06
3.56955e-06
3.5684e-06
3.56721e-06
3.56608e-06
3.56511e-06
3.56436e-06
3.56383e-06
3.5635e-06
3.56337e-06
3.56346e-06
3.56375e-06
3.56425e-06
3.56495e-06
3.56587e-06
3.56699e-06
3.56827e-06
3.56949e-06
3.56886e-06
3.56769e-06
3.56649e-06
3.56534e-06
3.56436e-06
3.5636e-06
3.56305e-06
3.56272e-06
3.56259e-06
3.56268e-06
3.56298e-06
3.56348e-06
3.5642e-06
3.56514e-06
3.56627e-06
3.56756e-06
3.5688e-06
3.56839e-06
3.56719e-06
3.56598e-06
3.56482e-06
3.56383e-06
3.56305e-06
3.5625e-06
3.56216e-06
3.56203e-06
3.56212e-06
3.56242e-06
3.56294e-06
3.56366e-06
3.56461e-06
3.56577e-06
3.56707e-06
3.56833e-06
3.56809e-06
3.56688e-06
3.56567e-06
3.5645e-06
3.5635e-06
3.56272e-06
3.56216e-06
3.56181e-06
3.56168e-06
3.56177e-06
3.56208e-06
3.5626e-06
3.56333e-06
3.56429e-06
3.56545e-06
3.56676e-06
3.56803e-06
3.56798e-06
3.56677e-06
3.56555e-06
3.56438e-06
3.56337e-06
3.56259e-06
3.56203e-06
3.56168e-06
3.56155e-06
3.56164e-06
3.56195e-06
3.56247e-06
3.56321e-06
3.56417e-06
3.56533e-06
3.56664e-06
3.56792e-06
3.56805e-06
3.56684e-06
3.56563e-06
3.56446e-06
3.56346e-06
3.56268e-06
3.56212e-06
3.56177e-06
3.56164e-06
3.56173e-06
3.56204e-06
3.56256e-06
3.56329e-06
3.56425e-06
3.56541e-06
3.56672e-06
3.56799e-06
3.56831e-06
3.56712e-06
3.56591e-06
3.56474e-06
3.56375e-06
3.56298e-06
3.56242e-06
3.56208e-06
3.56195e-06
3.56204e-06
3.56234e-06
3.56286e-06
3.56359e-06
3.56454e-06
3.56569e-06
3.56699e-06
3.56826e-06
3.56875e-06
3.56758e-06
3.56637e-06
3.56523e-06
3.56425e-06
3.56348e-06
3.56294e-06
3.5626e-06
3.56247e-06
3.56256e-06
3.56286e-06
3.56337e-06
3.56409e-06
3.56502e-06
3.56616e-06
3.56745e-06
3.56869e-06
3.56939e-06
3.56824e-06
3.56705e-06
3.56592e-06
3.56495e-06
3.5642e-06
3.56366e-06
3.56333e-06
3.56321e-06
3.56329e-06
3.56359e-06
3.56409e-06
3.56479e-06
3.56571e-06
3.56684e-06
3.56811e-06
3.56933e-06
3.57019e-06
3.56909e-06
3.56792e-06
3.56681e-06
3.56587e-06
3.56514e-06
3.56461e-06
3.56429e-06
3.56417e-06
3.56425e-06
3.56454e-06
3.56502e-06
3.56571e-06
3.56661e-06
3.56771e-06
3.56896e-06
3.57013e-06
3.5713e-06
3.57019e-06
3.56902e-06
3.56792e-06
3.56699e-06
3.56627e-06
3.56577e-06
3.56545e-06
3.56533e-06
3.56541e-06
3.56569e-06
3.56616e-06
3.56684e-06
3.56771e-06
3.56881e-06
3.57005e-06
3.57124e-06
3.57244e-06
3.57136e-06
3.57026e-06
3.56917e-06
3.56827e-06
3.56756e-06
3.56707e-06
3.56676e-06
3.56664e-06
3.56672e-06
3.56699e-06
3.56745e-06
3.56811e-06
3.56896e-06
3.57005e-06
3.57121e-06
3.57238e-06
3.57387e-06
3.57254e-06
3.57145e-06
3.57034e-06
3.56949e-06
3.5688e-06
3.56833e-06
3.56803e-06
3.56792e-06
3.56799e-06
3.56826e-06
3.56869e-06
3.56933e-06
3.57013e-06
3.57124e-06
3.57238e-06
3.5738e-06
3.51826e-06
3.51742e-06
3.5167e-06
3.51595e-06
3.51537e-06
3.51492e-06
3.5146e-06
3.5144e-06
3.51432e-06
3.51436e-06
3.51453e-06
3.51481e-06
3.51522e-06
3.51574e-06
3.51646e-06
3.51722e-06
3.51811e-06
3.51742e-06
3.51675e-06
3.51604e-06
3.51532e-06
3.51474e-06
3.51428e-06
3.51395e-06
3.51375e-06
3.51367e-06
3.51371e-06
3.51388e-06
3.51417e-06
3.51458e-06
3.51511e-06
3.51581e-06
3.51655e-06
3.51727e-06
3.5167e-06
3.51604e-06
3.51533e-06
3.51462e-06
3.51403e-06
3.51358e-06
3.51326e-06
3.51305e-06
3.51298e-06
3.51302e-06
3.51318e-06
3.51347e-06
3.51388e-06
3.51441e-06
3.51509e-06
3.51585e-06
3.51655e-06
3.51595e-06
3.51532e-06
3.51462e-06
3.51393e-06
3.51334e-06
3.51288e-06
3.51256e-06
3.51235e-06
3.51227e-06
3.51232e-06
3.51249e-06
3.51277e-06
3.51318e-06
3.51372e-06
3.51439e-06
3.51514e-06
3.51581e-06
3.51537e-06
3.51474e-06
3.51403e-06
3.51334e-06
3.51275e-06
3.51229e-06
3.51196e-06
3.51175e-06
3.51167e-06
3.51172e-06
3.51189e-06
3.51218e-06
3.51259e-06
3.51313e-06
3.5138e-06
3.51455e-06
3.51523e-06
3.51492e-06
3.51428e-06
3.51358e-06
3.51288e-06
3.51229e-06
3.51183e-06
3.51149e-06
3.51129e-06
3.51121e-06
3.51125e-06
3.51142e-06
3.51172e-06
3.51213e-06
3.51268e-06
3.51335e-06
3.5141e-06
3.51477e-06
3.5146e-06
3.51395e-06
3.51326e-06
3.51256e-06
3.51196e-06
3.51149e-06
3.51116e-06
3.51095e-06
3.51087e-06
3.51092e-06
3.51109e-06
3.51139e-06
3.51181e-06
3.51235e-06
3.51303e-06
3.51378e-06
3.51446e-06
3.5144e-06
3.51375e-06
3.51306e-06
3.51236e-06
3.51175e-06
3.51129e-06
3.51095e-06
3.51074e-06
3.51066e-06
3.51071e-06
3.51088e-06
3.51118e-06
3.5116e-06
3.51215e-06
3.51283e-06
3.51357e-06
3.51426e-06
3.51432e-06
3.51367e-06
3.51298e-06
3.51227e-06
3.51167e-06
3.51121e-06
3.51087e-06
3.51066e-06
3.51058e-06
3.51062e-06
3.5108e-06
3.5111e-06
3.51152e-06
3.51207e-06
3.51275e-06
3.5135e-06
3.51418e-06
3.51437e-06
3.51371e-06
3.51302e-06
3.51232e-06
3.51172e-06
3.51125e-06
3.51092e-06
3.51071e-06
3.51062e-06
3.51067e-06
3.51085e-06
3.51114e-06
3.51157e-06
3.51212e-06
3.51279e-06
3.51354e-06
3.51422e-06
3.51453e-06
3.51388e-06
3.51319e-06
3.51249e-06
3.51189e-06
3.51142e-06
3.51109e-06
3.51088e-06
3.5108e-06
3.51085e-06
3.51102e-06
3.51132e-06
3.51174e-06
3.51228e-06
3.51296e-06
3.5137e-06
3.51438e-06
3.51481e-06
3.51417e-06
3.51347e-06
3.51277e-06
3.51218e-06
3.51172e-06
3.51139e-06
3.51118e-06
3.5111e-06
3.51114e-06
3.51132e-06
3.51161e-06
3.51203e-06
3.51257e-06
3.51324e-06
3.51399e-06
3.51466e-06
3.51522e-06
3.51458e-06
3.51388e-06
3.51319e-06
3.51259e-06
3.51213e-06
3.51181e-06
3.5116e-06
3.51152e-06
3.51157e-06
3.51174e-06
3.51203e-06
3.51244e-06
3.51298e-06
3.51365e-06
3.5144e-06
3.51508e-06
3.51574e-06
3.51511e-06
3.51441e-06
3.51372e-06
3.51313e-06
3.51268e-06
3.51235e-06
3.51215e-06
3.51207e-06
3.51211e-06
3.51228e-06
3.51257e-06
3.51298e-06
3.51352e-06
3.51418e-06
3.51493e-06
3.5156e-06
3.51646e-06
3.51581e-06
3.51509e-06
3.51439e-06
3.5138e-06
3.51335e-06
3.51303e-06
3.51283e-06
3.51275e-06
3.51279e-06
3.51296e-06
3.51324e-06
3.51365e-06
3.51418e-06
3.51486e-06
3.51562e-06
3.51631e-06
3.51722e-06
3.51655e-06
3.51585e-06
3.51514e-06
3.51455e-06
3.5141e-06
3.51378e-06
3.51357e-06
3.51349e-06
3.51354e-06
3.5137e-06
3.51399e-06
3.5144e-06
3.51493e-06
3.51562e-06
3.51636e-06
3.51707e-06
3.51811e-06
3.51727e-06
3.51655e-06
3.51581e-06
3.51523e-06
3.51477e-06
3.51446e-06
3.51426e-06
3.51418e-06
3.51422e-06
3.51438e-06
3.51466e-06
3.51507e-06
3.5156e-06
3.51631e-06
3.51707e-06
3.51795e-06
3.48183e-06
3.48173e-06
3.48162e-06
3.48148e-06
3.48137e-06
3.48125e-06
3.48117e-06
3.4811e-06
3.48107e-06
3.48108e-06
3.48113e-06
3.4812e-06
3.48129e-06
3.48139e-06
3.4815e-06
3.48159e-06
3.4817e-06
3.48173e-06
3.48162e-06
3.48148e-06
3.48132e-06
3.48117e-06
3.48103e-06
3.48093e-06
3.48085e-06
3.48082e-06
3.48083e-06
3.48088e-06
3.48097e-06
3.48109e-06
3.48121e-06
3.48136e-06
3.48148e-06
3.48159e-06
3.48162e-06
3.48148e-06
3.48129e-06
3.48108e-06
3.4809e-06
3.48074e-06
3.48062e-06
3.48054e-06
3.48051e-06
3.48052e-06
3.48058e-06
3.48068e-06
3.48082e-06
3.48097e-06
3.48115e-06
3.48134e-06
3.48149e-06
3.48148e-06
3.48132e-06
3.48108e-06
3.48084e-06
3.48063e-06
3.48045e-06
3.48032e-06
3.48023e-06
3.48019e-06
3.4802e-06
3.48027e-06
3.48039e-06
3.48054e-06
3.48073e-06
3.48093e-06
3.48116e-06
3.48134e-06
3.48137e-06
3.48117e-06
3.4809e-06
3.48063e-06
3.4804e-06
3.4802e-06
3.48005e-06
3.47995e-06
3.47991e-06
3.47993e-06
3.48e-06
3.48013e-06
3.4803e-06
3.48051e-06
3.48075e-06
3.48101e-06
3.48123e-06
3.48125e-06
3.48103e-06
3.48074e-06
3.48045e-06
3.4802e-06
3.47999e-06
3.47983e-06
3.47973e-06
3.47969e-06
3.4797e-06
3.47978e-06
3.47992e-06
3.48011e-06
3.48033e-06
3.48059e-06
3.48088e-06
3.48112e-06
3.48117e-06
3.48093e-06
3.48062e-06
3.48032e-06
3.48005e-06
3.47983e-06
3.47967e-06
3.47956e-06
3.47951e-06
3.47953e-06
3.47962e-06
3.47976e-06
3.47996e-06
3.48019e-06
3.48046e-06
3.48077e-06
3.48103e-06
3.4811e-06
3.48085e-06
3.48054e-06
3.48023e-06
3.47995e-06
3.47973e-06
3.47956e-06
3.47945e-06
3.4794e-06
3.47942e-06
3.47951e-06
3.47966e-06
3.47986e-06
3.4801e-06
3.48038e-06
3.4807e-06
3.48097e-06
3.48107e-06
3.48082e-06
3.48051e-06
3.48019e-06
3.47991e-06
3.47969e-06
3.47952e-06
3.4794e-06
3.47936e-06
3.47938e-06
3.47947e-06
3.47961e-06
3.47981e-06
3.48006e-06
3.48035e-06
3.48067e-06
3.48094e-06
3.48108e-06
3.48083e-06
3.48052e-06
3.4802e-06
3.47993e-06
3.4797e-06
3.47953e-06
3.47942e-06
3.47938e-06
3.4794e-06
3.47949e-06
3.47963e-06
3.47983e-06
3.48008e-06
3.48036e-06
3.48068e-06
3.48094e-06
3.48113e-06
3.48089e-06
3.48058e-06
3.48027e-06
3.48001e-06
3.47979e-06
3.47962e-06
3.47951e-06
3.47947e-06
3.47949e-06
3.47957e-06
3.47971e-06
3.47991e-06
3.48015e-06
3.48042e-06
3.48073e-06
3.48099e-06
3.4812e-06
3.48097e-06
3.48068e-06
3.48039e-06
3.48013e-06
3.47992e-06
3.47976e-06
3.47966e-06
3.47961e-06
3.47963e-06
3.47971e-06
3.47985e-06
3.48004e-06
3.48027e-06
3.48052e-06
3.48082e-06
3.48106e-06
3.48129e-06
3.48109e-06
3.48082e-06
3.48054e-06
3.4803e-06
3.48011e-06
3.47996e-06
3.47986e-06
3.47981e-06
3.47983e-06
3.47991e-06
3.48004e-06
3.48021e-06
3.48042e-06
3.48066e-06
3.48093e-06
3.48116e-06
3.48139e-06
3.48121e-06
3.48097e-06
3.48073e-06
3.48051e-06
3.48033e-06
3.48019e-06
3.4801e-06
3.48006e-06
3.48008e-06
3.48015e-06
3.48027e-06
3.48042e-06
3.48061e-06
3.48083e-06
3.48106e-06
3.48125e-06
3.4815e-06
3.48136e-06
3.48115e-06
3.48093e-06
3.48075e-06
3.48059e-06
3.48046e-06
3.48038e-06
3.48035e-06
3.48036e-06
3.48042e-06
3.48052e-06
3.48066e-06
3.48083e-06
3.48101e-06
3.48121e-06
3.48137e-06
3.48159e-06
3.48148e-06
3.48134e-06
3.48116e-06
3.48101e-06
3.48088e-06
3.48077e-06
3.4807e-06
3.48066e-06
3.48067e-06
3.48073e-06
3.48082e-06
3.48093e-06
3.48106e-06
3.48121e-06
3.48134e-06
3.48146e-06
3.4817e-06
3.48159e-06
3.48149e-06
3.48134e-06
3.48123e-06
3.48112e-06
3.48103e-06
3.48097e-06
3.48094e-06
3.48094e-06
3.48099e-06
3.48106e-06
3.48116e-06
3.48125e-06
3.48137e-06
3.48146e-06
3.48156e-06
3.43802e-06
3.43832e-06
3.43863e-06
3.43893e-06
3.43916e-06
3.43931e-06
3.43941e-06
3.43947e-06
3.43949e-06
3.43947e-06
3.43941e-06
3.43931e-06
3.43916e-06
3.43894e-06
3.43864e-06
3.43828e-06
3.43793e-06
3.43832e-06
3.43855e-06
3.43881e-06
3.43906e-06
3.43925e-06
3.43937e-06
3.43945e-06
3.43949e-06
3.4395e-06
3.43949e-06
3.43944e-06
3.43936e-06
3.43924e-06
3.43906e-06
3.43881e-06
3.4385e-06
3.43823e-06
3.43863e-06
3.43881e-06
3.43902e-06
3.43921e-06
3.43936e-06
3.43945e-06
3.4395e-06
3.43953e-06
3.43954e-06
3.43953e-06
3.4395e-06
3.43944e-06
3.43935e-06
3.43921e-06
3.43901e-06
3.43876e-06
3.43854e-06
3.43893e-06
3.43906e-06
3.43921e-06
3.43936e-06
3.43947e-06
3.43953e-06
3.43956e-06
3.43958e-06
3.43958e-06
3.43957e-06
3.43955e-06
3.43952e-06
3.43946e-06
3.43936e-06
3.4392e-06
3.43901e-06
3.43884e-06
3.43916e-06
3.43925e-06
3.43936e-06
3.43947e-06
3.43954e-06
3.43958e-06
3.43959e-06
3.4396e-06
3.4396e-06
3.43959e-06
3.43958e-06
3.43956e-06
3.43952e-06
3.43946e-06
3.43935e-06
3.4392e-06
3.43907e-06
3.43931e-06
3.43937e-06
3.43945e-06
3.43953e-06
3.43958e-06
3.43959e-06
3.4396e-06
3.43959e-06
3.43959e-06
3.43959e-06
3.43958e-06
3.43958e-06
3.43956e-06
3.43952e-06
3.43943e-06
3.43932e-06
3.43922e-06
3.43941e-06
3.43945e-06
3.4395e-06
3.43956e-06
3.43959e-06
3.4396e-06
3.43959e-06
3.43958e-06
3.43958e-06
3.43957e-06
3.43958e-06
3.43958e-06
3.43957e-06
3.43955e-06
3.43949e-06
3.4394e-06
3.43933e-06
3.43947e-06
3.43949e-06
3.43953e-06
3.43958e-06
3.4396e-06
3.43959e-06
3.43958e-06
3.43957e-06
3.43956e-06
3.43956e-06
3.43957e-06
3.43957e-06
3.43958e-06
3.43956e-06
3.43952e-06
3.43944e-06
3.43938e-06
3.43949e-06
3.4395e-06
3.43954e-06
3.43958e-06
3.4396e-06
3.43959e-06
3.43958e-06
3.43956e-06
3.43956e-06
3.43956e-06
3.43956e-06
3.43957e-06
3.43958e-06
3.43957e-06
3.43952e-06
3.43946e-06
3.4394e-06
3.43947e-06
3.43949e-06
3.43953e-06
3.43957e-06
3.43959e-06
3.43959e-06
3.43957e-06
3.43956e-06
3.43956e-06
3.43956e-06
3.43956e-06
3.43957e-06
3.43957e-06
3.43956e-06
3.43951e-06
3.43944e-06
3.43938e-06
3.43941e-06
3.43944e-06
3.4395e-06
3.43955e-06
3.43958e-06
3.43958e-06
3.43958e-06
3.43957e-06
3.43956e-06
3.43956e-06
3.43956e-06
3.43956e-06
3.43956e-06
3.43954e-06
3.43948e-06
3.4394e-06
3.43933e-06
3.43931e-06
3.43936e-06
3.43944e-06
3.43952e-06
3.43956e-06
3.43958e-06
3.43958e-06
3.43957e-06
3.43957e-06
3.43957e-06
3.43956e-06
3.43956e-06
3.43954e-06
3.43951e-06
3.43943e-06
3.43932e-06
3.43922e-06
3.43916e-06
3.43925e-06
3.43935e-06
3.43946e-06
3.43953e-06
3.43956e-06
3.43957e-06
3.43958e-06
3.43958e-06
3.43957e-06
3.43956e-06
3.43954e-06
3.43951e-06
3.43945e-06
3.43934e-06
3.4392e-06
3.43908e-06
3.43894e-06
3.43907e-06
3.43921e-06
3.43936e-06
3.43946e-06
3.43952e-06
3.43955e-06
3.43956e-06
3.43957e-06
3.43956e-06
3.43954e-06
3.43951e-06
3.43945e-06
3.43936e-06
3.43921e-06
3.43902e-06
3.43886e-06
3.43864e-06
3.43882e-06
3.43902e-06
3.43921e-06
3.43935e-06
3.43944e-06
3.43949e-06
3.43952e-06
3.43953e-06
3.43951e-06
3.43948e-06
3.43943e-06
3.43934e-06
3.43921e-06
3.43902e-06
3.43877e-06
3.43856e-06
3.43829e-06
3.43851e-06
3.43877e-06
3.43901e-06
3.4392e-06
3.43932e-06
3.4394e-06
3.43944e-06
3.43946e-06
3.43944e-06
3.4394e-06
3.43932e-06
3.4392e-06
3.43902e-06
3.43877e-06
3.43846e-06
3.43819e-06
3.43793e-06
3.43823e-06
3.43854e-06
3.43884e-06
3.43907e-06
3.43923e-06
3.43933e-06
3.43938e-06
3.4394e-06
3.43938e-06
3.43933e-06
3.43922e-06
3.43908e-06
3.43886e-06
3.43856e-06
3.43819e-06
3.43783e-06
3.39652e-06
3.39702e-06
3.39748e-06
3.39793e-06
3.3983e-06
3.39857e-06
3.39875e-06
3.39885e-06
3.39889e-06
3.39886e-06
3.39875e-06
3.39858e-06
3.39832e-06
3.39796e-06
3.39748e-06
3.39696e-06
3.3964e-06
3.39702e-06
3.39741e-06
3.39783e-06
3.39824e-06
3.39858e-06
3.39883e-06
3.399e-06
3.39909e-06
3.39913e-06
3.3991e-06
3.399e-06
3.39884e-06
3.3986e-06
3.39826e-06
3.39783e-06
3.39735e-06
3.3969e-06
3.39748e-06
3.39783e-06
3.3982e-06
3.39857e-06
3.39887e-06
3.39909e-06
3.39924e-06
3.39932e-06
3.39935e-06
3.39932e-06
3.39924e-06
3.39909e-06
3.39888e-06
3.39859e-06
3.3982e-06
3.39776e-06
3.39736e-06
3.39793e-06
3.39824e-06
3.39857e-06
3.39889e-06
3.39915e-06
3.39934e-06
3.39947e-06
3.39955e-06
3.39957e-06
3.39955e-06
3.39947e-06
3.39935e-06
3.39916e-06
3.3989e-06
3.39856e-06
3.39817e-06
3.39781e-06
3.3983e-06
3.39858e-06
3.39887e-06
3.39915e-06
3.39939e-06
3.39955e-06
3.39967e-06
3.39973e-06
3.39975e-06
3.39973e-06
3.39967e-06
3.39955e-06
3.39939e-06
3.39916e-06
3.39886e-06
3.39851e-06
3.39818e-06
3.39857e-06
3.39883e-06
3.39909e-06
3.39934e-06
3.39955e-06
3.3997e-06
3.3998e-06
3.39986e-06
3.39988e-06
3.39986e-06
3.3998e-06
3.3997e-06
3.39955e-06
3.39935e-06
3.39907e-06
3.39875e-06
3.39845e-06
3.39875e-06
3.399e-06
3.39924e-06
3.39947e-06
3.39967e-06
3.3998e-06
3.39989e-06
3.39995e-06
3.39996e-06
3.39994e-06
3.39989e-06
3.3998e-06
3.39966e-06
3.39947e-06
3.39922e-06
3.39892e-06
3.39864e-06
3.39885e-06
3.39909e-06
3.39932e-06
3.39955e-06
3.39973e-06
3.39986e-06
3.39995e-06
3.39999e-06
3.40001e-06
3.39999e-06
3.39994e-06
3.39986e-06
3.39973e-06
3.39955e-06
3.3993e-06
3.39902e-06
3.39874e-06
3.39889e-06
3.39913e-06
3.39935e-06
3.39957e-06
3.39975e-06
3.39988e-06
3.39996e-06
3.40001e-06
3.40002e-06
3.40001e-06
3.39996e-06
3.39987e-06
3.39975e-06
3.39957e-06
3.39933e-06
3.39905e-06
3.39878e-06
3.39886e-06
3.3991e-06
3.39933e-06
3.39955e-06
3.39973e-06
3.39986e-06
3.39994e-06
3.39999e-06
3.40001e-06
3.39999e-06
3.39994e-06
3.39986e-06
3.39973e-06
3.39955e-06
3.3993e-06
3.39902e-06
3.39875e-06
3.39876e-06
3.399e-06
3.39924e-06
3.39947e-06
3.39967e-06
3.3998e-06
3.39989e-06
3.39994e-06
3.39996e-06
3.39994e-06
3.39989e-06
3.3998e-06
3.39966e-06
3.39948e-06
3.39922e-06
3.39893e-06
3.39864e-06
3.39858e-06
3.39884e-06
3.39909e-06
3.39935e-06
3.39955e-06
3.3997e-06
3.3998e-06
3.39986e-06
3.39987e-06
3.39986e-06
3.3998e-06
3.3997e-06
3.39955e-06
3.39935e-06
3.39908e-06
3.39876e-06
3.39846e-06
3.39832e-06
3.3986e-06
3.39888e-06
3.39916e-06
3.39939e-06
3.39955e-06
3.39966e-06
3.39973e-06
3.39975e-06
3.39973e-06
3.39966e-06
3.39955e-06
3.39939e-06
3.39917e-06
3.39887e-06
3.39852e-06
3.39821e-06
3.39796e-06
3.39827e-06
3.39859e-06
3.3989e-06
3.39916e-06
3.39935e-06
3.39948e-06
3.39955e-06
3.39957e-06
3.39955e-06
3.39948e-06
3.39935e-06
3.39917e-06
3.39891e-06
3.39858e-06
3.39819e-06
3.39785e-06
3.39748e-06
3.39783e-06
3.3982e-06
3.39856e-06
3.39886e-06
3.39907e-06
3.39922e-06
3.3993e-06
3.39933e-06
3.39931e-06
3.39922e-06
3.39908e-06
3.39887e-06
3.39858e-06
3.3982e-06
3.39776e-06
3.39737e-06
3.39696e-06
3.39735e-06
3.39776e-06
3.39817e-06
3.39851e-06
3.39875e-06
3.39892e-06
3.39902e-06
3.39905e-06
3.39902e-06
3.39893e-06
3.39876e-06
3.39852e-06
3.39819e-06
3.39776e-06
3.39728e-06
3.39685e-06
3.39641e-06
3.3969e-06
3.39736e-06
3.39782e-06
3.39819e-06
3.39845e-06
3.39864e-06
3.39874e-06
3.39878e-06
3.39875e-06
3.39864e-06
3.39846e-06
3.39821e-06
3.39785e-06
3.39737e-06
3.39685e-06
3.39629e-06
3.3565e-06
3.35708e-06
3.35762e-06
3.35818e-06
3.35863e-06
3.35897e-06
3.35921e-06
3.35935e-06
3.3594e-06
3.35936e-06
3.35923e-06
3.359e-06
3.35867e-06
3.35823e-06
3.35765e-06
3.35704e-06
3.35639e-06
3.35708e-06
3.35755e-06
3.35806e-06
3.35857e-06
3.359e-06
3.35933e-06
3.35955e-06
3.35969e-06
3.35974e-06
3.3597e-06
3.35957e-06
3.35935e-06
3.35904e-06
3.35862e-06
3.35808e-06
3.3575e-06
3.35697e-06
3.35762e-06
3.35806e-06
3.35853e-06
3.359e-06
3.3594e-06
3.3597e-06
3.35991e-06
3.36003e-06
3.36007e-06
3.36004e-06
3.35992e-06
3.35972e-06
3.35943e-06
3.35904e-06
3.35855e-06
3.358e-06
3.35751e-06
3.35818e-06
3.35857e-06
3.359e-06
3.35943e-06
3.35979e-06
3.36007e-06
3.36026e-06
3.36037e-06
3.36041e-06
3.36038e-06
3.36027e-06
3.36009e-06
3.35982e-06
3.35947e-06
3.35901e-06
3.35851e-06
3.35807e-06
3.35863e-06
3.359e-06
3.3594e-06
3.35979e-06
3.36013e-06
3.36039e-06
3.36056e-06
3.36066e-06
3.3607e-06
3.36067e-06
3.36057e-06
3.3604e-06
3.36016e-06
3.35983e-06
3.35941e-06
3.35894e-06
3.35852e-06
3.35897e-06
3.35933e-06
3.3597e-06
3.36007e-06
3.36039e-06
3.36062e-06
3.36078e-06
3.36088e-06
3.36092e-06
3.36089e-06
3.36079e-06
3.36064e-06
3.36041e-06
3.3601e-06
3.35971e-06
3.35927e-06
3.35887e-06
3.35921e-06
3.35955e-06
3.35991e-06
3.36026e-06
3.36056e-06
3.36078e-06
3.36094e-06
3.36103e-06
3.36106e-06
3.36104e-06
3.36095e-06
3.3608e-06
3.36058e-06
3.36029e-06
3.35991e-06
3.35949e-06
3.3591e-06
3.35935e-06
3.35969e-06
3.36003e-06
3.36037e-06
3.36066e-06
3.36088e-06
3.36103e-06
3.36112e-06
3.36115e-06
3.36112e-06
3.36104e-06
3.36089e-06
3.36068e-06
3.3604e-06
3.36004e-06
3.35963e-06
3.35924e-06
3.3594e-06
3.35974e-06
3.36007e-06
3.36041e-06
3.3607e-06
3.36092e-06
3.36106e-06
3.36115e-06
3.36118e-06
3.36115e-06
3.36107e-06
3.36093e-06
3.36072e-06
3.36044e-06
3.36008e-06
3.35967e-06
3.35929e-06
3.35936e-06
3.3597e-06
3.36004e-06
3.36038e-06
3.36067e-06
3.36089e-06
3.36104e-06
3.36112e-06
3.36115e-06
3.36113e-06
3.36104e-06
3.3609e-06
3.36069e-06
3.36041e-06
3.36004e-06
3.35963e-06
3.35925e-06
3.35923e-06
3.35957e-06
3.35992e-06
3.36027e-06
3.36057e-06
3.36079e-06
3.36095e-06
3.36104e-06
3.36107e-06
3.36104e-06
3.36096e-06
3.36081e-06
3.36059e-06
3.3603e-06
3.35993e-06
3.35951e-06
3.35912e-06
3.359e-06
3.35935e-06
3.35972e-06
3.36009e-06
3.3604e-06
3.36064e-06
3.3608e-06
3.36089e-06
3.36093e-06
3.3609e-06
3.36081e-06
3.36065e-06
3.36043e-06
3.36012e-06
3.35973e-06
3.35929e-06
3.35889e-06
3.35867e-06
3.35904e-06
3.35943e-06
3.35982e-06
3.36016e-06
3.36041e-06
3.36058e-06
3.36069e-06
3.36072e-06
3.36069e-06
3.36059e-06
3.36043e-06
3.36018e-06
3.35986e-06
3.35944e-06
3.35898e-06
3.35856e-06
3.35823e-06
3.35862e-06
3.35904e-06
3.35947e-06
3.35983e-06
3.3601e-06
3.36029e-06
3.3604e-06
3.36044e-06
3.36041e-06
3.3603e-06
3.36012e-06
3.35986e-06
3.35951e-06
3.35906e-06
3.35856e-06
3.35812e-06
3.35765e-06
3.35808e-06
3.35855e-06
3.35901e-06
3.35941e-06
3.35971e-06
3.35991e-06
3.36004e-06
3.36008e-06
3.36004e-06
3.35993e-06
3.35973e-06
3.35944e-06
3.35906e-06
3.35857e-06
3.35802e-06
3.35754e-06
3.35704e-06
3.3575e-06
3.358e-06
3.35851e-06
3.35894e-06
3.35927e-06
3.35949e-06
3.35963e-06
3.35968e-06
3.35964e-06
3.35951e-06
3.35929e-06
3.35898e-06
3.35856e-06
3.35802e-06
3.35745e-06
3.35693e-06
3.35639e-06
3.35697e-06
3.35751e-06
3.35807e-06
3.35852e-06
3.35887e-06
3.3591e-06
3.35925e-06
3.3593e-06
3.35925e-06
3.35912e-06
3.35889e-06
3.35856e-06
3.35812e-06
3.35754e-06
3.35693e-06
3.35628e-06
3.31755e-06
3.31812e-06
3.31865e-06
3.31921e-06
3.31968e-06
3.32003e-06
3.32028e-06
3.32043e-06
3.32049e-06
3.32044e-06
3.3203e-06
3.32006e-06
3.31972e-06
3.31927e-06
3.31868e-06
3.31807e-06
3.31744e-06
3.31812e-06
3.31859e-06
3.31908e-06
3.31961e-06
3.32006e-06
3.32041e-06
3.32065e-06
3.3208e-06
3.32085e-06
3.32081e-06
3.32067e-06
3.32044e-06
3.3201e-06
3.31967e-06
3.31911e-06
3.31853e-06
3.31801e-06
3.31865e-06
3.31908e-06
3.31956e-06
3.32006e-06
3.32048e-06
3.32081e-06
3.32103e-06
3.32117e-06
3.32122e-06
3.32118e-06
3.32105e-06
3.32083e-06
3.32052e-06
3.32011e-06
3.31959e-06
3.31903e-06
3.31854e-06
3.31921e-06
3.31961e-06
3.32006e-06
3.32051e-06
3.32091e-06
3.32122e-06
3.32143e-06
3.32156e-06
3.3216e-06
3.32157e-06
3.32145e-06
3.32124e-06
3.32095e-06
3.32056e-06
3.32008e-06
3.31955e-06
3.3191e-06
3.31968e-06
3.32006e-06
3.32048e-06
3.32091e-06
3.32129e-06
3.32157e-06
3.32177e-06
3.32189e-06
3.32194e-06
3.3219e-06
3.32179e-06
3.3216e-06
3.32132e-06
3.32096e-06
3.3205e-06
3.32e-06
3.31957e-06
3.32003e-06
3.32041e-06
3.32081e-06
3.32121e-06
3.32157e-06
3.32184e-06
3.32203e-06
3.32215e-06
3.32219e-06
3.32216e-06
3.32205e-06
3.32187e-06
3.3216e-06
3.32126e-06
3.32082e-06
3.32035e-06
3.31993e-06
3.32028e-06
3.32065e-06
3.32103e-06
3.32143e-06
3.32177e-06
3.32203e-06
3.32222e-06
3.32233e-06
3.32237e-06
3.32233e-06
3.32223e-06
3.32205e-06
3.3218e-06
3.32147e-06
3.32105e-06
3.32059e-06
3.32018e-06
3.32043e-06
3.3208e-06
3.32117e-06
3.32156e-06
3.32189e-06
3.32215e-06
3.32233e-06
3.32243e-06
3.32247e-06
3.32244e-06
3.32234e-06
3.32217e-06
3.32192e-06
3.3216e-06
3.32119e-06
3.32074e-06
3.32033e-06
3.32049e-06
3.32085e-06
3.32122e-06
3.3216e-06
3.32194e-06
3.32219e-06
3.32237e-06
3.32247e-06
3.32251e-06
3.32248e-06
3.32238e-06
3.32221e-06
3.32197e-06
3.32164e-06
3.32124e-06
3.32079e-06
3.32038e-06
3.32044e-06
3.32081e-06
3.32118e-06
3.32157e-06
3.3219e-06
3.32216e-06
3.32233e-06
3.32244e-06
3.32248e-06
3.32245e-06
3.32235e-06
3.32218e-06
3.32193e-06
3.32161e-06
3.3212e-06
3.32075e-06
3.32034e-06
3.3203e-06
3.32067e-06
3.32105e-06
3.32145e-06
3.32179e-06
3.32205e-06
3.32223e-06
3.32234e-06
3.32238e-06
3.32235e-06
3.32224e-06
3.32207e-06
3.32182e-06
3.32149e-06
3.32107e-06
3.32061e-06
3.3202e-06
3.32006e-06
3.32044e-06
3.32083e-06
3.32124e-06
3.3216e-06
3.32187e-06
3.32206e-06
3.32217e-06
3.32221e-06
3.32218e-06
3.32207e-06
3.32189e-06
3.32163e-06
3.32129e-06
3.32085e-06
3.32038e-06
3.31996e-06
3.31972e-06
3.3201e-06
3.32052e-06
3.32095e-06
3.32132e-06
3.32161e-06
3.3218e-06
3.32192e-06
3.32197e-06
3.32193e-06
3.32182e-06
3.32163e-06
3.32136e-06
3.321e-06
3.32054e-06
3.32005e-06
3.31961e-06
3.31927e-06
3.31967e-06
3.32011e-06
3.32056e-06
3.32096e-06
3.32126e-06
3.32147e-06
3.3216e-06
3.32164e-06
3.32161e-06
3.32149e-06
3.32129e-06
3.321e-06
3.32061e-06
3.32013e-06
3.31961e-06
3.31916e-06
3.31868e-06
3.31911e-06
3.31959e-06
3.32008e-06
3.3205e-06
3.32083e-06
3.32105e-06
3.32119e-06
3.32124e-06
3.3212e-06
3.32107e-06
3.32085e-06
3.32054e-06
3.32013e-06
3.31962e-06
3.31906e-06
3.31857e-06
3.31807e-06
3.31853e-06
3.31903e-06
3.31955e-06
3.32e-06
3.32035e-06
3.32059e-06
3.32074e-06
3.32079e-06
3.32075e-06
3.32061e-06
3.32038e-06
3.32005e-06
3.31961e-06
3.31906e-06
3.31848e-06
3.31796e-06
3.31744e-06
3.31801e-06
3.31854e-06
3.3191e-06
3.31957e-06
3.31993e-06
3.32018e-06
3.32033e-06
3.32038e-06
3.32034e-06
3.3202e-06
3.31996e-06
3.31961e-06
3.31916e-06
3.31857e-06
3.31796e-06
3.31733e-06
3.27966e-06
3.28015e-06
3.28062e-06
3.28114e-06
3.28157e-06
3.28191e-06
3.28214e-06
3.28228e-06
3.28234e-06
3.28229e-06
3.28216e-06
3.28194e-06
3.28161e-06
3.28119e-06
3.28065e-06
3.2801e-06
3.27954e-06
3.28015e-06
3.28057e-06
3.28102e-06
3.2815e-06
3.28192e-06
3.28225e-06
3.28249e-06
3.28263e-06
3.28268e-06
3.28264e-06
3.2825e-06
3.28228e-06
3.28196e-06
3.28155e-06
3.28104e-06
3.28052e-06
3.28004e-06
3.28062e-06
3.28102e-06
3.28146e-06
3.28191e-06
3.28232e-06
3.28263e-06
3.28285e-06
3.28299e-06
3.28303e-06
3.283e-06
3.28287e-06
3.28266e-06
3.28236e-06
3.28197e-06
3.28148e-06
3.28096e-06
3.28052e-06
3.28114e-06
3.2815e-06
3.28191e-06
3.28235e-06
3.28273e-06
3.28303e-06
3.28324e-06
3.28336e-06
3.28341e-06
3.28337e-06
3.28325e-06
3.28305e-06
3.28277e-06
3.28239e-06
3.28193e-06
3.28144e-06
3.28103e-06
3.28157e-06
3.28192e-06
3.28232e-06
3.28273e-06
3.28309e-06
3.28337e-06
3.28357e-06
3.2837e-06
3.28374e-06
3.28371e-06
3.28359e-06
3.2834e-06
3.28313e-06
3.28277e-06
3.28234e-06
3.28187e-06
3.28147e-06
3.28191e-06
3.28225e-06
3.28263e-06
3.28303e-06
3.28337e-06
3.28365e-06
3.28384e-06
3.28395e-06
3.284e-06
3.28396e-06
3.28385e-06
3.28367e-06
3.28341e-06
3.28307e-06
3.28265e-06
3.28219e-06
3.2818e-06
3.28214e-06
3.28249e-06
3.28285e-06
3.28324e-06
3.28357e-06
3.28384e-06
3.28402e-06
3.28414e-06
3.28418e-06
3.28414e-06
3.28404e-06
3.28386e-06
3.28361e-06
3.28328e-06
3.28287e-06
3.28243e-06
3.28204e-06
3.28228e-06
3.28263e-06
3.28299e-06
3.28336e-06
3.2837e-06
3.28395e-06
3.28414e-06
3.28425e-06
3.28429e-06
3.28425e-06
3.28415e-06
3.28398e-06
3.28373e-06
3.2834e-06
3.283e-06
3.28257e-06
3.28218e-06
3.28234e-06
3.28268e-06
3.28303e-06
3.28341e-06
3.28374e-06
3.284e-06
3.28418e-06
3.28429e-06
3.28433e-06
3.28429e-06
3.28419e-06
3.28402e-06
3.28377e-06
3.28345e-06
3.28305e-06
3.28262e-06
3.28223e-06
3.2823e-06
3.28264e-06
3.283e-06
3.28337e-06
3.28371e-06
3.28396e-06
3.28414e-06
3.28426e-06
3.28429e-06
3.28426e-06
3.28416e-06
3.28399e-06
3.28374e-06
3.28341e-06
3.28301e-06
3.28258e-06
3.28219e-06
3.28216e-06
3.28251e-06
3.28287e-06
3.28325e-06
3.28359e-06
3.28385e-06
3.28404e-06
3.28415e-06
3.28419e-06
3.28416e-06
3.28406e-06
3.28388e-06
3.28363e-06
3.2833e-06
3.28289e-06
3.28245e-06
3.28206e-06
3.28194e-06
3.28228e-06
3.28266e-06
3.28305e-06
3.2834e-06
3.28367e-06
3.28386e-06
3.28398e-06
3.28402e-06
3.28399e-06
3.28388e-06
3.2837e-06
3.28344e-06
3.2831e-06
3.28268e-06
3.28222e-06
3.28183e-06
3.28161e-06
3.28197e-06
3.28236e-06
3.28277e-06
3.28313e-06
3.28341e-06
3.28361e-06
3.28373e-06
3.28377e-06
3.28374e-06
3.28363e-06
3.28344e-06
3.28317e-06
3.28281e-06
3.28238e-06
3.28191e-06
3.28151e-06
3.2812e-06
3.28156e-06
3.28197e-06
3.2824e-06
3.28278e-06
3.28307e-06
3.28328e-06
3.28341e-06
3.28345e-06
3.28342e-06
3.2833e-06
3.2831e-06
3.28281e-06
3.28244e-06
3.28199e-06
3.2815e-06
3.28109e-06
3.28065e-06
3.28104e-06
3.28148e-06
3.28194e-06
3.28234e-06
3.28265e-06
3.28287e-06
3.283e-06
3.28305e-06
3.28301e-06
3.28289e-06
3.28268e-06
3.28238e-06
3.28199e-06
3.2815e-06
3.28099e-06
3.28054e-06
3.28011e-06
3.28052e-06
3.28096e-06
3.28145e-06
3.28187e-06
3.2822e-06
3.28243e-06
3.28257e-06
3.28262e-06
3.28258e-06
3.28245e-06
3.28223e-06
3.28191e-06
3.2815e-06
3.28099e-06
3.28046e-06
3.28e-06
3.27955e-06
3.28005e-06
3.28052e-06
3.28103e-06
3.28147e-06
3.2818e-06
3.28204e-06
3.28218e-06
3.28224e-06
3.28219e-06
3.28206e-06
3.28183e-06
3.28151e-06
3.28109e-06
3.28054e-06
3.28e-06
3.27944e-06
3.24257e-06
3.24298e-06
3.24337e-06
3.24381e-06
3.24419e-06
3.24449e-06
3.2447e-06
3.24482e-06
3.24487e-06
3.24483e-06
3.24471e-06
3.24451e-06
3.24423e-06
3.24386e-06
3.24339e-06
3.24293e-06
3.24247e-06
3.24298e-06
3.24332e-06
3.2437e-06
3.24412e-06
3.24449e-06
3.24478e-06
3.24499e-06
3.24512e-06
3.24517e-06
3.24513e-06
3.24501e-06
3.24481e-06
3.24453e-06
3.24417e-06
3.24372e-06
3.24327e-06
3.24288e-06
3.24337e-06
3.2437e-06
3.24408e-06
3.24448e-06
3.24483e-06
3.24511e-06
3.24532e-06
3.24544e-06
3.24548e-06
3.24545e-06
3.24533e-06
3.24514e-06
3.24487e-06
3.24452e-06
3.2441e-06
3.24365e-06
3.24327e-06
3.24381e-06
3.24412e-06
3.24448e-06
3.24486e-06
3.2452e-06
3.24547e-06
3.24566e-06
3.24578e-06
3.24582e-06
3.24579e-06
3.24568e-06
3.2455e-06
3.24524e-06
3.2449e-06
3.24449e-06
3.24407e-06
3.24371e-06
3.24419e-06
3.24449e-06
3.24483e-06
3.2452e-06
3.24553e-06
3.24579e-06
3.24597e-06
3.24608e-06
3.24612e-06
3.24609e-06
3.24599e-06
3.24581e-06
3.24556e-06
3.24524e-06
3.24485e-06
3.24444e-06
3.24409e-06
3.24449e-06
3.24478e-06
3.24511e-06
3.24547e-06
3.24579e-06
3.24603e-06
3.24621e-06
3.24632e-06
3.24636e-06
3.24633e-06
3.24623e-06
3.24606e-06
3.24582e-06
3.24551e-06
3.24513e-06
3.24473e-06
3.24439e-06
3.2447e-06
3.24499e-06
3.24532e-06
3.24566e-06
3.24597e-06
3.24621e-06
3.24638e-06
3.24649e-06
3.24653e-06
3.2465e-06
3.2464e-06
3.24624e-06
3.246e-06
3.2457e-06
3.24533e-06
3.24494e-06
3.2446e-06
3.24482e-06
3.24512e-06
3.24544e-06
3.24578e-06
3.24608e-06
3.24632e-06
3.24649e-06
3.24659e-06
3.24663e-06
3.2466e-06
3.24651e-06
3.24634e-06
3.24611e-06
3.24582e-06
3.24545e-06
3.24507e-06
3.24473e-06
3.24487e-06
3.24517e-06
3.24548e-06
3.24582e-06
3.24612e-06
3.24636e-06
3.24653e-06
3.24663e-06
3.24667e-06
3.24664e-06
3.24654e-06
3.24638e-06
3.24616e-06
3.24586e-06
3.2455e-06
3.24511e-06
3.24478e-06