/*--------------------------------*- C++ -*----------------------------------*\
  =========                 |
  \\      /  F ield         | OpenFOAM: The Open Source CFD Toolbox
   \\    /   O peration     | Website:  https://openfoam.org
    \\  /    A nd           | Version:  6
     \\/     M anipulation  |
\*---------------------------------------------------------------------------*/
FoamFile
{
    version     2.0;
    format      ascii;
    class       volScalarField;
    location    "0";
    object      P_rec;
}
// * * * * * * * * * * * * * * * * * * * * * * * * * * * * * * * * * * * * * //

dimensions      [0 2 -2 0 0 0 0];

internalField   nonuniform List<scalar> 
918
(
0.606005
0.27043
0.12207
0.630895
-0.0023722
0.147991
-0.775466
0.541466
0.638669
-0.139805
0.0350444
0.492722
-0.0273801
-0.0204285
-1.17895
0.0229737
0.609553
-0.736929
0.450415
0.0272357
-0.143169
0.634233
0.558421
0.444925
0.538353
-0.112103
0.070544
-0.040256
-0.0628182
-0.0474631
-0.00193521
0.0557998
0.0104398
0.12429
0.120174
0.168782
0.459061
0.222916
-0.642601
-0.691241
-0.68607
-0.860961
0.553082
0.567822
-0.253506
0.519282
0.491164
0.46006
0.614728
0.642118
0.564242
0.616565
0.64814
0.253395
-0.192354
-0.261269
-0.09016
-0.0871996
0.073523
0.0293303
0.0158341
0.0669309
0.053472
0.408852
0.483663
0.479475
0.504839
0.502866
0.232581
0.192451
0.242658
-0.031787
0.118955
-0.0492292
0.0768168
-0.0160309
0.0221726
-0.03758
-0.0551044
-1.43673
-2.18614
-0.715027
-0.590421
0.00534419
0.0243286
0.0333185
0.599854
0.601536
0.595836
0.60562
0.713401
-0.66871
-0.844688
0.484265
0.484517
0.622087
0.570248
0.50626
0.432294
0.0243133
0.0207371
0.0130944
0.0443024
0.0351947
0.0787623
0.211103
0.422908
0.459347
0.502541
0.528988
0.516336
0.242423
0.577805
0.574405
-0.117727
0.0410198
-0.107743
-0.0208836
0.0833984
0.0514408
0.154186
0.190847
-0.0677689
-0.0119097
0.0412433
0.00326987
0.0307498
0.457744
0.447572
0.473094
0.46198
0.467133
0.125014
0.0317996
0.29426
0.328702
-0.513706
-0.550564
-0.760538
-0.776161
-0.89179
0.509184
0.573013
0.588775
-0.368655
-0.230535
-0.401246
-0.142327
-0.186899
0.464606
0.456122
0.45684
0.464615
0.468554
0.469462
0.623861
0.615966
0.655955
0.264654
0.345737
0.239123
0.196199
-0.480026
-0.36016
-0.461326
-0.0565086
-0.0135094
0.0612966
0.0965296
0.110592
0.0803668
-0.00860315
0.0128523
-0.000674312
0.0218256
0.0216002
0.41253
0.396757
0.41051
0.420317
0.476653
0.475418
0.481768
0.48367
0.165507
0.152836
0.106122
0.082158
-2.97327
-5.12223
-0.404849
-0.318875
-0.00316354
-0.0153219
-0.00570846
-0.0917528
-0.0174617
-0.0464587
0.0704061
0.0412679
0.0358448
0.0556234
0.598159
0.611863
0.703736
0.726554
0.634424
0.629834
0.482382
0.492765
0.487095
0.489633
0.0349919
0.0217275
0.0371339
0.452837
0.332762
0.391652
0.209154
0.113852
0.289932
0.330361
0.600838
0.584174
0.605737
-0.125566
-0.0410975
0.304715
0.0284331
0.285818
0.0946036
0.0554486
0.105665
0.0179681
0.425525
0.442951
0.439781
0.468536
0.477022
0.476548
0.478853
0.470424
0.47431
-0.128374
-0.420514
0.430667
0.424757
0.366762
0.412262
0.571337
0.619094
0.596314
0.584006
0.594129
-0.0392461
-0.0750177
0.146258
0.136161
0.360561
0.375859
0.365997
0.0795088
0.0396945
0.0774266
0.0645586
0.0414643
0.0930625
-0.395484
-1.74388
-0.991094
-0.142147
-0.215374
-0.192163
0.0381725
0.107144
0.0721843
0.693743
0.744562
0.3957
0.55829
0.510309
-0.168392
-0.0828134
0.0262403
-0.101886
-0.0482272
0.033973
-0.0146397
0.434273
0.405524
0.428205
0.635014
0.695474
0.0762644
0.012237
-0.0280432
0.119097
0.109348
0.109926
0.730317
0.693073
0.72652
0.432742
0.41922
-0.0645793
-0.00469585
0.540855
0.570416
-0.0682893
-0.0295664
-0.119622
-0.754893
0.0735011
0.48747
0.442693
0.502536
-0.193981
0.157136
0.00234804
0.015378
-0.0385532
0.462557
0.387754
0.356818
-0.06685
0.00622164
-0.0047917
-0.446725
0.497308
0.479874
0.486316
0.498919
0.512813
-0.00689476
-0.0157915
0.0321565
-0.0372686
0.0467617
0.0435318
0.468264
0.457378
-0.43415
0.480064
0.506616
0.504664
0.519829
0.520845
0.507159
-0.0156865
0.034043
0.0407175
0.177176
0.28259
-0.0352446
-0.114488
0.00407524
-0.129642
-0.311617
-0.0636133
-0.0636093
-0.0613119
-0.06135
0.559462
0.521177
0.162517
-0.0269846
0.145177
0.111923
0.483722
0.503022
0.474102
0.48712
0.507024
0.451391
0.523205
0.488315
0.484213
0.532193
-0.145668
-0.0576624
-0.143271
-0.270778
0.230499
0.342387
0.137131
0.214459
0.084869
-0.0146746
0.0482459
-0.0236286
0.00284757
-0.00632018
0.104892
0.0340127
0.140208
0.0198223
0.114191
-0.0469753
0.146533
-0.00807717
0.444971
0.466485
0.463403
0.50726
0.421936
0.442233
0.419895
0.416966
0.438491
0.367733
0.386486
0.387088
0.0150051
0.0151306
0.0487802
0.0218617
0.0474805
-0.0304001
-0.025736
-0.0254786
-0.00382593
-0.0510304
-0.0118043
-0.00295102
-0.365495
-0.527928
0.621747
0.530305
-0.0333502
0.452926
0.501667
0.472765
0.51469
0.524794
0.559703
0.521345
0.49736
0.464477
0.48188
0.46309
0.483155
-0.346358
-0.416314
-0.269993
-0.314164
0.14265
0.580712
0.336691
0.283029
0.27558
0.440402
0.38523
0.107979
-0.238186
-0.373681
-0.495738
-0.375586
-0.524714
-0.0664399
-0.00797204
-0.118375
-0.0437948
0.0350005
-0.0278504
-0.0348884
-0.0947316
0.465538
-0.156797
-0.137179
0.0940743
0.00624274
0.238371
0.559354
0.56937
0.498219
0.472712
0.545094
0.516893
0.516566
0.547381
0.553403
0.46065
0.224473
0.21437
0.14648
0.569803
0.483439
0.51855
0.400981
0.506429
0.511017
0.487982
0.477038
0.517995
0.477101
0.471683
0.447244
0.439343
0.482634
0.486407
0.45339
-0.0183721
-0.0285826
-0.152246
-0.35723
-0.222946
-0.316938
-0.199632
-0.117711
-0.187462
-0.0542784
0.181383
-0.134282
-0.298871
-0.162524
-0.260105
-0.0148409
-0.0911255
0.105447
0.118629
0.100717
0.121407
0.172028
0.146756
0.0306721
0.0364622
0.0735924
-0.0086961
0.127343
0.0812191
0.151366
0.0617778
0.119386
0.072234
0.0303209
-0.0228854
0.0947788
0.0360325
-0.0189396
0.0314528
0.0175042
-0.0783911
-0.0762871
0.189334
0.051563
0.490855
0.472253
0.474497
0.493986
0.529764
0.520376
0.463292
0.466564
0.49761
0.464373
0.432987
0.41333
0.401594
0.436438
0.447844
0.443664
0.487828
0.478214
0.449205
0.471391
0.41476
0.43515
0.385217
0.407435
0.437256
-0.104809
0.0270707
-0.0373219
-0.0451033
0.0146621
0.056905
0.119455
0.0320837
0.125139
0.0958606
0.0626126
0.0354403
0.0635135
-0.234111
-0.133882
-0.351295
-0.436492
-0.530461
0.59349
0.677266
0.552376
0.39188
0.444005
0.549872
0.657202
0.379164
0.407473
0.507106
0.417041
0.612204
0.485894
0.469852
0.491789
0.515307
0.488403
-0.190151
-0.048268
-0.00672378
0.105752
0.207113
0.266667
0.12842
0.0923045
0.182621
0.205376
0.561086
0.582139
0.548402
0.582316
0.577325
0.373497
0.468584
0.496238
0.495096
0.495091
0.517467
0.528173
0.521532
0.447753
0.445939
0.45158
0.410024
0.434269
0.40568
0.406106
0.461741
0.439062
0.439628
0.45258
0.503754
0.478099
0.509723
0.557505
0.533936
0.431775
0.413365
0.439398
0.449232
0.428088
0.426869
0.41982
0.134085
0.156057
0.0833482
-0.0911585
0.0315614
-0.032256
-0.0818813
-0.064501
0.071844
-0.400862
-0.341945
-0.853849
0.343754
0.448198
0.210903
-0.078341
0.451411
0.492878
0.477673
0.369835
0.377877
0.552821
0.574099
0.583489
0.509477
0.50152
0.523395
0.506504
0.462302
0.330552
0.257601
0.307681
0.145685
0.20849
0.363454
0.304704
0.263939
0.297598
0.385467
0.290805
0.316412
0.391854
0.352148
0.346323
0.470542
0.51667
0.535014
0.47498
0.38413
0.447801
0.43261
0.480749
0.52284
0.525462
0.488305
0.468149
0.479143
0.470053
0.45736
0.476432
0.443078
0.493373
0.499351
0.507815
0.501618
-0.0209406
0.00137388
0.0177889
-0.0266628
-0.0984867
-0.14835
-0.163945
-0.161982
0.0605869
0.0283754
-0.0907306
-0.0283685
0.0809102
0.0246344
0.0364713
0.0424763
-0.0382382
-0.0976927
0.102532
0.269925
0.269278
0.208962
0.0740006
0.100813
0.212307
0.0163965
0.127597
0.0756741
0.0312649
0.0249471
0.0208134
0.122111
0.0491519
0.0916732
0.0365404
-0.125645
0.0491668
0.107422
-0.0535632
0.00960231
0.0453499
0.451216
0.456348
0.440246
0.420238
0.427648
0.42531
0.462576
0.491018
0.491597
0.490444
0.498552
0.479098
0.485303
0.0146793
0.145346
0.177201
0.101333
0.0531009
-0.0057882
-0.0257557
0.105891
-0.0493813
0.00152081
-0.151945
-0.266726
-0.20486
0.338005
0.375869
0.367859
0.570939
0.42921
0.332693
0.429741
0.556497
0.267314
0.354037
0.242042
0.599945
0.545625
0.644894
0.415372
0.0503334
0.139882
0.288943
0.00700082
0.011276
0.134109
0.150628
0.153981
0.142598
0.221345
0.200469
0.172374
0.0651004
0.100162
0.253164
0.234442
0.313703
0.366522
0.0693284
0.0957659
0.0382204
0.536798
0.56254
0.584882
0.55708
0.577628
0.518465
0.514803
0.548768
0.577323
0.565741
-0.712315
-0.458688
-1.26856
-0.563354
-0.27499
0.454874
0.174434
0.835923
0.655476
0.516349
0.534679
0.534562
0.493399
0.552769
0.553146
0.298857
0.393627
0.33322
0.37459
0.284439
0.21088
0.517051
0.502647
0.530336
0.549651
0.505578
0.54861
0.403685
0.44888
0.429698
0.466577
0.492597
0.513856
0.0475028
-0.0146562
-0.00478522
-0.0206363
-0.0307969
-0.0470919
-0.0480853
-0.0131661
0.188087
0.121808
0.0566396
0.117733
0.0103081
0.00484053
-0.104879
-0.025328
-0.124241
-0.255951
-0.23685
-0.201319
-0.108071
-0.0292719
0.342573
0.486472
0.397251
0.524042
0.362329
0.503623
0.364534
0.370973
0.394903
0.293559
0.335943
0.00766922
-0.302223
-0.191161
0.924859
1.0112
0.631278
0.364401
0.12624
0.454855
0.486923
0.415944
0.434014
0.51949
0.477809
-0.0990535
-0.00169503
-0.0720655
-0.0152282
0.142024
0.0735101
0.0787365
0.0678515
0.0773151
)
;

boundaryField
{
    wall-4
    {
        type            calculated;
        value           nonuniform List<scalar> 
100
(
0.606005
0.27043
0.12207
0.630895
0.147991
-0.775466
0.541466
-0.139805
0.0350444
0.492722
-0.0273801
-0.0204285
-1.17895
0.609553
-0.736929
0.450415
0.0272357
-0.143169
0.444925
0.538353
-0.112103
0.070544
-0.040256
0.12429
0.459061
-0.691241
-0.860961
0.567822
-0.253506
0.491164
0.46006
-0.261269
-0.0871996
0.0158341
0.053472
0.408852
0.479475
0.502866
0.118955
0.0768168
0.0221726
-0.0551044
-2.18614
-0.590421
0.601536
0.60562
-0.844688
0.484517
0.432294
0.0207371
0.0351947
0.211103
0.459347
0.516336
0.242423
0.574405
-0.117727
-0.0208836
0.0514408
0.190847
0.447572
0.473094
0.467133
-0.550564
-0.89179
0.588775
-0.401246
-0.186899
0.45684
0.469462
-0.461326
-0.0135094
-0.000674312
0.0216002
0.396757
0.420317
0.476653
0.48367
0.082158
-0.318875
0.611863
0.482382
0.489633
0.0371339
0.391652
0.113852
0.330361
0.605737
-0.0410975
0.0946036
0.439781
0.476548
0.47431
0.594129
-0.0750177
0.365997
0.0645586
-0.192163
-0.0482272
-0.0280432
)
;
    }
    velocity-inlet-5
    {
        type            calculated;
        value           nonuniform List<scalar> 8(0.606005 0.630895 0.638669 0.634233 0.642118 0.64814 0.622087 0.655955);
    }
    velocity-inlet-6
    {
        type            calculated;
        value           nonuniform List<scalar> 4(0.27043 0.147991 0.168782 0.242658);
    }
    pressure-outlet-7
    {
        type            calculated;
        value           uniform 0;
    }
    wall-8
    {
        type            calculated;
        value           nonuniform List<scalar> 
34
(
-0.0023722
0.0229737
0.0104398
0.222916
0.253395
0.073523
0.0333185
0.713401
0.0307498
0.0317996
0.328702
0.509184
0.345737
0.196199
0.0965296
0.0803668
-5.12223
0.0704061
0.0556234
0.726554
0.629834
-0.420514
0.430667
0.412262
0.619094
0.136161
-0.991094
0.0721843
0.744562
0.510309
0.428205
0.695474
0.109926
0.72652
)
;
    }
    frontAndBackPlanes
    {
        type            empty;
    }
}

