/*--------------------------------*- C++ -*----------------------------------*\
  =========                 |
  \\      /  F ield         | OpenFOAM: The Open Source CFD Toolbox
   \\    /   O peration     | Website:  https://openfoam.org
    \\  /    A nd           | Version:  6
     \\/     M anipulation  |
\*---------------------------------------------------------------------------*/
FoamFile
{
    version     2.0;
    format      ascii;
    class       volVectorField;
    location    "0";
    object      U;
}
// * * * * * * * * * * * * * * * * * * * * * * * * * * * * * * * * * * * * * //

dimensions      [0 1 -1 0 0 0 0];

internalField   nonuniform List<vector> 
918
(
(0.98576 0.00390836 0)
(-0.00401423 2.9674 0)
(-0.000174925 1.63175 0)
(0.980767 -0.00208037 0)
(-0.00564331 1.59006 -2.20977e-22)
(0.00136165 2.95101 -1.3694e-18)
(0.850996 1.1621 5.02257e-19)
(0.481344 0.212257 -5.51386e-21)
(0.999908 -0.000339729 0)
(0.0138183 1.04152 0)
(-0.00132604 1.30793 0)
(0.809119 -0.00738331 0)
(0.00898539 2.93465 0)
(0.00412828 2.79721 0)
(-0.000313723 3.20071 8.03008e-19)
(-0.0084974 1.50088 -9.94332e-21)
(0.584975 0.0856017 3.4091e-19)
(0.183943 1.1297 4.51437e-19)
(0.96611 0.00396229 0)
(-0.000401681 1.45217 0)
(0.207684 0.261523 -2.95277e-19)
(1.00161 -0.00528833 0)
(1.00162 -0.00837007 0)
(0.977363 -0.00498864 0)
(0.732634 -0.01479 0)
(0.0304366 2.63731 0)
(-0.010645 2.91554 4.5536e-19)
(-0.0136351 1.65877 0)
(-0.0138609 1.76163 0)
(-0.0159638 1.6554 0)
(-0.00324406 1.81519 0)
(0.00203581 1.60536 1.72971e-22)
(-0.009606 1.51036 0)
(-0.019756 2.98961 -4.79318e-23)
(-0.0137454 3.00794 1.07777e-18)
(0.00163264 2.9997 0)
(0.872621 -0.00645489 0)
(0.361546 0.9059 -3.08696e-20)
(0.858018 1.17691 -7.26723e-19)
(0.98636 1.05144 6.73752e-19)
(0.715645 1.25841 -1.16251e-19)
(0.733866 1.22318 6.68973e-19)
(0.514383 0.293847 5.37799e-21)
(0.512256 0.188111 0)
(1.19648 0.545704 0)
(0.47707 0.315755 2.5279e-20)
(0.428544 0.214886 -2.62421e-20)
(0.924603 -0.00466278 0)
(1.00029 -0.000174314 0)
(0.999894 0.000299601 0)
(1.00331 -0.0072783 0)
(1.00082 -0.00115107 0)
(1.00012 -8.68414e-05 0)
(0.0736271 1.57209 -2.98081e-19)
(-0.0162272 1.12037 0)
(0.0398481 0.940279 0)
(-0.0333073 1.23302 0)
(-0.00633436 1.14853 0)
(-0.0100949 1.57384 0)
(-0.00398954 1.48835 0)
(0.00142314 1.31224 0)
(-0.0149954 1.51191 0)
(-0.00986059 1.3237 0)
(0.886803 0.000729919 0)
(0.893265 0.0108101 0)
(0.823011 0.00010159 0)
(0.884573 0.0162629 0)
(0.790999 -0.00776637 0)
(0.0136997 3.00361 4.93449e-19)
(0.0115132 3.00453 0)
(0.0073583 3.00383 0)
(0.0106938 2.9982 5.50778e-24)
(0.00616807 2.96193 -7.425e-19)
(0.0118026 2.98439 0)
(0.00838681 2.90896 0)
(0.022059 2.93289 9.92937e-25)
(0.00444559 2.82725 0)
(0.0269329 2.91935 0)
(-0.00114827 2.74691 0)
(0.312566 3.6066 0)
(-0.128074 3.68851 0)
(0.15177 3.29222 -7.44129e-19)
(0.00605864 3.02215 0)
(-0.0115967 1.79548 0)
(-0.00501462 1.63804 9.80719e-21)
(-0.00924133 1.52045 -1.56619e-20)
(0.644852 0.156997 -1.17504e-19)
(0.60645 0.0544169 -1.13084e-19)
(0.609799 0.187323 -3.5226e-19)
(0.554214 0.119927 -2.36316e-19)
(0.283145 1.00523 0)
(0.248616 1.22867 -4.34394e-19)
(0.337788 1.21687 7.13994e-19)
(0.989478 0.00726417 0)
(0.946169 0.00707762 0)
(0.999811 0.000819861 0)
(1.00373 0.00765606 0)
(1.00331 0.00873821 -5.87556e-19)
(0.992844 0.00726246 4.49923e-19)
(-0.0148964 1.57178 0)
(-0.00851781 1.43478 0)
(-0.0163466 1.66505 0)
(-0.0167261 1.60689 0)
(0.000809979 1.4771 0)
(0.235435 0.288702 9.07624e-20)
(0.291982 0.2611 0)
(0.99456 -0.00604543 0)
(0.955726 -0.00548945 0)
(0.859873 0.0185411 0)
(0.825768 0.0375694 0)
(0.769228 -0.00833016 0)
(1.02564 -0.00492689 0)
(0.779361 0.0482821 0)
(0.653653 -0.0166043 4.3856e-19)
(-0.0346354 2.8681 2.57312e-19)
(0.0356944 2.91392 0)
(0.0450103 2.89011 0)
(0.0057011 2.70046 0)
(-0.00823594 2.9877 4.23208e-19)
(-0.0125378 2.89879 0)
(-0.00981998 2.99269 -1.33046e-18)
(-0.00936317 2.9325 4.5809e-19)
(-0.00978215 1.81276 0)
(-0.00850846 1.80774 0)
(0.000808673 1.63624 -1.8297e-22)
(-0.000757992 1.60809 0)
(-0.0100843 1.50247 0)
(0.933334 -0.00375546 0)
(0.863911 -0.00555059 0)
(0.87108 0.0120725 0)
(0.945882 -0.00265842 0)
(0.892279 -0.00526993 0)
(0.490913 1.1057 3.10985e-20)
(0.538741 1.18325 0)
(0.320327 0.82666 1.56783e-21)
(0.261754 0.694264 0)
(0.968665 1.06848 -1.97486e-19)
(1.08284 0.880428 4.0018e-19)
(0.45091 1.29221 0)
(0.601707 1.31323 0)
(0.573714 1.2321 0)
(0.118926 0.104389 -6.26008e-20)
(0.543012 0.259277 0)
(0.524384 0.15996 6.84772e-20)
(1.04522 0.926244 0)
(1.11653 0.767467 0)
(1.14805 0.702909 -3.50701e-19)
(1.175 0.607843 0)
(1.23201 0.39273 3.34357e-20)
(0.956862 -0.00450932 0)
(0.963461 -0.00468065 0)
(0.90682 -0.00408423 0)
(0.985049 -0.00693155 0)
(0.976868 -0.00596454 0)
(0.939416 -0.00472364 0)
(0.999782 0.00232479 0)
(1.0009 0.00113603 0)
(0.999998 0.000668689 0)
(0.0672433 1.77361 1.68829e-19)
(0.102593 1.5252 0)
(0.033502 1.77868 2.43507e-19)
(0.037902 1.59325 -2.08409e-19)
(0.107514 1.12933 -3.72803e-19)
(0.0235656 1.06235 0)
(0.156175 0.954784 0)
(-0.0139674 1.34885 0)
(0.0099161 1.22834 0)
(-0.0126445 1.70967 -6.63969e-22)
(-0.00690753 1.60436 0)
(-0.0103933 1.687 -3.16414e-20)
(-0.00679092 1.55677 6.06627e-20)
(-0.0141841 1.42109 0)
(-0.00725468 1.46413 0)
(-0.00258901 1.27071 0)
(-0.0177552 1.53156 0)
(-0.0123598 1.35434 0)
(0.962717 0.0161075 0)
(0.908883 0.00625459 0)
(0.944574 0.0104819 0)
(0.875889 0.00234582 0)
(0.826465 -0.00438749 0)
(0.914188 0.00165379 0)
(0.905284 0.00596352 0)
(0.824449 -0.00535007 0)
(0.00894169 3.06499 -4.1945e-21)
(0.0134328 3.05743 0)
(0.0122066 2.97252 0)
(0.00744921 2.88103 0)
(0.914054 4.0148 0)
(1.21836 3.39212 7.59548e-19)
(0.0812528 3.10478 0)
(-0.0137869 2.92743 0)
(-0.0119369 1.79406 0)
(-0.0124228 1.79325 0)
(-0.0121545 1.7934 0)
(-0.00586093 1.80433 2.46639e-21)
(-0.0106974 1.80114 0)
(-0.00720679 1.79869 0)
(-0.000517795 1.53726 8.89417e-22)
(-0.00250035 1.66745 1.81209e-20)
(-0.00536381 1.65588 1.60025e-20)
(-0.00497401 1.52732 0)
(0.672857 0.112105 1.73059e-19)
(0.614999 0.0209593 -1.69034e-19)
(0.17782 1.45779 0)
(0.337323 0.764395 -1.46815e-19)
(0.108353 1.53598 -5.16164e-19)
(0.234724 1.21482 5.13668e-19)
(0.909722 0.0104362 0)
(0.969107 0.0107349 0)
(0.976306 0.0106697 0)
(0.928209 0.00831648 0)
(-0.0201249 1.54564 0)
(-0.0197996 1.55692 0)
(-0.0113062 1.39391 0)
(0.439763 0.323627 2.2992e-19)
(0.370382 0.298655 -2.80923e-19)
(0.387111 0.243827 0)
(1.14269 0.0861665 -5.31767e-21)
(1.13083 0.0416313 0)
(1.05865 0.0352159 0)
(0.972619 0.00785415 0)
(0.675501 0.0743696 0)
(0.706098 0.0396496 -7.14558e-19)
(0.612742 -0.00791045 2.79494e-19)
(0.0111144 2.98175 3.17135e-19)
(-0.0280197 2.86733 3.23736e-20)
(0.00677722 3.04996 -9.0587e-21)
(0.0156098 3.04122 3.45206e-19)
(-0.009523 3.00008 1.5282e-20)
(-0.00879504 2.9541 -6.24135e-23)
(-0.0151256 3.01275 -2.92649e-19)
(0.0128172 3.02353 2.07278e-19)
(0.00614368 3.03213 -3.32215e-19)
(0.940585 0.00829188 0)
(0.936949 0.00257004 0)
(0.863024 -5.85638e-05 0)
(0.958735 0.0122349 0)
(0.947801 0.0133048 0)
(0.892533 0.00844044 0)
(0.920808 0.00533066 0)
(0.931676 0.0145201 0)
(0.842772 0.00444359 0)
(0.682172 1.42098 2.18312e-19)
(0.705381 1.53559 0)
(0.186739 0.374931 1.13092e-20)
(0.159047 0.509976 8.93791e-20)
(0.224647 0.637356 -5.33721e-20)
(0.190517 0.529709 9.72855e-20)
(0.290474 0.661323 3.88161e-19)
(0.136415 0.144233 1.36688e-19)
(0.586611 0.217291 2.54089e-19)
(0.566248 0.241491 6.22958e-20)
(0.546908 0.147088 1.26131e-19)
(1.22101 0.452676 2.30491e-19)
(1.23961 0.248882 2.39626e-19)
(0.019819 1.76729 9.94314e-20)
(0.0276232 1.60977 0)
(1.00996 0.0294801 0)
(0.978327 0.0203743 0)
(0.933383 0.00123175 0)
(0.0112301 3.07264 0)
(0.0173833 2.94616 5.80416e-19)
(0.0140267 2.95904 0)
(0.00606167 2.85396 -5.77173e-19)
(0.00867635 3.08927 1.36781e-19)
(0.0102894 3.08049 0)
(0.725771 1.83134 -1.70963e-19)
(1.26244 2.62553 5.66916e-19)
(0.707236 2.00341 -1.1418e-18)
(0.0230091 2.98403 -2.38609e-19)
(0.041821 3.00999 0)
(-0.0324419 2.88642 0)
(0.000498136 1.65747 -2.22047e-21)
(0.000669567 1.66578 -4.17802e-20)
(0.00284176 1.5394 -4.26937e-21)
(0.238224 1.30298 4.53047e-19)
(0.319368 0.474871 -3.10604e-19)
(0.0628035 1.71089 3.42511e-19)
(0.100956 1.64644 -4.20813e-19)
(0.147462 1.3956 5.32567e-20)
(0.00881354 3.11669 -7.41983e-19)
(0.014939 3.11801 8.34077e-19)
(-0.00462551 2.98162 3.76912e-19)
(-0.000683379 2.97762 -3.41677e-19)
(-0.0157243 2.88224 -3.83997e-19)
(0.0118626 3.09585 -1.00188e-18)
(0.0041026 3.1038 1.02174e-18)
(0.177598 0.557883 0)
(0.118815 0.481755 -1.80462e-19)
(0.130054 0.156099 7.93143e-20)
(0.303583 0.776529 3.98657e-19)
(0.207571 0.195555 -6.07933e-19)
(1.22818 0.168951 -5.29586e-20)
(1.23587 0.306432 0)
(1.22167 0.111928 9.69422e-20)
(-0.00459379 1.74482 -8.13099e-22)
(0.010444 1.76198 0)
(0.00689087 1.60255 0)
(0.298538 1.17465 -1.59173e-19)
(0.346453 1.01163 -3.42422e-19)
(0.230503 0.306969 5.7574e-19)
(1.00561 -0.0109894 0)
(1.00676 -0.00712208 1.08376e-19)
(-0.00966254 1.80153 0)
(-0.0174003 1.81052 0)
(1.00165 0.00322291 1.15539e-21)
(1.00299 0.00844273 2.20163e-19)
(-0.00615907 1.80773 -3.26506e-21)
(-0.00475234 1.80651 0)
(0.0466959 3.18027 1.15632e-19)
(0.383592 3.55344 0)
(1.07155 0.681812 5.03077e-20)
(1.01077 0.0111526 -1.37618e-21)
(1.01838 -0.0132833 0)
(1.0016 0.000148279 2.83753e-23)
(-0.203858 1.29519 0)
(-0.126202 2.31784 0)
(-0.041744 1.75797 0)
(-0.0470138 1.89151 4.32772e-20)
(-0.027618 1.84429 2.63573e-20)
(1.00286 0.00968346 1.35102e-21)
(1.04594 0.0154532 0)
(1.07858 0.0293147 0)
(-0.0126603 1.7941 0)
(-0.0132858 1.81765 0)
(-0.0241536 1.79635 0)
(0.289642 1.24722 -3.00452e-19)
(1.00845 -0.00940754 0)
(1.0094 -0.0142865 0)
(1.00226 0.000240782 1.35984e-19)
(1.00539 -0.00536732 -1.62873e-19)
(1.00097 -0.00100843 0)
(-0.0143467 1.79243 0)
(-0.0120738 1.79444 0)
(-0.012116 1.79498 0)
(-0.0206031 1.79833 0)
(-0.0170153 1.79478 0)
(-0.0204474 1.79815 0)
(1.01943 -0.00657418 0)
(1.02137 0.014395 -9.76472e-22)
(0.76438 1.29235 3.66881e-19)
(1.00306 0.000384955 -1.35907e-19)
(1.00328 0.0041901 1.6494e-19)
(1.00137 0.00198239 0)
(1.01123 0.0104021 1.30247e-19)
(1.00752 0.00907716 -1.65986e-19)
(1.00907 0.0124726 0)
(-0.0098314 1.81806 0)
(-0.00635531 1.81388 7.52875e-21)
(-0.00811686 1.81241 -5.16253e-21)
(1.18596 0.261052 -1.06194e-19)
(1.12168 0.0843596 0)
(0.0590371 3.08725 -3.82955e-19)
(0.0524895 2.86579 -2.93801e-20)
(0.121588 3.20425 4.90331e-19)
(0.131619 3.21965 -3.90701e-20)
(0.150205 3.26432 0)
(0.0238669 3.13724 9.31671e-20)
(0.0715162 3.16192 3.76487e-19)
(0.0694696 3.18352 -1.78486e-19)
(0.0302427 3.1255 0)
(0.69561 0.333543 0)
(0.640547 0.402027 0)
(1.06679 0.708542 -1.88736e-19)
(1.03015 0.861772 2.88911e-19)
(1.12713 0.596933 0)
(1.15916 0.550595 0)
(1.01431 0.0107012 -2.45969e-19)
(1.01321 0.0105981 3.05827e-19)
(1.02149 -0.0133119 0)
(1.01628 -0.0194564 0)
(1.00756 0.00222679 0)
(1.00988 0.00269857 0)
(1.00388 0.00296502 0)
(1.00835 0.00744228 0)
(1.0068 0.00519419 0)
(1.00379 0.00487554 0)
(-0.190503 1.3429 0)
(-0.189707 1.38415 0)
(-0.17129 1.24947 0)
(-0.0397132 1.24368 0)
(-0.152361 2.44526 0)
(0.0162735 2.47252 -1.77824e-19)
(-0.115493 2.31918 0)
(-0.0675473 2.18645 7.98902e-20)
(-0.0366646 1.9993 -8.14725e-20)
(-0.0332029 1.76538 0)
(-0.0215941 1.776 0)
(-0.0581986 1.73573 0)
(-0.0496707 1.69608 0)
(-0.0879364 1.84033 -2.22635e-20)
(-0.0422274 1.8582 3.2877e-20)
(-0.0463299 1.88794 4.17794e-20)
(-0.0377289 1.87166 0)
(-0.0177407 1.84465 -6.02386e-20)
(-0.00503019 1.83481 -3.15041e-20)
(-0.0829508 1.83327 1.78934e-20)
(-0.0545994 1.84249 -4.26793e-20)
(-0.0646807 1.8597 -5.37851e-20)
(1.01106 0.0176967 2.40645e-19)
(1.01174 0.00873678 -2.9455e-19)
(1.00546 0.0187226 -2.53308e-19)
(0.994622 0.0152815 3.24412e-19)
(1.04287 0.0220638 0)
(1.03933 0.00802441 0)
(1.06118 0.0386288 0)
(1.05239 0.0239387 0)
(1.05746 0.0144236 0)
(1.10461 0.0748885 0)
(1.08159 0.0536074 0)
(1.09807 0.0419609 0)
(-0.00957212 1.80926 -9.78002e-22)
(-0.0133824 1.79911 0)
(-0.0104451 1.80314 0)
(-0.0125592 1.8208 8.95636e-21)
(-0.0117705 1.82126 -4.32185e-22)
(-0.0171525 1.79402 9.25152e-21)
(-0.0170277 1.79414 -9.34879e-21)
(-0.0208178 1.7967 0)
(-0.0173863 1.79691 0)
(-0.0165194 1.79673 0)
(-0.0255227 1.79627 0)
(-0.0256731 1.79108 0)
(0.456214 1.35639 6.03814e-19)
(0.402403 1.41169 2.22995e-19)
(0.627482 2.45467 -1.03636e-19)
(0.335336 2.58641 2.67624e-19)
(0.588787 2.24361 -1.13719e-19)
(1.01845 -0.00855867 0)
(1.01559 -0.00918185 0)
(1.01765 -0.0124732 0)
(1.00826 -0.000627815 0)
(1.00438 -0.00105285 0)
(1.00686 -0.00420579 0)
(1.01021 -0.00513321 0)
(1.01215 -0.00487495 0)
(1.02081 0.0136463 2.31064e-19)
(1.01175 0.0142871 -2.97693e-19)
(1.02468 0.0118442 -2.32489e-19)
(1.02222 0.0113377 2.9186e-19)
(0.741334 1.31151 0)
(0.654943 1.37313 4.27174e-19)
(0.85484 1.20856 2.53149e-19)
(0.860776 1.20634 -3.35924e-19)
(1.13829 2.63152 -3.89341e-19)
(0.833007 0.117231 1.70952e-19)
(1.12733 0.0955786 0)
(1.16471 0.173849 8.80577e-20)
(1.15103 0.159772 3.87702e-21)
(0.973981 0.128352 0)
(0.107914 3.02664 -5.87748e-20)
(0.108415 2.902 -4.45954e-19)
(0.0503156 2.34485 3.01623e-19)
(0.180105 0.0679903 -1.32261e-19)
(0.353414 3.45627 -3.22874e-19)
(0.202272 3.347 0)
(0.230446 3.40525 4.2038e-19)
(0.243036 3.08501 -1.25991e-19)
(0.277602 3.20545 0)
(0.00812339 3.11933 2.04947e-20)
(0.0202166 3.12833 -2.52769e-19)
(0.0181995 3.12405 3.71334e-19)
(0.0374812 3.13739 0)
(0.0351682 3.1495 0)
(1.25258 2.60451 0)
(0.497571 0.832258 -1.35195e-19)
(0.953781 1.0341 -1.44617e-19)
(0.950018 1.06269 0)
(0.8044 0.954372 4.72562e-20)
(1.02326 0.905439 1.81239e-20)
(0.427535 0.460877 -3.29484e-19)
(0.718516 0.32854 -1.72147e-20)
(0.708883 0.297975 1.32722e-19)
(0.639538 0.423049 1.06713e-20)
(0.58119 0.418413 -4.42925e-19)
(0.697623 0.346152 0)
(0.700231 0.43119 2.2816e-19)
(0.701293 0.428031 0)
(0.683189 0.396782 0)
(0.675098 0.345894 0)
(0.71848 0.616474 6.2044e-20)
(1.18773 0.284897 8.07303e-20)
(1.1741 0.420117 0)
(1.17264 0.393924 0)
(0.767112 0.223839 1.98852e-19)
(0.76154 0.519758 -1.10084e-19)
(0.700832 0.49107 1.76525e-19)
(0.899819 0.403568 -1.462e-19)
(1.01609 0.00999166 1.60291e-19)
(1.01671 0.00899233 -1.65753e-19)
(1.00935 0.0081421 0)
(1.01888 -0.0105071 0)
(1.01951 -0.0157434 -1.44735e-19)
(1.0115 -0.0235111 1.4323e-19)
(1.0338 0.00672013 0)
(1.02791 0.0127963 0)
(1.01254 0.00491761 0)
(1.01372 0.00779262 0)
(1.01723 0.000272957 0)
(1.01459 -0.000392277 0)
(-0.181942 1.47006 0)
(-0.141927 1.52586 0)
(-0.200678 1.18513 2.092e-19)
(0.298505 1.23679 1.85422e-19)
(0.0579762 1.17734 4.1552e-19)
(0.201602 1.18385 -6.6521e-19)
(-0.0101494 1.24086 0)
(-0.325277 1.9815 3.9483e-19)
(-0.378737 1.88732 0)
(0.558696 2.32889 1.67495e-19)
(0.383811 2.51627 9.737e-20)
(-0.129108 1.80487 -3.47953e-19)
(0.331199 1.11638 2.16623e-19)
(0.0481576 1.20547 -1.71709e-19)
(0.437651 1.18737 5.03496e-19)
(0.247775 1.81942 0)
(0.441212 1.86161 -3.88774e-19)
(-0.176336 1.96598 -9.77512e-21)
(-0.0411735 2.03631 0)
(-0.210964 2.09618 4.4945e-20)
(-0.156756 2.00957 0)
(-0.0575404 2.15146 -8.90881e-20)
(-0.0354843 2.06408 0)
(-0.0887907 1.78575 -1.83792e-20)
(-0.116721 1.80922 0)
(-0.112379 1.73743 0)
(-0.0938528 1.75835 2.07105e-20)
(-0.051526 1.91215 -5.93804e-21)
(-0.0394419 1.97787 9.08041e-20)
(-0.0388142 1.94966 6.45902e-22)
(-0.0446819 1.81943 1.56359e-20)
(-0.0575606 1.81208 9.25971e-21)
(-0.021625 1.78286 0)
(-0.0198393 1.78461 0)
(-0.167531 1.87765 2.58029e-20)
(-0.16032 1.75307 1.4461e-20)
(-0.147214 1.82058 -2.14342e-20)
(-0.235844 1.89575 0)
(-0.0156071 1.81289 -3.29892e-20)
(-0.0157441 1.81903 1.50365e-20)
(-0.016226 1.81861 -4.64029e-21)
(-0.0364721 1.81772 -1.86563e-20)
(-0.0146919 1.82884 -7.61134e-21)
(-0.0176752 1.83787 3.94201e-20)
(1.02438 0.00866038 -1.56154e-19)
(1.02102 0.0118705 1.5849e-19)
(1.01973 0.00591997 0)
(0.999407 0.0429896 2.26005e-19)
(0.995424 0.0316793 -2.70751e-19)
(0.970786 0.0261829 3.14782e-19)
(0.990663 0.0824529 -2.95899e-20)
(1.02248 -0.00325206 0)
(1.03052 0.00887468 1.28859e-19)
(1.02365 -5.84296e-05 -1.26593e-19)
(1.04102 0.0398062 -6.76931e-21)
(1.04431 0.0265738 6.00298e-20)
(1.0337 0.0561435 0)
(1.02648 0.0454802 -2.33455e-20)
(1.023 0.0247337 0)
(1.0201 0.0238473 0)
(1.03598 0.00962176 0)
(1.03077 0.00989887 0)
(1.03 0.0253866 4.84361e-20)
(1.03136 0.019912 -1.11477e-19)
(1.03267 0.0292961 -4.7226e-20)
(1.03383 0.0299798 -5.61593e-20)
(1.02861 0.057528 9.67223e-20)
(1.05813 0.0548988 0)
(1.04843 0.0868765 0)
(-0.0152944 1.8141 -1.30361e-20)
(-0.013413 1.80291 -1.14301e-21)
(-0.0152863 1.80344 0)
(-0.0107226 1.81471 1.37393e-20)
(-0.00947987 1.8107 2.03051e-21)
(-0.00890735 1.81414 -2.05685e-21)
(-0.00420625 1.83216 2.66511e-20)
(-0.0145498 1.82327 -1.69738e-21)
(-0.0118334 1.82489 8.33597e-21)
(-0.00839059 1.8254 -1.40385e-20)
(-0.00542235 1.82745 1.68138e-20)
(-0.021128 1.79527 4.08794e-22)
(-0.0197136 1.7976 1.50274e-20)
(0.562416 1.25419 -3.09394e-19)
(0.57623 1.34419 -4.02234e-19)
(0.639548 1.41112 -4.12409e-19)
(0.529613 1.4455 -2.14827e-19)
(0.527733 1.44732 0)
(0.623874 2.42363 7.79728e-20)
(0.703515 2.37978 1.5474e-19)
(0.435688 2.55651 6.92155e-20)
(0.372065 2.65165 -4.21745e-20)
(0.526456 2.60999 1.11239e-19)
(0.55205 2.47931 0)
(0.548159 2.4813 -2.367e-19)
(0.0641357 2.59284 4.76616e-19)
(0.244998 2.60136 -2.31401e-20)
(0.196116 2.58157 -6.38063e-19)
(0.936988 2.36334 9.21334e-20)
(0.831435 2.33726 0)
(1.01092 7.62132e-07 5.32775e-21)
(1.01279 -0.00368666 -4.50227e-21)
(1.01362 -0.00502563 -7.91125e-20)
(1.01311 -0.0055464 7.98199e-20)
(1.01266 -0.00111297 0)
(0.654019 1.27437 0)
(0.6389 1.15629 0)
(0.74902 1.06657 0)
(0.62689 1.1054 0)
(1.17627 2.64894 2.93297e-20)
(1.04961 2.37552 0)
(0.801987 2.29802 -1.69538e-21)
(0.810418 2.47839 0)
(0.881528 2.57003 -1.28166e-21)
(0.900547 2.53094 8.54071e-22)
(0.829271 0.122832 0)
(0.803377 0.145428 5.09545e-20)
(0.907599 0.128029 2.50867e-19)
(0.863766 0.110023 -1.02378e-19)
(0.857908 0.0788548 -3.06464e-19)
(1.02302 0.214603 -1.16639e-19)
(0.943818 0.266525 -7.28742e-21)
(0.889737 0.287065 2.16297e-19)
(0.974738 0.212771 1.59615e-19)
(0.926954 0.165143 -3.09557e-19)
(0.887604 0.179317 4.13172e-20)
(0.906994 0.272444 -7.52037e-20)
(0.883782 0.194832 0)
(0.975136 0.175808 1.45443e-19)
(1.00246 0.16753 0)
(1.00506 0.189307 0)
(1.07498 0.0986954 3.65424e-20)
(1.01101 0.147948 -6.75156e-21)
(1.00937 0.220078 -2.49593e-20)
(1.04345 0.181428 0)
(1.01436 0.022842 1.19155e-19)
(1.02128 0.0417758 1.38093e-19)
(1.02032 0.0267768 -1.17693e-19)
(1.01373 0.0457823 -9.31884e-20)
(1.0021 0.0467834 -1.59841e-19)
(0.977652 0.131953 0)
(0.983113 0.0790174 0)
(0.971164 0.0477572 -1.14332e-19)
(0.930399 0.0602486 4.924e-20)
(0.99707 0.0820074 1.3246e-19)
(1.02087 0.0978842 -1.19186e-19)
(1.0165 0.132371 1.13955e-19)
(0.998433 0.121216 0)
(1.03074 0.0942023 0)
(1.01788 0.0781485 -5.22119e-20)
(1.01657 0.0763726 -1.04431e-19)
(0.581362 1.10146 -8.77281e-20)
(0.628851 1.50631 1.51451e-19)
(1.14067 2.77505 8.80558e-20)
(1.20089 3.13165 -5.32972e-20)
(1.24061 2.75762 4.13404e-19)
(1.28806 2.72982 -2.09557e-19)
(1.25141 2.34461 -1.75051e-20)
(1.18639 3.0399 1.75048e-19)
(1.19885 2.99937 -1.96882e-19)
(1.18479 3.28369 -1.90385e-19)
(1.40109 2.99896 2.29449e-19)
(1.41676 2.93032 0)
(0.522125 0.843347 -5.33835e-21)
(0.2419 1.27397 1.81563e-19)
(0.480443 0.543382 2.14145e-19)
(0.32935 0.319587 2.51294e-19)
(0.572197 0.440541 2.47424e-19)
(0.537493 0.510815 -3.90445e-19)
(0.539784 0.518465 3.24533e-19)
(0.518575 0.483208 -1.29067e-19)
(0.495148 0.425408 3.00042e-19)
(0.773676 0.254137 -1.10514e-19)
(0.740556 0.291196 0)
(0.742429 0.245929 7.86384e-21)
(0.686797 0.525391 1.159e-19)
(0.656672 0.501373 -4.30185e-19)
(0.618694 0.498828 1.53792e-20)
(0.637738 0.481273 0)
(0.656605 0.74045 7.71487e-20)
(0.737763 0.774351 3.09398e-20)
(0.697754 0.845914 -4.15752e-20)
(0.805266 0.785758 -3.36321e-21)
(0.872966 0.83769 1.30158e-20)
(0.873571 0.839566 -1.33741e-20)
(0.794688 0.637535 -1.06723e-19)
(0.877038 0.702567 3.1334e-21)
(0.938719 0.706926 0)
(0.927809 0.677265 5.33223e-21)
(0.972349 0.314472 2.93336e-20)
(1.08192 0.300178 -2.28086e-20)
(1.00429 0.26371 4.66695e-20)
(0.945344 0.340529 -7.44024e-20)
(0.978033 0.423113 0)
(1.05461 0.397317 0)
(0.883981 0.340587 6.79841e-21)
(0.82976 0.277511 0)
(0.83539 0.27318 1.16339e-19)
(0.890469 0.285907 -2.58585e-21)
(0.889244 0.410988 3.99848e-19)
(0.820168 0.489198 1.02489e-19)
(0.841564 0.436149 -1.41172e-19)
(0.798124 0.420731 1.50519e-19)
(0.780898 0.408759 1.06185e-19)
(0.782536 0.399494 -1.03402e-19)
(1.02039 -0.0117909 1.26197e-19)
(1.02032 -0.0102168 0)
(1.01866 -0.00946783 8.47943e-20)
(1.02018 -0.0109255 -1.88997e-19)
(1.02979 -0.00180965 9.15435e-20)
(1.02782 0.00786157 -1.93913e-19)
(1.02593 0.0120036 0)
(1.02355 0.013489 -4.05745e-20)
(1.01977 0.00220778 1.01313e-19)
(1.01699 0.0100662 -5.15799e-20)
(1.02217 0.00980148 3.80637e-20)
(-0.0796903 1.67518 0)
(-0.125544 1.71911 0)
(-0.116071 1.59185 0)
(-0.0794 1.62173 0)
(-0.322064 1.64704 -2.1325e-19)
(-0.319726 1.4704 6.22454e-20)
(-0.382138 1.90532 6.11332e-20)
(-0.463552 1.67597 -1.41771e-19)
(-0.209841 1.75893 2.70604e-21)
(-0.230776 1.74945 -3.13502e-21)
(-0.281486 1.62056 3.81273e-20)
(-0.252651 1.62787 7.19028e-20)
(-0.184749 1.6522 5.50526e-21)
(-0.173195 1.69231 4.50524e-22)
(-0.24777 2.17322 -4.57302e-20)
(-0.269862 2.26177 0)
(-0.368101 2.25337 -5.27635e-20)
(-0.404333 1.99061 -4.00894e-20)
(0.0305877 2.25508 6.52353e-20)
(0.00327759 2.61416 0)
(0.1367 2.567 -3.91149e-20)
(0.20339 2.58558 2.77471e-20)
(-0.180314 2.29348 1.71633e-19)
(-0.320791 2.28524 -1.28948e-19)
(-0.233035 2.49735 0)
(-0.128341 1.87089 -4.15713e-20)
(-0.0988994 1.87031 -7.91889e-20)
(-0.106409 1.85477 0)
(-0.0996368 1.9339 -1.83356e-21)
(-0.148438 1.93742 2.44329e-20)
(-0.0457115 1.78733 3.37475e-21)
(-0.0297482 1.79122 -5.23082e-20)
(-0.0304435 1.79735 1.4481e-20)
(-0.0493722 1.79533 1.81715e-20)
(-0.0750838 1.79357 0)
(-0.0261712 1.79785 0)
(-0.0264783 1.79048 1.62661e-20)
(-0.0255667 1.79731 -5.20501e-21)
(-0.0251744 1.79824 0)
(-0.0236649 1.78727 1.2617e-20)
(-0.0240136 1.78618 -2.49576e-20)
(1.03049 0.0181254 0)
(1.03727 0.0200059 -1.19478e-20)
(1.03679 0.0212717 -8.81189e-20)
(1.03634 0.0227478 0)
(1.03577 0.0245956 0)
(1.0383 0.0128326 -3.89845e-21)
(1.03693 0.0112379 1.4868e-19)
(1.03391 0.0126439 1.79808e-19)
(1.0309 0.0111106 0)
(1.02535 0.00945199 0)
(1.03015 0.0186995 9.00363e-20)
(1.02383 0.0138798 0)
(1.02498 0.0117801 0)
(-0.0176201 1.8143 0)
(-0.0212537 1.79865 1.18307e-21)
(-0.019474 1.80824 7.74218e-21)
(-0.0264162 1.79755 0)
(-0.0222332 1.80144 1.02092e-20)
(-0.024699 1.79795 -5.27016e-21)
(-0.0263569 1.79639 0)
(0.525501 1.61651 0)
(0.58202 1.34242 5.87088e-19)
(0.521916 1.37566 0)
(0.582101 1.34933 -6.956e-19)
(0.537995 1.38423 0)
(0.592894 1.35521 3.19082e-19)
(1.01906 2.69478 -2.16737e-21)
(0.953974 2.38368 -1.13525e-19)
(0.872462 2.12669 1.58351e-19)
(0.845277 2.32987 6.57362e-20)
(0.83497 2.50187 0)
(0.880327 2.51763 0)
(0.918383 2.35541 0)
(0.896004 2.32153 -2.34153e-19)
(0.703869 2.46383 -3.06368e-20)
(0.812257 2.47619 -1.33785e-20)
(0.803448 2.45434 1.07053e-20)
(0.703519 2.36223 0)
(0.789924 2.33932 0)
(0.760481 2.35674 -1.41868e-19)
(0.782691 2.47526 0)
(0.591779 1.04794 0)
(0.501265 0.90145 8.72215e-21)
(0.512389 0.946923 1.28547e-21)
(0.507223 1.05893 0)
(0.508628 0.997793 -1.137e-20)
(0.724417 0.875913 1.58282e-20)
(0.757432 1.00423 0)
(0.734686 0.982175 -5.68151e-20)
(0.639915 0.9904 0)
(0.599085 0.927801 0)
(1.14136 2.79958 5.04632e-20)
(1.11847 2.86086 1.0032e-19)
(0.914937 2.40941 -2.26154e-19)
(0.894442 2.38281 3.42166e-20)
(1.10484 2.76652 0)
(1.05161 2.73657 -4.19063e-20)
(1.07262 2.50241 -3.16606e-20)
(0.951815 2.22509 -1.68298e-20)
(0.467194 1.42549 0)
(0.475899 1.08628 7.69384e-20)
(0.520932 1.15211 0)
(0.850208 0.213197 0)
(0.807098 0.163143 0)
(0.775233 0.188304 0)
(0.835695 0.226033 -1.83599e-19)
(0.785554 0.228589 1.16306e-19)
(0.931313 0.0578178 -9.96607e-20)
(0.937315 0.10539 0)
(0.92783 0.112585 4.68549e-20)
(0.884423 0.077512 1.9393e-19)
(0.884995 0.0599682 -1.18909e-19)
(1.11605 3.38095 -6.64877e-19)
(1.17525 3.30534 0)
(1.13815 3.45128 -1.39696e-18)
(0.672809 3.59772 1.19784e-18)
(1.02038 3.12516 2.90024e-19)
(0.503047 0.840057 1.21187e-19)
(0.490919 0.818066 0)
(0.383994 0.560775 -4.96945e-20)
(0.396856 0.691512 2.20701e-19)
(0.499744 0.541582 -6.87689e-20)
(0.494682 0.560401 7.72631e-20)
(0.631286 0.554551 1.55687e-19)
(0.647542 0.576275 0)
(0.588175 0.629413 0)
(0.560682 0.571965 0)
(0.924101 0.580649 -3.97861e-20)
(0.851063 0.521919 -9.77597e-20)
(0.888244 0.573457 2.59387e-20)
(0.918793 0.478466 -6.89695e-20)
(0.99182 0.455073 0)
(1.02059 0.568068 3.90167e-21)
(0.8312 0.368471 -2.31062e-19)
(0.824277 0.358457 -2.69787e-19)
(0.813126 0.365073 1.80375e-19)
(0.792358 0.341489 -2.10471e-19)
(0.825015 0.292009 -1.54782e-19)
(0.796436 0.29491 1.90143e-19)
(1.03525 -0.000729555 -9.49214e-20)
(1.03607 0.00084093 1.95046e-19)
(1.02284 -0.00598161 1.18698e-19)
(1.02635 -0.0035664 -1.42904e-19)
(1.03263 0.0144665 0)
(1.0358 0.0108345 -2.3438e-19)
(-0.272664 1.92569 2.04724e-20)
(-0.278317 1.88163 0)
(-0.384425 1.98498 -1.19307e-19)
(-0.389389 1.96793 1.2446e-19)
(-0.384274 1.89989 -1.11544e-19)
(-0.359252 1.90987 0)
(-0.0287312 1.81559 0)
(-0.0253239 1.80539 -5.88484e-21)
(-0.0234599 1.80335 5.27675e-21)
(-0.0229388 1.80427 1.47238e-21)
(-0.0178295 1.81333 -1.01848e-20)
(-0.0198494 1.8149 6.19302e-21)
(0.474144 1.429 2.45738e-19)
(0.468617 1.41431 -2.60846e-19)
(0.533443 1.34235 3.19752e-19)
(0.538999 1.3751 -1.47895e-20)
(0.636943 1.29389 0)
(0.573385 1.38932 3.80667e-19)
(0.595695 1.38191 -3.75939e-19)
(0.526625 1.31663 -3.07854e-19)
(0.512749 1.28297 0)
(0.52513 1.22466 0)
(0.775259 2.47184 4.57413e-20)
(0.733948 2.47031 3.51296e-19)
(0.778784 2.46404 -2.30936e-19)
(0.700296 2.46996 -6.97491e-20)
(0.669393 2.63615 2.26272e-20)
(0.524214 2.62374 -1.00806e-19)
(0.961758 2.35728 -8.8198e-20)
(0.994554 2.39445 0)
(0.881357 2.1279 -1.06039e-19)
(1.02294 2.71742 0)
(1.01615 2.69443 0)
(0.623105 2.32218 2.54821e-19)
(1.11514 3.12222 3.20988e-19)
(0.99735 3.01162 -3.57418e-19)
(0.324119 0.940307 0)
(0.365487 0.849721 -8.53104e-20)
(0.547556 0.757145 -3.34835e-20)
(0.392358 2.16765 0)
(0.412293 2.76713 -2.05005e-19)
(0.434029 2.51209 0)
(0.650287 0.68928 -1.62304e-19)
(0.698119 0.670491 2.30421e-19)
(0.701014 0.642977 -2.28222e-19)
(0.609914 0.662886 -2.51029e-20)
(0.675689 0.618679 -1.06031e-19)
(0.989195 2.7911 -2.42543e-19)
(1.01912 2.7989 1.96237e-19)
(0.587451 2.26408 -1.18975e-19)
(0.61747 1.7521 4.83529e-20)
(0.714538 1.92541 8.6181e-20)
(0.983276 2.44776 -4.50232e-20)
(0.982698 2.43011 -1.13277e-19)
(0.675664 1.84802 -3.17712e-21)
(0.460832 1.36204 -6.5597e-20)
)
;

boundaryField
{
    wall-4
    {
        type            noSlip;
    }
    velocity-inlet-5
    {
        type            fixedValue;
        value           uniform (1 0 0);
    }
    velocity-inlet-6
    {
        type            fixedValue;
        value           uniform (0 3 0);
    }
    pressure-outlet-7
    {
        type            zeroGradient;
    }
    wall-8
    {
        type            noSlip;
    }
    frontAndBackPlanes
    {
        type            empty;
    }
}

