/*--------------------------------*- C++ -*----------------------------------*\
  =========                 |
  \\      /  F ield         | OpenFOAM: The Open Source CFD Toolbox
   \\    /   O peration     | Website:  https://openfoam.org
    \\  /    A nd           | Version:  6
     \\/     M anipulation  |
\*---------------------------------------------------------------------------*/
FoamFile
{
    version     2.0;
    format      ascii;
    class       volVectorField;
    location    "0.042";
    object      U;
}
// * * * * * * * * * * * * * * * * * * * * * * * * * * * * * * * * * * * * * //

dimensions      [0 1 -1 0 0 0 0];

internalField   nonuniform List<vector> 
16000
(
(0.0469609 -0.000403808 -0.000111618)
(0.0476723 -0.000360205 -1.13373e-05)
(0.0483291 -0.000364189 1.2191e-05)
(0.0489355 -0.00037739 5.94183e-06)
(0.0495784 -0.00037495 -1.05095e-06)
(0.0502464 -0.000356891 -1.03278e-05)
(0.0509158 -0.000328154 -2.1654e-05)
(0.0515679 -0.000294608 -3.22844e-05)
(0.052187 -0.000261923 -3.95576e-05)
(0.052761 -0.000234185 -4.22341e-05)
(0.0532833 -0.000213074 -4.03747e-05)
(0.0537522 -0.000198393 -3.49249e-05)
(0.0541705 -0.000189124 -2.72172e-05)
(0.0545444 -0.0001843 -1.85469e-05)
(0.0548832 -0.000183493 -9.92626e-06)
(0.0551977 -0.000186885 -1.97476e-06)
(0.0554997 -0.00019501 5.13884e-06)
(0.0558003 -0.000208519 1.16016e-05)
(0.0561099 -0.000228066 1.77792e-05)
(0.0564386 -0.000254235 2.40446e-05)
(0.056796 -0.000287475 3.06404e-05)
(0.0571924 -0.000328093 3.76738e-05)
(0.0576382 -0.000376369 4.5233e-05)
(0.058144 -0.00043277 5.34668e-05)
(0.0587213 -0.000498141 6.25528e-05)
(0.0593828 -0.000573755 7.26397e-05)
(0.0601432 -0.000661305 8.38731e-05)
(0.0610194 -0.000763007 9.65162e-05)
(0.0620308 -0.000881786 0.000111069)
(0.0631997 -0.00102145 0.000128257)
(0.0645519 -0.0011868 0.00014887)
(0.0661191 -0.00138382 0.000173605)
(0.0679406 -0.00162003 0.000203132)
(0.0700658 -0.00190501 0.000238398)
(0.0725558 -0.00225136 0.000280952)
(0.0754862 -0.00267595 0.00033307)
(0.0789518 -0.00320222 0.000397753)
(0.0830745 -0.00386352 0.000478913)
(0.0880139 -0.00470773 0.000581818)
(0.0939826 -0.00580523 0.000714448)
(0.101271 -0.00726174 0.000891091)
(0.110264 -0.00923322 0.00113818)
(0.121477 -0.0119469 0.00149296)
(0.135611 -0.0157348 0.00200676)
(0.153625 -0.0210948 0.00276084)
(0.176824 -0.028777 0.00389875)
(0.206924 -0.0399443 0.00573538)
(0.246019 -0.056423 0.00915355)
(0.29843 -0.082729 0.0156736)
(0.362311 -0.160386 0.02439)
(0.103344 -0.00112785 -0.000283421)
(0.104154 -0.00116127 -0.00014812)
(0.104945 -0.00126408 -0.00011897)
(0.105678 -0.00138159 -0.000124705)
(0.106453 -0.00146755 -0.00012168)
(0.107252 -0.0014966 -0.000115162)
(0.10805 -0.00146236 -0.000108999)
(0.108828 -0.00137394 -0.000103468)
(0.109569 -0.00125125 -9.83878e-05)
(0.110263 -0.00111813 -9.3364e-05)
(0.1109 -0.000995571 -8.70382e-05)
(0.111478 -0.000898088 -7.80768e-05)
(0.111997 -0.000833155 -6.60609e-05)
(0.112462 -0.000802689 -5.16308e-05)
(0.112882 -0.000805189 -3.60822e-05)
(0.113271 -0.000837636 -2.07326e-05)
(0.113645 -0.000896636 -6.31859e-06)
(0.114018 -0.000979582 6.87435e-06)
(0.114406 -0.00108564 1.86328e-05)
(0.11482 -0.00121587 2.88108e-05)
(0.115276 -0.00137272 3.74957e-05)
(0.115784 -0.00155946 4.51286e-05)
(0.116358 -0.00177988 5.251e-05)
(0.11701 -0.00203844 6.05886e-05)
(0.117753 -0.00234055 7.00873e-05)
(0.118601 -0.00269244 8.1297e-05)
(0.119571 -0.00310086 9.41977e-05)
(0.120683 -0.00357352 0.000108723)
(0.12196 -0.0041203 0.000124994)
(0.123427 -0.00475484 0.000143494)
(0.125116 -0.00549549 0.000164999)
(0.12706 -0.00636563 0.000190146)
(0.129301 -0.00739377 0.000219098)
(0.131891 -0.00861498 0.000251961)
(0.134894 -0.010074 0.000289755)
(0.138381 -0.0118283 0.000334968)
(0.142436 -0.0139537 0.000390255)
(0.147154 -0.0165496 0.00045727)
(0.152648 -0.019748 0.000536806)
(0.159049 -0.0237273 0.000628898)
(0.166505 -0.0287271 0.00073177)
(0.175183 -0.0350709 0.000838316)
(0.185264 -0.0431925 0.000940212)
(0.196924 -0.0536768 0.00103209)
(0.210323 -0.0673174 0.00110589)
(0.225577 -0.0851736 0.00117024)
(0.242645 -0.108908 0.00127391)
(0.260673 -0.141244 0.00159642)
(0.27768 -0.186284 0.0021966)
(0.286186 -0.253037 0.00269301)
(0.148882 -0.00103236 -0.000233956)
(0.14946 -0.00107727 -0.000151528)
(0.150071 -0.00120514 -0.000153052)
(0.150662 -0.00135917 -0.000158479)
(0.151279 -0.00150744 -0.000150498)
(0.1519 -0.00162561 -0.000142159)
(0.152513 -0.00169341 -0.000134874)
(0.153112 -0.00169965 -0.000126187)
(0.153687 -0.0016471 -0.000115481)
(0.154228 -0.00155249 -0.000103325)
(0.154728 -0.00144166 -9.0241e-05)
(0.155185 -0.00134218 -7.64706e-05)
(0.1556 -0.00127677 -6.20376e-05)
(0.155977 -0.00125971 -4.69564e-05)
(0.156321 -0.00129659 -3.15349e-05)
(0.156642 -0.00138699 -1.66128e-05)
(0.156951 -0.00152751 -2.6132e-06)
(0.15726 -0.00171391 1.04473e-05)
(0.157581 -0.00194311 2.27264e-05)
(0.157926 -0.00221375 3.46739e-05)
(0.158305 -0.00252624 4.65881e-05)
(0.158728 -0.00288335 5.83832e-05)
(0.159208 -0.00329106 6.99092e-05)
(0.159753 -0.00375871 8.13245e-05)
(0.160376 -0.0042984 9.30914e-05)
(0.161086 -0.00492359 0.00010581)
(0.161897 -0.00564833 0.000120157)
(0.162819 -0.00648774 0.000136829)
(0.163869 -0.00745956 0.000156459)
(0.165064 -0.00858582 0.000179579)
(0.166423 -0.00989422 0.000206629)
(0.167971 -0.011419 0.000237924)
(0.169732 -0.0132011 0.00027367)
(0.171734 -0.0152888 0.000314013)
(0.174005 -0.01774 0.000358864)
(0.176579 -0.0206278 0.000407601)
(0.179482 -0.0240426 0.000459976)
(0.182745 -0.0280956 0.000516047)
(0.186379 -0.0329188 0.000575519)
(0.190401 -0.0386778 0.000634682)
(0.194811 -0.045575 0.000688081)
(0.19958 -0.0538638 0.000728282)
(0.204652 -0.0638594 0.000753241)
(0.209971 -0.0759118 0.000767923)
(0.215235 -0.0907541 0.000786701)
(0.21998 -0.109072 0.000827126)
(0.22328 -0.131856 0.000875269)
(0.224034 -0.160012 0.000804395)
(0.220127 -0.194519 0.000527813)
(0.20862 -0.235002 4.61337e-05)
(0.176518 -0.000717433 -0.000224165)
(0.177007 -0.000758121 -0.00016922)
(0.17756 -0.000861758 -0.000190907)
(0.178125 -0.000991135 -0.000197324)
(0.178708 -0.00112779 -0.000184988)
(0.179275 -0.00125713 -0.000172731)
(0.179811 -0.00136495 -0.000161644)
(0.180313 -0.0014396 -0.000147805)
(0.180771 -0.00147651 -0.000129992)
(0.181179 -0.0014812 -0.00010943)
(0.181537 -0.00146855 -8.81406e-05)
(0.181848 -0.00145875 -6.78768e-05)
(0.182121 -0.00147209 -4.96632e-05)
(0.182366 -0.00152491 -3.38347e-05)
(0.182591 -0.00162734 -1.99656e-05)
(0.182801 -0.00178337 -8.17729e-06)
(0.183005 -0.00199332 1.15909e-06)
(0.18321 -0.00225726 9.64678e-06)
(0.183419 -0.0025762 1.77165e-05)
(0.183638 -0.00295259 2.52556e-05)
(0.183874 -0.00338996 3.25687e-05)
(0.184134 -0.00389232 4.00017e-05)
(0.184424 -0.00446467 4.77324e-05)
(0.184752 -0.00511411 5.58108e-05)
(0.185126 -0.00585093 6.4165e-05)
(0.185554 -0.00668869 7.2703e-05)
(0.186041 -0.00764416 8.15191e-05)
(0.186592 -0.00873789 9.08942e-05)
(0.187211 -0.00999473 0.000101141)
(0.187903 -0.0114437 0.000112522)
(0.188671 -0.0131172 0.000125126)
(0.18952 -0.0150518 0.000138726)
(0.190457 -0.0172883 0.000152904)
(0.191484 -0.0198739 0.000167322)
(0.192606 -0.0228633 0.000181682)
(0.19382 -0.0263212 0.000195344)
(0.195123 -0.0303233 0.000206806)
(0.196501 -0.0349571 0.000214951)
(0.19795 -0.0403277 0.00021953)
(0.199425 -0.0465757 0.000221573)
(0.200857 -0.0538377 0.000226726)
(0.202154 -0.062301 0.000233575)
(0.203156 -0.0721834 0.000242053)
(0.203578 -0.083786 0.000235595)
(0.203147 -0.0971886 0.000197107)
(0.20139 -0.112728 9.18478e-05)
(0.197695 -0.130446 -6.53229e-05)
(0.191211 -0.150281 -0.000269177)
(0.180846 -0.171891 -0.000521578)
(0.165286 -0.194451 -0.000828567)
(0.188604 -0.000280228 -0.000216687)
(0.189062 -0.000312034 -0.000171294)
(0.1896 -0.00038181 -0.000203241)
(0.190168 -0.000469146 -0.000212491)
(0.190757 -0.000566759 -0.000200322)
(0.19132 -0.000669788 -0.000188585)
(0.191842 -0.000774214 -0.000178337)
(0.192314 -0.000876964 -0.000164475)
(0.192727 -0.000976959 -0.000144902)
(0.193073 -0.00107592 -0.000120844)
(0.193349 -0.00117827 -9.51145e-05)
(0.193564 -0.00129041 -7.06567e-05)
(0.193732 -0.00141968 -4.95998e-05)
(0.193867 -0.00157335 -3.29275e-05)
(0.193981 -0.00175787 -2.05216e-05)
(0.194082 -0.00197817 -1.17083e-05)
(0.194174 -0.00223841 -5.93091e-06)
(0.194261 -0.00254356 -2.12389e-06)
(0.194345 -0.00289926 5.86995e-07)
(0.194425 -0.00331189 2.59051e-06)
(0.194503 -0.00378896 4.11144e-06)
(0.194578 -0.00433877 5.28603e-06)
(0.194654 -0.0049702 6.2095e-06)
(0.194734 -0.00569286 6.99737e-06)
(0.194821 -0.00651743 7.78974e-06)
(0.194919 -0.00745578 8.78254e-06)
(0.195031 -0.00852163 1.02546e-05)
(0.195157 -0.00973186 1.23788e-05)
(0.195297 -0.0111077 1.49897e-05)
(0.195445 -0.0126754 1.77012e-05)
(0.195599 -0.0144652 2.01522e-05)
(0.195752 -0.0165115 2.20226e-05)
(0.195898 -0.0188529 2.30164e-05)
(0.196028 -0.021533 2.29912e-05)
(0.196128 -0.0246008 2.19812e-05)
(0.196179 -0.0281103 1.9958e-05)
(0.196154 -0.0321213 1.66841e-05)
(0.196016 -0.0367023 1.078e-05)
(0.195706 -0.0419304 -7.91719e-07)
(0.195162 -0.0478698 -2.00445e-05)
(0.194297 -0.0546156 -5.42382e-05)
(0.19299 -0.0622362 -0.000102207)
(0.191087 -0.0707984 -0.000172097)
(0.188376 -0.0803508 -0.000264918)
(0.184597 -0.0908957 -0.000383617)
(0.179414 -0.102376 -0.000524531)
(0.172415 -0.114652 -0.000705684)
(0.163129 -0.127438 -0.000936562)
(0.151045 -0.14025 -0.00122623)
(0.135694 -0.152345 -0.00158284)
(0.188452 0.000177946 -0.000218296)
(0.188911 0.000154064 -0.000172976)
(0.189451 0.000120612 -0.000204889)
(0.190017 8.32649e-05 -0.000214164)
(0.190601 3.8627e-05 -0.00020209)
(0.191157 -1.79582e-05 -0.000190483)
(0.191667 -9.3631e-05 -0.000180417)
(0.192124 -0.00019709 -0.000166886)
(0.192516 -0.000335128 -0.000147913)
(0.192835 -0.000509059 -0.000124833)
(0.193079 -0.000713825 -0.000100468)
(0.193255 -0.00094037 -7.76076e-05)
(0.193375 -0.00117976 -5.81577e-05)
(0.193453 -0.00142668 -4.29005e-05)
(0.193499 -0.00168094 -3.17224e-05)
(0.193523 -0.00194682 -2.40438e-05)
(0.193526 -0.00223158 -1.91887e-05)
(0.193513 -0.00254439 -1.64239e-05)
(0.193483 -0.00289504 -1.51562e-05)
(0.193435 -0.00329325 -1.50283e-05)
(0.193367 -0.00374864 -1.58282e-05)
(0.193279 -0.00427112 -1.74051e-05)
(0.193167 -0.00487133 -1.96603e-05)
(0.193031 -0.00556102 -2.26284e-05)
(0.192867 -0.0063529 -2.64539e-05)
(0.192674 -0.00725999 -3.12091e-05)
(0.192449 -0.00829542 -3.67797e-05)
(0.192188 -0.00947305 -4.30406e-05)
(0.191885 -0.0108085 -5.01274e-05)
(0.191532 -0.0123203 -5.83615e-05)
(0.191118 -0.0140314 -6.80814e-05)
(0.190631 -0.0159694 -7.97395e-05)
(0.190056 -0.018166 -9.39738e-05)
(0.189371 -0.0206561 -0.000111467)
(0.188554 -0.0234767 -0.000132853)
(0.187572 -0.026666 -0.000158818)
(0.186388 -0.0302625 -0.000190248)
(0.184954 -0.0343033 -0.000228443)
(0.183215 -0.0388237 -0.000274848)
(0.181104 -0.0438538 -0.000331178)
(0.17854 -0.0494152 -0.000398512)
(0.175425 -0.0555199 -0.000480536)
(0.17164 -0.0621571 -0.000579687)
(0.167046 -0.0692863 -0.0006983)
(0.161477 -0.0768162 -0.000837921)
(0.154746 -0.0845945 -0.000999474)
(0.146645 -0.0923736 -0.00118301)
(0.136953 -0.0997901 -0.00138537)
(0.125445 -0.106344 -0.00159726)
(0.111895 -0.111406 -0.00180212)
(0.176073 0.000624353 -0.000228639)
(0.176563 0.000615864 -0.000174664)
(0.177115 0.000627969 -0.000197377)
(0.17767 0.000646296 -0.000205029)
(0.178236 0.000656119 -0.000194132)
(0.178774 0.000643154 -0.000183349)
(0.179271 0.000590694 -0.000173877)
(0.17972 0.000482812 -0.000162257)
(0.180111 0.000311076 -0.000147634)
(0.180437 7.94168e-05 -0.000131088)
(0.180693 -0.000196661 -0.000114031)
(0.180881 -0.000495972 -9.7651e-05)
(0.181006 -0.000799112 -8.28044e-05)
(0.181075 -0.00109386 -7.0038e-05)
(0.181093 -0.00137692 -5.959e-05)
(0.181067 -0.0016525 -5.14774e-05)
(0.181 -0.00192957 -4.56496e-05)
(0.180897 -0.00221927 -4.19923e-05)
(0.180757 -0.002533 -4.03477e-05)
(0.180582 -0.00288148 -4.05564e-05)
(0.180369 -0.00327466 -4.24857e-05)
(0.180117 -0.0037221 -4.60354e-05)
(0.179822 -0.00423341 -5.11787e-05)
(0.179478 -0.00481859 -5.80188e-05)
(0.179081 -0.00548831 -6.66783e-05)
(0.178623 -0.00625421 -7.71176e-05)
(0.178096 -0.0071288 -8.91451e-05)
(0.177492 -0.00812511 -0.000102644)
(0.176798 -0.00925621 -0.000117731)
(0.176003 -0.0105356 -0.000134659)
(0.175092 -0.0119782 -0.000153846)
(0.174046 -0.0136011 -0.000176025)
(0.172844 -0.0154235 -0.00020209)
(0.17146 -0.0174662 -0.000232825)
(0.169864 -0.0197515 -0.000268946)
(0.168023 -0.0223019 -0.00031129)
(0.165895 -0.0251385 -0.00036088)
(0.163437 -0.028279 -0.000418899)
(0.160601 -0.0317352 -0.000486591)
(0.157329 -0.0355105 -0.000565265)
(0.153563 -0.0395976 -0.000656303)
(0.149235 -0.0439737 -0.000761073)
(0.144272 -0.0485948 -0.000880578)
(0.138599 -0.0533878 -0.00101519)
(0.132137 -0.0582397 -0.00116422)
(0.124811 -0.0629875 -0.00132517)
(0.116562 -0.0674037 -0.00149328)
(0.107356 -0.0711772 -0.00165745)
(0.0971954 -0.073894 -0.00178749)
(0.0860895 -0.0750221 -0.00182421)
(0.148194 0.000957446 -0.000239034)
(0.148771 0.0009669 -0.000158572)
(0.149375 0.00102672 -0.000162037)
(0.149949 0.00109616 -0.000169239)
(0.150537 0.00114649 -0.000163062)
(0.151113 0.00115454 -0.000156427)
(0.151662 0.00110045 -0.000151016)
(0.152175 0.000972982 -0.000145026)
(0.152641 0.000774469 -0.000138241)
(0.153046 0.000520323 -0.000130923)
(0.153382 0.000233589 -0.000123042)
(0.153642 -6.24483e-05 -0.000114242)
(0.153824 -0.000350181 -0.000104413)
(0.153928 -0.000620326 -9.39678e-05)
(0.153958 -0.000871554 -8.36939e-05)
(0.153918 -0.00110842 -7.44772e-05)
(0.153813 -0.00133885 -6.70468e-05)
(0.153649 -0.00157197 -6.18274e-05)
(0.153429 -0.00181689 -5.90069e-05)
(0.153155 -0.00208212 -5.8585e-05)
(0.152826 -0.00237546 -6.04592e-05)
(0.15244 -0.00270417 -6.45032e-05)
(0.151992 -0.00307527 -7.06333e-05)
(0.151477 -0.00349603 -7.88707e-05)
(0.150887 -0.00397463 -8.93241e-05)
(0.150213 -0.0045205 -0.000102118)
(0.149444 -0.0051438 -0.000117364)
(0.148567 -0.00585423 -0.000135164)
(0.147569 -0.00666032 -0.000155591)
(0.146431 -0.00756955 -0.000178638)
(0.145134 -0.00858909 -0.000204364)
(0.143655 -0.00972664 -0.000233107)
(0.14197 -0.0109913 -0.000265429)
(0.140049 -0.012394 -0.000301996)
(0.137862 -0.0139461 -0.000343628)
(0.135378 -0.0156586 -0.0003913)
(0.132559 -0.0175405 -0.000445958)
(0.12937 -0.0195965 -0.000508337)
(0.125769 -0.0218263 -0.000578926)
(0.121716 -0.0242225 -0.000658035)
(0.117166 -0.0267691 -0.000745743)
(0.112079 -0.0294385 -0.000841767)
(0.106412 -0.0321875 -0.00094523)
(0.100127 -0.0349525 -0.00105474)
(0.0931917 -0.0376438 -0.00116899)
(0.0855931 -0.0401439 -0.0012886)
(0.077377 -0.0423116 -0.00142071)
(0.0686941 -0.0439921 -0.00157164)
(0.0598904 -0.0450806 -0.00168977)
(0.0514961 -0.0454397 -0.00163217)
(0.102513 0.0010735 -0.000282059)
(0.103308 0.00108744 -0.000150774)
(0.104078 0.00115145 -0.000124907)
(0.104779 0.00121979 -0.000132861)
(0.105507 0.00125014 -0.000132182)
(0.10624 0.00122025 -0.000128363)
(0.106951 0.00112514 -0.000124865)
(0.107618 0.000973219 -0.000121889)
(0.108224 0.000781753 -0.000119091)
(0.108752 0.000570629 -0.00011591)
(0.109193 0.000357019 -0.000111406)
(0.109537 0.000152664 -0.000104883)
(0.109784 -3.64572e-05 -9.63969e-05)
(0.109934 -0.000209079 -8.66763e-05)
(0.10999 -0.000367148 -7.67596e-05)
(0.109961 -0.000514749 -6.76065e-05)
(0.109852 -0.000656602 -6.01452e-05)
(0.109671 -0.000797346 -5.46861e-05)
(0.109422 -0.000941645 -5.13973e-05)
(0.109107 -0.00109404 -5.02666e-05)
(0.108727 -0.0012587 -5.11709e-05)
(0.108279 -0.00143953 -5.39706e-05)
(0.10776 -0.00164035 -5.85727e-05)
(0.107164 -0.0018651 -6.49956e-05)
(0.106482 -0.00211813 -7.33753e-05)
(0.105706 -0.00240426 -8.38876e-05)
(0.104824 -0.00272845 -9.66656e-05)
(0.103822 -0.0030953 -0.000111725)
(0.102684 -0.00350868 -0.000128895)
(0.101392 -0.00397153 -0.000147905)
(0.0999239 -0.00448603 -0.000168668)
(0.0982565 -0.00505405 -0.000191493)
(0.0963654 -0.00567766 -0.000217023)
(0.0942249 -0.00635909 -0.000246117)
(0.0918083 -0.00710011 -0.000279757)
(0.0890877 -0.00790111 -0.000318929)
(0.0860336 -0.00876019 -0.000364526)
(0.0826149 -0.0096722 -0.00041738)
(0.0787993 -0.0106277 -0.000478413)
(0.0745541 -0.0116114 -0.000548782)
(0.0698471 -0.0126006 -0.000629976)
(0.064649 -0.0135621 -0.000724005)
(0.0589355 -0.0144479 -0.000834032)
(0.052695 -0.0151922 -0.000965944)
(0.0459453 -0.0157144 -0.00113052)
(0.0387729 -0.0159505 -0.00134573)
(0.0313953 -0.0159373 -0.00163914)
(0.0241879 -0.0159816 -0.00202013)
(0.0174672 -0.0168941 -0.00235603)
(0.0116845 -0.0202633 -0.0022981)
(0.0462757 0.000388304 -0.000110721)
(0.046967 0.000341258 -1.41751e-05)
(0.0476005 0.000337395 6.36159e-06)
(0.0481779 0.000341105 -1.66068e-06)
(0.0487796 0.000328845 -9.89328e-06)
(0.0493917 0.000300652 -1.99858e-05)
(0.0499889 0.000260799 -3.19454e-05)
(0.0505512 0.000214349 -4.35037e-05)
(0.0510619 0.000166207 -5.24533e-05)
(0.0515075 0.000119926 -5.77387e-05)
(0.0518793 7.71635e-05 -5.93261e-05)
(0.0521726 3.81049e-05 -5.78524e-05)
(0.0523867 2.18665e-06 -5.43124e-05)
(0.0525238 -3.1367e-05 -4.97778e-05)
(0.0525873 -6.34543e-05 -4.48026e-05)
(0.0525833 -9.38784e-05 -4.08292e-05)
(0.0525179 -0.000124307 -3.8009e-05)
(0.052394 -0.000155243 -3.61558e-05)
(0.0522166 -0.000186569 -3.55376e-05)
(0.0519873 -0.000219169 -3.61739e-05)
(0.051707 -0.000253744 -3.79505e-05)
(0.0513749 -0.000290947 -4.07868e-05)
(0.0509886 -0.000331427 -4.46365e-05)
(0.0505445 -0.000375848 -4.95114e-05)
(0.0500381 -0.000424925 -5.54797e-05)
(0.0494632 -0.000479435 -6.26336e-05)
(0.0488129 -0.000540132 -7.10304e-05)
(0.0480784 -0.000607606 -8.05999e-05)
(0.0472495 -0.000682164 -9.1102e-05)
(0.0463142 -0.000763848 -0.000102226)
(0.0452594 -0.000852486 -0.000113763)
(0.0440716 -0.000947707 -0.000125679)
(0.0427374 -0.00104887 -0.000138043)
(0.0412441 -0.00115493 -0.000150894)
(0.0395799 -0.0012642 -0.000164127)
(0.0377337 -0.00137422 -0.000177415)
(0.035696 -0.00148153 -0.000190152)
(0.0334584 -0.0015814 -0.000201416)
(0.0310157 -0.00166742 -0.000209931)
(0.0283662 -0.00173091 -0.000214)
(0.0255148 -0.00176029 -0.000211436)
(0.0224756 -0.00174075 -0.000199669)
(0.0192772 -0.00165584 -0.000176519)
(0.0159696 -0.00149577 -0.000142292)
(0.012633 -0.00128261 -0.000103878)
(0.00939279 -0.00112343 -8.32968e-05)
(0.0064036 -0.00129587 -0.000132783)
(0.00347954 -0.00243445 -0.000319735)
(-0.00112522 -0.00619252 -0.000455951)
(-0.00918288 -0.0164417 -0.00014055)
(0.105061 -0.00103707 -0.000493592)
(0.106432 -0.000923828 -0.000401196)
(0.107821 -0.000914807 -0.000348787)
(0.109147 -0.000933482 -0.000345329)
(0.110541 -0.000923031 -0.000350251)
(0.111972 -0.00088018 -0.000357342)
(0.113391 -0.000812341 -0.000366905)
(0.114753 -0.000730043 -0.000374373)
(0.116025 -0.000645222 -0.000372497)
(0.117183 -0.000568069 -0.000356837)
(0.118216 -0.000504104 -0.000326617)
(0.119128 -0.000454735 -0.000284227)
(0.119931 -0.000419089 -0.000234214)
(0.120643 -0.000395683 -0.000181894)
(0.121287 -0.000383541 -0.000132056)
(0.121889 -0.00038262 -8.7973e-05)
(0.122471 -0.000393463 -5.08631e-05)
(0.123058 -0.000416813 -2.02403e-05)
(0.12367 -0.000453397 5.27484e-06)
(0.124326 -0.000503844 2.72536e-05)
(0.125044 -0.000568659 4.69847e-05)
(0.125845 -0.000648202 6.54346e-05)
(0.126748 -0.000742854 8.35421e-05)
(0.127775 -0.000853457 0.000102293)
(0.128948 -0.000981707 0.000122412)
(0.130293 -0.00113018 0.000144116)
(0.131838 -0.00130215 0.000167341)
(0.133617 -0.00150171 0.000192363)
(0.135668 -0.0017342 0.000220345)
(0.138033 -0.0020067 0.000253264)
(0.140765 -0.0023284 0.000293063)
(0.143924 -0.00271085 0.000340737)
(0.147587 -0.00316837 0.000396464)
(0.151848 -0.00371871 0.000460857)
(0.156821 -0.00438442 0.000536193)
(0.162647 -0.00519523 0.000626603)
(0.169502 -0.00619259 0.000737644)
(0.177604 -0.00743523 0.000875032)
(0.187235 -0.00900642 0.00104432)
(0.198765 -0.011026 0.00125306)
(0.212682 -0.0136693 0.00151649)
(0.229632 -0.0171975 0.00186776)
(0.250562 -0.0220219 0.00238101)
(0.276597 -0.0287077 0.00316994)
(0.309274 -0.0380958 0.00439941)
(0.350671 -0.0514402 0.00636523)
(0.403639 -0.0706208 0.00972248)
(0.472071 -0.0984823 0.0159584)
(0.562202 -0.136934 0.0287938)
(0.680633 -0.247386 0.0558055)
(0.267784 -0.00299179 -0.00112825)
(0.26904 -0.00302432 -0.00104613)
(0.27048 -0.00323084 -0.00103263)
(0.271872 -0.00349472 -0.00103112)
(0.273342 -0.00371884 -0.000993267)
(0.274862 -0.00383 -0.000923532)
(0.276395 -0.00378866 -0.000839288)
(0.277906 -0.00359571 -0.000752854)
(0.279359 -0.00328821 -0.000672635)
(0.28072 -0.00292441 -0.000602343)
(0.281971 -0.00256319 -0.00053698)
(0.2831 -0.00225002 -0.000468355)
(0.284109 -0.00201221 -0.000391515)
(0.285012 -0.00186087 -0.000307185)
(0.285831 -0.00179577 -0.000220456)
(0.286597 -0.00181001 -0.000137256)
(0.287343 -0.00189309 -6.08703e-05)
(0.288102 -0.0020348 7.73602e-06)
(0.288903 -0.00222892 6.79686e-05)
(0.289773 -0.00247482 0.000119217)
(0.290737 -0.00277649 0.000161663)
(0.29182 -0.00314041 0.000197172)
(0.293046 -0.00357379 0.000229584)
(0.294438 -0.0040848 0.000263758)
(0.296022 -0.00468364 0.000303696)
(0.297829 -0.00538272 0.000351322)
(0.299892 -0.00619569 0.000406857)
(0.302254 -0.00713729 0.000470099)
(0.304961 -0.00822526 0.000541619)
(0.308069 -0.00948383 0.000623579)
(0.311638 -0.0109468 0.000719429)
(0.31574 -0.0126585 0.00083197)
(0.320461 -0.0146733 0.000961726)
(0.325904 -0.0170562 0.00110815)
(0.332191 -0.0198877 0.00127344)
(0.33947 -0.0232718 0.00146493)
(0.347921 -0.0273461 0.00169642)
(0.357731 -0.0322863 0.00198181)
(0.36912 -0.0383234 0.00232863)
(0.382343 -0.0457658 0.00274371)
(0.397686 -0.0550273 0.003237)
(0.415455 -0.0666609 0.00381737)
(0.435869 -0.0813707 0.00448062)
(0.459213 -0.100119 0.00522871)
(0.485643 -0.124181 0.00610241)
(0.51512 -0.155216 0.00719463)
(0.547098 -0.195323 0.00874023)
(0.580954 -0.247102 0.0113395)
(0.615302 -0.316818 0.0163518)
(0.644261 -0.418665 0.0248697)
(0.401344 -0.00276357 -0.00117074)
(0.401972 -0.0028144 -0.00120523)
(0.402807 -0.00303859 -0.00133983)
(0.403669 -0.00333659 -0.00138912)
(0.404552 -0.00366378 -0.00136188)
(0.405426 -0.00396842 -0.00129353)
(0.406289 -0.00418779 -0.00119542)
(0.407143 -0.00426981 -0.00107085)
(0.407983 -0.004194 -0.000930208)
(0.408797 -0.00397948 -0.000787659)
(0.409575 -0.00367862 -0.000653811)
(0.410311 -0.00335969 -0.000532937)
(0.411 -0.00308774 -0.000423886)
(0.411646 -0.00291118 -0.000323225)
(0.412256 -0.00285629 -0.000228965)
(0.412844 -0.00293013 -0.000142786)
(0.413427 -0.00312716 -6.52762e-05)
(0.414027 -0.00343578 4.40206e-06)
(0.414665 -0.00384578 6.75637e-05)
(0.415365 -0.0043503 0.000126825)
(0.416148 -0.00494542 0.000183983)
(0.417037 -0.00563129 0.000238635)
(0.418052 -0.00641448 0.000289773)
(0.419215 -0.00730986 0.00033791)
(0.420547 -0.00834026 0.000385385)
(0.42207 -0.00953343 0.000435477)
(0.423806 -0.0109185 0.000491767)
(0.42578 -0.0125255 0.000557761)
(0.428021 -0.0143878 0.000636427)
(0.430565 -0.0165456 0.000729983)
(0.433457 -0.0190493 0.000840037)
(0.436748 -0.0219625 0.000967679)
(0.440492 -0.0253617 0.00111374)
(0.444752 -0.029336 0.00127964)
(0.449593 -0.0339909 0.00146766)
(0.455078 -0.0394565 0.00168053)
(0.461257 -0.0458932 0.00191792)
(0.468194 -0.0535031 0.00217909)
(0.475938 -0.062532 0.00246609)
(0.484514 -0.0732761 0.00277936)
(0.493873 -0.0860709 0.00311739)
(0.503903 -0.101317 0.00346212)
(0.514492 -0.119544 0.00378841)
(0.525415 -0.141377 0.00409666)
(0.536213 -0.167648 0.00440635)
(0.546588 -0.198951 0.00490839)
(0.555342 -0.237667 0.00563535)
(0.560448 -0.286565 0.00657593)
(0.557086 -0.347328 0.00721948)
(0.541706 -0.419416 0.00633367)
(0.482262 -0.00188836 -0.00120415)
(0.482661 -0.00192499 -0.00129349)
(0.483285 -0.00208432 -0.00151835)
(0.483996 -0.00230829 -0.00160795)
(0.484712 -0.00257568 -0.00159585)
(0.485377 -0.00286209 -0.00153864)
(0.48598 -0.00313148 -0.00144573)
(0.486517 -0.00334367 -0.00130945)
(0.486987 -0.00346844 -0.00113261)
(0.487389 -0.00349851 -0.000932287)
(0.487736 -0.00345369 -0.000731604)
(0.488046 -0.00337458 -0.000549979)
(0.488339 -0.00331043 -0.000397588)
(0.488632 -0.00330716 -0.000275517)
(0.488936 -0.0033995 -0.000178263)
(0.489255 -0.00360596 -0.000102326)
(0.489594 -0.00392961 -4.62278e-05)
(0.489958 -0.00437143 3.86897e-07)
(0.490351 -0.00493253 4.22483e-05)
(0.490777 -0.00561572 8.02015e-05)
(0.491245 -0.00642685 0.000116406)
(0.491766 -0.00737281 0.000152766)
(0.492355 -0.00846066 0.000189841)
(0.493028 -0.00969947 0.000227381)
(0.493803 -0.0111037 0.000264906)
(0.494696 -0.0126949 0.000302386)
(0.49572 -0.0145016 0.000341021)
(0.496886 -0.0165611 0.000383028)
(0.4982 -0.0189204 0.000430562)
(0.499671 -0.0216366 0.000485084)
(0.501306 -0.0247745 0.000547031)
(0.503114 -0.0284048 0.000615589)
(0.505106 -0.0326054 0.000689639)
(0.507289 -0.0374632 0.000769319)
(0.509669 -0.0430784 0.00085597)
(0.512243 -0.0495675 0.000949924)
(0.515001 -0.0570685 0.00104793)
(0.517916 -0.0657436 0.00114228)
(0.520945 -0.0757795 0.00122701)
(0.524012 -0.0873948 0.0012973)
(0.52708 -0.100812 0.00137421)
(0.530054 -0.116438 0.00144184)
(0.532639 -0.134609 0.00154271)
(0.534435 -0.155753 0.00167118)
(0.534928 -0.180314 0.0018007)
(0.53298 -0.209215 0.00175749)
(0.527705 -0.242072 0.00156259)
(0.517514 -0.278943 0.00107963)
(0.500394 -0.319325 0.000236501)
(0.473742 -0.361807 -0.000983241)
(0.517656 -0.00070491 -0.00121055)
(0.517989 -0.000731979 -0.00131753)
(0.518556 -0.000831024 -0.00158309)
(0.519245 -0.000972013 -0.00169671)
(0.519941 -0.00114583 -0.00169768)
(0.520575 -0.00134431 -0.00165348)
(0.521124 -0.00155675 -0.00157444)
(0.521577 -0.00177148 -0.00144607)
(0.521919 -0.00197977 -0.00126358)
(0.52215 -0.00217956 -0.00104152)
(0.522282 -0.00237633 -0.000807269)
(0.522345 -0.00258142 -0.000589085)
(0.522374 -0.00280954 -0.000406356)
(0.522399 -0.00307643 -0.000266328)
(0.522439 -0.00339744 -0.000166147)
(0.522501 -0.00378467 -9.81271e-05)
(0.522588 -0.00424712 -5.50572e-05)
(0.522694 -0.0047955 -2.81468e-05)
(0.522814 -0.00544098 -1.01844e-05)
(0.522942 -0.0061957 2.47744e-06)
(0.523073 -0.00707444 1.18877e-05)
(0.523205 -0.00809432 1.92727e-05)
(0.523338 -0.00927353 2.52886e-05)
(0.523474 -0.0106308 3.04815e-05)
(0.52362 -0.0121859 3.56286e-05)
(0.523785 -0.01396 4.20251e-05)
(0.523977 -0.0159762 5.14391e-05)
(0.524201 -0.0182626 6.4941e-05)
(0.524461 -0.0208554 8.15493e-05)
(0.524752 -0.0238018 9.87709e-05)
(0.525066 -0.0271591 0.00011417)
(0.525391 -0.0309935 0.000126006)
(0.525711 -0.0353797 0.000133463)
(0.526006 -0.0404023 0.000137174)
(0.526253 -0.046157 0.000139018)
(0.526418 -0.05275 0.000140533)
(0.526453 -0.0602971 0.000141214)
(0.526297 -0.068924 0.000138364)
(0.52586 -0.0787704 0.00012559)
(0.525026 -0.0899879 9.5622e-05)
(0.523598 -0.10279 1.54424e-05)
(0.52134 -0.117266 -9.73303e-05)
(0.517972 -0.133588 -0.000278196)
(0.513105 -0.151875 -0.000541907)
(0.506248 -0.172167 -0.000898986)
(0.496738 -0.194415 -0.00137289)
(0.483754 -0.218418 -0.0019824)
(0.466348 -0.243742 -0.00277112)
(0.443429 -0.269592 -0.00378437)
(0.413917 -0.294685 -0.00508264)
(0.517369 0.00052695 -0.00121641)
(0.517701 0.000503897 -0.00132431)
(0.518269 0.000460437 -0.00159089)
(0.518956 0.000406178 -0.00170503)
(0.519646 0.0003407 -0.00170639)
(0.520269 0.000260485 -0.00166251)
(0.520801 0.000153609 -0.00158399)
(0.52123 -6.90791e-07 -0.00145707)
(0.521541 -0.000225775 -0.0012778)
(0.521729 -0.000536963 -0.00106089)
(0.521806 -0.000933343 -0.000833226)
(0.521795 -0.00139811 -0.000622413)
(0.521729 -0.00190652 -0.00044707)
(0.521637 -0.00243654 -0.000313524)
(0.521537 -0.00297653 -0.000218823)
(0.521437 -0.00352708 -0.000155645)
(0.521338 -0.00409866 -0.000116148)
(0.521234 -0.00470901 -9.31703e-05)
(0.521119 -0.00537918 -8.12127e-05)
(0.520985 -0.00613058 -7.69003e-05)
(0.520823 -0.0069842 -7.83012e-05)
(0.520626 -0.0079609 -8.41974e-05)
(0.520387 -0.00908234 -9.38006e-05)
(0.520097 -0.0103721 -0.000106918)
(0.519749 -0.0118564 -0.000123736)
(0.519336 -0.013563 -0.000143913)
(0.518852 -0.0155197 -0.000166135)
(0.518288 -0.0177536 -0.000189267)
(0.517634 -0.0202927 -0.000213922)
(0.516878 -0.0231681 -0.000242126)
(0.516003 -0.026419 -0.000276087)
(0.514985 -0.0300954 -0.000318067)
(0.513792 -0.0342591 -0.000370478)
(0.512385 -0.0389819 -0.00043531)
(0.510712 -0.0443419 -0.000513953)
(0.508711 -0.0504213 -0.000608075)
(0.5063 -0.0573032 -0.000720808)
(0.503384 -0.0650686 -0.000857405)
(0.499847 -0.0737949 -0.00102522)
(0.495552 -0.0835517 -0.00123186)
(0.490326 -0.0943997 -0.00148687)
(0.483962 -0.106382 -0.00179931)
(0.476213 -0.119509 -0.00217946)
(0.466781 -0.133744 -0.00263903)
(0.455315 -0.148968 -0.00318672)
(0.441408 -0.164958 -0.00382866)
(0.424603 -0.181308 -0.0045666)
(0.404413 -0.197397 -0.00539231)
(0.38034 -0.212309 -0.00627055)
(0.351904 -0.224799 -0.00711346)
(0.481412 0.00171989 -0.00121968)
(0.481806 0.00171073 -0.00131256)
(0.482424 0.00174071 -0.00154209)
(0.483118 0.00178733 -0.00163528)
(0.4838 0.00183765 -0.00162651)
(0.484415 0.00187165 -0.00157231)
(0.484946 0.001852 -0.00148322)
(0.485389 0.00173068 -0.00135468)
(0.485736 0.00146652 -0.00119228)
(0.485983 0.00104416 -0.00101299)
(0.486134 0.000482112 -0.00083609)
(0.486198 -0.000174348 -0.000675706)
(0.486186 -0.000870915 -0.000539315)
(0.486105 -0.00156253 -0.000429392)
(0.485966 -0.00222409 -0.000344621)
(0.485774 -0.0028518 -0.000281644)
(0.485531 -0.00345825 -0.000236933)
(0.485238 -0.00406555 -0.000207441)
(0.484892 -0.00469935 -0.000190656)
(0.484487 -0.00538483 -0.000184618)
(0.484018 -0.00614518 -0.00018789)
(0.483476 -0.00700195 -0.000199478)
(0.482849 -0.00797605 -0.000218942)
(0.482125 -0.00908854 -0.000246524)
(0.481289 -0.0103616 -0.000282531)
(0.480324 -0.0118196 -0.000326329)
(0.479209 -0.013489 -0.000376408)
(0.477923 -0.0153978 -0.000431731)
(0.476444 -0.0175734 -0.000492711)
(0.474744 -0.0200426 -0.000560698)
(0.472796 -0.0228337 -0.00063767)
(0.470562 -0.0259795 -0.000726775)
(0.468 -0.0295182 -0.000831753)
(0.465054 -0.0334936 -0.000955654)
(0.461658 -0.0379533 -0.00110101)
(0.457734 -0.0429479 -0.00127106)
(0.453191 -0.0485273 -0.00147028)
(0.447925 -0.054737 -0.00170406)
(0.441821 -0.0616135 -0.00197825)