/*--------------------------------*- C++ -*----------------------------------*\
  =========                 |
  \\      /  F ield         | OpenFOAM: The Open Source CFD Toolbox
   \\    /   O peration     | Website:  https://openfoam.org
    \\  /    A nd           | Version:  6
     \\/     M anipulation  |
\*---------------------------------------------------------------------------*/
FoamFile
{
    version     2.0;
    format      ascii;
    class       volVectorField;
    location    "0";
    object      U;
}
// * * * * * * * * * * * * * * * * * * * * * * * * * * * * * * * * * * * * * //

dimensions      [0 1 -1 0 0 0 0];

internalField   nonuniform List<vector> 
13046
(
(0.476212 0.167406 0)
(0.580608 -0.1602 3.50158e-21)
(0.211128 -0.105409 7.83065e-21)
(0.462709 0.0852112 0)
(0.203594 -0.0330475 7.16001e-21)
(0.492677 -0.172449 0)
(0.505332 0.107708 -1.04798e-21)
(0.537026 -0.207437 -1.78712e-21)
(0.177889 -0.0227533 7.86329e-21)
(0.959666 0.420349 -2.49427e-21)
(1.03018 -0.439742 0)
(-0.0232553 -0.0302202 -4.85118e-21)
(0.595646 0.210231 6.57668e-21)
(0.673953 -0.232023 5.26591e-21)
(0.138847 -0.0773109 -4.2497e-21)
(0.910986 0.472647 -1.44468e-21)
(0.012391 -0.0578648 -7.76666e-21)
(1.07453 -0.362318 -1.76039e-21)
(0.28103 0.0441403 0)
(0.373056 -0.152784 3.8724e-21)
(0.458418 -0.0100962 -1.10071e-20)
(0.922192 0.46406 1.41525e-21)
(0.00197096 -0.050221 1.55526e-20)
(1.06611 -0.379517 -5.1154e-22)
(0.417564 0.095309 -4.45219e-21)
(0.49385 -0.131556 6.57497e-21)
(0.234117 -0.0803071 0)
(0.603102 0.239522 -1.53194e-22)
(0.698931 -0.229276 -1.55097e-21)
(0.140287 -0.0927096 1.47397e-20)
(0.48214 0.188336 0)
(0.605056 -0.148265 0)
(0.218535 -0.125583 -7.96981e-21)
(0.382682 0.0658058 1.56259e-20)
(0.25818 -0.0784531 -2.68092e-21)
(0.453872 -0.104777 -1.01918e-20)
(0.380542 0.0435321 4.39529e-23)
(0.265877 -0.0571594 0)
(0.426562 -0.102468 0)
(0.390435 0.189546 -5.62021e-21)
(0.361755 -0.238797 -7.16279e-21)
(0.617614 -0.0621968 5.23298e-21)
(0.367011 -0.0198489 -3.59475e-21)
(0.31067 -0.0276848 3.67641e-21)
(0.353902 -0.0729142 0)
(0.393412 -0.0112292 -2.29308e-21)
(0.287963 -0.00711724 0)
(0.361246 -0.0988076 1.18011e-21)
(0.497621 0.162896 0)
(0.586095 -0.181497 2.50449e-22)
(0.18234 -0.0861255 3.30407e-23)
(0.530034 -0.369962 -8.67552e-21)
(0.330032 0.206461 0)
(0.706273 0.0121438 6.08093e-21)
(0.587048 -0.405305 1.23543e-20)
(0.730306 0.0367714 6.54495e-21)
(0.293877 0.188113 -8.59397e-21)
(0.964655 -0.221925 1.01672e-21)
(0.765568 0.460387 0)
(0.174461 -0.18036 -6.51077e-21)
(0.770634 0.225002 3.09626e-21)
(0.790605 -0.383604 -3.00349e-21)
(0.072888 0.00892265 1.75888e-20)
(0.00115074 -0.0403739 -9.00607e-21)
(1.00151 -0.412878 1.53663e-21)
(0.927803 0.389471 4.48178e-21)
(0.726913 0.454429 0)
(0.93214 -0.186867 -4.83635e-21)
(0.220353 -0.218829 -1.89486e-21)
(0.694043 0.432312 2.34326e-21)
(0.900657 -0.173671 6.55412e-21)
(0.236882 -0.22724 2.57809e-21)
(0.9988 -0.231091 9.7978e-24)
(0.794516 0.479198 -9.31436e-23)
(0.158225 -0.175517 3.37997e-23)
(0.295084 0.0664396 0)
(0.36537 -0.168315 -4.21413e-21)
(0.485112 -0.0271556 7.80579e-21)
(0.101763 -0.129775 -7.13724e-21)
(0.83845 0.485259 6.71414e-21)
(1.03253 -0.275937 2.10872e-21)
(0.445654 0.105928 -2.33025e-21)
(0.509257 -0.152203 2.34436e-21)
(0.21098 -0.0625323 0)
(-0.00516127 -0.039746 8.03251e-21)
(1.01962 -0.418778 0)
(0.944054 0.40446 -2.63965e-21)
(0.969539 0.316598 4.60367e-21)
(0.00300073 -0.00445988 0)
(0.957449 -0.487822 1.24093e-21)
(0.0390735 0.0337143 0)
(1.03215 0.250912 0)
(0.92373 -0.570483 -1.54755e-22)
(0.77752 0.325014 6.06455e-21)
(0.81549 0.333307 -8.39316e-21)
(0.870739 -0.32465 -5.55934e-21)
(0.898574 -0.353688 2.59987e-21)
(0.0654998 -0.0679303 3.76167e-21)
(0.0459366 -0.0529678 -9.66838e-21)
(0.0137493 0.00567672 4.55815e-22)
(0.968055 0.295415 -4.50438e-21)
(0.938834 -0.502596 0)
(0.412798 0.0132031 2.07761e-23)
(0.263065 -0.00848083 0)
(0.392338 -0.124974 0)
(0.228609 0.126771 -1.56742e-20)
(0.664955 0.0642043 3.0678e-21)
(0.57505 -0.348394 0)
(0.327714 0.184605 -2.3781e-21)
(0.475504 -0.314423 0)
(0.652711 -0.00738501 1.17785e-20)
(0.896795 0.412635 0)
(-0.0258083 -0.0235982 6.56699e-21)
(0.947205 -0.43439 5.60263e-22)
(0.551261 0.185665 -4.60751e-21)
(0.635047 -0.210756 -2.30526e-21)
(0.153771 -0.0724275 -7.70358e-21)
(0.815199 0.384755 -3.49939e-21)
(0.779384 0.355157 3.26594e-21)
(0.936259 -0.318255 -1.45235e-21)
(0.0666477 -0.086811 -4.31178e-21)
(0.892251 -0.305884 1.49302e-21)
(0.0760444 -0.0861811 4.02795e-21)
(0.946647 0.429069 5.79779e-21)
(1.0273 -0.435105 1.43461e-21)
(-0.0240456 -0.029277 2.16394e-21)
(0.696981 0.291533 0)
(0.793513 -0.278791 3.85522e-21)
(0.101135 -0.0879207 -2.23923e-20)
(0.428977 0.207123 0)
(0.321895 -0.217647 7.21276e-21)
(0.629547 -0.08867 -2.76664e-22)
(0.0535298 0.0448321 0)
(1.00576 0.236121 0)
(0.910158 -0.559749 0)
(0.883548 0.337091 0)
(0.938041 -0.408459 6.82231e-21)
(0.0194146 -0.0304834 9.68801e-21)
(0.522525 0.211417 0)
(0.642516 -0.169558 0)
(0.201778 -0.131526 0)
(0.624402 0.136992 0)
(0.629506 -0.302908 0)
(0.141837 0.0225914 0)
(0.306871 0.179385 2.20053e-21)
(0.517674 -0.341044 0)
(0.670665 0.0136533 -6.35785e-21)
(0.230602 0.113947 1.51867e-20)
(0.642504 0.0597999 6.75918e-21)
(0.560694 -0.329559 -7.78603e-21)
(0.799903 0.245574 -6.99582e-21)
(0.82263 -0.393691 0)
(0.0570235 -0.00408227 -2.28481e-20)
(0.207743 0.0602503 0)
(0.567676 0.0637326 -1.49032e-20)
(0.517912 -0.265027 -2.01638e-21)
(0.686056 -0.445401 -3.4011e-21)
(0.773255 0.0990416 -6.88139e-21)
(0.733069 -0.461546 0)
(0.802198 0.130578 -3.96392e-21)
(0.208758 0.139415 -7.38555e-21)
(0.168434 0.11268 7.09378e-21)
(0.651172 0.107771 -9.41248e-22)
(0.617125 -0.334623 -4.00476e-21)
(0.164668 0.059895 4.38845e-21)
(0.979918 0.404741 2.54251e-21)
(-0.0250563 -0.0275988 -2.52282e-21)
(1.01175 -0.458465 2.26458e-21)
(0.917381 0.42173 1.52511e-21)
(-0.0258397 -0.0247482 9.87246e-22)
(0.987259 -0.433432 0)
(0.893399 0.356775 -1.39609e-22)
(0.957372 -0.40508 0)
(0.0145097 -0.0373858 -1.17021e-20)
(0.496067 0.278737 0)
(0.712386 -0.100325 -1.58586e-21)
(0.332768 -0.255669 -4.1714e-21)
(0.62917 0.0898149 -6.1256e-21)
(0.187174 0.0773419 0)
(0.583944 -0.315607 0)
(-0.0226825 -0.0204631 0)
(0.994266 -0.490825 0)
(1.00476 0.36918 -2.05654e-21)
(0.45892 0.251527 0)
(0.680321 -0.0843157 3.53063e-21)
(0.346625 -0.24879 -1.08447e-21)
(0.205606 0.0747762 0)
(0.584868 0.0634316 0)
(0.525771 -0.281061 0)
(0.590063 0.115685 -3.09009e-21)
(0.593619 -0.281354 0)
(0.153453 0.0182523 0)
(0.717099 -0.27463 2.60594e-23)
(0.108787 -0.0552783 5.23866e-21)
(0.666553 0.266425 -9.50918e-21)
(0.760704 -0.265741 0)
(0.110457 -0.0816535 2.31371e-20)
(0.972289 0.362439 5.19876e-21)
(-0.00998246 -0.0217302 -7.27404e-21)
(0.994393 -0.464527 5.51145e-21)
(0.0406332 0.0318989 -6.65247e-21)
(0.973003 0.253879 -2.85121e-21)
(0.913349 -0.529903 -6.36651e-21)
(1.01659 0.288465 7.405e-21)
(0.948491 -0.532574 0)
(0.0115641 0.0117465 6.51762e-21)
(0.554441 -0.414812 3.49078e-21)
(0.763441 0.00606224 -2.67587e-21)
(0.374748 0.262429 -7.21403e-21)
(0.57902 0.157284 6.06551e-21)
(0.825612 0.49616 -3.50493e-21)
(0.121714 -0.144432 4.39914e-21)
(1.03611 -0.264524 -9.78792e-24)
(0.958283 -0.532882 0)
(1.02598 0.309692 2.02924e-21)
(-0.000654535 0.000543137 0)
(0.409543 0.0412728 1.1551e-20)
(0.246642 -0.0305487 0)
(0.425498 -0.128737 -3.82966e-21)
(0.580247 0.245076 0)
(0.692167 -0.207955 2.2349e-22)
(0.16746 -0.111946 -4.36228e-21)
(0.0529267 0.0429653 -5.1097e-21)
(0.981306 0.240437 0)
(0.904063 -0.545458 7.33573e-21)
(0.615439 0.180367 0)
(0.700285 -0.282246 -9.5353e-21)
(0.110085 -0.0414632 0)
(-0.0290896 -0.0261764 0)
(0.976456 -0.46604 -1.44748e-21)
(0.970634 0.400525 0)
(0.335694 0.235235 7.80465e-21)
(0.768813 0.0248124 0)
(0.590548 -0.437308 0)
(0.990822 0.280444 -6.49575e-21)
(0.937856 -0.520607 0)
(0.0178388 0.0136814 4.17875e-23)
(0.72355 0.120071 -7.911e-21)
(0.674897 -0.397348 -2.9898e-21)
(0.160165 0.0865065 1.00405e-20)
(0.693359 0.310057 0)
(0.802767 -0.264705 -3.60784e-21)
(0.114432 -0.102187 -2.33248e-21)
(0.845993 -0.558053 9.81207e-21)
(0.944611 0.173829 5.16984e-21)
(0.124688 0.09973 -4.01142e-21)
(0.843769 0.139263 0)
(0.767157 -0.492532 4.0695e-21)
(0.162923 0.115127 1.46238e-22)
(-0.0292755 -0.0263506 5.07519e-21)
(0.952672 -0.474899 0)
(0.976719 0.387208 1.42606e-21)
(0.393578 0.2281 -1.04328e-20)
(0.430815 -0.301845 5.19375e-21)
(0.676612 -0.0413677 5.05218e-22)
(0.824779 0.437647 -1.4703e-21)
(-0.0194836 -0.0185854 5.44553e-22)
(0.966916 -0.377893 0)
(0.253275 0.0220647 -2.36794e-21)
(0.45323 0.0128093 8.92964e-21)
(0.402557 -0.159438 -1.15548e-20)
(0.72323 0.159426 -3.15124e-21)
(0.702174 0.12778 -3.30754e-23)
(0.70922 -0.378802 7.2974e-21)
(0.667256 -0.376011 7.15567e-21)
(0.149565 0.0690886 -7.99411e-21)
(0.116342 0.0445334 4.12439e-21)
(0.0782804 -0.111126 9.34237e-21)
(0.858343 0.488885 -3.60211e-21)
(1.05732 -0.289799 0)
(0.656875 0.302832 0)
(0.77798 -0.23441 0)
(0.146216 -0.12153 9.26009e-21)
(0.879426 0.164796 1.38574e-21)
(0.804077 -0.513839 0)
(0.134619 0.0975606 0)
(0.85224 0.364976 -2.99885e-21)
(0.941737 -0.360925 0)
(0.0355317 -0.0581398 -4.24366e-21)
(0.346448 -0.005674 -2.4448e-21)
(0.371714 -0.0595592 -3.52392e-21)
(0.313843 -0.0491695 1.22361e-21)
(0.781257 0.144117 5.04593e-21)
(0.732843 -0.438633 0)
(0.142951 0.0878229 6.84166e-21)
(0.663655 0.322386 0)
(0.797937 -0.227298 -4.45657e-21)
(0.154731 -0.135968 5.90604e-21)
(0.632604 0.207559 -9.77428e-21)
(0.671446 0.228253 7.87192e-21)
(0.403312 0.242923 8.25654e-21)
(0.442571 -0.318961 -1.50209e-20)
(0.695416 -0.0369191 1.10778e-20)
(0.808036 0.170548 5.16465e-21)
(0.768098 -0.44941 -6.11107e-21)
(0.112497 0.0667673 -6.24004e-21)
(0.877978 0.370649 1.10538e-20)
(0.0224568 -0.0489893 1.50285e-20)
(0.962556 -0.381299 3.21619e-21)
(0.328695 0.168586 3.63819e-21)
(0.450284 -0.294511 0)
(0.630729 -0.0103685 -3.97672e-21)
(0.228557 0.160971 7.98272e-21)
(0.790899 0.090371 3.92933e-21)
(0.687374 -0.466521 0)
(0.759628 0.387251 1.14137e-21)
(0.904233 -0.263203 3.73098e-21)
(0.11676 -0.125074 -2.66798e-21)
(0.366203 0.232037 -6.75055e-22)
(0.50485 -0.360608 0)
(0.713282 -0.00418183 -8.42779e-21)
(0.790889 0.408205 0)
(0.814508 0.408588 0)
(0.940237 -0.279149 2.32971e-21)
(0.102412 -0.118133 6.94995e-21)
(0.95467 -0.304704 -3.28848e-21)
(0.0788432 -0.0992576 -7.36906e-21)
(-0.0199785 -0.0236592 5.61032e-21)
(1.00367 -0.474479 0)
(0.991986 0.380305 3.13362e-21)
(0.743235 0.344837 0)
(0.86017 -0.283267 1.76533e-21)
(0.0980232 -0.100276 -2.40565e-21)
(0.839872 -0.402243 -6.84684e-22)
(-0.0191921 -0.0193859 -8.08167e-21)
(0.793325 0.393873 -2.33967e-21)
(0.524682 0.0325724 1.20768e-20)
(0.234871 0.059019 0)
(0.459453 -0.224451 4.23642e-21)
(0.724701 0.209152 -7.34986e-21)
(0.751992 -0.352303 0)
(0.0838016 7.67626e-05 -1.35313e-20)
(-0.00251077 -0.0257842 4.64687e-21)
(0.947028 0.357963 -9.62438e-21)
(0.981389 -0.445528 -4.37871e-21)
(0.607886 -0.425703 4.53307e-21)
(0.7511 0.0426723 0)
(0.291322 0.201136 9.73924e-21)
(0.867177 -0.55639 1.15817e-20)
(0.959622 0.197555 3.11442e-21)
(0.0954478 0.0759556 0)
(0.640854 -0.254067 4.98934e-21)
(0.132662 -0.0342027 0)
(0.746305 0.259103 -7.88869e-21)
(0.794634 -0.336171 -3.32262e-21)
(0.0692999 -0.0375431 -4.13271e-21)
(0.630204 -0.269378 -1.73209e-22)
(0.131801 -0.0179304 -1.74761e-23)
(0.904778 0.465545 7.20695e-21)
(0.0228687 -0.0665931 -1.09704e-20)
(1.06383 -0.351526 2.58788e-21)
(0.540491 -0.426626 -4.54281e-21)
(0.784613 -0.00760255 -8.32818e-22)
(0.410393 0.291193 0)
(0.779655 0.278062 8.03792e-21)
(0.836286 -0.354794 4.05263e-21)
(0.0556833 -0.0321431 1.00166e-20)
(0.643474 0.132042 0)
(0.632365 -0.323816 2.93318e-21)
(0.144297 0.0378943 0)
(0.674907 0.043236 3.92321e-21)
(0.554979 -0.358815 0)
(0.265494 0.150749 0)
(0.482334 0.136206 3.23047e-21)
(0.552765 -0.175736 5.5231e-21)
(0.189499 -0.0702345 -1.3145e-23)
(0.260909 0.184699 -9.90741e-21)
(0.779597 0.0692972 -9.50484e-21)
(0.657661 -0.455021 -1.21804e-20)
(0.990797 0.336836 3.83388e-21)
(0.976693 -0.487921 -4.65051e-21)
(-0.00769461 -0.0121786 -1.09394e-22)
(0.874933 -0.539105 -7.89022e-21)
(0.949019 0.210973 -3.15679e-21)
(0.0791809 0.0625225 -5.14025e-21)
(0.622322 0.396283 7.27546e-21)
(0.304721 -0.268259 -3.84951e-21)
(0.847078 -0.133517 0)
(0.826064 0.454084 -1.96854e-21)
(0.801696 0.43812 1.83873e-21)
(0.969395 -0.267428 7.35096e-22)
(0.998957 -0.278592 -2.96698e-21)
(0.0998984 -0.123308 2.52443e-21)
(0.115071 -0.133649 2.24985e-21)
(-0.0206895 -0.0186131 8.20833e-21)
(0.881396 -0.39525 7.54085e-22)
(0.808575 0.401781 -1.01279e-21)
(0.841499 0.446256 1.06052e-22)
(-0.018584 -0.0208513 0)
(0.998162 -0.377529 0)
(0.761985 0.179114 1.16969e-20)
(0.751999 -0.400559 1.59178e-21)
(0.104327 0.0430378 0)
(-0.014621 -0.0254861 1.40049e-20)
(0.977344 0.376563 -3.94996e-21)
(1.00665 -0.461004 0)
(0.701827 0.403622 -1.02501e-20)
(0.734518 0.413102 7.64315e-21)
(0.881724 -0.204827 -4.02224e-21)
(0.906728 -0.22534 -1.52473e-21)
(0.198311 -0.188454 4.44882e-21)
(0.166271 -0.165501 2.23108e-21)
(-0.00821575 -0.00676176 0)
(0.941217 -0.543465 0)
(1.05273 0.30473 -1.04248e-21)
(0.77019 0.43145 1.7265e-21)
(-0.0175699 -0.0148103 -5.10206e-21)
(0.937114 -0.356819 0)
(0.434034 -0.0433133 1.53382e-23)
(0.313865 0.0404497 -5.22289e-21)
(0.325731 -0.115711 -2.5875e-21)
(0.847721 0.417301 2.62103e-21)
(0.938217 -0.41064 -8.19623e-22)
(-0.0228481 -0.0203898 -1.02086e-20)
(0.547458 0.29587 -9.0132e-21)
(0.732944 -0.135251 7.22227e-21)
(0.277146 -0.219605 4.62351e-23)
(1.01201 0.356665 -9.88876e-23)
(0.986117 -0.501429 -6.05122e-21)
(-0.0186298 -0.0166723 2.85281e-21)
(0.736619 -0.410684 -3.02663e-23)
(-0.017569 -0.0235644 9.30842e-21)
(0.772846 0.329403 5.92022e-22)
(0.353165 0.159021 4.86076e-21)
(0.374569 -0.228513 3.076e-22)
(0.585813 -0.0445719 -1.28695e-20)
(0.476568 0.0393021 0)
(0.447448 -0.184928 1.27941e-20)
(0.227294 0.0183219 -6.59188e-21)
(0.93058 0.444705 -5.92605e-21)
(-0.0206302 -0.0305931 -6.45051e-21)
(1.03791 -0.42018 6.37392e-23)
(0.501682 0.0502317 0)
(0.468104 -0.205416 4.43051e-21)
(0.214831 0.0330913 9.32772e-21)
(0.41051 -0.0400211 -5.29736e-21)
(0.313834 0.0205694 5.51616e-21)
(0.327676 -0.0973665 -1.36907e-21)
(0.319549 0.234281 4.75315e-21)
(0.800981 0.0425599 3.30247e-21)
(0.637568 -0.475827 -6.67236e-21)
(0.502718 -0.010902 0)
(0.390765 -0.186785 0)
(0.278582 0.0808762 -7.73375e-22)
(0.526004 0.0175798 -6.49969e-21)
(0.435367 -0.213166 -3.43192e-21)
(0.258867 0.0784749 -1.09461e-22)
(0.585823 0.376591 -1.10769e-20)
(0.820269 -0.113767 5.32615e-21)
(0.341596 -0.296063 7.70035e-21)
(-0.0120875 -0.0384714 -9.78636e-21)
(-0.0170806 -0.0348692 9.94772e-21)
(1.04944 -0.416006 -1.5814e-21)
(1.03828 -0.430648 -1.15964e-21)
(0.945555 0.439981 -5.35425e-21)
(0.957023 0.429036 7.99799e-21)
(1.0075 0.338299 -4.77291e-21)
(0.979302 -0.498553 3.90738e-21)
(-0.0113321 -0.0102707 0)
(0.292402 -0.271036 -4.97845e-21)
(0.654117 0.426717 -2.25835e-21)
(0.880382 -0.142465 0)
(0.415951 0.228233 0)
(0.386777 -0.271579 4.74639e-21)
(0.665543 -0.0607491 -3.93654e-21)
(0.859104 0.119677 0)
(0.758499 -0.515075 -4.21105e-21)
(0.195671 0.143816 -1.5129e-22)
(0.813346 -0.467174 -1.19899e-21)
(-0.0253849 -0.0304242 0)
(0.917995 0.333059 2.17029e-21)
(0.0225255 0.0208066 0)
(1.036 0.270619 0)
(0.933393 -0.561787 -2.74342e-21)
(0.943829 0.415743 -1.89638e-21)
(-0.0273927 -0.0264455 0)
(0.996012 -0.448011 1.42053e-21)
(-0.0141913 -0.0199239 3.46146e-32)
(0.691949 -0.384886 3.92803e-23)
(0.710342 0.317767 -5.33025e-22)
(0.727492 -0.337889 -2.27025e-23)
(-0.0126242 -0.0141682 -3.45322e-32)
(0.6737 0.362483 4.89303e-22)
(0.837605 -0.447276 8.14975e-21)
(0.849445 0.227848 0)
(0.0663303 0.0288332 1.32666e-20)
(0.906016 -0.521651 8.20351e-22)
(-0.0214641 -0.0225284 0)
(1.03851 0.322257 0)
(0.90483 0.329522 4.89235e-21)
(0.939853 -0.43045 -4.20049e-21)
(0.0145853 -0.0214865 -6.86701e-21)
(0.886936 0.490627 -6.8764e-21)
(0.00920767 -0.0507972 -3.91362e-21)
(1.09493 -0.344188 0)
(0.551825 0.16268 -2.46795e-21)
(0.148468 -0.0468605 2.62735e-21)
(0.619903 -0.230134 -2.41271e-21)
(0.942471 -0.551565 0)
(0.000135921 0.00146369 -4.73426e-21)
(1.05068 0.294622 -1.29835e-21)
(0.836731 0.103183 3.8212e-21)
(0.220747 0.162813 2.70656e-21)
(0.730266 -0.501457 0)
(0.818582 -0.505232 0)
(0.880538 0.182825 0)
(0.109181 0.0792268 -4.82418e-21)
(-0.00380936 -0.00832937 0)
(0.416872 -0.206927 -5.93529e-22)
(0.40726 0.197188 1.43673e-22)
(0.830015 -0.424174 -6.9578e-22)
(-0.0209986 -0.022525 5.62913e-21)
(0.821585 0.378859 1.19512e-21)
(0.51586 0.13733 6.39655e-21)
(0.167654 -0.0466748 -6.26537e-21)
(0.573911 -0.208414 -2.79977e-21)
(0.960215 -0.519371 -4.86405e-21)
(1.03644 0.335821 2.10893e-21)
(-0.0179808 -0.0142323 0)
(-0.0101049 -0.00973966 4.94025e-21)
(1.06118 0.303646 0)
(0.923519 -0.546745 3.6895e-21)
(0.961642 0.399206 2.88232e-21)
(-0.0124044 -0.0327568 -1.4994e-20)
(1.01984 -0.437226 -5.08028e-21)
(0.0501875 -0.0868148 1.12828e-20)
(1.0465 -0.323367 -3.14825e-21)
(0.878172 0.466565 0)
(0.565368 0.382908 1.40155e-20)
(0.824018 -0.0964618 -6.78705e-21)
(0.385957 -0.331588 7.29668e-21)
(0.950924 -0.242589 -1.08235e-21)
(0.771099 0.442418 -4.39617e-21)
(0.151507 -0.161246 6.95333e-21)
(0.0454331 -0.0851151 1.00909e-20)
(0.881304 0.494309 0)
(1.0848 -0.317525 1.88196e-21)
(0.579736 0.286079 2.27e-21)
(0.623426 0.312931 0)
(0.729949 -0.173505 7.58242e-21)
(0.773242 -0.194954 -8.10825e-21)
(0.21573 -0.16593 -4.87408e-21)
(0.193418 -0.16153 0)
(0.544558 0.278687 2.21381e-21)
(0.713955 -0.147067 0)
(0.253891 -0.193116 -2.3059e-21)
(0.688848 0.415607 0)
(0.883786 -0.188472 6.49263e-21)
(0.22436 -0.211178 -1.60444e-21)
(0.856716 -0.521217 3.99938e-21)
(0.922473 0.203934 -3.39906e-21)
(0.0842999 0.0618075 1.05209e-20)
(0.966641 -0.522599 0)
(1.01774 0.326404 -7.3162e-22)
(-0.00864045 -0.00592801 0)
(0.0498265 0.033599 3.40869e-21)
(0.939114 0.243364 2.06346e-21)
(0.893659 -0.510525 2.57146e-21)
(0.780751 -0.344934 -2.09384e-23)
(-0.0144434 -0.01378 -2.82613e-24)
(0.705978 0.382509 0)
(0.416828 0.177133 -4.44089e-21)
(0.427031 0.167476 0)
(0.293035 -0.176876 1.13847e-21)
(0.589502 -0.095469 -1.5571e-20)
(0.268084 -0.15399 -1.44063e-21)
(0.577574 -0.113027 9.95284e-21)
(0.626952 0.37288 0)
(0.58031 0.343125 1.43701e-21)
(0.290095 -0.242156 -1.79209e-23)
(0.824366 -0.158869 -4.26349e-21)
(0.262264 -0.225614 -1.17367e-20)
(0.785117 -0.137594 9.12925e-21)
(0.719691 -0.426555 0)
(-0.019695 -0.027518 -1.01529e-20)
(0.811224 0.317319 0)
(0.967692 -0.513897 3.09729e-21)
(1.02945 0.338378 -7.11564e-22)
(-0.017135 -0.014175 -2.99457e-21)
(0.443046 0.268925 2.70133e-21)
(0.425589 -0.321136 5.36184e-21)
(0.718231 -0.054243 -1.24504e-20)
(0.818036 -0.539592 -8.80068e-21)
(0.910737 0.158412 -8.70414e-21)
(0.142443 0.110781 0)
(0.0651323 -0.0992835 -1.20657e-20)
(1.03625 -0.310037 3.34881e-21)
(0.864325 0.466719 0)
(0.909582 -0.453493 0)
(0.917191 0.388929 0)
(-0.0269417 -0.0255689 0)
(0.921502 -0.469856 0)
(0.949667 0.379422 -2.70459e-21)
(-0.0286626 -0.0269186 0)
(0.733917 0.393636 4.27237e-21)
(0.891378 -0.241384 -2.32133e-21)
(0.146819 -0.147219 -3.30234e-21)
(0.30345 0.148382 1.28238e-21)
(0.459862 -0.283284 0)
(0.611216 0.00455684 -4.2814e-21)
(0.966128 0.409355 -3.35832e-21)
(-0.0163771 -0.0323412 -8.69333e-21)
(1.03055 -0.438945 7.26873e-21)
(0.85207 -0.471525 0)
(0.876923 0.230144 0)
(0.0637756 0.037709 -1.14422e-20)
(0.0152653 -0.0511335 -2.87076e-21)
(0.992486 -0.387543 -5.42174e-21)
(0.900272 0.397164 -1.00267e-20)
(0.552806 0.33337 -1.46384e-21)
(0.324005 -0.26569 7.8698e-21)
(0.771135 -0.119515 -4.72155e-21)
(0.706807 0.096559 7.64969e-21)
(0.637694 -0.384876 -4.42791e-21)
(0.196029 0.109563 -9.79635e-21)
(0.381571 0.195509 -8.6777e-23)
(0.392768 -0.264102 1.57129e-21)
(0.634512 -0.0490309 5.15689e-21)
(-0.0212204 -0.0272697 3.39245e-21)
(1.01748 -0.460666 -3.04747e-21)
(0.981699 0.396925 -3.41977e-21)
(0.847089 0.38965 1.90966e-21)
(0.959543 -0.343801 1.71945e-21)
(0.0462032 -0.072044 0)
(0.362777 0.1513 4.81585e-21)
(0.343489 -0.200468 -9.98377e-21)
(0.568808 -0.059411 8.50594e-21)
(0.88315 0.499955 -2.8394e-21)
(0.0337864 -0.0744177 -4.45743e-21)
(1.09805 -0.323854 -1.4005e-22)
(0.517722 0.230669 2.76521e-21)
(0.657939 -0.157875 0)
(0.222987 -0.153995 0)
(0.567149 0.0913737 1.14697e-20)
(0.547619 -0.262412 -2.71801e-21)
(0.17814 0.0361125 0)
(0.809473 -0.476426 0)
(0.852173 0.185347 -7.38334e-21)
(0.100561 0.0679204 5.05243e-21)
(0.866776 0.465659 0)
(-0.012626 -0.0287985 1.37191e-21)
(1.05301 -0.371188 -1.07212e-21)
(0.864773 0.477479 -2.46639e-21)
(-0.00627537 -0.033658 -4.37757e-21)
(1.07112 -0.356286 1.42762e-21)
(0.0210632 -0.0595129 -2.60795e-21)
(1.0063 -0.372904 3.0266e-21)
(0.896217 0.413581 9.24338e-21)
(0.73309 0.0831919 3.42352e-21)
(0.649129 -0.414949 8.88821e-21)
(0.220467 0.133373 0)
(-0.0146743 -0.0220396 -1.25667e-21)
(1.02338 -0.364288 1.0061e-21)
(0.826016 0.456052 0)
(0.00515892 -0.0190311 0)
(0.95978 -0.448428 3.21572e-21)
(0.934963 0.337074 1.12972e-21)
(-0.0110211 -0.019014 -5.08921e-21)
(0.586718 -0.357361 -3.00994e-22)
(0.635409 0.264617 0)
(0.570134 0.337149 7.64635e-22)
(0.649415 -0.280387 0)
(-0.00885652 -0.00967536 -5.09248e-21)
(0.0399637 -0.079697 4.97606e-24)
(1.06969 -0.330947 3.4589e-22)
(0.887321 0.480669 0)
(-0.0277001 -0.0255969 0)
(0.99519 -0.472629 0)
(0.988244 0.394066 -4.1268e-21)
(0.936495 0.439667 3.06803e-21)
(0.930418 0.429318 -2.48191e-21)
(-0.00294845 -0.046437 4.91555e-21)
(1.0531 -0.396204 5.50804e-22)
(0.00101068 -0.0484264 0)
(1.03806 -0.39578 0)
(0.941149 0.318736 -2.22175e-21)
(0.948298 -0.464701 -2.19502e-21)
(0.00837565 -0.00990161 0)
(0.182193 0.142207 0)
(0.786671 -0.54201 0)
(0.895601 0.132709 0)
(0.418877 0.132612 -6.01981e-21)
(0.247347 -0.117485 1.38336e-20)
(0.535677 -0.121333 -5.51472e-21)
(0.927061 0.272412 -6.43867e-21)
(0.907979 -0.483988 -8.63339e-22)
(0.0300179 0.0134386 -1.0043e-20)
(0.0451723 0.0261196 -6.52079e-21)
(0.91839 0.253567 8.95583e-21)
(0.888549 -0.490377 1.19714e-21)
(0.865459 0.504401 -3.48899e-21)
(0.0685597 -0.104285 -4.82527e-21)
(1.08127 -0.293872 0)
(0.641732 0.390914 0)
(0.846633 -0.159722 -1.92753e-21)
(0.263621 -0.234221 1.1505e-20)
(0.581614 0.321091 0)
(0.764348 -0.148407 -9.48316e-21)
(0.264394 -0.219036 1.45985e-23)
(0.841292 0.260294 8.88625e-21)
(0.857977 -0.423391 -1.11035e-21)
(0.0454764 0.000846266 5.79086e-21)
(0.861858 0.255448 0)
(0.863776 -0.442009 -1.05232e-21)
(0.0466187 0.0103798 -5.29626e-21)
(0.338623 0.125061 0)
(0.348071 -0.187536 1.57454e-20)
(0.538306 -0.0491903 0)
(0.635264 0.331244 0)
(0.791361 -0.193312 5.22034e-21)
(0.197958 -0.1739 -1.75089e-21)
(0.0110478 0.0108002 1.02445e-20)
(0.929016 -0.564165 6.09737e-21)
(1.05794 0.278726 0)
(0.96965 0.360694 5.52269e-23)
(-0.0280542 -0.0282178 -3.1232e-21)
(0.88857 -0.483017 -9.27039e-22)
(0.959824 0.33953 2.01586e-22)
(-0.0267355 -0.0298627 0)
(0.85398 -0.48186 2.54252e-21)
(0.465542 0.238211 -3.28349e-21)
(0.31281 -0.218991 1.7008e-21)
(0.662391 -0.103294 1.51056e-22)
(0.856722 -0.442051 -1.99827e-22)
(-0.0247311 -0.0258291 -1.29129e-20)
(0.886113 0.373035 0)
(0.871769 0.41362 -8.11218e-21)
(0.0379517 -0.0708519 0)
(0.992105 -0.350506 0)
(-0.0239116 -0.0284467 5.12045e-21)
(0.807602 -0.453746 9.83217e-22)
(0.881431 0.342724 -1.57099e-21)
(0.452268 0.0633096 -8.02668e-21)
(0.220112 -0.0158083 -8.38677e-21)
(0.462278 -0.162985 -3.76785e-23)
(0.691412 0.256319 1.38412e-21)
(0.766436 -0.293528 1.24147e-21)
(0.0942523 -0.0592395 5.30416e-21)
(0.605051 -0.398809 -1.02247e-20)
(0.716454 0.059518 -1.24927e-20)
(0.255925 0.155706 0)
(-0.0194488 -0.018591 0)
(0.925655 -0.526005 1.12046e-21)
(1.04429 0.325335 0)
(0.838481 -0.484362 0)
(0.878824 0.213547 0)
(0.0774299 0.0505282 0)
(0.0169898 -0.0601003 0)
(0.895887 0.488851 2.47054e-21)
(1.09385 -0.343102 -1.77278e-21)
(0.733711 0.275673 0)
(0.801767 -0.318635 -6.35069e-22)
(0.0767382 -0.0519347 -7.01839e-24)
(0.403116 0.112979 5.8153e-21)
(0.252381 -0.106986 -1.18833e-20)
(0.510178 -0.114607 0)
(0.953094 -0.514944 4.59782e-21)
(1.02783 0.347507 -2.00413e-21)
(-0.0228445 -0.0197543 0)
(0.00163808 -0.0337893 5.97788e-21)
(0.983395 -0.427232 -2.01853e-22)
(0.928103 0.372051 -2.27547e-22)
(0.903233 0.446908 0)
(0.889287 0.443278 -2.13501e-21)
(-0.0198261 -0.0273609 -3.15204e-21)
(-0.0216441 -0.0245963 3.90122e-21)
(1.0312 -0.401697 7.9879e-22)
(1.0119 -0.405686 -6.56944e-22)
(0.693479 0.165433 0)
(0.692367 -0.354286 -8.48765e-21)
(0.11643 0.0291179 -6.4497e-21)
(0.802639 -0.427094 -1.14689e-20)
(0.814383 0.206988 0)
(0.0788136 0.0348014 7.0301e-21)
(0.528514 0.104913 6.5231e-21)
(0.544544 -0.228262 -4.61278e-21)
(0.168118 -0.00354559 -1.02534e-20)
(0.914014 -0.500578 -2.41844e-21)
(1.00311 0.353427 -2.06022e-21)
(0.897662 -0.510101 1.08381e-21)
(-0.0274656 -0.0265313 3.30814e-21)
(1.01515 0.335582 1.93247e-21)
(-0.0249915 -0.0263466 0)
(0.817196 0.315316 0)
(0.88178 -0.368674 0)
(0.0434474 -0.0410923 -6.54236e-21)
(1.01471 0.361455 -2.31651e-21)
(1.00453 0.363297 5.91565e-21)
(0.961808 -0.501307 -1.58205e-21)
(0.945189 -0.495003 4.2941e-21)
(-0.0267043 -0.023081 -8.75117e-21)
(-0.0282285 -0.0252845 8.95997e-24)
(0.791106 0.1894 0)
(0.772398 -0.427993 1.08877e-20)
(0.101567 0.0532171 -9.11425e-21)
(0.645845 0.188062 -6.04597e-21)
(0.717372 -0.307302 7.58322e-21)
(0.0968972 -0.0256395 0)
(0.89129 0.481072 0)
(-0.00148812 -0.0419928 -6.05396e-22)
(1.08249 -0.362215 -1.37166e-21)
(0.696328 0.185965 -4.44606e-21)
(0.711602 -0.342626 0)
(0.101766 0.0119046 1.06839e-20)
(0.568709 0.131889 -2.63289e-21)
(0.594958 -0.258977 5.41307e-21)
(0.146228 -0.00680164 -5.93441e-21)
(0.889342 0.457537 0)
(-0.0151128 -0.0299217 0)
(1.05247 -0.388624 1.96126e-21)
(0.742291 0.298647 0)
(0.831113 -0.308958 -1.27038e-21)
(0.074979 -0.0668458 6.5066e-21)
(0.714991 -0.509992 0)
(0.839606 0.0878367 0)
(0.252084 0.18965 3.47551e-22)
(0.552628 0.346346 3.59165e-22)
(0.7852 -0.107475 0)
(0.346249 -0.288281 -6.04694e-21)
(0.888608 -0.572162 -4.4576e-21)
(0.0788994 0.0654795 0)
(0.995842 0.21296 0)
(-0.00732407 -0.012097 1.22398e-20)
(0.550811 -0.2763 8.31322e-22)
(0.537126 0.261817 -2.01232e-22)
(0.715368 0.227177 0)
(0.752172 -0.329664 -4.65179e-21)
(0.0825556 -0.0217256 0)
(0.920838 0.463721 -4.75045e-21)
(-0.00481294 -0.0434699 -1.65683e-20)
(1.07172 -0.381331 3.66497e-21)
(0.46417 -0.379674 0)
(0.797833 -0.052518 4.52292e-21)
(0.487053 0.337113 0)
(0.68308 0.395998 0)
(-0.0146651 -0.0108781 3.03076e-21)
(0.825733 -0.332712 0)
(0.245414 0.0993499 -6.33306e-21)
(0.258981 0.120847 6.47455e-21)
(0.485296 -0.272842 0)
(0.582613 0.033146 -5.44971e-21)
(0.504183 -0.300196 1.00153e-20)
(0.613389 0.0295109 4.33981e-21)
(0.527126 0.0824446 -6.13942e-21)
(0.515893 -0.226796 -6.21841e-21)
(0.186792 0.0195509 0)
(0.316432 0.14074 -5.60134e-21)
(0.279504 0.114687 0)
(0.41414 -0.246544 0)
(0.581656 -0.018631 0)
(0.433101 -0.243144 5.77466e-21)
(0.56437 0.002335 -3.43788e-23)
(0.681989 0.214096 -3.81142e-22)
(0.677573 -0.300089 3.35519e-21)
(0.112625 -0.011365 7.30007e-21)
(0.651851 0.174744 1.03945e-20)
(0.676954 -0.312277 0)
(0.115967 0.00321126 0)
(-0.0252214 -0.029559 0)
(0.854475 -0.500825 0)
(0.993578 0.326942 -1.62439e-21)
(0.50402 0.250486 9.0245e-21)
(0.677115 -0.127742 0)
(0.271742 -0.194601 -3.14616e-21)
(1.00418 0.375033 5.63766e-21)
(0.98538 -0.490815 -2.12354e-21)
(-0.0268816 -0.022946 4.99698e-21)
(0.857201 0.288775 0)
(0.888162 0.304313 -4.70837e-21)
(0.887759 -0.416546 1.38437e-21)
(0.914895 -0.431036 -4.15363e-21)
(0.0320911 -0.0119216 7.1829e-21)
(0.0222692 -0.0127886 6.62763e-21)
(0.491256 0.226662 0)
(0.650005 -0.135235 0)
(0.254948 -0.174611 -1.49809e-21)
(0.676503 0.37691 -3.46866e-21)
(0.84654 -0.198495 0)
(0.202182 -0.184319 -3.83056e-21)
(0.794329 0.270683 2.5401e-21)
(0.836897 -0.378745 0)
(0.0502842 -0.018945 -6.61739e-21)
(0.347096 0.061536 -6.29751e-21)
(0.452674 -0.0741947 -3.0444e-21)
(0.291107 -0.105521 -3.2039e-21)
(0.901716 0.278758 0)
(0.901016 -0.460579 0)
(0.0303067 0.00567668 1.06797e-20)
(0.394498 0.135672 0)
(0.279104 -0.144427 -1.74262e-21)
(0.539743 -0.0970682 0)
(0.785602 0.207681 5.78025e-21)
(0.781518 -0.409327 6.05527e-21)
(0.0829105 0.0255792 9.15132e-22)
(0.674625 0.356353 -3.50672e-21)
(0.830689 -0.211482 -5.94833e-21)
(0.179403 -0.165638 0)
(0.356912 0.0863211 6.24126e-21)
(0.338504 0.0885924 2.78274e-21)
(0.481347 -0.0820203 -2.96328e-21)
(0.288313 -0.121417 6.34552e-21)
(0.491465 -0.0647476 0)
(0.313598 -0.144427 1.12833e-20)
(0.304692 0.104186 2.8075e-21)
(0.376062 -0.19935 -7.33302e-21)
(0.282253 0.10256 -1.8062e-21)
(0.527874 -0.026198 0)
(0.422861 -0.229151 -3.6994e-21)
(0.547255 -0.00221302 6.23738e-21)
(0.567561 0.264198 -3.27624e-21)
(0.606898 0.27371 0)
(0.705926 -0.180878 -5.73657e-21)
(0.729404 -0.208136 4.47799e-21)
(0.199993 -0.147455 1.40929e-20)
(0.16791 -0.125208 -1.17214e-20)
(0.0392012 -0.0772557 0)
(1.03008 -0.340222 1.80844e-21)
(0.883329 0.446695 4.66226e-21)
(0.277435 0.202664 -1.17619e-20)
(0.806963 0.0669235 -5.20804e-21)
(0.673171 -0.482443 1.04842e-20)
(0.0234268 -0.0660075 5.62738e-21)
(0.0141375 -0.0582073 0)
(1.04288 -0.360153 -1.56442e-21)
(1.03078 -0.376648 -2.7672e-21)
(0.901693 0.450426 -1.17858e-20)
(0.911767 0.433635 6.102e-21)
(0.385679 0.255144 0)
(0.514049 -0.379272 5.8088e-21)
(0.736585 -0.0102582 -1.23694e-21)
(0.348591 0.0189963 -1.32824e-20)
(0.297345 -0.0646733 0)
(0.399573 -0.0700605 1.04405e-20)
(0.911886 0.300255 2.20407e-21)
(0.92185 -0.45465 4.68961e-21)
(0.0198515 -0.0046757 0)
(0.445563 0.199511 0)
(0.28486 -0.188634 1.42738e-21)
(0.617931 -0.106813 5.04201e-21)
(0.69934 0.363863 0)
(0.849676 -0.228283 0)
(0.158249 -0.15017 9.20205e-22)
(0.845533 0.447659 0)
(0.844372 0.429897 0)
(1.00631 -0.305905 -1.0505e-21)
(0.0749954 -0.103698 6.94254e-21)
(0.990624 -0.314788 2.86283e-21)
(0.0664559 -0.094582 -9.40166e-21)
(0.847562 0.317018 -4.76175e-21)
(0.903764 -0.388916 -4.44435e-21)
(0.0308291 -0.0319434 -3.12774e-21)
(0.750541 0.408613 -1.85724e-21)
(0.881915 -0.360351 0)
(-0.0177631 -0.014414 3.72587e-21)
(0.488869 -0.388319 0)
(0.777639 -0.0352469 -3.68191e-21)
(0.448849 0.307747 0)
(0.518386 0.350364 -3.62065e-21)
(0.497642 0.327423 3.92654e-21)
(0.419394 -0.346033 3.74887e-21)