/*--------------------------------*- C++ -*----------------------------------*\
  =========                 |
  \\      /  F ield         | OpenFOAM: The Open Source CFD Toolbox
   \\    /   O peration     | Website:  https://openfoam.org
    \\  /    A nd           | Version:  6
     \\/     M anipulation  |
\*---------------------------------------------------------------------------*/
FoamFile
{
    version     2.0;
    format      ascii;
    class       volScalarField;
    location    "0";
    object      p;
}
// * * * * * * * * * * * * * * * * * * * * * * * * * * * * * * * * * * * * * //

dimensions      [0 2 -2 0 0 0 0];

internalField   nonuniform List<scalar> 
918
(
0.175611
0.976302
0.00487883
0.175159
0.000922513
0.945257
-0.859038
0.37071
0.153693
-0.121617
0.02288
0.146399
0.796317
0.561336
-1.50003
0.0137263
0.321054
-0.620738
0.152708
0.00614172
0.462367
0.160024
0.163444
0.155864
0.203241
0.543209
0.669566
0.000292259
-0.00162496
-0.000232282
0.000720356
0.000724645
0.00836863
0.818328
0.864645
0.883266
0.12157
0.0443444
-0.738852
-0.80813
-0.760706
-0.886125
0.354569
0.356156
-0.539927
0.367178
0.376949
0.143788
0.153257
0.153983
0.155368
0.154279
0.155854
0.310765
-0.144582
-0.230343
-0.0859924
-0.0781912
0.0842294
0.017845
0.00929641
0.0263276
0.0266933
0.0825243
0.142304
0.137144
0.149803
0.161743
0.901815
0.873722
0.896424
0.821776
0.838976
0.770263
0.742702
0.582815
0.605405
0.544823
0.536412
-1.96269
-2.93243
-0.905516
-0.621715
0.000646736
0.0220128
0.0309611
0.300985
0.304753
0.3149
0.32404
0.82925
-0.606694
-0.770096
0.151835
0.150034
0.159116
0.160837
0.156767
0.156757
0.0118551
0.013864
-0.00289798
0.00592048
0.00312731
0.429627
0.421121
0.155458
0.151379
0.168159
0.192377
0.179876
-0.0829224
0.224417
0.249768
0.360103
0.534633
0.527773
0.538258
0.643673
0.609037
0.701454
0.725518
0.00700748
0.00208313
0.011105
0.0115624
0.0120154
0.121233
0.114981
0.131317
0.123971
0.128628
-0.0585418
-0.209344
0.131333
0.151944
-0.662215
-0.715851
-0.711241
-0.772212
-0.877021
0.0944067
0.34417
0.347974
-0.557031
-0.468486
-0.618796
-0.420161
-0.480685
0.129092
0.138462
0.132193
0.148223
0.144073
0.145125
0.156971
0.154416
0.155977
0.345718
0.424327
0.258455
0.238593
-0.418933
-0.269398
-0.379068
-0.0275753
-0.012203
0.0934304
0.11226
0.0794351
0.074707
-0.00449647
0.00202629
-0.00794863
0.0259999
0.0279177
0.0763293
0.066601
0.0913817
0.0975883
0.134085
0.132744
0.136403
0.135693
0.691584
0.714457
0.722378
0.699421
-3.92638
-6.60648
-0.268813
-0.106069
0.000370623
0.00105285
-0.000125422
0.000989287
0.00280117
0.000132583
0.0461348
0.038379
0.0337316
0.03413
0.289659
0.287493
0.818788
0.864634
0.743083
0.719237
0.136708
0.141243
0.147358
0.14334
0.0277669
0.0192994
0.0299404
0.378556
0.398763
0.396821
-0.123145
-0.206676
-0.0325801
-0.00565165
0.27871
0.257096
0.284075
0.423715
0.463473
0.737914
0.762388
0.749817
0.766129
0.814247
0.834327
0.799343
0.102557
0.111768
0.107587
0.138944
0.136043
0.137307
0.131672
0.134075
0.133674
-0.347456
-0.719948
0.0482274
0.126404
0.195258
0.161985
0.26449
0.446362
0.323352
0.336445
0.340005
-0.359242
-0.41711
0.207176
0.184024
0.0228246
0.0509431
0.0366697
0.667604
0.630376
0.677979
0.653594
0.616573
0.640162
-0.657925
-2.43214
-1.38174
0.296657
0.0911224
0.187127
0.06459
0.0502465
0.052437
0.846024
0.877881
0.472502
0.619061
0.572132
0.49635
0.528254
0.581346
0.509675
0.546336
0.583223
0.564802
-0.0660861
-0.0775426
-0.125701
0.565625
0.682071
-0.233866
-0.305363
-0.340192
0.123118
0.157245
0.13864
0.865431
0.751396
0.848174
0.15283
0.153191
0.00963277
0.0135218
0.155904
0.155479
0.00529379
0.0106606
0.18838
-1.2619
-0.23376
0.147043
0.136071
0.152176
-0.0925201
0.300902
0.0250146
0.0941823
0.0589678
0.139344
0.0928666
0.0532675
0.00746316
0.0189253
0.0151435
-0.44301
0.148202
0.146372
0.15133
0.152785
0.153351
0.0097816
0.00990285
0.00559269
0.0122652
0.008199
0.008215
0.12313
0.131128
-0.540889
0.151866
0.153669
0.153347
0.148852
0.151953
0.150705
0.0168676
0.0126747
0.0136834
-0.124831
-0.00405673
0.415043
0.524803
0.337849
0.150226
-0.133519
0.330027
0.394401
0.299119
0.459621
0.324636
0.346044
-0.186219
-0.311707
-0.148447
-0.213331
0.144677
0.142552
0.133898
0.127675
0.145139
0.14414
0.14915
0.148185
0.150443
0.151056
-0.0540687
-0.0541493
-0.121706
-0.197089
0.322697
0.412564
0.243532
0.242717
0.147964
0.0263776
0.0271961
0.0238082
0.00819256
0.0648555
0.0639318
0.0759401
0.0773031
0.0487945
0.0468464
0.0572235
0.0585263
0.059703
0.134966
0.136204
0.139168
0.147699
0.0987312
0.102582
0.0719814
0.0903805
0.0798019
0.0269594
0.0543764
0.0327257
0.00772051
0.0106478
0.00831461
0.0238466
0.0321931
0.0152516
0.0135191
0.0131882
0.0108205
0.012065
0.0190052
0.0239449
-0.436291
-0.533121
0.832986
0.673222
0.213653
0.139761
0.143984
0.141517
0.146791
0.149237
0.148847
0.145955
0.144587
0.13212
0.134798
0.130541
0.129281
-0.497953
-0.582983
-0.436253
-0.495883
-0.142181
0.265309
0.0044997
-0.0584031
-0.0690337
0.146061
0.366617
0.329843
0.462343
0.449756
-0.724764
-0.298895
-0.643322
-0.105205
-0.178416
0.431194
0.481415
0.505287
0.454733
0.402338
-0.358913
0.15558
-0.40667
-0.385338
-0.212722
-0.271595
0.380905
0.31126
0.317296
0.336845
0.357568
0.312379
0.298364
0.290402
0.32485
0.331695
0.143053
-0.0820914
-0.137815
-0.177032
0.288773
0.171235
0.224187
0.144647
0.135874
0.139591
0.138119
0.125759
0.128694
0.124419
0.131616
0.132882
0.142485
0.141985
0.137688
0.140465
-0.0333903
-0.0181047
-0.100167
-0.306078
-0.234613
-0.308072
-0.161916
0.124371
0.118305
0.294153
0.32781
0.0626046
-0.229684
-0.149998
-0.247196
0.121786
0.0552667
0.107695
0.162831
0.180396
0.14557
0.212343
0.198611
0.0402116
0.0527295
0.0325112
0.0312973
0.101054
0.124303
0.116468
0.0494486
0.0471932
0.0256052
0.0258297
0.0748511
0.0450684
0.058517
0.0667189
0.0231999
0.0253646
0.0286228
0.0438125
0.0408223
0.044597
0.13125
0.133506
0.13229
0.145568
0.156348
0.167582
0.143091
0.116889
0.108021
0.111312
0.091834
0.0954851
0.101434
0.108223
0.123293
0.129429
0.129168
0.130226
0.114059
0.116658
0.102916
0.107793
0.0924843
0.0758772
0.0607096
0.0181008
0.013154
0.0159285
0.0148063
0.00991498
0.0110478
0.0431795
0.0335182
0.0395246
0.0358053
0.0383163
0.0176972
0.0192994
-0.400388
-0.293489
-0.582331
-0.517803
-0.583976
0.782199
0.835306
0.665671
0.497028
0.552173
0.699522
0.767746
0.440917
0.534356
0.544695
-0.127662
0.603382
0.144306
0.143002
0.139432
0.13859
0.141638
-0.40986
-0.335353
-0.294042
-0.245248
-0.0125384
0.110276
-0.212862
-0.309518
-0.120186
-0.155702
0.257162
0.270644
0.21666
0.243424
0.237539
0.0755796
0.141964
0.188357
0.143994
0.199095
0.223097
0.173042
0.208456
0.150433
0.109721
0.108389
0.0561218
0.0836976
0.0646717
0.0379151
0.130607
0.112932
0.121237
0.114515
0.131673
0.163698
0.156952
0.175267
0.196806
0.121702
0.0830373
0.0958699
0.118764
0.0764752
0.0884548
0.107026
-0.00829816
-0.0294208
-0.0256255
-0.433351
-0.299417
-0.289799
-0.326204
-0.366447
-0.0487558
-0.749421
-0.681462
-1.35736
0.105732
0.497003
0.338499
0.353192
0.353934
0.331307
0.339976
0.367936
0.373836
0.281103
0.30244
0.303844
0.252997
0.288441
0.300744
0.305861
0.113947
0.0356124
0.0244818
-0.0179271
-0.145597
-0.120489
0.073155
0.00482952
-0.0663536
-0.0662848
0.101997
0.00288551
0.066887
0.102089
0.0501597
-0.0135676
0.196856
0.247833
0.246794
0.218147
0.129882
0.141321
0.164112
0.20298
0.231958
0.260247
0.129923
0.136412
0.137863
0.13442
0.131124
0.134052
0.134568
0.135901
0.136209
0.136906
0.136318
0.00811641
0.0209509
-0.00730226
-0.000499017
-0.000906881
-0.0267185
0.0542077
-0.0199988
0.0358312
0.0351012
-0.00110745
-0.0124978
0.000550268
0.0186366
0.17098
0.198171
0.180951
0.131431
0.224121
0.396568
0.400747
0.345914
0.203615
0.227392
0.307386
0.0876366
0.0951708
0.0830734
0.106709
0.0994991
0.0284717
0.0299645
0.0353172
0.0416721
0.0371183
0.0317833
0.0251362
0.026628
0.0303155
0.0275104
0.0259182
0.116796
0.112517
0.113356
0.10691
0.106124
0.119675
0.122666
0.124771
0.129486
0.130227
0.12299
0.126601
0.129368
0.02959
0.0249371
0.0262524
0.0255882
0.0271245
0.0217657
0.0206642
-0.528095
-0.369881
-0.263431
-0.55712
-0.495618
-0.490367
-0.0864785
-0.262002
-0.182208
0.423991
0.189092
0.123757
0.128519
0.266838
-0.274324
0.0187858
-0.22028
0.738863
0.576389
0.727811
0.269942
-0.119943
0.0263113
0.0509109
-0.0498587
0.00225369
-0.0417209
-0.157923
-0.131146
-0.0953226
-0.00427952
-0.0621435
0.00867802
-0.143622
-0.177581
-0.0573639
-0.113646
0.130296
0.193309
-0.302671
-0.172214
-0.300704
0.242865
0.260236
0.276663
0.253309
0.272846
0.201957
0.192587
0.212768
0.219551
0.213178
-1.00995
-0.637146
-1.786
-1.18851
-0.745034
0.124645
0.109156
0.33754
0.255882
0.338385
0.32499
0.273135
0.239431
0.250214
0.288803
-0.00733886
0.0920576
0.0555074
0.0827605
0.0158274
-0.0531759
0.215539
0.215366
0.244376
0.27283
0.231998
0.273733
0.127869
0.129032
0.127014
0.12535
0.120242
0.122564
0.0954954
0.0714961
0.116226
0.0963794
0.0612635
0.0516116
0.03795
0.0322801
0.0301966
0.0303933
0.0333128
0.0381315
-0.582635
-0.612791
-0.680255
-0.685427
-0.46306
-0.5463
-0.544742
-0.643786
-0.595548
-0.45659
0.138746
0.521356
0.256064
0.616421
0.388744
0.552103
-0.0701155
0.132916
0.0841444
-0.0464056
-0.0618126
-0.317473
-0.569803
-0.585963
0.384554
0.342407
0.142804
-0.092252
-0.229408
0.053107
0.151672
0.110147
0.152083
0.206501
0.20331
-0.384384
-0.263781
-0.18834
0.0907913
-0.018969
-0.0571158
-0.0326878
0.0650094
0.0236808
)
;

boundaryField
{
    wall-4
    {
        type            zeroGradient;
    }
    velocity-inlet-5
    {
        type            zeroGradient;
    }
    velocity-inlet-6
    {
        type            zeroGradient;
    }
    pressure-outlet-7
    {
        type            fixedValue;
        value           uniform 0;
    }
    wall-8
    {
        type            zeroGradient;
    }
    frontAndBackPlanes
    {
        type            empty;
    }
}

