/*--------------------------------*- C++ -*----------------------------------*\
  =========                 |
  \\      /  F ield         | OpenFOAM: The Open Source CFD Toolbox
   \\    /   O peration     | Website:  https://openfoam.org
    \\  /    A nd           | Version:  6
     \\/     M anipulation  |
\*---------------------------------------------------------------------------*/
FoamFile
{
    version     2.0;
    format      ascii;
    class       volVectorField;
    location    "0.016";
    object      U;
}
// * * * * * * * * * * * * * * * * * * * * * * * * * * * * * * * * * * * * * //

dimensions      [0 1 -1 0 0 0 0];

internalField   nonuniform List<vector> 
16000
(
(-0.0230571 -0.00141419 -0.000471735)
(-0.0206357 -0.00145625 -0.000162705)
(-0.0180134 -0.00143171 -4.34828e-05)
(-0.0157877 -0.00129896 -3.64547e-05)
(-0.0139356 -0.00108235 -5.04141e-05)
(-0.0124057 -0.000853025 -5.92341e-05)
(-0.0111784 -0.000657589 -6.01207e-05)
(-0.0102132 -0.000509746 -5.23813e-05)
(-0.00945871 -0.000403069 -3.95163e-05)
(-0.0088709 -0.000326476 -2.61939e-05)
(-0.00841086 -0.00027157 -1.38702e-05)
(-0.0080449 -0.000233595 -3.31175e-06)
(-0.00774282 -0.000208328 4.3072e-06)
(-0.00747728 -0.000190175 8.57136e-06)
(-0.00722862 -0.000176513 9.73958e-06)
(-0.00699086 -0.000172833 9.95096e-06)
(-0.00675989 -0.000187329 1.42032e-05)
(-0.0065221 -0.000221505 2.35127e-05)
(-0.00626108 -0.000266843 3.47532e-05)
(-0.00596144 -0.000315872 4.47236e-05)
(-0.00561179 -0.000366597 5.26032e-05)
(-0.00520615 -0.000420084 6.01693e-05)
(-0.0047423 -0.000479277 6.94968e-05)
(-0.0042154 -0.000548826 8.12214e-05)
(-0.00361382 -0.000631994 9.50986e-05)
(-0.00291886 -0.00072809 0.000109762)
(-0.00210913 -0.000836589 0.000122666)
(-0.00116645 -0.000960441 0.000134865)
(-7.22115e-05 -0.00110507 0.000152564)
(0.00118556 -0.00127678 0.000179838)
(0.00262333 -0.00148121 0.000214418)
(0.00427834 -0.00172556 0.000253186)
(0.00619944 -0.00201857 0.000297773)
(0.00844239 -0.00236858 0.000351221)
(0.0110669 -0.00278604 0.00041521)
(0.0141443 -0.003287 0.000491818)
(0.017764 -0.00389477 0.000584515)
(0.0220382 -0.00464146 0.000698688)
(0.0271095 -0.00557164 0.000841943)
(0.033161 -0.00674831 0.00102519)
(0.0404319 -0.00826301 0.00126482)
(0.0492388 -0.0102523 0.00158574)
(0.0600014 -0.0129237 0.00202984)
(0.073299 -0.0166064 0.00267298)
(0.0898757 -0.0217786 0.00363023)
(0.110732 -0.029184 0.00506576)
(0.137155 -0.0399885 0.0073082)
(0.170878 -0.0561548 0.0112442)
(0.216666 -0.0832919 0.0180526)
(0.273203 -0.156869 0.0262127)
(0.0388541 -0.00283515 -0.00138349)
(0.0416994 -0.00334786 -0.000988675)
(0.0449292 -0.00373272 -0.000786859)
(0.0477781 -0.00362622 -0.000612041)
(0.0499823 -0.00315062 -0.000448475)
(0.0516152 -0.00254513 -0.000324751)
(0.0528265 -0.00197328 -0.000242538)
(0.053742 -0.00151051 -0.000190536)
(0.0544586 -0.00117401 -0.000152217)
(0.0550293 -0.000949518 -0.000117114)
(0.0554806 -0.000811882 -8.28781e-05)
(0.0558345 -0.000738322 -5.22916e-05)
(0.0561246 -0.000713694 -3.02182e-05)
(0.0563921 -0.000725848 -1.73362e-05)
(0.0566697 -0.0007559 -4.80477e-06)
(0.056959 -0.000787435 1.38957e-05)
(0.0572334 -0.000823011 3.22239e-05)
(0.0574857 -0.00089016 3.69402e-05)
(0.0577565 -0.00100968 3.2443e-05)
(0.0580838 -0.00117772 2.93792e-05)
(0.0584775 -0.00137603 3.06571e-05)
(0.05894 -0.00159459 3.635e-05)
(0.0594688 -0.00183721 4.67728e-05)
(0.0600687 -0.00211934 5.97456e-05)
(0.0607548 -0.00245695 7.26556e-05)
(0.0615481 -0.00284918 8.55085e-05)
(0.0624702 -0.00328353 9.62706e-05)
(0.0635357 -0.00376211 0.000103671)
(0.0647719 -0.0043115 0.000113721)
(0.0661935 -0.00496701 0.000135138)
(0.0678063 -0.00575229 0.000168005)
(0.0696471 -0.00667916 0.000201277)
(0.071777 -0.00776957 0.000229809)
(0.0742612 -0.00906136 0.000260819)
(0.0771585 -0.0106005 0.00030198)
(0.0805286 -0.0124414 0.00035519)
(0.0844442 -0.0146533 0.00042091)
(0.0889951 -0.0173288 0.00050152)
(0.0942873 -0.0205919 0.000600803)
(0.10044 -0.0246101 0.000723373)
(0.107586 -0.0296124 0.000875809)
(0.115866 -0.0359191 0.00106645)
(0.125416 -0.0439742 0.00130604)
(0.136327 -0.0543755 0.00159471)
(0.148646 -0.0679672 0.00194436)
(0.162346 -0.0859414 0.0023621)
(0.177207 -0.109889 0.00289024)
(0.19282 -0.142184 0.00363692)
(0.207512 -0.187027 0.0047686)
(0.214403 -0.252979 0.00619769)
(0.0933991 -0.00217983 -0.00153722)
(0.0962944 -0.00254639 -0.00114657)
(0.0995494 -0.00302267 -0.000977181)
(0.102489 -0.00319347 -0.000758094)
(0.10475 -0.00300152 -0.000542913)
(0.106337 -0.00258579 -0.000375267)
(0.107406 -0.00210466 -0.00025612)
(0.108119 -0.00166423 -0.000173092)
(0.108616 -0.00132186 -0.000118519)
(0.108991 -0.00109737 -8.42686e-05)
(0.10929 -0.00098326 -6.03524e-05)
(0.109531 -0.000957763 -3.94356e-05)
(0.109728 -0.000995662 -2.16589e-05)
(0.109907 -0.00107982 -1.17178e-05)
(0.110101 -0.0012064 -1.06615e-05)
(0.110334 -0.00136541 -5.48247e-06)
(0.110597 -0.00153558 1.47251e-05)
(0.110853 -0.00169958 4.17962e-05)
(0.111085 -0.00186857 5.81481e-05)
(0.11133 -0.00207413 5.69451e-05)
(0.111633 -0.00233962 4.91924e-05)
(0.112005 -0.00267297 4.59233e-05)
(0.112434 -0.00307739 5.0086e-05)
(0.112924 -0.00356049 5.86679e-05)
(0.113485 -0.00412452 6.6511e-05)
(0.114112 -0.00476927 7.67809e-05)
(0.114819 -0.00550166 9.20504e-05)
(0.115634 -0.00633303 0.000109856)
(0.116585 -0.0072848 0.000128777)
(0.117693 -0.00839852 0.000148452)
(0.118963 -0.00971352 0.000170546)
(0.120404 -0.0112451 0.000198029)
(0.122039 -0.0130192 0.000231585)
(0.123901 -0.0150992 0.000270655)
(0.126026 -0.0175621 0.000315517)
(0.128453 -0.0204829 0.000366692)
(0.131213 -0.0239449 0.000425096)
(0.134335 -0.0280543 0.000492409)
(0.137839 -0.0329469 0.000571017)
(0.141721 -0.0387898 0.000662445)
(0.145979 -0.045803 0.000767628)
(0.150576 -0.0542593 0.000882241)
(0.155416 -0.0645008 0.00100572)
(0.160331 -0.0769635 0.0011392)
(0.16513 -0.0921289 0.00129296)
(0.169329 -0.111017 0.00145868)
(0.172094 -0.134706 0.0016922)
(0.17211 -0.164666 0.00195449)
(0.167346 -0.202157 0.00208439)
(0.154824 -0.24788 0.00191786)
(0.122487 -0.00135442 -0.00170685)
(0.12565 -0.00158892 -0.00129828)
(0.129182 -0.00193244 -0.00113674)
(0.132367 -0.00212881 -0.000891417)
(0.134817 -0.00210059 -0.000620839)
(0.136453 -0.00191077 -0.000409199)
(0.13745 -0.00165491 -0.000259708)
(0.138015 -0.00140647 -0.000156857)
(0.138331 -0.00120879 -9.21491e-05)
(0.138524 -0.00108234 -5.53748e-05)
(0.138663 -0.00103298 -3.45241e-05)
(0.138775 -0.0010548 -2.19382e-05)
(0.138873 -0.00113245 -1.47233e-05)
(0.138967 -0.00125318 -1.04141e-05)
(0.139068 -0.00141346 -8.80827e-06)
(0.139183 -0.00162399 -9.40323e-06)
(0.139318 -0.00189388 -1.16396e-05)
(0.139477 -0.00220757 -8.52457e-06)
(0.139663 -0.00254046 6.40847e-06)
(0.139865 -0.00288653 2.79297e-05)
(0.140065 -0.00325046 4.52772e-05)
(0.140284 -0.00364592 5.23982e-05)
(0.140541 -0.00410248 5.24274e-05)
(0.140845 -0.00465883 4.68544e-05)
(0.1412 -0.00533288 4.09399e-05)
(0.141601 -0.00612898 4.32356e-05)
(0.142054 -0.00706535 4.98713e-05)
(0.142563 -0.00816038 5.74354e-05)
(0.143135 -0.00942413 7.37336e-05)
(0.14379 -0.0108645 8.96531e-05)
(0.144531 -0.0125138 9.6042e-05)
(0.145348 -0.0144322 0.000111934)
(0.146232 -0.0166764 0.000143202)
(0.147187 -0.019286 0.000172819)
(0.148238 -0.0223053 0.000192831)
(0.149402 -0.0258046 0.000208757)
(0.150679 -0.0298733 0.000225643)
(0.152051 -0.0346102 0.000243698)
(0.153492 -0.0401169 0.000263073)
(0.154977 -0.0465572 0.00028135)
(0.156424 -0.05408 0.000300249)
(0.157713 -0.0628686 0.000326302)
(0.158679 -0.0731513 0.000362401)
(0.159092 -0.0852199 0.000400342)
(0.158527 -0.0994911 0.000431624)
(0.156532 -0.116081 0.000456723)
(0.152409 -0.135443 0.000437761)
(0.145183 -0.15785 0.000341138)
(0.133678 -0.183227 0.000100174)
(0.116445 -0.210762 -0.00036556)
(0.134417 -0.000459774 -0.00178968)
(0.137742 -0.000555576 -0.00136369)
(0.141452 -0.000702271 -0.00120506)
(0.144793 -0.000815658 -0.000949136)
(0.147376 -0.00087552 -0.000657035)
(0.149073 -0.000896811 -0.0004253)
(0.150058 -0.000897752 -0.000260618)
(0.150561 -0.000892409 -0.000146818)
(0.150785 -0.000894031 -7.59003e-05)
(0.150876 -0.000915281 -3.78796e-05)
(0.150914 -0.000965281 -1.92183e-05)
(0.150938 -0.00104742 -9.92153e-06)
(0.150959 -0.00116082 -5.13533e-06)
(0.150982 -0.00130543 -2.7578e-06)
(0.151008 -0.00148194 -1.64593e-06)
(0.151037 -0.00169555 -1.98253e-06)
(0.151068 -0.00195515 -3.83517e-06)
(0.1511 -0.00227264 -7.7885e-06)
(0.151134 -0.00265402 -1.65488e-05)
(0.151185 -0.00308947 -3.07631e-05)
(0.151265 -0.0035654 -3.79218e-05)
(0.151385 -0.0040881 -2.58123e-05)
(0.151531 -0.00468004 -1.11116e-07)
(0.151665 -0.00535286 2.22582e-05)
(0.151766 -0.00610246 3.27045e-05)
(0.15185 -0.00694006 3.53448e-05)
(0.151946 -0.0079023 3.14838e-05)
(0.152062 -0.00902935 2.26971e-05)
(0.152206 -0.0103549 1.68498e-05)
(0.152365 -0.0118948 1.44624e-05)
(0.152541 -0.0136706 1.53856e-05)
(0.152731 -0.0157342 2.02714e-05)
(0.15289 -0.0181419 2.2997e-05)
(0.153005 -0.0209157 2.78132e-05)
(0.153084 -0.0240743 3.57605e-05)
(0.153121 -0.0276747 4.20222e-05)
(0.153099 -0.0318002 4.50381e-05)
(0.15299 -0.036537 4.58605e-05)
(0.152742 -0.0419797 4.39251e-05)
(0.15228 -0.0481894 4.0405e-05)
(0.151507 -0.0552645 3.29572e-05)
(0.150292 -0.0633062 1.7335e-05)
(0.148461 -0.0724103 -9.34794e-06)
(0.14578 -0.0826453 -4.76118e-05)
(0.141926 -0.0940712 -0.000106626)
(0.136494 -0.106697 -0.000194634)
(0.12897 -0.120452 -0.00032306)
(0.11872 -0.135159 -0.000531336)
(0.105054 -0.150439 -0.00088836)
(0.0873575 -0.165626 -0.00146886)
(0.134364 0.000448541 -0.00178952)
(0.137691 0.000491943 -0.0013644)
(0.141398 0.000561146 -0.00120391)
(0.144727 0.000565759 -0.000947053)
(0.147291 0.000448235 -0.000658486)
(0.148968 0.000222352 -0.000430447)
(0.14994 -4.64264e-05 -0.000266638)
(0.150431 -0.000296801 -0.000151536)
(0.150638 -0.000503204 -7.9218e-05)
(0.150701 -0.000670457 -4.03733e-05)
(0.150701 -0.000815707 -2.14672e-05)
(0.15068 -0.000955748 -1.25108e-05)
(0.150652 -0.00110313 -8.52699e-06)
(0.150621 -0.00126655 -7.116e-06)
(0.150589 -0.00145174 -6.94193e-06)
(0.150554 -0.00166354 -7.55796e-06)
(0.150515 -0.0019076 -8.5964e-06)
(0.15047 -0.00218949 -9.71296e-06)
(0.150414 -0.00251276 -1.02695e-05)
(0.150348 -0.00288745 -1.081e-05)
(0.150266 -0.00333823 -1.12537e-05)
(0.150175 -0.00389423 -1.52104e-05)
(0.150076 -0.00455443 -2.85693e-05)
(0.14996 -0.00528247 -4.44531e-05)
(0.149817 -0.00605231 -5.0744e-05)
(0.149644 -0.00688337 -4.42633e-05)
(0.149448 -0.00781805 -3.49256e-05)
(0.149227 -0.00889719 -3.10865e-05)
(0.148976 -0.010163 -2.8957e-05)
(0.148674 -0.0116578 -2.86199e-05)
(0.148322 -0.0134091 -3.18182e-05)
(0.147911 -0.0154194 -3.68191e-05)
(0.147393 -0.0176915 -4.92541e-05)
(0.146743 -0.0202728 -6.24909e-05)
(0.145952 -0.0232175 -7.22144e-05)
(0.144991 -0.0265662 -8.48706e-05)
(0.143836 -0.0303602 -0.000105597)
(0.142453 -0.0346466 -0.000133976)
(0.140787 -0.0394734 -0.000167949)
(0.138767 -0.0448856 -0.000207249)
(0.136299 -0.0509208 -0.000252144)
(0.133272 -0.0576005 -0.000303864)
(0.129545 -0.064923 -0.000363448)
(0.124946 -0.0728506 -0.000434771)
(0.119255 -0.0812841 -0.000520479)
(0.112207 -0.0900339 -0.000624768)
(0.103461 -0.098794 -0.000752656)
(0.0926172 -0.107124 -0.000923098)
(0.0792211 -0.114493 -0.00117136)
(0.0628923 -0.120479 -0.00155241)
(0.122323 0.00133414 -0.00170043)
(0.125487 0.00152225 -0.0012962)
(0.129004 0.00179565 -0.00112846)
(0.13215 0.00189218 -0.000878016)
(0.134538 0.0017061 -0.000615018)
(0.136117 0.00130426 -0.000421658)
(0.137081 0.000822806 -0.000287465)
(0.137622 0.00037168 -0.000189043)
(0.137893 -3.95723e-07 -0.000120748)
(0.138003 -0.000291932 -7.7842e-05)
(0.138025 -0.000522951 -5.19302e-05)
(0.138 -0.000717147 -3.62078e-05)
(0.137948 -0.000894342 -2.68547e-05)
(0.137878 -0.00106917 -2.1631e-05)
(0.137795 -0.00125214 -1.90334e-05)
(0.137698 -0.00145121 -1.82183e-05)
(0.137585 -0.00167324 -1.87646e-05)
(0.137455 -0.00192437 -2.05047e-05)
(0.137305 -0.00221071 -2.37165e-05)
(0.137133 -0.00254 -2.88024e-05)
(0.136936 -0.00292279 -3.53595e-05)
(0.136714 -0.00336679 -4.53319e-05)
(0.136467 -0.00387378 -5.76132e-05)
(0.136174 -0.00445418 -6.149e-05)
(0.135816 -0.00512809 -5.48332e-05)
(0.135383 -0.00591632 -4.88507e-05)
(0.134886 -0.0068233 -5.16627e-05)
(0.134323 -0.00784626 -5.87308e-05)
(0.133689 -0.00900178 -6.33509e-05)
(0.132962 -0.0103215 -7.79224e-05)
(0.132124 -0.0118258 -0.000106949)
(0.13115 -0.0135228 -0.000130037)
(0.130006 -0.0154254 -0.000145493)
(0.128664 -0.0175791 -0.000167221)
(0.127107 -0.020033 -0.000196109)
(0.125305 -0.0228114 -0.00022876)
(0.123221 -0.0259304 -0.000267124)
(0.120811 -0.0294128 -0.000312639)
(0.118026 -0.0332852 -0.00036476)
(0.114805 -0.0375679 -0.000423437)
(0.111076 -0.042268 -0.000488691)
(0.106757 -0.0473717 -0.000560693)
(0.101755 -0.0528332 -0.000637852)
(0.0959603 -0.0585599 -0.000718345)
(0.0892427 -0.0643881 -0.000796149)
(0.081453 -0.0700544 -0.000866702)
(0.0723935 -0.0751589 -0.000918061)
(0.0618403 -0.0791691 -0.000946096)
(0.0495536 -0.0815629 -0.00092825)
(0.0356418 -0.0821225 -0.000918731)
(0.0931297 0.00210946 -0.00152762)
(0.0960216 0.00242837 -0.0011422)
(0.0992534 0.00281884 -0.000960673)
(0.10214 0.002886 -0.000732478)
(0.104319 0.00258956 -0.000529939)
(0.105822 0.00208098 -0.000387499)
(0.106828 0.00151924 -0.000289067)
(0.10748 0.000996785 -0.000213303)
(0.107881 0.000551768 -0.000155924)
(0.108108 0.000190028 -0.00011457)
(0.108216 -9.98813e-05 -8.48361e-05)
(0.108243 -0.00033599 -6.3579e-05)
(0.108214 -0.000536293 -4.90064e-05)
(0.108142 -0.00071591 -3.95272e-05)
(0.108038 -0.000886941 -3.37277e-05)
(0.107903 -0.00105921 -3.06246e-05)
(0.107739 -0.0012408 -2.9562e-05)
(0.107545 -0.00143847 -3.01189e-05)
(0.107319 -0.00165804 -3.20807e-05)
(0.107058 -0.00190522 -3.53186e-05)
(0.106756 -0.00218591 -3.96057e-05)
(0.10641 -0.0025056 -4.54747e-05)
(0.106017 -0.00287498 -5.3771e-05)
(0.105564 -0.00331462 -6.27165e-05)
(0.105034 -0.00384008 -7.20292e-05)
(0.104414 -0.00445387 -8.38271e-05)
(0.103692 -0.00515278 -9.83571e-05)
(0.102864 -0.00593799 -0.00011335)
(0.101916 -0.0068183 -0.000127874)
(0.100826 -0.00779892 -0.00014558)
(0.0995773 -0.00888895 -0.000167393)
(0.0981414 -0.0101149 -0.00018837)
(0.0964816 -0.0115015 -0.000210593)
(0.0945752 -0.0130681 -0.000240988)
(0.0924009 -0.0148366 -0.000279999)
(0.0899245 -0.0168256 -0.00032469)
(0.087103 -0.0190475 -0.000374323)
(0.0838915 -0.021513 -0.000429763)
(0.0802414 -0.0242333 -0.000491834)
(0.0760996 -0.0272146 -0.00056078)
(0.0714062 -0.0304532 -0.00063518)
(0.0660946 -0.0339292 -0.000712076)
(0.0600861 -0.0376004 -0.000784947)
(0.0532907 -0.0413911 -0.000844054)
(0.0455914 -0.0451759 -0.000871475)
(0.036853 -0.0487529 -0.000847076)
(0.0268969 -0.0517965 -0.00074486)
(0.0155566 -0.0538646 -0.000536565)
(0.00342206 -0.0549162 -0.000153483)
(-0.00701555 -0.0555416 0.000122818)
(0.0383855 0.00272359 -0.00136274)
(0.0411794 0.00319362 -0.000980694)
(0.0443336 0.00351229 -0.000782773)
(0.0470919 0.00336195 -0.000616189)
(0.0492085 0.00288846 -0.000467326)
(0.0507809 0.00230445 -0.000356229)
(0.0519466 0.00172897 -0.000271473)
(0.0527869 0.00121704 -0.000205137)
(0.0533702 0.000791466 -0.000154142)
(0.0537555 0.000452563 -0.000115799)
(0.0539894 0.000187587 -8.73579e-05)
(0.0541085 -2.0257e-05 -6.69192e-05)
(0.0541391 -0.000187289 -5.30491e-05)
(0.0541009 -0.000327816 -4.38444e-05)
(0.054007 -0.000453081 -3.77406e-05)
(0.0538649 -0.000571466 -3.41241e-05)
(0.0536785 -0.000689589 -3.25476e-05)
(0.0534489 -0.00081285 -3.26661e-05)
(0.0531751 -0.00094579 -3.42674e-05)
(0.0528545 -0.00109246 -3.72517e-05)
(0.052483 -0.00125664 -4.15875e-05)
(0.0520559 -0.00144205 -4.7668e-05)
(0.0515677 -0.00165402 -5.60765e-05)
(0.0510069 -0.00190007 -6.57499e-05)
(0.0503595 -0.00218596 -7.52714e-05)
(0.0496096 -0.00251786 -8.70688e-05)
(0.0487368 -0.00290474 -0.000104829)
(0.0477338 -0.00335206 -0.000123743)
(0.0465903 -0.00385593 -0.000140364)
(0.0452666 -0.00441161 -0.000158448)
(0.0437423 -0.00502185 -0.000178077)
(0.0419968 -0.00569985 -0.000199133)
(0.0399977 -0.0064575 -0.000225303)
(0.0377231 -0.00730354 -0.000259505)
(0.0351479 -0.00824808 -0.000302083)
(0.0322364 -0.00930051 -0.000352305)
(0.0289463 -0.0104663 -0.000409248)
(0.025231 -0.0117474 -0.000472617)
(0.0210388 -0.0131422 -0.000543144)
(0.0163127 -0.0146432 -0.000621637)
(0.0109853 -0.0162314 -0.000707118)
(0.00497036 -0.0178672 -0.000797153)
(-0.00185186 -0.0194738 -0.000889511)
(-0.00965215 -0.0209089 -0.000987316)
(-0.0186683 -0.0219309 -0.00110659)
(-0.0291389 -0.0221694 -0.00130969)
(-0.041108 -0.0211609 -0.00175765)
(-0.0540534 -0.0189924 -0.00267334)
(-0.0665399 -0.0190529 -0.00389669)
(-0.0739204 -0.0314159 -0.00447874)
(-0.0236078 0.00136927 -0.000469581)
(-0.0212429 0.00140711 -0.000170407)
(-0.0186807 0.00138047 -5.25737e-05)
(-0.016518 0.0012574 -4.06738e-05)
(-0.0147279 0.00105463 -4.81047e-05)
(-0.0132545 0.000826351 -5.66974e-05)
(-0.0120833 0.000610826 -6.33909e-05)
(-0.0111894 0.000427996 -6.39179e-05)
(-0.010535 0.000283245 -5.90007e-05)
(-0.0100776 0.000172343 -5.18596e-05)
(-0.00977588 8.82349e-05 -4.47479e-05)
(-0.00959545 2.43609e-05 -3.84974e-05)
(-0.00950901 -2.50186e-05 -3.33032e-05)
(-0.00949552 -6.59539e-05 -2.98096e-05)
(-0.009542 -0.000101506 -2.82778e-05)
(-0.00963816 -0.000134221 -2.81875e-05)
(-0.0097781 -0.000165906 -2.9289e-05)
(-0.00995884 -0.000198035 -3.14123e-05)
(-0.0101797 -0.000231821 -3.44676e-05)
(-0.0104416 -0.000268292 -3.84214e-05)
(-0.0107471 -0.000308348 -4.32803e-05)
(-0.0110998 -0.000352778 -4.91727e-05)
(-0.0115046 -0.000402536 -5.62718e-05)
(-0.0119697 -0.000459168 -6.42159e-05)
(-0.0125055 -0.000524538 -7.25739e-05)
(-0.0131213 -0.000601027 -8.36603e-05)
(-0.0138263 -0.000692368 -0.000100317)
(-0.0146292 -0.000799905 -0.000120221)
(-0.0155461 -0.000917877 -0.000139042)
(-0.0166019 -0.00104317 -0.000155469)
(-0.0178154 -0.00117943 -0.000171185)
(-0.0192059 -0.00133059 -0.000189351)
(-0.0207897 -0.00149812 -0.000211681)
(-0.0225802 -0.00168222 -0.00023835)
(-0.0245951 -0.00188336 -0.000268924)
(-0.0268569 -0.00210253 -0.000303144)
(-0.029391 -0.00234026 -0.000340971)
(-0.0322238 -0.00259552 -0.000382483)
(-0.0353812 -0.00286474 -0.000427452)
(-0.0388867 -0.00314032 -0.000474655)
(-0.0427591 -0.00340761 -0.000521663)
(-0.0470065 -0.0036379 -0.000563744)
(-0.0516167 -0.00377714 -0.000591842)
(-0.0565522 -0.00373989 -0.000588248)
(-0.0617203 -0.00345929 -0.000517588)
(-0.0667522 -0.00309492 -0.000385978)
(-0.0708274 -0.00362502 -0.000512145)
(-0.0749427 -0.00867361 -0.00149402)
(-0.0877031 -0.0287988 -0.00213014)
(-0.113866 -0.0822391 0.000986392)
(-0.0165356 -0.00333964 -0.00207662)
(-0.0131005 -0.00331274 -0.00194932)
(-0.00877702 -0.00308898 -0.00162843)
(-0.00487011 -0.00268804 -0.00125203)
(-0.00161802 -0.00218291 -0.000973736)
(0.00102972 -0.00169467 -0.000785333)
(0.00312128 -0.00129324 -0.000643796)
(0.0047414 -0.000994083 -0.000518182)
(0.00599696 -0.000778982 -0.000398121)
(0.00697292 -0.00062478 -0.000288496)
(0.0077402 -0.00051556 -0.00019419)
(0.00835674 -0.000442118 -0.000119164)
(0.0088754 -0.000393909 -6.59139e-05)
(0.00934229 -0.00035583 -3.08396e-05)
(0.00978552 -0.000318724 -7.02629e-06)
(0.0102124 -0.000297734 8.83682e-06)
(0.0106252 -0.000318747 2.05347e-05)
(0.0110476 -0.000387478 3.29404e-05)
(0.0115162 -0.000478959 4.85454e-05)
(0.0120649 -0.000572531 6.3872e-05)
(0.0127147 -0.000664318 7.64859e-05)
(0.013474 -0.000758402 9.08315e-05)
(0.0143454 -0.000862242 0.000111426)
(0.0153383 -0.000986533 0.000137398)
(0.0164765 -0.00113856 0.00016569)
(0.0177972 -0.00131581 0.000190465)
(0.0193405 -0.00151504 0.000203913)
(0.0211285 -0.00173969 0.000208581)
(0.0231852 -0.00199766 0.000227208)
(0.0255428 -0.00230272 0.000278551)
(0.028244 -0.00267079 0.000349031)
(0.0313622 -0.00311628 0.000417683)
(0.0349896 -0.00365201 0.000486688)
(0.0392283 -0.00428966 0.000570088)
(0.0441881 -0.00504628 0.000676596)
(0.0500004 -0.00595048 0.000809388)
(0.056827 -0.00704295 0.000973466)
(0.0648699 -0.0083783 0.00117932)
(0.0743829 -0.0100315 0.00144332)
(0.0856892 -0.0121081 0.00178988)
(0.0992054 -0.0147593 0.002257)
(0.115478 -0.0182086 0.00290389)
(0.135236 -0.0227911 0.00382705)
(0.159445 -0.0290263 0.00519673)
(0.189578 -0.0377638 0.00732529)
(0.227391 -0.0502428 0.0106824)
(0.275344 -0.0684263 0.0160594)
(0.336973 -0.0954696 0.0250945)
(0.419997 -0.13779 0.0410934)
(0.528065 -0.251146 0.069698)
(0.188628 -0.00638714 -0.00484621)
(0.191053 -0.00714072 -0.00494752)
(0.1946 -0.00805575 -0.00478187)
(0.1984 -0.00797153 -0.00384963)
(0.201578 -0.00699627 -0.00266474)
(0.203985 -0.005656 -0.00176689)
(0.205822 -0.00435804 -0.00122949)
(0.207232 -0.003293 -0.000937105)
(0.208344 -0.00251239 -0.000752094)
(0.20924 -0.00198851 -0.000584853)
(0.209964 -0.0016621 -0.000410925)
(0.210544 -0.00147932 -0.00025109)
(0.211028 -0.00140671 -0.000140562)
(0.21148 -0.00142138 -8.66119e-05)
(0.211954 -0.00147831 -3.98408e-05)
(0.212477 -0.00152209 5.34279e-05)
(0.213023 -0.00153499 0.000173521)
(0.213556 -0.00158881 0.000225052)
(0.214109 -0.00176127 0.000190265)
(0.21475 -0.00206184 0.000135694)
(0.215497 -0.00243601 0.000107801)
(0.216361 -0.00284344 0.000116238)
(0.217352 -0.00328211 0.000155766)
(0.218485 -0.00378312 0.000207401)
(0.219793 -0.00438944 0.000254029)
(0.221313 -0.0051124 0.000295882)
(0.223092 -0.00592108 0.000337267)
(0.225149 -0.00679492 0.000371854)
(0.227511 -0.00776967 0.000412695)
(0.230213 -0.00892258 0.000502205)
(0.233289 -0.010315 0.0006398)
(0.236819 -0.011969 0.000766)
(0.240916 -0.0139171 0.000852949)
(0.245693 -0.0162264 0.000938969)
(0.251262 -0.0189789 0.00107019)
(0.257744 -0.0222658 0.00125934)
(0.265283 -0.0262006 0.00150372)
(0.274053 -0.0309353 0.0018083)
(0.28426 -0.0366748 0.00218806)
(0.296144 -0.0436944 0.00266544)
(0.309972 -0.0523695 0.00327555)
(0.326043 -0.0632224 0.00407002)
(0.344642 -0.0769739 0.00512561)
(0.366061 -0.0946352 0.00652852)
(0.390283 -0.117541 0.00837613)
(0.417383 -0.147638 0.0107939)
(0.446931 -0.187606 0.0140475)
(0.477778 -0.240768 0.0185737)
(0.507562 -0.312715 0.0251075)
(0.532842 -0.414825 0.0361605)
(0.352181 -0.00478169 -0.00564963)
(0.353878 -0.00521789 -0.00591003)
(0.356393 -0.00624112 -0.00621838)
(0.359397 -0.00681646 -0.00536261)
(0.361907 -0.006621 -0.00389457)
(0.363696 -0.00584208 -0.00255041)
(0.36495 -0.00481888 -0.00161328)
(0.365812 -0.0038101 -0.00103102)
(0.366431 -0.00297302 -0.000692133)
(0.366921 -0.00238001 -0.000494457)
(0.367341 -0.00203446 -0.00035481)
(0.367697 -0.0018983 -0.000230399)
(0.367997 -0.00191214 -0.000132091)
(0.368269 -0.0020243 -8.58087e-05)
(0.368561 -0.00222577 -9.21768e-05)
(0.368905 -0.0025131 -8.54772e-05)
(0.369324 -0.00284197 1.20969e-05)
(0.369806 -0.00314417 0.000182701)
(0.370311 -0.00339914 0.000308027)
(0.370849 -0.00367623 0.00031068)
(0.371475 -0.00406222 0.000240491)
(0.372214 -0.00459888 0.000183803)
(0.373045 -0.00528387 0.000168458)
(0.373979 -0.00612304 0.000177416)
(0.375049 -0.00711948 0.000201146)
(0.376231 -0.00826808 0.00024905)
(0.377545 -0.0095767 0.000314948)
(0.379051 -0.0110517 0.000381781)
(0.38082 -0.0127109 0.000442786)
(0.382912 -0.0146331 0.00050776)
(0.385333 -0.016915 0.00059213)
(0.388089 -0.0195836 0.000704144)
(0.391224 -0.022662 0.000838231)
(0.394804 -0.0262624 0.000982532)
(0.398906 -0.0305363 0.001136)
(0.403603 -0.0356165 0.00130952)
(0.408967 -0.0416363 0.0015166)
(0.415062 -0.0487673 0.00176793)
(0.421944 -0.0572369 0.00207384)
(0.429653 -0.0673345 0.00244486)
(0.438196 -0.0794264 0.00289278)
(0.447536 -0.09397 0.00343139)
(0.45742 -0.111501 0.0040862)
(0.467612 -0.132746 0.00485908)
(0.47765 -0.158612 0.00577291)
(0.48683 -0.190309 0.0068472)
(0.4939 -0.229268 0.00828473)
(0.497977 -0.278556 0.010129)
(0.495724 -0.341558 0.0124947)
(0.480127 -0.423461 0.0132175)
(0.438969 -0.0028934 -0.00621729)
(0.44075 -0.00312263 -0.00649493)
(0.443386 -0.00378855 -0.00702981)
(0.446448 -0.00432398 -0.00630575)
(0.448998 -0.00442953 -0.00469481)
(0.450649 -0.00414414 -0.0030566)
(0.451619 -0.00364633 -0.00183759)
(0.45212 -0.00310302 -0.00105085)
(0.452351 -0.00262399 -0.000591507)
(0.452474 -0.00226834 -0.000345293)
(0.452579 -0.00206448 -0.000214077)
(0.45269 -0.00201577 -0.00013945)
(0.4528 -0.00208932 -0.000100646)
(0.452917 -0.00225334 -8.30205e-05)
(0.453051 -0.00248923 -8.1988e-05)
(0.453204 -0.00281251 -9.00711e-05)
(0.453381 -0.00326827 -9.98904e-05)
(0.45357 -0.00385601 -8.77086e-05)
(0.453813 -0.00449635 -2.26719e-05)
(0.454147 -0.00513079 9.27591e-05)
(0.454545 -0.00575589 0.000200386)
(0.454995 -0.00639214 0.000242782)
(0.455524 -0.00708604 0.00023687)
(0.456149 -0.00793971 0.000207617)
(0.456864 -0.00903276 0.000175388)
(0.457644 -0.0103778 0.000162319)
(0.458503 -0.011991 0.000161892)
(0.459438 -0.0138918 0.000171832)
(0.460471 -0.0160972 0.000212196)
(0.461688 -0.0186007 0.000264179)
(0.4631 -0.0214302 0.000310162)
(0.464655 -0.0247007 0.000411581)
(0.466351 -0.0285421 0.000582327)
(0.468219 -0.033043 0.000736523)
(0.470295 -0.0382678 0.0008251)
(0.472602 -0.0443208 0.000881199)
(0.475138 -0.0513533 0.000948488)
(0.477882 -0.0595427 0.00104003)
(0.480788 -0.069085 0.00115264)
(0.483785 -0.0802113 0.0012838)
(0.486761 -0.0931836 0.0014356)
(0.489528 -0.108299 0.00161001)
(0.492012 -0.125977 0.00182434)
(0.493818 -0.146718 0.00207643)
(0.494347 -0.171102 0.00241067)
(0.492821 -0.199771 0.00280778)
(0.488026 -0.233672 0.00314917)
(0.477879 -0.27327 0.00329547)
(0.460311 -0.318759 0.00295497)
(0.431909 -0.369703 0.00137715)
(0.474827 -0.000955507 -0.00648682)
(0.476699 -0.0010419 -0.00675776)
(0.479502 -0.00129697 -0.00738627)
(0.482693 -0.00153635 -0.00672667)
(0.485387 -0.00167693 -0.0050704)
(0.487078 -0.00173792 -0.00329941)
(0.487986 -0.00175438 -0.00194771)
(0.488356 -0.00174653 -0.00106178)
(0.488413 -0.00173165 -0.000539635)
(0.488343 -0.00173326 -0.000266123)
(0.488259 -0.00177732 -0.000136042)
(0.4882 -0.00187789 -7.61637e-05)
(0.488165 -0.00203558 -4.81203e-05)
(0.488153 -0.00225237 -3.55612e-05)
(0.488157 -0.00252736 -3.19e-05)
(0.48818 -0.0028659 -3.71971e-05)
(0.488209 -0.00328025 -5.12225e-05)
(0.488233 -0.00380031 -6.93546e-05)
(0.488235 -0.00445979 -9.97426e-05)
(0.488229 -0.00525501 -0.000157516)
(0.488229 -0.00612813 -0.000210966)
(0.488295 -0.00704754 -0.000198201)
(0.488474 -0.00804686 -8.79162e-05)
(0.488758 -0.00918173 7.36957e-05)
(0.489049 -0.0104547 0.000193149)
(0.489296 -0.0118654 0.000219061)
(0.489531 -0.0134694 0.000170136)
(0.489762 -0.0153403 9.11173e-05)
(0.490008 -0.0175694 3.80104e-05)
(0.490266 -0.0201911 2.69966e-05)
(0.490562 -0.0232169 4.37349e-05)
(0.490946 -0.0267363 0.000101723)
(0.491316 -0.0308747 0.000174045)
(0.491591 -0.0356911 0.000226744)
(0.491805 -0.0411901 0.00025981)
(0.491967 -0.0474446 0.000279045)
(0.492056 -0.0546048 0.000286286)
(0.492033 -0.0628377 0.000287771)
(0.491824 -0.0723037 0.000291807)
(0.491318 -0.0831584 0.000300135)
(0.490356 -0.0955759 0.000312492)
(0.488735 -0.109758 0.00032236)
(0.486093 -0.125902 0.000307905)
(0.482063 -0.144147 0.00028059)
(0.476105 -0.164647 0.000203607)
(0.467488 -0.187479 5.02277e-05)
(0.455214 -0.212594 -0.000230648)
(0.437948 -0.239782 -0.000763317)
(0.414032 -0.268495 -0.00177792)
(0.381482 -0.297705 -0.00378338)
(0.47479 0.000982517 -0.00648347)
(0.476669 0.00101722 -0.00675529)
(0.479481 0.00118627 -0.00737386)
(0.482671 0.00131971 -0.00670163)
(0.485358 0.00123637 -0.00504951)
(0.487026 0.000871372 -0.00329999)
(0.487905 0.000328997 -0.00197274)
(0.488243 -0.000225619 -0.00109633)
(0.488253 -0.000688795 -0.000569609)
(0.488117 -0.00104421 -0.000286625)
(0.487949 -0.00132588 -0.000148259)
(0.487795 -0.0015761 -8.31816e-05)
(0.487661 -0.00182755 -5.33752e-05)
(0.487547 -0.00210243 -4.12097e-05)
(0.487445 -0.00241378 -3.814e-05)
(0.487352 -0.00276955 -4.12144e-05)
(0.487258 -0.00317875 -4.97688e-05)
(0.487162 -0.00365436 -6.33804e-05)
(0.487049 -0.00419974 -7.97951e-05)
(0.486912 -0.0048217 -9.44903e-05)
(0.486723 -0.00555553 -0.000102731)
(0.486504 -0.00648231 -0.000114278)
(0.486268 -0.00765333 -0.000141886)
(0.485988 -0.00900249 -0.000169218)
(0.485631 -0.0104102 -0.000174055)
(0.485212 -0.0118587 -0.000156373)
(0.484787 -0.013425 -0.000133083)
(0.484359 -0.0152023 -0.000123258)
(0.483909 -0.0172979 -0.000109394)
(0.483381 -0.01981 -9.17906e-05)
(0.482777 -0.0228148 -9.59341e-05)
(0.482119 -0.0263368 -9.70879e-05)
(0.481287 -0.0303259 -0.00010624)
(0.480174 -0.0348365 -0.000135921)
(0.478781 -0.0399845 -0.000166895)
(0.477085 -0.0458604 -0.00020492)
(0.475044 -0.052546 -0.000273938)
(0.472599 -0.0601341 -0.000374742)
(0.469654 -0.0687228 -0.000493024)
(0.466076 -0.0784089 -0.000620583)
(0.461698 -0.0892814 -0.000757826)
(0.456321 -0.101409 -0.000909824)
(0.449684 -0.114828 -0.00108134)
(0.441473 -0.129517 -0.00127974)
(0.43128 -0.145348 -0.00151313)
(0.418595 -0.162048 -0.00179408)
(0.402733 -0.1791 -0.00213715)
(0.382833 -0.195672 -0.00259594)
(0.357741 -0.210559 -0.00326542)
(0.326069 -0.222363 -0.00450112)
(0.438824 0.00289396 -0.00617627)
(0.440623 0.00307601 -0.00645661)
(0.443277 0.00366237 -0.00695043)
(0.446328 0.00409174 -0.00617734)
(0.448846 0.00398263 -0.00457741)
(0.450443 0.00331897 -0.00305006)
(0.451352 0.00234776 -0.00196313)
(0.45177 0.00135613 -0.00123594)
(0.451861 0.00051551 -0.00075816)
(0.451773 -0.0001345 -0.00046187)
(0.451609 -0.000629593 -0.000287367)
(0.451419 -0.00102525 -0.000186318)
(0.451223 -0.00136936 -0.000128582)
(0.451025 -0.00169617 -9.69031e-05)
(0.450823 -0.00202886 -8.08223e-05)
(0.450611 -0.00238335 -7.44184e-05)
(0.450382 -0.00277262 -7.48122e-05)
(0.450129 -0.00320839 -8.07118e-05)
(0.449843 -0.00370143 -9.23456e-05)
(0.449519 -0.0042644 -0.000111992)
(0.449148 -0.00491771 -0.00014391)
(0.448732 -0.0056828 -0.000200888)
(0.44825 -0.00656123 -0.000269378)
(0.447648 -0.00756583 -0.000288038)
(0.446899 -0.00872195 -0.000240722)
(0.446019 -0.010079 -0.000190045)
(0.445044 -0.0116656 -0.000179893)
(0.443964 -0.0134649 -0.000195309)
(0.442788 -0.0154889 -0.000205915)
(0.441493 -0.0178033 -0.000244654)
(0.439997 -0.0204587 -0.000336601)
(0.438213 -0.0234815 -0.00041433)
(0.436092 -0.0268662 -0.00046038)