/*--------------------------------*- C++ -*----------------------------------*\
  =========                 |
  \\      /  F ield         | OpenFOAM: The Open Source CFD Toolbox
   \\    /   O peration     | Website:  https://openfoam.org
    \\  /    A nd           | Version:  6
     \\/     M anipulation  |
\*---------------------------------------------------------------------------*/
FoamFile
{
    version     2.0;
    format      ascii;
    class       volScalarField;
    location    "0";
    object      T;
}
// * * * * * * * * * * * * * * * * * * * * * * * * * * * * * * * * * * * * * //

dimensions      [0 0 0 1 0 0 0];

internalField   nonuniform List<scalar> 
10000
(
298.718
298.754
298.789
298.822
298.853
298.883
298.91
298.935
298.959
298.981
299.002
299.021
299.039
299.056
299.071
299.086
299.1
299.112
299.125
299.136
299.147
299.157
299.167
299.176
299.185
299.193
299.201
299.208
299.215
299.221
299.227
299.233
299.238
299.242
299.247
299.251
299.254
299.258
299.261
299.263
299.266
299.268
299.27
299.271
299.273
299.274
299.275
299.277
299.278
299.279
299.28
299.281
299.282
299.283
299.284
299.285
299.286
299.287
299.288
299.29
299.291
299.292
299.293
299.295
299.296
299.298
299.299
299.301
299.302
299.304
299.306
299.308
299.31
299.312
299.315
299.318
299.321
299.324
299.328
299.333
299.339
299.345
299.353
299.362
299.373
299.388
299.405
299.428
299.456
299.493
299.541
299.604
299.686
299.793
299.933
300.114
300.341
300.62
300.947
301.311
298.719
298.755
298.791
298.825
298.857
298.886
298.914
298.94
298.964
298.986
299.007
299.026
299.044
299.06
299.076
299.09
299.104
299.116
299.128
299.139
299.15
299.16
299.169
299.178
299.187
299.195
299.203
299.21
299.216
299.223
299.229
299.234
299.239
299.244
299.248
299.252
299.256
299.259
299.262
299.264
299.267
299.269
299.271
299.272
299.274
299.275
299.276
299.278
299.279
299.28
299.281
299.282
299.283
299.284
299.285
299.286
299.287
299.288
299.289
299.29
299.291
299.293
299.294
299.295
299.297
299.298
299.3
299.301
299.303
299.304
299.306
299.308
299.31
299.313
299.315
299.318
299.321
299.324
299.328
299.333
299.338
299.344
299.352
299.361
299.372
299.385
299.402
299.423
299.451
299.486
299.532
299.592
299.671
299.775
299.912
300.091
300.318
300.6
300.934
301.306
298.72
298.758
298.796
298.831
298.864
298.896
298.925
298.952
298.976
298.999
299.02
299.04
299.057
299.074
299.089
299.103
299.116
299.128
299.139
299.149
299.159
299.169
299.178
299.186
299.194
299.202
299.209
299.216
299.222
299.228
299.234
299.239
299.244
299.248
299.252
299.256
299.259
299.262
299.265
299.268
299.27
299.272
299.274
299.275
299.277
299.278
299.279
299.28
299.281
299.282
299.283
299.284
299.284
299.285
299.286
299.287
299.288
299.289
299.29
299.291
299.293
299.294
299.295
299.296
299.298
299.299
299.3
299.302
299.304
299.305
299.307
299.309
299.311
299.313
299.316
299.318
299.321
299.325
299.328
299.333
299.338
299.344
299.351
299.359
299.369
299.382
299.398
299.418
299.444
299.477
299.52
299.578
299.654
299.755
299.89
300.067
300.296
300.582
300.922
301.302
298.721
298.763
298.803
298.841
298.878
298.911
298.943
298.971
298.998
299.022
299.044
299.064
299.082
299.098
299.113
299.126
299.138
299.149
299.16
299.169
299.178
299.186
299.194
299.201
299.208
299.215
299.221
299.227
299.233
299.238
299.243
299.247
299.252
299.256
299.259
299.263
299.266
299.269
299.271
299.273
299.275
299.277
299.278
299.28
299.281
299.282
299.283
299.284
299.285
299.285
299.286
299.287
299.287
299.288
299.289
299.29
299.291
299.291
299.292
299.293
299.294
299.296
299.297
299.298
299.299
299.301
299.302
299.303
299.305
299.307
299.308
299.31
299.312
299.314
299.317
299.319
299.322
299.325
299.329
299.333
299.338
299.343
299.35
299.358
299.367
299.379
299.394
299.413
299.437
299.468
299.51
299.565
299.639
299.739
299.873
300.05
300.281
300.571
300.916
301.3
298.723
298.769
298.813
298.855
298.895
298.932
298.967
298.999
299.028
299.054
299.077
299.098
299.117
299.133
299.148
299.16
299.172
299.182
299.19
299.198
299.206
299.212
299.219
299.224
299.23
299.235
299.24
299.245
299.249
299.253
299.257
299.261
299.264
299.267
299.27
299.273
299.275
299.278
299.28
299.281
299.283
299.284
299.285
299.286
299.287
299.288
299.289
299.289
299.29
299.29
299.291
299.291
299.292
299.292
299.293
299.293
299.294
299.295
299.295
299.296
299.297
299.298
299.299
299.3
299.302
299.303
299.304
299.306
299.307
299.309
299.31
299.312
299.314
299.316
299.318
299.321
299.323
299.326
299.33
299.334
299.338
299.343
299.349
299.357
299.366
299.377
299.391
299.409
299.432
299.462
299.503
299.557
299.63
299.729
299.864
300.043
300.276
300.568
300.915
301.3
298.725
298.776
298.825
298.872
298.916
298.958
298.996
299.032
299.064
299.092
299.118
299.14
299.16
299.177
299.191
299.204
299.214
299.223
299.23
299.237
299.242
299.247
299.252
299.256
299.259
299.263
299.266
299.269
299.272
299.274
299.277
299.279
299.281
299.283
299.285
299.287
299.289
299.29
299.291
299.292
299.293
299.294
299.295
299.295
299.295
299.296
299.296
299.296
299.296
299.297
299.297
299.297
299.297
299.297
299.298
299.298
299.298
299.299
299.3
299.3
299.301
299.302
299.303
299.304
299.305
299.306
299.307
299.308
299.31
299.311
299.313
299.314
299.316
299.318
299.32
299.323
299.325
299.328
299.331
299.335
299.339
299.344
299.35
299.357
299.365
299.376
299.389
299.406
299.429
299.459
299.499
299.553
299.626
299.726
299.861
300.042
300.277
300.571
300.918
301.302
298.728
298.784
298.838
298.891
298.94
298.987
299.029
299.068
299.104
299.135
299.163
299.187
299.208
299.226
299.241
299.253
299.263
299.271
299.278
299.283
299.286
299.289
299.292
299.294
299.295
299.297
299.298
299.299
299.3
299.301
299.302
299.302
299.303
299.304
299.304
299.305
299.305
299.306
299.306
299.306
299.306
299.306
299.306
299.306
299.306
299.306
299.305
299.305
299.305
299.305
299.304
299.304
299.304
299.304
299.304
299.304
299.304
299.304
299.305
299.305
299.306
299.306
299.307
299.308
299.309
299.31
299.311
299.312
299.313
299.315
299.316
299.318
299.319
299.321
299.323
299.325
299.328
299.331
299.334
299.337
299.341
299.346
299.351
299.358
299.366
299.376
299.389
299.406
299.428
299.457
299.497
299.552
299.626
299.727
299.864
300.047
300.284
300.579
300.925
301.304
298.731
298.792
298.853
298.91
298.965
299.017
299.064
299.107
299.146
299.181
299.211
299.237
299.26
299.279
299.294
299.307
299.317
299.324
299.33
299.333
299.336
299.337
299.337
299.337
299.337
299.336
299.335
299.334
299.333
299.332
299.331
299.33
299.329
299.328
299.327
299.326
299.325
299.324
299.323
299.323
299.322
299.321
299.32
299.319
299.318
299.317
299.317
299.316
299.315
299.314
299.313
299.313
299.312
299.312
299.311
299.311
299.311
299.311
299.311
299.311
299.311
299.312
299.312
299.313
299.313
299.314
299.315
299.316
299.317
299.319
299.32
299.322
299.323
299.325
299.327
299.329
299.331
299.334
299.337
299.34
299.344
299.348
299.353
299.36
299.367
299.377
299.39
299.407
299.429
299.458
299.499
299.554
299.629
299.733
299.872
300.057
300.295
300.589
300.933
301.308
298.734
298.801
298.867
298.931
298.991
299.047
299.099
299.146
299.189
299.227
299.26
299.288
299.312
299.332
299.349
299.362
299.372
299.379
299.384
299.387
299.388
299.388
299.386
299.385
299.382
299.379
299.377
299.373
299.37
299.367
299.364
299.361
299.358
299.356
299.353
299.351
299.348
299.346
299.344
299.342
299.34
299.338
299.336
299.334
299.333
299.331
299.329
299.328
299.327
299.325
299.324
299.323
299.322
299.321
299.32
299.319
299.319
299.318
299.318
299.318
299.318
299.318
299.318
299.319
299.319
299.32
299.321
299.321
299.322
299.324
299.325
299.326
299.328
299.329
299.331
299.333
299.335
299.338
299.341
299.344
299.347
299.351
299.356
299.363
299.37
299.38
299.392
299.409
299.431
299.461
299.502
299.558
299.635
299.74
299.882
300.069
300.308
300.602
300.942
301.311
298.737
298.81
298.882
298.951
299.016
299.077
299.134
299.185
299.231
299.272
299.308
299.339
299.364
299.386
299.403
299.417
299.427
299.434
299.438
299.441
299.441
299.439
299.437
299.433
299.429
299.425
299.42
299.415
299.41
299.405
299.4
299.395
299.39
299.386
299.382
299.378
299.374
299.37
299.367
299.363
299.36
299.357
299.354
299.352
299.349
299.346
299.344
299.342
299.34
299.338
299.336
299.334
299.333
299.331
299.33
299.329
299.328
299.327
299.326
299.326
299.325
299.325
299.325
299.325
299.326
299.326
299.327
299.327
299.328
299.329
299.33
299.332
299.333
299.335
299.336
299.338
299.34
299.343
299.345
299.348
299.352
299.356
299.36
299.366
299.374
299.383
299.396
299.412
299.434
299.465
299.507
299.564
299.643
299.75
299.894
300.082
300.322
300.615
300.951
301.315
298.74
298.819
298.896
298.97
299.041
299.107
299.168
299.223
299.273
299.317
299.355
299.388
299.415
299.438
299.456
299.47
299.48
299.487
299.492
299.493
299.493
299.491
299.487
299.482
299.477
299.47
299.464
299.457
299.45
299.444
299.437
299.43
299.424
299.418
299.412
299.406
299.401
299.396
299.391
299.386
299.382
299.378
299.374
299.37
299.367
299.363
299.36
299.357
299.354
299.352
299.349
299.347
299.345
299.343
299.341
299.339
299.338
299.337
299.336
299.335
299.334
299.334
299.333
299.333
299.333
299.333
299.334
299.334
299.335
299.336
299.337
299.338
299.339
299.341
299.342
299.344
299.346
299.348
299.351
299.354
299.357
299.361
299.365
299.371
299.378
299.388
299.4
299.417
299.439
299.47
299.513
299.572
299.652
299.761
299.907
300.097
300.337
300.628
300.961
301.318
298.742
298.827
298.91
298.99
299.065
299.136
299.201
299.26
299.313
299.36
299.4
299.435
299.464
299.488
299.506
299.521
299.531
299.538
299.542
299.544
299.543
299.54
299.535
299.529
299.523
299.515
299.507
299.499
299.491
299.482
299.474
299.466
299.458
299.45
299.443
299.436
299.429
299.423
299.417
299.411
299.405
299.4
299.395
299.39
299.386
299.381
299.377
299.374
299.37
299.367
299.364
299.361
299.358
299.355
299.353
299.351
299.349
299.347
299.346
299.345
299.344
299.343
299.342
299.342
299.342
299.342
299.342
299.342
299.343
299.343
299.344
299.345
299.346
299.348
299.349
299.351
299.353
299.355
299.357
299.36
299.363
299.367
299.371
299.377
299.384
299.393
299.405
299.422
299.445
299.476
299.52
299.58
299.662
299.773
299.921
300.112
300.353
300.642
300.97
301.321
298.745
298.835
298.924
299.008
299.089
299.164
299.233
299.296
299.352
299.401
299.444
299.48
299.51
299.535
299.554
299.569
299.58
299.586
299.59
299.591
299.59
299.586
299.581
299.574
299.566
299.558
299.549
299.539
299.53
299.52
299.51
299.501
299.492
299.483
299.474
299.466
299.458
299.45
299.443
299.436
299.429
299.423
299.417
299.411
299.406
299.4
299.396
299.391
299.387
299.383
299.379
299.375
299.372
299.369
299.366
299.363
299.361
299.359
299.357
299.356
299.354
299.353
299.352
299.351
299.351
299.351
299.351
299.351
299.351
299.351
299.352
299.353
299.354
299.355
299.357
299.358
299.36
299.362
299.364
299.367
299.37
299.373
299.377
299.383
299.39
299.399
299.411
299.428
299.451
299.483
299.528
299.589
299.673
299.785
299.935
300.127
300.368
300.655
300.979
301.325
298.748
298.843
298.937
299.027
299.112
299.191
299.264
299.331
299.389
299.441
299.485
299.523
299.554
299.579
299.599
299.614
299.624
299.631
299.634
299.635
299.633
299.628
299.622
299.615
299.607
299.597
299.587
299.577
299.566
299.555
299.545
299.534
299.524
299.514
299.504
299.495
299.486
299.477
299.468
299.46
299.453
299.445
299.439
299.432
299.426
299.42
299.414
299.409
299.404
299.399
299.395
299.39
299.386
299.383
299.38
299.377
299.374
299.371
299.369
299.367
299.365
299.364
299.363
299.362
299.361
299.36
299.36
299.36
299.36
299.36
299.361
299.362
299.363
299.364
299.365
299.366
299.368
299.37
299.372
299.374
299.377
299.38
299.385
299.39
299.396
299.405
299.418
299.435
299.458
299.491
299.536
299.598
299.684
299.798
299.949
300.142
300.383
300.667
300.988
301.328
298.751
298.851
298.949
299.044
299.134
299.218
299.294
299.364
299.425
299.479
299.525
299.564
299.595
299.621
299.641
299.655
299.665
299.671
299.674
299.674
299.672
299.667
299.66
299.652
299.643
299.633
299.622
299.611
299.6
299.588
299.577
299.565
299.554
299.543
299.533
299.522
299.512
299.503
299.493
299.485
299.476
299.468
299.46
299.453
299.446
299.439
299.433
299.427
299.421
299.416
299.411
299.406
299.402
299.397
299.394
299.39
299.387
299.384
299.381
299.379
299.377
299.375
299.374
299.373
299.372
299.371
299.37
299.37
299.37
299.37
299.37
299.371
299.372
299.373
299.374
299.375
299.377
299.378
299.38
299.383
299.385
299.388
299.392
299.397
299.404
299.413
299.425
299.442
299.465
299.499
299.545
299.608
299.695
299.811
299.963
300.157
300.397
300.68
300.996
301.33
298.753
298.859
298.962
299.061
299.155
299.243
299.323
299.396
299.46
299.515
299.562
299.602
299.634
299.66
299.679
299.693
299.703
299.708
299.71
299.709
299.706
299.701
299.694
299.685
299.675
299.665
299.653
299.642
299.63
299.618
299.606
299.594
299.582
299.571
299.559
299.548
299.538
299.527
299.517
299.508
299.498
299.49
299.481
299.473
299.465
299.458
299.451
299.445
299.438
299.432
299.427
299.422
299.417
299.412
299.408
299.404
299.401
299.397
299.394
299.392
299.389
299.387
299.385
299.384
299.383
299.382
299.381
299.381
299.38
299.38
299.381
299.381
299.382
299.382
299.383
299.385
299.386
299.387
299.389
299.391
299.394
299.397
299.401
299.406
299.412
299.421
299.433
299.45
299.474
299.507
299.554
299.618
299.706
299.823
299.977
300.172
300.411
300.691
301.003
301.333
298.755
298.866
298.974
299.078
299.176
299.267
299.351
299.426
299.492
299.549
299.598
299.638
299.67
299.695
299.714
299.728
299.736
299.741
299.742
299.74
299.736
299.73
299.723
299.714
299.703
299.692
299.681
299.669
299.656
299.644
299.632
299.619
299.607
299.595
299.583
299.572
299.561
299.55
299.539
299.529
299.52
299.51
299.501
299.493
299.484
299.477
299.469
299.462
299.455
299.449
299.443
299.437
299.432
299.427
299.422
299.418
299.414
299.411
299.407
299.405
299.402
299.4
299.398
299.396
299.394
299.393
299.392
299.392
299.391
299.391
299.391
299.392
299.392
299.393
299.394
299.395
299.396
299.397
299.399
299.401
299.403
299.406
299.41
299.414
299.421
299.429
299.441
299.458
299.482
299.516
299.564
299.629
299.718
299.836
299.99
300.186
300.424
300.702
301.011
301.336
298.758
298.873
298.985
299.093
299.196
299.291
299.378
299.455
299.523
299.582
299.631
299.671
299.703
299.728
299.746
299.758
299.766
299.77
299.77
299.767
299.763
299.756
299.747
299.738
299.727
299.716
299.704
299.692
299.679
299.667
299.654
299.641
299.629
299.617
299.605
299.593
299.582
299.57
299.56
299.549
299.539
299.529
299.52
299.511
299.502
299.494
299.486
299.479
299.472
299.465
299.459
299.453
299.447
299.442
299.437
299.432
299.428
299.424
299.421
299.418
299.415
299.412
299.41
299.408
299.407
299.405
299.404
299.403
299.403
299.403
299.403
299.403
299.403
299.404
299.404
299.405
299.406
299.408
299.409
299.411
299.413
299.416
299.419
299.424
299.43
299.438
299.45
299.467
299.492
299.526
299.574
299.64
299.729
299.849
300.004
300.199
300.437
300.713
301.018
301.338
298.76
298.879
298.996
299.109
299.215
299.313
299.403
299.483
299.553
299.612
299.662
299.702
299.734
299.757
299.774
299.786
299.792
299.795
299.794
299.79
299.784
299.777
299.768
299.758
299.747
299.735
299.723
299.711
299.698
299.686
299.673
299.66
299.648
299.636
299.624
299.612
299.6
299.589
299.578
299.567
299.557
299.547
299.537
299.528
299.519
299.511
299.503
299.495
299.487
299.48
299.474
299.468
299.462
299.456
299.451
299.446
299.442
299.438
299.434
299.431
299.428
299.425
299.423
299.421
299.419
299.418
299.416
299.416
299.415
299.415
299.414
299.414
299.415
299.415
299.416
299.416
299.417
299.418
299.42
299.421
299.423
299.426
299.429
299.433
299.439
299.448
299.46
299.477
299.501
299.536
299.584
299.651
299.741
299.862
300.017
300.213
300.449
300.723
301.024
301.34
298.762
298.886
299.007
299.123
299.233
299.335
299.427
299.509
299.58
299.641
299.691
299.73
299.761
299.784
299.8
299.81
299.815
299.816
299.814
299.809
299.803
299.794
299.785
299.774
299.763
299.751
299.739
299.727
299.714
299.702
299.689
299.676
299.664
299.652
299.64
299.628
299.616
299.605
299.594
299.583
299.573
299.563
299.553
299.544
299.535
299.526
299.518
299.51
299.502
299.495
299.489
299.482
299.476
299.47
299.465
299.46
299.456
299.452
299.448
299.444
299.441
299.438
299.436
299.434
299.432
299.43
299.429
299.428
299.427
299.427
299.427
299.427
299.427
299.427
299.427
299.428
299.429
299.43
299.431
299.432
299.434
299.436
299.439
299.444
299.449
299.458
299.47
299.487
299.511
299.546
299.595
299.662
299.754
299.875
300.031
300.226
300.461
300.733
301.031
301.343
298.764
298.892
299.017
299.137
299.25
299.355
299.45
299.534
299.606
299.667
299.717
299.756
299.786
299.808
299.822
299.831
299.834
299.834
299.831
299.825
299.818
299.809
299.799
299.788
299.776
299.764
299.752
299.74
299.727
299.715
299.702
299.69
299.678
299.666
299.654
299.642
299.63
299.619
299.608
299.598
299.587
299.577
299.568
299.558
299.549
299.541
299.532
299.524
299.517
299.509
299.503
299.496
299.49
299.484
299.479
299.474
299.469
299.465
299.461
299.458
299.454
299.452
299.449
299.447
299.445
299.443
299.442
299.441
299.44
299.44
299.439
299.439
299.439
299.439
299.44
299.44
299.441
299.442
299.443
299.444
299.445
299.447
299.45
299.454
299.46
299.468
299.48
299.497
299.522
299.557
299.606
299.674
299.766
299.887
300.044
300.239
300.473
300.742
301.037
301.345
298.766
298.898
299.026
299.15
299.267
299.375
299.472
299.557
299.631
299.692
299.741
299.78
299.809
299.829
299.842
299.849
299.851
299.849
299.845
299.838
299.83
299.82
299.809
299.798
299.787
299.775
299.762
299.75
299.738
299.725
299.713
299.701
299.689
299.677
299.665
299.654
299.643
299.632
299.621
299.61
299.6
299.59
299.581
299.571
299.562
299.554
299.546
299.538
299.53
299.523
299.516
299.51
299.503
299.498
299.492
299.487
299.483
299.478
299.475
299.471
299.468
299.465
299.462
299.46
299.458
299.457
299.455
299.454
299.453
299.453
299.452
299.452
299.452
299.452
299.452
299.453
299.453
299.454
299.455
299.456
299.457
299.459
299.461
299.465
299.471
299.479
299.491
299.508
299.533
299.568
299.618
299.686
299.779
299.901
300.057
300.252
300.485
300.752
301.043
301.347
298.768
298.903
299.036
299.163
299.283
299.393
299.492
299.579
299.653
299.715
299.764
299.802
299.829
299.848
299.859
299.864
299.865
299.862
299.856
299.848
299.839
299.829
299.818
299.807
299.795
299.783
299.771
299.758
299.746
299.734
299.722
299.71
299.699
299.687
299.676
299.664
299.653
299.643
299.632
299.622
299.612
299.602
299.593
299.584
299.575
299.566
299.558
299.55
299.543
299.536
299.529
299.523
299.517
299.511
299.506
299.501
299.496
299.492
299.488
299.485
299.481
299.479
299.476
299.474
299.472
299.47
299.469
299.468
299.467
299.466
299.466
299.465
299.465
299.465
299.465
299.465
299.466
299.466
299.467
299.468
299.469
299.471
299.473
299.477
299.482
299.49
299.502
299.519
299.544
299.58
299.63
299.699
299.791
299.914
300.07
300.265
300.496
300.761
301.049
301.349
298.77
298.908
299.044
299.175
299.297
299.41
299.511
299.599
299.674
299.736
299.784
299.821
299.847
299.864
299.874
299.878
299.877
299.872
299.866
299.857
299.847
299.836
299.825
299.813
299.802
299.79
299.777
299.765
299.754
299.742
299.73
299.718
299.707
299.696
299.684
299.674
299.663
299.652
299.642
299.632
299.622
299.613
299.604
299.595
299.586
299.578
299.57
299.563
299.555
299.548
299.542
299.536
299.53
299.524
299.519
299.514
299.51
299.505
299.502
299.498
299.495
299.492
299.49
299.488
299.486
299.484
299.483
299.482
299.481
299.48
299.479
299.479
299.479
299.479
299.479
299.479
299.479
299.479
299.48
299.48
299.481
299.483
299.485
299.488
299.494
299.502
299.513
299.531
299.556
299.592
299.642
299.711
299.804
299.927
300.084
300.277
300.508
300.77
301.055
301.351
298.771
298.913
299.052
299.186
299.311
299.426
299.529
299.618
299.694
299.755
299.803
299.839
299.863
299.879
299.887
299.889
299.887
299.882
299.874
299.864
299.854
299.843
299.831
299.819
299.807
299.795
299.783
299.771
299.76
299.748
299.737
299.725
299.714
299.703
299.693
299.682
299.672
299.661
299.652
299.642
299.633
299.623
299.614
299.606
299.598
299.59
299.582
299.574
299.567
299.561
299.554
299.548
299.543
299.537
299.532
299.527
299.523
299.519
299.515
299.512
299.509
299.506
299.504
299.502
299.5
299.498
299.497
299.496
299.495
299.494
299.494
299.493
299.493
299.493
299.492
299.492
299.492
299.492
299.493
299.493
299.494
299.495
299.497
299.5
299.506
299.513
299.525
299.543
299.568
299.604
299.654
299.724
299.818
299.94
300.097
300.29
300.519
300.778
301.06
301.353
298.773
298.918
299.06
299.196
299.324
299.441
299.545
299.636
299.711
299.773
299.82
299.854
299.878
299.892
299.899
299.9
299.896
299.889
299.881
299.871
299.86
299.848
299.836
299.824
299.812
299.8
299.789
299.777
299.765
299.754
299.743
299.732
299.721
299.711
299.7
299.69
299.68
299.67
299.661
299.651
299.642
299.633
299.625
299.617
299.609
299.601
299.593
299.586
299.58
299.573
299.567
299.561
299.556
299.55
299.546
299.541
299.537
299.533
299.53
299.526
299.523
299.521
299.519
299.516
299.515
299.513
299.512
299.511
299.51
299.509
299.508
299.508
299.507
299.507
299.507
299.506
299.506
299.506
299.506
299.506
299.507
299.508
299.51
299.513
299.518
299.525
299.537
299.555
299.58
299.616
299.667
299.737
299.831
299.954
300.11
300.302
300.53
300.787
301.066
301.355
298.774
298.922
299.067
299.206
299.336
299.455
299.561
299.652
299.728
299.789
299.835
299.869
299.891
299.904
299.909
299.909
299.904
299.897
299.887
299.877
299.865
299.853
299.841
299.829
299.817
299.805
299.794
299.782
299.771
299.76
299.749
299.739
299.728
299.718
299.708
299.698
299.688
299.679
299.67
299.661
299.652
299.644
299.635
299.627
299.62
299.612
299.605
299.598
299.592
299.586
299.58
299.574
299.569
299.564
299.559
299.555
299.551
299.547
299.544
299.541
299.538
299.536
299.533
299.531
299.53
299.528
299.527
299.526
299.525
299.524
299.523
299.523
299.522
299.522
299.521
299.521
299.52
299.52
299.52
299.52
299.52
299.521
299.522
299.525
299.53
299.538
299.55
299.567
299.593
299.629
299.68
299.75
299.844
299.967
300.123
300.315
300.541
300.796
301.071
301.356
298.776
298.926
299.074
299.215
299.347
299.468
299.575
299.667
299.743
299.804
299.85
299.882
299.903
299.915
299.919
299.917
299.912
299.904
299.894
299.883
299.871
299.859
299.846
299.834
299.822
299.811
299.799
299.788
299.777
299.766
299.756
299.745
299.735
299.725
299.716
299.706
299.697
299.688
299.679
299.671
299.662
299.654
299.646
299.638
299.631
299.624
299.617
299.611
299.604
299.599
299.593
299.588
299.583
299.578
299.574
299.569
299.566
299.562
299.559
299.556
299.553
299.551
299.549
299.547
299.545
299.544
299.542
299.541
299.54
299.539
299.539
299.538
299.537
299.537
299.536
299.535
299.535
299.534
299.534
299.534
299.534
299.534
299.536
299.538
299.543
299.551
299.562
299.58
299.605
299.642
299.693
299.764
299.858
299.981
300.137
300.327
300.552
300.804
301.076
301.358
298.777
298.93
299.08
299.223
299.358
299.48
299.588
299.681
299.757
299.817
299.863
299.894
299.914
299.925
299.928
299.926
299.919
299.911
299.9
299.889
299.877
299.864
299.852
299.84
299.828
299.816
299.805
299.794
299.783
299.773
299.763
299.753
299.743
299.733
299.724
299.715
299.706
299.698
299.689
299.681
299.673
299.665
299.658
299.65
299.643
299.636
299.63
299.624
299.618
299.612
299.607
299.602
299.597
299.592
299.588
299.584
299.581
299.578
299.574
299.572
299.569
299.567
299.565
299.563
299.561
299.56
299.558
299.557
299.556
299.555
299.554
299.554
299.553
299.552
299.551
299.55
299.55
299.549
299.548
299.548
299.547
299.548
299.549
299.551
299.556
299.563
299.575
299.593
299.618
299.655
299.707
299.778
299.872
299.995
300.15
300.34
300.562
300.812
301.082
301.36
298.778
298.933
299.086
299.231
299.367
299.491
299.6
299.693
299.77
299.83
299.875
299.905
299.924
299.934
299.937
299.934
299.927
299.918
299.907
299.895
299.883
299.871
299.858
299.846
299.834
299.823
299.812
299.801
299.79
299.78
299.77
299.761
299.751
299.742
299.733
299.725
299.716
299.708
299.7
299.692
299.684
299.677
299.67
299.663
299.656
299.65
299.643
299.637
299.632
299.626
299.621
299.617
299.612
299.608
299.604
299.6
299.597
299.594
299.591
299.588
299.586
299.583
299.581
299.58
299.578
299.576
299.575
299.574
299.573
299.572
299.571
299.57
299.569
299.568
299.567
299.566
299.565
299.564
299.563
299.562
299.562
299.562
299.563
299.565
299.569
299.577
299.588
299.606
299.632
299.669
299.721
299.791
299.886
300.009
300.164
300.352
300.573
300.821
301.087
301.362
298.779
298.937
299.091
299.239
299.377
299.502
299.612
299.705
299.782
299.842
299.886
299.916
299.934
299.943
299.945
299.942
299.935
299.925
299.914
299.902
299.89
299.878
299.865
299.853
299.842
299.83
299.819
299.809
299.798
299.789
299.779
299.77
299.761
299.752
299.743
299.735
299.727
299.719
299.711
299.704
299.697
299.689
299.683
299.676
299.67
299.664
299.658
299.652
299.647
299.642
299.637
299.632
299.628
299.624
299.62
299.616
299.613
299.61
299.607
299.605
299.602
299.6
299.598
299.597
299.595
299.593
299.592
299.591
299.59
299.588
299.587
299.586
299.585
299.584
299.583
299.582
299.58
299.579
299.578
299.577
299.576
299.576
299.577
299.579
299.583
299.59
299.602
299.619
299.645
299.682
299.734
299.805
299.9
300.023
300.177
300.365
300.584
300.829
301.092
301.364
298.78
298.94
299.096
299.246
299.385
299.512
299.622
299.717
299.793
299.853
299.896
299.926
299.944
299.953
299.954
299.951
299.943
299.933
299.922
299.91
299.898
299.885
299.873
299.861
299.85
299.838
299.828
299.817
299.808
299.798
299.789
299.78
299.771
299.763
299.754
299.746
299.739
299.731
299.724
299.717
299.71
299.703
299.697
299.69
299.684
299.678
299.673
299.668
299.662
299.658
299.653
299.649
299.644
299.641
299.637
299.634
299.63
299.628
299.625
299.622
299.62
299.618
299.616
299.614
299.613
299.611
299.61
299.608
299.607
299.606
299.605
299.603
299.602
299.601
299.599
299.598
299.596
299.595
299.593
299.592
299.591
299.591
299.591
299.593
299.597
299.604
299.615
299.633
299.659
299.696
299.748
299.82
299.914
300.037
300.191
300.377
300.594
300.837
301.097
301.365
298.781
298.943
299.101
299.252
299.393
299.521
299.633
299.727
299.804
299.863
299.906
299.936
299.953
299.962
299.963
299.959
299.952
299.942
299.931
299.919
299.906
299.894
299.882
299.87
299.859
299.848
299.837
299.827
299.818
299.808
299.799
299.791
299.783
299.774
299.767
299.759
299.752
299.744
299.737
299.731
299.724
299.718
299.712
299.706
299.7
299.694
299.689
299.684
299.679
299.674
299.67
299.666
299.662
299.658
299.655
299.651
299.648
299.646
299.643
299.641
299.638
299.636
299.634
299.632
299.631
299.629
299.628
299.626
299.625
299.624
299.622
299.621
299.619
299.618
299.616
299.614
299.613
299.611
299.609
299.608
299.606
299.605
299.606
299.607
299.611
299.618
299.629
299.647
299.673
299.71
299.763
299.834
299.929
300.051
300.204
300.389
300.605
300.845
301.102
301.367
298.782
298.946
299.105
299.258
299.401
299.529
299.642
299.737
299.814
299.873
299.916
299.945
299.963
299.971
299.973
299.969
299.961
299.951
299.94
299.928
299.916
299.903
299.892
299.88
299.869
299.858
299.848
299.838
299.829
299.82
299.811
299.803
299.795
299.787
299.78
299.773
299.766
299.759
299.752
299.746
299.739
299.733
299.728
299.722
299.716
299.711
299.706
299.701
299.697
299.692
299.688
299.684
299.68
299.677
299.673
299.67
299.667
299.664
299.662
299.659
299.657
299.655
299.653
299.651
299.65
299.648
299.646
299.645
299.643
299.642
299.64
299.639
299.637
299.635
299.633
299.631
299.629
299.627
299.625
299.623
299.622
299.621
299.621
299.622
299.625
299.632
299.643
299.661
299.687
299.724
299.777
299.848
299.943
300.065
300.218
300.402
300.615
300.853
301.107
301.369
298.783
298.948
299.11
299.264
299.408
299.538
299.651
299.747
299.823
299.883
299.926
299.955
299.973
299.981
299.982
299.979
299.971
299.961
299.95
299.938
299.926
299.914
299.902
299.891
299.88
299.869
299.86
299.85
299.841
299.833
299.824
299.816
299.809
299.801
299.794
299.787
299.781
299.774
299.768
299.762
299.756
299.75
299.744
299.739
299.734
299.729
299.724
299.719
299.715
299.711
299.707
299.703
299.699
299.696
299.692
299.689
299.686
299.684
299.681
299.679
299.677
299.674
299.672
299.671
299.669
299.667
299.665
299.664
299.662
299.66
299.659
299.657
299.655
299.653
299.651
299.649
299.646
299.644
299.642
299.639
299.637
299.636
299.636
299.637
299.64
299.647
299.658
299.675
299.701
299.739
299.791
299.863
299.957
300.079
300.231
300.414
300.626
300.861
301.112
301.37
298.784
298.951
299.114
299.27
299.415
299.546
299.66
299.756
299.833
299.892
299.935
299.965
299.982
299.991
299.992
299.989
299.981
299.972
299.961
299.949
299.937
299.925
299.914
299.902
299.892
299.882
299.872
299.863
299.854
299.846
299.838
299.831
299.823
299.816
299.81
299.803
299.797
299.791
299.785
299.779
299.773
299.768
299.762
299.757
299.752
299.747
299.743
299.738
299.734
299.73
299.726
299.722
299.719
299.715
299.712
299.709
299.706
299.704
299.701
299.699
299.696
299.694
299.692
299.69
299.688
299.687
299.685
299.683
299.681
299.68
299.678
299.676
299.674
299.671
299.669
299.666
299.664
299.661
299.658
299.656
299.654
299.652
299.651
299.652
299.655
299.661
299.672
299.689
299.716
299.753
299.806
299.877
299.972
300.093
300.244
300.426
300.636
300.869
301.117
301.372
298.785
298.953
299.118
299.276
299.422
299.554
299.669
299.765
299.842
299.902
299.945
299.974
299.992
300.001
300.003
299.999
299.992
299.983
299.972
299.961
299.949
299.937
299.926
299.915
299.905
299.895
299.886
299.877
299.869
299.861
299.853
299.846
299.839
299.832
299.826
299.82
299.814
299.808
299.802
299.797
299.791
299.786
299.781
299.776
299.771
299.767
299.762
299.758
299.754
299.75
299.746
299.743
299.739
299.736
299.733
299.73
299.727
299.724
299.722
299.719
299.717
299.715
299.713
299.711
299.709
299.707
299.705
299.703
299.701
299.699
299.697
299.695
299.692
299.69
299.687
299.684
299.682
299.679
299.676
299.673
299.67
299.668
299.667
299.667
299.67
299.676
299.687
299.704
299.73
299.768
299.82
299.892
299.986
300.107
300.258
300.438
300.646
300.876
301.122
301.373
298.786
298.956
299.122
299.281
299.429
299.562
299.677
299.774
299.851
299.911
299.955
299.985
300.003