/*--------------------------------*- C++ -*----------------------------------*\
  =========                 |
  \\      /  F ield         | OpenFOAM: The Open Source CFD Toolbox
   \\    /   O peration     | Website:  https://openfoam.org
    \\  /    A nd           | Version:  6
     \\/     M anipulation  |
\*---------------------------------------------------------------------------*/
FoamFile
{
    version     2.0;
    format      ascii;
    class       volVectorField;
    location    "0";
    object      U;
}
// * * * * * * * * * * * * * * * * * * * * * * * * * * * * * * * * * * * * * //

dimensions      [0 1 -1 0 0 0 0];

internalField   nonuniform List<vector> 
13046
(
(-0.441795 0.175324 0)
(-0.683252 -0.278555 -5.01269e-21)
(-0.154334 -0.159196 -1.01856e-20)
(-0.408095 0.0668968 0)
(-0.0989262 -0.0748187 -9.55425e-21)
(-0.563297 -0.285394 0)
(-0.468472 0.0988214 1.51277e-21)
(-0.644891 -0.336237 2.49575e-21)
(-0.0657384 -0.0612472 -1.03259e-20)
(-1.29559 0.592273 3.21195e-21)
(-1.48427 -0.694899 0)
(0.08909 -0.0251879 6.02049e-21)
(-0.623389 0.240384 -4.79057e-21)
(-0.861486 -0.385749 -7.3559e-21)
(-0.0518312 -0.114227 5.37427e-21)
(-1.2188 0.659222 -4.62693e-21)
(0.0385779 -0.0419395 1.43583e-20)
(-1.5312 -0.588693 1.79524e-21)
(-0.173572 0.0125502 0)
(-0.385136 -0.243508 -5.27768e-21)
(-0.420722 -0.0632133 1.58663e-20)
(-1.23517 0.649325 -1.7992e-21)
(0.0539665 -0.0353117 -1.91868e-20)
(-1.52319 -0.61218 0)
(-0.348721 0.0794109 6.24303e-21)
(-0.540338 -0.230572 -1.24028e-20)
(-0.161603 -0.136006 0)
(-0.640241 0.279448 -8.58034e-21)
(-0.899066 -0.382686 2.18196e-21)
(-0.0670275 -0.130179 -9.45141e-21)
(-0.457718 0.20217 0)
(-0.716015 -0.26268 0)
(-0.177265 -0.181653 1.03661e-20)
(-0.301359 0.0400166 -7.2528e-21)
(-0.189472 -0.136828 3.60291e-21)
(-0.466393 -0.190994 2.16165e-20)
(-0.299209 0.0113765 -1.1177e-20)
(-0.187549 -0.111857 5.55214e-21)
(-0.427559 -0.185872 -1.10299e-20)
(-0.343308 0.191295 7.54781e-21)
(-0.417197 -0.341219 1.8296e-21)
(-0.675059 -0.140742 -7.70858e-21)
(-0.300637 -0.0724129 5.04637e-21)
(-0.229372 -0.0792983 8.46146e-21)
(-0.309309 -0.140223 0)
(-0.331773 -0.0609685 3.27843e-21)
(-0.19203 -0.0514089 -1.30425e-20)
(-0.337695 -0.174193 -1.61832e-21)
(-0.470119 0.169825 0)
(-0.704264 -0.30663 -3.54085e-22)
(-0.107456 -0.1334 -8.45468e-23)
(-0.691696 -0.534089 1.11455e-20)
(-0.284535 0.198819 0)
(-0.765698 -0.0318432 -9.06875e-21)
(-0.785056 -0.592651 -1.58969e-20)
(-0.792694 0.00417985 -1.45092e-20)
(-0.239569 0.171038 1.11197e-20)
(-1.32026 -0.385449 -1.37687e-21)
(-0.954465 0.5946 0)
(-0.178627 -0.206846 8.02341e-21)
(-0.884336 0.277607 -4.55128e-21)
(-1.08839 -0.607179 3.95697e-21)
(0.0507261 -0.0218553 -2.23475e-20)
(0.0852398 -0.0453664 1.12089e-20)
(-1.42993 -0.665967 -1.81049e-21)
(-1.20007 0.53162 -6.26641e-21)
(-0.892192 0.575989 0)
(-1.2534 -0.330827 0)
(-0.244238 -0.261413 0)
(-0.836506 0.539612 -3.16568e-21)
(-1.19616 -0.311136 0)
(-0.265515 -0.277462 6.41158e-21)
(-1.37793 -0.398087 0)
(-1.00695 0.626471 8.91749e-23)
(-0.158998 -0.196119 -6.00678e-23)
(-0.19133 0.0388772 0)
(-0.383846 -0.261284 5.65372e-21)
(-0.462274 -0.0884143 -1.12493e-20)
(-0.0806747 -0.132766 8.75733e-21)
(-1.08189 0.650697 -9.138e-21)
(-1.44519 -0.462603 0)
(-0.387484 0.0942687 3.30827e-21)
(-0.57731 -0.259345 0)
(-0.126123 -0.111218 0)
(0.0863227 -0.0406429 -9.99155e-21)
(-1.45966 -0.673002 -1.16381e-21)
(-1.23678 0.557718 3.67982e-21)
(-1.24356 0.42947 -6.63365e-21)
(0.098947 -0.0311789 0)
(-1.37939 -0.77373 -1.45464e-21)
(0.0437852 -0.0151396 0)
(-1.32844 0.33964 0)
(-1.35005 -0.889296 1.63333e-22)
(-0.928272 0.415789 0)
(-0.990221 0.432493 3.8831e-21)
(-1.19888 -0.53328 7.45666e-21)
(-1.24953 -0.576444 -3.46371e-21)
(0.0215056 -0.0875587 -4.69128e-21)
(0.0479489 -0.0699429 1.21069e-20)
(0.0900497 -0.0263159 -5.71173e-22)
(-1.23121 0.399414 6.49137e-21)
(-1.35336 -0.79327 0)
(-0.349314 -0.0292985 -1.76194e-23)
(-0.160727 -0.0516181 6.72398e-21)
(-0.39535 -0.212192 0)
(-0.134783 0.102434 0)
(-0.693454 0.0424292 -4.59688e-21)
(-0.752509 -0.520248 0)
(-0.269128 0.176337 1.28199e-20)
(-0.601399 -0.45507 0)
(-0.693803 -0.0616745 -1.75833e-20)
(-1.23504 0.585595 0)
(0.0693779 -0.0140745 0)
(-1.35767 -0.666612 6.10962e-22)
(-0.552172 0.205314 1.32251e-20)
(-0.795575 -0.351507 3.2369e-21)
(-0.0661622 -0.111806 9.93501e-21)
(-1.00695 0.504139 4.95672e-21)
(-0.941276 0.457502 -9.39449e-21)
(-1.30123 -0.526129 -6.24931e-21)
(-0.00149544 -0.0989997 5.37225e-21)
(-1.229 -0.506095 3.57195e-21)
(-0.0059932 -0.103578 -5.01801e-21)
(-1.28696 0.606898 -2.11366e-21)
(-1.47801 -0.683457 -6.45285e-22)
(0.0834983 -0.0201182 -2.68372e-21)
(-0.795419 0.358277 0)
(-1.0626 -0.46111 -5.3379e-21)
(-0.0232265 -0.1159 1.13338e-20)
(-0.397917 0.216932 0)
(-0.356147 -0.306683 -9.28829e-21)
(-0.710889 -0.179076 4.40235e-22)
(0.0324191 -0.00437443 0)
(-1.27601 0.314611 0)
(-1.32554 -0.872376 0)
(-1.10169 0.44831 0)
(-1.32649 -0.657901 -8.60389e-21)
(0.0846636 -0.0472885 -1.28647e-20)
(-0.521467 0.234499 0)
(-0.78276 -0.295849 0)
(-0.158842 -0.185112 0)
(-0.64116 0.144282 0)
(-0.820018 -0.475272 0)
(-0.0154577 -0.00988848 0)
(-0.24371 0.167534 0)
(-0.667767 -0.49739 0)
(-0.712326 -0.0312346 9.50927e-21)
(-0.131431 0.089183 -1.30619e-21)
(-0.661157 0.0348268 -1.00494e-20)
(-0.728092 -0.494445 1.02885e-20)
(-0.937779 0.307675 1.02937e-20)
(-1.139 -0.624997 0)
(0.0640205 -0.0320592 2.89916e-20)
(-0.089361 0.0316666 0)
(-0.553519 0.0393631 1.08517e-20)
(-0.641969 -0.407032 -2.66784e-21)
(-0.941751 -0.669045 0)
(-0.856029 0.0972186 1.03516e-20)
(-1.0174 -0.700261 0)
(-0.90541 0.144184 5.95597e-21)
(-0.12944 0.1085 0)
(-0.0787159 0.0772663 0)
(-0.675017 0.104188 1.39518e-21)
(-0.809415 -0.513459 5.36412e-21)
(-0.0457215 0.0297404 -5.66996e-21)
(-1.31951 0.570704 -3.29367e-21)
(0.0960174 -0.0290236 0)
(-1.45923 -0.723465 -1.83156e-21)
(-1.25963 0.597602 -1.61981e-21)
(0.0747118 -0.0134505 -1.23005e-21)
(-1.41648 -0.671323 0)
(-1.12585 0.478034 -5.47508e-21)
(-1.35546 -0.654182 0)
(0.0826365 -0.0499308 1.46172e-20)
(-0.511634 0.309277 0)
(-0.846277 -0.198805 2.33862e-21)
(-0.388755 -0.348257 5.29347e-21)
(-0.640918 0.0784912 9.11198e-21)
(-0.0718124 0.0494784 2.75924e-21)
(-0.755898 -0.481187 0)
(0.102877 -0.035234 0)
(-1.44166 -0.773531 0)
(-1.33862 0.51632 2.63789e-21)
(-0.452991 0.272926 0)
(-0.787291 -0.174536 -5.18644e-21)
(-0.404351 -0.343429 1.39041e-21)
(-0.0899515 0.0473324 0)
(-0.577587 0.0400175 0)
(-0.66015 -0.427884 0)
(-0.588983 0.112491 4.50913e-21)
(-0.75987 -0.442174 0)
(-0.0276302 -0.0140241 0)
(-0.942879 -0.448966 3.60881e-24)
(-0.00683135 -0.0871223 -6.72435e-21)
(-0.742669 0.322045 1.35743e-20)
(-1.00913 -0.440013 0)
(-0.0275715 -0.112087 -1.42e-20)
(-1.26697 0.499573 -6.5397e-21)
(0.103732 -0.0361817 9.07728e-21)
(-1.43299 -0.740257 -5.98857e-21)
(0.0581459 -0.00987933 8.33237e-21)
(-1.22538 0.337678 4.18881e-21)
(-1.31948 -0.830938 7.41458e-21)
(-1.31449 0.393248 -1.05594e-20)
(-1.38099 -0.836701 0)
(0.0811744 -0.02743 -8.17984e-21)
(-0.738019 -0.591148 -5.60777e-22)
(-0.854122 -0.0401083 4.00411e-21)
(-0.360672 0.263742 0)
(-0.582441 0.168744 -2.0249e-20)
(-1.06425 0.663645 4.77209e-21)
(-0.11001 -0.150921 -5.39149e-21)
(-1.44564 -0.448367 0)
(-1.39657 -0.837185 0)
(-1.34301 0.428562 -8.73462e-21)
(0.0895589 -0.0340209 0)
(-0.337983 0.00817733 -1.64339e-20)
(-0.150105 -0.0775996 -5.45319e-21)
(-0.443087 -0.220079 1.61348e-20)
(-0.608849 0.285329 0)
(-0.878544 -0.353463 -3.18907e-22)
(-0.11104 -0.155895 -5.45823e-21)
(0.0400772 -0.00255608 6.41394e-21)
(-1.2334 0.319286 0)
(-1.3093 -0.851275 -8.54789e-21)
(-0.639507 0.202609 1.61771e-20)
(-0.919459 -0.457307 1.31505e-20)
(0.000171012 -0.0736932 0)
(0.0894336 -0.0277193 0)
(-1.40855 -0.724149 4.39457e-22)
(-1.32077 0.568006 0)
(-0.307349 0.226093 0)
(-0.852689 -0.0121562 0)
(-0.794477 -0.631006 0)
(-1.2663 0.378637 9.25909e-21)
(-1.35982 -0.817162 0)
(0.0803878 -0.0236292 -4.63828e-23)
(-0.783489 0.124492 3.96491e-21)
(-0.9141 -0.605349 -3.9365e-21)
(-0.0529072 0.0537722 0)
(-0.794598 0.383041 0)
(-1.07343 -0.441842 5.00606e-21)
(-0.0502074 -0.131234 8.9088e-21)
(-1.21628 -0.856286 -1.19272e-20)
(-1.14797 0.216903 -7.71242e-21)
(-0.0478784 0.0527737 5.04372e-21)
(-0.97341 0.159686 0)
(-1.07749 -0.748498 -5.10017e-21)
(-0.0792644 0.0766265 -1.85526e-22)
(0.0866265 -0.0323688 -7.94601e-21)
(-1.37908 -0.733674 0)
(-1.33111 0.549739 -1.22678e-21)
(-0.364601 0.233868 6.88161e-21)
(-0.535059 -0.42672 -6.64289e-21)
(-0.748915 -0.112202 7.52087e-22)
(-1.14592 0.622946 1.30767e-21)
(0.0542704 0.00509535 -1.15224e-20)
(-1.37657 -0.583916 0)
(-0.14174 -0.0135728 -3.21523e-21)
(-0.403895 -0.0313187 -1.28167e-20)
(-0.42986 -0.256648 1.5824e-20)
(-0.793716 0.180745 4.65692e-21)
(-0.753697 0.134976 2.75961e-23)
(-0.962574 -0.588177 -9.74056e-21)
(-0.896488 -0.576888 0)
(-0.0339368 0.0363161 5.15416e-21)
(0.00536185 0.010868 -5.30037e-21)
(-0.050563 -0.107019 -1.14628e-20)
(-1.12104 0.662769 4.93375e-21)
(-1.4889 -0.483437 -5.28086e-21)
(-0.738547 0.368483 0)
(-1.02318 -0.39724 0)
(-0.0972484 -0.1577 -1.16877e-20)
(-1.03793 0.199275 -2.07778e-21)
(-1.13772 -0.786534 0)
(-0.0469244 0.056566 0)
(-1.06065 0.48288 -4.75488e-21)
(-1.32039 -0.588352 0)
(0.0507588 -0.0695186 5.27665e-21)
(-0.268375 -0.0526167 3.36167e-21)
(-0.326836 -0.123776 4.93534e-21)
(-0.244504 -0.106309 -1.68261e-21)
(-0.877214 0.162606 -7.58347e-21)
(-1.01171 -0.670568 0)
(-0.0395659 0.052566 -8.70705e-21)
(-0.755572 0.394507 0)
(-1.05131 -0.387951 6.26306e-21)
(-0.117371 -0.172828 -7.40673e-21)
(-0.67381 0.239648 0)
(-0.736791 0.271569 1.59932e-21)
(-0.383488 0.251264 2.4704e-21)
(-0.556534 -0.449141 1.9203e-20)
(-0.775617 -0.104741 -1.79205e-20)
(-0.926084 0.202003 -7.728e-21)
(-1.06668 -0.692202 7.93982e-21)
(-0.00363333 0.0303078 7.9442e-21)
(-1.10352 0.494984 0)
(0.0666011 -0.0594163 -1.87194e-20)
(-1.36021 -0.619553 -3.94787e-21)
(-0.264388 0.159019 -1.77597e-20)
(-0.557532 -0.427318 0)
(-0.664724 -0.0659832 5.91434e-21)
(-0.16206 0.13178 -1.02287e-20)
(-0.881033 0.0853993 -5.9164e-21)
(-0.947697 -0.696979 0)
(-0.921935 0.49584 -4.77976e-21)
(-1.23637 -0.444339 -5.14314e-21)
(-0.0787689 -0.145919 3.30591e-21)
(-0.335723 0.232594 8.88029e-22)
(-0.653938 -0.514754 0)
(-0.785124 -0.0561921 1.25551e-20)
(-0.975972 0.530632 0)
(-1.01353 0.537252 0)
(-1.29818 -0.469774 -3.08527e-21)
(-0.0622712 -0.134061 -8.62368e-21)
(-1.32674 -0.507877 4.36522e-21)
(-0.0270313 -0.110104 9.1354e-21)
(0.103497 -0.0342156 -6.97948e-21)
(-1.44966 -0.751531 0)
(-1.31631 0.532242 -4.25388e-21)
(-0.881617 0.436854 5.60021e-21)
(-1.17145 -0.471668 0)
(-0.0372087 -0.122402 3.01996e-21)
(-1.20166 -0.61164 -3.79012e-21)
(0.0462806 -0.00721452 1.00997e-20)
(-1.10555 0.561636 6.05584e-22)
(-0.497162 -0.00478285 -5.98774e-21)
(-0.119271 0.0312118 0)
(-0.542741 -0.345827 0)
(-0.810095 0.251024 1.08449e-20)
(-1.02214 -0.559106 0)
(0.0404637 -0.0305903 1.72833e-20)
(0.0997216 -0.0392904 -5.78904e-21)
(-1.2186 0.488313 1.35927e-20)
(-1.40733 -0.711972 5.05139e-21)
(-0.820065 -0.622764 0)
(-0.822259 0.0135692 5.31062e-21)
(-0.241788 0.184266 -1.26028e-20)
(-1.24994 -0.859874 -1.37839e-20)
(-1.18155 0.253405 -4.60439e-21)
(-0.0121768 0.0279274 0)
(-0.820216 -0.412013 -1.37156e-20)
(-0.0209096 -0.068821 0)
(-0.859113 0.320729 1.14469e-20)
(-1.08185 -0.541942 4.47799e-21)
(0.0421901 -0.0639667 5.24559e-21)
(-0.808529 -0.43253 7.95266e-21)
(-0.0119953 -0.0512319 -3.71401e-23)
(-1.19897 0.643294 -3.10813e-22)
(0.0285843 -0.0542218 6.78691e-21)
(-1.51295 -0.573745 -2.64104e-21)
(-0.719292 -0.602679 0)
(-0.892893 -0.0603913 1.23903e-21)
(-0.414046 0.301071 0)
(-0.915157 0.35166 -1.16672e-20)
(-1.15317 -0.571582 -5.45619e-21)
(0.0559077 -0.0570336 -6.30179e-21)
(-0.667522 0.138272 0)
(-0.82937 -0.503272 -7.78949e-21)
(-0.0200979 0.00575335 0)
(-0.710459 0.0123869 0)
(-0.724117 -0.530093 0)
(-0.188037 0.131023 0)
(-0.44457 0.134626 -4.57761e-21)
(-0.651105 -0.296786 -7.75628e-21)
(-0.104265 -0.116104 -6.00359e-24)
(-0.20451 0.161907 1.26754e-20)
(-0.86357 0.0538439 1.43069e-20)
(-0.899864 -0.67336 7.61748e-21)
(-1.29005 0.463175 -5.29697e-21)
(-1.41105 -0.7725 4.98799e-21)
(0.10363 -0.0343107 -8.58885e-21)
(-1.2599 -0.837202 9.44326e-21)
(-1.16748 0.271943 4.6676e-21)
(0.0126071 0.0168292 6.4899e-21)
(-0.72061 0.474135 -9.75244e-21)
(-0.362057 -0.343249 9.63529e-21)
(-1.0875 -0.25018 -7.46542e-21)
(-1.05002 0.603318 2.70064e-21)
(-1.00415 0.573564 -2.53443e-21)
(-1.3426 -0.451802 -9.80672e-22)
(-1.39232 -0.469216 0)
(-0.0705971 -0.130849 -3.11326e-21)
(-0.0887414 -0.1479 -2.79298e-21)
(0.0518297 -0.0027361 -1.36833e-20)
(-1.2567 -0.603503 4.17635e-21)
(-1.12514 0.57143 1.03289e-21)
(-1.16613 0.634535 -1.11349e-22)
(0.0565407 0.00467541 1.59403e-20)
(-1.41938 -0.586142 0)
(-0.857705 0.211957 -1.73288e-20)
(-1.03426 -0.623923 -2.08605e-21)
(0.0167431 0.00933808 0)
(0.102876 -0.03519 -1.7466e-20)
(-1.28607 0.522069 4.23338e-21)
(-1.451 -0.734019 0)
(-0.837896 0.504788 1.40733e-20)
(-0.890992 0.525519 -1.04682e-20)
(-1.17767 -0.357045 5.68362e-21)
(-1.2263 -0.387965 2.11319e-21)
(-0.203265 -0.228939 -5.51917e-21)
(-0.157425 -0.195608 -2.76662e-21)
(0.0842021 -0.0440428 0)
(-1.38041 -0.84982 0)
(-1.40112 0.42451 1.38891e-21)
(-1.07409 0.615028 -1.535e-21)
(0.0476573 0.0115139 0)
(-1.33198 -0.552338 0)
(-0.402565 -0.106606 1.31661e-23)
(-0.214526 0.00771482 7.18328e-21)
(-0.299486 -0.19174 3.52115e-21)
(-1.17388 0.592715 -1.88872e-21)
(-1.34176 -0.631546 -8.93678e-22)
(0.060025 -0.00451112 7.49064e-22)
(-0.585738 0.339665 0)
(-0.901841 -0.250564 -1.048e-20)
(-0.304147 -0.292665 -8.831e-23)
(-1.34312 0.499437 1.71296e-22)
(-1.43095 -0.790764 5.64987e-21)
(0.103276 -0.0362743 1.05806e-23)
(-1.06144 -0.615629 -1.01248e-22)
(0.0396367 -0.0214054 -5.84817e-21)
(-1.07818 0.475241 4.01706e-22)
(-0.28521 0.152611 -6.52362e-21)
(-0.429775 -0.332645 5.99556e-21)
(-0.61823 -0.114699 1.89078e-20)
(-0.428725 0.00453236 0)
(-0.507818 -0.294978 -1.75662e-20)
(-0.111339 -0.0177302 8.78173e-21)
(-1.26721 0.629708 0)
(0.0759956 -0.0165793 8.00696e-21)
(-1.48873 -0.664092 -1.8468e-22)
(-0.462327 0.0200944 0)
(-0.548452 -0.323453 -6.03261e-21)
(-0.0953772 0.000273553 -1.24611e-20)
(-0.368959 -0.101039 7.46177e-21)
(-0.217665 -0.0174209 -3.79575e-21)
(-0.290859 -0.168799 1.87747e-21)
(-0.291629 0.220366 6.11059e-21)
(-0.897124 0.0148028 -4.96009e-21)
(-0.872995 -0.693296 8.37082e-21)
(-0.482187 -0.0646911 0)
(-0.432248 -0.286619 0)
(-0.171815 0.0561 1.04631e-21)
(-0.505983 -0.0260748 9.47489e-21)
(-0.505245 -0.327186 4.58963e-21)
(-0.148511 0.0546007 1.47288e-22)
(-0.664931 0.441378 1.4827e-20)
(-1.02844 -0.219224 -7.78602e-21)
(-0.416556 -0.386895 -9.53683e-21)
(0.0780325 -0.0303418 1.21112e-20)
(0.0866523 -0.0295164 -1.23461e-20)
(-1.50409 -0.666335 1.33804e-21)
(-1.49149 -0.68502 1.03721e-21)
(-1.26563 0.616452 0)
(-1.28122 0.602596 -3.28896e-21)
(-1.32037 0.467454 6.62915e-21)
(-1.42077 -0.788246 -3.83459e-21)
(0.103072 -0.0352801 1.0651e-20)
(-0.348259 -0.341937 -6.16455e-21)
(-0.775663 0.520156 3.04301e-21)
(-1.14531 -0.263489 9.51369e-21)
(-0.391362 0.238496 -6.28296e-21)
(-0.465195 -0.381134 -6.09559e-21)
(-0.746098 -0.139535 5.82889e-21)
(-0.992476 0.131636 0)
(-1.06741 -0.77637 5.27902e-21)
(-0.128846 0.106345 1.91627e-22)
(-1.17958 -0.705539 -1.63242e-22)
(0.064149 -0.0431102 -5.46021e-21)
(-1.2649 0.477845 -3.94986e-22)
(0.0622974 -0.0247196 0)
(-1.34382 0.369805 0)
(-1.36323 -0.879724 2.74313e-21)
(-1.2881 0.58824 2.21075e-21)
(0.083293 -0.020696 0)
(-1.43388 -0.698074 -4.31295e-22)
(0.0311433 -0.0142196 -2.17977e-32)
(-0.996444 -0.578755 2.50197e-21)
(-0.998928 0.46158 -6.71534e-22)
(-1.04127 -0.514757 -2.83712e-21)
(0.029333 0.000126152 2.17455e-32)
(-0.948728 0.522891 5.74755e-22)
(-1.17629 -0.70117 -1.05237e-20)
(-1.00891 0.287859 0)
(0.0513739 -0.00482297 -1.67585e-20)
(-1.32895 -0.807766 -2.69988e-22)
(0.0828971 -0.0526829 -5.58926e-21)
(-1.40575 0.456332 0)
(-1.13382 0.440203 -7.08812e-21)
(-1.33456 -0.68951 5.25735e-21)
(0.0920258 -0.0408232 8.61784e-21)
(-1.2088 0.691847 8.74747e-21)
(0.0306647 -0.0252271 4.81135e-21)
(-1.5583 -0.555588 0)
(-0.544964 0.175127 3.56663e-21)
(-0.0440141 -0.0843379 -3.40826e-21)
(-0.780658 -0.377925 3.34077e-21)
(-1.38148 -0.86373 1.3036e-21)
(0.0794902 -0.0390567 5.92925e-21)
(-1.38786 0.408283 1.83005e-21)
(-0.953721 0.106426 -5.74902e-21)
(-0.160036 0.129509 -3.44746e-21)
(-1.0213 -0.750879 0)
(-1.15835 -0.778211 0)
(-1.04497 0.225189 0)
(-0.0133478 0.0380216 0)
(0.00823788 -0.000441727 0)
(-0.598169 -0.314031 3.48776e-21)
(-0.578761 0.290918 -1.64586e-21)
(-1.19237 -0.640704 -1.21342e-21)
(0.0501832 -0.0160249 -7.05517e-21)
(-1.14044 0.542269 -6.64209e-22)
(-0.488452 0.138386 -9.15586e-21)
(-0.065029 -0.0865817 8.21301e-21)
(-0.699861 -0.34362 3.96133e-21)
(-1.40272 -0.813314 3.79995e-21)
(-1.38311 0.470929 -2.63307e-21)
(0.0955123 -0.0422614 0)
(0.0808386 -0.0487436 -6.19102e-21)
(-1.41988 0.425603 0)
(-1.35701 -0.852872 -2.85949e-21)
(-1.26602 0.553409 -3.89289e-21)
(0.094586 -0.0360586 1.86614e-20)
(-1.46674 -0.699194 0)
(-0.00628201 -0.080735 -1.38638e-20)
(-1.47891 -0.534711 3.75901e-21)
(-1.14529 0.635654 0)
(-0.638726 0.444354 -1.86475e-20)
(-1.01877 -0.194562 9.91788e-21)
(-0.483681 -0.439339 -3.02368e-21)
(-1.30309 -0.415476 1.46436e-21)
(-0.95612 0.571868 6.05746e-21)
(-0.142132 -0.184526 -8.56615e-21)
(-0.0095963 -0.0705541 -1.23838e-20)
(-1.17204 0.682475 0)
(-1.5381 -0.524442 0)
(-0.624819 0.334421 -3.13062e-21)
(-0.694587 0.374542 0)
(-0.920544 -0.306187 -1.08828e-20)
(-0.999714 -0.340494 1.16454e-20)
(-0.204598 -0.219589 1.53762e-21)
(-0.176117 -0.208697 -1.63822e-21)
(-0.573928 0.319641 3.00409e-21)
(-0.880271 -0.267633 0)
(-0.262954 -0.259095 2.9049e-21)
(-0.822761 0.517351 0)
(-1.17258 -0.33426 -9.19233e-21)
(-0.243693 -0.258613 1.99078e-21)
(-1.22586 -0.807813 -4.90642e-21)
(-1.1213 0.259236 5.047e-21)
(0.0121459 0.0187097 -1.3244e-20)
(-1.40562 -0.825363 0)
(-1.33622 0.45254 9.61501e-21)
(0.0967756 -0.0359057 0)
(0.0544011 -0.00601245 -4.28755e-21)
(-1.16257 0.318854 -3.00588e-21)
(-1.28348 -0.799673 -3.1328e-21)
(-1.1113 -0.524556 4.2936e-22)
(0.0345157 0.00351477 3.76374e-21)
(-0.992286 0.547771 0)
(-0.369739 0.180929 6.05815e-21)
(-0.378573 0.170057 0)
(-0.299107 -0.254253 0)
(-0.658018 -0.187843 2.26517e-20)
(-0.254317 -0.224394 0)
(-0.650643 -0.212417 -1.44621e-20)
(-0.720205 0.449374 0)
(-0.644639 0.40098 0)
(-0.331896 -0.316798 2.0227e-23)
(-1.06137 -0.288216 6.18679e-21)
(-0.293168 -0.287067 1.46255e-20)
(-0.986112 -0.254781 -1.33251e-20)
(-1.03799 -0.63889 0)
(0.0445314 -0.0320077 7.99154e-21)
(-1.13033 0.461021 0)
(-1.40885 -0.805569 -2.79212e-21)
(-1.36857 0.473445 9.37163e-22)
(0.0986937 -0.0391347 3.74167e-21)
(-0.443615 0.286849 -1.06361e-20)
(-0.53292 -0.446478 -6.81934e-21)
(-0.82119 -0.130551 1.84761e-20)
(-1.16714 -0.824218 1.07667e-20)
(-1.0867 0.191664 1.30072e-20)
(-0.0653916 0.0671257 0)
(-0.0262158 -0.096598 1.48255e-20)
(-1.45843 -0.515808 -3.99676e-21)
(-1.12047 0.631629 6.28566e-21)
(-1.31116 -0.691596 0)
(-1.26362 0.552869 0)
(0.0701756 -0.0243893 0)
(-1.33325 -0.721281 0)
(-1.29971 0.5384 1.66336e-21)
(0.0788333 -0.0328206 1.34821e-21)
(-0.883346 0.50019 -5.91026e-21)
(-1.20696 -0.412691 3.17797e-21)
(-0.124531 -0.174925 4.09127e-21)
(-0.225813 0.134689 -1.69523e-21)
(-0.567047 -0.415142 0)
(-0.631488 -0.0445878 -9.66495e-23)
(-1.28483 0.572058 4.53593e-21)
(0.093502 -0.032658 1.08031e-20)
(-1.48299 -0.699907 -1.20732e-21)
(-1.20444 -0.737881 0)
(-1.05329 0.293714 0)
(0.0492841 0.00149549 1.44623e-20)
(0.0667817 -0.0558631 3.57886e-21)
(-1.40753 -0.629932 6.5783e-21)
(-1.15254 0.538473 1.40725e-20)
(-0.605388 0.38397 0)
(-0.382684 -0.352674 -9.89543e-21)
(-0.95065 -0.228321 6.92677e-21)
(-0.757219 0.0902654 1.05503e-22)
(-0.854634 -0.58097 5.7722e-21)
(-0.0978761 0.0805582 0)
(-0.336532 0.196492 5.44541e-23)
(-0.469065 -0.376667 -2.0376e-21)
(-0.690687 -0.122132 -7.63464e-21)
(0.0991609 -0.0318831 5.36622e-24)
(-1.46697 -0.730561 2.46206e-21)
(-1.31082 0.556732 4.4293e-21)
(-1.06008 0.517162 -2.68757e-21)
(-1.34438 -0.56452 -2.24169e-21)
(0.0267215 -0.0807683 0)
(-0.293012 0.144912 -6.57e-21)
(-0.375645 -0.293291 1.3144e-20)
(-0.603666 -0.135861 -1.24791e-20)
(-1.18739 0.69712 3.7072e-21)
(0.00184883 -0.0543049 5.46107e-21)
(-1.5599 -0.531279 -1.5891e-21)
(-0.520648 0.257427 -3.84298e-21)
(-0.799086 -0.279518 0)
(-0.201032 -0.213177 0)
(-0.553355 0.0778002 -1.68059e-20)
(-0.684027 -0.408943 3.68071e-21)
(-0.0544511 0.00581307 0)
(-1.13962 -0.736229 0)
(-0.999933 0.226487 1.10506e-20)
(0.00491133 0.0294766 0)
(-1.19475 0.661865 -1.52512e-21)
(0.0533922 -0.00150195 -1.69803e-21)
(-1.49996 -0.585968 -4.83025e-22)
(-1.19005 0.677772 4.29624e-21)
(0.0451483 -0.00451579 0)
(-1.52377 -0.566793 -4.71767e-22)
(0.0522365 -0.0606591 3.19813e-21)
(-1.42625 -0.608267 -3.53635e-21)
(-1.1533 0.561151 -1.29655e-20)
(-0.793379 0.0721609 -5.15189e-21)
(-0.881212 -0.622856 -5.79777e-21)
(-0.137221 0.104459 0)
(0.0505877 0.00756744 1.55554e-21)
(-1.45379 -0.570986 4.42808e-22)
(-1.14407 0.64859 0)
(0.0984576 -0.0376107 0)
(-1.37217 -0.717015 -3.71376e-21)
(-1.19027 0.456058 -1.61359e-21)
(0.0229037 -0.0153881 6.42082e-21)
(-0.846134 -0.536525 -2.31124e-21)
(-0.900911 0.3919 0)
(-0.806265 0.489562 2.81697e-22)
(-0.932624 -0.433531 0)
(0.0211329 0.00613146 6.41129e-21)
(0.00261922 -0.0676317 -2.22292e-23)
(-1.51623 -0.545562 0)
(-1.17283 0.66264 0)
(0.0959905 -0.0307246 0)
(-1.44066 -0.741278 0)
(-1.33526 0.556501 5.07076e-21)
(-1.24612 0.611658 -4.14191e-21)
(-1.22428 0.592934 3.35055e-21)
(0.0691093 -0.0377973 -6.08307e-21)
(-1.50687 -0.638468 -5.10749e-22)
(0.0697227 -0.0433234 -9.93197e-21)
(-1.48378 -0.639557 1.21184e-21)
(-1.19265 0.429682 3.21446e-21)
(-1.35885 -0.740067 2.57518e-21)
(0.0977794 -0.0335369 0)
(-0.118045 0.101507 0)
(-1.11686 -0.819784 0)
(-1.05356 0.15312 0)
(-0.358169 0.127169 0)
(-0.203607 -0.179114 -1.82855e-20)
(-0.594081 -0.220934 7.89669e-21)
(-1.1519 0.359963 9.49566e-21)
(-1.29803 -0.763474 1.05124e-21)
(0.0800307 -0.0195685 1.26058e-20)
(0.0646691 -0.00983384 8.19924e-21)
(-1.13127 0.332485 -1.32132e-20)
(-1.26788 -0.770659 -1.45661e-21)
(-1.14509 0.69118 4.70129e-21)
(-0.0417754 -0.0938815 5.91793e-21)
(-1.52751 -0.489385 5.51096e-21)
(-0.746728 0.473622 0)
(-1.09808 -0.290149 2.74168e-21)
(-0.299185 -0.295787 -1.43373e-20)
(-0.640994 0.377451 0)
(-0.958822 -0.270867 1.3759e-20)
(-0.288903 -0.28686 -4.3906e-23)
(-1.00643 0.333125 -1.30767e-20)
(-1.2027 -0.671695 1.42727e-21)
(0.0738443 -0.027593 -7.32212e-21)
(-1.03801 0.328398 0)
(-1.21619 -0.697339 1.34612e-21)
(0.071206 -0.0202297 6.68932e-21)
(-0.254887 0.112371 0)
(-0.373995 -0.279873 -2.07781e-20)
(-0.552472 -0.11983 7.00649e-21)
(-0.718402 0.399596 0)
(-1.02636 -0.337603 0)
(-0.18852 -0.221634 2.20116e-21)
(0.0670368 -0.0352585 -1.28285e-20)
(-1.36273 -0.881447 -7.3771e-21)
(-1.39045 0.38574 0)
(-1.32701 0.514338 1.42342e-21)
(0.077796 -0.0408428 0)
(-1.28743 -0.738766 3.68689e-23)
(-1.31676 0.484556 -4.01807e-22)
(0.0721784 -0.0457168 0)
(-1.24181 -0.73328 1.8909e-22)
(-0.455651 0.258236 4.47748e-21)
(-0.349265 -0.303473 -2.1678e-21)
(-0.771165 -0.202279 -2.14502e-22)
(-1.23362 -0.668155 3.38682e-22)
(0.0611752 -0.0255061 1.08033e-20)
(-1.22621 0.532301 0)
(-1.11078 0.556291 1.13583e-20)
(0.0297672 -0.0740622 6.79115e-21)
(-1.39767 -0.575251 0)
(0.0579036 -0.0346812 -1.60696e-21)
(-1.16831 -0.685231 9.49329e-22)
(-1.21945 0.491762 0)
(-0.393769 0.0374482 1.14291e-20)
(-0.112088 -0.0563378 1.11916e-20)
(-0.516082 -0.269092 1.30287e-23)
(-0.774598 0.31125 -1.99503e-21)
(-1.02757 -0.480814 -1.70909e-21)
(0.00545087 -0.0884674 -7.6903e-21)
(-0.80874 -0.590442 1.32176e-20)
(-0.769032 0.0373931 1.23362e-20)
(-0.183607 0.132987 0)
(0.0867601 -0.0492868 0)
(-1.35558 -0.817543 -5.84674e-22)
(-1.40625 0.458886 0)
(-1.18493 -0.753795 0)
(-1.05135 0.269946 0)
(0.0309469 0.0127052 0)
(0.0251391 -0.0389059 0)
(-1.20997 0.684563 -3.09467e-21)
(-1.55759 -0.557647 1.56209e-21)
(-0.844277 0.343149 0)
(-1.0878 -0.518763 8.82422e-22)
(0.0257637 -0.0783912 7.51277e-21)
(-0.332756 0.101645 0)
(-0.201921 -0.168423 1.57162e-20)
(-0.552398 -0.209096 0)
(-1.39132 -0.804592 -3.58748e-21)
(-1.38143 0.490239 2.50458e-21)
(0.0942008 -0.0439377 0)
(0.0924432 -0.0435342 -7.43396e-21)
(-1.40358 -0.687511 2.34402e-22)
(-1.19131 0.50697 3.57939e-22)
(-1.23986 0.633559 0)
(-1.22349 0.629438 2.26567e-21)
(0.0677735 -0.0080384 -3.94114e-21)
(0.0668186 -0.00559059 -4.83555e-21)
(-1.47392 -0.629454 1.44306e-23)
(-1.44632 -0.632676 -1.18719e-23)
(-0.749627 0.188146 0)
(-0.92958 -0.554639 2.28016e-20)
(0.00839259 -0.00370354 8.28449e-21)
(-1.11694 -0.666761 1.47899e-20)
(-0.94786 0.254433 0)
(0.040043 0.000417988 -8.92905e-21)
(-0.499768 0.0955169 -9.45428e-21)
(-0.666407 -0.364224 6.33646e-21)
(-0.0485215 -0.038654 1.34646e-20)
(-1.33106 -0.772018 9.60633e-22)
(-1.36509 0.501902 2.00111e-21)
(-1.31193 -0.78605 -3.16357e-22)
(0.0843618 -0.0443431 0)
(-1.38077 0.476978 -1.92974e-21)
(0.081491 -0.0496796 0)
(-0.986264 0.40812 0)
(-1.22585 -0.596626 0)
(0.0604426 -0.0606404 8.23197e-21)
(-1.36998 0.509013 3.68694e-21)
(-1.3643 0.513534 -6.61976e-21)
(-1.40095 -0.781707 6.2166e-22)
(-1.37509 -0.767081 -2.32552e-21)
(0.0944088 -0.0401572 1.09526e-20)
(0.0896878 -0.0397261 -1.27041e-23)
(-0.902983 0.229184 0)
(-1.07105 -0.664636 -1.4104e-20)
(0.0147617 0.0176828 1.15764e-20)
(-0.684456 0.215577 8.8588e-21)
(-0.955964 -0.493387 -1.03834e-20)
(0.0213472 -0.0569154 0)
(-1.21726 0.679993 0)
(0.0445384 -0.0167577 0)
(-1.54289 -0.580391 4.53515e-22)
(-0.75999 0.217156 6.54231e-21)
(-0.955545 -0.540833 -6.35001e-21)
(0.0243025 -0.0199654 -1.36674e-20)
(-0.561477 0.13358 3.80022e-21)
(-0.752192 -0.413212 -7.44131e-21)
(-0.0237417 -0.0403444 7.7207e-21)
(-1.21958 0.649462 0)
(0.0612035 -0.00687584 0)
(-1.50323 -0.613447 -7.04804e-22)
(-0.866317 0.374627 0)
(-1.13242 -0.506371 1.73463e-21)
(0.0163464 -0.0903656 -8.19347e-21)
(-1.00026 -0.7588 0)
(-0.955271 0.0839437 0)
(-0.204864 0.160168 -4.43244e-22)
(-0.610235 0.399456 -4.80914e-22)
(-0.965274 -0.210402 0)
(-0.418874 -0.383147 1.5087e-20)
(-1.29259 -0.889306 5.23763e-21)
(0.000668286 0.0136428 0)
(-1.24893 0.279937 0)
(0.0160903 -0.00279047 -1.54262e-20)
(-0.796347 -0.425743 -4.87894e-21)
(-0.765431 0.389616 2.30319e-21)
(-0.801913 0.274052 0)
(-1.01503 -0.52803 6.34271e-21)
(0.0366935 -0.0512739 -6.9225e-21)
(-1.24296 0.651858 6.13672e-21)
(0.0584812 -0.0263099 2.04813e-20)
(-1.53256 -0.611757 0)
(-0.602172 -0.520493 -3.99477e-21)
(-0.942969 -0.12923 -6.70092e-21)
(-0.524876 0.370546 -4.17871e-21)
(-0.956228 0.565809 0)
(0.0363877 0.0119139 -5.68455e-21)
(-1.17534 -0.513431 0)
(-0.140952 0.0764298 8.35915e-21)
(-0.16517 0.0997713 -8.53501e-21)
(-0.598723 -0.410733 0)
(-0.580276 -0.00322163 8.04074e-21)
(-0.636799 -0.44798 -1.3255e-20)
(-0.624672 -0.00838471 -6.4248e-21)
(-0.49671 0.0643964 8.90816e-21)
(-0.624607 -0.358427 8.47892e-21)
(-0.0648101 -0.0131795 0)
(-0.235199 0.128334 7.49599e-21)
(-0.182529 0.0956882 0)
(-0.490356 -0.363011 -7.45314e-21)
(-0.598024 -0.0778296 7.18775e-21)
(-0.514991 -0.362859 7.51162e-21)
(-0.563711 -0.0470215 3.21184e-23)
(-0.747256 0.253222 5.5624e-22)
(-0.891499 -0.478817 -4.59225e-21)
(0.00999932 -0.0436427 -9.42746e-21)
(-0.689685 0.197639 -1.52588e-20)
(-0.894624 -0.494833 1.19502e-22)
(0.0095777 -0.0291799 0)
(0.0741144 -0.0522 0)
(-1.24663 -0.764682 0)
(-1.35803 0.46711 1.13737e-21)
(-0.510215 0.279836 -4.13081e-21)
(-0.811383 -0.23773 0)
(-0.284573 -0.266182 4.01015e-21)
(-1.35062 0.527946 -8.33328e-21)
(-1.43131 -0.769752 1.41316e-21)
(0.0989122 -0.0350253 -6.24439e-21)
(-1.04192 0.375607 0)
(-1.0978 0.401815 6.81664e-21)
(-1.24917 -0.664943 -1.78056e-21)
(-1.29556 -0.688337 5.14118e-21)
(0.0826531 -0.0363827 -9.03998e-21)
(0.0896029 -0.0362339 -8.31581e-21)
(-0.483725 0.249707 0)
(-0.773747 -0.247124 0)
(-0.25114 -0.243068 1.93227e-21)
(-0.792431 0.46574 4.72561e-21)
(-1.11735 -0.346827 0)
(-0.203702 -0.228248 4.75416e-21)
(-0.934929 0.343228 -3.7064e-21)
(-1.15765 -0.606725 0)
(0.065638 -0.0446716 0)
(-0.255422 0.0348246 8.7221e-21)
(-0.445635 -0.149854 -4.26556e-21)
(-0.248126 -0.174173 4.28087e-21)
(-1.11135 0.366768 0)
(-1.28093 -0.729413 0)
(0.0833456 -0.0243038 -1.3409e-20)
(-0.327896 0.129042 0)
(-0.261165 -0.216004 2.29387e-21)
(-0.585042 -0.187689 0)
(-0.901791 0.252949 -8.5663e-21)
(-1.07864 -0.642166 -7.96627e-21)
(0.0392421 -0.00712888 -1.16251e-21)
(-0.782814 0.439414 4.83511e-21)
(-1.09804 -0.36555 0)
(-0.1653 -0.206135 9.83548e-21)
(-0.269315 0.0658026 -8.64317e-21)
(-0.247007 0.0675742 -3.81656e-21)
(-0.489522 -0.162358 4.22481e-21)
(-0.256027 -0.192707 -8.5042e-21)
(-0.492017 -0.139207 0)
(-0.303047 -0.224296 -1.50688e-20)
(-0.209076 0.0857344 -3.78379e-21)
(-0.415698 -0.299952 9.71662e-21)
(-0.182103 0.0817225 2.43044e-21)
(-0.524347 -0.0864804 -9.74307e-21)
(-0.49408 -0.345204 -4.74381e-21)
(-0.54064 -0.0542299 2.04127e-22)
(-0.599866 0.305796 4.5539e-21)
(-0.657817 0.324412 0)
(-0.886812 -0.315515 8.20986e-21)
(-0.936618 -0.355628 -6.41613e-21)
(-0.173113 -0.198308 -8.96472e-21)
(-0.122721 -0.167275 1.49071e-20)
(0.0150765 -0.0731868 0)
(-1.45626 -0.56086 -2.09339e-21)
(-1.14611 0.607481 -6.40679e-21)
(-0.233339 0.180433 5.40922e-21)
(-0.904517 0.0512411 7.82352e-21)
(-0.929372 -0.712294 -1.32518e-20)
(0.0348664 -0.0585147 -6.93776e-21)
(0.0528911 -0.0534131 5.56108e-21)
(-1.48105 -0.589882 1.81258e-21)
(-1.46617 -0.612228 3.23614e-21)
(-1.18126 0.618412 1.61701e-20)
(-1.1907 0.595317 -8.37264e-21)
(-0.369043 0.259591 7.73732e-21)
(-0.673004 -0.538962 -6.45563e-21)
(-0.821555 -0.0653952 1.83089e-21)
(-0.262648 -0.0197732 1.48281e-20)
(-0.231749 -0.12434 0)
(-0.371651 -0.140584 -1.46635e-20)
(-1.13641 0.398886 -3.19103e-21)
(-1.31197 -0.723242 -5.81055e-21)
(0.091305 -0.0306951 0)
(-0.416264 0.210214 0)
(-0.293706 -0.266335 -1.84062e-21)
(-0.706628 -0.204644 -7.31733e-21)
(-0.821717 0.453926 0)
(-1.13535 -0.39118 0)
(-0.134713 -0.184052 -9.1508e-21)
(-1.08025 0.59906 -7.16368e-21)
(-1.0712 0.573534 0)
(-1.40906 -0.511391 1.33418e-21)
(-0.0335509 -0.106869 -8.56794e-21)
(-1.38699 -0.523401 -3.61588e-21)
(-0.0160725 -0.0993521 1.16129e-20)