/*--------------------------------*- C++ -*----------------------------------*\
  =========                 |
  \\      /  F ield         | OpenFOAM: The Open Source CFD Toolbox
   \\    /   O peration     | Website:  https://openfoam.org
    \\  /    A nd           | Version:  6
     \\/     M anipulation  |
\*---------------------------------------------------------------------------*/
FoamFile
{
    version     2.0;
    format      ascii;
    class       volVectorField;
    location    "0";
    object      U;
}
// * * * * * * * * * * * * * * * * * * * * * * * * * * * * * * * * * * * * * //

dimensions      [0 1 -1 0 0 0 0];

internalField   nonuniform List<vector> 
13046
(
(-0.4588 0.185387 0)
(-0.686237 -0.270686 -5.44228e-21)
(-0.157194 -0.151888 -1.11421e-20)
(-0.422701 0.0761932 0)
(-0.10585 -0.0671832 -1.04138e-20)
(-0.565527 -0.277335 0)
(-0.484153 0.108262 1.6388e-21)
(-0.646627 -0.328415 2.71593e-21)
(-0.0729192 -0.0535772 -1.12727e-20)
(-1.31656 0.60308 3.65978e-21)
(-1.49551 -0.694867 0)
(0.0864535 -0.0211649 6.67335e-21)
(-0.642079 0.250812 -5.19187e-21)
(-0.863733 -0.378288 -8.0499e-21)
(-0.0556953 -0.10751 5.8997e-21)
(-1.23937 0.671046 -5.20947e-21)
(0.0374883 -0.0380757 1.59286e-20)
(-1.54158 -0.587052 2.18402e-21)
(-0.185051 0.0212088 0)
(-0.387393 -0.235613 -5.7424e-21)
(-0.429661 -0.0543761 1.71697e-20)
(-1.25591 0.661111 -2.04674e-21)
(0.0525538 -0.0314472 -2.12846e-20)
(-1.53363 -0.610794 0)
(-0.363403 0.0887161 6.77041e-21)
(-0.543658 -0.222435 -1.34464e-20)
(-0.166062 -0.12825 0)
(-0.659084 0.290125 -9.32325e-21)
(-0.901538 -0.375491 2.38416e-21)
(-0.0699098 -0.123571 -1.03651e-20)
(-0.475129 0.212343 0)
(-0.719233 -0.254742 0)
(-0.179399 -0.174535 1.13397e-20)
(-0.314484 0.0490503 -7.86532e-21)
(-0.194191 -0.128978 3.92391e-21)
(-0.470618 -0.182725 2.34361e-20)
(-0.311138 0.0202863 -1.21158e-20)
(-0.193279 -0.103837 6.03994e-21)
(-0.431741 -0.177601 -1.19674e-20)
(-0.359734 0.20171 8.24188e-21)
(-0.417513 -0.333971 2.0114e-21)
(-0.681828 -0.132716 -8.35649e-21)
(-0.308811 -0.063807 5.47113e-21)
(-0.236953 -0.0709375 9.19152e-21)
(-0.314701 -0.132031 0)
(-0.340575 -0.0524572 3.54404e-21)
(-0.200728 -0.0430933 -1.41603e-20)
(-0.341703 -0.166053 -1.75785e-21)
(-0.487287 0.179766 0)
(-0.706739 -0.298902 -3.84988e-22)
(-0.111057 -0.126179 -8.1482e-23)
(-0.691838 -0.5273 1.22833e-20)
(-0.299732 0.209808 0)
(-0.777314 -0.0238192 -9.87414e-21)
(-0.785373 -0.58607 -1.75179e-20)
(-0.80647 0.012394 -1.58018e-20)
(-0.254116 0.181974 1.22184e-20)
(-1.32603 -0.380364 -1.54385e-21)
(-0.974242 0.60774 0)
(-0.178419 -0.201624 8.8818e-21)
(-0.904443 0.287387 -4.93436e-21)
(-1.09097 -0.601021 4.37666e-21)
(0.0425442 -0.0147251 -2.45794e-20)
(0.08183 -0.040496 1.23962e-20)
(-1.43737 -0.662942 -2.08892e-21)
(-1.22127 0.542543 -6.93593e-21)
(-0.911582 0.589419 0)
(-1.25876 -0.325262 0)
(-0.243852 -0.255986 0)
(-0.855662 0.552829 -3.47846e-21)
(-1.20122 -0.305249 0)
(-0.265162 -0.271836 7.09656e-21)
(-1.38442 -0.393412 0)
(-1.02682 0.639748 9.83768e-23)
(-0.158771 -0.191136 -5.91791e-23)
(-0.204073 0.0478429 0)
(-0.385627 -0.253513 6.15735e-21)
(-0.470818 -0.0796742 -1.21818e-20)
(-0.0807468 -0.128139 9.71318e-21)
(-1.10211 0.663687 -1.01154e-20)
(-1.45276 -0.45881 0)
(-0.402734 0.103649 3.58561e-21)
(-0.579962 -0.251296 0)
(-0.131124 -0.103589 0)
(0.0832183 -0.036023 -1.10637e-20)
(-1.46799 -0.670662 -1.38245e-21)
(-1.25803 0.568674 4.07947e-21)
(-1.26521 0.439291 -7.33304e-21)
(0.0925508 -0.0250303 0)
(-1.38582 -0.77084 -1.66919e-21)
(0.0355301 -0.00698301 0)
(-1.35026 0.348247 0)
(-1.35613 -0.887233 1.92313e-22)
(-0.948632 0.426843 0)
(-1.01085 0.443403 4.25012e-21)
(-1.20284 -0.527545 8.28378e-21)
(-1.25397 -0.57118 -3.85181e-21)
(0.018317 -0.0817351 -5.17706e-21)
(0.0442834 -0.0642059 1.33534e-20)
(0.0827761 -0.019706 -6.30945e-22)
(-1.2528 0.409132 7.17584e-21)
(-1.35932 -0.790294 0)
(-0.359609 -0.020537 -1.82409e-23)
(-0.169362 -0.0434162 7.3143e-21)
(-0.398498 -0.204032 0)
(-0.14851 0.1121 0)
(-0.708008 0.0509789 -4.99185e-21)
(-0.753043 -0.513254 0)
(-0.284539 0.186865 1.40199e-20)
(-0.601435 -0.447936 0)
(-0.704099 -0.0535596 -1.90808e-20)
(-1.25557 0.596304 0)
(0.0675367 -0.0107291 0)
(-1.37142 -0.669455 2.84663e-22)
(-0.570166 0.215414 1.43333e-20)
(-0.797677 -0.343831 3.52594e-21)
(-0.0702901 -0.104865 1.08951e-20)
(-1.02749 0.515787 5.42231e-21)
(-0.961647 0.468936 -1.02699e-20)
(-1.30644 -0.521085 -6.95206e-21)
(-0.00332919 -0.0936581 5.93247e-21)
(-1.23333 -0.500484 4.00287e-21)
(-0.00815261 -0.097968 -5.54133e-21)
(-1.30785 0.61783 -2.49068e-21)
(-1.49002 -0.684036 -1.09691e-21)
(0.081225 -0.0163485 -2.97682e-21)
(-0.815191 0.369412 0)
(-1.0657 -0.454577 -5.88071e-21)
(-0.0260249 -0.109776 1.24588e-20)
(-0.41483 0.227531 0)
(-0.356566 -0.299536 -1.01806e-20)
(-0.716424 -0.171173 4.7966e-22)
(0.0235666 0.00405737 0)
(-1.29775 0.3232 0)
(-1.33088 -0.869578 0)
(-1.12274 0.458948 0)
(-1.33189 -0.653528 -9.69618e-21)
(0.0798086 -0.0415909 -1.42059e-20)
(-0.539466 0.244871 0)
(-0.785782 -0.288057 0)
(-0.160825 -0.178166 0)
(-0.658594 0.153658 0)
(-0.821218 -0.467965 0)
(-0.0251816 -0.00207953 0)
(-0.258772 0.17799 0)
(-0.667925 -0.490324 0)
(-0.723902 -0.0230372 1.03144e-20)
(-0.145026 0.098649 -1.43118e-21)
(-0.675353 0.0435992 -1.08842e-20)
(-0.728601 -0.487311 1.1264e-20)
(-0.95822 0.317659 1.12163e-20)
(-1.14209 -0.619138 0)
(0.0565606 -0.0252754 3.18985e-20)
(-0.101217 0.0402152 0)
(-0.567581 0.0484669 1.17488e-20)
(-0.642847 -0.399517 -2.9144e-21)
(-0.942853 -0.66282 0)
(-0.873349 0.105726 1.12692e-20)
(-1.01902 -0.694358 0)
(-0.924143 0.152879 6.4853e-21)
(-0.142576 0.118692 0)
(-0.0910708 0.0869292 0)
(-0.691796 0.113299 1.50913e-21)
(-0.810404 -0.506256 5.88436e-21)
(-0.057363 0.0380788 -6.21693e-21)
(-1.34082 0.581274 -3.75261e-21)
(0.0927989 -0.0247062 0)
(-1.46991 -0.723598 -2.38128e-21)
(-1.28028 0.608312 -1.95931e-21)
(0.0727751 -0.0100189 -1.36462e-21)
(-1.42979 -0.673283 0)
(-1.14699 0.488856 -6.02308e-21)
(-1.36139 -0.650101 0)
(0.0784595 -0.0445275 1.61428e-20)
(-0.529171 0.320961 0)
(-0.851657 -0.191224 2.55252e-21)
(-0.38866 -0.341519 5.82232e-21)
(-0.656501 0.0874535 9.87071e-21)
(-0.0840589 0.0581451 3.02111e-21)
(-0.756678 -0.473843 0)
(0.0984489 -0.0301596 0)
(-1.45116 -0.773084 0)
(-1.36026 0.526346 3.02789e-21)
(-0.470212 0.284186 0)
(-0.793024 -0.166783 -5.64175e-21)
(-0.404394 -0.336508 1.52717e-21)
(-0.10231 0.0560177 0)
(-0.591709 0.0488324 0)
(-0.660871 -0.420475 0)
(-0.605705 0.121712 4.88316e-21)
(-0.760967 -0.43469 0)
(-0.0373117 -0.00627557 0)
(-0.945134 -0.441901 -8.94135e-25)
(-0.0116014 -0.0804888 -7.372e-21)
(-0.762169 0.332847 1.47505e-20)
(-1.01184 -0.43314 0)
(-0.0308213 -0.105769 -1.56099e-20)
(-1.28843 0.509954 -7.25221e-21)
(0.0989161 -0.0308971 1.00439e-20)
(-1.4408 -0.737992 -7.04302e-21)
(0.0495099 -0.00216539 9.21602e-21)
(-1.24699 0.346795 4.6113e-21)
(-1.32465 -0.827656 8.47879e-21)
(-1.33632 0.402305 -1.17608e-20)
(-1.38779 -0.834613 0)
(0.0738723 -0.0203759 -9.05059e-21)
(-0.738055 -0.584719 -6.19392e-22)
(-0.865557 -0.0324911 4.36904e-21)
(-0.376042 0.275905 0)
(-0.600171 0.178454 -2.195e-20)
(-1.08427 0.676758 5.26886e-21)
(-0.109905 -0.146274 -5.97939e-21)
(-1.45322 -0.444614 0)
(-1.40422 -0.835807 0)
(-1.36479 0.437995 -9.8224e-21)
(0.0829688 -0.0274841 0)
(-0.349906 0.0171088 -1.77881e-20)
(-0.157253 -0.0695693 -5.9322e-21)
(-0.446239 -0.211948 1.75167e-20)
(-0.627531 0.29604 0)
(-0.881228 -0.346141 -3.48035e-22)
(-0.11324 -0.149149 -5.99695e-21)
(0.0310496 0.00563075 7.09189e-21)
(-1.25501 0.328279 0)
(-1.31433 -0.848127 -9.77501e-21)
(-0.657847 0.212468 1.75434e-20)
(-0.921525 -0.450231 1.4411e-20)
(-0.00549709 -0.0668731 0)
(0.0864954 -0.023594 0)
(-1.42042 -0.725695 9.23275e-22)
(-1.34197 0.578443 0)
(-0.322174 0.237911 0)
(-0.865857 -0.00450457 0)
(-0.794713 -0.624667 0)
(-1.28809 0.387945 1.03123e-20)
(-1.3659 -0.814435 0)
(0.0727634 -0.0166336 -4.65277e-23)
(-0.801297 0.133349 4.30588e-21)
(-0.915306 -0.598765 -4.33969e-21)
(-0.0650751 0.0626813 0)
(-0.814332 0.394355 0)
(-1.0767 -0.435366 5.51327e-21)
(-0.0522863 -0.125149 9.79463e-21)
(-1.21963 -0.852089 -1.34355e-20)
(-1.1688 0.225207 -8.47257e-21)
(-0.0586338 0.0626156 5.58184e-21)
(-0.992754 0.168203 0)
(-1.07947 -0.742951 -5.68643e-21)
(-0.0913525 0.0864796 -2.048e-22)
(0.0835678 -0.0281027 -8.8083e-21)
(-1.391 -0.735603 0)
(-1.35248 0.559898 -1.62735e-21)
(-0.380907 0.245072 7.52534e-21)
(-0.534974 -0.419754 -7.30252e-21)
(-0.757204 -0.104322 8.19078e-22)
(-1.16565 0.634296 1.67176e-21)
(0.0532739 0.00775889 -1.27887e-20)
(-1.39186 -0.586627 0)
(-0.152091 -0.00524602 -3.49419e-21)
(-0.414411 -0.0224962 -1.3868e-20)
(-0.431992 -0.248669 1.72125e-20)
(-0.81261 0.190053 5.06753e-21)
(-0.771546 0.144106 2.93747e-23)
(-0.96412 -0.581585 -1.07115e-20)
(-0.897703 -0.570174 0)
(-0.0456154 0.0448814 5.65142e-21)
(-0.00509931 0.0188495 -5.8171e-21)
(-0.0507753 -0.102624 -1.27137e-20)
(-1.1413 0.675471 5.45166e-21)
(-1.49724 -0.480062 -6.22776e-21)
(-0.757988 0.379722 0)
(-1.02634 -0.390442 0)
(-0.0988466 -0.151447 -1.28552e-20)
(-1.0581 0.208013 -2.27574e-21)
(-1.14031 -0.781474 0)
(-0.0583346 0.0660814 0)
(-1.08154 0.494047 -5.20406e-21)
(-1.32578 -0.583678 0)
(0.0476674 -0.0641359 5.83617e-21)
(-0.277153 -0.04397 3.6471e-21)
(-0.33286 -0.115467 5.3537e-21)
(-0.25083 -0.0980863 -1.82503e-21)
(-0.896153 0.171458 -8.2592e-21)
(-1.01339 -0.664435 0)
(-0.0513862 0.0616102 -9.58256e-21)
(-0.775003 0.406019 0)
(-1.05475 -0.381278 6.89636e-21)
(-0.118521 -0.166693 -8.16468e-21)
(-0.69275 0.249855 0)
(-0.756193 0.281936 1.73681e-21)
(-0.399831 0.262729 2.70536e-21)
(-0.556396 -0.442295 2.1123e-20)
(-0.78407 -0.0969535 -1.95324e-20)
(-0.945835 0.211079 -8.42513e-21)
(-1.06882 -0.686375 8.79622e-21)
(-0.0146128 0.0388083 8.74345e-21)
(-1.12453 0.505997 0)
(0.0632445 -0.0541073 -2.0685e-20)
(-1.36617 -0.615355 -4.49693e-21)
(-0.279845 0.169256 -1.94158e-20)
(-0.557711 -0.42014 0)
(-0.674607 -0.0575463 6.42177e-21)
(-0.175356 0.142467 -1.12617e-20)
(-0.89807 0.0936889 -6.44691e-21)
(-0.948805 -0.690942 0)
(-0.942016 0.507807 -5.2294e-21)
(-1.24096 -0.43872 -5.70955e-21)
(-0.0796367 -0.140395 3.65484e-21)
(-0.351367 0.244001 9.72769e-22)
(-0.65394 -0.507982 0)
(-0.795531 -0.0481749 1.36643e-20)
(-0.996233 0.542683 0)
(-1.03399 0.549192 0)
(-1.30341 -0.464584 -3.45515e-21)
(-0.0631181 -0.128718 -9.52999e-21)
(-1.33232 -0.503013 4.88912e-21)
(-0.0282537 -0.104887 1.01003e-20)
(0.0992657 -0.0292986 -7.73201e-21)
(-1.45889 -0.750571 0)
(-1.33784 0.542609 -4.77497e-21)
(-0.901745 0.448358 6.11792e-21)
(-1.17534 -0.465786 0)
(-0.0389938 -0.116633 3.32581e-21)
(-1.21648 -0.616399 -2.83959e-21)
(0.0451411 -0.00449053 1.12076e-20)
(-1.12546 0.572503 1.52009e-21)
(-0.509133 0.00411019 -6.46956e-21)
(-0.131344 0.0397204 0)
(-0.543841 -0.338102 0)
(-0.829799 0.260799 1.17719e-20)
(-1.02432 -0.552565 0)
(0.0325091 -0.0235768 1.89839e-20)
(0.0949541 -0.0339823 -6.4009e-21)
(-1.24005 0.498842 1.50497e-20)
(-1.41438 -0.70902 5.83763e-21)
(-0.820447 -0.616319 0)
(-0.836479 0.0215249 5.7936e-21)
(-0.256177 0.195564 -1.38477e-20)
(-1.25388 -0.856039 -1.56428e-20)
(-1.20279 0.261955 -5.0751e-21)
(-0.0222955 0.0371493 0)
(-0.821948 -0.404595 -1.49648e-20)
(-0.0270684 -0.0617136 0)
(-0.879218 0.331128 1.24764e-20)
(-1.08464 -0.535673 4.94109e-21)
(0.0367043 -0.0575561 5.76506e-21)
(-0.810133 -0.425078 8.69017e-21)
(-0.019298 -0.0440181 -3.29876e-23)
(-1.21961 0.655198 -3.45942e-22)
(0.0274963 -0.050147 7.52177e-21)
(-1.52245 -0.571448 -3.21298e-21)
(-0.719209 -0.596444 0)
(-0.903528 -0.0528746 1.35653e-21)
(-0.429745 0.313789 0)
(-0.935535 0.362011 -1.27171e-20)
(-1.15644 -0.565653 -6.02056e-21)
(0.050432 -0.0506765 -6.94091e-21)
(-0.684938 0.147616 0)
(-0.830575 -0.496123 -8.54507e-21)
(-0.0305824 0.013731 0)
(-0.723948 0.0208513 0)
(-0.724527 -0.523141 0)
(-0.202449 0.141048 0)
(-0.461105 0.144374 -4.96146e-21)
(-0.65356 -0.288839 -8.43927e-21)
(-0.108843 -0.108758 -4.51091e-24)
(-0.218296 0.172948 1.39556e-20)
(-0.879363 0.0619772 1.56051e-20)
(-0.900643 -0.667136 8.44775e-21)
(-1.31176 0.473111 -5.93978e-21)
(-1.41852 -0.770407 5.88316e-21)
(0.0979241 -0.028591 -9.5049e-21)
(-1.26396 -0.833289 1.06968e-20)
(-1.18874 0.280679 5.14487e-21)
(0.00271365 0.0255669 7.16523e-21)
(-0.739054 0.487242 -1.07172e-20)
(-0.361586 -0.337208 1.06659e-20)
(-1.09249 -0.243746 -8.25495e-21)
(-1.07033 0.615829 2.98055e-21)
(-1.02436 0.58609 -2.78647e-21)
(-1.34841 -0.446947 -1.09869e-21)
(-1.39883 -0.46476 0)
(-0.0709925 -0.125961 -3.44917e-21)
(-0.0891111 -0.14277 -3.08706e-21)
(0.0506403 -2.85676e-05 -1.51829e-20)
(-1.27163 -0.607608 3.12903e-21)
(-1.14503 0.58224 1.26318e-21)
(-1.18588 0.645875 -1.34593e-22)
(0.0555226 0.00741537 1.7692e-20)
(-1.43422 -0.588325 0)
(-0.877211 0.221302 -1.8836e-20)
(-1.03623 -0.617587 -2.30579e-21)
(0.00652545 0.0173123 0)
(0.0985559 -0.0302256 -1.93287e-20)
(-1.30756 0.532517 4.75211e-21)
(-1.45951 -0.732125 0)
(-0.857301 0.517485 1.54364e-20)
(-0.910734 0.538102 -1.14938e-20)
(-1.18226 -0.351119 6.29024e-21)
(-1.23107 -0.38227 2.34511e-21)
(-0.203223 -0.223191 -6.10441e-21)
(-0.157569 -0.190045 -3.05676e-21)
(0.0782523 -0.037608 0)
(-1.38895 -0.849768 0)
(-1.42311 0.433336 1.58544e-21)
(-1.09309 0.626615 -1.96235e-21)
(0.0468849 0.0138754 0)
(-1.34807 -0.555649 0)
(-0.409649 -0.0980849 1.00994e-23)
(-0.22596 0.0163779 7.79553e-21)
(-0.30282 -0.183797 3.82997e-21)
(-1.19392 0.603667 -2.64642e-21)
(-1.35638 -0.634763 -4.1639e-22)
(0.0586266 -0.00157547 8.31091e-22)
(-0.603895 0.351327 0)
(-0.906147 -0.243231 -1.14663e-20)
(-0.304249 -0.286075 -8.66332e-23)
(-1.36469 0.509462 1.76853e-22)
(-1.43995 -0.790103 6.94462e-21)
(0.0982706 -0.0308572 1.06306e-23)
(-1.07524 -0.621267 -7.3e-23)
(0.0383466 -0.0185274 -6.48625e-21)
(-1.09808 0.485035 3.90241e-23)
(-0.301014 0.162586 -7.11955e-21)
(-0.430289 -0.325217 6.56715e-21)
(-0.625753 -0.106473 2.04902e-20)
(-0.441065 0.0135149 0)
(-0.509438 -0.287092 -1.91036e-20)
(-0.121267 -0.00945142 9.57806e-21)
(-1.28795 0.640924 0)
(0.0741341 -0.0130026 8.88234e-21)
(-1.501 -0.664664 -1.84619e-22)
(-0.475233 0.029013 0)
(-0.54975 -0.315638 -6.57686e-21)
(-0.105866 0.00855721 -1.35851e-20)
(-0.376126 -0.0925334 8.09085e-21)
(-0.227982 -0.00886956 -4.12133e-21)
(-0.294946 -0.160789 2.03934e-21)
(-0.306026 0.232465 6.73375e-21)
(-0.911633 0.0225469 -5.42458e-21)
(-0.873488 -0.687289 9.28855e-21)
(-0.491356 -0.0561496 0)
(-0.433524 -0.278894 0)
(-0.18477 0.0651669 1.13902e-21)
(-0.516589 -0.0171651 1.02376e-20)
(-0.506325 -0.319414 5.01011e-21)
(-0.161262 0.063439 1.60456e-22)
(-0.683027 0.454486 1.629e-20)
(-1.03381 -0.212618 -8.56105e-21)
(-0.416056 -0.380708 -1.05485e-20)
(0.0758448 -0.0262792 1.34308e-20)
(0.084064 -0.0253687 -1.36826e-20)
(-1.51464 -0.665406 1.72788e-21)
(-1.50188 -0.684212 1.30619e-21)
(-1.2866 0.627669 0)
(-1.30233 0.613778 -3.74754e-21)
(-1.34216 0.477095 7.42016e-21)
(-1.42882 -0.786674 -4.63792e-21)
(0.0974373 -0.0294356 1.17858e-20)
(-0.347685 -0.336131 -6.8237e-21)
(-0.794338 0.533734 3.34444e-21)
(-1.15054 -0.257324 1.05197e-20)
(-0.408002 0.249495 -6.87077e-21)
(-0.465198 -0.374104 -6.69772e-21)
(-0.7531 -0.131671 6.32941e-21)
(-1.01142 0.139797 0)
(-1.06927 -0.770972 5.88578e-21)
(-0.141227 0.116926 2.11531e-22)
(-1.19191 -0.709729 3.00701e-22)
(0.061564 -0.0389636 -6.05574e-21)
(-1.28613 0.487239 -7.14041e-22)
(0.0546326 -0.0170927 0)
(-1.3657 0.378599 0)
(-1.36985 -0.878049 3.28504e-21)
(-1.30889 0.598882 2.60523e-21)
(0.0809077 -0.0169152 0)
(-1.44644 -0.699583 -9.06125e-22)
(0.0301902 -0.0117906 -2.41598e-32)
(-1.0104 -0.58502 2.06609e-21)
(-1.01838 0.471447 -3.13977e-22)
(-1.05663 -0.520345 -2.34808e-21)
(0.0286975 0.0021643 2.4102e-32)
(-0.967288 0.533897 2.57438e-22)
(-1.1795 -0.695836 -1.17027e-20)
(-1.02959 0.297363 0)
(0.0421976 0.00267978 -1.84741e-20)
(-1.33914 -0.809482 -5.1992e-22)
(0.0783311 -0.0470339 -6.19719e-21)
(-1.42766 0.465236 0)
(-1.15505 0.450703 -7.7748e-21)
(-1.3401 -0.685486 5.93523e-21)
(0.0865706 -0.0349847 9.51213e-21)
(-1.22888 0.703858 9.92767e-21)
(0.0300585 -0.0218859 5.34715e-21)
(-1.57075 -0.554952 0)
(-0.562518 0.18505 3.86393e-21)
(-0.049591 -0.0771755 -3.7331e-21)
(-0.782469 -0.370325 3.64062e-21)
(-1.3894 -0.863164 1.58408e-21)
(0.0729752 -0.0321942 6.57056e-21)
(-1.40975 0.417109 2.04557e-21)
(-0.971748 0.114533 -6.27725e-21)
(-0.172895 0.140415 -3.80088e-21)
(-1.02278 -0.745212 0)
(-1.16124 -0.773239 0)
(-1.06542 0.234016 0)
(-0.0242131 0.0470404 0)
(0.00802844 0.000554071 0)
(-0.609167 -0.319294 3.12379e-21)
(-0.591803 0.298118 -1.39685e-21)
(-1.2066 -0.645466 -7.46902e-22)
(0.0487391 -0.0130042 -7.82571e-21)
(-1.16064 0.552894 -1.0464e-21)
(-0.505085 0.148095 -9.92024e-21)
(-0.0708099 -0.0792345 8.97288e-21)
(-0.701769 -0.335789 4.30915e-21)
(-1.41181 -0.813253 4.95589e-21)
(-1.40505 0.480329 -3.06352e-21)
(0.0902602 -0.0364788 0)
(0.0751235 -0.0422583 -6.86448e-21)
(-1.44195 0.434324 0)
(-1.36592 -0.85351 -3.72143e-21)
(-1.2874 0.564177 -4.36787e-21)
(0.0911329 -0.0314069 2.06637e-20)
(-1.47556 -0.69733 0)
(-0.00704471 -0.0763292 -1.53761e-20)
(-1.48721 -0.53153 4.35236e-21)
(-1.16585 0.647902 0)
(-0.656437 0.457917 -2.04851e-20)
(-1.02489 -0.187891 1.09048e-20)
(-0.483147 -0.433213 -3.34677e-21)
(-1.30862 -0.410376 1.64192e-21)
(-0.97604 0.584828 6.65165e-21)
(-0.142164 -0.179245 -9.48233e-21)
(-0.0100075 -0.0665944 -1.37428e-20)
(-1.19229 0.694962 0)
(-1.54802 -0.522059 0)
(-0.643481 0.345715 -3.41342e-21)
(-0.713559 0.386108 0)
(-0.923949 -0.298959 -1.19083e-20)
(-1.0032 -0.333515 1.27429e-20)
(-0.205308 -0.213042 1.6912e-21)
(-0.176833 -0.202381 -1.80188e-21)
(-0.592165 0.330984 3.27535e-21)
(-0.884156 -0.260257 0)
(-0.263374 -0.252406 3.20034e-21)
(-0.841958 0.530417 0)
(-1.17741 -0.328339 -1.01719e-20)
(-0.243452 -0.252873 2.19944e-21)
(-1.2295 -0.803488 -5.52787e-21)
(-1.14236 0.268105 5.53578e-21)
(0.00201406 0.0272977 -1.46324e-20)
(-1.41352 -0.824103 0)
(-1.35803 0.462127 1.08059e-20)
(0.0907857 -0.0297803 0)
(0.045412 0.00166557 -4.73154e-21)
(-1.18391 0.328067 -3.32037e-21)
(-1.28801 -0.795776 -3.53939e-21)
(-1.12673 -0.529666 3.61158e-22)
(0.0338228 0.00565379 4.17499e-21)
(-1.01121 0.558797 0)
(-0.386415 0.191134 6.59178e-21)
(-0.395177 0.180128 0)
(-0.300166 -0.246976 0)
(-0.663045 -0.179733 2.45944e-20)
(-0.255861 -0.21706 0)
(-0.655022 -0.204332 -1.56947e-20)
(-0.738901 0.462002 0)
(-0.662916 0.413318 0)
(-0.33167 -0.310434 2.02355e-23)
(-1.06588 -0.281589 6.78822e-21)
(-0.292977 -0.280968 1.61494e-20)
(-0.990668 -0.247901 -1.45928e-20)
(-1.0507 -0.644517 0)
(0.0428979 -0.0287304 8.8621e-21)
(-1.15092 0.470677 0)
(-1.41769 -0.80526 -3.47363e-21)
(-1.39049 0.483037 1.06965e-21)
(0.0933489 -0.033485 4.14464e-21)
(-0.460307 0.29861 -1.16593e-20)
(-0.532707 -0.439729 -7.51439e-21)
(-0.828752 -0.122903 2.0149e-20)
(-1.16992 -0.819535 1.21068e-20)
(-1.10702 0.200008 1.42814e-20)
(-0.0766825 0.0771247 0)
(-0.0268173 -0.0920654 1.64427e-20)
(-1.46626 -0.512341 -4.6276e-21)
(-1.14095 0.644012 6.9399e-21)
(-1.32441 -0.694783 0)
(-1.28466 0.563122 0)
(0.0679802 -0.020733 0)
(-1.34576 -0.723972 0)
(-1.32077 0.548408 2.02394e-21)
(0.0760865 -0.0287183 1.49482e-21)
(-0.903165 0.512566 -6.47479e-21)
(-1.21151 -0.406926 3.52908e-21)
(-0.125007 -0.169296 4.52038e-21)
(-0.240843 0.144558 -1.85079e-21)
(-0.567377 -0.407851 0)
(-0.641909 -0.0360403 -1.00951e-22)
(-1.30608 0.582901 5.08937e-21)
(0.0903389 -0.0282159 1.19705e-20)
(-1.49265 -0.69864 -1.52043e-21)
(-1.20796 -0.73298 0)
(-1.07415 0.303081 0)
(0.0399548 0.0092519 1.59431e-20)
(0.0639169 -0.050916 3.95426e-21)
(-1.41445 -0.626376 7.52243e-21)
(-1.17359 0.549819 1.55231e-20)
(-0.623375 0.396408 0)
(-0.382369 -0.346227 -1.09098e-20)
(-0.955696 -0.22135 7.57202e-21)
(-0.773854 0.0990573 1.12315e-22)
(-0.855501 -0.574185 6.36346e-21)
(-0.110886 0.089886 0)
(-0.352795 0.207069 6.11189e-23)
(-0.469197 -0.369486 -2.23365e-21)
(-0.698371 -0.114039 -8.29034e-21)
(0.0955742 -0.0273056 5.39993e-24)
(-1.4769 -0.729931 3.20097e-21)
(-1.33216 0.567264 5.04642e-21)
(-1.0808 0.528664 -2.95377e-21)
(-1.35014 -0.559962 -2.51766e-21)
(0.0245091 -0.0755552 0)
(-0.308765 0.15479 -7.1487e-21)
(-0.376484 -0.285832 1.43744e-20)
(-0.61032 -0.127579 -1.35217e-20)
(-1.20748 0.709573 4.16944e-21)
(0.00146339 -0.0506153 6.06785e-21)
(-1.57083 -0.529549 -2.04432e-21)
(-0.538664 0.268127 -4.18445e-21)
(-0.802452 -0.27193 0)
(-0.202263 -0.206248 0)
(-0.568691 0.0870128 -1.81952e-20)
(-0.68507 -0.401346 4.02084e-21)
(-0.06499 0.0138831 0)
(-1.14229 -0.730887 0)
(-1.02019 0.235399 1.2048e-20)
(-0.00580369 0.0380854 0)
(-1.21459 0.673514 -1.782e-21)
(0.052481 0.00144212 -1.88607e-21)
(-1.51407 -0.58705 4.41762e-23)
(-1.20976 0.689594 5.00715e-21)
(0.0444417 -0.00154818 0)
(-1.53764 -0.567406 -9.73551e-22)
(0.0499868 -0.055888 3.5418e-21)
(-1.43351 -0.604773 -4.10234e-21)
(-1.17426 0.572639 -1.42984e-20)
(-0.80965 0.0807518 -5.61761e-21)
(-0.882015 -0.616312 -6.39027e-21)
(-0.150699 0.11439 0)
(0.0498115 0.0102173 1.72782e-21)
(-1.46884 -0.572996 -4.97009e-23)
(-1.16335 0.660165 0)
(0.092988 -0.0319318 0)
(-1.37839 -0.71355 -4.28944e-21)
(-1.21167 0.466468 -1.78011e-21)
(0.0221331 -0.0132561 7.11556e-21)
(-0.858946 -0.543494 -1.83186e-21)
(-0.91947 0.400941 0)
(-0.822877 0.500602 -7.23918e-23)
(-0.947986 -0.439223 0)
(0.0207547 0.00768569 7.10667e-21)
(0.00193441 -0.0635356 -2.16188e-23)
(-1.52559 -0.543028 0)
(-1.1932 0.675029 0)
(0.0926097 -0.0263071 0)
(-1.45158 -0.741895 0)
(-1.35668 0.566853 5.89397e-21)
(-1.26707 0.622977 -4.62813e-21)
(-1.2453 0.604274 3.74386e-21)
(0.0670807 -0.0336579 -6.74458e-21)
(-1.51662 -0.63661 -6.3816e-22)
(0.0674662 -0.0389658 -1.10013e-20)
(-1.49263 -0.637226 1.43951e-21)
(-1.21413 0.43981 3.5342e-21)
(-1.36486 -0.736678 2.95499e-21)
(0.0915572 -0.0275168 0)
(-0.130017 0.112302 0)
(-1.1191 -0.814883 0)
(-1.07317 0.161226 0)
(-0.373972 0.136807 0)
(-0.206353 -0.171661 -1.99586e-20)
(-0.597982 -0.212729 8.57334e-21)
(-1.17325 0.369593 1.04072e-20)
(-1.30292 -0.75951 1.18981e-21)
(0.0720927 -0.0126175 1.3915e-20)
(0.0559776 -0.00245253 9.05432e-21)
(-1.15253 0.342027 -1.44821e-20)
(-1.27225 -0.766427 -1.64864e-21)
(-1.16524 0.704035 5.22349e-21)
(-0.0419065 -0.0897813 6.56867e-21)
(-1.53689 -0.486525 6.4989e-21)
(-0.765476 0.486484 0)
(-1.1028 -0.283748 3.0328e-21)
(-0.298869 -0.289795 -1.58312e-20)
(-0.659425 0.38937 0)
(-0.963034 -0.263746 1.5054e-20)
(-0.288944 -0.280454 -4.21042e-23)
(-1.02719 0.343041 -1.42491e-20)
(-1.20635 -0.666491 1.59322e-21)
(0.0662904 -0.0208095 -8.06236e-21)
(-1.05893 0.338199 0)
(-1.21997 -0.692307 1.50193e-21)
(0.0631072 -0.0132574 7.37312e-21)
(-0.26984 0.121922 0)
(-0.375157 -0.272249 -2.27228e-20)
(-0.559571 -0.111428 7.58816e-21)
(-0.737459 0.411485 0)
(-1.0301 -0.330829 0)
(-0.188972 -0.215432 2.42378e-21)
(0.0600093 -0.0278409 -1.42189e-20)
(-1.3701 -0.880743 -8.90441e-21)
(-1.41242 0.394436 0)
(-1.34845 0.524061 1.91159e-21)
(0.0747261 -0.036429 0)
(-1.29926 -0.741798 3.71548e-22)
(-1.33822 0.493797 -4.12067e-22)
(0.0691666 -0.0412408 0)
(-1.2537 -0.736658 -7.71962e-22)
(-0.473018 0.269276 4.88374e-21)
(-0.349537 -0.296478 -2.38111e-21)
(-0.776207 -0.194567 -2.21308e-22)
(-1.24719 -0.672195 3.50536e-22)
(0.0592194 -0.0220015 1.19822e-20)
(-1.2472 0.542419 0)
(-1.1316 0.567963 1.25037e-20)
(0.0278746 -0.0691648 7.51244e-21)
(-1.40436 -0.571262 0)
(0.0557904 -0.0309711 -1.78221e-21)
(-1.18129 -0.689854 4.26889e-22)
(-1.24049 0.501412 0)
(-0.407055 0.0466535 1.23702e-20)
(-0.119974 -0.048436 1.21984e-20)
(-0.518329 -0.260991 1.65825e-23)
(-0.79418 0.321895 -2.16651e-21)
(-1.03019 -0.474096 -1.87726e-21)
(0.00103071 -0.0820173 -8.45204e-21)
(-0.809256 -0.583748 1.45654e-20)
(-0.783845 0.0459039 1.34243e-20)
(-0.197696 0.143261 0)
(0.0818351 -0.0434941 0)
(-1.36533 -0.818667 -8.97303e-22)
(-1.42817 0.467918 0)
(-1.18819 -0.748854 0)
(-1.07212 0.279213 0)
(0.0210231 0.0208256 0)
(0.0244665 -0.0352998 0)
(-1.23022 0.696647 -3.5262e-21)
(-1.56899 -0.556295 2.00966e-21)
(-0.864291 0.353877 0)
(-1.09077 -0.512476 9.65588e-22)
(0.0212363 -0.072047 8.25724e-21)
(-0.347836 0.111153 0)
(-0.205173 -0.160823 1.71517e-20)
(-0.556466 -0.200839 0)
(-1.40127 -0.805326 -4.67881e-21)
(-1.40314 0.499786 2.9142e-21)
(0.0895128 -0.0385026 0)
(0.0883057 -0.0383971 -8.22237e-21)
(-1.41053 -0.684365 2.71216e-22)
(-1.21258 0.517819 3.70275e-22)
(-1.26026 0.644705 0)
(-1.24371 0.640615 2.74039e-21)
(0.0663019 -0.00479769 -4.37254e-21)
(0.06537 -0.00244693 -5.36733e-21)
(-1.4872 -0.630625 -3.07417e-22)
(-1.46009 -0.634389 2.52911e-22)
(-0.768306 0.197753 0)
(-0.931157 -0.547886 2.50713e-20)
(-0.00145027 0.00400543 9.09251e-21)
(-1.11957 -0.660982 1.64401e-20)
(-0.968168 0.263799 0)
(0.0305032 0.00805798 -9.82711e-21)
(-0.515518 0.104818 -1.02373e-20)
(-0.667843 -0.35651 6.91602e-21)
(-0.0567463 -0.0309513 1.46989e-20)
(-1.34226 -0.77428 1.69149e-21)
(-1.3868 0.511368 2.52523e-21)
(-1.32279 -0.78831 -6.6693e-22)
(0.0806918 -0.0395095 0)
(-1.40255 0.486166 -2.43501e-21)
(0.0775111 -0.0445435 0)
(-1.00695 0.418976 0)
(-1.23 -0.591309 0)
(0.0558486 -0.0546956 9.06794e-21)
(-1.39169 0.518642 4.41113e-21)
(-1.38595 0.523129 -7.97192e-21)
(-1.41152 -0.782681 1.10078e-21)
(-1.38624 -0.768747 -3.52676e-21)
(0.0903145 -0.0351794 1.21376e-20)
(0.0859814 -0.0349888 -1.24289e-23)
(-0.922755 0.238562 0)
(-1.07334 -0.658702 -1.56304e-20)
(0.00433184 0.0258934 1.27403e-20)
(-0.703192 0.225486 9.6023e-21)
(-0.957937 -0.486454 -1.1392e-20)
(0.0147521 -0.0500356 0)
(-1.23742 0.69183 0)
(0.0437109 -0.0134836 0)
(-1.55568 -0.58021 9.35919e-22)
(-0.779127 0.226898 7.08764e-21)
(-0.957365 -0.534013 -6.98055e-21)
(0.0154432 -0.0126483 -1.50067e-20)
(-0.578506 0.143098 4.117e-21)
(-0.75357 -0.405589 -8.12182e-21)
(-0.0318621 -0.0329021 8.44685e-21)
(-1.23958 0.660954 0)
(0.0599888 -0.00371908 0)
(-1.51664 -0.614307 -1.3663e-21)
(-0.886415 0.385493 0)
(-1.13574 -0.500159 1.91472e-21)
(0.0127861 -0.0843347 -9.02578e-21)
(-1.00153 -0.753224 0)
(-0.972492 0.0919761 0)
(-0.218084 0.171716 -4.89145e-22)
(-0.628101 0.412204 -5.27713e-22)
(-0.970738 -0.203446 0)
(-0.418454 -0.376807 1.66554e-20)
(-1.29728 -0.886261 5.96703e-21)
(-0.00878027 0.0228015 0)
(-1.27048 0.288382 0)
(0.0156765 -0.00127592 -1.70973e-20)
(-0.80968 -0.431953 -4.36979e-21)
(-0.781781 0.398834 1.95473e-21)
(-0.821704 0.28416 0)
(-1.01729 -0.521365 6.96214e-21)
(0.0300432 -0.0445116 -7.60811e-21)
(-1.26353 0.663488 6.94578e-21)
(0.0571031 -0.0226296 2.27239e-20)
(-1.54411 -0.610873 0)
(-0.60179 -0.514233 -4.41963e-21)
(-0.951 -0.122056 -7.34418e-21)
(-0.541575 0.383752 -4.59496e-21)
(-0.974138 0.577139 0)
(0.0357895 0.0138993 -6.30994e-21)
(-1.19169 -0.518307 0)
(-0.154512 0.0854731 9.13496e-21)
(-0.179291 0.109207 -9.32977e-21)
(-0.599306 -0.403284 0)
(-0.592628 0.00546991 8.71322e-21)
(-0.637169 -0.440643 -1.45111e-20)
(-0.63705 0.000148942 -6.96567e-21)
(-0.511368 0.0735861 9.64427e-21)
(-0.625895 -0.350654 9.24316e-21)
(-0.0744692 -0.00518924 0)
(-0.250296 0.138026 8.18047e-21)
(-0.196704 0.105046 0)
(-0.490853 -0.355537 -8.14717e-21)
(-0.60701 -0.0694557 7.78859e-21)
(-0.515609 -0.35535 8.21103e-21)
(-0.57398 -0.038551 3.58443e-23)
(-0.766702 0.263278 6.03663e-22)
(-0.893217 -0.471705 -5.02972e-21)
(0.00243741 -0.0364776 -1.03229e-20)
(-0.708216 0.207443 -1.65346e-20)
(-0.896259 -0.487757 1.3116e-22)
(0.00112748 -0.0217974 0)
(0.0705741 -0.0472505 0)
(-1.25775 -0.767822 0)
(-1.37976 0.476165 1.67773e-21)
(-0.528064 0.290877 -4.50532e-21)
(-0.81555 -0.230081 0)
(-0.28509 -0.259314 4.40815e-21)
(-1.37219 0.537982 -9.64276e-21)
(-1.44156 -0.770137 1.96339e-21)
(0.0949603 -0.030228 -6.91878e-21)
(-1.06285 0.385789 0)
(-1.11893 0.412017 7.47651e-21)
(-1.25339 -0.660003 -1.98756e-21)
(-1.30041 -0.683858 5.80858e-21)
(0.0761681 -0.0300475 -9.96467e-21)
(0.083345 -0.0300548 -9.17898e-21)
(-0.501444 0.260394 0)
(-0.777648 -0.239432 0)
(-0.252034 -0.236039 2.11862e-21)
(-0.811736 0.478149 5.1786e-21)
(-1.12155 -0.340513 0)
(-0.203821 -0.222287 5.25978e-21)
(-0.955364 0.353542 -4.04334e-21)
(-1.16103 -0.600999 0)
(0.0593586 -0.0381896 0)
(-0.268185 0.0436933 9.46554e-21)
(-0.451245 -0.141413 -4.62625e-21)
(-0.251731 -0.166285 4.66533e-21)
(-1.13256 0.376651 0)
(-1.28556 -0.725065 0)
(0.0757875 -0.0175898 -1.4801e-20)
(-0.343612 0.13869 0)
(-0.263084 -0.208501 2.50661e-21)
(-0.589819 -0.179409 0)
(-0.921857 0.262688 -9.31253e-21)
(-1.0811 -0.63621 -8.81122e-21)
(0.0300114 0.000391974 -1.27831e-21)
(-0.802217 0.451436 5.29208e-21)
(-1.10195 -0.359201 0)
(-0.165748 -0.200118 1.08593e-20)
(-0.283172 0.0749268 -9.38014e-21)
(-0.260928 0.0767062 -4.14805e-21)
(-0.494969 -0.154016 4.57925e-21)
(-0.258876 -0.184928 -9.26477e-21)
(-0.498463 -0.130814 0)
(-0.305188 -0.216517 -1.64273e-20)
(-0.223242 0.0949664 -4.12078e-21)
(-0.416831 -0.2923 1.06264e-20)
(-0.196018 0.0910009 2.64744e-21)
(-0.532811 -0.0780583 -1.05515e-20)
(-0.494867 -0.337605 -5.17841e-21)
(-0.550625 -0.0455796 2.13415e-22)
(-0.618418 0.316812 4.95896e-21)
(-0.676814 0.335369 0)
(-0.889977 -0.308196 8.96541e-21)
(-0.939506 -0.348438 -7.00687e-21)
(-0.174287 -0.191667 -9.85036e-21)
(-0.124382 -0.160786 1.63797e-20)
(0.0138604 -0.0686661 0)
(-1.46408 -0.557486 -2.4429e-21)
(-1.16684 0.619414 -7.09944e-21)
(-0.247145 0.191975 5.96434e-21)
(-0.920365 0.0592532 8.55654e-21)
(-0.930235 -0.706354 -1.46975e-20)
(0.0334533 -0.0541824 -7.69073e-21)
(0.0509735 -0.0489646 6.16396e-21)
(-1.48959 -0.587092 2.11523e-21)
(-1.47441 -0.609383 3.75411e-21)
(-1.20201 0.630254 1.79404e-20)
(-1.21165 0.606932 -9.29477e-21)
(-0.384789 0.271507 8.49271e-21)
(-0.672907 -0.532342 -7.12357e-21)
(-0.831847 -0.0576489 1.99038e-21)
(-0.273019 -0.0111358 1.60735e-20)
(-0.237256 -0.116264 0)
(-0.377109 -0.132204 -1.59031e-20)
(-1.15771 0.408941 -3.50861e-21)
(-1.31713 -0.719139 -6.56488e-21)
(0.0845582 -0.0243717 0)
(-0.433422 0.220655 0)
(-0.294553 -0.259204 -2.01817e-21)
(-0.711371 -0.196693 -7.94979e-21)
(-0.841348 0.465925 0)
(-1.13933 -0.384987 0)
(-0.135317 -0.17816 -1.01033e-20)
(-1.10071 0.611404 -7.90929e-21)
(-1.09177 0.585592 0)
(-1.41595 -0.507266 1.51695e-21)
(-0.0342912 -0.10207 -9.48335e-21)
(-1.39346 -0.51907 -4.11503e-21)
(-0.0171714 -0.0944311 1.28508e-20)