/*--------------------------------*- C++ -*----------------------------------*\
  =========                 |
  \\      /  F ield         | OpenFOAM: The Open Source CFD Toolbox
   \\    /   O peration     | Website:  https://openfoam.org
    \\  /    A nd           | Version:  6
     \\/     M anipulation  |
\*---------------------------------------------------------------------------*/
FoamFile
{
    version     2.0;
    format      ascii;
    class       volVectorField;
    location    "0";
    object      U;
}
// * * * * * * * * * * * * * * * * * * * * * * * * * * * * * * * * * * * * * //

dimensions      [0 1 -1 0 0 0 0];

internalField   nonuniform List<vector> 
13046
(
(0.47541 0.175427 0)
(0.573104 -0.150402 3.69234e-21)
(0.207536 -0.0930477 8.22619e-21)
(0.460904 0.0936816 0)
(0.202085 -0.0218899 7.52334e-21)
(0.485541 -0.161627 0)
(0.50338 0.115774 -1.10536e-21)
(0.528976 -0.196408 -1.88242e-21)
(0.176891 -0.0114483 8.26447e-21)
(0.953969 0.422771 -2.77424e-21)
(1.01643 -0.431169 0)
(-0.0222519 -0.0169236 -5.1463e-21)
(0.593933 0.217248 6.94797e-21)
(0.664621 -0.221985 5.57983e-21)
(0.136817 -0.0649762 -4.46956e-21)
(0.905852 0.475513 -1.55718e-21)
(0.0112947 -0.0441915 -8.22855e-21)
(1.06099 -0.354719 -1.98236e-21)
(0.280486 0.0541603 0)
(0.367156 -0.141068 4.06686e-21)
(0.454729 -0.000984599 -1.15873e-20)
(0.916943 0.466826 1.56845e-21)
(0.00132333 -0.0366769 1.64797e-20)
(1.05248 -0.371707 -5.88481e-22)
(0.416472 0.104108 -4.68435e-21)
(0.487478 -0.121394 6.91432e-21)
(0.231072 -0.0686324 0)
(0.601484 0.246267 -1.50828e-22)
(0.689464 -0.219656 -1.64248e-21)
(0.13773 -0.0800596 1.55038e-20)
(0.481555 0.196186 0)
(0.597491 -0.138903 0)
(0.21446 -0.112954 -8.3726e-21)
(0.381422 0.0750004 1.64329e-20)
(0.254947 -0.0670255 -2.81514e-21)
(0.448327 -0.0946363 -1.07176e-20)
(0.378812 0.0528907 4.23627e-23)
(0.263027 -0.0460444 0)
(0.42125 -0.0920397 0)
(0.391353 0.19795 -5.93178e-21)
(0.354622 -0.225089 -7.52834e-21)
(0.611712 -0.0541635 5.53491e-21)
(0.364012 -0.00985824 -3.77818e-21)
(0.308084 -0.0172079 3.86155e-21)
(0.349881 -0.0622838 0)
(0.390362 -0.00160922 -2.40971e-21)
(0.286134 0.00322031 0)
(0.356507 -0.0879081 1.23888e-21)
(0.496584 0.170704 0)
(0.578131 -0.171548 2.6405e-22)
(0.179554 -0.0739809 3.12263e-23)
(0.520135 -0.35503 -9.14861e-21)
(0.332301 0.215083 0)
(0.700967 0.0186393 6.48174e-21)
(0.576348 -0.390289 1.30294e-20)
(0.725242 0.0429614 6.97971e-21)
(0.296619 0.197176 -9.09759e-21)
(0.953485 -0.215029 1.10411e-21)
(0.762474 0.464442 0)
(0.169743 -0.165296 -6.86901e-21)
(0.766804 0.230526 3.2805e-21)
(0.778732 -0.371833 -3.19221e-21)
(0.0745359 0.0205832 1.85653e-20)
(0.00167004 -0.0273523 -9.53205e-21)
(0.988124 -0.403497 1.68243e-21)
(0.922352 0.392912 4.85608e-21)
(0.724456 0.458723 0)
(0.921755 -0.180298 -5.24238e-21)
(0.214764 -0.203308 -1.99932e-21)
(0.692053 0.437001 2.49753e-21)
(0.89069 -0.166984 7.10437e-21)
(0.23106 -0.211801 2.72008e-21)
(0.987271 -0.224405 1.075e-23)
(0.790959 0.48295 -9.5214e-23)
(0.153785 -0.160344 3.16603e-23)
(0.294972 0.0762627 0)
(0.35928 -0.15628 -4.42272e-21)
(0.48101 -0.0180935 8.22029e-21)
(0.0984019 -0.115142 -7.54469e-21)
(0.834305 0.488649 7.24604e-21)
(1.02018 -0.269014 2.30766e-21)
(0.444355 0.11439 -2.45442e-21)
(0.502282 -0.141883 2.46518e-21)
(0.208512 -0.0509946 0)
(-0.00460308 -0.0266039 8.51262e-21)
(1.00609 -0.409663 0)
(0.938423 0.40762 -2.86488e-21)
(0.963459 0.319942 4.99993e-21)
(0.00579082 0.00803246 0)
(0.943794 -0.476702 1.34898e-21)
(0.0438014 0.0460568 0)
(1.02508 0.253635 0)
(0.909783 -0.557698 -1.69633e-22)
(0.774037 0.330153 6.46569e-21)
(0.811506 0.3381 -8.95762e-21)
(0.858989 -0.315015 -5.9587e-21)
(0.886351 -0.343839 2.78706e-21)
(0.0643768 -0.0550051 3.97125e-21)
(0.0454575 -0.0401411 -1.02036e-20)
(0.0170102 0.0180316 4.83039e-22)
(0.961991 0.298855 -4.89209e-21)
(0.925232 -0.490995 0)
(0.41007 0.0225016 1.95828e-23)
(0.26151 0.00205406 0)
(0.386818 -0.113931 0)
(0.231033 0.136514 -1.6533e-20)
(0.660727 0.0709325 3.26163e-21)
(0.564936 -0.334646 0)
(0.329615 0.193346 -2.51428e-21)
(0.466453 -0.300196 0)
(0.64758 -0.00022478 1.25031e-20)
(0.892391 0.414542 0)
(-0.0247639 -0.0105646 6.98197e-21)
(0.934256 -0.426528 7.93129e-22)
(0.549786 0.193023 -4.86063e-21)
(0.626178 -0.20065 -2.43304e-21)
(0.151648 -0.0603191 -8.10725e-21)
(0.811316 0.38923 -3.7349e-21)
(0.775945 0.360065 3.48576e-21)
(0.924149 -0.309494 -1.56958e-21)
(0.0647972 -0.0733431 -4.55027e-21)
(0.88053 -0.296849 1.60117e-21)
(0.0741948 -0.0729201 4.25078e-21)
(0.941244 0.431389 6.5592e-21)
(1.01361 -0.426821 1.71949e-21)
(-0.023209 -0.0159717 2.29706e-21)
(0.694467 0.297434 0)
(0.782834 -0.269265 4.11154e-21)
(0.099177 -0.0749813 -2.35725e-20)
(0.429521 0.215176 0)
(0.315372 -0.203996 7.58062e-21)
(0.623052 -0.0804684 -2.9853e-22)
(0.0581615 0.0568469 0)
(0.999016 0.23917 0)
(0.896289 -0.546712 0)
(0.878649 0.341308 0)
(0.925093 -0.398161 7.35882e-21)
(0.0202618 -0.017832 1.0242e-20)
(0.521766 0.218943 0)
(0.634427 -0.160295 0)
(0.197859 -0.118638 0)
(0.621525 0.144016 0)
(0.619528 -0.290874 0)
(0.142839 0.0336779 0)
(0.309044 0.188286 2.32655e-21)
(0.508055 -0.32665 0)
(0.665682 0.0205514 -6.74819e-21)
(0.232682 0.123866 1.60192e-20)
(0.638448 0.066875 7.1578e-21)
(0.550874 -0.315998 -8.19176e-21)
(0.795863 0.250871 -7.46561e-21)
(0.810545 -0.382241 0)
(0.0585936 0.0078617 -2.41235e-20)
(0.208714 0.0706286 0)
(0.564407 0.0714951 -1.57318e-20)
(0.50921 -0.252554 -2.12054e-21)
(0.67428 -0.430799 -3.59502e-21)
(0.768454 0.104641 -7.34757e-21)
(0.720881 -0.447332 0)
(0.797416 0.135873 -4.23428e-21)
(0.212138 0.14932 -7.81822e-21)
(0.172052 0.12305 7.50934e-21)
(0.647741 0.114614 -9.95413e-22)
(0.606937 -0.321873 -4.22765e-21)
(0.166572 0.0704904 4.62929e-21)
(0.973961 0.407121 2.83002e-21)
(-0.0235078 -0.0142947 -2.67793e-21)
(0.998116 -0.449469 2.5856e-21)
(0.912602 0.42381 1.76001e-21)
(-0.0249372 -0.0115879 1.04892e-21)
(0.973933 -0.425471 0)
(0.888414 0.360767 -1.40317e-22)
(0.944344 -0.395123 0)
(0.015084 -0.0245718 -1.23719e-20)
(0.496403 0.285929 0)
(0.705091 -0.09281 -1.69051e-21)
(0.325693 -0.241014 -4.38684e-21)
(0.625621 0.0968373 -6.48805e-21)
(0.188983 0.0876352 0)
(0.574078 -0.302731 0)
(-0.0202413 -0.00733044 0)
(0.980475 -0.480918 0)
(0.998372 0.371595 -2.30638e-21)
(0.459507 0.259088 0)
(0.673484 -0.0766481 3.74716e-21)
(0.339452 -0.234482 -1.14038e-21)
(0.207019 0.0849626 0)
(0.581436 0.070902 0)
(0.516762 -0.26841 0)
(0.587397 0.123025 -3.26377e-21)
(0.584159 -0.26945 0)
(0.154199 0.0292536 0)
(0.706912 -0.264219 2.64561e-23)
(0.107675 -0.0430398 5.51082e-21)
(0.664289 0.272639 -1.00632e-20)
(0.750322 -0.256005 0)
(0.108575 -0.0689341 2.43576e-20)
(0.966224 0.365553 5.65608e-21)
(-0.00807003 -0.00885726 -7.71214e-21)
(0.980683 -0.454387 6.06823e-21)
(0.0446582 0.0439286 -7.06328e-21)
(0.96675 0.257353 -3.08576e-21)
(0.89966 -0.517296 -6.88571e-21)
(1.00985 0.291295 8.10782e-21)
(0.93459 -0.520808 0)
(0.0155117 0.0242714 6.92423e-21)
(0.543882 -0.398848 3.68588e-21)
(0.757552 0.0119167 -2.86194e-21)
(0.377045 0.270343 -7.65281e-21)
(0.576887 0.164558 6.40438e-21)
(0.821651 0.499483 -3.76873e-21)
(0.117917 -0.129594 4.6465e-21)
(1.02394 -0.25773 -1.0739e-23)
(0.944432 -0.52152 0)
(1.01915 0.312276 2.25045e-21)
(0.00310932 0.0133227 0)
(0.407451 0.0503844 1.21472e-20)
(0.244665 -0.0196696 0)
(0.419646 -0.11796 -4.02664e-21)
(0.57893 0.251988 0)
(0.683083 -0.198502 2.36902e-22)
(0.164124 -0.0990457 -4.58677e-21)
(0.0573027 0.054902 -5.42699e-21)
(0.974925 0.243808 0)
(0.890353 -0.532494 7.93388e-21)
(0.613106 0.187327 0)
(0.690135 -0.27151 -1.00992e-20)
(0.109417 -0.029412 0)
(-0.0272656 -0.012801 0)
(0.963114 -0.457317 -1.7562e-21)
(0.964993 0.402556 0)
(0.338475 0.243622 8.27937e-21)
(0.763244 0.0305008 0)
(0.579595 -0.421468 0)
(0.984437 0.283635 -7.11244e-21)
(0.924068 -0.508778 0)
(0.0216272 0.0259893 3.95541e-23)
(0.71951 0.126135 -8.41335e-21)
(0.663655 -0.383908 -3.16166e-21)
(0.163004 0.0969716 1.0602e-20)
(0.690937 0.315848 0)
(0.79218 -0.255522 -3.84711e-21)
(0.111839 -0.0889991 -2.45347e-21)
(0.832441 -0.543635 1.05046e-20)
(0.938457 0.177671 5.58891e-21)
(0.1293 0.110789 -4.26716e-21)
(0.838605 0.144141 0)
(0.754502 -0.478108 4.32865e-21)
(0.166863 0.125568 1.55196e-22)
(-0.0270789 -0.0129661 5.39986e-21)
(0.939422 -0.466103 0)
(0.971018 0.388988 1.72226e-21)
(0.395003 0.23622 -1.10205e-20)
(0.422306 -0.287233 5.4623e-21)
(0.6707 -0.0341329 5.38023e-22)
(0.821449 0.439872 -1.7346e-21)
(-0.0195663 -0.00603495 5.7874e-22)
(0.953919 -0.370975 0)
(0.252647 0.0323751 -2.48917e-21)
(0.450132 0.0217542 9.39532e-21)
(0.396304 -0.147939 -1.21381e-20)
(0.719526 0.165469 -3.35862e-21)
(0.698397 0.134084 -3.34204e-23)
(0.697892 -0.366244 7.72074e-21)
(0.656275 -0.36293 7.56567e-21)
(0.15199 0.0797576 -8.43487e-21)
(0.118619 0.0555244 4.35113e-21)
(0.0754327 -0.0967455 9.87552e-21)
(0.853842 0.492091 -3.87886e-21)
(1.04454 -0.282864 0)
(0.654925 0.308926 0)
(0.767969 -0.225416 0)
(0.142886 -0.108169 9.74735e-21)
(0.87401 0.169339 1.4927e-21)
(0.791123 -0.499616 0)
(0.138727 0.108379 0)
(0.847827 0.369307 -3.23322e-21)
(0.929174 -0.351521 0)
(0.0349776 -0.0450683 -4.4889e-21)
(0.343939 0.0043359 -2.56579e-21)
(0.367789 -0.0492127 -3.70339e-21)
(0.310674 -0.0384937 1.28394e-21)
(0.776799 0.149624 5.39178e-21)
(0.720839 -0.424981 0)
(0.146233 0.0984569 7.23598e-21)
(0.661709 0.32829 0)
(0.787913 -0.218619 -4.76219e-21)
(0.151027 -0.122344 6.22188e-21)
(0.630385 0.21435 -1.03419e-20)
(0.668869 0.234688 8.32789e-21)
(0.404781 0.250868 8.71865e-21)
(0.433822 -0.304048 -1.58057e-20)
(0.689403 -0.0299685 1.18112e-20)
(0.803489 0.175786 5.52705e-21)
(0.755845 -0.436171 -6.49092e-21)
(0.115806 0.0777084 -6.60062e-21)
(0.873227 0.374704 1.18732e-20)
(0.0223619 -0.0359663 1.58846e-20)
(0.94963 -0.371783 3.49762e-21)
(0.330333 0.177515 3.83933e-21)
(0.441789 -0.280545 0)
(0.62568 -0.00289389 -4.22044e-21)
(0.232069 0.170628 8.45811e-21)
(0.785849 0.0957408 4.20074e-21)
(0.675443 -0.451445 0)
(0.756533 0.392059 1.21632e-21)
(0.892921 -0.255064 4.01431e-21)
(0.113548 -0.111168 -2.81531e-21)
(0.368159 0.240277 -7.13619e-22)
(0.495206 -0.345435 0)
(0.707612 0.00236787 -8.97517e-21)
(0.787368 0.412645 0)
(0.810649 0.412845 0)
(0.928491 -0.27105 2.51719e-21)
(0.0994281 -0.104154 7.33399e-21)
(0.942575 -0.296328 -3.5547e-21)
(0.0764475 -0.0855188 -7.77731e-21)
(-0.0179924 -0.0105469 5.95406e-21)
(0.98995 -0.464744 0)
(0.985748 0.382946 3.44706e-21)
(0.740306 0.350053 0)
(0.848955 -0.274377 1.89059e-21)
(0.095602 -0.0869099 -2.53419e-21)
(0.828131 -0.395067 -1.41598e-21)
(-0.0185327 -0.00742469 -8.59744e-21)
(0.790368 0.39535 -3.08113e-21)
(0.521277 0.0407984 1.27347e-20)
(0.235429 0.0691492 0)
(0.451721 -0.212206 4.45766e-21)
(0.721365 0.215095 -7.80516e-21)
(0.74066 -0.340748 0)
(0.0850083 0.0116758 -1.42711e-20)
(-0.000963364 -0.0129846 4.91959e-21)
(0.941338 0.361406 -1.0447e-20)
(0.967891 -0.435443 -4.78449e-21)
(0.5968 -0.410425 4.79164e-21)
(0.745913 0.0485507 0)
(0.29429 0.210065 1.03099e-20)
(0.853572 -0.542454 1.24605e-20)
(0.953387 0.201197 3.37835e-21)
(0.10005 0.0873624 0)
(0.631397 -0.243212 5.26226e-21)
(0.131867 -0.0224604 0)
(0.742999 0.264819 -8.39943e-21)
(0.783277 -0.325566 -3.53625e-21)
(0.0693494 -0.0252688 -4.35577e-21)
(0.620675 -0.258156 -1.83044e-22)
(0.131595 -0.0064337 -1.97481e-23)
(0.899673 0.468589 7.87277e-21)
(0.0215537 -0.052868 -1.16105e-20)
(1.05045 -0.343875 2.91411e-21)
(0.53002 -0.41021 -4.79694e-21)
(0.778394 -0.00184936 -8.93782e-22)
(0.412432 0.298736 0)
(0.775967 0.283411 8.55818e-21)
(0.824383 -0.344191 4.31341e-21)
(0.0560157 -0.0197925 1.05703e-20)
(0.640326 0.138847 0)
(0.622192 -0.311457 3.09496e-21)
(0.145787 0.0488063 0)
(0.670345 0.0499232 4.17354e-21)
(0.545018 -0.344601 0)
(0.267942 0.160126 0)
(0.481096 0.144301 3.4027e-21)
(0.545157 -0.165469 5.82152e-21)
(0.187112 -0.0584079 -1.23598e-23)
(0.264199 0.193962 -1.04959e-20)
(0.774412 0.0748345 -1.01768e-20)
(0.645996 -0.439699 -1.28862e-20)
(0.984492 0.339861 4.21705e-21)
(0.962972 -0.477309 -5.1254e-21)
(-0.00499544 0.000571174 -1.16015e-22)
(0.861353 -0.525618 -8.48077e-21)
(0.94299 0.21474 -3.42433e-21)
(0.0835842 0.0740647 -5.45348e-21)
(0.621379 0.401674 7.74177e-21)
(0.297749 -0.252546 -4.06163e-21)
(0.838123 -0.126919 0)
(0.822043 0.457873 -2.11737e-21)
(0.79804 0.442215 1.96796e-21)
(0.957576 -0.259888 7.9575e-22)
(0.986793 -0.271132 -3.24701e-21)
(0.0967643 -0.108997 2.66662e-21)
(0.111648 -0.119286 2.37379e-21)
(-0.0201724 -0.00643132 8.73225e-21)
(0.86927 -0.388145 1.55948e-21)
(0.805472 0.403606 -1.17501e-21)
(0.837911 0.448621 1.22137e-22)
(-0.01878 -0.00809062 0)
(0.984953 -0.370586 0)
(0.757993 0.184859 1.2448e-20)
(0.740175 -0.387972 1.6893e-21)
(0.106758 0.0542202 0)
(-0.0129007 -0.0125148 1.48483e-20)
(0.971233 0.379494 -4.33911e-21)
(0.992908 -0.451197 0)
(0.699656 0.408607 -1.09261e-20)
(0.731849 0.41781 8.1546e-21)
(0.871468 -0.197466 -4.33114e-21)
(0.895944 -0.217854 -1.64167e-21)
(0.193287 -0.173652 4.68845e-21)
(0.161871 -0.150954 2.35193e-21)
(-0.00408677 0.00629748 0)
(0.927482 -0.532417 0)
(1.04557 0.306728 -1.16766e-21)
(0.76764 0.433793 2.03684e-21)
(-0.0179078 -0.00276952 -5.42105e-21)
(0.924474 -0.350226 0)
(0.429918 -0.0337302 1.50564e-23)
(0.312841 0.050248 -5.48605e-21)
(0.320991 -0.10424 -2.71643e-21)
(0.84405 0.419271 3.19417e-21)
(0.925408 -0.403172 -1.16029e-21)
(-0.0222957 -0.0077415 -1.08534e-20)
(0.547115 0.302653 -9.53123e-21)
(0.724866 -0.127448 7.70243e-21)
(0.271033 -0.205217 4.54032e-23)
(1.00549 0.359159 -9.88161e-23)
(0.972355 -0.491144 -6.76837e-21)
(-0.015844 -0.00357177 3.03149e-21)
(0.725947 -0.403525 -5.18316e-23)
(-0.0161234 -0.0121803 9.91528e-21)
(0.769741 0.330121 9.02852e-22)
(0.354118 0.167802 5.12518e-21)
(0.367445 -0.215176 3.23204e-22)
(0.580431 -0.0363796 -1.36007e-20)
(0.473791 0.0479153 0)
(0.440355 -0.173363 1.34419e-20)
(0.226863 0.0288606 -6.93392e-21)
(0.925401 0.447093 -6.68324e-21)
(-0.020271 -0.0172851 -6.84792e-21)
(1.02426 -0.412134 5.9792e-23)
(0.498787 0.0585071 0)
(0.460468 -0.193662 4.66059e-21)
(0.214882 0.0435105 9.81017e-21)
(0.406647 -0.030251 -5.56941e-21)
(0.312337 0.0305308 5.79407e-21)
(0.323308 -0.086181 -1.43724e-21)
(0.322654 0.242904 5.04418e-21)
(0.795366 0.0479203 3.54746e-21)
(0.625906 -0.459636 -7.0607e-21)
(0.498659 -0.00221684 0)
(0.38399 -0.174584 0)
(0.278852 0.0905868 -8.1377e-22)
(0.522136 0.0259541 -6.84532e-21)
(0.427915 -0.200791 -3.60649e-21)
(0.259362 0.0883381 -1.15175e-22)
(0.585448 0.38237 -1.17821e-20)
(0.811965 -0.107285 5.72658e-21)
(0.33402 -0.280165 8.11935e-21)
(-0.0118851 -0.0250998 -1.03757e-20)
(-0.0164215 -0.0215521 1.05507e-20)
(1.03574 -0.407551 -1.81093e-21)
(1.02457 -0.421995 -1.31436e-21)
(0.939972 0.442686 -5.92058e-21)
(0.951314 0.431667 8.86052e-21)
(1.00096 0.341036 -5.24014e-21)
(0.965467 -0.487936 4.34593e-21)
(-0.00840962 0.00259703 0)
(0.285516 -0.255047 -5.24945e-21)
(0.652784 0.431657 -2.40697e-21)
(0.871108 -0.136094 0)
(0.417018 0.236203 0)
(0.379007 -0.257261 4.99268e-21)
(0.659322 -0.0532387 -4.1753e-21)
(0.85364 0.124382 0)
(0.745766 -0.499986 -4.47913e-21)
(0.199722 0.153914 -1.60559e-22)
(0.801483 -0.458818 -1.50862e-21)
(-0.0226671 -0.0174499 0)
(0.913039 0.333996 2.9323e-21)
(0.0270171 0.0333387 0)
(1.02894 0.273208 0)
(0.919495 -0.549423 -3.02891e-21)
(0.93855 0.417858 -2.16026e-21)
(-0.0261718 -0.013145 0)
(0.982536 -0.439638 1.72351e-21)
(-0.0130981 -0.00946327 3.68378e-32)
(0.681929 -0.378159 4.00247e-22)
(0.707842 0.318379 -8.49208e-22)
(0.717212 -0.331833 -4.28075e-22)
(-0.0124048 -0.00396307 -3.67505e-32)
(0.671836 0.363547 7.69535e-22)
(0.824926 -0.434926 8.68814e-21)
(0.844712 0.23272 0)
(0.0691483 0.0404714 1.40389e-20)
(0.892804 -0.511651 9.76441e-22)
(-0.0176475 -0.00907348 0)
(1.0317 0.323694 0)
(0.89965 0.333568 5.2583e-21)
(0.926736 -0.419882 -4.53456e-21)
(0.0160091 -0.00891061 -7.26423e-21)
(0.882235 0.493294 -7.6016e-21)
(0.00789549 -0.0372137 -4.15003e-21)
(1.08122 -0.337311 0)
(0.550029 0.170146 -2.60412e-21)
(0.147127 -0.0350484 2.76418e-21)
(0.610885 -0.219468 -2.54293e-21)
(0.928635 -0.540083 0)
(0.00439676 0.0144048 -5.04044e-21)
(1.04349 0.296792 -1.42792e-21)
(0.831316 0.108071 4.09798e-21)
(0.22457 0.172552 2.87014e-21)
(0.717753 -0.486141 0)
(0.805603 -0.491449 0)
(0.875204 0.187313 0)
(0.113185 0.0902781 -5.11067e-21)
(-0.00362376 -0.00267518 0)
(0.411145 -0.20343 -2.47313e-22)
(0.406518 0.197368 -1.14279e-22)
(0.818276 -0.41668 -1.03772e-21)
(-0.0197932 -0.0103194 5.9918e-21)
(0.818221 0.380126 1.49479e-21)
(0.514193 0.14521 6.74579e-21)
(0.166128 -0.0350157 -6.58408e-21)
(0.565591 -0.197733 -2.95298e-21)
(0.946486 -0.50894 -5.52805e-21)
(1.0296 0.337892 2.39228e-21)
(-0.0144876 -0.00107322 0)
(-0.00582399 0.00352784 5.26558e-21)
(1.05394 0.305385 0)
(0.909968 -0.53581 4.18001e-21)
(0.955786 0.402142 3.16473e-21)
(-0.0113569 -0.0196598 -1.58925e-20)
(1.00614 -0.42794 -5.69208e-21)
(0.0481438 -0.0728504 1.19336e-20)
(1.0335 -0.315815 -3.47117e-21)
(0.873427 0.469838 0)
(0.565354 0.388739 1.48968e-20)
(0.8161 -0.0902128 -7.29739e-21)
(0.37759 -0.315251 7.6941e-21)
(0.93964 -0.235277 -1.17541e-21)
(0.767927 0.446666 -4.69688e-21)
(0.147273 -0.146508 7.33563e-21)
(0.0432762 -0.0710409 1.06775e-20)
(0.876505 0.497258 0)
(1.07153 -0.310534 2.14551e-21)
(0.578802 0.292731 2.40094e-21)
(0.622022 0.31917 0)
(0.721169 -0.165058 8.07138e-21)
(0.76382 -0.186553 -8.63087e-21)
(0.210876 -0.152208 -5.12652e-21)
(0.18889 -0.147655 0)
(0.544092 0.285615 2.34365e-21)
(0.70577 -0.138852 0)
(0.248301 -0.179127 -2.42681e-21)
(0.686902 0.420528 0)
(0.873812 -0.181363 6.99233e-21)
(0.218797 -0.19603 -1.69062e-21)
(0.843382 -0.507832 4.28946e-21)
(0.916766 0.208036 -3.66506e-21)
(0.0884851 0.0732221 1.11681e-20)
(0.952827 -0.511509 0)
(1.01105 0.328964 -8.12991e-22)
(-0.00524615 0.00690473 0)
(0.0536108 0.0454372 3.60999e-21)
(0.933307 0.247251 2.24152e-21)
(0.880189 -0.497934 2.76396e-21)
(0.769891 -0.338779 3.61512e-23)
(-0.0143324 -0.00298492 -3.33389e-24)
(0.704004 0.383922 0)
(0.417058 0.185473 -4.67753e-21)
(0.426957 0.175829 0)
(0.287345 -0.163842 1.19536e-21)
(0.583092 -0.0866914 -1.64592e-20)
(0.263003 -0.141197 -1.51258e-21)
(0.570949 -0.103903 1.05128e-20)
(0.625813 0.378539 0)
(0.579786 0.349265 1.52524e-21)
(0.283538 -0.227185 -1.72862e-23)
(0.815256 -0.151588 -4.56361e-21)
(0.256152 -0.210629 -1.23611e-20)
(0.776646 -0.130326 9.75941e-21)
(0.709175 -0.419176 0)
(-0.0176844 -0.0157641 -1.08212e-20)
(0.807547 0.317908 0)
(0.953994 -0.503504 3.4773e-21)
(1.02274 0.340668 -7.9505e-22)
(-0.0137926 -0.00110854 -3.18224e-21)
(0.444201 0.276461 2.85725e-21)
(0.417029 -0.30591 5.64693e-21)
(0.711784 -0.0473765 -1.32814e-20)
(0.804756 -0.525058 -9.41332e-21)
(0.904929 0.162605 -9.40256e-21)
(0.146854 0.121538 0)
(0.0627291 -0.0851582 -1.27616e-20)
(1.02351 -0.302558 3.69234e-21)
(0.859777 0.470107 0)
(0.896856 -0.445357 0)
(0.912523 0.390502 0)
(-0.0252323 -0.0124875 0)
(0.908549 -0.46126 0)
(0.94438 0.381024 -3.20503e-21)
(-0.0265044 -0.0136261 0)
(0.731221 0.398535 4.55234e-21)
(0.880504 -0.233474 -2.49606e-21)
(0.142874 -0.133002 -3.48124e-21)
(0.305019 0.157555 1.35139e-21)
(0.451386 -0.269629 0)
(0.606486 0.0121285 -4.53415e-21)
(0.960231 0.41211 -3.68739e-21)
(-0.0153592 -0.0191471 -9.22123e-21)
(1.01677 -0.429878 8.16163e-21)
(0.839106 -0.458933 0)
(0.871839 0.234689 0)
(0.0669945 0.0493331 -1.21102e-20)
(0.01505 -0.0379624 -3.03516e-21)
(0.979378 -0.378347 -5.90868e-21)
(0.89521 0.400863 -1.08194e-20)
(0.552692 0.339753 -1.55371e-21)
(0.316881 -0.250498 8.28535e-21)
(0.763134 -0.112391 -5.04132e-21)
(0.702581 0.102831 8.14095e-21)
(0.626812 -0.37107 -4.68119e-21)
(0.198787 0.119642 -1.03468e-20)
(0.38274 0.203942 -8.81709e-23)
(0.385055 -0.250134 1.65157e-21)
(0.628773 -0.041273 5.46976e-21)
(-0.0196566 -0.0140667 3.59849e-21)
(1.00373 -0.451322 -3.47945e-21)
(0.975614 0.399499 -3.80647e-21)
(0.842757 0.393843 2.05037e-21)
(0.947022 -0.334863 1.85822e-21)
(0.0449529 -0.0586933 0)
(0.363405 0.160107 5.07251e-21)
(0.337008 -0.187434 -1.04907e-20)
(0.563267 -0.0508557 8.98582e-21)
(0.878404 0.502789 -3.11516e-21)
(0.0318467 -0.0604649 -4.72145e-21)
(1.08456 -0.317021 -1.35459e-22)
(0.517204 0.238053 2.92266e-21)
(0.64997 -0.149001 0)
(0.218326 -0.140763 0)
(0.564277 0.0989665 1.21132e-20)
(0.538719 -0.250345 -2.86136e-21)
(0.17888 0.0467875 0)
(0.796665 -0.463104 0)
(0.847211 0.190164 -7.90132e-21)
(0.104199 0.0790138 5.35241e-21)
(0.862618 0.468197 0)
(-0.0131761 -0.0156934 1.45672e-21)
(1.03939 -0.364178 -1.43868e-21)
(0.860581 0.480108 -2.77835e-21)
(-0.00716696 -0.0204545 -4.64597e-21)
(1.05745 -0.349458 1.75464e-21)
(0.0203673 -0.0461643 -2.75742e-21)
(0.993211 -0.364107 3.32911e-21)
(0.891204 0.417205 9.96873e-21)
(0.728539 0.0892307 3.66456e-21)
(0.637861 -0.40055 9.38953e-21)
(0.22352 0.143214 0)
(-0.0152278 -0.00928224 -1.33442e-21)
(1.01001 -0.357488 1.34853e-21)
(0.822599 0.458608 0)
(0.00692895 -0.00642585 0)
(0.946395 -0.437881 3.51276e-21)
(0.929366 0.340774 1.22202e-21)
(-0.00987649 -0.00980232 -5.41827e-21)
(0.578178 -0.351175 -6.88925e-22)
(0.633267 0.264905 0)
(0.569026 0.338118 1.07007e-21)
(0.640312 -0.275277 0)
(-0.00902305 -0.00093361 -5.41876e-21)
(0.0380644 -0.0657577 6.34991e-24)
(1.05647 -0.323563 3.89252e-22)
(0.882439 0.483751 0)
(-0.0257462 -0.0122768 0)
(0.981566 -0.463514 0)
(0.982215 0.396255 -4.66695e-21)
(0.930966 0.442592 3.35167e-21)
(0.924953 0.432426 -2.71138e-21)
(-0.00311685 -0.0330448 5.21024e-21)
(1.03945 -0.387873 6.24283e-22)
(0.000851589 -0.0350891 0)
(1.02453 -0.387196 0)
(0.935484 0.322433 -2.39667e-21)
(0.934867 -0.45375 -2.38607e-21)
(0.0106762 0.00258668 0)
(0.186544 0.152536 0)
(0.773584 -0.526825 0)
(0.889824 0.137038 0)
(0.418358 0.141213 -6.33069e-21)
(0.243221 -0.105299 1.45259e-20)
(0.529211 -0.111701 -5.81502e-21)
(0.921498 0.276371 -6.93225e-21)
(0.894633 -0.472089 -9.29933e-22)
(0.0331244 0.0255309 -1.06339e-20)
(0.0485289 0.038002 -6.9119e-21)
(0.912861 0.25766 9.6422e-21)
(0.875276 -0.478021 1.28952e-21)
(0.860855 0.507392 -3.78113e-21)
(0.0658128 -0.0899282 -5.10558e-21)
(1.06825 -0.287134 0)
(0.640455 0.396301 0)
(0.837349 -0.152677 -2.07645e-21)
(0.257409 -0.218975 1.2117e-20)
(0.580937 0.327486 0)
(0.755854 -0.140746 -1.01137e-20)
(0.258427 -0.204476 1.35188e-23)
(0.836809 0.265153 9.48306e-21)
(0.845407 -0.41181 -1.18852e-21)
(0.0474907 0.0128863 6.11723e-21)
(0.857093 0.260123 0)
(0.851019 -0.430175 -1.12449e-21)
(0.049085 0.0223268 -5.60257e-21)
(0.339074 0.134175 0)
(0.341747 -0.174836 1.6548e-20)
(0.533214 -0.0404584 0)
(0.633825 0.337262 0)
(0.781909 -0.18522 5.57765e-21)
(0.193195 -0.159764 -1.84252e-21)
(0.0156829 0.023673 1.09113e-20)
(0.91522 -0.552255 6.74667e-21)
(1.05063 0.280902 0)
(0.964068 0.362051 6.6491e-23)
(-0.0253374 -0.0148711 -3.32604e-21)
(0.875927 -0.474204 -1.14581e-21)
(0.95427 0.34062 1.99415e-22)
(-0.0238054 -0.0166079 0)
(0.841584 -0.473122 3.17919e-21)
(0.465885 0.245848 -3.46833e-21)
(0.306273 -0.205076 1.78847e-21)
(0.655384 -0.0952132 1.50337e-22)
(0.844561 -0.434231 -1.97689e-22)
(-0.0229838 -0.0130614 -1.37499e-20)
(0.881846 0.374318 0)
(0.86709 0.417449 -8.7254e-21)
(0.0366943 -0.0573969 0)
(0.979309 -0.341858 0)
(-0.0216785 -0.0157912 5.45398e-21)
(0.795896 -0.445713 1.35432e-21)
(0.877072 0.343675 -2.16956e-21)
(0.450094 0.0719901 -8.4418e-21)
(0.218803 -0.0049189 -8.81219e-21)
(0.45547 -0.151947 -3.76939e-23)
(0.688746 0.262481 1.46584e-21)
(0.755674 -0.28327 1.3186e-21)
(0.0932193 -0.0467589 5.58815e-21)
(0.594308 -0.384234 -1.07907e-20)
(0.711755 0.065754 -1.33115e-20)
(0.258724 0.165169 0)
(-0.0156481 -0.00523155 0)
(0.91226 -0.515762 1.30993e-21)
(1.03737 0.326978 0)
(0.825541 -0.471385 0)
(0.873658 0.218098 0)
(0.0809588 0.061953 0)
(0.0155499 -0.0463663 0)
(0.890974 0.491604 2.73979e-21)
(1.0802 -0.336032 -2.04092e-21)
(0.730618 0.281397 0)
(0.790552 -0.308308 -6.72454e-22)
(0.0760894 -0.0394083 -4.55808e-24)
(0.402436 0.121795 6.11547e-21)
(0.24845 -0.0950213 -1.24776e-20)
(0.504038 -0.104817 0)
(0.939542 -0.504842 5.22569e-21)
(1.02117 0.349385 -2.27336e-21)
(-0.0195415 -0.00643196 0)
(0.00258679 -0.0208966 6.32511e-21)
(0.97007 -0.417386 -2.21098e-22)
(0.922664 0.375612 -2.27163e-22)
(0.898558 0.449249 0)
(0.884892 0.44554 -2.46356e-21)
(-0.0196912 -0.014184 -3.34906e-21)
(-0.0214108 -0.0115097 4.14281e-21)
(1.01764 -0.394175 1.01307e-21)
(0.998475 -0.398158 -8.33162e-22)
(0.690111 0.171732 0)
(0.681457 -0.341999 -8.98518e-21)
(0.118145 0.0402758 -6.80432e-21)
(0.79028 -0.414711 -1.22229e-20)
(0.809949 0.212162 0)
(0.0815215 0.046159 7.431e-21)
(0.526271 0.112742 6.88046e-21)
(0.536094 -0.216954 -4.8624e-21)
(0.167799 0.00755598 -1.07761e-20)
(0.900977 -0.49124 -2.87263e-21)
(0.996982 0.354894 -2.45081e-21)
(0.884686 -0.500525 1.30509e-21)
(-0.0243847 -0.013088 3.52307e-21)
(1.00878 0.336946 2.29805e-21)
(-0.0215291 -0.0128785 0)
(0.813147 0.32021 0)
(0.86957 -0.358405 0)
(0.0435271 -0.0284626 -6.90371e-21)
(1.0083 0.363336 -2.68883e-21)
(0.998345 0.365008 6.84851e-21)
(0.94827 -0.491654 -1.88013e-21)
(0.931862 -0.485683 5.02514e-21)
(-0.0238181 -0.00975159 -9.30695e-21)
(-0.0254029 -0.0118952 9.09314e-24)
(0.786778 0.194744 0)
(0.760272 -0.41506 1.15652e-20)
(0.104402 0.0643665 -9.63427e-21)
(0.643208 0.194698 -6.39928e-21)
(0.706741 -0.296301 8.03562e-21)
(0.097001 -0.0137704 0)
(0.886594 0.483664 0)
(-0.00241022 -0.0285527 -6.4222e-22)
(1.06875 -0.355137 -1.68583e-21)
(0.693098 0.192187 -4.70677e-21)
(0.700676 -0.330756 0)
(0.103093 0.0232515 1.12654e-20)
(0.566402 0.139319 -2.77939e-21)
(0.585795 -0.247578 5.70568e-21)
(0.146217 0.00446115 -6.24383e-21)
(0.884823 0.460061 0)
(-0.0153545 -0.0167179 0)
(1.0388 -0.381258 2.38791e-21)
(0.739173 0.304193 0)
(0.819755 -0.299169 -1.355e-21)
(0.0738655 -0.0541045 6.86119e-21)
(0.702504 -0.494177 0)
(0.834023 0.0927226 0)
(0.255848 0.199086 3.69037e-22)
(0.552591 0.352619 3.81411e-22)
(0.777296 -0.100659 0)
(0.338694 -0.272737 -6.37162e-21)
(0.874795 -0.558438 -4.80549e-21)
(0.0836713 0.0772324 0)
(0.989185 0.21614 0)
(-0.0069722 -0.00431273 1.30276e-20)
(0.543 -0.271451 3.46394e-22)
(0.535847 0.262257 1.60061e-22)
(0.712251 0.233208 0)
(0.741103 -0.318611 -4.92904e-21)
(0.0829853 -0.00981021 0)
(0.91562 0.466375 -5.24289e-21)
(-0.0052937 -0.030015 -1.75658e-20)
(1.05794 -0.37368 4.24469e-21)
(0.454699 -0.363244 0)
(0.790865 -0.0465012 4.85719e-21)
(0.488134 0.343797 0)
(0.68143 0.397856 0)
(-0.0149261 -6.4774e-05 3.22205e-21)
(0.814358 -0.326567 0)
(0.246899 0.109124 -6.67414e-21)
(0.260789 0.130442 6.82442e-21)
(0.47675 -0.259847 0)
(0.578687 0.0407969 -5.76315e-21)
(0.495128 -0.286729 1.05371e-20)
(0.60917 0.0369161 4.59607e-21)
(0.524526 0.0903995 -6.47568e-21)
(0.507652 -0.215133 -6.54139e-21)
(0.186881 0.0302921 0)
(0.317617 0.149834 -5.90614e-21)
(0.280677 0.124163 0)
(0.406452 -0.23324 0)
(0.576778 -0.0106224 0)
(0.425278 -0.23021 6.06072e-21)
(0.560025 0.010337 -3.38783e-23)
(0.679196 0.220418 -4.03769e-22)
(0.667309 -0.288727 3.54824e-21)
(0.11293 0.000219738 7.68214e-21)
(0.649039 0.181399 1.10032e-20)
(0.666558 -0.300599 0)
(0.116716 0.0146344 0)
(-0.0217827 -0.0161201 0)
(0.842 -0.491629 0)
(0.987511 0.328033 -2.04035e-21)
(0.503893 0.257843 9.53576e-21)
(0.669518 -0.11945 0)
(0.265966 -0.180848 -3.30961e-21)
(0.997894 0.377202 6.34878e-21)
(0.971707 -0.481249 -2.45218e-21)
(-0.024414 -0.00969959 5.3124e-21)
(0.852576 0.293381 0)
(0.883167 0.308592 -5.06062e-21)
(0.875028 -0.405478 1.4818e-21)
(0.901886 -0.420077 -4.47876e-21)
(0.033704 0.000324233 7.58992e-21)
(0.0240285 -0.000437888 7.01127e-21)
(0.491072 0.234248 0)
(0.642488 -0.126565 0)
(0.249646 -0.161205 -1.5746e-21)
(0.67462 0.3823 -3.68678e-21)
(0.836625 -0.190865 0)
(0.197178 -0.169757 -4.03706e-21)
(0.790428 0.275879 2.71173e-21)
(0.824847 -0.367731 0)
(0.0512396 -0.00675122 -6.9835e-21)
(0.346189 0.0709815 -6.62163e-21)
(0.44778 -0.0644216 -3.20239e-21)
(0.286926 -0.0939438 -3.36339e-21)
(0.896487 0.282972 0)
(0.887879 -0.448941 0)
(0.0329063 0.0177974 1.13077e-20)
(0.394375 0.1444 0)
(0.274133 -0.13198 -1.83071e-21)
(0.533691 -0.0878077 0)
(0.78152 0.213168 6.1534e-21)
(0.769554 -0.397061 6.43616e-21)
(0.0851468 0.0370742 9.66074e-22)
(0.672733 0.361914 -3.72796e-21)
(0.820676 -0.203502 -6.35567e-21)
(0.174947 -0.151428 0)
(0.356367 0.095556 6.5626e-21)
(0.338283 0.0979441 2.92775e-21)
(0.476103 -0.0724305 -3.11867e-21)
(0.283738 -0.109527 6.6621e-21)
(0.486527 -0.0554483 0)
(0.308341 -0.132353 1.18454e-20)
(0.305286 0.113607 2.95471e-21)
(0.369395 -0.186783 -7.71015e-21)
(0.283103 0.112183 -1.90104e-21)
(0.523346 -0.0176402 0)
(0.415338 -0.216347 -3.87805e-21)
(0.543004 0.00607648 6.59304e-21)
(0.566626 0.271068 -3.46289e-21)
(0.605458 0.280282 0)
(0.697186 -0.172076 -6.08883e-21)
(0.720055 -0.199076 4.75315e-21)
(0.195617 -0.134084 1.48242e-20)
(0.164284 -0.112026 -1.23321e-20)
(0.037591 -0.0635443 0)
(1.01708 -0.332201 1.99876e-21)
(0.878497 0.450126 5.04723e-21)
(0.280831 0.211786 -1.24815e-20)
(0.801508 0.072196 -5.59437e-21)
(0.661189 -0.466622 1.10991e-20)
(0.0222356 -0.0523852 5.9557e-21)
(0.0134471 -0.0447524 0)
(1.02964 -0.352037 -1.729e-21)
(1.01749 -0.368199 -3.0437e-21)
(0.896619 0.453673 -1.27796e-20)
(0.906583 0.436933 6.6215e-21)
(0.387668 0.263098 0)
(0.504111 -0.36367 6.12259e-21)
(0.730711 -0.00394525 -1.31303e-21)
(0.346673 0.028745 -1.39585e-20)
(0.294008 -0.0537139 0)
(0.395139 -0.0598332 1.09744e-20)
(0.906562 0.304301 2.37753e-21)
(0.908646 -0.443397 5.05708e-21)
(0.0221148 0.00762467 0)
(0.445772 0.207553 0)
(0.279136 -0.1753 1.50033e-21)
(0.611164 -0.0982544 5.32973e-21)
(0.697089 0.369214 0)
(0.839259 -0.22018 0)
(0.154213 -0.136099 9.6996e-22)
(0.84123 0.451396 0)
(0.840084 0.433798 0)
(0.993856 -0.298069 -1.14655e-21)
(0.072446 -0.0896555 7.33248e-21)
(0.978165 -0.306647 3.1243e-21)
(0.0642368 -0.0807713 -9.92908e-21)
(0.84312 0.321628 -5.09099e-21)
(0.891165 -0.378559 -4.78494e-21)
(0.0314751 -0.0194022 -3.30379e-21)
(0.748182 0.410625 -2.30618e-21)
(0.869837 -0.353763 0)
(-0.0177973 -0.00273404 3.96243e-21)
(0.479148 -0.372098 0)
(0.771106 -0.0291887 -3.95474e-21)
(0.450349 0.314884 0)
(0.518963 0.356753 -3.84875e-21)
(0.4984 0.334151 4.16541e-21)