/*--------------------------------*- C++ -*----------------------------------*\
  =========                 |
  \\      /  F ield         | OpenFOAM: The Open Source CFD Toolbox
   \\    /   O peration     | Website:  https://openfoam.org
    \\  /    A nd           | Version:  6
     \\/     M anipulation  |
\*---------------------------------------------------------------------------*/
FoamFile
{
    version     2.0;
    format      ascii;
    class       surfaceScalarField;
    location    "0.043";
    object      phi;
}
// * * * * * * * * * * * * * * * * * * * * * * * * * * * * * * * * * * * * * //

dimensions      [0 3 -1 0 0 0 0];

internalField   nonuniform List<scalar> 
44700
(
1.55223e-06
-1.21828e-08
-1.0151e-08
1.57113e-06
-1.20396e-08
-6.86485e-09
1.58938e-06
-1.27558e-08
-5.49602e-09
1.60872e-06
-1.37399e-08
-5.59936e-09
1.62898e-06
-1.43886e-08
-5.87042e-09
1.64963e-06
-1.44841e-08
-6.16585e-09
1.67014e-06
-1.40166e-08
-6.49112e-09
1.69e-06
-1.31027e-08
-6.75293e-09
1.70875e-06
-1.19384e-08
-6.81736e-09
1.72609e-06
-1.07356e-08
-6.60513e-09
1.74186e-06
-9.6605e-09
-6.10679e-09
1.75604e-06
-8.81222e-09
-5.37113e-09
1.76876e-06
-8.23255e-09
-4.48438e-09
1.78023e-06
-7.92731e-09
-3.54513e-09
1.79076e-06
-7.88623e-09
-2.64215e-09
1.80069e-06
-8.09479e-09
-1.83809e-09
1.81039e-06
-8.53832e-09
-1.15918e-09
1.8202e-06
-9.2079e-09
-5.99649e-10
1.83044e-06
-1.01075e-08
-1.35859e-10
1.84144e-06
-1.12548e-08
2.60204e-10
1.8535e-06
-1.26749e-08
6.11411e-10
1.86696e-06
-1.43945e-08
9.34076e-10
1.88216e-06
-1.64405e-08
1.24323e-09
1.89945e-06
-1.88444e-08
1.55487e-09
1.91921e-06
-2.1649e-08
1.88139e-09
1.9419e-06
-2.49098e-08
2.22691e-09
1.968e-06
-2.86943e-08
2.59059e-09
1.99811e-06
-3.30835e-08
2.97681e-09
2.03289e-06
-3.81814e-08
3.40449e-09
2.0731e-06
-4.41253e-08
3.90636e-09
2.11968e-06
-5.10948e-08
4.51508e-09
2.17375e-06
-5.93181e-08
5.24753e-09
2.23673e-06
-6.90793e-08
6.10543e-09
2.31037e-06
-8.07323e-08
7.09539e-09
2.39685e-06
-9.47367e-08
8.25255e-09
2.4989e-06
-1.11691e-07
9.64187e-09
2.61996e-06
-1.32404e-07
1.13415e-08
2.76451e-06
-1.57984e-07
1.34307e-08
2.93849e-06
-1.89962e-07
1.59819e-08
3.14991e-06
-2.30511e-07
1.90945e-08
3.4095e-06
-2.82695e-07
2.31005e-08
3.73151e-06
-3.50841e-07
2.88325e-08
4.13511e-06
-4.40967e-07
3.73733e-08
4.64639e-06
-5.61477e-07
5.0194e-08
5.30096e-06
-7.24507e-07
6.9938e-08
6.1466e-06
-9.47484e-07
1.01841e-07
7.24562e-06
-1.25864e-06
1.59614e-07
8.66564e-06
-1.70376e-06
2.83736e-07
1.04571e-05
-2.36972e-06
5.78237e-07
-3.69636e-06
1.20898e-06
1.29445e-05
3.35899e-06
-1.64602e-08
-2.15003e-08
3.38087e-06
-1.70532e-08
-1.68742e-08
3.40285e-06
-1.89084e-08
-1.58244e-08
3.42631e-06
-2.10355e-08
-1.61602e-08
3.45068e-06
-2.29032e-08
-1.58542e-08
3.47535e-06
-2.41703e-08
-1.49884e-08
3.49982e-06
-2.46119e-08
-1.38765e-08
3.52359e-06
-2.41683e-08
-1.26975e-08
3.54618e-06
-2.29727e-08
-1.15629e-08
3.56729e-06
-2.13132e-08
-1.05269e-08
3.5867e-06
-1.95503e-08
-9.51795e-09
3.60432e-06
-1.80254e-08
-8.40816e-09
3.6202e-06
-1.69944e-08
-7.11687e-09
3.63453e-06
-1.66017e-08
-5.65645e-09
3.64765e-06
-1.68921e-08
-4.11629e-09
3.66001e-06
-1.7847e-08
-2.60832e-09
3.67209e-06
-1.94171e-08
-1.20411e-09
3.68436e-06
-2.15504e-08
7.0043e-11
3.69727e-06
-2.42132e-08
1.20088e-09
3.71123e-06
-2.73971e-08
2.17776e-09
3.72668e-06
-3.11204e-08
3.00296e-09
3.74401e-06
-3.54324e-08
3.7058e-09
3.76363e-06
-4.04159e-08
4.34926e-09
3.78596e-06
-4.6187e-08
5.01692e-09
3.81142e-06
-5.28884e-08
5.78193e-09
3.8405e-06
-6.06778e-08
6.6834e-09
3.8738e-06
-6.97203e-08
7.72953e-09
3.91199e-06
-8.01961e-08
8.91862e-09
3.95587e-06
-9.23237e-08
1.02603e-08
4.00635e-06
-1.06387e-07
1.17907e-08
4.06444e-06
-1.22757e-07
1.35697e-08
4.13137e-06
-1.41901e-07
1.56498e-08
4.20863e-06
-1.64388e-07
1.8045e-08
4.29807e-06
-1.90913e-07
2.07481e-08
4.40184e-06
-2.22326e-07
2.38173e-08
4.52244e-06
-2.59718e-07
2.74246e-08
4.66274e-06
-3.04471e-07
3.17674e-08
4.82608e-06
-3.58337e-07
3.70203e-08
5.0163e-06
-4.23497e-07
4.33088e-08
5.23788e-06
-5.02778e-07
5.06929e-08
5.49582e-06
-5.99784e-07
5.91454e-08
5.79575e-06
-7.1914e-07
6.83702e-08
6.14346e-06
-8.66787e-07
7.81082e-08
6.54425e-06
-1.05047e-06
8.82108e-08
7.00345e-06
-1.28236e-06
9.8654e-08
7.52243e-06
-1.57681e-06
1.10335e-07
8.08996e-06
-1.95513e-06
1.28966e-07
8.66031e-06
-2.44499e-06
1.70884e-07
9.11536e-06
-3.081e-06
2.56224e-07
-3.90958e-06
3.83215e-07
8.94537e-06
4.80214e-06
-1.3754e-08
-2.09538e-08
4.81799e-06
-1.44813e-08
-1.84284e-08
4.83542e-06
-1.63216e-08
-2.00195e-08
4.85419e-06
-1.85327e-08
-2.12699e-08
4.87317e-06
-2.0753e-08
-2.11273e-08
4.89203e-06
-2.27086e-08
-2.03211e-08
4.91067e-06
-2.41497e-08
-1.91065e-08
4.92888e-06
-2.48948e-08
-1.74771e-08
4.94633e-06
-2.49055e-08
-1.55212e-08
4.96276e-06
-2.43239e-08
-1.34234e-08
4.97801e-06
-2.3443e-08
-1.13491e-08
4.992e-06
-2.26277e-08
-9.38672e-09
5.00477e-06
-2.22237e-08
-7.54684e-09
5.01646e-06
-2.24909e-08
-5.7979e-09
5.02726e-06
-2.35744e-08
-4.11896e-09
5.03748e-06
-2.55199e-08
-2.54762e-09
5.04749e-06
-2.83152e-08
-1.11196e-09
5.05767e-06
-3.19267e-08
1.95698e-10
5.0684e-06
-3.63362e-08
1.39279e-09
5.08004e-06
-4.15554e-08
2.51957e-09
5.09292e-06
-4.7618e-08
3.61315e-09
5.10739e-06
-5.45766e-08
4.67698e-09
5.12379e-06
-6.25135e-08
5.6977e-09
5.14248e-06
-7.15558e-08
6.68135e-09
5.16381e-06
-8.18818e-08
7.66369e-09
5.18815e-06
-9.3713e-08
8.69808e-09
5.21589e-06
-1.07306e-07
9.84571e-09
5.24747e-06
-1.22955e-07
1.11705e-08
5.28343e-06
-1.41011e-07
1.27314e-08
5.32435e-06
-1.61888e-07
1.45768e-08
5.37093e-06
-1.86078e-07
1.67442e-08
5.42393e-06
-2.14155e-07
1.92592e-08
5.48419e-06
-2.4679e-07
2.21391e-08
5.55263e-06
-2.84758e-07
2.54048e-08
5.63021e-06
-3.28973e-07
2.90631e-08
5.71793e-06
-3.80536e-07
3.30994e-08
5.81669e-06
-4.40771e-07
3.75407e-08
5.92717e-06
-5.11234e-07
4.24224e-08
6.04983e-06
-5.9387e-07
4.7706e-08
6.18495e-06
-6.91034e-07
5.31453e-08
6.33209e-06
-8.05411e-07
5.84792e-08
6.49027e-06
-9.40642e-07
6.33224e-08
6.65733e-06
-1.10116e-06
6.73183e-08
6.82836e-06
-1.2923e-06
7.08043e-08
6.99078e-06
-1.52011e-06
7.5332e-08
7.12298e-06
-1.79237e-06
8.33639e-08
7.19088e-06
-2.11552e-06
9.24999e-08
7.14538e-06
-2.49382e-06
9.43301e-08
6.90994e-06
-2.93026e-06
8.47046e-08
-3.41418e-06
4.90658e-08
6.36548e-06
5.68141e-06
-7.82558e-09
-2.11014e-08
5.69494e-06
-8.39137e-09
-1.96161e-08
5.71124e-06
-9.76783e-09
-2.28597e-08
5.72902e-06
-1.14905e-08
-2.48185e-08
5.74649e-06
-1.3358e-08
-2.48619e-08
5.76317e-06
-1.52299e-08
-2.41562e-08
5.77898e-06
-1.69737e-08
-2.29882e-08
5.79375e-06
-1.8473e-08
-2.11949e-08
5.80724e-06
-1.96704e-08
-1.87245e-08
5.81929e-06
-2.06034e-08
-1.5766e-08
5.8299e-06
-2.14071e-08
-1.26498e-08
5.83925e-06
-2.2283e-08
-9.69773e-09
5.8476e-06
-2.34525e-08
-7.1173e-09
5.8552e-06
-2.51133e-08
-4.97769e-09
5.86226e-06
-2.74126e-08
-3.22209e-09
5.86898e-06
-3.04334e-08
-1.80381e-09
5.8756e-06
-3.42153e-08
-7.25132e-10
5.88231e-06
-3.88036e-08
1.68843e-10
5.88925e-06
-4.42509e-08
9.75752e-10
5.8966e-06
-5.06236e-08
1.71316e-09
5.90458e-06
-5.80084e-08
2.41113e-09
5.91341e-06
-6.65085e-08
3.10575e-09
5.92332e-06
-7.62406e-08
3.81543e-09
5.93456e-06
-8.73413e-08
4.54288e-09
5.94738e-06
-9.99766e-08
5.28237e-09
5.96198e-06
-1.14346e-07
6.02991e-09
5.97856e-06
-1.30687e-07
6.79908e-09
5.99728e-06
-1.49296e-07
7.62287e-09
6.01827e-06
-1.70538e-07
8.53769e-09
6.04166e-06
-1.94854e-07
9.57107e-09
6.0676e-06
-2.22752e-07
1.07336e-08
6.09624e-06
-2.54802e-07
1.20104e-08
6.12772e-06
-2.91643e-07
1.33712e-08
6.16217e-06
-3.34001e-07
1.47974e-08
6.19962e-06
-3.82708e-07
1.62869e-08
6.23998e-06
-4.38718e-07
1.78201e-08
6.28303e-06
-5.03136e-07
1.93111e-08
6.32845e-06
-5.77259e-07
2.06064e-08
6.3755e-06
-6.62569e-07
2.16486e-08
6.42254e-06
-7.60711e-07
2.26403e-08
6.46676e-06
-8.73632e-07
2.39982e-08
6.50415e-06
-1.00322e-06
2.519e-08
6.52785e-06
-1.15159e-06
2.67277e-08
6.52905e-06
-1.32131e-06
2.78121e-08
6.49504e-06
-1.5128e-06
2.66928e-08
6.41026e-06
-1.72789e-06
2.03015e-08
6.25023e-06
-1.96592e-06
1.04282e-08
5.98439e-06
-2.224e-06
-3.97421e-09
5.57453e-06
-2.49517e-06
-2.52416e-08
-2.7661e-06
-5.43882e-08
4.98084e-06
6.06698e-06
-8.35351e-10
-2.09747e-08
6.0797e-06
-1.28488e-09
-1.98247e-08
6.0959e-06
-2.11492e-09
-2.38479e-08
6.11379e-06
-3.11762e-09
-2.62639e-08
6.13122e-06
-4.26302e-09
-2.65222e-08
6.14754e-06
-5.5481e-09
-2.6006e-08
6.16261e-06
-6.99454e-09
-2.50523e-08
6.17619e-06
-8.64439e-09
-2.34083e-08
6.18797e-06
-1.05444e-08
-2.08978e-08
6.19774e-06
-1.2725e-08
-1.76487e-08
6.20555e-06
-1.51893e-08
-1.40355e-08
6.2117e-06
-1.79215e-08
-1.05086e-08
6.21659e-06
-2.09088e-08
-7.42769e-09
6.22061e-06
-2.41622e-08
-4.97631e-09
6.22409e-06
-2.77249e-08
-3.16272e-09
6.22721e-06
-3.16668e-08
-1.89078e-09
6.23013e-06
-3.60762e-08
-1.05696e-09
6.23291e-06
-4.10643e-08
-5.2535e-10
6.23559e-06
-4.67565e-08
-1.68861e-10
6.23816e-06
-5.32843e-08
8.48195e-11
6.24067e-06
-6.07866e-08
2.74852e-10
6.24315e-06
-6.94106e-08
4.24509e-10
6.24567e-06
-7.93144e-08
5.464e-10
6.24835e-06
-9.06715e-08
6.49081e-10
6.25131e-06
-1.03674e-07
7.42984e-10
6.25464e-06
-1.18529e-07
8.46796e-10
6.25843e-06
-1.35459e-07
9.90546e-10
6.26265e-06
-1.54716e-07
1.19925e-09
6.26724e-06
-1.76595e-07
1.46656e-09
6.27208e-06
-2.0145e-07
1.75578e-09
6.277e-06
-2.29703e-07
2.0236e-09
6.28181e-06
-2.61843e-07
2.2325e-09
6.28625e-06
-2.98432e-07
2.35476e-09
6.28996e-06
-3.40097e-07
2.38364e-09
6.29245e-06
-3.87531e-07
2.33631e-09
6.29297e-06
-4.41473e-07
2.23232e-09
6.29046e-06
-5.02702e-07
2.06939e-09
6.28347e-06
-5.72057e-07
1.7965e-09
6.27005e-06
-6.5038e-07
1.22554e-09
6.24768e-06
-7.38409e-07
6.74824e-11
6.21336e-06
-8.36979e-07
-2.32851e-09
6.1624e-06
-9.46739e-07
-5.52647e-09
6.08928e-06
-1.06809e-06
-1.03761e-08
5.98613e-06
-1.20106e-06
-1.71012e-08
5.84398e-06
-1.34478e-06
-2.58622e-08
5.65042e-06
-1.49757e-06
-3.67659e-08
5.39158e-06
-1.65604e-06
-5.10449e-08
5.0518e-06
-1.81486e-06
-6.93564e-08
4.61527e-06
-1.96608e-06
-9.25563e-08
-2.09885e-06
-1.21628e-07
4.06964e-06
6.06209e-06
6.22446e-09
-2.10926e-08
6.07484e-06
5.92782e-09
-1.99612e-08
6.09101e-06
5.71798e-09
-2.40023e-08
6.1088e-06
5.52435e-09
-2.64301e-08
6.12603e-06
5.20414e-09
-2.67006e-08
6.14206e-06
4.62533e-09
-2.61958e-08
6.1567e-06
3.6171e-09
-2.52545e-08
6.1697e-06
1.98882e-09
-2.36351e-08
6.18073e-06
-3.95278e-10
-2.11764e-08
6.18957e-06
-3.54492e-09
-1.80182e-08
6.19624e-06
-7.32833e-09
-1.45323e-08
6.20099e-06
-1.1523e-08
-1.1151e-08
6.2042e-06
-1.59017e-08
-8.21538e-09
6.20624e-06
-2.03088e-08
-5.89464e-09
6.20741e-06
-2.46964e-08
-4.19534e-09
6.20788e-06
-2.91159e-08
-3.02853e-09
6.20778e-06
-3.36882e-08
-2.27951e-09
6.20712e-06
-3.85726e-08
-1.83381e-09
6.2059e-06
-4.39412e-08
-1.59668e-09
6.20408e-06
-4.99624e-08
-1.50622e-09
6.20162e-06
-5.67977e-08
-1.52636e-09
6.19845e-06
-6.46068e-08
-1.63486e-09
6.19451e-06
-7.35545e-08
-1.8171e-09
6.18972e-06
-8.38164e-08
-2.06917e-09
6.18403e-06
-9.55803e-08
-2.3967e-09
6.17734e-06
-1.09044e-07
-2.80025e-09
6.16956e-06
-1.24414e-07
-3.26343e-09
6.16052e-06
-1.41909e-07
-3.76664e-09
6.15e-06
-1.61759e-07
-4.31529e-09
6.13771e-06
-1.84222e-07
-4.94138e-09
6.12329e-06
-2.09598e-07
-5.68477e-09
6.10628e-06
-2.38239e-07
-6.58987e-09
6.0861e-06
-2.70548e-07
-7.70899e-09
6.06207e-06
-3.06965e-07
-9.09283e-09
6.03327e-06
-3.47956e-07
-1.07834e-08
5.99863e-06
-3.94003e-07
-1.28252e-08
5.95679e-06
-4.45575e-07
-1.52855e-08
5.90611e-06
-5.03106e-07
-1.82724e-08
5.84461e-06
-5.66958e-07
-2.19241e-08
5.76997e-06
-6.37375e-07
-2.63913e-08
5.67927e-06
-7.14458e-07
-3.1824e-08
5.5691e-06
-7.98064e-07
-3.8505e-08
5.43536e-06
-8.87711e-07
-4.66357e-08
5.27315e-06
-9.82423e-07
-5.64262e-08
5.07693e-06
-1.08051e-06
-6.80495e-08
4.84038e-06
-1.17938e-06
-8.16367e-08
4.55675e-06
-1.27516e-06
-9.72576e-08
4.21904e-06
-1.36244e-06
-1.14721e-07
3.8203e-06
-1.43402e-06
-1.3331e-07
-1.48083e-06
-1.51376e-07
3.35365e-06
5.667e-06
1.23841e-08
-2.1418e-08
5.68053e-06
1.24236e-08
-2.00178e-08
5.69663e-06
1.29781e-08
-2.33667e-08
5.71396e-06
1.36166e-08
-2.54181e-08
5.73069e-06
1.40314e-08
-2.55565e-08
5.74629e-06
1.39618e-08
-2.49403e-08
5.76064e-06
1.31409e-08
-2.38666e-08
5.77349e-06
1.13506e-08
-2.22196e-08
5.78458e-06
8.51385e-09
-1.99984e-08
5.79369e-06
4.74636e-09
-1.73988e-08
5.80074e-06
3.22462e-10
-1.46996e-08
5.80578e-06
-4.41754e-09
-1.2151e-08
5.80897e-06
-9.17334e-09
-9.91019e-09
5.81046e-06
-1.37558e-08
-8.04683e-09
5.81044e-06
-1.81073e-08
-6.56971e-09
5.80906e-06
-2.22822e-08
-5.44847e-09
5.80641e-06
-2.64072e-08
-4.63984e-09
5.80259e-06
-3.06419e-08
-4.10119e-09
5.79759e-06
-3.51525e-08
-3.79469e-09
5.79141e-06
-4.00966e-08
-3.68926e-09
5.784e-06
-4.562e-08
-3.76116e-09
5.77524e-06
-5.18602e-08
-3.9933e-09
5.76502e-06
-5.8952e-08
-4.37713e-09
5.75315e-06
-6.70336e-08
-4.91703e-09
5.73945e-06
-7.6255e-08
-5.62265e-09
5.72368e-06
-8.6784e-08
-6.49079e-09
5.70557e-06
-9.8803e-08
-7.50082e-09
5.68479e-06
-1.12497e-07
-8.63409e-09
5.66097e-06
-1.28042e-07
-9.89397e-09
5.63366e-06
-1.45608e-07
-1.1302e-08
5.60232e-06
-1.65369e-07
-1.28928e-08
5.56632e-06
-1.87516e-07
-1.47244e-08
5.52491e-06
-2.12265e-07
-1.68716e-08
5.47721e-06
-2.3986e-07
-1.94031e-08
5.42219e-06
-2.70559e-07
-2.23783e-08
5.35867e-06
-3.04619e-07
-2.58651e-08
5.28531e-06
-3.42268e-07
-2.99518e-08
5.20062e-06
-3.83671e-07
-3.4744e-08
5.10292e-06
-4.28901e-07
-4.03569e-08
4.99036e-06
-4.77901e-07
-4.6911e-08
4.86088e-06
-5.30451e-07
-5.45329e-08
4.71228e-06
-5.86111e-07
-6.33528e-08
4.54219e-06
-6.44143e-07
-7.34765e-08
4.34816e-06
-7.03414e-07
-8.49722e-08
4.12777e-06
-7.62289e-07
-9.78395e-08
3.87891e-06
-8.1855e-07
-1.11969e-07
3.6002e-06
-8.69368e-07
-1.27078e-07
3.29139e-06
-9.11213e-07
-1.42413e-07
2.95298e-06
-9.40023e-07
-1.55593e-07
-9.50384e-07
-1.60987e-07
2.58352e-06
4.77982e-06
1.54541e-08
-2.13103e-08
4.79554e-06
1.56222e-08
-1.89231e-08
4.81258e-06
1.66303e-08
-2.06938e-08
4.83059e-06
1.7693e-08
-2.20859e-08
4.84837e-06
1.8333e-08
-2.20807e-08
4.8655e-06
1.82394e-08
-2.14056e-08
4.88177e-06
1.72052e-08
-2.03366e-08
4.89687e-06
1.5172e-08
-1.89209e-08
4.91042e-06
1.22576e-08
-1.72948e-08
4.92207e-06
8.71181e-09
-1.56145e-08
4.93156e-06
4.83898e-09
-1.39977e-08
4.9387e-06
9.15803e-10
-1.24733e-08
4.94342e-06
-2.86265e-09
-1.10311e-08
4.94573e-06
-6.40085e-09
-9.67039e-09
4.94573e-06
-9.6919e-09
-8.41894e-09
4.94357e-06
-1.27925e-08
-7.32477e-09
4.9394e-06
-1.57969e-08
-6.4354e-09
4.93334e-06
-1.88109e-08
-5.77973e-09
4.9255e-06
-2.19415e-08
-5.36777e-09
4.91589e-06
-2.52917e-08
-5.19399e-09
4.90447e-06
-2.89569e-08
-5.24405e-09
4.89114e-06
-3.30268e-08
-5.50194e-09
4.87573e-06
-3.75885e-08
-5.95593e-09
4.85803e-06
-4.27315e-08
-6.60303e-09
4.83778e-06
-4.85547e-08
-7.44775e-09
4.81466e-06
-5.51702e-08
-8.49614e-09
4.78831e-06
-6.26964e-08
-9.75361e-09
4.75829e-06
-7.12472e-08
-1.12272e-08
4.72409e-06
-8.09214e-08
-1.29241e-08
4.68513e-06
-9.18033e-08
-1.48461e-08
4.64073e-06
-1.03968e-07
-1.69984e-08
4.59011e-06
-1.17491e-07
-1.94074e-08
4.53243e-06
-1.32462e-07
-2.21204e-08
4.46675e-06
-1.48982e-07
-2.51962e-08
4.39205e-06
-1.67155e-07
-2.87082e-08
4.30725e-06
-1.87071e-07
-3.27487e-08
4.21119e-06
-2.08785e-07
-3.74163e-08
4.10262e-06
-2.32302e-07
-4.27973e-08
3.98023e-06
-2.57555e-07
-4.8961e-08
3.84268e-06
-2.84384e-07
-5.59649e-08
3.6886e-06
-3.12514e-07
-6.38569e-08
3.51666e-06
-3.41507e-07
-7.26668e-08
3.32562e-06
-3.70711e-07
-8.23901e-08
3.11439e-06
-3.99189e-07
-9.29949e-08
2.88231e-06
-4.25721e-07
-1.04485e-07
2.6298e-06
-4.48996e-07
-1.17049e-07
2.35995e-06
-4.68289e-07
-1.31232e-07
2.08116e-06
-4.85037e-07
-1.47385e-07
1.80742e-06
-5.05125e-07
-1.61159e-07
-5.37062e-07
-1.57938e-07
1.55204e-06
3.33185e-06
1.16369e-08
-2.14803e-08
3.3532e-06
1.1333e-08
-1.70577e-08
3.37437e-06
1.1707e-08
-1.62522e-08
3.39658e-06
1.22528e-08
-1.67706e-08
3.41916e-06
1.24108e-08
-1.66484e-08
3.4414e-06
1.19889e-08
-1.59974e-08
3.46274e-06
1.09819e-08
-1.51106e-08
3.48257e-06
9.49231e-09
-1.4157e-08
3.50037e-06
7.6874e-09
-1.32293e-08
3.5157e-06
5.74306e-09
-1.23586e-08
3.52824e-06
3.79826e-09
-1.14985e-08
3.53779e-06
1.93917e-09
-1.05768e-08
3.54429e-06
2.04783e-10
-9.56403e-09
3.54778e-06
-1.39988e-09
-8.49039e-09
3.54841e-06
-2.89284e-09
-7.42584e-09
3.54637e-06
-4.30206e-09
-6.4493e-09
3.54187e-06
-5.66482e-09
-5.63372e-09
3.53509e-06
-7.01918e-09
-5.01291e-09
3.52615e-06
-8.39656e-09
-4.60113e-09
3.51509e-06
-9.8365e-09
-4.39564e-09
3.50189e-06
-1.13753e-08
-4.38318e-09
3.48646e-06
-1.30473e-08
-4.54821e-09
3.46863e-06
-1.48865e-08
-4.87876e-09
3.4482e-06
-1.69273e-08
-5.37163e-09
3.42489e-06
-1.92071e-08
-6.03402e-09
3.39836e-06
-2.17667e-08
-6.87876e-09
3.36823e-06
-2.46477e-08
-7.91736e-09
3.33402e-06
-2.78884e-08
-9.15262e-09
3.29519e-06
-3.15202e-08
-1.05708e-08
3.2511e-06
-3.55654e-08
-1.21462e-08
3.20104e-06
-4.00376e-08
-1.38641e-08
3.14423e-06
-4.4944e-08
-1.57418e-08
3.07988e-06
-5.02875e-08
-1.78271e-08
3.00716e-06
-5.60653e-08
-2.01895e-08
2.92518e-06
-6.22633e-08
-2.29116e-08
2.83303e-06
-6.88475e-08
-2.60768e-08
2.72976e-06
-7.57559e-08
-2.97574e-08
2.61436e-06
-8.28876e-08
-3.40141e-08
2.4858e-06
-9.00897e-08
-3.89064e-08
2.34306e-06
-9.71402e-08
-4.4505e-08
2.18517e-06
-1.03727e-07
-5.09001e-08
2.0113e-06
-1.09425e-07
-5.82125e-08
1.8209e-06
-1.13671e-07
-6.66405e-08
1.61411e-06
-1.15802e-07
-7.65897e-08
1.39256e-06
-1.15276e-07
-8.88973e-08
1.16084e-06
-1.12322e-07
-1.04957e-07
9.27991e-07
-1.09181e-07
-1.2626e-07
7.06342e-07
-1.12298e-07
-1.51091e-07
5.07052e-07
-1.39113e-07
-1.66723e-07
-2.36315e-07
-1.45335e-07
3.5164e-07
1.52983e-06
-1.00655e-08
1.54811e-06
-6.93941e-09
1.56557e-06
-5.76105e-09
1.58381e-06
-5.98072e-09
1.60254e-06
-6.31649e-09
1.62116e-06
-6.63603e-09
1.6391e-06
-6.95547e-09
1.6558e-06
-7.20828e-09
1.67078e-06
-7.29083e-09
1.68366e-06
-7.14335e-09
1.69422e-06
-6.76178e-09
1.70235e-06
-6.18407e-09
1.70803e-06
-5.47645e-09
1.71134e-06
-4.71399e-09
1.7124e-06
-3.94657e-09
1.71139e-06
-3.29918e-09
1.70847e-06
-2.74294e-09
1.70375e-06
-2.29315e-09
1.69731e-06
-1.96532e-09
1.68923e-06
-1.75081e-09
1.67949e-06
-1.63484e-09
1.66804e-06
-1.60419e-09
1.65481e-06
-1.64907e-09
1.63964e-06
-1.76473e-09
1.62239e-06
-1.95125e-09
1.60283e-06
-2.21088e-09
1.58073e-06
-2.54323e-09
1.55578e-06
-2.93876e-09
1.52763e-06
-3.37596e-09
1.4959e-06
-3.82933e-09
1.46014e-06
-4.28358e-09
1.41994e-06
-4.7412e-09
1.37487e-06
-5.21823e-09
1.32454e-06
-5.73452e-09
1.26858e-06
-6.30439e-09
1.20666e-06
-6.92937e-09
1.1385e-06
-7.59446e-09
1.06388e-06
-8.26814e-09
9.82698e-07
-8.90421e-09
8.95002e-07
-9.4439e-09
8.01095e-07
-9.82041e-09
7.01647e-07
-9.9767e-09
5.97889e-07
-9.9125e-09
4.91853e-07
-9.76604e-09
3.86471e-07
-9.89283e-09
2.84937e-07
-1.07886e-08
1.87404e-07
-1.16483e-08
8.02339e-08
-5.12702e-09
-8.88884e-08
3.00096e-08
9.76987e-08
-4.22902e-07
3.46377e-06
-3.12743e-08
-1.77477e-08
3.50246e-06
-3.03296e-08
-1.52287e-08
3.54265e-06
-3.16779e-08
-1.40026e-08
3.58494e-06
-3.38757e-08
-1.40201e-08
3.62874e-06
-3.56049e-08
-1.4058e-08
3.67292e-06
-3.62637e-08
-1.40876e-08
3.71627e-06
-3.55993e-08
-1.42436e-08
3.75762e-06
-3.36747e-08
-1.44233e-08
3.796e-06
-3.08344e-08
-1.43611e-08
3.83082e-06
-2.75813e-08
-1.3852e-08
3.86193e-06
-2.43971e-08
-1.2813e-08
3.88948e-06
-2.16365e-08
-1.12852e-08
3.91391e-06
-1.95055e-08
-9.40927e-09
3.93583e-06
-1.80892e-08
-7.37808e-09
3.95597e-06
-1.73947e-08
-5.38371e-09
3.97509e-06
-1.73855e-08
-3.57344e-09
3.99395e-06
-1.79998e-08
-2.01888e-09
4.01324e-06
-1.91734e-08
-7.20004e-10
4.03361e-06
-2.08692e-08
3.67278e-10
4.05565e-06
-2.30903e-08
1.30369e-09
4.07999e-06
-2.58734e-08
2.14489e-09
4.10726e-06
-2.92701e-08
2.93458e-09
4.13813e-06
-3.33346e-08
3.71299e-09
4.17329e-06
-3.8129e-08
4.52155e-09
4.21352e-06
-4.37379e-08
5.39365e-09
4.25967e-06
-5.02739e-08
6.3449e-09
4.31276e-06
-5.78711e-08
7.37874e-09
4.37391e-06
-6.6683e-08
8.50775e-09
4.44443e-06
-7.68967e-08
9.77463e-09
4.52585e-06
-8.87596e-08
1.12538e-08
4.61994e-06
-1.02605e-07
1.30256e-08
4.72891e-06
-1.18865e-07
1.51426e-08
4.85547e-06
-1.3808e-07
1.76284e-08
5.00295e-06
-1.60906e-07
2.05181e-08
5.17545e-06
-1.88154e-07
2.39061e-08
5.378e-06
-2.20875e-07
2.79683e-08
5.61688e-06
-2.60509e-07
3.29686e-08
5.90009e-06
-3.08981e-07
3.92004e-08
6.238e-06
-3.68897e-07
4.69715e-08
6.64427e-06
-4.43861e-07
5.66864e-08
7.1373e-06
-5.38932e-07
6.90014e-08
7.74226e-06
-6.6128e-07
8.51556e-08
8.49164e-06
-8.2069e-07
1.08683e-07
9.42743e-06
-1.03057e-06
1.44969e-07
1.06059e-05
-1.30991e-06
2.01373e-07
1.2102e-05
-1.68522e-06
2.90959e-07
1.40156e-05
-2.19401e-06
4.40072e-07
1.64901e-05
-2.89128e-06
7.00507e-07
1.97486e-05
-3.87442e-06
1.19414e-06
-5.79374e-06
2.12233e-06
2.4629e-05
8.65688e-06
-4.46079e-08
-4.10962e-08
8.69496e-06
-4.53242e-08
-3.99669e-08
8.73745e-06
-4.87118e-08
-4.12759e-08
8.78231e-06
-5.29905e-08
-4.19106e-08
8.82883e-06
-5.72722e-08
-4.06984e-08
8.87628e-06
-6.06836e-08
-3.80257e-08
8.92383e-06
-6.24082e-08
-3.46153e-08
8.97041e-06
-6.19717e-08
-3.09824e-08
9.01495e-06
-5.9405e-08
-2.75247e-08
9.05658e-06
-5.5224e-08
-2.45182e-08
9.09477e-06
-5.02523e-08
-2.18544e-08
9.12931e-06
-4.53804e-08
-1.91995e-08
9.16033e-06
-4.13633e-08
-1.62837e-08
9.18835e-06
-3.87106e-08
-1.30489e-08
9.21414e-06
-3.76678e-08
-9.64017e-09
9.23871e-06
-3.82707e-08
-6.29236e-09
9.26309e-06
-4.04145e-08
-3.17105e-09
9.28827e-06
-4.39415e-08
-3.43723e-10
9.31517e-06
-4.87215e-08
2.15642e-09
9.34464e-06
-5.4684e-08
4.30493e-09
9.37749e-06
-6.182e-08
6.10242e-09
9.4145e-06
-7.01797e-08
7.60337e-09
9.45645e-06
-7.98778e-08
8.93632e-09
9.50416e-06
-9.11027e-08
1.02836e-08
9.55851e-06
-1.04118e-07
1.18163e-08
9.62052e-06
-1.19244e-07
1.36361e-08
9.69143e-06
-1.3682e-07
1.57738e-08
9.77264e-06
-1.57205e-07
1.82303e-08
9.86578e-06
-1.80806e-07
2.10249e-08
9.97272e-06
-2.08139e-07
2.42299e-08
1.00956e-05
-2.39878e-07
2.79715e-08
1.02369e-05
-2.76893e-07
3.23692e-08
1.03996e-05
-3.20247e-07
3.74678e-08
1.05874e-05
-3.71207e-07
4.32569e-08
1.08046e-05
-4.31316e-07
4.97779e-08
1.10565e-05
-5.0253e-07
5.72332e-08
1.13488e-05
-5.87298e-07
6.62032e-08
1.16882e-05
-6.88698e-07
7.7339e-08
1.20823e-05
-8.10643e-07
9.10217e-08
1.25396e-05
-9.58142e-07
1.07635e-07
1.30694e-05
-1.13731e-06
1.27736e-07
1.36802e-05
-1.35578e-06
1.52092e-07
1.43802e-05
-1.62336e-06
1.80725e-07
1.51765e-05
-1.95276e-06
2.14157e-07
1.60707e-05
-2.36039e-06
2.54893e-07
1.70538e-05
-2.86493e-06
3.0693e-07
1.81138e-05
-3.5025e-06
3.77478e-07
1.92279e-05
-4.31912e-06
4.84638e-07
2.03006e-05
-5.36719e-06
6.76286e-07
-6.71187e-06
1.04647e-06
2.05555e-05
1.28886e-05
-3.66033e-08
-4.39295e-08
1.29092e-05
-3.74201e-08
-4.69088e-08
1.29349e-05
-4.04855e-08
-5.40292e-08
1.2962e-05
-4.45177e-08
-5.68483e-08
1.2989e-05
-4.90951e-08
-5.63101e-08
1.30158e-05
-5.36945e-08
-5.40503e-08
1.30424e-05
-5.76094e-08
-5.0499e-08
1.30688e-05
-6.01406e-08
-4.57028e-08
1.30947e-05
-6.08554e-08
-4.00289e-08
1.31199e-05
-5.97692e-08
-3.40855e-08
1.31441e-05
-5.73644e-08
-2.8394e-08
1.3167e-05
-5.44396e-08
-2.32331e-08
1.31886e-05
-5.18814e-08
-1.86303e-08
1.3209e-05
-5.04585e-08
-1.44572e-08
1.32285e-05
-5.06967e-08
-1.05774e-08
1.32475e-05
-5.28496e-08
-7.01637e-09
1.32668e-05
-5.69419e-08
-3.79948e-09
1.32868e-05
-6.2896e-08
-8.92747e-10
1.33084e-05
-7.0644e-08
1.72192e-09
1.33323e-05
-8.01625e-08
4.12472e-09
1.33591e-05
-9.14722e-08
6.41277e-09
1.33896e-05
-1.0463e-07
8.60695e-09
1.34245e-05
-1.19739e-07
1.0672e-08
1.34645e-05
-1.36983e-07
1.26039e-08
1.35102e-05
-1.56654e-07
1.44681e-08
1.35624e-05
-1.79147e-07
1.63805e-08
1.36219e-05
-2.04935e-07
1.84797e-08
1.36895e-05
-2.34565e-07
2.09101e-08
1.37664e-05
-2.68691e-07
2.38021e-08
1.38536e-05
-3.08099e-07
2.72577e-08
1.39529e-05
-3.5372e-07
3.13504e-08
1.40658e-05
-4.06648e-07
3.61273e-08
1.41942e-05
-4.6814e-07
4.1619e-08
1.43401e-05
-5.39634e-07
4.78709e-08
1.45057e-05
-6.22791e-07
5.49886e-08
1.46927e-05
-7.19579e-07
6.31405e-08
1.4903e-05
-8.32386e-07
7.23e-08
1.51385e-05
-9.64128e-07
8.24195e-08
1.54001e-05
-1.11823e-06
9.36409e-08
1.56875e-05
-1.29863e-06
1.06203e-07
1.59982e-05
-1.50979e-06
1.20252e-07
1.63289e-05
-1.75809e-06
1.34949e-07
1.6674e-05
-2.05063e-06
1.49571e-07
1.70241e-05
-2.39608e-06
1.64013e-07
1.73666e-05
-2.80522e-06
1.7763e-07
1.76795e-05
-3.29059e-06
1.96118e-07
1.79025e-05
-3.8637e-06
2.30662e-07
1.79357e-05
-4.54279e-06
2.8484e-07
1.76429e-05
-5.33166e-06
3.41978e-07
-6.21592e-06
3.35756e-07
1.68602e-05
1.54633e-05
-2.04213e-08
-4.54088e-08
1.54774e-05
-2.09166e-08
-5.02247e-08
1.54978e-05
-2.29773e-08
-6.0801e-08
1.55196e-05
-2.58702e-08
-6.52226e-08
1.55404e-05
-2.93511e-08
-6.53973e-08
1.55596e-05
-3.31969e-08
-6.38253e-08
1.5577e-05
-3.70772e-08
-6.09037e-08
1.55924e-05
-4.06023e-08
-5.62104e-08
1.5606e-05
-4.34558e-08
-4.96623e-08
1.56177e-05
-4.55273e-08
-4.17781e-08
1.56281e-05
-4.69707e-08
-3.3453e-08
1.56378e-05
-4.8162e-08
-2.55876e-08
1.56471e-05
-4.95952e-08
-1.87849e-08
1.56567e-05
-5.17656e-08
-1.32631e-08
1.56668e-05
-5.50945e-08
-8.85558e-09
1.56773e-05
-5.98553e-08
-5.37804e-09
1.56887e-05
-6.61568e-08
-2.89444e-09
1.5701e-05
-7.41096e-08
-8.88936e-10
1.57143e-05
-8.38165e-08
8.96442e-10
1.57287e-05
-9.53887e-08
2.48355e-09
1.57447e-05
-1.08986e-07
3.94772e-09
1.57626e-05
-1.24806e-07
5.38551e-09
1.57829e-05
-1.43063e-07
6.84283e-09
1.58061e-05
-1.63993e-07
8.32013e-09
1.58328e-05
-1.87874e-07
9.79802e-09
1.58635e-05
-2.15043e-07
1.1265e-08
1.58985e-05
-2.45908e-07
1.27531e-08
1.59382e-05
-2.8098e-07
1.43437e-08
1.59828e-05
-3.20914e-07
1.6131e-08
1.60326e-05
-3.66533e-07
1.81881e-08
1.60879e-05
-4.18813e-07
2.05491e-08
1.61489e-05
-4.78853e-07
2.31941e-08
1.6216e-05
-5.47878e-07
2.6073e-08
1.62892e-05
-6.27262e-07
2.91722e-08
1.63687e-05
-7.18571e-07
3.25454e-08
1.64543e-05
-8.2359e-07
3.62526e-08
1.65454e-05
-9.44357e-07
4.02496e-08
1.66407e-05
-1.0832e-06
4.43263e-08
1.67387e-05
-1.24277e-06
4.81897e-08
1.68376e-05
-1.42621e-06
5.12859e-08
1.69353e-05
-1.63728e-06
5.38591e-08
1.70254e-05
-1.87957e-06
5.6581e-08
1.7097e-05
-2.15707e-06
6.15095e-08
1.71347e-05
-2.4737e-06
6.77022e-08
1.71126e-05
-2.83251e-06
7.61627e-08
1.69992e-05
-3.24013e-06
8.32233e-08
1.67554e-05
-3.69194e-06
8.24037e-08
1.63227e-05
-4.18585e-06
7.18594e-08
1.56277e-05
-4.71098e-06
4.90716e-08
-5.24471e-06
1.39828e-08
1.45881e-05
1.65927e-05
-1.46359e-09
-4.57005e-08
1.66049e-05
-1.86866e-09
-5.10861e-08
1.66243e-05
-3.01273e-09
-6.31566e-08
1.66452e-05
-4.57931e-09
-6.84901e-08
1.6665e-05
-6.50381e-09
-6.9172e-08
1.66827e-05
-8.74916e-09
-6.81496e-08
1.66978e-05
-1.13202e-08
-6.59218e-08
1.67099e-05
-1.42792e-08
-6.18326e-08
1.67187e-05
-1.77357e-08
-5.54432e-08
1.67244e-05
-2.18014e-08
-4.70404e-08
1.67275e-05
-2.65309e-08
-3.75599e-08
1.67289e-05
-3.18992e-08
-2.81953e-08
1.67297e-05
-3.78369e-08
-1.99492e-08
1.67306e-05
-4.42912e-08
-1.33679e-08
1.67321e-05
-5.12793e-08
-8.51474e-09
1.67344e-05
-5.88922e-08
-5.13983e-09
1.67374e-05
-6.72743e-08
-2.96449e-09
1.67411e-05
-7.6642e-08
-1.61823e-09
1.67451e-05
-8.72542e-08
-7.45246e-10
1.67493e-05
-9.93836e-08
-1.45114e-10
1.67536e-05
-1.13318e-07
2.89528e-10
1.6758e-05
-1.29365e-07
6.26194e-10
1.67624e-05
-1.47847e-07
9.01263e-10
1.6767e-05
-1.69105e-07
1.13361e-09
1.67721e-05
-1.93516e-07
1.34249e-09
1.67778e-05
-2.21483e-07
1.56762e-09
1.67844e-05
-2.53429e-07
1.88073e-09
1.67921e-05
-2.89812e-07
2.35089e-09
1.68008e-05
-3.31154e-07
2.9783e-09
1.68104e-05
-3.78079e-07
3.68506e-09
1.68206e-05
-4.31347e-07
4.36839e-09
1.6831e-05
-4.91874e-07
4.93895e-09
1.68408e-05
-5.6074e-07
5.33853e-09
1.68496e-05
-6.39185e-07
5.5693e-09
1.68562e-05
-7.28603e-07
5.70348e-09
1.68595e-05
-8.30505e-07
5.83272e-09
1.68578e-05
-9.46488e-07
5.98654e-09
1.68485e-05
-1.0782e-06
6.08994e-09
1.68283e-05
-1.22735e-06
5.97149e-09
1.67922e-05
-1.3956e-06
5.55323e-09
1.67336e-05
-1.58508e-06
4.12514e-09
1.66437e-05
-1.79674e-06
1.4634e-09
1.65124e-05
-2.03198e-06
-4.15609e-09
1.63253e-05
-2.29142e-06
-1.22298e-08
1.60647e-05
-2.57447e-06
-2.33331e-08
1.57056e-05
-2.87895e-06
-3.88731e-08
1.52208e-05
-3.19949e-06
-5.8657e-08
1.45775e-05
-3.52736e-06
-8.45168e-08
1.37406e-05
-3.84881e-06
-1.17853e-07
-4.14384e-06
-1.60881e-07
1.2679e-05
1.65833e-05
1.7571e-08
-4.5898e-08
1.65955e-05
1.72668e-08
-5.13164e-08
1.66148e-05
1.71103e-08
-6.34329e-08
1.66356e-05
1.69824e-08
-6.8794e-08
1.66551e-05
1.676e-08
-6.94993e-08
1.66724e-05
1.62953e-08
-6.8496e-08
1.66869e-05
1.52494e-08
-6.62845e-08
1.66981e-05
1.31169e-08
-6.22316e-08
1.67057e-05
9.38899e-09
-5.59339e-08
1.67098e-05
3.77768e-09
-4.76964e-08
1.67108e-05
-3.63909e-09
-3.84472e-08
1.67096e-05
-1.24435e-08
-2.93661e-08
1.6707e-05
-2.20447e-08
-2.14241e-08
1.67038e-05
-3.18985e-08
-1.51224e-08
1.67005e-05
-4.16723e-08
-1.05101e-08
1.66973e-05
-5.12951e-08
-7.35163e-09
1.66939e-05
-6.09148e-08
-5.32582e-09
1.66904e-05
-7.08285e-08
-4.11121e-09
1.66864e-05
-8.14041e-08
-3.43883e-09
1.66817e-05
-9.30195e-08
-3.13159e-09
1.66759e-05
-1.06037e-07
-3.08637e-09
1.6669e-05
-1.20805e-07
-3.24047e-09
1.66606e-05
-1.37671e-07
-3.55276e-09
1.66504e-05
-1.56996e-07
-4.00575e-09
1.66382e-05
-1.79168e-07
-4.60333e-09
1.66239e-05
-2.04604e-07
-5.34e-09
1.66071e-05
-2.33742e-07
-6.17177e-09
1.65876e-05
-2.6703e-07
-7.04214e-09
1.6565e-05
-3.04921e-07
-7.94845e-09
1.65388e-05
-3.47889e-07
-8.95365e-09
1.65084e-05
-3.96471e-07
-1.01424e-08
1.64729e-05
-4.5132e-07
-1.16043e-08
1.64311e-05
-5.13219e-07
-1.34365e-08
1.63816e-05
-5.83074e-07
-1.57209e-08
1.63226e-05
-6.61879e-07
-1.85076e-08
1.62518e-05
-7.50685e-07
-2.18405e-08
1.61664e-05
-8.50549e-07
-2.58079e-08
1.6063e-05
-9.62475e-07
-3.05766e-08
1.59374e-05
-1.08737e-06
-3.63954e-08
1.57849e-05
-1.22595e-06
-4.35567e-08
1.55993e-05
-1.37874e-06
-5.24651e-08
1.53732e-05
-1.54582e-06
-6.33851e-08
1.50981e-05
-1.72677e-06
-7.6719e-08
1.47635e-05
-1.92035e-06
-9.29262e-08
1.43574e-05
-2.12409e-06
-1.12356e-07
1.3866e-05
-2.33389e-06
-1.35286e-07
1.32744e-05
-2.5433e-06
-1.61796e-07
1.2567e-05
-2.74294e-06
-1.91727e-07
1.17285e-05
-2.91963e-06
-2.24014e-07
-3.05569e-06
-2.55567e-07
1.07445e-05
1.54354e-05
3.40138e-08
-4.5932e-08
1.54494e-05
3.41646e-08
-5.08689e-08
1.54694e-05
3.5374e-08
-6.1627e-08
1.54903e-05
3.68525e-08
-6.61963e-08
1.55097e-05