/*--------------------------------*- C++ -*----------------------------------*\
  =========                 |
  \\      /  F ield         | OpenFOAM: The Open Source CFD Toolbox
   \\    /   O peration     | Website:  https://openfoam.org
    \\  /    A nd           | Version:  6
     \\/     M anipulation  |
\*---------------------------------------------------------------------------*/
FoamFile
{
    version     2.0;
    format      ascii;
    class       volVectorField;
    location    "0";
    object      U_rec;
}
// * * * * * * * * * * * * * * * * * * * * * * * * * * * * * * * * * * * * * //

dimensions      [0 1 -1 0 0 0 0];

internalField   nonuniform List<vector> 
918
(
(0.992627 -0.00143584 0)
(-0.0197603 3.00244 0)
(0.00443504 1.73423 0)
(0.984114 0.00530148 0)
(-0.0181937 1.69305 5.35165e-17)
(0.0102283 2.99436 3.16994e-18)
(1.0466 1.51379 9.56634e-18)
(0.50424 0.280909 4.16832e-19)
(1.0022 -0.000220112 0)
(0.0136397 1.7218 0)
(0.00338449 1.70099 0)
(0.924064 0.00891109 0)
(-0.00158617 2.98916 0)
(-0.00230911 2.8881 0)
(-0.00215432 2.97087 2.54319e-17)
(0.00935596 1.6799 3.29666e-17)
(0.694016 0.156828 -1.39176e-17)
(0.208286 2.00098 -2.94894e-17)
(0.994644 0.0199319 0)
(-0.00113904 1.70124 0)
(0.00977389 0.0743023 1.3614e-17)
(0.994087 0.0121923 0)
(1.00779 0.0101436 0)
(0.999104 0.00867371 0)
(0.86064 -0.0048683 0)
(0.0112465 2.90859 0)
(-0.0003264 2.93956 -9.71987e-17)
(-0.00530591 1.74464 0)
(0.0095493 1.7657 0)
(-0.0055179 1.75351 0)
(-0.00999301 1.78587 0)
(-0.0031743 1.71321 5.28686e-17)
(-0.00961864 1.679 0)
(0.0205093 3.01077 1.68278e-21)
(0.0116439 3.02432 -7.58377e-17)
(0.0212523 3.02097 0)
(0.965612 0.00765261 0)
(0.412036 0.712918 -1.56569e-17)
(1.00128 1.56502 -2.1464e-17)
(1.12568 1.3095 3.27812e-17)
(0.865119 1.76757 7.59042e-18)
(0.90311 1.73182 2.11703e-17)
(0.534976 0.338506 -1.2881e-19)
(0.558491 0.268149 0)
(1.26865 0.649072 0)
(0.475292 0.340551 -7.62698e-19)
(0.456515 0.267238 1.68973e-18)
(0.955739 0.0023013 0)
(0.999819 0.000986817 0)
(1.00236 0.00241768 0)
(0.989445 0.00535851 0)
(0.987427 0.00452448 0)
(1.00276 0.00983969 0)
(0.0249073 1.60737 1.2148e-17)
(0.0266843 1.79876 0)
(0.0610892 1.76822 0)
(-0.00730976 1.77358 0)
(-0.00728278 1.70979 0)
(0.00158445 1.67904 0)
(-0.00017303 1.73496 0)
(-0.00622896 1.69988 0)
(-0.00338665 1.73676 0)
(0.00743341 1.69562 0)
(0.99261 0.0106986 0)
(0.95447 0.0119197 0)
(0.937654 0.00304068 0)
(0.939552 0.0240496 0)
(0.907151 0.0172795 0)
(-0.0117618 3.04729 1.23612e-17)
(-0.00957019 2.9761 0)
(-0.0328256 3.04063 0)
(0.0150035 3.04416 -1.83437e-22)
(-0.00978524 3.02056 5.2818e-17)
(0.0238264 3.01123 0)
(0.013611 2.94727 0)
(-0.00186871 2.96036 -4.07144e-23)
(0.00318875 2.88829 0)
(0.0131715 2.96839 0)
(-0.00763423 2.87637 0)
(0.286221 3.26967 0)
(-0.0646003 3.35451 0)
(0.113501 3.03193 -1.53448e-18)
(0.00726627 2.83836 0)
(0.000833337 1.75056 0)
(0.00250405 1.72175 3.0043e-17)
(0.00553644 1.69082 3.32811e-17)
(0.713647 0.179719 6.15363e-19)
(0.710928 0.12145 7.0132e-18)
(0.704077 0.208943 3.38878e-17)
(0.670735 0.186724 9.53922e-19)
(0.1828 1.40319 0)
(0.328247 2.08303 -4.63817e-17)
(0.451798 2.03858 -2.72666e-17)
(0.996592 0.0186909 0)
(0.96542 0.0288057 0)
(1.00162 -0.00542527 0)
(1.0011 0.00374408 0)
(1.01113 0.021428 1.9349e-16)
(0.996831 0.00799743 6.50663e-17)
(-0.00334574 1.73044 0)
(-0.00429678 1.69926 0)
(0.00770699 1.75677 0)
(-0.0110506 1.74051 0)
(0.0088282 1.70924 0)
(0.0459886 0.297107 -5.08984e-18)
(0.239233 0.205757 0)
(1.01217 -0.00840824 0)
(0.996398 0.00400433 0)
(0.915933 0.0158379 0)
(0.899064 0.0201534 0)
(0.901425 -0.00205367 0)
(1.11618 0.00795166 0)
(0.855101 0.0521076 0)
(0.791608 0.0476201 -3.8297e-18)
(-0.0369946 2.87888 8.93205e-18)
(-0.00204458 2.97955 0)
(-0.0490849 3.02055 0)
(-0.010778 2.86822 0)
(-0.00263647 2.98654 -4.27049e-17)
(0.000447423 2.93353 0)
(-0.00445081 2.9892 2.07223e-17)
(-0.0071393 2.95139 1.08985e-17)
(0.0060994 1.76088 0)
(0.00249663 1.75551 0)
(0.00852699 1.72313 2.26956e-20)
(-0.0068127 1.71807 0)
(-0.000163285 1.68103 0)
(0.988729 0.00880486 0)
(0.970903 0.00682923 0)
(0.954721 -0.00888096 0)
(0.982886 0.00606345 0)
(0.95866 -0.00732949 0)
(0.496146 0.986248 1.84009e-18)
(0.498154 1.02884 0)
(0.537671 0.835316 -1.94382e-18)
(0.444447 0.557359 0)
(1.09745 1.34704 1.31758e-17)
(1.20093 1.07822 1.02231e-17)
(0.526596 2.06116 0)
(0.707877 1.94401 0)
(0.714817 1.92646 0)
(0.541478 1.0815 -2.27875e-18)
(0.601368 0.305453 0)
(0.612239 0.238499 -6.50905e-18)
(1.17085 1.13186 0)
(1.21981 0.914288 0)
(1.24329 0.868079 -1.07674e-17)
(1.26875 0.702282 0)
(1.29872 0.49607 -2.69287e-17)
(0.985011 -0.00354165 0)
(0.976404 0.00358229 0)
(0.95977 0.00208018 0)
(0.996779 0.000522191 0)
(0.978803 -0.00253456 0)
(0.968707 0.00204984 0)
(0.994463 -0.00156501 0)
(0.992183 0.000987416 0)
(1.00255 -0.000964013 0)
(0.027372 1.60041 2.34257e-17)
(0.0271201 1.54799 0)
(0.0180762 1.65232 -1.11544e-17)
(0.0016012 1.64342 1.09855e-17)
(0.163197 1.98441 -4.42076e-17)
(0.0619957 1.84382 0)
(0.0823822 1.86677 0)
(0.00417211 1.76544 0)
(0.00747642 1.6988 0)
(-0.00412238 1.70282 6.52907e-20)
(-0.000152003 1.67241 0)
(0.00415119 1.71307 -2.80113e-17)
(-0.0052013 1.68152 -6.4441e-18)
(0.000412722 1.75004 0)
(-0.0121374 1.742 0)
(-0.00948354 1.69875 0)
(0.00599407 1.73519 0)
(0.00482327 1.70542 0)
(1.02308 0.00400213 0)
(0.996333 -0.00250712 0)
(1.00455 0.0156349 0)
(0.978506 0.0124569 0)
(0.948272 0.00505319 0)
(0.9708 0.00629507 0)
(0.970585 0.00497126 0)
(0.949707 -0.00787582 0)
(0.00214407 3.04746 1.46821e-19)
(0.0110561 3.0373 0)
(0.0153797 2.98538 0)
(0.00992408 2.92357 0)
(0.949754 3.77349 0)
(1.27439 2.80844 1.30627e-18)
(0.0270118 2.91853 0)
(-0.0150487 2.8103 0)
(-0.0020921 1.74678 0)
(-0.00378896 1.74735 0)
(-0.00391783 1.74629 0)
(-0.00547636 1.77779 -7.12169e-17)
(-0.00279308 1.75719 0)
(0.000584822 1.76697 0)
(0.00439145 1.6913 -6.31513e-17)
(-0.00497938 1.72246 -3.38119e-17)
(-0.00641784 1.72542 2.9567e-17)
(-0.00832171 1.68858 0)
(0.750021 0.136176 -2.52316e-17)
(0.734742 0.0699827 -2.976e-18)
(0.192201 1.41132 0)
(0.26229 1.35424 2.44937e-18)
(0.124172 1.43953 -1.91685e-17)
(0.111715 1.43862 -3.52748e-17)
(0.942145 0.00255886 0)
(0.977434 0.00139092 0)
(0.981482 0.0198134 0)
(0.951085 0.00922955 0)
(0.00620806 1.73801 0)
(0.00393048 1.73078 0)
(0.00414345 1.69978 0)
(0.390063 0.350434 -9.32302e-18)
(0.265452 0.34078 1.03037e-17)
(0.373556 0.240981 0)
(1.20727 0.0977113 -1.56445e-18)
(1.2073 0.0558153 0)
(1.11788 0.0532116 0)
(1.05449 0.00882409 0)
(0.770788 0.0945278 0)
(0.788267 0.0828791 6.93254e-17)
(0.762846 0.0440597 -3.43997e-17)
(-0.0233087 2.962 -4.27116e-17)
(-0.0241695 2.90766 -5.37045e-17)
(0.00218461 3.03155 2.97752e-19)
(0.0361237 3.0162 -4.249e-17)
(-0.0148148 2.99563 -5.5244e-19)
(-0.0170769 2.9759 2.19284e-21)
(-0.0211452 3.03131 3.73477e-18)
(0.00290687 2.99185 -1.2496e-17)
(0.062333 3.02248 -1.91986e-17)
(1.00511 0.00812717 0)
(1.0019 0.00901181 0)
(0.980362 0.00657785 0)
(0.975667 -0.0012313 0)
(0.979395 -0.00666714 0)
(0.952128 -0.0136471 0)
(0.975232 0.00731508 0)
(0.974323 -0.00269092 0)
(0.950037 -0.00165681 0)
(0.61205 1.24629 1.05639e-17)
(0.717141 1.34486 0)
(0.507376 0.750579 2.97386e-19)
(0.595649 0.932172 -1.09769e-17)
(0.597304 0.856807 -6.77098e-18)
(0.45184 0.596831 -2.66686e-17)
(0.489945 1.22859 -1.48049e-17)
(0.510566 1.20165 1.54682e-17)
(0.669378 0.255009 -2.12396e-17)
(0.630515 0.278521 -5.96717e-18)
(0.634233 0.225381 -9.47186e-19)
(1.30264 0.517319 -1.57732e-17)
(1.30535 0.300489 1.20372e-17)
(-0.00515604 1.67531 -3.56419e-17)
(-0.00922732 1.65401 0)
(1.06524 0.0296757 0)
(1.03182 0.0190357 0)
(1.02696 0.00576689 0)
(0.00857271 3.05163 0)
(0.00974181 2.96226 -4.92159e-17)
(0.0116142 2.97365 0)
(0.00656985 2.90343 -5.27939e-18)
(0.00614862 3.06008 1.03471e-17)
(0.00404483 3.0583 0)
(0.67882 1.60806 -5.44929e-18)
(1.12541 2.30162 -1.44038e-18)
(0.766052 1.74254 -2.20266e-17)
(-0.028488 2.92901 4.22989e-17)
(-0.0134731 2.90183 0)
(-0.0283958 2.84223 0)
(-0.0118019 1.70341 6.26966e-17)
(0.0131334 1.71488 5.01675e-18)
(0.0017601 1.67691 6.26112e-17)
(0.249424 1.36037 -2.10501e-17)
(0.321924 1.32501 -7.28915e-18)
(0.0346331 1.54805 -3.52475e-17)
(0.0739481 1.49401 -2.0416e-17)
(0.0476021 1.48405 -5.65895e-17)
(-0.024797 3.06988 1.42722e-16)
(-0.0157476 3.06801 6.6692e-17)
(0.0011861 2.99059 1.18681e-17)
(-0.00982774 2.98516 -1.10857e-17)
(-0.00137735 2.93706 4.28544e-17)
(0.0131242 3.06679 -5.42295e-17)
(-0.00792855 3.05512 -1.51149e-16)
(0.541819 1.14546 0)
(0.585224 1.04227 1.1532e-17)
(0.548778 0.936594 -2.28121e-17)
(0.421045 1.28971 2.0908e-17)
(0.442485 1.25812 3.57936e-17)
(1.28806 0.204069 -6.35765e-18)
(1.31323 0.344388 0)
(1.28796 0.174746 6.11811e-18)
(0.000599969 1.70341 6.94835e-20)
(-0.00274249 1.68915 0)
(0.0035003 1.66383 0)
(0.299411 1.33781 3.2034e-18)
(0.358839 1.32209 -2.53191e-17)
(0.390315 1.30641 -3.74876e-17)
(1.00138 -0.0342332 0)
(0.995901 -0.0154219 -5.14794e-20)
(0.00368867 1.76121 0)
(-0.00799231 1.78162 0)
(1.00015 -0.00368047 4.47225e-19)
(1.00887 -0.00329824 -8.47355e-18)
(-0.00599867 1.77088 -7.01876e-17)
(-0.0043786 1.77617 0)
(0.000919257 3.00635 1.1526e-17)
(0.353537 3.1268 0)
(1.12233 0.685003 -2.03858e-17)
(1.00321 0.00187389 7.89715e-17)
(1.0024 0.00656604 0)
(1.00811 -0.00757594 3.30732e-19)
(0.0241888 1.86148 0)
(0.0652166 1.64927 0)
(0.00718604 1.78538 0)
(0.0184134 1.74974 -7.37774e-17)
(0.00914353 1.73978 6.68288e-17)
(0.9863 0.0180778 7.74025e-17)
(1.02943 0.00512759 0)
(1.04977 0.033841 0)
(-0.000358137 1.7558 0)
(0.00247831 1.7625 0)
(-0.00850068 1.77339 0)
(0.202632 1.96009 -8.3784e-17)
(1.00285 -0.0276397 0)
(0.995874 -0.0297288 0)
(1.0015 0.000732475 -3.43481e-17)
(0.990805 -0.00659052 4.24994e-17)
(0.998932 -0.00356611 0)
(-0.000588596 1.73923 0)
(0.00705803 1.75324 0)
(0.00468416 1.74139 0)
(-0.00308118 1.7793 0)
(-0.0133224 1.76771 0)
(-0.00896062 1.7705 0)
(1.0132 0.00205101 0)
(1.0053 0.00736497 7.91317e-17)
(0.741605 1.47045 5.69793e-18)
(1.00542 -0.00609014 3.46799e-17)
(0.993397 0.00296316 -4.22792e-17)
(1.00347 0.00602645 0)
(0.999511 0.00935932 1.8593e-17)
(0.995616 0.00323093 6.40961e-17)
(0.990383 0.000672127 0)
(0.00208079 1.77064 0)
(-0.00395059 1.77033 -3.70731e-17)
(-0.00595947 1.7713 -3.088e-17)
(1.1385 0.251639 -7.85814e-17)
(1.08573 0.0765903 0)
(-0.19854 2.96434 4.31384e-17)
(-0.216241 3.18609 1.65106e-18)
(0.0329525 3.02697 2.12086e-17)
(0.00111256 3.00311 4.07074e-17)
(0.0895038 3.01331 0)
(-0.0221259 3.03504 7.1852e-18)
(-0.0533859 3.12956 5.88498e-18)
(-0.0552368 3.03205 2.67368e-17)
(-0.0477131 3.09464 0)
(0.651009 0.347492 0)
(0.545018 0.385526 0)
(1.02972 0.789239 1.50086e-17)
(1.05063 0.88616 5.16435e-17)
(1.15254 0.61226 0)
(1.15633 0.566304 0)
(1.00971 -0.00421702 4.1581e-17)
(1.01282 -0.00143041 -4.89936e-17)
(1.01191 0.0078535 0)
(1.01625 0.00874637 0)
(1.01344 0.00610781 0)
(1.01025 0.0137777 0)
(1.0219 -0.00709311 0)
(1.01442 0.016934 0)
(1.01336 0.018775 0)
(1.00983 0.0112445 0)
(0.027039 1.85548 0)
(0.00477182 1.85297 0)
(0.071784 1.88506 0)
(0.0443315 1.90554 0)
(0.0560501 1.63735 0)
(0.0402167 1.62361 3.71932e-17)
(0.0664165 1.66672 0)
(0.0373234 1.6631 2.64812e-17)
(0.0309365 1.71377 -5.94852e-17)
(0.000554874 1.78891 0)
(0.00366267 1.78321 0)
(0.0144402 1.79234 0)
(0.00541648 1.81386 0)
(0.0156964 1.76573 -6.65154e-17)
(-0.0143818 1.74318 -4.83851e-17)
(0.0164973 1.75248 3.07557e-17)
(0.00225439 1.75797 0)
(0.0334754 1.7509 3.50317e-17)
(0.0170118 1.75651 -6.30237e-17)
(-0.0153222 1.77602 -1.09409e-16)
(-0.0110945 1.73345 -3.9589e-17)
(0.0090475 1.74308 4.11179e-17)
(0.990133 0.0250125 -3.36397e-17)
(0.994671 0.0118597 4.41915e-17)
(0.985641 0.0181718 3.74468e-17)
(0.970823 0.0128469 -4.22058e-17)
(1.03169 0.00351444 0)
(1.03559 -0.00861275 0)
(1.04422 0.0295186 0)
(1.03606 0.0151107 0)
(1.0517 0.0176195 0)
(1.06872 0.0689988 0)
(1.06192 0.0519112 0)
(1.0755 0.0408288 0)
(-0.00710679 1.77825 9.35478e-18)
(-0.00163386 1.7511 0)
(-0.0193021 1.7586 0)
(0.00521893 1.76448 -1.4962e-17)
(0.00828123 1.7694 6.7868e-20)
(0.00817236 1.75222 3.9737e-17)
(-0.00821158 1.7422 4.26763e-17)
(0.0028178 1.75889 0)
(-0.0218207 1.75966 0)
(-0.00207779 1.75262 0)
(0.00108797 1.77396 0)
(-0.00346656 1.7801 0)
(0.342356 1.96481 -3.92682e-17)
(0.35234 1.9624 4.31447e-17)
(0.263127 1.47316 1.73677e-18)
(0.109463 1.5365 2.19401e-17)
(0.23718 1.62786 3.15247e-17)
(1.00146 -0.00186774 0)
(0.991426 -0.0216311 0)
(0.991924 -0.0175198 0)
(1.02727 -0.00302492 0)
(1.0042 -0.0131579 0)
(0.993487 -0.0153785 0)
(0.990616 -0.00941412 0)
(0.99715 0.0123185 0)
(1.00201 0.00887001 -3.53814e-17)
(1.00958 0.00801899 4.74571e-17)
(1.00411 0.00314361 3.93086e-17)
(1.00462 -0.00218708 -4.59639e-17)
(0.675948 1.62315 0)
(0.624165 1.70702 -6.18708e-17)
(0.823324 1.36825 7.3895e-17)
(0.891769 1.27791 5.17907e-17)
(0.809549 1.99433 -4.65364e-17)
(0.831622 0.116813 -2.89885e-17)
(1.10094 0.121698 0)
(1.11853 0.18774 -6.88129e-17)
(1.14818 0.137564 9.39502e-19)
(0.95049 0.121692 0)
(-0.0185504 2.68459 3.56346e-17)
(-0.315225 2.59615 8.63103e-17)
(-0.749718 2.65867 -5.88294e-18)
(-0.595959 0.268278 -5.44816e-18)
(0.241174 3.10408 -2.04066e-17)
(0.109263 3.0445 0)
(0.192649 3.07955 7.96072e-19)
(0.0864792 2.75225 1.0267e-16)
(0.297959 2.8255 0)
(-0.0138355 3.05954 -1.24158e-18)
(-0.0293358 3.06355 -1.16739e-17)
(0.000570589 3.10227 -4.25214e-17)
(-0.018132 3.11197 0)
(-0.0434121 3.05536 0)
(0.960872 2.16318 0)
(0.5304 0.897886 5.36515e-17)
(0.989425 1.07918 -3.85375e-17)
(0.951384 1.1881 0)
(0.755197 1.08939 -8.56644e-18)
(1.0166 0.988772 -5.75351e-17)
(0.213485 0.46763 1.15852e-17)
(0.657557 0.344658 1.1242e-17)
(0.687933 0.312963 5.39216e-18)
(0.484989 0.457812 -3.70224e-19)
(0.460413 0.406312 1.9102e-17)
(0.615385 0.388462 0)
(0.617819 0.46681 -4.43294e-19)
(0.631222 0.419964 0)
(0.552617 0.406465 0)
(0.597283 0.371246 0)
(0.72156 0.643072 2.25829e-17)
(1.17242 0.330536 5.46682e-17)
(1.15727 0.468493 0)
(1.18388 0.397122 0)
(0.764004 0.235217 8.49186e-18)
(0.74426 0.59181 4.01228e-17)
(0.65003 0.530244 -1.70304e-18)
(0.868782 0.436902 -6.01432e-17)
(1.00891 0.000486674 1.17401e-17)
(1.01218 0.000196992 6.34284e-17)
(1.01108 0.00119489 0)
(1.01125 0.00959234 0)
(1.01174 0.000283295 -1.17647e-17)
(1.01151 -0.00376841 -6.02054e-17)
(1.00375 -0.008305 0)
(0.99176 0.000703494 0)
(1.01284 0.00236863 0)
(1.0123 -0.00611738 0)
(1.01131 0.00771112 0)
(1.0107 0.00589561 0)
(0.0160336 1.84565 0)
(0.017684 1.83995 0)
(0.0874552 1.86043 -4.20584e-17)
(0.178804 1.96034 -3.30649e-17)
(0.0946727 1.94827 8.0689e-17)
(0.0970908 1.97245 1.91558e-17)
(0.130057 1.87074 0)
(0.127762 1.73406 7.41802e-17)
(0.0917931 1.74706 0)
(0.203168 1.63701 3.90398e-17)
(0.172384 1.57204 -5.01324e-17)
(0.144621 1.77303 5.96458e-17)
(0.20121 1.86022 -3.43279e-17)
(0.149171 1.86554 -4.15775e-17)
(0.208258 1.82129 -6.31365e-20)
(0.164177 1.73962 0)
(0.202857 1.7286 -5.55745e-17)
(0.0489763 1.74062 7.52521e-18)
(0.0255173 1.69249 0)
(0.0308859 1.68953 -7.38275e-17)
(0.0389287 1.70016 0)
(0.0328947 1.66709 3.60538e-17)
(0.0114648 1.67623 0)
(0.0198488 1.75157 5.45306e-17)
(0.0324936 1.76022 0)
(0.0245688 1.76621 0)
(0.0141607 1.77109 4.47982e-17)
(-0.00140354 1.74025 -1.0959e-16)
(0.0349022 1.73077 -7.15504e-17)
(0.00709158 1.74779 -5.39503e-20)
(-0.00887613 1.75163 6.93626e-17)
(-0.0234188 1.77186 -3.79887e-17)
(-0.00286318 1.78086 0)
(-0.014944 1.78247 0)
(0.0235022 1.75636 2.22264e-17)
(0.0231994 1.77427 1.82072e-17)
(0.031295 1.75684 6.3643e-17)
(0.0307816 1.75141 0)
(0.0167607 1.74952 9.94234e-17)
(0.00349823 1.74557 1.39822e-17)
(0.00619747 1.74839 -1.74687e-17)
(-0.000244691 1.76095 7.49669e-17)
(0.020509 1.72652 -2.72421e-18)
(0.0147948 1.73637 -4.57195e-17)
(1.00168 0.00187099 6.17133e-17)
(0.996401 0.00755652 1.27829e-17)
(1.0001 0.00254023 0)
(0.976139 0.0697325 -8.63228e-17)
(0.961097 0.0357071 3.71299e-17)
(0.934603 0.0250423 -3.20036e-17)
(0.974454 0.0875337 4.38798e-18)
(1.02538 0.0141812 0)
(1.02898 0.00386957 -6.04303e-17)
(1.03138 0.00576309 -1.30242e-17)
(1.01217 0.0392083 4.05109e-18)
(1.01825 0.0258652 -1.74473e-17)
(0.990847 0.034166 0)
(0.979511 0.0317489 2.99239e-18)
(1.00256 0.0288925 0)
(0.992569 0.0313573 0)
(1.00552 0.0121919 0)
(1.00249 0.00248367 0)
(0.99554 0.0196738 -1.94125e-18)
(0.995005 0.0221681 4.07204e-17)
(0.987434 0.0253534 7.09088e-19)
(0.972343 0.019705 1.63043e-17)
(0.992367 0.0688471 1.2405e-17)
(1.04173 0.0591958 0)
(1.03707 0.0988052 0)
(0.0230768 1.76053 -4.78821e-17)
(0.0182137 1.73821 -6.37187e-19)
(0.0108112 1.74304 0)
(0.011526 1.77075 -5.20264e-17)
(0.000136674 1.78042 8.10559e-18)
(0.00472686 1.76987 -3.4071e-18)
(0.00809522 1.7544 -7.48187e-17)
(0.00731796 1.74393 1.32448e-20)
(0.00771882 1.74585 -5.51069e-18)
(0.00491235 1.75531 3.32456e-17)
(0.0021178 1.75657 2.95409e-17)
(0.011351 1.74131 -2.15721e-17)
(0.0167452 1.74421 -3.79963e-17)
(0.307226 1.83434 1.86926e-17)
(0.265431 1.7989 -1.57545e-17)
(0.589002 1.81692 -8.4285e-17)
(0.469409 1.94121 3.28431e-17)
(0.504261 1.87893 0)
(0.282045 1.46454 -5.44142e-18)
(0.296623 1.44812 -2.80697e-18)
(0.172034 1.51533 -6.90062e-18)
(0.167145 1.53127 -2.20072e-17)
(0.243901 1.52434 -3.35095e-17)
(0.248164 1.49624 0)
(0.18129 1.51265 -7.80088e-18)
(0.0711702 1.59776 -9.6308e-18)
(0.0881569 1.55411 5.78884e-17)
(0.0290486 1.56342 1.91282e-17)
(0.676386 1.38678 -4.3662e-17)
(0.478177 1.41339 0)
(1.02711 -0.00134686 -7.95077e-19)
(1.0134 0.0181913 7.57439e-19)
(1.01701 0.0192636 1.7261e-18)
(1.01885 0.0100188 -2.37722e-17)
(1.02034 0.00304601 0)
(0.489356 1.52199 0)
(0.399847 1.4267 0)
(0.616621 1.21289 0)
(0.454897 1.26998 0)
(0.787107 1.96949 2.71628e-17)
(0.825029 1.76816 0)
(0.497416 1.95853 -1.1381e-18)
(0.461535 1.62227 0)
(0.515868 1.67469 7.81767e-17)
(0.552919 1.73837 5.67599e-17)
(0.831559 0.153923 0)
(0.815682 0.167563 -3.41842e-18)
(0.904112 0.115851 -7.48929e-18)
(0.83897 0.107765 -2.11644e-17)
(0.839157 0.0785452 1.71112e-17)
(0.995176 0.238855 -3.63966e-18)
(0.89216 0.306014 2.6747e-17)
(0.811529 0.288607 9.53067e-18)
(0.923681 0.241896 -1.48243e-18)
(0.905924 0.15894 5.90991e-17)
(0.8867 0.166985 -1.28466e-17)
(0.864959 0.241874 7.42275e-18)
(0.874434 0.214355 0)
(0.938774 0.189321 9.47019e-18)
(0.961347 0.173623 0)
(0.954116 0.25342 0)
(1.05943 0.129013 -1.84357e-17)
(0.983139 0.16654 2.94385e-17)
(0.987036 0.198571 2.35528e-17)
(1.04464 0.217651 0)
(1.00121 0.0351819 -4.74729e-17)
(1.00337 0.038901 1.18855e-17)
(1.0073 0.0465764 -1.14986e-17)
(1.01853 0.0595985 5.12795e-17)
(0.983902 0.0676804 -3.56935e-17)
(0.92851 0.0982969 0)
(0.93278 0.0639011 0)
(0.925241 0.0652006 5.06438e-17)
(0.907603 0.0665776 4.68713e-18)
(1.00188 0.108675 -5.10914e-17)
(0.993599 0.132851 -5.8305e-18)
(0.998463 0.13666 -2.49e-17)
(0.979525 0.147259 0)
(1.00314 0.10178 0)
(1.00674 0.0996312 4.11079e-17)
(1.00265 0.102055 -1.23147e-17)
(0.236118 1.74175 1.99225e-17)
(0.336463 2.22949 -1.41335e-17)
(0.673688 2.38149 2.61564e-17)
(0.819895 2.6752 -4.31351e-18)
(0.854398 2.20146 -4.243e-18)
(0.931557 2.28402 -2.52175e-18)
(0.916932 1.83041 7.70686e-18)
(0.816172 2.51998 -5.6426e-18)
(0.823828 2.47646 -2.68548e-17)
(0.920716 2.77232 -5.44149e-18)
(1.0699 2.59276 6.58624e-18)
(1.15639 2.49159 0)
(0.510576 0.928803 -2.34245e-18)
(0.0159961 1.30518 -1.9046e-17)
(0.0580577 0.670885 -1.37613e-17)
(0.0134114 0.816047 -2.48271e-17)
(0.382941 0.461492 -1.672e-17)
(0.410538 0.496242 1.70003e-17)
(0.352362 0.61828 -1.76792e-17)
(0.243561 0.495199 6.64089e-18)
(0.356895 0.426108 -1.63217e-17)
(0.74495 0.272246 2.78339e-17)
(0.70811 0.303842 0)
(0.731118 0.282312 5.76185e-18)
(0.629071 0.542415 -1.60309e-17)
(0.55092 0.510788 3.0725e-17)
(0.445199 0.578324 -5.50466e-18)
(0.528598 0.48922 0)
(0.587233 0.813887 -2.92911e-17)
(0.717869 0.874177 3.6006e-17)
(0.650353 0.954067 5.7665e-17)
(0.752882 0.856527 1.62075e-17)
(0.864744 0.932243 -2.60567e-18)
(0.847763 0.959615 -6.78985e-18)
(0.774147 0.688938 1.73319e-17)
(0.832338 0.723366 5.88066e-18)
(0.922059 0.810198 0)
(0.921611 0.705399 2.9371e-17)
(0.94865 0.331333 4.30289e-17)
(1.07584 0.330304 -2.76248e-17)
(0.988529 0.289429 -5.49962e-17)
(0.911842 0.400955 5.33534e-17)
(0.971371 0.444434 0)
(1.00178 0.420712 0)
(0.798041 0.385239 4.71693e-17)
(0.772554 0.310407 0)
(0.788124 0.302774 -1.98916e-17)
(0.813887 0.318725 6.41959e-17)
(0.820232 0.493976 -1.1759e-16)
(0.769845 0.54794 -9.96436e-18)
(0.796565 0.50771 1.66182e-17)
(0.723381 0.44816 -1.10456e-17)
(0.699638 0.466521 -1.09164e-17)
(0.651558 0.454251 4.32738e-18)
(1.01189 0.0191973 -5.84225e-17)
(1.00594 -0.00892726 0)
(1.0094 0.0162492 7.45737e-19)
(1.01054 0.0238559 7.56008e-18)
(1.00729 0.00477808 -3.26144e-17)
(1.00396 0.0254725 2.40753e-17)
(0.996338 0.00930687 0)
(0.99907 -0.00926979 1.66226e-17)
(1.00622 0.00534157 -1.17551e-17)
(1.00742 0.00218455 2.4945e-18)
(1.00134 0.00108182 4.12577e-18)
(-0.00262718 1.81339 0)
(0.0119497 1.78951 0)
(0.0228936 1.82876 0)
(0.00441866 1.82266 0)
(0.0483926 1.79307 -1.49637e-17)
(0.0455284 1.82071 -9.83971e-17)
(0.0591991 1.76751 -2.80491e-17)
(0.0652683 1.81922 -8.36493e-17)
(0.019413 1.7706 5.96266e-17)
(0.0311664 1.78757 5.31705e-17)
(0.0379946 1.79113 1.12935e-16)
(0.0247444 1.79792 5.95071e-17)
(0.0188602 1.79343 1.0287e-17)
(0.0120424 1.80139 2.10057e-18)
(0.0417032 1.68293 -5.95709e-17)
(0.0581563 1.68825 0)
(0.0502839 1.70543 -4.08001e-17)
(0.0615177 1.75636 -7.22807e-18)
(0.143843 1.68289 -1.48659e-17)
(0.098347 1.60481 0)
(0.096014 1.59427 5.95384e-17)
(0.121044 1.59157 4.01302e-17)
(0.117216 1.68985 -5.31269e-17)
(0.0889567 1.70314 -8.03156e-17)
(0.064174 1.62545 0)
(0.0235948 1.75463 3.63955e-17)
(0.0132444 1.72846 -1.39527e-17)
(0.0159807 1.74659 0)
(0.0407024 1.73956 1.9802e-17)
(0.0392493 1.74212 1.34654e-17)
(0.00648393 1.77643 8.42466e-18)
(-0.000369456 1.77328 -8.62064e-17)
(-0.00969923 1.77465 -6.43949e-17)
(-0.0203948 1.76957 4.10471e-17)
(-0.00466054 1.75109 0)
(0.0120248 1.78279 0)
(0.00609156 1.77638 -3.88911e-17)
(-0.00135275 1.77138 -2.77139e-18)
(0.0044185 1.7766 0)
(-0.00215309 1.77922 2.94854e-17)
(0.00653497 1.77453 4.16494e-18)
(0.996903 0.0276989 0)
(1.00649 0.0378307 1.71636e-18)
(1.00108 0.0151409 5.21229e-17)
(1.02206 0.0144349 0)
(1.01963 0.0258487 0)
(0.991314 -0.00166983 2.01386e-17)
(0.995364 0.00855303 -6.81485e-17)
(0.99659 0.00729012 -3.67152e-17)
(1.00102 0.00689194 0)
(1.00569 0.0121553 0)
(0.997736 0.0175058 1.73084e-17)
(0.992434 0.0181468 0)
(0.996799 0.0164321 0)
(0.00814738 1.74111 0)
(0.0203475 1.76076 -3.89421e-17)
(0.023577 1.7489 3.93877e-17)
(0.0071311 1.77054 0)
(0.0122877 1.76687 -3.78718e-17)
(0.00185972 1.75817 -1.72207e-17)
(-0.00625961 1.77025 0)
(0.358305 1.69582 0)
(0.262216 1.78537 3.53256e-17)
(0.235291 1.70002 0)
(0.322194 1.76828 6.09901e-17)
(0.390655 1.80128 0)
(0.367184 1.82993 3.92123e-17)
(0.688014 1.58175 -2.4018e-20)
(0.687816 1.37174 -1.25592e-17)
(0.744769 1.38211 -3.49e-17)
(0.509988 1.40233 -1.03626e-17)
(0.483556 1.49339 0)
(0.544368 1.52312 0)
(0.625243 1.38826 0)
(0.578527 1.38603 6.48562e-18)
(0.352529 1.6156 -2.91389e-17)
(0.428133 1.49738 5.30496e-18)
(0.421806 1.6108 1.03006e-18)
(0.353762 1.43425 0)
(0.427299 1.42726 0)
(0.387042 1.42956 3.39164e-18)
(0.407197 1.49271 0)
(0.445133 1.17557 0)
(0.334847 1.01169 -4.78754e-17)
(0.526539 0.889472 -4.90291e-18)
(0.2043 1.34678 0)
(0.315719 1.40726 -8.51233e-17)
(0.668224 0.951755 -5.73728e-18)
(0.676223 1.15074 0)
(0.727113 1.0743 -3.4259e-17)
(0.646226 0.975856 0)
(0.63295 0.972162 0)
(0.707838 2.07983 2.00475e-17)
(0.662805 2.2918 -4.1961e-18)
(0.473708 2.1933 -4.6242e-17)
(0.484065 2.05861 -2.1293e-19)
(0.74599 1.88111 0)
(0.722688 1.8269 -7.91467e-18)
(0.782134 1.72351 7.08663e-19)
(0.825061 1.56653 -7.20161e-18)
(0.40883 1.85482 0)
(0.263313 1.70433 3.35257e-17)
(0.320344 1.68544 0)
(0.849214 0.208545 0)
(0.806149 0.192016 0)
(0.786163 0.191225 0)
(0.834976 0.251673 2.85928e-18)
(0.773315 0.226531 -8.11968e-19)
(0.905902 0.0979864 1.95978e-17)
(0.907019 0.112185 0)
(0.894926 0.0872111 -3.65556e-18)
(0.85327 0.080006 -1.61704e-17)
(0.865183 0.0706352 2.62355e-18)
(0.994399 2.93236 -2.1273e-17)
(0.896268 2.86569 0)
(0.909391 2.94945 -6.16022e-17)
(0.593854 3.1813 -1.799e-17)
(0.687907 2.74171 1.8649e-17)
(0.539473 1.06428 -3.33061e-17)
(0.482663 1.14947 0)
(0.499291 0.783829 8.22189e-18)
(0.458799 0.813039 2.66351e-17)
(0.296413 0.873594 1.20831e-17)
(0.359511 0.63035 1.9431e-18)
(0.509426 0.617967 -1.5065e-17)
(0.561644 0.631822 0)
(0.542612 0.750692 0)
(0.424699 0.723449 0)
(0.950337 0.662142 5.71766e-18)
(0.818514 0.567693 1.66769e-17)
(0.797744 0.611235 -1.15689e-17)
(0.850324 0.534125 2.70718e-17)
(0.957079 0.524778 0)
(0.983103 0.579917 -7.3378e-18)
(0.749044 0.421916 2.26995e-17)
(0.769641 0.382788 4.06331e-17)
(0.691617 0.39861 -1.37894e-17)
(0.694371 0.383703 1.16089e-17)
(0.7454 0.360042 -5.7019e-19)
(0.713219 0.34615 -2.51859e-17)
(1.01327 -0.00663795 -2.49873e-17)
(1.01402 -0.0102922 -5.55404e-17)
(1.01121 0.0163406 2.06627e-17)
(1.00603 0.0251062 6.42263e-17)
(0.991619 0.0307069 0)
(0.988222 0.00233428 1.34455e-17)
(0.0596166 1.76793 2.35785e-17)
(0.0595153 1.76827 0)
(0.0595709 1.75881 -5.26017e-17)
(0.0600933 1.75676 -4.52406e-17)
(0.050385 1.78132 -3.85107e-17)
(0.0528995 1.77585 0)
(0.0235191 1.76123 0)
(0.00938521 1.7634 -1.73865e-17)
(0.00463287 1.76754 -1.91531e-17)
(-0.00125724 1.7729 -4.61966e-17)
(-0.00827919 1.74211 -8.31947e-18)
(0.0202987 1.74841 -4.57603e-18)
(0.406788 1.77099 -9.10292e-17)
(0.386693 1.74042 -1.34017e-16)
(0.358069 1.75556 7.97467e-17)
(0.363817 1.74925 -5.21309e-18)
(0.457902 1.62495 0)
(0.434595 1.7803 7.95614e-17)
(0.456571 1.70361 5.48453e-17)
(0.372602 1.7393 5.45126e-17)
(0.385628 1.74503 0)
(0.376397 1.68434 0)
(0.338908 1.57854 -5.45489e-17)
(0.327987 1.48248 -7.529e-17)
(0.356695 1.49971 -4.23021e-17)
(0.300342 1.49275 -5.60834e-19)
(0.282489 1.57573 -1.35607e-18)
(0.237712 1.5132 -1.01174e-17)
(0.749121 1.40675 -1.72198e-18)
(0.807324 1.49921 0)
(0.799518 1.42732 1.33138e-17)
(0.733845 1.69866 0)
(0.724253 1.64422 0)
(0.676065 2.28508 5.7349e-18)
(0.795761 2.76095 5.06721e-18)
(0.718318 2.72675 -9.25838e-18)
(0.407049 1.24952 0)
(0.492535 1.24944 -9.8946e-18)
(0.600639 1.17701 -2.72087e-17)
(0.620917 2.09936 0)
(0.577493 2.49098 1.17061e-18)
(0.343628 2.38561 0)
(0.627628 0.748462 1.73884e-19)
(0.66025 0.788847 -6.42532e-17)
(0.665972 0.769444 -2.13714e-18)
(0.564255 0.733938 -3.80591e-20)
(0.596936 0.679922 8.28441e-18)
(0.706592 2.59268 -1.56542e-17)
(0.714347 2.58363 2.83087e-18)
(0.723985 2.3158 -4.64167e-18)
(0.603976 2.18237 3.61446e-17)
(0.446514 2.19983 4.86804e-17)
(0.612396 2.42102 -2.64034e-17)
(0.535613 2.39785 -2.81456e-17)
(0.567215 2.14326 -8.4016e-20)
(0.458867 2.16858 2.54154e-17)
)
;

boundaryField
{
    wall-4
    {
        type            calculated;
        value           uniform (0 0 0);
    }
    velocity-inlet-5
    {
        type            calculated;
        value           uniform (1 0 0);
    }
    velocity-inlet-6
    {
        type            calculated;
        value           uniform (0 3 0);
    }
    pressure-outlet-7
    {
        type            calculated;
        value           nonuniform List<vector> 8((0.00398926 1.73428 0) (-0.018234 1.69282 5.35165e-17) (0.00962685 1.7661 0) (-0.00917891 1.78598 0) (0.000886377 1.75027 0) (0.00285066 1.7553 0) (-0.00386692 1.746 0) (0.00060971 1.76685 0));
    }
    wall-8
    {
        type            calculated;
        value           uniform (0 0 0);
    }
    frontAndBackPlanes
    {
        type            empty;
    }
}

