/*--------------------------------*- C++ -*----------------------------------*\
  =========                 |
  \\      /  F ield         | OpenFOAM: The Open Source CFD Toolbox
   \\    /   O peration     | Website:  https://openfoam.org
    \\  /    A nd           | Version:  6
     \\/     M anipulation  |
\*---------------------------------------------------------------------------*/
FoamFile
{
    version     2.0;
    format      ascii;
    class       volVectorField;
    location    "0";
    object      U;
}
// * * * * * * * * * * * * * * * * * * * * * * * * * * * * * * * * * * * * * //

dimensions      [0 1 -1 0 0 0 0];

internalField   nonuniform List<vector> 
918
(
(0.977297 -0.0203075 0)
(-0.00459864 2.96757 0)
(-0.0596141 1.72802 0)
(0.942217 0.0460892 0)
(-0.0434675 1.69156 -1.51029e-21)
(0.00136553 2.95089 -1.21632e-18)
(1.18787 1.52391 4.56315e-19)
(0.569835 0.30991 -5.70149e-21)
(0.992001 -0.00999444 0)
(0.00201067 1.73683 0)
(0.0181663 1.68798 0)
(0.913882 0.0319428 0)
(0.0119684 2.93123 0)
(-0.0266639 2.90574 0)
(-0.0332567 3.10097 7.94762e-19)
(0.00899708 1.67069 -1.67382e-20)
(0.714663 0.144374 4.68592e-19)
(0.27922 1.97004 4.57337e-19)
(0.990938 0.0725081 0)
(0.0210746 1.69496 0)
(0.430604 0.395798 -2.88584e-19)
(0.939148 0.00551859 0)
(0.944232 -0.00280337 0)
(0.96831 0.0420345 0)
(0.84216 0.050243 0)
(0.0619601 2.62166 0)
(-0.026025 2.92096 3.77154e-19)
(-0.00793712 1.73348 0)
(-0.00642886 1.75415 0)
(-0.00149662 1.75555 0)
(-0.00598154 1.79094 0)
(-0.0210589 1.71414 1.18425e-21)
(-0.00656884 1.67394 0)
(-0.0193019 2.99069 -4.20466e-23)
(-0.0135222 3.00777 9.57732e-19)
(0.00151767 2.99947 0)
(0.967801 0.00662473 0)
(0.486724 0.599291 -1.44577e-20)
(1.11187 1.57788 -4.73227e-19)
(1.25471 1.27836 4.94882e-19)
(0.940895 1.78252 -1.02181e-19)
(1.05505 1.74494 6.27421e-19)
(0.606066 0.331044 5.56058e-21)
(0.573864 0.296768 0)
(1.32323 0.670298 0)
(0.597004 0.350536 2.2574e-20)
(0.534275 0.342933 -2.34289e-20)
(0.957471 0.00934298 0)
(0.98791 -0.00167986 0)
(0.996066 0.00605528 0)
(0.934709 -0.0371496 0)
(0.983167 0.00336621 0)
(0.999347 0.00732767 0)
(-0.00515099 1.62288 -3.13367e-19)
(-0.00711879 1.78123 0)
(0.0414749 1.77297 0)
(0.0107297 1.77692 0)
(0.0294621 1.69494 0)
(0.00170375 1.68994 0)
(0.00743683 1.73521 0)
(0.015498 1.68492 0)
(0.0136313 1.72994 0)
(0.0178643 1.69261 0)
(0.966205 -0.0307005 0)
(0.960673 0.0161542 0)
(0.923474 0.000856701 0)
(0.933833 0.0160148 0)
(0.918198 -0.00296811 0)
(0.0139568 3.00368 4.36799e-19)
(0.0127341 3.00583 0)
(0.00720471 3.00328 0)
(0.0116462 2.99758 4.83108e-24)
(0.00657343 2.96181 -6.57261e-19)
(0.01625 2.98283 0)
(0.0204871 2.89962 0)
(-0.0181459 2.98714 7.49867e-25)
(-0.0400407 2.9075 0)
(0.0171213 2.9911 0)
(0.00407141 2.84058 0)
(0.15636 3.32814 0)
(-0.11297 3.38337 0)
(0.0721762 3.17061 -7.34355e-19)
(-0.0154958 2.97936 0)
(-0.00582311 1.74737 0)
(0.010199 1.7196 1.65085e-20)
(0.0185883 1.67968 -1.15496e-20)
(0.740013 0.182966 -1.63647e-19)
(0.71776 0.131434 -1.65051e-19)
(0.729464 0.221878 -4.87908e-19)
(0.667384 0.199897 -3.18239e-19)
(0.185511 1.32905 0)
(0.382107 2.05284 -4.67407e-19)
(0.501781 2.04225 7.90526e-19)
(0.971441 0.0526838 0)
(0.940339 0.0217806 0)
(0.996763 -0.0113386 0)
(0.971046 0.00741553 0)
(1.03978 0.0733341 -1.16919e-18)
(1.00655 0.0340225 8.93184e-19)
(0.0053934 1.74454 0)
(-0.00365209 1.70973 0)
(-0.00636065 1.74675 0)
(0.0265342 1.73208 0)
(0.0261352 1.6903 0)
(0.398261 0.446943 8.1876e-20)
(0.51438 0.374549 0)
(1.02949 0.0103326 0)
(0.994493 0.00621589 0)
(0.935683 -0.00366944 0)
(0.912498 0.0229343 0)
(0.913991 0.00577454 0)
(1.11072 -0.0157612 0)
(0.844617 0.0784064 0)
(0.783215 0.0484025 6.92484e-19)
(-0.015061 2.80967 1.49837e-19)
(0.0552415 2.96715 0)
(0.0420401 2.91112 0)
(0.0316581 2.75213 0)
(-0.0509885 2.98239 3.74552e-19)
(-0.0569454 2.887 0)
(-0.00904454 3.00791 -1.12114e-18)
(0.000473379 2.94364 3.85584e-19)
(0.0137842 1.76582 0)
(0.00967391 1.75942 0)
(-0.0184092 1.72154 -4.97567e-23)
(-0.00211511 1.71438 0)
(-0.0110093 1.66226 0)
(0.99608 0.0106492 0)
(0.974863 -0.000391847 0)
(0.939154 -0.0188383 0)
(0.991206 0.016609 0)
(0.964322 0.012348 0)
(0.602108 0.87509 8.76562e-21)
(0.387326 0.771669 0)
(0.708704 0.901112 6.12103e-21)
(0.605776 0.701376 0)
(1.13658 1.36926 -1.34684e-19)
(1.2961 1.02556 2.57515e-19)
(0.579453 2.06252 0)
(0.773481 1.95474 0)
(0.820005 1.95116 0)
(0.583526 1.17223 -2.26109e-19)
(0.641524 0.31759 0)
(0.630674 0.24188 8.33624e-20)
(1.19453 1.11344 0)
(1.23632 0.908011 0)
(1.29395 0.831812 -1.95972e-19)
(1.24883 0.659488 0)
(1.31027 0.449337 2.3036e-20)
(0.980243 -0.00236635 0)
(0.999012 -0.00348509 0)
(0.952737 -0.0321181 0)
(0.984938 0.0112318 0)
(0.981647 0.00692414 0)
(0.956428 0.00557815 0)
(0.971339 -0.00827571 0)
(0.983705 0.00391273 0)
(0.995148 0.00517124 0)
(0.0179895 1.66586 1.64539e-19)
(0.063223 1.59368 0)
(-0.029337 1.64944 2.98968e-19)
(-0.022702 1.59051 -2.6383e-19)
(0.18511 1.93803 -3.81089e-19)
(0.0467821 1.83422 0)
(0.111477 1.84283 0)
(0.00538865 1.75172 0)
(-0.0231661 1.70772 0)
(0.00916609 1.71001 -6.77852e-22)
(0.00516149 1.65876 0)
(-0.0170084 1.72043 -3.63913e-20)
(-0.00983829 1.68477 6.92335e-20)
(-0.0235903 1.75604 0)
(0.0140517 1.7435 0)
(-0.0094389 1.71068 0)
(0.00644675 1.73319 0)
(0.0106915 1.68545 0)
(1.01103 0.00434289 0)
(0.993351 0.0288422 0)
(1.02729 0.00948414 0)
(0.97286 0.0289931 0)
(0.94918 -0.00594996 0)
(0.978405 -0.00377139 0)
(0.963641 0.015095 0)
(0.950916 -0.00705351 0)
(0.00843068 3.06547 -3.24501e-21)
(0.0141956 3.05552 0)
(0.0175817 2.96434 0)
(0.0127853 2.87892 0)
(0.604096 3.53414 0)
(0.837664 2.83619 5.63043e-19)
(0.0674396 3.07605 0)
(-0.00142471 2.8722 0)
(-0.00287238 1.73993 0)
(0.00992313 1.73977 0)
(0.00369858 1.74125 0)
(-0.00137179 1.79015 4.28414e-23)
(-0.00227938 1.74703 0)
(-0.00588847 1.7726 0)
(-0.0390528 1.65607 -4.82827e-21)
(-0.0139237 1.72043 3.19754e-20)
(0.0204058 1.73773 1.16613e-20)
(0.038584 1.6822 0)
(0.768114 0.136724 2.53508e-19)
(0.740111 0.0656559 -2.44692e-19)
(0.168609 1.41121 0)
(0.279397 1.33066 -1.40628e-19)
(0.142119 1.42253 -4.09809e-19)
(0.162917 1.39404 4.09439e-19)
(0.95908 -0.00696948 0)
(0.975855 -0.00531499 0)
(0.976219 -0.00296646 0)
(0.947944 0.00585596 0)
(0.00200331 1.7229 0)
(-0.00842102 1.74131 0)
(-0.0165629 1.70055 0)
(0.561121 0.369567 1.88925e-19)
(0.535246 0.390344 -2.0023e-19)
(0.519842 0.358913 0)
(1.2025 0.0867604 1.03055e-20)
(1.20662 0.0614429 0)
(1.13652 0.0455434 0)
(1.05266 0.0190675 0)
(0.789798 0.0977715 0)
(0.813829 0.0520743 -1.1195e-18)
(0.767594 0.0155201 4.27054e-19)
(0.00445635 2.96001 2.42595e-19)
(-0.0463339 2.81511 4.33814e-20)
(0.0220003 3.04313 -7.48548e-21)
(0.0168818 3.04306 2.83854e-19)
(-0.00751011 2.99682 1.3379e-20)
(-0.0103672 2.95502 -5.50152e-23)
(-0.0159343 3.01056 -2.56781e-19)
(0.0113628 3.01882 1.8932e-19)
(0.0100668 3.02637 -3.15851e-19)
(1.00712 0.0228362 0)
(1.00854 0.011383 0)
(0.969293 0.0233415 0)
(0.983802 -0.0218905 0)
(0.988958 -0.00465466 0)
(0.961688 -0.0182819 0)
(0.974298 0.00984332 0)
(0.984086 0.00463515 0)
(0.949178 0.0152201 0)
(0.544511 1.0594 1.7638e-19)
(0.385344 1.09135 0)
(0.637296 1.01395 6.25909e-20)
(0.667957 1.14126 4.46848e-19)
(0.694777 1.01117 -2.31621e-19)
(0.634253 0.874778 4.24264e-19)
(0.474797 1.31147 1.09343e-18)
(0.472825 1.19266 2.20198e-19)
(0.690404 0.248384 3.392e-19)
(0.676957 0.269538 8.2706e-20)
(0.658506 0.227185 1.62769e-19)
(1.26904 0.496481 8.314e-20)
(1.3097 0.330751 1.01809e-19)
(0.00429008 1.66254 1.21917e-19)
(0.0279084 1.6431 0)
(1.06929 0.0284799 0)
(1.05652 0.0168545 0)
(1.02183 -0.0147255 0)
(0.0121457 3.06267 0)
(-0.0300643 2.96013 4.83172e-19)
(-0.00175168 2.95511 0)
(-0.0324347 2.87436 -4.91343e-19)
(0.0344212 3.08153 1.06627e-19)
(0.0224879 3.07748 0)
(0.46239 1.28224 -1.17793e-19)
(0.850704 2.0556 3.45587e-19)
(0.386857 1.46273 -7.71862e-19)
(0.0429976 2.97038 -1.42097e-19)
(0.0623889 2.9954 0)
(0.00723639 2.82055 0)
(0.0132866 1.7273 -4.17259e-21)
(-0.0255718 1.7476 -5.14809e-20)
(0.0210967 1.71315 -4.45759e-21)
(0.262547 1.39203 4.42965e-19)
(0.343552 1.30371 -3.08043e-19)
(0.0472777 1.61105 2.80031e-19)
(0.0887056 1.51805 -3.38531e-19)
(0.0867804 1.49339 3.67883e-20)
(0.0455966 3.08183 -6.2484e-19)
(0.0454208 3.09263 6.75055e-19)
(-0.0372054 2.97324 3.1637e-19)
(-0.0409816 2.93925 -2.80223e-19)
(-0.0488406 2.8394 -3.22313e-19)
(0.0368402 3.07415 -7.78517e-19)
(0.0266321 3.08385 8.14443e-19)
(0.575763 1.2626 0)
(0.623898 1.22246 -1.05685e-18)
(0.620552 1.10929 4.75629e-19)
(0.427151 1.28898 6.07623e-19)
(0.470909 1.22099 -9.47706e-19)
(1.28522 0.159812 5.7318e-21)
(1.27711 0.278021 0)
(1.28723 0.122803 2.1709e-20)
(-0.0122955 1.70337 -9.43118e-22)
(0.0176066 1.69924 0)
(0.00471029 1.66537 0)
(0.315208 1.36262 -1.61093e-19)
(0.38676 1.34636 -3.85079e-19)
(0.393946 1.26722 6.99255e-19)
(1.01802 -0.0637663 0)
(1.00182 -0.0723325 2.32979e-19)
(-0.00153409 1.76857 0)
(-0.00609429 1.77444 0)
(0.969114 -0.0146003 2.34814e-21)
(0.988033 -0.022673 4.43006e-19)
(0.00497237 1.7802 -5.77862e-23)
(0.0133474 1.77513 0)
(0.071446 3.24944 -9.43264e-20)
(0.225701 3.40671 0)
(1.0633 0.691658 -2.46666e-20)
(1.01722 -0.0153587 1.10367e-21)
(1.02216 0.0150403 0)
(1.0033 -0.00908868 -4.64552e-21)
(0.063662 1.85531 0)
(0.0416123 1.68173 0)
(-0.00954248 1.79401 0)
(0.0278042 1.74965 5.13198e-20)
(0.0273616 1.74953 2.49783e-20)
(0.993388 -0.00788004 -1.63127e-21)
(1.05502 0.000189377 0)
(1.06612 0.0336305 0)
(0.00845875 1.74596 0)
(-0.0247078 1.78687 0)
(-0.00855187 1.79013 0)
(0.256538 1.96686 -1.82344e-19)
(0.988418 -0.0575911 0)
(0.976532 -0.0468247 0)
(1.01534 0.00548018 2.98534e-19)
(1.01969 -0.00160288 -3.46348e-19)
(0.992432 0.012954 0)
(-0.0168689 1.75252 0)
(0.000554851 1.76207 0)
(-0.00607141 1.74478 0)
(-0.00995212 1.78716 0)
(-1.59492e-05 1.77629 0)
(-0.0093234 1.77985 0)
(1.02529 0.00988232 0)
(1.02349 -0.015854 -2.19339e-21)
(0.75691 1.63686 2.38872e-19)
(1.03322 -0.0142233 -2.9865e-19)
(1.03275 0.0280399 3.67215e-19)
(0.993783 0.00732004 0)
(1.02095 -0.00685539 2.78695e-19)
(0.974919 -0.0196555 -3.59875e-19)
(0.980393 -0.00907084 0)
(-0.0162761 1.78768 0)
(0.00152973 1.77578 4.67239e-21)
(-0.000606361 1.78145 -2.08903e-21)
(1.20526 0.288386 2.03628e-19)
(1.11217 0.0678183 0)
(0.159534 3.09091 -2.65156e-19)
(0.0699668 2.86936 -2.60292e-20)
(0.153202 3.25768 9.42617e-20)
(0.143224 3.28655 9.44144e-20)
(0.15045 3.3094 0)
(0.0235164 3.16616 3.60355e-20)
(0.0985545 3.18129 2.61801e-19)
(0.0962747 3.23899 -8.42076e-20)
(0.100499 3.12323 0)
(0.703569 0.332675 0)
(0.627535 0.404532 0)
(1.02933 0.727047 5.5881e-20)
(1.12344 0.832216 -5.36329e-20)
(1.1295 0.594557 0)
(1.18167 0.533961 0)
(1.03368 -0.00299569 -5.43946e-19)
(1.02947 -0.00344122 6.79652e-19)
(1.04266 0.0184183 0)
(1.02606 0.00372986 0)
(0.99339 0.0163457 0)
(1.00756 -0.00657474 0)
(1.03568 -0.0216077 0)
(1.03287 -0.0124586 0)
(1.03752 0.017876 0)
(1.03977 0.0264014 0)
(0.0623734 1.8608 0)
(0.0342419 1.86701 0)
(0.0659616 1.8735 0)
(0.0580718 1.89768 0)
(0.0696635 1.65601 0)
(0.0891336 1.66788 -1.85899e-19)
(0.0194287 1.70757 0)
(0.0171648 1.69749 9.61575e-20)
(0.0185552 1.75473 -9.61344e-20)
(-0.0166014 1.78677 0)
(-0.0210548 1.78028 0)
(0.0178796 1.79685 0)
(0.0098384 1.80821 0)
(-0.00270418 1.74168 -3.067e-20)
(0.0243282 1.75171 2.82637e-20)
(0.0212759 1.7666 3.26493e-20)
(0.0241756 1.77151 0)
(0.0106682 1.77896 -5.08816e-20)
(-0.0136133 1.77585 -2.97789e-20)
(0.00423661 1.73208 2.36218e-20)
(0.0304215 1.75154 -3.64161e-20)
(0.0237998 1.76666 -3.83438e-20)
(0.999442 -0.00298115 5.23651e-19)
(1.0056 -0.00236357 -6.55448e-19)
(0.998178 -0.00485855 -5.35683e-19)
(0.967088 -0.00510054 6.77363e-19)
(1.03674 -0.00734202 0)
(1.04187 -0.0131801 0)
(1.02689 0.0203838 0)
(1.07464 0.0253148 0)
(1.07179 0.0258777 0)
(1.05134 0.0491431 0)
(1.08362 0.0334614 0)
(1.08402 0.0389001 0)
(-0.00105225 1.76254 -1.27343e-21)
(0.0167024 1.74795 0)
(0.0142626 1.74481 0)
(-0.0197875 1.78738 6.88294e-21)
(-0.023401 1.79896 -2.05547e-22)
(-0.00545578 1.72389 6.68764e-21)
(-0.0126878 1.75616 -6.75619e-21)
(0.0131565 1.77057 0)
(0.0101035 1.7593 0)
(-0.00537531 1.76231 0)
(-0.0021754 1.77739 0)
(-0.0160806 1.77185 0)
(0.405452 1.94499 2.86428e-19)
(0.40052 1.95169 1.34672e-19)
(0.273765 1.50983 -1.09685e-19)
(0.14808 1.51654 2.8514e-19)
(0.32408 1.62837 6.55674e-20)
(0.996414 -0.000293244 0)
(0.98445 -0.0238831 0)
(0.996262 0.00700747 0)
(1.03238 -0.0181289 0)
(1.01064 -0.0167878 0)
(0.984027 -0.0180223 0)
(0.964968 0.0664185 0)
(1.02973 0.0768343 0)
(1.00773 -0.00393892 5.29776e-19)
(1.01643 0.0174525 -6.726e-19)
(1.0207 -0.0204454 -5.19712e-19)
(1.01689 -0.00972175 6.63995e-19)
(0.755266 1.7053 0)
(0.659042 1.80315 1.76989e-19)
(0.832485 1.47212 5.41447e-20)
(0.850881 1.46708 -7.17854e-20)
(0.898297 1.76629 3.30095e-20)
(0.863851 0.118376 2.64222e-19)
(1.13614 0.100162 0)
(1.09178 0.154403 -1.76401e-19)
(1.14698 0.129292 -7.51936e-21)
(0.954708 0.164538 0)
(0.197365 3.20347 -4.71329e-19)
(0.226931 2.95354 -1.5316e-19)
(0.205574 2.2548 2.1774e-19)
(0.378866 0.294618 -4.39858e-21)
(0.155133 3.39903 -3.84967e-19)
(0.134276 3.35972 0)
(0.148317 3.33701 4.71816e-19)
(0.156347 3.26344 9.61085e-19)
(0.17979 3.30527 0)
(0.0403749 3.10787 1.61123e-20)
(0.0571582 3.12023 -1.94427e-19)
(0.0647405 3.11405 2.85805e-19)
(0.0678797 3.1476 0)
(0.0606399 3.17144 0)
(0.889574 1.98074 0)
(0.0802455 0.62316 -7.52031e-20)
(1.01929 1.19651 -6.04441e-21)
(0.948109 1.19836 0)
(0.731299 1.08366 -7.85613e-20)
(0.974531 0.979384 1.84542e-20)
(0.628979 0.565037 -3.57075e-20)
(0.694879 0.330266 -1.08577e-20)
(0.680774 0.322605 1.73615e-19)
(0.625056 0.403987 8.69206e-21)
(0.611672 0.41056 -3.49368e-19)
(0.708587 0.346884 0)
(0.691029 0.386379 2.41014e-19)
(0.69361 0.387836 0)
(0.644499 0.379497 0)
(0.657555 0.353418 0)
(0.64967 0.66576 1.88322e-19)
(1.20408 0.332897 -1.36452e-19)
(1.1749 0.394412 0)
(1.18331 0.390001 0)
(0.786527 0.235439 2.76893e-19)
(0.693587 0.489351 -1.58541e-19)
(0.702576 0.449567 2.85573e-19)
(0.850857 0.423985 -3.06552e-19)
(1.00727 0.0322884 3.64183e-19)
(1.0277 0.00195213 -3.71473e-19)
(1.00938 0.0318811 0)
(1.01632 -0.00385848 0)
(1.02192 -0.035095 -3.57291e-19)
(1.01763 -0.0235387 3.4911e-19)
(1.00861 -0.0142784 0)
(0.995453 -0.00867329 0)
(1.02256 -0.00699501 0)
(1.02902 -0.00680017 0)
(1.00795 -0.0270713 0)
(1.01339 0.000276245 0)
(0.0259905 1.8574 0)
(0.018487 1.84356 0)
(0.0410149 1.81591 7.1284e-20)
(0.249862 1.95016 9.46283e-20)
(0.0760805 1.90929 2.02562e-19)
(0.0980816 1.95134 -3.28221e-19)
(0.0981348 1.83646 0)
(0.15208 1.7489 -5.24472e-20)
(0.130274 1.80862 0)
(0.303986 1.69738 -9.471e-20)
(0.230613 1.6539 3.29753e-19)
(0.173678 1.7529 4.54716e-20)
(0.270076 1.88158 3.05557e-20)
(0.211821 1.84619 -2.45449e-20)
(0.333079 1.77337 -2.26825e-20)
(0.264648 1.73011 0)
(0.294261 1.75238 2.61017e-20)
(0.0239477 1.74328 -2.77065e-20)
(0.0407342 1.75368 0)
(0.0925817 1.72934 1.13458e-19)
(0.05267 1.73398 0)
(0.0428335 1.7203 -1.10577e-19)
(0.049881 1.75126 0)
(0.01551 1.77008 -9.81947e-21)
(-0.00981966 1.77526 0)
(0.0169178 1.75953 0)
(0.0321452 1.76156 1.08478e-20)
(0.0113093 1.75414 -9.3587e-22)
(0.000525045 1.76064 1.10661e-19)
(0.00459726 1.7584 7.61104e-22)
(0.00238878 1.73037 1.55837e-20)
(-0.0255663 1.73946 1.33944e-20)
(-0.0132858 1.78384 0)
(0.00605259 1.76924 0)
(3.80531e-05 1.76319 6.34077e-20)
(0.0206803 1.7408 5.36628e-20)
(-0.00424209 1.75124 -7.46407e-20)
(0.00116746 1.7552 0)
(-0.0153889 1.77182 -6.50373e-21)
(0.0106002 1.77191 9.26594e-21)
(0.0280105 1.75898 -4.3612e-21)
(0.0266142 1.72642 -1.92112e-20)
(-0.0196739 1.73834 -1.24113e-20)
(0.00266985 1.76952 2.73722e-20)
(1.01562 0.00289693 -3.57504e-19)
(0.99501 0.0317151 3.59052e-19)
(0.998963 0.0242645 0)
(0.967073 0.0363824 4.8711e-19)
(0.946625 0.0396363 -5.52307e-19)
(0.917933 0.0538924 6.24671e-19)
(0.9758 0.0137377 -6.28626e-20)
(1.04993 -0.00402772 0)
(1.0385 -0.0280146 3.25351e-19)
(1.03682 -0.0266559 -3.31042e-19)
(0.97766 0.0347275 -1.86394e-20)
(1.01403 0.0288224 1.5845e-19)
(0.969491 0.0594607 0)
(0.974654 0.0291659 -5.95378e-20)
(1.01847 0.0548225 0)
(0.997222 0.0471252 0)
(1.01225 0.028639 0)
(1.01303 0.0181933 0)
(1.02201 0.0473047 1.20252e-19)
(0.993643 0.0112533 -2.65679e-19)
(0.91562 -0.00348943 -1.2564e-19)
(0.955482 0.023665 -1.41813e-19)
(1.01379 0.0856106 2.45665e-19)
(1.0668 0.0697492 0)
(1.01476 0.0719697 0)
(-0.0305124 1.76302 -2.39635e-20)
(-0.026912 1.76974 -5.82703e-22)
(-0.0254546 1.76331 0)
(-0.0196869 1.77708 2.44224e-20)
(0.00837146 1.76803 1.75594e-21)
(-0.00405397 1.77771 -2.1282e-21)
(-0.0008875 1.77346 2.03437e-20)
(0.0314179 1.73787 -2.09861e-21)
(-0.00243613 1.72375 1.31081e-20)
(-0.00776932 1.80333 -1.92378e-20)
(0.00574843 1.77892 2.32985e-20)
(0.0301089 1.73446 7.73648e-22)
(-0.000494908 1.70934 1.69931e-22)
(0.382595 1.81201 -1.16777e-19)
(0.333557 1.78661 4.51642e-20)
(0.672364 1.82427 -1.70554e-19)
(0.541383 1.90759 -1.3312e-19)
(0.559153 1.88407 0)
(0.308005 1.51396 1.17673e-19)
(0.33749 1.51191 1.66246e-19)
(0.159474 1.53668 2.47801e-20)
(0.193316 1.52498 -3.76984e-19)
(0.216034 1.5304 3.16847e-19)
(0.238613 1.532 0)
(0.165361 1.53002 -2.43696e-19)
(0.136929 1.62754 4.83215e-19)
(0.173415 1.57136 -3.54433e-20)
(0.130984 1.62325 -6.48726e-19)
(0.613977 1.46277 6.29246e-19)
(0.488326 1.48041 0)
(1.02946 -0.00751174 1.00665e-20)
(1.05626 0.0701896 -8.56708e-21)
(1.01656 0.0148724 -1.67281e-19)
(0.992574 0.00118581 1.69442e-19)
(0.99471 0.026906 0)
(0.618761 1.65298 0)
(0.578496 1.52473 0)
(0.697314 1.30897 0)
(0.511498 1.47956 0)
(0.887083 1.71941 9.54269e-20)
(0.946261 1.58576 0)
(0.636121 1.64943 4.18222e-21)
(0.50118 1.5867 0)
(0.57897 1.54571 -4.16967e-19)
(0.601527 1.58194 2.68013e-19)
(0.874452 0.137304 0)
(0.850372 0.151205 7.20021e-20)
(0.911806 0.078554 3.98162e-19)
(0.861014 0.104327 -1.46672e-19)
(0.842377 0.0737354 -4.93329e-19)
(0.973403 0.187204 -3.48919e-19)
(0.917494 0.245395 -1.28957e-20)
(0.806004 0.272429 3.79629e-19)
(0.939639 0.213202 3.07107e-19)
(0.913902 0.130327 -5.17946e-19)
(0.895438 0.151914 6.48547e-20)
(0.826748 0.24728 -1.42153e-19)
(0.898537 0.225155 0)
(0.947899 0.178486 2.56291e-19)
(0.936888 0.177613 0)
(0.95369 0.224752 0)
(1.06539 0.159106 1.17914e-19)
(0.963509 0.163094 -9.99714e-22)
(0.971304 0.163565 -7.36557e-20)
(0.980724 0.191916 0)
(1.00957 0.0560504 2.60318e-19)
(1.01706 0.0341469 3.28567e-19)
(1.01889 0.0640784 -2.54317e-19)
(1.02591 0.0552134 -2.21709e-19)
(0.962485 0.0601633 -3.44313e-19)
(0.957827 0.0665164 0)
(0.960758 0.0160276 0)
(0.924804 0.0879727 -2.18962e-19)
(0.91313 0.0810645 8.33699e-20)
(1.01203 0.0766305 2.87482e-19)
(0.994304 0.0872345 -3.33465e-19)
(0.985148 0.109058 3.04689e-19)
(0.970976 0.130572 0)
(0.98522 0.0783017 0)
(1.0017 0.0935542 -1.35212e-19)
(1.00572 0.101623 -2.32352e-19)
(0.492355 1.67601 1.80819e-19)
(0.515371 1.85632 -1.98465e-19)
(0.767837 1.92985 -1.70157e-19)
(0.708601 2.48636 -9.3716e-21)
(0.924066 1.93753 6.11187e-20)
(0.899657 2.04327 -1.41132e-19)
(1.00929 1.62506 -3.74844e-20)
(0.721714 2.28726 -2.87881e-20)
(0.805365 2.15049 1.37594e-19)
(0.697145 2.69335 -1.14206e-19)
(0.941156 2.34242 1.29911e-19)
(0.934541 2.35967 0)
(0.0777551 0.809609 -2.56578e-20)
(0.424836 1.69915 -1.52899e-19)
(0.799374 0.380098 7.36311e-20)
(0.748425 0.250015 8.10414e-20)
(0.603151 0.418099 1.92909e-19)
(0.599803 0.405749 -2.51607e-19)
(0.579971 0.385498 1.70074e-19)
(0.639334 0.39479 -6.03978e-20)
(0.584546 0.445985 2.12554e-19)
(0.7881 0.258316 -1.568e-19)
(0.723507 0.297298 0)
(0.76018 0.263293 6.34229e-21)
(0.631872 0.461578 1.25423e-19)
(0.632792 0.431259 -4.60441e-19)
(0.588382 0.396246 -2.23934e-21)
(0.60267 0.427836 0)
(0.36306 0.78541 1.54392e-19)
(0.627779 0.85727 2.87284e-19)
(0.550771 0.822282 -3.23331e-19)
(0.641271 0.886952 -9.68079e-20)
(0.79468 0.911061 -2.95524e-20)
(0.783577 0.926553 3.00751e-20)
(0.780842 0.595005 -3.21064e-19)
(0.803441 0.687893 9.1084e-20)
(0.867815 0.768868 0)
(0.849452 0.74457 -1.0309e-19)
(0.962064 0.353125 8.59383e-20)
(1.09603 0.287117 8.7588e-20)
(1.05203 0.244509 1.38719e-19)
(0.906549 0.405821 -1.79567e-19)
(0.953696 0.372591 0)
(0.953422 0.386485 0)
(0.866076 0.333873 9.34606e-21)
(0.767974 0.315669 0)
(0.797487 0.3079 1.77809e-19)
(0.861719 0.274459 -1.39893e-20)
(0.852477 0.419533 8.37406e-19)
(0.793855 0.478825 2.51198e-19)
(0.814442 0.466964 -2.40305e-19)
(0.759563 0.373178 2.5673e-19)
(0.715346 0.392506 1.52361e-19)
(0.692641 0.417492 -1.46693e-19)
(0.988268 0.0511267 2.91159e-19)
(0.994327 -0.0510292 0)
(1.00576 0.00529429 1.90292e-19)
(0.988323 0.0444931 -4.34371e-19)
(1.01066 -0.0224038 2.10368e-19)
(1.01267 0.0584141 -4.45963e-19)
(1.0059 -0.000318528 0)
(0.99317 -0.0325815 -9.41973e-20)
(0.998694 0.0372395 2.40935e-19)
(0.974395 0.0169042 -1.2426e-19)
(0.979907 -0.0240736 8.91797e-20)
(0.017542 1.80601 0)
(0.0211185 1.75891 0)
(0.0128668 1.83087 0)
(0.00722528 1.81747 0)
(0.0654255 1.73516 4.04274e-20)
(0.0748903 1.76753 -4.15721e-20)
(0.0835203 1.80023 5.16629e-22)
(0.0592646 1.77699 -5.85467e-20)
(0.0454887 1.76274 -2.69522e-20)
(0.0327559 1.77321 1.96322e-20)
(0.0674659 1.76601 -4.09773e-20)
(0.0373544 1.79793 2.06227e-20)
(0.0303783 1.77603 2.90697e-21)
(0.016102 1.75471 -3.79328e-21)
(0.0830762 1.73057 -1.24104e-19)
(0.0630651 1.71424 0)
(0.0678983 1.70192 7.22254e-20)
(0.104582 1.79498 3.91757e-20)
(0.204151 1.68837 -5.07378e-20)
(0.17661 1.65721 0)
(0.192293 1.64244 -3.2351e-19)
(0.226391 1.65993 2.28212e-19)
(0.127683 1.70729 -1.3376e-19)
(0.0823601 1.67368 7.58515e-20)
(0.0639635 1.64021 0)
(0.0113844 1.75141 -7.19857e-20)
(0.0165048 1.74497 -1.00388e-19)
(0.00458958 1.73452 0)
(0.00446427 1.74356 -2.30723e-21)
(0.00735714 1.73508 3.69288e-20)
(0.00144213 1.79081 -1.50163e-21)
(0.0034327 1.79002 2.42279e-20)
(-0.0100301 1.78823 -1.89654e-20)
(-0.00847545 1.77519 5.50578e-21)
(0.0235065 1.78179 0)
(-0.00649719 1.78765 0)
(-0.0146594 1.77725 6.24994e-21)
(-0.000707512 1.79361 -1.47352e-21)
(0.000263722 1.78935 0)
(0.0119357 1.78268 5.70362e-21)
(-0.00791385 1.77842 -1.07544e-20)
(0.965085 0.0613123 0)
(1.03581 0.104164 -2.91458e-20)
(1.03876 -0.0101294 -1.84581e-19)
(0.989565 -0.0109374 0)
(1.04481 0.0467882 0)
(1.02708 -0.0465683 -2.1525e-20)
(0.955713 -0.0181031 3.44535e-19)
(1.01159 0.00410949 4.06941e-19)
(0.998863 0.0235875 0)
(0.994548 0.0122437 0)
(1.00167 -0.0031245 2.14008e-19)
(1.00873 0.0146419 0)
(0.992306 0.0204067 0)
(0.043669 1.78244 0)
(0.0116688 1.70762 -5.33861e-21)
(-0.0150482 1.78499 1.00951e-22)
(0.000814645 1.77169 0)
(0.0144084 1.68458 9.71011e-21)
(0.020934 1.71702 1.33632e-21)
(-0.00102547 1.76946 0)
(0.394053 1.66029 0)
(0.32046 1.74726 -1.21005e-19)
(0.32015 1.70406 0)
(0.467044 1.77249 7.24573e-20)
(0.473129 1.81463 0)
(0.430687 1.80298 -1.47661e-21)
(0.616402 1.53197 -1.33232e-20)
(0.673587 1.4788 -7.24734e-19)
(0.722384 1.47356 8.76758e-19)
(0.492091 1.50016 1.7599e-19)
(0.496175 1.51828 0)
(0.511755 1.50264 0)
(0.573441 1.48397 0)
(0.512645 1.47706 -6.55754e-19)
(0.348958 1.53271 -3.38904e-19)
(0.471947 1.51648 -8.44689e-20)
(0.493437 1.55229 6.91282e-20)
(0.384062 1.49461 0)
(0.471437 1.4901 0)
(0.433997 1.49214 -1.90032e-19)
(0.448832 1.53732 0)
(0.378665 1.49499 0)
(-0.067325 1.47145 -4.61837e-19)
(0.219772 1.10329 -3.18147e-20)
(0.342242 1.64406 0)
(0.118221 1.68637 7.20338e-19)
(0.640007 0.931538 -1.0208e-19)
(0.643379 1.21716 0)
(0.68873 1.13996 1.40256e-19)
(0.38636 1.3115 0)
(0.444872 1.13501 0)
(0.86116 1.7389 -1.71471e-19)
(0.796448 1.86972 -1.77214e-19)
(0.654999 1.78382 3.33134e-19)
(0.670166 1.7247 -9.86105e-20)
(0.897968 1.64945 0)
(0.84295 1.59484 1.25107e-19)
(0.950836 1.52902 -1.81939e-19)
(0.917288 1.4758 -1.5083e-20)
(0.568019 1.64746 0)
(0.515214 1.68608 -1.55312e-19)
(0.520734 1.63931 0)
(0.870299 0.232252 0)
(0.845643 0.151715 0)
(0.794391 0.181068 0)
(0.839965 0.236334 -2.80395e-19)
(0.789945 0.228561 1.67631e-19)
(0.909653 0.0691724 -1.73099e-19)
(0.930852 0.0654406 0)
(0.91695 0.0581507 7.85287e-20)
(0.871058 0.0321193 3.20131e-19)
(0.882854 0.0444157 -2.00575e-19)
(0.62186 2.97494 -4.88706e-19)
(0.650993 2.89707 0)
(0.716527 3.1406 -1.29498e-18)
(0.24023 3.35821 1.00304e-18)
(0.273505 3.05598 4.02593e-19)
(-0.135884 1.11103 -6.47952e-20)
(-0.192483 1.47823 0)
(0.214764 0.472416 1.52305e-20)
(0.271485 0.391338 1.23063e-19)
(0.585058 0.179367 -4.15856e-20)
(0.656882 0.389504 -1.36893e-20)
(0.624015 0.447112 1.2748e-19)
(0.62899 0.460863 0)
(0.510211 0.469841 0)
(0.593479 0.351638 0)
(0.918578 0.601338 3.46477e-20)
(0.763222 0.487254 -2.44352e-19)
(0.757009 0.542853 2.11632e-19)
(0.85896 0.487048 -1.75829e-19)
(1.05754 0.420326 0)
(1.09692 0.551934 -4.64773e-20)
(0.766682 0.340466 -3.56647e-19)
(0.765003 0.339499 -4.39898e-19)
(0.703815 0.40059 2.82246e-19)
(0.739107 0.332312 -2.80426e-19)
(0.760596 0.317083 -2.26712e-19)
(0.750022 0.320332 2.79915e-19)
(1.02495 -0.0241912 -2.16694e-19)
(1.03174 -0.0141472 4.42042e-19)
(0.995477 0.0529649 2.76238e-19)
(1.00099 0.0576351 -3.36828e-19)
(0.935414 0.0470475 0)
(0.93971 -0.0320915 -5.48548e-19)
(0.048522 1.77505 1.53311e-20)
(0.0349116 1.72795 0)
(0.0667228 1.78413 1.29218e-19)
(0.0920304 1.79136 -1.08962e-19)
(0.0630048 1.74844 -9.54971e-22)
(0.0370375 1.68843 0)
(0.0309722 1.72764 0)
(0.00711242 1.78755 3.91502e-21)
(0.00309232 1.77044 -3.55166e-21)
(0.0169435 1.71436 -4.21299e-21)
(0.0526763 1.7474 -4.3262e-21)
(0.00706496 1.72753 9.98149e-21)
(0.53251 1.61529 -4.13593e-19)
(0.503201 1.61791 4.4198e-19)
(0.471125 1.72652 -8.94932e-20)
(0.479698 1.66367 1.75589e-20)
(0.627477 1.68239 0)
(0.580173 1.75438 7.00792e-20)
(0.607102 1.71876 -6.85494e-20)
(0.50967 1.72391 8.61793e-20)
(0.566757 1.63762 0)
(0.554931 1.64666 0)
(0.347557 1.5099 5.20169e-19)
(0.387922 1.49077 7.58027e-19)
(0.404693 1.52612 -5.2417e-19)
(0.296431 1.51527 -9.85497e-20)
(0.320194 1.51627 1.58944e-19)
(0.21884 1.522 -3.99787e-19)
(0.785561 1.46089 -4.87773e-19)
(0.870883 1.45649 0)
(0.828477 1.45697 -4.87972e-19)
(0.771314 1.54067 0)
(0.736381 1.51084 0)
(-0.0208048 2.76922 1.45074e-19)
(0.387773 2.80326 1.33368e-19)
(0.227498 2.98881 -2.43039e-19)
(0.24424 1.75034 0)
(0.0978263 1.40388 1.08112e-19)
(-0.126673 1.35537 -7.74184e-20)
(-0.0593205 2.76682 0)
(0.040028 3.04092 -2.91629e-19)
(0.0753355 3.01245 0)
(0.445263 0.537013 -3.34956e-19)
(0.622667 0.679918 4.85021e-19)
(0.626383 0.662258 -4.85848e-19)
(0.509957 0.488594 -3.50671e-20)
(0.636438 0.483025 -1.47172e-19)
(0.321591 2.64607 -1.01758e-19)
(0.374109 2.38456 -7.55761e-20)
(-0.0145838 2.57992 1.99925e-19)
(-0.0682601 2.37548 -1.71805e-19)
(0.485483 2.00942 -4.58312e-19)
(0.446054 2.20163 -1.30877e-19)
(0.54334 1.89366 2.52902e-19)
(0.0375217 2.30731 1.63122e-20)
(0.301894 2.15158 1.66649e-19)
)
;

boundaryField
{
    wall-4
    {
        type            noSlip;
    }
    velocity-inlet-5
    {
        type            fixedValue;
        value           uniform (1 0 0);
    }
    velocity-inlet-6
    {
        type            fixedValue;
        value           uniform (0 3 0);
    }
    pressure-outlet-7
    {
        type            zeroGradient;
    }
    wall-8
    {
        type            noSlip;
    }
    frontAndBackPlanes
    {
        type            empty;
    }
}

