/*--------------------------------*- C++ -*----------------------------------*\
  =========                 |
  \\      /  F ield         | OpenFOAM: The Open Source CFD Toolbox
   \\    /   O peration     | Website:  https://openfoam.org
    \\  /    A nd           | Version:  6
     \\/     M anipulation  |
\*---------------------------------------------------------------------------*/
FoamFile
{
    version     2.0;
    format      ascii;
    class       volScalarField;
    location    "./ITHACAoutput/Offline/1";
    object      P_rec;
}
// * * * * * * * * * * * * * * * * * * * * * * * * * * * * * * * * * * * * * //

dimensions      [0 2 -2 0 0 0 0];

internalField   nonuniform List<scalar> 
13046
(
1.45681
1.41231
1.51129
1.46604
1.50919
1.44633
1.43675
1.44194
1.51775
0.866155
0.80034
1.4944
1.42426
1.36379
1.50868
1.01676
1.48602
0.867653
1.51096
1.49076
1.45369
0.990336
1.48936
0.862209
1.46833
1.45536
1.50493
1.40265
1.34802
1.50699
1.46721
1.38599
1.50541
1.48519
1.50898
1.45827
1.48261
1.5118
1.47431
1.47898
1.486
1.35272
1.48225
1.50757
1.48978
1.47863
1.49885
1.49077
1.43742
1.40574
1.51278
1.44292
1.48993
1.27164
1.43669
1.24106
1.49649
1.0774
1.3025
1.48087
1.29824
1.32151
1.51034
1.49884
1.04198
1.10135
1.33898
1.08955
1.47533
1.36648
1.12028
1.47582
1.0281
1.27182
1.4802
1.50943
1.4996
1.43014
1.48462
1.20312
1.00118
1.45766
1.44926
1.50562
1.49601
0.988051
1.04968
1.05167
1.50332
1.09729
1.49889
0.954894
1.10843
1.30104
1.26176
1.23469
1.20933
1.50148
1.50454
1.50455
1.06134
1.12916
1.47374
1.50416
1.4821
1.51011
1.2983
1.43699
1.48607
1.46676
1.31102
0.638582
1.48913
0.584101
1.43923
1.38941
1.50656
1.26401
1.29891
1.15723
1.4957
1.20784
1.49663
0.819394
0.741756
1.49297
1.36365
1.28046
1.50819
1.46997
1.49057
1.34942
1.49842
0.998393
1.15655
1.19265
1.16742
1.50465
1.45407
1.36493
1.50183
1.37109
1.41901
1.50959
1.48597
1.45239
1.30524
1.50718
1.32922
1.4535
1.28131
1.2856
1.50797
1.52132
1.39066
1.45786
1.38921
1.22432
1.36421
1.21314
1.50248
1.50477
1.36124
1.41363
1.50517
0.853161
1.49612
0.829506
0.713209
1.49031
0.636718
1.17233
1.12738
1.5025
1.46256
1.27644
1.48533
1.37161
1.50403
1.43095
1.49924
0.90267
0.885633
1.47055
1.30574
1.4813
1.51891
1.36897
1.44841
1.39257
1.43076
1.50804
1.34936
1.51498
1.38295
1.31462
1.50629
1.02052
1.5011
1.02429
1.50239
1.05535
1.16662
0.963939
1.07091
1.49915
1.43351
1.20176
1.47863
1.40355
1.22337
1.47958
0.996001
1.01947
0.934037
1.49981
1.47105
1.512
1.47511
1.42181
1.35671
1.50394
1.50218
1.03652
1.17879
1.38407
1.36499
1.51741
1.49478
0.735572
0.73257
1.48372
1.19752
1.41664
1.01976
1.11733
1.5016
1.28169
1.38886
1.50989
1.35696
1.27012
1.50642
1.26826
1.07808
1.49563
1.17532
1.34075
1.49969
1.49389
0.723781
0.686628
1.48841
1.47401
1.29165
0.674537
1.48452
0.510158
1.50785
1.45876
1.47914
1.30002
1.30942
1.37359
1.39735
1.51358
1.50692
1.47981
1.16238
0.965001
1.39061
1.29222
1.49992
1.15438
1.30776
1.50315
1.22324
1.15621
1.49966
1.49281
1.48078
1.50832
1.24711
1.36379
1.50617
1.39031
1.266
1.4982
1.39118
1.37649
1.48832
1.46724
1.2669
1.23346
1.33567
1.50597
1.17729
1.49885
1.12676
1.50201
1.47116
1.33204
1.50107
1.19673
1.38336
1.3114
1.16995
1.48897
1.48654
1.45287
1.26307
1.27791
1.25622
1.13475
1.48804
1.12692
1.4923
1.49847
0.93329
0.927467
1.32458
1.23006
1.49679
0.424968
1.48663
0.498724
1.42896
1.50479
1.46106
1.32817
1.34369
1.50988
1.50172
1.07572
1.06896
1.4236
1.20736
1.4937
1.23257
1.06197
1.49839
1.39832
1.51213
1.31138
1.30768
1.50837
1.39856
1.51445
1.06977
1.48693
0.918723
1.44152
1.17169
1.47551
1.28471
1.28206
1.50612
1.35189
1.41217
1.51325
1.30148
1.43719
1.50191
1.45789
1.42175
1.51235
1.49088
1.20505
1.39941
0.993978
1.04037
1.50088
1.22845
1.07012
1.50128
1.39348
1.47122
1.15961
1.2355
1.26757
1.09529
1.05743
1.48187
1.48395
1.48593
0.45636
0.557235
0.720377
1.48526
0.554574
1.27638
1.35369
1.50335
1.49915
0.994077
0.976659
1.34962
1.33038
1.16094
1.15027
1.48503
1.4849
1.49554
0.94532
0.821993
0.642574
1.48461
0.436948
1.45614
1.50449
1.49964
0.626226
0.519908
1.48756
1.44777
1.2794
1.48519
0.90315
0.935883
1.50057
0.431342
1.48547
0.377492
1.4864
1.48532
1.37697
1.43978
1.48036
1.50949
0.831953
1.4918
0.727383
1.4247
1.47058
1.50936
1.46794
1.50379
1.50176
1.49298
1.16326
1.40749
1.41611
1.49314
1.50501
1.43396
1.46795
1.5018
1.41656
1.1731
1.46752
1.49255
1.49553
0.866909
0.865977
0.953441
0.933251
0.939832
1.00518
1.49986
1.47584
1.3814
1.12152
1.47598
1.47437
1.31266
1.15305
1.34191
1.49284
0.612151
1.48938
0.48469
1.49958
0.935309
1.06858
0.749294
1.49279
0.698021
1.48452
0.368429
0.346532
0.307959
1.48299
0.41315
1.28679
1.21415
1.50387
0.817076
1.49352
0.676807
1.1564
1.1582
1.50486
0.949001
1.48053
0.744611
1.42543
1.50959
1.41304
0.991288
1.49742
0.867174
1.16704
1.49156
1.36288
1.28874
1.15353
1.50587
1.48157
0.126154
0.178389
0.466287
1.48719
0.466013
1.44538
1.5139
1.42605
0.917449
0.815599
1.49719
1.49628
0.765353
0.911529
1.00139
1.49618
0.96258
1.48396
0.979795
1.13791
1.43733
1.15556
1.46697
1.10533
1.29942
1.48631
1.48327
1.09097
0.882644
1.4264
1.40893
1.30023
1.27242
1.49459
1.49785
1.44113
1.30315
1.49073
1.37095
1.14649
1.48435
1.254
1.11269
1.50168
0.996731
0.927526
1.50119
1.50214
1.1036
1.20988
0.339972
1.48416
0.46839
1.48492
1.47522
1.50066
1.38131
1.50631
1.3935
1.41206
1.41538
1.48157
1.20174
1.4831
1.23021
0.487786
1.48696
0.380584
0.940969
0.856812
1.49889
1.46748
1.46078
1.25732
1.29822
1.11191
1.49796
1.48324
1.00228
1.16937
0.598385
0.591746
1.49063
0.658997
0.623476
1.49249
1.33438
1.17726
1.49198
1.5086
1.46644
1.35312
0.961941
1.49629
0.911801
1.26818
1.17479
1.50746
1.50009
1.07346
1.14525
1.43077
1.47944
1.23095
1.29365
1.40812
1.50365
1.48418
1.47939
1.33399
1.49705
0.895924
0.916278
1.22382
1.1334
1.49618
1.49049
1.49271
1.38961
1.04215
1.48084
0.825998
1.43953
1.35106
1.50079
1.4068
1.44178
1.51593
1.30611
1.18923
1.50409
0.814228
1.48421
0.619217
0.855703
1.48318
0.645104
1.49706
1.05122
1.14428
1.26173
1.4131
1.49867
1.48206
0.546198
0.753764
1.50362
1.11508
1.11316
1.48407
0.331415
0.273987
0.371137
0.22142
1.48116
1.48702
0.919976
1.10078
1.49616
0.804873
0.800661
1.0106
1.05127
1.49172
0.905484
1.49356
0.960839
1.09808
1.13176
1.50389
1.50258
1.32075
1.10616
1.48512
1.50525
1.41983
1.12415
1.18802
1.50567
1.50558
1.14065
1.21858
1.12675
1.48125
0.906842
1.39988
1.16897
1.4813
1.42841
1.25495
1.48177
1.22616
1.26109
1.50895
1.20301
1.25411
1.50834
1.49675
1.48822
1.4154
1.40295
1.24719
1.49782
1.49815
1.01651
0.864934
0.592639
1.49282
0.685124
0.54402
1.49108
0.670396
1.46446
1.49034
1.32492
0.547909
1.48899
0.514367
1.18665
1.49577
1.08103
1.48822
0.558694
0.465305
1.47008
1.511
1.46266
1.36537
1.32562
1.50881
1.42527
1.27154
1.49865
1.49498
0.856767
0.732479
1.27549
1.17536
1.50566
1.48224
1.00226
0.808749
1.32961
1.30169
1.50963
1.49056
1.50869
1.43262
0.856634
0.770205
1.49678
1.5019
1.07555
1.11035
0.790947
0.743245
1.48741
1.48769
0.666592
0.61963
1.32871
1.38614
1.51308
1.31341
1.24041
1.50437
1.4203
1.43976
1.51873
0.751919
0.653776
0.766246
1.49423
0.644882
1.49328
1.26344
1.23329
1.50805
0.761855
0.705324
0.818773
0.769736
1.49649
1.4949
1.24301
1.33847
1.51215
1.36634
1.36308
1.51149
0.907859
1.48392
0.722786
1.34695
1.369
1.51222
1.41116
1.41882
1.51305
0.822691
1.48578
0.66325
1.33229
1.26836
1.50421
1.37351
1.14057
1.49136
1.4358
1.20421
1.474
1.18898
1.49657
1.0068
1.48232
0.190811
0.24027
1.33133
1.33996
1.51067
0.945843
1.48767
0.804867
1.45587
1.16347
1.4585
0.510862
1.48084
0.331321
1.508
1.50056
1.46003
1.37393
1.46082
1.35445
1.42365
1.44764
1.51406
1.4925
1.50358
1.47617
1.37721
1.48152
1.37366
1.35394
1.38442
1.51707
1.36758
1.39055
1.51566
1.49199
0.719196
0.570849
1.45546
1.32817
1.48952
0.814429
0.841703
1.4973
1.21246
1.17581
1.22906
1.1914
1.50603
1.50424
1.45077
1.35786
1.49441
1.37211
1.19902
1.48505
1.26973
1.27516
1.50991
1.49242
1.45718
1.50002
1.16221
1.20891
1.50629
1.48216
1.49738
1.41878
1.2679
1.33074
1.51135
1.37211
1.22817
1.4856
1.49036
1.49425
1.44015
1.50565
1.43755
1.50033
1.4998
1.47904
1.50702
1.41808
1.49159
1.3881
1.42798
1.41821
1.32316
1.3234
1.49951
1.49824
1.4883
1.00826
1.14883
1.48877
1.17366
1.39431
1.49179
1.49375
0.971682
0.993592
1.1038
1.09739
1.48032
1.45294
1.22679
1.49315
1.50365
1.4773
1.14982
1.17829
1.50554
1.47682
1.49572
1.35921
1.35605
1.21822
1.48845
1.21605
1.22246
1.05422
1.48966
1.08069
1.49136
1.22784
1.2112
1.50503
0.565836
0.405006
1.48242
1.44972
1.18739
1.46547
1.44764
1.45076
1.46133
1.1765
1.46639
1.19895
1.12984
1.24285
1.50351
1.388
1.21603
1.48588
1.47614
1.45457
1.22803
1.44928
1.45238
1.46921
1.48203
1.25356
1.25121
1.44224
1.47177
1.21539
1.23595
1.23651
1.5077
1.49149
1.49536
1.42508
0.876974
1.48912
0.757101
1.46887
1.4565
1.2045
1.36351
1.33345
1.23504
1.21205
1.49037
1.49601
1.48972
0.807928
0.926481
0.913744
1.48777
0.75313
0.87051
1.48681
0.720799
1.18712
1.49226
1.05866
1.40096
1.24846
1.48879
0.930817
1.14207
1.40975
0.939677
1.32485
0.569365
1.24394
1.05151
0.91001
1.32209
1.32015
0.875438
0.954917
1.30855
1.12772
0.97398
0.985982
1.08507
1.14354
1.27415
1.17547
1.07516
1.34777
1.47698
1.42468
1.14656
1.33771
0.895141
1.19795
0.93802
0.911347
1.2456
1.14586
1.15851
0.95407
1.16443
1.40089
1.33875
1.02309
1.16981
1.0394
1.47829
0.981747
1.31182
1.35664
1.07316
1.07979
1.00347
0.886079
0.981204
1.4351
1.18826
0.974091
1.04699
0.906299
1.43157
1.27175
1.15553
0.989863
1.29674
0.975162
0.994209
1.42805
1.0786
1.15262
1.27685
1.18764
1.4612
1.34133
1.30586
0.840842
0.891811
1.05163
1.29504
0.878023
1.16065
1.13446
0.9461
1.28537
1.3789
1.08502
1.14334
0.894731
0.958744
1.05892
1.29476
1.06153
0.993575
1.11345
1.4345
0.981523
1.29901
1.42025
1.16532
0.968109
0.481035
0.949886
1.00802
0.964997
0.839435
1.21574
1.35305
1.36479
1.46186
0.965616
0.952942
0.894896
0.992358
0.952775
1.40096
1.36191
1.27381
0.944022
0.897095
1.18834
1.32844
1.08791
0.993623
0.818368
1.07991
1.14583
1.43155
1.45107
1.30242
1.159
1.05677
0.873716
1.45314
0.857313
1.2909
0.828104
1.42697
0.895899
0.823022
0.910121
1.37869
1.14775
0.789552
0.974592
1.25795
0.967412
1.30523
1.21049
1.00124
1.3547
1.04187
0.956483
1.3898
0.985528
1.09127
0.878853
1.17034
1.01982
1.37622
1.30098
1.08182
1.2937
1.30531
1.41095
1.14015
1.04448
0.99489
1.30121
0.853724
1.16046
0.900597
1.47461
1.07941
1.37148
1.45119
1.17895
1.4574
1.38128
1.41186
0.92858
0.822363
0.873128
1.41348
0.934938
0.909591
0.83966
0.911696
1.09594
1.04206
1.17623
1.45081
1.29906
1.04831
1.28133
1.02537
1.47552
0.780914
1.34601
0.998908
0.802882
1.43307
1.45429
0.991442
1.00887
1.47252
1.20508
1.00048
0.959777
1.30042
1.398
1.24942
0.980448
0.991754
1.31592
1.15567
0.953681
1.16737
0.850152
0.92568
1.05928
1.29651
0.826123
1.0362
1.35767
1.05108
0.821551
1.07065
0.978334
1.03272
1.23393
1.24958
0.955014
0.906308
0.900962
1.27903
1.23811
1.09836
1.26038
1.04984
0.934722
1.21922
1.04563
0.804406
1.23298
1.38846
1.19578
1.41803
1.39724
1.48025
0.971565
0.775504
1.1117
1.07408
1.02111
0.832836
1.21459
1.42315
1.27597
1.21356
0.973689
1.10127
1.26683
1.1637
1.23204
0.990818
1.10576
1.04093
0.832129
0.958887
1.00546
0.982509
0.93372
1.25541
1.15632
1.08055
1.26171
0.966516
1.1036
0.979167
1.07559
1.0571
1.01794
1.20684
0.843823
0.776877
1.11528
0.869222
0.838794
1.21477
0.796746
0.837469
1.3833
1.26675
0.968504
1.24326
0.917753
1.25341
1.1585
0.8486
0.973906
1.33511
1.1206
1.28861
0.581579
0.944395
1.38187
1.03295
0.919294
0.749418
0.852538
0.820079
0.863983
1.04437
1.26799
0.935265
0.813054
0.958403
1.02527
1.4778
0.941583
1.29961
1.19946
0.808976
1.05426
0.962437
0.898966
1.23897
1.04894
1.42905
1.24987
0.953552
1.0559
1.189
1.47684
1.2651
1.4042
1.30878
1.04639
1.17991
1.09734
0.949861
0.849489
1.01523
0.986788
1.24396
0.983045
0.88092
0.970059
1.03355
0.967401
0.973963
1.36444
1.0282
1.00741
1.41872
1.35243
0.955798
1.1323
1.39747
1.00465
0.782611
1.05693
0.941164
0.897855
1.38689
0.960863
1.08036
1.39368
0.83685
1.17095
0.9716
1.17591
1.0593
1.00392
0.525482
1.05446
0.876784
1.03904
1.07238
1.07529
1.27539
1.42844
0.962672
1.14421
1.01944
0.895893
0.79981
1.3492
1.21076
1.04672
0.880722
1.1951
0.875579
0.953332
0.964991
0.952762
1.27326
1.41691
1.03923
1.26794
1.466
1.36252
1.34209
1.40962
1.00085
1.02261
0.899178
1.47526
1.32961
1.37562
0.995797
1.06447
0.81084
1.28527
1.04065
0.934975
1.37653
1.23122
0.869399
1.04699
0.967027
0.970432
0.977809
1.05806
1.07923
0.925804
1.03548
0.858808
1.05754
0.933653
1.22231
1.08131
0.826131
1.40285
1.42128
1.30409
1.01837
1.17991
0.783381
1.32285
1.17179
0.88266
1.397
0.692375
1.43056
0.856258
1.09117
1.10813
1.3053
1.30763
0.965854
1.44997
0.98038
1.35899
1.08714
1.21232
1.02523
0.939702
1.00826
1.3611
1.10007
1.47009
1.28306
0.850331
0.948158
1.24743
0.720267
1.02347
1.09055
0.922641
1.43836
0.877565
0.853776
1.32787
1.00432
1.42938
1.46211
1.0754
1.47332
1.4432
1.3732
1.38344
1.19572
0.892313
0.974872
1.0669
1.35025
1.06802
0.692693
1.44914
0.936374
1.1055
0.966233
1.40862
1.47379
0.936839
1.36372
1.1994
1.4269
1.04902
1.3109
1.09247
1.45296
1.46732
1.25647
0.972018
1.31474
1.00855
1.11185
1.15305
1.08717
1.20705
0.96859
0.701831
0.90436
1.10396
1.22249
1.15979
1.38057
0.954819
1.04083
1.223
0.904542
1.41617
0.944459
1.09279
1.39151
1.37546
1.17971
1.45632
0.95676
1.05473
1.31063
1.12301
1.0745
1.0923
1.01275
1.24975
1.27637
1.01372
0.971957
1.18163
0.848997
0.924164
1.43339
1.46051
1.47045
1.05444
1.47012
1.47338
1.44418
0.791365
1.20408
1.20442
1.45221
1.0338
0.953985
0.878432
0.971301
0.659577
1.45091
1.12021
1.13766
1.31692
1.26254
1.03318
1.08954
1.47295
1.44815
1.40405
1.25298
1.03806
1.27019
1.2371
1.03731
1.1089
0.904339
0.963768
1.14287
1.12128
1.02062
1.42637
1.43161
0.801432
1.37614
0.980495
0.982043
1.04565
1.4198
1.0771
1.26351
1.10484
1.40514
1.05454
1.10188
1.46555
0.802792
0.849411
0.957699
0.932136
0.774195
0.413329
0.943421
0.771409
1.1298
0.796217
0.909768
1.12364
1.0213
0.94811
1.02948
0.885664
0.48095
1.44132
1.33052
1.06205
0.881895
1.33093
1.04681
0.952845
1.46463
0.947958
1.4636
1.07853
1.38557
1.04311
0.810784
0.905974
1.15593
1.161
1.13258
0.821183
1.057
0.914899
0.931565
0.975151
0.828937
0.894535
1.44612
0.939761
1.29122
1.32348
1.03653
1.28704
1.32857
0.880406
0.426695
1.08992
0.849367
0.781758
1.28565
1.3051
1.06624
1.23266
1.03865
1.4655
1.44067
1.10282
1.02384
1.45218
1.38927
1.21856
1.21754
1.051
1.46817
1.1307
0.798419
1.41032
1.34229
1.43044
1.1654
0.975189
1.04363
1.30887
1.24588
0.308241
1.48015
1.08726
0.962191
1.16815
1.35159
1.46047
1.46535
1.23411
1.10663
1.33699
1.39484
1.385
1.2816
1.3489
0.821596
0.980884
1.18187
0.900327
0.808792
0.830895
1.08272
1.33318
0.854464
1.15262
0.969254
1.31797
1.46544
1.12312
0.892486
0.82104
1.25812
1.01446
0.965534
0.814509
1.40093
1.1956
1.21556
0.872286
1.20506
0.958768
0.978158
1.28912
1.33006
1.40197
1.47358
0.94175
1.39366
0.800378
1.41272
1.41667
1.42756
1.32753
0.924666
0.92386
1.07698
0.799884
1.1189
0.827929
1.17997
0.878441
1.37212
1.04189
0.812598
1.37729
1.27783
1.1035
1.10591
1.28063
1.40845
1.18623
1.13494
0.805993
1.35244
1.11215
1.43804
0.775848
1.1245
1.41254
1.29756
1.45726
1.29083
1.05817
0.761609
0.812683
1.11326
0.834355
1.44747
0.816503
0.964395
1.09755
0.956332
1.30486
0.777922
1.38702
1.31067
1.21847
0.699628
1.22257
0.905206
1.00736
1.12601
1.09721
1.05765
1.0509
1.33513
0.93809
1.46594
1.04313
1.06264
1.26395
1.27571
1.44721
1.06011
1.1099
0.950421
1.10318
1.02853
1.43423
0.970606
1.13956
1.04777
1.34949
1.01083
1.16623
0.887956
1.46686
0.794691
0.924298
0.961793
1.35675
0.818993
0.815916
0.912497
0.876367
1.42921
1.13055
1.26426
1.38732
1.23695
1.08029
1.46755
1.09827
1.28389
1.2422
1.15045
0.832022
1.1711
1.12923
0.991015
1.16661
0.880939
0.849281
1.18026
0.995872
0.929811
1.33283
1.09577
1.22594
1.12252
1.42813
1.09336
1.06307
1.24412
0.879352
0.962764
1.0504
1.15891
1.18927
1.24793
1.41923
1.26602
1.35175
1.16871
1.39652
1.45143
1.44231
1.11172
1.13069
1.19808
0.894197
1.45984
1.38982
1.35924
1.14782
0.935605
0.840692
1.20144
1.29009
0.955511
1.35272
1.38547
1.23097
0.977297
1.12596
1.00124
0.940414
1.15286
0.98178
1.21484
0.814549
1.21284
1.08419
1.10351
0.781379
1.18429
1.142
1.27504
1.04506
1.20113
1.42219
1.43587
1.22661
1.08424
1.35167
1.17144
0.968158
0.957152
1.07995
0.864211
1.41457
1.11622
1.18668
1.31362
1.28619
1.21158
0.87128
1.46848
1.22923
0.971553
1.12826
1.15819
1.35107
1.4207
1.23304
1.21904
0.826372
0.936505
1.1149
1.22232
1.13866
1.23159
0.996142
1.43156
1.21055
1.28502
1.40018
1.19089
0.958007
1.14706
1.45933
1.04081
0.816346
1.14081
1.46244
1.02535
1.0867
1.34176
1.2825
1.36792
1.13313
0.830146
1.2283
0.886996
1.03477
1.37006
1.13213
0.901039
0.96271
1.01971
1.24742
1.03174
0.986372
1.39603
0.978602
1.46763
1.36732
0.879733
0.762662
1.11899
1.29109
1.39253
1.14136
1.11333
0.920257
1.0755
1.09272
1.47237
1.41535
1.29308
1.02226
0.846228
1.39433
1.47113
1.431
1.35254
1.40746
1.14087
0.886715
0.796243
0.819864
1.44201
1.15256
0.881621
1.05263
1.46944
1.05253
0.980442
0.859825
1.13899
0.948213
1.4491
1.23633
1.30074
1.41119
1.36877
1.09662
1.26814
1.14537
1.26077
1.03429
1.22801
0.998605
1.43686
0.828382
1.02444
0.866009
1.06624
1.42003
1.05052
1.37056
1.38157
1.41563
0.92076
1.13969
1.10854
0.934082
1.42919
1.16244
1.1587
1.23025
0.611331
1.06152
1.40804
1.2675
1.43349
0.806497
0.919424
1.062
1.43957
0.926623
1.09771
0.936104
0.855351
1.02174
1.41253
1.05428
1.12019
0.869299
1.43958
1.46034
0.628532
1.39932
1.03502
0.926608
0.927855
1.15591
0.842029
1.22459
1.02902
1.02849
1.07734
1.35582
1.1458
1.36558
1.07251
0.913957
1.07079
0.806037
0.840731
1.12998
0.986446
1.17474
0.930889
1.09848
1.38122
1.21717
1.02948
0.806435
1.39468
1.15471
1.10427
1.4778
1.17919
1.02174
0.957435
0.859417
1.4469
1.00308
1.11297
1.24092
0.864667
1.40295
0.834375
1.39184
1.13213
1.32316
0.940594
1.31809
1.11109
0.881459
0.964586
1.1311
1.41415
0.760457
0.963831
1.06433
1.44601
1.46472
0.911257
1.01129
1.21628
1.4216
1.08613
1.42773
1.39212
1.35982
1.31532
1.20664
1.23416
1.2034
1.43269
1.09878
1.15699
0.910608
0.972707
1.08766
0.933115
1.44999
0.828557
1.41783
1.08267
1.44221
1.00277
1.4523
1.32291
1.34574
1.44505
1.42146
1.47562
1.0847
1.40153
1.12508
1.05433
0.963865
0.935461
1.43381
0.831307
1.24238
1.24776
1.10078
1.22658
0.989519
1.40755
1.18207
1.32831
0.786708
0.964632
1.05903
1.43901
0.921322
1.27353
0.980756
1.06004
0.895552
1.08512
1.04244
1.35749
1.43954
0.854566
1.23387
1.06214
1.00999
1.3783
0.931987
0.968334
1.45146
0.82141
1.1668
1.29556
1.42732
1.4659
0.990698
0.984162
0.864904
1.04926
0.940975
1.05876
1.30096
1.03496
0.884021
1.11422
1.13879
1.02376
0.941397
1.06048
1.15015
0.8871
1.34592
1.32593
0.995622
1.33401
0.797226
0.860565
0.92088
0.804532
1.45569
1.04319
1.04411
0.990601
1.37256
1.43082
1.1954
1.3093
0.961464
0.971226
1.14245
1.04473
0.960584
1.43092
1.19163
1.22762
1.45933
1.35168
1.10185
1.44365
0.853437
1.20078
1.19547
1.25457
1.01144
1.42093
1.03807
1.2406
1.12436
1.02194
0.932214
0.993653
1.323
1.38131
1.40792
1.14825
1.17334
1.43235
1.32744
1.12141
1.16255
0.909843
1.0842
1.36874
0.848892
1.393
1.04637
1.40376
1.46671
1.43619
1.03928
1.35584
1.39614
0.728973
1.42705
0.947009
1.44058
1.35638
1.06288
0.922592
1.18407
1.08873
0.988375
0.962479
1.31093
1.00136
1.45181
0.922971
1.00049
0.931213
0.918892
1.04571
1.37753
1.46516
0.917814
1.30678
1.15676
1.24604
1.09567
1.20679
1.42418
1.36345
1.05383
1.41502
1.37741
1.46329
0.914682
1.03979
0.957215
1.31823
1.45638
1.38793
1.11376
1.45585
1.12538
0.864511
0.921509
0.758288
1.09616
0.898844
1.46256
1.47016
1.18019
1.4707
1.36956
1.1979
1.451
0.912732
1.41586
1.08424
1.4311
1.05126
0.927103
1.31785
1.18813
1.44146
1.42542
1.42918
0.945926
0.947995
0.841105
1.38342
1.36155
0.897318
1.13095
1.36264
0.798855
1.01186
0.944192
1.07848
1.22878
1.06928
1.19609
1.26255
1.1649
1.17697
1.33397
1.04815
1.06739
1.23971
1.16924
1.05365
1.40423
1.43746
0.901625
1.35556
0.784408
1.00215
1.4073
1.33736
1.05297
1.43604
0.906824
1.32727
1.07073
1.05568
1.41214
1.055
1.33668
1.31412
1.27436
1.47805
1.28873
0.869401
1.2641
1.08527
1.34244
1.46957
1.27398
1.12454
0.961962
1.05632
1.41433
0.897127
1.35132
0.950527
1.19518
1.34402
1.32787
1.16179
1.40943
1.45754
1.05625
1.04861
1.17717
0.938692
0.893593
1.20253
1.31912
0.959804
0.87312
0.927355
0.873845
1.32126
1.122
1.34941
0.989545
1.43524
1.15484
1.37872
1.45471
0.982298
1.4229
1.03638
1.18546
1.13715
1.38907
0.970803
1.08595
1.14671
0.936755
1.05953
0.918119
0.897988
0.786195
1.45768
1.4663
0.956134
0.99263
1.33999
0.850277
0.934601
1.05692
1.3048
1.32368
0.826015
0.786545
1.42362
0.977364
1.22862
0.971211
0.858422
0.925687
1.14215
1.38886
1.23238
0.853122
1.43789
1.38502
0.96106
1.22548
1.04287
1.4571
1.06477
1.09272
0.881241
1.28297
1.43233
1.24635
1.13295
0.981118
1.11056
1.22238
1.45459
1.47325
0.96484
1.46028
0.991053
1.21038
1.20297
1.1192
1.0321
1.39616
1.01446
1.18536
0.962638
1.00996
1.03595
0.927166
1.27573
1.43424
0.966011
1.0115
1.19402
1.0422
0.918136
0.805767
1.0296
1.37013
0.706655
1.04345
1.29524
1.19919
1.11308
1.28173
1.3674
0.899005
0.886355
1.37897
1.10249
0.890772
1.13111
1.38523
1.26614
1.22027
0.967748
0.980043
0.960338
1.45443
1.38324
1.46728
1.10634
1.29636
0.899529
1.14575
1.39026
0.858577
0.867806
1.32823
1.38707
0.841425
1.00907
0.947966
0.874053
0.947003
1.4715
1.08023
1.00367
1.12706
0.959767
1.3089
1.15613
0.887708
1.00461
1.33181
1.10741
1.45878
0.889352
1.01068
1.24769
1.24024
1.13429
1.22625
0.932372
1.46424
1.3872
1.25258
1.39598
0.976956
1.38939
1.27687
1.22854
1.44251
0.851164
1.02598
1.46456
1.28137
0.839955
1.05225
1.3501
1.46309
1.14927
1.33633
0.962598
0.876565
0.948089
0.838599
1.39082
0.994197
1.1774
1.44893
0.972142
0.897908
0.98668
1.17021
0.988169
1.04401
0.965613
0.915897
1.11032
1.36196
1.44386
1.28964
1.0239
1.02373
0.820622
1.01949
1.25985
1.24059
1.25499
1.30659
1.02584
1.14933
1.35811
1.39349
1.46773
1.41546
1.44592
1.11996
0.904026
0.956198
0.91296
1.45505
1.17649
0.998678
1.44175
0.907472
1.36015
1.30299
1.01417
0.963287
1.02374
0.993521
1.3914
1.09691
1.30675
1.13579
1.4416
1.21477
1.47832
0.951522
1.14449
1.03227
0.77675
1.04432
1.31992
0.877214
0.589857
1.22069
1.41879
1.34398
0.995508
0.892793
0.952785
0.911279
0.966736
0.905205
1.1173
0.927649
1.33089
0.94907
0.986688
1.38064
1.11926
1.20923
1.37939
1.12124
1.17914
0.946208
1.32582
1.10144
1.00296
1.09596
0.932685
0.880983
0.987198
0.930482
1.33241
1.46663
1.3998
1.21168
1.30417
0.848561
1.45833
1.20247
1.3022
0.964591
1.316
1.05246
1.0537
1.36992
1.43525
1.32851
1.22678
1.0576
1.47502
1.04052
1.35451
1.45035
1.29251
1.08237
0.84296
1.35625
1.17818
0.924291
1.2798
1.1784
1.44037
0.988574
1.44891
1.46943
1.10464
0.950728
1.45055
0.891989
0.934893
1.05366
0.934108
1.02579
0.932076
0.892868
1.13386
0.984127
0.948083
1.02981
1.23283
1.01639
0.981376
1.27411
1.17371
0.850897
1.43395
1.45894
1.45473
0.972548
0.849182
1.47896
0.88085
1.11134
0.937458
1.05792
0.959246
1.32478
1.03329
1.04753
0.873741
0.855056
0.925286
1.03334
0.828623
1.15759
1.20314
1.14817
1.44088
1.16931
1.26535
1.07319
1.3814
1.07445
1.05141
1.47106
1.0498
1.16417
0.896355
1.28748
1.46576
1.11018
1.2319
1.17194
1.05408
0.964133
0.969595
0.924211
1.33635
0.94302
1.09409
1.04525
1.10834
0.95227
0.970714
1.11692
1.08984
1.0124
1.45276
1.12437
1.07627
1.2244
1.43945
1.04922
0.859224
1.34086
0.894154
1.07369
0.954258
1.10595
1.0435
1.00753
1.10124
1.46428
1.39779
0.87142
1.01079
0.850748
0.935549
0.839839
0.928378
1.0298
0.946551
1.0451
1.25199
1.47324
1.0442
1.30983
1.15345
1.45517
1.0355
1.46851
1.25416
0.898754
1.24031
1.31333
1.05769
1.37845
0.952411
1.40796
1.00165
0.655346
1.13164
1.47368
1.45424
1.33659
1.25046
1.2909
0.860412
1.02819
1.28404
1.47663
0.672269
1.12603
0.952461
1.06876
1.10026
0.957363
0.908612
1.00225
0.925798
1.00173
1.08333
1.10276
1.47592
1.38153
0.834109
1.34989
0.944213
0.956767
1.3641
0.995833
1.07256
1.27801
0.73129
0.978576
1.14235
1.40241
0.915076
0.987348
1.06312
1.25258
0.913067
1.44176
0.847522
1.04505
1.07232
0.992581
1.25109
1.2537
1.4428
0.958286
1.32149
1.21674
1.24202
0.964906
1.24868
0.944836
0.902757
0.809628
1.18906
1.13831
1.07158
1.40731
1.13413
1.14391
1.24494
0.959063
0.939642
1.0407
1.2174
0.972605
1.47133
0.89343
0.849832
1.05501
1.04812
0.979115
0.934612
1.30588
1.05424
1.14815
0.905829
0.952647
1.15316
0.862049
1.47039
1.44168
0.914448
0.953536
1.3764
1.13667
0.958618
0.891402
0.948646
0.914738
1.20878
1.42572
0.957483
0.854443
1.25131
1.1215
0.849162
0.914713
1.12113
1.30324
1.46841
0.900178
0.862123
1.23091
1.3872
1.09628
1.19921
1.06977
0.958162
1.04983
1.25514
1.136
0.967082
1.36083
1.06755
0.818871
1.19358
0.988959
1.36665
1.4773
0.975677
1.03995
1.05232
1.03506
0.900051
1.05198
0.911707
1.44544
1.37107
1.30605
1.03605
0.868662
1.35394
1.46035
0.978971
1.1867
1.04334
0.782216
1.1719
1.0525
0.795562
0.915601
1.20956
0.896794
0.854264
0.926736
1.31544
0.880017
1.35977
1.08415
0.987681
1.08645
0.94621
1.36735
0.81942
1.04621
1.09762
0.899091
1.19313
1.28161
1.21961
1.14488
1.34387
0.916531
0.913803
1.42396
0.960972
1.41834
1.2355
1.10403
1.17784
1.40322
1.12056
0.847757
1.43868
0.956325
1.10732
1.3953
0.953705
1.45008
0.968957
1.07117
0.735376
1.05987
0.92325
1.13413
0.939525
0.817721
0.920111
0.915536
0.787502
1.42722
0.914576
1.06456
1.20376
1.13357
1.4627
1.46576
1.03576
1.0901
1.36986
1.02572
1.42781
0.797865
1.08014
1.17224
0.98215
1.37949
1.04179
1.04655
1.00899
0.973074
0.930649
0.826651
1.4046
0.514963
1.431
1.31074
0.942617
0.85839
0.928213
1.4726
1.29376
1.26622
1.10953
1.19191
1.09922
1.40219
1.34132
0.948903
1.23398
1.44495
1.11715
1.1824
1.23475
0.831196
0.909356
1.33136
1.05644
1.10004
1.45159
0.9112
0.803771
0.988177
1.09973
1.1267
1.45324
0.97624
0.877505
0.977535
1.09604
0.98357
1.41817
1.08608
0.927014
1.05254
0.976829
0.954328
1.01887
1.24261
1.11662
0.940544
1.40896
1.06456
1.33027
0.942326
0.907024
1.05513
1.4009
1.45801
1.33506
1.16645
1.13882
1.35511
1.44708
0.891379
1.43244
0.923679
1.27281
1.26124
1.41218
1.16242
1.40313
1.4343
0.971005
0.943021
1.06657
1.12974
0.91893
0.885646
0.816595
1.328
1.38645
0.887369
1.44014
1.15617
1.34616
1.11498
0.943241
1.37269
1.34932
1.04088
0.998124
0.92318
1.46886
1.29962
1.47925
0.893363
0.919077
1.08393
1.38708
1.2545
1.36836
1.16615
1.44883
0.995856
1.082
1.18335
1.01582
1.241
0.778832
1.36393
1.12734
1.18179
1.43382
0.882541
0.891909
0.815115
1.18247
1.41309
1.00795
1.26417
0.793388
0.872546
1.10638
0.9948
0.96437
1.37869
1.11322
0.965626
1.08221
1.20663
1.43365
1.19086
1.08192
1.40511
1.13769
1.44888
1.17762
1.31072
1.08958
0.887529
1.47072
0.939173
1.16405
1.2251
1.42735
1.29268
1.13634
0.957136
1.47507
1.07248
0.939005
1.33729
1.45971
1.31841
1.26964
0.876522
0.808909
1.19977
0.943092
1.06453
1.16958
0.940188
1.43472
1.46229
1.43221
1.00662
1.05731
0.961848
1.04155
1.26835
0.918065
1.29291
1.44089
0.88557
1.04629
0.985191
1.36138
1.27662
1.05852
0.947267
1.31669
0.95176
0.757623
0.923124
1.47927
0.814531
1.36029
1.21534
0.949187
1.43014
1.20695
1.46196
0.723962
1.04622
1.16833
1.44034
1.04346
1.42872
1.21113
0.815502
1.14474
1.00508
1.05585
0.809106
1.3463
1.04907
0.947926
0.856007
1.14579
1.38396
0.745548
1.01462
1.40804
1.0611
1.3968
0.796895
0.947336
0.961258
1.09997
1.03407
0.873221
0.950747
0.76324
1.07596
1.08745
1.34745
1.1692
1.41116
0.954078
1.0525
0.877077
1.12957
0.756131
1.05391
1.47896
1.09347
1.03042
1.47679
0.948791
1.19184
1.24036
0.855127
1.01762
1.11849
1.19094
1.44469
1.45731
1.4612
1.20228
1.06466
1.11023
0.928542
1.37318
1.25984
0.980383
0.994761
1.0203
1.1124
1.46569
1.0881
1.45999
1.05395
1.22086
0.932238
0.959531
0.865753
1.0003
1.42096
1.01543
0.887235
0.920476
1.47445
1.01716
0.943463
0.936473
0.957169
1.29939
1.16296
1.16592
1.06643
1.27993
0.86256
1.11664
1.15325
1.03072
1.39801
1.40965
0.939415
1.41712
1.43715
1.4009
1.16668
1.0768
1.00985
1.09633
1.45302
1.11759
1.20559
1.40964
1.46337
1.43932
1.40612
0.953781
1.25242
1.1318
0.949404
0.845761
1.08263
1.39655
1.47381
1.45108
1.00587
0.922599
0.910664
0.822582
1.24871
1.47002
1.24653
1.32616
1.34518
1.34498
1.31941
0.940364
1.03344
0.996925
0.92041
0.976658
1.06362
0.896931
1.0043
0.966072
1.42973
1.22572
0.849967
1.45309
0.97935
0.975742
1.0999
0.929304
1.30168
1.31499
0.986029
1.21092
1.46437
1.46422
1.27071
1.29928
1.10326
1.15595
1.09632
0.876406
1.19029
1.1995
0.993906
1.26957
1.23689
0.890074
0.602095
0.984669
1.4521
1.01602
1.29646
1.05593
1.42327
1.08946
0.93909
1.36255
1.27263
1.26649
1.19679
0.907847
1.03168
0.884333
1.26933
0.949781
1.36945
1.05323
0.979651
1.22231
0.872803
1.05577
1.46828
0.880384
1.30211
0.990908
0.931119
1.04463
1.08512
1.397
1.4152
1.06262
1.45076
0.849677
1.42527
1.36835
1.32403
0.97377
1.39202
0.917415
1.31474
1.26001
0.760148
1.05935
0.906189
1.45237
1.2959
0.868847
0.921399
1.10923
0.950071
1.28694
0.942765
1.1861
1.47492
0.9802
1.45968
1.19311
1.25079
0.859098
1.38604
0.975335
1.41364
0.57166
0.92852
1.26273
1.35059
1.16332
1.28351
0.94061
1.06748
1.3163
1.27027
0.980663
1.32489
1.26793
1.40817
0.796233
1.06721
0.789525
1.17841
1.29809
1.18299
0.681311
1.01261
1.43501
1.22269
1.03558
1.42088
1.08847
1.30682
0.860541
1.08423
0.946862
1.42003
1.45293
1.29088
1.11759
1.06233
0.912024
1.27574
0.965727
1.38561
0.848912
1.12334
0.872507
0.828791
1.20426
1.42521
1.12558
1.11437
0.975466
0.951264
1.36985
1.10789
1.12469
1.47839
1.27223
0.989813
1.32212
1.39672
1.065
0.888146
0.914767
1.15396
0.963135
1.04111
0.7044
1.25856
1.08829
1.405
0.898596
1.31737
1.39387
1.09923
0.935096
1.05104
0.978607
1.08422
0.806047
1.20211
1.19541
1.14086
1.3914
1.38518
0.879135
1.44572
1.1364
1.40251
1.30282
1.04712
1.24908
1.18467
0.942898
1.43743
1.45061
1.44581
1.05094
1.37254
1.027
1.35642
1.36835
1.28054
1.21787
0.922572
1.09312
1.28599
1.42189
1.04328
1.07574
1.28344
1.01954
1.33425
1.10025
1.25264
0.974931
1.43635
1.30291
1.34077
1.39998
1.46181
1.06965
1.05091
1.41807
0.847714
1.42984
1.32891
1.1595
1.10648
1.46345
1.0184
1.02875
1.02956
0.855484
1.20974
0.939183
1.18229
1.44356
1.08301
1.34858
0.962752
0.931783
1.45504
1.27479
0.991667
0.66336
1.44596
0.671641
0.99886
1.01902
1.44088
1.45742
1.02603
1.45513
1.10937
0.953593
1.35981
1.08316
0.953767