/*--------------------------------*- C++ -*----------------------------------*\
  =========                 |
  \\      /  F ield         | OpenFOAM: The Open Source CFD Toolbox
   \\    /   O peration     | Website:  https://openfoam.org
    \\  /    A nd           | Version:  6
     \\/     M anipulation  |
\*---------------------------------------------------------------------------*/
FoamFile
{
    version     2.0;
    format      ascii;
    class       volVectorField;
    location    "0";
    object      U;
}
// * * * * * * * * * * * * * * * * * * * * * * * * * * * * * * * * * * * * * //

dimensions      [0 1 -1 0 0 0 0];

internalField   nonuniform List<vector> 
40000
(
(4.41516e-07 -4.41527e-07 0)
(1.78288e-06 -5.41028e-07 0)
(2.79356e-06 -3.35427e-07 0)
(2.86871e-06 2.75198e-09 0)
(1.62478e-06 3.78613e-07 0)
(-1.04318e-06 7.54733e-07 0)
(-5.12062e-06 1.11196e-06 0)
(-1.05371e-05 1.4414e-06 0)
(-1.71945e-05 1.74006e-06 0)
(-2.49837e-05 2.00791e-06 0)
(-3.37929e-05 2.24622e-06 0)
(-4.35136e-05 2.45677e-06 0)
(-5.40426e-05 2.64156e-06 0)
(-6.52837e-05 2.80273e-06 0)
(-7.71481e-05 2.94243e-06 0)
(-8.95544e-05 3.06277e-06 0)
(-0.000102429 3.16567e-06 0)
(-0.000115703 3.25294e-06 0)
(-0.000129319 3.32624e-06 0)
(-0.00014322 3.38712e-06 0)
(-0.00015736 3.43704e-06 0)
(-0.000171695 3.47732e-06 0)
(-0.000186189 3.50915e-06 0)
(-0.000200806 3.53363e-06 0)
(-0.00021552 3.55173e-06 0)
(-0.000230304 3.56434e-06 0)
(-0.000245137 3.57224e-06 0)
(-0.00026 3.57613e-06 0)
(-0.000274878 3.57664e-06 0)
(-0.000289756 3.57429e-06 0)
(-0.000304624 3.56954e-06 0)
(-0.000319471 3.5628e-06 0)
(-0.00033429 3.5544e-06 0)
(-0.000349074 3.54463e-06 0)
(-0.000363817 3.53372e-06 0)
(-0.000378514 3.52186e-06 0)
(-0.000393161 3.50921e-06 0)
(-0.000407755 3.49588e-06 0)
(-0.000422293 3.48196e-06 0)
(-0.000436772 3.46752e-06 0)
(-0.00045119 3.4526e-06 0)
(-0.000465545 3.43723e-06 0)
(-0.000479834 3.42142e-06 0)
(-0.000494056 3.40517e-06 0)
(-0.000508208 3.38848e-06 0)
(-0.000522288 3.37131e-06 0)
(-0.000536295 3.35366e-06 0)
(-0.000550225 3.33549e-06 0)
(-0.000564078 3.31678e-06 0)
(-0.00057785 3.29749e-06 0)
(-0.000591539 3.27759e-06 0)
(-0.000605141 3.25704e-06 0)
(-0.000618656 3.23582e-06 0)
(-0.000632078 3.21388e-06 0)
(-0.000645406 3.19119e-06 0)
(-0.000658636 3.16772e-06 0)
(-0.000671765 3.14343e-06 0)
(-0.000684788 3.11829e-06 0)
(-0.000697704 3.09226e-06 0)
(-0.000710508 3.06531e-06 0)
(-0.000723195 3.03742e-06 0)
(-0.000735763 3.00854e-06 0)
(-0.000748206 2.97866e-06 0)
(-0.000760521 2.94774e-06 0)
(-0.000772704 2.91575e-06 0)
(-0.000784749 2.88267e-06 0)
(-0.000796653 2.84846e-06 0)
(-0.000808411 2.81311e-06 0)
(-0.000820017 2.77658e-06 0)
(-0.000831467 2.73886e-06 0)
(-0.000842756 2.6999e-06 0)
(-0.000853879 2.6597e-06 0)
(-0.000864831 2.61821e-06 0)
(-0.000875605 2.57543e-06 0)
(-0.000886198 2.53132e-06 0)
(-0.000896603 2.48586e-06 0)
(-0.000906816 2.43904e-06 0)
(-0.000916829 2.39082e-06 0)
(-0.000926638 2.34121e-06 0)
(-0.000936236 2.29016e-06 0)
(-0.000945619 2.23767e-06 0)
(-0.000954779 2.18373e-06 0)
(-0.000963711 2.12831e-06 0)
(-0.000972409 2.0714e-06 0)
(-0.000980866 2.013e-06 0)
(-0.000989077 1.95308e-06 0)
(-0.000997036 1.89163e-06 0)
(-0.00100474 1.82866e-06 0)
(-0.00101217 1.76415e-06 0)
(-0.00101933 1.6981e-06 0)
(-0.00102622 1.6305e-06 0)
(-0.00103282 1.56136e-06 0)
(-0.00103913 1.49067e-06 0)
(-0.00104514 1.41844e-06 0)
(-0.00105085 1.34467e-06 0)
(-0.00105625 1.26937e-06 0)
(-0.00106134 1.19254e-06 0)
(-0.0010661 1.11421e-06 0)
(-0.00107054 1.03437e-06 0)
(-0.00107464 9.53053e-07 0)
(-0.0010784 8.70268e-07 0)
(-0.00108182 7.86038e-07 0)
(-0.00108489 7.00387e-07 0)
(-0.00108759 6.13341e-07 0)
(-0.00108994 5.24928e-07 0)
(-0.00109191 4.35179e-07 0)
(-0.00109351 3.4413e-07 0)
(-0.00109474 2.51816e-07 0)
(-0.00109557 1.58277e-07 0)
(-0.00109602 6.35545e-08 0)
(-0.00109608 -3.23058e-08 0)
(-0.00109573 -1.29256e-07 0)
(-0.00109499 -2.27246e-07 0)
(-0.00109383 -3.26223e-07 0)
(-0.00109227 -4.26128e-07 0)
(-0.00109029 -5.26904e-07 0)
(-0.00108789 -6.28488e-07 0)
(-0.00108507 -7.30816e-07 0)
(-0.00108183 -8.33822e-07 0)
(-0.00107816 -9.37436e-07 0)
(-0.00107406 -1.04159e-06 0)
(-0.00106953 -1.1462e-06 0)
(-0.00106457 -1.2512e-06 0)
(-0.00105917 -1.35651e-06 0)
(-0.00105334 -1.46205e-06 0)
(-0.00104707 -1.56774e-06 0)
(-0.00104037 -1.6735e-06 0)
(-0.00103322 -1.77923e-06 0)
(-0.00102565 -1.88486e-06 0)
(-0.00101763 -1.9903e-06 0)
(-0.00100918 -2.09546e-06 0)
(-0.0010003 -2.20025e-06 0)
(-0.000990979 -2.30458e-06 0)
(-0.000981232 -2.40837e-06 0)
(-0.000971058 -2.51152e-06 0)
(-0.000960458 -2.61393e-06 0)
(-0.000949436 -2.71553e-06 0)
(-0.000937996 -2.81622e-06 0)
(-0.000926141 -2.91591e-06 0)
(-0.000913876 -3.01452e-06 0)
(-0.000901204 -3.11194e-06 0)
(-0.000888132 -3.2081e-06 0)
(-0.000874664 -3.30291e-06 0)
(-0.000860806 -3.39628e-06 0)
(-0.000846564 -3.48812e-06 0)
(-0.000831944 -3.57835e-06 0)
(-0.000816953 -3.66688e-06 0)
(-0.000801598 -3.75363e-06 0)
(-0.000785887 -3.83852e-06 0)
(-0.000769827 -3.92144e-06 0)
(-0.000753427 -4.00232e-06 0)
(-0.000736694 -4.08107e-06 0)
(-0.000719639 -4.15758e-06 0)
(-0.000702269 -4.23177e-06 0)
(-0.000684596 -4.30352e-06 0)
(-0.000666628 -4.37273e-06 0)
(-0.000648378 -4.43926e-06 0)
(-0.000629856 -4.503e-06 0)
(-0.000611074 -4.56378e-06 0)
(-0.000592045 -4.62145e-06 0)
(-0.000572781 -4.67583e-06 0)
(-0.000553297 -4.72671e-06 0)
(-0.000533608 -4.77387e-06 0)
(-0.000513731 -4.81705e-06 0)
(-0.00049368 -4.85598e-06 0)
(-0.000473477 -4.89034e-06 0)
(-0.000453139 -4.91976e-06 0)
(-0.000432689 -4.94386e-06 0)
(-0.000412149 -4.9622e-06 0)
(-0.000391544 -4.9743e-06 0)
(-0.000370903 -4.9796e-06 0)
(-0.000350253 -4.97752e-06 0)
(-0.000329628 -4.9674e-06 0)
(-0.000309062 -4.94853e-06 0)
(-0.000288593 -4.92013e-06 0)
(-0.000268263 -4.88133e-06 0)
(-0.000248116 -4.83122e-06 0)
(-0.000228203 -4.76879e-06 0)
(-0.000208574 -4.69297e-06 0)
(-0.00018929 -4.6026e-06 0)
(-0.000170411 -4.49643e-06 0)
(-0.000152005 -4.37315e-06 0)
(-0.000134147 -4.23134e-06 0)
(-0.000116913 -4.0695e-06 0)
(-0.000100389 -3.88608e-06 0)
(-8.46657e-05 -3.67943e-06 0)
(-6.98394e-05 -3.44786e-06 0)
(-5.60128e-05 -3.18968e-06 0)
(-4.32943e-05 -2.90323e-06 0)
(-3.17971e-05 -2.58705e-06 0)
(-2.16374e-05 -2.23999e-06 0)
(-1.2932e-05 -1.86166e-06 0)
(-5.79298e-06 -1.45294e-06 0)
(-3.20003e-07 -1.01718e-06 0)
(3.41478e-06 -5.62274e-07 0)
(5.39092e-06 -1.04693e-07 0)
(5.67821e-06 3.24646e-07 0)
(4.52034e-06 6.70298e-07 0)
(2.53757e-06 8.04428e-07 0)
(5.51229e-07 5.51243e-07 0)
(5.41745e-07 -1.78363e-06 0)
(2.1508e-06 -2.14857e-06 0)
(2.41713e-06 -5.80917e-07 0)
(1.89459e-07 1.95183e-06 0)
(-5.28916e-06 4.89221e-06 0)
(-1.43016e-05 7.9282e-06 0)
(-2.68761e-05 1.08876e-05 0)
(-4.28974e-05 1.36794e-05 0)
(-6.21676e-05 1.62596e-05 0)
(-8.44461e-05 1.86109e-05 0)
(-0.000109474 2.07313e-05 0)
(-0.000136989 2.26275e-05 0)
(-0.000166733 2.43104e-05 0)
(-0.000198462 2.57938e-05 0)
(-0.000231944 2.70923e-05 0)
(-0.000266963 2.82213e-05 0)
(-0.000303321 2.91957e-05 0)
(-0.000340837 3.00299e-05 0)
(-0.000379345 3.07379e-05 0)
(-0.000418696 3.13327e-05 0)
(-0.000458755 3.18263e-05 0)
(-0.000499401 3.22304e-05 0)
(-0.000540529 3.25552e-05 0)
(-0.000582042 3.28105e-05 0)
(-0.000623858 3.3005e-05 0)
(-0.000665905 3.31467e-05 0)
(-0.000708117 3.32427e-05 0)
(-0.00075044 3.32993e-05 0)
(-0.000792827 3.33224e-05 0)
(-0.000835236 3.33167e-05 0)
(-0.000877632 3.32867e-05 0)
(-0.000919986 3.32362e-05 0)
(-0.000962273 3.31684e-05 0)
(-0.00100447 3.30859e-05 0)
(-0.00104656 3.29912e-05 0)
(-0.00108853 3.2886e-05 0)
(-0.00113036 3.27719e-05 0)
(-0.00117204 3.26502e-05 0)
(-0.00121356 3.25218e-05 0)
(-0.00125492 3.23874e-05 0)
(-0.0012961 3.22476e-05 0)
(-0.0013371 3.21026e-05 0)
(-0.00137791 3.19528e-05 0)
(-0.00141853 3.17981e-05 0)
(-0.00145894 3.16387e-05 0)
(-0.00149914 3.14744e-05 0)
(-0.00153913 3.13051e-05 0)
(-0.0015789 3.11305e-05 0)
(-0.00161843 3.09506e-05 0)
(-0.00165773 3.07649e-05 0)
(-0.00169679 3.05734e-05 0)
(-0.00173559 3.03756e-05 0)
(-0.00177413 3.01713e-05 0)
(-0.0018124 2.99603e-05 0)
(-0.0018504 2.97421e-05 0)
(-0.00188811 2.95166e-05 0)
(-0.00192552 2.92834e-05 0)
(-0.00196262 2.90422e-05 0)
(-0.0019994 2.87928e-05 0)
(-0.00203586 2.85349e-05 0)
(-0.00207198 2.82681e-05 0)
(-0.00210775 2.79924e-05 0)
(-0.00214316 2.77072e-05 0)
(-0.00217819 2.74125e-05 0)
(-0.00221284 2.7108e-05 0)
(-0.00224708 2.67934e-05 0)
(-0.00228092 2.64685e-05 0)
(-0.00231433 2.6133e-05 0)
(-0.0023473 2.57866e-05 0)
(-0.00237982 2.54293e-05 0)
(-0.00241188 2.50607e-05 0)
(-0.00244345 2.46807e-05 0)
(-0.00247453 2.42889e-05 0)
(-0.0025051 2.38853e-05 0)
(-0.00253514 2.34696e-05 0)
(-0.00256464 2.30416e-05 0)
(-0.00259359 2.26011e-05 0)
(-0.00262197 2.2148e-05 0)
(-0.00264975 2.1682e-05 0)
(-0.00267694 2.12031e-05 0)
(-0.0027035 2.07111e-05 0)
(-0.00272942 2.02058e-05 0)
(-0.0027547 1.96871e-05 0)
(-0.0027793 1.91548e-05 0)
(-0.00280321 1.8609e-05 0)
(-0.00282642 1.80494e-05 0)
(-0.0028489 1.7476e-05 0)
(-0.00287065 1.68888e-05 0)
(-0.00289164 1.62876e-05 0)
(-0.00291186 1.56725e-05 0)
(-0.00293128 1.50433e-05 0)
(-0.0029499 1.44002e-05 0)
(-0.00296768 1.37431e-05 0)
(-0.00298463 1.3072e-05 0)
(-0.00300071 1.2387e-05 0)
(-0.00301591 1.16882e-05 0)
(-0.00303022 1.09756e-05 0)
(-0.00304361 1.02493e-05 0)
(-0.00305607 9.50951e-06 0)
(-0.00306759 8.75631e-06 0)
(-0.00307814 7.98988e-06 0)
(-0.00308771 7.21042e-06 0)
(-0.00309628 6.41813e-06 0)
(-0.00310384 5.61326e-06 0)
(-0.00311038 4.79605e-06 0)
(-0.00311587 3.9668e-06 0)
(-0.0031203 3.12582e-06 0)
(-0.00312366 2.27343e-06 0)
(-0.00312593 1.40999e-06 0)
(-0.0031271 5.35888e-07 0)
(-0.00312716 -3.4848e-07 0)
(-0.0031261 -1.24268e-06 0)
(-0.0031239 -2.14626e-06 0)
(-0.00312054 -3.05873e-06 0)
(-0.00311603 -3.9796e-06 0)
(-0.00311035 -4.90833e-06 0)
(-0.00310349 -5.84438e-06 0)
(-0.00309544 -6.78716e-06 0)
(-0.00308619 -7.73609e-06 0)
(-0.00307574 -8.69055e-06 0)
(-0.00306408 -9.6499e-06 0)
(-0.00305121 -1.06135e-05 0)
(-0.00303711 -1.15806e-05 0)
(-0.00302179 -1.25506e-05 0)
(-0.00300524 -1.35227e-05 0)
(-0.00298747 -1.44963e-05 0)
(-0.00296846 -1.54705e-05 0)
(-0.00294822 -1.64446e-05 0)
(-0.00292674 -1.74179e-05 0)
(-0.00290404 -1.83895e-05 0)
(-0.00288011 -1.93588e-05 0)
(-0.00285496 -2.03248e-05 0)
(-0.00282859 -2.12868e-05 0)
(-0.002801 -2.2244e-05 0)
(-0.00277221 -2.31955e-05 0)
(-0.00274222 -2.41406e-05 0)
(-0.00271104 -2.50784e-05 0)
(-0.00267867 -2.60082e-05 0)
(-0.00264514 -2.69291e-05 0)
(-0.00261044 -2.78403e-05 0)
(-0.0025746 -2.8741e-05 0)
(-0.00253762 -2.96304e-05 0)
(-0.00249953 -3.05077e-05 0)
(-0.00246033 -3.13722e-05 0)
(-0.00242005 -3.2223e-05 0)
(-0.0023787 -3.30593e-05 0)
(-0.00233629 -3.38804e-05 0)
(-0.00229286 -3.46854e-05 0)
(-0.00224841 -3.54736e-05 0)
(-0.00220298 -3.62442e-05 0)
(-0.00215658 -3.69962e-05 0)
(-0.00210923 -3.77289e-05 0)
(-0.00206097 -3.84413e-05 0)
(-0.00201182 -3.91324e-05 0)
(-0.00196181 -3.98014e-05 0)
(-0.00191096 -4.0447e-05 0)
(-0.0018593 -4.10681e-05 0)
(-0.00180687 -4.16634e-05 0)
(-0.0017537 -4.22316e-05 0)
(-0.00169983 -4.27709e-05 0)
(-0.00164529 -4.32798e-05 0)
(-0.00159012 -4.37562e-05 0)
(-0.00153437 -4.4198e-05 0)
(-0.00147808 -4.46028e-05 0)
(-0.0014213 -4.49679e-05 0)
(-0.00136408 -4.52904e-05 0)
(-0.00130648 -4.55667e-05 0)
(-0.00124856 -4.57934e-05 0)
(-0.00119039 -4.59662e-05 0)
(-0.00113203 -4.60805e-05 0)
(-0.00107357 -4.61315e-05 0)
(-0.00101509 -4.61134e-05 0)
(-0.00095668 -4.60204e-05 0)
(-0.000898439 -4.58459e-05 0)
(-0.000840476 -4.55826e-05 0)
(-0.000782908 -4.52229e-05 0)
(-0.000725863 -4.47584e-05 0)
(-0.000669479 -4.41802e-05 0)
(-0.000613905 -4.34786e-05 0)
(-0.000559303 -4.26435e-05 0)
(-0.000505848 -4.1664e-05 0)
(-0.000453726 -4.05289e-05 0)
(-0.00040314 -3.92261e-05 0)
(-0.000354307 -3.77435e-05 0)
(-0.000307455 -3.60685e-05 0)
(-0.000262831 -3.41884e-05 0)
(-0.000220692 -3.20908e-05 0)
(-0.000181309 -2.97645e-05 0)
(-0.000144964 -2.71995e-05 0)
(-0.000111943 -2.43894e-05 0)
(-8.25338e-05 -2.13326e-05 0)
(-5.70155e-05 -1.80367e-05 0)
(-3.56418e-05 -1.45232e-05 0)
(-1.86196e-05 -1.08378e-05 0)
(-6.07298e-06 -7.0652e-06 0)
(2.01141e-06 -3.3553e-06 0)
(5.86263e-06 3.45873e-08 0)
(6.06716e-06 2.67366e-06 0)
(3.85431e-06 3.85808e-06 0)
(8.02659e-07 2.53611e-06 0)
(3.37191e-07 -2.79763e-06 0)
(5.84906e-07 -2.41588e-06 0)
(-1.78354e-06 1.78491e-06 0)
(-8.08262e-06 7.99283e-06 0)
(-1.91549e-05 1.51282e-05 0)
(-3.53742e-05 2.2538e-05 0)
(-5.68137e-05 2.98313e-05 0)
(-8.33533e-05 3.6783e-05 0)
(-0.000114751 4.32704e-05 0)
(-0.000150693 4.92346e-05 0)
(-0.000190827 5.46556e-05 0)
(-0.000234786 5.95375e-05 0)
(-0.000282202 6.38989e-05 0)
(-0.000332718 6.77665e-05 0)
(-0.000385993 7.11721e-05 0)
(-0.000441702 7.41495e-05 0)
(-0.000499547 7.67333e-05 0)
(-0.000559249 7.8958e-05 0)
(-0.000620554 8.08569e-05 0)
(-0.00068323 8.2462e-05 0)
(-0.000747066 8.38034e-05 0)
(-0.000811872 8.49096e-05 0)
(-0.000877481 8.5807e-05 0)
(-0.00094374 8.65201e-05 0)
(-0.00101052 8.70712e-05 0)
(-0.00107769 8.74808e-05 0)
(-0.00114516 8.77673e-05 0)
(-0.00121284 8.79474e-05 0)
(-0.00128064 8.80357e-05 0)
(-0.0013485 8.80453e-05 0)
(-0.00141636 8.79878e-05 0)
(-0.00148418 8.78731e-05 0)
(-0.0015519 8.77097e-05 0)
(-0.00161949 8.75051e-05 0)
(-0.00168692 8.72654e-05 0)
(-0.00175416 8.69957e-05 0)
(-0.00182118 8.67002e-05 0)
(-0.00188798 8.63825e-05 0)
(-0.00195453 8.60451e-05 0)
(-0.0020208 8.56902e-05 0)
(-0.0020868 8.53193e-05 0)
(-0.00215251 8.49334e-05 0)
(-0.00221791 8.45334e-05 0)
(-0.00228299 8.41195e-05 0)
(-0.00234774 8.3692e-05 0)
(-0.00241215 8.32507e-05 0)
(-0.00247621 8.27954e-05 0)
(-0.0025399 8.23256e-05 0)
(-0.00260322 8.1841e-05 0)
(-0.00266615 8.13409e-05 0)
(-0.00272868 8.08247e-05 0)
(-0.0027908 8.02918e-05 0)
(-0.00285249 7.97413e-05 0)
(-0.00291373 7.91727e-05 0)
(-0.00297453 7.85852e-05 0)
(-0.00303485 7.7978e-05 0)
(-0.00309468 7.73505e-05 0)
(-0.00315402 7.67019e-05 0)
(-0.00321283 7.60315e-05 0)
(-0.00327111 7.53385e-05 0)
(-0.00332884 7.46224e-05 0)
(-0.00338599 7.38824e-05 0)
(-0.00344256 7.31178e-05 0)
(-0.00349851 7.23281e-05 0)
(-0.00355384 7.15124e-05 0)
(-0.00360852 7.06704e-05 0)
(-0.00366252 6.98012e-05 0)
(-0.00371584 6.89043e-05 0)
(-0.00376845 6.79791e-05 0)
(-0.00382032 6.7025e-05 0)
(-0.00387144 6.60415e-05 0)
(-0.00392178 6.5028e-05 0)
(-0.00397132 6.39839e-05 0)
(-0.00402003 6.29087e-05 0)
(-0.00406789 6.18019e-05 0)
(-0.00411488 6.06631e-05 0)
(-0.00416098 5.94917e-05 0)
(-0.00420615 5.82873e-05 0)
(-0.00425037 5.70495e-05 0)
(-0.00429362 5.57779e-05 0)
(-0.00433588 5.44721e-05 0)
(-0.0043771 5.31317e-05 0)
(-0.00441728 5.17565e-05 0)
(-0.00445638 5.0346e-05 0)
(-0.00449437 4.89001e-05 0)
(-0.00453123 4.74185e-05 0)
(-0.00456694 4.5901e-05 0)
(-0.00460145 4.43475e-05 0)
(-0.00463476 4.27577e-05 0)
(-0.00466682 4.11317e-05 0)
(-0.00469762 3.94694e-05 0)
(-0.00472712 3.77707e-05 0)
(-0.0047553 3.60357e-05 0)
(-0.00478213 3.42645e-05 0)
(-0.00480758 3.24571e-05 0)
(-0.00483163 3.06139e-05 0)
(-0.00485425 2.8735e-05 0)
(-0.0048754 2.68206e-05 0)
(-0.00489508 2.48712e-05 0)
(-0.00491324 2.2887e-05 0)
(-0.00492986 2.08686e-05 0)
(-0.00494493 1.88165e-05 0)
(-0.0049584 1.67311e-05 0)
(-0.00497026 1.46131e-05 0)
(-0.00498049 1.24633e-05 0)
(-0.00498905 1.02822e-05 0)
(-0.00499594 8.07082e-06 0)
(-0.00500111 5.82991e-06 0)
(-0.00500456 3.56042e-06 0)
(-0.00500626 1.26334e-06 0)
(-0.00500619 -1.06027e-06 0)
(-0.00500433 -3.40931e-06 0)
(-0.00500066 -5.78258e-06 0)
(-0.00499517 -8.17886e-06 0)
(-0.00498783 -1.05968e-05 0)
(-0.00497864 -1.30351e-05 0)
(-0.00496758 -1.54923e-05 0)
(-0.00495463 -1.79669e-05 0)
(-0.00493978 -2.04575e-05 0)
(-0.00492302 -2.29622e-05 0)
(-0.00490434 -2.54797e-05 0)
(-0.00488374 -2.8008e-05 0)
(-0.00486119 -3.05456e-05 0)
(-0.00483671 -3.30905e-05 0)
(-0.00481027 -3.5641e-05 0)
(-0.00478189 -3.81952e-05 0)
(-0.00475155 -4.07511e-05 0)
(-0.00471926 -4.33069e-05 0)
(-0.00468502 -4.58604e-05 0)
(-0.00464883 -4.84098e-05 0)
(-0.00461069 -5.09529e-05 0)
(-0.00457061 -5.34878e-05 0)
(-0.0045286 -5.60123e-05 0)
(-0.00448466 -5.85243e-05 0)
(-0.00443881 -6.10218e-05 0)
(-0.00439105 -6.35027e-05 0)
(-0.0043414 -6.59648e-05 0)
(-0.00428988 -6.84061e-05 0)
(-0.0042365 -7.08245e-05 0)
(-0.00418128 -7.32178e-05 0)
(-0.00412424 -7.55839e-05 0)
(-0.0040654 -7.79209e-05 0)
(-0.00400479 -8.02266e-05 0)
(-0.00394242 -8.2499e-05 0)
(-0.00387832 -8.47359e-05 0)
(-0.00381252 -8.69354e-05 0)
(-0.00374506 -8.90953e-05 0)
(-0.00367595 -9.12135e-05 0)
(-0.00360524 -9.3288e-05 0)
(-0.00353296 -9.53165e-05 0)
(-0.00345913 -9.72969e-05 0)
(-0.00338381 -9.92267e-05 0)
(-0.00330703 -0.000101104 0)
(-0.00322882 -0.000102925 0)
(-0.00314925 -0.000104688 0)
(-0.00306834 -0.000106391 0)
(-0.00298614 -0.000108028 0)
(-0.00290272 -0.000109599 0)
(-0.00281811 -0.000111097 0)
(-0.00273239 -0.00011252 0)
(-0.0026456 -0.000113862 0)
(-0.00255781 -0.000115119 0)
(-0.00246909 -0.000116285 0)
(-0.00237951 -0.000117352 0)
(-0.00228915 -0.000118315 0)
(-0.0021981 -0.000119165 0)
(-0.00210644 -0.000119893 0)
(-0.00201428 -0.000120489 0)
(-0.00192171 -0.000120943 0)
(-0.00182885 -0.000121242 0)
(-0.00173583 -0.000121374 0)
(-0.00164278 -0.000121323 0)
(-0.00154985 -0.000121075 0)
(-0.00145719 -0.000120612 0)
(-0.00136497 -0.000119915 0)
(-0.0012734 -0.000118965 0)
(-0.00118265 -0.00011774 0)
(-0.00109296 -0.000116217 0)
(-0.00100455 -0.000114371 0)
(-0.000917693 -0.000112177 0)
(-0.000832648 -0.000109609 0)
(-0.000749711 -0.000106636 0)
(-0.000669196 -0.000103232 0)
(-0.000591436 -9.93646e-05 0)
(-0.000516785 -9.50057e-05 0)
(-0.000445616 -9.01259e-05 0)
(-0.00037832 -8.46982e-05 0)
(-0.0003153 -7.86989e-05 0)
(-0.000256972 -7.21108e-05 0)
(-0.000203753 -6.49262e-05 0)
(-0.000156051 -5.71532e-05 0)
(-0.000114251 -4.88241e-05 0)
(-7.86917e-05 -4.00091e-05 0)
(-4.96311e-05 -3.08362e-05 0)
(-2.71995e-05 -2.1524e-05 0)
(-1.13335e-05 -1.24303e-05 0)
(-1.68705e-06 -4.12652e-06 0)
(2.50501e-06 2.49673e-06 0)
(2.67276e-06 6.07178e-06 0)
(6.67195e-07 4.51445e-06 0)
(-1.13559e-09 -2.87563e-06 0)
(-1.95736e-06 -1.82326e-07 0)
(-8.02125e-06 8.09184e-06 0)
(-1.94791e-05 1.94325e-05 0)
(-3.70542e-05 3.22702e-05 0)
(-6.11101e-05 4.55985e-05 0)
(-9.17224e-05 5.87787e-05 0)
(-0.000128761 7.14195e-05 0)
(-0.000171956 8.32928e-05 0)
(-0.000220947 9.42769e-05 0)
(-0.000275325 0.000104319 0)
(-0.000334649 0.000113412 0)
(-0.000398475 0.000121577 0)
(-0.000466362 0.000128851 0)
(-0.000537884 0.000135286 0)
(-0.000612635 0.000140937 0)
(-0.000690233 0.000145863 0)
(-0.000770322 0.000150122 0)
(-0.000852572 0.000153774 0)
(-0.000936681 0.000156876 0)
(-0.00102237 0.000159482 0)
(-0.0011094 0.000161643 0)
(-0.00119754 0.000163408 0)
(-0.00128658 0.000164822 0)
(-0.00137636 0.000165925 0)
(-0.0014667 0.000166757 0)
(-0.00155747 0.000167351 0)
(-0.00164855 0.000167738 0)
(-0.00173983 0.000167947 0)
(-0.00183122 0.000168001 0)
(-0.00192262 0.000167923 0)
(-0.00201399 0.000167732 0)
(-0.00210524 0.000167444 0)
(-0.00219633 0.000167073 0)
(-0.00228722 0.000166632 0)
(-0.00237786 0.000166129 0)
(-0.00246823 0.000165575 0)
(-0.00255829 0.000164974 0)
(-0.00264801 0.000164333 0)
(-0.00273737 0.000163656 0)
(-0.00282636 0.000162945 0)
(-0.00291495 0.000162204 0)
(-0.00300312 0.000161434 0)
(-0.00309085 0.000160636 0)
(-0.00317814 0.00015981 0)
(-0.00326496 0.000158957 0)
(-0.00335129 0.000158075 0)
(-0.00343712 0.000157165 0)
(-0.00352244 0.000156226 0)
(-0.00360722 0.000155256 0)
(-0.00369146 0.000154255 0)
(-0.00377512 0.000153222 0)
(-0.00385819 0.000152154 0)
(-0.00394066 0.000151052 0)
(-0.0040225 0.000149913 0)
(-0.00410369 0.000148736 0)
(-0.00418421 0.00014752 0)
(-0.00426404 0.000146264 0)
(-0.00434316 0.000144966 0)
(-0.00442155 0.000143626 0)
(-0.00449917 0.000142241 0)
(-0.00457601 0.000140811 0)
(-0.00465205 0.000139334 0)
(-0.00472724 0.000137809 0)
(-0.00480158 0.000136235 0)
(-0.00487503 0.00013461 0)
(-0.00494757 0.000132935 0)
(-0.00501916 0.000131206 0)
(-0.00508978 0.000129424 0)
(-0.0051594 0.000127588 0)
(-0.00522799 0.000125695 0)
(-0.00529552 0.000123746 0)
(-0.00536196 0.000121739 0)
(-0.00542728 0.000119673 0)
(-0.00549144 0.000117548 0)
(-0.00555442 0.000115362 0)
(-0.00561617 0.000113114 0)
(-0.00567668 0.000110804 0)
(-0.0057359 0.000108432 0)
(-0.0057938 0.000105995 0)
(-0.00585035 0.000103494 0)
(-0.00590551 0.000100927 0)
(-0.00595925 9.82953e-05 0)
(-0.00601153 9.5597e-05 0)
(-0.00606232 9.28318e-05 0)
(-0.00611158 8.99995e-05 0)
(-0.00615927 8.70996e-05 0)
(-0.00620537 8.41318e-05 0)
(-0.00624983 8.10959e-05 0)
(-0.00629261 7.79918e-05 0)
(-0.00633369 7.48194e-05 0)
(-0.00637302 7.15787e-05 0)
(-0.00641057 6.82697e-05 0)
(-0.0064463 6.48927e-05 0)
(-0.00648018 6.14478e-05 0)
(-0.00651218 5.79356e-05 0)
(-0.00654224 5.43562e-05 0)
(-0.00657035 5.07104e-05 0)
(-0.00659646 4.69988e-05 0)
(-0.00662055 4.3222e-05 0)
(-0.00664257 3.9381e-05 0)
(-0.00666249 3.54767e-05 0)
(-0.00668029 3.15101e-05 0)
(-0.00669592 2.74824e-05 0)
(-0.00670935 2.33949e-05 0)
(-0.00672056 1.9249e-05 0)
(-0.00672952 1.50462e-05 0)
(-0.00673619 1.07882e-05 0)
(-0.00674055 6.47661e-06 0)
(-0.00674256 2.1134e-06 0)
(-0.00674221 -2.29948e-06 0)
(-0.00673946 -6.75994e-06 0)
(-0.0067343 -1.12657e-05 0)
(-0.00672669 -1.58146e-05 0)
(-0.00671663 -2.0404e-05 0)
(-0.00670407 -2.50314e-05 0)
(-0.00668902 -2.96942e-05 0)
(-0.00667144 -3.43895e-05 0)
(-0.00665133 -3.91145e-05 0)
(-0.00662867 -4.38661e-05 0)
(-0.00660344 -4.86414e-05 0)
(-0.00657563 -5.34371e-05 0)
(-0.00654524 -5.82499e-05 0)
(-0.00651226 -6.30765e-05 0)
(-0.00647667 -6.79134e-05 0)
(-0.00643848 -7.27572e-05 0)
(-0.00639769 -7.76041e-05 0)
(-0.00635428 -8.24506e-05 0)
(-0.00630827 -8.7293e-05 0)
(-0.00625966 -9.21274e-05 0)
(-0.00620845 -9.69501e-05 0)
(-0.00615465 -0.000101757 0)
(-0.00609826 -0.000106545 0)
(-0.00603931 -0.000111309 0)
(-0.0059778 -0.000116046 0)
(-0.00591375 -0.000120752 0)
(-0.00584718 -0.000125422 0)
(-0.0057781 -0.000130054 0)
(-0.00570654 -0.000134642 0)
(-0.00563252 -0.000139184 0)
(-0.00555607 -0.000143674 0)
(-0.00547722 -0.000148109 0)
(-0.005396 -0.000152486 0)
(-0.00531243 -0.0001568 0)
(-0.00522655 -0.000161048 0)
(-0.0051384 -0.000165225 0)
(-0.00504803 -0.000169328 0)
(-0.00495546 -0.000173352 0)
(-0.00486074 -0.000177293 0)
(-0.00476391 -0.000181148 0)
(-0.00466503 -0.000184913 0)
(-0.00456414 -0.000188581 0)
(-0.0044613 -0.00019215 0)
(-0.00435656 -0.000195614 0)
(-0.00424998 -0.000198967 0)
(-0.00414161 -0.000202205 0)
(-0.00403153 -0.000205321 0)
(-0.0039198 -0.000208308 0)
(-0.00380649 -0.000211158 0)
(-0.00369168 -0.000213865 0)
(-0.00357544 -0.000216419 0)
(-0.00345787 -0.00021881 0)
(-0.00333905 -0.000221026 0)
(-0.00321909 -0.000223056 0)
(-0.00309809 -0.000224886 0)
(-0.00297615 -0.0002265 0)
(-0.00285341 -0.000227881 0)
(-0.00272999 -0.000229012 0)
(-0.00260604 -0.000229871 0)
(-0.00248171 -0.000230435 0)
(-0.00235716 -0.00023068 0)
(-0.00223258 -0.000230578 0)
(-0.00210816 -0.000230099 0)
(-0.00198411 -0.000229212 0)
(-0.00186067 -0.000227882 0)
(-0.00173807 -0.000226071 0)
(-0.00161659 -0.00022374 0)
(-0.00149652 -0.000220846 0)
(-0.00137817 -0.000217343 0)
(-0.00126188 -0.000213186 0)
(-0.00114799 -0.000208324 0)
(-0.0010369 -0.000202708 0)
(-0.000929019 -0.000196284 0)
(-0.000824772 -0.000189001 0)
(-0.000724617 -0.000180808 0)
(-0.000629032 -0.000171656 0)
(-0.000538512 -0.000161502 0)
(-0.000453567 -0.000150311 0)
(-0.000374712 -0.00013806 0)
(-0.000302461 -0.000124748 0)
(-0.000237306 -0.000110405 0)
(-0.000179703 -9.51062e-05 0)
(-0.000130044 -7.89952e-05 0)
(-8.86136e-05 -6.23164e-05 0)
(-5.55457e-05 -4.54626e-05 0)
(-3.07534e-05 -2.90448e-05 0)
(-1.38482e-05 -1.39898e-05 0)
(-4.02964e-06 -1.67159e-06 0)
(6.59338e-08 5.89184e-06 0)
(3.2358e-07 5.67354e-06 0)
(-3.79603e-07 -1.62681e-06 0)
(-4.92824e-06 5.32956e-06 0)
(-1.52395e-05 1.92152e-05 0)
(-3.2471e-05 3.70381e-05 0)
(-5.70923e-05 5.68436e-05 0)
(-8.93734e-05 7.73193e-05 0)
(-0.000129342 9.75938e-05 0)
(-0.000176834 0.000117108 0)
(-0.000231547 0.000135518 0)
(-0.000293087 0.000152629 0)
(-0.000360998 0.000168345 0)
(-0.000434791 0.000182639 0)
(-0.000513965 0.000195527 0)
(-0.000598018 0.000207058 0)
(-0.00068646 0.000217299 0)
(-0.000778821 0.000226326 0)
(-0.000874654 0.000234224 0)
(-0.00097354 0.000241081 0)
(-0.00107509 0.000246983 0)
(-0.00117894 0.000252017 0)
(-0.00128476 0.000256264 0)
(-0.00139225 0.000259803 0)
(-0.00150114 0.00026271 0)
(-0.00161119 0.000265053 0)
(-0.00172216 0.000266897 0)
(-0.00183387 0.000268302 0)
(-0.00194615 0.000269321 0)
(-0.00205883 0.000270003 0)
(-0.00217178 0.000270393 0)
(-0.0022849 0.00027053 0)
(-0.00239806 0.000270448 0)
(-0.00251119 0.000270179 0)
(-0.0026242 0.000269747 0)
(-0.00273703 0.000269177 0)
(-0.00284962 0.000268488 0)
(-0.00296192 0.000267696 0)
(-0.00307388 0.000266814 0)
(-0.00318546 0.000265854 0)
(-0.00329663 0.000264825 0)
(-0.00340736 0.000263734 0)
(-0.00351761 0.000262586 0)
(-0.00362737 0.000261385 0)
(-0.00373661 0.000260135 0)
(-0.0038453 0.000258837 0)
(-0.00395342 0.000257492 0)
(-0.00406096 0.0002561 0)
(-0.00416789 0.000254661 0)
(-0.00427418 0.000253175 0)
(-0.00437983 0.00025164 0)
(-0.00448479 0.000250056 0)
(-0.00458906 0.000248419 0)
(-0.00469261 0.000246729 0)
(-0.00479542 0.000244984 0)
(-0.00489746 0.000243182 0)
(-0.00499871 0.000241321 0)
(-0.00509913 0.000239399 0)
(-0.00519872 0.000237413 0)
(-0.00529743 0.000235363 0)
(-0.00539524 0.000233245 0)
(-0.00549213 0.000231058 0)
(-0.00558806 0.0002288 0)
(-0.005683 0.000226469 0)
(-0.00577692 0.000224062 0)
(-0.00586979 0.000221579 0)
(-0.00596158 0.000219017 0)
(-0.00605226 0.000216375 0)
(-0.00614178 0.00021365 0)
(-0.00623013 0.000210841 0)
(-0.00631725 0.000207946 0)
(-0.00640312 0.000204964 0)
(-0.0064877 0.000201892 0)
(-0.00657096 0.00019873 0)
(-0.00665285 0.000195476 0)
(-0.00673333 0.000192127 0)
(-0.00681238 0.000188683 0)
(-0.00688994 0.000185143 0)
(-0.00696598 0.000181504 0)
(-0.00704046 0.000177767 0)
(-0.00711334 0.000173928 0)
(-0.00718457 0.000169988 0)
(-0.00725412 0.000165946 0)
(-0.00732194 0.000161799 0)
(-0.007388 0.000157548 0)
(-0.00745224 0.000153191 0)
(-0.00751462 0.000148729 0)
(-0.00757511 0.000144159 0)
(-0.00763365 0.000139482 0)
(-0.00769021 0.000134697 0)
(-0.00774474 0.000129803 0)
(-0.00779719 0.000124802 0)
(-0.00784753 0.000119692 0)
(-0.00789571 0.000114473 0)
(-0.00794168 0.000109146 0)
(-0.0079854 0.000103711 0)
(-0.00802683 9.81687e-05 0)
(-0.00806592 9.25191e-05 0)
(-0.00810264 8.67633e-05 0)
(-0.00813693 8.0902e-05 0)
(-0.00816876 7.49364e-05 0)
(-0.00819809 6.88676e-05 0)
(-0.00822487 6.26969e-05 0)
(-0.00824906 5.6426e-05 0)
(-0.00827062 5.00565e-05 0)
(-0.00828952 4.35902e-05 0)
(-0.00830571 3.70294e-05 0)
(-0.00831916 3.0376e-05 0)
(-0.00832983 2.36327e-05 0)
(-0.00833768 1.6802e-05 0)
(-0.00834269 9.88665e-06 0)
(-0.00834482 2.88965e-06 0)
(-0.00834403 -4.18586e-06 0)
(-0.00834029 -1.13365e-05 0)
(-0.00833358 -1.85588e-05 0)
(-0.00832387 -2.58491e-05 0)
(-0.00831113 -3.32034e-05 0)
(-0.00829534 -4.06177e-05 0)
(-0.00827647 -4.80877e-05 0)
(-0.0082545 -5.56091e-05 0)
(-0.00822942 -6.31772e-05 0)
(-0.0082012 -7.07874e-05 0)
(-0.00816984 -7.84346e-05 0)
(-0.0081353 -8.6114e-05 0)
(-0.0080976 -9.38203e-05 0)
(-0.00805671 -0.000101548 0)
(-0.00801262 -0.000109292 0)
(-0.00796534 -0.000117047 0)
(-0.00791486 -0.000124806 0)
(-0.00786118 -0.000132564 0)
(-0.0078043 -0.000140316 0)
(-0.00774423 -0.000148055 0)
(-0.00768097 -0.000155775 0)
(-0.00761453 -0.00016347 0)
(-0.00754492 -0.000171134 0)
(-0.00747217 -0.000178761 0)
(-0.00739627 -0.000186345 0)
(-0.00731726 -0.000193878 0)
(-0.00723515 -0.000201356 0)
(-0.00714996 -0.000208771 0)
(-0.00706174 -0.000216119 0)
(-0.00697049 -0.000223391 0)
(-0.00687627 -0.000230582 0)
(-0.00677909 -0.000237686 0)
(-0.006679 -0.000244697 0)
(-0.00657603 -0.000251608 0)
(-0.00647023 -0.000258413 0)
(-0.00636164 -0.000265106 0)
(-0.00625032 -0.000271681 0)
(-0.0061363 -0.000278131 0)
(-0.00601964 -0.000284449 0)
(-0.00590039 -0.000290629 0)
(-0.00577862 -0.000296664 0)
(-0.00565439 -0.000302546 0)
(-0.00552775 -0.000308269 0)
(-0.00539878 -0.000313824 0)
(-0.00526755 -0.000319203 0)
(-0.00513413 -0.000324396 0)
(-0.0049986 -0.000329394 0)
(-0.00486104 -0.000334185 0)
(-0.00472154 -0.000338758 0)
(-0.0045802 -0.0003431 0)
(-0.00443711 -0.000347195 0)
(-0.00429238 -0.000351029 0)
(-0.00414612 -0.000354582 0)
(-0.00399846 -0.000357835 0)
(-0.00384952 -0.000360766 0)
(-0.00369944 -0.00036335 0)
(-0.00354837 -0.00036556 0)
(-0.00339648 -0.000367366 0)
(-0.00324394 -0.000368736 0)
(-0.00309094 -0.000369632 0)
(-0.00293768 -0.000370014 0)
(-0.00278438 -0.000369841 0)
(-0.00263129 -0.000369064 0)
(-0.00247866 -0.000367632 0)
(-0.00232677 -0.000365492 0)
(-0.00217593 -0.000362583 0)
(-0.00202647 -0.000358844 0)
(-0.00187873 -0.000354209 0)
(-0.00173309 -0.000348607 0)
(-0.00158996 -0.000341966 0)
(-0.00144976 -0.000334211 0)
(-0.00131297 -0.000325264 0)
(-0.00118006 -0.000315047 0)
(-0.00105155 -0.000303483 0)
(-0.000927987 -0.000290497 0)
(-0.00080992 -0.000276022 0)
(-0.000697933 -0.000259996 0)
(-0.000592615 -0.000242378 0)
(-0.000494559 -0.000223145 0)
(-0.000404347 -0.00020231 0)
(-0.000322533 -0.000179936 0)
(-0.000249625 -0.000156155 0)
(-0.00018605 -0.000131201 0)
(-0.00013212 -0.000105454 0)
(-8.79858e-05 -7.94952e-05 0)
(-5.35765e-05 -5.41949e-05 0)
(-2.85323e-05 -3.08225e-05 0)
(-1.21281e-05 -1.11896e-05 0)
(-3.24449e-06 2.13565e-06 0)
(-9.78125e-08 5.41095e-06 0)
(-7.61484e-07 1.0647e-06 0)
(-8.02261e-06 1.44316e-05 0)
(-2.28026e-05 3.55737e-05 0)
(-4.60829e-05 6.12334e-05 0)
(-7.80032e-05 8.91924e-05 0)
(-0.000118679 0.000117904 0)
(-0.000168047 0.000146302 0)
(-0.000225879 0.000173678 0)
(-0.000291829 0.000199578 0)
(-0.000365463 0.00022373 0)
(-0.000446288 0.000245994 0)
(-0.000533775 0.000266315 0)
(-0.000627378 0.000284705 0)
(-0.000726551 0.000301215 0)
(-0.000830755 0.000315928 0)
(-0.000939469 0.000328941 0)
(-0.0010522 0.000340366 0)
(-0.00116847 0.000350318 0)
(-0.00128785 0.000358914 0)
(-0.00140992 0.000366271 0)
(-0.00153431 0.000372503 0)
(-0.00166068 0.000377719 0)
(-0.00178871 0.000382022 0)
(-0.00191811 0.00038551 0)
(-0.00204864 0.000388274 0)
(-0.00218006 0.000390397 0)
(-0.00231217 0.000391956 0)