/*--------------------------------*- C++ -*----------------------------------*\
  =========                 |
  \\      /  F ield         | OpenFOAM: The Open Source CFD Toolbox
   \\    /   O peration     | Website:  https://openfoam.org
    \\  /    A nd           | Version:  6
     \\/     M anipulation  |
\*---------------------------------------------------------------------------*/
FoamFile
{
    version     2.0;
    format      ascii;
    class       volScalarField;
    location    "0";
    object      p;
}
// * * * * * * * * * * * * * * * * * * * * * * * * * * * * * * * * * * * * * //

dimensions      [0 2 -2 0 0 0 0];

internalField   nonuniform List<scalar> 
10000
(
0
1.33943e-06
1.87607e-06
1.08984e-06
-1.47436e-06
-6.15781e-06
-1.31672e-05
-2.25633e-05
-3.42571e-05
-4.80228e-05
-6.35244e-05
-8.03504e-05
-9.80508e-05
-0.000116171
-0.000134283
-0.000152004
-0.000169028
-0.00018507
-0.000199887
-0.000213344
-0.000225375
-0.000235962
-0.000245125
-0.000252916
-0.000259404
-0.000264675
-0.000268823
-0.000271948
-0.00027415
-0.000275526
-0.000276172
-0.000276179
-0.000275629
-0.000274599
-0.000273161
-0.000271376
-0.000269304
-0.000266992
-0.000264488
-0.000261831
-0.000259055
-0.000256192
-0.000253267
-0.000250305
-0.000247327
-0.00024435
-0.000241389
-0.00023846
-0.000235573
-0.00023274
-0.000229969
-0.000227268
-0.000224645
-0.000222105
-0.000219654
-0.000217296
-0.000215035
-0.000212874
-0.000210816
-0.000208863
-0.000207018
-0.000205282
-0.000203657
-0.000202145
-0.000200746
-0.000199462
-0.000198292
-0.000197239
-0.000196304
-0.00019549
-0.0001948
-0.000194239
-0.000193812
-0.000193527
-0.000193393
-0.000193423
-0.000193634
-0.000194046
-0.000194686
-0.000195588
-0.000196796
-0.000198366
-0.000200369
-0.000202892
-0.000206045
-0.000209959
-0.000214788
-0.000220714
-0.000227934
-0.00023666
-0.000247102
-0.000259448
-0.00027383
-0.000290299
-0.00030869
-0.000328451
-0.000348456
-0.000366775
-0.000379848
-0.000383463
-0.00985038
-0.00984858
-0.00984775
-0.00984823
-0.00985041
-0.00985459
-0.009861
-0.0098697
-0.0098806
-0.00989351
-0.00990809
-0.00992395
-0.00994065
-0.00995777
-0.00997488
-0.00999161
-0.0100077
-0.0100228
-0.0100369
-0.0100496
-0.0100609
-0.0100708
-0.0100794
-0.0100867
-0.0100927
-0.0100976
-0.0101013
-0.0101042
-0.0101061
-0.0101073
-0.0101077
-0.0101076
-0.0101069
-0.0101058
-0.0101043
-0.0101025
-0.0101004
-0.010098
-0.0100955
-0.0100929
-0.0100901
-0.0100873
-0.0100844
-0.0100815
-0.0100785
-0.0100756
-0.0100727
-0.0100698
-0.010067
-0.0100642
-0.0100614
-0.0100588
-0.0100562
-0.0100536
-0.0100512
-0.0100489
-0.0100466
-0.0100445
-0.0100424
-0.0100405
-0.0100386
-0.0100369
-0.0100352
-0.0100337
-0.0100323
-0.010031
-0.0100298
-0.0100288
-0.0100278
-0.010027
-0.0100263
-0.0100257
-0.0100252
-0.0100249
-0.0100248
-0.0100248
-0.0100249
-0.0100253
-0.0100259
-0.0100268
-0.0100279
-0.0100294
-0.0100313
-0.0100337
-0.0100366
-0.0100402
-0.0100445
-0.0100498
-0.0100562
-0.0100636
-0.0100724
-0.0100824
-0.0100937
-0.0101062
-0.0101193
-0.0101326
-0.0101449
-0.010155
-0.0101601
-0.0101579
-0.0196999
-0.0196976
-0.0196962
-0.0196963
-0.0196979
-0.0197016
-0.0197075
-0.0197156
-0.019726
-0.0197383
-0.0197523
-0.0197675
-0.0197835
-0.0197999
-0.0198163
-0.0198323
-0.0198476
-0.0198619
-0.0198752
-0.0198872
-0.0198978
-0.0199071
-0.0199151
-0.0199218
-0.0199273
-0.0199316
-0.019935
-0.0199374
-0.019939
-0.0199398
-0.01994
-0.0199397
-0.0199388
-0.0199375
-0.0199359
-0.0199339
-0.0199317
-0.0199294
-0.0199268
-0.0199241
-0.0199214
-0.0199185
-0.0199156
-0.0199127
-0.0199098
-0.0199069
-0.019904
-0.0199011
-0.0198983
-0.0198955
-0.0198928
-0.0198902
-0.0198876
-0.0198851
-0.0198827
-0.0198803
-0.0198781
-0.019876
-0.0198739
-0.0198719
-0.0198701
-0.0198683
-0.0198667
-0.0198652
-0.0198637
-0.0198624
-0.0198612
-0.0198601
-0.0198592
-0.0198583
-0.0198576
-0.0198569
-0.0198565
-0.0198561
-0.0198559
-0.0198559
-0.019856
-0.0198563
-0.0198569
-0.0198577
-0.0198587
-0.0198601
-0.0198618
-0.0198639
-0.0198665
-0.0198698
-0.0198736
-0.0198782
-0.0198836
-0.0198899
-0.0198971
-0.0199051
-0.0199137
-0.0199227
-0.0199315
-0.0199396
-0.0199461
-0.0199503
-0.0199504
-0.0199453
-0.0295485
-0.0295456
-0.0295438
-0.0295433
-0.0295446
-0.0295478
-0.0295533
-0.0295611
-0.0295711
-0.0295831
-0.0295967
-0.0296116
-0.0296272
-0.0296432
-0.029659
-0.0296744
-0.0296891
-0.0297027
-0.0297152
-0.0297265
-0.0297364
-0.029745
-0.0297523
-0.0297583
-0.0297631
-0.0297669
-0.0297697
-0.0297717
-0.0297728
-0.0297732
-0.0297731
-0.0297724
-0.0297712
-0.0297697
-0.0297678
-0.0297657
-0.0297634
-0.0297609
-0.0297582
-0.0297555
-0.0297526
-0.0297497
-0.0297468
-0.0297439
-0.029741
-0.0297381
-0.0297352
-0.0297323
-0.0297295
-0.0297268
-0.0297241
-0.0297214
-0.0297189
-0.0297164
-0.029714
-0.0297117
-0.0297094
-0.0297073
-0.0297052
-0.0297033
-0.0297014
-0.0296996
-0.029698
-0.0296964
-0.029695
-0.0296937
-0.0296925
-0.0296913
-0.0296903
-0.0296895
-0.0296887
-0.029688
-0.0296875
-0.0296871
-0.0296869
-0.0296868
-0.0296869
-0.0296871
-0.0296876
-0.0296883
-0.0296892
-0.0296904
-0.0296919
-0.0296938
-0.0296961
-0.0296989
-0.0297022
-0.0297061
-0.0297106
-0.0297158
-0.0297216
-0.0297278
-0.0297341
-0.0297403
-0.0297458
-0.0297501
-0.0297526
-0.0297529
-0.0297501
-0.0297436
-0.039396
-0.0393927
-0.0393905
-0.0393897
-0.0393906
-0.0393936
-0.0393989
-0.0394065
-0.0394164
-0.0394283
-0.0394418
-0.0394564
-0.0394718
-0.0394874
-0.0395029
-0.0395178
-0.0395319
-0.0395449
-0.0395566
-0.0395671
-0.0395763
-0.0395842
-0.0395907
-0.039596
-0.0396002
-0.0396033
-0.0396055
-0.0396068
-0.0396074
-0.0396073
-0.0396067
-0.0396056
-0.0396041
-0.0396022
-0.0396001
-0.0395977
-0.0395952
-0.0395925
-0.0395897
-0.0395868
-0.0395839
-0.039581
-0.039578
-0.039575
-0.0395721
-0.0395691
-0.0395662
-0.0395634
-0.0395606
-0.0395578
-0.0395551
-0.0395525
-0.03955
-0.0395475
-0.0395451
-0.0395428
-0.0395405
-0.0395384
-0.0395364
-0.0395344
-0.0395325
-0.0395308
-0.0395291
-0.0395275
-0.0395261
-0.0395247
-0.0395235
-0.0395224
-0.0395213
-0.0395204
-0.0395196
-0.039519
-0.0395184
-0.039518
-0.0395177
-0.0395175
-0.0395175
-0.0395177
-0.0395181
-0.0395186
-0.0395194
-0.0395204
-0.0395217
-0.0395233
-0.0395253
-0.0395276
-0.0395304
-0.0395337
-0.0395374
-0.0395416
-0.0395462
-0.0395508
-0.0395554
-0.0395594
-0.0395624
-0.039564
-0.0395637
-0.0395616
-0.0395572
-0.0395501
-0.0492426
-0.0492391
-0.0492367
-0.0492356
-0.0492363
-0.0492391
-0.0492443
-0.049252
-0.0492619
-0.0492738
-0.0492873
-0.0493019
-0.0493171
-0.0493325
-0.0493477
-0.0493622
-0.0493757
-0.0493882
-0.0493993
-0.049409
-0.0494174
-0.0494244
-0.0494302
-0.0494347
-0.0494381
-0.0494405
-0.049442
-0.0494427
-0.0494427
-0.049442
-0.0494409
-0.0494393
-0.0494374
-0.0494351
-0.0494327
-0.04943
-0.0494272
-0.0494243
-0.0494213
-0.0494183
-0.0494152
-0.0494121
-0.0494091
-0.049406
-0.049403
-0.0494
-0.0493971
-0.0493942
-0.0493914
-0.0493887
-0.049386
-0.0493834
-0.0493808
-0.0493784
-0.049376
-0.0493737
-0.0493714
-0.0493693
-0.0493672
-0.0493653
-0.0493634
-0.0493617
-0.04936
-0.0493584
-0.0493569
-0.0493556
-0.0493543
-0.0493532
-0.0493521
-0.0493512
-0.0493504
-0.0493496
-0.0493491
-0.0493486
-0.0493482
-0.049348
-0.049348
-0.049348
-0.0493483
-0.0493487
-0.0493493
-0.0493501
-0.0493512
-0.0493526
-0.0493542
-0.0493561
-0.0493584
-0.0493611
-0.0493641
-0.0493674
-0.0493709
-0.0493743
-0.0493774
-0.0493798
-0.049381
-0.0493807
-0.0493786
-0.049375
-0.0493699
-0.0493629
-0.0590883
-0.0590847
-0.0590821
-0.0590809
-0.0590815
-0.0590844
-0.0590897
-0.0590974
-0.0591075
-0.0591196
-0.0591332
-0.0591478
-0.059163
-0.0591782
-0.059193
-0.0592071
-0.0592202
-0.059232
-0.0592425
-0.0592515
-0.0592591
-0.0592653
-0.0592702
-0.059274
-0.0592766
-0.0592782
-0.059279
-0.059279
-0.0592783
-0.0592771
-0.0592754
-0.0592733
-0.0592709
-0.0592682
-0.0592654
-0.0592624
-0.0592593
-0.0592561
-0.0592529
-0.0592496
-0.0592464
-0.0592432
-0.05924
-0.0592369
-0.0592338
-0.0592307
-0.0592278
-0.0592249
-0.059222
-0.0592193
-0.0592166
-0.059214
-0.0592114
-0.059209
-0.0592066
-0.0592043
-0.059202
-0.0591999
-0.0591979
-0.0591959
-0.059194
-0.0591923
-0.0591906
-0.059189
-0.0591875
-0.0591861
-0.0591849
-0.0591837
-0.0591826
-0.0591817
-0.0591808
-0.0591801
-0.0591794
-0.0591789
-0.0591785
-0.0591782
-0.0591781
-0.0591781
-0.0591782
-0.0591785
-0.059179
-0.0591796
-0.0591804
-0.0591815
-0.0591828
-0.0591844
-0.0591862
-0.0591883
-0.0591907
-0.0591932
-0.0591958
-0.0591982
-0.0592002
-0.0592013
-0.0592013
-0.0591997
-0.0591965
-0.0591921
-0.0591867
-0.0591801
-0.0689334
-0.0689297
-0.068927
-0.0689257
-0.0689264
-0.0689293
-0.0689348
-0.0689428
-0.0689532
-0.0689655
-0.0689793
-0.068994
-0.0690091
-0.0690241
-0.0690386
-0.0690523
-0.0690648
-0.069076
-0.0690858
-0.0690941
-0.0691009
-0.0691063
-0.0691104
-0.0691133
-0.0691151
-0.069116
-0.0691161
-0.0691154
-0.069114
-0.0691122
-0.0691099
-0.0691073
-0.0691044
-0.0691013
-0.069098
-0.0690947
-0.0690912
-0.0690878
-0.0690843
-0.0690808
-0.0690774
-0.069074
-0.0690707
-0.0690675
-0.0690643
-0.0690612
-0.0690581
-0.0690552
-0.0690523
-0.0690495
-0.0690468
-0.0690442
-0.0690417
-0.0690392
-0.0690368
-0.0690345
-0.0690323
-0.0690302
-0.0690282
-0.0690262
-0.0690243
-0.0690226
-0.0690209
-0.0690193
-0.0690178
-0.0690164
-0.0690151
-0.0690139
-0.0690129
-0.0690119
-0.069011
-0.0690102
-0.0690095
-0.0690089
-0.0690085
-0.0690081
-0.0690079
-0.0690078
-0.0690078
-0.069008
-0.0690083
-0.0690087
-0.0690094
-0.0690102
-0.0690112
-0.0690124
-0.0690138
-0.0690154
-0.0690172
-0.069019
-0.0690209
-0.0690224
-0.0690235
-0.0690237
-0.0690228
-0.0690204
-0.0690166
-0.0690119
-0.0690066
-0.0690004
-0.0787777
-0.0787739
-0.0787712
-0.07877
-0.0787707
-0.0787739
-0.0787797
-0.0787881
-0.0787988
-0.0788114
-0.0788253
-0.0788401
-0.0788551
-0.0788699
-0.0788841
-0.0788972
-0.0789092
-0.0789197
-0.0789288
-0.0789363
-0.0789423
-0.0789469
-0.0789501
-0.0789523
-0.0789533
-0.0789535
-0.0789528
-0.0789514
-0.0789495
-0.078947
-0.0789442
-0.0789411
-0.0789377
-0.0789342
-0.0789305
-0.0789268
-0.078923
-0.0789192
-0.0789155
-0.0789118
-0.0789082
-0.0789046
-0.0789011
-0.0788978
-0.0788945
-0.0788913
-0.0788882
-0.0788852
-0.0788823
-0.0788794
-0.0788767
-0.0788741
-0.0788715
-0.0788691
-0.0788667
-0.0788644
-0.0788622
-0.0788601
-0.0788581
-0.0788561
-0.0788543
-0.0788525
-0.0788508
-0.0788492
-0.0788477
-0.0788463
-0.078845
-0.0788438
-0.0788427
-0.0788417
-0.0788408
-0.07884
-0.0788393
-0.0788386
-0.0788381
-0.0788377
-0.0788374
-0.0788372
-0.0788371
-0.0788371
-0.0788373
-0.0788376
-0.078838
-0.0788385
-0.0788392
-0.0788401
-0.0788411
-0.0788423
-0.0788435
-0.0788448
-0.078846
-0.0788469
-0.0788473
-0.0788468
-0.0788452
-0.0788424
-0.0788383
-0.0788335
-0.0788285
-0.0788229
-0.0886213
-0.0886174
-0.0886147
-0.0886136
-0.0886146
-0.0886181
-0.0886242
-0.088633
-0.0886441
-0.088657
-0.0886711
-0.0886859
-0.0887008
-0.0887153
-0.088729
-0.0887416
-0.0887529
-0.0887627
-0.088771
-0.0887777
-0.0887829
-0.0887867
-0.0887891
-0.0887904
-0.0887908
-0.0887902
-0.0887888
-0.0887868
-0.0887843
-0.0887813
-0.0887779
-0.0887743
-0.0887705
-0.0887665
-0.0887625
-0.0887584
-0.0887543
-0.0887503
-0.0887463
-0.0887424
-0.0887385
-0.0887348
-0.0887312
-0.0887277
-0.0887243
-0.088721
-0.0887178
-0.0887147
-0.0887118
-0.0887089
-0.0887062
-0.0887035
-0.088701
-0.0886985
-0.0886961
-0.0886939
-0.0886917
-0.0886896
-0.0886875
-0.0886856
-0.0886838
-0.088682
-0.0886803
-0.0886788
-0.0886773
-0.0886759
-0.0886745
-0.0886733
-0.0886722
-0.0886712
-0.0886702
-0.0886694
-0.0886686
-0.088668
-0.0886674
-0.0886669
-0.0886665
-0.0886662
-0.088666
-0.0886659
-0.0886659
-0.088666
-0.0886662
-0.0886666
-0.088667
-0.0886675
-0.0886682
-0.088669
-0.0886698
-0.0886706
-0.0886712
-0.0886716
-0.0886714
-0.0886704
-0.0886684
-0.0886653
-0.0886612
-0.0886565
-0.0886518
-0.0886468
-0.098464
-0.0984601
-0.0984574
-0.0984565
-0.0984578
-0.0984617
-0.0984683
-0.0984775
-0.098489
-0.0985022
-0.0985164
-0.0985312
-0.0985458
-0.09856
-0.0985731
-0.0985851
-0.0985956
-0.0986046
-0.098612
-0.0986179
-0.0986223
-0.0986252
-0.0986269
-0.0986274
-0.098627
-0.0986258
-0.0986238
-0.0986212
-0.0986181
-0.0986146
-0.0986108
-0.0986067
-0.0986025
-0.0985982
-0.0985938
-0.0985894
-0.0985851
-0.0985808
-0.0985766
-0.0985724
-0.0985684
-0.0985645
-0.0985607
-0.0985571
-0.0985536
-0.0985502
-0.0985469
-0.0985438
-0.0985408
-0.0985379
-0.0985351
-0.0985325
-0.0985299
-0.0985275
-0.0985251
-0.0985228
-0.0985207
-0.0985186
-0.0985166
-0.0985147
-0.0985128
-0.0985111
-0.0985094
-0.0985079
-0.0985064
-0.098505
-0.0985036
-0.0985024
-0.0985013
-0.0985002
-0.0984993
-0.0984984
-0.0984976
-0.0984969
-0.0984963
-0.0984957
-0.0984953
-0.0984949
-0.0984946
-0.0984944
-0.0984942
-0.0984942
-0.0984942
-0.0984943
-0.0984945
-0.0984948
-0.0984951
-0.0984955
-0.0984959
-0.0984963
-0.0984965
-0.0984964
-0.0984958
-0.0984944
-0.0984922
-0.0984889
-0.0984849
-0.0984805
-0.0984761
-0.0984717
-0.108306
-0.108302
-0.108299
-0.108299
-0.1083
-0.108305
-0.108312
-0.108321
-0.108333
-0.108347
-0.108361
-0.108376
-0.10839
-0.108404
-0.108416
-0.108427
-0.108437
-0.108445
-0.108452
-0.108457
-0.10846
-0.108462
-0.108463
-0.108463
-0.108462
-0.10846
-0.108457
-0.108454
-0.108451
-0.108447
-0.108443
-0.108438
-0.108434
-0.108429
-0.108424
-0.10842
-0.108415
-0.108411
-0.108406
-0.108402
-0.108398
-0.108394
-0.10839
-0.108386
-0.108382
-0.108379
-0.108376
-0.108372
-0.108369
-0.108366
-0.108364
-0.108361
-0.108358
-0.108356
-0.108354
-0.108351
-0.108349
-0.108347
-0.108345
-0.108343
-0.108341
-0.10834
-0.108338
-0.108336
-0.108335
-0.108334
-0.108332
-0.108331
-0.10833
-0.108329
-0.108328
-0.108327
-0.108326
-0.108325
-0.108325
-0.108324
-0.108324
-0.108323
-0.108323
-0.108322
-0.108322
-0.108322
-0.108322
-0.108322
-0.108322
-0.108322
-0.108322
-0.108322
-0.108322
-0.108322
-0.108322
-0.108321
-0.10832
-0.108319
-0.108316
-0.108313
-0.108309
-0.108305
-0.108301
-0.108297
-0.118147
-0.118143
-0.11814
-0.11814
-0.118142
-0.118147
-0.118154
-0.118164
-0.118177
-0.11819
-0.118204
-0.118219
-0.118233
-0.118246
-0.118257
-0.118268
-0.118277
-0.118284
-0.118289
-0.118293
-0.118296
-0.118297
-0.118298
-0.118297
-0.118295
-0.118293
-0.11829
-0.118286
-0.118282
-0.118278
-0.118273
-0.118268
-0.118264
-0.118259
-0.118254
-0.118249
-0.118244
-0.11824
-0.118235
-0.118231
-0.118226
-0.118222
-0.118218
-0.118214
-0.118211
-0.118207
-0.118204
-0.1182
-0.118197
-0.118194
-0.118192
-0.118189
-0.118186
-0.118184
-0.118182
-0.118179
-0.118177
-0.118175
-0.118173
-0.118171
-0.11817
-0.118168
-0.118166
-0.118165
-0.118163
-0.118162
-0.118161
-0.118159
-0.118158
-0.118157
-0.118156
-0.118155
-0.118154
-0.118154
-0.118153
-0.118152
-0.118152
-0.118151
-0.118151
-0.11815
-0.11815
-0.118149
-0.118149
-0.118149
-0.118149
-0.118149
-0.118148
-0.118148
-0.118148
-0.118148
-0.118147
-0.118146
-0.118145
-0.118143
-0.118141
-0.118138
-0.118134
-0.11813
-0.118126
-0.118123
-0.127986
-0.127982
-0.12798
-0.12798
-0.127982
-0.127988
-0.127996
-0.128006
-0.128019
-0.128032
-0.128047
-0.128061
-0.128074
-0.128086
-0.128097
-0.128106
-0.128114
-0.12812
-0.128125
-0.128128
-0.12813
-0.128131
-0.12813
-0.128129
-0.128126
-0.128123
-0.12812
-0.128116
-0.128112
-0.128107
-0.128102
-0.128097
-0.128092
-0.128087
-0.128082
-0.128077
-0.128073
-0.128068
-0.128063
-0.128059
-0.128054
-0.12805
-0.128046
-0.128042
-0.128038
-0.128035
-0.128031
-0.128028
-0.128025
-0.128022
-0.128019
-0.128016
-0.128014
-0.128011
-0.128009
-0.128007
-0.128005
-0.128003
-0.128001
-0.127999
-0.127997
-0.127995
-0.127994
-0.127992
-0.127991
-0.12799
-0.127988
-0.127987
-0.127986
-0.127985
-0.127984
-0.127983
-0.127982
-0.127981
-0.12798
-0.12798
-0.127979
-0.127979
-0.127978
-0.127978
-0.127977
-0.127977
-0.127976
-0.127976
-0.127976
-0.127975
-0.127975
-0.127974
-0.127974
-0.127973
-0.127973
-0.127972
-0.12797
-0.127968
-0.127966
-0.127963
-0.127959
-0.127955
-0.127952
-0.127949
-0.137825
-0.137821
-0.137819
-0.137819
-0.137822
-0.137828
-0.137836
-0.137847
-0.13786
-0.137873
-0.137887
-0.137901
-0.137913
-0.137925
-0.137934
-0.137943
-0.13795
-0.137955
-0.137958
-0.137961
-0.137962
-0.137962
-0.137961
-0.137959
-0.137956
-0.137953
-0.137949
-0.137944
-0.13794
-0.137935
-0.13793
-0.137925
-0.13792
-0.137915
-0.13791
-0.137905
-0.1379
-0.137895
-0.13789
-0.137886
-0.137881
-0.137877
-0.137873
-0.137869
-0.137865
-0.137861
-0.137858
-0.137855
-0.137852
-0.137849
-0.137846
-0.137843
-0.137841
-0.137838
-0.137836
-0.137834
-0.137832
-0.13783
-0.137828
-0.137826
-0.137824
-0.137823
-0.137821
-0.13782
-0.137818
-0.137817
-0.137816
-0.137814
-0.137813
-0.137812
-0.137811
-0.13781
-0.137809
-0.137809
-0.137808
-0.137807
-0.137806
-0.137806
-0.137805
-0.137805
-0.137804
-0.137804
-0.137803
-0.137803
-0.137802
-0.137802
-0.137801
-0.137801
-0.1378
-0.137799
-0.137798
-0.137797
-0.137795
-0.137793
-0.137791
-0.137788
-0.137784
-0.137781
-0.137778
-0.137775
-0.147662
-0.147658
-0.147656
-0.147657
-0.14766
-0.147666
-0.147675
-0.147686
-0.147699
-0.147712
-0.147726
-0.147738
-0.14775
-0.147761
-0.14777
-0.147777
-0.147783
-0.147787
-0.14779
-0.147791
-0.147791
-0.147791
-0.147789
-0.147786
-0.147783
-0.14778
-0.147776
-0.147771
-0.147767
-0.147762
-0.147757
-0.147751
-0.147746
-0.147741
-0.147736
-0.147731
-0.147726
-0.147721
-0.147717
-0.147712
-0.147708
-0.147703
-0.147699
-0.147695
-0.147691
-0.147688
-0.147684
-0.147681
-0.147678
-0.147675
-0.147672
-0.14767
-0.147667
-0.147665
-0.147662
-0.14766
-0.147658
-0.147656
-0.147654
-0.147653
-0.147651
-0.147649
-0.147648
-0.147646
-0.147645
-0.147644
-0.147642
-0.147641
-0.14764
-0.147639
-0.147638
-0.147637
-0.147636
-0.147635
-0.147635
-0.147634
-0.147633
-0.147633
-0.147632
-0.147631
-0.147631
-0.14763
-0.14763
-0.147629
-0.147628
-0.147628
-0.147627
-0.147627
-0.147626
-0.147625
-0.147624
-0.147622
-0.147621
-0.147619
-0.147616
-0.147613
-0.14761
-0.147607
-0.147604
-0.147601
-0.157498
-0.157494
-0.157493
-0.157493
-0.157497
-0.157504
-0.157513
-0.157524
-0.157536
-0.157549
-0.157562
-0.157574
-0.157585
-0.157594
-0.157602
-0.157608
-0.157613
-0.157616
-0.157618
-0.157619
-0.157618
-0.157617
-0.157615
-0.157612
-0.157609
-0.157605
-0.157601
-0.157596
-0.157592
-0.157587
-0.157582
-0.157577
-0.157571
-0.157566
-0.157561
-0.157556
-0.157551
-0.157547
-0.157542
-0.157537
-0.157533
-0.157529
-0.157525
-0.157521
-0.157517
-0.157514
-0.15751
-0.157507
-0.157504
-0.157501
-0.157498
-0.157495
-0.157493
-0.157491
-0.157488
-0.157486
-0.157484
-0.157482
-0.157481
-0.157479
-0.157477
-0.157476
-0.157474
-0.157473
-0.157471
-0.15747
-0.157469
-0.157468
-0.157467
-0.157466
-0.157465
-0.157464
-0.157463
-0.157462
-0.157461
-0.15746
-0.15746
-0.157459
-0.157458
-0.157458
-0.157457
-0.157457
-0.157456
-0.157455
-0.157455
-0.157454
-0.157453
-0.157453
-0.157452
-0.157451
-0.157449
-0.157448
-0.157446
-0.157444
-0.157441
-0.157438
-0.157435
-0.157432
-0.15743
-0.157427
-0.167332
-0.167329
-0.167327
-0.167329
-0.167333
-0.167339
-0.167349
-0.16736
-0.167372
-0.167384
-0.167396
-0.167407
-0.167417
-0.167426
-0.167432
-0.167437
-0.167441
-0.167443
-0.167444
-0.167444
-0.167444
-0.167442
-0.167439
-0.167436
-0.167433
-0.167429
-0.167425
-0.16742
-0.167415
-0.16741
-0.167405
-0.1674
-0.167395
-0.16739
-0.167386
-0.167381
-0.167376
-0.167371
-0.167367
-0.167362
-0.167358
-0.167354
-0.16735
-0.167346
-0.167342
-0.167339
-0.167335
-0.167332
-0.167329
-0.167326
-0.167324
-0.167321
-0.167318
-0.167316
-0.167314
-0.167312
-0.16731
-0.167308
-0.167306
-0.167305
-0.167303
-0.167301
-0.1673
-0.167299
-0.167297
-0.167296
-0.167295
-0.167294
-0.167293
-0.167292
-0.167291
-0.16729
-0.167289
-0.167288
-0.167287
-0.167287
-0.167286
-0.167285
-0.167285
-0.167284
-0.167283
-0.167283
-0.167282
-0.167281
-0.167281
-0.16728
-0.167279
-0.167278
-0.167277
-0.167276
-0.167275
-0.167273
-0.167272
-0.167269
-0.167267
-0.167264
-0.167261
-0.167258
-0.167256
-0.167253
-0.177165
-0.177162
-0.177161
-0.177162
-0.177166
-0.177173
-0.177183
-0.177193
-0.177205
-0.177217
-0.177228
-0.177238
-0.177247
-0.177254
-0.17726
-0.177264
-0.177267
-0.177268
-0.177269
-0.177268
-0.177267
-0.177265
-0.177262
-0.177259
-0.177255
-0.177251
-0.177247
-0.177242
-0.177238
-0.177233
-0.177228
-0.177223
-0.177218
-0.177214
-0.177209
-0.177204
-0.177199
-0.177195
-0.177191
-0.177186
-0.177182
-0.177178
-0.177174
-0.17717
-0.177167
-0.177163
-0.17716
-0.177157
-0.177154
-0.177151
-0.177148
-0.177146
-0.177144
-0.177141
-0.177139
-0.177137
-0.177135
-0.177133
-0.177132
-0.17713
-0.177128
-0.177127
-0.177126
-0.177124
-0.177123
-0.177122
-0.177121
-0.17712
-0.177119
-0.177118
-0.177117
-0.177116
-0.177115
-0.177114
-0.177113
-0.177113
-0.177112
-0.177111
-0.177111
-0.17711
-0.177109
-0.177109
-0.177108
-0.177107
-0.177107
-0.177106
-0.177105
-0.177104
-0.177103
-0.177102
-0.177101
-0.177099
-0.177097
-0.177095
-0.177092
-0.177089
-0.177087
-0.177084
-0.177082
-0.177079
-0.186996
-0.186993
-0.186992
-0.186994
-0.186998
-0.187005
-0.187015
-0.187025
-0.187036
-0.187047
-0.187057
-0.187067
-0.187074
-0.18708
-0.187085
-0.187088
-0.18709
-0.187091
-0.187091
-0.187089
-0.187088
-0.187086
-0.187083
-0.187079
-0.187076
-0.187072
-0.187068
-0.187063
-0.187059
-0.187054
-0.18705
-0.187045
-0.187041
-0.187036
-0.187031
-0.187027
-0.187022
-0.187018
-0.187014
-0.18701
-0.187006
-0.187002
-0.186998
-0.186994
-0.186991
-0.186988
-0.186984
-0.186981
-0.186978
-0.186976
-0.186973
-0.186971
-0.186968
-0.186966
-0.186964
-0.186962
-0.18696
-0.186958
-0.186957
-0.186955
-0.186954
-0.186952
-0.186951
-0.18695
-0.186948
-0.186947
-0.186946
-0.186945
-0.186944
-0.186943
-0.186942
-0.186941
-0.18694
-0.18694
-0.186939
-0.186938
-0.186937
-0.186937
-0.186936
-0.186936
-0.186935
-0.186934
-0.186934
-0.186933
-0.186932
-0.186932
-0.186931
-0.18693
-0.186929
-0.186928
-0.186926
-0.186925
-0.186923
-0.18692
-0.186918
-0.186915
-0.186912
-0.18691
-0.186907
-0.186905
-0.196826
-0.196823
-0.196822
-0.196824
-0.196829
-0.196836
-0.196845
-0.196855
-0.196865
-0.196875
-0.196884
-0.196892
-0.196899
-0.196904
-0.196908
-0.19691
-0.196911
-0.196911
-0.196911
-0.196909
-0.196907
-0.196905
-0.196902
-0.196899
-0.196895
-0.196892
-0.196888
-0.196884
-0.196879
-0.196875
-0.196871
-0.196866
-0.196862
-0.196857
-0.196853
-0.196849
-0.196845
-0.19684
-0.196836
-0.196832
-0.196829
-0.196825
-0.196821
-0.196818
-0.196814
-0.196811
-0.196808
-0.196805
-0.196802
-0.1968
-0.196797
-0.196795
-0.196793
-0.19679
-0.196788
-0.196787
-0.196785
-0.196783
-0.196781
-0.19678
-0.196778
-0.196777
-0.196776
-0.196774
-0.196773
-0.196772
-0.196771
-0.19677
-0.196769
-0.196768
-0.196767
-0.196766
-0.196766
-0.196765
-0.196764
-0.196763
-0.196763
-0.196762
-0.196761
-0.196761
-0.19676
-0.19676
-0.196759
-0.196758
-0.196758
-0.196757
-0.196756
-0.196755
-0.196754
-0.196753
-0.196752
-0.19675
-0.196748
-0.196746
-0.196743
-0.19674
-0.196738
-0.196735
-0.196733
-0.196731
-0.206654
-0.206651
-0.206651
-0.206653
-0.206657
-0.206664
-0.206673
-0.206682
-0.206692
-0.206701
-0.206709
-0.206716
-0.206722
-0.206726
-0.206729
-0.20673
-0.206731
-0.20673
-0.206729
-0.206728
-0.206726
-0.206723
-0.20672
-0.206717
-0.206714
-0.20671
-0.206707
-0.206703
-0.206699
-0.206695
-0.206691
-0.206686
-0.206682
-0.206678
-0.206674
-0.20667
-0.206666
-0.206662
-0.206658
-0.206655
-0.206651
-0.206648
-0.206644
-0.206641
-0.206638
-0.206635
-0.206632
-0.206629
-0.206626
-0.206624
-0.206621
-0.206619
-0.206617
-0.206615
-0.206613
-0.206611
-0.206609
-0.206607
-0.206606
-0.206604
-0.206603
-0.206602
-0.2066
-0.206599
-0.206598
-0.206597
-0.206596
-0.206595
-0.206594
-0.206593
-0.206592
-0.206591
-0.20659
-0.20659
-0.206589
-0.206588
-0.206588
-0.206587
-0.206586
-0.206586
-0.206585
-0.206585
-0.206584
-0.206584
-0.206583
-0.206582
-0.206582
-0.206581
-0.20658
-0.206578
-0.206577
-0.206575
-0.206573
-0.206571
-0.206568
-0.206566
-0.206563
-0.206561
-0.206559
-0.206557
-0.21648
-0.216478
-0.216478
-0.21648
-0.216484
-0.216491
-0.216499
-0.216508
-0.216516
-0.216525
-0.216532
-0.216538
-0.216542
-0.216545
-0.216547
-0.216548
-0.216549
-0.216548
-0.216547
-0.216545
-0.216543
-0.21654
-0.216538
-0.216535
-0.216532
-0.216528
-0.216525
-0.216521
-0.216518
-0.216514
-0.21651
-0.216506
-0.216502
-0.216499
-0.216495
-0.216491
-0.216487
-0.216484
-0.21648
-0.216477
-0.216473
-0.21647
-0.216467
-0.216463
-0.21646
-0.216457
-0.216455
-0.216452
-0.216449
-0.216447
-0.216445
-0.216442
-0.21644
-0.216438
-0.216436
-0.216435
-0.216433
-0.216431
-0.21643
-0.216428
-0.216427
-0.216426
-0.216425
-0.216423
-0.216422
-0.216421
-0.21642
-0.216419
-0.216418
-0.216417
-0.216417
-0.216416
-0.216415
-0.216414
-0.216414
-0.216413
-0.216412
-0.216412
-0.216411
-0.216411
-0.21641
-0.21641
-0.216409
-0.216409
-0.216408
-0.216407
-0.216407
-0.216406
-0.216405
-0.216404
-0.216402
-0.2164
-0.216398
-0.216396
-0.216393
-0.216391
-0.216388
-0.216386
-0.216384
-0.216382
-0.226305
-0.226303
-0.226303
-0.226305
-0.226309
-0.226316
-0.226323
-0.226331
-0.226339
-0.226346
-0.226353
-0.226357
-0.226361
-0.226364
-0.226365
-0.226365
-0.226365
-0.226364
-0.226363
-0.226361
-0.226359
-0.226357
-0.226354
-0.226352
-0.226349
-0.226346
-0.226343
-0.226339
-0.226336
-0.226332
-0.226329
-0.226325
-0.226322
-0.226318
-0.226315
-0.226311
-0.226308
-0.226305
-0.226301
-0.226298
-0.226295
-0.226292
-0.226289
-0.226286
-0.226283
-0.22628
-0.226277
-0.226275
-0.226272
-0.22627
-0.226268
-0.226266
-0.226264
-0.226262
-0.22626
-0.226258
-0.226257
-0.226255
-0.226254
-0.226252
-0.226251
-0.22625
-0.226248
-0.226247
-0.226246
-0.226245
-0.226244
-0.226243
-0.226242
-0.226241
-0.226241
-0.22624
-0.226239
-0.226238
-0.226238
-0.226237
-0.226237
-0.226236
-0.226236
-0.226235
-0.226235
-0.226234
-0.226234
-0.226233
-0.226233
-0.226232
-0.226231
-0.226231
-0.22623
-0.226228
-0.226227
-0.226225
-0.226223
-0.226221
-0.226218
-0.226216
-0.226213
-0.226211
-0.226209
-0.226207
-0.236129
-0.236127
-0.236127
-0.236129
-0.236133
-0.236139
-0.236146
-0.236153
-0.23616
-0.236166
-0.236172
-0.236176
-0.236178
-0.23618
-0.236181
-0.236181
-0.236181
-0.23618
-0.236178
-0.236177
-0.236175
-0.236173
-0.236171
-0.236168
-0.236166
-0.236163
-0.23616
-0.236157
-0.236154
-0.236151
-0.236148
-0.236144
-0.236141
-0.236138
-0.236135
-0.236131
-0.236128
-0.236125
-0.236122
-0.236119
-0.236116
-0.236113
-0.23611
-0.236108
-0.236105
-0.236102
-0.2361
-0.236097
-0.236095
-0.236093
-0.236091
-0.236089
-0.236087
-0.236085
-0.236083
-0.236082
-0.23608
-0.236079
-0.236077
-0.236076
-0.236075
-0.236073
-0.236072
-0.236071
-0.23607
-0.236069
-0.236068
-0.236067
-0.236066
-0.236065
-0.236064
-0.236064
-0.236063
-0.236062
-0.236062
-0.236061
-0.236061
-0.23606
-0.23606
-0.236059
-0.236059
-0.236058
-0.236058
-0.236057
-0.236057
-0.236056
-0.236056
-0.236055
-0.236054
-0.236053
-0.236051
-0.23605
-0.236048
-0.236045
-0.236043
-0.23604
-0.236038
-0.236035
-0.236034
-0.236032
-0.245951
-0.245949
-0.245949
-0.245951
-0.245955
-0.245961
-0.245967
-0.245973
-0.245979
-0.245985
-0.245989
-0.245992
-0.245994
-0.245996
-0.245996
-0.245996
-0.245995
-0.245994
-0.245993
-0.245992
-0.24599
-0.245988
-0.245986
-0.245984
-0.245982
-0.245979
-0.245977
-0.245974
-0.245971
-0.245969
-0.245966
-0.245963
-0.24596
-0.245957
-0.245954
-0.245951
-0.245948
-0.245945
-0.245943
-0.24594
-0.245937
-0.245934
-0.245932
-0.245929
-0.245927
-0.245924
-0.245922
-0.24592
-0.245918
-0.245916
-0.245914
-0.245912
-0.24591
-0.245908
-0.245906
-0.245905
-0.245903
-0.245902
-0.2459
-0.245899
-0.245898
-0.245897
-0.245896
-0.245894
-0.245893
-0.245892
-0.245891
-0.24589
-0.24589
-0.245889
-0.245888
-0.245887
-0.245886
-0.245886
-0.245885
-0.245885
-0.245884
-0.245884
-0.245883
-0.245883
-0.245882
-0.245882
-0.245882
-0.245881
-0.245881
-0.24588
-0.24588
-0.245879
-0.245878
-0.245877
-0.245876
-0.245874
-0.245872
-0.24587
-0.245867
-0.245864
-0.245862
-0.24586
-0.245858
-0.245856
-0.255772
-0.25577
-0.25577
-0.255772
-0.255776
-0.255781
-0.255786
-0.255792
-0.255797
-0.255802
-0.255805
-0.255808
-0.255809
-0.25581
-0.25581
-0.25581
-0.25581
-0.255809
-0.255808
-0.255807
-0.255805
-0.255804
-0.255802
-0.2558
-0.255798
-0.255796
-0.255794
-0.255791
-0.255789
-0.255786
-0.255784
-0.255781
-0.255779
-0.255776
-0.255773
-0.255771
-0.255768
-0.255765
-0.255763
-0.25576
-0.255758
-0.255755
-0.255753
-0.255751
-0.255748
-0.255746
-0.255744
-0.255742
-0.25574
-0.255738
-0.255736
-0.255734
-0.255732
-0.255731
-0.255729
-0.255728
-0.255726
-0.255725
-0.255723
-0.255722
-0.255721
-0.25572
-0.255719
-0.255717
-0.255716
-0.255715
-0.255714
-0.255714
-0.255713
-0.255712
-0.255711
-0.25571
-0.25571
-0.255709
-0.255708
-0.255708
-0.255707
-0.255707
-0.255706
-0.255706
-0.255706
-0.255705
-0.255705
-0.255705
-0.255704
-0.255704
-0.255703
-0.255703
-0.255702
-0.255701
-0.255699
-0.255698
-0.255696
-0.255693
-0.255691
-0.255688
-0.255686
-0.255684
-0.255682
-0.255681
-0.265591
-0.26559
-0.26559
-0.265592
-0.265596
-0.2656
-0.265605
-0.26561
-0.265614
-0.265618
-0.265621
-0.265622
-0.265623
-0.265624
-0.265624
-0.265624
-0.265624
-0.265623
-0.265622
-0.265621
-0.26562
-0.265619
-0.265617
-0.265616
-0.265614
-0.265612
-0.26561
-0.265608
-0.265606
-0.265604
-0.265602
-0.265599
-0.265597
-0.265595
-0.265592
-0.26559
-0.265588
-0.265585
-0.265583
-0.26558
-0.265578
-0.265576
-0.265574
-0.265572
-0.265569
-0.265567
-0.265565
-0.265563
-0.265562
-0.26556
-0.265558
-0.265556
-0.265555
-0.265553
-0.265551
-0.26555
-0.265549
-0.265547
-0.265546
-0.265545
-0.265544
-0.265542
-0.265541
-0.26554
-0.265539
-0.265538
-0.265537
-0.265536
-0.265535
-0.265535
-0.265534
-0.265533
-0.265532
-0.265532
-0.265531
-0.265531
-0.26553
-0.26553
-0.265529
-0.265529
-0.265529
-0.265528
-0.265528
-0.265528
-0.265527
-0.265527
-0.265527
-0.265526
-0.265525
-0.265524
-0.265523
-0.265521
-0.265519
-0.265517
-0.265514
-0.265512
-0.265509
-0.265507
-0.265505
-0.265504
-0.27541
-0.275409
-0.275409
-0.275411
-0.275414
-0.275418
-0.275422
-0.275426
-0.27543
-0.275433
-0.275435
-0.275436
-0.275437
-0.275438
-0.275438
-0.275438
-0.275437
-0.275437
-0.275436
-0.275436
-0.275435
-0.275434
-0.275433
-0.275431
-0.27543
-0.275428
-0.275427
-0.275425
-0.275423
-0.275421
-0.275419