/*--------------------------------*- C++ -*----------------------------------*\
  =========                 |
  \\      /  F ield         | OpenFOAM: The Open Source CFD Toolbox
   \\    /   O peration     | Website:  https://openfoam.org
    \\  /    A nd           | Version:  6
     \\/     M anipulation  |
\*---------------------------------------------------------------------------*/
FoamFile
{
    version     2.0;
    format      ascii;
    class       volVectorField;
    location    "0";
    object      U;
}
// * * * * * * * * * * * * * * * * * * * * * * * * * * * * * * * * * * * * * //

dimensions      [0 1 -1 0 0 0 0];

internalField   nonuniform List<vector> 
13046
(
(0.350598 0.158213 0)
(0.395952 -0.0268278 3.49577e-21)
(0.191144 0.0296557 7.80185e-21)
(0.353096 0.111976 0)
(0.211431 0.0710839 7.02173e-21)
(0.341066 -0.0245819 0)
(0.371367 0.119851 -1.03075e-21)
(0.357235 -0.0456849 -1.79006e-21)
(0.197693 0.079212 7.753e-21)
(0.482962 0.22437 -3.85599e-21)
(0.62374 -0.241746 0)
(0.0318662 0.0559164 -5.27069e-21)
(0.395348 0.167624 6.54836e-21)
(0.430775 -0.0712181 5.53714e-21)
(0.156293 0.0469301 -4.31367e-21)
(0.461307 0.258224 -1.7221e-21)
(0.039801 0.0332541 -8.43405e-21)
(0.655585 -0.193157 -2.83877e-21)
(0.263049 0.110278 0)
(0.276527 -0.00409526 3.79581e-21)
(0.353381 0.0601472 -1.07261e-20)
(0.466544 0.251924 2.12976e-21)
(0.0369069 0.0389907 1.68898e-20)
(0.648603 -0.203558 -9.31584e-22)
(0.331115 0.123905 -4.32511e-21)
(0.353563 -0.00502032 6.42677e-21)
(0.216861 0.0430697 0)
(0.395018 0.182773 -5.82542e-23)
(0.446192 -0.0739417 -1.61948e-21)
(0.148658 0.0369499 1.49058e-20)
(0.349505 0.169964 0)
(0.410824 -0.0239179 0)
(0.187368 0.0169436 -7.94275e-21)
(0.315569 0.111009 1.51274e-20)
(0.232211 0.0422548 -2.62498e-21)
(0.337283 0.0122421 -9.96859e-21)
(0.31516 0.0984426 3.23695e-23)
(0.241899 0.0538537 0)
(0.322234 0.0167179 0)
(0.306078 0.186177 -5.61141e-21)
(0.238328 -0.0501111 -7.25652e-21)
(0.433895 0.0154322 5.30323e-21)
(0.304484 0.0654809 -3.4822e-21)
(0.273192 0.0663347 3.54933e-21)
(0.28884 0.038258 0)
(0.3195 0.0664524 -2.20455e-21)
(0.263604 0.0793984 0)
(0.285285 0.0237778 1.14697e-21)
(0.360693 0.152743 0)
(0.392946 -0.0393421 2.5141e-22)
(0.180788 0.0410573 -4.32207e-24)
(0.309268 -0.127261 -9.13886e-21)
(0.271657 0.208761 0)
(0.478458 0.0425636 6.52388e-21)
(0.337734 -0.149055 1.30164e-20)
(0.486219 0.053146 7.05067e-21)
(0.254661 0.204456 -8.81308e-21)
(0.60276 -0.0996811 1.27816e-21)
(0.420308 0.280496 0)
(0.11752 -0.0270986 -6.92988e-21)
(0.465231 0.153068 3.15294e-21)
(0.468352 -0.156155 -3.31061e-21)
(0.137644 0.106693 1.80825e-20)
(0.0611498 0.061424 -9.59175e-21)
(0.599377 -0.205767 2.08944e-21)
(0.487506 0.219446 5.61321e-21)
(0.407527 0.284209 0)
(0.590224 -0.0803321 -5.98281e-21)
(0.138996 -0.0475791 -2.02456e-21)
(0.398492 0.277939 2.5144e-21)
(0.57411 -0.0699534 8.10776e-21)
(0.149228 -0.0508029 2.75277e-21)
(0.622009 -0.109155 1.32687e-23)
(0.426997 0.285857 -6.56349e-23)
(0.107246 -0.0264967 6.31024e-24)
(0.270491 0.122631 0)
(0.267307 -0.0122885 -4.13606e-21)
(0.36695 0.0490332 7.63551e-21)
(0.080412 -0.00325299 -7.69942e-21)
(0.441046 0.279007 8.0588e-21)
(0.635696 -0.137489 2.81642e-21)
(0.34335 0.126099 -2.27369e-21)
(0.355395 -0.0168056 2.29868e-21)
(0.206701 0.0539017 0)
(0.0532478 0.0587848 8.63407e-21)
(0.612051 -0.214468 0)
(0.488972 0.224008 -3.3529e-21)
(0.515739 0.178034 5.86162e-21)
(0.0816494 0.0982187 0)
(0.561514 -0.238994 1.62669e-21)
(0.107459 0.135613 0)
(0.548511 0.136365 0)
(0.530923 -0.281469 -2.18079e-22)
(0.44863 0.207211 6.56299e-21)
(0.461439 0.206646 -9.16402e-21)
(0.528532 -0.138113 -6.43778e-21)
(0.540853 -0.155941 3.01995e-21)
(0.103883 0.0506295 3.93819e-21)
(0.0954152 0.0601128 -1.00814e-20)
(0.0926904 0.108091 4.83205e-22)
(0.520586 0.16675 -5.73394e-21)
(0.548031 -0.243763 0)
(0.330965 0.0776005 1.44897e-23)
(0.249868 0.0812177 0)
(0.296271 0.00816751 0)
(0.22944 0.170227 -1.57065e-20)
(0.451838 0.0759552 3.21846e-21)
(0.34142 -0.118675 0)
(0.274986 0.193223 -2.41524e-21)
(0.286592 -0.0954752 0)
(0.453452 0.0387941 1.22507e-20)
(0.445071 0.21412 0)
(0.0152814 0.0460323 7.22229e-21)
(0.58123 -0.25168 2.25917e-21)
(0.380327 0.158141 -4.54082e-21)
(0.411893 -0.0568017 -2.34741e-21)
(0.167285 0.049741 -7.76783e-21)
(0.451804 0.233195 -3.82298e-21)
(0.443889 0.222616 3.5693e-21)
(0.569864 -0.144105 -1.78675e-21)
(0.0889601 0.0337999 -4.52271e-21)
(0.544458 -0.132264 1.73828e-21)
(0.0993869 0.0365417 4.22558e-21)
(0.473867 0.22783 1.0142e-20)
(0.624722 -0.243138 3.19644e-21)
(0.0261763 0.0518647 2.36464e-21)
(0.423491 0.200304 0)
(0.491625 -0.107865 4.26581e-21)
(0.123291 0.0390665 -2.28634e-20)
(0.321873 0.190857 0)
(0.219161 -0.037772 7.30251e-21)
(0.437199 0.000911609 -3.2408e-22)
(0.118764 0.14286 0)
(0.543821 0.131758 0)
(0.521271 -0.269944 0)
(0.484907 0.199377 0)
(0.557989 -0.189896 8.37961e-21)
(0.0864557 0.0757727 1.02081e-20)
(0.363707 0.179126 0)
(0.428547 -0.0387319 0)
(0.175625 0.0136788 0)
(0.421427 0.121765 0)
(0.3868 -0.0997232 0)
(0.183492 0.111298 0)
(0.264817 0.193848 2.23498e-21)
(0.306824 -0.110766 0)
(0.460673 0.0479137 -6.60934e-21)
(0.232072 0.162056 1.522e-20)
(0.442127 0.0766415 6.87072e-21)
(0.337449 -0.107043 -7.93179e-21)
(0.471699 0.161988 -7.61703e-21)
(0.487751 -0.166389 0)
(0.125203 0.0977914 -2.35497e-20)
(0.222801 0.12837 0)
(0.405972 0.087796 -1.47541e-20)
(0.32967 -0.0717263 -2.02091e-21)
(0.392104 -0.176231 -3.64538e-21)
(0.492781 0.0822581 -7.49081e-21)
(0.419285 -0.18963 0)
(0.497838 0.0966737 -4.32816e-21)
(0.214079 0.18551 -7.62975e-21)
(0.193595 0.173172 7.32815e-21)
(0.437485 0.102087 -9.45144e-22)
(0.372534 -0.115364 -4.16343e-21)
(0.198121 0.133671 4.43675e-21)
(0.494253 0.215009 3.95703e-21)
(0.0362194 0.0625209 -2.73816e-21)
(0.611182 -0.250298 4.0031e-21)
(0.456082 0.221497 3.04379e-21)
(0.0181408 0.0477809 1.08311e-21)
(0.604362 -0.248451 0)
(0.484064 0.208007 -6.73105e-23)
(0.571148 -0.191784 0)
(0.0778592 0.0686539 -1.23356e-20)
(0.341204 0.224747 0)
(0.480929 -0.0142172 -1.71426e-21)
(0.211663 -0.0600436 -4.29854e-21)
(0.431265 0.0939799 -6.23669e-21)
(0.21067 0.141909 0)
(0.35453 -0.102173 0)
(0.0483474 0.0775896 0)
(0.592489 -0.26108 0)
(0.512257 0.196828 -3.37413e-21)
(0.328764 0.213402 0)
(0.465026 -0.00253507 3.68962e-21)
(0.222244 -0.0559927 -1.10763e-21)
(0.221269 0.137299 0)
(0.414354 0.0849238 0)
(0.328685 -0.0816354 0)
(0.408572 0.11434 -3.07324e-21)
(0.37082 -0.0866879 0)
(0.190542 0.106981 0)
(0.44637 -0.0955478 3.04138e-23)
(0.144125 0.0616958 5.27691e-21)
(0.415721 0.18997 -9.6155e-21)
(0.4738 -0.0970585 0)
(0.133143 0.0437407 2.36122e-20)
(0.507143 0.19989 6.74892e-21)
(0.0634359 0.0792326 -7.80731e-21)
(0.590037 -0.235058 7.86818e-21)
(0.113008 0.130492 -7.11939e-21)
(0.530221 0.145276 -3.50838e-21)
(0.526726 -0.252147 -8.16201e-21)
(0.536079 0.15776 1.00664e-20)
(0.551153 -0.265629 0)
(0.0887756 0.115775 7.00272e-21)
(0.314533 -0.152048 3.75165e-21)
(0.508259 0.0318275 -2.9571e-21)
(0.284653 0.238569 -7.49341e-21)
(0.397037 0.138982 6.01807e-21)
(0.435415 0.286107 -4.06514e-21)
(0.0881569 -0.0121123 4.73983e-21)
(0.640491 -0.130554 -1.32545e-23)
(0.5607 -0.271833 0)
(0.533597 0.166064 3.05695e-21)
(0.0767613 0.105146 0)
(0.329894 0.0934656 1.11517e-20)
(0.236669 0.0699092 0)
(0.314594 0.00318065 -3.76999e-21)
(0.385012 0.189059 0)
(0.447708 -0.0614927 2.33899e-22)
(0.157905 0.025835 -4.39758e-21)
(0.120477 0.139707 -5.45156e-21)
(0.536457 0.136619 0)
(0.519193 -0.259687 9.39971e-21)
(0.410038 0.147713 0)
(0.435017 -0.0975191 -1.00457e-20)
(0.150271 0.0710762 0)
(0.0276618 0.0591763 0)
(0.593387 -0.262889 -3.42635e-21)
(0.485581 0.208754 0)
(0.268542 0.228887 8.10891e-21)
(0.506978 0.0412636 0)
(0.334357 -0.166317 0)
(0.529805 0.156842 -8.83693e-21)
(0.544142 -0.255148 0)
(0.0952756 0.116181 8.08206e-24)
(0.466927 0.100411 -8.31528e-21)
(0.394339 -0.152274 -3.1711e-21)
(0.193084 0.153428 1.02087e-20)
(0.41949 0.210545 0)
(0.499807 -0.102048 -3.98373e-21)
(0.123326 0.0294298 -2.38313e-21)
(0.478317 -0.254051 1.17365e-20)
(0.539345 0.10551 6.27208e-21)
(0.163116 0.175313 -4.29737e-21)
(0.511581 0.0968673 0)
(0.435786 -0.209016 4.61482e-21)
(0.188489 0.177381 1.53919e-22)
(0.0273987 0.0606874 5.55953e-21)
(0.577393 -0.269937 0)
(0.487465 0.199291 3.64958e-21)
(0.301035 0.21068 -1.04662e-20)
(0.261414 -0.0869549 5.35808e-21)
(0.466412 0.0191854 5.3933e-22)
(0.407285 0.22994 -3.35284e-21)
(0.00905787 0.0360151 5.98796e-22)
(0.596064 -0.218144 0)
(0.247447 0.099815 -2.31432e-21)
(0.351648 0.0727503 8.66923e-21)
(0.291782 -0.0103167 -1.1364e-20)
(0.458345 0.122311 -3.40297e-21)
(0.456306 0.107248 -2.63321e-23)
(0.418767 -0.146391 7.74019e-21)
(0.394312 -0.140354 7.59937e-21)
(0.188227 0.142292 -8.09504e-21)
(0.168536 0.128529 4.1902e-21)
(0.0683204 0.0053662 1.00763e-20)
(0.445206 0.277023 -4.23461e-21)
(0.648415 -0.147616 0)
(0.406294 0.211996 0)
(0.491703 -0.0838593 0)
(0.136684 0.0183047 9.49418e-21)
(0.518811 0.107323 1.62684e-21)
(0.457775 -0.224683 0)
(0.172519 0.16914 0)
(0.46835 0.218117 -3.59015e-21)
(0.566882 -0.166733 0)
(0.0828348 0.0538631 -4.50913e-21)
(0.294851 0.0747934 -2.35526e-21)
(0.300935 0.0438444 -3.42494e-21)
(0.270777 0.0542226 1.17754e-21)
(0.485827 0.10705 5.52581e-21)
(0.422988 -0.178177 0)
(0.181773 0.157507 7.06516e-21)
(0.40548 0.221932 0)
(0.504898 -0.082543 -4.9777e-21)
(0.134917 0.00840526 6.12497e-21)
(0.411968 0.16202 -9.86952e-21)
(0.424652 0.168494 7.94153e-21)
(0.302798 0.219 8.26153e-21)
(0.264381 -0.0968285 -1.55332e-20)
(0.476341 0.0185724 1.19401e-20)
(0.490263 0.118693 5.74747e-21)
(0.444155 -0.188617 -6.74385e-21)
(0.164244 0.146075 -6.44743e-21)
(0.476698 0.217349 1.27949e-20)
(0.0764002 0.0596958 1.58735e-20)
(0.576648 -0.180186 4.17091e-21)
(0.277469 0.183078 3.63022e-21)
(0.278811 -0.0835683 0)
(0.442182 0.0398209 -4.12685e-21)
(0.221379 0.19791 8.27099e-21)
(0.502787 0.0752759 4.31287e-21)
(0.38997 -0.187275 0)
(0.430306 0.24337 1.2289e-21)
(0.559184 -0.113309 4.39877e-21)
(0.105779 0.0102039 -2.81336e-21)
(0.286213 0.219028 -6.82708e-22)
(0.294839 -0.120823 0)
(0.483771 0.0330467 -8.97399e-21)
(0.438805 0.249336 0)
(0.447447 0.245146 0)
(0.57808 -0.12478 2.85025e-21)
(0.0965579 0.0131964 7.32094e-21)
(0.583223 -0.139043 -4.0327e-21)
(0.0878104 0.0240703 -7.78274e-21)
(0.0501351 0.0737693 6.07686e-21)
(0.599944 -0.249804 0)
(0.507559 0.204265 4.45591e-21)
(0.43238 0.22247 0)
(0.52995 -0.118125 2.02118e-21)
(0.10893 0.0283416 -2.48517e-21)
(0.516504 -0.234304 -6.43938e-21)
(0.00731622 0.0356268 -8.91975e-21)
(0.390706 0.198074 -8.79076e-21)
(0.387416 0.0752473 1.18698e-20)
(0.23835 0.124316 0)
(0.304988 -0.0468356 4.26509e-21)
(0.449379 0.149861 -7.64653e-21)
(0.449978 -0.137048 0)
(0.143988 0.099639 -1.37991e-20)
(0.0692433 0.0766328 4.94779e-21)
(0.500841 0.201263 -1.22375e-20)
(0.582565 -0.220822 -5.92222e-21)
(0.346089 -0.160954 4.88973e-21)
(0.495365 0.0539199 0)
(0.251413 0.212874 9.98797e-21)
(0.493089 -0.257291 1.43359e-20)
(0.538669 0.116449 3.89173e-21)
(0.146356 0.161327 0)
(0.405516 -0.0778512 5.06729e-21)
(0.166555 0.0747458 0)
(0.448628 0.176165 -8.43317e-21)
(0.480592 -0.135521 -3.66536e-21)
(0.123814 0.0738274 -4.23715e-21)
(0.396295 -0.0842748 -1.79715e-22)
(0.171096 0.0848424 -4.53123e-23)
(0.462135 0.257686 9.64027e-21)
(0.0473656 0.0307296 -1.18466e-20)
(0.64799 -0.183999 4.17079e-21)
(0.305094 -0.158568 -4.88692e-21)
(0.521177 0.0223043 -9.4696e-22)
(0.297513 0.251163 0)
(0.458857 0.181639 8.58541e-21)
(0.501278 -0.148583 4.47522e-21)
(0.114894 0.077684 1.03578e-20)
(0.430747 0.115998 0)
(0.384398 -0.111123 3.04075e-21)
(0.185616 0.121068 0)
(0.45929 0.062808 4.13713e-21)
(0.328251 -0.12259 0)
(0.245891 0.181915 0)
(0.356667 0.139263 3.15089e-21)
(0.375314 -0.0323535 5.54795e-21)
(0.191776 0.050147 -2.14266e-23)
(0.236667 0.208039 -1.02633e-20)
(0.502738 0.0649553 -1.05702e-20)
(0.3728 -0.178748 -1.32474e-20)
(0.517693 0.185199 5.42709e-21)
(0.57622 -0.24676 -6.69904e-21)
(0.0699755 0.090134 -1.17196e-22)
(0.499423 -0.249419 -9.69279e-21)
(0.532556 0.125093 -3.94389e-21)
(0.138216 0.151685 -5.42517e-21)
(0.376295 0.272265 7.71052e-21)
(0.183782 -0.0708235 -4.10277e-21)
(0.550074 -0.0451391 0)
(0.44223 0.266475 -2.2944e-21)
(0.436872 0.262953 2.05368e-21)
(0.597588 -0.12358 9.10137e-22)
(0.613841 -0.132672 -3.9663e-21)
(0.0861341 0.00450046 2.6969e-21)
(0.095378 0.000920956 2.37047e-21)
(0.00828378 0.0361259 9.05323e-21)
(0.543168 -0.229794 7.08891e-21)
(0.398577 0.20665 -2.09714e-21)
(0.416318 0.236176 2.09294e-22)
(0.0111212 0.0362604 0)
(0.615942 -0.217167 0)
(0.470821 0.129164 1.24238e-20)
(0.441032 -0.160668 1.74266e-21)
(0.160745 0.129205 0)
(0.0557955 0.0730207 1.50345e-20)
(0.504253 0.205706 -5.55307e-21)
(0.599875 -0.2375 0)
(0.406849 0.261065 -1.10533e-20)
(0.417274 0.260489 8.29904e-21)
(0.558226 -0.0827868 -4.7433e-21)
(0.568261 -0.0951966 -1.8041e-21)
(0.136689 -0.0268067 4.67674e-21)
(0.121647 -0.0146534 2.34544e-21)
(0.0657761 0.100129 0)
(0.552078 -0.286952 0)
(0.536975 0.158776 -1.68901e-21)
(0.380504 0.226354 3.93851e-21)
(0.00624175 0.0318377 -5.63438e-21)
(0.577905 -0.204876 0)
(0.337547 0.0453077 2.19691e-23)
(0.280502 0.104149 -5.03942e-21)
(0.260618 0.0180401 -2.52722e-21)
(0.41967 0.21704 7.0812e-21)
(0.576669 -0.237583 -3.30518e-21)
(0.0109274 0.0400113 -1.12261e-20)
(0.360912 0.226246 -9.08704e-21)
(0.486821 -0.0329125 7.87135e-21)
(0.186159 -0.0398089 7.12238e-24)
(0.518395 0.189921 -3.66856e-23)
(0.585857 -0.263705 -9.60224e-21)
(0.0557939 0.0836315 3.09448e-21)
(0.449878 -0.2427 -1.97716e-22)
(0.00862851 0.0342218 1.0282e-20)
(0.378568 0.157779 3.53763e-21)
(0.292047 0.172035 4.82812e-21)
(0.249698 -0.0446048 3.09e-22)
(0.418012 0.0280236 -1.2951e-20)
(0.363336 0.0849361 0)
(0.309952 -0.0265602 1.25945e-20)
(0.232513 0.100463 -6.48574e-21)
(0.465017 0.236609 -1.0159e-20)
(0.023942 0.0475453 -7.05482e-21)
(0.633718 -0.234114 2.31993e-25)
(0.375046 0.0874988 0)
(0.314359 -0.0385628 4.42678e-21)
(0.226311 0.109888 9.16248e-21)
(0.325069 0.0497114 -5.15153e-21)
(0.279652 0.0926967 5.32245e-21)
(0.266996 0.0275982 -1.3306e-21)
(0.259509 0.232705 4.9665e-21)
(0.519076 0.0474649 3.78037e-21)
(0.357649 -0.188504 -7.31138e-21)
(0.376583 0.0549572 0)
(0.273406 -0.0235883 0)
(0.261433 0.132094 -7.56737e-22)
(0.388014 0.0674448 -6.33115e-21)
(0.292383 -0.0383703 -3.42587e-21)
(0.251004 0.133422 -1.07352e-22)
(0.364094 0.267965 -1.16973e-20)
(0.539 -0.0338198 6.17017e-21)
(0.202506 -0.0857246 8.15929e-21)
(0.036854 0.0510623 -1.063e-20)
(0.0373019 0.0550986 1.07881e-20)
(0.636067 -0.222807 -2.81194e-21)
(0.627665 -0.23186 -1.9592e-21)
(0.479139 0.237836 -7.90606e-21)
(0.485052 0.230608 1.19784e-20)
(0.522393 0.183457 -6.65268e-21)
(0.577441 -0.255533 5.98784e-21)
(0.0659811 0.0925939 0)
(0.174537 -0.0740141 -5.29637e-21)
(0.384223 0.283052 -2.42398e-21)
(0.568197 -0.0534804 0)
(0.312129 0.206652 0)
(0.242063 -0.0694233 4.87691e-21)
(0.459538 0.0102001 -4.07806e-21)
(0.522177 0.0843165 0)
(0.427698 -0.219479 -4.77384e-21)
(0.202581 0.194295 -1.59246e-22)
(0.49389 -0.274378 -3.32996e-21)
(0.0205027 0.0515437 0)
(0.45247 0.16089 8.86433e-21)
(0.0953177 0.125182 0)
(0.545064 0.145659 0)
(0.539712 -0.280408 -4.05871e-21)
(0.471298 0.218684 -3.46963e-21)
(0.0232196 0.0531788 0)
(0.60692 -0.253642 3.36253e-21)
(0.00594702 0.0288088 3.80506e-32)
(0.422213 -0.22565 3.01269e-21)
(0.34575 0.150416 -3.6291e-21)
(0.446167 -0.195154 -3.36704e-21)
(0.00326276 0.0260811 -3.79626e-32)
(0.3283 0.176541 3.22717e-21)
(0.488036 -0.194971 9.25272e-21)
(0.49434 0.145767 0)
(0.134871 0.122697 1.3853e-20)
(0.539073 -0.289746 1.81604e-21)
(0.0448079 0.0806024 0)
(0.51965 0.161575 0)
(0.493779 0.192748 5.6905e-21)
(0.556645 -0.202777 -5.1987e-21)
(0.0865841 0.0833191 -7.22402e-21)
(0.442083 0.264932 -1.00762e-20)
(0.0286858 0.027694 -4.30177e-21)
(0.672235 -0.190382 0)
(0.384702 0.144585 -2.44264e-21)
(0.17311 0.0663711 2.63523e-21)
(0.398874 -0.0637799 -2.4435e-21)
(0.550066 -0.286083 0)
(0.0748394 0.108545 -5.15917e-21)
(0.540902 0.154955 -1.82885e-21)
(0.51816 0.0771711 4.30868e-21)
(0.215018 0.20262 2.82554e-21)
(0.4111 -0.208837 0)
(0.468065 -0.222426 0)
(0.515117 0.117269 0)
(0.158764 0.158085 -5.04606e-21)
(0.00105023 0.0118786 0)
(0.255097 -0.119426 2.48605e-21)
(0.197631 0.0910888 -2.78437e-21)
(0.508733 -0.249097 -3.26474e-21)
(0.00977282 0.0385551 6.20764e-21)
(0.405317 0.18765 3.64685e-21)
(0.37202 0.135542 6.29634e-21)
(0.185613 0.0653201 -6.20652e-21)
(0.378667 -0.0493525 -2.81615e-21)
(0.567919 -0.277188 -8.49442e-21)
(0.527269 0.175421 3.74316e-21)
(0.0556661 0.0893998 0)
(0.0619293 0.0984338 5.42722e-21)
(0.537741 0.155092 0)
(0.543044 -0.292628 6.37297e-21)
(0.495297 0.218402 4.03237e-21)
(0.050646 0.0643709 -1.61244e-20)
(0.610654 -0.226602 -8.04788e-21)
(0.0607261 0.0217741 1.21691e-20)
(0.638363 -0.163814 -4.43944e-21)
(0.456128 0.263221 0)
(0.354951 0.274968 1.47021e-20)
(0.543919 -0.0256891 -7.86764e-21)
(0.223265 -0.105616 7.78892e-21)
(0.591975 -0.108851 -1.36199e-21)
(0.426012 0.27013 -4.83269e-21)
(0.110362 -0.0144902 7.39783e-21)
(0.0506745 0.0156787 1.09446e-20)
(0.448564 0.273478 0)
(0.664188 -0.167517 3.23451e-21)
(0.376699 0.214581 2.29096e-21)
(0.390703 0.223588 0)
(0.476959 -0.0500371 8.18388e-21)
(0.496938 -0.0644537 -8.74358e-21)
(0.164144 -0.00817553 -4.97105e-21)
(0.15067 -0.00622332 0)
(0.363116 0.21584 2.24695e-21)
(0.473775 -0.0356519 0)
(0.180385 -0.0236763 -2.38619e-21)
(0.39995 0.269413 0)
(0.563011 -0.07452 7.65993e-21)
(0.146363 -0.0403189 -1.68891e-21)
(0.4901 -0.237606 4.80098e-21)
(0.524656 0.124572 -4.0438e-21)
(0.143032 0.149364 1.11654e-20)
(0.568037 -0.267599 0)
(0.527361 0.17508 -1.12123e-21)
(0.0685147 0.0978715 0)
(0.12105 0.130058 3.58591e-21)
(0.521754 0.143572 2.62528e-21)
(0.515568 -0.237892 3.13447e-21)
(0.480967 -0.199847 4.56783e-22)
(0.00359018 0.0282072 1.55643e-25)
(0.345412 0.190903 0)
(0.320564 0.17335 -4.35283e-21)
(0.327206 0.166013 0)
(0.215482 -0.0141006 1.13355e-21)
(0.413615 0.00313442 -1.57689e-20)
(0.208812 -5.95852e-05 -1.43397e-21)
(0.404298 -0.00403275 1.00239e-20)
(0.38243 0.256703 0)
(0.368149 0.247867 1.49377e-21)
(0.184423 -0.0540988 -2.49487e-23)
(0.534098 -0.0536498 -4.78578e-21)
(0.169238 -0.0460181 -1.23068e-20)
(0.515919 -0.0401541 1.01379e-20)
(0.439522 -0.253732 0)
(0.0115622 0.0380294 -1.12215e-20)
(0.396568 0.14885 0)
(0.573007 -0.272551 5.02498e-21)
(0.526069 0.178568 -1.13628e-21)
(0.0577277 0.0882528 -3.24918e-21)
(0.31727 0.229421 2.73882e-21)
(0.253556 -0.0976426 5.59437e-21)
(0.488505 0.00680497 -1.34828e-20)
(0.462403 -0.240271 -1.04456e-20)
(0.531414 0.100535 -1.04752e-20)
(0.17407 0.179396 0)
(0.0676558 0.0152989 -1.30123e-20)
(0.633724 -0.154904 4.72426e-21)
(0.452149 0.265839 0)
(0.555568 -0.264249 0)
(0.454385 0.197773 0)
(0.017332 0.0494566 0)
(0.559892 -0.270525 0)
(0.472655 0.193207 -6.26061e-21)
(0.0230393 0.0563231 0)
(0.420571 0.249983 4.58592e-21)
(0.556518 -0.100976 -2.73183e-21)
(0.117039 -0.00272586 -3.47174e-21)
(0.26724 0.173068 1.26954e-21)
(0.287236 -0.0774215 0)
(0.431759 0.0499145 -4.36015e-21)
(0.49278 0.221643 -4.69849e-21)
(0.0443182 0.0614161 -9.41827e-21)
(0.619262 -0.232034 1.16579e-20)
(0.493823 -0.209658 0)
(0.504261 0.143554 0)
(0.132522 0.130034 -1.1949e-20)
(0.0661806 0.0544652 -3.03246e-21)
(0.59645 -0.189011 -7.13381e-21)
(0.478493 0.226952 -1.21054e-20)
(0.357631 0.247547 -1.5216e-21)
(0.200316 -0.067038 8.20902e-21)
(0.511445 -0.0302879 -5.19102e-21)
(0.464236 0.0884928 8.08787e-21)
(0.373303 -0.141482 -4.71708e-21)
(0.212068 0.164507 -9.97228e-21)
(0.300472 0.191647 -7.02083e-23)
(0.249905 -0.0652064 1.59404e-21)
(0.443821 0.0200424 5.34324e-21)
(0.0437099 0.0666632 3.67667e-21)
(0.611052 -0.245384 -5.38624e-21)
(0.49915 0.212954 -5.32265e-21)
(0.462216 0.231075 2.20314e-21)
(0.580524 -0.160204 2.11506e-21)
(0.0802668 0.0424894 0)
(0.298065 0.165347 4.72077e-21)
(0.239711 -0.0283243 -9.99042e-21)
(0.407639 0.0231256 8.53438e-21)
(0.445058 0.273606 -3.90488e-21)
(0.0421196 0.0179423 -4.88114e-21)
(0.673144 -0.174811 -3.3484e-23)
(0.35913 0.190985 2.77807e-21)
(0.440376 -0.0353526 0)
(0.177863 -6.79049e-05 0)
(0.402086 0.102816 1.13895e-20)
(0.347668 -0.0730055 -2.74569e-21)
(0.205582 0.115208 0)
(0.46491 -0.206602 0)
(0.504128 0.122184 -8.21026e-21)
(0.155883 0.149146 5.28386e-21)
(0.42972 0.248495 0)
(0.0160557 0.035037 1.51234e-21)
(0.648051 -0.210673 -3.64629e-21)
(0.428959 0.255924 -4.1529e-21)
(0.0180872 0.0320144 -4.83011e-21)
(0.659447 -0.20115 3.52232e-21)
(0.0632243 0.0462948 -2.77253e-21)
(0.606978 -0.18349 4.22554e-21)
(0.473233 0.235852 1.10982e-20)
(0.478425 0.0780208 3.80764e-21)
(0.374246 -0.15733 9.4703e-21)
(0.222173 0.179345 0)
(0.0111615 0.0332205 -1.38555e-21)
(0.631477 -0.208198 3.41058e-21)
(0.409485 0.243025 0)
(0.0795045 0.0842107 0)
(0.56753 -0.216615 4.34316e-21)
(0.501108 0.192607 1.39251e-21)
(0.00496844 0.0238451 -5.59672e-21)
(0.357813 -0.208868 -3.42789e-21)
(0.307488 0.121238 0)
(0.27791 0.162043 3.62934e-21)
(0.397602 -0.159424 0)
(0.00137955 0.0202543 -5.60034e-21)
(0.0522502 0.0218704 -8.35843e-24)
(0.653555 -0.172076 5.52366e-22)
(0.454606 0.266979 0)
(0.0344633 0.0649222 0)
(0.600058 -0.260658 0)
(0.497003 0.207534 -7.18956e-21)
(0.476779 0.240827 4.12041e-21)
(0.479011 0.237464 -3.33356e-21)
(0.0422135 0.0465904 5.32874e-21)
(0.637247 -0.208947 9.25784e-22)
(0.0483456 0.0487148 0)
(0.626336 -0.204355 0)
(0.50731 0.182463 -2.67356e-21)
(0.558029 -0.223597 -2.87523e-21)
(0.0855489 0.0932784 0)
(0.193844 0.196316 0)
(0.442476 -0.237099 0)
(0.533416 0.0875927 0)
(0.327539 0.14559 -5.81139e-21)
(0.210901 0.0209753 1.36485e-20)
(0.379536 -0.00375199 -5.50352e-21)
(0.51218 0.160238 -7.57711e-21)
(0.528812 -0.226219 -1.0637e-21)
(0.106924 0.113545 -1.05838e-20)
(0.118685 0.123094 -6.89324e-21)
(0.513122 0.150992 1.05308e-20)
(0.51543 -0.22563 1.47599e-21)
(0.442834 0.281469 -4.33871e-21)
(0.0600873 0.00528392 -5.23855e-21)
(0.663698 -0.153388 0)
(0.385249 0.264783 0)
(0.546459 -0.0566717 -2.27504e-21)
(0.166649 -0.0516987 1.20627e-20)
(0.37139 0.235401 0)
(0.502378 -0.0429885 -1.03361e-20)
(0.176974 -0.0403425 -1.87399e-23)
(0.485171 0.164452 9.67315e-21)
(0.505196 -0.185847 -1.29294e-21)
(0.117747 0.102225 5.99843e-21)
(0.493422 0.159169 0)
(0.506015 -0.19651 -1.21532e-21)
(0.11971 0.109686 -5.52549e-21)
(0.289066 0.15207 0)
(0.247611 -0.0211793 1.57621e-20)
(0.392608 0.0313333 0)
(0.392203 0.232042 0)
(0.508491 -0.066906 5.80244e-21)
(0.14817 -0.0147897 -1.80907e-21)
(0.0839331 0.118595 1.11802e-20)
(0.539622 -0.289863 9.16344e-21)
(0.547984 0.145857 0)
(0.481436 0.179965 1.38568e-22)
(0.0259985 0.0597451 -3.4367e-21)
(0.539 -0.278515 -2.39961e-21)
(0.474595 0.166655 4.1785e-23)
(0.025283 0.0583459 0)
(0.516618 -0.279787 6.89066e-21)
(0.334149 0.204146 -3.28505e-21)
(0.210282 -0.0386113 1.73679e-21)
(0.453124 -0.00948091 8.19454e-23)
(0.523842 -0.260399 -1.12974e-22)
(0.0145106 0.0452281 -1.42479e-20)
(0.436626 0.185713 0)
(0.465513 0.239437 -9.5106e-21)
(0.0704755 0.0398525 0)
(0.600479 -0.168762 0)
(0.0159133 0.0459254 5.65032e-21)
(0.491906 -0.267536 3.69386e-21)
(0.43394 0.166246 -6.90543e-21)
(0.349781 0.100635 -7.74786e-21)
(0.223947 0.0803402 -8.22345e-21)
(0.325234 -0.0164355 -4.29183e-23)
(0.428242 0.181341 1.40996e-21)
(0.471316 -0.109934 1.33856e-21)
(0.132463 0.0594135 5.42186e-21)
(0.350868 -0.146345 -1.0811e-20)
(0.475882 0.0665898 -1.33642e-20)
(0.238961 0.188291 0)
(0.0499815 0.0855241 0)
(0.549408 -0.287771 2.27573e-21)
(0.525553 0.165376 0)
(0.483941 -0.214944 0)
(0.508117 0.134332 0)
(0.141151 0.138776 0)
(0.0357367 0.0265194 0)
(0.449626 0.265899 3.71171e-21)
(0.669647 -0.186295 -3.21574e-21)
(0.441571 0.185921 0)
(0.488258 -0.126274 -6.67465e-22)
(0.122273 0.0640904 1.22248e-23)
(0.322315 0.135641 5.61331e-21)
(0.218353 0.0268516 -1.17164e-20)
(0.36681 0.00224739 0)
(0.567548 -0.280094 8.03819e-21)
(0.519345 0.179261 -3.55229e-21)
(0.0472487 0.0814019 0)
(0.0679351 0.0691391 6.36509e-21)
(0.586612 -0.209901 -2.76024e-22)
(0.492355 0.210374 -9.15681e-23)
(0.448749 0.237646 0)
(0.441607 0.234381 -4.25915e-21)
(0.018379 0.0427534 -3.46222e-21)
(0.0156732 0.0424629 4.27586e-21)
(0.632676 -0.228013 2.24058e-21)
(0.621722 -0.231804 -1.84222e-21)
(0.445842 0.128465 0)
(0.414481 -0.131781 -9.05288e-21)
(0.16807 0.117776 -6.55391e-21)
(0.467983 -0.180771 -1.29901e-20)
(0.484373 0.138449 0)
(0.143551 0.125533 7.2603e-21)
(0.382636 0.115325 6.41423e-21)
(0.355006 -0.0571214 -4.68186e-21)
(0.195443 0.0911613 -1.01063e-20)
(0.550238 -0.283525 -5.27398e-21)
(0.500437 0.178045 -4.85414e-21)
(0.53815 -0.288044 2.50352e-21)
(0.0331736 0.0679086 3.64054e-21)
(0.506103 0.167384 4.55075e-21)
(0.0369096 0.0715033 0)
(0.46586 0.196521 0)
(0.528846 -0.16157 0)
(0.101058 0.0696356 -6.77845e-21)
(0.510411 0.18757 -4.76623e-21)
(0.502357 0.186553 1.19752e-20)
(0.575734 -0.276431 -3.45878e-21)
(0.56847 -0.278056 8.70474e-21)
(0.0397712 0.0737363 -9.5588e-21)
(0.0341847 0.068232 -2.2571e-25)
(0.481543 0.129866 0)
(0.449876 -0.176155 1.20134e-20)
(0.158137 0.137117 -9.41115e-21)
(0.422352 0.147447 -6.10558e-21)
(0.438438 -0.112015 8.05258e-21)
(0.146887 0.0819109 0)
(0.44385 0.258473 0)
(0.0243634 0.0327663 -6.65044e-22)
(0.664079 -0.201738 -3.38243e-21)
(0.442669 0.139623 -4.49756e-21)
(0.427951 -0.127483 0)
(0.157423 0.106642 1.08714e-20)
(0.396591 0.125791 -2.60648e-21)
(0.377712 -0.0761455 5.48844e-21)
(0.182641 0.0909516 -5.92045e-21)
(0.442611 0.244333 0)
(0.0190714 0.0389578 0)
(0.645946 -0.219595 4.66755e-21)
(0.439658 0.197905 0)
(0.506807 -0.125638 -1.41443e-21)
(0.113446 0.0525433 6.7267e-21)
(0.400296 -0.211639 0)
(0.52488 0.0677922 0)
(0.228383 0.216561 3.65181e-22)
(0.35491 0.25569 3.74422e-22)
(0.520675 -0.0261947 0)
(0.208431 -0.0802457 -6.37346e-21)
(0.505714 -0.271049 -5.60991e-21)
(0.134041 0.157559 0)
(0.546846 0.120186 0)
(0.00219259 0.0180935 1.34604e-20)
(0.336207 -0.159273 -3.48089e-21)
(0.260097 0.122203 3.89808e-21)
(0.442244 0.162067 0)
(0.455109 -0.126602 -4.94705e-21)
(0.138225 0.0847789 0)
(0.462584 0.250393 -6.91172e-21)
(0.0310008 0.0401861 -1.80394e-20)
(0.652877 -0.208223 6.91341e-21)
(0.264042 -0.132135 0)
(0.531272 -0.00175674 5.17886e-21)
(0.326392 0.264356 0)
(0.337114 0.202774 0)
(0.00297446 0.0271354 3.35841e-21)
(0.508076 -0.189888 0)
(0.24193 0.148634 -6.29931e-21)
(0.247018 0.161925 6.44886e-21)
(0.306393 -0.0741452 0)
(0.415389 0.0685051 -5.48685e-21)
(0.310105 -0.0888179 1.02006e-20)
(0.430734 0.0632273 4.42084e-21)
(0.384441 0.102652 -6.03793e-21)
(0.337647 -0.0530245 -6.21425e-21)
(0.209324 0.103798 0)
(0.275629 0.16583 -5.56369e-21)
(0.259308 0.153687 0)
(0.26908 -0.0556629 0)
(0.416927 0.0416152 0)
(0.281903 -0.0557035 5.72071e-21)
(0.408078 0.0547435 -2.84777e-23)
(0.431573 0.158813 -3.87992e-22)
(0.41658 -0.103568 3.50727e-21)
(0.160319 0.0905467 7.31433e-21)
(0.427048 0.139258 1.05145e-20)
(0.41327 -0.108808 0)
(0.165097 0.100217 0)
(0.0314776 0.0656861 0)
(0.514528 -0.288031 0)
(0.492472 0.159584 -4.99265e-21)
(0.349518 0.205163 9.05277e-21)
(0.45678 -0.0226097 0)
(0.192537 -0.0244397 -3.21874e-21)
(0.507314 0.197432 9.5379e-21)
(0.590185 -0.267885 -4.01365e-21)
(0.0400834 0.0720975 5.45181e-21)
(0.485064 0.177371 0)
(0.492836 0.181751 -5.48356e-21)
(0.524393 -0.186795 1.61114e-21)
(0.539729 -0.198563 -5.11897e-21)
(0.104374 0.0920083 7.48731e-21)
(0.0963728 0.0911902 6.9749e-21)
(0.348104 0.192572 0)
(0.440559 -0.0231837 0)
(0.190787 -0.0120434 -1.51385e-21)
(0.401294 0.250707 -3.64953e-21)
(0.539141 -0.0757186 0)
(0.142764 -0.0227505 -4.02289e-21)
(0.466132 0.175142 2.77779e-21)
(0.498842 -0.160624 0)
(0.115595 0.0870593 -6.83489e-21)
(0.297851 0.112567 -6.09916e-21)
(0.34289 0.0275259 -2.96566e-21)
(0.243378 0.0254488 -3.14867e-21)
(0.502693 0.166387 0)
(0.527201 -0.211934 0)
(0.106671 0.106807 1.12517e-20)
(0.315374 0.151101 0)
(0.220085 0.00481368 -1.73091e-21)
(0.386454 0.00725521 0)
(0.474197 0.142297 6.13077e-21)
(0.459822 -0.169103 6.68459e-21)
(0.146088 0.118488 9.3947e-22)
(0.404092 0.23952 -3.69397e-21)
(0.527318 -0.08028 -6.61801e-21)
(0.136565 -0.0109872 0)
(0.301757 0.126142 6.04496e-21)
(0.292027 0.130307 2.70987e-21)
(0.357664 0.0208388 -2.9027e-21)
(0.235572 0.0170733 6.2225e-21)
(0.366053 0.0284013 0)
(0.242855 0.00320511 1.11149e-20)
(0.273454 0.143592 2.75239e-21)
(0.262098 -0.0296181 -7.35362e-21)
(0.261778 0.146419 -1.77179e-21)
(0.388946 0.0436678 0)
(0.281185 -0.0468378 -3.64028e-21)
(0.399596 0.0549712 6.27453e-21)
(0.375445 0.20313 -3.28958e-21)
(0.390501 0.20235 0)
(0.461718 -0.0509051 -6.06035e-21)
(0.468718 -0.0659349 4.72825e-21)
(0.162856 0.00326403 1.43684e-20)
(0.150624 0.0166376 -1.19471e-20)
(0.0610827 0.0301212 0)
(0.626042 -0.169672 2.59515e-21)
(0.461607 0.253377 5.77352e-21)
(0.241678 0.21925 -1.22925e-20)
(0.515926 0.0601986 -5.95815e-21)
(0.378519 -0.193832 1.1473e-20)
(0.05311 0.0353487 6.0683e-21)
(0.0537928 0.0428018 0)
(0.633107 -0.183327 -2.24313e-21)
(0.62331 -0.191264 -3.86032e-21)
(0.466369 0.251752 -1.48215e-20)
(0.473402 0.242476 7.72275e-21)
(0.291813 0.23116 0)
(0.29597 -0.131292 6.12346e-21)
(0.496656 0.0271095 -1.28093e-21)
(0.298028 0.0879995 -1.28226e-20)
(0.258175 0.0472958 0)
(0.313962 0.0355031 1.01468e-20)
(0.501527 0.176515 2.64902e-21)
(0.541685 -0.212163 5.77892e-21)
(0.0964381 0.0979429 0)
(0.330432 0.183551 0)
(0.206775 -0.020792 1.44308e-21)
(0.427921 -0.00641466 5.10427e-21)
(0.412402 0.239766 0)
(0.534547 -0.0900621 0)
(0.12689 -0.00232943 9.61384e-22)
(0.450048 0.260103 0)
(0.453147 0.251592 0)
(0.615329 -0.146918 -1.38033e-21)
(0.076925 0.0161662 7.38983e-21)
(0.604012 -0.149301 3.76175e-21)
(0.0776187 0.0238237 -9.99517e-21)
(0.476013 0.19371 -5.27763e-21)
(0.538438 -0.175197 -5.37849e-21)
(0.0954678 0.0758523 -3.25904e-21)
(0.370914 0.211512 -5.47108e-21)
(0.543261 -0.207643 0)
(0.00555841 0.0314155 4.1106e-21)
(0.278824 -0.136799 0)
(0.51986 0.00919013 -4.21683e-21)
(0.313572 0.253499 0)
(0.339354 0.264978 -3.79324e-21)
(0.333962 0.254805 4.06973e-21)
(0.242143 -0.112944 3.98746e-21)
(0.530619 -0.0117178 0)
(0.244233 -0.106614 0)
(0.51765 -0.00738976 0)
(0.519456 0.134955 9.23203e-21)
(0.498868 -0.2328 -1.0905e-20)