/*--------------------------------*- C++ -*----------------------------------*\
  =========                 |
  \\      /  F ield         | OpenFOAM: The Open Source CFD Toolbox
   \\    /   O peration     | Website:  https://openfoam.org
    \\  /    A nd           | Version:  6
     \\/     M anipulation  |
\*---------------------------------------------------------------------------*/
FoamFile
{
    version     2.0;
    format      ascii;
    class       volVectorField;
    location    "0";
    object      U;
}
// * * * * * * * * * * * * * * * * * * * * * * * * * * * * * * * * * * * * * //

dimensions      [0 1 -1 0 0 0 0];

internalField   nonuniform List<vector> 
918
(
(0.982517 -0.0129644 0)
(-0.00416752 2.96745 0)
(-0.026906 1.72924 0)
(0.9551 0.0331406 0)
(-0.0379096 1.69037 -4.57251e-22)
(0.00137227 2.95109 -1.28872e-18)
(1.17884 1.47775 4.52138e-19)
(0.57125 0.308469 -4.86651e-21)
(0.99554 -0.00749524 0)
(-0.00160457 1.71022 0)
(0.0140818 1.67919 0)
(0.912742 0.0288399 0)
(0.00929645 2.93483 0)
(-0.0340515 2.86687 0)
(-0.0293243 3.14073 8.51678e-19)
(0.015076 1.66117 -1.4698e-20)
(0.713609 0.144366 3.78408e-19)
(0.283981 1.96595 4.59224e-19)
(0.991534 0.0625895 0)
(0.0134853 1.68744 0)
(0.370394 0.394438 -3.10332e-19)
(0.958282 0.00519558 0)
(0.96204 -0.00398073 0)
(0.961874 0.0357656 0)
(0.84702 0.0373702 0)
(0.0553571 2.6496 0)
(0.000864629 2.92726 4.17296e-19)
(-0.0109771 1.72764 0)
(-0.00360423 1.75916 0)
(-0.00330161 1.74939 0)
(-0.00451522 1.79095 0)
(-0.00976837 1.71455 3.58463e-22)
(-0.00350822 1.66443 0)
(-0.0194828 2.98997 -4.47911e-23)
(-0.0137356 3.00772 1.01448e-18)
(0.00146617 2.99952 0)
(0.964747 0.00897651 0)
(0.394824 0.505885 -4.425e-20)
(1.08024 1.55215 -4.96425e-19)
(1.20586 1.26309 5.10624e-19)
(0.920674 1.75574 -1.01946e-19)
(1.02503 1.71966 6.27014e-19)
(0.609064 0.338097 4.7464e-21)
(0.576314 0.294496 0)
(1.30698 0.619616 0)
(0.599898 0.352644 2.03595e-20)
(0.541242 0.338022 -2.11317e-20)
(0.950791 0.00974143 0)
(0.994428 -0.00206738 0)
(0.998489 0.00406427 0)
(0.951149 -0.0269826 0)
(0.991145 -0.000445617 0)
(1.00065 0.00379655 0)
(0.0163383 1.63148 -3.18609e-19)
(-0.00491605 1.77006 0)
(0.054585 1.75129 0)
(-0.00182605 1.77441 0)
(0.0278639 1.68032 0)
(0.0111129 1.67794 0)
(0.0104282 1.72706 0)
(0.0180697 1.67641 0)
(0.0100021 1.72549 0)
(0.0197472 1.67722 0)
(0.969675 -0.0208553 0)
(0.957685 0.0137423 0)
(0.91706 0.00278977 0)
(0.93192 0.0208104 0)
(0.910139 0.00154549 0)
(0.0136238 3.00364 4.62306e-19)
(0.011653 3.00496 0)
(0.0069245 3.00342 0)
(0.0110208 2.99717 5.11725e-24)
(0.00633647 2.96294 -6.95633e-19)
(0.0124949 2.98502 0)
(0.0124943 2.90859 0)
(-0.016718 2.94836 8.64936e-25)
(-0.0312844 2.84846 0)
(-0.0105629 2.9613 0)
(-0.0283609 2.84866 0)
(0.191926 3.41769 0)
(-0.116055 3.48588 0)
(0.0982489 3.21792 -7.86824e-19)
(-0.0130768 2.98071 0)
(0.00225049 1.74689 0)
(0.00986055 1.72061 1.44973e-20)
(0.0220325 1.67278 -1.61379e-20)
(0.736623 0.180617 -1.31735e-19)
(0.71185 0.125751 -1.33594e-19)
(0.732969 0.216832 -3.94641e-19)
(0.668538 0.196266 -2.59951e-19)
(0.182495 1.33407 0)
(0.375457 2.04604 -4.60726e-19)
(0.493722 2.02785 7.82767e-19)
(0.975552 0.0505654 0)
(0.94106 0.0325234 0)
(0.998843 -0.00769187 0)
(0.979803 0.00941462 0)
(1.03467 0.0599742 -8.56164e-19)
(0.997268 0.0225629 6.57708e-19)
(0.00185321 1.73987 0)
(-0.00966237 1.70004 0)
(-0.00166493 1.74707 0)
(0.0191864 1.73468 0)
(0.0312382 1.68172 0)
(0.373965 0.440054 8.79154e-20)
(0.491336 0.364123 0)
(1.0208 0.00849655 0)
(0.992454 0.00654216 0)
(0.930106 -0.00511871 0)
(0.91213 0.0167654 0)
(0.913086 0.00241014 0)
(1.10528 -0.00916636 0)
(0.847122 0.0799939 0)
(0.773283 0.0526591 5.42648e-19)
(-0.0387502 2.83178 1.61454e-19)
(0.0279413 2.9728 0)
(0.0631003 2.93031 0)
(0.0219011 2.78349 0)
(-0.0153706 3.00108 3.76931e-19)
(-0.0430644 2.89747 0)
(-0.00737448 2.99393 -1.20543e-18)
(-0.0070576 2.93333 4.21233e-19)
(0.00476349 1.76965 0)
(0.00574537 1.76088 0)
(-0.0124281 1.72112 -4.3094e-24)
(-0.00397812 1.70617 0)
(-0.0158947 1.65613 0)
(0.993796 0.0108044 0)
(0.968845 0.00218162 0)
(0.937144 -0.0170518 0)
(0.986743 0.0167276 0)
(0.958434 0.00810382 0)
(0.541439 0.829229 4.52091e-20)
(0.314996 0.73006 0)
(0.644661 0.825118 2.26066e-21)
(0.530494 0.568012 0)
(1.11907 1.33597 -1.41084e-19)
(1.26466 1.00228 2.88232e-19)
(0.582738 2.04072 0)
(0.763196 1.93524 0)
(0.819104 1.9267 0)
(0.593332 1.13656 -2.31148e-19)
(0.650761 0.316647 0)
(0.636826 0.237836 6.90481e-20)
(1.17894 1.09641 0)
(1.22729 0.890181 0)
(1.2679 0.811604 -2.44975e-19)
(1.22993 0.657012 0)
(1.29419 0.434911 2.60277e-20)
(0.979705 -0.00817042 0)
(0.992624 0.00170995 0)
(0.951195 -0.0263379 0)
(0.984566 0.0104001 0)
(0.977008 0.00691539 0)
(0.952368 0.00480983 0)
(0.983228 -0.00379127 0)
(0.992077 0.00424152 0)
(0.997333 0.00432089 0)
(0.0220294 1.6586 1.71383e-19)
(0.0627783 1.58713 0)
(-0.0231204 1.66793 2.91046e-19)
(-0.0331477 1.591 -2.55342e-19)
(0.19636 1.9256 -3.83832e-19)
(0.0531581 1.81174 0)
(0.119558 1.81528 0)
(0.0159819 1.74367 0)
(-0.012659 1.68844 0)
(0.00563398 1.69834 -6.91241e-22)
(-0.00427655 1.65601 0)
(-0.00992521 1.72161 -3.59116e-20)
(-0.0194779 1.67184 7.21757e-20)
(-0.0268792 1.74252 0)
(0.00167696 1.74603 0)
(-0.0207434 1.69265 0)
(0.00752913 1.72722 0)
(0.00817939 1.68462 0)
(1.01083 -0.00319889 0)
(0.984513 0.0241602 0)
(1.02026 0.0136378 0)
(0.967399 0.0282592 0)
(0.942699 -0.00247372 0)
(0.975796 -0.00359307 0)
(0.967999 0.0138673 0)
(0.94926 -0.0106538 0)
(0.0156696 3.06589 -3.83106e-21)
(0.0211972 3.05248 0)
(0.0168606 2.97131 0)
(0.0171382 2.87744 0)
(0.65424 3.6608 0)
(0.883125 2.96319 6.00491e-19)
(0.079401 3.09573 0)
(-0.0051146 2.87284 0)
(-0.00414599 1.74452 0)
(0.00876502 1.74588 0)
(0.00385146 1.74429 0)
(0.00508273 1.78773 1.76737e-21)
(0.00739473 1.74638 0)
(2.77233e-05 1.77134 0)
(-0.0359546 1.66436 -4.34373e-21)
(-0.0264574 1.71595 2.95526e-20)
(0.0224054 1.72983 1.63578e-20)
(0.0190587 1.67495 0)
(0.766435 0.1347 2.03649e-19)
(0.736359 0.0629879 -1.96031e-19)
(0.177013 1.42138 0)
(0.292647 1.32647 -1.43221e-19)
(0.134905 1.41666 -4.18848e-19)
(0.158597 1.38304 4.18422e-19)
(0.948548 -0.00394649 0)
(0.973693 -0.00330491 0)
(0.971789 0.00239181 0)
(0.943645 0.00452104 0)
(0.00861393 1.72037 0)
(-0.0114237 1.72841 0)
(-0.0101488 1.68246 0)
(0.56099 0.377933 1.75984e-19)
(0.518574 0.400248 -2.07756e-19)
(0.517351 0.349976 0)
(1.20234 0.083961 2.95124e-21)
(1.20109 0.0567437 0)
(1.1311 0.0445205 0)
(1.04736 0.0174406 0)
(0.787673 0.0930775 0)
(0.80624 0.0593337 -8.74005e-19)
(0.763553 0.0124125 3.33995e-19)
(-0.0145656 2.95864 2.70683e-19)
(-0.0625494 2.82245 4.31592e-20)
(0.0095341 3.04919 -8.33575e-21)
(0.0100632 3.04105 3.22496e-19)
(-0.0119214 2.99848 1.40949e-20)
(-0.00958704 2.95506 -5.79933e-23)
(-0.0144106 3.01245 -2.74171e-19)
(0.0108689 3.02358 1.89195e-19)
(0.00776229 3.02614 -2.97525e-19)
(1.00472 0.0215062 0)
(1.00854 0.00826802 0)
(0.966069 0.0198414 0)
(0.980162 -0.0198709 0)
(0.988889 -0.00453318 0)
(0.956595 -0.0213396 0)
(0.973734 0.0121294 0)
(0.97941 0.00158496 0)
(0.944893 0.0119133 0)
(0.4919 1.03085 1.89493e-19)
(0.367561 1.08404 0)
(0.615194 0.926344 6.31818e-20)
(0.654412 1.06229 4.44181e-19)
(0.670594 0.91682 -2.18138e-19)
(0.581406 0.745983 3.94774e-19)
(0.49532 1.30492 1.12247e-18)
(0.479072 1.18716 2.24254e-19)
(0.692638 0.250701 2.78756e-19)
(0.678321 0.268199 6.70925e-20)
(0.655601 0.224307 1.34971e-19)
(1.26727 0.487034 1.42779e-19)
(1.30474 0.290124 1.62932e-19)
(-0.00962519 1.65785 1.19434e-19)
(0.0179304 1.63117 0)
(1.06746 0.0270184 0)
(1.04849 0.0190771 0)
(1.02006 -0.0090749 0)
(0.0167673 3.07096 0)
(-0.00551202 2.94061 5.36454e-19)
(0.0190344 2.95439 0)
(0.00515192 2.84982 -5.28096e-19)
(0.0154196 3.08268 1.25276e-19)
(0.00619737 3.07284 0)
(0.421285 1.31379 -1.20735e-19)
(0.89765 2.15799 3.24284e-19)
(0.359202 1.52075 -7.96038e-19)
(0.0312586 2.97498 -1.50109e-19)
(0.0607448 3.01286 0)
(-0.00962639 2.84102 0)
(0.00587759 1.71573 -5.81439e-21)
(-0.00959073 1.74737 -4.80202e-20)
(0.0270168 1.69753 -7.55163e-21)
(0.262907 1.38282 4.49842e-19)
(0.344651 1.29816 -3.12272e-19)
(0.0502963 1.59898 2.86302e-19)
(0.0885592 1.50447 -3.38976e-19)
(0.088897 1.47579 3.18756e-20)
(0.0190046 3.07882 -6.99897e-19)
(0.0252331 3.09478 7.30528e-19)
(-0.0451308 2.97862 3.31948e-19)
(-0.023959 2.95897 -3.08328e-19)
(-0.0465094 2.86902 -3.38232e-19)
(0.0259709 3.09315 -8.88685e-19)
(0.0259984 3.09853 8.3184e-19)
(0.566637 1.22796 0)
(0.611888 1.17263 -1.07419e-18)
(0.610229 1.06065 4.83623e-19)
(0.413697 1.29163 6.14613e-19)
(0.463161 1.19846 -9.60718e-19)
(1.28209 0.163405 -2.05395e-20)
(1.27624 0.272166 0)
(1.28337 0.113154 5.50837e-20)
(-0.00902741 1.70648 -8.60117e-22)
(0.0189694 1.68998 0)
(0.0158021 1.65842 0)
(0.317253 1.35366 -1.62769e-19)
(0.389855 1.33251 -3.93477e-19)
(0.40272 1.24906 7.12068e-19)
(1.01309 -0.0565024 0)
(0.997703 -0.0591307 1.70284e-19)
(-0.0027337 1.77042 0)
(-0.0040811 1.7758 0)
(0.974826 -0.0127295 2.18592e-21)
(0.994842 -0.0178509 3.23022e-19)
(0.00833394 1.7764 -2.38694e-21)
(0.00868816 1.77426 0)
(0.0698151 3.24437 -5.09986e-20)
(0.275822 3.52497 0)
(1.0652 0.684883 9.71066e-22)
(1.01488 -0.0126693 6.71751e-22)
(1.01496 0.010507 0)
(1.00274 -0.00979002 -4.21605e-21)
(0.0513436 1.85201 0)
(0.0588483 1.68367 0)
(0.00455933 1.79483 0)
(0.0174766 1.75394 4.7959e-20)
(0.0275485 1.74704 2.77775e-20)
(0.995086 -0.00506676 -1.52017e-21)
(1.04866 -0.0049982 0)
(1.0616 0.0329044 0)
(0.00202659 1.7505 0)
(-0.0223724 1.78886 0)
(-0.00705812 1.78895 0)
(0.249603 1.9643 -1.83377e-19)
(0.991712 -0.0537309 0)
(0.978579 -0.0459445 0)
(1.01265 0.00225049 2.18362e-19)
(1.01002 -0.00442313 -2.51508e-19)
(0.995296 0.00862523 0)
(-0.0159153 1.75141 0)
(0.00115918 1.76111 0)
(-0.00956851 1.75223 0)
(-0.00563104 1.78863 0)
(0.00109 1.77539 0)
(-0.00632827 1.78141 0)
(1.02396 0.00784584 0)
(1.02142 -0.0103424 -1.14132e-21)
(0.734093 1.61325 2.48792e-19)
(1.02801 -0.0107944 -2.1683e-19)
(1.0202 0.0211495 2.67318e-19)
(0.994469 0.00719717 0)
(1.01991 -0.00464627 2.01696e-19)
(0.976006 -0.015145 -2.63812e-19)
(0.977375 -0.00889151 0)
(-0.0212034 1.78974 0)
(-0.00517939 1.77821 5.14755e-21)
(-0.00618434 1.78341 -2.40996e-21)
(1.19525 0.270736 7.14013e-20)
(1.10683 0.0633547 0)
(0.164871 3.06814 -3.00883e-19)
(0.0818333 2.87046 -2.91586e-20)
(0.210754 3.25489 3.24664e-19)
(0.153855 3.29974 8.06194e-20)
(0.175103 3.34156 0)
(0.038633 3.14253 5.1798e-20)
(0.131399 3.18179 2.9298e-19)
(0.117323 3.23078 -1.0976e-19)
(0.0871499 3.09738 0)
(0.707169 0.33968 0)
(0.639899 0.40734 0)
(1.00498 0.720375 -2.00748e-20)
(1.10152 0.829164 4.21101e-20)
(1.14625 0.570951 0)
(1.18375 0.528215 0)
(1.02918 -0.00608498 -3.99719e-19)
(1.02886 -0.00376854 4.96826e-19)
(1.03646 0.0149439 0)
(1.02789 0.0101293 0)
(1.00204 0.0112197 0)
(1.01038 -0.00170692 0)
(1.0364 -0.0213734 0)
(1.03223 -0.000896149 0)
(1.03477 0.0221815 0)
(1.04043 0.0242051 0)
(0.0514802 1.85698 0)
(0.0314535 1.86249 0)
(0.050621 1.8691 0)
(0.0420843 1.8867 0)
(0.0822136 1.66774 0)
(0.100674 1.66753 -1.87647e-19)
(0.0254036 1.71206 0)
(0.00344873 1.69593 9.92251e-20)
(0.0337023 1.76217 -9.08146e-20)
(-0.00650044 1.7904 0)
(-0.0171459 1.78319 0)
(0.0193572 1.79412 0)
(0.00962448 1.80714 0)
(-0.00623723 1.75023 -2.96433e-20)
(0.0189074 1.75613 3.00242e-20)
(0.0163622 1.76571 3.66199e-20)
(0.0213721 1.76882 0)
(0.0211129 1.77612 -5.34687e-20)
(-0.0034998 1.77455 -3.26626e-20)
(0.00336273 1.73663 2.25994e-20)
(0.0228772 1.75649 -3.75444e-20)
(0.0172639 1.76272 -4.28605e-20)
(1.00218 0.00621071 3.71237e-19)
(1.00369 0.00875242 -4.63534e-19)
(0.998257 -0.00554356 -3.80384e-19)
(0.971668 -0.00251604 4.8481e-19)
(1.03865 -0.00385202 0)
(1.04139 -0.0168052 0)
(1.03556 0.0220376 0)
(1.06888 0.0183648 0)
(1.07247 0.0241768 0)
(1.05676 0.0513684 0)
(1.08047 0.0324549 0)
(1.08273 0.0392533 0)
(-0.00163506 1.76749 -1.30105e-21)
(-0.00245539 1.75741 0)
(0.0100943 1.75051 0)
(-0.0102496 1.79102 7.88479e-21)
(-0.0151601 1.80037 -3.42239e-22)
(-0.0034548 1.7171 1.36444e-20)
(-0.0084563 1.74527 -1.39355e-20)
(0.00966067 1.76763 0)
(0.0103602 1.75748 0)
(0.000777727 1.75771 0)
(-0.00948087 1.776 0)
(-0.0176805 1.77505 0)
(0.386157 1.94357 2.88712e-19)
(0.381268 1.94959 1.35512e-19)
(0.279434 1.52531 -1.11191e-19)
(0.121136 1.52684 2.92284e-19)
(0.306842 1.62071 6.99663e-20)
(0.99879 0.00389527 0)
(0.981987 -0.027412 0)
(0.990041 -0.00161645 0)
(1.03639 -0.0148951 0)
(1.01337 -0.0166155 0)
(0.993516 -0.0222355 0)
(0.970402 0.046256 0)
(1.02124 0.0648828 0)
(1.00775 0.00336406 3.78801e-19)
(1.01604 0.0205506 -4.79408e-19)
(1.01833 -0.0193794 -3.79562e-19)
(1.0183 -0.01149 4.72917e-19)
(0.734135 1.67366 0)
(0.63869 1.79777 1.83884e-19)
(0.816599 1.44549 6.80596e-20)
(0.844094 1.41082 -8.97029e-20)
(0.879107 1.83288 -4.62492e-20)
(0.859868 0.117674 2.06101e-19)
(1.13125 0.092313 0)
(1.086 0.155023 -6.92295e-20)
(1.15254 0.135034 -2.1532e-21)
(0.958245 0.151602 0)
(0.256684 3.12391 -3.78157e-19)
(0.211908 2.89635 -3.3764e-19)
(0.154359 2.22715 3.15563e-19)
(0.301584 0.264048 -7.30378e-20)
(0.210413 3.49081 -4.22341e-19)
(0.182913 3.43598 0)
(0.195476 3.43449 5.05451e-19)
(0.261789 3.27433 7.14782e-19)
(0.292537 3.37831 0)
(0.0328609 3.0941 1.76891e-20)
(0.0372997 3.11255 -2.14756e-19)
(0.0443393 3.1027 3.15571e-19)
(0.0638754 3.13251 0)
(0.0691887 3.1542 0)
(0.832768 2.05751 0)
(0.155656 0.540455 2.78151e-20)
(0.991778 1.18345 -3.58996e-20)
(0.942273 1.16658 0)
(0.712652 1.06367 -4.17915e-20)
(0.973936 0.923071 1.43202e-20)
(0.606129 0.583257 -1.40818e-19)
(0.703834 0.334767 -1.21319e-20)
(0.689177 0.320451 1.37981e-19)
(0.632507 0.414909 8.10027e-21)
(0.619751 0.420589 -3.28609e-19)
(0.711114 0.350188 0)
(0.69873 0.392848 1.91063e-19)
(0.702754 0.393455 0)
(0.660722 0.37742 0)
(0.672061 0.357699 0)
(0.676108 0.640579 1.19256e-19)
(1.20392 0.321068 -2.49894e-20)
(1.16726 0.405056 0)
(1.17957 0.403946 0)
(0.78803 0.236215 2.23592e-19)
(0.718501 0.473185 -1.19882e-19)
(0.717831 0.439873 2.06214e-19)
(0.855874 0.422644 -2.19024e-19)
(1.01017 0.0277424 2.63004e-19)
(1.02869 -0.00456129 -2.62504e-19)
(1.01482 0.021032 0)
(1.01721 -0.00301154 0)
(1.02537 -0.0237417 -2.53107e-19)
(1.02091 -0.0218024 2.51541e-19)
(1.00947 -0.0142664 0)
(0.996611 -0.00714856 0)
(1.01884 -0.00513392 0)
(1.02798 -0.00893888 0)
(1.00991 -0.0168902 0)
(1.01457 0.007192 0)
(0.0258679 1.8541 0)
(0.0208275 1.8443 0)
(0.0541327 1.82091 4.60697e-20)
(0.250757 1.9446 9.58872e-20)
(0.0736558 1.91056 2.07122e-19)
(0.11095 1.96348 -3.34225e-19)
(0.137011 1.85571 0)
(0.149121 1.74525 -5.64005e-20)
(0.120222 1.80018 0)
(0.295557 1.68601 -1.00988e-19)
(0.213869 1.6382 3.40345e-19)
(0.192304 1.76 4.86785e-20)
(0.268325 1.86925 2.92162e-20)
(0.221363 1.86013 -2.34522e-20)
(0.317207 1.78495 -3.05822e-20)
(0.268614 1.73745 0)
(0.281941 1.7585 3.10245e-20)
(0.0375979 1.75421 -3.07316e-20)
(0.0489955 1.75464 0)
(0.0746649 1.73239 1.1742e-19)
(0.0654033 1.73996 0)
(0.0229143 1.709 -1.08311e-19)
(0.0373703 1.74212 0)
(0.00491931 1.76902 -9.08771e-21)
(-0.0102373 1.77326 0)
(0.0136534 1.75934 0)
(0.0214159 1.76018 9.96934e-21)
(0.00548022 1.75854 -8.56536e-22)
(0.00569514 1.7653 1.08312e-19)
(0.00200652 1.76258 7.15659e-22)
(-0.00940565 1.74248 1.44983e-20)
(-0.0180167 1.74116 1.27528e-20)
(-0.0135728 1.78395 0)
(-0.00619605 1.77188 0)
(6.91572e-05 1.75931 6.26371e-20)
(0.0247369 1.74833 4.76899e-20)
(0.0031553 1.74852 -6.83367e-20)
(0.00405514 1.75108 0)
(0.00142421 1.77153 -2.2978e-20)
(0.0162452 1.76762 1.40415e-20)
(0.0236461 1.75108 -4.47721e-21)
(0.0141722 1.73605 -1.79115e-20)
(-0.0135887 1.74306 -1.14049e-20)
(0.0151688 1.76844 2.75463e-20)
(1.01769 -0.00173111 -2.51427e-19)
(0.997836 0.0280728 2.53526e-19)
(1.0047 0.0144689 0)
(0.967536 0.0491974 3.46743e-19)
(0.956187 0.0290654 -3.99196e-19)
(0.920605 0.0447719 4.55835e-19)
(0.974402 0.025649 -4.44906e-20)
(1.04749 0.0022701 0)
(1.0397 -0.0256124 2.28233e-19)
(1.03845 -0.0202218 -2.31112e-19)
(0.986998 0.0334949 -1.27847e-20)
(1.01528 0.0247703 1.1131e-19)
(0.970855 0.0520866 0)
(0.973307 0.028243 -4.116e-20)
(1.01973 0.0504394 0)
(0.999306 0.0412397 0)
(1.01313 0.015496 0)
(1.01606 0.0107837 0)
(1.01493 0.0362739 8.58477e-20)
(0.99688 0.00987498 -1.8291e-19)
(0.920464 -0.000473915 -8.87262e-20)
(0.950977 0.0216921 -1.00459e-19)
(1.00712 0.0828344 1.63839e-19)
(1.06498 0.0665294 0)
(1.02715 0.0768731 0)
(-0.0221504 1.76596 -2.55048e-20)
(-0.0260843 1.7685 -7.1815e-22)
(-0.0215927 1.75756 0)
(-0.0231792 1.77595 2.55541e-20)
(-0.00114261 1.77306 1.89905e-21)
(-0.012935 1.78229 -2.24051e-21)
(-0.00287293 1.77155 2.4337e-20)
(0.0176021 1.74163 -1.71254e-21)
(-0.0125171 1.73559 1.26805e-20)
(0.00481149 1.79953 -1.80616e-20)
(-0.000209748 1.77126 2.15647e-20)
(0.0214114 1.72639 1.6772e-21)
(0.00559606 1.70719 8.63672e-21)
(0.368866 1.81262 -1.18057e-19)
(0.312042 1.7936 5.18623e-20)
(0.651584 1.82751 -1.77422e-19)
(0.531335 1.91125 -1.33977e-19)
(0.540618 1.89212 0)
(0.311818 1.52539 1.16928e-19)
(0.348618 1.51526 1.68039e-19)
(0.152378 1.5471 2.4739e-20)
(0.17144 1.5332 -3.88137e-19)
(0.213999 1.54239 3.19699e-19)
(0.252314 1.54616 0)
(0.170387 1.53911 -2.45084e-19)
(0.145367 1.6327 4.84467e-19)
(0.14423 1.56764 -3.74058e-20)
(0.1233 1.61234 -6.52173e-19)
(0.650793 1.47063 6.49975e-19)
(0.471301 1.4942 0)
(1.03155 -0.00894409 7.08165e-21)
(1.04827 0.0643447 -6.04314e-21)
(1.02466 0.0328004 -1.19077e-19)
(0.996485 0.00763721 1.20762e-19)
(1.00137 0.0188579 0)
(0.580567 1.63445 0)
(0.532988 1.52553 0)
(0.645829 1.28125 0)
(0.458716 1.48079 0)
(0.874062 1.7849 1.01264e-19)
(0.93456 1.6345 0)
(0.638794 1.70252 4.38521e-21)
(0.505648 1.59313 0)
(0.585841 1.56722 -4.26305e-19)
(0.606756 1.61338 2.73619e-19)
(0.87428 0.138778 0)
(0.851337 0.157686 5.71224e-20)
(0.918789 0.0803216 2.98449e-19)
(0.861664 0.100192 -1.12956e-19)
(0.844634 0.0634823 -3.83073e-19)
(0.974604 0.19023 -2.21131e-19)
(0.923588 0.246001 -1.03797e-20)
(0.807718 0.270786 2.85403e-19)
(0.938345 0.220045 2.17906e-19)
(0.921742 0.13479 -3.86898e-19)
(0.898506 0.141057 4.90557e-20)
(0.839612 0.239525 -1.01279e-19)
(0.903461 0.216712 0)
(0.947656 0.17886 1.88738e-19)
(0.939243 0.174127 0)
(0.952604 0.221245 0)
(1.07245 0.14674 7.55691e-20)
(0.966293 0.152777 -2.85844e-21)
(0.978262 0.167129 -4.89049e-20)
(0.995141 0.197837 0)
(1.01265 0.0525193 1.80686e-19)
(1.0165 0.038188 2.29163e-19)
(1.01944 0.0614783 -1.7632e-19)
(1.02875 0.0561096 -1.5395e-19)
(0.970272 0.0627643 -2.44735e-19)
(0.957794 0.0527358 0)
(0.956143 0.0252944 0)
(0.925592 0.0841069 -1.62232e-19)
(0.91143 0.0819056 6.5608e-20)
(1.01228 0.0804773 1.9862e-19)
(0.989747 0.0860125 -2.19574e-19)
(0.986183 0.104967 2.03183e-19)
(0.978456 0.123995 0)
(0.989973 0.0799342 0)
(1.00509 0.0961932 -8.99489e-20)
(1.01119 0.100158 -1.58096e-19)
(0.41701 1.71418 2.05875e-19)
(0.453705 1.97833 -2.04233e-19)
(0.696533 2.08977 -1.417e-19)
(0.672842 2.72023 -2.89507e-20)
(0.899157 2.05039 1.47646e-19)
(0.891389 2.15202 -1.65805e-19)
(0.990096 1.66631 -3.23824e-20)
(0.684792 2.47968 1.14358e-20)
(0.777279 2.30897 8.78131e-20)
(0.663208 2.91466 -1.39254e-19)
(0.921271 2.52618 1.56144e-19)
(0.937522 2.53376 0)
(0.125909 0.693318 -7.59092e-21)
(0.60749 1.465 -2.49933e-20)
(0.751008 0.462682 1.15268e-19)
(0.754916 0.328609 1.67421e-19)
(0.60942 0.431315 1.80792e-19)
(0.609907 0.42459 -2.29351e-19)
(0.59755 0.433963 1.62658e-19)
(0.620616 0.431896 -7.76067e-20)
(0.585884 0.46778 2.19334e-19)
(0.787973 0.258009 -1.2641e-19)
(0.743207 0.288691 0)
(0.7661 0.267754 6.22604e-21)
(0.658323 0.464227 9.67169e-20)
(0.65504 0.42584 -3.60277e-19)
(0.606339 0.420662 1.00057e-20)
(0.625002 0.437355 0)
(0.407371 0.715327 8.37248e-20)
(0.629588 0.830736 2.00588e-19)
(0.538818 0.780868 -2.23363e-19)
(0.646931 0.855735 -6.3959e-20)
(0.783186 0.903185 -1.67895e-20)
(0.774355 0.911444 1.71248e-20)
(0.7803 0.573206 -2.11852e-19)
(0.816978 0.653703 6.00873e-20)
(0.865552 0.746743 0)
(0.857445 0.727989 -6.43347e-20)
(0.967508 0.339836 5.77234e-20)
(1.10013 0.290357 2.74122e-20)
(1.03609 0.240507 8.70252e-20)
(0.91685 0.391974 -1.2325e-19)
(0.944603 0.381466 0)
(0.96102 0.386531 0)
(0.864913 0.333848 5.75831e-21)
(0.775885 0.315282 0)
(0.808608 0.302243 1.3852e-19)
(0.846991 0.274312 -1.22896e-20)
(0.851554 0.418894 5.96155e-19)
(0.805665 0.472526 1.77387e-19)
(0.820399 0.454843 -1.7886e-19)
(0.764869 0.370809 1.90932e-19)
(0.722694 0.38848 1.16888e-19)
(0.702316 0.412547 -1.12777e-19)
(0.991961 0.0429437 2.07508e-19)
(0.997059 -0.0435649 0)
(1.00256 0.00719441 1.37473e-19)
(0.997516 0.0370002 -3.09063e-19)
(1.00895 -0.0176227 1.49872e-19)
(1.01254 0.0530389 -3.17674e-19)
(1.00573 0.00275269 0)
(0.995295 -0.0273153 -6.77768e-20)
(0.998802 0.0257741 1.72124e-19)
(0.985458 0.0132952 -8.87431e-20)
(0.983776 -0.0166906 6.43051e-20)
(0.00937732 1.80843 0)
(0.0174467 1.75983 0)
(0.0134521 1.83658 0)
(0.00656603 1.82382 0)
(0.0529997 1.74401 4.9554e-20)
(0.0612304 1.77483 -3.48869e-20)
(0.0679031 1.79274 -6.83558e-21)
(0.0563863 1.77414 -4.10968e-20)
(0.0390809 1.76267 -3.09744e-20)
(0.0286195 1.76612 2.25096e-20)
(0.0560664 1.75747 -3.37219e-20)
(0.0319845 1.79106 3.82397e-21)
(0.0298213 1.7837 1.66003e-21)
(0.0168766 1.76098 -3.22355e-21)
(0.0605401 1.7235 -1.28356e-19)
(0.0417981 1.70627 0)
(0.0535895 1.69998 7.80257e-20)
(0.0891809 1.78968 4.24791e-20)
(0.218242 1.69504 -5.15487e-20)
(0.181553 1.66955 0)
(0.180296 1.64647 -3.50659e-19)
(0.212668 1.66356 2.47011e-19)
(0.148025 1.71501 -1.42337e-19)
(0.0844739 1.68058 7.87098e-20)
(0.0821446 1.65595 0)
(0.00730554 1.75416 -7.34861e-20)
(0.00760097 1.74475 -9.39261e-20)
(0.00475961 1.74205 0)
(0.00342625 1.74536 -2.26045e-21)
(0.0123178 1.74168 3.92221e-20)
(0.00438521 1.7889 9.85487e-22)
(0.00430595 1.79036 -9.81045e-21)
(-0.00673126 1.7885 -4.48817e-21)
(-0.00458094 1.7763 1.16001e-20)
(0.0154148 1.77723 0)
(-0.00562044 1.78773 0)
(-0.00573275 1.78287 1.37776e-20)
(4.99612e-05 1.79143 -3.9562e-21)
(-0.000975124 1.78618 0)
(0.00900432 1.7804 1.19714e-20)
(0.00378775 1.7804 -2.22333e-20)
(0.967718 0.0468743 0)
(1.03017 0.088715 -2.04232e-20)
(1.03459 -0.0057578 -1.26417e-19)
(1.00462 -0.00742674 0)
(1.04462 0.0532926 0)
(1.01157 -0.0330526 -1.91666e-20)
(0.967274 -0.0115628 2.34712e-19)
(1.01006 0.00653407 2.84317e-19)
(1.00482 0.0230905 0)
(0.998357 0.0137707 0)
(1.0052 0.00204042 1.47245e-19)
(1.0074 0.0133223 0)
(0.99377 0.0195077 0)
(0.0429012 1.77145 0)
(0.0200266 1.71564 -2.66316e-21)
(0.00705023 1.77912 5.37613e-21)
(0.00310896 1.7799 0)
(0.0168375 1.70059 1.3251e-20)
(0.0151863 1.722 -3.42346e-21)
(-0.00261225 1.77573 0)
(0.390274 1.65354 0)
(0.316861 1.75956 -1.30748e-19)
(0.297933 1.71557 0)
(0.455569 1.77278 8.48618e-20)
(0.484949 1.80325 0)
(0.436191 1.80344 -6.68388e-21)
(0.649476 1.54408 -1.37226e-20)
(0.703024 1.48289 -7.51864e-19)
(0.757661 1.46572 8.88923e-19)
(0.486583 1.50432 1.83387e-19)
(0.490606 1.52155 0)
(0.524486 1.51281 0)
(0.607042 1.4901 0)
(0.541565 1.48274 -6.67613e-19)
(0.361976 1.56104 -3.3776e-19)
(0.465037 1.53301 -8.35839e-20)
(0.499843 1.56775 7.04102e-20)
(0.405339 1.4958 0)
(0.461258 1.50208 0)
(0.427975 1.50114 -1.9048e-19)
(0.456747 1.54862 0)
(0.310484 1.46036 0)
(-0.15029 1.33315 -2.68388e-19)
(0.166273 0.994409 -1.86745e-20)
(0.179256 1.661 0)
(-0.020261 1.68786 4.24559e-19)
(0.612058 0.864096 -6.8358e-20)
(0.610316 1.18973 0)
(0.677172 1.09978 8.30252e-20)
(0.38789 1.19693 0)
(0.44725 1.04416 0)
(0.843446 1.81416 -1.54823e-19)
(0.761679 1.96215 -1.75517e-19)
(0.644229 1.88805 3.4047e-19)
(0.663483 1.80494 -1.0124e-19)
(0.875249 1.69807 0)
(0.857781 1.64665 1.29892e-19)
(0.933789 1.57915 -1.66296e-19)
(0.923065 1.48991 -1.30191e-20)
(0.558185 1.68792 0)
(0.474781 1.71951 -1.78378e-19)
(0.487367 1.65955 0)
(0.876039 0.226919 0)
(0.847934 0.156023 0)
(0.802798 0.176291 0)
(0.847263 0.234901 -2.1867e-19)
(0.795636 0.224881 1.3444e-19)
(0.904888 0.080961 -1.36072e-19)
(0.92888 0.0719943 0)
(0.923952 0.0642852 5.77941e-20)
(0.870827 0.0362203 2.46254e-19)
(0.882224 0.0577281 -1.52264e-19)
(0.719384 3.17763 -4.76e-19)
(0.684483 3.09828 0)
(0.779808 3.20437 -1.26353e-18)
(0.336824 3.47909 1.14623e-18)
(0.384635 3.18366 4.75265e-19)
(-0.000371091 0.982701 -2.89998e-19)
(-0.184762 1.41008 0)
(0.425048 0.41314 1.66306e-20)
(0.414429 0.350642 -4.53087e-20)
(0.65195 0.314402 -4.83985e-20)
(0.676254 0.416808 -7.08786e-21)
(0.634309 0.466496 9.84886e-20)
(0.645928 0.47003 0)
(0.585923 0.480924 0)
(0.625019 0.385635 0)
(0.957681 0.577854 8.70048e-21)
(0.775527 0.470817 -1.72837e-19)
(0.755662 0.539014 1.41037e-19)
(0.861796 0.484276 -1.22906e-19)
(1.03139 0.413268 0)
(1.08732 0.538678 -2.73059e-20)
(0.767886 0.346288 -2.7655e-19)
(0.776197 0.345929 -3.30332e-19)
(0.720117 0.386202 2.15546e-19)
(0.743522 0.332237 -2.22858e-19)
(0.765862 0.321177 -1.77839e-19)
(0.749276 0.324023 2.19319e-19)
(1.02198 -0.0227054 -1.52279e-19)
(1.02816 -0.0151444 3.08438e-19)
(0.994 0.0453012 1.98442e-19)
(0.998536 0.05628 -2.37186e-19)
(0.947844 0.0478967 0)
(0.956553 -0.0276649 -3.75576e-19)
(0.0530262 1.78073 1.82812e-20)
(0.0426572 1.73622 0)
(0.0722054 1.78508 1.37597e-19)
(0.0831109 1.78977 -1.16265e-19)
(0.0639254 1.77414 1.25488e-20)
(0.0461865 1.70812 0)
(0.0222661 1.72583 0)
(0.00361511 1.77996 -1.05064e-21)
(-0.000461308 1.77991 9.46233e-22)
(0.012924 1.7397 -4.42319e-21)
(0.0280779 1.73511 -7.08232e-21)
(0.00197764 1.72846 8.97507e-21)
(0.523773 1.64 -4.17219e-19)
(0.497972 1.62466 4.43905e-19)
(0.459338 1.72035 -9.71698e-20)
(0.477109 1.66921 1.78603e-20)
(0.590251 1.68277 0)
(0.568054 1.75455 6.80591e-20)
(0.579314 1.73271 -6.68672e-20)
(0.503122 1.71206 9.35684e-20)
(0.534938 1.65883 0)
(0.515458 1.66669 0)
(0.348541 1.52451 5.18778e-19)
(0.394585 1.51143 7.60827e-19)
(0.409415 1.54298 -5.21881e-19)
(0.326398 1.52348 -9.86985e-20)
(0.311929 1.52751 1.60309e-19)
(0.218394 1.53232 -4.05143e-19)
(0.815563 1.44259 -4.93051e-19)
(0.890366 1.45123 0)
(0.850587 1.44054 -4.99931e-19)
(0.796677 1.58029 0)
(0.78942 1.53072 0)
(0.0776557 2.86922 3.34915e-19)
(0.40014 3.00913 3.52636e-19)
(0.347772 3.11109 -4.33795e-19)
(0.421207 1.57454 0)
(0.329874 1.31727 1.82778e-19)
(0.0422804 1.31267 1.0879e-19)
(0.0443778 2.8347 0)
(0.205243 3.11818 -3.42672e-19)
(0.248863 3.03361 0)
(0.493899 0.498872 -1.86527e-19)
(0.644418 0.648873 2.91208e-19)
(0.639807 0.653827 -2.925e-19)
(0.574041 0.470275 -1.99408e-20)
(0.656408 0.490172 -8.87185e-20)
(0.349049 2.86873 -2.6988e-19)
(0.373479 2.61551 4.35606e-20)
(0.0810418 2.68883 -1.3653e-19)
(0.00569886 2.52298 4.09046e-20)
(0.285534 2.18715 -3.81148e-19)
(0.320843 2.49767 -1.51507e-19)
(0.418237 2.09889 1.84848e-19)
(0.00373644 2.42135 8.46089e-21)
(0.109653 2.32158 1.63498e-19)
)
;

boundaryField
{
    wall-4
    {
        type            noSlip;
    }
    velocity-inlet-5
    {
        type            fixedValue;
        value           uniform (1 0 0);
    }
    velocity-inlet-6
    {
        type            fixedValue;
        value           uniform (0 3 0);
    }
    pressure-outlet-7
    {
        type            zeroGradient;
    }
    wall-8
    {
        type            noSlip;
    }
    frontAndBackPlanes
    {
        type            empty;
    }
}

