/*--------------------------------*- C++ -*----------------------------------*\
  =========                 |
  \\      /  F ield         | OpenFOAM: The Open Source CFD Toolbox
   \\    /   O peration     | Website:  https://openfoam.org
    \\  /    A nd           | Version:  6
     \\/     M anipulation  |
\*---------------------------------------------------------------------------*/
FoamFile
{
    version     2.0;
    format      ascii;
    class       volVectorField;
    location    "0";
    object      U_rec;
}
// * * * * * * * * * * * * * * * * * * * * * * * * * * * * * * * * * * * * * //

dimensions      [0 1 -1 0 0 0 0];

internalField   nonuniform List<vector> 
13046
(
(-0.288641 0.170907 0)
(-0.342984 -0.0183674 -1.86101e-21)
(-0.127061 0.066267 -4.19828e-21)
(-0.283879 0.127178 0)
(-0.148702 0.101636 -3.75829e-21)
(-0.283259 -0.00828525 0)
(-0.301809 0.133474 5.41667e-22)
(-0.30597 -0.0321572 9.62363e-22)
(-0.137448 0.110006 -4.17991e-21)
(-0.405885 0.206455 1.85882e-21)
(-0.710615 -0.303055 0)
(-0.00774149 0.0913013 2.78299e-21)
(-0.332014 0.176241 -1.73194e-21)
(-0.396991 -0.0718801 -2.90353e-21)
(-0.0969619 0.0852465 2.32307e-21)
(-0.393642 0.242603 -2.44771e-21)
(-0.0029738 0.0809584 6.66319e-21)
(-0.733956 -0.248817 1.25785e-21)
(-0.200861 0.133121 0)
(-0.212191 0.0225904 -2.04538e-21)
(-0.281498 0.0764364 5.70892e-21)
(-0.397074 0.235956 -1.04158e-21)
(-0.00268936 0.0842156 -8.89762e-21)
(-0.728177 -0.26029 0)
(-0.265268 0.140857 2.2974e-21)
(-0.29162 0.010247 -4.62103e-21)
(-0.151271 0.0753079 0)
(-0.333476 0.189797 -3.16857e-21)
(-0.415796 -0.0772769 8.52222e-22)
(-0.0892264 0.0770803 -3.9903e-21)
(-0.290219 0.181618 0)
(-0.359244 -0.0174622 0)
(-0.123783 0.0552869 4.27483e-21)
(-0.248823 0.129626 -2.66861e-21)
(-0.165718 0.0726854 1.4132e-21)
(-0.2712 0.0301154 8.03059e-21)
(-0.246416 0.117953 -4.12865e-21)
(-0.174963 0.082623 2.1611e-21)
(-0.255362 0.0369378 -4.13235e-21)
(-0.255714 0.198802 2.9748e-21)
(-0.181257 -0.01524 7.95003e-22)
(-0.370298 0.0217901 -2.78118e-21)
(-0.234382 0.0872385 1.8629e-21)
(-0.204891 0.0910196 3.2277e-21)
(-0.219878 0.0624956 0)
(-0.248731 0.0865697 1.17833e-21)
(-0.196787 0.104178 -4.94358e-21)
(-0.21766 0.0483656 -6.19488e-22)
(-0.297501 0.164643 0)
(-0.342941 -0.0315789 -1.34289e-22)
(-0.118169 0.0771177 -5.05381e-24)
(-0.275393 -0.103701 4.9067e-21)
(-0.231503 0.219608 0)
(-0.407984 0.0466647 -3.31162e-21)
(-0.313508 -0.132356 -6.99372e-21)
(-0.412486 0.0572756 -5.26992e-21)
(-0.216911 0.215934 4.70116e-21)
(-0.623642 -0.130498 -6.1573e-22)
(-0.365799 0.273779 0)
(-0.0645887 0.0296671 3.67382e-21)
(-0.392953 0.157067 -1.62533e-21)
(-0.472132 -0.17042 1.74309e-21)
(-0.0945931 0.135872 -9.63352e-21)
(-0.0251382 0.100411 5.08371e-21)
(-0.660397 -0.254226 -1.00129e-21)
(-0.415882 0.211161 -2.78191e-21)
(-0.355776 0.278526 0)
(-0.59831 -0.106362 0)
(-0.0863855 0.00881489 0)
(-0.347753 0.273876 -1.31581e-21)
(-0.572913 -0.0916969 0)
(-0.0962604 0.0037607 2.9197e-21)
(-0.653601 -0.145252 0)
(-0.371652 0.277448 4.85775e-23)
(-0.0555069 0.0316477 -1.15565e-23)
(-0.210376 0.143822 0)
(-0.203862 0.0157758 2.24371e-21)
(-0.295472 0.0641674 -4.05433e-21)
(-0.0310958 0.0534887 4.06397e-21)
(-0.382021 0.26865 -4.10971e-21)
(-0.683088 -0.179986 0)
(-0.276629 0.141581 1.20131e-21)
(-0.296656 -0.00246064 0)
(-0.142365 0.0861361 0)
(-0.0193245 0.0980195 -4.56924e-21)
(-0.681252 -0.266951 -7.47252e-22)
(-0.416381 0.213739 1.65633e-21)
(-0.43754 0.172419 -2.84723e-21)
(-0.0537103 0.12612 0)
(-0.623195 -0.286928 -8.05623e-22)
(-0.0880957 0.153208 0)
(-0.463425 0.131585 0)
(-0.601212 -0.333142 1.04841e-22)
(-0.383941 0.207563 0)
(-0.39463 0.205559 1.53203e-21)
(-0.541083 -0.162692 3.29179e-21)
(-0.563347 -0.184652 -1.54437e-21)
(-0.0532252 0.0925474 -2.0964e-21)
(-0.0484139 0.100305 5.36358e-21)
(-0.0655224 0.133796 -2.57066e-22)
(-0.441545 0.162305 2.78506e-21)
(-0.606798 -0.29002 0)
(-0.259872 0.0961729 -1.17393e-23)
(-0.184532 0.107318 2.5849e-21)
(-0.230473 0.0314917 0)
(-0.186918 0.187183 0)
(-0.376064 0.0838593 -1.63609e-21)
(-0.309558 -0.102785 0)
(-0.230784 0.205869 5.16334e-21)
(-0.242365 -0.0681034 0)
(-0.38365 0.0449489 -6.3081e-21)
(-0.364331 0.187254 0)
(-0.0012135 0.075394 0)
(-0.664613 -0.310585 -7.09952e-22)
(-0.316443 0.168453 4.77973e-21)
(-0.371229 -0.0530197 1.25859e-21)
(-0.106582 0.0866491 4.14157e-21)
(-0.388482 0.229703 1.9544e-21)
(-0.381061 0.221433 -3.67624e-21)
(-0.596777 -0.176766 -2.75839e-21)
(-0.038839 0.0805419 2.40396e-21)
(-0.55955 -0.158741 1.63851e-21)
(-0.0475179 0.0817039 -2.24602e-21)
(-0.396742 0.207693 -1.57481e-21)
(-0.712814 -0.305134 -1.24078e-21)
(-0.00369688 0.0873994 -1.24539e-21)
(-0.361382 0.203429 0)
(-0.481993 -0.122629 -2.19037e-21)
(-0.0679133 0.0815967 4.88345e-21)
(-0.270385 0.202102 0)
(-0.15983 -0.000129518 -3.93949e-21)
(-0.378516 0.00566607 1.59645e-22)
(-0.0974395 0.160048 0)
(-0.460296 0.128715 0)
(-0.584391 -0.315781 0)
(-0.413749 0.196076 0)
(-0.598355 -0.227263 -4.21228e-21)
(-0.0466954 0.11187 -5.75835e-21)
(-0.30527 0.189334 0)
(-0.383189 -0.0365568 0)
(-0.112946 0.0539615 0)
(-0.34898 0.131679 0)
(-0.355609 -0.093412 0)
(-0.1329 0.138802 0)
(-0.222259 0.206912 0)
(-0.268524 -0.0874137 0)
(-0.388935 0.0539583 3.4066e-21)
(-0.186947 0.180511 -5.38422e-22)
(-0.366832 0.0854147 -3.55283e-21)
(-0.301949 -0.0900346 4.31147e-21)
(-0.400063 0.164663 3.84447e-21)
(-0.498492 -0.186408 0)
(-0.0831865 0.12912 1.25462e-20)
(-0.170359 0.151817 0)
(-0.331775 0.0995924 3.84385e-21)
(-0.282779 -0.0533031 -1.06846e-21)
(-0.385341 -0.173694 0)
(-0.415204 0.0867195 3.75538e-21)
(-0.42232 -0.19493 0)
(-0.419701 0.100687 2.16616e-21)
(-0.179417 0.200004 0)
(-0.160321 0.189646 0)
(-0.362736 0.110862 4.92701e-22)
(-0.342753 -0.107258 2.22505e-21)
(-0.152412 0.157381 -2.36522e-21)
(-0.414734 0.198396 -1.89759e-21)
(-0.0133489 0.0953706 0)
(-0.697699 -0.311482 -1.72822e-21)
(-0.376989 0.197097 -1.44664e-21)
(-0.000909832 0.0800005 -5.69978e-22)
(-0.691239 -0.309379 0)
(-0.413427 0.203225 -2.27709e-21)
(-0.616216 -0.231829 0)
(-0.0385056 0.106488 6.55013e-21)
(-0.293058 0.231114 0)
(-0.432471 -0.0161882 8.71485e-22)
(-0.15689 -0.0180395 2.31289e-21)
(-0.356199 0.103284 3.22079e-21)
(-0.163845 0.164006 1.12947e-21)
(-0.319221 -0.0891084 0)
(-0.0269198 0.106715 0)
(-0.676 -0.321296 0)
(-0.430885 0.183567 1.59442e-21)
(-0.280253 0.221762 0)
(-0.410836 -0.00132082 -1.91277e-21)
(-0.16691 -0.016176 5.94477e-22)
(-0.171545 0.159203 0)
(-0.339804 0.0958077 0)
(-0.284303 -0.0636101 0)
(-0.336571 0.125329 1.60507e-21)
(-0.332968 -0.0774412 0)
(-0.138046 0.134792 0)
(-0.423753 -0.100309 -2.31916e-23)
(-0.0884887 0.0987773 -2.824e-21)
(-0.353128 0.194882 5.00745e-21)
(-0.457448 -0.107448 0)
(-0.07665 0.0847441 -6.11988e-21)
(-0.430331 0.190982 -2.94011e-21)
(-0.0343613 0.111598 4.13e-21)
(-0.660348 -0.28813 -3.74717e-21)
(-0.0879452 0.151474 3.78733e-21)
(-0.449319 0.142638 1.70489e-21)
(-0.582241 -0.294863 4.1205e-21)
(-0.45301 0.151772 -4.80303e-21)
(-0.622882 -0.318319 0)
(-0.0669134 0.137648 -3.71818e-21)
(-0.288661 -0.127736 -2.503e-22)
(-0.441858 0.0320965 1.48286e-21)
(-0.247301 0.244835 0)
(-0.32863 0.149274 -7.30024e-21)
(-0.377949 0.275436 2.09239e-21)
(-0.0382064 0.0459442 -2.50344e-21)
(-0.686234 -0.172003 0)
(-0.637568 -0.329 0)
(-0.449885 0.157717 -4.40725e-21)
(-0.0562542 0.128305 0)
(-0.259725 0.111618 -5.9484e-21)
(-0.17121 0.0979151 -2.12163e-21)
(-0.249863 0.024252 6.07968e-21)
(-0.325023 0.196809 0)
(-0.413379 -0.0633659 -1.23075e-22)
(-0.0967595 0.0668227 -2.3424e-21)
(-0.0969462 0.158613 2.9034e-21)
(-0.454492 0.134186 0)
(-0.575914 -0.302181 -4.74499e-21)
(-0.341721 0.156753 5.84699e-21)
(-0.410866 -0.100331 5.30473e-21)
(-0.0954673 0.106418 0)
(-0.0104831 0.0887083 0)
(-0.68156 -0.324859 1.30492e-21)
(-0.402809 0.187996 0)
(-0.232825 0.236654 0)
(-0.436228 0.0426774 0)
(-0.314395 -0.148368 0)
(-0.448781 0.152529 4.21759e-21)
(-0.607813 -0.30322 0)
(-0.0710374 0.139173 -9.96944e-24)
(-0.390401 0.106732 1.41797e-21)
(-0.379892 -0.150197 -1.71261e-21)
(-0.154066 0.173467 0)
(-0.358667 0.213003 0)
(-0.490456 -0.117542 2.04638e-21)
(-0.066828 0.0735842 3.8543e-21)
(-0.518551 -0.28383 -6.09155e-21)
(-0.457741 0.105811 -3.03134e-21)
(-0.138494 0.18941 2.29137e-21)
(-0.432517 0.099863 0)
(-0.449153 -0.220248 -2.4265e-21)
(-0.157818 0.192712 -8.18554e-23)
(-0.0128065 0.0877427 -3.676e-21)
(-0.665243 -0.331744 0)
(-0.402367 0.178162 -1.6767e-21)
(-0.256174 0.22033 2.75128e-21)
(-0.21378 -0.0533347 -2.89392e-21)
(-0.403094 0.0226209 2.73222e-22)
(-0.333376 0.200061 1.60162e-21)
(0.00707575 0.0693561 -5.34269e-21)
(-0.676059 -0.272887 0)
(-0.185482 0.12466 -1.22184e-21)
(-0.279538 0.0891932 -4.62754e-21)
(-0.228696 0.0138546 6.14961e-21)
(-0.383897 0.128599 1.71554e-21)
(-0.380658 0.114295 1.50081e-23)
(-0.407708 -0.150245 -4.13647e-21)
(-0.375912 -0.137583 0)
(-0.146365 0.164372 2.14987e-21)
(-0.126533 0.152993 -2.23697e-21)
(-0.0214501 0.0609773 -5.31847e-21)
(-0.384686 0.265189 2.16316e-21)
(-0.705746 -0.193384 -3.11601e-21)
(-0.34721 0.215849 0)
(-0.474157 -0.0958245 0)
(-0.0778603 0.0630938 -5.07806e-21)
(-0.439263 0.109143 -7.93937e-22)
(-0.480782 -0.244055 0)
(-0.143604 0.185574 0)
(-0.401221 0.21458 -1.87823e-21)
(-0.601625 -0.202003 0)
(-0.0376692 0.0959354 2.39418e-21)
(-0.225568 0.0970845 1.27581e-21)
(-0.231428 0.0668358 1.83517e-21)
(-0.20217 0.0797845 -6.36799e-22)
(-0.408646 0.111718 -2.76229e-21)
(-0.422619 -0.184058 0)
(-0.146328 0.176816 -3.76389e-21)
(-0.347847 0.224548 0)
(-0.48988 -0.0958337 2.5383e-21)
(-0.0763963 0.054934 -3.26337e-21)
(-0.345906 0.169985 0)
(-0.358167 0.174943 5.8626e-22)
(-0.259277 0.227466 1.00246e-21)
(-0.219573 -0.0631231 8.35009e-21)
(-0.413862 0.0209491 -6.5841e-21)
(-0.413386 0.122438 -2.86537e-21)
(-0.451318 -0.201324 3.56695e-21)
(-0.129731 0.167149 3.43383e-21)
(-0.407821 0.212563 0)
(-0.0342822 0.100137 -8.43197e-21)
(-0.620134 -0.219332 -2.04904e-21)
(-0.231137 0.197182 -7.12571e-21)
(-0.230557 -0.0550617 0)
(-0.372204 0.0468712 2.12387e-21)
(-0.188389 0.210367 -4.40514e-21)
(-0.425381 0.0787102 -2.1577e-21)
(-0.38589 -0.184616 0)
(-0.371388 0.241037 -1.89588e-21)
(-0.571626 -0.139995 -2.20145e-21)
(-0.0514115 0.0602944 1.49221e-21)
(-0.245346 0.228187 3.63404e-22)
(-0.258283 -0.0930156 0)
(-0.416698 0.0356848 4.56384e-21)
(-0.378818 0.245281 0)
(-0.385513 0.240292 0)
(-0.601059 -0.155849 -1.41788e-21)
(-0.0436539 0.0639123 -3.88921e-21)
(-0.612846 -0.172754 2.00387e-21)
(-0.0369629 0.0732197 4.13163e-21)
(-0.0252955 0.105386 -3.21641e-21)
(-0.680829 -0.308497 0)
(-0.428293 0.191777 -2.14773e-21)
(-0.371232 0.22251 2.17526e-21)
(-0.535004 -0.140767 0)
(-0.0546509 0.0742904 1.32828e-21)
(-0.584636 -0.283362 1.64604e-21)
(0.00105284 0.0603993 4.68995e-21)
(-0.312487 0.165846 4.04809e-21)
(-0.313953 0.0885002 -2.13261e-21)
(-0.182792 0.147533 0)
(-0.250195 -0.0243705 0)
(-0.37843 0.155427 3.91495e-21)
(-0.443344 -0.14586 0)
(-0.0978752 0.129812 7.36322e-21)
(-0.0366785 0.110825 -2.62437e-21)
(-0.426209 0.194269 6.0081e-21)
(-0.644037 -0.269229 2.87444e-21)
(-0.326779 -0.146172 0)
(-0.421391 0.0575518 1.94411e-21)
(-0.215421 0.222987 -5.32805e-21)
(-0.539388 -0.292151 -7.35828e-21)
(-0.456814 0.115769 -1.87216e-21)
(-0.122531 0.177167 0)
(-0.370449 -0.0741079 -5.41932e-21)
(-0.109552 0.108329 0)
(-0.380918 0.17994 4.2904e-21)
(-0.479231 -0.151098 1.93413e-21)
(-0.0747292 0.109849 2.25247e-21)
(-0.361083 -0.0796545 3.15996e-21)
(-0.11597 0.116735 2.9778e-23)
(-0.395591 0.244317 -1.4736e-22)
(-0.0076098 0.079574 3.12988e-21)
(-0.719557 -0.236927 -1.84775e-21)
(-0.27877 -0.132441 0)
(-0.459302 0.0203249 4.69577e-22)
(-0.260011 0.255455 0)
(-0.390202 0.18408 -4.36664e-21)
(-0.510682 -0.168728 -2.36195e-21)
(-0.0680969 0.113399 -2.76363e-21)
(-0.357066 0.124785 0)
(-0.355804 -0.105106 -3.23399e-21)
(-0.137958 0.146734 0)
(-0.384837 0.0692656 0)
(-0.294945 -0.104331 0)
(-0.204365 0.196972 0)
(-0.291404 0.152678 -1.66483e-21)
(-0.321756 -0.0218123 -2.96921e-21)
(-0.128749 0.0845053 2.15636e-23)
(-0.202605 0.219116 5.47034e-21)
(-0.426832 0.0682518 5.25693e-21)
(-0.362987 -0.171033 3.50789e-21)
(-0.438401 0.177457 -2.59562e-21)
(-0.647198 -0.299973 3.18725e-21)
(-0.0437393 0.118907 -3.91827e-21)
(-0.54511 -0.284313 4.98611e-21)
(-0.451462 0.124625 1.89714e-21)
(-0.113129 0.169436 2.89056e-21)
(-0.32844 0.270747 -4.0415e-21)
(-0.132984 -0.0204195 4.36904e-21)
(-0.530361 -0.0598414 -3.04439e-21)
(-0.382515 0.258846 1.17315e-21)
(-0.378166 0.256925 -1.05702e-21)
(-0.626516 -0.15802 -4.50947e-22)
(-0.65214 -0.170948 0)
(-0.0353899 0.0586265 -1.42439e-21)
(-0.0430002 0.0546313 -1.25892e-21)
(0.00256781 0.0635105 -6.34519e-21)
(-0.615184 -0.280846 -1.81197e-21)
(-0.32105 0.175694 9.90908e-22)
(-0.343335 0.208329 -1.00484e-22)
(0.00774111 0.0723412 7.39304e-21)
(-0.699666 -0.273531 0)
(-0.396007 0.134611 -6.29704e-21)
(-0.439823 -0.169951 -9.28159e-22)
(-0.120347 0.154053 0)
(-0.0276778 0.106474 -7.95221e-21)
(-0.427373 0.195088 2.1338e-21)
(-0.67452 -0.293001 0)
(-0.353123 0.258765 5.73627e-21)
(-0.361746 0.257208 -4.30411e-21)
(-0.557047 -0.104646 2.35966e-21)
(-0.575863 -0.120098 8.96783e-22)
(-0.0809699 0.0260215 -2.48884e-21)
(-0.0663724 0.0384931 -1.24677e-21)
(-0.0500791 0.120753 0)
(-0.637133 -0.349059 0)
(-0.449226 0.148266 7.84049e-22)
(-0.309344 0.194131 -1.88148e-21)
(0.0083543 0.0641724 0)
(-0.651591 -0.255526 0)
(-0.267052 0.0635032 -1.82077e-23)
(-0.215588 0.125838 2.70859e-21)
(-0.193807 0.0460386 1.36303e-21)
(-0.341905 0.1878 -3.31201e-21)
(-0.656305 -0.293654 1.03871e-21)
(0.00251798 0.0699648 3.46902e-22)
(-0.310167 0.23153 0)
(-0.447509 -0.0378402 -4.01955e-21)
(-0.128407 0.00507508 -1.52834e-23)
(-0.436168 0.177804 2.51483e-23)
(-0.667825 -0.323629 4.40242e-21)
(-0.034116 0.111455 1.87101e-24)
(-0.509589 -0.28773 5.64619e-23)
(-0.00421661 0.0534008 -2.71736e-21)
(-0.297658 0.128874 -1.58407e-21)
(-0.240194 0.186891 -2.56134e-21)
(-0.192077 -0.0119832 2.51324e-21)
(-0.350561 0.0370129 6.80279e-21)
(-0.290915 0.100432 0)
(-0.251009 -0.00492926 -6.82053e-21)
(-0.172011 0.126324 3.48228e-21)
(-0.389898 0.215508 0)
(-5.41626e-05 0.0851444 3.71242e-21)
(-0.721978 -0.295475 -2.59896e-23)
(-0.302037 0.101761 0)
(-0.258691 -0.0177371 -2.38435e-21)
(-0.168267 0.134881 -4.91749e-21)
(-0.254488 0.0693269 2.7581e-21)
(-0.213077 0.115216 -1.44297e-21)
(-0.199409 0.0545292 7.1866e-22)
(-0.225923 0.239858 2.65808e-21)
(-0.446501 0.0484679 -1.86197e-21)
(-0.347382 -0.176696 3.89451e-21)
(-0.304575 0.0693786 0)
(-0.212446 0.00388323 0)
(-0.203494 0.152512 4.04073e-22)
(-0.31495 0.0806901 3.37506e-21)
(-0.235557 -0.0134509 1.85249e-21)
(-0.19474 0.155088 5.7236e-23)
(-0.317935 0.267802 6.14345e-21)
(-0.509729 -0.0453319 -3.06563e-21)
(-0.153729 -0.038222 -4.32348e-21)
(-0.0065798 0.0910227 5.6093e-21)
(-0.00912848 0.0931093 -5.69845e-21)
(-0.718112 -0.281436 1.18985e-21)
(-0.709923 -0.29111 8.53233e-22)
(-0.405875 0.22191 0)
(-0.410125 0.214785 -1.90303e-21)
(-0.44101 0.174419 3.18767e-21)
(-0.654318 -0.311552 -2.7877e-21)
(-0.0422317 0.119466 4.84824e-21)
(-0.124355 -0.0213431 -2.81556e-21)
(-0.336231 0.279414 1.26769e-21)
(-0.556673 -0.0718555 3.88479e-21)
(-0.265136 0.21658 -2.51214e-21)
(-0.189531 -0.0332951 -2.62649e-21)
(-0.399166 0.0133456 2.11498e-21)
(-0.442912 0.0865234 0)
(-0.44225 -0.229224 2.50993e-21)
(-0.173395 0.206788 8.46934e-23)
(-0.569077 -0.329574 1.23287e-21)
(-0.013604 0.0711332 -2.54353e-21)
(-0.362425 0.136814 -1.32485e-21)
(-0.0761495 0.144271 0)
(-0.459944 0.139479 0)
(-0.612805 -0.334552 1.9303e-21)
(-0.391382 0.196386 1.64337e-21)
(-0.00488581 0.0851003 0)
(-0.69527 -0.31578 -1.2802e-21)
(-0.00239346 0.0468734 -1.00376e-32)
(-0.474639 -0.265279 -6.83956e-22)
(-0.269129 0.120936 1.64514e-21)
(-0.497321 -0.232004 7.5255e-22)
(0.00220562 0.0466356 1.00145e-32)
(-0.25712 0.142394 -1.4663e-21)
(-0.509408 -0.218119 -4.86153e-21)
(-0.41877 0.147925 0)
(-0.0991903 0.148181 -7.38107e-21)
(-0.627377 -0.35331 -7.35774e-22)
(-0.0332913 0.100781 -2.60006e-21)
(-0.428394 0.145746 0)
(-0.420686 0.189118 -2.83159e-21)
(-0.601355 -0.242247 2.60782e-21)
(-0.0497884 0.117114 3.83805e-21)
(-0.375684 0.244867 5.00545e-21)
(0.00481249 0.0764299 2.25621e-21)
(-0.758446 -0.248516 0)
(-0.317912 0.155631 1.28365e-21)
(-0.113708 0.100679 -1.41099e-21)
(-0.35858 -0.0581054 1.32701e-21)
(-0.632377 -0.346549 9.83416e-22)
(-0.0580803 0.128718 2.74217e-21)
(-0.454047 0.145886 8.68663e-22)
(-0.439806 0.0794587 -2.13034e-21)
(-0.184644 0.213999 -1.50481e-21)
(-0.418725 -0.212583 0)
(-0.493259 -0.2442 0)
(-0.436005 0.118844 0)
(-0.129639 0.176266 0)
(2.02217e-05 0.0220455 0)
(-0.276638 -0.134785 -3.01655e-22)
(-0.149176 0.0690223 1.23433e-21)
(-0.578423 -0.299869 1.00404e-21)
(-0.00221315 0.0619422 -3.27421e-21)
(-0.323859 0.157159 -1.7108e-21)
(-0.304894 0.148204 -3.31064e-21)
(-0.124763 0.098724 3.33495e-21)
(-0.330646 -0.0399755 1.49891e-21)
(-0.653834 -0.338899 3.77419e-21)
(-0.4412 0.163022 -1.73692e-21)
(-0.0383817 0.113049 0)
(-0.0481864 0.117696 -2.8922e-21)
(-0.447835 0.14336 0)
(-0.630277 -0.356053 -2.85693e-21)
(-0.420397 0.207091 -1.9619e-21)
(-0.0200503 0.10081 8.53118e-21)
(-0.685386 -0.281668 0)
(-0.0160429 0.0732706 -6.4253e-21)
(-0.698025 -0.211061 2.07848e-21)
(-0.392428 0.252037 0)
(-0.310811 0.274279 -7.7636e-21)
(-0.510417 -0.0365247 3.90955e-21)
(-0.178822 -0.0603091 -1.3745e-21)
(-0.612214 -0.139903 6.56248e-22)
(-0.369781 0.264379 2.49695e-21)
(-0.0566852 0.0406066 -3.92098e-21)
(-0.00841067 0.0693991 -5.76276e-21)
(-0.385716 0.258707 0)
(-0.735872 -0.219928 0)
(-0.321848 0.220158 -1.20322e-21)
(-0.335309 0.227222 0)
(-0.44366 -0.0555847 -4.22799e-21)
(-0.473223 -0.0747461 4.5158e-21)
(-0.103789 0.0366992 6.66187e-22)
(-0.091253 0.0404033 -7.10495e-22)
(-0.310273 0.222273 1.15527e-21)
(-0.434047 -0.0390773 0)
(-0.120501 0.0204623 1.27406e-21)
(-0.348072 0.266347 0)
(-0.559366 -0.09546 -3.79573e-21)
(-0.0916744 0.0132271 8.99641e-22)
(-0.527783 -0.268261 -2.47539e-21)
(-0.444654 0.124999 1.97648e-21)
(-0.115897 0.168216 -5.95219e-21)
(-0.645438 -0.324864 0)
(-0.444587 0.165735 4.83543e-21)
(-0.0475185 0.122628 0)
(-0.0932414 0.152103 -1.90678e-21)
(-0.44242 0.14249 -1.26695e-21)
(-0.561454 -0.275205 -1.60401e-21)
(-0.537947 -0.239598 -8.86856e-23)
(0.00366465 0.0514867 1.73845e-21)
(-0.273025 0.156871 0)
(-0.265172 0.186494 2.3161e-21)
(-0.269492 0.179482 0)
(-0.153076 0.0227774 0)
(-0.353387 0.0111907 8.28269e-21)
(-0.14508 0.0366429 0)
(-0.345317 0.00478241 -5.27892e-21)
(-0.331932 0.256816 0)
(-0.318905 0.249966 0)
(-0.129349 -0.00686587 2.75809e-23)
(-0.513762 -0.0674499 2.41436e-21)
(-0.113937 0.00401016 6.55336e-21)
(-0.485185 -0.0495694 -5.15576e-21)
(-0.50049 -0.300241 0)
(-0.00747125 0.0559083 3.71201e-21)
(-0.311493 0.121742 0)
(-0.656631 -0.33304 -2.28397e-21)
(-0.44163 0.16722 5.34315e-22)
(-0.0386204 0.113533 1.72065e-21)
(-0.273555 0.236336 -4.35453e-21)
(-0.208137 -0.0613746 -2.98738e-21)
(-0.431582 0.00623455 6.83503e-21)
(-0.493015 -0.263127 5.43499e-21)
(-0.450823 0.101787 5.07106e-21)
(-0.147592 0.193459 0)
(-0.0209988 0.0682453 6.86983e-21)
(-0.687712 -0.19973 -2.21199e-21)
(-0.389875 0.255589 2.7413e-21)
(-0.637584 -0.322557 0)
(-0.36968 0.171858 0)
(-0.00607841 0.0753586 0)
(-0.645008 -0.331047 0)
(-0.386591 0.169637 1.49417e-21)
(-0.0109592 0.0814288 6.2462e-22)
(-0.363626 0.247656 -2.37817e-21)
(-0.56263 -0.125109 1.37679e-21)
(-0.0613702 0.0486349 1.84558e-21)
(-0.219595 0.188834 -6.78161e-22)
(-0.238632 -0.0501423 0)
(-0.360115 0.0583625 -3.89884e-23)
(-0.417083 0.208149 2.28606e-21)
(-0.0155174 0.0978998 4.97713e-21)
(-0.69904 -0.289822 -9.93911e-22)
(-0.522037 -0.236243 0)
(-0.427143 0.144631 0)
(-0.0997768 0.153585 6.36777e-21)
(-0.0258232 0.0962215 1.61203e-21)
(-0.649506 -0.233463 3.47586e-21)
(-0.409313 0.219515 6.06008e-21)
(-0.309973 0.250281 0)
(-0.147362 -0.0214805 -4.39411e-21)
(-0.47461 -0.037896 2.66138e-21)
(-0.387549 0.0951267 2.39071e-23)
(-0.352548 -0.133418 2.5141e-21)
(-0.17222 0.182717 0)
(-0.252275 0.203832 5.07914e-23)
(-0.196252 -0.0316012 -8.60888e-22)
(-0.379058 0.0258157 -2.77141e-21)
(-0.0183093 0.100089 8.23958e-24)
(-0.693954 -0.304951 2.32612e-21)
(-0.420736 0.19878 2.55269e-21)
(-0.396794 0.226329 -1.1147e-21)
(-0.617016 -0.196931 -1.05028e-21)
(-0.0332997 0.0876005 0)
(-0.243752 0.180684 -2.51207e-21)
(-0.179052 0.00537176 5.37045e-21)
(-0.341492 0.0331731 -4.48687e-21)
(-0.38159 0.2567 1.96143e-21)
(-0.00259627 0.0711527 2.56338e-21)
(-0.751716 -0.230107 -1.36164e-21)
(-0.30288 0.200071 -1.45856e-21)
(-0.395161 -0.0342136 0)
(-0.115603 0.0411577 0)
(-0.329008 0.114352 -5.95672e-21)
(-0.303296 -0.0582686 1.47331e-21)
(-0.152328 0.141173 0)
(-0.483934 -0.225886 0)
(-0.426285 0.12487 4.09218e-21)
(-0.123968 0.169364 0)
(-0.35933 0.223527 -1.09496e-21)
(0.00829974 0.0763986 -7.93852e-22)
(-0.735939 -0.269747 1.18747e-21)
(-0.360721 0.231817 3.0314e-21)
(0.00901048 0.0762393 0)
(-0.747515 -0.26011 -1.28445e-21)
(-0.0216418 0.0904817 1.46992e-21)
(-0.661635 -0.228836 -1.99055e-21)
(-0.405331 0.227576 -5.56759e-21)
(-0.401716 0.0835075 -1.8918e-21)
(-0.358356 -0.150031 -2.54646e-21)
(-0.184729 0.194838 0)
(0.00986488 0.0722626 7.27462e-22)
(-0.716062 -0.264994 -1.11216e-21)
(-0.339574 0.215294 0)
(-0.0460006 0.116885 0)
(-0.621724 -0.26113 -2.11017e-21)
(-0.426415 0.187348 -6.86444e-22)
(-0.0031786 0.0385977 2.95358e-21)
(-0.399269 -0.241196 9.27047e-22)
(-0.235772 0.0950022 0)
(-0.215581 0.12787 -1.69852e-21)
(-0.437827 -0.187899 0)
(0.00313453 0.038452 2.95227e-21)
(-0.00988047 0.0736364 2.27489e-24)
(-0.722051 -0.223609 0)
(-0.390514 0.253378 0)
(-0.0148021 0.0952426 0)
(-0.687861 -0.32291 0)
(-0.415106 0.190051 3.39114e-21)
(-0.405709 0.227034 -2.03326e-21)
(-0.408569 0.225614 1.64591e-21)
(-0.00817053 0.089329 -2.81244e-21)
(-0.713953 -0.264972 -4.01726e-22)
(-0.0125711 0.0912774 -4.55815e-21)
(-0.697186 -0.257393 7.76849e-22)
(-0.431224 0.17804 1.32018e-21)
(-0.612361 -0.267426 1.42386e-21)
(-0.0538632 0.123429 0)
(-0.166884 0.207973 0)
(-0.466491 -0.252962 0)
(-0.453177 0.089067 0)
(-0.265909 0.160959 0)
(-0.145629 0.0559122 -7.3396e-21)
(-0.318895 0.00805192 2.92938e-21)
(-0.434804 0.158299 3.7345e-21)
(-0.573847 -0.264165 5.37771e-22)
(-0.0765885 0.139446 5.62863e-21)
(-0.0883933 0.147231 3.6648e-21)
(-0.435204 0.149988 -5.1889e-21)
(-0.55584 -0.260324 -7.46293e-22)
(-0.38232 0.267403 2.20469e-21)
(-0.0151344 0.0616006 2.75722e-21)
(-0.729758 -0.203097 3.25658e-21)
(-0.335253 0.263543 0)
(-0.530454 -0.0724709 1.11832e-21)
(-0.112638 -0.000400928 -6.42326e-21)
(-0.32044 0.239121 0)
(-0.470064 -0.0515283 5.27832e-21)
(-0.119677 0.00644324 1.1784e-23)
(-0.412031 0.16568 -4.88219e-21)
(-0.527724 -0.21155 6.70436e-22)
(-0.0791071 0.132226 -3.19891e-21)
(-0.418814 0.159923 0)
(-0.532808 -0.223896 6.33664e-22)
(-0.0836398 0.137733 2.94285e-21)
(-0.232751 0.169335 0)
(-0.185716 0.0108634 -8.46166e-21)
(-0.324191 0.0433728 2.54014e-21)
(-0.337816 0.234421 0)
(-0.487552 -0.07887 0)
(-0.0895224 0.0333004 9.68781e-22)
(-0.0675655 0.136861 -5.94683e-21)
(-0.620364 -0.349027 -5.41299e-21)
(-0.460364 0.137812 0)
(-0.392515 0.157637 2.02139e-21)
(-0.0156323 0.0824646 0)
(-0.622819 -0.338605 9.06609e-22)
(-0.384095 0.144467 -2.82841e-23)
(-0.0168101 0.0788986 0)
(-0.597741 -0.33872 -2.57211e-21)
(-0.283276 0.213219 1.73293e-21)
(-0.151781 0.00155126 -9.31698e-22)
(-0.399921 -0.00757588 -6.72481e-23)
(-0.599557 -0.314792 1.10712e-22)
(-0.00582085 0.0686033 5.01444e-21)
(-0.351074 0.15829 0)
(-0.39959 0.232339 4.80589e-21)
(-0.025401 0.0858895 3.08779e-21)
(-0.647188 -0.210647 0)
(-0.00938424 0.0663507 -7.46958e-22)
(-0.56405 -0.320723 -1.22167e-21)
(-0.346383 0.140103 0)
(-0.279108 0.116573 4.13069e-21)
(-0.160854 0.10908 4.40109e-21)
(-0.265001 0.00277452 3.88457e-23)
(-0.363148 0.186318 -7.31471e-22)
(-0.459445 -0.120699 -7.0948e-22)
(-0.0783034 0.0978874 -3.31355e-21)
(-0.327527 -0.13308 5.80994e-21)
(-0.400459 0.0717415 4.46436e-21)
(-0.200492 0.202414 0)
(-0.0365965 0.106606 0)
(-0.637645 -0.351442 -9.57983e-22)
(-0.435983 0.151089 0)
(-0.510411 -0.24045 0)
(-0.430302 0.135561 0)
(-0.109795 0.160649 0)
(0.000707103 0.0764383 0)
(-0.383693 0.248171 -1.84239e-21)
(-0.752005 -0.242966 1.33328e-21)
(-0.375599 0.189268 0)
(-0.486023 -0.141071 3.5996e-22)
(-0.0707528 0.102286 3.24054e-21)
(-0.259119 0.15211 0)
(-0.152447 0.0603933 6.30334e-21)
(-0.303985 0.0162863 0)
(-0.655447 -0.343226 -3.57154e-21)
(-0.432488 0.164172 1.64787e-21)
(-0.0316541 0.105265 0)
(-0.0325013 0.10597 -3.37177e-21)
(-0.64435 -0.256789 1.32356e-22)
(-0.419746 0.203223 6.60708e-23)
(-0.374076 0.21426 0)
(-0.366167 0.209043 2.0253e-21)
(0.00386496 0.0802465 -1.82742e-21)
(0.00407488 0.0780149 -2.2443e-21)
(-0.721164 -0.288063 -7.88137e-22)
(-0.709114 -0.291638 6.48004e-22)
(-0.372526 0.135312 0)
(-0.397799 -0.133275 9.63467e-21)
(-0.122923 0.144222 3.49861e-21)
(-0.479556 -0.197776 6.82174e-21)
(-0.409218 0.141819 0)
(-0.106378 0.150193 -3.86417e-21)
(-0.311664 0.127993 -3.3737e-21)
(-0.306744 -0.0436718 2.50072e-21)
(-0.13788 0.120492 5.44751e-21)
(-0.637386 -0.345734 2.12409e-21)
(-0.411348 0.158672 2.14506e-21)
(-0.624864 -0.35056 -9.7699e-22)
(-0.0215149 0.0908773 0)
(-0.415302 0.149082 -2.07403e-21)
(-0.0262379 0.0927204 0)
(-0.397582 0.196213 0)
(-0.549375 -0.189033 0)
(-0.0554193 0.107542 3.61475e-21)
(-0.424686 0.171144 2.96311e-21)
(-0.415325 0.168094 -5.53747e-21)
(-0.664389 -0.339517 1.39907e-21)
(-0.656969 -0.340807 -3.60478e-21)
(-0.0241299 0.0994077 5.06121e-21)
(-0.020323 0.0933271 -2.66209e-24)
(-0.405625 0.133801 0)
(-0.456428 -0.187762 -6.33663e-21)
(-0.120941 0.160051 5.02016e-21)
(-0.352657 0.155291 3.16941e-21)
(-0.420087 -0.11702 -4.27323e-21)
(-0.0952902 0.115356 0)
(-0.375456 0.237294 0)
(0.00598781 0.0785428 0)
(-0.751314 -0.26102 1.23343e-21)
(-0.370894 0.146115 2.33238e-21)
(-0.413398 -0.13071 -2.6626e-21)
(-0.110873 0.135243 -5.79928e-21)
(-0.326329 0.136678 1.36909e-21)
(-0.337385 -0.06784 -2.92977e-21)
(-0.127207 0.121425 3.16818e-21)
(-0.370523 0.221059 0)
(0.00563283 0.0792973 0)
(-0.734568 -0.27989 -1.74708e-21)
(-0.375364 0.200081 0)
(-0.509236 -0.144405 7.29503e-22)
(-0.0613777 0.0933314 -3.57831e-21)
(-0.406459 -0.212388 0)
(-0.447537 0.06933 0)
(-0.19808 0.225751 -1.94253e-22)
(-0.308666 0.257487 -1.97094e-22)
(-0.483756 -0.0343606 0)
(-0.15826 -0.0348712 6.81495e-21)
(-0.563623 -0.313155 2.86719e-21)
(-0.112734 0.172686 0)
(-0.463359 0.118083 0)
(4.23088e-05 0.0322414 -7.10069e-21)
(-0.371201 -0.185089 4.22725e-22)
(-0.199131 0.0950637 -1.72829e-21)
(-0.373298 0.167423 0)
(-0.44533 -0.136022 2.63202e-21)
(-0.0889597 0.118102 -2.97299e-21)
(-0.392262 0.232514 3.39667e-21)
(0.000466199 0.0840034 9.4958e-21)
(-0.737131 -0.266826 0)
(-0.228063 -0.0953328 -1.80235e-21)
(-0.482248 -0.0081323 -2.56313e-21)
(-0.285832 0.26605 -1.75631e-21)
(-0.268669 0.168273 0)
(0.00637696 0.0530529 -2.64168e-21)
(-0.567139 -0.230767 0)
(-0.19219 0.168326 3.36052e-21)
(-0.200006 0.179702 -3.43987e-21)
(-0.258175 -0.0520175 0)
(-0.34144 0.0791419 2.85455e-21)
(-0.266117 -0.0671712 -5.54571e-21)
(-0.356873 0.0725812 -2.2931e-21)
(-0.312156 0.115613 3.1766e-21)
(-0.28706 -0.0362988 3.34776e-21)
(-0.152517 0.130838 0)
(-0.224786 0.182153 2.95138e-21)
(-0.20754 0.171983 0)
(-0.214348 -0.0261132 -3.06694e-21)
(-0.34649 0.0512808 2.56891e-21)
(-0.227726 -0.0290052 3.08972e-21)
(-0.335493 0.0660072 1.66766e-23)
(-0.363026 0.165339 2.00621e-22)
(-0.391286 -0.103235 -1.87402e-21)
(-0.108391 0.121987 -3.92035e-21)
(-0.35613 0.147278 -5.45535e-21)
(-0.38961 -0.107701 4.92394e-23)
(-0.114878 0.12996 0)
(-0.0230272 0.0853234 0)
(-0.597623 -0.348102 0)
(-0.400364 0.139692 2.23539e-21)
(-0.296807 0.213547 -1.59975e-21)
(-0.4097 -0.0225052 0)
(-0.132171 0.0175923 1.72273e-21)
(-0.424384 0.181764 -5.3839e-21)
(-0.677339 -0.330253 1.70186e-21)
(-0.021423 0.100537 -2.88686e-21)
(-0.412765 0.176996 0)
(-0.419551 0.179866 2.72955e-21)
(-0.553486 -0.216669 -8.3535e-22)
(-0.577834 -0.23354 2.58162e-21)
(-0.0654491 0.124143 -3.98962e-21)
(-0.0595495 0.123211 -3.70619e-21)
(-0.293345 0.202462 0)
(-0.391329 -0.0207596 0)
(-0.128753 0.0285515 8.14053e-22)
(-0.347389 0.250274 1.90617e-21)
(-0.529662 -0.0937634 0)
(-0.0858655 0.0283056 2.13972e-21)
(-0.396012 0.176923 -1.40483e-21)
(-0.511105 -0.181634 0)
(-0.0718019 0.120649 0)
(-0.232997 0.132503 3.25753e-21)
(-0.274437 0.0449317 -1.58659e-21)
(-0.176555 0.0553755 1.7032e-21)
(-0.427044 0.165023 0)
(-0.566442 -0.246761 0)
(-0.073264 0.134762 -5.98443e-21)
(-0.256098 0.166812 0)
(-0.155504 0.0396129 9.29533e-22)
(-0.323345 0.0186218 0)
(-0.400192 0.146199 -3.1135e-21)
(-0.464346 -0.183857 -3.52089e-21)
(-0.105768 0.145334 -5.00545e-22)
(-0.348784 0.240286 1.91969e-21)
(-0.5166 -0.0968583 0)
(-0.0788784 0.0385949 4.39721e-21)
(-0.238813 0.144659 -3.22867e-21)
(-0.231025 0.149226 -1.44327e-21)
(-0.290346 0.036553 1.55012e-21)
(-0.169308 0.0483813 -3.35738e-21)
(-0.297239 0.0433008 0)
(-0.177569 0.0340401 -6.0116e-21)
(-0.217622 0.16261 -1.46969e-21)
(-0.201678 -0.00016884 3.93933e-21)
(-0.207668 0.165757 9.45862e-22)
(-0.318252 0.0564301 -3.48942e-21)
(-0.224989 -0.019895 -1.91145e-21)
(-0.327172 0.0671703 9.48372e-23)
(-0.319067 0.209887 1.72696e-21)
(-0.332074 0.208369 0)
(-0.425866 -0.0542915 3.1645e-21)
(-0.440101 -0.0719165 -2.46666e-21)
(-0.101644 0.0465436 -3.84745e-21)
(-0.0901673 0.0599401 6.402e-21)
(-0.0171236 0.0791695 0)
(-0.682812 -0.215996 -1.20166e-21)
(-0.396631 0.243428 -2.90025e-21)
(-0.209068 0.228455 2.35051e-21)
(-0.440505 0.0621139 2.93404e-21)
(-0.374212 -0.18777 -6.09761e-21)
(-0.0122722 0.0828465 -3.20295e-21)
(-0.014472 0.0878746 2.56222e-21)
(-0.697743 -0.233415 1.03851e-21)
(-0.687094 -0.24099 1.81829e-21)
(-0.399635 0.240162 7.42097e-21)
(-0.405067 0.231805 -3.86024e-21)
(-0.252145 0.238332 3.20859e-21)
(-0.26242 -0.102986 -2.86231e-21)
(-0.431738 0.0281429 6.59548e-22)
(-0.229592 0.109534 5.47217e-21)
(-0.190198 0.0745559 0)
(-0.24484 0.0565953 -5.43294e-21)
(-0.42644 0.173914 -1.30755e-21)
(-0.585522 -0.249885 -2.91383e-21)
(-0.0626611 0.127813 0)
(-0.276505 0.195156 0)
(-0.145112 0.0177545 -7.76248e-22)
(-0.371382 -0.001267 -2.67241e-21)
(-0.355786 0.239706 0)
(-0.530059 -0.109141 0)