/*--------------------------------*- C++ -*----------------------------------*\
  =========                 |
  \\      /  F ield         | OpenFOAM: The Open Source CFD Toolbox
   \\    /   O peration     | Website:  https://openfoam.org
    \\  /    A nd           | Version:  6
     \\/     M anipulation  |
\*---------------------------------------------------------------------------*/
FoamFile
{
    version     2.0;
    format      ascii;
    class       volScalarField;
    location    "0";
    object      p;
}
// * * * * * * * * * * * * * * * * * * * * * * * * * * * * * * * * * * * * * //

dimensions      [0 2 -2 0 0 0 0];

internalField   nonuniform List<scalar> 
145945
(
3.48903e-06
3.48786e-06
3.48692e-06
3.48597e-06
3.48526e-06
3.48468e-06
3.48429e-06
3.48405e-06
3.48397e-06
3.48403e-06
3.48425e-06
3.48461e-06
3.48516e-06
3.48583e-06
3.48679e-06
3.48777e-06
3.48903e-06
3.48786e-06
3.48691e-06
3.48596e-06
3.48503e-06
3.48428e-06
3.48369e-06
3.48328e-06
3.48303e-06
3.48294e-06
3.483e-06
3.48324e-06
3.48362e-06
3.48418e-06
3.48489e-06
3.48584e-06
3.48683e-06
3.48786e-06
3.48692e-06
3.48596e-06
3.48497e-06
3.48404e-06
3.48328e-06
3.48268e-06
3.48226e-06
3.482e-06
3.48191e-06
3.48198e-06
3.48222e-06
3.48261e-06
3.48318e-06
3.48391e-06
3.48484e-06
3.4859e-06
3.48692e-06
3.48596e-06
3.48503e-06
3.48404e-06
3.48312e-06
3.48234e-06
3.48173e-06
3.4813e-06
3.48104e-06
3.48094e-06
3.48101e-06
3.48126e-06
3.48166e-06
3.48224e-06
3.48299e-06
3.48392e-06
3.48497e-06
3.48598e-06
3.48526e-06
3.48428e-06
3.48328e-06
3.48234e-06
3.48154e-06
3.48092e-06
3.48048e-06
3.48021e-06
3.48011e-06
3.48018e-06
3.48043e-06
3.48085e-06
3.48144e-06
3.48221e-06
3.48315e-06
3.48423e-06
3.48527e-06
3.48468e-06
3.48369e-06
3.48268e-06
3.48173e-06
3.48092e-06
3.48029e-06
3.47984e-06
3.47956e-06
3.47946e-06
3.47954e-06
3.4798e-06
3.48022e-06
3.48082e-06
3.48161e-06
3.48256e-06
3.48364e-06
3.4847e-06
3.4843e-06
3.48328e-06
3.48226e-06
3.4813e-06
3.48048e-06
3.47984e-06
3.47938e-06
3.4791e-06
3.479e-06
3.47908e-06
3.47934e-06
3.47977e-06
3.48038e-06
3.48118e-06
3.48214e-06
3.48323e-06
3.48431e-06
3.48405e-06
3.48303e-06
3.482e-06
3.48104e-06
3.48021e-06
3.47956e-06
3.4791e-06
3.47882e-06
3.47872e-06
3.4788e-06
3.47906e-06
3.4795e-06
3.48011e-06
3.48091e-06
3.48189e-06
3.48298e-06
3.48407e-06
3.48397e-06
3.48294e-06
3.48191e-06
3.48094e-06
3.48011e-06
3.47946e-06
3.479e-06
3.47872e-06
3.47861e-06
3.47869e-06
3.47896e-06
3.4794e-06
3.48001e-06
3.48082e-06
3.48179e-06
3.48289e-06
3.48398e-06
3.48403e-06
3.483e-06
3.48198e-06
3.48101e-06
3.48019e-06
3.47954e-06
3.47908e-06
3.4788e-06
3.47869e-06
3.47877e-06
3.47903e-06
3.47947e-06
3.48009e-06
3.48089e-06
3.48186e-06
3.48296e-06
3.48405e-06
3.48425e-06
3.48324e-06
3.48222e-06
3.48126e-06
3.48043e-06
3.4798e-06
3.47934e-06
3.47906e-06
3.47896e-06
3.47903e-06
3.47929e-06
3.47973e-06
3.48034e-06
3.48113e-06
3.4821e-06
3.48319e-06
3.48427e-06
3.48461e-06
3.48362e-06
3.48261e-06
3.48166e-06
3.48085e-06
3.48022e-06
3.47977e-06
3.4795e-06
3.4794e-06
3.47947e-06
3.47973e-06
3.48016e-06
3.48076e-06
3.48154e-06
3.48249e-06
3.48357e-06
3.48463e-06
3.48516e-06
3.48418e-06
3.48318e-06
3.48224e-06
3.48144e-06
3.48082e-06
3.48038e-06
3.48011e-06
3.48001e-06
3.48009e-06
3.48034e-06
3.48076e-06
3.48135e-06
3.48212e-06
3.48306e-06
3.48413e-06
3.48518e-06
3.48583e-06
3.48489e-06
3.48391e-06
3.48299e-06
3.48221e-06
3.4816e-06
3.48118e-06
3.48091e-06
3.48082e-06
3.48089e-06
3.48113e-06
3.48154e-06
3.48212e-06
3.48286e-06
3.48379e-06
3.48484e-06
3.48584e-06
3.48679e-06
3.48584e-06
3.48484e-06
3.48392e-06
3.48315e-06
3.48256e-06
3.48214e-06
3.48188e-06
3.48179e-06
3.48186e-06
3.4821e-06
3.48249e-06
3.48306e-06
3.48379e-06
3.48472e-06
3.48577e-06
3.4868e-06
3.48777e-06
3.48683e-06
3.4859e-06
3.48497e-06
3.48423e-06
3.48364e-06
3.48323e-06
3.48298e-06
3.48289e-06
3.48296e-06
3.48319e-06
3.48357e-06
3.48413e-06
3.48484e-06
3.48577e-06
3.48676e-06
3.48777e-06
3.48903e-06
3.48786e-06
3.48692e-06
3.48598e-06
3.48527e-06
3.4847e-06
3.48431e-06
3.48407e-06
3.48398e-06
3.48405e-06
3.48427e-06
3.48463e-06
3.48518e-06
3.48584e-06
3.4868e-06
3.48777e-06
3.48903e-06
3.43027e-06
3.42953e-06
3.42892e-06
3.42829e-06
3.42782e-06
3.42746e-06
3.42721e-06
3.42705e-06
3.42699e-06
3.42703e-06
3.42716e-06
3.42739e-06
3.42772e-06
3.42815e-06
3.42876e-06
3.4294e-06
3.43018e-06
3.42953e-06
3.42896e-06
3.42838e-06
3.42779e-06
3.42731e-06
3.42695e-06
3.42669e-06
3.42654e-06
3.42648e-06
3.42652e-06
3.42665e-06
3.42688e-06
3.42721e-06
3.42764e-06
3.42822e-06
3.42884e-06
3.42945e-06
3.42892e-06
3.42838e-06
3.42779e-06
3.42722e-06
3.42675e-06
3.42639e-06
3.42615e-06
3.42599e-06
3.42593e-06
3.42597e-06
3.4261e-06
3.42633e-06
3.42665e-06
3.42708e-06
3.42764e-06
3.42826e-06
3.42884e-06
3.42829e-06
3.42779e-06
3.42722e-06
3.42666e-06
3.4262e-06
3.42585e-06
3.4256e-06
3.42544e-06
3.42539e-06
3.42542e-06
3.42556e-06
3.42578e-06
3.42611e-06
3.42653e-06
3.42707e-06
3.42768e-06
3.42822e-06
3.42782e-06
3.42731e-06
3.42675e-06
3.4262e-06
3.42574e-06
3.42538e-06
3.42513e-06
3.42498e-06
3.42492e-06
3.42496e-06
3.42509e-06
3.42532e-06
3.42564e-06
3.42607e-06
3.4266e-06
3.42721e-06
3.42775e-06
3.42746e-06
3.42695e-06
3.42639e-06
3.42585e-06
3.42538e-06
3.42503e-06
3.42478e-06
3.42462e-06
3.42456e-06
3.4246e-06
3.42474e-06
3.42497e-06
3.42529e-06
3.42572e-06
3.42625e-06
3.42684e-06
3.42738e-06
3.42721e-06
3.4267e-06
3.42615e-06
3.4256e-06
3.42513e-06
3.42478e-06
3.42452e-06
3.42437e-06
3.42431e-06
3.42435e-06
3.42448e-06
3.42472e-06
3.42504e-06
3.42547e-06
3.426e-06
3.4266e-06
3.42713e-06
3.42705e-06
3.42654e-06
3.42599e-06
3.42545e-06
3.42498e-06
3.42462e-06
3.42437e-06
3.42421e-06
3.42415e-06
3.42419e-06
3.42433e-06
3.42456e-06
3.42489e-06
3.42532e-06
3.42585e-06
3.42644e-06
3.42698e-06
3.42699e-06
3.42648e-06
3.42593e-06
3.42539e-06
3.42492e-06
3.42456e-06
3.42431e-06
3.42415e-06
3.42409e-06
3.42413e-06
3.42427e-06
3.4245e-06
3.42483e-06
3.42526e-06
3.42579e-06
3.42638e-06
3.42692e-06
3.42703e-06
3.42652e-06
3.42597e-06
3.42542e-06
3.42496e-06
3.4246e-06
3.42435e-06
3.42419e-06
3.42413e-06
3.42417e-06
3.42431e-06
3.42454e-06
3.42487e-06
3.4253e-06
3.42583e-06
3.42642e-06
3.42696e-06
3.42716e-06
3.42665e-06
3.4261e-06
3.42556e-06
3.42509e-06
3.42474e-06
3.42448e-06
3.42433e-06
3.42427e-06
3.42431e-06
3.42444e-06
3.42468e-06
3.425e-06
3.42543e-06
3.42596e-06
3.42655e-06
3.42709e-06
3.42739e-06
3.42688e-06
3.42633e-06
3.42578e-06
3.42532e-06
3.42497e-06
3.42472e-06
3.42456e-06
3.4245e-06
3.42454e-06
3.42468e-06
3.4249e-06
3.42523e-06
3.42565e-06
3.42618e-06
3.42678e-06
3.42731e-06
3.42772e-06
3.42721e-06
3.42666e-06
3.42611e-06
3.42564e-06
3.42529e-06
3.42504e-06
3.42489e-06
3.42483e-06
3.42487e-06
3.425e-06
3.42523e-06
3.42555e-06
3.42597e-06
3.42651e-06
3.42711e-06
3.42765e-06
3.42815e-06
3.42764e-06
3.42708e-06
3.42653e-06
3.42607e-06
3.42572e-06
3.42547e-06
3.42532e-06
3.42526e-06
3.4253e-06
3.42543e-06
3.42565e-06
3.42597e-06
3.4264e-06
3.42693e-06
3.42754e-06
3.42808e-06
3.42876e-06
3.42822e-06
3.42764e-06
3.42707e-06
3.4266e-06
3.42625e-06
3.426e-06
3.42585e-06
3.42579e-06
3.42583e-06
3.42596e-06
3.42618e-06
3.42651e-06
3.42693e-06
3.42748e-06
3.42811e-06
3.42868e-06
3.4294e-06
3.42884e-06
3.42826e-06
3.42768e-06
3.42721e-06
3.42684e-06
3.4266e-06
3.42644e-06
3.42638e-06
3.42642e-06
3.42655e-06
3.42678e-06
3.42711e-06
3.42754e-06
3.42811e-06
3.42872e-06
3.42932e-06
3.43018e-06
3.42945e-06
3.42884e-06
3.42822e-06
3.42775e-06
3.42738e-06
3.42713e-06
3.42698e-06
3.42692e-06
3.42696e-06
3.42709e-06
3.42731e-06
3.42765e-06
3.42808e-06
3.42868e-06
3.42932e-06
3.4301e-06
3.39269e-06
3.39274e-06
3.39277e-06
3.39275e-06
3.39275e-06
3.39272e-06
3.3927e-06
3.39268e-06
3.39267e-06
3.39267e-06
3.39269e-06
3.3927e-06
3.39272e-06
3.39271e-06
3.3927e-06
3.39265e-06
3.39261e-06
3.39274e-06
3.39277e-06
3.39277e-06
3.39273e-06
3.3927e-06
3.39266e-06
3.39262e-06
3.39259e-06
3.39258e-06
3.39258e-06
3.3926e-06
3.39263e-06
3.39267e-06
3.39269e-06
3.3927e-06
3.39268e-06
3.39266e-06
3.39277e-06
3.39277e-06
3.39271e-06
3.39264e-06
3.39258e-06
3.39252e-06
3.39247e-06
3.39243e-06
3.39242e-06
3.39242e-06
3.39245e-06
3.39249e-06
3.39254e-06
3.39259e-06
3.39263e-06
3.39267e-06
3.39268e-06
3.39275e-06
3.39273e-06
3.39264e-06
3.39254e-06
3.39245e-06
3.39237e-06
3.39231e-06
3.39227e-06
3.39225e-06
3.39225e-06
3.39229e-06
3.39234e-06
3.39241e-06
3.39248e-06
3.39255e-06
3.39263e-06
3.39267e-06
3.39275e-06
3.39271e-06
3.39258e-06
3.39245e-06
3.39234e-06
3.39225e-06
3.39217e-06
3.39212e-06
3.3921e-06
3.39211e-06
3.39215e-06
3.39221e-06
3.3923e-06
3.39239e-06
3.39249e-06
3.3926e-06
3.39266e-06
3.39272e-06
3.39266e-06
3.39252e-06
3.39237e-06
3.39225e-06
3.39214e-06
3.39206e-06
3.392e-06
3.39198e-06
3.39199e-06
3.39203e-06
3.3921e-06
3.3922e-06
3.39231e-06
3.39242e-06
3.39256e-06
3.39264e-06
3.3927e-06
3.39262e-06
3.39247e-06
3.39231e-06
3.39217e-06
3.39206e-06
3.39197e-06
3.39191e-06
3.39188e-06
3.39189e-06
3.39194e-06
3.39202e-06
3.39212e-06
3.39224e-06
3.39237e-06
3.39252e-06
3.39262e-06
3.39268e-06
3.39259e-06
3.39243e-06
3.39227e-06
3.39212e-06
3.392e-06
3.39191e-06
3.39185e-06
3.39182e-06
3.39183e-06
3.39188e-06
3.39196e-06
3.39207e-06
3.3922e-06
3.39233e-06
3.39249e-06
3.3926e-06
3.39267e-06
3.39258e-06
3.39242e-06
3.39225e-06
3.3921e-06
3.39198e-06
3.39188e-06
3.39182e-06
3.39179e-06
3.39181e-06
3.39186e-06
3.39194e-06
3.39205e-06
3.39218e-06
3.39232e-06
3.39248e-06
3.39259e-06
3.39267e-06
3.39258e-06
3.39242e-06
3.39225e-06
3.39211e-06
3.39199e-06
3.39189e-06
3.39183e-06
3.39181e-06
3.39182e-06
3.39187e-06
3.39195e-06
3.39206e-06
3.39218e-06
3.39232e-06
3.39248e-06
3.39259e-06
3.39269e-06
3.39261e-06
3.39245e-06
3.39229e-06
3.39215e-06
3.39203e-06
3.39194e-06
3.39188e-06
3.39186e-06
3.39187e-06
3.39192e-06
3.392e-06
3.3921e-06
3.39222e-06
3.39235e-06
3.3925e-06
3.3926e-06
3.3927e-06
3.39263e-06
3.39249e-06
3.39234e-06
3.39221e-06
3.39211e-06
3.39202e-06
3.39196e-06
3.39194e-06
3.39195e-06
3.392e-06
3.39207e-06
3.39217e-06
3.39228e-06
3.39239e-06
3.39253e-06
3.39261e-06
3.39272e-06
3.39267e-06
3.39254e-06
3.39241e-06
3.3923e-06
3.3922e-06
3.39212e-06
3.39207e-06
3.39205e-06
3.39206e-06
3.3921e-06
3.39217e-06
3.39225e-06
3.39235e-06
3.39245e-06
3.39257e-06
3.39264e-06
3.39271e-06
3.39269e-06
3.39259e-06
3.39248e-06
3.39239e-06
3.39231e-06
3.39224e-06
3.3922e-06
3.39218e-06
3.39219e-06
3.39222e-06
3.39228e-06
3.39235e-06
3.39242e-06
3.3925e-06
3.39259e-06
3.39263e-06
3.39271e-06
3.3927e-06
3.39263e-06
3.39255e-06
3.39249e-06
3.39242e-06
3.39237e-06
3.39233e-06
3.39232e-06
3.39232e-06
3.39235e-06
3.39239e-06
3.39245e-06
3.3925e-06
3.39255e-06
3.3926e-06
3.39262e-06
3.39265e-06
3.39268e-06
3.39267e-06
3.39263e-06
3.3926e-06
3.39256e-06
3.39252e-06
3.39249e-06
3.39248e-06
3.39248e-06
3.3925e-06
3.39253e-06
3.39257e-06
3.39259e-06
3.3926e-06
3.39259e-06
3.39257e-06
3.39261e-06
3.39266e-06
3.39268e-06
3.39267e-06
3.39267e-06
3.39264e-06
3.39262e-06
3.3926e-06
3.39259e-06
3.39259e-06
3.3926e-06
3.39262e-06
3.39264e-06
3.39263e-06
3.39262e-06
3.39257e-06
3.39253e-06
3.34774e-06
3.34824e-06
3.34872e-06
3.34918e-06
3.34956e-06
3.34982e-06
3.35001e-06
3.35011e-06
3.35015e-06
3.35013e-06
3.35003e-06
3.34986e-06
3.34961e-06
3.34926e-06
3.3488e-06
3.34826e-06
3.3477e-06
3.34824e-06
3.34863e-06
3.34907e-06
3.34949e-06
3.34983e-06
3.35006e-06
3.35022e-06
3.35031e-06
3.35035e-06
3.35033e-06
3.35024e-06
3.35009e-06
3.34987e-06
3.34956e-06
3.34915e-06
3.34865e-06
3.3482e-06
3.34872e-06
3.34907e-06
3.34945e-06
3.34982e-06
3.35011e-06
3.35032e-06
3.35045e-06
3.35053e-06
3.35057e-06
3.35054e-06
3.35047e-06
3.35034e-06
3.35015e-06
3.34988e-06
3.34952e-06
3.34909e-06
3.34869e-06
3.34918e-06
3.34949e-06
3.34982e-06
3.35014e-06
3.35039e-06
3.35057e-06
3.35068e-06
3.35075e-06
3.35078e-06
3.35076e-06
3.3507e-06
3.35059e-06
3.35043e-06
3.3502e-06
3.34988e-06
3.3495e-06
3.34915e-06
3.34956e-06
3.34982e-06
3.35011e-06
3.35039e-06
3.35061e-06
3.35076e-06
3.35086e-06
3.35092e-06
3.35094e-06
3.35092e-06
3.35087e-06
3.35078e-06
3.35065e-06
3.35045e-06
3.35017e-06
3.34984e-06
3.34953e-06
3.34982e-06
3.35006e-06
3.35032e-06
3.35057e-06
3.35076e-06
3.35089e-06
3.35098e-06
3.35103e-06
3.35105e-06
3.35103e-06
3.35099e-06
3.35091e-06
3.35079e-06
3.35062e-06
3.35037e-06
3.35007e-06
3.34979e-06
3.35001e-06
3.35022e-06
3.35045e-06
3.35068e-06
3.35086e-06
3.35098e-06
3.35105e-06
3.3511e-06
3.35112e-06
3.3511e-06
3.35107e-06
3.351e-06
3.35089e-06
3.35073e-06
3.35051e-06
3.35023e-06
3.34998e-06
3.35011e-06
3.35031e-06
3.35053e-06
3.35075e-06
3.35092e-06
3.35103e-06
3.3511e-06
3.35114e-06
3.35115e-06
3.35115e-06
3.35111e-06
3.35105e-06
3.35095e-06
3.3508e-06
3.35059e-06
3.35033e-06
3.35008e-06
3.35015e-06
3.35035e-06
3.35057e-06
3.35078e-06
3.35094e-06
3.35105e-06
3.35112e-06
3.35115e-06
3.35117e-06
3.35116e-06
3.35113e-06
3.35106e-06
3.35097e-06
3.35083e-06
3.35062e-06
3.35036e-06
3.35012e-06
3.35013e-06
3.35033e-06
3.35054e-06
3.35076e-06
3.35092e-06
3.35103e-06
3.3511e-06
3.35115e-06
3.35116e-06
3.35115e-06
3.35112e-06
3.35105e-06
3.35095e-06
3.35081e-06
3.3506e-06
3.35034e-06
3.3501e-06
3.35003e-06
3.35024e-06
3.35047e-06
3.3507e-06
3.35087e-06
3.35099e-06
3.35107e-06
3.35111e-06
3.35113e-06
3.35112e-06
3.35108e-06
3.35101e-06
3.3509e-06
3.35075e-06
3.35052e-06
3.35025e-06
3.35e-06
3.34986e-06
3.35009e-06
3.35034e-06
3.35059e-06
3.35078e-06
3.35091e-06
3.351e-06
3.35105e-06
3.35106e-06
3.35105e-06
3.35101e-06
3.35093e-06
3.35082e-06
3.35064e-06
3.3504e-06
3.3501e-06
3.34983e-06
3.34961e-06
3.34987e-06
3.35016e-06
3.35043e-06
3.35065e-06
3.35079e-06
3.35089e-06
3.35095e-06
3.35097e-06
3.35095e-06
3.3509e-06
3.35082e-06
3.35068e-06
3.35049e-06
3.35021e-06
3.34989e-06
3.34958e-06
3.34926e-06
3.34956e-06
3.34989e-06
3.3502e-06
3.35045e-06
3.35062e-06
3.35073e-06
3.3508e-06
3.35083e-06
3.35081e-06
3.35075e-06
3.35064e-06
3.35049e-06
3.35026e-06
3.34995e-06
3.34958e-06
3.34923e-06
3.3488e-06
3.34915e-06
3.34952e-06
3.34988e-06
3.35017e-06
3.35037e-06
3.35051e-06
3.35059e-06
3.35062e-06
3.3506e-06
3.35053e-06
3.3504e-06
3.35022e-06
3.34995e-06
3.34959e-06
3.34916e-06
3.34877e-06
3.34826e-06
3.34865e-06
3.34909e-06
3.3495e-06
3.34984e-06
3.35007e-06
3.35024e-06
3.35033e-06
3.35036e-06
3.35034e-06
3.35025e-06
3.3501e-06
3.34989e-06
3.34958e-06
3.34916e-06
3.34867e-06
3.34822e-06
3.3477e-06
3.3482e-06
3.34869e-06
3.34915e-06
3.34953e-06
3.34979e-06
3.34998e-06
3.35009e-06
3.35013e-06
3.3501e-06
3.35e-06
3.34983e-06
3.34958e-06
3.34923e-06
3.34877e-06
3.34822e-06
3.34766e-06
3.30482e-06
3.30552e-06
3.30616e-06
3.30679e-06
3.30731e-06
3.30769e-06
3.30796e-06
3.30812e-06
3.30818e-06
3.30813e-06
3.30799e-06
3.30774e-06
3.30737e-06
3.30688e-06
3.30623e-06
3.30552e-06
3.30475e-06
3.30552e-06
3.30609e-06
3.30669e-06
3.30728e-06
3.30777e-06
3.30814e-06
3.30839e-06
3.30855e-06
3.3086e-06
3.30856e-06
3.30842e-06
3.30818e-06
3.30784e-06
3.30737e-06
3.30676e-06
3.30608e-06
3.30545e-06
3.30616e-06
3.30669e-06
3.30725e-06
3.3078e-06
3.30825e-06
3.30859e-06
3.30882e-06
3.30896e-06
3.30901e-06
3.30898e-06
3.30885e-06
3.30863e-06
3.30831e-06
3.30788e-06
3.30732e-06
3.30668e-06
3.30609e-06
3.30679e-06
3.30728e-06
3.3078e-06
3.30829e-06
3.30871e-06
3.30902e-06
3.30924e-06
3.30936e-06
3.30941e-06
3.30938e-06
3.30926e-06
3.30906e-06
3.30877e-06
3.30837e-06
3.30785e-06
3.30727e-06
3.30672e-06
3.30731e-06
3.30777e-06
3.30825e-06
3.30871e-06
3.3091e-06
3.30938e-06
3.30958e-06
3.3097e-06
3.30974e-06
3.30971e-06
3.3096e-06
3.30942e-06
3.30915e-06
3.30878e-06
3.3083e-06
3.30776e-06
3.30724e-06
3.30769e-06
3.30814e-06
3.30859e-06
3.30902e-06
3.30938e-06
3.30965e-06
3.30984e-06
3.30995e-06
3.30999e-06
3.30996e-06
3.30986e-06
3.30968e-06
3.30943e-06
3.30908e-06
3.30864e-06
3.30812e-06
3.30763e-06
3.30796e-06
3.30839e-06
3.30882e-06
3.30924e-06
3.30958e-06
3.30984e-06
3.31001e-06
3.31012e-06
3.31016e-06
3.31013e-06
3.31003e-06
3.30987e-06
3.30963e-06
3.3093e-06
3.30887e-06
3.30838e-06
3.3079e-06
3.30812e-06
3.30855e-06
3.30896e-06
3.30936e-06
3.3097e-06
3.30995e-06
3.31012e-06
3.31022e-06
3.31026e-06
3.31023e-06
3.31014e-06
3.30998e-06
3.30974e-06
3.30942e-06
3.30901e-06
3.30853e-06
3.30806e-06
3.30818e-06
3.3086e-06
3.30901e-06
3.30941e-06
3.30974e-06
3.30999e-06
3.31016e-06
3.31026e-06
3.31029e-06
3.31027e-06
3.31018e-06
3.31002e-06
3.30979e-06
3.30947e-06
3.30906e-06
3.30858e-06
3.30812e-06
3.30813e-06
3.30856e-06
3.30898e-06
3.30938e-06
3.30971e-06
3.30996e-06
3.31013e-06
3.31023e-06
3.31027e-06
3.31024e-06
3.31015e-06
3.30999e-06
3.30976e-06
3.30944e-06
3.30902e-06
3.30854e-06
3.30807e-06
3.30799e-06
3.30842e-06
3.30885e-06
3.30926e-06
3.3096e-06
3.30986e-06
3.31003e-06
3.31014e-06
3.31018e-06
3.31015e-06
3.31005e-06
3.30989e-06
3.30965e-06
3.30932e-06
3.3089e-06
3.30841e-06
3.30793e-06
3.30774e-06
3.30818e-06
3.30863e-06
3.30906e-06
3.30942e-06
3.30968e-06
3.30987e-06
3.30998e-06
3.31002e-06
3.30999e-06
3.30989e-06
3.30972e-06
3.30947e-06
3.30912e-06
3.30868e-06
3.30817e-06
3.30767e-06
3.30737e-06
3.30784e-06
3.30831e-06
3.30877e-06
3.30915e-06
3.30943e-06
3.30963e-06
3.30974e-06
3.30979e-06
3.30976e-06
3.30965e-06
3.30947e-06
3.3092e-06
3.30883e-06
3.30836e-06
3.30782e-06
3.30731e-06
3.30688e-06
3.30737e-06
3.30788e-06
3.30837e-06
3.30878e-06
3.30909e-06
3.3093e-06
3.30943e-06
3.30947e-06
3.30944e-06
3.30932e-06
3.30912e-06
3.30884e-06
3.30844e-06
3.30793e-06
3.30735e-06
3.30681e-06
3.30623e-06
3.30676e-06
3.30732e-06
3.30785e-06
3.3083e-06
3.30864e-06
3.30887e-06
3.30901e-06
3.30906e-06
3.30902e-06
3.3089e-06
3.30868e-06
3.30836e-06
3.30793e-06
3.30738e-06
3.30675e-06
3.30616e-06
3.30552e-06
3.30608e-06
3.30668e-06
3.30727e-06
3.30776e-06
3.30812e-06
3.30838e-06
3.30853e-06
3.30859e-06
3.30854e-06
3.30841e-06
3.30817e-06
3.30782e-06
3.30735e-06
3.30675e-06
3.30608e-06
3.30545e-06
3.30475e-06
3.30545e-06
3.30609e-06
3.30672e-06
3.30724e-06
3.30763e-06
3.3079e-06
3.30806e-06
3.30812e-06
3.30807e-06
3.30793e-06
3.30767e-06
3.30731e-06
3.30682e-06
3.30616e-06
3.30545e-06
3.30468e-06
3.26384e-06
3.26463e-06
3.26536e-06
3.2661e-06
3.26671e-06
3.26717e-06
3.26749e-06
3.26769e-06
3.26776e-06
3.26771e-06
3.26753e-06
3.26723e-06
3.26679e-06
3.26621e-06
3.26545e-06
3.26464e-06
3.26377e-06
3.26463e-06
3.26529e-06
3.26598e-06
3.26668e-06
3.26727e-06
3.26772e-06
3.26803e-06
3.26822e-06
3.26829e-06
3.26824e-06
3.26807e-06
3.26778e-06
3.26735e-06
3.26679e-06
3.26607e-06
3.26529e-06
3.26456e-06
3.26536e-06
3.26598e-06
3.26665e-06
3.26731e-06
3.26786e-06
3.26828e-06
3.26858e-06
3.26876e-06
3.26882e-06
3.26877e-06
3.26861e-06
3.26834e-06
3.26794e-06
3.26741e-06
3.26673e-06
3.26597e-06
3.26529e-06
3.2661e-06
3.26668e-06
3.26731e-06
3.26792e-06
3.26844e-06
3.26884e-06
3.26911e-06
3.26928e-06
3.26934e-06
3.2693e-06
3.26915e-06
3.26889e-06
3.26851e-06
3.26801e-06
3.26738e-06
3.26667e-06
3.26603e-06
3.26671e-06
3.26727e-06
3.26786e-06
3.26844e-06
3.26893e-06
3.26931e-06
3.26957e-06
3.26973e-06
3.26979e-06
3.26974e-06
3.2696e-06
3.26936e-06
3.269e-06
3.26853e-06
3.26793e-06
3.26726e-06
3.26664e-06
3.26717e-06
3.26772e-06
3.26828e-06
3.26884e-06
3.26931e-06
3.26966e-06
3.26991e-06
3.27006e-06
3.27012e-06
3.27008e-06
3.26994e-06
3.26971e-06
3.26937e-06
3.26892e-06
3.26835e-06
3.2677e-06
3.2671e-06
3.26749e-06
3.26803e-06
3.26858e-06
3.26911e-06
3.26957e-06
3.26991e-06
3.27016e-06
3.2703e-06
3.27036e-06
3.27032e-06
3.27019e-06
3.26996e-06
3.26963e-06
3.2692e-06
3.26864e-06
3.26802e-06
3.26743e-06
3.26769e-06
3.26822e-06
3.26876e-06
3.26928e-06
3.26973e-06
3.27007e-06
3.2703e-06
3.27044e-06
3.2705e-06
3.27046e-06
3.27033e-06
3.27011e-06
3.26979e-06
3.26936e-06
3.26882e-06
3.26821e-06
3.26762e-06
3.26776e-06
3.26829e-06
3.26882e-06
3.26934e-06
3.26979e-06
3.27012e-06
3.27036e-06
3.2705e-06
3.27055e-06
3.27051e-06
3.27038e-06
3.27017e-06
3.26985e-06
3.26942e-06
3.26888e-06
3.26828e-06
3.26769e-06
3.26771e-06
3.26824e-06
3.26877e-06
3.2693e-06
3.26974e-06
3.27008e-06
3.27032e-06
3.27046e-06
3.27051e-06
3.27047e-06
3.27035e-06
3.27013e-06
3.26981e-06
3.26938e-06
3.26884e-06
3.26823e-06
3.26764e-06
3.26753e-06
3.26807e-06
3.26861e-06
3.26915e-06
3.2696e-06
3.26995e-06
3.27019e-06
3.27033e-06
3.27038e-06
3.27035e-06
3.27022e-06
3.26999e-06
3.26967e-06
3.26923e-06
3.26868e-06
3.26806e-06
3.26746e-06
3.26723e-06
3.26778e-06
3.26834e-06
3.26889e-06
3.26936e-06
3.26971e-06
3.26996e-06
3.27011e-06
3.27017e-06
3.27013e-06
3.26999e-06
3.26976e-06
3.26942e-06
3.26897e-06
3.2684e-06
3.26776e-06
3.26716e-06
3.26679e-06
3.26735e-06
3.26794e-06
3.26851e-06
3.269e-06
3.26937e-06
3.26963e-06
3.26979e-06
3.26985e-06
3.26981e-06
3.26967e-06
3.26942e-06
3.26907e-06
3.2686e-06
3.26801e-06
3.26734e-06
3.26672e-06
3.26621e-06
3.26679e-06
3.26741e-06
3.26801e-06
3.26853e-06
3.26892e-06
3.2692e-06
3.26936e-06
3.26943e-06
3.26938e-06
3.26923e-06
3.26897e-06
3.2686e-06
3.26811e-06
3.26748e-06
3.26678e-06
3.26614e-06
3.26545e-06
3.26607e-06
3.26673e-06
3.26738e-06
3.26793e-06
3.26835e-06
3.26864e-06
3.26882e-06
3.26889e-06
3.26884e-06
3.26868e-06
3.2684e-06
3.26801e-06
3.26748e-06
3.26681e-06
3.26606e-06
3.26538e-06
3.26464e-06
3.26529e-06
3.26598e-06
3.26667e-06
3.26726e-06
3.26771e-06
3.26802e-06
3.26821e-06
3.26828e-06
3.26823e-06
3.26806e-06
3.26776e-06
3.26734e-06
3.26678e-06
3.26606e-06
3.26528e-06
3.26457e-06
3.26377e-06
3.26456e-06
3.26529e-06
3.26603e-06
3.26664e-06
3.2671e-06
3.26743e-06
3.26762e-06
3.2677e-06
3.26764e-06
3.26747e-06
3.26716e-06
3.26672e-06
3.26614e-06
3.26538e-06
3.26457e-06
3.2637e-06
3.22415e-06
3.22494e-06
3.22566e-06
3.22641e-06
3.22704e-06
3.22752e-06
3.22785e-06
3.22806e-06
3.22813e-06
3.22808e-06
3.22789e-06
3.22758e-06
3.22712e-06
3.22652e-06
3.22574e-06
3.22493e-06
3.22408e-06
3.22494e-06
3.22559e-06
3.22629e-06
3.227e-06
3.22761e-06
3.22808e-06
3.22842e-06
3.22862e-06
3.22869e-06
3.22864e-06
3.22845e-06
3.22814e-06
3.2277e-06
3.22711e-06
3.22637e-06
3.22558e-06
3.22486e-06
3.22566e-06
3.22629e-06
3.22696e-06
3.22764e-06
3.22823e-06
3.22868e-06
3.22899e-06
3.22918e-06
3.22926e-06
3.2292e-06
3.22903e-06
3.22873e-06
3.22831e-06
3.22775e-06
3.22704e-06
3.22627e-06
3.22558e-06
3.22641e-06
3.227e-06
3.22764e-06
3.22829e-06
3.22884e-06
3.22927e-06
3.22957e-06
3.22976e-06
3.22982e-06
3.22977e-06
3.22961e-06
3.22933e-06
3.22892e-06
3.22839e-06
3.22772e-06
3.22699e-06
3.22634e-06
3.22704e-06
3.22761e-06
3.22823e-06
3.22884e-06
3.22938e-06
3.22978e-06
3.23007e-06
3.23025e-06
3.23031e-06
3.23027e-06
3.23011e-06
3.22984e-06
3.22945e-06
3.22894e-06
3.2283e-06
3.2276e-06
3.22696e-06
3.22752e-06
3.22808e-06
3.22868e-06
3.22927e-06
3.22978e-06
3.23018e-06
3.23045e-06
3.23062e-06
3.23069e-06
3.23064e-06
3.23049e-06
3.23023e-06
3.22986e-06
3.22937e-06
3.22875e-06
3.22807e-06
3.22744e-06
3.22785e-06
3.22842e-06
3.22899e-06
3.22957e-06
3.23007e-06
3.23045e-06
3.23073e-06
3.23089e-06
3.23095e-06
3.23091e-06
3.23076e-06
3.23051e-06
3.23014e-06
3.22967e-06
3.22906e-06
3.2284e-06
3.22778e-06
3.22806e-06
3.22862e-06
3.22918e-06
3.22976e-06
3.23025e-06
3.23062e-06
3.23089e-06
3.23105e-06
3.23111e-06
3.23107e-06
3.23092e-06
3.23068e-06
3.23032e-06
3.22985e-06
3.22926e-06
3.2286e-06
3.22799e-06
3.22813e-06
3.22869e-06
3.22926e-06
3.22982e-06
3.23031e-06
3.23069e-06
3.23095e-06
3.23111e-06
3.23117e-06
3.23113e-06
3.23098e-06
3.23074e-06
3.23038e-06
3.22992e-06
3.22933e-06
3.22868e-06
3.22806e-06
3.22808e-06
3.22864e-06
3.2292e-06
3.22977e-06
3.23027e-06
3.23064e-06
3.23091e-06
3.23107e-06
3.23113e-06
3.23109e-06
3.23094e-06
3.23069e-06
3.23034e-06
3.22987e-06
3.22928e-06
3.22862e-06
3.22801e-06
3.22789e-06
3.22846e-06
3.22903e-06
3.22961e-06
3.23011e-06
3.23049e-06
3.23076e-06
3.23092e-06
3.23099e-06
3.23094e-06
3.23079e-06
3.23054e-06
3.23018e-06
3.2297e-06
3.2291e-06
3.22844e-06
3.22782e-06
3.22758e-06
3.22814e-06
3.22873e-06
3.22933e-06
3.22984e-06
3.23023e-06
3.23051e-06
3.23068e-06
3.23074e-06
3.23069e-06
3.23054e-06
3.23028e-06
3.22991e-06
3.22942e-06
3.22881e-06
3.22813e-06
3.22751e-06
3.22712e-06
3.2277e-06
3.22831e-06
3.22892e-06
3.22945e-06
3.22986e-06
3.23015e-06
3.23032e-06
3.23038e-06
3.23034e-06
3.23018e-06
3.22991e-06
3.22953e-06
3.22902e-06
3.22839e-06
3.22768e-06
3.22705e-06
3.22653e-06
3.22711e-06
3.22775e-06
3.22839e-06
3.22894e-06
3.22937e-06
3.22967e-06
3.22985e-06
3.22992e-06
3.22987e-06
3.2297e-06
3.22942e-06
3.22902e-06
3.22849e-06
3.22783e-06
3.2271e-06
3.22645e-06
3.22574e-06
3.22637e-06
3.22705e-06
3.22772e-06
3.22831e-06
3.22875e-06
3.22907e-06
3.22926e-06
3.22933e-06
3.22928e-06
3.2291e-06
3.22881e-06
3.22839e-06
3.22783e-06
3.22713e-06
3.22636e-06
3.22567e-06
3.22494e-06
3.22558e-06
3.22628e-06
3.22699e-06
3.2276e-06
3.22807e-06
3.2284e-06
3.2286e-06
3.22868e-06
3.22862e-06
3.22844e-06
3.22813e-06
3.22768e-06
3.2271e-06
3.22636e-06
3.22557e-06
3.22486e-06
3.22408e-06
3.22486e-06
3.22559e-06
3.22634e-06
3.22697e-06
3.22745e-06
3.22779e-06
3.22799e-06
3.22807e-06
3.22801e-06
3.22782e-06
3.22751e-06
3.22705e-06
3.22645e-06
3.22567e-06
3.22486e-06
3.224e-06
3.18577e-06
3.18648e-06
3.18714e-06
3.18785e-06
3.18843e-06
3.18889e-06
3.18921e-06
3.18941e-06
3.18948e-06
3.18942e-06
3.18924e-06
3.18894e-06
3.18851e-06
3.18795e-06
3.18721e-06
3.18647e-06
3.18569e-06
3.18648e-06
3.18708e-06
3.18772e-06
3.18839e-06
3.18897e-06
3.18942e-06
3.18974e-06
3.18993e-06
3.19001e-06
3.18995e-06
3.18978e-06
3.18948e-06
3.18905e-06
3.18849e-06
3.18779e-06
3.18706e-06
3.1864e-06
3.18715e-06
3.18772e-06
3.18835e-06
3.189e-06
3.18955e-06
3.18999e-06
3.19029e-06
3.19048e-06
3.19055e-06
3.1905e-06
3.19033e-06
3.19004e-06
3.18963e-06
3.18909e-06
3.18842e-06
3.1877e-06
3.18706e-06
3.18785e-06
3.18839e-06
3.189e-06
3.18961e-06
3.19015e-06
3.19056e-06
3.19086e-06
3.19104e-06
3.1911e-06
3.19105e-06
3.19089e-06
3.19061e-06
3.19022e-06
3.1897e-06
3.18906e-06
3.18837e-06
3.18777e-06
3.18843e-06
3.18897e-06
3.18955e-06
3.19015e-06
3.19066e-06
3.19106e-06
3.19135e-06
3.19152e-06
3.19159e-06
3.19154e-06
3.19138e-06
3.19111e-06
3.19073e-06
3.19024e-06
3.18962e-06
3.18895e-06
3.18835e-06
3.18889e-06
3.18942e-06
3.18999e-06
3.19056e-06
3.19106e-06
3.19145e-06
3.19173e-06
3.1919e-06
3.19196e-06
3.19191e-06
3.19176e-06
3.1915e-06
3.19113e-06
3.19065e-06
3.19005e-06
3.1894e-06
3.18881e-06
3.18921e-06
3.18974e-06
3.19029e-06
3.19086e-06
3.19135e-06
3.19173e-06
3.192e-06
3.19216e-06
3.19223e-06
3.19218e-06
3.19203e-06
3.19178e-06
3.19142e-06
3.19094e-06
3.19036e-06
3.18972e-06
3.18913e-06
3.18941e-06
3.18994e-06
3.19048e-06
3.19104e-06
3.19152e-06
3.1919e-06
3.19216e-06
3.19233e-06
3.19239e-06
3.19234e-06
3.1922e-06
3.19195e-06
3.19159e-06
3.19112e-06
3.19054e-06
3.18991e-06
3.18933e-06
3.18948e-06
3.19001e-06
3.19055e-06
3.1911e-06
3.19159e-06
3.19196e-06
3.19223e-06
3.19239e-06
3.19245e-06
3.1924e-06
3.19226e-06
3.19201e-06
3.19166e-06
3.19119e-06
3.19061e-06
3.18998e-06
3.1894e-06
3.18942e-06
3.18995e-06
3.1905e-06
3.19106e-06
3.19154e-06
3.19191e-06
3.19218e-06
3.19234e-06
3.19241e-06
3.19236e-06
3.19221e-06
3.19196e-06
3.19161e-06
3.19114e-06
3.19056e-06
3.18993e-06
3.18935e-06
3.18925e-06
3.18978e-06
3.19033e-06
3.19089e-06
3.19138e-06
3.19176e-06
3.19203e-06
3.1922e-06
3.19226e-06
3.19221e-06
3.19207e-06
3.19181e-06
3.19145e-06
3.19098e-06
3.19039e-06
3.18975e-06
3.18917e-06
3.18894e-06
3.18948e-06
3.19004e-06
3.19061e-06
3.19112e-06
3.1915e-06
3.19178e-06
3.19195e-06
3.19201e-06
3.19197e-06
3.19181e-06
3.19155e-06
3.19119e-06
3.1907e-06
3.19011e-06
3.18945e-06
3.18887e-06
3.18851e-06
3.18905e-06
3.18963e-06
3.19022e-06
3.19074e-06
3.19113e-06
3.19142e-06
3.19159e-06
3.19166e-06
3.19161e-06
3.19145e-06
3.19119e-06
3.19081e-06
3.19031e-06
3.1897e-06
3.18902e-06
3.18843e-06
3.18795e-06
3.18849e-06
3.18909e-06
3.1897e-06
3.19024e-06
3.19065e-06
3.19095e-06
3.19112e-06
3.19119e-06
3.19114e-06
3.19098e-06
3.1907e-06
3.19031e-06
3.1898e-06
3.18916e-06
3.18847e-06
3.18787e-06
3.18722e-06
3.18779e-06
3.18842e-06
3.18907e-06
3.18962e-06
3.19005e-06
3.19036e-06
3.19055e-06
3.19061e-06
3.19056e-06
3.1904e-06
3.19011e-06
3.1897e-06
3.18916e-06
3.18849e-06
3.18777e-06
3.18714e-06
3.18647e-06
3.18707e-06
3.1877e-06
3.18837e-06
3.18895e-06
3.1894e-06
3.18972e-06
3.18991e-06
3.18999e-06
3.18993e-06
3.18976e-06
3.18945e-06
3.18903e-06
3.18847e-06
3.18777e-06
3.18705e-06
3.18639e-06
3.18569e-06
3.1864e-06
3.18706e-06
3.18777e-06
3.18836e-06
3.18881e-06
3.18914e-06
3.18933e-06
3.1894e-06
3.18935e-06
3.18917e-06
3.18887e-06
3.18843e-06
3.18787e-06
3.18714e-06
3.18639e-06
3.18561e-06
3.14847e-06
3.14909e-06
3.14967e-06
3.15029e-06
3.15081e-06
3.15122e-06
3.15151e-06
3.15169e-06
3.15175e-06
3.1517e-06
3.15154e-06
3.15127e-06
3.15088e-06
3.15037e-06
3.14972e-06
3.14906e-06
3.14838e-06
3.14909e-06
3.14961e-06
3.15017e-06
3.15077e-06
3.15128e-06
3.15169e-06
3.15198e-06
3.15216e-06
3.15222e-06
3.15217e-06
3.15201e-06
3.15174e-06
3.15135e-06
3.15085e-06
3.15022e-06
3.14958e-06
3.149e-06
3.14967e-06
3.15017e-06
3.15072e-06
3.1513e-06
3.1518e-06
3.1522e-06
3.15248e-06
3.15265e-06
3.15271e-06
3.15266e-06
3.15251e-06
3.15224e-06
3.15187e-06
3.15138e-06
3.15078e-06
3.15014e-06
3.14958e-06
3.15029e-06
3.15077e-06
3.1513e-06
3.15185e-06
3.15234e-06
3.15272e-06
3.15299e-06
3.15316e-06
3.15322e-06
3.15317e-06
3.15302e-06
3.15276e-06
3.1524e-06
3.15193e-06
3.15135e-06
3.15073e-06
3.1502e-06
3.15081e-06
3.15128e-06
3.1518e-06
3.15234e-06
3.15281e-06
3.15318e-06
3.15344e-06
3.1536e-06
3.15366e-06
3.15362e-06
3.15347e-06
3.15322e-06
3.15287e-06
3.15242e-06
3.15185e-06
3.15125e-06
3.15073e-06
3.15122e-06
3.15169e-06
3.1522e-06
3.15272e-06
3.15318e-06
3.15354e-06
3.1538e-06
3.15395e-06
3.15401e-06
3.15397e-06
3.15383e-06
3.15358e-06
3.15324e-06
3.15279e-06
3.15225e-06
3.15166e-06
3.15114e-06
3.15151e-06
3.15198e-06
3.15248e-06
3.15299e-06
3.15344e-06
3.1538e-06
3.15405e-06
3.1542e-06
3.15426e-06
3.15422e-06
3.15408e-06
3.15384e-06
3.1535e-06
3.15307e-06
3.15253e-06
3.15195e-06
3.15143e-06
3.15169e-06
3.15216e-06
3.15265e-06
3.15316e-06
3.1536e-06
3.15395e-06
3.1542e-06
3.15436e-06
3.15441e-06
3.15437e-06
3.15423e-06
3.154e-06
3.15367e-06
3.15323e-06
3.1527e-06
3.15213e-06
3.15161e-06
3.15175e-06
3.15222e-06
3.15271e-06
3.15322e-06
3.15366e-06
3.15401e-06
3.15426e-06
3.15441e-06
3.15447e-06
3.15443e-06
3.15429e-06
3.15406e-06
3.15373e-06
3.15329e-06
3.15276e-06
3.15219e-06