/*--------------------------------*- C++ -*----------------------------------*\
  =========                 |
  \\      /  F ield         | OpenFOAM: The Open Source CFD Toolbox
   \\    /   O peration     | Website:  https://openfoam.org
    \\  /    A nd           | Version:  6
     \\/     M anipulation  |
\*---------------------------------------------------------------------------*/
FoamFile
{
    version     2.0;
    format      ascii;
    class       volScalarField;
    location    "0";
    object      p;
}
// * * * * * * * * * * * * * * * * * * * * * * * * * * * * * * * * * * * * * //

dimensions      [0 2 -2 0 0 0 0];

internalField   nonuniform List<scalar> 
13046
(
1.35988
1.23477
1.5664
1.32441
1.5317
1.32667
1.28915
1.32149
1.56389
0.899118
0.841278
1.74623
1.2957
1.20794
1.60899
1.05434
1.73633
0.837571
1.48009
1.43008
1.29092
1.0224
1.74247
0.846014
1.36784
1.30717
1.51582
1.29414
1.18116
1.62211
1.38167
1.20081
1.5621
1.38864
1.49448
1.31918
1.37704
1.48648
1.34878
1.46804
1.51871
1.13325
1.37686
1.43884
1.4021
1.35296
1.44761
1.41164
1.32806
1.24401
1.57647
1.46293
1.54591
1.02823
1.45043
1.00333
1.57019
0.902826
1.3012
1.6642
1.12398
1.2373
1.66431
1.72921
0.998415
1.05539
1.34199
0.901217
1.64026
1.36215
0.919126
1.6289
0.874546
1.28404
1.67226
1.47963
1.45662
1.25789
1.70208
1.21539
0.877583
1.34259
1.30739
1.53078
1.73408
0.966829
1.02328
0.956551
1.72808
1.09614
1.71276
0.831298
1.16209
1.2036
1.16407
1.10539
1.09743
1.68009
1.6987
1.72683
0.94513
1.13241
1.33813
1.47559
1.39431
1.58013
1.07861
1.41883
1.51872
1.48392
1.07782
0.709051
1.73876
0.673862
1.31311
1.23373
1.58624
1.20214
1.22022
1.02845
1.69539
1.06765
1.68203
0.867027
0.79331
1.74927
1.25824
1.12647
1.66094
1.44508
1.53821
1.13372
1.70034
0.857826
1.20046
1.09329
1.09198
1.71504
1.36885
1.17957
1.57809
1.18947
1.33298
1.59914
1.53662
1.4633
1.06742
1.57204
1.11277
1.42078
1.12187
1.20327
1.67612
1.56578
1.19512
1.39241
1.38518
0.997293
1.35306
0.994418
1.61518
1.63634
1.14989
1.35179
1.59448
0.868342
1.74903
0.885005
0.781747
1.74
0.715463
1.08946
1.05812
1.72294
1.44755
1.04784
1.56373
1.15514
1.57616
1.37623
1.75304
0.949749
0.863193
1.45651
1.07678
1.5437
1.56758
1.16514
1.39771
1.21213
1.34077
1.58134
1.2048
1.63722
1.26957
1.15847
1.64133
0.968517
1.73574
1.02258
1.71021
0.914827
1.1829
0.866808
1.11953
1.71937
1.47489
0.954467
1.54029
1.25196
1.23703
1.69834
0.860474
1.06974
0.8552
1.73757
1.34394
1.49652
1.36597
1.32511
1.17289
1.61236
1.70752
0.887912
1.20668
1.23736
1.22996
1.63677
1.75138
0.81834
0.768863
1.55697
0.95295
1.45383
0.902744
1.14557
1.71734
1.06552
1.35248
1.62128
1.26971
1.10591
1.6605
1.29117
0.885716
1.66578
0.959995
1.34164
1.64075
1.74569
0.822824
0.718346
1.50193
1.51573
1.05618
0.764177
1.73058
0.579036
1.49138
1.30137
1.40471
1.10667
1.10041
1.31385
1.34512
1.62135
1.62721
1.7025
1.18707
0.85847
1.30654
1.11192
1.63838
0.947932
1.30585
1.6633
1.14615
1.05799
1.7057
1.40075
1.37694
1.44052
1.03158
1.33244
1.63907
1.31806
1.07946
1.64131
1.25449
1.23671
1.50849
1.51418
1.02815
1.02789
1.30019
1.65393
1.10905
1.7161
1.05028
1.52357
1.47873
1.10252
1.61377
0.964899
1.39034
1.26542
1.01144
1.66788
1.5337
1.48271
1.01697
1.24252
1.21226
0.991078
1.68052
0.994283
1.69745
1.74884
0.964473
0.905215
1.24641
1.0748
1.67232
0.504038
1.73539
0.562654
1.23573
1.52469
1.40228
1.15651
1.24846
1.64957
1.7332
1.00768
1.04727
1.44709
0.971936
1.57386
1.25719
0.886363
1.68154
1.26834
1.60717
1.17806
1.19185
1.66513
1.28074
1.60547
1.09301
1.72644
0.869274
1.49338
0.926108
1.53535
1.15666
1.17762
1.67611
1.16024
1.33547
1.61
1.0672
1.4326
1.56689
1.33594
1.27341
1.55945
1.59208
0.966848
1.41326
0.926431
1.061
1.73002
1.24976
0.903099
1.68828
1.40098
1.59661
0.940798
1.22849
1.24969
0.948516
0.924999
1.68741
1.6782
1.72987
0.539857
0.633706
0.812216
1.73572
0.616203
1.08918
1.29755
1.63916
1.73712
0.958665
0.983211
1.32921
1.30512
0.972158
0.969211
1.64494
1.65846
1.72625
1.03721
0.771677
0.742821
1.73089
0.500346
1.31139
1.44491
1.45015
0.707931
0.598605
1.73377
1.41437
1.0578
1.58301
0.866466
0.982913
1.75303
0.539683
1.72242
0.419672
1.4763
1.4994
1.16114
1.27982
1.39578
1.51417
0.887015
1.75234
0.770191
1.25218
1.39283
1.5278
1.33652
1.43767
1.44045
1.57892
0.921913
1.44566
1.23319
1.45587
1.48912
1.23574
1.42272
1.50901
1.42571
0.946263
1.57928
1.7537
1.75676
0.865615
0.876651
0.973968
0.945793
0.884325
1.04839
1.7337
1.61242
1.39193
0.908845
1.47678
1.52218
1.08161
0.929668
1.35461
1.62877
0.739426
1.72856
0.51761
1.72251
0.829255
1.128
0.803579
1.74746
0.768694
1.71561
0.465446
0.381517
0.384118
1.71569
0.464795
1.24192
1.0428
1.67527
0.942681
1.72939
0.672444
1.05498
1.1042
1.71907
1.02599
1.73053
0.738322
1.28619
1.58957
1.27165
1.06907
1.72735
0.797572
0.935638
1.61556
1.37382
1.28227
0.959702
1.67302
1.70449
0.162306
0.161772
0.565581
1.73411
0.521557
1.30773
1.57266
1.28711
1.00765
0.784791
1.73405
1.73364
0.723186
1.02132
0.978856
1.73806
0.964731
1.7168
0.895506
1.14636
1.45072
0.921736
1.57433
0.936716
1.28355
1.67441
1.72168
1.13349
0.812742
1.36695
1.35118
1.09861
1.075
1.60425
1.62294
1.39616
1.09115
1.58782
1.35357
0.945912
1.64164
1.26096
0.934654
1.68085
1.04173
0.862019
1.74656
1.69715
0.950715
1.20847
0.411375
1.72065
0.535213
1.43539
1.41235
1.53585
1.17732
1.54272
1.20219
1.39038
1.40344
1.59434
0.983845
1.61408
1.00942
0.599765
1.72298
0.410659
1.02044
0.817207
1.73729
1.48855
1.52113
1.0167
1.31399
0.908089
1.65571
1.70954
0.900546
1.17334
0.700368
0.64577
1.73813
0.764663
0.669163
1.74124
1.29214
1.0001
1.66678
1.5315
1.45923
1.12808
0.959202
1.74292
0.922383
1.2386
1.00551
1.68911
1.73008
1.00314
1.09582
1.42457
1.5836
1.0035
1.06823
1.38048
1.60075
1.48601
1.51125
1.10803
1.74745
0.928001
0.91383
1.16463
1.02403
1.70716
1.46237
1.5062
1.18418
1.10027
1.72655
0.779116
1.3743
1.15418
1.58441
1.21912
1.35917
1.57248
1.28678
0.994838
1.6632
0.906697
1.73749
0.65679
0.950301
1.73638
0.669103
1.72899
0.973605
1.11002
1.03185
1.39971
1.59761
1.73377
0.596547
0.855717
1.72518
1.0805
1.02341
1.71324
0.418787
0.281657
0.416818
0.281441
1.71372
1.72729
0.848288
1.12737
1.75071
0.87481
0.81805
1.02667
1.04621
1.73448
0.885697
1.73294
0.926455
0.997015
1.11069
1.72355
1.64777
1.34362
0.89376
1.40008
1.52876
1.24796
0.986726
1.16934
1.71145
1.70364
0.985388
1.19759
1.16954
1.71083
0.814529
1.38599
0.956658
1.61958
1.40016
1.03778
1.59234
1.07563
1.19876
1.6941
1.0481
1.20393
1.69533
1.46625
1.48518
1.21691
1.35389
1.04596
1.6299
1.72674
1.10346
0.779273
0.625607
1.73973
0.806827
0.576147
1.72997
0.804438
1.43598
1.55549
1.10677
0.660755
1.7295
0.563584
1.14669
1.71749
0.983423
1.73095
0.675622
0.503193
1.32222
1.51672
1.35557
1.24045
1.18551
1.64799
1.42152
1.03517
1.58105
1.73171
0.972829
0.71537
1.25165
0.993727
1.68321
1.72917
1.06092
0.781667
1.20477
1.16952
1.67049
1.40071
1.51864
1.26975
0.950291
0.759132
1.74465
1.73585
1.03252
1.04432
0.865741
0.822736
1.73736
1.73863
0.72213
0.68453
1.14053
1.30432
1.63257
1.26257
1.0616
1.65831
1.25799
1.33201
1.57211
0.86685
0.670101
0.886692
1.7431
0.65534
1.73768
1.14802
1.12727
1.70113
0.76471
0.722092
0.91097
0.875189
1.74468
1.73876
1.05211
1.28803
1.66444
1.20455
1.2461
1.63528
0.98465
1.74068
0.728151
1.16475
1.27228
1.63742
1.24297
1.30957
1.58676
0.905623
1.73937
0.701805
1.22302
1.1315
1.66487
1.39823
0.90939
1.60946
1.43931
0.974002
1.57577
1.2344
1.69216
0.849543
1.71093
0.248724
0.248587
1.18073
1.22877
1.65087
0.996499
1.73502
0.806534
1.53338
0.922756
1.49293
0.591403
1.72066
0.403827
1.54274
1.54394
1.42731
1.16277
1.43757
1.13529
1.2503
1.3592
1.55599
1.50093
1.51564
1.47348
1.16141
1.45876
1.17024
1.20158
1.27085
1.62867
1.19191
1.28767
1.6285
1.73412
0.855242
0.587429
1.41263
1.11487
1.56784
0.814523
0.912603
1.74976
1.08159
1.05856
1.16356
1.13899
1.69646
1.70504
1.39842
1.14983
1.56899
1.34087
1.00394
1.63504
1.13077
1.18166
1.68794
1.41855
1.30785
1.47482
1.02219
1.17028
1.70826
1.42052
1.51623
1.23469
1.08797
1.26052
1.6693
1.3257
1.03727
1.63847
1.42007
1.44196
1.27954
1.49512
1.26392
1.48559
1.48351
1.46087
1.50969
1.22204
1.46006
1.1932
1.35757
1.33184
1.12825
1.13633
1.60386
1.61577
1.71868
0.922909
1.14057
1.59316
0.935564
1.41797
1.73318
1.73513
0.906353
0.935637
1.10391
1.08367
1.52965
1.49477
0.983515
1.40343
1.45378
1.35837
1.02758
1.1384
1.7141
1.43108
1.54587
1.1531
1.30586
1.03648
1.65034
1.20071
1.19357
0.931282
1.70751
0.960634
1.70596
1.11703
1.12469
1.70026
0.654175
0.483843
1.7255
1.51546
0.942201
1.50749
1.47144
1.47283
1.54995
0.938972
1.55163
0.961487
0.959203
1.23519
1.68979
1.36088
1.01012
1.62388
1.50863
1.51349
0.984443
1.46398
1.44977
1.54235
1.56557
1.01546
1.02051
1.4587
1.55838
0.980631
1.10891
1.15361
1.69806
1.44209
1.49676
1.23949
0.929554
1.74138
0.791488
1.50199
1.52464
0.962677
1.29861
1.26633
1.05858
1.04541
1.64937
1.67328
1.74033
0.819097
0.968259
0.979111
1.74363
0.75845
0.940455
1.73874
0.750963
1.16073
1.71619
0.955345
1.36792
1.03904
1.61586
1.14717
1.14991
1.49663
1.1577
1.30322
0.745141
1.19365
1.21533
1.0048
1.29343
1.29182
0.957413
1.15448
1.27561
1.02732
1.1319
1.17997
1.04134
1.12226
1.21062
1.07823
1.05313
1.35244
1.72292
1.52608
1.16079
1.31959
0.960578
1.11711
1.13557
0.970063
1.18948
1.0764
1.04593
0.986528
1.07579
1.48116
1.33099
1.20942
1.31196
1.02723
1.70511
1.0086
1.28225
1.45322
0.991112
0.994717
0.988026
0.969066
0.996437
1.56456
1.08116
1.12854
0.983398
0.973522
1.55923
1.20657
1.08306
0.981592
1.26108
0.990172
1.01756
1.53689
1.23656
1.06304
1.21519
1.10356
1.60814
1.33739
1.40818
0.892818
0.940321
1.12991
1.24706
0.927141
1.04574
1.22331
0.977025
1.27747
1.42712
1.05535
1.04587
0.986085
1.0831
0.949536
1.28334
0.951047
1.18644
1.01015
1.54616
1.11212
1.24682
1.51004
1.05232
1.15267
0.614088
1.00006
0.988055
1.15128
0.889689
1.16038
1.36482
1.45954
1.59478
1.10698
1.14756
0.96873
1.12403
1.00184
1.47924
1.38488
1.20865
1.02856
0.932009
1.32367
1.42451
0.989434
1.18688
0.885564
1.03817
1.04154
1.53868
1.575
1.26036
1.13983
1.14724
0.954796
1.61204
1.06449
1.23726
0.879601
1.53946
0.987862
0.961392
1.12225
1.42855
1.02899
0.847951
1.03458
1.21129
1.13024
1.29561
1.33511
1.095
1.44717
0.988922
1.08135
1.45464
1.03726
1.0107
0.963798
1.19747
1.20631
1.40933
1.25249
0.993171
1.24167
1.30291
1.50076
1.21925
1.13102
1.09301
1.38204
1.06374
1.29493
0.976095
1.71501
1.03367
1.45524
1.62701
1.09282
1.62389
1.41953
1.50172
1.04705
0.876465
0.95404
1.50525
1.02626
1.01144
1.0399
1.01595
1.03568
0.997223
1.09861
1.62072
1.25008
1.02749
1.24217
0.991945
1.70367
0.932263
1.43965
1.06128
0.856453
1.59171
1.65616
1.05629
0.992909
1.7089
1.12352
1.17435
1.00703
1.25701
1.46588
1.36997
1.09669
0.981676
1.39324
1.18801
0.964756
1.23268
1.03124
0.979009
1.14053
1.35687
0.894562
1.20232
1.37409
0.942481
0.881028
0.988964
1.12752
1.19824
1.15008
1.16958
1.10422
0.997973
1.10721
1.21768
1.35023
0.973114
1.18672
0.983731
1.02524
1.12618
1.03845
0.863167
1.33575
1.45315
1.09459
1.51955
1.46121
1.71335
1.1425
0.8322
1.03035
0.981561
1.19228
0.901186
1.15119
1.56504
1.22137
1.11799
1.09392
0.984398
1.37619
1.06052
1.32132
1.044
1.04785
1.01463
1.01174
1.07985
1.08202
1.12335
0.965453
1.1825
1.14737
0.97323
1.18923
1.17221
1.02721
0.982831
0.989521
0.951234
0.990464
1.11112
0.916497
0.83174
1.09264
0.948761
0.904727
1.11779
0.970225
0.90727
1.43288
1.19732
1.04928
1.33785
0.981063
1.20042
1.21862
1.01512
1.15338
1.42126
1.01207
1.34658
0.749578
1.08586
1.43272
1.01251
1.12712
0.799198
0.919153
0.865138
0.941093
0.98254
1.2024
1.00295
0.878288
0.977947
1.04942
1.71027
1.12846
1.25434
1.20759
0.969315
1.19319
1.08021
0.959009
1.15521
1.00373
1.57596
1.36125
1.10917
1.02604
1.08307
1.72333
1.38059
1.4912
1.2729
1.05839
1.08259
1.01338
0.973059
0.922935
0.993152
1.18294
1.32247
0.975936
0.929533
1.14414
1.21409
1.14326
1.16897
1.38453
1.18913
1.08802
1.52513
1.44066
1.07168
1.27383
1.46561
0.874962
0.953384
1.04587
1.0062
0.979972
1.44577
0.967512
1.1548
1.49167
0.878279
1.14489
1.07045
1.07981
1.0329
1.01817
0.654932
1.22912
0.93084
0.906951
0.995626
0.978945
1.33617
1.55465
1.14431
1.28718
1.20866
1.08913
0.853731
1.36404
1.32522
0.916903
0.916469
1.20898
0.958448
1.15833
1.12718
1.04238
1.34464
1.50394
1.05629
1.36933
1.63868
1.3981
1.43571
1.49106
1.18571
1.07899
0.983402
1.71902
1.41427
1.45292
0.98344
0.969283
0.870526
1.38399
1.19601
1.12225
1.46441
1.33724
1.07762
1.22463
1.06634
1.14033
1.06315
1.01976
0.980669
1.04661
1.11434
0.925524
1.19417
1.01652
1.34542
1.20072
0.89118
1.48749
1.54349
1.26062
0.987716
1.14501
0.94069
1.30057
1.06403
0.970279
1.46598
0.856385
1.58198
0.905282
1.02135
1.16099
1.26612
1.40885
1.15253
1.64229
1.16571
1.37401
1.01328
1.33148
1.08362
1.14243
1.02432
1.38466
1.20286
1.71057
1.22497
0.922429
1.14489
1.16986
0.897962
0.988676
1.02743
1.02475
1.57285
1.06857
1.04716
1.34095
0.985786
1.57556
1.68317
0.969265
1.7127
1.57266
1.41305
1.45755
1.11135
0.971593
0.993592
1.0283
1.35214
1.11581
0.852753
1.63845
0.987704
0.986739
0.989223
1.50059
1.7064
0.973432
1.39459
1.25568
1.54849
1.22782
1.27318
0.966172
1.63705
1.70381
1.21429
1.00569
1.40216
1.18338
1.23799
1.12216
1.16527
1.23605
1.16363
0.879574
0.989646
1.16412
1.24501
1.23128
1.41676
0.973927
1.20287
1.31328
0.996757
1.52957
1.14325
0.966414
1.4885
1.40959
1.24773
1.66273
1.12645
0.956772
1.28296
1.27516
1.2069
1.01911
1.03379
1.16929
1.21017
1.0398
1.09522
1.19948
0.908009
1.03492
1.55543
1.60579
1.70452
1.20865
1.65591
1.70725
1.59165
0.841967
1.15075
1.19058
1.6538
0.990094
1.14827
0.956799
1.00959
0.821709
1.63254
1.01057
1.03472
1.28461
1.22092
1.02116
0.966012
1.70395
1.58122
1.49813
1.30256
0.919693
1.37312
1.18933
0.987382
1.21027
0.934311
0.978941
1.23388
1.03919
1.11038
1.53316
1.56951
0.857126
1.41769
1.09155
1.11962
1.16595
1.5251
1.06134
1.30419
1.0032
1.50446
0.994947
1.00499
1.68319
0.864147
0.903631
1.11669
1.04693
0.830021
0.544174
1.05298
0.826193
1.05375
0.858677
0.947736
1.05146
0.896981
1.06307
1.12263
0.921957
0.617027
1.56836
1.41138
0.965398
0.955977
1.40537
0.929359
1.15078
1.69183
1.06109
1.68133
1.12811
1.44475
1.19342
1.00233
0.943177
1.24793
1.22588
1.05159
1.01192
0.99055
0.943284
1.04937
1.16942
0.879875
0.928123
1.61879
1.13443
1.23912
1.3142
0.988987
1.33023
1.31851
0.963076
0.559402
1.03046
0.919201
0.83768
1.23325
1.26332
0.97757
1.20143
1.04838
1.68019
1.56352
1.00581
1.03733
1.64979
1.44493
1.14769
1.19864
0.986907
1.69337
1.28198
0.855841
1.51363
1.36722
1.5627
1.17483
0.982929
1.15864
1.2715
1.16571
0.417803
1.70711
1.03575
1.09909
1.07375
1.43203
1.63242
1.68837
1.23532
1.24451
1.3693
1.45937
1.47317
1.22233
1.3478
1.0168
1.12532
1.25632
0.988437
1.01273
0.895261
1.03091
1.31806
0.910699
1.17615
1.16754
1.36843
1.68776
1.0095
0.94737
0.882805
1.30399
0.98785
1.02364
0.876184
1.48856
1.12984
1.1228
0.954717
1.13613
1.01284
1.08628
1.35076
1.31408
1.48925
1.70017
1.06325
1.47812
0.855958
1.50064
1.55154
1.56438
1.33623
1.02857
1.03157
0.976272
0.861336
1.27394
0.875971
1.31864
0.96375
1.46471
0.988884
0.876837
1.42012
1.3821
1.08657
1.05883
1.22449
1.50597
1.09928
1.11817
0.866588
1.37909
1.2214
1.54974
0.833566
1.03229
1.5211
1.25176
1.66663
1.24907
0.99525
0.813211
0.862723
1.05792
0.892191
1.60446
0.879667
1.16813
1.10064
0.967411
1.3851
0.832884
1.47115
1.27621
1.14955
0.882279
1.34547
1.11899
1.19567
1.05115
1.10592
0.948473
0.941613
1.31969
1.04384
1.62404
0.947886
1.19362
1.20951
1.38308
1.58682
0.949121
0.981528
1.07806
1.23814
0.924862
1.59718
1.0113
1.13488
0.980574
1.40307
0.89015
1.17808
0.928802
1.69463
0.855751
1.03666
1.11905
1.44134
0.884665
0.882319
1.01285
0.925541
1.54343
1.15369
1.29402
1.44934
1.25905
1.17209
1.69091
1.24582
1.3927
1.20708
1.27613
0.900642
1.2618
1.01179
1.1771
1.29395
1.08334
0.91753
1.07415
1.15249
0.997795
1.35824
1.25642
1.30843
1.02395
1.53771
1.12379
1.23655
1.24141
0.923544
1.01305
0.978608
1.24081
1.15424
1.17661
1.50895
1.37676
1.36107
1.08351
1.48427
1.62333
1.62082
1.18899
1.26743
1.24988
0.987108
1.64393
1.44884
1.40079
1.03804
1.03696
0.909857
1.24138
1.23304
1.12824
1.39756
1.47319
1.14883
1.13272
1.26587
1.15243
1.14186
1.04266
1.16365
1.12066
0.875059
1.12933
1.24909
1.00174
0.839969
1.17946
1.0663
1.27709
1.03408
1.10528
1.54089
1.55899
1.13317
1.11852
1.36058
1.0686
1.01685
0.986121
1.01428
0.918766
1.49948
1.14274
1.08921
1.28219
1.22922
1.33838
1.0731
1.65717
1.34687
0.980498
1.10547
1.05176
1.36307
1.5412
1.34927
1.18093
0.893951
0.976414
0.999051
1.13897
1.10975
1.14007
0.982403
1.54723
1.25372
1.35929
1.47332
1.13117
1.1092
1.26678
1.64865
0.911137
0.877872
1.26654
1.64361
1.02037
1.01422
1.33963
1.22617
1.418
1.03167
0.8917
1.14192
0.919531
1.02394
1.40035
1.01904
0.994328
1.12467
1.01203
1.18723
1.14053
1.15089
1.48744
0.975936
1.69005
1.42299
0.962655
0.817547
1.18426
1.29701
1.45155
1.03465
0.997114
1.12255
0.96911
1.17388
1.69941
1.51247
1.23867
1.19673
0.916745
1.47299
1.70073
1.5444
1.36004
1.50897
1.24811
0.926843
0.856708
0.879211
1.57765
1.05848
1.0406
1.19533
1.69044
0.994714
1.13612
0.935579
1.032
0.98233
1.534
1.14854
1.37457
1.51606
1.43285
0.976413
1.20009
1.20314
1.37442
0.901356
1.18406
1.02625
1.60191
1.01748
0.988092
0.998907
1.05549
1.53737
0.98196
1.40537
1.44422
1.51313
0.95318
1.18034
0.999143
1.14338
1.57101
1.15905
1.29551
1.14055
0.78496
1.20333
1.48666
1.19708
1.56386
0.866165
1.02381
0.975716
1.61662
1.08185
1.20812
0.952888
1.06151
1.20663
1.48486
1.2315
1.00413
0.940798
1.52063
1.67646
0.801231
1.46161
0.995379
0.958883
1.03791
1.10904
0.899824
1.32705
1.16963
0.996444
1.07791
1.39539
1.06636
1.38791
1.16516
1.01883
1.10944
0.865275
0.896281
1.04973
1.15705
1.29744
0.977999
1.06719
1.47082
1.26865
0.994006
0.995319
1.48987
1.03837
1.17699
1.70522
1.23457
0.991548
1.09852
1.03253
1.63894
1.15277
1.07618
1.15631
0.908425
1.49694
1.01402
1.48371
1.19443
1.29833
0.957336
1.41099
1.04572
0.95547
0.990399
1.20547
1.49728
0.808891
1.11942
0.937051
1.58161
1.62398
1.11416
1.01884
1.32249
1.48288
1.1529
1.53927
1.46325
1.39564
1.31613
1.10804
1.34318
1.28864
1.57955
1.21807
1.20627
1.11648
1.14285
1.23724
1.05847
1.64743
1.03752
1.52118
1.19352
1.62311
0.982762
1.65756
1.29408
1.40987
1.62845
1.5452
1.69932
0.997381
1.4917
1.2374
0.967329
1.11636
0.982269
1.56204
1.0393
1.15475
1.17129
1.03309
1.28077
0.981558
1.50188
1.07429
1.40075
0.845787
1.07291
0.976412
1.50034
1.12178
1.20682
1.14343
0.989089
0.987333
1.07948
0.985823
1.37799
1.59671
0.928047
1.14287
0.987932
0.987606
1.41968
1.13432
1.14909
1.60087
0.886587
1.28703
1.24114
1.55498
1.69287
1.15791
1.07359
0.931242
1.168
1.14865
0.988832
1.39535
1.00331
0.952228
1.00861
1.18705
1.10888
1.15588
0.934626
1.14973
0.942388
1.34517
1.30032
1.18617
1.38694
0.996445
0.899271
1.11368
0.864071
1.66185
1.00919
0.986886
0.985118
1.46431
1.57966
1.09634
1.37518
1.16334
0.972236
1.24847
0.993247
1.11051
1.56991
1.27532
1.33452
1.64848
1.38522
1.26475
1.62838
0.928166
1.10221
1.09457
1.17851
1.1687
1.52195
0.99612
1.15288
1.08558
1.13191
1.04875
1.08215
1.29763
1.42559
1.50652
1.21558
1.17202
1.5436
1.42186
1.01175
1.30404
0.954527
0.969132
1.40053
0.922441
1.45324
0.948938
1.47103
1.62927
1.59179
0.941163
1.42982
1.46411
0.926788
1.53643
1.11581
1.6083
1.36644
0.959424
0.947528
1.31023
0.979114
1.12014
1.16234
1.38503
1.1923
1.62707
1.01541
1.13737
1.13808
1.02715
0.985296
1.43686
1.66817
1.00916
1.40427
1.08925
1.16429
1.14448
1.32681
1.55702
1.38635
0.957984
1.53099
1.42597
1.67976
1.01604
0.911543
1.1519
1.35814
1.62952
1.44287
1.08531
1.66417
1.16871
0.944423
0.946961
0.810873
1.23958
0.967125
1.6598
1.696
1.18164
1.64876
1.40455
1.0948
1.64986
0.952703
1.50958
0.970405
1.57483
1.09588
1.03718
1.36878
1.13549
1.61203
1.53969
1.56058
1.08403
1.08875
0.913172
1.47713
1.38112
1.10739
1.27193
1.38077
0.859368
1.00979
1.05518
0.955395
1.15563
0.947587
1.10071
1.34565
1.11303
1.13648
1.32471
1.05038
1.17209
1.15688
1.10014
1.03579
1.49456
1.55976
1.10955
1.36692
0.844653
1.03264
1.48293
1.32238
0.942631
1.59067
0.976741
1.30926
1.17141
1.22006
1.52234
1.09407
1.35348
1.41047
1.26566
1.7272
1.27149
0.927798
1.19581
1.25392
1.33944
1.69399
1.30947
1.20418
1.11707
1.22227
1.52915
0.968533
1.43682
1.09874
1.31273
1.36685
1.31214
1.05415
1.50776
1.66737
1.16251
1.06452
1.12544
1.0662
0.935681
1.10662
1.40919
0.968624
0.930526
1.12269
0.95391
1.29711
1.19375
1.3521
1.12751
1.55979
1.10186
1.4261
1.58987
0.992253
1.55043
1.1912
1.11259
1.27989
1.48531
1.14924
1.11519
1.27947
1.04892
1.07004
1.01798
0.988164
0.846434
1.65062
1.65451
0.963853
1.15958
1.3342
0.918337
1.13794
1.00559
1.26968
1.36289
0.894807
0.842072
1.5319
1.15777
1.20572
1.15159
0.923228
0.946857
1.26119
1.44136
1.26622
0.897367
1.57179
1.43128
1.03445
1.15758
0.996329
1.59694
1.00973
1.17982
0.966552
1.22032
1.5408
1.16758
1.22359
1.09528
1.21664
1.26132
1.65954
1.64866
1.1442
1.67431
1.10435
1.1182
1.11421
1.01844
1.07123
1.49416
1.16204
1.19407
1.11927
0.879677
1.20857
1.0408
1.30964
1.57297
1.03538
1.06908
1.11869
1.07547
1.10962
0.865696
1.14416
1.455
0.896874
0.918668
1.39587
1.10226
1.11484
1.24419
1.44426
1.07684
1.05748
1.42135
1.07188
1.09625
1.23558
1.48152
1.19516
1.12614
1.15963
0.976428
1.13416
1.66071
1.43922
1.69218
1.11719
1.24475
0.984166
1.09858
1.44507
0.928881
0.917671
1.30889
1.45288
0.911881
1.14036
1.15184
1.06132
1.15179
1.64727
1.1942
1.1433
1.21157
1.11632
1.33037
1.26127
0.964088
1.17233
1.37274
1.19889
1.67496
0.933611
1.00327
1.34213
1.26616
1.01966
1.15132
1.05612
1.689
1.43712
1.34258
1.49288
1.01209
1.45926
1.21322
1.34878
1.62531
0.92124
1.09007
1.68537
1.2196
0.898847
0.922594
1.44223
1.68146
1.08864
1.32383
1.15692
0.950646
1.08705
0.907409
1.44256
1.06003
1.07162
1.59288
0.97923
1.08087
1.12878
1.21616
1.16202
0.934981
1.10245
0.963736
1.22943
1.387
1.61974
1.37852
1.20516
1.06536
0.886059
1.00918
1.19027
1.1531
1.37003
1.39228
1.06271
1.04064
1.41527
1.46804
1.69995
1.5083
1.637
1.17959
0.956411
1.0681
1.01605
1.65972
1.15706
1.09834
1.62247
0.959423
1.37231
1.30391
1.1549
1.1577
1.0939
0.981654
1.46187
0.996085
1.26956
1.09951
1.60602
1.13876
1.72235
1.02305
1.09976
0.915806
0.836141
1.10249
1.34989
1.07994
0.756431
1.12563
1.50265
1.34063
0.991454
0.96681
1.09612
0.945225
1.1599
0.93697
1.0071
1.00672
1.31264
0.961843
1.14707
1.41969
1.25092
1.2644
1.43256
0.999455
1.07171
1.08301
1.42317
0.973923
1.17785
1.1913
0.974014
0.921006
1.13666
1.0887
1.31067
1.6917
1.4827
1.12034
1.26792
0.912847
1.6698
1.27248
1.40595
1.16323
1.33668
0.927034
1.08339
1.4049
1.54976
1.35792
1.13579
0.980177
1.71987
1.19012
1.44451
1.64849
1.24776
1.10345
0.911879
1.42988
1.31418
0.977094
1.21878
1.29089
1.58246
1.06668
1.59115
1.70465
1.01553
1.02632
1.64236
0.980336
0.99091
1.10908
1.01219
1.12701
0.999958
0.943419
1.0876
1.16287
1.09169
1.00274
1.14066
0.89626
1.02278
1.2137
1.06883
0.91138
1.58838
1.59121
1.61957
1.13893
0.89869
1.71671
0.965083
1.10529
1.14368
0.96782
1.15683
1.29774
1.00876
0.96838
0.929809
0.930467
0.967185
0.99201
0.884434
1.05185
1.10466
1.03557
1.61413
1.13462
1.33772
1.20557
1.42551
0.946029
0.997017
1.6045
1.17829
1.30732
0.963966
1.23046
1.66058
0.978692
1.29922
1.30692
0.914235
1.14443
0.973079
1.04115
1.32702
0.997496
1.1118
0.968253
1.02071
1.08893
0.974976
1.12329
0.969529
0.985533
1.55363
1.08865
1.15811
1.13034
1.56245
1.01169
0.936136
1.42597
0.983253
1.04445
1.15557
1.2613
0.929941
1.14173
1.26427
1.68637
1.48112
0.953625
0.989053
0.917242
1.14229
0.897481
1.04629
1.16622
1.03893
1.17427
1.18697
1.68181
1.04559
1.28619
1.19724
1.66269
0.991374
1.67758
1.17616
0.957413
1.23451
1.29303
0.946837
1.47167
1.15618
1.5057
1.00515
0.811605
1.03238
1.69276
1.58852
1.33092
1.23807
1.33775
0.902508
0.91456
1.37814
1.71631
0.842294
1.22007
1.15706
0.943247
1.0346
1.11429
1.00726
1.06507
1.00965
1.15519
0.963142
1.09573
1.72129
1.44559
0.888911
1.34979
1.07227
0.965589
1.4061
0.980684
1.03842
1.34201
0.892391
1.05773
1.07844
1.48104
0.992282
1.035
1.00583
1.17553
1.01856
1.57775
0.901772
0.983591
1.00284
0.991954
1.28368
1.17608
1.57665
1.14993
1.38335
1.11954
1.17413
1.13591
1.31335
0.969044
1.00235
0.856026
1.3177
1.02831
0.99544
1.50649
1.16113
1.24358
1.297
1.05275
1.02228
1.011
1.2783
1.1494
1.66765
0.957013
0.899159
1.1695
0.960737
1.14104
1.13753
1.35103
1.07861
1.04083
0.986263
1.16088
1.04034
1.05836
1.67219
1.52855
1.0056
1.08323
1.40914
1.28663
1.1001
0.976799
1.13533
0.959661
1.1111
1.56596
1.10435
0.90543
1.17952
1.11493
0.905679
0.994508
1.15609
1.2578
1.61432
0.976424
0.934064
1.14246
1.43129
0.981733
1.19174
1.0031
1.15611
0.993433
1.17915
1.0219
1.15448
1.38641
1.0071
0.884983
1.09235
1.12626
1.39412
1.72357
1.15194
0.990331
1.00481
1.00027
0.992472
0.971824
0.962125
1.63058
1.43862
1.26458
1.17627
0.918494
1.37736
1.67651
1.00473
1.08399
0.938467
0.842655
1.06278
0.953593
0.841937
1.03178
1.30702
0.930748
0.908813
1.01218
1.35102
0.919644
1.43132
1.25054
1.10797
0.964547
1.07655
1.39689
0.877839
0.988717
1.02474
0.994033
1.16379
1.38795
1.12792
1.03471
1.34628
0.986651
1.00265
1.52657
1.1489
1.51699
1.15057
0.981642
1.3088
1.49102
1.10881
0.921494
1.57827
1.14246
0.991306
1.46363
1.11802
1.59988
1.08577
1.01513
0.923685
1.01942
1.0338
1.0749
0.965237
0.882594
0.943771
1.02621
0.847484
1.55987
1.02185
1.04146
1.17144
1.1255
1.68366
1.69433
0.923006
1.23561
1.39726
0.906749
1.57053
0.858724
0.970471
1.09892
0.986603
1.43068
0.948086
0.951024
1.12978
0.973414
1.13689
0.893195
1.49608
0.645914
1.53842
1.30881
0.981731
0.92313
0.95149
1.63478
1.38774
1.20761
1.06585
1.16787
0.990871
1.47616
1.35506
1.08339
1.24322
1.57278
1.00965
1.07979
1.34008
0.894683
1.00483
1.41774
0.981463
1.13548
1.60581
1.00431
0.862789
0.978254
1.16817
1.00972
1.56708
1.07434
0.918302
1.02432
1.13952
1.08877
1.53902
1.24414
0.95311
0.933187
0.987719
1.10722
1.19981
1.20213
1.24859
1.06917
1.49812
0.961175
1.37442
1.06968
1.00634
1.15006
1.48503
1.65638
1.38282
1.05135
1.02445
1.35781
1.56934
0.949463
1.57837
0.95397
1.32032
1.18898
1.52265
1.05069
1.4916
1.56023
1.16278
1.1629
1.04752
1.24945
0.946833
1.03032
1.02906
1.3123
1.44309
0.965985
1.59651
1.07134
1.35295
1.07142
1.0374
1.40246
1.3612
0.93999
1.18496
1.02255
1.70029
1.31723
1.7201
0.985908
0.947778
0.990807
1.44452
1.2271
1.42509
1.28031
1.56108
1.00025
1.13671
1.0808
1.01595
1.15585
0.975375
1.38955
1.11056
1.13267
1.57924
0.96972
0.971731
0.867482
1.30815
1.50677
1.13616
1.32138
0.995054
0.917141
1.14883
1.10517
1.10112
1.44816
1.26472
1.06675
1.05072
1.27987
1.54844
1.31904
0.971064
1.49938
1.2535
1.64402
1.0676
1.27476
0.976049
0.928685
1.66122
1.05633
1.30001
1.13369
1.56547
1.24273
1.04507
1.15917
1.72034
1.02616
0.959756
1.33021
1.67454
1.31225
1.20142
0.960173
0.86549
1.09403
1.07404
0.970792
1.10198
1.07319
1.55272
1.68047
1.59172
0.98459
0.975453
1.12131
1.06724
1.28311
0.974651
1.31712
1.61976
0.928549
0.958482
0.977585
1.45588
1.24536
0.972866
1.08275
1.28553
1.1488
0.95691
0.946912
1.72271
0.880132
1.38003
1.33973
1.15144
1.51154
1.1083
1.58427
0.869858
0.949058
1.11477
1.59612
1.07331
1.55281
1.11308
0.880792
1.02794
0.994924
1.05047
0.872714
1.41927
0.959047
1.05268
0.92891
1.03186
1.4454
0.795607
0.986452
1.50719
1.22589
1.46676
0.859594
1.14728
1.14369
0.992382
0.903376
0.955838
1.14566
0.817864
0.966728
0.975603
1.3522
1.2744
1.51658
1.1133
0.981881
0.960715
1.28207
0.810335
0.978463
1.7265
1.24323
1.12761
1.6875
0.963179
1.09821
1.17982
0.904512
0.984822
1.05499
1.29266
1.62114
1.66806
1.68014
1.30366
1.22217
0.984286
0.957222
1.39993
1.36683
1.05891
1.1739
1.12556
1.04385
1.59085
1.0502
1.56337
0.927194
1.34632
0.954448
1.13828
0.908221
1.08489
1.54963
1.17861
0.960784
1.02149
1.70786
0.984294
1.04048
1.05371
1.13957
1.27776
1.26038
1.30736
1.22461
1.37182
0.92842
1.12937
1.0349
1.20276
1.47224
1.50058
0.95912
1.52365
1.5445
1.47676
1.05674
0.956119
1.06483
1.0001
1.60789
1.05637
1.29047
1.51718
1.68301
1.60532
1.47696
1.16572
1.19092
1.14095
0.966033
0.918764
1.09886
1.47636
1.6907
1.63569
1.1868
0.956996
0.997622
1.01826
1.34608
1.65985
1.16207
1.29947
1.34159
1.35354
1.29231
1.14528
1.08143
1.04007
1.02501
1.11555
1.0612
0.989145
1.19704
1.16097
1.53987
1.13627
0.925712
1.54982
1.17412
1.10589
1.07364
1.05098
1.40494
1.27872
1.15418
1.3297
1.67134
1.68603
1.20126
1.24968
1.25507
1.06539
1.00107
0.95853
1.19017
1.09823
1.186
1.2363
1.16011
0.963488
0.74295
1.17664
1.60572
1.14723
1.24869
0.982749
1.49621
1.07126
1.07345
1.38095
1.28196
1.36304
1.27871
0.947966
1.21074
0.972533
1.29108
1.10959
1.45267
0.980918
1.12421
1.13836
0.943283
1.20826
1.69507
0.925238
1.25545
1.17505
1.02237
1.21954
0.965668
1.47549
1.51928
0.980477
1.63711
0.922656
1.5294
1.39119
1.42185
1.10184
1.47248
1.02632
1.2852
1.18475
0.947578
1.10408
1.00362
1.64255
1.24275
0.950351
1.01463
1.13034
0.961558
1.30779
0.956669
1.27358
1.71138
1.17519
1.6608
1.2976
1.29234
0.935956
1.44865
1.0862
1.50695
0.712554
1.00145
1.24492
1.38485
1.06967
1.39
0.999514
1.21433
1.28123
1.24334
1.17431
1.30361
1.3522
1.49827
0.987079
0.988894
0.847617
1.25987
1.37574
1.26929
0.831707
1.18808
1.56042
1.14211
1.1296
1.53276
1.25023
1.36059
1.06557
1.24207
1.05049
1.52335
1.64796
1.23562
1.02968
0.996894
1.11814
1.20977
1.16122
1.46071
1.05107
1.00717
1.08702
0.884741
1.33053
1.55579
1.0122
1.0225
1.06063
1.01491
1.40799
0.996645
1.03421
1.72102
1.25551
1.16284
1.29625
1.46665
1.07212
1.08772
1.00558
1.05524
1.14334
0.934914
0.88457
1.18332
1.00166
1.48753
0.934327
1.28127
1.46757
1.061
1.06514
1.15731
1.17291
0.966869
0.867788
1.10159
1.15218
1.08088
1.46793
1.44273
1.07917
1.57325
1.02641
1.48113
1.30987
0.94545
1.36439
1.0817
1.07775
1.59732
1.62016
1.60688
0.955385
1.40411
0.990288
1.36662
1.40209
1.23239
1.34204
1.12865
1.01373
1.23012
1.54378
0.917589
0.963171
1.22283
1.14261
1.32101
1.00981
1.35862
1.14779
1.5961
1.36306
1.34193
1.45772
1.67765
1.19578
1.15993
1.54106
0.918006
1.54927
1.31373
1.2697
1.19257
1.6297
0.987602
0.989871
1.20807
0.931302
1.11187
1.01421
1.0745
1.58724
0.973337
1.35274
0.968592
1.05924
1.57881
1.27975
0.984725
0.861609
1.58357
0.857568
1.15837
0.905738
1.61244
1.61739
1.20438
1.65379
1.25511
1.09536
1.39852
1.24896
1.03078
1.31166
1.17953
1.1681
1.25145
0.909148
1.0022
1.02775
1.25312
1.0024
0.888865
1.09347
0.98072