/*--------------------------------*- C++ -*----------------------------------*\
  =========                 |
  \\      /  F ield         | OpenFOAM: The Open Source CFD Toolbox
   \\    /   O peration     | Website:  https://openfoam.org
    \\  /    A nd           | Version:  6
     \\/     M anipulation  |
\*---------------------------------------------------------------------------*/
FoamFile
{
    version     2.0;
    format      ascii;
    class       volScalarField;
    location    "0";
    object      P_rec;
}
// * * * * * * * * * * * * * * * * * * * * * * * * * * * * * * * * * * * * * //

dimensions      [0 2 -2 0 0 0 0];

internalField   nonuniform List<scalar> 
13046
(
0.44912
0.4358
0.452398
0.455843
0.453072
0.43595
0.44719
0.436821
0.453889
0.36916
0.185919
0.447205
0.446894
0.409651
0.448621
0.386349
0.445632
0.215596
0.459689
0.449351
0.449201
0.383909
0.446968
0.211251
0.452336
0.450027
0.448723
0.441373
0.409838
0.450028
0.45231
0.423617
0.447451
0.455633
0.454281
0.44591
0.453621
0.455432
0.449576
0.448774
0.446428
0.428462
0.45056
0.46013
0.454413
0.454542
0.451908
0.452399
0.445292
0.431828
0.453259
0.428268
0.444968
0.410421
0.433772
0.406579
0.447284
0.316346
0.421837
0.444418
0.427082
0.387185
0.448687
0.445864
0.279912
0.40083
0.424274
0.326896
0.442022
0.428578
0.33937
0.441153
0.295987
0.417129
0.445323
0.458899
0.4561
0.443515
0.447762
0.409498
0.280593
0.450336
0.445223
0.448365
0.445438
0.258722
0.39222
0.392457
0.446857
0.298078
0.444694
0.374427
0.301455
0.427201
0.422309
0.361751
0.349071
0.44514
0.447194
0.447119
0.392084
0.310016
0.456379
0.454333
0.448513
0.452309
0.41831
0.432986
0.447317
0.442897
0.42311
0.334378
0.448
0.107252
0.448976
0.421449
0.44681
0.421241
0.425678
0.333653
0.444622
0.354417
0.443859
0.362586
0.164299
0.447593
0.438716
0.37712
0.449372
0.447836
0.44648
0.424648
0.444725
0.378655
0.322469
0.414141
0.328689
0.446921
0.450239
0.416784
0.445193
0.439692
0.430504
0.450094
0.445664
0.435531
0.42565
0.452625
0.42986
0.44234
0.427268
0.372496
0.449164
0.456642
0.435844
0.438291
0.413223
0.408475
0.403788
0.407702
0.447209
0.447911
0.440159
0.418411
0.450332
0.36453
0.447093
0.192967
0.346649
0.448072
0.12543
0.411694
0.312692
0.446697
0.445454
0.398999
0.444899
0.440501
0.450313
0.425494
0.447174
0.223846
0.370693
0.445922
0.409754
0.440711
0.455094
0.429238
0.433564
0.443058
0.433261
0.449818
0.401835
0.452444
0.439871
0.39228
0.44702
0.390164
0.446678
0.270599
0.44595
0.389547
0.32508
0.376523
0.288581
0.445864
0.425948
0.395667
0.440304
0.444286
0.411273
0.445355
0.281593
0.267122
0.376778
0.445986
0.451467
0.455689
0.448626
0.443272
0.41646
0.447869
0.445889
0.384007
0.330711
0.442155
0.407121
0.453647
0.447559
0.156717
0.346833
0.441316
0.396985
0.419387
0.383473
0.306053
0.446414
0.418224
0.41091
0.450274
0.435384
0.380399
0.450571
0.366531
0.388068
0.443144
0.402245
0.394954
0.44556
0.447715
0.154261
0.339303
0.448656
0.444242
0.412404
0.342081
0.447718
0.0782821
0.456339
0.453828
0.446066
0.426623
0.424274
0.408454
0.414871
0.451341
0.448722
0.443856
0.405042
0.263213
0.438582
0.392089
0.445863
0.400224
0.378074
0.445635
0.415621
0.329223
0.445535
0.452351
0.449268
0.459254
0.414897
0.402315
0.448475
0.438891
0.381693
0.445978
0.441541
0.440137
0.448357
0.439491
0.401262
0.414645
0.390242
0.448209
0.408457
0.44532
0.317651
0.452291
0.439777
0.418495
0.446001
0.399083
0.408241
0.425297
0.345222
0.442513
0.444799
0.431698
0.404317
0.419877
0.419446
0.331552
0.442935
0.32433
0.445043
0.44668
0.234856
0.375439
0.428209
0.365955
0.445143
0.0510748
0.447322
0.314788
0.450023
0.453578
0.434218
0.432607
0.396681
0.448779
0.447022
0.396044
0.289018
0.429188
0.400415
0.446176
0.350573
0.387203
0.443863
0.423308
0.450282
0.42818
0.389054
0.44877
0.416951
0.452851
0.394289
0.445227
0.235791
0.432599
0.384358
0.440503
0.423962
0.379344
0.446777
0.434119
0.422901
0.452223
0.419237
0.427164
0.449196
0.451281
0.431855
0.452248
0.44332
0.403254
0.415252
0.382968
0.275432
0.446778
0.351843
0.387169
0.445971
0.430043
0.439715
0.362371
0.41404
0.417475
0.318411
0.301248
0.441594
0.442893
0.447985
0.0616893
0.323702
0.348404
0.447816
0.0908955
0.425853
0.402897
0.447613
0.446773
0.387566
0.251935
0.427604
0.426795
0.353335
0.342671
0.445327
0.44303
0.44574
0.239472
0.357514
0.337118
0.44836
0.059128
0.446183
0.457858
0.453332
0.334993
0.0855852
0.44845
0.443476
0.396257
0.441379
0.37325
0.235074
0.446849
0.0614097
0.449373
0.29342
0.450338
0.445126
0.434599
0.449673
0.45268
0.453368
0.363507
0.447793
0.156832
0.445796
0.445982
0.452567
0.448308
0.457227
0.455246
0.443636
0.389056
0.42065
0.442596
0.453641
0.454693
0.45125
0.435063
0.453694
0.432772
0.371284
0.438661
0.446273
0.447495
0.211874
0.210011
0.379474
0.377823
0.373659
0.263917
0.44652
0.44525
0.429218
0.346171
0.445612
0.439661
0.417732
0.397885
0.393165
0.442216
0.119485
0.44766
0.307838
0.445042
0.372582
0.285516
0.351875
0.447728
0.147308
0.44958
0.0430069
0.291917
0.0163488
0.448406
0.304216
0.375699
0.414841
0.447097
0.192058
0.446538
0.335929
0.407673
0.324677
0.447373
0.378595
0.445718
0.168877
0.447554
0.449462
0.433788
0.256983
0.445483
0.364584
0.397502
0.441664
0.400346
0.370213
0.400721
0.446666
0.449719
-0.0349767
0.270017
0.0709263
0.448384
0.307465
0.450994
0.452919
0.434449
0.228105
0.354924
0.446742
0.445998
0.346472
0.227098
0.385165
0.445931
0.248259
0.444201
0.265156
0.401607
0.43603
0.368575
0.440751
0.32431
0.422322
0.446111
0.446127
0.397145
0.226468
0.442191
0.440094
0.399371
0.388638
0.444908
0.446944
0.443639
0.404241
0.444156
0.430956
0.349239
0.446663
0.360576
0.39391
0.446163
0.258575
0.375902
0.446336
0.446223
0.396503
0.342515
0.0207317
0.447692
0.312796
0.453131
0.452441
0.449532
0.428269
0.452612
0.432084
0.437414
0.43522
0.443785
0.369349
0.443345
0.388049
0.0748818
0.447465
0.293528
0.235598
0.36019
0.446999
0.441814
0.433663
0.40151
0.377864
0.391373
0.443866
0.443976
0.27556
0.40534
0.112727
0.327356
0.448245
0.134479
0.331767
0.447785
0.428789
0.350676
0.446115
0.453215
0.435492
0.425114
0.381966
0.446294
0.228184
0.366826
0.406468
0.447979
0.446947
0.294208
0.406382
0.436994
0.444958
0.391717
0.421503
0.417499
0.448876
0.448925
0.443745
0.422545
0.446624
0.220027
0.375116
0.415746
0.322148
0.444871
0.452974
0.447207
0.433881
0.390293
0.445625
0.203763
0.445245
0.41975
0.448987
0.442509
0.430745
0.454069
0.379616
0.408147
0.447296
0.361308
0.447692
0.120784
0.366745
0.44747
0.129672
0.44638
0.286932
0.406243
0.416836
0.423696
0.447074
0.447759
0.0948395
0.351591
0.446887
0.30658
0.402643
0.448468
0.0289827
0.282051
0.297764
-0.00105874
0.44888
0.446271
0.238985
0.39872
0.447302
0.184258
0.357725
0.388565
0.393249
0.445214
0.228158
0.445561
0.249938
0.397877
0.313391
0.447159
0.445099
0.387028
0.386824
0.456203
0.449378
0.434024
0.401798
0.332903
0.44745
0.447165
0.404295
0.344432
0.401477
0.445794
0.23875
0.435479
0.357768
0.443939
0.439491
0.387709
0.439305
0.415246
0.366054
0.44856
0.41285
0.361449
0.448523
0.454276
0.44234
0.439914
0.439484
0.380652
0.449566
0.444886
0.265058
0.360043
0.324576
0.447375
0.14005
0.316867
0.448091
0.138976
0.446766
0.446428
0.415634
0.096016
0.448505
0.314567
0.411445
0.445631
0.300297
0.447977
0.102786
0.305174
0.455054
0.454027
0.44088
0.438203
0.398797
0.449229
0.424969
0.414895
0.44702
0.446427
0.204209
0.343981
0.366265
0.407704
0.447429
0.445559
0.385544
0.19412
0.431448
0.388485
0.449777
0.45679
0.451537
0.436818
0.204935
0.351753
0.446511
0.446787
0.291919
0.401696
0.357946
0.351123
0.447161
0.447477
0.133175
0.116724
0.431557
0.413319
0.451802
0.385382
0.418537
0.446755
0.442162
0.434149
0.454682
0.165912
0.333125
0.172469
0.447036
0.33326
0.446563
0.423495
0.356762
0.449112
0.351313
0.342142
0.191027
0.172999
0.44726
0.44767
0.416129
0.394494
0.450104
0.436568
0.410045
0.449738
0.373845
0.446982
0.15874
0.437071
0.40388
0.451124
0.444104
0.42461
0.451719
0.362346
0.446899
0.13776
0.432889
0.372877
0.445556
0.409485
0.388934
0.442255
0.437732
0.380929
0.442662
0.336079
0.443266
0.377323
0.449137
-0.0151528
0.279113
0.431772
0.398775
0.448805
0.37887
0.446072
0.189178
0.437377
0.375832
0.438241
0.315575
0.448808
0.0326857
0.453106
0.450709
0.436189
0.432348
0.438853
0.433344
0.446342
0.43394
0.454534
0.450881
0.453826
0.441763
0.437538
0.448975
0.433931
0.43447
0.414109
0.453497
0.439182
0.416425
0.453539
0.446783
0.154043
0.319566
0.445635
0.413484
0.442444
0.35947
0.199934
0.447177
0.414102
0.41018
0.35385
0.338088
0.447304
0.446626
0.445281
0.425559
0.445669
0.431344
0.365244
0.442868
0.423677
0.371894
0.449625
0.455809
0.446041
0.449248
0.408019
0.342503
0.44773
0.453734
0.44527
0.438493
0.422695
0.391088
0.450336
0.43163
0.374866
0.442023
0.454187
0.454236
0.442951
0.453321
0.44447
0.450633
0.45391
0.439678
0.455854
0.44368
0.454577
0.437772
0.443924
0.442497
0.406011
0.403358
0.447053
0.443858
0.443909
0.273308
0.405339
0.441836
0.396059
0.415615
0.446229
0.44606
0.256621
0.264017
0.399808
0.398811
0.443234
0.436461
0.398805
0.456087
0.453532
0.450227
0.407161
0.330178
0.447494
0.451325
0.446088
0.421148
0.430365
0.368195
0.442879
0.414106
0.415191
0.294998
0.44554
0.304352
0.444804
0.417477
0.348014
0.447098
0.323538
0.051555
0.44879
0.433559
0.385751
0.43899
0.4364
0.438991
0.438207
0.378503
0.442968
0.386033
0.399899
0.354491
0.446523
0.43268
0.375916
0.444867
0.442853
0.433431
0.393045
0.43896
0.442861
0.438741
0.446785
0.401265
0.39622
0.438
0.444404
0.390132
0.418735
0.356376
0.448249
0.45421
0.446054
0.442199
0.368483
0.446618
0.168147
0.441612
0.436262
0.385649
0.43347
0.430027
0.36967
0.359494
0.441387
0.445749
0.446096
0.189395
0.376592
0.375344
0.446945
0.169721
0.368441
0.446782
0.156073
0.411193
0.445036
0.293395
0.435974
0.386235
0.445272
0.25368
0.368241
0.450024
0.257985
0.442111
0.123273
0.415763
0.289211
0.266269
0.436303
0.434182
0.254439
0.263135
0.437397
0.379669
0.277218
0.266744
0.363128
0.372246
0.421178
0.394289
0.352681
0.438378
0.447107
0.457226
0.371195
0.44965
0.264883
0.403608
0.253445
0.274834
0.413287
0.388856
0.388654
0.297035
0.400993
0.451113
0.438724
0.28218
0.341994
0.34218
0.446919
0.310065
0.43519
0.412235
0.362522
0.36813
0.332984
0.257579
0.314055
0.452257
0.395296
0.280149
0.361961
0.271298
0.449826
0.423178
0.392297
0.331756
0.431839
0.312309
0.314734
0.456691
0.300298
0.395876
0.424048
0.400187
0.445607
0.439066
0.400233
0.258312
0.280447
0.321205
0.428327
0.272039
0.387439
0.350487
0.293448
0.42164
0.445347
0.359019
0.391131
0.257954
0.278671
0.36361
0.427875
0.363983
0.265311
0.379327
0.451547
0.284734
0.434489
0.457738
0.389777
0.269001
0.0837189
0.295084
0.336887
0.268347
0.25581
0.412091
0.439798
0.417316
0.44334
0.276305
0.252404
0.258891
0.292799
0.29742
0.450134
0.440872
0.420377
0.278626
0.284715
0.348536
0.409422
0.373938
0.266842
0.246296
0.358321
0.38702
0.4433
0.435902
0.429141
0.382862
0.321802
0.258874
0.452458
0.220807
0.427264
0.254435
0.446005
0.259162
0.195213
0.242374
0.444314
0.382791
0.228198
0.298516
0.415191
0.271621
0.429381
0.36397
0.300579
0.421551
0.359883
0.27316
0.447588
0.302137
0.374143
0.254895
0.37806
0.281891
0.450207
0.432814
0.367296
0.429036
0.428985
0.448699
0.354281
0.316543
0.296813
0.410231
0.220077
0.332912
0.262555
0.44825
0.361632
0.434975
0.453438
0.396393
0.45323
0.452293
0.449478
0.265088
0.249228
0.257094
0.44858
0.272899
0.259536
0.212609
0.260864
0.367219
0.355216
0.397742
0.454698
0.431441
0.343273
0.432193
0.346702
0.447019
0.178653
0.415071
0.311089
0.246782
0.449113
0.450855
0.305811
0.335449
0.448904
0.40514
0.266958
0.29737
0.427784
0.45121
0.380218
0.282072
0.333148
0.417118
0.371063
0.312743
0.323559
0.212015
0.282003
0.324821
0.38145
0.249557
0.280676
0.439326
0.361876
0.249678
0.369044
0.284091
0.295878
0.414069
0.41792
0.271518
0.260044
0.236898
0.422277
0.364936
0.367586
0.417425
0.364659
0.274133
0.407736
0.340561
0.237369
0.359227
0.446797
0.400685
0.435651
0.451714
0.446426
0.273671
0.227477
0.376142
0.369449
0.291902
0.254911
0.405946
0.450213
0.42934
0.40606
0.275461
0.370676
0.378251
0.395218
0.389354
0.302186
0.373432
0.343948
0.203247
0.278464
0.306117
0.281742
0.297683
0.418243
0.380662
0.372629
0.422408
0.271252
0.370408
0.318995
0.369212
0.355388
0.344085
0.404598
0.248597
0.219182
0.366961
0.252424
0.241523
0.40514
0.187019
0.242496
0.446858
0.41927
0.291232
0.363151
0.277071
0.411737
0.322356
0.208685
0.275313
0.417299
0.382189
0.414956
0.121813
0.265931
0.448253
0.339834
0.245796
0.2108
0.250221
0.247617
0.24851
0.359083
0.421066
0.281083
0.240913
0.305715
0.324876
0.447476
0.245227
0.426979
0.392248
0.193763
0.313656
0.277498
0.27073
0.414681
0.359028
0.44866
0.377802
0.267747
0.348607
0.396757
0.447756
0.386894
0.450472
0.430784
0.336505
0.401666
0.372288
0.300586
0.25158
0.336876
0.274994
0.393071
0.32786
0.26702
0.276233
0.29066
0.272422
0.268272
0.444712
0.2939
0.307708
0.436868
0.426404
0.2798
0.320993
0.452075
0.336649
0.181036
0.344815
0.282621
0.262668
0.449075
0.314959
0.333375
0.430639
0.255703
0.386944
0.292219
0.399798
0.350201
0.320993
0.0936104
0.29999
0.267179
0.34868
0.362505
0.364972
0.410268
0.453664
0.269216
0.338813
0.286427
0.23234
0.23672
0.441334
0.368579
0.350805
0.274132
0.386581
0.253503
0.260637
0.269846
0.282933
0.372202
0.457169
0.331772
0.391462
0.448442
0.440051
0.418632
0.454174
0.270634
0.316078
0.263418
0.446797
0.419814
0.43765
0.329529
0.358315
0.249189
0.398089
0.300955
0.240087
0.433696
0.377818
0.226829
0.296859
0.289708
0.276323
0.295026
0.350875
0.370833
0.26215
0.316209
0.253483
0.314923
0.274521
0.368989
0.295079
0.25122
0.449717
0.450339
0.430504
0.348437
0.391984
0.181512
0.433719
0.395465
0.248505
0.450392
0.156196
0.44927
0.269737
0.370624
0.348243
0.428454
0.401843
0.269447
0.449056
0.270861
0.446773
0.37257
0.352891
0.317079
0.254413
0.322737
0.448479
0.334528
0.448136
0.423189
0.249502
0.249142
0.417921
0.166119
0.350679
0.370775
0.268137
0.454925
0.223431
0.212886
0.432803
0.33562
0.448852
0.449661
0.363158
0.446677
0.452915
0.443591
0.441133
0.40771
0.257883
0.310639
0.35609
0.442647
0.333761
0.152685
0.448841
0.28653
0.372823
0.305772
0.451552
0.449026
0.301057
0.441515
0.380713
0.454727
0.297575
0.433834
0.366042
0.451196
0.446602
0.423197
0.305612
0.413532
0.288856
0.309985
0.37763
0.336102
0.387911
0.26179
0.159665
0.263587
0.345286
0.398295
0.364419
0.452749
0.304721
0.296622
0.384319
0.263453
0.451103
0.256906
0.365847
0.429433
0.447713
0.371048
0.450082
0.266643
0.361617
0.435305
0.328131
0.294198
0.369476
0.3217
0.418284
0.428962
0.320777
0.282473
0.380687
0.255148
0.262618
0.449385
0.448617
0.446466
0.286126
0.44748
0.448472
0.45417
0.239321
0.407658
0.396143
0.447979
0.354929
0.263198
0.260415
0.303483
0.139472
0.448949
0.379946
0.381276
0.434953
0.422661
0.33987
0.365319
0.4476
0.452474
0.447792
0.403714
0.352902
0.388075
0.415097
0.354449
0.336632
0.287187
0.310341
0.353966
0.38267
0.307652
0.443192
0.451604
0.237791
0.445115
0.291614
0.277871
0.311573
0.444235
0.353526
0.405767
0.378751
0.448242
0.357917
0.379804
0.448232
0.250706
0.253522
0.27056
0.26686
0.222485
0.0675239
0.275674
0.231071
0.385228
0.235042
0.29011
0.380389
0.344458
0.274055
0.310876
0.28273
0.084245
0.451668
0.398469
0.367351
0.258097
0.396138
0.355695
0.261826
0.448759
0.279563
0.449984
0.33835
0.446211
0.283054
0.198673
0.286018
0.35758
0.36523
0.386777
0.200939
0.363202
0.298138
0.268443
0.26943
0.258538
0.284117
0.450956
0.253095
0.425419
0.434733
0.357817
0.372834
0.436418
0.257971
0.0725083
0.368998
0.253984
0.225728
0.430534
0.43044
0.36592
0.409161
0.333157
0.450573
0.453395
0.37311
0.327696
0.450693
0.450806
0.413154
0.402147
0.35707
0.448469
0.331189
0.236468
0.450056
0.441801
0.453747
0.379071
0.316219
0.310931
0.431013
0.415061
0.035965
0.446979
0.36614
0.273718
0.390699
0.406574
0.442914
0.448239
0.402234
0.329374
0.430964
0.448927
0.424114
0.428659
0.444293
0.205978
0.27943
0.372033
0.262025
0.202919
0.249522
0.365302
0.437523
0.25981
0.36847
0.264035
0.383224
0.447931
0.378359
0.267316
0.243323
0.35944
0.339192
0.29446
0.250866
0.424102
0.400172
0.409621
0.248406
0.408082
0.297413
0.289013
0.410569
0.435847
0.430022
0.445674
0.272167
0.442402
0.239447
0.453956
0.450976
0.452643
0.43699
0.267022
0.266104
0.368393
0.232167
0.326271
0.256564
0.346611
0.251181
0.418354
0.357932
0.238668
0.44577
0.380877
0.360578
0.372614
0.424631
0.437719
0.406049
0.371813
0.239524
0.441829
0.305519
0.444061
0.226206
0.385813
0.449732
0.431988
0.450007
0.435461
0.362707
0.213604
0.244051
0.373279
0.26205
0.454455
0.228551
0.265921
0.355751
0.315577
0.386245
0.231538
0.417865
0.430851
0.407521
0.161045
0.365315
0.241658
0.281339
0.374022
0.35492
0.361309
0.350425
0.439378
0.267018
0.449157
0.359164
0.288235
0.420514
0.382607
0.441128
0.361652
0.369754
0.269425
0.328477
0.353129
0.450086
0.301036
0.372961
0.358114
0.436392
0.34175
0.376367
0.279463
0.448394
0.231775
0.263294
0.251381
0.427965
0.240476
0.253692
0.264905
0.268568
0.452168
0.362663
0.411901
0.445847
0.405802
0.293087
0.446868
0.306314
0.390454
0.413668
0.346794
0.247038
0.363489
0.380131
0.277448
0.350685
0.227792
0.251084
0.396854
0.262982
0.282118
0.439509
0.317122
0.352418
0.375411
0.445208
0.348322
0.297819
0.407688
0.266677
0.293741
0.358946
0.359204
0.395265
0.412817
0.456557
0.378257
0.439842
0.397867
0.441113
0.447825
0.449081
0.303733
0.336446
0.381664
0.254582
0.446234
0.448206
0.440013
0.388696
0.26585
0.245516
0.384497
0.434162
0.265176
0.438687
0.43517
0.416801
0.278797
0.317971
0.289412
0.249939
0.388854
0.271938
0.409574
0.252625
0.410659
0.311272
0.374744
0.230292
0.388704
0.393117
0.413509
0.340655
0.406937
0.451419
0.454439
0.408518
0.343413
0.440458
0.398209
0.296071
0.304197
0.36765
0.263703
0.454569
0.358326
0.401783
0.430819
0.429766
0.359563
0.223753
0.450488
0.375035
0.316786
0.372039
0.392673
0.440095
0.447469
0.374875
0.403608
0.23826
0.292311
0.375314
0.415475
0.379385
0.407662
0.332148
0.455796
0.39019
0.377561
0.447852
0.396737
0.273599
0.346831
0.452875
0.346357
0.238252
0.343872
0.454533
0.333037
0.3686
0.437949
0.434403
0.441047
0.387399
0.243826
0.413866
0.279778
0.33765
0.445796
0.383241
0.257529
0.264804
0.332981
0.415244
0.307728
0.281398
0.440283
0.323662
0.446333
0.437693
0.253642
0.221763
0.349899
0.427735
0.450496
0.384973
0.37563
0.243905
0.369994
0.336622
0.447327
0.448284
0.438116
0.291105
0.242954
0.420787
0.447819
0.451661
0.441034
0.438656
0.348573
0.28377
0.229244
0.239213
0.439215
0.392646
0.217438
0.307058
0.446059
0.35493
0.278366
0.251724
0.387706
0.300319
0.437601
0.413661
0.408254
0.448035
0.444039
0.369323
0.418708
0.359797
0.379198
0.341791
0.410151
0.316831
0.448658
0.204884
0.347473
0.211766
0.347815
0.45092
0.365047
0.443682
0.448661
0.448023
0.285746
0.362766
0.375273
0.253198
0.451196
0.382074
0.344582
0.411977
0.133081
0.308943
0.424282
0.421909
0.45503
0.234813
0.267355
0.362261
0.44895
0.232855
0.330981
0.303398
0.218533
0.2867
0.426089
0.296106
0.377914
0.253401
0.43569
0.450266
0.134478
0.419526
0.352288
0.286417
0.266299
0.380269
0.266566
0.377606
0.30265
0.345059
0.346765
0.401095
0.380241
0.445522
0.326568
0.259832
0.33693
0.233893
0.251688
0.374749
0.26475
0.354664
0.289182
0.366527
0.433896
0.38813
0.345978
0.193851
0.424816
0.385715
0.342286
0.447177
0.373813
0.34272
0.246773
0.214867
0.448894
0.291434
0.369246
0.418805
0.27233
0.430284
0.203371
0.436829
0.355553
0.438087
0.305173
0.395749
0.370298
0.2602
0.302704
0.351983
0.456127
0.221793
0.275647
0.356496
0.454653
0.442535
0.238361
0.325644
0.373563
0.427711
0.338292
0.452711
0.446803
0.440744
0.434466
0.406277
0.361156
0.342305
0.451715
0.330296
0.366785
0.24027
0.276706
0.319865
0.265533
0.446857
0.211145
0.441745
0.328756
0.447974
0.337548
0.448261
0.436736
0.403252
0.449655
0.450366
0.446527
0.367832
0.448171
0.340435
0.363844
0.278511
0.289205
0.455021
0.212831
0.411493
0.417792
0.368926
0.388302
0.327662
0.433867
0.394152
0.420809
0.231906
0.281123
0.367124
0.438334
0.24287
0.42424
0.282592
0.364636
0.257803
0.35197
0.359693
0.441695
0.452593
0.251437
0.408918
0.360547
0.341446
0.446161
0.249997
0.273
0.452236
0.236711
0.352657
0.434429
0.446695
0.449182
0.280828
0.293666
0.26389
0.308699
0.255135
0.358854
0.386501
0.345766
0.269528
0.376373
0.36134
0.311377
0.256953
0.356257
0.371794
0.26573
0.439742
0.437275
0.275383
0.427398
0.197903
0.267623
0.23751
0.24931
0.449117
0.352741
0.355595
0.328533
0.42914
0.449858
0.402138
0.421648
0.261858
0.32083
0.349018
0.355331
0.275108
0.453168
0.371674
0.35744
0.44665
0.437811
0.315034
0.447829
0.246628
0.404542
0.40187
0.415403
0.270505
0.434902
0.346898
0.413739
0.374654
0.303936
0.269018
0.297251
0.436248
0.446969
0.44786
0.361504
0.386909
0.445614
0.402231
0.381712
0.3445
0.280745
0.370701
0.442597
0.251844
0.450575
0.362058
0.455289
0.445539
0.451663
0.356236
0.406978
0.447628
0.176105
0.442141
0.243762
0.451282
0.443517
0.366396
0.301153
0.356592
0.372128
0.259456
0.258823
0.389055
0.276376
0.448535
0.267804
0.29032
0.251698
0.261739
0.356605
0.441874
0.449618
0.265326
0.393142
0.389166
0.413061
0.343773
0.367567
0.450323
0.443783
0.361999
0.449189
0.444284
0.452009
0.26468
0.347806
0.265626
0.428301
0.445662
0.446957
0.367289
0.448057
0.358012
0.247182
0.299513
0.219968
0.324761
0.264421
0.453274
0.446249
0.38495
0.450378
0.443158
0.398873
0.449228
0.279013
0.43226
0.368814
0.451815
0.329735
0.265897
0.422415
0.398252
0.450865
0.453429
0.453099
0.266991
0.263872
0.23772
0.431948
0.443542
0.237293
0.336731
0.444909
0.239021
0.327918
0.273202
0.363179
0.411728
0.361864
0.401086
0.369695
0.388245
0.394063
0.435689
0.338661
0.32042
0.412254
0.393901
0.346678
0.448961
0.459357
0.237599
0.443036
0.235004
0.314872
0.455333
0.443079
0.355951
0.45073
0.267542
0.435635
0.325972
0.30664
0.448433
0.33291
0.435527
0.405621
0.420653
0.447151
0.424662
0.266242
0.419165
0.309402
0.439636
0.447024
0.408569
0.348327
0.273444
0.306782
0.448461
0.277279
0.409151
0.267328
0.363879
0.439908
0.436769
0.393496
0.439736
0.448846
0.317281
0.335678
0.39529
0.268647
0.277124
0.402636
0.407841
0.314622
0.263518
0.241826
0.250838
0.434383
0.349275
0.440795
0.287749
0.450513
0.389631
0.450358
0.447581
0.316691
0.45007
0.301518
0.400386
0.336408
0.430408
0.270664
0.345831
0.342113
0.266627
0.339566
0.269909
0.255993
0.234795
0.453727
0.455557
0.316372
0.279099
0.437692
0.247374
0.243591
0.353217
0.430436
0.422537
0.244568
0.234442
0.45428
0.274539
0.404488
0.274634
0.259555
0.300247
0.321279
0.450434
0.39127
0.263832
0.449493
0.450933
0.290447
0.411082
0.349238
0.452936
0.359068
0.335581
0.258968
0.425789
0.455563
0.417999
0.313059
0.285978
0.338137
0.393267
0.448192
0.444158
0.270203
0.448498
0.291055
0.406534
0.408059
0.379925
0.323933
0.435202
0.267363
0.387453
0.263753
0.339279
0.2846
0.267662
0.412741
0.452533
0.290173
0.309315
0.401746
0.327698
0.240754
0.228217
0.306451
0.416216
0.166646
0.352369
0.400627
0.404814
0.361208
0.419292
0.435627
0.221521
0.223715
0.448198
0.363703
0.231572
0.345335
0.42757
0.426921
0.406699
0.266535
0.329346
0.268054
0.449148
0.446692
0.451266
0.355958
0.430548
0.267909
0.38407
0.45146
0.250385
0.266591
0.43628
0.44686
0.250874
0.293975
0.258679
0.219118
0.259368
0.445261
0.326795
0.289078
0.311063
0.273222
0.428622
0.324026
0.268651
0.285068
0.436061
0.341089
0.448509
0.273477
0.331126
0.387127
0.395894
0.380268
0.415093
0.264354
0.448872
0.419737
0.39044
0.436174
0.303882
0.448279
0.422104
0.365296
0.449025
0.246369
0.316449
0.448241
0.423061
0.247955
0.351405
0.41144
0.447434
0.384963
0.439467
0.263688
0.261377
0.26806
0.236132
0.451313
0.302594
0.396693
0.453129
0.317772
0.224588
0.27911
0.373642
0.278227
0.356667
0.279587
0.28261
0.334275
0.442361
0.451059
0.403703
0.285113
0.321946
0.240001
0.334342
0.420559
0.410385
0.37667
0.41
0.323615
0.38627
0.440373
0.446842
0.447904
0.451996
0.448297
0.350901
0.273618
0.275696
0.262967
0.447993
0.387314
0.295056
0.449144
0.27852
0.447102
0.431827
0.294329
0.268814
0.315349
0.331661
0.446174
0.36929
0.431039
0.376892
0.452562
0.410591
0.44827
0.288111
0.378851
0.348686
0.231076
0.323859
0.43656
0.225205
0.12528
0.405975
0.426999
0.440466
0.325573
0.260725
0.269592
0.286619
0.271042
0.29312
0.380998
0.274385
0.436972
0.314064
0.28145
0.411553
0.334165
0.342014
0.444718
0.3745
0.395521
0.263729
0.406477
0.367252
0.286902
0.334762
0.29352
0.273651
0.282147
0.236475
0.442907
0.447533
0.449227
0.409339
0.434547
0.256922
0.447363
0.380262
0.396127
0.26121
0.426173
0.353765
0.333752
0.442852
0.447979
0.435733
0.408971
0.367779
0.448354
0.304375
0.42337
0.449744
0.427386
0.346024
0.251442
0.432638
0.349854
0.2838
0.423349
0.359375
0.453914
0.296059
0.4521
0.448241
0.37593
0.288027
0.45192
0.258973
0.284749
0.327192
0.274409
0.311015
0.285215
0.272506
0.378127
0.277417
0.26847
0.34173
0.411058
0.344491
0.305109
0.419515
0.397424
0.268909
0.448248
0.445351
0.445127
0.276697
0.26659
0.448081
0.255083
0.36481
0.247921
0.362365
0.256475
0.437097
0.345511
0.357388
0.261602
0.247506
0.288703
0.354243
0.259947
0.391289
0.405669
0.385916
0.449561
0.394189
0.399848
0.317407
0.448512
0.359292
0.356464
0.445388
0.307958
0.341142
0.265368
0.430349
0.444741
0.369074
0.388541
0.349055
0.349013
0.26797
0.317897
0.262726
0.436871
0.287424
0.351561
0.356507
0.375997
0.272576
0.318378
0.361109
0.36811
0.343558
0.44047
0.372293
0.330817
0.406354
0.444704
0.353616
0.248525
0.422587
0.259504
0.356609
0.263035
0.323548
0.354681
0.26588
0.315458
0.450796
0.447383
0.248759
0.340251
0.253224
0.253739
0.24606
0.265198
0.303351
0.280224
0.307952
0.421192
0.449568
0.338132
0.434379
0.367136
0.44896
0.351026
0.449884
0.417794
0.277749
0.408349
0.439141
0.362907
0.42747
0.262616
0.449196
0.324759
0.135046
0.386302
0.447032
0.455812
0.436246
0.414295
0.41641
0.271497
0.351032
0.400485
0.448684
0.148243
0.345366
0.260633
0.359168
0.37418
0.265903
0.261002
0.305113
0.275713
0.28578
0.365361
0.359687
0.448758
0.443984
0.248863
0.445897
0.268693
0.316561
0.441803
0.333191
0.357173
0.404164
0.164158
0.290137
0.385555
0.447255
0.272014
0.305194
0.363058
0.420985
0.261609
0.452787
0.259733
0.358657
0.36523
0.323018
0.405286
0.423236
0.44589
0.2641
0.42617
0.403728
0.417227
0.273455
0.397032
0.302229
0.256687
0.244785
0.357825
0.384749
0.36732
0.439333
0.3623
0.318088
0.39976
0.285149
0.277619
0.34903
0.383056
0.277897
0.451843
0.269224
0.261777
0.309618
0.360238
0.281318
0.248939
0.421364
0.334459
0.389183
0.273489
0.262828
0.385846
0.213535
0.442923
0.434929
0.270884
0.273565
0.45375
0.331819
0.275294
0.255668
0.259268
0.288335
0.403236
0.450161
0.275519
0.267799
0.421779
0.365999
0.259541
0.27257
0.355189
0.434288
0.446046
0.268695
0.245032
0.410798
0.452638
0.372089
0.390479
0.360962
0.265512
0.358294
0.419851
0.382745
0.270843
0.441564
0.362067
0.232868
0.402498
0.287934
0.444547
0.447497
0.279987
0.352822
0.349742
0.349113
0.263198
0.364911
0.287182
0.4491
0.435739
0.432191
0.3027
0.268897
0.437617
0.44936
0.3098
0.400496
0.356782
0.236072
0.393336
0.363018
0.236985
0.231386
0.347742
0.28905
0.260626
0.272217
0.38505
0.281461
0.42922
0.307779
0.28515
0.365241
0.270549
0.444292
0.244588
0.360609
0.369275
0.258032
0.395528
0.389548
0.410884
0.384746
0.437569
0.275791
0.27114
0.451833
0.267251
0.448573
0.41089
0.370386
0.353068
0.448739
0.367452
0.24871
0.455986
0.263225
0.376175
0.449021
0.265999
0.4565
0.28338
0.361726
0.174733
0.360646
0.265387
0.384113
0.295258
0.235832
0.293892
0.259981
0.239756
0.452233
0.261112
0.350951
0.399288
0.370446
0.448285
0.448797
0.354141
0.301495
0.447208
0.348398
0.450385
0.247089
0.365431
0.399071
0.31842
0.445654
0.357452
0.362462
0.299633
0.324881
0.250074
0.233959
0.45012
0.0891859
0.437562
0.426755
0.290054
0.254765
0.299463
0.443423
0.402337
0.421899
0.373127
0.396139
0.377224
0.45172
0.439962
0.270811
0.402348
0.439018
0.379329
0.398559
0.381438
0.250798
0.266667
0.39986
0.365146
0.349278
0.45553
0.261893
0.249721
0.332434
0.340273
0.378881
0.440468
0.288069
0.274657
0.301836
0.345721
0.288157
0.4486
0.303263
0.302772
0.355724
0.315169
0.269956
0.283223
0.412965
0.310577
0.268318
0.447538
0.364384
0.390426
0.268958
0.261141
0.320259
0.446812
0.450052
0.388892
0.38922
0.38147
0.447362
0.441725
0.272998
0.450843
0.29289
0.405123
0.416983
0.450123
0.388517
0.446799
0.44047
0.273227
0.259032
0.350387
0.340645
0.297051
0.215817
0.208775
0.435026
0.444694
0.261764
0.452482
0.385779
0.438626
0.370263
0.273011
0.447468
0.440796
0.359526
0.277566
0.268084
0.448893
0.427753
0.447697
0.255619
0.296034
0.378379
0.44763
0.414557
0.411774
0.355531
0.440619
0.322568
0.338006
0.398344
0.3294
0.41121
0.191246
0.443698
0.368184
0.392489
0.451611
0.252329
0.262882
0.252356
0.340836
0.450406
0.296907
0.399555
0.196069
0.270864
0.349887
0.294746
0.278236
0.41415
0.315295
0.281957
0.359424
0.379133
0.445427
0.346505
0.370491
0.449387
0.344813
0.448078
0.393137
0.429858
0.369931
0.275979
0.443894
0.268586
0.334909
0.406591
0.449733
0.428699
0.380494
0.262877
0.448928
0.367634
0.305369
0.436344
0.44826
0.431232
0.422846
0.254287
0.235992
0.398418
0.270268
0.369429
0.389947
0.267312
0.449832
0.447846
0.449206
0.341668
0.36332
0.273781
0.330793
0.418439
0.274408
0.414227
0.448711
0.283818
0.360129
0.328003
0.421274
0.416808
0.36373
0.269881
0.433887
0.259097
0.185563
0.29174
0.447055
0.238968
0.442617
0.358834
0.259902
0.425692
0.402838
0.444202
0.157884
0.362966
0.396307
0.449714
0.331469
0.453958
0.402996
0.238302
0.38297
0.33009
0.343285
0.233589
0.428053
0.360537
0.278215
0.246305
0.385376
0.413814
0.215172
0.345488
0.448759
0.304924
0.448196
0.241363
0.254787
0.267998
0.37478
0.346309
0.255576
0.258222
0.217511
0.36862
0.368203
0.439731
0.359045
0.449122
0.266216
0.36329
0.256867
0.328474
0.220624
0.367949
0.447825
0.319598
0.306976
0.449691
0.308205
0.408185
0.420471
0.271443
0.341728
0.380158
0.369164
0.451275
0.447464
0.447875
0.373754
0.311266
0.370157
0.296184
0.456074
0.38712
0.298139
0.265527
0.303073
0.378273
0.443659
0.358439
0.443736
0.35491
0.362669
0.299823
0.267284
0.274203
0.302216
0.450135
0.289502
0.265874
0.270282
0.445523
0.344989
0.276715
0.267635
0.264092
0.43331
0.358288
0.344307
0.30939
0.377355