/*--------------------------------*- C++ -*----------------------------------*\
  =========                 |
  \\      /  F ield         | OpenFOAM: The Open Source CFD Toolbox
   \\    /   O peration     | Website:  https://openfoam.org
    \\  /    A nd           | Version:  6
     \\/     M anipulation  |
\*---------------------------------------------------------------------------*/
FoamFile
{
    version     2.0;
    format      ascii;
    class       volVectorField;
    location    "0";
    object      Usup;
}
// * * * * * * * * * * * * * * * * * * * * * * * * * * * * * * * * * * * * * //

dimensions      [0 1 -1 0 0 0 0];

internalField   nonuniform List<vector> 
9000
(
(-0.193147 -0.195198 0)
(-0.315467 -0.111296 0)
(-0.206897 -0.0546206 0)
(-0.149673 -0.0277838 0)
(-0.118772 -0.0148237 0)
(-0.100408 -0.00835089 0)
(-0.0891225 -0.00490035 0)
(-0.0820295 -0.00292571 0)
(-0.0775451 -0.00172876 0)
(-0.0747584 -0.000975592 0)
(-0.0731061 -0.000492216 0)
(-0.0722198 -0.000181486 0)
(-0.07185 1.59218e-05 0)
(-0.0718233 0.000137719 0)
(-0.0720181 0.000208901 0)
(-0.0723484 0.000247142 0)
(-0.0727539 0.000263656 0)
(-0.0731931 0.00026773 0)
(-0.0736372 0.000265771 0)
(-0.0740674 0.000260255 0)
(-0.0744722 0.000254668 0)
(-0.0748445 0.000251231 0)
(-0.0751808 0.00025041 0)
(-0.0754802 0.000254611 0)
(-0.075743 0.000262706 0)
(-0.075971 0.000276113 0)
(-0.076166 0.000294892 0)
(-0.0763308 0.000319191 0)
(-0.076468 0.00034948 0)
(-0.0765803 0.000385969 0)
(-0.0766711 0.000428808 0)
(-0.0767438 0.000478533 0)
(-0.0768022 0.000535849 0)
(-0.0768498 0.000601735 0)
(-0.0768917 0.000676682 0)
(-0.076934 0.000761094 0)
(-0.0769845 0.000857164 0)
(-0.0770531 0.000965655 0)
(-0.0771536 0.00108874 0)
(-0.0773044 0.00122984 0)
(-0.0775325 0.00139195 0)
(-0.0778776 0.00158222 0)
(-0.078401 0.00181251 0)
(-0.0792044 0.00210695 0)
(-0.0804687 0.00252128 0)
(-0.0825589 0.00319828 0)
(-0.0862267 0.00454527 0)
(-0.0928371 0.00773718 0)
(-0.110409 0.0164429 0)
(-0.162489 0.0528188 0)
(-0.267469 -0.401959 0)
(-0.506402 -0.281153 0)
(-0.436894 -0.16044 0)
(-0.364783 -0.092137 0)
(-0.31162 -0.0544381 0)
(-0.274604 -0.0333447 0)
(-0.249576 -0.0210283 0)
(-0.232919 -0.0134696 0)
(-0.222032 -0.00863417 0)
(-0.215143 -0.00545139 0)
(-0.211036 -0.00332045 0)
(-0.208858 -0.00188643 0)
(-0.208006 -0.000925199 0)
(-0.208047 -0.000288323 0)
(-0.208672 0.000124572 0)
(-0.209656 0.000384915 0)
(-0.21084 0.000540823 0)
(-0.212113 0.000629297 0)
(-0.213398 0.000676204 0)
(-0.214643 0.000698285 0)
(-0.215817 0.000708169 0)
(-0.216899 0.000715157 0)
(-0.217879 0.000725531 0)
(-0.218756 0.000744818 0)
(-0.219529 0.000774769 0)
(-0.220202 0.000817522 0)
(-0.220783 0.000875039 0)
(-0.221278 0.000948942 0)
(-0.221696 0.00104104 0)
(-0.222044 0.00115174 0)
(-0.222333 0.00128244 0)
(-0.222573 0.00143508 0)
(-0.222776 0.001613 0)
(-0.222953 0.00181793 0)
(-0.223123 0.00205374 0)
(-0.223303 0.00232365 0)
(-0.223519 0.00263425 0)
(-0.223805 0.00299141 0)
(-0.224206 0.00340544 0)
(-0.224783 0.00388992 0)
(-0.225626 0.00446479 0)
(-0.226866 0.00516356 0)
(-0.228705 0.00604382 0)
(-0.231468 0.00721403 0)
(-0.235704 0.00889992 0)
(-0.242402 0.0116106 0)
(-0.253401 0.0165952 0)
(-0.272194 0.0269452 0)
(-0.309214 0.0504776 0)
(-0.378379 0.116274 0)
(-0.246589 -0.377624 0)
(-0.523345 -0.361705 0)
(-0.53936 -0.252348 0)
(-0.501205 -0.166323 0)
(-0.455402 -0.108794 0)
(-0.416764 -0.0718973 0)
(-0.387808 -0.0481165 0)
(-0.367352 -0.0324547 0)
(-0.353537 -0.0219065 0)
(-0.344683 -0.0146788 0)
(-0.33945 -0.00967145 0)
(-0.33681 -0.00618795 0)
(-0.335987 -0.00376837 0)
(-0.336403 -0.00209936 0)
(-0.337633 -0.000960159 0)
(-0.339362 -0.000195273 0)
(-0.341365 0.000308074 0)
(-0.34348 0.000632101 0)
(-0.345595 0.00083509 0)
(-0.347637 0.000961057 0)
(-0.349557 0.00104033 0)
(-0.351326 0.00109523 0)
(-0.352929 0.00114217 0)
(-0.354364 0.00119216 0)
(-0.355634 0.00125428 0)
(-0.356744 0.00133318 0)
(-0.357705 0.00143386 0)
(-0.35853 0.00156029 0)
(-0.35923 0.00171657 0)
(-0.359823 0.00190477 0)
(-0.360323 0.00212875 0)
(-0.360746 0.00239291 0)
(-0.361115 0.00270334 0)
(-0.36145 0.00306463 0)
(-0.361779 0.0034862 0)
(-0.362136 0.00397653 0)
(-0.362565 0.00454944 0)
(-0.363123 0.00522255 0)
(-0.363886 0.00602085 0)
(-0.364961 0.00697835 0)
(-0.366499 0.00814922 0)
(-0.368717 0.00961781 0)
(-0.371944 0.0115257 0)
(-0.376688 0.0141284 0)
(-0.383761 0.0179082 0)
(-0.394505 0.0238396 0)
(-0.411145 0.0339817 0)
(-0.437221 0.0527189 0)
(-0.479448 0.0894441 0)
(-0.540364 0.167028 0)
(-0.209568 -0.310339 0)
(-0.486249 -0.386229 0)
(-0.568655 -0.318137 0)
(-0.575828 -0.234131 0)
(-0.553585 -0.165805 0)
(-0.526032 -0.116182 0)
(-0.501889 -0.0812956 0)
(-0.483411 -0.0568612 0)
(-0.470449 -0.0396556 0)
(-0.462109 -0.0274614 0)
(-0.45738 -0.0187822 0)
(-0.455348 -0.0125989 0)
(-0.455255 -0.0082046 0)
(-0.4565 -0.00510093 0)
(-0.458623 -0.00292743 0)
(-0.461274 -0.00142455 0)
(-0.464198 -0.000398377 0)
(-0.46721 0.000290933 0)
(-0.47018 0.000746574 0)
(-0.473023 0.00104577 0)
(-0.475682 0.00124455 0)
(-0.478126 0.00138339 0)
(-0.48034 0.00149134 0)
(-0.482321 0.00158982 0)
(-0.484075 0.0016947 0)
(-0.485613 0.00181777 0)
(-0.486949 0.00196771 0)
(-0.488101 0.00215124 0)
(-0.489086 0.00237579 0)
(-0.489927 0.00264633 0)
(-0.490644 0.00297067 0)
(-0.491263 0.00335638 0)
(-0.491812 0.00381252 0)
(-0.492322 0.00435032 0)
(-0.492832 0.00498436 0)
(-0.49339 0.00573215 0)
(-0.494057 0.00661796 0)
(-0.494912 0.00767599 0)
(-0.496062 0.00895157 0)
(-0.49765 0.010511 0)
(-0.49988 0.0124524 0)
(-0.503037 0.0149305 0)
(-0.507535 0.0181948 0)
(-0.51399 0.0226729 0)
(-0.52332 0.0291198 0)
(-0.536895 0.038924 0)
(-0.556691 0.054687 0)
(-0.585148 0.0812249 0)
(-0.624864 0.12694 0)
(-0.672318 0.205765 0)
(-0.174648 -0.25512 0)
(-0.435054 -0.38131 0)
(-0.559592 -0.354815 0)
(-0.60798 -0.284878 0)
(-0.614897 -0.215307 0)
(-0.605706 -0.158452 0)
(-0.592659 -0.115122 0)
(-0.580933 -0.0829763 0)
(-0.572263 -0.0593695 0)
(-0.566855 -0.042101 0)
(-0.56431 -0.0295017 0)
(-0.564043 -0.0203385 0)
(-0.56547 -0.0137067 0)
(-0.568078 -0.00893915 0)
(-0.571449 -0.00554275 0)
(-0.575255 -0.00314886 0)
(-0.579245 -0.00148073 0)
(-0.583241 -0.000333974 0)
(-0.587115 0.000445446 0)
(-0.590781 0.000972137 0)
(-0.594187 0.00132973 0)
(-0.597304 0.00158112 0)
(-0.60012 0.00177164 0)
(-0.602638 0.00193376 0)
(-0.604868 0.00209302 0)
(-0.606824 0.00226807 0)
(-0.608529 0.00247343 0)
(-0.610003 0.00271991 0)
(-0.611271 0.00301825 0)
(-0.612361 0.00337814 0)
(-0.6133 0.00381114 0)
(-0.61412 0.00432859 0)
(-0.614857 0.00494483 0)
(-0.615551 0.00567847 0)
(-0.616252 0.00655058 0)
(-0.617019 0.00759132 0)
(-0.617929 0.00883791 0)
(-0.61908 0.0103432 0)
(-0.620602 0.012179 0)
(-0.62267 0.0144482 0)
(-0.625519 0.0173009 0)
(-0.629476 0.0209686 0)
(-0.634995 0.0258122 0)
(-0.64271 0.0324159 0)
(-0.653499 0.0417536 0)
(-0.668526 0.0554669 0)
(-0.689182 0.0763172 0)
(-0.716585 0.108761 0)
(-0.750462 0.159118 0)
(-0.78507 0.234458 0)
(-0.14568 -0.212547 0)
(-0.384425 -0.361482 0)
(-0.532664 -0.368307 0)
(-0.613494 -0.317083 0)
(-0.648876 -0.253046 0)
(-0.66086 -0.19426 0)
(-0.662576 -0.145877 0)
(-0.660976 -0.107963 0)
(-0.659334 -0.0789737 0)
(-0.658947 -0.0571117 0)
(-0.660127 -0.0407777 0)
(-0.662739 -0.0286668 0)
(-0.666478 -0.0197567 0)
(-0.671004 -0.0132568 0)
(-0.676006 -0.00856022 0)
(-0.681223 -0.00520213 0)
(-0.686451 -0.00282817 0)
(-0.691538 -0.00116917 0)
(-0.696379 -2.19376e-05 0)
(-0.700904 0.000767018 0)
(-0.705072 0.00131142 0)
(-0.708865 0.00169637 0)
(-0.712281 0.00198549 0)
(-0.715328 0.00222384 0)
(-0.718023 0.00244764 0)
(-0.72039 0.00268275 0)
(-0.722455 0.00294936 0)
(-0.724246 0.00326455 0)
(-0.725793 0.0036429 0)
(-0.727129 0.00409893 0)
(-0.728289 0.00464866 0)
(-0.729311 0.00530845 0)
(-0.730236 0.00609877 0)
(-0.731115 0.00704628 0)
(-0.732004 0.00818092 0)
(-0.732975 0.00954505 0)
(-0.734115 0.0111931 0)
(-0.735537 0.0131977 0)
(-0.737388 0.0156596 0)
(-0.739858 0.0187199 0)
(-0.743201 0.0225836 0)
(-0.747752 0.0275523 0)
(-0.753958 0.0340833 0)
(-0.762403 0.0428822 0)
(-0.773821 0.0550508 0)
(-0.789047 0.0723069 0)
(-0.808818 0.0972549 0)
(-0.833149 0.133566 0)
(-0.860177 0.185439 0)
(-0.883966 0.255578 0)
(-0.122984 -0.178843 0)
(-0.339924 -0.334662 0)
(-0.499416 -0.365539 0)
(-0.603652 -0.332989 0)
(-0.663811 -0.278164 0)
(-0.696822 -0.221491 0)
(-0.714805 -0.171259 0)
(-0.72532 -0.129787 0)
(-0.732615 -0.0968286 0)
(-0.738864 -0.0712344 0)
(-0.745051 -0.0516689 0)
(-0.75152 -0.0368935 0)
(-0.758296 -0.0258552 0)
(-0.765266 -0.017695 0)
(-0.772272 -0.0117261 0)
(-0.779159 -0.00740721 0)
(-0.785797 -0.00431757 0)
(-0.79209 -0.00213198 0)
(-0.797969 -0.000600606 0)
(-0.803392 0.000466151 0)
(-0.808343 0.00121168 0)
(-0.812819 0.00174275 0)
(-0.816832 0.00214039 0)
(-0.820401 0.00246463 0)
(-0.823555 0.00276031 0)
(-0.826323 0.00306136 0)
(-0.828739 0.00339509 0)
(-0.830838 0.0037845 0)
(-0.832657 0.00424844 0)
(-0.834235 0.00480691 0)
(-0.83561 0.00548071 0)
(-0.836828 0.00629229 0)
(-0.837936 0.00726877 0)
(-0.838991 0.00844476 0)
(-0.840058 0.00986165 0)
(-0.841214 0.0115742 0)
(-0.842555 0.0136539 0)
(-0.844204 0.016196 0)
(-0.846314 0.0193289 0)
(-0.84908 0.0232315 0)
(-0.852754 0.0281571 0)
(-0.857656 0.034467 0)
(-0.864187 0.0426885 0)
(-0.872831 0.0535997 0)
(-0.884124 0.0683407 0)
(-0.898547 0.0885586 0)
(-0.916262 0.11651 0)
(-0.936526 0.154962 0)
(-0.956802 0.206372 0)
(-0.971844 0.270909 0)
(-0.10567 -0.151792 0)
(-0.302901 -0.305237 0)
(-0.46589 -0.351954 0)
(-0.585919 -0.3357 0)
(-0.66622 -0.291417 0)
(-0.718433 -0.239496 0)
(-0.752638 -0.190031 0)
(-0.776088 -0.147107 0)
(-0.793428 -0.11172 0)
(-0.807413 -0.0834583 0)
(-0.819566 -0.0613753 0)
(-0.830671 -0.0444041 0)
(-0.841091 -0.0315407 0)
(-0.850961 -0.0219123 0)
(-0.860303 -0.0147912 0)
(-0.869096 -0.0095846 0)
(-0.877309 -0.00582262 0)
(-0.884914 -0.00313425 0)
(-0.891898 -0.00123027 0)
(-0.898261 0.000110737 0)
(-0.904014 0.001057 0)
(-0.90918 0.00173747 0)
(-0.913787 0.0022477 0)
(-0.917872 0.00266163 0)
(-0.921474 0.00303338 0)
(-0.924633 0.00340467 0)
(-0.927389 0.00381034 0)
(-0.929787 0.00427784 0)
(-0.931869 0.00483203 0)
(-0.933677 0.00549858 0)
(-0.93526 0.00630268 0)
(-0.936665 0.00727293 0)
(-0.937945 0.00844458 0)
(-0.939162 0.00986041 0)
(-0.940385 0.0115732 0)
(-0.941698 0.0136511 0)
(-0.9432 0.0161817 0)
(-0.945015 0.0192823 0)
(-0.947297 0.0231076 0)
(-0.950234 0.0278698 0)
(-0.954061 0.0338598 0)
(-0.95906 0.0414839 0)
(-0.965562 0.0513106 0)
(-0.973924 0.0641386 0)
(-0.984473 0.0810725 0)
(-0.997367 0.103589 0)
(-1.01233 0.133519 0)
(-1.02819 0.172782 0)
(-1.04228 0.222546 0)
(-1.05031 0.281635 0)
(-0.0925818 -0.129738 0)
(-0.272909 -0.275476 0)
(-0.43494 -0.331433 0)
(-0.564974 -0.328224 0)
(-0.66091 -0.294294 0)
(-0.729747 -0.248551 0)
(-0.779147 -0.201761 0)
(-0.815466 -0.159186 0)
(-0.843274 -0.122847 0)
(-0.865598 -0.0930451 0)
(-0.884336 -0.06927 0)
(-0.900631 -0.0506914 0)
(-0.915152 -0.0364164 0)
(-0.928279 -0.0256064 0)
(-0.940227 -0.0175283 0)
(-0.951122 -0.0115677 0)
(-0.961045 -0.00722211 0)
(-0.970055 -0.00408884 0)
(-0.978201 -0.00185001 0)
(-0.985535 -0.000258016 0)
(-0.992106 0.000876181 0)
(-0.997964 0.00169864 0)
(-1.00316 0.00231888 0)
(-1.00775 0.00282142 0)
(-1.01179 0.00327035 0)
(-1.01533 0.00371454 0)
(-1.01841 0.00419397 0)
(-1.0211 0.00474231 0)
(-1.02343 0.00539046 0)
(-1.02546 0.00616775 0)
(-1.02724 0.007106 0)
(-1.02881 0.00823989 0)
(-1.03025 0.0096125 0)
(-1.03161 0.0112751 0)
(-1.03296 0.0132909 0)
(-1.03439 0.0157412 0)
(-1.03601 0.0187292 0)
(-1.03792 0.0223918 0)
(-1.04028 0.0269066 0)
(-1.04325 0.0325121 0)
(-1.04705 0.0395269 0)
(-1.0519 0.0483816 0)
(-1.05806 0.0596591 0)
(-1.06574 0.0741361 0)
(-1.07507 0.0928273 0)
(-1.08596 0.116986 0)
(-1.09784 0.148011 0)
(-1.10933 0.187111 0)
(-1.11796 0.234569 0)
(-1.12035 0.288581 0)
(-0.0826908 -0.11137 0)
(-0.248923 -0.246449 0)
(-0.407683 -0.306629 0)
(-0.543599 -0.313134 0)
(-0.651268 -0.288502 0)
(-0.733977 -0.249446 0)
(-0.797009 -0.206574 0)
(-0.845525 -0.165764 0)
(-0.883682 -0.129777 0)
(-0.91452 -0.0995216 0)
(-0.940139 -0.0749085 0)
(-0.961943 -0.0553714 0)
(-0.980856 -0.0401661 0)
(-0.997483 -0.0285257 0)
(-1.01223 -0.0197447 0)
(-1.02537 -0.0132099 0)
(-1.0371 -0.00840684 0)
(-1.04758 -0.00491648 0)
(-1.05693 -0.00240208 0)
(-1.06525 -0.000599233 0)
(-1.07265 0.000697157 0)
(-1.0792 0.00164503 0)
(-1.08498 0.00236604 0)
(-1.09006 0.0029522 0)
(-1.09453 0.0034754 0)
(-1.09842 0.00399185 0)
(-1.10182 0.0045457 0)
(-1.10478 0.00517655 0)
(-1.10735 0.00591967 0)
(-1.10958 0.00680904 0)
(-1.11154 0.00788289 0)
(-1.11327 0.00918237 0)
(-1.11484 0.0107572 0)
(-1.11632 0.0126668 0)
(-1.11777 0.0149851 0)
(-1.11928 0.017805 0)
(-1.12095 0.0212446 0)
(-1.12288 0.0254559 0)
(-1.12522 0.0306345 0)
(-1.1281 0.0370378 0)
(-1.1317 0.0450001 0)
(-1.13619 0.0549604 0)
(-1.14173 0.0674877 0)
(-1.14841 0.0833075 0)
(-1.15621 0.10331 0)
(-1.16483 0.128511 0)
(-1.17352 0.159911 0)
(-1.1809 0.198166 0)
(-1.18479 0.242989 0)
(-1.18259 0.292358 0)
(-0.0751862 -0.0957129 0)
(-0.229855 -0.218587 0)
(-0.384347 -0.279295 0)
(-0.523347 -0.292481 0)
(-0.639591 -0.275689 0)
(-0.733572 -0.243207 0)
(-0.808456 -0.204943 0)
(-0.868121 -0.16693 0)
(-0.916113 -0.132376 0)
(-0.955287 -0.102648 0)
(-0.987797 -0.0780204 0)
(-1.01521 -0.0581855 0)
(-1.03864 -0.0425619 0)
(-1.05889 -0.0304807 0)
(-1.07653 -0.0212874 0)
(-1.09199 -0.0143919 0)
(-1.10559 -0.00928634 0)
(-1.11757 -0.00554907 0)
(-1.12814 -0.00283624 0)
(-1.13746 -0.0008764 0)
(-1.14568 0.000545548 0)
(-1.1529 0.00159502 0)
(-1.15925 0.00240087 0)
(-1.16482 0.00306131 0)
(-1.16968 0.00365304 0)
(-1.17393 0.00423826 0)
(-1.17762 0.00486485 0)
(-1.18083 0.00557694 0)
(-1.18362 0.00641427 0)
(-1.18604 0.00741578 0)
(-1.18816 0.00862417 0)
(-1.19003 0.0100873 0)
(-1.19171 0.0118611 0)
(-1.19328 0.0140125 0)
(-1.19479 0.0166259 0)
(-1.19634 0.019803 0)
(-1.198 0.0236747 0)
(-1.19989 0.0284046 0)
(-1.20211 0.0342016 0)
(-1.20478 0.0413331 0)
(-1.20803 0.050138 0)
(-1.21197 0.0610478 0)
(-1.21667 0.0745989 0)
(-1.22214 0.0914436 0)
(-1.2282 0.112333 0)
(-1.23443 0.138054 0)
(-1.24002 0.169267 0)
(-1.24363 0.206217 0)
(-1.24344 0.248276 0)
(-1.23748 0.293426 0)
(-0.0694603 -0.0820615 0)
(-0.214737 -0.191994 0)
(-0.364737 -0.250558 0)
(-0.50501 -0.267831 0)
(-0.627379 -0.257308 0)
(-0.730337 -0.230907 0)
(-0.815278 -0.197526 0)
(-0.884851 -0.163005 0)
(-0.941897 -0.130734 0)
(-0.988961 -0.102376 0)
(-1.02813 -0.0784902 0)
(-1.06105 -0.0589933 0)
(-1.08897 -0.0434652 0)
(-1.11284 -0.0313463 0)
(-1.13339 -0.0220501 0)
(-1.15119 -0.015027 0)
(-1.16665 -0.00979141 0)
(-1.18013 -0.00593269 0)
(-1.19191 -0.00311256 0)
(-1.20221 -0.00105972 0)
(-1.21123 0.000443211 0)
(-1.21912 0.00156391 0)
(-1.22601 0.00243376 0)
(-1.23203 0.00315475 0)
(-1.23728 0.00380693 0)
(-1.24185 0.00445476 0)
(-1.24582 0.00515061 0)
(-1.24927 0.00594093 0)
(-1.25225 0.00686973 0)
(-1.25484 0.00798047 0)
(-1.2571 0.00931969 0)
(-1.25909 0.010941 0)
(-1.26086 0.0129062 0)
(-1.26248 0.0152891 0)
(-1.26403 0.0181815 0)
(-1.26556 0.0216947 0)
(-1.26717 0.0259671 0)
(-1.26893 0.0311714 0)
(-1.27095 0.0375248 0)
(-1.2733 0.0452961 0)
(-1.27607 0.0548187 0)
(-1.27932 0.0665034 0)
(-1.28304 0.0808423 0)
(-1.28714 0.0984022 0)
(-1.29137 0.119794 0)
(-1.29522 0.145595 0)
(-1.29786 0.176193 0)
(-1.29809 0.211543 0)
(-1.2944 0.250829 0)
(-1.28532 0.29215 0)
(-0.0650696 -0.0699035 0)
(-0.202775 -0.166613 0)
(-0.348489 -0.221117 0)
(-0.488924 -0.240345 0)
(-0.615582 -0.234581 0)
(-0.725573 -0.213571 0)
(-0.818878 -0.185062 0)
(-0.897046 -0.154455 0)
(-0.962204 -0.125104 0)
(-1.01652 -0.098814 0)
(-1.06193 -0.0763343 0)
(-1.10008 -0.0577608 0)
(-1.13232 -0.0428194 0)
(-1.1597 -0.0310592 0)
(-1.18308 -0.0219724 0)
(-1.20315 -0.0150614 0)
(-1.22043 -0.00987739 0)
(-1.23537 -0.00603183 0)
(-1.24833 -0.00320295 0)
(-1.25957 -0.00112697 0)
(-1.26935 0.000406458 0)
(-1.27787 0.00156327 0)
(-1.28528 0.00247352 0)
(-1.29173 0.00323881 0)
(-1.29734 0.00393999 0)
(-1.30221 0.0046425 0)
(-1.30643 0.00540199 0)
(-1.31009 0.00626584 0)
(-1.31325 0.00728162 0)
(-1.31599 0.00849589 0)
(-1.31837 0.00995876 0)
(-1.32044 0.011729 0)
(-1.32228 0.0138732 0)
(-1.32393 0.0164715 0)
(-1.32547 0.0196207 0)
(-1.32695 0.0234399 0)
(-1.32845 0.028073 0)
(-1.33003 0.0336969 0)
(-1.33176 0.0405305 0)
(-1.33371 0.0488386 0)
(-1.3359 0.0589422 0)
(-1.33834 0.0712209 0)
(-1.34098 0.0861137 0)
(-1.34365 0.104099 0)
(-1.34602 0.125655 0)
(-1.34756 0.151178 0)
(-1.34749 0.180846 0)
(-1.34472 0.214414 0)
(-1.33805 0.250984 0)
(-1.32636 0.288822 0)
(-0.0616937 -0.058863 0)
(-0.193343 -0.142312 0)
(-0.335203 -0.191394 0)
(-0.475174 -0.21087 0)
(-0.604774 -0.208507 0)
(-0.720196 -0.192131 0)
(-0.820333 -0.168302 0)
(-0.905792 -0.141826 0)
(-0.978033 -0.11585 0)
(-1.03882 -0.0921833 0)
(-1.08991 -0.071675 0)
(-1.13289 -0.0545459 0)
(-1.16914 -0.040642 0)
(-1.19981 -0.0296154 0)
(-1.22586 -0.0210386 0)
(-1.24808 -0.0144761 0)
(-1.26708 -0.0095243 0)
(-1.28341 -0.00582884 0)
(-1.29746 -0.00309177 0)
(-1.3096 -0.00106603 0)
(-1.3201 0.000445581 0)
(-1.32919 0.00160145 0)
(-1.33708 0.00252616 0)
(-1.34393 0.00331789 0)
(-1.34986 0.00405506 0)
(-1.355 0.00480303 0)
(-1.35945 0.0056176 0)
(-1.3633 0.00654888 0)
(-1.36662 0.00764473 0)
(-1.36949 0.00895419 0)
(-1.37196 0.0105315 0)
(-1.37411 0.0124385 0)
(-1.37598 0.0147454 0)
(-1.37763 0.0175375 0)
(-1.37913 0.0209158 0)
(-1.38052 0.0250033 0)
(-1.38186 0.029948 0)
(-1.3832 0.0359275 0)
(-1.38459 0.0431564 0)
(-1.38606 0.051891 0)
(-1.3876 0.0624324 0)
(-1.38917 0.0751249 0)
(-1.39067 0.0903483 0)
(-1.39187 0.108496 0)
(-1.39243 0.129927 0)
(-1.39181 0.154888 0)
(-1.38926 0.183397 0)
(-1.38387 0.215084 0)
(-1.37464 0.249034 0)
(-1.36078 0.283691 0)
(-0.0591028 -0.0486597 0)
(-0.18596 -0.118933 0)
(-0.324501 -0.161632 0)
(-0.463706 -0.180014 0)
(-0.595284 -0.179884 0)
(-0.714839 -0.167404 0)
(-0.820451 -0.147967 0)
(-0.911953 -0.125696 0)
(-0.990216 -0.103404 0)
(-1.05662 -0.0827898 0)
(-1.1127 -0.0647194 0)
(-1.15999 -0.0494823 0)
(-1.19985 -0.0370171 0)
(-1.23351 -0.0270645 0)
(-1.262 -0.0192766 0)
(-1.28617 -0.0132843 0)
(-1.30676 -0.00873672 0)
(-1.32434 -0.00532275 0)
(-1.33941 -0.00277525 0)
(-1.35235 -0.000872971 0)
(-1.3635 0.000564905 0)
(-1.37313 0.00168242 0)
(-1.38144 0.00259448 0)
(-1.38864 0.00339327 0)
(-1.39486 0.00415344 0)
(-1.40025 0.00493632 0)
(-1.4049 0.00579762 0)
(-1.40891 0.00678763 0)
(-1.41236 0.00795441 0)
(-1.41533 0.0093491 0)
(-1.41788 0.0110291 0)
(-1.42007 0.0130567 0)
(-1.42196 0.0155069 0)
(-1.42359 0.0184671 0)
(-1.42501 0.0220413 0)
(-1.42627 0.0263545 0)
(-1.42742 0.0315552 0)
(-1.42848 0.0378187 0)
(-1.42948 0.045353 0)
(-1.43042 0.0544 0)
(-1.43126 0.0652361 0)
(-1.43192 0.0781677 0)
(-1.43226 0.0935157 0)
(-1.43204 0.111594 0)
(-1.43087 0.132658 0)
(-1.42823 0.156835 0)
(-1.42347 0.184026 0)
(-1.41579 0.213788 0)
(-1.4044 0.24523 0)
(-1.38872 0.276971 0)
(-0.0571339 -0.0390816 0)
(-0.180262 -0.096313 0)
(-0.316057 -0.131953 0)
(-0.454412 -0.148212 0)
(-0.587289 -0.149349 0)
(-0.709933 -0.140092 0)
(-0.819828 -0.124728 0)
(-0.916203 -0.106647 0)
(-0.999428 -0.0882374 0)
(-1.07054 -0.070999 0)
(-1.13087 -0.0557382 0)
(-1.18185 -0.0427661 0)
(-1.22485 -0.0320818 0)
(-1.26111 -0.0235007 0)
(-1.29172 -0.0167494 0)
(-1.31762 -0.0115269 0)
(-1.33959 -0.00754134 0)
(-1.35828 -0.00452946 0)
(-1.37424 -0.00226291 0)
(-1.38789 -0.000550995 0)
(-1.39961 0.000763091 0)
(-1.4097 0.00180615 0)
(-1.41839 0.00267955 0)
(-1.42589 0.00346622 0)
(-1.43237 0.00423423 0)
(-1.43795 0.0050415 0)
(-1.44277 0.00593983 0)
(-1.44692 0.00697856 0)
(-1.45048 0.00820632 0)
(-1.45354 0.00967507 0)
(-1.45614 0.0114423 0)
(-1.45835 0.0135724 0)
(-1.46022 0.0161429 0)
(-1.4618 0.0192418 0)
(-1.46313 0.0229757 0)
(-1.46424 0.0274676 0)
(-1.46516 0.0328646 0)
(-1.46591 0.0393372 0)
(-1.46648 0.0470836 0)
(-1.46685 0.0563288 0)
(-1.46697 0.0673213 0)
(-1.46672 0.0803279 0)
(-1.46593 0.0956154 0)
(-1.46433 0.113424 0)
(-1.46154 0.133922 0)
(-1.45708 0.157144 0)
(-1.45035 0.182911 0)
(-1.44069 0.210743 0)
(-1.42748 0.239795 0)
(-1.41028 0.26885 0)
(-0.0556719 -0.0299648 0)
(-0.175982 -0.0742966 0)
(-0.309607 -0.102408 0)
(-0.447163 -0.11577 0)
(-0.580869 -0.117408 0)
(-0.70576 -0.110803 0)
(-0.818901 -0.0992056 0)
(-0.919057 -0.08525 0)
(-1.0062 -0.0708421 0)
(-1.08109 -0.0572131 0)
(-1.14486 -0.0450494 0)
(-1.19887 -0.0346412 0)
(-1.24445 -0.0260187 0)
(-1.28286 -0.0190572 0)
(-1.31524 -0.0135524 0)
(-1.34258 -0.00927138 0)
(-1.36571 -0.00598435 0)
(-1.38533 -0.00348005 0)
(-1.40202 -0.00157514 0)
(-1.41627 -0.000113613 0)
(-1.42847 0.00103211 0)
(-1.43894 0.00196741 0)
(-1.44794 0.00277848 0)
(-1.45569 0.00353519 0)
(-1.46237 0.00429721 0)
(-1.46813 0.00511735 0)
(-1.47309 0.00604215 0)
(-1.47734 0.00711938 0)
(-1.48099 0.00839662 0)
(-1.4841 0.00992574 0)
(-1.48673 0.0117637 0)
(-1.48895 0.0139773 0)
(-1.49079 0.0166425 0)
(-1.49229 0.0198484 0)
(-1.4935 0.0237014 0)
(-1.49444 0.0283223 0)
(-1.49511 0.033854 0)
(-1.49552 0.0404605 0)
(-1.49564 0.0483264 0)
(-1.49545 0.0576576 0)
(-1.49484 0.0686748 0)
(-1.49369 0.081607 0)
(-1.49181 0.0966693 0)
(-1.48891 0.114037 0)
(-1.48464 0.13381 0)
(-1.47855 0.15595 0)
(-1.47011 0.180226 0)
(-1.45876 0.206148 0)
(-1.44401 0.23293 0)
(-1.42556 0.259502 0)
(-0.0546363 -0.0211786 0)
(-0.172925 -0.0527361 0)
(-0.304943 -0.0730028 0)
(-0.441841 -0.0829072 0)
(-0.576056 -0.0844657 0)
(-0.702506 -0.0800615 0)
(-0.817973 -0.0719652 0)
(-0.920895 -0.0620558 0)
(-1.01095 -0.0517162 0)
(-1.08866 -0.0418587 0)
(-1.15505 -0.0330046 0)
(-1.21136 -0.0253876 0)
(-1.25891 -0.0190455 0)
(-1.29899 -0.0138996 0)
(-1.33274 -0.00980879 0)
(-1.36118 -0.00660757 0)
(-1.38521 -0.00412908 0)
(-1.40555 -0.002219 0)
(-1.42282 -0.000741622 0)
(-1.43753 0.000418366 0)
(-1.4501 0.0013583 0)
(-1.46086 0.00215847 0)
(-1.47011 0.00288617 0)
(-1.47806 0.00359707 0)
(-1.4849 0.00434123 0)
(-1.49079 0.0051623 0)
(-1.49585 0.00610365 0)
(-1.50018 0.00720831 0)
(-1.50388 0.0085223 0)
(-1.50703 0.0100971 0)
(-1.50967 0.0119884 0)
(-1.51187 0.0142632 0)
(-1.51366 0.0169958 0)
(-1.51508 0.020276 0)
(-1.51615 0.0242059 0)
(-1.51689 0.028905 0)
(-1.5173 0.0345097 0)
(-1.51736 0.0411744 0)
(-1.51704 0.0490691 0)
(-1.51627 0.0583804 0)
(-1.51495 0.0693014 0)
(-1.51294 0.0820241 0)
(-1.51003 0.0967175 0)
(-1.50595 0.113504 0)
(-1.50034 0.132425 0)
(-1.49281 0.153392 0)
(-1.48288 0.176141 0)
(-1.4701 0.20019 0)
(-1.45409 0.224818 0)
(-1.43462 0.249086 0)
(-0.0539736 -0.0126146 0)
(-0.170956 -0.0314937 0)
(-0.301915 -0.0437127 0)
(-0.43835 -0.0497822 0)
(-0.572854 -0.0508579 0)
(-0.700284 -0.0483273 0)
(-0.817252 -0.0435318 0)
(-0.921983 -0.037596 0)
(-1.01396 -0.0313581 0)
(-1.09356 -0.0253774 0)
(-1.16169 -0.0199779 0)
(-1.21956 -0.015311 0)
(-1.26845 -0.0114051 0)
(-1.30965 -0.00821599 0)
(-1.34433 -0.00566146 0)
(-1.37354 -0.00364141 0)
(-1.39818 -0.00205301 0)
(-1.41901 -0.000801448 0)
(-1.43668 0.000198403 0)
(-1.45171 0.00102003 0)
(-1.46453 0.0017253 0)
(-1.4755 0.00236911 0)
(-1.48491 0.00299668 0)
(-1.493 0.00364847 0)
(-1.49995 0.00436271 0)
(-1.50592 0.00517525 0)
(-1.51105 0.00612258 0)
(-1.51544 0.00724422 0)
(-1.51917 0.00858237 0)
(-1.52233 0.0101873 0)
(-1.52496 0.0121133 0)
(-1.52712 0.0144253 0)
(-1.52885 0.0171978 0)
(-1.53016 0.0205172 0)
(-1.53109 0.0244824 0)
(-1.53162 0.0292089 0)
(-1.53176 0.0348251 0)
(-1.53147 0.041474 0)
(-1.53071 0.0493123 0)
(-1.52939 0.0585056 0)
(-1.5274 0.0692205 0)
(-1.52458 0.0816139 0)
(-1.52073 0.0958165 0)
(-1.51557 0.111906 0)
(-1.50878 0.129877 0)
(-1.49999 0.149607 0)
(-1.4888 0.170817 0)
(-1.47484 0.193043 0)
(-1.4578 0.215628 0)
(-1.43752 0.237749 0)
(-0.05365 -0.00417871 0)
(-0.169993 -0.010439 0)
(-0.300425 -0.0144973 0)
(-0.436623 -0.0165155 0)
(-0.571257 -0.0168701 0)
(-0.699161 -0.0160155 0)
(-0.816864 -0.0143963 0)
(-0.922491 -0.0123855 0)
(-1.01543 -0.0102633 0)
(-1.09597 -0.00821778 0)
(-1.16498 -0.00635751 0)
(-1.22363 -0.00473464 0)
(-1.2732 -0.00335843 0)
(-1.31497 -0.00221203 0)
(-1.35013 -0.0012679 0)
(-1.37972 -0.000490344 0)
(-1.40468 0.000157135 0)
(-1.42576 0.00071066 0)
(-1.44364 0.0012018 0)
(-1.45883 0.00166087 0)
(-1.47178 0.0021138 0)
(-1.48286 0.00258612 0)
(-1.49236 0.00310148 0)
(-1.50052 0.00368421 0)
(-1.50753 0.00435955 0)
(-1.51355 0.00515431 0)
(-1.51871 0.00609842 0)
(-1.52311 0.00722556 0)
(-1.52686 0.00857575 0)
(-1.53 0.0101945 0)
(-1.53261 0.0121362 0)
(-1.53472 0.0144625 0)
(-1.53637 0.0172462 0)
(-1.53757 0.0205699 0)
(-1.53834 0.024529 0)
(-1.53867 0.0292328 0)
(-1.53854 0.0348009 0)
(-1.53791 0.0413652 0)
(-1.53672 0.0490675 0)
(-1.53488 0.0580526 0)
(-1.53226 0.0684627 0)
(-1.5287 0.0804245 0)
(-1.524 0.0940337 0)
(-1.51788 0.109332 0)
(-1.51006 0.126281 0)
(-1.50021 0.144734 0)
(-1.48797 0.16441 0)
(-1.47304 0.184867 0)
(-1.45518 0.205515 0)
(-1.43429 0.225631 0)
(-0.0536503 0.00421553 0)
(-0.169994 0.010553 0)
(-0.300427 0.0146924 0)
(-0.436625 0.0167964 0)
(-0.57126 0.0172415 0)
(-0.699165 0.0164852 0)
(-0.816871 0.0149701 0)
(-0.9225 0.0130728 0)
(-1.01544 0.0110751 0)
(-1.09598 0.00916675 0)
(-1.165 0.00745934 0)
(-1.22365 0.00600685 0)
(-1.27322 0.00482295 0)
(-1.315 0.0038972 0)
(-1.35016 0.00320569 0)
(-1.37977 0.00271906 0)
(-1.40473 0.00240895 0)
(-1.42582 0.00224961 0)
(-1.4437 0.00222145 0)
(-1.4589 0.00230784 0)
(-1.47187 0.00250096 0)
(-1.48295 0.00279507 0)
(-1.49246 0.00319247 0)
(-1.50062 0.00370003 0)
(-1.50764 0.00432972 0)
(-1.51366 0.00509877 0)
(-1.51882 0.00603029 0)
(-1.52322 0.00715231 0)
(-1.52694 0.00850173 0)
(-1.53006 0.0101192 0)
(-1.53262 0.0120576 0)
(-1.53467 0.0143749 0)
(-1.53623 0.0171411 0)
(-1.53731 0.0204356 0)
(-1.53792 0.0243485 0)
(-1.53805 0.0289816 0)
(-1.53766 0.0344451 0)
(-1.53671 0.0408606 0)
(-1.53512 0.048354 0)
(-1.5328 0.0570506 0)
(-1.52961 0.06707 0)
(-1.52539 0.0785129 0)
(-1.51993 0.0914447 0)
(-1.51299 0.105879 0)
(-1.50429 0.121754 0)
(-1.49355 0.138909 0)
(-1.48046 0.157066 0)
(-1.46477 0.175817 0)
(-1.44629 0.194627 0)
(-1.42497 0.212868 0)
(-0.0539743 0.0126513 0)
(-0.170959 0.0316073 0)
(-0.301919 0.0439073 0)
(-0.438357 0.0500624 0)
(-0.572864 0.0512288 0)
(-0.700299 0.0487947 0)
(-0.817272 0.0441032 0)
(-0.922009 0.0382803 0)
(-1.014 0.0321662 0)
(-1.0936 0.0263215 0)
(-1.16174 0.0210741 0)
(-1.21962 0.0165771 0)
(-1.26853 0.0128635 0)
(-1.30974 0.00989367 0)
(-1.34444 0.00759049 0)
(-1.37367 0.00585954 0)
(-1.39833 0.00460683 0)
(-1.41918 0.0037473 0)
(-1.43687 0.0032076 0)
(-1.45192 0.00292811 0)
(-1.46477 0.0028637 0)
(-1.47577 0.00298116 0)
(-1.48521 0.00326041 0)
(-1.49331 0.00369063 0)
(-1.50028 0.00427043 0)
(-1.50626 0.0050085 0)
(-1.51138 0.00591904 0)
(-1.51574 0.00702653 0)
(-1.51942 0.00836173 0)
(-1.52249 0.00996363 0)
(-1.525 0.0118798 0)
(-1.52697 0.0141655 0)
(-1.52844 0.0168872 0)
(-1.5294 0.0201198 0)
(-1.52986 0.023948 0)
(-1.52979 0.0284648 0)
(-1.52916 0.0337725 0)
(-1.5279 0.0399801 0)
(-1.52595 0.0471992 0)
(-1.5232 0.0555368 0)
(-1.5195 0.0650926 0)
(-1.5147 0.0759434 0)
(-1.5086 0.0881313 0)
(-1.50096 0.101647 0)
(-1.49155 0.116414 0)
(-1.48009 0.132264 0)
(-1.46633 0.14893 0)
(-1.45007 0.166036 0)
(-1.43116 0.183105 0)
(-1.40958 0.199586 0)
(-0.0546376 0.0212151 0)
(-0.172929 0.0528491 0)
(-0.30495 0.0731962 0)
(-0.441853 0.0831848 0)
(-0.576074 0.0848336 0)
(-0.70253 0.0805249 0)
(-0.818006 0.0725319 0)
(-0.920938 0.0627341 0)
(-1.01101 0.052517 0)
(-1.08873 0.0427943 0)
(-1.15513 0.0340907 0)
(-1.21146 0.0266427 0)
(-1.25904 0.020491 0)
(-1.29913 0.0155622 0)
(-1.33291 0.0117205 0)
(-1.36139 0.00880569 0)
(-1.38545 0.0066586 0)
(-1.40582 0.0051363 0)
(-1.42313 0.00411336 0)
(-1.43789 0.00348813 0)
(-1.4505 0.00318041 0)
(-1.46131 0.0031303 0)
(-1.47059 0.00329563 0)
(-1.47858 0.00365029 0)
(-1.48544 0.00417929 0)
(-1.49134 0.00488208 0)
(-1.49639 0.00576588 0)
(-1.50069 0.00684932 0)
(-1.50431 0.0081588 0)
(-1.50731 0.00973024 0)
(-1.50975 0.0116064 0)
(-1.51164 0.0138396 0)
(-1.513 0.0164913 0)
(-1.51385 0.0196314 0)
(-1.51416 0.0233384 0)
(-1.51391 0.0276978 0)
(-1.51305 0.0328032 0)
(-1.51153 0.0387506 0)
(-1.50926 0.0456374 0)
(-1.50612 0.053556 0)
(-1.50199 0.0625867 0)
(-1.4967 0.0727866 0)
(-1.49006 0.084179 0)
(-1.48186 0.0967386 0)
(-1.47188 0.110377 0)
(-1.45987 0.124929 0)
(-1.44562 0.140139 0)
(-1.42897 0.155666 0)
(-1.40981 0.171084 0)
(-1.38812 0.185911 0)
(-0.0556735 0.0300011 0)
(-0.175987 0.0744087 0)
(-0.309617 0.1026 0)
(-0.447179 0.116045 0)
(-0.580893 0.117771 0)
(-0.705794 0.11126 0)
(-0.818946 0.0997645 0)
(-0.919116 0.0859193 0)
(-1.00628 0.0716322 0)
(-1.08118 0.0581363 0)
(-1.14498 0.0461206 0)
(-1.19901 0.0358792 0)
(-1.24461 0.0274447 0)
(-1.28306 0.0206973 0)
(-1.31548 0.0154373 0)
(-1.34286 0.0114382 0)
(-1.36603 0.00847757 0)
(-1.3857 0.00635397 0)
(-1.40245 0.004895 0)
(-1.41676 0.00395791 0)
(-1.42902 0.00343151 0)
(-1.43955 0.00323026 0)
(-1.44861 0.0032919 0)
(-1.45641 0.00357561 0)
(-1.46313 0.00405524 0)
(-1.4689 0.00471994 0)
(-1.47385 0.00557223 0)
(-1.47806 0.00662383 0)
(-1.48159 0.00789727 0)
(-1.48452 0.00942408 0)
(-1.48687 0.0112434 0)
(-1.48867 0.013404 0)
(-1.48994 0.015962 0)
(-1.49066 0.0189816 0)
(-1.49084 0.0225354 0)
(-1.49042 0.0267005 0)
(-1.48937 0.0315614 0)
(-1.48762 0.0372029 0)
(-1.48507 0.0437089 0)
(-1.48162 0.0511582 0)
(-1.47713 0.0596142 0)
(-1.47144 0.0691177 0)
(-1.46438 0.079677 0)
(-1.45574 0.0912559 0)
(-1.44533 0.10376 0)
(-1.43293 0.117028 0)
(-1.41837 0.130823 0)
(-1.4015 0.144836 0)
(-1.38224 0.158689 0)
(-1.36059 0.171963 0)
(-0.0571357 0.0391174 0)
(-0.180268 0.096424 0)
(-0.31607 0.132142 0)
(-0.454432 0.148483 0)
(-0.587319 0.149706 0)
(-0.709974 0.140541 0)
(-0.819885 0.125277 0)
(-0.916276 0.107305 0)
(-0.999521 0.0890133 0)
(-1.07065 0.0719064 0)
(-1.13101 0.05679 0)
(-1.18202 0.0439813 0)
(-1.22506 0.0334819 0)
(-1.26136 0.0251102 0)
(-1.29202 0.0185978 0)
(-1.31797 0.0136512 0)
(-1.34 0.00998585 0)
(-1.35876 0.00734578 0)
(-1.37478 0.00551402 0)
(-1.38851 0.00431228 0)
(-1.40031 0.0036006 0)
(-1.41047 0.00327125 0)
(-1.41923 0.0032439 0)
(-1.4268 0.00346441 0)
(-1.43332 0.00389766 0)
(-1.43894 0.00452451 0)
(-1.44375 0.00534072 0)
(-1.44784 0.00635416 0)
(-1.45127 0.00758175 0)