/*--------------------------------*- C++ -*----------------------------------*\
  =========                 |
  \\      /  F ield         | OpenFOAM: The Open Source CFD Toolbox
   \\    /   O peration     | Website:  https://openfoam.org
    \\  /    A nd           | Version:  6
     \\/     M anipulation  |
\*---------------------------------------------------------------------------*/
FoamFile
{
    version     2.0;
    format      ascii;
    class       volScalarField;
    location    "./ITHACAoutput/Offline/1";
    object      P_rec;
}
// * * * * * * * * * * * * * * * * * * * * * * * * * * * * * * * * * * * * * //

dimensions      [0 2 -2 0 0 0 0];

internalField   nonuniform List<scalar> 
40000
(
0.0145944
0.0145943
0.0145934
0.0145912
0.0145879
0.0145838
0.014579
0.0145737
0.0145681
0.0145624
0.0145566
0.0145509
0.0145453
0.0145399
0.0145348
0.01453
0.0145255
0.0145213
0.0145175
0.014514
0.0145109
0.0145082
0.0145058
0.0145037
0.014502
0.0145006
0.0144995
0.0144987
0.0144982
0.014498
0.014498
0.0144983
0.0144989
0.0144998
0.0145008
0.0145022
0.0145037
0.0145055
0.0145076
0.0145099
0.0145124
0.0145152
0.0145182
0.0145214
0.014525
0.0145287
0.0145328
0.0145371
0.0145416
0.0145465
0.0145516
0.014557
0.0145627
0.0145687
0.0145749
0.0145815
0.0145884
0.0145956
0.014603
0.0146108
0.0146188
0.0146272
0.0146358
0.0146447
0.0146539
0.0146633
0.014673
0.014683
0.0146932
0.0147035
0.0147141
0.0147249
0.0147358
0.0147469
0.0147582
0.0147695
0.0147809
0.0147924
0.0148039
0.0148154
0.0148268
0.0148383
0.0148497
0.0148609
0.0148721
0.0148831
0.0148939
0.0149044
0.0149147
0.0149248
0.0149345
0.0149439
0.014953
0.0149616
0.0149699
0.0149777
0.014985
0.0149919
0.0149982
0.015004
0.0150093
0.015014
0.0150181
0.0150216
0.0150245
0.0150267
0.0150284
0.0150294
0.0150298
0.0150295
0.0150286
0.015027
0.0150248
0.015022
0.0150185
0.0150143
0.0150096
0.0150043
0.0149983
0.0149918
0.0149846
0.0149769
0.0149687
0.0149599
0.0149506
0.0149408
0.0149306
0.0149198
0.0149086
0.0148969
0.0148849
0.0148724
0.0148595
0.0148463
0.0148327
0.0148188
0.0148045
0.0147899
0.0147751
0.0147599
0.0147445
0.0147289
0.014713
0.0146968
0.0146805
0.0146639
0.0146472
0.0146303
0.0146133
0.0145961
0.0145788
0.0145614
0.0145439
0.0145264
0.0145088
0.0144912
0.0144735
0.0144559
0.0144383
0.0144208
0.0144034
0.0143861
0.0143689
0.0143519
0.0143351
0.0143186
0.0143023
0.0142863
0.0142706
0.0142553
0.0142403
0.0142258
0.0142117
0.0141981
0.0141851
0.0141725
0.0141606
0.0141492
0.0141385
0.0141285
0.0141191
0.0141105
0.0141026
0.0140955
0.0140892
0.0140837
0.0140789
0.014075
0.0140719
0.0140696
0.0140681
0.0140674
0.0140673
0.014068
0.0140691
0.0140707
0.0140726
0.0140744
0.014076
0.0140767
0.0145944
0.0145944
0.0145935
0.0145915
0.0145885
0.0145847
0.0145803
0.0145755
0.0145703
0.014565
0.0145596
0.0145543
0.0145491
0.014544
0.0145392
0.0145346
0.0145303
0.0145263
0.0145227
0.0145193
0.0145163
0.0145137
0.0145113
0.0145093
0.0145076
0.0145062
0.014505
0.0145042
0.0145037
0.0145034
0.0145034
0.0145036
0.0145042
0.0145049
0.0145059
0.0145071
0.0145086
0.0145103
0.0145123
0.0145144
0.0145169
0.0145195
0.0145224
0.0145256
0.014529
0.0145326
0.0145365
0.0145407
0.0145451
0.0145498
0.0145548
0.0145601
0.0145657
0.0145715
0.0145776
0.0145841
0.0145908
0.0145978
0.0146051
0.0146127
0.0146206
0.0146288
0.0146372
0.014646
0.014655
0.0146643
0.0146738
0.0146836
0.0146936
0.0147038
0.0147142
0.0147248
0.0147356
0.0147465
0.0147576
0.0147687
0.01478
0.0147913
0.0148026
0.0148139
0.0148253
0.0148365
0.0148478
0.0148589
0.0148699
0.0148807
0.0148913
0.0149018
0.0149119
0.0149219
0.0149315
0.0149407
0.0149497
0.0149582
0.0149663
0.014974
0.0149812
0.014988
0.0149942
0.0149999
0.0150051
0.0150097
0.0150137
0.0150171
0.01502
0.0150222
0.0150238
0.0150247
0.0150251
0.0150247
0.0150238
0.0150222
0.0150199
0.0150171
0.0150135
0.0150094
0.0150047
0.0149993
0.0149934
0.0149868
0.0149797
0.014972
0.0149638
0.0149551
0.0149458
0.014936
0.0149258
0.0149151
0.0149039
0.0148923
0.0148803
0.0148679
0.0148551
0.014842
0.0148285
0.0148146
0.0148004
0.014786
0.0147712
0.0147562
0.0147409
0.0147253
0.0147095
0.0146935
0.0146773
0.0146608
0.0146443
0.0146275
0.0146106
0.0145935
0.0145764
0.0145591
0.0145418
0.0145244
0.0145069
0.0144895
0.014472
0.0144546
0.0144372
0.0144198
0.0144026
0.0143854
0.0143685
0.0143517
0.0143351
0.0143187
0.0143026
0.0142868
0.0142713
0.0142561
0.0142414
0.014227
0.0142131
0.0141997
0.0141868
0.0141745
0.0141627
0.0141515
0.014141
0.014131
0.0141218
0.0141133
0.0141055
0.0140985
0.0140922
0.0140867
0.014082
0.014078
0.0140749
0.0140725
0.0140709
0.0140699
0.0140697
0.0140701
0.014071
0.0140723
0.0140738
0.0140754
0.0140767
0.0140775
0.0145954
0.0145952
0.0145944
0.0145925
0.0145898
0.0145864
0.0145824
0.014578
0.0145733
0.0145685
0.0145636
0.0145587
0.0145539
0.0145492
0.0145447
0.0145404
0.0145364
0.0145326
0.0145291
0.0145259
0.0145231
0.0145205
0.0145182
0.0145162
0.0145145
0.0145131
0.014512
0.0145111
0.0145106
0.0145102
0.0145102
0.0145103
0.0145107
0.0145114
0.0145123
0.0145134
0.0145148
0.0145163
0.0145181
0.0145202
0.0145225
0.014525
0.0145277
0.0145307
0.014534
0.0145374
0.0145412
0.0145452
0.0145495
0.014554
0.0145588
0.0145639
0.0145693
0.014575
0.0145809
0.0145871
0.0145937
0.0146005
0.0146076
0.014615
0.0146227
0.0146307
0.0146389
0.0146475
0.0146563
0.0146654
0.0146747
0.0146843
0.014694
0.0147041
0.0147143
0.0147246
0.0147352
0.0147459
0.0147568
0.0147677
0.0147787
0.0147898
0.014801
0.0148121
0.0148233
0.0148343
0.0148454
0.0148563
0.0148671
0.0148778
0.0148882
0.0148985
0.0149085
0.0149183
0.0149277
0.0149368
0.0149456
0.014954
0.014962
0.0149696
0.0149767
0.0149833
0.0149894
0.014995
0.0150001
0.0150046
0.0150085
0.0150118
0.0150146
0.0150167
0.0150182
0.0150191
0.0150194
0.015019
0.015018
0.0150163
0.0150141
0.0150111
0.0150076
0.0150035
0.0149987
0.0149933
0.0149874
0.0149808
0.0149737
0.0149661
0.0149579
0.0149491
0.0149399
0.0149302
0.01492
0.0149093
0.0148982
0.0148867
0.0148748
0.0148624
0.0148497
0.0148367
0.0148232
0.0148095
0.0147954
0.014781
0.0147664
0.0147515
0.0147363
0.0147208
0.0147052
0.0146893
0.0146732
0.014657
0.0146405
0.0146239
0.0146072
0.0145903
0.0145733
0.0145562
0.0145391
0.0145218
0.0145046
0.0144873
0.01447
0.0144528
0.0144356
0.0144185
0.0144014
0.0143845
0.0143678
0.0143512
0.0143348
0.0143187
0.0143028
0.0142872
0.0142719
0.014257
0.0142425
0.0142284
0.0142147
0.0142015
0.0141888
0.0141767
0.0141651
0.0141541
0.0141437
0.0141339
0.0141249
0.0141165
0.0141088
0.0141018
0.0140956
0.0140901
0.0140854
0.0140814
0.0140782
0.0140757
0.0140739
0.0140728
0.0140724
0.0140725
0.0140731
0.0140741
0.0140754
0.0140767
0.0140781
0.014079
0.0145976
0.0145972
0.0145962
0.0145943
0.0145917
0.0145885
0.0145848
0.0145807
0.0145764
0.0145719
0.0145674
0.0145628
0.0145583
0.0145539
0.0145497
0.0145457
0.0145419
0.0145383
0.014535
0.014532
0.0145292
0.0145267
0.0145245
0.0145226
0.0145209
0.0145195
0.0145184
0.0145175
0.0145169
0.0145165
0.0145164
0.0145165
0.0145168
0.0145173
0.0145181
0.0145191
0.0145204
0.0145218
0.0145235
0.0145254
0.0145276
0.0145299
0.0145326
0.0145354
0.0145385
0.0145418
0.0145454
0.0145493
0.0145534
0.0145577
0.0145624
0.0145673
0.0145725
0.014578
0.0145837
0.0145898
0.0145961
0.0146028
0.0146097
0.0146169
0.0146244
0.0146322
0.0146403
0.0146486
0.0146573
0.0146661
0.0146753
0.0146847
0.0146942
0.0147041
0.0147141
0.0147243
0.0147347
0.0147452
0.0147559
0.0147667
0.0147775
0.0147885
0.0147994
0.0148104
0.0148214
0.0148324
0.0148432
0.014854
0.0148647
0.0148752
0.0148855
0.0148957
0.0149056
0.0149152
0.0149245
0.0149336
0.0149422
0.0149505
0.0149584
0.0149659
0.0149728
0.0149794
0.0149854
0.0149909
0.0149959
0.0150003
0.0150042
0.0150074
0.0150101
0.0150122
0.0150137
0.0150145
0.0150147
0.0150142
0.0150132
0.0150115
0.0150092
0.0150062
0.0150027
0.0149985
0.0149937
0.0149883
0.0149823
0.0149758
0.0149687
0.014961
0.0149528
0.0149441
0.0149349
0.0149252
0.014915
0.0149044
0.0148933
0.0148818
0.0148699
0.0148577
0.014845
0.014832
0.0148186
0.014805
0.014791
0.0147767
0.0147621
0.0147473
0.0147322
0.0147169
0.0147013
0.0146856
0.0146696
0.0146534
0.0146371
0.0146207
0.0146041
0.0145873
0.0145705
0.0145535
0.0145365
0.0145195
0.0145024
0.0144853
0.0144681
0.0144511
0.014434
0.0144171
0.0144002
0.0143835
0.0143669
0.0143505
0.0143343
0.0143184
0.0143026
0.0142873
0.0142722
0.0142574
0.0142431
0.0142291
0.0142157
0.0142026
0.0141901
0.0141781
0.0141667
0.0141558
0.0141456
0.014136
0.014127
0.0141187
0.0141111
0.0141042
0.014098
0.0140926
0.0140879
0.0140839
0.0140806
0.014078
0.0140761
0.0140749
0.0140743
0.0140743
0.0140747
0.0140756
0.0140767
0.0140781
0.0140797
0.0140809
0.0146009
0.0146002
0.014599
0.0145969
0.0145943
0.0145911
0.0145876
0.0145837
0.0145796
0.0145754
0.0145711
0.0145668
0.0145626
0.0145585
0.0145545
0.0145507
0.0145471
0.0145437
0.0145405
0.0145376
0.014535
0.0145326
0.0145304
0.0145286
0.0145269
0.0145256
0.0145244
0.0145235
0.0145229
0.0145224
0.0145222
0.0145223
0.0145225
0.014523
0.0145237
0.0145246
0.0145257
0.0145271
0.0145286
0.0145304
0.0145324
0.0145346
0.0145371
0.0145398
0.0145427
0.0145459
0.0145493
0.014553
0.0145569
0.0145611
0.0145656
0.0145703
0.0145754
0.0145807
0.0145862
0.0145921
0.0145983
0.0146047
0.0146115
0.0146185
0.0146259
0.0146335
0.0146414
0.0146495
0.014658
0.0146667
0.0146756
0.0146848
0.0146943
0.0147039
0.0147138
0.0147239
0.0147341
0.0147445
0.014755
0.0147656
0.0147763
0.0147871
0.014798
0.0148088
0.0148197
0.0148305
0.0148413
0.0148519
0.0148625
0.0148729
0.0148832
0.0148932
0.014903
0.0149125
0.0149218
0.0149307
0.0149393
0.0149475
0.0149553
0.0149627
0.0149696
0.0149761
0.014982
0.0149875
0.0149924
0.0149967
0.0150005
0.0150038
0.0150064
0.0150084
0.0150098
0.0150106
0.0150107
0.0150103
0.0150092
0.0150074
0.0150051
0.0150021
0.0149985
0.0149942
0.0149894
0.014984
0.014978
0.0149714
0.0149643
0.0149566
0.0149484
0.0149397
0.0149305
0.0149208
0.0149106
0.0149
0.014889
0.0148775
0.0148656
0.0148534
0.0148408
0.0148278
0.0148145
0.0148009
0.014787
0.0147727
0.0147583
0.0147435
0.0147285
0.0147133
0.0146978
0.0146821
0.0146663
0.0146502
0.014634
0.0146176
0.0146011
0.0145845
0.0145678
0.014551
0.0145341
0.0145172
0.0145002
0.0144832
0.0144662
0.0144493
0.0144324
0.0144156
0.0143989
0.0143823
0.0143659
0.0143496
0.0143336
0.0143178
0.0143022
0.014287
0.0142721
0.0142575
0.0142433
0.0142295
0.0142162
0.0142033
0.0141909
0.014179
0.0141677
0.014157
0.0141469
0.0141373
0.0141285
0.0141203
0.0141127
0.0141059
0.0140997
0.0140943
0.0140896
0.0140856
0.0140822
0.0140796
0.0140777
0.0140763
0.0140756
0.0140755
0.0140759
0.0140767
0.0140779
0.0140794
0.0140812
0.0140828
0.0146051
0.0146041
0.0146024
0.0146001
0.0145974
0.0145942
0.0145907
0.0145869
0.014583
0.0145789
0.0145749
0.0145708
0.0145668
0.0145629
0.0145591
0.0145555
0.014552
0.0145488
0.0145458
0.014543
0.0145405
0.0145382
0.0145361
0.0145343
0.0145327
0.0145313
0.0145302
0.0145293
0.0145286
0.0145281
0.0145279
0.0145278
0.014528
0.0145284
0.014529
0.0145298
0.0145308
0.014532
0.0145335
0.0145351
0.014537
0.0145391
0.0145414
0.0145439
0.0145467
0.0145497
0.0145529
0.0145565
0.0145602
0.0145643
0.0145685
0.0145731
0.014578
0.0145831
0.0145885
0.0145942
0.0146002
0.0146065
0.014613
0.0146199
0.014627
0.0146345
0.0146422
0.0146502
0.0146585
0.014667
0.0146758
0.0146849
0.0146942
0.0147037
0.0147134
0.0147233
0.0147334
0.0147437
0.014754
0.0147645
0.0147752
0.0147858
0.0147966
0.0148073
0.0148181
0.0148288
0.0148395
0.0148501
0.0148605
0.0148709
0.014881
0.014891
0.0149007
0.0149102
0.0149194
0.0149283
0.0149368
0.014945
0.0149527
0.01496
0.0149669
0.0149734
0.0149793
0.0149847
0.0149895
0.0149939
0.0149976
0.0150008
0.0150034
0.0150053
0.0150067
0.0150074
0.0150075
0.015007
0.0150059
0.0150041
0.0150017
0.0149987
0.014995
0.0149907
0.0149859
0.0149804
0.0149744
0.0149678
0.0149606
0.0149529
0.0149447
0.014936
0.0149268
0.014917
0.0149069
0.0148963
0.0148852
0.0148737
0.0148619
0.0148497
0.0148371
0.0148241
0.0148109
0.0147973
0.0147834
0.0147692
0.0147548
0.0147401
0.0147251
0.0147099
0.0146945
0.014679
0.0146632
0.0146472
0.0146311
0.0146148
0.0145984
0.0145819
0.0145652
0.0145485
0.0145317
0.0145149
0.0144981
0.0144812
0.0144643
0.0144475
0.0144307
0.014414
0.0143974
0.014381
0.0143647
0.0143486
0.0143326
0.0143169
0.0143015
0.0142864
0.0142716
0.0142572
0.0142431
0.0142294
0.0142162
0.0142034
0.0141912
0.0141794
0.0141682
0.0141576
0.0141475
0.0141381
0.0141293
0.0141211
0.0141137
0.0141069
0.0141007
0.0140953
0.0140906
0.0140866
0.0140832
0.0140806
0.0140786
0.0140772
0.0140765
0.0140763
0.0140766
0.0140775
0.0140787
0.0140804
0.0140826
0.0140844
0.0146101
0.0146086
0.0146064
0.0146038
0.0146008
0.0145976
0.0145941
0.0145903
0.0145865
0.0145825
0.0145786
0.0145747
0.0145709
0.0145671
0.0145635
0.0145601
0.0145568
0.0145537
0.0145508
0.0145482
0.0145457
0.0145435
0.0145415
0.0145397
0.0145382
0.0145368
0.0145357
0.0145348
0.014534
0.0145335
0.0145332
0.0145332
0.0145332
0.0145335
0.014534
0.0145347
0.0145356
0.0145367
0.014538
0.0145396
0.0145413
0.0145432
0.0145454
0.0145477
0.0145504
0.0145532
0.0145563
0.0145596
0.0145632
0.0145671
0.0145712
0.0145756
0.0145803
0.0145852
0.0145905
0.014596
0.0146018
0.0146079
0.0146143
0.014621
0.014628
0.0146353
0.0146428
0.0146507
0.0146588
0.0146672
0.0146759
0.0146848
0.0146939
0.0147033
0.0147129
0.0147227
0.0147327
0.0147428
0.0147531
0.0147635
0.014774
0.0147846
0.0147953
0.014806
0.0148167
0.0148273
0.0148379
0.0148485
0.0148589
0.0148692
0.0148793
0.0148892
0.0148989
0.0149084
0.0149175
0.0149264
0.0149349
0.014943
0.0149507
0.014958
0.0149649
0.0149713
0.0149772
0.0149826
0.0149874
0.0149917
0.0149954
0.0149986
0.0150011
0.015003
0.0150044
0.0150051
0.0150051
0.0150046
0.0150034
0.0150016
0.0149991
0.0149961
0.0149924
0.0149881
0.0149832
0.0149777
0.0149716
0.014965
0.0149578
0.0149501
0.0149418
0.014933
0.0149237
0.014914
0.0149038
0.0148932
0.0148821
0.0148706
0.0148588
0.0148465
0.0148339
0.014821
0.0148077
0.0147942
0.0147803
0.0147661
0.0147517
0.014737
0.0147221
0.014707
0.0146916
0.0146761
0.0146603
0.0146444
0.0146284
0.0146122
0.0145958
0.0145794
0.0145628
0.0145462
0.0145295
0.0145127
0.014496
0.0144792
0.0144624
0.0144457
0.014429
0.0144124
0.0143959
0.0143795
0.0143633
0.0143473
0.0143314
0.0143159
0.0143005
0.0142855
0.0142708
0.0142565
0.0142425
0.0142289
0.0142158
0.0142031
0.0141909
0.0141793
0.0141681
0.0141576
0.0141476
0.0141382
0.0141295
0.0141214
0.0141139
0.0141072
0.0141011
0.0140957
0.0140909
0.0140869
0.0140836
0.0140809
0.0140788
0.0140775
0.0140767
0.0140765
0.0140769
0.0140778
0.0140792
0.0140811
0.0140835
0.0140857
0.0146155
0.0146136
0.0146109
0.0146079
0.0146047
0.0146012
0.0145976
0.0145938
0.01459
0.0145862
0.0145823
0.0145785
0.0145748
0.0145712
0.0145677
0.0145644
0.0145613
0.0145584
0.0145556
0.014553
0.0145507
0.0145485
0.0145466
0.0145449
0.0145433
0.014542
0.0145409
0.0145399
0.0145392
0.0145386
0.0145383
0.0145381
0.0145382
0.0145384
0.0145388
0.0145394
0.0145402
0.0145411
0.0145423
0.0145437
0.0145453
0.0145471
0.0145491
0.0145513
0.0145538
0.0145564
0.0145594
0.0145625
0.014566
0.0145696
0.0145736
0.0145778
0.0145823
0.0145871
0.0145922
0.0145975
0.0146031
0.0146091
0.0146153
0.0146219
0.0146287
0.0146358
0.0146432
0.014651
0.0146589
0.0146672
0.0146757
0.0146845
0.0146936
0.0147028
0.0147123
0.0147221
0.0147319
0.014742
0.0147522
0.0147626
0.014773
0.0147836
0.0147942
0.0148048
0.0148155
0.0148261
0.0148367
0.0148472
0.0148576
0.0148679
0.014878
0.0148879
0.0148976
0.014907
0.0149162
0.0149251
0.0149335
0.0149417
0.0149494
0.0149567
0.0149636
0.01497
0.0149758
0.0149812
0.0149861
0.0149903
0.0149941
0.0149972
0.0149997
0.0150016
0.0150029
0.0150036
0.0150037
0.0150031
0.0150019
0.015
0.0149975
0.0149944
0.0149907
0.0149863
0.0149814
0.0149759
0.0149697
0.0149631
0.0149558
0.014948
0.0149397
0.0149309
0.0149216
0.0149118
0.0149016
0.0148909
0.0148798
0.0148682
0.0148564
0.0148441
0.0148315
0.0148185
0.0148052
0.0147916
0.0147778
0.0147636
0.0147492
0.0147345
0.0147196
0.0147045
0.0146891
0.0146736
0.0146579
0.014642
0.014626
0.0146098
0.0145935
0.0145771
0.0145606
0.014544
0.0145273
0.0145106
0.0144939
0.0144772
0.0144605
0.0144438
0.0144272
0.0144106
0.0143942
0.0143779
0.0143617
0.0143458
0.01433
0.0143145
0.0142993
0.0142843
0.0142697
0.0142554
0.0142415
0.014228
0.0142149
0.0142023
0.0141902
0.0141786
0.0141675
0.014157
0.0141471
0.0141377
0.014129
0.014121
0.0141136
0.0141068
0.0141007
0.0140953
0.0140906
0.0140865
0.0140832
0.0140805
0.0140785
0.0140771
0.0140763
0.0140762
0.0140766
0.0140776
0.0140792
0.0140813
0.014084
0.0140865
0.0146214
0.0146189
0.0146156
0.0146122
0.0146087
0.014605
0.0146013
0.0145974
0.0145936
0.0145897
0.0145859
0.0145822
0.0145786
0.0145751
0.0145718
0.0145686
0.0145656
0.0145627
0.0145601
0.0145576
0.0145553
0.0145533
0.0145514
0.0145497
0.0145482
0.0145469
0.0145457
0.0145448
0.014544
0.0145435
0.0145431
0.0145428
0.0145428
0.0145429
0.0145432
0.0145437
0.0145444
0.0145453
0.0145463
0.0145475
0.014549
0.0145506
0.0145525
0.0145546
0.0145569
0.0145594
0.0145621
0.0145652
0.0145684
0.0145719
0.0145757
0.0145797
0.0145841
0.0145887
0.0145936
0.0145988
0.0146043
0.01461
0.0146161
0.0146225
0.0146292
0.0146362
0.0146435
0.0146511
0.0146589
0.0146671
0.0146755
0.0146842
0.0146932
0.0147024
0.0147118
0.0147214
0.0147313
0.0147413
0.0147514
0.0147618
0.0147722
0.0147827
0.0147933
0.0148039
0.0148146
0.0148252
0.0148358
0.0148463
0.0148568
0.0148671
0.0148772
0.0148871
0.0148968
0.0149063
0.0149155
0.0149244
0.0149329
0.0149411
0.0149488
0.0149562
0.014963
0.0149694
0.0149753
0.0149807
0.0149856
0.0149899
0.0149936
0.0149967
0.0149993
0.0150012
0.0150025
0.0150031
0.0150032
0.0150025
0.0150013
0.0149994
0.0149969
0.0149938
0.01499
0.0149856
0.0149806
0.014975
0.0149688
0.0149621
0.0149548
0.0149469
0.0149385
0.0149297
0.0149203
0.0149104
0.0149001
0.0148894
0.0148782
0.0148667
0.0148547
0.0148424
0.0148297
0.0148167
0.0148033
0.0147897
0.0147758
0.0147616
0.0147471
0.0147324
0.0147175
0.0147023
0.014687
0.0146715
0.0146557
0.0146398
0.0146238
0.0146076
0.0145913
0.0145749
0.0145584
0.0145419
0.0145252
0.0145086
0.0144919
0.0144752
0.0144585
0.0144418
0.0144253
0.0144088
0.0143924
0.0143761
0.01436
0.0143441
0.0143284
0.0143129
0.0142977
0.0142828
0.0142682
0.0142539
0.0142401
0.0142266
0.0142136
0.014201
0.014189
0.0141774
0.0141663
0.0141559
0.014146
0.0141367
0.014128
0.0141199
0.0141125
0.0141058
0.0140997
0.0140943
0.0140896
0.0140855
0.0140822
0.0140795
0.0140775
0.0140761
0.0140754
0.0140753
0.0140758
0.0140769
0.0140786
0.0140809
0.014084
0.0140867
0.0146274
0.0146245
0.0146206
0.0146167
0.0146129
0.0146089
0.014605
0.014601
0.0145971
0.0145933
0.0145895
0.0145858
0.0145822
0.0145788
0.0145756
0.0145725
0.0145696
0.0145668
0.0145643
0.0145619
0.0145597
0.0145577
0.0145558
0.0145542
0.0145527
0.0145514
0.0145503
0.0145493
0.0145486
0.0145479
0.0145475
0.0145472
0.0145471
0.0145471
0.0145473
0.0145477
0.0145483
0.014549
0.01455
0.0145511
0.0145524
0.0145539
0.0145556
0.0145575
0.0145596
0.014562
0.0145646
0.0145674
0.0145705
0.0145739
0.0145775
0.0145814
0.0145855
0.01459
0.0145947
0.0145998
0.0146051
0.0146108
0.0146167
0.014623
0.0146295
0.0146364
0.0146436
0.0146511
0.0146588
0.0146669
0.0146753
0.0146839
0.0146928
0.0147019
0.0147113
0.0147209
0.0147307
0.0147407
0.0147508
0.0147612
0.0147716
0.0147821
0.0147927
0.0148034
0.0148141
0.0148247
0.0148354
0.0148459
0.0148564
0.0148667
0.0148769
0.0148869
0.0148967
0.0149062
0.0149155
0.0149244
0.014933
0.0149412
0.014949
0.0149564
0.0149634
0.0149698
0.0149758
0.0149812
0.0149861
0.0149904
0.0149941
0.0149973
0.0149998
0.0150018
0.0150031
0.0150037
0.0150037
0.0150031
0.0150018
0.0149999
0.0149974
0.0149942
0.0149904
0.0149859
0.0149809
0.0149752
0.014969
0.0149622
0.0149548
0.0149469
0.0149384
0.0149295
0.01492
0.0149101
0.0148997
0.0148888
0.0148776
0.0148659
0.0148539
0.0148415
0.0148287
0.0148156
0.0148022
0.0147885
0.0147745
0.0147602
0.0147457
0.0147309
0.0147159
0.0147007
0.0146853
0.0146697
0.014654
0.014638
0.014622
0.0146057
0.0145894
0.014573
0.0145565
0.0145399
0.0145233
0.0145066
0.0144899
0.0144732
0.0144565
0.0144398
0.0144233
0.0144068
0.0143904
0.0143741
0.014358
0.0143421
0.0143264
0.014311
0.0142958
0.0142809
0.0142663
0.0142521
0.0142382
0.0142248
0.0142118
0.0141993
0.0141872
0.0141756
0.0141646
0.0141542
0.0141443
0.014135
0.0141263
0.0141183
0.0141109
0.0141041
0.014098
0.0140926
0.0140879
0.0140839
0.0140805
0.0140779
0.0140758
0.0140745
0.0140738
0.0140738
0.0140744
0.0140756
0.0140775
0.01408
0.0140833
0.0140862
0.0146336
0.0146301
0.0146256
0.0146213
0.0146171
0.0146129
0.0146087
0.0146046
0.0146006
0.0145967
0.0145929
0.0145892
0.0145857
0.0145824
0.0145792
0.0145762
0.0145733
0.0145706
0.0145681
0.0145658
0.0145637
0.0145617
0.01456
0.0145583
0.0145569
0.0145556
0.0145545
0.0145535
0.0145527
0.014552
0.0145516
0.0145512
0.014551
0.014551
0.0145511
0.0145514
0.0145519
0.0145525
0.0145533
0.0145543
0.0145554
0.0145568
0.0145583
0.0145601
0.0145621
0.0145643
0.0145667
0.0145694
0.0145724
0.0145755
0.014579
0.0145827
0.0145867
0.014591
0.0145956
0.0146005
0.0146058
0.0146113
0.0146171
0.0146232
0.0146297
0.0146365
0.0146436
0.014651
0.0146587
0.0146667
0.014675
0.0146835
0.0146924
0.0147015
0.0147109
0.0147205
0.0147303
0.0147403
0.0147505
0.0147608
0.0147713
0.0147819
0.0147925
0.0148032
0.014814
0.0148247
0.0148354
0.0148461
0.0148566
0.0148671
0.0148773
0.0148874
0.0148973
0.0149069
0.0149163
0.0149253
0.014934
0.0149423
0.0149502
0.0149576
0.0149647
0.0149712
0.0149772
0.0149827
0.0149876
0.014992
0.0149958
0.014999
0.0150015
0.0150035
0.0150048
0.0150055
0.0150055
0.0150049
0.0150036
0.0150017
0.0149991
0.0149959
0.014992
0.0149875
0.0149824
0.0149767
0.0149704
0.0149635
0.014956
0.014948
0.0149394
0.0149304
0.0149208
0.0149108
0.0149003
0.0148893
0.014878
0.0148662
0.014854
0.0148415
0.0148286
0.0148154
0.0148018
0.014788
0.0147739
0.0147595
0.0147449
0.01473
0.0147149
0.0146996
0.0146841
0.0146684
0.0146526
0.0146366
0.0146204
0.0146041
0.0145877
0.0145713
0.0145547
0.0145381
0.0145213
0.0145046
0.0144879
0.0144711
0.0144544
0.0144377
0.0144212
0.0144046
0.0143882
0.0143719
0.0143558
0.0143399
0.0143242
0.0143087
0.0142935
0.0142786
0.0142641
0.0142498
0.014236
0.0142225
0.0142095
0.014197
0.0141849
0.0141734
0.0141623
0.0141519
0.014142
0.0141327
0.014124
0.0141159
0.0141085
0.0141018
0.0140957
0.0140903
0.0140856
0.0140815
0.0140782
0.0140755
0.0140735
0.0140723
0.0140716
0.0140717
0.0140724
0.0140737
0.0140757
0.0140784
0.014082
0.0140851
0.0146397
0.0146357
0.0146306
0.0146259
0.0146212
0.0146167
0.0146123
0.0146081
0.0146039
0.0145999
0.0145961
0.0145924
0.0145889
0.0145856
0.0145825
0.0145795
0.0145767
0.0145741
0.0145717
0.0145694
0.0145674
0.0145655
0.0145637
0.0145621
0.0145607
0.0145594
0.0145583
0.0145573
0.0145565
0.0145558
0.0145553
0.0145549
0.0145546
0.0145545
0.0145545
0.0145547
0.014555
0.0145556
0.0145562
0.0145571
0.0145581
0.0145593
0.0145608
0.0145624
0.0145642
0.0145663
0.0145686
0.0145711
0.0145739
0.0145769
0.0145802
0.0145838
0.0145877
0.0145918
0.0145963
0.0146011
0.0146062
0.0146116
0.0146173
0.0146234
0.0146297
0.0146364
0.0146435
0.0146508
0.0146585
0.0146664
0.0146747
0.0146833
0.0146921
0.0147013
0.0147106
0.0147203
0.0147301
0.0147402
0.0147504
0.0147608
0.0147714
0.014782
0.0147928
0.0148036
0.0148144
0.0148253
0.0148361
0.0148469
0.0148576
0.0148681
0.0148785
0.0148887
0.0148987
0.0149085
0.0149179
0.0149271
0.0149359
0.0149443
0.0149523
0.0149599
0.014967
0.0149736
0.0149798
0.0149853
0.0149904
0.0149948
0.0149986
0.0150019
0.0150045
0.0150065
0.0150079
0.0150085
0.0150086
0.0150079
0.0150067
0.0150047
0.0150021
0.0149988
0.0149949
0.0149904
0.0149852
0.0149794
0.014973
0.014966
0.0149585
0.0149503
0.0149417
0.0149325
0.0149228
0.0149126
0.014902
0.0148909
0.0148794
0.0148674
0.0148551
0.0148424
0.0148294
0.014816
0.0148023
0.0147883
0.0147741
0.0147595
0.0147447
0.0147297
0.0147145
0.014699
0.0146834
0.0146676
0.0146516
0.0146354
0.0146192
0.0146028
0.0145863
0.0145697
0.014553
0.0145363
0.0145195
0.0145027
0.0144859
0.0144691
0.0144523
0.0144355
0.0144189
0.0144023
0.0143859
0.0143696
0.0143534
0.0143374
0.0143217
0.0143062
0.0142909
0.014276
0.0142614
0.0142471
0.0142333
0.0142198
0.0142068
0.0141942
0.0141821
0.0141705
0.0141595
0.014149
0.0141391
0.0141297
0.014121
0.014113
0.0141056
0.0140988
0.0140927
0.0140873
0.0140826
0.0140785
0.0140752
0.0140725
0.0140706
0.0140693
0.0140688
0.0140689
0.0140697
0.0140712
0.0140733
0.0140762
0.01408
0.0140833
0.0146457
0.0146412
0.0146355
0.0146303
0.0146253
0.0146205
0.0146158
0.0146113
0.0146071
0.014603
0.0145991
0.0145954
0.0145919
0.0145886
0.0145855
0.0145826
0.0145798
0.0145773
0.0145749
0.0145727
0.0145707
0.0145688
0.0145671
0.0145655
0.0145641
0.0145629
0.0145617
0.0145607
0.0145599
0.0145591
0.0145586
0.0145581
0.0145578
0.0145576
0.0145575
0.0145576
0.0145579
0.0145583
0.0145588
0.0145595
0.0145604
0.0145615
0.0145628
0.0145643
0.014566
0.0145679
0.01457
0.0145724
0.0145751
0.014578
0.0145811
0.0145846
0.0145884
0.0145924
0.0145968
0.0146014
0.0146064
0.0146117
0.0146174
0.0146234
0.0146297
0.0146363
0.0146433
0.0146506
0.0146583
0.0146663
0.0146745
0.0146831
0.014692
0.0147012
0.0147106
0.0147203
0.0147303
0.0147404
0.0147507
0.0147613
0.0147719
0.0147827
0.0147936
0.0148045
0.0148155
0.0148265
0.0148375
0.0148484
0.0148593
0.01487
0.0148806
0.014891
0.0149011
0.014911
0.0149206
0.0149299
0.0149389
0.0149475
0.0149556
0.0149633
0.0149706
0.0149774
0.0149836
0.0149893
0.0149944
0.014999
0.0150029
0.0150062
0.0150089
0.0150109
0.0150123
0.015013
0.0150131
0.0150125
0.0150112
0.0150092
0.0150066
0.0150033
0.0149993
0.0149947
0.0149895
0.0149836
0.0149771
0.01497
0.0149623
0.0149541
0.0149453
0.014936
0.0149261
0.0149158
0.0149049
0.0148937
0.0148819
0.0148698
0.0148573
0.0148444
0.0148312
0.0148176
0.0148037
0.0147895
0.014775
0.0147603
0.0147453
0.0147301
0.0147146
0.014699
0.0146832
0.0146672
0.014651
0.0146347
0.0146183
0.0146017
0.0145851
0.0145683
0.0145515
0.0145347
0.0145177
0.0145008
0.0144839
0.014467
0.0144501
0.0144332
0.0144165
0.0143998
0.0143833
0.0143669
0.0143507
0.0143346
0.0143188
0.0143033
0.014288
0.014273
0.0142583
0.014244
0.0142301
0.0142166
0.0142035
0.0141909
0.0141787
0.0141671
0.014156
0.0141455
0.0141356
0.0141262
0.0141175
0.0141094
0.0141019
0.0140951
0.014089
0.0140836
0.0140789
0.0140748
0.0140715
0.0140688
0.0140669
0.0140657
0.0140652
0.0140654
0.0140663
0.0140679
0.0140702
0.0140733
0.0140773
0.0140808
0.0146515
0.0146465
0.0146402
0.0146345
0.0146291
0.014624
0.014619
0.0146144
0.01461
0.0146058
0.0146018
0.0145981
0.0145945
0.0145912
0.0145882
0.0145853
0.0145826
0.0145801
0.0145777
0.0145756
0.0145736
0.0145718
0.0145701
0.0145685
0.0145671
0.0145659
0.0145647
0.0145637
0.0145628
0.0145621
0.0145614
0.0145609
0.0145605
0.0145603
0.0145601
0.0145601
0.0145603
0.0145606
0.014561
0.0145616
0.0145624
0.0145634
0.0145645
0.0145658
0.0145674
0.0145692
0.0145712
0.0145734
0.014576
0.0145787
0.0145818
0.0145852
0.0145888
0.0145927
0.014597
0.0146016
0.0146065
0.0146118
0.0146174
0.0146233
0.0146296
0.0146362
0.0146432
0.0146505
0.0146582
0.0146662
0.0146745
0.0146832
0.0146921
0.0147014
0.0147109
0.0147207
0.0147308
0.0147411
0.0147515
0.0147622
0.014773
0.014784
0.014795
0.0148062
0.0148174
0.0148286
0.0148397
0.0148509
0.0148619
0.0148728
0.0148836
0.0148942
0.0149045
0.0149147
0.0149245
0.014934
0.0149431
0.0149519
0.0149602
0.0149681
0.0149755
0.0149824
0.0149888
0.0149946
0.0149999
0.0150046
0.0150086
0.015012
0.0150148
0.0150169
0.0150184
0.0150191
0.0150192
0.0150186
0.0150173
0.0150154
0.0150127
0.0150094
0.0150053
0.0150007
0.0149953
0.0149894
0.0149828
0.0149755
0.0149677
0.0149593
0.0149504
0.0149408
0.0149308
0.0149203
0.0149092
0.0148978
0.0148858
0.0148735
0.0148607
0.0148476
0.0148341
0.0148202
0.0148061
0.0147916
0.0147769
0.0147619
0.0147466
0.0147312
0.0147155
0.0146996
0.0146835
0.0146673
0.0146509
0.0146344
0.0146177
0.0146009
0.0145841
0.0145672
0.0145502
0.0145331
0.014516
0.0144989
0.0144819
0.0144648
0.0144477
0.0144308
0.0144139
0.0143971
0.0143805
0.014364
0.0143476
0.0143315
0.0143156
0.0142999
0.0142846
0.0142695
0.0142547
0.0142404
0.0142264
0.0142128
0.0141996
0.014187
0.0141748
0.0141631
0.014152
0.0141414
0.0141314
0.014122
0.0141132
0.0141051
0.0140976
0.0140908
0.0140847
0.0140792
0.0140745
0.0140704
0.0140671
0.0140645
0.0140626
0.0140614
0.014061
0.0140612
0.0140622
0.014064
0.0140664
0.0140697
0.0140739
0.0140775
0.014657
0.0146515
0.0146446
0.0146385
0.0146327
0.0146272
0.014622
0.0146172
0.0146126
0.0146083
0.0146042
0.0146004
0.0145969
0.0145936
0.0145905
0.0145876
0.0145849
0.0145825
0.0145802
0.0145781
0.0145761
0.0145743
0.0145726
0.0145711
0.0145697
0.0145684
0.0145673
0.0145663
0.0145653
0.0145645
0.0145639
0.0145633
0.0145628
0.0145625
0.0145623
0.0145622
0.0145622
0.0145624
0.0145628
0.0145632
0.0145639
0.0145647
0.0145658
0.014567
0.0145684
0.0145701
0.014572
0.0145741
0.0145766
0.0145792
0.0145822
0.0145854
0.014589
0.0145929
0.0145971
0.0146016
0.0146065
0.0146117
0.0146173
0.0146232
0.0146295
0.0146361
0.0146431
0.0146505
0.0146583
0.0146663
0.0146747
0.0146835
0.0146926
0.014702
0.0147116
0.0147216
0.0147318
0.0147423
0.0147529
0.0147638
0.0147748
0.014786
0.0147973
0.0148086
0.0148201
0.0148315
0.0148429
0.0148543
0.0148656
0.0148767
0.0148877
0.0148986
0.0149092
0.0149196
0.0149296
0.0149393
0.0149487
0.0149577
0.0149662
0.0149743
0.0149819
0.014989
0.0149956
0.0150016
0.015007
0.0150118
0.015016
0.0150195
0.0150224
0.0150246
0.0150261
0.0150269
0.0150271
0.0150265
0.0150252
0.0150232
0.0150205
0.0150172
0.0150131
0.0150083
0.0150029
0.0149968
0.0149901
0.0149827
0.0149748
0.0149662
0.014957
0.0149473
0.014937
0.0149263
0.014915
0.0149033
0.014891
0.0148784
0.0148654
0.0148519
0.0148381
0.014824
0.0148095
0.0147947
0.0147797
0.0147644
0.0147488
0.014733
0.014717
0.0147008
0.0146845
0.0146679
0.0146512
0.0146344
0.0146175
0.0146005
0.0145834
0.0145662
0.0145489
0.0145317
0.0145144
0.0144971
0.0144798
0.0144625
0.0144453
0.0144282
0.0144111
0.0143942