/*--------------------------------*- C++ -*----------------------------------*\
  =========                 |
  \\      /  F ield         | OpenFOAM: The Open Source CFD Toolbox
   \\    /   O peration     | Website:  https://openfoam.org
    \\  /    A nd           | Version:  6
     \\/     M anipulation  |
\*---------------------------------------------------------------------------*/
FoamFile
{
    version     2.0;
    format      ascii;
    class       volScalarField;
    location    "0";
    object      P_rec;
}
// * * * * * * * * * * * * * * * * * * * * * * * * * * * * * * * * * * * * * //

dimensions      [0 2 -2 0 0 0 0];

internalField   nonuniform List<scalar> 
918
(
4.31798
4.12103
0.475899
4.49397
0.0562068
3.29401
0.272011
2.90174
4.63915
1.06602
0.662135
3.56327
1.3953
1.42196
1.33498
0.31242
3.38891
-0.0305253
3.68501
0.301002
-1.11028
4.47279
4.15222
3.68154
3.49941
0.756025
1.79319
-0.242724
-0.29818
-0.195618
0.113356
0.448067
0.296884
1.84424
3.08055
3.71078
3.56154
2.45609
0.607888
0.660217
0.391731
-0.00590744
2.98759
3.06301
1.95328
2.81222
2.65964
3.66724
4.49884
4.66582
4.20785
4.46384
4.63378
1.3104
0.961278
0.796551
1.10968
0.956975
0.717858
0.684887
0.748674
0.697169
0.702047
3.38834
3.54663
3.56159
3.58225
3.53749
3.90673
4.31418
4.68441
1.32316
2.45692
1.70061
1.96888
1.63632
1.71242
1.6169
1.55236
1.20736
0.44113
1.72252
1.77567
-0.0424581
0.313837
0.390827
3.3988
3.43056
3.34678
3.33222
2.13627
0.141943
-0.174337
3.73167
3.71949
4.54787
4.27458
3.89261
3.64915
0.287587
0.34826
0.100473
0.34185
0.259567
0.591399
1.27182
3.59029
3.6788
3.49893
3.52409
3.50315
3.01707
3.6067
3.53299
1.66232
1.44878
1.12072
1.27222
1.83636
1.80606
1.95824
1.8522
-0.24765
0.00803486
0.359011
0.278531
0.343594
3.55138
3.51939
3.62473
3.58608
3.60309
2.26246
2.18714
2.56509
2.68997
1.1336
1.16775
0.0444419
0.136584
-0.190187
2.72757
3.13
3.17557
1.56743
1.94585
1.60555
2.12983
2.1728
3.59686
3.63665
3.6085
3.68734
3.7235
3.71657
4.51679
4.48302
4.71586
1.3252
1.42816
1.30463
1.20774
0.475287
0.555224
0.470879
0.857645
0.962863
0.762345
0.863009
0.739561
0.625157
0.961038
0.835175
0.891666
0.647683
0.49097
3.37932
3.33081
3.41064
3.4406
3.56524
3.54295
3.59481
3.58027
2.12744
2.19346
2.06648
2.00117
-0.243587
-2.49795
1.96758
1.92798
0.0189425
-0.0834196
-0.0263489
-0.318866
-0.0605636
-0.137007
0.507635
0.381871
0.45406
0.452854
3.46976
3.52117
2.17859
2.25314
1.9617
1.88733
3.6779
3.72836
3.72474
3.72841
0.383288
0.431178
0.433907
2.49788
1.91203
2.19815
2.95257
2.77815
3.08286
3.1621
3.51357
3.5069
3.52995
1.67724
1.5736
2.27807
1.60359
1.98799
1.41839
2.08469
3.02505
1.48084
3.45956
3.50378
3.49986
3.61685
3.65693
3.64937
3.58873
3.5941
3.59265
1.97786
1.80536
2.72824
2.70049
2.75144
2.80321
2.69548
2.68785
3.28438
3.18853
3.24033
2.46826
2.42228
1.0781
1.05875
3.23135
3.27728
3.25184
1.92191
1.82278
1.91506
1.89552
1.8307
1.91815
1.62458
0.46499
1.14092
1.77922
1.88844
1.74681
0.485235
0.620336
0.545251
2.22328
2.30636
1.50565
1.74417
1.66817
1.18311
1.48776
1.72225
1.41116
1.74528
1.77002
1.64172
2.65281
2.62309
2.68381
2.59196
2.62401
2.71489
2.5195
2.52038
0.96628
1.03253
1.00223
2.29098
2.49294
2.41586
3.65421
3.61922
-0.178215
0.069483
4.0639
4.1665
-0.303331
0.0368846
1.87379
1.96583
2.58578
3.71908
3.54899
3.88971
0.849352
1.00646
0.500989
0.456511
0.157994
3.43822
3.29389
3.20622
-0.160873
0.141731
0.0501873
0.536625
3.86818
3.77592
3.8322
3.91066
3.95237
0.146513
0.0619551
0.154392
0.175061
0.318067
0.41214
3.56665
3.53104
0.950207
3.81706
3.92926
3.92421
3.88003
3.91428
3.83565
0.210415
0.261645
0.369656
2.84806
2.99818
1.55644
0.575584
2.13993
1.89172
1.94651
1.82779
1.38443
1.70695
1.18837
3.09655
2.86395
2.73577
2.33177
2.76027
2.75779
3.74644
3.79349
3.63025
3.69454
3.86079
3.57094
3.92799
3.75533
3.72778
3.9473
0.984737
1.2159
1.1368
0.818303
1.22993
1.50565
1.17697
1.31303
0.868916
0.486734
0.695933
0.570623
0.71792
0.459388
0.693769
0.629982
0.876271
0.463213
0.757935
0.389053
1.09967
0.666234
3.40874
3.53028
3.46076
3.60315
3.36364
3.51453
3.41994
3.38193
3.46163
3.22442
3.29398
3.31014
0.196704
0.266145
0.325449
0.207113
0.454566
0.234163
0.350156
0.27579
0.205606
0.139355
0.103791
0.328779
0.85194
0.587697
2.02583
1.73652
1.14033
3.60275
3.86549
3.74091
3.86784
3.90968
4.0414
3.89097
3.80443
3.57997
3.68451
3.57184
3.63015
1.24244
1.1186
1.37193
1.51944
2.30388
3.45839
3.19485
3.06848
3.09004
3.20596
3.28278
2.92863
-0.499633
-1.56141
2.00976
1.80076
1.87475
2.28038
2.27806
1.73223
1.4398
1.48895
1.60514
1.92833
1.88953
2.93631
1.96069
1.87856
2.4136
2.32206
1.78723
3.1524
3.17846
2.79644
2.63727
3.03884
2.96125
3.0009
3.01366
3.02721
3.10416
2.93931
2.93876
2.80942
3.2864
3.11542
3.13432
3.00622
3.78191
3.82252
3.7191
3.60619
3.82356
3.64571
3.62091
3.50966
3.55362
3.74267
3.69576
3.6043
1.19424
1.0132
1.24232
0.849448
1.18128
0.913606
1.18902
1.17561
0.941529
1.16643
1.57757
1.17689
1.11311
1.33278
1.09982
1.48477
1.3322
1.36217
0.93803
1.19975
1.28227
1.17761
1.0631
0.566647
0.682154
1.17129
0.684046
0.841149
0.946871
1.10436
0.658408
0.943871
0.759564
0.583199
0.740267
1.11826
0.775837
0.87207
0.348521
0.282886
0.0339922
0.208379
0.9094
0.685545
3.65094
3.55451
3.56533
3.52993
3.66176
3.56819
3.37853
3.57702
3.75965
3.60323
3.45648
3.42065
3.26915
3.42498
3.44364
3.44261
3.66044
3.62727
3.49213
3.56337
3.4427
3.47043
3.22674
3.37262
3.4382
0.0575752
0.460398
0.332222
0.300126
0.304206
0.48986
0.854371
0.361448
0.720675
0.614624
0.535572
0.483471
0.509769
1.26332
1.40868
1.32694
0.879904
0.765194
2.10325
2.1671
2.03506
1.86815
2.0597
2.06774
2.20619
1.78753
1.62777
1.78799
2.44088
2.44329
3.77237
3.69858
3.76589
3.89443
3.78557
1.81331
2.15738
2.20731
2.68619
2.48588
2.60082
2.1136
2.12397
2.17031
2.32903
3.37103
3.41225
3.43181
3.51979
3.51517
3.06037
3.26718
3.20365
3.42834
3.29477
3.27729
3.46329
3.35471
3.20921
3.29893
3.31117
3.37182
3.34181
3.25906
3.35252
3.47477
3.41404
3.37227
3.41862
3.60237
3.30136
3.47889
3.65554
3.53772
3.26646
3.29569
3.34994
3.3452
3.34345
3.36413
3.28436
2.73311
2.81503
2.38851
2.41727
2.33736
2.06917
2.10907
2.26739
2.29144
2.02872
1.87299
1.3755
2.65502
2.66367
2.44832
1.49156
2.5696
2.80037
2.71357
2.28314
2.22968
3.22529
3.23015
3.27676
3.02162
2.9232
2.94154
2.87544
3.05596
2.78898
2.43767
2.86485
2.65272
2.73734
2.90091
2.81742
2.82615
2.92308
3.10633
2.98742
2.93412
3.08762
2.93867
3.05801
3.12741
3.1706
3.32472
3.13168
2.90346
3.12465
3.00836
3.06313
3.14752
3.11536
3.67524
3.62188
3.69025
3.6663
3.55873
3.64027
3.49038
3.69252
3.72577
3.78808
3.76517
0.586458
0.818481
1.13707
0.850943
0.927312
1.01392
1.26949
1.26134
1.27667
1.34798
1.03561
1.21738
1.24748
0.933566
1.25086
1.19767
0.948763
0.971684
1.67592
1.73813
1.64342
1.62818
1.61781
1.46601
1.66563
0.79472
1.21125
0.928557
0.938376
0.885112
0.619997
0.920087
0.51803
0.783729
0.459423
0.00414199
0.469474
0.627425
0.307092
0.41842
0.44797
3.50407
3.58158
3.55745
3.49925
3.48389
3.51602
3.56128
3.7204
3.66521
3.6477
3.7036
3.58938
3.60841
0.54116
1.00439
1.11724
0.547501
0.72142
0.258605
0.0748162
2.17794
1.79441
1.79836
1.46682
1.30974
1.44487
2.31525
2.38029
2.47019
2.62399
2.55562
2.43963
2.49255
2.68802
2.33359
2.34794
2.30367
2.17609
2.32203
2.37102
2.32726
2.38552
2.51985
2.81776
2.27167
2.29474
2.26651
2.66204
2.59763
2.5387
2.65956
2.63879
2.53879
2.37567
2.16069
2.70928
2.43855
2.76883
2.74237
2.06469
2.55476
2.49783
3.32813
3.33958
3.38587
3.37317
3.37436
3.47288
3.35579
3.47573
3.60351
3.61175
1.46591
1.42236
1.3795
2.42959
2.60003
2.87446
2.39412
3.54803
3.26693
3.02288
2.98759
3.02642
2.95628
3.04219
3.01339
2.87529
2.99216
2.82495
2.94458
2.77443
2.74175
3.17458
3.1189
3.18193
3.18432
3.12765
3.21365
3.36998
3.56516
3.44979
3.57484
3.66652
3.74037
1.27356
0.917995
1.14557
1.218
1.10761
0.867052
0.397858
0.437626
1.03336
0.959737
0.652772
0.879657
1.88919
1.90029
1.45894
1.83726
1.92671
1.40739
1.64541
1.39394
1.52095
1.92201
2.33472
2.25838
2.39988
2.4215
2.20314
2.45659
2.51233
2.64027
2.61801
2.3882
2.32747
2.40408
1.57539
2.16262
3.71227
3.7646
2.98027
2.69417
2.40066
2.74666
3.10156
2.95344
2.94706
3.08471
2.95068
2.15623
2.33928
2.13513
2.00599
2.8048
2.35468
2.48409
2.31282
2.57654
)
;

boundaryField
{
    wall-4
    {
        type            calculated;
        value           nonuniform List<scalar> 
100
(
4.31798
4.12103
0.475899
4.49397
3.29401
0.272011
2.90174
1.06602
0.662135
3.56327
1.3953
1.42196
1.33498
3.38891
-0.0305253
3.68501
0.301002
-1.11028
3.68154
3.49941
0.756025
1.79319
-0.242724
1.84424
3.56154
0.660217
-0.00590744
3.06301
1.95328
2.65964
3.66724
0.796551
0.956975
0.748674
0.702047
3.38834
3.56159
3.53749
2.45692
1.96888
1.71242
1.55236
0.44113
1.77567
3.43056
3.33222
-0.174337
3.71949
3.64915
0.34826
0.259567
1.27182
3.6788
3.50315
3.01707
3.53299
1.66232
1.27222
1.80606
1.8522
3.51939
3.62473
3.60309
1.16775
-0.190187
3.17557
1.60555
2.1728
3.6085
3.71657
0.470879
0.962863
0.891666
0.49097
3.33081
3.4406
3.56524
3.58027
2.00117
1.92798
3.52117
3.6779
3.72841
0.433907
2.19815
2.77815
3.1621
3.52995
1.5736
1.41839
3.49986
3.64937
3.59265
3.24033
2.42228
3.25184
1.89552
1.74681
1.74528
2.52038
)
;
    }
    velocity-inlet-5
    {
        type            calculated;
        value           nonuniform List<scalar> 8(4.31798 4.49397 4.63915 4.47279 4.66582 4.63378 4.54787 4.71586);
    }
    velocity-inlet-6
    {
        type            calculated;
        value           nonuniform List<scalar> 4(4.12103 3.29401 3.71078 4.68441);
    }
    pressure-outlet-7
    {
        type            calculated;
        value           uniform 0;
    }
    wall-8
    {
        type            calculated;
        value           nonuniform List<scalar> 
34
(
0.0562068
0.31242
0.296884
2.45609
1.3104
0.717858
0.390827
2.13627
0.343594
2.18714
2.68997
2.72757
1.42816
1.20774
0.863009
0.625157
-2.49795
0.507635
0.452854
2.25314
1.88733
1.80536
2.72824
2.80321
2.68785
1.05875
1.14092
0.545251
2.30636
1.66817
2.68381
2.62401
1.00223
2.41586
)
;
    }
    frontAndBackPlanes
    {
        type            empty;
    }
}

