/*--------------------------------*- C++ -*----------------------------------*\
  =========                 |
  \\      /  F ield         | OpenFOAM: The Open Source CFD Toolbox
   \\    /   O peration     | Website:  https://openfoam.org
    \\  /    A nd           | Version:  6
     \\/     M anipulation  |
\*---------------------------------------------------------------------------*/
FoamFile
{
    version     2.0;
    format      ascii;
    class       volVectorField;
    location    "0";
    object      U;
}
// * * * * * * * * * * * * * * * * * * * * * * * * * * * * * * * * * * * * * //

dimensions      [0 1 -1 0 0 0 0];

internalField   nonuniform List<vector> 
9000
(
(0.582125 0.127461 0)
(0.458284 0.0604934 0)
(0.283222 0.0196265 0)
(0.200797 0.00903653 0)
(0.156079 0.00453957 0)
(0.129172 0.00246949 0)
(0.112004 0.00146534 0)
(0.100553 0.000926113 0)
(0.0926841 0.000608934 0)
(0.087181 0.000409628 0)
(0.0832983 0.000278545 0)
(0.0805512 0.000189833 0)
(0.0786104 0.000128827 0)
(0.0772461 8.65812e-05 0)
(0.0762945 5.73177e-05 0)
(0.0756379 3.71522e-05 0)
(0.0751906 2.33983e-05 0)
(0.0748908 1.41645e-05 0)
(0.0746936 8.10568e-06 0)
(0.0745664 4.26104e-06 0)
(0.0744862 1.9446e-06 0)
(0.0744366 6.68429e-07 0)
(0.0744059 8.77533e-08 0)
(0.0743862 -3.89749e-08 0)
(0.0743721 1.20614e-07 0)
(0.0743602 4.51155e-07 0)
(0.0743483 8.73487e-07 0)
(0.0743352 1.3327e-06 0)
(0.0743207 1.78912e-06 0)
(0.0743051 2.21149e-06 0)
(0.0742891 2.57146e-06 0)
(0.0742743 2.83912e-06 0)
(0.0742628 2.97874e-06 0)
(0.0742576 2.94453e-06 0)
(0.0742629 2.67564e-06 0)
(0.074284 2.0897e-06 0)
(0.0743285 1.07376e-06 0)
(0.0744066 -5.29683e-07 0)
(0.0745324 -2.94616e-06 0)
(0.0747257 -6.51285e-06 0)
(0.075015 -1.17712e-05 0)
(0.0754426 -1.96922e-05 0)
(0.0760747 -3.23058e-05 0)
(0.0770206 -5.45347e-05 0)
(0.0784785 -9.9879e-05 0)
(0.080855 -0.000213752 0)
(0.0850526 -0.000571216 0)
(0.0929164 -0.00159234 0)
(0.113875 -0.00649468 0)
(0.165896 -0.0468747 0)
(0.935043 0.30287 0)
(0.847618 0.220417 0)
(0.645841 0.124125 0)
(0.511356 0.0711451 0)
(0.421217 0.0425925 0)
(0.360068 0.0268657 0)
(0.317945 0.0177284 0)
(0.288448 0.012085 0)
(0.267518 0.00841255 0)
(0.252542 0.00592729 0)
(0.241784 0.00419939 0)
(0.234053 0.00297727 0)
(0.228513 0.00210445 0)
(0.224562 0.00147855 0)
(0.221765 0.00102981 0)
(0.219802 0.000709301 0)
(0.218441 0.00048194 0)
(0.217508 0.000322253 0)
(0.216879 0.000211587 0)
(0.21646 0.000136241 0)
(0.216185 8.61488e-05 0)
(0.216006 5.39291e-05 0)
(0.215891 3.41909e-05 0)
(0.215813 2.3011e-05 0)
(0.215758 1.7541e-05 0)
(0.215715 1.57095e-05 0)
(0.215677 1.59933e-05 0)
(0.21564 1.72413e-05 0)
(0.215604 1.85356e-05 0)
(0.215569 1.90789e-05 0)
(0.215537 1.80986e-05 0)
(0.215515 1.47574e-05 0)
(0.215508 8.06227e-06 0)
(0.215527 -3.24041e-06 0)
(0.215585 -2.07986e-05 0)
(0.2157 -4.68393e-05 0)
(0.215897 -8.4442e-05 0)
(0.216208 -0.000137965 0)
(0.216681 -0.000213747 0)
(0.217379 -0.000321323 0)
(0.218398 -0.000475665 0)
(0.219875 -0.000701607 0)
(0.222022 -0.00104327 0)
(0.225182 -0.00158574 0)
(0.229935 -0.00250881 0)
(0.23733 -0.0042314 0)
(0.249362 -0.00782552 0)
(0.26975 -0.0161315 0)
(0.308903 -0.0371533 0)
(0.380234 -0.102324 0)
(1.01379 0.309592 0)
(1.00363 0.305806 0)
(0.86224 0.216622 0)
(0.735612 0.144484 0)
(0.633858 0.0961069 0)
(0.557224 0.0650712 0)
(0.500747 0.0449827 0)
(0.459373 0.0316286 0)
(0.429084 0.0225001 0)
(0.406915 0.0161136 0)
(0.390709 0.0115688 0)
(0.378894 0.00829835 0)
(0.370318 0.00593063 0)
(0.36413 0.00421303 0)
(0.359699 0.00296871 0)
(0.356553 0.00207103 0)
(0.354342 0.00142778 0)
(0.352806 0.000971121 0)
(0.351751 0.000650831 0)
(0.351036 0.000429663 0)
(0.350557 0.000279999 0)
(0.350238 0.000181408 0)
(0.350025 0.000118827 0)
(0.349881 8.11862e-05 0)
(0.349778 6.03613e-05 0)
(0.3497 5.03677e-05 0)
(0.349635 4.67397e-05 0)
(0.349578 4.60442e-05 0)
(0.349526 4.54944e-05 0)
(0.349482 4.26301e-05 0)
(0.349449 3.50411e-05 0)
(0.349437 2.01046e-05 0)
(0.349458 -5.28887e-06 0)
(0.349528 -4.50551e-05 0)
(0.349671 -0.000104328 0)
(0.349918 -0.00019003 0)
(0.350311 -0.000311721 0)
(0.350908 -0.000482907 0)
(0.351787 -0.000723182 0)
(0.353058 -0.00106185 0)
(0.354879 -0.00154437 0)
(0.357479 -0.00224452 0)
(0.361201 -0.00328828 0)
(0.366577 -0.0049037 0)
(0.374458 -0.00752984 0)
(0.386249 -0.0120662 0)
(0.404302 -0.0204593 0)
(0.432268 -0.0370243 0)
(0.476759 -0.0712736 0)
(0.541347 -0.146578 0)
(1.0262 0.270496 0)
(1.06142 0.340456 0)
(0.983369 0.28456 0)
(0.887401 0.212086 0)
(0.795381 0.15253 0)
(0.718411 0.109028 0)
(0.657568 0.078236 0)
(0.610777 0.0564627 0)
(0.575317 0.0409299 0)
(0.548692 0.0297328 0)
(0.528841 0.0215917 0)
(0.514138 0.0156389 0)
(0.503321 0.0112752 0)
(0.495423 0.00807709 0)
(0.489703 0.00573968 0)
(0.485597 0.00403979 0)
(0.482679 0.00281223 0)
(0.480626 0.0019339 0)
(0.479199 0.00131269 0)
(0.478216 0.000879665 0)
(0.477547 0.00058329 0)
(0.477093 0.000385166 0)
(0.476784 0.000256774 0)
(0.476572 0.000176998 0)
(0.476421 0.000130211 0)
(0.476308 0.000104799 0)
(0.476218 9.20012e-05 0)
(0.476144 8.50017e-05 0)
(0.476083 7.81961e-05 0)
(0.476038 6.658e-05 0)
(0.476015 4.52109e-05 0)
(0.476028 8.6929e-06 0)
(0.476092 -4.93681e-05 0)
(0.476233 -0.000137004 0)
(0.476483 -0.00026471 0)
(0.476885 -0.000446586 0)
(0.4775 -0.000702017 0)
(0.478406 -0.00105825 0)
(0.479712 -0.00155451 0)
(0.481569 -0.00224886 0)
(0.484186 -0.00322997 0)
(0.487863 -0.00463827 0)
(0.493037 -0.0067052 0)
(0.500348 -0.00982879 0)
(0.510762 -0.0147226 0)
(0.525718 -0.0227134 0)
(0.547303 -0.0363292 0)
(0.578078 -0.0603646 0)
(0.620716 -0.103269 0)
(0.672831 -0.179135 0)
(1.0232 0.230674 0)
(1.07672 0.344483 0)
(1.04675 0.324145 0)
(0.985456 0.263336 0)
(0.913428 0.201878 0)
(0.845974 0.151184 0)
(0.788509 0.112208 0)
(0.741943 0.0829985 0)
(0.705291 0.0612789 0)
(0.67698 0.0451466 0)
(0.655408 0.0331566 0)
(0.639149 0.0242432 0)
(0.627013 0.0176245 0)
(0.618041 0.012723 0)
(0.611468 0.00910901 0)
(0.606699 0.00646029 0)
(0.603274 0.00453379 0)
(0.600838 0.00314567 0)
(0.599124 0.00215681 0)
(0.597929 0.00146208 0)
(0.597102 0.00098224 0)
(0.596534 0.000657792 0)
(0.596141 0.000444248 0)
(0.595868 0.000308435 0)
(0.595672 0.000225623 0)
(0.595528 0.000177276 0)
(0.595416 0.000149283 0)
(0.59533 0.000130546 0)
(0.595265 0.000111835 0)
(0.595226 8.48212e-05 0)
(0.595223 4.1221e-05 0)
(0.595269 -2.80379e-05 0)
(0.595389 -0.000133699 0)
(0.595611 -0.000289219 0)
(0.595979 -0.000512104 0)
(0.596547 -0.000825751 0)
(0.597388 -0.00126212 0)
(0.598602 -0.00186579 0)
(0.600322 -0.00270025 0)
(0.602728 -0.00385816 0)
(0.606067 -0.00547831 0)
(0.610683 -0.00777471 0)
(0.617053 -0.0110874 0)
(0.625849 -0.0159729 0)
(0.638 -0.0233653 0)
(0.654749 -0.0348591 0)
(0.677606 -0.0531712 0)
(0.707845 -0.0827664 0)
(0.745377 -0.130054 0)
(0.785331 -0.202358 0)
(1.01705 0.195666 0)
(1.07448 0.331339 0)
(1.07684 0.340767 0)
(1.0463 0.296653 0)
(0.997193 0.239941 0)
(0.944426 0.187169 0)
(0.895497 0.143258 0)
(0.853479 0.108459 0)
(0.818994 0.0815153 0)
(0.791511 0.060897 0)
(0.770058 0.0452274 0)
(0.753577 0.033379 0)
(0.741081 0.0244634 0)
(0.731717 0.0177901 0)
(0.724776 0.0128259 0)
(0.719686 0.00915963 0)
(0.71599 0.00647445 0)
(0.713334 0.00452695 0)
(0.711445 0.00313051 0)
(0.710112 0.00214262 0)
(0.709178 0.00145495 0)
(0.708527 0.000985556 0)
(0.708071 0.000672709 0)
(0.70775 0.000470077 0)
(0.707519 0.00034287 0)
(0.707349 0.000264811 0)
(0.707222 0.000215711 0)
(0.707127 0.000179532 0)
(0.707064 0.000142786 0)
(0.707037 9.31852e-05 0)
(0.707057 1.84196e-05 0)
(0.707144 -9.50306e-05 0)
(0.707323 -0.000263163 0)
(0.707632 -0.000505946 0)
(0.708119 -0.000849226 0)
(0.708848 -0.00132732 0)
(0.709905 -0.00198674 0)
(0.711403 -0.00289168 0)
(0.713492 -0.00413245 0)
(0.716371 -0.00583864 0)
(0.720307 -0.00820021 0)
(0.725656 -0.0115018 0)
(0.732894 -0.016179 0)
(0.742648 -0.022911 0)
(0.755712 -0.0327688 0)
(0.773012 -0.0474397 0)
(0.795416 -0.0695179 0)
(0.823116 -0.102726 0)
(0.854455 -0.151431 0)
(0.884083 -0.218692 0)
(1.01141 0.165871 0)
(1.06627 0.309363 0)
(1.08867 0.340925 0)
(1.08248 0.313975 0)
(1.05519 0.26571 0)
(1.01892 0.214805 0)
(0.981399 0.169056 0)
(0.94686 0.130799 0)
(0.917103 0.0999916 0)
(0.892525 0.0757163 0)
(0.87281 0.0568534 0)
(0.857334 0.0423448 0)
(0.845395 0.03128 0)
(0.836317 0.0229084 0)
(0.829502 0.0166251 0)
(0.824446 0.0119492 0)
(0.820735 0.00850154 0)
(0.81804 0.00598537 0)
(0.816101 0.0041702 0)
(0.814718 0.00287807 0)
(0.813737 0.00197244 0)
(0.813044 0.00134922 0)
(0.812552 0.000929453 0)
(0.812202 0.000653476 0)
(0.811948 0.000476167 0)
(0.811761 0.000363181 0)
(0.811624 0.000287904 0)
(0.811527 0.000228971 0)
(0.811469 0.000168231 0)
(0.811457 8.89769e-05 0)
(0.811505 -2.5641e-05 0)
(0.811633 -0.000194181 0)
(0.811873 -0.000438582 0)
(0.812264 -0.000786124 0)
(0.812862 -0.00127191 0)
(0.813738 -0.00194219 0)
(0.814985 -0.00285908 0)
(0.816724 -0.00410731 0)
(0.819115 -0.00580437 0)
(0.822363 -0.0081158 0)
(0.826735 -0.0112786 0)
(0.832577 -0.0156377 0)
(0.840323 -0.0217011 0)
(0.850507 -0.0302244 0)
(0.863736 -0.0423296 0)
(0.880589 -0.0596552 0)
(0.901363 -0.0844855 0)
(0.925493 -0.119688 0)
(0.950622 -0.167953 0)
(0.97185 -0.229863 0)
(1.00712 0.141065 0)
(1.05705 0.283525 0)
(1.09101 0.329946 0)
(1.10288 0.318208 0)
(1.09449 0.27981 0)
(1.07439 0.233365 0)
(1.04941 0.188318 0)
(1.02404 0.148645 0)
(1.00075 0.115467 0)
(0.98065 0.0885711 0)
(0.963984 0.0672131 0)
(0.950565 0.0505059 0)
(0.94 0.0375937 0)
(0.93183 0.0277192 0)
(0.925609 0.0202425 0)
(0.920934 0.0146367 0)
(0.917462 0.0104763 0)
(0.914912 0.00742192 0)
(0.913056 0.00520605 0)
(0.911715 0.00361968 0)
(0.910753 0.00250103 0)
(0.910063 0.00172573 0)
(0.909567 0.00119881 0)
(0.909208 0.000847977 0)
(0.908945 0.000618194 0)
(0.908752 0.000467244 0)
(0.908612 0.00036212 0)
(0.908518 0.000276059 0)
(0.908469 0.000186072 0)
(0.908475 7.0792e-05 0)
(0.90855 -9.14849e-05 0)
(0.908719 -0.000324731 0)
(0.909013 -0.000657255 0)
(0.909479 -0.00112411 0)
(0.910172 -0.00177011 0)
(0.91117 -0.00265382 0)
(0.912569 -0.00385306 0)
(0.914494 -0.00547266 0)
(0.917103 -0.00765569 0)
(0.920598 -0.0105999 0)
(0.925231 -0.0145815 0)
(0.931314 -0.0199905 0)
(0.939217 -0.0273806 0)
(0.949353 -0.0375372 0)
(0.962126 -0.0515612 0)
(0.977796 -0.0709468 0)
(0.996218 -0.0975866 0)
(1.01637 -0.133547 0)
(1.03574 -0.180275 0)
(1.05019 -0.23702 0)
(1.00406 0.12049 0)
(1.0487 0.256554 0)
(1.08879 0.311741 0)
(1.11347 0.312268 0)
(1.12054 0.283636 0)
(1.11517 0.243055 0)
(1.10265 0.200564 0)
(1.08714 0.161221 0)
(1.07134 0.12711 0)
(1.05677 0.0986941 0)
(1.04413 0.0756521 0)
(1.0336 0.0573303 0)
(1.02508 0.0429852 0)
(1.01836 0.0318995 0)
(1.01314 0.023433 0)
(1.00917 0.0170391 0)
(1.00617 0.0122639 0)
(1.00394 0.00873846 0)
(1.00229 0.00616732 0)
(1.00109 0.00431706 0)
(1.00021 0.00300517 0)
(0.999569 0.00209026 0)
(0.999101 0.00146355 0)
(0.998756 0.00104168 0)
(0.998501 0.000760755 0)
(0.998313 0.000571358 0)
(0.998177 0.000434514 0)
(0.99809 0.000318289 0)
(0.998053 0.000194941 0)
(0.998077 3.84203e-05 0)
(0.998178 -0.000177925 0)
(0.998382 -0.000483621 0)
(0.998724 -0.000913498 0)
(0.99925 -0.0015105 0)
(1.00002 -0.00232914 0)
(1.00111 -0.00344003 0)
(1.00261 -0.00493595 0)
(1.00466 -0.00694022 0)
(1.00739 -0.00961835 0)
(1.011 -0.0131945 0)
(1.01572 -0.0179742 0)
(1.0218 -0.0243759 0)
(1.02954 -0.032972 0)
(1.03923 -0.044538 0)
(1.05107 -0.0601014 0)
(1.06506 -0.0809599 0)
(1.08075 -0.108605 0)
(1.0969 -0.144429 0)
(1.11112 -0.189014 0)
(1.12007 -0.240968 0)
(1.00194 0.103245 0)
(1.04174 0.229824 0)
(1.08467 0.289031 0)
(1.11816 0.298691 0)
(1.13744 0.278839 0)
(1.14483 0.244617 0)
(1.14396 0.205875 0)
(1.13828 0.168231 0)
(1.13037 0.134453 0)
(1.12193 0.105581 0)
(1.11395 0.0816978 0)
(1.10689 0.0624079 0)
(1.10094 0.0471153 0)
(1.09609 0.0351778 0)
(1.09223 0.0259851 0)
(1.08921 0.0189944 0)
(1.0869 0.0137423 0)
(1.08514 0.00984417 0)
(1.08382 0.00698739 0)
(1.08283 0.00492185 0)
(1.0821 0.00345015 0)
(1.08156 0.00241811 0)
(1.08115 0.00170626 0)
(1.08084 0.00122243 0)
(1.08061 0.000895435 0)
(1.08043 0.000669815 0)
(1.08031 0.000501389 0)
(1.08023 0.000353568 0)
(1.08021 0.000194186 0)
(1.08025 -7.28366e-06 0)
(1.08038 -0.00028232 0)
(1.08061 -0.000665908 0)
(1.08099 -0.00119928 0)
(1.08156 -0.00193302 0)
(1.08237 -0.00293093 0)
(1.08352 -0.00427485 0)
(1.08508 -0.00607105 0)
(1.08717 -0.00845879 0)
(1.08994 -0.0116218 0)
(1.09354 -0.015804 0)
(1.09817 -0.0213292 0)
(1.10404 -0.0286283 0)
(1.11134 -0.0382687 0)
(1.12025 -0.050986 0)
(1.13082 -0.0677017 0)
(1.14282 -0.0894984 0)
(1.15564 -0.117499 0)
(1.16797 -0.152563 0)
(1.17767 -0.194708 0)
(1.18209 -0.242293 0)
(1.00047 0.0885436 0)
(1.03617 0.203959 0)
(1.08004 0.263633 0)
(1.11942 0.279519 0)
(1.1481 0.267032 0)
(1.16619 0.239036 0)
(1.17577 0.204692 0)
(1.1794 0.169733 0)
(1.17932 0.137334 0)
(1.17722 0.108964 0)
(1.17422 0.0850539 0)
(1.171 0.0654558 0)
(1.16797 0.0497349 0)
(1.16529 0.0373456 0)
(1.16303 0.0277299 0)
(1.16119 0.0203694 0)
(1.15972 0.0148086 0)
(1.15856 0.010661 0)
(1.15766 0.0076078 0)
(1.15697 0.00539085 0)
(1.15644 0.00380439 0)
(1.15602 0.00268645 0)
(1.1557 0.00191061 0)
(1.15545 0.00137867 0)
(1.15526 0.00101422 0)
(1.15511 0.000757242 0)
(1.155 0.000559427 0)
(1.15494 0.000380304 0)
(1.15493 0.00018384 0)
(1.15499 -6.45633e-05 0)
(1.15513 -0.000400876 0)
(1.15538 -0.000865224 0)
(1.15578 -0.00150485 0)
(1.15638 -0.00237749 0)
(1.15722 -0.00355538 0)
(1.15838 -0.0051303 0)
(1.15994 -0.00722003 0)
(1.16202 -0.00997668 0)
(1.16472 -0.0135975 0)
(1.16819 -0.0183386 0)
(1.17259 -0.0245324 0)
(1.17805 -0.032607 0)
(1.1847 -0.0431071 0)
(1.1926 -0.0567075 0)
(1.20166 -0.0742077 0)
(1.21154 -0.0964801 0)
(1.2215 -0.12433 0)
(1.23028 -0.158218 0)
(1.23603 -0.197811 0)
(1.2367 -0.241436 0)
(0.99946 0.0757631 0)
(1.03181 0.179176 0)
(1.07559 0.236722 0)
(1.11881 0.256319 0)
(1.15459 0.249651 0)
(1.18145 0.227367 0)
(1.2001 0.197651 0)
(1.21222 0.166028 0)
(1.21959 0.135823 0)
(1.22372 0.108777 0)
(1.22576 0.0855851 0)
(1.22654 0.0663149 0)
(1.22659 0.0506872 0)
(1.22627 0.0382615 0)
(1.22578 0.028547 0)
(1.22525 0.0210657 0)
(1.22473 0.0153842 0)
(1.22427 0.0111277 0)
(1.22387 0.00798167 0)
(1.22352 0.00568867 0)
(1.22323 0.00404153 0)
(1.22298 0.00287588 0)
(1.22277 0.0020625 0)
(1.22259 0.00150031 0)
(1.22245 0.00111008 0)
(1.22233 0.000828972 0)
(1.22225 0.000605897 0)
(1.22221 0.000397478 0)
(1.22221 0.000164559 0)
(1.22228 -0.000130937 0)
(1.22243 -0.000528954 0)
(1.2227 -0.00107424 0)
(1.22311 -0.00181946 0)
(1.2237 -0.00282868 0)
(1.22454 -0.00418148 0)
(1.22567 -0.00597799 0)
(1.22719 -0.00834513 0)
(1.22918 -0.0114444 0)
(1.23174 -0.0154816 0)
(1.23497 -0.0207186 0)
(1.239 -0.0274864 0)
(1.2439 -0.0361993 0)
(1.24974 -0.0473654 0)
(1.25647 -0.0615873 0)
(1.2639 -0.0795394 0)
(1.27161 -0.101901 0)
(1.27882 -0.129219 0)
(1.28437 -0.161664 0)
(1.2867 -0.1987 0)
(1.2842 -0.238735 0)
(0.99876 0.0644263 0)
(1.02844 0.155485 0)
(1.07161 0.209034 0)
(1.11728 0.230257 0)
(1.15835 0.22791 0)
(1.19226 0.210624 0)
(1.21861 0.185482 0)
(1.23824 0.157571 0)
(1.25243 0.130162 0)
(1.26244 0.105114 0)
(1.26937 0.0832954 0)
(1.27409 0.0649396 0)
(1.27726 0.0499043 0)
(1.27935 0.0378524 0)
(1.2807 0.0283673 0)
(1.28155 0.0210222 0)
(1.28206 0.0154181 0)
(1.28235 0.0112027 0)
(1.28248 0.00807603 0)
(1.28252 0.00578969 0)
(1.2825 0.00414198 0)
(1.28244 0.00297162 0)
(1.28236 0.00215095 0)
(1.28227 0.00157938 0)
(1.28218 0.00117739 0)
(1.2821 0.00088134 0)
(1.28205 0.000638818 0)
(1.28202 0.000404685 0)
(1.28204 0.000137556 0)
(1.28212 -0.000203382 0)
(1.28227 -0.000661381 0)
(1.28254 -0.00128513 0)
(1.28294 -0.00213192 0)
(1.28352 -0.00327117 0)
(1.28432 -0.00478849 0)
(1.2854 -0.00679052 0)
(1.28682 -0.00941081 0)
(1.28866 -0.0128168 0)
(1.291 -0.0172181 0)
(1.29391 -0.022876 0)
(1.29746 -0.0301126 0)
(1.30169 -0.0393195 0)
(1.30659 -0.0509599 0)
(1.31205 -0.0655592 0)
(1.31781 -0.0836721 0)
(1.32338 -0.10581 0)
(1.32802 -0.132313 0)
(1.33066 -0.163153 0)
(1.33001 -0.19769 0)
(1.32482 -0.234459 0)
(0.998271 0.0541735 0)
(1.02585 0.132793 0)
(1.06821 0.181014 0)
(1.11539 0.202187 0)
(1.16037 0.202803 0)
(1.19984 0.189732 0)
(1.23258 0.168929 0)
(1.25869 0.144905 0)
(1.27894 0.120711 0)
(1.29431 0.0981946 0)
(1.3058 0.0783044 0)
(1.31427 0.0613842 0)
(1.32044 0.0474007 0)
(1.3249 0.0361107 0)
(1.32807 0.0271723 0)
(1.3303 0.0202165 0)
(1.33184 0.0148878 0)
(1.33289 0.0108656 0)
(1.33358 0.00787333 0)
(1.33401 0.00567932 0)
(1.33427 0.00409393 0)
(1.33441 0.00296435 0)
(1.33447 0.00216877 0)
(1.33447 0.00161047 0)
(1.33445 0.00121233 0)
(1.33441 0.000911911 0)
(1.33439 0.00065707 0)
(1.33438 0.000402143 0)
(1.33441 0.000104512 0)
(1.33449 -0.000278527 0)
(1.33465 -0.000792747 0)
(1.3349 -0.00148997 0)
(1.33528 -0.0024312 0)
(1.33582 -0.00369009 0)
(1.33656 -0.0053568 0)
(1.33755 -0.00754261 0)
(1.33884 -0.0103851 0)
(1.34048 -0.0140544 0)
(1.34253 -0.0187596 0)
(1.34504 -0.0247562 0)
(1.34804 -0.0323514 0)
(1.35152 -0.041908 0)
(1.35541 -0.05384 0)
(1.35955 -0.0685961 0)
(1.36364 -0.0866215 0)
(1.36717 -0.108286 0)
(1.36942 -0.133773 0)
(1.36947 -0.162918 0)
(1.36624 -0.195043 0)
(1.35876 -0.22883 0)
(0.997928 0.0447332 0)
(1.02387 0.110966 0)
(1.0654 0.152917 0)
(1.11348 0.172719 0)
(1.1613 0.175131 0)
(1.20512 0.165506 0)
(1.24304 0.148717 0)
(1.27458 0.128612 0)
(1.30005 0.10791 0)
(1.32015 0.0883318 0)
(1.33572 0.0708249 0)
(1.34761 0.0557878 0)
(1.35657 0.0432639 0)
(1.36323 0.0330886 0)
(1.36812 0.0249915 0)
(1.37167 0.0186639 0)
(1.3742 0.0137996 0)
(1.37599 0.0101176 0)
(1.37722 0.00737196 0)
(1.37805 0.00535462 0)
(1.37859 0.00389398 0)
(1.37892 0.00285071 0)
(1.37912 0.00211295 0)
(1.37922 0.00159112 0)
(1.37926 0.00121307 0)
(1.37927 0.000919605 0)
(1.37927 0.000660446 0)
(1.37928 0.00039067 0)
(1.37932 6.74714e-05 0)
(1.3794 -0.000352834 0)
(1.37955 -0.00091768 0)
(1.37978 -0.00168113 0)
(1.38013 -0.00270692 0)
(1.38061 -0.0040717 0)
(1.38127 -0.00586872 0)
(1.38214 -0.00821194 0)
(1.38325 -0.0112406 0)
(1.38465 -0.0151244 0)
(1.38637 -0.0200684 0)
(1.38842 -0.0263178 0)
(1.39081 -0.0341609 0)
(1.39348 -0.043928 0)
(1.39634 -0.0559826 0)
(1.39916 -0.0707011 0)
(1.40162 -0.0884319 0)
(1.40323 -0.109429 0)
(1.40332 -0.133758 0)
(1.40106 -0.161169 0)
(1.39559 -0.190986 0)
(1.38614 -0.222034 0)
(0.997687 0.035899 0)
(1.02239 0.0898575 0)
(1.06315 0.124878 0)
(1.11174 0.142293 0)
(1.16161 0.14553 0)
(1.20873 0.138657 0)
(1.25076 0.125526 0)
(1.28672 0.109287 0)
(1.31653 0.0922422 0)
(1.34064 0.0759036 0)
(1.35974 0.0611419 0)
(1.37462 0.0483592 0)
(1.38603 0.0376437 0)
(1.39466 0.0288919 0)
(1.4011 0.0218981 0)
(1.40584 0.0164142 0)
(1.40928 0.0121871 0)
(1.41174 0.00898076 0)
(1.41348 0.00658593 0)
(1.41467 0.0048242 0)
(1.41547 0.00354714 0)
(1.41599 0.00263341 0)
(1.41632 0.00198477 0)
(1.41651 0.00152184 0)
(1.41661 0.00117984 0)
(1.41667 0.000904735 0)
(1.4167 0.000649642 0)
(1.41672 0.000371623 0)
(1.41677 2.87271e-05 0)
(1.41684 -0.000422778 0)
(1.41698 -0.0010311 0)
(1.41718 -0.00185162 0)
(1.41748 -0.00294975 0)
(1.41789 -0.00440393 0)
(1.41845 -0.006309 0)
(1.41917 -0.00877979 0)
(1.42008 -0.011955 0)
(1.4212 -0.0160011 0)
(1.42255 -0.0211162 0)
(1.42411 -0.0275323 0)
(1.42585 -0.0355156 0)
(1.4277 -0.0453624 0)
(1.4295 -0.0573874 0)
(1.43104 -0.0719002 0)
(1.43196 -0.0891666 0)
(1.43179 -0.109348 0)
(1.42992 -0.132424 0)
(1.42564 -0.158096 0)
(1.41823 -0.185713 0)
(1.4071 -0.214234 0)
(0.99752 0.0275109 0)
(1.02129 0.0693216 0)
(1.06141 0.096953 0)
(1.11028 0.111217 0)
(1.16159 0.114508 0)
(1.21117 0.109795 0)
(1.25633 0.0999835 0)
(1.29575 0.087514 0)
(1.32902 0.0742187 0)
(1.35637 0.0613332 0)
(1.37835 0.0495943 0)
(1.3957 0.0393629 0)
(1.40916 0.0307418 0)
(1.41945 0.0236718 0)
(1.42721 0.0180038 0)
(1.43297 0.0135486 0)
(1.43719 0.0101084 0)
(1.44024 0.00749604 0)
(1.44241 0.0055438 0)
(1.44392 0.00410756 0)
(1.44495 0.00306646 0)
(1.44564 0.00232096 0)
(1.44608 0.00178969 0)
(1.44636 0.00140608 0)
(1.44652 0.00111489 0)
(1.44661 0.000868951 0)
(1.44666 0.000626188 0)
(1.4467 0.000346801 0)
(1.44675 -9.3089e-06 0)
(1.44682 -0.000485021 0)
(1.44693 -0.00112843 0)
(1.4471 -0.00199531 0)
(1.44734 -0.00315171 0)
(1.44767 -0.0046767 0)
(1.4481 -0.00666526 0)
(1.44866 -0.00923141 0)
(1.44935 -0.0125113 0)
(1.45017 -0.0166662 0)
(1.45112 -0.0218846 0)
(1.45216 -0.0283831 0)
(1.45325 -0.0364046 0)
(1.45427 -0.0462112 0)
(1.45505 -0.0580716 0)
(1.45535 -0.0722363 0)
(1.45483 -0.0889014 0)
(1.45303 -0.108156 0)
(1.44942 -0.12992 0)
(1.44337 -0.15387 0)
(1.43429 -0.179393 0)
(1.42172 -0.205572 0)
(0.997407 0.0194416 0)
(1.02053 0.0492195 0)
(1.06015 0.0691532 0)
(1.10916 0.0797137 0)
(1.16144 0.0824735 0)
(1.21274 0.0794517 0)
(1.26017 0.0726699 0)
(1.30212 0.0638638 0)
(1.33798 0.0543607 0)
(1.36778 0.045074 0)
(1.39197 0.0365611 0)
(1.41122 0.0291061 0)
(1.42627 0.0228013 0)
(1.43785 0.0176166 0)
(1.44664 0.013452 0)
(1.4532 0.0101746 0)
(1.45804 0.0076429 0)
(1.46156 0.0057212 0)
(1.46407 0.00428693 0)
(1.46584 0.00323384 0)
(1.46706 0.00247214 0)
(1.46788 0.00192712 0)
(1.46842 0.00153692 0)
(1.46876 0.00124994 0)
(1.46897 0.00102227 0)
(1.4691 0.000815091 0)
(1.46917 0.000592321 0)
(1.46922 0.000318327 0)
(1.46926 -4.42393e-05 0)
(1.46932 -0.000536561 0)
(1.4694 -0.00120578 0)
(1.46953 -0.00210718 0)
(1.46971 -0.00330648 0)
(1.46994 -0.0048822 0)
(1.47025 -0.00692821 0)
(1.47062 -0.00955621 0)
(1.47107 -0.0128982 0)
(1.47158 -0.0171082 0)
(1.47212 -0.0223637 0)
(1.47265 -0.0288645 0)
(1.47308 -0.0368294 0)
(1.47329 -0.0464881 0)
(1.47309 -0.0580666 0)
(1.47223 -0.0717642 0)
(1.47038 -0.0877197 0)
(1.46712 -0.105967 0)
(1.46196 -0.126386 0)
(1.45437 -0.148645 0)
(1.44387 -0.172178 0)
(1.43008 -0.196177 0)
(0.997338 0.011586 0)
(1.02004 0.0294204 0)
(1.05934 0.0414586 0)
(1.1084 0.047943 0)
(1.16128 0.0497645 0)
(1.21368 0.0480939 0)
(1.26257 0.0441228 0)
(1.3062 0.038888 0)
(1.34377 0.033193 0)
(1.3752 0.0275975 0)
(1.40088 0.0224485 0)
(1.42142 0.017927 0)
(1.43755 0.0140964 0)
(1.45003 0.0109436 0)
(1.45952 0.00841131 0)
(1.46664 0.00642083 0)
(1.47191 0.00488709 0)
(1.47575 0.00372758 0)
(1.47851 0.0028672 0)
(1.48046 0.0022402 0)
(1.48181 0.00179036 0)
(1.48273 0.00147004 0)
(1.48334 0.00123882 0)
(1.48374 0.00106174 0)
(1.48398 0.000907562 0)
(1.48413 0.000746959 0)
(1.48421 0.000550813 0)
(1.48427 0.000288496 0)
(1.48431 -7.38185e-05 0)
(1.48435 -0.000574874 0)
(1.48441 -0.0012601 0)
(1.48448 -0.00218348 0)
(1.48459 -0.00340947 0)
(1.48473 -0.00501504 0)
(1.48489 -0.00709177 0)
(1.48509 -0.00974777 0)
(1.48529 -0.0131094 0)
(1.48548 -0.0173224 0)
(1.48561 -0.0225518 0)
(1.48562 -0.0289801 0)
(1.48542 -0.0368025 0)
(1.48485 -0.0462179 0)
(1.48373 -0.0574144 0)
(1.4818 -0.0705472 0)
(1.47875 -0.0857092 0)
(1.47419 -0.102894 0)
(1.46767 -0.121953 0)
(1.45876 -0.142564 0)
(1.44705 -0.164204 0)
(1.43224 -0.186166 0)
(0.997305 0.0038532 0)
(1.0198 0.00980011 0)
(1.05893 0.0138329 0)
(1.10802 0.0160263 0)
(1.16119 0.016669 0)
(1.21412 0.016145 0)
(1.26374 0.0148481 0)
(1.30819 0.0131233 0)
(1.34661 0.0112397 0)
(1.37887 0.00938622 0)
(1.40529 0.0076807 0)
(1.42648 0.0061855 0)
(1.44317 0.00492321 0)
(1.4561 0.00389044 0)
(1.46595 0.00306856 0)
(1.47336 0.00243138 0)
(1.47885 0.00195013 0)
(1.48286 0.00159653 0)
(1.48575 0.00134432 0)
(1.4878 0.00116979 0)
(1.48923 0.00105179 0)
(1.4902 0.000971171 0)
(1.49085 0.000910158 0)
(1.49128 0.000851478 0)
(1.49154 0.000777457 0)
(1.4917 0.000669042 0)
(1.4918 0.000504759 0)
(1.49185 0.000259616 0)
(1.49189 -9.60863e-05 0)
(1.49191 -0.000598034 0)
(1.49194 -0.00128929 0)
(1.49196 -0.00222179 0)
(1.492 -0.00345794 0)
(1.49203 -0.00507227 0)
(1.49206 -0.00715304 0)
(1.49206 -0.0098037 0)
(1.49202 -0.013144 0)
(1.4919 -0.0173102 0)
(1.49163 -0.0224545 0)
(1.49115 -0.0287419 0)
(1.49033 -0.036345 0)
(1.48904 -0.0454344 0)
(1.48707 -0.0561646 0)
(1.48417 -0.0686542 0)
(1.48004 -0.0829595 0)
(1.47433 -0.0990441 0)
(1.46665 -0.116747 0)
(1.45662 -0.135756 0)
(1.44389 -0.155597 0)
(1.42825 -0.175648 0)
(0.997305 -0.00383954 0)
(1.0198 -0.00976124 0)
(1.05893 -0.0137693 0)
(1.10802 -0.0159373 0)
(1.16119 -0.0165528 0)
(1.21412 -0.0159986 0)
(1.26374 -0.0146676 0)
(1.30819 -0.0129041 0)
(1.34662 -0.0109761 0)
(1.37888 -0.0090717 0)
(1.4053 -0.00730795 0)
(1.4265 -0.00574651 0)
(1.4432 -0.00440941 0)
(1.45612 -0.00329294 0)
(1.46599 -0.00237852 0)
(1.4734 -0.00164044 0)
(1.4789 -0.00105114 0)
(1.48292 -0.000584388 0)
(1.48582 -0.000217157 0)
(1.48787 6.94665e-05 0)
(1.48931 0.000289909 0)
(1.49029 0.000454033 0)
(1.49095 0.000567171 0)
(1.49139 0.000630163 0)
(1.49166 0.000639306 0)
(1.49183 0.000586184 0)
(1.49193 0.000457351 0)
(1.49198 0.00023384 0)
(1.492 -0.000109493 0)
(1.492 -0.000604802 0)
(1.492 -0.00129224 0)
(1.49197 -0.00222111 0)
(1.49193 -0.00345105 0)
(1.49186 -0.00505336 0)
(1.49175 -0.00711219 0)
(1.49157 -0.00972548 0)
(1.49129 -0.0130055 0)
(1.49087 -0.0170787 0)
(1.49022 -0.0220838 0)
(1.48927 -0.0281689 0)
(1.48789 -0.0354853 0)
(1.48593 -0.0441781 0)
(1.48319 -0.0543729 0)
(1.47942 -0.0661577 0)
(1.47435 -0.0795606 0)
(1.46765 -0.0945245 0)
(1.45898 -0.110883 0)
(1.44801 -0.128341 0)
(1.43446 -0.146471 0)
(1.41815 -0.164727 0)
(0.997338 -0.0115725 0)
(1.02004 -0.0293821 0)
(1.05934 -0.0413959 0)
(1.10841 -0.0478552 0)
(1.16129 -0.0496497 0)
(1.21369 -0.0479492 0)
(1.26259 -0.0439444 0)
(1.30622 -0.0386714 0)
(1.3438 -0.0329324 0)
(1.37524 -0.0272865 0)
(1.40092 -0.0220799 0)
(1.42147 -0.0174929 0)
(1.43762 -0.0135882 0)
(1.45011 -0.0103525 0)
(1.45962 -0.00772852 0)
(1.46676 -0.00563809 0)
(1.47205 -0.00399724 0)
(1.47591 -0.00272551 0)
(1.4787 -0.00175098 0)
(1.48067 -0.00101262 0)
(1.48205 -0.000460828 0)
(1.483 -5.7137e-05 0)
(1.48364 0.000226609 0)
(1.48406 0.000409146 0)
(1.48433 0.000500625 0)
(1.4845 0.000503241 0)
(1.48459 0.000411632 0)
(1.48464 0.000213003 0)
(1.48465 -0.000113006 0)
(1.48463 -0.000594699 0)
(1.48459 -0.00126892 0)
(1.48452 -0.00218182 0)
(1.4844 -0.00338974 0)
(1.48424 -0.00496012 0)
(1.48399 -0.00697231 0)
(1.48364 -0.00951811 0)
(1.48314 -0.0127018 0)
(1.48242 -0.0166396 0)
(1.48142 -0.021457 0)
(1.48004 -0.0272859 0)
(1.47815 -0.0342579 0)
(1.47559 -0.0424953 0)
(1.47216 -0.0520989 0)
(1.46764 -0.0631321 0)
(1.46175 -0.0756015 0)
(1.45421 -0.0894369 0)
(1.44472 -0.104472 0)
(1.43299 -0.120433 0)
(1.41879 -0.136934 0)
(1.40198 -0.153499 0)
(0.997407 -0.0194286 0)
(1.02053 -0.0491823 0)
(1.06016 -0.0690922 0)
(1.10917 -0.0796281 0)
(1.16146 -0.0823616 0)
(1.21276 -0.0793105 0)
(1.2602 -0.0724958 0)
(1.30216 -0.0636522 0)
(1.33803 -0.0541061 0)
(1.36784 -0.04477 0)
(1.39204 -0.0362007 0)
(1.41131 -0.0286815 0)
(1.42638 -0.0223041 0)
(1.43799 -0.0170382 0)
(1.4468 -0.0127836 0)
(1.4534 -0.00940809 0)
(1.45827 -0.0067712 0)
(1.46182 -0.00473914 0)
(1.46438 -0.00319247 0)
(1.46619 -0.00202948 0)
(1.46746 -0.00116684 0)
(1.46833 -0.000538749 0)
(1.46892 -9.52732e-05 0)
(1.46931 0.000199383 0)
(1.46956 0.000368595 0)
(1.46971 0.000424736 0)
(1.46979 0.000370271 0)
(1.46983 0.000198471 0)
(1.46983 -0.000106201 0)
(1.46979 -0.000568044 0)
(1.46972 -0.00122032 0)
(1.4696 -0.00210568 0)
(1.46942 -0.00327671 0)
(1.46916 -0.00479651 0)
(1.46879 -0.00673914 0)
(1.46828 -0.0091898 0)
(1.46757 -0.0122445 0)
(1.46659 -0.016009 0)
(1.46527 -0.0205962 0)
(1.46351 -0.0261225 0)
(1.46116 -0.0327014 0)
(1.45807 -0.0404356 0)
(1.45405 -0.0494049 0)
(1.44888 -0.0596528 0)
(1.44231 -0.0711703 0)
(1.43408 -0.0838795 0)
(1.42392 -0.0976194 0)
(1.4116 -0.112137 0)
(1.39692 -0.12709 0)
(1.37976 -0.142058 0)
(0.99752 -0.0274985 0)
(1.0213 -0.069286 0)
(1.06142 -0.0968945 0)
(1.11029 -0.111135 0)
(1.16161 -0.1144 0)
(1.21119 -0.109659 0)
(1.25637 -0.0998156 0)
(1.2958 -0.0873098 0)
(1.32908 -0.0739728 0)
(1.35645 -0.0610396 0)
(1.37846 -0.0492461 0)
(1.39583 -0.0389524 0)
(1.40932 -0.0302609 0)
(1.41964 -0.0231121 0)
(1.42743 -0.0173568 0)
(1.43324 -0.0128061 0)
(1.4375 -0.00926361 0)
(1.44061 -0.00654365 0)
(1.44283 -0.00448162 0)
(1.4444 -0.00293771 0)
(1.4455 -0.00179725 0)
(1.44626 -0.0009692 0)
(1.44677 -0.000383671 0)
(1.44711 1.07607e-05 0)
(1.44733 0.000249585 0)
(1.44746 0.00035454 0)
(1.44753 0.000335352 0)
(1.44756 0.000191025 0)
(1.44754 -8.93151e-05 0)
(1.44749 -0.000525954 0)
(1.44739 -0.00114844 0)
(1.44723 -0.0019957 0)
(1.44699 -0.00311624 0)
(1.44665 -0.00456846 0)
(1.44617 -0.00642079 0)
(1.44551 -0.00875156 0)
(1.44461 -0.0116484 0)
(1.44341 -0.0152067 0)
(1.4418 -0.0195272 0)
(1.4397 -0.024712 0)
(1.43695 -0.0308585 0)
(1.43341 -0.038052 0)
(1.42889 -0.0463549 0)
(1.42319 -0.0557953 0)
(1.41607 -0.0663531 0)
(1.40729 -0.0779473 0)
(1.39663 -0.0904249 0)
(1.38387 -0.103555 0)
(1.36886 -0.117034 0)
(1.35151 -0.130494 0)
(0.997687 -0.0358874 0)
(1.02239 -0.089824 0)
(1.06315 -0.124822 0)
(1.11175 -0.142215 0)
(1.16164 -0.145428 0)
(1.20877 -0.138528 0)
(1.25081 -0.125366 0)
(1.28678 -0.109092 0)
(1.31661 -0.0920078 0)
(1.34074 -0.0756234 0)
(1.35987 -0.0608094 0)
(1.37477 -0.0479671 0)
(1.38622 -0.0371841 0)
(1.39489 -0.0283567 0)
(1.40137 -0.021279 0)
(1.40617 -0.0157032 0)
(1.40967 -0.0113775 0)
(1.4122 -0.00806728 0)
(1.41401 -0.00556615 0)
(1.41528 -0.00369976 0)
(1.41616 -0.00232552 0)
(1.41677 -0.0013301 0)
(1.41718 -0.000626117 0)
(1.41746 -0.000148522 0)
(1.41764 0.000148736 0)
(1.41775 0.000295595 0)
(1.4178 0.000308215 0)
(1.41782 0.000190771 0)
(1.41779 -6.32702e-05 0)
(1.41772 -0.000470325 0)
(1.4176 -0.00105623 0)
(1.4174 -0.00185603 0)
(1.41711 -0.002914 0)
(1.4167 -0.0042836 0)
(1.41612 -0.00602742 0)
(1.41534 -0.00821678 0)
(1.41428 -0.0109309 0)
(1.41288 -0.0142552 0)
(1.41104 -0.0182789 0)
(1.40865 -0.0230909 0)
(1.40558 -0.0287742 0)
(1.40167 -0.0353991 0)
(1.39675 -0.0430139 0)
(1.39061 -0.0516347 0)
(1.38307 -0.0612344 0)
(1.37388 -0.0717318 0)
(1.36286 -0.0829843 0)
(1.34983 -0.0947839 0)
(1.33464 -0.106861 0)
(1.31723 -0.118896 0)
(0.997928 -0.0447225 0)
(1.02388 -0.110935 0)
(1.06541 -0.152866 0)
(1.11349 -0.172647 0)
(1.16133 -0.175035 0)
(1.20516 -0.165385 0)
(1.2431 -0.148567 0)
(1.27465 -0.128429 0)
(1.30014 -0.107689 0)
(1.32027 -0.088068 0)
(1.33587 -0.0705116 0)
(1.3478 -0.055418 0)
(1.35679 -0.0428302 0)
(1.3635 -0.0325831 0)
(1.36845 -0.0244062 0)
(1.37206 -0.0179913 0)