/*--------------------------------*- C++ -*----------------------------------*\
  =========                 |
  \\      /  F ield         | OpenFOAM: The Open Source CFD Toolbox
   \\    /   O peration     | Website:  https://openfoam.org
    \\  /    A nd           | Version:  6
     \\/     M anipulation  |
\*---------------------------------------------------------------------------*/
FoamFile
{
    version     2.0;
    format      ascii;
    class       volVectorField;
    location    "0";
    object      U;
}
// * * * * * * * * * * * * * * * * * * * * * * * * * * * * * * * * * * * * * //

dimensions      [0 1 -1 0 0 0 0];

internalField   nonuniform List<vector> 
13046
(
(0.642395 0.328684 0)
(0.53741 0.0620606 5.09891e-21)
(0.27878 0.0448221 1.14729e-20)
(0.62785 0.258443 0)
(0.340469 0.119769 1.02504e-20)
(0.45596 0.0435353 0)
(0.665901 0.277195 -1.45911e-21)
(0.457151 0.0184785 -2.6299e-21)
(0.320218 0.124083 1.13271e-20)
(0.88515 0.441781 -4.20192e-21)
(0.672704 -0.19386 0)
(0.0434452 -0.025096 -7.62826e-21)
(0.736096 0.362234 9.06871e-21)
(0.529293 0.0083992 8.16776e-21)
(0.235829 0.048483 -6.32065e-21)
(0.870428 0.508605 -2.10901e-21)
(0.0613064 -0.0516762 -1.22768e-20)
(0.712895 -0.124805 -4.30082e-21)
(0.453376 0.20926 0)
(0.381573 0.0428618 5.56925e-21)
(0.57899 0.179267 -1.54391e-20)
(0.876613 0.498867 2.33974e-21)
(0.0564249 -0.044661 2.45798e-20)
(0.702402 -0.139215 -1.42597e-21)
(0.589766 0.265525 -6.20267e-21)
(0.501604 0.0785819 9.37138e-21)
(0.330354 0.0816935 0)
(0.738402 0.38678 -1.81868e-22)
(0.548143 0.00880611 -2.38387e-21)
(0.218578 0.0294139 2.1863e-20)
(0.645694 0.346215 0)
(0.559391 0.0710849 0)
(0.264351 0.0234365 -1.16793e-20)
(0.552869 0.238277 2.17559e-20)
(0.355206 0.0903846 -3.8505e-21)
(0.495846 0.0978429 -1.45482e-20)
(0.543801 0.219026 9.46304e-23)
(0.379621 0.112828 0)
(0.475674 0.0980589 0)
(0.559297 0.34802 -7.94728e-21)
(0.291757 -0.0479553 -1.06949e-20)
(0.663525 0.13708 7.60232e-21)
(0.495982 0.163676 -5.05847e-21)
(0.443514 0.149451 5.16538e-21)
(0.445019 0.114013 0)
(0.525726 0.172743 -3.17455e-21)
(0.436369 0.16415 0)
(0.423361 0.0907739 1.68013e-21)
(0.66081 0.325089 0)
(0.518145 0.041975 3.68162e-22)
(0.270725 0.0577652 -6.30593e-24)
(0.337859 -0.1259 -1.35378e-20)
(0.489665 0.36175 0)
(0.788092 0.185979 9.18302e-21)
(0.361368 -0.14268 1.92808e-20)
(0.82173 0.204101 9.73522e-21)
(0.452429 0.343338 -1.24718e-20)
(0.711684 0.0019302 1.87685e-21)
(0.814848 0.557868 0)
(0.149285 -0.0934782 -1.01909e-20)
(0.862887 0.353814 4.27954e-21)
(0.503747 -0.0999513 -4.9287e-21)
(0.221669 0.120469 2.62596e-20)
(0.0898244 0.00210112 -1.39303e-20)
(0.635733 -0.138838 3.14804e-21)
(0.916036 0.455333 6.72076e-21)
(0.790042 0.561885 0)
(0.724122 0.0268604 -8.7089e-21)
(0.170292 -0.110073 -2.9882e-21)
(0.770381 0.547449 3.33258e-21)
(0.718165 0.038478 1.18023e-20)
(0.181289 -0.107648 4.06394e-21)
(0.724442 -0.00844583 1.95436e-23)
(0.828882 0.568202 -1.32658e-22)
(0.137712 -0.0987011 6.12835e-24)
(0.472686 0.231539 0)
(0.361991 0.0258298 -6.07344e-21)
(0.593675 0.167177 1.10202e-20)
(0.109742 -0.0805202 -1.12858e-20)
(0.851288 0.558625 9.87236e-21)
(0.714952 -0.0479062 4.16966e-21)
(0.615537 0.275479 -3.22655e-21)
(0.487346 0.0618976 3.36172e-21)
(0.319925 0.0923711 0)
(0.0773286 -0.00758566 1.25086e-20)
(0.649964 -0.150107 0)
(0.916262 0.459918 -3.98725e-21)
(0.954028 0.388939 7.04733e-21)
(0.118179 0.0659338 0)
(0.581068 -0.185761 2.45365e-21)
(0.153749 0.130683 0)
(0.993653 0.319226 0)
(0.538236 -0.244826 -3.31434e-22)
(0.850089 0.439675 8.55204e-21)
(0.87247 0.439422 -1.18797e-20)
(0.587295 -0.0595665 -9.5567e-21)
(0.589196 -0.0814531 4.49007e-21)
(0.154865 0.0168807 5.74608e-21)
(0.143879 0.0250185 -1.47211e-20)
(0.135566 0.0859648 6.9573e-22)
(0.959292 0.373329 -6.89541e-21)
(0.564326 -0.193808 0)
(0.556927 0.195601 4.17116e-23)
(0.413651 0.158625 0)
(0.42421 0.0723213 0)
(0.401824 0.278121 -2.2557e-20)
(0.781231 0.232185 4.44434e-21)
(0.377646 -0.097314 0)
(0.495344 0.341544 -3.42331e-21)
(0.325373 -0.0904511 0)
(0.737437 0.176765 1.72439e-20)
(0.79403 0.404145 0)
(0.0178123 -0.042614 1.04054e-20)
(0.65394 -0.233719 3.56377e-21)
(0.703897 0.342108 -6.3618e-21)
(0.517568 0.0222269 -3.44867e-21)
(0.254135 0.0600433 -1.13749e-20)
(0.862303 0.482898 -4.94491e-21)
(0.845411 0.464663 4.61499e-21)
(0.631832 -0.0607428 -2.66098e-21)
(0.128424 -0.0185782 -6.61971e-21)
(0.610315 -0.0491431 2.58799e-21)
(0.144238 -0.0066343 6.18502e-21)
(0.865402 0.442926 1.05523e-20)
(0.680112 -0.200308 4.9593e-21)
(0.0357365 -0.0330786 3.42079e-21)
(0.799995 0.423775 0)
(0.572165 -0.0258361 6.29866e-21)
(0.181051 0.0152103 -3.35092e-20)
(0.592535 0.364589 0)
(0.274022 -0.0404784 1.07613e-20)
(0.645667 0.116161 -4.38579e-22)
(0.176204 0.150507 0)
(0.988848 0.315493 0)
(0.527178 -0.23221 0)
(0.910628 0.427955 0)
(0.591899 -0.123056 1.25568e-20)
(0.130958 0.0392635 1.48458e-20)
(0.676455 0.365816 0)
(0.569167 0.0558053 0)
(0.246198 0.0109747 0)
(0.76353 0.296004 0)
(0.444312 -0.0499913 0)
(0.306447 0.159351 0)
(0.474547 0.334593 3.1676e-21)
(0.341381 -0.103107 0)
(0.763242 0.191937 -9.276e-21)
(0.406264 0.265914 2.18719e-20)
(0.763376 0.231845 9.59248e-21)
(0.379459 -0.0831125 -1.16991e-20)
(0.878367 0.368481 -9.95557e-21)
(0.522793 -0.107486 0)
(0.198235 0.098414 -3.41754e-20)
(0.383977 0.210785 0)
(0.706639 0.239414 -2.09102e-20)
(0.395073 -0.0334784 -2.98291e-21)
(0.410516 -0.156107 -5.4063e-21)
(0.868638 0.24788 -1.01691e-20)
(0.435612 -0.163103 0)
(0.891314 0.270215 -5.79562e-21)
(0.368772 0.286937 -1.08927e-20)
(0.327074 0.253452 1.04596e-20)
(0.782556 0.269123 -1.31699e-21)
(0.417899 -0.0773746 -6.16843e-21)
(0.33709 0.200791 6.41131e-21)
(0.90327 0.429032 4.32009e-21)
(0.0473795 -0.0145874 -3.95115e-21)
(0.654719 -0.205311 6.16e-21)
(0.821327 0.420809 3.02882e-21)
(0.0232789 -0.0406791 1.56446e-21)
(0.671732 -0.220103 0)
(0.910988 0.441216 -1.61627e-22)
(0.606946 -0.123609 0)
(0.116693 0.02399 -1.79376e-20)
(0.63807 0.429444 0)
(0.689565 0.104704 -2.45577e-21)
(0.252354 -0.0805722 -6.33991e-21)
(0.761956 0.255144 -8.7096e-21)
(0.36279 0.222858 0)
(0.402073 -0.0677158 0)
(0.0622367 0.0135948 0)
(0.623978 -0.215446 0)
(0.935672 0.405007 -3.62791e-21)
(0.61123 0.40468 0)
(0.681792 0.117998 5.308e-21)
(0.266385 -0.0693014 -1.6348e-21)
(0.382972 0.225148 0)
(0.720455 0.236604 0)
(0.386136 -0.0478316 0)
(0.73615 0.280292 -4.3077e-21)
(0.435788 -0.0364694 0)
(0.318315 0.157987 0)
(0.523546 -0.0224528 4.53557e-23)
(0.222799 0.0623603 7.72615e-21)
(0.782176 0.404285 -1.31548e-20)
(0.557351 -0.0156177 0)
(0.19764 0.0277856 3.46028e-20)
(0.940314 0.420722 7.97403e-21)
(0.0902205 0.0261526 -1.12816e-20)
(0.617859 -0.178008 1.19437e-20)
(0.169134 0.130995 -1.0187e-20)
(0.971105 0.339458 -4.34563e-21)
(0.536955 -0.208598 -1.23013e-20)
(0.97933 0.352714 1.1881e-20)
(0.564619 -0.221687 0)
(0.124739 0.0921057 1.00026e-20)
(0.33521 -0.161015 5.57019e-21)
(0.824349 0.173752 -4.11889e-21)
(0.519382 0.417976 -1.05195e-20)
(0.72796 0.316294 8.41081e-21)
(0.841644 0.568976 -5.08283e-21)
(0.117894 -0.0899372 6.96523e-21)
(0.727679 -0.0380113 -1.95171e-23)
(0.57803 -0.22908 0)
(0.971013 0.363572 3.42435e-21)
(0.103737 0.0678944 0)
(0.568101 0.219251 1.60531e-20)
(0.38315 0.13429 0)
(0.447847 0.0734265 -5.53747e-21)
(0.720179 0.392072 0)
(0.564951 0.0272419 3.42648e-22)
(0.226088 0.0173083 -6.44407e-21)
(0.181039 0.148481 -7.76682e-21)
(0.978696 0.326991 0)
(0.526723 -0.219949 1.41687e-20)
(0.755784 0.333597 0)
(0.507784 -0.0290332 -1.48365e-20)
(0.236451 0.0797247 0)
(0.0320231 -0.0234592 0)
(0.645236 -0.231467 -5.34295e-21)
(0.873732 0.409069 0)
(0.483451 0.39104 1.13775e-20)
(0.843868 0.186953 0)
(0.352829 -0.169013 0)
(0.972884 0.35619 -1.04249e-20)
(0.556853 -0.209051 0)
(0.13756 0.0986877 2.61435e-23)
(0.836593 0.271721 -1.13904e-20)
(0.423235 -0.120357 -4.70759e-21)
(0.327833 0.226908 1.46837e-20)
(0.794946 0.439495 0)
(0.586973 -0.0162752 -5.87856e-21)
(0.17696 0.000357674 -3.50422e-21)
(0.482534 -0.224612 1.75796e-20)
(0.973031 0.279922 7.98962e-21)
(0.261218 0.23058 -6.07583e-21)
(0.917685 0.270249 0)
(0.44723 -0.182483 6.88512e-21)
(0.315529 0.254393 2.18338e-22)
(0.0288857 -0.0212392 7.95474e-21)
(0.628266 -0.243867 0)
(0.872338 0.392687 3.42904e-21)
(0.552018 0.384582 -1.47798e-20)
(0.29929 -0.093168 7.92072e-21)
(0.726929 0.150608 7.64615e-22)
(0.732974 0.423238 -3.20414e-21)
(0.0169782 -0.0540277 8.64953e-22)
(0.68752 -0.200111 0)
(0.420069 0.184789 -3.36217e-21)
(0.591881 0.197465 1.24952e-20)
(0.39831 0.0416433 -1.6686e-20)
(0.836247 0.305078 -4.50412e-21)
(0.820834 0.281098 -1.79358e-23)
(0.453143 -0.102553 1.14726e-20)
(0.429388 -0.103734 1.12849e-20)
(0.318573 0.207976 -1.16881e-20)
(0.279935 0.174387 6.06274e-21)
(0.0960977 -0.0749915 1.47713e-20)
(0.857106 0.551679 -5.25926e-21)
(0.7207 -0.061665 0)
(0.769645 0.436723 0)
(0.59614 0.00770096 0)
(0.191051 -0.00873681 1.39245e-20)
(0.937195 0.286133 2.10317e-21)
(0.467611 -0.194227 0)
(0.283054 0.230149 0)
(0.888009 0.458469 -4.42653e-21)
(0.613424 -0.0914204 0)
(0.12326 0.0067523 -6.55642e-21)
(0.48689 0.173638 -3.43724e-21)
(0.469165 0.12813 -4.99949e-21)
(0.429174 0.129814 1.71827e-21)
(0.876648 0.28393 7.40447e-21)
(0.444138 -0.145262 0)
(0.304804 0.223637 1.01442e-20)
(0.770237 0.453191 0)
(0.614139 0.011399 -7.32664e-21)
(0.184525 -0.024411 9.00579e-21)
(0.765773 0.356807 -1.35518e-20)
(0.792285 0.370834 1.09099e-20)
(0.5574 0.398496 1.16874e-20)
(0.29821 -0.106205 -2.29722e-20)
(0.741758 0.151156 1.69241e-20)
(0.8933 0.302854 7.54407e-21)
(0.463946 -0.150492 -1.00428e-20)
(0.270067 0.194199 -9.25177e-21)
(0.901291 0.456605 1.60415e-20)
(0.113992 0.0107248 2.31143e-20)
(0.617593 -0.107868 6.25536e-21)
(0.499917 0.325922 5.1507e-21)
(0.32355 -0.0760807 0)
(0.716083 0.177008 -5.84415e-21)
(0.383698 0.31085 1.17193e-20)
(0.87965 0.237486 5.90978e-21)
(0.40544 -0.171935 0)
(0.825791 0.496252 1.60926e-21)
(0.645112 -0.0210281 6.46792e-21)
(0.144593 -0.0419645 -4.12911e-21)
(0.521532 0.387502 -9.63284e-22)
(0.323644 -0.125696 0)
(0.779559 0.17394 -1.26741e-20)
(0.842862 0.507968 0)
(0.856817 0.502302 0)
(0.656085 -0.0341037 4.22181e-21)
(0.133343 -0.044437 1.07278e-20)
(0.650589 -0.0527111 -5.96984e-21)
(0.124405 -0.0339935 -1.14092e-20)
(0.0677946 0.00907458 8.7672e-21)
(0.632546 -0.198947 0)
(0.933185 0.420371 5.04443e-21)
(0.823606 0.462666 0)
(0.607575 -0.0320186 2.98552e-21)
(0.155079 -0.0118932 -3.64111e-21)
(0.603647 -0.239227 -1.03004e-20)
(0.00799173 -0.0488437 -1.283e-20)
(0.688837 0.368245 -7.61367e-21)
(0.6609 0.214272 1.69267e-20)
(0.413069 0.213989 0)
(0.381507 -0.0080707 6.29755e-21)
(0.833388 0.346865 -1.02779e-20)
(0.493239 -0.0798134 0)
(0.232755 0.115933 -2.0064e-20)
(0.10096 0.0274847 7.17167e-21)
(0.934921 0.427525 -1.4613e-20)
(0.611147 -0.159896 -8.94483e-21)
(0.366415 -0.155624 7.25762e-21)
(0.83897 0.204756 0)
(0.446367 0.356576 1.41302e-20)
(0.498059 -0.223859 2.15389e-20)
(0.976936 0.296368 4.85363e-21)
(0.22914 0.198396 0)
(0.487384 -0.0107131 7.44496e-21)
(0.264894 0.096325 0)
(0.840677 0.388858 -1.11644e-20)
(0.532999 -0.0676384 -5.43012e-21)
(0.192934 0.0651442 -6.18156e-21)
(0.471109 -0.0226856 -2.65559e-22)
(0.276962 0.114092 -6.60484e-23)
(0.877182 0.51289 1.11622e-20)
(0.0710083 -0.0506671 -1.72947e-20)
(0.70395 -0.110786 6.31764e-21)
(0.324814 -0.173472 -7.25532e-21)
(0.829071 0.162451 -1.32092e-21)
(0.547023 0.445982 0)
(0.860723 0.398883 1.13772e-20)
(0.546666 -0.0811117 6.63137e-21)
(0.178858 0.0640963 1.50739e-20)
(0.777366 0.290253 0)
(0.434108 -0.0667213 4.51116e-21)
(0.312307 0.175352 0)
(0.781635 0.214718 5.74773e-21)
(0.361581 -0.108424 0)
(0.435691 0.303884 0)
(0.648324 0.302402 4.47808e-21)
(0.499458 0.0467246 8.14365e-21)
(0.29392 0.0773573 -4.5241e-23)
(0.415336 0.336765 -1.4564e-20)
(0.866679 0.221916 -1.4333e-20)
(0.389666 -0.168713 -1.96772e-20)
(0.955228 0.397522 6.24238e-21)
(0.598664 -0.194928 -1.0178e-20)
(0.0978104 0.0450005 -1.68931e-22)
(0.506316 -0.212334 -1.45543e-20)
(0.970105 0.310496 -4.9207e-21)
(0.214817 0.179716 -7.73623e-21)
(0.721737 0.527325 1.03979e-20)
(0.214807 -0.117078 -6.07879e-21)
(0.73005 0.0700729 0)
(0.85262 0.536859 -2.86131e-21)
(0.842425 0.531363 2.63067e-21)
(0.680515 -0.030382 1.34368e-21)
(0.690867 -0.0411786 -5.87209e-21)
(0.117802 -0.0654406 3.95987e-21)
(0.128664 -0.0642206 3.47634e-21)
(0.0109613 -0.0503721 1.30196e-20)
(0.632356 -0.227323 1.13408e-20)
(0.706627 0.381416 -2.0531e-21)
(0.753445 0.437453 2.08975e-22)
(0.0206931 -0.0550657 0)
(0.703091 -0.192344 0)
(0.86253 0.316951 1.66948e-20)
(0.471179 -0.115282 2.59187e-21)
(0.264799 0.167791 0)
(0.0782733 0.0123897 2.17266e-20)
(0.934336 0.42713 -6.31684e-21)
(0.631018 -0.181092 0)
(0.782353 0.521333 -1.45313e-20)
(0.803699 0.523152 1.08724e-20)
(0.683547 0.0199439 -6.87914e-21)
(0.677058 0.00401788 -2.6461e-21)
(0.172573 -0.0795549 6.88374e-21)
(0.157473 -0.0705503 3.44915e-21)
(0.0810856 0.0525864 0)
(0.571699 -0.252024 0)
(0.967431 0.343393 -1.84555e-21)
(0.680931 0.411428 3.7625e-21)
(0.0147895 -0.0561442 -8.16498e-21)
(0.679644 -0.194251 0)
(0.534957 0.148783 6.09465e-23)
(0.482618 0.209772 -7.31563e-21)
(0.37925 0.0696689 -3.70454e-21)
(0.747896 0.403094 6.50162e-21)
(0.659914 -0.224497 -5.21438e-21)
(0.0148697 -0.0487653 -1.61763e-20)
(0.68 0.441397 -1.2587e-20)
(0.664654 0.0787286 1.1436e-20)
(0.22977 -0.0656432 2.38202e-24)
(0.943849 0.396212 -8.68252e-23)
(0.613975 -0.218747 -1.46899e-20)
(0.0727081 0.0247803 4.4349e-21)
(0.527773 -0.258917 -3.13276e-22)
(0.00292976 -0.0446564 1.46819e-20)
(0.658684 0.300913 2.87233e-21)
(0.529257 0.318551 6.89066e-21)
(0.309214 -0.0335948 4.55841e-22)
(0.654135 0.151624 -1.85976e-20)
(0.625263 0.220964 0)
(0.40836 0.0255772 1.84957e-20)
(0.39247 0.176636 -9.42019e-21)
(0.853203 0.456384 -1.06421e-20)
(0.0353187 -0.0394513 -1.0207e-20)
(0.693117 -0.189349 -7.62433e-24)
(0.648853 0.229006 0)
(0.400864 0.00943648 6.52877e-21)
(0.385182 0.187858 1.33053e-20)
(0.517558 0.150094 -7.50352e-21)
(0.473986 0.192395 7.72336e-21)
(0.397795 0.0875143 -1.94907e-21)
(0.463842 0.390233 6.98666e-21)
(0.873881 0.197435 5.10943e-21)
(0.371999 -0.189001 -1.08637e-20)
(0.615001 0.178318 0)
(0.358185 0.0113962 0)
(0.45846 0.243041 -1.0888e-21)
(0.649457 0.202979 -9.07467e-21)
(0.369301 -0.00254227 -5.04555e-21)
(0.439202 0.235613 -1.55021e-22)
(0.694476 0.514049 -1.58162e-20)
(0.74145 0.0840512 8.77905e-21)
(0.23242 -0.126613 1.20614e-20)
(0.0543172 -0.0285992 -1.54344e-20)
(0.0530176 -0.0228868 1.56181e-20)
(0.684466 -0.164313 -4.30866e-21)
(0.672968 -0.176897 -2.9993e-21)
(0.891229 0.471586 -8.77828e-21)
(0.898314 0.461051 1.32285e-20)
(0.958928 0.39054 -7.71424e-21)
(0.60017 -0.20669 9.13877e-21)
(0.0899276 0.0455006 0)
(0.204499 -0.126566 -7.82029e-21)
(0.740685 0.551339 -3.21042e-21)
(0.740251 0.0610973 0)
(0.574587 0.384078 0)
(0.284629 -0.0769669 7.20475e-21)
(0.699721 0.135495 -5.81789e-21)
(0.928065 0.250332 0)
(0.436309 -0.199583 -7.12211e-21)
(0.342883 0.288692 -2.25941e-22)
(0.553221 -0.274329 -5.21237e-21)
(0.0125552 -0.0312476 0)
(0.789623 0.318791 7.64825e-21)
(0.132832 0.10837 0)
(0.988526 0.332285 0)
(0.54995 -0.242273 -6.1895e-21)
(0.850296 0.421256 -3.55341e-21)
(0.0289812 -0.0326564 0)
(0.665778 -0.220287 5.24318e-21)
(0.00138555 -0.045009 5.45625e-32)
(0.503499 -0.248122 4.82758e-21)
(0.602098 0.285738 -2.89164e-21)
(0.540909 -0.212239 -5.40134e-21)
(0.0047378 -0.0477181 -5.44325e-32)
(0.57722 0.326872 2.57832e-21)
(0.509528 -0.145667 1.38003e-20)
(0.912827 0.344851 0)
(0.215016 0.137927 1.99637e-20)
(0.571752 -0.266313 2.81781e-21)
(0.0459765 0.0127203 0)
(0.923475 0.336901 0)
(0.923843 0.417857 7.14139e-21)
(0.585808 -0.14001 -7.799e-21)
(0.130542 0.0496002 -1.04646e-20)
(0.830645 0.509282 -1.11702e-20)
(0.0480738 -0.0642322 -6.27741e-21)
(0.743286 -0.129501 0)
(0.705642 0.322504 -3.43775e-21)
(0.272157 0.0877568 3.85596e-21)
(0.492727 0.00741242 -3.58944e-21)
(0.566275 -0.249555 0)
(0.0965993 0.0702442 -7.32984e-21)
(0.976092 0.340308 -2.10177e-21)
(0.912045 0.23956 5.78108e-21)
(0.369553 0.311487 4.00641e-21)
(0.421329 -0.192923 0)
(0.479224 -0.18771 0)
(0.936369 0.300353 0)
(0.257168 0.206092 -7.23294e-21)
(0.000470234 -0.0298504 0)
(0.322002 -0.143959 4.04278e-21)
(0.340729 0.168606 -1.91821e-21)
(0.588812 -0.254672 -5.1644e-21)
(0.00725539 -0.0461176 8.89322e-21)
(0.710622 0.354654 3.28455e-21)
(0.676189 0.302289 8.84701e-21)
(0.292567 0.0950668 -9.08455e-21)
(0.483054 0.0220428 -4.13181e-21)
(0.593361 -0.239249 -1.30705e-20)
(0.953518 0.369824 3.95608e-21)
(0.0680238 0.0325097 0)
(0.07286 0.0469347 7.69067e-21)
(0.963358 0.335043 0)
(0.56449 -0.262393 9.79712e-21)
(0.923096 0.448909 4.59793e-21)
(0.0721102 -0.00182129 -2.33493e-20)
(0.646199 -0.166687 -1.22779e-20)
(0.08793 -0.0553983 1.78068e-20)
(0.699384 -0.0828577 -6.6335e-21)
(0.872679 0.528365 0)
(0.674997 0.522405 1.99903e-20)
(0.767155 0.096907 -1.11854e-20)
(0.250712 -0.14485 1.15209e-20)
(0.691048 -0.0112954 -1.99931e-21)
(0.822597 0.542758 -6.25479e-21)
(0.143589 -0.0781074 1.08812e-20)
(0.0755055 -0.0701414 1.60173e-20)
(0.857261 0.539817 0)
(0.730582 -0.0896811 4.88772e-21)
(0.710905 0.429655 3.16746e-21)
(0.740805 0.450177 0)
(0.620763 0.0519105 1.19333e-20)
(0.627461 0.0362519 -1.27563e-20)
(0.2155 -0.0313199 -7.31599e-21)
(0.198795 -0.0368837 0)
(0.682481 0.425598 3.09094e-21)
(0.639167 0.071767 0)
(0.229974 -0.0449433 -3.52356e-21)
(0.770086 0.533853 0)
(0.701281 0.0316487 1.1109e-20)
(0.180571 -0.0940224 -2.48546e-21)
(0.499123 -0.199695 7.20061e-21)
(0.95738 0.310876 -5.11822e-21)
(0.224906 0.18005 1.59167e-20)
(0.587824 -0.223047 0)
(0.962519 0.376941 -1.24938e-21)
(0.0915497 0.0542406 0)
(0.185295 0.136515 5.16435e-21)
(0.958248 0.339246 3.19332e-21)
(0.527458 -0.193024 4.70674e-21)
(0.578114 -0.212117 7.39316e-22)
(0.00650316 -0.0499993 5.37257e-24)
(0.609469 0.350992 0)
(0.587776 0.337154 -6.20546e-21)
(0.598364 0.32903 0)
(0.283824 -0.00743579 1.66761e-21)
(0.605749 0.112957 -2.28461e-20)
(0.284568 0.0105629 -2.11008e-21)
(0.58167 0.0988564 1.45144e-20)
(0.730619 0.50398 0)
(0.698152 0.482188 2.04087e-21)
(0.221557 -0.0897152 -2.80419e-23)
(0.695228 0.0573098 -6.90558e-21)
(0.205663 -0.0888225 -1.81616e-20)
(0.695419 0.0724191 1.45684e-20)
(0.508573 -0.268772 0)
(0.00301369 -0.0414718 -1.59747e-20)
(0.688325 0.29064 0)
(0.59763 -0.231998 7.70178e-21)
(0.955918 0.3783 -1.23695e-21)
(0.0725597 0.0323901 -4.65592e-21)
(0.58867 0.422187 3.8436e-21)
(0.285789 -0.113846 8.28646e-21)
(0.743734 0.136826 -1.91255e-20)
(0.468417 -0.212606 -1.56349e-20)
(0.956577 0.274045 -1.34043e-20)
(0.284091 0.246114 0)
(0.0961102 -0.0606558 -1.90425e-20)
(0.699427 -0.0709825 7.05827e-21)
(0.867569 0.534349 0)
(0.621888 -0.251912 0)
(0.804954 0.379517 0)
(0.0157741 -0.0372593 0)
(0.6175 -0.25245 0)
(0.837238 0.375975 -6.05715e-21)
(0.021782 -0.0278333 0)
(0.807072 0.506685 6.02494e-21)
(0.656757 -0.00505402 -4.02502e-21)
(0.15533 -0.0546011 -5.10536e-21)
(0.479302 0.304983 1.81912e-21)
(0.33592 -0.0640165 0)
(0.708711 0.189326 -6.17941e-21)
(0.913375 0.44875 -5.35741e-21)
(0.0623377 -0.0105376 -1.36262e-20)
(0.658848 -0.17514 1.77965e-20)
(0.511337 -0.163027 0)
(0.928213 0.34122 0)
(0.209539 0.147674 -1.72028e-20)
(0.0980627 -0.0040605 -4.40943e-21)
(0.638154 -0.117199 -1.07135e-20)
(0.904094 0.470793 -1.47617e-20)
(0.676299 0.476585 -2.07889e-21)
(0.2356 -0.0995855 1.2104e-20)
(0.70942 0.0864146 -7.42976e-21)
(0.820113 0.254244 1.10533e-20)
(0.403158 -0.11559 -7.00637e-21)
(0.366101 0.255053 -1.43195e-20)
(0.54812 0.35315 -1.34547e-22)
(0.297577 -0.0645733 2.35121e-21)
(0.68923 0.146823 7.62438e-21)
(0.059241 -0.00449018 5.32469e-21)
(0.649231 -0.194464 -8.28891e-21)
(0.917233 0.431008 -5.81038e-21)
(0.879352 0.479292 2.75543e-21)
(0.633505 -0.0808048 3.14996e-21)
(0.117629 -0.0118317 0)
(0.540081 0.312213 6.72964e-21)
(0.307467 -0.0149208 -1.47398e-20)
(0.626827 0.140815 1.22648e-20)
(0.846327 0.534651 -4.44531e-21)
(0.0651461 -0.0715851 -7.13905e-21)
(0.741407 -0.102372 -2.19157e-23)
(0.668931 0.383973 3.84962e-21)
(0.59263 0.0631908 0)
(0.240577 -0.00819887 0)
(0.71304 0.261507 1.60806e-20)
(0.415994 -0.0274386 -4.05799e-21)
(0.34888 0.181533 0)
(0.480209 -0.168009 0)
(0.919876 0.307688 -1.07872e-20)
(0.25278 0.192193 7.57142e-21)
(0.789287 0.466335 0)
(0.0292217 -0.0575384 2.19541e-21)
(0.72842 -0.170551 -5.69796e-21)
(0.793639 0.481676 -4.34736e-21)
(0.0335426 -0.0611361 -7.03249e-21)
(0.739132 -0.154715 5.44763e-21)
(0.093416 -0.0177693 -4.03968e-21)
(0.652944 -0.109039 6.35941e-21)
(0.897005 0.484124 1.35765e-20)
(0.838008 0.240477 5.13408e-21)
(0.39764 -0.137329 1.40404e-20)
(0.385544 0.28234 0)
(0.0228833 -0.0590896 -2.0108e-21)
(0.722391 -0.179213 5.32777e-21)
(0.744204 0.448473 0)
(0.117816 0.0451383 0)
(0.593931 -0.156006 6.55938e-21)
(0.934724 0.415074 1.68983e-21)
(-0.000998381 -0.0414091 -8.00751e-21)
(0.431989 -0.238156 -5.43971e-21)
(0.532216 0.232588 0)
(0.486744 0.298525 2.99484e-21)
(0.493684 -0.179437 0)
(0.00475324 -0.0440722 -8.04024e-21)
(0.0773306 -0.0606417 -2.41312e-23)
(0.715291 -0.0945522 8.32223e-22)
(0.866593 0.530665 0)
(0.0421323 -0.0120826 0)
(0.643141 -0.221402 0)
(0.901601 0.414055 -7.56774e-21)
(0.894398 0.481116 4.75657e-21)
(0.901827 0.480367 -3.84804e-21)
(0.0628266 -0.0315531 7.73997e-21)
(0.684739 -0.143458 1.41383e-21)
(0.0715759 -0.024277 0)
(0.670258 -0.136524 0)
(0.943287 0.399455 -3.29934e-21)
(0.580566 -0.166766 -4.33656e-21)
(0.12681 0.0616678 0)
(0.323866 0.28619 0)
(0.448119 -0.216309 0)
(0.950192 0.254998 0)
(0.592998 0.297434 -8.31916e-21)
(0.303922 0.0438514 2.00613e-20)
(0.542596 0.0906054 -8.02703e-21)
(0.94661 0.365451 -9.51652e-21)
(0.546118 -0.17537 -1.59987e-21)
(0.162394 0.105035 -1.52662e-20)
(0.182956 0.126064 -9.89725e-21)
(0.945544 0.351935 1.32359e-20)
(0.531008 -0.177571 2.22027e-21)
(0.85175 0.556701 -5.20083e-21)
(0.0866071 -0.0797867 -7.67117e-21)
(0.735813 -0.0701675 0)
(0.738452 0.518921 0)
(0.706849 0.0543869 -3.29705e-21)
(0.200809 -0.098497 1.78017e-20)
(0.703648 0.461744 0)
(0.671474 0.0676861 -1.50205e-20)
(0.218069 -0.0726492 -1.91801e-23)
(0.902247 0.373649 1.26493e-20)
(0.533633 -0.128999 -1.93071e-21)
(0.184848 0.0986761 8.6969e-21)
(0.915221 0.36588 0)
(0.529739 -0.142925 -1.81511e-21)
(0.187907 0.109628 -7.97282e-21)
(0.51886 0.287175 0)
(0.323731 0.000662273 2.3264e-20)
(0.613417 0.148133 0)
(0.745549 0.46578 0)
(0.641434 0.0339022 8.46053e-21)
(0.192448 -0.050625 -2.6606e-21)
(0.110334 0.0898977 1.58557e-20)
(0.551756 -0.255465 1.39846e-20)
(0.987579 0.328409 0)
(0.850849 0.357407 1.32339e-22)
(0.0222712 -0.022179 -4.90167e-21)
(0.591079 -0.264543 -3.7568e-21)
(0.833906 0.332462 1.61783e-22)
(0.0191137 -0.023086 0)
(0.569357 -0.270909 1.07861e-20)
(0.620503 0.393003 -4.6048e-21)
(0.260568 -0.0491545 2.56344e-21)
(0.652758 0.105124 1.18426e-22)
(0.59536 -0.258068 -1.62015e-22)
(0.0106621 -0.0405484 -2.03743e-20)
(0.768718 0.356288 0)
(0.886308 0.491744 -1.17729e-20)
(0.103238 -0.0224348 0)
(0.65208 -0.0898762 0)
(0.00867603 -0.0376901 8.06506e-21)
(0.558338 -0.271066 5.82366e-21)
(0.757728 0.324056 -5.89494e-21)
(0.612347 0.240115 -1.11462e-20)
(0.367055 0.141238 -1.20042e-20)
(0.439733 0.0482648 -6.49845e-23)
(0.802377 0.393076 1.91802e-21)
(0.540975 -0.0352902 1.97316e-21)
(0.202938 0.0497437 7.91417e-21)
(0.376688 -0.132384 -1.60174e-20)
(0.818896 0.223201 -1.84848e-20)
(0.420543 0.307627 0)
(0.0553656 0.022509 0)
(0.578227 -0.2592 3.52493e-21)
(0.939675 0.347481 0)
(0.499257 -0.172231 0)
(0.931838 0.327299 0)
(0.224687 0.165717 0)
(0.0568468 -0.0628654 0)
(0.849419 0.517563 4.05964e-21)
(0.735068 -0.118945 -4.88619e-21)
(0.829215 0.404212 0)
(0.547907 -0.0543932 -9.79538e-22)
(0.188362 0.0499767 1.01994e-23)
(0.578118 0.280134 8.0337e-21)
(0.320517 0.0576142 -1.72154e-20)
(0.530282 0.0943084 0)
(0.598886 -0.246517 1.2369e-20)
(0.932424 0.370878 -3.7586e-21)
(0.0544976 0.0157106 0)
(0.100116 0.0167399 9.26104e-21)
(0.619421 -0.145219 -4.16767e-22)
(0.922408 0.443014 -2.1034e-22)
(0.819272 0.450562 0)
(0.800485 0.441085 -4.23828e-21)
(0.0286628 -0.0472755 -5.00825e-21)
(0.0242805 -0.047997 6.19152e-21)
(0.702164 -0.19001 3.51084e-21)
(0.695488 -0.200132 -2.88659e-21)
(0.814193 0.313586 0)
(0.456664 -0.0844501 -1.34224e-20)
(0.278845 0.158327 -9.48698e-21)
(0.491583 -0.132665 -1.93682e-20)
(0.893489 0.332496 0)
(0.231739 0.15027 1.04773e-20)
(0.684809 0.273889 9.08941e-21)
(0.441682 0.000244001 -6.91524e-21)
(0.321991 0.141139 -1.47651e-20)
(0.593576 -0.262577 -8.20436e-21)
(0.889434 0.359524 -4.71257e-21)
(0.577886 -0.268751 3.90912e-21)
(0.0317016 -0.00936935 5.19156e-21)
(0.896477 0.342797 4.41499e-21)
(0.034979 -0.00324393 0)
(0.877325 0.42514 0)
(0.572679 -0.0913989 0)
(0.154616 0.0420452 -9.874e-21)
(0.918694 0.381339 -4.77636e-21)
(0.898618 0.374844 1.20576e-20)
(0.612388 -0.243151 -5.38083e-21)
(0.610896 -0.250907 1.34942e-20)
(0.0446716 0.002073 -1.36881e-20)
(0.0355448 -0.0084303 -4.20828e-24)
(0.880849 0.320453 0)
(0.4737 -0.133969 1.7892e-20)
(0.260442 0.178106 -1.35794e-20)
(0.778351 0.337693 -8.40435e-21)
(0.499098 -0.0479624 1.19036e-20)
(0.234041 0.0934306 0)
(0.828085 0.49532 0)
(0.0412828 -0.0587848 -9.68094e-22)
(0.734508 -0.146956 -5.23276e-21)
(0.815377 0.329985 -6.17231e-21)
(0.473254 -0.0748051 0)
(0.258775 0.135418 1.5808e-20)
(0.719457 0.295406 -3.63912e-21)
(0.454328 -0.0178416 8.10778e-21)
(0.29927 0.130562 -8.63565e-21)
(0.810971 0.462682 0)
(0.0314682 -0.0523338 0)
(0.718555 -0.177137 7.22642e-21)
(0.830742 0.422271 0)
(0.570225 -0.0480618 -2.09629e-21)
(0.170759 0.027392 9.83905e-21)
(0.409646 -0.20158 0)
(0.911688 0.227431 0)
(0.397085 0.342695 5.1455e-22)
(0.672475 0.488735 5.11075e-22)
(0.728947 0.0932976 0)
(0.240611 -0.114502 -9.41979e-21)
(0.509239 -0.237192 -8.43755e-21)
(0.204165 0.182942 0)
(0.990555 0.299364 0)
(0.0012155 -0.0385439 1.92914e-20)
(0.416315 -0.184741 -5.66152e-21)
(0.452195 0.22837 2.68627e-21)
(0.824547 0.364882 0)
(0.507645 -0.0629319 -7.31586e-21)
(0.219897 0.0911727 0)
(0.864303 0.489555 -7.71257e-21)
(0.0482331 -0.0459404 -2.62325e-20)
(0.710813 -0.148441 1.06106e-20)
(0.287315 -0.159472 0)
(0.798317 0.130668 7.24661e-21)
(0.611633 0.487165 0)
(0.594948 0.366832 0)
(0.0089044 -0.0523523 4.85885e-21)
(0.613975 -0.197713 0)
(0.425276 0.253366 -9.06151e-21)
(0.436321 0.275195 9.27678e-21)
(0.362753 -0.0475395 0)
(0.705425 0.212794 -7.78761e-21)
(0.357551 -0.0677868 1.50454e-20)
(0.728774 0.207925 6.26394e-21)
(0.678868 0.255594 -8.54944e-21)
(0.419906 -0.00192597 -9.16398e-21)
(0.352045 0.168104 0)
(0.494942 0.29914 -7.94306e-21)
(0.460051 0.27269 0)
(0.326902 -0.040089 0)
(0.672209 0.172012 0)
(0.344237 -0.0325313 8.40636e-21)
(0.673385 0.188597 -5.7073e-23)
(0.802695 0.357128 -5.31579e-22)
(0.478813 -0.0441317 5.17732e-21)
(0.26017 0.115146 1.06699e-20)
(0.783577 0.326177 1.44321e-20)
(0.469494 -0.0538448 0)
(0.271308 0.131695 0)
(0.025578 -0.0123661 0)
(0.558994 -0.276935 0)
(0.866691 0.325699 -4.55337e-21)
(0.653142 0.401968 1.26282e-20)
(0.634345 0.0865473 0)
(0.245617 -0.0384499 -4.74674e-21)
(0.919621 0.400406 1.01383e-20)
(0.626574 -0.228474 -6.19962e-21)
(0.0480496 0.000934222 7.81742e-21)
(0.906229 0.394017 0)
(0.920571 0.400393 -6.8722e-21)
(0.554246 -0.126011 2.40551e-21)
(0.567125 -0.137968 -7.68711e-21)
(0.161478 0.0756074 1.08659e-20)
(0.147184 0.0680496 1.01034e-20)
(0.646937 0.380764 0)
(0.610565 0.0811 0)
(0.251359 -0.0192757 -2.22968e-21)
(0.768766 0.501224 -4.90745e-21)
(0.668827 0.0273366 0)
(0.181404 -0.0691136 -5.92217e-21)
(0.871092 0.390316 3.61265e-21)
(0.537895 -0.0977889 0)
(0.181214 0.0783746 -9.94187e-21)
(0.519954 0.231404 -8.78498e-21)
(0.524469 0.124248 -4.31241e-21)
(0.358864 0.0713646 -4.62961e-21)
(0.932687 0.376414 0)
(0.548232 -0.157643 0)
(0.163751 0.0960225 1.62287e-20)
(0.570951 0.299658 0)
(0.304458 0.0245156 -2.54637e-21)
(0.569706 0.110417 0)
(0.874748 0.339552 8.19451e-21)
(0.489948 -0.118955 9.95154e-21)
(0.2367 0.142089 1.36125e-21)
(0.771596 0.482905 -4.94168e-21)
(0.648196 0.018398 -9.6451e-21)
(0.178386 -0.0533429 0)
(0.533495 0.254297 8.71057e-21)
(0.516931 0.255108 3.89464e-21)
(0.541684 0.11947 -4.22389e-21)
(0.339548 0.054271 9.13826e-21)
(0.567578 0.134544 0)
(0.338489 0.0373974 1.63374e-20)
(0.486223 0.265397 3.96188e-21)
(0.338579 -0.00371405 -1.08596e-20)
(0.463197 0.261794 -2.55109e-21)
(0.62509 0.165638 0)
(0.350587 -0.0199276 -5.33503e-21)
(0.657596 0.186996 8.91887e-21)
(0.705224 0.411072 -4.56524e-21)
(0.735987 0.415472 0)
(0.598714 0.0462588 -8.86073e-21)
(0.586418 0.0268127 6.91386e-21)
(0.22049 -0.0134981 2.11412e-20)
(0.210089 -0.00174222 -1.75701e-20)
(0.0892605 -0.0425569 0)
(0.68164 -0.0901807 3.90228e-21)
(0.881175 0.511936 6.93696e-21)
(0.425624 0.356234 -1.73193e-20)
(0.885155 0.216056 -8.06088e-21)
(0.391839 -0.187277 1.70525e-20)
(0.0789054 -0.0402402 8.85425e-21)
(0.0796279 -0.0290618 0)
(0.685003 -0.108401 -3.37295e-21)
(0.670439 -0.118886 -5.80976e-21)
(0.885506 0.506439 -1.76675e-20)
(0.896032 0.492229 9.17977e-21)
(0.533958 0.410962 0)
(0.32131 -0.140704 9.07209e-21)
(0.793948 0.166663 -1.84951e-21)
(0.504602 0.194604 -1.85719e-20)
(0.401164 0.112075 0)
(0.482601 0.122876 1.47868e-20)
(0.933244 0.391475 3.27229e-21)
(0.564843 -0.155112 8.6778e-21)
(0.146431 0.0766469 0)
(0.609828 0.357508 0)
(0.268565 -0.0218235 2.12524e-21)
(0.616905 0.102938 7.42184e-21)
(0.78844 0.485988 0)
(0.643247 0.00639508 0)
(0.168522 -0.0466709 1.41419e-21)
(0.863893 0.526335 0)
(0.868346 0.512287 0)
(0.682805 -0.0602375 -2.05539e-21)
(0.1082 -0.0534784 1.08248e-20)
(0.66733 -0.0640374 5.61092e-21)
(0.110603 -0.0413567 -1.46374e-20)
(0.895128 0.419695 -6.8004e-21)
(0.575446 -0.107584 -8.04474e-21)
(0.146064 0.0469434 -4.73703e-21)
(0.657423 0.384842 -4.92671e-21)
(0.6438 -0.206369 0)
(0.0111894 -0.0534349 5.92342e-21)
(0.301925 -0.15745 0)
(0.802697 0.144088 -5.92208e-21)
(0.581992 0.460257 0)
(0.639748 0.495789 -5.16914e-21)
(0.626315 0.475552 5.61093e-21)
(0.26887 -0.144671 5.9021e-21)
(0.773882 0.115754 0)
(0.272645 -0.133819 0)
(0.762904 0.120313 0)
(0.951531 0.32718 1.16574e-20)
(0.51043 -0.190816 -1.63626e-20)
(0.209078 0.158432 -7.35761e-22)
(0.74742 0.495934 1.00694e-20)
(0.674521 0.0418888 0)