/*--------------------------------*- C++ -*----------------------------------*\
  =========                 |
  \\      /  F ield         | OpenFOAM: The Open Source CFD Toolbox
   \\    /   O peration     | Website:  https://openfoam.org
    \\  /    A nd           | Version:  6
     \\/     M anipulation  |
\*---------------------------------------------------------------------------*/
FoamFile
{
    version     2.0;
    format      ascii;
    class       volScalarField;
    location    "0";
    object      p;
}
// * * * * * * * * * * * * * * * * * * * * * * * * * * * * * * * * * * * * * //

dimensions      [0 2 -2 0 0 0 0];

internalField   nonuniform List<scalar> 
918
(
0.211895
1.11476
0.0029272
0.204672
0.000345456
1.0831
-0.662688
0.415472
0.188504
-0.114076
0.022736
0.186392
0.937488
0.699498
-1.44903
0.0284376
0.351049
-0.745728
0.169599
0.0169129
0.610128
0.20128
0.202591
0.191611
0.240373
0.686502
0.813951
0.00215657
0.000270836
0.00195068
-0.00292583
-0.00159907
0.00409004
0.956419
1.00268
1.02113
0.164211
-0.425221
-0.506016
-0.607945
-0.532219
-0.734167
0.395516
0.398394
-0.464013
0.421357
0.444597
0.178328
0.186719
0.185369
0.194332
0.189089
0.191146
0.274225
-0.134635
-0.20476
-0.0492498
-0.0301808
0.0801249
0.0236159
0.0360364
0.0260138
0.0347022
0.127386
0.178949
0.176239
0.188049
0.195726
1.04044
1.01093
1.03387
0.963383
0.979146
0.910643
0.884168
0.721391
0.745226
0.683664
0.675563
-1.96835
-2.97722
-0.825201
-0.518914
0.00348597
0.0305152
0.014007
0.339432
0.344017
0.349006
0.36444
0.673354
-0.666477
-0.858419
0.183605
0.180863
0.190706
0.191408
0.173856
0.181842
0.0218648
0.0239644
0.00901869
0.0128319
0.0175332
0.569911
0.545985
0.179288
0.173204
0.206944
0.218039
0.206663
-0.0330819
0.244563
0.280237
0.501185
0.678179
0.66898
0.672281
0.786496
0.753104
0.845434
0.867346
0.00759379
0.00165604
0.0165929
0.00708609
0.018471
0.154833
0.151295
0.173062
0.171414
0.165701
-0.409227
-0.441321
-0.373071
-0.276558
-0.456448
-0.55105
-0.709677
-0.621168
-0.845798
0.730653
0.374744
0.377666
-0.423105
-0.3685
-0.502926
-0.346636
-0.425586
0.166943
0.173979
0.170982
0.172891
0.177944
0.180473
0.18805
0.185433
0.187275
0.29365
0.349841
0.239168
0.222864
-0.432643
-0.214648
-0.398908
-0.0237382
-0.00722896
0.0954489
0.119063
0.079118
0.0795338
0.011237
0.0250279
0.00923528
0.0344771
0.0302224
0.115543
0.110009
0.13461
0.143441
0.16882
0.174674
0.170801
0.171248
0.831973
0.857156
0.865485
0.843012
-4.00776
-6.58863
-0.110667
0.0319288
0.000234358
0.000601743
0.00149065
-0.000502561
0.00383667
0.00118197
0.0529506
0.0405145
0.0288946
0.0382536
0.321149
0.325865
0.660217
0.721235
0.612036
0.59478
0.177464
0.176712
0.177809
0.16704
0.0279781
0.0257914
0.0215696
0.452997
0.507189
0.487938
-0.0764645
-0.157701
0.016231
0.0393456
0.307642
0.290278
0.29787
0.559393
0.606023
0.881967
0.906326
0.890342
0.906579
0.952659
0.971083
0.940746
0.144899
0.146642
0.143578
0.17675
0.171044
0.171043
0.167635
0.171167
0.174336
-0.521514
-0.750905
0.378734
0.215352
-0.129843
0.0506505
0.725087
0.774374
0.358762
0.368445
0.374749
-0.297321
-0.370814
0.195196
0.169016
0.0637178
0.0991713
0.07778
0.80867
0.769331
0.820563
0.793318
0.757283
0.78075
-0.608076
-2.32761
-1.23007
0.439739
0.218121
0.317434
0.0642913
0.0548603
0.0513298
0.709471
0.762796
0.378411
0.500112
0.480682
0.635403
0.67082
0.72516
0.653885
0.688753
0.727562
0.707068
0.648487
0.492256
0.60188
0.764163
0.800087
-0.177569
-0.261073
-0.291671
0.127322
0.148236
0.128144
0.742282
0.754023
0.764953
0.176165
0.182687
0.0130928
0.0204579
0.185951
0.180021
0.00365201
0.00261409
0.328985
-1.34563
-0.165817
0.18115
0.172057
0.18704
-0.0479033
0.248694
0.0300098
0.0928345
0.0662586
0.174578
0.133971
0.104642
-0.00189841
0.0182703
0.0174736
-0.304793
0.173535
0.170225
0.185869
0.18465
0.1872
0.00772527
0.0111949
0.00567167
0.0161475
0.0168273
0.0140193
0.158345
0.165958
-0.227923
0.181027
0.184613
0.184913
0.18292
0.186259
0.188806
0.0151963
0.0119232
0.010021
-0.0514054
0.0495443
0.563105
0.670871
0.524879
0.331295
0.0758702
0.483303
0.538952
0.449234
0.60442
0.35236
0.396749
-0.0642266
-0.191302
-0.121844
-0.157797
0.17436
0.174154
0.165888
0.163761
0.173546
0.184062
0.172479
0.182654
0.180728
0.177861
-0.00965819
-0.0210806
-0.0728858
-0.135396
0.280396
0.329937
0.203173
0.222413
0.145825
0.0400229
0.0322982
0.0302223
0.0220876
0.0639021
0.0679227
0.0746751
0.0741237
0.0521554
0.0539938
0.0606672
0.0613559
0.0653795
0.173364
0.169915
0.176233
0.182835
0.137233
0.144275
0.118116
0.13285
0.115217
0.0797144
0.0925168
0.0764085
0.00474502
-0.000735129
0.00284075
0.0145019
0.0329543
0.0267355
0.0143928
0.0159738
0.0108013
0.00956266
0.0234347
0.0290784
-0.249851
-0.367085
0.630991
0.543765
0.311766
0.18144
0.179255
0.173417
0.164198
0.17836
0.190816
0.188322
0.176432
0.169496
0.170602
0.166955
0.166673
-0.11098
-0.282542
-0.129419
-0.246215
-0.433783
0.289341
0.0445575
0.0158807
-0.0218475
0.178232
0.730617
0.580849
0.640056
0.608191
-0.713955
-0.0966318
-0.544775
0.141958
-0.0642851
0.570105
0.623219
0.6519
0.594827
0.544719
-0.385668
-0.0130601
-0.243872
-0.194272
-0.118007
-0.175627
0.516954
0.336725
0.347092
0.38881
0.426739
0.344966
0.319067
0.318652
0.367286
0.371098
0.135934
-0.0502966
-0.0705181
-0.132785
0.334468
0.194286
0.240893
0.174074
0.172716
0.173597
0.177382
0.166447
0.164881
0.172119
0.167266
0.170092
0.179461
0.171091
0.174335
0.181338
-0.0140223
-0.014429
-0.0731674
-0.182935
-0.182654
-0.249811
-0.12354
0.141419
0.107522
0.284007
0.37396
0.0643099
-0.0854693
-0.0605813
0.0187117
0.142391
0.145907
0.104296
0.160416
0.164638
0.13842
0.196371
0.191786
0.0435244
0.0560746
0.0401576
0.0313427
0.102502
0.115777
0.114977
0.0464862
0.0485121
0.0372323
0.0370641
0.0716464
0.051374
0.0605429
0.0704111
0.0185158
0.0185427
0.0319574
0.0385691
0.0326626
0.0375458
0.168625
0.168262
0.174665
0.185964
0.186233
0.206602
0.182136
0.151262
0.145456
0.146321
0.137317
0.151966
0.142511
0.156433
0.15844
0.169436
0.165237
0.167923
0.160293
0.154384
0.159171
0.16774
0.127968
0.103713
0.104572
0.0161461
0.0165605
0.0250374
0.0140194
0.0125852
0.0127846
0.0466761
0.0372309
0.0377702
0.0376408
0.0438617
0.0243751
0.0247376
-0.104693
0.0178124
-0.223633
-0.280493
-0.340814
0.616844
0.677405
0.537001
0.460836
0.478806
0.562622
0.592299
0.373903
0.463401
0.452131
0.636379
0.698137
0.161846
0.170595
0.173177
0.169066
0.171373
0.0132131
0.0618376
-0.0579809
-0.0435054
-0.252721
-0.325897
0.396939
0.464928
0.457141
0.29377
0.277402
0.296841
0.237073
0.271142
0.275283
0.105365
0.17474
0.229465
0.172042
0.217698
0.239762
0.20554
0.233037
0.187719
0.155537
0.149722
0.096701
0.118032
0.101931
0.0837652
0.167359
0.153804
0.154615
0.150903
0.174047
0.206945
0.194034
0.207461
0.226817
0.158252
0.133412
0.13649
0.153179
0.126578
0.126925
0.140385
-0.205785
-0.202319
-0.268605
-0.785313
-0.599123
-0.460856
-0.565725
-0.702644
-0.453567
-1.08742
-0.777808
-1.38694
-0.264828
0.778989
0.49775
0.562673
0.431174
0.401971
0.407982
0.472172
0.470003
0.322519
0.326895
0.336597
0.260354
0.303358
0.360522
0.346812
0.0208959
0.0505034
-0.0171293
0.0223966
-0.102588
-0.0712397
0.102725
0.0648661
0.00401367
0.0146969
0.135987
0.0193539
0.084245
0.136665
0.122604
0.0572156
0.219153
0.287842
0.269397
0.251529
0.169271
0.1795
0.206354
0.244804
0.263792
0.296277
0.160657
0.169134
0.175222
0.168559
0.162574
0.167974
0.16978
0.171293
0.170262
0.173678
0.175821
0.0252189
0.0331057
0.0111454
0.0234529
0.035572
0.00192012
0.0565349
-0.00878662
0.0449428
0.0499295
0.0361464
0.00751193
0.0158925
0.0299565
0.154352
0.174686
0.181395
0.131421
0.221725
0.350063
0.37448
0.324269
0.209674
0.245683
0.297959
0.0764323
0.0917837
0.0749971
0.099719
0.0867114
0.0375955
0.0352886
0.0342229
0.0429703
0.0421554
0.0335718
0.030013
0.0264333
0.0317415
0.0364018
0.0338296
0.152395
0.143781
0.13496
0.124121
0.128857
0.150634
0.155513
0.158245
0.164814
0.16796
0.159704
0.167045
0.167699
0.0362356
0.0200511
0.0239967
0.0264492
0.0193741
0.027265
0.0280639
0.266812
0.121933
0.234146
0.0824196
-0.155111
-0.0647654
0.416475
0.567529
0.529008
0.65016
0.588398
0.544247
0.572171
0.674552
0.397599
0.552605
0.490973
0.652321
0.646888
0.693604
0.561186
-0.120669
-0.681765
-0.387254
-0.359479
-0.691147
-0.0867581
-0.0974879
-0.0973079
-0.153335
-0.225629
-0.00679081
0.0326474
0.128352
0.360479
0.0697675
0.266516
-0.141298
-0.0670503
0.249078
0.0409335
0.152851
0.278069
0.298249
0.316639
0.286943
0.316954
0.233536
0.235322
0.242404
0.252097
0.23568
-1.18805
-1.07293
-1.87954
-1.32232
-1.00011
-0.362239
-0.651506
0.327039
0.202071
0.405902
0.366411
0.306905
0.243963
0.224957
0.294556
0.0457914
0.140722
0.111194
0.12751
0.0830927
-0.00519845
0.256088
0.247144
0.287938
0.306955
0.281944
0.309346
0.157672
0.157823
0.158785
0.160556
0.147134
0.144517
0.0987009
0.0775882
0.103337
0.0760569
0.0471496
0.0503122
0.0383747
0.0380363
0.0275278
0.0252798
0.0377009
0.036669
0.257472
0.29286
0.118298
0.227641
-0.000206308
-0.0923254
-0.120621
0.0544804
0.106764
0.102867
0.445421
0.569573
0.517689
0.534242
0.414847
0.459294
0.41514
0.142454
0.264753
0.303701
0.402889
-0.95322
-0.991462
-0.95124
0.602011
0.326095
-0.217703
-0.565853
-0.521672
0.0901988
0.107259
0.0984778
0.138723
0.181393
0.184569
-0.890228
-0.686068
-1.09833
-0.95195
-0.511122
-0.576667
-0.439401
-0.881243
-0.799209
)
;

boundaryField
{
    wall-4
    {
        type            zeroGradient;
    }
    velocity-inlet-5
    {
        type            zeroGradient;
    }
    velocity-inlet-6
    {
        type            zeroGradient;
    }
    pressure-outlet-7
    {
        type            fixedValue;
        value           uniform 0;
    }
    wall-8
    {
        type            zeroGradient;
    }
    frontAndBackPlanes
    {
        type            empty;
    }
}

