/*--------------------------------*- C++ -*----------------------------------*\
  =========                 |
  \\      /  F ield         | OpenFOAM: The Open Source CFD Toolbox
   \\    /   O peration     | Website:  https://openfoam.org
    \\  /    A nd           | Version:  6
     \\/     M anipulation  |
\*---------------------------------------------------------------------------*/
FoamFile
{
    version     2.0;
    format      ascii;
    class       volScalarField;
    location    "0";
    object      p;
}
// * * * * * * * * * * * * * * * * * * * * * * * * * * * * * * * * * * * * * //

dimensions      [0 2 -2 0 0 0 0];

internalField   nonuniform List<scalar> 
145945
(
2.13115e-06
2.13087e-06
2.13093e-06
2.13102e-06
2.13121e-06
2.13135e-06
2.13149e-06
2.13156e-06
2.13161e-06
2.13158e-06
2.13153e-06
2.1314e-06
2.13129e-06
2.13112e-06
2.13106e-06
2.13095e-06
2.13125e-06
2.13087e-06
2.13078e-06
2.13087e-06
2.13103e-06
2.13124e-06
2.1314e-06
2.13154e-06
2.13163e-06
2.13167e-06
2.13165e-06
2.13159e-06
2.13146e-06
2.13133e-06
2.13114e-06
2.13103e-06
2.13088e-06
2.13097e-06
2.13093e-06
2.13087e-06
2.13098e-06
2.13118e-06
2.13141e-06
2.13159e-06
2.13175e-06
2.13184e-06
2.13189e-06
2.13186e-06
2.13179e-06
2.13166e-06
2.13151e-06
2.13131e-06
2.13115e-06
2.13099e-06
2.13103e-06
2.13102e-06
2.13103e-06
2.13118e-06
2.13143e-06
2.13168e-06
2.13188e-06
2.13204e-06
2.13214e-06
2.13219e-06
2.13216e-06
2.13209e-06
2.13195e-06
2.13179e-06
2.13157e-06
2.13136e-06
2.13115e-06
2.13113e-06
2.13121e-06
2.13124e-06
2.13141e-06
2.13168e-06
2.13194e-06
2.13215e-06
2.13232e-06
2.13242e-06
2.13247e-06
2.13245e-06
2.13237e-06
2.13223e-06
2.13206e-06
2.13183e-06
2.1316e-06
2.13137e-06
2.13132e-06
2.13134e-06
2.1314e-06
2.13159e-06
2.13188e-06
2.13215e-06
2.13237e-06
2.13254e-06
2.13264e-06
2.13269e-06
2.13267e-06
2.13259e-06
2.13245e-06
2.13227e-06
2.13203e-06
2.13178e-06
2.13153e-06
2.13146e-06
2.13149e-06
2.13154e-06
2.13175e-06
2.13204e-06
2.13232e-06
2.13254e-06
2.1327e-06
2.13281e-06
2.13286e-06
2.13284e-06
2.13276e-06
2.13262e-06
2.13243e-06
2.1322e-06
2.13194e-06
2.13168e-06
2.1316e-06
2.13156e-06
2.13163e-06
2.13184e-06
2.13214e-06
2.13242e-06
2.13264e-06
2.13281e-06
2.13292e-06
2.13297e-06
2.13295e-06
2.13287e-06
2.13272e-06
2.13254e-06
2.1323e-06
2.13203e-06
2.13177e-06
2.13168e-06
2.13161e-06
2.13167e-06
2.13189e-06
2.13219e-06
2.13247e-06
2.13269e-06
2.13286e-06
2.13297e-06
2.13302e-06
2.133e-06
2.13292e-06
2.13277e-06
2.13258e-06
2.13234e-06
2.13208e-06
2.13182e-06
2.13172e-06
2.13158e-06
2.13165e-06
2.13186e-06
2.13216e-06
2.13245e-06
2.13267e-06
2.13284e-06
2.13295e-06
2.133e-06
2.13298e-06
2.1329e-06
2.13275e-06
2.13256e-06
2.13232e-06
2.13206e-06
2.13179e-06
2.1317e-06
2.13153e-06
2.13159e-06
2.13179e-06
2.13209e-06
2.13237e-06
2.13259e-06
2.13276e-06
2.13287e-06
2.13292e-06
2.1329e-06
2.13281e-06
2.13267e-06
2.13249e-06
2.13225e-06
2.13199e-06
2.13173e-06
2.13164e-06
2.1314e-06
2.13146e-06
2.13166e-06
2.13195e-06
2.13223e-06
2.13245e-06
2.13262e-06
2.13272e-06
2.13277e-06
2.13275e-06
2.13267e-06
2.13253e-06
2.13235e-06
2.13211e-06
2.13185e-06
2.1316e-06
2.13152e-06
2.13129e-06
2.13133e-06
2.13151e-06
2.13179e-06
2.13206e-06
2.13227e-06
2.13243e-06
2.13254e-06
2.13258e-06
2.13256e-06
2.13249e-06
2.13235e-06
2.13217e-06
2.13194e-06
2.1317e-06
2.13147e-06
2.13141e-06
2.13112e-06
2.13114e-06
2.13131e-06
2.13157e-06
2.13183e-06
2.13203e-06
2.1322e-06
2.1323e-06
2.13235e-06
2.13232e-06
2.13225e-06
2.13211e-06
2.13194e-06
2.13172e-06
2.13149e-06
2.13127e-06
2.13123e-06
2.13106e-06
2.13103e-06
2.13115e-06
2.13136e-06
2.1316e-06
2.13178e-06
2.13194e-06
2.13203e-06
2.13208e-06
2.13206e-06
2.13199e-06
2.13185e-06
2.1317e-06
2.13149e-06
2.13131e-06
2.13114e-06
2.13117e-06
2.13095e-06
2.13089e-06
2.13099e-06
2.13116e-06
2.13137e-06
2.13154e-06
2.13168e-06
2.13177e-06
2.13182e-06
2.13179e-06
2.13173e-06
2.1316e-06
2.13147e-06
2.13127e-06
2.13114e-06
2.13099e-06
2.13106e-06
2.13125e-06
2.13097e-06
2.13103e-06
2.13113e-06
2.13132e-06
2.13146e-06
2.1316e-06
2.13168e-06
2.13173e-06
2.1317e-06
2.13164e-06
2.13152e-06
2.13141e-06
2.13123e-06
2.13117e-06
2.13106e-06
2.13135e-06
2.05657e-06
2.05658e-06
2.05692e-06
2.05727e-06
2.05766e-06
2.05798e-06
2.05824e-06
2.0584e-06
2.05848e-06
2.05844e-06
2.05831e-06
2.05807e-06
2.05778e-06
2.05741e-06
2.0571e-06
2.0567e-06
2.05666e-06
2.05658e-06
2.05677e-06
2.05715e-06
2.05756e-06
2.05798e-06
2.05833e-06
2.05861e-06
2.05879e-06
2.05886e-06
2.05882e-06
2.05868e-06
2.05843e-06
2.05812e-06
2.05772e-06
2.05733e-06
2.0569e-06
2.05668e-06
2.05692e-06
2.05715e-06
2.05753e-06
2.058e-06
2.05845e-06
2.05882e-06
2.05912e-06
2.0593e-06
2.05938e-06
2.05934e-06
2.05919e-06
2.05893e-06
2.05859e-06
2.05817e-06
2.05773e-06
2.05729e-06
2.05702e-06
2.05727e-06
2.05756e-06
2.058e-06
2.0585e-06
2.05898e-06
2.05938e-06
2.05968e-06
2.05988e-06
2.05996e-06
2.05992e-06
2.05976e-06
2.05949e-06
2.05913e-06
2.05869e-06
2.0582e-06
2.05772e-06
2.05737e-06
2.05766e-06
2.05798e-06
2.05845e-06
2.05898e-06
2.05948e-06
2.05989e-06
2.0602e-06
2.0604e-06
2.06049e-06
2.06045e-06
2.06028e-06
2.06001e-06
2.05964e-06
2.05917e-06
2.05866e-06
2.05815e-06
2.05776e-06
2.05798e-06
2.05833e-06
2.05882e-06
2.05938e-06
2.05989e-06
2.06031e-06
2.06063e-06
2.06084e-06
2.06092e-06
2.06088e-06
2.06071e-06
2.06043e-06
2.06005e-06
2.05958e-06
2.05905e-06
2.0585e-06
2.05808e-06
2.05824e-06
2.05861e-06
2.05912e-06
2.05968e-06
2.0602e-06
2.06063e-06
2.06095e-06
2.06116e-06
2.06125e-06
2.06121e-06
2.06104e-06
2.06075e-06
2.06037e-06
2.05989e-06
2.05934e-06
2.05878e-06
2.05834e-06
2.0584e-06
2.05879e-06
2.0593e-06
2.05988e-06
2.0604e-06
2.06084e-06
2.06116e-06
2.06137e-06
2.06146e-06
2.06141e-06
2.06124e-06
2.06096e-06
2.06057e-06
2.06008e-06
2.05953e-06
2.05896e-06
2.05851e-06
2.05848e-06
2.05886e-06
2.05938e-06
2.05996e-06
2.06049e-06
2.06092e-06
2.06125e-06
2.06146e-06
2.06154e-06
2.0615e-06
2.06133e-06
2.06105e-06
2.06065e-06
2.06017e-06
2.05961e-06
2.05904e-06
2.05858e-06
2.05844e-06
2.05882e-06
2.05934e-06
2.05992e-06
2.06045e-06
2.06088e-06
2.06121e-06
2.06141e-06
2.0615e-06
2.06146e-06
2.06129e-06
2.061e-06
2.06061e-06
2.06012e-06
2.05957e-06
2.059e-06
2.05854e-06
2.05831e-06
2.05868e-06
2.05919e-06
2.05976e-06
2.06028e-06
2.06071e-06
2.06104e-06
2.06125e-06
2.06133e-06
2.06129e-06
2.06112e-06
2.06084e-06
2.06045e-06
2.05996e-06
2.05942e-06
2.05885e-06
2.05841e-06
2.05807e-06
2.05843e-06
2.05893e-06
2.05949e-06
2.06001e-06
2.06043e-06
2.06075e-06
2.06096e-06
2.06105e-06
2.061e-06
2.06084e-06
2.06055e-06
2.06017e-06
2.05969e-06
2.05915e-06
2.0586e-06
2.05818e-06
2.05778e-06
2.05812e-06
2.05859e-06
2.05913e-06
2.05964e-06
2.06005e-06
2.06037e-06
2.06057e-06
2.06065e-06
2.06061e-06
2.06045e-06
2.06017e-06
2.05979e-06
2.05933e-06
2.05881e-06
2.05828e-06
2.05788e-06
2.05741e-06
2.05772e-06
2.05817e-06
2.05869e-06
2.05917e-06
2.05958e-06
2.05989e-06
2.06008e-06
2.06017e-06
2.06012e-06
2.05996e-06
2.05969e-06
2.05933e-06
2.05888e-06
2.05838e-06
2.05788e-06
2.05751e-06
2.0571e-06
2.05733e-06
2.05773e-06
2.0582e-06
2.05866e-06
2.05905e-06
2.05934e-06
2.05953e-06
2.05961e-06
2.05957e-06
2.05942e-06
2.05915e-06
2.05881e-06
2.05838e-06
2.05793e-06
2.05748e-06
2.05719e-06
2.0567e-06
2.0569e-06
2.05729e-06
2.05772e-06
2.05815e-06
2.0585e-06
2.05878e-06
2.05896e-06
2.05904e-06
2.059e-06
2.05885e-06
2.0586e-06
2.05828e-06
2.05788e-06
2.05748e-06
2.05704e-06
2.05679e-06
2.05666e-06
2.05668e-06
2.05702e-06
2.05737e-06
2.05776e-06
2.05808e-06
2.05834e-06
2.05851e-06
2.05858e-06
2.05854e-06
2.05841e-06
2.05818e-06
2.05788e-06
2.05751e-06
2.05719e-06
2.05679e-06
2.05675e-06
2.00109e-06
2.00237e-06
2.0036e-06
2.00468e-06
2.00565e-06
2.00638e-06
2.00691e-06
2.00723e-06
2.00735e-06
2.00727e-06
2.00699e-06
2.0065e-06
2.00582e-06
2.00488e-06
2.00379e-06
2.00244e-06
2.00108e-06
2.00237e-06
2.00351e-06
2.00469e-06
2.00578e-06
2.00674e-06
2.00747e-06
2.008e-06
2.00832e-06
2.00844e-06
2.00836e-06
2.00808e-06
2.00759e-06
2.00691e-06
2.00599e-06
2.00488e-06
2.00357e-06
2.00237e-06
2.0036e-06
2.00469e-06
2.0058e-06
2.00685e-06
2.00778e-06
2.0085e-06
2.00902e-06
2.00933e-06
2.00946e-06
2.00938e-06
2.0091e-06
2.00862e-06
2.00795e-06
2.00705e-06
2.00597e-06
2.00474e-06
2.00359e-06
2.00468e-06
2.00578e-06
2.00685e-06
2.00789e-06
2.00879e-06
2.00949e-06
2.01e-06
2.01032e-06
2.01044e-06
2.01036e-06
2.01009e-06
2.00962e-06
2.00896e-06
2.00808e-06
2.00702e-06
2.00583e-06
2.00467e-06
2.00565e-06
2.00674e-06
2.00778e-06
2.00879e-06
2.00967e-06
2.01037e-06
2.01087e-06
2.01118e-06
2.0113e-06
2.01122e-06
2.01095e-06
2.01049e-06
2.00984e-06
2.00898e-06
2.00794e-06
2.00678e-06
2.00564e-06
2.00638e-06
2.00747e-06
2.0085e-06
2.00949e-06
2.01037e-06
2.01106e-06
2.01155e-06
2.01186e-06
2.01198e-06
2.0119e-06
2.01164e-06
2.01118e-06
2.01053e-06
2.00968e-06
2.00865e-06
2.00751e-06
2.00637e-06
2.00691e-06
2.00799e-06
2.00902e-06
2.01e-06
2.01087e-06
2.01155e-06
2.01205e-06
2.01235e-06
2.01247e-06
2.01239e-06
2.01213e-06
2.01167e-06
2.01103e-06
2.01019e-06
2.00917e-06
2.00804e-06
2.0069e-06
2.00723e-06
2.00832e-06
2.00933e-06
2.01032e-06
2.01118e-06
2.01186e-06
2.01235e-06
2.01265e-06
2.01277e-06
2.0127e-06
2.01243e-06
2.01198e-06
2.01134e-06
2.0105e-06
2.00948e-06
2.00836e-06
2.00722e-06
2.00735e-06
2.00844e-06
2.00946e-06
2.01044e-06
2.0113e-06
2.01198e-06
2.01247e-06
2.01277e-06
2.01289e-06
2.01281e-06
2.01255e-06
2.0121e-06
2.01146e-06
2.01062e-06
2.00961e-06
2.00849e-06
2.00735e-06
2.00727e-06
2.00836e-06
2.00938e-06
2.01036e-06
2.01122e-06
2.0119e-06
2.01239e-06
2.0127e-06
2.01281e-06
2.01274e-06
2.01247e-06
2.01202e-06
2.01138e-06
2.01055e-06
2.00953e-06
2.0084e-06
2.00727e-06
2.00699e-06
2.00808e-06
2.0091e-06
2.01009e-06
2.01095e-06
2.01164e-06
2.01213e-06
2.01243e-06
2.01255e-06
2.01247e-06
2.01221e-06
2.01176e-06
2.01112e-06
2.01027e-06
2.00925e-06
2.00813e-06
2.00699e-06
2.0065e-06
2.00759e-06
2.00862e-06
2.00962e-06
2.01049e-06
2.01118e-06
2.01167e-06
2.01198e-06
2.0121e-06
2.01202e-06
2.01176e-06
2.0113e-06
2.01065e-06
2.00981e-06
2.00878e-06
2.00764e-06
2.0065e-06
2.00582e-06
2.00691e-06
2.00795e-06
2.00896e-06
2.00984e-06
2.01053e-06
2.01103e-06
2.01134e-06
2.01146e-06
2.01138e-06
2.01112e-06
2.01065e-06
2.01e-06
2.00915e-06
2.00811e-06
2.00696e-06
2.00582e-06
2.00488e-06
2.00599e-06
2.00705e-06
2.00808e-06
2.00898e-06
2.00968e-06
2.01019e-06
2.0105e-06
2.01062e-06
2.01055e-06
2.01028e-06
2.00981e-06
2.00915e-06
2.00828e-06
2.00721e-06
2.00603e-06
2.00488e-06
2.00379e-06
2.00488e-06
2.00597e-06
2.00702e-06
2.00794e-06
2.00865e-06
2.00917e-06
2.00948e-06
2.00961e-06
2.00953e-06
2.00925e-06
2.00878e-06
2.00811e-06
2.00722e-06
2.00614e-06
2.00493e-06
2.00379e-06
2.00244e-06
2.00357e-06
2.00474e-06
2.00583e-06
2.00678e-06
2.00751e-06
2.00804e-06
2.00836e-06
2.00849e-06
2.00841e-06
2.00813e-06
2.00764e-06
2.00696e-06
2.00603e-06
2.00493e-06
2.00362e-06
2.00243e-06
2.00108e-06
2.00237e-06
2.00359e-06
2.00467e-06
2.00564e-06
2.00637e-06
2.0069e-06
2.00722e-06
2.00735e-06
2.00727e-06
2.00699e-06
2.0065e-06
2.00582e-06
2.00488e-06
2.00379e-06
2.00243e-06
2.00108e-06
1.94727e-06
1.94943e-06
1.95138e-06
1.95321e-06
1.95477e-06
1.95594e-06
1.95677e-06
1.95727e-06
1.95746e-06
1.95734e-06
1.9569e-06
1.95613e-06
1.95504e-06
1.95356e-06
1.95171e-06
1.94959e-06
1.94728e-06
1.94943e-06
1.95123e-06
1.95313e-06
1.95493e-06
1.95646e-06
1.95761e-06
1.95842e-06
1.95892e-06
1.95911e-06
1.95898e-06
1.95855e-06
1.9578e-06
1.95673e-06
1.95527e-06
1.95347e-06
1.95138e-06
1.94944e-06
1.95138e-06
1.95313e-06
1.95496e-06
1.95669e-06
1.95816e-06
1.95927e-06
1.96005e-06
1.96053e-06
1.96071e-06
1.96059e-06
1.96018e-06
1.95945e-06
1.95842e-06
1.95703e-06
1.95529e-06
1.95327e-06
1.95139e-06
1.95321e-06
1.95493e-06
1.95669e-06
1.95837e-06
1.95979e-06
1.96086e-06
1.96162e-06
1.96208e-06
1.96226e-06
1.96214e-06
1.96174e-06
1.96104e-06
1.96004e-06
1.9587e-06
1.95701e-06
1.95506e-06
1.95323e-06
1.95477e-06
1.95646e-06
1.95816e-06
1.95979e-06
1.96116e-06
1.9622e-06
1.96294e-06
1.96339e-06
1.96356e-06
1.96345e-06
1.96306e-06
1.96238e-06
1.9614e-06
1.9601e-06
1.95846e-06
1.95659e-06
1.95479e-06
1.95594e-06
1.95761e-06
1.95927e-06
1.96086e-06
1.9622e-06
1.96322e-06
1.96395e-06
1.96439e-06
1.96456e-06
1.96445e-06
1.96406e-06
1.9634e-06
1.96244e-06
1.96117e-06
1.95956e-06
1.95774e-06
1.95595e-06
1.95677e-06
1.95842e-06
1.96005e-06
1.96162e-06
1.96294e-06
1.96395e-06
1.96466e-06
1.9651e-06
1.96526e-06
1.96516e-06
1.96478e-06
1.96412e-06
1.96318e-06
1.96192e-06
1.96035e-06
1.95855e-06
1.95679e-06
1.95727e-06
1.95892e-06
1.96053e-06
1.96208e-06
1.96339e-06
1.96439e-06
1.9651e-06
1.96553e-06
1.9657e-06
1.96559e-06
1.96521e-06
1.96456e-06
1.96363e-06
1.96239e-06
1.96082e-06
1.95905e-06
1.95729e-06
1.95746e-06
1.95911e-06
1.96071e-06
1.96226e-06
1.96356e-06
1.96456e-06
1.96526e-06
1.9657e-06
1.96586e-06
1.96575e-06
1.96538e-06
1.96473e-06
1.9638e-06
1.96256e-06
1.961e-06
1.95924e-06
1.95748e-06
1.95734e-06
1.95898e-06
1.96059e-06
1.96214e-06
1.96345e-06
1.96445e-06
1.96516e-06
1.96559e-06
1.96575e-06
1.96565e-06
1.96527e-06
1.96462e-06
1.96369e-06
1.96245e-06
1.96088e-06
1.95911e-06
1.95735e-06
1.9569e-06
1.95855e-06
1.96018e-06
1.96174e-06
1.96306e-06
1.96406e-06
1.96478e-06
1.96521e-06
1.96538e-06
1.96527e-06
1.96489e-06
1.96423e-06
1.96329e-06
1.96204e-06
1.96047e-06
1.95868e-06
1.95691e-06
1.95613e-06
1.9578e-06
1.95945e-06
1.96104e-06
1.96238e-06
1.9634e-06
1.96412e-06
1.96456e-06
1.96473e-06
1.96462e-06
1.96423e-06
1.96357e-06
1.96262e-06
1.96135e-06
1.95975e-06
1.95793e-06
1.95615e-06
1.95504e-06
1.95673e-06
1.95842e-06
1.96004e-06
1.9614e-06
1.96244e-06
1.96318e-06
1.96363e-06
1.9638e-06
1.96369e-06
1.96329e-06
1.96262e-06
1.96165e-06
1.96035e-06
1.95872e-06
1.95686e-06
1.95506e-06
1.95356e-06
1.95527e-06
1.95703e-06
1.9587e-06
1.9601e-06
1.96117e-06
1.96193e-06
1.96239e-06
1.96256e-06
1.96245e-06
1.96204e-06
1.96135e-06
1.96035e-06
1.95902e-06
1.95734e-06
1.95541e-06
1.95357e-06
1.95172e-06
1.95347e-06
1.95529e-06
1.95701e-06
1.95846e-06
1.95956e-06
1.96035e-06
1.96082e-06
1.961e-06
1.96088e-06
1.96047e-06
1.95975e-06
1.95872e-06
1.95734e-06
1.95561e-06
1.95361e-06
1.95173e-06
1.94959e-06
1.95138e-06
1.95327e-06
1.95507e-06
1.95659e-06
1.95774e-06
1.95855e-06
1.95905e-06
1.95924e-06
1.95911e-06
1.95868e-06
1.95793e-06
1.95686e-06
1.95541e-06
1.9536e-06
1.95152e-06
1.94961e-06
1.94728e-06
1.94944e-06
1.95139e-06
1.95323e-06
1.95479e-06
1.95595e-06
1.95679e-06
1.95729e-06
1.95748e-06
1.95735e-06
1.95691e-06
1.95615e-06
1.95506e-06
1.95357e-06
1.95173e-06
1.94961e-06
1.94729e-06
1.89497e-06
1.89746e-06
1.89965e-06
1.9018e-06
1.9036e-06
1.90495e-06
1.90593e-06
1.90652e-06
1.90674e-06
1.90659e-06
1.90607e-06
1.90517e-06
1.90391e-06
1.90219e-06
1.90002e-06
1.89764e-06
1.89498e-06
1.89746e-06
1.89951e-06
1.90168e-06
1.90378e-06
1.90556e-06
1.90691e-06
1.90788e-06
1.90847e-06
1.90869e-06
1.90854e-06
1.90803e-06
1.90714e-06
1.90587e-06
1.90417e-06
1.90205e-06
1.89967e-06
1.89747e-06
1.89965e-06
1.90168e-06
1.90382e-06
1.90585e-06
1.90757e-06
1.90888e-06
1.90982e-06
1.91039e-06
1.91061e-06
1.91046e-06
1.90996e-06
1.9091e-06
1.90787e-06
1.90623e-06
1.90418e-06
1.90183e-06
1.89966e-06
1.9018e-06
1.90378e-06
1.90585e-06
1.90782e-06
1.9095e-06
1.91078e-06
1.91169e-06
1.91224e-06
1.91245e-06
1.91231e-06
1.91183e-06
1.91099e-06
1.90979e-06
1.9082e-06
1.90621e-06
1.90393e-06
1.90181e-06
1.9036e-06
1.90556e-06
1.90757e-06
1.9095e-06
1.91113e-06
1.91238e-06
1.91327e-06
1.91381e-06
1.91402e-06
1.91388e-06
1.9134e-06
1.91259e-06
1.91142e-06
1.90987e-06
1.90792e-06
1.90571e-06
1.90361e-06
1.90495e-06
1.90691e-06
1.90888e-06
1.91078e-06
1.91238e-06
1.91361e-06
1.91448e-06
1.91501e-06
1.91521e-06
1.91508e-06
1.91461e-06
1.91381e-06
1.91266e-06
1.91114e-06
1.90923e-06
1.90706e-06
1.90497e-06
1.90593e-06
1.90788e-06
1.90982e-06
1.91169e-06
1.91327e-06
1.91448e-06
1.91534e-06
1.91586e-06
1.91606e-06
1.91593e-06
1.91547e-06
1.91468e-06
1.91355e-06
1.91205e-06
1.91016e-06
1.90803e-06
1.90594e-06
1.90652e-06
1.90847e-06
1.91039e-06
1.91224e-06
1.91381e-06
1.91501e-06
1.91586e-06
1.91639e-06
1.91658e-06
1.91646e-06
1.916e-06
1.91521e-06
1.91409e-06
1.9126e-06
1.91073e-06
1.90861e-06
1.90653e-06
1.90674e-06
1.90869e-06
1.9106e-06
1.91245e-06
1.91402e-06
1.91521e-06
1.91606e-06
1.91658e-06
1.91678e-06
1.91665e-06
1.9162e-06
1.91541e-06
1.91429e-06
1.91281e-06
1.91094e-06
1.90884e-06
1.90676e-06
1.90659e-06
1.90854e-06
1.91046e-06
1.91231e-06
1.91388e-06
1.91508e-06
1.91593e-06
1.91646e-06
1.91665e-06
1.91652e-06
1.91607e-06
1.91528e-06
1.91416e-06
1.91267e-06
1.9108e-06
1.90869e-06
1.90661e-06
1.90607e-06
1.90803e-06
1.90996e-06
1.91183e-06
1.9134e-06
1.91461e-06
1.91547e-06
1.916e-06
1.9162e-06
1.91607e-06
1.91561e-06
1.91482e-06
1.91368e-06
1.91219e-06
1.9103e-06
1.90817e-06
1.90609e-06
1.90517e-06
1.90713e-06
1.9091e-06
1.91099e-06
1.91259e-06
1.91381e-06
1.91468e-06
1.91521e-06
1.91541e-06
1.91528e-06
1.91482e-06
1.91401e-06
1.91287e-06
1.91135e-06
1.90945e-06
1.90728e-06
1.90519e-06
1.90391e-06
1.90587e-06
1.90787e-06
1.90979e-06
1.91142e-06
1.91266e-06
1.91355e-06
1.91409e-06
1.91429e-06
1.91416e-06
1.91368e-06
1.91287e-06
1.91171e-06
1.91016e-06
1.90822e-06
1.90602e-06
1.90392e-06
1.90219e-06
1.90417e-06
1.90623e-06
1.9082e-06
1.90987e-06
1.91114e-06
1.91205e-06
1.9126e-06
1.91281e-06
1.91267e-06
1.91219e-06
1.91135e-06
1.91016e-06
1.90857e-06
1.90659e-06
1.90432e-06
1.90221e-06
1.90002e-06
1.90206e-06
1.90419e-06
1.90621e-06
1.90793e-06
1.90923e-06
1.91016e-06
1.91073e-06
1.91095e-06
1.9108e-06
1.91031e-06
1.90945e-06
1.90823e-06
1.90659e-06
1.90455e-06
1.90221e-06
1.90003e-06
1.89764e-06
1.89967e-06
1.90183e-06
1.90393e-06
1.90571e-06
1.90706e-06
1.90803e-06
1.90861e-06
1.90884e-06
1.90869e-06
1.90817e-06
1.90728e-06
1.90602e-06
1.90432e-06
1.90221e-06
1.89984e-06
1.89765e-06
1.89498e-06
1.89747e-06
1.89966e-06
1.90181e-06
1.90361e-06
1.90497e-06
1.90594e-06
1.90653e-06
1.90676e-06
1.90661e-06
1.90609e-06
1.90519e-06
1.90392e-06
1.9022e-06
1.90003e-06
1.89765e-06
1.89498e-06
1.84678e-06
1.84935e-06
1.8516e-06
1.85387e-06
1.85574e-06
1.85716e-06
1.85818e-06
1.8588e-06
1.85904e-06
1.85888e-06
1.85834e-06
1.85739e-06
1.85605e-06
1.85427e-06
1.85197e-06
1.84954e-06
1.84677e-06
1.84936e-06
1.85149e-06
1.85374e-06
1.85595e-06
1.85782e-06
1.85925e-06
1.86027e-06
1.86089e-06
1.86113e-06
1.86097e-06
1.86042e-06
1.85948e-06
1.85813e-06
1.85635e-06
1.85411e-06
1.85165e-06
1.84935e-06
1.8516e-06
1.85374e-06
1.85599e-06
1.85813e-06
1.85995e-06
1.86135e-06
1.86234e-06
1.86295e-06
1.86318e-06
1.86303e-06
1.86249e-06
1.86157e-06
1.86026e-06
1.85852e-06
1.85635e-06
1.85388e-06
1.8516e-06
1.85387e-06
1.85595e-06
1.85813e-06
1.86022e-06
1.862e-06
1.86337e-06
1.86434e-06
1.86493e-06
1.86516e-06
1.86501e-06
1.86449e-06
1.86359e-06
1.8623e-06
1.8606e-06
1.85849e-06
1.85608e-06
1.85387e-06
1.85573e-06
1.85782e-06
1.85995e-06
1.862e-06
1.86374e-06
1.86508e-06
1.86604e-06
1.86662e-06
1.86684e-06
1.8667e-06
1.86618e-06
1.8653e-06
1.86404e-06
1.86238e-06
1.86031e-06
1.85795e-06
1.85573e-06
1.85716e-06
1.85925e-06
1.86135e-06
1.86337e-06
1.86508e-06
1.86641e-06
1.86734e-06
1.86792e-06
1.86814e-06
1.86799e-06
1.86749e-06
1.86662e-06
1.86538e-06
1.86374e-06
1.86169e-06
1.85938e-06
1.85716e-06
1.85818e-06
1.86027e-06
1.86234e-06
1.86434e-06
1.86604e-06
1.86734e-06
1.86827e-06
1.86884e-06
1.86906e-06
1.86892e-06
1.86841e-06
1.86755e-06
1.86633e-06
1.86471e-06
1.86268e-06
1.8604e-06
1.85818e-06
1.8588e-06
1.86089e-06
1.86295e-06
1.86493e-06
1.86662e-06
1.86792e-06
1.86884e-06
1.86941e-06
1.86962e-06
1.86948e-06
1.86898e-06
1.86813e-06
1.86691e-06
1.8653e-06
1.86329e-06
1.86102e-06
1.8588e-06
1.85904e-06
1.86113e-06
1.86318e-06
1.86516e-06
1.86684e-06
1.86814e-06
1.86906e-06
1.86962e-06
1.86984e-06
1.8697e-06
1.8692e-06
1.86835e-06
1.86713e-06
1.86552e-06
1.86352e-06
1.86126e-06
1.85904e-06
1.85888e-06
1.86097e-06
1.86303e-06
1.86501e-06
1.8667e-06
1.86799e-06
1.86892e-06
1.86948e-06
1.8697e-06
1.86955e-06
1.86906e-06
1.8682e-06
1.86698e-06
1.86537e-06
1.86336e-06
1.8611e-06
1.85888e-06
1.85834e-06
1.86042e-06
1.86249e-06
1.86449e-06
1.86618e-06
1.86749e-06
1.86841e-06
1.86898e-06
1.8692e-06
1.86906e-06
1.86855e-06
1.8677e-06
1.86647e-06
1.86485e-06
1.86283e-06
1.86055e-06
1.85833e-06
1.85739e-06
1.85948e-06
1.86157e-06
1.86359e-06
1.8653e-06
1.86662e-06
1.86756e-06
1.86813e-06
1.86835e-06
1.8682e-06
1.8677e-06
1.86683e-06
1.86559e-06
1.86396e-06
1.86192e-06
1.85961e-06
1.85738e-06
1.85605e-06
1.85813e-06
1.86026e-06
1.8623e-06
1.86404e-06
1.86538e-06
1.86633e-06
1.86691e-06
1.86713e-06
1.86698e-06
1.86647e-06
1.86559e-06
1.86434e-06
1.86268e-06
1.86061e-06
1.85826e-06
1.85604e-06
1.85427e-06
1.85635e-06
1.85852e-06
1.8606e-06
1.86238e-06
1.86374e-06
1.86471e-06
1.8653e-06
1.86552e-06
1.86538e-06
1.86485e-06
1.86396e-06
1.86268e-06
1.86099e-06
1.85888e-06
1.85648e-06
1.85427e-06
1.85197e-06
1.85411e-06
1.85635e-06
1.85849e-06
1.86031e-06
1.8617e-06
1.86269e-06
1.86329e-06
1.86352e-06
1.86337e-06
1.86283e-06
1.86192e-06
1.86061e-06
1.85888e-06
1.85672e-06
1.85425e-06
1.85197e-06
1.84954e-06
1.85165e-06
1.85388e-06
1.85608e-06
1.85795e-06
1.85938e-06
1.8604e-06
1.86102e-06
1.86126e-06
1.8611e-06
1.86055e-06
1.85961e-06
1.85826e-06
1.85648e-06
1.85425e-06
1.85181e-06
1.84953e-06
1.84677e-06
1.84935e-06
1.8516e-06
1.85387e-06
1.85573e-06
1.85716e-06
1.85818e-06
1.8588e-06
1.85904e-06
1.85888e-06
1.85833e-06
1.85738e-06
1.85604e-06
1.85427e-06
1.85196e-06
1.84953e-06
1.84677e-06
1.8025e-06
1.805e-06
1.80718e-06
1.80943e-06
1.81126e-06
1.81268e-06
1.8137e-06
1.81432e-06
1.81455e-06
1.81439e-06
1.81385e-06
1.81291e-06
1.81157e-06
1.80983e-06
1.80754e-06
1.80517e-06
1.80249e-06
1.805e-06
1.80709e-06
1.80928e-06
1.81148e-06
1.81333e-06
1.81476e-06
1.81579e-06
1.81641e-06
1.81665e-06
1.81649e-06
1.81594e-06
1.81499e-06
1.81364e-06
1.81188e-06
1.80964e-06
1.80724e-06
1.80499e-06
1.80718e-06
1.80928e-06
1.81151e-06
1.81365e-06
1.81548e-06
1.81688e-06
1.81788e-06
1.81849e-06
1.81872e-06
1.81856e-06
1.81802e-06
1.8171e-06
1.81578e-06
1.81404e-06
1.81187e-06
1.80942e-06
1.80717e-06
1.80943e-06
1.81148e-06
1.81365e-06
1.81574e-06
1.81754e-06
1.81891e-06
1.8199e-06
1.8205e-06
1.82073e-06
1.82058e-06
1.82005e-06
1.81913e-06
1.81784e-06
1.81613e-06
1.81401e-06
1.81161e-06
1.80943e-06
1.81126e-06
1.81333e-06
1.81547e-06
1.81753e-06
1.8193e-06
1.82066e-06
1.82163e-06
1.82222e-06
1.82245e-06
1.8223e-06
1.82177e-06
1.82087e-06
1.8196e-06
1.81791e-06
1.81582e-06
1.81346e-06
1.81125e-06
1.81268e-06
1.81476e-06
1.81688e-06
1.81891e-06
1.82066e-06
1.822e-06
1.82296e-06
1.82355e-06
1.82377e-06
1.82362e-06
1.8231e-06
1.82222e-06
1.82095e-06
1.81929e-06
1.81722e-06
1.81489e-06
1.81267e-06
1.8137e-06
1.81579e-06
1.81788e-06
1.8199e-06
1.82163e-06
1.82296e-06
1.82391e-06
1.82449e-06
1.82471e-06
1.82457e-06
1.82405e-06
1.82317e-06
1.82192e-06
1.82027e-06
1.81822e-06
1.81591e-06
1.81369e-06
1.81432e-06
1.81641e-06
1.81849e-06
1.8205e-06
1.82222e-06
1.82355e-06
1.82449e-06
1.82507e-06
1.82529e-06
1.82515e-06
1.82463e-06
1.82376e-06
1.82251e-06
1.82087e-06
1.81883e-06
1.81654e-06
1.81431e-06
1.81455e-06
1.81665e-06
1.81872e-06
1.82073e-06
1.82245e-06
1.82377e-06
1.82471e-06
1.82529e-06
1.82551e-06
1.82537e-06
1.82485e-06
1.82398e-06
1.82274e-06
1.8211e-06
1.81906e-06
1.81678e-06
1.81454e-06
1.81439e-06
1.81649e-06
1.81856e-06
1.82058e-06
1.8223e-06
1.82362e-06
1.82457e-06
1.82515e-06
1.82537e-06
1.82522e-06
1.82471e-06
1.82383e-06
1.82259e-06
1.82095e-06
1.8189e-06
1.81662e-06
1.81438e-06
1.81385e-06
1.81594e-06
1.81802e-06
1.82005e-06
1.82177e-06
1.8231e-06
1.82405e-06
1.82464e-06
1.82486e-06
1.82471e-06
1.82419e-06
1.82332e-06
1.82206e-06
1.82041e-06
1.81837e-06
1.81606e-06
1.81384e-06
1.81291e-06
1.81499e-06
1.8171e-06
1.81913e-06
1.82087e-06
1.82222e-06
1.82317e-06
1.82376e-06
1.82398e-06
1.82383e-06
1.82332e-06
1.82243e-06
1.82117e-06
1.81951e-06
1.81744e-06
1.81512e-06
1.8129e-06
1.81157e-06
1.81364e-06
1.81578e-06
1.81784e-06
1.8196e-06
1.82095e-06
1.82192e-06
1.82251e-06
1.82274e-06
1.82259e-06
1.82206e-06
1.82117e-06
1.81989e-06
1.81821e-06
1.81613e-06
1.81377e-06
1.81156e-06
1.80983e-06
1.81188e-06
1.81404e-06
1.81613e-06
1.81791e-06
1.81929e-06
1.82027e-06
1.82087e-06
1.8211e-06
1.82095e-06
1.82042e-06
1.81951e-06
1.81821e-06
1.81651e-06
1.8144e-06
1.81201e-06
1.80982e-06
1.80754e-06
1.80964e-06
1.81187e-06
1.81401e-06
1.81583e-06
1.81722e-06
1.81822e-06
1.81883e-06
1.81906e-06
1.8189e-06
1.81837e-06
1.81744e-06
1.81613e-06
1.8144e-06
1.81223e-06
1.80978e-06
1.80753e-06
1.80517e-06
1.80724e-06
1.80943e-06
1.81161e-06
1.81346e-06
1.81489e-06
1.81591e-06
1.81654e-06
1.81678e-06
1.81662e-06
1.81607e-06
1.81512e-06
1.81377e-06
1.81201e-06
1.80978e-06
1.80739e-06
1.80517e-06
1.80249e-06
1.80499e-06
1.80717e-06
1.80942e-06
1.81125e-06
1.81267e-06
1.81369e-06
1.81431e-06
1.81454e-06
1.81438e-06
1.81384e-06
1.8129e-06
1.81156e-06
1.80982e-06
1.80753e-06
1.80517e-06
1.80249e-06
1.76152e-06
1.76383e-06
1.76586e-06
1.76798e-06
1.76969e-06
1.77104e-06
1.772e-06
1.77259e-06
1.77281e-06
1.77266e-06
1.77214e-06
1.77125e-06
1.76998e-06
1.76836e-06
1.76619e-06
1.76399e-06
1.76151e-06
1.76383e-06
1.76578e-06
1.76783e-06
1.7699e-06
1.77165e-06
1.77302e-06
1.77399e-06
1.77459e-06
1.77481e-06
1.77466e-06
1.77413e-06
1.77323e-06
1.77194e-06
1.77028e-06
1.76816e-06
1.76592e-06
1.76382e-06
1.76586e-06
1.76783e-06
1.76993e-06
1.77196e-06
1.77369e-06
1.77504e-06
1.776e-06
1.77658e-06
1.77681e-06
1.77666e-06
1.77614e-06
1.77525e-06
1.77399e-06
1.77233e-06
1.77027e-06
1.76796e-06
1.76585e-06
1.76798e-06
1.7699e-06
1.77196e-06
1.77395e-06
1.77567e-06
1.77699e-06
1.77794e-06
1.77853e-06
1.77875e-06
1.7786e-06
1.77808e-06
1.7772e-06
1.77596e-06
1.77432e-06
1.7723e-06
1.77003e-06
1.76797e-06
1.76969e-06
1.77165e-06
1.77369e-06
1.77567e-06
1.77737e-06
1.77868e-06
1.77962e-06
1.7802e-06
1.78041e-06
1.78027e-06
1.77976e-06
1.77889e-06
1.77765e-06
1.77603e-06
1.77403e-06
1.77177e-06
1.76968e-06
1.77104e-06
1.77301e-06
1.77504e-06
1.77699e-06
1.77868e-06
1.77998e-06
1.78091e-06
1.78149e-06
1.7817e-06
1.78156e-06
1.78105e-06
1.78019e-06
1.77896e-06
1.77735e-06
1.77537e-06
1.77314e-06
1.77103e-06
1.772e-06
1.77399e-06
1.77599e-06
1.77794e-06
1.77962e-06
1.78092e-06
1.78184e-06
1.78241e-06
1.78263e-06
1.78248e-06
1.78198e-06
1.78112e-06
1.7799e-06
1.7783e-06
1.77632e-06
1.77411e-06
1.77199e-06
1.77259e-06
1.77459e-06
1.77658e-06
1.77853e-06
1.7802e-06
1.78149e-06
1.78241e-06
1.78298e-06
1.78319e-06
1.78305e-06
1.78255e-06
1.78169e-06
1.78048e-06
1.77888e-06
1.77691e-06
1.77471e-06
1.77258e-06
1.77281e-06
1.77481e-06
1.7768e-06
1.77875e-06
1.78041e-06
1.7817e-06
1.78263e-06
1.78319e-06
1.78341e-06
1.78326e-06
1.78276e-06
1.78191e-06
1.78069e-06
1.7791e-06
1.77713e-06
1.77494e-06
1.77281e-06
1.77266e-06
1.77466e-06
1.77665e-06
1.7786e-06
1.78027e-06
1.78156e-06
1.78248e-06
1.78305e-06
1.78326e-06
1.78312e-06
1.78262e-06
1.78176e-06
1.78055e-06
1.77896e-06
1.77698e-06
1.77478e-06
1.77265e-06
1.77214e-06
1.77413e-06
1.77614e-06
1.77808e-06
1.77976e-06
1.78105e-06
1.78198e-06
1.78255e-06
1.78276e-06
1.78262e-06
1.78212e-06
1.78126e-06
1.78004e-06
1.77844e-06
1.77647e-06
1.77426e-06
1.77214e-06
1.77125e-06
1.77323e-06
1.77525e-06
1.7772e-06
1.77889e-06
1.78019e-06
1.78112e-06
1.78169e-06
1.78191e-06
1.78176e-06
1.78126e-06
1.7804e-06
1.77917e-06
1.77756e-06
1.77558e-06
1.77335e-06
1.77124e-06
1.76998e-06
1.77194e-06
1.77399e-06
1.77596e-06
1.77765e-06
1.77896e-06
1.7799e-06
1.78048e-06
1.7807e-06
1.78055e-06
1.78004e-06
1.77917e-06
1.77794e-06
1.77632e-06
1.77432e-06
1.77207e-06
1.76997e-06
1.76836e-06
1.77028e-06
1.77233e-06
1.77432e-06
1.77603e-06
1.77735e-06
1.7783e-06
1.77888e-06
1.7791e-06
1.77896e-06
1.77844e-06
1.77756e-06
1.77632e-06
1.77468e-06
1.77267e-06
1.7704e-06
1.76835e-06
1.76619e-06
1.76816e-06
1.77027e-06
1.7723e-06
1.77403e-06
1.77537e-06
1.77633e-06
1.77691e-06
1.77713e-06
1.77698e-06
1.77647e-06
1.77558e-06
1.77432e-06
1.77267e-06
1.77061e-06
1.7683e-06
1.76618e-06
1.76399e-06
1.76593e-06
1.76796e-06
1.77003e-06
1.77177e-06
1.77314e-06
1.77411e-06
1.77471e-06
1.77494e-06
1.77478e-06
1.77426e-06
1.77335e-06
1.77207e-06
1.7704e-06
1.7683e-06
1.76607e-06
1.76399e-06
1.76152e-06
1.76382e-06
1.76585e-06
1.76797e-06
1.76968e-06
1.77103e-06
1.77199e-06
1.77258e-06
1.77281e-06
1.77265e-06
1.77214e-06
1.77124e-06
1.76997e-06
1.76835e-06
1.76618e-06
1.76398e-06
1.76151e-06
1.72342e-06
1.7255e-06
1.72733e-06
1.72927e-06
1.73082e-06
1.73206e-06
1.73294e-06
1.73348e-06
1.73369e-06
1.73355e-06
1.73307e-06
1.73225e-06
1.73108e-06
1.72961e-06
1.72762e-06
1.72564e-06
1.72341e-06
1.7255e-06
1.72726e-06
1.72912e-06
1.73102e-06
1.73261e-06
1.73387e-06
1.73477e-06
1.73532e-06
1.73553e-06
1.73539e-06
1.7349e-06
1.73407e-06
1.73288e-06
1.73136e-06
1.72942e-06
1.72739e-06
1.72549e-06
1.72733e-06
1.72912e-06
1.73104e-06
1.73291e-06
1.7345e-06
1.73574e-06
1.73663e-06
1.73717e-06
1.73738e-06
1.73724e-06
1.73676e-06
1.73594e-06
1.73477e-06
1.73325e-06
1.73135e-06
1.72924e-06
1.72732e-06
1.72927e-06
1.73102e-06
1.73291e-06
1.73474e-06
1.73633e-06
1.73756e-06
1.73844e-06
1.73898e-06
1.73919e-06
1.73905e-06
1.73857e-06
1.73775e-06
1.73659e-06
1.73508e-06
1.73321e-06
1.73113e-06
1.72926e-06
1.73082e-06
1.73261e-06
1.7345e-06
1.73632e-06
1.7379e-06
1.73913e-06
1.74001e-06
1.74055e-06
1.74075e-06
1.74061e-06
1.74014e-06
1.73932e-06
1.73817e-06
1.73666e-06
1.73481e-06
1.73272e-06
1.73081e-06
1.73206e-06
1.73387e-06
1.73574e-06
1.73756e-06
1.73913e-06
1.74035e-06
1.74122e-06
1.74176e-06
1.74196e-06
1.74183e-06
1.74135e-06
1.74054e-06
1.73939e-06
1.73789e-06
1.73605e-06
1.73398e-06
1.73205e-06
1.73294e-06
1.73477e-06
1.73663e-06
1.73844e-06
1.74001e-06
1.74122e-06
1.74209e-06
1.74263e-06
1.74283e-06
1.74269e-06
1.74222e-06
1.74141e-06
1.74027e-06
1.73877e-06
1.73693e-06
1.73488e-06
1.73293e-06
1.73348e-06
1.73532e-06
1.73717e-06
1.73898e-06
1.74055e-06
1.74176e-06
1.74263e-06
1.74316e-06
1.74336e-06
1.74323e-06
1.74276e-06
1.74195e-06
1.74081e-06
1.73932e-06
1.73748e-06
1.73543e-06
1.73347e-06
1.73369e-06
1.73553e-06
1.73738e-06
1.73919e-06
1.74075e-06
1.74196e-06
1.74283e-06
1.74336e-06
1.74357e-06
1.74343e-06
1.74296e-06
1.74215e-06
1.74101e-06
1.73952e-06
1.73768e-06