/*--------------------------------*- C++ -*----------------------------------*\
  =========                 |
  \\      /  F ield         | OpenFOAM: The Open Source CFD Toolbox
   \\    /   O peration     | Website:  https://openfoam.org
    \\  /    A nd           | Version:  6
     \\/     M anipulation  |
\*---------------------------------------------------------------------------*/
FoamFile
{
    version     2.0;
    format      ascii;
    class       volScalarField;
    location    "./ITHACAoutput/Offline/1";
    object      nut;
}
// * * * * * * * * * * * * * * * * * * * * * * * * * * * * * * * * * * * * * //

dimensions      [0 2 -1 0 0 0 0];

internalField   nonuniform List<scalar> 
115600
(
-0.000164578
-5.84062e-05
-5.13603e-05
-4.39786e-05
-3.58481e-05
-2.91654e-05
-2.51934e-05
-2.33773e-05
-2.33698e-05
-2.38682e-05
-2.38917e-05
-2.30839e-05
-2.15136e-05
-1.9483e-05
-1.73774e-05
-1.55292e-05
-1.41497e-05
-1.33053e-05
-1.29382e-05
-1.29076e-05
-1.3039e-05
-1.31714e-05
-1.31898e-05
-1.3043e-05
-1.27416e-05
-1.23431e-05
-1.19313e-05
-1.15904e-05
-1.13808e-05
-1.13264e-05
-1.14153e-05
-1.15781e-05
-1.18118e-05
-1.20128e-05
-1.21616e-05
-1.22434e-05
-1.22622e-05
-1.22384e-05
-1.22059e-05
-1.21971e-05
-1.22361e-05
-1.23348e-05
-1.24918e-05
-1.26968e-05
-1.29307e-05
-1.31753e-05
-1.34138e-05
-1.3636e-05
-1.38323e-05
-1.39981e-05
-1.41337e-05
-1.42478e-05
-1.43673e-05
-1.45517e-05
-1.521e-05
-2.43102e-05
-0.0103209
-0.00790167
-0.00778892
-0.00677659
-0.00513681
-0.00358431
-0.00258115
-0.00215035
-0.00211981
-0.00227659
-0.00241149
-0.00241979
-0.00229008
-0.00205755
-0.00178107
-0.00151583
-0.00130169
-0.00115807
-0.00108529
-0.00106969
-0.00108917
-0.00112091
-0.00114558
-0.00115109
-0.00113378
-0.00109732
-0.00105062
-0.0010046
-0.000969331
-0.000951086
-0.000951781
-0.000966464
-0.000994851
-0.00102396
-0.00104906
-0.00106638
-0.00107467
-0.00107486
-0.00107019
-0.0010649
-0.00106308
-0.00106743
-0.00107906
-0.0010978
-0.00112196
-0.00114937
-0.0011779
-0.00120575
-0.00123172
-0.00125462
-0.00127467
-0.00129262
-0.00131178
-0.00134523
-0.00145119
-0.00225929
-0.0516211
-0.067748
-0.0784196
-0.0755349
-0.0626405
-0.0467811
-0.0338991
-0.0266195
-0.0246023
-0.0261161
-0.0286424
-0.030292
-0.0301081
-0.0280502
-0.0246946
-0.02087
-0.0173487
-0.0146744
-0.0130814
-0.0125188
-0.0127262
-0.0133383
-0.013999
-0.0144268
-0.0144764
-0.0141341
-0.0135062
-0.0127637
-0.0120914
-0.0116439
-0.0114995
-0.0116461
-0.0120507
-0.0125595
-0.0130589
-0.0134573
-0.0136963
-0.0137691
-0.0137132
-0.0135938
-0.0134876
-0.0134547
-0.0135348
-0.0137388
-0.014049
-0.0144357
-0.0148638
-0.0152976
-0.0157145
-0.0160952
-0.0164328
-0.0167365
-0.0170538
-0.0175564
-0.0189821
-0.0239538
-0.100832
-0.155696
-0.190808
-0.193901
-0.172613
-0.140955
-0.111869
-0.0927931
-0.0856064
-0.0874337
-0.0937415
-0.099706
-0.102098
-0.0996051
-0.0927517
-0.083211
-0.0731423
-0.0644832
-0.0585603
-0.0558018
-0.0558868
-0.0578768
-0.0605898
-0.0629008
-0.064064
-0.0637476
-0.0621238
-0.0597209
-0.0572131
-0.0552826
-0.0543624
-0.0545811
-0.0558181
-0.0576578
-0.0596543
-0.061354
-0.0624979
-0.0629759
-0.0628615
-0.0623894
-0.0618516
-0.0614729
-0.0614663
-0.0618681
-0.0626507
-0.0637387
-0.0650079
-0.0663186
-0.0675912
-0.0687497
-0.0697446
-0.0705706
-0.0712715
-0.0720808
-0.0741395
-0.0800624
-0.137916
-0.231128
-0.297262
-0.314486
-0.292054
-0.250277
-0.208455
-0.179216
-0.166581
-0.168542
-0.17817
-0.188448
-0.193947
-0.191998
-0.182765
-0.168482
-0.152429
-0.137891
-0.127298
-0.121813
-0.121214
-0.124188
-0.128839
-0.13326
-0.135956
-0.136199
-0.134075
-0.130344
-0.126159
-0.122687
-0.120803
-0.120884
-0.122754
-0.125842
-0.129332
-0.132464
-0.134666
-0.135715
-0.135696
-0.134955
-0.133988
-0.133237
-0.13303
-0.133526
-0.13469
-0.136385
-0.138405
-0.14056
-0.142671
-0.144599
-0.146237
-0.147536
-0.148493
-0.149244
-0.150862
-0.155945
-0.164206
-0.279543
-0.372983
-0.408415
-0.393241
-0.350394
-0.303469
-0.269195
-0.254143
-0.256681
-0.26967
-0.284113
-0.292863
-0.292185
-0.281662
-0.264053
-0.243262
-0.223752
-0.209063
-0.201053
-0.199446
-0.203031
-0.209129
-0.215251
-0.21925
-0.219987
-0.217511
-0.212717
-0.207189
-0.202529
-0.199854
-0.199871
-0.202366
-0.206583
-0.211418
-0.215815
-0.219015
-0.220632
-0.220781
-0.220004
-0.218734
-0.217865
-0.217666
-0.218434
-0.220095
-0.222508
-0.225346
-0.228456
-0.23148
-0.234253
-0.236481
-0.238341
-0.239641
-0.240354
-0.241536
-0.245769
-0.185506
-0.301976
-0.412289
-0.465925
-0.463557
-0.427009
-0.381747
-0.347071
-0.332098
-0.336303
-0.352771
-0.37154
-0.384553
-0.386857
-0.377518
-0.358904
-0.335971
-0.313467
-0.296022
-0.285903
-0.283558
-0.2872
-0.294348
-0.301673
-0.306719
-0.308171
-0.305669
-0.300452
-0.294145
-0.288787
-0.285861
-0.28587
-0.288962
-0.293985
-0.299873
-0.305379
-0.309379
-0.31156
-0.312148
-0.311489
-0.310347
-0.309653
-0.309776
-0.310919
-0.313247
-0.316434
-0.320057
-0.324047
-0.327956
-0.331491
-0.334593
-0.337104
-0.338803
-0.339819
-0.340849
-0.344616
-0.208006
-0.30503
-0.419218
-0.487652
-0.50079
-0.475542
-0.436504
-0.404462
-0.390916
-0.39711
-0.416961
-0.440785
-0.459335
-0.466723
-0.461252
-0.444692
-0.422114
-0.398784
-0.379717
-0.368237
-0.364988
-0.368731
-0.376513
-0.385078
-0.391563
-0.394067
-0.392403
-0.387606
-0.381366
-0.37598
-0.372855
-0.373135
-0.376522
-0.382284
-0.389033
-0.395474
-0.400473
-0.403475
-0.404631
-0.404493
-0.403771
-0.403455
-0.404125
-0.405846
-0.408778
-0.412805
-0.417305
-0.422122
-0.426949
-0.431431
-0.435335
-0.438494
-0.440933
-0.442508
-0.444046
-0.448088
-0.236622
-0.297591
-0.401123
-0.477604
-0.505893
-0.494911
-0.465501
-0.438619
-0.427401
-0.43556
-0.458606
-0.487503
-0.512308
-0.52647
-0.526947
-0.515117
-0.495125
-0.472813
-0.453557
-0.441324
-0.437448
-0.441184
-0.44978
-0.459818
-0.468056
-0.472615
-0.472686
-0.469128
-0.463803
-0.458837
-0.456023
-0.456461
-0.460275
-0.466719
-0.474402
-0.481882
-0.487996
-0.492057
-0.494219
-0.494936
-0.495027
-0.495395
-0.496606
-0.499113
-0.502732
-0.507358
-0.512799
-0.518496
-0.524239
-0.529746
-0.534696
-0.538855
-0.542258
-0.544784
-0.547101
-0.551856
-0.274478
-0.288545
-0.367478
-0.442471
-0.482539
-0.486296
-0.469018
-0.449405
-0.441586
-0.45158
-0.477139
-0.510246
-0.541454
-0.563169
-0.571311
-0.566077
-0.550857
-0.531287
-0.513224
-0.50106
-0.496912
-0.500854
-0.510233
-0.521897
-0.532582
-0.539722
-0.542373
-0.541073
-0.537271
-0.533383
-0.531327
-0.532301
-0.536768
-0.543952
-0.552674
-0.561344
-0.568824
-0.574336
-0.577797
-0.579743
-0.580926
-0.582162
-0.584177
-0.587348
-0.591799
-0.597296
-0.603569
-0.610292
-0.61702
-0.623645
-0.629743
-0.635107
-0.639644
-0.64339
-0.646932
-0.652762
-0.322718
-0.286234
-0.329986
-0.391488
-0.436269
-0.452892
-0.448432
-0.437756
-0.434512
-0.446409
-0.473574
-0.509913
-0.546698
-0.57591
-0.592579
-0.595264
-0.586685
-0.571778
-0.55618
-0.545088
-0.541275
-0.545442
-0.555749
-0.569314
-0.582465
-0.592761
-0.59858
-0.600144
-0.598842
-0.596878
-0.596075
-0.59797
-0.603305
-0.611509
-0.621354
-0.631493
-0.640637
-0.647816
-0.652941
-0.656396
-0.658871
-0.661312
-0.664371
-0.668417
-0.673807
-0.680225
-0.687479
-0.695322
-0.70315
-0.711041
-0.718444
-0.725235
-0.731135
-0.736234
-0.74123
-0.748126
-0.383107
-0.296652
-0.300871
-0.338162
-0.377265
-0.400894
-0.407392
-0.405817
-0.407868
-0.421896
-0.449807
-0.487916
-0.529014
-0.565065
-0.59017
-0.601815
-0.60135
-0.592613
-0.581302
-0.572363
-0.569475
-0.574177
-0.585366
-0.600346
-0.61609
-0.629661
-0.639179
-0.644466
-0.646443
-0.646943
-0.648207
-0.651643
-0.658233
-0.667583
-0.678769
-0.690563
-0.701457
-0.710693
-0.71781
-0.723059
-0.727237
-0.731118
-0.73538
-0.74072
-0.747069
-0.754638
-0.762976
-0.771995
-0.781199
-0.790357
-0.799225
-0.807495
-0.814855
-0.821559
-0.827992
-0.836004
-0.459484
-0.324558
-0.290718
-0.297227
-0.320021
-0.341211
-0.353029
-0.358229
-0.364967
-0.380605
-0.408588
-0.447087
-0.49061
-0.532035
-0.564934
-0.585754
-0.594355
-0.593494
-0.587853
-0.58238
-0.581437
-0.586774
-0.598626
-0.614992
-0.633084
-0.649825
-0.663391
-0.672827
-0.678708
-0.682674
-0.686588
-0.69218
-0.700366
-0.711129
-0.723801
-0.737299
-0.750152
-0.761439
-0.770757
-0.778282
-0.784476
-0.790187
-0.796111
-0.802837
-0.810538
-0.819308
-0.828955
-0.839286
-0.849809
-0.860478
-0.87087
-0.880619
-0.889705
-0.897924
-0.905945
-0.915273
-0.55841
-0.375161
-0.307055
-0.282555
-0.281901
-0.29047
-0.298889
-0.305152
-0.313236
-0.328555
-0.354768
-0.391769
-0.435541
-0.479998
-0.519031
-0.548405
-0.566311
-0.574191
-0.575651
-0.575057
-0.576851
-0.583579
-0.596144
-0.613511
-0.633465
-0.653242
-0.670686
-0.684552
-0.694902
-0.702953
-0.71026
-0.718565
-0.728668
-0.741222
-0.755668
-0.770905
-0.785777
-0.799383
-0.811198
-0.821107
-0.829677
-0.837476
-0.845434
-0.853815
-0.863168
-0.8734
-0.884444
-0.896211
-0.90821
-0.92041
-0.932308
-0.943762
-0.9545
-0.964417
-0.974013
-0.984757
-0.689706
-0.457366
-0.35774
-0.304599
-0.27845
-0.267909
-0.264535
-0.264253
-0.267519
-0.277791
-0.298407
-0.330126
-0.370471
-0.414703
-0.45704
-0.492791
-0.519164
-0.535881
-0.545243
-0.550731
-0.556333
-0.565052
-0.578698
-0.596847
-0.618298
-0.640531
-0.661575
-0.679911
-0.695079
-0.7077
-0.719041
-0.730464
-0.743255
-0.757848
-0.774015
-0.791099
-0.808081
-0.824035
-0.838388
-0.851085
-0.862289
-0.872668
-0.882798
-0.893372
-0.904376
-0.916319
-0.928956
-0.942284
-0.955829
-0.969618
-0.983069
-0.996259
-1.00876
-1.02037
-1.03165
-1.0437
-0.874069
-0.590765
-0.458057
-0.376781
-0.324585
-0.291456
-0.270276
-0.256545
-0.24855
-0.247757
-0.256682
-0.27719
-0.308216
-0.346705
-0.387463
-0.425767
-0.457847
-0.482051
-0.499067
-0.511079
-0.521359
-0.532939
-0.547807
-0.566849
-0.589244
-0.613473
-0.637588
-0.660038
-0.679874
-0.697203
-0.713015
-0.728175
-0.743934
-0.76083
-0.779069
-0.798098
-0.817177
-0.835482
-0.85255
-0.868089
-0.882107
-0.895233
-0.907965
-0.920718
-0.933938
-0.947762
-0.962068
-0.977039
-0.992258
-1.00759
-1.02289
-1.03775
-1.05187
-1.06533
-1.07826
-1.09168
-1.14182
-0.805077
-0.633341
-0.520361
-0.439532
-0.380285
-0.336249
-0.302889
-0.277716
-0.260408
-0.252321
-0.255205
-0.269706
-0.29452
-0.326275
-0.360404
-0.392912
-0.420847
-0.443156
-0.46069
-0.475473
-0.490075
-0.506524
-0.526225
-0.549344
-0.574783
-0.60119
-0.626978
-0.651032
-0.673133
-0.693327
-0.71248
-0.731489
-0.751209
-0.771619
-0.792609
-0.813796
-0.834502
-0.854104
-0.872446
-0.889489
-0.905574
-0.920948
-0.936297
-0.951785
-0.967591
-0.984013
-1.00062
-1.01758
-1.0346
-1.05152
-1.06808
-1.08404
-1.09923
-1.11379
-1.12858
-1.48786
-1.11272
-0.899606
-0.752362
-0.641275
-0.553634
-0.482744
-0.424684
-0.376701
-0.337645
-0.307739
-0.288349
-0.280583
-0.284305
-0.298113
-0.319187
-0.343648
-0.368308
-0.390756
-0.410201
-0.427382
-0.443802
-0.46114
-0.481048
-0.503895
-0.529521
-0.556919
-0.584898
-0.612213
-0.638064
-0.662404
-0.685531
-0.707896
-0.730329
-0.753193
-0.776174
-0.799355
-0.822246
-0.844341
-0.865434
-0.885411
-0.904362
-0.922609
-0.940568
-0.958552
-0.976526
-0.994887
-1.01336
-1.0321
-1.05083
-1.06937
-1.0876
-1.10524
-1.12209
-1.13831
-1.15441
-1.83403
-1.47155
-1.23404
-1.06028
-0.923901
-0.81121
-0.71567
-0.633184
-0.561063
-0.49803
-0.443522
-0.398665
-0.364775
-0.342673
-0.332158
-0.331758
-0.339012
-0.351146
-0.365363
-0.379931
-0.394185
-0.408526
-0.423992
-0.441696
-0.462454
-0.486294
-0.512841
-0.541016
-0.569675
-0.597922
-0.625267
-0.65146
-0.676897
-0.701766
-0.726649
-0.751681
-0.776626
-0.801313
-0.825411
-0.848932
-0.871533
-0.893199
-0.914261
-0.934873
-0.955251
-0.975455
-0.995821
-1.01626
-1.03666
-1.05707
-1.07721
-1.09702
-1.11629
-1.1347
-1.15239
-1.16937
-2.09759
-1.80647
-1.57925
-1.39898
-1.25068
-1.1237
-1.01211
-0.912599
-0.822466
-0.740302
-0.665132
-0.597688
-0.538916
-0.49027
-0.452679
-0.426209
-0.409643
-0.401164
-0.398545
-0.39973
-0.403397
-0.409033
-0.416923
-0.427874
-0.442401
-0.460732
-0.482737
-0.50781
-0.53473
-0.56261
-0.590532
-0.61805
-0.645051
-0.671478
-0.697667
-0.723805
-0.749911
-0.775763
-0.8013
-0.826623
-0.851224
-0.87518
-0.898549
-0.92147
-0.944127
-0.9665
-0.988709
-1.01094
-1.03301
-1.05489
-1.07656
-1.09775
-1.11834
-1.1382
-1.15692
-1.17456
-2.26174
-2.06665
-1.88156
-1.71844
-1.57568
-1.44838
-1.33286
-1.227
-1.12874
-1.03686
-0.950631
-0.869571
-0.794426
-0.726412
-0.66678
-0.616247
-0.575171
-0.542934
-0.518147
-0.499353
-0.48536
-0.475373
-0.469128
-0.466946
-0.469366
-0.47657
-0.488707
-0.505377
-0.525643
-0.548582
-0.573119
-0.598328
-0.623982
-0.649602
-0.675234
-0.70079
-0.726698
-0.752584
-0.778344
-0.804091
-0.829698
-0.854961
-0.879889
-0.904447
-0.928781
-0.952819
-0.976648
-1.00022
-1.02358
-1.04682
-1.0696
-1.09184
-1.11344
-1.1341
-1.15346
-1.17147
-2.3517
-2.24371
-2.11488
-1.98649
-1.86479
-1.75037
-1.64252
-1.54075
-1.44417
-1.35211
-1.26379
-1.17924
-1.09839
-1.02206
-0.950907
-0.886012
-0.827651
-0.776267
-0.731325
-0.692358
-0.658544
-0.629454
-0.604862
-0.584884
-0.57008
-0.560789
-0.557353
-0.559714
-0.567268
-0.579135
-0.594552
-0.61235
-0.631875
-0.65253
-0.674089
-0.696214
-0.718874
-0.742499
-0.766195
-0.790722
-0.8154
-0.840257
-0.865271
-0.890225
-0.915133
-0.939858
-0.964304
-0.988641
-1.01271
-1.03643
-1.05973
-1.08255
-1.10462
-1.12554
-1.14487
-1.16248
-2.3987
-2.3535
-2.27958
-2.19243
-2.10123
-2.00948
-1.91808
-1.82884
-1.74184
-1.65702
-1.57433
-1.49372
-1.4153
-1.33955
-1.26692
-1.19776
-1.1326
-1.07156
-1.0149
-0.962212
-0.913355
-0.868292
-0.827004
-0.789705
-0.757079
-0.729648
-0.707916
-0.692254
-0.682554
-0.678199
-0.678832
-0.683518
-0.69126
-0.70166
-0.714139
-0.728367
-0.744178
-0.761617
-0.779774
-0.799657
-0.820922
-0.842577
-0.865186
-0.888425
-0.911952
-0.935583
-0.959366
-0.983025
-1.00653
-1.02978
-1.0527
-1.07503
-1.09651
-1.11685
-1.1354
-1.15159
-2.42262
-2.41824
-2.38818
-2.34044
-2.28214
-2.21724
-2.14847
-2.07826
-2.00577
-1.93344
-1.86159
-1.7902
-1.71974
-1.65044
-1.58267
-1.51665
-1.45249
-1.39046
-1.33052
-1.27261
-1.21685
-1.1631
-1.11167
-1.06289
-1.0172
-0.975309
-0.937972
-0.90564
-0.878618
-0.856977
-0.840401
-0.828483
-0.820687
-0.816382
-0.815239
-0.816915
-0.821297
-0.82802
-0.836993
-0.848179
-0.862216
-0.877179
-0.894034
-0.91234
-0.931568
-0.951647
-0.972216
-0.99309
-1.01416
-1.0352
-1.05603
-1.07647
-1.09609
-1.11464
-1.13111
-1.14499
-2.43564
-2.45616
-2.45753
-2.44234
-2.41407
-2.37693
-2.33164
-2.28164
-2.22886
-2.17242
-2.11466
-2.05557
-1.99612
-1.93739
-1.87841
-1.81982
-1.76162
-1.704
-1.64687
-1.59017
-1.53419
-1.47876
-1.42424
-1.37083
-1.31908
-1.26962
-1.22295
-1.1795
-1.14004
-1.10456
-1.0733
-1.04602
-1.02274
-1.00294
-0.986616
-0.973583
-0.963723
-0.957074
-0.953424
-0.952388
-0.955015
-0.96029
-0.967173
-0.977226
-0.988928
-1.00187
-1.0161
-1.0314
-1.04736
-1.06373
-1.08032
-1.0968
-1.1128
-1.12772
-1.14087
-1.15142
-2.44364
-2.47886
-2.50159
-2.51073
-2.50809
-2.49452
-2.47261
-2.44347
-2.4096
-2.37016
-2.32877
-2.28407
-2.23839
-2.19161
-2.14338
-2.09464
-2.04527
-1.99441
-1.94434
-1.89301
-1.84118
-1.78885
-1.73638
-1.68396
-1.632
-1.58097
-1.53129
-1.48337
-1.43772
-1.39458
-1.35403
-1.31632
-1.2814
-1.24932
-1.22006
-1.19367
-1.17012
-1.14968
-1.13346
-1.11909
-1.10814
-1.10119
-1.0964
-1.09488
-1.09599
-1.09905
-1.10402
-1.11067
-1.11863
-1.12763
-1.13749
-1.14766
-1.15784
-1.16734
-1.17548
-1.18172
-2.44928
-2.49364
-2.53008
-2.55672
-2.57309
-2.58002
-2.57805
-2.56854
-2.55155
-2.52999
-2.50443
-2.47493
-2.44248
-2.40845
-2.37231
-2.33501
-2.29567
-2.25481
-2.21272
-2.16893
-2.12391
-2.07791
-2.03051
-1.98245
-1.93419
-1.88584
-1.83785
-1.79043
-1.74384
-1.69848
-1.65433
-1.61179
-1.57069
-1.53135
-1.49374
-1.45805
-1.42452
-1.39307
-1.36668
-1.34094
-1.31691
-1.29789
-1.28175
-1.26795
-1.25733
-1.2492
-1.24338
-1.23948
-1.23736
-1.23679
-1.2376
-1.23947
-1.24182
-1.24423
-1.24613
-1.24704
-2.45372
-2.50396
-2.55006
-2.58804
-2.61866
-2.64108
-2.65518
-2.662
-2.66231
-2.65549
-2.64504
-2.6289
-2.61102
-2.58931
-2.56558
-2.5387
-2.51008
-2.47951
-2.44614
-2.41126
-2.37532
-2.33571
-2.29631
-2.25535
-2.21227
-2.16952
-2.12594
-2.08241
-2.03881
-1.99501
-1.95173
-1.90859
-1.86611
-1.82412
-1.78288
-1.74265
-1.70356
-1.66498
-1.63275
-1.59907
-1.56531
-1.53717
-1.51205
-1.48766
-1.46636
-1.44795
-1.43161
-1.41718
-1.40462
-1.39387
-1.38478
-1.37721
-1.37079
-1.36519
-1.35996
-1.35494
-2.45739
-2.51165
-2.56317
-2.60984
-2.65089
-2.68488
-2.71158
-2.73161
-2.74511
-2.75226
-2.75474
-2.75259
-2.74658
-2.73648
-2.72425
-2.70842
-2.68978
-2.66987
-2.64603
-2.62042
-2.59146
-2.5619
-2.52983
-2.49615
-2.46042
-2.42418
-2.38693
-2.34932
-2.31037
-2.27035
-2.23052
-2.18991
-2.14975
-2.10816
-2.06694
-2.02659
-1.98581
-1.94563
-1.91035
-1.87115
-1.83269
-1.80073
-1.76866
-1.73685
-1.70782
-1.68151
-1.65688
-1.63374
-1.61228
-1.59239
-1.57416
-1.55774
-1.54276
-1.52916
-1.51686
-1.50597
-2.46044
-2.51796
-2.57313
-2.6254
-2.67328
-2.71562
-2.75214
-2.78247
-2.80739
-2.82593
-2.83921
-2.84833
-2.85282
-2.85425
-2.85099
-2.84612
-2.83736
-2.82632
-2.81176
-2.79453
-2.77528
-2.75324
-2.72915
-2.70315
-2.67594
-2.6466
-2.61572
-2.58371
-2.55155
-2.51746
-2.48237
-2.44595
-2.4095
-2.37161
-2.3334
-2.2945
-2.25448
-2.21799
-2.18059
-2.13938
-2.10051
-2.06716
-2.03177
-1.99616
-1.96329
-1.9322
-1.90212
-1.87313
-1.84533
-1.81869
-1.79349
-1.76996
-1.74799
-1.72778
-1.70922
-1.69309
-2.46286
-2.52215
-2.58041
-2.63652
-2.68958
-2.73773
-2.78117
-2.81923
-2.85276
-2.87998
-2.90285
-2.92055
-2.93488
-2.94516
-2.95161
-2.9547
-2.95615
-2.95227
-2.94682
-2.93812
-2.92616
-2.91249
-2.89567
-2.87749
-2.85757
-2.83467
-2.81145
-2.78608
-2.75911
-2.73194
-2.70199
-2.67149
-2.63979
-2.60626
-2.57217
-2.53707
-2.50166
-2.46728
-2.43109
-2.3922
-2.35624
-2.32169
-2.28539
-2.25047
-2.21634
-2.18359
-2.15077
-2.11925
-2.08733
-2.05679
-2.02741
-1.99897
-1.97222
-1.94706
-1.92438
-1.90391
-2.46467
-2.52525
-2.58534
-2.64389
-2.69983
-2.75252
-2.8008
-2.84536
-2.88441
-2.91825
-2.94833
-2.97422
-2.99617
-3.01424
-3.02848
-3.03937
-3.04752
-3.05227
-3.05337
-3.05217
-3.04793
-3.04154
-3.03169
-3.02033
-3.00692
-2.99156
-2.97411
-2.95468
-2.9349
-2.9132
-2.88926
-2.86412
-2.83712
-2.81015
-2.78087
-2.74964
-2.72028
-2.68836
-2.65393
-2.62082
-2.58821
-2.55537
-2.52172
-2.4866
-2.45453
-2.4215
-2.38911
-2.35579
-2.32375
-2.29152
-2.26023
-2.22987
-2.20117
-2.173
-2.14699
-2.12406
-2.46586
-2.52718
-2.5889
-2.64881
-2.70617
-2.76115
-2.81283
-2.86135
-2.90495
-2.94547
-2.98017
-3.01278
-3.03945
-3.06408
-3.08443
-3.10169
-3.1166
-3.12803
-3.13519
-3.14025
-3.14245
-3.14205
-3.1391
-3.134
-3.12625
-3.11736
-3.10531
-3.09234
-3.07774
-3.06171
-3.04411
-3.02415
-3.00257
-2.97997
-2.95555
-2.93173
-2.90522
-2.87689
-2.84857
-2.82034
-2.79071
-2.76081
-2.73005
-2.69929
-2.6685
-2.63732
-2.6069
-2.575
-2.54318
-2.51161
-2.48153
-2.45042
-2.42102
-2.39202
-2.36475
-2.34099
-2.46644
-2.52798
-2.58996
-2.64976
-2.70858
-2.76499
-2.81866
-2.87017
-2.91718
-2.96103
-2.99975
-3.036
-3.06871
-3.09713
-3.12274
-3.14529
-3.16429
-3.18117
-3.1944
-3.20528
-3.21315
-3.21766
-3.22026
-3.22056
-3.21879
-3.21396
-3.20817
-3.20023
-3.19077
-3.17917
-3.16667
-3.15226
-3.13559
-3.11817
-3.09917
-3.07993
-3.05734
-3.03442
-3.01179
-2.98761
-2.96161
-2.93516
-2.90817
-2.88185
-2.85403
-2.82578
-2.79767
-2.76828
-2.73958
-2.71005
-2.6804
-2.65111
-2.6225
-2.59381
-2.56707
-2.5433
-2.46636
-2.52722
-2.58877
-2.64883
-2.7074
-2.76467
-2.81944
-2.87069
-2.92078
-2.96632
-3.00737
-3.04697
-3.08244
-3.11589
-3.14472
-3.17156
-3.19425
-3.21529
-3.2328
-3.24792
-3.25992
-3.26942
-3.27686
-3.281
-3.28471
-3.28469
-3.28262
-3.28095
-3.27523
-3.26935
-3.26039
-3.25123
-3.23888
-3.22681
-3.21215
-3.19569
-3.17904
-3.1613
-3.14217
-3.12163
-3.10003
-3.07798
-3.05632
-3.03262
-3.00888
-2.98392
-2.95907
-2.93283
-2.90666
-2.88046
-2.85321
-2.82642
-2.79905
-2.77248
-2.74752
-2.7245
-2.46563
-2.52543
-2.58556
-2.64504
-2.70297
-2.75892
-2.81376
-2.86548
-2.9154
-2.96236
-3.00604
-3.04643
-3.08383
-3.11939
-3.15173
-3.18049
-3.20774
-3.23113
-3.25293
-3.27131
-3.28681
-3.29969
-3.31057
-3.31936
-3.32581
-3.33136
-3.33284
-3.33429
-3.33255
-3.33044
-3.32605
-3.321
-3.31404
-3.30471
-3.29406
-3.28238
-3.27013
-3.25651
-3.2411
-3.22551
-3.20909
-3.19041
-3.17191
-3.15265
-3.13185
-3.11126
-3.08897
-3.06723
-3.04423
-3.02148
-2.99626
-2.9723
-2.94801
-2.92439
-2.90081
-2.87912
-2.46423
-2.52219
-2.58005
-2.63805
-2.6941
-2.74918
-2.80241
-2.85353
-2.90346
-2.95008
-2.99411
-3.03559
-3.07404
-3.11015
-3.14401
-3.17458
-3.20389
-3.23024
-3.25423
-3.27428
-3.29341
-3.30925
-3.32421
-3.3353
-3.34569
-3.35332
-3.35898
-3.36333
-3.36626
-3.36609
-3.36639
-3.36452
-3.36029
-3.35547
-3.34842
-3.34124
-3.33235
-3.32262
-3.31115
-3.29928
-3.28609
-3.27179
-3.25763
-3.24123
-3.22417
-3.20797
-3.18955
-3.17022
-3.15138
-3.13064
-3.11021
-3.0888
-3.06779
-3.04596
-3.02454
-3.00565
-2.46217
-2.5176
-2.57313
-2.62797
-2.68198
-2.73513
-2.78654
-2.83574
-2.88304
-2.92849
-2.97217
-3.01365
-3.05222
-3.08882
-3.12257
-3.1548
-3.18543
-3.21147
-3.23716
-3.26055
-3.28107
-3.29993
-3.3161
-3.3303
-3.34317
-3.35342
-3.36238
-3.36928
-3.37384
-3.37945
-3.38029
-3.38232
-3.38125
-3.38071
-3.37677
-3.37254
-3.36707
-3.36044
-3.35273
-3.34442
-3.3346
-3.32463
-3.31298
-3.30043
-3.28793
-3.27298
-3.25935
-3.24309
-3.22755
-3.21129
-3.1937
-3.17537
-3.15812
-3.13872
-3.11912
-3.10233
-2.45942
-2.5116
-2.56377
-2.61539
-2.66644
-2.71579
-2.76481
-2.81113
-2.85662
-2.90011
-2.94149
-2.98083
-3.01835
-3.05466
-3.08789
-3.12018
-3.1503
-3.17794
-3.20428
-3.22813
-3.24976
-3.27031
-3.28813
-3.30488
-3.31909
-3.3313
-3.34237
-3.35204
-3.36028
-3.36673
-3.37175
-3.37503
-3.37815
-3.37935
-3.37884
-3.37741
-3.37566
-3.37207
-3.36833
-3.36251
-3.35604
-3.34915
-3.34112
-3.33174
-3.3218
-3.31124
-3.29989
-3.28841
-3.27499
-3.26208
-3.2479
-3.23347
-3.21735
-3.20143
-3.18517
-3.17011
-2.45592
-2.50408
-2.55224
-2.5998
-2.64608
-2.69227
-2.73681
-2.77939
-2.82114
-2.86185
-2.90027
-2.93837
-2.97366
-3.00741
-3.04019
-3.07136
-3.10115
-3.12782
-3.15444
-3.17815
-3.20145
-3.22172
-3.24176
-3.25922
-3.27428
-3.28936
-3.30239
-3.31353
-3.32378
-3.33185
-3.3391
-3.34495
-3.35059
-3.35387
-3.35704
-3.35807
-3.35853
-3.35808
-3.35616
-3.35436
-3.35115
-3.34639
-3.3417
-3.33591
-3.32915
-3.32231
-3.31398
-3.30544
-3.29542
-3.28597
-3.27444
-3.2625
-3.25008
-3.23688
-3.22238
-3.20892
-2.45163
-2.49493
-2.53806
-2.58081
-2.62197
-2.66297
-2.70244
-2.74145
-2.77857
-2.81506
-2.85013
-2.88405
-2.91703
-2.94845
-2.9788
-3.00802
-3.03562
-3.06272
-3.08774
-3.1115
-3.1341
-3.1546
-3.17467
-3.19305
-3.21009
-3.2251
-3.23983
-3.25302
-3.26392
-3.27537
-3.28406
-3.29243
-3.29947
-3.3061
-3.31057
-3.31447
-3.31731
-3.32012
-3.32137
-3.321
-3.32093
-3.31903
-3.31768
-3.31494
-3.31117
-3.30675
-3.30224
-3.29649
-3.29012
-3.28252
-3.2746
-3.26615
-3.25608
-3.24541
-3.23366
-3.22287
-2.44644
-2.48396
-2.52112
-2.5576
-2.59372
-2.62831
-2.66208
-2.69522
-2.72771
-2.75941
-2.79052
-2.81996
-2.84919
-2.87763
-2.90463
-2.93119
-2.95708
-2.98214
-3.00544
-3.028
-3.04982
-3.07087
-3.09082
-3.108
-3.12632
-3.14175
-3.15776
-3.17156
-3.18449
-3.19724
-3.20737
-3.218
-3.22669
-3.23428
-3.24145
-3.24858
-3.2541
-3.25833
-3.2621
-3.26491
-3.26721
-3.2687
-3.26981
-3.27007
-3.26967
-3.26792
-3.26574
-3.26329
-3.2599
-3.25573
-3.25186
-3.24489
-3.23833
-3.23014
-3.22019
-3.21048
-2.4398
-2.47088
-2.50104
-2.5307
-2.5591
-2.58743
-2.61543
-2.64228
-2.6684
-2.69482
-2.72052
-2.7456
-2.77034
-2.79465
-2.81857
-2.8414
-2.86429
-2.88663
-2.90839
-2.9292
-2.94997
-2.96941
-2.98818
-3.00736
-3.02387
-3.04013
-3.05671
-3.07098
-3.08468
-3.09778
-3.11053
-3.12266
-3.1325
-3.14228
-3.15217
-3.1605
-3.16831
-3.17515
-3.18136
-3.18663
-3.19216
-3.19591
-3.20028
-3.20297
-3.20494
-3.20712
-3.20831
-3.20942
-3.20945
-3.20795
-3.20628
-3.20302
-3.19859
-3.19324
-3.18564
-3.17744
-2.43274
-2.45537
-2.47746
-2.49893
-2.52045
-2.54049
-2.56117
-2.58142
-2.6013
-2.62148
-2.64204
-2.66124
-2.68172
-2.70083
-2.72069
-2.74035
-2.76016
-2.77922
-2.79806
-2.81714
-2.83606
-2.85373
-2.87235
-2.88922
-2.90589
-2.92215
-2.93854
-2.95351
-2.96883
-2.98223
-2.99585
-3.00899
-3.02146
-3.03266
-3.04384
-3.05452
-3.06434
-3.07422
-3.0823
-3.09047
-3.09848
-3.10521
-3.11215
-3.1181
-3.12311
-3.12818
-3.13264
-3.13676
-3.13977
-3.14184
-3.14255
-3.14256
-3.14107
-3.13819
-3.13317
-3.12653
-2.42385
-2.43717
-2.45012
-2.46284
-2.47545
-2.48832
-2.50084
-2.51423
-2.52733
-2.54081
-2.55537
-2.57033
-2.5845
-2.59955
-2.61528
-2.63105
-2.64635
-2.66269
-2.67882
-2.69596
-2.7118
-2.72848
-2.74509
-2.76184
-2.7772
-2.79279
-2.80862
-2.8241
-2.83971
-2.85458
-2.86785
-2.88259
-2.89658
-2.90921
-2.92228
-2.93421
-2.9468
-2.95852
-2.97034
-2.97988
-2.99052
-3.0008
-3.0103
-3.0195
-3.02809
-3.03634
-3.04388
-3.05067
-3.0571
-3.06217
-3.06726
-3.07026
-3.07189
-3.07102
-3.06794
-3.06381
-2.41341
-2.41632
-2.41912
-2.42294
-2.4267
-2.43131
-2.43688
-2.44299
-2.45021
-2.45824
-2.46679
-2.47596
-2.48491
-2.49549
-2.50712
-2.51907
-2.53066
-2.5434
-2.55691
-2.5708
-2.58468
-2.59888
-2.61368
-2.62911
-2.64392
-2.65873
-2.67367
-2.68941
-2.70507
-2.71984
-2.73554
-2.74963
-2.76445
-2.78003
-2.79416
-2.80877
-2.82275
-2.83675
-2.85012
-2.86387
-2.87748
-2.89018
-2.90236
-2.91537
-2.92682
-2.93831
-2.94982
-2.96017
-2.96946
-2.97859
-2.98646
-2.9929
-2.99779
-3.00042
-3.0004
-2.99897
-2.40192
-2.39405
-2.38705
-2.38222
-2.37872
-2.37614
-2.37473
-2.3748
-2.37538
-2.37849
-2.38182
-2.38574
-2.39079
-2.39707
-2.40509
-2.41287
-2.42158
-2.43131
-2.44265
-2.45279
-2.46445
-2.47752
-2.48978
-2.50418
-2.51758
-2.53244
-2.54743
-2.56267
-2.57709
-2.59297
-2.60835
-2.62502
-2.64075
-2.65674
-2.67306
-2.68911
-2.70572
-2.72158
-2.73827
-2.75447
-2.77077
-2.7871
-2.80267
-2.81811
-2.83349
-2.84791
-2.86214
-2.87639
-2.8903
-2.90206
-2.91368
-2.92332
-2.9317
-2.93724
-2.94028
-2.94233
-2.39124
-2.37395
-2.35927
-2.34698
-2.33682
-2.32863
-2.32239
-2.3172
-2.31394
-2.31274
-2.3124
-2.31315
-2.31571
-2.31832
-2.32295
-2.32849
-2.33422
-2.34137
-2.34971
-2.359
-2.36927
-2.38026
-2.39214
-2.40448
-2.41765
-2.43083
-2.44575
-2.46092
-2.47591
-2.49181
-2.50852
-2.52627
-2.54303
-2.56089
-2.57846
-2.59643
-2.61518
-2.6333
-2.65171
-2.67083
-2.68918
-2.70732
-2.72787
-2.74574
-2.76395
-2.78168
-2.79957
-2.81683
-2.83307
-2.8489
-2.86282
-2.87648
-2.88866
-2.89734
-2.90495
-2.91084
-2.38476
-2.36196
-2.34273
-2.32652
-2.31296
-2.30175
-2.2926
-2.28537
-2.27988
-2.27609
-2.2732
-2.27264
-2.2729
-2.27436
-2.27752
-2.28186
-2.28699
-2.29339
-2.30009
-2.30854
-2.31852
-2.32787
-2.33976
-2.35177
-2.36518
-2.37895
-2.39378
-2.40849
-2.42497
-2.44196
-2.45867
-2.47732
-2.49637
-2.51417
-2.53375
-2.55427
-2.5738
-2.59495
-2.6149
-2.63656
-2.65643
-2.67739
-2.69914
-2.71959
-2.74031
-2.76031
-2.78064
-2.79936
-2.81903
-2.83743
-2.85492
-2.87071
-2.8848
-2.89671
-2.90767
-2.91634
-2.38562
-2.36349
-2.34476
-2.32897
-2.31579
-2.30489
-2.2962
-2.2891
-2.28405
-2.28054
-2.27896
-2.27801
-2.2791
-2.28138
-2.28482
-2.28934
-2.29416
-2.30118
-2.30959
-2.31845
-2.32905
-2.34034
-2.35228
-2.36576
-2.37919
-2.39429
-2.41038
-2.42662
-2.44429
-2.46221
-2.48082
-2.50036
-2.52016
-2.54029
-2.56048
-2.58235
-2.60314
-2.62501
-2.64659
-2.66861
-2.69103
-2.71303
-2.73499
-2.75721
-2.7792
-2.80043
-2.8211
-2.84203
-2.86177
-2.8813
-2.89943
-2.9163
-2.93252
-2.94632
-2.95931
-2.97073
-2.39383
-2.37872
-2.36587
-2.35516
-2.34643
-2.33917
-2.33406
-2.3309
-2.32871
-2.3287
-2.3289
-2.33153
-2.33578
-2.34053
-2.34704
-2.35428
-2.36282
-2.37186
-2.38234
-2.3944
-2.40719
-2.42065
-2.4351
-2.45081
-2.46697
-2.4841
-2.50156
-2.52012
-2.53955
-2.55894
-2.57889
-2.59954
-2.62085
-2.64192
-2.66279
-2.68534
-2.70792
-2.72874
-2.75125
-2.77377
-2.79535
-2.81728
-2.83907
-2.86059
-2.88101
-2.90258
-2.92328
-2.94332
-2.96175
-2.98121
-2.99864
-3.01522
-3.03163
-3.04547
-3.05882
-3.07059
-2.4059
-2.40172
-2.39848
-2.39629
-2.3954
-2.39548
-2.39673
-2.39915
-2.40342
-2.40885
-2.41543
-2.42246
-2.4308
-2.44022
-2.45118
-2.46281
-2.47524
-2.4889
-2.5042
-2.51969
-2.53562
-2.55293
-2.57067
-2.58918
-2.60789
-2.62781
-2.6481
-2.66844
-2.68933
-2.7111
-2.73196
-2.75452
-2.77563
-2.79902
-2.81977
-2.84095
-2.86374
-2.88601
-2.90614
-2.92747
-2.94881
-2.96976
-2.98946
-3.00948
-3.02946
-3.04801
-3.06696
-3.08528
-3.10258
-3.1195
-3.13538
-3.15061
-3.16454
-3.17784
-3.18886
-3.20066
-2.4183
-2.42614
-2.43397
-2.44187
-2.45051
-2.45988
-2.46913
-2.47997
-2.49042
-2.50297
-2.51601
-2.52997
-2.54518
-2.56007
-2.57652
-2.59405
-2.61165
-2.63134
-2.6503
-2.66983
-2.69107
-2.71197
-2.73277
-2.75457
-2.77698
-2.79927
-2.82204
-2.84463
-2.86708
-2.88962
-2.91237
-2.93448
-2.95701
-2.97904
-3.00067
-3.02064
-3.04268
-3.06445
-3.08379
-3.10354
-3.12283
-3.14193
-3.16088
-3.17896
-3.19579
-3.21241
-3.22969
-3.2448
-3.2596
-3.27394
-3.28746
-3.29993
-3.31166
-3.32319
-3.33214
-3.34239
-2.4296
-2.44888
-2.46779
-2.48632
-2.50457
-2.5239
-2.54226
-2.5613
-2.58057
-2.60063
-2.62184
-2.64209
-2.66456
-2.68673
-2.7095
-2.73245
-2.75559
-2.77969
-2.80437
-2.82856
-2.85331
-2.87856
-2.90278
-2.92859
-2.95292
-2.97853
-3.00243
-3.02643
-3.05054
-3.07416
-3.09744
-3.1202
-3.14231
-3.164
-3.18567
-3.20523
-3.22453
-3.24489
-3.26353
-3.28123
-3.29906
-3.31584
-3.33282
-3.34828
-3.36334
-3.37757
-3.39033
-3.4047
-3.41564
-3.4278
-3.43934
-3.449
-3.45813
-3.46597
-3.47395
-3.48077
-2.43948
-2.46899
-2.4982
-2.52714
-2.55521
-2.58345
-2.61148
-2.63989
-2.66721
-2.69578
-2.7241
-2.75264
-2.78136
-2.80987
-2.83877
-2.86788
-2.89756
-2.92667
-2.95477
-2.98476
-3.013
-3.04151
-3.06917
-3.09643
-3.12354
-3.15016
-3.1768
-3.20234
-3.22661
-3.25118
-3.27409
-3.29658
-3.31826
-3.33995
-3.3599
-3.37948
-3.39708
-3.41474
-3.43355
-3.44892
-3.46384
-3.47856
-3.49324
-3.50685
-3.51851
-3.53084
-3.54255
-3.55208
-3.56256
-3.57073
-3.57915
-3.58658
-3.59242
-3.59857
-3.60335
-3.60925
-2.44811
-2.487
-2.52555
-2.5637
-2.60117
-2.63842
-2.67491
-2.71191
-2.74736
-2.78314
-2.81951
-2.85535
-2.89111
-2.92599
-2.96099
-2.99573
-3.0306
-3.06284
-3.09697
-3.13036
-3.16157
-3.19268
-3.22352
-3.25348
-3.28187
-3.31025
-3.33696
-3.36339
-3.38919
-3.41241
-3.43495
-3.4577
-3.47834
-3.49842