/*--------------------------------*- C++ -*----------------------------------*\
  =========                 |
  \\      /  F ield         | OpenFOAM: The Open Source CFD Toolbox
   \\    /   O peration     | Website:  https://openfoam.org
    \\  /    A nd           | Version:  6
     \\/     M anipulation  |
\*---------------------------------------------------------------------------*/
FoamFile
{
    version     2.0;
    format      ascii;
    class       volVectorField;
    location    "0";
    object      U_rec;
}
// * * * * * * * * * * * * * * * * * * * * * * * * * * * * * * * * * * * * * //

dimensions      [0 1 -1 0 0 0 0];

internalField   nonuniform List<vector> 
40000
(
(5.65424e-07 -5.65417e-07 0)
(2.08587e-06 -6.12277e-07 0)
(2.92783e-06 -2.75716e-07 0)
(2.38195e-06 1.92396e-07 0)
(9.26054e-08 6.71319e-07 0)
(-3.93901e-06 1.11554e-06 0)
(-9.56801e-06 1.50466e-06 0)
(-1.65929e-05 1.83275e-06 0)
(-2.47969e-05 2.10188e-06 0)
(-3.39708e-05 2.31784e-06 0)
(-4.39264e-05 2.4879e-06 0)
(-5.45004e-05 2.6196e-06 0)
(-6.55569e-05 2.72008e-06 0)
(-7.69836e-05 2.79573e-06 0)
(-8.86916e-05 2.85206e-06 0)
(-0.000100613 2.89373e-06 0)
(-0.000112692 2.92446e-06 0)
(-0.000124893 2.94722e-06 0)
(-0.000137183 2.96434e-06 0)
(-0.000149543 2.97751e-06 0)
(-0.000161958 2.98803e-06 0)
(-0.000174418 2.99675e-06 0)
(-0.000186917 3.0043e-06 0)
(-0.000199447 3.01107e-06 0)
(-0.000212009 3.01726e-06 0)
(-0.000224596 3.02299e-06 0)
(-0.000237209 3.02829e-06 0)
(-0.000249843 3.03312e-06 0)
(-0.000262498 3.0374e-06 0)
(-0.000275171 3.04109e-06 0)
(-0.000287856 3.04407e-06 0)
(-0.000300556 3.04627e-06 0)
(-0.000313262 3.0476e-06 0)
(-0.000325972 3.04799e-06 0)
(-0.000338683 3.04738e-06 0)
(-0.000351389 3.04569e-06 0)
(-0.000364086 3.04291e-06 0)
(-0.000376769 3.03899e-06 0)
(-0.000389435 3.0339e-06 0)
(-0.000402079 3.02763e-06 0)
(-0.000414693 3.02019e-06 0)
(-0.000427274 3.01155e-06 0)
(-0.000439818 3.00175e-06 0)
(-0.000452318 2.99078e-06 0)
(-0.000464772 2.97867e-06 0)
(-0.000477173 2.96543e-06 0)
(-0.000489516 2.95111e-06 0)
(-0.000501796 2.93571e-06 0)
(-0.000514011 2.91927e-06 0)
(-0.000526154 2.90178e-06 0)
(-0.000538221 2.88334e-06 0)
(-0.000550209 2.8639e-06 0)
(-0.000562113 2.84352e-06 0)
(-0.000573928 2.82221e-06 0)
(-0.000585651 2.80001e-06 0)
(-0.000597276 2.77689e-06 0)
(-0.000608804 2.75289e-06 0)
(-0.000620225 2.728e-06 0)
(-0.000631539 2.70222e-06 0)
(-0.00064274 2.67555e-06 0)
(-0.000653826 2.64801e-06 0)
(-0.00066479 2.61958e-06 0)
(-0.000675631 2.59021e-06 0)
(-0.000686341 2.55992e-06 0)
(-0.000696921 2.52867e-06 0)
(-0.000707364 2.49643e-06 0)
(-0.000717664 2.4632e-06 0)
(-0.000727823 2.42895e-06 0)
(-0.000737827 2.39361e-06 0)
(-0.000747676 2.35721e-06 0)
(-0.000757367 2.31966e-06 0)
(-0.000766893 2.28094e-06 0)
(-0.000776249 2.24106e-06 0)
(-0.000785429 2.19995e-06 0)
(-0.00079443 2.15761e-06 0)
(-0.000803245 2.114e-06 0)
(-0.000811868 2.06908e-06 0)
(-0.000820297 2.02284e-06 0)
(-0.000828523 1.97523e-06 0)
(-0.000836541 1.92626e-06 0)
(-0.000844346 1.8759e-06 0)
(-0.000851931 1.82416e-06 0)
(-0.000859292 1.77098e-06 0)
(-0.000866424 1.71638e-06 0)
(-0.000873317 1.66035e-06 0)
(-0.000879968 1.60289e-06 0)
(-0.000886372 1.54401e-06 0)
(-0.000892523 1.48368e-06 0)
(-0.000898412 1.4219e-06 0)
(-0.000904036 1.35871e-06 0)
(-0.000909394 1.29408e-06 0)
(-0.000914469 1.22807e-06 0)
(-0.000919266 1.16067e-06 0)
(-0.000923779 1.09189e-06 0)
(-0.000927994 1.02176e-06 0)
(-0.000931914 9.50284e-07 0)
(-0.000935534 8.77511e-07 0)
(-0.000938843 8.03447e-07 0)
(-0.00094184 7.28136e-07 0)
(-0.000944518 6.51588e-07 0)
(-0.000946876 5.73849e-07 0)
(-0.000948913 4.94944e-07 0)
(-0.000950614 4.14914e-07 0)
(-0.000951979 3.33808e-07 0)
(-0.000953006 2.51669e-07 0)
(-0.0009537 1.68511e-07 0)
(-0.000954039 8.44325e-08 0)
(-0.000954034 -5.43964e-10 0)
(-0.000953678 -8.63677e-08 0)
(-0.000952961 -1.72947e-07 0)
(-0.000951894 -2.60243e-07 0)
(-0.000950467 -3.48189e-07 0)
(-0.000948673 -4.36673e-07 0)
(-0.000946513 -5.25664e-07 0)
(-0.000944 -6.15051e-07 0)
(-0.000941113 -7.04747e-07 0)
(-0.000937856 -7.94661e-07 0)
(-0.000934236 -8.84708e-07 0)
(-0.000930253 -9.74776e-07 0)
(-0.000925897 -1.06466e-06 0)
(-0.000921176 -1.1544e-06 0)
(-0.00091609 -1.24385e-06 0)
(-0.000910642 -1.33289e-06 0)
(-0.000904835 -1.42128e-06 0)
(-0.000898667 -1.50899e-06 0)
(-0.000892148 -1.59588e-06 0)
(-0.000885274 -1.68182e-06 0)
(-0.000878054 -1.7665e-06 0)
(-0.000870493 -1.85012e-06 0)
(-0.000862596 -1.93241e-06 0)
(-0.000854367 -2.0132e-06 0)
(-0.000845811 -2.09224e-06 0)
(-0.000836937 -2.16975e-06 0)
(-0.000827755 -2.2452e-06 0)
(-0.000818268 -2.31893e-06 0)
(-0.000808486 -2.39057e-06 0)
(-0.000798416 -2.46004e-06 0)
(-0.000788068 -2.52734e-06 0)
(-0.000777449 -2.59235e-06 0)
(-0.000766571 -2.65509e-06 0)
(-0.000755441 -2.71535e-06 0)
(-0.000744072 -2.77324e-06 0)
(-0.000732468 -2.82873e-06 0)
(-0.000720644 -2.88178e-06 0)
(-0.000708607 -2.93237e-06 0)
(-0.000696367 -2.98057e-06 0)
(-0.000683935 -3.02637e-06 0)
(-0.000671322 -3.06983e-06 0)
(-0.000658539 -3.11098e-06 0)
(-0.000645585 -3.14992e-06 0)
(-0.000632468 -3.18673e-06 0)
(-0.00061922 -3.22144e-06 0)
(-0.000605829 -3.25417e-06 0)
(-0.000592297 -3.28502e-06 0)
(-0.00057865 -3.31407e-06 0)
(-0.000564901 -3.34147e-06 0)
(-0.00055102 -3.36729e-06 0)
(-0.000537049 -3.39164e-06 0)
(-0.000522973 -3.41467e-06 0)
(-0.000508809 -3.43645e-06 0)
(-0.000494564 -3.45712e-06 0)
(-0.00048023 -3.47678e-06 0)
(-0.000465825 -3.49555e-06 0)
(-0.000451339 -3.51353e-06 0)
(-0.000436784 -3.5308e-06 0)
(-0.000422161 -3.54748e-06 0)
(-0.000407472 -3.56365e-06 0)
(-0.00039272 -3.5794e-06 0)
(-0.000377905 -3.59482e-06 0)
(-0.000363031 -3.60993e-06 0)
(-0.000348098 -3.62482e-06 0)
(-0.000333105 -3.63952e-06 0)
(-0.000318057 -3.65404e-06 0)
(-0.000302953 -3.66835e-06 0)
(-0.000287794 -3.68238e-06 0)
(-0.000272583 -3.69601e-06 0)
(-0.000257323 -3.70902e-06 0)
(-0.000242017 -3.72108e-06 0)
(-0.000226671 -3.73171e-06 0)
(-0.000211292 -3.74021e-06 0)
(-0.000195894 -3.74567e-06 0)
(-0.00018049 -3.74678e-06 0)
(-0.000165106 -3.74189e-06 0)
(-0.000149768 -3.7288e-06 0)
(-0.000134518 -3.7047e-06 0)
(-0.00011941 -3.66607e-06 0)
(-0.000104513 -3.60856e-06 0)
(-8.9911e-05 -3.52684e-06 0)
(-7.57173e-05 -3.41459e-06 0)
(-6.20674e-05 -3.2645e-06 0)
(-4.91237e-05 -3.06828e-06 0)
(-3.70854e-05 -2.81696e-06 0)
(-2.61783e-05 -2.5015e-06 0)
(-1.66578e-05 -2.11368e-06 0)
(-8.7963e-06 -1.64844e-06 0)
(-2.86015e-06 -1.10806e-06 0)
(9.31572e-07 -5.09537e-07 0)
(2.50076e-06 1.03231e-07 0)
(2.15177e-06 6.00602e-07 0)
(6.57561e-07 6.57811e-07 0)
(6.12782e-07 -2.08629e-06 0)
(2.0127e-06 -2.01181e-06 0)
(1.19942e-06 4.48084e-07 0)
(-3.13921e-06 3.90836e-06 0)
(-1.1669e-05 7.61661e-06 0)
(-2.44406e-05 1.11724e-05 0)
(-4.11858e-05 1.4376e-05 0)
(-6.14794e-05 1.71474e-05 0)
(-8.48363e-05 1.94748e-05 0)
(-0.000110767 2.13841e-05 0)
(-0.000138813 2.29207e-05 0)
(-0.000168571 2.41367e-05 0)
(-0.00019969 2.50855e-05 0)
(-0.000231875 2.5817e-05 0)
(-0.000264892 2.63756e-05 0)
(-0.00029855 2.67998e-05 0)
(-0.000332701 2.71215e-05 0)
(-0.000367233 2.73663e-05 0)
(-0.000402058 2.75546e-05 0)
(-0.000437112 2.77023e-05 0)
(-0.000472351 2.78212e-05 0)
(-0.000507741 2.79198e-05 0)
(-0.000543259 2.80043e-05 0)
(-0.000578888 2.80785e-05 0)
(-0.000614612 2.81452e-05 0)
(-0.000650426 2.82057e-05 0)
(-0.000686318 2.82607e-05 0)
(-0.000722279 2.83103e-05 0)
(-0.000758305 2.8354e-05 0)
(-0.000794384 2.83915e-05 0)
(-0.00083051 2.84221e-05 0)
(-0.000866674 2.84451e-05 0)
(-0.000902867 2.846e-05 0)
(-0.000939072 2.8466e-05 0)
(-0.000975281 2.84626e-05 0)
(-0.00101148 2.84493e-05 0)
(-0.00104767 2.84257e-05 0)
(-0.00108381 2.83915e-05 0)
(-0.00111991 2.83463e-05 0)
(-0.00115595 2.82902e-05 0)
(-0.00119191 2.82229e-05 0)
(-0.00122778 2.81444e-05 0)
(-0.00126354 2.80546e-05 0)
(-0.00129919 2.79538e-05 0)
(-0.0013347 2.78417e-05 0)
(-0.00137006 2.77189e-05 0)
(-0.00140526 2.75853e-05 0)
(-0.00144028 2.74409e-05 0)
(-0.00147512 2.72864e-05 0)
(-0.00150975 2.71215e-05 0)
(-0.00154416 2.69468e-05 0)
(-0.00157834 2.67619e-05 0)
(-0.00161228 2.65675e-05 0)
(-0.00164596 2.63635e-05 0)
(-0.00167937 2.615e-05 0)
(-0.00171249 2.59272e-05 0)
(-0.00174533 2.56951e-05 0)
(-0.00177785 2.54538e-05 0)
(-0.00181006 2.52033e-05 0)
(-0.00184194 2.49436e-05 0)
(-0.00187347 2.46744e-05 0)
(-0.00190464 2.43958e-05 0)
(-0.00193544 2.41076e-05 0)
(-0.00196586 2.38097e-05 0)
(-0.00199588 2.3502e-05 0)
(-0.0020255 2.31844e-05 0)
(-0.00205469 2.28564e-05 0)
(-0.00208344 2.25179e-05 0)
(-0.00211174 2.21692e-05 0)
(-0.00213958 2.18091e-05 0)
(-0.00216693 2.1438e-05 0)
(-0.00219379 2.10557e-05 0)
(-0.00222015 2.06617e-05 0)
(-0.00224597 2.02563e-05 0)
(-0.00227125 1.98386e-05 0)
(-0.002296 1.94089e-05 0)
(-0.00232014 1.89667e-05 0)
(-0.00234372 1.85122e-05 0)
(-0.00236669 1.80455e-05 0)
(-0.00238905 1.75656e-05 0)
(-0.00241075 1.70732e-05 0)
(-0.00243183 1.65681e-05 0)
(-0.00245222 1.60503e-05 0)
(-0.00247194 1.55196e-05 0)
(-0.00249096 1.49765e-05 0)
(-0.00250926 1.44206e-05 0)
(-0.00252684 1.3852e-05 0)
(-0.00254368 1.3271e-05 0)
(-0.00255976 1.26778e-05 0)
(-0.00257505 1.20723e-05 0)
(-0.00258956 1.14549e-05 0)
(-0.00260328 1.08256e-05 0)
(-0.00261617 1.01848e-05 0)
(-0.00262823 9.53256e-06 0)
(-0.00263945 8.86937e-06 0)
(-0.00264981 8.19524e-06 0)
(-0.0026593 7.51043e-06 0)
(-0.00266793 6.81549e-06 0)
(-0.00267565 6.11051e-06 0)
(-0.00268247 5.39589e-06 0)
(-0.00268838 4.67189e-06 0)
(-0.00269338 3.93899e-06 0)
(-0.00269743 3.1975e-06 0)
(-0.00270055 2.44769e-06 0)
(-0.0027027 1.69007e-06 0)
(-0.00270389 9.25077e-07 0)
(-0.00270413 1.53115e-07 0)
(-0.00270339 -6.25347e-07 0)
(-0.00270167 -1.40993e-06 0)
(-0.00269896 -2.19987e-06 0)
(-0.00269525 -2.99472e-06 0)
(-0.00269055 -3.79405e-06 0)
(-0.00268486 -4.59699e-06 0)
(-0.00267814 -5.40313e-06 0)
(-0.00267043 -6.21161e-06 0)
(-0.0026617 -7.02176e-06 0)
(-0.00265198 -7.83299e-06 0)
(-0.00264123 -8.644e-06 0)
(-0.00262948 -9.45431e-06 0)
(-0.00261673 -1.02631e-05 0)
(-0.00260297 -1.10693e-05 0)
(-0.0025882 -1.18723e-05 0)
(-0.00257245 -1.26694e-05 0)
(-0.00255571 -1.3463e-05 0)
(-0.00253799 -1.42485e-05 0)
(-0.0025193 -1.5027e-05 0)
(-0.00249965 -1.57968e-05 0)
(-0.00247905 -1.65558e-05 0)
(-0.00245751 -1.73056e-05 0)
(-0.00243505 -1.80419e-05 0)
(-0.00241169 -1.87654e-05 0)
(-0.00238742 -1.94747e-05 0)
(-0.00236228 -2.01711e-05 0)
(-0.00233631 -2.08485e-05 0)
(-0.00230948 -2.15107e-05 0)
(-0.00228186 -2.21553e-05 0)
(-0.00225343 -2.2781e-05 0)
(-0.00222424 -2.33875e-05 0)
(-0.00219428 -2.3974e-05 0)
(-0.00216363 -2.45402e-05 0)
(-0.00213228 -2.5086e-05 0)
(-0.00210025 -2.56105e-05 0)
(-0.00206758 -2.61136e-05 0)
(-0.00203431 -2.65954e-05 0)
(-0.00200042 -2.70554e-05 0)
(-0.00196598 -2.74942e-05 0)
(-0.00193099 -2.79118e-05 0)
(-0.00189549 -2.83084e-05 0)
(-0.00185952 -2.86847e-05 0)
(-0.00182307 -2.90409e-05 0)
(-0.00178619 -2.93777e-05 0)
(-0.00174891 -2.96957e-05 0)
(-0.00171122 -2.99954e-05 0)
(-0.00167317 -3.0278e-05 0)
(-0.00163477 -3.05441e-05 0)
(-0.00159604 -3.07947e-05 0)
(-0.00155701 -3.10306e-05 0)
(-0.00151769 -3.12531e-05 0)
(-0.0014781 -3.14624e-05 0)
(-0.00143825 -3.16603e-05 0)
(-0.00139815 -3.18475e-05 0)
(-0.00135784 -3.20248e-05 0)
(-0.00131731 -3.21932e-05 0)
(-0.00127655 -3.23536e-05 0)
(-0.00123563 -3.25071e-05 0)
(-0.00119449 -3.26543e-05 0)
(-0.0011532 -3.27963e-05 0)
(-0.00111172 -3.29334e-05 0)
(-0.00107008 -3.30665e-05 0)
(-0.00102829 -3.31961e-05 0)
(-0.000986338 -3.33227e-05 0)
(-0.000944237 -3.34462e-05 0)
(-0.000901978 -3.35668e-05 0)
(-0.000859594 -3.3684e-05 0)
(-0.000817073 -3.37972e-05 0)
(-0.000774416 -3.39044e-05 0)
(-0.000731654 -3.40038e-05 0)
(-0.000688785 -3.40915e-05 0)
(-0.000645834 -3.41633e-05 0)
(-0.000602812 -3.42119e-05 0)
(-0.000559785 -3.42288e-05 0)
(-0.000516781 -3.42019e-05 0)
(-0.000473881 -3.41162e-05 0)
(-0.000431152 -3.39515e-05 0)
(-0.00038873 -3.36834e-05 0)
(-0.000346755 -3.32809e-05 0)
(-0.000305421 -3.27074e-05 0)
(-0.000264964 -3.19183e-05 0)
(-0.000225675 -3.08627e-05 0)
(-0.000187915 -2.9483e-05 0)
(-0.000152103 -2.7717e-05 0)
(-0.000118731 -2.55011e-05 0)
(-8.83543e-05 -2.27777e-05 0)
(-6.15721e-05 -1.95049e-05 0)
(-3.89988e-05 -1.56766e-05 0)
(-2.12012e-05 -1.13563e-05 0)
(-8.59867e-06 -6.7346e-06 0)
(-1.28297e-06 -2.22982e-06 0)
(1.31015e-06 1.30826e-06 0)
(6.00227e-07 2.15235e-06 0)
(2.76441e-07 -2.92919e-06 0)
(-4.4957e-07 -1.19773e-06 0)
(-5.08912e-06 5.08383e-06 0)
(-1.50628e-05 1.33872e-05 0)
(-3.10232e-05 2.2247e-05 0)
(-5.3023e-05 3.08142e-05 0)
(-8.07339e-05 3.86263e-05 0)
(-0.00011361 4.54713e-05 0)
(-0.000151008 5.1294e-05 0)
(-0.000192261 5.61321e-05 0)
(-0.000236732 6.00747e-05 0)
(-0.00028384 6.32353e-05 0)
(-0.000333077 6.57338e-05 0)
(-0.000384014 6.76864e-05 0)
(-0.000436293 6.91992e-05 0)
(-0.000489625 7.03647e-05 0)
(-0.00054378 7.12615e-05 0)
(-0.00059858 7.1954e-05 0)
(-0.000653886 7.2494e-05 0)
(-0.000709595 7.2922e-05 0)
(-0.00076563 7.32689e-05 0)
(-0.000821935 7.35571e-05 0)
(-0.000878468 7.38036e-05 0)
(-0.000935195 7.40191e-05 0)
(-0.000992091 7.42111e-05 0)
(-0.00104915 7.43843e-05 0)
(-0.00110634 7.45405e-05 0)
(-0.00116366 7.46806e-05 0)
(-0.00122109 7.48045e-05 0)
(-0.0012786 7.49109e-05 0)
(-0.00133621 7.49985e-05 0)
(-0.00139389 7.50656e-05 0)
(-0.00145161 7.51109e-05 0)
(-0.00150936 7.51328e-05 0)
(-0.00156713 7.51297e-05 0)
(-0.0016249 7.51004e-05 0)
(-0.00168263 7.50439e-05 0)
(-0.00174032 7.49592e-05 0)
(-0.00179793 7.48457e-05 0)
(-0.00185545 7.47027e-05 0)
(-0.00191286 7.45298e-05 0)
(-0.00197012 7.43271e-05 0)
(-0.00202724 7.40944e-05 0)
(-0.00208416 7.38317e-05 0)
(-0.00214086 7.3539e-05 0)
(-0.00219733 7.32166e-05 0)
(-0.00225355 7.28649e-05 0)
(-0.00230949 7.24846e-05 0)
(-0.00236513 7.20752e-05 0)
(-0.00242043 7.1638e-05 0)
(-0.00247539 7.11728e-05 0)
(-0.00252997 7.06807e-05 0)
(-0.00258415 7.01609e-05 0)
(-0.00263793 6.96146e-05 0)
(-0.00269126 6.9042e-05 0)
(-0.00274413 6.84427e-05 0)
(-0.00279653 6.78174e-05 0)
(-0.00284842 6.71662e-05 0)
(-0.00289978 6.64882e-05 0)
(-0.0029506 6.57849e-05 0)
(-0.00300085 6.50545e-05 0)
(-0.00305051 6.42984e-05 0)
(-0.00309955 6.35154e-05 0)
(-0.00314796 6.27036e-05 0)
(-0.00319571 6.18663e-05 0)
(-0.00324279 6.10003e-05 0)
(-0.00328916 6.01053e-05 0)
(-0.0033348 5.91827e-05 0)
(-0.00337969 5.82297e-05 0)
(-0.00342382 5.72469e-05 0)
(-0.00346714 5.62331e-05 0)
(-0.00350963 5.51893e-05 0)
(-0.00355129 5.41148e-05 0)
(-0.00359206 5.30077e-05 0)
(-0.00363194 5.1868e-05 0)
(-0.0036709 5.06954e-05 0)
(-0.00370891 4.94936e-05 0)
(-0.00374595 4.82561e-05 0)
(-0.003782 4.69862e-05 0)
(-0.00381703 4.56842e-05 0)
(-0.00385099 4.43474e-05 0)
(-0.00388389 4.29803e-05 0)
(-0.00391567 4.15784e-05 0)
(-0.00394636 4.01441e-05 0)
(-0.0039759 3.86776e-05 0)
(-0.00400427 3.71798e-05 0)
(-0.00403144 3.56492e-05 0)
(-0.00405741 3.40889e-05 0)
(-0.00408214 3.24972e-05 0)
(-0.00410561 3.08747e-05 0)
(-0.00412777 2.92244e-05 0)
(-0.00414867 2.75436e-05 0)
(-0.00416825 2.58357e-05 0)
(-0.00418647 2.41002e-05 0)
(-0.00420336 2.23381e-05 0)
(-0.00421885 2.05502e-05 0)
(-0.00423298 1.87373e-05 0)
(-0.00424569 1.68997e-05 0)
(-0.00425697 1.50395e-05 0)
(-0.00426682 1.31566e-05 0)
(-0.00427521 1.12523e-05 0)
(-0.00428214 9.32751e-06 0)
(-0.00428763 7.38302e-06 0)
(-0.0042916 5.4201e-06 0)
(-0.00429408 3.43939e-06 0)
(-0.00429503 1.44158e-06 0)
(-0.00429449 -5.70303e-07 0)
(-0.00429242 -2.59719e-06 0)
(-0.00428879 -4.63674e-06 0)
(-0.00428363 -6.68739e-06 0)
(-0.00427692 -8.7498e-06 0)
(-0.00426865 -1.08198e-05 0)
(-0.00425886 -1.28981e-05 0)
(-0.00424749 -1.49822e-05 0)
(-0.00423454 -1.70718e-05 0)
(-0.00422005 -1.9162e-05 0)
(-0.00420399 -2.12544e-05 0)
(-0.00418637 -2.33451e-05 0)
(-0.0041672 -2.54321e-05 0)
(-0.00414643 -2.75134e-05 0)
(-0.00412415 -2.95892e-05 0)
(-0.00410032 -3.16532e-05 0)
(-0.00407494 -3.37053e-05 0)
(-0.00404806 -3.57443e-05 0)
(-0.00401967 -3.77638e-05 0)
(-0.00398977 -3.97666e-05 0)
(-0.00395839 -4.17445e-05 0)
(-0.00392555 -4.36992e-05 0)
(-0.00389126 -4.56251e-05 0)
(-0.00385553 -4.75214e-05 0)
(-0.00381842 -4.93855e-05 0)
(-0.00377994 -5.1214e-05 0)
(-0.00374008 -5.30049e-05 0)
(-0.00369891 -5.47553e-05 0)
(-0.00365645 -5.64641e-05 0)
(-0.00361272 -5.81282e-05 0)
(-0.00356775 -5.97452e-05 0)
(-0.00352159 -6.13152e-05 0)
(-0.00347429 -6.28355e-05 0)
(-0.00342583 -6.43026e-05 0)
(-0.00337629 -6.57186e-05 0)
(-0.00332572 -6.70811e-05 0)
(-0.00327412 -6.83915e-05 0)
(-0.00322156 -6.96446e-05 0)
(-0.00316807 -7.08445e-05 0)
(-0.0031137 -7.19893e-05 0)
(-0.00305847 -7.30807e-05 0)
(-0.00300243 -7.41188e-05 0)
(-0.0029456 -7.5103e-05 0)
(-0.00288807 -7.60373e-05 0)
(-0.00282983 -7.69199e-05 0)
(-0.00277093 -7.77547e-05 0)
(-0.00271143 -7.85417e-05 0)
(-0.00265131 -7.92839e-05 0)
(-0.00259066 -7.99829e-05 0)
(-0.00252949 -8.06409e-05 0)
(-0.00246782 -8.12601e-05 0)
(-0.00240569 -8.18427e-05 0)
(-0.00234315 -8.23914e-05 0)
(-0.0022802 -8.29086e-05 0)
(-0.00221684 -8.33967e-05 0)
(-0.00215315 -8.38579e-05 0)
(-0.00208911 -8.4295e-05 0)
(-0.00202474 -8.47096e-05 0)
(-0.00196007 -8.51049e-05 0)
(-0.0018951 -8.54837e-05 0)
(-0.00182989 -8.58459e-05 0)
(-0.00176438 -8.61939e-05 0)
(-0.00169865 -8.6531e-05 0)
(-0.00163266 -8.68566e-05 0)
(-0.00156644 -8.71721e-05 0)
(-0.0015 -8.74787e-05 0)
(-0.00143335 -8.77745e-05 0)
(-0.00136649 -8.80596e-05 0)
(-0.00129944 -8.83304e-05 0)
(-0.00123221 -8.8583e-05 0)
(-0.00116484 -8.8811e-05 0)
(-0.00109732 -8.90061e-05 0)
(-0.00102971 -8.91521e-05 0)
(-0.00096205 -8.92346e-05 0)
(-0.000894411 -8.92293e-05 0)
(-0.000826842 -8.91032e-05 0)
(-0.000759487 -8.8817e-05 0)
(-0.000692482 -8.83218e-05 0)
(-0.000626 -8.75551e-05 0)
(-0.000560265 -8.64384e-05 0)
(-0.000495605 -8.48822e-05 0)
(-0.000432341 -8.27791e-05 0)
(-0.00037094 -8.00066e-05 0)
(-0.00031192 -7.6432e-05 0)
(-0.000255894 -7.19103e-05 0)
(-0.000203565 -6.63076e-05 0)
(-0.00015571 -5.9506e-05 0)
(-0.000113147 -5.1435e-05 0)
(-7.66921e-05 -4.21159e-05 0)
(-4.70741e-05 -3.17345e-05 0)
(-2.48097e-05 -2.07457e-05 0)
(-1.00189e-05 -1.00455e-05 0)
(-2.21328e-06 -1.27978e-06 0)
(1.04759e-07 2.50534e-06 0)
(-1.92749e-07 -2.38137e-06 0)
(-3.92275e-06 3.15135e-06 0)
(-1.34261e-05 1.50663e-05 0)
(-2.99863e-05 2.99314e-05 0)
(-5.40036e-05 4.56214e-05 0)
(-8.5436e-05 6.0822e-05 0)
(-0.00012388 7.47728e-05 0)
(-0.000168701 8.70975e-05 0)
(-0.000219151 9.76758e-05 0)
(-0.000274451 0.000106546 0)
(-0.000333841 0.000113843 0)
(-0.000396625 0.000119748 0)
(-0.000462184 0.000124463 0)
(-0.000529983 0.000128188 0)
(-0.000599574 0.000131103 0)
(-0.000670595 0.000133375 0)
(-0.000742745 0.000135142 0)
(-0.000815794 0.000136523 0)
(-0.000889556 0.000137611 0)
(-0.000963896 0.00013848 0)
(-0.00103871 0.000139189 0)
(-0.00111391 0.000139781 0)
(-0.00118945 0.000140287 0)
(-0.00126528 0.000140729 0)
(-0.00134136 0.000141121 0)
(-0.00141767 0.000141475 0)
(-0.00149417 0.000141792 0)
(-0.00157087 0.000142076 0)
(-0.00164773 0.000142328 0)
(-0.00172473 0.000142546 0)
(-0.00180184 0.000142725 0)
(-0.00187907 0.000142866 0)
(-0.00195636 0.000142965 0)
(-0.00203373 0.000143019 0)
(-0.00211111 0.000143025 0)
(-0.0021885 0.000142981 0)
(-0.00226587 0.000142885 0)
(-0.00234317 0.000142735 0)
(-0.0024204 0.000142529 0)
(-0.0024975 0.000142267 0)
(-0.00257447 0.000141948 0)
(-0.00265126 0.00014157 0)
(-0.00272783 0.000141135 0)
(-0.00280415 0.000140641 0)
(-0.00288021 0.00014009 0)
(-0.00295595 0.00013948 0)
(-0.00303135 0.000138813 0)
(-0.00310638 0.000138089 0)
(-0.003181 0.000137308 0)
(-0.00325518 0.000136473 0)
(-0.00332889 0.000135581 0)
(-0.00340209 0.000134636 0)
(-0.00347476 0.000133636 0)
(-0.00354686 0.000132584 0)
(-0.00361836 0.000131478 0)
(-0.00368923 0.000130318 0)
(-0.00375945 0.000129107 0)
(-0.00382896 0.000127842 0)
(-0.00389775 0.000126527 0)
(-0.00396579 0.000125157 0)
(-0.00403304 0.000123733 0)
(-0.00409948 0.000122258 0)
(-0.00416506 0.000120728 0)
(-0.00422976 0.000119144 0)
(-0.00429355 0.000117506 0)
(-0.00435638 0.000115811 0)
(-0.00441824 0.000114058 0)
(-0.00447909 0.00011225 0)
(-0.00453889 0.000110383 0)
(-0.00459761 0.000108457 0)
(-0.00465522 0.000106473 0)
(-0.00471168 0.000104428 0)
(-0.00476695 0.000102322 0)
(-0.00482103 0.000100154 0)
(-0.00487382 9.7926e-05 0)
(-0.00492535 9.56344e-05 0)
(-0.00497558 9.32813e-05 0)
(-0.00502443 9.0866e-05 0)
(-0.00507192 8.8389e-05 0)
(-0.00511797 8.58487e-05 0)
(-0.00516258 8.32477e-05 0)
(-0.0052057 8.05844e-05 0)
(-0.0052473 7.78601e-05 0)
(-0.0052874 7.50753e-05 0)
(-0.00532591 7.22322e-05 0)
(-0.00536277 6.93309e-05 0)
(-0.00539805 6.63711e-05 0)
(-0.00543163 6.33559e-05 0)
(-0.00546355 6.02851e-05 0)
(-0.00549373 5.71607e-05 0)
(-0.00552221 5.39838e-05 0)
(-0.00554891 5.0757e-05 0)
(-0.00557383 4.74815e-05 0)
(-0.00559693 4.41575e-05 0)
(-0.00561822 4.07871e-05 0)
(-0.00563763 3.73729e-05 0)
(-0.00565521 3.39155e-05 0)
(-0.0056709 3.0417e-05 0)
(-0.00568467 2.68799e-05 0)
(-0.00569655 2.3305e-05 0)
(-0.00570649 1.96942e-05 0)
(-0.00571449 1.60498e-05 0)
(-0.00572052 1.23729e-05 0)
(-0.00572459 8.6657e-06 0)
(-0.00572669 4.93171e-06 0)
(-0.00572679 1.16932e-06 0)
(-0.00572491 -2.61554e-06 0)
(-0.00572103 -6.42334e-06 0)
(-0.0057151 -1.02525e-05 0)
(-0.00570719 -1.40986e-05 0)
(-0.00569723 -1.79602e-05 0)
(-0.00568523 -2.18354e-05 0)
(-0.00567124 -2.57208e-05 0)
(-0.00565517 -2.96159e-05 0)
(-0.00563711 -3.35157e-05 0)
(-0.00561701 -3.74152e-05 0)
(-0.00559486 -4.13157e-05 0)
(-0.00557071 -4.52114e-05 0)
(-0.00554451 -4.90994e-05 0)
(-0.00551631 -5.29771e-05 0)
(-0.00548612 -5.68389e-05 0)
(-0.0054539 -6.06811e-05 0)
(-0.0054197 -6.45015e-05 0)
(-0.00538353 -6.82932e-05 0)
(-0.0053454 -7.20529e-05 0)
(-0.00530534 -7.57777e-05 0)
(-0.00526335 -7.94603e-05 0)
(-0.00521946 -8.30986e-05 0)
(-0.0051737 -8.66869e-05 0)
(-0.00512607 -9.022e-05 0)
(-0.00507663 -9.36935e-05 0)
(-0.00502542 -9.71047e-05 0)
(-0.00497243 -0.000100445 0)
(-0.00491769 -0.000103714 0)
(-0.0048613 -0.000106908 0)
(-0.00480323 -0.000110019 0)
(-0.00474357 -0.000113046 0)
(-0.00468233 -0.000115988 0)
(-0.00461957 -0.000118837 0)
(-0.00455533 -0.000121594 0)
(-0.00448966 -0.000124255 0)
(-0.00442261 -0.000126818 0)
(-0.00435422 -0.000129283 0)
(-0.00428455 -0.000131647 0)
(-0.00421364 -0.00013391 0)
(-0.00414155 -0.000136076 0)
(-0.00406834 -0.000138138 0)
(-0.00399403 -0.000140104 0)
(-0.0039187 -0.000141969 0)
(-0.00384241 -0.00014374 0)
(-0.00376517 -0.000145416 0)
(-0.00368706 -0.000147001 0)
(-0.00360812 -0.000148496 0)
(-0.00352838 -0.000149907 0)
(-0.00344791 -0.000151235 0)
(-0.00336673 -0.000152486 0)
(-0.00328491 -0.000153663 0)
(-0.00320246 -0.000154769 0)
(-0.00311945 -0.00015581 0)
(-0.00303588 -0.00015679 0)
(-0.0029518 -0.000157713 0)
(-0.00286725 -0.000158584 0)
(-0.00278224 -0.000159408 0)
(-0.0026968 -0.000160186 0)
(-0.00261097 -0.000160927 0)
(-0.00252475 -0.000161631 0)
(-0.00243819 -0.000162304 0)
(-0.00235127 -0.000162948 0)
(-0.00226404 -0.000163567 0)
(-0.00217651 -0.000164163 0)
(-0.00208867 -0.000164736 0)
(-0.00200056 -0.000165289 0)
(-0.00191218 -0.000165819 0)
(-0.00182356 -0.000166323 0)
(-0.00173472 -0.000166797 0)
(-0.00164568 -0.000167232 0)
(-0.00155643 -0.000167616 0)
(-0.00146708 -0.000167928 0)
(-0.00137762 -0.000168146 0)
(-0.00128813 -0.000168234 0)
(-0.00119872 -0.000168148 0)
(-0.00110948 -0.000167831 0)
(-0.00102054 -0.000167206 0)
(-0.000932127 -0.000166184 0)
(-0.000844459 -0.000164648 0)
(-0.000757837 -0.000162462 0)
(-0.000672653 -0.000159464 0)
(-0.000589348 -0.000155461 0)
(-0.000508476 -0.000150241 0)
(-0.000430695 -0.000143577 0)
(-0.000356751 -0.000135232 0)
(-0.000287491 -0.00012498 0)
(-0.000223833 -0.000112647 0)
(-0.000166744 -9.81404e-05 0)
(-0.000117168 -8.15364e-05 0)
(-7.59439e-05 -6.31719e-05 0)
(-4.36893e-05 -4.38056e-05 0)
(-2.0652e-05 -2.48193e-05 0)
(-6.68683e-06 -8.56663e-06 0)
(-5.03435e-07 9.51364e-07 0)
(-6.74712e-07 -8.10657e-08 0)
(-7.6593e-06 1.1717e-05 0)
(-2.23576e-05 3.10725e-05 0)
(-4.58044e-05 5.39738e-05 0)
(-7.80057e-05 7.77873e-05 0)
(-0.000118744 0.000100803 0)
(-0.000167501 0.000121983 0)
(-0.000223557 0.000140791 0)
(-0.000286079 0.000157039 0)
(-0.000354208 0.000170758 0)
(-0.000427106 0.000182127 0)
(-0.000503995 0.000191405 0)
(-0.000584176 0.000198873 0)
(-0.000667049 0.000204821 0)
(-0.000752099 0.000209523 0)
(-0.000838901 0.00021322 0)
(-0.000927108 0.000216125 0)
(-0.00101644 0.000218416 0)
(-0.0011067 0.000220238 0)
(-0.00119769 0.000221706 0)
(-0.0012893 0.000222911 0)
(-0.00138143 0.000223922 0)
(-0.001474 0.000224788 0)
(-0.00156695 0.000225546 0)
(-0.00166025 0.000226218 0)
(-0.00175385 0.000226822 0)
(-0.00184772 0.000227365 0)
(-0.00194184 0.000227852 0)
(-0.00203618 0.000228283 0)
(-0.00213073 0.000228657 0)
(-0.00222543 0.000228972 0)
(-0.00232027 0.000229221 0)
(-0.00241523 0.000229403 0)
(-0.00251028 0.00022951 0)
(-0.00260537 0.000229541 0)
(-0.0027005 0.000229492 0)
(-0.0027956 0.000229357 0)
(-0.00289064 0.000229136 0)
(-0.0029856 0.000228825 0)
(-0.00308042 0.000228422 0)
(-0.00317509 0.000227926 0)
(-0.00326955 0.000227334 0)
(-0.00336374 0.000226649 0)
(-0.00345766 0.000225869 0)
(-0.00355123 0.000224992 0)
(-0.00364444 0.000224021 0)
(-0.00373722 0.000222954 0)
(-0.00382955 0.000221793 0)
(-0.00392137 0.000220539 0)
(-0.00401266 0.000219191 0)
(-0.00410336 0.000217751 0)
(-0.00419343 0.000216221 0)
(-0.00428283 0.0002146 0)
(-0.00437152 0.000212888 0)
(-0.00445947 0.000211089 0)
(-0.00454662 0.000209198 0)
(-0.00463293 0.000207221 0)
(-0.00471836 0.000205153 0)
(-0.00480289 0.000202997 0)
(-0.00488645 0.000200751 0)
(-0.00496901 0.000198416 0)
(-0.00505053 0.000195991 0)
(-0.00513098 0.000193475 0)
(-0.00521028 0.000190868 0)
(-0.00528845 0.000188169 0)
(-0.00536537 0.000185375 0)
(-0.00544106 0.000182487 0)
(-0.00551542 0.000179505 0)
(-0.00558848 0.000176427 0)
(-0.00566015 0.000173249 0)
(-0.00573039 0.000169976 0)
(-0.00579917 0.000166602 0)
(-0.00586644 0.000163132 0)
(-0.00593213 0.00015956 0)
(-0.00599625 0.000155888 0)
(-0.00605873 0.000152116 0)
(-0.00611954 0.000148247 0)
(-0.00617862 0.000144272 0)
(-0.00623595 0.000140203 0)
(-0.00629144 0.000136035 0)
(-0.00634513 0.000131768 0)
(-0.00639695 0.000127407 0)
(-0.00644684 0.000122951 0)
(-0.00649478 0.0001184 0)
(-0.00654074 0.000113756 0)
(-0.00658469 0.000109025 0)
(-0.00662656 0.000104207 0)
(-0.0066664 9.93039e-05 0)
(-0.00670408 9.43172e-05 0)
(-0.00673967 8.9251e-05 0)
(-0.00677307 8.41046e-05 0)
(-0.00680428 7.88856e-05 0)
(-0.00683326 7.35943e-05 0)
(-0.00686006 6.82337e-05 0)
(-0.00688459 6.2807e-05 0)
(-0.00690684 5.7316e-05 0)
(-0.00692681 5.1764e-05 0)
(-0.00694441 4.61545e-05 0)
(-0.00695974 4.04903e-05 0)
(-0.00697275 3.47745e-05 0)
(-0.00698341 2.9009e-05 0)
(-0.00699165 2.31962e-05 0)
(-0.00699755 1.73418e-05 0)
(-0.00700107 1.14446e-05 0)
(-0.00700218 5.51216e-06 0)
(-0.00700093 -4.5709e-07 0)
(-0.00699727 -6.45782e-06 0)
(-0.00699118 -1.24864e-05 0)
(-0.00698269 -1.85408e-05 0)
(-0.00697175 -2.46189e-05 0)
(-0.00695842 -3.07155e-05 0)
(-0.00694264 -3.68263e-05 0)
(-0.00692447 -4.29513e-05 0)
(-0.00690388 -4.90821e-05 0)
(-0.00688088 -5.52197e-05 0)
(-0.0068554 -6.13557e-05 0)
(-0.00682752 -6.74866e-05 0)
(-0.00679726 -7.36086e-05 0)
(-0.00676459 -7.97156e-05 0)
(-0.00672952 -8.58046e-05 0)
(-0.00669208 -9.18699e-05 0)
(-0.00665228 -9.79012e-05 0)
(-0.00661008 -0.000103897 0)
(-0.00656556 -0.00010985 0)
(-0.00651871 -0.000115753 0)
(-0.00646954 -0.0001216 0)
(-0.00641811 -0.000127386 0)
(-0.0063644 -0.000133103 0)
(-0.00630849 -0.000138742 0)
(-0.00625034 -0.000144298 0)
(-0.00619002 -0.000149763 0)
(-0.00612755 -0.000155131 0)
(-0.006063 -0.000160396 0)
(-0.00599637 -0.000165548 0)
(-0.00592773 -0.000170587 0)
(-0.00585708 -0.000175502 0)
(-0.00578451 -0.000180287 0)
(-0.00571007 -0.000184939 0)
(-0.00563378 -0.000189454 0)
(-0.0055557 -0.000193823 0)
(-0.00547587 -0.000198043 0)
(-0.00539439 -0.000202116 0)
(-0.00531128 -0.000206037 0)
(-0.00522662 -0.000209801 0)
(-0.00514044 -0.000213409 0)
(-0.00505282 -0.000216862 0)
(-0.00496382 -0.000220159 0)
(-0.00487349 -0.000223302 0)
(-0.00478191 -0.000226287 0)
(-0.0046891 -0.000229124 0)
(-0.00459518 -0.000231812 0)
(-0.00450015 -0.000234355 0)
(-0.00440411 -0.000236757 0)
(-0.00430709 -0.000239023 0)
(-0.00420915 -0.000241157 0)
(-0.00411036 -0.000243166 0)
(-0.00401075 -0.000245056 0)
(-0.00391037 -0.000246833 0)
(-0.00380929 -0.000248503 0)
(-0.00370752 -0.000250074 0)
(-0.00360512 -0.00025155 0)
(-0.00350214 -0.00025294 0)
(-0.00339862 -0.000254253 0)
(-0.00329455 -0.00025549 0)
(-0.00319002 -0.000256662 0)
(-0.00308501 -0.000257774 0)
(-0.00297958 -0.000258832 0)
(-0.00287375 -0.00025984 0)
(-0.00276754 -0.000260802 0)
(-0.00266095 -0.000261724 0)
(-0.00255404 -0.000262606 0)
(-0.0024468 -0.00026345 0)
(-0.00233925 -0.000264253 0)
(-0.00223144 -0.00026501 0)
(-0.00212339 -0.000265711 0)
(-0.00201511 -0.000266344 0)
(-0.00190665 -0.000266887 0)
(-0.00179805 -0.000267309 0)
(-0.0016894 -0.000267572 0)
(-0.00158077 -0.000267622 0)
(-0.00147225 -0.000267386 0)
(-0.00136399 -0.000266775 0)
(-0.00125618 -0.000265673 0)
(-0.00114902 -0.000263935 0)
(-0.00104283 -0.000261389 0)
(-0.00093795 -0.000257823 0)
(-0.000834808 -0.000252993 0)
(-0.000733944 -0.000246612 0)
(-0.000635993 -0.00023837 0)
(-0.000541686 -0.000227931 0)
(-0.00045188 -0.00021496 0)
(-0.000367503 -0.00019914 0)
(-0.000289582 -0.000180238 0)
(-0.000219173 -0.000158148 0)
(-0.000157322 -0.000133001 0)
(-0.00010498 -0.000105286 0)
(-6.2897e-05 -7.60316e-05 0)
(-3.1542e-05 -4.70174e-05 0)
(-1.12624e-05 -2.10993e-05 0)
(-1.09509e-06 -2.80548e-06 0)
(-1.1242e-06 3.97857e-06 0)
(-1.12612e-05 2.45699e-05 0)
(-3.10407e-05 5.31846e-05 0)
(-6.1214e-05 8.55109e-05 0)
(-0.000101337 0.000118574 0)
(-0.000150959 0.000150362 0)
(-0.000209422 0.000179621 0)
(-0.000275899 0.00020568 0)
(-0.000349484 0.000228286 0)
(-0.000429249 0.00024748 0)
(-0.000514301 0.000263481 0)
(-0.000603806 0.000276621 0)
(-0.000697014 0.000287272 0)
(-0.000793274 0.000295822 0)
(-0.000892025 0.000302631 0)
(-0.000992806 0.000308033 0)
(-0.00109524 0.000312314 0)
(-0.00119899 0.000315718 0)
(-0.00130385 0.000318448 0)
(-0.00140961 0.000320668 0)
(-0.00151613 0.000322502 0)
(-0.00162327 0.000324047 0)
(-0.00173098 0.000325377 0)
(-0.00183917 0.000326541 0)