/*--------------------------------*- C++ -*----------------------------------*\
  =========                 |
  \\      /  F ield         | OpenFOAM: The Open Source CFD Toolbox
   \\    /   O peration     | Website:  https://openfoam.org
    \\  /    A nd           | Version:  6
     \\/     M anipulation  |
\*---------------------------------------------------------------------------*/
FoamFile
{
    version     2.0;
    format      ascii;
    class       volVectorField;
    location    "0";
    object      U;
}
// * * * * * * * * * * * * * * * * * * * * * * * * * * * * * * * * * * * * * //

dimensions      [0 1 -1 0 0 0 0];

internalField   nonuniform List<vector> 
13046
(
(-0.759713 0.353305 0)
(-0.858303 -0.209714 -9.74888e-21)
(-0.239402 -0.112646 -2.09948e-20)
(-0.723481 0.211723 0)
(-0.245033 0.0103952 -1.93472e-20)
(-0.70856 -0.22742 0)
(-0.798961 0.248693 2.89273e-21)
(-0.778037 -0.286246 4.93866e-21)
(-0.203414 0.0277332 -2.10629e-20)
(-1.46973 0.674533 7.03023e-21)
(-1.51641 -0.630153 0)
(0.110714 0.00202459 1.27254e-20)
(-0.96194 0.422615 -9.11785e-21)
(-1.00283 -0.326356 -1.48043e-20)
(-0.122306 -0.0653797 1.1191e-20)
(-1.41993 0.781279 -9.69505e-21)
(0.0644954 -0.023828 3.0514e-20)
(-1.59193 -0.517686 5.56299e-21)
(-0.401919 0.144341 0)
(-0.508123 -0.193796 -1.0569e-20)
(-0.686444 0.0496169 3.04135e-20)
(-1.43344 0.767015 -3.89747e-21)
(0.0801434 -0.0147575 -4.07455e-20)
(-1.57874 -0.542849 0)
(-0.647886 0.230357 1.21826e-20)
(-0.717714 -0.158347 -2.41528e-20)
(-0.284372 -0.0698001 0)
(-0.973105 0.469736 -1.63413e-20)
(-1.04337 -0.322279 4.35323e-21)
(-0.122722 -0.0912774 -1.96335e-20)
(-0.774706 0.386631 0)
(-0.899668 -0.188611 0)
(-0.248393 -0.145994 2.13663e-20)
(-0.581359 0.179833 -1.41473e-20)
(-0.326135 -0.0664151 7.27724e-21)
(-0.654529 -0.112945 4.21195e-20)
(-0.571087 0.141769 -2.18506e-20)
(-0.344357 -0.029963 1.11588e-20)
(-0.608605 -0.109294 -2.16797e-20)
(-0.621727 0.392692 1.50909e-20)
(-0.485466 -0.333837 3.81138e-21)
(-0.941086 -0.0463028 -1.46378e-20)
(-0.528042 0.0330284 9.88006e-21)
(-0.429963 0.0196406 1.6834e-20)
(-0.491482 -0.0586645 0)
(-0.576502 0.0462745 6.2775e-21)
(-0.397002 0.0553047 -2.58539e-20)
(-0.497452 -0.102108 -3.21728e-21)
(-0.793961 0.345154 0)
(-0.864517 -0.244083 -6.94499e-22)
(-0.19453 -0.0807177 -9.62948e-23)
(-0.763508 -0.547074 2.32689e-20)
(-0.527877 0.416791 0)
(-1.10766 0.0720379 -1.72055e-20)
(-0.857437 -0.603719 -3.31693e-20)
(-1.15602 0.112063 -2.74267e-20)
(-0.464837 0.384397 2.26806e-20)
(-1.46139 -0.30963 -3.00662e-21)
(-1.23499 0.814343 0)
(-0.192391 -0.218369 1.7013e-20)
(-1.23894 0.42181 -8.47808e-21)
(-1.17789 -0.572303 8.34989e-21)
(-0.0407399 0.0747962 -4.65341e-20)
(0.089 -0.00943289 2.36539e-20)
(-1.49313 -0.604178 -4.56707e-21)
(-1.45799 0.661861 -1.22955e-20)
(-1.17832 0.812263 0)
(-1.41662 -0.251892 0)
(-0.269093 -0.280875 0)
(-1.12882 0.778529 -6.22723e-21)
(-1.3705 -0.233048 0)
(-0.293527 -0.297047 1.35783e-20)
(-1.50984 -0.319369 0)
(-1.27685 0.840621 2.28492e-22)
(-0.168533 -0.208001 -5.83289e-23)
(-0.432759 0.182756 0)
(-0.494001 -0.219147 1.13903e-20)
(-0.729738 0.019224 -2.16655e-20)
(-0.0761658 -0.133267 1.8628e-20)
(-1.33539 0.84183 -1.80658e-20)
(-1.55281 -0.387669 0)
(-0.698479 0.248441 6.37605e-21)
(-0.739475 -0.192897 0)
(-0.247921 -0.0400324 0)
(0.0969145 -0.00822882 -2.11167e-20)
(-1.51557 -0.609462 -3.31251e-21)
(-1.47624 0.678745 7.25858e-21)
(-1.52131 0.537208 -1.28878e-20)
(0.066201 0.0381774 0)
(-1.42588 -0.725612 -3.59436e-21)
(-0.0264085 0.0903947 0)
(-1.60776 0.418621 0)
(-1.37478 -0.851855 4.50099e-22)
(-1.24927 0.593291 0)
(-1.30495 0.598572 7.41636e-21)
(-1.30607 -0.473958 1.58955e-20)
(-1.34638 -0.520653 -7.4267e-21)
(-0.00269326 -0.0506598 -9.89388e-21)
(0.0258109 -0.0271409 2.55002e-20)
(0.0427081 0.0538659 -1.19586e-21)
(-1.51993 0.506612 1.26133e-20)
(-1.39776 -0.749111 0)
(-0.616846 0.088801 -4.89568e-23)
(-0.354681 0.053083 1.34633e-20)
(-0.545402 -0.147136 0)
(-0.341729 0.281954 0)
(-1.05475 0.160078 -8.62723e-21)
(-0.834333 -0.515813 0)
(-0.516666 0.382934 2.58332e-20)
(-0.675254 -0.457514 0)
(-1.01574 0.0428496 -3.31006e-20)
(-1.35267 0.63562 0)
(0.0925625 0.00493637 0)
(-1.3797 -0.614138 -2.77859e-21)
(-0.887994 0.380572 2.52037e-20)
(-0.94071 -0.291257 6.3959e-21)
(-0.147641 -0.0574003 2.06254e-20)
(-1.30519 0.685336 9.48022e-21)
(-1.25261 0.643003 -1.79776e-20)
(-1.40678 -0.459532 -1.33647e-20)
(-0.00511666 -0.0778473 1.13633e-20)
(-1.34124 -0.44238 7.87636e-21)
(-0.0188444 -0.0787042 -1.06145e-20)
(-1.44621 0.682753 -5.28861e-21)
(-1.50904 -0.619488 -5.14784e-21)
(0.108194 0.00492153 -5.67823e-21)
(-1.12508 0.550577 0)
(-1.19107 -0.40097 -1.09811e-20)
(-0.0587098 -0.0823908 2.37094e-20)
(-0.687323 0.4224 0)
(-0.419309 -0.298231 -1.92954e-20)
(-0.954211 -0.0902714 7.8371e-22)
(-0.0498029 0.112039 0)
(-1.57835 0.401292 0)
(-1.35599 -0.838817 0)
(-1.40258 0.591682 0)
(-1.40251 -0.603794 -1.96312e-20)
(0.0607186 0.00598597 -2.70779e-20)
(-0.843323 0.424401 0)
(-0.959502 -0.222012 0)
(-0.220507 -0.155497 0)
(-1.00045 0.287362 0)
(-0.92343 -0.443529 0)
(-0.160189 0.10311 0)
(-0.482601 0.372501 0)
(-0.743864 -0.501532 0)
(-1.04982 0.0757376 1.78347e-20)
(-0.340035 0.261646 -2.6815e-21)
(-1.01608 0.155256 -1.8818e-20)
(-0.812057 -0.486508 2.10129e-20)
(-1.28315 0.454888 1.932e-20)
(-1.2278 -0.585485 0)
(-0.0109592 0.0526304 6.04095e-20)
(-0.28434 0.170371 0)
(-0.894053 0.169351 2.0528e-20)
(-0.742202 -0.381941 -5.40476e-21)
(-1.0144 -0.671245 0)
(-1.23621 0.210465 1.94486e-20)
(-1.0879 -0.696069 0)
(-1.28465 0.261106 1.11516e-20)
(-0.317112 0.297959 0)
(-0.245025 0.250179 0)
(-1.04051 0.236555 2.59267e-21)
(-0.903316 -0.49362 1.10197e-20)
(-0.21492 0.167884 -1.16689e-20)
(-1.50162 0.650671 -7.22593e-21)
(0.11216 0.00156573 0)
(-1.48649 -0.661522 -7.27165e-21)
(-1.38865 0.654898 -4.49021e-21)
(0.0997184 0.0083202 -2.60106e-21)
(-1.44128 -0.613339 0)
(-1.41595 0.621883 -1.0503e-20)
(-1.43119 -0.598048 0)
(0.0697596 -0.0043165 3.07752e-20)
(-0.805599 0.540508 0)
(-1.08843 -0.110464 4.52133e-21)
(-0.440799 -0.35755 1.10247e-20)
(-1.00078 0.206958 1.70829e-20)
(-0.2564 0.199103 5.63784e-21)
(-0.849146 -0.462871 0)
(0.104123 0.00730102 0)
(-1.4681 -0.715781 0)
(-1.54591 0.597802 5.95472e-21)
(-0.743376 0.495631 0)
(-1.03813 -0.0843776 -9.95091e-21)
(-0.461541 -0.348048 2.89473e-21)
(-0.285915 0.1946 0)
(-0.922669 0.166206 0)
(-0.754799 -0.407458 0)
(-0.941454 0.254431 8.53606e-21)
(-0.866662 -0.408129 0)
(-0.178401 0.0964706 0)
(-1.06745 -0.398236 -3.36937e-23)
(-0.077041 -0.0291699 -1.39338e-20)
(-1.07728 0.509233 2.58784e-20)
(-1.13932 -0.379927 0)
(-0.0741835 -0.0725452 -2.9712e-20)
(-1.516 0.607692 -1.29019e-20)
(0.0956335 0.0124221 1.91167e-20)
(-1.47777 -0.682812 -1.64173e-20)
(-0.0160975 0.0959946 1.743e-20)
(-1.53237 0.437657 8.0362e-21)
(-1.36136 -0.795923 1.80099e-20)
(-1.58467 0.479377 -2.11707e-20)
(-1.40999 -0.79094 0)
(0.0347866 0.056615 -1.71093e-20)
(-0.806642 -0.615149 -1.18079e-21)
(-1.19999 0.056671 7.60468e-21)
(-0.611021 0.507254 0)
(-0.929926 0.328364 -3.84731e-20)
(-1.31641 0.857294 9.36846e-21)
(-0.110755 -0.155168 -1.14678e-20)
(-1.55928 -0.37386 0)
(-1.4216 -0.787281 0)
(-1.58705 0.511908 -1.80553e-20)
(0.0561234 0.0365313 0)
(-0.619617 0.13729 -3.16829e-20)
(-0.319472 0.0151484 -1.09579e-20)
(-0.601245 -0.1543 3.18093e-20)
(-0.93801 0.478971 0)
(-1.03493 -0.289117 -6.28376e-22)
(-0.165389 -0.122751 -1.14255e-20)
(-0.0437334 0.112726 1.33694e-20)
(-1.54532 0.417189 0)
(-1.34674 -0.819271 -2.07671e-20)
(-0.990845 0.364004 3.07683e-20)
(-1.03946 -0.410279 2.666e-20)
(-0.0835309 -0.00603078 0)
(0.107672 -0.00194432 0)
(-1.42596 -0.666126 5.29522e-21)
(-1.47117 0.628967 0)
(-0.544473 0.460748 0)
(-1.21547 0.0864492 0)
(-0.863724 -0.651581 0)
(-1.5541 0.477598 1.8557e-20)
(-1.39699 -0.774565 0)
(0.0277775 0.0636108 -9.10472e-23)
(-1.1594 0.251081 7.42646e-21)
(-0.995894 -0.594821 -8.2394e-21)
(-0.219596 0.209528 0)
(-1.1201 0.580313 0)
(-1.20658 -0.379158 1.02797e-20)
(-0.0793179 -0.105793 1.86323e-20)
(-1.263 -0.841852 -2.70912e-20)
(-1.49813 0.311675 -1.46677e-20)
(-0.179328 0.214448 1.05078e-20)
(-1.34861 0.269159 0)
(-1.14215 -0.743278 -1.11185e-20)
(-0.239317 0.251448 -3.8504e-22)
(0.102071 -0.00769855 -1.67054e-20)
(-1.39158 -0.677472 0)
(-1.47707 0.60511 -4.63929e-21)
(-0.633359 0.456447 1.37758e-20)
(-0.601325 -0.435808 -1.37573e-20)
(-1.04616 -0.0150357 1.43848e-21)
(-1.25125 0.675667 4.42157e-21)
(0.0811629 0.0262446 -2.44053e-20)
(-1.41226 -0.532688 0)
(-0.348245 0.10593 -6.40941e-21)
(-0.686393 0.0873779 -2.46028e-20)
(-0.557615 -0.205266 3.15743e-20)
(-1.16325 0.318065 8.75139e-21)
(-1.12593 0.267048 6.16262e-23)
(-1.05039 -0.565044 -2.0127e-20)
(-0.983239 -0.562363 0)
(-0.194125 0.180779 1.06078e-20)
(-0.128702 0.137232 -1.09517e-20)
(-0.039417 -0.103226 -2.43821e-20)
(-1.36065 0.836622 9.72238e-21)
(-1.58491 -0.408752 -1.4409e-20)
(-1.06401 0.570128 0)
(-1.1697 -0.329202 0)
(-0.130005 -0.137197 -2.44725e-20)
(-1.40259 0.309805 -3.91713e-21)
(-1.19809 -0.776398 0)
(-0.190358 0.218997 0)
(-1.35919 0.645236 -9.07485e-21)
(-1.41016 -0.527803 0)
(0.0424999 -0.0346392 1.11688e-20)
(-0.496613 0.0577984 6.64546e-21)
(-0.524677 -0.0359808 9.69941e-21)
(-0.428836 -0.0167195 -3.32112e-21)
(-1.25216 0.284478 -1.42088e-20)
(-1.08742 -0.659964 0)
(-0.193654 0.20937 -1.80341e-20)
(-1.07472 0.602171 0)
(-1.20232 -0.31925 1.27787e-20)
(-0.144604 -0.159499 -1.56202e-20)
(-1.02076 0.412206 0)
(-1.08371 0.443813 3.0287e-21)
(-0.65308 0.47999 4.9455e-21)
(-0.621247 -0.463014 3.99738e-20)
(-1.07738 -0.00884326 -3.42855e-20)
(-1.29564 0.327429 -1.44332e-20)
(-1.14199 -0.67546 1.68818e-20)
(-0.136682 0.171042 1.64553e-20)
(-1.39484 0.6478 0)
(0.0608478 -0.0216423 -3.95408e-20)
(-1.44034 -0.559426 -9.40837e-21)
(-0.516841 0.356372 -3.57246e-20)
(-0.632016 -0.426185 0)
(-0.97826 0.0423174 1.12089e-20)
(-0.357244 0.333017 -2.10162e-20)
(-1.2622 0.195464 -1.11409e-20)
(-1.01685 -0.704379 0)
(-1.22466 0.697986 -9.20703e-21)
(-1.36364 -0.373435 -1.08112e-20)
(-0.086904 -0.137985 7.01239e-21)
(-0.590678 0.460682 1.78425e-21)
(-0.723278 -0.531426 0)
(-1.11493 0.0461807 2.38525e-20)
(-1.27102 0.727073 0)
(-1.30344 0.723599 0)
(-1.41627 -0.39871 -6.76856e-21)
(-0.0651566 -0.125912 -1.82681e-20)
(-1.43558 -0.439911 9.57307e-21)
(-0.0267736 -0.0957254 1.93745e-20)
(0.106588 0.006424 -1.47322e-20)
(-1.48203 -0.69204 0)
(-1.53195 0.622989 -8.77137e-21)
(-1.19825 0.632156 1.07214e-20)
(-1.29411 -0.406676 0)
(-0.0538852 -0.101438 6.34474e-21)
(-1.23229 -0.577877 6.37592e-21)
(0.064484 0.00573915 2.1344e-20)
(-1.2022 0.603041 8.65739e-21)
(-0.812945 0.117068 -1.1295e-20)
(-0.329889 0.168561 0)
(-0.647334 -0.314502 0)
(-1.16795 0.401629 2.01985e-20)
(-1.11907 -0.523013 0)
(-0.0551976 0.0610593 3.59125e-20)
(0.088418 0.0090448 -1.22008e-20)
(-1.4877 0.610732 2.66746e-20)
(-1.46196 -0.655322 1.28671e-20)
(-0.891334 -0.635899 0)
(-1.19093 0.118023 1.00964e-20)
(-0.464248 0.404965 -2.56969e-20)
(-1.29366 -0.839788 -3.23571e-20)
(-1.51934 0.349812 -8.8681e-21)
(-0.125767 0.171846 0)
(-0.944603 -0.364592 -2.73588e-20)
(-0.122746 0.00625871 0)
(-1.20097 0.487387 2.17834e-20)
(-1.18634 -0.494067 9.30484e-21)
(-0.0173099 -0.00198798 1.09397e-20)
(-0.927323 -0.389871 1.59991e-20)
(-0.127938 0.0341539 -2.03084e-23)
(-1.41811 0.780609 -6.23166e-22)
(0.0513726 -0.0378206 1.44051e-20)
(-1.58193 -0.501691 -8.1823e-21)
(-0.785722 -0.630874 0)
(-1.2293 0.0355414 2.38159e-21)
(-0.672358 0.554682 0)
(-1.25248 0.511731 -2.22214e-20)
(-1.25037 -0.523173 -1.13387e-20)
(0.00437308 0.00600433 -1.321e-20)
(-1.0304 0.279284 0)
(-0.926986 -0.47828 -1.60025e-20)
(-0.171847 0.128735 0)
(-1.06562 0.127083 0)
(-0.802601 -0.532386 0)
(-0.410994 0.322868 0)
(-0.767473 0.300607 -8.83973e-21)
(-0.809119 -0.232793 -1.53123e-20)
(-0.209795 -0.0532829 2.08297e-23)
(-0.413364 0.374356 2.60551e-20)
(-1.24058 0.16055 2.69201e-20)
(-0.970133 -0.684158 1.62417e-20)
(-1.54475 0.563789 -1.09319e-20)
(-1.44959 -0.719262 1.38371e-20)
(0.0844631 0.0240495 -1.80454e-20)
(-1.3059 -0.812976 2.2e-20)
(-1.50387 0.37289 8.99198e-21)
(-0.0914617 0.150162 1.34973e-20)
(-1.01621 0.725778 -1.94103e-20)
(-0.403754 -0.367281 2.04743e-20)
(-1.29495 -0.168555 -1.51722e-20)
(-1.32057 0.793768 5.30108e-21)
(-1.28653 0.775211 -4.94111e-21)
(-1.46178 -0.377914 -2.14561e-21)
(-1.50366 -0.394348 0)
(-0.0669365 -0.128418 -6.6275e-21)
(-0.0900748 -0.147321 -5.91885e-21)
(0.0732 0.0132208 -2.89116e-20)
(-1.28857 -0.564045 -7.02685e-21)
(-1.22358 0.614266 2.96626e-21)
(-1.27755 0.692667 -3.08505e-22)
(0.0852981 0.0272338 3.37634e-20)
(-1.45522 -0.53108 0)
(-1.22548 0.345623 -3.25518e-20)
(-1.11807 -0.598696 -4.39139e-21)
(-0.108258 0.133778 0)
(0.102858 0.00718255 -3.68126e-20)
(-1.51943 0.625164 8.73172e-21)
(-1.49414 -0.674361 0)
(-1.13725 0.733884 2.7471e-20)
(-1.1877 0.744372 -2.04986e-20)
(-1.3372 -0.280875 1.16581e-20)
(-1.37181 -0.313596 4.42429e-21)
(-0.224906 -0.23839 -1.16854e-20)
(-0.171864 -0.200278 -5.85412e-21)
(0.0600266 0.0159342 0)
(-1.39036 -0.79776 0)
(-1.61198 0.486877 3.04705e-21)
(-1.16716 0.664692 -5.18978e-21)
(0.0730523 0.0328552 0)
(-1.3748 -0.507721 0)
(-0.635706 -0.00834537 -3.60612e-23)
(-0.456513 0.136868 1.41876e-20)
(-0.433808 -0.130666 7.04401e-21)
(-1.27964 0.640797 -8.41913e-21)
(-1.37061 -0.582467 4.0649e-21)
(0.08385 0.0141117 1.58396e-21)
(-0.88996 0.566689 0)
(-1.11288 -0.168659 -2.06264e-20)
(-0.347779 -0.297366 -1.26848e-22)
(-1.55434 0.58154 2.37628e-22)
(-1.45699 -0.734192 1.84303e-20)
(0.0962463 0.0120327 2.65935e-23)
(-1.08747 -0.591549 2.02027e-22)
(0.0518317 -0.0162187 -1.23208e-20)
(-1.17252 0.510694 -2.85046e-21)
(-0.55509 0.341332 -1.30913e-20)
(-0.50568 -0.317917 1.23572e-20)
(-0.892828 -0.0165665 3.59456e-20)
(-0.734537 0.132017 0)
(-0.631393 -0.24858 -3.49794e-20)
(-0.301602 0.0991572 1.77908e-20)
(-1.42492 0.708754 0)
(0.103451 0.0071795 1.69508e-20)
(-1.52234 -0.599933 -1.39399e-22)
(-0.779314 0.148485 0)
(-0.66306 -0.282668 -1.21445e-20)
(-0.285248 0.123927 -2.5192e-20)
(-0.596668 -0.0025407 1.46055e-20)
(-0.450037 0.102703 -7.51884e-21)
(-0.440495 -0.0997057 3.7324e-21)
(-0.519871 0.456398 1.2482e-20)
(-1.26955 0.11311 -9.40535e-21)
(-0.939849 -0.713483 1.78433e-20)
(-0.761807 0.0426083 0)
(-0.534659 -0.25034 0)
(-0.407236 0.207519 2.08589e-21)
(-0.808752 0.0927542 1.78814e-20)
(-0.606587 -0.294762 9.31411e-21)
(-0.374337 0.202773 2.95556e-22)
(-0.958431 0.696924 2.94849e-20)
(-1.25758 -0.136584 -1.5343e-20)
(-0.464558 -0.412818 -2.02086e-20)
(0.101287 -0.00433248 2.56926e-20)
(0.107238 -0.00149033 -2.60836e-20)
(-1.54947 -0.599989 5.17555e-21)
(-1.53333 -0.620001 3.69091e-21)
(-1.46293 0.71904 0)
(-1.47764 0.70279 -7.19909e-21)
(-1.56459 0.556717 1.36028e-20)
(-1.45119 -0.733918 -1.17699e-20)
(0.0862707 0.0231175 2.23839e-20)
(-0.387723 -0.368507 -1.30609e-20)
(-1.0673 0.774875 5.9956e-21)
(-1.34475 -0.182019 1.93249e-20)
(-0.669316 0.457133 -1.25803e-20)
(-0.528554 -0.386096 -1.26653e-20)
(-1.02159 -0.0453515 1.10689e-20)
(-1.37108 0.233518 0)
(-1.12885 -0.778469 1.15081e-20)
(-0.302532 0.298708 3.97857e-22)
(-1.18614 -0.663724 4.58895e-21)
(0.0750691 -0.0318946 -1.14634e-20)
(-1.37764 0.512134 -3.13874e-21)
(0.00596013 0.0679986 0)
(-1.60914 0.448207 0)
(-1.38678 -0.839122 8.07112e-21)
(-1.43001 0.650718 5.53374e-21)
(0.106086 0.0030897 0)
(-1.45656 -0.637983 -5.19659e-21)
(0.0420531 -0.0100469 -4.58618e-32)
(-1.02948 -0.563958 -2.33538e-21)
(-1.08976 0.497597 2.60583e-21)
(-1.08715 -0.498723 2.5912e-21)
(0.0424612 0.00919917 4.57513e-32)
(-1.03348 0.564055 -2.33384e-21)
(-1.24932 -0.670809 -2.26979e-20)
(-1.35878 0.416797 0)
(-0.0434708 0.103856 -3.49582e-20)
(-1.32823 -0.75298 -2.78494e-21)
(0.0772979 -0.0164797 -1.17038e-20)
(-1.56978 0.501568 0)
(-1.43336 0.577371 -1.35346e-20)
(-1.40308 -0.638456 1.20901e-20)
(0.0633674 0.0184326 1.80823e-20)
(-1.37427 0.796872 1.88494e-20)
(0.059561 -0.00628799 1.02546e-20)
(-1.61422 -0.484552 0)
(-0.885166 0.341386 6.82284e-21)
(-0.145391 -0.0149386 -7.05101e-21)
(-0.913796 -0.325364 6.61812e-21)
(-1.39472 -0.814348 4.05705e-21)
(0.0454839 0.0312536 1.24071e-20)
(-1.61418 0.475798 3.67988e-21)
(-1.33514 0.208882 -1.08086e-20)
(-0.347191 0.33276 -7.11598e-21)
(-1.0854 -0.75757 0)
(-1.21927 -0.764313 0)
(-1.40479 0.337261 0)
(-0.141901 0.186866 0)
(0.011767 0.000142548 0)
(-0.643761 -0.323645 -8.0899e-22)
(-0.642763 0.32203 8.21181e-22)
(-1.21729 -0.605476 3.71337e-21)
(0.0669996 -0.00480952 -1.48684e-20)
(-1.23933 0.582581 -3.99328e-21)
(-0.820914 0.299316 -1.75064e-20)
(-0.178596 -0.0136925 1.68222e-20)
(-0.839902 -0.288304 7.80326e-21)
(-1.41617 -0.757956 1.523e-20)
(-1.58793 0.538935 -6.28213e-21)
(0.0845441 0.00778261 0)
(0.0591497 0.00649585 -1.2966e-20)
(-1.61844 0.481082 0)
(-1.35977 -0.800537 -1.13695e-20)
(-1.49847 0.665232 -8.04345e-21)
(0.103943 -0.00101261 3.94196e-20)
(-1.51327 -0.636649 0)
(0.0100608 -0.069147 -2.95405e-20)
(-1.56431 -0.462537 9.51467e-21)
(-1.38759 0.797707 0)
(-0.926201 0.707966 -3.70287e-20)
(-1.26799 -0.109875 1.95287e-20)
(-0.537852 -0.47012 -6.41156e-21)
(-1.43703 -0.340591 3.19642e-21)
(-1.24159 0.78892 1.17877e-20)
(-0.151491 -0.190673 -1.81637e-20)
(0.0105747 -0.0601495 -2.63404e-20)
(-1.38494 0.830928 0)
(-1.61628 -0.449717 0)
(-0.940906 0.548631 -6.11203e-21)
(-1.01073 0.590405 0)
(-1.10035 -0.231156 -2.1529e-20)
(-1.16803 -0.265636 2.30529e-20)
(-0.244444 -0.210198 3.21927e-21)
(-0.208075 -0.201776 -3.42973e-21)
(-0.88317 0.53833 5.86166e-21)
(-1.07945 -0.18814 0)
(-0.307899 -0.255457 6.11e-21)
(-1.1184 0.754329 0)
(-1.34319 -0.257775 -1.88455e-20)
(-0.270034 -0.273458 4.20112e-21)
(-1.2782 -0.785047 -1.11925e-20)
(-1.46652 0.366802 9.56726e-21)
(-0.0965547 0.152323 -2.75871e-20)
(-1.43262 -0.774958 0)
(-1.5751 0.537444 1.97965e-20)
(0.0736226 0.0268823 0)
(-0.0278424 0.102959 -8.95762e-21)
(-1.48677 0.427866 -5.82764e-21)
(-1.33374 -0.766439 -7.23572e-21)
(-1.1554 -0.503289 -3.2851e-22)
(0.0506065 0.0160862 7.94494e-21)
(-1.07874 0.588757 0)
(-0.664171 0.371267 1.19589e-20)
(-0.677985 0.354551 0)
(-0.370086 -0.231602 0)
(-0.885643 -0.10149 4.36677e-20)
(-0.330246 -0.193945 0)
(-0.862195 -0.130692 -2.78397e-20)
(-1.02083 0.688572 0)
(-0.944391 0.642149 0)
(-0.373714 -0.330904 -1.07463e-23)
(-1.25437 -0.207588 1.22243e-20)
(-0.328438 -0.300814 3.08465e-20)
(-1.19593 -0.173509 -2.60543e-20)
(-1.05512 -0.613915 0)
(0.0560391 -0.0282723 1.67911e-20)
(-1.23061 0.495062 0)
(-1.42712 -0.750747 -9.51243e-21)
(-1.58297 0.548763 2.05704e-21)
(0.0871563 0.0116366 7.85989e-21)
(-0.720753 0.522883 -2.1347e-20)
(-0.594682 -0.464642 -1.42976e-20)
(-1.10924 -0.0367299 3.54363e-20)
(-1.2201 -0.814675 2.42736e-20)
(-1.44915 0.292063 2.47219e-20)
(-0.20881 0.237447 0)
(-0.0134643 -0.0883883 3.15889e-20)
(-1.55166 -0.443425 -1.0115e-20)
(-1.3703 0.802978 1.23103e-20)
(-1.32698 -0.642346 0)
(-1.38092 0.597534 0)
(0.0888937 -0.0072083 0)
(-1.34463 -0.668038 0)
(-1.42621 0.584393 4.72805e-21)
(0.0947024 -0.0128133 2.83737e-21)
(-1.18475 0.714999 -1.14475e-20)
(-1.34665 -0.340647 6.70264e-21)
(-0.137631 -0.173018 8.65855e-21)
(-0.47167 0.321947 -3.40726e-21)
(-0.645932 -0.409478 0)
(-0.948612 0.0661125 -1.82041e-22)
(-1.4957 0.673299 9.37156e-21)
(0.107807 -0.000168202 2.28025e-20)
(-1.5257 -0.635658 -4.2968e-21)
(-1.27062 -0.709682 0)
(-1.39867 0.416087 0)
(-0.0449436 0.116326 3.0139e-20)
(0.0710204 -0.0235864 7.55617e-21)
(-1.4819 -0.567092 1.59532e-20)
(-1.42193 0.685919 2.73436e-20)
(-0.901668 0.629055 0)
(-0.429885 -0.36999 -2.07761e-20)
(-1.17842 -0.145061 1.34065e-20)
(-1.13015 0.213712 2.34659e-22)
(-0.936226 -0.575603 1.20811e-20)
(-0.285678 0.250762 0)
(-0.607939 0.402768 1.32423e-22)
(-0.537322 -0.374685 -4.2068e-21)
(-0.973556 -0.0247252 -1.44999e-20)
(0.110155 0.00322825 -1.84009e-24)
(-1.50066 -0.669071 9.78105e-21)
(-1.51131 0.645606 9.71811e-21)
(-1.34931 0.686398 -5.18288e-21)
(-1.4386 -0.500151 -5.00572e-21)
(0.026205 -0.0548622 0)
(-0.568722 0.327731 -1.29687e-20)
(-0.454158 -0.271734 2.70034e-20)
(-0.86011 -0.0407406 -2.37353e-20)
(-1.3802 0.831106 7.70003e-21)
(0.025241 -0.0411259 1.16404e-20)
(-1.62986 -0.456986 -6.0024e-21)
(-0.835235 0.459434 -7.47964e-21)
(-0.986291 -0.205255 0)
(-0.255749 -0.192453 0)
(-0.899016 0.216292 -3.17815e-20)
(-0.790047 -0.377846 7.45664e-21)
(-0.226007 0.128632 0)
(-1.2075 -0.717582 0)
(-1.36265 0.343464 2.06582e-20)
(-0.118498 0.170075 0)
(-1.3247 0.736174 -3.69109e-21)
(0.0843563 0.0215948 -3.60817e-21)
(-1.54135 -0.522686 4.86751e-21)
(-1.32556 0.759795 1.02811e-20)
(0.0762768 0.0182071 0)
(-1.56974 -0.500848 -5.44279e-21)
(0.0621213 -0.0346237 6.7715e-21)
(-1.50344 -0.542788 -9.10423e-21)
(-1.41537 0.710788 -2.51939e-20)
(-1.16857 0.188097 -9.72043e-21)
(-0.95736 -0.623598 -1.21006e-20)
(-0.333423 0.290174 0)
(0.080552 0.0313967 3.30566e-21)
(-1.49474 -0.513733 -4.55418e-21)
(-1.25452 0.711447 0)
(0.074805 0.0199408 0)
(-1.43141 -0.664361 -9.43568e-21)
(-1.47315 0.5811 -3.12625e-21)
(0.030806 -0.0151577 1.3495e-20)
(-0.880774 -0.533976 2.98011e-21)
(-0.989378 0.426238 0)
(-0.881612 0.533168 -2.95305e-21)
(-0.988485 -0.427628 0)
(0.0312968 0.0144757 1.34992e-20)
(0.0232248 -0.0551037 -3.86266e-23)
(-1.59394 -0.472012 0)
(-1.39326 0.812289 0)
(0.110398 0.00010576 0)
(-1.46184 -0.680974 0)
(-1.50794 0.628073 1.20625e-20)
(-1.45726 0.7272 -8.40779e-21)
(-1.45519 0.719561 6.80111e-21)
(0.0912833 -0.0137293 -1.29002e-20)
(-1.56261 -0.569203 -1.76261e-21)
(0.0878418 -0.0179132 -2.10504e-20)
(-1.54335 -0.572588 3.44928e-21)
(-1.48416 0.550663 6.15904e-21)
(-1.41327 -0.691096 6.36287e-21)
(0.064103 0.03273 0)
(-0.282928 0.292787 0)
(-1.17179 -0.81978 0)
(-1.42679 0.250624 0)
(-0.658405 0.293895 0)
(-0.299056 -0.132713 -3.73161e-20)
(-0.789986 -0.141965 1.5358e-20)
(-1.46776 0.477527 1.79122e-20)
(-1.3547 -0.724625 2.45136e-21)
(0.0167758 0.0713676 2.63781e-20)
(-0.0135821 0.0933058 1.71237e-20)
(-1.45678 0.449623 -2.49395e-20)
(-1.32577 -0.73676 -3.39699e-21)
(-1.36732 0.855249 9.373e-21)
(-0.0275387 -0.0886967 1.25912e-20)
(-1.61628 -0.413111 1.50312e-20)
(-1.04495 0.716066 0)
(-1.28979 -0.210274 5.61171e-21)
(-0.333734 -0.312965 -3.0239e-20)
(-0.946525 0.607478 0)
(-1.16059 -0.188958 2.70854e-20)
(-0.328199 -0.294831 -8.29672e-23)
(-1.34448 0.472935 -2.45535e-20)
(-1.28107 -0.63348 3.12739e-21)
(0.00461958 0.0575563 -1.52822e-20)
(-1.37574 0.462341 0)
(-1.28903 -0.661516 2.94513e-21)
(-0.00375637 0.0719927 1.39663e-20)
(-0.522518 0.28365 0)
(-0.46213 -0.250487 -4.26942e-20)
(-0.81095 -0.0220593 1.34164e-20)
(-1.03036 0.62123 0)
(-1.19708 -0.263452 0)
(-0.217586 -0.220288 4.61228e-21)
(0.0224704 0.0452729 -2.68377e-20)
(-1.37419 -0.835302 -2.23605e-20)
(-1.62961 0.453316 0)
(-1.45712 0.55665 5.57347e-21)
(0.0893618 -0.0209261 0)
(-1.29303 -0.688478 3.43766e-21)
(-1.44012 0.52056 -4.5573e-22)
(0.0818036 -0.0290855 0)
(-1.24501 -0.685035 -9.62747e-21)
(-0.751188 0.47437 8.84003e-21)
(-0.405475 -0.299684 -4.53855e-21)
(-1.00476 -0.116401 -3.6068e-22)
(-1.25065 -0.626003 4.15062e-22)
(0.0781292 -0.0126553 2.27616e-20)
(-1.33564 0.57158 0)
(-1.38339 0.718464 2.19751e-20)
(0.0374129 -0.0514032 1.43755e-20)
(-1.48501 -0.508037 0)
(0.0711595 -0.0252789 -3.37972e-21)
(-1.18083 -0.647343 -4.51527e-21)
(-1.3272 0.527085 0)
(-0.69942 0.175147 2.2011e-20)
(-0.27807 0.0406927 2.26608e-20)
(-0.657964 -0.211396 4.62653e-23)
(-1.11414 0.489493 -3.77715e-21)
(-1.14553 -0.42769 -3.47355e-21)
(-0.0517717 -0.0365428 -1.60562e-20)
(-0.884551 -0.595745 2.75633e-20)
(-1.13676 0.15165 2.32576e-20)
(-0.396864 0.329736 0)
(0.0776884 -0.00661087 0)
(-1.35847 -0.762651 -3.691e-21)
(-1.58534 0.512297 0)
(-1.24997 -0.729761 0)
(-1.40228 0.390189 0)
(-0.0748591 0.138194 0)
(0.0520473 -0.0221297 0)
(-1.39412 0.803909 -6.7519e-21)
(-1.61868 -0.485344 5.88464e-21)
(-1.18059 0.518129 0)
(-1.19777 -0.469334 1.76146e-21)
(-0.0248655 -0.0249466 1.56943e-20)
(-0.627475 0.261411 0)
(-0.309585 -0.114558 3.20454e-20)
(-0.748048 -0.130251 0)
(-1.40126 -0.748071 -1.43797e-20)
(-1.56227 0.551093 5.97868e-21)
(0.0904968 -0.00290218 0)
(0.086659 -0.000878935 -1.57054e-20)
(-1.46545 -0.629477 5.99097e-22)
(-1.45964 0.637577 5.39645e-22)
(-1.37689 0.703055 0)
(-1.34996 0.692208 6.27992e-21)
(0.0969236 0.014756 -8.3459e-21)
(0.0952154 0.0165692 -1.02467e-20)
(-1.50693 -0.567481 -3.23034e-21)
(-1.47669 -0.572758 2.65743e-21)
(-1.11527 0.33308 0)
(-1.02363 -0.528354 4.70895e-20)
(-0.122388 0.111544 1.71262e-20)
(-1.19565 -0.639416 3.1924e-20)
(-1.30707 0.385672 0)
(-0.0650718 0.115292 -1.85269e-20)
(-0.837554 0.242092 -1.80203e-20)
(-0.788269 -0.321007 1.27431e-20)
(-0.193817 0.059968 2.7461e-20)
(-1.3354 -0.718126 8.28839e-21)
(-1.51401 0.548565 6.4279e-21)
(-1.31318 -0.732544 -3.84508e-21)
(0.0910639 -0.0176962 0)
(-1.52969 0.5207 -6.19615e-21)
(0.0828914 -0.0214937 0)
(-1.30777 0.572641 0)
(-1.3193 -0.544459 0)
(0.0265763 -0.00843517 1.7263e-20)
(-1.54413 0.569915 9.80999e-21)
(-1.52111 0.566306 -1.80652e-20)
(-1.41248 -0.724076 5.41439e-21)
(-1.38421 -0.71055 -1.42985e-20)
(0.0988658 -0.00529201 2.30158e-20)
(0.097955 -0.0104116 -1.20985e-23)
(-1.26991 0.360552 0)
(-1.14723 -0.646146 -3.01173e-20)
(-0.110539 0.148674 2.40616e-20)
(-1.04049 0.375631 1.66516e-20)
(-1.06671 -0.449566 -2.1135e-20)
(-0.0668948 0.0192511 0)
(-1.37557 0.776212 0)
(0.0749171 0.00418068 0)
(-1.59292 -0.51155 5.23312e-21)
(-1.12255 0.365823 1.22166e-20)
(-1.05388 -0.509515 -1.31031e-20)
(-0.0907564 0.082211 -2.83671e-20)
(-0.909181 0.286522 7.20576e-21)
(-0.869699 -0.371176 -1.49695e-20)
(-0.156324 0.0539674 1.58594e-20)
(-1.35579 0.725524 0)
(0.0917464 0.0159808 0)
(-1.5419 -0.548753 -7.29215e-21)
(-1.19543 0.552808 0)
(-1.24539 -0.449591 3.60907e-21)
(-0.0182402 -0.0489744 -1.72213e-20)
(-1.06249 -0.77032 0)
(-1.337 0.184225 0)
(-0.40454 0.377874 -9.1572e-22)
(-0.90345 0.649591 -9.5648e-22)
(-1.20294 -0.125722 0)
(-0.467928 -0.405693 3.1703e-20)
(-1.32418 -0.862665 1.24863e-20)
(-0.0991621 0.147494 0)
(-1.56729 0.367238 0)
(0.0228025 -0.000149705 -3.24515e-20)
(-0.843125 -0.428222 1.13193e-21)
(-0.842535 0.426602 -1.14934e-21)
(-1.15422 0.436018 0)
(-1.12011 -0.485116 1.29392e-20)
(-0.0443861 0.0251185 -1.44387e-20)
(-1.42565 0.757863 1.30088e-20)
(0.0870387 -0.00477238 4.34733e-20)
(-1.58256 -0.542001 0)
(-0.664074 -0.551608 -8.45203e-21)
(-1.23795 -0.0378323 -1.29413e-20)
(-0.800171 0.633154 -8.43046e-21)
(-1.03674 0.609643 0)
(0.0551954 0.0283787 -1.20405e-20)
(-1.22526 -0.487816 0)
(-0.360965 0.237628 1.69378e-20)
(-0.389672 0.274221 -1.73184e-20)
(-0.688151 -0.393693 0)
(-0.911031 0.116083 1.5249e-20)
(-0.720369 -0.43813 -2.70332e-20)
(-0.960878 0.105953 -1.21489e-20)
(-0.829963 0.203412 1.69473e-20)
(-0.740421 -0.31863 1.7041e-20)
(-0.233537 0.100493 0)
(-0.489495 0.309374 1.5072e-20)
(-0.420551 0.264459 0)
(-0.571266 -0.349335 -1.5199e-20)
(-0.893397 0.0269308 1.35948e-20)
(-0.602288 -0.343445 1.53181e-20)
(-0.87108 0.0635086 1.29221e-22)
(-1.1014 0.416922 1.0513e-21)
(-1.00232 -0.440569 -9.29648e-21)
(-0.0986801 0.0441284 -1.94305e-20)
(-1.04875 0.352829 -2.85604e-20)
(-1.00019 -0.460466 2.44938e-22)
(-0.110089 0.0687828 0)
(0.0781266 -0.031144 0)
(-1.24506 -0.715251 0)
(-1.49289 0.504086 5.74108e-21)
(-0.816239 0.493084 -8.1461e-21)
(-1.02244 -0.155301 0)
(-0.336237 -0.259034 8.3913e-21)
(-1.53379 0.598902 -1.94593e-20)
(-1.4505 -0.71088 6.89549e-21)
(0.106565 0.00105396 -1.31324e-20)
(-1.36735 0.517879 0)
(-1.41164 0.537489 1.30036e-20)
(-1.32659 -0.620576 -3.90107e-21)
(-1.36671 -0.641449 1.18941e-20)
(0.0324925 0.0358155 -1.8944e-20)
(0.0476948 0.0327991 -1.74522e-20)
(-0.792137 0.453371 0)
(-0.977318 -0.16832 0)
(-0.308214 -0.226884 4.00824e-21)
(-1.0978 0.693181 9.30151e-21)
(-1.28259 -0.270693 0)
(-0.228197 -0.234162 1.00782e-20)
(-1.27302 0.499319 -6.9987e-21)
(-1.24915 -0.56412 0)
(0.00716254 0.027268 0)
(-0.519639 0.173072 1.71279e-20)
(-0.660004 -0.0604948 -8.3178e-21)
(-0.376288 -0.112364 8.67385e-21)
(-1.43189 0.493478 0)
(-1.34473 -0.688744 0)
(0.0232914 0.0608703 -2.80614e-20)
(-0.618528 0.300556 0)
(-0.349096 -0.178255 4.70847e-21)
(-0.801877 -0.101607 0)
(-1.2616 0.396547 -1.60209e-20)
(-1.16307 -0.613567 -1.68061e-20)
(-0.0666445 0.102595 -2.41188e-21)
(-1.09358 0.659419 9.43546e-21)
(-1.25649 -0.292966 0)
(-0.188576 -0.205486 2.08376e-20)
(-0.542497 0.21583 -1.69813e-20)
(-0.512895 0.220426 -7.54704e-21)
(-0.707102 -0.0751595 8.20081e-21)
(-0.369038 -0.139218 -1.72031e-20)
(-0.729939 -0.0463241 0)
(-0.408276 -0.17791 -3.05273e-20)
(-0.460812 0.2472 -7.56625e-21)
(-0.508343 -0.270949 1.99689e-20)
(-0.421677 0.244264 4.86597e-21)
(-0.800358 0.016742 -1.85724e-20)
(-0.586195 -0.321125 -9.63167e-21)
(-0.840434 0.057488 3.97931e-22)
(-0.91898 0.51271 8.8767e-21)
(-0.983857 0.524712 0)
(-1.06089 -0.243705 1.6186e-20)
(-1.0942 -0.287115 -1.26555e-20)
(-0.217861 -0.180535 -1.87473e-20)
(-0.165078 -0.143657 3.11963e-20)
(0.0308927 -0.0570876 0)
(-1.54022 -0.490635 -5.50996e-21)
(-1.39683 0.764812 -1.26521e-20)
(-0.445978 0.402363 1.11549e-20)
(-1.28241 0.153565 1.48489e-20)
(-0.995783 -0.726816 -2.82565e-20)
(0.0541749 -0.0397633 -1.47339e-20)
(0.0698704 -0.0305684 1.1792e-20)
(-1.55452 -0.520623 4.77105e-21)
(-1.53614 -0.544761 8.33166e-21)
(-1.41734 0.762566 3.20461e-20)
(-1.43306 0.736021 -1.6626e-20)
(-0.62589 0.498295 1.5618e-20)
(-0.740992 -0.559912 -1.35608e-20)
(-1.1518 0.0328733 3.50224e-21)
(-0.508904 0.099315 2.89888e-20)
(-0.396282 -0.0433804 0)
(-0.569613 -0.0537536 -2.8757e-20)
(-1.4452 0.5262 -6.11818e-21)
(-1.37556 -0.678854 -1.34417e-20)
(0.045238 0.0438265 0)
(-0.7153 0.408487 0)
(-0.357065 -0.250629 -3.81807e-21)
(-0.930444 -0.119301 -1.41924e-20)
(-1.13165 0.669133 0)
(-1.28339 -0.319567 0)
(-0.15362 -0.180027 -1.93906e-20)
(-1.34572 0.779679 -1.40295e-20)
(-1.34569 0.751045 0)
(-1.51112 -0.439938 3.12943e-21)
(-0.0252653 -0.0980605 -1.81726e-20)
(-1.4871 -0.453107 -8.5297e-21)
(-0.00899487 -0.0861878 2.46263e-20)
(-1.35269 0.566705 1.31123e-20)
(-1.35188 -0.574715 1.27442e-20)
(0.043654 0.00452596 1.02939e-20)
(-1.13535 0.627641 6.19169e-21)
(-1.29686 -0.517534 0)
(0.067239 0.0255286 -4.92054e-21)
(-0.702137 -0.567934 9.18093e-21)
(-1.2106 -0.00985056 1.05769e-20)
(-0.734508 0.584588 9.17822e-21)
(-0.84852 0.653932 9.56431e-21)