/*--------------------------------*- C++ -*----------------------------------*\
  =========                 |
  \\      /  F ield         | OpenFOAM: The Open Source CFD Toolbox
   \\    /   O peration     | Website:  https://openfoam.org
    \\  /    A nd           | Version:  6
     \\/     M anipulation  |
\*---------------------------------------------------------------------------*/
FoamFile
{
    version     2.0;
    format      ascii;
    class       volVectorField;
    location    "0";
    object      U;
}
// * * * * * * * * * * * * * * * * * * * * * * * * * * * * * * * * * * * * * //

dimensions      [0 1 -1 0 0 0 0];

internalField   nonuniform List<vector> 
13046
(
(0.391399 0.104216 0)
(0.57764 -0.20394 2.86692e-21)
(0.214403 -0.137474 6.39511e-21)
(0.393646 0.0285229 0)
(0.186604 -0.0700343 5.90274e-21)
(0.495635 -0.214434 0)
(0.428348 0.0489057 -8.76004e-22)
(0.542307 -0.24818 -1.4536e-21)
(0.160299 -0.0588478 6.47074e-21)
(0.844232 0.355538 -2.27985e-21)
(0.98536 -0.445192 0)
(-0.0209386 -0.0282661 -3.94947e-21)
(0.494335 0.142216 5.54764e-21)
(0.675723 -0.272473 4.22425e-21)
(0.13866 -0.104826 -3.47862e-21)
(0.791836 0.395801 -1.26309e-21)
(0.0205158 -0.0604303 -6.29694e-21)
(1.03369 -0.376565 -1.20855e-21)
(0.236941 -0.00317775 0)
(0.377321 -0.19174 3.17087e-21)
(0.422013 -0.0611433 -9.14912e-21)
(0.802986 0.388456 1.29031e-21)
(0.00896937 -0.0519814 1.26103e-20)
(1.02511 -0.392245 -3.30036e-22)
(0.3499 0.0389468 -3.71161e-21)
(0.489406 -0.175737 5.41265e-21)
(0.228972 -0.116814 0)
(0.499983 0.168999 -1.13068e-22)
(0.699289 -0.269165 -1.24885e-21)
(0.144464 -0.118751 1.20309e-20)
(0.393764 0.123782 0)
(0.600378 -0.192835 0)
(0.225506 -0.156345 -6.50837e-21)
(0.325448 0.0128143 1.30094e-20)
(0.251115 -0.116803 -2.19958e-21)
(0.445008 -0.149696 -8.38679e-21)
(0.330321 -0.00823428 2.37916e-23)
(0.253111 -0.0973532 0)
(0.418457 -0.146998 0)
(0.311452 0.126998 -4.68813e-21)
(0.37559 -0.270298 -5.80638e-21)
(0.589905 -0.110154 4.33503e-21)
(0.338015 -0.0674588 -2.97358e-21)
(0.286468 -0.0723294 3.03935e-21)
(0.340631 -0.116409 0)
(0.359943 -0.0597331 -1.91543e-21)
(0.258813 -0.0516548 0)
(0.355427 -0.140905 9.70694e-22)
(0.410813 0.100006 0)
(0.5864 -0.223775 2.04249e-22)
(0.182411 -0.117714 3.52157e-23)
(0.541431 -0.399364 -6.92764e-21)
(0.258991 0.144583 0)
(0.647613 -0.0381698 5.03495e-21)
(0.596593 -0.434222 9.86262e-21)
(0.658683 -0.0152875 5.47807e-21)
(0.228495 0.129669 -7.14525e-21)
(0.947061 -0.254315 7.85435e-22)
(0.647189 0.369536 0)
(0.18866 -0.196332 -5.25523e-21)
(0.655278 0.159268 2.63289e-21)
(0.789522 -0.415455 -2.35713e-21)
(0.0531873 -0.0176025 1.44417e-20)
(0.00277269 -0.0481116 -7.34079e-21)
(0.975615 -0.432504 1.12591e-21)
(0.802263 0.316381 3.95225e-21)
(0.611542 0.362277 0)
(0.915705 -0.221831 -3.79466e-21)
(0.234844 -0.236651 -1.52261e-21)
(0.581286 0.342125 1.99123e-21)
(0.885461 -0.210345 5.14239e-21)
(0.251473 -0.246535 2.07178e-21)
(0.97766 -0.261316 7.38785e-24)
(0.674536 0.387461 -6.71309e-23)
(0.172129 -0.189768 3.2539e-23)
(0.243392 0.016875 0)
(0.372149 -0.205835 -3.44973e-21)
(0.450429 -0.077752 6.471e-21)
(0.11461 -0.140805 -5.76307e-21)
(0.716946 0.395821 5.85865e-21)
(1.00634 -0.301304 1.58441e-21)
(0.373546 0.0482771 -1.95051e-21)
(0.508948 -0.195434 1.92672e-21)
(0.203602 -0.0982508 0)
(-0.0026555 -0.0451676 6.54043e-21)
(0.989162 -0.435392 0)
(0.819369 0.331937 -2.33328e-21)
(0.842007 0.251835 4.04668e-21)
(-0.00767073 -0.0168544 0)
(0.935932 -0.505169 9.17317e-22)
(0.0180255 0.0143245 0)
(0.904694 0.195715 0)
(0.903062 -0.582381 -1.1148e-22)
(0.657645 0.249246 5.20504e-21)
(0.693319 0.258412 -7.21379e-21)
(0.862979 -0.357196 -4.32483e-21)
(0.888189 -0.38381 2.0179e-21)
(0.0688928 -0.086032 3.06593e-21)
(0.0472082 -0.069539 -7.87591e-21)
(-0.000891252 -0.00933978 3.74372e-22)
(0.84073 0.231705 -3.95914e-21)
(0.919537 -0.52004 0)
(0.370244 -0.0376397 1.47754e-23)
(0.235161 -0.0515025 0)
(0.390942 -0.166865 0)
(0.173194 0.0769122 -1.29935e-20)
(0.590277 0.00951004 2.57527e-21)
(0.585156 -0.380839 0)
(0.256941 0.1246 -1.97706e-21)
(0.488671 -0.345703 0)
(0.603243 -0.0576235 9.82494e-21)
(0.797692 0.357865 0)
(-0.0237698 -0.0146255 5.34554e-21)
(0.890766 -0.426259 1.4047e-22)
(0.456585 0.12023 -3.8766e-21)
(0.637444 -0.252152 -1.86938e-21)
(0.152083 -0.101943 -6.29521e-21)
(0.692798 0.304336 -3.00874e-21)
(0.659123 0.276401 2.80833e-21)
(0.922104 -0.348299 -1.1097e-21)
(0.0750653 -0.101418 -3.50007e-21)
(0.882629 -0.338412 1.1576e-21)
(0.0834443 -0.103085 3.26966e-21)
(0.834428 0.36529 5.41475e-21)
(0.978852 -0.437695 8.12715e-22)
(-0.0211481 -0.0256441 1.76031e-21)
(0.583607 0.216718 0)
(0.790627 -0.315344 3.05102e-21)
(0.106087 -0.109716 -1.82705e-20)
(0.344833 0.141836 0)
(0.335634 -0.24818 5.84876e-21)
(0.609325 -0.135243 -2.33793e-22)
(0.0291671 0.0217541 0)
(0.878155 0.180102 0)
(0.892899 -0.57477 0)
(0.75818 0.264958 0)
(0.922371 -0.433659 5.17537e-21)
(0.0156514 -0.0445759 7.90791e-21)
(0.427981 0.144412 0)
(0.638854 -0.213132 0)
(0.209775 -0.160503 0)
(0.532093 0.0758991 0)
(0.636834 -0.339472 0)
(0.112549 -0.0128746 0)
(0.238955 0.121004 1.82946e-21)
(0.529737 -0.372079 0)
(0.612989 -0.0377299 -5.31748e-21)
(0.176148 0.0650774 1.25863e-20)
(0.570397 0.00415778 5.68098e-21)
(0.571274 -0.362826 -6.28123e-21)
(0.680809 0.178509 -5.99771e-21)
(0.818915 -0.424283 0)
(0.0412362 -0.027656 -1.87591e-20)
(0.164434 0.0167961 0)
(0.498674 0.00729538 -1.24471e-20)
(0.527992 -0.301715 -1.63332e-21)
(0.691103 -0.473814 -2.69819e-21)
(0.678901 0.0439048 -5.8041e-21)
(0.73533 -0.489165 0)
(0.697669 0.0737098 -3.35906e-21)
(0.155939 0.0904653 -6.11435e-21)
(0.122111 0.0693139 5.87325e-21)
(0.562374 0.0494437 -7.93383e-22)
(0.625452 -0.369231 -3.20425e-21)
(0.123987 0.0201645 3.62533e-21)
(0.862589 0.341005 2.32106e-21)
(-0.0243443 -0.0262128 -2.05764e-21)
(0.969316 -0.463254 1.47021e-21)
(0.813388 0.363784 1.4618e-21)
(-0.023348 -0.0175394 8.02755e-22)
(0.9327 -0.429462 0)
(0.767605 0.283461 -1.03851e-22)
(0.939118 -0.429267 0)
(0.013449 -0.0495819 -9.55135e-21)
(0.40316 0.204859 0)
(0.692467 -0.145745 -1.29671e-21)
(0.347718 -0.283012 -3.37119e-21)
(0.548642 0.0328446 -5.14652e-21)
(0.142288 0.0342021 0)
(0.593526 -0.350599 0)
(-0.0259828 -0.0226564 0)
(0.958021 -0.497989 0)
(0.883105 0.307109 -1.88947e-21)
(0.370206 0.181178 0)
(0.658212 -0.130778 2.89766e-21)
(0.361263 -0.277543 -8.77421e-22)
(0.15954 0.0303239 0)
(0.514892 0.00828605 0)
(0.536429 -0.31685 0)
(0.503365 0.0565589 -2.59574e-21)
(0.6018 -0.318758 0)
(0.124057 -0.0179354 0)
(0.718913 -0.312748 1.45954e-23)
(0.104728 -0.0814314 4.29053e-21)
(0.556429 0.193992 -8.04734e-21)
(0.759765 -0.303639 0)
(0.113488 -0.105102 1.88779e-20)
(0.846514 0.29492 4.60343e-21)
(-0.0141023 -0.0288836 -5.94223e-21)
(0.966273 -0.479782 3.94353e-21)
(0.018594 0.0107368 -5.47285e-21)
(0.845751 0.193994 -2.47814e-21)
(0.897468 -0.547681 -4.745e-21)
(0.889006 0.229651 6.5349e-21)
(0.924734 -0.545491 0)
(-0.00373564 -0.00229488 5.3614e-21)
(0.564601 -0.441645 2.77561e-21)
(0.705098 -0.0422037 -2.22183e-21)
(0.298921 0.192763 -6.00224e-21)
(0.485854 0.0946804 5.10093e-21)
(0.70516 0.405486 -3.03473e-21)
(0.13477 -0.156015 3.54651e-21)
(1.00966 -0.290288 -7.3811e-24)
(0.930679 -0.542814 0)
(0.900338 0.250255 1.83102e-21)
(-0.012716 -0.00936501 0)
(0.358142 -0.0112693 9.61885e-21)
(0.226875 -0.0711381 0)
(0.423497 -0.171443 -3.13253e-21)
(0.479009 0.174202 0)
(0.690873 -0.249159 1.806e-22)
(0.174438 -0.138758 -3.56666e-21)
(0.0283051 0.0195191 -4.21509e-21)
(0.854244 0.181771 0)
(0.88863 -0.562348 5.46683e-21)
(0.516624 0.115856 0)
(0.703151 -0.31995 -7.62293e-21)
(0.101749 -0.0690234 0)
(-0.0284591 -0.0210655 0)
(0.928625 -0.464206 -7.8014e-22)
(0.860258 0.341994 0)
(0.265367 0.17008 6.49467e-21)
(0.699987 -0.0241242 0)
(0.599451 -0.464127 0)
(0.862641 0.219424 -5.73325e-21)
(0.917711 -0.536388 0)
(0.00126473 -0.00224774 3.61797e-23)
(0.626663 0.0625059 -6.66033e-21)
(0.680783 -0.42864 -2.37443e-21)
(0.116259 0.0453238 8.30421e-21)
(0.580059 0.233469 0)
(0.79892 -0.301506 -2.85749e-21)
(0.122288 -0.123501 -1.89356e-21)
(0.838177 -0.577843 7.50259e-21)
(0.823262 0.119265 4.43915e-21)
(0.0874124 0.0628636 -3.31793e-21)
(0.734239 0.0832378 0)
(0.766974 -0.518265 3.16889e-21)
(0.117838 0.0724776 1.2103e-22)
(-0.0292458 -0.0205403 4.15306e-21)
(0.90488 -0.471024 0)
(0.867528 0.331082 1.42546e-21)
(0.313525 0.161507 -8.70997e-21)
(0.44474 -0.331552 4.18254e-21)
(0.638866 -0.0898099 4.16798e-22)
(0.731582 0.381489 -1.45003e-21)
(-0.0164832 -0.00946593 4.4268e-22)
(0.903065 -0.369873 0)
(0.216441 -0.0221336 -1.95772e-21)
(0.407948 -0.0390385 7.42325e-21)
(0.407074 -0.199328 -9.44722e-21)
(0.618571 0.0982912 -2.69772e-21)
(0.605489 0.0686992 -3.67981e-23)
(0.713452 -0.411371 5.80195e-21)
(0.673497 -0.40857 5.6816e-21)
(0.109287 0.0298905 -6.6045e-21)
(0.0838138 0.0104036 3.39949e-21)
(0.0902487 -0.120115 7.54358e-21)
(0.736827 0.401931 -3.12626e-21)
(1.02698 -0.313012 0)
(0.546623 0.226735 0)
(0.77423 -0.273201 0)
(0.156024 -0.144371 7.54215e-21)
(0.763395 0.107678 1.1853e-21)
(0.800799 -0.537702 0)
(0.0943667 0.0592017 0)
(0.727754 0.288385 -2.61226e-21)
(0.926389 -0.388522 0)
(0.0390674 -0.0717782 -3.45094e-21)
(0.314719 -0.0534644 -2.01921e-21)
(0.354575 -0.104589 -2.90374e-21)
(0.296347 -0.0924988 1.0123e-21)
(0.675331 0.0860084 4.27361e-21)
(0.735399 -0.467796 0)
(0.101258 0.0482848 5.65208e-21)
(0.552697 0.244404 0)
(0.792621 -0.265928 -3.53814e-21)
(0.166189 -0.158092 4.78581e-21)
(0.528732 0.14042 -8.26709e-21)
(0.562863 0.159541 6.65701e-21)
(0.321962 0.174613 6.89125e-21)
(0.456223 -0.347947 -1.20884e-20)
(0.656419 -0.0850488 9.12237e-21)
(0.695557 0.110722 4.40994e-21)
(0.768208 -0.47765 -4.79013e-21)
(0.0766598 0.0320945 -5.15604e-21)
(0.752653 0.295216 9.59072e-21)
(0.0247555 -0.0611213 1.22333e-20)
(0.944217 -0.406564 2.40069e-21)
(0.258076 0.110277 3.03367e-21)
(0.463611 -0.326434 0)
(0.584377 -0.0617536 -3.30159e-21)
(0.173041 0.10878 6.62478e-21)
(0.697975 0.0369445 3.29367e-21)
(0.691964 -0.49365 0)
(0.640722 0.304471 9.76374e-22)
(0.893036 -0.296826 2.9198e-21)
(0.128917 -0.142159 -2.1582e-21)
(0.290239 0.166046 -5.63177e-22)
(0.516913 -0.389443 0)
(0.661914 -0.0540208 -6.97157e-21)
(0.669993 0.324402 0)
(0.692432 0.325876 0)
(0.92583 -0.310747 1.79206e-21)
(0.114315 -0.13349 5.63362e-21)
(0.938599 -0.334498 -2.52973e-21)
(0.0892565 -0.113289 -5.96602e-21)
(-0.0222838 -0.0265113 4.57753e-21)
(0.968544 -0.484152 0)
(0.869248 0.315221 2.81985e-21)
(0.625551 0.265825 0)
(0.852786 -0.317498 1.38369e-21)
(0.106976 -0.118847 -1.95809e-21)
(0.779847 -0.385418 4.78562e-22)
(-0.0177342 -0.00785674 -6.58212e-21)
(0.707701 0.344942 -2.57683e-21)
(0.468628 -0.0213747 1.00774e-20)
(0.189261 0.0140183 0)
(0.46927 -0.261971 3.42714e-21)
(0.61344 0.143694 -6.25721e-21)
(0.753455 -0.386198 0)
(0.0649976 -0.0272183 -1.11161e-20)
(-0.00615906 -0.0348755 3.79376e-21)
(0.82025 0.28801 -8.48946e-21)
(0.957233 -0.464117 -3.20398e-21)
(0.6164 -0.453839 3.59279e-21)
(0.676514 -0.00828278 0)
(0.226565 0.141022 8.09826e-21)
(0.856722 -0.575111 8.74015e-21)
(0.835239 0.141674 2.69194e-21)
(0.0629864 0.044351 0)
(0.64565 -0.293221 4.04305e-21)
(0.12148 -0.0647018 0)
(0.630195 0.188881 -6.72894e-21)
(0.793037 -0.369951 -2.61722e-21)
(0.0625801 -0.0601997 -3.38001e-21)
(0.635935 -0.307921 -1.38924e-22)
(0.115033 -0.0496484 -1.26676e-23)
(0.783381 0.386467 6.42108e-21)
(0.0317208 -0.0712421 -8.88395e-21)
(1.02762 -0.368806 1.77671e-21)
(0.550832 -0.452176 -3.61187e-21)
(0.730782 -0.0550125 -6.87379e-22)
(0.33061 0.217256 0)
(0.660766 0.207272 6.85428e-21)
(0.831756 -0.386955 3.19186e-21)
(0.0491243 -0.0532871 8.19385e-21)
(0.550978 0.0716297 0)
(0.639732 -0.359194 2.34876e-21)
(0.110656 0.00142243 0)
(0.605987 -0.010058 3.28187e-21)
(0.565761 -0.390154 0)
(0.203684 0.0972798 0)
(0.400957 0.0754313 2.70278e-21)
(0.553593 -0.218478 4.49443e-21)
(0.184807 -0.103642 -2.75322e-24)
(0.200736 0.128293 -8.21816e-21)
(0.694616 0.0170365 -7.99217e-21)
(0.663832 -0.482312 -9.62976e-21)
(0.863974 0.272177 3.41854e-21)
(0.950004 -0.501891 -3.31648e-21)
(-0.015333 -0.0207698 -8.95098e-23)
(0.864075 -0.558698 -5.97158e-21)
(0.824248 0.153329 -2.72822e-21)
(0.0492589 0.033507 -4.24479e-21)
(0.516625 0.308948 6.14006e-21)
(0.319384 -0.290357 -3.07953e-21)
(0.830321 -0.173323 0)
(0.704037 0.367282 -1.70779e-21)
(0.680591 0.351237 1.58147e-21)
(0.951941 -0.297732 5.65752e-22)
(0.977939 -0.306908 -2.22926e-21)
(0.112524 -0.135813 2.03715e-21)
(0.128139 -0.147971 1.8211e-21)
(-0.0188107 -0.00771611 6.68841e-21)
(0.819975 -0.381263 -5.27025e-22)
(0.720364 0.351601 -9.84393e-22)
(0.74506 0.387468 1.01516e-22)
(-0.0148791 -0.0129295 0)
(0.935912 -0.372103 0)
(0.651976 0.117004 9.9459e-21)
(0.753669 -0.431859 1.25238e-21)
(0.0734506 0.010385 0)
(-0.0169492 -0.0304221 1.1438e-20)
(0.852612 0.309207 -3.54878e-21)
(0.975197 -0.474566 0)
(0.588145 0.316765 -8.74237e-21)
(0.61793 0.326317 6.52369e-21)
(0.869658 -0.241021 -3.18641e-21)
(0.894225 -0.260094 -1.1962e-21)
(0.212992 -0.207875 3.59344e-21)
(0.180422 -0.183455 1.80473e-21)
(-0.0178728 -0.0125839 0)
(0.909097 -0.547539 0)
(0.930032 0.250417 -9.5008e-22)
(0.684078 0.377634 1.70287e-21)
(-0.0150532 -0.00506067 -4.13883e-21)
(0.869886 -0.346043 0)
(0.409017 -0.0913383 5.50559e-25)
(0.268784 -0.00795953 -4.33133e-21)
(0.324629 -0.155238 -2.12242e-21)
(0.754216 0.363655 2.6762e-21)
(0.877852 -0.400525 -2.0549e-22)
(-0.0206393 -0.0106341 -8.3091e-21)
(0.4485 0.219942 -7.58306e-21)
(0.720183 -0.178777 5.84091e-21)
(0.291975 -0.245566 4.71659e-23)
(0.889963 0.294882 -7.99798e-23)
(0.952032 -0.509093 -4.14148e-21)
(-0.0239353 -0.0203999 2.33822e-21)
(0.682201 -0.39014 4.82395e-24)
(-0.0162741 -0.011408 7.60872e-21)
(0.691796 0.28745 7.55068e-22)
(0.280393 0.100417 4.04526e-21)
(0.387588 -0.26166 2.49751e-22)
(0.554286 -0.0937928 -1.06595e-20)
(0.420409 -0.0149139 0)
(0.454124 -0.224618 1.04581e-20)
(0.193768 -0.0240778 -5.43574e-21)
(0.81907 0.37939 -5.51374e-21)
(-0.0167979 -0.026898 -5.24467e-21)
(0.98802 -0.423194 5.79687e-23)
(0.441452 -0.00436601 0)
(0.47657 -0.244327 3.59808e-21)
(0.178756 -0.00928488 7.69705e-21)
(0.385751 -0.0876533 -4.36975e-21)
(0.274913 -0.0267224 4.57503e-21)
(0.322397 -0.138147 -1.12613e-21)
(0.252122 0.16989 3.95027e-21)
(0.723715 -0.00726506 2.77157e-21)
(0.644319 -0.50136 -5.26748e-21)
(0.463719 -0.0615137 0)
(0.399793 -0.22383 0)
(0.226422 0.0308954 -6.42549e-22)
(0.477625 -0.0359423 -5.42436e-21)
(0.445369 -0.250344 -2.78894e-21)
(0.2085 0.0303552 -9.0815e-23)
(0.484035 0.291013 -9.34185e-21)
(0.800158 -0.154727 4.31887e-21)
(0.356128 -0.319305 6.18161e-21)
(-0.00770618 -0.0392423 -7.9434e-21)
(-0.0139604 -0.0353599 8.0995e-21)
(1.00829 -0.426417 -1.03143e-21)
(0.997817 -0.439987 -7.74137e-22)
(0.826286 0.369249 -4.85079e-21)
(0.837617 0.359314 7.26491e-21)
(0.881534 0.275997 -4.24208e-21)
(0.949813 -0.510138 2.71694e-21)
(-0.018873 -0.0177562 0)
(0.306871 -0.291762 -4.00012e-21)
(0.545529 0.335706 -1.91957e-21)
(0.862926 -0.180923 0)
(0.332969 0.161227 0)
(0.401202 -0.301281 3.82803e-21)
(0.635515 -0.108343 -3.25574e-21)
(0.752206 0.066199 0)
(0.758498 -0.539467 -3.27922e-21)
(0.146262 0.096284 -1.25201e-22)
(0.764253 -0.45299 -5.67391e-22)
(-0.0250871 -0.0202218 0)
(0.822519 0.287659 2.41707e-21)
(0.00489961 0.0050096 0)
(0.908835 0.214523 0)
(0.910336 -0.572424 -1.93417e-21)
(0.835964 0.356527 -1.78663e-21)
(-0.0255324 -0.0207386 0)
(0.945059 -0.446366 7.65632e-22)
(-0.012911 -0.00785946 2.82484e-32)
(0.637263 -0.36193 -4.7279e-22)
(0.634907 0.277498 -7.2736e-22)
(0.666893 -0.317634 5.50485e-22)
(-0.0117527 -0.00246491 -2.81815e-32)
(0.600584 0.318042 6.59774e-22)
(0.832284 -0.474416 6.33628e-21)
(0.728631 0.163974 0)
(0.0417408 0.00258897 1.09105e-20)
(0.866199 -0.518174 4.71854e-22)
(-0.0260816 -0.020666 0)
(0.924477 0.271695 0)
(0.778587 0.258797 4.2466e-21)
(0.92327 -0.453775 -3.17718e-21)
(0.008259 -0.0355046 -5.6196e-21)
(0.774233 0.416343 -6.23646e-21)
(0.0171404 -0.050489 -3.16064e-21)
(1.04388 -0.353342 0)
(0.460721 0.0988658 -2.06984e-21)
(0.139817 -0.0779639 2.14925e-21)
(0.6242 -0.270494 -1.9539e-21)
(0.913114 -0.5577 0)
(-0.0120144 -0.00755446 -3.89732e-21)
(0.926421 0.239706 -1.16095e-21)
(0.736528 0.0504543 3.22314e-21)
(0.167269 0.111369 2.24316e-21)
(0.732205 -0.526719 0)
(0.8141 -0.529286 0)
(0.762115 0.124693 0)
(0.0732293 0.0445141 -3.98059e-21)
(-0.00347938 -0.000379835 0)
(0.376024 -0.188457 -9.7242e-22)
(0.362772 0.172422 -1.188e-22)
(0.772717 -0.407235 -9.96785e-23)
(-0.019565 -0.0109324 4.59564e-21)
(0.734318 0.330669 1.24966e-21)
(0.431854 0.0760616 5.37463e-21)
(0.157537 -0.0798812 -5.14299e-21)
(0.577879 -0.249745 -2.28016e-21)
(0.925273 -0.523834 -3.17774e-21)
(0.914688 0.278436 1.95008e-21)
(-0.0245342 -0.01743 0)
(-0.0188948 -0.0139227 4.06421e-21)
(0.940377 0.251132 0)
(0.889641 -0.547947 2.43368e-21)
(0.837352 0.328907 2.58556e-21)
(-0.0114566 -0.0369248 -1.22136e-20)
(0.987046 -0.451352 -3.49057e-21)
(0.0607328 -0.0947388 9.11764e-21)
(1.01645 -0.345327 -2.3039e-21)
(0.755566 0.383186 0)
(0.466462 0.296052 1.18018e-20)
(0.798864 -0.138236 -5.50425e-21)
(0.399675 -0.354945 5.84694e-21)
(0.934791 -0.274558 -8.36177e-22)
(0.652181 0.353188 -3.77016e-21)
(0.165559 -0.177216 5.61277e-21)
(0.0559057 -0.090533 8.15407e-21)
(0.761546 0.411186 0)
(1.04649 -0.335563 1.2697e-21)
(0.477065 0.211274 1.91105e-21)
(0.516415 0.235436 0)
(0.723607 -0.21553 6.10912e-21)
(0.766949 -0.235556 -6.53253e-21)
(0.228826 -0.191381 -3.9585e-21)
(0.20651 -0.185129 0)
(0.445866 0.204616 1.86639e-21)
(0.704137 -0.190381 0)
(0.267887 -0.219639 -1.86181e-21)
(0.576552 0.32695 0)
(0.870132 -0.225137 5.14784e-21)
(0.239152 -0.230966 -1.2962e-21)
(0.848215 -0.54272 3.0477e-21)
(0.799173 0.1454 -2.93065e-21)
(0.0533123 0.0320038 8.68272e-21)
(0.937898 -0.532467 0)
(0.892498 0.265773 -6.60363e-22)
(-0.0180919 -0.0139059 0)
(0.0261097 0.0105482 2.80383e-21)
(0.813181 0.182311 1.80406e-21)
(0.881068 -0.530989 1.94986e-21)
(0.718445 -0.326401 -9.95579e-23)
(-0.0132998 -0.00219839 -5.84647e-24)
(0.629108 0.33597 0)
(0.335883 0.114727 -3.70657e-21)
(0.346357 0.105596 0)
(0.304299 -0.208808 9.28787e-22)
(0.573423 -0.142555 -1.27861e-20)
(0.277253 -0.186301 -1.17536e-21)
(0.565658 -0.159276 8.18212e-21)
(0.520276 0.288378 0)
(0.478535 0.261773 1.20881e-21)
(0.305217 -0.266298 -1.72859e-23)
(0.811297 -0.19901 -3.44212e-21)
(0.277216 -0.248022 -9.46401e-21)
(0.770619 -0.17912 7.40671e-21)
(0.669431 -0.406679 0)
(-0.0183853 -0.0154685 -8.3124e-21)
(0.726854 0.275601 0)
(0.934132 -0.519859 2.09508e-21)
(0.906235 0.278923 -6.4921e-22)
(-0.0237308 -0.0181317 -2.45437e-21)
(0.357042 0.197144 2.25691e-21)
(0.439525 -0.348891 4.30265e-21)
(0.684012 -0.101195 -1.02435e-20)
(0.813165 -0.561465 -6.74646e-21)
(0.793265 0.103507 -7.46473e-21)
(0.101765 0.0707615 0)
(0.0764468 -0.108579 -9.75048e-21)
(1.00858 -0.333641 2.45077e-21)
(0.741688 0.381737 0)
(0.855941 -0.443628 0)
(0.81781 0.336817 0)
(-0.0257236 -0.0161954 0)
(0.871086 -0.462457 0)
(0.846759 0.326957 -2.64231e-21)
(-0.0283608 -0.0190142 0)
(0.61732 0.308791 3.64978e-21)
(0.880344 -0.276184 -1.81227e-21)
(0.160256 -0.165446 -2.67126e-21)
(0.23707 0.0929467 1.06714e-21)
(0.472679 -0.316345 0)
(0.562118 -0.0477852 -3.56272e-21)
(0.844422 0.340522 -3.01256e-21)
(-0.0147515 -0.0344675 -7.08184e-21)
(0.993644 -0.450345 4.96801e-21)
(0.84489 -0.496628 0)
(0.754856 0.167418 0)
(0.0382664 0.0111861 -9.41445e-21)
(0.0191572 -0.0605888 -2.33875e-21)
(0.9693 -0.410056 -4.02396e-21)
(0.775018 0.320733 -8.78493e-21)
(0.453988 0.252855 -1.23138e-21)
(0.339052 -0.290642 6.34879e-21)
(0.75314 -0.162001 -3.84857e-21)
(0.618605 0.0398544 6.44906e-21)
(0.645399 -0.416404 -3.51463e-21)
(0.145637 0.0639642 -8.10702e-21)
(0.303491 0.132699 -6.84236e-23)
(0.406891 -0.295229 1.27229e-21)
(0.601109 -0.0978414 4.26466e-21)
(-0.0213492 -0.0284376 2.76035e-21)
(0.979208 -0.469203 -1.97841e-21)
(0.861283 0.331415 -3.12202e-21)
(0.723343 0.310507 1.65903e-21)
(0.942402 -0.371362 1.31377e-21)
(0.052995 -0.0849237 0)
(0.290083 0.0927843 4.01952e-21)
(0.35531 -0.233964 -8.11143e-21)
(0.542971 -0.108214 7.044e-21)
(0.766027 0.419075 -2.54552e-21)
(0.0435833 -0.07782 -3.59762e-21)
(1.0545 -0.338535 -1.37744e-22)
(0.422984 0.161612 2.32687e-21)
(0.651847 -0.201222 0)
(0.233987 -0.182434 0)
(0.490211 0.0336291 9.59142e-21)
(0.556658 -0.300032 -2.19597e-21)
(0.143137 -0.00362766 0)
(0.806342 -0.502498 0)
(0.735088 0.125962 -6.30271e-21)
(0.0664927 0.034529 4.16939e-21)
(0.763491 0.400912 0)
(-0.0073945 -0.023651 1.11113e-21)
(0.993973 -0.371474 -3.9297e-22)
(0.759783 0.409932 -2.29625e-21)
(-0.000181304 -0.029815 -3.53859e-21)
(1.01325 -0.359013 7.58037e-22)
(0.0271035 -0.0682907 -2.12193e-21)
(0.981489 -0.395417 2.20323e-21)
(0.771472 0.33579 8.08951e-21)
(0.645729 0.0279288 2.89032e-21)
(0.656351 -0.444789 7.06384e-21)
(0.165766 0.0843734 0)
(-0.0102579 -0.0150457 -1.01782e-21)
(0.959792 -0.360021 3.71116e-22)
(0.730249 0.39559 0)
(-0.00132005 -0.0308168 0)
(0.93962 -0.469032 2.35448e-21)
(0.808072 0.267828 9.91453e-22)
(-0.0096856 -0.00758565 -4.15775e-21)
(0.537785 -0.332205 2.7846e-22)
(0.567754 0.23039 0)
(0.507846 0.295629 9.24624e-22)
(0.590274 -0.260395 0)
(-0.00855625 0.0010372 -4.15238e-21)
(0.0501129 -0.085492 8.51894e-24)
(1.03422 -0.349712 2.40646e-22)
(0.766627 0.398256 0)
(-0.0278225 -0.0232131 0)
(0.951865 -0.474856 0)
(0.872609 0.333064 -3.83021e-21)
(0.814996 0.366208 2.74129e-21)
(0.807017 0.354546 -2.21762e-21)
(0.00257883 -0.0492151 3.99043e-21)
(1.01579 -0.410618 3.69606e-22)
(0.00620216 -0.0530586 0)
(1.00515 -0.412652 0)
(0.813866 0.251338 -1.93727e-21)
(0.929087 -0.484708 -1.62263e-21)
(-0.00137228 -0.0231814 0)
(0.135575 0.0957541 0)
(0.784258 -0.56444 0)
(0.783798 0.079398 0)
(0.343858 0.0737775 -5.02966e-21)
(0.250821 -0.151497 1.13193e-20)
(0.527389 -0.166917 -4.51553e-21)
(0.800753 0.208336 -5.58333e-21)
(0.894109 -0.505522 -6.52234e-22)
(0.0120616 -0.00582202 -8.24854e-21)
(0.0232141 0.00378 -5.36679e-21)
(0.793105 0.190462 7.7645e-21)
(0.877069 -0.512643 9.04358e-22)
(0.745157 0.417732 -3.06997e-21)
(0.0800491 -0.111529 -3.89648e-21)
(1.0457 -0.314393 0)
(0.533848 0.304528 0)
(0.832576 -0.198931 -1.53122e-21)
(0.278532 -0.255926 9.27724e-21)
(0.479102 0.242278 0)
(0.75234 -0.190704 -7.66887e-21)
(0.279357 -0.243589 1.33616e-23)
(0.719325 0.193275 7.6172e-21)
(0.850904 -0.451167 -8.56577e-22)
(0.0294178 -0.0210576 4.75191e-21)
(0.738856 0.189563 0)
(0.855842 -0.468485 -8.1316e-22)
(0.0277656 -0.0119475 -4.35282e-21)
(0.272092 0.069433 0)
(0.358427 -0.222569 1.27858e-20)
(0.510477 -0.0984252 0)
(0.527186 0.251566 0)
(0.783744 -0.233094 4.17559e-21)
(0.211852 -0.196756 -1.41948e-21)
(-0.00350648 -0.00110732 8.43883e-21)
(0.902127 -0.570633 4.27078e-21)
(0.932526 0.224505 0)
(0.865386 0.309796 5.45351e-23)
(-0.0284727 -0.0205414 -2.5585e-21)
(0.841025 -0.474204 -4.65109e-22)
(0.858423 0.292117 1.58285e-22)
(-0.0271853 -0.0213724 0)
(0.806523 -0.4712 1.22862e-21)
(0.376291 0.168974 -2.7512e-21)
(0.327088 -0.248087 1.37613e-21)
(0.645018 -0.149022 1.35615e-22)
(0.801964 -0.428459 -1.70214e-22)
(-0.0234619 -0.0150649 -1.05499e-20)
(0.791621 0.324151 0)
(0.747384 0.333828 -7.07145e-21)
(0.0455738 -0.0813405 0)
(0.970262 -0.375546 0)
(-0.0229741 -0.0173651 4.1873e-21)
(0.755905 -0.437907 2.99352e-22)
(0.789221 0.297266 -1.78858e-21)
(0.391355 0.00797154 -6.68614e-21)
(0.197562 -0.0553239 -6.91446e-21)
(0.465396 -0.204799 -2.6916e-23)
(0.580046 0.185121 1.17416e-21)
(0.766042 -0.330121 9.86847e-22)
(0.0921302 -0.083104 4.338e-21)
(0.614054 -0.428811 -8.14888e-21)
(0.638559 0.00561406 -1.04551e-20)
(0.195676 0.10252 0)
(-0.0251872 -0.0188863 0)
(0.887897 -0.525194 6.73168e-22)
(0.926947 0.272366 0)
(0.83246 -0.509069 0)
(0.757622 0.152191 0)
(0.0482368 0.021534 0)
(0.025634 -0.0617746 0)
(0.779544 0.41169 2.25454e-21)
(1.04798 -0.355779 -1.159e-21)
(0.618248 0.203319 0)
(0.799366 -0.353263 -5.08582e-22)
(0.0741042 -0.0741952 -4.80311e-24)
(0.333441 0.0557764 4.85928e-21)
(0.253119 -0.142462 -9.72653e-21)
(0.501269 -0.160202 0)
(0.914561 -0.51619 3.00394e-21)
(0.910479 0.291404 -1.85258e-21)
(-0.0275797 -0.0197875 0)
(0.000547044 -0.0428916 4.86584e-21)
(0.959907 -0.447242 -1.47304e-22)
(0.80214 0.299718 -1.8424e-22)
(0.797059 0.384148 0)
(0.786806 0.382765 -2.04633e-21)
(-0.0156449 -0.0218521 -2.55858e-21)
(-0.0180551 -0.017724 3.1673e-21)
(0.976291 -0.401612 3.66259e-22)
(0.954831 -0.402878 -3.01216e-22)
(0.591073 0.102743 0)
(0.697134 -0.388237 -6.73652e-21)
(0.0870531 -0.00382871 -5.31547e-21)
(0.800435 -0.456158 -8.92419e-21)
(0.697086 0.144164 0)
(0.0520061 0.00625353 5.78927e-21)
(0.450473 0.0466766 5.45248e-21)
(0.551614 -0.267791 -3.72797e-21)
(0.14543 -0.0400942 -8.43849e-21)
(0.869588 -0.495038 -1.38956e-21)
(0.893112 0.301183 -2.00873e-21)
(0.854905 -0.504248 5.94979e-22)
(-0.0292701 -0.0213861 2.71005e-21)
(0.904982 0.285094 1.88411e-21)
(-0.0278405 -0.0217845 0)
(0.695162 0.241554 0)
(0.872816 -0.3985 0)
(0.0408175 -0.0588751 -5.3479e-21)
(0.898488 0.304922 -2.20943e-21)
(0.892116 0.308816 5.62591e-21)
(0.920432 -0.501629 -9.05583e-22)
(0.900979 -0.492133 2.58669e-21)
(-0.0294582 -0.0212619 -7.16378e-21)
(-0.0299265 -0.0211832 1.10333e-23)
(0.678754 0.127182 0)
(0.772206 -0.457564 8.53038e-21)
(0.0691974 0.0203291 -7.50668e-21)
(0.544009 0.122951 -5.1039e-21)
(0.720394 -0.343724 6.04627e-21)
(0.0845107 -0.0530639 0)
(0.780178 0.409568 0)
(0.0054336 -0.0401987 -4.8999e-22)
(1.03 -0.368819 -7.28216e-22)
(0.590307 0.121811 -3.76287e-21)
(0.715279 -0.377353 0)
(0.0778242 -0.0183389 8.78168e-21)
(0.480899 0.0714434 -2.21401e-21)
(0.601918 -0.297842 4.37524e-21)
(0.12503 -0.0408327 -4.88331e-21)
(0.783793 0.392589 0)
(-0.0100076 -0.0252203 0)
(0.996803 -0.390055 1.068e-21)
(0.625286 0.224711 0)
(0.826675 -0.343513 -1.00056e-21)
(0.0768143 -0.0870533 5.30101e-21)
(0.717616 -0.534491 0)
(0.744774 0.035704 0)
(0.194612 0.133452 2.88428e-22)
(0.454095 0.264281 3.02241e-22)
(0.764468 -0.150085 0)
(0.360987 -0.312896 -4.85836e-21)
(0.874351 -0.587826 -3.3443e-21)
(0.0500659 0.0372231 0)
(0.86946 0.158012 0)
(-0.00671769 -0.00198784 9.98996e-21)
(0.500587 -0.254893 1.36188e-21)
(0.478794 0.228891 1.6638e-22)
(0.603183 0.15955 0)
(0.753452 -0.364708 -3.70563e-21)
(0.0701993 -0.0475394 0)
(0.804535 0.391164 -4.29776e-21)
(0.00164223 -0.0433566 -1.34322e-20)
(1.02605 -0.391311 2.31905e-21)
(0.476468 -0.404538 0)
(0.760048 -0.0975641 3.71827e-21)
(0.397671 0.25616 0)
(0.608624 0.348331 0)
(-0.0133583 0.000180177 2.45585e-21)
(0.759021 -0.315443 0)
(0.190924 0.0509359 -5.25253e-21)
(0.200222 0.0700766 5.36897e-21)
(0.497018 -0.307816 0)
(0.523054 -0.020497 -4.53776e-21)
(0.51627 -0.333935 8.07998e-21)
(0.552647 -0.0236557 3.61143e-21)
(0.455651 0.0254673 -5.13341e-21)
(0.524068 -0.265785 -5.05007e-21)
(0.15611 -0.0199519 0)
(0.249425 0.0853264 -4.66103e-21)
(0.220014 0.0627813 0)
(0.426924 -0.280396 0)
(0.541479 -0.0692883 0)
(0.445163 -0.27805 4.70799e-21)
(0.517444 -0.0492517 -2.74803e-23)
(0.573532 0.147169 -3.22014e-22)
(0.682306 -0.337013 2.68608e-21)
(0.0950128 -0.0415661 6.00523e-21)
(0.551306 0.110606 8.78951e-21)
(0.68201 -0.348522 0)
(0.0937342 -0.0283305 0)
(-0.0269242 -0.0227796 0)
(0.810454 -0.491337 0)
(0.888079 0.279323 -1.67404e-21)
(0.409982 0.179634 7.57471e-21)
(0.665298 -0.172419 0)
(0.285401 -0.222689 -2.54699e-21)
(0.886328 0.315111 5.20749e-21)
(0.945234 -0.493882 -1.33321e-21)
(-0.028796 -0.0222078 4.08866e-21)
(0.733436 0.219814 0)
(0.76264 0.235332 -4.08856e-21)
(0.877785 -0.443582 1.06805e-21)
(0.901641 -0.455968 -3.14179e-21)
(0.0211366 -0.0306271 5.88034e-21)
(0.0124216 -0.0294302 5.42344e-21)
(0.399441 0.158327 0)
(0.640162 -0.179711 0)
(0.267194 -0.20375 -1.21675e-21)
(0.564744 0.29259 -2.93573e-21)
(0.836343 -0.236398 0)
(0.216765 -0.205132 -3.09379e-21)
(0.675023 0.200938 2.18024e-21)
(0.831889 -0.409603 0)
(0.0399949 -0.0405008 -5.41621e-21)
(0.293347 0.0103821 -5.23874e-21)
(0.435572 -0.121041 -2.51237e-21)
(0.289304 -0.14399 -2.62111e-21)
(0.776262 0.212634 0)
(0.888639 -0.484204 0)
(0.0142414 -0.0133937 8.77132e-21)
(0.320927 0.0773917 0)
(0.286375 -0.178471 -1.42192e-21)
(0.5257 -0.144055 0)
(0.670564 0.143043 4.92043e-21)
(0.780883 -0.439613 4.75192e-21)
(0.0577274 -0.00314427 7.52863e-22)
(0.562842 0.274478 -2.97601e-21)
(0.822359 -0.249267 -4.75802e-21)
(0.193213 -0.186793 0)
(0.296499 0.0330536 5.19117e-21)
(0.278486 0.03591 2.31629e-21)
(0.464654 -0.128771 -2.44276e-21)
(0.290442 -0.158454 5.1992e-21)
(0.468697 -0.112604 0)
(0.319134 -0.181217 9.22264e-21)
(0.244262 0.0516947 2.33276e-21)
(0.386325 -0.234984 -5.94739e-21)
(0.224495 0.0513603 -1.50091e-21)
(0.492466 -0.0761621 0)
(0.434206 -0.264779 -3.02536e-21)
(0.502386 -0.0543957 5.19316e-21)
(0.466674 0.191582 -2.75554e-21)
(0.501771 0.200314 0)
(0.701318 -0.222842 -4.63488e-21)
(0.726755 -0.24892 3.61824e-21)
(0.211352 -0.173729 1.14485e-20)
(0.177459 -0.150278 -9.52676e-21)
(0.0485432 -0.0855457 0)
(1.00247 -0.362834 1.30743e-21)
(0.759696 0.365474 4.10279e-21)
(0.21569 0.143801 -9.76858e-21)
(0.721097 0.0153118 -4.36972e-21)
(0.678263 -0.508183 8.2699e-21)
(0.03168 -0.0722656 4.55953e-21)
(0.0208672 -0.0645844 0)
(1.01159 -0.379846 -1.13099e-21)
(1.00094 -0.396236 -2.01435e-21)
(0.778791 0.371129 -1.03977e-20)
(0.787864 0.355966 5.3883e-21)
(0.307756 0.185856 0)
(0.525769 -0.407058 4.64688e-21)
(0.685573 -0.0588801 -1.01225e-21)
(0.308022 -0.0298924 -1.10214e-20)
(0.285054 -0.106052 0)
(0.384587 -0.115636 8.61016e-21)
(0.78556 0.232886 1.92132e-21)
(0.906963 -0.477586 3.54689e-21)
(0.0076446 -0.0210922 0)
(0.359669 0.134624 0)
(0.297217 -0.219209 1.15923e-21)
(0.603138 -0.152915 4.12829e-21)
(0.585346 0.281722 0)
(0.841271 -0.265038 0)
(0.17151 -0.170291 7.44327e-22)
(0.722806 0.362732 0)
(0.721108 0.346763 0)
(0.983578 -0.332491 -7.88534e-22)
(0.0864341 -0.115005 5.62272e-21)
(0.969933 -0.342062 2.14456e-21)
(0.0769284 -0.106371 -7.61564e-21)
(0.723738 0.244945 -4.10012e-21)
(0.892405 -0.416887 -3.39087e-21)
(0.0264061 -0.0484633 -2.55853e-21)
(0.668383 0.358435 -1.93158e-21)
(0.816127 -0.346169 0)
(-0.0158356 -0.00368257 3.02972e-21)
(0.500823 -0.414057 0)