/*--------------------------------*- C++ -*----------------------------------*\
  =========                 |
  \\      /  F ield         | OpenFOAM: The Open Source CFD Toolbox
   \\    /   O peration     | Website:  https://openfoam.org
    \\  /    A nd           | Version:  6
     \\/     M anipulation  |
\*---------------------------------------------------------------------------*/
FoamFile
{
    version     2.0;
    format      ascii;
    class       volScalarField;
    location    "./ITHACAoutput/Offline/1";
    object      P_rec;
}
// * * * * * * * * * * * * * * * * * * * * * * * * * * * * * * * * * * * * * //

dimensions      [0 2 -2 0 0 0 0];

internalField   nonuniform List<scalar> 
40000
(
0.024345
0.0243453
0.0243445
0.024342
0.024338
0.0243326
0.0243261
0.0243188
0.0243108
0.0243025
0.0242937
0.0242848
0.0242759
0.0242669
0.024258
0.0242493
0.0242407
0.0242323
0.0242241
0.0242161
0.0242083
0.0242007
0.0241933
0.0241862
0.0241793
0.0241725
0.0241659
0.0241595
0.0241532
0.0241471
0.0241411
0.0241353
0.0241296
0.024124
0.0241185
0.0241131
0.0241079
0.0241028
0.0240979
0.0240931
0.0240884
0.0240839
0.0240796
0.0240755
0.0240717
0.024068
0.0240646
0.0240615
0.0240587
0.0240561
0.024054
0.0240522
0.0240507
0.0240497
0.0240491
0.024049
0.0240493
0.0240501
0.0240515
0.0240534
0.0240558
0.0240589
0.0240625
0.0240667
0.0240716
0.0240772
0.0240834
0.0240903
0.0240979
0.0241061
0.0241151
0.0241248
0.0241352
0.0241464
0.0241582
0.0241708
0.0241841
0.0241981
0.0242128
0.0242281
0.0242441
0.0242608
0.0242781
0.024296
0.0243144
0.0243334
0.0243528
0.0243728
0.0243931
0.0244139
0.0244349
0.0244562
0.0244777
0.0244994
0.0245212
0.024543
0.0245647
0.0245864
0.0246078
0.024629
0.0246499
0.0246704
0.0246903
0.0247097
0.0247284
0.0247464
0.0247635
0.0247798
0.024795
0.0248092
0.0248222
0.024834
0.0248444
0.0248535
0.0248611
0.0248672
0.0248717
0.0248746
0.0248757
0.0248751
0.0248727
0.0248684
0.0248623
0.0248543
0.0248443
0.0248325
0.0248186
0.0248029
0.0247852
0.0247656
0.0247441
0.0247207
0.0246955
0.0246685
0.0246398
0.0246093
0.0245773
0.0245436
0.0245086
0.024472
0.0244342
0.0243951
0.0243549
0.0243136
0.0242713
0.0242282
0.0241844
0.0241399
0.0240948
0.0240493
0.0240035
0.0239574
0.0239112
0.023865
0.0238189
0.0237729
0.0237272
0.0236818
0.023637
0.0235926
0.0235489
0.0235059
0.0234637
0.0234223
0.0233819
0.0233424
0.0233041
0.0232668
0.0232307
0.0231958
0.0231622
0.02313
0.0230991
0.0230696
0.0230415
0.0230149
0.0229898
0.0229662
0.0229442
0.0229238
0.022905
0.0228879
0.0228724
0.0228586
0.0228465
0.022836
0.0228273
0.0228202
0.0228149
0.0228112
0.0228091
0.0228085
0.0228094
0.0228116
0.0228148
0.0228189
0.0228234
0.0228277
0.0228312
0.0228329
0.0243446
0.024345
0.0243442
0.0243419
0.0243382
0.0243333
0.0243274
0.0243207
0.0243134
0.0243056
0.0242975
0.0242892
0.0242807
0.0242723
0.0242638
0.0242555
0.0242472
0.0242391
0.0242312
0.0242235
0.0242159
0.0242085
0.0242013
0.0241943
0.0241874
0.0241808
0.0241743
0.0241679
0.0241617
0.0241556
0.0241497
0.0241438
0.0241381
0.0241326
0.0241271
0.0241218
0.0241166
0.0241115
0.0241066
0.0241018
0.0240971
0.0240927
0.0240884
0.0240843
0.0240804
0.0240768
0.0240734
0.0240703
0.0240675
0.024065
0.0240628
0.024061
0.0240596
0.0240585
0.0240579
0.0240578
0.0240581
0.0240589
0.0240602
0.024062
0.0240644
0.0240674
0.0240709
0.0240751
0.0240799
0.0240853
0.0240914
0.0240981
0.0241055
0.0241136
0.0241224
0.0241319
0.0241421
0.0241531
0.0241647
0.024177
0.02419
0.0242037
0.024218
0.0242331
0.0242487
0.024265
0.0242819
0.0242994
0.0243174
0.0243359
0.0243549
0.0243744
0.0243943
0.0244145
0.024435
0.0244557
0.0244767
0.0244978
0.024519
0.0245402
0.0245613
0.0245824
0.0246032
0.0246238
0.024644
0.0246638
0.0246831
0.0247018
0.0247199
0.0247373
0.0247538
0.0247694
0.024784
0.0247976
0.02481
0.0248212
0.0248311
0.0248396
0.0248467
0.0248523
0.0248564
0.0248588
0.0248595
0.0248586
0.0248558
0.0248513
0.0248449
0.0248367
0.0248265
0.0248145
0.0248006
0.0247848
0.0247671
0.0247475
0.0247261
0.0247029
0.0246778
0.024651
0.0246226
0.0245924
0.0245607
0.0245274
0.0244927
0.0244567
0.0244193
0.0243807
0.024341
0.0243003
0.0242587
0.0242162
0.024173
0.0241291
0.0240848
0.0240399
0.0239948
0.0239494
0.023904
0.0238585
0.023813
0.0237678
0.0237228
0.0236782
0.023634
0.0235903
0.0235473
0.023505
0.0234634
0.0234227
0.0233829
0.0233441
0.0233063
0.0232696
0.0232341
0.0231998
0.0231667
0.0231349
0.0231045
0.0230754
0.0230478
0.0230216
0.0229968
0.0229736
0.0229519
0.0229317
0.0229131
0.0228962
0.0228808
0.0228671
0.022855
0.0228445
0.0228357
0.0228285
0.0228229
0.0228189
0.0228163
0.0228153
0.0228156
0.022817
0.0228195
0.0228227
0.0228264
0.0228299
0.0228329
0.0228347
0.0243454
0.0243457
0.024345
0.0243428
0.0243393
0.0243348
0.0243294
0.0243233
0.0243166
0.0243094
0.0243019
0.0242942
0.0242863
0.0242783
0.0242703
0.0242624
0.0242545
0.0242468
0.0242391
0.0242317
0.0242243
0.0242172
0.0242101
0.0242033
0.0241966
0.02419
0.0241836
0.0241773
0.0241711
0.0241651
0.0241592
0.0241534
0.0241478
0.0241422
0.0241368
0.0241314
0.0241263
0.0241212
0.0241163
0.0241115
0.0241069
0.0241024
0.0240981
0.024094
0.0240902
0.0240865
0.0240832
0.0240801
0.0240772
0.0240747
0.0240725
0.0240707
0.0240692
0.0240682
0.0240675
0.0240673
0.0240676
0.0240683
0.0240696
0.0240713
0.0240736
0.0240765
0.0240799
0.024084
0.0240886
0.0240939
0.0240999
0.0241064
0.0241137
0.0241216
0.0241302
0.0241394
0.0241494
0.02416
0.0241714
0.0241834
0.0241961
0.0242095
0.0242235
0.0242381
0.0242534
0.0242693
0.0242858
0.0243028
0.0243204
0.0243384
0.024357
0.0243759
0.0243952
0.0244149
0.0244349
0.0244551
0.0244754
0.0244959
0.0245165
0.0245371
0.0245576
0.024578
0.0245982
0.0246181
0.0246376
0.0246568
0.0246754
0.0246935
0.0247109
0.0247276
0.0247434
0.0247584
0.0247724
0.0247853
0.0247971
0.0248077
0.0248171
0.0248251
0.0248316
0.0248367
0.0248403
0.0248423
0.0248426
0.0248412
0.0248382
0.0248333
0.0248267
0.0248182
0.0248079
0.0247957
0.0247817
0.0247658
0.0247481
0.0247286
0.0247072
0.0246841
0.0246592
0.0246326
0.0246044
0.0245745
0.0245431
0.0245102
0.0244759
0.0244403
0.0244034
0.0243653
0.0243262
0.0242861
0.024245
0.0242031
0.0241606
0.0241174
0.0240737
0.0240296
0.0239851
0.0239405
0.0238958
0.023851
0.0238063
0.0237618
0.0237175
0.0236736
0.0236302
0.0235873
0.023545
0.0235033
0.0234625
0.0234225
0.0233833
0.0233452
0.023308
0.023272
0.023237
0.0232033
0.0231707
0.0231395
0.0231095
0.0230809
0.0230537
0.0230279
0.0230036
0.0229807
0.0229593
0.0229394
0.0229211
0.0229043
0.022889
0.0228754
0.0228633
0.0228528
0.0228439
0.0228365
0.0228307
0.0228263
0.0228234
0.0228219
0.0228216
0.0228224
0.0228242
0.0228268
0.0228298
0.0228329
0.0228359
0.0228381
0.0243479
0.0243481
0.0243471
0.0243449
0.0243416
0.0243373
0.0243322
0.0243265
0.0243202
0.0243134
0.0243064
0.0242991
0.0242916
0.024284
0.0242764
0.0242689
0.0242613
0.0242539
0.0242465
0.0242393
0.0242322
0.0242252
0.0242183
0.0242116
0.0242051
0.0241986
0.0241923
0.0241861
0.02418
0.024174
0.0241681
0.0241624
0.0241568
0.0241512
0.0241458
0.0241405
0.0241353
0.0241302
0.0241253
0.0241205
0.0241159
0.0241114
0.0241071
0.0241031
0.0240992
0.0240955
0.0240921
0.024089
0.0240861
0.0240836
0.0240813
0.0240795
0.024078
0.0240769
0.0240762
0.0240759
0.0240761
0.0240768
0.0240779
0.0240796
0.0240818
0.0240845
0.0240879
0.0240918
0.0240963
0.0241014
0.0241072
0.0241136
0.0241206
0.0241284
0.0241367
0.0241458
0.0241555
0.0241659
0.024177
0.0241887
0.0242011
0.0242142
0.0242279
0.0242422
0.0242572
0.0242727
0.0242888
0.0243055
0.0243226
0.0243403
0.0243584
0.0243769
0.0243958
0.024415
0.0244345
0.0244542
0.024474
0.024494
0.0245141
0.0245341
0.0245541
0.024574
0.0245936
0.024613
0.024632
0.0246506
0.0246687
0.0246862
0.024703
0.0247192
0.0247345
0.0247489
0.0247624
0.0247748
0.0247861
0.0247963
0.0248051
0.0248126
0.0248188
0.0248235
0.0248266
0.0248283
0.0248282
0.0248266
0.0248232
0.0248181
0.0248112
0.0248025
0.0247921
0.0247798
0.0247657
0.0247497
0.024732
0.0247124
0.0246911
0.0246681
0.0246433
0.0246168
0.0245888
0.0245591
0.0245279
0.0244953
0.0244613
0.024426
0.0243895
0.0243519
0.0243131
0.0242734
0.0242328
0.0241915
0.0241494
0.0241067
0.0240636
0.02402
0.0239761
0.0239321
0.0238879
0.0238437
0.0237997
0.0237557
0.0237121
0.0236688
0.023626
0.0235837
0.023542
0.0235009
0.0234607
0.0234212
0.0233826
0.023345
0.0233084
0.0232729
0.0232385
0.0232052
0.0231731
0.0231423
0.0231128
0.0230846
0.0230578
0.0230324
0.0230084
0.0229858
0.0229646
0.022945
0.0229268
0.0229102
0.0228951
0.0228815
0.0228695
0.022859
0.02285
0.0228425
0.0228364
0.0228319
0.0228287
0.0228268
0.0228261
0.0228265
0.0228279
0.0228301
0.0228329
0.0228361
0.0228395
0.0228425
0.0243521
0.0243518
0.0243506
0.0243482
0.0243448
0.0243406
0.0243357
0.0243302
0.0243242
0.0243177
0.024311
0.024304
0.0242969
0.0242897
0.0242825
0.0242752
0.024268
0.0242608
0.0242537
0.0242467
0.0242398
0.024233
0.0242263
0.0242197
0.0242133
0.0242069
0.0242007
0.0241945
0.0241885
0.0241826
0.0241768
0.0241711
0.0241655
0.0241599
0.0241545
0.0241492
0.024144
0.024139
0.024134
0.0241292
0.0241246
0.0241201
0.0241158
0.0241117
0.0241078
0.0241041
0.0241006
0.0240974
0.0240946
0.024092
0.0240897
0.0240877
0.0240862
0.024085
0.0240842
0.0240839
0.024084
0.0240845
0.0240856
0.0240871
0.0240892
0.0240918
0.024095
0.0240988
0.0241032
0.0241081
0.0241137
0.02412
0.0241268
0.0241343
0.0241425
0.0241513
0.0241608
0.024171
0.0241818
0.0241933
0.0242054
0.0242182
0.0242316
0.0242456
0.0242602
0.0242754
0.0242912
0.0243075
0.0243243
0.0243416
0.0243593
0.0243774
0.0243959
0.0244147
0.0244337
0.024453
0.0244725
0.024492
0.0245116
0.0245312
0.0245508
0.0245701
0.0245893
0.0246082
0.0246268
0.0246449
0.0246625
0.0246796
0.0246959
0.0247116
0.0247265
0.0247405
0.0247535
0.0247655
0.0247764
0.0247861
0.0247945
0.0248017
0.0248075
0.0248118
0.0248147
0.0248159
0.0248156
0.0248137
0.0248101
0.0248047
0.0247977
0.0247888
0.0247782
0.0247658
0.0247516
0.0247355
0.0247178
0.0246982
0.0246769
0.0246539
0.0246291
0.0246028
0.0245748
0.0245453
0.0245144
0.024482
0.0244482
0.0244131
0.0243769
0.0243395
0.0243011
0.0242618
0.0242215
0.0241805
0.0241389
0.0240966
0.0240539
0.0240108
0.0239674
0.0239238
0.0238801
0.0238365
0.0237929
0.0237495
0.0237063
0.0236636
0.0236212
0.0235794
0.0235383
0.0234977
0.023458
0.023419
0.0233809
0.0233438
0.0233077
0.0232726
0.0232386
0.0232058
0.0231742
0.0231438
0.0231147
0.0230869
0.0230604
0.0230353
0.0230115
0.0229892
0.0229683
0.0229489
0.0229309
0.0229145
0.0228995
0.022886
0.022874
0.0228634
0.0228544
0.0228468
0.0228406
0.0228359
0.0228324
0.0228303
0.0228294
0.0228296
0.0228308
0.0228329
0.0228356
0.0228391
0.0228431
0.022847
0.0243576
0.0243568
0.0243551
0.0243524
0.0243489
0.0243447
0.0243398
0.0243344
0.0243286
0.0243223
0.0243159
0.0243092
0.0243024
0.0242954
0.0242885
0.0242815
0.0242745
0.0242676
0.0242607
0.0242539
0.0242472
0.0242406
0.024234
0.0242276
0.0242213
0.0242151
0.0242089
0.0242029
0.0241969
0.0241911
0.0241853
0.0241796
0.024174
0.0241685
0.0241631
0.0241578
0.0241526
0.0241475
0.0241426
0.0241378
0.0241331
0.0241285
0.0241242
0.02412
0.0241161
0.0241123
0.0241088
0.0241056
0.0241026
0.0240999
0.0240976
0.0240956
0.0240939
0.0240926
0.0240918
0.0240913
0.0240913
0.0240917
0.0240927
0.0240941
0.024096
0.0240985
0.0241016
0.0241052
0.0241094
0.0241142
0.0241196
0.0241256
0.0241323
0.0241396
0.0241475
0.0241561
0.0241654
0.0241753
0.0241859
0.0241971
0.024209
0.0242215
0.0242346
0.0242483
0.0242627
0.0242775
0.024293
0.024309
0.0243254
0.0243424
0.0243598
0.0243775
0.0243956
0.0244141
0.0244328
0.0244516
0.0244707
0.0244899
0.0245091
0.0245283
0.0245474
0.0245664
0.0245852
0.0246037
0.0246218
0.0246395
0.0246567
0.0246734
0.0246894
0.0247047
0.0247192
0.0247328
0.0247454
0.024757
0.0247676
0.0247769
0.0247851
0.0247919
0.0247974
0.0248014
0.024804
0.024805
0.0248044
0.0248023
0.0247984
0.0247929
0.0247856
0.0247766
0.0247658
0.0247533
0.024739
0.0247229
0.024705
0.0246854
0.0246641
0.0246411
0.0246164
0.0245901
0.0245622
0.0245328
0.024502
0.0244697
0.0244361
0.0244012
0.0243652
0.0243281
0.0242899
0.0242508
0.0242108
0.0241702
0.0241288
0.0240869
0.0240445
0.0240018
0.0239588
0.0239156
0.0238723
0.023829
0.0237858
0.0237428
0.0237002
0.0236578
0.0236159
0.0235746
0.0235338
0.0234937
0.0234544
0.0234159
0.0233783
0.0233416
0.0233059
0.0232712
0.0232376
0.0232052
0.023174
0.0231439
0.0231152
0.0230877
0.0230615
0.0230367
0.0230133
0.0229912
0.0229706
0.0229513
0.0229335
0.0229172
0.0229023
0.0228889
0.0228769
0.0228664
0.0228573
0.0228496
0.0228434
0.0228385
0.0228349
0.0228327
0.0228316
0.0228316
0.0228328
0.0228349
0.0228378
0.0228416
0.0228464
0.0228511
0.0243643
0.0243628
0.0243605
0.0243575
0.0243537
0.0243493
0.0243444
0.024339
0.0243333
0.0243272
0.024321
0.0243145
0.0243079
0.0243012
0.0242944
0.0242877
0.024281
0.0242742
0.0242676
0.024261
0.0242545
0.024248
0.0242416
0.0242353
0.0242291
0.024223
0.024217
0.024211
0.0242051
0.0241993
0.0241936
0.0241879
0.0241824
0.0241769
0.0241715
0.0241662
0.0241609
0.0241559
0.0241509
0.024146
0.0241413
0.0241367
0.0241323
0.0241281
0.024124
0.0241202
0.0241167
0.0241133
0.0241103
0.0241075
0.0241051
0.0241029
0.0241012
0.0240998
0.0240988
0.0240982
0.024098
0.0240984
0.0240991
0.0241004
0.0241022
0.0241045
0.0241074
0.0241109
0.0241149
0.0241195
0.0241247
0.0241305
0.024137
0.0241441
0.0241518
0.0241602
0.0241692
0.0241789
0.0241892
0.0242002
0.0242118
0.024224
0.0242369
0.0242504
0.0242644
0.024279
0.0242942
0.0243098
0.024326
0.0243427
0.0243597
0.0243772
0.0243949
0.0244131
0.0244314
0.02445
0.0244687
0.0244875
0.0245064
0.0245253
0.0245441
0.0245627
0.0245811
0.0245993
0.0246171
0.0246345
0.0246514
0.0246677
0.0246833
0.0246983
0.0247125
0.0247258
0.0247381
0.0247494
0.0247597
0.0247687
0.0247766
0.0247832
0.0247884
0.0247922
0.0247945
0.0247953
0.0247945
0.0247921
0.0247881
0.0247824
0.024775
0.0247658
0.0247549
0.0247422
0.0247278
0.0247117
0.0246937
0.0246741
0.0246527
0.0246297
0.024605
0.0245787
0.0245509
0.0245215
0.0244907
0.0244585
0.024425
0.0243903
0.0243544
0.0243174
0.0242794
0.0242405
0.0242007
0.0241603
0.0241192
0.0240775
0.0240354
0.0239929
0.0239502
0.0239073
0.0238643
0.0238213
0.0237785
0.0237359
0.0236935
0.0236516
0.02361
0.023569
0.0235287
0.023489
0.02345
0.0234119
0.0233746
0.0233383
0.023303
0.0232687
0.0232355
0.0232034
0.0231725
0.0231428
0.0231143
0.0230872
0.0230613
0.0230367
0.0230135
0.0229917
0.0229713
0.0229522
0.0229346
0.0229184
0.0229036
0.0228903
0.0228783
0.0228678
0.0228587
0.0228511
0.0228447
0.0228398
0.0228361
0.0228337
0.0228326
0.0228326
0.0228338
0.022836
0.0228392
0.0228434
0.0228489
0.0228544
0.0243719
0.0243697
0.0243668
0.0243632
0.0243591
0.0243545
0.0243495
0.0243441
0.0243383
0.0243324
0.0243262
0.0243199
0.0243134
0.0243069
0.0243004
0.0242938
0.0242873
0.0242808
0.0242743
0.0242679
0.0242615
0.0242553
0.024249
0.0242429
0.0242368
0.0242308
0.0242248
0.0242189
0.0242131
0.0242073
0.0242016
0.024196
0.0241905
0.024185
0.0241796
0.0241742
0.024169
0.0241639
0.0241589
0.0241539
0.0241492
0.0241445
0.02414
0.0241357
0.0241316
0.0241277
0.0241241
0.0241206
0.0241175
0.0241146
0.024112
0.0241098
0.0241079
0.0241064
0.0241052
0.0241045
0.0241042
0.0241044
0.024105
0.0241061
0.0241077
0.0241099
0.0241126
0.0241158
0.0241196
0.0241241
0.0241291
0.0241347
0.0241409
0.0241478
0.0241553
0.0241635
0.0241723
0.0241817
0.0241918
0.0242025
0.0242139
0.0242259
0.0242385
0.0242517
0.0242655
0.0242798
0.0242947
0.0243101
0.024326
0.0243424
0.0243591
0.0243763
0.0243938
0.0244116
0.0244297
0.024448
0.0244664
0.024485
0.0245036
0.0245222
0.0245407
0.024559
0.0245772
0.024595
0.0246126
0.0246297
0.0246463
0.0246623
0.0246777
0.0246924
0.0247063
0.0247194
0.0247315
0.0247426
0.0247526
0.0247614
0.0247691
0.0247754
0.0247804
0.024784
0.0247861
0.0247868
0.0247858
0.0247833
0.0247791
0.0247732
0.0247657
0.0247564
0.0247453
0.0247326
0.024718
0.0247018
0.0246838
0.0246641
0.0246426
0.0246196
0.0245948
0.0245685
0.0245407
0.0245113
0.0244805
0.0244484
0.0244149
0.0243802
0.0243444
0.0243075
0.0242696
0.0242308
0.0241911
0.0241508
0.0241098
0.0240683
0.0240264
0.0239841
0.0239416
0.0238989
0.0238562
0.0238135
0.0237709
0.0237285
0.0236864
0.0236447
0.0236035
0.0235628
0.0235228
0.0234834
0.0234447
0.0234069
0.02337
0.023334
0.023299
0.023265
0.0232321
0.0232003
0.0231697
0.0231403
0.0231122
0.0230853
0.0230596
0.0230353
0.0230124
0.0229908
0.0229705
0.0229516
0.0229342
0.0229181
0.0229034
0.0228901
0.0228783
0.0228678
0.0228587
0.022851
0.0228447
0.0228396
0.022836
0.0228336
0.0228324
0.0228325
0.0228337
0.0228361
0.0228396
0.0228442
0.0228504
0.0228567
0.0243803
0.0243773
0.0243736
0.0243695
0.024365
0.0243601
0.0243549
0.0243494
0.0243436
0.0243376
0.0243315
0.0243253
0.024319
0.0243126
0.0243063
0.0242999
0.0242935
0.0242872
0.0242809
0.0242746
0.0242684
0.0242623
0.0242562
0.0242501
0.0242442
0.0242382
0.0242324
0.0242266
0.0242208
0.0242151
0.0242094
0.0242038
0.0241983
0.0241928
0.0241874
0.024182
0.0241768
0.0241716
0.0241665
0.0241615
0.0241567
0.024152
0.0241474
0.024143
0.0241388
0.0241348
0.024131
0.0241275
0.0241242
0.0241212
0.0241185
0.0241161
0.0241141
0.0241124
0.0241111
0.0241102
0.0241097
0.0241097
0.0241102
0.0241111
0.0241125
0.0241145
0.024117
0.02412
0.0241237
0.0241279
0.0241327
0.0241381
0.0241441
0.0241508
0.024158
0.024166
0.0241745
0.0241837
0.0241936
0.0242041
0.0242152
0.024227
0.0242393
0.0242523
0.0242658
0.0242799
0.0242946
0.0243097
0.0243254
0.0243415
0.0243581
0.024375
0.0243923
0.0244098
0.0244277
0.0244457
0.0244639
0.0244822
0.0245006
0.0245189
0.0245372
0.0245553
0.0245732
0.0245909
0.0246082
0.0246251
0.0246415
0.0246573
0.0246725
0.024687
0.0247007
0.0247136
0.0247255
0.0247364
0.0247462
0.0247549
0.0247624
0.0247686
0.0247734
0.0247769
0.0247788
0.0247793
0.0247782
0.0247756
0.0247712
0.0247652
0.0247576
0.0247482
0.024737
0.0247242
0.0247095
0.0246932
0.0246751
0.0246553
0.0246338
0.0246106
0.0245858
0.0245595
0.0245315
0.0245021
0.0244713
0.0244391
0.0244057
0.024371
0.0243351
0.0242982
0.0242604
0.0242216
0.024182
0.0241417
0.0241008
0.0240594
0.0240176
0.0239754
0.023933
0.0238905
0.0238479
0.0238053
0.0237629
0.0237208
0.0236789
0.0236374
0.0235964
0.0235559
0.0235161
0.0234769
0.0234386
0.023401
0.0233643
0.0233286
0.0232939
0.0232601
0.0232275
0.023196
0.0231657
0.0231365
0.0231086
0.023082
0.0230566
0.0230325
0.0230098
0.0229883
0.0229683
0.0229496
0.0229322
0.0229163
0.0229017
0.0228885
0.0228767
0.0228663
0.0228572
0.0228495
0.0228431
0.0228381
0.0228344
0.0228321
0.0228309
0.0228311
0.0228325
0.022835
0.0228388
0.0228439
0.0228508
0.0228577
0.0243892
0.0243855
0.024381
0.0243763
0.0243713
0.0243661
0.0243606
0.0243549
0.024349
0.024343
0.0243369
0.0243307
0.0243245
0.0243183
0.024312
0.0243058
0.0242996
0.0242934
0.0242872
0.0242811
0.0242751
0.024269
0.0242631
0.0242572
0.0242513
0.0242455
0.0242397
0.0242339
0.0242282
0.0242225
0.0242169
0.0242113
0.0242058
0.0242003
0.0241948
0.0241895
0.0241841
0.0241789
0.0241738
0.0241687
0.0241638
0.024159
0.0241543
0.0241498
0.0241455
0.0241414
0.0241375
0.0241338
0.0241304
0.0241272
0.0241244
0.0241218
0.0241196
0.0241178
0.0241163
0.0241152
0.0241146
0.0241143
0.0241146
0.0241153
0.0241166
0.0241183
0.0241206
0.0241235
0.0241269
0.0241309
0.0241354
0.0241406
0.0241464
0.0241529
0.0241599
0.0241676
0.024176
0.024185
0.0241946
0.0242049
0.0242158
0.0242273
0.0242394
0.0242522
0.0242655
0.0242794
0.0242938
0.0243087
0.0243242
0.0243401
0.0243564
0.0243731
0.0243902
0.0244075
0.0244252
0.024443
0.024461
0.0244791
0.0244973
0.0245155
0.0245335
0.0245515
0.0245692
0.0245867
0.0246039
0.0246206
0.0246368
0.0246525
0.0246676
0.0246819
0.0246955
0.0247083
0.02472
0.0247308
0.0247405
0.0247491
0.0247565
0.0247625
0.0247673
0.0247706
0.0247725
0.0247729
0.0247717
0.0247689
0.0247645
0.0247584
0.0247506
0.0247411
0.0247299
0.0247169
0.0247022
0.0246857
0.0246675
0.0246476
0.024626
0.0246028
0.0245779
0.0245514
0.0245234
0.0244939
0.024463
0.0244308
0.0243972
0.0243624
0.0243266
0.0242896
0.0242517
0.0242129
0.0241733
0.024133
0.0240921
0.0240507
0.0240089
0.0239668
0.0239244
0.0238819
0.0238394
0.0237969
0.0237546
0.0237126
0.0236708
0.0236295
0.0235886
0.0235483
0.0235087
0.0234697
0.0234315
0.0233941
0.0233577
0.0233222
0.0232876
0.0232542
0.0232218
0.0231905
0.0231604
0.0231315
0.0231038
0.0230773
0.0230522
0.0230283
0.0230057
0.0229845
0.0229646
0.022946
0.0229288
0.022913
0.0228985
0.0228854
0.0228736
0.0228632
0.0228542
0.0228465
0.0228402
0.0228352
0.0228316
0.0228292
0.0228281
0.0228284
0.0228299
0.0228327
0.0228368
0.0228424
0.0228498
0.0228573
0.0243985
0.024394
0.0243886
0.0243833
0.0243779
0.0243722
0.0243665
0.0243605
0.0243545
0.0243484
0.0243423
0.0243362
0.02433
0.0243238
0.0243177
0.0243115
0.0243054
0.0242994
0.0242934
0.0242874
0.0242814
0.0242755
0.0242697
0.0242639
0.0242581
0.0242523
0.0242466
0.0242409
0.0242353
0.0242296
0.024224
0.0242184
0.0242129
0.0242074
0.0242019
0.0241965
0.0241911
0.0241858
0.0241806
0.0241755
0.0241705
0.0241656
0.0241608
0.0241562
0.0241517
0.0241474
0.0241434
0.0241395
0.024136
0.0241326
0.0241296
0.0241269
0.0241245
0.0241224
0.0241208
0.0241195
0.0241187
0.0241182
0.0241183
0.0241188
0.0241198
0.0241214
0.0241234
0.0241261
0.0241292
0.024133
0.0241374
0.0241423
0.0241479
0.0241541
0.024161
0.0241684
0.0241766
0.0241853
0.0241948
0.0242048
0.0242155
0.0242268
0.0242387
0.0242513
0.0242644
0.0242781
0.0242923
0.0243071
0.0243223
0.024338
0.0243541
0.0243707
0.0243876
0.0244048
0.0244223
0.0244399
0.0244578
0.0244758
0.0244938
0.0245118
0.0245297
0.0245476
0.0245652
0.0245826
0.0245996
0.0246162
0.0246324
0.024648
0.0246629
0.0246772
0.0246907
0.0247033
0.024715
0.0247258
0.0247354
0.0247439
0.0247512
0.0247572
0.0247619
0.0247652
0.024767
0.0247673
0.024766
0.0247632
0.0247587
0.0247525
0.0247447
0.0247351
0.0247238
0.0247107
0.0246959
0.0246793
0.024661
0.024641
0.0246193
0.0245959
0.0245709
0.0245443
0.0245162
0.0244866
0.0244555
0.0244232
0.0243895
0.0243546
0.0243186
0.0242815
0.0242435
0.0242046
0.0241649
0.0241245
0.0240836
0.0240421
0.0240002
0.0239581
0.0239157
0.0238732
0.0238307
0.0237882
0.0237459
0.0237039
0.0236622
0.023621
0.0235802
0.02354
0.0235004
0.0234616
0.0234235
0.0233863
0.02335
0.0233147
0.0232803
0.023247
0.0232148
0.0231837
0.0231538
0.0231251
0.0230976
0.0230713
0.0230463
0.0230226
0.0230002
0.0229791
0.0229594
0.0229409
0.0229239
0.0229081
0.0228937
0.0228807
0.022869
0.0228587
0.0228497
0.0228421
0.0228358
0.0228308
0.0228272
0.0228249
0.022824
0.0228244
0.0228261
0.0228291
0.0228335
0.0228394
0.0228473
0.0228554
0.0244081
0.0244027
0.0243965
0.0243906
0.0243846
0.0243785
0.0243724
0.0243662
0.02436
0.0243539
0.0243476
0.0243415
0.0243353
0.0243292
0.0243231
0.0243171
0.0243111
0.0243051
0.0242992
0.0242933
0.0242875
0.0242817
0.024276
0.0242702
0.0242645
0.0242589
0.0242532
0.0242476
0.0242419
0.0242363
0.0242307
0.0242251
0.0242196
0.024214
0.0242085
0.0242031
0.0241976
0.0241923
0.024187
0.0241817
0.0241766
0.0241716
0.0241667
0.0241619
0.0241573
0.0241529
0.0241487
0.0241447
0.0241409
0.0241374
0.0241342
0.0241313
0.0241287
0.0241264
0.0241245
0.0241231
0.024122
0.0241214
0.0241212
0.0241215
0.0241223
0.0241236
0.0241254
0.0241278
0.0241308
0.0241343
0.0241384
0.0241432
0.0241485
0.0241545
0.0241611
0.0241684
0.0241763
0.0241849
0.0241941
0.0242039
0.0242144
0.0242255
0.0242372
0.0242496
0.0242625
0.024276
0.0242901
0.0243047
0.0243198
0.0243353
0.0243513
0.0243677
0.0243844
0.0244015
0.0244188
0.0244364
0.0244541
0.024472
0.0244899
0.0245078
0.0245257
0.0245434
0.024561
0.0245783
0.0245952
0.0246118
0.0246279
0.0246435
0.0246584
0.0246726
0.0246861
0.0246987
0.0247104
0.0247211
0.0247307
0.0247392
0.0247465
0.0247525
0.0247572
0.0247604
0.0247622
0.0247625
0.0247612
0.0247583
0.0247538
0.0247476
0.0247396
0.02473
0.0247186
0.0247054
0.0246905
0.0246739
0.0246554
0.0246353
0.0246135
0.0245899
0.0245648
0.024538
0.0245098
0.02448
0.0244488
0.0244162
0.0243824
0.0243473
0.0243111
0.0242739
0.0242357
0.0241966
0.0241568
0.0241163
0.0240752
0.0240336
0.0239916
0.0239493
0.0239068
0.0238643
0.0238217
0.0237792
0.0237369
0.0236948
0.0236531
0.0236118
0.0235711
0.0235309
0.0234914
0.0234527
0.0234147
0.0233776
0.0233414
0.0233061
0.0232719
0.0232387
0.0232067
0.0231757
0.023146
0.0231174
0.02309
0.0230639
0.0230391
0.0230155
0.0229933
0.0229723
0.0229527
0.0229344
0.0229174
0.0229018
0.0228875
0.0228745
0.0228629
0.0228527
0.0228438
0.0228362
0.0228299
0.022825
0.0228215
0.0228193
0.0228184
0.0228189
0.0228208
0.0228241
0.0228287
0.022835
0.0228433
0.0228518
0.0244177
0.0244115
0.0244045
0.0243979
0.0243913
0.0243848
0.0243784
0.0243719
0.0243655
0.0243591
0.0243529
0.0243466
0.0243404
0.0243343
0.0243283
0.0243223
0.0243164
0.0243105
0.0243047
0.024299
0.0242932
0.0242875
0.0242819
0.0242762
0.0242706
0.024265
0.0242594
0.0242538
0.0242482
0.0242426
0.024237
0.0242314
0.0242258
0.0242202
0.0242147
0.0242091
0.0242036
0.0241982
0.0241928
0.0241874
0.0241822
0.024177
0.024172
0.0241671
0.0241623
0.0241577
0.0241533
0.0241491
0.0241452
0.0241415
0.024138
0.0241349
0.0241321
0.0241296
0.0241275
0.0241258
0.0241245
0.0241236
0.0241232
0.0241233
0.0241239
0.0241249
0.0241265
0.0241287
0.0241314
0.0241347
0.0241386
0.0241431
0.0241482
0.024154
0.0241604
0.0241675
0.0241752
0.0241835
0.0241925
0.0242022
0.0242125
0.0242234
0.024235
0.0242471
0.0242599
0.0242732
0.0242872
0.0243016
0.0243165
0.024332
0.0243478
0.0243641
0.0243807
0.0243977
0.0244149
0.0244324
0.02445
0.0244678
0.0244857
0.0245035
0.0245214
0.024539
0.0245566
0.0245738
0.0245908
0.0246073
0.0246234
0.024639
0.024654
0.0246682
0.0246817
0.0246943
0.024706
0.0247168
0.0247264
0.0247349
0.0247423
0.0247483
0.024753
0.0247562
0.0247581
0.0247583
0.0247571
0.0247542
0.0247496
0.0247434
0.0247354
0.0247257
0.0247142
0.024701
0.024686
0.0246692
0.0246507
0.0246304
0.0246084
0.0245848
0.0245595
0.0245325
0.0245041
0.0244741
0.0244427
0.0244099
0.0243759
0.0243406
0.0243042
0.0242667
0.0242283
0.024189
0.024149
0.0241082
0.0240669
0.0240251
0.0239829
0.0239405
0.0238978
0.0238551
0.0238124
0.0237698
0.0237273
0.0236852
0.0236434
0.0236021
0.0235613
0.0235211
0.0234816
0.0234429
0.0234049
0.0233678
0.0233317
0.0232965
0.0232624
0.0232293
0.0231973
0.0231665
0.0231368
0.0231084
0.0230812
0.0230552
0.0230305
0.0230071
0.0229849
0.0229641
0.0229446
0.0229264
0.0229095
0.022894
0.0228798
0.0228669
0.0228553
0.0228451
0.0228363
0.0228287
0.0228226
0.0228177
0.0228143
0.0228121
0.0228114
0.022812
0.0228141
0.0228175
0.0228224
0.022829
0.0228377
0.0228466
0.0244273
0.0244203
0.0244125
0.0244051
0.0243981
0.0243911
0.0243842
0.0243774
0.0243708
0.0243643
0.0243579
0.0243516
0.0243454
0.0243392
0.0243332
0.0243273
0.0243214
0.0243156
0.0243099
0.0243042
0.0242985
0.0242929
0.0242873
0.0242818
0.0242762
0.0242706
0.0242651
0.0242595
0.0242539
0.0242483
0.0242427
0.0242371
0.0242315
0.0242259
0.0242203
0.0242146
0.0242091
0.0242035
0.024198
0.0241925
0.0241871
0.0241818
0.0241766
0.0241715
0.0241666
0.0241618
0.0241572
0.0241528
0.0241487
0.0241447
0.0241411
0.0241378
0.0241347
0.024132
0.0241297
0.0241277
0.0241262
0.0241251
0.0241244
0.0241242
0.0241245
0.0241254
0.0241267
0.0241286
0.0241311
0.0241342
0.0241378
0.0241421
0.024147
0.0241526
0.0241588
0.0241656
0.0241731
0.0241813
0.0241901
0.0241996
0.0242097
0.0242205
0.0242319
0.0242439
0.0242565
0.0242697
0.0242835
0.0242978
0.0243126
0.0243279
0.0243437
0.0243598
0.0243764
0.0243933
0.0244104
0.0244278
0.0244454
0.0244632
0.024481
0.0244988
0.0245166
0.0245343
0.0245519
0.0245691
0.0245861
0.0246027
0.0246188
0.0246344
0.0246494
0.0246638
0.0246773
0.02469
0.0247018
0.0247126
0.0247224
0.024731
0.0247383
0.0247444
0.0247492
0.0247525
0.0247544
0.0247547
0.0247535
0.0247506
0.0247461
0.0247398
0.0247318
0.0247221
0.0247106
0.0246973
0.0246822
0.0246654
0.0246467
0.0246263
0.0246042
0.0245803
0.0245548
0.0245277
0.024499
0.0244688
0.0244372
0.0244042
0.0243698
0.0243343
0.0242976
0.0242599
0.0242212
0.0241816
0.0241413
0.0241003
0.0240587
0.0240166
0.0239742
0.0239315
0.0238886
0.0238457
0.0238028
0.02376
0.0237174
0.0236751
0.0236332
0.0235917
0.0235508
0.0235106
0.023471
0.0234322
0.0233942
0.0233571
0.023321
0.0232858
0.0232517
0.0232187
0.0231868
0.023156
0.0231265
0.0230981
0.023071
0.0230451
0.0230205
0.0229972
0.0229751
0.0229544
0.022935
0.0229169
0.0229001
0.0228846
0.0228705
0.0228577
0.0228462
0.0228361
0.0228273
0.0228198
0.0228137
0.0228089
0.0228055
0.0228035
0.0228029
0.0228036
0.0228058
0.0228095
0.0228146
0.0228214
0.0228305
0.0228397
0.0244368
0.0244289
0.0244202
0.0244122
0.0244046
0.0243971
0.0243898
0.0243828
0.0243759
0.0243692
0.0243626
0.0243562
0.02435
0.0243438
0.0243378
0.0243319
0.0243261
0.0243203
0.0243146
0.024309
0.0243034
0.0242979
0.0242923
0.0242868
0.0242813
0.0242758
0.0242703
0.0242647
0.0242591
0.0242535
0.0242479
0.0242423
0.0242366
0.0242309
0.0242252
0.0242195
0.0242138
0.0242082
0.0242025
0.0241969
0.0241914
0.0241859
0.0241805
0.0241753
0.0241701
0.0241652
0.0241604
0.0241558
0.0241514
0.0241472
0.0241434
0.0241398
0.0241365
0.0241335
0.0241309
0.0241287
0.0241269
0.0241256
0.0241246
0.0241242
0.0241243
0.0241249
0.024126
0.0241276
0.0241299
0.0241327
0.0241362
0.0241402
0.0241449
0.0241502
0.0241562
0.0241629
0.0241702
0.0241782
0.0241868
0.0241961
0.024206
0.0242167
0.0242279
0.0242398
0.0242523
0.0242653
0.024279
0.0242932
0.0243079
0.0243231
0.0243388
0.0243549
0.0243714
0.0243882
0.0244053
0.0244227
0.0244403
0.024458
0.0244758
0.0244936
0.0245114
0.0245292
0.0245467
0.0245641
0.0245811
0.0245978
0.024614
0.0246297
0.0246448
0.0246592
0.0246728
0.0246857
0.0246976
0.0247085
0.0247184
0.0247271
0.0247346
0.0247408
0.0247457
0.0247491
0.0247511
0.0247515
0.0247503
0.0247475
0.024743
0.0247368
0.0247288
0.0247191
0.0247075
0.0246942
0.024679
0.0246621
0.0246433
0.0246228
0.0246005
0.0245765
0.0245508
0.0245234
0.0244945
0.0244641
0.0244321
0.0243988
0.0243642
0.0243284
0.0242914
0.0242533
0.0242143
0.0241744
0.0241337
0.0240924
0.0240505
0.0240081
0.0239654
0.0239224
0.0238792
0.023836
0.0237928
0.0237497
0.0237069
0.0236644
0.0236223
0.0235807
0.0235396