/*--------------------------------*- C++ -*----------------------------------*\
  =========                 |
  \\      /  F ield         | OpenFOAM: The Open Source CFD Toolbox
   \\    /   O peration     | Website:  https://openfoam.org
    \\  /    A nd           | Version:  6
     \\/     M anipulation  |
\*---------------------------------------------------------------------------*/
FoamFile
{
    version     2.0;
    format      ascii;
    class       volVectorField;
    location    "0";
    object      U;
}
// * * * * * * * * * * * * * * * * * * * * * * * * * * * * * * * * * * * * * //

dimensions      [0 1 -1 0 0 0 0];

internalField   nonuniform List<vector> 
13046
(
(0.442698 0.152894 0)
(0.564852 -0.161918 3.39781e-21)
(0.206383 -0.100739 7.57391e-21)
(0.432822 0.074553 0)
(0.194498 -0.0324088 6.94088e-21)
(0.480407 -0.172135 0)
(0.472228 0.0955929 -1.02281e-21)
(0.524151 -0.206077 -1.72967e-21)
(0.169552 -0.0217933 7.62413e-21)
(0.905064 0.396872 -2.64425e-21)
(0.990604 -0.428538 0)
(-0.0202307 -0.0148949 -4.74659e-21)
(0.55428 0.192393 6.44796e-21)
(0.657067 -0.231649 5.10869e-21)
(0.135668 -0.0715752 -4.1212e-21)
(0.856028 0.444414 -1.46306e-21)
(0.014675 -0.0432631 -7.5815e-21)
(1.03596 -0.355787 -1.75629e-21)
(0.263238 0.0389138 0)
(0.364027 -0.150565 3.74398e-21)
(0.43682 -0.0168562 -1.0705e-20)
(0.866993 0.43629 1.49462e-21)
(0.00446221 -0.0355788 1.51841e-20)
(1.02746 -0.372084 -5.15645e-22)
(0.389713 0.0849895 -4.33172e-21)
(0.479717 -0.133284 6.37237e-21)
(0.226775 -0.0782418 0)
(0.561303 0.220136 -1.34124e-22)
(0.681179 -0.229282 -1.50524e-21)
(0.137965 -0.0859112 1.42789e-20)
(0.447758 0.172879 0)
(0.588368 -0.150952 0)
(0.214494 -0.119904 -7.70862e-21)
(0.358345 0.0574589 1.51912e-20)
(0.249647 -0.0773274 -2.59341e-21)
(0.439592 -0.107073 -9.87674e-21)
(0.357851 0.0361086 3.51784e-23)
(0.255735 -0.0573033 0)
(0.413132 -0.104303 0)
(0.362366 0.175344 -5.49132e-21)
(0.355109 -0.230691 -6.91892e-21)
(0.594552 -0.0685723 5.10952e-21)
(0.349908 -0.0242786 -3.48638e-21)
(0.296396 -0.0304607 3.56345e-21)
(0.341082 -0.0745153 0)
(0.374399 -0.0165161 -2.22936e-21)
(0.273282 -0.010306 0)
(0.350074 -0.0992945 1.1418e-21)
(0.462895 0.148294 0)
(0.570955 -0.182303 2.42776e-22)
(0.17777 -0.0818027 3.05986e-23)
(0.517709 -0.358191 -8.37911e-21)
(0.307145 0.19264 0)
(0.672524 0.00242392 5.98442e-21)
(0.572533 -0.3929 1.19324e-20)
(0.692315 0.0258787 6.46234e-21)
(0.273888 0.176236 -8.42454e-21)
(0.936818 -0.223221 1.00227e-21)
(0.714814 0.428188 0)
(0.173084 -0.166689 -6.31762e-21)
(0.720006 0.206441 3.05121e-21)
(0.769092 -0.37667 -2.90924e-21)
(0.068592 0.0129858 1.71353e-20)
(0.00324888 -0.0281125 -8.78976e-21)
(0.968398 -0.405187 1.51014e-21)
(0.870274 0.364196 4.5734e-21)
(0.678381 0.422083 0)
(0.905708 -0.189732 -4.77646e-21)
(0.217581 -0.204726 -1.83646e-21)
(0.647389 0.401372 2.32681e-21)
(0.87528 -0.177013 6.47294e-21)
(0.233698 -0.213536 2.49852e-21)
(0.969197 -0.231957 9.70806e-24)
(0.742285 0.446135 -8.47819e-23)
(0.157254 -0.161311 3.08309e-23)
(0.275271 0.0599233 0)
(0.357127 -0.165049 -4.07249e-21)
(0.463276 -0.0335942 7.58833e-21)
(0.102213 -0.115778 -6.94281e-21)
(0.784525 0.452578 6.80718e-21)
(1.00017 -0.274539 2.08231e-21)
(0.415749 0.0946396 -2.27226e-21)
(0.495767 -0.153184 2.27125e-21)
(0.203856 -0.0606088 0)
(-0.00267808 -0.0266544 7.84933e-21)
(0.984778 -0.410472 0)
(0.886419 0.378953 -2.7002e-21)
(0.910263 0.295195 4.7018e-21)
(0.00381436 0.00534421 0)
(0.925788 -0.476306 1.21377e-21)
(0.0385823 0.0408547 0)
(0.971248 0.233107 0)
(0.892277 -0.554199 -1.51987e-22)
(0.725917 0.301098 6.03377e-21)
(0.76209 0.309305 -8.36308e-21)
(0.84639 -0.321446 -5.41797e-21)
(0.872619 -0.349143 2.53282e-21)
(0.0655526 -0.0586267 3.6602e-21)
(0.046253 -0.0435021 -9.40176e-21)
(0.0137754 0.0143801 4.46249e-22)
(0.908908 0.274714 -4.60026e-21)
(0.908112 -0.490302 0)
(0.390926 0.00642723 1.72587e-23)
(0.249478 -0.010923 0)
(0.381457 -0.124888 0)
(0.212055 0.119282 -1.52897e-20)
(0.627674 0.0527038 3.02198e-21)
(0.561489 -0.339323 0)
(0.30443 0.171753 -2.32646e-21)
(0.465255 -0.304752 0)
(0.622794 -0.0161232 1.15645e-20)
(0.849892 0.392408 0)
(-0.0230483 -0.00666748 6.44111e-21)
(0.905841 -0.419799 6.37443e-22)
(0.512778 0.169426 -4.5062e-21)
(0.619221 -0.210801 -2.23402e-21)
(0.149777 -0.06766 -7.46796e-21)
(0.76178 0.35773 -3.48829e-21)
(0.727661 0.329529 3.25575e-21)
(0.908856 -0.315521 -1.42134e-21)
(0.0675939 -0.075574 -4.1892e-21)
(0.867118 -0.303661 1.45464e-21)
(0.076517 -0.0758794 3.91347e-21)
(0.893596 0.405785 6.29676e-21)
(0.98672 -0.423428 1.47724e-21)
(-0.0210624 -0.0134997 2.11854e-21)
(0.649648 0.26909 0)
(0.772554 -0.277414 3.7524e-21)
(0.100295 -0.0795146 -2.17172e-20)
(0.3983 0.191347 0)
(0.316356 -0.209546 6.96753e-21)
(0.608288 -0.0941007 -2.77523e-22)
(0.0517432 0.0502497 0)
(0.945367 0.218511 0)
(0.879984 -0.544174 0)
(0.827245 0.313538 0)
(0.909222 -0.401268 6.65476e-21)
(0.0199535 -0.0207407 9.44522e-21)
(0.485526 0.19446 0)
(0.625261 -0.171858 0)
(0.198495 -0.124889 0)
(0.583792 0.122708 0)
(0.614453 -0.297893 0)
(0.132722 0.0228604 0)
(0.285123 0.167382 2.15277e-21)
(0.505964 -0.330788 0)
(0.638004 0.00401868 -6.24639e-21)
(0.213857 0.107155 1.48137e-20)
(0.606531 0.0484171 6.63335e-21)
(0.547734 -0.321191 -7.51763e-21)
(0.747542 0.226037 -6.96223e-21)
(0.799708 -0.386721 0)
(0.0540935 0.00145339 -2.22669e-20)
(0.193238 0.0565008 0)
(0.534562 0.0527398 -1.45536e-20)
(0.506371 -0.259846 -1.94686e-21)
(0.667742 -0.432933 -3.28718e-21)
(0.727822 0.0858048 -6.81771e-21)
(0.712875 -0.449184 0)
(0.753291 0.116069 -3.93457e-21)
(0.194623 0.132395 -7.23309e-21)
(0.15714 0.10843 6.9475e-21)
(0.610572 0.0945992 -9.23403e-22)
(0.602355 -0.3277 -3.87008e-21)
(0.152863 0.0576552 4.27718e-21)
(0.924178 0.381791 2.69576e-21)
(-0.0219056 -0.0124184 -2.47096e-21)
(0.973274 -0.446305 2.2695e-21)
(0.868189 0.400458 1.70389e-21)
(-0.0230126 -0.00817621 9.67363e-22)
(0.94564 -0.420084 0)
(0.836719 0.33232 -1.249e-22)
(0.927463 -0.398064 0)
(0.0156596 -0.0267764 -1.14093e-20)
(0.461542 0.258135 0)
(0.689553 -0.106124 -1.55548e-21)
(0.327043 -0.244914 -4.03121e-21)
(0.591269 0.0775225 -6.01184e-21)
(0.173611 0.073373 0)
(0.570308 -0.308836 0)
(-0.0197705 -0.00656813 0)
(0.957614 -0.477863 0)
(0.946823 0.347278 -2.20074e-21)
(0.426515 0.232899 0)
(0.657522 -0.0904164 3.45104e-21)
(0.340497 -0.238963 -1.04778e-21)
(0.190857 0.0702586 0)
(0.551027 0.0525466 0)
(0.514044 -0.275181 0)
(0.551901 0.102637 -3.02406e-21)
(0.579757 -0.276996 0)
(0.143819 0.0182375 0)
(0.698994 -0.272566 2.2794e-23)
(0.105774 -0.0495341 5.08016e-21)
(0.620912 0.245483 -9.34846e-21)
(0.741009 -0.264644 0)
(0.108938 -0.0741073 2.24398e-20)
(0.913593 0.339253 5.33289e-21)
(-0.00799857 -0.00965399 -7.11687e-21)
(0.960287 -0.453973 5.42367e-21)
(0.0389871 0.0379925 -6.52971e-21)
(0.913593 0.235096 -2.89084e-21)
(0.883804 -0.51604 -6.21082e-21)
(0.95613 0.269067 7.63343e-21)
(0.915923 -0.518403 0)
(0.0122216 0.0209787 6.40139e-21)
(0.540675 -0.400474 3.37401e-21)
(0.728552 -0.0036026 -2.64484e-21)
(0.349732 0.24457 -7.08835e-21)
(0.539729 0.142355 5.93658e-21)
(0.772387 0.462847 -3.53211e-21)
(0.121563 -0.130229 4.27376e-21)
(1.00383 -0.263473 -9.69849e-24)
(0.924521 -0.518358 0)
(0.966028 0.289557 2.13422e-21)
(0.00089845 0.011492 0)
(0.385627 0.0333388 1.12289e-20)
(0.235443 -0.031468 0)
(0.413631 -0.129204 -3.70486e-21)
(0.539713 0.225694 0)
(0.674268 -0.20882 2.17322e-22)
(0.164892 -0.104859 -4.2262e-21)
(0.0507653 0.0481257 -5.02045e-21)
(0.921723 0.222118 0)
(0.874726 -0.53068 7.15592e-21)
(0.5737 0.16418 0)
(0.682763 -0.279534 -9.24034e-21)
(0.106148 -0.0365926 0)
(-0.0257175 -0.00982712 0)
(0.937075 -0.452119 -1.49961e-21)
(0.9178 0.379206 0)
(0.313568 0.219822 7.66911e-21)
(0.730755 0.0145595 0)
(0.575501 -0.422868 0)
(0.930782 0.26066 -6.6967e-21)
(0.906634 -0.50733 0)
(0.0178455 0.0219913 3.64572e-23)
(0.678814 0.106202 -7.80269e-21)
(0.657578 -0.387812 -2.88968e-21)
(0.148671 0.0833138 9.8013e-21)
(0.64622 0.286639 0)
(0.781498 -0.263992 -3.5117e-21)
(0.113715 -0.0931406 -2.25677e-21)
(0.81976 -0.54205 9.53006e-21)
(0.887421 0.15822 5.21643e-21)
(0.118036 0.0988483 -3.95045e-21)
(0.79242 0.12455 0)
(0.745253 -0.479003 3.94199e-21)
(0.152511 0.111238 1.43616e-22)
(-0.0257204 -0.00973573 4.98768e-21)
(0.913643 -0.46017 0)
(0.924167 0.366627 1.68631e-21)
(0.365885 0.211732 -1.02101e-20)
(0.421993 -0.291339 5.01429e-21)
(0.649491 -0.0490532 4.96126e-22)
(0.781679 0.416935 -1.69503e-21)
(-0.0177435 -0.00242216 5.33733e-22)
(0.922799 -0.364845 0)
(0.23809 0.0185234 -2.298e-21)
(0.429469 0.00529933 8.68055e-21)
(0.392858 -0.157712 -1.11697e-20)
(0.67654 0.143807 -3.1295e-21)
(0.658088 0.113537 -3.38228e-23)
(0.690878 -0.371052 7.05806e-21)
(0.650413 -0.367565 6.91519e-21)
(0.138773 0.0670015 -7.79459e-21)
(0.108231 0.0448276 4.01867e-21)
(0.0792699 -0.0970328 9.08763e-21)
(0.803775 0.456931 -3.63707e-21)
(1.02296 -0.287589 0)
(0.611753 0.279997 0)
(0.757526 -0.234894 0)
(0.144972 -0.112521 8.97659e-21)
(0.825401 0.149043 1.39148e-21)
(0.780459 -0.499776 0)
(0.126284 0.0957763 0)
(0.797096 0.339501 -3.0324e-21)
(0.913429 -0.356153 0)
(0.0366524 -0.0474119 -4.13636e-21)
(0.329288 -0.0103365 -2.36748e-21)
(0.357459 -0.0621794 -3.41383e-21)
(0.301086 -0.0509893 1.18521e-21)
(0.732564 0.129227 5.0094e-21)
(0.712959 -0.427739 0)
(0.132977 0.0854132 6.69008e-21)
(0.618243 0.29842 0)
(0.776749 -0.22819 -4.3496e-21)
(0.153574 -0.126252 5.72297e-21)
(0.589299 0.189886 -9.60316e-21)
(0.625748 0.2094 7.7327e-21)
(0.375135 0.225605 8.07683e-21)
(0.433292 -0.307661 -1.45052e-20)
(0.667568 -0.0448729 1.08884e-20)
(0.756919 0.154456 5.14842e-21)
(0.746781 -0.438683 -5.91553e-21)
(0.104776 0.0666007 -6.10289e-21)
(0.821875 0.345285 1.11203e-20)
(0.0238412 -0.0379636 1.4639e-20)
(0.932691 -0.375456 3.1519e-21)
(0.305053 0.156704 3.55445e-21)
(0.440986 -0.285583 0)
(0.602177 -0.0191256 -3.89824e-21)
(0.213483 0.152358 7.83007e-21)
(0.745443 0.0775535 3.8917e-21)
(0.668717 -0.452805 0)
(0.708945 0.359636 1.13462e-21)
(0.878885 -0.262922 3.65492e-21)
(0.116905 -0.113616 -2.58975e-21)
(0.340876 0.216047 -6.61135e-22)
(0.49333 -0.348462 0)
(0.681458 -0.0135241 -8.28365e-21)
(0.738635 0.379594 0)
(0.761205 0.380199 0)
(0.913092 -0.278135 2.28311e-21)
(0.102901 -0.106165 6.75037e-21)
(0.926502 -0.302503 -3.22416e-21)
(0.079736 -0.0873962 -7.15635e-21)
(-0.0172771 -0.00997114 5.49411e-21)
(0.967371 -0.462675 0)
(0.933947 0.357365 3.26766e-21)
(0.693412 0.319526 0)
(0.836578 -0.281977 1.72206e-21)
(0.0981065 -0.0901881 -2.33391e-21)
(0.799594 -0.385641 -9.98838e-22)
(-0.0173371 -0.00304302 -7.93291e-21)
(0.753402 0.375258 -3.10028e-21)
(0.496106 0.023322 1.17784e-20)
(0.218712 0.0544865 0)
(0.44947 -0.220262 4.09124e-21)
(0.676483 0.191282 -7.26273e-21)
(0.73228 -0.346598 0)
(0.0790918 0.003927 -1.317e-20)
(-0.000881266 -0.0143517 4.53837e-21)
(0.88864 0.334227 -9.83734e-21)
(0.94888 -0.436252 -4.29494e-21)
(0.592356 -0.412503 4.38175e-21)
(0.711791 0.0317681 0)
(0.271828 0.188434 9.54749e-21)
(0.839857 -0.540714 1.12711e-20)
(0.90124 0.18099 3.15963e-21)
(0.0906329 0.0774709 0)
(0.625291 -0.251937 4.83169e-21)
(0.127318 -0.0307357 0)
(0.696464 0.238631 -7.82039e-21)
(0.773468 -0.331899 -3.22536e-21)
(0.0672896 -0.0308612 -4.01594e-21)
(0.615011 -0.266401 -1.67617e-22)
(0.125348 -0.0153883 -1.88969e-23)
(0.849137 0.436705 7.44582e-21)
(0.025059 -0.0524201 -1.06929e-20)
(1.02697 -0.345989 2.58179e-21)
(0.527046 -0.411227 -4.39108e-21)
(0.750697 -0.0169996 -8.24788e-22)
(0.383276 0.271114 0)
(0.728067 0.25682 7.96727e-21)
(0.813162 -0.349849 3.93414e-21)
(0.0542461 -0.0249559 9.74859e-21)
(0.602215 0.11779 0)
(0.617133 -0.317755 2.83353e-21)
(0.134412 0.0373934 0)
(0.638987 0.0323621 3.8637e-21)
(0.542056 -0.348675 0)
(0.246524 0.141311 0)
(0.449155 0.123017 3.14961e-21)
(0.538554 -0.176371 5.34937e-21)
(0.183676 -0.0671106 -9.0081e-24)
(0.24367 0.17391 -9.71564e-21)
(0.736638 0.0573015 -9.43768e-21)
(0.640146 -0.441172 -1.17775e-20)
(0.931293 0.31492 3.98442e-21)
(0.943201 -0.476097 -4.57854e-21)
(-0.00593032 -0.000780823 -1.07103e-22)
(0.847445 -0.524489 -7.6757e-21)
(0.890859 0.193763 -3.20249e-21)
(0.0751094 0.0651584 -5.0447e-21)
(0.58025 0.367598 7.19718e-21)
(0.299458 -0.254549 -3.72411e-21)
(0.822521 -0.138319 0)
(0.772325 0.423157 -1.985e-21)
(0.749014 0.407656 1.83954e-21)
(0.940933 -0.266861 7.21888e-22)
(0.968738 -0.277415 -2.92999e-21)
(0.100542 -0.110112 2.45237e-21)
(0.115356 -0.120781 2.18398e-21)
(-0.0187638 -0.00226052 8.05805e-21)
(0.83987 -0.379786 1.10002e-21)
(0.767525 0.383107 -1.14257e-21)
(0.796865 0.424657 1.18246e-22)
(-0.0166977 -0.00478445 0)
(0.954066 -0.365331 0)
(0.712837 0.162667 1.1576e-20)
(0.731816 -0.392173 1.54084e-21)
(0.0971058 0.0441034 0)
(-0.0122551 -0.0125838 1.37014e-20)
(0.918875 0.353104 -4.11105e-21)
(0.971371 -0.450426 0)
(0.654669 0.374495 -1.01858e-20)
(0.685369 0.383596 7.60439e-21)
(0.85729 -0.206891 -3.95553e-21)
(0.881441 -0.2266 -1.49557e-21)
(0.19642 -0.175942 4.31075e-21)
(0.165264 -0.153126 2.16345e-21)
(-0.00547603 0.00594419 0)
(0.906432 -0.527496 0)
(0.993177 0.285945 -1.11082e-21)
(0.730873 0.41171 1.99046e-21)
(-0.0163333 0.00083539 -4.9975e-21)
(0.892466 -0.343297 0)
(0.416081 -0.0480705 1.02983e-23)
(0.294665 0.0346639 -5.06725e-21)
(0.316672 -0.114439 -2.50204e-21)
(0.803969 0.397461 3.15096e-21)
(0.895749 -0.395988 -9.32526e-22)
(-0.0206587 -0.00380233 -1.00124e-20)
(0.509443 0.273882 -8.84473e-21)
(0.711625 -0.139735 7.06709e-21)
(0.273093 -0.209169 4.41424e-23)
(0.953768 0.335071 -9.03072e-23)
(0.950248 -0.488004 -6.00163e-21)
(-0.0159641 -0.00330871 2.80068e-21)
(0.700292 -0.392808 -3.92236e-23)
(-0.015042 -0.00748912 9.1571e-21)
(0.734341 0.312772 9.38521e-22)
(0.327499 0.146988 4.74085e-21)
(0.367459 -0.221507 2.9707e-22)
(0.562367 -0.0513536 -1.25543e-20)
(0.44937 0.0302872 0)
(0.437068 -0.182768 1.23685e-20)
(0.21379 0.0157145 -6.39865e-21)
(0.878141 0.420733 -6.40897e-21)
(-0.0179114 -0.0148282 -6.31503e-21)
(0.996842 -0.409029 5.61831e-23)
(0.472695 0.0405706 0)
(0.457594 -0.202526 4.28137e-21)
(0.201289 0.030126 9.05398e-21)
(0.393233 -0.0444636 -5.13517e-21)
(0.296012 0.0156297 5.35198e-21)
(0.317558 -0.0970902 -1.32463e-21)
(0.298941 0.219507 4.6725e-21)
(0.759819 0.0314964 3.28849e-21)
(0.620456 -0.460125 -6.45333e-21)
(0.479289 -0.0179534 0)
(0.382294 -0.18293 0)
(0.259357 0.0738874 -7.52302e-22)
(0.499368 0.00882226 -6.33193e-21)
(0.426042 -0.208846 -3.31457e-21)
(0.240789 0.07233 -1.06431e-22)
(0.546213 0.349203 -1.09516e-20)
(0.795412 -0.119248 5.26067e-21)
(0.335156 -0.282145 7.45221e-21)
(-0.00936189 -0.0238031 -9.56226e-21)
(-0.0142116 -0.0201986 9.731e-21)
(1.01085 -0.406674 -1.58988e-21)
(0.999993 -0.420609 -1.15904e-21)
(0.889814 0.414315 -5.62737e-21)
(0.901002 0.403788 8.42853e-21)
(0.947883 0.316974 -4.94574e-21)
(0.944791 -0.485898 3.86472e-21)
(-0.00925684 0.00161559 0)
(0.287318 -0.256596 -4.82086e-21)
(0.610133 0.395862 -2.24266e-21)
(0.855043 -0.147061 0)
(0.386571 0.211528 0)
(0.379427 -0.261772 4.58364e-21)
(0.64082 -0.0676457 -3.85312e-21)
(0.808051 0.105898 0)
(0.73664 -0.500009 -4.07904e-21)
(0.183626 0.137616 -1.48576e-22)
(0.776895 -0.44974 -1.27238e-21)
(-0.0214469 -0.012865 0)
(0.871387 0.315714 2.95128e-21)
(0.0229837 0.0294398 0)
(0.975171 0.252136 0)
(0.901192 -0.545769 -2.70272e-21)
(0.892519 0.394106 -2.0791e-21)
(-0.0243355 -0.0100707 0)
(0.955265 -0.434764 1.4717e-21)
(-0.0121678 -0.00499487 3.40044e-32)
(0.656537 -0.36672 2.22392e-22)
(0.67483 0.30158 -8.98177e-22)
(0.6894 -0.321671 -2.29145e-22)
(-0.0116568 0.000166016 -3.39239e-32)
(0.640111 0.34497 8.12183e-22)
(0.813348 -0.437467 7.9034e-21)
(0.795101 0.209318 0)
(0.0620698 0.0327452 1.29688e-20)
(0.869957 -0.505036 8.43961e-22)
(-0.0175474 -0.00683853 0)
(0.982482 0.303997 0)
(0.847679 0.306411 4.92411e-21)
(0.910542 -0.42209 -4.09822e-21)
(0.0150267 -0.0119173 -6.70327e-21)
(0.834881 0.462966 -7.23498e-21)
(0.0111866 -0.0356745 -3.82111e-21)
(1.05279 -0.337135 0)
(0.513991 0.147459 -2.41166e-21)
(0.143105 -0.0433138 2.54652e-21)
(0.604781 -0.228893 -2.33485e-21)
(0.908371 -0.535534 0)
(0.00220792 0.0129512 -4.66228e-21)
(0.990588 0.275896 -1.3502e-21)
(0.788066 0.0900208 3.80424e-21)
(0.206805 0.154631 2.65658e-21)
(0.709586 -0.486497 0)
(0.794418 -0.491897 0)
(0.825865 0.166457 0)
(0.102361 0.0791181 -4.72544e-21)
(-0.00338257 -1.50897e-05 0)
(0.392932 -0.194918 -3.69088e-22)
(0.386882 0.186688 -2.00522e-22)
(0.790754 -0.407082 -8.20326e-22)
(-0.0185307 -0.00577153 5.53186e-21)
(0.780423 0.360387 1.48471e-21)
(0.480855 0.123766 6.25127e-21)
(0.161318 -0.0440065 -6.06969e-21)
(0.559868 -0.207698 -2.71371e-21)
(0.924404 -0.504611 -4.86398e-21)
(0.9777 0.315646 2.28669e-21)
(-0.0149365 -0.000584365 0)
(-0.0069431 0.00379154 4.87064e-21)
(1.00211 0.28523 0)
(0.888646 -0.530027 3.68704e-21)
(0.903724 0.374375 2.99744e-21)
(-0.00980003 -0.019403 -1.46558e-20)
(0.984074 -0.42775 -5.04676e-21)
(0.0518636 -0.0730961 1.09825e-20)
(1.01212 -0.319652 -3.11484e-21)
(0.822808 0.436279 0)
(0.52738 0.355099 1.38436e-20)
(0.797784 -0.102638 -6.70415e-21)
(0.377841 -0.316788 7.0609e-21)
(0.92359 -0.24304 -1.06705e-21)
(0.720075 0.41119 -4.38629e-21)
(0.150832 -0.148141 6.74684e-21)
(0.047025 -0.0706637 9.82981e-21)
(0.826737 0.463491 0)
(1.04717 -0.313368 1.89453e-21)
(0.53933 0.264465 2.22801e-21)
(0.580495 0.289592 0)
(0.710216 -0.176305 7.39902e-21)
(0.752492 -0.197171 -7.91155e-21)
(0.21312 -0.15676 -4.71594e-21)
(0.191471 -0.151661 0)
(0.5065 0.257726 2.17723e-21)
(0.693741 -0.150838 0)
(0.250343 -0.183637 -2.22959e-21)
(0.642542 0.385633 0)
(0.859063 -0.191121 6.38678e-21)
(0.221647 -0.198129 -1.55471e-21)
(0.83046 -0.507507 3.88631e-21)
(0.865405 0.186808 -3.4248e-21)
(0.0795741 0.0639924 1.03309e-20)
(0.932507 -0.508497 0)
(0.958138 0.305633 -7.71174e-22)
(-0.00664204 0.0057276 0)
(0.0472616 0.0387964 3.33547e-21)
(0.880967 0.224682 2.10396e-21)
(0.865597 -0.497705 2.50133e-21)
(0.741071 -0.329201 9.04793e-24)
(-0.0134272 0.00112101 -4.02806e-24)
(0.670796 0.364629 0)
(0.38676 0.163073 -4.32938e-21)
(0.396488 0.153752 0)
(0.287826 -0.170454 1.10024e-21)
(0.570201 -0.100272 -1.51572e-20)
(0.263064 -0.148262 -1.39222e-21)
(0.559625 -0.116927 9.68438e-21)
(0.584342 0.34571 0)
(0.540714 0.317962 1.41593e-21)
(0.285557 -0.230218 -1.74946e-23)
(0.801141 -0.162708 -4.18655e-21)
(0.258527 -0.213348 -1.1359e-20)
(0.762349 -0.14207 8.96502e-21)
(0.685174 -0.408592 0)
(-0.0164928 -0.0109204 -9.99767e-21)
(0.770538 0.300727 0)
(0.932272 -0.499695 3.07684e-21)
(0.970388 0.317634 -7.56795e-22)
(-0.0142639 -0.000901602 -2.93995e-21)
(0.412466 0.249633 2.64795e-21)
(0.416827 -0.309053 5.17875e-21)
(0.691322 -0.0617662 -1.22413e-20)
(0.793356 -0.524254 -8.54426e-21)
(0.855486 0.1432 -8.77209e-21)
(0.134261 0.108311 0)
(0.0665118 -0.0856495 -1.17445e-20)
(1.00299 -0.307044 3.3134e-21)
(0.809318 0.435936 0)
(0.86973 -0.437853 0)
(0.869687 0.369512 0)
(-0.0237353 -0.00834996 0)
(0.882308 -0.454314 0)
(0.900037 0.360042 -3.11664e-21)
(-0.0251475 -0.00979318 0)
(0.684798 0.365252 4.24538e-21)
(0.866624 -0.241948 -2.27143e-21)
(0.146253 -0.135504 -3.20224e-21)
(0.281316 0.138009 1.25049e-21)
(0.450289 -0.275223 0)
(0.582328 -0.00455579 -4.19044e-21)
(0.90903 0.384795 -3.49248e-21)
(-0.0135634 -0.018293 -8.50569e-21)
(0.993335 -0.428922 7.22909e-21)
(0.826741 -0.460501 0)
(0.821476 0.211665 0)
(0.0597665 0.0414183 -1.11887e-20)
(0.0171204 -0.0391102 -2.79774e-21)
(0.960626 -0.381222 -5.318e-21)
(0.843567 0.370758 -1.01685e-20)
(0.515021 0.308898 -1.44236e-21)
(0.318414 -0.253458 7.61224e-21)
(0.747739 -0.124638 -4.63695e-21)
(0.664727 0.0834935 7.55331e-21)
(0.621787 -0.375053 -4.27901e-21)
(0.181944 0.104139 -9.56676e-21)
(0.354284 0.18117 -8.15018e-23)
(0.385259 -0.255271 1.51742e-21)
(0.609506 -0.0561589 5.04757e-21)
(-0.0183143 -0.0129604 3.31826e-21)
(0.980036 -0.449167 -3.05403e-21)
(0.924733 0.373586 -3.62593e-21)
(0.792336 0.362777 1.92174e-21)
(0.930539 -0.339807 1.68271e-21)
(0.0475084 -0.0605978 0)
(0.336528 0.139443 4.69497e-21)
(0.336992 -0.194269 -9.64235e-21)
(0.547325 -0.0654442 8.29402e-21)
(0.829519 0.469812 -2.95386e-21)
(0.0354966 -0.0596935 -4.3464e-21)
(1.05843 -0.318783 -1.31358e-22)
(0.481122 0.212568 2.71124e-21)
(0.639802 -0.160683 0)
(0.219679 -0.146494 0)
(0.532027 0.0793626 1.12097e-20)
(0.535172 -0.258088 -2.62523e-21)
(0.166355 0.0342714 0)
(0.786016 -0.464652 0)
(0.798661 0.168861 -7.35922e-21)
(0.0939732 0.0683972 4.94913e-21)
(0.818881 0.441782 0)
(-0.0105857 -0.0130666 1.34232e-21)
(1.0089 -0.360862 -1.18134e-21)
(0.816249 0.452504 -2.66731e-21)
(-0.00435437 -0.0181714 -4.27919e-21)
(1.02713 -0.347103 1.49366e-21)
(0.0230266 -0.0469884 -2.5415e-21)
(0.973818 -0.367261 2.98382e-21)
(0.839751 0.3864 9.36576e-21)
(0.690633 0.0705555 3.40128e-21)
(0.632486 -0.403507 8.58864e-21)
(0.205154 0.126274 0)
(-0.0129554 -0.00630431 -1.22963e-21)
(0.978373 -0.352733 1.10791e-21)
(0.781967 0.433897 0)
(0.0060711 -0.00875231 0)
(0.928844 -0.439093 3.15378e-21)
(0.876795 0.3141 1.14868e-21)
(-0.00905664 -0.00561999 -5.00288e-21)
(0.555741 -0.339116 -4.85934e-22)
(0.603422 0.250453 0)
(0.541958 0.320561 1.10556e-21)
(0.613598 -0.265588 0)
(-0.00859005 0.00266859 -5.00099e-21)
(0.0417856 -0.065515 6.69499e-24)
(1.03316 -0.326388 3.4568e-22)
(0.832342 0.450404 0)
(-0.0243647 -0.010098 0)
(0.956619 -0.459392 0)
(0.93296 0.372061 -4.46829e-21)
(0.880092 0.413175 3.17157e-21)
(0.87351 0.402614 -2.5657e-21)
(-0.000330933 -0.0322491 4.80169e-21)
(1.01568 -0.388494 5.50859e-22)
(0.00349925 -0.0347996 0)
(1.00228 -0.38848 0)
(0.882709 0.296658 -2.24788e-21)
(0.917718 -0.454461 -2.14689e-21)
(0.0088417 -0.000330891 0)
(0.171551 0.136728 0)
(0.763325 -0.525941 0)
(0.842287 0.11848 0)
(0.389517 0.120695 -5.85935e-21)
(0.241609 -0.113501 1.33765e-20)
(0.519627 -0.124299 -5.35125e-21)
(0.869212 0.252359 -6.48966e-21)
(0.87954 -0.472711 -8.40645e-22)
(0.0286354 0.0203572 -9.82229e-21)
(0.0426743 0.0316453 -6.38816e-21)
(0.860982 0.23421 9.02579e-21)
(0.861133 -0.478625 1.1657e-21)
(0.811053 0.472159 -3.56248e-21)
(0.0696134 -0.0898496 -4.69956e-21)
(1.0448 -0.291039 0)
(0.598329 0.362585 0)
(0.822712 -0.163536 -1.89725e-21)
(0.259761 -0.221343 1.11347e-20)
(0.541575 0.29735 0)
(0.742609 -0.152571 -9.27928e-21)
(0.260727 -0.207975 1.17758e-23)
(0.787035 0.240188 8.84312e-21)
(0.833087 -0.41506 -1.07907e-21)
(0.0431396 0.00698768 5.64667e-21)
(0.806689 0.235638 0)
(0.838346 -0.432748 -1.02147e-21)
(0.0439507 0.0161514 -5.1744e-21)
(0.314332 0.114875 0)
(0.341131 -0.182404 1.52066e-20)
(0.516996 -0.0552755 0)
(0.591784 0.306658 0)
(0.769982 -0.195659 5.10455e-21)
(0.195995 -0.163353 -1.695e-21)
(0.0127167 0.0212379 1.00949e-20)
(0.895868 -0.547516 6.01363e-21)
(0.997246 0.260409 0)
(0.918991 0.341765 6.48282e-23)
(-0.0241647 -0.01101 -3.07323e-21)
(0.851018 -0.466624 -9.7186e-22)
(0.91022 0.321706 1.80523e-22)
(-0.0226855 -0.0124579 0)
(0.817056 -0.46499 2.6866e-21)
(0.432547 0.220208 -3.21415e-21)
(0.307587 -0.210095 1.64325e-21)
(0.641245 -0.108437 1.42062e-22)
(0.817645 -0.425654 -1.84803e-22)
(-0.0215896 -0.00855222 -1.26968e-20)
(0.840913 0.354507 0)
(0.81607 0.385868 -8.18802e-21)
(0.0396321 -0.0585892 0)
(0.961015 -0.346062 0)
(-0.0203924 -0.011092 5.03739e-21)
(0.770495 -0.436221 1.10266e-21)
(0.836887 0.325228 -2.1953e-21)
(0.424609 0.0536388 -7.80429e-21)
(0.20919 -0.01657 -8.13007e-21)
(0.450764 -0.162446 -3.41464e-23)
(0.644565 0.235943 1.36249e-21)
(0.746519 -0.291026 1.20512e-21)
(0.0921809 -0.0524053 5.15181e-21)
(0.590109 -0.387365 -9.87726e-21)
(0.677025 0.0477824 -1.23247e-20)
(0.238087 0.146451 0)
(-0.0158588 -0.00372185 0)
(0.889796 -0.509832 1.13802e-21)
(0.986938 0.306412 0)
(0.813681 -0.472554 0)
(0.823513 0.195735 0)
(0.0725083 0.0530514 0)
(0.0190133 -0.045234 0)
(0.842243 0.460192 2.6134e-21)
(1.05338 -0.336929 -1.79204e-21)
(0.684529 0.254202 0)
(0.780412 -0.315147 -6.15756e-22)
(0.0751591 -0.0446368 -3.42216e-24)
(0.37539 0.102122 5.66035e-21)
(0.245831 -0.103893 -1.14912e-20)
(0.494561 -0.117448 0)
(0.916507 -0.499691 4.59814e-21)
(0.970941 0.327473 -2.17272e-21)
(-0.0194561 -0.00490529 0)
(0.00335065 -0.0221685 5.83041e-21)
(0.951286 -0.418873 -1.98308e-22)
(0.870476 0.34737 -2.07677e-22)
(0.853466 0.423833 0)
(0.841272 0.421001 -2.38506e-21)
(-0.0173132 -0.0113236 -3.08736e-21)
(-0.0192374 -0.00830218 3.81914e-21)
(0.988747 -0.390388 8.48095e-22)
(0.96912 -0.393456 -6.97479e-22)
(0.648278 0.149438 0)
(0.674837 -0.347561 -8.21081e-21)
(0.108574 0.0301898 -6.28417e-21)
(0.780101 -0.418031 -1.1121e-20)
(0.761856 0.189374 0)
(0.073557 0.037529 6.86483e-21)
(0.49437 0.0927667 6.36652e-21)
(0.531835 -0.225905 -4.46074e-21)
(0.15908 -0.00325428 -9.94144e-21)
(0.876685 -0.484388 -2.4785e-21)
(0.949556 0.334259 -2.38056e-21)
(0.861079 -0.493416 1.11848e-21)
(-0.0235195 -0.00993563 3.2553e-21)
(0.96116 0.317099 2.23224e-21)
(-0.0209569 -0.00984573 0)
(0.763737 0.292044 0)
(0.856467 -0.363317 0)
(0.0431512 -0.0324009 -6.36621e-21)
(0.958568 0.341136 -2.59529e-21)
(0.950065 0.343522 6.60481e-21)
(0.924283 -0.48651 -1.62117e-21)
(0.907235 -0.479727 4.36374e-21)
(-0.02317 -0.00767137 -8.59674e-21)
(-0.0244791 -0.00910958 9.28279e-24)
(0.740499 0.172367 0)
(0.7511 -0.41828 1.05387e-20)
(0.0944268 0.054035 -8.90051e-21)
(0.602376 0.171243 -5.93904e-21)
(0.69923 -0.303598 7.34884e-21)
(0.0927296 -0.0211467 0)
(0.839786 0.454516 0)
(0.000663297 -0.0266696 -5.91647e-22)
(1.03999 -0.353931 -1.43499e-21)
(0.650157 0.169133 -4.37158e-21)
(0.693493 -0.336826 0)
(0.0953254 0.0143197 1.0397e-20)
(0.530947 0.118191 -2.57668e-21)
(0.58094 -0.255985 5.23439e-21)
(0.138376 -0.00545005 -5.76124e-21)
(0.840109 0.433673 0)
(-0.0127305 -0.0141223 0)
(1.00939 -0.378108 2.04047e-21)
(0.692488 0.276138 0)
(0.808629 -0.306316 -1.23536e-21)
(0.0743955 -0.05844 6.32039e-21)
(0.694714 -0.494061 0)
(0.792436 0.0750442 0)
(0.236366 0.179221 3.41728e-22)
(0.514992 0.321082 3.54238e-22)
(0.760831 -0.113133 0)
(0.339843 -0.275273 -5.84894e-21)
(0.859645 -0.555689 -4.34192e-21)
(0.0756062 0.0687053 0)
(0.936025 0.196103 0)
(-0.00651314 -0.000824554 1.20261e-20)
(0.520324 -0.261327 5.16932e-22)
(0.510239 0.248244 2.80844e-22)
(0.667286 0.208354 0)
(0.732668 -0.325238 -4.50715e-21)
(0.0789854 -0.0167143 0)
(0.866713 0.437024 -4.98345e-21)
(-0.00226101 -0.0284763 -1.61853e-20)
(1.0314 -0.373252 3.70738e-21)
(0.453407 -0.364622 0)
(0.768444 -0.0604336 4.47783e-21)
(0.454582 0.312984 0)
(0.649444 0.378133 0)
(-0.013934 0.00376258 2.96957e-21)
(0.783515 -0.317485 0)
(0.227592 0.0926801 -6.17013e-21)
(0.240142 0.112907 6.3089e-21)
(0.474912 -0.266345 0)
(0.551563 0.0233366 -5.32676e-21)
(0.493183 -0.292409 9.67002e-21)
(0.581253 0.0196656 4.24774e-21)
(0.494596 0.0711822 -5.99268e-21)
(0.50413 -0.223819 -6.00918e-21)
(0.175427 0.0181047 0)
(0.293376 0.130391 -5.463e-21)
(0.259229 0.10631 0)
(0.405873 -0.239586 0)
(0.555905 -0.0264014 0)
(0.42419 -0.237036 5.57645e-21)
(0.53719 -0.00600166 -3.03002e-23)
(0.635856 0.19597 -3.74814e-22)
(0.660809 -0.296097 3.24831e-21)
(0.106779 -0.00832147 7.08917e-21)
(0.608464 0.158482 1.02172e-20)
(0.66019 -0.307521 0)
(0.109134 0.00542406 0)
(-0.0209534 -0.0123835 0)
(0.818569 -0.483581 0)
(0.941681 0.309192 -2.0126e-21)
(0.46837 0.231469 8.84139e-21)
(0.657157 -0.132052 0)
(0.267634 -0.185872 -3.0416e-21)
(0.947709 0.353622 6.06918e-21)
(0.947809 -0.47707 -2.14248e-21)
(-0.0235177 -0.00800809 4.90631e-21)
(0.802036 0.267357 0)
(0.831644 0.282388 -4.73979e-21)
(0.861472 -0.408767 1.34536e-21)
(0.886988 -0.422626 -4.04865e-21)
(0.0310658 -0.00434618 7.00277e-21)
(0.0218967 -0.00442163 6.46978e-21)
(0.456363 0.209088 0)
(0.631089 -0.138906 0)
(0.251 -0.166874 -1.44791e-21)
(0.63069 0.349439 -3.42862e-21)
(0.823363 -0.20082 0)
(0.200205 -0.172542 -3.71148e-21)
(0.742188 0.249737 2.53007e-21)
(0.813471 -0.372569 0)
(0.0484528 -0.0122641 -6.44128e-21)
(0.324834 0.0541295 -6.12107e-21)
(0.436284 -0.0779563 -2.95289e-21)
(0.282882 -0.1039 -3.09643e-21)
(0.844798 0.258132 0)
(0.873368 -0.450535 0)
(0.0288901 0.0127688 1.04446e-20)
(0.36648 0.124016 0)
(0.273379 -0.139793 -1.6846e-21)
(0.522079 -0.101231 0)
(0.734553 0.189654 5.72525e-21)
(0.760151 -0.400961 5.86577e-21)
(0.0774969 0.0285155 8.92143e-22)
(0.628846 0.330187 -3.469e-21)
(0.808186 -0.213169 -5.81683e-21)
(0.177988 -0.154587 0)
(0.332907 0.0776142 6.06618e-21)
(0.315321 0.0801678 2.70713e-21)
(0.464365 -0.0858682 -2.87497e-21)
(0.281047 -0.118744 6.13547e-21)
(0.472607 -0.0695246 0)
(0.306467 -0.141166 1.09032e-20)
(0.282955 0.0957014 2.73167e-21)
(0.368386 -0.194427 -7.08199e-21)
(0.262025 0.0947731 -1.7576e-21)
(0.504773 -0.0330095 0)
(0.414096 -0.223604 -3.57214e-21)
(0.521091 -0.0103646 6.09303e-21)
(0.527857 0.243873 -3.21179e-21)
(0.564665 0.2527 0)
(0.687065 -0.183108 -5.58523e-21)
(0.710419 -0.209411 4.35996e-21)
(0.197451 -0.139187 1.36377e-20)
(0.165957 -0.117066 -1.13463e-20)
(0.0410687 -0.0640044 0)
(0.996603 -0.335938 1.78878e-21)
(0.827497 0.417625 4.75257e-21)
(0.259585 0.190737 -1.15591e-20)
(0.763149 0.0549152 -5.18545e-21)
(0.654756 -0.467184 1.01394e-20)
(0.0255558 -0.0523898 5.48542e-21)
(0.016406 -0.0448742 0)
(1.00789 -0.354648 -1.54732e-21)
(0.996287 -0.370536 -2.72793e-21)
(0.845654 0.421877 -1.20432e-20)
(0.855182 0.405947 6.24162e-21)
(0.359499 0.237459 0)
(0.501965 -0.36607 5.6118e-21)
(0.704438 -0.0193776 -1.20801e-21)
(0.329229 0.0133236 -1.28923e-20)
(0.28639 -0.0652896 0)
(0.385092 -0.0728836 1.01184e-20)
(0.854465 0.278749 2.22965e-21)
(0.893139 -0.444978 4.57122e-21)
(0.0193638 0.00359955 0)
(0.413601 0.183965 0)
(0.280128 -0.18127 1.3796e-21)
(0.5984 -0.111461 4.90367e-21)
(0.652083 0.337293 0)
(0.8266 -0.229335 0)
(0.157357 -0.139152 8.91875e-22)
(0.791047 0.417461 0)
(0.789769 0.40075 0)
(0.975173 -0.303407 -1.03414e-21)
(0.0761434 -0.0906728 6.75023e-21)
(0.960274 -0.312036 2.8167e-21)
(0.0677261 -0.0820421 -9.14057e-21)
(0.792705 0.294101 -4.75494e-21)
(0.877038 -0.382685 -4.33252e-21)
(0.0307772 -0.0230657 -3.04757e-21)
(0.712942 0.39 -2.28659e-21)
(0.838854 -0.345608 0)
(-0.0164687 0.00116763 3.65477e-21)
(0.477418 -0.37367 0)
(0.746908 -0.0436317 -3.64381e-21)
(0.418907 0.285983 0)