/*--------------------------------*- C++ -*----------------------------------*\
  =========                 |
  \\      /  F ield         | OpenFOAM: The Open Source CFD Toolbox
   \\    /   O peration     | Website:  https://openfoam.org
    \\  /    A nd           | Version:  6
     \\/     M anipulation  |
\*---------------------------------------------------------------------------*/
FoamFile
{
    version     2.0;
    format      ascii;
    class       volScalarField;
    location    "0";
    object      p;
}
// * * * * * * * * * * * * * * * * * * * * * * * * * * * * * * * * * * * * * //

dimensions      [0 2 -2 0 0 0 0];

internalField   nonuniform List<scalar> 
13046
(
1.28888
1.26696
1.33414
1.30856
1.3316
1.28756
1.27621
1.29143
1.34053
0.68224
0.648886
1.25745
1.26184
1.20515
1.31775
0.833266
1.25567
0.724321
1.33998
1.32937
1.30139
0.809845
1.25818
0.715977
1.29932
1.3101
1.33394
1.23332
1.20403
1.31741
1.299
1.22753
1.32357
1.32307
1.34181
1.30563
1.325
1.34733
1.32221
1.29165
1.31164
1.19849
1.32563
1.34939
1.33242
1.32158
1.33417
1.3328
1.26987
1.26237
1.33348
1.25766
1.28368
1.10605
1.26814
1.07038
1.28916
0.921745
1.11469
1.26673
1.13249
1.16327
1.29988
1.27033
0.891335
0.925109
1.14776
0.932015
1.26222
1.17597
0.958031
1.26557
0.87551
1.08486
1.26491
1.3393
1.34317
1.27545
1.26533
1.01882
0.863152
1.29045
1.30181
1.33003
1.26606
0.840549
0.871371
0.876189
1.26987
0.941997
1.25678
0.774642
0.938754
1.12698
1.0893
1.08628
1.06126
1.29045
1.29065
1.27053
0.886159
0.973676
1.31915
1.33551
1.32551
1.31539
1.13247
1.28039
1.28789
1.2953
1.14804
0.450297
1.25238
0.430427
1.27222
1.23276
1.31765
1.08722
1.12235
1.00897
1.28132
1.06182
1.28517
0.634528
0.588229
1.25541
1.19817
1.11983
1.30881
1.28416
1.31112
1.19736
1.2576
0.819929
0.994958
1.02013
1.0123
1.28104
1.28225
1.20966
1.31587
1.20197
1.27214
1.31604
1.28078
1.27553
1.14484
1.31137
1.16354
1.2989
1.11509
1.125
1.29306
1.33931
1.23309
1.30135
1.22084
1.05379
1.19957
1.04139
1.28743
1.2862
1.20135
1.24091
1.30096
0.671171
1.2569
0.676194
0.526071
1.25377
0.483411
0.999452
0.972218
1.2789
1.27525
1.11674
1.29894
1.21094
1.30275
1.25766
1.25933
0.747646
0.702269
1.28175
1.14717
1.29334
1.33442
1.20947
1.28994
1.22448
1.27734
1.31601
1.19219
1.31908
1.21395
1.15743
1.30762
0.843406
1.26642
0.871274
1.26617
0.880511
1.00602
0.783275
0.916473
1.25757
1.2395
1.03481
1.26618
1.24007
1.03537
1.25719
0.855722
0.858555
0.754681
1.25597
1.314
1.34448
1.32085
1.24797
1.21355
1.31535
1.26527
0.86019
1.02029
1.21653
1.21003
1.3236
1.2533
0.576285
0.549194
1.26936
1.02966
1.22567
0.842242
0.964286
1.2645
1.11873
1.22535
1.30224
1.18437
1.12549
1.30683
1.09737
0.900806
1.25826
1.00087
1.17232
1.27478
1.25339
0.569065
0.501459
1.29615
1.29939
1.12934
0.494173
1.25118
0.349476
1.33363
1.30375
1.31883
1.13067
1.14676
1.21469
1.23514
1.31052
1.29792
1.25668
0.977566
0.818611
1.21447
1.14455
1.30209
0.987867
1.1321
1.27505
1.04762
1.01082
1.28197
1.33505
1.32274
1.35019
1.08004
1.19811
1.28968
1.21434
1.11138
1.29963
1.22171
1.20961
1.29643
1.28745
1.10111
1.06706
1.1691
1.28639
0.999296
1.27787
0.986881
1.31326
1.29765
1.17244
1.28476
1.02895
1.20666
1.13075
1.02269
1.27873
1.28285
1.26345
1.10043
1.09519
1.07688
0.993836
1.27492
0.982278
1.27768
1.26106
0.780962
0.745788
1.1467
1.08802
1.29027
0.26105
1.24899
0.316617
1.27478
1.31833
1.29173
1.16281
1.18608
1.304
1.27086
0.899747
0.921206
1.2547
1.03373
1.28377
1.06305
0.888319
1.26091
1.25148
1.32281
1.13771
1.16353
1.30258
1.23939
1.3229
0.888581
1.25953
0.775053
1.25065
1.00259
1.26535
1.10897
1.13957
1.29651
1.19022
1.25763
1.31641
1.14124
1.26232
1.30064
1.29624
1.26886
1.33389
1.27206
1.03638
1.21843
0.816967
0.888805
1.26523
1.07146
0.891139
1.26727
1.1965
1.26325
1.00361
1.0517
1.08344
0.952724
0.911411
1.26256
1.26853
1.25143
0.296472
0.373955
0.540491
1.25075
0.390759
1.10316
1.19692
1.28847
1.26351
0.815732
0.820987
1.16178
1.14633
1.01687
0.996671
1.27916
1.27423
1.25048
0.788397
0.638931
0.459578
1.24964
0.280788
1.30079
1.3398
1.33927
0.439022
0.363925
1.25273
1.26329
1.11895
1.29182
0.721478
0.778312
1.2585
0.290035
1.25265
0.184985
1.3017
1.31143
1.22247
1.27899
1.3303
1.33559
0.650001
1.25431
0.57274
1.26412
1.31673
1.33173
1.31243
1.34241
1.34291
1.27776
0.990225
1.22595
1.25895
1.33512
1.33214
1.28292
1.29346
1.31576
1.21808
1.01589
1.26304
1.25802
1.25953
0.71565
0.711918
0.76849
0.750908
0.758826
0.858678
1.26278
1.27126
1.18579
0.958972
1.28239
1.29003
1.15581
0.977978
1.16233
1.263
0.461537
1.24905
0.290835
1.25689
0.755469
0.903325
0.561976
1.25415
0.543134
1.25487
0.231454
0.156083
0.156814
1.25477
0.231858
1.13104
1.03954
1.28107
0.665975
1.24842
0.489171
0.983025
1.0072
1.27952
0.765825
1.2491
0.596245
1.25836
1.3226
1.27135
0.832169
1.25279
0.684919
0.995619
1.26452
1.17814
1.11817
0.987148
1.27955
1.2596
-0.0115615
-0.0112794
0.316656
1.24952
0.276098
1.28002
1.33107
1.27495
0.76809
0.631746
1.25569
1.25067
0.580106
0.756365
0.822366
1.26373
0.817861
1.25941
0.839552
0.953895
1.2382
0.992867
1.26587
0.95549
1.11534
1.27513
1.25643
0.907059
0.732315
1.24724
1.22922
1.14778
1.12161
1.30201
1.30325
1.25819
1.15133
1.30097
1.18359
0.994093
1.28087
1.09426
0.936784
1.2704
0.838171
0.748228
1.25961
1.2685
0.929346
1.04993
0.176123
1.25336
0.28987
1.31094
1.30303
1.32596
1.22666
1.33218
1.24283
1.22591
1.22086
1.2834
1.0382
1.28322
1.08091
0.333114
1.24982
0.190822
0.791902
0.676858
1.25755
1.26791
1.26802
1.09832
1.12714
0.934598
1.26476
1.26053
0.860096
0.985511
0.44436
0.402789
1.25243
0.506661
0.433191
1.25199
1.15344
1.0276
1.28511
1.31935
1.29116
1.19428
0.781789
1.26136
0.759634
1.11201
1.00364
1.2847
1.27502
0.925056
0.968919
1.23516
1.28585
1.08249
1.13235
1.23768
1.29558
1.2952
1.30381
1.17764
1.25994
0.742555
0.734448
1.04666
0.98722
1.27858
1.31219
1.32049
1.23614
0.856336
1.25136
0.67794
1.26108
1.2055
1.31695
1.24912
1.27772
1.32794
1.14035
1.01742
1.28023
0.628826
1.2503
0.464604
0.67118
1.24919
0.490105
1.27232
0.902656
0.966897
1.09143
1.24606
1.28558
1.24797
0.390439
0.565874
1.27359
0.960554
0.939514
1.2534
0.189089
0.0862195
0.186255
0.0859054
1.2532
1.26017
0.769427
0.918233
1.25572
0.64992
0.617474
0.830594
0.871703
1.26044
0.754288
1.2641
0.81386
0.922266
0.982612
1.27349
1.27521
1.14827
0.927381
1.31944
1.33107
1.26447
0.953766
1.02931
1.27542
1.27558
0.971369
1.05433
0.942906
1.25658
0.753187
1.21264
1.0064
1.27935
1.24127
1.09711
1.2832
1.05373
1.11319
1.293
1.03231
1.10162
1.28736
1.31897
1.31375
1.2623
1.22337
1.0951
1.30451
1.25217
0.856997
0.68217
0.405461
1.25071
0.528709
0.352626
1.25171
0.522735
1.27952
1.30834
1.17278
0.397004
1.25263
0.325519
1.00962
1.2744
0.932139
1.2499
0.410238
0.271433
1.31445
1.33586
1.30212
1.19477
1.18255
1.30818
1.25029
1.10554
1.28899
1.2498
0.702946
0.548228
1.10811
1.00826
1.27926
1.25219
0.817737
0.661487
1.15805
1.16097
1.30706
1.32882
1.33877
1.27517
0.701069
0.584095
1.25266
1.27335
0.92524
0.935261
0.609917
0.561353
1.25323
1.25227
0.511086
0.462732
1.16441
1.23007
1.30938
1.15498
1.06911
1.28394
1.26239
1.28728
1.33855
0.596945
0.466649
0.611099
1.25089
0.456853
1.24805
1.09269
1.08297
1.29391
0.575808
0.519208
0.66595
0.617664
1.25444
1.25354
1.07746
1.18299
1.29891
1.20681
1.21677
1.31268
0.724554
1.25065
0.569449
1.18657
1.204
1.30654
1.2517
1.25665
1.3241
0.634216
1.25099
0.511503
1.16217
1.11184
1.29686
1.19917
0.965293
1.26595
1.2408
1.04513
1.27951
1.02888
1.2538
0.829498
1.25636
0.0526194
0.0525655
1.16141
1.18777
1.30717
0.763604
1.25566
0.656047
1.25931
0.996187
1.25347
0.323386
1.25018
0.191139
1.32097
1.305
1.29189
1.21796
1.29224
1.1925
1.26734
1.28816
1.33188
1.30333
1.32207
1.3045
1.22295
1.32296
1.2143
1.18635
1.23391
1.32196
1.20737
1.23955
1.31852
1.24816
0.564826
0.381691
1.27213
1.17461
1.30131
0.629466
0.687073
1.25633
1.03936
1.0019
1.08033
1.03924
1.28633
1.28006
1.26749
1.21345
1.31057
1.18599
1.04997
1.28064
1.10067
1.1271
1.29835
1.32794
1.3057
1.33351
0.9911
1.05232
1.27911
1.30872
1.32124
1.26808
1.10302
1.1743
1.29826
1.18694
1.08359
1.2822
1.32532
1.32499
1.28736
1.34086
1.2861
1.33471
1.31846
1.30704
1.3285
1.26393
1.33563
1.23018
1.25171
1.24364
1.17292
1.17038
1.31065
1.30434
1.2641
0.860553
0.967554
1.26651
1.00032
1.21484
1.26489
1.26652
0.825293
0.846692
0.922718
0.91735
1.27426
1.26873
1.06114
1.33277
1.34137
1.32261
0.978645
1.02124
1.27796
1.29928
1.31712
1.20551
1.17279
1.07286
1.28296
1.0357
1.04334
0.904524
1.27022
0.932015
1.27289
1.05513
1.06238
1.28634
0.37871
0.258068
1.25089
1.2534
1.01977
1.2578
1.24391
1.24943
1.26299
1.01375
1.27705
1.03923
0.958967
1.07824
1.2725
1.19944
1.07038
1.2851
1.27509
1.26408
1.06125
1.24854
1.26058
1.27477
1.29662
1.0996
1.09487
1.2421
1.28196
1.05864
1.0648
1.0861
1.29075
1.31758
1.32408
1.27398
0.694751
1.25476
0.606964
1.26779
1.26713
1.03769
1.18453
1.15606
1.08241
1.06383
1.28568
1.28969
1.25656
0.65613
0.740975
0.730539
1.25334
0.597682
0.686439
1.25319
0.569827
1.00796
1.27081
0.910505
1.21408
1.10251
1.29105
0.790099
0.961013
1.19347
0.799254
1.12753
0.463754
1.05395
0.882891
0.763259
1.11428
1.10998
0.729463
0.803338
1.11244
0.943374
0.816921
0.825658
0.918372
0.958855
1.06713
0.984405
0.906102
1.1315
1.24704
1.20693
0.970047
1.14485
0.743404
1.01132
0.783325
0.760537
1.04804
0.974297
0.966752
0.797218
0.99383
1.18268
1.12782
0.853005
0.988257
0.880746
1.25499
0.825326
1.11039
1.14764
0.899403
0.910906
0.849407
0.737656
0.825856
1.20958
0.988431
0.821233
0.890436
0.757647
1.20261
1.06901
0.982119
0.842058
1.09917
0.820841
0.835197
1.20806
0.908988
0.981716
1.07268
1.00187
1.24211
1.12987
1.1051
0.706314
0.756872
0.881059
1.08958
0.739946
0.965503
0.954364
0.788166
1.08432
1.16248
0.917529
0.968528
0.744636
0.806099
0.890611
1.09763
0.892717
0.822476
0.937983
1.21386
0.823481
1.1004
1.20597
0.971117
0.810461
0.35162
0.801489
0.855177
0.809382
0.701975
1.03886
1.13628
1.16213
1.24846
0.809174
0.791783
0.738048
0.840115
0.805049
1.17989
1.14256
1.06686
0.78725
0.756431
1.00494
1.12621
0.921288
0.823196
0.68962
0.909689
0.960471
1.22277
1.23705
1.0937
0.983235
0.888567
0.734216
1.22776
0.717638
1.08603
0.695998
1.20502
0.746999
0.670611
0.76578
1.16013
0.952983
0.651539
0.817486
1.05694
0.807733
1.10251
1.01985
0.841337
1.14797
0.889006
0.796003
1.17187
0.82331
0.927716
0.73239
0.992217
0.850377
1.16571
1.09901
0.909841
1.08927
1.10416
1.18997
0.959629
0.875641
0.834815
1.09961
0.717587
0.981626
0.746777
1.24365
0.913346
1.16386
1.22454
0.991681
1.23237
1.17188
1.18802
0.774512
0.687937
0.731647
1.19331
0.778912
0.755002
0.70175
0.75855
0.923621
0.888448
0.996419
1.22523
1.09581
0.881549
1.09567
0.870903
1.2496
0.628325
1.1375
0.846874
0.676685
1.21102
1.22795
0.837175
0.855864
1.24336
1.01605
0.834941
0.807219
1.0902
1.18019
1.06188
0.812739
0.843378
1.11523
0.977358
0.80845
0.9928
0.69855
0.773656
0.890384
1.12282
0.697438
0.868087
1.13704
0.885583
0.691364
0.910788
0.827211
0.865476
1.03762
1.05084
0.800809
0.751068
0.752466
1.07089
1.04726
0.91036
1.0558
0.896421
0.779983
1.02144
0.881812
0.669071
1.05464
1.1704
1.00057
1.21087
1.18363
1.25144
0.81464
0.64384
0.93708
0.909155
0.857763
0.707401
1.02491
1.20659
1.0856
1.01687
0.80093
0.916179
1.07944
0.981666
1.04811
0.82544
0.938586
0.878785
0.678839
0.804627
0.844484
0.82141
0.790496
1.05526
0.981313
0.912831
1.06483
0.821203
0.926294
0.827334
0.9116
0.877002
0.86596
1.01093
0.706115
0.633736
0.942159
0.723494
0.691171
1.01599
0.641617
0.694217
1.16668
1.06155
0.813133
1.06465
0.767491
1.04742
0.993241
0.700711
0.820498
1.12766
0.943495
1.09559
0.461691
0.786772
1.17031
0.871361
0.771716
0.609592
0.708499
0.680892
0.715106
0.885605
1.06288
0.781708
0.680022
0.807111
0.861882
1.24984
0.779825
1.08653
1.01691
0.659234
0.891799
0.802442
0.751259
1.04071
0.897666
1.20529
1.05152
0.795878
0.88903
0.99145
1.2462
1.07764
1.18394
1.09958
0.882765
0.997889
0.924517
0.797725
0.712224
0.85789
0.835306
1.05449
0.834604
0.733663
0.819618
0.866863
0.812932
0.821822
1.15021
0.858861
0.849675
1.19478
1.14912
0.804532
0.955053
1.18069
0.827825
0.628708
0.890865
0.785213
0.748243
1.1758
0.812761
0.907367
1.18245
0.695367
0.991255
0.822733
0.994423
0.894502
0.844556
0.380686
0.883597
0.735113
0.858859
0.901675
0.900889
1.08537
1.20559
0.808737
0.962802
0.862757
0.747948
0.663342
1.14053
1.01957
0.864892
0.735855
1.00711
0.728363
0.805225
0.803688
0.797924
1.09967
1.20343
0.874963
1.07294
1.24544
1.14648
1.1388
1.19183
0.83494
0.85747
0.750796
1.24453
1.12795
1.16473
0.842806
0.887943
0.685765
1.08788
0.872134
0.769825
1.16459
1.038
0.730356
0.878192
0.817687
0.818722
0.822776
0.890249
0.913587
0.769795
0.870317
0.715477
0.893643
0.777906
1.03236
0.913843
0.6982
1.18307
1.19708
1.09639
0.86916
0.999352
0.631519
1.11255
0.983444
0.725172
1.17864
0.55232
1.20776
0.726283
0.924467
0.932954
1.09383
1.10543
0.811107
1.22366
0.817104
1.15237
0.925102
1.02352
0.861132
0.786996
0.849855
1.15861
0.924112
1.23954
1.07437
0.70881
0.787447
1.04922
0.583458
0.873335
0.926556
0.772266
1.2135
0.727339
0.70143
1.11985
0.851377
1.20491
1.23473
0.898286
1.24223
1.21998
1.15585
1.17085
1.01727
0.738427
0.820786
0.902346
1.13945
0.896665
0.55178
1.2212
0.783794
0.92201
0.811599
1.18897
1.24777
0.799346
1.14764
1.01283
1.20544
0.882733
1.10538
0.905736
1.22374
1.23676
1.07246
0.81776
1.11501
0.850859
0.941686
0.967113
0.915029
1.01788
0.812311
0.564667
0.752919
0.929135
1.03871
0.980138
1.17312
0.803264
0.867841
1.0363
0.756019
1.1957
0.790691
0.90567
1.18375
1.16206
0.994765
1.22917
0.799147
0.887897
1.1099
0.942718
0.904804
0.922415
0.851705
1.05199
1.08133
0.852459
0.8148
0.996152
0.709519
0.766923
1.20615
1.24413
1.24102
0.882829
1.2509
1.24621
1.21743
0.661373
1.02869
1.01968
1.22987
0.882822
0.801339
0.737231
0.815205
0.518187
1.22095
0.939928
0.950189
1.11019
1.07265
0.8746
0.903345
1.24575
1.22559
1.18314
1.06432
0.865797
1.07071
1.05175
0.880709
0.929559
0.76136
0.814042
0.963218
0.95177
0.855713
1.20493
1.20622
0.666831
1.1594
0.828238
0.813206
0.878178
1.20016
0.910719
1.06747
0.934279
1.18659
0.890957
0.936295
1.23683
0.685576
0.706351
0.802574
0.777077
0.636991
0.301521
0.792398
0.645586
0.960571
0.664794
0.772119
0.95042
0.846199
0.793111
0.86474
0.748031
0.353286
1.22065
1.13948
0.899813
0.732727
1.14671
0.873049
0.799946
1.23586
0.801503
1.23355
0.907651
1.16687
0.87724
0.663939
0.764331
0.97393
0.979283
0.961925
0.669734
0.898464
0.777595
0.78052
0.817163
0.700339
0.753825
1.21854
0.781731
1.08181
1.11689
0.885074
1.10456
1.12084
0.736107
0.313814
0.924839
0.714046
0.643771
1.08981
1.09648
0.901145
1.04428
0.873881
1.23769
1.21787
0.925819
0.862295
1.2266
1.17473
1.03649
1.032
0.886973
1.24065
0.951114
0.664154
1.1902
1.14392
1.20794
0.986639
0.823406
0.875176
1.09918
1.04401
0.200548
1.25489
0.921478
0.802212
0.977963
1.16205
1.23899
1.24058
1.04099
0.92984
1.12426
1.17719
1.18642
1.08241
1.14142
0.682458
0.817834
0.999773
0.750874
0.675667
0.697942
0.918541
1.12314
0.716747
0.968594
0.808195
1.12648
1.24032
0.936682
0.741477
0.685023
1.07318
0.858665
0.807534
0.691355
1.19415
1.00813
1.02375
0.719844
1.02473
0.809642
0.821783
1.08865
1.11859
1.20006
1.24841
0.79029
1.17808
0.667725
1.19368
1.20631
1.20708
1.12654
0.771569
0.77149
0.906145
0.662237
0.942378
0.696298
0.994976
0.726912
1.15752
0.88628
0.676449
1.16146
1.08839
0.929745
0.941739
1.07783
1.19683
1.01031
0.958353
0.672461
1.14549
0.941497
1.22446
0.643097
0.954776
1.19171
1.09691
1.22866
1.10295
0.900291
0.618615
0.675422
0.94181
0.711455
1.22092
0.664554
0.816124
0.926415
0.813498
1.11371
0.648577
1.18618
1.10142
1.02649
0.568789
1.0325
0.76433
0.850759
0.940992
0.927208
0.887258
0.867819
1.12601
0.775108
1.24999
0.87825
0.895111
1.06579
1.07906
1.21921
0.88874
0.918075
0.79012
0.926181
0.863175
1.21425
0.813587
0.965344
0.885034
1.14506
0.838347
0.982652
0.749423
1.24093
0.659099
0.76854
0.8032
1.1494
0.681946
0.698347
0.763729
0.73406
1.20497
0.953911
1.07511
1.16672
1.0555
0.919679
1.24221
0.925686
1.08925
1.05367
0.968742
0.697067
0.987595
0.942182
0.831508
0.982461
0.732424
0.70905
0.988485
0.835364
0.782425
1.13833
0.921466
1.04427
0.935688
1.21591
0.921555
0.888574
1.05226
0.730486
0.802138
0.885785
0.974233
1.00745
1.04508
1.20143
1.07361
1.13729
0.992415
1.17827
1.22233
1.2186
0.948253
0.949053
1.01213
0.739776
1.23218
1.17286
1.14914
0.963015
0.77099
0.698622
1.01397
1.09632
0.797257
1.1468
1.16744
1.04269
0.819725
0.951689
0.841753
0.780847
0.965452
0.817267
1.02408
0.691837
1.02699
0.910205
0.927357
0.650524
1.00312
0.977182
1.07047
0.879998
1.0141
1.19901
1.21293
1.02672
0.913085
1.13927
0.987574
0.807711
0.808398
0.916826
0.725445
1.19966
0.94424
1.00141
1.10138
1.08635
1.02264
0.723708
1.24487
1.0387
0.822855
0.954451
0.973148
1.13854
1.19209
1.0405
1.02867
0.683549
0.787936
0.928681
1.03825
0.968995
1.02754
0.845105
1.20926
1.02792
1.1076
1.17833
1.00298
0.805516
0.96448
1.23132
0.856218
0.676037
0.960312
1.23925
0.864387
0.91803
1.12779
1.09505
1.15466
0.958467
0.688691
1.03645
0.743924
0.872635
1.15628
0.948454
0.746464
0.794594
0.860674
1.05035
0.865279
0.829353
1.18135
0.828874
1.24375
1.15011
0.729943
0.63075
0.942436
1.10249
1.17587
0.955798
0.928984
0.767911
0.908269
0.918828
1.24861
1.19147
1.10415
0.857561
0.698501
1.19659
1.24298
1.2075
1.13891
1.18511
0.960705
0.752031
0.656662
0.677587
1.21706
0.975872
0.728117
0.880558
1.24248
0.886112
0.819663
0.71755
0.959478
0.801898
1.25409
1.03886
1.09229
1.18712
1.1676
0.91258
1.05976
0.963985
1.06597
0.845408
1.0414
0.841918
1.21247
0.678117
0.867322
0.710897
0.899705
1.19706
0.895646
1.15342
1.17822
1.18955
0.767911
0.961849
0.928511
0.786911
1.20555
0.986538
0.975355
1.03325
0.493541
0.885673
1.20758
1.06615
1.21059
0.667035
0.77102
0.894339
1.21884
0.764479
0.921328
0.789635
0.714073
0.857031
1.21747
0.882892
0.935083
0.721283
1.24939
1.2317
0.50176
1.20453
0.883235
0.77021
0.773599
0.967287
0.719735
1.03172
0.866949
0.870691
0.90486
1.17538
0.956328
1.1528
0.9009
0.757941
0.900331
0.665299
0.700246
0.940988
0.826964
0.988313
0.78371
0.933811
1.17056
1.02851
0.87109
0.653252
1.1818
0.960763
0.929264
1.25288
0.99515
0.864401
0.796951
0.711638
1.22568
0.8454
0.94038
1.04969
0.729479
1.18897
0.683514
1.17688
0.954983
1.11928
0.794211
1.11922
0.932518
0.736244
0.807315
0.951981
1.19799
0.626188
0.811545
0.880189
1.22326
1.24802
0.757628
0.852441
1.02529
1.22992
0.915332
1.20381
1.1732
1.14772
1.11769
1.01461
1.04788
1.02234
1.20904
0.922814
0.97616
0.760228
0.81986
0.91434
0.778533
1.22559
0.69596
1.19802
0.913566
1.21835
0.852428
1.23348
1.11586
1.16644
1.22001
1.19757
1.25058
0.912415
1.18235
0.94479
0.89265
0.815452
0.785082
1.2106
0.699097
1.03907
1.05176
0.925162
1.03048
0.837729
1.20494
0.984401
1.12238
0.654935
0.805517
0.900403
1.25773
0.768223
1.07244
0.830037
0.90101
0.74467
0.914111
0.886977
1.14446
1.21404
0.713877
1.03086
0.89447
0.86047
1.16101
0.778593
0.815973
1.2277
0.677994
0.98141
1.09871
1.19246
1.23643
0.830231
0.823565
0.731429
0.873174
0.79085
0.892018
1.10117
0.875779
0.74755
0.93292
0.961853
0.861509
0.7966
0.878494
0.966959
0.737029
1.13271
1.11839
0.831619
1.12525
0.663151
0.719665
0.760508
0.683587
1.22758
0.890149
0.883368
0.841367
1.16382
1.20722
1.00433
1.11537
0.805167
0.823183
0.960104
0.886055
0.808405
1.20842
1.00448
1.04302
1.23008
1.13947
0.92365
1.2209
0.708069
1.00934
1.00292
1.04874
0.84736
1.21489
0.874683
1.04172
0.952713
0.856685
0.781156
0.831804
1.11622
1.16402
1.18462
0.970842
0.99922
1.21802
1.12668
0.942631
0.979677
0.761876
0.910713
1.14932
0.712225
1.17771
0.88449
1.19074
1.25145
1.21204
0.872306
1.16689
1.17466
0.607063
1.21721
0.785869
1.21679
1.14429
0.897397
0.783633
0.997463
0.91556
0.827965
0.799873
1.12809
0.83599
1.2221
0.768097
0.838365
0.782882
0.763268
0.883925
1.16133
1.23771
0.762016
1.10938
0.978113
1.04224
0.921228
1.02061
1.20158
1.14994
0.887795
1.19366
1.15964
1.23457
0.764399
0.85743
0.806116
1.11896
1.22751
1.16766
0.94014
1.2329
0.951451
0.714568
0.781478
0.625583
0.922993
0.745584
1.23522
1.24377
0.997492
1.25442
1.15242
0.998354
1.22868
0.758705
1.21305
0.908499
1.20784
0.884153
0.772923
1.11273
1.00641
1.21657
1.20216
1.20589
0.787833
0.783621
0.690048
1.1731
1.14733
0.754042
0.951945
1.14984
0.669114
0.851799
0.788896
0.896254
1.03615
0.890939
1.00305
1.08651
0.983411
1.00107
1.12103
0.883413
0.893509
1.03712
0.988936
0.890993
1.18317
1.21892
0.754939
1.14431
0.658201
0.841271
1.1917
1.1334
0.875969
1.20953
0.753153
1.11705
0.901899
0.889411
1.19072
0.889166
1.12775
1.10782
1.08074
1.24595
1.08875
0.732761
1.05725
0.910071
1.13139
1.24656
1.07184
0.945758
0.807255
0.890662
1.19241
0.764704
1.15505
0.792502
1.00795
1.13956
1.11979
0.976989
1.1844
1.23145
0.886558
0.884442
0.999336
0.785689
0.749295
1.00817
1.10877
0.81389
0.729351
0.768867
0.722784
1.11234
0.944387
1.13661
0.832277
1.20769
0.983391
1.17294
1.23915
0.828133
1.19867
0.871431
1.00459
0.955396
1.17616
0.811785
0.915085
0.964061
0.776925
0.891808
0.77265
0.741936
0.658958
1.23007
1.24343
0.811244
0.827197
1.12582
0.704096
0.771827
0.887951
1.09851
1.10875
0.691655
0.65575
1.2021
0.820541
1.0366
0.818923
0.72306
0.782879
0.972727
1.17431
1.02997
0.715023
1.20923
1.17209
0.8071
1.03571
0.878404
1.24003
0.900132
0.919001
0.739531
1.07957
1.21923
1.05074
0.960975
0.819486
0.935366
1.03469
1.22877
1.25703
0.810034
1.23393
0.829832
1.01829
1.01873
0.941667
0.868136
1.17752
0.850342
1.00616
0.790215
0.833852
0.870274
0.776703
1.0792
1.20901
0.805954
0.845729
1.00847
0.874846
0.770421
0.658573
0.864701
1.17379
0.58316
0.866279
1.09698
1.00965
0.939784
1.07162
1.15852
0.734179
0.734316
1.16439
0.929367
0.742136
0.950906
1.17321
1.07343
1.0204
0.8091
0.83562
0.803657
1.23024
1.16687
1.23802
0.932411
1.09282
0.757926
0.972507
1.17584
0.712189
0.727699
1.11858
1.17086
0.706574
0.844544
0.79687
0.720876
0.797567
1.25481
0.910771
0.837268
0.958158
0.807061
1.11193
0.981453
0.751066
0.840476
1.13682
0.934131
1.23152
0.744699
0.854283
1.05146
1.03703
0.94369
1.04134
0.775955
1.23586
1.21042
1.05639
1.18237
0.816475
1.18008
1.07131
1.03779
1.22181
0.704133
0.863063
1.24358
1.07509
0.696372
0.867616
1.14926
1.24026
0.970721
1.12724
0.803911
0.736289
0.790442
0.685439
1.1757
0.831741
0.987162
1.22338
0.823573
0.738083
0.817511
0.990636
0.827056
0.874268
0.813588
0.769488
0.932434
1.14784
1.21899
1.09093
0.852647
0.863323
0.682269
0.861275
1.05821
1.03572
1.0635
1.10425
0.865018
0.958861
1.15564
1.1744
1.23927
1.1928
1.22493
0.942071
0.75361
0.795888
0.76187
1.22982
0.995083
0.832308
1.22002
0.762178
1.15251
1.11086
0.849525
0.812494
0.86271
0.843198
1.17152
0.916035
1.09987
0.960646
1.2166
1.03009
1.246
0.799293
0.963149
0.856874
0.650214
0.877148
1.13202
0.727333
0.468611
1.01944
1.21021
1.13305
0.840835
0.740472
0.795281
0.766087
0.816521
0.768545
0.939862
0.774012
1.12064
0.807252
0.828128
1.1961
0.940211
1.0348
1.16268
0.929783
0.98647
0.781846
1.12378
0.910799
0.846426
0.921743
0.788256
0.738344
0.825642
0.769689
1.13049
1.23881
1.18121
1.0227
1.10597
0.714484
1.23481
1.01739
1.10369
0.804784
1.10771
0.871705
0.886534
1.151
1.21593
1.13126
1.02688
0.901596
1.24317
0.875835
1.14569
1.22758
1.08771
0.912036
0.707285
1.14871
0.992864
0.775884
1.07315
0.991809
1.21412
0.825357
1.22423
1.23994
0.932738
0.801201
1.22554
0.743708
0.78243
0.884497
0.77422
0.866993
0.788067
0.746675
0.958807
0.826517
0.792393
0.869063
1.03425
0.844711
0.822901
1.06562
0.987382
0.728842
1.20705
1.2469
1.22856
0.818855
0.718185
1.25033
0.732876
0.943108
0.780217
0.891758
0.799013
1.11763
0.879064
0.87945
0.726389
0.709921
0.779499
0.883063
0.70471
0.971974
1.01245
0.958993
1.21669
1.00165
1.06914
0.899011
1.16726
0.888247
0.890599
1.26533
0.875924
0.981561
0.745635
1.08952
1.24144
0.917149
1.03865
0.986393
0.86433
0.806179
0.820015
0.769176
1.12378
0.788654
0.924191
0.87899
0.934246
0.798536
0.822188
0.941786
0.90837
0.860482
1.24729
0.94946
0.905922
1.02222
1.214
0.891997
0.713456
1.13615
0.745712
0.909993
0.803662
0.931349
0.871064
0.844471
0.925646
1.2356
1.17871
0.720035
0.859253
0.711726
0.787066
0.693597
0.774562
0.866937
0.794161
0.875216
1.06153
1.25103
0.880799
1.10942
0.9741
1.22913
0.876955
1.24167
1.05323
0.760747
1.05194
1.1198
0.889143
1.16647
0.803554
1.18677
0.845609
0.502336
0.956525
1.24957
1.24182
1.12394
1.06348
1.09353
0.725384
0.859532
1.08705
1.24614
0.534069
0.946766
0.801643
0.886156
0.935368
0.794123
0.755952
0.83739
0.778033
0.83596
0.901332
0.930864
1.24452
1.16834
0.693331
1.14493
0.787324
0.813069
1.15247
0.844745
0.90879
1.07672
0.582715
0.812455
0.968493
1.1797
0.764964
0.827772
0.905661
1.05798
0.760522
1.21559
0.713061
0.886184
0.90829
0.837313
1.06077
1.06177
1.21509
0.802732
1.12519
1.0136
1.05139
0.812576
1.05674
0.79815
0.747938
0.67292
1.00416
0.95405
0.909192
1.19215
0.955321
0.970338
1.05493
0.805707
0.782588
0.885924
1.02173
0.823549
1.24982
0.749222
0.713968
0.87557
0.882581
0.826442
0.782664
1.10502
0.885694
0.964988
0.766032
0.805552
0.959759
0.704659
1.2457
1.23645
0.770028
0.798179
1.17351
0.956626
0.805785
0.737984
0.790851
0.776223
1.00957
1.20454
0.807514
0.724153
1.06039
0.948002
0.714203
0.767809
0.942424
1.10301
1.25672
0.75648
0.706825
1.03149
1.17564
0.918159
1.00939
0.90106
0.807091
0.891448
1.05754
0.948822
0.814079
1.14625
0.904108
0.67267
1.00295
0.832804
1.15187
1.24565
0.827875
0.879914
0.88203
0.879803
0.754231
0.893705
0.775466
1.21975
1.15417
1.10097
0.868413
0.731322
1.13664
1.23278
0.823223
0.997015
0.874627
0.658725
0.979519
0.888842
0.658064
0.761353
1.03177
0.759938
0.716939
0.773603
1.14056
0.745521
1.14195
0.91009
0.82146
0.903044
0.791682
1.15277
0.683976
0.891638
0.923388
0.747295
1.01064
1.08329
1.02753
0.954637
1.12946
0.76923
0.768904
1.20191
0.807067
1.19584
1.03247
0.917221
0.992117
1.1817
0.94847
0.707693
1.21542
0.798756
0.927585
1.18167
0.795651
1.22638
0.81358
0.906707
0.603159
0.907669
0.771023
0.965329
0.786045
0.675562
0.774035
0.760343
0.665088
1.20499
0.760772
0.899682
1.019
0.957784
1.23491
1.23665
0.867402
0.918027
1.15762
0.854385
1.20594
0.678749
0.902076
0.99873
0.82853
1.16288
0.87491
0.884812
0.850952
0.827618
0.782212
0.677505
1.18621
0.37362
1.22137
1.10153
0.786192
0.715301
0.786015
1.25869
1.09374
1.0683
0.944726
1.01338
0.927386
1.18364
1.13629
0.793955
1.04377
1.22582
0.938847
0.992843
1.04416
0.699026
0.763971
1.13808
0.89872
0.927149
1.22655
0.755902
0.683241
0.840918
0.922894
0.938915
1.24427
0.815771
0.737514
0.819376
0.922152
0.820159
1.19484
0.912512
0.790707
0.874973
0.823901
0.79895
0.846819
1.05032
0.941284
0.785966
1.19202
0.895161
1.14882
0.787061
0.756059
0.886813
1.18554
1.2303
1.13544
0.971016
0.94723
1.14914
1.2359
0.751158
1.20696
0.778657
1.06943
1.05396
1.19374
0.967587
1.1787
1.20954
0.820371
0.802625
0.900656
0.949407
0.779698
0.726049
0.690331
1.11755
1.16419
0.742459
1.21428
0.966019
1.13364
0.940059
0.781949
1.15974
1.1385
0.878153
0.834362
0.771105
1.23869
1.1067
1.24783
0.741072
0.778647
0.925333
1.17023
1.05971
1.18954
0.982486
1.23985
0.839862
0.910116
0.993284
0.856769
1.03676
0.64411
1.14925
0.949073
0.995912
1.20873
0.730784
0.745964
0.687736
1.00193
1.18879
0.848603
1.06059
0.658856
0.73347
0.931993
0.835889
0.810893
1.18384
0.939547
0.804347
0.916539
1.01706
1.21787
1.00656
0.909754
1.1853
0.956578
1.22588
0.981462
1.09903
0.912305
0.744542
1.24993
0.782468
0.982265
1.02108
1.20223
1.08712
0.949169
0.806295
1.24241
0.920765
0.796807
1.12288
1.23609
1.10984
1.06831
0.730371
0.667769
0.998827
0.790473
0.906028
0.98229
0.785464
1.21698
1.24158
1.21193
0.856788
0.894448
0.809015
0.876777
1.08338
0.76177
1.08067
1.21954
0.754888
0.881411
0.836165
1.15409
1.06827
0.894138
0.79234
1.1091
0.794454
0.631356
0.772302
1.2502
0.678594
1.14482
1.02659
0.798218
1.22457
1.00836
1.26046
0.572846
0.885307
0.998518
1.21135
0.879822
1.206
1.0101
0.678085
0.952318
0.849168
0.890053
0.668846
1.13737
0.883974
0.796199
0.707122
0.956653
1.18734
0.613354
0.866489
1.18642
0.889651
1.17923
0.672615
0.78928
0.806485
0.924857
0.853203
0.730494
0.792312
0.625787
0.905931
0.909038
1.13515
0.985518
1.18893
0.794495
0.893891
0.734041
0.951045
0.62636
0.900212
1.24735
0.915961
0.85923
1.25597
0.801997
1.01293
1.05855
0.727248
0.857194
0.952756
1.00706
1.21952
1.23518
1.23521
1.01806
0.896394
0.918708
0.783996
1.17623
1.06658
0.826852
0.8289
0.853238
0.945283
1.26103
0.913228
1.25956
0.874157
1.03854
0.787914
0.803598
0.731871
0.840733
1.20059
0.849185
0.745711
0.774349
1.2465
0.864563
0.788919
0.780267
0.798996
1.10624
0.978636
0.983597
0.895397
1.09071
0.71728
0.939381
0.956962
0.860155
1.18061
1.19011
0.794919
1.19718
1.22494
1.18274
0.977161
0.897126
0.847567
0.923831
1.22683
0.943364
1.01936
1.19006
1.23807
1.21366
1.19471
0.809723
1.07057
0.957588
0.803218
0.701295
0.911226
1.17568
1.24844
1.22597
0.836302
0.779113
0.757131
0.678801
1.05964
1.24762
1.04093
1.12738
1.13584
1.1307
1.1062
0.790752
0.868894
0.835874
0.767729
0.820243
0.897317
0.745555
0.846521
0.814649
1.20815
1.034
0.709084
1.25091
0.825937
0.824603
0.926969
0.774623
1.10555
1.11038
0.821668
1.02822
1.23679
1.23858
1.07649
1.0951
0.927857
0.972736
0.922319
0.722648
1.00977
1.00188
0.835801
1.07385
1.04381
0.745341
0.447452
0.813494
1.22757
0.847965
1.08792
0.894787
1.22633
0.920348
0.782711
1.15015
1.07628
1.07004
1.00595
0.765338
0.871059
0.731291
1.07565
0.78856
1.17253
0.897846
0.827612
1.03069
0.731752
0.88508
1.2429
0.751549
1.09529
0.840342
0.781943
0.870739
0.905443
1.17468
1.19341
0.897791
1.22276
0.704344
1.20516
1.15778
1.12545
0.812705
1.17276
0.764673
1.1041
1.05732
0.620843
0.891987
0.755697
1.22439
1.09489
0.712056
0.772883
0.931009
0.807409
1.10098
0.798524
0.99508
1.24642
0.805944
1.23129
1.00599
1.08157
0.72083
1.16731
0.811368
1.19841
0.427385
0.777838
1.06633
1.14345
0.981099
1.09392
0.785518
0.895256
1.11249
1.07505
0.817625
1.11009
1.08038
1.19512
0.647735
0.904452
0.645429
1.00899
1.1092
1.01132
0.53805
0.84932
1.2147
1.03106
0.861225
1.1991
0.917215
1.10696
0.715196
0.908416
0.794944
1.19573
1.22513
1.08682
0.944361
0.899716
0.76108
1.07066
0.815616
1.17827
0.710333
0.942022
0.737216
0.693933
1.0153
1.20047
0.942514
0.937321
0.812441
0.798917
1.15456
0.930686
0.948117
1.24729
1.07589
0.81238
1.11374