/*--------------------------------*- C++ -*----------------------------------*\
  =========                 |
  \\      /  F ield         | OpenFOAM: The Open Source CFD Toolbox
   \\    /   O peration     | Website:  https://openfoam.org
    \\  /    A nd           | Version:  6
     \\/     M anipulation  |
\*---------------------------------------------------------------------------*/
FoamFile
{
    version     2.0;
    format      ascii;
    class       surfaceScalarField;
    location    "0";
    object      phi;
}
// * * * * * * * * * * * * * * * * * * * * * * * * * * * * * * * * * * * * * //

dimensions      [0 3 -1 0 0 0 0];

internalField   nonuniform List<scalar> 
17780
(
0.0014173
0.0010166
0.000855819
0.00056148
0.000582202
0.000273618
0.000433419
0.000148783
0.000347342
8.60768e-05
0.000294171
5.31711e-05
0.000259489
3.46816e-05
0.000236006
2.34837e-05
0.000219728
1.62778e-05
0.000208295
1.14333e-05
0.000200215
8.07915e-06
0.000194502
5.71374e-06
0.000190473
4.0285e-06
0.000187651
2.8227e-06
0.00018569
1.96015e-06
0.000184345
1.34551e-06
0.000183434
9.10622e-07
0.000182828
6.06072e-07
0.000182432
3.95742e-07
0.000182179
2.53152e-07
0.00018202
1.58884e-07
0.000181922
9.87325e-08
0.000181859
6.23443e-08
0.000181817
4.22046e-08
0.000181784
3.28738e-08
0.000181754
3.04092e-08
0.000181722
3.19226e-08
0.000181687
3.52399e-08
0.000181648
3.86346e-08
0.000181607
4.06113e-08
0.000181568
3.97227e-08
0.000181533
3.44004e-08
0.000181511
2.27824e-08
0.000181508
2.51677e-09
0.000181538
-2.9488e-08
0.000181615
-7.74063e-08
0.000181762
-1.47001e-07
0.000182008
-2.46409e-07
0.000182396
-3.87432e-07
0.000182984
-5.8777e-07
0.000183859
-8.75145e-07
0.000185154
-1.29554e-06
0.000187085
-1.93106e-06
0.000190028
-2.94227e-06
0.000194704
-4.67657e-06
0.000202683
-7.9792e-06
0.000217876
-1.51927e-05
0.000250496
-3.26202e-05
0.000330614
-8.01179e-05
-0.000281134
0.000611748
0.00227015
0.00118034
0.00179925
0.00103239
0.00140825
0.000664618
0.00113713
0.000419897
0.000953381
0.000269829
0.000827828
0.000178724
0.000740644
0.000121865
0.000679194
8.49339e-05
0.000635415
6.0057e-05
0.00060403
4.28182e-05
0.000581479
3.06302e-05
0.000565291
2.19015e-05
0.000553714
1.56057e-05
0.000545483
1.10531e-05
0.000539679
7.76459e-06
0.000535626
5.39877e-06
0.000532828
3.70829e-06
0.000530922
2.5118e-06
0.000529643
1.67545e-06
0.000528796
1.10023e-06
0.000528242
7.12915e-07
0.000527881
4.59486e-07
0.000527643
3.00217e-07
0.000527479
2.05995e-07
0.000527356
1.55518e-07
0.000527254
1.33147e-07
0.000527158
1.2726e-07
0.000527065
1.28954e-07
0.000526972
1.31035e-07
0.000526886
1.27169e-07
0.000526814
1.11161e-07
0.000526772
7.62716e-08
0.000526781
1.45043e-08
0.000526867
-8.42193e-08
0.000527071
-2.3312e-07
0.000527444
-4.50033e-07
0.000528056
-7.59581e-07
0.000529006
-1.19656e-06
0.00053043
-1.81143e-06
0.000532522
-2.67973e-06
0.000535566
-3.91894e-06
0.000539991
-5.7205e-06
0.000546475
-8.41453e-06
0.000556141
-1.26084e-05
0.000570966
-1.95022e-05
0.000594643
-3.16556e-05
0.000634383
-5.49328e-05
0.00070494
-0.000103177
0.000836105
-0.000211283
-0.000489187
0.00104416
0.00250487
0.00110936
0.00227172
0.00126554
0.00195193
0.000984414
0.0016721
0.000699724
0.00145452
0.000487402
0.00129225
0.000340999
0.00117292
0.000241191
0.00108551
0.000172353
0.0010215
0.000124059
0.000974679
8.96427e-05
0.000940487
6.48216e-05
0.000915608
4.67813e-05
0.000897595
3.36184e-05
0.000884639
2.40086e-05
0.000875396
1.70084e-05
0.000868861
1.19331e-05
0.000864291
8.27892e-06
0.00086113
5.67217e-06
0.000858971
3.83449e-06
0.000857513
2.55819e-06
0.000856538
1.68855e-06
0.000855886
1.11057e-06
0.000855448
7.39091e-07
0.000855142
5.11253e-07
0.000854917
3.80673e-07
0.000854737
3.1299e-07
0.000854582
2.82388e-07
0.000854442
2.6886e-07
0.000854317
2.56017e-07
0.000854215
2.29273e-07
0.000854152
1.74246e-07
0.000854153
7.52407e-08
0.000854254
-8.63571e-08
0.000854504
-3.33955e-07
0.000854969
-6.98174e-07
0.000855739
-1.2202e-06
0.000856936
-1.95673e-06
0.000858727
-2.98757e-06
0.000861344
-4.42788e-06
0.000865113
-6.44866e-06
0.000870506
-9.31242e-06
0.000878224
-1.34383e-05
0.000889335
-1.9526e-05
0.000905529
-2.88016e-05
0.000929551
-4.35243e-05
0.000965958
-6.80634e-05
0.00102223
-0.000111207
0.00110995
-0.000190891
0.0012413
-0.00034264
-0.000639176
0.00139129
0.00257029
0.000972973
0.00249553
0.00134029
0.00228728
0.00119266
0.00205577
0.000931233
0.00184929
0.000693887
0.00168104
0.000509249
0.00154966
0.000372573
0.00144926
0.000272747
0.00137348
0.000199838
0.00131676
0.000146369
0.00127459
0.000106994
0.00124344
7.79248e-05
0.00122061
5.64551e-05
0.00120399
4.06251e-05
0.001192
2.89964e-05
0.00118343
2.05017e-05
0.00117737
1.43422e-05
0.00117313
9.91741e-06
0.00117018
6.77521e-06
0.00116817
4.57524e-06
0.00116679
3.06189e-06
0.00116586
2.04387e-06
0.00116522
1.37858e-06
0.00116477
9.59966e-07
0.00116444
7.09249e-07
0.00116419
5.67569e-07
0.00116398
4.90283e-07
0.00116381
4.4242e-07
0.00116367
3.95007e-07
0.00116358
3.21989e-07
0.00116355
1.97495e-07
0.00116363
-6.79667e-09
0.00116387
-3.24452e-07
0.00116434
-7.9757e-07
0.00116512
-1.48102e-06
0.00116635
-2.44826e-06
0.00116819
-3.79988e-06
0.00117088
-5.67656e-06
0.00117473
-8.27948e-06
0.00118019
-1.19038e-05
0.00118787
-1.69948e-05
0.00119868
-2.42465e-05
0.00121393
-3.47781e-05
0.00123559
-5.04595e-05
0.00126658
-7.45198e-05
0.00131121
-0.000112687
0.00137525
-0.000175249
0.00146474
-0.000280385
0.00157936
-0.000457254
-0.000747325
0.00168751
0.00257544
0.00083143
0.00259371
0.00132202
0.00248507
0.00130131
0.00232039
0.00109591
0.00214978
0.000864498
0.00199713
0.0006619
0.00187006
0.000499636
0.00176844
0.000374365
0.00168913
0.000279151
0.00162824
0.000207264
0.00158206
0.000153173
0.0015474
0.00011258
0.00152164
8.22144e-05
0.00150267
5.9594e-05
0.00148884
4.28339e-05
0.00147884
3.04985e-05
0.00147169
2.14927e-05
0.00146663
1.49807e-05
0.00146308
1.03255e-05
0.00146061
7.04309e-06
0.0014589
4.76672e-06
0.00145773
3.22007e-06
0.00145691
2.19564e-06
0.00145633
1.53818e-06
0.00145591
1.13146e-06
0.00145559
8.88006e-07
0.00145534
7.40858e-07
0.00145514
6.37032e-07
0.00145501
5.32156e-07
0.00145494
3.85933e-07
0.00145498
1.58072e-07
0.00145517
-1.95655e-07
0.00145557
-7.27629e-07
0.00145628
-1.50334e-06
0.00145741
-2.60775e-06
0.00145911
-4.15394e-06
0.00146161
-6.29568e-06
0.00146518
-9.24603e-06
0.0014702
-1.33063e-05
0.00147721
-1.89118e-05
0.00148692
-2.67063e-05
0.00150034
-3.76664e-05
0.00151888
-5.33113e-05
0.00154448
-7.60612e-05
0.0015798
-0.000109845
0.00162821
-0.000161091
0.00169316
-0.000240207
0.00177601
-0.000363229
0.00187002
-0.000551268
-0.000824461
0.00194716
0.00255982
0.000705506
0.0026287
0.00125314
0.00259624
0.00133377
0.00249743
0.00119472
0.00237271
0.000989217
0.00224835
0.00078626
0.00213722
0.00061077
0.00204377
0.000467812
0.0019681
0.000354825
0.00190835
0.000267013
0.00186204
0.000199482
0.00182667
0.000147949
0.00179999
0.000108892
0.0017801
7.94897e-05
0.00176542
5.75138e-05
0.0017547
4.12181e-05
0.00174695
2.92412e-05
0.0017414
2.05266e-05
0.00173747
1.42585e-05
0.0017347
9.81037e-06
0.00173277
6.70358e-06
0.00173141
4.57459e-06
0.00173046
3.1486e-06
0.00172978
2.21856e-06
0.00172928
1.62845e-06
0.00172891
1.2599e-06
0.00172863
1.02154e-06
0.00172843
8.40326e-07
0.0017283
6.54451e-07
0.00172828
4.07228e-07
0.0017284
4.15983e-08
0.00172871
-5.05249e-07
0.00172929
-1.30763e-06
0.00173024
-2.45814e-06
0.00173171
-4.07622e-06
0.00173388
-6.31979e-06
0.00173698
-9.40167e-06
0.00174135
-1.36137e-05
0.00174741
-1.9363e-05
0.00175572
-2.72276e-05
0.00176706
-3.80441e-05
0.00178244
-5.30451e-05
0.00180321
-7.40794e-05
0.0018311
-0.000103957
0.00186823
-0.000146972
0.00191678
-0.000209641
0.00197809
-0.000301516
0.00205036
-0.000435496
0.00212448
-0.000625396
-0.000878249
0.00217827
0.00254007
0.00059933
0.00263354
0.00115967
0.0026548
0.00131251
0.00261273
0.00123679
0.00253482
0.00106713
0.00244452
0.000876565
0.00235642
0.000698861
0.00227787
0.00054637
0.0022115
0.00042119
0.00215742
0.0003211
0.00211445
0.000242445
0.00208099
0.000181413
0.00205534
0.000134543
0.00203594
9.88843e-05
0.00202146
7.19988e-05
0.00201076
5.19143e-05
0.00200295
3.70562e-05
0.00199729
2.61805e-05
0.00199324
1.8313e-05
0.00199035
1.26971e-05
0.00198831
8.74979e-06
0.00198686
6.02462e-06
0.00198582
4.18178e-06
0.00198508
2.96354e-06
0.00198453
2.17431e-06
0.00198413
1.66461e-06
0.00198383
1.31802e-06
0.00198363
1.04054e-06
0.00198353
7.5179e-07
0.00198356
3.77315e-07
0.00198376
-1.58333e-07
0.0019842
-9.3844e-07
0.00198495
-2.06146e-06
0.00198614
-3.64954e-06
0.00198792
-5.85932e-06
0.0019905
-8.89626e-06
0.00199413
-1.30346e-05
0.00199917
-1.86457e-05
0.00200604
-2.62402e-05
0.00201534
-3.65297e-05
0.00202782
-5.05198e-05
0.00204443
-6.96497e-05
0.00206634
-9.59991e-05
0.00209497
-0.000132586
0.00213177
-0.000183763
0.00217779
-0.000255666
0.00223274
-0.00035647
0.00229308
-0.000495831
0.00234952
-0.000681837
-0.000914101
0.00238537
0.00252216
0.000511069
0.00262532
0.0010565
0.00268242
0.00125542
0.0026858
0.00123342
0.00265077
0.00110215
0.00259556
0.000931784
0.00253396
0.000760452
0.0024745
0.000605837
0.0024215
0.000474192
0.00237659
0.000366004
0.00233986
0.000279177
0.00231058
0.00021069
0.00228772
0.000157409
0.00227016
0.000116446
0.00225686
8.52944e-05
0.00224692
6.1854e-05
0.00223957
4.44036e-05
0.0022342
3.15573e-05
0.00223029
2.22144e-05
0.00222748
1.55096e-05
0.00222546
1.07701e-05
0.00222401
7.47654e-06
0.00222296
5.23079e-06
0.0022222
3.72888e-06
0.00222163
2.73852e-06
0.00222121
2.08081e-06
0.00222092
1.61517e-06
0.00222073
1.22694e-06
0.00222067
8.16994e-07
0.00222075
2.92593e-07
0.00222103
-4.40907e-07
0.00222158
-1.48829e-06
0.00222249
-2.97326e-06
0.00222389
-5.04868e-06
0.00222594
-7.90927e-06
0.00222886
-1.18082e-05
0.0022329
-1.70799e-05
0.00223843
-2.41713e-05
0.00224587
-3.36873e-05
0.0022558
-4.64541e-05
0.00226889
-6.36118e-05
0.00228598
-8.67437e-05
0.00230804
-0.000118055
0.00233606
-0.000160603
0.00237085
-0.000218555
0.00241256
-0.000297376
0.00245978
-0.000403691
0.00250821
-0.000544262
0.00254942
-0.00072305
-0.000935822
0.00257114
0.00250756
0.000437409
0.00261248
0.000951582
0.00269248
0.00117541
0.00273066
0.00119524
0.00273257
0.00110024
0.00271058
0.000953775
0.00267626
0.000794771
0.00263798
0.000644119
0.00260087
0.000511297
0.00256763
0.000399243
0.00253933
0.000307478
0.00251608
0.000233941
0.00249748
0.000176007
0.00248291
0.000131013
0.0024717
9.65094e-05
0.00246319
7.03639e-05
0.00245681
5.07816e-05
0.00245208
3.62883e-05
0.0024486
2.56946e-05
0.00244605
1.80552e-05
0.0024442
1.26273e-05
0.00244284
8.83355e-06
0.00244184
6.22787e-06
0.0024411
4.46743e-06
0.00244055
3.28844e-06
0.00244015
2.48608e-06
0.00243987
1.89796e-06
0.0024397
1.39022e-06
0.00243967
8.45769e-07
0.00243981
1.5394e-07
0.00244017
-7.99055e-07
0.00244082
-2.13958e-06
0.00244187
-4.01667e-06
0.00244343
-6.61368e-06
0.00244568
-1.01625e-05
0.00244884
-1.4962e-05
0.00245316
-2.14023e-05
0.00245899
-2.99979e-05
0.00246673
-4.14334e-05
0.0024769
-5.66253e-05
0.0024901
-7.68074e-05
0.002507
-0.000103642
0.00252831
-0.000139363
0.00255463
-0.000186928
0.00258623
-0.000250153
0.00262255
-0.000333696
0.00266153
-0.000442673
0.00269875
-0.000581485
0.002727
-0.000751294
-0.000946137
0.00273731
0.00249619
0.000375112
0.00259898
0.000848795
0.00269304
0.00108135
0.00275708
0.0011312
0.00278955
0.00106777
0.00279741
0.000945914
0.00278934
0.000802838
0.00277271
0.000660753
0.00275273
0.000531278
0.00273266
0.00041931
0.00271429
0.000325846
0.00269842
0.000249814
0.00268523
0.000189191
0.0026746
0.000141649
0.00266621
0.000104901
0.0026597
7.68676e-05
0.00265473
5.57513e-05
0.00265098
4.00437e-05
0.00264816
2.85095e-05
0.00264606
2.01549e-05
0.0026445
1.4192e-05
0.00264333
1.00028e-05
0.00264245
7.10702e-06
0.00264178
5.13276e-06
0.00264128
3.7918e-06
0.00264091
2.85856e-06
0.00264065
2.15245e-06
0.00264052
1.5229e-06
0.00264053
8.36592e-07
0.00264072
-3.38794e-08
0.00264114
-1.22056e-06
0.00264187
-2.87059e-06
0.00264301
-5.15735e-06
0.00264469
-8.29318e-06
0.00264707
-1.25447e-05
0.00265036
-1.82524e-05
0.00265482
-2.58553e-05
0.00266074
-3.59244e-05
0.00266852
-4.92064e-05
0.00267857
-6.66808e-05
0.0026914
-8.96334e-05
0.0027075
-0.000119746
0.00272734
-0.000159197
0.00275116
-0.000210748
0.00277877
-0.000277768
0.00280916
-0.000364081
0.00283994
-0.000473458
0.00286693
-0.000608478
0.00288415
-0.00076851
-0.000947052
0.00288506
0.00248754
0.00032147
0.00258655
0.000749786
0.00268883
0.000979074
0.00277168
0.00104835
0.00282876
0.0010107
0.00286249
0.000912186
0.00287857
0.000786757
0.00288288
0.000656442
0.0028802
0.000533952
0.00287396
0.000425552
0.00286637
0.000333439
0.00285874
0.000257445
0.00285176
0.000196167
0.00284574
0.000147672
0.00284074
0.000109904
0.00283669
8.09129e-05
0.00283348
5.89586e-05
0.00283098
4.25517e-05
0.00282903
3.04535e-05
0.00282753
2.16556e-05
0.00282637
1.53509e-05
0.00282547
1.09018e-05
0.00282477
7.80876e-06
0.00282422
5.68249e-06
0.00282379
4.21904e-06
0.00282347
3.17846e-06
0.00282326
2.3666e-06
0.00282316
1.61963e-06
0.00282321
7.90539e-07
0.00282344
-2.6287e-07
0.00282391
-1.68924e-06
0.00282469
-3.65485e-06
0.00282589
-6.35551e-06
0.00282763
-1.003e-05
0.00283006
-1.49759e-05
0.00283337
-2.15694e-05
0.00283781
-3.02903e-05
0.00284364
-4.17531e-05
0.00285118
-5.67476e-05
0.00286079
-7.62886e-05
0.00287283
-0.000101676
0.00288764
-0.000134559
0.00290545
-0.000177
0.0029262
-0.000231499
0.00294937
-0.000300941
0.00297365
-0.000388362
0.00299659
-0.000496401
0.00301441
-0.000626292
0.00302222
-0.000776321
-0.000940084
0.00301525
0.00248101
0.000274358
0.0025758
0.000654999
0.00268257
0.000872299
0.00277891
0.000952009
0.00285541
0.000934195
0.00291097
0.00085663
0.00294853
0.000749198
0.0029723
0.000632664
0.00298633
0.00051993
0.00299385
0.000418024
0.00299729
0.00033
0.0029983
0.000256434
0.00299797
0.000196497
0.00299698
0.000148661
0.00299574
0.000111149
0.00299446
8.21885e-05
0.00299327
6.01504e-05
0.00299221
4.36117e-05
0.00299129
3.13706e-05
0.00299051
2.24379e-05
0.00298985
1.60144e-05
0.00298929
1.14638e-05
0.00298881
8.284e-06
0.00298841
6.0812e-06
0.00298808
4.54532e-06
0.00298783
3.42932e-06
0.00298767
2.53102e-06
0.00298761
1.67742e-06
0.00298769
7.11034e-07
0.00298795
-5.22521e-07
0.00298845
-2.18617e-06
0.00298926
-4.46299e-06
0.00299047
-7.5685e-06
0.0029922
-1.17644e-05
0.0029946
-1.73745e-05
0.00299784
-2.48042e-05
0.00300211
-3.4564e-05
0.00300766
-4.72988e-05
0.00301473
-6.38225e-05
0.0030236
-8.51597e-05
0.00303452
-0.000112591
0.00304765
-0.000147693
0.00306302
-0.000192368
0.00308034
-0.000248825
0.00309887
-0.000319468
0.00311714
-0.000406626
0.00313276
-0.000512028
0.00314242
-0.000635949
0.00314218
-0.000776079
-0.000926423
0.00312852
0.0024761
0.000232157
0.00256682
0.000564276
0.00267579
0.000763335
0.00278166
0.000846134
0.00287328
0.000842577
0.00294687
0.000783035
0.00300303
0.00069304
0.00304433
0.000591369
0.00307387
0.00049039
0.00309455
0.000397341
0.00310878
0.000315772
0.00311841
0.0002468
0.00312483
0.000190076
0.00312903
0.00014446
0.00313172
0.000108465
0.00313337
8.0532e-05
0.00313434
5.91833e-05
0.00313485
4.31027e-05
0.00313506
3.11624e-05
0.00313507
2.24235e-05
0.00313496
1.61212e-05
0.00313479
1.16415e-05
0.00313457
8.49719e-06
0.00313435
6.30267e-06
0.00313415
4.75208e-06
0.00313398
3.5991e-06
0.00313387
2.63948e-06
0.00313385
1.69572e-06
0.00313396
6.03541e-07
0.00313423
-8.00534e-07
0.00313474
-2.69086e-06
0.00313554
-5.26442e-06
0.00313673
-8.75309e-06
0.0031384
-1.34373e-05
0.00314069
-1.96618e-05
0.00314374
-2.78537e-05
0.00314772
-3.85446e-05
0.00315281
-5.23959e-05
0.00315922
-7.02285e-05
0.00316711
-9.30543e-05
0.00317663
-0.000122107
0.0031878
-0.000158862
0.00320047
-0.000205039
0.00321419
-0.000262543
0.00322805
-0.00033333
0.00324055
-0.000419124
0.00324946
-0.00052094
0.00325191
-0.0006384
0.00324475
-0.000768916
-0.000907029
0.00322535
0.00247241
0.000193642
0.00255951
0.000477178
0.00266929
0.000653552
0.00278184
0.000733584
0.00288507
0.000739351
0.0029733
0.000694805
0.00304519
0.000621156
0.0031018
0.000534755
0.0031453
0.000446894
0.00317809
0.000364543
0.00320246
0.000291404
0.00322034
0.00022892
0.00323331
0.000177105
0.00324262
0.000135157
0.00324921
0.000101874
0.00325381
7.59291e-05
0.00325697
5.60259e-05
0.00325908
4.09874e-05
0.00326045
2.97913e-05
0.0032613
2.15781e-05
0.00326178
1.56414e-05
0.00326201
1.14103e-05
0.00326208
8.42834e-06
0.00326205
6.33146e-06
0.00326198
4.82817e-06
0.00326189
3.6808e-06
0.00326184
2.68925e-06
0.00326186
1.67642e-06
0.00326199
4.75186e-07
0.00326227
-1.08356e-06
0.00326277
-3.18241e-06
0.00326353
-6.02889e-06
0.00326464
-9.86754e-06
0.0032662
-1.4993e-05
0.0032683
-2.1765e-05
0.00327107
-3.0625e-05
0.00327465
-4.21158e-05
0.00327915
-5.69032e-05
0.00328472
-7.57991e-05
0.00329145
-9.97842e-05
0.00329937
-0.000130025
0.00330839
-0.000167879
0.00331822
-0.000214868
0.00332828
-0.000272606
0.0033376
-0.000342646
0.00334468
-0.000426206
0.0033475
-0.000523764
0.00334361
-0.000634512
0.00333049
-0.000755788
-0.000882702
0.00330616
0.00246965
0.000157885
0.00255367
0.000393158
0.00266351
0.000543713
0.00278068
0.000616412
0.00289271
0.000627324
0.0029926
0.00059492
0.00307746
0.000536287
0.0031471
0.000465121
0.00320275
0.000391246
0.00324631
0.000320978
0.00327985
0.000257868
0.00330529
0.000203473
0.00332435
0.000158047
0.00333845
0.00012106
0.00334875
9.15767e-05
0.00335617
6.85071e-05
0.00336144
5.0756e-05
0.00336511
3.7311e-05
0.00336762
2.72817e-05
0.00336929
1.99127e-05
0.00337035
1.45782e-05
0.00337099
1.07688e-05
0.00337135
8.074e-06
0.00337152
6.16366e-06
0.00337157
4.77035e-06
0.00337158
3.67281e-06
0.00337159
2.68118e-06
0.00337164
1.62363e-06
0.00337178
3.34323e-07
0.00337206
-1.35792e-06
0.00337252
-3.64049e-06
0.00337322
-6.72793e-06
0.00337422
-1.08734e-05
0.00337561
-1.6381e-05
0.00337746
-2.36196e-05
0.00337988
-3.30377e-05
0.00338294
-4.51803e-05
0.00338674
-6.07062e-05
0.00339135
-8.04053e-05
0.00339678
-0.000105213
0.00340297
-0.000136214
0.00340973
-0.000174637
0.00341667
-0.000221809
0.00342313
-0.000279071
0.00342811
-0.000347625
0.00343019
-0.000428281
0.00342754
-0.000521119
0.0034181
-0.000625066
0.00339982
-0.000737515
-0.000854124
0.00337124
0.00246761
0.000124175
0.00254912
0.000311649
0.00265863
0.000434197
0.00277896
0.000496081
0.00289755
0.000508736
0.00300651
0.000485961
0.0031018
0.000440992
0.00318215
0.000384772
0.00324801
0.00032539
0.00330077
0.000268214
0.00334226
0.000216384
0.00337435
0.000171385
0.0033988
0.000133588
0.00341719
0.00010267
0.00343084
7.79335e-05
0.00344082
5.85218e-05
0.00344803
4.35525e-05
0.00345314
3.21964e-05
0.00345671
2.37166e-05
0.00345914
1.74822e-05
0.00346075
1.29669e-05
0.00346178
9.73883e-06
0.0034624
7.44725e-06
0.00346276
5.80692e-06
0.00346295
4.58339e-06
0.00346304
3.57889e-06
0.0034631
2.61952e-06
0.00346318
1.54344e-06
0.00346333
1.90052e-07
0.00346358
-1.61029e-06
0.00346399
-4.04631e-06
0.00346459
-7.33594e-06
0.00346546
-1.17369e-05
0.00346663
-1.75581e-05
0.00346819
-2.51718e-05
0.00347018
-3.50265e-05
0.00347266
-4.76613e-05
0.00347567
-6.37185e-05
0.00347922
-8.39555e-05
0.00348326
-0.000109251
0.00348765
-0.000140603
0.00349211
-0.000179104
0.0034962
-0.000225895
0.0034992
-0.000282074
0.00350012
-0.00034854
0.00349762
-0.000425784
0.0034901
-0.000513599
0.0034758
-0.00061077
0.0034531
-0.000714811
-0.00082189
0.00342087
0.00246612
9.19541e-05
0.00254567
0.000232097
0.00265473
0.000325137
0.00277718
0.000373633
0.00290053
0.00038538
0.00301633
0.000370164
0.00311969
0.000337634
0.00320849
0.000295967
0.00328254
0.000251343
0.00334279
0.000207963
0.00339082
0.000168354
0.00342843
0.000133773
0.00345743
0.000104598
0.00347944
8.06509e-05
0.00349593
6.14427e-05
0.00350811
4.63417e-05
0.00351698
3.46838e-05
0.00352334
2.58365e-05
0.00352783
1.92323e-05
0.00353093
1.43813e-05
0.00353302
1.0872e-05
0.0035344
8.36375e-06
0.00353527
6.57663e-06
0.0035358
5.27981e-06
0.0035361
4.27952e-06
0.00353627
3.40772e-06
0.00353638
2.51157e-06
0.00353648
1.44344e-06
0.00353662
5.17094e-08
0.00353684
-1.82834e-06
0.00353717
-4.38338e-06
0.00353767
-7.83119e-06
0.00353836
-1.24301e-05
0.00353929
-1.84893e-05
0.0035405
-2.6379e-05
0.00354201
-3.65418e-05
0.00354386
-4.95033e-05
0.00354602
-6.58818e-05
0.00354846
-8.63942e-05
0.00355106
-0.000111856
0.00355363
-0.000143172
0.00355583
-0.000181305
0.00355716
-0.000227223
0.00355689
-0.000281804
0.00355406
-0.000345703
0.00354743
-0.00041916
0.0035356
-0.000501771
0.00351709
-0.00059226
0.00349059
-0.000688305
-0.000786532
0.00345523
0.00246508
6.07692e-05
0.0025432
0.000153978
0.00265182
0.000216518
0.00277564
0.000249817
0.0029023
0.000258719
0.00302298
0.00024948
0.00313222
0.000228398
0.00322729
0.000200898
0.00330748
0.00017115
0.00337341
0.000142032
0.00342645
0.000115312
0.00346833
9.18963e-05
0.00350084
7.20859e-05
0.0035257
5.57948e-05
0.00354443
4.27136e-05
0.00355834
3.24277e-05
0.00356853
2.44933e-05
0.00357588
1.84832e-05
0.0035811
1.40107e-05
0.00358475
1.07395e-05
0.00358723
8.38424e-06
0.00358889
6.70576e-06
0.00358996
5.50419e-06
0.00359063
4.6104e-06
0.00359104
3.87748e-06
0.00359127
3.17222e-06
0.00359142
2.36704e-06
0.00359153
1.33222e-06
0.00359165
-7.16723e-08
0.00359182
-2.00129e-06
0.00359208
-4.63815e-06
0.00359244
-8.19653e-06
0.00359295
-1.29317e-05
0.0035936
-1.91487e-05
0.00359444
-2.72112e-05
0.00359545
-3.75501e-05
0.00359661
-5.06719e-05
0.0035979
-6.71645e-05
0.0035992
-8.76987e-05
0.00360037
-0.000113024
0.00360115
-0.00014395
0.00360116
-0.000181317
0.00359987
-0.000225934
0.00359656
-0.000278494
0.00359031
-0.00033945
0.00358
-0.000408851
0.00356439
-0.000486168
0.00354225
-0.000570118
0.00351251
-0.000658562
-0.000748532
0.00347451
0.00246443
3.02395e-05
0.00254161
7.67959e-05
0.00264989
0.000108233
0.00277452
0.000125187
0.00290327
0.000129977
0.00302709
0.000125654
0.00314017
0.000115325
0.00323937
0.000101694
0.00332366
8.68604e-05
0.0033934
7.2287e-05
0.00344984
5.88817e-05
0.00349461
4.71194e-05
0.00352953
3.71665e-05
0.00355634
2.89898e-05
0.00357661
2.24402e-05
0.00359173
1.73121e-05
0.00360284
1.33823e-05
0.00361089
1.04343e-05
0.00361663
8.26957e-06
0.00362065
6.71337e-06
0.00362342
5.61436e-06
0.00362529
4.8421e-06
0.00362651
4.28279e-06
0.00362728
3.83437e-06
0.00362776
3.40116e-06
0.00362804
2.88851e-06
0.00362821
2.19736e-06
0.00362833
1.21874e-06
0.00362843
-1.7189e-07
0.00362855
-2.12046e-06
0.00362871
-4.80054e-06
0.00362893
-8.41988e-06
0.00362923
-1.32273e-05
0.0036296
-1.952e-05
0.00363004
-2.76507e-05
0.00363052
-3.80342e-05
0.003631
-5.11531e-05
0.0036314
-6.75601e-05
0.00363158
-8.78767e-05
0.00363134
-0.000112784
0.00363039
-0.000143002
0.00362833
-0.000179253
0.0036246
-0.000222209
0.00361851
-0.000272403
0.00360919
-0.000330127
0.00359563
-0.000395291
0.00357675
-0.00046729
0.00355151
-0.000544874
0.00351904
-0.000626092
-0.000708335
0.00347884
0.00246411
2.68601e-08
0.00254083
7.64957e-08
0.00264894
1.25114e-07
0.00277395
1.75335e-07
0.0029037
2.29355e-07
0.00302906
2.89173e-07
0.00314403
3.56679e-07
0.00324529
4.33705e-07
0.00333163
5.22038e-07
0.00340329
6.23406e-07
0.00346143
7.39427e-07
0.00350768
8.71533e-07
0.00354383
1.02085e-06
0.00357163
1.18806e-06
0.0035927
1.37316e-06
0.00360843
1.5752e-06
0.00362002
1.79195e-06
0.00362844
2.01943e-06
0.00363446
2.25135e-06
0.00363869
2.47843e-06
0.00364162
2.6875e-06
0.0036436
2.86044e-06
0.00364491
2.9729e-06
0.00364575
2.9927e-06
0.00364627
2.87796e-06
0.00364659
2.57482e-06
0.00364677
2.01481e-06
0.00364688
1.11171e-06
0.00364695
-2.42079e-07
0.00364701
-2.17964e-06
0.00364707
-4.86426e-06
0.00364714
-8.49452e-06
0.00364723
-1.33099e-05
0.0036473
-1.95964e-05
0.00364735
-2.76923e-05
0.0036473
-3.79924e-05
0.0036471
-5.09516e-05
0.00364663
-6.70849e-05
0.00364571
-8.69625e-05
0.00364413
-0.000111198
0.00364155
-0.000140424
0.00363756
-0.00017526
0.0036316
-0.000216254
0.00362301
-0.000263808
0.00361096
-0.000318085
0.00359457
-0.000378901
0.00357289
-0.00044561
0.00354504
-0.000517021
0.00351032
-0.000591367
-0.000666357
0.00346834
0.00246411
-3.01862e-05
0.00254083
-7.66441e-05
0.00264894
-0.000107984
0.00277395
-0.000124838
0.0029037
-0.000129521
0.00302907
-0.000125079
0.00314404
-0.000114615
0.00324531
-0.000100832
0.00333165
-8.58223e-05
0.00340332
-7.10472e-05
0.00346148
-5.74111e-05
0.00350773
-4.53859e-05
0.00354389
-3.51358e-05
0.0035717
-2.66264e-05
0.00359279
-1.97084e-05
0.00360854
-1.4178e-05
0.00362015
-9.81671e-06
0.00362858
-6.41557e-06
0.00363462
-3.78879e-06
0.00363888
-1.77994e-06
0.00364183
-2.63857e-07
0.00364384
8.53938e-07
0.00364517
1.63884e-06
0.00364604
2.129e-06
0.00364658
2.33685e-06
0.0036469
2.25005e-06
0.00364709
1.83155e-06
0.00364718
1.01893e-06
0.00364721
-2.7717e-07
0.00364721
-2.17545e-06
0.00364717
-4.82703e-06
0.0036471
-8.41921e-06
0.00364697
-1.31796e-05
0.00364675
-1.93803e-05
0.0036464
-2.73421e-05
0.00364585
-3.74371e-05
0.00364498
-5.009e-05
0.00364367
-6.57759e-05
0.00364173
-8.50133e-05
0.00363888
-0.00010835
0.00363479
-0.000136341
0.00362904
-0.000169508
0.00362108
-0.000208295
0.00361027
-0.000252996
0.00359586
-0.000303677
0.00357705
-0.000360087
0.00355301
-0.000421573
0.00352301
-0.000487016
0.00348646
-0.000554823
-0.000622988
0.00344309
0.00246443
-6.07172e-05
0.00254161
-0.000153829
0.0026499
-0.000216275
0.00277454
-0.000249476
0.00290329
-0.000258272
0.00302713
-0.000248916
0.00314021
-0.000227701
0.00323943
-0.000200051
0.00332374
-0.000170129
0.00339351
-0.000140814
0.00344996
-0.000113866
0.00349477
-9.01914e-05
0.00352972
-7.00884e-05
0.00355656
-5.34693e-05
0.00357688
-4.0025e-05
0.00359204
-2.93424e-05
0.00360321
-2.09822e-05
0.00361132
-1.45246e-05
0.00361712
-9.5954e-06
0.00362122
-5.87614e-06
0.00362406
-3.10699e-06
0.003626
-1.08412e-06
0.0036273
3.44991e-07
0.00362814
1.28677e-06
0.00362867
1.80655e-06
0.00362899
1.93254e-06
0.00362916
1.65877e-06
0.00362923
9.46705e-07
0.00362923
-2.74269e-07
0.00362916
-2.1075e-06
0.00362902
-4.69066e-06
0.0036288
-8.19806e-06
0.00362847
-1.28435e-05
0.00362797
-1.8883e-05
0.00362724
-2.66175e-05
0.0036262
-3.63943e-05
0.00362472
-4.86061e-05
0.00362263
-6.36875e-05
0.00361972
-8.21064e-05
0.00361572
-0.000104349
0.00361027
-0.000130895
0.00360295
-0.000162184
0.00359323
-0.00019857
0.00358049
-0.00024026
0.00356406
-0.000287249
0.00354322
-0.000339243
0.00351724
-0.000395601
0.00348551
-0.000455286
0.00344756
-0.000516873
-0.000578602
0.00340318
0.00246508
-9.19041e-05
0.00254321
-0.000231953
0.00265184
-0.000324902
0.00277566
-0.000373303
0.00290234
-0.000384947
0.00302304
-0.000369617
0.0031323
-0.000336958
0.00322739
-0.000295144
0.00330761
-0.000250352
0.00337358
-0.000206779
0.00342666
-0.000166948
0.00346858
-0.000132115
0.00350115
-0.000102655
0.00352607
-7.83879e-05
0.00354487
-5.88253e-05
0.00355886
-4.33369e-05
0.00356914
-3.12626e-05
0.0035766
-2.19773e-05
0.00358192
-1.49252e-05
0.00358568
-9.63383e-06
0.00358829
-5.71614e-06
0.00359007
-2.86556e-06
0.00359127
-8.48031e-07
0.00359205
5.06722e-07
0.00359254
1.31351e-06
0.00359283
1.6387e-06
0.00359299
1.50579e-06
0.00359303
8.99275e-07
0.00359299
-2.32943e-07
0.00359286
-1.97854e-06
0.00359263
-4.46094e-06
0.00359228
-7.84028e-06
0.00359175
-1.2315e-05
0.00359099
-1.81235e-05
0.00358992
-2.55454e-05
0.00358842
-3.49013e-05
0.00358637
-4.65514e-05
0.00358357
-6.08898e-05
0.0035798
-7.83355e-05
0.00357477
-9.9316e-05
0.00356812
-0.000124245
0.00355942
-0.000153489
0.00354818
-0.000187327
0.00353382
-0.000225897
0.00351571
-0.000269141
0.00349321
-0.000316746
0.0034657
-0.000368094
0.00343266
-0.000422239
0.00339369
-0.000477907
-0.00053356
0.00334865
0.00246612
-0.000124128
0.00254568
-0.000311513
0.00265475
-0.000433973
0.00277721
-0.000495765
0.00290059
-0.000508321
0.00301641
-0.000485437
0.0031198
-0.000440344
0.00320864
-0.000383983
0.00328272
-0.000324439
0.00334302
-0.000267077
0.00339111
-0.000215033
0.00342878
-0.000169792
0.00345785
-0.00013172
0.00347995
-0.000100493
0.00349654
-7.54141e-05
0.00350883
-5.56278e-05
0.00351783
-4.02553e-05
0.00352432
-2.84743e-05
0.00352896
-1.95591e-05
0.00353222
-1.2895e-05
0.00353448
-7.97925e-06
0.00353603
-4.41232e-06
0.00353707
-1.88699e-06
0.00353775
-1.75834e-07
0.00353818
8.80239e-07
0.00353844
1.3819e-06
0.00353857
1.37937e-06
0.00353859
8.78448e-07
0.00353851
-1.55372e-07
0.00353832
-1.79437e-06
0.00353801
-4.14741e-06
0.00353753
-7.3598e-06
0.00353683
-1.16137e-05
0.00353583
-1.71285e-05
0.00353445
-2.41614e-05
0.00353255
-3.30059e-05
0.00352999
-4.39891e-05
0.00352657
-5.74656e-05
0.00352204
-7.38075e-05
0.00351611
-9.33888e-05
0.00350843
-0.000116563
0.00349858
-0.000143634
0.00348607
-0.000174818
0.00347037
-0.000210201
0.00345092
-0.000249688
0.00342713
-0.000292961
0.00339848
-0.000339438
0.0033645
-0.00038826
0.00332489
-0.000438299
-0.000488212
0.00327954
0.00246761
-0.000157841
0.00254913
-0.000393031
0.00265866
-0.000543503
0.00277901
-0.000616115
0.00289762
-0.000626933
0.00300661
-0.000594425
0.00310194
-0.000535674
0.00318233
-0.000464375
0.00324823
-0.000390345
0.00330106
-0.000319901
0.00334261
-0.000256587
0.00337478
-0.000201961
0.00339933
-0.000156272
0.00341783
-0.00011899
0.0034316
-8.91804e-05
0.00344172
-6.57524e-05
0.00344908
-4.76149e-05
0.00345437
-3.37618e-05
0.00345812
-2.33131e-05
0.00346076
-1.55285e-05
0.00346258
-9.80418e-06
0.00346383
-5.66093e-06
0.00346467
-2.72918e-06
0.00346523
-7.3312e-07
0.00346559
5.23822e-07
0.0034658
1.17148e-06
0.00346589
1.28313e-06
0.00346589
8.83341e-07
0.00346578
-4.6365e-08
0.00346555
-1.56364e-06
0.00346516
-3.76302e-06
0.00346458
-6.77465e-06
0.00346373
-1.07638e-05
0.00346253
-1.59305e-05
0.00346088
-2.25086e-05
0.00345864
-3.07643e-05
0.00345564
-4.09919e-05
0.00345168
-5.35079e-05
0.00344651
-6.86403e-05
0.00343984
-8.67138e-05
0.0034313
-0.000108029
0.00342051
-0.000132835
0.00340699
-0.000161299
0.00339025
-0.000193465
0.00336978
-0.000229217
0.00334506
-0.000268242
0.00331562
-0.000310001
0.00328109
-0.000353722
0.0032412
-0.000398411
-0.000442898
0.00319588
0.00246966
-0.000193602
0.00255369
-0.000477061
0.00266354
-0.000653358
0.00278074
-0.000733309
0.00289279