/*--------------------------------*- C++ -*----------------------------------*\
  =========                 |
  \\      /  F ield         | OpenFOAM: The Open Source CFD Toolbox
   \\    /   O peration     | Website:  https://openfoam.org
    \\  /    A nd           | Version:  6
     \\/     M anipulation  |
\*---------------------------------------------------------------------------*/
FoamFile
{
    version     2.0;
    format      ascii;
    class       volVectorField;
    location    "0";
    object      U_rec;
}
// * * * * * * * * * * * * * * * * * * * * * * * * * * * * * * * * * * * * * //

dimensions      [0 1 -1 0 0 0 0];

internalField   nonuniform List<vector> 
918
(
(0.576728 -0.275353 0)
(0.377687 2.6369 0)
(-0.331451 1.68493 0)
(0.507746 0.22883 0)
(0.355901 1.81197 4.32892e-18)
(-0.399581 2.39833 -5.27749e-16)
(1.09073 1.81772 -1.07191e-16)
(0.426401 0.260604 -3.21533e-18)
(0.590268 0.00698237 0)
(0.00726445 1.78579 0)
(0.0078154 1.72906 0)
(0.941332 0.00199164 0)
(0.114505 3.15276 0)
(0.0946485 3.00733 0)
(-0.0960664 2.6503 -1.55395e-16)
(-0.00373099 1.71439 -1.19855e-17)
(0.685491 0.172648 2.40685e-16)
(0.156996 2.0729 -9.56044e-17)
(0.984971 0.0254566 0)
(-0.00495737 1.72563 0)
(-0.177041 -0.238103 -1.44073e-16)
(0.400246 -0.0571099 0)
(0.847709 0.101339 0)
(1.06861 0.0267976 0)
(0.861124 0.0323498 0)
(0.128485 3.17841 0)
(0.00450964 2.93774 1.76162e-16)
(-0.590635 1.84235 0)
(-0.040146 1.70467 0)
(-0.235919 1.78649 0)
(-0.0370558 1.60706 0)
(-0.240804 1.61285 1.20833e-17)
(-0.014426 1.72127 0)
(-0.746914 3.17059 -1.99025e-20)
(-0.108185 2.98876 4.09464e-16)
(0.0592208 2.8203 0)
(0.985449 -0.0029248 0)
(0.82384 1.33955 8.34504e-17)
(1.11225 1.69337 2.05848e-16)
(1.24261 1.60854 -1.65326e-16)
(0.932794 1.88021 2.58113e-17)
(0.887272 1.99449 -1.258e-16)
(0.444374 0.319117 3.18801e-18)
(0.501484 0.264666 0)
(1.37813 0.813699 0)
(0.345324 0.323938 1.42191e-17)
(0.336256 0.233767 -1.45675e-17)
(0.992984 -0.00781177 0)
(0.961399 0.00730247 0)
(0.59285 0.00360927 0)
(0.947347 -0.162207 0)
(0.91806 0.0320971 0)
(0.598148 0.0479949 0)
(0.00151633 1.63015 -1.43216e-16)
(0.0434871 1.81748 0)
(0.015163 1.84196 0)
(0.00291067 1.80031 0)
(0.00177769 1.79829 0)
(0.0054563 1.72837 0)
(0.0285257 1.74131 0)
(0.00579073 1.74906 0)
(-0.00764143 1.71459 0)
(-0.00181783 1.71277 0)
(1.01432 0.00326935 0)
(0.94875 0.0185153 0)
(0.956074 0.00157196 0)
(0.9378 0.0103389 0)
(0.934521 0.00396766 0)
(-0.282558 2.70048 1.93502e-16)
(0.548316 2.65924 0)
(-0.0134169 2.30127 0)
(0.259157 3.32496 2.25048e-21)
(-0.216227 3.17935 -2.86017e-16)
(0.0646829 3.12842 0)
(0.0540759 2.999 0)
(0.173569 3.03819 4.76003e-22)
(0.0208342 2.97417 0)
(-0.120616 3.00399 0)
(-0.125671 3.00772 0)
(0.150539 2.7767 0)
(-0.0472127 2.94678 0)
(-0.0339556 2.72273 1.46484e-16)
(-0.0516005 2.65967 0)
(0.00113619 1.7361 0)
(-0.0176024 1.71712 2.21087e-17)
(0.00675099 1.72635 -1.61819e-17)
(0.70339 0.177737 -8.48058e-17)
(0.721422 0.142868 -8.21547e-17)
(0.668169 0.217702 -2.45301e-16)
(0.6503 0.205681 -1.60196e-16)
(0.145717 1.41227 0)
(0.356545 2.08422 7.44968e-17)
(0.416336 2.15395 -1.37127e-16)
(1.00701 0.00459068 0)
(0.991615 0.00244414 0)
(0.57442 -0.00539185 0)
(1.00249 0.0587935 0)
(0.972741 0.125849 -1.02416e-15)
(1.09665 0.332974 8.28211e-16)
(0.00776018 1.73302 0)
(-0.00830456 1.74255 0)
(-0.0864806 1.66723 0)
(-0.0549521 1.74647 0)
(-0.0379483 1.73105 0)
(-0.0020886 0.141428 4.4722e-17)
(0.10388 0.111917 0)
(1.04632 -0.0197901 0)
(1.01757 -0.00580626 0)
(0.919544 0.0670853 0)
(0.877398 0.18516 0)
(0.900606 0.0122035 0)
(1.14554 -0.00501291 0)
(0.842882 0.0703692 0)
(0.806372 0.0346406 3.99342e-16)
(-0.0766604 2.87909 2.06426e-16)
(0.0913187 3.11581 0)
(0.00486127 3.21993 0)
(0.0549711 3.03745 0)
(0.110179 2.96573 1.80534e-16)
(0.0388334 2.9557 0)
(0.0626343 2.94475 -5.68754e-16)
(-0.00961892 2.93766 1.9649e-16)
(0.0205126 1.74143 0)
(-0.0104306 1.74957 0)
(0.00810248 1.71972 -4.31007e-19)
(-0.0392487 1.72762 0)
(0.00377538 1.7192 0)
(0.981853 0.00276212 0)
(0.983506 -0.00183363 0)
(0.978195 -0.000205952 0)
(0.98485 -0.0161614 0)
(0.985269 0.00184127 0)
(0.871429 1.43906 -1.05909e-16)
(0.944883 1.41303 0)
(0.802349 1.34037 1.16599e-17)
(0.781192 1.29016 0)
(1.19955 1.46629 5.57383e-17)
(1.33798 1.32555 -1.15567e-16)
(0.561157 2.11112 0)
(0.7585 2.02335 0)
(0.665473 2.1203 0)
(0.539335 1.28669 -5.12975e-17)
(0.513784 0.307206 0)
(0.55355 0.251351 4.27934e-17)
(1.25358 1.21743 0)
(1.27189 0.984912 0)
(1.37376 1.05741 1.22099e-16)
(1.31805 0.762963 0)
(1.38483 0.631992 -3.33923e-18)
(0.990625 0.00588527 0)
(0.996581 -0.0118066 0)
(0.992401 -0.00223867 0)
(1.00876 -0.00824844 0)
(0.996755 -0.0369535 0)
(0.993819 -0.00188774 0)
(0.935751 -0.0105383 0)
(0.93865 -0.00590323 0)
(0.595114 -0.00321806 0)
(0.00614067 1.624 7.92883e-17)
(0.00319456 1.59085 0)
(0.0250108 1.65682 1.38588e-16)
(0.00311118 1.66442 -1.29207e-16)
(0.0799251 2.01299 6.86025e-17)
(0.0428617 1.90558 0)
(0.00649186 1.96726 0)
(0.0194063 1.77604 0)
(0.00819062 1.72644 0)
(-0.000879353 1.70723 -6.93331e-19)
(-0.00991086 1.70929 0)
(0.024269 1.72589 -4.3577e-17)
(0.0107531 1.71721 7.52656e-17)
(0.0188127 1.73171 0)
(0.0244858 1.74791 0)
(0.00314351 1.74176 0)
(-0.00459565 1.74339 0)
(-0.00287879 1.78063 0)
(1.01951 0.0188176 0)
(1.02324 0.00277666 0)
(1.00286 0.00875145 0)
(0.995192 0.00200443 0)
(0.970204 -0.000532976 0)
(0.957674 0.00167002 0)
(0.951061 0.00764078 0)
(0.952558 -0.00125471 0)
(0.0729667 3.03426 -1.76467e-18)
(0.100078 3.08401 0)
(0.0355384 3.01727 0)
(-0.0132949 2.97306 0)
(0.53478 2.96167 0)
(1.3366 2.27835 -4.26293e-17)
(-0.105235 2.72278 0)
(-0.078708 2.67005 0)
(-0.0205024 1.78783 0)
(-0.00514518 1.72537 0)
(-0.000226985 1.74267 0)
(0.187598 1.86264 -6.74478e-18)
(0.019808 1.7878 0)
(0.0142695 1.78316 0)
(0.0134355 1.72139 -8.03707e-18)
(0.0279784 1.70737 2.19816e-17)
(0.00847141 1.70688 2.7264e-17)
(0.00788516 1.69524 0)
(0.730861 0.171782 1.29285e-16)
(0.743626 0.0965585 -1.30718e-16)
(0.185043 1.41845 0)
(0.206616 1.37088 -2.95103e-17)
(0.124299 1.48298 -1.01782e-16)
(0.0660781 1.49346 9.27533e-17)
(0.983674 -0.00109999 0)
(0.982067 -0.00926121 0)
(0.98639 0.00652822 0)
(0.979235 0.000589554 0)
(0.00990525 1.76111 0)
(-0.00429974 1.72892 0)
(0.00308951 1.72386 0)
(0.230862 0.301146 1.2941e-16)
(0.0898891 0.25641 -1.5056e-16)
(0.228519 0.184199 0)
(1.17512 0.104247 1.67281e-17)
(1.2543 0.0608573 0)
(1.10211 0.051774 0)
(1.07411 0.00262801 0)
(0.762463 0.101108 0)
(0.801126 0.0651911 -6.26004e-16)
(0.771599 0.0586823 2.31197e-16)
(-0.153273 2.93334 1.83437e-16)
(-0.0848591 2.94448 -5.57405e-18)
(0.121163 3.12758 -3.66713e-18)
(0.132107 3.36397 1.35181e-16)
(-0.0170319 2.99667 6.44354e-18)
(-0.0424422 3.00441 -2.60229e-20)
(-0.0657041 3.02406 -1.14583e-16)
(0.533459 3.19401 7.76538e-17)
(0.0465333 3.40749 -1.40883e-16)
(0.993263 0.00524153 0)
(0.982648 0.0404134 0)
(0.993378 0.00815479 0)
(0.976553 -0.0041822 0)
(0.97238 -0.0020272 0)
(0.970419 -0.000946854 0)
(0.968456 -0.0048952 0)
(0.973547 0.0073815 0)
(0.97156 -0.000131829 0)
(0.984835 1.48161 -1.22782e-16)
(1.04924 1.46093 0)
(0.639408 1.23946 1.63845e-17)
(0.679145 1.29038 1.34759e-16)
(0.750881 1.31805 -8.39199e-17)
(0.716921 1.28348 1.5917e-16)
(0.504742 1.30424 2.49413e-16)
(0.476456 1.28743 4.77792e-17)
(0.628365 0.250367 1.66208e-16)
(0.573932 0.279271 4.31757e-17)
(0.60857 0.23487 8.23606e-17)
(1.30188 0.566281 -1.31126e-16)
(1.35706 0.420439 -1.37561e-16)
(0.00372957 1.67334 5.68162e-17)
(-0.00210714 1.67255 0)
(1.0633 0.036539 0)
(1.03632 0.0229959 0)
(1.04768 0.00368856 0)
(0.0149219 3.06718 0)
(0.133253 3.00665 2.55982e-16)
(0.0713583 3.00895 0)
(-0.000494761 2.9698 -2.64257e-16)
(-0.0877942 3.04224 6.54935e-17)
(-0.00956132 3.00702 0)
(1.06825 1.56635 3.45864e-17)
(1.19611 1.82992 -1.23579e-16)
(1.08893 1.55722 1.10261e-16)
(-0.144875 2.87681 -1.83638e-16)
(-0.145511 2.78114 0)
(-0.0707077 2.78815 0)
(-0.00441781 1.70735 8.14412e-18)
(0.050112 1.7085 -6.16217e-17)
(0.00488834 1.69906 8.04253e-18)
(0.237393 1.36658 9.48844e-17)
(0.261384 1.31608 -6.65479e-17)
(0.0426319 1.59345 7.904e-17)
(0.0738671 1.54597 -9.72913e-17)
(0.0124133 1.54306 -6.66609e-18)
(0.00111369 3.09865 -3.91287e-16)
(-0.0456135 3.10159 5.02081e-16)
(0.134217 2.96513 1.86226e-16)
(-0.173261 3.04089 -1.88782e-16)
(0.144003 2.96368 -1.79969e-16)
(-0.0905142 2.97424 -4.86085e-16)
(-0.194623 3.06611 4.67046e-16)
(0.550115 1.2934 0)
(0.602958 1.26685 -2.68899e-16)
(0.579474 1.24155 1.13986e-16)
(0.426224 1.31344 1.35165e-16)
(0.401317 1.2902 -1.99232e-16)
(1.25038 0.21668 6.59052e-17)
(1.2957 0.39939 0)
(1.3391 0.255459 -7.01076e-17)
(-0.0315705 1.72425 -7.83912e-19)
(0.00536123 1.69533 0)
(0.00913209 1.71718 0)
(0.28724 1.34638 -3.53203e-17)
(0.362366 1.32896 -8.34597e-17)
(0.346886 1.32773 1.43483e-16)
(0.988974 -0.0813356 0)
(1.10166 -0.143635 1.98914e-16)
(0.104251 1.72978 0)
(0.0599083 1.58494 0)
(1.04113 -0.0894531 -1.26319e-19)
(0.872205 -0.109558 3.93167e-16)
(0.141352 1.9324 -1.83404e-17)
(0.1139 1.72385 0)
(-0.144663 2.85307 1.81849e-16)
(0.126535 2.64999 0)
(1.19939 0.663101 -6.61062e-17)
(1.07249 -0.00584318 1.13305e-17)
(1.09647 0.0120896 0)
(0.952051 -0.00706791 4.26789e-20)
(0.0138907 1.92944 0)
(0.0920006 1.82006 0)
(-0.0113532 1.84183 0)
(0.0945115 1.85202 3.77062e-17)
(0.0646385 1.84128 4.26886e-17)
(1.01529 0.00301159 1.11398e-17)
(1.09365 0.0600684 0)
(1.11021 0.0501133 0)
(-0.0269234 1.68516 0)
(0.0557882 1.79439 0)
(-0.0667784 1.83071 0)
(0.297045 2.0127 7.0869e-17)
(1.03457 -0.166494 0)
(0.970415 -0.0577276 0)
(0.953985 0.179641 2.46657e-16)
(0.902644 0.0633032 -2.95596e-16)
(1.11511 -0.0849989 0)
(0.184589 1.77162 0)
(-0.142835 1.7007 0)
(-0.0723233 1.86125 0)
(-0.0747897 1.75978 0)
(-0.26816 1.85681 0)
(-0.0240354 1.55998 0)
(1.03136 0.00125792 0)
(1.03996 -0.00344949 1.13847e-17)
(0.967568 1.66336 -1.01962e-16)
(0.986995 -0.203993 -2.46606e-16)
(0.996676 0.0775097 2.96487e-16)
(1.14543 0.0729073 0)
(0.987026 -0.0135539 2.4776e-16)
(1.09658 0.15632 -2.90077e-16)
(0.939692 0.0143155 0)
(0.0269023 1.75555 0)
(0.221505 1.7771 1.07929e-17)
(-0.00110097 1.62053 -1.73421e-17)
(1.20016 0.263669 3.37013e-16)
(1.13438 0.0787643 0)
(-0.95145 2.77649 -2.42994e-16)
(-0.315354 3.57452 -1.5763e-17)
(-0.51616 2.6092 3.61271e-16)
(-0.0201313 2.76345 -9.78425e-17)
(-0.0413488 2.70964 0)
(-0.0597461 2.91421 8.23896e-17)
(-0.535217 3.10302 2.36617e-16)
(-0.11954 2.89175 -1.4847e-16)
(-0.432269 3.08005 0)
(0.599378 0.320802 0)
(0.413358 0.369119 0)
(1.02973 0.888001 1.9252e-16)
(1.14277 0.887098 -2.40874e-16)
(1.14902 0.518639 0)
(1.12228 0.566048 0)
(1.02752 0.0658855 -4.58457e-16)
(0.946025 0.0351308 5.69532e-16)
(1.09993 -0.182078 0)
(0.942418 -0.0653085 0)
(0.822753 0.0941433 0)
(1.11262 -0.0896017 0)
(1.02092 0.115013 0)
(0.938543 -0.00358711 0)
(1.04324 -0.174197 0)
(0.951761 -0.0204863 0)
(-0.00196187 1.83674 0)
(0.0552045 1.71769 0)
(-0.0149648 1.85233 0)
(0.0990213 1.79478 0)
(0.273936 1.81375 0)
(0.0953752 1.59905 -6.15718e-17)
(0.0943191 1.66452 0)
(-0.032656 1.61895 5.84531e-17)
(0.0796294 1.79785 -8.76069e-17)
(0.0874331 1.77698 0)
(0.0897763 1.6507 0)
(-0.0832171 1.73642 0)
(-0.0603612 1.67913 0)
(-0.0362753 1.79251 -5.2462e-17)
(0.0811223 1.73265 3.84867e-17)
(-0.0707824 1.79241 5.97777e-17)
(0.0114357 1.58218 0)
(-0.0576471 1.791 -7.14048e-17)
(-0.0290122 1.65198 -5.64082e-17)
(0.170053 1.88003 1.57127e-17)
(-0.265778 1.4453 -6.44756e-17)
(-0.0308271 1.46928 -6.09573e-17)
(0.974355 -0.0526385 4.10203e-16)
(0.925803 -0.0513942 -5.18202e-16)
(0.968775 0.0559936 -4.00938e-16)
(0.891492 0.038931 4.96587e-16)
(1.08157 0.174706 0)
(0.943458 0.0509606 0)
(1.04064 0.0932366 0)
(1.05012 -0.0413286 0)
(0.903415 0.0122337 0)
(1.10056 0.130899 0)
(1.08077 -0.00275423 0)
(0.927293 0.0410852 0)
(-0.274977 1.62485 -1.48262e-19)
(-0.122887 1.76103 0)
(0.0624813 1.78598 0)
(0.134651 1.71343 1.28778e-17)
(0.108841 1.67395 -6.3391e-19)
(-0.0680952 1.70641 2.39282e-17)
(-0.35092 1.64727 -1.04452e-17)
(-0.221649 1.69595 0)
(0.0925601 1.82646 0)
(0.0761671 1.69271 0)
(-0.144974 1.75527 0)
(-0.122394 1.70023 0)
(0.342777 1.90153 -1.81049e-16)
(0.469911 1.94342 -5.33667e-17)
(0.257912 1.5055 -2.50102e-17)
(0.151988 1.62749 8.47515e-17)
(0.300571 1.80119 4.16876e-17)
(1.03806 0.0465805 0)
(0.992528 0.0637836 0)
(0.972782 0.0594283 0)
(0.941813 -0.0328042 0)
(1.03137 -0.114419 0)
(0.921619 0.0381573 0)
(1.00138 0.177211 0)
(1.01293 -0.0516746 0)
(0.980989 -0.0490582 4.37412e-16)
(0.943862 -0.03921 -5.53414e-16)
(0.995924 0.0556145 -4.29023e-16)
(0.926042 0.0381163 5.35416e-16)
(0.900684 1.63971 0)
(0.849739 1.69947 -1.42961e-16)
(0.854424 1.60144 -9.77539e-17)
(0.976221 1.39443 1.55849e-16)
(0.931827 1.61993 3.34575e-16)
(0.831959 0.115957 1.52226e-16)
(1.08898 0.0800225 0)
(1.1469 0.334109 -2.98709e-16)
(1.00988 0.112201 -1.21881e-17)
(0.97354 0.125066 0)
(-0.783625 2.53989 2.02878e-16)
(-1.09621 2.46013 -3.11392e-16)
(-1.60298 3.05345 1.87219e-16)
(-1.79026 0.875744 -8.26693e-17)
(-0.122835 2.60116 1.01564e-16)
(-0.292974 2.77075 0)
(-0.0594204 2.609 -1.39953e-16)
(-0.375948 2.44723 -4.47152e-16)
(-0.227256 2.46875 0)
(-0.175026 2.86897 1.33161e-17)
(-0.0916085 3.24509 -1.52332e-16)
(-0.045819 2.95401 2.12947e-16)
(-0.347337 3.04689 0)
(-0.0427254 2.94884 0)
(1.0745 1.74211 0)
(0.357578 1.23534 -1.10648e-16)
(1.08342 1.11653 8.52869e-17)
(0.882652 1.45537 0)
(0.757518 1.05595 -7.02978e-17)
(0.980356 1.13602 -7.76899e-18)
(-0.110127 0.21555 -1.96869e-16)
(0.601786 0.265908 1.42157e-18)
(0.580837 0.283408 9.6564e-17)
(0.304066 0.497394 6.4407e-18)
(0.211133 0.344133 -2.54191e-16)
(0.497685 0.461625 0)
(0.483665 0.613722 1.61148e-16)
(0.51892 0.346333 0)
(0.379223 0.376786 0)
(0.42039 0.336527 0)
(0.559521 0.750842 1.32407e-16)
(1.20101 0.193867 -2.75808e-16)
(1.08378 0.586025 0)
(1.15298 0.27391 0)
(0.751324 0.226943 1.49575e-16)
(0.535795 0.75725 -9.03748e-17)
(0.478418 0.541562 1.80025e-16)
(0.818284 0.418549 -2.36195e-16)
(0.968739 -0.0554178 3.01903e-16)
(0.992747 0.191339 -2.97817e-16)
(0.938981 0.0360784 0)
(0.958969 -0.0337258 0)
(0.964785 -0.0223742 -2.91148e-16)
(0.934177 0.0403669 2.77549e-16)
(0.917755 0.112502 0)
(0.891761 0.0488369 0)
(1.04415 -0.0188553 0)
(0.899143 -0.064364 0)
(1.05748 -0.0156267 0)
(0.952974 -0.068099 0)
(0.272346 1.8014 0)
(0.135073 1.7387 0)
(0.318123 1.81573 -9.29465e-17)
(0.361878 1.96179 -5.47547e-17)
(0.381138 1.85206 -9.42202e-17)
(0.248178 1.86787 1.76759e-16)
(-0.0737137 1.76724 0)
(0.0895786 1.79273 -7.92075e-17)
(-0.137562 1.90028 0)
(0.186752 1.61367 -4.66486e-17)
(0.0691672 1.53817 1.09209e-16)
(0.355089 1.51362 9.0329e-17)
(0.138954 1.64096 -5.28687e-17)
(0.0182334 1.6874 3.07568e-17)
(0.1357 1.73937 -1.21884e-16)
(0.214917 1.73733 0)
(0.280921 1.57471 8.18012e-17)
(0.167911 1.6107 -2.84837e-17)
(0.209755 1.74574 0)
(-0.0160499 1.79045 6.95869e-17)
(-0.208883 1.62154 0)
(0.00737058 1.66501 -5.36986e-17)
(0.0110039 1.5848 0)
(-0.0260022 1.75493 -4.46746e-17)
(0.0696099 1.5998 0)
(-0.0115003 1.71878 0)
(0.0836161 1.65498 6.83258e-17)
(0.209272 1.79033 -1.55439e-17)
(-0.0190731 1.71633 8.31447e-17)
(0.047541 1.6113 6.62893e-19)
(0.195955 1.7136 4.10973e-17)
(0.0286364 1.40363 1.14078e-17)
(-0.237739 1.66055 0)
(-0.0947486 1.72 0)
(-0.00994466 1.56848 8.81031e-17)
(-0.0415582 1.61616 8.45862e-17)
(0.0769577 1.75747 -9.35653e-17)
(-0.0420875 1.79567 0)
(0.149199 1.8009 -3.91368e-17)
(-0.0577557 1.53061 2.64504e-17)
(-0.0698335 1.68729 -1.02806e-17)
(0.160121 1.90811 -2.38818e-17)
(0.291451 1.53222 -1.26396e-17)
(0.0260985 1.47237 4.7803e-17)
(0.955736 0.0700727 -2.79596e-16)
(0.960451 -0.172349 2.83138e-16)
(0.919929 0.0205887 0)
(0.937774 -0.0795214 3.53604e-16)
(0.881345 0.19659 -3.92009e-16)
(0.948845 0.0138287 4.31406e-16)
(0.926945 -0.0314015 -4.87947e-17)
(1.05632 -0.136449 0)
(0.969416 0.0149078 2.66695e-16)
(0.911522 -0.0474247 -2.79212e-16)
(0.905171 -0.0708837 -1.55564e-17)
(0.902447 0.207772 1.35247e-16)
(0.994002 0.139639 0)
(0.905707 0.0833661 -4.69397e-17)
(0.985974 0.0392728 0)
(0.870908 0.0993536 0)
(0.996564 0.0611921 0)
(0.880596 -0.0337617 0)
(0.950725 0.1013 9.87736e-17)
(1.03818 0.0254549 -2.12047e-16)
(0.97399 -0.00436798 -1.07338e-16)
(0.938212 -0.0200729 -1.13545e-16)
(1.12857 0.0965571 2.29339e-16)
(0.887438 0.108455 0)
(0.878077 -0.0242177 0)
(-0.00624773 1.88953 -3.21512e-17)
(0.348708 1.87883 -2.15441e-18)
(0.133082 1.55777 0)
(0.0706447 1.67814 1.6082e-17)
(-0.232668 1.70137 4.86653e-18)
(-0.164197 1.72287 -4.57087e-18)
(-0.160382 1.7374 2.8233e-17)
(-0.0912348 1.67477 -2.50277e-18)
(0.271402 1.61847 1.10016e-17)
(0.18225 1.69151 -1.54294e-17)
(-0.0552772 1.67783 3.01236e-17)
(-0.0898404 1.57052 -2.75988e-18)
(0.0575952 1.883 2.07296e-17)
(0.482089 1.65462 9.69765e-17)
(0.245395 1.86079 1.27051e-16)
(0.745057 1.78179 1.12755e-16)
(0.586157 1.90708 6.3485e-17)
(0.670081 1.89778 0)
(0.330777 1.4408 3.11943e-17)
(0.244856 1.34016 3.6921e-17)
(0.220736 1.503 -7.64379e-19)
(0.157063 1.44632 -1.50241e-16)
(0.484267 1.51131 9.97355e-17)
(0.0943857 1.50372 0)
(0.108489 1.37334 -6.5071e-17)
(0.0809318 1.63956 1.66716e-16)
(-0.102018 1.61685 7.34618e-18)
(0.0166825 1.4862 -2.06628e-16)
(0.695544 1.397 1.64336e-16)
(0.475325 1.42384 0)
(1.04203 0.23861 9.81044e-18)
(0.983648 -0.198814 -8.22281e-18)
(0.891526 -0.149031 -1.49167e-16)
(1.01508 0.0398239 1.47566e-16)
(0.926607 -0.00289879 0)
(0.708271 1.52394 0)
(0.976908 1.59312 0)
(0.809748 1.23441 0)
(0.776788 1.45675 0)
(0.778887 1.62983 3.47153e-18)
(0.692202 1.45565 0)
(0.514889 1.28417 1.70228e-18)
(0.416824 1.40437 0)
(0.547263 1.59595 -1.44435e-16)
(0.6793 1.36262 1.09028e-16)
(0.77217 0.0787915 0)
(0.774641 0.124404 3.94511e-17)
(0.801396 0.172202 2.62745e-16)
(0.828436 0.0527723 -9.60692e-17)
(0.806065 0.0943329 -2.9017e-16)
(1.14014 0.23614 -3.53354e-16)
(0.602557 0.49326 3.43411e-18)
(0.972554 0.0723284 2.41514e-16)
(0.840209 0.0615647 2.18684e-16)
(0.794536 0.20329 -3.52225e-16)
(0.898655 0.294898 4.18039e-17)
(0.626967 0.312637 -9.71591e-17)
(0.774728 0.33031 0)
(0.880981 0.171672 1.84469e-16)
(0.966936 0.175655 0)
(0.99233 0.0859646 0)
(0.880322 0.255541 1.06918e-16)
(0.893427 0.418509 3.71318e-18)
(0.785439 0.0555796 -5.51364e-17)
(0.901399 0.0451724 0)
(0.865404 0.0377755 2.07647e-16)
(0.872595 -0.163193 2.72847e-16)
(1.09132 0.0914523 -2.10778e-16)
(0.970057 0.221837 -1.73109e-16)
(0.918541 -0.0456003 -2.65815e-16)
(0.812621 0.234567 0)
(0.887513 0.0274782 0)
(0.863919 0.138622 -1.43828e-16)
(0.889532 -0.0926294 5.75266e-17)
(0.989422 0.195343 2.3534e-16)
(1.03089 0.098174 -3.09184e-16)
(0.882945 0.178379 2.62176e-16)
(0.836944 0.261914 0)
(1.04542 0.195857 0)
(0.841272 0.115565 -1.19855e-16)
(0.891687 0.0783322 -2.03358e-16)
(0.565898 1.63143 8.87712e-17)
(0.637019 1.44707 -8.82437e-17)
(0.83693 1.557 -1.2655e-16)
(0.740122 1.64843 3.29183e-17)
(0.924457 1.58106 -3.4659e-16)
(1.00935 1.72104 1.18852e-16)
(0.887712 1.45447 7.21624e-19)
(0.959304 1.72748 -1.48149e-16)
(0.708738 1.66051 2.13655e-16)
(0.737006 1.86831 6.73519e-17)
(1.09797 1.81475 -6.89661e-17)
(1.03041 1.92235 0)
(0.501434 1.40665 -1.44328e-17)
(-0.614302 1.83039 8.98489e-17)
(-0.706592 0.584002 1.24558e-16)
(-0.580591 0.724054 1.43172e-16)
(0.104831 0.478853 1.44075e-16)
(0.0973957 0.449848 -2.46122e-16)
(0.0230352 0.718524 2.01747e-16)
(-0.182824 0.379852 -7.33489e-17)
(0.078285 0.307476 1.61833e-16)
(0.682172 0.30453 -8.2126e-17)
(0.594111 0.355376 0)
(0.616491 0.267862 7.09623e-19)
(0.522118 0.516144 8.33341e-17)
(0.237321 0.643392 -3.0741e-16)
(0.16092 0.606471 -6.21597e-19)
(0.37143 0.436947 0)
(0.448698 0.935034 1.00247e-16)
(0.662466 0.841054 1.51223e-16)
(0.661068 1.34181 -1.55377e-16)
(0.631347 0.87912 -6.02421e-17)
(0.840432 0.875225 -2.45347e-17)
(0.977337 1.15939 2.38436e-17)
(0.622543 0.767378 -2.11983e-16)
(0.704176 1.02185 5.95348e-17)
(1.01626 0.827978 0)
(0.886568 0.759591 -8.23954e-17)
(0.829373 0.339873 8.38663e-17)
(0.876653 0.45354 1.45943e-16)
(1.00959 0.344062 1.28498e-16)
(0.837995 0.452646 -1.38699e-16)
(0.991355 0.395834 0)
(0.970132 0.337687 0)
(0.620124 0.438268 5.87269e-18)
(0.800057 0.229957 0)
(0.563734 0.32928 1.00715e-16)
(0.839979 0.304023 8.61337e-18)
(0.878267 0.665133 6.21496e-16)
(0.682741 0.579657 1.64459e-16)
(0.611682 0.542933 -1.5566e-16)
(0.589276 0.494741 1.67276e-16)
(0.601348 0.62423 9.0546e-17)
(0.504573 0.407289 -8.7574e-17)
(1.01543 0.10085 2.31403e-16)
(0.886008 -0.165846 0)
(0.904358 0.0251924 1.60611e-16)
(0.829726 0.264846 -3.60625e-16)
(1.04287 -0.00594994 1.71041e-16)
(0.853533 0.0275138 -3.68134e-16)
(1.02263 -0.0271736 0)
(0.933928 0.000724759 -7.34867e-17)
(0.932522 0.108551 1.88866e-16)
(0.94393 -0.00239881 -9.6871e-17)
(0.9006 -0.176255 7.18599e-17)
(-0.162759 1.74636 0)
(0.248612 1.60407 0)
(-0.131753 1.73366 0)
(-0.0251203 1.72984 0)
(0.030068 1.89397 1.5293e-16)
(-0.0400182 1.76686 -6.31074e-17)
(0.114751 1.52102 -4.74213e-17)
(0.242166 1.49192 3.33459e-17)
(-0.364185 1.84144 -8.83971e-17)
(0.0942606 1.55824 8.21352e-17)
(-0.0220792 1.85864 1.64143e-17)
(0.0170102 1.56804 -8.30283e-17)
(0.149508 1.7147 -1.10829e-17)
(0.390507 1.69893 -1.11218e-17)
(-0.0932022 1.68659 -9.72687e-17)
(0.0748306 1.60076 0)
(-0.0758498 1.71875 3.34911e-17)
(0.0647322 1.6851 3.8073e-17)
(0.0796404 1.50473 -3.52079e-17)
(-0.0200158 1.72301 0)
(0.220721 1.49465 -1.27522e-16)
(0.0539107 1.57802 1.02344e-16)
(0.42205 1.60031 -9.71366e-17)
(0.166389 1.58431 3.32655e-17)
(-0.221306 1.29184 0)
(0.100078 1.45504 -8.7822e-17)
(-0.0981131 1.39388 -1.048e-16)
(-0.129526 1.64434 0)
(0.028579 1.65163 2.53966e-18)
(-0.0477073 1.86016 4.82736e-17)
(-0.0287481 1.5961 9.52934e-18)
(0.0860056 1.51714 -1.41147e-16)
(-0.0919017 1.79456 2.52283e-17)
(-0.208166 1.2725 4.94342e-17)
(0.123486 1.941 0)
(0.0218946 1.85685 0)
(-0.200403 1.75847 2.8549e-17)
(0.226793 1.6612 -1.13029e-17)
(-0.0671483 1.70218 0)
(0.140613 1.74361 3.26857e-17)
(0.038844 1.69106 -5.31568e-17)
(0.900604 0.35119 0)
(1.09109 0.0662006 -2.52032e-17)
(0.865245 0.168218 -1.70403e-16)
(0.847142 -0.00411533 0)
(0.820345 -0.23473 0)
(1.08695 -0.0599096 2.53617e-18)
(0.968128 -0.213612 2.79148e-16)
(0.850441 0.00423589 3.47518e-16)
(0.99621 0.0254355 0)
(0.931739 -0.00936046 0)
(0.896616 -0.0843168 1.79519e-16)
(0.916842 0.0292556 0)
(0.877803 0.185505 0)
(-0.0132034 1.73637 0)
(-0.0779514 1.45056 -4.78342e-18)
(-0.138499 1.46829 1.84953e-17)
(-0.0815106 1.6806 0)
(0.266091 1.78879 1.2746e-17)
(0.0430574 1.69772 -1.23626e-17)
(0.063441 1.52588 0)
(0.218047 1.57636 0)
(0.285677 1.32926 -2.12228e-16)
(0.284099 1.39245 0)
(0.523444 1.78744 2.77025e-16)
(0.569984 1.7095 0)
(0.625947 1.76749 -1.11451e-16)
(0.403476 1.25669 -4.11647e-18)
(0.829743 1.30412 -2.10915e-16)
(0.628455 1.2848 2.51761e-16)
(0.558504 1.34796 4.49336e-17)
(0.359592 1.41358 0)
(0.570602 1.33243 0)
(0.511746 1.41027 0)
(0.442247 1.26892 -1.62717e-16)
(0.431474 1.44169 -1.25419e-16)
(0.252874 1.37572 -2.76146e-17)
(0.55503 1.57852 2.34364e-17)
(0.223129 1.40931 0)
(0.472066 1.36253 0)
(0.351244 1.32214 -4.36321e-17)
(0.392878 1.4938 0)
(0.53586 1.39218 0)
(0.740224 1.3915 -1.94174e-16)
(0.405734 1.10135 -1.20818e-17)
(0.867878 1.47912 0)
(0.724085 1.61457 2.71674e-16)
(0.750035 1.46988 -6.04017e-17)
(1.15083 1.20923 0)
(0.898439 0.932135 9.94221e-17)
(0.315389 1.64108 0)
(0.269615 1.28615 0)
(0.773585 1.31757 -1.14683e-16)
(0.718986 1.57637 -8.95716e-17)
(0.866076 1.48947 1.45954e-16)
(0.696197 1.55597 -4.49726e-17)
(0.7474 1.4572 0)
(0.680026 1.37237 5.70808e-17)
(0.763014 1.40806 -9.08597e-17)
(0.744317 1.3673 -7.04265e-19)
(0.589957 1.3733 0)
(0.538842 1.49386 -6.82404e-17)
(0.574183 1.29199 0)
(0.776423 0.125238 0)
(0.777436 0.231981 0)
(0.659506 0.190662 0)
(0.727565 0.367451 -1.65292e-16)
(0.734429 0.173028 9.16771e-17)
(1.04498 -0.0355884 -1.16726e-16)
(0.831149 -0.0471894 0)
(0.911696 -0.0222223 4.85958e-17)
(0.82117 0.190141 1.93155e-16)
(0.700748 0.0922376 -1.23974e-16)
(0.953445 2.3355 1.11837e-16)
(0.820194 1.90636 0)
(0.924674 2.28634 1.79727e-16)
(0.218017 2.45334 -1.75671e-16)
(0.093832 1.87619 -1.1385e-16)
(0.0987352 1.38565 1.47572e-16)
(0.354694 1.4889 0)
(0.224868 1.06931 -2.88058e-17)
(-0.0339452 1.23218 2.03523e-16)
(-0.350927 1.16373 -4.47687e-17)
(-0.02477 0.710939 4.9523e-17)
(0.154442 0.722036 1.09064e-16)
(0.461075 0.762545 0)
(0.205368 0.982066 0)
(0.0263025 1.01635 0)
(0.786181 0.781287 7.08552e-17)
(0.755364 0.619593 -1.5639e-16)
(0.899547 0.643686 1.44755e-16)
(0.730662 0.385488 -1.2621e-16)
(0.978489 0.715357 0)
(0.873956 0.661279 -4.60653e-17)
(0.759259 0.38147 -2.1484e-16)
(0.722475 0.212822 -2.75581e-16)
(0.545522 0.473321 1.64218e-16)
(0.545458 0.497434 -1.5585e-16)
(0.70712 0.419774 -1.30972e-16)
(0.638219 0.320082 1.56989e-16)
(1.05258 -0.000544713 -1.90676e-16)
(1.05646 0.0242429 3.79687e-16)
(1.04868 0.030004 2.34238e-16)
(1.0198 -0.0916491 -2.71526e-16)
(0.71936 0.103379 0)
(0.672052 -0.0424603 -4.53946e-16)
(0.156381 1.47726 2.19702e-17)
(-0.22509 1.72429 0)
(0.17667 1.79646 1.47155e-16)
(0.139165 1.71763 -1.50344e-16)
(0.00971994 1.83067 7.4581e-17)
(0.172622 1.71766 0)
(-0.124889 1.7008 0)
(0.137771 1.50705 -1.38992e-17)
(-0.0403946 1.53552 6.75032e-18)
(0.257864 1.53517 -6.11427e-18)
(-0.331193 1.79831 -1.88508e-17)
(-0.19522 1.65109 9.04578e-18)
(0.540901 1.5572 -2.38505e-16)
(0.759942 1.60628 2.14581e-16)
(0.459661 1.78046 -1.39219e-16)
(0.751368 1.58819 9.94044e-18)
(0.518784 1.71893 0)
(0.711398 1.75868 -1.34003e-16)
(0.596847 1.65282 1.51136e-16)
(0.498069 1.62777 1.54294e-16)
(0.550937 1.66294 0)
(0.794926 1.64937 0)
(0.778724 1.37905 1.76017e-16)
(0.284593 1.53106 2.25834e-16)
(0.082256 1.54976 -1.68518e-16)
(-0.0719883 1.56426 -2.72251e-17)
(0.352199 1.3638 5.65913e-17)
(0.329054 1.22212 -1.3811e-16)
(0.691273 1.31585 -1.46633e-16)
(0.591514 1.40678 0)
(0.612264 1.32962 -1.60249e-16)
(0.810389 1.39732 0)
(0.606886 1.61026 0)
(0.598151 1.86599 -1.33869e-16)
(0.655287 1.80655 -1.33894e-16)
(0.399338 2.01826 1.38136e-16)
(-0.481275 1.70428 0)
(0.0125209 1.54392 -6.84805e-17)
(0.0886671 1.52398 -1.02242e-16)
(0.481813 1.64283 0)
(0.542717 2.04592 8.35469e-17)
(0.0877033 2.21189 0)
(0.555498 1.01231 -2.2599e-16)
(0.542505 1.06142 3.17291e-16)
(0.734438 0.833467 -3.23501e-16)
(0.329896 0.852456 -2.71979e-17)
(0.321017 0.877152 -1.13791e-16)
(0.8199 1.77025 9.96406e-17)
(0.734378 1.68819 -1.73155e-16)
(0.510288 1.77006 2.21356e-16)
(0.549611 1.6104 -1.36013e-16)
(0.668973 1.782 -1.95514e-16)
(0.685023 1.76069 -1.9999e-17)
(0.822083 1.52894 1.6908e-16)
(0.604082 1.74435 1.21543e-17)
(0.610491 1.49807 8.60413e-17)
)
;

boundaryField
{
    wall-4
    {
        type            calculated;
        value           uniform (0 0 0);
    }
    velocity-inlet-5
    {
        type            calculated;
        value           uniform (1 0 0);
    }
    velocity-inlet-6
    {
        type            calculated;
        value           uniform (0 3 0);
    }
    pressure-outlet-7
    {
        type            calculated;
        value           nonuniform List<vector> 8((-0.326957 1.69133 0) (0.353361 1.80443 4.32892e-18) (-0.0299545 1.70616 0) (-0.0250123 1.60446 0) (0.0041223 1.73134 0) (-0.00432685 1.74366 0) (0.000802934 1.73734 0) (0.0209471 1.77742 0));
    }
    wall-8
    {
        type            calculated;
        value           uniform (0 0 0);
    }
    frontAndBackPlanes
    {
        type            empty;
    }
}

