/*--------------------------------*- C++ -*----------------------------------*\
  =========                 |
  \\      /  F ield         | OpenFOAM: The Open Source CFD Toolbox
   \\    /   O peration     | Website:  https://openfoam.org
    \\  /    A nd           | Version:  6
     \\/     M anipulation  |
\*---------------------------------------------------------------------------*/
FoamFile
{
    version     2.0;
    format      ascii;
    class       volVectorField;
    location    "0";
    object      U;
}
// * * * * * * * * * * * * * * * * * * * * * * * * * * * * * * * * * * * * * //

dimensions      [0 1 -1 0 0 0 0];

internalField   nonuniform List<vector> 
13046
(
(-0.398927 -0.392672 0)
(-1.02713 -0.854056 -8.10897e-22)
(-0.554064 -0.490373 -1.91834e-21)
(-0.583648 -0.534482 0)
(-0.477279 -0.422242 -1.80756e-21)
(-0.943846 -0.82448 0)
(-0.57895 -0.528451 4.00267e-22)
(-0.991168 -0.864808 3.32554e-22)
(-0.430008 -0.370696 -2.06872e-21)
(-0.145469 -0.227435 3.26038e-21)
(-0.881483 -0.658002 0)
(-0.0866046 0.100928 1.5678e-21)
(-0.392382 -0.40636 -1.38727e-21)
(-1.10689 -0.911334 -5.88222e-22)
(-0.426466 -0.357516 1.2439e-21)
(-0.0521976 -0.195651 -3.51466e-21)
(-0.146531 -0.0126213 3.76392e-21)
(-0.960552 -0.665377 -1.10633e-21)
(-0.447464 -0.406885 0)
(-0.797153 -0.718359 -8.91193e-22)
(-0.787352 -0.676211 3.70229e-21)
(-0.0699957 -0.205958 -1.70207e-21)
(-0.132185 0.0109735 -5.04566e-21)
(-0.955442 -0.669387 0)
(-0.502738 -0.471704 1.47526e-21)
(-0.938531 -0.800745 -2.22238e-21)
(-0.571881 -0.514855 0)
(-0.334549 -0.36166 -2.7081e-21)
(-1.1196 -0.905411 1.97808e-22)
(-0.436762 -0.369662 -1.9147e-21)
(-0.347053 -0.35102 0)
(-1.04881 -0.851444 0)
(-0.566423 -0.509189 1.95032e-21)
(-0.535804 -0.492349 -1.71417e-21)
(-0.604715 -0.5497 6.49953e-22)
(-0.877888 -0.75949 3.91708e-21)
(-0.585359 -0.530355 -2.42318e-21)
(-0.597088 -0.536865 1.09056e-21)
(-0.845333 -0.739955 -1.93561e-21)
(-0.219225 -0.22958 1.83504e-21)
(-0.766643 -0.724782 3.62929e-22)
(-1.01264 -0.784152 -1.71532e-21)
(-0.683935 -0.610811 1.01184e-21)
(-0.622174 -0.562118 1.63493e-21)
(-0.728382 -0.652259 0)
(-0.703907 -0.62283 7.7643e-22)
(-0.555316 -0.504354 -2.57096e-21)
(-0.762416 -0.681316 -2.98804e-22)
(-0.419593 -0.41436 0)
(-1.0373 -0.867787 -4.90997e-23)
(-0.503011 -0.446171 -4.28074e-23)
(-0.936883 -0.910471 1.30136e-21)
(-0.0954169 -0.094548 0)
(-1.00468 -0.715175 -2.62586e-21)
(-0.994602 -0.965739 -1.81435e-21)
(-0.96869 -0.695539 -5.08084e-21)
(-0.0838426 -0.0718466 2.74236e-21)
(-1.14627 -0.754517 1.03446e-22)
(-0.013611 -0.148427 0)
(-0.42072 -0.381565 1.89794e-21)
(-0.532492 -0.479726 -1.69402e-21)
(-1.14855 -0.994287 2.21242e-23)
(-0.210759 -0.105348 -4.78098e-21)
(-0.15915 -0.00997419 2.70693e-21)
(-1.07886 -0.834295 5.04102e-22)
(-0.21734 -0.293723 -4.04407e-21)
(-0.000682414 -0.130119 0)
(-1.15948 -0.746837 0)
(-0.488289 -0.470592 0)
(-0.0129186 -0.132534 -1.09674e-21)
(-1.16545 -0.762387 0)
(-0.517236 -0.504666 1.3415e-21)
(-1.12318 -0.721676 0)
(-0.000586268 -0.143378 -4.54407e-24)
(-0.387051 -0.34982 -3.20704e-23)
(-0.408575 -0.379444 0)
(-0.789755 -0.718692 1.01459e-21)
(-0.831765 -0.7103 -2.45611e-21)
(-0.301541 -0.234307 2.22647e-21)
(-0.014235 -0.168043 -4.598e-21)
(-1.08789 -0.713506 0)
(-0.511684 -0.477425 8.32295e-22)
(-0.960559 -0.820726 0)
(-0.527244 -0.466491 0)
(-0.143847 0.0141491 -2.47876e-21)
(-1.04123 -0.795729 5.2528e-22)
(-0.188653 -0.275722 2.46679e-21)
(-0.399778 -0.374339 -4.67767e-21)
(-0.109189 0.0562188 0)
(-1.09655 -0.923417 3.35117e-22)
(-0.0477094 0.115263 0)
(-0.591582 -0.423282 0)
(-1.07496 -0.975025 -5.06789e-23)
(-0.272972 -0.33438 0)
(-0.28606 -0.34003 1.80423e-21)
(-1.16171 -0.916687 -3.67707e-22)
(-1.15777 -0.920507 1.92182e-22)
(-0.296155 -0.193664 -1.10453e-21)
(-0.255061 -0.14033 2.71688e-21)
(-0.101351 0.0592325 -1.37818e-22)
(-0.455724 -0.404808 4.57502e-21)
(-1.10279 -0.949916 0)
(-0.687114 -0.608946 2.7661e-23)
(-0.52333 -0.474247 1.36257e-21)
(-0.815554 -0.727476 0)
(-0.166731 -0.132259 0)
(-0.862188 -0.665587 -1.56554e-21)
(-0.998672 -0.937177 0)
(-0.151177 -0.151442 3.04136e-21)
(-0.895184 -0.852943 0)
(-0.977636 -0.736763 -4.96409e-21)
(-0.10398 -0.161166 0)
(-0.0446583 0.153098 0)
(-0.65548 -0.478495 1.52165e-21)
(-0.423862 -0.423353 3.84592e-21)
(-1.08186 -0.895207 3.88208e-22)
(-0.446436 -0.379033 1.8559e-21)
(-0.172975 -0.270522 2.10008e-21)
(-0.207992 -0.292066 -3.81926e-21)
(-1.14965 -0.862146 3.60045e-22)
(-0.290124 -0.191449 1.21517e-21)
(-1.16191 -0.887953 -3.69883e-22)
(-0.312688 -0.220063 -1.13546e-21)
(-0.120395 -0.208083 -3.13666e-21)
(-0.834766 -0.610443 1.6886e-21)
(-0.0768579 0.110499 -7.09143e-22)
(-0.286125 -0.334763 0)
(-1.15704 -0.919766 -1.19797e-22)
(-0.366993 -0.291671 2.37425e-21)
(-0.221401 -0.24153 0)
(-0.712746 -0.671334 -1.6613e-21)
(-1.04351 -0.807742 1.18888e-22)
(-0.0499582 0.0996057 0)
(-0.620786 -0.448773 0)
(-1.09979 -1.00397 0)
(-0.32559 -0.358023 0)
(-1.13817 -0.922165 1.14255e-21)
(-0.188317 -0.050227 -2.98513e-21)
(-0.317816 -0.337801 0)
(-1.0814 -0.869342 0)
(-0.541653 -0.487009 0)
(-0.635689 -0.56 0)
(-1.06675 -0.943169 0)
(-0.285786 -0.218571 0)
(-0.136222 -0.126401 0)
(-0.937091 -0.893105 0)
(-0.965081 -0.718438 2.76073e-21)
(-0.197703 -0.163006 -2.75512e-22)
(-0.849128 -0.673523 -3.27903e-21)
(-0.993115 -0.920867 1.36943e-21)
(-0.489221 -0.455246 4.77011e-21)
(-1.15473 -0.987454 0)
(-0.206254 -0.100344 6.27194e-21)
(-0.301144 -0.258223 0)
(-0.761718 -0.645127 3.07635e-21)
(-0.964545 -0.877713 -3.18189e-22)
(-1.07875 -1.02792 0)
(-0.872169 -0.633791 4.19948e-21)
(-1.10854 -1.043 0)
(-0.813003 -0.601757 2.63721e-21)
(-0.085951 -0.0382648 0)
(-0.0895982 -0.0257947 0)
(-0.739794 -0.611213 4.73129e-22)
(-1.05034 -0.954365 4.65949e-22)
(-0.224284 -0.172929 -1.21857e-21)
(-0.185404 -0.246278 -3.49332e-21)
(-0.0846378 0.111919 0)
(-0.890781 -0.683223 1.72335e-21)
(-0.102316 -0.177363 -2.91213e-21)
(-0.054277 0.14002 -3.19824e-22)
(-0.72018 -0.52374 0)
(-0.2818 -0.332584 -3.14043e-21)
(-1.12834 -0.900623 0)
(-0.185127 -0.048952 3.3994e-21)
(-0.12643 -0.175123 0)
(-1.10998 -0.807778 4.17501e-22)
(-0.703566 -0.681477 9.99276e-22)
(-0.777927 -0.629296 2.9602e-21)
(-0.227835 -0.181435 6e-22)
(-1.02081 -0.928553 0)
(-0.0817054 0.114159 0)
(-0.954564 -0.769688 0)
(-0.272578 -0.286448 3.1597e-21)
(-0.152761 -0.188181 0)
(-1.08354 -0.800887 -9.68071e-22)
(-0.728573 -0.693955 2.497e-22)
(-0.264588 -0.227885 0)
(-0.779136 -0.646801 0)
(-0.968039 -0.888003 0)
(-0.639109 -0.568852 1.36233e-21)
(-1.04069 -0.922049 0)
(-0.310259 -0.251348 0)
(-1.12739 -0.937372 6.12433e-23)
(-0.361723 -0.283453 -1.37503e-21)
(-0.325124 -0.358417 4.26622e-21)
(-1.14849 -0.921529 0)
(-0.380374 -0.303003 -2.97484e-21)
(-0.294077 -0.324099 -4.70802e-21)
(-0.117494 0.0562739 2.22408e-21)
(-1.05137 -0.849717 2.2451e-21)
(-0.0786489 0.0714254 2.07862e-21)
(-0.567452 -0.446491 2.77818e-21)
(-1.11891 -1.00007 -1.3545e-21)
(-0.483688 -0.388613 -8.94064e-21)
(-1.06154 -0.926328 0)
(-0.0717903 0.104447 -2.05589e-21)
(-0.946171 -0.941483 -7.44532e-23)
(-1.064 -0.701995 1.20139e-21)
(-0.0312455 -0.0475667 0)
(-0.521957 -0.49065 -6.36308e-21)
(0.000401994 -0.151595 2.12348e-21)
(-0.322464 -0.264469 -1.33752e-21)
(-1.09056 -0.706324 0)
(-1.02461 -0.881574 0)
(-0.43325 -0.362455 -8.66059e-21)
(-0.0718609 0.115348 0)
(-0.625277 -0.562615 -3.80708e-21)
(-0.537153 -0.483337 -1.07216e-21)
(-0.857527 -0.757314 2.7638e-21)
(-0.311539 -0.338824 0)
(-1.11634 -0.894759 -3.21834e-23)
(-0.482599 -0.414274 -1.07924e-21)
(-0.0637948 0.0808238 1.61073e-21)
(-0.608357 -0.46015 0)
(-1.11336 -1.01064 1.55979e-21)
(-0.512038 -0.479035 5.23514e-21)
(-1.11699 -0.941696 8.43055e-22)
(-0.348546 -0.270149 0)
(-0.062475 0.145452 0)
(-0.784946 -0.604732 -1.88267e-21)
(-0.175159 -0.216003 0)
(-0.0342039 -0.0380508 0)
(-1.02874 -0.684004 0)
(-0.983895 -0.979158 0)
(-0.489423 -0.41006 7.8393e-21)
(-1.09304 -0.951802 0)
(-0.0831448 0.0809942 1.45241e-23)
(-0.771434 -0.607064 1.44818e-21)
(-1.08188 -1.00032 -2.72758e-22)
(-0.151704 -0.0933651 0)
(-0.247124 -0.307596 0)
(-1.15816 -0.903572 1.25169e-22)
(-0.389355 -0.315591 1.94288e-21)
(-1.13539 -1.07413 7.51189e-22)
(-0.776755 -0.53166 -4.7501e-21)
(-0.0387841 0.064085 1.31046e-21)
(-0.815356 -0.587429 0)
(-1.12371 -1.0622 -6.34387e-23)
(-0.0676029 0.0045161 -4.60471e-23)
(-0.0563331 0.156773 -2.10782e-21)
(-0.759764 -0.592366 0)
(-0.192704 -0.210095 -3.97254e-21)
(-0.13029 -0.149903 1.70896e-21)
(-0.833523 -0.802634 -1.01664e-21)
(-1.04205 -0.766847 1.82629e-22)
(-0.0313106 -0.136626 3.25212e-21)
(-0.0335214 0.133333 -2.99628e-21)
(-0.60005 -0.399141 0)
(-0.449179 -0.409414 -6.53855e-22)
(-0.737537 -0.642471 -2.99415e-21)
(-0.83825 -0.751285 2.61559e-21)
(-0.657812 -0.554708 2.25412e-21)
(-0.733131 -0.595762 8.02929e-23)
(-1.11099 -0.995649 -5.62797e-22)
(-1.08155 -0.990333 0)
(-0.18461 -0.121218 1.10806e-21)
(-0.192737 -0.114995 -1.13973e-21)
(-0.256303 -0.17763 -2.9238e-21)
(-0.0138695 -0.168158 2.31957e-21)
(-1.05981 -0.69698 2.13315e-21)
(-0.23564 -0.292093 0)
(-1.15339 -0.890948 0)
(-0.441003 -0.372235 -2.57271e-21)
(-0.771747 -0.55924 -1.15957e-21)
(-1.13548 -1.06718 0)
(-0.0666727 0.0219214 0)
(-0.235894 -0.310811 -2.20578e-21)
(-1.1418 -0.887411 0)
(-0.235456 -0.117024 1.26322e-21)
(-0.63827 -0.572976 6.75604e-22)
(-0.738892 -0.655219 9.15132e-22)
(-0.653422 -0.586613 -3.4118e-22)
(-0.759744 -0.585428 -3.34139e-21)
(-1.1149 -1.03248 0)
(-0.120074 -0.0489189 -2.02897e-21)
(-0.196754 -0.26573 0)
(-1.15961 -0.88016 2.25467e-22)
(-0.448346 -0.390024 -1.53391e-21)
(-0.438248 -0.437274 0)
(-0.42833 -0.42783 5.74773e-22)
(-0.103842 -0.12697 6.48608e-22)
(-0.839796 -0.81834 2.98246e-21)
(-1.05553 -0.760211 -4.3496e-21)
(-0.700119 -0.55479 -3.80466e-21)
(-1.13061 -1.03435 7.72451e-23)
(-0.123112 -0.0375162 1.85399e-21)
(-0.239809 -0.309928 0)
(-0.206742 -0.0768133 -4.43662e-21)
(-1.12826 -0.880041 8.22758e-22)
(-0.185315 -0.18257 -4.2383e-21)
(-0.871939 -0.830438 0)
(-0.965433 -0.743712 1.55424e-21)
(-0.0601721 -0.0214143 -2.55922e-21)
(-0.90845 -0.635555 -2.19879e-21)
(-1.07302 -1.03926 0)
(-0.123433 -0.2297 -1.8238e-21)
(-1.1608 -0.840947 1.6255e-22)
(-0.368899 -0.298271 7.43514e-22)
(-0.0849392 -0.0952905 2.26796e-22)
(-0.907192 -0.885822 0)
(-1.03908 -0.731147 3.51783e-21)
(-0.110791 -0.223884 0)
(-0.129626 -0.240311 0)
(-1.15124 -0.829718 3.09189e-22)
(-0.339077 -0.261025 -2.00581e-21)
(-1.14386 -0.838571 -4.44787e-22)
(-0.301694 -0.210434 2.12409e-21)
(-0.0957168 0.0937078 -1.77098e-21)
(-0.974541 -0.779507 0)
(-0.252443 -0.290609 -3.78846e-21)
(-0.201874 -0.283381 2.18456e-21)
(-1.16221 -0.88596 0)
(-0.353053 -0.271187 6.83201e-22)
(-0.504302 -0.351452 -5.08463e-21)
(-0.0234931 0.150605 2.65482e-21)
(-0.0667554 -0.109907 9.92352e-21)
(-0.78694 -0.663858 -1.57985e-21)
(-0.338811 -0.305488 0)
(-0.903681 -0.819981 0)
(-0.52526 -0.486353 4.2762e-21)
(-1.13638 -0.980999 0)
(-0.24089 -0.148719 3.62733e-21)
(-0.138738 0.0206151 -1.41674e-21)
(-0.293854 -0.334689 9.33971e-21)
(-1.08309 -0.871789 -1.3953e-21)
(-1.00769 -0.985608 0)
(-0.975609 -0.682765 1.89535e-21)
(-0.0627226 -0.0502019 -3.10892e-21)
(-1.13075 -1.05646 1.71047e-21)
(-0.71672 -0.505183 -3.09378e-21)
(-0.0462687 0.0707409 0)
(-1.08006 -0.92136 -1.42197e-21)
(-0.377214 -0.303608 0)
(-0.403797 -0.416482 4.72302e-21)
(-1.15327 -0.956829 -1.96382e-25)
(-0.279093 -0.183816 1.12026e-21)
(-1.07115 -0.929544 7.48606e-22)
(-0.351381 -0.281384 7.15445e-23)
(-0.0594092 -0.203184 -1.98203e-22)
(-0.173725 -0.0487849 1.71974e-21)
(-1.00207 -0.694755 1.62786e-21)
(-0.924651 -0.93927 0)
(-1.09229 -0.703887 3.43102e-22)
(-0.0146409 -0.0407315 0)
(-0.396037 -0.405133 -4.80936e-21)
(-1.15935 -0.957448 2.38357e-25)
(-0.250529 -0.14394 -1.41885e-21)
(-0.671535 -0.576821 0)
(-1.06257 -0.955444 -6.76062e-22)
(-0.251375 -0.188887 0)
(-0.913857 -0.687846 0)
(-0.976363 -0.930539 0)
(-0.141978 -0.120424 0)
(-0.474196 -0.454262 -1.15151e-21)
(-1.00495 -0.853586 -1.05393e-21)
(-0.500679 -0.442675 1.67225e-23)
(-0.0550207 -0.0287173 3.14673e-21)
(-0.952033 -0.656198 5.84131e-21)
(-1.04991 -1.02074 5.5962e-22)
(-0.351175 -0.348253 -4.75622e-21)
(-1.05143 -0.869792 -1.95236e-21)
(-0.10255 0.0763158 -2.13621e-21)
(-1.13388 -1.04232 -1.07242e-21)
(-0.671866 -0.494813 3.13142e-21)
(-0.0616419 0.0615318 1.566e-21)
(-0.0182854 -0.114746 -3.11018e-21)
(-0.622089 -0.616921 1.83954e-21)
(-1.16885 -0.763494 -5.85482e-22)
(-0.0521834 -0.189668 1.27158e-21)
(-0.0629222 -0.194233 -1.05943e-21)
(-1.13913 -0.786243 1.05259e-22)
(-1.12142 -0.767406 0)
(-0.312823 -0.237008 -7.2348e-22)
(-0.345782 -0.277893 -6.43131e-22)
(-0.0270972 0.147694 -3.57449e-21)
(-0.533174 -0.367573 5.59715e-21)
(-0.0589002 -0.123543 2.1562e-21)
(-0.0284327 -0.147776 -1.93806e-22)
(-0.0428108 0.122684 4.15262e-21)
(-0.64489 -0.426789 0)
(-0.648886 -0.541594 -7.41179e-21)
(-1.13173 -1.00857 -4.76165e-23)
(-0.178907 -0.0896439 0)
(-0.112149 0.0648712 -4.28999e-21)
(-0.258036 -0.304858 3.76633e-21)
(-1.02318 -0.81565 0)
(-0.0631723 -0.175819 5.12054e-21)
(-0.0697105 -0.184703 -3.86896e-21)
(-1.16423 -0.80355 1.01983e-22)
(-1.16345 -0.807435 -3.74373e-23)
(-0.481851 -0.442706 -1.23071e-21)
(-0.431863 -0.381814 -6.31284e-22)
(-0.0562939 0.147337 0)
(-0.945485 -0.813805 0)
(-0.413511 -0.325495 1.73908e-21)
(-0.0140182 -0.124277 -3.823e-21)
(-0.0239777 0.130807 0)
(-0.537118 -0.345529 0)
(-0.798284 -0.694053 1.13185e-22)
(-0.503011 -0.457463 1.53864e-21)
(-0.72332 -0.655803 6.10979e-22)
(-0.0689756 -0.143453 -7.49248e-21)
(-0.606731 -0.423589 -2.22528e-21)
(-0.0355586 0.146979 1.93499e-22)
(-0.139123 -0.199002 0)
(-1.13204 -0.828841 -1.33806e-21)
(-0.627263 -0.596034 -3.44677e-23)
(-0.314463 -0.309265 -4.98371e-23)
(-0.972031 -0.796887 -3.38674e-21)
(-0.0833338 0.115159 -1.47731e-23)
(-0.441058 -0.329968 -1.42993e-22)
(-0.0265121 0.150985 -1.55859e-21)
(-0.10624 -0.0935012 -4.37135e-21)
(-0.25429 -0.250945 -1.50409e-21)
(-0.789167 -0.737603 1.02373e-21)
(-0.968351 -0.766476 4.18305e-21)
(-0.704791 -0.619919 0)
(-0.899089 -0.798561 -2.87535e-21)
(-0.423268 -0.379216 1.72638e-21)
(-0.091092 -0.196134 0)
(-0.0764196 0.100246 2.11049e-21)
(-0.826602 -0.593748 5.07167e-23)
(-0.715885 -0.621397 0)
(-0.917185 -0.819363 -8.24711e-22)
(-0.381041 -0.335604 -2.46306e-21)
(-0.76639 -0.672663 1.44509e-21)
(-0.545163 -0.494521 -8.11414e-22)
(-0.714409 -0.645207 3.46677e-22)
(-0.0208981 -0.0142271 1.62877e-21)
(-1.02028 -0.666952 -2.03966e-21)
(-1.02412 -1.02428 7.02385e-22)
(-0.832643 -0.703362 0)
(-0.820234 -0.747491 0)
(-0.36592 -0.337007 2.27348e-22)
(-0.827785 -0.684967 2.4917e-21)
(-0.87151 -0.788538 7.17251e-22)
(-0.341538 -0.304175 3.09366e-23)
(-0.0196416 -0.106677 4.65241e-21)
(-1.15922 -0.758507 -1.1645e-21)
(-0.677918 -0.68092 -1.84999e-21)
(-0.113084 0.0543359 3.09045e-21)
(-0.106593 0.0679655 -3.19146e-21)
(-0.942949 -0.694943 -1.18782e-21)
(-0.9423 -0.701615 -7.64399e-22)
(-0.12209 -0.226589 0)
(-0.14479 -0.238545 -3.33753e-21)
(-0.35582 -0.33278 5.76634e-21)
(-1.02168 -0.849986 1.96156e-21)
(-0.0897374 0.0997626 2.62881e-21)
(-0.595128 -0.601395 -1.29623e-21)
(0.00218515 -0.107138 1.05871e-21)
(-1.16998 -0.748446 7.46751e-22)
(-0.151341 -0.177701 -1.55933e-21)
(-0.783353 -0.749042 -9.92207e-22)
(-1.05431 -0.782042 1.32638e-21)
(-0.878138 -0.59674 0)
(-1.11417 -1.07501 6.56679e-23)
(-0.0395783 0.0192124 4.7629e-23)
(-0.578233 -0.46652 -1.94099e-21)
(-0.0416308 0.175016 -1.49402e-21)
(-0.207942 -0.156509 -3.66955e-21)
(-0.0543322 0.118523 0)
(-0.536156 -0.398325 0)
(-1.05651 -0.943244 -1.1749e-21)
(-0.13475 -0.19812 3.26938e-21)
(-0.0622072 0.137083 0)
(-0.77151 -0.575751 1.84797e-21)
(-0.020589 0.137854 -5.58145e-33)
(-0.389312 -0.281189 2.54513e-21)
(-0.0765777 -0.0766781 4.54196e-21)
(-0.381356 -0.246602 -2.86992e-21)
(-0.0109408 0.129918 5.56918e-33)
(-0.0312326 -0.0757573 -4.02187e-21)
(-1.15099 -1.01539 2.69876e-22)
(-0.57791 -0.49391 0)
(-0.146837 -0.030642 -3.80211e-21)
(-0.801473 -0.674837 8.69693e-22)
(-0.0510865 0.171685 -1.52397e-21)
(-0.335443 -0.26041 0)
(-0.352251 -0.368506 -3.94056e-21)
(-1.13091 -0.92723 -7.48908e-22)
(-0.167282 -0.0224194 1.99156e-21)
(-0.00694963 -0.163481 7.28117e-21)
(-0.113665 0.0158891 1.2599e-21)
(-0.857854 -0.559143 0)
(-0.487891 -0.473031 1.04604e-21)
(-0.415521 -0.345895 -6.46446e-22)
(-1.06721 -0.903956 3.51753e-22)
(-0.984017 -0.857208 -6.70301e-22)
(-0.0558269 0.138869 1.56732e-21)
(-0.455199 -0.348678 1.67003e-21)
(-0.914976 -0.613445 -2.56058e-21)
(-0.0373481 0.00949778 -8.67298e-22)
(-1.09882 -1.06579 0)
(-1.13947 -1.05777 0)
(-0.72195 -0.535827 0)
(-0.0781178 0.0190966 0)
(-0.00422273 0.0713226 0)
(-0.191595 -0.113666 2.56722e-21)
(-0.00655145 -0.028742 3.82844e-21)
(-0.518569 -0.377564 -2.25537e-21)
(-0.0296477 0.157388 -1.87647e-21)
(-0.0988631 -0.117368 -3.85447e-21)
(-0.513291 -0.485539 -2.65168e-21)
(-0.445 -0.381936 1.6055e-21)
(-1.02793 -0.88063 5.5189e-22)
(-0.930759 -0.779435 -3.52338e-21)
(-0.346072 -0.301997 -3.8366e-21)
(-0.0651861 0.141407 0)
(-0.0512164 0.159331 -1.66511e-21)
(-0.410637 -0.3113 0)
(-0.899732 -0.780215 2.45252e-21)
(-0.204898 -0.279208 -3.2666e-21)
(-0.124198 0.0470676 4.63469e-21)
(-1.01626 -0.786054 0)
(-0.223844 -0.120729 -3.49734e-21)
(-1.05873 -0.72968 -1.18994e-21)
(-0.0535212 -0.197095 0)
(-0.00459364 -0.0850038 -5.64073e-21)
(-1.1568 -0.744039 1.48499e-21)
(-0.730701 -0.742802 -5.79409e-22)
(-1.14801 -0.781808 -1.1008e-22)
(-0.0453877 -0.174175 2.38632e-21)
(-0.399246 -0.348257 -2.02859e-21)
(-0.193708 -0.0954614 -3.18291e-21)
(-0.0118714 -0.17128 0)
(-0.991807 -0.652709 0)
(-0.196948 -0.25123 -9.03337e-22)
(-0.17829 -0.244228 0)
(-1.13471 -0.860035 -1.02944e-21)
(-1.15348 -0.864198 1.10214e-21)
(-0.548314 -0.495239 3.13932e-22)
(-0.508406 -0.458076 -3.33962e-22)
(-0.180731 -0.232918 8.67401e-22)
(-1.12265 -0.843683 0)
(-0.6028 -0.559878 5.48354e-22)
(-0.0398851 -0.153674 0)
(-1.16467 -0.789448 -2.57375e-22)
(-0.511085 -0.488032 4.49036e-22)
(-1.13806 -1.04293 4.47675e-22)
(-0.674246 -0.508902 3.01664e-21)
(-0.0744416 0.0416412 -3.25875e-21)
(-1.02077 -0.86539 0)
(-0.386445 -0.340971 9.28818e-21)
(-0.0758813 0.112076 0)
(-0.093298 0.0456187 -1.00229e-21)
(-0.57904 -0.466946 -2.17343e-21)
(-1.13257 -1.00891 3.53595e-22)
(-0.420036 -0.267556 4.17788e-22)
(-0.0124594 0.134496 9.6769e-22)
(-0.0276994 -0.0886629 0)
(-0.293094 -0.299778 1.44361e-21)
(-0.331625 -0.334039 0)
(-0.678713 -0.626247 0)
(-1.01347 -0.811626 4.07154e-21)
(-0.646404 -0.591234 0)
(-1.00979 -0.82173 -2.60847e-21)
(-0.0692544 -0.159002 0)
(-0.0802339 -0.159348 0)
(-0.626535 -0.605062 6.27983e-23)
(-1.16447 -0.805851 6.88377e-22)
(-0.578485 -0.550692 3.00907e-21)
(-1.15245 -0.805079 -1.68747e-21)
(-0.455142 -0.35812 0)
(-0.0316064 0.157907 2.15637e-21)
(-0.146051 -0.105432 0)
(-0.954838 -0.791646 1.87497e-21)
(-0.338972 -0.315107 1.07334e-21)
(-0.0724235 0.128465 9.69916e-22)
(-0.0822055 -0.120267 -2.82676e-21)
(-0.814031 -0.798066 -1.02292e-21)
(-1.08839 -0.765288 4.351e-21)
(-1.13366 -1.07599 -5.7641e-22)
(-0.800002 -0.554355 7.83929e-21)
(-0.0438989 0.0451511 0)
(-0.249721 -0.158428 3.7399e-21)
(-1.07638 -0.737817 1.26589e-21)
(-0.0483447 -0.193181 3.1295e-21)
(-0.644879 -0.488162 0)
(-0.14309 -0.16351 0)
(-0.0437802 0.164235 0)
(-0.693942 -0.541785 0)
(-0.184073 -0.186709 3.28622e-21)
(-0.0490705 0.166838 3.5895e-22)
(-0.103479 -0.210907 -2.15671e-21)
(-1.16319 -0.833182 -1.43678e-22)
(-0.413549 -0.354673 9.34222e-22)
(-0.209756 -0.196563 -3.98809e-22)
(-0.886258 -0.833251 0)
(-0.933307 -0.727006 1.09249e-22)
(-0.184659 -0.262239 3.80498e-21)
(-0.113298 0.0658579 2.75685e-21)
(-0.97783 -0.746142 8.89592e-22)
(-1.14731 -1.02178 0)
(-0.593888 -0.488818 0)
(-0.123809 -0.00176198 3.2787e-21)
(-0.190685 -0.0552312 8.50402e-22)
(-1.10124 -0.843102 -1.51039e-21)
(-0.199543 -0.285889 8.07217e-21)
(-0.0722888 -0.14499 0)
(-0.673095 -0.657986 -1.98331e-21)
(-1.14244 -0.795567 9.78566e-22)
(-0.831976 -0.639385 -1.34835e-22)
(-1.05395 -0.982176 3.99688e-22)
(-0.146618 -0.0987156 0)
(-0.189335 -0.201309 -7.58598e-24)
(-0.80157 -0.762278 -3.4564e-22)
(-1.0137 -0.775777 -1.7349e-21)
(-0.0973497 0.0932926 1.61781e-23)
(-0.949883 -0.740553 -2.31857e-21)
(-0.211429 -0.267467 4.70078e-21)
(-0.183285 -0.27787 -1.33622e-21)
(-1.13657 -0.859971 2.68248e-22)
(-0.252484 -0.13993 0)
(-0.292045 -0.28797 -1.56474e-21)
(-0.750587 -0.696041 2.1662e-21)
(-0.965409 -0.777583 -2.7446e-21)
(-0.00133876 -0.164008 2.59563e-21)
(-0.164107 -0.0581284 1.42698e-21)
(-0.942995 -0.610311 1.43493e-21)
(-0.266733 -0.299072 -1.09241e-21)
(-1.0894 -0.859388 0)
(-0.57286 -0.522684 0)
(-0.698025 -0.600025 -4.79576e-21)
(-0.995067 -0.892148 4.39283e-22)
(-0.315669 -0.264649 0)
(-1.14359 -1.04302 0)
(-0.691045 -0.536385 5.43955e-21)
(-0.103933 -0.00581817 0)
(-0.0203586 -0.157883 -1.85525e-21)
(-0.0642008 0.0909432 -4.44475e-22)
(-0.733649 -0.482781 -2.34883e-21)
(-0.00622952 -0.155066 5.00401e-21)
(-0.0739469 0.0699168 0)
(-0.761226 -0.491035 1.99536e-21)
(-0.198522 -0.0693545 8.24596e-22)
(-1.09269 -0.818545 1.09248e-21)
(-0.159622 -0.263889 -7.27162e-21)
(-0.870917 -0.651752 -2.218e-21)
(-1.05835 -1.0014 -5.43223e-22)
(-0.110885 -0.0699869 0)
(-0.0466024 0.107957 4.07282e-22)
(-0.655085 -0.42098 2.19473e-21)
(-0.00883383 -0.144119 0)
(-0.144542 0.0112119 0)
(-1.11073 -0.910934 1.01515e-21)
(-0.34381 -0.360729 -1.03548e-21)
(-0.0188551 0.120932 1.64193e-21)
(-0.317123 -0.23625 -2.61519e-21)
(-0.0712751 -0.0569968 0)
(-0.00650614 -0.0627232 -4.15684e-21)
(-0.310497 -0.184291 0)
(-0.0037871 0.109875 1.62162e-21)
(-0.196427 -0.0873764 7.07163e-24)
(-1.01521 -0.687418 0)
(-0.0363765 -0.18726 0)
(-0.0733109 0.130557 0)
(-0.86333 -0.668532 0)
(-0.201146 -0.241864 6.90029e-21)
(-0.115376 -0.231327 -3.07671e-21)
(-0.134974 -0.246806 2.49268e-21)
(-0.1363 0.017418 -1.54557e-21)
(-0.988139 -0.720006 3.61283e-22)
(-0.150535 -0.00373384 -2.49069e-21)
(-1.02652 -0.759937 -5.46691e-22)
(-0.387022 -0.381672 1.96872e-21)
(-1.11073 -0.92856 -5.93326e-22)
(-0.13152 0.0244275 0)
(-0.0289716 0.0405674 0)
(-1.12272 -1.08936 0)
(-0.866308 -0.58004 0)
(-0.414276 -0.400336 0)
(-0.611544 -0.551137 -3.25493e-21)
(-0.973892 -0.81309 1.27567e-21)
(-0.5005 -0.4358 5.57212e-21)
(-1.1329 -0.983674 -1.35396e-22)
(-0.116474 0.0256022 2.98637e-21)
(-0.111805 0.024964 1.95446e-21)
(-0.552658 -0.461835 -7.75073e-21)
(-1.14016 -1.00634 1.87475e-22)
(0.00319853 -0.159221 2.60802e-21)
(-0.228275 -0.148841 1.51564e-21)
(-1.0181 -0.656069 -2.23056e-21)
(-0.0464881 -0.143737 0)
(-1.16713 -0.792327 1.31612e-22)
(-0.571965 -0.555249 -2.94986e-21)
(-0.116712 -0.189387 0)
(-1.1469 -0.826096 1.75551e-21)
(-0.601914 -0.571512 6.98942e-23)
(-0.480538 -0.446518 -6.05128e-21)
(-1.1543 -0.990268 -9.86347e-23)
(-0.177306 -0.0595113 -1.61878e-21)
(-0.509761 -0.459141 0)
(-1.15088 -0.997514 -7.09264e-23)
(-0.155326 -0.0338582 1.51759e-21)
(-0.33183 -0.315666 0)
(-0.760462 -0.698688 -3.34042e-21)
(-0.925172 -0.758677 1.46626e-21)
(-0.145946 -0.225602 0)
(-1.15666 -0.85335 0)
(-0.510196 -0.47025 4.72179e-22)
(-0.048444 0.139381 -3.43069e-21)
(-0.998668 -0.884581 3.51316e-21)
(-0.506251 -0.370158 0)
(-0.217288 -0.193351 5.00591e-21)
(-0.0479796 0.17288 0)
(-0.684966 -0.548118 -1.37823e-21)
(-0.229199 -0.181169 6.11195e-23)
(-0.0452579 0.176897 0)
(-0.64547 -0.524552 3.99872e-21)
(-0.190443 -0.223521 1.19102e-21)
(-0.692603 -0.649318 -3.91828e-22)
(-1.07577 -0.818049 -7.043e-23)
(-0.572317 -0.433533 5.31846e-23)
(-0.0378438 0.166163 2.87506e-21)
(-0.138893 -0.14095 0)
(-0.149765 -0.25733 5.87359e-21)
(-0.230732 -0.112219 1.66308e-21)
(-1.11241 -0.825966 0)
(-0.0377894 0.169268 -4.31813e-22)
(-0.547373 -0.430795 2.4003e-21)
(-0.168432 -0.137058 0)
(-0.633763 -0.566038 2.68139e-21)
(-0.476719 -0.42181 2.11596e-21)
(-0.909255 -0.798255 2.92968e-24)
(-0.379136 -0.399508 -7.17185e-22)
(-1.14727 -0.940118 -5.22271e-23)
(-0.339939 -0.254757 -1.67653e-21)
(-1.01836 -0.975152 1.33379e-21)
(-0.916521 -0.674529 4.27603e-21)
(-0.107957 -0.0820748 0)
(-0.0547471 0.162911 0)
(-0.85127 -0.716929 1.12737e-21)
(-0.347331 -0.281106 0)
(-1.14545 -1.0351 0)
(-0.639341 -0.50717 0)
(-0.108953 0.0045788 0)
(-0.138498 -0.0144598 0)
(-0.0187097 -0.173267 -2.72518e-21)
(-0.916593 -0.609336 -1.4069e-21)
(-0.363832 -0.39299 0)
(-1.15567 -0.947901 4.71231e-23)
(-0.304863 -0.212869 1.633e-21)
(-0.450802 -0.426267 0)
(-0.615057 -0.554254 2.79795e-21)
(-0.945084 -0.797899 0)
(-0.876163 -0.726725 3.32894e-21)
(-0.31243 -0.277205 3.63912e-21)
(-0.0614978 0.15239 0)
(-0.156363 -0.00535311 -1.77291e-21)
(-1.0918 -0.866992 -6.87352e-23)
(-0.261498 -0.320512 -1.32428e-22)
(-0.0626872 -0.174986 0)
(-0.0628104 -0.166539 4.06783e-21)
(-0.0644722 0.110756 -1.03634e-21)
(-0.0542019 0.124786 -1.26495e-21)
(-0.758906 -0.524374 1.41153e-21)
(-0.715343 -0.496246 -1.16093e-21)
(-0.628269 -0.549003 0)
(-1.10308 -0.982799 1.31438e-21)
(-0.226048 -0.151343 1.78304e-21)
(-1.14582 -1.01445 -3.32604e-22)
(-0.602316 -0.510536 0)
(-0.155772 -0.0488452 -1.99468e-21)
(-0.614448 -0.547386 -2.51521e-21)
(-0.997217 -0.877533 7.16228e-22)
(-0.385055 -0.329749 2.70146e-21)
(-0.754217 -0.613753 -2.66636e-21)
(-0.254516 -0.223724 5.31149e-21)
(-0.755067 -0.624992 1.33089e-21)
(-0.0518942 0.169277 0)
(-0.289293 -0.234904 -5.14268e-21)
(-0.0501333 0.173268 0)
(-0.336389 -0.371938 0)
(-1.15763 -0.939772 0)
(-0.242721 -0.126352 1.86343e-21)
(-0.26423 -0.255166 6.78088e-21)
(-0.243481 -0.233307 -1.26996e-20)
(-0.850221 -0.689225 -1.81741e-21)
(-0.794019 -0.636834 4.22009e-21)
(-0.0619165 0.150405 2.8814e-21)
(-0.0570647 0.159719 6.3445e-24)
(-0.658565 -0.538885 0)
(-1.13348 -1.02596 -1.10562e-22)
(-0.148067 -0.05609 2.59877e-21)
(-0.528554 -0.487639 2.84787e-21)
(-1.12694 -0.955567 -5.4516e-22)
(-0.306181 -0.225035 0)
(-0.0199029 -0.168256 0)
(-0.0965173 0.0451716 0)
(-0.834563 -0.551525 -1.91488e-21)
(-0.577672 -0.518074 2.26733e-21)
(-1.11663 -0.978719 -3.63889e-22)
(-0.241655 -0.161693 -2.87398e-21)
(-0.583636 -0.528643 1.11352e-21)
(-1.0447 -0.914725 -8.42966e-22)
(-0.353301 -0.290152 1.54262e-21)
(-0.0440902 -0.17157 0)
(-0.0722045 0.0939158 0)
(-0.771401 -0.522994 2.57982e-21)
(-0.307508 -0.354262 0)
(-1.16194 -0.926366 7.14252e-24)
(-0.311671 -0.218885 -1.71962e-21)
(-1.08476 -1.06714 0)
(-0.957556 -0.628474 0)
(-0.0219811 0.0125414 -1.16225e-22)
(-0.0485185 -0.121775 -1.45219e-22)
(-1.14677 -0.778956 0)
(-0.694935 -0.690892 2.86911e-21)
(-1.11131 -1.03553 -7.66383e-22)
(-0.0379493 0.0943958 0)
(-0.684674 -0.477441 0)
(-0.00823677 0.0997923 -3.92275e-21)
(-0.270457 -0.171029 -3.59298e-21)
(-0.0245735 -0.0464388 -5.35793e-21)
(-0.466182 -0.449165 0)
(-1.14046 -0.967062 3.08304e-22)
(-0.278439 -0.188377 -1.47922e-21)
(-0.0635145 -0.195405 5.26939e-21)
(-0.112165 0.0396568 5.29997e-21)
(-0.906035 -0.628342 0)
(-0.832545 -0.848449 -6.14311e-22)
(-1.1324 -0.726975 -1.65172e-21)
(-0.00528076 -0.0606666 -1.1695e-21)
(-0.00881325 -0.0981979 0)
(-0.0111141 0.129922 -1.4407e-21)
(-0.430874 -0.263527 0)
(-0.253635 -0.226312 1.83163e-21)
(-0.213349 -0.189047 -1.87737e-21)
(-0.924151 -0.854472 0)
(-0.841703 -0.684467 2.05412e-21)
(-0.94066 -0.876702 -1.76419e-21)
(-0.877734 -0.697219 -1.76731e-21)
(-0.672968 -0.588128 2.38022e-21)
(-0.967025 -0.85857 1.15707e-21)
(-0.366646 -0.316776 0)
(-0.250084 -0.23957 1.7322e-21)
(-0.275525 -0.255343 0)
(-0.839411 -0.783746 -1.16186e-21)
(-0.934489 -0.741841 1.82867e-21)
(-0.864359 -0.800889 1.17155e-21)
(-0.88201 -0.712193 -6.44296e-23)
(-0.475516 -0.453308 1.86075e-22)
(-1.10247 -0.952295 -3.11575e-22)
(-0.308663 -0.233257 -1.97588e-21)
(-0.569158 -0.515753 -5.13461e-21)
(-1.0989 -0.957501 7.64649e-24)
(-0.285227 -0.211211 0)
(-0.0463488 0.178833 0)
(-0.684123 -0.567448 0)
(-0.273591 -0.207161 6.0252e-21)
(-0.203975 -0.244002 -1.10006e-21)
(-1.09701 -0.835301 0)
(-0.634084 -0.588208 7.42694e-22)
(-0.243726 -0.260357 -1.08622e-20)
(-0.892687 -0.709594 -1.78888e-21)
(-0.0718083 0.132679 -1.63529e-21)
(-0.419589 -0.411556 0)
(-0.401037 -0.39576 3.81074e-21)
(-1.15192 -0.966513 1.2313e-22)
(-1.14351 -0.954191 -7.04033e-22)
(-0.180982 -0.055602 -2.04686e-21)
(-0.16547 -0.0287014 -1.92258e-21)
(-0.249826 -0.27959 0)
(-1.0789 -0.843708 0)
(-0.618529 -0.568966 3.55452e-22)
(-0.0924587 -0.191286 1.56342e-21)
(-1.16554 -0.82376 0)
(-0.499213 -0.455545 1.05034e-21)
(-0.428974 -0.421779 -1.67591e-21)
(-1.15605 -0.973053 0)
(-0.222229 -0.116651 0)
(-0.495263 -0.456926 1.91926e-21)
(-0.853633 -0.737069 -7.23162e-22)
(-0.669509 -0.609183 7.65656e-22)
(-0.475613 -0.432327 0)
(-1.14142 -0.980062 0)
(-0.138001 -0.000465802 -3.17162e-21)
(-0.370052 -0.360684 0)
(-0.662044 -0.603314 4.02139e-22)
(-0.968656 -0.799817 0)
(-0.584871 -0.509342 -3.5704e-21)
(-1.14177 -1.00838 -4.45037e-23)
(-0.186646 -0.084494 -2.57996e-22)
(-0.126202 -0.218172 1.63232e-21)
(-1.16397 -0.845548 0)
(-0.474208 -0.427233 2.10901e-21)
(-0.451605 -0.421192 -1.9004e-21)
(-0.415447 -0.389291 -8.63021e-22)
(-0.889763 -0.759391 7.97866e-22)
(-0.674843 -0.614046 -1.52961e-21)
(-0.884928 -0.750268 0)
(-0.715997 -0.653727 -2.66655e-21)
(-0.331142 -0.314734 -8.35104e-22)
(-0.797337 -0.736445 1.48187e-21)
(-0.310681 -0.284708 5.39988e-22)
(-0.883239 -0.73094 -2.31758e-21)
(-0.860409 -0.789672 -7.42318e-22)
(-0.866769 -0.712729 -2.28453e-23)
(-0.240016 -0.284542 1.29083e-21)
(-0.260209 -0.303197 0)
(-1.12269 -0.871301 8.52443e-22)
(-1.13646 -0.887019 -6.68786e-22)
(-0.530303 -0.475179 -1.76674e-21)
(-0.479105 -0.41303 2.94249e-21)
(-0.21602 -0.10505 0)
(-1.07681 -0.766942 7.24803e-22)
(-0.0884254 -0.219931 -3.71458e-21)
(-0.0315771 -0.00936012 1.39584e-21)
(-0.979182 -0.651456 3.21397e-21)
(-1.0561 -1.04022 -9.98905e-22)
(-0.185784 -0.061761 -1.76534e-21)
(-0.176831 -0.0441059 1.39833e-21)
(-1.04551 -0.749542 -6.273e-22)
(-1.05458 -0.7749 -9.99269e-22)
(-0.0904619 -0.222765 9.79864e-21)
(-0.123416 -0.243038 -5.17355e-21)
(-0.0571399 -0.0774866 2.04987e-21)
(-0.911051 -0.899346 -9.36519e-22)
(-1.05859 -0.727906 3.90409e-22)
(-0.593212 -0.537116 3.20108e-21)
(-0.646 -0.582077 0)
(-0.789564 -0.693249 -2.79221e-21)
(-0.425504 -0.404302 -1.95239e-21)
(-1.13398 -0.959713 8.00747e-22)
(-0.143125 0.000375829 0)
(-0.259535 -0.27832 0)
(-0.664672 -0.621455 -3.38295e-22)
(-1.04234 -0.821551 -1.25318e-21)
(-0.131943 -0.224703 0)