/*--------------------------------*- C++ -*----------------------------------*\
  =========                 |
  \\      /  F ield         | OpenFOAM: The Open Source CFD Toolbox
   \\    /   O peration     | Website:  https://openfoam.org
    \\  /    A nd           | Version:  6
     \\/     M anipulation  |
\*---------------------------------------------------------------------------*/
FoamFile
{
    version     2.0;
    format      ascii;
    class       volVectorField;
    location    "0";
    object      U;
}
// * * * * * * * * * * * * * * * * * * * * * * * * * * * * * * * * * * * * * //

dimensions      [0 1 -1 0 0 0 0];

internalField   nonuniform List<vector> 
13046
(
(0.39159 0.176934 0)
(0.416052 -0.00992949 3.70733e-21)
(0.214136 0.0379501 8.30726e-21)
(0.393148 0.129389 0)
(0.240661 0.0816768 7.4658e-21)
(0.360188 -0.00948557 0)
(0.41263 0.137846 -1.0896e-21)
(0.373093 -0.0302677 -1.90112e-21)
(0.226694 0.0894966 8.24823e-21)
(0.530111 0.249622 -3.99471e-21)
(0.628869 -0.230408 0)
(0.0434369 0.0542831 -5.62735e-21)
(0.438706 0.18779 6.91099e-21)
(0.44306 -0.0536127 5.88787e-21)
(0.179968 0.0535105 -4.59765e-21)
(0.506451 0.285095 -1.80199e-21)
(0.0520796 0.0283939 -9.00527e-21)
(0.660471 -0.178448 -3.04471e-21)
(0.297806 0.124459 0)
(0.297597 0.00834256 4.03344e-21)
(0.387673 0.076689 -1.13524e-20)
(0.512164 0.278571 2.20947e-21)
(0.0491937 0.0347458 1.80319e-20)
(0.653171 -0.189404 -1.00167e-21)
(0.370394 0.14086 -4.5814e-21)
(0.376928 0.010683 6.81506e-21)
(0.243124 0.0533828 0)
(0.438164 0.203638 -6.70902e-23)
(0.458349 -0.0561681 -1.72096e-21)
(0.170643 0.0426791 1.58827e-20)
(0.390408 0.189052 0)
(0.431124 -0.0066111 0)
(0.208373 0.0245168 -8.45722e-21)
(0.353335 0.127114 1.60267e-20)
(0.259098 0.0534089 -2.79089e-21)
(0.363199 0.0275528 -1.05713e-20)
(0.352038 0.114239 3.84535e-23)
(0.270561 0.0657129 0)
(0.34828 0.0315462 0)
(0.343702 0.20478 -5.94939e-21)
(0.251345 -0.0410205 -7.72755e-21)
(0.463828 0.0332791 5.60729e-21)
(0.337242 0.0802986 -3.69292e-21)
(0.304844 0.0799321 3.76597e-21)
(0.317409 0.0519061 0)
(0.353294 0.081773 -2.33325e-21)
(0.296196 0.0928407 0)
(0.311214 0.0371003 1.21812e-21)
(0.40223 0.171615 0)
(0.410834 -0.0227677 2.6681e-22)
(0.204974 0.0492357 -6.81472e-24)
(0.313422 -0.115977 -9.74049e-21)
(0.305464 0.227975 0)
(0.515898 0.0607982 6.88564e-21)
(0.339831 -0.136569 1.38722e-20)
(0.526511 0.0715723 7.42638e-21)
(0.287029 0.2232 -9.36207e-21)
(0.611107 -0.0805375 1.35977e-21)
(0.461966 0.307083 0)
(0.128811 -0.0289203 -7.39609e-21)
(0.512118 0.17361 3.31859e-21)
(0.469548 -0.138507 -3.52961e-21)
(0.163312 0.115323 1.92753e-20)
(0.0777828 0.0619751 -1.02387e-20)
(0.599761 -0.188983 2.23619e-21)
(0.534552 0.24366 5.85656e-21)
(0.448205 0.31076 0)
(0.601517 -0.0610778 -6.35413e-21)
(0.149038 -0.048351 -2.16125e-21)
(0.438764 0.303895 2.65155e-21)
(0.586986 -0.0507618 8.61098e-21)
(0.159275 -0.0505124 2.93867e-21)
(0.629521 -0.0901782 1.4134e-23)
(0.468942 0.312949 -7.29614e-23)
(0.118293 -0.0294072 2.48933e-24)
(0.306188 0.137515 0)
(0.287083 -0.00046084 -4.39631e-21)
(0.400624 0.0658147 8.08558e-21)
(0.0925833 -0.00736822 -8.21961e-21)
(0.484104 0.30624 8.43945e-21)
(0.640956 -0.119563 3.00284e-21)
(0.383451 0.143547 -2.40515e-21)
(0.376233 -0.00112684 2.43782e-21)
(0.233553 0.0639134 0)
(0.0687276 0.0584418 9.21521e-21)
(0.613112 -0.198595 0)
(0.536089 0.248641 -3.49643e-21)
(0.564793 0.200017 6.10931e-21)
(0.100361 0.104229 0)
(0.559059 -0.222546 1.74163e-21)
(0.126226 0.14739 0)
(0.599123 0.155897 0)
(0.526208 -0.266164 -2.33997e-22)
(0.493943 0.23002 6.8919e-21)
(0.507419 0.229619 -9.6197e-21)
(0.532098 -0.11938 -6.85931e-21)
(0.542742 -0.137415 3.219e-21)
(0.124152 0.0535605 4.20265e-21)
(0.11566 0.063074 -1.07552e-20)
(0.112397 0.115593 5.15522e-22)
(0.569894 0.18822 -5.97639e-21)
(0.544973 -0.227214 0)
(0.366652 0.0935783 1.67585e-23)
(0.281995 0.0940689 0)
(0.319953 0.0217739 0)
(0.261767 0.186127 -1.66949e-20)
(0.493297 0.0943261 3.39095e-21)
(0.346387 -0.105317 0)
(0.30993 0.211594 -2.56407e-21)
(0.294087 -0.0846638 0)
(0.489217 0.0569018 1.2925e-20)
(0.49067 0.239425 0)
(0.0222002 0.0435212 7.70493e-21)
(0.593421 -0.247841 2.44493e-21)
(0.423024 0.17764 -4.79642e-21)
(0.426027 -0.0397196 -2.49284e-21)
(0.191729 0.057132 -8.27564e-21)
(0.496658 0.257499 -4.0147e-21)
(0.488603 0.246196 3.74813e-21)
(0.573261 -0.125377 -1.90587e-21)
(0.106297 0.0341573 -4.82609e-21)
(0.548689 -0.113466 1.85331e-21)
(0.117882 0.0381234 4.50917e-21)
(0.520643 0.253494 1.04685e-20)
(0.631602 -0.233324 3.44749e-21)
(0.0365754 0.0493757 2.52452e-21)
(0.467669 0.222473 0)
(0.499177 -0.0892893 4.53882e-21)
(0.144046 0.0430262 -2.43736e-20)
(0.360409 0.210128 0)
(0.233435 -0.0296736 7.77665e-21)
(0.464138 0.0187721 -3.3924e-22)
(0.13896 0.155366 0)
(0.594169 0.151154 0)
(0.5161 -0.253846 0)
(0.532161 0.222316 0)
(0.557669 -0.171898 8.95231e-21)
(0.106571 0.0793218 1.08944e-20)
(0.405199 0.198849 0)
(0.446876 -0.0209422 0)
(0.196038 0.0203605 0)
(0.465381 0.140751 0)
(0.394347 -0.0839058 0)
(0.213104 0.122169 0)
(0.298948 0.211946 2.37267e-21)
(0.312566 -0.0991105 0)
(0.49831 0.0661451 -6.96956e-21)
(0.264909 0.177439 1.61796e-20)
(0.483156 0.0950882 7.24446e-21)
(0.343839 -0.0936553 -8.43953e-21)
(0.518843 0.182946 -7.99126e-21)
(0.488502 -0.148474 0)
(0.149613 0.105174 -2.51043e-20)
(0.255478 0.141613 0)
(0.446511 0.105862 -1.55876e-20)
(0.340999 -0.0579217 -2.15059e-21)
(0.391505 -0.161483 -3.88519e-21)
(0.537463 0.100905 -7.87743e-21)
(0.417628 -0.173999 0)
(0.544222 0.115597 -4.54679e-21)
(0.243807 0.202254 -8.11981e-21)
(0.221936 0.188605 7.7984e-21)
(0.481248 0.120798 -9.96138e-22)
(0.378412 -0.10023 -4.43324e-21)
(0.228792 0.146238 4.72238e-21)
(0.54223 0.239673 4.09781e-21)
(0.0483552 0.0622883 -2.92291e-21)
(0.615265 -0.23906 4.30964e-21)
(0.502253 0.247083 3.13044e-21)
(0.026248 0.0449085 1.15577e-21)
(0.614868 -0.242266 0)
(0.531104 0.23145 -7.65936e-23)
(0.571118 -0.173977 0)
(0.0968109 0.0710691 -1.31649e-20)
(0.379668 0.246312 0)
(0.505504 0.0043903 -1.81376e-21)
(0.222596 -0.0536612 -4.58062e-21)
(0.473779 0.112426 -6.57635e-21)
(0.242338 0.155402 0)
(0.361414 -0.0877747 0)
(0.0619843 0.0802824 0)
(0.593651 -0.248372 0)
(0.561187 0.220166 -3.48828e-21)
(0.366966 0.234031 0)
(0.491464 0.015818 3.90454e-21)
(0.233645 -0.0487491 -1.18038e-21)
(0.253836 0.151058 0)
(0.455101 0.102911 0)
(0.33852 -0.0680689 0)
(0.451662 0.132863 -3.24392e-21)
(0.380321 -0.0712206 0)
(0.220617 0.117917 0)
(0.45491 -0.0778482 3.25647e-23)
(0.168405 0.0682189 5.62164e-21)
(0.459784 0.211456 -1.0139e-20)
(0.482333 -0.0787048 0)
(0.154929 0.0485452 2.51712e-20)
(0.555532 0.223215 7.02984e-21)
(0.0801861 0.0821309 -8.33194e-21)
(0.589417 -0.21931 8.44002e-21)
(0.133939 0.141088 -7.59382e-21)
(0.579996 0.165547 -3.66343e-21)
(0.522373 -0.235454 -8.73835e-21)
(0.586311 0.17851 1.04739e-20)
(0.547794 -0.250239 0)
(0.106812 0.124601 7.46774e-21)
(0.316174 -0.141478 4.00264e-21)
(0.54469 0.0501361 -3.11728e-21)
(0.317978 0.260201 -7.95562e-21)
(0.440419 0.158076 6.35291e-21)
(0.477875 0.313658 -4.26526e-21)
(0.0997026 -0.0162917 5.06059e-21)
(0.646537 -0.11243 -1.41182e-23)
(0.558457 -0.25747 0)
(0.583623 0.187393 3.16821e-21)
(0.0933302 0.112528 0)
(0.367168 0.109722 1.18082e-20)
(0.267021 0.0818957 0)
(0.338024 0.0174512 -4.0049e-21)
(0.427564 0.209812 0)
(0.461895 -0.0435386 2.48251e-22)
(0.178788 0.0316955 -4.68496e-21)
(0.141544 0.151568 -5.81139e-21)
(0.586447 0.156486 0)
(0.514324 -0.243228 1.00637e-20)
(0.454166 0.167298 0)
(0.44331 -0.0801721 -1.06855e-20)
(0.175725 0.0783964 0)
(0.0374494 0.0588395 0)
(0.600333 -0.255083 -3.70041e-21)
(0.533466 0.233412 0)
(0.30079 0.249648 8.6084e-21)
(0.546107 0.059437 0)
(0.334977 -0.154553 0)
(0.579681 0.177662 -9.19415e-21)
(0.54043 -0.239027 0)
(0.114522 0.124925 8.94685e-24)
(0.512072 0.119287 -8.75333e-21)
(0.396147 -0.136899 -3.37829e-21)
(0.222651 0.167294 1.08642e-20)
(0.463301 0.233113 0)
(0.508009 -0.0833859 -4.23801e-21)
(0.142801 0.0327781 -2.54009e-21)
(0.472755 -0.237518 1.25462e-20)
(0.58858 0.124117 6.55992e-21)
(0.187116 0.191135 -4.57701e-21)
(0.558816 0.115665 0)
(0.432639 -0.193046 4.92727e-21)
(0.215797 0.193203 1.63824e-22)
(0.0365053 0.0611811 5.93065e-21)
(0.584477 -0.263221 0)
(0.535674 0.223325 3.73292e-21)
(0.337243 0.230642 -1.10977e-20)
(0.269598 -0.0778402 5.70729e-21)
(0.498413 0.0375046 5.69941e-22)
(0.450293 0.256451 -3.43671e-21)
(0.0152002 0.0308347 6.38811e-22)
(0.61207 -0.214912 0)
(0.28083 0.113036 -2.45863e-21)
(0.3879 0.0893371 9.17724e-21)
(0.31224 0.00277259 -1.20736e-20)
(0.504302 0.141753 -3.57274e-21)
(0.501291 0.126281 -2.69061e-23)
(0.421031 -0.130022 8.24297e-21)
(0.397401 -0.124766 8.09806e-21)
(0.21786 0.155271 -8.61664e-21)
(0.19674 0.139942 4.46182e-21)
(0.0804583 0.00063321 1.0757e-20)
(0.488625 0.304312 -4.43897e-21)
(0.65325 -0.130208 0)
(0.449418 0.234221 0)
(0.502441 -0.0651007 0)
(0.155416 0.0220557 1.0122e-20)
(0.567005 0.126388 1.70363e-21)
(0.4539 -0.208195 0)
(0.198484 0.184081 0)
(0.514435 0.241827 -3.75489e-21)
(0.568309 -0.148418 0)
(0.101502 0.0553258 -4.8122e-21)
(0.328217 0.0894386 -2.49974e-21)
(0.330545 0.0580331 -3.63438e-21)
(0.300765 0.0674523 1.24967e-21)
(0.532337 0.126142 5.80515e-21)
(0.422364 -0.162126 0)
(0.209953 0.171401 7.52439e-21)
(0.448187 0.244673 0)
(0.515823 -0.0637128 -5.29191e-21)
(0.152309 0.0115035 6.53371e-21)
(0.456239 0.182165 -1.04052e-20)
(0.469534 0.189109 8.37269e-21)
(0.338741 0.239515 8.76106e-21)
(0.271374 -0.0878853 -1.65529e-20)
(0.508384 0.036912 1.26159e-20)
(0.537663 0.138159 6.02762e-21)
(0.442855 -0.171992 -7.19178e-21)
(0.1911 0.158654 -6.86611e-21)
(0.523267 0.241158 1.33967e-20)
(0.0947519 0.061212 1.69392e-20)
(0.577274 -0.162218 4.45792e-21)
(0.312981 0.200808 3.85021e-21)
(0.288098 -0.0728215 0)
(0.477374 0.058011 -4.35849e-21)
(0.250975 0.215789 8.7939e-21)
(0.547129 0.0937144 4.53913e-21)
(0.388625 -0.172835 0)
(0.473695 0.267788 1.29273e-21)
(0.565661 -0.0942797 4.67837e-21)
(0.121385 0.0104572 -3.00237e-21)
(0.320791 0.239189 -7.24265e-22)
(0.299453 -0.110531 0)
(0.519129 0.0514706 -9.47618e-21)
(0.482538 0.274277 0)
(0.491764 0.270098 0)
(0.583283 -0.105828 3.03652e-21)
(0.111894 0.0126711 7.81332e-21)
(0.587146 -0.120304 -4.29585e-21)
(0.10383 0.0234883 -8.30588e-21)
(0.0645961 0.0756391 6.48708e-21)
(0.601046 -0.23611 0)
(0.556111 0.228042 4.62645e-21)
(0.4765 0.245854 0)
(0.536044 -0.0992912 2.1508e-21)
(0.127173 0.0302622 -2.6503e-21)
(0.532353 -0.235457 -6.98842e-21)
(0.0113038 0.0328075 -9.51681e-21)
(0.432322 0.222325 -8.92784e-21)
(0.425731 0.092733 1.25451e-20)
(0.272128 0.137881 0)
(0.319521 -0.0337619 4.53811e-21)
(0.495527 0.170128 -8.03996e-21)
(0.453033 -0.119717 0)
(0.170243 0.108163 -1.47053e-20)
(0.0870211 0.0794011 5.28141e-21)
(0.548886 0.224565 -1.27576e-20)
(0.581739 -0.204213 -6.3428e-21)
(0.346973 -0.148318 5.21397e-21)
(0.536145 0.0721422 0)
(0.283134 0.232298 1.06096e-20)
(0.487679 -0.240707 1.53372e-20)
(0.588359 0.135441 4.0648e-21)
(0.169176 0.175716 0)
(0.416345 -0.0611733 5.38074e-21)
(0.193287 0.0831386 0)
(0.494564 0.197477 -8.86437e-21)
(0.484316 -0.117492 -3.90238e-21)
(0.147495 0.079686 -4.51725e-21)
(0.40642 -0.0678389 -1.91178e-22)
(0.198904 0.0939006 -5.04619e-23)
(0.507222 0.284229 1.00445e-20)
(0.0603403 0.0263575 -1.26482e-20)
(0.65192 -0.168226 4.47317e-21)
(0.306613 -0.148661 -5.21391e-21)
(0.555886 0.0408051 -9.98634e-22)
(0.331188 0.273863 0)
(0.505246 0.203278 9.02546e-21)
(0.503381 -0.130434 4.76493e-21)
(0.137926 0.0832401 1.10452e-20)
(0.474892 0.135043 0)
(0.390682 -0.0955639 3.23948e-21)
(0.21544 0.132573 0)
(0.499455 0.0812041 4.36008e-21)
(0.333068 -0.109876 0)
(0.278924 0.198839 0)
(0.397827 0.157546 3.33372e-21)
(0.393969 -0.0160779 5.89134e-21)
(0.217622 0.059151 -2.37187e-23)
(0.267224 0.22682 -1.09144e-20)
(0.545511 0.0832876 -1.11143e-20)
(0.372133 -0.165072 -1.41295e-20)
(0.566855 0.207648 5.63847e-21)
(0.574686 -0.231381 -7.18821e-21)
(0.0871102 0.0948359 -1.25044e-22)
(0.494416 -0.232692 -1.03677e-20)
(0.582222 0.144485 -4.11946e-21)
(0.160945 0.164867 -5.77957e-21)
(0.415286 0.297401 8.14552e-21)
(0.192255 -0.0681608 -4.38024e-21)
(0.567833 -0.0260757 0)
(0.485689 0.292651 -2.40585e-21)
(0.480067 0.288762 2.15766e-21)
(0.603133 -0.104726 9.69138e-22)
(0.618678 -0.11408 -4.22892e-21)
(0.0995872 0.00181002 2.87897e-21)
(0.10908 -0.000873594 2.52932e-21)
(0.0131118 0.0325802 9.65917e-21)
(0.559254 -0.229542 7.69351e-21)
(0.440944 0.231434 -2.15469e-21)
(0.459835 0.262984 2.15325e-22)
(0.0181328 0.0305797 0)
(0.630713 -0.21248 0)
(0.517582 0.148861 1.30607e-20)
(0.441869 -0.143815 1.85785e-21)
(0.188171 0.140287 0)
(0.0714283 0.0747762 1.60443e-20)
(0.552486 0.229421 -5.76793e-21)
(0.60016 -0.222421 0)
(0.44825 0.28611 -1.16385e-20)
(0.459366 0.285709 8.73747e-21)
(0.569415 -0.0636442 -5.03241e-21)
(0.57726 -0.076091 -1.91785e-21)
(0.149155 -0.0261613 4.98962e-21)
(0.134858 -0.01474 2.5029e-21)
(0.0798005 0.107586 0)
(0.551116 -0.275007 0)
(0.587547 0.179476 -1.74696e-21)
(0.421395 0.252699 4.03683e-21)
(0.0115165 0.0262556 -6.01293e-21)
(0.596174 -0.203287 0)
(0.369048 0.0610184 2.62544e-23)
(0.315905 0.118823 -5.34716e-21)
(0.284952 0.0301959 -2.68493e-21)
(0.463496 0.242587 7.23082e-21)
(0.591174 -0.235086 -3.57703e-21)
(0.0168888 0.0363516 -1.19761e-20)
(0.400666 0.248256 -9.60814e-21)
(0.507192 -0.0142006 8.34635e-21)
(0.199038 -0.0347272 5.35588e-24)
(0.567594 0.212854 -4.20062e-23)
(0.586219 -0.25061 -1.03228e-20)
(0.0704127 0.0873948 3.30235e-21)
(0.464215 -0.245985 -2.14126e-22)
(0.0115572 0.0330821 1.09616e-20)
(0.418732 0.177917 3.5736e-21)
(0.329212 0.189561 5.1227e-21)
(0.263522 -0.034647 3.28996e-22)
(0.449718 0.0456453 -1.36977e-20)
(0.401641 0.10207 0)
(0.328019 -0.0129192 1.33797e-20)
(0.265003 0.113094 -6.89379e-21)
(0.511206 0.262891 -1.04913e-20)
(0.034082 0.0440267 -7.53106e-21)
(0.641368 -0.224163 3.56666e-25)
(0.414084 0.104876 0)
(0.330124 -0.0249456 4.70677e-21)
(0.258847 0.122618 9.73713e-21)
(0.35664 0.0650702 -5.46437e-21)
(0.314166 0.107069 5.64707e-21)
(0.292946 0.0402057 -1.41313e-21)
(0.290688 0.253754 5.27735e-21)
(0.559857 0.0657067 3.97339e-21)
(0.356496 -0.175881 -7.79992e-21)
(0.411208 0.0717846 0)
(0.290953 -0.0117658 0)
(0.296789 0.147142 -8.03002e-22)
(0.424719 0.084908 -6.69283e-21)
(0.307551 -0.0257996 -3.64382e-21)
(0.285736 0.147829 -1.14002e-22)
(0.402304 0.292612 -1.23599e-20)
(0.559903 -0.0149509 6.52437e-21)
(0.210047 -0.0817973 8.70714e-21)
(0.0496172 0.0486553 -1.13497e-20)
(0.0501254 0.0534003 1.15182e-20)
(0.640113 -0.209235 -3.02303e-21)
(0.631287 -0.218757 -2.10586e-21)
(0.525734 0.263702 -8.20336e-21)
(0.532089 0.256152 1.24235e-20)
(0.571926 0.205774 -6.91597e-21)
(0.576215 -0.240899 6.43271e-21)
(0.0821937 0.0977753 0)
(0.182716 -0.0724229 -5.65142e-21)
(0.423323 0.309131 -2.55604e-21)
(0.584415 -0.0342735 0)
(0.349309 0.226536 0)
(0.252257 -0.0609992 5.19636e-21)
(0.489277 0.0284077 -4.30994e-21)
(0.568951 0.1027 0)
(0.423917 -0.203964 -5.09695e-21)
(0.230064 0.211828 -1.69501e-22)
(0.504221 -0.273734 -3.60018e-21)
(0.0261525 0.0529378 0)
(0.498568 0.181853 8.99738e-21)
(0.113115 0.135619 0)
(0.595627 0.165698 0)
(0.535765 -0.265568 -4.36035e-21)
(0.518184 0.243946 -3.57692e-21)
(0.0324709 0.0513717 0)
(0.615279 -0.245925 3.63144e-21)
(0.00813414 0.0271988 4.05477e-32)
(0.437217 -0.230149 3.26971e-21)
(0.383012 0.169689 -3.6588e-21)
(0.463593 -0.19871 -3.65512e-21)
(0.00561426 0.0231678 -4.04539e-32)
(0.364378 0.19858 3.25413e-21)
(0.486275 -0.17743 9.87387e-21)
(0.542512 0.166184 0)
(0.159687 0.132434 1.47685e-20)
(0.542257 -0.282115 1.95917e-21)
(0.0551772 0.0858696 0)
(0.569803 0.182577 0)
(0.541604 0.215461 5.95391e-21)
(0.55562 -0.185139 -5.55584e-21)
(0.106712 0.0876311 -7.70649e-21)
(0.486236 0.292672 -1.04698e-20)
(0.0389302 0.020776 -4.59268e-21)
(0.680868 -0.178096 0)
(0.42749 0.163717 -2.58018e-21)
(0.199573 0.0747543 2.80638e-21)
(0.411836 -0.0471336 -2.59429e-21)
(0.547993 -0.273066 0)
(0.0900894 0.117033 -5.50244e-21)
(0.591451 0.175404 -1.89957e-21)
(0.563691 0.0954761 4.52625e-21)
(0.243459 0.220933 3.00582e-21)
(0.407952 -0.193884 0)
(0.464353 -0.205732 0)
(0.563621 0.136584 0)
(0.18401 0.171833 -5.37675e-21)
(0.00157639 0.0104345 0)
(0.267073 -0.123948 2.7036e-21)
(0.219196 0.102435 -2.77463e-21)
(0.523222 -0.25028 -3.53564e-21)
(0.0139421 0.0366561 6.62164e-21)
(0.447993 0.211027 3.71636e-21)
(0.413891 0.154038 6.65169e-21)
(0.212736 0.0744035 -6.60494e-21)
(0.394182 -0.0331195 -2.99013e-21)
(0.568242 -0.265449 -9.14811e-21)
(0.577358 0.19736 3.86237e-21)
(0.0691305 0.0947905 0)
(0.0749225 0.106093 5.78795e-21)
(0.588525 0.175578 0)
(0.542909 -0.281998 6.86173e-21)
(0.54295 0.242868 4.19109e-21)
(0.065716 0.0646713 -1.72092e-20)
(0.611677 -0.211478 -8.6438e-21)
(0.0740768 0.0179232 1.2994e-20)
(0.642027 -0.146645 -4.7437e-21)
(0.500593 0.289796 0)
(0.392206 0.300014 1.55443e-20)
(0.567116 -0.00675532 -8.31855e-21)
(0.229169 -0.1009 8.31167e-21)
(0.599441 -0.0898281 -1.44891e-21)
(0.468311 0.296228 -5.08163e-21)
(0.123007 -0.015882 7.8957e-21)
(0.0624761 0.00984055 1.16857e-20)
(0.492425 0.301028 0)
(0.669474 -0.151587 3.46702e-21)
(0.41802 0.236321 2.42124e-21)
(0.432507 0.246082 0)
(0.493414 -0.0314525 8.68284e-21)
(0.510848 -0.0455298 -9.27726e-21)
(0.180343 -0.00351298 -5.29852e-21)
(0.166705 -0.00257713 0)
(0.403514 0.237321 2.37542e-21)
(0.493187 -0.0171187 0)
(0.195206 -0.0183574 -2.545e-21)
(0.440604 0.294909 0)
(0.57561 -0.0553255 8.12727e-21)
(0.157548 -0.0396168 -1.80168e-21)
(0.485695 -0.220758 5.1326e-21)
(0.573962 0.144063 -4.22875e-21)
(0.166663 0.162182 1.18989e-20)
(0.566319 -0.253387 0)
(0.577084 0.196985 -1.16151e-21)
(0.0844091 0.104079 0)
(0.143267 0.140531 3.82444e-21)
(0.571169 0.16384 2.73761e-21)
(0.511612 -0.220829 3.35208e-21)
(0.49883 -0.20252 4.96785e-22)
(0.00656063 0.0246986 -6.95592e-25)
(0.383282 0.214371 0)
(0.359631 0.191792 -4.61329e-21)
(0.366766 0.184351 0)
(0.232946 -0.00565458 1.20643e-21)
(0.439752 0.0206359 -1.67055e-20)
(0.228249 0.00847384 -1.52625e-21)
(0.428968 0.0131882 1.06176e-20)
(0.422447 0.280987 0)
(0.407514 0.271336 1.57901e-21)
(0.195237 -0.0500785 -2.44698e-23)
(0.550361 -0.0344936 -5.06981e-21)
(0.18039 -0.0433438 -1.3129e-20)
(0.535139 -0.021321 1.073e-20)
(0.452221 -0.256591 0)
(0.0148643 0.0379399 -1.19602e-20)
(0.438137 0.168402 0)
(0.572906 -0.260174 5.40527e-21)
(0.575998 0.200713 -1.17563e-21)
(0.0719061 0.0931197 -3.4675e-21)
(0.353716 0.250752 2.90327e-21)
(0.260489 -0.0895667 5.96526e-21)
(0.518503 0.025391 -1.42467e-20)
(0.457463 -0.223894 -1.11642e-20)
(0.579967 0.119161 -1.09605e-20)
(0.199272 0.195539 0)
(0.0809695 0.011588 -1.38947e-20)
(0.637691 -0.137328 5.04797e-21)
(0.496244 0.292406 0)
(0.566697 -0.261298 0)
(0.500808 0.221891 0)
(0.0238919 0.0484677 0)
(0.568945 -0.265906 0)
(0.520019 0.21689 -6.41725e-21)
(0.0307663 0.0566651 0)
(0.463177 0.274683 4.82696e-21)
(0.564821 -0.0819186 -2.90678e-21)
(0.131635 -0.00229686 -3.70476e-21)
(0.302496 0.189965 1.34794e-21)
(0.297044 -0.0661661 0)
(0.467904 0.0680161 -4.60549e-21)
(0.540301 0.246423 -4.88342e-21)
(0.0582959 0.0609751 -1.00551e-20)
(0.621466 -0.21798 1.25228e-20)
(0.491168 -0.192279 0)
(0.552851 0.1639 0)
(0.156685 0.140508 -1.27368e-20)
(0.0831327 0.0546494 -3.23607e-21)
(0.597357 -0.171555 -7.62769e-21)
(0.524918 0.251492 -1.26506e-20)
(0.396276 0.270811 -1.60843e-21)
(0.209944 -0.0622185 8.75305e-21)
(0.533134 -0.011483 -5.48947e-21)
(0.507955 0.107232 8.50981e-21)
(0.37592 -0.12695 -5.02806e-21)
(0.242929 0.179513 -1.06109e-20)
(0.3374 0.210403 -7.82541e-23)
(0.261054 -0.0558487 1.69749e-21)
(0.475234 0.0380889 5.64723e-21)
(0.0573066 0.0671674 3.92437e-21)
(0.61343 -0.232325 -5.79875e-21)
(0.547196 0.237287 -5.51195e-21)
(0.507669 0.255455 2.30752e-21)
(0.582719 -0.141798 2.25607e-21)
(0.0976924 0.0427404 0)
(0.3358 0.182766 5.00318e-21)
(0.255753 -0.0186375 -1.06371e-20)
(0.43777 0.0405347 9.02765e-21)
(0.488861 0.30146 -4.0675e-21)
(0.0532323 0.0112514 -5.21233e-21)
(0.679598 -0.160141 -3.07399e-23)
(0.400078 0.211228 2.93544e-21)
(0.4597 -0.0175181 0)
(0.19622 0.00630828 0)
(0.443779 0.121069 1.20295e-20)
(0.358717 -0.0584339 -2.92136e-21)
(0.236919 0.127192 0)
(0.462173 -0.189726 0)
(0.552311 0.141665 -8.61147e-21)
(0.181605 0.161906 5.62967e-21)
(0.473718 0.275823 0)
(0.0244686 0.0286274 1.61434e-21)
(0.660428 -0.202772 -3.93853e-21)
(0.47271 0.283624 -4.2958e-21)
(0.0268416 0.0249875 -5.15653e-21)
(0.671209 -0.192043 3.79656e-21)
(0.0793191 0.0453659 -2.95963e-21)
(0.608502 -0.166032 4.52135e-21)
(0.519201 0.260841 1.16022e-20)
(0.521971 0.0966705 4.00169e-21)
(0.375376 -0.14301 1.00926e-20)
(0.253019 0.195713 0)
(0.0183373 0.0265664 -1.47897e-21)
(0.6467 -0.202831 3.68367e-21)
(0.452252 0.270208 0)
(0.0986147 0.0882898 0)
(0.566157 -0.19945 4.6516e-21)
(0.549261 0.215383 1.45332e-21)
(0.00639857 0.0226393 -5.96265e-21)
(0.371486 -0.214511 -3.71341e-21)
(0.340619 0.137043 0)
(0.308775 0.18231 3.67055e-21)
(0.415128 -0.163424 0)
(0.00308761 0.0173089 -5.96763e-21)
(0.0648271 0.0169608 -9.49321e-24)
(0.657967 -0.155827 5.91541e-22)
(0.498927 0.294071 0)
(0.0457989 0.0653978 0)
(0.604445 -0.2506 0)
(0.545347 0.231811 -7.42047e-21)
(0.523078 0.266563 4.28983e-21)
(0.525384 0.262884 -3.4706e-21)
(0.0556933 0.0438438 5.68969e-21)
(0.640421 -0.193961 9.94427e-22)
(0.0628141 0.046776 0)
(0.628422 -0.188477 0)
(0.555937 0.20469 -2.79251e-21)
(0.556017 -0.2066 -3.0783e-21)
(0.105185 0.0986848 0)
(0.220156 0.214178 0)
(0.437647 -0.221289 0)
(0.581026 0.105925 0)
(0.367126 0.163129 -6.15428e-21)
(0.233723 0.0302078 1.45228e-20)
(0.403643 0.0128356 -5.83651e-21)
(0.561169 0.181324 -7.9216e-21)
(0.525863 -0.208979 -1.13777e-21)
(0.128534 0.121851 -1.12902e-20)
(0.141281 0.132636 -7.35065e-21)
(0.562132 0.171688 1.10105e-20)
(0.512213 -0.208307 1.57883e-21)
(0.486091 0.309321 -4.53698e-21)
(0.0715744 -0.000575617 -5.59306e-21)
(0.669117 -0.136722 0)
(0.425106 0.289647 0)
(0.562174 -0.0375011 -2.41383e-21)
(0.177025 -0.0495669 1.28686e-20)
(0.411441 0.258128 0)
(0.520932 -0.0240592 -1.09603e-20)
(0.18952 -0.0361806 -1.99219e-23)
(0.532906 0.185633 1.01489e-20)
(0.50447 -0.168014 -1.37988e-21)
(0.141351 0.109682 6.39576e-21)
(0.541571 0.180194 0)
(0.504453 -0.178844 -1.29727e-21)
(0.14329 0.117847 -5.891e-21)
(0.326338 0.168646 0)
(0.264948 -0.0107537 1.67834e-20)
(0.423847 0.0484141 0)
(0.4337 0.255102 0)
(0.522316 -0.0480614 6.15764e-21)
(0.163154 -0.011752 -1.92854e-21)
(0.0998488 0.128617 1.19233e-20)
(0.536564 -0.276598 9.84744e-21)
(0.598832 0.165828 0)
(0.529549 0.202704 1.41821e-22)
(0.0336392 0.0613286 -3.6661e-21)
(0.547107 -0.274477 -2.59488e-21)
(0.522273 0.188141 5.32478e-23)
(0.0321702 0.0604274 0)
(0.525206 -0.276932 7.45028e-21)
(0.37308 0.224448 -3.47751e-21)
(0.223839 -0.0315015 1.85085e-21)
(0.478041 0.00869705 8.55281e-23)
(0.536492 -0.259739 -1.20584e-22)
(0.019817 0.0443575 -1.51938e-20)
(0.481911 0.208898 0)
(0.510978 0.264449 -9.95451e-21)
(0.0867204 0.0389307 0)
(0.602563 -0.15073 0)
(0.0207499 0.0461825 6.0246e-21)
(0.50374 -0.267895 3.99824e-21)
(0.478724 0.187621 -7.00389e-21)
(0.388716 0.117748 -8.20323e-21)
(0.254548 0.0918386 -8.74344e-21)
(0.345118 -0.00190602 -4.56951e-23)
(0.473074 0.202604 1.48531e-21)
(0.477911 -0.0917944 1.42324e-21)
(0.155738 0.0649822 5.77916e-21)
(0.353206 -0.133 -1.15204e-20)
(0.517617 0.0851386 -1.40784e-20)
(0.270888 0.205539 0)
(0.0615689 0.0911152 0)
(0.551279 -0.278559 2.45587e-21)
(0.575855 0.186651 0)
(0.480977 -0.197743 0)
(0.556749 0.154356 0)
(0.165709 0.150257 0)
(0.0468836 0.0202476 0)
(0.494013 0.293401 3.85335e-21)
(0.676361 -0.172404 -3.45158e-21)
(0.486958 0.207638 0)
(0.492886 -0.108139 -7.08846e-22)
(0.145187 0.0692969 1.41123e-23)
(0.361398 0.152738 5.94438e-21)
(0.242406 0.0367416 -1.24656e-20)
(0.391704 0.0184327 0)
(0.569631 -0.269989 8.65696e-21)
(0.569037 0.201599 -3.66591e-21)
(0.0592751 0.0857227 0)
(0.0856468 0.0709602 6.79462e-21)
(0.586374 -0.192928 -2.95575e-22)
(0.539765 0.234162 -1.02636e-22)
(0.49418 0.264125 0)
(0.48669 0.260881 -4.38039e-21)
(0.0272478 0.0381645 -3.69371e-21)
(0.0237318 0.038017 4.56306e-21)
(0.642988 -0.220058 2.42283e-21)
(0.633384 -0.2253 -1.99206e-21)
(0.491279 0.148095 0)
(0.418396 -0.115445 -9.64232e-21)
(0.196424 0.128433 -6.97955e-21)
(0.46699 -0.163459 -1.3861e-20)
(0.532066 0.158526 0)
(0.169255 0.135846 7.73696e-21)
(0.424272 0.133411 6.77966e-21)
(0.368823 -0.0420163 -4.97944e-21)
(0.225155 0.101811 -1.07518e-20)
(0.555983 -0.277358 -5.69421e-21)
(0.549561 0.200481 -4.97474e-21)
(0.543202 -0.281962 2.70501e-21)
(0.0422263 0.070621 3.88351e-21)
(0.555572 0.188944 4.66332e-21)
(0.0460767 0.0752543 0)
(0.512248 0.219113 0)
(0.530277 -0.143205 0)
(0.122472 0.0736528 -7.22953e-21)
(0.559714 0.210454 -4.89806e-21)
(0.551453 0.209492 1.23118e-20)
(0.579107 -0.267021 -3.73558e-21)
(0.573598 -0.270494 9.39111e-21)
(0.0508904 0.0765462 -1.01986e-20)
(0.0440398 0.0703783 -3.29862e-25)
(0.528736 0.149752 0)
(0.449265 -0.159392 1.28113e-20)
(0.185042 0.148825 -1.00287e-20)
(0.46707 0.167326 -6.43406e-21)
(0.44466 -0.0946755 8.56741e-21)
(0.172786 0.0896232 0)
(0.488313 0.286021 0)
(0.0343011 0.0263492 -7.10091e-22)
(0.673158 -0.19056 -3.64598e-21)
(0.488296 0.159545 -4.73693e-21)
(0.432024 -0.110741 0)
(0.184948 0.116178 1.1584e-20)
(0.439528 0.144487 -2.75149e-21)
(0.388896 -0.0602533 5.83734e-21)
(0.211574 0.100829 -6.30245e-21)
(0.487355 0.271222 0)
(0.0281734 0.0334479 0)
(0.656543 -0.210903 5.03156e-21)
(0.48472 0.220111 0)
(0.511492 -0.107079 -1.50617e-21)
(0.13473 0.05643 7.1744e-21)
(0.397029 -0.197289 0)
(0.569324 0.0861218 0)
(0.257298 0.236235 3.88288e-22)
(0.393011 0.279419 3.95889e-22)
(0.543191 -0.00734671 0)
(0.216657 -0.0753772 -6.79875e-21)
(0.499944 -0.254803 -6.00411e-21)
(0.155206 0.171834 0)
(0.597056 0.139138 0)
(0.00330135 0.0162219 1.43418e-20)
(0.350784 -0.164149 -3.7856e-21)
(0.288654 0.137705 3.88463e-21)
(0.488085 0.182715 0)
(0.45953 -0.108962 -5.26379e-21)
(0.163582 0.0921326 0)
(0.508158 0.277107 -7.17918e-21)
(0.0424035 0.0355886 -1.92574e-20)
(0.658904 -0.195322 7.4374e-21)
(0.267601 -0.124842 0)
(0.560397 0.0171109 5.46424e-21)
(0.36179 0.288364 0)
(0.374068 0.227103 0)
(0.00639445 0.0226505 3.58222e-21)
(0.527469 -0.191836 0)
(0.27591 0.163546 -6.69333e-21)
(0.281001 0.177698 6.85293e-21)
(0.317 -0.0615402 0)
(0.4541 0.0863718 -5.79778e-21)
(0.318724 -0.0763047 1.08535e-20)
(0.469551 0.0812293 4.66944e-21)
(0.425219 0.120551 -6.38086e-21)
(0.351557 -0.038593 -6.60718e-21)
(0.240554 0.115519 0)
(0.311762 0.182572 -5.90341e-21)
(0.294519 0.16945 0)
(0.281637 -0.0448125 0)
(0.451195 0.0593015 0)
(0.294745 -0.0440683 6.0795e-21)
(0.444195 0.0722582 -3.20629e-23)
(0.476908 0.179159 -4.08834e-22)
(0.423847 -0.0868213 3.72995e-21)
(0.187641 0.0993896 7.78902e-21)
(0.471832 0.158977 1.10755e-20)
(0.419662 -0.0923117 0)
(0.193124 0.109758 0)
(0.0391695 0.0691348 0)
(0.521185 -0.28418 0)
(0.541237 0.180527 -5.08891e-21)
(0.389458 0.22579 9.57747e-21)
(0.478603 -0.0043475 0)
(0.207657 -0.018178 -3.43121e-21)
(0.556189 0.220957 9.85194e-21)
(0.592995 -0.257163 -4.32533e-21)
(0.052015 0.0740487 5.8179e-21)
(0.532695 0.199163 0)
(0.540788 0.203819 -5.73651e-21)
(0.523666 -0.168892 1.7194e-21)
(0.538455 -0.180803 -5.47263e-21)
(0.126607 0.0980226 7.98568e-21)
(0.117645 0.0967581 7.44102e-21)
(0.388364 0.212534 0)
(0.462233 -0.00530013 0)
(0.207857 -0.00520903 -1.61263e-21)
(0.442736 0.274994 -3.85098e-21)
(0.551451 -0.0565917 0)
(0.156041 -0.0211328 -4.29212e-21)
(0.5129 0.196708 2.91439e-21)
(0.500037 -0.142669 0)
(0.138995 0.0933346 -7.28787e-21)
(0.33473 0.128054 -6.46589e-21)
(0.371783 0.0432385 -3.14471e-21)
(0.268275 0.0368584 -3.34851e-21)
(0.551221 0.187784 0)
(0.52493 -0.194397 0)
(0.128716 0.114343 1.20023e-20)
(0.354287 0.168457 0)
(0.240651 0.0141732 -1.84247e-21)
(0.412931 0.0241293 0)
(0.521371 0.162632 6.44281e-21)
(0.46027 -0.151743 7.12697e-21)
(0.172318 0.128281 1.00127e-21)
(0.446057 0.26319 -3.89426e-21)
(0.53894 -0.0613659 -7.02278e-21)
(0.15137 -0.0089418 0)
(0.339383 0.142219 6.40881e-21)
(0.329215 0.146174 2.87368e-21)
(0.386027 0.0368882 -3.07728e-21)
(0.258877 0.0278984 6.61657e-21)
(0.396298 0.044778 0)
(0.264203 0.0141593 1.18195e-20)
(0.309726 0.159315 2.92137e-21)
(0.278756 -0.0185322 -7.83096e-21)
(0.297231 0.161865 -1.88081e-21)
(0.422449 0.0606917 0)
(0.295482 -0.0350187 -3.86503e-21)
(0.435339 0.0724771 6.63182e-21)
(0.417037 0.224334 -3.47653e-21)
(0.433029 0.223785 0)
(0.477974 -0.0326792 -6.43152e-21)
(0.482073 -0.0475389 5.01786e-21)
(0.180802 0.00849492 1.53155e-20)
(0.169805 0.0214271 -1.27359e-20)
(0.0754376 0.0272583 0)
(0.628904 -0.152246 2.77663e-21)
(0.506569 0.279314 6.03192e-21)
(0.271909 0.239053 -1.30651e-20)
(0.558665 0.0785405 -6.26308e-21)
(0.376731 -0.180224 1.22394e-20)
(0.0671807 0.0322057 6.47874e-21)
(0.0685837 0.0406124 0)
(0.635911 -0.166649 -2.39996e-21)
(0.625423 -0.174611 -4.13051e-21)
(0.511685 0.27784 -1.54724e-20)
(0.519297 0.268045 8.05956e-21)
(0.326151 0.252346 0)
(0.299529 -0.121341 6.52944e-21)
(0.531513 0.0455367 -1.35645e-21)
(0.333108 0.102918 -1.35958e-20)
(0.286655 0.0597966 0)
(0.342784 0.0502364 1.07645e-20)
(0.549925 0.19839 2.7672e-21)
(0.539729 -0.194675 6.17802e-21)
(0.117498 0.1042 0)
(0.369794 0.202673 0)
(0.223312 -0.0130351 1.53724e-21)
(0.452844 0.0113222 5.41191e-21)
(0.454884 0.263635 0)
(0.544438 -0.0710752 0)
(0.142189 -0.000717163 1.02593e-21)
(0.494114 0.286124 0)
(0.497635 0.277078 0)
(0.619228 -0.128612 -1.47307e-21)
(0.0911257 0.0136112 7.8884e-21)
(0.60741 -0.130863 4.0157e-21)
(0.0927865 0.0221094 -1.06689e-20)
(0.522967 0.216225 -5.53411e-21)
(0.538719 -0.157001 -5.74305e-21)
(0.116576 0.0800191 -3.47633e-21)
(0.410888 0.23661 -5.57743e-21)
(0.561534 -0.207818 0)
(0.0100201 0.0268242 4.38444e-21)
(0.282062 -0.128319 0)
(0.551518 0.0278383 -4.45125e-21)
(0.348463 0.276525 0)
(0.375843 0.289089 -4.01178e-21)
(0.370527 0.278158 4.30761e-21)
(0.247383 -0.106823 4.25435e-21)
(0.55686 0.00717895 0)
(0.250064 -0.099923 0)
(0.544836 0.011415 0)
(0.568641 0.154936 9.65272e-21)
(0.494958 -0.215708 -1.16596e-20)
(0.157169 0.150227 -5.48133e-22)
(0.432202 0.273955 7.91232e-21)