/*--------------------------------*- C++ -*----------------------------------*\
  =========                 |
  \\      /  F ield         | OpenFOAM: The Open Source CFD Toolbox
   \\    /   O peration     | Website:  https://openfoam.org
    \\  /    A nd           | Version:  6
     \\/     M anipulation  |
\*---------------------------------------------------------------------------*/
FoamFile
{
    version     2.0;
    format      ascii;
    class       volScalarField;
    location    "0";
    object      p;
}
// * * * * * * * * * * * * * * * * * * * * * * * * * * * * * * * * * * * * * //

dimensions      [0 2 -2 0 0 0 0];

internalField   nonuniform List<scalar> 
145945
(
2.17132e-06
2.17103e-06
2.17108e-06
2.17116e-06
2.17134e-06
2.17147e-06
2.1716e-06
2.17168e-06
2.17172e-06
2.1717e-06
2.17165e-06
2.17153e-06
2.17143e-06
2.17126e-06
2.17121e-06
2.17112e-06
2.17142e-06
2.17103e-06
2.17094e-06
2.17102e-06
2.17116e-06
2.17136e-06
2.17151e-06
2.17165e-06
2.17173e-06
2.17177e-06
2.17175e-06
2.17169e-06
2.17157e-06
2.17145e-06
2.17127e-06
2.17117e-06
2.17104e-06
2.17114e-06
2.17108e-06
2.17102e-06
2.17111e-06
2.1713e-06
2.17152e-06
2.17169e-06
2.17184e-06
2.17192e-06
2.17197e-06
2.17195e-06
2.17188e-06
2.17176e-06
2.17162e-06
2.17143e-06
2.17128e-06
2.17113e-06
2.17119e-06
2.17116e-06
2.17116e-06
2.1713e-06
2.17153e-06
2.17177e-06
2.17196e-06
2.17211e-06
2.17221e-06
2.17226e-06
2.17223e-06
2.17217e-06
2.17203e-06
2.17188e-06
2.17167e-06
2.17148e-06
2.17129e-06
2.17127e-06
2.17134e-06
2.17136e-06
2.17152e-06
2.17177e-06
2.17202e-06
2.17222e-06
2.17238e-06
2.17247e-06
2.17252e-06
2.1725e-06
2.17243e-06
2.1723e-06
2.17213e-06
2.17192e-06
2.1717e-06
2.17149e-06
2.17146e-06
2.17147e-06
2.17151e-06
2.17169e-06
2.17196e-06
2.17222e-06
2.17243e-06
2.17259e-06
2.17269e-06
2.17274e-06
2.17272e-06
2.17264e-06
2.17251e-06
2.17233e-06
2.17211e-06
2.17188e-06
2.17165e-06
2.17159e-06
2.1716e-06
2.17165e-06
2.17184e-06
2.17211e-06
2.17238e-06
2.17259e-06
2.17275e-06
2.17285e-06
2.1729e-06
2.17288e-06
2.1728e-06
2.17267e-06
2.17249e-06
2.17227e-06
2.17203e-06
2.17179e-06
2.17172e-06
2.17168e-06
2.17173e-06
2.17192e-06
2.17221e-06
2.17247e-06
2.17269e-06
2.17285e-06
2.17295e-06
2.173e-06
2.17298e-06
2.1729e-06
2.17277e-06
2.17259e-06
2.17236e-06
2.17212e-06
2.17187e-06
2.17179e-06
2.17172e-06
2.17177e-06
2.17197e-06
2.17226e-06
2.17252e-06
2.17274e-06
2.1729e-06
2.173e-06
2.17305e-06
2.17303e-06
2.17295e-06
2.17282e-06
2.17264e-06
2.17241e-06
2.17216e-06
2.17192e-06
2.17184e-06
2.1717e-06
2.17175e-06
2.17195e-06
2.17223e-06
2.1725e-06
2.17272e-06
2.17288e-06
2.17298e-06
2.17303e-06
2.17301e-06
2.17293e-06
2.1728e-06
2.17262e-06
2.17239e-06
2.17214e-06
2.17189e-06
2.17182e-06
2.17165e-06
2.17169e-06
2.17188e-06
2.17217e-06
2.17243e-06
2.17264e-06
2.1728e-06
2.1729e-06
2.17295e-06
2.17293e-06
2.17286e-06
2.17272e-06
2.17254e-06
2.17232e-06
2.17207e-06
2.17183e-06
2.17176e-06
2.17153e-06
2.17157e-06
2.17176e-06
2.17204e-06
2.1723e-06
2.17251e-06
2.17267e-06
2.17277e-06
2.17282e-06
2.1728e-06
2.17272e-06
2.17259e-06
2.17241e-06
2.17219e-06
2.17195e-06
2.17171e-06
2.17164e-06
2.17143e-06
2.17145e-06
2.17162e-06
2.17188e-06
2.17213e-06
2.17234e-06
2.17249e-06
2.17259e-06
2.17264e-06
2.17262e-06
2.17254e-06
2.17241e-06
2.17224e-06
2.17203e-06
2.1718e-06
2.17159e-06
2.17154e-06
2.17126e-06
2.17127e-06
2.17143e-06
2.17167e-06
2.17192e-06
2.17211e-06
2.17227e-06
2.17237e-06
2.17241e-06
2.17239e-06
2.17232e-06
2.17219e-06
2.17203e-06
2.17182e-06
2.17161e-06
2.17141e-06
2.17137e-06
2.17121e-06
2.17117e-06
2.17128e-06
2.17148e-06
2.1717e-06
2.17188e-06
2.17203e-06
2.17212e-06
2.17216e-06
2.17214e-06
2.17208e-06
2.17195e-06
2.1718e-06
2.17161e-06
2.17144e-06
2.17129e-06
2.17132e-06
2.17112e-06
2.17104e-06
2.17113e-06
2.17129e-06
2.1715e-06
2.17165e-06
2.17179e-06
2.17187e-06
2.17192e-06
2.17189e-06
2.17184e-06
2.17171e-06
2.17159e-06
2.17141e-06
2.17129e-06
2.17115e-06
2.17122e-06
2.17143e-06
2.17114e-06
2.17119e-06
2.17127e-06
2.17146e-06
2.17159e-06
2.17172e-06
2.17179e-06
2.17184e-06
2.17182e-06
2.17176e-06
2.17165e-06
2.17154e-06
2.17137e-06
2.17132e-06
2.17122e-06
2.17153e-06
2.09688e-06
2.09688e-06
2.09721e-06
2.09754e-06
2.09791e-06
2.09822e-06
2.09848e-06
2.09864e-06
2.09871e-06
2.09867e-06
2.09854e-06
2.09832e-06
2.09804e-06
2.09768e-06
2.09738e-06
2.097e-06
2.09697e-06
2.09688e-06
2.09706e-06
2.09742e-06
2.09782e-06
2.09823e-06
2.09857e-06
2.09884e-06
2.09901e-06
2.09908e-06
2.09904e-06
2.0989e-06
2.09867e-06
2.09836e-06
2.09798e-06
2.0976e-06
2.09719e-06
2.09698e-06
2.09721e-06
2.09742e-06
2.09779e-06
2.09824e-06
2.09868e-06
2.09904e-06
2.09933e-06
2.09951e-06
2.09959e-06
2.09955e-06
2.0994e-06
2.09915e-06
2.09882e-06
2.09841e-06
2.09798e-06
2.09756e-06
2.0973e-06
2.09754e-06
2.09782e-06
2.09824e-06
2.09873e-06
2.09919e-06
2.09958e-06
2.09987e-06
2.10006e-06
2.10014e-06
2.1001e-06
2.09995e-06
2.09969e-06
2.09934e-06
2.09891e-06
2.09844e-06
2.09797e-06
2.09764e-06
2.09791e-06
2.09823e-06
2.09868e-06
2.09919e-06
2.09967e-06
2.10007e-06
2.10038e-06
2.10057e-06
2.10066e-06
2.10062e-06
2.10046e-06
2.10019e-06
2.09983e-06
2.09938e-06
2.09889e-06
2.09839e-06
2.09802e-06
2.09822e-06
2.09857e-06
2.09904e-06
2.09958e-06
2.10007e-06
2.10048e-06
2.10079e-06
2.10099e-06
2.10108e-06
2.10104e-06
2.10088e-06
2.1006e-06
2.10023e-06
2.09977e-06
2.09926e-06
2.09873e-06
2.09833e-06
2.09848e-06
2.09884e-06
2.09933e-06
2.09987e-06
2.10038e-06
2.10079e-06
2.10111e-06
2.10131e-06
2.10139e-06
2.10135e-06
2.10119e-06
2.10091e-06
2.10054e-06
2.10007e-06
2.09955e-06
2.099e-06
2.09858e-06
2.09864e-06
2.09901e-06
2.09951e-06
2.10006e-06
2.10057e-06
2.10099e-06
2.10131e-06
2.10151e-06
2.1016e-06
2.10156e-06
2.10139e-06
2.10111e-06
2.10074e-06
2.10026e-06
2.09973e-06
2.09918e-06
2.09874e-06
2.09871e-06
2.09908e-06
2.09959e-06
2.10014e-06
2.10066e-06
2.10108e-06
2.10139e-06
2.1016e-06
2.10168e-06
2.10164e-06
2.10148e-06
2.1012e-06
2.10082e-06
2.10035e-06
2.09981e-06
2.09925e-06
2.09881e-06
2.09867e-06
2.09904e-06
2.09955e-06
2.1001e-06
2.10062e-06
2.10104e-06
2.10135e-06
2.10156e-06
2.10164e-06
2.1016e-06
2.10144e-06
2.10116e-06
2.10078e-06
2.10031e-06
2.09977e-06
2.09921e-06
2.09878e-06
2.09854e-06
2.0989e-06
2.0994e-06
2.09995e-06
2.10046e-06
2.10088e-06
2.10119e-06
2.10139e-06
2.10148e-06
2.10144e-06
2.10127e-06
2.101e-06
2.10062e-06
2.10015e-06
2.09962e-06
2.09907e-06
2.09865e-06
2.09832e-06
2.09867e-06
2.09915e-06
2.09969e-06
2.10019e-06
2.1006e-06
2.10091e-06
2.10111e-06
2.1012e-06
2.10116e-06
2.101e-06
2.10072e-06
2.10035e-06
2.09989e-06
2.09937e-06
2.09883e-06
2.09842e-06
2.09804e-06
2.09836e-06
2.09882e-06
2.09934e-06
2.09983e-06
2.10023e-06
2.10054e-06
2.10074e-06
2.10082e-06
2.10078e-06
2.10062e-06
2.10035e-06
2.09998e-06
2.09953e-06
2.09903e-06
2.09852e-06
2.09814e-06
2.09768e-06
2.09798e-06
2.09841e-06
2.09891e-06
2.09938e-06
2.09977e-06
2.10007e-06
2.10026e-06
2.10035e-06
2.10031e-06
2.10015e-06
2.09989e-06
2.09953e-06
2.09909e-06
2.09862e-06
2.09813e-06
2.09778e-06
2.09738e-06
2.0976e-06
2.09798e-06
2.09844e-06
2.09889e-06
2.09926e-06
2.09955e-06
2.09973e-06
2.09981e-06
2.09977e-06
2.09962e-06
2.09937e-06
2.09903e-06
2.09862e-06
2.09818e-06
2.09775e-06
2.09747e-06
2.097e-06
2.09719e-06
2.09756e-06
2.09797e-06
2.09839e-06
2.09873e-06
2.099e-06
2.09918e-06
2.09925e-06
2.09921e-06
2.09907e-06
2.09883e-06
2.09852e-06
2.09813e-06
2.09775e-06
2.09733e-06
2.09709e-06
2.09697e-06
2.09698e-06
2.0973e-06
2.09764e-06
2.09802e-06
2.09833e-06
2.09858e-06
2.09874e-06
2.09881e-06
2.09878e-06
2.09865e-06
2.09842e-06
2.09814e-06
2.09778e-06
2.09747e-06
2.09709e-06
2.09706e-06
2.0419e-06
2.04315e-06
2.04435e-06
2.0454e-06
2.04635e-06
2.04706e-06
2.04758e-06
2.04789e-06
2.04802e-06
2.04794e-06
2.04767e-06
2.04719e-06
2.04652e-06
2.0456e-06
2.04453e-06
2.04321e-06
2.04189e-06
2.04315e-06
2.04426e-06
2.04542e-06
2.04648e-06
2.04742e-06
2.04813e-06
2.04865e-06
2.04896e-06
2.04908e-06
2.049e-06
2.04873e-06
2.04826e-06
2.04759e-06
2.04668e-06
2.0456e-06
2.04432e-06
2.04315e-06
2.04435e-06
2.04542e-06
2.0465e-06
2.04753e-06
2.04844e-06
2.04914e-06
2.04965e-06
2.04996e-06
2.05008e-06
2.05e-06
2.04973e-06
2.04926e-06
2.0486e-06
2.04773e-06
2.04667e-06
2.04547e-06
2.04434e-06
2.0454e-06
2.04648e-06
2.04753e-06
2.04854e-06
2.04942e-06
2.05011e-06
2.05061e-06
2.05092e-06
2.05103e-06
2.05096e-06
2.05069e-06
2.05024e-06
2.04959e-06
2.04873e-06
2.04769e-06
2.04653e-06
2.0454e-06
2.04635e-06
2.04742e-06
2.04844e-06
2.04942e-06
2.05029e-06
2.05097e-06
2.05146e-06
2.05176e-06
2.05188e-06
2.0518e-06
2.05154e-06
2.05109e-06
2.05045e-06
2.04961e-06
2.04859e-06
2.04746e-06
2.04635e-06
2.04706e-06
2.04813e-06
2.04914e-06
2.05011e-06
2.05097e-06
2.05164e-06
2.05213e-06
2.05243e-06
2.05254e-06
2.05247e-06
2.05221e-06
2.05176e-06
2.05113e-06
2.0503e-06
2.04929e-06
2.04818e-06
2.04706e-06
2.04758e-06
2.04865e-06
2.04965e-06
2.05061e-06
2.05146e-06
2.05213e-06
2.05261e-06
2.05291e-06
2.05302e-06
2.05295e-06
2.05269e-06
2.05225e-06
2.05162e-06
2.05079e-06
2.04979e-06
2.04869e-06
2.04758e-06
2.04789e-06
2.04896e-06
2.04996e-06
2.05092e-06
2.05176e-06
2.05243e-06
2.05291e-06
2.0532e-06
2.05332e-06
2.05324e-06
2.05299e-06
2.05254e-06
2.05192e-06
2.0511e-06
2.0501e-06
2.04901e-06
2.04789e-06
2.04802e-06
2.04908e-06
2.05008e-06
2.05103e-06
2.05188e-06
2.05254e-06
2.05302e-06
2.05332e-06
2.05343e-06
2.05336e-06
2.0531e-06
2.05266e-06
2.05203e-06
2.05122e-06
2.05022e-06
2.04913e-06
2.04801e-06
2.04794e-06
2.049e-06
2.05e-06
2.05096e-06
2.0518e-06
2.05247e-06
2.05295e-06
2.05324e-06
2.05336e-06
2.05329e-06
2.05303e-06
2.05259e-06
2.05196e-06
2.05114e-06
2.05015e-06
2.04905e-06
2.04793e-06
2.04767e-06
2.04873e-06
2.04973e-06
2.05069e-06
2.05154e-06
2.05221e-06
2.05269e-06
2.05299e-06
2.0531e-06
2.05303e-06
2.05277e-06
2.05233e-06
2.0517e-06
2.05088e-06
2.04988e-06
2.04878e-06
2.04766e-06
2.04719e-06
2.04826e-06
2.04926e-06
2.05024e-06
2.05109e-06
2.05176e-06
2.05225e-06
2.05254e-06
2.05266e-06
2.05259e-06
2.05233e-06
2.05188e-06
2.05125e-06
2.05042e-06
2.04941e-06
2.0483e-06
2.04718e-06
2.04652e-06
2.04759e-06
2.0486e-06
2.04959e-06
2.05045e-06
2.05113e-06
2.05162e-06
2.05192e-06
2.05203e-06
2.05196e-06
2.0517e-06
2.05125e-06
2.05061e-06
2.04977e-06
2.04876e-06
2.04763e-06
2.04652e-06
2.0456e-06
2.04668e-06
2.04773e-06
2.04873e-06
2.04961e-06
2.0503e-06
2.0508e-06
2.0511e-06
2.05122e-06
2.05114e-06
2.05088e-06
2.05042e-06
2.04977e-06
2.04892e-06
2.04788e-06
2.04673e-06
2.0456e-06
2.04454e-06
2.0456e-06
2.04667e-06
2.04769e-06
2.04859e-06
2.04929e-06
2.04979e-06
2.0501e-06
2.05022e-06
2.05015e-06
2.04988e-06
2.04941e-06
2.04876e-06
2.04788e-06
2.04683e-06
2.04565e-06
2.04453e-06
2.04321e-06
2.04432e-06
2.04547e-06
2.04653e-06
2.04746e-06
2.04818e-06
2.04869e-06
2.04901e-06
2.04913e-06
2.04905e-06
2.04878e-06
2.0483e-06
2.04763e-06
2.04673e-06
2.04565e-06
2.04437e-06
2.04321e-06
2.04189e-06
2.04315e-06
2.04434e-06
2.0454e-06
2.04635e-06
2.04706e-06
2.04758e-06
2.04789e-06
2.04801e-06
2.04793e-06
2.04766e-06
2.04718e-06
2.04652e-06
2.0456e-06
2.04453e-06
2.04321e-06
2.04188e-06
1.98827e-06
1.99039e-06
1.99231e-06
1.99412e-06
1.99566e-06
1.9968e-06
1.99762e-06
1.99811e-06
1.9983e-06
1.99818e-06
1.99775e-06
1.99699e-06
1.99592e-06
1.99446e-06
1.99265e-06
1.99056e-06
1.98828e-06
1.99039e-06
1.99217e-06
1.99404e-06
1.99581e-06
1.99732e-06
1.99844e-06
1.99925e-06
1.99973e-06
1.99992e-06
1.99979e-06
1.99937e-06
1.99863e-06
1.99758e-06
1.99615e-06
1.99437e-06
1.99231e-06
1.99041e-06
1.99231e-06
1.99404e-06
1.99584e-06
1.99754e-06
1.99898e-06
2.00007e-06
2.00085e-06
2.00132e-06
2.0015e-06
2.00138e-06
2.00097e-06
2.00025e-06
1.99924e-06
1.99787e-06
1.99616e-06
1.99417e-06
1.99233e-06
1.99412e-06
1.99581e-06
1.99754e-06
1.99919e-06
2.00058e-06
2.00164e-06
2.00239e-06
2.00284e-06
2.00302e-06
2.0029e-06
2.0025e-06
2.00182e-06
2.00083e-06
1.99951e-06
1.99785e-06
1.99594e-06
1.99414e-06
1.99566e-06
1.99731e-06
1.99898e-06
2.00058e-06
2.00193e-06
2.00296e-06
2.00368e-06
2.00413e-06
2.0043e-06
2.00419e-06
2.0038e-06
2.00313e-06
2.00217e-06
2.0009e-06
1.99928e-06
1.99744e-06
1.99567e-06
1.9968e-06
1.99844e-06
2.00007e-06
2.00164e-06
2.00296e-06
2.00396e-06
2.00467e-06
2.00511e-06
2.00527e-06
2.00517e-06
2.00479e-06
2.00413e-06
2.00319e-06
2.00194e-06
2.00037e-06
1.99857e-06
1.99682e-06
1.99762e-06
1.99924e-06
2.00085e-06
2.00239e-06
2.00368e-06
2.00467e-06
2.00538e-06
2.0058e-06
2.00597e-06
2.00586e-06
2.00549e-06
2.00484e-06
2.00392e-06
2.00269e-06
2.00114e-06
1.99937e-06
1.99764e-06
1.99811e-06
1.99973e-06
2.00131e-06
2.00284e-06
2.00413e-06
2.00511e-06
2.0058e-06
2.00623e-06
2.00639e-06
2.00629e-06
2.00592e-06
2.00528e-06
2.00436e-06
2.00314e-06
2.0016e-06
1.99986e-06
1.99813e-06
1.9983e-06
1.99992e-06
2.00149e-06
2.00301e-06
2.0043e-06
2.00528e-06
2.00597e-06
2.00639e-06
2.00655e-06
2.00645e-06
2.00608e-06
2.00544e-06
2.00453e-06
2.00331e-06
2.00178e-06
2.00005e-06
1.99832e-06
1.99818e-06
1.99979e-06
2.00138e-06
2.0029e-06
2.00419e-06
2.00517e-06
2.00586e-06
2.00629e-06
2.00645e-06
2.00634e-06
2.00597e-06
2.00533e-06
2.00442e-06
2.0032e-06
2.00166e-06
1.99992e-06
1.9982e-06
1.99775e-06
1.99937e-06
2.00097e-06
2.0025e-06
2.0038e-06
2.00479e-06
2.00549e-06
2.00592e-06
2.00608e-06
2.00597e-06
2.0056e-06
2.00495e-06
2.00403e-06
2.0028e-06
2.00126e-06
1.9995e-06
1.99776e-06
1.99699e-06
1.99863e-06
2.00025e-06
2.00181e-06
2.00313e-06
2.00413e-06
2.00484e-06
2.00528e-06
2.00544e-06
2.00533e-06
2.00495e-06
2.0043e-06
2.00337e-06
2.00212e-06
2.00055e-06
1.99876e-06
1.99701e-06
1.99592e-06
1.99758e-06
1.99924e-06
2.00083e-06
2.00217e-06
2.00319e-06
2.00392e-06
2.00436e-06
2.00453e-06
2.00442e-06
2.00403e-06
2.00337e-06
2.00241e-06
2.00114e-06
1.99954e-06
1.99771e-06
1.99594e-06
1.99446e-06
1.99615e-06
1.99787e-06
1.99951e-06
2.0009e-06
2.00195e-06
2.00269e-06
2.00314e-06
2.00331e-06
2.0032e-06
2.00281e-06
2.00212e-06
2.00114e-06
1.99983e-06
1.99818e-06
1.99628e-06
1.99448e-06
1.99265e-06
1.99437e-06
1.99616e-06
1.99785e-06
1.99929e-06
2.00037e-06
2.00114e-06
2.0016e-06
2.00178e-06
2.00167e-06
2.00126e-06
2.00055e-06
1.99954e-06
1.99818e-06
1.99648e-06
1.99451e-06
1.99266e-06
1.99056e-06
1.99231e-06
1.99417e-06
1.99594e-06
1.99745e-06
1.99857e-06
1.99937e-06
1.99986e-06
2.00005e-06
1.99992e-06
1.9995e-06
1.99876e-06
1.99771e-06
1.99628e-06
1.99451e-06
1.99246e-06
1.99057e-06
1.98828e-06
1.99041e-06
1.99233e-06
1.99414e-06
1.99568e-06
1.99682e-06
1.99764e-06
1.99813e-06
1.99832e-06
1.9982e-06
1.99776e-06
1.99701e-06
1.99594e-06
1.99448e-06
1.99266e-06
1.99057e-06
1.98829e-06
1.9361e-06
1.93854e-06
1.9407e-06
1.94282e-06
1.94459e-06
1.94593e-06
1.94689e-06
1.94747e-06
1.94769e-06
1.94754e-06
1.94703e-06
1.94615e-06
1.9449e-06
1.94321e-06
1.94107e-06
1.93873e-06
1.93611e-06
1.93854e-06
1.94057e-06
1.9427e-06
1.94477e-06
1.94653e-06
1.94786e-06
1.94881e-06
1.94938e-06
1.94961e-06
1.94946e-06
1.94895e-06
1.94808e-06
1.94683e-06
1.94516e-06
1.94307e-06
1.94073e-06
1.93856e-06
1.9407e-06
1.9427e-06
1.94481e-06
1.94681e-06
1.9485e-06
1.9498e-06
1.95072e-06
1.95128e-06
1.95149e-06
1.95135e-06
1.95086e-06
1.95001e-06
1.9488e-06
1.94719e-06
1.94517e-06
1.94285e-06
1.94071e-06
1.94282e-06
1.94477e-06
1.94681e-06
1.94875e-06
1.9504e-06
1.95166e-06
1.95255e-06
1.9531e-06
1.95331e-06
1.95317e-06
1.95269e-06
1.95187e-06
1.95069e-06
1.94912e-06
1.94716e-06
1.94492e-06
1.94283e-06
1.94459e-06
1.94653e-06
1.9485e-06
1.9504e-06
1.95201e-06
1.95323e-06
1.95411e-06
1.95464e-06
1.95484e-06
1.95471e-06
1.95424e-06
1.95344e-06
1.95229e-06
1.95076e-06
1.94885e-06
1.94667e-06
1.94461e-06
1.94593e-06
1.94786e-06
1.9498e-06
1.95166e-06
1.95323e-06
1.95444e-06
1.9553e-06
1.95582e-06
1.95602e-06
1.95589e-06
1.95543e-06
1.95464e-06
1.95351e-06
1.95202e-06
1.95014e-06
1.948e-06
1.94594e-06
1.94689e-06
1.94881e-06
1.95072e-06
1.95255e-06
1.95411e-06
1.9553e-06
1.95615e-06
1.95666e-06
1.95686e-06
1.95673e-06
1.95628e-06
1.9555e-06
1.95438e-06
1.95291e-06
1.95105e-06
1.94895e-06
1.9469e-06
1.94747e-06
1.94938e-06
1.95128e-06
1.9531e-06
1.95464e-06
1.95582e-06
1.95666e-06
1.95718e-06
1.95737e-06
1.95725e-06
1.9568e-06
1.95602e-06
1.95492e-06
1.95345e-06
1.95161e-06
1.94953e-06
1.94748e-06
1.94769e-06
1.94961e-06
1.95149e-06
1.95331e-06
1.95484e-06
1.95602e-06
1.95686e-06
1.95737e-06
1.95757e-06
1.95744e-06
1.95699e-06
1.95622e-06
1.95512e-06
1.95366e-06
1.95183e-06
1.94975e-06
1.94771e-06
1.94754e-06
1.94946e-06
1.95135e-06
1.95317e-06
1.95471e-06
1.95589e-06
1.95673e-06
1.95725e-06
1.95744e-06
1.95731e-06
1.95686e-06
1.95609e-06
1.95499e-06
1.95352e-06
1.95169e-06
1.94961e-06
1.94756e-06
1.94703e-06
1.94895e-06
1.95086e-06
1.95269e-06
1.95424e-06
1.95543e-06
1.95628e-06
1.9568e-06
1.95699e-06
1.95686e-06
1.95641e-06
1.95563e-06
1.95452e-06
1.95305e-06
1.9512e-06
1.9491e-06
1.94705e-06
1.94615e-06
1.94808e-06
1.95001e-06
1.95187e-06
1.95344e-06
1.95464e-06
1.9555e-06
1.95602e-06
1.95622e-06
1.95609e-06
1.95563e-06
1.95485e-06
1.95372e-06
1.95223e-06
1.95035e-06
1.94822e-06
1.94616e-06
1.9449e-06
1.94683e-06
1.9488e-06
1.95069e-06
1.95229e-06
1.95352e-06
1.95438e-06
1.95492e-06
1.95512e-06
1.95499e-06
1.95452e-06
1.95372e-06
1.95257e-06
1.95105e-06
1.94915e-06
1.94698e-06
1.94491e-06
1.94321e-06
1.94516e-06
1.94719e-06
1.94912e-06
1.95076e-06
1.95202e-06
1.95291e-06
1.95345e-06
1.95366e-06
1.95352e-06
1.95305e-06
1.95223e-06
1.95105e-06
1.94949e-06
1.94754e-06
1.94531e-06
1.94322e-06
1.94107e-06
1.94308e-06
1.94517e-06
1.94717e-06
1.94885e-06
1.95014e-06
1.95106e-06
1.95161e-06
1.95183e-06
1.95169e-06
1.9512e-06
1.95035e-06
1.94915e-06
1.94754e-06
1.94554e-06
1.94323e-06
1.94108e-06
1.93873e-06
1.94073e-06
1.94285e-06
1.94492e-06
1.94667e-06
1.948e-06
1.94895e-06
1.94953e-06
1.94975e-06
1.94961e-06
1.9491e-06
1.94822e-06
1.94698e-06
1.94531e-06
1.94323e-06
1.9409e-06
1.93874e-06
1.93611e-06
1.93856e-06
1.94071e-06
1.94283e-06
1.94461e-06
1.94594e-06
1.9469e-06
1.94748e-06
1.94771e-06
1.94756e-06
1.94705e-06
1.94616e-06
1.94491e-06
1.94322e-06
1.94108e-06
1.93874e-06
1.93611e-06
1.888e-06
1.89054e-06
1.89275e-06
1.89499e-06
1.89682e-06
1.89823e-06
1.89924e-06
1.89985e-06
1.90008e-06
1.89992e-06
1.89939e-06
1.89845e-06
1.89713e-06
1.89538e-06
1.89312e-06
1.89072e-06
1.888e-06
1.89054e-06
1.89264e-06
1.89486e-06
1.89703e-06
1.89887e-06
1.90028e-06
1.90129e-06
1.9019e-06
1.90214e-06
1.90198e-06
1.90144e-06
1.90051e-06
1.89919e-06
1.89743e-06
1.89522e-06
1.8928e-06
1.89054e-06
1.89275e-06
1.89486e-06
1.89707e-06
1.89918e-06
1.90098e-06
1.90235e-06
1.90333e-06
1.90393e-06
1.90415e-06
1.904e-06
1.90348e-06
1.90257e-06
1.90128e-06
1.89957e-06
1.89743e-06
1.895e-06
1.89275e-06
1.89499e-06
1.89703e-06
1.89918e-06
1.90124e-06
1.90299e-06
1.90434e-06
1.9053e-06
1.90588e-06
1.9061e-06
1.90596e-06
1.90544e-06
1.90455e-06
1.90329e-06
1.90162e-06
1.89954e-06
1.89717e-06
1.89498e-06
1.89682e-06
1.89887e-06
1.90098e-06
1.90299e-06
1.90471e-06
1.90603e-06
1.90697e-06
1.90754e-06
1.90776e-06
1.90762e-06
1.90711e-06
1.90624e-06
1.905e-06
1.90336e-06
1.90132e-06
1.899e-06
1.89682e-06
1.89823e-06
1.90028e-06
1.90235e-06
1.90434e-06
1.90603e-06
1.90733e-06
1.90825e-06
1.90882e-06
1.90904e-06
1.90889e-06
1.90839e-06
1.90754e-06
1.90632e-06
1.9047e-06
1.90269e-06
1.90041e-06
1.89822e-06
1.89924e-06
1.90129e-06
1.90333e-06
1.9053e-06
1.90697e-06
1.90825e-06
1.90917e-06
1.90973e-06
1.90994e-06
1.9098e-06
1.90931e-06
1.90846e-06
1.90725e-06
1.90566e-06
1.90367e-06
1.90142e-06
1.89923e-06
1.89985e-06
1.9019e-06
1.90393e-06
1.90588e-06
1.90754e-06
1.90882e-06
1.90973e-06
1.91029e-06
1.9105e-06
1.91036e-06
1.90987e-06
1.90903e-06
1.90783e-06
1.90624e-06
1.90426e-06
1.90203e-06
1.89984e-06
1.90008e-06
1.90214e-06
1.90415e-06
1.9061e-06
1.90776e-06
1.90904e-06
1.90994e-06
1.9105e-06
1.91071e-06
1.91057e-06
1.91008e-06
1.90924e-06
1.90804e-06
1.90646e-06
1.90449e-06
1.90227e-06
1.90008e-06
1.89992e-06
1.90198e-06
1.904e-06
1.90596e-06
1.90762e-06
1.90889e-06
1.9098e-06
1.91036e-06
1.91057e-06
1.91043e-06
1.90994e-06
1.9091e-06
1.9079e-06
1.90632e-06
1.90434e-06
1.90211e-06
1.89992e-06
1.89939e-06
1.90144e-06
1.90348e-06
1.90544e-06
1.90711e-06
1.90839e-06
1.90931e-06
1.90987e-06
1.91008e-06
1.90994e-06
1.90945e-06
1.9086e-06
1.9074e-06
1.9058e-06
1.90381e-06
1.90157e-06
1.89938e-06
1.89845e-06
1.90051e-06
1.90257e-06
1.90455e-06
1.90624e-06
1.90754e-06
1.90846e-06
1.90903e-06
1.90924e-06
1.9091e-06
1.9086e-06
1.90775e-06
1.90653e-06
1.90492e-06
1.90291e-06
1.90064e-06
1.89845e-06
1.89713e-06
1.89919e-06
1.90128e-06
1.90329e-06
1.905e-06
1.90632e-06
1.90725e-06
1.90783e-06
1.90804e-06
1.9079e-06
1.9074e-06
1.90653e-06
1.90529e-06
1.90366e-06
1.90163e-06
1.89932e-06
1.89713e-06
1.89538e-06
1.89743e-06
1.89957e-06
1.90162e-06
1.90337e-06
1.90471e-06
1.90566e-06
1.90624e-06
1.90646e-06
1.90632e-06
1.9058e-06
1.90492e-06
1.90366e-06
1.902e-06
1.89992e-06
1.89756e-06
1.89538e-06
1.89312e-06
1.89522e-06
1.89743e-06
1.89954e-06
1.90133e-06
1.90269e-06
1.90367e-06
1.90426e-06
1.90449e-06
1.90434e-06
1.90381e-06
1.90291e-06
1.90163e-06
1.89992e-06
1.89779e-06
1.89536e-06
1.89311e-06
1.89072e-06
1.8928e-06
1.895e-06
1.89717e-06
1.89901e-06
1.90041e-06
1.90142e-06
1.90203e-06
1.90227e-06
1.90211e-06
1.90157e-06
1.90064e-06
1.89932e-06
1.89756e-06
1.89536e-06
1.89296e-06
1.89072e-06
1.888e-06
1.89054e-06
1.89275e-06
1.89498e-06
1.89682e-06
1.89823e-06
1.89923e-06
1.89984e-06
1.90008e-06
1.89992e-06
1.89938e-06
1.89845e-06
1.89713e-06
1.89538e-06
1.89311e-06
1.89072e-06
1.88799e-06
1.84376e-06
1.84622e-06
1.84837e-06
1.85059e-06
1.85239e-06
1.85379e-06
1.85479e-06
1.8554e-06
1.85563e-06
1.85548e-06
1.85494e-06
1.85401e-06
1.85269e-06
1.85098e-06
1.84872e-06
1.84639e-06
1.84375e-06
1.84622e-06
1.84828e-06
1.85044e-06
1.8526e-06
1.85443e-06
1.85584e-06
1.85685e-06
1.85746e-06
1.8577e-06
1.85754e-06
1.857e-06
1.85606e-06
1.85474e-06
1.853e-06
1.8508e-06
1.84843e-06
1.84621e-06
1.84837e-06
1.85044e-06
1.85263e-06
1.85474e-06
1.85654e-06
1.85792e-06
1.85891e-06
1.85951e-06
1.85974e-06
1.85958e-06
1.85905e-06
1.85814e-06
1.85684e-06
1.85513e-06
1.85299e-06
1.85058e-06
1.84836e-06
1.85059e-06
1.8526e-06
1.85474e-06
1.8568e-06
1.85857e-06
1.85993e-06
1.8609e-06
1.86149e-06
1.86172e-06
1.86157e-06
1.86104e-06
1.86014e-06
1.85887e-06
1.85718e-06
1.8551e-06
1.85273e-06
1.85058e-06
1.85239e-06
1.85443e-06
1.85654e-06
1.85857e-06
1.86031e-06
1.86164e-06
1.8626e-06
1.86318e-06
1.86341e-06
1.86326e-06
1.86274e-06
1.86186e-06
1.8606e-06
1.85894e-06
1.85688e-06
1.85455e-06
1.85238e-06
1.85379e-06
1.85584e-06
1.85792e-06
1.85993e-06
1.86164e-06
1.86297e-06
1.86391e-06
1.86449e-06
1.86471e-06
1.86456e-06
1.86405e-06
1.86318e-06
1.86194e-06
1.8603e-06
1.85826e-06
1.85596e-06
1.85378e-06
1.85479e-06
1.85685e-06
1.8589e-06
1.8609e-06
1.8626e-06
1.86391e-06
1.86485e-06
1.86542e-06
1.86564e-06
1.8655e-06
1.86499e-06
1.86412e-06
1.86289e-06
1.86126e-06
1.85924e-06
1.85697e-06
1.85478e-06
1.8554e-06
1.85746e-06
1.85951e-06
1.86149e-06
1.86318e-06
1.86449e-06
1.86542e-06
1.86599e-06
1.86621e-06
1.86607e-06
1.86556e-06
1.8647e-06
1.86347e-06
1.86185e-06
1.85984e-06
1.85759e-06
1.85539e-06
1.85563e-06
1.8577e-06
1.85974e-06
1.86172e-06
1.86341e-06
1.86471e-06
1.86564e-06
1.86621e-06
1.86643e-06
1.86628e-06
1.86578e-06
1.86492e-06
1.86369e-06
1.86208e-06
1.86007e-06
1.85782e-06
1.85562e-06
1.85548e-06
1.85754e-06
1.85958e-06
1.86156e-06
1.86326e-06
1.86456e-06
1.8655e-06
1.86607e-06
1.86628e-06
1.86614e-06
1.86563e-06
1.86477e-06
1.86354e-06
1.86193e-06
1.85992e-06
1.85766e-06
1.85547e-06
1.85494e-06
1.857e-06
1.85905e-06
1.86104e-06
1.86274e-06
1.86405e-06
1.86499e-06
1.86556e-06
1.86578e-06
1.86563e-06
1.86513e-06
1.86426e-06
1.86303e-06
1.86141e-06
1.85939e-06
1.85712e-06
1.85493e-06
1.85401e-06
1.85606e-06
1.85814e-06
1.86014e-06
1.86186e-06
1.86318e-06
1.86412e-06
1.8647e-06
1.86492e-06
1.86477e-06
1.86426e-06
1.86339e-06
1.86215e-06
1.86051e-06
1.85848e-06
1.85619e-06
1.854e-06
1.85269e-06
1.85474e-06
1.85684e-06
1.85887e-06
1.8606e-06
1.86194e-06
1.86289e-06
1.86347e-06
1.86369e-06
1.86354e-06
1.86303e-06
1.86215e-06
1.86089e-06
1.85924e-06
1.85719e-06
1.85486e-06
1.85269e-06
1.85098e-06
1.853e-06
1.85513e-06
1.85718e-06
1.85894e-06
1.8603e-06
1.86126e-06
1.86186e-06
1.86208e-06
1.86193e-06
1.86141e-06
1.86051e-06
1.85924e-06
1.85756e-06
1.85548e-06
1.85313e-06
1.85097e-06
1.84872e-06
1.8508e-06
1.85299e-06
1.8551e-06
1.85689e-06
1.85826e-06
1.85924e-06
1.85984e-06
1.86007e-06
1.85992e-06
1.85939e-06
1.85848e-06
1.85719e-06
1.85548e-06
1.85335e-06
1.85093e-06
1.84871e-06
1.84639e-06
1.84843e-06
1.85058e-06
1.85273e-06
1.85456e-06
1.85597e-06
1.85697e-06
1.85759e-06
1.85782e-06
1.85767e-06
1.85712e-06
1.85619e-06
1.85486e-06
1.85313e-06
1.85093e-06
1.84858e-06
1.84638e-06
1.84375e-06
1.84621e-06
1.84836e-06
1.85058e-06
1.85238e-06
1.85378e-06
1.85478e-06
1.85539e-06
1.85562e-06
1.85547e-06
1.85493e-06
1.854e-06
1.85269e-06
1.85097e-06
1.84871e-06
1.84638e-06
1.84374e-06
1.80275e-06
1.80503e-06
1.80703e-06
1.80912e-06
1.81081e-06
1.81213e-06
1.81308e-06
1.81366e-06
1.81388e-06
1.81373e-06
1.81322e-06
1.81234e-06
1.81109e-06
1.80949e-06
1.80735e-06
1.80519e-06
1.80275e-06
1.80503e-06
1.80695e-06
1.80897e-06
1.81101e-06
1.81273e-06
1.81408e-06
1.81504e-06
1.81563e-06
1.81585e-06
1.8157e-06
1.81518e-06
1.81429e-06
1.81302e-06
1.81138e-06
1.8093e-06
1.80709e-06
1.80502e-06
1.80703e-06
1.80897e-06
1.81104e-06
1.81304e-06
1.81475e-06
1.81607e-06
1.81701e-06
1.81759e-06
1.81781e-06
1.81767e-06
1.81715e-06
1.81628e-06
1.81503e-06
1.81341e-06
1.81137e-06
1.8091e-06
1.80702e-06
1.80912e-06
1.81101e-06
1.81304e-06
1.815e-06
1.81669e-06
1.818e-06
1.81893e-06
1.81951e-06
1.81973e-06
1.81958e-06
1.81907e-06
1.81821e-06
1.81698e-06
1.81536e-06
1.81337e-06
1.81113e-06
1.80911e-06
1.81081e-06
1.81273e-06
1.81475e-06
1.81669e-06
1.81836e-06
1.81966e-06
1.82058e-06
1.82115e-06
1.82137e-06
1.82122e-06
1.82072e-06
1.81986e-06
1.81865e-06
1.81705e-06
1.81508e-06
1.81285e-06
1.8108e-06
1.81213e-06
1.81408e-06
1.81607e-06
1.818e-06
1.81966e-06
1.82094e-06
1.82186e-06
1.82243e-06
1.82264e-06
1.8225e-06
1.822e-06
1.82115e-06
1.81994e-06
1.81835e-06
1.8164e-06
1.8142e-06
1.81213e-06
1.81308e-06
1.81504e-06
1.81701e-06
1.81893e-06
1.82058e-06
1.82186e-06
1.82277e-06
1.82333e-06
1.82355e-06
1.82341e-06
1.82291e-06
1.82206e-06
1.82086e-06
1.81929e-06
1.81734e-06
1.81516e-06
1.81307e-06
1.81366e-06
1.81563e-06
1.81759e-06
1.81951e-06
1.82115e-06
1.82243e-06
1.82333e-06
1.82389e-06
1.8241e-06
1.82396e-06
1.82347e-06
1.82263e-06
1.82143e-06
1.81986e-06
1.81792e-06
1.81575e-06
1.81365e-06
1.81388e-06
1.81585e-06
1.81781e-06
1.81973e-06
1.82137e-06
1.82264e-06
1.82355e-06
1.8241e-06
1.82432e-06
1.82417e-06
1.82368e-06
1.82284e-06
1.82165e-06
1.82008e-06
1.81814e-06
1.81597e-06
1.81387e-06
1.81373e-06
1.8157e-06
1.81766e-06
1.81958e-06
1.82122e-06
1.8225e-06
1.82341e-06
1.82396e-06
1.82417e-06
1.82403e-06
1.82354e-06
1.8227e-06
1.8215e-06
1.81993e-06
1.81799e-06
1.81582e-06
1.81372e-06
1.81322e-06
1.81518e-06
1.81715e-06
1.81907e-06
1.82072e-06
1.822e-06
1.82291e-06
1.82347e-06
1.82368e-06
1.82354e-06
1.82305e-06
1.8222e-06
1.821e-06
1.81943e-06
1.81748e-06
1.8153e-06
1.81321e-06
1.81234e-06
1.81429e-06
1.81628e-06
1.81821e-06
1.81986e-06
1.82115e-06
1.82206e-06
1.82263e-06
1.82284e-06
1.8227e-06
1.8222e-06
1.82135e-06
1.82014e-06
1.81856e-06
1.8166e-06
1.81441e-06
1.81234e-06
1.81109e-06
1.81302e-06
1.81503e-06
1.81698e-06
1.81865e-06
1.81994e-06
1.82086e-06
1.82143e-06
1.82165e-06
1.8215e-06
1.821e-06
1.82015e-06
1.81893e-06
1.81733e-06
1.81536e-06
1.81314e-06
1.81108e-06
1.80949e-06
1.81138e-06
1.81341e-06
1.81536e-06
1.81705e-06
1.81835e-06
1.81929e-06
1.81986e-06
1.82008e-06
1.81993e-06
1.81943e-06
1.81856e-06
1.81733e-06
1.81572e-06
1.81374e-06
1.8115e-06
1.80948e-06
1.80735e-06
1.8093e-06
1.81137e-06
1.81337e-06
1.81508e-06
1.8164e-06
1.81734e-06
1.81792e-06
1.81814e-06
1.81799e-06
1.81748e-06
1.81661e-06
1.81537e-06
1.81374e-06
1.81171e-06
1.80943e-06
1.80734e-06
1.80519e-06
1.80709e-06
1.8091e-06
1.81113e-06
1.81285e-06
1.8142e-06
1.81516e-06
1.81575e-06
1.81597e-06
1.81582e-06
1.8153e-06
1.81441e-06
1.81315e-06
1.81151e-06
1.80943e-06
1.80723e-06
1.80518e-06
1.80275e-06
1.80502e-06
1.80702e-06
1.80911e-06
1.8108e-06
1.81213e-06
1.81307e-06
1.81365e-06
1.81387e-06
1.81373e-06
1.81321e-06
1.81234e-06
1.81108e-06
1.80948e-06
1.80734e-06
1.80518e-06
1.80274e-06
1.76458e-06
1.76662e-06
1.76843e-06
1.77034e-06
1.77187e-06
1.7731e-06
1.77396e-06
1.7745e-06
1.7747e-06
1.77456e-06
1.77409e-06
1.77329e-06
1.77213e-06
1.77068e-06
1.76872e-06
1.76677e-06
1.76457e-06
1.76662e-06
1.76837e-06
1.7702e-06
1.77207e-06
1.77364e-06
1.77488e-06
1.77577e-06
1.77631e-06
1.77652e-06
1.77638e-06
1.7759e-06
1.77508e-06
1.77391e-06
1.77241e-06
1.77049e-06
1.7685e-06
1.76662e-06
1.76843e-06
1.7702e-06
1.77209e-06
1.77393e-06
1.7755e-06
1.77672e-06
1.7776e-06
1.77813e-06
1.77834e-06
1.7782e-06
1.77773e-06
1.77691e-06
1.77576e-06
1.77426e-06
1.77239e-06
1.77031e-06
1.76842e-06
1.77034e-06
1.77207e-06
1.77393e-06
1.77574e-06
1.7773e-06
1.77851e-06
1.77938e-06
1.77992e-06
1.78012e-06
1.77999e-06
1.77951e-06
1.7787e-06
1.77756e-06
1.77607e-06
1.77423e-06
1.77218e-06
1.77033e-06
1.77187e-06
1.77364e-06
1.7755e-06
1.7773e-06
1.77885e-06
1.78006e-06
1.78092e-06
1.78146e-06
1.78166e-06
1.78152e-06
1.78105e-06
1.78025e-06
1.77911e-06
1.77763e-06
1.7758e-06
1.77375e-06
1.77186e-06
1.7731e-06
1.77488e-06
1.77672e-06
1.77851e-06
1.78006e-06
1.78126e-06
1.78212e-06
1.78265e-06
1.78285e-06
1.78272e-06
1.78225e-06
1.78145e-06
1.78032e-06
1.77884e-06
1.77702e-06
1.77499e-06
1.77309e-06
1.77396e-06
1.77577e-06
1.7776e-06
1.77938e-06
1.78092e-06
1.78212e-06
1.78298e-06
1.78351e-06
1.78371e-06
1.78357e-06
1.78311e-06
1.78231e-06
1.78119e-06
1.77971e-06
1.7779e-06
1.77588e-06
1.77395e-06
1.7745e-06
1.77631e-06
1.77813e-06
1.77992e-06
1.78146e-06
1.78265e-06
1.78351e-06
1.78403e-06
1.78423e-06
1.7841e-06
1.78363e-06
1.78284e-06
1.78172e-06
1.78025e-06
1.77843e-06
1.77642e-06
1.77449e-06
1.7747e-06
1.77652e-06
1.77834e-06
1.78012e-06
1.78166e-06
1.78285e-06
1.78371e-06
1.78423e-06
1.78443e-06
1.7843e-06
1.78383e-06
1.78304e-06
1.78192e-06
1.78045e-06
1.77864e-06
1.77663e-06
1.77469e-06
1.77456e-06
1.77638e-06
1.7782e-06