/*--------------------------------*- C++ -*----------------------------------*\
  =========                 |
  \\      /  F ield         | OpenFOAM: The Open Source CFD Toolbox
   \\    /   O peration     | Website:  https://openfoam.org
    \\  /    A nd           | Version:  6
     \\/     M anipulation  |
\*---------------------------------------------------------------------------*/
FoamFile
{
    version     2.0;
    format      ascii;
    class       volScalarField;
    location    "0";
    object      P_rec;
}
// * * * * * * * * * * * * * * * * * * * * * * * * * * * * * * * * * * * * * //

dimensions      [0 2 -2 0 0 0 0];

internalField   nonuniform List<scalar> 
13046
(
1.12243
1.07083
1.08553
1.13363
1.10565
1.07189
1.11846
1.06748
1.10306
0.816978
0.505905
1.03767
1.12146
1.01084
1.07646
0.897808
1.01972
0.583174
1.13155
1.09556
1.11488
0.884708
1.02622
0.572859
1.12592
1.09887
1.09191
1.10475
1.00834
1.06968
1.13048
1.04778
1.07477
1.1315
1.1073
1.09913
1.12892
1.11391
1.10753
1.11346
1.05523
1.0542
1.11722
1.12873
1.11757
1.12558
1.11683
1.10684
1.11413
1.05967
1.08749
1.00288
1.09795
1.01046
1.00236
0.999547
1.09795
0.802467
1.0431
1.01172
1.0621
0.937939
1.07757
1.04248
0.71065
0.957707
1.05516
0.821623
1.0058
1.06923
0.849974
1.00782
0.758054
1.02684
1.01019
1.13072
1.09968
1.1022
1.0163
0.996343
0.725344
1.12385
1.0872
1.09115
1.03807
0.664791
0.924988
0.929581
1.05792
0.732425
1.06281
0.866664
0.715974
1.05986
1.0422
0.893321
0.865005
1.05066
1.05356
1.06156
0.933497
0.753741
1.13013
1.11852
1.09791
1.10706
1.04113
1.01963
1.10389
1.03591
1.0396
0.665188
1.03769
0.337524
1.1245
1.03435
1.07751
1.03938
1.05675
0.835764
1.0371
0.879548
1.04099
0.786843
0.460968
1.03564
1.09541
0.940494
1.06263
1.11394
1.05628
1.04566
1.06484
0.889746
0.757232
1.01039
0.814256
1.05508
1.12529
1.02844
1.0667
1.09243
1.03007
1.09272
1.09723
1.02107
1.04237
1.10708
1.06276
1.03913
1.05629
0.907997
1.07428
1.11673
1.09187
1.05733
0.96346
1.00304
0.943603
0.999892
1.08979
1.08682
1.08878
1.00699
1.09688
0.804993
1.04203
0.51957
0.716409
1.03671
0.378051
0.999928
0.783469
1.04973
1.11113
0.990238
1.03844
1.0912
1.10132
1.02061
1.04834
0.576121
0.82965
1.11175
1.01361
1.03729
1.11413
1.0772
1.04312
1.1008
1.04089
1.09507
0.9901
1.0814
1.10085
0.968983
1.06345
0.912899
1.0504
0.679944
1.06552
0.926855
0.776035
0.871429
0.695265
1.06068
0.982933
0.966524
1.0884
1.10819
1.00637
1.00755
0.727299
0.654822
0.86133
1.05753
1.12508
1.11537
1.10045
1.10981
1.02205
1.06458
1.0667
0.911897
0.780617
1.09983
0.999754
1.08646
1.04295
0.441254
0.727564
1.08753
0.968649
0.969062
0.904236
0.736926
1.06233
1.03817
0.976035
1.09427
1.08465
0.941589
1.05958
0.847857
0.927919
1.06958
0.979795
0.918358
1.08025
1.04589
0.429802
0.696719
1.11223
1.03594
1.01987
0.688749
1.02951
0.288844
1.12204
1.12317
1.08858
1.05533
1.05621
0.97398
0.990349
1.09604
1.08651
1.0097
0.976678
0.687669
1.09693
0.965986
1.05212
0.9754
0.888226
1.07776
1.01946
0.820578
1.04455
1.12116
1.11323
1.12566
1.02372
0.94986
1.08732
1.09749
0.948041
1.04719
1.10199
1.09931
1.11198
1.02448
0.998172
1.02051
0.927518
1.08266
0.992838
1.04326
0.79113
1.11762
1.04172
1.04307
1.08911
0.98167
0.950768
1.05537
0.86255
1.02873
1.10017
1.00856
0.999956
1.03674
1.03234
0.830682
1.02626
0.817071
1.03154
1.04546
0.603369
0.854065
1.06563
0.906081
1.04267
0.224248
1.03745
0.569684
1.11321
1.11474
1.05556
1.07692
0.962793
1.07863
1.05073
0.941801
0.721814
0.987029
0.980758
1.09473
0.819636
0.923605
1.06832
1.03092
1.08546
1.06286
0.947151
1.06906
1.02151
1.09453
0.930403
1.02107
0.626961
0.988384
0.940441
1.08984
1.05016
0.921736
1.06285
1.08088
1.01588
1.0971
1.03885
1.00988
1.10295
1.12854
1.06287
1.09416
1.08543
0.984879
0.962118
0.89303
0.684001
1.05453
0.822586
0.925316
1.07038
1.07163
1.00712
0.895039
1.01541
1.02963
0.803507
0.767175
1.01438
1.0189
1.03607
0.247302
0.610134
0.71857
1.02786
0.320238
1.04623
0.956515
1.08117
1.04779
0.897916
0.642667
1.06342
1.06084
0.879419
0.859842
1.02364
1.02112
1.05712
0.588101
0.787297
0.666687
1.02796
0.242518
1.10716
1.13085
1.10529
0.658161
0.29522
1.03576
1.10987
0.981904
1.03456
0.842816
0.59742
1.05088
0.230545
1.04656
0.484538
1.1166
1.05956
1.07269
1.11727
1.09286
1.11268
0.790945
1.0325
0.45168
1.11019
1.07695
1.11082
1.11254
1.12928
1.11287
1.09048
0.949498
0.961693
1.10051
1.08876
1.12261
1.11516
1.05796
1.11851
1.07964
0.912911
1.0049
1.03028
1.03647
0.568433
0.562294
0.866344
0.856797
0.857243
0.653333
1.05332
1.01017
1.06835
0.863056
1.10738
1.03393
1.02757
0.961418
0.910202
1.07548
0.343886
1.04993
0.55833
1.06087
0.856207
0.686534
0.74083
1.03843
0.422366
1.04702
0.193046
0.465403
0.151046
1.04073
0.513144
0.895362
1.01457
1.07241
0.487753
1.05515
0.691299
0.987782
0.800349
1.05702
0.858922
1.01272
0.486294
1.11735
1.08477
1.05102
0.624594
1.05827
0.817689
0.966865
1.07771
0.926839
0.876267
0.976525
1.07744
1.0475
0.0438769
0.352099
0.253676
1.04133
0.546114
1.12504
1.09621
1.06055
0.570978
0.779312
1.05463
1.05676
0.746322
0.558959
0.895457
1.0408
0.637906
1.01732
0.688939
0.964665
1.08932
0.907203
1.00327
0.820589
1.04512
1.02076
1.01303
0.9407
0.610106
1.10629
1.09977
0.988156
0.962364
1.04774
1.0479
1.10873
0.99866
1.04442
1.07494
0.873667
1.02123
0.846536
0.950479
1.07215
0.641944
0.856359
1.05477
1.06799
0.952365
0.815377
0.16768
1.03834
0.55134
1.12851
1.12652
1.07275
1.06272
1.08095
1.06773
1.09484
1.08501
1.02574
0.920645
1.02342
0.952878
0.259999
1.04836
0.4855
0.59118
0.805308
1.05438
1.09752
1.01165
0.987387
0.874441
0.943125
1.07412
1.0159
0.712544
0.980852
0.34278
0.634417
1.04417
0.383811
0.656325
1.04579
1.06655
0.877778
1.03142
1.1193
1.04007
1.05962
0.875862
1.03956
0.596056
0.874045
0.992769
1.0734
1.04217
0.745006
0.979935
1.08921
1.02558
0.961203
1.04424
0.989186
1.09532
1.1131
1.04626
1.04425
1.04237
0.575808
0.848442
1.01895
0.808863
1.0375
1.12415
1.06921
1.075
0.911869
1.00973
0.561704
1.11104
1.03106
1.06401
1.10516
1.04517
1.10849
0.897984
0.996577
1.07826
0.777979
1.0214
0.379573
0.803052
1.01774
0.401736
1.03652
0.732311
0.978462
1.02248
0.988664
1.09092
1.02019
0.323273
0.737502
1.05527
0.759087
0.966238
1.04768
0.166509
0.414992
0.483551
0.104583
1.0377
1.01823
0.635713
0.947976
1.04435
0.496604
0.77275
0.902538
0.924772
1.02951
0.6042
1.03268
0.649876
0.952406
0.767331
1.05813
1.08003
0.891241
0.932616
1.1358
1.08734
1.07425
0.969925
0.805794
1.0663
1.06906
0.979599
0.828256
0.958653
1.00965
0.636429
1.0881
0.895622
1.01943
1.09883
0.959429
1.02729
1.02171
0.88496
1.06926
1.0112
0.872118
1.07054
1.12703
1.06872
1.08933
1.09712
0.947245
1.04628
1.0592
0.638299
0.809677
0.634079
1.04917
0.393895
0.601643
1.05186
0.384357
1.11307
1.05126
1.02702
0.305261
1.0459
0.580051
1.00017
1.03472
0.763261
1.04718
0.311867
0.544227
1.1327
1.11269
1.08186
1.09196
0.972144
1.07001
0.995378
1.02244
1.09565
1.05575
0.517067
0.72803
0.873421
0.994317
1.075
1.01396
0.890093
0.540358
1.07409
0.949577
1.06674
1.13775
1.09487
1.08295
0.524966
0.754365
1.05206
1.04738
0.734027
0.96357
0.765508
0.734378
1.02927
1.03073
0.404811
0.368011
1.07226
0.992272
1.09173
0.91908
1.02801
1.07569
1.1087
1.05872
1.10498
0.44431
0.6747
0.452565
1.04995
0.671224
1.05227
1.0453
0.879458
1.06132
0.74884
0.710865
0.499838
0.461574
1.05034
1.05035
1.0272
0.939667
1.08463
1.09233
0.993208
1.07995
0.83589
1.01808
0.463708
1.08779
0.980939
1.08828
1.11036
1.0362
1.09748
0.784691
1.02297
0.411364
1.07783
0.921386
1.05666
0.934889
0.944656
1.07975
1.09175
0.939877
1.01745
0.780328
1.06467
0.88999
1.04513
0.0814289
0.394085
1.07431
0.969107
1.07618
0.859471
1.02444
0.524369
0.997178
0.923933
1.08976
0.576706
1.03053
0.174991
1.1139
1.10803
1.0458
1.07893
1.04077
1.07034
1.11344
1.05664
1.10986
1.11394
1.11847
1.05371
1.07861
1.06775
1.07803
1.08471
1.00732
1.09168
1.09518
1.00803
1.09311
1.05246
0.414489
0.617842
1.11309
1.01927
1.04677
0.782967
0.523789
1.04725
1.01549
0.997611
0.860438
0.825626
1.06335
1.06007
1.11062
1.04211
1.057
1.07598
0.907351
1.02569
1.0468
0.908227
1.06951
1.1308
1.10325
1.09715
0.991572
0.83017
1.06614
1.12873
1.07607
1.08161
1.04453
0.939845
1.08196
1.07779
0.926853
1.02883
1.12895
1.12771
1.09683
1.09758
1.10101
1.09012
1.12284
1.06368
1.12284
1.09611
1.08102
1.08686
1.10981
1.10907
1.00317
0.994174
1.0566
1.053
1.02286
0.70653
0.976334
1.082
0.961949
0.953229
1.02688
1.03097
0.67004
0.683252
0.952205
0.94998
1.09589
1.00656
0.979725
1.12937
1.11297
1.11124
0.985937
0.807524
1.0624
1.12456
1.06249
1.04367
1.07351
0.912624
1.031
1.01123
1.01599
0.756659
1.02387
0.774572
1.02757
1.02538
0.854679
1.05793
0.614557
0.220425
1.03094
0.993864
0.945072
1.08955
1.08719
1.09077
1.0013
0.927684
1.01231
0.949519
0.967607
0.841842
1.07141
1.07949
0.928974
1.02873
1.09989
1.00388
0.970544
1.0907
1.102
1.01869
1.03375
0.983512
0.97959
1.08829
1.019
0.957583
1.02996
0.872222
1.06375
1.1278
1.07852
1.0918
0.816982
1.02869
0.47748
1.09706
1.00357
0.952623
1.08269
1.07062
0.918596
0.89581
1.03471
1.03952
1.02783
0.522183
0.849388
0.842129
1.02258
0.483935
0.81434
1.02458
0.453451
0.999146
1.02873
0.74998
1.0871
0.95392
1.03556
0.524955
0.681924
0.917686
0.530271
0.848599
0.32049
0.777308
0.627219
0.478696
0.844053
0.841672
0.447896
0.530945
0.833699
0.679522
0.535682
0.567618
0.641637
0.68413
0.801629
0.719176
0.629428
0.864572
1.00866
0.935523
0.6873
0.863723
0.464807
0.739811
0.521987
0.480656
0.776673
0.69683
0.705938
0.519486
0.717378
0.915349
0.858595
0.587805
0.713898
0.600368
1.03123
0.545565
0.834392
0.87618
0.633657
0.641977
0.572245
0.456398
0.546913
0.942978
0.728577
0.538009
0.617543
0.476037
0.938519
0.801025
0.705695
0.563286
0.822706
0.541956
0.555807
0.938222
0.649117
0.706253
0.804898
0.730846
0.981378
0.861112
0.827497
0.424247
0.471024
0.599035
0.82233
0.457076
0.706627
0.671142
0.512172
0.80755
0.894613
0.639966
0.697588
0.462792
0.521907
0.625414
0.817998
0.627637
0.565937
0.670643
0.943091
0.540162
0.827025
0.931607
0.711206
0.53537
0.260258
0.518032
0.577662
0.53361
0.421704
0.757337
0.869134
0.887043
0.986952
0.527365
0.543934
0.461716
0.552328
0.520612
0.913046
0.875806
0.803122
0.506207
0.475957
0.728926
0.848366
0.650842
0.5655
0.402288
0.635771
0.696038
0.949225
0.976296
0.826665
0.701837
0.604371
0.448197
0.963666
0.483202
0.818844
0.413493
0.93489
0.46366
0.487159
0.510356
0.893469
0.69547
0.37361
0.535899
0.784061
0.532239
0.825519
0.740325
0.557321
0.870255
0.613424
0.51626
0.904931
0.544316
0.653528
0.449688
0.707426
0.583703
0.891543
0.826887
0.642045
0.820529
0.825468
0.916817
0.677736
0.593032
0.55132
0.817834
0.482284
0.713716
0.468026
1.0106
0.637277
0.88323
0.966859
0.722826
0.969456
0.897451
0.918494
0.492439
0.406677
0.447221
0.92008
0.497971
0.475368
0.478522
0.477443
0.650959
0.610202
0.722154
0.965703
0.826023
0.60631
0.812999
0.594131
1.0235
0.452516
0.862603
0.560638
0.391676
0.954645
0.97905
0.55273
0.577405
1.00779
0.745137
0.587814
0.525518
0.823925
0.910032
0.778464
0.535048
0.565194
0.832809
0.693196
0.528869
0.7514
0.486726
0.493839
0.607117
0.854732
0.409576
0.615527
0.870617
0.619627
0.406628
0.636753
0.541172
0.586361
0.769863
0.783233
0.518458
0.472241
0.503824
0.805185
0.777691
0.654249
0.791509
0.621254
0.49904
0.756634
0.603385
0.388709
0.785421
0.904183
0.737068
0.938271
0.906924
1.0301
0.536883
0.363191
0.667285
0.639416
0.579454
0.417728
0.752001
0.947576
0.80711
0.75286
0.525534
0.655956
0.803654
0.713438
0.758761
0.546605
0.66147
0.602886
0.474624
0.520465
0.561016
0.541204
0.507689
0.78657
0.698341
0.645165
0.794263
0.539539
0.658113
0.548665
0.639953
0.619095
0.58795
0.746
0.420227
0.360736
0.663722
0.441959
0.415276
0.753192
0.45156
0.414078
0.892875
0.7971
0.529924
0.797493
0.486417
0.779432
0.75029
0.495832
0.540116
0.850392
0.677213
0.809039
0.323595
0.509633
0.893079
0.595255
0.514526
0.337292
0.428794
0.403783
0.436451
0.613838
0.795293
0.500864
0.395785
0.527994
0.581691
1.02486
0.54105
0.820169
0.73288
0.469558
0.607563
0.52187
0.47039
0.773697
0.617187
0.947583
0.776465
0.517195
0.61419
0.730396
1.00569
0.793337
0.917386
0.832185
0.602257
0.727873
0.655329
0.519483
0.427704
0.582072
0.570536
0.768657
0.556615
0.455635
0.536143
0.596059
0.531919
0.560275
0.877237
0.581116
0.56407
0.927543
0.867077
0.518777
0.690645
0.910792
0.574413
0.443802
0.613041
0.505521
0.466694
0.898018
0.534463
0.624406
0.909391
0.419375
0.712357
0.536218
0.72373
0.61753
0.56564
0.283314
0.60893
0.453772
0.605092
0.632961
0.63662
0.798047
0.941473
0.531892
0.681929
0.593423
0.515074
0.384592
0.864234
0.739411
0.610694
0.458569
0.726911
0.446758
0.541653
0.527615
0.515077
0.83312
0.927436
0.595337
0.791946
0.98521
0.873263
0.858518
0.920853
0.580573
0.575802
0.469168
1.00631
0.845273
0.887017
0.565504
0.62546
0.399024
0.806677
0.59232
0.53606
0.886703
0.75786
0.491094
0.604057
0.530602
0.53565
0.538347
0.616527
0.643077
0.489778
0.587085
0.434682
0.60889
0.496872
0.752869
0.669893
0.410645
0.916474
0.934779
0.827918
0.591711
0.720509
0.452341
0.845632
0.718951
0.451875
0.909736
0.39043
0.950434
0.441214
0.650453
0.650503
0.828147
0.827592
0.533323
0.973648
0.545567
0.875284
0.649622
0.756872
0.578651
0.524396
0.569601
0.878115
0.640169
0.999451
0.808985
0.426969
0.540615
0.781072
0.406783
0.596188
0.650208
0.489099
0.948174
0.502239
0.482086
0.843856
0.574321
0.947015
0.98857
0.635755
0.997558
0.951646
0.88832
0.894676
0.741857
0.460065
0.541674
0.626103
0.86862
0.61528
0.392699
0.971078
0.503712
0.661717
0.533014
0.922119
1.01984
0.512794
0.874341
0.73
0.939896
0.60897
0.835481
0.649696
0.968535
0.994403
0.790155
0.537211
0.832457
0.569761
0.68815
0.693695
0.630575
0.737215
0.556441
0.392552
0.472342
0.646678
0.753662
0.695449
0.895575
0.524577
0.590518
0.749088
0.47274
0.931913
0.523663
0.649707
0.90931
0.888234
0.711557
0.981187
0.523419
0.621776
0.833762
0.664058
0.659724
0.650365
0.572135
0.78376
0.808104
0.571913
0.531852
0.716135
0.428229
0.488552
0.939291
0.979536
0.994779
0.63259
0.993517
1.01428
0.954783
0.380179
0.746307
0.739595
0.982988
0.605271
0.530936
0.452791
0.534724
0.368083
0.964345
0.675461
0.68641
0.840374
0.793257
0.594873
0.646202
1.01436
0.957891
0.919693
0.778228
0.605328
0.794266
0.771904
0.606716
0.64616
0.482055
0.53406
0.67839
0.6775
0.573296
0.93647
0.944081
0.3866
0.890876
0.541749
0.53608
0.595086
0.928436
0.631285
0.786628
0.664977
0.9235
0.61908
0.663865
0.986171
0.392745
0.427828
0.522295
0.496712
0.359537
0.225612
0.5067
0.362083
0.684692
0.380462
0.488114
0.677277
0.589557
0.510567
0.581361
0.46743
0.259823
0.950867
0.868831
0.630096
0.45367
0.876796
0.612299
0.529634
0.99198
0.513571
0.984153
0.625094
0.900412
0.629988
0.453584
0.482957
0.689603
0.69561
0.687368
0.457925
0.62481
0.495754
0.494669
0.548144
0.415845
0.473719
0.961575
0.520748
0.815968
0.842584
0.609063
0.852143
0.847674
0.452533
0.233245
0.648691
0.428988
0.367252
0.814186
0.828385
0.6321
0.765762
0.595047
0.985727
0.948068
0.659269
0.582994
0.976495
0.904155
0.758803
0.751832
0.616346
0.992343
0.674218
0.384035
0.925957
0.860617
0.943569
0.703984
0.544376
0.592554
0.831488
0.777741
0.163187
1.03615
0.644873
0.522565
0.712015
0.88891
0.978071
1.00197
0.762545
0.648107
0.849694
0.903366
0.911658
0.811169
0.868468
0.467034
0.539329
0.714151
0.469253
0.456957
0.413316
0.641331
0.852753
0.434324
0.689569
0.541313
0.871049
1.00247
0.675388
0.463551
0.403491
0.827896
0.582978
0.527104
0.402198
0.926777
0.735596
0.755627
0.442909
0.747354
0.525446
0.536885
0.807379
0.85111
0.926947
1.01796
0.50534
0.90082
0.387057
0.923361
0.946012
0.945217
0.846168
0.489693
0.489008
0.640652
0.382854
0.665764
0.414233
0.720952
0.448726
0.88911
0.611906
0.395422
0.887607
0.814744
0.652492
0.661818
0.806968
0.923687
0.734228
0.679377
0.390707
0.866429
0.69322
0.95447
0.362653
0.68192
0.928172
0.823715
0.980516
0.822104
0.625017
0.347605
0.397034
0.666761
0.422462
0.958959
0.39381
0.551245
0.645622
0.532574
0.847496
0.367353
0.916895
0.834775
0.75438
0.392079
0.756905
0.509374
0.583984
0.673476
0.645437
0.623072
0.611629
0.855075
0.498255
0.988456
0.612345
0.652513
0.793381
0.805943
0.959899
0.62512
0.663805
0.510497
0.645067
0.597927
0.958295
0.53372
0.683789
0.615334
0.862915
0.581158
0.703617
0.467312
1.00313
0.379194
0.488402
0.573127
0.869993
0.400371
0.405173
0.478081
0.453658
0.93547
0.671864
0.789788
0.901068
0.767479
0.683426
1.00552
0.666914
0.81033
0.774812
0.686102
0.412823
0.703951
0.681838
0.556421
0.702533
0.492559
0.42728
0.72491
0.5963
0.498652
0.853161
0.646263
0.786494
0.672784
0.942061
0.639093
0.620954
0.772374
0.454221
0.52408
0.617444
0.691761
0.728137
0.7775
0.927856
0.799342
0.869524
0.717453
0.902956
0.964053
0.965799
0.710032
0.669058
0.72851
0.462162
0.975233
0.898814
0.871973
0.698751
0.494699
0.418656
0.731258
0.821675
0.523137
0.866843
0.893109
0.770329
0.538607
0.689238
0.559858
0.525743
0.70229
0.546363
0.755515
0.402898
0.754468
0.637177
0.661211
0.36835
0.720793
0.698199
0.794898
0.602824
0.744916
0.935531
0.943778
0.763985
0.631632
0.871201
0.720133
0.529551
0.526697
0.642032
0.443222
0.923008
0.660264
0.732194
0.834938
0.815457
0.749231
0.487221
0.987508
0.756122
0.542687
0.675094
0.707402
0.871225
0.931773
0.760603
0.752588
0.40393
0.506883
0.668136
0.764161
0.686653
0.766714
0.567457
0.940513
0.741217
0.83914
0.907712
0.729661
0.520525
0.683709
0.972977
0.603674
0.397694
0.679678
0.978946
0.586588
0.646222
0.860279
0.816507
0.877534
0.688598
0.410012
0.766959
0.466145
0.595163
0.88656
0.685594
0.468054
0.522116
0.582917
0.778614
0.582874
0.548728
0.905399
0.550913
1.00743
0.875301
0.45072
0.351858
0.659112
0.81718
0.905319
0.69198
0.668012
0.519813
0.640257
0.636034
1.01673
0.92057
0.826182
0.580821
0.42104
0.927361
0.995689
0.937829
0.867394
0.913836
0.678337
0.46894
0.378718
0.40034
0.955403
0.704525
0.518787
0.600178
0.992905
0.615563
0.540213
0.434645
0.692835
0.519236
0.988203
0.772421
0.815838
0.924711
0.882655
0.653366
0.795105
0.682379
0.790241
0.596579
0.763401
0.560391
0.957532
0.465791
0.59397
0.518041
0.621329
0.933281
0.62185
0.886024
0.894935
0.921376
0.491539
0.678859
0.665037
0.522664
0.945668
0.702584
0.69475
0.7667
0.343549
0.606491
0.940385
0.797562
0.945285
0.388854
0.485871
0.626712
0.965737
0.547881
0.639708
0.51176
0.481292
0.585768
0.949739
0.614323
0.674145
0.441798
0.980028
0.985116
0.351642
0.93886
0.604548
0.494672
0.491723
0.697167
0.429678
0.750355
0.583291
0.594739
0.627873
0.913518
0.690596
0.88016
0.618127
0.478545
0.619511
0.388338
0.420669
0.676463
0.584281
0.708525
0.501271
0.652777
0.89327
0.745343
0.596244
0.450059
0.912753
0.701576
0.645878
1.00595
0.711912
0.589215
0.576493
0.500555
0.975454
0.561723
0.663064
0.778838
0.447669
0.919726
0.477688
0.90149
0.670808
0.845129
0.515599
0.848481
0.661843
0.454146
0.529638
0.668726
0.922866
0.35024
0.526348
0.624967
0.955796
0.988411
0.512985
0.573443
0.743921
0.965052
0.632185
0.934559
0.907577
0.872005
0.836534
0.748694
0.779541
0.771081
0.949346
0.640258
0.693586
0.511471
0.538865
0.634617
0.496609
0.977193
0.469247
0.927103
0.628714
0.965879
0.575069
0.987288
0.844791
0.893889
0.966095
0.935939
1.00186
0.644072
0.918301
0.663465
0.62295
0.524606
0.504176
0.944422
0.471247
0.77733
0.781623
0.655413
0.751278
0.560221
0.930289
0.724062
0.842852
0.373529
0.523839
0.628297
0.986181
0.522539
0.803043
0.545162
0.627684
0.463712
0.635992
0.613278
0.877127
0.954572
0.431684
0.770041
0.625711
0.581738
0.890587
0.519146
0.535091
0.962382
0.400764
0.699401
0.825171
0.933484
0.996192
0.550855
0.541498
0.444468
0.593389
0.525076
0.622389
0.834097
0.599769
0.460878
0.668951
0.678199
0.577636
0.528407
0.622391
0.689867
0.459073
0.863917
0.84732
0.563369
0.847276
0.450126
0.441635
0.523943
0.394118
0.977686
0.609307
0.611259
0.561646
0.886133
0.949413
0.737766
0.827906
0.539875
0.544672
0.676913
0.611885
0.524854
0.946299
0.721519
0.776523
0.975381
0.86262
0.650324
0.969416
0.426978
0.743269
0.73766
0.784504
0.605117
0.943442
0.602315
0.776846
0.673955
0.574091
0.495588
0.549561
0.846493
0.89363
0.921546
0.684898
0.712881
0.947465
0.853737
0.677473
0.70218
0.482221
0.647036
0.882375
0.426507
0.902992
0.616498
0.915707
0.98947
0.952966
0.608292
0.895867
0.904874
0.411766
0.943082
0.556025
0.960227
0.873608
0.629967
0.502414
0.718691
0.649853
0.60171
0.538249
0.859409
0.567013
0.964789
0.487774
0.556551
0.521698
0.484277
0.61288
0.886595
0.981704
0.482643
0.836356
0.704348
0.77927
0.63914
0.737657
0.941101
0.880553
0.621433
0.931804
0.893609
0.985268
0.48077
0.603908
0.53128
0.835612
0.969687
0.898495
0.662737
0.988152
0.667149
0.436341
0.500687
0.347599
0.642314
0.467328
0.978055
1.00939
0.716275
0.994166
0.885659
0.737483
0.981095
0.482745
0.94177
0.645466
0.947337
0.602617
0.491131
0.833021
0.728853
0.961263
0.934859
0.942933
0.507772
0.509495
0.415737
0.896317
0.878037
0.504724
0.671516
0.879206
0.385128
0.574805
0.507287
0.638456
0.76475
0.631738
0.737438
0.818029
0.708617
0.720312
0.854494
0.604402
0.611452
0.772536
0.714513
0.61213
0.918125
0.949062
0.507351
0.874156
0.372955
0.56188
0.919579
0.858877
0.616743
0.951933
0.474263
0.845726
0.617538
0.611175
0.92867
0.607354
0.851153
0.831097
0.799928
1.01148
0.811607
0.448486
0.790196
0.636107
0.860028
1.01318
0.794029
0.663294
0.523681
0.6131
0.930965
0.474765
0.882231
0.515003
0.725754
0.859751
0.846703
0.711247
0.915192
0.986878
0.603825
0.603966
0.720023
0.5014
0.46901
0.742323
0.834696
0.53405
0.448851
0.528172
0.444907
0.844283
0.660175
0.865161
0.547983
0.942124
0.703068
0.891856
0.974308
0.54916
0.937674
0.590405
0.729814
0.675524
0.902242
0.536745
0.632739
0.684913
0.497923
0.612239
0.484642
0.464478
0.374465
0.974794
0.984959
0.532613
0.549595
0.857948
0.425962
0.522626
0.617512
0.827051
0.835182
0.407036
0.374189
0.933903
0.54354
0.758907
0.536332
0.438158
0.503362
0.713583
0.90009
0.754947
0.435147
0.945204
0.89964
0.524069
0.762015
0.60684
0.972813
0.62625
0.635397
0.453643
0.811386
0.942824
0.780868
0.719499
0.537736
0.651663
0.750548
0.981994
1.00006
0.532114
0.99091
0.54678
0.749932
0.746519
0.674794
0.586627
0.904298
0.611118
0.721796
0.520297
0.579981
0.612978
0.49151
0.79685
0.946691
0.525772
0.565863
0.735747
0.595221
0.532292
0.385307
0.581281
0.89998
0.398186
0.609394
0.815971
0.742024
0.659042
0.803489
0.878651
0.515867
0.51778
0.894326
0.65286
0.500269
0.667339
0.89978
0.800558
0.757285
0.538287
0.556113
0.527677
0.983071
0.899481
0.990204
0.652699
0.822786
0.471947
0.693667
0.904109
0.433224
0.446603
0.849568
0.904801
0.421692
0.563009
0.531459
0.500008
0.527519
0.996812
0.627025
0.557723
0.718526
0.523251
0.829411
0.728727
0.463545
0.563094
0.849879
0.650059
0.984761
0.46507
0.575746
0.77087
0.762584
0.683555
0.765841
0.496153
0.993102
0.936734
0.775203
0.906863
0.538247
0.900501
0.806355
0.763753
0.969806
0.42658
0.579848
1.00645
0.809785
0.418595
0.613952
0.874811
1.00057
0.696578
0.856954
0.53509
0.4521
0.511486
0.412991
0.902718
0.550847
0.72285
0.95819
0.543733
0.515618
0.540389
0.705664
0.550395
0.611466
0.528816
0.488157
0.650058
0.880224
0.96396
0.80919
0.582582
0.580523
0.401492
0.582934
0.789409
0.773863
0.786828
0.823396
0.582564
0.696388
0.871856
0.909487
0.998965
0.92377
0.974973
0.660088
0.474539
0.515319
0.477924
0.983974
0.716208
0.551798
0.966727
0.480461
0.877254
0.82752
0.568136
0.535913
0.57834
0.565292
0.906355
0.6531
0.829162
0.682924
0.957958
0.755201
1.01687
0.515881
0.68944
0.599472
0.365156
0.594652
0.842382
0.491902
0.327813
0.757683
0.946915
0.863385
0.562814
0.462074
0.51496
0.486617
0.537847
0.486558
0.674149
0.492663
0.850255
0.526968
0.547672
0.932607
0.659224
0.787924
0.897024
0.672934
0.723588
0.508249
0.847343
0.656183
0.566185
0.639362
0.504549
0.459211
0.545884
0.550016
0.855343
0.992168
0.91523
0.753191
0.829608
0.429669
0.991414
0.731489
0.826833
0.544834
0.83149
0.61541
0.605571
0.884451
0.946025
0.847469
0.762527
0.62797
1.00415
0.593796
0.867868
0.9785
0.816375
0.631109
0.422851
0.867722
0.71545
0.494173
0.806639
0.709862
0.950082
0.544367
0.958378
0.999631
0.662453
0.516097
0.974072
0.461412
0.501663
0.602791
0.496292
0.580242
0.501811
0.466684
0.68182
0.548242
0.511034
0.59379
0.77027
0.586653
0.542353
0.798852
0.721056
0.437566
0.950688
0.982354
0.969186
0.536916
0.434152
1.02626
0.451701
0.659944
0.526156
0.624235
0.54491
0.846849
0.598951
0.614173
0.44796
0.429011
0.497508
0.604717
0.416759
0.70665
0.745552
0.697173
0.962795
0.715797
0.78709
0.617176
0.892908
0.633494
0.616711
1.00297
0.596132
0.704377
0.466655
0.816357
0.986743
0.664201
0.757777
0.710262
0.615414
0.532775
0.541646
0.488396
0.853246
0.508315
0.642277
0.612162
0.66479
0.515879
0.542867
0.66162
0.648571
0.584457
0.983146
0.672581
0.621792
0.761138
0.947508
0.613399
0.432485
0.855114
0.463383
0.631076
0.532204
0.652132
0.61022
0.613038
0.653696
0.987473
0.914314
0.442019
0.581322
0.428769
0.5224
0.417382
0.492629
0.583355
0.509806
0.593565
0.786474
0.995703
0.601174
0.833787
0.690701
0.981558
0.603325
0.986139
0.786952
0.474722
0.770105
0.839132
0.624041
0.892071
0.531246
0.922176
0.566606
0.360623
0.686568
0.997952
0.971284
0.857736
0.780772
0.809897
0.44417
0.597561
0.804556
1.01792
0.374121
0.663347
0.534827
0.629683
0.658954
0.51879
0.474983
0.557622
0.493548
0.557643
0.642033
0.650751
1.01018
0.890809
0.414495
0.869403
0.506288
0.533079
0.874607
0.567904
0.630852
0.797796
0.414809
0.534249
0.692279
0.90835
0.482735
0.54734
0.628379
0.78735
0.478452
0.951917
0.430009
0.613899
0.635439
0.559301
0.777369
0.789801
0.950173
0.531224
0.839146
0.752668
0.776875
0.528421
0.772945
0.517211
0.469306
0.395346
0.72391
0.689954
0.636342
0.918181
0.674533
0.719365
0.769228
0.521841
0.50267
0.605962
0.742778
0.535457
0.993153
0.466759
0.432123
0.596645
0.616504
0.542627
0.531535
0.82319
0.605777
0.69933
0.478854
0.53214
0.699593
0.482224
0.995758
0.973197
0.484066
0.516196
0.893268
0.681298
0.521504
0.459585
0.522942
0.490951
0.746648
0.94534
0.519766
0.438724
0.786493
0.667426
0.43066
0.483499
0.662409
0.82951
0.994983
0.472088
0.432805
0.766697
0.901106
0.655432
0.731961
0.630528
0.531936
0.617107
0.788053
0.687576
0.534695
0.879808
0.630172
0.397398
0.73709
0.548405
0.882858
1.01244
0.540327
0.607028
0.61237
0.601999
0.468036
0.622248
0.488349
0.967582
0.880189
0.829375
0.587448
0.448854
0.864219
0.988959
0.543349
0.731539
0.611498
0.371725
0.717474
0.62135
0.381962
0.56095
0.769697
0.478498
0.434618
0.491528
0.881746
0.46312
0.868511
0.639846
0.54125
0.645092
0.50954
0.884448
0.402324
0.616467
0.653382
0.466394
0.731039
0.806301
0.759538
0.692319
0.863163
0.486001
0.48332
0.930138
0.530984
0.924338
0.767967
0.659135
0.714654
0.916624
0.667605
0.424849
0.950707
0.527602
0.665067
0.905495
0.51997
0.959035
0.529558
0.632043
0.412648
0.625167
0.487546
0.686256
0.508974
0.397162
0.496026
0.480814
0.376856
0.943011
0.480065
0.6218
0.740527
0.677261
0.992639
0.992809
0.604756
0.661667
0.886149
0.594969
0.946521
0.387756
0.640478
0.720975
0.550179
0.89606
0.610687
0.61654
0.565269
0.548651
0.526988
0.403189
0.920282
0.278821
0.951782
0.82813
0.508723
0.43483
0.505108
1.00089
0.813371
0.795456
0.664439
0.731627
0.66035
0.913809
0.85806
0.51146
0.762608
0.96236
0.67289
0.727192
0.760626
0.414156
0.477884
0.865991
0.625618
0.645164
0.961046
0.477106
0.39351
0.562714
0.640694
0.679007
0.979196
0.533059
0.457362
0.539273
0.640192
0.538529
0.93376
0.651513
0.506962
0.615469
0.544626
0.517832
0.577016
0.773917
0.685209
0.504175
0.916953
0.62991
0.889617
0.505365
0.47324
0.603025
0.908648
0.97677
0.883583
0.712561
0.687174
0.87471
0.968014
0.467411
0.947249
0.498298
0.792059
0.789565
0.930633
0.707386
0.915295
0.942661
0.539324
0.531263
0.622579
0.667836
0.497717
0.523782
0.463921
0.850797
0.895019
0.460035
0.954306
0.70082
0.86724
0.664876
0.503408
0.88606
0.864515
0.610424
0.56547
0.488553
1.00085
0.821754
1.02246
0.461136
0.49703
0.651119
0.902291
0.782822
0.917871
0.698885
0.973508
0.561208
0.627761
0.727707
0.578002
0.774515
0.439396
0.880536
0.671631
0.721904
0.948072
0.451676
0.463438
0.403394
0.734255
0.921028
0.564648
0.782983
0.448224
0.4524
0.649324
0.551395
0.5257
0.915439
0.674431
0.522559
0.637955
0.734857
0.948344
0.737618
0.644669
0.920651
0.674788
0.976859
0.721335
0.832845
0.649662
0.46465
0.997701
0.501997
0.714635
0.758467
0.942978
0.817953
0.68484
0.541214
1.00629
0.63728
0.515462
0.855875
0.993694
0.836058
0.800038
0.446874
0.390907
0.740027
0.505942
0.633172
0.711492
0.503209
0.945371
1.00206
0.955816
0.579801
0.624694
0.524549
0.595926
0.796287
0.484632
0.807565
0.966874
0.469062
0.615163
0.558046
0.877758
0.797928
0.62559
0.510418
0.840642
0.526823
0.428193
0.496029
1.00737
0.395936
0.876368
0.753372
0.531352
0.962952
0.745666
0.993318
0.415638
0.616138
0.715934
0.951934
0.597363
0.940858
0.748478
0.396515
0.69358
0.571513
0.61147
0.389646
0.857182
0.617315
0.510859
0.429433
0.695365
0.922943
0.336545
0.587614
0.92258
0.612991
0.904222
0.384698
0.531877
0.530166
0.659308
0.599335
0.445575
0.527058
0.349805
0.639821
0.646955
0.867413
0.703004
0.925795
0.518651
0.62165
0.449217
0.676903
0.346146
0.625479
1.01688
0.636687
0.578639
1.00131
0.522876
0.740253
0.778763
0.441229
0.585795
0.674182
0.721031
0.963767
0.991755
0.993552
0.73099
0.615869
0.663555
0.503089
0.892818
0.78479
0.541631
0.580663
0.571754
0.668876
0.997936
0.640132
0.992812
0.6179
0.760561
0.507793
0.527582
0.449483
0.55706
0.938793
0.57037
0.461277
0.487403
1.00121
0.588659
0.506204
0.499129
0.527446
0.825218
0.696356
0.706289
0.615399
0.823573
0.437585
0.660669
0.699828
0.585709
0.912674
0.922155
0.514455
0.930403
0.9587
0.913926
0.714093
0.637663
0.565786
0.655856
0.965138
0.669791
0.733941
0.927758
0.998114
0.95819
0.920102
0.535164
0.790091
0.674886
0.523113
0.42069
0.631336
0.911466
0.998582
0.96971
0.565207
0.497323
0.476278
0.460839
0.795827
0.993115
0.778021
0.850693
0.864805
0.859049
0.839459
0.524161
0.587011
0.555981
0.485713
0.537018
0.617627
0.464124
0.575438
0.539889
0.936929
0.764762
0.425362
0.987577
0.551983
0.538258
0.650322
0.493321
0.828774
0.83877
0.546785
0.758826
0.984034
0.998874
0.804212
0.825052
0.649831
0.703545
0.65533
0.446797
0.726678
0.739645
0.568637
0.796337
0.772008
0.462461
0.329641
0.556053
0.963943
0.56719
0.820226