/*--------------------------------*- C++ -*----------------------------------*\
  =========                 |
  \\      /  F ield         | OpenFOAM: The Open Source CFD Toolbox
   \\    /   O peration     | Website:  https://openfoam.org
    \\  /    A nd           | Version:  6
     \\/     M anipulation  |
\*---------------------------------------------------------------------------*/
FoamFile
{
    version     2.0;
    format      ascii;
    class       volVectorField;
    location    "0";
    object      U;
}
// * * * * * * * * * * * * * * * * * * * * * * * * * * * * * * * * * * * * * //

dimensions      [0 1 -1 0 0 0 0];

internalField   nonuniform List<vector> 
13046
(
(-0.794014 0.317595 0)
(-0.663053 -0.0544743 -8.95315e-21)
(-0.329044 -0.125795 -2.01687e-20)
(-0.755738 0.218014 0)
(-0.355133 -0.0338674 -1.83908e-20)
(-0.569399 -0.0964108 0)
(-0.825336 0.259126 2.67881e-21)
(-0.587141 -0.126305 4.56648e-21)
(-0.326865 -0.0305184 -2.02453e-20)
(-1.57182 0.785166 7.1438e-21)
(-0.909079 -0.304401 0)
(-0.0407163 -0.134856 1.34685e-20)
(-0.987821 0.414227 -8.61857e-21)
(-0.687782 -0.116612 -1.40606e-20)
(-0.261481 -0.122468 1.11044e-20)
(-1.51413 0.857835 -1.00495e-20)
(-0.09689 -0.183666 3.22022e-20)
(-0.9523 -0.215517 7.06251e-21)
(-0.481655 0.0930881 0)
(-0.470241 -0.11626 -9.80012e-21)
(-0.679284 0.100919 2.77676e-20)
(-1.52968 0.850209 -4.01799e-21)
(-0.0837249 -0.17256 -4.30324e-20)
(-0.941851 -0.234464 0)
(-0.690601 0.207815 1.13352e-20)
(-0.603682 -0.0446847 -2.20403e-20)
(-0.368948 -0.0789858 0)
(-0.99862 0.452621 -1.56424e-20)
(-0.709179 -0.109422 4.11217e-21)
(-0.256624 -0.142755 -1.92395e-20)
(-0.804727 0.344321 0)
(-0.691604 -0.0343552 0)
(-0.327222 -0.151402 2.05238e-20)
(-0.630286 0.161084 -1.31625e-20)
(-0.396017 -0.0652124 6.8163e-21)
(-0.586974 -0.0245314 3.84531e-20)
(-0.617381 0.13349 -2.02048e-20)
(-0.415946 -0.0357497 1.04464e-20)
(-0.55947 -0.0310919 -1.98541e-20)
(-0.653185 0.303605 1.48123e-20)
(-0.418663 -0.234777 3.75904e-21)
(-0.815819 0.0797608 -1.35015e-20)
(-0.558251 0.0516715 9.07623e-21)
(-0.485901 0.021037 1.56652e-20)
(-0.505674 -0.0208016 0)
(-0.59785 0.072354 5.74005e-21)
(-0.470905 0.0361675 -2.39863e-20)
(-0.492404 -0.0502368 -2.96993e-21)
(-0.826014 0.320473 0)
(-0.649082 -0.0801546 -6.42073e-22)
(-0.306312 -0.109866 1.10335e-23)
(-0.518002 -0.329296 2.29887e-20)
(-0.54445 0.297191 0)
(-1.03668 0.200098 -1.63623e-20)
(-0.551693 -0.346896 -3.2729e-20)
(-1.1091 0.240696 -2.59732e-20)
(-0.486142 0.261449 2.32544e-20)
(-0.92232 -0.0646528 -3.18339e-21)
(-1.27214 0.795602 0)
(-0.25256 -0.280106 1.75769e-20)
(-1.27162 0.489663 -8.03778e-21)
(-0.71167 -0.257456 8.31162e-21)
(-0.190561 -0.0391861 -4.71931e-20)
(-0.0900361 -0.142908 2.46735e-20)
(-0.869686 -0.259065 -5.21306e-21)
(-1.53336 0.743648 -1.22882e-20)
(-1.20339 0.773377 0)
(-0.929807 -0.0278111 0)
(-0.288368 -0.306352 0)
(-1.14695 0.73132 -6.42141e-21)
(-0.918976 -0.0160881 0)
(-0.302535 -0.305451 1.39513e-20)
(-0.941572 -0.0720455 0)
(-1.32068 0.83165 2.49097e-22)
(-0.237016 -0.283358 5.26149e-24)
(-0.507094 0.125206 0)
(-0.454471 -0.138428 1.06344e-20)
(-0.702507 0.0875134 -1.97768e-20)
(-0.189156 -0.249545 1.95336e-20)
(-1.39677 0.85833 -1.86387e-20)
(-0.940308 -0.122467 0)
(-0.736941 0.232862 5.9524e-21)
(-0.598188 -0.0661233 0)
(-0.349339 -0.0667002 0)
(-0.0796872 -0.146474 -2.21559e-20)
(-0.885379 -0.266909 -4.0332e-21)
(-1.55906 0.766795 7.26535e-21)
(-1.59156 0.65036 -1.26197e-20)
(-0.078193 -0.0805146 0)
(-0.813849 -0.335021 -4.04551e-21)
(-0.093908 -0.0124971 0)
(-1.67369 0.568115 0)
(-0.768329 -0.420154 5.41078e-22)
(-1.28746 0.618267 0)
(-1.35016 0.639564 7.26563e-21)
(-0.793758 -0.180724 1.61249e-20)
(-0.804614 -0.207583 -7.56523e-21)
(-0.175725 -0.150757 -1.01386e-20)
(-0.15327 -0.138414 2.5997e-20)
(-0.0883457 -0.0622089 -1.25349e-21)
(-1.58553 0.624723 1.23514e-20)
(-0.795239 -0.35119 0)
(-0.640367 0.111069 -2.33043e-23)
(-0.439437 0.0235182 1.2677e-20)
(-0.506458 -0.0715502 0)
(-0.402879 0.16738 0)
(-1.03526 0.256924 -8.07552e-21)
(-0.557562 -0.284648 0)
(-0.549567 0.273076 2.56427e-20)
(-0.488438 -0.283346 0)
(-0.939011 0.1621 -3.08713e-20)
(-1.45809 0.749705 0)
(-0.0143397 -0.110756 0)
(-0.878556 -0.339917 -5.64568e-21)
(-0.915845 0.370082 2.37546e-20)
(-0.665544 -0.102827 5.95301e-21)
(-0.280008 -0.10908 2.02221e-20)
(-1.35282 0.709617 9.3636e-21)
(-1.29279 0.659248 -1.77058e-20)
(-0.847002 -0.167241 -1.3654e-20)
(-0.169657 -0.184942 1.16093e-20)
(-0.816969 -0.15938 8.27088e-21)
(-0.182381 -0.175227 -1.08461e-20)
(-1.5527 0.794547 -5.41996e-21)
(-0.915973 -0.307323 -7.99666e-21)
(-0.0363149 -0.134618 -6.02893e-21)
(-1.1539 0.550524 0)
(-0.758799 -0.14428 -1.0768e-20)
(-0.213301 -0.157619 2.36102e-20)
(-0.713724 0.340833 0)
(-0.390342 -0.226361 -1.86192e-20)
(-0.792998 0.0484831 7.77215e-22)
(-0.117727 0.00537 0)
(-1.63834 0.547357 0)
(-0.756881 -0.410481 0)
(-1.45951 0.663775 0)
(-0.818793 -0.257477 -2.09371e-20)
(-0.118207 -0.117114 -2.79968e-20)
(-0.867255 0.383443 0)
(-0.710251 -0.0491056 0)
(-0.308944 -0.166753 0)
(-1.01732 0.334479 0)
(-0.615524 -0.211218 0)
(-0.288415 0.00696077 0)
(-0.515434 0.255992 0)
(-0.515289 -0.298546 0)
(-0.989105 0.194971 1.66176e-20)
(-0.409101 0.150375 -2.66925e-21)
(-0.997526 0.245919 -1.74441e-20)
(-0.552087 -0.267503 2.0035e-20)
(-1.3189 0.522527 1.84555e-20)
(-0.734987 -0.25994 0)
(-0.168273 -0.0630312 6.13751e-20)
(-0.381402 0.0801633 0)
(-0.893026 0.228367 1.89526e-20)
(-0.542318 -0.203496 -5.08048e-21)
(-0.616527 -0.354792 0)
(-1.23264 0.33216 1.84076e-20)
(-0.647246 -0.357034 0)
(-1.29573 0.378918 1.05687e-20)
(-0.357894 0.170967 0)
(-0.298989 0.123117 0)
(-1.0485 0.308988 2.40611e-21)
(-0.597017 -0.250079 1.05455e-20)
(-0.315652 0.0584057 -1.16734e-20)
(-1.60111 0.7663 -7.3109e-21)
(-0.0366616 -0.126401 0)
(-0.887486 -0.32371 -9.97837e-21)
(-1.49718 0.769652 -4.64819e-21)
(-0.0221175 -0.121207 -2.75978e-21)
(-0.901877 -0.324799 0)
(-1.47727 0.692896 -1.03633e-20)
(-0.835987 -0.252812 0)
(-0.110906 -0.130221 3.18287e-20)
(-0.815375 0.453657 0)
(-0.861934 0.0520008 4.30863e-21)
(-0.385742 -0.277652 1.0891e-20)
(-1.00277 0.281555 1.58303e-20)
(-0.348931 0.0892883 5.59444e-21)
(-0.575449 -0.242213 0)
(-0.0348937 -0.109053 0)
(-0.856977 -0.348004 0)
(-1.63765 0.719835 5.97851e-21)
(-0.758342 0.406093 0)
(-0.84818 0.0661646 -9.33081e-21)
(-0.399807 -0.26298 2.8264e-21)
(-0.37764 0.0986384 0)
(-0.917583 0.23211 0)
(-0.54145 -0.21995 0)
(-0.958765 0.296696 7.91719e-21)
(-0.59626 -0.195566 0)
(-0.303987 0.00653164 0)
(-0.698905 -0.156168 -6.23227e-23)
(-0.232534 -0.1063 -1.37018e-20)
(-1.10428 0.507947 2.47732e-20)
(-0.736979 -0.136172 0)
(-0.226247 -0.144649 -2.95852e-20)
(-1.59525 0.713524 -1.27606e-20)
(-0.0662897 -0.113424 2.01072e-20)
(-0.852612 -0.311794 -1.95689e-20)
(-0.113425 -0.017685 1.84765e-20)
(-1.59121 0.568528 7.79809e-21)
(-0.767481 -0.380323 2.02222e-20)
(-1.65517 0.615301 -2.07632e-20)
(-0.796344 -0.381352 0)
(-0.0711647 -0.0505147 -1.81504e-20)
(-0.525097 -0.37692 -1.18186e-21)
(-1.10569 0.204836 7.3082e-21)
(-0.606984 0.383519 0)
(-0.955144 0.3454 -3.59488e-20)
(-1.37569 0.869207 9.71385e-21)
(-0.20579 -0.263252 -1.19929e-20)
(-0.952392 -0.109588 0)
(-0.809344 -0.383493 0)
(-1.66566 0.64772 -1.7825e-20)
(-0.0535763 -0.0686794 0)
(-0.655596 0.143557 -2.91442e-20)
(-0.408155 -0.00989337 -1.02589e-20)
(-0.5365 -0.0652532 2.919e-20)
(-0.962318 0.44891 0)
(-0.720371 -0.0857463 -5.92117e-22)
(-0.279135 -0.158489 -1.12472e-20)
(-0.123739 0.00137441 1.41825e-20)
(-1.60191 0.554378 0)
(-0.755918 -0.397532 -2.32988e-20)
(-1.01451 0.385063 2.87804e-20)
(-0.681981 -0.168892 2.54368e-20)
(-0.237738 -0.0871835 0)
(-0.0188664 -0.116958 0)
(-0.871795 -0.348743 8.55096e-21)
(-1.57386 0.75047 0)
(-0.54394 0.333761 0)
(-1.1514 0.230886 0)
(-0.548311 -0.383945 0)
(-1.62016 0.606031 1.82029e-20)
(-0.788149 -0.369885 0)
(-0.08516 -0.0479908 -5.13515e-23)
(-1.16705 0.344017 6.96407e-21)
(-0.621242 -0.303361 -8.09588e-21)
(-0.299918 0.090749 0)
(-1.14811 0.572202 0)
(-0.772049 -0.127764 1.006e-20)
(-0.223113 -0.173516 1.85297e-20)
(-0.709281 -0.422084 -2.90849e-20)
(-1.5359 0.458693 -1.42528e-20)
(-0.216159 0.0931376 1.12219e-20)
(-1.36589 0.398235 0)
(-0.664665 -0.3791 -1.14969e-20)
(-0.285068 0.123344 -4.03868e-22)
(-0.0117725 -0.110458 -1.77885e-20)
(-0.851519 -0.363301 0)
(-1.57757 0.728726 -4.71586e-21)
(-0.651022 0.351768 1.37215e-20)
(-0.455165 -0.291127 -1.35178e-20)
(-0.91879 0.122846 1.35683e-21)
(-1.36211 0.78292 4.62262e-21)
(-0.0250635 -0.11434 -2.59166e-20)
(-0.918235 -0.289213 0)
(-0.438535 0.0555851 -5.99546e-21)
(-0.695186 0.126885 -2.24756e-20)
(-0.493836 -0.112568 2.91796e-20)
(-1.18368 0.395273 8.26705e-21)
(-1.13661 0.349539 6.03784e-23)
(-0.651273 -0.271954 -1.94883e-20)
(-0.622008 -0.281808 0)
(-0.290832 0.0665722 1.06131e-20)
(-0.246741 0.0238926 -1.09773e-20)
(-0.16622 -0.235815 -2.55707e-20)
(-1.43069 0.868579 9.99723e-21)
(-0.952749 -0.136732 -1.73464e-20)
(-1.08789 0.54724 0)
(-0.771811 -0.0978339 0)
(-0.251572 -0.186852 -2.44045e-20)
(-1.43115 0.439651 -3.78514e-21)
(-0.689329 -0.388864 0)
(-0.241554 0.092058 0)
(-1.41263 0.693031 -8.88908e-21)
(-0.835237 -0.210463 0)
(-0.138371 -0.153653 1.15727e-20)
(-0.541679 0.0623848 6.12767e-21)
(-0.534074 0.00147865 8.89213e-21)
(-0.475644 -0.00538409 -3.06654e-21)
(-1.26839 0.389712 -1.34737e-20)
(-0.653733 -0.330981 0)
(-0.269586 0.0847175 -1.85445e-20)
(-1.09821 0.575931 0)
(-0.792953 -0.0879898 1.2539e-20)
(-0.254906 -0.20443 -1.57058e-20)
(-1.04496 0.421295 0)
(-1.10972 0.461382 2.88175e-21)
(-0.664092 0.372976 4.98595e-21)
(-0.459817 -0.308112 3.93082e-20)
(-0.945167 0.131908 -3.25874e-20)
(-1.32058 0.430996 -1.37473e-20)
(-0.677749 -0.330682 1.69047e-20)
(-0.227348 0.0478655 1.69225e-20)
(-1.45293 0.706068 0)
(-0.121844 -0.145505 -4.08035e-20)
(-0.844612 -0.229157 -1.03955e-20)
(-0.55355 0.253016 -3.54012e-20)
(-0.475675 -0.266914 0)
(-0.902729 0.153736 1.04504e-20)
(-0.381456 0.204639 -2.17948e-20)
(-1.25279 0.324456 -1.06082e-20)
(-0.613407 -0.377372 0)
(-1.26042 0.693294 -9.16617e-21)
(-0.847383 -0.113264 -1.09945e-20)
(-0.21401 -0.217378 7.19658e-21)
(-0.600229 0.342748 1.80634e-21)
(-0.500029 -0.331664 0)
(-1.01826 0.181862 2.25985e-20)
(-1.31285 0.731305 0)
(-1.3527 0.741685 0)
(-0.866393 -0.126711 -7.10986e-21)
(-0.199836 -0.217464 -1.87339e-20)
(-0.866801 -0.152343 1.00563e-20)
(-0.178585 -0.201488 1.98844e-20)
(-0.0465632 -0.117579 -1.55756e-20)
(-0.866002 -0.328171 0)
(-1.62225 0.737901 -8.77059e-21)
(-1.23221 0.633369 1.05302e-20)
(-0.804599 -0.139428 0)
(-0.203556 -0.183854 6.37769e-21)
(-0.81515 -0.341821 1.61899e-20)
(-0.00614663 -0.087561 2.27094e-20)
(-1.29846 0.705592 8.78586e-21)
(-0.807739 0.176167 -1.0332e-20)
(-0.420498 0.088549 0)
(-0.510071 -0.17434 0)
(-1.19595 0.455884 1.91369e-20)
(-0.691235 -0.233606 0)
(-0.207635 -0.0448519 3.60548e-20)
(-0.0816361 -0.117927 -1.27388e-20)
(-1.55998 0.704965 2.63789e-20)
(-0.844034 -0.292595 1.47467e-20)
(-0.562492 -0.363049 0)
(-1.14548 0.250473 9.60038e-21)
(-0.479598 0.2797 -2.63457e-20)
(-0.726019 -0.414742 -3.55054e-20)
(-1.5639 0.493587 -8.60675e-21)
(-0.176419 0.0552465 0)
(-0.646459 -0.151738 -2.56372e-20)
(-0.267751 -0.0668994 0)
(-1.23265 0.523055 2.08427e-20)
(-0.730977 -0.205814 9.17573e-21)
(-0.186902 -0.100904 1.09526e-20)
(-0.63269 -0.170502 1.50781e-20)
(-0.270096 -0.0462869 7.8387e-23)
(-1.50448 0.847069 -6.38133e-22)
(-0.110922 -0.191042 1.51064e-20)
(-0.941315 -0.201166 -1.03776e-20)
(-0.512828 -0.395002 0)
(-1.11012 0.19113 2.32713e-21)
(-0.661345 0.433537 0)
(-1.28855 0.556548 -2.12633e-20)
(-0.754616 -0.219007 -1.1198e-20)
(-0.169858 -0.100703 -1.34036e-20)
(-1.04502 0.33708 0)
(-0.611382 -0.233526 -1.53214e-20)
(-0.289839 0.026983 0)
(-1.0311 0.235707 0)
(-0.541027 -0.302331 0)
(-0.453218 0.205865 0)
(-0.801599 0.284703 -8.24526e-21)
(-0.623954 -0.0810608 -1.41647e-20)
(-0.321658 -0.0867972 -6.23699e-24)
(-0.430009 0.244985 2.70288e-20)
(-1.21566 0.294064 2.57535e-20)
(-0.594196 -0.376805 1.64962e-20)
(-1.62249 0.680381 -1.08243e-20)
(-0.831485 -0.337175 1.66371e-20)
(-0.0625507 -0.0952129 -1.90421e-20)
(-0.734308 -0.396537 2.40106e-20)
(-1.54896 0.508906 8.72957e-21)
(-0.160491 0.0334977 1.41778e-20)
(-1.02164 0.65179 -1.99371e-20)
(-0.35376 -0.322224 2.09307e-20)
(-0.928683 0.0278928 -1.53841e-20)
(-1.37485 0.808079 5.43145e-21)
(-1.33233 0.777189 -5.02468e-21)
(-0.893959 -0.112908 -2.26216e-21)
(-0.911177 -0.122842 0)
(-0.191576 -0.23566 -6.87884e-21)
(-0.20663 -0.239066 -6.05835e-21)
(-0.0111405 -0.0955448 -3.07396e-20)
(-0.849791 -0.325888 -1.78314e-20)
(-1.32457 0.719073 3.05185e-21)
(-1.39025 0.799658 -3.21603e-22)
(-0.0325339 -0.124919 3.5859e-20)
(-0.936237 -0.280476 0)
(-1.25017 0.429383 -3.05762e-20)
(-0.677417 -0.28483 -4.36117e-21)
(-0.228456 0.0149695 0)
(-0.0590553 -0.121798 -3.87089e-20)
(-1.60474 0.732733 8.73115e-21)
(-0.866688 -0.309647 0)
(-1.16018 0.695063 2.77793e-20)
(-1.21835 0.720393 -2.08198e-20)
(-0.87692 -0.0526288 1.1781e-20)
(-0.876359 -0.0735959 4.50707e-21)
(-0.277657 -0.268775 -1.18906e-20)
(-0.251937 -0.254798 -5.98118e-21)
(-0.0313521 -0.073003 0)
(-0.797489 -0.40293 0)
(-1.69504 0.631079 3.02946e-21)
(-1.27488 0.76886 -5.42457e-21)
(-0.0225592 -0.105258 0)
(-0.908723 -0.280076 0)
(-0.620329 0.0474231 -3.75967e-23)
(-0.525071 0.103209 1.32204e-20)
(-0.445751 -0.0851583 6.53374e-21)
(-1.38553 0.750874 -8.66424e-21)
(-0.885573 -0.324248 8.25968e-21)
(-0.0154308 -0.107074 1.68007e-21)
(-0.901733 0.494758 0)
(-0.831364 0.0110628 -1.98422e-20)
(-0.346871 -0.258284 -2.14588e-23)
(-1.64352 0.707214 2.21146e-22)
(-0.846108 -0.357115 2.38155e-20)
(-0.0391327 -0.101381 5.56643e-24)
(-0.721121 -0.367468 4.89038e-22)
(0.00374942 -0.0730224 -1.30897e-20)
(-1.25085 0.601219 -2.8187e-21)
(-0.598601 0.253715 -1.27488e-20)
(-0.433266 -0.215856 1.18575e-20)
(-0.800106 0.0946628 3.30786e-20)
(-0.748079 0.166884 0)
(-0.518279 -0.128808 -3.22918e-20)
(-0.40362 0.0405328 1.70108e-20)
(-1.53227 0.816053 0)
(-0.0427638 -0.140525 1.79718e-20)
(-0.92964 -0.29184 1.0542e-24)
(-0.789469 0.188955 0)
(-0.523966 -0.148285 -1.13191e-20)
(-0.389911 0.0540892 -2.40265e-20)
(-0.595225 0.0431506 1.33725e-20)
(-0.516562 0.0800401 -7.03718e-21)
(-0.458893 -0.0612687 3.44542e-21)
(-0.515523 0.328134 1.31066e-20)
(-1.2198 0.262456 -9.09124e-21)
(-0.575084 -0.408739 1.82389e-20)
(-0.734921 0.111139 0)
(-0.465394 -0.154317 0)
(-0.486264 0.138415 1.99421e-21)
(-0.790244 0.158567 1.63584e-20)
(-0.493096 -0.171587 8.75298e-21)
(-0.45667 0.121226 2.83271e-22)
(-0.959385 0.612306 3.03217e-20)
(-0.942163 0.0485575 -1.52263e-20)
(-0.380339 -0.335849 -2.06931e-20)
(-0.0646216 -0.151226 2.7111e-20)
(-0.0558574 -0.143831 -2.75904e-20)
(-0.922943 -0.271667 7.02421e-21)
(-0.910333 -0.288159 4.88776e-21)
(-1.55999 0.815136 0)
(-1.5754 0.803283 -7.3151e-21)
(-1.64487 0.679082 1.34526e-20)
(-0.832955 -0.349257 -1.48477e-20)
(-0.0525706 -0.0902591 2.35845e-20)
(-0.341954 -0.333585 -1.34354e-20)
(-1.07635 0.708656 6.18415e-21)
(-0.944988 0.0203545 1.96108e-20)
(-0.687668 0.35889 -1.25283e-20)
(-0.427969 -0.271024 -1.23655e-20)
(-0.87355 0.0938442 1.03127e-20)
(-1.38317 0.374415 0)
(-0.654234 -0.405529 1.18953e-20)
(-0.325194 0.169119 4.1789e-22)
(-0.754624 -0.394583 8.21673e-21)
(0.00622605 -0.0879037 -1.22515e-20)
(-1.46171 0.626547 -3.14802e-21)
(-0.0745299 -0.0329681 0)
(-1.67919 0.59394 0)
(-0.779994 -0.411522 1.0047e-20)
(-1.5359 0.766988 5.67335e-21)
(-0.0231091 -0.122842 0)
(-0.896773 -0.330459 -8.39566e-21)
(0.00244374 -0.0641431 -4.84811e-32)
(-0.689267 -0.352856 -7.45709e-21)
(-1.16411 0.58122 2.55161e-21)
(-0.736873 -0.303213 8.34914e-21)
(-0.00417625 -0.065747 4.83646e-32)
(-1.11671 0.651276 -2.28899e-21)
(-0.729584 -0.312338 -2.30919e-20)
(-1.39588 0.511974 0)
(-0.171015 -0.0175245 -3.61119e-20)
(-0.788363 -0.403731 -4.4705e-21)
(-0.00680241 -0.088954 -1.25657e-20)
(-1.65682 0.640162 0)
(-1.49252 0.658934 -1.31644e-20)
(-0.814184 -0.27969 1.29822e-20)
(-0.108898 -0.104807 1.8711e-20)
(-1.48 0.881973 1.98201e-20)
(-0.086096 -0.182137 1.09097e-20)
(-0.986456 -0.208576 0)
(-0.911978 0.34346 6.30118e-21)
(-0.283789 -0.0767458 -6.85292e-21)
(-0.64168 -0.129133 6.17441e-21)
(-0.793864 -0.406446 5.16987e-21)
(-0.0429282 -0.0615003 1.33232e-20)
(-1.6933 0.620669 3.6259e-21)
(-1.3373 0.3497 -1.03974e-20)
(-0.363599 0.202162 -7.43796e-21)
(-0.636327 -0.401632 0)
(-0.701986 -0.376274 0)
(-1.43733 0.461474 0)
(-0.209394 0.0625939 0)
(0.000107646 -0.0271747 0)
(-0.444156 -0.205144 -6.12531e-21)
(-0.684434 0.362595 6.20303e-22)
(-0.797651 -0.363066 8.10958e-21)
(-0.00202405 -0.0872729 -1.5826e-20)
(-1.33199 0.687401 -4.10094e-21)
(-0.848763 0.297914 -1.63344e-20)
(-0.30619 -0.0667321 1.61457e-20)
(-0.61897 -0.114795 7.20928e-21)
(-0.820806 -0.380663 2.10189e-20)
(-1.67497 0.674223 -6.28533e-21)
(-0.0274642 -0.0894082 0)
(-0.0236253 -0.0728716 -1.39371e-20)
(-1.70128 0.626741 0)
(-0.78584 -0.412864 -1.57186e-20)
(-1.58415 0.761664 -8.09548e-21)
(-0.0663915 -0.135539 4.13909e-20)
(-0.882163 -0.286807 0)
(-0.141717 -0.208518 -3.09588e-20)
(-0.932312 -0.170134 1.10241e-20)
(-1.46106 0.841949 0)
(-0.922985 0.616414 -3.83261e-20)
(-0.982261 0.074253 1.93886e-20)
(-0.409735 -0.360755 -6.55916e-21)
(-0.898994 -0.0880495 3.3892e-21)
(-1.28024 0.775088 1.19684e-20)
(-0.23652 -0.26069 -1.87783e-20)
(-0.131763 -0.216029 -2.77914e-20)
(-1.47032 0.885955 0)
(-0.969711 -0.167522 0)
(-0.959488 0.49633 -5.99155e-21)
(-1.02911 0.546695 0)
(-0.78177 -0.0366991 -2.06233e-20)
(-0.798933 -0.0532994 2.20581e-20)
(-0.305856 -0.215521 3.19099e-21)
(-0.285366 -0.221295 -3.39896e-21)
(-0.899077 0.473076 5.74561e-21)
(-0.797617 -0.00742827 0)
(-0.334298 -0.232964 6.08763e-21)
(-1.13819 0.708866 0)
(-0.896594 -0.0337124 -1.90462e-20)
(-0.295768 -0.288245 4.28451e-21)
(-0.725026 -0.382633 -1.19455e-20)
(-1.50796 0.495785 9.22473e-21)
(-0.172529 0.0326832 -2.91029e-20)
(-0.819619 -0.373037 0)
(-1.65636 0.667884 1.95576e-20)
(-0.0470198 -0.0801359 0)
(-0.132017 -0.0143719 -9.34571e-21)
(-1.53808 0.550104 -5.67978e-21)
(-0.756002 -0.364265 -7.79666e-21)
(-0.781954 -0.302486 -1.14757e-21)
(-0.00757072 -0.0748011 8.4385e-21)
(-1.16952 0.682708 0)
(-0.700235 0.303637 1.15027e-20)
(-0.715546 0.296463 0)
(-0.3789 -0.186159 0)
(-0.73701 0.0294715 4.02857e-20)
(-0.365092 -0.165211 0)
(-0.706471 0.00371616 -2.56156e-20)
(-1.03308 0.626609 0)
(-0.952981 0.566952 0)
(-0.350501 -0.287263 -1.67869e-23)
(-0.881658 -0.00429123 1.1954e-20)
(-0.328081 -0.285192 3.12549e-20)
(-0.875588 0.0148115 -2.52801e-20)
(-0.69467 -0.382656 0)
(0.00683165 -0.074134 1.78891e-20)
(-1.3054 0.590318 0)
(-0.826016 -0.373168 -1.24715e-20)
(-1.66962 0.681281 2.06532e-21)
(-0.0335819 -0.0929175 8.35637e-21)
(-0.724786 0.416697 -2.16696e-20)
(-0.446196 -0.318941 -1.41735e-20)
(-0.946107 0.115256 3.3781e-20)
(-0.692402 -0.411488 2.58958e-20)
(-1.47918 0.434037 2.40013e-20)
(-0.245374 0.11249 0)
(-0.156888 -0.21959 3.31132e-20)
(-0.929117 -0.156337 -1.17272e-20)
(-1.43833 0.838028 1.25666e-20)
(-0.840221 -0.364361 0)
(-1.48269 0.71462 0)
(-0.00562739 -0.103207 0)
(-0.837046 -0.370198 0)
(-1.52445 0.705697 4.80407e-21)
(-0.0053378 -0.103924 3.02184e-21)
(-1.21651 0.696385 -1.15332e-20)
(-0.854097 -0.0916815 6.82165e-21)
(-0.238764 -0.235112 8.85257e-21)
(-0.519629 0.220152 -3.35884e-21)
(-0.486681 -0.251148 0)
(-0.89123 0.167953 -1.26802e-22)
(-1.58861 0.7761 9.43273e-21)
(-0.0581109 -0.137143 2.4119e-20)
(-0.896184 -0.291893 -5.69255e-21)
(-0.734949 -0.334009 0)
(-1.43886 0.520823 0)
(-0.161432 -0.00492328 3.1167e-20)
(-0.110402 -0.155045 7.79978e-21)
(-0.869251 -0.233813 1.77917e-20)
(-1.49081 0.751622 2.72973e-20)
(-0.907222 0.54503 0)
(-0.373983 -0.300807 -2.07885e-20)
(-0.892894 0.0367855 1.29195e-20)
(-1.12935 0.312529 1.74163e-22)
(-0.596272 -0.303335 1.18783e-20)
(-0.350637 0.129863 0)
(-0.636619 0.306754 2.15544e-22)
(-0.436475 -0.254586 -4.05633e-21)
(-0.856459 0.102129 -1.35132e-20)
(-0.0462344 -0.1262 2.19343e-23)
(-0.884369 -0.31696 1.34281e-20)
(-1.60609 0.757892 9.83152e-21)
(-1.40426 0.725074 -5.16754e-21)
(-0.855512 -0.19145 -5.28866e-21)
(-0.148005 -0.17303 0)
(-0.614512 0.250239 -1.24723e-20)
(-0.416473 -0.193485 2.56632e-20)
(-0.759468 0.0699787 -2.18237e-20)
(-1.47436 0.89681 8.11044e-21)
(-0.117096 -0.208558 1.23598e-20)
(-0.983139 -0.178582 -8.16735e-21)
(-0.858929 0.405979 -7.23148e-21)
(-0.735922 -0.0329211 0)
(-0.320244 -0.188137 0)
(-0.910338 0.263379 -2.93512e-20)
(-0.567469 -0.190403 7.00748e-21)
(-0.339323 0.0395438 0)
(-0.700946 -0.34929 0)
(-1.3931 0.457238 1.9676e-20)
(-0.206173 0.0455061 0)
(-1.43807 0.837992 -3.88661e-21)
(-0.0492524 -0.146502 -3.8374e-21)
(-0.968531 -0.255758 9.12421e-21)
(-1.4383 0.857055 1.08694e-20)
(-0.0600397 -0.157586 0)
(-0.981071 -0.235413 -8.80358e-21)
(-0.116157 -0.168435 7.10659e-21)
(-0.884601 -0.218687 -1.0542e-20)
(-1.48574 0.771201 -2.51819e-20)
(-1.15795 0.302125 -9.21974e-21)
(-0.595813 -0.332791 -1.19148e-20)
(-0.380412 0.166487 0)
(-0.0400273 -0.133084 3.51384e-21)
(-0.959876 -0.263503 -8.52902e-21)
(-1.36817 0.814868 0)
(-0.0921752 -0.104442 0)
(-0.825477 -0.295409 -1.08115e-20)
(-1.54042 0.675253 -3.07555e-21)
(0.00403251 -0.0514913 1.42636e-20)
(-0.594914 -0.339374 8.37116e-21)
(-1.05001 0.494349 0)
(-0.953755 0.609697 -2.94652e-21)
(-0.676483 -0.258586 0)
(-0.00449575 -0.0523358 1.42581e-20)
(-0.128485 -0.206689 -1.11126e-23)
(-0.952688 -0.179276 0)
(-1.47663 0.868735 0)
(-0.0261127 -0.118551 0)
(-0.873646 -0.342516 0)
(-1.60764 0.74893 1.21766e-20)
(-1.54933 0.814353 -8.55502e-21)
(-1.53943 0.799904 6.92033e-21)
(-0.0798274 -0.162995 -1.36026e-20)
(-0.923707 -0.246497 -2.31115e-21)
(-0.0874197 -0.162081 -2.20405e-20)
(-0.906971 -0.2437 4.19505e-21)
(-1.54817 0.651068 5.9955e-21)
(-0.811327 -0.313042 7.15319e-21)
(-0.0928663 -0.0883996 0)
(-0.30063 0.165874 0)
(-0.669075 -0.424384 0)
(-1.445 0.397357 0)
(-0.700914 0.253091 0)
(-0.362432 -0.125259 -3.53873e-20)
(-0.655183 -0.0186812 1.4099e-20)
(-1.52184 0.586654 1.73167e-20)
(-0.77505 -0.336255 2.65375e-21)
(-0.114831 -0.0476197 2.75007e-20)
(-0.13249 -0.0264459 1.79583e-20)
(-1.50746 0.562384 -2.41095e-20)
(-0.758639 -0.345206 -3.68124e-21)
(-1.44603 0.897436 9.75443e-21)
(-0.15445 -0.234993 1.32928e-20)
(-0.97269 -0.14209 1.8113e-20)
(-1.05674 0.654701 0)
(-0.898717 -0.00353063 5.66697e-21)
(-0.326094 -0.297067 -3.06377e-20)
(-0.957175 0.539851 0)
(-0.84396 0.000665442 2.60605e-20)
(-0.335016 -0.266159 -6.00452e-24)
(-1.38507 0.551363 -2.34571e-20)
(-0.752323 -0.284326 3.22685e-21)
(-0.150159 -0.060333 -1.55982e-20)
(-1.41796 0.551056 0)
(-0.751412 -0.302407 3.03256e-21)
(-0.147192 -0.047554 1.43857e-20)
(-0.577615 0.210541 0)
(-0.42711 -0.173865 -4.05292e-20)
(-0.737303 0.0747001 1.22789e-20)
(-1.04858 0.576264 0)
(-0.816424 -0.0506876 0)
(-0.285636 -0.236617 4.60702e-21)
(-0.0533583 -0.0448507 -2.88669e-20)
(-0.777498 -0.419193 -2.82446e-20)
(-1.70428 0.602835 0)
(-1.55177 0.68194 5.64229e-21)
(-0.000761077 -0.098817 0)
(-0.803446 -0.387527 5.93711e-21)
(-1.52851 0.642183 -4.69575e-22)
(0.00377082 -0.093125 0)
(-0.776704 -0.3936 -1.70232e-20)
(-0.771281 0.393684 8.65782e-21)
(-0.379522 -0.237705 -4.4329e-21)
(-0.806113 0.0375861 -2.26153e-22)
(-0.806383 -0.369321 2.62649e-22)
(-0.000993261 -0.093715 2.42012e-20)
(-1.43091 0.683759 0)
(-1.44719 0.765727 2.20263e-20)
(-0.136191 -0.178836 1.49235e-20)
(-0.879662 -0.196157 0)
(0.00481615 -0.0865166 -3.60067e-21)
(-0.760532 -0.388093 -9.14994e-21)
(-1.41357 0.635405 0)
(-0.728477 0.189385 2.02679e-20)
(-0.382027 -0.0058554 2.15427e-20)
(-0.54612 -0.0958687 5.54196e-23)
(-1.14147 0.503192 -3.59381e-21)
(-0.726683 -0.165957 -3.35965e-21)
(-0.214413 -0.120127 -1.60185e-20)
(-0.568075 -0.330769 2.71451e-20)
(-1.11061 0.269349 2.19807e-20)
(-0.432912 0.206834 0)
(-0.0140982 -0.0877356 0)
(-0.798425 -0.399562 -5.60946e-21)
(-1.67317 0.652149 0)
(-0.722429 -0.348943 0)
(-1.44032 0.501778 0)
(-0.174876 0.0154252 0)
(-0.0984305 -0.19125 0)
(-1.49328 0.880937 -7.14458e-21)
(-0.977361 -0.200221 8.01016e-21)
(-1.21232 0.542568 0)
(-0.743201 -0.187719 1.6736e-21)
(-0.194523 -0.118352 1.56573e-20)
(-0.673655 0.225774 0)
(-0.373874 -0.108302 3.03702e-20)
(-0.636204 -0.0187534 0)
(-0.824057 -0.383689 -1.98782e-20)
(-1.65409 0.68573 5.98319e-21)
(-0.0179822 -0.0961323 0)
(-0.090813 -0.130272 -1.63607e-20)
(-0.851547 -0.273674 6.88648e-22)
(-1.5314 0.722398 5.10256e-22)
(-1.48797 0.810863 0)
(-1.46072 0.802182 6.5032e-21)
(-0.0394948 -0.137005 -8.85345e-21)
(-0.0321423 -0.129057 -1.08848e-20)
(-0.937935 -0.285073 -5.61687e-21)
(-0.929167 -0.296072 4.61883e-21)
(-1.13537 0.396049 0)
(-0.647144 -0.249806 4.55531e-20)
(-0.250135 0.00522671 1.71758e-20)
(-0.706896 -0.299914 3.24216e-20)
(-1.33933 0.476494 0)
(-0.18963 -0.00390449 -1.90029e-20)
(-0.860009 0.263696 -1.66483e-20)
(-0.580698 -0.149808 1.19421e-20)
(-0.319474 -0.00996769 2.64043e-20)
(-0.810486 -0.391105 1.30598e-20)
(-1.60791 0.678694 6.47031e-21)
(-0.792517 -0.400644 -6.2285e-21)
(-0.00382942 -0.0996089 0)
(-1.61953 0.654282 -6.23359e-21)
(-0.00202144 -0.0946749 0)
(-1.3522 0.619938 0)
(-0.78761 -0.22495 0)
(-0.151943 -0.121074 1.75386e-20)
(-1.63941 0.699989 9.88231e-21)
(-1.61729 0.695767 -1.82246e-20)
(-0.838362 -0.373566 8.54701e-21)
(-0.83343 -0.377442 -2.15461e-20)
(-0.0152618 -0.104431 2.45054e-20)
(-0.00942054 -0.104888 -2.1923e-23)
(-1.29585 0.45259 0)
(-0.685519 -0.309708 -3.01449e-20)
(-0.219466 0.0282704 2.46142e-20)
(-1.06521 0.406964 1.55714e-20)
(-0.682053 -0.191964 -2.02953e-20)
(-0.224379 -0.0713268 0)
(-1.48403 0.867359 0)
(-0.0713554 -0.168515 0)
(-0.977159 -0.230756 8.45924e-21)
(-1.1469 0.422437 1.14407e-20)
(-0.664748 -0.233371 -1.26696e-20)
(-0.232055 -0.0222129 -2.84283e-20)
(-0.932274 0.312259 6.73207e-21)
(-0.608599 -0.16846 -1.40129e-20)
(-0.290841 -0.0263224 1.54864e-20)
(-1.4674 0.829022 0)
(-0.0483347 -0.145665 0)
(-0.957947 -0.268029 -1.16489e-20)
(-1.22843 0.573104 0)
(-0.769087 -0.171534 3.56215e-21)
(-0.188456 -0.141851 -1.74022e-20)
(-0.622882 -0.416847 0)
(-1.32519 0.331342 0)
(-0.408437 0.248051 -9.61253e-22)
(-0.905467 0.562685 -9.76783e-22)
(-0.92266 0.0538316 0)
(-0.386785 -0.320635 3.22627e-20)
(-0.737533 -0.425131 1.38774e-20)
(-0.148426 0.039772 0)
(-1.6198 0.517108 0)
(-7.82176e-05 -0.0423296 -3.42885e-20)
(-0.575036 -0.267454 8.57539e-21)
(-0.901566 0.486978 -8.68007e-22)
(-1.18199 0.474179 0)
(-0.700234 -0.208127 1.24512e-20)
(-0.205807 -0.0734129 -1.446e-20)
(-1.52643 0.848 1.33855e-20)
(-0.0718749 -0.16499 4.59445e-20)
(-0.952095 -0.240923 0)
(-0.461822 -0.379077 -8.56161e-21)
(-1.04168 0.133556 -1.27073e-20)
(-0.790035 0.52391 -8.73346e-21)
(-1.13036 0.70396 0)
(-0.0122438 -0.0794898 -1.27701e-20)
(-0.82809 -0.284556 0)
(-0.435158 0.141059 1.66357e-20)
(-0.452034 0.169588 -1.70319e-20)
(-0.511765 -0.224501 0)
(-0.888788 0.195329 1.40462e-20)
(-0.517067 -0.250967 -2.57707e-20)
(-0.929145 0.198258 -1.12527e-20)
(-0.845456 0.237997 1.56457e-20)
(-0.556494 -0.158081 1.58859e-20)
(-0.349146 0.0251173 0)
(-0.540572 0.216848 1.46609e-20)
(-0.486826 0.175119 0)
(-0.461229 -0.221882 -1.4411e-20)
(-0.827266 0.127955 1.25473e-20)
(-0.478341 -0.209027 1.45217e-20)
(-0.830081 0.147717 6.58765e-23)
(-1.12726 0.447427 9.88889e-22)
(-0.655078 -0.194772 -8.85603e-21)
(-0.246396 -0.0458247 -1.90923e-20)
(-1.07134 0.393029 -2.67275e-20)
(-0.64899 -0.209756 2.34871e-22)
(-0.252112 -0.0266527 0)
(0.00383152 -0.0917749 0)
(-0.765522 -0.40589 0)
(-1.5793 0.632374 5.77072e-21)
(-0.834917 0.423745 -7.97821e-21)
(-0.785485 0.00933175 0)
(-0.351003 -0.22495 8.24145e-21)
(-1.63036 0.724663 -1.96043e-20)
(-0.856611 -0.356769 9.96767e-21)
(-0.0238333 -0.111099 -1.39762e-20)
(-1.41413 0.593859 0)
(-1.46471 0.621112 1.26455e-20)
(-0.776037 -0.272794 -4.02182e-21)
(-0.793431 -0.28329 1.27752e-20)
(-0.133876 -0.0829676 -1.94004e-20)
(-0.118728 -0.0884069 -1.80568e-20)
(-0.815673 0.389307 0)
(-0.752805 -0.00669809 0)
(-0.34407 -0.20172 3.88133e-21)
(-1.1182 0.650524 9.37181e-21)
(-0.855239 -0.0484685 0)
(-0.283889 -0.257729 1.02426e-20)
(-1.31026 0.554901 -6.71854e-21)
(-0.749476 -0.243039 0)
(-0.161452 -0.0840489 0)
(-0.578388 0.140808 1.60329e-20)
(-0.614276 0.0155846 -7.59906e-21)
(-0.416236 -0.0862607 8.12344e-21)
(-1.48372 0.591489 0)
(-0.775147 -0.314278 0)
(-0.122254 -0.0588715 -2.92236e-20)
(-0.663709 0.245431 0)
(-0.380925 -0.147151 4.47866e-21)
(-0.684318 0.014917 0)
(-1.29049 0.471624 -1.51478e-20)
(-0.699078 -0.284785 -1.67652e-20)
(-0.19936 -0.0144677 -2.45512e-21)
(-1.11497 0.622111 9.4328e-21)
(-0.831094 -0.0664567 0)
(-0.269016 -0.238072 2.10888e-20)
(-0.59954 0.174181 -1.58953e-20)
(-0.573841 0.16819 -7.14752e-21)
(-0.639779 0.014167 7.49576e-21)
(-0.403621 -0.108582 -1.61122e-20)
(-0.671604 0.040132 0)
(-0.416422 -0.127824 -2.86208e-20)
(-0.525747 0.172105 -7.25888e-21)
(-0.448453 -0.1756 1.89233e-20)
(-0.491877 0.160548 4.67706e-21)
(-0.751835 0.100941 -1.70069e-20)
(-0.475993 -0.194825 -9.0455e-21)
(-0.802954 0.137593 3.34033e-22)
(-0.939874 0.466649 8.58106e-21)
(-1.00651 0.493357 0)
(-0.754531 -0.0509333 1.53267e-20)
(-0.749859 -0.0781177 -1.19691e-20)
(-0.29818 -0.194294 -1.84667e-20)
(-0.273543 -0.18019 3.07215e-20)
(-0.132802 -0.194803 0)
(-0.913835 -0.185661 -6.47071e-21)
(-1.46876 0.814626 -1.28836e-20)
(-0.450682 0.272488 1.16435e-20)
(-1.25466 0.297091 1.4355e-20)
(-0.599459 -0.40206 -2.86816e-20)
(-0.114499 -0.185243 -1.54645e-20)
(-0.105082 -0.1733 1.23979e-20)
(-0.92015 -0.206561 5.59559e-21)
(-0.905109 -0.223624 9.63522e-21)
(-1.49711 0.825093 3.2587e-20)
(-1.51212 0.804051 -1.68939e-20)
(-0.62844 0.379771 1.5981e-20)
(-0.501628 -0.351332 -1.35323e-20)
(-1.04173 0.17746 3.28706e-21)
(-0.560775 0.0913829 2.67807e-20)
(-0.447075 -0.0324307 0)
(-0.556236 0.000747488 -2.63534e-20)
(-1.50216 0.621391 -5.95572e-21)
(-0.79353 -0.30575 -1.44266e-20)
(-0.110419 -0.0773214 0)
(-0.743093 0.33934 0)
(-0.367686 -0.204347 -3.69775e-21)
(-0.755153 0.0221497 -1.30909e-20)
(-1.1574 0.641461 0)
(-0.831342 -0.0823424 0)
(-0.251532 -0.228473 -1.96546e-20)
(-1.4062 0.806467 -1.43214e-20)
(-1.40396 0.780499 0)
(-0.907592 -0.150536 3.44485e-21)
(-0.169352 -0.217435 -1.8859e-20)
(-0.890651 -0.160045 -9.39546e-21)
(-0.163678 -0.204476 2.55046e-20)