/*--------------------------------*- C++ -*----------------------------------*\
  =========                 |
  \\      /  F ield         | OpenFOAM: The Open Source CFD Toolbox
   \\    /   O peration     | Website:  https://openfoam.org
    \\  /    A nd           | Version:  6
     \\/     M anipulation  |
\*---------------------------------------------------------------------------*/
FoamFile
{
    version     2.0;
    format      ascii;
    class       volScalarField;
    location    "0";
    object      p;
}
// * * * * * * * * * * * * * * * * * * * * * * * * * * * * * * * * * * * * * //

dimensions      [0 2 -2 0 0 0 0];

internalField   nonuniform List<scalar> 
9000
(
117.139
65.0808
50.6464
44.5471
41.3723
39.5565
38.3814
37.5312
36.858
36.2849
35.7685
35.2837
34.8153
34.3543
33.8952
33.4349
32.972
32.5056
32.0357
31.5624
31.0863
30.6076
30.1269
29.6446
29.1612
28.6771
28.1925
27.708
27.2237
26.7401
26.2574
25.776
25.2963
24.8186
24.3436
23.8717
23.4037
22.9406
22.4834
22.0338
21.5937
21.1659
20.7547
20.3658
20.008
19.6927
19.4255
19.1769
19.1731
18.1108
88.2231
61.7818
51.292
45.6606
42.3522
40.2989
38.9224
37.9227
37.1417
36.4908
35.9182
35.3923
34.8939
34.4108
33.9355
33.4635
32.992
32.5194
32.0452
31.5689
31.0906
30.6105
30.1288
29.6459
29.1622
28.6778
28.1931
27.7085
27.2242
26.7404
26.2575
25.7759
25.2957
24.8174
24.3414
23.8683
23.3985
22.9328
22.4721
22.0174
21.5702
21.1321
20.7052
20.2921
19.8951
19.514
19.1368
18.7149
18.2346
16.7082
70.7118
58.0848
51.161
46.2549
43.0362
40.8879
39.386
38.276
37.4074
36.6893
36.0657
35.5015
34.9743
34.4696
33.9782
33.4943
33.014
32.535
32.0561
31.5765
31.0958
30.6141
30.1313
29.6477
29.1634
28.6787
28.1938
27.709
27.2245
26.7405
26.2573
25.7753
25.2945
24.8154
24.3383
23.8635
23.3915
22.9228
22.4579
21.9974
21.542
21.092
20.6477
20.2083
19.7702
19.3236
18.8422
18.2576
17.4902
16.0614
61.2444
54.5291
49.959
46.0331
43.192
41.1496
39.6482
38.504
37.5941
36.8374
36.181
35.59
35.0415
34.5202
34.0161
33.5223
33.0345
32.55
32.0669
31.5842
31.1013
30.618
30.134
29.6496
29.1647
28.6796
28.1944
27.7093
27.2245
26.7402
26.2567
25.7741
25.2926
24.8126
24.3342
23.8577
23.3835
22.9116
22.4425
21.9761
21.5126
21.0512
20.5908
20.1281
19.6562
19.1609
18.6127
17.9488
17.0969
15.8426
54.9766
51.368
48.3915
45.3975
43.0198
41.181
39.7565
38.631
37.7147
36.9423
36.2681
35.6603
35.0971
34.5636
34.0494
33.5477
33.0537
32.5643
32.0775
31.592
31.107
30.6221
30.137
29.6517
29.1662
28.6805
28.1949
27.7095
27.2244
26.7397
26.2557
25.7725
25.2902
24.8092
24.3294
23.8512
23.3745
22.8995
22.4261
21.954
21.4827
21.0109
20.5361
20.0538
19.5556
19.0262
18.4391
17.7453
16.8917
15.7888
50.4758
48.6849
46.8107
44.5904
42.659
41.0568
39.7496
38.6767
37.7793
37.0092
36.3296
35.7135
35.1415
34.5996
34.0781
33.5702
33.0712
32.5777
32.0877
31.5997
31.1127
30.6263
30.14
29.6538
29.1677
28.6815
28.1954
27.7096
27.224
26.7389
26.2543
25.7705
25.2874
24.8052
24.3241
23.844
23.365
22.8868
22.4093
21.9319
21.4535
20.9724
20.4854
19.9875
19.4698
18.9185
18.3112
17.6134
16.7897
15.8125
47.2151
46.468
45.3388
43.7269
42.1907
40.8267
39.6554
38.656
37.7955
37.0416
36.3671
35.7502
35.1746
34.6281
34.1019
33.5896
33.0867
32.5899
32.0972
31.607
31.1182
30.6304
30.1431
29.656
29.1691
28.6824
28.1959
27.7095
27.2235
26.7379
26.2527
25.7682
25.2842
24.801
24.3184
23.8366
23.3552
22.8741
22.3929
21.9106
21.426
20.937
20.4403
19.9306
19.3999
18.8362
18.2222
17.5349
16.7534
15.8797
44.8153
44.6542
44.02
42.8735
41.6718
40.5304
39.4992
38.584
37.7721
37.0446
36.3832
35.7716
35.197
34.6493
34.1207
33.6056
33.1
32.6008
32.1058
31.6138
31.1235
30.6344
30.1461
29.6582
29.1706
28.6833
28.1962
27.7094
27.2229
26.7367
26.251
25.7657
25.2808
24.7965
24.3126
23.829
23.3455
22.8618
22.3771
21.8906
21.4008
20.9056
20.4015
19.8838
19.3454
18.7766
18.165
17.4961
16.7596
15.9696
43.0085
43.1728
42.8662
42.0694
41.1427
40.1997
39.3032
38.4755
37.7183
37.0238
36.3813
35.7798
35.2099
34.6636
34.1347
33.6184
33.1111
32.6102
32.1136
31.62
31.1284
30.6382
30.1489
29.6602
29.172
28.684
28.1964
27.7091
27.2221
26.7354
26.249
25.763
25.2773
24.792
24.3068
23.8216
23.3362
22.85
22.3624
21.8725
21.3786
20.8786
20.3694
19.8468
19.305
18.7365
18.1329
17.4858
16.7921
16.0693
41.6203
41.9616
41.8718
41.3352
40.6299
39.8582
39.0855
38.3433
37.6429
36.985
36.3651
35.7771
35.2146
34.672
34.1445
33.6282
33.1202
32.6181
32.1203
31.6255
31.1329
30.6417
30.1515
29.6621
29.1732
28.6847
28.1966
27.7088
27.2212
26.734
26.247
25.7603
25.2738
24.7874
24.301
23.8144
23.3273
22.8391
22.3491
21.8564
21.3594
20.8561
20.3439
19.819
19.277
18.7125
18.12
17.4957
16.8403
16.1714
40.5357
40.9698
41.0236
40.6792
40.1499
39.5228
38.8605
38.1983
37.5537
36.9335
36.3383
35.7659
35.2128
34.6754
34.1505
33.6353
33.1272
32.6247
32.1261
31.6304
31.1369
30.6448
30.1539
29.6638
29.1743
28.6853
28.1966
27.7083
27.2202
26.7324
26.2449
25.7575
25.2702
24.783
24.2955
23.8077
23.3191
22.8292
22.3374
21.8425
21.3434
20.8381
20.3244
19.7994
19.2596
18.7014
18.1216
17.5193
16.8974
16.272
39.6774
40.1567
40.3058
40.1032
39.7123
39.2053
38.6391
38.0495
37.4577
36.8744
36.3043
35.7484
35.2058
34.6748
34.1535
33.64
33.1326
32.6299
32.1309
31.6346
31.1404
30.6476
30.1561
29.6653
29.1753
28.6857
28.1965
27.7077
27.2192
26.7309
26.2428
25.7547
25.2668
24.7787
24.2903
23.8014
23.3117
22.8205
22.3272
21.8309
21.3305
20.8243
20.3106
19.7869
19.251
18.7004
18.1338
17.5519
16.959
16.3686
38.9924
39.491
39.7033
39.6051
39.3224
38.9138
38.4294
37.9041
37.3605
36.8121
36.2664
35.7271
35.1954
34.6713
34.1541
33.6428
33.1364
32.6341
32.1349
31.6382
31.1434
30.6501
30.1579
29.6666
29.176
28.686
28.1964
27.7071
27.2181
26.7293
26.2406
25.752
25.2634
24.7746
24.2855
23.7957
23.305
22.8128
22.3186
21.8215
21.3205
20.8143
20.3015
19.7804
19.2494
18.7072
18.1535
17.5902
17.022
16.4602
38.4443
38.9483
39.2029
39.1813
38.9824
38.6533
38.2375
37.7677
37.2668
36.7502
36.2273
35.7039
35.1829
34.6658
34.1529
33.6441
33.1391
32.6372
32.138
31.6411
31.1459
30.6521
30.1595
29.6677
29.1766
28.6861
28.1961
27.7063
27.2169
26.7276
26.2385
25.7494
25.2602
24.7708
24.281
23.7906
23.2992
22.8063
22.3115
21.8141
21.3131
20.8077
20.2966
19.7788
19.2533
18.7196
18.1783
17.6316
17.0844
16.5459
38.0076
38.5102
38.7929
38.8275
38.693
38.4272
38.0676
37.6445
37.1805
36.6918
36.1895
35.6807
35.1697
34.6592
34.1506
33.6444
33.1407
32.6395
32.1405
31.6434
31.1479
30.6538
30.1607
29.6685
29.177
28.6861
28.1956
27.7055
27.2157
26.726
26.2364
25.7469
25.2572
24.7673
24.277
23.786
23.2941
22.8009
22.3058
21.8085
21.308
20.8038
20.2951
19.7811
19.2613
18.736
18.2061
17.6742
17.1447
16.6255
37.6644
38.1628
38.4643
38.5396
38.4538
38.2373
37.9227
37.5378
37.1045
36.6397
36.155
35.6589
35.1569
34.6525
34.1477
33.6439
33.1417
32.6411
32.1424
31.6452
31.1495
30.655
30.1616
29.6691
29.1772
28.6859
28.1951
27.7046
27.2144
26.7243
26.2344
25.7444
25.2543
24.764
24.2733
23.7819
23.2897
22.7963
22.3014
21.8044
21.3049
20.8023
20.2962
19.7862
19.2723
18.7549
18.2354
17.7165
17.2021
16.6988
37.4022
37.8958
38.2095
38.3139
38.264
38.0848
37.8049
37.45
37.0413
36.5956
36.1255
35.64
35.1455
34.6462
34.1448
33.6431
33.1421
32.6422
32.1437
31.6465
31.1506
30.6559
30.1622
29.6694
29.1772
28.6856
28.1944
27.7036
27.213
26.7226
26.2323
25.742
25.2516
24.761
24.2699
23.7783
23.286
22.7926
22.298
21.8016
21.3033
20.8026
20.2994
19.7934
19.2851
18.7751
18.2651
17.7574
17.2558
16.7657
37.2122
37.7015
38.0231
38.1473
38.1227
37.9702
37.7155
37.3828
36.9925
36.5613
36.1023
35.6249
35.1362
34.6409
34.1422
33.6422
33.1422
32.6428
32.1445
31.6474
31.1514
30.6565
30.1625
29.6694
29.1769
28.685
28.1936
27.7025
27.2116
26.721
26.2304
25.7397
25.249
24.7581
24.2669
23.7752
23.2828
22.7896
22.2954
21.7998
21.3028
20.8042
20.3038
19.8019
19.2989
18.7958
18.2941
17.7962
17.3055
16.8264
37.0885
37.5747
37.901
38.0376
38.029
37.8937
37.6556
37.3374
36.9592
36.5378
36.0862
35.6144
35.1297
34.6371
34.1403
33.6414
33.1421
32.6431
32.1449
31.6478
31.1517
30.6566
30.1625
29.6692
29.1765
28.6844
28.1927
27.7013
27.2102
26.7193
26.2284
25.7375
25.2466
24.7555
24.2641
23.7723
23.28
22.7871
22.2934
21.7988
21.3032
20.8066
20.3091
19.811
19.313
18.816
18.3216
17.8323
17.3507
16.8808
37.0275
37.5121
37.8405
37.9831
37.9823
37.8554
37.6254
37.3145
36.9424
36.5259
36.0781
35.609
35.1263
34.6351
34.1392
33.6409
33.1419
32.6431
32.145
31.6478
31.1516
30.6565
30.1622
29.6687
29.1758
28.6835
28.1916
27.7
27.2087
26.7175
26.2264
25.7354
25.2442
24.7529
24.2614
23.7697
23.2775
22.785
22.2919
21.7982
21.3041
20.8095
20.3147
19.8202
19.3266
18.8351
18.3472
17.8651
17.3912
16.929
37.0275
37.512
37.8405
37.983
37.9823
37.8554
37.6254
37.3145
36.9424
36.5258
36.078
35.609
35.1262
34.635
34.1391
33.6408
33.1417
32.6429
32.1447
31.6474
31.1512
30.6559
30.1615
29.6679
29.1749
28.6825
28.1904
27.6987
27.2072
26.7158
26.2245
25.7332
25.2419
24.7505
24.2589
23.7672
23.2752
22.783
22.2906
21.7979
21.3051
20.8124
20.3201
19.8288
19.3393
18.8526
18.3703
17.8944
17.427
16.9711
37.0884
37.5746
37.9009
38.0375
38.0289
37.8937
37.6555
37.3373
36.9592
36.5377
36.0861
35.6143
35.1295
34.6368
34.1399
33.641
33.1415
32.6424
32.144
31.6467
31.1504
30.6551
30.1606
29.6669
29.1739
28.6813
28.1891
27.6972
27.2055
26.714
26.2225
25.7311
25.2396
24.7481
24.2565
23.7648
23.273
22.7812
22.2893
21.7975
21.306
20.815
20.325
19.8366
19.3506
18.8681
18.3906
17.9198
17.4578
17.0071
37.212
37.7014
38.023
38.1472
38.1226
37.9701
37.7155
37.3827
36.9923
36.5611
36.102
35.6246
35.1358
34.6404
34.1416
33.6414
33.1412
32.6416
32.143
31.6456
31.1492
30.6539
30.1594
29.6657
29.1726
28.6799
28.1877
27.6957
27.2039
26.7122
26.2205
25.7289
25.2373
24.7457
24.2541
23.7624
23.2708
22.7792
22.2879
21.7969
21.3065
20.8171
20.3291
19.8432
19.3602
18.8812
18.4077
17.9413
17.4837
17.0373
37.402
37.8956
38.2094
38.3138
38.2639
38.0847
37.8048
37.4498
37.0411
36.5954
36.1252
35.6396
35.145
34.6455
34.144
33.6421
33.1408
32.6405
32.1416
31.644
31.1476
30.6523
30.1579
29.6642
29.1711
28.6785
28.1861
27.6941
27.2021
26.7103
26.2185
25.7268
25.235
24.7433
24.2516
23.7599
23.2684
22.7771
22.2862
21.7958
21.3064
20.8183
20.332
19.8482
19.3677
18.8917
18.4215
17.9586
17.5046
17.0616
37.6641
38.1626
38.4641
38.5394
38.4537
38.2372
37.9225
37.5376
37.1043
36.6394
36.1546
35.6584
35.1563
34.6516
34.1467
33.6426
33.14
32.6391
32.1398
31.6421
31.1457
30.6505
30.1561
29.6625
29.1695
28.6768
28.1845
27.6924
27.2003
26.7084
26.2165
25.7246
25.2327
24.7408
24.249
23.7573
23.2658
22.7746
22.284
21.7942
21.3056
20.8185
20.3335
19.8514
19.373
18.8994
18.4318
17.9717
17.5205
17.0801
38.0073
38.51
38.7927
38.8273
38.6929
38.427
38.0674
37.6442
37.1802
36.6915
36.1891
35.6801
35.169
34.6583
34.1494
33.6428
33.1387
32.6371
32.1375
31.6397
31.1434
30.6483
30.1541
29.6606
29.1677
28.6751
28.1828
27.6906
27.1985
26.7065
26.2144
25.7223
25.2302
24.7382
24.2462
23.7544
23.2629
22.7718
22.2814
21.7919
21.3038
20.8175
20.3335
19.8527
19.3759
18.904
18.4385
17.9804
17.5314
17.0931
38.444
38.948
39.2027
39.1811
38.9823
38.6531
38.2373
37.7674
37.2665
36.7498
36.2268
35.7032
35.1821
34.6647
34.1515
33.6423
33.1368
32.6344
32.1346
31.6368
31.1407
30.6458
30.1518
29.6585
29.1657
28.6733
28.181
27.6888
27.1966
26.7045
26.2123
25.72
25.2277
24.7355
24.2433
23.7513
23.2597
22.7685
22.2781
21.7888
21.301
20.8151
20.3318
19.8519
19.3761
18.9056
18.4414
17.9849
17.5374
17.1004
38.9921
39.4907
39.7031
39.6049
39.3222
38.9136
38.4292
37.9039
37.3602
36.8117
36.2659
35.7264
35.1945
34.6701
34.1525
33.6408
33.134
32.631
32.131
31.6334
31.1375
30.643
30.1493
29.6563
29.1637
28.6714
28.1792
27.687
27.1948
26.7025
26.2101
25.7177
25.2252
24.7327
24.2402
23.748
23.2561
22.7647
22.2742
21.7848
21.297
20.8113
20.3284
19.8489
19.3738
18.904
18.4407
17.9851
17.5385
17.1023
39.677
40.1564
40.3055
40.103
39.7122
39.2052
38.6389
38.0493
37.4574
36.874
36.3038
35.7477
35.2049
34.6736
34.1519
33.6379
33.1299
32.6266
32.1267
31.6294
31.134
30.6398
30.1466
29.6539
29.1616
28.6694
28.1773
27.6852
27.1929
26.7005
26.208
25.7153
25.2225
24.7297
24.2369
23.7443
23.2521
22.7604
22.2695
21.7799
21.2919
20.8061
20.3231
19.8437
19.3687
18.8992
18.4362
17.981
17.5347
17.0988
40.5353
40.9695
41.0233
40.6791
40.1497
39.5226
38.8603
38.1981
37.5534
36.9331
36.3377
35.7651
35.2118
34.6741
34.1489
33.6331
33.1245
32.6211
32.1216
31.6249
31.13
30.6365
30.1437
29.6514
29.1594
28.6675
28.1755
27.6834
27.1911
26.6985
26.2058
25.7129
25.2198
24.7266
24.2335
23.7404
23.2477
22.7555
22.2641
21.774
21.2855
20.7993
20.3159
19.8362
19.3609
18.8912
18.428
17.9726
17.5262
17.09
41.6199
41.9614
41.8716
41.335
40.6298
39.858
39.0853
38.343
37.6426
36.9846
36.3646
35.7764
35.2137
34.6707
34.1428
33.626
33.1173
32.6145
32.1157
31.6198
31.1257
30.6328
30.1407
29.6489
29.1572
28.6655
28.1737
27.6816
27.1893
26.6966
26.2037
25.7105
25.2171
24.7235
24.2298
23.7362
23.2429
22.7501
22.258
21.7672
21.278
20.791
20.3069
19.8264
19.3504
18.88
18.4162
17.9601
17.5129
17.076
43.0082
43.1726
42.866
42.0693
41.1426
40.1995
39.303
38.4753
37.718
37.0235
36.3808
35.7792
35.209
34.6624
34.1331
33.6162
33.1083
32.6065
32.1089
31.6141
31.121
30.629
30.1376
29.6463
29.1551
28.6637
28.172
27.68
27.1876
26.6948
26.2017
25.7082
25.2143
24.7203
24.226
23.7318
23.2378
22.7441
22.2512
21.7594
21.2692
20.7812
20.296
19.8144
19.3373
18.8657
18.4007
17.9434
17.4951
17.0569
44.815
44.654
44.0199
42.8733
41.6717
40.5303
39.4991
38.5839
37.7719
37.0443
36.3827
35.771
35.1962
34.6481
34.1191
33.6035
33.0972
32.5971
32.1012
31.6078
31.116
30.625
30.1344
29.6438
29.153
28.6619
28.1704
27.6785
27.186
26.6931
26.1997
25.7059
25.2116
24.717
24.2222
23.7272
23.2323
22.7377
22.2438
21.7508
21.2593
20.7699
20.2833
19.8002
19.3215
18.8483
18.3816
17.9227
17.4726
17.0328
47.2149
46.4678
45.3386
43.7268
42.1906
40.8266
39.6554
38.6559
37.7954
37.0414
36.3667
35.7497
35.1738
34.6271
34.1005
33.5876
33.084
32.5864
32.0926
31.6011
31.1108
30.621
30.1313
29.6414
29.1511
28.6604
28.169
27.6772
27.1847
26.6916
26.1979
25.7037
25.209
24.7138
24.2183
23.7225
23.2266
22.7309
22.2357
21.7414
21.2484
20.7573
20.2689
19.7839
19.3032
18.8279
18.3591
17.8979
17.4457
17.0037
50.4756
48.6847
46.8106
44.5903
42.659
41.0568
39.7496
38.6767
37.7793
37.0091
36.3294
35.7131
35.1409
34.5987
34.0769
33.5685
33.0687
32.5744
32.0834
31.594
31.1054
30.617
30.1283
29.6392
29.1494
28.659
28.1679
27.6761
27.1835
26.6903
26.1963
25.7017
25.2065
24.7107
24.2144
23.7176
23.2207
22.7238
22.2272
21.7312
21.2365
20.7434
20.2529
19.7655
19.2824
18.8046
18.3331
17.8693
17.4144
16.9698
54.9764
51.3679
48.3914
45.3975
43.0198
41.181
39.7566
38.6311
37.7148
36.9423
36.268
35.6601
35.0967
34.5629
34.0484
33.5462
33.0515
32.5613
32.0735
31.5867
31.1001
30.6131
30.1255
29.6372
29.148
28.6579
28.167
27.6752
27.1826
26.6892
26.195
25.7
25.2042
24.7077
24.2105
23.7128
23.2147
22.7164
22.2182
21.7205
21.2237
20.7284
20.2353
19.7453
19.2594
18.7785
18.3039
17.837
17.3789
16.9311
61.2443
54.529
49.9589
46.0331
43.192
41.1497
39.6483
38.5042
37.5942
36.8375
36.181
35.59
35.0413
34.5198
34.0153
33.5211
33.0328
32.5474
32.0633
31.5794
31.0949
30.6095
30.123
29.6355
29.1469
28.6572
28.1664
27.6747
27.1821
26.6885
26.1939
25.6985
25.2021
24.7049
24.2069
23.7081
23.2088
22.709
22.209
21.7093
21.2102
20.7124
20.2165
19.7234
19.2342
18.7498
18.2717
17.801
17.3392
16.8877
70.7117
58.0847
51.1609
46.255
43.0363
40.8881
39.3862
38.2762
37.4077
36.6896
36.066
35.5017
34.9743
34.4695
33.9778
33.4935
33.0126
32.533
32.0531
31.5722
31.09
30.6063
30.121
29.6343
29.1462
28.6568
28.1663
27.6746
27.1819
26.6881
26.1932
25.6973
25.2004
24.7025
24.2035
23.7036
23.2029
22.7015
22.1996
21.6976
21.196
20.6953
20.1962
19.6996
19.2066
18.7182
18.2358
17.7608
17.2947
16.8389
88.223
61.7818
51.292
45.6607
42.3524
40.2992
38.9227
37.9231
37.1422
36.4913
35.9187
35.3928
34.8942
34.411
33.9355
33.4632
32.9912
32.518
32.0429
31.5654
31.0857
30.6037
30.1196
29.6337
29.1461
28.6571
28.1667
27.675
27.1821
26.6881
26.1929
25.6966
25.1991
24.7003
24.2004
23.6993
23.197
22.6938
22.1898
21.6853
21.1807
20.6767
20.1739
19.6731
19.1756
18.6824
18.195
17.7148
17.2435
16.7826
117.139
65.0807
50.6464
44.5472
41.3725
39.5568
38.3818
37.5317
36.8586
36.2855
35.7692
35.2844
34.816
34.3549
33.8956
33.4351
32.9717
32.5048
32.0341
31.5598
31.0823
30.6018
30.1188
29.6336
29.1464
28.6576
28.1673
27.6757
27.1827
26.6885
26.193
25.6962
25.1982
24.6987
24.1978
23.6956
23.1919
22.6869
22.1809
21.6739
21.1666
20.6593
20.1528
19.648
19.1461
18.6481
18.1557
17.6704
17.1939
16.7279
8.39502
10.3725
10.4857
10.878
11.0916
11.2447
11.3362
11.3865
11.4043
11.3969
11.3691
11.3248
11.2667
11.197
11.1175
11.0297
10.9347
10.8337
10.7274
10.6165
10.5019
10.3839
10.2631
10.1399
10.0146
9.88765
9.75925
9.62965
9.49906
9.36766
9.2356
9.10301
8.97001
8.83669
8.70314
8.56941
8.43557
8.30166
8.16772
8.03378
7.89986
7.76599
7.63217
7.49842
7.36474
7.23114
7.09761
6.96417
6.8308
6.69751
6.5643
6.43115
6.29807
6.16505
6.03209
5.89918
5.76631
5.63349
5.50071
5.36796
5.23525
5.10256
4.9699
4.83726
4.70464
4.57204
4.43945
4.30687
4.17431
4.04175
3.90921
3.77667
3.64413
3.5116
3.37907
3.24655
3.11403
2.98151
2.849
2.71648
2.58397
2.45146
2.31895
2.18644
2.05392
1.92141
1.7889
1.65639
1.52388
1.39137
1.25886
1.12635
0.99384
0.86133
0.728819
0.596309
0.463799
0.331286
0.198784
0.0662484
10.8522
11.4116
11.1153
11.2819
11.3764
11.4568
11.5007
11.5173
11.5098
11.4827
11.4391
11.3818
11.313
11.2343
11.1473
11.0531
10.9528
10.8472
10.7372
10.6232
10.506
10.3859
10.2634
10.1388
10.0125
9.88478
9.7558
9.6258
9.49496
9.36342
9.23133
9.09879
8.96589
8.83273
8.69936
8.56584
8.43223
8.29855
8.16485
8.03115
7.89746
7.76381
7.6302
7.49664
7.36315
7.22972
7.09636
6.96306
6.82983
6.69667
6.56356
6.43051
6.29752
6.16458
6.03168
5.89883
5.76602
5.63325
5.50051
5.3678
5.23511
5.10245
4.96981
4.83719
4.70459
4.572
4.43942
4.30686
4.1743
4.04175
3.90921
3.77667
3.64414
3.51161
3.37909
3.24657
3.11405
2.98153
2.84901
2.7165
2.58398
2.45147
2.31896
2.18645
2.05394
1.92142
1.78891
1.6564
1.52389
1.39138
1.25887
1.12636
0.993845
0.861334
0.728822
0.596311
0.4638
0.331287
0.198781
0.066254
12.1987
12.1664
11.6878
11.6783
11.6663
11.6757
11.6714
11.6531
11.6193
11.5716
11.5116
11.4409
11.3609
11.273
11.1782
11.0774
10.9716
10.8615
10.7475
10.6304
10.5105
10.3882
10.264
10.138
10.0107
9.88208
9.75249
9.62206
9.49094
9.35926
9.22711
9.0946
8.9618
8.82878
8.69559
8.56228
8.42888
8.29544
8.16197
8.0285
7.89504
7.7616
7.62821
7.49485
7.36155
7.22829
7.09509
6.96194
6.82885
6.6958
6.56281
6.42986
6.29695
6.16409
6.03127
5.89848
5.76573
5.633
5.5003
5.36763
5.23498
5.10234
4.96973
4.83712
4.70454
4.57196
4.4394
4.30684
4.17429
4.04175
3.90921
3.77668
3.64415
3.51162
3.3791
3.24658
3.11406
2.98154
2.84903
2.71651
2.584
2.45148
2.31897
2.18646
2.05395
1.92143
1.78892
1.65641
1.5239
1.39139
1.25887
1.12636
0.99385
0.861337
0.728825
0.596313
0.463801
0.331288
0.198778
0.0662593
13.1207
12.7592
12.1961
12.0526
11.9512
11.8955
11.8446
11.7916
11.7312
11.6627
11.5859
11.5015
11.4101
11.3127
11.2099
11.1025
10.9911
10.8762
10.7583
10.6379
10.5153
10.3909
10.2648
10.1375
10.009
9.87952
9.74929
9.61841
9.487
9.35515
9.22294
9.09044
8.95773
8.82484
8.69182
8.55871
8.42553
8.29231
8.15907
8.02583
7.8926
7.75938
7.6262
7.49304
7.35992
7.22684
7.0938
6.9608
6.82784
6.69492
6.56204
6.42919
6.29638
6.1636
6.03085
5.89812
5.76542
5.63275
5.50009
5.36745
5.23483
5.10223
4.96963
4.83705
4.70448
4.57192
4.43937
4.30682
4.17428
4.04174
3.90921
3.77668
3.64415
3.51163
3.37911
3.24659
3.11407
2.98156
2.84904
2.71653
2.58401
2.4515
2.31898
2.18647
2.05396
1.92144
1.78893
1.65642
1.52391
1.39139
1.25888
1.12637
0.993854
0.861341
0.728828
0.596315
0.463802
0.331289
0.198775
0.0662645
13.7908
13.2442
12.6424
12.3992
12.225
12.1115
12.0172
11.9306
11.8442
11.7548
11.6612
11.5629
11.4601
11.3531
11.2423
11.1281
11.011
10.8913
10.7695
10.6457
10.5204
10.3937
10.2658
10.137
10.0074
9.87704
9.74617
9.61483
9.4831
9.35107
9.21879
9.08631
8.95367
8.82091
8.68805
8.55513
8.42217
8.28918
8.15617
8.02316
7.89015
7.75715
7.62418
7.49122
7.35829
7.22538
7.0925
6.95965
6.82683
6.69404
6.56126
6.42852
6.2958
6.1631
6.03042
5.89776
5.76511
5.63249
5.49987
5.36727
5.23469
5.10211
4.96954
4.83698
4.70442
4.57188
4.43933
4.3068
4.17426
4.04173
3.90921
3.77668
3.64416
3.51164
3.37912
3.2466
3.11409
2.98157
2.84905
2.71654
2.58402
2.45151
2.319
2.18648
2.05397
1.92145
1.78894
1.65643
1.52391
1.3914
1.25889
1.12637
0.993859
0.861345
0.728831
0.596318
0.463803
0.33129
0.198772
0.0662696
14.2834
13.6456
13.0317
12.7164
12.484
12.3206
12.1866
12.0685
11.9569
11.8471
11.7368
11.6247
11.5104
11.3938
11.2749
11.1539
11.0311
10.9066
10.7807
10.6537
10.5256
10.3966
10.2669
10.1366
10.0058
9.87463
9.74309
9.61128
9.47924
9.34702
9.21466
9.08218
8.94962
8.81698
8.68429
8.55156
8.41881
8.28604
8.15326
8.02047
7.88769
7.75491
7.62215
7.48939
7.35664
7.22391
7.0912
6.9585
6.82581
6.69314
6.56048
6.42784
6.29521
6.16259
6.02998
5.89739
5.7648
5.63222
5.49965
5.36709
5.23454
5.10199
4.96944
4.8369
4.70437
4.57183
4.4393
4.30678
4.17425
4.04173
3.90921
3.77669
3.64417
3.51165
3.37913
3.24662
3.1141
2.98158
2.84907
2.71655
2.58404
2.45152
2.31901
2.18649
2.05398
1.92147
1.78895
1.65644
1.52392
1.39141
1.25889
1.12638
0.993864
0.861349
0.728835
0.59632
0.463805
0.331291
0.19877
0.0662745
14.6568
13.9824
13.3708
13.0044
12.7263
12.5203
12.351
12.2036
12.068
11.9386
11.8119
11.6863
11.5606
11.4344
11.3075
11.1797
11.0512
10.9219
10.7921
10.6616
10.5308
10.3995
10.268
10.1363
10.0043
9.87223
9.74003
9.60774
9.47538
9.34298
9.21054
9.07806
8.94557
8.81305
8.68053
8.54799
8.41545
8.2829
8.15034
8.01779
7.88523
7.75267
7.62011
7.48755
7.355
7.22244
7.08989
6.95734
6.82479
6.69224
6.5597
6.42716
6.29462
6.16208
6.02955
5.89702
5.76449
5.63196
5.49943
5.36691
5.23439
5.10186
4.96934
4.83682
4.70431
4.57179
4.43927
4.30675
4.17424
4.04172
3.9092
3.77669
3.64417
3.51166
3.37914
3.24663
3.11411
2.9816
2.84908
2.71657
2.58405
2.45154
2.31902
2.18651
2.05399
1.92148
1.78896
1.65645
1.52393
1.39141
1.2589
1.12638
0.993869
0.861353
0.728838
0.596322
0.463806
0.331292
0.198768
0.0662792
14.9507
14.2691
13.6668
13.2648
12.9512
12.7094
12.5088
12.3348
12.1767
12.0284
11.886
11.7471
11.6103
11.4747
11.3398
11.2054
11.0711
10.9371
10.8033
10.6695
10.5359
10.4024
10.2691
10.1359
10.0028
9.8698
9.73695
9.60419
9.47152
9.33893
9.20641
9.07394
8.94152
8.80913
8.67676
8.54442
8.41209
8.27976
8.14743
8.0151
7.88277
7.75043
7.61808
7.48572
7.35335
7.22097
7.08858
6.95618
6.82376
6.69134
6.55891
6.42647
6.29403
6.16157
6.02911
5.89664
5.76417
5.63169
5.49921
5.36673
5.23424
5.10174
4.96925
4.83675
4.70425
4.57174
4.43924
4.30673
4.17422
4.04171
3.9092
3.77669
3.64418
3.51167
3.37915
3.24664
3.11413
2.98161
2.8491
2.71658
2.58407
2.45155
2.31903
2.18652
2.054
1.92149
1.78897
1.65645
1.52394
1.39142
1.25891
1.12639
0.993873
0.861357
0.728841
0.596324
0.463807
0.331293
0.198766
0.0662837
15.1898
14.516
13.9258
13.4997
13.1585
12.887
12.6591
12.4609
12.282
12.116
11.9585
11.8068
11.6591
11.5143
11.3716
11.2305
11.0907
10.952
10.8142
10.6772
10.5409
10.4052
10.27
10.1354
10.0012
9.86733
9.73382
9.60061
9.46763
9.33487
9.20227
9.06981
8.93746
8.8052
8.673
8.54085
8.40873
8.27662
8.14452
8.01242
7.88031
7.74819
7.61605
7.48389
7.3517
7.2195
7.08727
6.95502
6.82274
6.69045
6.55813
6.42579
6.29344
6.16106
6.02868
5.89627
5.76386
5.63143
5.49899
5.36654
5.23409
5.10162
4.96915
4.83667
4.70419
4.5717
4.43921
4.30671
4.17421
4.04171
3.9092
3.77669
3.64419
3.51168
3.37916
3.24665
3.11414
2.98162
2.84911
2.71659
2.58408
2.45156
2.31905
2.18653
2.05401
1.9215
1.78898
1.65646
1.52395
1.39143
1.25891
1.1264
0.993878
0.861361
0.728844
0.596327
0.463808
0.331294
0.198764
0.0662879
15.3895
14.7309
14.1535
13.7113
13.3488
13.0528
12.8011
12.5812
12.3832
12.2005
12.0287
11.8648
11.7066
11.5529
11.4026
11.255
11.1098
10.9665
10.8248
10.6846
10.5456
10.4077
10.2708
10.1348
9.99943
9.86475
9.73062
9.59696
9.4637
9.33077
9.1981
9.06566
8.9334
8.80127
8.66924
8.53728
8.40537
8.27349
8.14162
8.00975
7.87786
7.74596
7.61402
7.48206
7.35007
7.21804
7.08597
6.95387
6.82173
6.68956
6.55735
6.42512
6.29285
6.16056
6.02824
5.89591
5.76355
5.63117
5.49877
5.36636
5.23394
5.1015
4.96905
4.83659
4.70413
4.57165
4.43917
4.30669
4.1742
4.0417
3.9092
3.7767
3.64419
3.51169
3.37918
3.24666
3.11415
2.98164
2.84912
2.71661
2.58409
2.45158
2.31906
2.18654
2.05402
1.92151
1.78899
1.65647
1.52395
1.39144
1.25892
1.1264
0.993883
0.861365
0.728847
0.596329
0.46381
0.331295
0.198762
0.0662918
15.5601
14.9193
14.3544
13.9018
13.5229
13.2066
12.9345
12.6953
12.4798
12.2817
12.0964
11.9207
11.7525
11.5901
11.4325
11.2787
11.1281
10.9803
10.8349
10.6915
10.55
10.41
10.2714
10.1339
9.99754
9.86205
9.72732
9.59324
9.4597
9.32662
9.19391
9.06149
8.92932
8.79732
8.66547
8.53371
8.40202
8.27036
8.13872
8.00708
7.87542
7.74374
7.61201
7.48025
7.34844
7.21658
7.08468
6.95272
6.82072
6.68867
6.55658
6.42445
6.29227
6.16006
6.02782
5.89554
5.76324
5.63091
5.49856
5.36618
5.23379
5.10138
4.96896
4.83652
4.70407
4.57161
4.43914
4.30667
4.17418
4.04169
3.9092
3.7767
3.6442
3.51169
3.37919
3.24668
3.11417
2.98165
2.84914
2.71662
2.58411
2.45159
2.31907
2.18655
2.05404
1.92152
1.789
1.65648
1.52396
1.39144
1.25893
1.12641
0.993888
0.861369
0.72885
0.596332
0.463811
0.331296
0.19876
0.0662955
15.7083
15.0856
14.5322
14.0731
13.6817
13.3486
13.0589
12.8025
12.5712
12.3588
12.1609
11.9742
11.7965
11.6258
11.4611
11.3012
11.1455
10.9934
10.8443
10.6979
10.5539
10.4118
10.2716
10.1329
9.99545
9.85918
9.72388
9.58941
9.45562
9.32241
9.18966
9.05729
8.92522
8.79337
8.6617
8.53015
8.39868
8.26725
8.13584
8.00443
7.873
7.74153
7.61002
7.47846
7.34683
7.21515
7.0834
6.95159
6.81973
6.6878
6.55582
6.42379
6.2917
6.15957
6.0274
5.89519
5.76294
5.63066
5.49835
5.36601
5.23365
5.10127
4.96887
4.83645
4.70402
4.57157
4.43911
4.30665
4.17417
4.04169
3.9092
3.77671
3.64421
3.5117
3.3792
3.24669
3.11418
2.98167
2.84915
2.71664
2.58412
2.4516
2.31908
2.18657
2.05405
1.92153
1.78901
1.65649
1.52397
1.39145
1.25893
1.12641
0.993893
0.861373
0.728854
0.596334
0.463813
0.331297
0.198759
0.0662988
15.8386
15.233
14.69
14.227
13.826
13.4791
13.1743
12.9028
12.6572
12.4317
12.222
12.025
11.8382
11.6597
11.4882
11.3225
11.1619
11.0056
10.853
10.7037
10.5573
10.4133
10.2714
10.1315
9.9931
9.85611
9.72029
9.58545
9.45145
9.31813
9.18536
9.05305
8.92109
8.78941
8.65792
8.52659
8.39534
8.26415
8.13298
8.0018
7.8706
7.73935
7.60805
7.47668
7.34524
7.21373
7.08214
6.95048
6.81875
6.68695
6.55507
6.42314
6.29114
6.15909
6.02699
5.89484
5.76265
5.63041
5.49814
5.36584
5.23351
5.10116
4.96878
4.83638
4.70396
4.57153
4.43909
4.30663
4.17416
4.04169
3.9092
3.77671
3.64422
3.51171
3.37921
3.2467
3.11419
2.98168
2.84917
2.71665
2.58413
2.45161
2.3191
2.18658
2.05406
1.92154
1.78902
1.6565
1.52398
1.39146
1.25894
1.12642
0.993898
0.861377
0.728857
0.596337
0.463815
0.331298
0.198758
0.0663019
15.9541
15.3641
14.8303
14.3653
13.9568
13.5985
13.2807
12.9959
12.7374
12.4999
12.2795
12.0727
11.8774
11.6915
11.5135
11.3424
11.177
11.0168
10.8609
10.7088
10.5601
10.4142
10.2709
10.1297
9.99047
9.8528
9.7165
9.58135
9.44716
9.31376
9.181
9.04877
8.91694
8.78543
8.65415
8.52303
8.39202
8.26107
8.13013
7.99919
7.86822
7.73719
7.6061
7.47493
7.34367
7.21233
7.08091
6.94939
6.81779
6.68611
6.55434
6.42251
6.2906
6.15862
6.02659
5.8945
5.76236
5.63017
5.49795
5.36568
5.23338
5.10105
4.96869
4.83632
4.70391
4.5715
4.43906
4.30661
4.17415
4.04168
3.9092
3.77672
3.64422
3.51173
3.37922
3.24672
3.11421
2.98169
2.84918
2.71666
2.58415
2.45163
2.31911
2.18659
2.05407
1.92155
1.78903
1.65651
1.52399
1.39147
1.25894
1.12642
0.993903
0.861382
0.72886
0.596339
0.463816
0.331299
0.198757
0.0663046
16.057
15.4807
14.9551
14.4892
14.0748
13.7071
13.3782
13.0817
12.8117
12.5633
12.3329
12.1172
11.9138
11.721
11.5369
11.3606
11.1908
11.0268
10.8677
10.713
10.5621
10.4146
10.2698
10.1276
9.98751
9.84923
9.7125
9.57707
9.44273
9.30929
9.17657
9.04444
8.91276
8.78143
8.65036
8.51948
8.38871
8.258
8.12731
7.99661
7.86587
7.73506
7.60418
7.4732
7.34214
7.21097
7.0797
6.94832
6.81685
6.68529
6.55363
6.42189
6.29007
6.15817
6.0262
5.89417
5.76209
5.62995
5.49776
5.36552
5.23325
5.10095
4.96862
4.83625
4.70387
4.57146
4.43904
4.3066
4.17415
4.04168
3.90921
3.77672
3.64423
3.51174
3.37924
3.24673
3.11422
2.98171
2.84919
2.71668
2.58416
2.45164
2.31912
2.1866
2.05408
1.92156
1.78904
1.65652
1.52399
1.39147
1.25895
1.12643
0.993908
0.861386
0.728864
0.596342
0.463818
0.331301
0.198757
0.066307
16.1488
15.5845
15.0659
14.5999
14.181
13.8055
13.467
13.1602
12.8799
12.6217
12.3821
12.1581
11.9474
11.7479
11.5583
11.377
11.2031
11.0355
10.8735
10.7163
10.5634
10.4142
10.2683
10.125
9.98417
9.84535
9.70826
9.57261
9.43816
9.30471
9.17205
9.04005
8.90854
8.77742
8.64658
8.51593
8.38541
8.25495
8.12452
7.99406
7.86355
7.73296
7.60229
7.47151
7.34063
7.20963
7.07851
6.94728
6.81594
6.68449
6.55294
6.4213
6.28956
6.15773
6.02583
5.89386
5.76182
5.62973
5.49758
5.36538
5.23314
5.10086
4.96854
4.8362
4.70383
4.57143
4.43902
4.30659
4.17414
4.04168
3.90921
3.77673
3.64425
3.51175
3.37925
3.24675
3.11424
2.98172
2.84921
2.71669
2.58417
2.45165
2.31913
2.18661
2.05409
1.92157
1.78905
1.65652
1.524
1.39148
1.25896
1.12643
0.993912
0.86139
0.728867
0.596345
0.46382
0.331302
0.198757
0.066309
16.2307
15.6768
15.1642
14.6985
14.276
13.8939
13.5473
13.2314
12.9419
12.6748
12.4269
12.1953
11.9777
11.7723
11.5773
11.3915
11.2137
11.0428
10.8781
10.7186
10.5639
10.4132
10.2661
10.1219
9.98043
9.84115
9.70375
9.56793
9.43342
9.3
9.16745
9.0356
8.90428
8.77339
8.64279
8.51239
8.38213
8.25193
8.12175
7.99154
7.86126
7.7309
7.60044
7.46986
7.33915
7.20832
7.07736
6.94627
6.81506
6.68373
6.55228
6.42072
6.28907
6.15732
6.02548
5.89356
5.76158
5.62952
5.49741
5.36524
5.23303
5.10077
4.96848
4.83615
4.70379
4.57141
4.43901
4.30658
4.17414
4.04169
3.90922
3.77674
3.64426
3.51176
3.37927
3.24676
3.11425
2.98174
2.84922
2.71671
2.58419
2.45167
2.31915
2.18663
2.0541
1.92158
1.78906
1.65653
1.52401
1.39149
1.25896
1.12644
0.993917
0.861394
0.728871
0.596347
0.463822
0.331303
0.198757
0.0663107
16.3035
15.7584