/*--------------------------------*- C++ -*----------------------------------*\
  =========                 |
  \\      /  F ield         | OpenFOAM: The Open Source CFD Toolbox
   \\    /   O peration     | Website:  https://openfoam.org
    \\  /    A nd           | Version:  6
     \\/     M anipulation  |
\*---------------------------------------------------------------------------*/
FoamFile
{
    version     2.0;
    format      ascii;
    class       volScalarField;
    location    "0";
    object      p;
}
// * * * * * * * * * * * * * * * * * * * * * * * * * * * * * * * * * * * * * //

dimensions      [0 2 -2 0 0 0 0];

internalField   nonuniform List<scalar> 
918
(
2.57653
5.20185
0.261634
2.74128
0.068756
4.30018
0.0412449
1.76804
2.87649
0.708106
0.346002
2.14459
1.71576
1.41222
1.36
0.206181
2.06994
-0.00768877
2.13119
0.143901
-1.70568
2.66365
2.4448
2.12556
2.13072
0.706057
1.76807
-0.274875
-0.242982
-0.157903
0.159299
0.419877
0.326158
1.61059
3.58242
4.51228
2.04492
1.4316
0.280232
0.361841
0.114959
-0.0943834
1.82121
1.88111
1.17025
1.71295
1.61026
2.13292
2.7357
2.90459
2.48699
2.69063
2.84113
0.770104
0.629979
0.480414
0.767372
0.608927
0.430772
0.361236
0.453954
0.333806
0.421325
2.00806
2.12641
2.13617
2.15871
2.13656
4.55845
5.28737
5.79602
1.72492
2.69791
2.15112
2.0658
1.74589
1.76689
1.68207
1.65508
1.08718
0.523775
1.59953
1.78211
-0.0824472
0.174048
0.229538
2.072
2.10355
2.05329
2.03546
1.34511
0.0161256
-0.197175
2.10933
2.1096
2.81653
2.56771
2.24151
2.09544
0.11784
0.194498
0.00250239
0.175191
0.116927
0.0130555
0.591405
2.08114
2.1047
2.116
2.14961
2.11838
1.81356
2.20131
2.16022
1.87639
1.14674
1.2649
1.0814
1.81789
1.85792
1.81888
1.56986
-0.145992
0.0414403
0.238029
0.28688
0.267027
2.04352
2.03284
2.10977
2.0605
2.05725
1.33764
1.31553
1.41379
1.49562
0.7416
0.78026
-0.043249
0.0309144
-0.185116
1.55428
1.92858
1.93608
1.02299
1.22879
1.03644
1.27967
1.32225
2.04436
2.11368
2.07783
2.10555
2.17149
2.14028
2.74634
2.72187
2.93102
0.788651
0.823414
0.742485
0.700782
0.248766
0.298687
0.273531
0.484722
0.598375
0.518475
0.514187
0.347602
0.286726
0.67067
0.562522
0.613652
0.490054
0.296806
1.98102
1.96353
2.03477
2.03666
2.07464
2.06336
2.15467
2.11136
1.99856
2.12158
2.05967
2.07897
0.0331533
-1.96166
2.19125
2.10117
0.00595789
-0.0866505
-0.0306837
-0.182999
-0.0552318
-0.0573357
0.174808
0.112499
0.295833
0.218313
2.13293
2.15838
1.34717
1.42392
1.2681
1.14989
2.10089
2.1284
2.12048
2.12463
0.114926
0.284566
0.208205
1.50282
1.07385
1.29083
1.76984
1.6731
1.83859
1.85787
2.14857
2.12621
2.1447
1.99031
1.63893
1.8416
1.81325
1.44304
1.30694
2.20096
3.60106
1.6651
2.04098
2.03287
2.04664
2.07013
2.13274
2.10356
2.08377
2.08846
2.08637
1.252
1.16535
1.45249
1.3487
1.50325
1.44994
1.48143
1.52582
1.99803
1.93693
1.97488
1.51327
1.44447
0.644011
0.661966
1.89521
1.95195
1.9274
1.9168
1.90595
1.97073
1.95322
1.85237
1.86197
0.988578
-0.0666771
0.70587
2.02886
2.08712
1.95625
0.219676
0.22253
0.215464
1.4405
1.42579
0.865795
0.967842
0.94982
1.59989
1.75769
1.7967
1.73249
2.0765
1.76515
1.73358
1.56358
1.475
1.54571
1.52143
1.54124
1.66072
1.48392
1.52045
0.552653
0.684064
0.634134
1.34931
1.49451
1.44905
2.13772
2.10846
-0.0733747
0.0507056
2.36673
2.43384
-0.322762
0.0402814
1.95195
1.45477
1.61337
2.11344
2.01936
2.2287
0.547662
0.475524
0.176589
0.269099
0.0252563
2.0377
1.92767
1.91185
-0.0990677
-0.00603673
-0.139153
0.292571
2.24806
2.17981
2.20439
2.28242
2.29441
0.143762
0.0731377
0.0623163
0.154518
0.157605
0.273808
2.03743
2.03875
0.535837
2.20318
2.28461
2.28189
2.23182
2.24528
2.19065
0.174487
0.155005
0.263729
1.74112
1.78579
1.38127
0.4543
2.1109
1.95335
2.19745
1.86981
1.299
1.65893
1.09225
1.89246
1.74355
1.71443
1.4632
1.75694
1.7403
2.16483
2.18786
2.04998
2.1091
2.22316
1.99332
2.2533
2.1393
2.10689
2.26038
0.678634
0.850813
0.690532
0.479461
0.563166
0.898547
0.619397
0.739211
0.499419
0.257025
0.392805
0.331684
0.433252
0.178857
0.376208
0.423119
0.468153
0.29737
0.418857
0.235234
0.741708
0.532604
2.02151
2.10876
2.08069
2.17728
1.92968
2.07099
2.01827
1.97609
2.01768
1.87548
1.9416
1.93891
0.148386
0.238195
0.26131
0.0273052
0.273616
0.265171
0.455404
0.284624
0.120667
0.223964
-0.0616952
0.220108
0.466061
0.369415
1.2745
1.08109
0.394875
2.04495
2.24688
2.17212
2.20744
2.21917
2.30547
2.21965
2.18012
2.07321
2.15439
2.08777
2.12355
0.806485
0.643428
0.772063
0.980172
1.08192
2.09967
1.9372
1.83703
1.86247
1.90908
2.58496
2.87105
-0.643724
-1.7507
1.83835
2.03539
1.85012
2.10621
2.04735
2.03353
1.48181
1.2484
1.65629
1.96947
0.979606
1.80879
1.2125
1.09753
1.46558
1.39792
1.0819
1.92483
1.93311
1.70547
1.60236
1.84921
1.80602
1.84458
1.83524
1.84024
1.89167
1.80886
1.8139
1.72231
2.00131
1.88908
1.90859
1.8612
2.20311
2.21796
2.15441
2.0609
2.21049
2.09834
2.11961
2.02124
2.01051
2.16235
2.09655
2.05629
0.791016
0.653401
0.841869
0.612262
0.800256
0.563748
0.79683
0.825978
0.750086
0.720524
0.948885
0.732195
0.80916
0.82667
0.667116
0.927413
0.86855
0.868164
0.478114
0.700405
0.789237
0.634275
0.591865
0.210951
0.308858
0.795284
0.446263
0.377226
0.568195
0.610347
0.382192
0.571694
0.442569
0.355759
0.44812
0.616643
0.356749
0.499925
0.185565
0.125317
0.0244035
0.186544
0.392225
0.508222
2.14943
2.10718
2.09551
2.14152
2.22533
2.16203
2.03293
2.06897
2.24144
2.10943
2.07121
2.06962
1.92434
2.0465
2.0492
2.05494
2.13664
2.12507
2.08657
2.10606
2.09577
2.0977
1.92406
2.03766
2.04091
0.246105
0.429066
0.423494
0.405217
0.269443
0.410612
0.564254
0.126036
0.331453
0.328006
0.287016
0.381688
0.332406
0.679633
0.648719
0.856019
0.53205
0.490811
1.30132
1.27612
1.2448
1.08864
1.19425
1.25933
1.34838
1.13575
0.982453
1.01498
1.2871
1.38561
2.17045
2.13266
2.16753
2.27659
2.20122
1.26472
1.42135
1.34421
1.75591
1.3099
1.47177
1.31842
1.47465
1.42715
1.52043
2.0418
2.0706
2.06025
2.13246
2.12895
1.80636
1.99516
1.92094
2.11585
1.99876
1.97667
2.14459
2.067
1.92208
1.98145
1.99389
2.05709
2.02062
1.96766
2.0383
2.09753
2.0459
1.99838
2.04145
2.17686
1.95527
2.08194
2.21357
2.16681
1.94146
1.97252
2.01307
2.01502
1.97258
2.01963
1.96073
1.31786
1.21783
1.39443
1.39986
1.24114
1.14118
1.30144
1.21045
1.3905
1.30332
1.0644
0.571305
1.70809
1.75535
1.96865
1.36184
1.56964
1.74768
1.67713
1.39202
1.32572
1.95857
1.95377
1.98416
1.85204
1.78837
1.81124
1.75328
1.85811
1.66997
1.3575
1.74725
1.67443
1.69231
1.76418
1.71318
1.70661
1.74878
1.943
1.84685
1.80602
1.91023
1.73393
1.7994
1.92715
1.93708
2.05924
1.93046
1.77086
1.94051
1.85735
1.85524
1.90732
1.91116
2.10228
2.05502
2.11581
2.12057
2.01391
2.08178
1.98564
2.11414
2.11362
2.16814
2.16582
0.255933
0.486579
0.765724
0.586879
0.447625
0.694315
1.11438
1.02953
0.845807
0.974287
0.728999
0.87382
0.695761
0.485983
0.790858
0.715077
0.578236
0.704737
1.12254
1.14361
1.06858
0.999052
1.09809
0.928137
1.0959
0.452713
0.82393
0.572572
0.678465
0.538766
0.354728
0.446402
0.132573
0.427508
0.092793
0.0591413
0.239011
0.247593
0.286488
0.212715
0.182455
2.0197
2.11794
2.15763
2.12216
2.08657
2.13062
2.07884
2.23566
2.15616
2.14988
2.2148
2.12803
2.13111
0.460515
0.750974
0.807439
0.168766
0.601517
0.134819
-0.0768512
1.27614
0.946457
0.891249
0.772433
0.750373
0.830297
1.28044
1.189
1.372
1.49657
1.61751
1.50129
1.31031
1.45963
1.36348
1.4943
1.48221
1.25602
1.35855
1.40488
1.41037
1.46009
1.79868
1.83119
1.26008
1.5786
1.34559
1.67938
1.65049
1.58352
1.68011
1.46426
1.35021
1.04814
1.1373
1.51524
1.26342
1.55801
1.43617
1.2899
1.42161
1.60043
2.05196
2.02266
2.05684
2.07372
2.05953
2.14418
1.98424
2.09616
2.20672
2.22854
1.08691
1.0552
1.33084
1.75826
2.01093
1.92187
1.84021
2.07229
1.98632
2.01939
1.89932
1.85959
1.81225
1.84479
1.83303
1.75165
1.82172
1.70143
1.7744
1.67324
1.72419
1.9192
1.87573
1.94312
1.92659
1.90906
1.96525
1.94241
2.11776
1.96981
2.05265
2.12488
2.17233
0.79401
0.446026
0.680482
0.772617
0.57478
0.323776
0.354735
0.329222
0.586767
0.706518
0.487394
0.584824
1.20417
1.16215
0.647835
1.05988
1.27755
0.910989
1.1073
0.8482
0.901065
1.11506
1.34478
1.36661
1.48093
1.46991
1.21558
1.39683
1.37186
1.35193
1.32883
1.22833
1.19006
1.76225
0.95118
1.41373
2.15432
2.07699
1.84259
1.79511
1.76526
1.79558
1.89822
1.81167
1.80741
1.8833
1.79839
1.31699
1.36439
1.62445
1.67137
1.53727
1.41364
1.50293
1.59935
1.70074
)
;

boundaryField
{
    wall-4
    {
        type            zeroGradient;
    }
    velocity-inlet-5
    {
        type            zeroGradient;
    }
    velocity-inlet-6
    {
        type            zeroGradient;
    }
    pressure-outlet-7
    {
        type            fixedValue;
        value           uniform 0;
    }
    wall-8
    {
        type            zeroGradient;
    }
    frontAndBackPlanes
    {
        type            empty;
    }
}

