/*--------------------------------*- C++ -*----------------------------------*\
  =========                 |
  \\      /  F ield         | OpenFOAM: The Open Source CFD Toolbox
   \\    /   O peration     | Website:  https://openfoam.org
    \\  /    A nd           | Version:  6
     \\/     M anipulation  |
\*---------------------------------------------------------------------------*/
FoamFile
{
    version     2.0;
    format      ascii;
    class       volVectorField;
    location    "0";
    object      U;
}
// * * * * * * * * * * * * * * * * * * * * * * * * * * * * * * * * * * * * * //

dimensions      [0 1 -1 0 0 0 0];

internalField   nonuniform List<vector> 
918
(
(0.508125 -0.31929 0)
(0.493915 2.5737 0)
(-0.375493 1.66391 0)
(0.441111 0.256083 0)
(0.46799 1.82951 -2.28487e-19)
(-0.498261 2.24539 -6.08963e-18)
(1.10665 1.83706 -2.44614e-20)
(0.432202 0.252615 -2.61403e-20)
(0.501483 0.00392835 0)
(0.0053063 1.81065 0)
(0.00217757 1.74586 0)
(0.951481 0.000879162 0)
(0.20101 3.07486 0)
(0.168009 2.99042 0)
(-0.10097 2.56175 -9.84059e-19)
(-0.00475775 1.72859 -1.1922e-19)
(0.690252 0.172735 2.09852e-18)
(0.13154 2.10026 -6.70071e-20)
(0.977982 0.0181436 0)
(0.0018192 1.74308 0)
(-0.290097 -0.235016 9.68023e-19)
(0.314935 -0.0724611 0)
(0.858135 0.122547 0)
(1.073 0.0227842 0)
(0.868718 0.0245969 0)
(0.138057 3.18792 0)
(-0.0171588 2.95724 1.12342e-18)
(-0.651585 1.86581 0)
(-0.0294181 1.71879 0)
(-0.187768 1.80749 0)
(-0.0394419 1.55665 0)
(-0.289749 1.57482 1.78196e-19)
(-0.0105202 1.72748 0)
(-1.15926 3.06405 -9.62428e-23)
(-0.156014 2.81012 5.23899e-18)
(0.0461848 2.77833 0)
(0.995072 -0.00243576 0)
(0.854054 1.35056 5.95728e-19)
(1.11045 1.70431 4.06283e-19)
(1.25874 1.61617 -3.72334e-19)
(0.943293 1.89599 9.82478e-22)
(0.906857 2.01935 5.51505e-20)
(0.453944 0.311763 2.54549e-20)
(0.505985 0.259269 0)
(1.39412 0.837994 0)
(0.354375 0.315381 1.06695e-19)
(0.337744 0.222631 -1.11236e-19)
(0.99383 -0.00428359 0)
(0.956842 0.00675718 0)
(0.502337 0.00669465 0)
(0.973408 -0.191103 0)
(0.922852 0.0282973 0)
(0.513523 0.0523594 0)
(0.00612454 1.63156 -9.73326e-19)
(0.0449303 1.84401 0)
(0.0134124 1.86214 0)
(0.0128765 1.81447 0)
(0.00236248 1.80552 0)
(0.00189922 1.73505 0)
(0.0138623 1.75891 0)
(0.000717362 1.75807 0)
(-0.00811966 1.74835 0)
(-0.00102109 1.73955 0)
(1.01976 -9.91331e-05 0)
(0.963125 0.0147051 0)
(0.966329 0.000814166 0)
(0.950517 0.00886918 0)
(0.942339 0.00116314 0)
(-0.34286 2.43069 2.03172e-18)
(0.661928 2.31866 0)
(0.0433262 1.96587 0)
(0.324821 3.20929 1.04848e-23)
(-0.171633 3.19253 -3.03873e-18)
(0.00300698 3.00696 0)
(-0.0135496 2.99132 0)
(0.243483 3.02979 2.90475e-24)
(0.0252964 2.97319 0)
(-0.222716 2.97268 0)
(-0.197015 3.0095 0)
(0.157674 2.62709 0)
(-0.0276895 2.92828 0)
(-0.03453 2.6005 8.29529e-19)
(-0.0499522 2.61622 0)
(-0.000298021 1.73549 0)
(-0.0212973 1.7396 1.17569e-19)
(-0.00173905 1.73902 -1.55248e-19)
(0.715661 0.17699 -7.30531e-19)
(0.726211 0.140597 -7.21933e-19)
(0.678206 0.215962 -2.19633e-18)
(0.653822 0.204847 -1.39849e-18)
(0.152138 1.41827 0)
(0.340733 2.10375 -5.17485e-20)
(0.406861 2.17918 1.13581e-19)
(1.00034 0.00286633 0)
(0.992298 -9.76286e-06 0)
(0.489334 -0.00275333 0)
(1.01096 0.069276 0)
(0.948763 0.114381 -7.50767e-18)
(1.08572 0.370093 5.58814e-18)
(0.0123541 1.75303 0)
(0.00133944 1.75154 0)
(-0.0890788 1.65002 0)
(-0.017962 1.7589 0)
(-0.0230078 1.72709 0)
(-0.175338 0.148756 -1.82869e-19)
(0.0600027 0.0643819 0)
(1.04177 -0.0227705 0)
(1.01649 -0.00376551 0)
(0.930451 0.0724738 0)
(0.889723 0.207271 0)
(0.909208 0.00773644 0)
(1.16065 -0.00715213 0)
(0.852827 0.0748947 0)
(0.806602 0.03095 3.46304e-18)
(-0.0636458 2.86323 1.38668e-18)
(0.195256 3.12883 0)
(0.111423 3.20084 0)
(0.0904483 3.04706 0)
(0.121248 2.97309 1.13069e-18)
(0.0127479 2.96123 0)
(0.0278657 2.95913 -3.09293e-18)
(-0.0272183 2.95634 1.00283e-18)
(0.0386668 1.73983 0)
(-0.000323615 1.74265 0)
(-0.00455241 1.73637 -4.84846e-21)
(-0.0336969 1.73438 0)
(-0.00193384 1.73108 0)
(0.999842 0.00236332 0)
(0.996904 -0.00161828 0)
(0.985649 -0.000155838 0)
(0.998621 -0.0206325 0)
(0.993506 0.0018881 0)
(0.879763 1.43529 -7.34643e-19)
(0.947831 1.41594 0)
(0.822413 1.36079 8.14238e-20)
(0.786611 1.31974 0)
(1.20482 1.48466 1.50208e-19)
(1.34384 1.3507 -4.52354e-19)
(0.550495 2.11091 0)
(0.75909 2.03552 0)
(0.670648 2.14093 0)
(0.534916 1.30578 -4.73882e-19)
(0.52588 0.302282 0)
(0.561449 0.249698 3.68151e-19)
(1.25724 1.2462 0)
(1.2914 1.00665 0)
(1.38673 1.08323 6.17671e-19)
(1.32382 0.773383 0)
(1.40213 0.632507 5.57268e-20)
(0.996161 0.00777417 0)
(0.996456 -0.00576743 0)
(0.992401 -0.000575693 0)
(1.01085 -0.00559636 0)
(1.00038 -0.0380092 0)
(0.999534 -0.000987936 0)
(0.937665 -0.00965916 0)
(0.938314 -0.0027012 0)
(0.50341 -0.00379352 0)
(0.0298452 1.62124 5.0362e-19)
(0.00505725 1.58891 0)
(0.0353334 1.6607 9.33473e-19)
(0.00737854 1.67169 -8.52856e-19)
(0.0657809 2.02811 6.3912e-20)
(0.0528796 1.92337 0)
(-0.00281233 1.98275 0)
(0.0149561 1.78533 0)
(0.00339544 1.75089 0)
(0.000924766 1.72992 -3.83261e-21)
(-0.00737827 1.71712 0)
(0.00426941 1.73782 -1.79073e-19)
(0.00116988 1.72718 3.21324e-19)
(0.00900961 1.75861 0)
(0.0128074 1.76279 0)
(0.00127831 1.75629 0)
(-0.00280587 1.76489 0)
(-0.00149774 1.77855 0)
(1.02984 0.0138339 0)
(1.03119 -0.000198063 0)
(1.01732 0.00411739 0)
(1.00696 -0.000401646 0)
(0.981307 3.834e-05 0)
(0.978352 0.00404207 0)
(0.970963 0.00885856 0)
(0.968613 0.000385048 0)
(0.011351 2.9982 -1.08168e-20)
(0.0315369 3.02793 0)
(-0.0226318 3.01524 0)
(-0.0316648 2.98923 0)
(0.365871 2.83012 0)
(1.39335 2.19762 1.82374e-19)
(-0.0855577 2.63632 0)
(-0.0676086 2.63158 0)
(-0.0110742 1.76582 0)
(-0.00315868 1.71794 0)
(-0.00100912 1.73791 0)
(0.235332 1.88651 -1.44008e-19)
(0.024352 1.76234 0)
(-0.00353669 1.77882 0)
(0.000940436 1.73886 3.05175e-20)
(0.015213 1.73594 7.84132e-20)
(-0.00535062 1.73679 1.58858e-19)
(0.0015104 1.72107 0)
(0.744069 0.171146 1.18362e-18)
(0.7522 0.098488 -1.17192e-18)
(0.215043 1.42291 0)
(0.216923 1.37852 -3.00244e-19)
(0.146842 1.4819 -8.94307e-19)
(0.0737375 1.49038 8.95225e-19)
(0.991041 -0.000373532 0)
(0.991823 -0.0057423 0)
(0.993001 0.00483186 0)
(0.98577 0.00065326 0)
(0.0132367 1.76895 0)
(0.00792014 1.75215 0)
(0.00268009 1.7424 0)
(0.230219 0.291653 9.21814e-19)
(0.0530073 0.248059 -8.45235e-19)
(0.219166 0.16329 0)
(1.19313 0.0996844 1.27883e-19)
(1.26694 0.0639675 0)
(1.12313 0.0504102 0)
(1.0857 -0.000911857 0)
(0.778031 0.0967567 0)
(0.810984 0.0585236 -5.57724e-18)
(0.780456 0.0583384 2.04274e-18)
(-0.13299 2.90658 1.1501e-18)
(-0.107782 2.93365 -8.68765e-20)
(0.0309914 3.04413 -1.69674e-20)
(-0.0661667 3.23073 6.76441e-19)
(-0.0441296 2.9781 3.19969e-20)
(0.0050158 2.91993 -1.08015e-22)
(-0.217548 2.75723 -9.60675e-19)
(0.554877 2.93289 6.97479e-19)
(-0.190815 3.18704 -6.77467e-19)
(1.01221 -0.000342506 0)
(1.0052 0.0380164 0)
(1.00772 0.00403219 0)
(0.990152 -0.00295887 0)
(0.987832 -0.000428874 0)
(0.982461 -0.000321135 0)
(0.984899 -0.00150898 0)
(0.987987 0.00518803 0)
(0.981746 0.00033224 0)
(0.985771 1.49278 -7.12361e-19)
(1.04856 1.48467 0)
(0.646309 1.28101 1.36828e-19)
(0.678929 1.33639 9.66652e-19)
(0.74969 1.34781 -6.64079e-19)
(0.725549 1.32172 1.24587e-18)
(0.498842 1.32931 2.20961e-18)
(0.470773 1.30122 4.33839e-19)
(0.637311 0.246777 1.45823e-18)
(0.586269 0.275686 3.66845e-19)
(0.613621 0.232055 6.99709e-19)
(1.32727 0.567856 -8.03734e-19)
(1.37606 0.432686 -8.69114e-19)
(0.0212762 1.68914 4.17051e-19)
(0.0022729 1.68757 0)
(1.07584 0.0305236 0)
(1.04803 0.0173817 0)
(1.05551 0.00044129 0)
(-0.0407321 3.04834 0)
(0.174957 3.00857 1.68774e-18)
(0.0792765 3.01673 0)
(-0.00274377 2.97926 -1.68543e-18)
(-0.13231 3.04224 3.89132e-19)
(-0.0626633 2.9859 0)
(1.07528 1.62946 1.37934e-19)
(1.31363 1.79232 -4.07566e-19)
(1.13934 1.59311 6.36752e-20)
(-0.129889 2.83663 -1.27382e-18)
(-0.132335 2.7256 0)
(-0.0619865 2.7711 0)
(-0.0147199 1.73257 -2.03223e-20)
(0.0214763 1.73361 -2.384e-19)
(-0.00319924 1.71903 8.35212e-22)
(0.270988 1.37921 9.52411e-19)
(0.275009 1.33118 -6.38975e-19)
(0.0500333 1.58001 6.31491e-19)
(0.0891713 1.53725 -6.93332e-19)
(0.0103697 1.54136 3.76252e-20)
(0.096606 3.05018 -2.46013e-18)
(0.00115517 3.0871 2.83608e-18)
(0.196303 2.96076 1.22799e-18)
(-0.254285 3.02062 -1.14347e-18)
(0.146054 2.96275 -1.27576e-18)
(-0.130141 2.95278 -2.92205e-18)
(-0.212887 3.07877 2.95698e-18)
(0.554238 1.3243 0)
(0.607468 1.31061 -2.30297e-18)
(0.585561 1.27722 1.03603e-18)
(0.437023 1.33481 1.29401e-18)
(0.405132 1.31116 -2.00918e-18)
(1.26567 0.216448 4.81074e-19)
(1.30267 0.408197 0)
(1.35075 0.249612 -4.54049e-19)
(-0.0410445 1.73009 -5.2113e-21)
(0.0162225 1.71269 0)
(0.0082865 1.72381 0)
(0.317874 1.3616 -3.12221e-19)
(0.379378 1.34784 -7.37321e-19)
(0.350048 1.33689 1.3923e-18)
(0.977832 -0.0729027 0)
(1.10645 -0.146391 1.39913e-18)
(0.179363 1.71942 0)
(0.149914 1.53671 0)
(1.01391 -0.108506 6.14278e-20)
(0.84245 -0.127672 2.91029e-18)
(0.194491 1.96346 1.89524e-19)
(0.122966 1.70106 0)
(-0.0834588 2.79101 1.32279e-18)
(0.197219 2.50971 0)
(1.22394 0.691595 -4.76243e-19)
(1.09682 -0.00222944 -2.40318e-20)
(1.11275 0.0123966 0)
(0.91235 -0.00607143 -4.30913e-22)
(0.0212964 1.98068 0)
(0.0964486 1.8392 0)
(-0.0107757 1.91586 0)
(0.0771654 1.93475 2.03966e-19)
(0.0325368 1.93087 9.31878e-20)
(1.05824 0.00238997 2.02169e-20)
(1.1389 0.0384244 0)
(1.14128 0.032738 0)
(-0.0192994 1.6163 0)
(0.0202443 1.87256 0)
(-0.0194797 1.92881 0)
(0.295298 2.08185 2.17565e-19)
(1.03953 -0.171798 0)
(0.964126 -0.0413521 0)
(0.927357 0.211938 1.76656e-18)
(0.875593 0.0933544 -2.08391e-18)
(1.10264 -0.087116 0)
(0.275387 1.7382 0)
(-0.147345 1.66783 0)
(-0.061906 1.86572 0)
(-0.0136007 1.82684 0)
(-0.263391 1.91126 0)
(0.0396442 1.54586 0)
(1.08474 -0.00370021 0)
(1.08555 -0.0041524 5.04393e-21)
(1.02746 1.708 -2.00253e-19)
(0.963596 -0.232186 -1.76565e-18)
(0.96789 0.0897792 2.18385e-18)
(1.12652 0.0813774 0)
(1.00874 -0.0175392 1.73187e-18)
(1.107 0.18312 -2.17081e-18)
(0.915415 0.00355609 0)
(-0.0285194 1.80604 0)
(0.254555 1.7893 1.80695e-19)
(-0.0277319 1.60716 -1.22631e-19)
(1.25258 0.250506 2.6092e-18)
(1.18914 0.0645973 0)
(-1.02994 2.62959 -1.37303e-18)
(-0.321375 3.60695 -5.31041e-20)
(-0.486466 2.40361 3.22176e-18)
(0.0727985 2.61925 -7.19427e-19)
(0.0508485 2.52365 0)
(0.0356113 2.85533 4.83044e-19)
(-0.58259 3.05226 1.44395e-18)
(-0.0339603 2.80189 -8.95908e-19)
(-0.441869 3.05927 0)
(0.627819 0.311624 0)
(0.450727 0.347722 0)
(1.04087 0.898141 1.41322e-18)
(1.16263 0.909625 -1.73169e-18)
(1.18693 0.495217 0)
(1.16049 0.568635 0)
(1.04835 0.0850906 -3.23033e-18)
(0.957097 0.0421641 4.16752e-18)
(1.12655 -0.209311 0)
(0.945018 -0.0626861 0)
(0.793189 0.110004 0)
(1.15734 -0.108268 0)
(1.01292 0.151068 0)
(0.923667 0.00693759 0)
(1.03784 -0.199069 0)
(0.93256 -0.0291904 0)
(0.000397425 1.85396 0)
(0.0660124 1.72262 0)
(-0.0238175 1.9092 0)
(0.0822734 1.80522 0)
(0.372199 1.83939 0)
(0.119128 1.54665 -5.54051e-19)
(0.112326 1.64481 0)
(-0.026171 1.61693 3.33679e-19)
(0.0822332 1.84834 -4.43733e-19)
(0.118574 1.83774 0)
(0.0954576 1.68676 0)
(-0.0996718 1.79098 0)
(-0.0851497 1.70376 0)
(0.037895 1.89821 -1.19199e-19)
(0.0900712 1.82429 3.85007e-19)
(-0.135519 1.85065 3.55575e-19)
(-0.0143954 1.56725 0)
(-0.142729 1.85257 -3.82794e-19)
(-0.0850367 1.68038 -4.16322e-19)
(0.264388 2.00799 2.75673e-20)
(-0.310572 1.48739 -4.90415e-19)
(-0.0545589 1.4768 -4.36679e-19)
(1.01342 -0.0679319 3.06727e-18)
(0.950398 -0.0492695 -3.95169e-18)
(1.00099 0.0574622 -3.16194e-18)
(0.908561 0.0414117 4.1796e-18)
(1.13243 0.193666 0)
(0.9614 0.0487023 0)
(1.08181 0.0872733 0)
(1.08626 -0.0785668 0)
(0.907987 0.00284871 0)
(1.16051 0.130048 0)
(1.10598 -0.0413923 0)
(0.926767 0.0360397 0)
(-0.328151 1.5674 -2.27845e-20)
(-0.169731 1.69877 0)
(0.101079 1.75918 0)
(0.115926 1.774 3.32431e-20)
(0.090162 1.69887 -4.57214e-21)
(-0.0662465 1.71088 2.79121e-19)
(-0.366097 1.62582 -2.7985e-19)
(-0.195201 1.73135 0)
(0.236427 1.8646 0)
(0.163918 1.68442 0)
(-0.124528 1.8291 0)
(-0.10972 1.71747 0)
(0.304085 1.9488 -5.74971e-19)
(0.448734 1.95366 -1.77387e-19)
(0.314108 1.53076 -2.31443e-19)
(0.195742 1.64421 6.03695e-19)
(0.385396 1.92627 1.49002e-19)
(1.05578 0.0662245 0)
(1.00075 0.0925935 0)
(0.965828 0.0747388 0)
(0.938515 -0.0234018 0)
(1.03525 -0.135594 0)
(0.913897 0.0616525 0)
(0.999897 0.224165 0)
(1.02544 -0.0634971 0)
(1.02289 -0.0602928 3.16897e-18)
(0.961566 -0.0443033 -4.06356e-18)
(1.03446 0.0667435 -3.13057e-18)
(0.95199 0.0449412 4.0138e-18)
(0.949318 1.6482 0)
(0.885684 1.71905 -5.65484e-19)
(0.873845 1.64771 -5.002e-19)
(0.989843 1.44036 6.49774e-19)
(0.979588 1.63173 2.05125e-18)
(0.857343 0.112009 1.32836e-18)
(1.1344 0.0475775 0)
(1.20433 0.347452 -2.07565e-18)
(1.02554 0.108822 -8.82569e-20)
(1.0349 0.096696 0)
(-0.589725 2.34381 2.05499e-18)
(-1.04468 2.29786 -2.4415e-18)
(-1.5771 3.09884 4.65673e-19)
(-1.86923 0.565405 -1.99626e-19)
(-0.0802739 2.34422 8.08683e-19)
(-0.358447 2.5705 0)
(-0.0970388 2.38184 -9.70572e-19)
(-0.131229 2.12154 -4.29727e-18)
(-0.0743132 2.23785 0)
(-0.157885 2.82951 9.16678e-20)
(-0.0158854 3.23431 -6.33903e-19)
(-0.0191317 2.91777 1.01529e-18)
(-0.364872 2.97241 0)
(0.0498997 2.85921 0)
(1.04853 1.72721 0)
(0.423305 1.25179 -1.0904e-18)
(1.09919 1.15822 5.57431e-19)
(0.881629 1.52787 0)
(0.787396 1.0628 -5.29736e-19)
(0.985091 1.17978 4.91901e-20)
(-0.0489943 0.315812 -1.35857e-18)
(0.63938 0.236262 -2.66944e-21)
(0.6033 0.26556 8.10234e-19)
(0.342137 0.467755 4.77489e-20)
(0.238868 0.324645 -1.84004e-18)
(0.530582 0.44977 0)
(0.520877 0.609526 1.30153e-18)
(0.563979 0.307213 0)
(0.415891 0.345761 0)
(0.440114 0.31548 0)
(0.603341 0.736063 1.06328e-18)
(1.24879 0.150401 -2.15839e-18)
(1.11176 0.612685 0)
(1.17531 0.274656 0)
(0.773268 0.225699 1.25619e-18)
(0.567539 0.752341 -8.17178e-19)
(0.523577 0.503483 1.54806e-18)
(0.863772 0.403036 -1.7955e-18)
(0.99928 -0.0721546 2.23274e-18)
(1.01921 0.215097 -2.23966e-18)
(0.953669 0.0237364 0)
(0.989218 -0.0464988 0)
(0.988525 -0.0223455 -2.10642e-18)
(0.945809 0.044282 2.08882e-18)
(0.961822 0.126037 0)
(0.920895 0.0576441 0)
(1.06882 -0.0141377 0)
(0.906116 -0.0800864 0)
(1.10153 -0.00833835 0)
(0.967033 -0.0661689 0)
(0.322161 1.83133 0)
(0.113601 1.75107 0)
(0.457299 1.86826 -6.44352e-19)
(0.409738 2.02073 -1.98202e-19)
(0.433646 1.88604 -5.39398e-19)
(0.269539 1.87732 8.20092e-19)
(-0.0997813 1.83359 0)
(0.0422713 1.92031 -5.57078e-19)
(-0.199658 1.97133 0)
(0.239361 1.71267 -2.10371e-19)
(0.145802 1.61936 8.76114e-19)
(0.400326 1.56354 4.81391e-19)
(0.0949868 1.68662 -2.82095e-19)
(-0.00311312 1.76105 2.28918e-19)
(0.135612 1.85 -6.28088e-19)
(0.270543 1.85987 0)
(0.352262 1.67052 4.85892e-19)
(0.240588 1.64364 -2.33803e-19)
(0.289216 1.8003 0)
(0.0140364 1.83871 5.35335e-19)
(-0.247551 1.63119 0)
(0.0450956 1.68052 -3.73549e-19)
(0.0377951 1.58193 0)
(-0.035809 1.85465 -2.27634e-19)
(0.0943371 1.64079 0)
(-0.0455315 1.79581 0)
(0.0861399 1.66939 2.49002e-19)
(0.266812 1.8844 2.28238e-19)
(-0.0418627 1.73419 5.64775e-19)
(0.0613994 1.60313 4.31933e-21)
(0.263368 1.86219 1.37994e-19)
(0.0719106 1.47461 8.8322e-20)
(-0.311591 1.7125 0)
(-0.0709762 1.75235 0)
(0.0360459 1.58621 3.99675e-19)
(-0.0234481 1.62328 4.66659e-19)
(0.108812 1.82315 -5.28513e-19)
(-0.0452363 1.89586 0)
(0.144151 1.93861 -4.85469e-19)
(-0.105608 1.56837 1.23469e-19)
(-0.124827 1.74247 -1.55408e-20)
(0.175186 2.03595 -1.61916e-19)
(0.304249 1.58574 -1.08706e-19)
(0.00825235 1.47231 3.92728e-19)
(0.99409 0.0830817 -2.1582e-18)
(1.0041 -0.200333 2.15487e-18)
(0.944731 0.0190513 0)
(0.968729 -0.108556 3.07263e-18)
(0.899767 0.208056 -3.35955e-18)
(0.977108 -0.00936722 3.63225e-18)
(0.950864 -0.0604941 -3.85966e-19)
(1.11279 -0.165762 0)
(1.01058 0.0070666 2.15207e-18)
(0.938963 -0.0573052 -2.10067e-18)
(0.922189 -0.124003 -1.22914e-19)
(0.916176 0.216473 1.05265e-18)
(1.03423 0.137163 0)
(0.929476 0.0775155 -3.69537e-19)
(1.03783 0.0332654 0)
(0.898546 0.110923 0)
(1.0639 0.0496661 0)
(0.915764 -0.0440794 0)
(0.985798 0.116736 7.55045e-19)
(1.10246 0.0255432 -1.68491e-18)
(1.01443 -0.0185558 -8.40696e-19)
(0.968254 -0.0328233 -8.86629e-19)
(1.18507 0.0795413 1.72499e-18)
(0.889114 0.0984106 0)
(0.894249 -0.0698247 0)
(-0.0541381 1.99452 -2.75044e-19)
(0.395059 1.90628 -3.65838e-20)
(0.166576 1.53804 0)
(0.0321311 1.66785 2.82674e-19)
(-0.293975 1.65361 5.92267e-20)
(-0.243844 1.70233 -5.32421e-20)
(-0.214586 1.79652 3.66821e-19)
(-0.186493 1.74386 -1.32832e-20)
(0.284021 1.67219 1.04632e-19)
(0.214722 1.74453 -1.4619e-19)
(-0.0774641 1.70259 1.71104e-19)
(-0.0682669 1.60967 -2.75135e-20)
(0.124654 1.99739 3.70355e-19)
(0.450669 1.66497 3.4129e-19)
(0.213716 2.00745 6.40076e-19)
(0.76586 1.80239 5.64616e-19)
(0.559998 1.91292 1.70357e-19)
(0.682751 1.89762 0)
(0.459841 1.47283 2.76962e-19)
(0.299234 1.34293 3.10101e-19)
(0.326399 1.54997 4.74265e-20)
(0.206763 1.4823 -9.73792e-19)
(0.659264 1.56839 8.60527e-19)
(0.151825 1.51856 0)
(0.172479 1.35936 -5.71143e-19)
(0.112568 1.64028 1.347e-18)
(-0.108325 1.62977 -2.09509e-20)
(0.0423259 1.4579 -1.57064e-18)
(0.684011 1.46966 1.19922e-18)
(0.477122 1.47368 0)
(1.06743 0.283245 6.98411e-20)
(0.997915 -0.207576 -5.90301e-20)
(0.884205 -0.157049 -1.06967e-18)
(1.04541 0.0551803 1.08332e-18)
(0.931018 -0.0138068 0)
(0.654269 1.56032 0)
(0.987126 1.66161 0)
(0.805745 1.2465 0)
(0.806062 1.53149 0)
(0.743672 1.65885 1.14998e-19)
(0.655452 1.45167 0)
(0.514625 1.3634 1.23256e-20)
(0.399479 1.39513 0)
(0.5434 1.72174 -1.25526e-18)
(0.703564 1.4755 8.22381e-19)
(0.799034 0.0547864 0)
(0.800946 0.122072 3.51544e-19)
(0.8212 0.173789 2.16361e-18)
(0.859808 0.0275579 -7.82061e-19)
(0.81921 0.0780513 -2.54329e-18)
(1.23433 0.243779 -2.59103e-18)
(0.620579 0.531325 -3.92336e-20)
(1.06756 0.0189772 1.92893e-18)
(0.880643 0.0393227 1.94468e-18)
(0.83618 0.193565 -2.93023e-18)
(0.963588 0.312148 3.53154e-19)
(0.658138 0.300939 -8.90576e-19)
(0.812474 0.341791 0)
(0.925016 0.151557 1.4526e-18)
(1.03165 0.139237 0)
(1.05715 0.0410831 0)
(0.905569 0.259269 8.75228e-19)
(0.938482 0.434895 -1.17092e-20)
(0.814975 0.0170698 -5.05458e-19)
(0.937945 0.00311528 0)
(0.882358 0.0221692 1.62904e-18)
(0.888294 -0.20813 2.08511e-18)
(1.14849 0.0875824 -1.61065e-18)
(1.00968 0.237965 -1.40302e-18)
(0.956806 -0.0791754 -2.18025e-18)
(0.835502 0.229553 0)
(0.909811 0.00834164 0)
(0.881198 0.131914 -1.28502e-18)
(0.914121 -0.13677 4.76366e-19)
(1.03441 0.187107 1.85512e-18)
(1.08468 0.0692674 -2.4112e-18)
(0.918629 0.166133 2.14993e-18)
(0.867378 0.25649 0)
(1.1051 0.188294 0)
(0.850623 0.0988486 -9.48292e-19)
(0.917875 0.0512888 -1.53521e-18)
(0.423779 1.68899 6.04385e-19)
(0.572203 1.36801 -5.04221e-19)
(0.797763 1.47959 -8.75992e-19)
(0.648337 1.57582 2.21247e-19)
(0.91596 1.55251 -1.87029e-18)
(0.9628 1.69558 7.42906e-19)
(0.820795 1.36994 3.40115e-20)
(0.952408 1.71305 -8.7413e-19)
(0.628743 1.62564 1.34365e-18)
(0.633496 1.78475 3.40618e-19)
(1.04976 1.70762 -3.43462e-19)
(0.956467 1.90168 0)
(0.571038 1.45565 -1.20729e-19)
(-0.428517 1.61366 8.55247e-19)
(-0.569633 0.556011 7.62244e-19)
(-0.494633 0.587657 1.04083e-19)
(0.141812 0.465564 1.04642e-18)
(0.163122 0.397353 -1.97011e-18)
(0.0993324 0.694137 1.56543e-18)
(-0.132544 0.363685 -4.22119e-19)
(0.104621 0.311951 9.09356e-19)
(0.699722 0.301088 -7.42781e-19)
(0.613801 0.355598 0)
(0.631426 0.258932 7.76958e-21)
(0.587506 0.461068 7.02131e-19)
(0.269971 0.618452 -2.54225e-18)
(0.214292 0.561631 -2.94177e-20)
(0.445107 0.378818 0)
(0.497097 0.902726 9.12223e-19)
(0.692991 0.822279 1.01851e-18)
(0.733038 1.43163 -1.1953e-18)
(0.654327 0.869326 -5.05183e-19)
(0.852416 0.888527 -1.89175e-19)
(1.0318 1.21621 1.92471e-19)
(0.647384 0.766779 -1.79469e-18)
(0.737207 1.0539 4.74855e-19)
(1.07843 0.838769 0)
(0.925213 0.762892 -6.94448e-19)
(0.888199 0.329781 6.20472e-19)
(0.89275 0.458132 1.16012e-18)
(1.06501 0.348586 1.03883e-18)
(0.889941 0.441274 -1.20082e-18)
(1.05036 0.385943 0)
(1.01219 0.315505 0)
(0.647784 0.434757 -2.69367e-20)
(0.853796 0.205367 0)
(0.581554 0.324081 9.10619e-19)
(0.88641 0.303527 2.57901e-21)
(0.944025 0.672957 4.96028e-18)
(0.740531 0.563853 1.37498e-18)
(0.632903 0.523141 -1.26746e-18)
(0.620381 0.488146 1.37476e-18)
(0.658318 0.616017 7.72625e-19)
(0.546406 0.371756 -7.67048e-19)
(1.05788 0.0878347 1.74492e-18)
(0.901066 -0.183453 0)
(0.909726 0.0296917 1.16051e-18)
(0.828554 0.298204 -2.58979e-18)
(1.10554 -0.000512163 1.20995e-18)
(0.87365 0.0219241 -2.56385e-18)
(1.07589 -0.0378297 0)
(0.962106 0.005693 -5.40817e-19)
(0.953222 0.122079 1.35893e-18)
(0.967062 -0.00797313 -7.05408e-19)
(0.915647 -0.208483 5.167e-19)
(-0.214287 1.78747 0)
(0.261199 1.63883 0)
(-0.21062 1.75775 0)
(-0.0421174 1.73716 0)
(0.00479836 1.97373 8.12986e-19)
(-0.089262 1.77727 -1.39281e-19)
(0.117319 1.46694 -2.83296e-19)
(0.284142 1.44951 3.81571e-19)
(-0.448216 1.92077 -8.84101e-19)
(0.110615 1.55867 6.69183e-19)
(-0.054705 1.93901 1.61267e-19)
(-0.00347299 1.53557 -7.07806e-19)
(0.182153 1.74324 -1.00268e-19)
(0.463166 1.72291 -8.08178e-20)
(-0.0787793 1.72613 -5.73222e-19)
(0.126858 1.60676 0)
(-0.118654 1.74342 2.49177e-19)
(0.116812 1.66537 2.06521e-19)
(0.115326 1.55377 -2.68429e-19)
(-0.023525 1.78518 0)
(0.322064 1.51991 -1.01742e-18)
(0.122459 1.66406 7.40409e-19)
(0.523054 1.64963 -6.82273e-19)
(0.17561 1.56656 4.83507e-19)
(-0.253651 1.22382 0)
(0.163221 1.46362 -4.7825e-19)
(-0.0988215 1.38885 -7.75417e-19)
(-0.0975478 1.73561 0)
(0.0488091 1.66042 3.04527e-20)
(-0.0377719 1.96893 2.38083e-19)
(-0.0544324 1.63239 4.68098e-20)
(0.0991035 1.57198 -6.30829e-19)
(-0.094195 1.94685 2.02028e-19)
(-0.211381 1.27687 1.87454e-19)
(0.15917 2.09525 0)
(0.055372 1.96965 0)
(-0.256798 1.81161 1.60829e-19)
(0.300517 1.68868 -5.47695e-20)
(-0.0465065 1.72026 0)
(0.212495 1.76996 1.06405e-19)
(0.0318998 1.70527 -2.20085e-19)
(0.950084 0.391297 0)
(1.16625 0.0209527 -1.9934e-19)
(0.89897 0.190387 -1.38492e-18)
(0.885177 -0.0236094 0)
(0.841836 -0.296398 0)
(1.17876 -0.0509012 -3.0834e-20)
(1.04947 -0.25661 2.17951e-18)
(0.881029 0.0148179 2.73598e-18)
(1.06498 0.0414634 0)
(0.966654 -0.007823 0)
(0.936518 -0.0964655 1.36269e-18)
(0.962976 0.0297502 0)
(0.912412 0.216373 0)
(-0.00716468 1.80209 0)
(-0.0883511 1.45238 1.09573e-19)
(-0.186756 1.49022 6.7269e-20)
(-0.0689787 1.72539 0)
(0.345491 1.87336 2.78376e-19)
(0.0963279 1.75945 -7.2032e-20)
(0.142184 1.54122 0)
(0.17817 1.55451 0)
(0.266877 1.30692 -1.19247e-18)
(0.312091 1.39978 0)
(0.530647 1.82764 1.37998e-18)
(0.533996 1.69775 0)
(0.614703 1.7849 -5.78701e-19)
(0.316228 1.30302 -2.70172e-20)
(0.896785 1.35504 -1.3672e-18)
(0.62923 1.32124 1.91332e-18)
(0.583199 1.3927 3.82181e-19)
(0.309868 1.46065 0)
(0.539211 1.35254 0)
(0.437032 1.47036 0)
(0.417936 1.30011 -1.34909e-18)
(0.462253 1.3794 -1.0504e-18)
(0.211105 1.36301 -2.48878e-19)
(0.614634 1.60338 1.97003e-19)
(0.244398 1.42811 0)
(0.49517 1.38181 0)
(0.348927 1.33007 -4.07066e-19)
(0.391116 1.52505 0)
(0.514073 1.37561 0)
(0.836056 1.36971 -1.53119e-18)
(0.449542 1.0613 -1.03495e-19)
(0.846948 1.41131 0)
(0.701269 1.55084 2.30034e-18)
(0.830927 1.55082 -4.24095e-19)
(1.25595 1.23917 0)
(0.96867 0.902439 7.78895e-19)
(0.303693 1.70624 0)
(0.259682 1.2961 0)
(0.778805 1.27347 -7.81239e-19)
(0.700803 1.54088 -5.33913e-19)
(0.91528 1.49964 8.93663e-19)
(0.713513 1.67432 -2.80266e-19)
(0.752876 1.49421 0)
(0.676095 1.40993 3.63048e-19)
(0.781971 1.38717 -6.55784e-19)
(0.73532 1.37273 1.3479e-20)
(0.620351 1.42948 0)
(0.459547 1.59076 -5.38257e-19)
(0.473189 1.31315 0)
(0.813869 0.105709 0)
(0.808947 0.23859 0)
(0.666352 0.18595 0)
(0.75235 0.395705 -1.42138e-18)
(0.764821 0.161694 7.73525e-19)
(1.09645 -0.0667271 -9.64669e-19)
(0.845037 -0.0993724 0)
(0.957908 -0.0544845 4.13587e-19)
(0.846231 0.197035 1.67843e-18)
(0.68217 0.0932334 -1.0857e-18)
(0.898034 2.30083 5.20462e-19)
(0.711513 1.78772 0)
(0.928719 2.18145 1.39459e-18)
(0.16432 2.28752 -1.21292e-18)
(-0.01163 1.70469 -1.00346e-18)
(0.0702869 1.41332 1.33425e-18)
(0.420189 1.50564 0)
(0.290517 0.929507 -2.78758e-19)
(-0.0420847 1.18541 1.74773e-18)
(-0.235698 1.05645 -3.82943e-19)
(0.091996 0.619745 4.77664e-19)
(0.201994 0.670435 9.47437e-19)
(0.511813 0.737778 0)
(0.262125 0.921816 0)
(0.10139 0.959712 0)
(0.803931 0.782803 5.70362e-19)
(0.813785 0.615761 -1.33736e-18)
(0.960839 0.628585 1.1425e-18)
(0.767647 0.330692 -1.00565e-18)
(1.04436 0.739643 0)
(0.903366 0.667098 -3.48909e-19)
(0.819174 0.364908 -1.80653e-18)
(0.77178 0.161582 -2.27785e-18)
(0.586461 0.449163 1.41985e-18)
(0.572839 0.497378 -1.30741e-18)
(0.739526 0.416394 -1.07542e-18)
(0.667266 0.294829 1.33038e-18)
(1.10871 -0.0083895 -1.28603e-18)
(1.11353 0.0181089 2.71139e-18)
(1.08626 0.0132471 1.65676e-18)
(1.06005 -0.111418 -1.96945e-18)
(0.74618 0.108871 0)
(0.702349 -0.0627417 -3.47914e-18)
(0.226852 1.46371 1.70589e-19)
(-0.25478 1.79303 0)
(0.220671 1.83788 1.01284e-18)
(0.19713 1.73961 -9.36131e-19)
(-0.0187812 1.8559 5.11244e-19)
(0.205141 1.72024 0)
(-0.206731 1.74085 0)
(0.219941 1.53227 -9.60249e-20)
(0.0232234 1.60843 8.67234e-20)
(0.388272 1.60049 -1.98937e-20)
(-0.372934 1.90127 -2.2561e-19)
(-0.264712 1.74174 9.27485e-20)
(0.561753 1.59914 -1.56449e-18)
(0.848259 1.62834 1.64086e-18)
(0.438084 1.80221 -6.56346e-19)
(0.80582 1.56969 6.96743e-20)
(0.470964 1.77129 0)
(0.712527 1.75383 -8.40929e-19)
(0.603003 1.6396 8.17904e-19)
(0.456179 1.61995 6.67458e-19)
(0.539953 1.70105 0)
(0.817312 1.72401 0)
(0.874071 1.34249 1.58754e-18)
(0.36319 1.54779 2.00541e-18)
(0.0846531 1.56021 -1.40311e-18)
(-0.0535095 1.60309 -2.33438e-19)
(0.43163 1.36096 5.00913e-19)
(0.470106 1.17982 -1.17792e-18)
(0.721401 1.36927 -1.07575e-18)
(0.537176 1.46824 0)
(0.600184 1.372 -1.16159e-18)
(0.843926 1.46533 0)
(0.565932 1.77147 0)
(0.56628 1.88356 -9.80369e-19)
(0.651044 1.70351 -6.8277e-19)
(0.355367 1.94318 8.88453e-19)
(-0.404646 1.4712 0)
(0.0827206 1.38485 -6.1422e-19)
(0.0904254 1.4946 -8.91427e-19)
(0.49551 1.57268 0)
(0.670254 1.88121 7.27899e-19)
(0.281445 2.00933 0)
(0.617483 1.00901 -1.93393e-18)
(0.564059 1.08549 2.66512e-18)
(0.811287 0.814005 -2.66566e-18)
(0.388369 0.804475 -2.3716e-19)
(0.359277 0.8487 -9.54149e-19)
(0.79376 1.73584 4.8721e-19)
(0.661725 1.62066 -1.15311e-18)
(0.409697 1.77037 1.63881e-18)
(0.508017 1.5338 -1.08499e-18)
(0.586194 1.73898 -1.51497e-18)
(0.586037 1.69901 -1.6732e-19)
(0.791291 1.39321 1.20878e-18)
(0.531546 1.69497 8.31089e-20)
(0.538788 1.37203 6.32813e-19)
)
;

boundaryField
{
    wall-4
    {
        type            noSlip;
    }
    velocity-inlet-5
    {
        type            fixedValue;
        value           uniform (1 0 0);
    }
    velocity-inlet-6
    {
        type            fixedValue;
        value           uniform (0 3 0);
    }
    pressure-outlet-7
    {
        type            zeroGradient;
    }
    wall-8
    {
        type            noSlip;
    }
    frontAndBackPlanes
    {
        type            empty;
    }
}

