/*--------------------------------*- C++ -*----------------------------------*\
  =========                 |
  \\      /  F ield         | OpenFOAM: The Open Source CFD Toolbox
   \\    /   O peration     | Website:  https://openfoam.org
    \\  /    A nd           | Version:  6
     \\/     M anipulation  |
\*---------------------------------------------------------------------------*/
FoamFile
{
    version     2.0;
    format      ascii;
    class       volVectorField;
    location    "0";
    object      U;
}
// * * * * * * * * * * * * * * * * * * * * * * * * * * * * * * * * * * * * * //

dimensions      [0 1 -1 0 0 0 0];

internalField   nonuniform List<vector> 
13046
(
(0.279239 0.102432 0)
(0.445825 -0.124309 7.94765e-22)
(0.176404 -0.0225719 2.0058e-21)
(0.293366 0.0493898 0)
(0.167816 0.0214266 1.80965e-21)
(0.381844 -0.116348 0)
(0.310173 0.0580516 -2.45458e-22)
(0.414276 -0.143275 -4.16095e-22)
(0.150186 0.0329754 2.03879e-21)
(0.459044 0.193658 -5.08435e-22)
(0.744763 -0.346224 0)
(0.00319798 0.064574 -1.24064e-21)
(0.326445 0.111988 1.57437e-21)
(0.516286 -0.180607 1.08185e-21)
(0.125988 0.00751288 -1.13345e-21)
(0.430787 0.223162 -3.30168e-22)
(0.0192496 0.04095 -1.9832e-21)
(0.78675 -0.301262 3.41576e-23)
(0.201868 0.0567854 0)
(0.293441 -0.0815087 9.54617e-22)
(0.32828 -0.013936 -2.62755e-21)
(0.436718 0.217203 3.07094e-22)
(0.0138664 0.0472583 3.96308e-21)
(0.779153 -0.311588 5.11093e-23)
(0.266034 0.0650722 -1.0921e-21)
(0.380534 -0.0934175 1.58268e-21)
(0.19264 -0.013702 0)
(0.326033 0.128506 -4.67536e-23)
(0.535255 -0.183442 -3.23875e-22)
(0.125453 -0.00191119 3.81705e-21)
(0.277261 0.115752 0)
(0.463269 -0.121727 0)
(0.180842 -0.035727 -2.04186e-21)
(0.255439 0.0514291 3.84634e-21)
(0.209282 -0.0179919 -6.72597e-22)
(0.348392 -0.0706486 -2.45922e-21)
(0.261401 0.036533 1.2783e-23)
(0.212471 -0.0060376 0)
(0.328876 -0.0636794 0)
(0.232747 0.135893 -1.41063e-21)
(0.278241 -0.126113 -1.81304e-21)
(0.453029 -0.0719032 1.16348e-21)
(0.271776 -0.00223038 -8.7391e-22)
(0.236855 0.0031614 9.16561e-22)
(0.273839 -0.0324846 0)
(0.286179 -0.0018861 -5.6656e-22)
(0.218019 0.0205528 0)
(0.282574 -0.0495998 2.94913e-22)
(0.290042 0.0960793 0)
(0.450809 -0.138438 5.70575e-23)
(0.15654 -0.00730177 1.64944e-23)
(0.393993 -0.22877 -2.07356e-21)
(0.202917 0.161871 0)
(0.476741 -0.0354418 1.21484e-21)
(0.435188 -0.259263 2.94879e-21)
(0.472761 -0.0218103 1.33215e-21)
(0.186942 0.15867 -2.21712e-21)
(0.730193 -0.210078 1.18799e-22)
(0.372729 0.234613 0)
(0.130328 -0.0552989 -1.66862e-21)
(0.40695 0.0986926 7.15514e-22)
(0.593832 -0.282701 -6.04526e-22)
(0.0801086 0.078422 4.54129e-21)
(0.025494 0.0573371 -2.32008e-21)
(0.741406 -0.3293 1.39368e-22)
(0.448547 0.178978 9.80111e-22)
(0.35795 0.237233 0)
(0.708242 -0.187168 -6.19691e-22)
(0.162015 -0.0858212 -4.72929e-22)
(0.346116 0.230037 5.7394e-22)
(0.684967 -0.175788 8.39781e-22)
(0.175071 -0.0938881 6.43137e-22)
(0.753457 -0.218925 7.84471e-25)
(0.382955 0.241196 -3.79107e-23)
(0.117573 -0.0504136 1.90527e-23)
(0.204384 0.0696356 0)
(0.287745 -0.0893316 -1.07057e-21)
(0.349012 -0.0288175 1.83532e-21)
(0.0784098 -0.0147162 -1.82369e-21)
(0.400364 0.236637 1.56788e-21)
(0.772414 -0.248049 1.89902e-22)
(0.278089 0.0668886 -5.64194e-22)
(0.393335 -0.108 5.69983e-22)
(0.175927 0.00156131 0)
(0.0195335 0.0583558 2.05494e-21)
(0.751873 -0.334537 0)
(0.453786 0.185855 -5.72884e-22)
(0.476976 0.136485 9.29168e-22)
(0.0343021 0.0852019 0)
(0.706574 -0.370285 1.56328e-22)
(0.0590708 0.112476 0)
(0.517694 0.096025 0)
(0.676987 -0.417749 -1.60894e-23)
(0.391413 0.157848 1.39612e-21)
(0.407195 0.158459 -1.92153e-21)
(0.657567 -0.261268 -9.33903e-22)
(0.67551 -0.281328 4.35079e-22)
(0.0718577 0.028873 9.78907e-22)
(0.0589961 0.0419549 -2.49588e-21)
(0.04252 0.0915953 1.1825e-22)
(0.480632 0.12365 -9.08905e-22)
(0.693276 -0.377167 0)
(0.290626 0.0100597 1.01587e-23)
(0.202129 0.0250455 0)
(0.306803 -0.0705718 0)
(0.15855 0.126489 -4.06756e-21)
(0.420838 0.005818 6.47118e-22)
(0.431482 -0.225343 0)
(0.203202 0.145466 -5.98952e-22)
(0.356966 -0.188339 0)
(0.451586 -0.041235 2.53197e-21)
(0.426709 0.190721 0)
(-0.00447164 0.0606523 1.64616e-21)
(0.664089 -0.327998 -5.25972e-22)
(0.31078 0.101715 -1.1067e-21)
(0.487486 -0.161699 -5.2346e-22)
(0.136565 0.0074438 -1.94636e-21)
(0.400784 0.186868 -8.12076e-22)
(0.388437 0.174398 7.58223e-22)
(0.70473 -0.265512 -1.98189e-22)
(0.0669817 0.0173329 -1.10779e-21)
(0.674283 -0.253251 2.47523e-22)
(0.0757172 0.0156613 1.03495e-21)
(0.45145 0.198692 1.14533e-21)
(0.73841 -0.341372 -3.62252e-22)
(9.81244e-05 0.0633654 5.49389e-22)
(0.360169 0.148081 0)
(0.603441 -0.225697 6.97364e-22)
(0.0970917 0.00878732 -5.80763e-21)
(0.249024 0.139711 0)
(0.249571 -0.106872 1.82699e-21)
(0.469893 -0.090459 -4.8782e-23)
(0.0673047 0.116923 0)
(0.508828 0.088447 0)
(0.668657 -0.408375 0)
(0.436872 0.153668 0)
(0.699425 -0.318849 1.00265e-21)
(0.0428441 0.0620724 2.50328e-21)
(0.2922 0.125439 0)
(0.492435 -0.141052 0)
(0.168436 -0.0362451 0)
(0.36328 0.0597754 0)
(0.478728 -0.210722 0)
(0.121575 0.0724262 0)
(0.193608 0.147313 5.54264e-22)
(0.386996 -0.210094 0)
(0.45234 -0.0295141 -1.38332e-21)
(0.160763 0.117993 3.94367e-21)
(0.409897 0.00491266 1.51925e-21)
(0.422614 -0.211499 -1.91873e-21)
(0.41467 0.109155 -1.54283e-21)
(0.617394 -0.294862 0)
(0.0704589 0.0725398 -5.90875e-21)
(0.155449 0.0837609 0)
(0.363419 0.0181788 -3.43351e-21)
(0.396565 -0.170006 -4.81974e-22)
(0.508377 -0.299396 -7.84939e-22)
(0.459224 0.0163813 -1.41362e-21)
(0.543711 -0.317526 0)
(0.456916 0.0348726 -8.20543e-22)
(0.147552 0.144041 -1.91581e-21)
(0.12824 0.134749 1.84031e-21)
(0.388045 0.0368032 -2.186e-22)
(0.466347 -0.227352 -9.04286e-22)
(0.130362 0.0941808 1.12893e-21)
(0.470247 0.184163 5.03273e-22)
(0.00511425 0.0683078 -6.43197e-22)
(0.733474 -0.356617 -1.33194e-22)
(0.436691 0.196198 2.92604e-22)
(-0.00383382 0.0624479 2.47839e-22)
(0.698906 -0.333295 0)
(0.43814 0.163662 -3.86562e-23)
(0.7129 -0.319304 0)
(0.0377466 0.0577652 -3.02426e-21)
(0.273306 0.174091 0)
(0.533678 -0.110108 -3.02536e-22)
(0.252088 -0.128305 -1.06595e-21)
(0.387366 0.0270344 -1.36999e-21)
(0.141439 0.100432 0)
(0.441514 -0.209064 0)
(0.0122585 0.0762984 0)
(0.723971 -0.377131 0)
(0.486155 0.164012 -3.81991e-22)
(0.258477 0.16301 0)
(0.506816 -0.0952739 7.31661e-22)
(0.263672 -0.126498 -2.73061e-22)
(0.152169 0.0932933 0)
(0.373729 0.0161152 0)
(0.40056 -0.181165 0)
(0.350765 0.0513327 -7.20234e-22)
(0.453256 -0.193815 0)
(0.129277 0.0664841 0)
(0.546684 -0.210445 1.1556e-23)
(0.105188 0.0272917 1.35461e-21)
(0.350134 0.136919 -2.26021e-21)
(0.579656 -0.212798 0)
(0.104762 0.0111367 5.9872e-21)
(0.472458 0.161289 1.09321e-21)
(0.0222008 0.0737889 -1.85953e-21)
(0.73174 -0.360361 4.37257e-22)
(0.0597581 0.107363 -1.72068e-21)
(0.4905 0.100132 -5.66164e-22)
(0.673452 -0.389523 -9.57172e-22)
(0.503266 0.118905 1.39462e-21)
(0.69578 -0.397618 0)
(0.0412747 0.0986999 1.6756e-21)
(0.407205 -0.256848 8.20904e-22)
(0.520177 -0.0472387 -5.15788e-22)
(0.220822 0.190395 -1.82299e-21)
(0.331627 0.0799398 1.43372e-21)
(0.394616 0.24392 -8.31523e-22)
(0.0910156 -0.026211 1.12236e-21)
(0.776016 -0.240253 -7.83782e-25)
(0.701278 -0.399619 0)
(0.504563 0.129258 3.70977e-22)
(0.0326923 0.0923147 0)
(0.279315 0.0291558 2.816e-21)
(0.195716 0.0140453 0)
(0.33101 -0.0788989 -9.13495e-22)
(0.315179 0.135628 0)
(0.53031 -0.169073 4.66023e-23)
(0.143461 -0.0171045 -1.14896e-21)
(0.0671132 0.114116 -1.32852e-21)
(0.497919 0.0910684 0)
(0.666052 -0.398005 1.10244e-21)
(0.344758 0.0897883 0)
(0.533784 -0.211844 -1.99576e-21)
(0.106123 0.0359951 0)
(0.000741644 0.0673963 0)
(0.699617 -0.357135 4.20688e-22)
(0.466161 0.182025 0)
(0.204561 0.181925 1.97303e-21)
(0.506353 -0.0341401 0)
(0.434403 -0.277977 0)
(0.492324 0.114766 -1.22425e-21)
(0.690549 -0.388756 0)
(0.0454204 0.0979334 1.89564e-23)
(0.420589 0.0369108 -1.69141e-21)
(0.504613 -0.272155 -6.6118e-22)
(0.125402 0.114905 2.60075e-21)
(0.356597 0.159078 0)
(0.611207 -0.218687 -6.54258e-22)
(0.104085 -0.00158595 -5.95105e-22)
(0.622513 -0.395038 1.85331e-21)
(0.502589 0.0531494 9.83791e-22)
(0.106149 0.140629 -1.03709e-21)
(0.471986 0.0372484 0)
(0.567252 -0.3415 8.48733e-22)
(0.125261 0.139642 3.75791e-23)
(0.00150978 0.0674464 1.28761e-21)
(0.680169 -0.361112 0)
(0.469571 0.174387 1.99147e-22)
(0.230682 0.161355 -2.66455e-21)
(0.323318 -0.171667 1.30689e-21)
(0.485259 -0.0669509 9.88928e-23)
(0.386984 0.205908 -2.88019e-22)
(-0.00780135 0.0566148 1.35757e-22)
(0.667644 -0.285907 0)
(0.189549 0.0473936 -5.99662e-22)
(0.315354 0.00224424 2.15612e-21)
(0.315324 -0.0917728 -2.84743e-21)
(0.403348 0.0625291 -7.03546e-22)
(0.406411 0.0440487 -2.0319e-23)
(0.532677 -0.268168 1.6069e-21)
(0.500877 -0.258597 1.59142e-21)
(0.120977 0.104191 -2.0681e-21)
(0.104034 0.0938456 1.06712e-21)
(0.0617456 -0.000319215 2.38668e-21)
(0.407545 0.236566 -8.38265e-22)
(0.78628 -0.257674 0)
(0.34139 0.160642 0)
(0.594015 -0.197249 0)
(0.125569 -0.0179889 2.4055e-21)
(0.477335 0.0507761 2.6955e-22)
(0.59445 -0.361073 0)
(0.111272 0.134091 0)
(0.418852 0.172382 -6.55096e-22)
(0.70556 -0.291382 0)
(0.0496038 0.0404124 -1.09276e-21)
(0.255624 0.0101042 -6.21485e-22)
(0.284002 -0.0273241 -8.51013e-22)
(0.243192 -0.0106721 3.11719e-22)
(0.439279 0.0465493 1.03812e-21)
(0.545403 -0.305113 0)
(0.115987 0.121013 1.77261e-21)
(0.342218 0.171221 0)
(0.608974 -0.195364 -7.86199e-22)
(0.129386 -0.0281308 1.50538e-21)
(0.345164 0.105842 -2.30583e-21)
(0.359341 0.11335 1.85753e-21)
(0.233943 0.169714 2.11389e-21)
(0.330383 -0.18331 -3.73383e-21)
(0.497721 -0.0671185 2.15413e-21)
(0.440565 0.0610672 1.07932e-21)
(0.572014 -0.318862 -1.26498e-21)
(0.100386 0.112832 -1.61525e-21)
(0.429778 0.173071 2.45747e-21)
(0.0409481 0.0487523 3.8816e-21)
(0.718083 -0.305529 3.76388e-22)
(0.204902 0.135137 9.21805e-22)
(0.341162 -0.173514 0)
(0.439433 -0.0415376 -8.39512e-22)
(0.156527 0.155293 2.0549e-21)
(0.47463 0.00900334 7.79847e-22)
(0.507521 -0.311937 0)
(0.376315 0.195775 2.71919e-22)
(0.685432 -0.229847 5.68976e-22)
(0.0983916 -0.0142746 -6.78831e-22)
(0.218165 0.171086 -1.72376e-22)
(0.374736 -0.217581 0)
(0.493186 -0.0484377 -1.6911e-21)
(0.387952 0.203181 0)
(0.398051 0.199699 0)
(0.710135 -0.242391 3.23074e-22)
(0.0872157 -0.00713323 1.78815e-21)
(0.718469 -0.258647 -4.51768e-22)
(0.072131 0.00803554 -1.8882e-21)
(0.0132501 0.0731788 1.43689e-21)
(0.733648 -0.36775 0)
(0.47905 0.170056 6.39278e-22)
(0.37404 0.173123 0)
(0.652621 -0.236813 3.02571e-22)
(0.0905313 0.00308816 -6.26713e-22)
(0.570625 -0.288198 2.12028e-21)
(-0.00535601 0.0512222 -2.01583e-21)
(0.371277 0.178554 -2.48528e-22)
(0.351887 0.0033819 2.83874e-21)
(0.171156 0.0771515 0)
(0.354962 -0.137118 1.00287e-21)
(0.388354 0.0940114 -1.66306e-21)
(0.567358 -0.259264 0)
(0.087284 0.0693324 -3.49444e-21)
(0.0272709 0.0692359 1.20128e-21)
(0.461386 0.16014 -2.036e-21)
(0.725704 -0.34756 -4.55419e-22)
(0.448656 -0.27431 1.0527e-21)
(0.482514 -0.0189133 0)
(0.185217 0.166841 2.51296e-21)
(0.638521 -0.398097 1.98172e-21)
(0.500253 0.0667315 5.86169e-22)
(0.0907003 0.12979 0)
(0.490562 -0.186407 1.15376e-21)
(0.12116 0.0357166 0)
(0.387366 0.123181 -1.77497e-21)
(0.601359 -0.258202 -6.59589e-22)
(0.078252 0.0468161 -1.08046e-21)
(0.481611 -0.193909 -3.7747e-23)
(0.119661 0.046113 -2.32764e-23)
(0.428774 0.220432 1.61224e-21)
(0.027616 0.034651 -2.80318e-21)
(0.783562 -0.295169 -5.02024e-23)
(0.3957 -0.262296 -1.06892e-21)
(0.543708 -0.0594092 -1.50621e-22)
(0.235995 0.202238 0)
(0.400005 0.130422 1.80678e-21)
(0.630031 -0.273566 8.04872e-22)
(0.0686627 0.0535228 2.6074e-21)
(0.375386 0.0531594 0)
(0.479238 -0.223687 6.63572e-22)
(0.121073 0.0826335 0)
(0.437709 -0.010691 8.23594e-22)
(0.415536 -0.228143 0)
(0.175081 0.137186 0)
(0.288585 0.0809712 7.81533e-22)
(0.425998 -0.129231 1.26593e-21)
(0.161665 0.00101425 -1.24323e-23)
(0.17146 0.163936 -2.55587e-21)
(0.482794 -0.00439561 -1.86984e-21)
(0.485014 -0.299318 -2.79024e-21)
(0.483561 0.146621 7.33161e-22)
(0.718509 -0.373249 -3.58834e-22)
(0.0260857 0.0814611 -2.80454e-23)
(0.645195 -0.388737 -1.37433e-21)
(0.491472 0.0759559 -5.93962e-22)
(0.0818742 0.122119 -1.33053e-21)
(0.319515 0.222918 1.78155e-21)
(0.224069 -0.128201 -9.27179e-22)
(0.642353 -0.145904 0)
(0.397932 0.222997 -4.60317e-22)
(0.389479 0.217808 4.34991e-22)
(0.731373 -0.238514 9.82263e-23)
(0.750557 -0.247351 -2.67324e-22)
(0.0808872 -0.0099699 6.37509e-22)
(0.0924501 -0.0184943 5.75685e-22)
(-0.00639016 0.0535282 2.04252e-21)
(0.602405 -0.288179 -2.33431e-21)
(0.379079 0.185504 -2.00927e-22)
(0.395568 0.210904 2.13652e-23)
(-0.00696195 0.0571567 0)
(0.696375 -0.290062 0)
(0.416407 0.0712533 2.57975e-21)
(0.563193 -0.286416 3.37779e-22)
(0.0971103 0.0964654 0)
(0.0172848 0.0709826 3.57975e-21)
(0.472262 0.168826 -8.10379e-22)
(0.738794 -0.359642 0)
(0.351705 0.21265 -2.46129e-21)
(0.364058 0.212933 1.8332e-21)
(0.67132 -0.192569 -6.15709e-22)
(0.689015 -0.207123 -2.27521e-22)
(0.15141 -0.0643931 1.13768e-21)
(0.129077 -0.0456896 5.72956e-22)
(0.02719 0.0890012 0)
(0.684389 -0.406436 0)
(0.515379 0.127291 -1.79615e-22)
(0.359897 0.202437 3.38348e-22)
(-0.00877713 0.0537553 -1.26354e-21)
(0.636767 -0.264116 0)
(0.321881 -0.0300777 3.18498e-24)
(0.222501 0.0475261 -1.31847e-21)
(0.258627 -0.0525252 -6.43752e-22)
(0.400654 0.194045 4.35436e-22)
(0.649808 -0.306648 7.69434e-22)
(-0.00634864 0.0575631 -2.55803e-21)
(0.294198 0.175396 -2.2261e-21)
(0.55635 -0.133821 1.35356e-21)
(0.213049 -0.097877 2.72038e-23)
(0.492108 0.156019 -2.86107e-23)
(0.719488 -0.382498 -1.6887e-22)
(0.0171177 0.0797184 7.32398e-22)
(0.495466 -0.288528 5.47314e-23)
(-0.00122172 0.0445982 2.33827e-21)
(0.360885 0.142519 -2.34499e-23)
(0.218164 0.122064 1.21901e-21)
(0.28936 -0.12266 7.71813e-23)
(0.424995 -0.0559251 -2.87921e-21)
(0.318836 0.0162559 0)
(0.34819 -0.113875 3.14582e-21)
(0.17455 0.0503891 -1.67565e-21)
(0.441836 0.207394 -1.19198e-21)
(-0.000518568 0.0608453 -1.63349e-21)
(0.745835 -0.331317 2.55655e-23)
(0.33048 0.0194433 0)
(0.362305 -0.128608 1.05769e-21)
(0.164801 0.0622093 2.36913e-21)
(0.305334 -0.0234933 -1.27447e-21)
(0.227698 0.034089 1.39271e-21)
(0.258856 -0.0420766 -3.42131e-22)
(0.197287 0.186054 1.22048e-21)
(0.513946 -0.0256422 6.24202e-22)
(0.467654 -0.307739 -1.53719e-21)
(0.356689 -0.0205376 0)
(0.304689 -0.103453 0)
(0.193185 0.0810021 -1.95341e-22)
(0.361734 -0.00676954 -1.56479e-21)
(0.33694 -0.124824 -8.46095e-22)
(0.182334 0.0851098 -2.762e-23)
(0.305728 0.218331 -2.72481e-21)
(0.618567 -0.131331 8.94676e-22)
(0.250803 -0.151462 1.89925e-21)
(0.0088893 0.0582173 -2.49359e-21)
(0.00765887 0.0615875 2.54568e-21)
(0.764987 -0.33303 1.23692e-22)
(0.756456 -0.341997 4.06371e-23)
(0.450638 0.204276 -1.10796e-21)
(0.457261 0.197013 1.64581e-21)
(0.491335 0.147417 -9.15697e-22)
(0.717504 -0.380176 1.88992e-22)
(0.0235188 0.0840708 0)
(0.213193 -0.128326 -1.24516e-21)
(0.330694 0.234063 -5.53384e-22)
(0.668074 -0.155241 0)
(0.241059 0.156941 0)
(0.292692 -0.147493 1.18801e-21)
(0.486644 -0.0785478 -8.38319e-22)
(0.489561 0.0231155 0)
(0.558958 -0.353089 -8.7811e-22)
(0.141042 0.154205 -3.88758e-23)
(0.566281 -0.341616 4.66849e-22)
(0.00272316 0.0562966 0)
(0.439214 0.143484 5.96856e-23)
(0.0487231 0.105241 0)
(0.515266 0.10722 0)
(0.683684 -0.413803 -2.18836e-22)
(0.451668 0.191923 -3.60538e-22)
(-0.00161857 0.0647598 0)
(0.710544 -0.345747 -4.12866e-22)
(-0.00168987 0.0400351 8.6166e-33)
(0.458536 -0.263335 -1.11602e-21)
(0.32662 0.136009 3.02576e-24)
(0.477583 -0.230782 1.26751e-21)
(-0.00493949 0.041177 -8.59667e-33)
(0.307645 0.159158 5.05197e-24)
(0.624365 -0.327659 1.60109e-21)
(0.442357 0.0931365 0)
(0.0752648 0.0959876 3.43834e-21)
(0.65076 -0.390019 -1.37354e-22)
(0.0147982 0.0759444 0)
(0.50513 0.137168 0)
(0.447315 0.147479 1.05915e-21)
(0.69925 -0.332599 -6.0563e-22)
(0.0405875 0.0695447 -1.77272e-21)
(0.415881 0.23302 -1.53925e-21)
(0.011477 0.0422756 -9.81472e-22)
(0.790104 -0.28666 0)
(0.317425 0.0860152 -5.88969e-22)
(0.132356 0.0246623 6.68534e-22)
(0.47577 -0.169341 -5.67694e-22)
(0.686992 -0.410776 0)
(0.0335348 0.094434 -1.21588e-21)
(0.516982 0.121243 -2.48184e-22)
(0.490288 0.013449 7.44746e-22)
(0.152648 0.16072 6.96409e-22)
(0.537609 -0.339202 0)
(0.605877 -0.358653 0)
(0.470639 0.0627734 0)
(0.0980325 0.125194 -1.25092e-21)
(-0.00102909 0.0196175 0)
(0.261311 -0.130142 -1.32899e-21)
(0.179507 0.0810831 1.53465e-22)
(0.566893 -0.305319 7.9409e-22)
(-0.003495 0.0517819 1.41267e-21)
(0.387197 0.168995 1.83551e-22)
(0.306074 0.0760072 1.53982e-21)
(0.145515 0.0202053 -1.60853e-21)
(0.441864 -0.150548 -6.30212e-22)
(0.697801 -0.392852 1.10792e-22)
(0.504509 0.144499 3.49151e-22)
(0.0185825 0.0829119 0)
(0.025733 0.087352 1.27142e-21)
(0.519253 0.12609 0)
(0.669532 -0.407239 -9.28591e-24)
(0.462417 0.181688 6.00273e-22)
(0.015664 0.0645891 -3.83374e-21)
(0.748987 -0.345837 -5.93192e-23)
(0.0459921 0.0190777 2.8772e-21)
(0.776956 -0.277378 -1.96102e-22)
(0.418121 0.223164 0)
(0.297359 0.225148 3.4948e-21)
(0.616186 -0.120955 -1.14076e-21)
(0.281548 -0.179025 1.81088e-21)
(0.719912 -0.221662 -1.26548e-22)
(0.376981 0.223637 -1.04798e-21)
(0.116501 -0.0404456 1.78144e-21)
(0.0382445 0.0189617 2.57121e-21)
(0.415658 0.235966 0)
(0.798359 -0.274691 -1.32467e-22)
(0.308899 0.163082 5.55846e-22)
(0.325799 0.172524 0)
(0.558005 -0.15542 1.46236e-21)
(0.590502 -0.173739 -1.56279e-21)
(0.172415 -0.0560191 -1.24917e-21)
(0.155624 -0.0494626 0)
(0.294478 0.164519 5.53818e-22)
(0.543836 -0.137459 0)
(0.198618 -0.0784202 -5.81206e-22)
(0.345559 0.220832 0)
(0.672475 -0.182446 9.83473e-22)
(0.168132 -0.0819891 -4.1301e-22)
(0.633224 -0.375516 7.09259e-22)
(0.481124 0.0733848 -6.76681e-22)
(0.0848707 0.119523 2.72967e-21)
(0.707539 -0.393779 0)
(0.497947 0.138966 -1.33265e-22)
(0.0262669 0.0876539 0)
(0.0652927 0.105723 8.81727e-22)
(0.478052 0.0958258 4.03464e-22)
(0.66076 -0.37489 4.3419e-22)
(0.518652 -0.240015 -1.94761e-22)
(-0.0063191 0.0452816 -3.4953e-25)
(0.324518 0.172083 0)
(0.24698 0.120839 -1.11555e-21)
(0.254112 0.112358 0)
(0.232222 -0.0785409 2.92396e-22)
(0.443308 -0.0880132 -3.39887e-21)
(0.215539 -0.0612186 -3.69911e-22)
(0.437807 -0.0966701 2.19999e-21)
(0.322903 0.207018 0)
(0.305649 0.197766 3.51275e-22)
(0.218077 -0.111961 -2.72887e-23)
(0.627133 -0.158381 -7.53986e-22)
(0.197423 -0.0964899 -2.97787e-21)
(0.595927 -0.141275 1.68459e-21)
(0.489331 -0.302106 0)
(0.00045283 0.0454294 -2.54858e-21)
(0.380375 0.134322 0)
(0.705816 -0.389949 4.4369e-23)
(0.500828 0.1457 -1.29172e-22)
(0.0192575 0.0822761 -7.68997e-22)
(0.250384 0.180027 6.8432e-22)
(0.316888 -0.181356 1.30676e-21)
(0.522031 -0.0823346 -2.41058e-21)
(0.602704 -0.37903 -1.68728e-21)
(0.493876 0.0451763 -1.66154e-21)
(0.115053 0.143137 0)
(0.0560383 0.00931057 -3.07651e-21)
(0.772139 -0.268607 2.08657e-22)
(0.412504 0.224742 0)
(0.637502 -0.339186 0)
(0.437648 0.17624 0)
(-0.00218626 0.0606476 0)
(0.651255 -0.353525 0)
(0.456748 0.170659 -4.01653e-22)
(0.00032037 0.0640959 0)
(0.365573 0.201722 1.02441e-21)
(0.677078 -0.21509 -3.61769e-22)
(0.117764 -0.0320457 -8.48085e-22)
(0.194264 0.125771 3.29487e-22)
(0.349569 -0.167989 0)
(0.421531 -0.0289884 -9.36942e-22)
(0.463415 0.18694 -6.99427e-22)
(0.0113823 0.0646857 -2.22264e-21)
(0.75319 -0.347036 2.17898e-23)
(0.632929 -0.344232 0)
(0.454846 0.0922445 0)
(0.0735192 0.103187 -2.96501e-21)
(0.0336472 0.0480801 -7.42537e-22)
(0.73783 -0.312472 -5.88796e-22)
(0.436181 0.184646 -2.24211e-21)
(0.29444 0.197288 -3.5782e-22)
(0.242047 -0.131284 2.00234e-21)
(0.581932 -0.128769 -9.06598e-22)
(0.425624 0.0215108 1.64045e-21)
(0.476806 -0.256836 -9.91311e-22)
(0.142771 0.12373 -2.53201e-21)
(0.227857 0.14208 -4.25375e-23)
(0.299274 -0.14571 3.96287e-22)
(0.458985 -0.0663428 1.0982e-21)
(0.00971519 0.0694529 8.59068e-22)
(0.741476 -0.359138 1.79217e-22)
(0.472269 0.179838 -6.76977e-22)
(0.414089 0.186139 4.35963e-22)
(0.719078 -0.282887 2.34617e-22)
(0.0536566 0.0299803 0)
(0.224432 0.114097 1.20985e-21)
(0.268439 -0.101277 -2.47475e-21)
(0.418612 -0.0624075 1.90829e-21)
(0.414989 0.238029 -6.50508e-22)
(0.0286292 0.025959 -1.12811e-21)
(0.802478 -0.27754 -7.08689e-23)
(0.287569 0.13805 6.7416e-22)
(0.503293 -0.13619 0)
(0.180965 -0.0525982 0)
(0.351117 0.0370858 2.62657e-21)
(0.419254 -0.174278 -6.3649e-22)
(0.141897 0.0724275 0)
(0.600429 -0.340332 0)
(0.456395 0.0672973 -1.54163e-21)
(0.0937246 0.117175 1.31012e-21)
(0.407572 0.220452 0)
(-0.00291219 0.0549508 3.43817e-22)
(0.744928 -0.294445 7.88697e-22)
(0.405827 0.22676 -5.33427e-22)
(2.41774e-05 0.0516216 -1.0949e-21)
(0.761245 -0.287454 -5.30435e-22)
(0.0348831 0.0413868 -6.74593e-22)
(0.747947 -0.305006 2.15069e-22)
(0.432097 0.194177 2.0755e-21)
(0.445609 0.00943764 6.83543e-22)
(0.482709 -0.275567 2.06262e-21)
(0.153678 0.137259 0)
(-0.00621304 0.0554654 -3.15012e-22)
(0.713814 -0.282103 -7.35141e-22)
(0.388242 0.216609 0)
(0.034148 0.0731247 0)
(0.711356 -0.346274 3.37828e-22)
(0.458872 0.14946 2.40963e-22)
(-0.000156937 0.0326132 -1.26658e-21)
(0.383615 -0.237163 1.03755e-21)
(0.28822 0.109488 0)
(0.257194 0.144886 1.13094e-22)
(0.41627 -0.184981 0)
(-0.0049017 0.034772 -1.26445e-21)
(0.0371066 0.0239864 2.76634e-25)
(0.789397 -0.282529 -7.17315e-24)
(0.420374 0.228629 0)
(0.00415562 0.0701519 0)
(0.718703 -0.364317 0)
(0.475149 0.178148 -7.5426e-22)
(0.445833 0.205231 6.73548e-22)
(0.444767 0.199832 -5.4492e-22)
(0.0149158 0.0518679 1.25376e-21)
(0.771998 -0.322456 -2.15309e-23)
(0.0194962 0.0507208 0)
(0.764756 -0.321669 0)
(0.464536 0.138914 -4.70304e-22)
(0.702396 -0.354607 -2.76411e-22)
(0.0375126 0.0797431 0)
(0.13458 0.156569 0)
(0.578864 -0.374367 0)
(0.500812 0.0289646 0)
(0.257095 0.089948 -1.50813e-21)
(0.202531 -0.0372623 3.49456e-21)
(0.409328 -0.0947862 -1.25149e-21)
(0.466701 0.113548 -1.33879e-21)
(0.67274 -0.3609 -1.35453e-22)
(0.0530611 0.0931868 -2.60409e-21)
(0.0625638 0.0998328 -1.68478e-21)
(0.467084 0.102585 1.86059e-21)
(0.658517 -0.361515 1.87886e-22)
(0.408246 0.242502 -8.15549e-22)
(0.0528455 0.00416776 -1.2269e-21)
(0.799389 -0.260587 0)
(0.327864 0.215384 0)
(0.643662 -0.161285 -2.85757e-22)
(0.196649 -0.101797 2.9189e-21)
(0.30713 0.184988 0)
(0.581516 -0.146197 -1.77717e-21)
(0.202539 -0.0950387 -6.50919e-24)
(0.431092 0.113651 1.95906e-21)
(0.641416 -0.316851 -1.99196e-22)
(0.0628917 0.0790651 1.50448e-21)
(0.441272 0.108555 0)
(0.644183 -0.328836 -1.96766e-22)
(0.0634387 0.0863723 -1.37286e-21)
(0.216777 0.100585 0)
(0.273068 -0.0952383 3.8724e-21)
(0.394351 -0.051443 0)
(0.329242 0.181255 0)
(0.604211 -0.175517 9.3959e-22)
(0.156808 -0.0580399 -4.52626e-22)
(0.041332 0.100686 2.63533e-21)
(0.678489 -0.416975 4.50247e-22)
(0.523371 0.111089 0)
(0.466648 0.15874 6.93251e-24)
(0.00310776 0.0644213 -7.9215e-22)
(0.629643 -0.360534 3.08973e-22)
(0.461471 0.147634 4.81326e-23)
(0.00420798 0.0617228 0)
(0.601243 -0.357248 -9.39756e-22)
(0.262684 0.152904 -8.12546e-22)
(0.241243 -0.104165 4.28195e-22)
(0.497817 -0.104128 7.25678e-23)
(0.593063 -0.325096 -9.65261e-23)
(-0.00198272 0.0560004 -3.24672e-21)
(0.420252 0.166688 0)
(0.421618 0.196418 -1.85415e-21)
(0.0456205 0.0318413 0)
(0.74047 -0.290151 0)
(0.000516184 0.0534898 1.2898e-21)
(0.557575 -0.32944 -7.58104e-22)
(0.418878 0.149142 -1.63031e-23)
(0.296598 0.0358136 -1.9545e-21)
(0.176279 0.0293897 -2.1195e-21)
(0.359218 -0.104517 -2.92986e-23)
(0.363926 0.127512 3.27203e-22)
(0.582608 -0.228438 2.53856e-22)
(0.0946641 0.0284313 1.38481e-21)
(0.450364 -0.259115 -2.41083e-21)
(0.451768 -0.00533567 -2.57078e-21)
(0.170002 0.144448 0)
(0.0170998 0.0796897 0)
(0.668529 -0.394541 -1.29471e-22)
(0.508448 0.138414 0)
(0.622278 -0.350442 0)
(0.460085 0.0817522 0)
(0.0811875 0.110076 0)
(0.0185452 0.0371741 0)
(0.421203 0.23198 5.5605e-22)
(0.79586 -0.288599 1.90914e-22)
(0.379727 0.133445 0)
(0.607719 -0.247437 -1.38747e-22)
(0.0822428 0.0365219 2.3678e-24)
(0.254138 0.078931 1.45688e-21)
(0.206147 -0.0324813 -3.0061e-21)
(0.389944 -0.086103 0)
(0.689324 -0.389037 -1.04796e-22)
(0.499817 0.150706 -3.31329e-22)
(0.0136172 0.0782357 0)
(0.0284296 0.0623998 1.53603e-21)
(0.728969 -0.336057 -1.82546e-23)
(0.451601 0.16864 -7.06499e-23)
(0.427125 0.210366 0)
(0.421028 0.208308 -4.10952e-22)
(-0.00331988 0.0595893 -7.84962e-22)
(-0.00503256 0.0600573 9.77863e-22)
(0.734049 -0.315541 -3.92952e-22)
(0.715363 -0.314763 3.23123e-22)
(0.388253 0.0683182 0)
(0.52239 -0.250919 -1.85391e-21)
(0.105203 0.0828383 -1.66866e-21)
(0.599337 -0.310755 -2.26609e-21)
(0.43077 0.0838056 0)
(0.0824687 0.0965472 1.82098e-21)
(0.323886 0.0528134 1.52753e-21)
(0.418957 -0.15626 -1.05022e-21)
(0.141622 0.0469815 -2.65791e-21)
(0.65309 -0.375691 4.43407e-22)
(0.484773 0.154764 -2.7499e-22)
(0.641531 -0.381152 -2.63841e-22)
(0.00665483 0.0695793 8.39171e-22)
(0.491978 0.144352 2.58765e-22)
(0.0100051 0.0706888 0)
(0.410848 0.147196 0)
(0.662699 -0.288225 0)
(0.0591621 0.050169 -1.70261e-21)
(0.490837 0.159819 -3.64015e-22)
(0.485004 0.161269 9.47866e-22)
(0.693731 -0.381068 2.90901e-22)
(0.677783 -0.374882 -5.65423e-22)
(0.00857516 0.0742713 -2.22991e-21)
(0.00589438 0.0709583 5.23655e-24)
(0.429004 0.0729621 0)
(0.576704 -0.304727 2.24399e-21)
(0.0946126 0.10471 -2.36525e-21)
(0.35843 0.0895132 -1.39261e-21)
(0.544828 -0.229295 1.60189e-21)
(0.0970108 0.0487337 0)
(0.418786 0.227538 0)
(0.00537162 0.0487528 -1.5246e-22)
(0.777874 -0.296201 5.09373e-22)
(0.382469 0.0813354 -1.02944e-21)
(0.537843 -0.246918 0)
(0.0975035 0.0735275 2.75838e-21)
(0.334538 0.0646936 -6.2606e-22)
(0.455726 -0.182341 1.23169e-21)
(0.128086 0.0502903 -1.52676e-21)
(0.420425 0.215798 0)
(-0.00174428 0.0568121 0)
(0.749337 -0.308314 -6.22053e-22)
(0.379294 0.146841 0)
(0.629543 -0.246898 -2.32522e-22)
(0.0796596 0.0271522 1.66697e-21)
(0.525029 -0.340937 0)
(0.504317 0.00131348 0)
(0.167064 0.172514 8.91386e-23)
(0.293436 0.205521 8.88916e-23)
(0.590111 -0.12322 0)
(0.256356 -0.148015 -1.50599e-21)
(0.652958 -0.411986 -7.35118e-22)
(0.0815102 0.127293 0)
(0.511491 0.0742887 0)
(-0.0019378 0.0284253 3.04266e-21)
(0.352289 -0.17947 1.8608e-21)
(0.240238 0.10951 -2.14841e-22)
(0.379437 0.1071 0)
(0.569555 -0.24731 -9.90482e-22)
(0.0874098 0.0545157 0)
(0.435478 0.217624 -1.0352e-21)
(0.00818546 0.0514079 -4.19708e-21)
(0.777432 -0.311699 -4.52674e-22)
(0.339073 -0.220919 0)
(0.578688 -0.0910611 7.97301e-22)
(0.266689 0.214295 0)
(0.316169 0.181594 0)
(-0.00808736 0.0468759 7.52191e-22)
(0.546359 -0.232051 0)
(0.1704 0.102985 -1.61783e-21)
(0.174748 0.11637 1.65481e-21)
(0.370553 -0.168653 0)
(0.38672 -0.00459845 -1.20736e-21)
(0.382069 -0.186435 2.46781e-21)
(0.406642 -0.0112617 9.49947e-22)
(0.332388 0.0372731 -1.43837e-21)
(0.397215 -0.149234 -1.4847e-21)
(0.149859 0.0587244 0)
(0.202097 0.117181 -1.40457e-21)
(0.186991 0.105524 0)
(0.317917 -0.139831 0)
(0.411772 -0.0388304 0)
(0.332834 -0.142456 1.48211e-21)
(0.390782 -0.0215885 -1.36675e-23)
(0.367276 0.103048 -8.72862e-23)
(0.515214 -0.217859 7.3432e-22)
(0.106504 0.054827 1.89951e-21)
(0.365115 0.0799705 2.40206e-21)
(0.513862 -0.223607 0)
(0.107278 0.064358 0)
(0.00826216 0.0655612 0)
(0.606383 -0.371362 0)
(0.479942 0.139589 -1.34377e-22)
(0.278783 0.153642 2.22725e-21)
(0.514179 -0.121041 0)
(0.212751 -0.0830918 -7.92637e-22)
(0.484899 0.167383 1.04524e-21)
(0.713682 -0.376233 1.85336e-22)
(0.00765075 0.0738005 1.27605e-21)
(0.432642 0.128616 0)
(0.443711 0.134918 -1.02079e-21)
(0.663226 -0.31711 2.48298e-22)
(0.681514 -0.329502 -6.3054e-22)
(0.0535599 0.072371 1.86425e-21)
(0.0468293 0.0740995 1.71142e-21)
(0.275957 0.140336 0)
(0.494804 -0.121161 0)
(0.202883 -0.069706 -3.79957e-22)
(0.343024 0.201436 -8.43674e-22)
(0.645437 -0.185206 0)
(0.156274 -0.0629089 -9.76112e-22)
(0.408309 0.123539 5.6533e-22)
(0.628904 -0.287715 0)
(0.0654909 0.0632312 -1.72393e-21)
(0.236138 0.0554694 -1.56711e-21)
(0.341712 -0.0526338 -7.27366e-22)
(0.233854 -0.0402918 -8.10072e-22)
(0.454483 0.11866 0)
(0.669554 -0.345374 0)
(0.0529709 0.0867579 2.76961e-21)
(0.243436 0.0971516 0)
(0.224655 -0.0583945 -4.35797e-22)
(0.408104 -0.0816969 0)
(0.418225 0.0862932 1.27213e-21)
(0.585739 -0.297356 1.21983e-21)
(0.0856009 0.0887867 2.38158e-22)
(0.343961 0.189908 -8.40574e-22)
(0.633691 -0.190864 -1.07131e-21)
(0.142495 -0.049291 0)
(0.235447 0.0703471 1.55293e-21)
(0.224028 0.0761107 6.94712e-22)
(0.362887 -0.0620475 -6.98292e-22)
(0.231964 -0.0486052 1.59788e-21)
(0.364939 -0.053394 0)
(0.250191 -0.0665515 2.8462e-21)
(0.202056 0.0930304 7.1163e-22)
(0.293696 -0.108185 -1.77691e-21)
(0.190419 0.097383 -4.58524e-22)
(0.378819 -0.03518 0)
(0.326772 -0.132361 -9.85787e-22)
(0.381302 -0.0222345 1.39016e-21)
(0.306168 0.150724 -7.97997e-22)
(0.322583 0.150181 0)
(0.540154 -0.156097 -1.1648e-21)
(0.558349 -0.175027 9.06995e-22)
(0.163392 -0.0435635 3.609e-21)
(0.141846 -0.0244997 -3.00129e-21)
(0.0415833 0.0267655 0)
(0.765623 -0.286835 9.31838e-23)
(0.422257 0.212746 1.05728e-21)
(0.178666 0.174415 -3.01547e-21)
(0.500595 -0.00975585 -9.83667e-22)
(0.494804 -0.317414 2.375e-21)
(0.0308734 0.0358296 1.43972e-21)
(0.0275073 0.0425062 0)
(0.771681 -0.299662 -8.05715e-23)
(0.762814 -0.309494 -1.96545e-22)
(0.429966 0.212672 -2.65147e-21)
(0.436282 0.203114 1.36571e-21)
(0.22589 0.182557 0)
(0.379361 -0.229416 1.40564e-21)
(0.511658 -0.0549969 -2.47645e-22)
(0.249469 0.0262609 -3.27869e-21)
(0.234564 -0.0167387 0)
(0.305149 -0.0396807 2.51691e-21)
(0.454798 0.130469 4.65974e-22)
(0.684721 -0.344522 7.09804e-22)
(0.0456349 0.0810021 0)
(0.257394 0.131429 0)
(0.225029 -0.0842473 3.62147e-22)
(0.466167 -0.0999372 1.08161e-21)
(0.353601 0.190511 0)
(0.647263 -0.202818 0)
(0.127851 -0.0362842 2.3359e-22)
(0.406765 0.216984 0)
(0.408055 0.207956 0)
(0.753239 -0.263884 -1.01539e-22)
(0.0651728 0.00563555 1.78519e-21)
(0.742173 -0.26824 2.79538e-22)
(0.0617137 0.0126484 -2.41888e-21)
(0.423643 0.145856 -1.05756e-21)
(0.67659 -0.303331 -6.82557e-22)
(0.0510276 0.058584 -8.11514e-22)
(0.350467 0.189588 -2.80658e-22)
(0.594296 -0.260215 0)
(-0.00795703 0.0513476 9.28958e-22)
(0.358492 -0.230693 0)
(0.554623 -0.0769569 -6.421e-22)
(0.251786 0.204096 0)
(0.279407 0.215136 -9.00389e-22)
(0.271636 0.204882 9.79097e-22)