/*--------------------------------*- C++ -*----------------------------------*\
  =========                 |
  \\      /  F ield         | OpenFOAM: The Open Source CFD Toolbox
   \\    /   O peration     | Website:  https://openfoam.org
    \\  /    A nd           | Version:  6
     \\/     M anipulation  |
\*---------------------------------------------------------------------------*/
FoamFile
{
    version     2.0;
    format      ascii;
    class       volVectorField;
    location    "0";
    object      U;
}
// * * * * * * * * * * * * * * * * * * * * * * * * * * * * * * * * * * * * * //

dimensions      [0 1 -1 0 0 0 0];

internalField   nonuniform List<vector> 
13046
(
(-0.818574 0.352503 0)
(-0.640814 -0.0224287 -8.6537e-21)
(-0.312195 -0.106115 -1.94234e-20)
(-0.777063 0.254134 0)
(-0.3532 -0.0124003 -1.76661e-20)
(-0.542597 -0.0671394 0)
(-0.848014 0.296216 2.56552e-21)
(-0.554964 -0.0967352 4.41812e-21)
(-0.326023 -0.0105189 -1.94601e-20)
(-1.53857 0.787543 6.64283e-21)
(-0.864213 -0.279584 0)
(-0.0388362 -0.14477 1.29726e-20)
(-1.01202 0.450802 -8.22847e-21)
(-0.651392 -0.0860855 -1.36488e-20)
(-0.249956 -0.107012 1.06879e-20)
(-1.49387 0.865799 -9.39055e-21)
(-0.0895729 -0.186889 3.10388e-20)
(-0.904756 -0.190471 6.96569e-21)
(-0.494293 0.120827 0)
(-0.446587 -0.0897963 -9.44609e-21)
(-0.68713 0.135762 2.67075e-20)
(-1.50719 0.857372 -3.74135e-21)
(-0.0775485 -0.177107 -4.14761e-20)
(-0.894348 -0.20941 0)
(-0.711377 0.242192 1.08638e-20)
(-0.586528 -0.0138282 -2.12684e-20)
(-0.357935 -0.0568341 0)
(-1.02208 0.488183 -1.48838e-20)
(-0.673205 -0.0789096 3.99047e-21)
(-0.241969 -0.127812 -1.85146e-20)
(-0.830074 0.378751 0)
(-0.670638 -0.00194262 0)
(-0.307088 -0.131731 1.97664e-20)
(-0.647794 0.194013 -1.26146e-20)
(-0.385944 -0.0414003 6.56199e-21)
(-0.574675 0.00632317 3.70968e-20)
(-0.632054 0.166286 -1.94e-20)
(-0.410073 -0.0109423 1.00475e-20)
(-0.547023 -0.000672625 -1.91451e-20)
(-0.677489 0.333529 1.41553e-20)
(-0.385538 -0.20961 3.62569e-21)
(-0.818103 0.11627 -1.30345e-20)
(-0.56176 0.0826492 8.72831e-21)
(-0.487309 0.0492692 1.5052e-20)
(-0.498626 0.00780971 0)
(-0.604145 0.104865 5.51396e-21)
(-0.475431 0.0637691 -2.30526e-20)
(-0.479089 -0.0226371 -2.86102e-21)
(-0.850544 0.356297 0)
(-0.62194 -0.0494956 -6.21182e-22)
(-0.293005 -0.0912495 1.10867e-23)
(-0.476981 -0.297856 2.22708e-20)
(-0.567672 0.321666 0)
(-1.05413 0.238969 -1.57984e-20)
(-0.508661 -0.313933 -3.17104e-20)
(-1.1289 0.279927 -2.49673e-20)
(-0.508231 0.283715 2.22518e-20)
(-0.885378 -0.0348984 -3.11417e-21)
(-1.27976 0.819381 0)
(-0.231625 -0.265302 1.69612e-20)
(-1.28896 0.524759 -7.653e-21)
(-0.662621 -0.225752 8.08988e-21)
(-0.194967 -0.0295595 -4.53408e-20)
(-0.0855652 -0.144525 2.37508e-20)
(-0.819674 -0.230682 -5.11672e-21)
(-1.52296 0.762143 -1.1523e-20)
(-1.21448 0.798529 0)
(-0.900643 0.00289156 0)
(-0.264699 -0.287883 0)
(-1.16101 0.757901 -6.09297e-21)
(-0.892901 0.0153006 0)
(-0.277657 -0.285738 1.34754e-20)
(-0.902645 -0.0432741 0)
(-1.32451 0.853612 2.49258e-22)
(-0.217574 -0.269783 3.00064e-24)
(-0.523091 0.153548 0)
(-0.42867 -0.112729 1.02527e-20)
(-0.70901 0.122867 -1.90306e-20)
(-0.173453 -0.241242 1.88436e-20)
(-1.39436 0.876983 -1.75337e-20)
(-0.895117 -0.0957307 0)
(-0.758851 0.268369 5.69587e-21)
(-0.575574 -0.0357865 0)
(-0.340613 -0.0456088 0)
(-0.0753755 -0.149828 -2.1332e-20)
(-0.836163 -0.2393 -3.96978e-21)
(-1.54333 0.781889 6.80783e-21)
(-1.57997 0.670922 -1.1855e-20)
(-0.0814239 -0.0823989 0)
(-0.764222 -0.304079 -3.96515e-21)
(-0.10333 -0.013595 0)
(-1.65531 0.586917 0)
(-0.720507 -0.386871 5.31033e-22)
(-1.30058 0.649606 0)
(-1.35944 0.669156 6.86193e-21)
(-0.7461 -0.150818 1.57389e-20)
(-0.755186 -0.177511 -7.38547e-21)
(-0.165542 -0.142687 -9.75815e-21)
(-0.145564 -0.132459 2.50229e-20)
(-0.0935788 -0.0629821 -1.2048e-21)
(-1.5762 0.64677 1.1603e-20)
(-0.745778 -0.319428 0)
(-0.651368 0.14492 -3.12088e-23)
(-0.443478 0.0497123 1.21687e-20)
(-0.488227 -0.0436547 0)
(-0.422451 0.188866 0)
(-1.05616 0.296593 -7.74123e-21)
(-0.514471 -0.253709 0)
(-0.572647 0.299161 2.45282e-20)
(-0.44922 -0.254503 0)
(-0.953285 0.200942 -2.97471e-20)
(-1.40991 0.738984 0)
(-0.0141104 -0.126043 0)
(-0.841272 -0.318775 -5.63385e-21)
(-0.94101 0.406692 2.26866e-20)
(-0.631839 -0.0724403 5.76924e-21)
(-0.268947 -0.092381 1.94466e-20)
(-1.3598 0.736611 8.85054e-21)
(-1.30417 0.68895 -1.67505e-20)
(-0.799146 -0.138284 -1.33349e-20)
(-0.156793 -0.177924 1.11824e-20)
(-0.770238 -0.129956 8.0898e-21)
(-0.1693 -0.166761 -1.04471e-20)
(-1.51594 0.79375 -5.01674e-21)
(-0.872409 -0.28349 -7.93043e-21)
(-0.034541 -0.145704 -5.80826e-21)
(-1.17281 0.58442 0)
(-0.716071 -0.11405 -1.04806e-20)
(-0.200092 -0.145738 2.27252e-20)
(-0.738429 0.372079 0)
(-0.359491 -0.202745 -1.79704e-20)
(-0.78916 0.0838263 7.53113e-22)
(-0.128437 0.0065591 0)
(-1.62708 0.569975 0)
(-0.708454 -0.376536 0)
(-1.461 0.689813 0)
(-0.768138 -0.227341 -2.0479e-20)
(-0.115372 -0.114814 -2.69387e-20)
(-0.89252 0.418153 0)
(-0.686103 -0.0171458 0)
(-0.288715 -0.148027 0)
(-1.0411 0.373247 0)
(-0.572431 -0.18092 0)
(-0.295927 0.0239193 0)
(-0.53812 0.280543 0)
(-0.474298 -0.268411 0)
(-1.0064 0.234378 1.60061e-20)
(-0.427918 0.172381 -2.55888e-21)
(-1.01834 0.285464 -1.67356e-20)
(-0.509697 -0.237183 1.93858e-20)
(-1.33328 0.556418 1.7498e-20)
(-0.685366 -0.22852 0)
(-0.170911 -0.0550231 5.89699e-20)
(-0.39496 0.102212 0)
(-0.913361 0.26695 1.81802e-20)
(-0.503916 -0.174487 -4.91537e-21)
(-0.570201 -0.320396 0)
(-1.25293 0.370361 1.76314e-20)
(-0.599685 -0.322441 0)
(-1.31437 0.416065 1.00874e-20)
(-0.377292 0.188368 0)
(-0.316547 0.137756 0)
(-1.07188 0.347951 2.30654e-21)
(-0.55277 -0.219483 1.02229e-20)
(-0.329156 0.07647 -1.11966e-20)
(-1.56717 0.769828 -6.80278e-21)
(-0.0356147 -0.136448 0)
(-0.843021 -0.298176 -9.85665e-21)
(-1.45257 0.762433 -4.30174e-21)
(-0.0213768 -0.135197 -2.65923e-21)
(-0.86216 -0.302747 0)
(-1.47595 0.717095 -9.74151e-21)
(-0.785351 -0.223088 0)
(-0.106786 -0.1288 3.0627e-20)
(-0.83953 0.484212 0)
(-0.856391 0.0875072 4.17429e-21)
(-0.353733 -0.253114 1.05185e-20)
(-1.02578 0.320581 1.51884e-20)
(-0.364063 0.109247 5.36052e-21)
(-0.532435 -0.212184 0)
(-0.0357598 -0.117608 0)
(-0.811011 -0.320434 0)
(-1.60702 0.727877 5.55738e-21)
(-0.783205 0.436492 0)
(-0.845647 0.102234 -9.0322e-21)
(-0.367034 -0.238304 2.72788e-21)
(-0.392847 0.120546 0)
(-0.93815 0.270848 0)
(-0.501596 -0.190912 0)
(-0.982561 0.335345 7.5798e-21)
(-0.555236 -0.165805 0)
(-0.311122 0.0246532 0)
(-0.656885 -0.125613 -6.04444e-23)
(-0.224923 -0.092915 -1.31787e-20)
(-1.12529 0.542885 2.35738e-20)
(-0.695501 -0.105799 0)
(-0.213784 -0.131928 -2.84765e-20)
(-1.57827 0.729456 -1.19599e-20)
(-0.066216 -0.117625 1.93496e-20)
(-0.803611 -0.282781 -1.92296e-20)
(-0.122432 -0.0161841 1.77544e-20)
(-1.5843 0.59291 7.36114e-21)
(-0.718083 -0.346885 1.9798e-20)
(-1.63702 0.633423 -1.94958e-20)
(-0.748234 -0.349955 0)
(-0.0777201 -0.0533206 -1.74401e-20)
(-0.48404 -0.343511 -1.14458e-21)
(-1.12293 0.242991 7.05545e-21)
(-0.630103 0.40763 0)
(-0.979713 0.383149 -3.4336e-20)
(-1.37416 0.887205 9.15863e-21)
(-0.189072 -0.253574 -1.15751e-20)
(-0.909162 -0.082016 0)
(-0.762119 -0.353129 0)
(-1.6409 0.661754 -1.66443e-20)
(-0.0586572 -0.0738318 0)
(-0.67064 0.177696 -2.79835e-20)
(-0.407486 0.0145787 -9.86653e-21)
(-0.518073 -0.0362492 2.81582e-20)
(-0.986376 0.483771 0)
(-0.688677 -0.05417 -5.74815e-22)
(-0.261242 -0.142142 -1.08353e-20)
(-0.134162 0.00354264 1.3618e-20)
(-1.59509 0.579081 0)
(-0.707003 -0.36349 -2.28085e-20)
(-1.03884 0.422668 2.74681e-20)
(-0.639561 -0.138405 2.46956e-20)
(-0.232906 -0.0733489 0)
(-0.0186896 -0.13004 0)
(-0.83089 -0.32491 8.49163e-21)
(-1.53057 0.747128 0)
(-0.56654 0.356339 0)
(-1.17089 0.26928 0)
(-0.505825 -0.34955 0)
(-1.60819 0.6277 1.70933e-20)
(-0.739095 -0.338001 0)
(-0.0918508 -0.0490926 -4.73779e-23)
(-1.18881 0.38264 6.66061e-21)
(-0.574742 -0.270852 -7.85626e-21)
(-0.315819 0.107057 0)
(-1.16674 0.6052 0)
(-0.730759 -0.0974937 9.78975e-21)
(-0.207357 -0.161173 1.78442e-20)
(-0.660475 -0.385717 -2.83794e-20)
(-1.53954 0.488484 -1.35425e-20)
(-0.231414 0.101249 1.07665e-20)
(-1.3813 0.433843 0)
(-0.616545 -0.34371 -1.11894e-20)
(-0.302449 0.136466 -3.87065e-22)
(-0.0120389 -0.124246 -1.71217e-20)
(-0.811651 -0.339778 0)
(-1.531 0.724207 -4.34977e-21)
(-0.675335 0.379748 1.31107e-20)
(-0.418177 -0.263187 -1.30758e-20)
(-0.927271 0.161044 1.31024e-21)
(-1.31688 0.769323 4.28031e-21)
(-0.0248033 -0.129145 -2.4982e-20)
(-0.881625 -0.270033 0)
(-0.44781 0.0815887 -5.75599e-21)
(-0.707631 0.162165 -2.16165e-20)
(-0.468965 -0.0854124 2.81569e-20)
(-1.2051 0.43326 7.86116e-21)
(-1.15868 0.388208 4.82858e-23)
(-0.603954 -0.240167 -1.89211e-20)
(-0.575903 -0.249777 0)
(-0.304829 0.0828592 1.01795e-20)
(-0.257412 0.0375795 -1.05354e-20)
(-0.152706 -0.230217 -2.46678e-20)
(-1.42393 0.884569 9.41445e-21)
(-0.905884 -0.11072 -1.7072e-20)
(-1.10859 0.580516 0)
(-0.735299 -0.0668206 0)
(-0.232893 -0.172434 -2.35016e-20)
(-1.44232 0.473168 -3.60069e-21)
(-0.640552 -0.353181 0)
(-0.257431 0.102727 0)
(-1.41648 0.71944 -8.39453e-21)
(-0.785402 -0.18122 0)
(-0.130114 -0.149424 1.1142e-20)
(-0.547286 0.0928541 5.89544e-21)
(-0.529593 0.0313837 8.56359e-21)
(-0.472525 0.0223031 -2.9498e-21)
(-1.28739 0.426792 -1.28662e-20)
(-0.605814 -0.297289 0)
(-0.285181 0.098636 -1.77877e-20)
(-1.11779 0.608267 0)
(-0.757395 -0.0569097 1.22128e-20)
(-0.234838 -0.189606 -1.51381e-20)
(-1.06841 0.458119 0)
(-1.13152 0.497589 2.74238e-21)
(-0.688463 0.400599 4.76141e-21)
(-0.422498 -0.27937 3.80078e-20)
(-0.954266 0.170062 -3.15043e-20)
(-1.33743 0.467004 -1.30786e-20)
(-0.629005 -0.29707 1.64463e-20)
(-0.240774 0.0592795 1.62304e-20)
(-1.45342 0.730815 0)
(-0.115227 -0.143103 -3.92817e-20)
(-0.794276 -0.199981 -1.01911e-20)
(-0.576627 0.279693 -3.38578e-20)
(-0.437825 -0.238664 0)
(-0.915177 0.192124 1.00761e-20)
(-0.401706 0.222448 -2.08684e-20)
(-1.2726 0.362311 -1.01914e-20)
(-0.567412 -0.341993 0)
(-1.27208 0.721873 -8.67887e-21)
(-0.804822 -0.0838505 -1.07316e-20)
(-0.196217 -0.206043 6.93706e-21)
(-0.624012 0.368377 1.72663e-21)
(-0.460188 -0.300728 0)
(-1.03323 0.22051 2.18177e-20)
(-1.32119 0.757969 0)
(-1.35833 0.767132 0)
(-0.821709 -0.0977136 -6.95491e-21)
(-0.183216 -0.207637 -1.8052e-20)
(-0.819725 -0.123419 9.83753e-21)
(-0.164118 -0.193905 1.91655e-20)
(-0.0464648 -0.125027 -1.49945e-20)
(-0.819288 -0.300473 0)
(-1.59549 0.747419 -8.18442e-21)
(-1.24685 0.664509 9.97037e-21)
(-0.76062 -0.109647 0)
(-0.1882 -0.17337 6.14186e-21)
(-0.78306 -0.323194 1.62246e-20)
(-0.00658182 -0.103736 2.18772e-20)
(-1.24621 0.68723 8.12138e-21)
(-0.824816 0.213629 -9.9432e-21)
(-0.434694 0.112779 0)
(-0.475669 -0.146753 0)
(-1.21626 0.492483 1.82108e-20)
(-0.643474 -0.202505 0)
(-0.210869 -0.033741 3.46346e-20)
(-0.0805228 -0.120017 -1.22584e-20)
(-1.54963 0.724781 2.47408e-20)
(-0.794188 -0.263289 1.44695e-20)
(-0.519013 -0.329204 0)
(-1.16536 0.289503 9.22886e-21)
(-0.501643 0.30146 -2.52088e-20)
(-0.677053 -0.379003 -3.4702e-20)
(-1.5637 0.521588 -8.14487e-21)
(-0.190029 0.0611194 0)
(-0.607203 -0.121526 -2.4851e-20)
(-0.263977 -0.0510242 0)
(-1.25008 0.557891 1.97769e-20)
(-0.683567 -0.175388 8.93648e-21)
(-0.18288 -0.0912544 1.05285e-20)
(-0.592219 -0.140344 1.46182e-20)
(-0.269999 -0.030107 7.90928e-23)
(-1.48891 0.859136 -5.97863e-22)
(-0.102194 -0.192063 1.4563e-20)
(-0.892938 -0.17562 -1.02345e-20)
(-0.472784 -0.36114 0)
(-1.12564 0.229099 2.25136e-21)
(-0.68399 0.458099 0)
(-1.30337 0.589932 -2.01762e-20)
(-0.705674 -0.18857 -1.09077e-20)
(-0.166532 -0.0926492 -1.28911e-20)
(-1.06813 0.375906 0)
(-0.567267 -0.202822 -1.48535e-20)
(-0.299936 0.0438294 0)
(-1.05115 0.27523 0)
(-0.498618 -0.27111 0)
(-0.474634 0.228453 0)
(-0.825473 0.320909 -7.8916e-21)
(-0.597498 -0.0504731 -1.37057e-20)
(-0.311579 -0.0671502 4.0277e-24)
(-0.451221 0.264413 2.58873e-20)
(-1.23585 0.332361 2.47011e-20)
(-0.549113 -0.341863 1.60185e-20)
(-1.60442 0.697193 -1.01258e-20)
(-0.782945 -0.307567 1.63551e-20)
(-0.0646707 -0.09945 -1.8314e-20)
(-0.685023 -0.361629 2.34622e-20)
(-1.54963 0.537392 8.2616e-21)
(-0.172988 0.0387764 1.36039e-20)
(-1.04018 0.679952 -1.89573e-20)
(-0.324762 -0.298692 2.02268e-20)
(-0.914474 0.061146 -1.49777e-20)
(-1.37639 0.829876 5.11718e-21)
(-1.33773 0.801559 -4.74659e-21)
(-0.850199 -0.0844757 -2.21381e-21)
(-0.865811 -0.0949793 0)
(-0.175516 -0.227047 -6.63434e-21)
(-0.189132 -0.22863 -5.83952e-21)
(-0.0114302 -0.111519 -2.9614e-20)
(-0.816411 -0.307118 -1.78679e-20)
(-1.27399 0.702812 2.81714e-21)
(-1.3473 0.788673 -2.98114e-22)
(-0.0316015 -0.138718 3.45646e-20)
(-0.898108 -0.260722 0)
(-1.26964 0.466322 -2.9139e-20)
(-0.62893 -0.252683 -4.24207e-21)
(-0.238712 0.0271305 0)
(-0.0583414 -0.127305 -3.72522e-20)
(-1.58378 0.746079 8.14678e-21)
(-0.818229 -0.281411 0)
(-1.17502 0.723393 2.63179e-20)
(-1.23069 0.747794 -1.97181e-20)
(-0.84534 -0.0218472 1.14845e-20)
(-0.839784 -0.0436087 4.39937e-21)
(-0.254134 -0.251807 -1.14714e-20)
(-0.230599 -0.240135 -5.76756e-21)
(-0.0359477 -0.0811388 0)
(-0.753047 -0.374075 0)
(-1.65882 0.639623 2.82027e-21)
(-1.22951 0.752072 -5.02299e-21)
(-0.0228326 -0.120369 0)
(-0.873931 -0.262049 0)
(-0.621041 0.0802394 -4.88961e-23)
(-0.537847 0.132569 1.26948e-20)
(-0.42893 -0.0592444 6.29488e-21)
(-1.3371 0.737316 -8.00109e-21)
(-0.849347 -0.304276 8.24213e-21)
(-0.015426 -0.122599 1.61913e-21)
(-0.92507 0.526274 0)
(-0.816729 0.0451818 -1.92832e-20)
(-0.318022 -0.236503 -1.68544e-23)
(-1.61336 0.716121 2.12409e-22)
(-0.799883 -0.328933 2.34681e-20)
(-0.0408539 -0.10931 5.81797e-24)
(-0.692136 -0.34945 4.89588e-22)
(0.00388905 -0.0886785 -1.26024e-20)
(-1.19425 0.581819 -2.59212e-21)
(-0.621882 0.282963 -1.21955e-20)
(-0.40015 -0.1904 1.14481e-20)
(-0.805079 0.131467 3.19216e-20)
(-0.764835 0.203638 0)
(-0.489237 -0.100982 -3.11731e-20)
(-0.411396 0.0645945 1.63284e-20)
(-1.49683 0.814418 0)
(-0.0404987 -0.151196 1.73152e-20)
(-0.886227 -0.268135 3.09377e-24)
(-0.807563 0.226425 0)
(-0.491257 -0.120404 -1.09435e-20)
(-0.399478 0.07739 -2.30623e-20)
(-0.595835 0.0753404 1.28766e-20)
(-0.526257 0.109267 -6.75516e-21)
(-0.445659 -0.0346005 3.31906e-21)
(-0.537496 0.349088 1.2541e-20)
(-1.23921 0.300362 -8.73408e-21)
(-0.531337 -0.372652 1.77063e-20)
(-0.743769 0.147216 0)
(-0.435866 -0.128448 0)
(-0.502795 0.165985 1.91053e-21)
(-0.804391 0.195957 1.57441e-20)
(-0.45983 -0.144542 8.45359e-21)
(-0.472786 0.147135 2.71444e-22)
(-0.97938 0.640543 2.8843e-20)
(-0.934382 0.0827726 -1.48036e-20)
(-0.349179 -0.310152 -1.9991e-20)
(-0.0605676 -0.158018 2.61244e-20)
(-0.0527012 -0.151322 -2.65727e-20)
(-0.876091 -0.245854 6.9395e-21)
(-0.863655 -0.262367 4.8236e-21)
(-1.53456 0.821737 0)
(-1.5481 0.809738 -6.80215e-21)
(-1.62239 0.69334 1.25949e-20)
(-0.785391 -0.319977 -1.46197e-20)
(-0.0551223 -0.0958068 2.26809e-20)
(-0.314163 -0.310288 -1.29789e-20)
(-1.09246 0.735654 5.86724e-21)
(-0.927423 0.0534597 1.9086e-20)
(-0.712303 0.388225 -1.19711e-20)
(-0.392994 -0.244824 -1.19489e-20)
(-0.877547 0.130775 9.96167e-21)
(-1.39863 0.40957 0)
(-0.606695 -0.368975 1.15767e-20)
(-0.343874 0.183315 4.00515e-22)
(-0.72173 -0.373951 8.17252e-21)
(0.00599896 -0.103821 -1.17885e-20)
(-1.40259 0.61342 -2.89558e-21)
(-0.0824144 -0.0356716 0)
(-1.65742 0.610525 0)
(-0.732542 -0.379065 9.87772e-21)
(-1.49344 0.762486 5.25091e-21)
(-0.0223814 -0.135946 0)
(-0.855615 -0.30725 -8.33308e-21)
(0.00253483 -0.0790877 -4.66897e-32)
(-0.662068 -0.335785 -7.50046e-21)
(-1.10824 0.559872 2.36124e-21)
(-0.709049 -0.287558 8.39857e-21)
(-0.00492504 -0.0807216 4.65769e-32)
(-1.06594 0.6279 -2.11975e-21)
(-0.679576 -0.279632 -2.25015e-20)
(-1.40733 0.545006 0)
(-0.179324 -0.0102574 -3.46812e-20)
(-0.748518 -0.378385 -4.43037e-21)
(-0.00925848 -0.101301 -1.20843e-20)
(-1.60762 0.639344 0)
(-1.49175 0.684386 -1.24146e-20)
(-0.763639 -0.249234 1.27026e-20)
(-0.108064 -0.103378 1.79924e-20)
(-1.45297 0.883017 1.84863e-20)
(-0.0802513 -0.187665 1.0525e-20)
(-0.941146 -0.185831 0)
(-0.936509 0.380711 6.03133e-21)
(-0.277753 -0.059892 -6.59006e-21)
(-0.605572 -0.0988903 5.98415e-21)
(-0.748367 -0.376407 5.088e-21)
(-0.0485836 -0.0679302 1.28075e-20)
(-1.6613 0.631644 3.3888e-21)
(-1.35483 0.385639 -9.95689e-21)
(-0.383345 0.218163 -7.12599e-21)
(-0.589461 -0.365194 0)
(-0.652854 -0.341063 0)
(-1.44761 0.494297 0)
(-0.223694 0.0718957 0)
(-4.05445e-05 -0.0359284 0)
(-0.427335 -0.195549 -6.21144e-21)
(-0.64699 0.343704 5.94024e-22)
(-0.765398 -0.34393 8.10279e-21)
(-0.00216894 -0.103572 -1.52395e-20)
(-1.27769 0.66948 -3.80174e-21)
(-0.872819 0.334827 -1.56167e-20)
(-0.300567 -0.0481597 1.55261e-20)
(-0.586679 -0.0846743 6.97439e-21)
(-0.776365 -0.352893 2.07535e-20)
(-1.63926 0.681257 -5.84182e-21)
(-0.0304216 -0.0984443 0)
(-0.0279654 -0.0820791 -1.34031e-20)
(-1.66029 0.632594 0)
(-0.743144 -0.384702 -1.55127e-20)
(-1.56483 0.775053 -7.55879e-21)
(-0.0635925 -0.140615 3.98505e-20)
(-0.833641 -0.259284 0)
(-0.130127 -0.20565 -2.98514e-20)
(-0.883937 -0.143665 1.08354e-20)
(-1.45288 0.858357 0)
(-0.943019 0.643581 -3.64896e-20)
(-0.98006 0.109599 1.88492e-20)
(-0.376753 -0.332756 -6.33923e-21)
(-0.85942 -0.0587902 3.31583e-21)
(-1.28843 0.800235 1.13181e-20)
(-0.216473 -0.247308 -1.81194e-20)
(-0.121455 -0.214778 -2.6808e-20)
(-1.45604 0.896814 0)
(-0.922037 -0.142614 0)
(-0.982817 0.529345 -5.70751e-21)
(-1.05058 0.579251 0)
(-0.757032 -0.00400912 -2.00379e-20)
(-0.769673 -0.0212419 2.14301e-20)
(-0.281325 -0.197121 3.07596e-21)
(-0.262164 -0.204086 -3.27678e-21)
(-0.922989 0.505491 5.47302e-21)
(-0.779557 0.0262358 0)
(-0.307099 -0.212494 5.87516e-21)
(-1.15317 0.736443 0)
(-0.868732 -0.00216891 -1.85642e-20)
(-0.271053 -0.269489 4.13433e-21)
(-0.675646 -0.347986 -1.16623e-20)
(-1.51253 0.526106 8.73584e-21)
(-0.185123 0.0390886 -2.7935e-20)
(-0.772419 -0.342936 0)
(-1.63125 0.68108 1.82279e-20)
(-0.0507891 -0.0860129 0)
(-0.141344 -0.0110536 -8.97721e-21)
(-1.53774 0.57763 -5.34976e-21)
(-0.7062 -0.330887 -7.61757e-21)
(-0.752658 -0.286402 -1.15562e-21)
(-0.00836547 -0.0903101 8.13002e-21)
(-1.11902 0.661307 0)
(-0.724797 0.335779 1.10026e-20)
(-0.73983 0.329432 0)
(-0.351745 -0.163701 0)
(-0.729366 0.0643025 3.89346e-20)
(-0.340997 -0.143497 0)
(-0.694885 0.0374702 -2.47447e-20)
(-1.05239 0.656069 0)
(-0.974358 0.597105 0)
(-0.321183 -0.264853 -1.19313e-23)
(-0.861206 0.0288406 1.16232e-20)
(-0.300689 -0.264416 3.01753e-20)
(-0.861123 0.0485531 -2.45613e-20)
(-0.666215 -0.364076 0)
(0.00713267 -0.0897958 1.72159e-20)
(-1.24566 0.571397 0)
(-0.780705 -0.345088 -1.22946e-20)
(-1.6376 0.690377 1.91574e-21)
(-0.0363159 -0.101115 8.03846e-21)
(-0.748856 0.444734 -2.06934e-20)
(-0.409775 -0.290486 -1.37075e-20)
(-0.952967 0.152699 3.26814e-20)
(-0.643816 -0.375146 2.52602e-20)
(-1.48787 0.466246 2.28118e-20)
(-0.261603 0.12257 0)
(-0.143913 -0.21483 3.19282e-20)
(-0.881427 -0.129514 -1.1527e-20)
(-1.43294 0.855946 1.1824e-20)
(-0.803879 -0.343152 0)
(-1.43034 0.703686 0)
(-0.00566484 -0.118982 0)
(-0.799325 -0.347806 0)
(-1.47345 0.697314 4.44622e-21)
(-0.00567507 -0.119049 2.90914e-21)
(-1.22962 0.724921 -1.09215e-20)
(-0.815215 -0.0616925 6.6597e-21)
(-0.218569 -0.221611 8.53657e-21)
(-0.541913 0.246261 -3.21528e-21)
(-0.44866 -0.222916 0)
(-0.90519 0.206386 -1.32353e-22)
(-1.56387 0.785432 8.80745e-21)
(-0.0554718 -0.143852 2.32272e-20)
(-0.84856 -0.265244 -5.618e-21)
(-0.684985 -0.300666 0)
(-1.44717 0.552468 0)
(-0.170723 0.00157798 2.99292e-20)
(-0.103544 -0.154387 7.50708e-21)
(-0.819159 -0.205272 1.74472e-20)
(-1.48542 0.772382 2.56436e-20)
(-0.929354 0.574887 0)
(-0.342834 -0.276556 -2.00737e-20)
(-0.883922 0.0716757 1.25436e-20)
(-1.15113 0.351646 1.68695e-22)
(-0.550912 -0.271105 1.15276e-20)
(-0.368795 0.148326 0)
(-0.660753 0.335625 2.17482e-22)
(-0.401383 -0.228292 -3.91701e-21)
(-0.86223 0.139476 -1.30542e-20)
(-0.0450618 -0.134416 1.75846e-23)
(-0.838004 -0.290176 1.32641e-20)
(-1.5769 0.765142 9.14807e-21)
(-1.40715 0.750106 -4.86724e-21)
(-0.806233 -0.162599 -5.17401e-21)
(-0.137356 -0.168288 0)
(-0.637691 0.280522 -1.19303e-20)
(-0.386266 -0.169119 2.47588e-20)
(-0.760295 0.105881 -2.10574e-20)
(-1.45542 0.903771 7.57974e-21)
(-0.108309 -0.20951 1.1926e-20)
(-0.936089 -0.154628 -8.07363e-21)
(-0.883669 0.439957 -6.89055e-21)
(-0.714982 -0.000400364 0)
(-0.296712 -0.168838 0)
(-0.9328 0.301985 -2.81516e-20)
(-0.528425 -0.16115 6.77945e-21)
(-0.34908 0.0598814 0)
(-0.651513 -0.315196 0)
(-1.40624 0.491411 1.87196e-20)
(-0.219349 0.0551832 0)
(-1.40098 0.831328 -3.60709e-21)
(-0.0467821 -0.157585 -3.70038e-21)
(-0.927046 -0.234656 9.09437e-21)
(-1.40417 0.851964 1.00902e-20)
(-0.0567579 -0.167149 0)
(-0.93858 -0.214122 -8.74541e-21)
(-0.107889 -0.167488 6.84426e-21)
(-0.834716 -0.19066 -1.03561e-20)
(-1.47939 0.790901 -2.36633e-20)
(-1.17944 0.341127 -8.8319e-21)
(-0.550252 -0.299493 -1.15539e-20)
(-0.400129 0.185279 0)
(-0.0386275 -0.145894 3.38826e-21)
(-0.920906 -0.243649 -8.50117e-21)
(-1.32805 0.804161 0)
(-0.0922265 -0.105093 0)
(-0.775192 -0.265205 -1.06086e-20)
(-1.53363 0.697461 -2.88926e-21)
(0.00448658 -0.0647315 1.37332e-20)
(-0.571519 -0.323437 8.40364e-21)
(-0.995169 0.472565 0)
(-0.908032 0.584314 -2.74043e-21)
(-0.65144 -0.245222 0)
(-0.00555009 -0.0656802 1.37339e-20)
(-0.118224 -0.205749 -6.01593e-24)
(-0.904534 -0.153653 0)
(-1.46348 0.881082 0)
(-0.0258696 -0.129795 0)
(-0.830263 -0.317216 0)
(-1.56938 0.750573 1.13089e-20)
(-1.52825 0.824399 -7.99449e-21)
(-1.52347 0.813419 6.467e-21)
(-0.0743329 -0.167461 -1.31067e-20)
(-0.875362 -0.220532 -2.28073e-21)
(-0.0814759 -0.165024 -2.12338e-20)
(-0.857907 -0.216841 4.12873e-21)
(-1.54237 0.674346 5.64804e-21)
(-0.761268 -0.282225 7.01043e-21)
(-0.0949132 -0.0887648 0)
(-0.318573 0.178605 0)
(-0.621315 -0.387069 0)
(-1.4568 0.430829 0)
(-0.724064 0.286677 0)
(-0.344055 -0.10371 -3.40728e-20)
(-0.640747 0.0136727 1.36264e-20)
(-1.52132 0.613472 1.6353e-20)
(-0.724872 -0.303897 2.59437e-21)
(-0.121072 -0.0453497 2.64284e-20)
(-0.140565 -0.0227732 1.72486e-20)
(-1.50905 0.590457 -2.2767e-20)
(-0.708555 -0.312133 -3.59918e-21)
(-1.43524 0.910072 9.1582e-21)
(-0.142298 -0.230913 1.28246e-20)
(-0.925646 -0.116961 1.78274e-20)
(-1.07484 0.68342 0)
(-0.877749 0.0293328 5.52121e-21)
(-0.298975 -0.275967 -2.95794e-20)
(-0.979239 0.571032 0)
(-0.826429 0.0341339 2.53274e-20)
(-0.306938 -0.244994 -3.90497e-24)
(-1.39543 0.583433 -2.22418e-20)
(-0.702159 -0.252423 3.14958e-21)
(-0.153746 -0.0542589 -1.499e-20)
(-1.42645 0.582461 0)
(-0.701133 -0.270195 2.95778e-21)
(-0.152683 -0.0420324 1.38174e-20)
(-0.599049 0.240434 0)
(-0.398067 -0.149112 -3.91016e-20)
(-0.73989 0.110176 1.18506e-20)
(-1.0688 0.608059 0)
(-0.787626 -0.019085 0)
(-0.261812 -0.21905 4.4434e-21)
(-0.0602111 -0.0499573 -2.77469e-20)
(-0.732035 -0.388297 -2.77858e-20)
(-1.67422 0.615053 0)
(-1.49846 0.673581 5.20297e-21)
(-0.00139642 -0.113908 0)
(-0.766897 -0.364965 5.8955e-21)
(-1.47166 0.632398 -4.41016e-22)
(0.00317002 -0.108513 0)
(-0.741567 -0.371695 -1.69264e-20)
(-0.796235 0.425239 8.26223e-21)
(-0.348807 -0.214605 -4.27825e-21)
(-0.799011 0.072884 -2.09305e-22)
(-0.772633 -0.349365 2.4918e-22)
(-0.00104399 -0.109976 2.33024e-20)
(-1.3753 0.669659 0)
(-1.44511 0.787497 2.07244e-20)
(-0.125904 -0.175762 1.43755e-20)
(-0.830159 -0.167964 0)
(0.00483606 -0.102677 -3.46577e-21)
(-0.728307 -0.368022 -9.1278e-21)
(-1.35518 0.62045 0)
(-0.747372 0.225305 1.94587e-20)
(-0.38341 0.0172656 2.06931e-20)
(-0.520517 -0.0669955 5.84436e-23)
(-1.16175 0.53838 -3.41992e-21)
(-0.682386 -0.135522 -3.26797e-21)
(-0.206149 -0.108309 -1.54078e-20)
(-0.524069 -0.297991 2.6316e-20)
(-1.13157 0.308495 2.11288e-20)
(-0.453976 0.22768 0)
(-0.0169813 -0.0988467 0)
(-0.756911 -0.373139 -5.55438e-21)
(-1.62869 0.65433 0)
(-0.672714 -0.315037 0)
(-1.44942 0.533893 0)
(-0.18599 0.0227908 0)
(-0.0912179 -0.194696 0)
(-1.47048 0.885936 -6.65586e-21)
(-0.930613 -0.176429 7.91678e-21)
(-1.22981 0.576656 0)
(-0.696756 -0.157171 1.62582e-21)
(-0.187467 -0.108206 1.50607e-20)
(-0.695423 0.259156 0)
(-0.357618 -0.0859867 2.92425e-20)
(-0.622894 0.0132858 0)
(-0.781233 -0.357062 -1.96297e-20)
(-1.61307 0.688426 5.56044e-21)
(-0.0202091 -0.107067 0)
(-0.0877523 -0.131514 -1.57533e-20)
(-0.801504 -0.244436 6.76033e-22)
(-1.52288 0.742364 4.93742e-22)
(-1.44865 0.805749 0)
(-1.41888 0.794353 6.01919e-21)
(-0.0375388 -0.149006 -8.53124e-21)
(-0.0308839 -0.1423 -1.04917e-20)
(-0.896384 -0.263101 -5.58828e-21)
(-0.889092 -0.274658 4.59519e-21)
(-1.15735 0.433929 0)
(-0.600783 -0.218358 4.42258e-20)
(-0.258704 0.019299 1.64849e-20)
(-0.657368 -0.26741 3.1588e-20)
(-1.35449 0.511289 0)
(-0.198709 0.00503511 -1.82401e-20)
(-0.882743 0.301297 -1.59549e-20)
(-0.545216 -0.120639 1.15635e-20)
(-0.322167 0.00968889 2.53784e-20)
(-0.771585 -0.366981 1.29336e-20)
(-1.558 0.674522 5.98172e-21)
(-0.753956 -0.376355 -6.17866e-21)
(-0.00499488 -0.113438 0)
(-1.56781 0.650324 -5.76345e-21)
(-0.00364177 -0.108332 0)
(-1.36222 0.65058 0)
(-0.737964 -0.194596 0)
(-0.146735 -0.115019 1.6869e-20)
(-1.59769 0.701682 9.15218e-21)
(-1.5708 0.693894 -1.68737e-20)
(-0.795997 -0.347765 8.48065e-21)
(-0.792729 -0.352943 -2.13554e-20)
(-0.0165904 -0.116137 2.35834e-20)
(-0.0104569 -0.117984 -1.89694e-23)
(-1.31314 0.488307 0)
(-0.636755 -0.276402 -2.9323e-20)
(-0.231055 0.0395103 2.36305e-20)
(-1.08848 0.444552 1.48559e-20)
(-0.637191 -0.161579 -1.97188e-20)
(-0.222812 -0.0584786 0)
(-1.45408 0.866861 0)
(-0.0667042 -0.175993 0)
(-0.93254 -0.208163 8.40301e-21)
(-1.16889 0.459691 1.09164e-20)
(-0.618099 -0.202278 -1.2302e-20)
(-0.237798 -0.00929155 -2.73051e-20)
(-0.956267 0.350283 6.43256e-21)
(-0.569468 -0.138684 -1.35661e-20)
(-0.293129 -0.00864714 1.48763e-20)
(-1.43063 0.824192 0)
(-0.0456374 -0.156625 0)
(-0.91555 -0.246056 -1.15646e-20)
(-1.24487 0.606126 0)
(-0.722675 -0.141523 3.46939e-21)
(-0.178701 -0.132338 -1.67475e-20)
(-0.576786 -0.379803 0)
(-1.34296 0.367584 0)
(-0.428943 0.265462 -9.20325e-22)
(-0.927104 0.591659 -9.29924e-22)
(-0.916356 0.0890211 0)
(-0.354911 -0.294984 3.11735e-20)
(-0.689205 -0.389824 1.35715e-20)
(-0.160941 0.043382 0)
(-1.6127 0.541631 0)
(-0.000329849 -0.0540909 -3.30187e-20)
(-0.553017 -0.254491 8.69637e-21)
(-0.85467 0.46407 -8.31302e-22)
(-1.20209 0.510479 0)
(-0.653528 -0.177482 1.20993e-20)
(-0.204851 -0.0621339 -1.39001e-20)
(-1.50047 0.852437 1.24886e-20)
(-0.0668552 -0.171503 4.42828e-20)
(-0.90568 -0.216824 0)
(-0.425181 -0.347824 -8.2865e-21)
(-1.04981 0.170867 -1.23061e-20)
(-0.811886 0.550409 -8.33602e-21)
(-1.08416 0.682915 0)
(-0.0132268 -0.0948518 -1.23111e-20)
(-0.797477 -0.268374 0)
(-0.453524 0.165088 1.59356e-20)
(-0.471994 0.193437 -1.63157e-20)
(-0.473322 -0.196152 0)
(-0.90643 0.234043 1.35052e-20)
(-0.477029 -0.221911 -2.49348e-20)
(-0.947283 0.23716 -1.08338e-20)
(-0.86681 0.275929 1.49943e-20)
(-0.521056 -0.129418 1.53593e-20)
(-0.356229 0.0463154 0)
(-0.56256 0.244347 1.40211e-20)
(-0.506605 0.201507 0)
(-0.425991 -0.195242 -1.39203e-20)
(-0.837368 0.165511 1.20913e-20)
(-0.442848 -0.18208 1.40269e-20)
(-0.843003 0.18551 6.31585e-23)
(-1.14918 0.484313 9.42625e-22)
(-0.61134 -0.164238 -8.59586e-21)
(-0.247585 -0.031407 -1.83441e-20)
(-1.09462 0.431014 -2.54968e-20)
(-0.604453 -0.179135 2.27932e-22)
(-0.256172 -0.0119976 0)
(0.00273132 -0.106423 0)
(-0.729654 -0.382867 0)
(-1.52329 0.62491 5.31997e-21)
(-0.859834 0.456272 -7.6129e-21)
(-0.771767 0.0434169 0)
(-0.322991 -0.203628 7.94901e-21)
(-1.59331 0.728412 -1.82129e-20)
(-0.812593 -0.330507 9.85733e-21)
(-0.0244691 -0.121688 -1.34511e-20)
(-1.42152 0.62396 0)
(-1.46779 0.648861 1.19251e-20)
(-0.725577 -0.241607 -3.92522e-21)
(-0.742788 -0.252288 1.24936e-20)
(-0.134877 -0.0784842 -1.86534e-20)
(-0.119698 -0.0856211 -1.73634e-20)
(-0.840714 0.422483 0)
(-0.737378 0.0268783 0)
(-0.317955 -0.181002 3.74258e-21)
(-1.13537 0.680247 8.90194e-21)
(-0.825168 -0.0171657 0)
(-0.259851 -0.240397 9.88056e-21)
(-1.32398 0.588083 -6.36107e-21)
(-0.700015 -0.211934 0)
(-0.160814 -0.0765651 0)
(-0.594672 0.171976 1.53707e-20)
(-0.609145 0.0477982 -7.33828e-21)
(-0.400948 -0.0616799 7.82943e-21)
(-1.48637 0.619604 0)
(-0.724751 -0.282299 0)
(-0.126994 -0.0558441 -2.80836e-20)
(-0.686605 0.277951 0)
(-0.357991 -0.124726 4.31415e-21)
(-0.67591 0.0484917 0)
(-1.30733 0.507374 -1.44088e-20)
(-0.650094 -0.25243 -1.63216e-20)
(-0.206838 -0.00433074 -2.35751e-21)
(-1.13295 0.652985 8.95244e-21)
(-0.798576 -0.0355487 0)
(-0.24641 -0.221885 2.03356e-20)
(-0.618383 0.205659 -1.52399e-20)
(-0.592674 0.198728 -6.84658e-21)
(-0.633954 0.0469534 7.22754e-21)
(-0.38507 -0.084739 -1.5519e-20)
(-0.670512 0.0740469 0)
(-0.393894 -0.103522 -2.75911e-20)
(-0.545317 0.200532 -6.95345e-21)
(-0.418064 -0.150126 1.82605e-20)
(-0.510821 0.187266 4.47996e-21)
(-0.759109 0.136909 -1.63728e-20)
(-0.442083 -0.167959 -8.73454e-21)
(-0.814826 0.175139 3.43843e-22)
(-0.963798 0.500579 8.17803e-21)
(-1.02961 0.527563 0)
(-0.728102 -0.0188114 1.48794e-20)
(-0.717595 -0.0466131 -1.16179e-20)
(-0.275585 -0.176461 -1.77935e-20)
(-0.253841 -0.164199 2.95994e-20)
(-0.122166 -0.192552 0)
(-0.864748 -0.158497 -6.36142e-21)
(-1.46163 0.832412 -1.20882e-20)
(-0.472024 0.291685 1.11456e-20)
(-1.27412 0.334673 1.37925e-20)
(-0.554356 -0.365927 -2.78446e-20)
(-0.105565 -0.185316 -1.49061e-20)
(-0.0972849 -0.174057 1.19451e-20)
(-0.871057 -0.179726 5.50051e-21)
(-0.855705 -0.19644 9.46435e-21)
(-1.48537 0.840009 3.05541e-20)
(-1.50057 0.820032 -1.58349e-20)
(-0.652046 0.405275 1.52675e-20)
(-0.461774 -0.319635 -1.30959e-20)
(-1.05646 0.216064 3.1812e-21)
(-0.571174 0.12242 2.57188e-20)
(-0.440136 -0.0061934 0)
(-0.550079 0.0313262 -2.53726e-20)
(-1.50201 0.647712 -5.61004e-21)
(-0.743043 -0.27428 -1.41081e-20)
(-0.113209 -0.0755497 0)
(-0.768124 0.371749 0)
(-0.339942 -0.182076 -3.56584e-21)
(-0.745838 0.056502 -1.26519e-20)
(-1.17377 0.671936 0)
(-0.795204 -0.0518421 0)
(-0.23048 -0.213836 -1.89519e-20)
(-1.40522 0.827459 -1.34748e-20)
(-1.40463 0.802963 0)
(-0.860179 -0.122634 3.37709e-21)
(-0.155245 -0.211125 -1.81798e-20)
(-0.84267 -0.131861 -9.21067e-21)
(-0.150311 -0.198616 2.4585e-20)
(-1.40824 0.656643 1.19869e-20)