/*--------------------------------*- C++ -*----------------------------------*\
  =========                 |
  \\      /  F ield         | OpenFOAM: The Open Source CFD Toolbox
   \\    /   O peration     | Website:  https://openfoam.org
    \\  /    A nd           | Version:  6
     \\/     M anipulation  |
\*---------------------------------------------------------------------------*/
FoamFile
{
    version     2.0;
    format      ascii;
    class       volVectorField;
    location    "0";
    object      U;
}
// * * * * * * * * * * * * * * * * * * * * * * * * * * * * * * * * * * * * * //

dimensions      [0 1 -1 0 0 0 0];

internalField   nonuniform List<vector> 
40000
(
(-3.25601e-07 3.25474e-07 0)
(7.11493e-07 -4.29224e-07 0)
(4.61197e-06 -1.35277e-06 0)
(1.13473e-05 -2.06083e-06 0)
(2.02333e-05 -2.54857e-06 0)
(3.05745e-05 -2.84877e-06 0)
(4.17666e-05 -2.99764e-06 0)
(5.33098e-05 -3.0285e-06 0)
(6.48044e-05 -2.96878e-06 0)
(7.59369e-05 -2.84025e-06 0)
(8.64648e-05 -2.66005e-06 0)
(9.62031e-05 -2.44168e-06 0)
(0.000105014 -2.19575e-06 0)
(0.000112795 -1.93057e-06 0)
(0.000119477 -1.65266e-06 0)
(0.000125009 -1.36705e-06 0)
(0.000129364 -1.0776e-06 0)
(0.000132526 -7.87166e-07 0)
(0.000134488 -4.97838e-07 0)
(0.000135255 -2.11034e-07 0)
(0.000134833 7.23556e-08 0)
(0.000133233 3.51872e-07 0)
(0.000130468 6.27401e-07 0)
(0.00012655 8.99098e-07 0)
(0.000121492 1.16733e-06 0)
(0.000115305 1.43262e-06 0)
(0.000107996 1.6956e-06 0)
(9.95728e-05 1.95697e-06 0)
(9.00383e-05 2.21748e-06 0)
(7.93932e-05 2.47787e-06 0)
(6.76355e-05 2.7389e-06 0)
(5.47602e-05 3.00127e-06 0)
(4.07598e-05 3.26567e-06 0)
(2.56242e-05 3.53271e-06 0)
(9.34109e-06 3.80295e-06 0)
(-8.1038e-06 4.07688e-06 0)
(-2.67265e-05 4.35491e-06 0)
(-4.65443e-05 4.63738e-06 0)
(-6.75758e-05 4.92457e-06 0)
(-8.98403e-05 5.21664e-06 0)
(-0.000113357 5.51372e-06 0)
(-0.000138147 5.81584e-06 0)
(-0.000164229 6.12296e-06 0)
(-0.000191623 6.43495e-06 0)
(-0.000220347 6.75164e-06 0)
(-0.000250419 7.07276e-06 0)
(-0.000281854 7.39797e-06 0)
(-0.000314667 7.72689e-06 0)
(-0.00034887 8.05902e-06 0)
(-0.000384474 8.39384e-06 0)
(-0.000421485 8.73071e-06 0)
(-0.000459909 9.06897e-06 0)
(-0.000499746 9.40786e-06 0)
(-0.000540996 9.74654e-06 0)
(-0.000583651 1.00841e-05 0)
(-0.000627703 1.04196e-05 0)
(-0.000673138 1.0752e-05 0)
(-0.000719936 1.10801e-05 0)
(-0.000768073 1.14028e-05 0)
(-0.000817521 1.17189e-05 0)
(-0.000868246 1.20269e-05 0)
(-0.000920208 1.23255e-05 0)
(-0.000973359 1.26132e-05 0)
(-0.00102765 1.28886e-05 0)
(-0.00108302 1.31499e-05 0)
(-0.0011394 1.33957e-05 0)
(-0.00119672 1.36241e-05 0)
(-0.0012549 1.38336e-05 0)
(-0.00131386 1.40222e-05 0)
(-0.00137349 1.41883e-05 0)
(-0.00143371 1.433e-05 0)
(-0.0014944 1.44455e-05 0)
(-0.00155544 1.4533e-05 0)
(-0.0016167 1.45906e-05 0)
(-0.00167807 1.46166e-05 0)
(-0.0017394 1.46091e-05 0)
(-0.00180055 1.45665e-05 0)
(-0.00186136 1.44871e-05 0)
(-0.00192168 1.43693e-05 0)
(-0.00198133 1.42115e-05 0)
(-0.00204016 1.40122e-05 0)
(-0.00209799 1.37703e-05 0)
(-0.00215463 1.34844e-05 0)
(-0.00220991 1.31534e-05 0)
(-0.00226362 1.27765e-05 0)
(-0.00231559 1.23529e-05 0)
(-0.00236561 1.18819e-05 0)
(-0.0024135 1.13631e-05 0)
(-0.00245906 1.07963e-05 0)
(-0.00250208 1.01816e-05 0)
(-0.00254238 9.51905e-06 0)
(-0.00257977 8.80919e-06 0)
(-0.00261404 8.05268e-06 0)
(-0.00264502 7.25046e-06 0)
(-0.00267252 6.40371e-06 0)
(-0.00269637 5.5139e-06 0)
(-0.0027164 4.58274e-06 0)
(-0.00273245 3.61222e-06 0)
(-0.00274436 2.6046e-06 0)
(-0.00275199 1.56241e-06 0)
(-0.00275522 4.88464e-07 0)
(-0.00275392 -6.14192e-07 0)
(-0.00274799 -1.74223e-06 0)
(-0.00273734 -2.89209e-06 0)
(-0.00272189 -4.05995e-06 0)
(-0.00270159 -5.24179e-06 0)
(-0.00267639 -6.43335e-06 0)
(-0.00264626 -7.63022e-06 0)
(-0.0026112 -8.82777e-06 0)
(-0.00257122 -1.00212e-05 0)
(-0.00252636 -1.12057e-05 0)
(-0.00247666 -1.23763e-05 0)
(-0.0024222 -1.35278e-05 0)
(-0.00236307 -1.46551e-05 0)
(-0.00229938 -1.57532e-05 0)
(-0.00223126 -1.68168e-05 0)
(-0.00215888 -1.78411e-05 0)
(-0.0020824 -1.88208e-05 0)
(-0.00200202 -1.97513e-05 0)
(-0.00191795 -2.06278e-05 0)
(-0.00183042 -2.14458e-05 0)
(-0.00173967 -2.2201e-05 0)
(-0.00164598 -2.28894e-05 0)
(-0.00154962 -2.35074e-05 0)
(-0.00145089 -2.40514e-05 0)
(-0.00135009 -2.45184e-05 0)
(-0.00124754 -2.4906e-05 0)
(-0.00114357 -2.52117e-05 0)
(-0.00103851 -2.54338e-05 0)
(-0.000932708 -2.55709e-05 0)
(-0.000826507 -2.56223e-05 0)
(-0.000720255 -2.55875e-05 0)
(-0.000614302 -2.54667e-05 0)
(-0.000508995 -2.52604e-05 0)
(-0.000404678 -2.49698e-05 0)
(-0.000301689 -2.45965e-05 0)
(-0.000200362 -2.41425e-05 0)
(-0.000101017 -2.36105e-05 0)
(-3.96651e-06 -2.30035e-05 0)
(9.04908e-05 -2.23248e-05 0)
(0.00018207 -2.15784e-05 0)
(0.000270504 -2.07684e-05 0)
(0.000355541 -1.98994e-05 0)
(0.000436947 -1.89762e-05 0)
(0.000514511 -1.8004e-05 0)
(0.00058804 -1.6988e-05 0)
(0.000657362 -1.59338e-05 0)
(0.000722331 -1.48469e-05 0)
(0.000782819 -1.37331e-05 0)
(0.000838723 -1.2598e-05 0)
(0.000889962 -1.14475e-05 0)
(0.00093648 -1.0287e-05 0)
(0.00097824 -9.12219e-06 0)
(0.00101523 -7.95844e-06 0)
(0.00104746 -6.80095e-06 0)
(0.00107495 -5.65469e-06 0)
(0.00109776 -4.52438e-06 0)
(0.00111596 -3.41446e-06 0)
(0.00112962 -2.32903e-06 0)
(0.00113885 -1.27189e-06 0)
(0.00114377 -2.46447e-07 0)
(0.0011445 7.44232e-07 0)
(0.00114119 1.69747e-06 0)
(0.00113399 2.61095e-06 0)
(0.00112306 3.48275e-06 0)
(0.00110858 4.3113e-06 0)
(0.00109071 5.09538e-06 0)
(0.00106964 5.83412e-06 0)
(0.00104555 6.52694e-06 0)
(0.00101864 7.17354e-06 0)
(0.000989085 7.77387e-06 0)
(0.000957079 8.32805e-06 0)
(0.000922812 8.83635e-06 0)
(0.000886473 9.29915e-06 0)
(0.000848251 9.7168e-06 0)
(0.000808334 1.00896e-05 0)
(0.00076691 1.04178e-05 0)
(0.000724168 1.07013e-05 0)
(0.000680298 1.09398e-05 0)
(0.000635494 1.11323e-05 0)
(0.000589954 1.12775e-05 0)
(0.000543885 1.13733e-05 0)
(0.000497504 1.14168e-05 0)
(0.000451042 1.14041e-05 0)
(0.000404748 1.133e-05 0)
(0.000358894 1.11881e-05 0)
(0.00031378 1.09705e-05 0)
(0.00026974 1.06675e-05 0)
(0.000227146 1.02674e-05 0)
(0.000186418 9.7566e-06 0)
(0.000148029 9.11935e-06 0)
(0.000112507 8.33794e-06 0)
(8.04405e-05 7.39338e-06 0)
(5.24738e-05 6.26706e-06 0)
(2.92872e-05 4.94489e-06 0)
(1.15538e-05 3.42728e-06 0)
(-1.52619e-07 1.74763e-06 0)
(-5.58398e-06 5.31439e-09 0)
(-5.45065e-06 -1.47286e-06 0)
(-1.77423e-06 -1.77401e-06 0)
(4.3046e-07 -7.13115e-07 0)
(6.04067e-06 -6.03191e-06 0)
(1.79441e-05 -1.20692e-05 0)
(3.59495e-05 -1.70895e-05 0)
(5.86459e-05 -2.07453e-05 0)
(8.46163e-05 -2.30945e-05 0)
(0.00011254 -2.43106e-05 0)
(0.000141258 -2.45897e-05 0)
(0.000169796 -2.41147e-05 0)
(0.000197358 -2.30434e-05 0)
(0.000223304 -2.15078e-05 0)
(0.000247131 -1.96166e-05 0)
(0.000268448 -1.74586e-05 0)
(0.00028696 -1.51054e-05 0)
(0.000302448 -1.26146e-05 0)
(0.000314757 -1.00318e-05 0)
(0.000323781 -7.39246e-06 0)
(0.000329454 -4.72398e-06 0)
(0.00033174 -2.04662e-06 0)
(0.000330625 6.25097e-07 0)
(0.000326112 3.28146e-06 0)
(0.000318213 5.91667e-06 0)
(0.000306947 8.52816e-06 0)
(0.000292336 1.11159e-05 0)
(0.000274401 1.36817e-05 0)
(0.00025316 1.62293e-05 0)
(0.000228629 1.8763e-05 0)
(0.000200816 2.12883e-05 0)
(0.000169723 2.38109e-05 0)
(0.000135347 2.63367e-05 0)
(9.76766e-05 2.88718e-05 0)
(5.66939e-05 3.14219e-05 0)
(1.23748e-05 3.39925e-05 0)
(-3.53112e-05 3.65886e-05 0)
(-8.63998e-05 3.92146e-05 0)
(-0.000140932 4.18744e-05 0)
(-0.000198952 4.45713e-05 0)
(-0.000260508 4.7308e-05 0)
(-0.000325651 5.00862e-05 0)
(-0.000394432 5.29072e-05 0)
(-0.000466905 5.57714e-05 0)
(-0.00054312 5.86787e-05 0)
(-0.000623131 6.16281e-05 0)
(-0.000706985 6.46179e-05 0)
(-0.000794729 6.7646e-05 0)
(-0.000886405 7.07092e-05 0)
(-0.000982052 7.3804e-05 0)
(-0.0010817 7.6926e-05 0)
(-0.00118538 8.00702e-05 0)
(-0.0012931 8.3231e-05 0)
(-0.00140488 8.6402e-05 0)
(-0.00152072 8.95763e-05 0)
(-0.00164061 9.27462e-05 0)
(-0.00176454 9.59035e-05 0)
(-0.00189246 9.90391e-05 0)
(-0.00202435 0.000102144 0)
(-0.00216014 0.000105207 0)
(-0.00229976 0.000108217 0)
(-0.00244314 0.000111164 0)
(-0.00259017 0.000114035 0)
(-0.00274074 0.000116816 0)
(-0.00289471 0.000119496 0)
(-0.00305193 0.00012206 0)
(-0.00321224 0.000124494 0)
(-0.00337546 0.000126783 0)
(-0.00354137 0.000128911 0)
(-0.00370975 0.000130864 0)
(-0.00388036 0.000132625 0)
(-0.00405293 0.000134178 0)
(-0.00422717 0.000135507 0)
(-0.00440279 0.000136596 0)
(-0.00457944 0.000137428 0)
(-0.0047568 0.000137987 0)
(-0.00493448 0.000138257 0)
(-0.00511212 0.000138221 0)
(-0.00528929 0.000137866 0)
(-0.00546558 0.000137175 0)
(-0.00564054 0.000136135 0)
(-0.00581372 0.000134731 0)
(-0.00598465 0.000132952 0)
(-0.00615283 0.000130785 0)
(-0.00631776 0.000128219 0)
(-0.00647894 0.000125245 0)
(-0.00663584 0.000121855 0)
(-0.00678793 0.000118042 0)
(-0.00693466 0.0001138 0)
(-0.00707551 0.000109125 0)
(-0.00720992 0.000104017 0)
(-0.00733736 9.84739e-05 0)
(-0.00745727 9.24984e-05 0)
(-0.00756913 8.6094e-05 0)
(-0.0076724 7.92666e-05 0)
(-0.00776656 7.20243e-05 0)
(-0.00785112 6.43773e-05 0)
(-0.00792557 5.63382e-05 0)
(-0.00798946 4.79217e-05 0)
(-0.00804231 3.9145e-05 0)
(-0.00808372 3.00274e-05 0)
(-0.00811327 2.05908e-05 0)
(-0.0081306 1.08593e-05 0)
(-0.00813538 8.59221e-07 0)
(-0.00812728 -9.38094e-06 0)
(-0.00810606 -1.98305e-05 0)
(-0.00807149 -3.04566e-05 0)
(-0.00802337 -4.12246e-05 0)
(-0.00796158 -5.20979e-05 0)
(-0.00788602 -6.30384e-05 0)
(-0.00779665 -7.40061e-05 0)
(-0.00769347 -8.49601e-05 0)
(-0.00757655 -9.58579e-05 0)
(-0.00744599 -0.000106656 0)
(-0.00730196 -0.000117311 0)
(-0.00714468 -0.000127778 0)
(-0.00697443 -0.000138012 0)
(-0.00679152 -0.000147969 0)
(-0.00659635 -0.000157604 0)
(-0.00638936 -0.000166872 0)
(-0.00617103 -0.000175732 0)
(-0.0059419 -0.00018414 0)
(-0.00570257 -0.000192057 0)
(-0.00545368 -0.000199444 0)
(-0.00519592 -0.000206263 0)
(-0.00493 -0.000212481 0)
(-0.00465671 -0.000218065 0)
(-0.00437685 -0.000222987 0)
(-0.00409125 -0.000227219 0)
(-0.00380079 -0.000230741 0)
(-0.00350636 -0.000233533 0)
(-0.00320888 -0.000235578 0)
(-0.00290927 -0.000236867 0)
(-0.00260848 -0.000237391 0)
(-0.00230746 -0.000237147 0)
(-0.00200716 -0.000236136 0)
(-0.00170853 -0.000234363 0)
(-0.0014125 -0.000231837 0)
(-0.00112 -0.000228572 0)
(-0.000831946 -0.000224586 0)
(-0.00054921 -0.0002199 0)
(-0.000272649 -0.00021454 0)
(-3.0874e-06 -0.000208535 0)
(0.000258691 -0.000201918 0)
(0.000511942 -0.000194724 0)
(0.000755968 -0.000186993 0)
(0.000990118 -0.000178766 0)
(0.00121379 -0.000170087 0)
(0.00142645 -0.000161002 0)
(0.00162761 -0.000151558 0)
(0.00181683 -0.000141804 0)
(0.00199374 -0.00013179 0)
(0.00215804 -0.000121564 0)
(0.00230949 -0.000111178 0)
(0.00244789 -0.00010068 0)
(0.00257311 -9.01206e-05 0)
(0.0026851 -7.95463e-05 0)
(0.00278384 -6.90038e-05 0)
(0.00286939 -5.85378e-05 0)
(0.00294184 -4.81909e-05 0)
(0.00300134 -3.80034e-05 0)
(0.00304812 -2.80129e-05 0)
(0.00308241 -1.82545e-05 0)
(0.0031045 -8.76015e-06 0)
(0.00311473 4.41124e-07 0)
(0.00311347 9.32343e-06 0)
(0.00310111 1.78641e-05 0)
(0.00307808 2.60434e-05 0)
(0.00304483 3.38451e-05 0)
(0.00300183 4.12555e-05 0)
(0.00294957 4.82641e-05 0)
(0.00288855 5.48627e-05 0)
(0.0028193 6.10458e-05 0)
(0.00274231 6.68095e-05 0)
(0.00265813 7.21519e-05 0)
(0.00256729 7.70723e-05 0)
(0.00247031 8.15704e-05 0)
(0.00236774 8.56464e-05 0)
(0.00226011 8.92999e-05 0)
(0.00214797 9.25291e-05 0)
(0.00203186 9.53305e-05 0)
(0.00191234 9.76977e-05 0)
(0.00178998 9.96207e-05 0)
(0.00166535 0.000101085 0)
(0.00153908 0.00010207 0)
(0.0014118 0.000102548 0)
(0.00128418 0.000102485 0)
(0.00115694 0.000101836 0)
(0.00103087 0.000100548 0)
(0.000906816 9.85545e-05 0)
(0.000785714 9.57802e-05 0)
(0.000668587 9.21357e-05 0)
(0.000556563 8.7521e-05 0)
(0.00045088 8.1827e-05 0)
(0.000352889 7.49409e-05 0)
(0.00026404 6.67565e-05 0)
(0.000185857 5.71956e-05 0)
(0.000119868 4.62479e-05 0)
(6.74841e-05 3.4051e-05 0)
(2.97657e-05 2.10408e-05 0)
(6.99187e-06 8.22977e-06 0)
(-2.17986e-06 -2.18932e-06 0)
(-1.47346e-06 -5.45011e-06 0)
(1.35983e-06 -4.62818e-06 0)
(1.21167e-05 -1.79504e-05 0)
(3.14964e-05 -3.14271e-05 0)
(5.88945e-05 -4.25929e-05 0)
(9.23003e-05 -5.08147e-05 0)
(0.000129896 -5.61454e-05 0)
(0.000169958 -5.88897e-05 0)
(0.000210917 -5.94309e-05 0)
(0.000251415 -5.8151e-05 0)
(0.000290309 -5.53966e-05 0)
(0.000326655 -5.14692e-05 0)
(0.000359694 -4.66249e-05 0)
(0.00038882 -4.10777e-05 0)
(0.000413565 -3.50038e-05 0)
(0.000433571 -2.85472e-05 0)
(0.000448576 -2.18235e-05 0)
(0.000458392 -1.49245e-05 0)
(0.000462891 -7.9214e-06 0)
(0.000461993 -8.68089e-07 0)
(0.000455653 6.1961e-06 0)
(0.000443854 1.3244e-05 0)
(0.000426595 2.02587e-05 0)
(0.000403887 2.72313e-05 0)
(0.000375746 3.41597e-05 0)
(0.00034219 4.10471e-05 0)
(0.000303234 4.79006e-05 0)
(0.000258888 5.47304e-05 0)
(0.000209156 6.15486e-05 0)
(0.000154031 6.83689e-05 0)
(9.3499e-05 7.52054e-05 0)
(2.75361e-05 8.20722e-05 0)
(-4.38915e-05 8.89831e-05 0)
(-0.000120827 9.59512e-05 0)
(-0.000203321 0.000102988 0)
(-0.000291433 0.000110106 0)
(-0.000385228 0.000117312 0)
(-0.000484777 0.000124614 0)
(-0.000590156 0.000132019 0)
(-0.000701442 0.000139531 0)
(-0.000818715 0.00014715 0)
(-0.000942054 0.000154879 0)
(-0.00107154 0.000162715 0)
(-0.00120724 0.000170655 0)
(-0.00134923 0.000178694 0)
(-0.00149758 0.000186824 0)
(-0.00165235 0.000195037 0)
(-0.00181358 0.000203322 0)
(-0.00198131 0.000211667 0)
(-0.00215558 0.000220058 0)
(-0.0023364 0.000228478 0)
(-0.00252377 0.00023691 0)
(-0.00271768 0.000245334 0)
(-0.0029181 0.00025373 0)
(-0.00312499 0.000262074 0)
(-0.00333827 0.000270342 0)
(-0.00355786 0.000278507 0)
(-0.00378365 0.000286541 0)
(-0.00401552 0.000294416 0)
(-0.00425329 0.000302099 0)
(-0.0044968 0.000309558 0)
(-0.00474583 0.000316759 0)
(-0.00500015 0.000323666 0)
(-0.0052595 0.000330242 0)
(-0.00552358 0.000336449 0)
(-0.00579207 0.000342248 0)
(-0.00606462 0.000347598 0)
(-0.00634084 0.00035246 0)
(-0.00662032 0.00035679 0)
(-0.00690262 0.000360548 0)
(-0.00718724 0.00036369 0)
(-0.00747368 0.000366175 0)
(-0.00776139 0.000367961 0)
(-0.00804981 0.000369005 0)
(-0.00833833 0.000369267 0)
(-0.00862631 0.000368707 0)
(-0.00891309 0.000367286 0)
(-0.00919798 0.000364966 0)
(-0.00948026 0.000361712 0)
(-0.00975919 0.000357491 0)
(-0.010034 0.000352271 0)
(-0.0103039 0.000346024 0)
(-0.0105681 0.000338724 0)
(-0.0108259 0.000330349 0)
(-0.0110762 0.00032088 0)
(-0.0113184 0.000310303 0)
(-0.0115515 0.000298605 0)
(-0.0117747 0.000285781 0)
(-0.0119872 0.000271829 0)
(-0.0121881 0.000256751 0)
(-0.0123765 0.000240555 0)
(-0.0125517 0.000223254 0)
(-0.0127128 0.000204867 0)
(-0.012859 0.000185418 0)
(-0.0129895 0.000164935 0)
(-0.0131036 0.000143456 0)
(-0.0132006 0.000121019 0)
(-0.0132798 9.76737e-05 0)
(-0.0133406 7.34716e-05 0)
(-0.0133823 4.84715e-05 0)
(-0.0134044 2.27377e-05 0)
(-0.0134064 -3.65987e-06 0)
(-0.0133879 -3.06458e-05 0)
(-0.0133484 -5.81397e-05 0)
(-0.0132878 -8.60559e-05 0)
(-0.0132056 -0.000114304 0)
(-0.0131018 -0.00014279 0)
(-0.0129762 -0.000171414 0)
(-0.0128288 -0.000200074 0)
(-0.0126597 -0.000228665 0)
(-0.0124689 -0.000257079 0)
(-0.0122566 -0.000285205 0)
(-0.0120232 -0.000312931 0)
(-0.011769 -0.000340144 0)
(-0.0114945 -0.000366731 0)
(-0.0112002 -0.000392579 0)
(-0.0108867 -0.000417574 0)
(-0.0105548 -0.000441607 0)
(-0.0102051 -0.000464569 0)
(-0.00983852 -0.000486355 0)
(-0.00945605 -0.000506862 0)
(-0.00905865 -0.000525995 0)
(-0.00864739 -0.00054366 0)
(-0.00822341 -0.000559771 0)
(-0.0077879 -0.000574249 0)
(-0.00734211 -0.000587021 0)
(-0.00688733 -0.000598022 0)
(-0.00642491 -0.000607195 0)
(-0.00595622 -0.000614493 0)
(-0.00548268 -0.000619877 0)
(-0.00500572 -0.000623318 0)
(-0.0045268 -0.000624798 0)
(-0.00404736 -0.000624307 0)
(-0.00356889 -0.000621848 0)
(-0.00309284 -0.000617432 0)
(-0.00262066 -0.000611083 0)
(-0.00215378 -0.000602834 0)
(-0.0016936 -0.000592729 0)
(-0.00124149 -0.00058082 0)
(-0.000798774 -0.000567171 0)
(-0.000366732 -0.000551856 0)
(5.34144e-05 -0.000534954 0)
(0.000460501 -0.000516556 0)
(0.000853434 -0.000496758 0)
(0.00123119 -0.000475664 0)
(0.00159282 -0.000453385 0)
(0.00193745 -0.000430034 0)
(0.00226432 -0.000405731 0)
(0.00257271 -0.000380597 0)
(0.00286204 -0.000354759 0)
(0.00313178 -0.000328342 0)
(0.00338152 -0.000301473 0)
(0.00361092 -0.000274277 0)
(0.00381976 -0.00024688 0)
(0.00400789 -0.000219404 0)
(0.00417525 -0.000191968 0)
(0.00432189 -0.000164686 0)
(0.0044479 -0.000137669 0)
(0.00455351 -0.000111023 0)
(0.00463897 -8.48441e-05 0)
(0.00470465 -5.9226e-05 0)
(0.00475095 -3.42532e-05 0)
(0.00477835 -1.0003e-05 0)
(0.0047874 1.34548e-05 0)
(0.00477869 3.60579e-05 0)
(0.00475284 5.77524e-05 0)
(0.00471054 7.84914e-05 0)
(0.00465251 9.82358e-05 0)
(0.00457949 0.000116954 0)
(0.00449224 0.000134619 0)
(0.00439157 0.000151212 0)
(0.00427828 0.000166719 0)
(0.0041532 0.000181128 0)
(0.00401716 0.000194433 0)
(0.00387101 0.000206628 0)
(0.0037156 0.000217708 0)
(0.00355179 0.000227666 0)
(0.00338047 0.000236493 0)
(0.0032025 0.000244175 0)
(0.00301881 0.000250693 0)
(0.0028303 0.000256016 0)
(0.00263793 0.000260103 0)
(0.00244269 0.000262901 0)
(0.00224562 0.00026434 0)
(0.00204782 0.000264331 0)
(0.00185044 0.000262764 0)
(0.00165473 0.00025951 0)
(0.00146204 0.000254413 0)
(0.00127382 0.000247293 0)
(0.00109165 0.000237948 0)
(0.000917243 0.000226157 0)
(0.000752438 0.00021169 0)
(0.000599199 0.000194322 0)
(0.000459589 0.000173865 0)
(0.000335705 0.000150223 0)
(0.000229585 0.000123481 0)
(0.00014303 9.40731e-05 0)
(7.73166e-05 6.3068e-05 0)
(3.27779e-05 3.26425e-05 0)
(8.31201e-06 7.01063e-06 0)
(1.28775e-08 -5.56453e-06 0)
(2.07927e-06 -1.14066e-05 0)
(1.72055e-05 -3.60223e-05 0)
(4.27964e-05 -5.88569e-05 0)
(7.76827e-05 -7.74443e-05 0)
(0.000119203 -9.10832e-05 0)
(0.000165206 -9.98736e-05 0)
(0.000213694 -0.000104266 0)
(0.000262836 -0.000104847 0)
(0.000311022 -0.00010222 0)
(0.000356872 -9.69514e-05 0)
(0.000399225 -8.95484e-05 0)
(0.000437128 -8.04509e-05 0)
(0.000469807 -7.00333e-05 0)
(0.000496651 -5.86091e-05 0)
(0.000517182 -4.64378e-05 0)
(0.000531039 -3.37301e-05 0)
(0.000537955 -2.06553e-05 0)
(0.00053774 -7.34622e-06 0)
(0.000530263 6.09553e-06 0)
(0.000515442 1.95946e-05 0)
(0.000493228 3.30981e-05 0)
(0.000463598 4.65715e-05 0)
(0.000426543 5.99958e-05 0)
(0.000382066 7.33644e-05 0)
(0.000330169 8.66806e-05 0)
(0.000270856 9.99552e-05 0)
(0.000204123 0.000113205 0)
(0.000129962 0.00012645 0)
(4.83508e-05 0.000139714 0)
(-4.07396e-05 0.000153022 0)
(-0.000137351 0.000166397 0)
(-0.000241537 0.000179865 0)
(-0.000353359 0.000193447 0)
(-0.000472892 0.000207165 0)
(-0.000600217 0.000221037 0)
(-0.000735423 0.000235079 0)
(-0.000878606 0.000249302 0)
(-0.00102986 0.000263718 0)
(-0.0011893 0.00027833 0)
(-0.00135702 0.000293143 0)
(-0.00153311 0.000308155 0)
(-0.00171769 0.000323362 0)
(-0.00191084 0.000338755 0)
(-0.00211265 0.000354323 0)
(-0.00232319 0.00037005 0)
(-0.00254254 0.000385919 0)
(-0.00277074 0.000401907 0)
(-0.00300784 0.000417989 0)
(-0.00325385 0.000434136 0)
(-0.00350878 0.000450315 0)
(-0.00377262 0.000466492 0)
(-0.00404533 0.000482628 0)
(-0.00432684 0.00049868 0)
(-0.00461708 0.000514603 0)
(-0.00491591 0.000530349 0)
(-0.00522321 0.000545865 0)
(-0.0055388 0.000561097 0)
(-0.00586247 0.000575988 0)
(-0.00619398 0.000590476 0)
(-0.00653306 0.000604497 0)
(-0.0068794 0.000617987 0)
(-0.00723265 0.000630875 0)
(-0.00759243 0.000643091 0)
(-0.0079583 0.000654562 0)
(-0.0083298 0.000665212 0)
(-0.00870643 0.000674966 0)
(-0.00908763 0.000683746 0)
(-0.00947281 0.000691472 0)
(-0.00986134 0.000698066 0)
(-0.0102525 0.000703449 0)
(-0.0106457 0.00070754 0)
(-0.01104 0.000710262 0)
(-0.0114348 0.000711538 0)
(-0.0118291 0.000711292 0)
(-0.0122221 0.000709449 0)
(-0.0126128 0.00070594 0)
(-0.0130004 0.000700696 0)
(-0.0133838 0.000693654 0)
(-0.0137621 0.000684754 0)
(-0.0141341 0.000673939 0)
(-0.0144989 0.000661162 0)
(-0.0148554 0.000646376 0)
(-0.0152024 0.000629546 0)
(-0.0155388 0.00061064 0)
(-0.0158636 0.000589635 0)
(-0.0161756 0.000566515 0)
(-0.0164736 0.000541273 0)
(-0.0167566 0.00051391 0)
(-0.0170234 0.000484437 0)
(-0.0172729 0.000452874 0)
(-0.0175041 0.00041925 0)
(-0.0177159 0.000383605 0)
(-0.0179071 0.00034599 0)
(-0.018077 0.000306464 0)
(-0.0182244 0.000265099 0)
(-0.0183485 0.000221977 0)
(-0.0184485 0.000177189 0)
(-0.0185234 0.00013084 0)
(-0.0185726 8.30408e-05 0)
(-0.0185953 3.39167e-05 0)
(-0.018591 -1.63991e-05 0)
(-0.0185591 -6.77633e-05 0)
(-0.0184992 -0.000120023 0)
(-0.0184109 -0.000173018 0)
(-0.0182939 -0.000226576 0)
(-0.018148 -0.000280523 0)
(-0.0179731 -0.000334672 0)
(-0.0177692 -0.000388833 0)
(-0.0175364 -0.000442811 0)
(-0.017275 -0.000496405 0)
(-0.0169851 -0.000549411 0)
(-0.0166673 -0.000601622 0)
(-0.016322 -0.00065283 0)
(-0.0159499 -0.000702827 0)
(-0.0155516 -0.000751405 0)
(-0.0151281 -0.000798359 0)
(-0.0146802 -0.000843486 0)
(-0.014209 -0.000886587 0)
(-0.0137156 -0.000927472 0)
(-0.0132013 -0.000965954 0)
(-0.0126673 -0.00100186 0)
(-0.012115 -0.00103501 0)
(-0.011546 -0.00106526 0)
(-0.0109618 -0.00109246 0)
(-0.010364 -0.00111648 0)
(-0.00975431 -0.0011372 0)
(-0.00913446 -0.00115452 0)
(-0.00850626 -0.00116835 0)
(-0.00787152 -0.00117862 0)
(-0.00723212 -0.00118527 0)
(-0.00658994 -0.00118828 0)
(-0.00594687 -0.00118762 0)
(-0.00530482 -0.00118331 0)
(-0.00466568 -0.00117535 0)
(-0.00403134 -0.00116379 0)
(-0.00340365 -0.00114869 0)
(-0.00278445 -0.00113012 0)
(-0.00217551 -0.00110819 0)
(-0.00157857 -0.00108301 0)
(-0.000995313 -0.00105471 0)
(-0.000427335 -0.00102342 0)
(0.000123829 -0.00098933 0)
(0.000656729 -0.000952597 0)
(0.00117001 -0.000913414 0)
(0.0016624 -0.000871979 0)
(0.00213274 -0.000828503 0)
(0.00257998 -0.000783203 0)
(0.00300318 -0.000736301 0)
(0.00340149 -0.000688027 0)
(0.0037742 -0.000638611 0)
(0.00412072 -0.000588288 0)
(0.00444057 -0.000537289 0)
(0.00473339 -0.000485846 0)
(0.00499893 -0.000434184 0)
(0.00523706 -0.000382526 0)
(0.00544778 -0.000331086 0)
(0.00563118 -0.00028007 0)
(0.00578747 -0.000229677 0)
(0.00591695 -0.000180091 0)
(0.00602003 -0.000131489 0)
(0.00609719 -8.40321e-05 0)
(0.00614903 -3.78694e-05 0)
(0.0061762 6.86358e-06 0)
(0.00617944 5.00452e-05 0)
(0.00615953 9.15678e-05 0)
(0.00611735 0.000131338 0)
(0.00605379 0.000169274 0)
(0.00596982 0.00020531 0)
(0.00586643 0.000239389 0)
(0.00574465 0.000271467 0)
(0.00560554 0.000301508 0)
(0.00545018 0.000329483 0)
(0.00527968 0.00035537 0)
(0.00509516 0.000379151 0)
(0.00489777 0.000400808 0)
(0.00468866 0.000420321 0)
(0.00446901 0.000437665 0)
(0.00424002 0.000452808 0)
(0.00400292 0.000465705 0)
(0.00375896 0.000476297 0)
(0.00350943 0.000484504 0)
(0.0032557 0.000490223 0)
(0.00299916 0.000493326 0)
(0.00274128 0.000493651 0)
(0.00248364 0.000491003 0)
(0.0022279 0.000485153 0)
(0.00197584 0.00047583 0)
(0.00172935 0.000462731 0)
(0.00149048 0.000445517 0)
(0.0012614 0.000423832 0)
(0.00104442 0.000397315 0)
(0.000841961 0.000365635 0)
(0.000656518 0.000328548 0)
(0.000490587 0.000285988 0)
(0.000346547 0.000238213 0)
(0.000226489 0.000186052 0)
(0.000131942 0.000131293 0)
(6.35814e-05 7.72761e-05 0)
(2.12941e-05 2.99413e-05 0)
(1.77824e-06 -5.53839e-08 0)
(2.58192e-06 -2.03772e-05 0)
(2.09434e-05 -5.88557e-05 0)
(5.11659e-05 -9.23639e-05 0)
(9.15208e-05 -0.000118994 0)
(0.000138716 -0.000138266 0)
(0.000190272 -0.000150455 0)
(0.00024397 -0.000156206 0)
(0.00029779 -0.000156326 0)
(0.000349951 -0.000151652 0)
(0.000398912 -0.000142983 0)
(0.000443366 -0.000131045 0)
(0.000482218 -0.00011648 0)
(0.000514571 -9.98409e-05 0)
(0.000539702 -8.15985e-05 0)
(0.000557036 -6.21447e-05 0)
(0.000566129 -4.18024e-05 0)
(0.000566642 -2.08328e-05 0)
(0.000558327 5.57134e-07 0)
(0.000541002 2.22073e-05 0)
(0.000514543 4.39979e-05 0)
(0.000478867 6.58433e-05 0)
(0.000433921 8.76865e-05 0)
(0.00037967 0.000109494 0)
(0.000316094 0.000131254 0)
(0.000243175 0.000152966 0)
(0.000160895 0.000174645 0)
(6.92342e-05 0.000196314 0)
(-3.18388e-05 0.000218003 0)
(-0.000142363 0.000239746 0)
(-0.00026239 0.000261577 0)
(-0.000391981 0.000283534 0)
(-0.000531211 0.000305652 0)
(-0.000680167 0.000327964 0)
(-0.000838943 0.000350501 0)
(-0.00100765 0.000373289 0)
(-0.00118639 0.000396351 0)
(-0.00137528 0.000419704 0)
(-0.00157445 0.00044336 0)
(-0.00178403 0.000467327 0)
(-0.00200412 0.000491605 0)
(-0.00223485 0.000516192 0)
(-0.00247634 0.000541075 0)
(-0.00272868 0.000566241 0)
(-0.00299198 0.000591668 0)
(-0.00326631 0.000617329 0)
(-0.00355174 0.000643191 0)
(-0.00384832 0.000669216 0)
(-0.00415607 0.000695361 0)
(-0.00447502 0.000721577 0)
(-0.00480513 0.000747808 0)
(-0.00514636 0.000773996 0)
(-0.00549865 0.000800074 0)
(-0.00586188 0.000825973 0)
(-0.00623592 0.000851617 0)
(-0.0066206 0.000876925 0)
(-0.00701571 0.000901812 0)
(-0.007421 0.000926186 0)
(-0.00783618 0.000949953 0)
(-0.00826091 0.000973014 0)
(-0.00869482 0.000995263 0)
(-0.00913749 0.00101659 0)
(-0.00958845 0.00103689 0)
(-0.0100472 0.00105605 0)
(-0.0105131 0.00107393 0)
(-0.0109856 0.00109044 0)
(-0.011464 0.00110543 0)
(-0.0119476 0.0011188 0)
(-0.0124356 0.0011304 0)
(-0.0129273 0.00114012 0)
(-0.0134216 0.00114783 0)
(-0.0139177 0.00115341 0)
(-0.0144147 0.00115673 0)
(-0.0149115 0.00115767 0)
(-0.015407 0.00115611 0)
(-0.0159001 0.00115195 0)
(-0.0163898 0.00114506 0)
(-0.0168747 0.00113535 0)
(-0.0173536 0.00112272 0)
(-0.0178254 0.00110708 0)
(-0.0182886 0.00108835 0)
(-0.0187421 0.00106645 0)
(-0.0191844 0.00104133 0)
(-0.0196142 0.00101292 0)
(-0.0200302 0.000981187 0)
(-0.0204309 0.000946103 0)
(-0.020815 0.000907648 0)
(-0.0211811 0.00086582 0)
(-0.0215279 0.000820629 0)
(-0.0218539 0.000772099 0)
(-0.022158 0.00072027 0)
(-0.0224388 0.000665197 0)
(-0.0226949 0.000606952 0)
(-0.0229253 0.000545621 0)
(-0.0231287 0.000481307 0)
(-0.023304 0.000414131 0)
(-0.0234501 0.000344229 0)
(-0.023566 0.000271751 0)
(-0.0236508 0.000196869 0)
(-0.0237037 0.000119765 0)
(-0.0237237 4.064e-05 0)
(-0.0237104 -4.02908e-05 0)
(-0.023663 -0.000122798 0)
(-0.023581 -0.000206637 0)
(-0.0234642 -0.000291552 0)
(-0.0233121 -0.000377274 0)
(-0.0231245 -0.000463522 0)
(-0.0229015 -0.000550007 0)
(-0.0226431 -0.000636428 0)
(-0.0223494 -0.000722478 0)
(-0.0220207 -0.000807845 0)
(-0.0216575 -0.000892209 0)
(-0.0212602 -0.000975249 0)
(-0.0208295 -0.00105664 0)
(-0.0203663 -0.00113606 0)
(-0.0198713 -0.00121319 0)
(-0.0193457 -0.00128771 0)
(-0.0187905 -0.00135931 0)
(-0.0182071 -0.00142767 0)
(-0.0175968 -0.00149251 0)
(-0.016961 -0.00155354 0)
(-0.0163015 -0.00161049 0)
(-0.0156198 -0.00166309 0)
(-0.0149177 -0.00171111 0)
(-0.0141972 -0.00175432 0)
(-0.0134601 -0.00179253 0)
(-0.0127085 -0.00182554 0)
(-0.0119445 -0.0018532 0)
(-0.0111701 -0.00187538 0)
(-0.0103876 -0.00189196 0)
(-0.00959925 -0.00190287 0)
(-0.00880721 -0.00190804 0)
(-0.00801378 -0.00190746 0)
(-0.00722123 -0.00190112 0)
(-0.00643182 -0.00188906 0)
(-0.00564781 -0.00187134 0)
(-0.00487142 -0.00184803 0)
(-0.00410484 -0.00181927 0)
(-0.00335022 -0.0017852 0)
(-0.00260963 -0.00174599 0)
(-0.00188511 -0.00170183 0)
(-0.00117859 -0.00165296 0)
(-0.000491931 -0.00159962 0)
(0.000173102 -0.00154208 0)
(0.000814848 -0.00148062 0)
(0.00143176 -0.00141555 0)
(0.00202239 -0.0013472 0)
(0.00258544 -0.0012759 0)
(0.00311972 -0.00120199 0)
(0.00362418 -0.00112582 0)
(0.0040979 -0.00104777 0)
(0.00454011 -0.000968177 0)
(0.00495015 -0.000887419 0)
(0.00532753 -0.000805853 0)
(0.0056719 -0.000723832 0)
(0.00598303 -0.000641707 0)
(0.00626082 -0.000559815 0)
(0.00650534 -0.000478484 0)
(0.00671676 -0.000398026 0)
(0.00689537 -0.000318739 0)
(0.00704159 -0.000240904 0)
(0.00715597 -0.000164781 0)
(0.00723913 -9.06139e-05 0)
(0.00729182 -1.8623e-05 0)
(0.00731486 5.09909e-05 0)
(0.00730918 0.000118048 0)
(0.00727576 0.000182391 0)
(0.00721567 0.000243882 0)
(0.00713003 0.000302402 0)
(0.00702002 0.000357851 0)
(0.00688687 0.000410146 0)
(0.00673184 0.000459218 0)
(0.00655625 0.000505011 0)
(0.00636143 0.000547475 0)
(0.00614877 0.000586571 0)
(0.00591964 0.000622256 0)
(0.00567549 0.000654489 0)
(0.00541777 0.00068322 0)
(0.00514796 0.000708388 0)
(0.0048676 0.000729914 0)
(0.00457823 0.000747699 0)
(0.00428148 0.000761614 0)
(0.00397902 0.000771495 0)
(0.0036726 0.000777143 0)
(0.00336404 0.000778312 0)
(0.00305526 0.000774709 0)
(0.0027483 0.000765992 0)
(0.00244529 0.000751768 0)
(0.00214853 0.0007316 0)
(0.00186043 0.000705012 0)
(0.00158354 0.000671512 0)
(0.00132053 0.00063062 0)
(0.00107418 0.000581919 0)
(0.000847296 0.000525139 0)
(0.000642688 0.000460275 0)
(0.000463026 0.000387788 0)
(0.000310715 0.000308896 0)
(0.000187664 0.000226015 0)
(9.51771e-05 0.00014338 0)
(3.45724e-05 6.80537e-05 0)
(3.49568e-06 1.18381e-05 0)
(2.8973e-06 -3.08477e-05 0)
(2.33623e-05 -8.50251e-05 0)
(5.65915e-05 -0.0001301 0)
(0.000100383 -0.000165032 0)
(0.000150907 -0.000189803 0)
(0.00020538 -0.000204998 0)
(0.00026138 -0.000211531 0)
(0.000316742 -0.000210462 0)
(0.000369562 -0.000202879 0)
(0.000418192 -0.00018982 0)
(0.000461222 -0.000172239 0)
(0.000497465 -0.000150989 0)
(0.000525934 -0.000126811 0)
(0.000545826 -0.000100341 0)
(0.000556491 -7.21159e-05 0)
(0.000557417 -4.25799e-05 0)
(0.000548209 -1.20956e-05 0)
(0.000528562 1.90474e-05 0)
(0.00049825 5.06234e-05 0)
(0.000457107 8.24617e-05 0)
(0.000405014 0.000114439 0)
(0.000341884 0.000146472 0)
(0.000267653 0.00017851 0)
(0.000182272 0.000210532 0)
(8.56961e-05 0.000242535 0)
(-2.21159e-05 0.000274536 0)
(-0.000141211 0.000306565 0)
(-0.000271643 0.000338659 0)
(-0.000413477 0.000370863 0)
(-0.000566787 0.000403225 0)
(-0.00073166 0.000435793 0)
(-0.000908195 0.000468614 0)
(-0.0010965 0.000501732 0)
(-0.0012967 0.000535186 0)
(-0.00150892 0.000569013 0)
(-0.00173329 0.000603239 0)
(-0.00196996 0.000637887 0)
(-0.00221906 0.00067297 0)
(-0.00248073 0.000708495 0)
(-0.00275512 0.00074446 0)
(-0.00304235 0.000780854 0)
(-0.00334255 0.00081766 0)
(-0.00365583 0.000854851 0)
(-0.00398228 0.000892392 0)
(-0.00432199 0.00093024 0)
(-0.00467501 0.000968344 0)
(-0.00504138 0.00100664 0)
(-0.00542111 0.00104507 0)
(-0.00581419 0.00108355 0)
(-0.00622056 0.00112201 0)
(-0.00664016 0.00116034 0)
(-0.00707285 0.00119845 0)