/*--------------------------------*- C++ -*----------------------------------*\
  =========                 |
  \\      /  F ield         | OpenFOAM: The Open Source CFD Toolbox
   \\    /   O peration     | Website:  https://openfoam.org
    \\  /    A nd           | Version:  6
     \\/     M anipulation  |
\*---------------------------------------------------------------------------*/
FoamFile
{
    version     2.0;
    format      ascii;
    class       volScalarField;
    location    "0";
    object      p;
}
// * * * * * * * * * * * * * * * * * * * * * * * * * * * * * * * * * * * * * //

dimensions      [0 2 -2 0 0 0 0];

internalField   nonuniform List<scalar> 
13046
(
0.518178
0.503684
0.566203
0.516562
0.554452
0.521608
0.504809
0.523784
0.563189
0.402376
0.412608
0.579186
0.505359
0.496156
0.567485
0.438187
0.580818
0.409132
0.546768
0.541926
0.511336
0.432005
0.58114
0.411446
0.519863
0.521395
0.555361
0.501382
0.492583
0.572991
0.524641
0.49319
0.562862
0.528415
0.552081
0.519439
0.526589
0.551544
0.52615
0.538166
0.56202
0.475742
0.528098
0.543343
0.534113
0.523365
0.540077
0.539395
0.50985
0.506151
0.567298
0.551463
0.552986
0.44749
0.555969
0.437013
0.558846
0.420356
0.49837
0.578985
0.462887
0.5069
0.572405
0.578229
0.449354
0.439253
0.5081
0.419583
0.575996
0.513462
0.423059
0.574562
0.41362
0.494253
0.579513
0.547108
0.55041
0.501536
0.582477
0.476982
0.417556
0.514434
0.521519
0.556692
0.578527
0.442396
0.43102
0.417077
0.578135
0.474363
0.577496
0.387868
0.489325
0.477547
0.467686
0.475768
0.473904
0.574922
0.578244
0.57876
0.414594
0.483239
0.520633
0.544816
0.53604
0.562914
0.453981
0.549623
0.547001
0.559134
0.458786
0.366832
0.578302
0.37828
0.508561
0.503136
0.563101
0.475453
0.480057
0.4558
0.578089
0.466417
0.5764
0.396351
0.401251
0.579786
0.494252
0.475653
0.576438
0.533341
0.563383
0.477122
0.5747
0.394013
0.500938
0.450564
0.471685
0.577403
0.520695
0.490111
0.564135
0.479184
0.531707
0.563521
0.548848
0.553714
0.45749
0.55956
0.46323
0.550669
0.462169
0.497537
0.572561
0.563137
0.484499
0.539546
0.541524
0.434101
0.535235
0.432172
0.565691
0.568803
0.476093
0.528497
0.559944
0.397025
0.578837
0.422279
0.38027
0.578199
0.38576
0.448946
0.462867
0.579399
0.535552
0.454429
0.568851
0.477706
0.556945
0.533696
0.581241
0.439377
0.394527
0.536459
0.462538
0.56351
0.562943
0.477076
0.540418
0.485822
0.531025
0.559808
0.495669
0.5723
0.495979
0.485179
0.572106
0.41899
0.577875
0.455984
0.576567
0.408638
0.495513
0.395608
0.481767
0.575116
0.554475
0.428788
0.551581
0.495459
0.480757
0.582319
0.412913
0.467348
0.39353
0.578652
0.519522
0.552063
0.530021
0.507905
0.491654
0.571799
0.57713
0.401733
0.50239
0.490123
0.502446
0.573092
0.579321
0.407053
0.377016
0.554759
0.427469
0.550768
0.404474
0.488058
0.57609
0.451824
0.532816
0.567662
0.494517
0.474641
0.57715
0.52118
0.403674
0.570242
0.423047
0.532514
0.568006
0.578587
0.411452
0.366874
0.547021
0.564694
0.453526
0.385651
0.577525
0.352914
0.546974
0.513151
0.537611
0.459532
0.460018
0.525039
0.531106
0.568246
0.565339
0.57968
0.469575
0.411644
0.502968
0.476449
0.573227
0.4214
0.521532
0.572487
0.461961
0.464797
0.577838
0.533886
0.527526
0.544363
0.442516
0.529245
0.56867
0.505842
0.465765
0.574554
0.49316
0.489835
0.549825
0.56297
0.446185
0.441384
0.521374
0.570056
0.451853
0.57867
0.464757
0.552795
0.555196
0.465553
0.566756
0.427312
0.540629
0.490396
0.45104
0.575528
0.551948
0.554676
0.445662
0.483705
0.476995
0.447789
0.577035
0.447562
0.57966
0.580103
0.442304
0.403501
0.48634
0.468714
0.577154
0.34293
0.578149
0.351062
0.499627
0.550258
0.536814
0.471234
0.509014
0.570747
0.578577
0.428506
0.46288
0.555958
0.428138
0.559378
0.512483
0.403727
0.573113
0.514166
0.567906
0.472133
0.498252
0.573839
0.513047
0.5664
0.447634
0.579674
0.41636
0.560358
0.420854
0.552693
0.465749
0.495844
0.574284
0.474269
0.529412
0.56649
0.456036
0.546999
0.558348
0.515484
0.511137
0.562019
0.560363
0.429182
0.544972
0.409323
0.466632
0.576686
0.513684
0.405686
0.574331
0.521208
0.570655
0.43016
0.479929
0.485176
0.435945
0.429204
0.577249
0.577181
0.577295
0.349697
0.361065
0.393354
0.578291
0.357899
0.454323
0.522457
0.565209
0.577583
0.417146
0.445765
0.504811
0.499606
0.440532
0.438303
0.577057
0.576809
0.57562
0.462581
0.373752
0.380948
0.57817
0.33872
0.51472
0.541261
0.545665
0.370439
0.36115
0.577824
0.527779
0.458437
0.56841
0.39463
0.445995
0.580934
0.363034
0.576827
0.320449
0.54028
0.557808
0.48219
0.503644
0.541203
0.55197
0.403346
0.580559
0.393996
0.497487
0.540004
0.5539
0.519898
0.540699
0.543844
0.561617
0.417093
0.553419
0.494483
0.551897
0.547133
0.501475
0.539403
0.546536
0.527413
0.430905
0.569156
0.582316
0.582281
0.416431
0.419179
0.418406
0.413337
0.398623
0.465513
0.577506
0.576031
0.520388
0.419452
0.539333
0.561113
0.463531
0.417406
0.533115
0.565026
0.400072
0.577089
0.330071
0.578262
0.387273
0.481589
0.382993
0.579293
0.396583
0.575665
0.351634
0.320479
0.327558
0.575468
0.34074
0.510176
0.441145
0.570885
0.442719
0.575935
0.353862
0.441067
0.476235
0.577852
0.433156
0.579832
0.383476
0.50215
0.564341
0.516745
0.46927
0.577069
0.378869
0.420082
0.563476
0.536194
0.516666
0.423544
0.574354
0.574008
0.297611
0.297777
0.362085
0.578316
0.337422
0.508556
0.562384
0.516078
0.456184
0.376535
0.576664
0.577997
0.363513
0.459511
0.421037
0.57864
0.443358
0.58036
0.423557
0.459085
0.534987
0.42252
0.571546
0.430359
0.494509
0.580324
0.581355
0.456807
0.399909
0.516872
0.513264
0.470246
0.465045
0.570748
0.573334
0.523121
0.468223
0.569485
0.51201
0.43095
0.578981
0.515166
0.414296
0.572919
0.460794
0.395282
0.58109
0.573605
0.417998
0.501793
0.325479
0.575834
0.35158
0.535367
0.529967
0.562733
0.485983
0.563669
0.492836
0.521746
0.521382
0.571721
0.438684
0.57437
0.448288
0.371187
0.576485
0.320782
0.458077
0.383829
0.577095
0.541803
0.560032
0.447739
0.526232
0.409424
0.569517
0.580204
0.424063
0.46588
0.386976
0.355279
0.577909
0.40058
0.356876
0.57829
0.497386
0.446634
0.578914
0.55419
0.549763
0.472238
0.416164
0.57891
0.431159
0.509405
0.431716
0.575633
0.580344
0.450332
0.449188
0.526791
0.572373
0.446139
0.4542
0.53752
0.562645
0.542598
0.561077
0.468346
0.579451
0.432522
0.405475
0.465744
0.455458
0.578958
0.539745
0.558125
0.487538
0.448677
0.581316
0.392122
0.518154
0.484752
0.568912
0.491265
0.530113
0.560952
0.518977
0.4313
0.570769
0.407902
0.579823
0.367088
0.416932
0.580121
0.36765
0.580725
0.442502
0.452217
0.443692
0.544737
0.560881
0.579509
0.354389
0.397285
0.577527
0.469723
0.433319
0.575323
0.342539
0.311168
0.333479
0.313648
0.576086
0.581704
0.408984
0.455248
0.579387
0.420959
0.386782
0.431909
0.436527
0.578445
0.420697
0.578942
0.431747
0.426796
0.478999
0.577445
0.572273
0.533085
0.406131
0.530471
0.557456
0.503663
0.426525
0.491386
0.576834
0.576112
0.427301
0.49719
0.466293
0.580983
0.399154
0.520611
0.431472
0.575623
0.523494
0.455011
0.568411
0.447373
0.500764
0.576899
0.441739
0.501008
0.576283
0.54079
0.551598
0.496702
0.51406
0.456238
0.576591
0.577867
0.476918
0.374788
0.348701
0.578018
0.409412
0.337793
0.576988
0.413935
0.532029
0.566619
0.470225
0.381716
0.576862
0.342943
0.461467
0.579799
0.444416
0.577813
0.387538
0.329623
0.517006
0.552072
0.527545
0.489131
0.496213
0.571863
0.546408
0.446615
0.55919
0.57592
0.447764
0.362846
0.509499
0.431411
0.57404
0.580194
0.440136
0.393865
0.478926
0.493263
0.576816
0.53177
0.556854
0.507272
0.440672
0.371541
0.578736
0.580198
0.457923
0.436929
0.400017
0.392011
0.578172
0.578238
0.383254
0.375601
0.468495
0.522616
0.569003
0.51396
0.446948
0.568252
0.498163
0.5257
0.56454
0.423001
0.355723
0.428371
0.578718
0.352464
0.577649
0.464934
0.48083
0.578588
0.373609
0.365613
0.432444
0.425264
0.578639
0.577326
0.445789
0.520476
0.574267
0.483213
0.510588
0.569881
0.423793
0.581103
0.381456
0.475999
0.512156
0.568736
0.495085
0.519484
0.562615
0.404669
0.579637
0.378526
0.484087
0.479721
0.572985
0.545617
0.412071
0.564089
0.531705
0.436285
0.571084
0.509503
0.57363
0.39281
0.575059
0.311444
0.309259
0.474696
0.505339
0.571425
0.425717
0.578944
0.401781
0.566027
0.420608
0.543923
0.354109
0.577616
0.329608
0.55562
0.552813
0.544668
0.47918
0.548652
0.472292
0.49854
0.530008
0.558999
0.544743
0.5508
0.553104
0.481896
0.554298
0.479089
0.48041
0.514185
0.571013
0.481663
0.518527
0.570113
0.577453
0.422244
0.340297
0.526841
0.473907
0.565298
0.384174
0.431029
0.579733
0.448138
0.442361
0.491768
0.484876
0.575234
0.575091
0.522552
0.484773
0.566479
0.508173
0.448023
0.574486
0.461721
0.494975
0.577262
0.534024
0.517075
0.548663
0.435098
0.491846
0.576438
0.531393
0.5557
0.502388
0.454574
0.513135
0.573794
0.504178
0.457939
0.574498
0.533877
0.537324
0.509001
0.555098
0.506081
0.553699
0.543256
0.547325
0.550532
0.497404
0.555209
0.484509
0.515376
0.509627
0.477765
0.480799
0.57105
0.570129
0.57969
0.42895
0.458613
0.560638
0.420408
0.547719
0.581541
0.581134
0.42529
0.433317
0.44991
0.445116
0.550579
0.560603
0.435453
0.532915
0.54464
0.526941
0.435913
0.483566
0.576938
0.533585
0.563114
0.481456
0.499618
0.457535
0.575452
0.473931
0.472356
0.429775
0.580889
0.437979
0.579776
0.456427
0.481266
0.576158
0.362122
0.341774
0.577906
0.561974
0.425992
0.54576
0.538017
0.538564
0.567394
0.426816
0.570406
0.431357
0.421309
0.506968
0.574118
0.512532
0.449812
0.574689
0.547501
0.560966
0.436554
0.534615
0.534486
0.564194
0.571343
0.44858
0.447122
0.534514
0.570411
0.437524
0.455292
0.488079
0.576983
0.536368
0.553815
0.502322
0.411854
0.578866
0.399119
0.546527
0.564391
0.430688
0.499613
0.49178
0.462008
0.459344
0.573655
0.578355
0.579423
0.405129
0.418336
0.421397
0.580757
0.388667
0.412878
0.579261
0.388986
0.464067
0.580269
0.437111
0.514687
0.45716
0.57359
0.509469
0.549567
0.575083
0.512697
0.57035
0.426327
0.559788
0.51076
0.527962
0.564815
0.563142
0.524218
0.515099
0.567703
0.546646
0.525652
0.507669
0.551339
0.549189
0.556846
0.549501
0.54769
0.56477
0.579998
0.57884
0.551459
0.573991
0.52695
0.555003
0.507047
0.53113
0.556547
0.555008
0.545437
0.536964
0.559121
0.574714
0.565581
0.515722
0.535846
0.548915
0.574687
0.540111
0.565815
0.558827
0.547768
0.550311
0.549724
0.524548
0.54276
0.577215
0.54602
0.527323
0.557537
0.530354
0.574946
0.559849
0.555195
0.5545
0.565013
0.542767
0.541175
0.578615
0.515508
0.556926
0.559919
0.553876
0.57663
0.565465
0.556055
0.533577
0.539983
0.539477
0.559274
0.535848
0.542949
0.546312
0.535121
0.562017
0.568506
0.549272
0.55348
0.523389
0.528779
0.548357
0.564919
0.547337
0.506533
0.54888
0.576749
0.528909
0.564536
0.578799
0.544431
0.518628
0.38859
0.538461
0.551373
0.518533
0.531106
0.561495
0.566164
0.561586
0.574629
0.525713
0.499245
0.523003
0.533754
0.54007
0.574211
0.567238
0.553224
0.529911
0.541101
0.537207
0.55876
0.55135
0.507942
0.530439
0.54837
0.547847
0.574455
0.56988
0.56022
0.554095
0.54009
0.529369
0.580318
0.48671
0.558249
0.533215
0.574435
0.525099
0.448288
0.501896
0.567963
0.540873
0.517789
0.536252
0.557692
0.520039
0.564498
0.545384
0.535217
0.563861
0.558547
0.524728
0.571144
0.535354
0.553057
0.524304
0.553135
0.516557
0.573627
0.563563
0.548586
0.560992
0.564861
0.57434
0.546268
0.537853
0.534247
0.561016
0.486947
0.52806
0.524636
0.578712
0.550611
0.569606
0.579437
0.551758
0.581239
0.574756
0.573592
0.523536
0.529916
0.527575
0.57446
0.527094
0.521894
0.478064
0.522795
0.549683
0.554655
0.554764
0.580253
0.56223
0.546633
0.567699
0.553838
0.575735
0.442496
0.560605
0.541451
0.532965
0.574738
0.578415
0.539238
0.550132
0.578815
0.554808
0.500293
0.536932
0.559477
0.573966
0.550963
0.526063
0.555064
0.562889
0.55208
0.548807
0.505731
0.470706
0.533424
0.540974
0.538212
0.531434
0.506319
0.566369
0.548391
0.531316
0.553857
0.530315
0.527323
0.55762
0.55743
0.524197
0.522624
0.496955
0.557482
0.53955
0.537424
0.553252
0.558506
0.52851
0.553132
0.546793
0.523124
0.534866
0.570181
0.550547
0.570157
0.575061
0.575764
0.521922
0.520937
0.549689
0.551487
0.526449
0.534541
0.555579
0.573484
0.564598
0.551398
0.523401
0.5442
0.546303
0.551548
0.556624
0.535463
0.553053
0.547311
0.465229
0.528716
0.538254
0.526113
0.543199
0.556939
0.554436
0.551152
0.55918
0.522359
0.547711
0.546131
0.552106
0.540254
0.554341
0.553454
0.527167
0.51091
0.550328
0.523763
0.518719
0.549667
0.453863
0.521203
0.571542
0.55398
0.533923
0.53517
0.532239
0.554684
0.504432
0.464866
0.523394
0.56186
0.549609
0.563324
0.421774
0.519754
0.573041
0.546796
0.502961
0.509101
0.523931
0.527724
0.520905
0.556015
0.560489
0.531653
0.525993
0.541215
0.5422
0.576383
0.491707
0.561308
0.557333
0.453744
0.536187
0.526774
0.530415
0.556719
0.556063
0.574055
0.547573
0.520566
0.548329
0.547133
0.581414
0.552919
0.574543
0.561033
0.545926
0.555034
0.549979
0.539179
0.527075
0.548824
0.513927
0.555786
0.55216
0.530031
0.525438
0.520929
0.523054
0.51013
0.569624
0.526602
0.539519
0.569359
0.566717
0.530646
0.522909
0.575265
0.531068
0.449635
0.547262
0.531314
0.526291
0.573983
0.54824
0.542607
0.567212
0.530602
0.553663
0.536385
0.554105
0.549423
0.543276
0.390549
0.525871
0.53188
0.531928
0.548639
0.54712
0.562203
0.576822
0.519306
0.538151
0.518934
0.486767
0.523321
0.568842
0.54717
0.533309
0.535461
0.554797
0.523511
0.509198
0.519578
0.532129
0.53563
0.579116
0.543957
0.553647
0.579954
0.568046
0.563443
0.576152
0.506447
0.540528
0.526524
0.579328
0.564297
0.569627
0.548502
0.544094
0.533834
0.556208
0.529548
0.48877
0.568929
0.549727
0.490376
0.524439
0.534631
0.525331
0.535862
0.548388
0.550564
0.521025
0.538205
0.525575
0.536678
0.528032
0.546644
0.502595
0.532444
0.572721
0.574856
0.561586
0.557958
0.555257
0.445897
0.560928
0.549139
0.515214
0.573439
0.435018
0.574523
0.539944
0.551944
0.546251
0.558769
0.556696
0.520127
0.577072
0.516862
0.571695
0.554105
0.534727
0.540438
0.508105
0.543577
0.573643
0.54093
0.580045
0.557185
0.525068
0.497776
0.559255
0.445066
0.55781
0.553355
0.526969
0.578661
0.480525
0.476149
0.565569
0.551584
0.574387
0.579352
0.543157
0.581011
0.57864
0.567285
0.570326
0.558632
0.522994
0.540982
0.550193
0.567926
0.542216
0.431699
0.576947
0.534208
0.542419
0.539526
0.574575
0.577222
0.545649
0.568533
0.552955
0.577879
0.524167
0.56371
0.537047
0.578543
0.579232
0.564574
0.539792
0.561868
0.527019
0.512823
0.550355
0.543441
0.554188
0.505366
0.442078
0.525789
0.545245
0.558219
0.549064
0.574957
0.541754
0.525972
0.555365
0.526817
0.574438
0.510451
0.536545
0.567042
0.571535
0.550248
0.578412
0.51812
0.548946
0.56589
0.534258
0.504801
0.550096
0.54201
0.55718
0.563092
0.541617
0.529265
0.551917
0.528946
0.521405
0.57555
0.578639
0.580039
0.505985
0.580301
0.577582
0.578603
0.527789
0.560903
0.556173
0.57623
0.557127
0.514455
0.528667
0.539242
0.425936
0.577643
0.547277
0.545948
0.564116
0.563201
0.548535
0.539136
0.576876
0.578986
0.571372
0.560125
0.54159
0.551078
0.561518
0.555024
0.540519
0.540854
0.543747
0.547318
0.553557
0.536494
0.57218
0.576082
0.524034
0.568469
0.533885
0.522888
0.536616
0.573312
0.548628
0.558405
0.550797
0.570793
0.552271
0.553369
0.580659
0.538991
0.526669
0.522257
0.523928
0.516137
0.382649
0.529605
0.525433
0.554561
0.524623
0.543456
0.552433
0.536064
0.526775
0.53737
0.54301
0.390515
0.57834
0.549992
0.552905
0.524826
0.548688
0.542732
0.514178
0.579172
0.531931
0.58079
0.544164
0.570064
0.503363
0.469019
0.540319
0.547122
0.549286
0.554993
0.469845
0.554787
0.548552
0.527004
0.515398
0.53711
0.541414
0.577303
0.506711
0.558272
0.565459
0.558967
0.528558
0.565648
0.526527
0.383871
0.552525
0.528996
0.51691
0.563885
0.56189
0.550905
0.558946
0.544271
0.581656
0.578656
0.546887
0.543041
0.578267
0.573642
0.560225
0.5575
0.551558
0.580848
0.534766
0.523641
0.5735
0.571001
0.577534
0.553123
0.545411
0.535761
0.561877
0.557023
0.359924
0.574622
0.552072
0.523968
0.548515
0.554517
0.577633
0.577173
0.556904
0.538188
0.564959
0.573123
0.563544
0.563638
0.569858
0.473224
0.524816
0.551402
0.525599
0.47531
0.529204
0.552409
0.564805
0.531855
0.549679
0.512825
0.535526
0.576958
0.545845
0.528388
0.524958
0.521315
0.550541
0.535058
0.535652
0.562193
0.554789
0.555368
0.51844
0.55889
0.538888
0.532279
0.560607
0.563027
0.565684
0.575441
0.527945
0.572404
0.526122
0.576151
0.572373
0.576342
0.568637
0.52581
0.525197
0.548893
0.519382
0.533088
0.534902
0.537327
0.520003
0.560259
0.556689
0.522954
0.570866
0.546205
0.548554
0.553288
0.559269
0.57017
0.558434
0.55081
0.525515
0.570283
0.507316
0.574117
0.519695
0.554035
0.573347
0.563953
0.578709
0.567751
0.554474
0.508751
0.527003
0.551023
0.540086
0.57952
0.511377
0.512052
0.548752
0.55109
0.543309
0.523965
0.55945
0.559802
0.555927
0.445987
0.543297
0.501627
0.516224
0.546483
0.548736
0.546161
0.536964
0.566732
0.523105
0.579712
0.550937
0.500989
0.559524
0.547447
0.572534
0.544592
0.534823
0.523378
0.538148
0.549318
0.575129
0.536473
0.551945
0.552917
0.569559
0.53692
0.551135
0.539379
0.577731
0.520333
0.522634
0.486889
0.566573
0.523731
0.538336
0.527517
0.533239
0.576791
0.549151
0.561603
0.570006
0.56133
0.495811
0.576523
0.516034
0.552744
0.560055
0.541609
0.527159
0.548242
0.543363
0.520162
0.54211
0.490291
0.526071
0.549107
0.493829
0.534154
0.570884
0.530209
0.525705
0.544368
0.575195
0.547546
0.520389
0.558943
0.529389
0.53417
0.552209
0.546839
0.556207
0.553976
0.578484
0.546232
0.564978
0.555721
0.571553
0.576967
0.575969
0.498452
0.538624
0.55353
0.519647
0.57839
0.572756
0.569015
0.549134
0.52194
0.523005
0.55421
0.565988
0.516427
0.569448
0.568521
0.559872
0.525545
0.520721
0.528817
0.502782
0.54746
0.517503
0.554402
0.536755
0.55769
0.527564
0.547464
0.522794
0.556143
0.558021
0.559539
0.546879
0.554905
0.574829
0.578576
0.549623
0.54496
0.564621
0.553534
0.533798
0.54182
0.553026
0.53257
0.577584
0.548918
0.55319
0.560952
0.563343
0.541317
0.487801
0.581961
0.549808
0.54736
0.551809
0.551781
0.564324
0.5733
0.54903
0.556771
0.519769
0.53765
0.544679
0.559497
0.554301
0.547297
0.551068
0.578527
0.556653
0.538692
0.572085
0.554025
0.526247
0.5423
0.581914
0.530791
0.52116
0.541839
0.582754
0.544724
0.551107
0.56469
0.567755
0.570091
0.552397
0.523126
0.556877
0.538798
0.545737
0.569878
0.546727
0.521352
0.516719
0.546381
0.557648
0.535103
0.525589
0.571521
0.550272
0.576019
0.568308
0.521946
0.518014
0.547041
0.567069
0.573192
0.547217
0.544416
0.498147
0.549767
0.542851
0.576125
0.573865
0.568756
0.525481
0.519137
0.560023
0.581485
0.57659
0.567082
0.57057
0.544243
0.544535
0.517351
0.521046
0.571947
0.553703
0.4681
0.531554
0.580195
0.550568
0.524642
0.525272
0.549435
0.541337
0.567637
0.554416
0.558847
0.572372
0.573818
0.541741
0.556015
0.547586
0.547793
0.527208
0.559281
0.54274
0.575144
0.470755
0.555192
0.45587
0.546859
0.574813
0.558584
0.568326
0.574849
0.57311
0.534585
0.549132
0.545243
0.508656
0.576219
0.555649
0.539324
0.554336
0.427891
0.531245
0.560909
0.557925
0.578259
0.519894
0.527505
0.549208
0.575271
0.474965
0.539187
0.54555
0.484878
0.520487
0.561527
0.520857
0.544599
0.523657
0.56741
0.579337
0.427846
0.556317
0.554704
0.535065
0.52471
0.549434
0.542713
0.550832
0.533415
0.551885
0.54529
0.543829
0.546971
0.570126
0.539756
0.521389
0.542731
0.519088
0.527371
0.545615
0.498197
0.543405
0.538008
0.552578
0.568736
0.55464
0.552036
0.465203
0.563713
0.542305
0.543326
0.581151
0.551616
0.552221
0.479809
0.470347
0.576117
0.530421
0.551155
0.558518
0.539485
0.56563
0.465963
0.569878
0.547165
0.566144
0.546435
0.550677
0.549076
0.527164
0.537831
0.546443
0.578322
0.517798
0.526649
0.535626
0.579546
0.57634
0.494923
0.54404
0.549426
0.55984
0.543891
0.57668
0.570121
0.56894
0.567855
0.552441
0.536633
0.521252
0.576028
0.53907
0.549659
0.497701
0.5246
0.534751
0.52317
0.575905
0.481178
0.571824
0.541407
0.575392
0.553424
0.576083
0.564743
0.550495
0.576755
0.575114
0.581353
0.548556
0.57121
0.540653
0.553086
0.531127
0.536137
0.578317
0.482056
0.548069
0.557516
0.548641
0.554116
0.550095
0.568575
0.546199
0.563209
0.52246
0.528768
0.555459
0.566312
0.496118
0.559639
0.528155
0.554354
0.523305
0.546758
0.557915
0.565585
0.577551
0.525304
0.546897
0.549803
0.55477
0.570225
0.504711
0.522644
0.579647
0.518497
0.542759
0.565385
0.574423
0.57881
0.524128
0.533252
0.534318
0.53233
0.509448
0.549782
0.546442
0.550502
0.534784
0.545717
0.548889
0.538123
0.511484
0.536645
0.549352
0.528551
0.565674
0.564801
0.516452
0.565085
0.471453
0.535892
0.48943
0.536206
0.57822
0.553763
0.553201
0.55101
0.566966
0.574647
0.55173
0.566033
0.511075
0.549951
0.544558
0.553382
0.52602
0.577104
0.550295
0.534338
0.57806
0.568474
0.528109
0.575474
0.521881
0.552899
0.551379
0.5544
0.498384
0.569533
0.548787
0.551946
0.55258
0.534748
0.527359
0.534024
0.563808
0.570332
0.572118
0.549122
0.557091
0.574581
0.554346
0.548907
0.539021
0.535155
0.546383
0.568425
0.52847
0.574333
0.552319
0.576632
0.578716
0.576925
0.547997
0.553469
0.5715
0.459798
0.574426
0.48525
0.57686
0.568582
0.550005
0.548768
0.543198
0.548813
0.484669
0.508348
0.544444
0.51661
0.57732
0.525607
0.529731
0.506631
0.521714
0.553299
0.569931
0.581961
0.524734
0.550582
0.553201
0.551202
0.543911
0.547202
0.574618
0.568047
0.54979
0.573025
0.567917
0.581302
0.526176
0.532975
0.517342
0.566852
0.577248
0.570525
0.550204
0.5766
0.548381
0.519214
0.547204
0.517215
0.536408
0.52598
0.582702
0.576312
0.554573
0.582021
0.567481
0.547415
0.576663
0.531856
0.567625
0.544646
0.576477
0.543735
0.524397
0.563529
0.556861
0.5768
0.576706
0.57685
0.522069
0.518157
0.514747
0.568076
0.568399
0.497753
0.539146
0.569482
0.527034
0.544719
0.526974
0.539085
0.556776
0.540455
0.550847
0.536469
0.552851
0.556627
0.562119
0.545725
0.536766
0.554321
0.554811
0.548321
0.572816
0.581189
0.496546
0.567716
0.527282
0.539475
0.576813
0.569467
0.541346
0.576509
0.527583
0.564553
0.54115
0.530461
0.572026
0.544336
0.566878
0.558051
0.562915
0.579851
0.563033
0.534256
0.560593
0.52654
0.566225
0.575963
0.558705
0.544993
0.525331
0.530135
0.572237
0.538361
0.55593
0.520818
0.546573
0.569598
0.565551
0.549674
0.569983
0.577409
0.5363
0.543908
0.556689
0.525523
0.536075
0.550735
0.557758
0.548224
0.530784
0.492971
0.520607
0.562553
0.545405
0.566665
0.530294
0.575677
0.556291
0.575089
0.577181
0.544124
0.574839
0.531245
0.555892
0.537676
0.567139
0.519252
0.54677
0.539226
0.522939
0.54386
0.531067
0.520665
0.526254
0.581199
0.583475
0.551369
0.522685
0.565191
0.522227
0.497988
0.548722
0.562517
0.5616
0.526519
0.526132
0.576936
0.521313
0.5575
0.523833
0.53118
0.54636
0.518013
0.573715
0.553802
0.534669
0.57557
0.573915
0.533658
0.557581
0.548937
0.580277
0.55115
0.542138
0.528297
0.558312
0.579811
0.557795
0.506088
0.529087
0.541836
0.556383
0.576974
0.578222
0.520594
0.577447
0.531272
0.553137
0.556561
0.548403
0.540997
0.569298
0.493839
0.555848
0.515536
0.531473
0.510833
0.526802
0.56173
0.576558
0.53194
0.535678
0.555041
0.54037
0.491306
0.513473
0.534941
0.559464
0.452851
0.536935
0.557195
0.553711
0.549241
0.557292
0.569518
0.474303
0.47401
0.572308
0.550124
0.492146
0.543487
0.565817
0.562959
0.550689
0.515561
0.55525
0.519174
0.577314
0.570176
0.581925
0.54683
0.562277
0.5309
0.554533
0.574316
0.523441
0.533942
0.563817
0.56968
0.52849
0.530286
0.510518
0.476992
0.513066
0.579232
0.540715
0.528099
0.50324
0.525073
0.566872
0.515745
0.53395
0.524576
0.570619
0.543916
0.578215
0.532873
0.546813
0.553426
0.555158
0.544826
0.559878
0.52178
0.578687
0.556151
0.554436
0.569963
0.537504
0.574587
0.554664
0.542123
0.575668
0.520973
0.540042
0.576368
0.554964
0.524379
0.533375
0.558427
0.57643
0.552542
0.566311
0.513735
0.529302
0.521894
0.513267
0.57383
0.53599
0.550111
0.579237
0.548063
0.478528
0.523718
0.551363
0.522428
0.545448
0.528413
0.535201
0.539623
0.566363
0.577116
0.558465
0.519503
0.543123
0.522364
0.547256
0.561684
0.549017
0.546833
0.560585
0.543574
0.548784
0.571747
0.56989
0.578445
0.574754
0.575755
0.54665
0.530848
0.526587
0.525289
0.576781
0.553962
0.53203
0.575733
0.534348
0.571495
0.566975
0.52973
0.51937
0.540467
0.551977
0.569745
0.544276
0.562107
0.551997
0.577982
0.558179
0.578642
0.534678
0.550632
0.538078
0.525352
0.541326
0.571121
0.487342
0.423525
0.549015
0.56188
0.566565
0.546443
0.525364
0.523199
0.538664
0.521128
0.546914
0.549428
0.52925
0.564505
0.551948
0.525797
0.548717
0.538726
0.514265
0.567246
0.539311
0.547474
0.517785
0.557519
0.535577
0.52586
0.541543
0.541209
0.535222
0.525888
0.477833
0.56944
0.579369
0.572569
0.555872
0.565874
0.531375
0.576475
0.553236
0.553939
0.50844
0.563687
0.536758
0.543654
0.567866
0.575706
0.569043
0.552188
0.557397
0.580671
0.532341
0.564705
0.577094
0.56099
0.546739
0.528501
0.568584
0.539914
0.535407
0.558353
0.545612
0.578387
0.532725
0.579037
0.579212
0.550396
0.534861
0.578578
0.525372
0.533992
0.541126
0.528156
0.538629
0.536278
0.532858
0.55243
0.522669
0.522765
0.549051
0.550102
0.538026
0.538425
0.555866
0.551323
0.542891
0.574831
0.575789
0.576497
0.525005
0.53956
0.577076
0.523488
0.551904
0.501698
0.549703
0.503308
0.564911
0.550955
0.550581
0.528574
0.522198
0.537921
0.556736
0.539137
0.549146
0.553065
0.545193
0.576152
0.559064
0.557383
0.535443
0.572571
0.535137
0.551909
0.575882
0.532246
0.535894
0.52723
0.563005
0.578927
0.532747
0.553538
0.540227
0.526087
0.517954
0.548119
0.522144
0.564454
0.533808
0.547256
0.550684
0.549693
0.525645
0.548168
0.549425
0.541908
0.55613
0.570823
0.550863
0.541742
0.547553
0.574575
0.55269
0.522224
0.564958
0.524756
0.550168
0.514763
0.533699
0.54175
0.48879
0.527463
0.580946
0.570314
0.519218
0.553898
0.527788
0.5089
0.522317
0.523767
0.533736
0.530796
0.533465
0.561161
0.583494
0.546028
0.565464
0.549674
0.57753
0.553486
0.582882
0.555674
0.537278
0.559919
0.569204
0.547959
0.565635
0.515172
0.572852
0.545224
0.420671
0.552334
0.581452
0.581654
0.561453
0.561856
0.563228
0.539742
0.54376
0.557504
0.57823
0.43437
0.543766
0.511963
0.537214
0.553305
0.518803
0.5233
0.534933
0.531158
0.525788
0.541729
0.550095
0.579827
0.57169
0.526338
0.57081
0.523977
0.551607
0.570248
0.55241
0.550017
0.557421
0.437262
0.529816
0.554067
0.57248
0.530726
0.537078
0.554143
0.559398
0.523465
0.577083
0.533129
0.555218
0.551976
0.545385
0.559354
0.561251
0.575592
0.515286
0.566534
0.548477
0.559372
0.524924
0.556871
0.542867
0.520142
0.527639
0.543245
0.546955
0.55303
0.571198
0.54856
0.511435
0.559653
0.532854
0.529788
0.55099
0.552395
0.528368
0.583275
0.53055
0.53375
0.531747
0.551522
0.527211
0.500412
0.5641
0.543382
0.549558
0.533897
0.515994
0.545296
0.477621
0.577654
0.566142
0.53093
0.525833
0.576499
0.533721
0.527285
0.522124
0.511882
0.540528
0.550834
0.57455
0.528608
0.539145
0.561062
0.550208
0.533001
0.530975
0.546323
0.564639
0.577453
0.530208
0.518261
0.553145
0.574396
0.544462
0.553736
0.549886
0.517573
0.553774
0.557886
0.545116
0.521105
0.564995
0.551965
0.515075
0.552478
0.529733
0.569459
0.579024
0.528745
0.552994
0.547392
0.552653
0.528607
0.555933
0.541868
0.57631
0.567617
0.562737
0.531582
0.536009
0.566598
0.578224
0.541126
0.551832
0.546147
0.529009
0.547243
0.550876
0.524254
0.463669
0.527142
0.54573
0.532439
0.527799
0.534698
0.543782
0.565002
0.524306
0.527631
0.538584
0.524899
0.568355
0.526616
0.556929
0.548886
0.522478
0.55635
0.551731
0.555509
0.548524
0.562758
0.532182
0.531055
0.5765
0.518298
0.574451
0.554861
0.539729
0.541775
0.572104
0.550931
0.52512
0.579454
0.514625
0.54573
0.573632
0.518052
0.582143
0.530403
0.55192
0.456325
0.554967
0.525362
0.555315
0.537482
0.518916
0.541386
0.520862
0.531655
0.576162
0.522348
0.548415
0.556703
0.551415
0.577949
0.579423
0.544231
0.512808
0.571273
0.53974
0.575014
0.536456
0.543389
0.557674
0.544535
0.569129
0.549546
0.553599
0.534925
0.553897
0.503194
0.514124
0.573193
0.388813
0.57084
0.562345
0.533863
0.527265
0.544488
0.576843
0.55746
0.56011
0.553315
0.556995
0.550736
0.574296
0.569145
0.525044
0.557942
0.572336
0.547752
0.550825
0.551861
0.530395
0.529216
0.551685
0.555391
0.546851
0.581538
0.52312
0.536962
0.55467
0.542562
0.543515
0.572663
0.531303
0.537523
0.53662
0.546071
0.530008
0.573119
0.517276
0.548818
0.541558
0.544482
0.522483
0.519066
0.559157
0.51461
0.524084
0.574003
0.547311
0.538816
0.524427
0.524181
0.539245
0.574103
0.579276
0.536998
0.541931
0.544946
0.571628
0.574393
0.534225
0.575619
0.540713
0.55771
0.555267
0.573004
0.545515
0.571233
0.573217
0.522775
0.51362
0.548288
0.54071
0.546419
0.461861
0.481385
0.56124
0.569362
0.527819
0.577387
0.548429
0.562519
0.550625
0.525806
0.571289
0.568047
0.552144
0.517498
0.526931
0.578842
0.566865
0.577613
0.521293
0.545473
0.556996
0.570804
0.559614
0.553348
0.545115
0.572582
0.54537
0.542978
0.55018
0.545246
0.550319
0.466635
0.569035
0.550326
0.553475
0.576176
0.52041
0.528097
0.534805
0.530213
0.573967
0.532891
0.556393
0.470607
0.535376
0.546509
0.53348
0.528345
0.555129
0.522478
0.52879
0.550309
0.552402
0.574327
0.533631
0.548495
0.572804
0.542393
0.576174
0.545026
0.559373
0.5443
0.536247
0.577267
0.52419
0.529162
0.551972
0.575136
0.563109
0.5472
0.511279
0.580331
0.556449
0.547468
0.563612
0.576971
0.564035
0.558614
0.524727
0.520298
0.543942
0.525903
0.554246
0.551898
0.523386
0.577086
0.576302
0.574441
0.556786
0.552313
0.525527
0.54424
0.564139
0.52861
0.559607
0.575427
0.544621
0.551959
0.551427
0.563475
0.557143
0.551826
0.524103
0.562034
0.511897
0.465195
0.538978
0.581734
0.523549
0.568681
0.539525
0.51173
0.561373
0.550141
0.575714
0.427925
0.554475
0.558729
0.575788
0.544872
0.577098
0.549232
0.522318
0.542285
0.546907
0.54728
0.519041
0.566673
0.550885
0.530369
0.520386
0.5456
0.553273
0.51502
0.555906
0.572596
0.52788
0.573489
0.531275
0.505497
0.5186
0.547342
0.532597
0.526749
0.510534
0.513419
0.547893
0.543544
0.564583
0.546196
0.573196
0.518626
0.555865
0.52686
0.532236
0.518854
0.559167
0.57907
0.533146
0.533144
0.583378
0.546517
0.558629
0.563275
0.542198
0.552907
0.554686
0.549732
0.577512
0.576288
0.5772
0.550886
0.533242
0.536569
0.542653
0.577649
0.552145
0.536522
0.501402
0.534145
0.553612
0.574674
0.548053
0.57331
0.536068
0.542009
0.543535
0.518207
0.541053
0.535851
0.573815
0.525965
0.531293
0.530099
0.580207
0.554209
0.529363
0.524138
0.515363
0.567349
0.546809
0.538206
0.530469
0.541676
0.526846
0.547377
0.540593
0.52413
0.572719
0.575164