/*--------------------------------*- C++ -*----------------------------------*\
  =========                 |
  \\      /  F ield         | OpenFOAM: The Open Source CFD Toolbox
   \\    /   O peration     | Website:  https://openfoam.org
    \\  /    A nd           | Version:  6
     \\/     M anipulation  |
\*---------------------------------------------------------------------------*/
FoamFile
{
    version     2.0;
    format      ascii;
    class       volVectorField;
    location    "0";
    object      U;
}
// * * * * * * * * * * * * * * * * * * * * * * * * * * * * * * * * * * * * * //

dimensions      [0 1 -1 0 0 0 0];

internalField   nonuniform List<vector> 
13046
(
(-0.462657 0.24235 0)
(-0.447413 0.0404516 -5.39976e-21)
(-0.240497 0.0966085 -1.19759e-20)
(-0.460118 0.190014 0)
(-0.284934 0.142658 -1.07578e-20)
(-0.38477 0.0443212 0)
(-0.481932 0.198176 1.57648e-21)
(-0.392969 0.0216351 2.76854e-21)
(-0.271279 0.151264 -1.18592e-20)
(-0.606262 0.302397 5.85849e-21)
(-0.717391 -0.244968 0)
(-0.0611036 0.0933057 8.1292e-21)
(-0.513268 0.251338 -5.01774e-21)
(-0.46573 -0.00762655 -8.64826e-21)
(-0.210175 0.111503 6.60638e-21)
(-0.582482 0.346293 -7.47786e-21)
(-0.060968 0.0672926 1.95112e-20)
(-0.740258 -0.179063 4.6312e-21)
(-0.355924 0.188519 0)
(-0.32161 0.0654713 -5.83562e-21)
(-0.442259 0.133997 1.64321e-20)
(-0.588388 0.338316 -3.2254e-21)
(-0.06033 0.0736805 -2.60557e-20)
(-0.733397 -0.192436 0)
(-0.437113 0.203854 6.60816e-21)
(-0.410621 0.0644412 -1.31787e-20)
(-0.278392 0.113348 0)
(-0.513043 0.268662 -9.25967e-21)
(-0.483025 -0.0124572 2.52487e-21)
(-0.195664 0.0995865 -1.14193e-20)
(-0.462063 0.255251 0)
(-0.464032 0.0431044 0)
(-0.229321 0.082099 1.2193e-20)
(-0.416608 0.189538 -7.67439e-21)
(-0.295989 0.11316 4.02845e-21)
(-0.400812 0.0830324 2.29513e-20)
(-0.412809 0.17579 -1.17981e-20)
(-0.311949 0.126145 6.13254e-21)
(-0.385411 0.088098 -1.18057e-20)
(-0.412705 0.275287 8.56596e-21)
(-0.254326 0.0144211 2.27152e-21)
(-0.513981 0.0823402 -8.17154e-21)
(-0.388431 0.140223 5.33743e-21)
(-0.353566 0.140588 9.17166e-21)
(-0.358892 0.11037 0)
(-0.406754 0.140553 3.36453e-21)
(-0.347666 0.15437 -1.40484e-20)
(-0.346507 0.0948412 -1.75889e-21)
(-0.473957 0.235775 0)
(-0.437999 0.0264256 -3.88772e-22)
(-0.235257 0.107999 1.60375e-23)
(-0.307456 -0.0656281 1.42047e-20)
(-0.371039 0.302624 0)
(-0.578839 0.106707 -1.00872e-20)
(-0.33541 -0.0890834 -2.02345e-20)
(-0.593834 0.117459 -1.61937e-20)
(-0.35063 0.298331 1.34732e-20)
(-0.658714 -0.0534031 -2.03299e-21)
(-0.537307 0.380007 0)
(-0.123256 0.0201887 1.06909e-20)
(-0.589229 0.228692 -4.80053e-21)
(-0.485865 -0.10208 5.20552e-21)
(-0.207806 0.177182 -2.77621e-20)
(-0.101431 0.110042 1.47727e-20)
(-0.655192 -0.179616 -3.36414e-21)
(-0.611803 0.300651 -8.53007e-21)
(-0.523148 0.385864 0)
(-0.648193 -0.0307547 0)
(-0.1404 0.00191847 0)
(-0.513258 0.379018 -3.82692e-21)
(-0.632019 -0.0179765 0)
(-0.15087 0.000543569 8.51919e-21)
(-0.681762 -0.0664537 0)
(-0.544517 0.385653 9.72822e-23)
(-0.112483 0.0184914 2.13419e-24)
(-0.367224 0.202734 0)
(-0.307672 0.0562864 6.34716e-21)
(-0.454502 0.121978 -1.17244e-20)
(-0.0915646 0.0377885 1.18835e-20)
(-0.560188 0.375986 -1.22439e-20)
(-0.69857 -0.102898 0)
(-0.451396 0.205902 3.46958e-21)
(-0.405098 0.0518599 0)
(-0.270762 0.124044 0)
(-0.0904286 0.104352 -1.33089e-20)
(-0.676186 -0.194635 -2.62772e-21)
(-0.613277 0.305146 5.09558e-21)
(-0.642733 0.249861 -8.93964e-21)
(-0.135715 0.159942 0)
(-0.607384 -0.214401 -2.60994e-21)
(-0.167507 0.21107 0)
(-0.67672 0.197118 0)
(-0.574741 -0.264312 3.51609e-22)
(-0.570964 0.292413 0)
(-0.584713 0.290383 4.59935e-21)
(-0.56185 -0.0879451 1.01819e-20)
(-0.57484 -0.109608 -4.78057e-21)
(-0.148766 0.107776 -6.05676e-21)
(-0.142451 0.117038 1.55051e-20)
(-0.150886 0.173841 -7.43302e-22)
(-0.647991 0.237073 8.7455e-21)
(-0.58944 -0.21789 0)
(-0.424188 0.152789 -2.38289e-23)
(-0.332789 0.156039 7.39317e-21)
(-0.35078 0.078684 0)
(-0.322838 0.256896 0)
(-0.561676 0.144494 -4.94754e-21)
(-0.345509 -0.05655 0)
(-0.376054 0.284228 1.48098e-20)
(-0.290371 -0.0321439 0)
(-0.54915 0.10492 -1.88636e-20)
(-0.565225 0.288226 0)
(-0.0340126 0.0728047 0)
(-0.702449 -0.282905 -3.79428e-21)
(-0.496233 0.240785 1.38643e-20)
(-0.44903 0.00828451 3.63911e-21)
(-0.223508 0.115755 1.19384e-20)
(-0.573537 0.321949 5.81237e-21)
(-0.565423 0.310528 -1.09137e-20)
(-0.612492 -0.0997451 -8.63455e-21)
(-0.122055 0.0848751 6.96455e-21)
(-0.582055 -0.0833901 5.26022e-21)
(-0.136215 0.0905499 -6.50767e-21)
(-0.596596 0.306256 -5.04413e-21)
(-0.726242 -0.252515 -5.30517e-21)
(-0.0519472 0.0856767 -3.64937e-21)
(-0.543915 0.287129 0)
(-0.525176 -0.0514637 -6.71077e-21)
(-0.16751 0.0985479 1.40281e-20)
(-0.430707 0.280414 0)
(-0.238058 0.0261408 -1.12524e-20)
(-0.509918 0.0669349 4.99765e-22)
(-0.182619 0.220909 0)
(-0.672022 0.193057 0)
(-0.557864 -0.245429 0)
(-0.609781 0.279388 0)
(-0.596389 -0.151562 -1.33583e-20)
(-0.137807 0.133243 -1.66858e-20)
(-0.478284 0.265351 0)
(-0.47861 0.0269296 0)
(-0.215494 0.077541 0)
(-0.538499 0.197306 0)
(-0.403708 -0.0362906 0)
(-0.263815 0.186468 0)
(-0.364119 0.284842 0)
(-0.308295 -0.0476718 0)
(-0.560983 0.113946 1.01646e-20)
(-0.325898 0.247557 -1.55059e-21)
(-0.55089 0.146745 -1.05258e-20)
(-0.344602 -0.0436533 1.22644e-20)
(-0.596483 0.238461 1.16101e-20)
(-0.508806 -0.115467 0)
(-0.191438 0.165307 3.61616e-20)
(-0.312717 0.207796 0)
(-0.513438 0.161498 1.1256e-20)
(-0.349581 -0.00564568 -3.08467e-21)
(-0.39335 -0.119635 0)
(-0.610449 0.147373 1.15179e-20)
(-0.424004 -0.136091 0)
(-0.619489 0.162569 6.63919e-21)
(-0.302928 0.275497 0)
(-0.278542 0.260246 0)
(-0.55336 0.174295 1.44237e-21)
(-0.383348 -0.0526122 6.48364e-21)
(-0.28456 0.212772 -6.79788e-21)
(-0.619103 0.290965 -6.01521e-21)
(-0.0687317 0.103539 0)
(-0.700413 -0.254453 -6.57393e-21)
(-0.577448 0.297467 -4.60697e-21)
(-0.0390063 0.0763435 -1.67238e-21)
(-0.720353 -0.271226 0)
(-0.608711 0.289082 -6.95148e-21)
(-0.6141 -0.156142 0)
(-0.124921 0.123086 1.89817e-20)
(-0.451262 0.3199 0)
(-0.5516 0.0487644 2.668e-21)
(-0.219134 0.000931065 6.62721e-21)
(-0.543643 0.165574 9.55952e-21)
(-0.299922 0.222847 3.24619e-21)
(-0.365051 -0.0380462 0)
(-0.0879628 0.127322 0)
(-0.668601 -0.259293 0)
(-0.638532 0.268903 5.13692e-21)
(-0.437758 0.306663 0)
(-0.538657 0.0618429 -5.7174e-21)
(-0.231801 0.00620253 1.70828e-21)
(-0.312094 0.217983 0)
(-0.522376 0.156953 0)
(-0.344092 -0.0168645 0)
(-0.523462 0.18962 4.69585e-21)
(-0.390639 -0.0221139 0)
(-0.271664 0.181811 0)
(-0.474553 -0.0346633 -4.66885e-23)
(-0.202072 0.126783 -8.09213e-21)
(-0.535655 0.275403 1.46418e-20)
(-0.506381 -0.0381189 0)
(-0.180886 0.105024 -1.75784e-20)
(-0.633033 0.275617 -9.13893e-21)
(-0.109304 0.132415 1.20325e-20)
(-0.649009 -0.216372 -1.27253e-20)
(-0.177008 0.204354 1.09564e-20)
(-0.658042 0.211248 5.36448e-21)
(-0.560891 -0.223198 1.30516e-20)
(-0.664282 0.223018 -1.53871e-20)
(-0.600949 -0.248583 0)
(-0.144535 0.183546 -1.07813e-20)
(-0.308235 -0.0925053 -7.29966e-22)
(-0.607563 0.0923798 4.57693e-21)
(-0.384272 0.33853 0)
(-0.513537 0.217976 -2.13307e-20)
(-0.553513 0.384619 6.17786e-21)
(-0.0960006 0.0292462 -7.32081e-21)
(-0.704904 -0.0950806 0)
(-0.618839 -0.261867 0)
(-0.661134 0.232472 -1.41886e-20)
(-0.128074 0.168289 0)
(-0.428376 0.170183 -1.70423e-20)
(-0.313167 0.143163 -6.02026e-21)
(-0.369355 0.0733329 1.73965e-20)
(-0.50199 0.276126 0)
(-0.489618 0.00138612 -3.64142e-22)
(-0.199759 0.0888272 -6.72431e-21)
(-0.185905 0.216712 8.38044e-21)
(-0.664572 0.200768 0)
(-0.552165 -0.231561 -1.50336e-20)
(-0.528544 0.227163 1.71259e-20)
(-0.460957 -0.0364243 1.56911e-20)
(-0.213142 0.138082 0)
(-0.0555066 0.0963577 0)
(-0.695645 -0.281114 5.69752e-21)
(-0.609946 0.282215 0)
(-0.365607 0.327386 0)
(-0.61232 0.101768 0)
(-0.328917 -0.107778 0)
(-0.65797 0.223814 1.35062e-20)
(-0.586524 -0.232125 0)
(-0.153782 0.184622 -4.93526e-24)
(-0.586034 0.169681 4.2694e-21)
(-0.399808 -0.0939587 -5.01722e-21)
(-0.279071 0.23619 0)
(-0.539462 0.299085 0)
(-0.536023 -0.0460751 6.26493e-21)
(-0.161618 0.0874798 1.10666e-20)
(-0.496314 -0.215853 -1.86013e-20)
(-0.665906 0.165868 -9.62447e-21)
(-0.238265 0.263181 6.60394e-21)
(-0.634804 0.16077 0)
(-0.44254 -0.158735 -7.26334e-21)
(-0.271428 0.265464 -2.36222e-22)
(-0.0547323 0.0988381 -1.07222e-20)
(-0.680219 -0.292458 0)
(-0.6123 0.269779 -5.54108e-21)
(-0.405643 0.304604 7.91286e-21)
(-0.264536 -0.0243428 -8.27246e-21)
(-0.553676 0.0839837 8.36537e-22)
(-0.522602 0.30855 5.05614e-21)
(-0.022277 0.0543386 -1.57229e-20)
(-0.730613 -0.247435 0)
(-0.335896 0.17633 -3.49969e-21)
(-0.44647 0.147102 -1.32688e-20)
(-0.335814 0.0589917 1.74864e-20)
(-0.579799 0.194693 5.1905e-21)
(-0.575199 0.178497 3.18487e-23)
(-0.429039 -0.0887845 -1.20882e-20)
(-0.402319 -0.0807902 0)
(-0.272963 0.222955 6.17942e-21)
(-0.248327 0.205488 -6.42269e-21)
(-0.0810213 0.044044 -1.55506e-20)
(-0.564468 0.372145 6.44027e-21)
(-0.716682 -0.116853 -1.13084e-20)
(-0.52506 0.301328 0)
(-0.531857 -0.0252108 0)
(-0.170845 0.0772377 -1.45869e-20)
(-0.643837 0.171656 -2.49647e-21)
(-0.46934 -0.178793 0)
(-0.251826 0.255083 0)
(-0.591913 0.302697 -5.63623e-21)
(-0.607629 -0.125726 0)
(-0.124753 0.106914 6.94605e-21)
(-0.38085 0.150154 3.60009e-21)
(-0.374619 0.116512 5.26e-21)
(-0.345263 0.127358 -1.79905e-21)
(-0.607869 0.175047 -8.48033e-21)
(-0.429505 -0.123491 0)
(-0.26498 0.240772 -1.08332e-20)
(-0.523635 0.312874 0)
(-0.547512 -0.0248738 7.82871e-21)
(-0.163698 0.0658491 -9.43582e-21)
(-0.531553 0.243722 0)
(-0.545546 0.250278 1.72014e-21)
(-0.407234 0.314324 2.8804e-21)
(-0.264597 -0.0349857 2.40162e-20)
(-0.564197 0.082314 -2.01426e-20)
(-0.614408 0.187518 -8.79219e-21)
(-0.45393 -0.137071 1.05956e-20)
(-0.243407 0.226025 9.88779e-21)
(-0.600958 0.300617 0)
(-0.119108 0.112365 -2.44324e-20)
(-0.620574 -0.143266 -6.68243e-21)
(-0.379251 0.272152 -2.0442e-20)
(-0.287166 -0.0195298 0)
(-0.536044 0.107875 6.3676e-21)
(-0.310777 0.290644 -1.26598e-20)
(-0.619685 0.138562 -6.65075e-21)
(-0.390195 -0.131726 0)
(-0.549902 0.335579 -5.58195e-21)
(-0.603197 -0.0639962 -6.95606e-21)
(-0.129048 0.0614922 4.33898e-21)
(-0.387682 0.314724 1.04114e-21)
(-0.292377 -0.0592154 0)
(-0.579528 0.0968906 1.38796e-20)
(-0.558961 0.341736 0)
(-0.568336 0.336054 0)
(-0.62438 -0.0787263 -4.52887e-21)
(-0.119384 0.0627972 -1.12779e-20)
(-0.629544 -0.0956446 6.40907e-21)
(-0.114757 0.0730775 1.1997e-20)
(-0.0902765 0.122361 -9.37157e-21)
(-0.67346 -0.24305 0)
(-0.633385 0.279074 -6.76185e-21)
(-0.553123 0.311577 6.44638e-21)
(-0.56769 -0.0667282 0)
(-0.143286 0.0831943 3.81985e-21)
(-0.645306 -0.279881 1.0932e-20)
(-0.0184667 0.054453 1.37694e-20)
(-0.502994 0.267751 1.32694e-20)
(-0.488329 0.148375 -6.1132e-21)
(-0.330703 0.203183 0)
(-0.331636 0.0207316 0)
(-0.57211 0.226407 1.16533e-20)
(-0.467254 -0.0801385 0)
(-0.214573 0.169643 2.11792e-20)
(-0.116521 0.130496 -7.61867e-21)
(-0.626763 0.278717 1.86218e-20)
(-0.634204 -0.195596 9.5305e-21)
(-0.34256 -0.1021 0)
(-0.604291 0.116604 6.04127e-21)
(-0.346304 0.308573 -1.5267e-20)
(-0.516366 -0.222762 -2.28317e-20)
(-0.666212 0.17799 -5.96884e-21)
(-0.217834 0.245293 0)
(-0.433369 -0.0141031 -1.5685e-20)
(-0.233121 0.143643 0)
(-0.571757 0.257008 1.28634e-20)
(-0.504564 -0.0813309 5.75631e-21)
(-0.183058 0.13773 6.47118e-21)
(-0.421207 -0.0202983 9.22696e-21)
(-0.2427 0.155245 6.55857e-23)
(-0.583447 0.346426 -4.46544e-22)
(-0.0692535 0.0672382 9.14082e-21)
(-0.723909 -0.163999 -6.80405e-21)
(-0.297564 -0.100032 0)
(-0.617451 0.0819862 1.47072e-21)
(-0.398386 0.353577 0)
(-0.582732 0.262001 -1.30994e-20)
(-0.526513 -0.0972599 -7.02943e-21)
(-0.172955 0.141021 -7.95681e-21)
(-0.548011 0.190368 0)
(-0.398059 -0.048919 -9.42345e-21)
(-0.268091 0.1977 0)
(-0.565904 0.130078 0)
(-0.33047 -0.0603502 0)
(-0.342166 0.270699 0)
(-0.468135 0.220631 -4.81126e-21)
(-0.420687 0.0352372 -8.58606e-21)
(-0.252578 0.118703 3.36019e-23)
(-0.328776 0.302662 1.57099e-20)
(-0.616023 0.12756 1.62848e-20)
(-0.370961 -0.121688 1.03291e-20)
(-0.644787 0.257262 -8.27954e-21)
(-0.632154 -0.22996 1.084e-20)
(-0.119326 0.147583 -1.13737e-20)
(-0.523567 -0.214465 1.54201e-20)
(-0.660475 0.188606 6.04968e-21)
(-0.208542 0.232679 8.33424e-21)
(-0.488674 0.374104 -1.1756e-20)
(-0.181832 -0.0155257 1.28098e-20)
(-0.613499 0.0102899 -9.76517e-21)
(-0.561846 0.360993 3.488e-21)
(-0.556193 0.357854 -3.12244e-21)
(-0.648871 -0.0801294 -1.44655e-21)
(-0.668946 -0.0926113 0)
(-0.102131 0.0489393 -4.16438e-21)
(-0.111522 0.0477584 -3.65373e-21)
(-0.0207732 0.0547941 -1.86328e-20)
(-0.674477 -0.270281 -1.20382e-20)
(-0.512498 0.278742 3.16864e-21)
(-0.532831 0.316467 -3.16302e-22)
(-0.0254683 0.0555958 2.17533e-20)
(-0.746789 -0.241673 0)
(-0.594064 0.201317 -1.89874e-20)
(-0.452803 -0.105244 -2.7348e-21)
(-0.238661 0.205725 0)
(-0.0980668 0.122599 -2.31689e-20)
(-0.629893 0.281783 6.72085e-21)
(-0.665558 -0.222799 0)
(-0.523353 0.358845 1.68164e-20)
(-0.534843 0.356999 -1.26302e-20)
(-0.610349 -0.0306668 7.47371e-21)
(-0.618168 -0.0449847 2.85162e-21)
(-0.146442 0.0255263 -7.21441e-21)
(-0.134368 0.036232 -3.61478e-21)
(-0.111258 0.161137 0)
(-0.620876 -0.289843 0)
(-0.664926 0.220605 2.57813e-21)
(-0.491186 0.304647 -5.93845e-21)
(-0.0170888 0.0463203 0)
(-0.718693 -0.238064 0)
(-0.417846 0.11802 -4.10508e-23)
(-0.374566 0.181772 7.69829e-21)
(-0.315882 0.0884562 3.87953e-21)
(-0.53636 0.291919 -1.06861e-20)
(-0.705513 -0.271583 5.55123e-21)
(-0.026042 0.0616816 1.01913e-21)
(-0.473606 0.320583 0)
(-0.548211 0.0289273 -1.22977e-20)
(-0.198642 0.0200171 1.87563e-24)
(-0.644801 0.261094 5.62574e-23)
(-0.657722 -0.260449 1.56433e-20)
(-0.0989865 0.136506 1.09525e-24)
(-0.567767 -0.296128 3.31871e-22)
(-0.019104 0.0541575 -7.94031e-21)
(-0.486897 0.214477 -5.34734e-21)
(-0.396705 0.258822 -7.37818e-21)
(-0.269155 0.0210216 7.17391e-21)
(-0.501726 0.0964515 1.99452e-20)
(-0.464493 0.160186 0)
(-0.347857 0.0419005 -1.93843e-20)
(-0.318419 0.176777 9.92842e-21)
(-0.586916 0.317356 0)
(-0.0472696 0.0788794 1.08901e-20)
(-0.738151 -0.242303 -1.76438e-24)
(-0.478203 0.161991 0)
(-0.345494 0.0290521 -6.83973e-21)
(-0.313396 0.186792 -1.40229e-20)
(-0.405316 0.122954 7.91038e-21)
(-0.370218 0.169183 -4.09158e-21)
(-0.327872 0.0987697 2.04044e-21)
(-0.35421 0.332744 7.60523e-21)
(-0.628455 0.107435 -5.83508e-21)
(-0.353092 -0.132159 1.1423e-20)
(-0.466913 0.12675 0)
(-0.306663 0.0440768 0)
(-0.357912 0.213189 1.15517e-21)
(-0.484095 0.140356 9.67599e-21)
(-0.319631 0.029918 5.28146e-21)
(-0.346154 0.213872 1.64134e-22)
(-0.475032 0.370009 1.78315e-20)
(-0.607616 0.0225788 -9.64753e-21)
(-0.198947 -0.0290161 -1.26402e-20)
(-0.0657022 0.0891402 1.64031e-20)
(-0.0681739 0.0944729 -1.6637e-20)
(-0.721398 -0.215794 4.61452e-21)
(-0.71178 -0.227123 3.20512e-21)
(-0.602092 0.320329 0)
(-0.608719 0.311526 -5.99815e-21)
(-0.649807 0.253676 1.0152e-20)
(-0.639034 -0.243585 -9.73031e-21)
(-0.113664 0.150384 1.40701e-20)
(-0.171242 -0.02069 -8.21288e-21)
(-0.497009 0.386727 3.68818e-21)
(-0.631302 0.000157964 1.24583e-20)
(-0.418792 0.299267 -7.22543e-21)
(-0.249409 -0.00653622 -7.53454e-21)
(-0.540806 0.0750403 6.29686e-21)
(-0.644178 0.145489 0)
(-0.432875 -0.169605 7.5131e-21)
(-0.287075 0.28659 2.44434e-22)
(-0.602615 -0.318186 5.53479e-21)
(-0.0406728 0.0847084 -7.40431e-21)
(-0.572413 0.219652 -4.52208e-21)
(-0.151997 0.196736 0)
(-0.673331 0.207717 0)
(-0.588639 -0.266836 6.57814e-21)
(-0.593737 0.294274 5.26663e-21)
(-0.0479223 0.0863021 0)
(-0.715084 -0.271543 -5.59125e-21)
(-0.0137274 0.0446042 -2.93501e-32)
(-0.538673 -0.281023 -5.08908e-21)
(-0.447806 0.20482 5.44874e-21)
(-0.57296 -0.242983 5.69482e-21)
(-0.00964507 0.0381562 2.92829e-32)
(-0.427815 0.239824 -4.84243e-21)
(-0.5068 -0.148009 -1.45956e-20)
(-0.620491 0.217565 0)
(-0.206227 0.195753 -2.12842e-20)
(-0.626411 -0.310417 -2.99465e-21)
(-0.0798677 0.131834 -7.55557e-21)
(-0.646751 0.222008 0)
(-0.619528 0.270883 -8.66954e-21)
(-0.595453 -0.167488 8.29544e-21)
(-0.139952 0.142331 1.11109e-20)
(-0.561108 0.353667 1.52773e-20)
(-0.0437611 0.0542736 6.64832e-21)
(-0.777086 -0.186357 0)
(-0.500149 0.225381 3.73146e-21)
(-0.237568 0.134917 -4.04736e-21)
(-0.43145 0.00137223 3.77907e-21)
(-0.612676 -0.283742 3.39917e-21)
(-0.12401 0.173277 7.94907e-21)
(-0.668711 0.216811 2.79132e-21)
(-0.637393 0.138282 -6.63258e-21)
(-0.302086 0.29666 -4.33014e-21)
(-0.413365 -0.156303 0)
(-0.482025 -0.177665 0)
(-0.641005 0.182764 0)
(-0.235416 0.240981 0)
(-0.00282744 0.0169316 0)
(-0.336325 -0.156205 -4.22216e-21)
(-0.259309 0.123591 4.15406e-21)
(-0.632724 -0.296557 5.48031e-21)
(-0.0226589 0.0603344 -9.58374e-21)
(-0.519581 0.254347 -5.50044e-21)
(-0.484875 0.215775 -9.60089e-21)
(-0.252044 0.134823 9.51382e-21)
(-0.415739 0.01749 4.36176e-21)
(-0.642231 -0.280473 1.39169e-20)
(-0.655026 0.241409 -5.70871e-21)
(-0.0978715 0.145044 0)
(-0.105035 0.158804 -8.36581e-21)
(-0.665948 0.215279 0)
(-0.61652 -0.301844 -1.04169e-20)
(-0.620267 0.297521 -6.13106e-21)
(-0.0887264 0.110536 2.48533e-20)
(-0.678834 -0.211445 0)
(-0.0803657 0.0614432 -1.87866e-20)
(-0.704495 -0.135072 7.15229e-21)
(-0.576978 0.35483 0)
(-0.463998 0.379356 -2.23969e-20)
(-0.617947 0.0308418 1.22982e-20)
(-0.216813 -0.0485958 -4.02164e-21)
(-0.644523 -0.0629648 2.16596e-21)
(-0.54399 0.367868 7.34849e-21)
(-0.12135 0.0336734 -1.14117e-20)
(-0.0653146 0.0496594 -1.68907e-20)
(-0.568028 0.366412 0)
(-0.744779 -0.146208 0)
(-0.49209 0.305988 -3.48965e-21)
(-0.507252 0.315848 0)
(-0.52795 0.0116361 -1.27857e-20)
(-0.544809 -0.00460498 1.36629e-20)
(-0.187845 0.0517798 1.91583e-21)
(-0.173824 0.0520946 -2.0428e-21)
(-0.476758 0.308212 3.34945e-21)
(-0.531493 0.0269773 0)
(-0.199321 0.0370195 3.68234e-21)
(-0.515173 0.369293 0)
(-0.618716 -0.0220165 -1.20731e-20)
(-0.151606 0.0119912 2.60375e-21)
(-0.510501 -0.198985 -7.62528e-21)
(-0.652149 0.189519 6.18807e-21)
(-0.215249 0.22966 -1.71615e-20)
(-0.628715 -0.258303 0)
(-0.654684 0.243324 1.55138e-20)
(-0.116943 0.157862 0)
(-0.18789 0.204095 -5.51374e-21)
(-0.649409 0.210989 -4.01244e-21)
(-0.543903 -0.203388 -4.98752e-21)
(-0.612216 -0.245371 -7.80014e-22)
(-0.0109852 0.0409679 5.10845e-21)
(-0.449525 0.258618 0)
(-0.429374 0.260082 6.63676e-21)
(-0.436648 0.251689 0)
(-0.245148 0.0509534 0)
(-0.48264 0.071186 2.43877e-20)
(-0.24529 0.065856 0)
(-0.468779 0.0640117 -1.54832e-20)
(-0.496181 0.355379 0)
(-0.480691 0.345786 0)
(-0.189629 0.00370773 3.15169e-23)
(-0.592457 0.00340169 7.48713e-21)
(-0.175023 0.00976169 1.89926e-20)
(-0.578181 0.0184122 -1.58177e-20)
(-0.55007 -0.307549 0)
(-0.0241282 0.0616792 1.0821e-20)
(-0.507755 0.203443 0)
(-0.643904 -0.272621 -8.2036e-21)
(-0.653988 0.246199 1.72907e-21)
(-0.101202 0.143346 5.00711e-21)
(-0.42338 0.32622 -1.2524e-20)
(-0.252604 -0.0363288 -8.66909e-21)
(-0.572342 0.0693895 2.09243e-20)
(-0.475403 -0.197395 1.65407e-20)
(-0.656908 0.161809 1.60815e-20)
(-0.252236 0.268251 0)
(-0.0857027 0.0560856 2.00882e-20)
(-0.696806 -0.12315 -7.61047e-21)
(-0.572592 0.358689 8.19459e-21)
(-0.671882 -0.299309 0)
(-0.576029 0.267261 0)
(-0.0371916 0.0792957 0)
(-0.669422 -0.300483 0)
(-0.595426 0.261642 4.87527e-21)
(-0.0470707 0.0914399 1.82375e-21)
(-0.538906 0.34466 -6.97449e-21)
(-0.603172 -0.0502739 4.32122e-21)
(-0.13536 0.0491337 5.35054e-21)
(-0.367574 0.260234 -1.93612e-21)
(-0.297907 -0.0126436 0)
(-0.527553 0.119057 -6.64288e-23)
(-0.617139 0.300619 7.14395e-21)
(-0.0794845 0.104677 1.45232e-20)
(-0.695925 -0.222683 -3.73311e-21)
(-0.514179 -0.166071 0)
(-0.630944 0.213761 0)
(-0.203241 0.204757 1.83515e-20)
(-0.104487 0.103248 4.6679e-21)
(-0.648472 -0.157653 1.14476e-20)
(-0.602146 0.311269 1.83943e-20)
(-0.468821 0.346157 0)
(-0.202694 -0.00843944 -1.26745e-20)
(-0.57867 0.0289015 8.07818e-21)
(-0.579533 0.15716 7.01041e-23)
(-0.376977 -0.0812424 7.36465e-21)
(-0.302001 0.249692 0)
(-0.40584 0.281921 9.96378e-23)
(-0.260955 -0.00116856 -2.45783e-21)
(-0.528299 0.0867145 -8.25135e-21)
(-0.0800368 0.111231 8.62099e-24)
(-0.690993 -0.241457 8.84587e-21)
(-0.624055 0.289183 8.09078e-21)
(-0.584728 0.31823 -3.34795e-21)
(-0.625326 -0.119929 -3.36824e-21)
(-0.115816 0.0928285 0)
(-0.403424 0.251111 -7.1978e-21)
(-0.265776 0.0375983 1.54002e-20)
(-0.486855 0.0921944 -1.31402e-20)
(-0.56419 0.365874 5.92389e-21)
(-0.0558735 0.0485416 7.5409e-21)
(-0.763255 -0.159995 -5.38405e-21)
(-0.473081 0.27948 -4.23188e-21)
(-0.494251 0.0288499 0)
(-0.209718 0.0628517 0)
(-0.512838 0.177597 -1.74381e-20)
(-0.368697 -0.00716215 4.25358e-21)
(-0.290682 0.191869 0)
(-0.477883 -0.159148 0)
(-0.629744 0.189479 1.25634e-20)
(-0.232592 0.229639 0)
(-0.547441 0.332376 -3.4051e-21)
(-0.0314982 0.0568963 -2.33687e-21)
(-0.770729 -0.224142 6.11292e-21)
(-0.54645 0.341939 9.39712e-21)
(-0.032457 0.0539704 0)
(-0.779164 -0.209653 -5.86046e-21)
(-0.0970683 0.0924418 4.27994e-21)
(-0.662323 -0.15262 -6.81581e-21)
(-0.596198 0.321813 -1.68663e-20)
(-0.59338 0.144445 -5.86206e-21)
(-0.375369 -0.0983858 -7.39049e-21)
(-0.313315 0.26808 0)
(-0.0242468 0.0511276 2.14107e-21)
(-0.76419 -0.230112 -5.7157e-21)
(-0.524423 0.325356 0)
(-0.131254 0.141867 0)
(-0.611972 -0.186617 -6.98859e-21)
(-0.627021 0.269208 -2.11956e-21)
(-0.0108729 0.0371111 8.62725e-21)
(-0.461263 -0.26524 5.73439e-21)
(-0.399762 0.165878 0)
(-0.364388 0.220672 -5.42411e-21)
(-0.518758 -0.203167 0)
(-0.00553337 0.0282783 8.64017e-21)
(-0.070299 0.0580483 1.45636e-23)
(-0.728967 -0.149351 0)
(-0.574747 0.358728 0)
(-0.0664201 0.106519 0)
(-0.691726 -0.270108 0)
(-0.62227 0.281122 1.09352e-20)
(-0.599532 0.324574 -6.24862e-21)
(-0.60216 0.321506 5.05931e-21)
(-0.0710446 0.0853801 -8.22145e-21)
(-0.714803 -0.194216 -1.51408e-21)
(-0.0798699 0.0904264 -1.32892e-20)
(-0.69538 -0.184475 2.73226e-21)
(-0.634113 0.25686 4.07231e-21)
(-0.600057 -0.193981 4.6131e-21)
(-0.140462 0.154238 0)
(-0.275641 0.28962 0)
(-0.450893 -0.19124 0)
(-0.657156 0.147611 0)
(-0.4356 0.22818 0)
(-0.259684 0.0885955 -2.09535e-20)
(-0.440663 0.0654622 8.50034e-21)
(-0.639476 0.231213 1.15636e-20)
(-0.56057 -0.191467 1.69582e-21)
(-0.169997 0.18221 1.62733e-20)
(-0.185346 0.195044 1.05985e-20)
(-0.640273 0.220918 -1.60745e-20)
(-0.542769 -0.188237 -2.35334e-21)
(-0.56162 0.377016 6.58628e-21)
(-0.0712629 0.04057 8.08634e-21)
(-0.740353 -0.127517 1.18142e-20)
(-0.498924 0.364704 0)
(-0.605481 -0.00110217 3.58694e-21)
(-0.169826 0.00302779 -1.86152e-20)
(-0.484995 0.330837 0)
(-0.561486 0.0172442 1.61503e-20)
(-0.187929 0.0180369 3.03584e-23)
(-0.611053 0.239796 -1.47467e-20)
(-0.52898 -0.139921 2.0466e-21)
(-0.182963 0.169757 -9.21196e-21)
(-0.61982 0.232913 0)
(-0.52968 -0.152353 1.92179e-21)
(-0.186365 0.178747 8.49003e-21)
(-0.392274 0.235871 0)
(-0.278484 0.0460454 -2.43147e-20)
(-0.474019 0.101366 7.34389e-21)
(-0.508456 0.325836 0)
(-0.557976 -0.00886027 0)
(-0.167315 0.0420961 2.78435e-21)
(-0.13573 0.187699 -1.72232e-20)
(-0.597216 -0.285986 -1.85484e-20)
(-0.676308 0.206245 0)
(-0.605621 0.244872 6.7458e-21)
(-0.0512071 0.0977231 0)
(-0.643468 -0.311251 3.98983e-21)
(-0.597474 0.227146 -7.05173e-23)
(-0.0491726 0.0959727 0)
(-0.621379 -0.316427 -1.14549e-20)
(-0.4443 0.295798 5.01007e-21)
(-0.226206 0.0239978 -2.67845e-21)
(-0.522138 0.0552584 -1.08037e-22)
(-0.643046 -0.302763 1.71179e-22)
(-0.0314321 0.0723485 1.46628e-20)
(-0.556048 0.251633 0)
(-0.587858 0.327152 1.44463e-20)
(-0.102407 0.0868091 8.97554e-21)
(-0.652125 -0.133322 0)
(-0.032919 0.0746755 -2.17937e-21)
(-0.605666 -0.314294 -6.17811e-21)
(-0.551827 0.226335 0)
(-0.45299 0.177806 1.18381e-20)
(-0.302215 0.153707 1.25977e-20)
(-0.36986 0.0532164 6.14486e-23)
(-0.549326 0.264882 -2.14593e-21)
(-0.499309 -0.0518371 -2.09497e-21)
(-0.187228 0.122725 -9.50204e-21)
(-0.350867 -0.0859546 1.68242e-20)
(-0.586484 0.132673 1.36442e-20)
(-0.333114 0.278646 0)
(-0.0881181 0.1391 0)
(-0.631434 -0.30231 -3.75316e-21)
(-0.653096 0.227551 0)
(-0.501849 -0.171028 0)
(-0.634661 0.203106 0)
(-0.214095 0.215961 0)
(-0.0522748 0.0565983 0)
(-0.569352 0.355447 -5.62214e-21)
(-0.763968 -0.175376 5.27575e-21)
(-0.563809 0.269042 0)
(-0.515331 -0.0714896 1.03973e-21)
(-0.17705 0.126656 9.29461e-21)
(-0.428364 0.217213 0)
(-0.271638 0.0956711 1.79817e-20)
(-0.429218 0.0721117 0)
(-0.650445 -0.290621 -1.31678e-20)
(-0.646091 0.245587 5.41947e-21)
(-0.08537 0.132769 0)
(-0.112856 0.121086 -9.8049e-21)
(-0.637849 -0.182317 4.44815e-22)
(-0.61731 0.290435 1.34658e-22)
(-0.5691 0.31803 0)
(-0.56106 0.313931 6.44557e-21)
(-0.0377383 0.0691592 -5.36241e-21)
(-0.0338722 0.0673917 -6.60465e-21)
(-0.747831 -0.242606 -3.75112e-21)
(-0.742135 -0.251877 3.08434e-21)
(-0.566406 0.20321 0)
(-0.427626 -0.072698 2.82278e-20)
(-0.24665 0.192778 1.00488e-20)
(-0.482629 -0.130006 2.04716e-20)
(-0.609483 0.210023 0)
(-0.217205 0.199769 -1.11362e-20)
(-0.493894 0.192351 -9.81257e-21)
(-0.384637 0.00905784 7.26495e-21)
(-0.272799 0.164266 1.54563e-20)
(-0.64729 -0.309053 8.72547e-21)
(-0.626471 0.242629 7.16986e-21)
(-0.632194 -0.314043 -4.15697e-21)
(-0.0629869 0.111231 0)
(-0.632314 0.229156 -6.92834e-21)
(-0.0679813 0.117348 0)
(-0.589694 0.278884 0)
(-0.55969 -0.114928 0)
(-0.153568 0.129084 1.0411e-20)
(-0.636902 0.255423 9.74673e-21)
(-0.628472 0.253562 -1.82204e-20)
(-0.66426 -0.289314 5.72271e-21)
(-0.663809 -0.298011 -1.436e-20)
(-0.0743075 0.120533 1.47421e-20)
(-0.0652236 0.111487 2.03378e-24)
(-0.605477 0.201162 0)
(-0.461692 -0.123308 -1.88657e-20)
(-0.235892 0.215119 1.44467e-20)
(-0.542052 0.226228 9.31845e-21)
(-0.460032 -0.0523343 -1.2584e-20)
(-0.213188 0.149955 0)
(-0.563153 0.345385 0)
(-0.0409236 0.0589252 0)
(-0.772175 -0.202846 5.62932e-21)
(-0.563901 0.215658 6.85717e-21)
(-0.44354 -0.0682682 -7.84273e-21)
(-0.232329 0.178882 -1.66799e-20)
(-0.511426 0.203322 3.97379e-21)
(-0.402858 -0.0110001 -8.51602e-21)
(-0.258282 0.163017 9.07062e-21)
(-0.561615 0.327066 0)
(-0.0372594 0.0639792 0)
(-0.762002 -0.231192 -7.74836e-21)
(-0.561404 0.282468 0)
(-0.537385 -0.0718414 2.22722e-21)
(-0.161572 0.111918 -1.03461e-20)
(-0.400722 -0.159132 0)
(-0.642028 0.128131 0)
(-0.31722 0.314031 -5.59903e-22)
(-0.465163 0.355956 -5.70833e-22)
(-0.590664 0.0325427 0)
(-0.20722 -0.022065 1.9726e-20)
(-0.536267 -0.243246 8.95216e-21)
(-0.201251 0.240673 0)
(-0.674974 0.180216 0)
(-0.00579081 0.0264969 -2.07636e-20)
(-0.440312 -0.206932 5.9086e-21)
(-0.341202 0.167546 -5.81522e-21)
(-0.564855 0.241275 0)
(-0.475743 -0.0690927 7.72976e-21)
(-0.20377 0.15213 -8.54239e-21)
(-0.584027 0.335598 1.047e-20)
(-0.0530748 0.0724227 2.784e-20)
(-0.746993 -0.202634 0)
(-0.256027 -0.0737441 -5.27717e-21)
(-0.616506 0.0568059 -8.05477e-21)
(-0.431337 0.368296 -5.06239e-21)
(-0.438724 0.274309 0)
(-0.0104407 0.0381404 -7.76984e-21)
(-0.646862 -0.23252 0)
(-0.337493 0.23141 9.62881e-21)
(-0.343757 0.247243 -9.86117e-21)
(-0.321464 -0.0089695 0)
(-0.517705 0.139322 8.4377e-21)
(-0.319923 -0.0242756 -1.57716e-20)
(-0.5335 0.132533 -6.80114e-21)
(-0.492832 0.178339 9.23331e-21)
(-0.365616 0.0139024 9.60104e-21)
(-0.292453 0.179114 0)
(-0.377493 0.251582 8.50378e-21)
(-0.357883 0.237558 0)
(-0.286162 0.0101439 -8.72072e-21)
(-0.507305 0.110743 7.56541e-21)
(-0.300992 0.0101742 8.78561e-21)
(-0.503245 0.124999 5.02506e-23)
(-0.553156 0.238323 5.92378e-22)
(-0.43732 -0.0419336 -5.46507e-21)
(-0.231672 0.161006 -1.12018e-20)
(-0.546583 0.216849 -1.60323e-20)
(-0.431503 -0.0473193 1.44849e-22)
(-0.239873 0.172409 0)
(-0.0585937 0.108406 0)
(-0.61251 -0.321833 0)
(-0.617264 0.218604 7.59256e-21)
(-0.461832 0.296188 -4.62223e-21)
(-0.51852 0.0417113 0)
(-0.212979 0.0375497 4.96317e-21)
(-0.63335 0.268605 -1.73521e-20)
(-0.675208 -0.275115 6.60262e-21)
(-0.0752589 0.11809 -8.40799e-21)
(-0.61073 0.254262 0)
(-0.618878 0.258216 8.35086e-21)
(-0.552939 -0.143541 -2.55e-21)
(-0.572751 -0.159517 8.16158e-21)
(-0.164332 0.155771 -1.15085e-20)
(-0.154071 0.153541 -1.07303e-20)
(-0.460683 0.281583 0)
(-0.500385 0.0417812 0)
(-0.218041 0.0513065 2.33052e-21)
(-0.517693 0.347091 5.55821e-21)
(-0.590162 -0.0209419 0)
(-0.155525 0.031547 6.20658e-21)
(-0.590507 0.254117 -4.23288e-21)
(-0.522768 -0.110766 0)
(-0.176857 0.151946 0)
(-0.396744 0.19116 9.31316e-21)
(-0.415559 0.0991484 -4.54814e-21)
(-0.30015 0.0957325 4.83374e-21)
(-0.629444 0.239662 0)
(-0.557311 -0.173736 0)
(-0.169368 0.173879 -1.73007e-20)
(-0.422381 0.23461 0)
(-0.260937 0.0719161 2.66194e-21)
(-0.454543 0.0765652 0)
(-0.598587 0.216508 -9.36613e-21)
(-0.474805 -0.11643 -1.05111e-20)
(-0.219785 0.191906 -1.43946e-21)
(-0.521446 0.333618 5.62424e-21)
(-0.575087 -0.025217 0)
(-0.155054 0.0442057 1.27453e-20)
(-0.403607 0.206546 -9.23255e-21)
(-0.393229 0.211276 -4.13784e-21)
(-0.42948 0.0916098 4.46331e-21)
(-0.286454 0.0863887 -9.54985e-21)
(-0.443633 0.0993343 0)
(-0.287173 0.07201 -1.70711e-20)
(-0.373807 0.226003 -4.20342e-21)
(-0.291761 0.037315 1.13607e-20)
(-0.360164 0.229447 2.70636e-21)
(-0.476491 0.114127 -1.0184e-20)
(-0.304831 0.020036 -5.45248e-21)
(-0.493552 0.126446 1.56955e-22)
(-0.491017 0.292788 5.0141e-21)
(-0.507823 0.290868 0)
(-0.510416 0.0113907 9.44569e-21)
(-0.511277 -0.00444373 -7.37022e-21)
(-0.193129 0.0644032 -1.10482e-20)
(-0.185965 0.0774063 1.83817e-20)
(-0.0857125 0.0719255 0)
(-0.687525 -0.139351 -4.19358e-21)
(-0.583138 0.34283 -8.76933e-21)
(-0.333632 0.316609 6.77743e-21)
(-0.629312 0.121298 9.19955e-21)
(-0.376475 -0.138429 -1.79413e-20)
(-0.0788665 0.0754593 -9.35954e-21)
(-0.0838377 0.0850006 7.48503e-21)
(-0.700156 -0.158356 3.625e-21)
(-0.687272 -0.166355 6.22716e-21)
(-0.588173 0.340034 2.25076e-20)
(-0.596199 0.328733 -1.17296e-20)
(-0.393305 0.329528 9.22623e-21)
(-0.291255 -0.0706353 -8.31791e-21)
(-0.592078 0.0892624 1.98699e-21)
(-0.38993 0.164064 1.56471e-20)
(-0.327534 0.119566 0)
(-0.385382 0.10787 -1.5578e-20)
(-0.628034 0.251084 -4.03598e-21)
(-0.576408 -0.176241 -9.21472e-21)
(-0.15529 0.161633 0)
(-0.440706 0.271615 0)
(-0.232898 0.0432177 -2.22177e-21)
(-0.4949 0.0602125 -7.90909e-21)
(-0.530589 0.333236 0)
(-0.580012 -0.0362088 0)
(-0.147575 0.0520753 -1.18761e-20)
(-0.570413 0.352833 -9.33971e-21)
(-0.574184 0.342612 0)
(-0.671143 -0.109539 2.2118e-21)
(-0.0974024 0.0602539 -1.13869e-20)
(-0.656117 -0.110424 -6.03011e-21)