/*--------------------------------*- C++ -*----------------------------------*\
  =========                 |
  \\      /  F ield         | OpenFOAM: The Open Source CFD Toolbox
   \\    /   O peration     | Website:  https://openfoam.org
    \\  /    A nd           | Version:  6
     \\/     M anipulation  |
\*---------------------------------------------------------------------------*/
FoamFile
{
    version     2.0;
    format      ascii;
    class       volScalarField;
    location    "0";
    object      P_rec;
}
// * * * * * * * * * * * * * * * * * * * * * * * * * * * * * * * * * * * * * //

dimensions      [0 2 -2 0 0 0 0];

internalField   nonuniform List<scalar> 
13046
(
0.904386
0.858396
0.853263
0.916469
0.874947
0.850828
0.905854
0.846617
0.869992
0.731817
0.334201
0.812245
0.910894
0.800625
0.844223
0.776087
0.793827
0.41074
0.903485
0.867393
0.898273
0.769456
0.800338
0.399456
0.90731
0.880797
0.859607
0.897913
0.800569
0.837953
0.910859
0.839407
0.84225
0.908653
0.876488
0.879085
0.905449
0.882906
0.884416
0.889984
0.826255
0.858176
0.892509
0.900843
0.892232
0.904551
0.887962
0.88046
0.899819
0.84634
0.855319
0.777634
0.871521
0.831092
0.778326
0.827606
0.870586
0.628415
0.855262
0.785065
0.879114
0.724568
0.847
0.814588
0.520644
0.817487
0.858559
0.650691
0.779457
0.866836
0.677386
0.780933
0.587162
0.845352
0.783978
0.902331
0.870946
0.890104
0.790274
0.83056
0.550598
0.907118
0.868729
0.858906
0.810591
0.478664
0.796
0.800523
0.830938
0.53392
0.838277
0.758362
0.514765
0.875218
0.8661
0.692525
0.66428
0.820065
0.823441
0.834719
0.801554
0.552025
0.910895
0.889418
0.871878
0.876718
0.856938
0.795079
0.87842
0.809481
0.854545
0.633179
0.81355
0.184923
0.911823
0.822444
0.844986
0.861905
0.871736
0.643248
0.807635
0.683021
0.81088
0.712757
0.294838
0.81063
0.897146
0.737509
0.831191
0.892466
0.82667
0.848327
0.839994
0.770613
0.552361
0.850278
0.614354
0.826121
0.908697
0.822224
0.834324
0.896874
0.809898
0.861293
0.871901
0.79582
0.859591
0.878004
0.875227
0.814461
0.877692
0.697697
0.844939
0.884594
0.887905
0.832011
0.742573
0.835475
0.724434
0.834763
0.861703
0.858863
0.895325
0.78545
0.868518
0.721806
0.8166
0.343373
0.667416
0.812224
0.220752
0.844207
0.586991
0.821046
0.890159
0.802757
0.809569
0.895536
0.872915
0.79769
0.8231
0.393916
0.739729
0.889282
0.822959
0.808184
0.882046
0.876666
0.817816
0.900772
0.820074
0.864023
0.778969
0.849672
0.898777
0.763387
0.831535
0.791627
0.823609
0.488458
0.839383
0.796002
0.570992
0.761549
0.497174
0.835744
0.758916
0.800155
0.863405
0.903519
0.835689
0.782127
0.555593
0.461201
0.759636
0.833002
0.90425
0.88457
0.876587
0.899028
0.815684
0.832676
0.840796
0.78415
0.574094
0.900017
0.786159
0.854476
0.818438
0.272758
0.672238
0.861796
0.80407
0.7459
0.780956
0.53534
0.836336
0.857085
0.755077
0.864798
0.88736
0.741052
0.828902
0.63541
0.791311
0.844435
0.822928
0.701007
0.853365
0.821611
0.261787
0.652184
0.886074
0.808373
0.834971
0.649159
0.805233
0.145135
0.893456
0.907691
0.862274
0.873378
0.870049
0.755888
0.769476
0.865517
0.856941
0.783607
0.820961
0.514881
0.89228
0.766331
0.821049
0.821526
0.67285
0.850643
0.851398
0.624305
0.815013
0.894263
0.888472
0.897358
0.8511
0.731091
0.859012
0.892666
0.751986
0.81653
0.899565
0.89994
0.885566
0.79706
0.815749
0.850834
0.710966
0.854585
0.835028
0.814193
0.595785
0.889455
0.813811
0.849203
0.861166
0.817006
0.729883
0.866729
0.673669
0.79939
0.874272
0.782703
0.819778
0.855242
0.856188
0.643669
0.797538
0.628446
0.802904
0.819501
0.418818
0.753672
0.874708
0.709165
0.812473
0.0880048
0.813912
0.571298
0.904925
0.886704
0.829189
0.88818
0.748503
0.847705
0.823258
0.80711
0.527286
0.763821
0.815601
0.867734
0.6093
0.790154
0.842781
0.814856
0.853047
0.876862
0.738001
0.838091
0.803781
0.863083
0.796438
0.794543
0.450732
0.764478
0.777694
0.865373
0.869913
0.714246
0.831847
0.886866
0.794764
0.866311
0.853642
0.784984
0.874534
0.911022
0.846483
0.861893
0.859255
0.820463
0.740555
0.77643
0.489574
0.828047
0.612596
0.790471
0.844292
0.863392
0.780753
0.722591
0.84302
0.849727
0.621881
0.587803
0.786927
0.791113
0.812153
0.108082
0.598115
0.667701
0.803508
0.171918
0.870915
0.740329
0.852587
0.821484
0.78337
0.455554
0.865302
0.867288
0.698337
0.677684
0.795847
0.793009
0.833523
0.3996
0.710077
0.634582
0.804114
0.108311
0.888583
0.90342
0.876304
0.630485
0.150107
0.811764
0.89195
0.792191
0.804899
0.74842
0.41157
0.825796
0.0925936
0.823403
0.514188
0.891578
0.830623
0.872643
0.90597
0.867922
0.881561
0.713416
0.807539
0.287182
0.901317
0.851774
0.879602
0.891318
0.901467
0.88433
0.863324
0.791413
0.73966
0.892574
0.860628
0.893222
0.905874
0.830647
0.891374
0.866354
0.741499
0.778609
0.804362
0.810747
0.393016
0.385917
0.760441
0.75572
0.752876
0.461597
0.827197
0.784219
0.862576
0.69421
0.883827
0.805664
0.838658
0.809114
0.692651
0.849695
0.186052
0.827061
0.561814
0.836162
0.752664
0.48826
0.68321
0.813852
0.259082
0.823713
0.0624774
0.50426
0.0273561
0.816856
0.536575
0.683553
0.851054
0.844318
0.309704
0.832129
0.648152
0.835372
0.599744
0.828464
0.753341
0.787777
0.325458
0.908356
0.85232
0.835477
0.432393
0.834309
0.730119
0.810169
0.851754
0.70796
0.661991
0.822752
0.849713
0.823697
-0.05901
0.433365
0.112962
0.818101
0.554809
0.911919
0.864094
0.843245
0.38458
0.70323
0.829979
0.833265
0.681331
0.372893
0.777659
0.813922
0.452391
0.790779
0.51091
0.814568
0.871467
0.740347
0.777415
0.641056
0.857996
0.793315
0.787373
0.801787
0.441366
0.89346
0.890757
0.791788
0.767833
0.817137
0.817367
0.8928
0.804185
0.814217
0.871896
0.69627
0.793893
0.634845
0.80625
0.845679
0.450715
0.756203
0.829533
0.84157
0.811164
0.607518
0.0397861
0.814421
0.561138
0.904387
0.904815
0.841815
0.857935
0.849811
0.860277
0.883515
0.873016
0.79779
0.739942
0.795138
0.771391
0.114576
0.825367
0.514256
0.402746
0.718626
0.829314
0.874864
0.784664
0.807152
0.659817
0.798915
0.848129
0.789219
0.534343
0.823319
0.187817
0.613799
0.820415
0.222415
0.628061
0.822059
0.872548
0.69061
0.802588
0.890105
0.812172
0.862541
0.768049
0.813188
0.415209
0.66258
0.835773
0.844918
0.81392
0.554031
0.829572
0.873706
0.798084
0.781302
0.86168
0.766953
0.867002
0.888262
0.817789
0.851079
0.816456
0.394721
0.751144
0.85056
0.616275
0.808359
0.898836
0.839238
0.870686
0.784409
0.784588
0.396754
0.896262
0.828798
0.832974
0.899508
0.821965
0.877279
0.683364
0.837167
0.850669
0.705199
0.796963
0.227991
0.719993
0.793301
0.248498
0.80855
0.544502
0.828127
0.848619
0.766602
0.863602
0.796156
0.178539
0.678659
0.827485
0.56122
0.823681
0.824452
0.0393931
0.471926
0.51725
-0.00642013
0.814136
0.792034
0.462366
0.806839
0.819424
0.322131
0.702314
0.783295
0.795778
0.802777
0.426803
0.805529
0.467573
0.812722
0.566879
0.830521
0.852663
0.674899
0.788837
0.913093
0.855519
0.860788
0.824175
0.600169
0.838907
0.841757
0.830447
0.620315
0.811343
0.784026
0.46849
0.879203
0.718375
0.791869
0.884727
0.772107
0.797975
0.853987
0.675712
0.839366
0.848608
0.662593
0.841638
0.900926
0.838643
0.880537
0.888955
0.756083
0.816413
0.835123
0.443033
0.721005
0.611274
0.825624
0.228261
0.5906
0.828597
0.220238
0.892371
0.821621
0.832287
0.154898
0.822278
0.577316
0.840053
0.806291
0.574674
0.824151
0.160345
0.552562
0.914182
0.881869
0.858661
0.894717
0.763593
0.838523
0.771955
0.844569
0.868062
0.8323
0.335168
0.671454
0.661053
0.837267
0.847474
0.788591
0.772246
0.374399
0.883723
0.741961
0.835319
0.913513
0.862809
0.86729
0.344378
0.690376
0.828026
0.819403
0.540281
0.821002
0.697527
0.677854
0.804283
0.806071
0.245575
0.213034
0.883468
0.773611
0.861437
0.705352
0.858583
0.847152
0.898212
0.836895
0.872292
0.272838
0.637375
0.279562
0.826303
0.636642
0.829255
0.869313
0.675715
0.831338
0.687304
0.662039
0.322962
0.288947
0.826045
0.826313
0.8552
0.723301
0.854909
0.893676
0.779332
0.848096
0.740325
0.793325
0.303639
0.895461
0.764308
0.858121
0.903511
0.816785
0.865711
0.710094
0.798243
0.255003
0.886821
0.718074
0.825304
0.715342
0.792504
0.853803
0.875016
0.764174
0.790397
0.572702
0.84004
0.767864
0.821514
-0.0291252
0.460175
0.884466
0.756719
0.844642
0.755324
0.79865
0.355444
0.77227
0.7592
0.868062
0.575231
0.807002
0.0526858
0.884312
0.880265
0.819431
0.878361
0.814764
0.877137
0.904216
0.833072
0.878719
0.888057
0.889601
0.825558
0.879742
0.839899
0.878614
0.889609
0.790256
0.859984
0.89801
0.789939
0.86209
0.829453
0.244996
0.599588
0.89445
0.82261
0.816292
0.709334
0.346086
0.822424
0.850744
0.841374
0.654344
0.622256
0.833925
0.831336
0.893367
0.841062
0.826302
0.87339
0.722268
0.797022
0.869714
0.699397
0.839278
0.905881
0.883953
0.866661
0.837879
0.623918
0.838184
0.906296
0.844706
0.870358
0.868102
0.724913
0.852366
0.875497
0.737321
0.799669
0.903585
0.901535
0.88125
0.866847
0.886984
0.859761
0.896098
0.834646
0.893883
0.88848
0.852783
0.884824
0.897274
0.898709
0.80278
0.792507
0.825361
0.821245
0.795459
0.524986
0.824635
0.856169
0.803889
0.732222
0.799938
0.803667
0.489519
0.499717
0.810817
0.810003
0.870957
0.781331
0.807734
0.90449
0.883427
0.887951
0.835184
0.604029
0.834399
0.902192
0.831454
0.841902
0.874853
0.722281
0.801737
0.843791
0.847263
0.574747
0.79632
0.589263
0.799356
0.857174
0.651695
0.828317
0.599909
0.0888334
0.807179
0.769096
0.778545
0.866785
0.867542
0.871103
0.775627
0.759841
0.786524
0.778084
0.820174
0.631538
0.844624
0.873373
0.744128
0.800334
0.8753
0.777761
0.795636
0.871781
0.882749
0.791757
0.805907
0.803327
0.797313
0.870532
0.792723
0.783113
0.860164
0.666301
0.833979
0.902968
0.847718
0.880604
0.728526
0.803179
0.310592
0.873786
0.777714
0.780739
0.883233
0.877521
0.724953
0.702205
0.804455
0.809695
0.802032
0.352053
0.750455
0.745419
0.797396
0.320422
0.72764
0.799402
0.290896
0.838783
0.800759
0.564609
0.878823
0.765073
0.80659
0.332293
0.473055
0.70125
0.337091
0.635427
0.166988
0.565992
0.427495
0.275844
0.630315
0.627818
0.244985
0.333768
0.620925
0.470706
0.334692
0.371245
0.434238
0.475035
0.588975
0.509223
0.422068
0.649655
0.784452
0.718413
0.478477
0.650442
0.261191
0.529611
0.326533
0.276736
0.565129
0.48804
0.496137
0.314654
0.508438
0.698633
0.644109
0.387927
0.506641
0.394045
0.807183
0.340271
0.621272
0.660076
0.426423
0.434721
0.366833
0.253433
0.341694
0.724764
0.517925
0.336905
0.411747
0.272334
0.72028
0.588737
0.496687
0.358553
0.610091
0.336874
0.350251
0.720859
0.447588
0.497455
0.592432
0.520822
0.759093
0.646482
0.614298
0.221553
0.26769
0.392838
0.609021
0.253801
0.49654
0.463299
0.307421
0.595238
0.678411
0.432458
0.488833
0.259897
0.319477
0.418642
0.605524
0.420681
0.368028
0.462365
0.72518
0.337275
0.614247
0.714956
0.501111
0.336179
0.116104
0.313561
0.372262
0.334619
0.218876
0.547013
0.654104
0.670671
0.763571
0.325506
0.350279
0.258192
0.349293
0.31612
0.696411
0.660503
0.590092
0.302331
0.272509
0.52058
0.634289
0.443403
0.367767
0.200011
0.428313
0.486884
0.729974
0.752616
0.613212
0.492681
0.398305
0.245496
0.744036
0.298019
0.605623
0.21094
0.716908
0.260811
0.308097
0.318986
0.67727
0.485604
0.171078
0.331032
0.572119
0.331712
0.612698
0.530663
0.352662
0.655341
0.40783
0.313764
0.688428
0.339109
0.446102
0.246858
0.498146
0.383846
0.676321
0.613925
0.434609
0.60751
0.61262
0.70017
0.469637
0.38716
0.346924
0.605098
0.297489
0.507126
0.264453
0.787319
0.42997
0.66813
0.747179
0.512946
0.749473
0.682113
0.70157
0.290021
0.204104
0.244467
0.70339
0.294449
0.272651
0.296017
0.274753
0.443168
0.404189
0.512482
0.746257
0.612916
0.399548
0.601114
0.388542
0.799946
0.276664
0.647797
0.355506
0.189539
0.735183
0.758189
0.347699
0.371883
0.784724
0.534695
0.39144
0.320723
0.610498
0.693685
0.567582
0.331534
0.360485
0.619736
0.484255
0.32463
0.544575
0.303645
0.289701
0.400906
0.639954
0.207275
0.416612
0.655499
0.413029
0.204178
0.429948
0.339649
0.383764
0.558729
0.571557
0.317125
0.269252
0.312954
0.592433
0.567078
0.445539
0.578985
0.415426
0.295657
0.545575
0.396755
0.186187
0.574668
0.687614
0.526551
0.719067
0.691267
0.806326
0.336793
0.160929
0.459109
0.43242
0.377761
0.2154
0.541326
0.728562
0.595139
0.541816
0.321931
0.447758
0.591671
0.503973
0.548354
0.341112
0.453612
0.396387
0.293118
0.317787
0.355837
0.338921
0.303559
0.574688
0.489387
0.438048
0.582324
0.341895
0.449992
0.343652
0.432898
0.411805
0.382546
0.535404
0.21763
0.158039
0.45549
0.239078
0.212356
0.541956
0.273154
0.211295
0.67747
0.584409
0.325522
0.586391
0.282499
0.567478
0.544395
0.313541
0.340357
0.636441
0.468839
0.596867
0.168074
0.30814
0.677889
0.388919
0.321601
0.134782
0.225808
0.20101
0.233469
0.408011
0.58325
0.296773
0.19339
0.323208
0.375494
0.80124
0.348813
0.607063
0.522971
0.291236
0.403434
0.318895
0.266683
0.562322
0.411096
0.728588
0.565481
0.316119
0.40738
0.519799
0.78177
0.581916
0.700484
0.618545
0.395704
0.518247
0.447575
0.314785
0.225034
0.37631
0.374905
0.557782
0.351916
0.252061
0.336099
0.395457
0.331921
0.36503
0.662452
0.378349
0.359091
0.709177
0.652644
0.315939
0.485775
0.694529
0.367704
0.266814
0.406155
0.301206
0.26349
0.682701
0.330028
0.417607
0.692296
0.216499
0.502856
0.332653
0.514093
0.41067
0.359917
0.133295
0.406359
0.250413
0.397543
0.425746
0.429289
0.586276
0.723411
0.332613
0.475139
0.39472
0.327554
0.182081
0.650011
0.529822
0.403069
0.255128
0.516952
0.243912
0.347308
0.32681
0.311306
0.6197
0.711013
0.388827
0.58043
0.762852
0.658321
0.644187
0.704232
0.383534
0.369961
0.26615
0.782389
0.631625
0.671902
0.360235
0.418123
0.196891
0.594467
0.388993
0.344506
0.671192
0.54757
0.304964
0.402121
0.327062
0.335309
0.33399
0.409631
0.435788
0.287392
0.381288
0.231641
0.404345
0.293056
0.543049
0.469298
0.208262
0.699469
0.716751
0.614567
0.386616
0.510852
0.276311
0.631334
0.509049
0.24887
0.693286
0.22353
0.731268
0.238529
0.442943
0.442727
0.614457
0.614365
0.33424
0.752933
0.346173
0.660859
0.442367
0.547399
0.372789
0.329484
0.363817
0.663858
0.433317
0.776599
0.596037
0.224189
0.347287
0.56963
0.236516
0.39098
0.442831
0.286346
0.729917
0.316234
0.297373
0.630344
0.369041
0.728082
0.766756
0.428062
0.774012
0.733123
0.672332
0.679344
0.531929
0.256732
0.336493
0.419089
0.653948
0.408353
0.225811
0.750605
0.299366
0.453205
0.327973
0.704989
0.796508
0.308781
0.659456
0.520137
0.722062
0.407443
0.622022
0.44112
0.74843
0.771575
0.578852
0.332172
0.619291
0.368624
0.48519
0.48446
0.42362
0.526952
0.36161
0.223512
0.269285
0.439123
0.543154
0.486766
0.680515
0.319894
0.387285
0.538842
0.269878
0.714083
0.326935
0.441089
0.692199
0.672963
0.502192
0.760046
0.323297
0.415129
0.620793
0.458149
0.459413
0.442679
0.366166
0.57205
0.596027
0.365959
0.328988
0.506423
0.225258
0.285991
0.721134
0.757941
0.771428
0.432646
0.769986
0.790954
0.736008
0.177924
0.536243
0.529295
0.761461
0.399695
0.333825
0.249867
0.329734
0.203489
0.744146
0.466899
0.477166
0.62672
0.581685
0.388672
0.437904
0.791025
0.738901
0.702292
0.567003
0.398568
0.582622
0.560902
0.40092
0.438939
0.278432
0.329265
0.470403
0.469299
0.368132
0.718257
0.725584
0.184092
0.674926
0.338268
0.33328
0.390146
0.710861
0.423963
0.574972
0.457078
0.705841
0.412626
0.456197
0.763972
0.190953
0.22484
0.321398
0.29431
0.157094
0.0895196
0.303794
0.160033
0.476312
0.178177
0.284553
0.468968
0.382807
0.307788
0.376088
0.264306
0.115027
0.732283
0.653195
0.423531
0.250583
0.660517
0.405423
0.33281
0.769793
0.310913
0.762686
0.418001
0.684052
0.431384
0.272509
0.279313
0.481207
0.48675
0.478981
0.275305
0.41848
0.292378
0.292213
0.350431
0.213469
0.270306
0.741905
0.324658
0.602809
0.628955
0.40361
0.63818
0.6339
0.249709
0.0964712
0.441222
0.22623
0.164741
0.601923
0.615021
0.425272
0.554795
0.388607
0.764062
0.729897
0.451117
0.37684
0.755753
0.68812
0.548341
0.541263
0.409924
0.769662
0.468281
0.181598
0.708375
0.647035
0.725357
0.494776
0.339406
0.387413
0.617968
0.56617
0.0402575
0.812305
0.437434
0.320544
0.502114
0.671916
0.754986
0.779214
0.551548
0.442168
0.635776
0.687489
0.694076
0.598869
0.65404
0.286206
0.337251
0.504904
0.266319
0.277237
0.210713
0.434028
0.638486
0.231342
0.480566
0.343731
0.654677
0.779774
0.466682
0.259772
0.200845
0.615751
0.377369
0.32232
0.200042
0.707648
0.525457
0.544854
0.239936
0.537172
0.320887
0.333106
0.595061
0.636763
0.708548
0.794298
0.303087
0.684906
0.184664
0.706529
0.727029
0.726687
0.632869
0.286962
0.286361
0.433462
0.180305
0.460583
0.211744
0.513393
0.245812
0.672593
0.406129
0.192882
0.672368
0.602107
0.44448
0.453961
0.594392
0.706216
0.524633
0.470654
0.188294
0.652241
0.489963
0.734777
0.160346
0.473709
0.710415
0.610977
0.759454
0.610007
0.418593
0.14496
0.194438
0.458593
0.220195
0.739935
0.190821
0.35626
0.437867
0.328417
0.633031
0.165164
0.69793
0.620898
0.543635
0.223285
0.547318
0.318935
0.386112
0.464599
0.437694
0.416136
0.404176
0.64096
0.295145
0.765943
0.406201
0.45303
0.581452
0.593689
0.739014
0.417968
0.454549
0.308032
0.439099
0.392042
0.738632
0.328603
0.475123
0.409154
0.648862
0.374753
0.494293
0.263961
0.780345
0.176736
0.28591
0.381152
0.655324
0.197815
0.203154
0.275362
0.25031
0.717788
0.463392
0.578207
0.684658
0.556762
0.483223
0.782534
0.464201
0.59797
0.563642
0.478577
0.210262
0.495173
0.472734
0.356774
0.494771
0.303421
0.224438
0.514782
0.401143
0.294744
0.639895
0.442173
0.576223
0.463896
0.72372
0.431621
0.41903
0.561161
0.250575
0.319213
0.411163
0.483055
0.518232
0.565518
0.711152
0.587423
0.654376
0.508072
0.686759
0.743663
0.745621
0.507367
0.462324
0.518646
0.259285
0.753503
0.683085
0.65758
0.489572
0.291418
0.215869
0.521181
0.609287
0.323157
0.652733
0.677104
0.559458
0.337194
0.484889
0.357653
0.331335
0.492822
0.346883
0.544647
0.200814
0.544041
0.433803
0.453095
0.166117
0.511162
0.489749
0.582642
0.396201
0.53466
0.717561
0.725824
0.552344
0.424261
0.655938
0.510618
0.324536
0.322011
0.434894
0.240096
0.706657
0.452216
0.522157
0.621129
0.60298
0.540148
0.298979
0.765438
0.545873
0.337918
0.466624
0.498147
0.655937
0.713787
0.550184
0.541846
0.201182
0.302516
0.459574
0.553604
0.478023
0.554674
0.362366
0.722904
0.53104
0.625169
0.691427
0.519568
0.319125
0.476147
0.752694
0.395975
0.195003
0.472512
0.758445
0.380346
0.438796
0.645591
0.604586
0.662764
0.480012
0.207203
0.555921
0.262729
0.388757
0.671045
0.476687
0.265171
0.320983
0.376911
0.56713
0.377968
0.347627
0.68918
0.346171
0.784263
0.660358
0.247787
0.149601
0.45141
0.604996
0.689184
0.482821
0.459444
0.328427
0.43307
0.429054
0.793175
0.703497
0.614068
0.379429
0.218074
0.707916
0.77255
0.720127
0.65262
0.696659
0.470687
0.265899
0.176124
0.197557
0.734487
0.495452
0.333263
0.395845
0.769475
0.409017
0.338595
0.231775
0.483938
0.314745
0.764214
0.560918
0.60299
0.707093
0.668142
0.445064
0.582637
0.473809
0.578771
0.388842
0.552591
0.354836
0.737897
0.283696
0.388537
0.335311
0.414194
0.71537
0.416034
0.670305
0.680128
0.704201
0.287268
0.470341
0.456644
0.328497
0.727013
0.493502
0.487259
0.555439
0.185176
0.401699
0.719843
0.585293
0.727175
0.186224
0.283213
0.419866
0.745484
0.35845
0.433199
0.307735
0.295967
0.385591
0.728763
0.412913
0.465408
0.23865
0.756769
0.763773
0.190694
0.718413
0.398704
0.290303
0.289099
0.487796
0.227415
0.540164
0.379721
0.388874
0.420422
0.695003
0.48123
0.66508
0.411827
0.27583
0.412495
0.185665
0.21771
0.467448
0.389929
0.500284
0.297106
0.445141
0.677558
0.535033
0.390378
0.269449
0.69469
0.491632
0.438435
0.781283
0.502538
0.383562
0.385259
0.317182
0.754488
0.359292
0.4549
0.567543
0.244825
0.701776
0.295924
0.685304
0.462696
0.631598
0.311527
0.633953
0.453487
0.250977
0.324562
0.460704
0.706407
0.147944
0.32514
0.417065
0.737168
0.764294
0.322185
0.36757
0.53409
0.74307
0.425108
0.717001
0.69079
0.65729
0.623501
0.537983
0.569154
0.562282
0.730478
0.43391
0.484699
0.320446
0.338817
0.429828
0.29439
0.756028
0.287651
0.709433
0.422651
0.745581
0.369999
0.765391
0.631047
0.67673
0.745923
0.717838
0.777463
0.436529
0.700988
0.456273
0.416603
0.323074
0.299848
0.726378
0.289228
0.564962
0.570035
0.44744
0.54068
0.355235
0.711859
0.513606
0.629296
0.171212
0.320401
0.421998
0.763338
0.33133
0.590669
0.344214
0.421245
0.260871
0.428415
0.407639
0.661659
0.735534
0.228891
0.557862
0.418876
0.37659
0.674914
0.324375
0.335366
0.742865
0.197984
0.491215
0.612572
0.715465
0.774009
0.34961
0.337095
0.241548
0.38808
0.329944
0.415629
0.620205
0.393628
0.25772
0.460436
0.469786
0.372271
0.334318
0.414677
0.480696
0.255426
0.649191
0.633472
0.364569
0.633584
0.271078
0.238523
0.333173
0.192146
0.756621
0.403138
0.405148
0.35666
0.670584
0.730376
0.527338
0.615177
0.343594
0.340098
0.46903
0.405745
0.323632
0.727852
0.512022
0.566282
0.753867
0.64824
0.445924
0.748851
0.224123
0.532786
0.527222
0.572354
0.408861
0.723628
0.395983
0.564908
0.465584
0.369493
0.29316
0.344914
0.63249
0.677872
0.704095
0.476443
0.503573
0.728806
0.639147
0.469034
0.494935
0.278339
0.439432
0.666851
0.223894
0.687193
0.410349
0.699641
0.765835
0.733899
0.402044
0.678479
0.688534
0.240661
0.72421
0.364344
0.740646
0.658708
0.423172
0.298878
0.510392
0.442276
0.408172
0.341461
0.644465
0.367656
0.744505
0.28456
0.353462
0.327973
0.281709
0.406752
0.67134
0.760045
0.279488
0.622515
0.495155
0.567077
0.431474
0.528376
0.722624
0.665154
0.4149
0.713793
0.677433
0.764025
0.278033
0.396468
0.333428
0.622553
0.748478
0.682398
0.454539
0.766297
0.459055
0.233404
0.297064
0.145342
0.437069
0.263786
0.757449
0.786203
0.506675
0.77115
0.669882
0.526631
0.759841
0.278582
0.722014
0.437706
0.728606
0.396091
0.288465
0.619678
0.519047
0.741592
0.717211
0.7247
0.305909
0.30789
0.212743
0.680223
0.662825
0.315079
0.46508
0.664095
0.182865
0.368942
0.30458
0.430434
0.553717
0.424068
0.526989
0.605575
0.499173
0.510828
0.639855
0.397728
0.405409
0.560902
0.505099
0.405377
0.700968
0.731353
0.317359
0.659099
0.170863
0.356126
0.703188
0.645045
0.409601
0.732942
0.270571
0.631853
0.411512
0.408305
0.710782
0.400674
0.63732
0.617636
0.58798
0.787509
0.599124
0.245427
0.57836
0.432596
0.645633
0.789814
0.582022
0.455499
0.322335
0.410551
0.712949
0.271669
0.666005
0.313842
0.516736
0.645891
0.632988
0.501684
0.698038
0.765277
0.398213
0.397274
0.510463
0.299215
0.265361
0.531621
0.621112
0.329627
0.245557
0.336826
0.24195
0.630213
0.452246
0.650509
0.345252
0.723886
0.494094
0.677062
0.753244
0.343973
0.719438
0.387263
0.519986
0.468869
0.685574
0.337145
0.425441
0.477924
0.295145
0.405304
0.281968
0.261522
0.172291
0.754607
0.76422
0.328523
0.347913
0.643432
0.222999
0.328811
0.410713
0.613888
0.621353
0.204559
0.171943
0.716459
0.343885
0.547961
0.336406
0.235246
0.29962
0.508378
0.68447
0.543865
0.232181
0.726561
0.683938
0.319694
0.551107
0.400402
0.752669
0.419389
0.42852
0.250771
0.598546
0.725429
0.569375
0.515311
0.334085
0.444731
0.539962
0.760611
0.774935
0.332628
0.768982
0.342846
0.539104
0.536262
0.466329
0.380399
0.687595
0.414332
0.512176
0.318952
0.373152
0.41413
0.289019
0.584891
0.728177
0.321078
0.360139
0.525627
0.388618
0.342998
0.182451
0.37656
0.682662
0.228793
0.402145
0.603332
0.531679
0.450938
0.590824
0.663845
0.327223
0.331835
0.678648
0.44495
0.311175
0.459759
0.683097
0.588774
0.545971
0.340014
0.351733
0.327983
0.761643
0.683185
0.768455
0.44471
0.609814
0.268999
0.484857
0.688171
0.23024
0.243438
0.635375
0.688152
0.219088
0.359469
0.336151
0.314155
0.331453
0.772372
0.421203
0.354618
0.514958
0.322041
0.616547
0.522552
0.260598
0.361499
0.636604
0.442964
0.763093
0.261374
0.369999
0.559915
0.551403
0.474442
0.555046
0.293934
0.77094
0.717138
0.564051
0.690228
0.333022
0.685116
0.593321
0.553758
0.749262
0.223642
0.374066
0.783473
0.596624
0.215658
0.40621
0.65915
0.777846
0.487532
0.642689
0.337321
0.249122
0.309822
0.209931
0.687006
0.345666
0.512869
0.739143
0.338976
0.327384
0.337554
0.496511
0.349857
0.404865
0.32681
0.284154
0.443401
0.664639
0.744113
0.59689
0.381582
0.374589
0.198854
0.377007
0.577759
0.561688
0.575624
0.610488
0.376535
0.487177
0.657644
0.692579
0.776164
0.706718
0.754017
0.452196
0.270604
0.312106
0.275197
0.762465
0.506559
0.347268
0.746422
0.276631
0.662656
0.614974
0.364867
0.337928
0.37273
0.360349
0.689604
0.444965
0.615889
0.474235
0.738696
0.54465
0.793362
0.311596
0.480444
0.392618
0.163089
0.388384
0.629636
0.304032
0.171108
0.546208
0.725964
0.648798
0.357407
0.258717
0.313505
0.282746
0.339552
0.283276
0.465863
0.288943
0.636131
0.323072
0.346255
0.712841
0.452771
0.578727
0.680618
0.463718
0.51333
0.306483
0.633279
0.447244
0.365497
0.432593
0.300418
0.255777
0.343894
0.360431
0.641705
0.769379
0.698254
0.542614
0.616771
0.226903
0.769279
0.521717
0.613589
0.348836
0.618134
0.407917
0.398878
0.668772
0.727529
0.634354
0.551173
0.421833
0.78084
0.390286
0.653111
0.757468
0.603528
0.423731
0.220171
0.653307
0.507564
0.290102
0.593916
0.501163
0.731557
0.339526
0.739194
0.776793
0.454495
0.311961
0.753598
0.258576
0.29742
0.396273
0.292286
0.375237
0.29783
0.26305
0.473172
0.348063
0.309374
0.387685
0.558433
0.380173
0.337105
0.586217
0.511301
0.235179
0.73152
0.75979
0.747827
0.336252
0.231581
0.802551
0.248831
0.45198
0.332419
0.417554
0.35007
0.632988
0.392877
0.407867
0.244553
0.226173
0.293373
0.399135
0.214529
0.497184
0.53502
0.487664
0.742865
0.506647
0.575473
0.411789
0.677572
0.425281
0.410289
0.777916
0.391269
0.497299
0.263161
0.60381
0.763439
0.454743
0.547087
0.502598
0.407012
0.333816
0.336999
0.28597
0.638926
0.303848
0.434668
0.405881
0.456709
0.314105
0.338187
0.453465
0.440457
0.379355
0.760076
0.464127
0.415157
0.54937
0.72832
0.407014
0.22963
0.641057
0.26049
0.423925
0.335539
0.447175
0.403324
0.417554
0.449741
0.765854
0.69716
0.239059
0.376058
0.22587
0.327684
0.214334
0.290261
0.379546
0.306141
0.389028
0.575046
0.772415
0.394524
0.620841
0.481875
0.760225
0.397455
0.764054
0.574908
0.271259
0.559003
0.626389
0.417252
0.675991
0.334738
0.704755
0.361057
0.19623
0.478016
0.773929
0.751741
0.642889
0.569485
0.597531
0.241378
0.391225
0.592458
0.79457
0.208283
0.455694
0.339215
0.421785
0.451299
0.317694
0.272181
0.352195
0.290076
0.355348
0.434113
0.442888
0.786826
0.675568
0.211605
0.6552
0.304109
0.328987
0.659851
0.362912
0.423705
0.585752
0.243605
0.329479
0.483553
0.691962
0.279084
0.34202
0.421787
0.575765
0.275775
0.733252
0.227183
0.40795
0.428454
0.353917
0.566105
0.57834
0.730863
0.33327
0.626045
0.541313
0.565611
0.327853
0.561854
0.312808
0.266506
0.192822
0.515668
0.480854
0.429486
0.701026
0.465992
0.513782
0.558202
0.318095
0.298693
0.399734
0.53241
0.335085
0.77078
0.263234
0.229221
0.390939
0.410281
0.341821
0.339221
0.610447
0.399021
0.490133
0.275772
0.336084
0.489962
0.295842
0.771244
0.750541
0.281079
0.314054
0.678525
0.475323
0.319882
0.256529
0.324862
0.287173
0.535757
0.726567
0.31815
0.236016
0.575086
0.459093
0.227826
0.279946
0.454184
0.6166
0.771009
0.268827
0.229681
0.555247
0.685591
0.447324
0.521701
0.423445
0.334267
0.410872
0.576221
0.478435
0.335515
0.664139
0.423329
0.194546
0.526806
0.345841
0.667454
0.788608
0.340153
0.400999
0.405601
0.396019
0.265297
0.416176
0.284768
0.747295
0.66513
0.616188
0.383604
0.245775
0.649352
0.767261
0.338142
0.521419
0.404983
0.169747
0.507415
0.414928
0.17945
0.374722
0.560417
0.275323
0.231639
0.287922
0.665644
0.26017
0.653608
0.436853
0.337479
0.436805
0.307515
0.66887
0.199697
0.410591
0.445503
0.263535
0.521051
0.593989
0.548633
0.483224
0.648149
0.282261
0.280251
0.712948
0.332171
0.707236
0.556572
0.450439
0.506792
0.699504
0.459318
0.222163
0.732369
0.329104
0.456792
0.689822
0.319501
0.740321
0.326458
0.425065
0.239715
0.418599
0.284986
0.477795
0.30443
0.194441
0.29208
0.278231
0.174926
0.724655
0.277432
0.414785
0.53028
0.468663
0.770559
0.770515
0.39825
0.459504
0.67087
0.388377
0.727666
0.185907
0.432741
0.511642
0.344986
0.679871
0.404493
0.410498
0.361383
0.344318
0.334658
0.20022
0.703045
0.130238
0.731333
0.614739
0.304028
0.231735
0.301147
0.775532
0.60088
0.583409
0.456539
0.521783
0.452659
0.697307
0.64417
0.309543
0.551669
0.740871
0.464405
0.517117
0.550198
0.211578
0.27501
0.650432
0.419367
0.437481
0.742047
0.274111
0.191583
0.358125
0.433326
0.470005
0.756285
0.328911
0.254145
0.33411
0.432699
0.334356
0.715623
0.449349
0.303292
0.408368
0.339576
0.31651
0.37614
0.562678
0.481352
0.302133
0.700463
0.422894
0.672646
0.303259
0.270438
0.397133
0.692541
0.75581
0.666444
0.50219
0.477945
0.660282
0.74634
0.263965
0.728483
0.294261
0.580034
0.577274
0.712705
0.497486
0.698148
0.723152
0.340489
0.33757
0.41549
0.460768
0.294108
0.338034
0.283884
0.636283
0.678788
0.256996
0.735289
0.491364
0.65201
0.456639
0.299846
0.670901
0.650189
0.404404
0.366324
0.285679
0.778367
0.609415
0.798839
0.258241
0.293386
0.444324
0.685939
0.571286
0.699406
0.490564
0.751288
0.35575
0.420664
0.517541
0.372043
0.562441
0.262804
0.665206
0.463092
0.512071
0.729322
0.248745
0.260379
0.201141
0.526536
0.703914
0.361173
0.571132
0.270109
0.249149
0.441602
0.347319
0.323461
0.696672
0.470713
0.318596
0.430578
0.524908
0.729435
0.529479
0.437292
0.70335
0.467337
0.755795
0.510899
0.61899
0.441726
0.261157
0.772995
0.299493
0.507765
0.547172
0.724433
0.605197
0.475851
0.345989
0.783164
0.430428
0.311478
0.641293
0.771497
0.622609
0.58769
0.244042
0.188187
0.528781
0.303868
0.426573
0.501861
0.301166
0.727039
0.779243
0.736256
0.374873
0.418215
0.323465
0.389452
0.584789
0.280573
0.594858
0.746522
0.266039
0.409029
0.353256
0.662304
0.585322
0.419061
0.308528
0.626758
0.32968
0.253819
0.291891
0.782826
0.193439
0.66122
0.543911
0.33564
0.739806
0.534763
0.7693
0.245418
0.41018
0.506756
0.732737
0.390929
0.722892
0.537367
0.193951
0.48392
0.365924
0.404597
0.187015
0.642958
0.410996
0.307596
0.22647
0.485948
0.703613
0.134324
0.382428
0.705111
0.40988
0.68838
0.182603
0.337186
0.330873
0.451312
0.391995
0.242812
0.330118
0.147369
0.432482
0.439024
0.652377
0.494555
0.708181
0.317945
0.415566
0.246454
0.47139
0.144004
0.419608
0.793011
0.431551
0.373266
0.777376
0.318604
0.530545
0.567843
0.238669
0.380296
0.46614
0.511878
0.743987
0.769598
0.771373
0.521527
0.412039
0.454437
0.299054
0.678444
0.573515
0.337014
0.384546
0.36699
0.460885
0.773325
0.432434
0.768901
0.410298
0.551053
0.303704
0.32798
0.246675
0.352183
0.720406
0.368076
0.258144
0.284713
0.77686
0.383306
0.302836
0.296636
0.328653
0.612705
0.487906
0.498994
0.411553