/*--------------------------------*- C++ -*----------------------------------*\
  =========                 |
  \\      /  F ield         | OpenFOAM: The Open Source CFD Toolbox
   \\    /   O peration     | Website:  https://openfoam.org
    \\  /    A nd           | Version:  6
     \\/     M anipulation  |
\*---------------------------------------------------------------------------*/
FoamFile
{
    version     2.0;
    format      ascii;
    class       volVectorField;
    location    "0";
    object      U_rec;
}
// * * * * * * * * * * * * * * * * * * * * * * * * * * * * * * * * * * * * * //

dimensions      [0 1 -1 0 0 0 0];

internalField   nonuniform List<vector> 
13046
(
(-0.645565 0.365897 0)
(-0.569096 0.111118 -6.50674e-21)
(-0.322047 0.137763 -1.44299e-20)
(-0.638838 0.296177 0)
(-0.388988 0.206518 -1.294e-20)
(-0.490127 0.106418 0)
(-0.669382 0.308458 1.87099e-21)
(-0.487733 0.0809311 3.34394e-21)
(-0.369751 0.21457 -1.42628e-20)
(-0.840153 0.425964 6.22952e-21)
(-0.726085 -0.190935 0)
(-0.0711788 0.0786667 9.67965e-21)
(-0.719334 0.381644 -5.91194e-21)
(-0.556827 0.0579374 -1.04695e-20)
(-0.282511 0.147805 7.94601e-21)
(-0.820236 0.493182 -8.05223e-21)
(-0.0776804 0.0463571 2.32792e-20)
(-0.76153 -0.116715 5.6934e-21)
(-0.490814 0.280051 0)
(-0.419288 0.119419 -7.03584e-21)
(-0.604671 0.223265 1.96843e-20)
(-0.826656 0.48222 -3.4333e-21)
(-0.0758262 0.0545862 -3.10731e-20)
(-0.751204 -0.131736 0)
(-0.606567 0.311739 7.89125e-21)
(-0.536866 0.134555 -1.58802e-20)
(-0.376877 0.168309 0)
(-0.720318 0.405078 -1.07898e-20)
(-0.57582 0.0540883 3.05497e-21)
(-0.261701 0.129177 -1.37329e-20)
(-0.64648 0.382721 0)
(-0.589492 0.115833 0)
(-0.303423 0.116869 1.4692e-20)
(-0.57703 0.290485 -9.16231e-21)
(-0.401154 0.172598 4.85584e-21)
(-0.531978 0.155356 2.76535e-20)
(-0.570835 0.272248 -1.41491e-20)
(-0.425352 0.192198 7.38803e-21)
(-0.513457 0.159224 -1.42374e-20)
(-0.574004 0.404508 1.01466e-20)
(-0.310357 0.040282 2.72846e-21)
(-0.681593 0.165485 -9.78844e-21)
(-0.532055 0.223695 6.41338e-21)
(-0.484794 0.218544 1.10265e-20)
(-0.485979 0.181495 0)
(-0.55824 0.226794 4.03076e-21)
(-0.477837 0.235053 -1.6889e-20)
(-0.464441 0.160572 -2.12064e-21)
(-0.661177 0.35831 0)
(-0.549473 0.0930883 -4.69166e-22)
(-0.317061 0.151442 1.35572e-23)
(-0.335873 -0.0439295 1.71158e-20)
(-0.512506 0.434763 0)
(-0.779496 0.19413 -1.19866e-20)
(-0.358356 -0.0645183 -2.4384e-20)
(-0.804289 0.207385 -1.90726e-20)
(-0.480366 0.424737 1.59378e-20)
(-0.740991 0.0197729 -2.46612e-21)
(-0.771349 0.558246 0)
(-0.149805 0.0042843 1.28172e-20)
(-0.821551 0.348917 -5.58083e-21)
(-0.518014 -0.0469986 6.30801e-21)
(-0.274041 0.229086 -3.32409e-20)
(-0.127745 0.111486 1.76418e-20)
(-0.669367 -0.116449 -4.11411e-21)
(-0.859514 0.437391 -9.39145e-21)
(-0.751926 0.568558 0)
(-0.749923 0.0432901 0)
(-0.166073 -0.013357 0)
(-0.736702 0.558598 -4.37912e-21)
(-0.742378 0.0560467 0)
(-0.178085 -0.0113478 1.02227e-20)
(-0.755969 0.0074178 0)
(-0.782402 0.565196 1.38352e-22)
(-0.136797 -0.00117709 7.57092e-24)
(-0.506479 0.300286 0)
(-0.398341 0.105121 7.65326e-21)
(-0.618532 0.209485 -1.40644e-20)
(-0.115247 0.0171515 1.4215e-20)
(-0.801093 0.548831 -1.35488e-20)
(-0.751126 -0.0329046 0)
(-0.627268 0.316205 4.12037e-21)
(-0.521663 0.119073 0)
(-0.367708 0.180412 0)
(-0.112494 0.100609 -1.58609e-20)
(-0.687968 -0.132431 -3.22736e-21)
(-0.860392 0.441265 5.59526e-21)
(-0.894487 0.36815 -9.90295e-21)
(-0.166729 0.183683 0)
(-0.607769 -0.156922 -3.18399e-21)
(-0.203809 0.254067 0)
(-0.931506 0.295593 0)
(-0.562268 -0.214198 4.2945e-22)
(-0.806223 0.435976 0)
(-0.824274 0.431374 5.20617e-21)
(-0.611786 -0.0216643 1.23641e-20)
(-0.613088 -0.0447592 -5.80824e-21)
(-0.196453 0.12378 -7.25646e-21)
(-0.187161 0.133753 1.85771e-20)
(-0.186009 0.204918 -8.85402e-22)
(-0.899744 0.352345 9.68797e-21)
(-0.588281 -0.161977 0)
(-0.584207 0.244697 -4.26338e-23)
(-0.457116 0.234049 8.88066e-21)
(-0.463453 0.141518 0)
(-0.439222 0.363645 0)
(-0.768783 0.241254 -5.82222e-21)
(-0.383419 -0.0222912 0)
(-0.518923 0.411186 1.75774e-20)
(-0.331337 -0.00731825 0)
(-0.739703 0.19283 -2.24197e-20)
(-0.7713 0.397269 0)
(-0.0355422 0.0494966 0)
(-0.721378 -0.247298 -4.79993e-21)
(-0.694397 0.366273 1.63471e-20)
(-0.546458 0.0736322 4.39831e-21)
(-0.301378 0.157052 1.43469e-20)
(-0.813541 0.475301 6.59889e-21)
(-0.800982 0.46083 -1.24301e-20)
(-0.660187 -0.031188 -1.04906e-20)
(-0.159559 0.086381 8.34757e-21)
(-0.636781 -0.0155458 6.39893e-21)
(-0.179152 0.0983939 -7.80056e-21)
(-0.824786 0.42873 -5.24502e-21)
(-0.737606 -0.201679 -6.6122e-21)
(-0.0596773 0.0674622 -4.34172e-21)
(-0.767269 0.430457 0)
(-0.597668 0.0153726 -8.13393e-21)
(-0.222582 0.119149 1.68521e-20)
(-0.601177 0.414142 0)
(-0.295021 0.0500141 -1.35549e-20)
(-0.667415 0.147157 5.88253e-22)
(-0.226163 0.272341 0)
(-0.926112 0.292276 0)
(-0.546838 -0.19578 0)
(-0.855928 0.413262 0)
(-0.616506 -0.089004 -1.62703e-20)
(-0.177274 0.151459 -1.99564e-20)
(-0.670836 0.397785 0)
(-0.598687 0.0992507 0)
(-0.284241 0.106691 0)
(-0.747513 0.309044 0)
(-0.462798 0.0144561 0)
(-0.356122 0.256576 0)
(-0.501112 0.409059 0)
(-0.344268 -0.0215136 0)
(-0.758713 0.203617 1.20682e-20)
(-0.443935 0.35143 -1.85516e-21)
(-0.754687 0.244393 -1.24448e-20)
(-0.389158 -0.00740446 1.47851e-20)
(-0.833258 0.361529 1.32929e-20)
(-0.538858 -0.0586508 0)
(-0.250519 0.208539 4.32811e-20)
(-0.426766 0.296357 0)
(-0.707278 0.262463 1.3358e-20)
(-0.41706 0.039631 -3.7282e-21)
(-0.4093 -0.086296 0)
(-0.835226 0.243139 1.34651e-20)
(-0.436792 -0.0984196 0)
(-0.850893 0.262041 7.70559e-21)
(-0.407744 0.382509 0)
(-0.370849 0.355528 0)
(-0.764813 0.279036 1.70203e-21)
(-0.430786 -0.00878813 7.83944e-21)
(-0.383575 0.295546 -8.13118e-21)
(-0.856816 0.411927 -6.4056e-21)
(-0.0791309 0.0925756 0)
(-0.705736 -0.201257 -8.13361e-21)
(-0.791949 0.411365 -4.7392e-21)
(-0.0425341 0.0541983 -1.98694e-21)
(-0.736691 -0.229351 0)
(-0.855684 0.425623 -7.74096e-21)
(-0.633978 -0.0930176 0)
(-0.160176 0.135225 2.27016e-20)
(-0.63542 0.471523 0)
(-0.707696 0.128141 3.19897e-21)
(-0.260798 0.0121085 7.9736e-21)
(-0.749769 0.267521 1.13051e-20)
(-0.406622 0.313135 3.87741e-21)
(-0.414932 0.00396213 0)
(-0.101564 0.127367 0)
(-0.667628 -0.204874 0)
(-0.883749 0.385314 5.45255e-21)
(-0.614176 0.451388 0)
(-0.699514 0.142365 -6.86137e-21)
(-0.277479 0.0220655 2.05761e-21)
(-0.425261 0.310471 0)
(-0.718909 0.256724 0)
(-0.404179 0.0252252 0)
(-0.72628 0.298601 5.5505e-21)
(-0.457177 0.0289182 0)
(-0.367821 0.252671 0)
(-0.547668 0.0277696 -5.09528e-23)
(-0.271527 0.164892 -9.72813e-21)
(-0.754045 0.414161 1.70702e-20)
(-0.582902 0.0284309 0)
(-0.241218 0.130915 -2.1115e-20)
(-0.88283 0.400615 -1.00428e-20)
(-0.133284 0.140438 1.43326e-20)
(-0.652366 -0.15673 -1.55911e-20)
(-0.220339 0.2512 1.30056e-20)
(-0.910254 0.318134 6.02298e-21)
(-0.555725 -0.170998 1.5869e-20)
(-0.91868 0.329846 -1.69493e-20)
(-0.592593 -0.194709 0)
(-0.174061 0.213419 -1.27815e-20)
(-0.325821 -0.0780311 -8.7906e-22)
(-0.810539 0.175703 5.42131e-21)
(-0.535361 0.48707 0)
(-0.716169 0.335926 -2.51021e-20)
(-0.792527 0.560704 6.89067e-21)
(-0.119194 0.00733128 -8.76683e-21)
(-0.763494 -0.0242456 0)
(-0.611047 -0.208042 0)
(-0.912971 0.340813 -1.5381e-20)
(-0.151452 0.18851 0)
(-0.592049 0.267221 -2.03939e-20)
(-0.429164 0.213923 -7.25144e-21)
(-0.48593 0.138362 2.09864e-20)
(-0.705247 0.41441 0)
(-0.593248 0.0708083 -4.39984e-22)
(-0.265536 0.11637 -8.09122e-21)
(-0.231795 0.268998 9.93246e-21)
(-0.917274 0.304627 0)
(-0.544468 -0.181326 -1.82794e-20)
(-0.737915 0.348427 2.0123e-20)
(-0.531032 0.0238998 1.89877e-20)
(-0.286876 0.182011 0)
(-0.0602943 0.0803216 0)
(-0.70311 -0.235653 7.11719e-21)
(-0.837257 0.39545 0)
(-0.505657 0.467638 0)
(-0.823436 0.186489 0)
(-0.344332 -0.0893858 0)
(-0.911901 0.333699 1.48748e-20)
(-0.580837 -0.177987 0)
(-0.187925 0.21903 -2.05148e-23)
(-0.807712 0.272502 4.99712e-21)
(-0.428542 -0.0536957 -6.06247e-21)
(-0.373545 0.325225 0)
(-0.76251 0.446756 0)
(-0.613258 0.0221607 7.59108e-21)
(-0.213631 0.103246 1.32987e-20)
(-0.489926 -0.17332 -2.25059e-20)
(-0.913868 0.260415 -1.0957e-20)
(-0.308011 0.345411 7.79793e-21)
(-0.871208 0.258209 0)
(-0.448631 -0.120492 -8.7777e-21)
(-0.359399 0.359675 -2.79558e-22)
(-0.0577967 0.0830542 -1.26971e-20)
(-0.68626 -0.249931 0)
(-0.838377 0.378981 -5.61201e-21)
(-0.565203 0.44423 9.35036e-21)
(-0.303901 -0.00591037 -9.96124e-21)
(-0.734674 0.168318 9.97927e-22)
(-0.714693 0.420497 5.12235e-21)
(-0.0252303 0.0278481 -1.86838e-20)
(-0.761438 -0.214978 0)
(-0.461882 0.26056 -4.20649e-21)
(-0.614335 0.239814 -1.59004e-20)
(-0.435088 0.114547 2.10976e-20)
(-0.804056 0.305099 5.98537e-21)
(-0.794381 0.284328 2.38297e-23)
(-0.46326 -0.0414997 -1.46189e-20)
(-0.438058 -0.0376151 0)
(-0.365685 0.306771 7.39142e-21)
(-0.330119 0.27738 -7.68354e-21)
(-0.102742 0.0223021 -1.86013e-20)
(-0.805583 0.539685 7.16763e-21)
(-0.759995 -0.0482764 -1.3842e-20)
(-0.742266 0.449645 0)
(-0.623089 0.0455872 0)
(-0.224331 0.0927545 -1.75262e-20)
(-0.88502 0.27116 -2.85827e-21)
(-0.471979 -0.137252 0)
(-0.329831 0.340176 0)
(-0.835855 0.446838 -6.37696e-21)
(-0.640339 -0.0600962 0)
(-0.162442 0.115029 8.29727e-21)
(-0.523406 0.235153 4.33365e-21)
(-0.508272 0.191606 6.33513e-21)
(-0.47155 0.200638 -2.1661e-21)
(-0.837818 0.278073 -9.84806e-21)
(-0.448 -0.0821902 0)
(-0.351688 0.326866 -1.29049e-20)
(-0.741642 0.465536 0)
(-0.641077 0.0463788 9.4891e-21)
(-0.212865 0.0764865 -1.13366e-20)
(-0.744228 0.371103 0)
(-0.764463 0.379906 2.00186e-21)
(-0.568807 0.457593 3.38964e-21)
(-0.298943 -0.0190966 2.89278e-20)
(-0.747079 0.166068 -2.40208e-20)
(-0.849336 0.293996 -1.01117e-20)
(-0.469901 -0.0923823 1.28206e-20)
(-0.319594 0.30129 1.17769e-20)
(-0.847283 0.442428 0)
(-0.153879 0.120204 -2.92165e-20)
(-0.645522 -0.0785241 -8.15271e-21)
(-0.523682 0.394885 -2.42546e-20)
(-0.334771 0.00754517 0)
(-0.722263 0.196945 7.58468e-21)
(-0.420134 0.404827 -1.49761e-20)
(-0.845001 0.231441 -7.81424e-21)
(-0.402066 -0.101483 0)
(-0.783298 0.495984 -6.37011e-21)
(-0.673372 0.00698439 -8.43027e-21)
(-0.166198 0.0594629 5.20293e-21)
(-0.538842 0.454767 1.22933e-21)
(-0.320651 -0.0413116 0)
(-0.774711 0.182985 1.65146e-20)
(-0.796582 0.503798 0)
(-0.80801 0.494782 0)
(-0.685419 -0.00794205 -5.50288e-21)
(-0.153971 0.057662 -1.35196e-20)
(-0.680325 -0.026204 7.78711e-21)
(-0.149195 0.0693492 1.43789e-20)
(-0.106648 0.121704 -1.11456e-20)
(-0.675045 -0.186158 0)
(-0.879606 0.400765 -7.30843e-21)
(-0.783942 0.463543 7.36459e-21)
(-0.634295 0.00205009 0)
(-0.188138 0.0916015 4.58655e-21)
(-0.673719 -0.260798 1.39675e-20)
(-0.0177659 0.0294521 1.63292e-20)
(-0.680864 0.367099 1.30612e-20)
(-0.671679 0.244363 -7.30734e-21)
(-0.45364 0.293577 0)
(-0.408729 0.0673599 0)
(-0.798484 0.347107 1.35026e-20)
(-0.509208 -0.0253662 0)
(-0.285117 0.222117 2.53898e-20)
(-0.144817 0.140831 -9.09307e-21)
(-0.877106 0.408149 2.05234e-20)
(-0.642068 -0.134732 1.165e-20)
(-0.360828 -0.0784315 0)
(-0.817824 0.205305 7.10896e-21)
(-0.474523 0.438372 -1.80566e-20)
(-0.509183 -0.177348 -2.7679e-20)
(-0.91651 0.275644 -6.73354e-21)
(-0.277966 0.31614 0)
(-0.512698 0.0456365 -1.89596e-20)
(-0.315446 0.194745 0)
(-0.802168 0.388433 1.47908e-20)
(-0.553284 -0.0208178 6.97369e-21)
(-0.242908 0.172274 7.75959e-21)
(-0.494951 0.0364991 1.11623e-20)
(-0.328365 0.211918 7.89523e-23)
(-0.824805 0.497164 -4.88472e-22)
(-0.0885339 0.0484138 1.09283e-20)
(-0.74813 -0.0993538 -8.36243e-21)
(-0.313429 -0.089241 0)
(-0.816765 0.164113 1.74421e-21)
(-0.557938 0.510551 0)
(-0.817618 0.39419 -1.50685e-20)
(-0.566341 -0.0364858 -8.51872e-21)
(-0.22822 0.173213 -9.52954e-21)
(-0.759207 0.300499 0)
(-0.449474 -0.00144559 -1.13954e-20)
(-0.361244 0.272509 0)
(-0.77078 0.223709 0)
(-0.365119 -0.0305394 0)
(-0.4683 0.385496 0)
(-0.652265 0.337518 -5.71851e-21)
(-0.531752 0.101836 -1.03695e-20)
(-0.342044 0.16898 4.72814e-23)
(-0.44773 0.425288 1.85997e-20)
(-0.836758 0.217793 1.90415e-20)
(-0.38459 -0.0948963 1.24539e-20)
(-0.896673 0.376121 -9.01263e-21)
(-0.631141 -0.172582 1.32884e-20)
(-0.143784 0.161929 -1.35038e-20)
(-0.518471 -0.167056 1.86938e-20)
(-0.91084 0.290278 6.82426e-21)
(-0.264732 0.297466 9.88738e-21)
(-0.699048 0.551295 -1.35632e-20)
(-0.208736 -0.0219388 1.5392e-20)
(-0.748477 0.0858568 -1.1759e-20)
(-0.802637 0.528581 3.88929e-21)
(-0.7949 0.526245 -3.52242e-21)
(-0.711438 -0.00855216 -1.75658e-21)
(-0.723738 -0.0213105 0)
(-0.129825 0.0343125 -4.98719e-21)
(-0.141507 0.0358792 -4.37914e-21)
(-0.0211267 0.02936 -2.20998e-20)
(-0.70425 -0.246675 -1.53854e-20)
(-0.695756 0.380406 3.24667e-21)
(-0.731094 0.432784 -3.25393e-22)
(-0.0297203 0.0288069 2.58535e-20)
(-0.775434 -0.204941 0)
(-0.824238 0.313023 -2.20449e-20)
(-0.481057 -0.056429 -3.31101e-21)
(-0.315384 0.273684 0)
(-0.118516 0.124776 -2.75957e-20)
(-0.878161 0.407072 7.26563e-21)
(-0.669307 -0.163589 0)
(-0.747932 0.530661 1.91939e-20)
(-0.76437 0.527035 -1.43904e-20)
(-0.710103 0.0429147 9.01273e-21)
(-0.704971 0.0276814 3.45379e-21)
(-0.179895 0.0187177 -8.6616e-21)
(-0.167576 0.0287296 -4.33856e-21)
(-0.126296 0.173228 0)
(-0.610722 -0.239493 0)
(-0.914497 0.321353 2.76298e-21)
(-0.66901 0.412416 -6.01577e-21)
(-0.0197469 0.019598 0)
(-0.756298 -0.21144 0)
(-0.567386 0.200294 -6.45535e-23)
(-0.517236 0.274579 9.24422e-21)
(-0.421327 0.146769 4.675e-21)
(-0.730716 0.39935 -1.07044e-20)
(-0.730939 -0.240445 7.02156e-21)
(-0.0274003 0.0366415 1.21023e-21)
(-0.669152 0.474219 0)
(-0.687348 0.10585 -1.48311e-20)
(-0.242997 0.0295427 -7.37765e-25)
(-0.891012 0.375957 8.44177e-23)
(-0.65524 -0.205787 1.924e-20)
(-0.115097 0.140688 7.79686e-24)
(-0.591209 -0.283958 4.22584e-22)
(-0.0160108 0.0301288 -9.39478e-21)
(-0.655594 0.298109 -5.16932e-21)
(-0.55006 0.379716 -8.77706e-21)
(-0.331185 0.0524174 8.64944e-21)
(-0.672072 0.181385 2.38994e-20)
(-0.640931 0.258207 0)
(-0.442177 0.0963903 -2.33926e-20)
(-0.436704 0.257551 1.19112e-20)
(-0.813106 0.443165 0)
(-0.055591 0.0584946 1.29544e-20)
(-0.752165 -0.191155 8.28231e-24)
(-0.659954 0.261347 0)
(-0.430695 0.0806083 -8.26402e-21)
(-0.429608 0.269868 -1.68241e-20)
(-0.551735 0.204861 9.51962e-21)
(-0.510641 0.257869 -4.91014e-21)
(-0.4404 0.162046 2.46005e-21)
(-0.488134 0.472137 8.94259e-21)
(-0.845983 0.192706 -6.82127e-21)
(-0.363173 -0.112012 1.37562e-20)
(-0.636051 0.215775 0)
(-0.390132 0.0902412 0)
(-0.493218 0.313219 1.37965e-21)
(-0.663149 0.234348 1.15696e-20)
(-0.396845 0.0757356 6.36981e-21)
(-0.476261 0.310601 1.96461e-22)
(-0.677753 0.544863 2.05987e-20)
(-0.756419 0.0985584 -1.1548e-20)
(-0.225241 -0.0328888 -1.51934e-20)
(-0.080531 0.0749215 1.95525e-20)
(-0.0819924 0.0820788 -1.98151e-20)
(-0.733457 -0.156663 5.70766e-21)
(-0.721377 -0.169533 3.95712e-21)
(-0.841115 0.454761 0)
(-0.848416 0.443339 -6.37833e-21)
(-0.901322 0.369116 1.10826e-20)
(-0.635463 -0.187175 -1.1954e-20)
(-0.135061 0.163314 1.67036e-20)
(-0.19578 -0.0313951 -9.85493e-21)
(-0.713113 0.570324 4.21808e-21)
(-0.759715 0.0754296 1.49995e-20)
(-0.584693 0.438674 -8.53941e-21)
(-0.293923 0.0119347 -9.07726e-21)
(-0.713107 0.157461 7.52847e-21)
(-0.880605 0.237537 0)
(-0.43537 -0.135531 9.07874e-21)
(-0.383019 0.391702 2.89327e-22)
(-0.612556 -0.291605 6.93675e-21)
(-0.0377372 0.0635233 -8.73348e-21)
(-0.774635 0.310113 -4.5022e-21)
(-0.182502 0.231501 0)
(-0.927842 0.308747 0)
(-0.577161 -0.215609 8.0477e-21)
(-0.815779 0.409452 5.47863e-21)
(-0.0528035 0.0671885 0)
(-0.726664 -0.225781 -6.98544e-21)
(-0.0109553 0.0214869 -3.47601e-32)
(-0.565826 -0.274817 -6.55469e-21)
(-0.602054 0.284231 5.23025e-21)
(-0.60919 -0.235876 7.33836e-21)
(-0.00902003 0.0151208 3.46799e-32)
(-0.576811 0.328402 -4.65095e-21)
(-0.521669 -0.0956237 -1.76961e-20)
(-0.86244 0.332522 0)
(-0.267147 0.250421 -2.53834e-20)
(-0.620833 -0.266792 -3.7192e-21)
(-0.0846772 0.127008 -8.90887e-21)
(-0.884158 0.31915 0)
(-0.867633 0.401372 -9.75142e-21)
(-0.610051 -0.106513 1.01089e-20)
(-0.178162 0.163349 1.3266e-20)
(-0.787421 0.496617 1.62666e-20)
(-0.0560854 0.0270083 7.92555e-21)
(-0.801998 -0.129045 0)
(-0.697902 0.345988 4.42193e-21)
(-0.3218 0.184582 -4.86522e-21)
(-0.520686 0.0633592 4.56084e-21)
(-0.601626 -0.232569 4.16379e-21)
(-0.143568 0.19232 9.39335e-21)
(-0.920223 0.317581 3.04607e-21)
(-0.868987 0.228784 -7.71797e-21)
(-0.406638 0.40982 -5.12329e-21)
(-0.418213 -0.125255 0)
(-0.485444 -0.133602 0)
(-0.88366 0.285118 0)
(-0.306084 0.317842 0)
(-0.00215682 0.00283366 0)
(-0.363008 -0.160983 -5.53452e-21)
(-0.344088 0.168751 3.82673e-21)
(-0.656465 -0.276642 6.94972e-21)
(-0.0208465 0.0357077 -1.13463e-20)
(-0.702256 0.351499 -5.47666e-21)
(-0.675443 0.331947 -1.13514e-20)
(-0.342155 0.188523 1.14498e-20)
(-0.513249 0.0799727 5.26891e-21)
(-0.635726 -0.22918 1.71675e-20)
(-0.902354 0.348686 -6.03451e-21)
(-0.110658 0.150372 0)
(-0.117051 0.167348 -9.87193e-21)
(-0.913702 0.313595 0)
(-0.605983 -0.253595 -1.28269e-20)
(-0.867602 0.429347 -6.63067e-21)
(-0.108428 0.107722 2.96121e-20)
(-0.686044 -0.150978 0)
(-0.103172 0.0442506 -2.24674e-20)
(-0.738384 -0.0676184 8.73375e-21)
(-0.819857 0.514337 0)
(-0.661425 0.557549 -2.59341e-20)
(-0.777204 0.107794 1.47147e-20)
(-0.239757 -0.0521768 -4.83245e-21)
(-0.720805 0.0095734 2.62713e-21)
(-0.778683 0.541964 8.32807e-21)
(-0.15087 0.021128 -1.36817e-20)
(-0.0836535 0.0254371 -2.01831e-20)
(-0.806487 0.525707 0)
(-0.776578 -0.080569 0)
(-0.694894 0.455106 -4.0833e-21)
(-0.718305 0.469546 0)
(-0.647387 0.0856882 -1.54326e-20)
(-0.653927 0.06921 1.64966e-20)
(-0.239819 0.0662245 2.30339e-21)
(-0.222079 0.0621678 -2.45612e-21)
(-0.672279 0.457328 3.91812e-21)
(-0.664335 0.10307 0)
(-0.249912 0.0509815 4.43104e-21)
(-0.737296 0.545286 0)
(-0.726575 0.0521761 -1.45633e-20)
(-0.182388 0.00325018 3.12473e-21)
(-0.509404 -0.151777 -9.24837e-21)
(-0.900226 0.292671 7.0117e-21)
(-0.274985 0.295841 -2.03542e-20)
(-0.622429 -0.203923 0)
(-0.905464 0.35473 1.68309e-20)
(-0.137652 0.173584 0)
(-0.236736 0.254482 -6.57206e-21)
(-0.899568 0.319903 -4.4725e-21)
(-0.543205 -0.151324 -6.05642e-21)
(-0.649357 -0.234829 -1.00878e-21)
(-0.0108818 0.0169281 6.05936e-21)
(-0.607422 0.352814 0)
(-0.598674 0.386045 7.89123e-21)
(-0.608531 0.375708 0)
(-0.31402 0.0824532 0)
(-0.632185 0.150447 2.93329e-20)
(-0.319863 0.101125 0)
(-0.610762 0.140588 -1.86138e-20)
(-0.70696 0.525028 0)
(-0.682298 0.510848 0)
(-0.225696 0.00558593 3.53629e-23)
(-0.717814 0.0793578 9.01117e-21)
(-0.209537 0.00784822 2.28197e-20)
(-0.716161 0.0945093 -1.90009e-20)
(-0.567915 -0.293303 0)
(-0.0200018 0.0378683 1.27718e-20)
(-0.68378 0.285925 0)
(-0.638347 -0.220075 -1.0096e-20)
(-0.902853 0.356634 1.84457e-21)
(-0.115701 0.149514 5.93676e-21)
(-0.594299 0.476324 -1.47241e-20)
(-0.284635 -0.0248372 -1.04438e-20)
(-0.750536 0.151463 2.49678e-20)
(-0.472742 -0.156977 2.00107e-20)
(-0.901114 0.256781 1.83409e-20)
(-0.329381 0.357171 0)
(-0.10973 0.0388369 2.40241e-20)
(-0.736753 -0.0546847 -9.293e-21)
(-0.815278 0.521644 9.09762e-21)
(-0.686475 -0.266434 0)
(-0.783933 0.371318 0)
(-0.0369776 0.0573864 0)
(-0.678616 -0.262915 0)
(-0.811185 0.365507 5.03318e-21)
(-0.0479239 0.0726825 2.16047e-21)
(-0.768069 0.510057 -7.96032e-21)
(-0.684818 0.021596 5.23964e-21)
(-0.171903 0.0457587 6.42214e-21)
(-0.506672 0.376799 -2.30671e-21)
(-0.349502 0.0182112 0)
(-0.714653 0.209833 -1.00335e-22)
(-0.86063 0.430035 7.72608e-21)
(-0.0959066 0.0974342 1.72936e-20)
(-0.703195 -0.16359 -4.6095e-21)
(-0.523176 -0.114617 0)
(-0.87522 0.326436 0)
(-0.261347 0.261722 2.18719e-20)
(-0.133978 0.104128 5.5799e-21)
(-0.670095 -0.0927586 1.39749e-20)
(-0.848639 0.454717 2.03941e-20)
(-0.664737 0.510551 0)
(-0.236959 -0.00556257 -1.52371e-20)
(-0.727295 0.106231 9.68612e-21)
(-0.796073 0.256925 1.03165e-22)
(-0.407269 -0.0445037 8.8998e-21)
(-0.407666 0.348288 0)
(-0.563824 0.412596 1.36941e-22)
(-0.311344 0.0227676 -2.96163e-21)
(-0.702824 0.171191 -9.86665e-21)
(-0.0944413 0.105203 2.30551e-24)
(-0.695277 -0.184912 1.09458e-20)
(-0.866353 0.412486 8.61529e-21)
(-0.8277 0.468297 -3.74764e-21)
(-0.662575 -0.0525589 -4.10023e-21)
(-0.151007 0.0944733 0)
(-0.559978 0.370381 -8.55843e-21)
(-0.334879 0.0715999 1.85818e-20)
(-0.649509 0.175357 -1.57471e-20)
(-0.798168 0.520761 6.36501e-21)
(-0.0716986 0.0218901 9.0021e-21)
(-0.7923 -0.097045 -6.64501e-21)
(-0.66375 0.417364 -4.96118e-21)
(-0.621022 0.102185 0)
(-0.272517 0.0871713 0)
(-0.709592 0.282891 -2.06864e-20)
(-0.438287 0.0416706 5.14062e-21)
(-0.39582 0.271098 0)
(-0.486983 -0.113224 0)
(-0.87024 0.29488 1.44552e-20)
(-0.30256 0.302673 0)
(-0.757691 0.458328 -3.54771e-21)
(-0.0385514 0.0297853 -2.78034e-21)
(-0.796573 -0.178099 7.69042e-21)
(-0.759408 0.472911 9.79823e-21)
(-0.0408234 0.026071 0)
(-0.805598 -0.160483 -7.314e-21)
(-0.124861 0.0882781 5.11011e-21)
(-0.686722 -0.0867697 -8.33947e-21)
(-0.842014 0.468722 -1.87117e-20)
(-0.812046 0.240463 -6.83869e-21)
(-0.398338 -0.0652413 -8.91385e-21)
(-0.423516 0.374911 0)
(-0.0294049 0.0232109 2.54727e-21)
(-0.795545 -0.191309 -7.18971e-21)
(-0.720954 0.444346 0)
(-0.164557 0.159739 0)
(-0.620824 -0.126088 -8.54308e-21)
(-0.876738 0.39651 -2.35143e-21)
(-0.0077614 0.0157844 1.02126e-20)
(-0.486527 -0.264936 7.3355e-21)
(-0.535075 0.231191 0)
(-0.489026 0.300837 -5.25059e-21)
(-0.558267 -0.200999 0)
(-0.00572895 0.00780379 1.02366e-20)
(-0.0900822 0.0371727 2.10181e-23)
(-0.758939 -0.0832312 0)
(-0.814792 0.515982 0)
(-0.0742678 0.0956914 0)
(-0.695329 -0.219836 0)
(-0.857978 0.397341 1.15131e-20)
(-0.841679 0.463856 -6.77995e-21)
(-0.847251 0.462793 5.48595e-21)
(-0.0887288 0.0714738 -9.8025e-21)
(-0.729789 -0.131996 -1.86875e-21)
(-0.100499 0.0804884 -1.58684e-20)
(-0.71095 -0.121237 3.35536e-21)
(-0.884911 0.380222 4.55186e-21)
(-0.605723 -0.135241 5.62667e-21)
(-0.175319 0.177895 0)
(-0.365284 0.392759 0)
(-0.448813 -0.155714 0)
(-0.897923 0.239219 0)
(-0.606193 0.343792 0)
(-0.346188 0.132778 -2.52586e-20)
(-0.575139 0.139515 1.02422e-20)
(-0.889067 0.346989 1.30434e-20)
(-0.564663 -0.136385 2.06323e-21)
(-0.21405 0.222257 1.94039e-20)
(-0.234979 0.242893 1.26086e-20)
(-0.888479 0.333956 -1.81366e-20)
(-0.546721 -0.134893 -2.86385e-21)
(-0.800805 0.543631 7.22267e-21)
(-0.0905016 0.0154695 9.66277e-21)
(-0.779297 -0.0600437 1.44589e-20)
(-0.712615 0.538264 0)
(-0.729152 0.0744159 4.32682e-21)
(-0.201091 -0.00209322 -2.23658e-20)
(-0.687557 0.489666 0)
(-0.694448 0.0937477 1.94805e-20)
(-0.229055 0.0233401 2.89995e-23)
(-0.852738 0.362374 -1.68885e-20)
(-0.550114 -0.0833935 2.4857e-21)
(-0.237148 0.21131 -1.10176e-20)
(-0.863528 0.352596 0)
(-0.545174 -0.0973519 2.33147e-21)
(-0.240302 0.22332 1.01314e-20)
(-0.543532 0.3484 0)
(-0.354571 0.0853291 -2.93432e-20)
(-0.636934 0.185218 8.82445e-21)
(-0.72129 0.483786 0)
(-0.667739 0.0643521 0)
(-0.2115 0.0477945 3.34601e-21)
(-0.158424 0.213499 -2.03235e-20)
(-0.584067 -0.235772 -2.27005e-20)
(-0.929877 0.304975 0)
(-0.824622 0.345393 6.83704e-21)
(-0.0511309 0.0804576 0)
(-0.64939 -0.275428 4.99492e-21)
(-0.811665 0.321385 -1.41326e-22)
(-0.0477689 0.0778517 0)
(-0.627249 -0.283732 -1.4348e-20)
(-0.622712 0.437354 5.9033e-21)
(-0.278417 0.0429705 -3.22591e-21)
(-0.674754 0.134372 -1.28674e-22)
(-0.660769 -0.276543 1.897e-22)
(-0.0296519 0.0490218 1.73536e-20)
(-0.754198 0.350005 0)
(-0.832497 0.478321 1.60986e-20)
(-0.132772 0.0827809 1.07371e-20)
(-0.684238 -0.0657921 0)
(-0.0297925 0.0517976 -2.5748e-21)
(-0.620309 -0.291039 -7.80421e-21)
(-0.746022 0.317378 0)
(-0.627605 0.279876 1.41601e-20)
(-0.413961 0.224534 1.51517e-20)
(-0.47494 0.114365 7.35124e-23)
(-0.771396 0.399846 -2.49707e-21)
(-0.564485 0.0117306 -2.53352e-21)
(-0.25019 0.154437 -1.13965e-20)
(-0.376614 -0.0566527 2.02858e-20)
(-0.79911 0.226169 1.60762e-20)
(-0.453861 0.393907 0)
(-0.0959044 0.138667 0)
(-0.624614 -0.25567 -4.6527e-21)
(-0.895195 0.327951 0)
(-0.509135 -0.121968 0)
(-0.878615 0.312364 0)
(-0.275891 0.27901 0)
(-0.067015 0.0312627 0)
(-0.802121 0.50336 -5.95418e-21)
(-0.788357 -0.114405 6.51273e-21)
(-0.792156 0.4053 0)
(-0.570126 -0.00921551 1.25384e-21)
(-0.236209 0.156638 1.11512e-20)
(-0.594973 0.32863 0)
(-0.364345 0.144719 2.16732e-20)
(-0.563717 0.145772 0)
(-0.645975 -0.241705 -1.62475e-20)
(-0.886959 0.351777 5.73123e-21)
(-0.0942861 0.131056 0)
(-0.142059 0.128314 -1.17164e-20)
(-0.650551 -0.119966 5.44257e-22)
(-0.865666 0.424791 2.01253e-22)
(-0.785771 0.44028 0)
(-0.771494 0.432653 6.63349e-21)
(-0.0441242 0.0453843 -6.37873e-21)
(-0.0387119 0.0429423 -7.85159e-21)
(-0.766716 -0.196382 -4.71026e-21)
(-0.762719 -0.209325 3.8727e-21)
(-0.78644 0.317123 0)
(-0.470257 -0.0235502 3.41352e-20)
(-0.329443 0.260456 1.20252e-20)
(-0.501885 -0.0791589 2.48232e-20)
(-0.847068 0.323115 0)
(-0.283452 0.259917 -1.32839e-20)
(-0.685345 0.301454 -1.1656e-20)
(-0.46929 0.0642917 8.78913e-21)
(-0.371786 0.231859 1.85861e-20)
(-0.648182 -0.268267 1.08592e-20)
(-0.855633 0.344456 7.36509e-21)
(-0.630651 -0.27372 -5.18668e-21)
(-0.0651191 0.0988714 0)
(-0.862747 0.32714 -7.11359e-21)
(-0.0702454 0.106753 0)
(-0.829119 0.416581 0)
(-0.594758 -0.0520529 0)
(-0.201506 0.151864 1.24706e-20)
(-0.875188 0.363433 1.01416e-20)
(-0.860927 0.359034 -1.89145e-20)
(-0.662649 -0.241338 7.12433e-21)
(-0.664822 -0.253864 -1.78374e-20)
(-0.0810687 0.113932 1.74711e-20)
(-0.069096 0.100232 1.50415e-24)
(-0.838696 0.312594 0)
(-0.481814 -0.0762306 -2.28286e-20)
(-0.310817 0.285701 1.72548e-20)
(-0.755877 0.347656 1.09206e-20)
(-0.519513 0.00567523 -1.52331e-20)
(-0.285554 0.197048 0)
(-0.786979 0.483105 0)
(-0.0515754 0.0327067 0)
(-0.795067 -0.148393 7.02608e-21)
(-0.785364 0.332921 8.02574e-21)
(-0.488673 -0.0163946 -9.48811e-21)
(-0.310379 0.238913 -1.99969e-20)
(-0.711087 0.316637 4.68314e-21)
(-0.478958 0.0442536 -1.03027e-20)
(-0.350261 0.225725 1.08971e-20)
(-0.776862 0.452879 0)
(-0.0447909 0.0387461 0)
(-0.783476 -0.182755 -9.6682e-21)
(-0.791591 0.422604 0)
(-0.59392 -0.00666886 2.70274e-21)
(-0.214558 0.133563 -1.24077e-20)
(-0.4045 -0.131748 0)
(-0.871183 0.216798 0)
(-0.430244 0.437369 -6.60492e-22)
(-0.660694 0.523787 -6.62742e-22)
(-0.743947 0.110093 0)
(-0.237248 -0.0211037 2.3718e-20)
(-0.524777 -0.196267 1.08534e-20)
(-0.252782 0.303881 0)
(-0.928114 0.276586 0)
(-0.00465066 0.00792849 -2.4586e-20)
(-0.471221 -0.208646 7.74751e-21)
(-0.456469 0.230427 -5.35667e-21)
(-0.790627 0.367396 0)
(-0.526506 -0.0109764 9.3562e-21)
(-0.271666 0.196945 -1.02441e-20)
(-0.817431 0.474099 1.12092e-20)
(-0.0659719 0.0515921 3.31805e-20)
(-0.764281 -0.144344 0)
(-0.275174 -0.0707042 -6.34806e-21)
(-0.797793 0.136578 -9.56643e-21)
(-0.610332 0.537415 -5.91931e-21)
(-0.592554 0.370716 0)
(-0.0114379 0.0135787 -9.22607e-21)
(-0.688994 -0.219308 0)
(-0.46231 0.332847 1.14947e-20)
(-0.470585 0.354711 -1.17741e-20)
(-0.380738 0.029569 0)
(-0.708837 0.234675 1.00489e-20)
(-0.370508 0.0106011 -1.90132e-20)
(-0.728531 0.225938 -8.0963e-21)
(-0.682292 0.283255 1.09635e-20)
(-0.446936 0.0662942 1.16003e-20)
(-0.399472 0.255355 0)
(-0.521416 0.366753 1.01214e-20)
(-0.492388 0.345005 0)
(-0.346692 0.0433599 -1.05173e-20)
(-0.685687 0.198871 9.03017e-21)
(-0.365797 0.0477255 1.05949e-20)
(-0.685054 0.216075 7.73465e-23)
(-0.773849 0.363602 6.92305e-22)
(-0.499189 0.0136767 -6.60682e-21)
(-0.311915 0.216391 -1.34575e-20)
(-0.761015 0.335344 -1.87635e-20)
(-0.488021 0.00597379 1.7522e-22)
(-0.322746 0.232733 0)
(-0.0580622 0.0937101 0)
(-0.613366 -0.286861 0)
(-0.8397 0.312188 7.64075e-21)
(-0.649215 0.439288 -5.44301e-21)
(-0.659196 0.118793 0)
(-0.267364 0.0556975 5.97501e-21)
(-0.873137 0.382045 -1.83166e-20)
(-0.675041 -0.224101 8.18269e-21)
(-0.083989 0.112191 -9.97207e-21)
(-0.854399 0.381015 0)
(-0.865702 0.384889 9.38764e-21)
(-0.573406 -0.0848592 -3.09646e-21)
(-0.588127 -0.10023 9.94025e-21)
(-0.212126 0.188445 -1.37643e-20)
(-0.196921 0.182062 -1.28134e-20)
(-0.645838 0.418958 0)
(-0.637498 0.117573 0)
(-0.279425 0.0748285 2.80678e-21)
(-0.737893 0.514004 6.41102e-21)
(-0.694882 0.0529191 0)
(-0.192765 0.029433 7.45236e-21)
(-0.826632 0.383409 -4.83295e-21)
(-0.555935 -0.0523129 0)
(-0.23214 0.188524 0)
(-0.54876 0.290044 1.1138e-20)
(-0.558456 0.177079 -5.48713e-21)
(-0.402524 0.152047 5.83085e-21)
(-0.876952 0.359623 0)
(-0.566618 -0.117337 0)
(-0.21524 0.211872 -2.06309e-20)
(-0.587393 0.350933 0)
(-0.342242 0.112406 3.20745e-21)
(-0.599793 0.154285 0)
(-0.832435 0.333814 -1.08404e-20)
(-0.50181 -0.0644471 -1.27395e-20)
(-0.288817 0.250817 -1.72027e-21)
(-0.741513 0.495113 6.47253e-21)
(-0.675035 0.0471752 0)
(-0.196163 0.0460334 1.53103e-20)
(-0.558752 0.311269 -1.10451e-20)
(-0.544062 0.315847 -4.94204e-21)
(-0.574118 0.169327 5.37136e-21)
(-0.381761 0.137513 -1.15143e-20)
(-0.596961 0.180318 0)
(-0.377553 0.120188 -2.05821e-20)
(-0.516508 0.332138 -5.02366e-21)
(-0.368341 0.0780026 1.37146e-20)
(-0.495895 0.334084 3.23535e-21)
(-0.645725 0.20097 -1.21792e-20)
(-0.375971 0.0604298 -6.57744e-21)
(-0.671906 0.21767 2.21435e-22)
(-0.6916 0.436944 5.88328e-21)
(-0.716041 0.434688 0)
(-0.626442 0.083835 1.14077e-20)
(-0.613947 0.0665181 -8.90158e-21)
(-0.250781 0.0841193 -1.32913e-20)
(-0.244485 0.0978996 2.21176e-20)
(-0.110442 0.0591595 0)
(-0.718564 -0.0720354 -5.13443e-21)
(-0.827273 0.49746 -9.64646e-21)
(-0.455619 0.444931 8.00047e-21)
(-0.852064 0.209387 1.07597e-20)
(-0.385398 -0.11366 -2.16219e-20)
(-0.101163 0.0615448 -1.11813e-20)
(-0.106946 0.0748958 8.92846e-21)
(-0.724732 -0.0926708 4.43774e-21)
(-0.70862 -0.101452 7.61829e-21)
(-0.831721 0.490706 2.46895e-20)
(-0.841403 0.475541 -1.28501e-20)
(-0.548165 0.476553 1.08563e-20)
(-0.315079 -0.0560172 -1.00126e-20)
(-0.787847 0.173582 2.38488e-21)
(-0.538019 0.254022 1.87699e-20)
(-0.445225 0.187293 0)
(-0.520556 0.183196 -1.8747e-20)
(-0.876528 0.374094 -4.51289e-21)
(-0.586015 -0.118218 -1.12227e-20)
(-0.196753 0.192272 0)
(-0.616027 0.403077 0)
(-0.295916 0.0696007 -2.67585e-21)
(-0.642618 0.13866 -9.52435e-21)
(-0.754659 0.494328 0)
(-0.670463 0.0357041 0)
(-0.188293 0.0537089 -1.4268e-20)
(-0.812391 0.515804 -1.03673e-20)
(-0.816624 0.501688 0)
(-0.716588 -0.0397496 2.69597e-21)
(-0.12521 0.0475979 -1.36349e-20)
(-0.699653 -0.0409889 -7.35371e-21)
(-0.13254 0.0612332 1.84435e-20)
(-0.843701 0.408152 9.1393e-21)