/*--------------------------------*- C++ -*----------------------------------*\
  =========                 |
  \\      /  F ield         | OpenFOAM: The Open Source CFD Toolbox
   \\    /   O peration     | Website:  https://openfoam.org
    \\  /    A nd           | Version:  6
     \\/     M anipulation  |
\*---------------------------------------------------------------------------*/
FoamFile
{
    version     2.0;
    format      ascii;
    class       volScalarField;
    location    "0";
    object      p;
}
// * * * * * * * * * * * * * * * * * * * * * * * * * * * * * * * * * * * * * //

dimensions      [0 2 -2 0 0 0 0];

internalField   nonuniform List<scalar> 
13046
(
0.0545256
0.0352069
0.0454277
0.0624695
0.0478774
0.0267828
0.0519441
0.0306222
0.0501849
-0.0114675
-0.258845
0.0242716
0.0571818
-0.00247974
0.0389208
0.00417909
0.0203656
-0.212799
0.0602841
0.042603
0.0512527
0.00241787
0.0226979
-0.221316
0.0541612
0.0514869
0.0430361
0.0503305
0.00512538
0.0404856
0.0598174
0.0169411
0.0374487
0.0583623
0.0500797
0.0433269
0.0553348
0.0525415
0.0471865
0.0523501
0.03447
0.0330577
0.0496502
0.0612212
0.0518216
0.0552774
0.0500775
0.0487771
0.050458
0.0299754
0.0470297
0.00432895
0.0468441
0.0199136
0.017494
0.0151486
0.0491586
-0.09057
0.0360794
0.0195158
0.0402356
-0.0321645
0.0398761
0.0274587
-0.148163
0.0179507
0.0376389
-0.0759933
0.0151903
0.0415592
-0.0640252
0.015307
-0.112266
0.0322146
0.0198816
0.0612881
0.0530846
0.0436328
0.0236422
0.0250801
-0.128135
0.0532375
0.0441138
0.0419245
0.0259877
-0.171657
0.00951872
0.0100701
0.0321489
-0.134811
0.0328088
-0.00453059
-0.142111
0.0405992
0.0362776
-0.0515278
-0.0669941
0.0308753
0.0331119
0.0337528
0.00943671
-0.122032
0.0595859
0.0519175
0.0438701
0.0534185
0.0231228
0.021159
0.0493317
0.0290291
0.0304928
-0.0421881
0.0225099
-0.356434
0.0573085
0.0121272
0.0374115
0.0355947
0.0389081
-0.0806143
0.0273446
-0.0567643
0.0276895
-0.0175119
-0.284591
0.0233524
0.0517767
-0.0396091
0.037766
0.0524259
0.0336118
0.02801
0.0340083
-0.00164619
-0.1137
0.0299838
-0.0953009
0.0319519
0.0583917
0.0110219
0.033676
0.046789
0.023754
0.0453582
0.045668
0.0167707
0.0370616
0.0523688
0.0358065
0.0352041
0.0418349
-0.0494494
0.0385427
0.0564595
0.039538
0.0285736
-0.0084758
0.0204709
-0.0178018
0.0207464
0.0453033
0.0444258
0.052134
-0.00190914
0.0451643
-0.0147982
0.0250892
-0.254067
-0.0312422
0.0227876
-0.332689
0.0278389
-0.113284
0.030663
0.0537364
-0.00132071
0.0283641
0.0509775
0.0463649
0.00678788
0.0276949
-0.220854
-0.00973764
0.0522802
0.011445
0.0224049
0.0555587
0.0327882
0.0217259
0.0497898
0.024617
0.0449808
-0.0112145
0.0436522
0.0511176
-0.0206592
0.0355348
0.00798291
0.0291776
-0.163414
0.0345277
0.00775283
-0.108714
-0.00416619
-0.148638
0.0317302
-0.00323852
0.0088018
0.0431673
0.0523261
0.0262539
0.0181567
-0.124862
-0.175719
-0.00298354
0.0299238
0.0537512
0.0534736
0.0446068
0.0513131
0.0152719
0.0370571
0.0357004
0.00214796
-0.102033
0.050456
-0.00533815
0.046454
0.0242445
-0.301088
-0.0305489
0.0430827
0.0111975
-0.0104029
0.00174751
-0.127186
0.033553
0.028898
-0.00793522
0.0473463
0.0470517
-0.0265307
0.0382876
-0.0660211
0.00748922
0.0358758
0.0173194
-0.030481
0.0411461
0.02541
-0.304525
-0.0372631
0.0540605
0.0299533
0.0157588
-0.0325508
0.0190885
-0.389126
0.0546666
0.0576604
0.0384759
0.0373223
0.0340213
-0.00774778
-0.00240787
0.0479398
0.0428711
0.0177454
0.021217
-0.152149
0.0491729
-0.0127714
0.0321274
0.0173602
-0.0537899
0.0397315
0.0303126
-0.0877969
0.0297039
0.0518463
0.0456831
0.058846
0.0277959
-0.0192743
0.0438498
0.050606
-0.0265463
0.0311249
0.0506971
0.0512607
0.0549451
0.021497
0.00303198
0.0290037
-0.0339395
0.0418907
0.0230329
0.0290753
-0.0997256
0.0561993
0.0247289
0.0214147
0.0451865
0.0119297
-0.0185226
0.0387245
-0.0633762
0.0235007
0.0483355
0.007148
0.0126368
0.0333527
0.0336968
-0.0761748
0.0231023
-0.0876963
0.0261269
0.0273069
-0.205266
-0.00589286
0.0403843
-0.0410534
0.029853
-0.430387
0.0196115
-0.0559574
0.0575111
0.0509577
0.0202822
0.0449521
-0.0205732
0.0405262
0.0304659
0.0129512
-0.139161
0.0109921
0.0095555
0.0480648
-0.0842393
0.00651018
0.0354102
0.0167997
0.0433788
0.0390495
-0.0214614
0.03881
0.00331719
0.0464567
0.0119726
0.0211886
-0.189272
0.00567704
-0.00407374
0.04563
0.03521
-0.031882
0.0358194
0.0426071
0.0113488
0.0480836
0.028353
0.00666295
0.0497265
0.0576899
0.0254703
0.045958
0.042391
0.0176542
-0.0112908
0.00123975
-0.1597
0.0308023
-0.0767207
0.00386635
0.0374768
0.0399967
0.0126908
-0.0326854
0.0290585
0.0317745
-0.0891748
-0.109916
0.0176996
0.020618
0.0205043
-0.413657
-0.0489893
-0.0272936
0.0189567
-0.373759
0.0376184
-0.0135331
0.040166
0.0278155
0.00626752
-0.185572
0.0395171
0.0399945
-0.0469631
-0.0642984
0.0247366
0.02107
0.0292639
-0.208569
-0.0200776
-0.0376154
0.0181214
-0.407942
0.0447505
0.0594567
0.0492619
-0.0406056
-0.381325
0.0214819
0.05271
-0.00590329
0.0229557
-0.00725529
-0.209347
0.0280748
-0.414765
0.0251516
-0.0769712
0.0527748
0.0324768
0.0386972
0.0520515
0.0504449
0.0516681
-0.0157875
0.0222087
-0.292194
0.0489001
0.0406377
0.0507014
0.0465618
0.0582925
0.0524761
0.0462136
0.00218523
-0.00588994
0.0433609
0.04893
0.0562464
0.0589731
0.019395
0.0516037
0.0420247
-0.0216092
0.0120187
0.0230397
0.0250084
-0.225415
-0.23051
-0.00268455
-0.00360551
-0.00801002
-0.1723
0.0304569
0.0205072
0.0409769
-0.0535274
0.049968
0.0215727
0.0233684
0.01615
-0.0378623
0.0378736
-0.349176
0.0256503
-0.064806
0.0317579
-0.00664965
-0.158744
-0.0269625
0.0234194
-0.307736
0.0250067
-0.436008
-0.0768356
-0.470724
0.0215647
-0.0636527
-0.0451566
0.029166
0.0376067
-0.26319
0.0279684
-0.0397105
0.0234185
-0.0996608
0.0330871
-0.00237025
0.0169742
-0.266275
0.0546243
0.0423877
0.0323451
-0.188816
0.0301276
-0.0138994
0.0148507
0.0386257
-0.0312536
-0.0606855
0.0171138
0.0399372
0.0247704
-0.534747
-0.0955984
-0.402424
0.0225099
-0.0650747
0.0575733
0.0470234
0.028944
-0.217653
-0.0239458
0.0295687
0.0295097
-0.0302104
-0.22381
0.00293616
0.0265056
-0.184376
0.0201626
-0.151658
0.017548
0.0460341
-0.0244862
0.0145123
-0.0830954
0.0365893
0.0245778
0.0195512
0.0145599
-0.197282
0.0514839
0.0506067
-0.00388172
-0.0152248
0.0299117
0.0326832
0.051921
0.00368814
0.0288789
0.0438051
-0.0526663
0.0258289
-0.0668412
0.0102978
0.0380382
-0.184216
-0.00437446
0.0296887
0.0354434
0.0138034
-0.0870863
-0.468478
0.0197372
-0.0556139
0.058943
0.0578979
0.0397473
0.0263575
0.0449512
0.0309185
0.049157
0.0435935
0.0234248
-0.0348449
0.0227432
-0.00605214
-0.406216
0.0238316
-0.0749626
-0.207857
-0.0191705
0.0298247
0.0470328
0.00952983
0.00994014
-0.0523504
0.0093168
0.0379984
0.0200154
-0.139261
0.0211426
-0.353627
-0.0476899
0.0240547
-0.327394
-0.0445303
0.0248415
0.0420875
-0.056327
0.027843
0.0557799
0.0187994
0.0284908
0.000418904
0.0254311
-0.209978
-0.0567039
0.0210146
0.0392792
0.0289529
-0.12899
0.022627
0.0449754
0.0254949
-0.000392019
0.0328895
-0.00302696
0.0463634
0.0529769
0.029977
0.026659
0.0259291
-0.221862
-0.00578102
0.0304455
-0.0942014
0.027388
0.0566417
0.0365063
0.0351534
0.00794248
0.0174417
-0.222804
0.0517372
0.0207572
0.0380612
0.0493034
0.0170277
0.0508678
-0.0463854
0.023168
0.0401252
-0.0180595
0.0188302
-0.329572
-0.0130313
0.017854
-0.316781
0.027051
-0.135757
0.0224938
0.0287086
0.00582399
0.0449562
0.0178806
-0.360858
-0.0273846
0.0313789
-0.122218
0.0195396
0.0239366
-0.457816
-0.0837256
-0.0708619
-0.483268
0.0211861
0.02144
-0.184808
0.0158997
0.0254467
-0.266512
-0.020889
0.00662833
0.0106115
0.0225691
-0.205197
0.0244196
-0.178844
0.0142729
-0.113332
0.0328825
0.0420285
-0.0432862
0.00351441
0.0619776
0.0413111
0.0293129
0.018661
-0.0965346
0.0354537
0.0361746
0.0212921
-0.0859018
0.0186493
0.0187488
-0.181429
0.0477992
-0.0466125
0.0219667
0.0490156
-0.0132118
0.0187297
0.0283912
-0.052378
0.0385526
0.027188
-0.0600992
0.0384234
0.0565324
0.0295336
0.0417986
0.0509543
-0.0240655
0.0356406
0.0308272
-0.181028
-0.0183859
-0.0496825
0.0254121
-0.325329
-0.0572453
0.0272228
-0.324894
0.0530405
0.0326476
0.0173288
-0.374461
0.0245423
-0.0582598
0.0272758
0.026641
-0.119461
0.0248759
-0.367327
-0.0673066
0.060445
0.0501599
0.0319296
0.0496558
-0.00764665
0.039064
0.00414091
0.0258452
0.0465157
0.0282491
-0.249409
-0.032184
-0.062394
0.0240785
0.0387061
0.0181839
0.00384893
-0.236684
0.0429489
-0.0194205
0.0395307
0.0621779
0.045571
0.0308893
-0.246924
-0.0263535
0.0274605
0.0296667
-0.135276
0.018331
-0.0199708
-0.0260642
0.020769
0.0205407
-0.320824
-0.341814
0.0418475
-0.00010047
0.0462099
-0.0352107
0.0322399
0.0382131
0.04726
0.0261398
0.0517477
-0.293906
-0.0424548
-0.287438
0.0262316
-0.0417254
0.0263286
0.0374077
-0.0602189
0.0363889
-0.0267558
-0.0346644
-0.261174
-0.282876
0.0272323
0.0270018
0.0280796
-0.0240737
0.0440563
0.045796
0.00126713
0.0420984
-0.00676029
0.0187542
-0.282052
0.0497672
-0.0149123
0.0435776
0.0518117
0.0106889
0.0462729
-0.0182737
0.0194338
-0.309754
0.0461875
-0.0429662
0.0325255
-0.0162878
0.00395086
0.0411862
0.0468267
-0.0148444
0.0213727
-0.0976322
0.0336613
-0.00319793
0.0234849
-0.508853
-0.0869239
0.0422543
-0.0147311
0.0399956
-0.0020977
0.020878
-0.248211
0.0104972
-0.0158736
0.0457324
-0.057913
0.0198564
-0.43702
0.0535891
0.0503922
0.0220677
0.0375792
0.0256827
0.0400786
0.0525309
0.0233165
0.0515755
0.0518222
0.0557054
0.0286974
0.0437308
0.0425674
0.0360944
0.0443062
0.00384405
0.0474031
0.0494014
0.00593319
0.0478464
0.0264005
-0.310841
-0.0537868
0.0525835
0.0137464
0.0270281
-0.0198186
-0.249191
0.026715
0.0282514
0.0253489
-0.0656193
-0.0853402
0.035515
0.0335025
0.0504909
0.0300688
0.0329241
0.0428333
-0.0367571
0.0226819
0.0364594
-0.044035
0.0391429
0.0576539
0.0453129
0.0427858
0.0240305
-0.0834729
0.0357535
0.0572503
0.034769
0.0386098
0.0354482
-0.0274204
0.0426575
0.0423818
-0.0260406
0.0229697
0.0570489
0.0562891
0.0411363
0.048426
0.044861
0.0439693
0.0546316
0.0267925
0.0578342
0.0473906
0.0514578
0.0390656
0.0527832
0.0523041
0.002668
-0.00244027
0.034713
0.0303685
0.0215879
-0.147399
0.0216028
0.0413863
0.0113185
-0.0105628
0.0238763
0.0251234
-0.166958
-0.16089
0.0166505
0.0154844
0.0473617
0.0148377
0.00805523
0.0566902
0.050319
0.0482888
0.0236562
-0.097294
0.0342619
0.0577486
0.0344177
0.0197102
0.041769
-0.0349559
0.024097
0.02994
0.0306605
-0.120732
0.0237867
-0.111434
0.0245538
0.0319113
-0.0703281
0.033747
-0.0512445
-0.417111
0.0203578
0.00586138
-0.00384875
0.0447064
0.0441876
0.0463691
0.0121946
-0.0125853
0.0219565
-0.00641903
0.0169419
-0.0753193
0.0371098
0.043116
-0.0220992
0.0256988
0.0488148
0.00918415
-0.000781044
0.0441418
0.050656
0.0157499
0.0302266
0.0114041
-0.000342927
0.0450487
0.0244265
-0.00177261
0.0327482
-0.0625628
0.0363005
0.0568363
0.0363894
0.0434377
-0.0112154
0.0214505
-0.276111
0.04863
0.0129248
-0.00869804
0.0455205
0.0430371
-0.0386456
-0.0490562
0.023621
0.0293162
0.021678
-0.250965
-0.0043875
-0.00549384
0.0201181
-0.271623
-0.0117435
0.0203796
-0.288473
0.0269939
0.024519
-0.125141
0.0454093
-0.0117541
0.0273087
-0.220502
-0.192584
-0.0212844
-0.21603
-0.0775239
-0.334556
-0.132995
-0.175012
-0.313283
-0.0900311
-0.0931833
-0.344369
-0.230917
-0.0890312
-0.229194
-0.24559
-0.206259
-0.242529
-0.201733
-0.127745
-0.194547
-0.245811
-0.0752736
0.0161795
-0.0141485
-0.18372
-0.0647822
-0.345072
-0.17145
-0.238119
-0.336554
-0.139329
-0.198766
-0.208736
-0.320343
-0.187907
-0.0350977
-0.0782792
-0.201316
-0.127773
-0.266948
0.0168209
-0.298515
-0.0905152
-0.0456798
-0.269621
-0.259768
-0.303208
-0.337706
-0.30523
-0.0114725
-0.190558
-0.243198
-0.288764
-0.334061
-0.0176914
-0.127348
-0.192884
-0.317535
-0.0991648
-0.310267
-0.291552
-0.0137504
-0.162268
-0.197461
-0.124386
-0.178964
0.00807055
-0.0765003
-0.068147
-0.392818
-0.353812
-0.234767
-0.108968
-0.364781
-0.208637
-0.178128
-0.328277
-0.106103
-0.0489027
-0.238108
-0.209169
-0.327286
-0.267641
-0.276922
-0.0960792
-0.273599
-0.215137
-0.234144
-0.00761659
-0.252875
-0.101344
-0.0139649
-0.204488
-0.235925
-0.389382
-0.308774
-0.301098
-0.235755
-0.395226
-0.144497
-0.0718228
-0.0346464
0.00949754
-0.257389
-0.221946
-0.341691
-0.241627
-0.307659
-0.037705
-0.0670113
-0.12606
-0.301303
-0.366141
-0.118075
-0.0550566
-0.249589
-0.214859
-0.39124
-0.248424
-0.215904
0.000189498
2.85839e-05
-0.10605
-0.180832
-0.224133
-0.345117
0.00248441
-0.247132
-0.111425
-0.402605
-0.0132923
-0.325839
-0.262513
-0.233593
-0.0513986
-0.218347
-0.417044
-0.290412
-0.131377
-0.24759
-0.0933964
-0.118308
-0.257134
-0.0442561
-0.28856
-0.274483
-0.0425758
-0.287977
-0.242698
-0.34051
-0.163171
-0.203834
-0.0475772
-0.101726
-0.259486
-0.109999
-0.0905734
-0.0253327
-0.175902
-0.234684
-0.260058
-0.0787071
-0.245264
-0.126906
-0.334258
0.0137664
-0.247352
-0.036508
-0.000303866
-0.187442
0.00558391
-0.0429778
-0.0281123
-0.292722
-0.403538
-0.345995
-0.0218554
-0.302773
-0.313725
-0.249013
-0.310402
-0.241062
-0.27729
-0.181503
0.000325072
-0.104732
-0.267939
-0.100449
-0.293187
0.0145011
-0.283535
-0.0508974
-0.266278
-0.417107
-0.0113934
0.00209459
-0.272481
-0.29644
0.0134084
-0.167484
-0.198403
-0.303984
-0.108836
-0.0360984
-0.0897992
-0.267475
-0.318599
-0.0673187
-0.174424
-0.335909
-0.120342
-0.25354
-0.329197
-0.226546
-0.0524629
-0.385117
-0.182735
-0.0716109
-0.28121
-0.397588
-0.260523
-0.242132
-0.209591
-0.153849
-0.141931
-0.260508
-0.321786
-0.241869
-0.124777
-0.0953368
-0.253325
-0.135813
-0.28211
-0.303355
-0.165366
-0.263115
-0.408079
-0.0883331
-0.0435176
-0.182162
-0.00760034
-0.0304586
0.015727
-0.239877
-0.427406
-0.233403
-0.262566
-0.211615
-0.379864
-0.157514
-0.0138244
-0.110325
-0.168563
-0.275343
-0.251308
-0.0765276
-0.197307
-0.10916
-0.286491
-0.227945
-0.27292
-0.263585
-0.27051
-0.263257
-0.249471
-0.333392
-0.136871
-0.18033
-0.258785
-0.129486
-0.219692
-0.241226
-0.312936
-0.259113
-0.28841
-0.297569
-0.174841
-0.369897
-0.427806
-0.215182
-0.350328
-0.381568
-0.16851
-0.281186
-0.377558
-0.0445805
-0.13114
-0.283758
-0.0822197
-0.329535
-0.140456
-0.11745
-0.249549
-0.233076
-0.0586422
-0.230324
-0.0832731
-0.342614
-0.272146
-0.0402201
-0.277854
-0.235238
-0.449139
-0.370638
-0.414942
-0.356251
-0.291665
-0.133486
-0.314395
-0.396112
-0.320001
-0.267807
0.0158627
-0.224722
-0.113281
-0.15021
-0.26733
-0.201653
-0.273515
-0.343084
-0.150472
-0.268517
-0.0162702
-0.100264
-0.260781
-0.265389
-0.188402
0.0160618
-0.0791674
-0.0340732
-0.101285
-0.255259
-0.185453
-0.245907
-0.325564
-0.365822
-0.295495
-0.197305
-0.106377
-0.321589
-0.365318
-0.236343
-0.194477
-0.240478
-0.205532
-0.0596043
-0.216436
-0.257126
-0.0208028
-0.0436474
-0.273668
-0.140455
-0.0367554
-0.320323
-0.28624
-0.256167
-0.312331
-0.331327
-0.035402
-0.332513
-0.215875
-0.0242504
-0.408959
-0.176099
-0.270332
-0.186775
-0.259289
-0.287976
-0.385423
-0.191732
-0.362256
-0.294505
-0.265673
-0.268672
-0.0896452
-0.0160007
-0.238609
-0.150045
-0.188224
-0.231569
-0.41721
-0.0646484
-0.122003
-0.290276
-0.37889
-0.157353
-0.344409
-0.214605
-0.252042
-0.292021
-0.0652359
-0.0156088
-0.259488
-0.0878429
0.0110194
-0.0592965
-0.0490365
-0.0264644
-0.201822
-0.260897
-0.327937
0.0144785
-0.0580223
-0.0379936
-0.307276
-0.277288
-0.405479
-0.079605
-0.209541
-0.230334
-0.0371343
-0.11143
-0.240975
-0.192674
-0.271387
-0.238765
-0.275539
-0.26694
-0.255907
-0.294369
-0.241208
-0.365954
-0.202551
-0.308103
-0.109292
-0.155424
-0.388273
-0.0334776
-0.0230273
-0.103998
-0.303344
-0.17176
-0.281633
-0.0895989
-0.195755
-0.34026
-0.037341
-0.31007
-0.0141556
-0.384968
-0.243635
-0.2029
-0.105395
-0.0691798
-0.235877
-0.00251068
-0.230367
-0.0568469
-0.245008
-0.10874
-0.256742
-0.232961
-0.282282
-0.0500905
-0.194208
0.0116518
-0.121608
-0.36791
-0.22356
-0.144479
-0.297658
-0.299508
-0.241009
-0.302465
-0.00916964
-0.242069
-0.257191
-0.0789783
-0.305895
-0.0167263
0.00775384
-0.266557
0.0128292
-0.00348302
-0.0543673
-0.0348274
-0.167053
-0.338525
-0.306693
-0.255821
-0.0688478
-0.231562
-0.310603
-0.00503144
-0.321389
-0.245374
-0.312801
-0.0289839
0.0160686
-0.323686
-0.0597078
-0.142923
-0.0163663
-0.185843
-0.0970913
-0.256871
-0.000756029
0.00948168
-0.117713
-0.302537
-0.0654606
-0.214978
-0.142589
-0.197607
-0.209361
-0.14554
-0.210387
-0.308203
-0.325553
-0.203769
-0.130463
-0.162311
-0.0403703
-0.325126
-0.209504
-0.119149
-0.319825
-0.0235759
-0.237727
-0.257331
-0.0228997
-0.0491415
-0.153315
0.00320819
-0.251194
-0.282121
-0.0909534
-0.161049
-0.161222
-0.244712
-0.277714
-0.140348
-0.11698
-0.275061
-0.262581
-0.163001
-0.379805
-0.300362
-0.0141616
0.0108082
0.0111725
-0.175576
0.0150723
0.0143428
-0.00573717
-0.427131
-0.151939
-0.152146
0.00194076
-0.288819
-0.232931
-0.343599
-0.302985
-0.328588
-0.00273453
-0.232209
-0.221519
-0.0932616
-0.118187
-0.272773
-0.259897
0.0126354
0.000178056
-0.033566
-0.10692
-0.293387
-0.0889475
-0.134105
-0.291159
-0.190467
-0.363067
-0.317949
-0.17054
-0.221166
-0.248967
-0.0133953
-0.0147818
-0.413517
-0.0516841
-0.258628
-0.257407
-0.221403
-0.0158574
-0.239912
-0.107124
-0.238216
-0.0300875
-0.277896
-0.23672
0.00925702
-0.407388
-0.382123
-0.254594
-0.291708
-0.428567
-0.403659
-0.284605
-0.432112
-0.212157
-0.408321
-0.349282
-0.22068
-0.307417
-0.28083
-0.241101
-0.378806
-0.389961
-0.00214453
-0.0453633
-0.272483
-0.347483
-0.0423605
-0.288179
-0.232442
0.00833167
-0.276645
0.00774644
-0.222953
-0.0467869
-0.17466
-0.273446
-0.353812
-0.16211
-0.165079
-0.213154
-0.274425
-0.274213
-0.361425
-0.289828
-0.222327
-0.404923
-0.37022
-0.00496516
-0.242237
-0.115598
-0.083819
-0.292512
-0.0657458
-0.0816497
-0.340298
-0.395112
-0.241072
-0.36812
-0.424955
-0.10816
-0.104319
-0.270358
-0.137214
-0.263342
0.010104
-0.00481642
-0.243409
-0.271556
0.000798331
-0.0407523
-0.149854
-0.143553
-0.282512
0.0117898
-0.154323
-0.413913
-0.0278541
-0.0574157
-0.013577
-0.172052
-0.314053
-0.22506
-0.102095
-0.147972
-0.439103
0.0182999
-0.242133
-0.264333
-0.197671
-0.0338046
0.00567815
0.0103562
-0.134208
-0.178132
-0.0735945
-0.0360926
-0.019353
-0.116819
-0.067759
-0.257791
-0.250751
-0.14717
-0.325343
-0.259491
-0.385757
-0.24506
-0.081114
-0.377859
-0.183766
-0.227741
-0.0584992
0.00888425
-0.234925
-0.353046
-0.394358
-0.0829309
-0.299278
-0.299077
-0.399942
-0.0198785
-0.171802
-0.16363
-0.348475
-0.15862
-0.300058
-0.26529
-0.0893771
-0.0855331
-0.0125127
0.0116123
-0.280613
-0.0310546
-0.415385
-0.0250179
-0.0125794
-0.0140121
-0.0735449
-0.301753
-0.299774
-0.264941
-0.407469
-0.157054
-0.408176
-0.12611
-0.342349
-0.0408917
-0.288675
-0.397758
-0.0487934
-0.0724506
-0.22387
-0.221677
-0.117054
-0.0151276
-0.173343
-0.200222
-0.40652
-0.0591813
-0.142879
0.000158882
-0.425465
-0.220434
-0.0265027
-0.102999
0.00285616
-0.0958059
-0.269897
-0.440924
-0.414618
-0.223346
-0.391457
-0.00313855
-0.398324
-0.20941
-0.221595
-0.333824
-0.0604716
-0.429133
-0.0243814
-0.0988773
-0.157992
-0.304169
-0.106147
-0.231154
-0.193881
-0.226462
-0.219406
-0.278272
-0.292973
-0.0802429
-0.298498
0.0151045
-0.295079
-0.16574
-0.126424
-0.0805486
-0.00708966
-0.276515
-0.245813
-0.277567
-0.181959
-0.30188
-0.00835562
-0.301024
-0.191819
-0.28849
-0.0537689
-0.315699
-0.175032
-0.365956
0.0109452
-0.411446
-0.29898
-0.206379
-0.0455951
-0.39282
-0.392207
-0.310164
-0.367645
-0.0147066
-0.194146
-0.102738
-0.0473185
-0.117586
-0.15063
0.00935601
-0.154088
-0.0743692
-0.130539
-0.152945
-0.381412
-0.152426
-0.229008
-0.220054
-0.142071
-0.250329
-0.371041
-0.192183
-0.193932
-0.314597
-0.0605442
-0.168433
-0.0944552
-0.233925
-0.0035399
-0.218347
-0.18209
-0.126393
-0.370276
-0.306443
-0.288265
-0.163859
-0.165673
-0.142847
-0.0186859
-0.0822712
-0.0697284
-0.186604
-0.0313055
-0.00217025
-0.00600272
-0.138446
-0.16466
-0.144385
-0.328537
0.00372699
-0.0397002
-0.0543496
-0.21356
-0.302686
-0.376509
-0.146303
-0.105294
-0.250972
-0.0543848
-0.0374001
-0.148532
-0.244276
-0.140798
-0.231444
-0.234318
-0.210662
-0.231741
-0.162389
-0.402686
-0.159786
-0.173681
-0.242982
-0.42196
-0.163163
-0.197578
-0.115435
-0.266198
-0.17203
-0.0207018
-0.00882443
-0.159225
-0.222524
-0.0672061
-0.194485
-0.301514
-0.315162
-0.251136
-0.371461
-0.0181797
-0.200351
-0.180764
-0.0998492
-0.113962
-0.111474
-0.253408
0.0129466
-0.108101
-0.317012
-0.205281
-0.206055
-0.0683335
-0.0279484
-0.106801
-0.150957
-0.385958
-0.32578
-0.241009
-0.150861
-0.194225
-0.157628
-0.30994
-0.0125236
-0.13373
-0.061574
-0.0359507
-0.174107
-0.257445
-0.158976
0.00546545
-0.296874
-0.39864
-0.16
0.0110496
-0.276884
-0.250534
-0.0783596
-0.105281
-0.0509867
-0.21698
-0.390151
-0.153088
-0.378262
-0.271733
-0.0550382
-0.225393
-0.3237
-0.259431
-0.283245
-0.138845
-0.233653
-0.23376
-0.0270598
-0.322362
0.00947461
-0.0540808
-0.342162
-0.436719
-0.192304
-0.0880215
-0.0394305
-0.218435
-0.240466
-0.232187
-0.261009
-0.20486
0.0134395
-0.0246328
-0.0992968
-0.209831
-0.372205
-0.0177494
0.0133915
-0.0124434
-0.067989
-0.026629
-0.165973
-0.373258
-0.410707
-0.398935
-0.00741675
-0.201009
-0.240979
-0.209614
0.0117093
-0.280539
-0.244995
-0.358244
-0.216751
-0.318115
0.0108401
-0.15078
-0.0869228
-0.03105
-0.0361638
-0.253248
-0.133961
-0.177812
-0.0884977
-0.3063
-0.141675
-0.28459
-0.0109554
-0.266352
-0.303713
-0.244429
-0.247362
-0.022309
-0.284385
-0.0574605
-0.029582
-0.0269941
-0.346672
-0.183718
-0.24156
-0.229176
-0.0163967
-0.17535
-0.143103
-0.155464
-0.326889
-0.206816
-0.0131724
-0.127902
-0.0116709
-0.405973
-0.302577
-0.275599
-0.00531302
-0.227218
-0.192413
-0.34948
-0.249758
-0.200878
-0.00753473
-0.185014
-0.23575
-0.356763
0.00954217
0.00489383
-0.329494
-0.0156036
-0.281288
-0.345428
-0.296983
-0.201037
-0.388105
-0.118242
-0.219489
-0.289851
-0.239378
-0.0303357
-0.214162
-0.0573359
-0.214024
-0.309806
-0.230594
-0.407239
-0.388488
-0.228336
-0.196912
-0.14054
-0.326748
-0.225057
-0.0320008
-0.132468
-0.291143
-0.280517
-0.0270894
-0.212657
-0.198573
0.0180449
-0.155963
-0.29704
-0.208683
-0.244637
0.000217862
-0.230087
-0.220705
-0.142488
-0.38644
-0.022296
-0.260733
-0.0294683
-0.182621
-0.0842345
-0.344985
-0.0582482
-0.233625
-0.345336
-0.314092
-0.182616
-0.0207635
-0.446725
-0.251281
-0.278143
-0.00106584
0.00972392
-0.237256
-0.283319
-0.120666
-0.00191783
-0.211946
-0.0163718
-0.0410216
-0.0573632
-0.0799674
-0.170952
-0.0937439
-0.106528
-0.0125801
-0.189434
-0.170693
-0.236612
-0.236731
-0.182683
-0.286631
-0.00183073
-0.250772
-0.017356
-0.198976
-0.00617055
-0.309283
0.0050425
-0.0881611
-0.0302487
-0.00388194
-0.0228537
0.0162177
-0.256249
-0.0339524
-0.175211
-0.281507
-0.251615
-0.324443
-0.011533
-0.2498
-0.14757
-0.139438
-0.24105
-0.132007
-0.313931
-0.00912374
-0.194063
-0.0645751
-0.418347
-0.276129
-0.27569
0.016122
-0.230273
-0.123225
-0.234347
-0.271698
-0.326936
-0.233188
-0.291731
-0.0638725
-0.00897711
-0.362938
-0.154385
-0.274611
-0.302544
-0.0508165
-0.237735
-0.235834
0.00212234
-0.392043
-0.145545
-0.103575
-0.0291308
0.00842959
-0.232301
-0.272093
-0.36049
-0.225573
-0.230022
-0.275908
-0.0697845
-0.281725
-0.345698
-0.23794
-0.181667
-0.246172
-0.221648
-0.280318
-0.189686
-0.357058
-0.0741061
-0.085719
-0.215334
-0.0681287
-0.266799
-0.393706
-0.234475
-0.408936
0.00238169
-0.269567
-0.287302
-0.309037
-0.0351707
-0.0144758
-0.178231
-0.0688046
-0.223893
-0.326528
-0.168236
-0.282024
-0.254725
-0.0138298
-0.14264
-0.0959147
0.00295498
-0.0634835
-0.166167
-0.00439608
-0.363607
-0.175419
-0.180058
-0.142721
-0.188359
-0.00618675
-0.28514
-0.146817
-0.210507
-0.240036
-0.289839
-0.266261
-0.0873927
-0.0480367
-0.0329093
-0.170118
-0.164709
-0.00235328
-0.0538089
-0.230949
-0.13848
-0.345971
-0.257993
-0.0616435
-0.36648
-0.0362758
-0.288225
-0.026666
0.0126229
-0.0104004
-0.298717
-0.031782
-0.0390482
-0.282778
-0.00342399
-0.218338
-0.00633768
-0.0648487
-0.272851
-0.357091
-0.132401
-0.253765
-0.193343
-0.229561
-0.0504924
-0.213204
-0.00245812
-0.309844
-0.24113
-0.230705
-0.304331
-0.288412
-0.0460566
0.00920596
-0.314991
-0.0629249
-0.195601
-0.146689
-0.211666
-0.118081
-0.0190337
-0.0597166
-0.284122
-0.0252325
-0.0521618
0.00795051
-0.308446
-0.297571
-0.232667
-0.0727605
0.000503688
-0.0455604
-0.218316
0.00406437
-0.190436
-0.354218
-0.356427
-0.441846
-0.178643
-0.340242
0.00812285
0.00959086
-0.166325
0.0186402
-0.058081
-0.182734
0.0019484
-0.348644
-0.00709569
-0.258948
-0.0136017
-0.243507
-0.297254
-0.0759702
-0.170645
-0.00720845
-0.0180421
-0.0156897
-0.274178
-0.27454
-0.375097
-0.0298302
-0.0625252
-0.236023
-0.160503
-0.0605431
-0.41038
-0.288633
-0.285977
-0.26625
-0.15118
-0.271699
-0.179537
-0.0711214
-0.188222
-0.171011
-0.0829837
-0.257602
-0.215157
-0.152847
-0.187568
-0.258559
-0.0339342
-0.0052222
-0.236482
-0.0644374
-0.419121
-0.282181
-0.0270789
-0.0739969
-0.288542
-0.0140001
-0.33447
-0.0858889
-0.211429
-0.191895
-0.0273591
-0.24099
-0.0732424
-0.0702596
-0.107284
0.0159308
-0.10408
-0.363982
-0.13854
-0.173183
-0.0742201
0.0120262
-0.106921
-0.185548
-0.254278
-0.189385
-0.0261783
-0.331698
-0.0369728
-0.26525
-0.128782
-0.0630762
-0.0835062
-0.201258
-0.0284517
0.00355556
-0.218946
-0.251062
-0.175466
-0.281242
-0.360194
-0.175069
-0.0715437
-0.329113
-0.364823
-0.230383
-0.349095
-0.0905405
-0.188443
-0.070188
-0.244762
-0.0132568
-0.188158
-0.0375135
0.00837966
-0.306647
-0.0219054
-0.210653
-0.175103
-0.156244
-0.0287503
-0.237796
-0.223967
-0.152588
-0.293368
-0.246407
-0.305381
-0.328632
-0.417761
0.00449831
0.0139063
-0.340806
-0.235956
-0.0803333
-0.372218
-0.237737
-0.274451
-0.100583
-0.0835809
-0.384743
-0.424713
-0.0183346
-0.231298
-0.14227
-0.234985
-0.365173
-0.355421
-0.128133
-0.0394874
-0.139165
-0.391834
-0.0120809
-0.04251
-0.291192
-0.150202
-0.283367
0.0100604
-0.264307
-0.202826
-0.337118
-0.116732
-0.00202088
-0.141299
-0.134676
-0.263503
-0.183906
-0.130187
0.00151666
0.0147917
-0.239112
0.00506469
-0.257137
-0.166671
-0.166313
-0.230501
-0.257075
-0.0302489
-0.18874
-0.157661
-0.264621
-0.315614
-0.181374
-0.294175
-0.101051
-0.0125268
-0.293664
-0.266454
-0.17254
-0.252515
-0.220946
-0.406935
-0.232005
-0.0272312
-0.295419
-0.291765
-0.0737712
-0.175192
-0.210613
-0.121005
-0.0417635
-0.246445
-0.236334
-0.0496071
-0.228804
-0.242605
-0.174763
-0.0302859
-0.123995
-0.165258
-0.231498
-0.325407
-0.24558
0.00377304
-0.0462442
0.0110008
-0.213393
-0.107168
-0.324735
-0.196132
-0.0398506
-0.365226
-0.374577
-0.085421
-0.0428583
-0.373725
-0.239164
-0.226738
-0.246461
-0.229779
0.014739
-0.19961
-0.241057
-0.13487
-0.253306
-0.0804532
-0.125816
-0.337373
-0.225726
-0.058837
-0.190072
0.00528812
-0.359662
-0.290211
-0.106845
-0.135747
-0.228352
-0.146896
-0.288418
0.00801143
-0.00668995
-0.104633
-0.0251809
-0.301995
-0.0299205
-0.122588
-0.102452
-0.0028849
-0.369974
-0.252472
0.0113294
-0.119438
-0.386616
-0.287713
-0.0408401
0.00837943
-0.200379
-0.0789662
-0.232942
-0.347053
-0.271098
-0.38003
-0.039044
-0.276257
-0.193352
-0.00151737
-0.318125
-0.242369
-0.253796
-0.160003
-0.230917
-0.291162
-0.256492
-0.337028
-0.182416
-0.0610795
-0.00468916
-0.0809613
-0.208261
-0.261291
-0.391367
-0.284535
-0.137999
-0.151174
-0.0880476
-0.0740705
-0.261426
-0.217202
-0.0454156
-0.0401479
0.0100807
-0.0252692
-0.00115434
-0.194364
-0.345482
-0.281249
-0.309453
0.00173724
-0.172343
-0.261514
-0.00371029
-0.340789
-0.057639
-0.0828211
-0.231277
-0.22888
-0.25094
-0.313442
-0.0427252
-0.252302
-0.0997944
-0.203193
-0.00681101
-0.155467
0.0147977
-0.299741
-0.203373
-0.303762
-0.423448
-0.244324
-0.0628019
-0.249341
-0.341231
-0.1654
-0.0129871
-0.0742384
-0.302418
-0.340765
-0.266329
-0.351922
-0.227569
-0.365851
-0.233325
-0.313796
-0.0835106
-0.343486
-0.236784
-0.0194765
-0.171882
-0.0985124
-0.0491039
-0.237686
-0.192563
-0.277124
-0.0562147
-0.251966
-0.215739
-0.197533
-0.327917
-0.372234
-0.24316
-0.223836
-0.0767049
0.0103246
-0.03527
-0.1644
-0.0944313
-0.373862
0.00494734
-0.135443
-0.0670927
-0.222772
-0.0860469
-0.285913
-0.245389
-0.0599177
-0.00537845
-0.0655359
-0.160224
-0.276338
0.0138835
-0.209451
-0.0473854
0.00153964
-0.108863
-0.228134
-0.374173
-0.0486629
-0.129985
-0.328815
-0.123036
-0.14246
-0.00850303
-0.2739
-0.000518235
0.0115362
-0.238015
-0.295967
0.000468747
-0.330561
-0.32029
-0.238846
-0.315114
-0.235431
-0.311202
-0.354833
-0.207247
-0.22903
-0.268982
-0.285623
-0.152642
-0.311417
-0.294141
-0.12752
-0.193519
-0.376537
-0.0156847
0.0108038
0.00114369
-0.240083
-0.392702
0.0173731
-0.340248
-0.210229
-0.231765
-0.279196
-0.221077
-0.0865855
-0.274846
-0.295274
-0.366291
-0.362257
-0.332737
-0.2867
-0.398839
-0.205561
-0.172617
-0.215204
-0.00752784
-0.169122
-0.0998466
-0.201978
-0.0448214
-0.270889
-0.275344
0.0189036
-0.219002
-0.133161
-0.341868
-0.10909
0.00924198
-0.245055
-0.121543
-0.136327
-0.286848
-0.24002
-0.325052
-0.296585
-0.0802938
-0.315566
-0.218386
-0.293832
-0.236613
-0.267131
-0.321657
-0.208275
-0.256959
-0.309093
0.00833264
-0.212252
-0.213556
-0.162266
-0.00938836
-0.26807
-0.358614
-0.0532506
-0.328164
-0.245147
-0.2283
-0.16615
-0.291825
-0.187948
-0.162595
0.00839365
-0.0366813
-0.348788
-0.302136
-0.371412
-0.231432
-0.387833
-0.292567
-0.221374
-0.291991
-0.218877
-0.130574
0.0174625
-0.260497
-0.0905066
-0.173274
0.00334678
-0.291037
0.0117633
-0.138944
-0.341104
-0.126943
-0.0815186
-0.276739
-0.0342666
-0.227528
-0.0305106
-0.292779
-0.340228
-0.218575
0.0155026
0.0135923
-0.0800609
-0.119331
-0.0891619
-0.392601
-0.301021
-0.0817799
0.0155403
-0.320794
-0.179894
-0.224263
-0.273958
-0.232681
-0.261386
-0.315086
-0.271873
-0.308927
-0.235243
-0.263091
-0.221247
0.0147655
-0.0394213
-0.394152
-0.0639218
-0.279042
-0.337337
-0.0532775
-0.314383
-0.247511
-0.0966744
-0.301331
-0.28403
-0.203273
-0.0342241
-0.324006
-0.286318
-0.261538
-0.135927
-0.308683
-0.00717259
-0.383988
-0.288851
-0.260257
-0.303404
-0.113081
-0.133815
-0.00806918
-0.23551
-0.0625442
-0.170312
-0.138158
-0.244243
-0.10908
-0.329159
-0.319432
-0.421168
-0.125381
-0.220347
-0.261894
-0.0194287
-0.191953
-0.129924
-0.114554
-0.283818
-0.307758
-0.269238
-0.136719
-0.235066
0.0170678
-0.342703
-0.387716
-0.224657
-0.29356
-0.236941
-0.223464
-0.081744
-0.247955
-0.211268
-0.322994
-0.223884
-0.21474
-0.260768