/*--------------------------------*- C++ -*----------------------------------*\
  =========                 |
  \\      /  F ield         | OpenFOAM: The Open Source CFD Toolbox
   \\    /   O peration     | Website:  https://openfoam.org
    \\  /    A nd           | Version:  6
     \\/     M anipulation  |
\*---------------------------------------------------------------------------*/
FoamFile
{
    version     2.0;
    format      ascii;
    class       volVectorField;
    location    "0";
    object      U;
}
// * * * * * * * * * * * * * * * * * * * * * * * * * * * * * * * * * * * * * //

dimensions      [0 1 -1 0 0 0 0];

internalField   nonuniform List<vector> 
13046
(
(-0.193431 0.0870873 0)
(-0.607484 -0.274412 -2.36699e-22)
(-0.165414 -0.050636 -6.21003e-22)
(-0.233184 0.0119779 0)
(-0.113629 0.00470532 -6.75249e-22)
(-0.505469 -0.244073 0)
(-0.249065 0.0225393 1.09058e-22)
(-0.570253 -0.289808 1.10336e-22)
(-0.0871465 0.0233754 -7.61483e-22)
(-0.477434 0.201826 -7.39904e-23)
(-1.17153 -0.633907 0)
(0.0386892 0.117251 2.4332e-22)
(-0.24944 0.0955435 -3.99256e-22)
(-0.751817 -0.371038 5.48509e-23)
(-0.0847321 0.0033665 3.61035e-22)
(-0.440426 0.2382 -4.41774e-23)
(0.0134738 0.0975315 5.07866e-22)
(-1.22747 -0.578602 -1.4881e-21)
(-0.124409 0.0401001 0)
(-0.355548 -0.167592 -3.29008e-22)
(-0.340215 -0.0872001 1.18691e-21)
(-0.447273 0.230308 1.93844e-23)
(0.0222405 0.103998 -6.86083e-22)
(-1.21848 -0.592138 0)
(-0.191321 0.0388489 5.01691e-22)
(-0.487486 -0.212271 -8.37336e-22)
(-0.172238 -0.0479147 0)
(-0.249268 0.116554 -6.64946e-22)
(-0.784417 -0.379605 3.78625e-24)
(-0.0939559 -0.00654252 -5.62066e-22)
(-0.189544 0.104663 0)
(-0.634853 -0.273866 0)
(-0.182039 -0.0670037 6.32136e-22)
(-0.188647 0.0222012 -5.82873e-22)
(-0.19437 -0.0593464 2.38197e-22)
(-0.421877 -0.171892 1.43375e-21)
(-0.207631 0.000140177 -8.81622e-22)
(-0.188652 -0.0446353 4.16559e-22)
(-0.389702 -0.156781 -7.22051e-22)
(-0.140515 0.132742 5.90283e-22)
(-0.36264 -0.212981 9.48318e-23)
(-0.575637 -0.19759 -4.20973e-22)
(-0.256837 -0.0567277 3.63017e-22)
(-0.208501 -0.0403622 6.6543e-22)
(-0.287154 -0.0982986 0)
(-0.273579 -0.0589132 2.86556e-22)
(-0.170451 -0.0118227 -1.02168e-21)
(-0.315552 -0.123662 -1.16259e-22)
(-0.206865 0.0775726 0)
(-0.624525 -0.295056 -1.45523e-23)
(-0.128792 -0.0268641 -3.88287e-23)
(-0.572333 -0.384309 1.9248e-22)
(-0.119635 0.1603 0)
(-0.570611 -0.142516 -2.223e-22)
(-0.647705 -0.44254 -2.69017e-22)
(-0.541916 -0.120936 -4.63852e-22)
(-0.104247 0.156747 8.28504e-22)
(-1.12384 -0.448882 2.824e-22)
(-0.34951 0.244136 0)
(-0.147785 -0.0498549 2.87942e-22)
(-0.35548 0.0717684 -3.43311e-22)
(-0.91603 -0.534485 -2.03694e-22)
(0.00450075 0.0934261 -1.34942e-21)
(0.0291032 0.098611 5.16455e-22)
(-1.17263 -0.627982 6.98601e-22)
(-0.437 0.179615 -2.18499e-22)
(-0.33078 0.245552 0)
(-1.07915 -0.410352 0)
(-0.197322 -0.0984924 0)
(-0.311987 0.236467 -2.15078e-22)
(-1.03524 -0.391148 0)
(-0.216148 -0.115427 1.86044e-22)
(-1.16385 -0.46249 0)
(-0.367625 0.252844 1.94762e-23)
(-0.13056 -0.0381301 -3.82174e-23)
(-0.118799 0.0558567 0)
(-0.352711 -0.175958 3.87804e-22)
(-0.378773 -0.114465 -7.6801e-22)
(-0.0713948 0.0174654 2.92916e-22)
(-0.392128 0.249926 -4.29324e-22)
(-1.20049 -0.505587 0)
(-0.204572 0.0395185 2.65332e-22)
(-0.518337 -0.235606 0)
(-0.142628 -0.0226799 0)
(0.0318592 0.103632 -4.26803e-22)
(-1.18862 -0.633494 7.1122e-22)
(-0.450423 0.18921 1.13467e-22)
(-0.462081 0.123389 -1.4508e-22)
(0.0343331 0.111696 0)
(-1.13126 -0.688151 4.51339e-22)
(0.00320054 0.119909 0)
(-0.515166 0.0688776 0)
(-1.10167 -0.75589 -7.45982e-23)
(-0.342099 0.152036 0)
(-0.364021 0.152518 2.28212e-22)
(-1.01585 -0.518745 -8.37474e-22)
(-1.05101 -0.551097 4.07274e-22)
(-0.0224833 0.0498531 -2.36558e-22)
(-0.00269525 0.0679815 5.97183e-22)
(0.0292541 0.113434 -3.15855e-23)
(-0.463257 0.106017 1.41913e-22)
(-1.11179 -0.697156 0)
(-0.266766 -0.043428 -4.68012e-24)
(-0.147821 -0.00139736 5.09894e-22)
(-0.365262 -0.15963 0)
(-0.0631732 0.12772 0)
(-0.441762 -0.069395 -2.16673e-22)
(-0.631806 -0.398762 0)
(-0.112453 0.144193 1.00601e-21)
(-0.504408 -0.320265 0)
(-0.538466 -0.149139 -8.88202e-22)
(-0.45825 0.202623 0)
(0.0312795 0.116033 0)
(-1.02539 -0.573661 2.52721e-21)
(-0.231126 0.0829118 1.09191e-21)
(-0.698231 -0.335789 1.11172e-22)
(-0.0963322 -0.000905153 5.40737e-22)
(-0.366476 0.188673 3.17152e-22)
(-0.343973 0.172875 -6.12304e-22)
(-1.09539 -0.530773 8.03714e-22)
(-0.0316302 0.0442965 2.34585e-22)
(-1.04247 -0.508549 -6.6968e-22)
(-0.038425 0.0369165 -2.19153e-22)
(-0.473831 0.208861 1.97959e-22)
(-1.15532 -0.619629 2.57234e-21)
(0.0377586 0.119133 -1.00577e-22)
(-0.297201 0.13986 0)
(-0.912832 -0.455828 3.29311e-22)
(-0.0579566 0.0171571 6.31921e-22)
(-0.159382 0.135808 0)
(-0.313833 -0.177149 -4.77509e-22)
(-0.619139 -0.23001 5.32321e-24)
(-0.000809027 0.122416 0)
(-0.500252 0.0570968 0)
(-1.08538 -0.740558 0)
(-0.405508 0.14625 0)
(-1.10207 -0.610437 1.7178e-21)
(0.0235316 0.0924407 -6.39343e-22)
(-0.207665 0.115965 0)
(-0.691806 -0.309547 0)
(-0.166321 -0.0629692 0)
(-0.314408 0.0180103 0)
(-0.702853 -0.399817 0)
(-0.0331825 0.0769788 0)
(-0.103282 0.146477 0)
(-0.557405 -0.359677 0)
(-0.526826 -0.130559 5.30685e-22)
(-0.0638015 0.119378 -9.25869e-23)
(-0.426806 -0.0718005 -6.80923e-22)
(-0.616269 -0.37784 4.65697e-22)
(-0.365219 0.0862002 6.12829e-22)
(-0.957248 -0.558354 0)
(0.0108222 0.0905666 1.74369e-21)
(-0.0619365 0.0830716 0)
(-0.350419 -0.04559 7.30817e-22)
(-0.556387 -0.317287 -8.84197e-23)
(-0.778365 -0.527086 0)
(-0.477128 -0.0564824 4.41904e-22)
(-0.842241 -0.565372 0)
(-0.454475 -0.0264799 2.67154e-22)
(-0.0621918 0.143557 0)
(-0.0424133 0.136376 0)
(-0.362537 -0.0187548 1.09392e-22)
(-0.686841 -0.416311 5.1092e-23)
(-0.0346281 0.0989635 -3.96716e-22)
(-0.487796 0.189698 9.89064e-23)
(0.039795 0.116565 0)
(-1.15735 -0.650664 2.42355e-21)
(-0.465755 0.207962 2.30465e-22)
(0.0345569 0.119745 -4.38371e-23)
(-1.08308 -0.591432 0)
(-0.411872 0.159201 -2.52869e-22)
(-1.12311 -0.612496 0)
(0.0237474 0.0915356 7.23207e-22)
(-0.198338 0.172938 0)
(-0.737881 -0.270647 -3.089e-24)
(-0.329221 -0.199565 2.4102e-22)
(-0.374545 -0.0334967 6.03104e-22)
(-0.044725 0.10362 2.02889e-22)
(-0.641482 -0.380852 0)
(0.0392007 0.114522 0)
(-1.1564 -0.688811 0)
(-0.49733 0.162313 -1.36437e-22)
(-0.176545 0.161424 0)
(-0.683909 -0.242869 -1.27909e-22)
(-0.344984 -0.201683 6.10737e-23)
(-0.0560827 0.0939355 0)
(-0.36663 -0.0480952 0)
(-0.56747 -0.333288 0)
(-0.301725 0.00737925 3.39335e-22)
(-0.655803 -0.369905 0)
(-0.042518 0.0688291 0)
(-0.813497 -0.420973 8.3173e-24)
(-0.0486526 0.0325685 -4.17738e-22)
(-0.281538 0.126383 1.05062e-21)
(-0.87036 -0.43171 0)
(-0.0634493 0.0167708 -7.9193e-22)
(-0.466892 0.157252 -1.60381e-22)
(0.0387286 0.110345 4.1672e-22)
(-1.16688 -0.672714 2.98252e-21)
(0.0133062 0.119552 4.53847e-22)
(-0.473486 0.0729613 1.022e-22)
(-1.08441 -0.713196 -1.87608e-21)
(-0.497768 0.100625 3.72399e-23)
(-1.12539 -0.726881 0)
(0.0236871 0.115792 -4.31154e-22)
(-0.601162 -0.422092 -7.30102e-24)
(-0.652439 -0.166598 6.09753e-23)
(-0.152108 0.185986 0)
(-0.26291 0.051136 -1.57172e-21)
(-0.386497 0.258528 2.59457e-22)
(-0.0913 0.00155958 -1.6899e-22)
(-1.20322 -0.495883 0)
(-1.13285 -0.728585 0)
(-0.506289 0.115146 1.36933e-22)
(0.0280983 0.114096 0)
(-0.234786 -0.0140579 -1.32236e-21)
(-0.150981 -0.0139784 -4.09074e-22)
(-0.405525 -0.178142 1.00247e-21)
(-0.236172 0.126762 0)
(-0.769518 -0.358127 -2.61501e-24)
(-0.126848 -0.0298331 -2.75933e-22)
(0.00400184 0.122305 3.76553e-22)
(-0.483917 0.0601315 0)
(-1.07525 -0.724418 2.16187e-21)
(-0.277043 0.0635894 1.25194e-21)
(-0.792433 -0.419036 -1.09206e-22)
(-0.0420268 0.0414957 0)
(0.0366345 0.116151 0)
(-1.09827 -0.63597 -2.86667e-21)
(-0.4929 0.188961 0)
(-0.133685 0.1774 0)
(-0.609936 -0.143185 0)
(-0.649024 -0.464053 0)
(-0.479154 0.0938299 -3.26893e-23)
(-1.11367 -0.712483 0)
(0.0239002 0.115716 -1.81946e-23)
(-0.404371 -0.0206077 2.06635e-22)
(-0.764661 -0.490216 3.26341e-23)
(-0.0317449 0.119494 0)
(-0.295055 0.153735 0)
(-0.924269 -0.447673 -2.99204e-22)
(-0.0751896 0.00485461 4.8563e-22)
(-0.999045 -0.70619 1.52991e-21)
(-0.500126 0.0022695 -1.39443e-22)
(-0.0355337 0.138895 2.9944e-22)
(-0.47104 -0.0230494 0)
(-0.889033 -0.6074 3.22702e-22)
(-0.0441466 0.139733 -1.16375e-23)
(0.0334568 0.112995 -3.40264e-22)
(-1.07151 -0.637172 0)
(-0.498744 0.180026 4.73631e-22)
(-0.146395 0.159793 5.368e-22)
(-0.447953 -0.282323 -2.63857e-22)
(-0.619356 -0.195419 1.22255e-23)
(-0.416809 0.222453 -3.18445e-22)
(0.0314417 0.119899 -3.66148e-22)
(-1.01403 -0.506274 0)
(-0.116098 0.0309929 -2.42928e-22)
(-0.304403 -0.060556 -9.9819e-22)
(-0.393306 -0.189276 9.9086e-22)
(-0.362767 0.0193512 3.15158e-22)
(-0.380149 -0.00912477 3.11327e-23)
(-0.810489 -0.496562 4.92364e-23)
(-0.753737 -0.471061 0)
(-0.0261831 0.10984 3.60589e-22)
(-0.0117058 0.102541 -3.60036e-22)
(-0.0482359 0.0400083 -3.8324e-22)
(-0.404747 0.25103 2.43661e-22)
(-1.22415 -0.519852 3.13461e-21)
(-0.275156 0.156633 0)
(-0.887272 -0.412818 0)
(-0.110712 -0.0210086 -6.31978e-22)
(-0.4678 -0.00158751 -5.32996e-23)
(-0.938866 -0.646251 0)
(-0.0316435 0.135813 0)
(-0.386576 0.170582 -2.79815e-22)
(-1.10349 -0.569342 0)
(0.00226324 0.0719336 2.33303e-22)
(-0.225898 -0.0358062 2.74631e-22)
(-0.297033 -0.0935078 3.28944e-22)
(-0.229519 -0.0600491 -1.40497e-22)
(-0.420963 -0.00667308 -3.26041e-22)
(-0.841381 -0.549177 0)
(-0.0260178 0.12581 -5.77214e-22)
(-0.280074 0.169324 0)
(-0.91135 -0.412338 -3.87612e-22)
(-0.122569 -0.0328416 -3.12509e-22)
(-0.273891 0.0858479 0)
(-0.291552 0.0950924 1.24433e-22)
(-0.153807 0.16786 1.89514e-22)
(-0.462502 -0.299157 6.67617e-22)
(-0.639706 -0.196679 -2.2429e-22)
(-0.412227 0.0155475 -3.59115e-22)
(-0.887971 -0.578684 -3.84268e-22)
(-0.0116181 0.120463 5.26344e-22)
(-0.4027 0.171529 0)
(0.013979 0.083095 -8.73196e-22)
(-1.12938 -0.592358 1.14691e-21)
(-0.111505 0.133942 -1.39956e-21)
(-0.473769 -0.297245 0)
(-0.521112 -0.149083 2.48585e-22)
(-0.0767206 0.15284 -7.03442e-22)
(-0.507514 -0.0687407 -1.78817e-22)
(-0.779886 -0.544098 0)
(-0.336596 0.198751 -3.25471e-22)
(-1.05463 -0.475178 6.32378e-22)
(-0.0855561 -0.000244547 1.23801e-22)
(-0.138374 0.169214 6.89674e-23)
(-0.539758 -0.360111 0)
(-0.613126 -0.166952 3.17702e-22)
(-0.355365 0.208365 0)
(-0.368067 0.204531 0)
(-1.09913 -0.497159 5.64139e-22)
(-0.0707714 0.013273 -3.59062e-22)
(-1.11592 -0.522483 -8.03335e-22)
(-0.0458057 0.0351142 3.58673e-22)
(0.0403841 0.113965 -3.03023e-22)
(-1.16759 -0.678004 0)
(-0.4863 0.170257 -1.94347e-24)
(-0.323687 0.171134 3.71506e-22)
(-1.00101 -0.481458 0)
(-0.0616311 0.017621 1.59212e-22)
(-0.871347 -0.493341 -8.7184e-21)
(0.0217342 0.103332 3.40377e-22)
(-0.40321 0.191869 -1.5201e-21)
(-0.350828 -0.0665198 -5.01489e-22)
(-0.0796837 0.0724781 0)
(-0.478556 -0.260281 0)
(-0.331141 0.0660878 7.48237e-22)
(-0.865936 -0.494331 0)
(-0.00390376 0.0824782 1.09149e-21)
(0.0356165 0.105209 -2.79142e-22)
(-0.44748 0.155079 3.85912e-22)
(-1.15401 -0.653961 -1.89599e-21)
(-0.673242 -0.467553 0)
(-0.554307 -0.115535 1.17745e-22)
(-0.1064 0.163479 -9.3919e-22)
(-1.02713 -0.716757 2.57137e-21)
(-0.490687 0.0236534 -5.26831e-23)
(-0.0198821 0.131197 0)
(-0.712713 -0.371823 -3.61077e-22)
(-0.057108 0.0362908 0)
(-0.328812 0.106602 7.12174e-22)
(-0.920334 -0.502485 -2.17714e-22)
(-0.00978924 0.0628346 3.15938e-22)
(-0.700269 -0.380564 1.17759e-22)
(-0.046295 0.0483111 7.23097e-24)
(-0.432717 0.233517 -9.94859e-24)
(0.00439929 0.0871213 2.55667e-22)
(-1.22499 -0.572986 2.18474e-21)
(-0.58313 -0.425296 0)
(-0.702982 -0.189267 -9.41534e-24)
(-0.174033 0.197858 0)
(-0.346606 0.116 -7.24833e-22)
(-0.974121 -0.530155 2.65486e-22)
(0.00099935 0.0729034 -3.53033e-22)
(-0.334212 0.00711332 0)
(-0.706887 -0.417957 -7.42059e-23)
(-0.0288915 0.0883304 0)
(-0.482134 -0.0983014 0)
(-0.605975 -0.397055 0)
(-0.0828793 0.137457 0)
(-0.210319 0.0573934 -3.67424e-22)
(-0.579513 -0.275294 -3.16961e-22)
(-0.126617 -0.0183235 -1.0897e-24)
(-0.0932285 0.160841 8.72191e-22)
(-0.537071 -0.0919429 3.97964e-22)
(-0.738964 -0.516023 -1.43122e-22)
(-0.478103 0.137822 6.40111e-23)
(-1.15006 -0.690472 -2.57767e-21)
(0.0374211 0.112469 -4.25886e-22)
(-1.0367 -0.704783 -1.65877e-21)
(-0.475791 0.0377197 5.33787e-23)
(-0.00771578 0.127072 4.01241e-22)
(-0.274678 0.225859 -6.47449e-22)
(-0.293142 -0.177338 1.94929e-22)
(-0.949417 -0.339871 6.99903e-22)
(-0.380531 0.233399 1.39636e-22)
(-0.365349 0.225971 -1.51529e-22)
(-1.13383 -0.491895 1.84348e-22)
(-1.16658 -0.506269 0)
(-0.0698813 0.0183171 -9.69571e-23)
(-0.0851995 0.00248228 -1.10402e-22)
(0.0259581 0.109453 -4.56521e-22)
(-0.916842 -0.498026 9.60235e-21)
(-0.410774 0.199449 -1.56165e-22)
(-0.424573 0.227864 1.47016e-23)
(0.0329072 0.122474 5.11513e-22)
(-1.05916 -0.518396 0)
(-0.376456 0.0311926 -1.09048e-21)
(-0.867787 -0.530866 6.79661e-23)
(-0.0058628 0.106481 0)
(0.0396515 0.11149 -7.95914e-22)
(-0.472587 0.167561 1.93142e-24)
(-1.17586 -0.669572 0)
(-0.310566 0.217636 9.34217e-22)
(-0.327099 0.218648 -6.77399e-22)
(-1.01762 -0.416268 -5.87768e-22)
(-1.05256 -0.440202 -2.62172e-22)
(-0.17411 -0.0743501 -2.13173e-22)
(-0.139148 -0.0437941 -1.10943e-22)
(0.0235277 0.109857 0)
(-1.11017 -0.732326 0)
(-0.530313 0.114796 -7.93226e-23)
(-0.389175 0.219503 3.74078e-22)
(0.0299081 0.116613 0)
(-0.959931 -0.466906 0)
(-0.347655 -0.10827 2.48597e-23)
(-0.154057 0.023698 5.92174e-22)
(-0.285716 -0.120057 2.33376e-22)
(-0.432015 0.207754 8.96398e-22)
(-0.996424 -0.536742 -3.69627e-21)
(0.0299658 0.115884 2.52566e-23)
(-0.223037 0.174484 0)
(-0.792552 -0.310478 1.87497e-22)
(-0.263577 -0.146287 -4.96306e-23)
(-0.501587 0.151958 3.33982e-23)
(-1.15195 -0.699231 -4.6136e-21)
(0.0379047 0.114118 1.65693e-24)
(-0.764185 -0.482583 -2.47049e-22)
(0.0121594 0.0868096 -2.30266e-22)
(-0.394514 0.152216 7.78679e-22)
(-0.122472 0.118226 -5.02463e-22)
(-0.376888 -0.213784 3.01848e-22)
(-0.518304 -0.168002 1.05383e-21)
(-0.293435 -0.0409143 0)
(-0.456925 -0.228489 -1.09469e-21)
(-0.0987218 0.0381671 6.39846e-22)
(-0.463837 0.220156 0)
(0.0363529 0.119742 2.9257e-22)
(-1.16171 -0.606124 -8.10727e-23)
(-0.306823 -0.0375598 0)
(-0.48656 -0.251703 -2.73578e-22)
(-0.0819531 0.0550889 -9.18224e-22)
(-0.319972 -0.0947774 5.03958e-22)
(-0.170755 0.00435717 -3.19982e-22)
(-0.277354 -0.106326 1.34875e-22)
(-0.129645 0.180209 4.36559e-22)
(-0.608315 -0.130238 -7.51411e-23)
(-0.711415 -0.519099 -1.11789e-22)
(-0.385211 -0.102514 0)
(-0.387899 -0.198413 0)
(-0.102755 0.0714396 8.35651e-23)
(-0.380017 -0.0833556 7.93375e-22)
(-0.446426 -0.236343 2.40466e-22)
(-0.0897848 0.0797324 1.14475e-23)
(-0.256758 0.220042 1.00545e-21)
(-0.898607 -0.313699 3.61631e-22)
(-0.336748 -0.218775 -2.26311e-22)
(0.0333693 0.111691 4.48855e-22)
(0.0368121 0.1135 -5.04588e-22)
(-1.20123 -0.62397 -1.7437e-21)
(-1.1912 -0.634839 -1.10885e-21)
(-0.461522 0.214454 0)
(-0.469022 0.204845 7.57511e-23)
(-0.491173 0.139735 -6.02462e-23)
(-1.15187 -0.699868 2.65686e-21)
(0.0369575 0.113537 5.34985e-22)
(-0.278174 -0.17241 -1.79213e-22)
(-0.294063 0.238581 2.07359e-22)
(-0.99604 -0.356361 -8.92291e-22)
(-0.155884 0.15531 -4.90112e-22)
(-0.394008 -0.240639 -2.44321e-22)
(-0.634649 -0.213895 2.3731e-22)
(-0.508077 -0.0467378 0)
(-0.877296 -0.620096 -3.33968e-22)
(-0.0666066 0.150674 1.2024e-23)
(-0.8904 -0.580953 -3.02344e-21)
(0.0181612 0.0941667 -2.34136e-22)
(-0.477573 0.14875 5.48e-22)
(0.0125121 0.116823 0)
(-0.514432 0.0850192 0)
(-1.11046 -0.751167 -1.59404e-21)
(-0.478636 0.201546 -2.06612e-22)
(0.0366264 0.118526 0)
(-1.10976 -0.617961 2.81357e-21)
(0.00992099 0.0811456 -8.36065e-34)
(-0.703323 -0.439379 4.4745e-21)
(-0.357366 0.146094 -7.88205e-22)
(-0.720524 -0.391246 -5.04566e-21)
(0.0154264 0.0874612 8.34154e-34)
(-0.335405 0.172252 6.91425e-22)
(-0.979456 -0.607014 7.99106e-22)
(-0.40453 0.0623913 0)
(0.0105525 0.110584 -1.0074e-21)
(-1.04844 -0.689185 1.3545e-21)
(0.0232525 0.103359 -2.59323e-22)
(-0.535054 0.132826 0)
(-0.418873 0.137801 -3.32678e-22)
(-1.10556 -0.63077 -1.11076e-21)
(0.0286932 0.0991137 4.53886e-22)
(-0.435005 0.252217 -7.81108e-24)
(0.0156318 0.106518 1.3417e-22)
(-1.21954 -0.544991 0)
(-0.243458 0.0604414 2.84978e-22)
(-0.0767951 0.0200213 -2.02586e-22)
(-0.682934 -0.344435 1.3402e-22)
(-1.11603 -0.742634 -8.95924e-22)
(0.02095 0.111934 2.96241e-22)
(-0.526911 0.105816 -3.97867e-24)
(-0.522753 -0.0626849 -1.45341e-22)
(-0.0782492 0.156207 -2.26594e-22)
(-0.837968 -0.591455 0)
(-0.95736 -0.646771 0)
(-0.452138 0.0176746 0)
(-0.016927 0.129596 0)
(0.00327725 0.0438001 0)
(-0.391545 -0.213118 4.71061e-21)
(-0.195339 0.0877129 -8.20821e-22)
(-0.872764 -0.518992 -3.7838e-21)
(0.0200264 0.100826 -2.67415e-22)
(-0.420915 0.180452 5.21378e-22)
(-0.23394 0.048177 -7.53011e-22)
(-0.0929261 0.0100284 5.56482e-22)
(-0.61757 -0.309536 1.48486e-22)
(-1.12414 -0.709994 -4.83746e-21)
(-0.519665 0.137668 2.61416e-22)
(0.0317268 0.111398 0)
(0.0207555 0.10712 -3.04684e-22)
(-0.539998 0.114933 0)
(-1.08692 -0.72946 3.47236e-21)
(-0.46289 0.184082 -1.59716e-23)
(0.0368705 0.109432 7.99436e-22)
(-1.18774 -0.648777 0)
(-0.0206806 0.0636943 -4.58731e-22)
(-1.2134 -0.550431 -1.65796e-21)
(-0.413499 0.235265 0)
(-0.24981 0.226273 -1.32703e-21)
(-0.884823 -0.297429 -4.6089e-22)
(-0.388211 -0.264343 -6.78096e-23)
(-1.10835 -0.466007 -3.00513e-22)
(-0.349938 0.231522 3.85258e-22)
(-0.123466 -0.0305193 -3.07383e-22)
(-0.0165105 0.0709031 -4.07194e-22)
(-0.422109 0.252454 0)
(-1.24195 -0.541695 0)
(-0.235397 0.160241 -2.44705e-22)
(-0.25973 0.170967 0)
(-0.808695 -0.343353 1.84132e-22)
(-0.872483 -0.377435 -1.96948e-22)
(-0.190823 -0.0817684 7.41559e-23)
(-0.166706 -0.0668517 -7.90416e-23)
(-0.218485 0.162401 2.34989e-22)
(-0.7749 -0.314009 0)
(-0.235076 -0.1187 1.08925e-22)
(-0.306344 0.226241 0)
(-1.01459 -0.401608 9.5042e-22)
(-0.202503 -0.10032 8.04072e-23)
(-1.01118 -0.680875 7.39951e-22)
(-0.461595 0.0336933 1.4669e-22)
(-0.00696831 0.125839 -7.98244e-22)
(-1.13978 -0.72124 0)
(-0.500039 0.128042 -1.27461e-22)
(0.0327365 0.113522 0)
(0.0122731 0.118485 -2.47579e-22)
(-0.45471 0.0665208 -4.98282e-23)
(-1.05833 -0.687936 5.47811e-22)
(-0.779984 -0.408521 7.33288e-22)
(0.019504 0.0962027 1.22787e-22)
(-0.353387 0.186145 0)
(-0.154314 0.113692 5.04311e-22)
(-0.162686 0.102555 0)
(-0.275357 -0.136851 0)
(-0.577607 -0.220248 8.99549e-22)
(-0.242641 -0.111061 0)
(-0.575495 -0.232945 -6.37822e-22)
(-0.270716 0.209848 0)
(-0.245972 0.198926 0)
(-0.277553 -0.1611 4.15653e-23)
(-0.926265 -0.358274 -2.33491e-22)
(-0.245555 -0.131051 5.20699e-22)
(-0.864713 -0.327525 2.85418e-22)
(-0.759615 -0.504568 0)
(0.011362 0.0839304 3.28528e-22)
(-0.416501 0.142356 0)
(-1.13402 -0.70696 2.54913e-21)
(-0.512222 0.138489 -4.54764e-23)
(0.0338905 0.112795 1.76934e-22)
(-0.176709 0.178701 -7.9567e-22)
(-0.441024 -0.289699 -1.65224e-22)
(-0.693468 -0.225213 1.86431e-22)
(-0.959729 -0.675309 -1.26396e-21)
(-0.49333 -0.010691 2.55197e-22)
(-0.0415541 0.141434 0)
(-0.0351951 0.0495419 4.90421e-22)
(-1.20362 -0.538075 1.76335e-21)
(-0.404927 0.23668 3.14307e-22)
(-0.992611 -0.586698 0)
(-0.471592 0.18545 0)
(0.0276787 0.11009 0)
(-1.02269 -0.616967 0)
(-0.48971 0.177416 -2.98993e-22)
(0.0295196 0.109321 5.58918e-23)
(-0.324076 0.205389 -4.06707e-22)
(-1.03444 -0.452317 -3.87584e-22)
(-0.117712 -0.0266063 1.64131e-22)
(-0.0980804 0.124826 -1.38834e-22)
(-0.484566 -0.292646 0)
(-0.484325 -0.126568 -2.193e-23)
(-0.470742 0.191709 1.86102e-23)
(0.0377701 0.112368 4.47465e-22)
(-1.1921 -0.646892 1.29075e-21)
(-0.998925 -0.634542 0)
(-0.422249 0.0613424 0)
(0.0103485 0.116291 8.73233e-22)
(0.0171441 0.0876111 1.70969e-22)
(-1.16124 -0.603804 -2.10177e-21)
(-0.418833 0.186608 6.31846e-22)
(-0.232881 0.197815 0)
(-0.317249 -0.194398 -3.91907e-22)
(-0.832217 -0.306542 -3.98861e-23)
(-0.428818 -0.0464288 -2.14013e-23)
(-0.714396 -0.457612 -4.78654e-23)
(-0.0488955 0.126485 0)
(-0.137094 0.139994 2.1046e-23)
(-0.401612 -0.244241 -9.89839e-23)
(-0.577455 -0.19055 -3.10788e-22)
(0.0400244 0.11479 1.17628e-23)
(-1.17512 -0.662843 -3.26129e-21)
(-0.483379 0.183261 -1.33043e-22)
(-0.385511 0.188159 -1.45296e-22)
(-1.12335 -0.558272 4.44318e-22)
(-0.0112933 0.062446 0)
(-0.12919 0.10808 -5.46989e-22)
(-0.336783 -0.179613 6.43164e-22)
(-0.516518 -0.1771 -6.99749e-22)
(-0.427421 0.256297 6.99064e-23)
(-0.00574415 0.0834619 1.584e-22)
(-1.24488 -0.540834 2.09988e-21)
(-0.203475 0.131242 -3.0234e-22)
(-0.706651 -0.304215 0)
(-0.194535 -0.0858887 0)
(-0.317461 -0.0142605 -1.14429e-21)
(-0.593079 -0.330813 1.21976e-22)
(-0.0527486 0.072677 0)
(-0.944111 -0.618312 0)
(-0.430878 0.0247667 5.12897e-22)
(-0.00822845 0.124367 0)
(-0.433622 0.238399 8.90623e-23)
(0.0309496 0.12204 -5.21823e-23)
(-1.14079 -0.539316 -3.84922e-21)
(-0.430411 0.245831 -2.22195e-22)
(0.0271495 0.119565 0)
(-1.16606 -0.533159 3.10062e-21)
(0.00995743 0.0829966 1.38659e-22)
(-1.1755 -0.59265 1.55545e-21)
(-0.417985 0.198929 -5.99114e-22)
(-0.464826 -0.067764 -1.83636e-22)
(-0.731264 -0.486287 -4.65803e-23)
(-0.0643906 0.137772 0)
(0.0315059 0.123338 4.78175e-23)
(-1.08399 -0.51059 3.5928e-21)
(-0.416291 0.234868 0)
(0.0336137 0.104657 0)
(-1.13044 -0.652592 1.37813e-21)
(-0.438369 0.140689 -5.75853e-23)
(0.00465727 0.0668928 2.50193e-22)
(-0.587508 -0.391674 -4.5649e-21)
(-0.31623 0.118041 0)
(-0.28015 0.15699 6.35163e-22)
(-0.623364 -0.314598 0)
(0.0134399 0.076204 2.37184e-22)
(-0.0114273 0.0744375 -8.94364e-24)
(-1.23101 -0.555935 0)
(-0.423317 0.243034 0)
(0.0387039 0.116167 0)
(-1.13738 -0.658146 0)
(-0.496264 0.182285 -3.94792e-22)
(-0.452215 0.214977 -8.40196e-23)
(-0.444469 0.207231 6.7975e-23)
(0.0270071 0.104316 -2.27883e-22)
(-1.21376 -0.611887 5.231e-22)
(0.0251473 0.0998068 -4.01201e-22)
(-1.20494 -0.614085 -7.40276e-22)
(-0.442824 0.126546 1.24268e-22)
(-1.11927 -0.664445 -7.98746e-22)
(0.033261 0.107634 0)
(-0.0641808 0.151631 0)
(-0.91688 -0.65912 0)
(-0.5174 -0.0374311 0)
(-0.170436 0.0737665 0)
(-0.206139 -0.0782182 -1.13588e-21)
(-0.530455 -0.222706 3.72714e-22)
(-0.439457 0.0916714 3.79517e-22)
(-1.07206 -0.669063 -2.11833e-22)
(0.0244482 0.112322 7.09691e-22)
(0.0172479 0.115407 4.66825e-22)
(-0.439216 0.0761513 -5.2742e-22)
(-1.04819 -0.667222 2.93591e-22)
(-0.412062 0.259224 1.95485e-22)
(-0.0383445 0.0505146 1.8804e-22)
(-1.24246 -0.522066 -3.27392e-21)
(-0.281209 0.218779 0)
(-0.956004 -0.364915 -2.83453e-22)
(-0.246958 -0.136346 -5.10393e-22)
(-0.242753 0.185393 0)
(-0.841443 -0.333635 -2.46128e-22)
(-0.248973 -0.136863 6.53093e-24)
(-0.387925 0.0919821 -7.78105e-22)
(-1.00494 -0.596987 -1.69681e-22)
(0.0181512 0.0987132 -4.37364e-22)
(-0.40198 0.0844136 0)
(-1.01295 -0.614108 -1.39712e-22)
(0.0188756 0.105006 3.98331e-22)
(-0.122512 0.0928812 0)
(-0.338758 -0.174719 -9.66169e-22)
(-0.469176 -0.155931 4.39604e-22)
(-0.26831 0.180796 0)
(-0.89491 -0.381297 0)
(-0.172757 -0.0766263 1.06387e-22)
(0.013527 0.112981 -6.4529e-22)
(-1.10517 -0.752596 4.6879e-21)
(-0.53175 0.0919185 0)
(-0.501169 0.163253 -6.16225e-22)
(0.0258992 0.104603 0)
(-0.992543 -0.625032 -2.09471e-21)
(-0.498379 0.151463 -6.29598e-23)
(0.0214341 0.0988945 0)
(-0.951086 -0.615045 6.16976e-21)
(-0.177906 0.149902 3.52699e-22)
(-0.304424 -0.167896 -9.55555e-23)
(-0.675386 -0.256043 -1.03272e-22)
(-0.919363 -0.55432 1.69257e-22)
(0.0225851 0.103081 4.19282e-22)
(-0.455783 0.176223 0)
(-0.402247 0.201394 5.90125e-22)
(-0.00568602 0.0698263 2.9353e-22)
(-1.15944 -0.570455 0)
(0.0175571 0.0948547 -6.47721e-23)
(-0.871051 -0.558568 3.94196e-21)
(-0.455991 0.156621 0)
(-0.249822 -0.00821576 9.20728e-22)
(-0.117232 0.0121095 7.90876e-22)
(-0.465655 -0.220484 2.64244e-23)
(-0.298157 0.11344 -1.55262e-22)
(-0.88141 -0.455892 3.9474e-23)
(-0.0387304 0.03818 -4.6054e-22)
(-0.671526 -0.450129 1.60496e-22)
(-0.492604 -0.0919168 4.52059e-22)
(-0.0818981 0.144242 0)
(0.025632 0.106582 0)
(-1.0774 -0.702346 1.57061e-21)
(-0.533332 0.132401 0)
(-0.981921 -0.64089 0)
(-0.431357 0.0459357 0)
(0.00261719 0.120496 0)
(0.00915724 0.0973611 0)
(-0.435779 0.249711 1.96878e-23)
(-1.23496 -0.554763 -2.06152e-21)
(-0.319807 0.120575 0)
(-0.927494 -0.488432 7.00178e-24)
(-0.021967 0.0511827 4.50255e-22)
(-0.171475 0.0594462 0)
(-0.205397 -0.0745549 9.8902e-22)
(-0.49448 -0.204796 0)
(-1.10653 -0.698189 4.56974e-21)
(-0.521415 0.14726 -2.48084e-22)
(0.0317342 0.110187 0)
(0.0316893 0.100229 -3.30115e-22)
(-1.1543 -0.638693 -9.38183e-23)
(-0.4358 0.166081 7.79215e-23)
(-0.453034 0.225133 0)
(-0.448908 0.223195 -3.21098e-22)
(0.0347999 0.122078 -1.40244e-22)
(0.0346142 0.122255 -1.55041e-22)
(-1.1329 -0.571391 2.15761e-21)
(-1.10126 -0.565069 -1.7749e-21)
(-0.341105 0.0284087 0)
(-0.787473 -0.47114 -1.62162e-22)
(-0.0144055 0.0917791 5.62766e-22)
(-0.931918 -0.574498 -1.07295e-21)
(-0.390346 0.0492801 0)
(0.00530712 0.109289 -5.68148e-22)
(-0.269981 0.0136441 -6.9008e-22)
(-0.585023 -0.308317 1.72661e-22)
(-0.0675966 0.0424038 9.92692e-22)
(-1.039 -0.658959 -3.97689e-21)
(-0.516182 0.156112 -5.76779e-22)
(-1.02623 -0.667629 2.01932e-21)
(0.0275255 0.106456 0)
(-0.524753 0.143289 5.57599e-22)
(0.0240146 0.103346 0)
(-0.365628 0.137656 0)
(-1.03074 -0.55921 0)
(0.00509168 0.0748404 4.58883e-22)
(-0.514155 0.159168 -5.60046e-22)
(-0.513272 0.162769 1.10247e-21)
(-1.10774 -0.681511 -2.62278e-21)
(-1.07775 -0.663265 6.12221e-21)
(0.0337715 0.111742 4.859e-22)
(0.0317554 0.110477 -9.74502e-24)
(-0.393343 0.0329723 0)
(-0.894124 -0.560893 7.12814e-22)
(-0.00453336 0.114196 7.44088e-22)
(-0.294733 0.0616717 6.44272e-22)
(-0.818689 -0.446767 1.10788e-22)
(-0.023884 0.0577174 0)
(-0.439597 0.245559 0)
(0.023882 0.113719 0)
(-1.20089 -0.555831 -2.97847e-21)
(-0.327764 0.047767 4.97756e-22)
(-0.811791 -0.468828 7.08757e-23)
(-0.0101176 0.0839373 -8.74258e-22)
(-0.273909 0.0292774 2.97639e-22)
(-0.653907 -0.356003 -2.02683e-22)
(-0.051203 0.0506043 5.27653e-22)
(-0.445503 0.232028 0)
(0.0324583 0.121451 0)
(-1.15548 -0.564486 3.96969e-21)
(-0.322462 0.138046 0)
(-0.964995 -0.49111 -1.16826e-22)
(-0.0283797 0.0434243 -4.07033e-22)
(-0.818265 -0.589433 0)
(-0.557956 -0.0848536 0)
(-0.0974906 0.166147 -2.90404e-23)
(-0.235923 0.206087 -3.41464e-23)
(-0.842149 -0.298487 0)
(-0.343193 -0.219592 4.96773e-22)
(-1.0599 -0.744457 -1.09754e-21)
(-0.0157332 0.127826 0)
(-0.505037 0.0358242 0)
(0.00658374 0.0615629 -5.85664e-22)
(-0.53431 -0.300793 -6.59012e-21)
(-0.262744 0.11917 1.14875e-21)
(-0.317743 0.0850746 0)
(-0.864632 -0.478123 -6.71203e-23)
(-0.012158 0.0672178 -4.16941e-22)
(-0.450807 0.231676 -1.0801e-23)
(0.0267589 0.110764 7.14521e-22)
(-1.21267 -0.586558 0)
(-0.485558 -0.343833 -5.30179e-23)
(-0.794074 -0.246055 1.25717e-22)
(-0.212266 0.211756 -2.9599e-22)
(-0.343603 0.196811 0)
(0.0234082 0.101894 -1.74971e-22)
(-0.818954 -0.402795 0)
(-0.0728606 0.102462 6.41353e-22)
(-0.0774223 0.116433 -6.53836e-22)
(-0.516225 -0.305353 0)
(-0.405979 -0.0824658 4.53509e-22)
(-0.542471 -0.33193 -6.0084e-22)
(-0.439229 -0.0960621 -3.44944e-22)
(-0.293659 -0.0111486 6.52589e-22)
(-0.548449 -0.290613 3.84209e-22)
(-0.0681891 0.0545236 0)
(-0.10505 0.114366 5.78891e-22)
(-0.0897148 0.102494 0)
(-0.425824 -0.246681 -3.95398e-22)
(-0.48113 -0.139991 4.04546e-22)
(-0.448697 -0.256557 3.98454e-22)
(-0.432668 -0.108708 9.87037e-24)
(-0.302462 0.0803797 3.88327e-23)
(-0.765152 -0.421941 -2.0283e-23)
(-0.028308 0.0615151 -6.55471e-22)
(-0.306585 0.0470877 -1.13526e-21)
(-0.765283 -0.428714 -6.83805e-25)
(-0.0234017 0.0715691 0)
(0.0197792 0.0981064 0)
(-0.966017 -0.640892 0)
(-0.516552 0.140204 -8.33821e-22)
(-0.196641 0.15048 -3.25724e-22)
(-0.715453 -0.283845 0)
(-0.255076 -0.131155 1.7157e-22)
(-0.503718 0.167727 5.71029e-22)
(-1.13692 -0.679639 -2.61119e-21)
(0.0377536 0.114606 -2.75956e-22)
(-0.392266 0.112441 0)
(-0.40974 0.120939 3.20659e-22)
(-1.04215 -0.601666 2.1165e-22)
(-1.07616 -0.623466 -1.04934e-21)
(0.0222804 0.0959779 -5.07943e-22)
(0.0270557 0.0998108 -4.38185e-22)
(-0.189953 0.135057 0)
(-0.684059 -0.280199 0)
(-0.23268 -0.114163 9.79571e-23)
(-0.294046 0.204528 3.29616e-22)
(-0.969637 -0.401853 0)
(-0.1783 -0.0768574 1.79261e-22)
(-0.35714 0.106065 -2.21766e-22)
(-0.974225 -0.551557 0)
(0.00972727 0.0831819 0)
(-0.163294 0.0319001 7.07129e-22)
(-0.395543 -0.145608 -2.58629e-22)
(-0.243757 -0.095772 2.77888e-22)
(-0.422126 0.0984309 0)
(-1.06156 -0.64541 0)
(0.0255368 0.107739 -7.55945e-22)
(-0.152661 0.0850849 0)
(-0.250461 -0.111506 1.27082e-22)
(-0.518086 -0.204531 0)
(-0.373112 0.0531198 -5.28669e-22)
(-0.905203 -0.554207 4.10263e-22)
(0.0024611 0.102009 -7.43461e-23)
(-0.29051 0.191345 3.33024e-22)
(-0.952411 -0.409143 0)
(-0.152484 -0.0589474 3.67601e-22)
(-0.153986 0.051638 -7.00657e-22)
(-0.137886 0.0612375 -3.08219e-22)
(-0.433041 -0.164244 2.63944e-22)
(-0.249343 -0.105272 -5.5704e-22)
(-0.426242 -0.152714 0)
(-0.286697 -0.133822 -9.57026e-22)
(-0.107568 0.0856212 -3.04752e-22)
(-0.373343 -0.200027 4.05918e-22)
(-0.0946387 0.0926456 1.96793e-22)
(-0.429043 -0.127934 -6.28164e-22)
(-0.435936 -0.242246 -2.484e-22)
(-0.418937 -0.109466 7.74868e-23)
(-0.2286 0.145486 3.578e-22)
(-0.248539 0.144521 0)
(-0.779226 -0.340998 4.86511e-24)
(-0.818629 -0.372028 -4.85746e-25)
(-0.170037 -0.0661557 -4.47973e-22)
(-0.132531 -0.0355374 7.4907e-22)
(-0.00951619 0.0704887 0)
(-1.19829 -0.56595 1.0368e-21)
(-0.413735 0.222348 -2.59788e-22)
(-0.106702 0.169449 3.56835e-22)
(-0.568032 -0.103134 1.1842e-22)
(-0.760232 -0.544372 2.32413e-22)
(0.0050255 0.0841493 -2.56628e-22)
(0.0140603 0.0896017 2.13697e-22)
(-1.2097 -0.583917 -8.9742e-22)
(-1.19874 -0.597654 -1.42281e-21)
(-0.42707 0.222991 5.96793e-22)
(-0.431259 0.210919 -2.93983e-22)
(-0.152479 0.179901 5.70603e-22)
(-0.55101 -0.376695 -1.28127e-22)
(-0.647519 -0.179469 3.2142e-23)
(-0.202566 -0.0114484 1.15433e-21)
(-0.224656 -0.0653872 0)
(-0.336648 -0.117261 -9.85799e-22)
(-0.425176 0.114834 -1.23121e-22)
(-1.08574 -0.646728 1.18927e-21)
(0.0293237 0.105742 0)
(-0.167467 0.125682 0)
(-0.268214 -0.141589 -9.32978e-23)
(-0.621152 -0.241595 -2.34619e-22)
(-0.30313 0.192046 0)
(-0.979948 -0.429281 0)
(-0.129214 -0.0378817 -3.42295e-22)
(-0.390782 0.22636 -3.58238e-22)
(-0.387519 0.215324 0)
(-1.17284 -0.532634 -4.02556e-22)