/*--------------------------------*- C++ -*----------------------------------*\
  =========                 |
  \\      /  F ield         | OpenFOAM: The Open Source CFD Toolbox
   \\    /   O peration     | Website:  https://openfoam.org
    \\  /    A nd           | Version:  6
     \\/     M anipulation  |
\*---------------------------------------------------------------------------*/
FoamFile
{
    version     2.0;
    format      ascii;
    class       volScalarField;
    location    "0";
    object      p;
}
// * * * * * * * * * * * * * * * * * * * * * * * * * * * * * * * * * * * * * //

dimensions      [0 2 -2 0 0 0 0];

internalField   nonuniform List<scalar> 
145945
(
2.09135e-06
2.09108e-06
2.09115e-06
2.09125e-06
2.09145e-06
2.09159e-06
2.09174e-06
2.09182e-06
2.09187e-06
2.09184e-06
2.09178e-06
2.09165e-06
2.09154e-06
2.09135e-06
2.09128e-06
2.09116e-06
2.09145e-06
2.09108e-06
2.091e-06
2.0911e-06
2.09127e-06
2.09149e-06
2.09166e-06
2.09181e-06
2.0919e-06
2.09195e-06
2.09192e-06
2.09186e-06
2.09172e-06
2.09158e-06
2.09139e-06
2.09126e-06
2.0911e-06
2.09118e-06
2.09115e-06
2.0911e-06
2.09123e-06
2.09144e-06
2.09168e-06
2.09187e-06
2.09203e-06
2.09212e-06
2.09217e-06
2.09215e-06
2.09208e-06
2.09194e-06
2.09178e-06
2.09157e-06
2.09139e-06
2.09122e-06
2.09125e-06
2.09125e-06
2.09127e-06
2.09144e-06
2.0917e-06
2.09196e-06
2.09217e-06
2.09234e-06
2.09244e-06
2.09249e-06
2.09247e-06
2.09239e-06
2.09225e-06
2.09207e-06
2.09184e-06
2.09162e-06
2.0914e-06
2.09136e-06
2.09145e-06
2.09149e-06
2.09168e-06
2.09196e-06
2.09224e-06
2.09246e-06
2.09263e-06
2.09273e-06
2.09278e-06
2.09276e-06
2.09268e-06
2.09253e-06
2.09235e-06
2.09211e-06
2.09187e-06
2.09163e-06
2.09156e-06
2.09159e-06
2.09166e-06
2.09187e-06
2.09217e-06
2.09246e-06
2.09269e-06
2.09286e-06
2.09297e-06
2.09302e-06
2.093e-06
2.09291e-06
2.09276e-06
2.09257e-06
2.09233e-06
2.09206e-06
2.09179e-06
2.09171e-06
2.09174e-06
2.09181e-06
2.09203e-06
2.09234e-06
2.09263e-06
2.09286e-06
2.09303e-06
2.09315e-06
2.0932e-06
2.09317e-06
2.09309e-06
2.09294e-06
2.09274e-06
2.09249e-06
2.09222e-06
2.09195e-06
2.09185e-06
2.09182e-06
2.0919e-06
2.09212e-06
2.09244e-06
2.09273e-06
2.09297e-06
2.09315e-06
2.09326e-06
2.09331e-06
2.09329e-06
2.0932e-06
2.09305e-06
2.09285e-06
2.0926e-06
2.09232e-06
2.09204e-06
2.09193e-06
2.09187e-06
2.09195e-06
2.09217e-06
2.09249e-06
2.09278e-06
2.09302e-06
2.0932e-06
2.09331e-06
2.09336e-06
2.09334e-06
2.09325e-06
2.0931e-06
2.0929e-06
2.09265e-06
2.09237e-06
2.09209e-06
2.09198e-06
2.09184e-06
2.09192e-06
2.09215e-06
2.09247e-06
2.09276e-06
2.093e-06
2.09317e-06
2.09329e-06
2.09334e-06
2.09332e-06
2.09323e-06
2.09308e-06
2.09288e-06
2.09263e-06
2.09234e-06
2.09206e-06
2.09195e-06
2.09178e-06
2.09186e-06
2.09208e-06
2.09239e-06
2.09268e-06
2.09291e-06
2.09309e-06
2.0932e-06
2.09325e-06
2.09323e-06
2.09314e-06
2.09299e-06
2.0928e-06
2.09255e-06
2.09227e-06
2.092e-06
2.0919e-06
2.09165e-06
2.09172e-06
2.09194e-06
2.09225e-06
2.09253e-06
2.09277e-06
2.09294e-06
2.09305e-06
2.0931e-06
2.09308e-06
2.09299e-06
2.09284e-06
2.09265e-06
2.0924e-06
2.09213e-06
2.09186e-06
2.09176e-06
2.09154e-06
2.09158e-06
2.09178e-06
2.09207e-06
2.09235e-06
2.09257e-06
2.09274e-06
2.09285e-06
2.0929e-06
2.09288e-06
2.0928e-06
2.09265e-06
2.09246e-06
2.09222e-06
2.09197e-06
2.09172e-06
2.09165e-06
2.09135e-06
2.09139e-06
2.09157e-06
2.09184e-06
2.09211e-06
2.09233e-06
2.0925e-06
2.0926e-06
2.09265e-06
2.09263e-06
2.09255e-06
2.0924e-06
2.09222e-06
2.09199e-06
2.09175e-06
2.09152e-06
2.09146e-06
2.09128e-06
2.09126e-06
2.09139e-06
2.09162e-06
2.09187e-06
2.09206e-06
2.09222e-06
2.09232e-06
2.09237e-06
2.09234e-06
2.09227e-06
2.09213e-06
2.09197e-06
2.09175e-06
2.09156e-06
2.09137e-06
2.09139e-06
2.09116e-06
2.0911e-06
2.09122e-06
2.0914e-06
2.09163e-06
2.0918e-06
2.09195e-06
2.09204e-06
2.09209e-06
2.09206e-06
2.092e-06
2.09186e-06
2.09172e-06
2.09152e-06
2.09137e-06
2.09121e-06
2.09126e-06
2.09145e-06
2.09118e-06
2.09125e-06
2.09136e-06
2.09156e-06
2.09171e-06
2.09185e-06
2.09193e-06
2.09198e-06
2.09196e-06
2.0919e-06
2.09176e-06
2.09165e-06
2.09146e-06
2.09139e-06
2.09126e-06
2.09155e-06
2.01664e-06
2.01666e-06
2.01702e-06
2.01738e-06
2.01778e-06
2.01811e-06
2.01838e-06
2.01855e-06
2.01862e-06
2.01858e-06
2.01845e-06
2.01821e-06
2.01791e-06
2.01753e-06
2.01719e-06
2.01678e-06
2.01673e-06
2.01666e-06
2.01686e-06
2.01725e-06
2.01768e-06
2.01812e-06
2.01848e-06
2.01876e-06
2.01894e-06
2.01902e-06
2.01898e-06
2.01884e-06
2.01858e-06
2.01826e-06
2.01785e-06
2.01744e-06
2.01699e-06
2.01676e-06
2.01702e-06
2.01725e-06
2.01765e-06
2.01813e-06
2.0186e-06
2.01899e-06
2.01929e-06
2.01948e-06
2.01956e-06
2.01952e-06
2.01936e-06
2.01909e-06
2.01874e-06
2.01831e-06
2.01785e-06
2.0174e-06
2.01712e-06
2.01738e-06
2.01768e-06
2.01813e-06
2.01865e-06
2.01915e-06
2.01956e-06
2.01987e-06
2.02007e-06
2.02015e-06
2.02011e-06
2.01995e-06
2.01967e-06
2.0193e-06
2.01884e-06
2.01834e-06
2.01784e-06
2.01748e-06
2.01778e-06
2.01812e-06
2.0186e-06
2.01915e-06
2.01966e-06
2.02008e-06
2.0204e-06
2.02061e-06
2.0207e-06
2.02065e-06
2.02049e-06
2.0202e-06
2.01982e-06
2.01934e-06
2.01882e-06
2.01828e-06
2.01788e-06
2.01811e-06
2.01848e-06
2.01899e-06
2.01956e-06
2.02008e-06
2.02052e-06
2.02085e-06
2.02105e-06
2.02114e-06
2.0211e-06
2.02093e-06
2.02064e-06
2.02025e-06
2.01976e-06
2.01921e-06
2.01865e-06
2.01822e-06
2.01838e-06
2.01876e-06
2.01929e-06
2.01987e-06
2.0204e-06
2.02085e-06
2.02118e-06
2.02139e-06
2.02148e-06
2.02143e-06
2.02126e-06
2.02097e-06
2.02057e-06
2.02008e-06
2.01952e-06
2.01894e-06
2.01849e-06
2.01855e-06
2.01894e-06
2.01948e-06
2.02007e-06
2.02061e-06
2.02106e-06
2.02139e-06
2.0216e-06
2.02169e-06
2.02165e-06
2.02147e-06
2.02118e-06
2.02078e-06
2.02028e-06
2.01971e-06
2.01912e-06
2.01865e-06
2.01862e-06
2.01902e-06
2.01956e-06
2.02015e-06
2.0207e-06
2.02114e-06
2.02148e-06
2.02169e-06
2.02178e-06
2.02174e-06
2.02156e-06
2.02127e-06
2.02087e-06
2.02036e-06
2.01979e-06
2.0192e-06
2.01873e-06
2.01858e-06
2.01898e-06
2.01952e-06
2.02011e-06
2.02065e-06
2.0211e-06
2.02143e-06
2.02165e-06
2.02174e-06
2.02169e-06
2.02152e-06
2.02122e-06
2.02082e-06
2.02032e-06
2.01975e-06
2.01916e-06
2.01869e-06
2.01845e-06
2.01884e-06
2.01936e-06
2.01995e-06
2.02049e-06
2.02093e-06
2.02126e-06
2.02147e-06
2.02156e-06
2.02152e-06
2.02135e-06
2.02105e-06
2.02065e-06
2.02016e-06
2.01959e-06
2.01901e-06
2.01855e-06
2.01821e-06
2.01858e-06
2.01909e-06
2.01967e-06
2.0202e-06
2.02064e-06
2.02097e-06
2.02118e-06
2.02127e-06
2.02122e-06
2.02105e-06
2.02076e-06
2.02037e-06
2.01987e-06
2.01932e-06
2.01875e-06
2.01831e-06
2.01791e-06
2.01826e-06
2.01874e-06
2.0193e-06
2.01982e-06
2.02025e-06
2.02057e-06
2.02078e-06
2.02087e-06
2.02082e-06
2.02065e-06
2.02037e-06
2.01998e-06
2.0195e-06
2.01897e-06
2.01842e-06
2.01801e-06
2.01753e-06
2.01785e-06
2.01831e-06
2.01884e-06
2.01935e-06
2.01976e-06
2.02008e-06
2.02028e-06
2.02036e-06
2.02032e-06
2.02016e-06
2.01987e-06
2.0195e-06
2.01904e-06
2.01852e-06
2.01801e-06
2.01763e-06
2.01719e-06
2.01744e-06
2.01785e-06
2.01834e-06
2.01882e-06
2.01921e-06
2.01952e-06
2.01971e-06
2.01979e-06
2.01975e-06
2.01959e-06
2.01932e-06
2.01897e-06
2.01852e-06
2.01806e-06
2.01759e-06
2.01729e-06
2.01678e-06
2.017e-06
2.0174e-06
2.01784e-06
2.01828e-06
2.01865e-06
2.01894e-06
2.01912e-06
2.0192e-06
2.01916e-06
2.01901e-06
2.01875e-06
2.01842e-06
2.01801e-06
2.01759e-06
2.01713e-06
2.01687e-06
2.01673e-06
2.01676e-06
2.01712e-06
2.01748e-06
2.01788e-06
2.01822e-06
2.01849e-06
2.01865e-06
2.01873e-06
2.01869e-06
2.01855e-06
2.01831e-06
2.01801e-06
2.01763e-06
2.01729e-06
2.01687e-06
2.01682e-06
1.96068e-06
1.96199e-06
1.96324e-06
1.96434e-06
1.96533e-06
1.96608e-06
1.96662e-06
1.96695e-06
1.96708e-06
1.96699e-06
1.96671e-06
1.96621e-06
1.96551e-06
1.96455e-06
1.96344e-06
1.96205e-06
1.96067e-06
1.96199e-06
1.96314e-06
1.96435e-06
1.96547e-06
1.96644e-06
1.96719e-06
1.96773e-06
1.96806e-06
1.96818e-06
1.9681e-06
1.96782e-06
1.96732e-06
1.96662e-06
1.96568e-06
1.96455e-06
1.9632e-06
1.96198e-06
1.96324e-06
1.96435e-06
1.96549e-06
1.96656e-06
1.96751e-06
1.96824e-06
1.96877e-06
1.9691e-06
1.96922e-06
1.96914e-06
1.96886e-06
1.96837e-06
1.96768e-06
1.96677e-06
1.96566e-06
1.9644e-06
1.96324e-06
1.96434e-06
1.96547e-06
1.96656e-06
1.96762e-06
1.96854e-06
1.96926e-06
1.96978e-06
1.9701e-06
1.97023e-06
1.97015e-06
1.96987e-06
1.96939e-06
1.96871e-06
1.96782e-06
1.96673e-06
1.96551e-06
1.96434e-06
1.96533e-06
1.96644e-06
1.96751e-06
1.96854e-06
1.96945e-06
1.97015e-06
1.97067e-06
1.97098e-06
1.9711e-06
1.97103e-06
1.97075e-06
1.97028e-06
1.96961e-06
1.96874e-06
1.96767e-06
1.96649e-06
1.96533e-06
1.96608e-06
1.96719e-06
1.96824e-06
1.96926e-06
1.97015e-06
1.97086e-06
1.97137e-06
1.97168e-06
1.9718e-06
1.97172e-06
1.97145e-06
1.97098e-06
1.97032e-06
1.96945e-06
1.9684e-06
1.96724e-06
1.96607e-06
1.96662e-06
1.96773e-06
1.96877e-06
1.96978e-06
1.97067e-06
1.97137e-06
1.97187e-06
1.97218e-06
1.9723e-06
1.97222e-06
1.97195e-06
1.97149e-06
1.97083e-06
1.96997e-06
1.96893e-06
1.96778e-06
1.96662e-06
1.96695e-06
1.96806e-06
1.9691e-06
1.9701e-06
1.97098e-06
1.97168e-06
1.97218e-06
1.97249e-06
1.97261e-06
1.97253e-06
1.97226e-06
1.9718e-06
1.97115e-06
1.97029e-06
1.96925e-06
1.9681e-06
1.96694e-06
1.96708e-06
1.96818e-06
1.96922e-06
1.97022e-06
1.9711e-06
1.9718e-06
1.9723e-06
1.97261e-06
1.97273e-06
1.97265e-06
1.97238e-06
1.97192e-06
1.97127e-06
1.97042e-06
1.96938e-06
1.96823e-06
1.96707e-06
1.96699e-06
1.9681e-06
1.96914e-06
1.97015e-06
1.97103e-06
1.97172e-06
1.97222e-06
1.97253e-06
1.97265e-06
1.97258e-06
1.97231e-06
1.97185e-06
1.97119e-06
1.97034e-06
1.9693e-06
1.96815e-06
1.96699e-06
1.96671e-06
1.96782e-06
1.96886e-06
1.96987e-06
1.97075e-06
1.97145e-06
1.97195e-06
1.97226e-06
1.97238e-06
1.97231e-06
1.97204e-06
1.97157e-06
1.97092e-06
1.97006e-06
1.96902e-06
1.96786e-06
1.9667e-06
1.96621e-06
1.96732e-06
1.96837e-06
1.96939e-06
1.97028e-06
1.97098e-06
1.97149e-06
1.9718e-06
1.97192e-06
1.97185e-06
1.97157e-06
1.97111e-06
1.97045e-06
1.96958e-06
1.96853e-06
1.96737e-06
1.9662e-06
1.96551e-06
1.96662e-06
1.96768e-06
1.96871e-06
1.96961e-06
1.97032e-06
1.97083e-06
1.97115e-06
1.97127e-06
1.97119e-06
1.97092e-06
1.97045e-06
1.96978e-06
1.96891e-06
1.96784e-06
1.96667e-06
1.96551e-06
1.96455e-06
1.96568e-06
1.96677e-06
1.96782e-06
1.96874e-06
1.96946e-06
1.96997e-06
1.97029e-06
1.97042e-06
1.97034e-06
1.97006e-06
1.96958e-06
1.96891e-06
1.96802e-06
1.96693e-06
1.96572e-06
1.96455e-06
1.96344e-06
1.96455e-06
1.96566e-06
1.96673e-06
1.96767e-06
1.9684e-06
1.96893e-06
1.96925e-06
1.96938e-06
1.9693e-06
1.96902e-06
1.96853e-06
1.96784e-06
1.96693e-06
1.96584e-06
1.9646e-06
1.96343e-06
1.96205e-06
1.9632e-06
1.9644e-06
1.96552e-06
1.96649e-06
1.96724e-06
1.96778e-06
1.9681e-06
1.96823e-06
1.96815e-06
1.96786e-06
1.96737e-06
1.96667e-06
1.96572e-06
1.96459e-06
1.96326e-06
1.96205e-06
1.96067e-06
1.96198e-06
1.96324e-06
1.96434e-06
1.96533e-06
1.96607e-06
1.96662e-06
1.96694e-06
1.96707e-06
1.96699e-06
1.9667e-06
1.9662e-06
1.96551e-06
1.96455e-06
1.96343e-06
1.96205e-06
1.96066e-06
1.90667e-06
1.90886e-06
1.91084e-06
1.9127e-06
1.91429e-06
1.91547e-06
1.91631e-06
1.91682e-06
1.91702e-06
1.91689e-06
1.91644e-06
1.91566e-06
1.91456e-06
1.91305e-06
1.91118e-06
1.90902e-06
1.90667e-06
1.90886e-06
1.91069e-06
1.91262e-06
1.91445e-06
1.916e-06
1.91717e-06
1.918e-06
1.9185e-06
1.91869e-06
1.91856e-06
1.91812e-06
1.91736e-06
1.91627e-06
1.91479e-06
1.91296e-06
1.91084e-06
1.90887e-06
1.91084e-06
1.91262e-06
1.91448e-06
1.91624e-06
1.91773e-06
1.91885e-06
1.91965e-06
1.92014e-06
1.92032e-06
1.9202e-06
1.91978e-06
1.91904e-06
1.91799e-06
1.91657e-06
1.91481e-06
1.91276e-06
1.91085e-06
1.9127e-06
1.91445e-06
1.91624e-06
1.91795e-06
1.91938e-06
1.92047e-06
1.92125e-06
1.92172e-06
1.9219e-06
1.92178e-06
1.92137e-06
1.92065e-06
1.91964e-06
1.91827e-06
1.91656e-06
1.91458e-06
1.91272e-06
1.91429e-06
1.916e-06
1.91773e-06
1.91938e-06
1.92078e-06
1.92184e-06
1.92259e-06
1.92305e-06
1.92322e-06
1.92311e-06
1.92271e-06
1.92201e-06
1.92102e-06
1.9197e-06
1.91803e-06
1.91613e-06
1.9143e-06
1.91547e-06
1.91717e-06
1.91885e-06
1.92047e-06
1.92184e-06
1.92288e-06
1.92361e-06
1.92406e-06
1.92424e-06
1.92412e-06
1.92373e-06
1.92305e-06
1.92208e-06
1.92079e-06
1.91915e-06
1.9173e-06
1.91548e-06
1.91631e-06
1.918e-06
1.91965e-06
1.92125e-06
1.92259e-06
1.92361e-06
1.92434e-06
1.92478e-06
1.92495e-06
1.92484e-06
1.92445e-06
1.92379e-06
1.92283e-06
1.92155e-06
1.91995e-06
1.91812e-06
1.91633e-06
1.91682e-06
1.9185e-06
1.92014e-06
1.92172e-06
1.92305e-06
1.92406e-06
1.92478e-06
1.92522e-06
1.92539e-06
1.92528e-06
1.9249e-06
1.92423e-06
1.92329e-06
1.92202e-06
1.92043e-06
1.91863e-06
1.91684e-06
1.91702e-06
1.91869e-06
1.92032e-06
1.9219e-06
1.92322e-06
1.92424e-06
1.92495e-06
1.92539e-06
1.92556e-06
1.92545e-06
1.92507e-06
1.92441e-06
1.92346e-06
1.9222e-06
1.92062e-06
1.91882e-06
1.91703e-06
1.91689e-06
1.91856e-06
1.9202e-06
1.92178e-06
1.92311e-06
1.92412e-06
1.92484e-06
1.92528e-06
1.92545e-06
1.92534e-06
1.92496e-06
1.92429e-06
1.92335e-06
1.92208e-06
1.92049e-06
1.91869e-06
1.9169e-06
1.91644e-06
1.91812e-06
1.91978e-06
1.92137e-06
1.92271e-06
1.92373e-06
1.92445e-06
1.9249e-06
1.92507e-06
1.92496e-06
1.92457e-06
1.9239e-06
1.92295e-06
1.92167e-06
1.92007e-06
1.91825e-06
1.91646e-06
1.91566e-06
1.91736e-06
1.91904e-06
1.92065e-06
1.92201e-06
1.92305e-06
1.92379e-06
1.92423e-06
1.92441e-06
1.92429e-06
1.9239e-06
1.92322e-06
1.92226e-06
1.92097e-06
1.91934e-06
1.91749e-06
1.91568e-06
1.91456e-06
1.91627e-06
1.91799e-06
1.91964e-06
1.92102e-06
1.92208e-06
1.92283e-06
1.92329e-06
1.92346e-06
1.92335e-06
1.92295e-06
1.92226e-06
1.92127e-06
1.91995e-06
1.91829e-06
1.9164e-06
1.91457e-06
1.91305e-06
1.9148e-06
1.91657e-06
1.91827e-06
1.9197e-06
1.92079e-06
1.92155e-06
1.92202e-06
1.9222e-06
1.92208e-06
1.92167e-06
1.92097e-06
1.91995e-06
1.9186e-06
1.91689e-06
1.91493e-06
1.91306e-06
1.91118e-06
1.91296e-06
1.91481e-06
1.91656e-06
1.91804e-06
1.91915e-06
1.91995e-06
1.92043e-06
1.92062e-06
1.9205e-06
1.92007e-06
1.91934e-06
1.91829e-06
1.91689e-06
1.91513e-06
1.9131e-06
1.91119e-06
1.90902e-06
1.91084e-06
1.91276e-06
1.91458e-06
1.91613e-06
1.9173e-06
1.91813e-06
1.91863e-06
1.91882e-06
1.91869e-06
1.91825e-06
1.91749e-06
1.9164e-06
1.91493e-06
1.9131e-06
1.91098e-06
1.90904e-06
1.90667e-06
1.90887e-06
1.91085e-06
1.91271e-06
1.9143e-06
1.91548e-06
1.91633e-06
1.91684e-06
1.91703e-06
1.9169e-06
1.91646e-06
1.91568e-06
1.91457e-06
1.91306e-06
1.91119e-06
1.90904e-06
1.90668e-06
1.85424e-06
1.85677e-06
1.85899e-06
1.86117e-06
1.863e-06
1.86438e-06
1.86537e-06
1.86596e-06
1.86619e-06
1.86604e-06
1.86551e-06
1.8646e-06
1.86331e-06
1.86157e-06
1.85937e-06
1.85695e-06
1.85425e-06
1.85677e-06
1.85885e-06
1.86105e-06
1.86319e-06
1.865e-06
1.86637e-06
1.86735e-06
1.86794e-06
1.86817e-06
1.86802e-06
1.8675e-06
1.86659e-06
1.86531e-06
1.86358e-06
1.86143e-06
1.85902e-06
1.85678e-06
1.85899e-06
1.86105e-06
1.86322e-06
1.86529e-06
1.86704e-06
1.86837e-06
1.86932e-06
1.8699e-06
1.87012e-06
1.86997e-06
1.86946e-06
1.86859e-06
1.86734e-06
1.86568e-06
1.8636e-06
1.86121e-06
1.859e-06
1.86118e-06
1.86319e-06
1.86529e-06
1.86729e-06
1.86899e-06
1.87029e-06
1.87122e-06
1.87178e-06
1.87199e-06
1.87185e-06
1.87136e-06
1.87051e-06
1.86929e-06
1.86767e-06
1.86565e-06
1.86334e-06
1.86119e-06
1.863e-06
1.865e-06
1.86704e-06
1.86899e-06
1.87065e-06
1.87192e-06
1.87282e-06
1.87337e-06
1.87358e-06
1.87344e-06
1.87296e-06
1.87213e-06
1.87094e-06
1.86937e-06
1.86739e-06
1.86514e-06
1.86301e-06
1.86438e-06
1.86637e-06
1.86837e-06
1.87029e-06
1.87192e-06
1.87317e-06
1.87405e-06
1.87459e-06
1.8748e-06
1.87466e-06
1.87419e-06
1.87337e-06
1.87221e-06
1.87066e-06
1.86872e-06
1.86652e-06
1.86439e-06
1.86536e-06
1.86735e-06
1.86932e-06
1.87122e-06
1.87282e-06
1.87405e-06
1.87492e-06
1.87546e-06
1.87566e-06
1.87553e-06
1.87506e-06
1.87426e-06
1.8731e-06
1.87158e-06
1.86966e-06
1.8675e-06
1.86538e-06
1.86596e-06
1.86794e-06
1.8699e-06
1.87178e-06
1.87337e-06
1.87459e-06
1.87546e-06
1.87599e-06
1.87619e-06
1.87606e-06
1.87559e-06
1.8748e-06
1.87365e-06
1.87214e-06
1.87024e-06
1.86809e-06
1.86598e-06
1.86619e-06
1.86817e-06
1.87012e-06
1.87199e-06
1.87358e-06
1.8748e-06
1.87566e-06
1.87619e-06
1.87639e-06
1.87626e-06
1.8758e-06
1.875e-06
1.87386e-06
1.87235e-06
1.87046e-06
1.86832e-06
1.86621e-06
1.86604e-06
1.86802e-06
1.86997e-06
1.87185e-06
1.87344e-06
1.87466e-06
1.87553e-06
1.87606e-06
1.87626e-06
1.87613e-06
1.87567e-06
1.87487e-06
1.87373e-06
1.87221e-06
1.87032e-06
1.86817e-06
1.86605e-06
1.86551e-06
1.8675e-06
1.86946e-06
1.87136e-06
1.87296e-06
1.87419e-06
1.87506e-06
1.87559e-06
1.8758e-06
1.87567e-06
1.8752e-06
1.87439e-06
1.87324e-06
1.87172e-06
1.86981e-06
1.86765e-06
1.86553e-06
1.8646e-06
1.86659e-06
1.86859e-06
1.87051e-06
1.87213e-06
1.87337e-06
1.87426e-06
1.8748e-06
1.875e-06
1.87487e-06
1.87439e-06
1.87358e-06
1.87242e-06
1.87087e-06
1.86894e-06
1.86674e-06
1.86461e-06
1.86331e-06
1.86531e-06
1.86734e-06
1.86929e-06
1.87094e-06
1.87221e-06
1.8731e-06
1.87365e-06
1.87386e-06
1.87373e-06
1.87324e-06
1.87242e-06
1.87123e-06
1.86966e-06
1.8677e-06
1.86546e-06
1.86332e-06
1.86157e-06
1.86359e-06
1.86568e-06
1.86767e-06
1.86937e-06
1.87066e-06
1.87158e-06
1.87214e-06
1.87235e-06
1.87221e-06
1.87172e-06
1.87087e-06
1.86966e-06
1.86805e-06
1.86604e-06
1.86373e-06
1.86159e-06
1.85937e-06
1.86143e-06
1.8636e-06
1.86565e-06
1.8674e-06
1.86872e-06
1.86967e-06
1.87024e-06
1.87046e-06
1.87032e-06
1.86981e-06
1.86894e-06
1.8677e-06
1.86604e-06
1.86397e-06
1.86159e-06
1.85938e-06
1.85696e-06
1.85902e-06
1.86121e-06
1.86334e-06
1.86514e-06
1.86652e-06
1.8675e-06
1.86809e-06
1.86832e-06
1.86817e-06
1.86765e-06
1.86674e-06
1.86546e-06
1.86373e-06
1.86159e-06
1.85918e-06
1.85697e-06
1.85425e-06
1.85677e-06
1.859e-06
1.86119e-06
1.86301e-06
1.86439e-06
1.86538e-06
1.86598e-06
1.86621e-06
1.86605e-06
1.86553e-06
1.86461e-06
1.86332e-06
1.86158e-06
1.85938e-06
1.85696e-06
1.85425e-06
1.80596e-06
1.80857e-06
1.81086e-06
1.81316e-06
1.81505e-06
1.8165e-06
1.81753e-06
1.81816e-06
1.8184e-06
1.81824e-06
1.81769e-06
1.81673e-06
1.81537e-06
1.81356e-06
1.81123e-06
1.80876e-06
1.80595e-06
1.80857e-06
1.81074e-06
1.81302e-06
1.81527e-06
1.81716e-06
1.81861e-06
1.81965e-06
1.82028e-06
1.82052e-06
1.82036e-06
1.81981e-06
1.81884e-06
1.81748e-06
1.81567e-06
1.8134e-06
1.8109e-06
1.80857e-06
1.81086e-06
1.81302e-06
1.81531e-06
1.81748e-06
1.81933e-06
1.82075e-06
1.82176e-06
1.82237e-06
1.82261e-06
1.82245e-06
1.82191e-06
1.82097e-06
1.81964e-06
1.81788e-06
1.81568e-06
1.81317e-06
1.81085e-06
1.81316e-06
1.81527e-06
1.81748e-06
1.8196e-06
1.82141e-06
1.8228e-06
1.82378e-06
1.82439e-06
1.82462e-06
1.82446e-06
1.82393e-06
1.82302e-06
1.82172e-06
1.81999e-06
1.81785e-06
1.8154e-06
1.81315e-06
1.81505e-06
1.81716e-06
1.81933e-06
1.82141e-06
1.82318e-06
1.82454e-06
1.82551e-06
1.8261e-06
1.82632e-06
1.82618e-06
1.82565e-06
1.82476e-06
1.82348e-06
1.82179e-06
1.81969e-06
1.81729e-06
1.81504e-06
1.8165e-06
1.81861e-06
1.82075e-06
1.8228e-06
1.82454e-06
1.82588e-06
1.82683e-06
1.82742e-06
1.82764e-06
1.82749e-06
1.82698e-06
1.8261e-06
1.82484e-06
1.82317e-06
1.8211e-06
1.81875e-06
1.81649e-06
1.81753e-06
1.81965e-06
1.82176e-06
1.82378e-06
1.82551e-06
1.82683e-06
1.82778e-06
1.82836e-06
1.82858e-06
1.82843e-06
1.82792e-06
1.82705e-06
1.8258e-06
1.82416e-06
1.8221e-06
1.81978e-06
1.81753e-06
1.81816e-06
1.82028e-06
1.82237e-06
1.82439e-06
1.8261e-06
1.82742e-06
1.82836e-06
1.82893e-06
1.82915e-06
1.829e-06
1.8285e-06
1.82763e-06
1.82639e-06
1.82476e-06
1.82272e-06
1.82042e-06
1.81816e-06
1.8184e-06
1.82052e-06
1.82261e-06
1.82462e-06
1.82632e-06
1.82764e-06
1.82858e-06
1.82915e-06
1.82936e-06
1.82922e-06
1.82872e-06
1.82785e-06
1.82662e-06
1.82499e-06
1.82295e-06
1.82066e-06
1.8184e-06
1.81824e-06
1.82036e-06
1.82245e-06
1.82446e-06
1.82618e-06
1.82749e-06
1.82843e-06
1.829e-06
1.82922e-06
1.82908e-06
1.82857e-06
1.8277e-06
1.82647e-06
1.82483e-06
1.82279e-06
1.82049e-06
1.81824e-06
1.81769e-06
1.81981e-06
1.82191e-06
1.82393e-06
1.82565e-06
1.82698e-06
1.82792e-06
1.8285e-06
1.82872e-06
1.82857e-06
1.82806e-06
1.82719e-06
1.82595e-06
1.8243e-06
1.82225e-06
1.81994e-06
1.81768e-06
1.81673e-06
1.81884e-06
1.82097e-06
1.82302e-06
1.82476e-06
1.8261e-06
1.82705e-06
1.82763e-06
1.82785e-06
1.8277e-06
1.82719e-06
1.82631e-06
1.82505e-06
1.82339e-06
1.82132e-06
1.81898e-06
1.81672e-06
1.81537e-06
1.81748e-06
1.81964e-06
1.82172e-06
1.82348e-06
1.82484e-06
1.8258e-06
1.82639e-06
1.82662e-06
1.82647e-06
1.82595e-06
1.82505e-06
1.82378e-06
1.8221e-06
1.82e-06
1.81761e-06
1.81536e-06
1.81357e-06
1.81567e-06
1.81788e-06
1.81999e-06
1.82179e-06
1.82317e-06
1.82416e-06
1.82476e-06
1.82499e-06
1.82483e-06
1.8243e-06
1.82339e-06
1.8221e-06
1.82038e-06
1.81824e-06
1.81581e-06
1.81356e-06
1.81123e-06
1.8134e-06
1.81568e-06
1.81785e-06
1.81969e-06
1.8211e-06
1.8221e-06
1.82272e-06
1.82295e-06
1.82279e-06
1.82225e-06
1.82132e-06
1.82e-06
1.81824e-06
1.81605e-06
1.81354e-06
1.81122e-06
1.80876e-06
1.8109e-06
1.81317e-06
1.8154e-06
1.8173e-06
1.81875e-06
1.81978e-06
1.82042e-06
1.82066e-06
1.8205e-06
1.81994e-06
1.81898e-06
1.81762e-06
1.81581e-06
1.81354e-06
1.81106e-06
1.80875e-06
1.80595e-06
1.80857e-06
1.81085e-06
1.81315e-06
1.81504e-06
1.81649e-06
1.81753e-06
1.81816e-06
1.8184e-06
1.81824e-06
1.81768e-06
1.81672e-06
1.81536e-06
1.81356e-06
1.81122e-06
1.80875e-06
1.80594e-06
1.76165e-06
1.76419e-06
1.7664e-06
1.76869e-06
1.77054e-06
1.77198e-06
1.77301e-06
1.77364e-06
1.77388e-06
1.77372e-06
1.77316e-06
1.77221e-06
1.77085e-06
1.76909e-06
1.76676e-06
1.76436e-06
1.76164e-06
1.76419e-06
1.76631e-06
1.76853e-06
1.77076e-06
1.77264e-06
1.77409e-06
1.77513e-06
1.77576e-06
1.77601e-06
1.77584e-06
1.77528e-06
1.77432e-06
1.77296e-06
1.77116e-06
1.7689e-06
1.76646e-06
1.76418e-06
1.7664e-06
1.76853e-06
1.7708e-06
1.77297e-06
1.77482e-06
1.77624e-06
1.77725e-06
1.77787e-06
1.77811e-06
1.77795e-06
1.7774e-06
1.77646e-06
1.77513e-06
1.77336e-06
1.77116e-06
1.76868e-06
1.76639e-06
1.76869e-06
1.77076e-06
1.77297e-06
1.77509e-06
1.77691e-06
1.77831e-06
1.7793e-06
1.77992e-06
1.78015e-06
1.77999e-06
1.77945e-06
1.77853e-06
1.77721e-06
1.77548e-06
1.77333e-06
1.77089e-06
1.76868e-06
1.77054e-06
1.77264e-06
1.77482e-06
1.77691e-06
1.7787e-06
1.78008e-06
1.78106e-06
1.78166e-06
1.78189e-06
1.78174e-06
1.7812e-06
1.78029e-06
1.779e-06
1.77729e-06
1.77517e-06
1.77277e-06
1.77053e-06
1.77198e-06
1.77409e-06
1.77624e-06
1.77831e-06
1.78007e-06
1.78144e-06
1.78241e-06
1.78301e-06
1.78323e-06
1.78308e-06
1.78256e-06
1.78166e-06
1.78037e-06
1.77868e-06
1.77659e-06
1.77422e-06
1.77197e-06
1.77301e-06
1.77513e-06
1.77725e-06
1.7793e-06
1.78106e-06
1.78241e-06
1.78338e-06
1.78397e-06
1.78419e-06
1.78404e-06
1.78352e-06
1.78263e-06
1.78135e-06
1.77968e-06
1.7776e-06
1.77526e-06
1.773e-06
1.77364e-06
1.77576e-06
1.77787e-06
1.77992e-06
1.78166e-06
1.78301e-06
1.78397e-06
1.78456e-06
1.78478e-06
1.78463e-06
1.78411e-06
1.78322e-06
1.78196e-06
1.78029e-06
1.77822e-06
1.77589e-06
1.77363e-06
1.77388e-06
1.776e-06
1.77811e-06
1.78015e-06
1.78189e-06
1.78323e-06
1.78419e-06
1.78478e-06
1.785e-06
1.78485e-06
1.78433e-06
1.78345e-06
1.78218e-06
1.78052e-06
1.77845e-06
1.77613e-06
1.77387e-06
1.77372e-06
1.77584e-06
1.77795e-06
1.77999e-06
1.78174e-06
1.78308e-06
1.78404e-06
1.78463e-06
1.78485e-06
1.7847e-06
1.78418e-06
1.7833e-06
1.78203e-06
1.78036e-06
1.77829e-06
1.77597e-06
1.77371e-06
1.77316e-06
1.77528e-06
1.7774e-06
1.77945e-06
1.7812e-06
1.78256e-06
1.78352e-06
1.78411e-06
1.78433e-06
1.78418e-06
1.78366e-06
1.78277e-06
1.7815e-06
1.77983e-06
1.77775e-06
1.77541e-06
1.77315e-06
1.77221e-06
1.77432e-06
1.77646e-06
1.77853e-06
1.78029e-06
1.78166e-06
1.78263e-06
1.78322e-06
1.78345e-06
1.7833e-06
1.78277e-06
1.78187e-06
1.78059e-06
1.7789e-06
1.77681e-06
1.77445e-06
1.7722e-06
1.77085e-06
1.77296e-06
1.77513e-06
1.77721e-06
1.779e-06
1.78037e-06
1.78135e-06
1.78196e-06
1.78218e-06
1.78203e-06
1.7815e-06
1.78059e-06
1.7793e-06
1.77759e-06
1.77548e-06
1.77308e-06
1.77084e-06
1.76909e-06
1.77116e-06
1.77336e-06
1.77548e-06
1.77729e-06
1.77868e-06
1.77968e-06
1.78029e-06
1.78052e-06
1.78037e-06
1.77983e-06
1.7789e-06
1.77759e-06
1.77586e-06
1.77372e-06
1.7713e-06
1.76908e-06
1.76676e-06
1.7689e-06
1.77116e-06
1.77333e-06
1.77517e-06
1.77659e-06
1.7776e-06
1.77822e-06
1.77845e-06
1.77829e-06
1.77775e-06
1.77681e-06
1.77548e-06
1.77372e-06
1.77153e-06
1.76904e-06
1.76675e-06
1.76437e-06
1.76646e-06
1.76868e-06
1.77089e-06
1.77277e-06
1.77422e-06
1.77526e-06
1.77589e-06
1.77613e-06
1.77597e-06
1.77541e-06
1.77445e-06
1.77309e-06
1.7713e-06
1.76904e-06
1.76662e-06
1.76436e-06
1.76164e-06
1.76418e-06
1.76639e-06
1.76868e-06
1.77053e-06
1.77197e-06
1.773e-06
1.77363e-06
1.77387e-06
1.77371e-06
1.77315e-06
1.7722e-06
1.77084e-06
1.76908e-06
1.76675e-06
1.76436e-06
1.76164e-06
1.7207e-06
1.72304e-06
1.7251e-06
1.72725e-06
1.72899e-06
1.73036e-06
1.73133e-06
1.73193e-06
1.73215e-06
1.732e-06
1.73147e-06
1.73057e-06
1.72928e-06
1.72763e-06
1.72543e-06
1.72321e-06
1.72069e-06
1.72305e-06
1.72502e-06
1.7271e-06
1.7292e-06
1.73097e-06
1.73236e-06
1.73335e-06
1.73395e-06
1.73418e-06
1.73403e-06
1.73349e-06
1.73258e-06
1.73127e-06
1.72958e-06
1.72744e-06
1.72517e-06
1.72304e-06
1.7251e-06
1.7271e-06
1.72923e-06
1.73129e-06
1.73305e-06
1.73441e-06
1.73538e-06
1.73598e-06
1.7362e-06
1.73605e-06
1.73553e-06
1.73462e-06
1.73334e-06
1.73167e-06
1.72957e-06
1.72723e-06
1.72509e-06
1.72725e-06
1.7292e-06
1.73129e-06
1.73331e-06
1.73505e-06
1.7364e-06
1.73736e-06
1.73795e-06
1.73817e-06
1.73802e-06
1.7375e-06
1.73661e-06
1.73534e-06
1.73368e-06
1.73163e-06
1.72933e-06
1.72724e-06
1.72899e-06
1.73097e-06
1.73305e-06
1.73505e-06
1.73677e-06
1.73811e-06
1.73906e-06
1.73964e-06
1.73986e-06
1.73972e-06
1.7392e-06
1.73832e-06
1.73706e-06
1.73542e-06
1.73339e-06
1.7311e-06
1.72898e-06
1.73036e-06
1.73236e-06
1.73441e-06
1.7364e-06
1.73811e-06
1.73943e-06
1.74037e-06
1.74095e-06
1.74117e-06
1.74103e-06
1.74051e-06
1.73964e-06
1.73839e-06
1.73676e-06
1.73474e-06
1.73248e-06
1.73035e-06
1.73133e-06
1.73335e-06
1.73538e-06
1.73736e-06
1.73906e-06
1.74037e-06
1.74131e-06
1.74189e-06
1.74211e-06
1.74196e-06
1.74145e-06
1.74058e-06
1.73934e-06
1.73772e-06
1.73571e-06
1.73347e-06
1.73132e-06
1.73193e-06
1.73395e-06
1.73598e-06
1.73795e-06
1.73964e-06
1.74095e-06
1.74189e-06
1.74247e-06
1.74268e-06
1.74254e-06
1.74203e-06
1.74116e-06
1.73993e-06
1.73831e-06
1.73631e-06
1.73408e-06
1.73192e-06
1.73215e-06
1.73418e-06
1.7362e-06
1.73817e-06
1.73986e-06
1.74117e-06
1.74211e-06
1.74268e-06
1.7429e-06
1.74275e-06
1.74225e-06
1.74138e-06
1.74015e-06
1.73853e-06
1.73653e-06
1.73431e-06
1.73214e-06
1.732e-06
1.73403e-06
1.73605e-06
1.73802e-06
1.73972e-06
1.74103e-06
1.74196e-06
1.74254e-06
1.74275e-06
1.74261e-06
1.7421e-06
1.74123e-06
1.74e-06
1.73838e-06
1.73638e-06
1.73415e-06
1.73199e-06
1.73147e-06
1.73349e-06
1.73553e-06
1.7375e-06
1.7392e-06
1.74051e-06
1.74145e-06
1.74203e-06
1.74225e-06
1.7421e-06
1.74159e-06
1.74072e-06
1.73949e-06
1.73786e-06
1.73586e-06
1.73362e-06
1.73146e-06
1.73057e-06
1.73258e-06
1.73462e-06
1.73661e-06
1.73832e-06
1.73964e-06
1.74058e-06
1.74116e-06
1.74138e-06
1.74123e-06
1.74072e-06
1.73985e-06
1.7386e-06
1.73697e-06
1.73496e-06
1.7327e-06
1.73056e-06
1.72928e-06
1.73127e-06
1.73334e-06
1.73534e-06
1.73706e-06
1.73839e-06
1.73934e-06
1.73993e-06
1.74015e-06
1.74e-06
1.73949e-06
1.7386e-06
1.73735e-06
1.73571e-06
1.73368e-06
1.73139e-06
1.72927e-06
1.72763e-06
1.72958e-06
1.73167e-06
1.73368e-06
1.73542e-06
1.73676e-06
1.73772e-06
1.73831e-06
1.73853e-06
1.73838e-06
1.73786e-06
1.73697e-06
1.73571e-06
1.73405e-06
1.73201e-06
1.72971e-06
1.72762e-06
1.72543e-06
1.72744e-06
1.72957e-06
1.73163e-06
1.73339e-06
1.73475e-06
1.73572e-06
1.73631e-06
1.73654e-06
1.73638e-06
1.73586e-06
1.73496e-06
1.73368e-06
1.73201e-06
1.72992e-06
1.72757e-06
1.72542e-06
1.72321e-06
1.72517e-06
1.72723e-06
1.72933e-06
1.7311e-06
1.73248e-06
1.73347e-06
1.73408e-06
1.73431e-06
1.73415e-06
1.73362e-06
1.7327e-06
1.7314e-06
1.72971e-06
1.72757e-06
1.72531e-06
1.7232e-06
1.72069e-06
1.72304e-06
1.72509e-06
1.72724e-06
1.72898e-06
1.73035e-06
1.73132e-06
1.73192e-06
1.73214e-06
1.73199e-06
1.73146e-06
1.73056e-06
1.72927e-06
1.72762e-06
1.72542e-06
1.7232e-06
1.72069e-06
1.68267e-06
1.68478e-06
1.68663e-06
1.6886e-06
1.69018e-06
1.69143e-06
1.69233e-06
1.69287e-06
1.69308e-06
1.69294e-06
1.69246e-06
1.69163e-06
1.69044e-06
1.68895e-06
1.68693e-06
1.68492e-06
1.68266e-06
1.68478e-06
1.68657e-06
1.68845e-06
1.69038e-06
1.692e-06
1.69327e-06
1.69418e-06
1.69474e-06
1.69496e-06
1.69481e-06
1.69432e-06
1.69347e-06
1.69227e-06
1.69073e-06
1.68876e-06
1.6867e-06
1.68477e-06
1.68663e-06
1.68845e-06
1.6904e-06
1.69229e-06
1.69391e-06
1.69517e-06
1.69607e-06
1.69662e-06
1.69683e-06
1.69669e-06
1.6962e-06
1.69537e-06
1.69418e-06
1.69264e-06
1.69071e-06
1.68857e-06
1.68662e-06
1.6886e-06
1.69038e-06
1.69229e-06
1.69415e-06
1.69576e-06
1.69701e-06
1.69791e-06
1.69846e-06
1.69867e-06
1.69853e-06
1.69804e-06
1.69721e-06
1.69603e-06
1.69449e-06
1.6926e-06
1.69049e-06
1.68859e-06
1.69018e-06
1.692e-06
1.69391e-06
1.69576e-06
1.69736e-06
1.6986e-06
1.6995e-06
1.70004e-06
1.70025e-06
1.70011e-06
1.69963e-06
1.6988e-06
1.69763e-06
1.6961e-06
1.69422e-06
1.69211e-06
1.69017e-06
1.69143e-06
1.69327e-06
1.69517e-06
1.69701e-06
1.6986e-06
1.69984e-06
1.70073e-06
1.70127e-06
1.70148e-06
1.70134e-06
1.70086e-06
1.70004e-06
1.69887e-06
1.69735e-06
1.69548e-06
1.69338e-06
1.69142e-06
1.69233e-06
1.69418e-06
1.69607e-06
1.69791e-06
1.69949e-06
1.70073e-06
1.70161e-06
1.70215e-06
1.70236e-06
1.70222e-06
1.70174e-06
1.70092e-06
1.69976e-06
1.69824e-06
1.69638e-06
1.69429e-06
1.69231e-06
1.69287e-06
1.69474e-06
1.69662e-06
1.69846e-06
1.70004e-06
1.70127e-06
1.70215e-06
1.7027e-06
1.7029e-06
1.70276e-06
1.70228e-06
1.70147e-06
1.70031e-06
1.69879e-06
1.69693e-06
1.69485e-06
1.69286e-06
1.69308e-06
1.69496e-06
1.69683e-06
1.69867e-06
1.70025e-06
1.70148e-06
1.70236e-06
1.7029e-06
1.70311e-06
1.70297e-06
1.70249e-06
1.70167e-06
1.70052e-06
1.699e-06
1.69714e-06
1.69507e-06
1.69307e-06
1.69294e-06
1.69481e-06
1.69669e-06