/*--------------------------------*- C++ -*----------------------------------*\
  =========                 |
  \\      /  F ield         | OpenFOAM: The Open Source CFD Toolbox
   \\    /   O peration     | Website:  https://openfoam.org
    \\  /    A nd           | Version:  6
     \\/     M anipulation  |
\*---------------------------------------------------------------------------*/
FoamFile
{
    version     2.0;
    format      ascii;
    class       surfaceScalarField;
    location    "0";
    object      phi;
}
// * * * * * * * * * * * * * * * * * * * * * * * * * * * * * * * * * * * * * //

dimensions      [0 3 -1 0 0 0 0];

internalField   nonuniform List<scalar> 
17780
(
0.00139417
0.00100013
0.00084183
0.000552343
0.00057267
0.000269161
0.000426312
0.000146358
0.000341641
8.46713e-05
0.000289341
5.23005e-05
0.000255229
3.41114e-05
0.000232134
2.30956e-05
0.000216126
1.60071e-05
0.000204885
1.1242e-05
0.000196942
7.94296e-06
0.000191325
5.61672e-06
0.000187365
3.9596e-06
0.000184591
2.7741e-06
0.000182665
1.92619e-06
0.000181343
1.3221e-06
0.000180448
8.94753e-07
0.000179853
5.9555e-07
0.000179464
3.88968e-07
0.000179215
2.48965e-07
0.000179058
1.56451e-07
0.000178961
9.74612e-08
0.000178899
6.18209e-08
0.000178857
4.21463e-08
0.000178824
3.30937e-08
0.000178793
3.07904e-08
0.00017876
3.23999e-08
0.000178725
3.57872e-08
0.000178685
3.92557e-08
0.000178644
4.13357e-08
0.000178603
4.06034e-08
0.000178568
3.55146e-08
0.000178544
2.42356e-08
0.000178539
4.44886e-09
0.000178566
-2.68917e-08
0.00017864
-7.38992e-08
0.000178782
-1.42251e-07
0.000179022
-2.39965e-07
0.000179401
-3.78666e-07
0.000179977
-5.75784e-07
0.000180835
-8.5862e-07
0.000182108
-1.27245e-06
0.000184006
-1.8981e-06
0.0001869
-2.89363e-06
0.000191501
-4.60099e-06
0.000199353
-7.85212e-06
0.000214305
-1.49527e-05
0.000246412
-3.21069e-05
0.000325271
-7.88583e-05
-0.000276722
0.000601992
0.00223314
0.00116129
0.00176984
0.00101564
0.00138519
0.000653816
0.00111849
0.000413058
0.000937735
0.000265424
0.000814238
0.000175798
0.000728488
0.000119861
0.000668054
8.35302e-05
0.000625002
5.90587e-05
0.000594142
4.21019e-05
0.000571971
3.01143e-05
0.000556058
2.153e-05
0.000544678
1.53392e-05
0.000536589
1.08632e-05
0.000530885
7.63037e-06
0.000526902
5.30505e-06
0.000524153
3.64382e-06
0.00052228
2.46827e-06
0.000521022
1.64676e-06
0.000520189
1.08191e-06
0.000519644
7.01751e-07
0.000519288
4.53155e-07
0.000519053
2.97085e-07
0.00051889
2.04931e-07
0.000518768
1.55764e-07
0.000518664
1.34224e-07
0.000518568
1.28892e-07
0.000518472
1.31024e-07
0.000518378
1.3355e-07
0.000518289
1.30242e-07
0.000518215
1.15007e-07
0.000518169
8.12072e-08
0.000518172
2.0968e-08
0.000518252
-7.56407e-08
0.000518447
-2.21645e-07
0.000518808
-4.34619e-07
0.000519404
-7.38822e-07
0.000520333
-1.16853e-06
0.000521728
-1.77345e-06
0.00052378
-2.62798e-06
0.000526769
-3.84779e-06
0.000531118
-5.62141e-06
0.000537494
-8.27381e-06
0.000547003
-1.24029e-05
0.000561592
-1.91901e-05
0.000584895
-3.11551e-05
0.000624012
-5.407e-05
0.000693467
-0.000101562
0.000822587
-0.000207978
-0.000481539
0.0010274
0.00246406
0.00109153
0.00223461
0.00124509
0.00191997
0.000968453
0.00164469
0.000688345
0.00143066
0.000479451
0.00127104
0.000335416
0.00115368
0.000237224
0.00106771
0.000169504
0.00100477
0.000121997
0.000958727
8.81431e-05
0.000925111
6.37301e-05
0.000900653
4.59883e-05
0.000882947
3.30447e-05
0.000870214
2.35963e-05
0.00086113
1.67147e-05
0.000854708
1.17262e-05
0.000850217
8.13515e-06
0.000847111
5.57395e-06
0.000844989
3.7688e-06
0.000843556
2.51547e-06
0.000842596
1.66181e-06
0.000841954
1.09477e-06
0.000841521
7.30668e-07
0.000841218
5.07705e-07
0.000840993
3.80316e-07
0.000840813
3.14745e-07
0.000840656
2.85629e-07
0.000840514
2.73313e-07
0.000840386
2.61689e-07
0.000840279
2.36416e-07
0.000840211
1.83341e-07
0.000840205
8.70116e-08
0.000840297
-7.09073e-08
0.000840535
-3.13477e-07
0.000840984
-6.70869e-07
0.000841733
-1.18367e-06
0.000842902
-1.90772e-06
0.000844655
-2.92166e-06
0.000847221
-4.33891e-06
0.000850921
-6.32788e-06
0.00085622
-9.1471e-06
0.000863808
-1.32093e-05
0.000874737
-1.92033e-05
0.00089067
-2.83361e-05
0.000914312
-4.28319e-05
0.000950149
-6.69918e-05
0.00100555
-0.000109467
0.0010919
-0.000187912
0.00122121
-0.000337297
-0.00062921
0.00136889
0.00252842
0.000957417
0.00245479
0.00131872
0.00224986
0.00117338
0.00202209
0.000916115
0.00181896
0.000682578
0.00165347
0.000500915
0.00152424
0.000366446
0.00142551
0.000268239
0.00135099
0.000196515
0.00129521
0.00014392
0.00125375
0.000105192
0.00122314
7.66039e-05
0.00120069
5.54919e-05
0.00118436
3.99277e-05
0.00117258
2.8496e-05
0.00116416
2.01465e-05
0.0011582
1.40933e-05
0.00115403
9.74574e-06
0.00115114
6.65911e-06
0.00114915
4.49866e-06
0.0011478
3.01305e-06
0.00114688
2.01424e-06
0.00114625
1.36204e-06
0.00114581
9.52242e-07
0.00114548
7.0743e-07
0.00114522
5.69777e-07
0.00114501
4.95424e-07
0.00114484
4.50008e-07
0.00114469
4.05053e-07
0.0011446
3.34934e-07
0.00114456
2.14194e-07
0.00114464
1.49456e-08
0.00114486
-2.95873e-07
0.00114531
-7.5974e-07
0.00114607
-1.43071e-06
0.00114727
-2.38118e-06
0.00114907
-3.71025e-06
0.0011517
-5.55649e-06
0.00115548
-8.11808e-06
0.00116084
-1.16857e-05
0.00116839
-1.66978e-05
0.00117902
-2.3838e-05
0.00119402
-3.4208e-05
0.00121534
-4.96488e-05
0.00124584
-7.33394e-05
0.00128977
-0.000110918
0.00135282
-0.000172514
0.00144092
-0.00027602
0.00155377
-0.000450141
-0.000735697
0.00166026
0.00253351
0.000818214
0.00255139
0.00130083
0.00244444
0.00128033
0.00228239
0.00107816
0.00211455
0.000850427
0.00196439
0.000651074
0.00183941
0.000491422
0.00173947
0.000368177
0.00166148
0.000274509
0.0016016
0.000203796
0.0015562
0.000150593
0.00152214
0.000110671
0.00149682
8.08117e-05
0.00147817
5.85711e-05
0.00146457
4.20948e-05
0.00145475
2.99702e-05
0.00144772
2.11198e-05
0.00144275
1.47214e-05
0.00143926
1.01486e-05
0.00143683
6.92504e-06
0.00143515
4.69035e-06
0.001434
3.17279e-06
0.00143319
2.16843e-06
0.00143262
1.52466e-06
0.0014322
1.12729e-06
0.00143188
8.90359e-07
0.00143162
7.4809e-07
0.00143143
6.48414e-07
0.00143128
5.47711e-07
0.00143121
4.06349e-07
0.00143124
1.84676e-07
0.00143142
-1.60858e-07
0.0014318
-6.81851e-07
0.00143249
-1.44283e-06
0.00143358
-2.5275e-06
0.00143525
-4.04729e-06
0.00143769
-6.15369e-06
0.00144119
-9.05661e-06
0.00144613
-1.30528e-05
0.00145301
-1.85711e-05
0.00146256
-2.62454e-05
0.00147576
-3.70374e-05
0.00149399
-5.24429e-05
0.00151919
-7.48447e-05
0.00155396
-0.00010811
0.00160161
-0.000158569
0.00166556
-0.000236465
0.00174713
-0.000357585
0.00183969
-0.000542707
-0.000811652
0.00191565
0.00251816
0.00069436
0.00258584
0.00123315
0.00255383
0.00131234
0.00245658
0.00117541
0.00233386
0.00097314
0.00221153
0.000773412
0.00210222
0.000600733
0.00201031
0.00046008
0.0019359
0.000348924
0.00187715
0.000262544
0.00183162
0.000196121
0.00179685
0.00014544
0.00177063
0.000107034
0.00175108
7.81252e-05
0.00173665
5.65214e-05
0.00172612
4.05042e-05
0.0017185
2.8734e-05
0.00171305
2.01715e-05
0.00170919
1.40142e-05
0.00170646
9.64583e-06
0.00170456
6.59588e-06
0.00170323
4.50688e-06
0.00170228
3.10873e-06
0.00170161
2.19792e-06
0.00170112
1.62115e-06
0.00170075
1.26211e-06
0.00170046
1.03101e-06
0.00170026
8.56077e-07
0.00170013
6.76542e-07
0.0017001
4.3665e-07
0.0017002
8.02425e-08
0.00170049
-4.5453e-07
0.00170105
-1.24088e-06
0.00170198
-2.37003e-06
0.00170341
-3.95968e-06
0.00170553
-6.16541e-06
0.00170857
-9.19694e-06
0.00171286
-1.33417e-05
0.00171881
-1.90008e-05
0.00172698
-2.67436e-05
0.00173813
-3.73939e-05
0.00175326
-5.21654e-05
0.00177369
-7.28787e-05
0.00180115
-0.0001023
0.00183769
-0.000144658
0.00188549
-0.000206365
0.00194585
-0.000296827
0.00201701
-0.000428739
0.00209
-0.000615698
-0.000864623
0.00214297
0.00249874
0.000589922
0.00259063
0.00114126
0.00261148
0.0012915
0.00257004
0.00121685
0.00249336
0.00104982
0.00240452
0.000862256
0.00231787
0.000687383
0.0022406
0.000537341
0.00217534
0.000414184
0.00212216
0.000315724
0.00207993
0.000238359
0.00204703
0.000178335
0.00202182
0.000132247
0.00200276
9.71865e-05
0.00198852
7.07563e-05
0.00197801
5.10152e-05
0.00197033
3.64136e-05
0.00196478
2.57277e-05
0.00196079
1.79992e-05
0.00195795
1.24841e-05
0.00195594
8.60905e-06
0.00195451
5.93505e-06
0.00195349
4.12813e-06
0.00195275
2.93498e-06
0.00195221
2.1634e-06
0.00195181
1.6665e-06
0.00195151
1.32988e-06
0.0019513
1.06116e-06
0.0019512
7.81307e-07
0.00195122
4.17081e-07
0.0019514
-1.05778e-07
0.00195182
-8.69291e-07
0.00195255
-1.97044e-06
0.00195371
-3.52959e-06
0.00195545
-5.70107e-06
0.00195797
-8.68734e-06
0.00196153
-1.27586e-05
0.00196647
-1.82807e-05
0.00197323
-2.57566e-05
0.00198237
-3.58873e-05
0.00199464
-4.96631e-05
0.00201098
-6.85011e-05
0.00203255
-9.44493e-05
0.00206073
-0.000130479
0.00209694
-0.000180875
0.00214226
-0.000251677
0.00219636
-0.000350934
0.00225577
-0.000488147
0.00231135
-0.000671275
-0.000899932
0.00234666
0.00248113
0.000503098
0.00258258
0.00103981
0.00263868
0.00123539
0.00264196
0.00121358
0.00260747
0.0010843
0.00255313
0.000916592
0.00249254
0.000747971
0.00243406
0.000595827
0.00238194
0.000466305
0.00233779
0.000359876
0.00230167
0.000274471
0.00227289
0.000207115
0.00225042
0.000154721
0.00223316
0.000114446
0.00222009
8.38224e-05
0.00221033
6.07828e-05
0.00220311
4.36337e-05
0.00219782
3.10118e-05
0.00219399
2.1834e-05
0.00219122
1.52497e-05
0.00218923
1.05969e-05
0.0021878
7.36523e-06
0.00218677
5.16326e-06
0.00218601
3.69223e-06
0.00218545
2.72387e-06
0.00218504
2.08237e-06
0.00218474
1.6296e-06
0.00218454
1.25286e-06
0.00218447
8.54667e-07
0.00218454
3.43795e-07
0.00218481
-3.72921e-07
0.00218534
-1.39867e-06
0.00218623
-2.85533e-06
0.00218759
-4.89352e-06
0.00218959
-7.70511e-06
0.00219245
-1.15396e-05
0.00219641
-1.67264e-05
0.00220184
-2.37059e-05
0.00220916
-3.30739e-05
0.00221891
-4.56443e-05
0.00223179
-6.25399e-05
0.00224861
-8.53198e-05
0.00227031
-0.000116155
0.00229789
-0.000158057
0.00233214
-0.000215126
0.00237321
-0.000292743
0.0024197
-0.000397428
0.00246739
-0.000535835
0.00250797
-0.000711859
-0.000921327
0.00252937
0.00246677
0.000430629
0.00256997
0.000936612
0.00264863
0.00115673
0.00268614
0.00117607
0.00268798
0.00108246
0.00266633
0.000938245
0.00263256
0.000781737
0.00259491
0.000633481
0.00255842
0.000502794
0.00252574
0.000392557
0.00249792
0.000302294
0.00247506
0.000229971
0.00245678
0.000173001
0.00244246
0.000128762
0.00243144
9.48436e-05
0.00242308
6.91453e-05
0.00241681
4.99014e-05
0.00241216
3.56613e-05
0.00240874
2.52551e-05
0.00240624
1.7753e-05
0.00240441
1.24247e-05
0.00240307
8.70225e-06
0.00240209
6.14743e-06
0.00240136
4.4232e-06
0.00240081
3.27032e-06
0.00240041
2.48752e-06
0.00240012
1.91521e-06
0.00239995
1.4218e-06
0.00239991
8.92149e-07
0.00240004
2.17378e-07
0.00240038
-7.14531e-07
0.00240101
-2.02803e-06
0.00240203
-3.86996e-06
0.00240355
-6.42098e-06
0.00240576
-9.9096e-06
0.00240885
-1.46303e-05
0.00241309
-2.09675e-05
0.00241881
-2.94281e-05
0.00242642
-4.06864e-05
0.00243643
-5.56454e-05
0.00244941
-7.55198e-05
0.00246603
-0.000101947
0.002487
-0.000137126
0.00251292
-0.000183969
0.00254402
-0.000246233
0.00257978
-0.000328502
0.00261817
-0.000435811
0.00265482
-0.000572488
0.00268263
-0.000739674
-0.000931492
0.0026928
0.0024556
0.000369331
0.00255671
0.000835502
0.00264921
0.00106423
0.00271218
0.00111311
0.00274409
0.00105055
0.0027518
0.000930532
0.00274385
0.000789682
0.00272749
0.000649846
0.00270784
0.000522444
0.00268811
0.000412288
0.00267005
0.000320351
0.00265445
0.000245573
0.00264149
0.000185959
0.00263104
0.000139216
0.00262279
0.00010309
0.0026164
7.55365e-05
0.00261152
5.47853e-05
0.00260783
3.93525e-05
0.00260506
2.80226e-05
0.00260299
1.98184e-05
0.00260145
1.3965e-05
0.0026003
9.85483e-06
0.00259943
7.01573e-06
0.00259877
5.08217e-06
0.00259827
3.77093e-06
0.0025979
2.86031e-06
0.00259764
2.17281e-06
0.0025975
1.56042e-06
0.0025975
8.92035e-07
0.00259768
4.22763e-08
0.00259808
-1.11885e-06
0.00259879
-2.73628e-06
0.0025999
-4.98082e-06
0.00260154
-8.06172e-06
0.00260387
-1.22417e-05
0.0026071
-1.78563e-05
0.00261147
-2.53381e-05
0.00261729
-3.52497e-05
0.00262493
-4.83266e-05
0.00263482
-6.55336e-05
0.00264744
-8.81371e-05
0.00266328
-0.000117794
0.00268281
-0.000156647
0.00270625
-0.000207417
0.00273344
-0.000273419
0.00276336
-0.000358417
0.00279367
-0.000466122
0.00282025
-0.000599068
0.0028372
-0.000756629
-0.000932398
0.00283811
0.00244709
0.000316542
0.0025445
0.000738092
0.00264511
0.000963617
0.0027266
0.00103162
0.00278272
0.000994425
0.00281588
0.000897373
0.00283168
0.000773877
0.00283592
0.000645611
0.00283329
0.000525075
0.00282715
0.000418426
0.00281968
0.000327815
0.00281218
0.000253073
0.00280533
0.000192815
0.00279941
0.000145134
0.00279449
0.000108007
0.00279052
7.95121e-05
0.00278736
5.79378e-05
0.0027849
4.18181e-05
0.00278299
2.99345e-05
0.00278151
2.12953e-05
0.00278037
1.51068e-05
0.00277948
1.07419e-05
0.00277879
7.70961e-06
0.00277824
5.62741e-06
0.00277782
4.19653e-06
0.0027775
3.18114e-06
0.00277728
2.39042e-06
0.00277718
1.6633e-06
0.00277721
8.55188e-07
0.00277743
-1.73859e-07
0.00277788
-1.57019e-06
0.00277864
-3.4976e-06
0.00277981
-6.14901e-06
0.00278151
-9.75969e-06
0.00278389
-1.4623e-05
0.00278714
-2.11096e-05
0.0027915
-2.96921e-05
0.00279722
-4.09761e-05
0.00280464
-5.57397e-05
0.00281408
-7.49825e-05
0.00282593
-9.99843e-05
0.00284051
-0.00013237
0.00285803
-0.000174169
0.00287846
-0.000227844
0.00290127
-0.000296233
0.00292518
-0.000382324
0.00294777
-0.000488713
0.00296531
-0.00061661
0.002973
-0.000764323
-0.000925542
0.00296615
0.00244067
0.000270174
0.00253394
0.000644824
0.00263899
0.000858571
0.00273375
0.00093686
0.00280899
0.000919182
0.00286363
0.000842738
0.00290056
0.000736944
0.00292394
0.000622231
0.00293773
0.000511289
0.00294513
0.000411024
0.00294851
0.000324434
0.0029495
0.00025208
0.00294918
0.000193139
0.00294821
0.000146106
0.00294698
0.000109231
0.00294573
8.07664e-05
0.00294456
5.911e-05
0.00294351
4.28612e-05
0.00294261
3.08378e-05
0.00294184
2.20666e-05
0.00294119
1.57618e-05
0.00294063
1.12977e-05
0.00294016
8.18081e-06
0.00293976
6.02402e-06
0.00293944
4.5226e-06
0.00293918
3.43373e-06
0.00293901
2.55867e-06
0.00293895
1.72734e-06
0.00293902
7.84811e-07
0.00293927
-4.20864e-07
0.00293975
-2.05011e-06
0.00294053
-4.28329e-06
0.00294172
-7.33276e-06
0.00294341
-1.14564e-05
0.00294576
-1.69733e-05
0.00294894
-2.42831e-05
0.00295313
-3.38887e-05
0.00295858
-4.64254e-05
0.00296554
-6.26953e-05
0.00297426
-8.37074e-05
0.002985
-0.000110723
0.00299793
-0.000145294
0.00301305
-0.000189295
0.00303011
-0.000244899
0.00304835
-0.000314472
0.00306633
-0.000400305
0.00308171
-0.000504098
0.00309122
-0.000626118
0.00309099
-0.000764087
-0.000912095
0.00307754
0.00243584
0.000228631
0.00252513
0.000555541
0.00263234
0.000751356
0.0027365
0.0008327
0.00282662
0.00082906
0.00289901
0.000770352
0.00295424
0.000681714
0.00299485
0.000581622
0.00302389
0.000482242
0.00304423
0.000390689
0.00305822
0.000310446
0.00306769
0.000242609
0.003074
0.000186828
0.00307813
0.000141978
0.00308076
0.000106594
0.00308239
7.91397e-05
0.00308334
5.81612e-05
0.00308384
4.23631e-05
0.00308404
3.06355e-05
0.00308405
2.20552e-05
0.00308394
1.58698e-05
0.00308377
1.14759e-05
0.00308355
8.39433e-06
0.00308333
6.24618e-06
0.00308312
4.73082e-06
0.00308295
3.60612e-06
0.00308284
2.67132e-06
0.00308281
1.75187e-06
0.00308291
6.86139e-07
0.00308318
-6.86791e-07
0.00308367
-2.53863e-06
0.00308445
-5.06342e-06
0.0030856
-8.48968e-06
0.00308724
-1.30938e-05
0.00308948
-1.92154e-05
0.00309247
-2.72756e-05
0.00309638
-3.77981e-05
0.00310139
-5.14346e-05
0.00310769
-6.89938e-05
0.00311546
-9.14723e-05
0.00312482
-0.000120085
0.00313581
-0.000156286
0.00314828
-0.000201766
0.00316179
-0.000258402
0.00317543
-0.000328118
0.00318774
-0.000412609
0.00319651
-0.000512873
0.00319892
-0.000628531
0.00319187
-0.000757034
-0.000893002
0.00317278
0.00243222
0.000190712
0.00251795
0.000469814
0.00262598
0.000643322
0.00273672
0.000721961
0.00283827
0.000727508
0.00292506
0.000683564
0.00299576
0.000611012
0.00305144
0.000525946
0.00309421
0.000439471
0.00312646
0.00035844
0.00315042
0.000286489
0.00316799
0.000225032
0.00318074
0.000174079
0.00318988
0.000132836
0.00319636
0.000100118
0.00320088
7.46181e-05
0.00320398
5.50607e-05
0.00320606
4.02868e-05
0.0032074
2.92909e-05
0.00320823
2.12273e-05
0.0032087
1.54015e-05
0.00320892
1.12522e-05
0.00320899
8.33046e-06
0.00320895
6.27863e-06
0.00320888
4.81013e-06
0.00320879
3.69137e-06
0.00320874
2.7256e-06
0.00320875
1.73865e-06
0.00320887
5.66068e-07
0.00320914
-9.58628e-07
0.00320962
-3.01528e-06
0.00321036
-5.80836e-06
0.00321145
-9.57883e-06
0.00321297
-1.46171e-05
0.00321504
-2.12777e-05
0.00321776
-2.99957e-05
0.00322127
-4.1306e-05
0.00322569
-5.58645e-05
0.00323117
-7.44712e-05
0.00323779
-9.8092e-05
0.00324558
-0.000127876
0.00325446
-0.000165159
0.00326413
-0.00021144
0.00327404
-0.000268308
0.00328321
-0.000337288
0.00329018
-0.000419581
0.00329296
-0.000515652
0.00328913
-0.000624702
0.0032762
-0.000744108
-0.000869051
0.00325225
0.00242951
0.000155504
0.00251222
0.000387107
0.00262032
0.000535222
0.00273562
0.000606663
0.00284583
0.000617289
0.00294409
0.000585305
0.00302757
0.000527536
0.00309605
0.000457463
0.00315077
0.000384749
0.00319361
0.000315606
0.00322658
0.00025352
0.00325159
0.000200019
0.00327032
0.000155347
0.00328418
0.000118982
0.00329429
8.99999e-05
0.00330159
6.73268e-05
0.00330676
4.98847e-05
0.00331037
3.6677e-05
0.00331283
2.68278e-05
0.00331447
1.95939e-05
0.00331551
1.436e-05
0.00331614
1.06251e-05
0.00331648
7.98576e-06
0.00331664
6.11746e-06
0.0033167
4.75731e-06
0.0033167
3.68781e-06
0.0033167
2.72225e-06
0.00331675
1.69163e-06
0.00331688
4.32724e-07
0.00331715
-1.22301e-06
0.00331759
-3.46017e-06
0.00331827
-6.49015e-06
0.00331926
-1.05625e-05
0.00332062
-1.59769e-05
0.00332244
-2.30968e-05
0.0033248
-3.23644e-05
0.00332782
-4.43166e-05
0.00333155
-5.96026e-05
0.00333608
-7.90007e-05
0.00334142
-0.000103432
0.00334751
-0.000133966
0.00335416
-0.00017181
0.00336099
-0.000218271
0.00336736
-0.000274671
0.00337226
-0.000342189
0.0033743
-0.000421622
0.00337169
-0.000513045
0.00336239
-0.0006154
0.0033444
-0.000726115
-0.000840912
0.00331626
0.0024275
0.000122308
0.00250774
0.000306863
0.00261554
0.000427429
0.00273395
0.000488247
0.00285063
0.000500608
0.00295782
0.000478115
0.00305156
0.000433801
0.00313058
0.000378441
0.00319534
0.000319989
0.00324722
0.000263727
0.00328801
0.000212736
0.00331955
0.000168477
0.00334359
0.000131308
0.00336166
0.00010091
0.00337506
7.65944e-05
0.00338487
5.75171e-05
0.00339195
4.28091e-05
0.00339697
3.16543e-05
0.00340047
2.33277e-05
0.00340286
1.72087e-05
0.00340444
1.27797e-05
0.00340545
9.61609e-06
0.00340606
7.37303e-06
0.00340641
5.77015e-06
0.00340659
4.57696e-06
0.00340668
3.59905e-06
0.00340673
2.66538e-06
0.00340681
1.61673e-06
0.00340694
2.94988e-07
0.00340719
-1.4669e-06
0.00340758
-3.85488e-06
0.00340818
-7.0837e-06
0.00340902
-1.14074e-05
0.00341018
-1.71304e-05
0.0034117
-2.46197e-05
0.00341365
-3.43173e-05
0.00341609
-4.67544e-05
0.00341905
-6.25639e-05
0.00342254
-8.2492e-05
0.00342651
-0.000107404
0.00343083
-0.000138283
0.00343523
-0.000176205
0.00343925
-0.000222293
0.0034422
-0.000277625
0.0034431
-0.000343088
0.00344064
-0.000419161
0.00343323
-0.000505639
0.00341916
-0.000601321
0.0033968
-0.000703759
-0.000809174
0.00336506
0.00242604
9.05743e-05
0.00250436
0.000228539
0.00261171
0.000320076
0.00273222
0.00036774
0.0028536
0.000379229
0.00296752
0.000364191
0.00306919
0.000332132
0.00315653
0.000291099
0.00322935
0.000247173
0.00328859
0.000204485
0.00333581
0.000165518
0.00337278
0.000131505
0.00340127
0.000102815
0.00342291
7.92716e-05
0.00343911
6.03909e-05
0.00345108
4.55509e-05
0.00345979
3.40975e-05
0.00346604
2.54082e-05
0.00347044
1.89246e-05
0.00347349
1.41649e-05
0.00347554
1.07242e-05
0.00347689
8.26769e-06
0.00347774
6.52024e-06
0.00347826
5.25486e-06
0.00347855
4.28105e-06
0.00347872
3.4336e-06
0.00347882
2.56212e-06
0.00347892
1.52136e-06
0.00347905
1.61994e-07
0.00347926
-1.67821e-06
0.00347959
-4.18322e-06
0.00348007
-7.56765e-06
0.00348075
-1.20862e-05
0.00348167
-1.80435e-05
0.00348285
-2.58046e-05
0.00348434
-3.58056e-05
0.00348615
-4.85646e-05
0.00348828
-6.46907e-05
0.00349067
-8.48903e-05
0.00349324
-0.000109967
0.00349577
-0.000140811
0.00349793
-0.000178371
0.00349924
-0.000223598
0.00349897
-0.000277358
0.00349617
-0.000340293
0.00348965
-0.000412636
0.003478
-0.000493991
0.00345977
-0.000583094
0.00343367
-0.000677659
-0.000774359
0.00339886
0.00242502
5.98587e-05
0.00250194
0.00015162
0.00260886
0.000213151
0.00273072
0.000245881
0.00285536
0.000254593
0.00297409
0.000245458
0.00308154
0.000224678
0.00317505
0.000197596
0.00325391
0.000168312
0.00331873
0.000139659
0.00337088
0.000113372
0.00341204
9.03415e-05
0.003444
7.08613e-05
0.00346842
5.48453e-05
0.00348683
4.19882e-05
0.0035005
3.18812e-05
0.00351051
2.40873e-05
0.00351773
1.8186e-05
0.00352286
1.3797e-05
0.00352643
1.05893e-05
0.00352887
8.28235e-06
0.0035305
6.64096e-06
0.00353155
5.46864e-06
0.00353221
4.59913e-06
0.0035326
3.88795e-06
0.00353283
3.20408e-06
0.00353297
2.42197e-06
0.00353308
1.41393e-06
0.0035332
4.25931e-08
0.00353337
-1.84638e-06
0.00353361
-4.43189e-06
0.00353397
-7.92515e-06
0.00353446
-1.25778e-05
0.00353511
-1.86906e-05
0.00353593
-2.66218e-05
0.00353692
-3.67964e-05
0.00353807
-4.97135e-05
0.00353933
-6.59522e-05
0.00354061
-8.61735e-05
0.00354176
-0.000111115
0.00354253
-0.000141576
0.00354254
-0.000178381
0.00354127
-0.000222328
0.00353801
-0.000274098
0.00353185
-0.000334133
0.00352169
-0.000402484
0.00350633
-0.000478625
0.00348452
-0.00056129
0.00345524
-0.000648371
-0.000736944
0.00341782
0.00242437
2.97869e-05
0.00250037
7.56212e-05
0.00260697
0.000106551
0.00272964
0.000123215
0.00285633
0.000127905
0.00297815
0.00012363
0.00308938
0.000113448
0.00318696
0.000100025
0.00326984
8.54229e-05
0.00333842
7.10823e-05
0.0033939
5.78951e-05
0.00343791
4.6327e-05
0.00347223
3.6541e-05
0.00349858
2.85038e-05
0.0035185
2.20679e-05
0.00353335
1.70307e-05
0.00354426
1.31727e-05
0.00355217
1.02804e-05
0.0035578
8.15883e-06
0.00356176
6.63596e-06
0.00356448
5.563e-06
0.00356631
4.81168e-06
0.00356751
4.27014e-06
0.00356827
3.83798e-06
0.00356873
3.4211e-06
0.00356901
2.92633e-06
0.00356918
2.25616e-06
0.00356929
1.30323e-06
0.00356939
-5.51602e-08
0.0035695
-1.96286e-06
0.00356966
-4.59097e-06
0.00356988
-8.1443e-06
0.00357017
-1.28682e-05
0.00357054
-1.90556e-05
0.00357097
-2.70541e-05
0.00357144
-3.72728e-05
0.00357192
-5.01871e-05
0.00357231
-6.63417e-05
0.00357248
-8.63489e-05
0.00357225
-0.000110879
0.00357131
-0.000140642
0.00356928
-0.000176349
0.00356561
-0.00021866
0.00355962
-0.000268099
0.00355043
-0.000324952
0.00353708
-0.000389131
0.00351849
-0.000460035
0.00349363
-0.000536432
0.00346166
-0.000616399
-0.000697365
0.00342208
0.00242406
2.65224e-08
0.00249961
7.5574e-08
0.00260604
1.23676e-07
0.00272908
1.73431e-07
0.00285676
2.27018e-07
0.0029801
2.86427e-07
0.00309319
3.53539e-07
0.00319279
4.30179e-07
0.00327769
5.18133e-07
0.00334816
6.19129e-07
0.00340532
7.34792e-07
0.00345078
8.66567e-07
0.0034863
1.0156e-06
0.00351362
1.1826e-06
0.00353432
1.3676e-06
0.00354978
1.56972e-06
0.00356117
1.78681e-06
0.00356944
2.01499e-06
0.00357535
2.24813e-06
0.00357951
2.4771e-06
0.00358238
2.68897e-06
0.00358433
2.86595e-06
0.00358561
2.98406e-06
0.00358644
3.01162e-06
0.00358695
2.90736e-06
0.00358726
2.61823e-06
0.00358744
2.07672e-06
0.00358754
1.19783e-06
0.00358761
-1.24513e-07
0.00358767
-2.02155e-06
0.00358774
-4.65426e-06
0.00358781
-8.21848e-06
0.00358789
-1.29503e-05
0.00358797
-1.91318e-05
0.00358801
-2.70962e-05
0.00358797
-3.72329e-05
0.00358777
-4.99901e-05
0.00358731
-6.58754e-05
0.00358641
-8.54503e-05
0.00358485
-0.000109319
0.00358231
-0.000138106
0.00357838
-0.000172419
0.00357252
-0.000212797
0.00356406
-0.000259636
0.0035522
-0.000313096
0.00353606
-0.000372991
0.00351471
-0.000438686
0.00348728
-0.000509006
0.00345309
-0.000582206
-0.000656032
0.00341176
0.00242406
-2.97342e-05
0.00249961
-7.54712e-05
0.00260604
-0.000106306
0.00272908
-0.000122871
0.00285676
-0.000127454
0.00298011
-0.00012306
0.00309321
-0.000112745
0.00319281
-9.91692e-05
0.00327772
-8.43926e-05
0.00334819
-6.98511e-05
0.00340536
-5.64337e-05
0.00345083
-4.46034e-05
0.00348637
-3.45209e-05
0.0035137
-2.61512e-05
0.00353441
-1.93471e-05
0.00354989
-1.39076e-05
0.0035613
-9.61729e-06
0.00356958
-6.27056e-06
0.00357551
-3.68452e-06
0.0035797
-1.70525e-06
0.00358259
-2.0964e-07
0.00358457
8.95216e-07
0.00358588
1.67357e-06
0.00358672
2.16287e-06
0.00358726
2.37523e-06
0.00358758
2.29835e-06
0.00358776
1.89562e-06
0.00358785
1.10541e-06
0.00358789
-1.60462e-07
0.00358788
-2.01908e-06
0.00358785
-4.61949e-06
0.00358778
-8.14642e-06
0.00358765
-1.28243e-05
0.00358744
-1.89215e-05
0.0035871
-2.67541e-05
0.00358655
-3.6689e-05
0.00358571
-4.91447e-05
0.00358442
-6.45894e-05
0.00358251
-8.3534e-05
0.00357971
-0.000106518
0.00357569
-0.000134088
0.00357003
-0.000166757
0.00356219
-0.000204961
0.00355154
-0.000248991
0.00353736
-0.000298908
0.00351883
-0.000354466
0.00349516
-0.000415017
0.00346562
-0.00047946
0.00342963
-0.000546224
-0.00061333
0.00338693
0.00242438
-5.98074e-05
0.00250038
-0.000151474
0.00260698
-0.000212911
0.00272966
-0.000245543
0.00285635
-0.00025415
0.00297819
-0.000244899
0.00308943
-0.000223987
0.00318702
-0.000196755
0.00326992
-0.0001673
0.00333852
-0.000138449
0.00339402
-0.000111936
0.00343807
-8.86463e-05
0.00347242
-6.88741e-05
0.0034988
-5.25306e-05
0.00351876
-3.93105e-05
0.00353366
-2.88067e-05
0.00354463
-2.05864e-05
0.0035526
-1.42364e-05
0.0035583
-9.38823e-06
0.00356232
-5.72882e-06
0.00356512
-3.00253e-06
0.00356702
-1.00892e-06
0.00356829
4.01894e-07
0.00356912
1.33447e-06
0.00356964
1.85288e-06
0.00356996
1.98472e-06
0.00357013
1.72386e-06
0.0035702
1.03217e-06
0.0035702
-1.6013e-07
0.00357014
-1.95504e-06
0.00357001
-4.48839e-06
0.00356979
-7.93212e-06
0.00356947
-1.2497e-05
0.00356898
-1.84357e-05
0.00356827
-2.60447e-05
0.00356725
-3.56664e-05
0.00356579
-4.7688e-05
0.00356374
-6.25375e-05
0.00356088
-8.06761e-05
0.00355695
-0.000102582
0.00355159
-0.000128729
0.00354438
-0.000159548
0.0035348
-0.000195388
0.00352227
-0.000236452
0.00350609
-0.000282733
0.00348557
-0.000333941
0.00345999
-0.000389443
0.00342875
-0.000448217
0.00339138
-0.000508856
-0.000569628
0.00334768
0.00242502
-9.05249e-05
0.00250194
-0.000228397
0.00260888
-0.000319844
0.00273075
-0.000367413
0.0028554
-0.0003788
0.00297415
-0.000363649
0.00308162
-0.000331462
0.00317515
-0.000290283
0.00325404
-0.00024619
0.0033189
-0.000203309
0.00337109
-0.000164121
0.0034123
-0.000129857
0.0034443
-0.000100882
0.00346879
-7.70192e-05
0.00348727
-5.77843e-05
0.00350102
-4.25568e-05
0.00351112
-3.06864e-05
0.00351844
-2.15578e-05
0.00352367
-1.46241e-05
0.00352737
-9.42043e-06
0.00352993
-5.56617e-06
0.00353168
-2.75986e-06
0.00353285
-7.71443e-07
0.00353362
5.66385e-07
0.00353411
1.36634e-06
0.0035344
1.69348e-06
0.00353455
1.57065e-06
0.0035346
9.82333e-07
0.00353457
-1.23044e-07
0.00353444
-1.83208e-06
0.00353422
-4.2666e-06
0.00353387
-7.58458e-06
0.00353336
-1.19818e-05
0.00353262
-1.76933e-05
0.00353157
-2.49946e-05
0.0035301
-3.42021e-05
0.00352808
-4.56706e-05
0.00352534
-5.97886e-05
0.00352163
-7.69687e-05
0.00351668
-9.76321e-05
0.00351013
-0.000122186
0.00350158
-0.000150991
0.00349051
-0.000184321
0.00347637
-0.000222312
0.00345854
-0.000264905
0.00343639
-0.00031179
0.00340931
-0.000362359
0.00337677
-0.000415677
0.0033384
-0.00047049
-0.00052528
0.00329405
0.00242604
-0.000122261
0.00250437
-0.000306729
0.00261173
-0.000427207
0.00273226
-0.000487935
0.00285365
-0.000500197
0.0029676
-0.000477596
0.0030693
-0.000433159
0.00315667
-0.000377658
0.00322953
-0.000319046
0.00328882
-0.000262598
0.00333609
-0.000211395
0.00337313
-0.000166893
0.00340169
-0.00012945
0.00342342
-9.87431e-05
0.00343972
-7.40855e-05
0.0034518
-5.46335e-05
0.00346063
-3.95217e-05
0.00346701
-2.7941e-05
0.00347157
-1.91769e-05
0.00347477
-1.26249e-05
0.003477
-7.79052e-06
0.00347852
-4.28093e-06
0.00347954
-1.79413e-06
0.00348021
-1.06654e-07
0.00348064
9.37741e-07
0.0034809
1.43781e-06
0.00348102
1.44267e-06
0.00348105
9.57729e-07
0.00348098
-5.12864e-08
0.0034808
-1.65584e-06
0.0034805
-3.96342e-06
0.00348003
-7.11742e-06
0.00347935
-1.12975e-05
0.00347837
-1.67201e-05
0.00347702
-2.36388e-05
0.00347516
-3.23429e-05
0.00347264
-4.31548e-05
0.00346928
-5.6424e-05
0.00346483
-7.25171e-05
0.003459
-9.18023e-05
0.00345144
-0.000114628
0.00344174
-0.000141292
0.00342943
-0.000172009
0.00341398
-0.00020686
0.00339482
-0.000245753
0.00337141
-0.000288372
0.00334319
-0.000334145
0.00330974
-0.000382221
0.00327074
-0.000431491
-0.00048063
0.00322609
0.0024275
-0.000155461
0.00250776
-0.000386982
0.00261556
-0.000535014
0.002734
-0.000606369
0.0028507
-0.000616903
0.00295792
-0.000584815
0.00305169
-0.000526929
0.00313076
-0.000456723
0.00319557
-0.000383855
0.0032475
-0.000314536
0.00328836
-0.000252247
0.00331998
-0.000198515
0.00334411
-0.000153582
0.00336229
-0.000116922
0.00337582
-8.76137e-05
0.00338577
-6.45821e-05
0.003393
-4.67532e-05
0.00339819
-3.31364e-05
0.00340188
-2.28659e-05
0.00340447
-1.52134e-05
0.00340627
-9.58506e-06
0.0034075
-5.50977e-06
0.00340833
-2.6242e-06
0.00340888
-6.57328e-07
0.00340923
5.83912e-07
0.00340944
1.22694e-06
0.00340954
1.34354e-06
0.00340954
9.57559e-07
0.00340944
5.04896e-08
0.00340922
-1.43474e-06
0.00340885
-3.59152e-06
0.00340828
-6.54831e-06
0.00340745
-1.04682e-05
0.00340628
-1.55483e-05
0.00340466
-2.20195e-05
0.00340246
-3.0144e-05
0.00339951
-4.0212e-05
0.00339563
-5.25354e-05
0.00339055
-6.74372e-05
0.00338398
-8.52373e-05
0.00337558
-0.000106232
0.00336496
-0.000130666
0.00335165
-0.000158703
0.00333518
-0.000190386
0.00331502
-0.0002256
0.00329069
-0.000264036
0.0032617
-0.000305161
0.0032277
-0.000348215
0.00318842
-0.000392218
-0.000436016
0.00314381
0.00242951
-0.000190673
0.00251223
-0.000469699
0.00262035
-0.00064313
0.00273567