/*--------------------------------*- C++ -*----------------------------------*\
  =========                 |
  \\      /  F ield         | OpenFOAM: The Open Source CFD Toolbox
   \\    /   O peration     | Website:  https://openfoam.org
    \\  /    A nd           | Version:  6
     \\/     M anipulation  |
\*---------------------------------------------------------------------------*/
FoamFile
{
    version     2.0;
    format      ascii;
    class       volScalarField;
    location    "./ITHACAoutput/Offline/1";
    object      nutRec;
}
// * * * * * * * * * * * * * * * * * * * * * * * * * * * * * * * * * * * * * //

dimensions      [0 2 -1 0 0 0 0];

internalField   nonuniform List<scalar> 
115600
(
8.17084e-10
2.38481e-10
2.07699e-10
1.95526e-10
1.83431e-10
1.69212e-10
1.54862e-10
1.41705e-10
1.30715e-10
1.21084e-10
1.12463e-10
1.04696e-10
9.772e-11
9.15249e-11
8.61056e-11
8.14418e-11
7.74873e-11
7.41705e-11
7.14022e-11
6.90861e-11
6.71299e-11
6.54549e-11
6.40008e-11
6.27285e-11
6.16173e-11
6.06613e-11
5.98627e-11
5.92264e-11
5.87548e-11
5.84452e-11
5.82886e-11
5.82705e-11
5.83747e-11
5.86422e-11
5.90176e-11
5.94718e-11
5.99877e-11
6.05539e-11
6.11628e-11
6.18091e-11
6.24887e-11
6.31971e-11
6.39303e-11
6.46832e-11
6.54514e-11
6.62312e-11
6.70209e-11
6.78228e-11
6.86444e-11
6.95068e-11
7.04518e-11
7.15951e-11
7.31962e-11
7.63148e-11
8.60067e-11
1.45866e-10
5.23223e-08
2.95923e-08
2.63156e-08
2.46128e-08
2.26176e-08
2.02824e-08
1.79788e-08
1.59359e-08
1.42631e-08
1.28742e-08
1.16836e-08
1.06419e-08
9.7242e-09
8.91999e-09
8.22471e-09
7.63414e-09
7.14153e-09
6.73689e-09
6.40785e-09
6.1409e-09
5.9228e-09
5.74168e-09
5.58808e-09
5.45524e-09
5.33918e-09
5.23822e-09
5.15231e-09
5.08219e-09
5.02872e-09
4.99231e-09
4.97262e-09
4.96858e-09
4.97866e-09
5.00592e-09
5.04517e-09
5.09341e-09
5.1485e-09
5.20902e-09
5.27403e-09
5.34297e-09
5.41548e-09
5.49125e-09
5.56991e-09
5.65108e-09
5.73426e-09
5.81901e-09
5.90502e-09
5.99228e-09
6.0813e-09
6.17373e-09
6.27339e-09
6.39029e-09
6.5497e-09
6.84175e-09
7.677e-09
1.09716e-08
2.71587e-07
2.71388e-07
2.75004e-07
2.69539e-07
2.55128e-07
2.35319e-07
2.14231e-07
1.94417e-07
1.76994e-07
1.62033e-07
1.48833e-07
1.36874e-07
1.2588e-07
1.15789e-07
1.06669e-07
9.86242e-08
9.17236e-08
8.59618e-08
8.12582e-08
7.74741e-08
7.44391e-08
7.19787e-08
6.99369e-08
6.81924e-08
6.66666e-08
6.53215e-08
6.41522e-08
6.3174e-08
6.24095e-08
6.18776e-08
6.15862e-08
6.15293e-08
6.16908e-08
6.20842e-08
6.26562e-08
6.33637e-08
6.41714e-08
6.50541e-08
6.59948e-08
6.69837e-08
6.80156e-08
6.90864e-08
7.01924e-08
7.13276e-08
7.24847e-08
7.36553e-08
7.48311e-08
7.60061e-08
7.71786e-08
7.83575e-08
7.9573e-08
8.09077e-08
8.26009e-08
8.53847e-08
9.25223e-08
1.12549e-07
5.43201e-07
6.72072e-07
7.28548e-07
7.35781e-07
7.14325e-07
6.78044e-07
6.36969e-07
5.97109e-07
5.61325e-07
5.29868e-07
5.01848e-07
4.7605e-07
4.51715e-07
4.28577e-07
4.06793e-07
3.86755e-07
3.68893e-07
3.5351e-07
3.40698e-07
3.30325e-07
3.22072e-07
3.15512e-07
3.10192e-07
3.05718e-07
3.01804e-07
2.98297e-07
2.95168e-07
2.92476e-07
2.90328e-07
2.88833e-07
2.88061e-07
2.88033e-07
2.88714e-07
2.90083e-07
2.92004e-07
2.94337e-07
2.96956e-07
2.99762e-07
3.0269e-07
3.05706e-07
3.0879e-07
3.11931e-07
3.1512e-07
3.1834e-07
3.21569e-07
3.24776e-07
3.27932e-07
3.31003e-07
3.33963e-07
3.36804e-07
3.39553e-07
3.42317e-07
3.45472e-07
3.50118e-07
3.61464e-07
3.91292e-07
7.50486e-07
1.0334e-06
1.18454e-06
1.23609e-06
1.22966e-06
1.19282e-06
1.14324e-06
1.09141e-06
1.04261e-06
9.98491e-07
9.58249e-07
9.20583e-07
8.84495e-07
8.49643e-07
8.16325e-07
7.85241e-07
7.5719e-07
7.32801e-07
7.12385e-07
6.95869e-07
6.82841e-07
6.72659e-07
6.64594e-07
6.57969e-07
6.52269e-07
6.47194e-07
6.42655e-07
6.38732e-07
6.356e-07
6.33453e-07
6.32437e-07
6.32611e-07
6.33941e-07
6.36342e-07
6.39633e-07
6.43583e-07
6.47984e-07
6.5267e-07
6.5753e-07
6.625e-07
6.6755e-07
6.72663e-07
6.77828e-07
6.83021e-07
6.88207e-07
6.93338e-07
6.9836e-07
7.03214e-07
7.07848e-07
7.12226e-07
7.16352e-07
7.20323e-07
7.24518e-07
7.30157e-07
7.43027e-07
7.7722e-07
8.93428e-07
1.27801e-06
1.52764e-06
1.64621e-06
1.68046e-06
1.66698e-06
1.62992e-06
1.58387e-06
1.5365e-06
1.49102e-06
1.44745e-06
1.40488e-06
1.36253e-06
1.32028e-06
1.27879e-06
1.23922e-06
1.20289e-06
1.17084e-06
1.14371e-06
1.1216e-06
1.10408e-06
1.09038e-06
1.07959e-06
1.07079e-06
1.06329e-06
1.05668e-06
1.05081e-06
1.04578e-06
1.04184e-06
1.03925e-06
1.0382e-06
1.0388e-06
1.04101e-06
1.04466e-06
1.04955e-06
1.05536e-06
1.06182e-06
1.06871e-06
1.07587e-06
1.08321e-06
1.09068e-06
1.09827e-06
1.10596e-06
1.11371e-06
1.12146e-06
1.12916e-06
1.13672e-06
1.14408e-06
1.15115e-06
1.15788e-06
1.16426e-06
1.1704e-06
1.1767e-06
1.18451e-06
1.20001e-06
1.23705e-06
1.00211e-06
1.407e-06
1.72581e-06
1.91146e-06
1.99873e-06
2.02493e-06
2.01732e-06
1.99329e-06
1.9625e-06
1.9293e-06
1.89476e-06
1.85816e-06
1.81926e-06
1.7782e-06
1.73608e-06
1.69456e-06
1.65546e-06
1.62034e-06
1.59023e-06
1.56549e-06
1.54582e-06
1.53048e-06
1.51846e-06
1.50875e-06
1.50057e-06
1.4934e-06
1.48714e-06
1.48188e-06
1.47792e-06
1.47561e-06
1.47518e-06
1.47677e-06
1.48034e-06
1.48567e-06
1.49251e-06
1.50052e-06
1.50937e-06
1.51882e-06
1.52868e-06
1.53883e-06
1.5492e-06
1.55978e-06
1.57053e-06
1.58141e-06
1.59235e-06
1.60327e-06
1.61408e-06
1.62468e-06
1.63497e-06
1.64491e-06
1.65448e-06
1.66379e-06
1.67331e-06
1.68439e-06
1.70337e-06
1.74199e-06
1.109e-06
1.4507e-06
1.79322e-06
2.03001e-06
2.16989e-06
2.24221e-06
2.27321e-06
2.2813e-06
2.27742e-06
2.26691e-06
2.2515e-06
2.23098e-06
2.20507e-06
2.17427e-06
2.13997e-06
2.10422e-06
2.06926e-06
2.03712e-06
2.00925e-06
1.98636e-06
1.96841e-06
1.95476e-06
1.94446e-06
1.93648e-06
1.92999e-06
1.92447e-06
1.91978e-06
1.91608e-06
1.91369e-06
1.91304e-06
1.91442e-06
1.91803e-06
1.92384e-06
1.93161e-06
1.94109e-06
1.95191e-06
1.96376e-06
1.97633e-06
1.98943e-06
2.00294e-06
2.01677e-06
2.0309e-06
2.04529e-06
2.05988e-06
2.07459e-06
2.08935e-06
2.10403e-06
2.11853e-06
2.13276e-06
2.14665e-06
2.16018e-06
2.17348e-06
2.18706e-06
2.20217e-06
2.22501e-06
2.26474e-06
1.24163e-06
1.44711e-06
1.75935e-06
2.01962e-06
2.20215e-06
2.31964e-06
2.3924e-06
2.43754e-06
2.46636e-06
2.48486e-06
2.49532e-06
2.49792e-06
2.49228e-06
2.47908e-06
2.45985e-06
2.43679e-06
2.41246e-06
2.38923e-06
2.36898e-06
2.35278e-06
2.34089e-06
2.33291e-06
2.32798e-06
2.32512e-06
2.32349e-06
2.32254e-06
2.32214e-06
2.32245e-06
2.32385e-06
2.32681e-06
2.33174e-06
2.33886e-06
2.34823e-06
2.35964e-06
2.37283e-06
2.38745e-06
2.40317e-06
2.4197e-06
2.43684e-06
2.45444e-06
2.47245e-06
2.4908e-06
2.50946e-06
2.52838e-06
2.54747e-06
2.56665e-06
2.5858e-06
2.6048e-06
2.62355e-06
2.642e-06
2.66012e-06
2.67802e-06
2.6962e-06
2.71575e-06
2.74251e-06
2.78324e-06
1.41779e-06
1.43521e-06
1.66281e-06
1.90827e-06
2.11367e-06
2.26841e-06
2.3812e-06
2.46454e-06
2.52853e-06
2.57925e-06
2.61934e-06
2.64925e-06
2.66876e-06
2.67848e-06
2.67979e-06
2.67494e-06
2.66658e-06
2.65735e-06
2.64946e-06
2.64435e-06
2.64262e-06
2.64414e-06
2.64819e-06
2.65391e-06
2.66043e-06
2.66719e-06
2.67404e-06
2.68113e-06
2.68886e-06
2.69775e-06
2.70831e-06
2.72082e-06
2.73543e-06
2.752e-06
2.77029e-06
2.78998e-06
2.81077e-06
2.83237e-06
2.85456e-06
2.87722e-06
2.90026e-06
2.92366e-06
2.94736e-06
2.97132e-06
2.99547e-06
3.01972e-06
3.04394e-06
3.06802e-06
3.09187e-06
3.11541e-06
3.13863e-06
3.16158e-06
3.18474e-06
3.20895e-06
3.23955e-06
3.28145e-06
1.64654e-06
1.44905e-06
1.54977e-06
1.73586e-06
1.93287e-06
2.1076e-06
2.25238e-06
2.3709e-06
2.46949e-06
2.55308e-06
2.62426e-06
2.68369e-06
2.73132e-06
2.76746e-06
2.79327e-06
2.81077e-06
2.82258e-06
2.83145e-06
2.83983e-06
2.84951e-06
2.86143e-06
2.87574e-06
2.89196e-06
2.90932e-06
2.927e-06
2.94445e-06
2.96141e-06
2.97801e-06
2.99467e-06
3.01194e-06
3.03034e-06
3.0503e-06
3.07203e-06
3.09548e-06
3.12047e-06
3.14673e-06
3.17396e-06
3.20191e-06
3.23036e-06
3.25918e-06
3.28831e-06
3.31771e-06
3.34736e-06
3.3772e-06
3.40718e-06
3.4372e-06
3.46716e-06
3.49696e-06
3.52649e-06
3.55566e-06
3.58444e-06
3.61286e-06
3.64132e-06
3.67039e-06
3.70483e-06
3.74816e-06
1.93753e-06
1.51563e-06
1.46853e-06
1.55568e-06
1.70395e-06
1.86916e-06
2.02795e-06
2.17168e-06
2.29969e-06
2.41372e-06
2.51524e-06
2.60468e-06
2.68175e-06
2.74638e-06
2.79929e-06
2.84213e-06
2.87728e-06
2.90746e-06
2.93526e-06
2.9627e-06
2.99106e-06
3.02084e-06
3.05183e-06
3.08339e-06
3.1148e-06
3.14547e-06
3.17508e-06
3.20373e-06
3.23176e-06
3.25974e-06
3.28822e-06
3.31769e-06
3.34846e-06
3.3806e-06
3.41394e-06
3.44833e-06
3.48347e-06
3.51915e-06
3.55516e-06
3.59138e-06
3.62775e-06
3.66424e-06
3.70083e-06
3.73748e-06
3.77415e-06
3.81076e-06
3.84722e-06
3.8834e-06
3.91923e-06
3.9546e-06
3.98946e-06
4.02378e-06
4.05787e-06
4.09203e-06
4.13041e-06
4.17557e-06
2.31153e-06
1.65899e-06
1.46194e-06
1.42824e-06
1.48965e-06
1.60586e-06
1.74716e-06
1.89458e-06
2.03867e-06
2.17547e-06
2.30317e-06
2.42048e-06
2.52624e-06
2.61967e-06
2.70082e-06
2.77076e-06
2.83143e-06
2.88529e-06
2.93488e-06
2.98241e-06
3.02945e-06
3.07679e-06
3.12455e-06
3.17231e-06
3.21946e-06
3.26542e-06
3.30982e-06
3.35268e-06
3.39427e-06
3.43507e-06
3.4757e-06
3.51664e-06
3.55829e-06
3.60082e-06
3.64417e-06
3.68821e-06
3.73274e-06
3.77753e-06
3.82242e-06
3.8673e-06
3.91211e-06
3.95681e-06
4.0014e-06
4.04586e-06
4.09015e-06
4.13421e-06
4.17795e-06
4.22127e-06
4.26408e-06
4.30626e-06
4.34774e-06
4.38844e-06
4.42854e-06
4.46811e-06
4.51069e-06
4.55818e-06
2.80184e-06
1.90827e-06
1.56642e-06
1.40924e-06
1.3625e-06
1.3932e-06
1.47636e-06
1.59262e-06
1.72698e-06
1.86879e-06
2.01092e-06
2.14852e-06
2.27817e-06
2.39763e-06
2.50578e-06
2.60273e-06
2.68964e-06
2.7684e-06
2.84131e-06
2.91053e-06
2.9778e-06
3.04422e-06
3.1102e-06
3.1756e-06
3.23995e-06
3.30276e-06
3.36361e-06
3.42241e-06
3.47933e-06
3.5348e-06
3.58934e-06
3.6435e-06
3.6977e-06
3.7522e-06
3.80706e-06
3.8622e-06
3.91746e-06
3.97268e-06
4.02772e-06
4.08247e-06
4.13688e-06
4.19091e-06
4.24457e-06
4.29785e-06
4.35071e-06
4.4031e-06
4.45496e-06
4.50619e-06
4.55667e-06
4.6063e-06
4.65499e-06
4.7026e-06
4.74918e-06
4.79455e-06
4.8417e-06
4.89211e-06
3.45821e-06
2.3135e-06
1.82717e-06
1.55016e-06
1.39077e-06
1.31666e-06
1.30942e-06
1.35527e-06
1.44123e-06
1.55513e-06
1.68623e-06
1.82552e-06
1.96596e-06
2.10241e-06
2.23157e-06
2.35179e-06
2.46286e-06
2.56565e-06
2.66179e-06
2.75308e-06
2.84119e-06
2.9274e-06
3.01234e-06
3.09614e-06
3.17855e-06
3.25913e-06
3.3375e-06
3.41343e-06
3.48701e-06
3.55852e-06
3.62843e-06
3.69723e-06
3.76538e-06
3.8332e-06
3.90084e-06
3.96832e-06
4.03551e-06
4.10234e-06
4.16865e-06
4.23437e-06
4.29945e-06
4.36385e-06
4.42758e-06
4.49062e-06
4.55296e-06
4.61455e-06
4.67532e-06
4.7352e-06
4.79408e-06
4.85183e-06
4.90833e-06
4.96337e-06
5.01691e-06
5.06855e-06
5.12077e-06
5.17476e-06
4.38463e-06
2.97691e-06
2.32942e-06
1.92483e-06
1.64766e-06
1.45982e-06
1.34473e-06
1.29196e-06
1.29247e-06
1.33755e-06
1.41813e-06
1.52484e-06
1.64845e-06
1.78079e-06
1.91534e-06
2.04758e-06
2.17494e-06
2.29643e-06
2.41228e-06
2.52342e-06
2.63101e-06
2.73615e-06
2.83952e-06
2.94142e-06
3.04173e-06
3.14015e-06
3.23625e-06
3.32978e-06
3.42064e-06
3.509e-06
3.59518e-06
3.67961e-06
3.76272e-06
3.84486e-06
3.92625e-06
4.00701e-06
4.08709e-06
4.16642e-06
4.24492e-06
4.3225e-06
4.39912e-06
4.47476e-06
4.5494e-06
4.62305e-06
4.69566e-06
4.76722e-06
4.83766e-06
4.9069e-06
4.97482e-06
5.04129e-06
5.10617e-06
5.1692e-06
5.2302e-06
5.28862e-06
5.34646e-06
5.40475e-06
5.73315e-06
4.05164e-06
3.20584e-06
2.6474e-06
2.2351e-06
1.91929e-06
1.68012e-06
1.50842e-06
1.39747e-06
1.34098e-06
1.33247e-06
1.36505e-06
1.43113e-06
1.52268e-06
1.63176e-06
1.75131e-06
1.87585e-06
2.00162e-06
2.1265e-06
2.24964e-06
2.37095e-06
2.49072e-06
2.60927e-06
2.72673e-06
2.84298e-06
2.95766e-06
3.07036e-06
3.18066e-06
3.28836e-06
3.39338e-06
3.4959e-06
3.5962e-06
3.69464e-06
3.79155e-06
3.88718e-06
3.98171e-06
4.07517e-06
4.16756e-06
4.25879e-06
4.3488e-06
4.43756e-06
4.52504e-06
4.6112e-06
4.69605e-06
4.77955e-06
4.86167e-06
4.94235e-06
5.0215e-06
5.099e-06
5.17473e-06
5.24848e-06
5.31995e-06
5.38888e-06
5.45456e-06
5.5186e-06
5.5819e-06
7.47818e-06
5.59935e-06
4.54076e-06
3.809e-06
3.24757e-06
2.79214e-06
2.41659e-06
2.11016e-06
1.86757e-06
1.68494e-06
1.55827e-06
1.48276e-06
1.45285e-06
1.46234e-06
1.50456e-06
1.5727e-06
1.66022e-06
1.76147e-06
1.87196e-06
1.98844e-06
2.1088e-06
2.23173e-06
2.35641e-06
2.48221e-06
2.60854e-06
2.73474e-06
2.86013e-06
2.98409e-06
3.1061e-06
3.22586e-06
3.34326e-06
3.45836e-06
3.57137e-06
3.68251e-06
3.79201e-06
3.90005e-06
4.00672e-06
4.11204e-06
4.21599e-06
4.31849e-06
4.41948e-06
4.51894e-06
4.61683e-06
4.71313e-06
4.80778e-06
4.90075e-06
4.99197e-06
5.08134e-06
5.16876e-06
5.25406e-06
5.33701e-06
5.41727e-06
5.49447e-06
5.56782e-06
5.63857e-06
5.70756e-06
9.22309e-06
7.40589e-06
6.21927e-06
5.3497e-06
4.66082e-06
4.08324e-06
3.58611e-06
3.15477e-06
2.7827e-06
2.46733e-06
2.20752e-06
2.00198e-06
1.84839e-06
1.74324e-06
1.68185e-06
1.65891e-06
1.6688e-06
1.70602e-06
1.76546e-06
1.8427e-06
1.93402e-06
2.03644e-06
2.14757e-06
2.26545e-06
2.38842e-06
2.51499e-06
2.64384e-06
2.77374e-06
2.90368e-06
3.0329e-06
3.16084e-06
3.28721e-06
3.41188e-06
3.53489e-06
3.65631e-06
3.77622e-06
3.89469e-06
4.01174e-06
4.12734e-06
4.24146e-06
4.354e-06
4.46487e-06
4.57401e-06
4.68138e-06
4.7869e-06
4.89051e-06
4.99213e-06
5.09163e-06
5.18891e-06
5.28377e-06
5.37595e-06
5.46507e-06
5.55068e-06
5.63192e-06
5.70976e-06
5.78499e-06
1.05502e-05
9.09096e-06
7.95217e-06
7.04585e-06
6.29613e-06
5.64881e-06
5.07633e-06
4.56284e-06
4.09973e-06
3.68308e-06
3.31186e-06
2.98654e-06
2.70798e-06
2.47649e-06
2.29129e-06
2.15035e-06
2.05051e-06
1.98795e-06
1.95855e-06
1.95826e-06
1.98326e-06
2.03011e-06
2.09567e-06
2.17707e-06
2.27166e-06
2.37695e-06
2.49063e-06
2.6106e-06
2.73499e-06
2.86222e-06
2.99105e-06
3.12053e-06
3.25002e-06
3.37908e-06
3.50748e-06
3.63506e-06
3.76168e-06
3.88729e-06
4.01178e-06
4.13505e-06
4.25698e-06
4.37741e-06
4.4962e-06
4.61323e-06
4.7284e-06
4.8416e-06
4.9527e-06
5.06157e-06
5.16803e-06
5.27188e-06
5.37283e-06
5.47043e-06
5.56419e-06
5.65322e-06
5.73825e-06
5.82001e-06
1.13756e-05
1.03984e-05
9.46977e-06
8.64803e-06
7.9258e-06
7.27842e-06
6.69019e-06
6.14977e-06
5.6495e-06
5.18478e-06
4.75344e-06
4.35512e-06
3.99068e-06
3.66166e-06
3.36967e-06
3.11584e-06
2.9006e-06
2.72346e-06
2.58313e-06
2.47771e-06
2.40492e-06
2.36233e-06
2.34736e-06
2.35746e-06
2.38999e-06
2.44226e-06
2.51153e-06
2.59508e-06
2.69027e-06
2.79469e-06
2.90622e-06
3.02302e-06
3.14368e-06
3.26705e-06
3.39227e-06
3.51872e-06
3.64588e-06
3.77338e-06
3.90089e-06
4.02812e-06
4.15481e-06
4.28074e-06
4.4056e-06
4.52915e-06
4.65118e-06
4.77149e-06
4.88989e-06
5.00618e-06
5.12013e-06
5.23148e-06
5.33989e-06
5.44487e-06
5.54589e-06
5.64202e-06
5.73384e-06
5.822e-06
1.18294e-05
1.12863e-05
1.0642e-05
9.99401e-06
9.37765e-06
8.79646e-06
8.24943e-06
7.73343e-06
7.24498e-06
6.78123e-06
6.34026e-06
5.92117e-06
5.52401e-06
5.14958e-06
4.7992e-06
4.47451e-06
4.17714e-06
3.90859e-06
3.67001e-06
3.46216e-06
3.28535e-06
3.1395e-06
3.02407e-06
2.93817e-06
2.88052e-06
2.84945e-06
2.84293e-06
2.85868e-06
2.89417e-06
2.94681e-06
3.01406e-06
3.09351e-06
3.18303e-06
3.28074e-06
3.38504e-06
3.49465e-06
3.60846e-06
3.72557e-06
3.84525e-06
3.96682e-06
4.08972e-06
4.21345e-06
4.33757e-06
4.46157e-06
4.58506e-06
4.7077e-06
4.82913e-06
4.94904e-06
5.0671e-06
5.18295e-06
5.29618e-06
5.40624e-06
5.51255e-06
5.61417e-06
5.71156e-06
5.80526e-06
1.20638e-05
1.18377e-05
1.14679e-05
1.10286e-05
1.05657e-05
1.00986e-05
9.63733e-06
9.18678e-06
8.74871e-06
8.32345e-06
7.91081e-06
7.51059e-06
7.12284e-06
6.74793e-06
6.38657e-06
6.03978e-06
5.7088e-06
5.39507e-06
5.10016e-06
4.82562e-06
4.57304e-06
4.34391e-06
4.13956e-06
3.96105e-06
3.80908e-06
3.68395e-06
3.58538e-06
3.51264e-06
3.46449e-06
3.43927e-06
3.43505e-06
3.44977e-06
3.48131e-06
3.52761e-06
3.58675e-06
3.65695e-06
3.73666e-06
3.82446e-06
3.91909e-06
4.01943e-06
4.12447e-06
4.23334e-06
4.34521e-06
4.45936e-06
4.57504e-06
4.69168e-06
4.80869e-06
4.92555e-06
5.04176e-06
5.15679e-06
5.27012e-06
5.38109e-06
5.48906e-06
5.59308e-06
5.69351e-06
5.79073e-06
1.21841e-05
1.21633e-05
1.20141e-05
1.17732e-05
1.14766e-05
1.11467e-05
1.0798e-05
1.04404e-05
1.00797e-05
9.71937e-06
9.36141e-06
9.007e-06
8.65694e-06
8.31184e-06
7.97234e-06
7.63913e-06
7.31303e-06
6.99504e-06
6.68628e-06
6.38807e-06
6.10189e-06
5.82936e-06
5.5722e-06
5.33219e-06
5.11104e-06
4.91028e-06
4.73122e-06
4.57473e-06
4.44129e-06
4.33087e-06
4.24303e-06
4.17694e-06
4.13149e-06
4.10535e-06
4.09708e-06
4.10517e-06
4.12814e-06
4.16451e-06
4.21287e-06
4.27185e-06
4.34015e-06
4.41654e-06
4.49987e-06
4.58908e-06
4.68309e-06
4.78108e-06
4.88216e-06
4.98554e-06
5.09046e-06
5.19617e-06
5.30194e-06
5.40702e-06
5.51064e-06
5.61185e-06
5.71085e-06
5.80789e-06
1.22496e-05
1.23536e-05
1.23629e-05
1.22857e-05
1.21423e-05
1.19501e-05
1.17225e-05
1.14706e-05
1.12023e-05
1.09229e-05
1.06362e-05
1.03447e-05
1.00502e-05
9.75391e-06
9.45671e-06
9.15944e-06
8.86282e-06
8.56762e-06
8.27469e-06
7.98496e-06
7.69957e-06
7.41977e-06
7.14698e-06
6.88279e-06
6.62886e-06
6.38691e-06
6.15863e-06
5.94561e-06
5.74921e-06
5.57059e-06
5.41055e-06
5.26962e-06
5.148e-06
5.04559e-06
4.96205e-06
4.89685e-06
4.84925e-06
4.81839e-06
4.80331e-06
4.80295e-06
4.81617e-06
4.84181e-06
4.87869e-06
4.92561e-06
4.98141e-06
5.04486e-06
5.11509e-06
5.19108e-06
5.27181e-06
5.35634e-06
5.44372e-06
5.53305e-06
5.62346e-06
5.71395e-06
5.80462e-06
5.89551e-06
1.22898e-05
1.24682e-05
1.25843e-05
1.26303e-05
1.26138e-05
1.25445e-05
1.24319e-05
1.22857e-05
1.21136e-05
1.19216e-05
1.17141e-05
1.14946e-05
1.12655e-05
1.10287e-05
1.07857e-05
1.05373e-05
1.02846e-05
1.00283e-05
9.76916e-06
9.50792e-06
9.2455e-06
8.98285e-06
8.72106e-06
8.46135e-06
8.20503e-06
7.95352e-06
7.7083e-06
7.47089e-06
7.24275e-06
7.02532e-06
6.8199e-06
6.62764e-06
6.44956e-06
6.2865e-06
6.13905e-06
6.00768e-06
5.89263e-06
5.79395e-06
5.71153e-06
5.64505e-06
5.59405e-06
5.5579e-06
5.53584e-06
5.52701e-06
5.53044e-06
5.54499e-06
5.56987e-06
5.60408e-06
5.64662e-06
5.6965e-06
5.75273e-06
5.81432e-06
5.88037e-06
5.94993e-06
6.02299e-06
6.09947e-06
1.23182e-05
1.25421e-05
1.27278e-05
1.28616e-05
1.29427e-05
1.29745e-05
1.29622e-05
1.29125e-05
1.28317e-05
1.27252e-05
1.25974e-05
1.24521e-05
1.22921e-05
1.21195e-05
1.19361e-05
1.17432e-05
1.15418e-05
1.1333e-05
1.11174e-05
1.08959e-05
1.06692e-05
1.04382e-05
1.02037e-05
9.96665e-06
9.72807e-06
9.48903e-06
9.2507e-06
9.0143e-06
8.78107e-06
8.55226e-06
8.32914e-06
8.11296e-06
7.90491e-06
7.70613e-06
7.51768e-06
7.34056e-06
7.1756e-06
7.02356e-06
6.88503e-06
6.76045e-06
6.6501e-06
6.55409e-06
6.47234e-06
6.40459e-06
6.35047e-06
6.30928e-06
6.28042e-06
6.26332e-06
6.25731e-06
6.26165e-06
6.27555e-06
6.29821e-06
6.32893e-06
6.36691e-06
6.41224e-06
6.46489e-06
1.23405e-05
1.25938e-05
1.28249e-05
1.30191e-05
1.31719e-05
1.32822e-05
1.33519e-05
1.33846e-05
1.33847e-05
1.33563e-05
1.33034e-05
1.32293e-05
1.31367e-05
1.3028e-05
1.2905e-05
1.27691e-05
1.26217e-05
1.24637e-05
1.22961e-05
1.21196e-05
1.19351e-05
1.17432e-05
1.15448e-05
1.13406e-05
1.11314e-05
1.09182e-05
1.07017e-05
1.04829e-05
1.02628e-05
1.00424e-05
9.82284e-06
9.60501e-06
9.39009e-06
9.17917e-06
8.97336e-06
8.77373e-06
8.58135e-06
8.39722e-06
8.22231e-06
8.05747e-06
7.90345e-06
7.76091e-06
7.63036e-06
7.51214e-06
7.40648e-06
7.31337e-06
7.2324e-06
7.16356e-06
7.10671e-06
7.06163e-06
7.028e-06
7.00546e-06
6.99372e-06
6.99242e-06
7.00189e-06
7.02254e-06
1.2359e-05
1.26325e-05
1.28936e-05
1.3129e-05
1.33328e-05
1.35019e-05
1.36356e-05
1.3735e-05
1.38031e-05
1.38423e-05
1.38558e-05
1.38462e-05
1.3816e-05
1.37673e-05
1.37019e-05
1.36213e-05
1.35268e-05
1.34195e-05
1.33003e-05
1.31701e-05
1.30297e-05
1.28798e-05
1.27212e-05
1.25546e-05
1.23807e-05
1.22002e-05
1.20137e-05
1.18221e-05
1.16261e-05
1.14265e-05
1.12241e-05
1.10198e-05
1.08144e-05
1.06089e-05
1.04043e-05
1.02016e-05
1.00017e-05
9.80571e-06
9.61455e-06
9.42925e-06
9.25074e-06
9.07989e-06
8.91753e-06
8.76439e-06
8.62113e-06
8.48826e-06
8.36555e-06
8.25345e-06
8.15234e-06
8.0625e-06
7.98417e-06
7.91754e-06
7.86286e-06
7.82034e-06
7.79076e-06
7.77529e-06
1.23743e-05
1.26623e-05
1.29437e-05
1.3207e-05
1.34466e-05
1.36582e-05
1.38401e-05
1.3992e-05
1.41148e-05
1.42102e-05
1.428e-05
1.43264e-05
1.43513e-05
1.43564e-05
1.43435e-05
1.43138e-05
1.42686e-05
1.4209e-05
1.41361e-05
1.40506e-05
1.39534e-05
1.38453e-05
1.37269e-05
1.35991e-05
1.34622e-05
1.3317e-05
1.31642e-05
1.30043e-05
1.28379e-05
1.26657e-05
1.24883e-05
1.23065e-05
1.21208e-05
1.19322e-05
1.17413e-05
1.15491e-05
1.13563e-05
1.11638e-05
1.09727e-05
1.07836e-05
1.05977e-05
1.04158e-05
1.02388e-05
1.00676e-05
9.90302e-06
9.74579e-06
9.59588e-06
9.45403e-06
9.32091e-06
9.19718e-06
9.08348e-06
8.98048e-06
8.88893e-06
8.80952e-06
8.7436e-06
8.69322e-06
1.23865e-05
1.26849e-05
1.29801e-05
1.32623e-05
1.35264e-05
1.37682e-05
1.39855e-05
1.41769e-05
1.43424e-05
1.44826e-05
1.45987e-05
1.46918e-05
1.47636e-05
1.48153e-05
1.48483e-05
1.48638e-05
1.4863e-05
1.48468e-05
1.48162e-05
1.47721e-05
1.47153e-05
1.46465e-05
1.45665e-05
1.44759e-05
1.43753e-05
1.42652e-05
1.41464e-05
1.40193e-05
1.38844e-05
1.37423e-05
1.35936e-05
1.34386e-05
1.32781e-05
1.31127e-05
1.29429e-05
1.27695e-05
1.25932e-05
1.24146e-05
1.22346e-05
1.2054e-05
1.18735e-05
1.1694e-05
1.15164e-05
1.13414e-05
1.11702e-05
1.10029e-05
1.08402e-05
1.06827e-05
1.05313e-05
1.03868e-05
1.025e-05
1.01218e-05
1.00034e-05
9.89585e-06
9.80081e-06
9.7213e-06
1.23956e-05
1.27009e-05
1.30051e-05
1.32996e-05
1.35801e-05
1.38426e-05
1.40848e-05
1.43052e-05
1.45029e-05
1.46778e-05
1.48303e-05
1.49613e-05
1.50716e-05
1.51623e-05
1.52343e-05
1.52886e-05
1.53263e-05
1.53482e-05
1.53552e-05
1.53481e-05
1.53277e-05
1.52947e-05
1.52498e-05
1.51937e-05
1.51269e-05
1.50501e-05
1.49638e-05
1.48684e-05
1.47645e-05
1.46525e-05
1.45329e-05
1.44062e-05
1.42728e-05
1.41333e-05
1.39881e-05
1.38379e-05
1.36831e-05
1.35245e-05
1.33626e-05
1.31979e-05
1.30314e-05
1.28635e-05
1.26951e-05
1.2527e-05
1.236e-05
1.21943e-05
1.20306e-05
1.18696e-05
1.1712e-05
1.15589e-05
1.14109e-05
1.12692e-05
1.1135e-05
1.10095e-05
1.08946e-05
1.07942e-05
1.24016e-05
1.27106e-05
1.30197e-05
1.33215e-05
1.3612e-05
1.38878e-05
1.41469e-05
1.43874e-05
1.46082e-05
1.48089e-05
1.49893e-05
1.51497e-05
1.52907e-05
1.54128e-05
1.55169e-05
1.56036e-05
1.56737e-05
1.57281e-05
1.57674e-05
1.57925e-05
1.58039e-05
1.58025e-05
1.57889e-05
1.57637e-05
1.57275e-05
1.56809e-05
1.56244e-05
1.55585e-05
1.54836e-05
1.54001e-05
1.53086e-05
1.52094e-05
1.51029e-05
1.49897e-05
1.487e-05
1.47444e-05
1.46133e-05
1.44772e-05
1.43367e-05
1.41922e-05
1.40442e-05
1.38935e-05
1.37406e-05
1.35862e-05
1.34307e-05
1.32746e-05
1.31185e-05
1.2963e-05
1.28088e-05
1.26566e-05
1.25074e-05
1.23621e-05
1.22219e-05
1.2088e-05
1.19624e-05
1.18497e-05
1.24045e-05
1.2714e-05
1.30244e-05
1.33289e-05
1.36243e-05
1.39075e-05
1.41767e-05
1.443e-05
1.46664e-05
1.48851e-05
1.50856e-05
1.5268e-05
1.54323e-05
1.5579e-05
1.57084e-05
1.58212e-05
1.59179e-05
1.59991e-05
1.60655e-05
1.61177e-05
1.61564e-05
1.61822e-05
1.61957e-05
1.61975e-05
1.61883e-05
1.61684e-05
1.61385e-05
1.60991e-05
1.60505e-05
1.59932e-05
1.59275e-05
1.5854e-05
1.57729e-05
1.56847e-05
1.55897e-05
1.54884e-05
1.5381e-05
1.52681e-05
1.515e-05
1.50272e-05
1.49e-05
1.47691e-05
1.46349e-05
1.44979e-05
1.43583e-05
1.42167e-05
1.40736e-05
1.39295e-05
1.3785e-05
1.36408e-05
1.34976e-05
1.33562e-05
1.32177e-05
1.30833e-05
1.2955e-05
1.28375e-05
1.24041e-05
1.27108e-05
1.3019e-05
1.33224e-05
1.36182e-05
1.39037e-05
1.41772e-05
1.44371e-05
1.46825e-05
1.49124e-05
1.51262e-05
1.53237e-05
1.55047e-05
1.56694e-05
1.5818e-05
1.59509e-05
1.60685e-05
1.61712e-05
1.62596e-05
1.63341e-05
1.63954e-05
1.6444e-05
1.64806e-05
1.65055e-05
1.65194e-05
1.65228e-05
1.65162e-05
1.65001e-05
1.64748e-05
1.64408e-05
1.63984e-05
1.63482e-05
1.62903e-05
1.62252e-05
1.61532e-05
1.60746e-05
1.59899e-05
1.58993e-05
1.58031e-05
1.57019e-05
1.55958e-05
1.54854e-05
1.5371e-05
1.52529e-05
1.51313e-05
1.50068e-05
1.48798e-05
1.47506e-05
1.46197e-05
1.44877e-05
1.43552e-05
1.42229e-05
1.40917e-05
1.39626e-05
1.38373e-05
1.3721e-05
1.24004e-05
1.27012e-05
1.30036e-05
1.3302e-05
1.35939e-05
1.3877e-05
1.41498e-05
1.44109e-05
1.46594e-05
1.48944e-05
1.51153e-05
1.53216e-05
1.55132e-05
1.569e-05
1.5852e-05
1.59994e-05
1.61325e-05
1.62516e-05
1.63571e-05
1.64494e-05
1.6529e-05
1.65963e-05
1.66518e-05
1.66961e-05
1.67297e-05
1.67529e-05
1.67663e-05
1.67703e-05
1.67653e-05
1.67518e-05
1.673e-05
1.67004e-05
1.66633e-05
1.6619e-05
1.65679e-05
1.65102e-05
1.64463e-05
1.63765e-05
1.6301e-05
1.62203e-05
1.61345e-05
1.60441e-05
1.59492e-05
1.58501e-05
1.57471e-05
1.56406e-05
1.55308e-05
1.54181e-05
1.53029e-05
1.51856e-05
1.50666e-05
1.49465e-05
1.4826e-05
1.47059e-05
1.4588e-05
1.44773e-05
1.23934e-05
1.26849e-05
1.29779e-05
1.32676e-05
1.35515e-05
1.38278e-05
1.40951e-05
1.43523e-05
1.45985e-05
1.4833e-05
1.50553e-05
1.52648e-05
1.54613e-05
1.56445e-05
1.58145e-05
1.59712e-05
1.61148e-05
1.62454e-05
1.63635e-05
1.64691e-05
1.65628e-05
1.66448e-05
1.67157e-05
1.67758e-05
1.68255e-05
1.68654e-05
1.68957e-05
1.69169e-05
1.69294e-05
1.69336e-05
1.69299e-05
1.69184e-05
1.68997e-05
1.68739e-05
1.68415e-05
1.68026e-05
1.67576e-05
1.67067e-05
1.66503e-05
1.65886e-05
1.65217e-05
1.64501e-05
1.63738e-05
1.62931e-05
1.62083e-05
1.61196e-05
1.60272e-05
1.59315e-05
1.58326e-05
1.5731e-05
1.56268e-05
1.55205e-05
1.54128e-05
1.53042e-05
1.51963e-05
1.50941e-05
1.2383e-05
1.26618e-05
1.29417e-05
1.32187e-05
1.34906e-05
1.37557e-05
1.40129e-05
1.42613e-05
1.45002e-05
1.4729e-05
1.49473e-05
1.51546e-05
1.53506e-05
1.5535e-05
1.57078e-05
1.58688e-05
1.60181e-05
1.61558e-05
1.62819e-05
1.63968e-05
1.65007e-05
1.65938e-05
1.66764e-05
1.6749e-05
1.68118e-05
1.68652e-05
1.69096e-05
1.69454e-05
1.69728e-05
1.69922e-05
1.7004e-05
1.70085e-05
1.70059e-05
1.69966e-05
1.69807e-05
1.69587e-05
1.69307e-05
1.68971e-05
1.68579e-05
1.68136e-05
1.67642e-05
1.67099e-05
1.66511e-05
1.65878e-05
1.65203e-05
1.64488e-05
1.63734e-05
1.62943e-05
1.62117e-05
1.61258e-05
1.60369e-05
1.59453e-05
1.58513e-05
1.57556e-05
1.56594e-05
1.55677e-05
1.23692e-05
1.26316e-05
1.28946e-05
1.31548e-05
1.34104e-05
1.36599e-05
1.39025e-05
1.41374e-05
1.43642e-05
1.45823e-05
1.47915e-05
1.49915e-05
1.51819e-05
1.53626e-05
1.55332e-05
1.56938e-05
1.58442e-05
1.59845e-05
1.61147e-05
1.62349e-05
1.63452e-05
1.64458e-05
1.65369e-05
1.66188e-05
1.66917e-05
1.6756e-05
1.68118e-05
1.68596e-05
1.68996e-05
1.6932e-05
1.69573e-05
1.69756e-05
1.69872e-05
1.69924e-05
1.69914e-05
1.69845e-05
1.69718e-05
1.69537e-05
1.69304e-05
1.69019e-05
1.68686e-05
1.68305e-05
1.6788e-05
1.6741e-05
1.66898e-05
1.66346e-05
1.65754e-05
1.65124e-05
1.64458e-05
1.63755e-05
1.63019e-05
1.62251e-05
1.61453e-05
1.60632e-05
1.59798e-05
1.58998e-05
1.23516e-05
1.25938e-05
1.2836e-05
1.30752e-05
1.331e-05
1.35395e-05
1.37628e-05
1.39795e-05
1.41894e-05
1.43922e-05
1.45875e-05
1.47754e-05
1.49554e-05
1.51275e-05
1.52915e-05
1.54471e-05
1.55944e-05
1.57331e-05
1.58633e-05
1.5985e-05
1.60981e-05
1.62029e-05
1.62993e-05
1.63875e-05
1.64678e-05
1.65403e-05
1.66052e-05
1.66627e-05
1.67131e-05
1.67565e-05
1.67933e-05
1.68236e-05
1.68477e-05
1.68658e-05
1.68781e-05
1.68849e-05
1.68862e-05
1.68823e-05
1.68734e-05
1.68597e-05
1.68413e-05
1.68184e-05
1.67911e-05
1.67596e-05
1.67239e-05
1.66842e-05
1.66407e-05
1.65932e-05
1.65421e-05
1.64872e-05
1.64287e-05
1.63668e-05
1.63017e-05
1.62336e-05
1.61639e-05
1.60965e-05
1.233e-05
1.25478e-05
1.27647e-05
1.29784e-05
1.31881e-05
1.33929e-05
1.35924e-05
1.37863e-05
1.39748e-05
1.41575e-05
1.43346e-05
1.45058e-05
1.46711e-05
1.48303e-05
1.49832e-05
1.51297e-05
1.52697e-05
1.54029e-05
1.55294e-05
1.5649e-05
1.57616e-05
1.58673e-05
1.5966e-05
1.60578e-05
1.61427e-05
1.6221e-05
1.62926e-05
1.63577e-05
1.64165e-05
1.64691e-05
1.65158e-05
1.65565e-05
1.65917e-05
1.66213e-05
1.66456e-05
1.66648e-05
1.66789e-05
1.66882e-05
1.66929e-05
1.6693e-05
1.66887e-05
1.66802e-05
1.66675e-05
1.66507e-05
1.663e-05
1.66054e-05
1.65771e-05
1.65449e-05
1.6509e-05
1.64694e-05
1.64262e-05
1.63794e-05
1.63292e-05
1.62759e-05
1.62205e-05
1.61668e-05
1.23039e-05
1.24926e-05
1.26795e-05
1.2863e-05
1.30427e-05
1.32182e-05
1.33894e-05
1.35563e-05
1.3719e-05
1.38776e-05
1.40322e-05
1.41828e-05
1.43293e-05
1.44717e-05
1.46097e-05
1.47433e-05
1.48723e-05
1.49965e-05
1.51157e-05
1.52299e-05
1.53388e-05
1.54424e-05
1.55405e-05
1.56332e-05
1.57203e-05
1.5802e-05
1.58782e-05
1.59489e-05
1.60143e-05
1.60744e-05
1.61293e-05
1.61792e-05
1.6224e-05
1.6264e-05
1.62993e-05
1.633e-05
1.63561e-05
1.63779e-05
1.63954e-05
1.64088e-05
1.64181e-05
1.64235e-05
1.64251e-05
1.64228e-05
1.64169e-05
1.64072e-05
1.6394e-05
1.63771e-05
1.63567e-05
1.63326e-05
1.6305e-05
1.62738e-05
1.62393e-05
1.62016e-05
1.61616e-05
1.61227e-05
1.22726e-05
1.24268e-05
1.25785e-05
1.27269e-05
1.28719e-05
1.30136e-05
1.31524e-05
1.32883e-05
1.34216e-05
1.35525e-05
1.36812e-05
1.38078e-05
1.39322e-05
1.40544e-05
1.41743e-05
1.42917e-05
1.44066e-05
1.45186e-05
1.46275e-05
1.47333e-05
1.48356e-05
1.49343e-05
1.50292e-05
1.51202e-05
1.52072e-05
1.52901e-05
1.53688e-05
1.54433e-05
1.55136e-05
1.55796e-05
1.56414e-05
1.56991e-05
1.57526e-05
1.5802e-05
1.58474e-05
1.58889e-05
1.59265e-05
1.59603e-05
1.59903e-05
1.60167e-05
1.60394e-05
1.60587e-05
1.60745e-05
1.60868e-05
1.60958e-05
1.61014e-05
1.61037e-05
1.61026e-05
1.60981e-05
1.60902e-05
1.6079e-05
1.60644e-05
1.60465e-05
1.60257e-05
1.60026e-05
1.59799e-05
1.2235e-05
1.23488e-05
1.24599e-05
1.25681e-05
1.26741e-05
1.27783e-05
1.28811e-05
1.29828e-05
1.30839e-05
1.31846e-05
1.32849e-05
1.33851e-05
1.3485e-05
1.35847e-05
1.3684e-05
1.37829e-05
1.3881e-05
1.39784e-05
1.40745e-05
1.41694e-05
1.42627e-05
1.43541e-05
1.44435e-05
1.45307e-05
1.46154e-05
1.46975e-05
1.47769e-05
1.48534e-05
1.4927e-05
1.49976e-05
1.5065e-05
1.51294e-05
1.51906e-05
1.52486e-05
1.53035e-05
1.53553e-05
1.5404e-05
1.54495e-05
1.5492e-05
1.55314e-05
1.55678e-05
1.56011e-05
1.56315e-05
1.5659e-05
1.56834e-05
1.57049e-05
1.57235e-05
1.5739e-05
1.57515e-05
1.5761e-05
1.57674e-05
1.57707e-05
1.57711e-05
1.57687e-05
1.57643e-05