/*--------------------------------*- C++ -*----------------------------------*\
  =========                 |
  \\      /  F ield         | OpenFOAM: The Open Source CFD Toolbox
   \\    /   O peration     | Website:  https://openfoam.org
    \\  /    A nd           | Version:  6
     \\/     M anipulation  |
\*---------------------------------------------------------------------------*/
FoamFile
{
    version     2.0;
    format      ascii;
    class       volScalarField;
    location    "0";
    object      P_rec;
}
// * * * * * * * * * * * * * * * * * * * * * * * * * * * * * * * * * * * * * //

dimensions      [0 2 -2 0 0 0 0];

internalField   nonuniform List<scalar> 
13046
(
0.721054
0.735186
0.829395
0.732019
0.807842
0.769664
0.705782
0.770873
0.820526
0.290761
0.622159
0.821431
0.679204
0.736082
0.826065
0.373772
0.833724
0.603026
0.792062
0.795527
0.738947
0.361963
0.832165
0.609046
0.738795
0.764393
0.811771
0.662629
0.721274
0.834614
0.726634
0.726451
0.82531
0.757727
0.808186
0.760541
0.757471
0.807751
0.771445
0.751297
0.825552
0.683285
0.76672
0.792278
0.780384
0.759022
0.784104
0.793431
0.70213
0.739624
0.829265
0.815739
0.769186
0.621981
0.816411
0.593896
0.778811
0.611839
0.567906
0.844675
0.579924
0.753386
0.822391
0.827529
0.668066
0.430131
0.597714
0.608404
0.842461
0.620813
0.614526
0.841567
0.601142
0.544398
0.843477
0.787466
0.806923
0.722123
0.843983
0.494562
0.598794
0.725254
0.767588
0.813253
0.825911
0.656808
0.399553
0.410976
0.817709
0.705974
0.800146
0.37029
0.730943
0.573112
0.544429
0.703028
0.699487
0.831022
0.834135
0.815656
0.420951
0.71719
0.749845
0.791523
0.788713
0.798933
0.615608
0.807445
0.763905
0.822696
0.644128
0.175119
0.813709
0.584543
0.695327
0.746349
0.820695
0.54175
0.568415
0.671909
0.835873
0.68711
0.835004
0.265648
0.609458
0.82164
0.623847
0.705965
0.837367
0.738218
0.82735
0.688831
0.796466
0.39776
0.741598
0.494073
0.701847
0.827218
0.712401
0.722079
0.824675
0.649516
0.783949
0.811442
0.769304
0.817798
0.635263
0.797419
0.637621
0.808822
0.566807
0.740298
0.822169
0.814213
0.676534
0.794
0.798998
0.565162
0.788961
0.55068
0.794965
0.800318
0.647258
0.786769
0.803644
0.290614
0.81747
0.635321
0.210311
0.817065
0.591841
0.478908
0.68909
0.830623
0.723964
0.654862
0.834197
0.658615
0.798184
0.794748
0.817703
0.660552
0.310999
0.735157
0.666741
0.829682
0.809428
0.660761
0.79645
0.668254
0.785689
0.80746
0.733677
0.831969
0.641098
0.720035
0.831405
0.38635
0.819656
0.680209
0.807326
0.4265
0.735412
0.369586
0.714178
0.801886
0.821465
0.58582
0.754231
0.67084
0.50336
0.845968
0.590862
0.699368
0.346947
0.807614
0.744748
0.805941
0.779832
0.681039
0.718932
0.83481
0.803495
0.42045
0.742465
0.655255
0.74222
0.831979
0.81325
0.620917
0.229126
0.762661
0.575774
0.816407
0.401497
0.721138
0.806827
0.592549
0.786554
0.806266
0.621179
0.693595
0.838673
0.771711
0.461004
0.79035
0.525454
0.786984
0.793901
0.808931
0.625722
0.208347
0.759717
0.829002
0.641146
0.192934
0.81917
0.552092
0.79361
0.738788
0.791056
0.595629
0.608059
0.778149
0.785784
0.812946
0.807796
0.840106
0.46263
0.601468
0.649019
0.699441
0.834605
0.505673
0.775448
0.801832
0.515135
0.685138
0.831692
0.776404
0.769185
0.797506
0.566143
0.782801
0.804431
0.646294
0.685503
0.837658
0.656088
0.639172
0.758103
0.827969
0.62895
0.551085
0.772296
0.807739
0.485583
0.830216
0.68317
0.778615
0.817424
0.659291
0.790341
0.552934
0.799499
0.578396
0.661327
0.837246
0.76223
0.820652
0.622588
0.553585
0.5359
0.653166
0.83717
0.655678
0.839299
0.818856
0.662009
0.332123
0.591591
0.685314
0.837388
0.547768
0.810258
0.114117
0.711232
0.793188
0.793762
0.60304
0.7556
0.822241
0.823013
0.421491
0.685148
0.816208
0.57298
0.775281
0.759913
0.446074
0.796164
0.757747
0.824999
0.589144
0.73286
0.827748
0.759864
0.822096
0.405644
0.834431
0.61267
0.826354
0.576354
0.74643
0.566952
0.73059
0.826062
0.637156
0.781043
0.81512
0.62493
0.808682
0.788557
0.720037
0.752948
0.820907
0.777144
0.565351
0.806565
0.37719
0.692709
0.813297
0.756893
0.448005
0.800598
0.653665
0.838896
0.616169
0.515912
0.54214
0.633927
0.627901
0.838082
0.838861
0.812771
0.551918
0.137997
0.214985
0.822044
0.557092
0.577978
0.774663
0.805251
0.819825
0.368061
0.667968
0.613048
0.59243
0.634233
0.640799
0.841961
0.84178
0.797417
0.690925
0.287384
0.174106
0.819896
0.531973
0.747748
0.782699
0.800153
0.167336
0.563871
0.815785
0.70398
0.668197
0.834429
0.320852
0.670439
0.815391
0.56458
0.802899
0.0557644
0.761594
0.822567
0.692539
0.718293
0.796215
0.79944
0.275847
0.824572
0.597662
0.704125
0.796747
0.800074
0.756436
0.784038
0.796768
0.771677
0.552072
0.816116
0.706648
0.813022
0.784669
0.718361
0.799207
0.786845
0.676114
0.613357
0.837355
0.829457
0.827505
0.623591
0.629239
0.33783
0.330099
0.348321
0.689462
0.810078
0.843072
0.639336
0.602827
0.746227
0.826887
0.662215
0.520789
0.790508
0.783927
0.613561
0.79746
0.111654
0.802677
0.356197
0.718772
0.229751
0.817448
0.606196
0.803438
0.548651
0.0421476
0.523305
0.808102
0.0732597
0.755909
0.526893
0.810399
0.663899
0.794358
0.211312
0.474915
0.70575
0.824683
0.330286
0.8332
0.571198
0.688417
0.820067
0.758611
0.70037
0.799797
0.311171
0.533269
0.780384
0.796657
0.767245
0.501145
0.808362
0.80375
0.479949
-0.0342735
0.565823
0.807312
0.0965647
0.708729
0.819279
0.760405
0.678645
0.282079
0.801812
0.796282
0.261755
0.686506
0.374683
0.82274
0.657381
0.837967
0.618637
0.449891
0.692575
0.596802
0.840012
0.624926
0.567667
0.844033
0.839671
0.414167
0.589571
0.683808
0.667129
0.687136
0.678978
0.835552
0.836232
0.700352
0.680825
0.834129
0.627502
0.619546
0.844879
0.7604
0.472664
0.801771
0.689988
0.342756
0.813368
0.806104
0.457522
0.743687
0.527047
0.810435
0.0988939
0.750957
0.741206
0.826791
0.705307
0.826982
0.717194
0.664711
0.677426
0.838539
0.6379
0.840661
0.643022
0.582444
0.79792
0.0651318
0.679708
0.304711
0.804978
0.737371
0.826577
0.632693
0.778416
0.48455
0.790958
0.839035
0.618199
0.470567
0.597819
0.156579
0.808781
0.613497
0.173086
0.807088
0.596849
0.651414
0.842477
0.788016
0.811959
0.669013
0.346992
0.822814
0.646423
0.754318
0.502058
0.815347
0.832652
0.666127
0.460259
0.694005
0.839185
0.633877
0.606103
0.795834
0.797351
0.7569
0.825371
0.668143
0.820182
0.649589
0.321787
0.512997
0.671266
0.835291
0.762693
0.821528
0.703735
0.38225
0.838266
0.579126
0.702741
0.705703
0.832241
0.683658
0.78623
0.812884
0.769899
0.520603
0.806168
0.257215
0.827735
0.560528
0.278019
0.83047
0.557987
0.834949
0.654373
0.457451
0.591698
0.802955
0.789742
0.825738
0.545974
0.224515
0.822452
0.699303
0.444867
0.799947
0.54101
0.0152033
0.0504514
0.495801
0.809324
0.838961
0.603913
0.422439
0.814984
0.636496
0.2651
0.370696
0.398055
0.828011
0.628967
0.829512
0.640683
0.441567
0.708654
0.819072
0.793947
0.787479
0.491235
0.749446
0.816914
0.739001
0.462611
0.729703
0.816361
0.814477
0.475534
0.740748
0.437664
0.840922
0.587436
0.653515
0.624719
0.842331
0.686609
0.662802
0.833686
0.529243
0.739037
0.824194
0.514978
0.740446
0.820408
0.770847
0.813139
0.721171
0.660851
0.662682
0.840363
0.795665
0.708638
0.317839
0.163893
0.802109
0.626382
0.139398
0.798395
0.628342
0.729704
0.831557
0.677565
0.590658
0.804745
0.121825
0.485775
0.835672
0.656079
0.800907
0.598261
0.100347
0.739393
0.803965
0.779576
0.629836
0.728856
0.828296
0.807417
0.605039
0.785659
0.796502
0.670199
0.240103
0.758197
0.506297
0.811804
0.834887
0.360377
0.583939
0.59997
0.722653
0.834857
0.756198
0.816235
0.744899
0.663122
0.254229
0.804522
0.828403
0.679466
0.438962
0.250551
0.226873
0.82235
0.820466
0.584873
0.577612
0.614757
0.771844
0.817344
0.762465
0.546863
0.808091
0.692128
0.774775
0.820494
0.642022
0.196259
0.649185
0.802382
0.193108
0.79848
0.547811
0.710021
0.832945
0.247537
0.218493
0.651437
0.642562
0.807762
0.80485
0.555644
0.768397
0.818314
0.638805
0.75242
0.823496
0.308712
0.832382
0.573724
0.620941
0.761616
0.820382
0.679862
0.772257
0.815368
0.259592
0.826194
0.575717
0.597394
0.713597
0.830525
0.803478
0.525817
0.776534
0.695908
0.621692
0.837691
0.750923
0.790769
0.412082
0.804357
0.498351
-0.00610299
0.606988
0.748387
0.824921
0.332405
0.828852
0.600637
0.833913
0.585905
0.721474
0.110086
0.814974
0.515713
0.794155
0.785958
0.805697
0.671066
0.810306
0.662173
0.697859
0.783878
0.810239
0.772721
0.785019
0.815402
0.686602
0.814775
0.67726
0.624937
0.756996
0.826763
0.640419
0.763588
0.823506
0.795291
0.641345
0.158259
0.716824
0.690017
0.829716
0.272486
0.650194
0.813255
0.515511
0.489785
0.726881
0.719553
0.822231
0.820172
0.716244
0.703714
0.830192
0.631768
0.650595
0.839635
0.558376
0.729596
0.829864
0.767102
0.754809
0.804882
0.484939
0.729942
0.818495
0.75074
0.816298
0.734854
0.566782
0.75881
0.820723
0.632591
0.665757
0.838677
0.762343
0.768342
0.741824
0.81492
0.735404
0.814292
0.777307
0.80719
0.787455
0.717888
0.815361
0.688406
0.686969
0.673474
0.698067
0.708846
0.834603
0.832672
0.836178
0.633177
0.456155
0.772573
0.551064
0.808272
0.836692
0.834256
0.627266
0.640565
0.427943
0.425494
0.754326
0.825733
0.602372
0.772182
0.797369
0.770731
0.473515
0.719041
0.821012
0.741106
0.825681
0.699077
0.617407
0.668007
0.83915
0.502735
0.508531
0.630601
0.840959
0.644335
0.838416
0.521304
0.711458
0.826908
0.136172
0.5338
0.815994
0.829859
0.591776
0.732829
0.708782
0.715963
0.835402
0.600893
0.837069
0.604842
0.476449
0.752798
0.807698
0.648979
0.648337
0.840204
0.744259
0.827156
0.612877
0.718519
0.716287
0.831835
0.837503
0.635379
0.636363
0.708564
0.836766
0.617112
0.530528
0.721687
0.827572
0.763824
0.813937
0.731806
0.297476
0.824706
0.600267
0.735078
0.829843
0.603674
0.62198
0.59681
0.680862
0.673145
0.835816
0.840857
0.827339
0.609391
0.31967
0.311566
0.830768
0.5868
0.288542
0.826825
0.586785
0.483153
0.837728
0.644215
0.663698
0.660092
0.839029
0.734564
0.819352
0.846599
0.73707
0.847282
0.628083
0.839136
0.74868
0.776365
0.845858
0.845137
0.775694
0.747223
0.845555
0.832006
0.764849
0.740325
0.825676
0.823348
0.841735
0.835031
0.819345
0.845184
0.835376
0.850972
0.819334
0.850317
0.781921
0.837442
0.740415
0.787414
0.837959
0.83365
0.833798
0.798025
0.840063
0.849315
0.845609
0.753355
0.783943
0.816873
0.813831
0.802173
0.844316
0.824013
0.8286
0.830836
0.817502
0.775916
0.806367
0.848749
0.834932
0.76692
0.832381
0.784708
0.847456
0.843517
0.834636
0.819617
0.843672
0.80616
0.804026
0.850662
0.754824
0.838143
0.843546
0.836522
0.846365
0.845612
0.817515
0.789273
0.795665
0.796127
0.843066
0.792186
0.832558
0.804116
0.796721
0.838029
0.845347
0.821843
0.836837
0.772881
0.773193
0.831627
0.840409
0.831203
0.742142
0.833117
0.847869
0.773267
0.845631
0.85099
0.833517
0.754444
0.592704
0.795668
0.819465
0.753676
0.78746
0.839179
0.846095
0.825488
0.843887
0.768016
0.731753
0.777108
0.777195
0.797353
0.849388
0.846326
0.839747
0.782107
0.799458
0.786139
0.821761
0.833055
0.743688
0.782858
0.823353
0.833884
0.842235
0.839833
0.843466
0.826499
0.794602
0.779644
0.849699
0.709998
0.842354
0.788274
0.845535
0.773795
0.672011
0.728506
0.845389
0.831122
0.774338
0.793309
0.837858
0.760454
0.841035
0.799914
0.786904
0.829433
0.831143
0.770136
0.846722
0.794408
0.832279
0.774566
0.819743
0.75403
0.849454
0.844795
0.829874
0.843991
0.84044
0.846692
0.805951
0.792394
0.785368
0.826298
0.708884
0.774057
0.778069
0.828769
0.825392
0.837426
0.847831
0.835463
0.850192
0.850151
0.847571
0.768823
0.785959
0.778169
0.846507
0.777723
0.770375
0.699625
0.770494
0.827284
0.826589
0.836071
0.848917
0.844706
0.817644
0.844486
0.824102
0.817489
0.665219
0.826037
0.79743
0.787357
0.841927
0.84069
0.795216
0.817899
0.830109
0.837677
0.734683
0.795335
0.843153
0.848658
0.805596
0.774617
0.820344
0.828752
0.817794
0.810932
0.751021
0.697875
0.790662
0.797128
0.790652
0.783696
0.74269
0.845991
0.831335
0.785713
0.83224
0.770278
0.768681
0.842103
0.841971
0.764691
0.773034
0.725692
0.841966
0.79397
0.827549
0.839664
0.833136
0.779212
0.839282
0.815198
0.778814
0.78495
0.846156
0.837433
0.837249
0.847877
0.813875
0.759755
0.777056
0.831439
0.83267
0.766371
0.786424
0.836596
0.84286
0.843552
0.838221
0.77135
0.830945
0.800862
0.836526
0.816163
0.793949
0.829445
0.818541
0.692183
0.773616
0.793044
0.769616
0.801976
0.840618
0.825022
0.834485
0.842141
0.751256
0.828953
0.810771
0.831802
0.826205
0.823256
0.839258
0.778244
0.769597
0.822813
0.775272
0.774303
0.83718
0.680149
0.774738
0.84633
0.840195
0.787058
0.786387
0.787826
0.836929
0.74603
0.688983
0.759002
0.828097
0.834502
0.829629
0.629787
0.763308
0.846561
0.817044
0.732433
0.769027
0.778436
0.784967
0.773845
0.830849
0.843913
0.786455
0.779564
0.803767
0.805693
0.817569
0.724186
0.844362
0.827189
0.678081
0.782318
0.773486
0.785943
0.841642
0.827869
0.843096
0.806375
0.761326
0.820452
0.835496
0.838781
0.80818
0.84862
0.843869
0.811357
0.839067
0.830984
0.801448
0.779345
0.81843
0.745582
0.817976
0.817442
0.78763
0.761107
0.75902
0.75903
0.741636
0.846509
0.769252
0.793139
0.840906
0.832117
0.775962
0.76694
0.849961
0.820343
0.673931
0.816683
0.786765
0.778014
0.8466
0.8115
0.800516
0.834634
0.788666
0.827901
0.784585
0.837913
0.820709
0.807698
0.604214
0.767137
0.788046
0.822579
0.828224
0.830087
0.827443
0.848796
0.755366
0.786848
0.75341
0.713394
0.780014
0.844851
0.803833
0.823399
0.79453
0.82495
0.774494
0.738552
0.760113
0.783355
0.787085
0.850798
0.809044
0.813363
0.847725
0.843966
0.827484
0.850076
0.741687
0.799351
0.777883
0.833595
0.829411
0.839497
0.815783
0.82682
0.787678
0.817247
0.772984
0.720867
0.837539
0.808438
0.713567
0.764414
0.783236
0.761954
0.78818
0.821966
0.832018
0.766797
0.793625
0.779761
0.783432
0.779992
0.801503
0.740997
0.785241
0.847054
0.846502
0.844121
0.826706
0.830622
0.669631
0.843285
0.836069
0.768344
0.848498
0.653705
0.843011
0.794759
0.830149
0.808285
0.842788
0.818925
0.754598
0.839269
0.753618
0.847374
0.83207
0.787138
0.798734
0.739479
0.807501
0.847595
0.795053
0.837469
0.841969
0.778153
0.729008
0.843409
0.662686
0.827415
0.830038
0.774655
0.849825
0.707402
0.703451
0.841093
0.819429
0.843453
0.839389
0.828018
0.84015
0.849638
0.845088
0.84118
0.840168
0.775981
0.804147
0.823617
0.847056
0.803484
0.648461
0.84038
0.79185
0.830275
0.802047
0.84808
0.821313
0.80372
0.844555
0.817325
0.849416
0.762764
0.845323
0.8272
0.846723
0.837915
0.841192
0.800648
0.825963
0.764987
0.754283
0.826353
0.800789
0.823063
0.736972
0.660415
0.776977
0.806042
0.82672
0.809497
0.849446
0.804144
0.769065
0.815231
0.775764
0.846709
0.743936
0.826665
0.833221
0.84738
0.812649
0.839134
0.757114
0.830515
0.844614
0.780794
0.744985
0.829293
0.805985
0.841659
0.84485
0.804463
0.774698
0.821263
0.784258
0.76907
0.848075
0.847491
0.839473
0.744353
0.847245
0.825396
0.849443
0.783948
0.837597
0.829599
0.835066
0.828332
0.747818
0.780295
0.799445
0.642704
0.846123
0.833013
0.831023
0.845324
0.840742
0.816499
0.827994
0.824106
0.849566
0.845503
0.826128
0.82729
0.811557
0.8388
0.828113
0.795231
0.799823
0.806411
0.804837
0.833467
0.789719
0.843333
0.846683
0.780109
0.845866
0.780993
0.768163
0.786374
0.843977
0.818724
0.827318
0.833856
0.844708
0.828138
0.834878
0.844636
0.790174
0.782605
0.761929
0.770367
0.773217
0.577405
0.775711
0.78088
0.833925
0.778438
0.800791
0.832283
0.823637
0.772945
0.789883
0.80047
0.596143
0.848679
0.809166
0.833503
0.778503
0.805743
0.828143
0.746525
0.837875
0.776871
0.844328
0.805357
0.846571
0.740201
0.694917
0.798512
0.804802
0.811166
0.834989
0.698273
0.830923
0.806667
0.770957
0.74971
0.791812
0.7996
0.845791
0.741544
0.842535
0.843806
0.83063
0.783889
0.8444
0.777335
0.578042
0.828979
0.781805
0.77441
0.843753
0.84439
0.831501
0.835492
0.810246
0.845813
0.849644
0.830516
0.808049
0.840282
0.849044
0.84036
0.83176
0.828097
0.843406
0.781985
0.779969
0.8464
0.843573
0.847954
0.822139
0.809382
0.786416
0.844496
0.841585
0.544828
0.809571
0.827529
0.767524
0.833253
0.814381
0.846068
0.829443
0.83039
0.787445
0.839705
0.847098
0.827382
0.845906
0.848086
0.696299
0.768132
0.812286
0.775883
0.694673
0.782948
0.827445
0.844801
0.787123
0.817868
0.746647
0.794494
0.829286
0.832786
0.785409
0.779852
0.775595
0.820197
0.792249
0.787312
0.829113
0.835578
0.840303
0.770958
0.838627
0.795615
0.780344
0.828196
0.844694
0.831379
0.82026
0.771794
0.842694
0.78212
0.849546
0.842174
0.845998
0.842845
0.773395
0.772008
0.831968
0.775077
0.778479
0.790547
0.787395
0.771665
0.827928
0.830011
0.777826
0.8461
0.802109
0.820378
0.827629
0.841376
0.83833
0.83988
0.822869
0.780804
0.844369
0.747862
0.843421
0.775825
0.835807
0.845784
0.8446
0.841318
0.845469
0.829918
0.768812
0.78384
0.827806
0.792834
0.849414
0.768624
0.741585
0.816834
0.812575
0.801342
0.780181
0.824132
0.842899
0.837539
0.662533
0.797178
0.726606
0.750459
0.828116
0.815846
0.830074
0.823313
0.846558
0.772184
0.848154
0.831395
0.739366
0.840728
0.805663
0.844434
0.829321
0.8266
0.767974
0.788245
0.830398
0.841675
0.796254
0.822055
0.829663
0.840078
0.823523
0.821098
0.796578
0.830115
0.776189
0.769329
0.718716
0.833836
0.777915
0.788733
0.774118
0.790131
0.848831
0.815609
0.830763
0.846758
0.829271
0.732367
0.826936
0.757167
0.810647
0.837163
0.793555
0.780203
0.806856
0.831719
0.756277
0.794838
0.719589
0.77989
0.83611
0.72619
0.788263
0.842349
0.774166
0.776836
0.829846
0.843815
0.811624
0.760618
0.832535
0.788126
0.792971
0.829977
0.807007
0.831763
0.837746
0.850465
0.802425
0.844626
0.836754
0.842375
0.846759
0.840513
0.737093
0.789303
0.818544
0.77037
0.846884
0.847034
0.842402
0.835481
0.77196
0.777232
0.820969
0.846789
0.755633
0.841485
0.839032
0.842824
0.76595
0.763649
0.770806
0.735313
0.834574
0.755284
0.839514
0.789806
0.840445
0.770722
0.831609
0.778194
0.82733
0.83751
0.834159
0.815997
0.839209
0.846862
0.84995
0.837324
0.808648
0.844146
0.838598
0.792851
0.802371
0.829625
0.788203
0.848843
0.813881
0.837624
0.84388
0.845638
0.794404
0.71676
0.849374
0.805935
0.810557
0.824341
0.837178
0.844448
0.845207
0.80608
0.834135
0.773831
0.796573
0.831831
0.842026
0.826914
0.836149
0.818001
0.850552
0.822272
0.791646
0.846791
0.833689
0.765592
0.796511
0.848995
0.821096
0.777039
0.794868
0.850519
0.812522
0.829909
0.845367
0.847164
0.843052
0.836021
0.778738
0.841168
0.797724
0.814534
0.847203
0.833567
0.771702
0.75829
0.81424
0.839008
0.786003
0.764932
0.8412
0.815092
0.825478
0.841713
0.773868
0.77508
0.807545
0.839022
0.848539
0.833533
0.831743
0.727744
0.832819
0.800362
0.82216
0.846864
0.848376
0.764817
0.773248
0.824502
0.843534
0.848527
0.845111
0.841561
0.799705
0.80081
0.773553
0.777364
0.843744
0.836381
0.694333
0.777714
0.843403
0.82663
0.765818
0.777346
0.834862
0.800907
0.834108
0.839973
0.826701
0.845787
0.84261
0.829699
0.84131
0.810499
0.804633
0.81903
0.836725
0.804652
0.841741
0.697696
0.826243
0.68249
0.816561
0.846609
0.833793
0.846202
0.844644
0.847112
0.795437
0.813554
0.83116
0.737407
0.845815
0.825765
0.789121
0.840016
0.635063
0.778451
0.826885
0.84184
0.849555
0.776207
0.774047
0.829792
0.839725
0.705759
0.792527
0.807099
0.708848
0.758038
0.82691
0.760541
0.832064
0.777256
0.831768
0.840502
0.639179
0.820991
0.825429
0.795502
0.771221
0.828181
0.795171
0.810385
0.778533
0.822671
0.814407
0.801997
0.829565
0.847108
0.79482
0.769391
0.805553
0.775868
0.783541
0.828826
0.731825
0.797773
0.795549
0.824493
0.836794
0.820032
0.823302
0.692184
0.831605
0.83165
0.802019
0.842219
0.815609
0.822386
0.71162
0.695908
0.837278
0.772453
0.825347
0.8422
0.796019
0.834277
0.691562
0.839164
0.808119
0.845467
0.807871
0.81123
0.827272
0.780326
0.800148
0.806328
0.850089
0.776241
0.765358
0.825254
0.850172
0.844661
0.724332
0.809441
0.807611
0.8244
0.803102
0.848929
0.845519
0.844082
0.842578
0.838601
0.788574
0.77191
0.845408
0.790842
0.813743
0.726299
0.761499
0.781439
0.767519
0.836412
0.700867
0.842386
0.793747
0.839675
0.82102
0.833477
0.845328
0.807456
0.841751
0.846477
0.843901
0.829804
0.845676
0.794781
0.83216
0.768308
0.794356
0.849821
0.702259
0.836544
0.84102
0.828314
0.821242
0.816177
0.834263
0.834832
0.831166
0.778252
0.777021
0.83353
0.829097
0.72577
0.842985
0.765954
0.831239
0.772965
0.816495
0.831374
0.845106
0.846748
0.77838
0.836189
0.828772
0.822366
0.846852
0.73724
0.757905
0.849568
0.774219
0.796277
0.846321
0.84585
0.834745
0.763246
0.785341
0.787278
0.782674
0.739677
0.82793
0.806077
0.821747
0.787701
0.830979
0.812005
0.792123
0.738212
0.825638
0.82109
0.785388
0.84578
0.845335
0.752482
0.836375
0.692354
0.793283
0.720336
0.788762
0.841381
0.824081
0.828095
0.816203
0.83379
0.843938
0.83718
0.831926
0.743256
0.813989
0.800247
0.827308
0.766112
0.847606
0.810864
0.786139
0.84635
0.842767
0.77151
0.838441
0.77409
0.838833
0.837706
0.840384
0.733285
0.836452
0.822593
0.838564
0.826975
0.784791
0.771529
0.786558
0.844949
0.847074
0.845785
0.809371
0.826318
0.844217
0.816048
0.834296
0.788975
0.793449
0.831871
0.846659
0.78004
0.848194
0.832534
0.850221
0.846182
0.845071
0.829535
0.813589
0.846915
0.672556
0.842113
0.716974
0.843712
0.847096
0.832553
0.807676
0.797007
0.832925
0.717826
0.742334
0.80012
0.752775
0.846791
0.77587
0.774562
0.736112
0.769546
0.828869
0.843493
0.848118
0.775266
0.80993
0.832879
0.838583
0.806155
0.801531
0.845138
0.846037
0.830954
0.845215
0.845614
0.843785
0.773589
0.822688
0.750238
0.837171
0.846842
0.84698
0.823597
0.833835
0.811381
0.771782
0.806537
0.77474
0.784193
0.780269
0.848966
0.825042
0.825326
0.849149
0.845816
0.83584
0.836335
0.791459
0.833889
0.830395
0.845353
0.805298
0.771103
0.834017
0.834578
0.843613
0.848897
0.847881
0.765057
0.762379
0.769833
0.83547
0.846997
0.723573
0.788853
0.8475
0.781682
0.811869
0.773765
0.827639
0.839173
0.828018
0.836558
0.787362
0.831205
0.831815
0.843951
0.813084
0.789542
0.840168
0.834546
0.817936
0.846829
0.851913
0.723677
0.846163
0.781451
0.801813
0.850506
0.848015
0.82715
0.845882
0.782068
0.844465
0.79471
0.77344
0.844811
0.806665
0.842203
0.822269
0.837581
0.831592
0.839784
0.78885
0.843903
0.768159
0.845479
0.823
0.829698
0.804092
0.764482
0.772439
0.844719
0.790918
0.817615
0.762595
0.801635
0.843482
0.844329
0.835778
0.84217
0.835629
0.788034
0.809115
0.833512
0.768663
0.793609
0.836397
0.824021
0.810896
0.786684
0.72388
0.773057
0.844359
0.804954
0.84504
0.77339
0.848314
0.832424
0.847129
0.846516
0.808226
0.845892
0.774808
0.836529
0.78705
0.835111
0.756386
0.81044
0.790292
0.770064
0.810093
0.777074
0.771511
0.780664
0.847446
0.850522
0.813547
0.762885
0.845704
0.777053
0.7303
0.824563
0.843195
0.835946
0.779301
0.78092
0.849508
0.757801
0.83337
0.758991
0.784834
0.806199
0.759915
0.848306
0.824391
0.791411
0.848083
0.849203
0.78758
0.838884
0.823682
0.849177
0.82641
0.798316
0.77761
0.842184
0.849014
0.841378
0.750044
0.777065
0.795723
0.823636
0.836593
0.845037
0.75665
0.834079
0.779536
0.837777
0.839789
0.83263
0.802265
0.839155
0.727588
0.824875
0.758743
0.820923
0.747229
0.771665
0.831683
0.84743
0.787223
0.794068
0.836669
0.803529
0.718093
0.770989
0.784535
0.822104
0.66721
0.825153
0.818376
0.838909
0.818057
0.838756
0.838503
0.704879
0.701268
0.84875
0.823489
0.719802
0.798545
0.833225
0.84512
0.838032
0.750484
0.818938
0.756789
0.837048
0.846391
0.844165
0.814754
0.84465
0.781191
0.830298
0.849388
0.777571
0.790381
0.844823
0.845924
0.781184
0.776282
0.741262
0.704113
0.743611
0.846402
0.792725
0.773411
0.745671
0.763944
0.838596
0.761098
0.785189
0.765158
0.840083
0.800029
0.837933
0.790982
0.813904
0.815053
0.826911
0.832564
0.841138
0.767065
0.835939
0.815218
0.816846
0.838496
0.798653
0.845594
0.84044
0.795782
0.838629
0.775419
0.797391
0.826729
0.840313
0.780596
0.823541
0.821102
0.829057
0.831148
0.84641
0.748366
0.781646
0.765152
0.76947
0.848993
0.79267
0.83676
0.850055
0.811505
0.708177
0.768662
0.815286
0.760994
0.829084
0.770579
0.792559
0.791815
0.84512
0.84346
0.821675
0.75883
0.803618
0.776854
0.815004
0.844759
0.836991
0.802065
0.825382
0.804726
0.835189
0.841544
0.8455
0.833904
0.848528
0.837132
0.808423
0.788155
0.774304
0.772038
0.835219
0.827666
0.783756
0.839839
0.791006
0.847854
0.840896
0.77449
0.751834
0.796631
0.818213
0.845597
0.829149
0.843234
0.826791
0.846052
0.839461
0.826272
0.788725
0.827741
0.824482
0.779622
0.800229
0.840239
0.715522
0.632668
0.837161
0.830531
0.846264
0.812747
0.778845
0.765041
0.797919
0.753499
0.80458
0.834499
0.781725
0.844775
0.812871
0.766027
0.809753
0.789224
0.762268
0.844995
0.82934
0.83506
0.763056
0.820022
0.826736
0.763788
0.797214
0.798824
0.793416
0.76814
0.7092
0.848102
0.841075
0.847029
0.839958
0.844665
0.785249
0.832184
0.815107
0.813878
0.741749
0.838263
0.825352
0.807277
0.846407
0.846104
0.840421
0.83878
0.834338
0.836103
0.776708
0.831267
0.838278
0.842505
0.81229
0.781516
0.837359
0.790955
0.79238
0.842556
0.801453
0.849053
0.786748
0.84964
0.834735
0.832027
0.787736
0.841596
0.775248
0.790653
0.800885
0.782241
0.790086
0.789956
0.789879
0.828371
0.759631
0.76465
0.819866
0.837331
0.824251
0.798244
0.839597
0.837105
0.79477
0.843023
0.844542
0.846501
0.762923
0.794487
0.818307
0.774545
0.820714
0.732295
0.830412
0.735995
0.845458
0.820262
0.82988
0.785032
0.774526
0.795876
0.827569
0.792635
0.8351
0.838706
0.832979
0.841527
0.831919
0.822192
0.784312
0.847549
0.825435
0.826804
0.843569
0.781273
0.783551
0.781799
0.84434
0.845682
0.825628
0.818388
0.792444
0.820071
0.754396
0.812067
0.768079
0.844045
0.790959
0.813134
0.829086
0.831627
0.767983
0.811911
0.817926
0.829554
0.824722
0.839994
0.825523
0.798019
0.836366
0.845767
0.824351
0.774283
0.831014
0.774773
0.821855
0.746182
0.778618
0.827056
0.723527
0.770703
0.842144
0.845375
0.771395
0.821895
0.781444
0.738835
0.778981
0.769154
0.77978
0.780792
0.781411
0.842013
0.848496
0.813177
0.844069
0.813921
0.838099
0.82631
0.848197
0.840889
0.7917
0.833183
0.845779
0.831523
0.833141
0.745795
0.846128
0.810602
0.641092
0.835548
0.844588
0.849809
0.843484
0.835554
0.831953
0.796324
0.827765
0.819293
0.823993
0.651437
0.800468
0.742462
0.826306
0.830675
0.759991
0.771999
0.792428
0.782084
0.768429
0.829116
0.81957
0.831881
0.843791
0.782701
0.848272
0.768125
0.81336
0.843933
0.819414
0.822592
0.824536
0.658243
0.784357
0.832278
0.846433
0.783778
0.796342
0.828793
0.842726
0.770641
0.84937
0.788374
0.830181
0.829667
0.811212
0.828386
0.843945
0.847238
0.749756
0.833805
0.83677
0.840383
0.761318
0.821697
0.803533
0.769456
0.785198
0.795026
0.832996
0.831022
0.840417
0.815166
0.755203
0.825451
0.782882
0.78288
0.821199
0.818331
0.76236
0.849575
0.785118
0.789842
0.782933
0.831306
0.765458
0.729526
0.834186
0.807848
0.835374
0.785011
0.744844
0.833484
0.707017
0.842865
0.834966
0.779697
0.769659
0.849946
0.780961
0.768354
0.772977
0.748425
0.79728
0.837822
0.844303
0.767756
0.793522
0.842971
0.820309
0.787852
0.782857
0.81175
0.845208
0.845827
0.781894
0.772376
0.839564
0.84968
0.830829
0.827322
0.827301
0.749593
0.828367
0.841509
0.832977
0.755224
0.844666
0.82807
0.771127
0.838452
0.773109
0.847379
0.829673
0.762897
0.82677
0.822945
0.823607
0.776273
0.833536
0.797387
0.841212
0.839827
0.843542
0.777568
0.792045
0.84334
0.836786
0.803135
0.837955
0.829085
0.782715
0.835125
0.831935
0.781389
0.692307
0.775338
0.803186
0.787931
0.77889
0.789448
0.800281
0.836855
0.765892
0.77509
0.82731
0.7684
0.846533
0.781768
0.830816
0.828782
0.771715
0.831237
0.811074
0.840589
0.834828
0.844069
0.785882
0.780729
0.848549
0.753023
0.84686
0.840433
0.828831
0.794502
0.846957
0.821472
0.777469
0.849867
0.750741
0.832383
0.84616
0.758224
0.851094
0.776704
0.827161
0.675441
0.826555
0.771216
0.832049
0.799468
0.774026
0.802277
0.768255
0.784718
0.846732
0.769771
0.819377
0.832525
0.822108
0.834912
0.838444
0.82829
0.75305
0.848328
0.825588
0.843922
0.788407
0.828997
0.83695
0.80948
0.846389
0.830261
0.833215
0.782011
0.817234
0.731433
0.770059
0.846662
0.598374
0.839019
0.839758
0.793901
0.782108
0.804572
0.844348
0.82017
0.841416
0.82728
0.830856
0.834704
0.848745
0.844363
0.767707
0.829824
0.842622
0.832888
0.837023
0.810186
0.784229
0.776867
0.811379
0.832314
0.810856
0.850836
0.773467
0.789487
0.819778
0.801885
0.83169
0.841836
0.781947
0.795132
0.795727
0.808924
0.779695
0.8446
0.758053
0.807185
0.827724
0.808113
0.76315
0.758492
0.837382
0.757448
0.767906
0.845335
0.830983
0.796019
0.768426
0.772056
0.793277
0.845091
0.845711
0.799626
0.832222
0.832787
0.849005
0.843058
0.789367
0.846008
0.800275
0.82765
0.840891
0.845266
0.833933
0.846055
0.843765
0.755246
0.738096
0.81883
0.793547
0.804994
0.6899
0.698245
0.843485
0.845625
0.779584
0.846923
0.832252
0.843742
0.826298
0.776331
0.847317
0.845168
0.832409
0.754756
0.775157
0.832973
0.838258
0.821219
0.771218
0.804274
0.837295
0.846389
0.836711
0.811964
0.79983
0.841545
0.810546
0.803663
0.836378
0.811709
0.838096
0.686428
0.847139
0.822428
0.831772
0.846118
0.771431
0.779429
0.789632
0.777861
0.847896
0.778979
0.824956
0.690162
0.792496
0.809531
0.782201
0.770352
0.818092
0.764867
0.778856
0.822555
0.815422
0.843999
0.783344
0.832825
0.846789
0.796524
0.836956
0.83404
0.842741
0.830358
0.794166
0.842969
0.77034
0.776423
0.838728
0.845326
0.845392
0.831502
0.74213
0.834584
0.829998
0.807734
0.844715
0.832394
0.841753
0.842508
0.774717
0.777207
0.834157
0.768564
0.833538
0.832604
0.766579
0.847122
0.828356
0.841519
0.824208
0.831211
0.763832
0.807811
0.83421
0.785241
0.833897
0.839245
0.799937
0.831439
0.816916
0.82897
0.837345
0.831546
0.766924
0.844136
0.74573
0.681285
0.800488
0.840029
0.777364
0.847193
0.791933
0.743017
0.82921
0.837489
0.842906
0.648155
0.834016
0.834955
0.84604
0.807371
0.84908
0.83715
0.776488
0.831742
0.814324
0.81577
0.774063
0.835536
0.830912
0.777542
0.774216
0.833543
0.817671
0.773493
0.824293
0.845985
0.770111
0.846372
0.783676
0.738122
0.754694
0.832092
0.822503
0.776785
0.745102
0.771444
0.831952
0.829544
0.844825
0.802937
0.846318
0.759422
0.832138
0.776758
0.778756
0.775635
0.834851
0.826986
0.779898
0.786062
0.847223
0.808479
0.841788
0.842037
0.796667
0.8236
0.83153
0.806696
0.844378
0.831851
0.833432
0.808085
0.777299
0.82757
0.802295
0.850474
0.810466
0.789649
0.735835
0.785115
0.831798
0.842817
0.822655
0.841398
0.825157
0.792121
0.804195
0.755381
0.797256
0.788973
0.844289
0.767283
0.783797
0.776591
0.840218
0.824008
0.778869
0.769866
0.752179
0.843466
0.804786
0.787653
0.774033