/*--------------------------------*- C++ -*----------------------------------*\
  =========                 |
  \\      /  F ield         | OpenFOAM: The Open Source CFD Toolbox
   \\    /   O peration     | Website:  https://openfoam.org
    \\  /    A nd           | Version:  6
     \\/     M anipulation  |
\*---------------------------------------------------------------------------*/
FoamFile
{
    version     2.0;
    format      ascii;
    class       volScalarField;
    location    "0";
    object      p;
}
// * * * * * * * * * * * * * * * * * * * * * * * * * * * * * * * * * * * * * //

dimensions      [0 2 -2 0 0 0 0];

internalField   nonuniform List<scalar> 
918
(
1.50171
0.436927
0.257657
1.57361
0.0107006
0.142426
-0.50621
1.00826
1.62524
0.147007
0.168982
1.21979
-0.239769
-0.0319518
-0.465865
0.079163
1.22573
-0.556073
1.1976
0.102142
-0.603178
1.57075
1.41822
1.19297
1.22659
-0.260039
0.0756683
-0.0900357
-0.136725
-0.100122
0.0180484
0.151682
0.0604765
-0.113091
0.0591321
0.235892
1.20779
0.786616
-0.294037
-0.3218
-0.390718
-0.618813
1.05042
1.08255
0.345751
0.958151
0.885351
1.21787
1.56161
1.63304
1.43696
1.55106
1.6509
0.461781
0.0974933
0.0168537
0.177362
0.138421
0.16757
0.167754
0.162642
0.201898
0.188195
1.12749
1.20854
1.21211
1.2341
1.21669
0.395848
0.412524
0.585511
-0.379765
0.0139107
-0.221811
0.0261026
-0.0608189
-0.0217981
-0.0289812
-0.0965597
-0.565822
-1.01937
-0.150596
-0.104486
-0.0120585
0.0852065
0.109984
1.22485
1.2331
1.20286
1.20611
0.86049
-0.455898
-0.678345
1.25691
1.25459
1.59297
1.468
1.30953
1.18481
0.0915629
0.0949659
0.0467172
0.134795
0.108017
-0.0533574
0.236254
1.14457
1.20847
1.20779
1.22574
1.22025
0.931101
1.2874
1.25802
-0.0991279
0.0888489
-0.219401
-0.0502511
0.0771839
0.0823705
0.145135
0.14134
-0.140614
-0.0158438
0.109631
0.0497309
0.0960145
1.20719
1.19182
1.22712
1.2135
1.22412
0.663411
0.573691
0.854784
0.893686
-0.0811805
-0.0846033
-0.548508
-0.524815
-0.687132
1.05677
1.11207
1.14105
0.144304
0.338239
0.136542
0.466495
0.460648
1.22207
1.20906
1.21027
1.22066
1.23843
1.23675
1.57856
1.55205
1.67202
0.437768
0.510104
0.476649
0.403765
-0.2249
-0.129467
-0.233558
0.11626
0.167909
0.1689
0.224283
0.220944
0.173062
0.156634
0.169757
0.157946
0.150845
0.120584
1.13483
1.10812
1.12691
1.14629
1.21797
1.20897
1.22334
1.22371
0.171445
0.242043
0.151212
0.059657
-1.54232
-3.20694
-0.0393873
-0.0387309
-0.000778541
-0.0357658
-0.0136236
-0.173429
-0.0423859
-0.0775727
0.16784
0.12359
0.118675
0.141402
1.24381
1.27097
0.87994
0.918032
0.763434
0.772007
1.25059
1.27107
1.25995
1.2656
0.113788
0.107403
0.126046
0.805335
0.526293
0.661675
0.897973
0.78602
0.974334
1.02638
1.26438
1.25928
1.27797
-0.0807175
0.00518613
0.40494
-0.198981
0.323972
-0.155307
-0.215908
-0.0260179
-0.323826
1.15778
1.18747
1.18255
1.22224
1.23722
1.23717
1.22613
1.21467
1.21985
0.410647
0.200439
1.00723
0.962853
0.898318
0.959664
1.06367
1.05214
1.18933
1.14396
1.1692
0.61381
0.579997
0.335139
0.31258
1.06474
1.07668
1.06769
0.0947472
-0.0102797
0.0823786
0.0740167
0.0358283
0.123757
0.152745
-0.767513
-0.283748
0.000986025
-0.00273775
0.00791013
0.111081
0.219909
0.162919
0.890901
0.939792
0.544712
0.703325
0.655679
-0.314282
-0.123511
0.0349094
-0.156142
-0.0443864
0.0210136
-0.0611616
1.00813
0.998929
1.04313
0.992633
1.03234
0.740752
0.663532
0.643089
0.269054
0.275821
0.266046
0.92304
0.984756
0.973517
1.16308
1.15191
-0.126039
-0.0133192
1.38874
1.43836
-0.138245
-0.0327815
0.0648368
0.0943503
0.696732
1.25711
1.18093
1.31285
0.0485438
0.28072
0.0945927
0.0355309
-0.0325881
1.1642
1.08308
1.04072
-0.0955467
0.031056
0.0107546
-0.195117
1.28113
1.2535
1.28534
1.2992
1.3259
0.0314838
-0.0190368
0.0691336
-0.026771
0.113117
0.140728
1.21866
1.18639
-0.0813337
1.27413
1.3238
1.31234
1.32133
1.33335
1.29958
0.00334254
0.0769956
0.102196
0.832666
0.938774
-0.0592735
-0.308804
0.145064
0.0358628
-0.0596933
0.046796
-0.0218698
0.0836001
-0.0912279
1.09568
0.982156
0.809177
0.583628
0.78217
0.768705
1.26504
1.29647
1.23539
1.26902
1.31111
1.18489
1.34546
1.26235
1.24999
1.35275
0.109511
0.219239
0.19826
0.0184735
0.458533
0.547429
0.345297
0.444457
0.198475
0.061067
0.17868
0.0784724
0.135077
0.0297637
0.233716
0.11991
0.27946
0.0875696
0.248347
0.0101908
0.360171
0.0983453
1.14221
1.19504
1.16733
1.24336
1.1469
1.19212
1.14607
1.13133
1.17994
1.0685
1.0888
1.10648
0.0453783
0.0918943
0.0930089
0.0521214
0.11595
0.00503106
0.0467986
0.0180794
0.0307655
-0.0433107
0.00943402
0.0550967
-0.0629521
-0.269797
0.7952
0.675807
0.153735
1.20158
1.30475
1.24637
1.32533
1.34315
1.39908
1.32548
1.2814
1.20808
1.24553
1.20611
1.24201
0.00892196
-0.0485563
0.145395
0.146292
0.740131
1.23592
1.02978
0.97705
0.976835
1.08701
0.752359
0.408873
-0.700356
-1.07198
0.0694804
-0.0788266
-0.0395457
0.218771
0.33626
-0.0163619
-0.0277917
0.116134
0.0406826
0.0847354
0.445942
1.08711
0.385002
0.385174
0.704901
0.61188
0.349191
1.12016
1.13735
0.943546
0.864847
1.06343
1.02968
1.04013
1.05781
1.06441
1.09142
0.895218
0.897475
0.828056
1.17111
1.09785
1.11223
0.987643
1.29581
1.31056
1.26416
1.23658
1.33092
1.24459
1.23397
1.17942
1.18294
1.27148
1.25431
1.19856
0.22703
0.168199
0.23372
-0.0382382
0.165928
0.021309
0.188413
0.299166
0.106064
0.219825
0.495965
0.296893
0.0840359
0.277655
0.0975954
0.44233
0.288084
0.328801
0.258441
0.306592
0.32417
0.360351
0.327622
0.117319
0.129535
0.269946
0.104127
0.226376
0.220003
0.324933
0.197234
0.325499
0.222979
0.152054
0.102941
0.318798
0.179835
0.124548
0.0934295
0.0592041
-0.0942647
-0.0485418
0.394063
0.178024
1.25126
1.20662
1.21367
1.2164
1.27925
1.24527
1.15208
1.21852
1.30805
1.23349
1.16108
1.12623
1.08575
1.15215
1.15789
1.15174
1.26261
1.23765
1.17769
1.21536
1.13001
1.15527
1.05558
1.11623
1.17639
-0.118402
0.128641
0.0156824
0.00489861
0.0636831
0.15192
0.281823
0.118182
0.289417
0.210317
0.156445
0.129454
0.178003
0.131148
0.235857
0.0739043
-0.12622
-0.212404
0.826239
0.881735
0.784557
0.661438
0.733943
0.79509
0.874488
0.650602
0.616088
0.716242
0.938774
0.903903
1.27854
1.21718
1.26545
1.33126
1.27739
0.290655
0.510703
0.567684
0.794014
0.772011
0.826806
0.612828
0.632809
0.679269
0.762531
1.20217
1.22008
1.22281
1.26024
1.25702
1.01508
1.11447
1.1097
1.18151
1.14037
1.15038
1.20078
1.16128
1.0966
1.13014
1.13405
1.12474
1.14007
1.0966
1.1318
1.17234
1.14745
1.13297
1.15997
1.25261
1.14598
1.21613
1.29574
1.22597
1.10307
1.10036
1.13968
1.14097
1.13727
1.12927
1.09808
0.657539
0.74285
0.634467
0.658823
0.686886
0.549723
0.517392
0.620295
0.615486
0.418869
0.340577
-0.018447
0.997104
0.650665
0.417579
-0.11436
0.821619
0.928716
0.88361
0.648395
0.653781
1.14623
1.16378
1.18349
1.06084
1.00827
1.01336
0.98426
1.12033
0.956665
0.844835
0.955534
0.803935
0.869511
0.980131
0.929245
0.915482
0.957769
1.00363
0.942906
0.916788
1.01452
0.974178
1.02002
1.07043
1.108
1.16712
1.07848
0.946823
1.07026
1.01046
1.06994
1.11976
1.09618
1.26641
1.22153
1.24345
1.23496
1.19807
1.23502
1.16852
1.26652
1.27883
1.30484
1.29474
0.0709667
0.123252
0.230492
0.112476
0.145936
0.131072
0.204557
0.203879
0.306993
0.272232
0.127578
0.189395
0.325148
0.182541
0.311792
0.31921
0.217486
0.14685
0.541498
0.618327
0.541123
0.536648
0.541245
0.485804
0.587728
0.151081
0.333154
0.217605
0.167658
0.15849
0.14643
0.313942
0.144584
0.242395
0.122205
-0.15279
0.149999
0.255579
0.00144347
0.10574
0.146573
1.19227
1.21703
1.17677
1.14873
1.15318
1.14529
1.20835
1.26834
1.25874
1.25139
1.27121
1.22452
1.23463
0.113981
0.35568
0.412494
0.233785
0.199369
0.0441595
-0.0108152
0.660319
0.385281
0.399634
0.268695
0.117269
0.216212
0.85319
0.931503
0.948851
0.964605
0.907498
0.795929
0.906041
1.02697
0.815889
0.834369
0.789577
0.853422
0.849193
0.911259
0.820062
0.616158
0.877555
1.06231
0.536127
0.646813
0.705873
0.798926
0.789985
0.777362
0.919237
0.780536
0.682589
0.622266
0.642688
0.844076
0.794967
0.885787
0.902669
0.557077
0.609203
0.592423
1.1606
1.18413
1.21459
1.19246
1.205
1.19247
1.18671
1.22958
1.28
1.27177
0.0630626
0.186373
-0.261127
0.368067
0.593115
1.15439
0.893827
1.31201
1.19868
0.939523
1.01699
1.06386
1.03486
1.09147
1.07061
0.935934
1.00607
0.935697
0.9736
0.870533
0.8295
1.12501
1.09644
1.12726
1.13976
1.08967
1.13978
1.09947
1.19738
1.15617
1.21959
1.27044
1.30556
0.285385
0.144958
0.253003
0.272428
0.279726
0.173074
0.0224055
0.0493798
0.4166
0.320071
0.174407
0.291477
0.56249
0.543592
0.3557
0.489099
0.409584
0.176502
0.25657
0.259022
0.399161
0.494577
0.781269
0.790716
0.805226
0.866699
0.718162
0.892551
0.942649
0.916851
0.950803
0.82707
0.850528
0.833294
0.350679
0.617783
1.31902
1.49809
1.21311
1.08304
0.773611
0.906448
1.12946
1.03817
1.02303
1.10925
1.03896
0.66434
0.718438
0.738504
0.735043
0.776289
0.721584
0.690906
0.778112
0.791231
)
;

boundaryField
{
    wall-4
    {
        type            zeroGradient;
    }
    velocity-inlet-5
    {
        type            zeroGradient;
    }
    velocity-inlet-6
    {
        type            zeroGradient;
    }
    pressure-outlet-7
    {
        type            fixedValue;
        value           uniform 0;
    }
    wall-8
    {
        type            zeroGradient;
    }
    frontAndBackPlanes
    {
        type            empty;
    }
}

