/*--------------------------------*- C++ -*----------------------------------*\
  =========                 |
  \\      /  F ield         | OpenFOAM: The Open Source CFD Toolbox
   \\    /   O peration     | Website:  https://openfoam.org
    \\  /    A nd           | Version:  6
     \\/     M anipulation  |
\*---------------------------------------------------------------------------*/
FoamFile
{
    version     2.0;
    format      ascii;
    class       volVectorField;
    location    "0";
    object      U;
}
// * * * * * * * * * * * * * * * * * * * * * * * * * * * * * * * * * * * * * //

dimensions      [0 1 -1 0 0 0 0];

internalField   nonuniform List<vector> 
918
(
(0.987796 -0.00040708 0)
(-0.00389911 2.96732 0)
(0.000508983 1.71129 0)
(0.977187 0.00562794 0)
(-0.0125264 1.67798 5.18107e-22)
(0.0013253 2.95114 -1.60945e-18)
(1.02791 1.33714 3.93784e-19)
(0.543686 0.290646 -6.00942e-21)
(0.99982 -0.00235551 0)
(0.0269025 1.611 0)
(0.00687983 1.64379 0)
(0.896205 0.0120455 0)
(0.00856135 2.93571 0)
(-0.00131548 2.80429 0)
(-0.0058138 3.24231 7.52293e-19)
(0.0155319 1.63209 -1.82887e-20)
(0.684009 0.13665 3.63225e-19)
(0.264185 1.90773 3.96674e-19)
(0.988431 0.0308096 0)
(-0.003046 1.6522 0)
(0.243818 0.322762 -4.09175e-19)
(0.994208 2.18172e-05 0)
(0.997128 -0.00493511 0)
(0.962101 0.0109456 0)
(0.850062 -0.0131976 0)
(-0.000395812 2.63977 0)
(-0.0105973 2.91368 5.62181e-19)
(0.00145309 1.72344 0)
(-0.00182565 1.76572 0)
(-0.00142378 1.73465 0)
(0.00115344 1.78896 0)
(0.00554926 1.69351 -4.06104e-22)
(-0.0182847 1.63223 0)
(-0.0197633 2.98957 -5.72921e-23)
(-0.013739 3.00788 1.2673e-18)
(0.00152917 2.99971 0)
(0.940999 0.0117433 0)
(0.148533 0.304595 -1.90977e-19)
(0.938296 1.40646 -4.57586e-19)
(1.0824 1.13589 5.1214e-19)
(0.819794 1.616 -9.02889e-20)
(0.939927 1.55659 5.40697e-19)
(0.592476 0.347627 5.86142e-21)
(0.5842 0.266679 0)
(1.21059 0.541079 0)
(0.562887 0.351483 2.81961e-20)
(0.526988 0.292214 -2.92649e-20)
(0.931331 0.00382762 0)
(0.998825 -0.00159816 0)
(0.999951 1.36345e-05 0)
(0.989481 -0.00809903 0)
(1.00044 -0.00335757 0)
(1.00081 -0.000876455 0)
(0.0399929 1.59349 -3.42323e-19)
(0.0252301 1.71688 0)
(0.103245 1.64742 0)
(-0.0150402 1.69856 0)
(-0.0106541 1.60513 0)
(-0.00237612 1.6406 0)
(-0.00488325 1.70147 0)
(-0.0143581 1.63252 0)
(0.00292609 1.70853 0)
(0.0125516 1.63151 0)
(0.966942 0.0145856 0)
(0.945807 0.0107806 0)
(0.913886 0.00383699 0)
(0.931056 0.0280632 0)
(0.877723 0.0237413 0)
(0.0136982 3.00351 5.8503e-19)
(0.0114309 3.00435 0)
(0.00731438 3.00372 0)
(0.0103851 2.99776 6.59442e-24)
(0.00602464 2.96238 -8.80299e-19)
(0.0112014 2.9858 0)
(0.00877959 2.90968 0)
(0.0215139 2.93294 1.27181e-24)
(0.00361341 2.83001 0)
(0.0320619 2.92023 0)
(-0.00858723 2.74976 0)
(0.321776 3.64671 0)
(-0.122268 3.7426 0)
(0.157086 3.32328 -6.97185e-19)
(0.0134479 3.04313 0)
(-0.00488654 1.75982 0)
(0.00714459 1.70256 1.80389e-20)
(0.00627562 1.64831 -1.30866e-20)
(0.717407 0.172827 -1.25123e-19)
(0.688521 0.102803 -1.21855e-19)
(0.724574 0.198747 -3.76931e-19)
(0.669225 0.168131 -2.53667e-19)
(0.225345 1.34414 0)
(0.342123 1.97236 -4.26745e-19)
(0.496035 1.9347 7.19199e-19)
(0.993902 0.0267008 0)
(0.943955 0.0448426 0)
(1.00022 8.40501e-05 0)
(0.998208 0.0105758 0)
(1.01325 0.0274038 -6.09012e-19)
(0.984381 0.00817978 4.68418e-19)
(-0.00654092 1.70044 0)
(-0.0034325 1.64266 0)
(0.0048608 1.74082 0)
(-0.00929235 1.71644 0)
(0.0130892 1.65731 0)
(0.317791 0.354032 1.2351e-19)
(0.380105 0.319777 0)
(0.995493 0.00452834 0)
(0.981107 0.006393 0)
(0.90668 0.00629299 0)
(0.903369 0.00391446 0)
(0.8878 -0.00808473 0)
(1.08698 0.00614212 0)
(0.862443 0.056315 0)
(0.758424 0.058543 4.6987e-19)
(-0.0396732 2.87745 3.8021e-19)
(0.0401048 2.90887 0)
(0.0422942 2.88386 0)
(-0.0168587 2.70155 0)
(-0.00723678 2.98723 5.29714e-19)
(-0.0145376 2.89974 0)
(-0.00999671 2.99248 -1.64849e-18)
(-0.00829778 2.93219 5.62701e-19)
(0.0027016 1.77659 0)
(3.62628e-05 1.76704 0)
(0.0113214 1.70687 -2.41011e-22)
(-0.00450787 1.69953 0)
(0.000696384 1.63358 0)
(0.980254 0.0111798 0)
(0.948045 0.00941157 0)
(0.931587 -0.0130821 0)
(0.972259 0.00973688 0)
(0.931189 -0.0130418 0)
(0.287317 0.716961 2.26611e-19)
(0.218037 0.786022 0)
(0.415718 0.543563 -2.45984e-20)
(0.21405 0.0945667 0)
(1.02232 1.20105 -1.46078e-19)
(1.14089 0.925388 3.17641e-19)
(0.543171 1.93551 0)
(0.691968 1.80412 0)
(0.752126 1.79923 0)
(0.521777 0.886112 -2.28679e-19)
(0.65218 0.302773 0)
(0.632699 0.223123 7.23867e-20)
(1.09196 1.00571 0)
(1.14195 0.811661 0)
(1.18689 0.743221 -2.9429e-19)
(1.20613 0.614117 0)
(1.26534 0.411256 3.72232e-20)
(0.977876 -0.00991935 0)
(0.965213 0.00562455 0)
(0.937566 0.00292396 0)
(0.986754 0.00629874 0)
(0.966224 0.00159675 0)
(0.945655 0.00247499 0)
(1.00009 0.00332058 0)
(1.00022 0.00145918 0)
(1.00002 0.00213228 0)
(0.0306176 1.61272 1.8361e-19)
(0.0563682 1.52202 0)
(0.0162503 1.66605 3.09407e-19)
(0.0126378 1.63643 -2.69539e-19)
(0.193387 1.89598 -3.28711e-19)
(0.0786895 1.74805 0)
(0.143564 1.75001 0)
(-0.00738523 1.71339 0)
(0.0127628 1.6171 0)
(-0.00378684 1.69324 -8.5732e-22)
(0.00925189 1.63394 0)
(0.00539167 1.69653 -4.61141e-20)
(-0.00306912 1.64518 8.8048e-20)
(0.0033326 1.70813 0)
(-0.024724 1.69796 0)
(-0.0107349 1.62103 0)
(0.013313 1.69994 0)
(0.00716423 1.63692 0)
(1.01544 -0.0030099 0)
(0.965445 -0.00612264 0)
(0.99285 0.016816 0)
(0.952635 0.0185071 0)
(0.920317 0.00721777 0)
(0.962952 0.00671566 0)
(0.965575 0.000717046 0)
(0.925278 -0.0135141 0)
(0.00479031 3.06548 -5.1823e-21)
(0.0210779 3.05575 0)
(0.0129838 2.97214 0)
(0.0086571 2.87963 0)
(0.848417 4.04199 0)
(1.12225 3.36698 7.41839e-19)
(0.0825094 3.11813 0)
(-0.0301286 2.93688 0)
(-0.0041141 1.7515 0)
(-0.00993975 1.75581 0)
(-0.00656109 1.75453 0)
(-0.0064591 1.78515 1.04403e-21)
(-0.013508 1.76909 0)
(0.00193684 1.77083 0)
(0.010595 1.64891 4.09571e-21)
(-0.00354171 1.7126 2.74799e-20)
(-0.0159545 1.7157 1.35166e-20)
(-0.0138243 1.65033 0)
(0.755871 0.12601 1.83865e-19)
(0.709247 0.0444947 -1.77789e-19)
(0.203794 1.41785 0)
(0.301146 1.27966 -1.50009e-19)
(0.136003 1.43897 -4.42845e-19)
(0.156659 1.38625 4.42102e-19)
(0.912009 0.00388191 0)
(0.969239 0.00304551 0)
(0.975526 0.0279474 0)
(0.925669 0.0144222 0)
(0.00242005 1.70673 0)
(0.00445403 1.70702 0)
(0.00312234 1.64779 0)
(0.510368 0.378931 2.63619e-19)
(0.440349 0.384056 -3.45502e-19)
(0.476871 0.296359 0)
(1.19646 0.0805623 -3.4497e-21)
(1.18165 0.0402408 0)
(1.11099 0.0451457 0)
(1.02728 0.0112298 0)
(0.769503 0.0807907 0)
(0.776493 0.082907 -7.5494e-19)
(0.734426 0.0262143 2.86906e-19)
(0.00979081 2.9863 4.23939e-19)
(-0.0279207 2.87408 3.51903e-20)
(0.00307157 3.04779 -1.10163e-20)
(0.0165224 3.04125 4.13564e-19)
(-0.010019 2.99904 1.85719e-20)
(-0.00870222 2.95395 -7.57955e-23)
(-0.0146329 3.01288 -3.50018e-19)
(0.0109606 3.02513 2.43119e-19)
(0.00629543 3.03006 -3.87258e-19)
(0.997329 0.0123515 0)
(0.99534 0.00493961 0)
(0.954384 0.00856926 0)
(0.967531 -0.00137065 0)
(0.972016 -0.0112403 0)
(0.92762 -0.0207948 0)
(0.96783 0.0114361 0)
(0.965969 -0.00552888 0)
(0.923065 -0.00184768 0)
(0.42432 1.08144 3.29155e-19)
(0.470718 1.26797 0)
(0.417065 0.434547 4.32633e-20)
(0.551688 0.709784 2.0686e-19)
(0.528649 0.59402 -1.41919e-20)
(0.275367 0.164118 -7.82306e-21)
(0.494587 1.14781 1.09746e-18)
(0.522541 1.06862 2.31237e-19)
(0.691763 0.254339 2.75514e-19)
(0.661188 0.274369 6.62459e-20)
(0.635487 0.212473 1.3965e-19)
(1.25532 0.45053 2.04708e-19)
(1.27775 0.223922 2.21532e-19)
(-0.0145626 1.68572 1.26815e-19)
(-0.0185088 1.62807 0)
(1.05547 0.0252165 0)
(1.01895 0.0156975 0)
(1.00078 0.00646294 0)
(0.0109964 3.07092 0)
(0.0173328 2.94461 7.27533e-19)
(0.0136219 2.95778 0)
(0.00708937 2.85406 -7.22747e-19)
(0.00629755 3.08697 1.73887e-19)
(0.0124943 3.08123 0)
(0.455354 1.60841 -1.5096e-19)
(1.13898 2.54157 4.73944e-19)
(0.468363 1.83601 -1.05932e-18)
(0.015859 2.99365 -3.50721e-19)
(0.0397184 3.03048 0)
(-0.0445294 2.89588 0)
(-0.00853728 1.69096 -7.76853e-21)
(0.0050632 1.70008 -6.32355e-20)
(-0.0029064 1.64547 -2.8856e-21)
(0.266068 1.34757 4.76779e-19)
(0.35602 1.22978 -3.32593e-19)
(0.042562 1.54453 2.90575e-19)
(0.0817839 1.50047 -3.60799e-19)
(0.0839518 1.43402 4.30152e-20)
(0.00233887 3.11852 -1.05169e-18)
(0.0140091 3.11525 1.15613e-18)
(-0.00665686 2.98202 4.82991e-19)
(0.000210735 2.97522 -4.50761e-19)
(-0.0147838 2.88072 -4.92077e-19)
(0.00745558 3.0953 -1.2907e-18)
(-4.75987e-05 3.1011 1.27711e-18)
(0.526157 1.02958 0)
(0.556959 0.864297 -8.43397e-19)
(0.514479 0.702114 3.84663e-19)
(0.43795 1.24466 6.58212e-19)
(0.459651 1.15042 -1.0189e-18)
(1.27012 0.17375 -3.75409e-20)
(1.28121 0.29594 0)
(1.2732 0.12004 8.61101e-20)
(0.0110661 1.68507 -1.12801e-21)
(-0.0179696 1.67869 0)
(0.00256569 1.61435 0)
(0.311545 1.31548 -1.71004e-19)
(0.361339 1.31034 -3.95504e-19)
(0.40958 1.20503 7.30914e-19)
(1.00616 -0.0340605 0)
(0.998322 -0.0168069 1.1986e-19)
(0.00574017 1.77362 0)
(-0.00279129 1.78139 0)
(0.995507 -0.00263035 -1.42864e-21)
(1.00861 -0.00356633 2.28812e-19)
(-0.0125392 1.78468 -1.3436e-21)
(-0.0110181 1.78701 0)
(0.0817838 3.20253 2.52085e-19)
(0.457396 3.65611 0)
(1.12489 0.650273 3.18573e-20)
(1.00926 0.000827102 -3.01567e-21)
(1.00378 0.0080754 0)
(1.00279 -0.00991915 -1.83974e-21)
(0.0344204 1.83679 0)
(0.105632 1.71048 0)
(0.0043424 1.79197 0)
(0.00831029 1.77123 6.23579e-20)
(0.010383 1.76023 3.14055e-20)
(0.999189 0.0206711 1.06444e-21)
(1.03964 -0.00547759 0)
(1.06128 0.0309081 0)
(-0.00800984 1.75407 0)
(-0.00130799 1.78579 0)
(-0.00947443 1.79033 0)
(0.204122 1.93268 -1.6236e-19)
(1.00213 -0.0355473 0)
(0.990781 -0.0374093 0)
(1.0083 -0.0021387 1.51468e-19)
(0.997095 -0.00668685 -1.77673e-19)
(1.00053 -0.000904608 0)
(0.00245456 1.73464 0)
(0.00661331 1.76201 0)
(0.00296252 1.74919 0)
(-0.0107068 1.79277 0)
(-0.00426934 1.78208 0)
(-0.00942681 1.78953 0)
(1.02099 -0.000913625 0)
(1.01416 0.00984342 -9.83836e-22)
(0.649398 1.41131 2.31026e-19)
(1.00699 -0.00352894 -1.50149e-19)
(0.993507 0.00479643 1.80192e-19)
(1.00074 0.00738966 0)
(1.00652 0.00795238 1.47432e-19)
(0.991458 -0.00504437 -1.80964e-19)
(0.985365 -0.00443138 0)
(-0.0038257 1.79337 0)
(-0.0102263 1.79056 8.25423e-21)
(-0.0089263 1.79203 -5.86452e-21)
(1.14126 0.250909 -2.06619e-20)
(1.09878 0.071833 0)
(0.0531532 3.08005 -5.40016e-19)
(0.050215 2.85267 -4.06153e-20)
(0.15436 3.17369 8.2917e-19)
(0.143889 3.19471 -9.93524e-20)
(0.156504 3.27162 0)
(0.0200103 3.14122 1.41292e-19)
(0.0849302 3.15097 5.30639e-19)
(0.0773679 3.1652 -2.9433e-19)
(0.026426 3.12809 0)
(0.704785 0.352211 0)
(0.647059 0.391603 0)
(1.00497 0.652495 -1.10598e-19)
(1.00192 0.852661 1.70851e-19)
(1.14142 0.566644 0)
(1.15187 0.56504 0)
(1.01927 -0.00423587 -2.79758e-19)
(1.02459 -0.00286522 3.47595e-19)
(1.01723 0.00893971 0)
(1.02126 0.0095911 0)
(1.01853 -0.000427399 0)
(1.01824 0.0129391 0)
(1.02938 -0.0149802 0)
(1.02346 0.01999 0)
(1.02058 0.0223014 0)
(1.02482 0.0126547 0)
(0.0159084 1.83204 0)
(0.0043799 1.84259 0)
(0.0810831 1.87373 0)
(0.0501934 1.88388 0)
(0.103686 1.69936 0)
(0.0803263 1.67326 -1.92769e-19)
(0.0887497 1.73606 0)
(0.0559591 1.72737 1.04176e-19)
(0.0151443 1.74991 -1.10034e-19)
(0.00765956 1.79165 0)
(0.00428156 1.78991 0)
(0.00501339 1.7978 0)
(0.00472606 1.81987 0)
(-0.00219393 1.76208 -3.50059e-20)
(0.00356571 1.77033 4.32871e-20)
(0.000887128 1.77768 5.13044e-20)
(0.00344135 1.77446 0)
(0.00952156 1.77101 -6.56617e-20)
(0.0123745 1.77041 -4.35489e-20)
(-0.00365142 1.76104 2.90759e-20)
(-0.00384869 1.76338 -5.60261e-20)
(-0.00361857 1.7708 -6.32717e-20)
(1.00268 0.022728 2.66139e-19)
(1.00598 0.0107759 -3.32247e-19)
(1.00181 0.00602999 -2.80104e-19)
(0.983205 0.00604136 3.56294e-19)
(1.04128 0.00496865 0)
(1.04404 -0.0161576 0)
(1.05691 0.0271295 0)
(1.0487 0.00289421 0)
(1.06855 0.0164334 0)
(1.07144 0.0680541 0)
(1.07392 0.0317339 0)
(1.08564 0.0390619 0)
(-0.0137606 1.78634 -9.05077e-22)
(-0.0108029 1.76042 0)
(-0.0169691 1.77404 0)
(0.00259065 1.78721 6.71809e-21)
(0.00300545 1.78767 -4.97727e-22)
(0.0175926 1.72633 1.56258e-20)
(0.00560156 1.7333 -1.58917e-20)
(-0.00315059 1.77244 0)
(0.00127625 1.76885 0)
(0.00143642 1.765 0)
(0.000609152 1.79051 0)
(0.00330687 1.78413 0)
(0.356848 1.92547 2.62187e-19)
(0.336182 1.93989 1.21926e-19)
(0.314442 1.56128 -1.17551e-19)
(0.134323 1.58719 3.02492e-19)
(0.247796 1.66497 7.52669e-20)
(0.999629 0.00470476 0)
(0.98502 -0.0307411 0)
(0.982279 -0.0238611 0)
(1.03923 -0.0105215 0)
(1.01131 -0.0199052 0)
(1.00035 -0.0212933 0)
(0.986106 -0.00963926 0)
(1.00276 0.0167664 0)
(1.01158 0.0110183 2.62107e-19)
(1.01919 0.013112 -3.34528e-19)
(1.01338 0.00326931 -2.58108e-19)
(1.01689 -0.00763373 3.27326e-19)
(0.637228 1.53739 0)
(0.537655 1.66126 1.92845e-19)
(0.769047 1.23038 1.07442e-19)
(0.808791 1.20846 -1.41827e-19)
(0.799496 2.36184 -7.29724e-19)
(0.843141 0.108132 1.81681e-19)
(1.10623 0.0764559 0)
(1.10678 0.174369 1.38937e-20)
(1.16053 0.138008 2.50655e-21)
(0.968709 0.0961098 0)
(0.158669 2.96177 1.89459e-19)
(0.121017 2.8692 -7.21008e-19)
(0.00618976 2.36951 4.88011e-19)
(0.187533 0.171251 -2.13556e-19)
(0.391461 3.52131 -3.00631e-19)
(0.220526 3.33391 0)
(0.274343 3.45574 3.91335e-19)
(0.279678 3.03784 -7.53783e-19)
(0.379105 3.2354 0)
(0.0157093 3.11658 2.78303e-20)
(0.0221476 3.12586 -3.40409e-19)
(0.0230491 3.12197 5.00115e-19)
(0.0436763 3.1357 0)
(0.0409423 3.14443 0)
(0.937412 2.5392 0)
(0.557572 0.664938 -6.03527e-20)
(0.929259 0.999092 -8.91327e-20)
(0.903845 1.05647 0)
(0.703529 0.984254 3.29986e-20)
(0.981164 0.872627 1.05271e-20)
(0.441934 0.510358 -4.73374e-19)
(0.716361 0.33453 -1.47637e-20)
(0.736689 0.305839 1.36717e-19)
(0.631081 0.434557 1.21969e-20)
(0.58901 0.435786 -5.14979e-19)
(0.700864 0.364291 0)
(0.706086 0.421747 2.27693e-19)
(0.700561 0.407249 0)
(0.663102 0.393755 0)
(0.67263 0.381046 0)
(0.774097 0.557597 6.08513e-20)
(1.1864 0.267885 3.70638e-20)
(1.13546 0.42571 0)
(1.1924 0.392203 0)
(0.796331 0.224863 2.18337e-19)
(0.779757 0.484328 -1.13904e-19)
(0.732816 0.440931 1.79092e-19)
(0.879123 0.414494 -1.75006e-19)
(1.02299 0.00220534 1.797e-19)
(1.02549 -0.00617091 -1.82373e-19)
(1.02534 -0.00189532 0)
(1.02007 0.00121122 0)
(1.02329 0.00547955 -1.72734e-19)
(1.02368 -0.00930486 1.69486e-19)
(1.01116 -0.00540615 0)
(1.00173 0.00307218 0)
(1.02064 0.00563367 0)
(1.02303 -0.00889912 0)
(1.0212 0.0109735 0)
(1.01875 0.0109087 0)
(0.00216082 1.84392 0)
(0.00275664 1.83791 0)
(0.155949 1.86644 2.76418e-20)
(0.204037 1.92614 8.05216e-20)
(0.106719 1.94567 1.73376e-19)
(0.107151 1.95196 -2.79072e-19)
(0.158459 1.87869 0)
(0.159835 1.74971 -7.72829e-20)
(0.157887 1.75931 0)
(0.249242 1.66374 -1.07973e-19)
(0.179704 1.61655 3.65522e-19)
(0.179318 1.78594 6.92595e-20)
(0.20192 1.86189 2.5395e-20)
(0.180857 1.85473 -2.03522e-20)
(0.259224 1.80722 -5.65585e-20)
(0.209273 1.75842 0)
(0.208919 1.75334 5.66501e-20)
(0.0295411 1.77461 -3.01386e-20)
(-0.0041213 1.73637 0)
(0.0226353 1.72556 1.21277e-19)
(0.014261 1.72968 0)
(0.0378829 1.7284 -1.15938e-19)
(-0.00188523 1.72332 0)
(0.00174242 1.76217 -2.4996e-20)
(0.00408882 1.75951 0)
(0.00787047 1.7641 0)
(0.00829302 1.76095 2.75174e-20)
(0.013621 1.77255 -1.65236e-21)
(0.0276148 1.77079 1.3291e-19)
(0.0198231 1.77684 9.29939e-22)
(-0.00905577 1.75942 2.05359e-20)
(-0.00915135 1.75855 1.37344e-20)
(0.0041288 1.7894 0)
(-0.00606955 1.78249 0)
(0.0130047 1.76757 6.72754e-20)
(0.0137537 1.7578 5.17841e-20)
(0.0108713 1.7563 -7.09004e-20)
(0.0303472 1.77549 0)
(0.0122189 1.75656 -3.13965e-20)
(0.00659932 1.75569 1.51123e-20)
(0.000357052 1.75651 -4.85596e-21)
(-0.0101657 1.76061 -2.53925e-20)
(0.0107421 1.76458 -7.9922e-21)
(0.00722143 1.77063 3.98144e-20)
(1.01628 -0.00760387 -1.72366e-19)
(1.01194 0.00868377 1.73932e-19)
(1.0153 -0.0015218 0)
(0.975219 0.0665054 2.65139e-19)
(0.978146 0.0170436 -2.96287e-19)
(0.945383 0.0127391 3.4746e-19)
(0.972729 0.0703736 -3.44046e-20)
(1.03469 0.00898466 0)
(1.04052 -0.00237429 1.47601e-19)
(1.04358 0.00159653 -1.46875e-19)
(1.00848 0.0366541 -9.04066e-21)
(1.0175 0.0154422 8.11187e-20)
(0.980823 0.0307539 0)
(0.967512 0.0241798 -2.82812e-20)
(1.01484 0.0232628 0)
(1.00116 0.0278214 0)
(1.01511 -0.000721246 0)
(1.01807 -0.00426146 0)
(1.00151 0.0112905 6.13832e-20)
(1.00121 0.0192834 -1.26148e-19)
(0.970849 0.0159297 -6.37297e-20)
(0.957429 0.0134219 -7.21993e-20)
(0.986577 0.0578302 1.1553e-19)
(1.0562 0.0483136 0)
(1.04697 0.0915382 0)
(0.0251011 1.75958 -1.34734e-20)
(0.00931661 1.75145 -1.5442e-21)
(0.0235051 1.74047 0)
(0.0101379 1.77887 1.3642e-20)
(-0.0109891 1.78471 2.3791e-21)
(-0.00312295 1.78434 -2.37475e-21)
(0.0124419 1.77228 3.93253e-20)
(-1.405e-05 1.75924 -2.21144e-21)
(0.00913455 1.76344 1.01533e-20)
(0.0107566 1.76755 -1.92448e-20)
(0.00911941 1.77077 2.26158e-20)
(0.00660216 1.74831 4.69829e-22)
(0.0279477 1.74169 1.98077e-20)
(0.367014 1.80843 -1.11557e-19)
(0.275158 1.79839 5.20164e-20)
(0.55501 1.75302 -1.85821e-19)
(0.459045 1.89822 -1.20413e-19)
(0.456004 1.84881 0)
(0.344714 1.56701 1.21353e-19)
(0.336497 1.54604 1.74814e-19)
(0.189136 1.5936 2.49148e-20)
(0.180759 1.59051 -4.1524e-19)
(0.259171 1.58915 3.26015e-19)
(0.288239 1.5977 0)
(0.217222 1.59715 -2.57722e-19)
(0.0757148 1.65467 5.01907e-19)
(0.107906 1.61899 -3.25311e-20)
(0.0307602 1.61537 -6.97046e-19)
(0.759494 1.46109 5.61145e-19)
(0.56526 1.50511 0)
(1.0361 -0.0108999 5.39565e-21)
(1.02398 0.0322459 -4.71083e-21)
(1.02372 0.0368992 -8.57225e-20)
(1.02072 0.0175359 8.65622e-20)
(1.02434 -0.00178777 0)
(0.358737 1.47907 0)
(0.270081 1.35163 0)
(0.531349 1.06837 0)
(0.270495 1.17807 0)
(0.810451 2.31093 1.32841e-19)
(0.851891 1.99783 0)
(0.490023 2.22597 3.97437e-21)
(0.528298 1.72752 0)
(0.631928 1.81589 -3.73428e-19)
(0.605603 1.93901 2.32815e-19)
(0.86321 0.133252 0)
(0.839917 0.168602 5.2899e-20)
(0.930246 0.0915501 2.58122e-19)
(0.858803 0.09093 -1.03165e-19)
(0.841719 0.070176 -3.25498e-19)
(0.990551 0.192653 -1.471e-19)
(0.920684 0.269426 -7.30091e-21)
(0.820123 0.268802 2.4641e-19)
(0.933082 0.220858 1.71281e-19)
(0.941662 0.148391 -3.20165e-19)
(0.909071 0.147912 4.16395e-20)
(0.893446 0.227145 -7.99837e-20)
(0.912594 0.180645 0)
(0.954284 0.153822 1.52525e-19)
(0.957364 0.146777 0)
(0.958097 0.200495 0)
(1.07503 0.103274 5.1955e-20)
(0.981092 0.127048 -7.90453e-21)
(0.989374 0.184252 -2.89582e-20)
(1.04665 0.196564 0)
(1.01975 0.0328807 1.31817e-19)
(1.01083 0.0378256 1.60996e-19)
(1.01829 0.0453343 -1.28549e-19)
(1.03026 0.0550115 -1.08786e-19)
(0.996043 0.0692524 -1.86902e-19)
(0.943606 0.0650473 0)
(0.942544 0.0593578 0)
(0.932463 0.0651478 -1.25433e-19)
(0.907525 0.0721462 5.36908e-20)
(1.01611 0.0969761 1.49421e-19)
(0.987566 0.10545 -1.61555e-19)
(0.995239 0.111103 1.4411e-19)
(0.995784 0.123196 0)
(1.00417 0.0941652 0)
(1.00416 0.0944784 -6.25842e-20)
(1.02321 0.0963853 -1.18038e-19)
(-0.0467036 1.85141 -1.4204e-20)
(0.114568 2.62469 -1.34362e-20)
(0.687388 2.98115 2.1611e-19)
(0.901956 3.32694 -1.06042e-19)
(0.901258 2.66875 8.36732e-19)
(0.974359 2.71531 -3.1627e-19)
(0.909977 2.0533 -2.18471e-20)
(0.848225 3.16382 3.47677e-19)
(0.836715 3.09127 -4.32778e-19)
(0.949965 3.45846 -2.40466e-19)
(1.20246 3.10011 3.05569e-19)
(1.24409 2.94438 0)
(0.605353 0.646461 2.2431e-20)
(0.350483 1.20608 3.15472e-19)
(0.427508 0.647386 2.89435e-19)
(0.360745 0.420775 3.80435e-19)
(0.576261 0.450404 2.87985e-19)
(0.571234 0.480518 -4.45982e-19)
(0.548978 0.550772 3.68554e-19)
(0.498842 0.500472 -1.69577e-19)
(0.527 0.480077 3.70734e-19)
(0.794256 0.253167 -1.23342e-19)
(0.762912 0.293865 0)
(0.773546 0.283456 6.99911e-21)
(0.711876 0.484364 1.13369e-19)
(0.670454 0.459653 -4.25026e-19)
(0.59685 0.503058 2.5456e-20)
(0.652513 0.47285 0)
(0.671469 0.571083 3.52566e-20)
(0.698245 0.76449 1.32246e-20)
(0.659894 0.744944 -2.13926e-20)
(0.754597 0.700712 -1.50149e-20)
(0.833343 0.865268 9.01251e-21)
(0.808399 0.829465 -9.23843e-21)
(0.776285 0.545068 -1.1558e-19)
(0.848168 0.597462 1.39864e-20)
(0.93676 0.663415 0)
(0.924662 0.632633 -1.56914e-20)
(0.962546 0.314146 3.86692e-20)
(1.09642 0.304473 -8.1246e-21)
(0.992609 0.22883 5.84759e-20)
(0.944274 0.342484 -8.76105e-20)
(0.951498 0.40783 0)
(1.00869 0.37865 0)
(0.834054 0.335169 2.90058e-21)
(0.805861 0.305965 0)
(0.833113 0.28483 1.25826e-19)
(0.810163 0.276935 -2.93095e-21)
(0.862218 0.418963 4.82692e-19)
(0.824755 0.485407 1.22174e-19)
(0.823969 0.449577 -1.60812e-19)
(0.773581 0.392759 1.72638e-19)
(0.739935 0.402316 1.1539e-19)
(0.715713 0.409327 -1.12337e-19)
(1.0124 0.0278918 1.38074e-19)
(1.01034 -0.0138403 0)
(1.00193 0.0196001 9.59839e-20)
(1.01427 0.0250086 -2.12054e-19)
(1.00998 -0.00119403 1.0141e-19)
(1.01102 0.0245284 -2.12946e-19)
(1.0066 0.00493601 0)
(1.00285 -0.0112836 -4.55245e-20)
(1.01148 0.00501487 1.1257e-19)
(1.016 0.000177236 -5.78893e-20)
(1.00463 -0.00182785 4.34549e-20)
(0.00649218 1.8241 0)
(0.00759678 1.76776 0)
(0.00613988 1.83084 0)
(0.00859119 1.82892 0)
(0.0274232 1.77846 3.8829e-20)
(0.0323208 1.80924 -1.66813e-20)
(0.0758611 1.79221 -1.88503e-20)
(0.0769513 1.80638 -2.87217e-20)
(0.0155404 1.76698 -5.03688e-20)
(0.0175069 1.76874 3.64863e-20)
(0.025588 1.77319 -1.27414e-20)
(0.00946173 1.78401 -1.84655e-20)
(0.0126111 1.78219 -1.49353e-21)
(0.00727089 1.77502 -4.63323e-21)
(0.043551 1.73112 -1.29221e-19)
(0.0753761 1.74071 0)
(0.0731009 1.73628 8.17351e-20)
(0.117371 1.76753 5.05813e-20)
(0.162315 1.72559 -5.33908e-20)
(0.113056 1.65229 0)
(0.104537 1.64031 -3.56304e-19)
(0.164629 1.63532 2.59672e-19)
(0.165918 1.72434 -1.58747e-19)
(0.130599 1.7182 8.87359e-20)
(0.0914807 1.68966 0)
(0.0214437 1.76831 -7.72041e-20)
(0.0138764 1.762 -1.16793e-19)
(0.00957584 1.76245 0)
(0.0386437 1.7741 -2.7836e-21)
(0.0389708 1.77665 4.01319e-20)
(0.0046917 1.77827 4.52957e-21)
(0.00685843 1.78562 -6.9391e-20)
(0.00527841 1.78369 1.81614e-20)
(-0.00665521 1.7643 2.60826e-20)
(0.00105039 1.76163 0)
(-0.000388902 1.78785 0)
(-0.00321256 1.7852 2.29342e-20)
(-0.0016228 1.78961 -6.34128e-21)
(-0.00268598 1.78923 0)
(-0.00738911 1.78376 1.92456e-20)
(-0.0108263 1.77984 -3.69797e-20)
(0.993325 0.024757 0)
(1.00087 0.0397436 -1.34493e-20)
(1.01342 0.00819809 -9.43065e-20)
(1.02855 0.0167239 0)
(1.02968 0.0401698 0)
(0.996447 -0.00450029 -7.88729e-21)
(0.996578 -0.00140056 1.54455e-19)
(1.00457 0.00742261 2.01423e-19)
(1.01923 0.00543493 0)
(1.01672 0.00899576 0)
(1.00579 0.0147548 1.03071e-19)
(1.0021 0.0162752 0)
(1.00426 0.0169307 0)
(0.00610346 1.73749 0)
(0.0168077 1.75847 -4.39852e-22)
(0.0123847 1.75072 7.09659e-21)
(-1.4168e-05 1.7862 0)
(-0.00166696 1.76605 9.50572e-21)
(0.00285102 1.77346 -7.44169e-21)
(-0.00162002 1.7873 0)
(0.396663 1.69249 0)
(0.286649 1.77669 -1.31901e-19)
(0.258101 1.73604 0)
(0.378928 1.74936 9.7399e-20)
(0.393261 1.79459 0)
(0.389154 1.80348 -1.47308e-20)
(0.774868 1.7042 -1.20925e-20)
(0.780571 1.44633 -6.73232e-19)
(0.842717 1.43232 7.04098e-19)
(0.617561 1.50029 1.7863e-19)
(0.577126 1.59556 0)
(0.657334 1.61598 0)
(0.729814 1.46365 0)
(0.67809 1.47489 -6.31618e-19)
(0.412973 1.68103 -3.34894e-19)
(0.493327 1.58357 -9.17421e-20)
(0.521903 1.66937 7.43898e-20)
(0.382805 1.54666 0)
(0.51233 1.53342 0)
(0.423354 1.53993 -2.06694e-19)
(0.47103 1.58878 0)
(0.270072 1.00054 0)
(0.166947 0.685396 6.45491e-19)
(0.502487 0.584283 4.32362e-20)
(-0.136864 1.30274 0)
(0.109447 1.42203 -9.67785e-19)
(0.651647 0.753456 2.28163e-20)
(0.630138 0.965817 0)
(0.654037 0.941787 -4.69192e-20)
(0.575476 0.676169 0)
(0.63186 0.697976 0)
(0.728087 2.49924 7.20431e-20)
(0.66229 2.8297 -4.62535e-20)
(0.39651 2.65411 4.2856e-20)
(0.400075 2.42617 -7.85237e-20)
(0.793794 2.19704 0)
(0.802606 2.06312 1.0127e-19)
(0.860822 1.92658 3.50213e-20)
(0.897505 1.70043 -3.89237e-21)
(0.342128 1.95602 0)
(0.0255419 1.76353 1.22267e-20)
(0.140593 1.74664 0)
(0.889846 0.196925 0)
(0.842862 0.171067 0)
(0.812234 0.178045 0)
(0.875883 0.224117 -1.98322e-19)
(0.815956 0.212412 1.27352e-19)
(0.901239 0.0838147 -1.11938e-19)
(0.911939 0.0874153 0)
(0.915434 0.085961 4.86478e-20)
(0.87158 0.0813362 2.03525e-19)
(0.875631 0.0796942 -1.24383e-19)
(1.0129 3.54033 -5.96803e-19)
(0.998257 3.50568 0)
(1.0508 3.52519 -1.31841e-18)
(0.649924 3.70209 1.26922e-18)
(0.874648 3.26112 4.36634e-19)
(0.643617 0.702175 -2.51308e-19)
(0.507295 0.925638 0)
(0.719263 0.555261 -5.00814e-20)
(0.63292 0.565534 9.99543e-20)
(0.565588 0.66625 -8.33536e-20)
(0.582546 0.553656 8.42597e-20)
(0.617936 0.536053 1.7065e-19)
(0.687319 0.509599 0)
(0.653466 0.601139 0)
(0.599233 0.576001 0)
(0.970245 0.567697 -1.89812e-20)
(0.82962 0.481352 -1.1724e-19)
(0.80991 0.531154 5.60224e-20)
(0.880234 0.489165 -8.78915e-20)
(0.96721 0.425218 0)
(1.01336 0.51385 -6.18377e-21)
(0.782058 0.373651 -2.61109e-19)
(0.809402 0.363656 -2.91898e-19)
(0.752907 0.370411 2.03681e-19)
(0.745085 0.353348 -2.26353e-19)
(0.785701 0.334901 -1.71424e-19)
(0.747569 0.336072 2.1115e-19)
(1.01529 -0.0140615 -1.0418e-19)
(1.02076 -0.0119275 2.09319e-19)
(1.00361 0.0205602 1.31822e-19)
(1.00067 0.0345917 -1.60978e-19)
(0.982553 0.032365 0)
(0.997965 -0.00855146 -2.46518e-19)
(0.0422021 1.78726 1.88007e-20)
(0.0380548 1.77702 0)
(0.0492935 1.77707 1.31041e-19)
(0.0854103 1.7852 -1.12221e-19)
(0.0449373 1.79737 3.52695e-20)
(0.0386287 1.77749 0)
(-0.008279 1.75036 0)
(-0.00339421 1.77137 -7.2271e-21)
(0.000626632 1.78023 6.48892e-21)
(-0.00174283 1.77189 3.36295e-21)
(-0.00063887 1.74087 -1.19469e-20)
(0.0046027 1.74914 6.68557e-21)
(0.401059 1.84375 -3.72333e-19)
(0.39824 1.76074 3.95617e-19)
(0.369318 1.74303 -7.89681e-20)
(0.403791 1.74941 1.6865e-20)
(0.400072 1.58362 0)
(0.419661 1.76246 8.97906e-20)
(0.411976 1.69083 -8.69397e-20)
(0.351928 1.74928 7.78049e-20)
(0.35075 1.74797 0)
(0.294991 1.74081 0)
(0.378512 1.61773 5.14778e-19)
(0.381465 1.57073 8.33047e-19)
(0.427098 1.59465 -5.6935e-19)
(0.368601 1.59655 -1.01639e-19)
(0.307905 1.61362 1.67584e-19)
(0.253392 1.59275 -4.16986e-19)
(0.874204 1.47332 -3.83443e-19)
(0.910181 1.61316 0)
(0.904332 1.49108 -2.29611e-19)
(0.821752 1.90336 0)
(0.816602 1.81105 0)
(0.843959 2.67876 6.47589e-19)
(0.896521 3.40912 6.19772e-19)
(0.821735 3.27632 -5.5361e-19)
(0.606893 0.97682 0)
(0.718906 0.988042 1.75531e-20)
(0.791515 0.850526 2.96718e-19)
(0.858035 2.23255 0)
(0.713405 2.89112 -3.30691e-19)
(0.554311 2.519 0)
(0.669728 0.580871 -8.04724e-20)
(0.718055 0.63642 1.68516e-19)
(0.710288 0.633135 -1.73581e-19)
(0.672057 0.571008 -1.8034e-20)
(0.68559 0.580646 -8.67191e-20)
(0.748881 3.19635 -4.67292e-19)
(0.724757 3.22016 5.52027e-19)
(0.805426 2.72849 -1.10989e-18)
(0.63247 2.58614 6.88065e-19)
(0.306722 2.6561 5.8459e-19)
(0.601975 2.96827 -3.39812e-20)
(0.44792 2.99271 -3.80247e-19)
(0.556396 2.56444 -3.84808e-20)
(0.339768 2.59684 -1.92972e-19)
)
;

boundaryField
{
    wall-4
    {
        type            noSlip;
    }
    velocity-inlet-5
    {
        type            fixedValue;
        value           uniform (1 0 0);
    }
    velocity-inlet-6
    {
        type            fixedValue;
        value           uniform (0 3 0);
    }
    pressure-outlet-7
    {
        type            zeroGradient;
    }
    wall-8
    {
        type            noSlip;
    }
    frontAndBackPlanes
    {
        type            empty;
    }
}

