/*--------------------------------*- C++ -*----------------------------------*\
  =========                 |
  \\      /  F ield         | OpenFOAM: The Open Source CFD Toolbox
   \\    /   O peration     | Website:  https://openfoam.org
    \\  /    A nd           | Version:  6
     \\/     M anipulation  |
\*---------------------------------------------------------------------------*/
FoamFile
{
    version     2.0;
    format      ascii;
    class       volVectorField;
    location    "0";
    object      Usup;
}
// * * * * * * * * * * * * * * * * * * * * * * * * * * * * * * * * * * * * * //

dimensions      [0 1 -1 0 0 0 0];

internalField   nonuniform List<vector> 
918
(
(-0.000168073 2.03463e-05 0)
(-1.37065e-05 -9.78006e-05 0)
(4.1883e-05 -0.000388672 0)
(-0.000180373 -2.64924e-05 0)
(-2.40783e-05 -0.000344861 0)
(2.25773e-05 -0.000104702 0)
(-0.000753803 -0.00159738 0)
(-0.000386171 -0.000412129 0)
(-0.000619775 1.39502e-06 0)
(-9.37844e-05 -0.00163745 0)
(-1.83126e-05 -0.00156807 0)
(-0.000909753 -5.22195e-05 0)
(-3.11784e-06 -0.000342923 0)
(2.15049e-06 -0.00039111 0)
(-0.000132337 -0.000604658 0)
(-3.48569e-06 -0.00119812 0)
(-0.000597548 -0.000248947 0)
(-0.00028236 -0.00177391 0)
(-0.000650504 -1.14675e-05 0)
(2.12058e-06 -0.00131844 0)
(-0.000179483 -0.00077159 0)
(-0.000706332 3.49404e-05 0)
(-0.000508288 1.10403e-05 0)
(-0.000439047 7.28418e-06 0)
(-0.000779153 -0.000109233 0)
(-3.73072e-05 -0.000708499 0)
(1.06322e-06 -0.00044403 0)
(0.000107225 -0.00148537 0)
(1.49915e-05 -0.000799238 0)
(6.83271e-05 -0.00105244 0)
(-1.68097e-05 -0.00130157 0)
(9.83699e-06 -0.000884431 0)
(-1.55344e-06 -0.000705986 0)
(5.41794e-05 -0.000452617 0)
(3.94187e-05 -0.000310339 0)
(2.57012e-06 -0.000191683 0)
(-0.00087864 -6.75308e-06 0)
(-0.000300551 -0.000685557 0)
(-0.00150306 -0.00295258 0)
(-0.000831688 -0.00146007 0)
(-0.0013464 -0.0031848 0)
(-0.000651854 -0.00169532 0)
(-0.000795205 -0.000778638 0)
(-0.000440685 -0.000384939 0)
(-0.000961139 -0.000866808 0)
(-0.000689686 -0.000826109 0)
(-0.000328431 -0.000437154 0)
(-0.000797457 5.06306e-07 0)
(-0.00122375 5.07844e-07 0)
(-0.000619915 -5.56082e-07 0)
(-0.00124482 5.75114e-05 0)
(-0.00119052 5.11785e-06 0)
(-0.000569438 8.94952e-06 0)
(-8.89837e-05 -0.00144205 0)
(-0.00021379 -0.00310795 0)
(-0.000131274 -0.00167343 0)
(-0.000161377 -0.00307597 0)
(-6.88536e-05 -0.00160495 0)
(-2.3041e-05 -0.00157914 0)
(-4.20488e-05 -0.00296879 0)
(-2.32424e-05 -0.00158292 0)
(-3.12119e-05 -0.0029532 0)
(-1.39852e-05 -0.00154492 0)
(-0.0009306 -3.92615e-05 0)
(-0.00171993 -8.36234e-05 0)
(-0.000906765 -3.4428e-05 0)
(-0.00172715 -0.000125229 0)
(-0.000893383 -7.27988e-05 0)
(-3.15155e-06 -0.000296506 0)
(-3.81504e-05 -0.000568275 0)
(-2.22682e-05 -0.000355104 0)
(-1.59497e-05 -0.000565813 0)
(-4.39376e-06 -0.000260388 0)
(3.81092e-06 -0.000624332 0)
(1.93253e-06 -0.000364337 0)
(-2.77148e-06 -0.000683159 0)
(-7.61727e-07 -0.000384228 0)
(1.19049e-05 -0.000700722 0)
(9.30872e-07 -0.000414674 0)
(-0.000310635 -0.00120129 0)
(-0.000194236 -0.000676758 0)
(-0.000214471 -0.00111295 0)
(-8.49482e-05 -0.000559706 0)
(-3.4254e-06 -0.00118312 0)
(-6.80111e-06 -0.00237108 0)
(-4.76023e-06 -0.00131773 0)
(-0.00114726 -0.00044376 0)
(-0.000618606 -0.000212397 0)
(-0.00110843 -0.000514651 0)
(-0.000570098 -0.000285664 0)
(-0.000183317 -0.00114758 0)
(-0.000661478 -0.00342947 0)
(-0.000402566 -0.00179067 0)
(-0.00131295 -8.89927e-06 0)
(-0.000738992 -3.72537e-06 0)
(-0.000396058 -9.75229e-06 0)
(-0.000561744 -4.37718e-05 0)
(-0.00131467 -4.5014e-05 0)
(-0.000821222 -6.41854e-05 0)
(-1.18663e-06 -0.00256624 0)
(-1.67259e-06 -0.00141583 0)
(7.26494e-05 -0.00235874 0)
(9.68405e-06 -0.002356 0)
(1.73402e-05 -0.00116522 0)
(-0.000402279 -0.00116581 0)
(-0.000221282 -0.000538349 0)
(-0.0010495 2.05056e-05 0)
(-0.000635482 7.5567e-06 0)
(-0.00165791 -0.000166053 0)
(-0.00155263 -0.000207751 0)
(-0.000848368 -9.34607e-05 0)
(-0.000999021 -0.000167015 0)
(-0.00132963 -0.000216291 0)
(-0.000640233 -0.000112133 0)
(-1.02699e-06 -0.000454496 0)
(-8.61213e-06 -0.000775275 0)
(-2.20626e-05 -0.000936288 0)
(-7.72851e-06 -0.000474144 0)
(5.58741e-07 -0.000765571 0)
(-4.39613e-07 -0.000445982 0)
(3.55675e-06 -0.000755595 0)
(2.64135e-06 -0.000432817 0)
(-1.47211e-06 -0.00185073 0)
(-1.98199e-06 -0.00109524 0)
(-7.66363e-06 -0.00210524 0)
(-1.46525e-05 -0.00169669 0)
(-5.46727e-06 -0.00102657 0)
(-0.00165656 -1.65763e-05 0)
(-0.000887403 -1.1511e-05 0)
(-0.00087658 -7.43213e-06 0)
(-0.00165805 -1.04441e-05 0)
(-0.000870248 -3.60875e-06 0)
(-0.000566823 -0.00129796 0)
(-0.000292412 -0.000659862 0)
(-0.000582876 -0.00135956 0)
(-0.000302942 -0.000708384 0)
(-0.00163195 -0.00266757 0)
(-0.000889512 -0.00128151 0)
(-0.000895791 -0.00342433 0)
(-0.00112757 -0.00331663 0)
(-0.000529686 -0.00176007 0)
(-0.000298961 -0.000869199 0)
(-0.000888401 -0.000712496 0)
(-0.000489497 -0.000352326 0)
(-0.00170984 -0.0022649 0)
(-0.00178706 -0.00186905 0)
(-0.000927256 -0.001069 0)
(-0.00184946 -0.0014925 0)
(-0.000997311 -0.000684647 0)
(-0.00162278 -3.99195e-06 0)
(-0.00153667 -2.4038e-07 0)
(-0.000839533 -1.05833e-06 0)
(-0.00128827 9.73999e-06 0)
(-0.0014542 2.24396e-06 0)
(-0.000736064 2.99547e-06 0)
(-0.000997097 -1.35411e-06 0)
(-0.00119111 -1.09552e-06 0)
(-0.000563246 -2.8439e-07 0)
(-0.00019863 -0.00267208 0)
(-0.00010976 -0.001377 0)
(-0.000156239 -0.00280865 0)
(-7.10286e-05 -0.00148967 0)
(-0.000461367 -0.0033533 0)
(-0.000311284 -0.00320877 0)
(-0.000192313 -0.00173906 0)
(-0.000114037 -0.00298569 0)
(-4.69637e-05 -0.00157781 0)
(-5.65358e-05 -0.0029527 0)
(-3.34601e-05 -0.00156576 0)
(-3.54352e-05 -0.00302273 0)
(-1.3591e-05 -0.00156361 0)
(-7.38187e-05 -0.00297135 0)
(-5.08929e-05 -0.00301263 0)
(-3.11815e-05 -0.00158391 0)
(-2.47206e-05 -0.00287341 0)
(-1.08735e-05 -0.00150678 0)
(-0.00179167 -9.2763e-05 0)
(-0.000942079 -5.50787e-05 0)
(-0.0017259 -6.42334e-05 0)
(-0.000912152 -2.77077e-05 0)
(-0.000891371 -1.89826e-05 0)
(-0.00167943 -4.10903e-05 0)
(-0.0017134 -5.41057e-05 0)
(-0.000897259 -2.37976e-05 0)
(1.04158e-05 -0.00127709 0)
(6.28742e-06 -0.00124889 0)
(3.94802e-06 -0.0006543 0)
(1.52842e-06 -0.000375411 0)
(-0.000503111 -0.00150182 0)
(-0.000261113 -0.000689624 0)
(-0.000122108 -0.00100314 0)
(-4.39385e-05 -0.000512849 0)
(-4.51348e-06 -0.00218082 0)
(-6.44817e-06 -0.00223118 0)
(-2.32574e-06 -0.00119036 0)
(-5.26471e-05 -0.00223289 0)
(-6.71794e-06 -0.00215069 0)
(-8.95727e-06 -0.00109056 0)
(-3.68536e-06 -0.00147235 0)
(-8.62652e-06 -0.00269981 0)
(-1.26412e-05 -0.00257439 0)
(-5.25111e-06 -0.0014023 0)
(-0.00118812 -0.000376313 0)
(-0.000631623 -0.000174631 0)
(-0.000383098 -0.00211695 0)
(-0.00021039 -0.00108177 0)
(-0.000323182 -0.00223535 0)
(-0.000151792 -0.00121792 0)
(-0.00082952 -5.07138e-06 0)
(-0.00154054 -1.11107e-05 0)
(-0.00144326 -5.97927e-06 0)
(-0.00079558 -4.26976e-06 0)
(-1.87539e-05 -0.00280141 0)
(-5.4995e-06 -0.00274713 0)
(-6.05683e-06 -0.00147532 0)
(-0.000584199 -0.00088558 0)
(-0.000483185 -0.000966641 0)
(-0.000271895 -0.000470162 0)
(-0.00194473 -0.000408405 0)
(-0.00102285 -0.000251393 0)
(-0.00181973 -0.000261822 0)
(-0.000970122 -0.000112728 0)
(-0.00119894 -0.000301428 0)
(-0.00119039 -0.000238952 0)
(-0.000631361 -0.00013821 0)
(8.54728e-06 -0.000791052 0)
(5.94007e-06 -0.000447282 0)
(4.46591e-06 -0.00122871 0)
(3.21209e-06 -0.00117917 0)
(7.26741e-06 -0.000722708 0)
(4.55392e-06 -0.000398759 0)
(1.47829e-05 -0.000737162 0)
(-2.03728e-05 -0.000995005 0)
(6.2586e-06 -0.00109756 0)
(-0.0017204 -4.66188e-05 0)
(-0.00169256 -2.94808e-05 0)
(-0.000904009 -1.90302e-05 0)
(-0.00157912 -9.18739e-06 0)
(-0.00163954 -9.01107e-06 0)
(-0.000854318 -4.54963e-06 0)
(-0.00168881 -3.48138e-05 0)
(-0.00166843 -2.06326e-05 0)
(-0.000888657 -1.3859e-05 0)
(-0.000551018 -0.00126243 0)
(-0.000279004 -0.000635246 0)
(-0.000302004 -0.000762667 0)
(-0.000571493 -0.00142535 0)
(-0.000574506 -0.00137982 0)
(-0.000300204 -0.000726838 0)
(-0.000561 -0.00171907 0)
(-0.000286947 -0.00091502 0)
(-0.00104595 -0.000583976 0)
(-0.000971971 -0.000646646 0)
(-0.000533039 -0.000319874 0)
(-0.00193614 -0.00117029 0)
(-0.00102836 -0.00052098 0)
(-0.000127068 -0.00284466 0)
(-5.73709e-05 -0.00151485 0)
(-0.00184251 -0.000189128 0)
(-0.00176947 -0.000127588 0)
(-0.00095598 -7.91785e-05 0)
(1.49231e-05 -0.00127793 0)
(-2.53716e-07 -0.000674814 0)
(2.09068e-06 -0.000668004 0)
(4.5975e-07 -0.000380534 0)
(2.24427e-05 -0.0012938 0)
(1.92952e-05 -0.00129705 0)
(-0.000513932 -0.00120502 0)
(-0.000493152 -0.00123813 0)
(-0.000265104 -0.000629401 0)
(-1.3173e-05 -0.000824892 0)
(-5.19872e-05 -0.000899886 0)
(-1.63307e-05 -0.000475031 0)
(-1.8938e-05 -0.00288936 0)
(-6.31791e-06 -0.00285027 0)
(-6.30109e-06 -0.00151994 0)
(-0.000423166 -0.00199426 0)
(-0.000230867 -0.00102649 0)
(-0.000239332 -0.00256824 0)
(-0.000268676 -0.00237674 0)
(-0.000127585 -0.0013012 0)
(1.82603e-06 -0.00137041 0)
(4.37721e-06 -0.00133576 0)
(-2.56059e-06 -0.000766848 0)
(1.40422e-05 -0.000772871 0)
(2.94357e-06 -0.000445979 0)
(2.18906e-05 -0.0013123 0)
(1.93224e-05 -0.0013158 0)
(-0.000578831 -0.0016197 0)
(-0.000581217 -0.00151357 0)
(-0.000303973 -0.000814229 0)
(-0.000531976 -0.00178723 0)
(-0.000269525 -0.000951492 0)
(-0.00195763 -0.000598228 0)
(-0.00197686 -0.000863942 0)
(-0.00103218 -0.000371632 0)
(-7.69776e-05 -0.00297436 0)
(-0.000101748 -0.00289556 0)
(-4.48071e-05 -0.00155016 0)
(-0.00045839 -0.00191423 0)
(-0.000494611 -0.00185227 0)
(-0.000250054 -0.000986947 0)
(-0.00199263 4.34332e-05 0)
(-0.00189801 5.45201e-05 0)
(-1.7062e-05 -0.00353424 0)
(1.33345e-05 -0.00345776 0)
(-0.00196537 4.96982e-06 0)
(-0.00192893 -1.17565e-05 0)
(-5.1024e-05 -0.00318866 0)
(-4.31263e-05 -0.0032565 0)
(-0.000114177 -0.00164649 0)
(-0.000745936 -0.00272405 0)
(-0.0037135 -0.00310561 0)
(-0.00303612 -9.99727e-06 0)
(-0.0033604 -2.13713e-07 0)
(-0.0026178 1.88301e-06 0)
(-0.000481251 -0.00661523 0)
(-0.000481252 -0.00602885 0)
(-0.000101046 -0.0063247 0)
(-0.000133551 -0.00643516 0)
(-4.85764e-05 -0.00659772 0)
(-0.00369633 -0.000192729 0)
(-0.00379752 -0.000151843 0)
(-0.0038786 -0.000299831 0)
(-1.62393e-05 -0.00449249 0)
(-1.48653e-05 -0.00486149 0)
(-7.90332e-06 -0.00565531 0)
(-0.00137085 -0.0069844 0)
(-0.00252294 3.53849e-05 0)
(-0.00230857 1.65503e-05 0)
(-0.0028302 -1.50667e-05 0)
(-0.00245594 1.24739e-05 0)
(-0.00220826 8.05445e-06 0)
(-4.08238e-05 -0.00493576 0)
(-5.71509e-06 -0.00440624 0)
(-9.4685e-06 -0.00394192 0)
(-5.61468e-06 -0.0057668 0)
(2.74635e-05 -0.0046061 0)
(8.01476e-06 -0.00426618 0)
(-0.00351734 -3.64483e-05 0)
(-0.00356702 -4.79157e-05 0)
(-0.00304463 -0.0061612 0)
(-0.00283428 1.78765e-05 0)
(-0.00246327 -4.01528e-06 0)
(-0.0022137 -2.32246e-06 0)
(-0.00312576 -2.4363e-06 0)
(-0.00257158 -2.02867e-05 0)
(-0.00236778 -9.97026e-06 0)
(-4.73293e-06 -0.00502128 0)
(-3.57494e-05 -0.0041256 0)
(-1.50645e-05 -0.00379653 0)
(-0.00407231 -0.0012966 0)
(-0.00411864 -0.000631632 0)
(-0.000108866 -0.00197184 0)
(-0.000121767 -0.00164235 0)
(-0.000252118 -0.00241647 0)
(-0.000201322 -0.00198911 0)
(-0.000252592 -0.00184608 0)
(-3.32584e-05 -0.00135521 0)
(-5.372e-05 -0.00180662 0)
(-7.16056e-05 -0.00166707 0)
(-8.96936e-06 -0.00147557 0)
(-0.00182957 -0.0014977 0)
(-0.00148928 -0.00180658 0)
(-0.00393451 -0.0037741 0)
(-0.00326844 -0.00353079 0)
(-0.00414159 -0.00309134 0)
(-0.00358575 -0.00223695 0)
(-0.0034228 -1.87817e-05 0)
(-0.00290196 -2.50575e-05 0)
(-0.00369093 2.16298e-06 0)
(-0.00311333 -6.47207e-06 0)
(-0.00408965 -1.60361e-05 0)
(-0.00435469 1.49859e-05 0)
(-0.00348394 -1.32292e-05 0)
(-0.00366262 1.11036e-05 0)
(-0.00338954 2.41673e-05 0)
(-0.0033246 9.48035e-06 0)
(-0.000456011 -0.00717828 0)
(-0.000328025 -0.00583641 0)
(-0.000618554 -0.00718991 0)
(-0.000618349 -0.00604718 0)
(-0.000591793 -0.00635142 0)
(-0.000505002 -0.00506785 0)
(-0.000469252 -0.00661684 0)
(-0.0003182 -0.00547013 0)
(-0.000217422 -0.00579209 0)
(-0.000109404 -0.00680413 0)
(-6.58787e-05 -0.00559311 0)
(-0.000119445 -0.00695063 0)
(-0.000101267 -0.00572367 0)
(-0.00026374 -0.00998247 0)
(-7.63897e-05 -0.00706259 0)
(-0.000102543 -0.0069598 0)
(-7.35156e-05 -0.00584559 0)
(-3.0346e-05 -0.00693064 0)
(-7.52629e-06 -0.00559116 0)
(-0.000237481 -0.00969434 0)
(-8.82022e-05 -0.00832854 0)
(-0.000133526 -0.00843062 0)
(-0.0040088 -0.000173177 0)
(-0.00325949 -0.000106397 0)
(-0.00404192 -0.000260217 0)
(-0.00330843 -0.000258154 0)
(-0.00404052 -0.000148449 0)
(-0.0033063 -9.91175e-05 0)
(-0.00414439 -0.00028446 0)
(-0.00410399 -0.000186365 0)
(-0.00346982 -0.000191856 0)
(-0.00432889 -0.000584149 0)
(-0.00417679 -0.000377986 0)
(-0.00356447 -0.00039098 0)
(2.43383e-05 -0.00430936 0)
(-1.22748e-06 -0.00489388 0)
(-8.65098e-06 -0.00397519 0)
(-2.73356e-05 -0.00560517 0)
(-3.07892e-05 -0.00478719 0)
(-2.75315e-05 -0.00713548 0)
(2.03348e-06 -0.00614878 0)
(-1.40775e-05 -0.00660071 0)
(-5.02647e-05 -0.00616005 0)
(-3.57258e-05 -0.00598103 0)
(-1.30835e-05 -0.00623142 0)
(-7.31362e-06 -0.00528778 0)
(-0.00173139 -0.00769542 0)
(-0.00167616 -0.00641301 0)
(-0.000880413 -0.00410031 0)
(-0.000669875 -0.00450685 0)
(-0.00204602 -0.0094555 0)
(-0.00347889 -3.64082e-06 0)
(-0.00294882 -1.60821e-06 0)
(-0.00274367 -6.81941e-06 0)
(-0.00413076 -1.28106e-05 0)
(-0.00351536 6.10487e-06 0)
(-0.00328429 -6.67643e-06 0)
(-0.00330042 -1.15823e-05 0)
(-0.00362355 1.44364e-05 0)
(-0.00384439 -3.48533e-05 0)
(-0.00310127 -1.4873e-05 0)
(-0.0039071 -7.30201e-05 0)
(-0.00320519 -7.43475e-05 0)
(-0.00316169 -0.00698184 0)
(-0.00250247 -0.00602244 0)
(-0.00341766 -0.00650052 0)
(-0.0029915 -0.00506374 0)
(-0.00131018 -0.00306435 0)
(-0.00242046 -0.000630222 0)
(-0.00439272 -0.000794826 0)
(-0.00439451 -0.0012023 0)
(-0.0037306 -0.000826363 0)
(-0.0052506 -0.00109865 0)
(-0.000627352 -0.00334751 0)
(-0.000390205 -0.00284732 0)
(-0.000254132 -0.0022515 0)
(-0.000371798 -0.00208528 0)
(-0.000699616 -0.00280044 0)
(-0.00041526 -0.00233056 0)
(-0.000438578 -0.00210108 0)
(-0.000725254 -0.00338114 0)
(-0.000911666 -0.00363412 0)
(3.99633e-06 -0.00124312 0)
(4.6009e-06 -0.00140317 0)
(9.0289e-07 -0.00128201 0)
(3.38682e-06 -0.00146942 0)
(-1.67076e-05 -0.0014171 0)
(-0.00102448 -0.00245391 0)
(-0.00347332 -0.00688934 0)
(-0.00299891 -0.00410403 0)
(-0.00345164 -0.0053826 0)
(-0.00418906 -0.00655641 0)
(-0.00359481 -0.00444808 0)
(-0.000944768 -0.00243035 0)
(-0.00218915 -0.00163192 0)
(-0.00183742 -0.00124803 0)
(-0.00160361 -0.00214779 0)
(-0.00117974 -0.00179436 0)
(-0.00200516 -0.00182909 0)
(-0.00253266 -0.00276916 0)
(-0.00270554 -0.0025945 0)
(-0.00178887 -0.00198657 0)
(-0.0015312 -0.001529 0)
(-0.00448952 -0.00535243 0)
(-0.00437969 -0.00164877 0)
(-0.00418443 -0.00222131 0)
(-0.00368658 -0.00165166 0)
(-0.00219697 -0.00104633 0)
(-0.00431936 -0.00465612 0)
(-0.00390233 -0.00421937 0)
(-0.00517058 -0.00323553 0)
(-0.00346774 -1.07938e-05 0)
(-0.00337589 -3.24828e-05 0)
(-0.00286251 -1.77045e-05 0)
(-0.00379885 -3.34969e-05 0)
(-0.00360033 -2.70748e-05 0)
(-0.00311956 -2.73455e-05 0)
(-0.0054533 -8.65519e-05 0)
(-0.00483548 -5.74479e-05 0)
(-0.00465544 8.8877e-06 0)
(-0.00433098 4.82431e-06 0)
(-0.00523263 -1.22822e-05 0)
(-0.00499182 1.22167e-06 0)
(-0.000333944 -0.00658897 0)
(-0.000222489 -0.00543269 0)
(-0.000906047 -0.00892801 0)
(-0.00131335 -0.00758843 0)
(-0.000897403 -0.00715114 0)
(-0.00091705 -0.00627512 0)
(-0.00103896 -0.00900343 0)
(-0.00109317 -0.0103445 0)
(-0.000909235 -0.0103431 0)
(-0.00179304 -0.00948322 0)
(-0.00139037 -0.00832667 0)
(-0.00132729 -0.010289 0)
(-0.00147545 -0.00939808 0)
(-0.00123874 -0.00966567 0)
(-0.00184246 -0.010174 0)
(-0.00152649 -0.0102598 0)
(-0.0017191 -0.0102204 0)
(-0.000426143 -0.00941118 0)
(-0.000290909 -0.00644736 0)
(-0.000413395 -0.0083379 0)
(-0.000362536 -0.00858203 0)
(-0.000323521 -0.00625171 0)
(-0.000248198 -0.00523272 0)
(-0.000211362 -0.00973823 0)
(-0.000273905 -0.0101847 0)
(-0.000243451 -0.00917192 0)
(-0.00020821 -0.00884567 0)
(-0.00019107 -0.00690221 0)
(-0.000210295 -0.00663786 0)
(-0.000170289 -0.00570254 0)
(-0.000186113 -0.0097428 0)
(-0.000188311 -0.0098937 0)
(-4.42506e-05 -0.00638187 0)
(-4.97767e-05 -0.00522897 0)
(-0.000346621 -0.0102408 0)
(-0.000289473 -0.0099598 0)
(-0.000308412 -0.0102677 0)
(-0.000390477 -0.0104271 0)
(-2.50635e-05 -0.00769076 0)
(-5.37566e-06 -0.00718989 0)
(5.83771e-06 -0.00777203 0)
(-0.000138853 -0.00960574 0)
(-8.23764e-05 -0.00830063 0)
(-7.84194e-05 -0.00822207 0)
(-0.00365222 -9.87694e-05 0)
(-0.00369222 -9.9602e-05 0)
(-0.00306149 -7.97883e-05 0)
(-0.00499898 -0.000465904 0)
(-0.0038694 -0.000371815 0)
(-0.00327542 -0.000339606 0)
(-0.00511644 -0.000640639 0)
(-0.00380863 -4.9011e-05 0)
(-0.00372986 -8.63406e-05 0)
(-0.00318067 -5.23623e-05 0)
(-0.00491549 -0.000314973 0)
(-0.0049297 -0.000272531 0)
(-0.00561555 -0.000451823 0)
(-0.005819 -0.000414879 0)
(-0.00569338 -0.000311337 0)
(-0.0050392 -0.000237039 0)
(-0.0055074 -8.51975e-05 0)
(-0.00496801 -9.13761e-05 0)
(-0.0058885 -0.000292353 0)
(-0.00588117 -0.000225285 0)
(-0.00555012 -0.000259644 0)
(-0.0058056 -0.000305485 0)
(-0.0055522 -0.000547643 0)
(-0.00495261 -0.000520381 0)
(-0.00497254 -0.000618521 0)
(-1.36544e-05 -0.00717266 0)
(-5.01755e-05 -0.00603022 0)
(-5.13437e-05 -0.0068893 0)
(4.21962e-06 -0.00593611 0)
(3.66011e-05 -0.00538763 0)
(3.53921e-05 -0.00542381 0)
(-6.99222e-06 -0.00606323 0)
(-6.36873e-06 -0.0072669 0)
(-6.13549e-05 -0.00750707 0)
(-3.70985e-05 -0.00570347 0)
(-1.53109e-05 -0.00492783 0)
(-4.44407e-05 -0.00763407 0)
(-5.13854e-05 -0.0078667 0)
(-0.00222643 -0.00937104 0)
(-0.0021397 -0.0101803 0)
(-0.0026249 -0.00702214 0)
(-0.00215512 -0.00725092 0)
(-0.0020396 -0.00605679 0)
(-0.00104515 -0.00456484 0)
(-0.000880359 -0.00366948 0)
(-0.000862533 -0.00504604 0)
(-0.00121887 -0.00672246 0)
(-0.00133737 -0.00641665 0)
(-0.000967421 -0.00476118 0)
(-0.000739134 -0.00399568 0)
(-0.000599843 -0.00555329 0)
(-0.000690585 -0.00527864 0)
(-0.000517084 -0.0044143 0)
(-0.00120511 -0.00340555 0)
(-0.00108218 -0.00365587 0)
(-0.0043962 -2.60997e-05 0)
(-0.00404773 2.1474e-05 0)
(-0.00412425 1.45417e-05 0)
(-0.00474765 -1.84608e-05 0)
(-0.00479537 -1.1207e-05 0)
(-0.00366803 -0.00870452 0)
(-0.00406548 -0.00919191 0)
(-0.00411659 -0.00791451 0)
(-0.00420259 -0.00888424 0)
(-0.00143261 -0.00338723 0)
(-0.00115162 -0.00273324 0)
(-0.00300184 -0.00786398 0)
(-0.00269395 -0.00824342 0)
(-0.00246986 -0.00720039 0)
(-0.00253045 -0.00695848 0)
(-0.00285294 -0.000845416 0)
(-0.00234369 -0.000762674 0)
(-0.00362628 -0.000861067 0)
(-0.00274622 -0.000646226 0)
(-0.00224638 -0.000470186 0)
(-0.00560622 -0.00191468 0)
(-0.00534735 -0.00230657 0)
(-0.00494505 -0.00216675 0)
(-0.00530126 -0.00193317 0)
(-0.00438114 -0.00119804 0)
(-0.00422884 -0.0013369 0)
(-0.00484659 -0.00182572 0)
(-0.00443708 -0.00157705 0)
(-0.00517905 -0.00126655 0)
(-0.00554387 -0.00155253 0)
(-0.00555786 -0.00174816 0)
(-0.00506822 -0.0010356 0)
(-0.00563346 -0.00143569 0)
(-0.00546297 -0.00148442 0)
(-0.00513676 -0.001287 0)
(-0.00512888 -0.000362669 0)
(-0.00584462 -0.000415793 0)
(-0.00568413 -0.000359928 0)
(-0.00576928 -0.00055537 0)
(-0.00537043 -0.000453592 0)
(-0.00463121 -0.000844732 0)
(-0.00463535 -0.000630672 0)
(-0.00368497 -0.000470152 0)
(-0.00301326 -0.000393532 0)
(-0.00560047 -0.000814525 0)
(-0.00558219 -0.00101436 0)
(-0.00569782 -0.00116503 0)
(-0.00562657 -0.00107706 0)
(-0.00559097 -0.000800167 0)
(-0.00576247 -0.000708775 0)
(-0.00581728 -0.000693072 0)
(-0.00357471 -0.00860294 0)
(-0.00325825 -0.00783015 0)
(-0.00237407 -0.00563964 0)
(-0.00187171 -0.00455571 0)
(-0.00141486 -0.00331468 0)
(-0.00122038 -0.00289204 0)
(-0.00104038 -0.00242835 0)
(-0.0017544 -0.00420099 0)
(-0.00184024 -0.0043906 0)
(-0.00152128 -0.00379582 0)
(-0.00115286 -0.0028369 0)
(-0.00092999 -0.00237418 0)
(-0.00346239 -0.00728187 0)
(-0.00105348 -0.00388608 0)
(-0.00113716 -0.00333587 0)
(-0.000918348 -0.00324549 0)
(-0.00129633 -0.00221821 0)
(-0.00177967 -0.00305408 0)
(-0.0016879 -0.00331182 0)
(-0.00114834 -0.00251798 0)
(-0.000965042 -0.00188737 0)
(-0.00250525 -0.00131291 0)
(-0.0022825 -0.00144794 0)
(-0.00195715 -0.00112005 0)
(-0.00333598 -0.00402367 0)
(-0.00279627 -0.00336401 0)
(-0.00215912 -0.00339101 0)
(-0.00216455 -0.00295719 0)
(-0.00387315 -0.00686449 0)
(-0.00444816 -0.0066455 0)
(-0.00433018 -0.00724669 0)
(-0.00451759 -0.0062954 0)
(-0.00421242 -0.00539763 0)
(-0.004364 -0.00607541 0)
(-0.00469716 -0.00529926 0)
(-0.00465156 -0.00562247 0)
(-0.0045888 -0.00522414 0)
(-0.00452541 -0.00464405 0)
(-0.00551763 -0.00250863 0)
(-0.00517076 -0.00222764 0)
(-0.00554427 -0.00220494 0)
(-0.00544005 -0.00302949 0)
(-0.00532998 -0.00312219 0)
(-0.00507883 -0.0026682 0)
(-0.00476399 -0.00285615 0)
(-0.00346475 -0.00187591 0)
(-0.00393914 -0.00194704 0)
(-0.00462522 -0.0022615 0)
(-0.00507154 -0.0036493 0)
(-0.00470472 -0.00428633 0)
(-0.00465824 -0.00381928 0)
(-0.0042019 -0.0034651 0)
(-0.00380752 -0.00354241 0)
(-0.00323502 -0.00289661 0)
(-0.00457628 -5.9754e-05 0)
(-0.00533612 -1.21484e-05 0)
(-0.00503183 -4.15114e-05 0)
(-0.00465696 -7.19799e-05 0)
(-0.00554703 -3.77543e-05 0)
(-0.00525757 -3.41736e-05 0)
(-0.00484945 -3.41491e-05 0)
(-0.00430225 -1.81747e-05 0)
(-0.00509897 -2.75614e-05 0)
(-0.0046343 -6.71875e-06 0)
(-0.00426734 -6.17952e-07 0)
(-0.000142278 -0.0065499 0)
(-0.000263051 -0.00841146 0)
(-0.000212368 -0.00638552 0)
(-0.000141738 -0.00539945 0)
(-0.000499121 -0.00950111 0)
(-0.000547283 -0.00895641 0)
(-0.000832734 -0.0100888 0)
(-0.000824892 -0.0096063 0)
(-0.000298445 -0.00985361 0)
(-0.000366348 -0.0101058 0)
(-0.000422605 -0.00928434 0)
(-0.000370778 -0.00826719 0)
(-0.000325882 -0.00804395 0)
(-0.00033821 -0.00869356 0)
(-0.000511452 -0.00884553 0)
(-0.000569524 -0.00838629 0)
(-0.000749682 -0.00925228 0)
(-0.000796748 -0.00999293 0)
(-0.0013005 -0.00958323 0)
(-0.000795269 -0.0070852 0)
(-0.000976366 -0.00732147 0)
(-0.00121846 -0.0083379 0)
(-0.00111418 -0.00959112 0)
(-0.000896777 -0.00890324 0)
(-0.000766537 -0.00783309 0)
(-0.00033635 -0.0099192 0)
(-0.000230131 -0.00844333 0)
(-0.000261671 -0.00952046 0)
(-0.000265602 -0.00828249 0)
(-0.000332758 -0.00931245 0)
(-0.00012086 -0.00824188 0)
(-0.000103998 -0.00820604 0)
(-0.000107746 -0.00894871 0)
(-0.000151388 -0.00974418 0)
(-0.000189019 -0.00961224 0)
(-0.00012549 -0.00892186 0)
(-2.19669e-05 -0.00603191 0)
(-0.000105448 -0.00759507 0)
(-9.78721e-05 -0.00777114 0)
(-7.8009e-05 -0.0061014 0)
(-3.76048e-05 -0.00509308 0)
(-0.00480846 -0.000134817 0)
(-0.00470473 -0.000109414 0)
(-0.00582021 -0.000188793 0)
(-0.00552718 -0.000167134 0)
(-0.00500259 -0.00010972 0)
(-0.00588608 -0.000118614 0)
(-0.00580503 -6.3525e-05 0)
(-0.00562072 -0.000139448 0)
(-0.00508846 -0.00012076 0)
(-0.00457035 -0.000126368 0)
(-0.00561746 -0.000178912 0)
(-0.00514718 -0.000190693 0)
(-0.00466164 -0.000165915 0)
(-5.53538e-06 -0.0087116 0)
(-4.38949e-05 -0.00855653 0)
(-5.93891e-06 -0.0085187 0)
(-9.76458e-05 -0.00814647 0)
(-0.000118946 -0.0087682 0)
(-8.67648e-05 -0.00809505 0)
(-8.05655e-05 -0.00754524 0)
(-0.00257296 -0.00939209 0)
(-0.00241098 -0.0101362 0)
(-0.00236746 -0.00991512 0)
(-0.00276625 -0.0100901 0)
(-0.00264401 -0.0088267 0)
(-0.00258936 -0.00959685 0)
(-0.00203231 -0.00550018 0)
(-0.00139606 -0.0037691 0)
(-0.00112228 -0.0029473 0)
(-0.00127965 -0.00413831 0)
(-0.00172353 -0.00557559 0)
(-0.00184462 -0.00561101 0)
(-0.00134714 -0.00401354 0)
(-0.00106525 -0.00329445 0)
(-0.00241747 -0.0086717 0)
(-0.00194713 -0.00657461 0)
(-0.00243852 -0.00792612 0)
(-0.00107789 -0.00431326 0)
(-0.00121368 -0.00430013 0)
(-0.000932562 -0.00350841 0)
(-0.00170839 -0.00614941 0)
(-0.00411357 -0.00872289 0)
(-0.003617 -0.00788685 0)
(-0.00382088 -0.00794292 0)
(-0.00382995 -0.00854058 0)
(-0.00360743 -0.00809176 0)
(-0.00433062 -0.00756825 0)
(-0.00435296 -0.00783798 0)
(-0.00436482 -0.00732967 0)
(-0.00415915 -0.00836494 0)
(-0.00406376 -0.00814629 0)
(-0.00197677 -0.00472152 0)
(-0.00239856 -0.00573686 0)
(-0.00297278 -0.00720846 0)
(-0.00284503 -0.0071169 0)
(-0.00190895 -0.0046351 0)
(-0.00214253 -0.0053239 0)
(-0.00134251 -0.00322488 0)
(-0.00107422 -0.00261921 0)
(-0.00333439 -0.00875653 0)
(-0.00367772 -0.00911797 0)
(-0.00382951 -0.00936923 0)
(-0.00344224 -0.00134003 0)
(-0.00261811 -0.000962992 0)
(-0.00207894 -0.000827214 0)
(-0.00334856 -0.00149195 0)
(-0.00257569 -0.00113817 0)
(-0.00303513 -0.000462086 0)
(-0.00380532 -0.000685423 0)
(-0.00353332 -0.000695911 0)
(-0.00264629 -0.000514142 0)
(-0.00225095 -0.000382595 0)
(-0.00114662 -0.00308201 0)
(-0.00150563 -0.00389087 0)
(-0.000933688 -0.00272807 0)
(-0.00107811 -0.00339016 0)
(-0.00144581 -0.00428437 0)
(-0.00304105 -0.00698459 0)
(-0.00320402 -0.00731957 0)
(-0.00235155 -0.00546279 0)
(-0.00289525 -0.00605703 0)
(-0.00178377 -0.00425949 0)
(-0.00202315 -0.0041111 0)
(-0.00268859 -0.00426438 0)
(-0.0032418 -0.00455005 0)
(-0.00296886 -0.00539188 0)
(-0.00262084 -0.00475197 0)
(-0.00480483 -0.00445963 0)
(-0.00493295 -0.0043605 0)
(-0.00486763 -0.00475281 0)
(-0.00510701 -0.00390578 0)
(-0.00515878 -0.00367439 0)
(-0.00486035 -0.00373249 0)
(-0.0039759 -0.00297809 0)
(-0.004206 -0.00270115 0)
(-0.00335829 -0.00261907 0)
(-0.00300389 -0.00221668 0)
(-0.00351753 -0.00213034 0)
(-0.00304211 -0.00197509 0)
(-0.00559018 -5.23255e-05 0)
(-0.00562406 -6.79494e-05 0)
(-0.00488789 -5.40357e-05 0)
(-0.00470389 -4.90252e-05 0)
(-0.00520802 -0.000104247 0)
(-0.00553784 -7.85795e-05 0)
(-0.000491402 -0.0101183 0)
(-0.000441658 -0.0103801 0)
(-0.000617797 -0.00991253 0)
(-0.000701157 -0.0101151 0)
(-0.000696216 -0.0102297 0)
(-0.000580931 -0.0101356 0)
(-7.22e-05 -0.00958041 0)
(-0.000138294 -0.00928766 0)
(-0.000130023 -0.00902267 0)
(-0.000138523 -0.00912732 0)
(-7.34564e-06 -0.00923766 0)
(-1.76531e-05 -0.00927514 0)
(-0.00337685 -0.00958414 0)
(-0.00314255 -0.00935334 0)
(-0.00297661 -0.0100593 0)
(-0.00295302 -0.00973595 0)
(-0.00354067 -0.00914154 0)
(-0.00305725 -0.00924723 0)
(-0.00312015 -0.0085917 0)
(-0.00321439 -0.00984556 0)
(-0.00350218 -0.00986692 0)
(-0.00366325 -0.00968215 0)
(-0.0021917 -0.00812621 0)
(-0.00149232 -0.00597184 0)
(-0.00173837 -0.00662924 0)
(-0.00142631 -0.00614401 0)
(-0.00191996 -0.00820106 0)
(-0.00166031 -0.00720941 0)
(-0.00131196 -0.00339363 0)
(-0.00129564 -0.00324513 0)
(-0.00106418 -0.00269096 0)
(-0.00192157 -0.00486053 0)
(-0.00187349 -0.00492525 0)
(-0.00227022 -0.0058385 0)
(-0.00179166 -0.00462988 0)
(-0.00181189 -0.00486846 0)
(-0.00158379 -0.00481348 0)
(-0.00207662 -0.00542453 0)
(-0.00249867 -0.00620859 0)
(-0.00219273 -0.0057383 0)
(-0.00165225 -0.00482244 0)
(-0.00145517 -0.00457902 0)
(-0.00392396 -0.00637028 0)
(-0.00423719 -0.00624391 0)
(-0.0042601 -0.00573825 0)
(-0.00348158 -0.00567847 0)
(-0.00361396 -0.00530908 0)
(-0.00217719 -0.00542385 0)
(-0.00219326 -0.00535609 0)
(-0.00247339 -0.0061723 0)
(-0.00283537 -0.00679653 0)
(-0.00309798 -0.00735823 0)
(-0.00261804 -0.00627562 0)
(-0.00268181 -0.00636582 0)
(-0.00293882 -0.00698138 0)
(-0.00324156 -0.00753467 0)
)
;

boundaryField
{
    wall-4
    {
        type            fixedValue;
        value           uniform (0 0 0);
    }
    velocity-inlet-5
    {
        type            fixedValue;
        value           uniform (0 0 0);
    }
    velocity-inlet-6
    {
        type            fixedValue;
        value           uniform (0 0 0);
    }
    pressure-outlet-7
    {
        type            fixedValue;
        value           uniform (0 0 0);
    }
    wall-8
    {
        type            fixedValue;
        value           uniform (0 0 0);
    }
    frontAndBackPlanes
    {
        type            empty;
    }
}

