/*--------------------------------*- C++ -*----------------------------------*\
  =========                 |
  \\      /  F ield         | OpenFOAM: The Open Source CFD Toolbox
   \\    /   O peration     | Website:  https://openfoam.org
    \\  /    A nd           | Version:  6
     \\/     M anipulation  |
\*---------------------------------------------------------------------------*/
FoamFile
{
    version     2.0;
    format      ascii;
    class       volVectorField;
    location    "0";
    object      U_rec;
}
// * * * * * * * * * * * * * * * * * * * * * * * * * * * * * * * * * * * * * //

dimensions      [0 1 -1 0 0 0 0];

internalField   nonuniform List<vector> 
9000
(
(0.5901 0.151493 0)
(0.469051 0.0653885 0)
(0.283951 0.0221658 0)
(0.1997 0.00983467 0)
(0.154049 0.00568532 0)
(0.127045 0.00296155 0)
(0.110601 0.0026546 0)
(0.0992757 0.000720079 0)
(0.0908133 -3.02155e-05 0)
(0.0854899 -0.000445519 0)
(0.0818788 0.00196616 0)
(0.0791241 0.00194843 0)
(0.0762689 0.00226433 0)
(0.0759245 0.00186403 0)
(0.0757276 -0.000105877 0)
(0.0745462 -0.00107311 0)
(0.0735118 -0.00103477 0)
(0.072706 0.000458829 0)
(0.0725198 0.00125299 0)
(0.0729189 0.00251558 0)
(0.0734343 0.00131999 0)
(0.0730394 0.00201757 0)
(0.0727709 0.00110205 0)
(0.0727796 0.00103985 0)
(0.0727118 0.00117552 0)
(0.0733892 0.00155891 0)
(0.0722319 -0.000558066 0)
(0.0724821 0.000137909 0)
(0.073142 -0.0010687 0)
(0.0721796 -0.00104772 0)
(0.073155 -9.2522e-06 0)
(0.0729431 -0.00170333 0)
(0.0725819 -0.00179964 0)
(0.0727738 -0.00158917 0)
(0.0720088 -0.0012364 0)
(0.0721702 -0.000852771 0)
(0.0724311 0.000211767 0)
(0.072939 -0.00117746 0)
(0.0733535 -0.000518449 0)
(0.0739519 -0.000515728 0)
(0.0742806 -0.000327706 0)
(0.0738116 -0.00069383 0)
(0.0744267 -4.71698e-05 0)
(0.0753294 1.63763e-05 0)
(0.0773888 -0.0013363 0)
(0.079302 -0.00270685 0)
(0.0825991 -0.00246596 0)
(0.0916184 -0.000985989 0)
(0.111768 -0.00833324 0)
(0.162612 -0.0478859 0)
(0.934615 0.334897 0)
(0.850681 0.230488 0)
(0.646612 0.129359 0)
(0.510034 0.0742232 0)
(0.418027 0.0448993 0)
(0.356886 0.0275851 0)
(0.315596 0.0205379 0)
(0.285592 0.0105419 0)
(0.264462 0.00710178 0)
(0.251651 0.00354811 0)
(0.241556 0.0064348 0)
(0.232418 0.00600854 0)
(0.225065 0.00473548 0)
(0.221579 0.00495056 0)
(0.219915 0.00143087 0)
(0.218262 -0.000464085 0)
(0.217141 -0.00180422 0)
(0.215546 0.000129996 0)
(0.214799 0.00254979 0)
(0.214186 0.00434892 0)
(0.214796 0.00363639 0)
(0.214188 0.00334392 0)
(0.213119 0.00225688 0)
(0.213781 0.00300675 0)
(0.213849 0.00364003 0)
(0.213512 0.00119682 0)
(0.211779 -0.000168255 0)
(0.212613 4.79137e-05 0)
(0.213236 -0.00339083 0)
(0.213269 -0.00109248 0)
(0.213833 -0.00138594 0)
(0.212606 -0.00300781 0)
(0.213196 -0.0040482 0)
(0.213883 -0.00384889 0)
(0.212467 -0.00199681 0)
(0.213091 -0.000860903 0)
(0.213037 -0.000434108 0)
(0.214427 -0.00081946 0)
(0.216345 -0.00145338 0)
(0.217163 -0.000498086 0)
(0.217866 -0.00160539 0)
(0.218301 -0.00345498 0)
(0.220821 -0.00266906 0)
(0.222644 -0.00353318 0)
(0.227355 -0.00442929 0)
(0.235048 -0.00782733 0)
(0.248066 -0.0109447 0)
(0.268716 -0.0167382 0)
(0.305547 -0.0405471 0)
(0.377096 -0.102891 0)
(1.0117 0.320382 0)
(1.00436 0.314055 0)
(0.863077 0.222241 0)
(0.73364 0.147085 0)
(0.629177 0.0982849 0)
(0.553862 0.066373 0)
(0.496913 0.0454798 0)
(0.454663 0.029756 0)
(0.425285 0.0219077 0)
(0.406136 0.0157633 0)
(0.391773 0.0121612 0)
(0.376816 0.00802397 0)
(0.366486 0.00723609 0)
(0.360946 0.00780643 0)
(0.3569 0.00334799 0)
(0.353854 0.00124527 0)
(0.352193 0.000936824 0)
(0.351424 0.000502425 0)
(0.350359 0.0032757 0)
(0.348899 0.00365943 0)
(0.348734 0.00527107 0)
(0.347469 0.00230333 0)
(0.347192 0.0027605 0)
(0.348373 0.00365061 0)
(0.346055 0.00385545 0)
(0.345758 0.00039271 0)
(0.345357 -0.000274315 0)
(0.344268 -0.00239537 0)
(0.346503 -0.00495127 0)
(0.347033 -0.00222721 0)
(0.346649 -0.00312139 0)
(0.345404 -0.00292365 0)
(0.345713 -0.00302935 0)
(0.348111 -0.00329163 0)
(0.34719 -0.00147258 0)
(0.346656 0.000365226 0)
(0.347264 0.000239787 0)
(0.348904 0.00123623 0)
(0.351389 -0.00155649 0)
(0.352913 -0.00045715 0)
(0.353087 -0.00239053 0)
(0.355589 -0.00484856 0)
(0.360116 -0.00651814 0)
(0.364474 -0.00815589 0)
(0.372307 -0.010308 0)
(0.383399 -0.0152278 0)
(0.402667 -0.0229626 0)
(0.431116 -0.0422707 0)
(0.474175 -0.0751947 0)
(0.538178 -0.147915 0)
(1.02345 0.276238 0)
(1.06163 0.345598 0)
(0.982351 0.290303 0)
(0.884378 0.213663 0)
(0.790788 0.155064 0)
(0.713013 0.110647 0)
(0.652344 0.0764814 0)
(0.60655 0.0568852 0)
(0.572081 0.0423488 0)
(0.547322 0.0313982 0)
(0.527785 0.022195 0)
(0.512167 0.014082 0)
(0.501241 0.0130839 0)
(0.491445 0.0103223 0)
(0.485243 0.00570651 0)
(0.483361 0.00341196 0)
(0.480741 0.00284121 0)
(0.479156 0.00162067 0)
(0.478129 0.00349329 0)
(0.476346 0.00186564 0)
(0.475063 0.0039455 0)
(0.473381 0.000815846 0)
(0.474026 0.00263193 0)
(0.474671 0.00247001 0)
(0.471863 0.00223386 0)
(0.47059 0.000450027 0)
(0.469503 -0.00207723 0)
(0.469122 -0.00139583 0)
(0.472433 -0.00388351 0)
(0.473406 -0.00292377 0)
(0.47312 -0.00141165 0)
(0.472098 -0.00198525 0)
(0.47211 -0.000997753 0)
(0.474398 -0.00247554 0)
(0.474446 -0.00237964 0)
(0.474085 0.00100971 0)
(0.474286 -3.38117e-05 0)
(0.475351 0.000416397 0)
(0.478742 -0.00163737 0)
(0.481661 -0.00245923 0)
(0.482164 -0.00498379 0)
(0.485117 -0.00603047 0)
(0.491505 -0.0096266 0)
(0.497747 -0.0122921 0)
(0.507962 -0.017674 0)
(0.523302 -0.0264817 0)
(0.544374 -0.0402307 0)
(0.576213 -0.0672663 0)
(0.619247 -0.10766 0)
(0.671014 -0.182294 0)
(1.01878 0.233992 0)
(1.07594 0.3487 0)
(1.04585 0.329075 0)
(0.981838 0.265476 0)
(0.908162 0.201928 0)
(0.83896 0.150733 0)
(0.783261 0.114246 0)
(0.738605 0.0846644 0)
(0.701379 0.0647226 0)
(0.674807 0.0481793 0)
(0.653649 0.0345779 0)
(0.637004 0.0243248 0)
(0.624825 0.0197619 0)
(0.61341 0.0130759 0)
(0.606766 0.00871382 0)
(0.603697 0.00594656 0)
(0.600614 0.00281247 0)
(0.599734 0.00141177 0)
(0.597608 0.00373203 0)
(0.595568 0.00386111 0)
(0.59433 0.00291599 0)
(0.592749 0.000203013 0)
(0.593649 0.00107833 0)
(0.593557 0.000257074 0)
(0.590193 0.000692203 0)
(0.587927 0.00013097 0)
(0.588978 -0.00150815 0)
(0.588009 0.000624295 0)
(0.590006 -0.00139962 0)
(0.593007 -0.00236364 0)
(0.59227 0.00059234 0)
(0.590734 0.000389127 0)
(0.590283 0.000546534 0)
(0.592486 -0.000465108 0)
(0.594856 -0.000154975 0)
(0.593812 -0.000169937 0)
(0.593157 -0.0022343 0)
(0.595554 -0.00167402 0)
(0.598942 -0.00486955 0)
(0.601952 -0.00565849 0)
(0.603953 -0.00927506 0)
(0.608197 -0.0103616 0)
(0.615195 -0.0145806 0)
(0.623474 -0.0206913 0)
(0.634925 -0.0293203 0)
(0.651274 -0.0402448 0)
(0.673917 -0.0577464 0)
(0.706193 -0.0878658 0)
(0.744458 -0.133791 0)
(0.783827 -0.203428 0)
(1.0134 0.197519 0)
(1.07385 0.336196 0)
(1.07453 0.344204 0)
(1.04057 0.297555 0)
(0.990843 0.238625 0)
(0.939774 0.188898 0)
(0.890884 0.147355 0)
(0.84935 0.110773 0)
(0.815998 0.0856793 0)
(0.788368 0.0651989 0)
(0.766414 0.0475132 0)
(0.751228 0.035533 0)
(0.738562 0.0261261 0)
(0.725821 0.0172675 0)
(0.719412 0.013346 0)
(0.716104 0.00934741 0)
(0.712578 0.00561085 0)
(0.712977 0.00507709 0)
(0.712043 0.00531809 0)
(0.707479 0.00454618 0)
(0.704118 0.00301823 0)
(0.703446 0.00128524 0)
(0.704654 0.000912081 0)
(0.704988 -0.000645095 0)
(0.702379 -0.000691526 0)
(0.699355 0.0023198 0)
(0.69995 -0.000298761 0)
(0.699519 0.000203098 0)
(0.700638 0.00110269 0)
(0.704784 -0.00108221 0)
(0.705478 0.000731766 0)
(0.702719 0.000411334 0)
(0.701963 0.00359119 0)
(0.704525 0.00370654 0)
(0.705456 0.002361 0)
(0.704043 -0.000823719 0)
(0.705484 -0.00159069 0)
(0.707303 -0.00275023 0)
(0.711425 -0.00632948 0)
(0.715683 -0.00880769 0)
(0.71788 -0.010798 0)
(0.723086 -0.0151065 0)
(0.729994 -0.0203372 0)
(0.738551 -0.0292622 0)
(0.752564 -0.0404376 0)
(0.771492 -0.054517 0)
(0.792484 -0.0730436 0)
(0.821447 -0.104603 0)
(0.854904 -0.153417 0)
(0.883475 -0.219261 0)
(1.00753 0.167108 0)
(1.06498 0.312989 0)
(1.08502 0.343334 0)
(1.07582 0.315549 0)
(1.05049 0.268154 0)
(1.01535 0.21977 0)
(0.976035 0.173118 0)
(0.942806 0.134341 0)
(0.913893 0.104075 0)
(0.888707 0.078508 0)
(0.869055 0.058863 0)
(0.854131 0.0445071 0)
(0.840935 0.0318956 0)
(0.830448 0.0227529 0)
(0.824623 0.0173843 0)
(0.819985 0.0123313 0)
(0.817503 0.00790923 0)
(0.817882 0.00833612 0)
(0.814673 0.00648694 0)
(0.810867 0.00298492 0)
(0.808767 0.00298424 0)
(0.807704 0.00151811 0)
(0.808131 -0.000667592 0)
(0.808295 -0.000273044 0)
(0.807847 -0.00166494 0)
(0.803658 0.00128234 0)
(0.803315 0.000489079 0)
(0.804751 -0.000307 0)
(0.80487 0.00147252 0)
(0.808534 0.00176869 0)
(0.809306 0.00141571 0)
(0.808457 0.00118405 0)
(0.808051 0.00356488 0)
(0.807599 0.00367371 0)
(0.808453 0.00106215 0)
(0.808405 -0.00156474 0)
(0.809965 -0.00177862 0)
(0.811858 -0.00440303 0)
(0.815779 -0.00560934 0)
(0.821292 -0.0103183 0)
(0.824157 -0.0128486 0)
(0.829234 -0.0184016 0)
(0.836979 -0.0247898 0)
(0.846144 -0.0346847 0)
(0.860299 -0.0471961 0)
(0.879685 -0.0653729 0)
(0.900706 -0.0893528 0)
(0.924561 -0.121436 0)
(0.950077 -0.16927 0)
(0.970529 -0.231189 0)
(1.00389 0.142247 0)
(1.056 0.285634 0)
(1.08712 0.330947 0)
(1.09705 0.320516 0)
(1.09009 0.284654 0)
(1.07091 0.236473 0)
(1.04374 0.191296 0)
(1.01967 0.151476 0)
(0.996645 0.116033 0)
(0.975627 0.0887463 0)
(0.959385 0.0671961 0)
(0.946842 0.0505363 0)
(0.935393 0.0371205 0)
(0.925405 0.0286544 0)
(0.919832 0.0200224 0)
(0.915934 0.0138195 0)
(0.914383 0.00909215 0)
(0.915411 0.00723396 0)
(0.911205 0.00466249 0)
(0.907194 0.00561066 0)
(0.904885 0.00227071 0)
(0.902585 0.00151371 0)
(0.904495 2.00647e-05 0)
(0.905473 -0.000697793 0)
(0.904557 -0.00178216 0)
(0.901583 -0.0015045 0)
(0.900085 0.00225619 0)
(0.901415 0.000268553 0)
(0.902999 -0.000743662 0)
(0.905805 0.000888614 0)
(0.906414 -0.000469536 0)
(0.905265 0.00217614 0)
(0.904687 0.00074375 0)
(0.904522 0.000820878 0)
(0.904358 -0.00149723 0)
(0.905066 -0.0023849 0)
(0.90729 -0.00381661 0)
(0.909507 -0.00645879 0)
(0.913586 -0.00670491 0)
(0.918648 -0.0101861 0)
(0.92251 -0.0171354 0)
(0.928165 -0.0222807 0)
(0.9357 -0.0311471 0)
(0.944407 -0.0417702 0)
(0.958295 -0.0546651 0)
(0.976153 -0.0759699 0)
(0.995593 -0.10173 0)
(1.01678 -0.137343 0)
(1.0361 -0.183222 0)
(1.04849 -0.23825 0)
(0.99993 0.122813 0)
(1.04616 0.257998 0)
(1.08522 0.311542 0)
(1.10966 0.312238 0)
(1.11669 0.285696 0)
(1.11026 0.24229 0)
(1.09719 0.201294 0)
(1.08164 0.163524 0)
(1.06615 0.126439 0)
(1.05188 0.0972595 0)
(1.03987 0.0739421 0)
(1.02969 0.0571987 0)
(1.0206 0.0424088 0)
(1.012 0.0317037 0)
(1.00652 0.0244617 0)
(1.00355 0.0168956 0)
(1.00253 0.0107823 0)
(1.00345 0.00751179 0)
(1.00132 0.00243062 0)
(0.996642 0.00474448 0)
(0.993247 0.00226263 0)
(0.993082 0.00358069 0)
(0.993135 0.00248492 0)
(0.993594 -0.00251183 0)
(0.99389 -0.00252212 0)
(0.992319 -0.00430942 0)
(0.990717 -0.000936365 0)
(0.98932 -0.000834624 0)
(0.991464 -0.0013793 0)
(0.994835 -0.00247389 0)
(0.996641 -0.00295022 0)
(0.995733 -0.00152787 0)
(0.993926 -0.00161117 0)
(0.993497 -0.000842255 0)
(0.994316 -0.00107046 0)
(0.995191 -0.00296649 0)
(0.996218 -0.00518596 0)
(0.999913 -0.00753125 0)
(1.00466 -0.00916068 0)
(1.00768 -0.0128791 0)
(1.01177 -0.0207986 0)
(1.01821 -0.0263662 0)
(1.0255 -0.0365979 0)
(1.03548 -0.0486455 0)
(1.04714 -0.062485 0)
(1.06348 -0.0843017 0)
(1.08085 -0.111013 0)
(1.09661 -0.147452 0)
(1.1121 -0.192598 0)
(1.11949 -0.244084 0)
(0.997209 0.104094 0)
(1.03799 0.229297 0)
(1.08004 0.288003 0)
(1.11428 0.297632 0)
(1.1332 0.279096 0)
(1.14053 0.243214 0)
(1.14045 0.206047 0)
(1.13322 0.169703 0)
(1.1239 0.136101 0)
(1.11612 0.105786 0)
(1.1097 0.0795964 0)
(1.10369 0.0625253 0)
(1.09591 0.0466126 0)
(1.09022 0.0343629 0)
(1.08616 0.0277031 0)
(1.08231 0.0201585 0)
(1.08261 0.0148039 0)
(1.08371 0.00845027 0)
(1.08259 0.00403068 0)
(1.07964 0.0026272 0)
(1.0765 0.00482563 0)
(1.07487 0.00524372 0)
(1.07241 0.00220351 0)
(1.07421 -0.00261879 0)
(1.07532 -0.00328465 0)
(1.07367 -0.00477754 0)
(1.07354 -0.00285403 0)
(1.0726 -0.003079 0)
(1.07324 -0.000625126 0)
(1.07631 -0.00313832 0)
(1.07871 -0.00371696 0)
(1.07804 -0.00502969 0)
(1.07749 -0.0035858 0)
(1.07786 -0.00250321 0)
(1.07617 -0.00148309 0)
(1.0759 -0.0033413 0)
(1.07863 -0.00444452 0)
(1.08229 -0.00775792 0)
(1.08689 -0.0122156 0)
(1.08967 -0.0162725 0)
(1.09458 -0.0229523 0)
(1.10084 -0.0301378 0)
(1.10686 -0.041747 0)
(1.11624 -0.0540356 0)
(1.12748 -0.0723337 0)
(1.1413 -0.092331 0)
(1.15551 -0.122893 0)
(1.16764 -0.15569 0)
(1.17789 -0.198377 0)
(1.18247 -0.245577 0)
(0.995031 0.0881627 0)
(1.03204 0.2025 0)
(1.0764 0.262281 0)
(1.11695 0.28004 0)
(1.14454 0.267194 0)
(1.16183 0.239106 0)
(1.17247 0.204207 0)
(1.175 0.16976 0)
(1.17348 0.138251 0)
(1.17021 0.110154 0)
(1.17004 0.084532 0)
(1.16807 0.0654822 0)
(1.16257 0.0491971 0)
(1.16046 0.0361698 0)
(1.1574 0.0267666 0)
(1.15494 0.0216129 0)
(1.15399 0.0169014 0)
(1.15524 0.0102103 0)
(1.15614 0.00593616 0)
(1.15484 0.00332524 0)
(1.1525 0.00506091 0)
(1.14859 0.0045121 0)
(1.14505 0.00145064 0)
(1.14737 0.00025825 0)
(1.14931 -0.00308389 0)
(1.149 -0.00389192 0)
(1.14832 -0.0018239 0)
(1.14723 -8.15989e-05 0)
(1.14814 -0.00240218 0)
(1.15001 -0.00184696 0)
(1.15251 -0.00415316 0)
(1.15345 -0.005442 0)
(1.15345 -0.00413273 0)
(1.15294 -0.00424498 0)
(1.15211 -0.0037621 0)
(1.15202 -0.00344672 0)
(1.15305 -0.00441624 0)
(1.15572 -0.00785546 0)
(1.16145 -0.0129933 0)
(1.16442 -0.0186476 0)
(1.16865 -0.0243042 0)
(1.17365 -0.0352622 0)
(1.17979 -0.0474799 0)
(1.18829 -0.0614664 0)
(1.19785 -0.0793772 0)
(1.20968 -0.101474 0)
(1.22159 -0.13008 0)
(1.23106 -0.164106 0)
(1.23644 -0.202625 0)
(1.23768 -0.244927 0)
(0.994117 0.0765233 0)
(1.0276 0.179732 0)
(1.07236 0.23647 0)
(1.11671 0.256608 0)
(1.1509 0.249192 0)
(1.17765 0.227773 0)
(1.19712 0.19632 0)
(1.20831 0.164516 0)
(1.2142 0.135016 0)
(1.21729 0.107485 0)
(1.22115 0.0844669 0)
(1.22333 0.0661084 0)
(1.22087 0.0504206 0)
(1.22037 0.0351008 0)
(1.22105 0.0244702 0)
(1.22025 0.0196666 0)
(1.219 0.0148559 0)
(1.22049 0.01177 0)
(1.22138 0.00709892 0)
(1.22176 0.00385371 0)
(1.21966 0.0035428 0)
(1.21476 0.0030284 0)
(1.21158 0.00143095 0)
(1.21322 0.00108528 0)
(1.21456 -0.00296138 0)
(1.21635 -0.00299504 0)
(1.21778 -0.00174727 0)
(1.21444 -0.000816175 0)
(1.21441 -0.00254132 0)
(1.21751 -0.00112652 0)
(1.21923 -0.00321955 0)
(1.22109 -0.00322295 0)
(1.22135 -0.0036979 0)
(1.22108 -0.0054389 0)
(1.22031 -0.00526493 0)
(1.21966 -0.00615354 0)
(1.2211 -0.0085688 0)
(1.22328 -0.00978674 0)
(1.22748 -0.0135301 0)
(1.23131 -0.0211098 0)
(1.23401 -0.0276933 0)
(1.23794 -0.0393015 0)
(1.24411 -0.0510953 0)
(1.25197 -0.0661578 0)
(1.26047 -0.0834115 0)
(1.27024 -0.106276 0)
(1.2782 -0.133051 0)
(1.28441 -0.168699 0)
(1.28788 -0.203825 0)
(1.28558 -0.242793 0)
(0.99315 0.0646035 0)
(1.02381 0.155104 0)
(1.06814 0.209294 0)
(1.11537 0.226948 0)
(1.1559 0.226408 0)
(1.18832 0.210561 0)
(1.21498 0.182048 0)
(1.23473 0.153949 0)
(1.24711 0.125817 0)
(1.25569 0.100815 0)
(1.26585 0.0798001 0)
(1.27169 0.0623568 0)
(1.26991 0.0479202 0)
(1.27191 0.0344548 0)
(1.27586 0.0245127 0)
(1.27735 0.0192295 0)
(1.27722 0.0142039 0)
(1.27855 0.0108049 0)
(1.27893 0.00660665 0)
(1.27993 0.0033668 0)
(1.27915 0.00157949 0)
(1.27447 0.00126299 0)
(1.2707 0.00120929 0)
(1.27147 0.00117151 0)
(1.27369 -0.000160237 0)
(1.27674 0.000403807 0)
(1.27656 -0.00225745 0)
(1.27405 -0.00153806 0)
(1.27561 -0.00014255 0)
(1.27706 -0.00132325 0)
(1.27883 -0.00119598 0)
(1.28095 -0.00236615 0)
(1.28028 -0.00370159 0)
(1.28042 -0.00652972 0)
(1.28048 -0.00784321 0)
(1.27957 -0.00945445 0)
(1.28142 -0.0111608 0)
(1.28423 -0.0112345 0)
(1.28682 -0.0160642 0)
(1.28907 -0.0235057 0)
(1.29175 -0.0310258 0)
(1.29528 -0.040854 0)
(1.30103 -0.0529936 0)
(1.30783 -0.0676654 0)
(1.31456 -0.0872263 0)
(1.32197 -0.109533 0)
(1.32652 -0.135493 0)
(1.33017 -0.168646 0)
(1.33155 -0.200455 0)
(1.32644 -0.237861 0)
(0.99279 0.0537709 0)
(1.02232 0.132668 0)
(1.06423 0.181084 0)
(1.11288 0.20057 0)
(1.15951 0.200189 0)
(1.19548 0.18723 0)
(1.22831 0.162224 0)
(1.25498 0.137802 0)
(1.2737 0.113104 0)
(1.28869 0.0925349 0)
(1.30234 0.0739116 0)
(1.31184 0.0567115 0)
(1.31401 0.0452619 0)
(1.31757 0.0347178 0)
(1.324 0.0250007 0)
(1.32655 0.0202905 0)
(1.3267 0.013192 0)
(1.32803 0.0104661 0)
(1.32933 0.00572576 0)
(1.33075 0.00260849 0)
(1.33073 -0.00115681 0)
(1.3267 -0.00163753 0)
(1.3235 -4.48229e-05 0)
(1.3242 0.0028266 0)
(1.32593 0.00396608 0)
(1.32724 0.00212504 0)
(1.32848 -0.00100856 0)
(1.32784 -0.000376659 0)
(1.32714 0.00128591 0)
(1.32954 0.000486142 0)
(1.33116 0.000178947 0)
(1.3323 -0.0011279 0)
(1.33218 -0.00361491 0)
(1.33258 -0.00517975 0)
(1.33285 -0.00812266 0)
(1.33249 -0.00915521 0)
(1.33586 -0.0105376 0)
(1.33673 -0.0123656 0)
(1.33726 -0.0185766 0)
(1.34003 -0.0244777 0)
(1.34258 -0.0323978 0)
(1.34495 -0.0421849 0)
(1.34961 -0.0542916 0)
(1.35461 -0.069581 0)
(1.35976 -0.0887035 0)
(1.36604 -0.111103 0)
(1.36783 -0.136829 0)
(1.36924 -0.165095 0)
(1.36794 -0.196559 0)
(1.36026 -0.230544 0)
(0.992957 0.0433688 0)
(1.02075 0.11032 0)
(1.06245 0.150772 0)
(1.11103 0.172976 0)
(1.15915 0.172349 0)
(1.19952 0.159162 0)
(1.23703 0.142956 0)
(1.2712 0.12039 0)
(1.29616 0.0999191 0)
(1.31565 0.0815323 0)
(1.33287 0.0666248 0)
(1.34648 0.0517311 0)
(1.35151 0.0404524 0)
(1.35544 0.0320041 0)
(1.36419 0.025323 0)
(1.36739 0.0179286 0)
(1.36877 0.0109873 0)
(1.37158 0.00912206 0)
(1.37168 0.00552392 0)
(1.37321 0.000776488 0)
(1.37402 -0.00130787 0)
(1.37254 -0.00405064 0)
(1.37079 -0.000211117 0)
(1.371 0.00306631 0)
(1.37035 0.00330792 0)
(1.37072 0.00151039 0)
(1.37215 -0.000217373 0)
(1.37275 -0.00175769 0)
(1.37354 0.000860481 0)
(1.37404 0.00352272 0)
(1.37565 0.00137106 0)
(1.37667 0.000160349 0)
(1.37643 -0.00309548 0)
(1.37678 -0.00506269 0)
(1.37754 -0.00693375 0)
(1.37821 -0.00705366 0)
(1.38026 -0.0101984 0)
(1.3808 -0.014491 0)
(1.38122 -0.0202818 0)
(1.38342 -0.0270698 0)
(1.38467 -0.0355768 0)
(1.38709 -0.0437187 0)
(1.39073 -0.0555752 0)
(1.39404 -0.0709093 0)
(1.39753 -0.0881675 0)
(1.40142 -0.110159 0)
(1.40225 -0.137167 0)
(1.4014 -0.161556 0)
(1.39707 -0.192165 0)
(1.38853 -0.223764 0)
(0.993546 0.0330628 0)
(1.02001 0.0879596 0)
(1.06102 0.121596 0)
(1.10995 0.13954 0)
(1.15771 0.140399 0)
(1.2034 0.130905 0)
(1.24594 0.121246 0)
(1.28199 0.102583 0)
(1.31255 0.0841778 0)
(1.33756 0.0687243 0)
(1.3584 0.056135 0)
(1.37311 0.0435421 0)
(1.38154 0.0330359 0)
(1.38895 0.0271345 0)
(1.39725 0.0242782 0)
(1.39986 0.014484 0)
(1.4038 0.0113563 0)
(1.40753 0.00644472 0)
(1.40666 0.00339855 0)
(1.40933 4.81464e-05 0)
(1.41003 -0.000159722 0)
(1.41008 -0.00251958 0)
(1.41063 -0.000142386 0)
(1.409 0.00164304 0)
(1.40742 -0.0015669 0)
(1.40741 -0.000491876 0)
(1.40885 -0.00245491 0)
(1.41063 -0.00105281 0)
(1.41276 0.001065 0)
(1.41253 0.0026363 0)
(1.41175 0.00208657 0)
(1.41284 -0.000896177 0)
(1.41292 -0.0033722 0)
(1.41455 -0.00698982 0)
(1.4163 -0.00654574 0)
(1.41586 -0.0097895 0)
(1.41681 -0.0108313 0)
(1.41705 -0.0173754 0)
(1.4163 -0.0221767 0)
(1.41824 -0.029029 0)
(1.421 -0.0378272 0)
(1.42284 -0.0459171 0)
(1.42385 -0.0572363 0)
(1.42632 -0.0712428 0)
(1.4278 -0.0880518 0)
(1.42876 -0.109654 0)
(1.42834 -0.135077 0)
(1.42665 -0.159206 0)
(1.41882 -0.187043 0)
(1.40796 -0.21691 0)
(0.994425 0.0261072 0)
(1.01979 0.0655465 0)
(1.05891 0.0936671 0)
(1.1076 0.107089 0)
(1.15716 0.109483 0)
(1.20691 0.105711 0)
(1.25188 0.0951905 0)
(1.29044 0.0820019 0)
(1.32528 0.0670966 0)
(1.3539 0.0538524 0)
(1.37757 0.0436797 0)
(1.39483 0.0327583 0)
(1.40606 0.0249517 0)
(1.41602 0.0197867 0)
(1.42324 0.0176384 0)
(1.42651 0.0125375 0)
(1.43155 0.0105783 0)
(1.43422 0.00526572 0)
(1.43527 0.00286853 0)
(1.43876 0.00163397 0)
(1.43983 0.00112635 0)
(1.44019 -0.000536756 0)
(1.44083 -0.00101913 0)
(1.43744 0.000766953 0)
(1.43657 -0.00211383 0)
(1.43791 -0.00191492 0)
(1.43913 -0.00132642 0)
(1.4418 0.0007719 0)
(1.44316 0.00194668 0)
(1.44252 0.00110821 0)
(1.44154 0.00104064 0)
(1.44178 0.000674381 0)
(1.44183 -0.00265886 0)
(1.44455 -0.00667397 0)
(1.44583 -0.0071467 0)
(1.44595 -0.0111848 0)
(1.4464 -0.0138797 0)
(1.44519 -0.0205669 0)
(1.4461 -0.0251285 0)
(1.44646 -0.028762 0)
(1.44816 -0.038609 0)
(1.44972 -0.048874 0)
(1.45067 -0.0593317 0)
(1.45126 -0.072659 0)
(1.45036 -0.0882505 0)
(1.44878 -0.108862 0)
(1.44805 -0.131059 0)
(1.44425 -0.155671 0)
(1.43462 -0.183276 0)
(1.42225 -0.20826 0)
(0.992532 0.0210644 0)
(1.01803 0.0457082 0)
(1.05861 0.0650594 0)
(1.10714 0.0746458 0)
(1.15841 0.0793424 0)
(1.20857 0.0770528 0)
(1.25517 0.0691552 0)
(1.29676 0.0588523 0)
(1.33344 0.049504 0)
(1.36591 0.0389081 0)
(1.39162 0.0312443 0)
(1.40989 0.0229044 0)
(1.42348 0.0171027 0)
(1.43566 0.0135763 0)
(1.44451 0.00777939 0)
(1.44791 0.00668196 0)
(1.45179 0.00461769 0)
(1.45495 0.00319387 0)
(1.45699 0.00376206 0)
(1.46084 0.00314172 0)
(1.46119 0.00314528 0)
(1.46111 -0.000474364 0)
(1.46369 -0.0013448 0)
(1.46066 0.000195303 0)
(1.45792 -0.000130704 0)
(1.46031 -0.00085555 0)
(1.46285 0.000748482 0)
(1.46525 0.00235014 0)
(1.46569 0.00145131 0)
(1.46502 0.00122812 0)
(1.4648 -0.000364921 0)
(1.46433 -0.000290465 0)
(1.46247 -0.00285886 0)
(1.46605 -0.0052945 0)
(1.4683 -0.0101034 0)
(1.46686 -0.011177 0)
(1.46711 -0.0157479 0)
(1.4664 -0.0226966 0)
(1.46826 -0.0274556 0)
(1.46758 -0.0312018 0)
(1.46735 -0.0406219 0)
(1.46929 -0.0498197 0)
(1.46902 -0.0611725 0)
(1.46858 -0.0741001 0)
(1.46622 -0.0891936 0)
(1.46262 -0.106489 0)
(1.45989 -0.126443 0)
(1.45388 -0.150065 0)
(1.44392 -0.174315 0)
(1.43132 -0.198511 0)
(0.990837 0.0125612 0)
(1.0152 0.0285911 0)
(1.05637 0.0382044 0)
(1.10717 0.0439541 0)
(1.15946 0.0446414 0)
(1.20992 0.0430295 0)
(1.25719 0.0392241 0)
(1.30084 0.0331331 0)
(1.33995 0.0298644 0)
(1.37291 0.0237299 0)
(1.40027 0.0191892 0)
(1.42072 0.0137354 0)
(1.43598 0.00963177 0)
(1.44684 0.00926922 0)
(1.45585 0.00288847 0)
(1.4619 0.00144712 0)
(1.46677 0.00116981 0)
(1.47094 0.00177438 0)
(1.47279 0.00208608 0)
(1.47583 0.00216623 0)
(1.4748 0.00277818 0)
(1.47484 -7.83422e-05 0)
(1.47913 0.000316733 0)
(1.47553 -0.000200382 0)
(1.47314 0.000154553 0)
(1.47582 0.000866553 0)
(1.47873 0.00131459 0)
(1.48041 0.00285262 0)
(1.48053 0.00254561 0)
(1.47977 0.0021493 0)
(1.47901 0.00103822 0)
(1.47904 -0.00239236 0)
(1.47758 -0.00328563 0)
(1.47918 -0.00454325 0)
(1.48188 -0.0112034 0)
(1.48263 -0.0127227 0)
(1.48021 -0.0141712 0)
(1.47939 -0.0213496 0)
(1.48298 -0.0266029 0)
(1.48102 -0.0342833 0)
(1.48006 -0.0406083 0)
(1.48109 -0.0478324 0)
(1.47991 -0.0598727 0)
(1.47878 -0.0710349 0)
(1.47535 -0.0869561 0)
(1.47095 -0.104157 0)
(1.46568 -0.121229 0)
(1.4588 -0.142114 0)
(1.44685 -0.163456 0)
(1.43188 -0.187591 0)
(0.991079 0.00453567 0)
(1.01468 0.00836697 0)
(1.05586 0.0101335 0)
(1.10573 0.0133078 0)
(1.15812 0.0110767 0)
(1.21063 0.0106011 0)
(1.25901 0.00908859 0)
(1.3044 0.0105169 0)
(1.34367 0.0101538 0)
(1.37726 0.00744895 0)
(1.40484 0.00415559 0)
(1.42482 0.00125108 0)
(1.44217 -0.00163198 0)
(1.45359 -0.000127967 0)
(1.46183 -0.000573957 0)
(1.46894 -0.00019446 0)
(1.47433 -0.00022806 0)
(1.47787 3.03018e-05 0)
(1.47973 -0.00108736 0)
(1.48363 0.000213519 0)
(1.48205 0.000588371 0)
(1.48211 0.0014653 0)
(1.48634 0.000865891 0)
(1.48292 -0.0021042 0)
(1.48119 0.000705639 0)
(1.48392 0.00142651 0)
(1.48708 0.00266933 0)
(1.48891 0.00255483 0)
(1.4884 0.00432975 0)
(1.48738 0.00231292 0)
(1.48581 0.00113088 0)
(1.48543 -0.00127475 0)
(1.48502 -0.00317172 0)
(1.4855 -0.00463216 0)
(1.48783 -0.00977457 0)
(1.49054 -0.011716 0)
(1.48751 -0.0141128 0)
(1.48524 -0.0172112 0)
(1.4875 -0.023139 0)
(1.48671 -0.0326625 0)
(1.48716 -0.0390465 0)
(1.48625 -0.0456319 0)
(1.48398 -0.0554043 0)
(1.48117 -0.0682479 0)
(1.47552 -0.0824836 0)
(1.47159 -0.0995466 0)
(1.46578 -0.116656 0)
(1.4565 -0.136127 0)
(1.44336 -0.157391 0)
(1.42579 -0.179499 0)
(0.989352 -0.00181108 0)
(1.01207 -0.0110773 0)
(1.05569 -0.015328 0)
(1.1062 -0.0193066 0)
(1.15816 -0.0225605 0)
(1.21076 -0.0221486 0)
(1.26054 -0.0220679 0)
(1.30599 -0.0157459 0)
(1.34355 -0.0117255 0)
(1.37552 -0.0109422 0)
(1.40296 -0.0117068 0)
(1.42415 -0.00889887 0)
(1.44224 -0.00960293 0)
(1.4552 -0.00842242 0)
(1.46317 -0.00640009 0)
(1.46952 -0.00511791 0)
(1.47449 -0.00182086 0)
(1.4776 -0.00291883 0)
(1.48024 -0.00236709 0)
(1.48433 -0.000596939 0)
(1.48307 -0.00244628 0)
(1.48247 0.000723935 0)
(1.4843 -0.00130473 0)
(1.48315 -0.00354312 0)
(1.48325 0.00167728 0)
(1.48501 0.0031903 0)
(1.48758 0.00387444 0)
(1.4896 0.00324696 0)
(1.48886 0.0037259 0)
(1.48601 0.00171275 0)
(1.48553 0.00058598 0)
(1.48517 -0.00245864 0)
(1.48452 -0.00429746 0)
(1.48437 -0.00388527 0)
(1.48721 -0.00704182 0)
(1.49029 -0.00795271 0)
(1.48797 -0.0135912 0)
(1.48545 -0.0157724 0)
(1.48516 -0.0218464 0)
(1.48379 -0.0286467 0)
(1.48514 -0.0359689 0)
(1.48437 -0.044774 0)
(1.47999 -0.0532901 0)
(1.47598 -0.0660749 0)
(1.47042 -0.0795048 0)
(1.46438 -0.0926036 0)
(1.45776 -0.112366 0)
(1.44725 -0.129656 0)
(1.43273 -0.150047 0)
(1.41497 -0.169153 0)
(0.988626 -0.0121602 0)
(1.01263 -0.0303868 0)
(1.05565 -0.041537 0)
(1.10382 -0.052136 0)
(1.15715 -0.0564241 0)
(1.20955 -0.0561487 0)
(1.2602 -0.05187 0)
(1.30662 -0.0446565 0)
(1.34164 -0.0372339 0)
(1.37156 -0.0306228 0)
(1.39957 -0.0245337 0)
(1.4193 -0.018859 0)
(1.43564 -0.0165964 0)
(1.44841 -0.0146482 0)
(1.45634 -0.011532 0)
(1.4642 -0.00917084 0)
(1.46816 -0.00614614 0)
(1.47005 -0.00589825 0)
(1.47361 -0.00362047 0)
(1.47617 -0.00264144 0)
(1.47553 -0.00348832 0)
(1.47547 -0.000534101 0)
(1.47664 -0.000379166 0)
(1.47776 -0.000173434 0)
(1.47841 0.00250955 0)
(1.47821 0.0030278 0)
(1.48024 0.00447911 0)
(1.4824 0.00221201 0)
(1.48096 -0.000868135 0)
(1.4791 0.000826321 0)
(1.47662 0.000630756 0)
(1.47599 -0.00364407 0)
(1.47828 -0.00358085 0)
(1.47814 -0.00375641 0)
(1.48032 -0.00443394 0)
(1.48188 -0.00730881 0)
(1.4787 -0.0123578 0)
(1.47662 -0.01693 0)
(1.47628 -0.0225134 0)
(1.47517 -0.0266547 0)
(1.47517 -0.0332662 0)
(1.47383 -0.0454228 0)
(1.46943 -0.0531149 0)
(1.46399 -0.0649138 0)
(1.45833 -0.0777241 0)
(1.45075 -0.0879776 0)
(1.44248 -0.104636 0)
(1.43206 -0.121686 0)
(1.41664 -0.139571 0)
(1.39958 -0.154877 0)
(0.98962 -0.0216404 0)
(1.0139 -0.0499752 0)
(1.05555 -0.0712064 0)
(1.10371 -0.0832043 0)
(1.15635 -0.0875258 0)
(1.20892 -0.0874677 0)
(1.25861 -0.078604 0)
(1.30242 -0.0690274 0)
(1.33647 -0.0586221 0)
(1.36559 -0.0475672 0)
(1.39103 -0.0381894 0)
(1.40841 -0.0304714 0)
(1.42382 -0.0244645 0)
(1.43642 -0.0207792 0)
(1.44416 -0.0146104 0)
(1.45052 -0.0112044 0)
(1.45397 -0.0113371 0)
(1.45657 -0.00819045 0)
(1.45961 -0.00347651 0)
(1.46193 -0.00477006 0)
(1.46191 -0.00237301 0)
(1.46207 9.88168e-06 0)
(1.46251 0.00115027 0)
(1.46318 0.00193153 0)
(1.46348 0.000919386 0)
(1.46459 0.000793431 0)
(1.46538 0.00336057 0)
(1.46487 0.000180976 0)
(1.46644 -0.00321269 0)
(1.46554 -0.00134017 0)
(1.46136 -0.00138577 0)
(1.46163 -0.00225435 0)
(1.46374 -0.00264612 0)
(1.46336 -0.0053929 0)
(1.46508 -0.00694798 0)
(1.46611 -0.0100206 0)
(1.46312 -0.0142331 0)
(1.46056 -0.0181218 0)
(1.46093 -0.0227974 0)
(1.45918 -0.0263495 0)
(1.4562 -0.0334106 0)
(1.45517 -0.0430892 0)
(1.45156 -0.0502714 0)
(1.44488 -0.0628259 0)
(1.44079 -0.0737059 0)
(1.43241 -0.0848507 0)
(1.42105 -0.0979004 0)
(1.40989 -0.113622 0)
(1.39565 -0.128558 0)
(1.37806 -0.141306 0)
(0.99096 -0.0297692 0)
(1.01581 -0.0700233 0)
(1.0569 -0.098772 0)
(1.10434 -0.112235 0)
(1.15473 -0.118234 0)
(1.20684 -0.114337 0)
(1.25558 -0.104264 0)
(1.29712 -0.0920924 0)
(1.32857 -0.0776771 0)
(1.35412 -0.0632501 0)
(1.37798 -0.0492362 0)
(1.39348 -0.0399023 0)
(1.40587 -0.02934 0)
(1.41804 -0.0243186 0)
(1.42534 -0.0202238 0)
(1.42901 -0.0143477 0)
(1.43285 -0.0104598 0)
(1.43742 -0.00756904 0)
(1.43831 -0.00331887 0)
(1.43931 -0.00413953 0)
(1.44123 -0.00334616 0)
(1.4405 -0.000752796 0)
(1.44066 0.000509967 0)
(1.4407 0.00102434 0)
(1.4409 -0.00231169 0)
(1.44302 -0.000988336 0)
(1.44328 1.32505e-05 0)
(1.44163 0.000288392 0)
(1.44367 -0.000568885 0)
(1.4438 -0.00172957 0)
(1.43978 -0.00244833 0)
(1.43934 -0.000925613 0)
(1.44076 -0.00424178 0)
(1.43987 -0.00532845 0)
(1.44235 -0.00806287 0)
(1.44289 -0.0109334 0)
(1.43967 -0.0153625 0)
(1.4373 -0.0181674 0)
(1.43795 -0.0229947 0)
(1.43613 -0.0273301 0)
(1.43265 -0.0315356 0)
(1.43131 -0.0389661 0)
(1.42586 -0.0467605 0)
(1.41867 -0.0562538 0)
(1.41438 -0.0665742 0)
(1.40571 -0.0799657 0)
(1.39458 -0.0926433 0)
(1.38272 -0.10488 0)
(1.36852 -0.117809 0)
(1.35039 -0.129543 0)
(0.992271 -0.0381897 0)
(1.01818 -0.0901847 0)
(1.05943 -0.128005 0)
(1.10566 -0.145093 0)
(1.15456 -0.147304 0)
(1.2046 -0.139897 0)
(1.24904 -0.126837 0)
(1.28714 -0.112079 0)
(1.31661 -0.0959773 0)
(1.34058 -0.0761142 0)
(1.3595 -0.0596797 0)
(1.37243 -0.0473132 0)
(1.3833 -0.0347519 0)
(1.39072 -0.0286348 0)
(1.39852 -0.0252316 0)
(1.40464 -0.0168283 0)
(1.40579 -0.00927786 0)
(1.40893 -0.00650419 0)
(1.40948 -0.00629766 0)
(1.40952 -0.00326256 0)
(1.41207 -0.00409652 0)
(1.41203 -0.00273828 0)
(1.41159 -0.00102659 0)
(1.40951 -0.00125395 0)
(1.41038 -0.00360075 0)
(1.41402 -0.00139398 0)
(1.4145 -0.00147757 0)
(1.41304 0.000409638 0)
(1.41399 -0.000265323 0)
(1.41313 -0.00128883 0)
(1.41088 -0.00260465 0)
(1.40958 -0.00199115 0)
(1.41051 -0.00616603 0)
(1.41075 -0.00641709 0)
(1.41137 -0.0087777 0)
(1.41192 -0.0118657 0)
(1.40893 -0.0145479 0)
(1.40683 -0.0183545 0)
(1.40708 -0.0215672 0)
(1.40623 -0.0275919 0)
(1.40196 -0.0307831 0)
(1.39925 -0.0377928 0)
(1.39463 -0.0449305 0)
(1.38681 -0.0512045 0)
(1.38064 -0.0621745 0)
(1.37147 -0.0741008 0)
(1.36124 -0.0851131 0)
(1.34939 -0.0955969 0)
(1.3351 -0.107466 0)
(1.3163 -0.119833 0)
(0.993951 -0.0467351 0)
(1.02001 -0.110901 0)
(1.06039 -0.157409 0)
(1.10863 -0.176942 0)
(1.15559 -0.175509 0)
(1.20095 -0.168038 0)
(1.24126 -0.149753 0)
(1.27401 -0.129738 0)
(1.30082 -0.109892 0)
(1.32122 -0.0885284 0)
(1.33573 -0.0715546 0)
(1.346 -0.0553229 0)
(1.35264 -0.0431546 0)
(1.35806 -0.0343206 0)
(1.36593 -0.0254514 0)
(1.37182 -0.0190346 0)
(1.37199 -0.0141405 0)
(1.37191 -0.00901731 0)
(1.3729 -0.00811623 0)