/*--------------------------------*- C++ -*----------------------------------*\
  =========                 |
  \\      /  F ield         | OpenFOAM: The Open Source CFD Toolbox
   \\    /   O peration     | Website:  https://openfoam.org
    \\  /    A nd           | Version:  6
     \\/     M anipulation  |
\*---------------------------------------------------------------------------*/
FoamFile
{
    version     2.0;
    format      ascii;
    class       volScalarField;
    location    "0";
    object      p;
}
// * * * * * * * * * * * * * * * * * * * * * * * * * * * * * * * * * * * * * //

dimensions      [0 2 -2 0 0 0 0];

internalField   nonuniform List<scalar> 
145945
(
2.60574e-06
2.60536e-06
2.60528e-06
2.60524e-06
2.60532e-06
2.60536e-06
2.60544e-06
2.60547e-06
2.60551e-06
2.6055e-06
2.60549e-06
2.60543e-06
2.60542e-06
2.60536e-06
2.60544e-06
2.60548e-06
2.60589e-06
2.60535e-06
2.60516e-06
2.60511e-06
2.60512e-06
2.6052e-06
2.60525e-06
2.60533e-06
2.60537e-06
2.6054e-06
2.60539e-06
2.60538e-06
2.60533e-06
2.6053e-06
2.60525e-06
2.60528e-06
2.6053e-06
2.60551e-06
2.60528e-06
2.60511e-06
2.60506e-06
2.60511e-06
2.6052e-06
2.60527e-06
2.60534e-06
2.60539e-06
2.60542e-06
2.60542e-06
2.6054e-06
2.60535e-06
2.60531e-06
2.60525e-06
2.60524e-06
2.60526e-06
2.60544e-06
2.60524e-06
2.60512e-06
2.60511e-06
2.60519e-06
2.60529e-06
2.60537e-06
2.60545e-06
2.6055e-06
2.60553e-06
2.60553e-06
2.60551e-06
2.60546e-06
2.60541e-06
2.60534e-06
2.6053e-06
2.60528e-06
2.60541e-06
2.60532e-06
2.6052e-06
2.6052e-06
2.60529e-06
2.6054e-06
2.60548e-06
2.60556e-06
2.60561e-06
2.60564e-06
2.60564e-06
2.60562e-06
2.60557e-06
2.60552e-06
2.60545e-06
2.6054e-06
2.60537e-06
2.60549e-06
2.60536e-06
2.60525e-06
2.60527e-06
2.60537e-06
2.60548e-06
2.60558e-06
2.60565e-06
2.60571e-06
2.60574e-06
2.60574e-06
2.60571e-06
2.60567e-06
2.60561e-06
2.60554e-06
2.60547e-06
2.60543e-06
2.60554e-06
2.60544e-06
2.60533e-06
2.60534e-06
2.60545e-06
2.60556e-06
2.60565e-06
2.60573e-06
2.60578e-06
2.60581e-06
2.60581e-06
2.60579e-06
2.60574e-06
2.60568e-06
2.60561e-06
2.60555e-06
2.60551e-06
2.60561e-06
2.60547e-06
2.60537e-06
2.60539e-06
2.6055e-06
2.60561e-06
2.60571e-06
2.60578e-06
2.60584e-06
2.60587e-06
2.60587e-06
2.60584e-06
2.6058e-06
2.60574e-06
2.60567e-06
2.6056e-06
2.60555e-06
2.60565e-06
2.60551e-06
2.6054e-06
2.60542e-06
2.60553e-06
2.60564e-06
2.60574e-06
2.60581e-06
2.60587e-06
2.6059e-06
2.6059e-06
2.60587e-06
2.60583e-06
2.60577e-06
2.6057e-06
2.60563e-06
2.60558e-06
2.60568e-06
2.6055e-06
2.6054e-06
2.60542e-06
2.60553e-06
2.60564e-06
2.60574e-06
2.60581e-06
2.60587e-06
2.6059e-06
2.6059e-06
2.60588e-06
2.60583e-06
2.60577e-06
2.6057e-06
2.60563e-06
2.60558e-06
2.60567e-06
2.60549e-06
2.60538e-06
2.6054e-06
2.60551e-06
2.60562e-06
2.60571e-06
2.60579e-06
2.60584e-06
2.60587e-06
2.60588e-06
2.60585e-06
2.6058e-06
2.60574e-06
2.60567e-06
2.60561e-06
2.60556e-06
2.60566e-06
2.60543e-06
2.60533e-06
2.60535e-06
2.60546e-06
2.60557e-06
2.60567e-06
2.60574e-06
2.6058e-06
2.60583e-06
2.60583e-06
2.6058e-06
2.60575e-06
2.60569e-06
2.60562e-06
2.60555e-06
2.60551e-06
2.60561e-06
2.60542e-06
2.6053e-06
2.60531e-06
2.60541e-06
2.60552e-06
2.60561e-06
2.60569e-06
2.60574e-06
2.60577e-06
2.60577e-06
2.60574e-06
2.6057e-06
2.60564e-06
2.60557e-06
2.60551e-06
2.60548e-06
2.60559e-06
2.60536e-06
2.60525e-06
2.60525e-06
2.60534e-06
2.60545e-06
2.60554e-06
2.60562e-06
2.60567e-06
2.6057e-06
2.6057e-06
2.60567e-06
2.60562e-06
2.60557e-06
2.60549e-06
2.60544e-06
2.60542e-06
2.60553e-06
2.60544e-06
2.60528e-06
2.60524e-06
2.6053e-06
2.6054e-06
2.60547e-06
2.60555e-06
2.6056e-06
2.60563e-06
2.60563e-06
2.60561e-06
2.60555e-06
2.60551e-06
2.60545e-06
2.60543e-06
2.60544e-06
2.6056e-06
2.60548e-06
2.6053e-06
2.60526e-06
2.60528e-06
2.60537e-06
2.60543e-06
2.60551e-06
2.60555e-06
2.60558e-06
2.60558e-06
2.60556e-06
2.60551e-06
2.60548e-06
2.60542e-06
2.60544e-06
2.60545e-06
2.60564e-06
2.60589e-06
2.60551e-06
2.60544e-06
2.60541e-06
2.60549e-06
2.60554e-06
2.60561e-06
2.60565e-06
2.60568e-06
2.60568e-06
2.60566e-06
2.60561e-06
2.60559e-06
2.60553e-06
2.6056e-06
2.60564e-06
2.60604e-06
2.53344e-06
2.53332e-06
2.53347e-06
2.53362e-06
2.53384e-06
2.53403e-06
2.53419e-06
2.53429e-06
2.53435e-06
2.53433e-06
2.53425e-06
2.53411e-06
2.53395e-06
2.53374e-06
2.5336e-06
2.53343e-06
2.53354e-06
2.53332e-06
2.53338e-06
2.53356e-06
2.53377e-06
2.53402e-06
2.53423e-06
2.5344e-06
2.53452e-06
2.53457e-06
2.53455e-06
2.53447e-06
2.53432e-06
2.53413e-06
2.5339e-06
2.53371e-06
2.5335e-06
2.53343e-06
2.53347e-06
2.53356e-06
2.53376e-06
2.53401e-06
2.53428e-06
2.53452e-06
2.53471e-06
2.53483e-06
2.53489e-06
2.53487e-06
2.53478e-06
2.53462e-06
2.53441e-06
2.53416e-06
2.53392e-06
2.53369e-06
2.53358e-06
2.53362e-06
2.53377e-06
2.53401e-06
2.53431e-06
2.5346e-06
2.53486e-06
2.53506e-06
2.53519e-06
2.53525e-06
2.53523e-06
2.53513e-06
2.53496e-06
2.53473e-06
2.53446e-06
2.53419e-06
2.53392e-06
2.53374e-06
2.53384e-06
2.53402e-06
2.53428e-06
2.5346e-06
2.53491e-06
2.53518e-06
2.53539e-06
2.53552e-06
2.53558e-06
2.53556e-06
2.53546e-06
2.53528e-06
2.53505e-06
2.53477e-06
2.53447e-06
2.53417e-06
2.53396e-06
2.53403e-06
2.53423e-06
2.53452e-06
2.53486e-06
2.53518e-06
2.53545e-06
2.53566e-06
2.5358e-06
2.53587e-06
2.53584e-06
2.53574e-06
2.53556e-06
2.53532e-06
2.53503e-06
2.53471e-06
2.53439e-06
2.53415e-06
2.53419e-06
2.53441e-06
2.53471e-06
2.53506e-06
2.53539e-06
2.53566e-06
2.53588e-06
2.53602e-06
2.53608e-06
2.53606e-06
2.53595e-06
2.53577e-06
2.53553e-06
2.53523e-06
2.5349e-06
2.53457e-06
2.53431e-06
2.53429e-06
2.53452e-06
2.53483e-06
2.53519e-06
2.53552e-06
2.5358e-06
2.53602e-06
2.53616e-06
2.53622e-06
2.5362e-06
2.5361e-06
2.53591e-06
2.53567e-06
2.53536e-06
2.53503e-06
2.53469e-06
2.53442e-06
2.53435e-06
2.53457e-06
2.53489e-06
2.53525e-06
2.53558e-06
2.53587e-06
2.53608e-06
2.53622e-06
2.53629e-06
2.53626e-06
2.53616e-06
2.53598e-06
2.53573e-06
2.53542e-06
2.53509e-06
2.53474e-06
2.53447e-06
2.53433e-06
2.53455e-06
2.53487e-06
2.53523e-06
2.53556e-06
2.53584e-06
2.53606e-06
2.5362e-06
2.53626e-06
2.53624e-06
2.53614e-06
2.53595e-06
2.53571e-06
2.5354e-06
2.53507e-06
2.53472e-06
2.53445e-06
2.53425e-06
2.53447e-06
2.53478e-06
2.53513e-06
2.53546e-06
2.53574e-06
2.53595e-06
2.5361e-06
2.53616e-06
2.53614e-06
2.53603e-06
2.53585e-06
2.5356e-06
2.5353e-06
2.53497e-06
2.53463e-06
2.53437e-06
2.53411e-06
2.53432e-06
2.53462e-06
2.53496e-06
2.53528e-06
2.53556e-06
2.53577e-06
2.53591e-06
2.53598e-06
2.53595e-06
2.53585e-06
2.53567e-06
2.53543e-06
2.53513e-06
2.53481e-06
2.53448e-06
2.53423e-06
2.53395e-06
2.53413e-06
2.53441e-06
2.53474e-06
2.53505e-06
2.53532e-06
2.53553e-06
2.53567e-06
2.53573e-06
2.53571e-06
2.5356e-06
2.53543e-06
2.53519e-06
2.5349e-06
2.53459e-06
2.53429e-06
2.53407e-06
2.53374e-06
2.5339e-06
2.53416e-06
2.53446e-06
2.53477e-06
2.53503e-06
2.53523e-06
2.53536e-06
2.53542e-06
2.5354e-06
2.5353e-06
2.53513e-06
2.5349e-06
2.53462e-06
2.53434e-06
2.53406e-06
2.53386e-06
2.53361e-06
2.53371e-06
2.53392e-06
2.53419e-06
2.53447e-06
2.53471e-06
2.5349e-06
2.53503e-06
2.53509e-06
2.53507e-06
2.53497e-06
2.53481e-06
2.53459e-06
2.53434e-06
2.53408e-06
2.53385e-06
2.53372e-06
2.53343e-06
2.5335e-06
2.53369e-06
2.53392e-06
2.53417e-06
2.53439e-06
2.53457e-06
2.53469e-06
2.53474e-06
2.53472e-06
2.53463e-06
2.53448e-06
2.53429e-06
2.53406e-06
2.53385e-06
2.53363e-06
2.53354e-06
2.53354e-06
2.53343e-06
2.53358e-06
2.53374e-06
2.53396e-06
2.53415e-06
2.53431e-06
2.53442e-06
2.53447e-06
2.53445e-06
2.53437e-06
2.53423e-06
2.53407e-06
2.53386e-06
2.53372e-06
2.53354e-06
2.53365e-06
2.48426e-06
2.48521e-06
2.48609e-06
2.48687e-06
2.48758e-06
2.48811e-06
2.4885e-06
2.48873e-06
2.48882e-06
2.48876e-06
2.48857e-06
2.48821e-06
2.48772e-06
2.48704e-06
2.48624e-06
2.48526e-06
2.48428e-06
2.48521e-06
2.48606e-06
2.48692e-06
2.4877e-06
2.4884e-06
2.48893e-06
2.48932e-06
2.48955e-06
2.48964e-06
2.48959e-06
2.48939e-06
2.48904e-06
2.48854e-06
2.48787e-06
2.48706e-06
2.48611e-06
2.48523e-06
2.48609e-06
2.48692e-06
2.48772e-06
2.48847e-06
2.48915e-06
2.48967e-06
2.49005e-06
2.49028e-06
2.49037e-06
2.49032e-06
2.49012e-06
2.48977e-06
2.48929e-06
2.48863e-06
2.48785e-06
2.48696e-06
2.48611e-06
2.48687e-06
2.4877e-06
2.48847e-06
2.48921e-06
2.48987e-06
2.49038e-06
2.49076e-06
2.49098e-06
2.49107e-06
2.49102e-06
2.49083e-06
2.49049e-06
2.49001e-06
2.48937e-06
2.4886e-06
2.48774e-06
2.48689e-06
2.48758e-06
2.4884e-06
2.48915e-06
2.48987e-06
2.49051e-06
2.49102e-06
2.49138e-06
2.49161e-06
2.4917e-06
2.49164e-06
2.49145e-06
2.49112e-06
2.49065e-06
2.49002e-06
2.48926e-06
2.48844e-06
2.4876e-06
2.48811e-06
2.48893e-06
2.48967e-06
2.49038e-06
2.49102e-06
2.49152e-06
2.49188e-06
2.4921e-06
2.49219e-06
2.49214e-06
2.49195e-06
2.49162e-06
2.49115e-06
2.49053e-06
2.48978e-06
2.48897e-06
2.48813e-06
2.4885e-06
2.48932e-06
2.49005e-06
2.49076e-06
2.49138e-06
2.49188e-06
2.49224e-06
2.49246e-06
2.49255e-06
2.4925e-06
2.49231e-06
2.49198e-06
2.49152e-06
2.49091e-06
2.49016e-06
2.48935e-06
2.48851e-06
2.48873e-06
2.48955e-06
2.49028e-06
2.49098e-06
2.49161e-06
2.4921e-06
2.49246e-06
2.49269e-06
2.49277e-06
2.49272e-06
2.49253e-06
2.49221e-06
2.49174e-06
2.49113e-06
2.49039e-06
2.48959e-06
2.48875e-06
2.48882e-06
2.48964e-06
2.49037e-06
2.49107e-06
2.4917e-06
2.49219e-06
2.49255e-06
2.49277e-06
2.49286e-06
2.49281e-06
2.49262e-06
2.49229e-06
2.49183e-06
2.49122e-06
2.49048e-06
2.48968e-06
2.48884e-06
2.48876e-06
2.48959e-06
2.49032e-06
2.49102e-06
2.49164e-06
2.49214e-06
2.4925e-06
2.49272e-06
2.49281e-06
2.49275e-06
2.49257e-06
2.49224e-06
2.49178e-06
2.49117e-06
2.49043e-06
2.48962e-06
2.48878e-06
2.48857e-06
2.48939e-06
2.49012e-06
2.49083e-06
2.49145e-06
2.49195e-06
2.49231e-06
2.49253e-06
2.49262e-06
2.49257e-06
2.49238e-06
2.49205e-06
2.49159e-06
2.49098e-06
2.49023e-06
2.48943e-06
2.48859e-06
2.48822e-06
2.48904e-06
2.48978e-06
2.49049e-06
2.49112e-06
2.49162e-06
2.49198e-06
2.49221e-06
2.49229e-06
2.49224e-06
2.49205e-06
2.49172e-06
2.49125e-06
2.49064e-06
2.48989e-06
2.48907e-06
2.48823e-06
2.48772e-06
2.48854e-06
2.48929e-06
2.49001e-06
2.49065e-06
2.49115e-06
2.49152e-06
2.49174e-06
2.49183e-06
2.49178e-06
2.49159e-06
2.49125e-06
2.49078e-06
2.49016e-06
2.4894e-06
2.48858e-06
2.48774e-06
2.48704e-06
2.48787e-06
2.48863e-06
2.48937e-06
2.49002e-06
2.49053e-06
2.49091e-06
2.49113e-06
2.49122e-06
2.49117e-06
2.49098e-06
2.49064e-06
2.49016e-06
2.48952e-06
2.48875e-06
2.48791e-06
2.48706e-06
2.48624e-06
2.48706e-06
2.48785e-06
2.4886e-06
2.48926e-06
2.48979e-06
2.49016e-06
2.4904e-06
2.49049e-06
2.49043e-06
2.49023e-06
2.48989e-06
2.4894e-06
2.48875e-06
2.48797e-06
2.4871e-06
2.48626e-06
2.48526e-06
2.48611e-06
2.48696e-06
2.48774e-06
2.48844e-06
2.48897e-06
2.48936e-06
2.48959e-06
2.48968e-06
2.48963e-06
2.48943e-06
2.48908e-06
2.48858e-06
2.48791e-06
2.4871e-06
2.48616e-06
2.48528e-06
2.48428e-06
2.48523e-06
2.48611e-06
2.48689e-06
2.4876e-06
2.48813e-06
2.48852e-06
2.48875e-06
2.48884e-06
2.48878e-06
2.48859e-06
2.48823e-06
2.48774e-06
2.48706e-06
2.48626e-06
2.48528e-06
2.48429e-06
2.43325e-06
2.43497e-06
2.43654e-06
2.43804e-06
2.4393e-06
2.44024e-06
2.44091e-06
2.44132e-06
2.44147e-06
2.44137e-06
2.44102e-06
2.44041e-06
2.43954e-06
2.43835e-06
2.43686e-06
2.43515e-06
2.4333e-06
2.43497e-06
2.43642e-06
2.43795e-06
2.4394e-06
2.44063e-06
2.44155e-06
2.4422e-06
2.4426e-06
2.44275e-06
2.44265e-06
2.44231e-06
2.44172e-06
2.44087e-06
2.43971e-06
2.43826e-06
2.43659e-06
2.43503e-06
2.43654e-06
2.43795e-06
2.43941e-06
2.4408e-06
2.44197e-06
2.44286e-06
2.44348e-06
2.44387e-06
2.44401e-06
2.44392e-06
2.44359e-06
2.44302e-06
2.44221e-06
2.4411e-06
2.43971e-06
2.4381e-06
2.4366e-06
2.43804e-06
2.4394e-06
2.4408e-06
2.44214e-06
2.44327e-06
2.44412e-06
2.44473e-06
2.44509e-06
2.44524e-06
2.44515e-06
2.44483e-06
2.44428e-06
2.4435e-06
2.44244e-06
2.4411e-06
2.43956e-06
2.43809e-06
2.4393e-06
2.44063e-06
2.44197e-06
2.44327e-06
2.44436e-06
2.44519e-06
2.44577e-06
2.44613e-06
2.44627e-06
2.44618e-06
2.44587e-06
2.44534e-06
2.44458e-06
2.44356e-06
2.44226e-06
2.44078e-06
2.43936e-06
2.44024e-06
2.44155e-06
2.44286e-06
2.44412e-06
2.44519e-06
2.44599e-06
2.44656e-06
2.44691e-06
2.44705e-06
2.44696e-06
2.44667e-06
2.44615e-06
2.4454e-06
2.44441e-06
2.44314e-06
2.4417e-06
2.4403e-06
2.44091e-06
2.4422e-06
2.44348e-06
2.44473e-06
2.44577e-06
2.44656e-06
2.44712e-06
2.44747e-06
2.4476e-06
2.44752e-06
2.44722e-06
2.44671e-06
2.44598e-06
2.445e-06
2.44376e-06
2.44235e-06
2.44097e-06
2.44131e-06
2.4426e-06
2.44386e-06
2.44509e-06
2.44613e-06
2.44691e-06
2.44747e-06
2.44781e-06
2.44794e-06
2.44786e-06
2.44757e-06
2.44706e-06
2.44634e-06
2.44537e-06
2.44414e-06
2.44275e-06
2.44138e-06
2.44147e-06
2.44275e-06
2.44401e-06
2.44524e-06
2.44627e-06
2.44705e-06
2.4476e-06
2.44794e-06
2.44807e-06
2.44799e-06
2.4477e-06
2.4472e-06
2.44648e-06
2.44551e-06
2.44429e-06
2.4429e-06
2.44154e-06
2.44137e-06
2.44265e-06
2.44392e-06
2.44515e-06
2.44618e-06
2.44696e-06
2.44752e-06
2.44786e-06
2.44799e-06
2.44791e-06
2.44762e-06
2.44712e-06
2.44639e-06
2.44542e-06
2.4442e-06
2.44281e-06
2.44144e-06
2.44102e-06
2.44231e-06
2.44359e-06
2.44483e-06
2.44587e-06
2.44667e-06
2.44722e-06
2.44757e-06
2.4477e-06
2.44762e-06
2.44733e-06
2.44682e-06
2.44609e-06
2.44511e-06
2.44387e-06
2.44246e-06
2.44109e-06
2.44041e-06
2.44172e-06
2.44302e-06
2.44428e-06
2.44534e-06
2.44615e-06
2.44672e-06
2.44706e-06
2.4472e-06
2.44712e-06
2.44682e-06
2.4463e-06
2.44556e-06
2.44457e-06
2.4433e-06
2.44187e-06
2.44047e-06
2.43954e-06
2.44087e-06
2.44221e-06
2.4435e-06
2.44458e-06
2.4454e-06
2.44598e-06
2.44634e-06
2.44648e-06
2.44639e-06
2.44609e-06
2.44556e-06
2.4448e-06
2.44378e-06
2.44249e-06
2.44102e-06
2.4396e-06
2.43835e-06
2.43971e-06
2.4411e-06
2.44244e-06
2.44356e-06
2.44441e-06
2.44501e-06
2.44537e-06
2.44551e-06
2.44543e-06
2.44511e-06
2.44457e-06
2.44378e-06
2.44273e-06
2.4414e-06
2.43987e-06
2.43841e-06
2.43686e-06
2.43826e-06
2.43971e-06
2.4411e-06
2.44226e-06
2.44314e-06
2.44376e-06
2.44414e-06
2.44429e-06
2.4442e-06
2.44387e-06
2.4433e-06
2.44249e-06
2.4414e-06
2.44001e-06
2.43842e-06
2.43692e-06
2.43515e-06
2.43659e-06
2.4381e-06
2.43956e-06
2.44078e-06
2.4417e-06
2.44235e-06
2.44275e-06
2.4429e-06
2.44281e-06
2.44246e-06
2.44187e-06
2.44102e-06
2.43987e-06
2.43842e-06
2.43675e-06
2.4352e-06
2.4333e-06
2.43503e-06
2.4366e-06
2.4381e-06
2.43936e-06
2.4403e-06
2.44097e-06
2.44138e-06
2.44154e-06
2.44144e-06
2.44109e-06
2.44047e-06
2.4396e-06
2.43841e-06
2.43692e-06
2.4352e-06
2.43335e-06
2.38294e-06
2.38494e-06
2.38672e-06
2.38846e-06
2.38993e-06
2.39103e-06
2.39182e-06
2.39231e-06
2.39249e-06
2.39237e-06
2.39195e-06
2.39123e-06
2.3902e-06
2.38881e-06
2.38705e-06
2.38512e-06
2.38297e-06
2.38494e-06
2.3866e-06
2.38836e-06
2.39006e-06
2.39151e-06
2.3926e-06
2.39339e-06
2.39386e-06
2.39405e-06
2.39393e-06
2.39352e-06
2.3928e-06
2.39178e-06
2.39041e-06
2.38869e-06
2.38677e-06
2.38498e-06
2.38672e-06
2.38836e-06
2.39008e-06
2.39173e-06
2.39312e-06
2.39418e-06
2.39494e-06
2.3954e-06
2.39558e-06
2.39547e-06
2.39507e-06
2.39437e-06
2.39338e-06
2.39206e-06
2.39041e-06
2.38852e-06
2.38676e-06
2.38847e-06
2.39006e-06
2.39173e-06
2.39332e-06
2.39467e-06
2.39571e-06
2.39644e-06
2.39689e-06
2.39706e-06
2.39695e-06
2.39656e-06
2.39589e-06
2.39493e-06
2.39365e-06
2.39205e-06
2.39022e-06
2.38851e-06
2.38993e-06
2.39151e-06
2.39312e-06
2.39467e-06
2.39599e-06
2.39699e-06
2.39771e-06
2.39815e-06
2.39831e-06
2.39821e-06
2.39783e-06
2.39718e-06
2.39624e-06
2.395e-06
2.39344e-06
2.39166e-06
2.38997e-06
2.39103e-06
2.3926e-06
2.39418e-06
2.39571e-06
2.39699e-06
2.39798e-06
2.39868e-06
2.39911e-06
2.39927e-06
2.39917e-06
2.3988e-06
2.39816e-06
2.39724e-06
2.39603e-06
2.3945e-06
2.39276e-06
2.39108e-06
2.39182e-06
2.39339e-06
2.39494e-06
2.39644e-06
2.39771e-06
2.39868e-06
2.39937e-06
2.39979e-06
2.39996e-06
2.39985e-06
2.39949e-06
2.39886e-06
2.39796e-06
2.39676e-06
2.39525e-06
2.39354e-06
2.39187e-06
2.39231e-06
2.39386e-06
2.3954e-06
2.39689e-06
2.39815e-06
2.39911e-06
2.39979e-06
2.40021e-06
2.40037e-06
2.40027e-06
2.39991e-06
2.39929e-06
2.39839e-06
2.3972e-06
2.39571e-06
2.39402e-06
2.39235e-06
2.39249e-06
2.39405e-06
2.39558e-06
2.39706e-06
2.39831e-06
2.39927e-06
2.39996e-06
2.40037e-06
2.40054e-06
2.40044e-06
2.40007e-06
2.39945e-06
2.39856e-06
2.39738e-06
2.39589e-06
2.3942e-06
2.39254e-06
2.39237e-06
2.39393e-06
2.39547e-06
2.39695e-06
2.39821e-06
2.39917e-06
2.39985e-06
2.40027e-06
2.40044e-06
2.40034e-06
2.39997e-06
2.39935e-06
2.39845e-06
2.39727e-06
2.39577e-06
2.39408e-06
2.39242e-06
2.39195e-06
2.39352e-06
2.39507e-06
2.39656e-06
2.39783e-06
2.3988e-06
2.39949e-06
2.39991e-06
2.40007e-06
2.39997e-06
2.39961e-06
2.39898e-06
2.39808e-06
2.39688e-06
2.39538e-06
2.39367e-06
2.392e-06
2.39123e-06
2.3928e-06
2.39437e-06
2.39589e-06
2.39718e-06
2.39816e-06
2.39886e-06
2.39929e-06
2.39945e-06
2.39935e-06
2.39898e-06
2.39834e-06
2.39743e-06
2.39621e-06
2.39469e-06
2.39295e-06
2.39127e-06
2.3902e-06
2.39178e-06
2.39338e-06
2.39493e-06
2.39624e-06
2.39724e-06
2.39796e-06
2.39839e-06
2.39856e-06
2.39846e-06
2.39808e-06
2.39743e-06
2.3965e-06
2.39526e-06
2.3937e-06
2.39193e-06
2.39024e-06
2.38881e-06
2.39041e-06
2.39206e-06
2.39365e-06
2.395e-06
2.39603e-06
2.39676e-06
2.39721e-06
2.39738e-06
2.39727e-06
2.39688e-06
2.39621e-06
2.39526e-06
2.39399e-06
2.39239e-06
2.39056e-06
2.38886e-06
2.38705e-06
2.38869e-06
2.39041e-06
2.39205e-06
2.39344e-06
2.3945e-06
2.39525e-06
2.39571e-06
2.39589e-06
2.39578e-06
2.39538e-06
2.39469e-06
2.3937e-06
2.39239e-06
2.39074e-06
2.38885e-06
2.38709e-06
2.38512e-06
2.38677e-06
2.38852e-06
2.39022e-06
2.39166e-06
2.39276e-06
2.39354e-06
2.39402e-06
2.3942e-06
2.39408e-06
2.39367e-06
2.39295e-06
2.39193e-06
2.39057e-06
2.38885e-06
2.38694e-06
2.38516e-06
2.38297e-06
2.38498e-06
2.38676e-06
2.38851e-06
2.38997e-06
2.39108e-06
2.39187e-06
2.39235e-06
2.39254e-06
2.39242e-06
2.392e-06
2.39127e-06
2.39024e-06
2.38885e-06
2.38709e-06
2.38516e-06
2.38301e-06
2.3363e-06
2.33838e-06
2.34022e-06
2.34206e-06
2.34359e-06
2.34475e-06
2.34559e-06
2.34609e-06
2.34629e-06
2.34616e-06
2.34572e-06
2.34495e-06
2.34386e-06
2.34241e-06
2.34054e-06
2.33855e-06
2.33632e-06
2.33838e-06
2.34013e-06
2.34196e-06
2.34376e-06
2.34528e-06
2.34644e-06
2.34728e-06
2.34778e-06
2.34798e-06
2.34785e-06
2.34741e-06
2.34664e-06
2.34555e-06
2.3441e-06
2.34228e-06
2.34028e-06
2.3384e-06
2.34022e-06
2.34196e-06
2.34378e-06
2.34552e-06
2.34701e-06
2.34814e-06
2.34895e-06
2.34944e-06
2.34963e-06
2.34951e-06
2.34908e-06
2.34833e-06
2.34727e-06
2.34586e-06
2.3441e-06
2.3421e-06
2.34024e-06
2.34207e-06
2.34376e-06
2.34552e-06
2.34722e-06
2.34867e-06
2.34978e-06
2.35057e-06
2.35105e-06
2.35123e-06
2.35111e-06
2.35069e-06
2.34996e-06
2.34893e-06
2.34755e-06
2.34584e-06
2.34389e-06
2.34209e-06
2.34359e-06
2.34528e-06
2.347e-06
2.34867e-06
2.35008e-06
2.35117e-06
2.35194e-06
2.35241e-06
2.35259e-06
2.35248e-06
2.35206e-06
2.35135e-06
2.35034e-06
2.34899e-06
2.34731e-06
2.34541e-06
2.34361e-06
2.34475e-06
2.34644e-06
2.34814e-06
2.34977e-06
2.35117e-06
2.35224e-06
2.353e-06
2.35346e-06
2.35364e-06
2.35353e-06
2.35312e-06
2.35242e-06
2.35142e-06
2.3501e-06
2.34844e-06
2.34657e-06
2.34477e-06
2.34559e-06
2.34728e-06
2.34895e-06
2.35056e-06
2.35194e-06
2.353e-06
2.35375e-06
2.35421e-06
2.35439e-06
2.35427e-06
2.35387e-06
2.35318e-06
2.35219e-06
2.35088e-06
2.34925e-06
2.34741e-06
2.34561e-06
2.34609e-06
2.34778e-06
2.34944e-06
2.35105e-06
2.35241e-06
2.35346e-06
2.35421e-06
2.35467e-06
2.35484e-06
2.35473e-06
2.35433e-06
2.35365e-06
2.35266e-06
2.35137e-06
2.34974e-06
2.34791e-06
2.34612e-06
2.34629e-06
2.34798e-06
2.34963e-06
2.35123e-06
2.35259e-06
2.35364e-06
2.35439e-06
2.35484e-06
2.35502e-06
2.35491e-06
2.35451e-06
2.35382e-06
2.35284e-06
2.35155e-06
2.34993e-06
2.34811e-06
2.34631e-06
2.34616e-06
2.34785e-06
2.34951e-06
2.35111e-06
2.35248e-06
2.35353e-06
2.35427e-06
2.35473e-06
2.35491e-06
2.35479e-06
2.3544e-06
2.35371e-06
2.35273e-06
2.35143e-06
2.34981e-06
2.34798e-06
2.34618e-06
2.34572e-06
2.34741e-06
2.34908e-06
2.35069e-06
2.35206e-06
2.35312e-06
2.35387e-06
2.35433e-06
2.35451e-06
2.3544e-06
2.35399e-06
2.3533e-06
2.35232e-06
2.35101e-06
2.34938e-06
2.34754e-06
2.34574e-06
2.34495e-06
2.34664e-06
2.34833e-06
2.34996e-06
2.35135e-06
2.35242e-06
2.35318e-06
2.35365e-06
2.35382e-06
2.35371e-06
2.3533e-06
2.3526e-06
2.35161e-06
2.35029e-06
2.34864e-06
2.34677e-06
2.34497e-06
2.34386e-06
2.34555e-06
2.34727e-06
2.34893e-06
2.35034e-06
2.35142e-06
2.35219e-06
2.35266e-06
2.35284e-06
2.35273e-06
2.35232e-06
2.35161e-06
2.35059e-06
2.34925e-06
2.34758e-06
2.34568e-06
2.34388e-06
2.34241e-06
2.34411e-06
2.34586e-06
2.34755e-06
2.34899e-06
2.3501e-06
2.35088e-06
2.35137e-06
2.35155e-06
2.35143e-06
2.35101e-06
2.35029e-06
2.34925e-06
2.34788e-06
2.34617e-06
2.34424e-06
2.34243e-06
2.34054e-06
2.34228e-06
2.3441e-06
2.34584e-06
2.34731e-06
2.34844e-06
2.34925e-06
2.34974e-06
2.34993e-06
2.34981e-06
2.34938e-06
2.34864e-06
2.34758e-06
2.34618e-06
2.34442e-06
2.34242e-06
2.34056e-06
2.33855e-06
2.34028e-06
2.3421e-06
2.34389e-06
2.34541e-06
2.34658e-06
2.34741e-06
2.34791e-06
2.34811e-06
2.34798e-06
2.34754e-06
2.34677e-06
2.34568e-06
2.34424e-06
2.34242e-06
2.34043e-06
2.33857e-06
2.33632e-06
2.3384e-06
2.34024e-06
2.34209e-06
2.34361e-06
2.34478e-06
2.34561e-06
2.34612e-06
2.34631e-06
2.34618e-06
2.34574e-06
2.34497e-06
2.34388e-06
2.34243e-06
2.34056e-06
2.33857e-06
2.33634e-06
2.29279e-06
2.29482e-06
2.29662e-06
2.29846e-06
2.29997e-06
2.30114e-06
2.30197e-06
2.30248e-06
2.30268e-06
2.30255e-06
2.3021e-06
2.30133e-06
2.30024e-06
2.2988e-06
2.29693e-06
2.29498e-06
2.2928e-06
2.29482e-06
2.29654e-06
2.29834e-06
2.30014e-06
2.30166e-06
2.30283e-06
2.30367e-06
2.30418e-06
2.30438e-06
2.30425e-06
2.3038e-06
2.30303e-06
2.30193e-06
2.30048e-06
2.29865e-06
2.29668e-06
2.29484e-06
2.29662e-06
2.29834e-06
2.30015e-06
2.30191e-06
2.3034e-06
2.30455e-06
2.30537e-06
2.30587e-06
2.30606e-06
2.30594e-06
2.3055e-06
2.30474e-06
2.30366e-06
2.30225e-06
2.30047e-06
2.29847e-06
2.29663e-06
2.29846e-06
2.30014e-06
2.30191e-06
2.30362e-06
2.30508e-06
2.30621e-06
2.30702e-06
2.30751e-06
2.3077e-06
2.30758e-06
2.30714e-06
2.3064e-06
2.30535e-06
2.30395e-06
2.30222e-06
2.30027e-06
2.29848e-06
2.29997e-06
2.30166e-06
2.3034e-06
2.30508e-06
2.30652e-06
2.30763e-06
2.30843e-06
2.30891e-06
2.3091e-06
2.30898e-06
2.30855e-06
2.30782e-06
2.30678e-06
2.30541e-06
2.30371e-06
2.30178e-06
2.29998e-06
2.30114e-06
2.30283e-06
2.30455e-06
2.30621e-06
2.30763e-06
2.30873e-06
2.30951e-06
2.30999e-06
2.31018e-06
2.31006e-06
2.30964e-06
2.30892e-06
2.30789e-06
2.30654e-06
2.30485e-06
2.30296e-06
2.30115e-06
2.30197e-06
2.30367e-06
2.30537e-06
2.30702e-06
2.30843e-06
2.30951e-06
2.31029e-06
2.31076e-06
2.31095e-06
2.31083e-06
2.31041e-06
2.3097e-06
2.30868e-06
2.30734e-06
2.30567e-06
2.3038e-06
2.30199e-06
2.30248e-06
2.30418e-06
2.30587e-06
2.30751e-06
2.30891e-06
2.30999e-06
2.31076e-06
2.31124e-06
2.31142e-06
2.3113e-06
2.31089e-06
2.31018e-06
2.30917e-06
2.30783e-06
2.30617e-06
2.30431e-06
2.3025e-06
2.30268e-06
2.30438e-06
2.30606e-06
2.3077e-06
2.3091e-06
2.31018e-06
2.31095e-06
2.31142e-06
2.3116e-06
2.31148e-06
2.31107e-06
2.31036e-06
2.30935e-06
2.30802e-06
2.30636e-06
2.30451e-06
2.30269e-06
2.30255e-06
2.30425e-06
2.30594e-06
2.30758e-06
2.30898e-06
2.31006e-06
2.31083e-06
2.3113e-06
2.31148e-06
2.31136e-06
2.31095e-06
2.31024e-06
2.30923e-06
2.3079e-06
2.30624e-06
2.30438e-06
2.30257e-06
2.3021e-06
2.3038e-06
2.3055e-06
2.30714e-06
2.30855e-06
2.30964e-06
2.31041e-06
2.31089e-06
2.31107e-06
2.31095e-06
2.31054e-06
2.30982e-06
2.30881e-06
2.30747e-06
2.3058e-06
2.30393e-06
2.30212e-06
2.30133e-06
2.30303e-06
2.30474e-06
2.3064e-06
2.30782e-06
2.30892e-06
2.3097e-06
2.31018e-06
2.31036e-06
2.31024e-06
2.30982e-06
2.3091e-06
2.30808e-06
2.30673e-06
2.30504e-06
2.30315e-06
2.30135e-06
2.30024e-06
2.30193e-06
2.30367e-06
2.30535e-06
2.30678e-06
2.30789e-06
2.30868e-06
2.30917e-06
2.30935e-06
2.30923e-06
2.30881e-06
2.30808e-06
2.30704e-06
2.30567e-06
2.30397e-06
2.30205e-06
2.30025e-06
2.2988e-06
2.30048e-06
2.30225e-06
2.30395e-06
2.30541e-06
2.30654e-06
2.30734e-06
2.30783e-06
2.30802e-06
2.3079e-06
2.30747e-06
2.30673e-06
2.30567e-06
2.30428e-06
2.30256e-06
2.30061e-06
2.29882e-06
2.29693e-06
2.29866e-06
2.30047e-06
2.30222e-06
2.30371e-06
2.30485e-06
2.30567e-06
2.30617e-06
2.30636e-06
2.30624e-06
2.3058e-06
2.30505e-06
2.30397e-06
2.30256e-06
2.30079e-06
2.29879e-06
2.29695e-06
2.29498e-06
2.29669e-06
2.29847e-06
2.30027e-06
2.30179e-06
2.30296e-06
2.3038e-06
2.30431e-06
2.30451e-06
2.30438e-06
2.30393e-06
2.30316e-06
2.30206e-06
2.30061e-06
2.29879e-06
2.29683e-06
2.295e-06
2.29281e-06
2.29484e-06
2.29663e-06
2.29848e-06
2.29999e-06
2.30116e-06
2.30199e-06
2.3025e-06
2.30269e-06
2.30257e-06
2.30212e-06
2.30135e-06
2.30025e-06
2.29882e-06
2.29695e-06
2.295e-06
2.29282e-06
2.25189e-06
2.25377e-06
2.25544e-06
2.25718e-06
2.2586e-06
2.25971e-06
2.2605e-06
2.26099e-06
2.26117e-06
2.26105e-06
2.26063e-06
2.25989e-06
2.25885e-06
2.2575e-06
2.25573e-06
2.25391e-06
2.2519e-06
2.25377e-06
2.25537e-06
2.25705e-06
2.25876e-06
2.2602e-06
2.26132e-06
2.26212e-06
2.26261e-06
2.2628e-06
2.26268e-06
2.26225e-06
2.26151e-06
2.26045e-06
2.25908e-06
2.25735e-06
2.25551e-06
2.25378e-06
2.25544e-06
2.25705e-06
2.25877e-06
2.26044e-06
2.26186e-06
2.26297e-06
2.26376e-06
2.26424e-06
2.26442e-06
2.2643e-06
2.26388e-06
2.26315e-06
2.26212e-06
2.26076e-06
2.25907e-06
2.25718e-06
2.25545e-06
2.25718e-06
2.25876e-06
2.26044e-06
2.26207e-06
2.26348e-06
2.26457e-06
2.26535e-06
2.26583e-06
2.26601e-06
2.26589e-06
2.26547e-06
2.26475e-06
2.26373e-06
2.26239e-06
2.26073e-06
2.25888e-06
2.25719e-06
2.2586e-06
2.2602e-06
2.26186e-06
2.26348e-06
2.26487e-06
2.26595e-06
2.26672e-06
2.26719e-06
2.26737e-06
2.26726e-06
2.26684e-06
2.26613e-06
2.26512e-06
2.2638e-06
2.26216e-06
2.26032e-06
2.25861e-06
2.25971e-06
2.26132e-06
2.26297e-06
2.26457e-06
2.26595e-06
2.26702e-06
2.26778e-06
2.26825e-06
2.26843e-06
2.26831e-06
2.2679e-06
2.2672e-06
2.2662e-06
2.26488e-06
2.26326e-06
2.26144e-06
2.25972e-06
2.2605e-06
2.26212e-06
2.26376e-06
2.26535e-06
2.26672e-06
2.26778e-06
2.26854e-06
2.26901e-06
2.26918e-06
2.26907e-06
2.26866e-06
2.26796e-06
2.26697e-06
2.26566e-06
2.26405e-06
2.26224e-06
2.26052e-06
2.26099e-06
2.26261e-06
2.26424e-06
2.26583e-06
2.26719e-06
2.26825e-06
2.26901e-06
2.26947e-06
2.26965e-06
2.26953e-06
2.26913e-06
2.26843e-06
2.26744e-06
2.26614e-06
2.26453e-06
2.26274e-06
2.261e-06
2.26118e-06
2.2628e-06
2.26442e-06
2.26601e-06
2.26737e-06
2.26843e-06
2.26918e-06
2.26965e-06
2.26982e-06
2.26971e-06
2.2693e-06
2.26861e-06
2.26762e-06
2.26632e-06
2.26471e-06
2.26292e-06
2.26119e-06
2.26105e-06
2.26268e-06
2.2643e-06
2.26589e-06
2.26726e-06
2.26831e-06
2.26907e-06
2.26953e-06
2.26971e-06
2.26959e-06
2.26919e-06
2.26849e-06
2.2675e-06
2.2662e-06
2.26459e-06
2.2628e-06
2.26107e-06
2.26063e-06
2.26225e-06
2.26388e-06
2.26547e-06
2.26684e-06
2.2679e-06
2.26866e-06
2.26913e-06
2.2693e-06
2.26919e-06
2.26878e-06
2.26808e-06
2.26709e-06
2.26578e-06
2.26417e-06
2.26237e-06
2.26064e-06
2.25989e-06
2.26151e-06
2.26315e-06
2.26475e-06
2.26613e-06
2.2672e-06
2.26796e-06
2.26843e-06
2.26861e-06
2.26849e-06
2.26808e-06
2.26738e-06
2.26638e-06
2.26507e-06
2.26344e-06
2.26163e-06
2.25991e-06
2.25885e-06
2.26045e-06
2.26212e-06
2.26373e-06
2.26512e-06
2.2662e-06
2.26697e-06
2.26744e-06
2.26762e-06
2.2675e-06
2.26709e-06
2.26638e-06
2.26537e-06
2.26405e-06
2.26241e-06
2.26057e-06
2.25886e-06
2.25751e-06
2.25908e-06
2.26076e-06
2.26239e-06
2.2638e-06
2.26488e-06
2.26566e-06
2.26614e-06
2.26632e-06
2.2662e-06
2.26578e-06
2.26507e-06
2.26405e-06
2.26271e-06
2.26106e-06
2.25921e-06
2.25752e-06
2.25573e-06
2.25735e-06
2.25907e-06
2.26074e-06
2.26216e-06
2.26326e-06
2.26405e-06
2.26453e-06
2.26471e-06
2.26459e-06
2.26417e-06
2.26344e-06
2.26241e-06
2.26106e-06
2.25937e-06
2.25748e-06
2.25574e-06
2.25392e-06
2.25551e-06
2.25718e-06
2.25888e-06
2.26032e-06
2.26144e-06
2.26224e-06
2.26274e-06
2.26292e-06
2.2628e-06
2.26237e-06
2.26163e-06
2.26057e-06
2.25921e-06
2.25748e-06
2.25564e-06
2.25393e-06
2.2519e-06
2.25378e-06
2.25545e-06
2.25719e-06
2.25861e-06
2.25972e-06
2.26052e-06
2.261e-06
2.26119e-06
2.26107e-06
2.26064e-06
2.25991e-06
2.25886e-06
2.25752e-06
2.25574e-06
2.25393e-06
2.25191e-06
2.21331e-06
2.21499e-06
2.21651e-06
2.21809e-06
2.21938e-06
2.2204e-06
2.22113e-06
2.22158e-06
2.22175e-06
2.22164e-06
2.22124e-06
2.22057e-06
2.21961e-06
2.21839e-06
2.21677e-06
2.21513e-06
2.21332e-06
2.21499e-06
2.21645e-06
2.21797e-06
2.21953e-06
2.22085e-06
2.22188e-06
2.22262e-06
2.22308e-06
2.22325e-06
2.22314e-06
2.22274e-06
2.22205e-06
2.22108e-06
2.21983e-06
2.21824e-06
2.21657e-06
2.215e-06
2.21651e-06
2.21797e-06
2.21954e-06
2.22107e-06
2.22238e-06
2.2234e-06
2.22413e-06
2.22458e-06
2.22476e-06
2.22464e-06
2.22425e-06
2.22357e-06
2.22261e-06
2.22137e-06
2.21981e-06
2.21809e-06
2.21652e-06
2.21809e-06
2.21953e-06
2.22107e-06
2.22258e-06
2.22388e-06
2.22489e-06
2.22562e-06
2.22606e-06
2.22624e-06
2.22612e-06
2.22573e-06
2.22506e-06
2.22411e-06
2.22287e-06
2.22134e-06
2.21964e-06
2.2181e-06
2.21938e-06
2.22085e-06
2.22238e-06
2.22388e-06
2.22517e-06
2.22618e-06
2.2269e-06
2.22734e-06
2.22751e-06
2.2274e-06
2.22701e-06
2.22635e-06
2.2254e-06
2.22417e-06
2.22265e-06
2.22095e-06
2.21939e-06
2.2204e-06
2.22188e-06
2.2234e-06
2.22489e-06
2.22618e-06
2.22718e-06
2.22789e-06
2.22833e-06
2.2285e-06
2.22839e-06
2.22801e-06
2.22734e-06
2.22641e-06
2.22518e-06
2.22367e-06
2.22199e-06
2.22041e-06
2.22113e-06
2.22262e-06
2.22413e-06
2.22562e-06
2.2269e-06
2.22789e-06
2.22861e-06
2.22905e-06
2.22921e-06
2.2291e-06
2.22872e-06
2.22806e-06
2.22713e-06
2.22591e-06
2.2244e-06
2.22273e-06
2.22114e-06
2.22158e-06
2.22308e-06
2.22458e-06
2.22606e-06
2.22734e-06
2.22834e-06
2.22905e-06
2.22949e-06
2.22965e-06
2.22954e-06
2.22916e-06
2.2285e-06
2.22757e-06
2.22635e-06
2.22485e-06
2.22319e-06
2.22159e-06
2.22175e-06
2.22325e-06
2.22476e-06
2.22624e-06
2.22751e-06
2.2285e-06
2.22921e-06
2.22965e-06
2.22982e-06
2.22971e-06
2.22933e-06
2.22867e-06
2.22774e-06
2.22652e-06
2.22502e-06
2.22336e-06
2.22176e-06