/*--------------------------------*- C++ -*----------------------------------*\
  =========                 |
  \\      /  F ield         | OpenFOAM: The Open Source CFD Toolbox
   \\    /   O peration     | Website:  https://openfoam.org
    \\  /    A nd           | Version:  6
     \\/     M anipulation  |
\*---------------------------------------------------------------------------*/
FoamFile
{
    version     2.0;
    format      ascii;
    class       volScalarField;
    location    "0";
    object      P_rec;
}
// * * * * * * * * * * * * * * * * * * * * * * * * * * * * * * * * * * * * * //

dimensions      [0 2 -2 0 0 0 0];

internalField   nonuniform List<scalar> 
13046
(
1.33428
1.29296
1.32468
1.3497
1.33883
1.30286
1.32734
1.29974
1.33928
0.851111
0.68135
1.26381
1.32109
1.2324
1.31255
0.971914
1.25086
0.759426
1.35982
1.33237
1.33571
0.952421
1.25611
0.749903
1.34181
1.32703
1.33023
1.29833
1.22728
1.30674
1.34256
1.2653
1.31459
1.35411
1.3439
1.32709
1.35325
1.35044
1.33869
1.32875
1.2957
1.25545
1.34606
1.36149
1.34857
1.35021
1.34843
1.3413
1.32125
1.28324
1.3256
1.24272
1.31437
1.18949
1.24286
1.16747
1.31558
0.982633
1.19925
1.24883
1.22802
1.16598
1.30613
1.27169
0.910088
1.05871
1.22266
0.998324
1.24369
1.24514
1.02833
1.24641
0.934196
1.17374
1.24698
1.3584
1.33833
1.31773
1.2509
1.12373
0.905097
1.33692
1.31656
1.32836
1.26713
0.858836
1.01221
1.02275
1.2811
0.942968
1.27807
0.940633
0.931042
1.22066
1.19188
1.10646
1.07783
1.28445
1.28594
1.28322
1.03219
0.968453
1.35178
1.34967
1.3329
1.33168
1.21968
1.25933
1.32052
1.27641
1.22544
0.641972
1.262
0.487875
1.32871
1.25786
1.31415
1.18722
1.21584
1.03865
1.27145
1.08759
1.2758
0.80824
0.629174
1.26161
1.27439
1.15407
1.29851
1.32605
1.29647
1.24941
1.28032
0.977664
0.97717
1.13963
1.02652
1.28372
1.33237
1.24484
1.30583
1.28043
1.26519
1.32296
1.31382
1.26054
1.22477
1.33086
1.24663
1.27937
1.21545
1.13218
1.30146
1.34787
1.29367
1.29513
1.20093
1.16082
1.17954
1.15278
1.30936
1.3066
1.27696
1.24238
1.32098
0.839422
1.26654
0.699964
0.710211
1.26217
0.534336
1.12222
0.990957
1.27896
1.3188
1.18294
1.279
1.2835
1.32498
1.25741
1.27032
0.765333
0.873985
1.32295
1.20973
1.27779
1.34415
1.27478
1.28128
1.29555
1.2759
1.32522
1.2133
1.31585
1.28672
1.18636
1.29959
0.99351
1.27532
0.881433
1.2841
1.02749
0.995418
0.945173
0.905653
1.27828
1.22274
1.13072
1.30072
1.30468
1.13853
1.24212
0.903634
0.859479
0.923048
1.27491
1.34684
1.35024
1.33327
1.30862
1.23969
1.30283
1.284
1.01041
1.00228
1.28948
1.2257
1.32055
1.26557
0.611712
0.731498
1.30147
1.12922
1.20825
0.994291
0.951482
1.28187
1.20999
1.21237
1.31798
1.26214
1.15287
1.29557
1.0776
1.04272
1.28417
1.1219
1.15283
1.29781
1.26746
0.599533
0.690077
1.32874
1.27707
1.20648
0.671067
1.25681
0.427482
1.35126
1.34161
1.32416
1.22556
1.23333
1.20761
1.22632
1.32251
1.31212
1.24432
1.09035
0.865836
1.28443
1.17685
1.28942
1.11077
1.12006
1.29575
1.15734
1.02806
1.27688
1.35213
1.3429
1.35993
1.18399
1.18487
1.3085
1.28344
1.15403
1.28501
1.29306
1.28476
1.32758
1.2657
1.18147
1.1751
1.15973
1.30423
1.11824
1.27436
0.997625
1.33868
1.2825
1.2388
1.3072
1.13645
1.18821
1.21693
1.06102
1.26544
1.31491
1.24884
1.18063
1.18857
1.17723
1.02699
1.26197
1.01498
1.26601
1.26947
0.795514
0.909462
1.23333
1.11406
1.27837
0.353871
1.26027
0.512738
1.32352
1.34036
1.29301
1.25079
1.19123
1.30861
1.27698
1.03939
0.926919
1.22713
1.13993
1.31109
1.04625
1.03232
1.28404
1.25994
1.32031
1.23059
1.16995
1.30113
1.25144
1.32679
1.019
1.25338
0.808284
1.22867
1.10129
1.29981
1.20942
1.14339
1.29467
1.26716
1.2515
1.3257
1.22131
1.24898
1.32415
1.34131
1.28955
1.3311
1.30072
1.1419
1.20039
0.97057
0.888815
1.27764
1.04877
1.03532
1.28765
1.2575
1.24589
1.07292
1.15212
1.17722
0.993123
0.954142
1.24983
1.25493
1.26084
0.380312
0.565709
0.712462
1.25556
0.464329
1.20755
1.18882
1.30498
1.27274
0.969224
0.838332
1.23653
1.22677
1.06768
1.04988
1.26132
1.25829
1.27327
0.785847
0.820993
0.640642
1.25504
0.370155
1.33074
1.35949
1.34196
0.629051
0.436389
1.26108
1.31305
1.17887
1.27467
0.892685
0.791571
1.27153
0.361934
1.26751
0.401353
1.33499
1.29981
1.27733
1.32874
1.3294
1.34498
0.816251
1.25916
0.617253
1.31832
1.3144
1.34209
1.3387
1.35942
1.34855
1.3055
1.10097
1.20101
1.31005
1.32816
1.35036
1.3279
1.29574
1.34246
1.27294
1.08901
1.24431
1.25815
1.26288
0.748832
0.743673
0.923878
0.909913
0.921117
0.854785
1.27542
1.24916
1.24923
1.03625
1.32102
1.27438
1.22092
1.10047
1.14509
1.29055
0.501183
1.26801
0.502757
1.27704
0.923219
0.897199
0.744748
1.26299
0.586808
1.26889
0.314859
0.372397
0.263667
1.26507
0.433877
1.12296
1.15753
1.29552
0.671345
1.27127
0.686297
1.109
1.01339
1.28425
0.911367
1.24435
0.647565
1.31896
1.3203
1.27961
0.827553
1.27433
0.863408
1.11192
1.29253
1.16306
1.10641
1.11032
1.2973
1.27104
0.12932
0.217981
0.389185
1.26282
0.483
1.3334
1.33151
1.28952
0.765207
0.810865
1.27377
1.27224
0.767429
0.753389
0.970627
1.26801
0.831042
1.25029
0.873304
1.07361
1.28768
1.07681
1.24334
1.00702
1.20169
1.25742
1.2464
1.03281
0.782486
1.30431
1.29179
1.19343
1.16611
1.28691
1.28675
1.31091
1.20124
1.28418
1.25315
1.05673
1.25945
1.07447
1.07206
1.2904
0.843176
0.915694
1.27411
1.28733
1.06676
1.03831
0.28589
1.26306
0.484994
1.34614
1.34183
1.31324
1.27377
1.32093
1.2826
1.28524
1.27903
1.26517
1.10746
1.26275
1.14105
0.40097
1.2674
0.404202
0.787623
0.849008
1.27442
1.30759
1.25182
1.1709
1.10652
1.06865
1.28975
1.24965
0.8972
1.09885
0.496111
0.6009
1.26611
0.545781
0.631442
1.2667
1.23448
1.07346
1.26844
1.34283
1.28048
1.2583
0.937369
1.26638
0.783552
1.10116
1.127
1.29654
1.27254
0.945728
1.09367
1.28828
1.26527
1.14651
1.21975
1.22658
1.31682
1.32939
1.28701
1.24104
1.26748
0.763302
0.898345
1.15539
1.01183
1.27072
1.3439
1.30955
1.28459
0.989697
1.24249
0.728952
1.31468
1.2427
1.30321
1.30797
1.28096
1.33886
1.12861
1.13755
1.29888
0.7943
1.25068
0.528967
0.82998
1.24788
0.553207
1.26777
0.929076
1.09065
1.18966
1.22716
1.31019
1.24905
0.464083
0.738648
1.28113
0.968817
1.07418
1.26854
0.283627
0.304912
0.393996
0.201871
1.26225
1.2511
0.814039
1.04408
1.26727
0.675086
0.79374
0.974803
1.01024
1.25966
0.787373
1.26295
0.839342
1.05934
0.980352
1.28273
1.29693
1.12522
1.06014
1.35464
1.32592
1.29607
1.08677
1.02531
1.28861
1.29038
1.10197
1.05092
1.06056
1.24407
0.808412
1.27429
1.07802
1.25835
1.29616
1.15456
1.26684
1.16695
1.10864
1.29699
1.15036
1.09622
1.29583
1.34896
1.3083
1.30427
1.2866
1.14621
1.2852
1.27407
0.844961
0.85928
0.605182
1.26832
0.56059
0.560701
1.27047
0.549103
1.32309
1.29155
1.22779
0.452293
1.26744
0.528831
1.12455
1.26738
0.961029
1.26645
0.46118
0.483231
1.352
1.34556
1.3149
1.27347
1.19406
1.30421
1.23439
1.19597
1.3147
1.27239
0.70526
0.737898
1.10131
1.12985
1.2959
1.24606
0.95738
0.708438
1.24576
1.17036
1.30079
1.3596
1.33385
1.30639
0.711942
0.770899
1.27044
1.27535
0.938204
1.06915
0.778438
0.735243
1.25736
1.25791
0.562991
0.520949
1.2502
1.22593
1.31931
1.14857
1.17932
1.29944
1.31532
1.29242
1.33964
0.618974
0.662089
0.629629
1.26851
0.656093
1.26898
1.19648
1.09589
1.29214
0.761599
0.709448
0.681641
0.637589
1.27038
1.27048
1.18322
1.17188
1.30958
1.27972
1.22113
1.31278
0.87769
1.24817
0.624004
1.26792
1.21153
1.31645
1.31153
1.26806
1.32965
0.803362
1.25185
0.5673
1.24785
1.13706
1.29141
1.17267
1.08596
1.29374
1.29082
1.11974
1.25752
1.00417
1.27854
0.984178
1.26812
0.177095
0.27431
1.24885
1.19549
1.30806
0.912885
1.25473
0.696046
1.23747
1.08896
1.29493
0.520743
1.25649
0.287795
1.33954
1.33
1.28486
1.27898
1.28071
1.26332
1.32039
1.29205
1.34115
1.33398
1.34329
1.2937
1.28072
1.30848
1.27787
1.2664
1.23779
1.32382
1.28223
1.24002
1.32346
1.26915
0.586339
0.585939
1.32021
1.22403
1.28685
0.808381
0.706885
1.26897
1.15479
1.12517
1.08043
1.04235
1.29128
1.28687
1.31782
1.25242
1.29658
1.25605
1.10055
1.26388
1.20267
1.13071
1.29927
1.35519
1.32969
1.33455
1.11791
1.05053
1.28997
1.34618
1.31541
1.30123
1.20435
1.16997
1.30791
1.25898
1.12579
1.26643
1.35264
1.35169
1.31887
1.33635
1.32107
1.32942
1.34616
1.30275
1.34871
1.30864
1.32214
1.28989
1.30881
1.30511
1.21289
1.20675
1.29576
1.29156
1.25581
0.895475
1.08778
1.29601
1.11236
1.19185
1.25857
1.26196
0.857303
0.874332
1.05108
1.04838
1.30852
1.24725
1.15089
1.35647
1.34834
1.34125
1.10683
1.02424
1.28727
1.33871
1.30298
1.25235
1.24948
1.11282
1.26813
1.14209
1.14969
0.946048
1.25819
0.968441
1.2618
1.16644
1.07074
1.28773
0.571675
0.344387
1.25715
1.23393
1.11165
1.29734
1.28971
1.29446
1.24161
1.098
1.25248
1.1227
1.09067
1.06772
1.29084
1.26509
1.12162
1.26726
1.31124
1.24437
1.14646
1.29538
1.30665
1.25848
1.2742
1.16805
1.1657
1.28996
1.25901
1.13523
1.17481
1.09162
1.2929
1.3491
1.31802
1.31017
0.853753
1.25728
0.645858
1.30563
1.24414
1.12533
1.2604
1.23954
1.12259
1.09956
1.27194
1.27582
1.25704
0.695578
0.897344
0.885757
1.25222
0.649117
0.847148
1.25391
0.616633
1.12234
1.26193
0.943834
1.27704
1.15099
1.27417
0.734961
0.935041
1.16431
0.741331
1.10472
0.471482
1.03587
0.844643
0.718817
1.10032
1.09788
0.690126
0.749982
1.09088
0.941938
0.765044
0.781474
0.900036
0.939865
1.06037
0.981027
0.885345
1.11844
1.24101
1.1818
0.940093
1.11965
0.709585
1.00066
0.737415
0.726792
1.03524
0.957555
0.968777
0.76912
0.979595
1.16374
1.11339
0.8085
0.944847
0.855578
1.25878
0.796075
1.09111
1.11631
0.894996
0.903843
0.827892
0.698244
0.798896
1.18658
0.990642
0.768219
0.877981
0.720977
1.18235
1.05989
0.966516
0.818379
1.07986
0.793978
0.80666
1.1839
0.869128
0.968585
1.06351
0.992016
1.22009
1.11568
1.068
0.672896
0.720045
0.843331
1.08017
0.705663
0.969564
0.915026
0.761893
1.06256
1.1456
0.896778
0.960223
0.703203
0.757159
0.888969
1.07353
0.891307
0.781892
0.933732
1.18644
0.774995
1.08522
1.17857
0.973991
0.75894
0.399089
0.765667
0.833842
0.756886
0.670327
1.01682
1.12251
1.12734
1.22611
0.75963
0.753548
0.704501
0.787815
0.768682
1.16151
1.12827
1.06225
0.747903
0.726433
0.961353
1.0898
0.913985
0.781628
0.649305
0.893629
0.95871
1.19041
1.21582
1.08391
0.95796
0.847189
0.691436
1.20391
0.680168
1.07706
0.66252
1.17787
0.704141
0.672371
0.717695
1.14429
0.958702
0.620694
0.781907
1.04213
0.759861
1.08072
0.978072
0.798602
1.11314
0.872969
0.750852
1.15444
0.791122
0.915364
0.691481
0.959218
0.804808
1.14359
1.08467
0.904118
1.07849
1.08029
1.16337
0.922676
0.835926
0.791738
1.06386
0.678406
0.941355
0.710935
1.2415
0.895926
1.12907
1.20652
0.984105
1.20904
1.14911
1.16562
0.728424
0.655094
0.690177
1.16589
0.738385
0.713521
0.670769
0.715525
0.910557
0.869173
0.983173
1.20588
1.08379
0.862093
1.07096
0.851739
1.25181
0.63306
1.1045
0.806876
0.641111
1.19583
1.216
0.798237
0.833179
1.2395
1.00594
0.799757
0.773419
1.08125
1.15942
1.0168
0.771449
0.820466
1.07919
0.944275
0.781942
0.97407
0.679819
0.740694
0.851123
1.08891
0.656381
0.830983
1.12349
0.883297
0.65469
0.898828
0.772775
0.815925
1.03026
1.04326
0.74958
0.71189
0.710311
1.06366
1.01134
0.918237
1.05121
0.882104
0.739414
1.01769
0.857827
0.636099
1.01655
1.15373
0.998836
1.17913
1.15604
1.25655
0.763365
0.611455
0.928682
0.902029
0.807318
0.664911
1.01143
1.19065
1.06597
1.01423
0.761443
0.919131
1.039
0.976041
1.00451
0.793425
0.921162
0.859323
0.664921
0.756381
0.804962
0.773746
0.758252
1.0462
0.95355
0.908682
1.05391
0.759826
0.91892
0.802162
0.902204
0.881982
0.845132
1.00724
0.665097
0.607653
0.919874
0.684598
0.659779
1.01461
0.636884
0.658606
1.14328
1.05651
0.772801
1.02876
0.732048
1.03753
0.971782
0.686195
0.765747
1.09446
0.940426
1.05846
0.47728
0.741138
1.14347
0.85106
0.724688
0.585522
0.673844
0.653009
0.679076
0.873941
1.054
0.745474
0.642496
0.779533
0.832536
1.25279
0.747558
1.07726
0.986705
0.654779
0.84243
0.757911
0.71654
1.03403
0.876262
1.18983
1.0151
0.746901
0.870851
0.992478
1.23837
1.03229
1.16519
1.08903
0.854448
0.989971
0.917001
0.7705
0.672465
0.838263
0.78523
1.01517
0.811576
0.703503
0.763191
0.819152
0.758356
0.774242
1.13005
0.811344
0.807487
1.16953
1.1117
0.755755
0.915677
1.16014
0.839174
0.626784
0.867835
0.750341
0.708882
1.14758
0.787899
0.869632
1.15103
0.668917
0.968928
0.776055
0.985951
0.874027
0.81754
0.430551
0.835922
0.701327
0.870059
0.894097
0.899083
1.04711
1.18596
0.75629
0.916649
0.812687
0.714917
0.632717
1.11762
0.979313
0.875322
0.70864
0.979732
0.68873
0.754327
0.755793
0.756272
1.06559
1.17469
0.846852
1.03361
1.22333
1.12485
1.10164
1.16905
0.795081
0.822558
0.710781
1.23873
1.0907
1.1335
0.820843
0.887693
0.64766
1.049
0.823976
0.740883
1.13185
0.999028
0.689925
0.829815
0.770595
0.763393
0.78075
0.87414
0.90632
0.725221
0.831087
0.679839
0.844681
0.738825
0.990435
0.88569
0.65811
1.16456
1.17954
1.08519
0.849222
0.977941
0.633662
1.10159
0.981626
0.691686
1.15902
0.560691
1.19238
0.690728
0.91128
0.898597
1.08527
1.06874
0.756987
1.21133
0.768518
1.1287
0.910984
0.988282
0.825243
0.738715
0.821438
1.13097
0.882158
1.23236
1.06733
0.67143
0.749144
1.04093
0.581111
0.854106
0.910547
0.727662
1.19156
0.699544
0.677414
1.0971
0.830391
1.18932
1.22382
0.898897
1.23145
1.19396
1.1399
1.14146
1.00331
0.702194
0.793236
0.883976
1.1228
0.863533
0.562008
1.20898
0.750814
0.925381
0.78404
1.16958
1.249
0.763007
1.12635
0.978378
1.18485
0.83346
1.09239
0.913831
1.20737
1.22805
1.04846
0.786867
1.07729
0.797189
0.90844
0.950211
0.875734
0.988571
0.768422
0.565357
0.713477
0.893798
1.00624
0.941974
1.1474
0.776224
0.820795
0.994454
0.713077
1.17759
0.741441
0.913887
1.15057
1.14017
0.958698
1.21761
0.750032
0.884602
1.09045
0.896661
0.875963
0.911307
0.823315
1.04391
1.06728
0.822599
0.767456
0.968432
0.675323
0.724968
1.18266
1.21873
1.22931
0.849063
1.23076
1.24486
1.19685
0.629564
1.00573
0.99513
1.21931
0.864125
0.750226
0.696274
0.783828
0.53394
1.20347
0.938639
0.948978
1.09685
1.05128
0.850066
0.909992
1.24476
1.19931
1.16677
1.02825
0.869354
1.03455
1.03058
0.865897
0.888582
0.732959
0.786282
0.922427
0.93927
0.815228
1.17875
1.18752
0.634603
1.14236
0.780028
0.769199
0.833198
1.1717
0.886811
1.03701
0.928138
1.17028
0.878895
0.926904
1.22196
0.642214
0.674729
0.751666
0.732683
0.607177
0.353102
0.744682
0.611412
0.94602
0.627857
0.738227
0.938037
0.853936
0.747092
0.82305
0.718057
0.399789
1.19301
1.10602
0.89307
0.69679
1.11296
0.876134
0.74809
1.22647
0.751103
1.21986
0.873276
1.15036
0.844342
0.644053
0.732884
0.933577
0.942939
0.948999
0.650646
0.885492
0.747337
0.731281
0.76762
0.665455
0.724388
1.20162
0.737308
1.07387
1.09772
0.86814
1.08401
1.10271
0.69493
0.362234
0.908677
0.674614
0.614755
1.07263
1.08548
0.894402
1.02285
0.847398
1.2218
1.19098
0.921838
0.834981
1.2139
1.15449
1.01933
1.0079
0.876536
1.2274
0.906188
0.631883
1.17244
1.11338
1.18758
0.957347
0.797407
0.831483
1.08833
1.03755
0.273518
1.26167
0.904122
0.755225
0.973737
1.12703
1.21673
1.23499
1.01661
0.884296
1.10108
1.15258
1.15187
1.06972
1.12285
0.657089
0.771041
0.960737
0.710071
0.645335
0.660185
0.900728
1.1082
0.681994
0.940906
0.759842
1.10575
1.23526
0.938386
0.710152
0.650304
1.05709
0.839771
0.773226
0.650756
1.16653
0.9953
1.01702
0.684242
1.00771
0.772521
0.77578
1.05571
1.10655
1.16762
1.24777
0.740952
1.14714
0.635331
1.17107
1.18998
1.18887
1.10017
0.727709
0.726576
0.903473
0.629496
0.896277
0.663835
0.952729
0.689727
1.12981
0.871428
0.641815
1.13864
1.05022
0.907837
0.920761
1.06545
1.16571
0.996142
0.934933
0.638153
1.119
0.912661
1.19549
0.61063
0.944431
1.17418
1.08135
1.21691
1.08002
0.88549
0.595106
0.6457
0.926038
0.671501
1.20026
0.638135
0.76501
0.899196
0.785727
1.08295
0.616162
1.1563
1.09157
1.01428
0.564422
0.992302
0.715264
0.802057
0.933956
0.898467
0.886586
0.874671
1.11038
0.735465
1.22682
0.874968
0.866996
1.05182
1.04291
1.19957
0.888939
0.927982
0.744653
0.881602
0.860892
1.1992
0.782357
0.938339
0.875787
1.1129
0.845344
0.956211
0.717115
1.23577
0.626222
0.724828
0.777675
1.1152
0.646411
0.653662
0.71736
0.701872
1.18025
0.923561
1.04198
1.15074
1.02046
0.897481
1.23769
0.888064
1.04907
1.0323
0.924527
0.658698
0.948085
0.945276
0.779984
0.939664
0.695918
0.672502
0.987261
0.804814
0.74355
1.10596
0.875318
1.01598
0.935035
1.18387
0.889542
0.844541
1.02698
0.70259
0.771065
0.878231
0.936893
0.985715
1.03711
1.1752
1.03536
1.12318
0.979196
1.14873
1.20345
1.20495
0.927121
0.905351
0.977706
0.701627
1.21314
1.14864
1.12266
0.961655
0.732612
0.663433
0.981716
1.08018
0.749108
1.11741
1.13842
1.03111
0.76881
0.912936
0.791356
0.738028
0.965156
0.7698
1.01719
0.651809
1.01545
0.864711
0.924132
0.616464
0.975649
0.959801
1.04889
0.857554
1.00673
1.1806
1.18776
1.02515
0.881529
1.12499
0.982545
0.776771
0.777279
0.9025
0.690959
1.17014
0.91168
0.994281
1.09139
1.07384
0.983079
0.688969
1.2246
0.995949
0.795718
0.931326
0.969959
1.12487
1.17613
0.999928
1.0101
0.648882
0.755927
0.931286
1.02521
0.943844
1.02776
0.823007
1.18549
0.991901
1.07289
1.15608
0.98892
0.751907
0.922806
1.21132
0.868242
0.643987
0.917563
1.21727
0.840765
0.907094
1.11469
1.07523
1.1277
0.951472
0.656169
1.02788
0.716841
0.849939
1.13868
0.948804
0.707398
0.750096
0.837351
1.03755
0.822159
0.77739
1.15023
0.80533
1.23941
1.12481
0.692274
0.60036
0.905608
1.07162
1.15539
0.954755
0.931384
0.727046
0.903892
0.880308
1.2472
1.16667
1.08467
0.807705
0.664836
1.16684
1.23011
1.18193
1.12124
1.1575
0.919504
0.719278
0.625254
0.646744
1.19543
0.9668
0.71288
0.834477
1.22817
0.87509
0.77035
0.678443
0.955966
0.769196
1.22849
1.03313
1.06209
1.17078
1.13175
0.917034
1.05406
0.92996
1.02738
0.861199
1.0215
0.810868
1.19797
0.657889
0.851665
0.708746
0.876144
1.17855
0.88281
1.13773
1.14391
1.16746
0.741411
0.928694
0.928312
0.735382
1.18873
0.957446
0.930432
1.02755
0.501454
0.84115
1.18031
1.05688
1.18933
0.63556
0.724453
0.888687
1.2051
0.747653
0.879748
0.764125
0.678176
0.808529
1.18952
0.837551
0.937481
0.685635
1.22022
1.22075
0.512512
1.17831
0.862963
0.744286
0.728784
0.954961
0.678886
0.992769
0.817633
0.85208
0.88118
1.15003
0.951139
1.13301
0.860641
0.716135
0.868654
0.63493
0.668079
0.937187
0.793638
0.946878
0.749481
0.910093
1.13746
0.994499
0.853815
0.639289
1.15337
0.964699
0.891552
1.24039
0.960444
0.846302
0.77908
0.693079
1.21318
0.79389
0.920643
1.03956
0.69748
1.16084
0.667706
1.14577
0.918082
1.10138
0.767925
1.08613
0.921798
0.697941
0.780179
0.914474
1.17087
0.599403
0.757014
0.889209
1.1979
1.22694
0.718749
0.826164
0.985406
1.20466
0.87833
1.17969
1.15657
1.12368
1.09129
1.01048
1.01146
0.997771
1.19198
0.879384
0.942413
0.718131
0.765866
0.867807
0.73152
1.21403
0.660417
1.16998
0.868962
1.20478
0.83135
1.22326
1.1011
1.13121
1.20518
1.1805
1.2366
0.906079
1.16581
0.903724
0.885233
0.756777
0.752329
1.18859
0.66323
1.03813
1.04165
0.915525
0.999785
0.815059
1.17129
0.986271
1.08964
0.621423
0.761793
0.890399
1.22675
0.728917
1.0621
0.774432
0.888757
0.703807
0.890131
0.873074
1.13014
1.1963
0.675963
1.03121
0.886664
0.838402
1.14197
0.732802
0.760677
1.20299
0.646007
0.938754
1.08341
1.17691
1.22969
0.779189
0.78295
0.691082
0.831819
0.739402
0.883018
1.07026
0.856918
0.706792
0.931939
0.927157
0.820561
0.740923
0.886621
0.943651
0.705669
1.11823
1.10341
0.783983
1.09661
0.637427
0.69174
0.728452
0.643339
1.21454
0.867287
0.870959
0.816352
1.12965
1.19167
0.999681
1.07666
0.755925
0.798787
0.918887
0.871145
0.755853
1.18977
0.966662
1.00773
1.21295
1.11455
0.878332
1.2078
0.67048
1.00502
0.999579
1.04415
0.816019
1.18402
0.860323
1.03761
0.931855
0.813014
0.732229
0.791259
1.10265
1.14478
1.16813
0.932064
0.967811
1.18886
1.09258
0.940639
0.935947
0.730657
0.910894
1.13416
0.671387
1.15286
0.879441
1.16494
1.228
1.19478
0.871067
1.1338
1.15405
0.587478
1.18431
0.76002
1.20077
1.12719
0.893439
0.754281
0.955871
0.91326
0.807766
0.75454
1.09459
0.788096
1.20402
0.727648
0.790663
0.733733
0.721217
0.872823
1.13577
1.21855
0.722524
1.0741
0.964484
1.03958
0.887858
0.976813
1.1849
1.13329
0.884177
1.17706
1.14439
1.22123
0.719586
0.868354
0.752106
1.08689
1.20813
1.14883
0.919403
1.22355
0.91663
0.67842
0.752465
0.596364
0.876722
0.711246
1.21569
1.24067
0.970356
1.23174
1.13741
0.999289
1.2178
0.731327
1.18206
0.909214
1.19025
0.850938
0.728231
1.08279
0.987878
1.20149
1.18033
1.18699
0.740383
0.740554
0.658805
1.1396
1.13098
0.709245
0.906814
1.13224
0.633101
0.828485
0.74409
0.9025
1.0248
0.895866
0.998992
1.05034
0.967313
0.978429
1.10954
0.857671
0.852278
1.0327
0.974818
0.867861
1.1656
1.19345
0.712281
1.12771
0.621438
0.81179
1.16829
1.11424
0.880175
1.19365
0.718126
1.10131
0.859047
0.840704
1.17435
0.856436
1.10429
1.07345
1.05539
1.2425
1.06746
0.695807
1.04887
0.863234
1.11461
1.24416
1.04479
0.908252
0.754319
0.841818
1.17623
0.720524
1.12107
0.745299
0.96547
1.11255
1.10217
0.974094
1.1592
1.22224
0.844133
0.855768
0.979162
0.736282
0.718302
1.00392
1.07773
0.787306
0.695706
0.733892
0.686692
1.10032
0.906519
1.11936
0.781993
1.18546
0.962456
1.14264
1.21377
0.801796
1.18187
0.822194
0.990373
0.910342
1.1446
0.76145
0.883262
0.920912
0.734301
0.864693
0.724318
0.704161
0.622777
1.2129
1.22257
0.786113
0.778275
1.11251
0.670435
0.732615
0.876261
1.08383
1.08593
0.652961
0.622784
1.17979
0.768342
1.01528
0.762481
0.684531
0.75544
0.936465
1.15054
1.00536
0.684572
1.18779
1.15067
0.768056
1.02189
0.865216
1.21286
0.885671
0.879114
0.696046
1.07013
1.18687
1.04105
0.939356
0.775177
0.892841
1.00147
1.21815
1.23759
0.757094
1.2256
0.78482
1.01145
1.00804
0.937549
0.83571
1.14795
0.821323
0.975481
0.748802
0.844905
0.829581
0.728635
1.04843
1.18996
0.770157
0.812009
0.996311
0.845176
0.734338
0.630876
0.819931
1.1395
0.571272
0.873849
1.05797
1.0038
0.912785
1.06025
1.1255
0.715003
0.714027
1.14552
0.90965
0.703408
0.909316
1.14164
1.06015
1.01845
0.7592
0.810845
0.753242
1.21934
1.14977
1.22521
0.905265
1.08068
0.71431
0.952341
1.15454
0.677337
0.695027
1.10524
1.1544
0.667273
0.798176
0.746431
0.696331
0.744128
1.23428
0.866388
0.791236
0.937385
0.753691
1.08247
0.952178
0.707975
0.791409
1.10142
0.893201
1.22038
0.713832
0.830404
1.01429
1.01368
0.946442
1.02643
0.730878
1.22737
1.1761
1.0195
1.1503
0.787496
1.14887
1.06534
0.998624
1.20851
0.670517
0.82561
1.23898
1.06855
0.664964
0.878328
1.11451
1.23395
0.956119
1.11213
0.754862
0.696333
0.743572
0.656288
1.15315
0.795954
0.985202
1.19953
0.796933
0.71464
0.77307
0.955332
0.7768
0.874926
0.762168
0.736233
0.88936
1.13284
1.20374
1.05357
0.806681
0.829133
0.647378
0.837862
1.0485
1.03449
1.02328
1.06835
0.831695
0.958752
1.1216
1.15822
1.23235
1.17089
1.21268
0.907362
0.721708
0.752426
0.716582
1.21979
0.972146
0.791867
1.20584
0.727997
1.13077
1.08229
0.801874
0.757178
0.823414
0.820689
1.15536
0.915708
1.08604
0.940437
1.19903
1.01588
1.24645
0.760281
0.947407
0.863399
0.613717
0.841487
1.09511
0.692973
0.483572
1.01893
1.18692
1.11786
0.81714
0.705044
0.746412
0.736736
0.759921
0.737752
0.937415
0.735282
1.10588
0.780085
0.777125
1.17094
0.896135
1.01391
1.14759
0.936512
0.986028
0.73989
1.08783
0.92025
0.792965
0.881584
0.753789
0.70877
0.777082
0.750588
1.11125
1.22722
1.16337
1.01455
1.08676
0.676432
1.22617
0.97885
1.06604
0.759913
1.08414
0.879622
0.855889
1.13615
1.18815
1.09968
1.02337
0.889772
1.23654
0.826705
1.11172
1.21569
1.07403
0.882486
0.668608
1.11513
0.949915
0.741424
1.06511
0.950609
1.19285
0.787442
1.19954
1.23282
0.924639
0.760012
1.21218
0.702377
0.748104
0.849939
0.73879
0.821431
0.747307
0.714359
0.940322
0.773985
0.743107
0.850378
1.03142
0.850891
0.790954
1.05741
0.983603
0.68625
1.19207
1.22198
1.20812
0.765198
0.683614
1.25395
0.693347
0.914772
0.736506
0.886603
0.757084
1.10298
0.855757
0.875447
0.694633
0.672411
0.746435
0.863331
0.66615
0.969359
1.00737
0.960203
1.20252
0.973893
1.03389
0.853946
1.14394
0.897757
0.876133
1.24228
0.832764
0.936389
0.710941
1.07489
1.22358
0.928644
1.00487
0.94504
0.880593
0.756269
0.795342
0.724396
1.10829
0.755002
0.894175
0.873354
0.926732
0.74877
0.796518
0.914689
0.912407
0.841415
1.22315
0.92997
0.865949
1.02242
1.18884
0.871509
0.67558
1.10027
0.704287
0.887989
0.750273
0.883693
0.874073
0.821774
0.880754
1.22294
1.16237
0.683573
0.837801
0.674594
0.736207
0.663607
0.728542
0.818428
0.750769
0.829898
1.04597
1.23175
0.85481
1.08996
0.940328
1.21786
0.861747
1.22255
1.04685
0.721934
1.02527
1.0954
0.887672
1.13462
0.748914
1.16907
0.819833
0.526665
0.949286
1.2335
1.21193
1.11266
1.03658
1.06044
0.694311
0.861328
1.04814
1.24716
0.542486
0.906545
0.750216
0.893881
0.919474
0.747641
0.713894
0.803084
0.735769
0.788522
0.905732
0.905331
1.24136
1.13963
0.661986
1.12384
0.740424
0.786514
1.1259
0.823575
0.88826
1.04522
0.590073
0.77699
0.952367
1.15625
0.726166
0.794979
0.888336
1.04739
0.716507
1.19432
0.67823
0.874078
0.896217
0.813164
1.02892
1.04994
1.19119
0.751992
1.08822
1.0139
1.03667
0.756623
1.0209
0.768536
0.707845
0.644617
0.960333
0.953131
0.897769
1.16125
0.925571
0.942199
1.01903
0.762367
0.744887
0.863273
0.990394
0.763288
1.22975
0.71255
0.681052
0.835588
0.878566
0.771766
0.739682
1.07372
0.856611
0.962221
0.722265
0.748832
0.962263
0.679767
1.23161
1.21333
0.725115
0.750162
1.14543
0.912421
0.753889
0.700309
0.744004
0.740079
1.00795
1.18844
0.752219
0.687983
1.04642
0.922027
0.678616
0.726711
0.91234
1.0871
1.23379
0.715672
0.675432
1.02745
1.1523
0.919117
0.986687
0.890845
0.75221
0.876845
1.04797
0.950713
0.758666
1.13247
0.890133
0.642097
0.999067
0.782176
1.13519
1.24333
0.767815
0.866004
0.870643
0.859775
0.708793
0.884148
0.736821
1.20629
1.12772
1.08662
0.82169
0.697444
1.11705
1.22393
0.793977
0.993673
0.874679
0.62055
0.980022
0.884332
0.630985
0.756295
0.9982
0.72947
0.682583
0.733178
1.11567
0.713598
1.11556
0.865224
0.777918
0.909098
0.743431
1.13667
0.64986
0.876489
0.914057
0.706057
0.988057
1.0456
1.02082
0.95476
1.11743
0.730612
0.724822
1.17548
0.753981
1.16969
1.02812
0.922959
0.950499
1.16444
0.922817
0.669188
1.19396
0.749681
0.928707
1.15379
0.747625
1.20062
0.76638
0.891507
0.591066
0.884014
0.724849
0.946228
0.759791
0.642629
0.747584
0.717725
0.625883
1.18689
0.717607
0.877935
0.997686
0.932121
1.2269
1.22722
0.868574
0.881542
1.13854
0.859136
1.18942
0.63706
0.903796
0.981832
0.803534
1.14673
0.873099
0.879258
0.802637
0.802922
0.735965
0.647415
1.16782
0.423292
1.19241
1.08264
0.757321
0.680518
0.756884
1.2389
1.05659
1.05427
0.922979
0.988315
0.923719
1.16266
1.11159
0.744788
1.01625
1.2021
0.93607
0.989406
1.00274
0.661281
0.718214
1.1037
0.887089
0.895067
1.2022
0.716492
0.6429
0.818067
0.886715
0.942307
1.219
0.773307
0.707157
0.786934
0.889078
0.777727
1.17839
0.872915
0.758725
0.879186
0.797253
0.748514
0.801215
1.03167
0.907093
0.738339
1.16278
0.893153
1.12454
0.739653
0.712424
0.845181
1.15541
1.21423
1.11916
0.97559
0.949989
1.12882
1.20813
0.714382
1.18997
0.748895
1.0415
1.04886
1.17652
0.969954
1.16266
1.18374
0.762589
0.743031
0.878304
0.906882
0.749055
0.718035
0.652685
1.10638
1.14537
0.702906
1.19606
0.961788
1.12136
0.922941
0.742901
1.13833
1.11795
0.873417
0.787105
0.727476
1.23345
1.07519
1.25069
0.701085
0.74821
0.914331
1.15236
1.03947
1.156
0.939585
1.21352
0.81439
0.875293
0.989919
0.831676
1.03502
0.62324
1.13296
0.926975
0.98021
1.19081
0.692459
0.706065
0.652862
0.962927
1.1682
0.80036
1.03145
0.633968
0.701662
0.898532
0.79015
0.759432
1.1545
0.89824
0.762166
0.895106
0.981288
1.18978
0.967952
0.908196
1.1679
0.914687
1.21405
0.983838
1.08967
0.913333
0.714033
1.23437
0.737709
0.943065
1.01908
1.18607
1.07563
0.946459
0.756024
1.23805
0.897176
0.767478
1.11059
1.22814
1.09086
1.05927
0.688951
0.637934
1.00219
0.740321
0.896182
0.971335
0.73708
1.18791
1.23541
1.19696
0.836379
0.886501
0.75463
0.846509
1.04997
0.730377
1.05939
1.20597
0.719209
0.877283
0.813004
1.11983
1.05448
0.887659
0.743603
1.09718
0.745433
0.608626
0.747214
1.24051
0.642163
1.1291
0.987017
0.747331
1.20276
1.00714
1.23302
0.588726
0.878968
0.97557
1.19347
0.847666
1.1855
1.00984
0.642573
0.956755
0.826457
0.865688
0.635578
1.10472
0.879637
0.749749
0.672721
0.958404
1.16183
0.585761
0.844962
1.16929
0.842009
1.15265
0.633045
0.745162
0.754457
0.922653
0.864006
0.68822
0.745277
0.597622
0.903489
0.910468
1.12146
0.944722
1.17197
0.747074
0.882699
0.691629
0.90693
0.595079
0.887194
1.24672
0.87006
0.819805
1.23722
0.775403
1.00225
1.03835
0.691028
0.842984
0.934475
0.964244
1.20358
1.22655
1.22774
0.974575
0.847637
0.927472
0.753968
1.14554
1.0257
0.785257
0.792587
0.811234
0.929701
1.23727
0.897413
1.23325
0.882397
0.994107
0.759504
0.752655
0.699556
0.799669
1.18306
0.80009
0.70564
0.726785
1.23532
0.846234
0.745903
0.734963
0.750358
1.08168
0.939259
0.939373
0.846746
1.0576
0.682937
0.912936
0.962984
0.813058
1.16155
1.16974
0.766477
1.1767
1.19897
1.16269
0.976858
0.901603
0.8128
0.918479
1.20488
0.929492
0.979472
1.17377
1.23162
1.19872
1.16913
0.750876
1.04973
0.928143
0.775411
0.664568
0.883214
1.15972
1.23378
1.2089
0.789739
0.74745
0.717338
0.654001
1.02794
1.22979
1.03833
1.10706
1.11929
1.1128
1.09552
0.739503
0.834934
0.804216
0.723668
0.770175
0.871587
0.704235
0.795413
0.760563
1.18174
1.02597
0.669283
1.22764
0.772619
0.773113
0.906694
0.728676
1.06736
1.09561
0.773957
0.989451
1.22052
1.23233
1.06372
1.08287
0.881903
0.965333
0.917781
0.687918
0.981112
1.00137
0.787175
1.0536
1.03232
0.706555
0.487808
0.772915
1.20379
0.802723
1.07764
0.884492
1.2003
0.897233
0.7361
1.13008
1.04968
1.0319
0.971462
0.73305
0.818391
0.693336
1.04609
0.742967
1.14042
0.885742
0.774138
1.02135
0.693344
0.837658
1.23953
0.715002
1.08442
0.784517
0.738603
0.823812
0.908944
1.15846
1.17386
0.890301
1.20668
0.668894
1.17915
1.13639
1.08834
0.766518
1.14519
0.719635
1.09514
1.0501
0.608405
0.858061
0.711862
1.20942
1.08178
0.679977
0.729227
0.903747
0.780338
1.06554
0.772333
0.960505
1.234
0.765357
1.21479
0.965704
1.05737
0.679128
1.15176
0.769121
1.16775
0.467155
0.73937
1.04447
1.11601
0.973574
1.05353
0.75137
0.848531
1.09768
1.05307
0.770904
1.0993
1.05124
1.16417
0.633059
0.894113
0.617958
0.981804
1.07987
0.980436
0.555495
0.810058
1.18738
1.02123
0.823036
1.17873
0.869871
1.07423
0.681365
0.862158
0.749039
1.16995
1.20963
1.07568
0.935678
0.886901
0.717743
1.06331
0.758175
1.14389
0.676207
0.942838
0.692053
0.660204
0.973537
1.18291
0.942915
0.931269
0.774434
0.761694
1.13971
0.929571
0.940609
1.24768
1.0539
0.771284
1.10103