/*--------------------------------*- C++ -*----------------------------------*\
  =========                 |
  \\      /  F ield         | OpenFOAM: The Open Source CFD Toolbox
   \\    /   O peration     | Website:  https://openfoam.org
    \\  /    A nd           | Version:  6
     \\/     M anipulation  |
\*---------------------------------------------------------------------------*/
FoamFile
{
    version     2.0;
    format      ascii;
    class       volScalarField;
    location    "0";
    object      p;
}
// * * * * * * * * * * * * * * * * * * * * * * * * * * * * * * * * * * * * * //

dimensions      [0 2 -2 0 0 0 0];

internalField   nonuniform List<scalar> 
9000
(
114.383
63.5536
49.4616
43.5068
40.4076
38.6351
37.4882
36.6583
36.0014
35.4419
34.9378
34.4645
34.0072
33.557
33.1087
32.6592
32.2071
31.7516
31.2927
30.8306
30.3656
29.8982
29.4288
28.9579
28.4858
28.0131
27.54
27.0669
26.5941
26.1219
25.6506
25.1806
24.7123
24.246
23.7823
23.3218
22.8651
22.4131
21.967
21.5283
21.099
20.6819
20.2809
19.9019
19.5533
19.2464
18.9866
18.7452
18.7434
17.7087
86.1502
60.3336
50.0921
44.5941
41.3643
39.3599
38.0163
37.0405
36.2782
35.6429
35.0838
34.5704
34.0838
33.6121
33.148
32.687
32.2266
31.7652
31.302
30.8369
30.3698
29.901
29.4307
28.9592
28.4868
28.0138
27.5406
27.0674
26.5945
26.1222
25.6508
25.1805
24.7118
24.2449
23.7803
23.3185
22.86
22.4055
21.956
21.5124
21.0761
20.6488
20.2326
19.8299
19.443
19.0717
18.7044
18.2935
17.8258
16.3363
69.0529
56.7241
49.9642
45.1743
42.032
39.9349
38.4688
37.3853
36.5375
35.8366
35.2278
34.677
34.1622
33.6694
33.1896
32.7171
32.248
31.7803
31.3127
30.8443
30.3749
29.9045
29.4331
28.9608
28.488
28.0147
27.5413
27.0679
26.5948
26.1223
25.6506
25.18
24.7107
24.243
23.7772
23.3139
22.8532
22.3958
21.9422
21.4929
21.0486
20.6097
20.1764
19.748
19.3209
18.8855
18.4164
17.8463
17.0978
15.7028
59.8091
53.2524
48.7905
44.9576
42.184
40.1903
38.7247
37.6079
36.7196
35.981
35.3402
34.7633
34.2278
33.7188
33.2265
32.7444
32.2681
31.7949
31.3232
30.8518
30.3803
29.9083
29.4358
28.9627
28.4893
28.0156
27.5419
27.0682
26.5949
26.1221
25.65
25.1789
24.7089
24.2403
23.7733
23.3083
22.8454
22.3849
21.9271
21.4721
21.0198
20.5699
20.1208
19.6696
19.2094
18.7264
18.1919
17.5443
16.7129
15.4879
53.6891
50.1657
47.2597
44.3368
42.0157
40.2207
38.8303
37.7317
36.8373
36.0833
35.4252
34.8318
34.282
33.7611
33.259
32.7691
32.2868
31.8089
31.3335
30.8594
30.3859
29.9123
29.4387
28.9648
28.4907
28.0166
27.5424
27.0684
26.5948
26.1216
25.649
25.1773
24.7065
24.2369
23.7687
23.3018
22.8366
22.3731
21.9111
21.4505
20.9907
20.5304
20.0673
19.5969
19.1109
18.5947
18.0219
17.345
16.5117
15.4344
49.2942
47.5456
45.7159
43.5485
41.6632
40.0993
38.8234
37.7762
36.9002
36.1485
35.4851
34.8837
34.3252
33.7962
33.287
32.7911
32.3038
31.8219
31.3434
30.8669
30.3914
29.9164
29.4416
28.9669
28.4922
28.0175
27.5429
27.0685
26.5944
26.1208
25.6477
25.1754
24.7038
24.2331
23.7635
23.2949
22.8273
22.3607
21.8947
21.4289
20.9621
20.4927
20.0177
19.5319
19.027
18.4891
17.8966
17.2155
16.4113
15.4568
46.11
45.3806
44.2784
42.705
41.2056
39.8743
38.7312
37.7557
36.9159
36.18
35.5216
34.9194
34.3574
33.8239
33.3102
32.81
32.3189
31.8338
31.3527
30.874
30.3968
29.9205
29.4446
28.969
28.4936
28.0184
27.5433
27.0685
26.594
26.1198
25.6462
25.1731
24.7007
24.229
23.7579
23.2876
22.8178
22.3483
21.8786
21.408
20.9352
20.4581
19.9734
19.4762
18.9585
18.4084
17.8093
17.1383
16.3752
15.5216
43.7662
43.6091
42.9903
41.8713
40.6986
39.5847
38.5783
37.6852
36.8928
36.1828
35.5371
34.9402
34.3793
33.8445
33.3284
32.8256
32.3318
31.8444
31.3611
30.8806
30.4019
29.9244
29.4475
28.9711
28.495
28.0192
27.5436
27.0683
26.5933
26.1187
25.6445
25.1707
24.6974
24.2246
23.7522
23.2802
22.8083
22.3361
21.8631
21.3884
20.9105
20.4272
19.9354
19.4303
18.9049
18.3499
17.753
17.0999
16.3806
15.6087
42.0014
42.1622
41.8633
41.0858
40.1816
39.2614
38.3866
37.5789
36.84
36.1623
35.5351
34.9481
34.3917
33.8584
33.3421
32.838
32.3427
31.8535
31.3686
30.8867
30.4067
29.928
29.4503
28.9731
28.4964
28.02
27.5439
27.0681
26.5926
26.1174
25.6426
25.1681
24.6939
24.2201
23.7465
23.2729
22.7991
22.3246
21.8487
21.3706
20.8886
20.4007
19.9039
19.3939
18.8651
18.3103
17.7211
17.0893
16.4117
15.7054
40.6452
40.979
40.8919
40.3685
39.6805
38.9276
38.1737
37.4495
36.7661
36.1241
35.5191
34.9452
34.3962
33.8665
33.3515
32.8474
32.3514
31.8612
31.3752
30.8921
30.411
29.9314
29.4528
28.9749
28.4976
28.0206
27.544
27.0677
26.5917
26.116
25.6406
25.1654
24.6904
24.2156
23.7409
23.2659
22.7904
22.3139
21.8357
21.3547
20.8697
20.3786
19.8787
19.3664
18.8375
18.2864
17.708
17.0983
16.4582
15.8046
39.5856
40.01
40.0631
39.7276
39.2114
38.5997
37.9537
37.3077
36.6788
36.0736
35.4928
34.9341
34.3942
33.8697
33.3573
32.8543
32.3583
31.8676
31.3808
30.8968
30.4149
29.9345
29.4552
28.9766
28.4987
28.0212
27.544
27.0672
26.5907
26.1145
25.6385
25.1627
24.6869
24.2113
23.7354
23.2592
22.7823
22.3041
21.824
21.3411
20.8539
20.3608
19.8594
19.347
18.8201
18.2751
17.7091
17.1208
16.5134
15.9021
38.7469
39.2156
39.3618
39.1647
38.7837
38.2894
37.7371
37.1621
36.5847
36.0157
35.4594
34.9169
34.3873
33.869
33.3601
32.8588
32.3634
31.8727
31.3854
30.9009
30.4183
29.9372
29.4572
28.9781
28.4996
28.0216
27.544
27.0667
26.5897
26.1129
25.6364
25.1599
24.6835
24.207
23.7303
23.253
22.7749
22.2955
21.814
21.3296
20.8411
20.3471
19.8456
19.3345
18.8113
18.2738
17.7205
17.1522
16.5729
15.996
38.0775
38.565
38.7731
38.6779
38.4026
38.0043
37.5321
37.0198
36.4895
35.9545
35.4221
34.8959
34.377
33.8654
33.3606
32.8614
32.3671
31.8766
31.3893
30.9043
30.4212
29.9395
29.459
28.9793
28.5003
28.0218
27.5438
27.066
26.5886
26.1113
25.6343
25.1572
24.6802
24.203
23.7255
23.2474
22.7683
22.2879
21.8054
21.3202
20.8312
20.3371
19.8365
19.3278
18.8093
18.2799
17.7393
17.1891
16.6339
16.0848
37.5418
38.0347
38.2841
38.2637
38.0703
37.7497
37.3444
36.8863
36.3978
35.8938
35.3838
34.873
34.3646
33.8599
33.3593
32.8626
32.3696
31.8797
31.3923
30.9071
30.4236
29.9415
29.4605
28.9803
28.5009
28.0219
27.5434
27.0653
26.5874
26.1097
25.6322
25.1546
24.677
24.1993
23.7211
23.2423
22.7625
22.2814
21.7984
21.3128
20.8237
20.3303
19.8314
19.3259
18.8127
18.2916
17.7629
17.229
16.6942
16.168
37.1149
37.6066
37.8835
37.918
37.7874
37.5286
37.1782
36.7657
36.3133
35.8367
35.3467
34.8502
34.3516
33.8534
33.3569
32.8628
32.3711
31.8818
31.3947
30.9093
30.4256
29.9431
29.4617
28.9811
28.5012
28.0219
27.543
27.0645
26.5862
26.1081
25.6301
25.1521
24.674
24.1957
23.717
23.2377
22.7575
22.2759
21.7927
21.3071
20.8186
20.3263
19.8296
19.3277
18.8202
18.3072
17.7896
17.27
16.7527
16.2452
36.7794
37.2671
37.5622
37.6366
37.5536
37.3429
37.0364
36.6613
36.2389
35.7855
35.3128
34.8288
34.339
33.8467
33.3541
32.8623
32.372
31.8834
31.3964
30.9111
30.4271
29.9443
29.4626
28.9816
28.5014
28.0217
27.5424
27.0635
26.5849
26.1064
25.628
25.1496
24.6712
24.1924
23.7133
23.2336
22.7531
22.2714
21.7881
21.3029
20.8152
20.3246
19.8304
19.3324
18.8305
18.3252
17.8178
17.3108
16.8082
16.3163
36.5231
37.006
37.3133
37.4159
37.368
37.1938
36.9212
36.5753
36.177
35.7424
35.2838
34.8102
34.3277
33.8404
33.3511
32.8614
32.3724
31.8844
31.3977
30.9123
30.4282
29.9452
29.4631
28.9819
28.5013
28.0213
27.5418
27.0625
26.5836
26.1047
25.626
25.1473
24.6684
24.1894
23.71
23.23
22.7493
22.2676
21.7846
21.3
20.8134
20.3246
19.8332
19.3391
18.8427
18.3446
17.8463
17.3503
16.8602
16.3812
36.3373
36.8161
37.131
37.2531
37.2299
37.0817
36.8338
36.5096
36.1291
35.7087
35.261
34.7954
34.3186
33.8352
33.3485
32.8605
32.3724
31.8849
31.3985
30.9131
30.4289
29.9457
29.4634
28.9819
28.5011
28.0208
27.5409
27.0614
26.5822
26.1031
25.624
25.145
24.6659
24.1865
23.7069
23.2268
22.746
22.2645
21.7819
21.2981
20.8128
20.3259
19.8372
19.3471
18.8558
18.3643
17.8742
17.3878
16.9083
16.44
36.2164
36.6921
37.0116
37.1458
37.1382
37.0069
36.7751
36.4652
36.0966
35.6857
35.2453
34.7851
34.3121
33.8315
33.3466
32.8597
32.3723
31.8852
31.3989
30.9135
30.4292
29.9458
29.4634
28.9817
28.5006
28.0201
27.54
27.0603
26.5807
26.1014
25.6221
25.1428
24.6634
24.1839
23.704
23.2239
22.7432
22.2619
21.7798
21.2969
20.8129
20.328
19.8421
19.3556
18.8692
18.3837
17.9008
17.4226
16.952
16.4927
36.1568
36.6309
36.9526
37.0926
37.0926
36.9695
36.7457
36.4428
36.0801
35.674
35.2373
34.7798
34.3088
33.8295
33.3455
32.8592
32.3721
31.8852
31.3989
30.9135
30.4291
29.9456
29.463
28.9812
28.4999
28.0192
27.539
27.059
26.5792
26.0996
25.6201
25.1406
24.661
24.1813
23.7014
23.2212
22.7406
22.2596
21.7781
21.2961
20.8135
20.3305
19.8473
19.3643
18.8821
18.402
17.9254
17.4543
16.9912
16.5394
36.1567
36.6309
36.9525
37.0925
37.0926
36.9695
36.7456
36.4427
36.0801
35.674
35.2372
34.7797
34.3087
33.8294
33.3454
32.8591
32.3719
31.8849
31.3986
30.9132
30.4287
29.9451
29.4624
28.9804
28.4991
28.0182
27.5378
27.0576
26.5777
26.0979
25.6182
25.1384
24.6587
24.1788
23.6988
23.2187
22.7383
22.2576
21.7767
21.2956
20.8143
20.3331
19.8523
19.3724
18.8942
18.4188
17.9476
17.4825
17.0258
16.5802
36.2163
36.6921
37.0116
37.1458
37.1382
37.0069
36.7751
36.4651
36.0965
35.6856
35.2452
34.7849
34.3119
33.8312
33.3462
32.8593
32.3717
31.8845
31.398
30.9124
30.4279
29.9443
29.4615
28.9794
28.498
28.0171
27.5365
27.0562
26.5761
26.0961
25.6162
25.1363
24.6564
24.1764
23.6964
23.2162
22.736
22.2556
21.7753
21.295
20.815
20.3354
19.8568
19.3798
18.905
18.4336
17.967
17.507
17.0556
16.6151
36.3372
36.816
37.1309
37.253
37.2298
37.0816
36.8337
36.5095
36.129
35.7086
35.2608
34.7951
34.3182
33.8348
33.3479
32.8598
32.3715
31.8838
31.397
30.9113
30.4267
29.9431
29.4603
28.9782
28.4968
28.0157
27.5351
27.0546
26.5744
26.0943
25.6142
25.1342
24.6541
24.174
23.6939
23.2138
22.7336
22.2536
21.7737
21.2942
20.8153
20.3372
19.8606
19.3859
18.9141
18.4461
17.9835
17.5277
17.0806
16.6442
36.5229
37.0059
37.3131
37.4158
37.3679
37.1937
36.9211
36.5752
36.1768
35.7421
35.2835
34.8098
34.3272
33.8398
33.3503
32.8604
32.3711
31.8827
31.3957
30.9099
30.4252
29.9416
29.4588
28.9768
28.4953
28.0143
27.5335
27.053
26.5727
26.0924
25.6122
25.132
24.6518
24.1716
23.6914
23.2112
22.7312
22.2514
21.7719
21.293
20.815
20.3382
19.8632
19.3905
18.9212
18.4561
17.9967
17.5443
17.1007
16.6677
36.7792
37.2669
37.5621
37.6364
37.5535
37.3428
37.0363
36.6611
36.2387
35.7852
35.3124
34.8283
34.3383
33.8459
33.353
32.861
32.3704
31.8813
31.3939
30.908
30.4233
29.9398
29.4571
28.9751
28.4937
28.0127
27.5319
27.0514
26.5709
26.0905
25.6102
25.1298
24.6494
24.1691
23.6888
23.2086
22.7286
22.2489
21.7697
21.2913
20.814
20.3382
19.8645
19.3935
18.9261
18.4634
18.0065
17.5568
17.116
16.6856
37.1146
37.6064
37.8833
37.9178
37.7873
37.5284
37.178
36.7655
36.313
35.8363
35.3462
34.8496
34.3509
33.8524
33.3557
32.8613
32.3692
31.8794
31.3917
30.9057
30.4211
29.9377
29.4551
28.9733
28.492
28.011
27.5302
27.0496
26.5691
26.0886
25.6081
25.1275
24.647
24.1665
23.686
23.2057
22.7256
22.246
21.767
21.2889
20.8121
20.3371
19.8643
19.3946
18.9287
18.4677
18.0128
17.5652
17.1264
16.698
37.5415
38.0345
38.2839
38.2636
38.0702
37.7495
37.3442
36.886
36.3975
35.8935
35.3833
34.8724
34.3638
33.8588
33.3579
32.8609
32.3674
31.8769
31.3889
30.9029
30.4185
29.9352
29.4529
28.9713
28.4901
28.0092
27.5285
27.0479
26.5673
26.0866
25.606
25.1253
24.6445
24.1638
23.6831
23.2026
22.7224
22.2427
21.7637
21.2858
20.8092
20.3346
19.8625
19.3936
18.9288
18.469
18.0155
17.5694
17.132
16.705
38.0772
38.5648
38.7729
38.6778
38.4025
38.0042
37.5319
37.0196
36.4892
35.9541
35.4216
34.8952
34.3761
33.8643
33.359
32.8595
32.3647
31.8736
31.3855
30.8996
30.4154
29.9325
29.4505
28.9691
28.4881
28.0073
27.5267
27.0461
26.5654
26.0847
25.6039
25.1229
24.642
24.161
23.68
23.1993
22.7188
22.2389
21.7598
21.2817
20.8053
20.3308
19.859
19.3905
18.9263
18.4673
18.0146
17.5694
17.1329
16.7066
38.7466
39.2153
39.3616
39.1645
38.7836
38.2892
37.737
37.1619
36.5844
36.0153
35.4589
34.9162
34.3864
33.8678
33.3585
32.8567
32.3608
31.8694
31.3813
30.8958
30.412
29.9295
29.4479
28.9668
28.486
28.0054
27.5249
27.0443
26.5636
26.0827
25.6017
25.1206
24.6393
24.158
23.6768
23.1957
22.7149
22.2346
21.7551
21.2768
20.8001
20.3255
19.8537
19.3853
18.9212
18.4625
18.0101
17.5652
17.1291
16.7031
39.5853
40.0097
40.0629
39.7274
39.2112
38.5996
37.9535
37.3075
36.6785
36.0732
35.4922
34.9334
34.3933
33.8685
33.3557
32.8521
32.3555
31.8641
31.3764
30.8914
30.4082
29.9262
29.4451
28.9644
28.4839
28.0035
27.5231
27.0425
26.5618
26.0808
25.5996
25.1182
24.6367
24.155
23.6733
23.1918
22.7105
22.2298
21.7498
21.271
20.7938
20.3188
19.8466
19.3778
18.9135
18.4545
18.0019
17.5569
17.1206
16.6944
40.6449
40.9787
40.8917
40.3683
39.6804
38.9274
38.1736
37.4493
36.7659
36.1237
35.5186
34.9446
34.3953
33.8653
33.3499
32.8453
32.3486
31.8577
31.3707
30.8864
30.404
29.9227
29.4421
28.9619
28.4818
28.0016
27.5213
27.0408
26.56
26.0789
25.5975
25.1159
24.634
24.1519
23.6698
23.1877
22.7058
22.2244
21.7438
21.2643
20.7864
20.3106
19.8376
19.3682
18.9032
18.4435
17.9902
17.5446
17.1076
16.6806
42.0011
42.1619
41.8631
41.0857
40.1815
39.2613
38.3865
37.5788
36.8398
36.1619
35.5347
34.9474
34.3908
33.8572
33.3404
32.8358
32.3399
31.8499
31.364
30.8809
30.3994
29.919
29.4391
28.9594
28.4797
27.9998
27.5197
27.0392
26.5584
26.0771
25.5955
25.1136
24.6313
24.1487
23.666
23.1833
22.7007
22.2186
21.7371
21.2567
20.7778
20.301
19.8269
19.3564
18.8902
18.4294
17.975
17.5282
17.09
16.6619
43.7659
43.6089
42.9901
41.8712
40.6985
39.5846
38.5782
37.6851
36.8926
36.1825
35.5367
34.9396
34.3784
33.8434
33.3269
32.8235
32.3291
31.8408
31.3566
30.8748
30.3946
29.9151
29.436
28.957
28.4777
27.9981
27.5182
27.0378
26.5569
26.0755
25.5936
25.1113
24.6286
24.1456
23.6622
23.1788
22.6954
22.2123
21.7298
21.2482
20.7681
20.2899
19.8145
19.3424
18.8747
18.4123
17.9563
17.5078
17.0681
16.6382
46.1098
45.3804
44.2782
42.7049
41.2055
39.8743
38.7311
37.7556
36.9157
36.1799
35.5213
34.9189
34.3568
33.8229
33.3088
32.808
32.3163
31.8304
31.3483
30.8683
30.3895
29.9112
29.433
28.9546
28.4758
27.9966
27.5168
27.0365
26.5555
26.074
25.5919
25.1092
24.6261
24.1424
23.6584
23.1741
22.6898
22.2056
21.7219
21.239
20.7573
20.2776
19.8004
19.3265
18.8568
18.3924
17.9342
17.4836
17.0417
16.6098
49.294
47.5454
45.7158
43.5484
41.6631
40.0993
38.8234
37.7762
36.9002
36.1484
35.4849
34.8834
34.3247
33.7953
33.2858
32.7894
32.3014
31.8188
31.3392
30.8614
30.3843
29.9073
29.4301
28.9524
28.4742
27.9953
27.5157
27.0354
26.5544
26.0727
25.5903
25.1073
24.6236
24.1394
23.6546
23.1694
22.684
22.1986
21.7135
21.229
20.7457
20.264
19.7847
19.3085
18.8365
18.3695
17.9089
17.4556
17.0111
16.5766
53.689
50.1656
47.2597
44.3368
42.0157
40.2208
38.8304
37.7318
36.8374
36.0834
35.4251
34.8317
34.2816
33.7604
33.2581
32.7677
32.2847
31.806
31.3296
30.8543
30.379
29.9035
29.4274
28.9505
28.4728
27.9942
27.5148
27.0346
26.5536
26.0717
25.589
25.1056
24.6214
24.1365
23.6509
23.1648
22.6782
22.1915
21.7048
21.2185
20.7332
20.2493
19.7675
19.2888
18.8139
18.3441
17.8803
17.424
16.9763
16.5387
59.809
53.2523
48.7904
44.9576
42.1841
40.1904
38.7249
37.608
36.7198
35.9812
35.3403
34.7633
34.2276
33.7185
33.2258
32.7432
32.2664
31.7925
31.3197
30.8471
30.374
29.9
29.425
28.9489
28.4717
27.9935
27.5143
27.0341
26.553
26.071
25.588
25.1041
24.6194
24.1338
23.6474
23.1602
22.6724
22.1842
21.6958
21.2076
20.72
20.2336
19.7491
19.2674
18.7893
18.316
17.8488
17.3888
16.9375
16.4964
69.0528
56.7241
49.9642
45.1744
42.0321
39.9351
38.4691
37.3856
36.5378
35.8369
35.2281
34.6772
34.1623
33.6694
33.1893
32.7163
32.2468
31.7784
31.3098
30.8402
30.3693
29.8969
29.423
28.9477
28.4711
27.9932
27.5142
27.034
26.5528
26.0706
25.5873
25.103
24.6177
24.1314
23.6441
23.1558
22.6667
22.1769
21.6866
21.1962
20.7061
20.2169
19.7293
19.2441
18.7623
18.2851
17.8137
17.3496
16.894
16.4487
86.1501
60.3335
50.0922
44.5942
41.3645
39.3602
38.0166
37.0409
36.2787
35.6434
35.0843
34.5709
34.0842
33.6123
33.148
32.6868
32.2259
31.7638
31.2998
30.8336
30.3651
29.8944
29.4217
28.9472
28.471
27.9935
27.5146
27.0344
26.5531
26.0707
25.5871
25.1024
24.6164
24.1293
23.641
23.1516
22.661
22.1694
21.677
21.1842
20.6912
20.1988
19.7075
19.2182
18.7321
18.2502
17.7738
17.3046
16.844
16.3935
114.383
63.5536
49.4616
43.5069
40.4078
38.6354
37.4886
36.6589
36.002
35.4425
34.9385
34.4652
34.0079
33.5576
33.1091
32.6594
32.2069
31.7509
31.2913
30.8281
30.3618
29.8926
29.4209
28.947
28.4714
27.994
27.5152
27.0351
26.5537
26.0711
25.5872
25.102
24.6156
24.1278
23.6386
23.148
22.656
22.1627
21.6684
21.1731
20.6774
20.1818
19.6869
19.1937
18.7032
18.2167
17.7355
17.2612
16.7955
16.3401
8.21135
10.1395
10.2477
10.6292
10.8364
10.9848
11.0731
11.1214
11.1381
11.1302
11.1026
11.0589
11.0018
10.9334
10.8556
10.7696
10.6768
10.578
10.4741
10.3658
10.2538
10.1386
10.0206
9.90032
9.77803
9.65408
9.52872
9.4022
9.27471
9.14643
9.0175
8.88807
8.75823
8.62808
8.4977
8.36715
8.23648
8.10575
7.97499
7.84423
7.71349
7.58278
7.45213
7.32155
7.19103
7.06059
6.93023
6.79994
6.66973
6.53959
6.40952
6.27952
6.14958
6.0197
5.88987
5.7601
5.63037
5.50068
5.37103
5.24142
5.11183
4.98228
4.85274
4.72323
4.59374
4.46426
4.3348
4.20535
4.07591
3.94648
3.81706
3.68764
3.55823
3.42882
3.29942
3.17002
3.04063
2.91123
2.78184
2.65245
2.52306
2.39367
2.26428
2.13489
2.00551
1.87612
1.74673
1.61735
1.48796
1.35857
1.22919
1.0998
0.970413
0.841026
0.711639
0.582253
0.452867
0.323477
0.194099
0.064686
10.6119
11.1551
10.8632
11.0241
11.1149
11.1921
11.234
11.2493
11.2413
11.2141
11.1711
11.1147
11.0471
10.97
10.8848
10.7926
10.6945
10.5913
10.4838
10.3725
10.2579
10.1406
10.021
9.8994
9.77609
9.65135
9.52543
9.39851
9.27077
9.14236
9.0134
8.884
8.75426
8.62426
8.49405
8.3637
8.23326
8.10275
7.97222
7.84168
7.71116
7.58067
7.45023
7.31984
7.1895
7.05923
6.92902
6.79887
6.66879
6.53877
6.4088
6.2789
6.14904
6.01924
5.88948
5.75977
5.63009
5.50045
5.37084
5.24126
5.1117
4.98217
4.85266
4.72317
4.59369
4.46423
4.33477
4.20533
4.0759
3.94648
3.81706
3.68764
3.55824
3.42883
3.29943
3.17004
3.04064
2.91125
2.78185
2.65246
2.52307
2.39368
2.26429
2.13491
2.00552
1.87613
1.74674
1.61735
1.48797
1.35858
1.22919
1.0998
0.970417
0.84103
0.711642
0.582255
0.452867
0.323478
0.194096
0.0646916
11.9269
11.8927
11.4228
11.4116
11.3983
11.4062
11.401
11.3821
11.3484
11.3012
11.242
11.1725
11.0941
11.0079
10.9151
10.8165
10.7131
10.6054
10.494
10.3796
10.2624
10.143
10.0217
9.89873
9.77435
9.6488
9.52228
9.39494
9.26692
9.13835
9.00934
8.87997
8.75032
8.62045
8.49041
8.36026
8.23003
8.09974
7.96943
7.83912
7.70882
7.57854
7.4483
7.3181
7.18795
7.05784
6.92779
6.79778
6.66783
6.53793
6.40807
6.27826
6.1485
6.01877
5.88908
5.75943
5.6298
5.50021
5.37064
5.24109
5.11157
4.98206
4.85257
4.7231
4.59364
4.46419
4.33475
4.20531
4.07589
3.94647
3.81706
3.68765
3.55824
3.42884
3.29944
3.17005
3.04065
2.91126
2.78187
2.65248
2.52309
2.3937
2.26431
2.13492
2.00553
1.87614
1.74675
1.61736
1.48797
1.35859
1.2292
1.09981
0.970422
0.841033
0.711645
0.582257
0.452868
0.323479
0.194093
0.064697
12.8272
12.4718
11.9195
11.7775
11.6768
11.6211
11.5703
11.5175
11.4578
11.3902
11.3147
11.2318
11.1422
11.0468
10.9462
10.8411
10.7322
10.6199
10.5047
10.387
10.2673
10.1457
10.0226
9.89824
9.77277
9.64638
9.51923
9.39145
9.26314
9.13441
9.00533
8.87597
8.74639
8.61665
8.48678
8.35682
8.22679
8.09672
7.96664
7.83655
7.70646
7.5764
7.44636
7.31635
7.18638
7.05644
6.92654
6.79668
6.66686
6.53708
6.40733
6.27762
6.14794
6.01829
5.88867
5.75908
5.62951
5.49996
5.37043
5.24092
5.11143
4.98195
4.85248
4.72303
4.59358
4.46415
4.33472
4.20529
4.07588
3.94646
3.81706
3.68765
3.55825
3.42885
3.29945
3.17006
3.04067
2.91127
2.78188
2.65249
2.5231
2.39371
2.26432
2.13493
2.00554
1.87615
1.74676
1.61737
1.48798
1.35859
1.2292
1.09982
0.970426
0.841037
0.711648
0.582259
0.452869
0.32348
0.19409
0.0647022
13.4813
12.9454
12.3555
12.1162
11.9444
11.8322
11.739
11.6535
11.5683
11.4804
11.3884
11.2919
11.1912
11.0863
10.9779
10.8662
10.7517
10.6347
10.5157
10.3948
10.2723
10.1486
10.0237
9.89789
9.7713
9.64405
9.51626
9.38802
9.25941
9.1305
9.00134
8.87199
8.74248
8.61286
8.48315
8.35337
8.22355
8.0937
7.96383
7.83396
7.7041
7.57424
7.44441
7.31459
7.1848
7.05503
6.92529
6.79557
6.66588
6.53622
6.40658
6.27697
6.14738
6.01781
5.88825
5.75872
5.62921
5.49971
5.37022
5.24075
5.11129
4.98183
4.85239
4.72295
4.59353
4.4641
4.33469
4.20527
4.07586
3.94646
3.81706
3.68766
3.55826
3.42886
3.29947
3.17007
3.04068
2.91129
2.78189
2.6525
2.52311
2.39372
2.26433
2.13494
2.00555
1.87616
1.74677
1.61738
1.48799
1.3586
1.22921
1.09982
0.970431
0.841041
0.711651
0.582261
0.45287
0.323481
0.194087
0.0647073
13.9619
13.3372
12.7357
12.426
12.1975
12.0365
11.9046
11.7883
11.6785
11.5706
11.4623
11.3524
11.2404
11.1262
11.0099
10.8915
10.7714
10.6498
10.5268
10.4026
10.2775
10.1515
10.0249
9.89762
9.7699
9.64178
9.51334
9.38463
9.25571
9.12661
8.99737
8.86802
8.73858
8.60908
8.47952
8.34993
8.22031
8.09067
7.96102
7.83137
7.70172
7.57208
7.44244
7.31282
7.18321
7.05361
6.92402
6.79445
6.66489
6.53535
6.40582
6.27631
6.14681
6.01731
5.88783
5.75836
5.6289
5.49945
5.37001
5.24057
5.11114
4.98172
4.8523
4.72288
4.59347
4.46406
4.33465
4.20525
4.07585
3.94645
3.81705
3.68766
3.55826
3.42887
3.29948
3.17008
3.04069
2.9113
2.78191
2.65252
2.52312
2.39373
2.26434
2.13495
2.00556
1.87617
1.74678
1.61739
1.488
1.35861
1.22922
1.09983
0.970435
0.841045
0.711654
0.582263
0.452871
0.323481
0.194085
0.0647122
14.3261
13.6659
13.0668
12.7073
12.4342
12.2317
12.0652
11.9204
11.7871
11.66
11.5358
11.4126
11.2896
11.166
11.0418
10.9169
10.7912
10.6649
10.5379
10.4105
10.2827
10.1545
10.026
9.89737
9.76851
9.63953
9.51043
9.38126
9.25202
9.12273
8.99341
8.86406
8.73468
8.60529
8.47589
8.34648
8.21706
8.08764
7.95821
7.82878
7.69934
7.56991
7.44048
7.31104
7.18161
7.05218
6.92275
6.79333
6.6639
6.53448
6.40506
6.27565
6.14623
6.01682
5.88741
5.758
5.6286
5.4992
5.36979
5.24039
5.11099
4.9816
4.8522
4.7228
4.59341
4.46402
4.33462
4.20523
4.07584
3.94644
3.81705
3.68766
3.55827
3.42888
3.29949
3.17009
3.0407
2.91131
2.78192
2.65253
2.52314
2.39375
2.26435
2.13496
2.00557
1.87618
1.74679
1.6174
1.48801
1.35861
1.22922
1.09983
0.97044
0.841048
0.711657
0.582265
0.452872
0.323482
0.194082
0.064717
14.6127
13.9455
13.3556
12.9615
12.6538
12.4164
12.2194
12.0485
11.8934
11.7479
11.6083
11.4722
11.3382
11.2055
11.0735
10.942
10.8108
10.6798
10.549
10.4183
10.2878
10.1574
10.0272
9.89708
9.7671
9.63725
9.50751
9.37787
9.24832
9.11885
8.98944
8.86009
8.73079
8.60151
8.47226
8.34303
8.21382
8.0846
7.95539
7.82618
7.69697
7.56774
7.43851
7.30927
7.18002
7.05076
6.92148
6.7922
6.66291
6.53361
6.4043
6.27498
6.14566
6.01633
5.88699
5.75764
5.62829
5.49894
5.36958
5.24021
5.11085
4.98148
4.8521
4.72273
4.59335
4.46397
4.33459
4.20521
4.07582
3.94644
3.81705
3.68766
3.55827
3.42889
3.2995
3.17011
3.04071
2.91132
2.78193
2.65254
2.52315
2.39376
2.26437
2.13497
2.00558
1.87619
1.7468
1.61741
1.48801
1.35862
1.22923
1.09984
0.970445
0.841052
0.71166
0.582267
0.452874
0.323483
0.19408
0.0647215
14.8456
14.1863
13.6084
13.1908
12.8562
12.5899
12.3662
12.1717
11.9963
11.8335
11.6791
11.5306
11.386
11.2443
11.1047
10.9667
10.8301
10.6945
10.5598
10.4259
10.2928
10.1602
10.0282
9.89671
9.76562
9.63492
9.50454
9.37445
9.2446
9.11495
8.98547
8.85612
8.72688
8.59773
8.46864
8.33959
8.21057
8.08158
7.95258
7.82359
7.69459
7.56558
7.43655
7.3075
7.17843
7.04933
6.92022
6.79108
6.66192
6.53274
6.40354
6.27432
6.14509
6.01583
5.88657
5.75728
5.62799
5.49868
5.36936
5.24004
5.1107
4.98136
4.85201
4.72265
4.59329
4.46393
4.33456
4.20518
4.07581
3.94643
3.81705
3.68766
3.55828
3.42889
3.29951
3.17012
3.04073
2.91134
2.78195
2.65255
2.52316
2.39377
2.26438
2.13499
2.00559
1.8762
1.74681
1.61741
1.48802
1.35863
1.22924
1.09984
0.970449
0.841056
0.711663
0.582269
0.452875
0.323484
0.194078
0.0647257
15.0401
14.3957
13.8305
13.3973
13.042
12.7517
12.5049
12.2893
12.0952
11.9162
11.7478
11.5873
11.4325
11.282
11.135
10.9908
10.8488
10.7087
10.5703
10.4333
10.2975
10.1628
10.0291
9.89619
9.76403
9.6325
9.5015
9.37097
9.24083
9.11101
8.98146
8.85213
8.72297
8.59394
8.46501
8.33615
8.20734
8.07855
7.94978
7.82101
7.69222
7.56342
7.43459
7.30573
7.17684
7.04792
6.91896
6.78997
6.66094
6.53188
6.40279
6.27367
6.14452
6.01534
5.88615
5.75693
5.62769
5.49843
5.36915
5.23986
5.11056
4.98124
4.85192
4.72258
4.59324
4.46388
4.33453
4.20516
4.07579
3.94642
3.81705
3.68767
3.55829
3.4289
3.29952
3.17013
3.04074
2.91135
2.78196
2.65257
2.52318
2.39378
2.26439
2.135
2.0056
1.87621
1.74682
1.61742
1.48803
1.35864
1.22924
1.09985
0.970454
0.84106
0.711666
0.582272
0.452876
0.323485
0.194076
0.0647297
15.2062
14.5793
14.0264
13.583
13.2119
12.9018
12.6351
12.4007
12.1895
11.9954
11.814
11.642
11.4774
11.3185
11.1643
11.014
10.8668
10.7223
10.5802
10.4402
10.3019
10.1651
10.0297
9.89548
9.76228
9.62994
9.49836
9.36741
9.237
9.10703
8.97743
8.84811
8.71904
8.59014
8.46137
8.3327
8.2041
8.07554
7.94699
7.81843
7.68987
7.56128
7.43265
7.30398
7.17527
7.04651
6.91771
6.78886
6.65997
6.53103
6.40204
6.27302
6.14396
6.01486
5.88573
5.75657
5.62739
5.49818
5.36894
5.23969
5.11042
4.98113
4.85182
4.72251
4.59318
4.46384
4.3345
4.20514
4.07578
3.94642
3.81705
3.68767
3.55829
3.42891
3.29953
3.17014
3.04075
2.91136
2.78197
2.65258
2.52319
2.3938
2.2644
2.13501
2.00561
1.87622
1.74683
1.61743
1.48804
1.35864
1.22925
1.09985
0.970458
0.841064
0.711669
0.582274
0.452878
0.323486
0.194074
0.0647334
15.3504
14.7413
14.1997
13.7501
13.3668
13.0404
12.7566
12.5055
12.2788
12.0708
11.8771
11.6944
11.5204
11.3535
11.1924
11.0361
10.8839
10.7352
10.5896
10.4465
10.3058
10.167
10.03
9.89453
9.76032
9.62723
9.49509
9.36375
9.23309
9.10299
8.97335
8.84407
8.71509
8.58633
8.45774
8.32926
8.20087
8.07253
7.9442
7.81588
7.68753
7.55915
7.43072
7.30224
7.17371
7.04512
6.91648
6.78777
6.659
6.53018
6.40131
6.27238
6.14341
6.01439
5.88533
5.75623
5.62709
5.49793
5.36874
5.23952
5.11028
4.98101
4.85173
4.72244
4.59313
4.4638
4.33447
4.20512
4.07577
3.94641
3.81705
3.68767
3.5583
3.42892
3.29954
3.17015
3.04077
2.91138
2.78199
2.65259
2.5232
2.39381
2.26441
2.13502
2.00563
1.87623
1.74684
1.61744
1.48804
1.35865
1.22925
1.09986
0.970463
0.841068
0.711672
0.582276
0.452879
0.323487
0.194073
0.0647368
15.4771
14.8848
14.3535
13.9003
13.5075
13.1678
12.8692
12.6034
12.3628
12.142
11.9368
11.744
11.5612
11.3867
11.2189
11.057
10.9
10.7472
10.5982
10.4523
10.3092
10.1686
10.03
9.89328
9.75812
9.62431
9.49166
9.35996
9.22908
9.09887
8.96921
8.83999
8.71111
8.5825
8.45409
8.32583
8.19765
8.06953
7.94144
7.81333
7.6852
7.55703
7.42881
7.30053
7.17217
7.04375
6.91526
6.78669
6.65806
6.52935
6.40058
6.27175
6.14286
6.01392
5.88493
5.75589
5.62681
5.49769
5.36854
5.23935
5.11014
4.98091
4.85165
4.72237
4.59307
4.46376
4.33444
4.20511
4.07576
3.94641
3.81705
3.68768
3.55831
3.42893
3.29955
3.17017
3.04078
2.91139
2.782
2.65261
2.52321
2.39382
2.26443
2.13503
2.00564
1.87624
1.74684
1.61745
1.48805
1.35866
1.22926
1.09986
0.970468
0.841072
0.711675
0.582279
0.452881
0.323488
0.194071
0.0647399
15.5894
15.0123
14.4901
14.035
13.6351
13.2842
12.9731
12.6942
12.4412
12.2087
11.9929
11.7907
11.5996
11.4178
11.2438
11.0765
10.9149
10.7583
10.6059
10.4573
10.312
10.1696
10.0295
9.89167
9.75564
9.62117
9.48804
9.35603
9.22496
9.09467
8.96501
8.83586
8.70711
8.57866
8.45045
8.32239
8.19444
8.06655
7.93869
7.81081
7.6829
7.55495
7.42693
7.29883
7.17066
7.0424
6.91406
6.78564
6.65713
6.52854
6.39988
6.27114
6.14233
6.01347
5.88454
5.75556
5.62653
5.49746
5.36835
5.2392
5.11001
4.9808
4.85157
4.72231
4.59303
4.46373
4.33442
4.20509
4.07575
3.9464
3.81705
3.68768
3.55832
3.42894
3.29956
3.17018
3.04079
2.9114
2.78201
2.65262
2.52323
2.39383
2.26444
2.13504
2.00565
1.87625
1.74685
1.61746
1.48806
1.35866
1.22927
1.09987
0.970473
0.841076
0.711678
0.582281
0.452882
0.323489
0.194071
0.0647427
15.6895
15.1259
14.6116
14.1557
13.7502
13.3902
13.0683
12.778
12.5137
12.2707
12.0452
11.8342
11.6353
11.4467
11.2668
11.0944
10.9284
10.7681
10.6127
10.4616
10.3142
10.17
10.0286
9.88968
9.75283
9.61776
9.4842
9.35193
9.22071
9.09037
8.96074
8.83168
8.70307
8.57481
8.4468
8.31896
8.19124
8.06359
7.93596
7.80831
7.68063
7.55289
7.42507
7.29716
7.16917
7.04108
6.91289
6.7846
6.65622
6.52775
6.39919
6.27054
6.14182
6.01303
5.88417
5.75525
5.62627
5.49724
5.36816
5.23905
5.10989
4.98071
4.85149
4.72225
4.59298
4.4637
4.33439
4.20508
4.07575
3.9464
3.81705
3.68769
3.55832
3.42895
3.29957
3.17019
3.04081
2.91142
2.78203
2.65263
2.52324
2.39385
2.26445
2.13505
2.00566
1.87626
1.74686
1.61747
1.48807
1.35867
1.22927
1.09988
0.970477
0.84108
0.711681
0.582284
0.452884
0.32349
0.19407
0.0647451
15.7787
15.2268
14.7196
14.2636
13.8537
13.4861
13.1549
12.8546
12.5803
12.3277
12.0933
11.8742
11.6681
11.4731
11.2877
11.1105
10.9405
10.7767
10.6184
10.4649
10.3155
10.1698
10.0272
9.88724
9.74965
9.61405
9.48013
9.34763
9.21631
9.08595
8.95639
8.82745
8.699
8.57093
8.44314
8.31554
8.18806
8.06065
7.93325
7.80584
7.67838
7.55086
7.42324
7.29553
7.16771
7.03978
6.91174
6.78359
6.65534
6.52698
6.39852
6.26997
6.14133
6.0126
5.88381
5.75494
5.62601
5.49703
5.36799
5.2389
5.10978
4.98061
4.85142
4.72219
4.59294
4.46367
4.33438
4.20507
4.07574
3.9464
3.81706
3.6877
3.55833
3.42896
3.29959
3.17021
3.04082
2.91143
2.78204
2.65265
2.52325
2.39386
2.26446
2.13507
2.00567
1.87627
1.74687
1.61747
1.48808
1.35868
1.22928
1.09988
0.970482
0.841084
0.711685
0.582286
0.452886
0.323492
0.19407
0.0647472
15.8582
15.3165
14.8152
14.3596
13.9463
13.5724
13.2332
12.9241
12.6409
12.3796
12.1371
11.9105
11.6978
11.4969
11.3064
11.1247
10.9509
10.784
10.623
10.4673
10.3161
10.1689
10.0251
9.88431
9.74608
9.61002
9.4758
9.34313
9.21174
9.08142
8.95194
8.82315
8.69489
8.56703
8.43947
8.31212
8.18489
8.05773
7.93058
7.8034
7.67617
7.54886
7.42145
7.29393
7.16628
7.03852
6.91063
6.78262
6.65448
6.52623
6.39787
6.26941
6.14085
6.0122
5.88346
5.75465
5.62577
5.49683
5.36782
5.23877
5.10967
4.98053
4.85135
4.72214
4.59291
4.46364
4.33436
4.20506
4.07574
3.94641
3.81706
3.68771
3.55835
3.42898
3.2996
3.17022
3.04084
2.91145
2.78206
2.65266
2.52327
2.39387
2.26448
2.13508
2.00568
1.87628
1.74688
1.61748
1.48808
1.35868
1.22929
1.09989
0.970487
0.841088