/*--------------------------------*- C++ -*----------------------------------*\
  =========                 |
  \\      /  F ield         | OpenFOAM: The Open Source CFD Toolbox
   \\    /   O peration     | Website:  https://openfoam.org
    \\  /    A nd           | Version:  6
     \\/     M anipulation  |
\*---------------------------------------------------------------------------*/
FoamFile
{
    version     2.0;
    format      ascii;
    class       volScalarField;
    location    "0";
    object      p;
}
// * * * * * * * * * * * * * * * * * * * * * * * * * * * * * * * * * * * * * //

dimensions      [0 2 -2 0 0 0 0];

internalField   nonuniform List<scalar> 
145945
(
2.13798e-06
2.13769e-06
2.13775e-06
2.13784e-06
2.13803e-06
2.13817e-06
2.13831e-06
2.13838e-06
2.13843e-06
2.1384e-06
2.13835e-06
2.13822e-06
2.13812e-06
2.13794e-06
2.13789e-06
2.13778e-06
2.13808e-06
2.13769e-06
2.13761e-06
2.1377e-06
2.13785e-06
2.13806e-06
2.13821e-06
2.13836e-06
2.13844e-06
2.13849e-06
2.13847e-06
2.1384e-06
2.13828e-06
2.13815e-06
2.13796e-06
2.13785e-06
2.13771e-06
2.1378e-06
2.13775e-06
2.1377e-06
2.1378e-06
2.138e-06
2.13823e-06
2.13841e-06
2.13856e-06
2.13865e-06
2.1387e-06
2.13868e-06
2.13861e-06
2.13848e-06
2.13833e-06
2.13813e-06
2.13797e-06
2.13781e-06
2.13786e-06
2.13784e-06
2.13785e-06
2.138e-06
2.13825e-06
2.1385e-06
2.13869e-06
2.13885e-06
2.13895e-06
2.139e-06
2.13898e-06
2.1389e-06
2.13877e-06
2.1386e-06
2.13839e-06
2.13818e-06
2.13798e-06
2.13795e-06
2.13803e-06
2.13806e-06
2.13823e-06
2.1385e-06
2.13876e-06
2.13896e-06
2.13913e-06
2.13923e-06
2.13928e-06
2.13925e-06
2.13918e-06
2.13904e-06
2.13887e-06
2.13865e-06
2.13841e-06
2.13819e-06
2.13814e-06
2.13817e-06
2.13821e-06
2.13841e-06
2.13869e-06
2.13896e-06
2.13918e-06
2.13935e-06
2.13945e-06
2.1395e-06
2.13948e-06
2.1394e-06
2.13926e-06
2.13908e-06
2.13885e-06
2.1386e-06
2.13835e-06
2.13828e-06
2.13831e-06
2.13836e-06
2.13856e-06
2.13885e-06
2.13913e-06
2.13935e-06
2.13951e-06
2.13962e-06
2.13967e-06
2.13965e-06
2.13957e-06
2.13943e-06
2.13924e-06
2.13901e-06
2.13875e-06
2.1385e-06
2.13842e-06
2.13838e-06
2.13844e-06
2.13865e-06
2.13895e-06
2.13923e-06
2.13945e-06
2.13962e-06
2.13972e-06
2.13977e-06
2.13975e-06
2.13967e-06
2.13953e-06
2.13934e-06
2.13911e-06
2.13884e-06
2.13858e-06
2.1385e-06
2.13843e-06
2.13849e-06
2.1387e-06
2.139e-06
2.13928e-06
2.1395e-06
2.13967e-06
2.13977e-06
2.13982e-06
2.1398e-06
2.13972e-06
2.13958e-06
2.13939e-06
2.13916e-06
2.13889e-06
2.13863e-06
2.13854e-06
2.1384e-06
2.13847e-06
2.13868e-06
2.13898e-06
2.13925e-06
2.13948e-06
2.13965e-06
2.13975e-06
2.1398e-06
2.13978e-06
2.1397e-06
2.13956e-06
2.13937e-06
2.13913e-06
2.13887e-06
2.13861e-06
2.13852e-06
2.13835e-06
2.1384e-06
2.13861e-06
2.1389e-06
2.13918e-06
2.1394e-06
2.13957e-06
2.13967e-06
2.13972e-06
2.1397e-06
2.13962e-06
2.13948e-06
2.13929e-06
2.13906e-06
2.1388e-06
2.13855e-06
2.13846e-06
2.13822e-06
2.13828e-06
2.13848e-06
2.13877e-06
2.13904e-06
2.13926e-06
2.13943e-06
2.13953e-06
2.13958e-06
2.13956e-06
2.13948e-06
2.13934e-06
2.13916e-06
2.13892e-06
2.13867e-06
2.13842e-06
2.13834e-06
2.13812e-06
2.13815e-06
2.13833e-06
2.1386e-06
2.13887e-06
2.13908e-06
2.13924e-06
2.13934e-06
2.13939e-06
2.13937e-06
2.13929e-06
2.13916e-06
2.13898e-06
2.13875e-06
2.13852e-06
2.13829e-06
2.13823e-06
2.13794e-06
2.13796e-06
2.13813e-06
2.13839e-06
2.13865e-06
2.13885e-06
2.13901e-06
2.13911e-06
2.13916e-06
2.13913e-06
2.13906e-06
2.13892e-06
2.13875e-06
2.13853e-06
2.13831e-06
2.1381e-06
2.13805e-06
2.13789e-06
2.13785e-06
2.13797e-06
2.13818e-06
2.13842e-06
2.1386e-06
2.13875e-06
2.13884e-06
2.13889e-06
2.13887e-06
2.1388e-06
2.13867e-06
2.13852e-06
2.13831e-06
2.13814e-06
2.13797e-06
2.13799e-06
2.13778e-06
2.13771e-06
2.13781e-06
2.13798e-06
2.13819e-06
2.13835e-06
2.1385e-06
2.13859e-06
2.13863e-06
2.13861e-06
2.13855e-06
2.13842e-06
2.13829e-06
2.1381e-06
2.13797e-06
2.13782e-06
2.13788e-06
2.13808e-06
2.1378e-06
2.13786e-06
2.13795e-06
2.13815e-06
2.13828e-06
2.13842e-06
2.1385e-06
2.13854e-06
2.13852e-06
2.13846e-06
2.13834e-06
2.13823e-06
2.13805e-06
2.13799e-06
2.13788e-06
2.13818e-06
2.06342e-06
2.06343e-06
2.06377e-06
2.06411e-06
2.0645e-06
2.06482e-06
2.06508e-06
2.06524e-06
2.06532e-06
2.06528e-06
2.06514e-06
2.06491e-06
2.06462e-06
2.06426e-06
2.06394e-06
2.06355e-06
2.06351e-06
2.06343e-06
2.06362e-06
2.06399e-06
2.0644e-06
2.06483e-06
2.06517e-06
2.06545e-06
2.06562e-06
2.0657e-06
2.06566e-06
2.06552e-06
2.06527e-06
2.06496e-06
2.06456e-06
2.06418e-06
2.06375e-06
2.06353e-06
2.06377e-06
2.06399e-06
2.06438e-06
2.06484e-06
2.06529e-06
2.06566e-06
2.06595e-06
2.06614e-06
2.06622e-06
2.06618e-06
2.06603e-06
2.06577e-06
2.06543e-06
2.06501e-06
2.06457e-06
2.06413e-06
2.06387e-06
2.06411e-06
2.0644e-06
2.06484e-06
2.06534e-06
2.06582e-06
2.06621e-06
2.06651e-06
2.06671e-06
2.06679e-06
2.06675e-06
2.06659e-06
2.06632e-06
2.06597e-06
2.06552e-06
2.06504e-06
2.06456e-06
2.06421e-06
2.0645e-06
2.06482e-06
2.06529e-06
2.06582e-06
2.06631e-06
2.06672e-06
2.06703e-06
2.06723e-06
2.06732e-06
2.06727e-06
2.06711e-06
2.06684e-06
2.06647e-06
2.06601e-06
2.0655e-06
2.06499e-06
2.0646e-06
2.06482e-06
2.06517e-06
2.06566e-06
2.06621e-06
2.06672e-06
2.06714e-06
2.06746e-06
2.06766e-06
2.06775e-06
2.06771e-06
2.06754e-06
2.06726e-06
2.06688e-06
2.06641e-06
2.06588e-06
2.06534e-06
2.06492e-06
2.06508e-06
2.06545e-06
2.06595e-06
2.06651e-06
2.06703e-06
2.06746e-06
2.06778e-06
2.06799e-06
2.06807e-06
2.06803e-06
2.06786e-06
2.06758e-06
2.06719e-06
2.06672e-06
2.06618e-06
2.06562e-06
2.06518e-06
2.06524e-06
2.06562e-06
2.06614e-06
2.06671e-06
2.06723e-06
2.06766e-06
2.06799e-06
2.06819e-06
2.06828e-06
2.06824e-06
2.06807e-06
2.06778e-06
2.0674e-06
2.06691e-06
2.06636e-06
2.06579e-06
2.06535e-06
2.06532e-06
2.0657e-06
2.06622e-06
2.06679e-06
2.06732e-06
2.06775e-06
2.06807e-06
2.06828e-06
2.06837e-06
2.06832e-06
2.06816e-06
2.06787e-06
2.06748e-06
2.067e-06
2.06644e-06
2.06587e-06
2.06542e-06
2.06528e-06
2.06566e-06
2.06618e-06
2.06675e-06
2.06727e-06
2.06771e-06
2.06803e-06
2.06824e-06
2.06832e-06
2.06828e-06
2.06811e-06
2.06783e-06
2.06744e-06
2.06695e-06
2.0664e-06
2.06583e-06
2.06538e-06
2.06514e-06
2.06552e-06
2.06603e-06
2.06659e-06
2.06711e-06
2.06754e-06
2.06786e-06
2.06807e-06
2.06816e-06
2.06811e-06
2.06795e-06
2.06766e-06
2.06728e-06
2.06679e-06
2.06625e-06
2.06569e-06
2.06525e-06
2.06491e-06
2.06527e-06
2.06577e-06
2.06632e-06
2.06684e-06
2.06726e-06
2.06758e-06
2.06778e-06
2.06787e-06
2.06783e-06
2.06766e-06
2.06738e-06
2.067e-06
2.06652e-06
2.06599e-06
2.06544e-06
2.06502e-06
2.06462e-06
2.06496e-06
2.06543e-06
2.06597e-06
2.06647e-06
2.06688e-06
2.0672e-06
2.0674e-06
2.06748e-06
2.06744e-06
2.06728e-06
2.067e-06
2.06663e-06
2.06616e-06
2.06565e-06
2.06512e-06
2.06473e-06
2.06426e-06
2.06457e-06
2.06501e-06
2.06552e-06
2.06601e-06
2.06641e-06
2.06672e-06
2.06691e-06
2.067e-06
2.06695e-06
2.06679e-06
2.06652e-06
2.06616e-06
2.06571e-06
2.06522e-06
2.06472e-06
2.06436e-06
2.06394e-06
2.06418e-06
2.06457e-06
2.06504e-06
2.0655e-06
2.06588e-06
2.06618e-06
2.06636e-06
2.06645e-06
2.0664e-06
2.06625e-06
2.06599e-06
2.06565e-06
2.06522e-06
2.06477e-06
2.06432e-06
2.06404e-06
2.06355e-06
2.06375e-06
2.06413e-06
2.06456e-06
2.06499e-06
2.06534e-06
2.06562e-06
2.06579e-06
2.06587e-06
2.06583e-06
2.06569e-06
2.06544e-06
2.06512e-06
2.06472e-06
2.06432e-06
2.06389e-06
2.06364e-06
2.06351e-06
2.06353e-06
2.06387e-06
2.06421e-06
2.0646e-06
2.06492e-06
2.06518e-06
2.06535e-06
2.06542e-06
2.06538e-06
2.06525e-06
2.06502e-06
2.06473e-06
2.06436e-06
2.06404e-06
2.06364e-06
2.0636e-06
2.00803e-06
2.0093e-06
2.01052e-06
2.0116e-06
2.01257e-06
2.01329e-06
2.01382e-06
2.01414e-06
2.01426e-06
2.01418e-06
2.01391e-06
2.01342e-06
2.01274e-06
2.0118e-06
2.01072e-06
2.00937e-06
2.00802e-06
2.0093e-06
2.01043e-06
2.01161e-06
2.0127e-06
2.01365e-06
2.01438e-06
2.0149e-06
2.01522e-06
2.01535e-06
2.01527e-06
2.01499e-06
2.0145e-06
2.01382e-06
2.0129e-06
2.0118e-06
2.01049e-06
2.0093e-06
2.01052e-06
2.01161e-06
2.01272e-06
2.01377e-06
2.01469e-06
2.0154e-06
2.01592e-06
2.01624e-06
2.01636e-06
2.01628e-06
2.01601e-06
2.01553e-06
2.01486e-06
2.01397e-06
2.01289e-06
2.01166e-06
2.01052e-06
2.0116e-06
2.0127e-06
2.01377e-06
2.0148e-06
2.0157e-06
2.0164e-06
2.01691e-06
2.01722e-06
2.01734e-06
2.01726e-06
2.01699e-06
2.01652e-06
2.01586e-06
2.01499e-06
2.01393e-06
2.01274e-06
2.01159e-06
2.01257e-06
2.01365e-06
2.01469e-06
2.0157e-06
2.01658e-06
2.01727e-06
2.01777e-06
2.01808e-06
2.01819e-06
2.01812e-06
2.01785e-06
2.01739e-06
2.01674e-06
2.01589e-06
2.01485e-06
2.0137e-06
2.01256e-06
2.01329e-06
2.01438e-06
2.0154e-06
2.0164e-06
2.01727e-06
2.01795e-06
2.01845e-06
2.01875e-06
2.01887e-06
2.0188e-06
2.01853e-06
2.01808e-06
2.01743e-06
2.01659e-06
2.01556e-06
2.01442e-06
2.01329e-06
2.01382e-06
2.0149e-06
2.01592e-06
2.01691e-06
2.01777e-06
2.01845e-06
2.01894e-06
2.01924e-06
2.01936e-06
2.01929e-06
2.01902e-06
2.01857e-06
2.01793e-06
2.01709e-06
2.01607e-06
2.01495e-06
2.01382e-06
2.01414e-06
2.01522e-06
2.01624e-06
2.01722e-06
2.01808e-06
2.01875e-06
2.01924e-06
2.01955e-06
2.01966e-06
2.01959e-06
2.01933e-06
2.01888e-06
2.01824e-06
2.0174e-06
2.01639e-06
2.01527e-06
2.01413e-06
2.01426e-06
2.01535e-06
2.01636e-06
2.01734e-06
2.01819e-06
2.01887e-06
2.01936e-06
2.01966e-06
2.01978e-06
2.0197e-06
2.01944e-06
2.01899e-06
2.01836e-06
2.01752e-06
2.01651e-06
2.01539e-06
2.01426e-06
2.01418e-06
2.01527e-06
2.01628e-06
2.01726e-06
2.01812e-06
2.0188e-06
2.01929e-06
2.01959e-06
2.0197e-06
2.01963e-06
2.01937e-06
2.01892e-06
2.01828e-06
2.01745e-06
2.01643e-06
2.01531e-06
2.01418e-06
2.01391e-06
2.01499e-06
2.01601e-06
2.01699e-06
2.01785e-06
2.01853e-06
2.01902e-06
2.01933e-06
2.01944e-06
2.01937e-06
2.0191e-06
2.01865e-06
2.01801e-06
2.01718e-06
2.01616e-06
2.01504e-06
2.0139e-06
2.01342e-06
2.0145e-06
2.01553e-06
2.01652e-06
2.01739e-06
2.01808e-06
2.01857e-06
2.01888e-06
2.01899e-06
2.01892e-06
2.01865e-06
2.0182e-06
2.01755e-06
2.01671e-06
2.01568e-06
2.01455e-06
2.01341e-06
2.01274e-06
2.01382e-06
2.01486e-06
2.01586e-06
2.01674e-06
2.01743e-06
2.01793e-06
2.01824e-06
2.01836e-06
2.01828e-06
2.01801e-06
2.01755e-06
2.0169e-06
2.01605e-06
2.01501e-06
2.01387e-06
2.01274e-06
2.01181e-06
2.0129e-06
2.01397e-06
2.01499e-06
2.01589e-06
2.01659e-06
2.01709e-06
2.0174e-06
2.01752e-06
2.01745e-06
2.01718e-06
2.01671e-06
2.01605e-06
2.01518e-06
2.01413e-06
2.01295e-06
2.0118e-06
2.01072e-06
2.0118e-06
2.01289e-06
2.01393e-06
2.01485e-06
2.01556e-06
2.01607e-06
2.01639e-06
2.01651e-06
2.01643e-06
2.01616e-06
2.01568e-06
2.01501e-06
2.01413e-06
2.01306e-06
2.01185e-06
2.01071e-06
2.00937e-06
2.01049e-06
2.01166e-06
2.01274e-06
2.0137e-06
2.01442e-06
2.01495e-06
2.01527e-06
2.01539e-06
2.01531e-06
2.01504e-06
2.01455e-06
2.01387e-06
2.01295e-06
2.01185e-06
2.01055e-06
2.00936e-06
2.00802e-06
2.0093e-06
2.01052e-06
2.01159e-06
2.01256e-06
2.01329e-06
2.01382e-06
2.01413e-06
2.01426e-06
2.01418e-06
2.0139e-06
2.01341e-06
2.01274e-06
2.0118e-06
2.01071e-06
2.00936e-06
2.00801e-06
1.95424e-06
1.95639e-06
1.95833e-06
1.96016e-06
1.96172e-06
1.96288e-06
1.96371e-06
1.96421e-06
1.96441e-06
1.96428e-06
1.96384e-06
1.96307e-06
1.96199e-06
1.96051e-06
1.95867e-06
1.95655e-06
1.95425e-06
1.95639e-06
1.95819e-06
1.96008e-06
1.96188e-06
1.96341e-06
1.96455e-06
1.96536e-06
1.96585e-06
1.96604e-06
1.96592e-06
1.96549e-06
1.96474e-06
1.96367e-06
1.96222e-06
1.96042e-06
1.95833e-06
1.95641e-06
1.95833e-06
1.96008e-06
1.96191e-06
1.96364e-06
1.9651e-06
1.9662e-06
1.96699e-06
1.96746e-06
1.96765e-06
1.96753e-06
1.96711e-06
1.96639e-06
1.96536e-06
1.96397e-06
1.96223e-06
1.96022e-06
1.95835e-06
1.96016e-06
1.96188e-06
1.96364e-06
1.96531e-06
1.96672e-06
1.96779e-06
1.96855e-06
1.96901e-06
1.96919e-06
1.96907e-06
1.96867e-06
1.96797e-06
1.96697e-06
1.96563e-06
1.96395e-06
1.96201e-06
1.96018e-06
1.96172e-06
1.96341e-06
1.9651e-06
1.96672e-06
1.96809e-06
1.96913e-06
1.96987e-06
1.97032e-06
1.97049e-06
1.97038e-06
1.96998e-06
1.9693e-06
1.96833e-06
1.96703e-06
1.9654e-06
1.96353e-06
1.96174e-06
1.96288e-06
1.96455e-06
1.9662e-06
1.96779e-06
1.96913e-06
1.97015e-06
1.97087e-06
1.97131e-06
1.97148e-06
1.97137e-06
1.97098e-06
1.97032e-06
1.96937e-06
1.9681e-06
1.9665e-06
1.96468e-06
1.9629e-06
1.96371e-06
1.96536e-06
1.96699e-06
1.96855e-06
1.96987e-06
1.97087e-06
1.97158e-06
1.97202e-06
1.97218e-06
1.97207e-06
1.97169e-06
1.97104e-06
1.9701e-06
1.96885e-06
1.96728e-06
1.96549e-06
1.96373e-06
1.96421e-06
1.96585e-06
1.96746e-06
1.96901e-06
1.97032e-06
1.97131e-06
1.97202e-06
1.97245e-06
1.97261e-06
1.97251e-06
1.97213e-06
1.97148e-06
1.97055e-06
1.96931e-06
1.96775e-06
1.96598e-06
1.96423e-06
1.96441e-06
1.96604e-06
1.96764e-06
1.96919e-06
1.97049e-06
1.97148e-06
1.97218e-06
1.97261e-06
1.97278e-06
1.97267e-06
1.97229e-06
1.97165e-06
1.97072e-06
1.96949e-06
1.96793e-06
1.96617e-06
1.96442e-06
1.96428e-06
1.96592e-06
1.96752e-06
1.96907e-06
1.97038e-06
1.97137e-06
1.97208e-06
1.97251e-06
1.97267e-06
1.97256e-06
1.97219e-06
1.97154e-06
1.97061e-06
1.96937e-06
1.96781e-06
1.96605e-06
1.9643e-06
1.96384e-06
1.96549e-06
1.96711e-06
1.96867e-06
1.96998e-06
1.97098e-06
1.97169e-06
1.97213e-06
1.97229e-06
1.97219e-06
1.97181e-06
1.97115e-06
1.97022e-06
1.96897e-06
1.9674e-06
1.96562e-06
1.96386e-06
1.96307e-06
1.96474e-06
1.96638e-06
1.96797e-06
1.9693e-06
1.97032e-06
1.97104e-06
1.97148e-06
1.97165e-06
1.97154e-06
1.97115e-06
1.97049e-06
1.96954e-06
1.96828e-06
1.96668e-06
1.96487e-06
1.96309e-06
1.96199e-06
1.96367e-06
1.96535e-06
1.96697e-06
1.96833e-06
1.96937e-06
1.9701e-06
1.97055e-06
1.97072e-06
1.97061e-06
1.97022e-06
1.96954e-06
1.96857e-06
1.96728e-06
1.96566e-06
1.9638e-06
1.96201e-06
1.96051e-06
1.96222e-06
1.96397e-06
1.96563e-06
1.96704e-06
1.9681e-06
1.96885e-06
1.96931e-06
1.96949e-06
1.96937e-06
1.96897e-06
1.96828e-06
1.96728e-06
1.96595e-06
1.96428e-06
1.96235e-06
1.96052e-06
1.95867e-06
1.96042e-06
1.96223e-06
1.96395e-06
1.9654e-06
1.9665e-06
1.96728e-06
1.96775e-06
1.96793e-06
1.96782e-06
1.9674e-06
1.96668e-06
1.96566e-06
1.96428e-06
1.96255e-06
1.96056e-06
1.95869e-06
1.95656e-06
1.95834e-06
1.96022e-06
1.96201e-06
1.96354e-06
1.96468e-06
1.96549e-06
1.96598e-06
1.96617e-06
1.96605e-06
1.96562e-06
1.96487e-06
1.9638e-06
1.96235e-06
1.96056e-06
1.95848e-06
1.95657e-06
1.95425e-06
1.95641e-06
1.95835e-06
1.96018e-06
1.96174e-06
1.9629e-06
1.96373e-06
1.96423e-06
1.96442e-06
1.9643e-06
1.96386e-06
1.96309e-06
1.96201e-06
1.96052e-06
1.95869e-06
1.95657e-06
1.95426e-06
1.90196e-06
1.90444e-06
1.90662e-06
1.90877e-06
1.91056e-06
1.91192e-06
1.91289e-06
1.91348e-06
1.9137e-06
1.91355e-06
1.91304e-06
1.91214e-06
1.91087e-06
1.90916e-06
1.907e-06
1.90463e-06
1.90197e-06
1.90444e-06
1.90648e-06
1.90865e-06
1.91075e-06
1.91252e-06
1.91387e-06
1.91484e-06
1.91542e-06
1.91564e-06
1.9155e-06
1.91498e-06
1.91409e-06
1.91283e-06
1.91114e-06
1.90903e-06
1.90665e-06
1.90445e-06
1.90662e-06
1.90865e-06
1.91078e-06
1.91281e-06
1.91453e-06
1.91584e-06
1.91677e-06
1.91734e-06
1.91755e-06
1.91741e-06
1.91691e-06
1.91605e-06
1.91483e-06
1.91319e-06
1.91115e-06
1.9088e-06
1.90663e-06
1.90877e-06
1.91075e-06
1.91281e-06
1.91478e-06
1.91645e-06
1.91773e-06
1.91863e-06
1.91918e-06
1.9194e-06
1.91926e-06
1.91877e-06
1.91794e-06
1.91674e-06
1.91515e-06
1.91317e-06
1.91089e-06
1.90878e-06
1.91056e-06
1.91252e-06
1.91453e-06
1.91645e-06
1.91808e-06
1.91932e-06
1.92021e-06
1.92075e-06
1.92095e-06
1.92082e-06
1.92035e-06
1.91953e-06
1.91836e-06
1.91682e-06
1.91488e-06
1.91267e-06
1.91058e-06
1.91192e-06
1.91387e-06
1.91584e-06
1.91772e-06
1.91932e-06
1.92055e-06
1.92141e-06
1.92195e-06
1.92215e-06
1.92202e-06
1.92155e-06
1.92075e-06
1.91961e-06
1.91809e-06
1.91618e-06
1.91402e-06
1.91193e-06
1.91289e-06
1.91484e-06
1.91677e-06
1.91863e-06
1.92021e-06
1.92141e-06
1.92227e-06
1.9228e-06
1.923e-06
1.92287e-06
1.92241e-06
1.92162e-06
1.92049e-06
1.91899e-06
1.91711e-06
1.91498e-06
1.9129e-06
1.91348e-06
1.91542e-06
1.91734e-06
1.91918e-06
1.92075e-06
1.92195e-06
1.9228e-06
1.92332e-06
1.92352e-06
1.92339e-06
1.92293e-06
1.92215e-06
1.92103e-06
1.91954e-06
1.91768e-06
1.91557e-06
1.91349e-06
1.9137e-06
1.91564e-06
1.91755e-06
1.9194e-06
1.92095e-06
1.92215e-06
1.923e-06
1.92352e-06
1.92371e-06
1.92359e-06
1.92313e-06
1.92235e-06
1.92123e-06
1.91975e-06
1.91789e-06
1.91579e-06
1.91372e-06
1.91355e-06
1.9155e-06
1.91741e-06
1.91926e-06
1.92082e-06
1.92202e-06
1.92287e-06
1.92339e-06
1.92359e-06
1.92346e-06
1.923e-06
1.92222e-06
1.9211e-06
1.91961e-06
1.91775e-06
1.91564e-06
1.91357e-06
1.91304e-06
1.91498e-06
1.91691e-06
1.91877e-06
1.92035e-06
1.92155e-06
1.92241e-06
1.92293e-06
1.92313e-06
1.923e-06
1.92254e-06
1.92175e-06
1.92062e-06
1.91913e-06
1.91725e-06
1.91513e-06
1.91305e-06
1.91214e-06
1.91409e-06
1.91605e-06
1.91794e-06
1.91953e-06
1.92075e-06
1.92162e-06
1.92215e-06
1.92235e-06
1.92222e-06
1.92175e-06
1.92095e-06
1.91981e-06
1.9183e-06
1.9164e-06
1.91424e-06
1.91215e-06
1.91087e-06
1.91283e-06
1.91483e-06
1.91674e-06
1.91836e-06
1.91961e-06
1.92049e-06
1.92103e-06
1.92123e-06
1.9211e-06
1.92062e-06
1.91981e-06
1.91865e-06
1.91711e-06
1.91518e-06
1.91298e-06
1.91088e-06
1.90916e-06
1.91114e-06
1.91319e-06
1.91516e-06
1.91682e-06
1.91809e-06
1.91899e-06
1.91954e-06
1.91975e-06
1.91961e-06
1.91913e-06
1.9183e-06
1.91711e-06
1.91553e-06
1.91355e-06
1.91129e-06
1.90918e-06
1.907e-06
1.90903e-06
1.91115e-06
1.91317e-06
1.91488e-06
1.91618e-06
1.91711e-06
1.91768e-06
1.91789e-06
1.91775e-06
1.91726e-06
1.9164e-06
1.91518e-06
1.91355e-06
1.91152e-06
1.90918e-06
1.90701e-06
1.90463e-06
1.90665e-06
1.9088e-06
1.9109e-06
1.91267e-06
1.91402e-06
1.91498e-06
1.91557e-06
1.91579e-06
1.91564e-06
1.91513e-06
1.91424e-06
1.91298e-06
1.91129e-06
1.90918e-06
1.90682e-06
1.90464e-06
1.90197e-06
1.90445e-06
1.90663e-06
1.90878e-06
1.91058e-06
1.91193e-06
1.9129e-06
1.91349e-06
1.91372e-06
1.91357e-06
1.91305e-06
1.91215e-06
1.91088e-06
1.90918e-06
1.90701e-06
1.90464e-06
1.90197e-06
1.85378e-06
1.85635e-06
1.8586e-06
1.86086e-06
1.86272e-06
1.86414e-06
1.86516e-06
1.86578e-06
1.86602e-06
1.86586e-06
1.86531e-06
1.86437e-06
1.86303e-06
1.86126e-06
1.85896e-06
1.85653e-06
1.85378e-06
1.85635e-06
1.85849e-06
1.86072e-06
1.86293e-06
1.86479e-06
1.86622e-06
1.86724e-06
1.86786e-06
1.8681e-06
1.86794e-06
1.86739e-06
1.86645e-06
1.86511e-06
1.86333e-06
1.8611e-06
1.85864e-06
1.85635e-06
1.8586e-06
1.86072e-06
1.86297e-06
1.86511e-06
1.86693e-06
1.86832e-06
1.86931e-06
1.86991e-06
1.87014e-06
1.86999e-06
1.86946e-06
1.86854e-06
1.86723e-06
1.8655e-06
1.86333e-06
1.86087e-06
1.85859e-06
1.86086e-06
1.86293e-06
1.86511e-06
1.86719e-06
1.86897e-06
1.87033e-06
1.8713e-06
1.87189e-06
1.87212e-06
1.87197e-06
1.87145e-06
1.87055e-06
1.86927e-06
1.86757e-06
1.86547e-06
1.86306e-06
1.86085e-06
1.86272e-06
1.86479e-06
1.86693e-06
1.86897e-06
1.87071e-06
1.87204e-06
1.87299e-06
1.87358e-06
1.8738e-06
1.87365e-06
1.87314e-06
1.87226e-06
1.871e-06
1.86934e-06
1.86728e-06
1.86493e-06
1.86271e-06
1.86414e-06
1.86622e-06
1.86832e-06
1.87033e-06
1.87204e-06
1.87336e-06
1.8743e-06
1.87487e-06
1.87509e-06
1.87494e-06
1.87444e-06
1.87357e-06
1.87233e-06
1.8707e-06
1.86866e-06
1.86635e-06
1.86414e-06
1.86516e-06
1.86724e-06
1.86931e-06
1.8713e-06
1.87299e-06
1.8743e-06
1.87522e-06
1.87579e-06
1.87601e-06
1.87586e-06
1.87536e-06
1.87451e-06
1.87328e-06
1.87167e-06
1.86965e-06
1.86737e-06
1.86516e-06
1.86578e-06
1.86786e-06
1.86991e-06
1.87189e-06
1.87358e-06
1.87487e-06
1.87579e-06
1.87636e-06
1.87657e-06
1.87643e-06
1.87593e-06
1.87508e-06
1.87386e-06
1.87226e-06
1.87025e-06
1.86799e-06
1.86577e-06
1.86602e-06
1.8681e-06
1.87014e-06
1.87212e-06
1.8738e-06
1.87509e-06
1.87601e-06
1.87657e-06
1.87678e-06
1.87664e-06
1.87615e-06
1.8753e-06
1.87408e-06
1.87248e-06
1.87048e-06
1.86823e-06
1.86601e-06
1.86586e-06
1.86794e-06
1.86999e-06
1.87197e-06
1.87365e-06
1.87494e-06
1.87586e-06
1.87643e-06
1.87664e-06
1.8765e-06
1.876e-06
1.87515e-06
1.87394e-06
1.87233e-06
1.87033e-06
1.86807e-06
1.86585e-06
1.86531e-06
1.86739e-06
1.86946e-06
1.87145e-06
1.87314e-06
1.87444e-06
1.87536e-06
1.87593e-06
1.87615e-06
1.876e-06
1.8755e-06
1.87465e-06
1.87343e-06
1.87181e-06
1.8698e-06
1.86752e-06
1.86531e-06
1.86437e-06
1.86645e-06
1.86854e-06
1.87055e-06
1.87226e-06
1.87357e-06
1.87451e-06
1.87508e-06
1.8753e-06
1.87515e-06
1.87465e-06
1.87378e-06
1.87255e-06
1.87092e-06
1.86888e-06
1.86658e-06
1.86436e-06
1.86303e-06
1.86511e-06
1.86723e-06
1.86927e-06
1.871e-06
1.87233e-06
1.87328e-06
1.87386e-06
1.87408e-06
1.87394e-06
1.87343e-06
1.87255e-06
1.8713e-06
1.86964e-06
1.86758e-06
1.86524e-06
1.86303e-06
1.86126e-06
1.86333e-06
1.8655e-06
1.86757e-06
1.86934e-06
1.8707e-06
1.87167e-06
1.87226e-06
1.87248e-06
1.87233e-06
1.87181e-06
1.87092e-06
1.86964e-06
1.86796e-06
1.86586e-06
1.86347e-06
1.86126e-06
1.85896e-06
1.8611e-06
1.86334e-06
1.86547e-06
1.86728e-06
1.86866e-06
1.86965e-06
1.87025e-06
1.87048e-06
1.87033e-06
1.8698e-06
1.86888e-06
1.86758e-06
1.86586e-06
1.8637e-06
1.86124e-06
1.85896e-06
1.85654e-06
1.85864e-06
1.86087e-06
1.86307e-06
1.86493e-06
1.86635e-06
1.86737e-06
1.86799e-06
1.86823e-06
1.86807e-06
1.86752e-06
1.86658e-06
1.86524e-06
1.86347e-06
1.86124e-06
1.8588e-06
1.85653e-06
1.85378e-06
1.85635e-06
1.85859e-06
1.86085e-06
1.86271e-06
1.86414e-06
1.86516e-06
1.86577e-06
1.86601e-06
1.86585e-06
1.86531e-06
1.86436e-06
1.86303e-06
1.86125e-06
1.85896e-06
1.85653e-06
1.85377e-06
1.80951e-06
1.812e-06
1.81418e-06
1.81643e-06
1.81825e-06
1.81967e-06
1.82068e-06
1.8213e-06
1.82153e-06
1.82137e-06
1.82083e-06
1.81989e-06
1.81856e-06
1.81682e-06
1.81453e-06
1.81218e-06
1.8095e-06
1.812e-06
1.81409e-06
1.81628e-06
1.81847e-06
1.82032e-06
1.82174e-06
1.82276e-06
1.82339e-06
1.82362e-06
1.82346e-06
1.82292e-06
1.82197e-06
1.82063e-06
1.81886e-06
1.81664e-06
1.81424e-06
1.812e-06
1.81418e-06
1.81628e-06
1.8185e-06
1.82064e-06
1.82245e-06
1.82385e-06
1.82485e-06
1.82546e-06
1.82569e-06
1.82553e-06
1.825e-06
1.82407e-06
1.82276e-06
1.82103e-06
1.81886e-06
1.81642e-06
1.81417e-06
1.81643e-06
1.81847e-06
1.82064e-06
1.82272e-06
1.82451e-06
1.82588e-06
1.82687e-06
1.82747e-06
1.8277e-06
1.82754e-06
1.82701e-06
1.8261e-06
1.82481e-06
1.8231e-06
1.82099e-06
1.8186e-06
1.81642e-06
1.81825e-06
1.82031e-06
1.82245e-06
1.82451e-06
1.82627e-06
1.82762e-06
1.82859e-06
1.82918e-06
1.82941e-06
1.82926e-06
1.82873e-06
1.82784e-06
1.82656e-06
1.82488e-06
1.8228e-06
1.82044e-06
1.81824e-06
1.81967e-06
1.82174e-06
1.82385e-06
1.82588e-06
1.82762e-06
1.82896e-06
1.82992e-06
1.83051e-06
1.83073e-06
1.83058e-06
1.83006e-06
1.82918e-06
1.82792e-06
1.82626e-06
1.8242e-06
1.82187e-06
1.81966e-06
1.82068e-06
1.82276e-06
1.82485e-06
1.82687e-06
1.82859e-06
1.82992e-06
1.83087e-06
1.83145e-06
1.83167e-06
1.83152e-06
1.83101e-06
1.83013e-06
1.82888e-06
1.82724e-06
1.82519e-06
1.82289e-06
1.82067e-06
1.8213e-06
1.82339e-06
1.82546e-06
1.82747e-06
1.82918e-06
1.83051e-06
1.83145e-06
1.83203e-06
1.83225e-06
1.8321e-06
1.83159e-06
1.83072e-06
1.82947e-06
1.82783e-06
1.8258e-06
1.82351e-06
1.82129e-06
1.82153e-06
1.82362e-06
1.82569e-06
1.82769e-06
1.82941e-06
1.83073e-06
1.83167e-06
1.83225e-06
1.83246e-06
1.83232e-06
1.83181e-06
1.83094e-06
1.8297e-06
1.82806e-06
1.82603e-06
1.82375e-06
1.82153e-06
1.82137e-06
1.82346e-06
1.82553e-06
1.82754e-06
1.82926e-06
1.83058e-06
1.83152e-06
1.8321e-06
1.83232e-06
1.83217e-06
1.83166e-06
1.83079e-06
1.82955e-06
1.82791e-06
1.82587e-06
1.82359e-06
1.82137e-06
1.82083e-06
1.82292e-06
1.825e-06
1.82701e-06
1.82873e-06
1.83006e-06
1.83101e-06
1.83159e-06
1.83181e-06
1.83166e-06
1.83115e-06
1.83027e-06
1.82903e-06
1.82738e-06
1.82534e-06
1.82304e-06
1.82082e-06
1.81989e-06
1.82197e-06
1.82407e-06
1.8261e-06
1.82784e-06
1.82918e-06
1.83013e-06
1.83072e-06
1.83094e-06
1.83079e-06
1.83027e-06
1.82939e-06
1.82813e-06
1.82647e-06
1.82442e-06
1.8221e-06
1.81988e-06
1.81856e-06
1.82063e-06
1.82276e-06
1.82481e-06
1.82656e-06
1.82792e-06
1.82888e-06
1.82947e-06
1.8297e-06
1.82955e-06
1.82903e-06
1.82813e-06
1.82686e-06
1.82518e-06
1.82311e-06
1.82075e-06
1.81855e-06
1.81682e-06
1.81887e-06
1.82103e-06
1.8231e-06
1.82489e-06
1.82626e-06
1.82724e-06
1.82784e-06
1.82806e-06
1.82791e-06
1.82738e-06
1.82647e-06
1.82519e-06
1.82349e-06
1.82138e-06
1.81899e-06
1.81681e-06
1.81454e-06
1.81664e-06
1.81886e-06
1.82099e-06
1.8228e-06
1.8242e-06
1.82519e-06
1.8258e-06
1.82603e-06
1.82587e-06
1.82534e-06
1.82442e-06
1.82311e-06
1.82138e-06
1.81922e-06
1.81678e-06
1.81453e-06
1.81218e-06
1.81424e-06
1.81642e-06
1.8186e-06
1.82044e-06
1.82187e-06
1.82289e-06
1.82351e-06
1.82375e-06
1.82359e-06
1.82304e-06
1.8221e-06
1.82075e-06
1.819e-06
1.81678e-06
1.81439e-06
1.81217e-06
1.8095e-06
1.812e-06
1.81417e-06
1.81642e-06
1.81824e-06
1.81966e-06
1.82067e-06
1.82129e-06
1.82153e-06
1.82137e-06
1.82082e-06
1.81988e-06
1.81855e-06
1.81681e-06
1.81453e-06
1.81217e-06
1.8095e-06
1.76853e-06
1.77083e-06
1.77285e-06
1.77497e-06
1.77668e-06
1.77803e-06
1.77898e-06
1.77957e-06
1.77979e-06
1.77964e-06
1.77912e-06
1.77824e-06
1.77697e-06
1.77535e-06
1.77318e-06
1.77099e-06
1.76852e-06
1.77083e-06
1.77278e-06
1.77482e-06
1.77689e-06
1.77863e-06
1.77999e-06
1.78097e-06
1.78156e-06
1.78179e-06
1.78164e-06
1.78111e-06
1.78021e-06
1.77893e-06
1.77726e-06
1.77515e-06
1.77292e-06
1.77082e-06
1.77285e-06
1.77482e-06
1.77692e-06
1.77894e-06
1.78067e-06
1.78201e-06
1.78297e-06
1.78355e-06
1.78377e-06
1.78362e-06
1.78311e-06
1.78222e-06
1.78096e-06
1.77931e-06
1.77725e-06
1.77495e-06
1.77285e-06
1.77497e-06
1.77689e-06
1.77894e-06
1.78093e-06
1.78264e-06
1.78396e-06
1.78491e-06
1.78549e-06
1.78571e-06
1.78556e-06
1.78505e-06
1.78417e-06
1.78293e-06
1.78129e-06
1.77928e-06
1.77701e-06
1.77496e-06
1.77668e-06
1.77863e-06
1.78067e-06
1.78264e-06
1.78433e-06
1.78564e-06
1.78658e-06
1.78716e-06
1.78737e-06
1.78723e-06
1.78672e-06
1.78585e-06
1.78462e-06
1.783e-06
1.781e-06
1.77875e-06
1.77667e-06
1.77802e-06
1.77999e-06
1.78201e-06
1.78396e-06
1.78564e-06
1.78694e-06
1.78787e-06
1.78844e-06
1.78866e-06
1.78852e-06
1.78801e-06
1.78715e-06
1.78593e-06
1.78432e-06
1.78234e-06
1.78011e-06
1.77802e-06
1.77898e-06
1.78097e-06
1.78297e-06
1.78491e-06
1.78658e-06
1.78787e-06
1.7888e-06
1.78936e-06
1.78958e-06
1.78944e-06
1.78893e-06
1.78808e-06
1.78686e-06
1.78527e-06
1.78329e-06
1.78109e-06
1.77897e-06
1.77957e-06
1.78156e-06
1.78355e-06
1.78549e-06
1.78716e-06
1.78844e-06
1.78936e-06
1.78993e-06
1.79014e-06
1.79e-06
1.7895e-06
1.78865e-06
1.78744e-06
1.78585e-06
1.78388e-06
1.78168e-06
1.77956e-06
1.77979e-06
1.78179e-06
1.78377e-06
1.78571e-06
1.78737e-06
1.78866e-06
1.78958e-06
1.79014e-06
1.79036e-06
1.79022e-06
1.78972e-06
1.78886e-06
1.78765e-06
1.78607e-06
1.7841e-06
1.78191e-06
1.77978e-06
1.77964e-06
1.78164e-06
1.78362e-06
1.78556e-06
1.78723e-06
1.78852e-06
1.78944e-06
1.79e-06
1.79022e-06
1.79007e-06
1.78957e-06
1.78872e-06
1.78751e-06
1.78592e-06
1.78395e-06
1.78176e-06
1.77963e-06
1.77913e-06
1.78111e-06
1.78311e-06
1.78505e-06
1.78672e-06
1.78801e-06
1.78893e-06
1.7895e-06
1.78972e-06
1.78957e-06
1.78907e-06
1.78822e-06
1.787e-06
1.78541e-06
1.78343e-06
1.78123e-06
1.77912e-06
1.77824e-06
1.78021e-06
1.78222e-06
1.78417e-06
1.78585e-06
1.78715e-06
1.78808e-06
1.78865e-06
1.78886e-06
1.78872e-06
1.78822e-06
1.78736e-06
1.78613e-06
1.78453e-06
1.78255e-06
1.78033e-06
1.77823e-06
1.77697e-06
1.77893e-06
1.78096e-06
1.78293e-06
1.78462e-06
1.78593e-06
1.78686e-06
1.78744e-06
1.78765e-06
1.78751e-06
1.787e-06
1.78613e-06
1.7849e-06
1.78329e-06
1.78129e-06
1.77905e-06
1.77696e-06
1.77535e-06
1.77726e-06
1.77931e-06
1.78129e-06
1.783e-06
1.78432e-06
1.78527e-06
1.78585e-06
1.78607e-06
1.78592e-06
1.78541e-06
1.78453e-06
1.78329e-06
1.78166e-06
1.77965e-06
1.77739e-06
1.77534e-06
1.77318e-06
1.77515e-06
1.77725e-06
1.77928e-06
1.78101e-06
1.78234e-06
1.7833e-06
1.78388e-06
1.7841e-06
1.78395e-06
1.78344e-06
1.78255e-06
1.7813e-06
1.77965e-06
1.77759e-06
1.77529e-06
1.77317e-06
1.77099e-06
1.77292e-06
1.77495e-06
1.77701e-06
1.77875e-06
1.78011e-06
1.78109e-06
1.78168e-06
1.78191e-06
1.78176e-06
1.78123e-06
1.78033e-06
1.77905e-06
1.77739e-06
1.77529e-06
1.77306e-06
1.77099e-06
1.76852e-06
1.77082e-06
1.77285e-06
1.77496e-06
1.77667e-06
1.77802e-06
1.77898e-06
1.77956e-06
1.77978e-06
1.77963e-06
1.77912e-06
1.77823e-06
1.77696e-06
1.77534e-06
1.77317e-06
1.77099e-06
1.76851e-06
1.73042e-06
1.73248e-06
1.73431e-06
1.73625e-06
1.7378e-06
1.73903e-06
1.73991e-06
1.74045e-06
1.74066e-06
1.74052e-06
1.74004e-06
1.73923e-06
1.73806e-06
1.73659e-06
1.73461e-06
1.73263e-06
1.73041e-06
1.73248e-06
1.73425e-06
1.7361e-06
1.73799e-06
1.73959e-06
1.74084e-06
1.74174e-06
1.74229e-06
1.7425e-06
1.74236e-06
1.74187e-06
1.74104e-06
1.73985e-06
1.73834e-06
1.7364e-06
1.73438e-06
1.73248e-06
1.73431e-06
1.7361e-06
1.73801e-06
1.73988e-06
1.74147e-06
1.74271e-06
1.74359e-06
1.74413e-06
1.74434e-06
1.7442e-06
1.74372e-06
1.7429e-06
1.74173e-06
1.74022e-06
1.73832e-06
1.73622e-06
1.7343e-06
1.73625e-06
1.73799e-06
1.73988e-06
1.74171e-06
1.74329e-06
1.74452e-06
1.7454e-06
1.74594e-06
1.74615e-06
1.74601e-06
1.74553e-06
1.74471e-06
1.74355e-06
1.74204e-06
1.74018e-06
1.7381e-06
1.73624e-06
1.7378e-06
1.73958e-06
1.74147e-06
1.74329e-06
1.74486e-06
1.74608e-06
1.74696e-06
1.7475e-06
1.7477e-06
1.74757e-06
1.74709e-06
1.74628e-06
1.74513e-06
1.74362e-06
1.74177e-06
1.7397e-06
1.73779e-06
1.73903e-06
1.74084e-06
1.7427e-06
1.74452e-06
1.74608e-06
1.7473e-06
1.74817e-06
1.74871e-06
1.74891e-06
1.74877e-06
1.7483e-06
1.74749e-06
1.74635e-06
1.74485e-06
1.74301e-06
1.74095e-06
1.73902e-06
1.73991e-06
1.74174e-06
1.74359e-06
1.7454e-06
1.74696e-06
1.74817e-06
1.74904e-06
1.74957e-06
1.74978e-06
1.74964e-06
1.74917e-06
1.74836e-06
1.74722e-06
1.74573e-06
1.74389e-06
1.74185e-06
1.7399e-06
1.74045e-06
1.74229e-06
1.74413e-06
1.74594e-06
1.7475e-06
1.74871e-06
1.74957e-06
1.75011e-06
1.75031e-06
1.75017e-06
1.7497e-06
1.7489e-06
1.74776e-06
1.74627e-06
1.74444e-06
1.7424e-06
1.74044e-06
1.74066e-06
1.7425e-06
1.74434e-06
1.74615e-06
1.7477e-06
1.74891e-06
1.74978e-06
1.75031e-06
1.75051e-06
1.75038e-06
1.7499e-06
1.7491e-06
1.74796e-06
1.74648e-06
1.74464e-06
1.74261e-06
1.74065e-06
1.74052e-06