/*--------------------------------*- C++ -*----------------------------------*\
  =========                 |
  \\      /  F ield         | OpenFOAM: The Open Source CFD Toolbox
   \\    /   O peration     | Website:  https://openfoam.org
    \\  /    A nd           | Version:  6
     \\/     M anipulation  |
\*---------------------------------------------------------------------------*/
FoamFile
{
    version     2.0;
    format      ascii;
    class       volScalarField;
    location    "0";
    object      p;
}
// * * * * * * * * * * * * * * * * * * * * * * * * * * * * * * * * * * * * * //

dimensions      [0 2 -2 0 0 0 0];

internalField   nonuniform List<scalar> 
13046
(
1.82469
1.69549
2.01621
1.78301
1.98219
1.78701
1.75072
1.78319
2.01227
1.41573
1.34989
2.24897
1.7653
1.67514
2.06011
1.57879
2.22912
1.33499
1.93209
1.88614
1.74724
1.54393
2.23441
1.34627
1.82717
1.76392
1.96704
1.76815
1.6484
2.07365
1.84767
1.66255
2.01512
1.84495
1.94551
1.7759
1.83267
1.93635
1.80423
1.93565
1.9819
1.59304
1.8313
1.89021
1.85582
1.80792
1.90057
1.86537
1.79394
1.70634
2.02624
1.94553
2.0203
1.48985
1.93556
1.46741
2.04245
1.3769
1.81438
2.14276
1.59778
1.72106
2.11967
2.20327
1.49511
1.55769
1.85386
1.37214
2.12212
1.86904
1.38865
2.10868
1.35074
1.80237
2.15455
1.93284
1.91184
1.71563
2.18326
1.73518
1.35977
1.80327
1.76564
1.98186
2.21387
1.4667
1.52957
1.44855
2.20256
1.60407
2.20241
1.31842
1.69086
1.69054
1.65298
1.58433
1.58048
2.13749
2.15593
2.19969
1.43404
1.64178
1.79355
1.92741
1.84969
2.04138
1.54284
1.89469
1.98802
1.9566
1.53882
1.2245
2.27222
1.18022
1.77973
1.69847
2.03805
1.6991
1.71187
1.50918
2.15886
1.54534
2.14207
1.38571
1.30353
2.25922
1.73906
1.60024
2.11344
1.91483
1.9999
1.59385
2.18601
1.34107
1.72453
1.58373
1.58382
2.17752
1.83799
1.64253
2.03236
1.65484
1.80279
2.05161
2.00678
1.94026
1.52815
2.03061
1.57574
1.89285
1.59852
1.68959
2.13269
2.01682
1.6567
1.85745
1.87744
1.46373
1.84846
1.46262
2.08484
2.10416
1.61285
1.82773
2.05156
1.37944
2.25121
1.39923
1.30008
2.26485
1.22597
1.58389
1.55095
2.1875
1.92629
1.51089
2.03144
1.61646
2.03442
1.84989
2.24612
1.46572
1.36882
1.93188
1.53844
2.01076
2.0214
1.62759
1.86559
1.67579
1.80852
2.03411
1.67576
2.08667
1.74669
1.6299
2.09421
1.46841
2.21512
1.52871
2.1866
1.39881
1.69693
1.35757
1.64088
2.20628
1.96723
1.41727
2.02594
1.71856
1.75908
2.18205
1.34148
1.59227
1.35044
2.22664
1.80061
1.9466
1.8221
1.79885
1.63761
2.0643
2.18606
1.37105
1.72437
1.70585
1.70111
2.08462
2.26913
1.33782
1.27992
2.04083
1.41636
1.94925
1.39057
1.66111
2.19642
1.53243
1.83693
2.08185
1.75352
1.57816
2.11464
1.80837
1.36068
2.1482
1.42973
1.84383
2.11404
2.26619
1.34335
1.22609
1.97435
1.98691
1.51798
1.27845
2.26613
1.07875
1.94353
1.75762
1.86215
1.57557
1.56717
1.79552
1.82494
2.07814
2.08562
2.18884
1.71154
1.34314
1.78813
1.58058
2.09417
1.42036
1.81198
2.13623
1.64076
1.54375
2.16866
1.85422
1.83168
1.8916
1.50022
1.82361
2.1032
1.80255
1.54885
2.09937
1.72533
1.70976
1.98397
1.98893
1.49066
1.49894
1.79376
2.11767
1.60593
2.18147
1.53963
1.98808
1.94792
1.56344
2.08812
1.4316
1.88738
1.76353
1.48601
2.13411
2.01051
1.96423
1.47857
1.7448
1.71402
1.46816
2.1487
1.47439
2.1636
2.23813
1.47624
1.41092
1.73605
1.54944
2.13096
0.97792
2.28461
1.03393
1.69345
1.97928
1.866
1.62882
1.72799
2.10294
2.20565
1.5047
1.54871
1.93703
1.43703
2.04992
1.77542
1.36436
2.16327
1.73548
2.05649
1.65652
1.66955
2.1178
1.74977
2.05508
1.61413
2.21374
1.36209
1.98666
1.38997
2.02422
1.63748
1.65816
2.13129
1.62595
1.80875
2.06296
1.5293
1.9113
2.03294
1.79812
1.73486
2.00918
2.06976
1.43181
1.90936
1.42246
1.57227
2.21142
1.7639
1.38249
2.1655
1.90325
2.07802
1.40671
1.74151
1.75833
1.42538
1.40456
2.16439
2.15217
2.27436
1.03068
1.12276
1.33216
2.26564
1.12594
1.55985
1.78249
2.09928
2.22122
1.46206
1.49065
1.82976
1.80762
1.44243
1.44151
2.1164
2.12908
2.23026
1.56944
1.26956
1.25422
2.27665
0.984854
1.76763
1.89822
1.90361
1.21921
1.09597
2.26973
1.89583
1.52135
2.04866
1.36937
1.50052
2.24463
0.993446
2.26856
0.877277
1.94045
1.96105
1.62009
1.73811
1.85345
1.96563
1.40856
2.26195
1.27905
1.71153
1.85309
1.98031
1.79203
1.8902
1.89308
2.0631
1.3873
1.94479
1.69169
1.91284
1.94452
1.69242
1.88517
1.96495
1.92455
1.4108
2.06205
2.24608
2.2485
1.36931
1.38362
1.49153
1.46
1.38219
1.56392
2.22068
2.09521
1.89867
1.37685
1.95029
1.99173
1.54232
1.39826
1.86237
2.10875
1.25351
2.27259
1.01371
2.21293
1.31962
1.65601
1.32218
2.2657
1.27935
2.25889
0.89007
0.803869
0.80865
2.25932
0.887498
1.73583
1.51926
2.13795
1.47677
2.25051
1.17695
1.54513
1.59964
2.18351
1.56122
2.23862
1.23933
1.75199
2.03956
1.7359
1.59907
2.22575
1.29345
1.40258
2.09641
1.87896
1.78689
1.43412
2.14364
2.23684
0.423141
0.422674
1.04317
2.28326
0.99834
1.77049
2.02217
1.74968
1.5348
1.2852
2.23668
2.24274
1.22361
1.5575
1.48517
2.22156
1.46882
2.19878
1.38326
1.66492
1.9496
1.38668
2.05952
1.41186
1.79137
2.14742
2.21327
1.66255
1.30389
1.84666
1.83423
1.56366
1.54223
2.06361
2.08248
1.87477
1.55472
2.04936
1.85511
1.41621
2.11498
1.77021
1.41205
2.15452
1.56142
1.36018
2.23396
2.16992
1.43169
1.71698
0.867791
2.26555
0.980143
1.89977
1.87632
1.99175
1.63743
1.99649
1.66206
1.88377
1.894
2.06649
1.45118
2.08512
1.47369
1.08135
2.27443
0.862729
1.54465
1.31597
2.23446
1.97013
1.99956
1.47815
1.82643
1.38065
2.13542
2.19012
1.38591
1.69081
1.21118
1.15018
2.27112
1.27884
1.18039
2.27079
1.78984
1.47329
2.13231
1.99327
1.92752
1.58831
1.4692
2.23255
1.4286
1.73701
1.48351
2.15337
2.19873
1.4954
1.59756
1.91345
2.0569
1.46722
1.5329
1.86345
2.06388
1.95459
1.97758
1.56848
2.24099
1.43878
1.42293
1.6636
1.50808
2.17205
1.92455
1.96474
1.64314
1.63372
2.22519
1.27386
1.8469
1.61672
2.04016
1.68046
1.8257
2.02424
1.78574
1.46825
2.1309
1.43975
2.2602
1.16302
1.48688
2.25616
1.17539
2.1999
1.46434
1.61573
1.49668
1.88638
2.06491
2.26733
1.10288
1.38915
2.19439
1.58046
1.51631
2.26162
0.81433
0.637184
0.814919
0.635931
2.2628
2.21354
1.33973
1.65081
2.25749
1.39223
1.32839
1.54311
1.55814
2.22385
1.38505
2.21525
1.4233
1.48759
1.61297
2.19287
2.12824
1.85533
1.36542
1.86046
1.98103
1.70704
1.47079
1.6734
2.17968
2.17144
1.46651
1.70151
1.69953
2.20151
1.30254
1.8837
1.42492
2.09359
1.88608
1.50221
2.06045
1.55588
1.68885
2.15168
1.52818
1.69792
2.15563
1.92563
1.94347
1.6744
1.84013
1.514
2.09148
2.22565
1.63708
1.27408
1.12841
2.27177
1.33413
1.07734
2.26396
1.32802
1.90915
2.01795
1.56834
1.1606
2.27084
1.05378
1.65081
2.18652
1.47042
2.27506
1.17369
0.990321
1.77927
1.96717
1.81427
1.71654
1.65818
2.10006
1.90614
1.49856
2.05009
2.24608
1.50687
1.21736
1.75261
1.46976
2.14995
2.22952
1.59246
1.27882
1.68451
1.64552
2.1215
1.85907
1.96978
1.72823
1.47766
1.26456
2.25296
2.20524
1.53014
1.54276
1.38703
1.34413
2.25555
2.26347
1.23175
1.19248
1.60895
1.78208
2.08597
1.75336
1.53544
2.12055
1.7202
1.79577
2.02117
1.3949
1.176
1.41768
2.26666
1.16125
2.26243
1.63335
1.61144
2.15601
1.27136
1.22759
1.43474
1.3999
2.25356
2.25661
1.52494
1.77687
2.12288
1.67417
1.71926
2.08641
1.51751
2.24984
1.23243
1.63378
1.75028
2.09043
1.70698
1.7767
2.03726
1.43608
2.2591
1.20793
1.7056
1.60814
2.12057
1.9039
1.37729
2.09231
1.93088
1.43852
2.05304
1.75853
2.17868
1.33106
2.25257
0.573778
0.574364
1.65505
1.70539
2.10261
1.52149
2.23559
1.30813
2.02313
1.38693
1.98713
1.07297
2.27284
0.846346
2.0002
2.00469
1.8944
1.62339
1.90753
1.59597
1.71068
1.82275
2.00698
1.96314
1.97404
1.93777
1.62019
1.92124
1.63044
1.67403
1.74291
2.07777
1.65983
1.76083
2.07836
2.2677
1.38715
1.08994
1.88738
1.57688
2.02907
1.32229
1.43199
2.25318
1.56508
1.54502
1.65449
1.63352
2.15715
2.16909
1.87039
1.61082
2.02671
1.83623
1.47287
2.10339
1.61102
1.66593
2.14228
1.87416
1.764
1.9276
1.5058
1.66905
2.17249
1.88168
1.97104
1.69266
1.56135
1.7471
2.12509
1.81762
1.50589
2.10361
1.87729
1.89884
1.7368
1.94723
1.72099
1.93941
1.94161
1.92101
1.96582
1.67944
1.91971
1.65306
1.83397
1.80917
1.59315
1.60247
2.06018
2.07139
2.1966
1.41126
1.65397
2.07529
1.40116
1.91889
2.21267
2.21255
1.39817
1.42918
1.61931
1.59479
2.01047
1.9794
1.44623
1.85736
1.90557
1.81318
1.51426
1.63721
2.1797
1.89868
2.0041
1.61393
1.79897
1.50671
2.11445
1.71184
1.70031
1.41416
2.18086
1.4436
2.17634
1.60394
1.61247
2.16001
1.15409
0.955537
2.27241
2.00532
1.40496
1.99795
1.96642
1.96296
2.03632
1.4024
2.03351
1.42502
1.43775
1.74177
2.16096
1.85407
1.47737
2.09255
1.99201
1.99617
1.44703
1.94868
1.93257
2.01905
2.03675
1.47699
1.48375
1.94776
2.03737
1.44381
1.59268
1.6416
2.15568
1.9011
1.95239
1.69682
1.45209
2.24845
1.29831
1.98871
2.00896
1.426
1.78808
1.75852
1.52963
1.51935
2.11085
2.133
2.24105
1.32284
1.49027
1.50734
2.24942
1.26285
1.46851
2.24989
1.25643
1.66888
2.18797
1.4413
1.85619
1.50498
2.08145
1.77728
1.96627
2.10105
1.80258
2.05061
1.20815
1.99284
1.81297
1.86848
2.05001
2.04493
1.82731
1.83517
2.03786
1.87572
1.89932
1.80236
1.90898
1.95718
2.00516
1.92441
1.91714
2.07443
2.23744
2.13558
1.97051
2.05153
1.8537
1.95273
1.78318
1.86062
1.99257
1.92738
1.85797
1.88018
1.90593
2.12919
2.069
1.85863
1.92576
1.90445
2.24318
1.88991
2.04408
2.019
1.86152
1.85411
1.87819
1.84617
1.88404
2.14808
1.9018
1.89097
1.86203
1.86067
2.1488
2.00415
1.92859
1.88022
2.02935
1.87967
1.89794
2.14167
1.83185
1.90296
2.01318
1.94396
2.11763
2.06504
2.00717
1.76642
1.82282
1.94942
2.00295
1.81273
1.86198
1.97766
1.87204
2.02699
2.10665
1.91677
1.87962
1.8528
1.89764
1.74693
2.03233
1.74725
1.8226
1.8504
2.11414
1.91059
2.02491
2.11896
1.86571
1.86318
1.06298
1.87809
1.87808
1.8585
1.77228
1.97313
2.08138
2.01856
2.09595
1.89665
1.76571
1.86282
1.9165
1.8819
2.13047
2.10199
1.97235
1.90026
1.82911
1.93137
2.01637
1.83052
1.82586
1.7312
1.90492
1.88773
2.07463
2.0769
2.02606
1.96443
1.95068
1.82844
2.16009
1.65365
2.00145
1.75228
2.1058
1.86317
1.50433
1.74031
2.10601
1.83923
1.67919
1.90538
2.01017
1.8701
2.03767
1.97479
1.92683
2.03873
1.87416
1.90061
2.12161
1.90915
1.8655
1.83494
1.98328
1.86176
2.09442
2.03081
1.85886
2.01945
2.03948
2.10858
1.97687
1.94499
1.92485
2.03232
1.64917
1.88434
1.86278
2.26338
1.90293
2.0636
2.18862
1.93595
2.16557
2.09736
2.12069
1.87581
1.74071
1.82672
2.10275
1.89273
1.86276
1.60987
1.8605
1.9031
1.87862
1.93671
2.18485
2.02184
1.90237
2.01731
1.88228
2.25167
1.47717
2.02861
1.91296
1.70578
2.18037
2.22394
1.9106
1.88048
2.25956
1.95746
1.76938
1.88461
2.0292
2.12171
1.98471
1.91753
1.8831
2.03601
1.98082
1.86511
1.76706
1.60534
1.86776
1.95141
1.88669
1.73912
1.79486
2.10223
1.73266
1.73761
1.84813
1.90296
1.91308
1.9729
1.9806
1.88063
1.87024
1.71847
2.01396
1.93448
1.77139
1.97865
1.85669
1.89129
1.94788
1.91085
1.7086
1.89471
2.11578
1.91761
2.05569
2.0971
2.2621
1.87636
1.64747
1.88531
1.82469
1.90292
1.74289
1.97146
2.14118
2.01632
1.92892
1.92106
1.80587
1.95283
1.8978
2.00927
1.91665
1.90939
1.8907
1.58243
1.90202
1.93012
1.90543
1.85552
1.99367
1.96921
1.77024
1.99667
1.86164
1.88871
1.87384
1.84689
1.81175
1.88323
1.94148
1.80165
1.65369
1.94019
1.82454
1.77445
1.93164
1.53195
1.77721
2.09173
1.97258
1.90882
1.8917
1.86658
2.00217
1.74909
1.57137
1.8774
2.03638
1.83343
2.03163
1.22986
1.85268
2.08693
1.89035
1.74699
1.5963
1.79653
1.7551
1.81578
1.86722
2.02854
1.88129
1.7266
1.86756
1.91705
2.26246
1.73154
2.0473
1.99438
1.52194
1.93307
1.90692
1.84699
1.97308
1.88053
2.17456
1.98352
1.86911
1.90231
1.90188
2.23573
1.98884
2.13987
2.03758
1.92192
1.91324
1.87566
1.86381
1.78219
1.87951
1.81113
2.01023
1.87433
1.82334
1.87599
1.87324
1.88729
1.7976
2.08124
1.91487
1.92817
2.08114
2.04726
1.90293
1.86563
2.12317
1.63055
1.51063
1.91442
1.88792
1.86
2.08924
1.86842
1.95872
2.05349
1.77294
1.96545
1.91102
1.91898
1.90647
1.89728
1.11745
1.90395
1.8143
1.66378
1.8687
1.83297
2.02629
2.15823
1.84872
1.95196
1.8446
1.67546
1.70739
2.06699
1.98459
1.6922
1.82015
1.99284
1.83114
1.78963
1.87663
1.90559
1.87943
2.11676
1.91798
2.00284
2.14962
2.07757
2.03623
2.12496
1.80293
1.93307
1.85527
2.2441
2.04097
2.06786
1.87388
1.83679
1.7063
2.01127
1.92279
1.72026
2.0656
1.99211
1.66623
1.8946
1.9052
1.8817
1.91386
1.89818
1.82934
1.85969
1.93866
1.80542
1.93891
1.88984
1.97548
1.75905
1.7433
2.13415
2.1667
2.03535
1.88294
1.96813
1.48872
2.03544
1.88866
1.81339
2.12309
1.37814
2.17451
1.78489
1.88638
1.96433
2.02677
2.01236
1.87353
2.22386
1.86589
2.07674
1.86999
1.91616
1.93349
1.79377
1.9014
2.07378
1.96554
2.24099
2.00911
1.79361
1.75849
1.98148
1.43536
1.88254
1.89359
1.87623
2.16033
1.65082
1.63421
2.05094
1.87948
2.17807
2.23279
1.81544
2.23173
2.13338
2.10038
2.0735
1.94004
1.85768
1.87692
1.9003
2.07217
1.9481
1.38246
2.21827
1.87376
1.79809
1.87591
2.14139
2.25672
1.85631
2.07929
1.99699
2.15984
1.88409
2.03663
1.755
2.19227
2.23354
2.00538
1.88635
2.03158
1.89777
1.80592
1.95629
1.96333
1.99771
1.78463
1.40841
1.86667
1.96394
2.00416
1.98464
2.09109
1.86733
1.91708
2.00782
1.86678
2.15234
1.80426
1.77876
2.04628
2.09403
1.99154
2.23257
1.8537
1.80029
2.03715
1.93927
1.7759
1.88402
1.9055
1.98109
2.00513
1.9112
1.91091
1.98405
1.78514
1.86994
2.12996
2.1209
2.2282
1.79393
2.15637
2.25772
2.16765
1.68755
1.9732
1.98581
2.21747
1.87531
1.82304
1.82938
1.89287
1.34781
2.18602
1.83953
1.89749
2.04789
2.01007
1.90084
1.77043
2.25692
2.1312
2.13478
2.01825
1.69427
1.99464
1.99518
1.87381
1.96869
1.83611
1.86818
1.98147
1.89427
1.93588
2.09074
2.17168
1.71165
2.10127
1.9125
1.90982
1.94389
2.09436
1.92327
2.01848
1.83845
2.12228
1.87513
1.83808
2.20718
1.70114
1.79429
1.86492
1.8772
1.65559
0.937592
1.8959
1.63528
1.90663
1.70046
1.83761
1.90812
1.66435
1.89431
1.9396
1.82363
1.05338
2.12508
1.9568
1.79251
1.83705
1.9396
1.71721
1.83174
2.23862
1.89303
2.21882
1.95306
2.11589
1.77094
1.56455
1.83561
1.98338
1.98521
1.90017
1.58548
1.86
1.84626
1.89349
1.84318
1.75342
1.83191
2.18798
1.7951
2.01688
2.04779
1.87672
1.85523
2.05032
1.83514
0.968994
1.89584
1.78283
1.66225
2.0209
2.0381
1.82917
1.99446
1.91673
2.21003
2.13035
1.86664
1.90774
2.22528
2.11407
1.97015
1.98999
1.8664
2.21202
1.93501
1.68917
2.145
2.05718
2.16939
1.9777
1.87387
1.94384
2.0394
1.99331
0.763333
2.24778
1.90335
1.89679
1.92598
1.97006
2.14019
2.24746
2.00327
1.95515
2.05508
2.1008
2.01679
2.00851
2.07365
1.58238
1.90426
1.99175
1.8577
1.57612
1.75608
1.90132
2.06348
1.79367
1.97548
1.84012
1.8949
2.24242
1.83529
1.8453
1.74022
1.83181
1.87659
1.90071
1.72819
2.02091
1.95989
1.94693
1.81591
1.9627
1.88683
1.91693
2.0293
2.04384
2.02811
2.24645
1.89762
2.08506
1.69599
2.13172
2.11381
2.17193
2.05194
1.88285
1.87562
1.80567
1.6973
1.92479
1.75553
1.93601
1.823
2.0299
1.87307
1.71343
2.08821
1.95188
1.93602
1.91446
2.01806
2.0646
1.93619
1.95307
1.7055
2.06899
1.77696
2.08372
1.65025
1.87101
2.15168
2.02624
2.22606
2.01888
1.86805
1.61923
1.73288
1.91342
1.7473
2.17497
1.73249
1.80083
1.9457
1.86696
1.93294
1.64734
2.00254
2.02467
1.97558
1.40186
1.95892
1.72861
1.83272
1.91424
1.94702
1.76296
1.80753
2.0622
1.90127
2.13071
1.78968
1.7574
2.00337
1.97066
2.11512
1.7733
1.78446
1.8983
1.95488
1.7264
2.17671
1.89055
1.96067
1.85834
2.06147
1.65933
1.97612
1.82235
2.24888
1.68127
1.87614
1.6898
2.05285
1.73544
1.71454
1.88744
1.81494
2.13541
1.96668
2.02041
2.11438
2.01073
1.71236
2.24799
1.83381
1.99081
1.99769
1.96736
1.75798
1.98712
1.82862
1.86981
1.96361
1.67601
1.78696
1.90652
1.72424
1.87416
2.05281
1.91422
1.85735
1.88435
2.08644
1.95603
1.87676
2.00758
1.82188
1.8956
1.85427
1.98223
1.97356
1.99695
2.13056
1.96115
2.0791
1.93113
2.08466
2.16648
2.19894
1.72464
1.95811
1.99765
1.83929
2.16572
2.09891
2.06656
1.85688
1.89823
1.77348
1.99878
2.0151
1.83803
2.06224
2.07385
1.96265
1.89676
1.85146
1.90955
1.78726
1.8691
1.86883
1.94834
1.71649
1.95424
1.90387
1.84782
1.66168
1.98467
1.91377
2.0254
1.90739
1.93864
2.15866
2.14207
1.93232
1.94785
2.07225
1.88901
1.89497
1.87139
1.87877
1.80372
2.11052
1.96205
1.92665
2.04034
2.01362
1.94889
1.65563
2.16988
1.98994
1.87254
1.94738
1.87763
2.06494
2.1742
1.98601
1.98674
1.75943
1.86229
1.81993
1.95994
1.94881
1.93853
1.87601
2.14465
2.00257
1.89762
2.10506
1.96541
1.89446
1.96747
2.1951
1.72797
1.73014
1.96299
2.17656
1.89579
1.88078
2.06432
2.008
2.07575
1.85937
1.75916
1.9588
1.8239
1.89809
2.09721
1.83563
1.85555
1.88644
1.89135
1.99461
1.93844
1.89423
2.0789
1.87467
2.24103
2.07518
1.83087
1.61733
1.97003
2.03065
2.11442
1.87301
1.808
1.74081
1.78705
1.96098
2.24619
2.11576
2.01053
1.89889
1.79127
1.99847
2.21184
2.12561
2.08207
2.08718
1.97198
1.82276
1.69378
1.74372
2.10526
1.89282
1.59776
1.93484
2.19854
1.8774
1.9
1.8124
1.86625
1.86523
2.02949
1.96594
2.03161
2.1496
2.07244
1.78047
2.00633
1.97607
1.97515
1.7236
1.98794
1.90149
2.18855
1.59043
1.88426
1.54301
1.91803
2.16151
1.85189
2.10085
2.07671
2.1188
1.85091
1.97468
1.83883
1.78254
2.17841
1.97558
1.95707
1.95953
1.27463
1.93841
2.00656
1.99717
2.16104
1.71036
1.87505
1.83863
2.18717
1.64548
1.95727
1.8574
1.65035
1.87217
1.99833
1.87594
1.81808
1.82677
2.01961
2.23232
1.30392
1.97732
1.87549
1.86274
1.88392
1.94907
1.76445
1.99714
1.9278
1.8849
1.93035
1.90847
1.92522
2.08839
1.95435
1.8686
1.94262
1.71025
1.77784
1.90996
1.74492
1.97031
1.86571
1.92582
2.06099
2.00309
1.88028
1.57491
2.0381
1.87447
1.96412
2.20198
1.99097
1.88182
1.65752
1.5966
2.2129
1.91421
1.93214
1.97161
1.7978
2.04718
1.582
2.07184
1.97432
2.04772
1.86129
1.97513
1.91134
1.83721
1.87995
1.97526
2.12807
1.62247
1.89618
1.72602
2.14328
2.12136
1.7307
1.89575
1.99096
1.98733
1.95741
2.13592
2.12287
2.07267
2.0445
1.92917
1.91579
1.83709
2.18003
1.95894
1.98035
1.73513
1.87927
1.93786
1.87299
2.21477
1.6199
2.08693
1.95604
2.20222
1.87691
2.21059
2.05085
1.93736
2.20587
2.16707
2.19562
1.86471
2.1227
1.96557
1.82274
1.9192
1.86917
2.15691
1.60766
1.9366
1.98486
1.8967
2.00588
1.87703
2.04264
1.89443
2.04172
1.66409
1.90983
1.83312
1.9981
1.73471
2.00512
1.89351
1.85656
1.85558
1.93129
1.8716
2.06383
2.18468
1.7855
1.91955
1.85913
1.88198
2.10032
1.77136
1.87163
2.14712
1.73535
1.97243
2.02265
2.20002
2.25167
1.89466
1.91961
1.80337
1.94627
1.79997
1.8639
1.96059
1.88566
1.82902
1.86265
1.97517
1.93543
1.81485
1.72142
1.96474
1.83721
2.06968
2.0514
1.85751
2.05052
1.54577
1.8039
1.71814
1.69928
2.21925
1.88887
1.87119
1.87776
2.05235
2.17346
1.93286
2.04061
1.82027
1.87202
1.97818
1.87381
1.88242
2.16996
1.99415
1.90267
2.17388
2.07115
1.90946
2.20034
1.80832
1.92274
1.92395
1.98974
1.74806
2.05185
1.87728
1.95044
1.93605
1.93603
1.89691
1.92403
2.04581
2.09995
2.14761
1.98216
1.98171
2.0888
1.99205
1.82805
1.94839
1.84714
1.75919
2.10428
1.79565
2.10531
1.77497
2.11029
2.12958
2.18868
1.78996
1.96257
2.10988
1.458
2.07727
1.69373
2.1949
2.08068
1.78275
1.85161
1.96718
1.78946
1.67592
1.82246
1.92381
1.86173
2.17332
1.88311
1.92046
1.77306
1.86302
1.86843
2.08008
2.19204
1.88118
1.9769
1.93331
1.95583
1.95793
1.98048
2.16713
2.09131
1.80651
2.14832
2.09546
2.2296
1.87577
1.70564
1.83513
2.04708
2.15641
2.10735
1.93618
2.22507
1.9696
1.80635
1.84879
1.61548
1.94282
1.85693
2.1996
2.24992
1.98348
2.15064
2.09105
1.91082
2.21614
1.85096
2.03731
1.7926
2.18477
1.93744
1.8807
2.04407
1.96692
2.19668
2.14956
2.16692
1.88551
1.87987
1.76868
2.05738
2.08539
1.7135
1.95438
2.0867
1.69422
1.89091
1.89479
1.74836
1.97524
1.7366
1.93752
1.8905
1.94915
1.96288
2.04554
1.91641
1.95273
1.97809
1.94358
1.9076
2.14101
2.15109
1.71936
2.08279
1.66345
1.90458
2.12338
2.05793
1.7821
2.1809
1.86877
2.05368
1.95442
1.915
2.14452
1.93594
2.05829
2.0227
2.02278
2.25316
2.02914
1.80752
2.03385
1.90346
2.06459
2.24097
2.0232
1.97241
1.89306
1.91017
2.14534
1.83196
1.98661
1.86664
1.98134
2.06175
2.05372
1.88612
2.08983
2.23399
1.94674
1.92217
1.9616
1.88752
1.83313
1.94763
2.02594
1.86523
1.81912
1.7306
1.82932
2.04085
1.97325
2.07771
1.91457
2.13681
1.94379
2.08411
2.10901
1.88106
2.16905
1.923
1.94709
1.95152
2.05558
1.86957
1.95284
1.95606
1.89269
1.92745
1.89542
1.86183
1.66762
2.2058
2.18302
1.87086
1.89929
2.07027
1.79596
1.77332
1.88479
2.03406
2.04908
1.74847
1.68379
2.1431
1.87305
1.99851
1.88167
1.79289
1.85265
1.8239
2.10099
2.00871
1.7913
2.14144
2.10863
1.89745
1.97504
1.87626
2.12747
1.88648
1.96244
1.84232
2.00783
2.11439
1.98346
1.76926
1.91788
1.96336
2.00528
2.22912
2.13758
1.86348
2.24129
1.92312
1.95669
1.9423
1.8631
1.92635
2.07547
1.72918
1.98719
1.88793
1.63055
1.81251
1.88344
2.02696
2.16892
1.90384
1.92307
1.95341
1.92838
1.69508
1.7173
1.93694
1.99809
1.40884
1.6992
2.01371
1.93112
1.95154
2.02036
2.0657
1.65723
1.62442
2.1062
1.93056
1.70239
1.97415
2.04879
1.99514
1.93823
1.85134
1.87815
1.85713
2.22615
2.11175
2.22613
1.94922
2.02429
1.85274
1.94203
2.11324
1.81016
1.80691
2.055
2.10349
1.76984
1.92514
1.80393
1.64084
1.81354
2.14022
1.95273
1.92132
1.75308
1.87812
2.04233
1.81649
1.83319
1.9018
2.05346
1.96482
2.23254
1.82526
1.88771
2.00572
2.01096
1.85281
1.96879
1.86913
2.24471
1.95092
2.00926
2.07001
1.89668
2.08657
1.98048
1.9529
2.19725
1.79179
1.93311
2.2318
1.99712
1.77356
1.70807
2.00505
2.2351
1.93429
2.05867
1.84172
1.82117
1.87511
1.76972
2.10402
1.91935
1.89945
2.14834
1.87127
1.66296
1.91459
1.98599
1.88877
1.74824
1.89527
1.84952
1.96257
2.08281
2.20044
2.02133
1.88315
1.92127
1.7374
1.89256
2.01715
1.95777
1.96757
2.03021
1.92204
1.87996
2.06595
2.11507
2.24668
2.12969
2.20113
1.9701
1.85098
1.90794
1.87711
2.22985
1.97112
1.9291
2.19942
1.84591
2.08101
2.03431
1.92218
1.84857
1.93276
1.87887
2.12241
1.85515
2.03583
1.94299
2.19063
1.9662
2.26904
1.89615
1.94348
1.7434
1.65476
1.94158
2.04704
1.67872
1.2257
1.92454
2.02171
2.06828
1.87924
1.85603
1.88928
1.84043
1.85911
1.8383
1.82154
1.8839
2.05898
1.86667
1.89961
1.93081
1.95728
1.79542
2.08506
1.81287
1.90487
1.87494
2.00981
1.77083
1.88974
1.95963
1.86343
1.81565
1.90541
1.65574
2.05394
2.21463
2.12855
1.94606
2.03494
1.77594
2.23192
1.99975
1.99622
1.81275
2.04654
1.70993
1.93423
2.09473
2.10408
2.04917
1.95554
1.83659
2.25038
1.92677
2.04552
2.2154
2.02547
1.94439
1.77684
2.06067
1.95167
1.86465
2.01264
1.98136
2.16642
1.91792
2.14249
2.24836
1.87102
1.89266
2.22061
1.85803
1.87714
1.94416
1.89683
1.9361
1.8748
1.83758
1.93826
1.88169
1.87583
1.88678
1.94584
1.67345
1.90193
2.01408
1.90107
1.77455
2.19153
2.09884
2.14417
1.88469
1.78026
2.26428
1.83531
1.94898
1.77693
1.82716
1.78731
2.05341
1.8888
1.84434
1.82481
1.80564
1.85488
1.87667
1.74193
1.89207
1.9318
1.87203
2.19782
1.96206
2.01828
1.94885
2.09421
1.73466
1.87507
2.09341
1.9414
1.93443
1.85155
2.01974
2.16573
1.76435
2.00502
1.95374
1.67949
1.86285
1.87094
1.86753
2.06552
1.88233
1.9476
1.84918
1.87904
1.88542
1.87032
1.95545
1.76727
1.88317
2.05601
1.93761
1.95554
1.9241
2.11005
1.89045
1.81117
2.04425
1.84933
1.91108
1.82672
1.93101
1.75419
1.7008
1.9004
2.23307
2.12101
1.81761
1.88245
1.79278
1.78166
1.78109
1.8747
1.93114
1.89638
1.93919
1.99127
2.18451
1.91457
2.033
1.97965
2.22792
1.87811
2.19582
1.97776
1.83779
2.00621
2.03631
1.73141
2.04915
1.82224
2.14752
1.88854
1.33871
1.8667
2.19395
2.12469
2.03565
2.00954
2.03524
1.79585
1.69544
2.01684
2.26887
1.36723
1.97151
1.81143
1.73038
1.89486
1.88468
1.86479
1.92077
1.87931
1.91081
1.7668
1.94491
2.25877
2.08161
1.7679
2.06671
1.89013
1.86981
2.077
1.87599
1.9054
2.02164
1.43374
1.91574
1.92923
2.10791
1.87867
1.90608
1.87888
1.98481
1.86372
2.14713
1.77816
1.86653
1.86962
1.88021
2.01495
1.98618
2.12384
1.83979
2.04394
1.93172
1.98893
1.88531
2.01344
1.8602
1.84457
1.72296
1.9659
1.87855
1.86102
2.07581
1.96764
1.79561
2.0181
1.90677
1.90019
1.88838
2.00209
1.90442
2.17665
1.83882
1.7814
1.94851
1.8245
1.89184
1.75414
2.03981
1.93349
1.86781
1.85412
1.82971
1.86831
1.65472
2.1674
2.03423
1.87158
1.89231
2.08879
1.92723
1.89652
1.85733
1.81403
1.84277
1.93646
2.15915
1.90037
1.78543
1.98667
1.95099
1.78267
1.87089
1.96338
2.03007
2.11034
1.85155
1.82875
1.95839
2.10027
1.79921
1.98597
1.87713
1.84243
1.87119
1.99184
1.83536
1.87278
2.06322
1.88085
1.72855
1.91686
1.90996
2.0934
2.25726
1.89521
1.87606
1.88601
1.88343
1.87927
1.83135
1.84427
2.20537
2.06891
2.03791
1.92974
1.80429
2.0796
2.23903
1.8886
1.90737
1.76661
1.6572
1.88487
1.7821
1.71045
1.57198
1.86301
1.83267
1.79344
1.88456
1.86775
1.81598
2.06192
1.88709
1.92196
1.78028
1.88382
2.0875
1.74399
1.86817
1.89107
1.85334
1.97779
1.99282
1.94441
1.87587
2.05073
1.8674
1.87165
2.12075
1.85111
2.1098
1.97853
1.79501
1.96114
2.13374
1.94857
1.78397
2.16985
1.84352
1.79913
2.09004
1.84689
2.16664
1.9109
1.8881
1.44685
1.89105
1.88087
1.9267
1.86082
1.73752
1.84428
1.85178
1.67382
2.16808
1.85922
1.90996
1.98065
1.95807
2.24281
2.23715
1.71724
1.81818
2.09382
1.68704
2.17922
1.68959
1.80958
1.93672
1.87565
2.098
1.80458
1.77789
1.92834
1.87641
1.75978
1.74768
2.13963
1.134
2.06468
2.04319
1.87458
1.80621
1.84798
2.12232
2.01775
2.00664
1.92059
1.97658
1.78766
2.12487
2.06113
1.8907
2.00564
2.09227
1.84374
1.91121
1.99805
1.7564
1.87341
1.96867
1.84645
1.95657
2.16733
1.87096
1.69925
1.88033
1.96294
1.82704
2.07166
1.91844
1.81208
1.89874
1.95933
1.92203
2.16287
1.846
1.84838
1.72484
1.87859
1.87056
1.88325
1.99838
1.82354
1.87819
2.09417
1.79357
1.89282
1.88663
1.865
1.94887
2.09378
2.19557
1.9086
1.85303
1.85814
2.0765
2.08491
1.82959
2.17385
1.84759
2.02312
1.99672
2.14304
1.87708
2.141
2.10449
1.87849
1.82089
1.9147
1.96427
1.845
1.58319
1.60369
2.02914
2.10932
1.8402
2.18076
1.92406
2.04131
1.9286
1.90096
2.09169
2.06677
1.74623
1.86262
1.88499
2.25668
2.03783
2.2695
1.84406
1.84503
1.81844
2.1201
2.00746
1.94431
1.97829
2.071
1.88644
1.95382
1.91795
1.89577
1.94782
1.52864
2.09374
1.9511
1.96213
2.1768
1.83231
1.85027
1.72417
1.89043
2.13419
1.92344
2.02096
1.55683
1.80596
1.96274
1.926
1.90169
1.97566
1.86382
1.91436
1.91598
1.99912
2.09395
1.91147
1.76876
2.13457
1.96967
2.21237
1.88309
2.03729
1.80085
1.82616
2.15492
1.8873
1.89523
1.96289
2.16981
2.03401
1.90064
1.80471
2.25771
1.89135
1.85633
2.06379
2.23328
2.0466
2.0064
1.84198
1.72463
1.88479
1.88864
1.81302
1.94909
1.87378
2.1109
2.22777
2.17052
1.88434
1.83991
1.88828
1.9261
2.02051
1.87154
2.03518
2.1928
1.81503
1.82324
1.87461
2.0366
2.0215
1.83387
1.8817
2.03607
1.83202
1.49763
1.85077
2.22589
1.73158
2.09029
1.94168
1.80694
2.01614
1.93024
2.07906
1.40422
1.76208
1.94995
2.17374
1.9303
2.15551
1.92602
1.73195
1.84266
1.88134
1.91744
1.72281
2.0575
1.82079
1.90083
1.8094
1.84854
1.96744
1.58614
1.87754
2.14769
1.91228
2.09724
1.69666
1.79342
1.84971
1.82602
1.67127
1.83449
1.82401
1.6257
1.77564
1.81205
2.06074
1.98022
2.14783
1.86416
1.85606
1.83665
1.91844
1.60933
1.84067
2.26239
1.93998
1.94001
2.18537
1.86249
1.91335
1.98552
1.78391
1.88289
1.91251
1.99226
2.19706
2.2243
2.23783
1.99582
1.92873
1.78569
1.85285
2.07938
1.99647
1.91212
1.77571
1.93711
1.90348
2.08195
1.91789
2.06011
1.70697
1.94215
1.8498
1.84598
1.80209
1.9242
2.16266
1.90955
1.84005
1.88617
2.21157
1.87563
1.89827
1.88857
1.84379
2.0333
1.98269
1.94163
1.9248
1.92825
1.81581
1.95436
1.84329
1.90267
2.12811
2.13909
1.85397
2.15101
2.0642
2.12937
1.88029
1.7493
1.92164
1.8472
2.14278
1.91569
1.99951
2.13143
2.2413
2.19818
2.12156
1.82816
1.99216
1.96296
1.86392
1.79127
1.94225
2.1209
2.18172
2.20787
1.8849
1.84634
1.87661
1.57531
1.90795
2.15496
1.97684
2.05042
2.07246
2.06776
2.0456
1.79147
1.93062
1.90976
1.8785
1.9103
1.925
1.86136
1.85133
1.84428
2.12774
1.96006
1.80204
2.04502
1.85245
1.90749
1.92987
1.86789
1.98925
2.04442
1.89027
1.90878
2.20265
2.24605
1.99911
2.03335
1.93235
1.91791
1.85075
1.82281
1.98635
1.91587
1.83811
2.01597
1.98444
1.84616
1.25708
1.83051
2.13673
1.92871
2.0318
1.85583
2.00441
1.92901
1.86298
2.08406
2.02236
2.00807
1.98786
1.83944
1.89624
1.83191
2.02172
1.85044
1.99014
1.84483
1.90643
1.96561
1.82037
1.92839
2.25053
1.81156
2.02999
1.87262
1.88782
1.90539
1.76428
2.13326
2.14625
1.84311
2.20117
1.78913
2.13167
2.08295
1.99805
1.90883
2.08912
1.86907
2.0094
1.99875
1.48217
1.9423
1.87381
2.20649
2.02666
1.80359
1.87992
1.95552
1.86189
2.03354
1.85892
1.98437
2.2206
1.83036
2.21051
1.98658
1.81554
1.81224
2.10143
1.91649
2.09655
1.22022
1.87943
2.01546
2.06578
1.91499
1.96803
1.88356
1.93633
2.04138
2.02029
1.84364
2.0508
1.90124
2.08711
1.55529
1.85152
1.67751
1.80142
1.9191
1.81415
1.35539
1.79269
2.0939
1.96374
1.94241
2.1538
1.91856
2.03865
1.65576
1.92771
1.89637
2.11049
2.21418
2.02009
1.8814
1.87035
1.74345
2.00061
1.86482
2.08291
1.62747
1.81221
1.6781
1.75216
1.96269
2.1708
1.84405
1.88062
1.91634
1.89104
2.07973
1.81801
1.88811
2.26414
2.018
1.88713
2.04687
2.11988
1.93031
1.68527
1.87568
1.90907
1.8586
1.73654
1.39267
1.99114
1.84485
2.13294
1.82976
2.03645
2.12357
1.91839
1.86095
1.94628
1.83616
1.76241
1.71265
1.91856
1.97428
1.93321
2.08404
2.11779
1.6742
2.10204
1.85685
2.11934
2.03689
1.76908
1.97324
1.90878
1.86921
2.18961
2.18119
2.17233
1.7913
2.09763
1.87656
2.08002
2.08571
2.0192
1.96532
1.76271
1.88104
1.99944
2.16413
1.70778
1.7988
2.00736
1.93657
2.06603
1.84312
2.00067
1.87897
2.19101
2.03632
2.06652
1.96897
2.23862
1.94762
1.9439
2.14929
1.78348
2.15337
2.06045
1.97482
1.96846
2.14602
1.88278
1.87942
1.82375
1.80597
1.92846
1.88774
1.88836
2.15798
1.79402
2.06539
1.86267
1.85626
2.08905
2.02467
1.87866
1.36183
2.15788
1.36248
1.90564
1.69264
2.19759
2.1428
1.88632
2.19941
1.94432
1.90174
2.07051
1.91373
1.89983
2.02897
1.97975
1.87927
2.01331
1.44307
1.89238
1.88263
2.02694
1.88642
1.73528
1.8831
1.87246
1.85743
1.86968
1.95566
2.06059
2.01354
1.88645
1.80422
1.89613
1.9317
1.92986
1.87942
1.82009
2.01543
1.88734
1.871
1.87523
1.82719
1.96708
2.06713
1.99258
1.84414
1.88296
1.69477
2.06637
2.1135
2.21385
2.09794
1.74605
1.90556
2.11647
1.73412
2.04565
2.02017
2.07137
1.90382
1.7084
1.52276
1.99648
2.03592
1.8703
1.98175
1.92457
1.84394
2.21452
1.88646
1.93066
2.09931
1.92902
2.15623
2.04067
1.90892
1.9332
1.93495
1.70039
1.8583
1.95146
1.74675
2.15412
1.77578
2.10195
1.8934
2.21191
2.0368
2.0473
2.05937
1.82739
2.07191
1.95062
1.91832
1.76969
2.1103
2.0384
1.90909
1.94877
2.03526
2.21498
1.94068
1.87329
1.99256
2.21579
1.91286
1.98699
2.15179
2.10404
1.88169
2.03132
1.99975
1.90155
1.97392
1.93626
1.99309
1.86164
1.87714
2.14027
1.70152
2.07996
1.88324
2.16351
2.03848
2.00655
1.97389
2.05793
1.87145
1.9768
1.88957
1.8834
1.64232
1.91207
1.68731
2.02486
1.94529
1.92197