/*--------------------------------*- C++ -*----------------------------------*\
  =========                 |
  \\      /  F ield         | OpenFOAM: The Open Source CFD Toolbox
   \\    /   O peration     | Website:  https://openfoam.org
    \\  /    A nd           | Version:  6
     \\/     M anipulation  |
\*---------------------------------------------------------------------------*/
FoamFile
{
    version     2.0;
    format      ascii;
    class       volVectorField;
    location    "0";
    object      U_rec;
}
// * * * * * * * * * * * * * * * * * * * * * * * * * * * * * * * * * * * * * //

dimensions      [0 1 -1 0 0 0 0];

internalField   nonuniform List<vector> 
13046
(
(-0.746142 0.447698 0)
(-0.611962 0.150681 -6.76333e-21)
(-0.331632 0.152618 -1.49674e-20)
(-0.730937 0.367272 0)
(-0.415299 0.235786 -1.33967e-20)
(-0.518814 0.138148 0)
(-0.770172 0.384231 1.92023e-21)
(-0.51202 0.109973 3.48252e-21)
(-0.393353 0.242246 -1.47685e-20)
(-0.974222 0.510134 5.67358e-21)
(-0.725511 -0.168206 0)
(-0.0608008 0.0564347 9.92796e-21)
(-0.84137 0.473625 -6.03396e-21)
(-0.585139 0.0906017 -1.09075e-20)
(-0.288166 0.157835 8.21829e-21)
(-0.964077 0.595249 -7.47373e-21)
(-0.0680706 0.0271192 2.39279e-20)
(-0.767885 -0.0894204 5.94424e-21)
(-0.544866 0.331014 0)
(-0.439826 0.144711 -7.31169e-21)
(-0.676133 0.280794 2.03649e-20)
(-0.969887 0.582778 -3.1386e-21)
(-0.0658831 0.0349806 -3.19301e-20)
(-0.755639 -0.105499 0)
(-0.691347 0.381147 8.13557e-21)
(-0.579134 0.173806 -1.65128e-20)
(-0.396958 0.192663 0)
(-0.843461 0.500528 -1.09006e-20)
(-0.606441 0.0878429 3.18264e-21)
(-0.263781 0.13563 -1.4209e-20)
(-0.749796 0.466869 0)
(-0.63615 0.157627 0)
(-0.309248 0.128232 1.52392e-20)
(-0.652096 0.353533 -9.44461e-21)
(-0.42566 0.200805 5.0414e-21)
(-0.576611 0.196531 2.87498e-20)
(-0.641884 0.332177 -1.46413e-20)
(-0.456051 0.225192 7.66682e-21)
(-0.555149 0.199157 -1.48074e-20)
(-0.659749 0.481806 1.03861e-20)
(-0.311494 0.0472157 2.82518e-21)
(-0.760634 0.220376 -1.01226e-20)
(-0.586949 0.273046 6.64813e-21)
(-0.529836 0.261777 1.1428e-20)
(-0.526245 0.22052 0)
(-0.620059 0.279637 4.16986e-21)
(-0.523554 0.279435 -1.75076e-20)
(-0.49783 0.195285 -2.20398e-21)
(-0.764968 0.440745 0)
(-0.585921 0.128859 -4.88248e-22)
(-0.3271 0.167174 7.30746e-24)
(-0.332951 -0.0401563 1.77791e-20)
(-0.585778 0.505895 0)
(-0.891814 0.258186 -1.22953e-20)
(-0.355075 -0.0598401 -2.53334e-20)
(-0.926383 0.274947 -1.93894e-20)
(-0.545081 0.489088 1.62894e-20)
(-0.780404 0.0579846 -2.5623e-21)
(-0.918936 0.680206 0)
(-0.1427 -0.00807675 1.32335e-20)
(-0.965589 0.440327 -5.62708e-21)
(-0.522213 -0.0264254 6.57594e-21)
(-0.28458 0.242135 -3.42279e-20)
(-0.118661 0.0975773 1.81308e-20)
(-0.671839 -0.0912331 -4.295e-21)
(-1.01194 0.53754 -8.93204e-21)
(-0.895631 0.691552 0)
(-0.80066 0.0842294 0)
(-0.159616 -0.0248341 0)
(-0.876379 0.678573 -4.36215e-21)
(-0.796975 0.0979828 0)
(-0.171836 -0.0214609 1.05698e-20)
(-0.792039 0.0451972 0)
(-0.932454 0.688584 1.67104e-22)
(-0.129551 -0.0149631 3.51727e-24)
(-0.566226 0.355477 0)
(-0.414674 0.126622 7.95449e-21)
(-0.691214 0.265945 -1.45623e-20)
(-0.107045 0.00193443 1.46476e-20)
(-0.95229 0.669533 -1.30251e-20)
(-0.774767 0.000468785 0)
(-0.71817 0.388963 4.23097e-21)
(-0.558121 0.155582 0)
(-0.387407 0.205075 0)
(-0.102555 0.08429 -1.62834e-20)
(-0.689639 -0.107364 -3.37162e-21)
(-1.01104 0.539936 5.30459e-21)
(-1.04855 0.45754 -9.44184e-21)
(-0.162924 0.175951 0)
(-0.604405 -0.136675 -3.3228e-21)
(-0.20819 0.252726 0)
(-1.085 0.37124 0)
(-0.554857 -0.199137 4.47644e-22)
(-0.953041 0.541209 0)
(-0.973976 0.53543 5.10917e-21)
(-0.627049 0.00739473 1.28949e-20)
(-0.623634 -0.0174877 -6.0589e-21)
(-0.192043 0.120302 -7.47643e-21)
(-0.182397 0.129413 1.91506e-20)
(-0.185036 0.200371 -9.07724e-22)
(-1.05403 0.440469 9.24051e-21)
(-0.584172 -0.14306 0)
(-0.654569 0.302833 -5.53963e-23)
(-0.498784 0.275413 9.18878e-21)
(-0.493734 0.174059 0)
(-0.49053 0.416061 0)
(-0.886487 0.313193 -5.92021e-21)
(-0.383995 -0.0118716 0)
(-0.591538 0.481318 1.80158e-20)
(-0.330463 -0.0013925 0)
(-0.840596 0.255374 -2.30135e-20)
(-0.877845 0.46288 0)
(-0.0272065 0.0240429 0)
(-0.722279 -0.229634 -5.03587e-21)
(-0.809012 0.453671 1.66918e-20)
(-0.576547 0.107065 4.58266e-21)
(-0.309916 0.170502 1.4833e-20)
(-0.964136 0.58626 6.50325e-21)
(-0.948287 0.569683 -1.229e-20)
(-0.676976 -0.00046312 -1.09395e-20)
(-0.1518 0.0770298 8.61019e-21)
(-0.655485 0.0153056 6.67168e-21)
(-0.172792 0.0920198 -8.04587e-21)
(-0.953636 0.510428 -4.6414e-21)
(-0.737629 -0.17959 -6.92231e-21)
(-0.0496141 0.0443648 -4.45107e-21)
(-0.904588 0.533378 0)
(-0.621347 0.0468549 -8.47264e-21)
(-0.220236 0.11968 1.7419e-20)
(-0.694504 0.496741 0)
(-0.295604 0.0558482 -1.40685e-20)
(-0.738885 0.198469 5.98761e-22)
(-0.234386 0.276359 0)
(-1.08185 0.369688 0)
(-0.539747 -0.181239 0)
(-1.00932 0.513461 0)
(-0.620076 -0.0647496 -1.69789e-20)
(-0.172534 0.145273 -2.05291e-20)
(-0.781579 0.486389 0)
(-0.643544 0.139729 0)
(-0.287368 0.114537 0)
(-0.869155 0.390925 0)
(-0.47282 0.0350078 0)
(-0.381789 0.284792 0)
(-0.569473 0.475442 0)
(-0.342968 -0.0154444 0)
(-0.867111 0.26892 1.2377e-20)
(-0.494985 0.402662 -1.90956e-21)
(-0.868819 0.316136 -1.27221e-20)
(-0.391472 0.00421182 1.53793e-20)
(-0.980614 0.455177 1.31779e-20)
(-0.543154 -0.0374499 0)
(-0.256575 0.216444 4.45418e-20)
(-0.469453 0.339608 0)
(-0.811488 0.334131 1.3711e-20)
(-0.426875 0.0578082 -3.88237e-21)
(-0.405948 -0.0781867 0)
(-0.972267 0.317578 1.35973e-20)
(-0.433412 -0.0885383 0)
(-0.994156 0.340024 7.73065e-21)
(-0.453892 0.429983 0)
(-0.407754 0.39373 0)
(-0.888175 0.356916 1.73879e-21)
(-0.435504 0.00682443 8.16558e-21)
(-0.417974 0.331374 -8.36804e-21)
(-0.992971 0.495246 -5.83909e-21)
(-0.0686659 0.0704165 0)
(-0.703921 -0.17934 -8.50433e-21)
(-0.906861 0.482718 -4.14039e-21)
(-0.0335641 0.029551 -2.03609e-21)
(-0.737323 -0.209784 0)
(-1.00939 0.527191 -7.45175e-21)
(-0.637922 -0.0681139 0)
(-0.153538 0.126426 2.33518e-20)
(-0.74201 0.56643 0)
(-0.782621 0.179082 3.30386e-21)
(-0.257419 0.0116475 8.2668e-21)
(-0.867408 0.342724 1.15578e-20)
(-0.446826 0.35499 3.98805e-21)
(-0.419645 0.0190315 0)
(-0.0920699 0.107886 0)
(-0.663763 -0.183914 0)
(-1.0263 0.467897 4.93917e-21)
(-0.714183 0.540778 0)
(-0.776383 0.1949 -7.10067e-21)
(-0.275346 0.0238776 2.13456e-21)
(-0.469041 0.355729 0)
(-0.825606 0.328155 0)
(-0.411212 0.0413242 0)
(-0.841658 0.377158 5.67747e-21)
(-0.469126 0.0502552 0)
(-0.395128 0.282405 0)
(-0.568071 0.0566818 -5.18095e-23)
(-0.277053 0.174439 -1.00595e-20)
(-0.887141 0.513523 1.72541e-20)
(-0.607202 0.060298 0)
(-0.24127 0.134335 -2.18253e-20)
(-1.03398 0.49271 -9.50882e-21)
(-0.12538 0.126327 1.46995e-20)
(-0.650425 -0.134317 -1.62817e-20)
(-0.226059 0.254152 1.33036e-20)
(-1.06584 0.401238 5.82669e-21)
(-0.55018 -0.1548 1.65343e-20)
(-1.07189 0.410765 -1.60343e-20)
(-0.58651 -0.176952 0)
(-0.172732 0.206302 -1.30648e-20)
(-0.321373 -0.0778667 -9.12246e-22)
(-0.927527 0.237202 5.53833e-21)
(-0.617864 0.567909 0)
(-0.833241 0.420051 -2.55719e-20)
(-0.942725 0.682337 6.68817e-21)
(-0.111594 -0.00786116 -9.04151e-21)
(-0.791138 0.0103903 0)
(-0.605049 -0.189679 0)
(-1.06184 0.421477 -1.42601e-20)
(-0.147115 0.176411 0)
(-0.667465 0.329111 -2.10816e-20)
(-0.463251 0.249588 -7.52452e-21)
(-0.519579 0.173051 2.18293e-20)
(-0.825395 0.50955 0)
(-0.630217 0.107693 -4.5813e-22)
(-0.267288 0.122267 -8.37763e-21)
(-0.240211 0.274474 1.01507e-20)
(-1.07322 0.386043 0)
(-0.538184 -0.166374 -1.90468e-20)
(-0.861383 0.435974 2.04673e-20)
(-0.549119 0.0511918 1.97854e-20)
(-0.295562 0.194639 0)
(-0.050063 0.0553995 0)
(-0.701015 -0.215839 7.4538e-21)
(-0.960982 0.469352 0)
(-0.57962 0.540811 0)
(-0.947842 0.250204 0)
(-0.339833 -0.0877856 0)
(-1.06711 0.418241 1.40681e-20)
(-0.575421 -0.160199 0)
(-0.188092 0.215124 -3.03202e-23)
(-0.941169 0.351026 5.0599e-21)
(-0.428437 -0.0411967 -6.30965e-21)
(-0.408643 0.362266 0)
(-0.899689 0.5517 0)
(-0.640171 0.055236 7.90635e-21)
(-0.209962 0.101903 1.37516e-20)
(-0.483511 -0.162776 -2.3408e-20)
(-1.06978 0.335784 -1.07474e-20)
(-0.332867 0.369673 7.95203e-21)
(-1.0189 0.335279 0)
(-0.444109 -0.110898 -9.12788e-21)
(-0.394558 0.395548 -2.85503e-22)
(-0.0476442 0.0573042 -1.2977e-20)
(-0.6834 -0.231133 0)
(-0.959252 0.449551 -4.78333e-21)
(-0.652014 0.525457 9.55748e-21)
(-0.3018 -0.00299271 -1.03444e-20)
(-0.827849 0.226668 1.026e-21)
(-0.814731 0.486339 4.39482e-21)
(-0.0189893 0.00496916 -1.9155e-20)
(-0.766559 -0.197949 0)
(-0.507843 0.305429 -4.35479e-21)
(-0.691688 0.300317 -1.64574e-20)
(-0.457232 0.141242 2.19461e-20)
(-0.940633 0.389359 5.97171e-21)
(-0.925555 0.364611 1.27784e-23)
(-0.465858 -0.0249853 -1.52316e-20)
(-0.440052 -0.0231441 0)
(-0.397756 0.341132 7.60691e-21)
(-0.353285 0.303358 -7.9093e-21)
(-0.0942696 0.00608312 -1.91683e-20)
(-0.956232 0.656776 6.93431e-21)
(-0.778819 -0.016246 -1.44181e-20)
(-0.874939 0.553233 0)
(-0.657139 0.0818743 0)
(-0.22121 0.0920652 -1.81185e-20)
(-1.03651 0.350116 -2.8222e-21)
(-0.467068 -0.126483 0)
(-0.358249 0.368982 0)
(-0.98855 0.55302 -6.2552e-21)
(-0.649737 -0.0325822 0)
(-0.155261 0.106542 8.53399e-21)
(-0.578282 0.285201 4.49998e-21)
(-0.553909 0.234373 6.57921e-21)
(-0.511806 0.240446 -2.24891e-21)
(-0.979571 0.358103 -9.88332e-21)
(-0.446095 -0.0700985 0)
(-0.38284 0.359888 -1.32386e-20)
(-0.875278 0.571588 0)
(-0.677699 0.0834543 9.88283e-21)
(-0.208522 0.073822 -1.17211e-20)
(-0.87128 0.462635 0)
(-0.897217 0.47427 2.01974e-21)
(-0.657912 0.540796 3.45482e-21)
(-0.295931 -0.0173969 3.00306e-20)
(-0.842763 0.224578 -2.47e-20)
(-0.99549 0.37718 -1.00518e-20)
(-0.467894 -0.0787721 1.33562e-20)
(-0.343165 0.32656 1.2079e-20)
(-1.00091 0.547122 0)
(-0.146291 0.110529 -3.00715e-20)
(-0.65197 -0.052014 -8.50965e-21)
(-0.596589 0.463351 -2.48558e-20)
(-0.335213 0.0148569 0)
(-0.818389 0.259464 7.8001e-21)
(-0.470751 0.456626 -1.53022e-20)
(-0.982793 0.303815 -7.92455e-21)
(-0.397868 -0.0950345 0)
(-0.929642 0.609365 -6.31628e-21)
(-0.701576 0.041696 -8.77082e-21)
(-0.15873 0.050686 5.37016e-21)
(-0.619877 0.532631 1.25574e-21)
(-0.317353 -0.0391573 0)
(-0.882431 0.24532 1.69596e-20)
(-0.945961 0.618724 0)
(-0.958488 0.608397 0)
(-0.710065 0.0258456 -5.73445e-21)
(-0.145983 0.0471502 -1.39475e-20)
(-0.699648 0.00572894 8.11419e-21)
(-0.140945 0.0585195 1.48349e-20)
(-0.0971641 0.103027 -1.14203e-20)
(-0.67228 -0.16414 0)
(-1.02466 0.487914 -6.77951e-21)
(-0.927708 0.572454 7.30455e-21)
(-0.658097 0.0345713 0)
(-0.182143 0.0864072 4.73789e-21)
(-0.677326 -0.248714 1.46718e-20)
(-0.0123512 0.005199 1.67081e-20)
(-0.766777 0.421417 1.07408e-20)
(-0.764266 0.310401 -7.55407e-21)
(-0.50175 0.340227 0)
(-0.421013 0.0867902 0)
(-0.937508 0.437955 1.35571e-20)
(-0.516127 -0.0039062 0)
(-0.296772 0.23667 2.61694e-20)
(-0.137529 0.128948 -9.33936e-21)
(-1.03082 0.504507 1.95025e-20)
(-0.641689 -0.111675 1.21619e-20)
(-0.357035 -0.0743327 0)
(-0.943366 0.272528 7.21397e-21)
(-0.538955 0.504079 -1.84528e-20)
(-0.50268 -0.165225 -2.88124e-20)
(-1.07298 0.353241 -6.53707e-21)
(-0.296261 0.332962 0)
(-0.533027 0.0736276 -1.97578e-20)
(-0.328932 0.212604 0)
(-0.944478 0.486102 1.47394e-20)
(-0.564865 0.0044911 7.27305e-21)
(-0.245548 0.177588 8.00311e-21)
(-0.511867 0.0619733 1.16327e-20)
(-0.345395 0.232858 7.91919e-23)
(-0.972708 0.603446 -4.61411e-22)
(-0.0787743 0.0304303 1.12494e-20)
(-0.756107 -0.0709932 -8.73048e-21)
(-0.308684 -0.0906947 0)
(-0.931508 0.224141 1.78239e-21)
(-0.647285 0.597784 0)
(-0.963587 0.492941 -1.50226e-20)
(-0.575406 -0.0116742 -8.88508e-21)
(-0.229274 0.176377 -9.81874e-21)
(-0.882635 0.381993 0)
(-0.456343 0.0167549 -1.18695e-20)
(-0.38949 0.303078 0)
(-0.886423 0.293052 0)
(-0.364134 -0.0227451 0)
(-0.528006 0.443836 0)
(-0.752537 0.416264 -5.87353e-21)
(-0.566449 0.137295 -1.07961e-20)
(-0.357027 0.189167 5.785e-23)
(-0.505395 0.483944 1.90131e-20)
(-0.970169 0.287537 1.92171e-20)
(-0.38044 -0.0899113 1.29363e-20)
(-1.04874 0.464694 -8.41673e-21)
(-0.627516 -0.15178 1.38771e-20)
(-0.137244 0.149364 -1.38234e-20)
(-0.512582 -0.153621 1.94609e-20)
(-1.06707 0.370826 6.62359e-21)
(-0.279551 0.311161 1.01128e-20)
(-0.828138 0.665699 -1.36082e-20)
(-0.203178 -0.0297991 1.59282e-20)
(-0.817136 0.131948 -1.21572e-20)
(-0.954154 0.646572 3.76947e-21)
(-0.945193 0.644596 -3.45567e-21)
(-0.738476 0.0261171 -1.82914e-21)
(-0.747422 0.0126881 0)
(-0.121359 0.0206424 -5.14423e-21)
(-0.133301 0.0234926 -4.51953e-21)
(-0.01518 0.00544775 -2.26151e-20)
(-0.708466 -0.23294 -1.61629e-20)
(-0.786081 0.437199 2.81437e-21)
(-0.836634 0.50331 -2.84672e-22)
(-0.0228589 0.00623581 2.65058e-20)
(-0.780255 -0.186457 0)
(-0.966249 0.398945 -2.21415e-20)
(-0.482753 -0.0398364 -3.4505e-21)
(-0.335801 0.296256 0)
(-0.109532 0.108341 -2.83037e-20)
(-1.02729 0.498316 6.74141e-21)
(-0.667504 -0.140879 0)
(-0.887794 0.647554 1.90489e-20)
(-0.908275 0.644396 -1.426e-20)
(-0.756039 0.0827232 9.33925e-21)
(-0.74386 0.0655968 3.59024e-21)
(-0.173251 0.00973578 -8.95309e-21)
(-0.160437 0.0189885 -4.48237e-21)
(-0.119765 0.155756 0)
(-0.603697 -0.221705 0)
(-1.05661 0.393911 2.52257e-21)
(-0.759194 0.473276 -5.16057e-21)
(-0.014787 -0.00215347 0)
(-0.763659 -0.196523 0)
(-0.626648 0.250683 -8.07402e-23)
(-0.576367 0.328252 9.5728e-21)
(-0.445788 0.17521 4.85678e-21)
(-0.829576 0.461947 -9.02329e-21)
(-0.733883 -0.224133 7.36604e-21)
(-0.0204418 0.0123171 1.24002e-21)
(-0.784951 0.573734 0)
(-0.750906 0.152657 -1.53918e-20)
(-0.239279 0.0280511 -4.13454e-24)
(-1.03385 0.458288 1.05739e-22)
(-0.650901 -0.185323 2.00974e-20)
(-0.106438 0.12247 1.22489e-23)
(-0.59309 -0.274328 4.4367e-22)
(-0.0101366 0.00543462 -9.59802e-21)
(-0.732833 0.343342 -4.13444e-21)
(-0.628106 0.450639 -9.00991e-21)
(-0.334785 0.0625945 8.98397e-21)
(-0.752348 0.238051 2.4724e-20)
(-0.727524 0.323966 0)
(-0.462898 0.122188 -2.43409e-20)
(-0.477007 0.298489 1.23113e-20)
(-0.941608 0.526622 0)
(-0.0460561 0.0357488 1.32819e-20)
(-0.75322 -0.168638 1.04344e-23)
(-0.751942 0.329344 0)
(-0.447439 0.104119 -8.60612e-21)
(-0.46997 0.311519 -1.73905e-20)
(-0.608301 0.254303 9.88151e-21)
(-0.566173 0.308853 -5.08202e-21)
(-0.469763 0.194285 2.55671e-21)
(-0.558223 0.542401 9.10651e-21)
(-0.977117 0.257969 -6.87635e-21)
(-0.358295 -0.110094 1.428e-20)
(-0.713783 0.274553 0)
(-0.403506 0.11 0)
(-0.551105 0.369066 1.42146e-21)
(-0.751183 0.29865 1.19628e-20)
(-0.408546 0.0946443 6.6241e-21)
(-0.53046 0.362745 2.02623e-22)
(-0.800758 0.655694 2.06917e-20)
(-0.833312 0.146469 -1.18942e-20)
(-0.219932 -0.0396096 -1.57217e-20)
(-0.0702574 0.0546328 2.00765e-20)
(-0.0714976 0.0616064 -2.03267e-20)
(-0.734992 -0.131857 5.9688e-21)
(-0.721709 -0.145638 4.13694e-21)
(-0.982939 0.548374 0)
(-0.989754 0.535694 -5.8094e-21)
(-1.05127 0.454021 1.03904e-20)
(-0.631015 -0.16674 -1.24864e-20)
(-0.128101 0.149103 1.71012e-20)
(-0.190118 -0.0407207 -1.0189e-20)
(-0.847106 0.689947 4.20005e-21)
(-0.825887 0.120578 1.55037e-20)
(-0.675866 0.52198 -8.72943e-21)
(-0.292207 0.014955 -9.42347e-21)
(-0.798393 0.212899 7.76854e-21)
(-1.02898 0.310407 0)
(-0.430013 -0.1282 9.44087e-21)
(-0.425084 0.434184 2.95501e-22)
(-0.609799 -0.277443 7.26392e-21)
(-0.0284778 0.0353018 -8.9031e-21)
(-0.871442 0.363278 -3.73714e-21)
(-0.183216 0.225843 0)
(-1.07973 0.385366 0)
(-0.570018 -0.199463 8.39067e-21)
(-0.936714 0.483533 4.85031e-21)
(-0.0430665 0.0425965 0)
(-0.726004 -0.205393 -7.31517e-21)
(-0.00630875 -0.0010933 -3.55527e-32)
(-0.569335 -0.267589 -6.89403e-21)
(-0.6719 0.326378 4.14223e-21)
(-0.61616 -0.228728 7.71909e-21)
(-0.00597188 -0.0057063 3.54697e-32)
(-0.64583 0.37424 -3.68732e-21)
(-0.520823 -0.0781519 -1.84453e-20)
(-1.01373 0.421725 0)
(-0.278653 0.262372 -2.60531e-20)
(-0.614339 -0.249351 -3.88701e-21)
(-0.0752301 0.102125 -9.07658e-21)
(-1.01065 0.384081 0)
(-1.02185 0.49973 -9.48386e-21)
(-0.611495 -0.0835795 1.05502e-20)
(-0.17407 0.157447 1.36311e-20)
(-0.921523 0.592912 1.49289e-20)
(-0.047812 0.00687902 8.14626e-21)
(-0.809029 -0.102911 0)
(-0.810685 0.430716 4.53132e-21)
(-0.335286 0.202387 -5.0328e-21)
(-0.545346 0.0936319 4.75298e-21)
(-0.594508 -0.215209 4.34219e-21)
(-0.139029 0.178242 9.58176e-21)
(-1.06552 0.39142 2.84573e-21)
(-1.01344 0.300028 -7.75135e-21)
(-0.454832 0.458741 -5.23429e-21)
(-0.413078 -0.119059 0)
(-0.480943 -0.121335 0)
(-1.03585 0.365971 0)
(-0.328862 0.341405 0)
(-0.00113858 -0.00957231 0)
(-0.368968 -0.160391 -5.83174e-21)
(-0.380919 0.191475 2.83987e-21)
(-0.658394 -0.264167 7.29268e-21)
(-0.0143387 0.0102853 -1.15966e-20)
(-0.7894 0.405482 -4.58074e-21)
(-0.780625 0.411931 -1.16106e-20)
(-0.358976 0.209843 1.18585e-20)
(-0.540578 0.111245 5.48527e-21)
(-0.629829 -0.210092 1.79342e-20)
(-1.04335 0.425063 -5.4244e-21)
(-0.102294 0.130882 0)
(-0.109864 0.147662 -1.00617e-20)
(-1.05198 0.383195 0)
(-0.598601 -0.236181 -1.33887e-20)
(-1.01699 0.524785 -6.16597e-21)
(-0.0984905 0.0904633 3.03951e-20)
(-0.685781 -0.126928 0)
(-0.0938043 0.0280424 -2.31373e-20)
(-0.751495 -0.0372897 9.10392e-21)
(-0.97085 0.627323 0)
(-0.78063 0.668447 -2.61122e-20)
(-0.862261 0.157876 1.51501e-20)
(-0.234739 -0.0587771 -5.00038e-21)
(-0.755454 0.0462956 2.72917e-21)
(-0.926417 0.662688 8.20819e-21)
(-0.143255 0.00934068 -1.41266e-20)
(-0.0749276 0.00759186 -2.07774e-20)
(-0.953478 0.636614 0)
(-0.788926 -0.0507067 0)
(-0.8161 0.554973 -4.14229e-21)
(-0.84623 0.573968 0)
(-0.696891 0.127861 -1.60367e-20)
(-0.699139 0.109867 1.71466e-20)
(-0.237008 0.0664507 2.38465e-21)
(-0.21793 0.0599697 -2.54269e-21)
(-0.787387 0.55495 3.97367e-21)
(-0.722137 0.148318 0)
(-0.247363 0.051359 4.59078e-21)
(-0.875629 0.663665 0)
(-0.778131 0.093521 -1.50882e-20)
(-0.176075 -0.00602323 3.22995e-21)
(-0.504264 -0.138242 -9.63363e-21)
(-1.05553 0.374267 6.85289e-21)
(-0.291083 0.311444 -2.08108e-20)
(-0.616916 -0.184748 0)
(-1.0537 0.436793 1.56286e-20)
(-0.13154 0.159733 0)
(-0.244644 0.260661 -6.7389e-21)
(-1.0551 0.404998 -4.29067e-21)
(-0.538635 -0.135102 -6.31043e-21)
(-0.656446 -0.226283 -1.06174e-21)
(-0.00740427 -0.0044792 6.20198e-21)
(-0.681915 0.402278 0)
(-0.689643 0.464796 8.10573e-21)
(-0.700533 0.454251 0)
(-0.318565 0.092641 0)
(-0.695545 0.20003 3.04238e-20)
(-0.326374 0.113252 0)
(-0.6678 0.187002 -1.93026e-20)
(-0.836171 0.63696 0)
(-0.803561 0.617636 0)
(-0.22074 0.000774195 3.75245e-23)
(-0.777636 0.124019 9.3297e-21)
(-0.204038 0.00135435 2.36159e-20)
(-0.782433 0.140776 -1.96567e-20)
(-0.5678 -0.282959 0)
(-0.0128647 0.0117304 1.30279e-20)
(-0.764274 0.331608 0)
(-0.632894 -0.200619 -1.05456e-20)
(-1.04676 0.436389 1.68125e-21)
(-0.107403 0.131182 6.07002e-21)
(-0.690937 0.565115 -1.49952e-20)
(-0.28084 -0.0253131 -1.08382e-20)
(-0.843641 0.207786 2.56863e-20)
(-0.466892 -0.147144 2.08133e-20)
(-1.05495 0.332503 1.80267e-20)
(-0.358733 0.386875 0)
(-0.100622 0.0232577 2.4741e-20)
(-0.75304 -0.0234015 -9.68637e-21)
(-0.966855 0.636865 8.77045e-21)
(-0.685696 -0.249951 0)
(-0.889176 0.433734 0)
(-0.0281379 0.0307845 0)
(-0.676254 -0.245377 0)
(-0.921771 0.429471 4.4019e-21)
(-0.038279 0.0458242 2.20853e-21)
(-0.911291 0.625495 -7.89805e-21)
(-0.719385 0.0582089 5.45467e-21)
(-0.164746 0.0371672 6.63499e-21)
(-0.574587 0.440788 -2.37064e-21)
(-0.351502 0.0277138 0)
(-0.811343 0.273792 -1.24643e-22)
(-1.00536 0.522108 7.18461e-21)
(-0.0855977 0.0782816 1.77376e-20)
(-0.702781 -0.139709 -4.81943e-21)
(-0.520803 -0.0980435 0)
(-1.02782 0.414205 0)
(-0.272691 0.273939 2.24426e-20)
(-0.125042 0.0913738 5.74049e-21)
(-0.675724 -0.0660962 1.45872e-20)
(-1.00161 0.559835 1.95626e-20)
(-0.781652 0.615138 0)
(-0.232193 -0.00977882 -1.57799e-20)
(-0.800479 0.154794 1.00126e-20)
(-0.924729 0.332757 1.22538e-22)
(-0.406772 -0.0336188 9.26266e-21)
(-0.45134 0.392757 0)
(-0.647695 0.489396 1.56572e-22)
(-0.311371 0.0285723 -3.07548e-21)
(-0.788487 0.228304 -1.01824e-20)
(-0.0842877 0.0851201 -5.59309e-24)
(-0.693417 -0.162307 1.14443e-20)
(-1.00785 0.499394 7.85294e-21)
(-0.979704 0.577517 -3.63708e-21)
(-0.674812 -0.0233951 -4.27686e-21)
(-0.142814 0.0841086 0)
(-0.639559 0.441699 -8.79107e-21)
(-0.340581 0.0834432 1.93069e-20)
(-0.722518 0.229448 -1.62929e-20)
(-0.940609 0.627531 5.91594e-21)
(-0.0632337 0.00317381 9.26062e-21)
(-0.802863 -0.0683552 -6.93628e-21)
(-0.773435 0.508481 -5.03842e-21)
(-0.67132 0.144466 0)
(-0.273408 0.0926217 0)
(-0.818139 0.358163 -2.12259e-20)
(-0.450076 0.0621772 5.35313e-21)
(-0.430151 0.307617 0)
(-0.483843 -0.0996076 0)
(-1.02074 0.377719 1.43757e-20)
(-0.323212 0.324995 0)
(-0.875278 0.538622 -3.16279e-21)
(-0.0308746 0.00803605 -2.85283e-21)
(-0.801603 -0.156281 8.05535e-21)
(-0.880521 0.557536 8.74989e-21)
(-0.0332722 0.00502467 0)
(-0.811467 -0.137399 -7.65003e-21)
(-0.115416 0.074307 5.25119e-21)
(-0.693969 -0.0591073 -8.70444e-21)
(-0.994604 0.575323 -1.79635e-20)
(-0.942471 0.313998 -6.88504e-21)
(-0.39595 -0.0567326 -9.26761e-21)
(-0.472387 0.423859 0)
(-0.0228009 0.00158256 2.61341e-21)
(-0.801711 -0.171889 -7.53018e-21)
(-0.826956 0.516971 0)
(-0.159381 0.151263 0)
(-0.620435 -0.103635 -8.91827e-21)
(-1.03085 0.492199 -2.25129e-21)
(-0.00367834 -0.00468639 1.04402e-20)
(-0.490033 -0.260336 7.70473e-21)
(-0.594972 0.265894 0)
(-0.545748 0.341436 -4.22224e-21)
(-0.567225 -0.196593 0)
(-0.00423462 -0.00986362 1.04726e-20)
(-0.0807949 0.0196343 2.50658e-23)
(-0.770113 -0.0535733 0)
(-0.962711 0.626503 0)
(-0.0638023 0.0725682 0)
(-0.692567 -0.198996 0)
(-0.990366 0.476397 1.03265e-20)
(-0.987801 0.562307 -6.34057e-21)
(-0.996807 0.563965 5.1295e-21)
(-0.0784738 0.0525503 -1.00669e-20)
(-0.733002 -0.105857 -1.95357e-21)
(-0.0903226 0.0630895 -1.63158e-20)
(-0.714478 -0.0949702 3.50535e-21)
(-1.03975 0.473803 4.39277e-21)
(-0.604034 -0.114107 5.87188e-21)
(-0.171896 0.171391 0)
(-0.403805 0.432433 0)
(-0.442861 -0.148033 0)
(-1.04971 0.312136 0)
(-0.694966 0.417668 0)
(-0.358578 0.150376 -2.62152e-20)
(-0.624808 0.18278 1.06457e-20)
(-1.04399 0.436364 1.26978e-20)
(-0.561727 -0.117943 2.15135e-21)
(-0.217034 0.223772 1.99082e-20)
(-0.241781 0.248694 1.29145e-20)
(-1.04301 0.421883 -1.76616e-20)
(-0.543392 -0.117643 -2.98629e-21)
(-0.949608 0.659511 6.87444e-21)
(-0.0823432 -0.00165509 9.94891e-21)
(-0.795934 -0.02865 1.50581e-20)
(-0.844272 0.652593 0)
(-0.789293 0.118722 4.47976e-21)
(-0.195328 -0.00970618 -2.31466e-20)
(-0.80927 0.593749 0)
(-0.755655 0.139377 2.02192e-20)
(-0.224433 0.0198559 2.4321e-23)
(-1.00336 0.456178 -1.67467e-20)
(-0.552011 -0.0629687 2.59323e-21)
(-0.24193 0.216776 -1.13324e-20)
(-1.01557 0.444794 0)
(-0.545136 -0.0782261 2.43087e-21)
(-0.246475 0.229535 1.04027e-20)
(-0.617035 0.414886 0)
(-0.363369 0.100522 -3.04914e-20)
(-0.709408 0.23965 9.15557e-21)
(-0.851025 0.590958 0)
(-0.714451 0.10479 0)
(-0.206418 0.0438772 3.46254e-21)
(-0.155982 0.202312 -2.07104e-20)
(-0.576376 -0.219371 -2.3667e-20)
(-1.07739 0.378217 0)
(-0.936076 0.407788 5.82421e-21)
(-0.0411845 0.0530436 0)
(-0.645857 -0.258742 5.23043e-21)
(-0.917782 0.37867 -1.96712e-22)
(-0.0379546 0.0498171 0)
(-0.62348 -0.26799 -1.50246e-20)
(-0.723555 0.526223 6.02131e-21)
(-0.27734 0.046284 -3.34646e-21)
(-0.744104 0.184411 -1.37784e-22)
(-0.66071 -0.262067 1.94801e-22)
(-0.0215203 0.0222685 1.77333e-20)
(-0.851071 0.406915 0)
(-0.98535 0.587836 1.55491e-20)
(-0.123656 0.0698956 1.10538e-20)
(-0.694923 -0.0367001 0)
(-0.0213664 0.0243317 -2.62763e-21)
(-0.619068 -0.2777 -8.18445e-21)
(-0.83847 0.36962 0)
(-0.71436 0.347751 1.46343e-20)
(-0.446487 0.259102 1.56859e-20)
(-0.502435 0.1454 7.90441e-23)
(-0.906911 0.497859 -2.51908e-21)
(-0.582946 0.0404835 -2.64043e-21)
(-0.252521 0.159856 -1.17605e-20)
(-0.37417 -0.0497199 2.10867e-20)
(-0.923343 0.296902 1.6357e-20)
(-0.510763 0.450245 0)
(-0.0869736 0.115844 0)
(-0.618101 -0.237745 -4.86231e-21)
(-1.02764 0.396975 0)
(-0.505948 -0.106933 0)
(-1.03136 0.398063 0)
(-0.290725 0.294659 0)
(-0.0582173 0.0117458 0)
(-0.942214 0.604831 -5.42988e-21)
(-0.79604 -0.0870393 6.7984e-21)
(-0.932972 0.505504 0)
(-0.584954 0.0179561 1.30602e-21)
(-0.237356 0.160249 1.15081e-20)
(-0.67909 0.39938 0)
(-0.380378 0.165586 2.24933e-20)
(-0.612531 0.188665 0)
(-0.640369 -0.222772 -1.69734e-20)
(-1.02049 0.424913 5.15423e-21)
(-0.0849478 0.108547 0)
(-0.134123 0.116172 -1.20485e-20)
(-0.652083 -0.095719 5.68308e-22)
(-1.0186 0.5242 2.52988e-22)
(-0.90587 0.51886 0)
(-0.885566 0.507121 5.79514e-21)
(-0.0354277 0.022401 -6.54144e-21)
(-0.0305 0.0194052 -8.05046e-21)
(-0.768994 -0.175025 -4.93647e-21)
(-0.765039 -0.18914 4.05864e-21)
(-0.918965 0.402907 0)
(-0.475473 -0.00523048 3.5563e-20)
(-0.351191 0.284817 1.238e-20)
(-0.501648 -0.0619868 2.58759e-20)
(-0.995393 0.410702 0)
(-0.29799 0.27589 -1.36323e-20)
(-0.789521 0.37742 -1.1973e-20)
(-0.488454 0.0901004 9.1576e-21)
(-0.397589 0.261624 1.92441e-20)
(-0.643446 -0.250635 1.13591e-20)
(-0.97627 0.410291 6.37697e-21)
(-0.625069 -0.256594 -5.42937e-21)
(-0.0549311 0.0725121 0)
(-0.983019 0.390759 -6.15611e-21)
(-0.0603087 0.0803112 0)
(-0.978685 0.519363 0)
(-0.603203 -0.0264799 0)
(-0.198781 0.149905 1.28501e-20)
(-1.00717 0.436791 8.94133e-21)
(-0.98613 0.428492 -1.663e-20)
(-0.657872 -0.222031 7.45406e-21)
(-0.660474 -0.235241 -1.86587e-20)
(-0.0710492 0.0903604 1.78605e-20)
(-0.0588517 0.0749823 2.69041e-24)
(-0.983286 0.398924 0)
(-0.481328 -0.0609361 -2.37848e-20)
(-0.331794 0.308602 1.77299e-20)
(-0.883488 0.436646 1.108e-20)
(-0.53309 0.0305542 -1.58795e-20)
(-0.295181 0.210424 0)
(-0.91783 0.575014 0)
(-0.0430784 0.0118862 0)
(-0.800505 -0.123609 7.34958e-21)
(-0.919978 0.420974 8.13543e-21)
(-0.495547 0.00374923 -9.88519e-21)
(-0.327479 0.258652 -2.0613e-20)
(-0.824453 0.397345 4.77912e-21)
(-0.495599 0.069057 -1.07353e-20)
(-0.371948 0.251022 1.12607e-20)
(-0.897315 0.534317 0)
(-0.0362184 0.0164995 0)
(-0.787073 -0.160375 -1.01187e-20)
(-0.934416 0.524949 0)
(-0.610843 0.022348 2.81795e-21)
(-0.212307 0.133261 -1.28025e-20)
(-0.39913 -0.127192 0)
(-1.01341 0.286377 0)
(-0.485257 0.493359 -6.73429e-22)
(-0.777793 0.629601 -6.68417e-22)
(-0.82163 0.159659 0)
(-0.232278 -0.0260126 2.45599e-20)
(-0.517456 -0.183442 1.12953e-20)
(-0.266621 0.314737 0)
(-1.08452 0.35256 0)
(-0.00264391 -0.00879077 -2.51403e-20)
(-0.477441 -0.205844 8.1653e-21)
(-0.507722 0.262658 -3.97512e-21)
(-0.929085 0.461222 0)
(-0.537385 0.0131411 9.75435e-21)
(-0.279493 0.208077 -1.0566e-20)
(-0.955681 0.569415 1.03257e-20)
(-0.0562764 0.0310601 3.40835e-20)
(-0.767955 -0.11885 0)
(-0.270306 -0.0748194 -6.58051e-21)
(-0.898312 0.191998 -9.78558e-21)
(-0.715108 0.637342 -6.004e-21)
(-0.66582 0.421392 0)
(-0.00822669 -0.00690643 -9.45433e-21)
(-0.697958 -0.2097 0)
(-0.516121 0.385473 1.18261e-20)
(-0.527875 0.410345 -1.21136e-20)
(-0.386227 0.0436032 0)
(-0.809496 0.302374 1.03372e-20)
(-0.373218 0.0219662 -1.97767e-20)
(-0.833273 0.292945 -8.32654e-21)
(-0.783339 0.356474 1.12585e-20)
(-0.463266 0.0900239 1.20784e-20)
(-0.432712 0.291232 0)
(-0.591381 0.431769 1.03878e-20)
(-0.55358 0.403943 0)
(-0.3507 0.0544761 -1.09356e-20)
(-0.773121 0.259112 9.31127e-21)
(-0.372115 0.0615687 1.10162e-20)
(-0.775553 0.278795 8.89035e-23)
(-0.907921 0.455943 7.00767e-22)
(-0.51228 0.0374 -6.88486e-21)
(-0.327016 0.235108 -1.39043e-20)
(-0.888758 0.422753 -1.90165e-20)
(-0.49864 0.027862 1.82572e-22)
(-0.341034 0.254052 0)
(-0.0480595 0.0657936 0)
(-0.608107 -0.270876 0)
(-0.951896 0.370869 6.43437e-21)
(-0.757416 0.531742 -5.54917e-21)
(-0.720524 0.165728 0)
(-0.266246 0.05837 6.19316e-21)
(-1.00869 0.460435 -1.64824e-20)
(-0.671151 -0.203691 8.5556e-21)
(-0.0737272 0.0900301 -1.01983e-20)
(-1.00646 0.477493 0)
(-1.01955 0.481205 9.12437e-21)
(-0.575823 -0.0629961 -3.23026e-21)
(-0.589284 -0.0783363 1.03722e-20)
(-0.212581 0.189192 -1.41608e-20)
(-0.195505 0.179867 -1.31656e-20)
(-0.751114 0.508002 0)
(-0.694707 0.162961 0)
(-0.28031 0.0801047 2.91112e-21)
(-0.874227 0.627435 6.42585e-21)
(-0.741861 0.0934028 0)
(-0.186563 0.0222505 7.70357e-21)
(-0.973239 0.480961 -4.77843e-21)
(-0.562075 -0.0294406 0)
(-0.2346 0.19318 0)
(-0.616989 0.349603 1.14967e-20)
(-0.61222 0.223744 -5.71034e-21)
(-0.42474 0.178603 6.06007e-21)
(-1.03106 0.45193 0)
(-0.565263 -0.0977889 0)
(-0.217649 0.213295 -2.11675e-20)
(-0.672008 0.423453 0)
(-0.352167 0.128096 3.32922e-21)
(-0.657769 0.201771 0)
(-0.977437 0.423848 -1.08584e-20)
(-0.50382 -0.0462709 -1.32803e-20)
(-0.303146 0.267388 -1.7682e-21)
(-0.87724 0.605963 6.47296e-21)
(-0.717789 0.0859988 0)
(-0.190196 0.0401094 1.58277e-20)
(-0.63164 0.374842 -1.1403e-20)
(-0.614194 0.378 -5.09359e-21)
(-0.629852 0.216246 5.57754e-21)
(-0.399405 0.160299 -1.19603e-20)
(-0.660111 0.230738 0)
(-0.392684 0.141107 -2.13871e-20)
(-0.582199 0.392767 -5.1766e-21)
(-0.378116 0.0941245 1.42536e-20)
(-0.556753 0.391655 3.33393e-21)
(-0.723801 0.258396 -1.25779e-20)
(-0.384692 0.0760853 -6.84078e-21)
(-0.758869 0.279749 2.67805e-22)
(-0.81032 0.534119 5.97916e-21)
(-0.841269 0.533881 0)
(-0.672163 0.124342 1.18664e-20)
(-0.652375 0.104362 -9.25983e-21)
(-0.249582 0.0867512 -1.37636e-20)
(-0.243331 0.100238 2.29025e-20)
(-0.100847 0.0437178 0)
(-0.729707 -0.042466 -5.3579e-21)
(-0.979264 0.607992 -9.18919e-21)
(-0.516549 0.506349 8.16092e-21)
(-0.987963 0.277682 1.08515e-20)
(-0.380557 -0.109916 -2.24572e-20)
(-0.091303 0.0448242 -1.1503e-20)
(-0.0969112 0.0586304 9.17401e-21)
(-0.732736 -0.0643249 4.63088e-21)
(-0.714832 -0.0740339 7.95173e-21)
(-0.981913 0.598014 2.34338e-20)
(-0.992506 0.581068 -1.2174e-20)
(-0.632958 0.558577 1.10624e-20)
(-0.31111 -0.0554302 -1.03886e-20)
(-0.896888 0.234646 2.4699e-21)
(-0.599198 0.307845 1.94277e-20)
(-0.478673 0.222345 0)
(-0.567313 0.226607 -1.94589e-20)
(-1.03102 0.467974 -4.35697e-21)
(-0.585181 -0.097505 -1.17108e-20)
(-0.196101 0.190023 0)
(-0.712862 0.486112 0)
(-0.297931 0.0768089 -2.77531e-21)
(-0.705877 0.187264 -9.88554e-21)
(-0.893534 0.606091 0)
(-0.708228 0.0731663 0)
(-0.181958 0.0472809 -1.47498e-20)
(-0.964099 0.631544 -9.99317e-21)
(-0.968758 0.61551 0)
(-0.734975 -0.00767255 2.80944e-21)
(-0.116273 0.0336861 -1.40552e-20)
(-0.716374 -0.00954946 -7.66688e-21)
(-0.12365 0.0482826 1.90125e-20)
(-0.995576 0.508736 8.99676e-21)
(-0.602982 -0.0453556 1.08683e-20)
(-0.190359 0.154996 7.70999e-21)
(-0.73332 0.441997 6.86405e-21)