/*--------------------------------*- C++ -*----------------------------------*\
  =========                 |
  \\      /  F ield         | OpenFOAM: The Open Source CFD Toolbox
   \\    /   O peration     | Website:  https://openfoam.org
    \\  /    A nd           | Version:  6
     \\/     M anipulation  |
\*---------------------------------------------------------------------------*/
FoamFile
{
    version     2.0;
    format      ascii;
    class       volScalarField;
    location    "0";
    object      p;
}
// * * * * * * * * * * * * * * * * * * * * * * * * * * * * * * * * * * * * * //

dimensions      [0 2 -2 0 0 0 0];

internalField   nonuniform List<scalar> 
145945
(
2.12128e-06
2.121e-06
2.12106e-06
2.12115e-06
2.12135e-06
2.12148e-06
2.12163e-06
2.1217e-06
2.12175e-06
2.12172e-06
2.12167e-06
2.12154e-06
2.12143e-06
2.12125e-06
2.12119e-06
2.12108e-06
2.12138e-06
2.121e-06
2.12091e-06
2.12101e-06
2.12116e-06
2.12138e-06
2.12154e-06
2.12169e-06
2.12177e-06
2.12182e-06
2.12179e-06
2.12173e-06
2.1216e-06
2.12147e-06
2.12128e-06
2.12116e-06
2.12102e-06
2.1211e-06
2.12106e-06
2.12101e-06
2.12112e-06
2.12132e-06
2.12156e-06
2.12174e-06
2.12189e-06
2.12199e-06
2.12203e-06
2.12201e-06
2.12194e-06
2.12181e-06
2.12166e-06
2.12145e-06
2.12128e-06
2.12112e-06
2.12116e-06
2.12115e-06
2.12116e-06
2.12132e-06
2.12157e-06
2.12183e-06
2.12203e-06
2.12219e-06
2.12229e-06
2.12234e-06
2.12232e-06
2.12224e-06
2.1221e-06
2.12194e-06
2.12172e-06
2.1215e-06
2.12129e-06
2.12126e-06
2.12135e-06
2.12138e-06
2.12156e-06
2.12183e-06
2.1221e-06
2.12231e-06
2.12247e-06
2.12257e-06
2.12262e-06
2.1226e-06
2.12252e-06
2.12238e-06
2.12221e-06
2.12198e-06
2.12174e-06
2.12151e-06
2.12146e-06
2.12148e-06
2.12154e-06
2.12174e-06
2.12203e-06
2.12231e-06
2.12253e-06
2.12269e-06
2.1228e-06
2.12285e-06
2.12283e-06
2.12275e-06
2.12261e-06
2.12242e-06
2.12218e-06
2.12193e-06
2.12168e-06
2.1216e-06
2.12163e-06
2.12169e-06
2.12189e-06
2.12219e-06
2.12247e-06
2.12269e-06
2.12286e-06
2.12297e-06
2.12302e-06
2.123e-06
2.12292e-06
2.12277e-06
2.12259e-06
2.12235e-06
2.12208e-06
2.12183e-06
2.12174e-06
2.1217e-06
2.12177e-06
2.12199e-06
2.12229e-06
2.12257e-06
2.1228e-06
2.12297e-06
2.12308e-06
2.12313e-06
2.12311e-06
2.12303e-06
2.12288e-06
2.12269e-06
2.12245e-06
2.12218e-06
2.12191e-06
2.12182e-06
2.12175e-06
2.12182e-06
2.12203e-06
2.12234e-06
2.12262e-06
2.12285e-06
2.12302e-06
2.12313e-06
2.12318e-06
2.12316e-06
2.12308e-06
2.12293e-06
2.12274e-06
2.1225e-06
2.12223e-06
2.12196e-06
2.12187e-06
2.12172e-06
2.12179e-06
2.12201e-06
2.12232e-06
2.1226e-06
2.12283e-06
2.123e-06
2.12311e-06
2.12316e-06
2.12314e-06
2.12306e-06
2.12291e-06
2.12272e-06
2.12248e-06
2.1222e-06
2.12194e-06
2.12184e-06
2.12167e-06
2.12173e-06
2.12194e-06
2.12224e-06
2.12252e-06
2.12275e-06
2.12292e-06
2.12303e-06
2.12308e-06
2.12306e-06
2.12297e-06
2.12283e-06
2.12264e-06
2.1224e-06
2.12213e-06
2.12187e-06
2.12178e-06
2.12154e-06
2.1216e-06
2.12181e-06
2.1221e-06
2.12238e-06
2.12261e-06
2.12278e-06
2.12288e-06
2.12293e-06
2.12291e-06
2.12283e-06
2.12269e-06
2.1225e-06
2.12226e-06
2.122e-06
2.12174e-06
2.12166e-06
2.12143e-06
2.12147e-06
2.12166e-06
2.12194e-06
2.12221e-06
2.12242e-06
2.12259e-06
2.12269e-06
2.12274e-06
2.12272e-06
2.12264e-06
2.1225e-06
2.12232e-06
2.12209e-06
2.12184e-06
2.12161e-06
2.12154e-06
2.12125e-06
2.12128e-06
2.12145e-06
2.12172e-06
2.12198e-06
2.12218e-06
2.12235e-06
2.12245e-06
2.1225e-06
2.12248e-06
2.1224e-06
2.12226e-06
2.12209e-06
2.12186e-06
2.12163e-06
2.12141e-06
2.12136e-06
2.12119e-06
2.12116e-06
2.12128e-06
2.1215e-06
2.12174e-06
2.12193e-06
2.12209e-06
2.12218e-06
2.12223e-06
2.12221e-06
2.12213e-06
2.122e-06
2.12184e-06
2.12163e-06
2.12145e-06
2.12128e-06
2.1213e-06
2.12108e-06
2.12102e-06
2.12112e-06
2.12129e-06
2.12151e-06
2.12168e-06
2.12183e-06
2.12191e-06
2.12196e-06
2.12194e-06
2.12187e-06
2.12174e-06
2.12161e-06
2.12141e-06
2.12128e-06
2.12112e-06
2.12119e-06
2.12138e-06
2.1211e-06
2.12116e-06
2.12126e-06
2.12146e-06
2.1216e-06
2.12174e-06
2.12182e-06
2.12187e-06
2.12184e-06
2.12178e-06
2.12166e-06
2.12154e-06
2.12136e-06
2.1213e-06
2.12119e-06
2.12148e-06
2.04667e-06
2.04668e-06
2.04703e-06
2.04737e-06
2.04777e-06
2.04809e-06
2.04835e-06
2.04852e-06
2.04859e-06
2.04855e-06
2.04842e-06
2.04818e-06
2.04789e-06
2.04752e-06
2.0472e-06
2.0468e-06
2.04676e-06
2.04668e-06
2.04687e-06
2.04725e-06
2.04767e-06
2.04809e-06
2.04845e-06
2.04873e-06
2.0489e-06
2.04898e-06
2.04894e-06
2.0488e-06
2.04855e-06
2.04823e-06
2.04783e-06
2.04744e-06
2.047e-06
2.04677e-06
2.04703e-06
2.04725e-06
2.04764e-06
2.04811e-06
2.04856e-06
2.04894e-06
2.04924e-06
2.04942e-06
2.04951e-06
2.04946e-06
2.04931e-06
2.04905e-06
2.04871e-06
2.04828e-06
2.04784e-06
2.04739e-06
2.04712e-06
2.04737e-06
2.04767e-06
2.04811e-06
2.04862e-06
2.0491e-06
2.0495e-06
2.04981e-06
2.05e-06
2.05008e-06
2.05004e-06
2.04988e-06
2.04961e-06
2.04925e-06
2.0488e-06
2.04831e-06
2.04782e-06
2.04747e-06
2.04777e-06
2.04809e-06
2.04856e-06
2.0491e-06
2.0496e-06
2.05002e-06
2.05033e-06
2.05053e-06
2.05062e-06
2.05057e-06
2.05041e-06
2.05013e-06
2.04976e-06
2.04929e-06
2.04878e-06
2.04826e-06
2.04787e-06
2.04809e-06
2.04845e-06
2.04894e-06
2.0495e-06
2.05002e-06
2.05044e-06
2.05076e-06
2.05097e-06
2.05105e-06
2.05101e-06
2.05084e-06
2.05056e-06
2.05018e-06
2.0497e-06
2.04916e-06
2.04861e-06
2.04819e-06
2.04835e-06
2.04873e-06
2.04924e-06
2.04981e-06
2.05033e-06
2.05076e-06
2.05109e-06
2.05129e-06
2.05138e-06
2.05134e-06
2.05117e-06
2.05088e-06
2.05049e-06
2.05001e-06
2.04946e-06
2.0489e-06
2.04846e-06
2.04852e-06
2.0489e-06
2.04942e-06
2.05e-06
2.05053e-06
2.05097e-06
2.05129e-06
2.0515e-06
2.05159e-06
2.05155e-06
2.05138e-06
2.05109e-06
2.0507e-06
2.05021e-06
2.04965e-06
2.04907e-06
2.04862e-06
2.04859e-06
2.04898e-06
2.0495e-06
2.05008e-06
2.05062e-06
2.05105e-06
2.05138e-06
2.05159e-06
2.05168e-06
2.05164e-06
2.05147e-06
2.05118e-06
2.05078e-06
2.05029e-06
2.04973e-06
2.04915e-06
2.0487e-06
2.04855e-06
2.04894e-06
2.04946e-06
2.05004e-06
2.05057e-06
2.05101e-06
2.05134e-06
2.05155e-06
2.05164e-06
2.05159e-06
2.05142e-06
2.05113e-06
2.05074e-06
2.05025e-06
2.04969e-06
2.04911e-06
2.04866e-06
2.04842e-06
2.0488e-06
2.04931e-06
2.04988e-06
2.05041e-06
2.05084e-06
2.05117e-06
2.05138e-06
2.05147e-06
2.05142e-06
2.05125e-06
2.05097e-06
2.05058e-06
2.05009e-06
2.04954e-06
2.04897e-06
2.04852e-06
2.04818e-06
2.04855e-06
2.04905e-06
2.04961e-06
2.05013e-06
2.05056e-06
2.05088e-06
2.05109e-06
2.05118e-06
2.05113e-06
2.05097e-06
2.05068e-06
2.05029e-06
2.04981e-06
2.04927e-06
2.04872e-06
2.04829e-06
2.04789e-06
2.04823e-06
2.04871e-06
2.04925e-06
2.04976e-06
2.05018e-06
2.05049e-06
2.0507e-06
2.05078e-06
2.05074e-06
2.05058e-06
2.05029e-06
2.04992e-06
2.04945e-06
2.04892e-06
2.04839e-06
2.04799e-06
2.04752e-06
2.04783e-06
2.04828e-06
2.0488e-06
2.04929e-06
2.0497e-06
2.05001e-06
2.05021e-06
2.05029e-06
2.05025e-06
2.05009e-06
2.04981e-06
2.04945e-06
2.04899e-06
2.04849e-06
2.04799e-06
2.04762e-06
2.0472e-06
2.04744e-06
2.04784e-06
2.04831e-06
2.04878e-06
2.04916e-06
2.04946e-06
2.04965e-06
2.04973e-06
2.04969e-06
2.04954e-06
2.04927e-06
2.04892e-06
2.04849e-06
2.04804e-06
2.04758e-06
2.04729e-06
2.0468e-06
2.047e-06
2.04739e-06
2.04782e-06
2.04826e-06
2.04861e-06
2.0489e-06
2.04908e-06
2.04915e-06
2.04911e-06
2.04897e-06
2.04872e-06
2.04839e-06
2.04799e-06
2.04758e-06
2.04714e-06
2.04689e-06
2.04676e-06
2.04677e-06
2.04712e-06
2.04747e-06
2.04787e-06
2.04819e-06
2.04846e-06
2.04862e-06
2.0487e-06
2.04866e-06
2.04852e-06
2.04829e-06
2.04799e-06
2.04762e-06
2.04729e-06
2.04689e-06
2.04685e-06
1.99107e-06
1.99235e-06
1.99359e-06
1.99467e-06
1.99565e-06
1.99638e-06
1.99691e-06
1.99723e-06
1.99736e-06
1.99728e-06
1.997e-06
1.99651e-06
1.99582e-06
1.99488e-06
1.99378e-06
1.99242e-06
1.99106e-06
1.99235e-06
1.99349e-06
1.99468e-06
1.99578e-06
1.99674e-06
1.99747e-06
1.99801e-06
1.99833e-06
1.99845e-06
1.99837e-06
1.99809e-06
1.9976e-06
1.99692e-06
1.99598e-06
1.99487e-06
1.99355e-06
1.99235e-06
1.99359e-06
1.99469e-06
1.9958e-06
1.99686e-06
1.99779e-06
1.99851e-06
1.99903e-06
1.99935e-06
1.99947e-06
1.99939e-06
1.99912e-06
1.99864e-06
1.99796e-06
1.99706e-06
1.99597e-06
1.99473e-06
1.99358e-06
1.99467e-06
1.99578e-06
1.99686e-06
1.9979e-06
1.9988e-06
1.99951e-06
2.00003e-06
2.00034e-06
2.00046e-06
2.00038e-06
2.00011e-06
1.99964e-06
1.99897e-06
1.99809e-06
1.99702e-06
1.99583e-06
1.99467e-06
1.99565e-06
1.99674e-06
1.99779e-06
1.9988e-06
1.99969e-06
2.00039e-06
2.0009e-06
2.00121e-06
2.00133e-06
2.00125e-06
2.00098e-06
2.00052e-06
1.99986e-06
1.999e-06
1.99795e-06
1.99679e-06
1.99564e-06
1.99638e-06
1.99747e-06
1.99851e-06
1.99951e-06
2.00039e-06
2.00108e-06
2.00158e-06
2.00189e-06
2.00201e-06
2.00193e-06
2.00167e-06
2.00121e-06
2.00056e-06
1.9997e-06
1.99866e-06
1.99752e-06
1.99637e-06
1.99691e-06
1.99801e-06
1.99903e-06
2.00003e-06
2.0009e-06
2.00158e-06
2.00208e-06
2.00238e-06
2.0025e-06
2.00243e-06
2.00216e-06
2.00171e-06
2.00106e-06
2.00021e-06
1.99919e-06
1.99805e-06
1.99691e-06
1.99723e-06
1.99833e-06
1.99935e-06
2.00034e-06
2.00121e-06
2.00189e-06
2.00238e-06
2.00269e-06
2.00281e-06
2.00273e-06
2.00247e-06
2.00201e-06
2.00137e-06
2.00053e-06
1.9995e-06
1.99837e-06
1.99723e-06
1.99736e-06
1.99845e-06
1.99947e-06
2.00046e-06
2.00133e-06
2.00201e-06
2.0025e-06
2.00281e-06
2.00292e-06
2.00285e-06
2.00258e-06
2.00213e-06
2.00149e-06
2.00065e-06
1.99963e-06
1.9985e-06
1.99735e-06
1.99728e-06
1.99837e-06
1.99939e-06
2.00038e-06
2.00125e-06
2.00193e-06
2.00243e-06
2.00273e-06
2.00285e-06
2.00277e-06
2.00251e-06
2.00206e-06
2.00141e-06
2.00057e-06
1.99955e-06
1.99842e-06
1.99727e-06
1.997e-06
1.99809e-06
1.99912e-06
2.00011e-06
2.00098e-06
2.00167e-06
2.00216e-06
2.00247e-06
2.00258e-06
2.00251e-06
2.00224e-06
2.00179e-06
2.00114e-06
2.0003e-06
1.99927e-06
1.99814e-06
1.99699e-06
1.99651e-06
1.9976e-06
1.99864e-06
1.99964e-06
2.00052e-06
2.00121e-06
2.00171e-06
2.00201e-06
2.00213e-06
2.00206e-06
2.00179e-06
2.00133e-06
2.00068e-06
1.99983e-06
1.99879e-06
1.99765e-06
1.9965e-06
1.99582e-06
1.99692e-06
1.99796e-06
1.99897e-06
1.99986e-06
2.00056e-06
2.00106e-06
2.00137e-06
2.00149e-06
2.00141e-06
2.00114e-06
2.00068e-06
2.00002e-06
1.99916e-06
1.99812e-06
1.99696e-06
1.99582e-06
1.99488e-06
1.99599e-06
1.99706e-06
1.99809e-06
1.999e-06
1.9997e-06
2.00021e-06
2.00053e-06
2.00065e-06
2.00057e-06
2.0003e-06
1.99983e-06
1.99916e-06
1.99829e-06
1.99722e-06
1.99603e-06
1.99487e-06
1.99378e-06
1.99487e-06
1.99597e-06
1.99702e-06
1.99795e-06
1.99867e-06
1.99919e-06
1.9995e-06
1.99963e-06
1.99955e-06
1.99927e-06
1.99879e-06
1.99812e-06
1.99722e-06
1.99614e-06
1.99492e-06
1.99378e-06
1.99242e-06
1.99355e-06
1.99473e-06
1.99583e-06
1.99679e-06
1.99752e-06
1.99805e-06
1.99837e-06
1.9985e-06
1.99842e-06
1.99814e-06
1.99765e-06
1.99696e-06
1.99603e-06
1.99492e-06
1.99361e-06
1.99242e-06
1.99106e-06
1.99235e-06
1.99358e-06
1.99467e-06
1.99564e-06
1.99637e-06
1.99691e-06
1.99723e-06
1.99736e-06
1.99727e-06
1.99699e-06
1.9965e-06
1.99582e-06
1.99487e-06
1.99377e-06
1.99242e-06
1.99105e-06
1.9372e-06
1.93936e-06
1.94132e-06
1.94316e-06
1.94473e-06
1.9459e-06
1.94673e-06
1.94724e-06
1.94743e-06
1.9473e-06
1.94686e-06
1.94609e-06
1.945e-06
1.94351e-06
1.94166e-06
1.93953e-06
1.93721e-06
1.93936e-06
1.94117e-06
1.94308e-06
1.94489e-06
1.94642e-06
1.94757e-06
1.94839e-06
1.94889e-06
1.94908e-06
1.94896e-06
1.94852e-06
1.94776e-06
1.94669e-06
1.94523e-06
1.94342e-06
1.94132e-06
1.93938e-06
1.94132e-06
1.94308e-06
1.94492e-06
1.94666e-06
1.94813e-06
1.94924e-06
1.95003e-06
1.95051e-06
1.95069e-06
1.95057e-06
1.95015e-06
1.94942e-06
1.94839e-06
1.94699e-06
1.94524e-06
1.94322e-06
1.94133e-06
1.94316e-06
1.94489e-06
1.94666e-06
1.94834e-06
1.94976e-06
1.95084e-06
1.9516e-06
1.95207e-06
1.95225e-06
1.95213e-06
1.95172e-06
1.95102e-06
1.95001e-06
1.94867e-06
1.94697e-06
1.94502e-06
1.94318e-06
1.94473e-06
1.94642e-06
1.94813e-06
1.94976e-06
1.95114e-06
1.95219e-06
1.95293e-06
1.95338e-06
1.95356e-06
1.95344e-06
1.95305e-06
1.95236e-06
1.95138e-06
1.95008e-06
1.94843e-06
1.94655e-06
1.94475e-06
1.9459e-06
1.94757e-06
1.94924e-06
1.95084e-06
1.95219e-06
1.95321e-06
1.95394e-06
1.95439e-06
1.95456e-06
1.95445e-06
1.95406e-06
1.95339e-06
1.95243e-06
1.95115e-06
1.94954e-06
1.9477e-06
1.94591e-06
1.94673e-06
1.94839e-06
1.95003e-06
1.9516e-06
1.95293e-06
1.95394e-06
1.95466e-06
1.9551e-06
1.95526e-06
1.95516e-06
1.95477e-06
1.95411e-06
1.95317e-06
1.95191e-06
1.95032e-06
1.94852e-06
1.94675e-06
1.94724e-06
1.94889e-06
1.95051e-06
1.95207e-06
1.95338e-06
1.95439e-06
1.9551e-06
1.95553e-06
1.9557e-06
1.95559e-06
1.95521e-06
1.95455e-06
1.95362e-06
1.95237e-06
1.9508e-06
1.94902e-06
1.94725e-06
1.94743e-06
1.94908e-06
1.95069e-06
1.95225e-06
1.95356e-06
1.95456e-06
1.95526e-06
1.9557e-06
1.95586e-06
1.95575e-06
1.95538e-06
1.95472e-06
1.95379e-06
1.95255e-06
1.95098e-06
1.94921e-06
1.94745e-06
1.9473e-06
1.94895e-06
1.95057e-06
1.95213e-06
1.95344e-06
1.95445e-06
1.95516e-06
1.95559e-06
1.95575e-06
1.95565e-06
1.95527e-06
1.95461e-06
1.95368e-06
1.95243e-06
1.95086e-06
1.94908e-06
1.94732e-06
1.94686e-06
1.94852e-06
1.95015e-06
1.95172e-06
1.95305e-06
1.95406e-06
1.95477e-06
1.95521e-06
1.95538e-06
1.95527e-06
1.95489e-06
1.95423e-06
1.95328e-06
1.95203e-06
1.95044e-06
1.94865e-06
1.94688e-06
1.94609e-06
1.94776e-06
1.94942e-06
1.95102e-06
1.95236e-06
1.95339e-06
1.95411e-06
1.95456e-06
1.95472e-06
1.95461e-06
1.95423e-06
1.95356e-06
1.9526e-06
1.95133e-06
1.94972e-06
1.94789e-06
1.9461e-06
1.945e-06
1.94669e-06
1.94839e-06
1.95001e-06
1.95138e-06
1.95243e-06
1.95317e-06
1.95362e-06
1.95379e-06
1.95368e-06
1.95328e-06
1.9526e-06
1.95163e-06
1.95033e-06
1.94869e-06
1.94682e-06
1.94502e-06
1.94351e-06
1.94523e-06
1.94699e-06
1.94867e-06
1.95008e-06
1.95115e-06
1.95191e-06
1.95237e-06
1.95255e-06
1.95243e-06
1.95203e-06
1.95133e-06
1.95033e-06
1.94899e-06
1.9473e-06
1.94536e-06
1.94352e-06
1.94166e-06
1.94342e-06
1.94524e-06
1.94697e-06
1.94843e-06
1.94954e-06
1.95032e-06
1.9508e-06
1.95098e-06
1.95086e-06
1.95045e-06
1.94972e-06
1.94869e-06
1.9473e-06
1.94557e-06
1.94355e-06
1.94167e-06
1.93953e-06
1.94132e-06
1.94322e-06
1.94502e-06
1.94655e-06
1.9477e-06
1.94852e-06
1.94902e-06
1.94921e-06
1.94908e-06
1.94865e-06
1.94789e-06
1.94682e-06
1.94536e-06
1.94355e-06
1.94147e-06
1.93954e-06
1.93721e-06
1.93938e-06
1.94133e-06
1.94318e-06
1.94475e-06
1.94591e-06
1.94675e-06
1.94725e-06
1.94745e-06
1.94732e-06
1.94688e-06
1.9461e-06
1.94502e-06
1.94352e-06
1.94167e-06
1.93954e-06
1.93721e-06
1.88487e-06
1.88736e-06
1.88956e-06
1.89172e-06
1.89352e-06
1.89489e-06
1.89586e-06
1.89645e-06
1.89668e-06
1.89653e-06
1.89601e-06
1.89511e-06
1.89383e-06
1.89211e-06
1.88993e-06
1.88755e-06
1.88487e-06
1.88736e-06
1.88942e-06
1.8916e-06
1.89371e-06
1.8955e-06
1.89685e-06
1.89782e-06
1.89841e-06
1.89864e-06
1.89849e-06
1.89797e-06
1.89708e-06
1.89581e-06
1.8941e-06
1.89198e-06
1.88959e-06
1.88737e-06
1.88956e-06
1.8916e-06
1.89375e-06
1.89579e-06
1.89752e-06
1.89883e-06
1.89977e-06
1.90034e-06
1.90056e-06
1.90042e-06
1.89992e-06
1.89905e-06
1.89782e-06
1.89617e-06
1.89411e-06
1.89175e-06
1.88957e-06
1.89172e-06
1.89371e-06
1.89579e-06
1.89777e-06
1.89945e-06
1.90073e-06
1.90165e-06
1.9022e-06
1.90241e-06
1.90228e-06
1.90179e-06
1.90094e-06
1.89974e-06
1.89815e-06
1.89615e-06
1.89386e-06
1.89173e-06
1.89352e-06
1.8955e-06
1.89752e-06
1.89945e-06
1.90109e-06
1.90234e-06
1.90323e-06
1.90378e-06
1.90398e-06
1.90385e-06
1.90337e-06
1.90255e-06
1.90138e-06
1.89982e-06
1.89787e-06
1.89564e-06
1.89354e-06
1.89489e-06
1.89685e-06
1.89883e-06
1.90073e-06
1.90234e-06
1.90357e-06
1.90445e-06
1.90498e-06
1.90519e-06
1.90505e-06
1.90458e-06
1.90378e-06
1.90263e-06
1.9011e-06
1.89918e-06
1.897e-06
1.8949e-06
1.89586e-06
1.89782e-06
1.89977e-06
1.90164e-06
1.90323e-06
1.90445e-06
1.90531e-06
1.90584e-06
1.90604e-06
1.90591e-06
1.90545e-06
1.90465e-06
1.90351e-06
1.90201e-06
1.90011e-06
1.89797e-06
1.89588e-06
1.89645e-06
1.89841e-06
1.90034e-06
1.9022e-06
1.90378e-06
1.90498e-06
1.90584e-06
1.90636e-06
1.90656e-06
1.90643e-06
1.90597e-06
1.90518e-06
1.90406e-06
1.90256e-06
1.90068e-06
1.89856e-06
1.89647e-06
1.89668e-06
1.89864e-06
1.90056e-06
1.90241e-06
1.90398e-06
1.90519e-06
1.90604e-06
1.90656e-06
1.90676e-06
1.90663e-06
1.90617e-06
1.90539e-06
1.90426e-06
1.90277e-06
1.9009e-06
1.89878e-06
1.8967e-06
1.89653e-06
1.89849e-06
1.90042e-06
1.90227e-06
1.90385e-06
1.90505e-06
1.90591e-06
1.90643e-06
1.90663e-06
1.9065e-06
1.90604e-06
1.90525e-06
1.90413e-06
1.90263e-06
1.90076e-06
1.89863e-06
1.89655e-06
1.89601e-06
1.89797e-06
1.89991e-06
1.90179e-06
1.90337e-06
1.90458e-06
1.90545e-06
1.90597e-06
1.90617e-06
1.90604e-06
1.90558e-06
1.90479e-06
1.90365e-06
1.90215e-06
1.90026e-06
1.89812e-06
1.89603e-06
1.89511e-06
1.89708e-06
1.89905e-06
1.90094e-06
1.90255e-06
1.90378e-06
1.90465e-06
1.90518e-06
1.90539e-06
1.90525e-06
1.90479e-06
1.90398e-06
1.90283e-06
1.90131e-06
1.8994e-06
1.89722e-06
1.89512e-06
1.89383e-06
1.89581e-06
1.89782e-06
1.89974e-06
1.90138e-06
1.90263e-06
1.90351e-06
1.90406e-06
1.90426e-06
1.90413e-06
1.90365e-06
1.90283e-06
1.90166e-06
1.90011e-06
1.89817e-06
1.89595e-06
1.89385e-06
1.89212e-06
1.8941e-06
1.89617e-06
1.89815e-06
1.89982e-06
1.9011e-06
1.90201e-06
1.90256e-06
1.90277e-06
1.90263e-06
1.90215e-06
1.90131e-06
1.90011e-06
1.89852e-06
1.89653e-06
1.89425e-06
1.89213e-06
1.88993e-06
1.89198e-06
1.89412e-06
1.89615e-06
1.89787e-06
1.89918e-06
1.90012e-06
1.90068e-06
1.9009e-06
1.90076e-06
1.90026e-06
1.8994e-06
1.89817e-06
1.89653e-06
1.89448e-06
1.89213e-06
1.88994e-06
1.88755e-06
1.88959e-06
1.89175e-06
1.89386e-06
1.89565e-06
1.897e-06
1.89797e-06
1.89856e-06
1.89878e-06
1.89864e-06
1.89812e-06
1.89722e-06
1.89595e-06
1.89425e-06
1.89213e-06
1.88975e-06
1.88756e-06
1.88487e-06
1.88737e-06
1.88957e-06
1.89173e-06
1.89354e-06
1.8949e-06
1.89588e-06
1.89647e-06
1.8967e-06
1.89655e-06
1.89603e-06
1.89512e-06
1.89385e-06
1.89213e-06
1.88994e-06
1.88756e-06
1.88488e-06
1.83665e-06
1.83924e-06
1.84149e-06
1.84377e-06
1.84564e-06
1.84707e-06
1.8481e-06
1.84872e-06
1.84896e-06
1.8488e-06
1.84825e-06
1.8473e-06
1.84596e-06
1.84417e-06
1.84186e-06
1.83942e-06
1.83664e-06
1.83924e-06
1.84138e-06
1.84363e-06
1.84585e-06
1.84773e-06
1.84917e-06
1.85019e-06
1.85082e-06
1.85105e-06
1.8509e-06
1.85035e-06
1.84939e-06
1.84805e-06
1.84626e-06
1.84401e-06
1.84154e-06
1.83923e-06
1.84149e-06
1.84363e-06
1.84589e-06
1.84805e-06
1.84988e-06
1.85128e-06
1.85227e-06
1.85288e-06
1.85311e-06
1.85296e-06
1.85242e-06
1.8515e-06
1.85019e-06
1.84844e-06
1.84626e-06
1.84378e-06
1.84149e-06
1.84377e-06
1.84585e-06
1.84805e-06
1.85014e-06
1.85193e-06
1.8533e-06
1.85428e-06
1.85487e-06
1.8551e-06
1.85495e-06
1.85442e-06
1.85352e-06
1.85223e-06
1.85053e-06
1.84841e-06
1.84599e-06
1.84376e-06
1.84564e-06
1.84773e-06
1.84988e-06
1.85193e-06
1.85368e-06
1.85502e-06
1.85598e-06
1.85657e-06
1.85679e-06
1.85664e-06
1.85613e-06
1.85524e-06
1.85398e-06
1.85231e-06
1.85023e-06
1.84786e-06
1.84563e-06
1.84707e-06
1.84917e-06
1.85127e-06
1.8533e-06
1.85502e-06
1.85635e-06
1.85729e-06
1.85787e-06
1.85809e-06
1.85794e-06
1.85744e-06
1.85656e-06
1.85532e-06
1.85367e-06
1.85162e-06
1.8493e-06
1.84707e-06
1.8481e-06
1.85019e-06
1.85227e-06
1.85428e-06
1.85598e-06
1.85729e-06
1.85823e-06
1.8588e-06
1.85901e-06
1.85887e-06
1.85837e-06
1.8575e-06
1.85627e-06
1.85465e-06
1.85262e-06
1.85032e-06
1.84809e-06
1.84872e-06
1.85082e-06
1.85288e-06
1.85487e-06
1.85657e-06
1.85787e-06
1.8588e-06
1.85937e-06
1.85958e-06
1.85944e-06
1.85894e-06
1.85808e-06
1.85686e-06
1.85524e-06
1.85322e-06
1.85095e-06
1.84872e-06
1.84896e-06
1.85105e-06
1.85311e-06
1.8551e-06
1.85679e-06
1.85809e-06
1.85901e-06
1.85958e-06
1.8598e-06
1.85965e-06
1.85915e-06
1.8583e-06
1.85708e-06
1.85547e-06
1.85345e-06
1.85119e-06
1.84895e-06
1.8488e-06
1.8509e-06
1.85296e-06
1.85495e-06
1.85664e-06
1.85794e-06
1.85887e-06
1.85944e-06
1.85965e-06
1.85951e-06
1.85901e-06
1.85815e-06
1.85693e-06
1.85532e-06
1.8533e-06
1.85103e-06
1.84879e-06
1.84825e-06
1.85035e-06
1.85242e-06
1.85442e-06
1.85613e-06
1.85744e-06
1.85837e-06
1.85894e-06
1.85915e-06
1.85901e-06
1.85851e-06
1.85765e-06
1.85642e-06
1.85479e-06
1.85276e-06
1.85048e-06
1.84825e-06
1.8473e-06
1.84939e-06
1.8515e-06
1.85352e-06
1.85524e-06
1.85656e-06
1.8575e-06
1.85808e-06
1.8583e-06
1.85815e-06
1.85765e-06
1.85678e-06
1.85553e-06
1.85389e-06
1.85184e-06
1.84953e-06
1.84729e-06
1.84596e-06
1.84805e-06
1.85018e-06
1.85223e-06
1.85398e-06
1.85532e-06
1.85627e-06
1.85686e-06
1.85708e-06
1.85693e-06
1.85642e-06
1.85553e-06
1.85427e-06
1.85261e-06
1.85054e-06
1.84818e-06
1.84595e-06
1.84417e-06
1.84626e-06
1.84844e-06
1.85053e-06
1.85231e-06
1.85367e-06
1.85465e-06
1.85524e-06
1.85547e-06
1.85532e-06
1.85479e-06
1.85389e-06
1.85261e-06
1.85091e-06
1.8488e-06
1.84639e-06
1.84417e-06
1.84186e-06
1.84401e-06
1.84626e-06
1.84841e-06
1.85023e-06
1.85162e-06
1.85262e-06
1.85322e-06
1.85345e-06
1.8533e-06
1.85277e-06
1.85185e-06
1.85054e-06
1.8488e-06
1.84663e-06
1.84415e-06
1.84186e-06
1.83942e-06
1.84154e-06
1.84378e-06
1.84599e-06
1.84786e-06
1.8493e-06
1.85032e-06
1.85095e-06
1.85119e-06
1.85103e-06
1.85048e-06
1.84953e-06
1.84818e-06
1.84639e-06
1.84415e-06
1.8417e-06
1.83941e-06
1.83664e-06
1.83923e-06
1.84149e-06
1.84376e-06
1.84563e-06
1.84707e-06
1.84809e-06
1.84872e-06
1.84895e-06
1.84879e-06
1.84825e-06
1.84729e-06
1.84595e-06
1.84417e-06
1.84185e-06
1.83941e-06
1.83664e-06
1.79237e-06
1.79487e-06
1.79706e-06
1.79932e-06
1.80116e-06
1.80258e-06
1.8036e-06
1.80422e-06
1.80446e-06
1.8043e-06
1.80375e-06
1.80281e-06
1.80147e-06
1.79972e-06
1.79742e-06
1.79505e-06
1.79236e-06
1.79487e-06
1.79697e-06
1.79917e-06
1.80138e-06
1.80323e-06
1.80467e-06
1.8057e-06
1.80633e-06
1.80656e-06
1.8064e-06
1.80585e-06
1.8049e-06
1.80355e-06
1.80178e-06
1.79953e-06
1.79712e-06
1.79487e-06
1.79706e-06
1.79917e-06
1.80141e-06
1.80356e-06
1.80539e-06
1.80679e-06
1.8078e-06
1.80841e-06
1.80864e-06
1.80849e-06
1.80795e-06
1.80701e-06
1.80569e-06
1.80395e-06
1.80177e-06
1.79931e-06
1.79706e-06
1.79932e-06
1.80138e-06
1.80356e-06
1.80566e-06
1.80745e-06
1.80884e-06
1.80983e-06
1.81043e-06
1.81066e-06
1.81051e-06
1.80997e-06
1.80906e-06
1.80776e-06
1.80604e-06
1.80392e-06
1.80151e-06
1.79931e-06
1.80116e-06
1.80323e-06
1.80539e-06
1.80745e-06
1.80922e-06
1.81059e-06
1.81156e-06
1.81216e-06
1.81238e-06
1.81223e-06
1.81171e-06
1.81081e-06
1.80952e-06
1.80783e-06
1.80574e-06
1.80336e-06
1.80115e-06
1.80258e-06
1.80467e-06
1.80679e-06
1.80884e-06
1.81059e-06
1.81194e-06
1.8129e-06
1.81349e-06
1.81371e-06
1.81356e-06
1.81304e-06
1.81215e-06
1.81088e-06
1.80921e-06
1.80714e-06
1.8048e-06
1.80258e-06
1.8036e-06
1.8057e-06
1.8078e-06
1.80983e-06
1.81156e-06
1.8129e-06
1.81385e-06
1.81444e-06
1.81466e-06
1.81451e-06
1.814e-06
1.81311e-06
1.81185e-06
1.8102e-06
1.80814e-06
1.80583e-06
1.80359e-06
1.80422e-06
1.80633e-06
1.80841e-06
1.81043e-06
1.81216e-06
1.81349e-06
1.81444e-06
1.81502e-06
1.81524e-06
1.81509e-06
1.81458e-06
1.8137e-06
1.81245e-06
1.8108e-06
1.80875e-06
1.80645e-06
1.80421e-06
1.80446e-06
1.80656e-06
1.80864e-06
1.81066e-06
1.81238e-06
1.81371e-06
1.81466e-06
1.81524e-06
1.81546e-06
1.81531e-06
1.8148e-06
1.81392e-06
1.81267e-06
1.81103e-06
1.80898e-06
1.80669e-06
1.80445e-06
1.8043e-06
1.8064e-06
1.80849e-06
1.81051e-06
1.81223e-06
1.81356e-06
1.81451e-06
1.81509e-06
1.81531e-06
1.81517e-06
1.81465e-06
1.81377e-06
1.81252e-06
1.81088e-06
1.80883e-06
1.80653e-06
1.80429e-06
1.80375e-06
1.80585e-06
1.80795e-06
1.80997e-06
1.81171e-06
1.81304e-06
1.814e-06
1.81458e-06
1.8148e-06
1.81465e-06
1.81414e-06
1.81326e-06
1.812e-06
1.81034e-06
1.80829e-06
1.80598e-06
1.80374e-06
1.80281e-06
1.8049e-06
1.80701e-06
1.80906e-06
1.81081e-06
1.81215e-06
1.81311e-06
1.8137e-06
1.81392e-06
1.81378e-06
1.81326e-06
1.81237e-06
1.8111e-06
1.80943e-06
1.80736e-06
1.80503e-06
1.8028e-06
1.80147e-06
1.80355e-06
1.80569e-06
1.80776e-06
1.80952e-06
1.81088e-06
1.81185e-06
1.81245e-06
1.81267e-06
1.81252e-06
1.812e-06
1.8111e-06
1.80982e-06
1.80813e-06
1.80604e-06
1.80368e-06
1.80146e-06
1.79972e-06
1.80178e-06
1.80395e-06
1.80604e-06
1.80783e-06
1.80921e-06
1.8102e-06
1.8108e-06
1.81103e-06
1.81088e-06
1.81034e-06
1.80943e-06
1.80813e-06
1.80642e-06
1.80431e-06
1.80191e-06
1.79971e-06
1.79742e-06
1.79954e-06
1.80177e-06
1.80392e-06
1.80574e-06
1.80714e-06
1.80814e-06
1.80875e-06
1.80898e-06
1.80883e-06
1.80829e-06
1.80736e-06
1.80604e-06
1.80431e-06
1.80213e-06
1.79968e-06
1.79741e-06
1.79505e-06
1.79713e-06
1.79931e-06
1.80151e-06
1.80336e-06
1.8048e-06
1.80583e-06
1.80645e-06
1.80669e-06
1.80653e-06
1.80598e-06
1.80503e-06
1.80368e-06
1.80191e-06
1.79967e-06
1.79728e-06
1.79504e-06
1.79236e-06
1.79487e-06
1.79706e-06
1.79931e-06
1.80115e-06
1.80258e-06
1.80359e-06
1.80421e-06
1.80445e-06
1.80429e-06
1.80374e-06
1.8028e-06
1.80146e-06
1.79971e-06
1.79741e-06
1.79504e-06
1.79235e-06
1.75139e-06
1.75371e-06
1.75575e-06
1.75788e-06
1.75959e-06
1.76095e-06
1.76191e-06
1.7625e-06
1.76273e-06
1.76257e-06
1.76205e-06
1.76116e-06
1.75988e-06
1.75825e-06
1.75607e-06
1.75387e-06
1.75139e-06
1.75371e-06
1.75567e-06
1.75772e-06
1.7598e-06
1.76156e-06
1.76293e-06
1.76391e-06
1.76451e-06
1.76473e-06
1.76458e-06
1.76405e-06
1.76314e-06
1.76185e-06
1.76018e-06
1.75806e-06
1.75581e-06
1.7537e-06
1.75575e-06
1.75772e-06
1.75983e-06
1.76187e-06
1.76361e-06
1.76496e-06
1.76592e-06
1.76651e-06
1.76673e-06
1.76658e-06
1.76606e-06
1.76517e-06
1.7639e-06
1.76224e-06
1.76017e-06
1.75785e-06
1.75574e-06
1.75788e-06
1.7598e-06
1.76187e-06
1.76387e-06
1.76559e-06
1.76692e-06
1.76787e-06
1.76846e-06
1.76868e-06
1.76853e-06
1.76802e-06
1.76713e-06
1.76588e-06
1.76424e-06
1.76221e-06
1.75993e-06
1.75787e-06
1.75959e-06
1.76156e-06
1.76361e-06
1.76559e-06
1.76729e-06
1.76861e-06
1.76955e-06
1.77013e-06
1.77035e-06
1.77021e-06
1.76969e-06
1.76882e-06
1.76758e-06
1.76595e-06
1.76394e-06
1.76168e-06
1.75958e-06
1.76095e-06
1.76293e-06
1.76495e-06
1.76692e-06
1.76861e-06
1.76992e-06
1.77086e-06
1.77143e-06
1.77165e-06
1.7715e-06
1.77099e-06
1.77013e-06
1.7689e-06
1.76728e-06
1.76529e-06
1.76305e-06
1.76094e-06
1.76191e-06
1.76391e-06
1.76592e-06
1.76787e-06
1.76955e-06
1.77086e-06
1.77179e-06
1.77236e-06
1.77257e-06
1.77243e-06
1.77192e-06
1.77106e-06
1.76984e-06
1.76823e-06
1.76625e-06
1.76403e-06
1.7619e-06
1.7625e-06
1.7645e-06
1.76651e-06
1.76846e-06
1.77013e-06
1.77143e-06
1.77236e-06
1.77293e-06
1.77314e-06
1.773e-06
1.77249e-06
1.77164e-06
1.77042e-06
1.76882e-06
1.76684e-06
1.76463e-06
1.76249e-06
1.76273e-06
1.76473e-06
1.76673e-06
1.76868e-06
1.77035e-06
1.77165e-06
1.77257e-06
1.77314e-06
1.77336e-06
1.77321e-06
1.77271e-06
1.77185e-06
1.77063e-06
1.76904e-06
1.76706e-06
1.76485e-06
1.76272e-06
1.76257e-06
1.76458e-06
1.76658e-06
1.76853e-06
1.77021e-06
1.7715e-06
1.77243e-06
1.773e-06
1.77321e-06
1.77307e-06
1.77257e-06
1.77171e-06
1.77049e-06
1.76889e-06
1.76691e-06
1.7647e-06
1.76256e-06
1.76205e-06
1.76405e-06
1.76606e-06
1.76802e-06
1.76969e-06
1.77099e-06
1.77192e-06
1.77249e-06
1.77271e-06
1.77257e-06
1.77206e-06
1.7712e-06
1.76998e-06
1.76837e-06
1.76639e-06
1.76417e-06
1.76204e-06
1.76116e-06
1.76314e-06
1.76517e-06
1.76713e-06
1.76882e-06
1.77013e-06
1.77106e-06
1.77164e-06
1.77185e-06
1.77171e-06
1.7712e-06
1.77033e-06
1.76911e-06
1.76749e-06
1.7655e-06
1.76326e-06
1.76115e-06
1.75988e-06
1.76185e-06
1.7639e-06
1.76588e-06
1.76758e-06
1.7689e-06
1.76984e-06
1.77042e-06
1.77063e-06
1.77049e-06
1.76998e-06
1.76911e-06
1.76787e-06
1.76624e-06
1.76424e-06
1.76197e-06
1.75988e-06
1.75825e-06
1.76018e-06
1.76224e-06
1.76424e-06
1.76595e-06
1.76728e-06
1.76823e-06
1.76882e-06
1.76904e-06
1.76889e-06
1.76837e-06
1.76749e-06
1.76624e-06
1.7646e-06
1.76258e-06
1.7603e-06
1.75824e-06
1.75607e-06
1.75806e-06
1.76017e-06
1.76221e-06
1.76395e-06
1.76529e-06
1.76625e-06
1.76684e-06
1.76706e-06
1.76691e-06
1.76639e-06
1.7655e-06
1.76424e-06
1.76258e-06
1.76051e-06
1.75819e-06
1.75607e-06
1.75387e-06
1.75581e-06
1.75786e-06
1.75993e-06
1.76168e-06
1.76305e-06
1.76403e-06
1.76463e-06
1.76486e-06
1.7647e-06
1.76417e-06
1.76326e-06
1.76198e-06
1.76031e-06
1.75819e-06
1.75595e-06
1.75387e-06
1.75139e-06
1.7537e-06
1.75574e-06
1.75787e-06
1.75958e-06
1.76094e-06
1.7619e-06
1.76249e-06
1.76272e-06
1.76256e-06
1.76204e-06
1.76115e-06
1.75988e-06
1.75824e-06
1.75606e-06
1.75386e-06
1.75138e-06
1.71331e-06
1.71539e-06
1.71723e-06
1.71918e-06
1.72074e-06
1.72198e-06
1.72286e-06
1.7234e-06
1.72361e-06
1.72347e-06
1.72299e-06
1.72217e-06
1.721e-06
1.71952e-06
1.71752e-06
1.71554e-06
1.7133e-06
1.71539e-06
1.71717e-06
1.71903e-06
1.72093e-06
1.72254e-06
1.7238e-06
1.7247e-06
1.72525e-06
1.72547e-06
1.72532e-06
1.72483e-06
1.724e-06
1.72281e-06
1.72128e-06
1.71933e-06
1.7173e-06
1.71538e-06
1.71723e-06
1.71903e-06
1.72096e-06
1.72283e-06
1.72443e-06
1.72567e-06
1.72657e-06
1.72711e-06
1.72732e-06
1.72718e-06
1.7267e-06
1.72587e-06
1.7247e-06
1.72317e-06
1.72126e-06
1.71915e-06
1.71722e-06
1.71918e-06
1.72093e-06
1.72283e-06
1.72467e-06
1.72626e-06
1.7275e-06
1.72838e-06
1.72893e-06
1.72914e-06
1.729e-06
1.72852e-06
1.72769e-06
1.72653e-06
1.72501e-06
1.72314e-06
1.72105e-06
1.71917e-06
1.72074e-06
1.72253e-06
1.72443e-06
1.72626e-06
1.72784e-06
1.72907e-06
1.72995e-06
1.7305e-06
1.7307e-06
1.73056e-06
1.73008e-06
1.72927e-06
1.72811e-06
1.7266e-06
1.72474e-06
1.72265e-06
1.72072e-06
1.72198e-06
1.7238e-06
1.72567e-06
1.7275e-06
1.72907e-06
1.7303e-06
1.73117e-06
1.73171e-06
1.73192e-06
1.73178e-06
1.7313e-06
1.73049e-06
1.72934e-06
1.72783e-06
1.72598e-06
1.72391e-06
1.72197e-06
1.72286e-06
1.7247e-06
1.72656e-06
1.72838e-06
1.72995e-06
1.73117e-06
1.73205e-06
1.73258e-06
1.73279e-06
1.73265e-06
1.73218e-06
1.73137e-06
1.73022e-06
1.72872e-06
1.72687e-06
1.72481e-06
1.72285e-06
1.7234e-06
1.72525e-06
1.72711e-06
1.72893e-06
1.7305e-06
1.73171e-06
1.73259e-06
1.73312e-06
1.73332e-06
1.73319e-06
1.73271e-06
1.73191e-06
1.73076e-06
1.72926e-06
1.72742e-06
1.72536e-06
1.72339e-06
1.72361e-06
1.72547e-06
1.72732e-06
1.72914e-06
1.7307e-06
1.73192e-06
1.73279e-06
1.73332e-06
1.73353e-06
1.73339e-06
1.73292e-06
1.73211e-06
1.73096e-06
1.72947e-06
1.72762e-06
1.72558e-06
1.7236e-06