/*--------------------------------*- C++ -*----------------------------------*\
  =========                 |
  \\      /  F ield         | OpenFOAM: The Open Source CFD Toolbox
   \\    /   O peration     | Website:  https://openfoam.org
    \\  /    A nd           | Version:  6
     \\/     M anipulation  |
\*---------------------------------------------------------------------------*/
FoamFile
{
    version     2.0;
    format      ascii;
    class       volScalarField;
    location    "0";
    object      p;
}
// * * * * * * * * * * * * * * * * * * * * * * * * * * * * * * * * * * * * * //

dimensions      [0 2 -2 0 0 0 0];

internalField   nonuniform List<scalar> 
40000
(
0.0087782
0.00877783
0.00877661
0.0087745
0.00877176
0.00876861
0.00876523
0.0087618
0.00875843
0.00875525
0.00875232
0.00874974
0.00874753
0.00874575
0.00874442
0.00874358
0.00874323
0.00874339
0.00874407
0.00874526
0.00874697
0.00874921
0.00875195
0.00875522
0.00875899
0.00876326
0.00876803
0.00877329
0.00877903
0.00878525
0.00879195
0.00879911
0.00880673
0.00881481
0.00882333
0.0088323
0.00884172
0.00885157
0.00886185
0.00887256
0.0088837
0.00889526
0.00890724
0.00891963
0.00893245
0.00894567
0.00895931
0.00897336
0.00898781
0.00900267
0.00901793
0.0090336
0.00904966
0.00906613
0.00908299
0.00910025
0.0091179
0.00913594
0.00915437
0.00917319
0.0091924
0.00921198
0.00923195
0.0092523
0.00927302
0.00929411
0.00931557
0.00933739
0.00935957
0.00938211
0.009405
0.00942823
0.00945181
0.00947572
0.00949996
0.00952453
0.00954941
0.0095746
0.0096001
0.00962589
0.00965197
0.00967833
0.00970496
0.00973185
0.00975899
0.00978637
0.00981399
0.00984182
0.00986987
0.00989811
0.00992653
0.00995513
0.00998388
0.0100128
0.0100418
0.010071
0.0101002
0.0101296
0.010159
0.0101884
0.0102179
0.0102475
0.010277
0.0103065
0.010336
0.0103654
0.0103948
0.0104241
0.0104532
0.0104823
0.0105112
0.0105399
0.0105685
0.0105969
0.010625
0.0106529
0.0106805
0.0107079
0.0107349
0.0107616
0.010788
0.010814
0.0108397
0.0108649
0.0108898
0.0109142
0.0109381
0.0109616
0.0109846
0.011007
0.011029
0.0110504
0.0110713
0.0110916
0.0111114
0.0111305
0.0111491
0.011167
0.0111844
0.0112011
0.0112171
0.0112325
0.0112473
0.0112614
0.0112748
0.0112876
0.0112996
0.0113111
0.0113218
0.0113319
0.0113412
0.01135
0.011358
0.0113654
0.0113721
0.0113781
0.0113835
0.0113883
0.0113924
0.0113958
0.0113987
0.0114009
0.0114026
0.0114036
0.0114041
0.0114041
0.0114035
0.0114023
0.0114007
0.0113985
0.0113959
0.0113929
0.0113894
0.0113855
0.0113812
0.0113766
0.0113716
0.0113663
0.0113608
0.011355
0.011349
0.0113428
0.0113365
0.0113302
0.0113237
0.0113173
0.011311
0.0113047
0.0112986
0.0112928
0.0112873
0.0112822
0.0112775
0.0112734
0.01127
0.0112674
0.0112656
0.0112646
0.0112645
0.0112648
0.00877856
0.00877819
0.0087771
0.00877522
0.00877278
0.00876998
0.00876697
0.0087639
0.00876089
0.00875804
0.00875543
0.00875313
0.00875118
0.00874964
0.00874853
0.00874787
0.00874769
0.008748
0.0087488
0.00875011
0.00875192
0.00875423
0.00875705
0.00876037
0.00876419
0.0087685
0.0087733
0.00877858
0.00878434
0.00879057
0.00879727
0.00880443
0.00881205
0.00882012
0.00882864
0.0088376
0.008847
0.00885683
0.0088671
0.00887779
0.0088889
0.00890044
0.0089124
0.00892477
0.00893756
0.00895076
0.00896437
0.00897838
0.0089928
0.00900763
0.00902286
0.00903849
0.00905452
0.00907095
0.00908777
0.00910499
0.0091226
0.0091406
0.00915898
0.00917776
0.00919691
0.00921645
0.00923636
0.00925665
0.00927732
0.00929835
0.00931975
0.00934151
0.00936362
0.00938609
0.00940891
0.00943207
0.00945557
0.00947941
0.00950357
0.00952805
0.00955284
0.00957795
0.00960335
0.00962905
0.00965503
0.00968129
0.00970782
0.0097346
0.00976163
0.00978891
0.0098164
0.00984412
0.00987204
0.00990016
0.00992846
0.00995693
0.00998555
0.0100143
0.0100432
0.0100722
0.0101013
0.0101305
0.0101598
0.0101891
0.0102185
0.0102478
0.0102772
0.0103066
0.0103359
0.0103652
0.0103944
0.0104235
0.0104525
0.0104814
0.0105101
0.0105387
0.0105671
0.0105953
0.0106232
0.010651
0.0106784
0.0107056
0.0107325
0.010759
0.0107852
0.0108111
0.0108366
0.0108617
0.0108863
0.0109106
0.0109343
0.0109577
0.0109805
0.0110028
0.0110246
0.0110459
0.0110667
0.0110869
0.0111065
0.0111255
0.0111439
0.0111617
0.011179
0.0111955
0.0112115
0.0112268
0.0112414
0.0112554
0.0112688
0.0112815
0.0112935
0.0113048
0.0113155
0.0113255
0.0113348
0.0113435
0.0113515
0.0113588
0.0113655
0.0113715
0.0113769
0.0113817
0.0113858
0.0113893
0.0113921
0.0113944
0.0113961
0.0113972
0.0113977
0.0113977
0.0113972
0.0113962
0.0113946
0.0113926
0.0113901
0.0113871
0.0113838
0.01138
0.0113759
0.0113714
0.0113667
0.0113616
0.0113563
0.0113507
0.0113449
0.011339
0.011333
0.0113269
0.0113208
0.0113146
0.0113086
0.0113027
0.0112969
0.0112914
0.0112862
0.0112814
0.011277
0.0112732
0.01127
0.0112676
0.0112658
0.0112649
0.0112648
0.0112651
0.00877978
0.00877929
0.00877819
0.00877648
0.00877432
0.00877186
0.00876924
0.00876657
0.00876396
0.00876149
0.00875925
0.00875728
0.00875565
0.0087544
0.00875354
0.00875312
0.00875315
0.00875364
0.0087546
0.00875605
0.00875798
0.0087604
0.00876331
0.0087667
0.00877058
0.00877494
0.00877978
0.0087851
0.00879088
0.00879713
0.00880384
0.00881101
0.00881863
0.0088267
0.0088352
0.00884415
0.00885354
0.00886335
0.00887359
0.00888426
0.00889535
0.00890686
0.00891879
0.00893113
0.00894389
0.00895705
0.00897063
0.00898461
0.00899899
0.00901378
0.00902896
0.00904455
0.00906053
0.00907691
0.00909369
0.00911085
0.00912841
0.00914635
0.00916468
0.0091834
0.00920249
0.00922197
0.00924181
0.00926204
0.00928263
0.00930359
0.00932491
0.00934659
0.00936862
0.009391
0.00941373
0.00943681
0.00946021
0.00948395
0.00950801
0.00953239
0.00955708
0.00958207
0.00960736
0.00963294
0.0096588
0.00968494
0.00971134
0.00973799
0.00976489
0.00979202
0.00981938
0.00984695
0.00987473
0.00990269
0.00993084
0.00995915
0.00998761
0.0100162
0.0100449
0.0100738
0.0101027
0.0101317
0.0101608
0.0101899
0.0102191
0.0102483
0.0102775
0.0103066
0.0103358
0.0103648
0.0103939
0.0104228
0.0104516
0.0104803
0.0105088
0.0105372
0.0105654
0.0105933
0.0106211
0.0106486
0.0106759
0.0107028
0.0107295
0.0107559
0.0107819
0.0108075
0.0108328
0.0108577
0.0108821
0.0109062
0.0109298
0.0109529
0.0109756
0.0109977
0.0110193
0.0110404
0.011061
0.011081
0.0111005
0.0111193
0.0111376
0.0111553
0.0111724
0.0111888
0.0112046
0.0112198
0.0112343
0.0112482
0.0112614
0.011274
0.0112859
0.0112972
0.0113078
0.0113177
0.011327
0.0113356
0.0113435
0.0113508
0.0113575
0.0113635
0.0113688
0.0113736
0.0113777
0.0113812
0.0113841
0.0113864
0.0113881
0.0113892
0.0113898
0.0113899
0.0113895
0.0113885
0.011387
0.0113851
0.0113828
0.01138
0.0113768
0.0113732
0.0113693
0.011365
0.0113605
0.0113556
0.0113505
0.0113453
0.0113398
0.0113342
0.0113285
0.0113227
0.0113169
0.0113112
0.0113055
0.0112999
0.0112945
0.0112894
0.0112846
0.0112801
0.0112761
0.0112726
0.0112696
0.0112673
0.0112657
0.0112648
0.0112647
0.011265
0.0087819
0.00878117
0.0087799
0.00877818
0.00877613
0.00877386
0.00877147
0.00876907
0.00876674
0.00876456
0.0087626
0.0087609
0.00875953
0.00875851
0.00875787
0.00875765
0.00875786
0.00875851
0.00875962
0.0087612
0.00876325
0.00876577
0.00876876
0.00877223
0.00877618
0.00878059
0.00878548
0.00879083
0.00879664
0.00880291
0.00880964
0.00881681
0.00882443
0.0088325
0.00884101
0.00884995
0.00885932
0.00886912
0.00887935
0.00889
0.00890107
0.00891255
0.00892446
0.00893677
0.0089495
0.00896263
0.00897617
0.00899012
0.00900447
0.00901922
0.00903437
0.00904991
0.00906586
0.00908219
0.00909892
0.00911604
0.00913355
0.00915144
0.00916972
0.00918838
0.00920742
0.00922683
0.00924662
0.00926678
0.00928731
0.0093082
0.00932945
0.00935106
0.00937302
0.00939533
0.00941798
0.00944097
0.00946429
0.00948794
0.00951191
0.0095362
0.00956079
0.00958569
0.00961088
0.00963635
0.00966211
0.00968814
0.00971442
0.00974096
0.00976774
0.00979476
0.00982199
0.00984944
0.00987708
0.00990492
0.00993293
0.0099611
0.00998942
0.0100179
0.0100465
0.0100752
0.0101039
0.0101328
0.0101617
0.0101907
0.0102197
0.0102487
0.0102777
0.0103067
0.0103357
0.0103646
0.0103935
0.0104222
0.0104508
0.0104793
0.0105077
0.0105359
0.0105639
0.0105917
0.0106193
0.0106466
0.0106737
0.0107005
0.010727
0.0107532
0.010779
0.0108045
0.0108296
0.0108543
0.0108786
0.0109025
0.0109259
0.0109489
0.0109713
0.0109933
0.0110148
0.0110358
0.0110562
0.011076
0.0110953
0.0111141
0.0111322
0.0111498
0.0111667
0.011183
0.0111987
0.0112138
0.0112282
0.011242
0.0112551
0.0112676
0.0112794
0.0112906
0.0113011
0.0113109
0.0113201
0.0113287
0.0113366
0.0113438
0.0113504
0.0113564
0.0113617
0.0113664
0.0113705
0.011374
0.0113769
0.0113793
0.011381
0.0113822
0.0113828
0.0113829
0.0113825
0.0113817
0.0113803
0.0113785
0.0113762
0.0113735
0.0113705
0.0113671
0.0113633
0.0113592
0.0113548
0.0113502
0.0113453
0.0113402
0.011335
0.0113296
0.0113242
0.0113187
0.0113132
0.0113077
0.0113023
0.0112971
0.011292
0.0112872
0.0112826
0.0112784
0.0112746
0.0112713
0.0112686
0.0112664
0.0112648
0.0112639
0.0112638
0.011264
0.00878466
0.00878362
0.00878205
0.00878021
0.00877816
0.00877596
0.00877371
0.00877148
0.00876935
0.00876739
0.00876564
0.00876417
0.00876301
0.00876219
0.00876175
0.0087617
0.00876207
0.00876288
0.00876412
0.00876582
0.00876798
0.0087706
0.00877368
0.00877722
0.00878123
0.0087857
0.00879063
0.00879602
0.00880187
0.00880816
0.00881491
0.00882209
0.00882973
0.0088378
0.0088463
0.00885524
0.0088646
0.00887439
0.00888461
0.00889524
0.00890629
0.00891776
0.00892964
0.00894193
0.00895463
0.00896774
0.00898125
0.00899516
0.00900948
0.00902419
0.00903931
0.00905481
0.00907072
0.00908701
0.0091037
0.00912077
0.00913824
0.00915608
0.00917431
0.00919292
0.0092119
0.00923127
0.009251
0.0092711
0.00929156
0.00931239
0.00933358
0.00935512
0.00937701
0.00939925
0.00942183
0.00944474
0.00946799
0.00949155
0.00951544
0.00953964
0.00956415
0.00958896
0.00961406
0.00963944
0.0096651
0.00969102
0.00971721
0.00974364
0.00977032
0.00979722
0.00982435
0.00985168
0.00987921
0.00990692
0.00993481
0.00996286
0.00999106
0.0100194
0.0100478
0.0100764
0.010105
0.0101338
0.0101626
0.0101914
0.0102203
0.0102491
0.010278
0.0103069
0.0103357
0.0103644
0.0103931
0.0104217
0.0104502
0.0104785
0.0105068
0.0105348
0.0105626
0.0105903
0.0106177
0.0106449
0.0106718
0.0106985
0.0107248
0.0107508
0.0107765
0.0108018
0.0108268
0.0108513
0.0108755
0.0108992
0.0109225
0.0109453
0.0109676
0.0109895
0.0110108
0.0110316
0.0110519
0.0110716
0.0110908
0.0111094
0.0111274
0.0111448
0.0111616
0.0111778
0.0111934
0.0112084
0.0112227
0.0112364
0.0112494
0.0112618
0.0112735
0.0112846
0.0112951
0.0113049
0.011314
0.0113225
0.0113303
0.0113375
0.0113441
0.01135
0.0113553
0.01136
0.011364
0.0113675
0.0113704
0.0113727
0.0113745
0.0113757
0.0113764
0.0113765
0.0113762
0.0113753
0.011374
0.0113723
0.0113701
0.0113675
0.0113646
0.0113613
0.0113576
0.0113537
0.0113494
0.011345
0.0113403
0.0113354
0.0113304
0.0113252
0.01132
0.0113147
0.0113094
0.0113042
0.0112991
0.0112941
0.0112892
0.0112846
0.0112803
0.0112763
0.0112727
0.0112696
0.0112669
0.0112647
0.0112632
0.0112622
0.011262
0.0112622
0.00878784
0.00878644
0.00878451
0.00878247
0.00878032
0.00877812
0.00877592
0.0087738
0.00877181
0.00877
0.00876843
0.00876713
0.00876614
0.00876549
0.00876522
0.00876533
0.00876585
0.00876679
0.00876817
0.00876998
0.00877224
0.00877495
0.00877812
0.00878174
0.00878581
0.00879034
0.00879532
0.00880075
0.00880662
0.00881295
0.00881971
0.00882692
0.00883456
0.00884264
0.00885115
0.00886008
0.00886944
0.00887922
0.00888943
0.00890005
0.00891108
0.00892253
0.00893439
0.00894666
0.00895934
0.00897242
0.0089859
0.00899978
0.00901407
0.00902875
0.00904383
0.0090593
0.00907517
0.00909143
0.00910807
0.0091251
0.00914252
0.00916032
0.0091785
0.00919706
0.009216
0.00923531
0.00925499
0.00927503
0.00929544
0.00931621
0.00933734
0.00935881
0.00938064
0.00940281
0.00942532
0.00944816
0.00947134
0.00949483
0.00951864
0.00954277
0.00956719
0.00959192
0.00961693
0.00964223
0.0096678
0.00969363
0.00971972
0.00974606
0.00977264
0.00979945
0.00982647
0.0098537
0.00988112
0.00990873
0.00993651
0.00996445
0.00999253
0.0100207
0.0100491
0.0100775
0.0101061
0.0101347
0.0101633
0.010192
0.0102208
0.0102495
0.0102783
0.010307
0.0103357
0.0103643
0.0103928
0.0104213
0.0104496
0.0104779
0.0105059
0.0105338
0.0105615
0.0105891
0.0106163
0.0106434
0.0106702
0.0106967
0.0107229
0.0107487
0.0107743
0.0107995
0.0108243
0.0108487
0.0108727
0.0108963
0.0109194
0.0109421
0.0109643
0.010986
0.0110072
0.0110279
0.0110481
0.0110677
0.0110867
0.0111052
0.0111231
0.0111404
0.0111571
0.0111732
0.0111887
0.0112036
0.0112178
0.0112314
0.0112443
0.0112566
0.0112682
0.0112793
0.0112896
0.0112993
0.0113084
0.0113168
0.0113246
0.0113317
0.0113382
0.0113441
0.0113494
0.011354
0.0113581
0.0113615
0.0113644
0.0113667
0.0113684
0.0113697
0.0113703
0.0113705
0.0113702
0.0113694
0.0113681
0.0113664
0.0113643
0.0113618
0.011359
0.0113557
0.0113522
0.0113484
0.0113443
0.0113399
0.0113354
0.0113307
0.0113258
0.0113208
0.0113158
0.0113107
0.0113056
0.0113006
0.0112957
0.0112909
0.0112862
0.0112818
0.0112777
0.0112738
0.0112704
0.0112673
0.0112647
0.0112625
0.0112609
0.0112599
0.0112596
0.0112596
0.00879127
0.00878948
0.00878714
0.00878484
0.00878254
0.00878026
0.00877806
0.00877598
0.00877407
0.00877237
0.00877092
0.00876976
0.00876891
0.00876841
0.00876828
0.00876853
0.00876918
0.00877024
0.00877173
0.00877366
0.00877601
0.00877882
0.00878206
0.00878575
0.00878989
0.00879447
0.0087995
0.00880497
0.00881089
0.00881724
0.00882403
0.00883125
0.00883891
0.008847
0.00885551
0.00886445
0.0088738
0.00888358
0.00889378
0.00890439
0.00891541
0.00892684
0.00893868
0.00895093
0.00896359
0.00897664
0.0089901
0.00900396
0.00901821
0.00903286
0.00904791
0.00906335
0.00907918
0.0090954
0.00911201
0.009129
0.00914638
0.00916413
0.00918227
0.00920079
0.00921967
0.00923893
0.00925856
0.00927855
0.00929891
0.00931962
0.00934069
0.00936211
0.00938388
0.00940599
0.00942844
0.00945121
0.00947432
0.00949775
0.00952149
0.00954554
0.00956989
0.00959454
0.00961948
0.0096447
0.00967018
0.00969594
0.00972195
0.0097482
0.00977469
0.00980141
0.00982834
0.00985548
0.00988281
0.00991032
0.009938
0.00996584
0.00999382
0.0100219
0.0100502
0.0100785
0.0101069
0.0101354
0.010164
0.0101926
0.0102212
0.0102498
0.0102785
0.0103071
0.0103357
0.0103642
0.0103926
0.0104209
0.0104492
0.0104773
0.0105052
0.010533
0.0105606
0.010588
0.0106151
0.0106421
0.0106687
0.0106951
0.0107212
0.0107469
0.0107723
0.0107974
0.0108221
0.0108464
0.0108703
0.0108938
0.0109168
0.0109393
0.0109614
0.010983
0.0110041
0.0110247
0.0110447
0.0110642
0.0110832
0.0111016
0.0111193
0.0111365
0.0111531
0.0111691
0.0111845
0.0111993
0.0112134
0.0112269
0.0112397
0.0112519
0.0112635
0.0112744
0.0112847
0.0112943
0.0113033
0.0113117
0.0113194
0.0113265
0.0113329
0.0113387
0.011344
0.0113486
0.0113526
0.011356
0.0113588
0.0113611
0.0113629
0.0113641
0.0113648
0.0113649
0.0113646
0.0113638
0.0113626
0.011361
0.0113589
0.0113565
0.0113536
0.0113505
0.011347
0.0113433
0.0113393
0.0113351
0.0113306
0.011326
0.0113213
0.0113165
0.0113116
0.0113067
0.0113018
0.0112969
0.0112921
0.0112875
0.011283
0.0112787
0.0112747
0.011271
0.0112676
0.0112646
0.011262
0.0112598
0.0112582
0.011257
0.0112565
0.0112563
0.00879476
0.00879258
0.00878981
0.00878722
0.00878472
0.00878233
0.00878007
0.00877798
0.00877611
0.00877447
0.00877311
0.00877205
0.00877132
0.00877093
0.00877091
0.00877128
0.00877205
0.00877322
0.00877482
0.00877684
0.00877929
0.00878218
0.0087855
0.00878926
0.00879346
0.0087981
0.00880318
0.00880869
0.00881464
0.00882102
0.00882784
0.00883508
0.00884276
0.00885085
0.00885937
0.00886831
0.00887767
0.00888745
0.00889764
0.00890824
0.00891925
0.00893067
0.00894249
0.00895472
0.00896736
0.00898039
0.00899383
0.00900766
0.00902188
0.00903651
0.00905152
0.00906693
0.00908273
0.00909891
0.00911549
0.00913244
0.00914978
0.0091675
0.00918559
0.00920406
0.00922291
0.00924212
0.0092617
0.00928165
0.00930195
0.00932262
0.00934363
0.009365
0.00938671
0.00940876
0.00943115
0.00945387
0.00947692
0.00950028
0.00952396
0.00954795
0.00957223
0.00959681
0.00962168
0.00964683
0.00967225
0.00969793
0.00972386
0.00975004
0.00977645
0.00980309
0.00982994
0.009857
0.00988425
0.00991168
0.00993928
0.00996703
0.00999493
0.010023
0.0100511
0.0100793
0.0101077
0.0101361
0.0101645
0.0101931
0.0102216
0.0102501
0.0102787
0.0103072
0.0103356
0.010364
0.0103924
0.0104206
0.0104488
0.0104767
0.0105046
0.0105323
0.0105598
0.010587
0.0106141
0.0106409
0.0106675
0.0106938
0.0107197
0.0107454
0.0107707
0.0107957
0.0108202
0.0108444
0.0108682
0.0108916
0.0109145
0.010937
0.010959
0.0109804
0.0110014
0.0110219
0.0110419
0.0110613
0.0110801
0.0110984
0.0111161
0.0111332
0.0111497
0.0111656
0.0111808
0.0111955
0.0112095
0.0112229
0.0112357
0.0112478
0.0112593
0.0112701
0.0112803
0.0112899
0.0112988
0.0113071
0.0113147
0.0113217
0.0113281
0.0113339
0.0113391
0.0113436
0.0113476
0.011351
0.0113538
0.011356
0.0113577
0.0113589
0.0113596
0.0113597
0.0113594
0.0113587
0.0113574
0.0113558
0.0113538
0.0113514
0.0113486
0.0113455
0.0113421
0.0113384
0.0113345
0.0113304
0.011326
0.0113215
0.0113169
0.0113122
0.0113074
0.0113026
0.0112978
0.0112931
0.0112885
0.0112839
0.0112796
0.0112754
0.0112715
0.0112678
0.0112644
0.0112614
0.0112588
0.0112566
0.0112548
0.0112535
0.0112527
0.0112524
0.00879819
0.00879563
0.00879242
0.00878951
0.00878679
0.00878424
0.00878189
0.00877977
0.00877789
0.00877628
0.00877497
0.00877398
0.00877333
0.00877304
0.00877312
0.00877359
0.00877446
0.00877573
0.00877742
0.00877953
0.00878206
0.00878503
0.00878842
0.00879225
0.00879651
0.0088012
0.00880633
0.00881188
0.00881787
0.00882429
0.00883113
0.0088384
0.00884609
0.0088542
0.00886273
0.00887167
0.00888103
0.00889081
0.00890099
0.00891159
0.00892259
0.008934
0.00894581
0.00895802
0.00897064
0.00898365
0.00899706
0.00901087
0.00902507
0.00903967
0.00905466
0.00907004
0.0090858
0.00910196
0.00911849
0.00913541
0.00915272
0.0091704
0.00918845
0.00920689
0.00922569
0.00924486
0.0092644
0.0092843
0.00930456
0.00932518
0.00934615
0.00936746
0.00938912
0.00941113
0.00943346
0.00945613
0.00947912
0.00950243
0.00952605
0.00954998
0.00957421
0.00959873
0.00962353
0.00964862
0.00967397
0.00969959
0.00972546
0.00975157
0.00977792
0.00980449
0.00983127
0.00985826
0.00988544
0.0099128
0.00994032
0.009968
0.00999583
0.0100238
0.0100518
0.01008
0.0101083
0.0101366
0.010165
0.0101934
0.0102219
0.0102503
0.0102788
0.0103072
0.0103356
0.0103639
0.0103922
0.0104203
0.0104484
0.0104763
0.0105041
0.0105317
0.0105591
0.0105863
0.0106132
0.01064
0.0106664
0.0106926
0.0107185
0.0107441
0.0107693
0.0107942
0.0108187
0.0108428
0.0108665
0.0108897
0.0109126
0.0109349
0.0109568
0.0109782
0.0109992
0.0110195
0.0110394
0.0110587
0.0110774
0.0110956
0.0111132
0.0111302
0.0111467
0.0111625
0.0111777
0.0111922
0.0112062
0.0112195
0.0112322
0.0112442
0.0112556
0.0112664
0.0112765
0.011286
0.0112948
0.011303
0.0113106
0.0113175
0.0113238
0.0113295
0.0113346
0.0113391
0.011343
0.0113464
0.0113491
0.0113513
0.011353
0.0113541
0.0113548
0.0113549
0.0113546
0.0113538
0.0113526
0.011351
0.0113489
0.0113465
0.0113438
0.0113407
0.0113374
0.0113337
0.0113299
0.0113258
0.0113215
0.0113171
0.0113126
0.0113079
0.0113032
0.0112985
0.0112938
0.0112892
0.0112846
0.0112802
0.0112759
0.0112718
0.0112679
0.0112643
0.011261
0.0112579
0.0112553
0.011253
0.0112511
0.0112496
0.0112485
0.0112479
0.00880145
0.0087985
0.00879486
0.00879164
0.00878868
0.00878595
0.00878348
0.00878128
0.00877937
0.00877777
0.00877649
0.00877554
0.00877495
0.00877473
0.00877489
0.00877544
0.00877639
0.00877775
0.00877952
0.00878171
0.00878432
0.00878736
0.00879082
0.00879471
0.00879903
0.00880378
0.00880895
0.00881455
0.00882057
0.00882702
0.00883389
0.00884118
0.00884889
0.00885701
0.00886555
0.00887451
0.00888387
0.00889365
0.00890383
0.00891442
0.00892541
0.00893681
0.00894861
0.00896081
0.00897341
0.0089864
0.0089998
0.00901358
0.00902776
0.00904234
0.0090573
0.00907265
0.00908839
0.00910451
0.00912102
0.0091379
0.00915517
0.00917282
0.00919084
0.00920924
0.009228
0.00924713
0.00926663
0.00928649
0.00930671
0.00932729
0.00934821
0.00936949
0.0093911
0.00941306
0.00943535
0.00945797
0.00948091
0.00950417
0.00952774
0.00955162
0.00957579
0.00960026
0.00962502
0.00965005
0.00967535
0.00970091
0.00972673
0.00975278
0.00977907
0.00980559
0.00983231
0.00985924
0.00988636
0.00991366
0.00994112
0.00996875
0.00999651
0.0100244
0.0100524
0.0100805
0.0101087
0.010137
0.0101653
0.0101937
0.0102221
0.0102504
0.0102788
0.0103072
0.0103355
0.0103638
0.010392
0.0104201
0.010448
0.0104759
0.0105036
0.0105311
0.0105585
0.0105856
0.0106125
0.0106392
0.0106655
0.0106917
0.0107175
0.010743
0.0107681
0.0107929
0.0108174
0.0108414
0.010865
0.0108882
0.010911
0.0109333
0.0109551
0.0109764
0.0109972
0.0110175
0.0110373
0.0110565
0.0110752
0.0110933
0.0111108
0.0111278
0.0111441
0.0111598
0.0111749
0.0111894
0.0112033
0.0112165
0.0112291
0.0112411
0.0112524
0.0112631
0.0112731
0.0112825
0.0112912
0.0112994
0.0113069
0.0113137
0.01132
0.0113256
0.0113306
0.0113351
0.0113389
0.0113422
0.0113449
0.011347
0.0113487
0.0113498
0.0113503
0.0113505
0.0113501
0.0113493
0.011348
0.0113464
0.0113444
0.011342
0.0113392
0.0113362
0.0113328
0.0113292
0.0113254
0.0113213
0.0113171
0.0113127
0.0113082
0.0113037
0.011299
0.0112944
0.0112898
0.0112852
0.0112807
0.0112763
0.0112721
0.011268
0.0112641
0.0112605
0.0112572
0.0112541
0.0112513
0.0112489
0.0112469
0.0112452
0.0112438
0.0112429
0.00880442
0.00880112
0.00879706
0.00879351
0.00879031
0.00878739
0.00878478
0.00878249
0.00878053
0.0087789
0.00877762
0.0087767
0.00877615
0.00877598
0.00877621
0.00877682
0.00877784
0.00877927
0.00878112
0.00878338
0.00878606
0.00878916
0.00879269
0.00879664
0.00880101
0.00880581
0.00881102
0.00881666
0.00882272
0.0088292
0.0088361
0.00884341
0.00885114
0.00885928
0.00886784
0.0088768
0.00888617
0.00889595
0.00890613
0.00891671
0.0089277
0.00893909
0.00895088
0.00896307
0.00897565
0.00898863
0.00900201
0.00901577
0.00902993
0.00904448
0.00905942
0.00907475
0.00909046
0.00910656
0.00912303
0.00913989
0.00915713
0.00917475
0.00919274
0.0092111
0.00922983
0.00924893
0.00926839
0.00928821
0.0093084
0.00932893
0.00934982
0.00937105
0.00939263
0.00941455
0.00943679
0.00945937
0.00948227
0.00950549
0.00952902
0.00955285
0.00957699
0.00960141
0.00962612
0.00965111
0.00967636
0.00970188
0.00972765
0.00975366
0.0097799
0.00980637
0.00983305
0.00985993
0.009887
0.00991426
0.00994167
0.00996925
0.00999696
0.0100248
0.0100528
0.0100808
0.010109
0.0101372
0.0101655
0.0101938
0.0102221
0.0102505
0.0102788
0.0103071
0.0103354
0.0103636
0.0103918
0.0104198
0.0104477
0.0104755
0.0105032
0.0105306
0.0105579
0.010585
0.0106119
0.0106385
0.0106648
0.0106909
0.0107166
0.0107421
0.0107672
0.0107919
0.0108163
0.0108403
0.0108638
0.010887
0.0109097
0.0109319
0.0109537
0.0109749
0.0109957
0.0110159
0.0110356
0.0110548
0.0110734
0.0110914
0.0111089
0.0111257
0.011142
0.0111576
0.0111726
0.0111871
0.0112008
0.011214
0.0112265
0.0112384
0.0112496
0.0112602
0.0112702
0.0112795
0.0112881
0.0112962
0.0113036
0.0113104
0.0113165
0.0113221
0.011327
0.0113314
0.0113352
0.0113384
0.011341
0.0113431
0.0113446
0.0113457
0.0113462
0.0113463
0.0113459
0.011345
0.0113438
0.0113421
0.01134
0.0113376
0.0113348
0.0113318
0.0113284
0.0113248
0.011321
0.0113169
0.0113127
0.0113084
0.0113039
0.0112994
0.0112948
0.0112902
0.0112856
0.0112811
0.0112766
0.0112722
0.011268
0.011264
0.0112601
0.0112565
0.0112531
0.0112499
0.0112471
0.0112445
0.0112423
0.0112404
0.0112387
0.0112376
0.00880704
0.00880339
0.00879893
0.00879508
0.00879162
0.0087885
0.00878575
0.00878335
0.00878131
0.00877964
0.00877835
0.00877744
0.00877691
0.00877678
0.00877705
0.00877772
0.0087788
0.00878029
0.0087822
0.00878452
0.00878726
0.00879043
0.00879401
0.00879801
0.00880244
0.00880728
0.00881254
0.00881822
0.00882432
0.00883083
0.00883775
0.00884509
0.00885284
0.00886099
0.00886956
0.00887853
0.00888791
0.00889769
0.00890787
0.00891846
0.00892944
0.00894082
0.0089526
0.00896478
0.00897735
0.00899032
0.00900368
0.00901743
0.00903157
0.0090461
0.00906102
0.00907632
0.00909201
0.00910808
0.00912453
0.00914136
0.00915858
0.00917616
0.00919412
0.00921245
0.00923116
0.00925022
0.00926965
0.00928945
0.0093096
0.0093301
0.00935095
0.00937215
0.0093937
0.00941558
0.00943779
0.00946033
0.0094832
0.00950638
0.00952987
0.00955367
0.00957777
0.00960216
0.00962683
0.00965178
0.009677
0.00970248
0.00972821
0.00975419
0.0097804
0.00980683
0.00983347
0.00986032
0.00988736
0.00991457
0.00994196
0.0099695
0.00999718
0.010025
0.0100529
0.0100809
0.0101091
0.0101372
0.0101655
0.0101938
0.0102221
0.0102504
0.0102787
0.010307
0.0103352
0.0103634
0.0103915
0.0104195
0.0104474
0.0104752
0.0105028
0.0105302
0.0105575
0.0105845
0.0106114
0.0106379
0.0106642
0.0106903
0.010716
0.0107414
0.0107664
0.0107912
0.0108155
0.0108394
0.0108629
0.010886
0.0109087
0.0109308
0.0109526
0.0109738
0.0109945
0.0110146
0.0110343
0.0110534
0.0110719
0.0110899
0.0111073
0.0111241
0.0111402
0.0111558
0.0111708
0.0111851
0.0111988
0.0112119
0.0112243
0.0112361
0.0112473
0.0112578
0.0112676
0.0112769
0.0112855
0.0112934
0.0113007
0.0113074
0.0113135
0.011319
0.0113238
0.0113281
0.0113318
0.0113349
0.0113375
0.0113395
0.011341
0.0113419
0.0113424
0.0113424
0.0113419
0.011341
0.0113397
0.011338
0.0113359
0.0113334
0.0113306
0.0113275
0.0113242
0.0113205
0.0113167
0.0113127
0.0113085
0.0113041
0.0112997
0.0112951
0.0112906
0.011286
0.0112814
0.0112768
0.0112724
0.011268
0.0112638
0.0112597
0.0112558
0.0112521
0.0112487
0.0112455
0.0112425
0.0112398
0.0112374
0.0112353
0.0112334
0.011232
0.00880924
0.00880526
0.00880042
0.00879626
0.00879255
0.00878924
0.00878632
0.00878381
0.00878169
0.00877997
0.00877865
0.00877773
0.00877721
0.0087771
0.0087774
0.00877811
0.00877924
0.00878078
0.00878274
0.00878512
0.00878792
0.00879114
0.00879477
0.00879883
0.0088033
0.00880818
0.00881349
0.0088192
0.00882533
0.00883187
0.00883883
0.00884619
0.00885395
0.00886213
0.00887071
0.00887969
0.00888907
0.00889886
0.00890904
0.00891963
0.00893061
0.00894199
0.00895376
0.00896593
0.00897849
0.00899145
0.00900479
0.00901853
0.00903265
0.00904716
0.00906206
0.00907734
0.00909301
0.00910906
0.00912549
0.0091423
0.00915949
0.00917705
0.00919498
0.00921329
0.00923197
0.00925101
0.00927041
0.00929018
0.0093103
0.00933077
0.0093516
0.00937277
0.00939428
0.00941613
0.00943832
0.00946083
0.00948367
0.00950682
0.00953029
0.00955406
0.00957813
0.00960249
0.00962714
0.00965206
0.00967725
0.00970271
0.00972841
0.00975436
0.00978054
0.00980695
0.00983357
0.00986039
0.00988741
0.0099146
0.00994196
0.00996948
0.00999714
0.0100249
0.0100528
0.0100808
0.0101089
0.0101371
0.0101653
0.0101936
0.0102219
0.0102502
0.0102785
0.0103067
0.010335
0.0103631
0.0103912
0.0104192
0.0104471
0.0104749
0.0105024
0.0105299
0.0105571
0.0105841
0.0106109
0.0106375
0.0106638
0.0106898
0.0107155
0.0107409
0.0107659
0.0107906
0.0108149
0.0108388
0.0108623
0.0108853
0.0109079
0.0109301
0.0109517
0.0109729
0.0109936
0.0110137
0.0110333
0.0110523
0.0110708
0.0110887
0.0111061
0.0111228
0.0111389
0.0111544
0.0111693
0.0111836
0.0111972
0.0112102
0.0112225
0.0112343
0.0112453
0.0112557
0.0112655
0.0112747
0.0112832
0.011291
0.0112983
0.0113049
0.0113108
0.0113162
0.011321
0.0113252
0.0113288
0.0113318
0.0113343
0.0113362
0.0113376
0.0113385
0.0113389
0.0113388
0.0113382
0.0113373
0.0113359
0.0113341
0.0113319
0.0113294
0.0113266
0.0113234
0.01132
0.0113164
0.0113125
0.0113084
0.0113042
0.0112998
0.0112954
0.0112908
0.0112862
0.0112816
0.0112771
0.0112725
0.011268
0.0112637
0.0112594
0.0112553
0.0112514
0.0112476
0.0112441
0.0112408
0.0112377
0.0112348
0.0112322
0.0112299
0.0112277
0.0112261
0.00881095
0.00880667
0.00880147
0.00879701
0.00879306
0.00878955
0.00878647
0.00878383
0.00878162
0.00877984
0.00877848
0.00877754
0.00877702
0.00877692
0.00877724
0.00877799
0.00877915
0.00878074
0.00878274
0.00878517
0.00878802
0.00879128
0.00879496
0.00879906
0.00880358
0.00880851
0.00881385
0.0088196
0.00882576
0.00883233
0.00883931
0.00884669
0.00885448
0.00886267
0.00887126
0.00888026
0.00888965
0.00889944
0.00890963
0.00892021
0.0089312
0.00894257
0.00895434
0.0089665
0.00897905
0.008992
0.00900533
0.00901905
0.00903316
0.00904766
0.00906254
0.00907781
0.00909346
0.00910949
0.0091259
0.00914269
0.00915985
0.00917739
0.00919531
0.00921359
0.00923224
0.00925126
0.00927064
0.00929038
0.00931048
0.00933093
0.00935174
0.00937289
0.00939438
0.00941621
0.00943837
0.00946086
0.00948367
0.00950681
0.00953025
0.009554
0.00957805
0.00960239
0.00962702
0.00965193
0.0096771
0.00970254
0.00972823
0.00975416
0.00978033
0.00980672
0.00983333
0.00986014
0.00988714
0.00991433
0.00994168
0.00996919
0.00999684
0.0100246
0.0100525
0.0100805
0.0101086
0.0101368
0.010165
0.0101933
0.0102216
0.0102499
0.0102781
0.0103064
0.0103346
0.0103628
0.0103909
0.0104189
0.0104468
0.0104745
0.0105021
0.0105295
0.0105568
0.0105838
0.0106106
0.0106372
0.0106634
0.0106894
0.0107151
0.0107405
0.0107655
0.0107902
0.0108145
0.0108384
0.0108618
0.0108849
0.0109075
0.0109296
0.0109512
0.0109724
0.010993
0.0110131
0.0110326
0.0110516
0.0110701
0.0110879
0.0111052
0.0111219
0.0111379
0.0111534
0.0111682
0.0111824
0.0111959
0.0112089
0.0112211
0.0112328
0.0112438
0.0112541
0.0112638
0.0112728
0.0112812
0.011289
0.0112961
0.0113026
0.0113085
0.0113138
0.0113185
0.0113225
0.011326
0.011329
0.0113313
0.0113332
0.0113345
0.0113353
0.0113356
0.0113354
0.0113348
0.0113337
0.0113322
0.0113304
0.0113281
0.0113255
0.0113226
0.0113194
0.011316
0.0113123
0.0113083
0.0113042
0.0113
0.0112956
0.0112911
0.0112865
0.0112819
0.0112772
0.0112726
0.0112681
0.0112635
0.0112591
0.0112548
0.0112507
0.0112467
0.0112428
0.0112392
0.0112358
0.0112326
0.0112296
0.0112268
0.0112243
0.0112219
0.0112201
0.00881212
0.00880756
0.00880202
0.00879728
0.0087931
0.00878939
0.00878615
0.00878339
0.00878108
0.00877922
0.00877781
0.00877685
0.00877631
0.00877622
0.00877655
0.00877732
0.00877852
0.00878014
0.00878218
0.00878465
0.00878754
0.00879084
0.00879457
0.00879871
0.00880326
0.00880823
0.00881361
0.00881939
0.00882558