/*--------------------------------*- C++ -*----------------------------------*\
  =========                 |
  \\      /  F ield         | OpenFOAM: The Open Source CFD Toolbox
   \\    /   O peration     | Website:  https://openfoam.org
    \\  /    A nd           | Version:  6
     \\/     M anipulation  |
\*---------------------------------------------------------------------------*/
FoamFile
{
    version     2.0;
    format      ascii;
    class       volVectorField;
    location    "0";
    object      U_rec;
}
// * * * * * * * * * * * * * * * * * * * * * * * * * * * * * * * * * * * * * //

dimensions      [0 1 -1 0 0 0 0];

internalField   nonuniform List<vector> 
40000
(
(3.58403e-07 -3.58545e-07 0)
(2.53743e-06 -8.83952e-07 0)
(5.85186e-06 -1.12998e-06 0)
(9.55303e-06 -1.09941e-06 0)
(1.28122e-05 -9.06347e-07 0)
(1.51393e-05 -6.15618e-07 0)
(1.62436e-05 -2.71301e-07 0)
(1.59635e-05 9.69066e-08 0)
(1.42291e-05 4.69808e-07 0)
(1.10331e-05 8.34971e-07 0)
(6.41055e-06 1.18436e-06 0)
(4.25179e-07 1.51284e-06 0)
(-6.8415e-06 1.81735e-06 0)
(-1.52963e-05 2.09628e-06 0)
(-2.48406e-05 2.34909e-06 0)
(-3.5373e-05 2.57599e-06 0)
(-4.67939e-05 2.77775e-06 0)
(-5.90051e-05 2.95552e-06 0)
(-7.19144e-05 3.11074e-06 0)
(-8.54341e-05 3.24504e-06 0)
(-9.94828e-05 3.36016e-06 0)
(-0.000113986 3.45789e-06 0)
(-0.000128876 3.54003e-06 0)
(-0.000144093 3.60834e-06 0)
(-0.000159581 3.66454e-06 0)
(-0.000175296 3.71026e-06 0)
(-0.000191193 3.74705e-06 0)
(-0.00020724 3.77633e-06 0)
(-0.000223407 3.79944e-06 0)
(-0.000239668 3.81757e-06 0)
(-0.000256006 3.83182e-06 0)
(-0.000272403 3.84314e-06 0)
(-0.000288849 3.8524e-06 0)
(-0.000305334 3.86033e-06 0)
(-0.000321854 3.86757e-06 0)
(-0.000338404 3.87464e-06 0)
(-0.000354985 3.88197e-06 0)
(-0.000371596 3.88989e-06 0)
(-0.000388238 3.89868e-06 0)
(-0.000404915 3.90851e-06 0)
(-0.000421631 3.91947e-06 0)
(-0.000438388 3.93161e-06 0)
(-0.00045519 3.94492e-06 0)
(-0.000472043 3.95932e-06 0)
(-0.000488947 3.9747e-06 0)
(-0.000505907 3.9909e-06 0)
(-0.000522925 4.00772e-06 0)
(-0.000540002 4.02493e-06 0)
(-0.000557139 4.04228e-06 0)
(-0.000574335 4.0595e-06 0)
(-0.000591588 4.07627e-06 0)
(-0.000608896 4.09229e-06 0)
(-0.000626254 4.10722e-06 0)
(-0.000643656 4.12071e-06 0)
(-0.000661095 4.1324e-06 0)
(-0.000678564 4.14194e-06 0)
(-0.000696051 4.14895e-06 0)
(-0.000713546 4.15305e-06 0)
(-0.000731036 4.15386e-06 0)
(-0.000748505 4.15099e-06 0)
(-0.000765937 4.14405e-06 0)
(-0.000783316 4.13263e-06 0)
(-0.00080062 4.11635e-06 0)
(-0.00081783 4.09482e-06 0)
(-0.000834922 4.06762e-06 0)
(-0.000851873 4.03436e-06 0)
(-0.000868656 3.99464e-06 0)
(-0.000885243 3.94805e-06 0)
(-0.000901606 3.89421e-06 0)
(-0.000917713 3.83271e-06 0)
(-0.000933534 3.76316e-06 0)
(-0.000949032 3.68518e-06 0)
(-0.000964171 3.59839e-06 0)
(-0.000978919 3.50242e-06 0)
(-0.000993232 3.3969e-06 0)
(-0.00100707 3.28149e-06 0)
(-0.0010204 3.15586e-06 0)
(-0.00103317 3.01968e-06 0)
(-0.00104534 2.87267e-06 0)
(-0.00105686 2.71457e-06 0)
(-0.00106769 2.54511e-06 0)
(-0.00107778 2.36409e-06 0)
(-0.00108709 2.17134e-06 0)
(-0.00109556 1.96671e-06 0)
(-0.00110315 1.75009e-06 0)
(-0.0011098 1.52144e-06 0)
(-0.00111547 1.28076e-06 0)
(-0.00112012 1.02808e-06 0)
(-0.00112368 7.63522e-07 0)
(-0.00112612 4.87232e-07 0)
(-0.00112738 1.99452e-07 0)
(-0.00112742 -9.95246e-08 0)
(-0.0011262 -4.09337e-07 0)
(-0.00112367 -7.29546e-07 0)
(-0.00111979 -1.05964e-06 0)
(-0.00111452 -1.39903e-06 0)
(-0.00110783 -1.74705e-06 0)
(-0.00109969 -2.10295e-06 0)
(-0.00109006 -2.46592e-06 0)
(-0.00107891 -2.83505e-06 0)
(-0.00106623 -3.20935e-06 0)
(-0.00105199 -3.58778e-06 0)
(-0.00103619 -3.9692e-06 0)
(-0.00101882 -4.35243e-06 0)
(-0.000999858 -4.73619e-06 0)
(-0.000979317 -5.11916e-06 0)
(-0.000957208 -5.49996e-06 0)
(-0.000933537 -5.87716e-06 0)
(-0.000908324 -6.24928e-06 0)
(-0.000881594 -6.61484e-06 0)
(-0.000853374 -6.97227e-06 0)
(-0.000823706 -7.32005e-06 0)
(-0.000792632 -7.65662e-06 0)
(-0.000760198 -7.98041e-06 0)
(-0.000726461 -8.28989e-06 0)
(-0.000691485 -8.58354e-06 0)
(-0.000655333 -8.85987e-06 0)
(-0.000618084 -9.11746e-06 0)
(-0.000579814 -9.35491e-06 0)
(-0.000540611 -9.57094e-06 0)
(-0.000500562 -9.76427e-06 0)
(-0.000459764 -9.93377e-06 0)
(-0.000418313 -1.00784e-05 0)
(-0.000376315 -1.01972e-05 0)
(-0.000333877 -1.02894e-05 0)
(-0.000291107 -1.03542e-05 0)
(-0.00024812 -1.03911e-05 0)
(-0.000205028 -1.03998e-05 0)
(-0.000161949 -1.03797e-05 0)
(-0.000119 -1.03308e-05 0)
(-7.62969e-05 -1.02532e-05 0)
(-3.39582e-05 -1.0147e-05 0)
(7.90039e-06 -1.00124e-05 0)
(4.91644e-05 -9.84999e-06 0)
(8.97201e-05 -9.6602e-06 0)
(0.000129458 -9.44384e-06 0)
(0.000168271 -9.20177e-06 0)
(0.000206054 -8.93497e-06 0)
(0.00024271 -8.64455e-06 0)
(0.000278143 -8.33171e-06 0)
(0.000312264 -7.99781e-06 0)
(0.000344988 -7.64425e-06 0)
(0.000376238 -7.2725e-06 0)
(0.00040594 -6.88416e-06 0)
(0.00043403 -6.48084e-06 0)
(0.000460448 -6.0642e-06 0)
(0.000485141 -5.63594e-06 0)
(0.000508064 -5.19778e-06 0)
(0.00052918 -4.75144e-06 0)
(0.000548454 -4.29865e-06 0)
(0.00056586 -3.8411e-06 0)
(0.000581388 -3.38048e-06 0)
(0.000595021 -2.9184e-06 0)
(0.000606751 -2.45648e-06 0)
(0.000616586 -1.99622e-06 0)
(0.000624537 -1.53909e-06 0)
(0.000630606 -1.08649e-06 0)
(0.000634822 -6.39729e-07 0)
(0.000637204 -2.00024e-07 0)
(0.000637785 2.3147e-07 0)
(0.000636601 6.53706e-07 0)
(0.000633684 1.06572e-06 0)
(0.000629083 1.46663e-06 0)
(0.000622839 1.85565e-06 0)
(0.000615002 2.23206e-06 0)
(0.000605626 2.59523e-06 0)
(0.000594765 2.94458e-06 0)
(0.000582476 3.2796e-06 0)
(0.000568818 3.59982e-06 0)
(0.000553853 3.9048e-06 0)
(0.000537646 4.19412e-06 0)
(0.00052026 4.46735e-06 0)
(0.000501765 4.72405e-06 0)
(0.00048223 4.96373e-06 0)
(0.000461727 5.18582e-06 0)
(0.000440332 5.38966e-06 0)
(0.000418123 5.57446e-06 0)
(0.000395183 5.73926e-06 0)
(0.000371598 5.8829e-06 0)
(0.000347461 6.00395e-06 0)
(0.000322871 6.10073e-06 0)
(0.000297934 6.17117e-06 0)
(0.000272767 6.21283e-06 0)
(0.000247495 6.22277e-06 0)
(0.000222259 6.19753e-06 0)
(0.000197214 6.13304e-06 0)
(0.00017253 6.02451e-06 0)
(0.000148399 5.8664e-06 0)
(0.000125035 5.65228e-06 0)
(0.000102676 5.37482e-06 0)
(8.15905e-05 5.02573e-06 0)
(6.20742e-05 4.59587e-06 0)
(4.44539e-05 4.07561e-06 0)
(2.90841e-05 3.45564e-06 0)
(1.63361e-05 2.72918e-06 0)
(6.57482e-06 1.89713e-06 0)
(1.09267e-07 9.77975e-07 0)
(-2.92771e-06 2.53139e-08 0)
(-2.9189e-06 -7.85189e-07 0)
(-9.58701e-07 -9.58695e-07 0)
(8.86972e-07 -2.5407e-06 0)
(5.85254e-06 -5.83918e-06 0)
(1.25733e-05 -7.18034e-06 0)
(1.95556e-05 -6.80961e-06 0)
(2.51392e-05 -5.22856e-06 0)
(2.82523e-05 -2.86052e-06 0)
(2.81985e-05 -1.96001e-08 0)
(2.45538e-05 3.06893e-06 0)
(1.71054e-05 6.24632e-06 0)
(5.79402e-06 9.4019e-06 0)
(-9.32742e-06 1.24592e-05 0)
(-2.81252e-05 1.53666e-05 0)
(-5.04117e-05 1.80903e-05 0)
(-7.59639e-05 2.06101e-05 0)
(-0.000104535 2.29155e-05 0)
(-0.000135869 2.50037e-05 0)
(-0.000169705 2.68776e-05 0)
(-0.000205788 2.85442e-05 0)
(-0.000243871 3.00134e-05 0)
(-0.000283718 3.12973e-05 0)
(-0.000325109 3.24095e-05 0)
(-0.000367839 3.33644e-05 0)
(-0.000411719 3.41768e-05 0)
(-0.00045658 3.48616e-05 0)
(-0.000502271 3.54332e-05 0)
(-0.000548654 3.59057e-05 0)
(-0.000595612 3.62925e-05 0)
(-0.000643043 3.66061e-05 0)
(-0.000690859 3.68584e-05 0)
(-0.000738985 3.70599e-05 0)
(-0.000787362 3.72207e-05 0)
(-0.000835938 3.73493e-05 0)
(-0.000884675 3.74536e-05 0)
(-0.000933544 3.75405e-05 0)
(-0.000982524 3.76157e-05 0)
(-0.0010316 3.76844e-05 0)
(-0.00108076 3.77506e-05 0)
(-0.00113 3.78177e-05 0)
(-0.00117932 3.78881e-05 0)
(-0.00122872 3.79639e-05 0)
(-0.00127821 3.80461e-05 0)
(-0.0013278 3.81355e-05 0)
(-0.00137749 3.8232e-05 0)
(-0.00142728 3.83353e-05 0)
(-0.00147718 3.84446e-05 0)
(-0.00152721 3.85585e-05 0)
(-0.00157735 3.86756e-05 0)
(-0.00162762 3.8794e-05 0)
(-0.001678 3.89114e-05 0)
(-0.0017285 3.90256e-05 0)
(-0.00177911 3.91338e-05 0)
(-0.00182982 3.92334e-05 0)
(-0.00188062 3.93215e-05 0)
(-0.00193148 3.93949e-05 0)
(-0.00198238 3.94506e-05 0)
(-0.00203331 3.94853e-05 0)
(-0.00208423 3.94957e-05 0)
(-0.0021351 3.94783e-05 0)
(-0.0021859 3.94298e-05 0)
(-0.00223657 3.93467e-05 0)
(-0.00228707 3.92254e-05 0)
(-0.00233736 3.90624e-05 0)
(-0.00238737 3.8854e-05 0)
(-0.00243704 3.85968e-05 0)
(-0.00248632 3.8287e-05 0)
(-0.00253512 3.79211e-05 0)
(-0.00258338 3.74954e-05 0)
(-0.00263103 3.70064e-05 0)
(-0.00267797 3.64503e-05 0)
(-0.00272413 3.58238e-05 0)
(-0.0027694 3.51232e-05 0)
(-0.0028137 3.43451e-05 0)
(-0.00285692 3.34861e-05 0)
(-0.00289896 3.25428e-05 0)
(-0.00293971 3.15121e-05 0)
(-0.00297906 3.0391e-05 0)
(-0.0030169 2.91764e-05 0)
(-0.0030531 2.78656e-05 0)
(-0.00308754 2.64559e-05 0)
(-0.0031201 2.49452e-05 0)
(-0.00315064 2.33313e-05 0)
(-0.00317904 2.16124e-05 0)
(-0.00320517 1.9787e-05 0)
(-0.00322888 1.7854e-05 0)
(-0.00325005 1.58126e-05 0)
(-0.00326853 1.36625e-05 0)
(-0.0032842 1.14038e-05 0)
(-0.00329691 9.03729e-06 0)
(-0.00330654 6.56381e-06 0)
(-0.00331295 3.98526e-06 0)
(-0.00331601 1.3037e-06 0)
(-0.00331559 -1.47793e-06 0)
(-0.00331158 -4.35614e-06 0)
(-0.00330385 -7.32681e-06 0)
(-0.00329229 -1.03852e-05 0)
(-0.0032768 -1.35258e-05 0)
(-0.00325728 -1.67425e-05 0)
(-0.00323363 -2.00284e-05 0)
(-0.00320579 -2.33759e-05 0)
(-0.00317368 -2.67768e-05 0)
(-0.00313723 -3.02222e-05 0)
(-0.0030964 -3.37026e-05 0)
(-0.00305116 -3.72076e-05 0)
(-0.00300148 -4.07264e-05 0)
(-0.00294735 -4.42477e-05 0)
(-0.00288879 -4.77596e-05 0)
(-0.00282579 -5.12496e-05 0)
(-0.00275842 -5.4705e-05 0)
(-0.00268672 -5.81124e-05 0)
(-0.00261076 -6.14586e-05 0)
(-0.00253062 -6.47298e-05 0)
(-0.00244641 -6.79121e-05 0)
(-0.00235825 -7.09919e-05 0)
(-0.00226628 -7.3955e-05 0)
(-0.00217064 -7.6788e-05 0)
(-0.00207153 -7.94772e-05 0)
(-0.00196911 -8.20095e-05 0)
(-0.0018636 -8.43723e-05 0)
(-0.00175522 -8.6553e-05 0)
(-0.0016442 -8.85401e-05 0)
(-0.00153079 -9.03227e-05 0)
(-0.00141525 -9.18904e-05 0)
(-0.00129786 -9.32343e-05 0)
(-0.0011789 -9.4345e-05 0)
(-0.00105867 -9.52165e-05 0)
(-0.000937463 -9.58412e-05 0)
(-0.000815602 -9.62148e-05 0)
(-0.000693398 -9.63333e-05 0)
(-0.000571172 -9.61931e-05 0)
(-0.00044925 -9.5794e-05 0)
(-0.000327954 -9.5135e-05 0)
(-0.00020761 -9.42172e-05 0)
(-8.85396e-05 -9.30429e-05 0)
(2.89439e-05 -9.16168e-05 0)
(0.000144514 -8.99428e-05 0)
(0.000257877 -8.80272e-05 0)
(0.000368726 -8.58777e-05 0)
(0.000476776 -8.35029e-05 0)
(0.000581741 -8.0912e-05 0)
(0.00068337 -7.81159e-05 0)
(0.000781401 -7.5126e-05 0)
(0.000875596 -7.19545e-05 0)
(0.000965735 -6.86146e-05 0)
(0.00105162 -6.51199e-05 0)
(0.00113304 -6.14848e-05 0)
(0.00120985 -5.77238e-05 0)
(0.00128188 -5.38519e-05 0)
(0.001349 -4.98845e-05 0)
(0.00141111 -4.58366e-05 0)
(0.00146809 -4.17238e-05 0)
(0.00151988 -3.75611e-05 0)
(0.00156641 -3.33637e-05 0)
(0.00160765 -2.91461e-05 0)
(0.00164358 -2.49228e-05 0)
(0.00167419 -2.07076e-05 0)
(0.00169949 -1.65139e-05 0)
(0.00171952 -1.23545e-05 0)
(0.00173432 -8.24128e-06 0)
(0.00174396 -4.18597e-06 0)
(0.00174849 -1.99053e-07 0)
(0.00174802 3.70943e-06 0)
(0.00174265 7.53019e-06 0)
(0.00173248 1.12547e-05 0)
(0.00171764 1.48752e-05 0)
(0.00169827 1.83846e-05 0)
(0.00167449 2.17762e-05 0)
(0.00164646 2.50442e-05 0)
(0.00161435 2.81829e-05 0)
(0.00157831 3.11872e-05 0)
(0.00153852 3.40522e-05 0)
(0.00149516 3.67731e-05 0)
(0.0014484 3.93449e-05 0)
(0.00139845 4.17626e-05 0)
(0.00134551 4.40206e-05 0)
(0.00128978 4.61129e-05 0)
(0.00123147 4.80321e-05 0)
(0.00117082 4.97704e-05 0)
(0.00110807 5.13178e-05 0)
(0.00104346 5.26633e-05 0)
(0.000977268 5.3793e-05 0)
(0.000909782 5.46914e-05 0)
(0.000841305 5.53395e-05 0)
(0.000772175 5.57155e-05 0)
(0.00070275 5.57936e-05 0)
(0.000633432 5.5544e-05 0)
(0.000564652 5.49325e-05 0)
(0.00049689 5.392e-05 0)
(0.00043067 5.2462e-05 0)
(0.000366572 5.05094e-05 0)
(0.00030523 4.8008e-05 0)
(0.000247339 4.49005e-05 0)
(0.000193652 4.11287e-05 0)
(0.000144973 3.66399e-05 0)
(0.000102137 3.1397e-05 0)
(6.59792e-05 2.53999e-05 0)
(3.7264e-05 1.8728e-05 0)
(1.65623e-05 1.16196e-05 0)
(4.02004e-06 4.62132e-06 0)
(-1.08991e-06 -1.08495e-06 0)
(-7.87109e-07 -2.92053e-06 0)
(1.14081e-06 -5.87592e-06 0)
(7.23466e-06 -1.25764e-05 0)
(1.48026e-05 -1.47323e-05 0)
(2.19401e-05 -1.32328e-05 0)
(2.65757e-05 -9.0769e-06 0)
(2.73344e-05 -3.11755e-06 0)
(2.3277e-05 3.97822e-06 0)
(1.38011e-05 1.17073e-05 0)
(-1.4212e-06 1.96981e-05 0)
(-2.25026e-05 2.76802e-05 0)
(-4.93939e-05 3.54594e-05 0)
(-8.19274e-05 4.28998e-05 0)
(-0.000119847 4.99088e-05 0)
(-0.000162838 5.64277e-05 0)
(-0.000210545 6.24231e-05 0)
(-0.000262593 6.78819e-05 0)
(-0.000318598 7.28054e-05 0)
(-0.000378175 7.72067e-05 0)
(-0.000440949 8.11074e-05 0)
(-0.000506564 8.45348e-05 0)
(-0.000574678 8.7521e-05 0)
(-0.000644975 9.01005e-05 0)
(-0.00071716 9.23091e-05 0)
(-0.000790968 9.41836e-05 0)
(-0.000866157 9.57599e-05 0)
(-0.00094251 9.70733e-05 0)
(-0.00101984 9.81575e-05 0)
(-0.00109797 9.90445e-05 0)
(-0.00117677 9.97643e-05 0)
(-0.00125611 0.000100344 0)
(-0.00133589 0.00010081 0)
(-0.00141602 0.000101183 0)
(-0.00149643 0.000101485 0)
(-0.00157708 0.000101734 0)
(-0.00165791 0.000101944 0)
(-0.0017389 0.00010213 0)
(-0.00182002 0.000102301 0)
(-0.00190127 0.000102468 0)
(-0.00198264 0.000102637 0)
(-0.00206411 0.000102813 0)
(-0.0021457 0.000103 0)
(-0.00222742 0.0001032 0)
(-0.00230925 0.000103413 0)
(-0.00239122 0.000103639 0)
(-0.00247332 0.000103876 0)
(-0.00255555 0.000104121 0)
(-0.00263793 0.00010437 0)
(-0.00272045 0.000104619 0)
(-0.00280309 0.000104862 0)
(-0.00288586 0.000105093 0)
(-0.00296873 0.000105306 0)
(-0.00305169 0.000105494 0)
(-0.00313472 0.000105649 0)
(-0.00321779 0.000105763 0)
(-0.00330085 0.00010583 0)
(-0.00338387 0.000105839 0)
(-0.0034668 0.000105784 0)
(-0.00354959 0.000105654 0)
(-0.00363217 0.000105441 0)
(-0.00371448 0.000105137 0)
(-0.00379643 0.000104731 0)
(-0.00387797 0.000104215 0)
(-0.00395898 0.00010358 0)
(-0.00403938 0.000102816 0)
(-0.00411906 0.000101913 0)
(-0.00419792 0.000100863 0)
(-0.00427584 9.96554e-05 0)
(-0.00435269 9.82814e-05 0)
(-0.00442835 9.6732e-05 0)
(-0.00450267 9.49976e-05 0)
(-0.00457551 9.30688e-05 0)
(-0.00464672 9.0937e-05 0)
(-0.00471614 8.85932e-05 0)
(-0.00478361 8.60291e-05 0)
(-0.00484895 8.32365e-05 0)
(-0.00491199 8.02072e-05 0)
(-0.00497255 7.69331e-05 0)
(-0.00503043 7.34084e-05 0)
(-0.00508544 6.96255e-05 0)
(-0.00513739 6.5579e-05 0)
(-0.00518607 6.12638e-05 0)
(-0.00523127 5.66744e-05 0)
(-0.00527279 5.18085e-05 0)
(-0.00531042 4.66623e-05 0)
(-0.00534394 4.12344e-05 0)
(-0.00537315 3.55244e-05 0)
(-0.00539782 2.95328e-05 0)
(-0.00541774 2.32612e-05 0)
(-0.00543271 1.67127e-05 0)
(-0.00544252 9.89239e-06 0)
(-0.00544697 2.8058e-06 0)
(-0.00544585 -4.53917e-06 0)
(-0.00543898 -1.21332e-05 0)
(-0.00542617 -1.99654e-05 0)
(-0.00540726 -2.80232e-05 0)
(-0.00538208 -3.62918e-05 0)
(-0.00535047 -4.47555e-05 0)
(-0.0053123 -5.33961e-05 0)
(-0.00526745 -6.21937e-05 0)
(-0.0052158 -7.1127e-05 0)
(-0.00515727 -8.01727e-05 0)
(-0.00509178 -8.93058e-05 0)
(-0.00501928 -9.84997e-05 0)
(-0.00493973 -0.000107726 0)
(-0.00485313 -0.000116956 0)
(-0.00475949 -0.000126158 0)
(-0.00465884 -0.000135301 0)
(-0.00455124 -0.000144351 0)
(-0.00443678 -0.000153274 0)
(-0.00431556 -0.000162035 0)
(-0.00418774 -0.0001706 0)
(-0.00405345 -0.000178932 0)
(-0.00391291 -0.000186996 0)
(-0.00376632 -0.000194757 0)
(-0.00361392 -0.000202178 0)
(-0.003456 -0.000209226 0)
(-0.00329284 -0.000215867 0)
(-0.00312476 -0.000222067 0)
(-0.00295211 -0.000227795 0)
(-0.00277526 -0.000233022 0)
(-0.00259459 -0.000237718 0)
(-0.00241051 -0.000241858 0)
(-0.00222345 -0.000245418 0)
(-0.00203386 -0.000248375 0)
(-0.00184219 -0.000250711 0)
(-0.00164893 -0.000252409 0)
(-0.00145455 -0.000253457 0)
(-0.00125955 -0.000253842 0)
(-0.00106443 -0.00025356 0)
(-0.000869704 -0.000252603 0)
(-0.000675872 -0.000250973 0)
(-0.000483442 -0.000248672 0)
(-0.000292926 -0.000245706 0)
(-0.000104817 -0.000242083 0)
(8.03878e-05 -0.000237815 0)
(0.000262207 -0.000232919 0)
(0.000440172 -0.000227413 0)
(0.000613822 -0.000221317 0)
(0.000782727 -0.000214657 0)
(0.000946453 -0.000207459 0)
(0.00110461 -0.000199752 0)
(0.00125681 -0.000191567 0)
(0.00140271 -0.000182938 0)
(0.00154197 -0.000173899 0)
(0.00167429 -0.000164486 0)
(0.00179939 -0.000154737 0)
(0.00191703 -0.000144691 0)
(0.00202699 -0.000134386 0)
(0.00212906 -0.000123862 0)
(0.00222311 -0.000113158 0)
(0.00230899 -0.000102313 0)
(0.00238659 -9.13657e-05 0)
(0.00245586 -8.03545e-05 0)
(0.00251673 -6.93172e-05 0)
(0.0025692 -5.82891e-05 0)
(0.00261327 -4.73055e-05 0)
(0.00264898 -3.63999e-05 0)
(0.0026764 -2.56039e-05 0)
(0.0026956 -1.49479e-05 0)
(0.0027067 -4.46024e-06 0)
(0.00270982 5.83228e-06 0)
(0.00270511 1.59048e-05 0)
(0.00269274 2.57344e-05 0)
(0.0026729 3.52995e-05 0)
(0.00264579 4.45807e-05 0)
(0.00261162 5.356e-05 0)
(0.00257064 6.22197e-05 0)
(0.00252308 7.05446e-05 0)
(0.0024692 7.85203e-05 0)
(0.00240927 8.61316e-05 0)
(0.00234358 9.33648e-05 0)
(0.00227243 0.000100206 0)
(0.00219611 0.00010664 0)
(0.00211494 0.00011265 0)
(0.00202928 0.00011822 0)
(0.00193945 0.00012333 0)
(0.00184583 0.000127956 0)
(0.00174881 0.000132073 0)
(0.00164879 0.00013565 0)
(0.00154621 0.000138652 0)
(0.00144153 0.000141036 0)
(0.00133525 0.000142755 0)
(0.0012279 0.000143752 0)
(0.00112006 0.000143964 0)
(0.00101236 0.000143316 0)
(0.000905476 0.000141724 0)
(0.000800168 0.000139095 0)
(0.000697233 0.000135324 0)
(0.00059756 0.000130299 0)
(0.000502102 0.000123898 0)
(0.000411884 0.000116 0)
(0.000327999 0.000106491 0)
(0.000251584 9.52785e-05 0)
(0.000183791 8.23212e-05 0)
(0.000125733 6.76777e-05 0)
(7.83833e-05 5.1595e-05 0)
(4.24293e-05 3.46573e-05 0)
(1.80408e-05 1.80426e-05 0)
(4.61375e-06 4.02372e-06 0)
(2.13105e-08 -2.93569e-06 0)
(1.12102e-06 -9.62446e-06 0)
(6.91061e-06 -1.96108e-05 0)
(1.33718e-05 -2.18838e-05 0)
(1.83418e-05 -1.82045e-05 0)
(1.95617e-05 -1.01547e-05 0)
(1.55118e-05 9.34263e-07 0)
(5.13208e-06 1.39933e-05 0)
(-1.22761e-05 2.81908e-05 0)
(-3.71051e-05 4.28925e-05 0)
(-6.95016e-05 5.7623e-05 0)
(-0.000109421 7.20316e-05 0)
(-0.000156668 8.58652e-05 0)
(-0.00021094 9.89476e-05 0)
(-0.000271853 0.000111162 0)
(-0.000338973 0.000122439 0)
(-0.000411829 0.000132746 0)
(-0.000489939 0.000142079 0)
(-0.000572814 0.000150454 0)
(-0.000659978 0.000157906 0)
(-0.000750966 0.000164482 0)
(-0.00084534 0.000170236 0)
(-0.000942685 0.000175228 0)
(-0.00104262 0.000179524 0)
(-0.00114478 0.000183187 0)
(-0.00124886 0.000186285 0)
(-0.00135456 0.00018888 0)
(-0.00146163 0.000191036 0)
(-0.00156984 0.00019281 0)
(-0.00167899 0.000194258 0)
(-0.00178892 0.000195431 0)
(-0.00189947 0.000196376 0)
(-0.00201054 0.000197137 0)
(-0.00212201 0.00019775 0)
(-0.00223381 0.00019825 0)
(-0.00234587 0.000198666 0)
(-0.00245815 0.000199024 0)
(-0.00257062 0.000199344 0)
(-0.00268323 0.000199644 0)
(-0.00279598 0.000199938 0)
(-0.00290886 0.000200235 0)
(-0.00302186 0.000200544 0)
(-0.00313499 0.000200869 0)
(-0.00324823 0.00020121 0)
(-0.0033616 0.000201568 0)
(-0.00347509 0.000201939 0)
(-0.00358871 0.000202319 0)
(-0.00370245 0.000202701 0)
(-0.0038163 0.000203076 0)
(-0.00393026 0.000203435 0)
(-0.0040443 0.000203767 0)
(-0.00415841 0.000204061 0)
(-0.00427255 0.000204303 0)
(-0.0043867 0.00020448 0)
(-0.00450081 0.000204576 0)
(-0.00461483 0.000204579 0)
(-0.0047287 0.000204471 0)
(-0.00484236 0.000204238 0)
(-0.00495574 0.000203862 0)
(-0.00506875 0.000203327 0)
(-0.00518129 0.000202617 0)
(-0.00529328 0.000201714 0)
(-0.0054046 0.000200601 0)
(-0.00551513 0.000199259 0)
(-0.00562474 0.000197673 0)
(-0.00573331 0.000195824 0)
(-0.00584067 0.000193694 0)
(-0.00594668 0.000191267 0)
(-0.00605116 0.000188523 0)
(-0.00615395 0.000185446 0)
(-0.00625486 0.000182019 0)
(-0.0063537 0.000178223 0)
(-0.00645026 0.000174042 0)
(-0.00654434 0.000169461 0)
(-0.00663571 0.000164462 0)
(-0.00672415 0.000159029 0)
(-0.00680941 0.00015315 0)
(-0.00689126 0.000146808 0)
(-0.00696945 0.000139992 0)
(-0.00704371 0.000132688 0)
(-0.00711379 0.000124886 0)
(-0.00717942 0.000116576 0)
(-0.00724031 0.00010775 0)
(-0.0072962 9.84019e-05 0)
(-0.0073468 8.85259e-05 0)
(-0.00739183 7.8119e-05 0)
(-0.00743102 6.71805e-05 0)
(-0.00746407 5.57124e-05 0)
(-0.00749071 4.37178e-05 0)
(-0.00751066 3.12032e-05 0)
(-0.00752364 1.81776e-05 0)
(-0.00752939 4.65295e-06 0)
(-0.00752765 -9.35646e-06 0)
(-0.00751816 -2.38323e-05 0)
(-0.0075007 -3.87538e-05 0)
(-0.00747501 -5.40968e-05 0)
(-0.00744091 -6.98336e-05 0)
(-0.00739818 -8.59338e-05 0)
(-0.00734663 -0.000102363 0)
(-0.00728614 -0.000119084 0)
(-0.00721652 -0.000136057 0)
(-0.00713769 -0.000153236 0)
(-0.00704953 -0.000170576 0)
(-0.00695199 -0.000188025 0)
(-0.006845 -0.000205532 0)
(-0.00672858 -0.000223042 0)
(-0.00660274 -0.000240495 0)
(-0.00646752 -0.000257832 0)
(-0.006323 -0.000274991 0)
(-0.00616931 -0.000291908 0)
(-0.00600657 -0.000308518 0)
(-0.005835 -0.000324756 0)
(-0.0056548 -0.000340554 0)
(-0.0054662 -0.000355847 0)
(-0.00526952 -0.000370567 0)
(-0.00506505 -0.000384648 0)
(-0.00485318 -0.000398028 0)
(-0.00463428 -0.00041064 0)
(-0.00440877 -0.000422426 0)
(-0.00417712 -0.000433325 0)
(-0.00393979 -0.000443281 0)
(-0.00369731 -0.000452242 0)
(-0.00345021 -0.000460159 0)
(-0.00319907 -0.000466987 0)
(-0.00294445 -0.000472684 0)
(-0.00268698 -0.000477215 0)
(-0.00242727 -0.000480549 0)
(-0.00216597 -0.000482661 0)
(-0.00190373 -0.000483531 0)
(-0.0016412 -0.000483143 0)
(-0.00137906 -0.000481491 0)
(-0.00111799 -0.000478573 0)
(-0.000858633 -0.000474392 0)
(-0.000601683 -0.000468958 0)
(-0.000347796 -0.000462286 0)
(-9.76148e-05 -0.000454401 0)
(0.000148203 -0.000445329 0)
(0.000389046 -0.000435104 0)
(0.000624299 -0.000423764 0)
(0.000853376 -0.000411355 0)
(0.00107572 -0.000397925 0)
(0.00129078 -0.000383528 0)
(0.00149806 -0.000368221 0)
(0.00169708 -0.000352065 0)
(0.00188739 -0.000335125 0)
(0.00206857 -0.000317469 0)
(0.00224026 -0.000299164 0)
(0.00240211 -0.000280284 0)
(0.00255382 -0.000260899 0)
(0.00269511 -0.000241084 0)
(0.00282578 -0.000220912 0)
(0.00294561 -0.000200456 0)
(0.00305448 -0.000179789 0)
(0.00315226 -0.000158983 0)
(0.00323887 -0.000138107 0)
(0.00331429 -0.000117231 0)
(0.0033785 -9.64193e-05 0)
(0.00343156 -7.57364e-05 0)
(0.00347351 -5.52426e-05 0)
(0.00350446 -3.49958e-05 0)
(0.00352455 -1.50504e-05 0)
(0.00353392 4.54206e-06 0)
(0.00353277 2.37334e-05 0)
(0.00352131 4.24789e-05 0)
(0.00349978 6.07359e-05 0)
(0.00346843 7.84669e-05 0)
(0.00342756 9.56345e-05 0)
(0.00337746 0.000112206 0)
(0.00331845 0.000128149 0)
(0.00325089 0.000143433 0)
(0.00317512 0.000158029 0)
(0.00309152 0.000171909 0)
(0.00300048 0.000185043 0)
(0.00290243 0.0001974 0)
(0.00279779 0.000208949 0)
(0.00268701 0.000219655 0)
(0.00257055 0.000229477 0)
(0.00244893 0.000238371 0)
(0.00232266 0.000246287 0)
(0.0021923 0.000253166 0)
(0.00205842 0.00025894 0)
(0.00192167 0.000263532 0)
(0.0017827 0.000266851 0)
(0.00164223 0.000268796 0)
(0.00150105 0.000269248 0)
(0.00135997 0.000268076 0)
(0.00121989 0.000265131 0)
(0.00108181 0.000260249 0)
(0.000946746 0.000253251 0)
(0.000815843 0.000243946 0)
(0.000690307 0.000232139 0)
(0.000571416 0.000217638 0)
(0.00046051 0.000200275 0)
(0.000358964 0.000179933 0)
(0.000268145 0.000156594 0)
(0.000189353 0.000130421 0)
(0.000123717 0.000101879 0)
(7.20573e-05 7.19522e-05 0)
(3.47234e-05 4.245e-05 0)
(1.1634e-05 1.65808e-05 0)
(9.74422e-07 9.65298e-08 0)
(9.36864e-07 -1.29553e-05 0)
(5.3467e-06 -2.52604e-05 0)
(9.19188e-06 -2.65161e-05 0)
(1.01778e-05 -1.9392e-05 0)
(6.03206e-06 -6.08912e-06 0)
(-4.80174e-06 1.15668e-05 0)
(-2.34189e-05 3.20935e-05 0)
(-5.05447e-05 5.43146e-05 0)
(-8.65907e-05 7.73129e-05 0)
(-0.000131709 0.000100386 0)
(-0.000185843 0.000123005 0)
(-0.000248773 0.000144778 0)
(-0.000320155 0.000165428 0)
(-0.000399549 0.000184767 0)
(-0.000486455 0.000202675 0)
(-0.000580329 0.000219095 0)
(-0.000680607 0.00023401 0)
(-0.000786717 0.000247439 0)
(-0.000898093 0.000259427 0)
(-0.00101419 0.000270042 0)
(-0.00113448 0.000279364 0)
(-0.00125847 0.000287483 0)
(-0.00138568 0.000294495 0)
(-0.00151571 0.000300502 0)
(-0.00164814 0.000305602 0)
(-0.00178264 0.000309894 0)
(-0.00191888 0.000313476 0)
(-0.00205657 0.000316438 0)
(-0.00219549 0.000318866 0)
(-0.0023354 0.000320842 0)
(-0.00247612 0.000322438 0)
(-0.00261751 0.000323723 0)
(-0.00275943 0.000324757 0)
(-0.00290176 0.000325593 0)
(-0.00304444 0.00032628 0)
(-0.00318738 0.000326856 0)
(-0.00333054 0.000327357 0)
(-0.00347387 0.000327811 0)
(-0.00361735 0.00032824 0)
(-0.00376095 0.000328661 0)
(-0.00390466 0.000329087 0)
(-0.00404848 0.000329525 0)
(-0.0041924 0.000329979 0)
(-0.00433642 0.000330447 0)
(-0.00448052 0.000330927 0)
(-0.0046247 0.000331411 0)
(-0.00476896 0.00033189 0)
(-0.00491328 0.00033235 0)
(-0.00505765 0.000332777 0)
(-0.00520203 0.000333155 0)
(-0.00534641 0.000333464 0)
(-0.00549074 0.000333686 0)
(-0.00563498 0.000333798 0)
(-0.00577908 0.00033378 0)
(-0.00592296 0.000333605 0)
(-0.00606656 0.000333252 0)
(-0.00620981 0.000332694 0)
(-0.0063526 0.000331906 0)
(-0.00649483 0.000330861 0)
(-0.0066364 0.000329534 0)
(-0.00677717 0.000327896 0)
(-0.00691701 0.000325921 0)
(-0.00705578 0.00032358 0)
(-0.00719332 0.000320846 0)
(-0.00732946 0.00031769 0)
(-0.00746402 0.000314085 0)
(-0.00759681 0.000310002 0)
(-0.00772763 0.000305413 0)
(-0.00785626 0.00030029 0)
(-0.00798247 0.000294607 0)
(-0.00810603 0.000288334 0)
(-0.0082267 0.000281447 0)
(-0.0083442 0.000273916 0)
(-0.00845828 0.000265718 0)
(-0.00856865 0.000256829 0)
(-0.00867503 0.000247224 0)
(-0.00877711 0.000236881 0)
(-0.00887458 0.00022578 0)
(-0.00896714 0.0002139 0)
(-0.00905446 0.000201226 0)
(-0.0091362 0.00018774 0)
(-0.00921204 0.000173432 0)
(-0.00928163 0.00015829 0)
(-0.00934464 0.000142307 0)
(-0.00940072 0.000125478 0)
(-0.0094495 0.000107803 0)
(-0.00949067 8.92843e-05 0)
(-0.00952387 6.99281e-05 0)
(-0.00954878 4.97451e-05 0)
(-0.00956503 2.875e-05 0)
(-0.00957233 6.96249e-06 0)
(-0.00957034 -1.55942e-05 0)
(-0.00955877 -3.88909e-05 0)
(-0.00953732 -6.28936e-05 0)
(-0.00950571 -8.7564e-05 0)
(-0.00946367 -0.000112857 0)
(-0.00941097 -0.000138725 0)
(-0.00934741 -0.000165111 0)
(-0.00927276 -0.000191958 0)
(-0.00918689 -0.000219199 0)
(-0.00908962 -0.000246765 0)
(-0.00898085 -0.00027458 0)
(-0.0088605 -0.000302566 0)
(-0.00872852 -0.000330638 0)
(-0.0085849 -0.00035871 0)
(-0.00842965 -0.000386686 0)
(-0.00826285 -0.000414475 0)
(-0.00808459 -0.000441976 0)
(-0.00789502 -0.000469089 0)
(-0.0076943 -0.000495711 0)
(-0.00748265 -0.000521738 0)
(-0.00726037 -0.000547065 0)
(-0.00702774 -0.000571586 0)
(-0.00678512 -0.000595197 0)
(-0.00653288 -0.000617793 0)
(-0.00627147 -0.000639271 0)
(-0.00600138 -0.000659533 0)
(-0.00572307 -0.000678482 0)
(-0.00543713 -0.000696024 0)
(-0.00514416 -0.00071207 0)
(-0.00484474 -0.000726536 0)
(-0.00453953 -0.000739346 0)
(-0.00422924 -0.000750429 0)
(-0.00391458 -0.000759718 0)
(-0.00359626 -0.000767156 0)
(-0.00327506 -0.000772696 0)
(-0.00295173 -0.000776296 0)
(-0.0026271 -0.000777922 0)
(-0.00230195 -0.000777555 0)
(-0.00197709 -0.000775176 0)
(-0.00165335 -0.000770785 0)
(-0.00133154 -0.000764384 0)
(-0.00101247 -0.000755989 0)
(-0.000696969 -0.000745624 0)
(-0.000385816 -0.000733323 0)
(-7.98012e-05 -0.000719129 0)
(0.000220308 -0.000703093 0)
(0.000513769 -0.000685274 0)
(0.000799855 -0.000665743 0)
(0.00107787 -0.000644575 0)
(0.00134716 -0.000621853 0)
(0.00160708 -0.000597666 0)
(0.00185705 -0.000572111 0)
(0.00209651 -0.000545288 0)
(0.00232493 -0.000517301 0)
(0.00254185 -0.000488261 0)
(0.00274684 -0.000458278 0)
(0.00293951 -0.000427468 0)
(0.00311951 -0.000395946 0)
(0.00328656 -0.000363827 0)
(0.00344041 -0.000331227 0)
(0.00358086 -0.000298263 0)
(0.00370775 -0.000265047 0)
(0.00382096 -0.000231692 0)
(0.00392044 -0.000198307 0)
(0.00400618 -0.000164995 0)
(0.00407819 -0.000131861 0)
(0.00413653 -9.90014e-05 0)
(0.00418132 -6.6509e-05 0)
(0.00421268 -3.44726e-05 0)
(0.00423082 -2.97631e-06 0)
(0.00423593 2.79016e-05 0)
(0.00422827 5.8088e-05 0)
(0.00420812 8.75127e-05 0)
(0.00417579 0.000116112 0)
(0.00413161 0.000143825 0)
(0.00407595 0.000170596 0)
(0.00400919 0.00019637 0)
(0.00393176 0.000221096 0)
(0.00384408 0.000244725 0)
(0.00374662 0.000267207 0)
(0.00363987 0.000288493 0)
(0.00352432 0.000308531 0)
(0.00340051 0.000327266 0)
(0.00326902 0.000344639 0)
(0.0031304 0.000360586 0)
(0.00298528 0.000375033 0)
(0.00283431 0.000387897 0)
(0.00267819 0.000399085 0)
(0.00251763 0.000408489 0)
(0.0023534 0.000415986 0)
(0.00218633 0.000421436 0)
(0.0020173 0.000424681 0)
(0.00184726 0.000425541 0)
(0.00167722 0.000423816 0)
(0.00150826 0.000419283 0)
(0.00134154 0.000411703 0)
(0.00117831 0.000400812 0)
(0.0010199 0.000386342 0)
(0.000867718 0.00036802 0)
(0.000723233 0.000345589 0)
(0.000587972 0.000318837 0)
(0.000463488 0.000287637 0)
(0.000351316 0.000252013 0)
(0.00025291 0.000212246 0)
(0.000169572 0.000169025 0)
(0.000102323 0.000123679 0)
(5.18421e-05 7.85163e-05 0)
(1.88085e-05 3.73565e-05 0)
(1.89927e-06 6.57451e-06 0)
(6.4803e-07 -1.53577e-05 0)
(2.92679e-06 -2.8386e-05 0)
(3.02004e-06 -2.71373e-05 0)
(-1.39402e-06 -1.51092e-05 0)
(-1.24574e-05 4.89207e-06 0)
(-3.16782e-05 3.05533e-05 0)
(-6.01176e-05 5.99831e-05 0)
(-9.84743e-05 9.16611e-05 0)
(-0.000147136 0.000124385 0)
(-0.000206231 0.000157214 0)
(-0.000275676 0.000189433 0)
(-0.000355214 0.0002205 0)
(-0.000444458 0.000250027 0)
(-0.000542919 0.00027774 0)
(-0.00065004 0.000303469 0)
(-0.000765215 0.000327117 0)
(-0.000887808 0.000348655 0)
(-0.00101718 0.000368101 0)
(-0.0011527 0.000385511 0)
(-0.00129373 0.000400971 0)
(-0.00143968 0.000414589 0)
(-0.00158999 0.000426488 0)
(-0.00174412 0.000436799 0)
(-0.00190158 0.000445661 0)
(-0.00206191 0.000453213 0)
(-0.0022247 0.000459594 0)
(-0.00238959 0.000464937 0)
(-0.00255623 0.000469373 0)
(-0.00272434 0.000473022 0)
(-0.00289367 0.000476 0)
(-0.00306398 0.00047841 0)
(-0.0032351 0.000480351 0)
(-0.00340685 0.000481909 0)
(-0.00357912 0.00048316 0)
(-0.00375178 0.000484174 0)
(-0.00392475 0.000485008 0)
(-0.00409797 0.000485712 0)
(-0.00427137 0.000486328 0)
(-0.00444491 0.000486889 0)
(-0.00461856 0.000487421 0)
(-0.0047923 0.000487942 0)