/*--------------------------------*- C++ -*----------------------------------*\
  =========                 |
  \\      /  F ield         | OpenFOAM: The Open Source CFD Toolbox
   \\    /   O peration     | Website:  https://openfoam.org
    \\  /    A nd           | Version:  6
     \\/     M anipulation  |
\*---------------------------------------------------------------------------*/
FoamFile
{
    version     2.0;
    format      ascii;
    class       volVectorField;
    location    "0";
    object      U;
}
// * * * * * * * * * * * * * * * * * * * * * * * * * * * * * * * * * * * * * //

dimensions      [0 1 -1 0 0 0 0];

internalField   nonuniform List<vector> 
918
(
(0.985913 0.0033639 0)
(-0.0040797 2.96744 0)
(0.000996587 1.68004 0)
(0.980939 -0.00209774 0)
(-0.00746097 1.65149 -1.52662e-21)
(0.00139656 2.951 -1.43956e-18)
(0.875206 1.14272 5.0147e-19)
(0.519062 0.257911 -5.84411e-21)
(0.999868 1.96692e-05 0)
(0.0693343 1.4717 0)
(-0.0126886 1.51072 0)
(0.867046 -0.00304757 0)
(0.00909046 2.93422 0)
(0.00231895 2.79821 0)
(-0.00393476 3.19122 7.62591e-19)
(-0.00305939 1.5822 -1.15359e-20)
(0.618113 0.117322 3.57899e-19)
(0.251694 1.63787 3.56444e-19)
(0.969021 0.0119994 0)
(0.0040344 1.56709 0)
(0.246081 0.293139 -3.28718e-19)
(1.00149 -0.00476025 0)
(1.0012 -0.0084098 0)
(0.976049 -0.00494783 0)
(0.792599 -0.0237945 0)
(0.032294 2.63187 0)
(-0.0112849 2.91534 4.87028e-19)
(-0.00565614 1.69443 0)
(-0.0107434 1.76989 0)
(-0.0169323 1.70048 0)
(-9.56824e-05 1.80269 0)
(0.00329656 1.66695 1.19549e-21)
(-0.00289063 1.58315 0)
(-0.0197697 2.98959 -5.06658e-23)
(-0.0137604 3.00796 1.13311e-18)
(0.00162737 2.99968 0)
(0.90178 -0.00498253 0)
(0.324335 0.937711 1.87378e-20)
(0.833951 1.18918 -7.28488e-19)
(0.980315 1.00849 6.70392e-19)
(0.69789 1.30127 -1.123e-19)
(0.756091 1.23756 6.29111e-19)
(0.563541 0.313728 5.69977e-21)
(0.559494 0.211424 0)
(1.20426 0.55818 0)
(0.506624 0.334682 2.62732e-20)
(0.484795 0.252759 -2.72708e-20)
(0.921908 -0.00171068 0)
(1.00015 0.00051621 0)
(0.999946 0.000294314 0)
(1.00404 -0.0070066 0)
(1.00072 -0.000672775 0)
(1.00013 -0.000181041 0)
(0.0281216 1.57016 -3.78024e-19)
(0.0381704 1.60449 0)
(0.120747 1.49883 0)
(0.021939 1.62262 0)
(0.0365971 1.44879 0)
(-0.00802394 1.60546 0)
(-0.0147523 1.61454 0)
(-0.0110539 1.49803 0)
(-0.0161776 1.6382 0)
(-0.0104062 1.53017 0)
(0.932621 0.00978628 0)
(0.925792 0.00313837 0)
(0.873988 -0.00529703 0)
(0.919912 0.0107154 0)
(0.843963 0.0108547 0)
(0.0137755 3.00357 5.20144e-19)
(0.0116337 3.0046 0)
(0.0073857 3.00382 0)
(0.0108374 2.99813 5.82999e-24)
(0.00622134 2.9618 -7.82672e-19)
(0.0119764 2.98396 0)
(0.00858734 2.90859 0)
(0.0215067 2.93288 1.07737e-24)
(0.0041252 2.8273 0)
(0.0262471 2.91966 0)
(-0.00111157 2.74655 0)
(0.303744 3.58674 0)
(-0.127149 3.66808 0)
(0.144386 3.28231 -7.06656e-19)
(0.002049 3.01985 0)
(0.013536 1.76136 0)
(-0.00212684 1.66534 1.13791e-20)
(-0.00129887 1.57909 -2.31266e-20)
(0.690793 0.158882 -1.22725e-19)
(0.646885 0.0585123 -1.16666e-19)
(0.656982 0.195293 -3.6821e-19)
(0.620654 0.132095 -2.4592e-19)
(0.240653 1.29996 0)
(0.247519 1.65079 -3.73544e-19)
(0.418966 1.52567 6.22579e-19)
(0.989884 0.0113556 0)
(0.951456 0.0120717 0)
(0.999856 0.000884253 0)
(1.0034 0.00817969 0)
(1.00267 0.0123142 -6.17489e-19)
(0.992522 0.00599592 4.70338e-19)
(-0.00141081 1.6569 0)
(0.00735618 1.57287 0)
(-0.0116145 1.71441 0)
(-0.00774104 1.67094 0)
(0.00395681 1.57183 0)
(0.282509 0.318217 9.99209e-20)
(0.330632 0.292813 0)
(0.992828 -0.0048889 0)
(0.959408 0.000399284 0)
(0.888649 0.0333127 0)
(0.859354 0.0273349 0)
(0.816379 0.00881089 0)
(1.05158 0.0120772 0)
(0.825136 0.00805764 0)
(0.732881 -0.023552 4.62127e-19)
(-0.0332794 2.86835 2.9041e-19)
(0.0374658 2.91328 0)
(0.0467675 2.88899 0)
(0.00506038 2.69893 0)
(-0.00764275 2.98742 4.54013e-19)
(-0.0116678 2.89946 0)
(-0.00977104 2.99194 -1.42397e-18)
(-0.00983089 2.93203 4.89792e-19)
(-0.00707503 1.80011 0)
(-0.00110481 1.78988 0)
(0.00220761 1.67399 -3.49406e-22)
(0.00262724 1.66475 0)
(-0.00287078 1.57621 0)
(0.95232 0.00338475 0)
(0.903667 0.00833294 0)
(0.886293 -0.00970581 0)
(0.953586 -0.0041455 0)
(0.900333 -0.00307704 0)
(0.487226 1.12111 -2.87625e-20)
(0.534763 1.19359 0)
(0.21282 0.838495 8.03317e-21)
(0.226648 0.667965 0)
(0.939369 1.05654 -1.95971e-19)
(1.07033 0.848037 4.0186e-19)
(0.363547 1.53505 0)
(0.532597 1.40115 0)
(0.59497 1.35147 0)
(0.236711 0.0502118 -1.1541e-19)
(0.593672 0.290112 0)
(0.584545 0.208922 7.20344e-20)
(1.03958 0.905111 0)
(1.12164 0.749084 0)
(1.15237 0.693475 -3.51409e-19)
(1.20373 0.595854 0)
(1.25586 0.418744 3.61217e-20)
(0.95452 0.00116416 0)
(0.957792 -0.00546915 0)
(0.909706 -0.0015305 0)
(0.987397 -0.0028539 0)
(0.972768 -0.000594748 0)
(0.9466 -0.000528397 0)
(1.00056 0.0024486 0)
(1.00016 0.000786871 0)
(0.999971 0.000525005 0)
(0.0224758 1.63966 2.05378e-19)
(0.0724186 1.54241 0)
(-0.00144696 1.6636 3.33951e-19)
(0.00575902 1.56255 -2.84867e-19)
(0.0845376 1.66559 -2.97109e-19)
(0.0727919 1.66221 0)
(0.194174 1.57059 0)
(0.00484542 1.58551 0)
(0.0110636 1.42969 0)
(-0.00885352 1.69431 -8.92174e-22)
(0.002737 1.62755 0)
(-0.0132623 1.68451 -4.71002e-20)
(-0.00592235 1.59668 8.84908e-20)
(-0.015335 1.587 0)
(-0.0205328 1.60666 0)
(-0.0115504 1.45819 0)
(-0.0132796 1.65371 0)
(-0.00637704 1.54407 0)
(0.990908 0.0176801 0)
(0.953458 0.00730106 0)
(0.976051 0.0104131 0)
(0.925714 0.00564319 0)
(0.882911 -0.00277196 0)
(0.942935 0.00811202 0)
(0.93693 0.00593926 0)
(0.878772 0.0056258 0)
(0.00900375 3.06367 -4.49287e-21)
(0.0131449 3.05732 0)
(0.012421 2.97212 0)
(0.00758259 2.88023 0)
(0.900231 3.98455 0)
(1.20059 3.36187 7.40531e-19)
(0.0787138 3.10301 0)
(-0.0153449 2.92787 0)
(0.00248318 1.78537 0)
(0.0133084 1.76048 0)
(0.010653 1.76337 0)
(0.00319524 1.78847 2.44093e-21)
(0.0168975 1.76514 0)
(0.00789242 1.77921 0)
(-0.00241784 1.58272 3.44944e-21)
(-0.00419063 1.67822 2.69327e-20)
(0.00103365 1.66798 2.36093e-20)
(-0.00314307 1.57698 0)
(0.703301 0.118526 1.7712e-19)
(0.666132 0.0468393 -1.72475e-19)
(0.199939 1.37834 0)
(0.316791 1.17762 -1.82913e-19)
(0.139571 1.45523 -5.19303e-19)
(0.189977 1.35258 5.18528e-19)
(0.903772 0.0129799 0)
(0.972268 0.0202478 0)
(0.980476 0.0152569 0)
(0.934201 0.0205366 0)
(-0.00613686 1.65946 0)
(0.001517 1.6626 0)
(0.00768186 1.56177 0)
(0.462896 0.352747 2.4061e-19)
(0.410743 0.33073 -2.96661e-19)
(0.411476 0.255121 0)
(1.17359 0.0863058 -5.51718e-21)
(1.16065 0.0325985 0)
(1.08019 0.0442229 0)
(0.995338 -0.000194239 0)
(0.732478 0.104432 0)
(0.774352 0.0608104 -7.45754e-19)
(0.697206 0.0433724 2.88335e-19)
(0.0113915 2.98227 3.47946e-19)
(-0.0276282 2.86781 3.32308e-20)
(0.00633119 3.05021 -9.63552e-21)
(0.0154508 3.04078 3.65367e-19)
(-0.00970471 3.0001 1.62591e-20)
(-0.00869522 2.95399 -6.62236e-23)
(-0.0152663 3.01271 -3.09129e-19)
(0.0129691 3.02323 2.20086e-19)
(0.00608013 3.03261 -3.54589e-19)
(0.973055 0.00716678 0)
(0.966662 0.00811788 0)
(0.913378 0.00642604 0)
(0.955452 0.0155089 0)
(0.946751 0.00327243 0)
(0.8826 0.00845152 0)
(0.945795 -0.00306973 0)
(0.940351 -0.00625203 0)
(0.885341 -0.0121243 0)
(0.690304 1.41334 1.64303e-19)
(0.705709 1.52216 0)
(0.151256 -0.0843932 -2.31372e-20)
(0.14075 0.368154 -1.70883e-19)
(0.132905 0.522428 -2.32242e-20)
(0.225798 0.291728 4.61546e-20)
(0.426226 0.681328 7.21888e-19)
(0.267353 0.328986 2.28741e-19)
(0.655665 0.223584 2.67177e-19)
(0.625795 0.267544 6.59025e-20)
(0.608391 0.168375 1.37823e-19)
(1.24519 0.45875 2.26196e-19)
(1.27345 0.253693 2.37992e-19)
(-0.0090958 1.6548 1.32791e-19)
(0.012877 1.57192 0)
(1.02989 0.0204012 0)
(1.00826 0.0111414 0)
(0.963914 -0.00618405 0)
(0.0102742 3.07242 0)
(0.0174132 2.94529 6.24408e-19)
(0.0142347 2.95853 0)
(0.00636697 2.85404 -6.20673e-19)
(0.0088948 3.08737 1.47526e-19)
(0.0115275 3.08037 0)
(0.728398 1.80877 -1.59657e-19)
(1.24029 2.59439 5.32375e-19)
(0.702158 1.97971 -1.09983e-18)
(0.0234118 2.98564 -2.69203e-19)
(0.0418153 3.01308 0)
(-0.0301976 2.88893 0)
(-0.00320729 1.67161 -5.00851e-21)
(-0.00152005 1.6766 -6.36712e-20)
(0.00178668 1.58706 -3.4695e-21)
(0.276868 1.25077 5.62604e-19)
(0.347551 1.03432 -3.85161e-19)
(0.0526035 1.58845 3.4517e-19)
(0.0893424 1.52233 -4.25753e-19)
(0.123221 1.45102 5.24862e-20)
(0.00615329 3.11632 -8.80783e-19)
(0.0204007 3.11551 9.66377e-19)
(-0.00421238 2.98298 4.05013e-19)
(0.000483144 2.97778 -3.72778e-19)
(-0.0154818 2.88356 -4.12618e-19)
(0.0109647 3.09661 -1.08318e-18)
(0.00435466 3.1052 1.06813e-18)
(0.416325 0.501809 0)
(0.301122 0.425423 3.75799e-19)
(0.129912 -0.136287 -1.31942e-19)
(0.418516 0.838854 6.58948e-19)
(0.377779 0.627941 -9.97541e-19)
(1.25032 0.175556 -4.79195e-20)
(1.26898 0.311063 0)
(1.24743 0.126256 9.48877e-20)
(0.00707772 1.6892 -1.11835e-21)
(0.00713706 1.66453 0)
(0.0144002 1.60115 0)
(0.308622 1.1174 -1.98496e-19)
(0.351141 0.999438 -4.5146e-19)
(0.362028 0.85401 8.10762e-19)
(1.00317 -0.00879716 0)
(1.00448 -0.00620363 1.12191e-19)
(-0.00488027 1.79894 0)
(-0.00720415 1.80253 0)
(1.00225 0.00222408 8.80498e-22)
(1.00386 0.00775547 2.3118e-19)
(0.00173951 1.7883 -3.22344e-21)
(-0.00127651 1.78809 0)
(0.0451225 3.18518 1.38103e-19)
(0.371759 3.54144 0)
(1.0878 0.688225 5.61125e-20)
(1.00775 0.00581705 -1.84753e-21)
(1.00219 -0.0168443 0)
(1.00038 -0.000557893 4.60256e-22)
(0.0114235 1.80916 0)
(0.0350613 1.77636 0)
(-0.0217377 1.79279 0)
(0.000138516 1.78383 6.26294e-20)
(0.00121739 1.79574 3.10123e-20)
(1.00284 0.0101391 7.00629e-22)
(1.0446 0.0130491 0)
(1.074 0.026163 0)
(0.00835684 1.76819 0)
(0.00543044 1.78522 0)
(-0.00413697 1.79434 0)
(0.0344686 1.74603 -2.11596e-19)
(1.01288 -0.0142077 0)
(1.0112 -0.0196975 0)
(1.0056 -0.000929262 1.40978e-19)
(1.0022 -0.004263 -1.706e-19)
(1.0018 -0.00276572 0)
(-0.00322574 1.77939 0)
(-0.00342648 1.79557 0)
(-0.00154629 1.7889 0)
(-0.00538235 1.79654 0)
(-0.00507915 1.79403 0)
(-0.00610601 1.79601 0)
(1.02204 0.00964307 0)
(1.02177 0.00333838 -3.66438e-22)
(0.704331 1.2228 3.57987e-19)
(1.00105 -0.00129673 -1.41661e-19)
(1.00233 0.00303948 1.72278e-19)
(1.00107 0.00138546 0)
(1.00738 0.00746005 1.37487e-19)
(1.00805 0.00717771 -1.70793e-19)
(1.00624 0.00404146 0)
(0.00559707 1.78612 0)
(0.00479139 1.7853 1.22655e-20)
(0.00575825 1.78323 -9.50884e-21)
(1.1604 0.257916 -8.2979e-20)
(1.10431 0.0828842 0)
(0.0662333 3.08725 -4.28551e-19)
(0.0552697 2.86294 -3.28212e-20)
(0.129036 3.20832 5.45724e-19)
(0.138186 3.22444 -5.26294e-20)
(0.144989 3.26537 0)
(0.0263117 3.13792 1.05104e-19)
(0.0761733 3.16406 4.21741e-19)
(0.0738163 3.18736 -2.01207e-19)
(0.0332997 3.12522 0)
(0.704235 0.355268 0)
(0.602184 0.404034 0)
(1.07821 0.734568 -1.96733e-19)
(1.02402 0.847857 2.87919e-19)
(1.10733 0.567034 0)
(1.13433 0.551819 0)
(1.00844 0.00831241 -2.59462e-19)
(1.00794 0.0110187 3.28264e-19)
(1.00618 -0.0135639 0)
(1.00827 -0.00981424 0)
(1.01682 -0.0089851 0)
(1.01697 0.00563842 0)
(1.00588 0.00233232 0)
(1.01033 0.00948804 0)
(1.00647 0.00336758 0)
(1.00486 0.0041888 0)
(0.0112247 1.80971 0)
(0.00267499 1.81593 0)
(0.0215443 1.8151 0)
(0.00553293 1.80975 0)
(0.040662 1.7782 0)
(0.0619151 1.78345 -2.19807e-19)
(0.0162664 1.79282 0)
(-0.00429031 1.77908 1.11587e-19)
(0.032378 1.7926 -1.09939e-19)
(-0.0169707 1.79814 0)
(-0.0116461 1.79898 0)
(-0.0242942 1.79275 0)
(-0.0253339 1.7992 0)
(-0.0039029 1.7931 -3.87694e-20)
(-0.00457982 1.79568 4.59014e-20)
(-0.00979333 1.79302 5.65187e-20)
(-0.0107577 1.79278 0)
(-0.000560701 1.79849 -7.03335e-20)
(-0.00187407 1.79596 -4.13718e-20)
(-0.00299969 1.79484 3.15775e-20)
(-0.00286341 1.79388 -5.80365e-20)
(-0.00620965 1.79441 -6.77103e-20)
(1.01 0.0129935 2.46545e-19)
(1.01017 0.00525087 -3.06837e-19)
(1.00383 0.0241081 -2.55824e-19)
(0.988948 0.0230793 3.26554e-19)
(1.03986 0.0163384 0)
(1.04389 0.00824455 0)
(1.06237 0.0325724 0)
(1.04426 0.00814394 0)
(1.0611 0.0101871 0)
(1.09538 0.0590198 0)
(1.07653 0.0447076 0)
(1.09825 0.0410972 0)
(0.0133199 1.77131 -1.02217e-21)
(0.00579934 1.76298 0)
(0.0111553 1.76613 0)
(-0.00202046 1.78896 1.32624e-20)
(-0.00293477 1.78648 -6.49297e-22)
(-0.00820701 1.77572 1.09979e-20)
(-0.0058144 1.78479 -1.11366e-20)
(-0.00702556 1.79491 0)
(-0.00562667 1.79526 0)
(-0.00471776 1.79373 0)
(-0.00345411 1.79431 0)
(-0.00398189 1.7939 0)
(0.102415 1.66259 3.84915e-19)
(0.157909 1.57011 1.83375e-19)
(0.445284 1.66336 -1.36554e-19)
(0.173396 1.7149 3.49132e-19)
(0.0885924 2.02953 9.16487e-20)
(1.00372 -0.0187108 0)
(1.00989 -0.0190506 0)
(1.00339 -0.0247077 0)
(1.01271 -0.00960427 0)
(1.00483 -0.00481205 0)
(1.00191 -0.00582455 0)
(1.00582 -0.00957438 0)
(1.00306 -0.0141905 0)
(1.02373 0.00192891 2.35309e-19)
(1.02525 0.00159006 -3.05398e-19)
(1.021 0.00421205 -2.32769e-19)
(1.01683 0.00561283 2.93958e-19)
(0.714506 1.22778 0)
(0.579259 1.25374 4.17613e-19)
(0.80465 1.14136 2.53722e-19)
(0.835945 1.1401 -3.37483e-19)
(1.16217 2.59226 -2.01108e-19)
(0.812268 0.128514 1.79717e-19)
(1.10636 0.0879748 0)
(1.1642 0.185421 7.4e-20)
(1.15656 0.148673 4.02337e-21)
(0.973512 0.13277 0)
(0.126706 3.03182 -1.7105e-20)
(0.117225 2.89908 -5.04319e-19)
(0.0613153 2.32955 3.4549e-19)
(0.201713 0.127017 -1.46124e-19)
(0.344021 3.44875 -2.97482e-19)
(0.198933 3.34315 0)
(0.221953 3.40358 3.87326e-19)
(0.238511 3.0865 -2.07875e-19)
(0.290304 3.21273 0)
(0.00786386 3.11922 2.25901e-20)
(0.0196362 3.12839 -2.79452e-19)
(0.0179454 3.12387 4.10535e-19)
(0.0397226 3.1381 0)
(0.0379492 3.15038 0)
(1.24283 2.57857 0)
(0.514495 0.853209 -1.50541e-19)
(0.972457 1.01041 -1.44247e-19)
(0.952748 1.01894 0)
(0.851757 0.897335 5.0374e-20)
(1.02592 0.868596 2.20541e-20)
(0.442326 0.471497 -3.5798e-19)
(0.728543 0.348696 -1.56592e-20)
(0.741192 0.307363 1.40294e-19)
(0.607299 0.429775 1.13299e-20)
(0.567119 0.430692 -4.66216e-19)
(0.69891 0.365739 0)
(0.666969 0.428322 2.35595e-19)
(0.673066 0.432525 0)
(0.65402 0.408963 0)
(0.670961 0.359152 0)
(0.72625 0.615765 7.20012e-20)
(1.15561 0.263245 5.31592e-20)
(1.15807 0.414728 0)
(1.1732 0.392153 0)
(0.797455 0.223936 2.09855e-19)
(0.775981 0.549399 -1.13129e-19)
(0.704702 0.490877 1.84376e-19)
(0.870333 0.417468 -1.61324e-19)
(1.02274 0.00371501 1.66528e-19)
(1.01419 0.0102203 -1.72781e-19)
(1.01823 0.0102591 0)
(1.01882 0.0130646 0)
(1.00989 0.00121167 -1.50709e-19)
(1.01092 0.000356497 1.49708e-19)
(1.01877 0.00593631 0)
(1.01848 0.00376261 0)
(1.01905 0.00853486 0)
(1.02172 0.0116111 0)
(1.02972 0.00588872 0)
(1.02373 0.00465533 0)
(0.00611914 1.81704 0)
(0.0129654 1.80969 0)
(0.038396 1.81636 2.08758e-20)
(0.037576 1.7661 9.9969e-20)
(0.0239863 1.81702 2.06127e-19)
(0.0103953 1.80588 -3.4104e-19)
(0.0327889 1.82484 0)
(0.033777 1.79754 -6.30104e-20)
(0.0376172 1.79625 0)
(0.116981 1.97559 -1.3194e-19)
(0.167662 1.86415 3.78555e-19)
(0.030561 1.82307 5.65091e-20)
(0.00506439 1.78157 4.14028e-20)
(0.0242152 1.8029 -3.41394e-20)
(-0.0265215 1.77021 2.30144e-21)
(0.0451973 1.83285 0)
(0.0271168 1.85552 2.69655e-20)
(0.015117 1.7978 -3.0555e-20)
(0.0218019 1.78566 0)
(0.00761522 1.77548 1.29431e-19)
(0.015538 1.79165 0)
(-0.00383945 1.77935 -1.20889e-19)
(0.00536055 1.78 0)
(-0.0150787 1.78385 -3.00544e-20)
(-0.000204303 1.79407 0)
(-0.0112987 1.7963 0)
(-0.0187547 1.78124 3.36918e-20)
(0.00897772 1.78669 -1.7545e-21)
(0.0290601 1.79253 1.27821e-19)
(0.024051 1.78985 8.98018e-22)
(-0.00760877 1.78252 2.45841e-20)
(-0.00754969 1.78418 1.5303e-20)
(-0.0128794 1.80008 0)
(-0.0115483 1.80018 0)
(0.0167434 1.79121 7.68468e-20)
(0.0152665 1.79724 5.16641e-20)
(0.00627817 1.79055 -7.51931e-20)
(0.0257433 1.79526 0)
(-0.00640429 1.77887 -4.5036e-20)
(-0.00345467 1.78636 1.95526e-20)
(-0.00759016 1.78794 -6.2312e-21)
(-0.00493277 1.7819 -3.036e-20)
(-0.00626902 1.79112 -1.02001e-20)
(-0.00352416 1.79303 4.84202e-20)
(1.01511 0.00780666 -1.58388e-19)
(1.01197 0.00464689 1.65726e-19)
(1.01003 0.00359003 0)
(0.992214 0.0562274 2.38891e-19)
(0.98638 0.0282071 -2.78786e-19)
(0.963582 0.026931 3.22214e-19)
(0.989748 0.0991311 -3.06561e-20)
(1.02756 0.00464489 0)
(1.03541 0.012543 1.32801e-19)
(1.03733 0.00466146 -1.31688e-19)
(1.03145 0.034488 -7.33482e-21)
(1.03087 0.0198807 6.43687e-20)
(1.00214 0.0373827 0)
(0.991561 0.0332723 -2.44357e-20)
(1.0048 0.0234253 0)
(1.01165 0.0182587 0)
(1.01751 0.00591012 0)
(1.01707 0.00563683 0)
(1.00586 0.0232293 5.07921e-20)
(1.01468 0.0155443 -1.15671e-19)
(1.01548 0.0384427 -5.13219e-20)
(1.00317 0.0345846 -5.96381e-20)
(1.00161 0.0373682 1.00632e-19)
(1.04299 0.0415697 0)
(1.04133 0.0805357 0)
(-0.00501487 1.77658 -1.44538e-20)
(-0.0047227 1.76679 -1.47026e-21)
(-0.00667697 1.76925 0)
(0.000979072 1.78097 1.40696e-20)
(0.00283017 1.77318 2.38073e-21)
(-0.000904514 1.77938 -2.44965e-21)
(-0.00303658 1.79529 3.6601e-20)
(-0.00819101 1.79055 -2.22902e-21)
(-0.00703384 1.79092 1.07424e-20)
(-0.00453426 1.79106 -1.97155e-20)
(-0.00256121 1.79128 2.3144e-20)
(-0.00818682 1.78921 3.28229e-23)
(-0.0113625 1.77534 1.92148e-20)
(-0.0154096 1.63241 -1.78992e-19)
(-0.0592393 1.78126 -7.7985e-20)
(0.55784 1.28505 -4.02678e-19)
(0.296251 1.45026 -1.75848e-19)
(0.403527 1.39295 0)
(0.469521 1.68225 1.49586e-19)
(0.508734 1.55587 2.02851e-19)
(0.242948 1.71023 4.56421e-20)
(0.259171 1.75855 -4.31985e-19)
(0.325612 1.82018 3.84653e-19)
(0.407056 1.6689 0)
(0.328179 1.68144 -3.00994e-19)
(0.0921338 1.76639 5.85575e-19)
(0.146053 1.74423 -3.83356e-20)
(0.0947205 1.75993 -8.05362e-19)
(0.885949 2.27399 4.07985e-20)
(0.674314 1.82794 0)
(1.01906 -0.018603 5.57756e-21)
(1.00368 -0.0170422 -4.52891e-21)
(1.00363 -0.00888492 -7.9705e-20)
(1.02639 -0.00743246 8.1137e-20)
(1.02868 -0.0116569 0)
(0.694546 0.969163 0)
(0.808812 0.918177 0)
(0.750429 1.07457 0)
(0.74082 0.993508 0)
(1.17485 2.65398 -1.35243e-20)
(1.01621 2.34193 0)
(0.977764 2.64441 -5.76091e-21)
(0.51522 2.69443 0)
(0.818701 2.77758 1.42505e-19)
(0.899585 2.74732 -9.19175e-20)
(0.829897 0.140383 0)
(0.812112 0.14947 5.19534e-20)
(0.881298 0.126482 2.6273e-19)
(0.837471 0.113685 -1.07825e-19)
(0.846296 0.0810109 -3.12406e-19)
(1.00184 0.202332 -1.39803e-19)
(0.911176 0.266024 -9.00141e-21)
(0.896546 0.277484 2.34927e-19)
(0.948047 0.167803 1.61766e-19)
(0.904831 0.163148 -3.23517e-19)
(0.892896 0.160724 4.29196e-20)
(0.944574 0.231335 -7.64277e-20)
(0.906808 0.174165 0)
(0.970541 0.152225 1.5269e-19)
(0.993327 0.168453 0)
(0.988764 0.167921 0)
(1.04081 0.107048 4.0727e-20)
(1.00671 0.158369 -8.13627e-21)
(0.999649 0.218196 -2.39213e-20)
(1.05305 0.194078 0)
(1.00503 0.0266332 1.20482e-19)
(1.00217 0.0297411 1.41257e-19)
(1.00715 0.0301122 -1.17508e-19)
(1.01278 0.036597 -9.60025e-20)
(1.00428 0.0522632 -1.67893e-19)
(0.93812 0.122794 0)
(0.98036 0.0901126 0)
(0.958401 0.0386491 -1.15831e-19)
(0.922006 0.0544647 5.02597e-20)
(1.01558 0.0913223 1.36335e-19)
(1.00366 0.112216 -1.31016e-19)
(1.01283 0.149548 1.22814e-19)
(1.01438 0.139313 0)
(1.01784 0.0809421 0)
(1.00587 0.073922 -5.44717e-20)
(1.01649 0.0748216 -1.06913e-19)
(0.953025 1.21426 -1.32178e-19)
(0.940202 1.41214 1.44388e-19)
(1.17659 2.7161 1.26857e-20)
(1.19412 3.09259 -4.18818e-20)
(1.24546 2.72931 2.40981e-19)
(1.28555 2.69932 -1.53709e-19)
(1.25943 2.31671 -1.746e-20)
(1.18382 2.99841 9.9571e-20)
(1.20099 2.96587 -8.40222e-20)
(1.18012 3.24655 -1.70074e-19)
(1.39132 2.96925 2.05739e-19)
(1.40269 2.89363 0)
(0.509984 0.876256 -9.27107e-21)
(0.24315 1.3232 1.87239e-19)
(0.491349 0.543552 2.31803e-19)
(0.339073 0.342442 2.7676e-19)
(0.566966 0.441815 2.59945e-19)
(0.53841 0.501161 -4.17047e-19)
(0.534739 0.499053 3.46636e-19)
(0.524926 0.475565 -1.38974e-19)
(0.516924 0.414602 3.17368e-19)
(0.790851 0.251328 -1.15497e-19)
(0.763695 0.285791 0)
(0.770587 0.259311 8.27648e-21)
(0.665965 0.521689 1.20666e-19)
(0.645971 0.482133 -4.45541e-19)
(0.603128 0.504506 1.48414e-20)
(0.626256 0.457173 0)
(0.650325 0.743688 8.83007e-20)
(0.773954 0.717324 2.84918e-20)
(0.716231 0.805352 -3.86848e-20)
(0.80789 0.749282 -3.88404e-21)
(0.899624 0.80946 1.22925e-20)
(0.907023 0.814645 -1.26177e-20)
(0.779247 0.637979 -1.23983e-19)
(0.852335 0.712962 3.62519e-21)
(0.931512 0.702185 0)
(0.934056 0.684023 4.29496e-21)
(0.949112 0.300859 3.26825e-20)
(1.08146 0.265822 -8.91811e-21)
(0.99108 0.224431 5.67554e-20)
(0.928381 0.340125 -7.75635e-20)
(0.959877 0.429685 0)
(1.04211 0.393079 0)
(0.801231 0.369578 -1.38359e-21)
(0.846204 0.26915 0)
(0.841121 0.256179 1.21988e-19)
(0.85056 0.272455 2.52364e-21)
(0.872947 0.42201 4.41289e-19)
(0.830379 0.491747 1.06996e-19)
(0.826515 0.439096 -1.53232e-19)
(0.758665 0.42699 1.64025e-19)
(0.74576 0.434688 1.13405e-19)
(0.712758 0.434663 -1.11005e-19)
(1.02153 0.0178831 1.31107e-19)
(1.02861 0.00550899 0)
(1.02661 0.00625793 8.89275e-20)
(1.01603 0.0113954 -1.98472e-19)
(1.0291 0.00700895 9.37528e-20)
(1.02718 0.00676492 -1.99311e-19)
(1.02198 0.00364118 0)
(1.02058 0.00364459 -4.08861e-20)
(1.02826 0.00415175 1.02504e-19)
(1.02344 0.00658618 -5.34144e-20)
(1.02275 0.00716532 3.92191e-20)
(-0.0183469 1.80128 0)
(-0.00990336 1.79554 0)
(0.00819609 1.81424 0)
(-0.0100886 1.80569 0)
(0.0110109 1.8128 1.12e-20)
(0.0115573 1.81526 -3.4227e-21)
(0.00798178 1.80053 -2.37711e-20)
(0.00919149 1.81768 -2.09788e-20)
(0.0241926 1.80493 -4.46562e-20)
(0.0206165 1.80511 3.36983e-20)
(0.0200216 1.81541 -1.00061e-20)
(0.0193922 1.82438 -1.294e-21)
(0.01744 1.81495 9.34044e-23)
(0.0113577 1.80932 -4.60324e-21)
(0.00713227 1.77659 -1.39073e-19)
(0.015653 1.77664 0)
(0.0250335 1.76772 7.7909e-20)
(0.0306156 1.79084 5.25187e-20)
(0.0680752 1.80391 -5.73041e-20)
(0.0949185 1.77277 0)
(0.0973498 1.77514 -4.15749e-19)
(0.139755 1.82258 2.91109e-19)
(0.068855 1.78849 -1.49452e-19)
(0.0403301 1.77181 8.33397e-20)
(0.0218913 1.76284 0)
(0.0100816 1.78812 -9.8616e-20)
(-0.00181522 1.78378 -1.20146e-19)
(0.000770932 1.78936 0)
(0.0165277 1.79266 -3.06234e-21)
(0.0187483 1.79441 4.76359e-20)
(-0.0164789 1.78482 4.55506e-21)
(-0.0148969 1.78737 -7.84987e-20)
(-0.0118526 1.77855 2.07226e-20)
(-0.0129206 1.76988 2.86706e-20)
(-0.0138379 1.7802 0)
(-0.00843052 1.77927 0)
(-0.00484917 1.79471 1.98914e-20)
(-0.00376871 1.78247 -6.3749e-21)
(-0.00782945 1.7804 0)
(-0.00991397 1.79875 1.5167e-20)
(-0.00752684 1.79696 -2.99391e-20)
(1.01735 0.016599 0)
(1.01891 0.0173181 -1.24234e-20)
(1.0146 0.0128721 -9.10501e-20)
(1.01862 0.0207016 0)
(1.01864 0.0257034 0)
(1.0181 0.00370301 -4.23525e-21)
(1.0187 0.00411167 1.5286e-19)
(1.01674 0.00601672 1.86214e-19)
(1.01742 0.00703928 0)
(1.01744 0.00654685 0)
(1.01638 0.00999673 9.38502e-20)
(1.01669 0.00771474 0)
(1.01916 0.00867997 0)
(-0.0135332 1.78 0)
(-0.0117175 1.77163 1.86153e-21)
(-0.0115669 1.7716 9.51809e-21)
(-0.00624428 1.78199 0)
(-0.0102715 1.77801 1.42992e-20)
(-0.00776307 1.78611 -6.12261e-21)
(-0.00491161 1.78761 0)
(0.00746696 2.31254 0)
(-0.163202 1.84711 1.9084e-19)
(-0.0901437 2.04655 0)
(-0.106765 1.7077 -3.86989e-19)
(0.104312 1.29802 0)
(0.00142661 1.55671 2.05142e-19)
(1.03349 2.87023 1.32069e-21)
(0.910845 2.46735 -5.45957e-20)
(0.88901 2.29465 -4.4477e-19)
(0.730428 1.97075 1.52826e-19)
(0.635835 2.56103 0)
(0.75091 2.63802 0)
(0.869392 2.20393 0)
(0.841134 1.96927 -4.78049e-19)
(0.247732 2.5819 -1.76846e-19)
(0.440686 2.62908 -4.22538e-20)
(0.44479 2.65731 3.27541e-20)
(0.533529 1.65486 0)
(0.634227 1.76896 0)
(0.601422 1.62768 -2.2364e-19)
(0.417237 2.30761 0)
(0.762431 1.00086 0)
(0.54267 0.973443 -6.42944e-20)
(0.565091 0.940327 -3.31223e-21)
(0.756258 1.06824 0)
(0.567209 1.18424 1.06999e-19)
(0.747429 0.882188 1.62745e-20)
(0.799385 0.999263 0)
(0.760755 0.938561 -6.07039e-20)
(0.686602 1.04372 0)
(0.625842 0.947854 0)
(1.19821 2.81634 2.66809e-20)
(1.19029 2.84498 1.0109e-19)
(1.1807 2.39687 -2.28086e-19)
(1.16265 2.51303 1.02562e-19)
(1.1742 2.8414 0)
(1.09216 2.87705 -1.3434e-19)
(1.02957 2.54093 -2.42668e-20)
(0.870573 2.25556 -7.7917e-21)
(0.774143 1.9565 0)
(0.785502 1.07206 1.15174e-19)
(0.766314 1.00603 0)
(0.853766 0.189881 0)
(0.828546 0.166795 0)
(0.785863 0.190305 0)
(0.853946 0.203563 -1.93654e-19)
(0.812723 0.212856 1.20409e-19)
(0.92228 0.0535333 -1.01648e-19)
(0.912018 0.0970984 0)
(0.882228 0.111239 4.8374e-20)
(0.881387 0.0647365 1.92641e-19)
(0.89273 0.0512319 -1.19414e-19)
(1.09249 3.35483 -6.19499e-19)
(1.15834 3.27623 0)
(1.11439 3.4358 -1.34218e-18)
(0.657788 3.57927 1.14324e-18)
(0.987176 3.15378 2.50993e-19)
(0.510398 0.879641 1.59347e-19)
(0.461816 0.954995 0)
(0.376798 0.559854 -5.25444e-20)
(0.383164 0.710304 2.45301e-19)
(0.499913 0.521858 -7.45212e-20)
(0.494611 0.541764 8.25223e-20)
(0.602114 0.509096 1.67323e-19)
(0.63162 0.545568 0)
(0.599058 0.606765 0)
(0.548168 0.548782 0)
(0.925132 0.562567 -3.76626e-20)
(0.861158 0.523045 -1.0209e-19)
(0.891211 0.559477 3.05857e-20)
(0.903062 0.473857 -7.7331e-20)
(0.983333 0.461934 0)
(0.975739 0.549186 7.6238e-22)
(0.778575 0.384678 -2.49586e-19)
(0.790618 0.363486 -2.87213e-19)
(0.753848 0.408214 1.95797e-19)
(0.747037 0.371437 -2.25233e-19)
(0.829375 0.297212 -1.5706e-19)
(0.795498 0.308404 1.94979e-19)
(1.02662 0.0097125 -9.92107e-20)
(1.02494 0.00997997 2.06465e-19)
(1.02293 0.0189945 1.23864e-19)
(1.02455 0.0204872 -1.47126e-19)
(1.01355 0.0220152 0)
(1.01927 0.00467939 -2.42856e-19)
(0.024319 1.79566 1.75127e-20)
(0.0215493 1.79565 0)
(0.0200173 1.78663 1.58773e-19)
(0.0240683 1.7919 -1.47067e-19)
(0.0102508 1.79796 4.31311e-20)
(0.0124377 1.79658 0)
(-0.00860003 1.77855 0)
(-0.00876959 1.77707 -7.86877e-21)
(-0.0112418 1.77593 6.97199e-21)
(-0.0105569 1.77652 1.48524e-21)
(-0.0120175 1.77912 -1.40768e-20)
(-0.0106324 1.78064 8.47369e-21)
(0.424996 2.0538 7.81921e-19)
(0.113231 2.06316 -8.37651e-19)
(-0.0632004 1.67263 4.39499e-19)
(-0.0819142 2.15721 -2.80598e-20)
(0.579367 0.979405 0)
(0.225361 1.19082 4.14467e-19)
(0.361497 1.04712 -4.03155e-19)
(0.0787488 1.17555 -4.28445e-19)
(0.360173 1.21069 0)
(0.580178 0.92534 0)
(0.194141 2.49945 2.65362e-19)
(0.371182 2.07774 9.58808e-19)
(0.405555 2.22921 -6.23113e-19)
(0.409048 1.98382 -1.24558e-19)
(0.193542 2.21528 1.81571e-19)
(0.297461 1.89825 -4.73506e-19)
(0.904592 2.54791 2.74682e-19)
(0.925939 2.50239 0)
(0.859821 2.30292 1.90378e-19)
(1.04585 2.86542 0)
(1.06559 2.85465 0)
(0.555869 2.33535 1.76267e-19)
(1.08894 3.14065 2.59394e-19)
(0.97943 3.01774 -2.8127e-19)
(0.318533 0.988803 0)
(0.314132 0.856195 -9.32884e-20)
(0.504679 0.803137 -6.60735e-20)
(0.319807 2.17227 0)
(0.403573 2.82055 -1.7598e-19)
(0.397995 2.54593 0)
(0.679937 0.667621 -1.81581e-19)
(0.729394 0.658631 2.39687e-19)
(0.729764 0.611973 -2.31133e-19)
(0.6278 0.622021 -2.75496e-20)
(0.678643 0.581649 -1.1558e-19)
(0.956229 2.78955 -1.95619e-19)
(1.03716 2.75948 1.3941e-19)
(0.48749 2.18613 4.45569e-20)
(0.585132 1.78387 -6.31243e-20)
(0.780079 1.8549 -7.48627e-20)
(0.965936 2.46413 -7.40836e-20)
(1.01559 2.34108 -2.44174e-20)
(0.541451 1.8403 2.10483e-21)
(0.544911 1.39004 2.81924e-20)
)
;

boundaryField
{
    wall-4
    {
        type            noSlip;
    }
    velocity-inlet-5
    {
        type            fixedValue;
        value           uniform (1 0 0);
    }
    velocity-inlet-6
    {
        type            fixedValue;
        value           uniform (0 3 0);
    }
    pressure-outlet-7
    {
        type            zeroGradient;
    }
    wall-8
    {
        type            noSlip;
    }
    frontAndBackPlanes
    {
        type            empty;
    }
}

