/*--------------------------------*- C++ -*----------------------------------*\
  =========                 |
  \\      /  F ield         | OpenFOAM: The Open Source CFD Toolbox
   \\    /   O peration     | Website:  https://openfoam.org
    \\  /    A nd           | Version:  6
     \\/     M anipulation  |
\*---------------------------------------------------------------------------*/
FoamFile
{
    version     2.0;
    format      ascii;
    class       volScalarField;
    location    "0";
    object      p;
}
// * * * * * * * * * * * * * * * * * * * * * * * * * * * * * * * * * * * * * //

dimensions      [0 2 -2 0 0 0 0];

internalField   nonuniform List<scalar> 
145945
(
2.38587e-06
2.38553e-06
2.38552e-06
2.38555e-06
2.38568e-06
2.38577e-06
2.38587e-06
2.38593e-06
2.38597e-06
2.38595e-06
2.38592e-06
2.38583e-06
2.38577e-06
2.38565e-06
2.38566e-06
2.38563e-06
2.38599e-06
2.38553e-06
2.38539e-06
2.38541e-06
2.38549e-06
2.38563e-06
2.38574e-06
2.38584e-06
2.38591e-06
2.38594e-06
2.38593e-06
2.38589e-06
2.3858e-06
2.38573e-06
2.38561e-06
2.38557e-06
2.38551e-06
2.38566e-06
2.38552e-06
2.38541e-06
2.38544e-06
2.38556e-06
2.38572e-06
2.38584e-06
2.38595e-06
2.38602e-06
2.38606e-06
2.38604e-06
2.386e-06
2.38591e-06
2.38582e-06
2.38569e-06
2.38561e-06
2.38554e-06
2.38565e-06
2.38555e-06
2.38549e-06
2.38556e-06
2.38572e-06
2.38589e-06
2.38603e-06
2.38615e-06
2.38622e-06
2.38626e-06
2.38625e-06
2.3862e-06
2.38611e-06
2.386e-06
2.38586e-06
2.38574e-06
2.38563e-06
2.38568e-06
2.38568e-06
2.38563e-06
2.38572e-06
2.38589e-06
2.38608e-06
2.38622e-06
2.38634e-06
2.38641e-06
2.38645e-06
2.38644e-06
2.38639e-06
2.3863e-06
2.38619e-06
2.38604e-06
2.3859e-06
2.38578e-06
2.38582e-06
2.38577e-06
2.38574e-06
2.38584e-06
2.38603e-06
2.38622e-06
2.38638e-06
2.38649e-06
2.38657e-06
2.38661e-06
2.3866e-06
2.38655e-06
2.38646e-06
2.38634e-06
2.38619e-06
2.38603e-06
2.38589e-06
2.38591e-06
2.38587e-06
2.38584e-06
2.38595e-06
2.38615e-06
2.38634e-06
2.38649e-06
2.38661e-06
2.38669e-06
2.38673e-06
2.38672e-06
2.38667e-06
2.38658e-06
2.38646e-06
2.3863e-06
2.38614e-06
2.386e-06
2.38601e-06
2.38593e-06
2.38591e-06
2.38602e-06
2.38622e-06
2.38641e-06
2.38657e-06
2.38669e-06
2.38677e-06
2.38681e-06
2.3868e-06
2.38675e-06
2.38665e-06
2.38653e-06
2.38638e-06
2.38621e-06
2.38606e-06
2.38607e-06
2.38597e-06
2.38594e-06
2.38606e-06
2.38626e-06
2.38645e-06
2.38661e-06
2.38673e-06
2.38681e-06
2.38685e-06
2.38684e-06
2.38679e-06
2.38669e-06
2.38657e-06
2.38642e-06
2.38625e-06
2.3861e-06
2.38611e-06
2.38595e-06
2.38593e-06
2.38604e-06
2.38625e-06
2.38644e-06
2.3866e-06
2.38672e-06
2.3868e-06
2.38684e-06
2.38683e-06
2.38678e-06
2.38668e-06
2.38656e-06
2.38641e-06
2.38624e-06
2.38609e-06
2.38609e-06
2.38592e-06
2.38589e-06
2.386e-06
2.3862e-06
2.38639e-06
2.38655e-06
2.38667e-06
2.38675e-06
2.38679e-06
2.38678e-06
2.38673e-06
2.38663e-06
2.38651e-06
2.38636e-06
2.3862e-06
2.38605e-06
2.38606e-06
2.38583e-06
2.3858e-06
2.38591e-06
2.38611e-06
2.3863e-06
2.38646e-06
2.38658e-06
2.38666e-06
2.38669e-06
2.38668e-06
2.38663e-06
2.38654e-06
2.38642e-06
2.38626e-06
2.3861e-06
2.38596e-06
2.38597e-06
2.38577e-06
2.38573e-06
2.38582e-06
2.386e-06
2.38619e-06
2.38634e-06
2.38646e-06
2.38653e-06
2.38657e-06
2.38656e-06
2.38651e-06
2.38642e-06
2.3863e-06
2.38615e-06
2.38601e-06
2.38588e-06
2.3859e-06
2.38565e-06
2.38561e-06
2.38569e-06
2.38586e-06
2.38604e-06
2.38619e-06
2.3863e-06
2.38638e-06
2.38642e-06
2.38641e-06
2.38636e-06
2.38626e-06
2.38615e-06
2.38601e-06
2.38587e-06
2.38575e-06
2.38579e-06
2.38566e-06
2.38557e-06
2.38561e-06
2.38574e-06
2.3859e-06
2.38603e-06
2.38615e-06
2.38621e-06
2.38625e-06
2.38624e-06
2.3862e-06
2.3861e-06
2.38601e-06
2.38587e-06
2.38578e-06
2.3857e-06
2.38579e-06
2.38563e-06
2.38551e-06
2.38554e-06
2.38563e-06
2.38578e-06
2.38589e-06
2.386e-06
2.38606e-06
2.3861e-06
2.38609e-06
2.38605e-06
2.38596e-06
2.38588e-06
2.38575e-06
2.3857e-06
2.38563e-06
2.38576e-06
2.38599e-06
2.38566e-06
2.38565e-06
2.38568e-06
2.38582e-06
2.38591e-06
2.38601e-06
2.38607e-06
2.38611e-06
2.38609e-06
2.38606e-06
2.38597e-06
2.3859e-06
2.38579e-06
2.38579e-06
2.38576e-06
2.38611e-06
2.31232e-06
2.31226e-06
2.3125e-06
2.31275e-06
2.31305e-06
2.3133e-06
2.31351e-06
2.31365e-06
2.31371e-06
2.31368e-06
2.31357e-06
2.31339e-06
2.31316e-06
2.31288e-06
2.31265e-06
2.31237e-06
2.31241e-06
2.31226e-06
2.31238e-06
2.31266e-06
2.31297e-06
2.3133e-06
2.31358e-06
2.3138e-06
2.31395e-06
2.31401e-06
2.31398e-06
2.31387e-06
2.31367e-06
2.31342e-06
2.31311e-06
2.31282e-06
2.31251e-06
2.31236e-06
2.3125e-06
2.31266e-06
2.31295e-06
2.3133e-06
2.31366e-06
2.31397e-06
2.31421e-06
2.31436e-06
2.31443e-06
2.3144e-06
2.31428e-06
2.31407e-06
2.31379e-06
2.31346e-06
2.31312e-06
2.31279e-06
2.3126e-06
2.31275e-06
2.31297e-06
2.3133e-06
2.3137e-06
2.31409e-06
2.31441e-06
2.31466e-06
2.31482e-06
2.31489e-06
2.31486e-06
2.31473e-06
2.31451e-06
2.31422e-06
2.31387e-06
2.31349e-06
2.31312e-06
2.31285e-06
2.31305e-06
2.3133e-06
2.31366e-06
2.31409e-06
2.31449e-06
2.31482e-06
2.31508e-06
2.31525e-06
2.31532e-06
2.31529e-06
2.31515e-06
2.31493e-06
2.31463e-06
2.31426e-06
2.31386e-06
2.31345e-06
2.31316e-06
2.3133e-06
2.31358e-06
2.31397e-06
2.31441e-06
2.31482e-06
2.31517e-06
2.31543e-06
2.3156e-06
2.31567e-06
2.31564e-06
2.31551e-06
2.31528e-06
2.31497e-06
2.31459e-06
2.31417e-06
2.31374e-06
2.31341e-06
2.31351e-06
2.3138e-06
2.31421e-06
2.31466e-06
2.31508e-06
2.31543e-06
2.3157e-06
2.31587e-06
2.31594e-06
2.31591e-06
2.31577e-06
2.31554e-06
2.31523e-06
2.31484e-06
2.31441e-06
2.31397e-06
2.31362e-06
2.31365e-06
2.31395e-06
2.31436e-06
2.31482e-06
2.31525e-06
2.3156e-06
2.31587e-06
2.31604e-06
2.31612e-06
2.31608e-06
2.31595e-06
2.31571e-06
2.3154e-06
2.31501e-06
2.31457e-06
2.31411e-06
2.31376e-06
2.31371e-06
2.31401e-06
2.31443e-06
2.31489e-06
2.31532e-06
2.31567e-06
2.31594e-06
2.31612e-06
2.31619e-06
2.31616e-06
2.31602e-06
2.31579e-06
2.31547e-06
2.31508e-06
2.31464e-06
2.31418e-06
2.31382e-06
2.31368e-06
2.31398e-06
2.3144e-06
2.31486e-06
2.31529e-06
2.31564e-06
2.31591e-06
2.31608e-06
2.31616e-06
2.31613e-06
2.31599e-06
2.31576e-06
2.31544e-06
2.31504e-06
2.3146e-06
2.31415e-06
2.31379e-06
2.31357e-06
2.31387e-06
2.31428e-06
2.31473e-06
2.31515e-06
2.31551e-06
2.31577e-06
2.31595e-06
2.31602e-06
2.31599e-06
2.31585e-06
2.31562e-06
2.31531e-06
2.31492e-06
2.31448e-06
2.31403e-06
2.31368e-06
2.31339e-06
2.31367e-06
2.31407e-06
2.31451e-06
2.31493e-06
2.31528e-06
2.31554e-06
2.31571e-06
2.31579e-06
2.31576e-06
2.31562e-06
2.31539e-06
2.31508e-06
2.31469e-06
2.31427e-06
2.31383e-06
2.3135e-06
2.31316e-06
2.31342e-06
2.31379e-06
2.31422e-06
2.31463e-06
2.31497e-06
2.31523e-06
2.3154e-06
2.31547e-06
2.31544e-06
2.31531e-06
2.31508e-06
2.31478e-06
2.3144e-06
2.31399e-06
2.31358e-06
2.31327e-06
2.31288e-06
2.31311e-06
2.31346e-06
2.31387e-06
2.31426e-06
2.31459e-06
2.31484e-06
2.31501e-06
2.31508e-06
2.31504e-06
2.31492e-06
2.31469e-06
2.3144e-06
2.31404e-06
2.31365e-06
2.31326e-06
2.31298e-06
2.31265e-06
2.31282e-06
2.31312e-06
2.31349e-06
2.31386e-06
2.31417e-06
2.31441e-06
2.31457e-06
2.31464e-06
2.3146e-06
2.31448e-06
2.31427e-06
2.31399e-06
2.31365e-06
2.3133e-06
2.31296e-06
2.31275e-06
2.31237e-06
2.31251e-06
2.31279e-06
2.31312e-06
2.31346e-06
2.31374e-06
2.31397e-06
2.31411e-06
2.31418e-06
2.31415e-06
2.31403e-06
2.31383e-06
2.31358e-06
2.31326e-06
2.31296e-06
2.31264e-06
2.31247e-06
2.31241e-06
2.31236e-06
2.3126e-06
2.31285e-06
2.31316e-06
2.31341e-06
2.31362e-06
2.31376e-06
2.31382e-06
2.31379e-06
2.31368e-06
2.3135e-06
2.31327e-06
2.31298e-06
2.31275e-06
2.31247e-06
2.3125e-06
2.26008e-06
2.26119e-06
2.26223e-06
2.26316e-06
2.26399e-06
2.26462e-06
2.26507e-06
2.26535e-06
2.26545e-06
2.26538e-06
2.26515e-06
2.26473e-06
2.26415e-06
2.26334e-06
2.2624e-06
2.26124e-06
2.26008e-06
2.26119e-06
2.26218e-06
2.26319e-06
2.26412e-06
2.26494e-06
2.26557e-06
2.26602e-06
2.2663e-06
2.2664e-06
2.26633e-06
2.2661e-06
2.26568e-06
2.2651e-06
2.2643e-06
2.26335e-06
2.26223e-06
2.26119e-06
2.26223e-06
2.26319e-06
2.26414e-06
2.26504e-06
2.26583e-06
2.26645e-06
2.26689e-06
2.26717e-06
2.26727e-06
2.2672e-06
2.26697e-06
2.26656e-06
2.26598e-06
2.26521e-06
2.26428e-06
2.26323e-06
2.26224e-06
2.26316e-06
2.26412e-06
2.26504e-06
2.26592e-06
2.26669e-06
2.2673e-06
2.26774e-06
2.268e-06
2.26811e-06
2.26804e-06
2.26781e-06
2.26741e-06
2.26684e-06
2.26609e-06
2.26518e-06
2.26416e-06
2.26316e-06
2.26399e-06
2.26494e-06
2.26583e-06
2.26669e-06
2.26745e-06
2.26805e-06
2.26848e-06
2.26874e-06
2.26884e-06
2.26878e-06
2.26855e-06
2.26816e-06
2.2676e-06
2.26686e-06
2.26596e-06
2.26498e-06
2.26399e-06
2.26462e-06
2.26557e-06
2.26645e-06
2.2673e-06
2.26805e-06
2.26864e-06
2.26906e-06
2.26933e-06
2.26943e-06
2.26936e-06
2.26914e-06
2.26875e-06
2.26819e-06
2.26746e-06
2.26658e-06
2.2656e-06
2.26462e-06
2.26507e-06
2.26602e-06
2.26689e-06
2.26773e-06
2.26848e-06
2.26906e-06
2.26949e-06
2.26975e-06
2.26985e-06
2.26979e-06
2.26956e-06
2.26917e-06
2.26862e-06
2.2679e-06
2.26702e-06
2.26606e-06
2.26508e-06
2.26535e-06
2.2663e-06
2.26716e-06
2.268e-06
2.26874e-06
2.26933e-06
2.26975e-06
2.27001e-06
2.27011e-06
2.27005e-06
2.26982e-06
2.26944e-06
2.26889e-06
2.26817e-06
2.26729e-06
2.26633e-06
2.26535e-06
2.26545e-06
2.2664e-06
2.26727e-06
2.26811e-06
2.26884e-06
2.26943e-06
2.26985e-06
2.27011e-06
2.27021e-06
2.27015e-06
2.26992e-06
2.26954e-06
2.26899e-06
2.26827e-06
2.2674e-06
2.26644e-06
2.26546e-06
2.26538e-06
2.26633e-06
2.2672e-06
2.26804e-06
2.26878e-06
2.26936e-06
2.26979e-06
2.27005e-06
2.27015e-06
2.27008e-06
2.26986e-06
2.26947e-06
2.26892e-06
2.26821e-06
2.26733e-06
2.26637e-06
2.26539e-06
2.26515e-06
2.2661e-06
2.26697e-06
2.26781e-06
2.26855e-06
2.26914e-06
2.26956e-06
2.26982e-06
2.26992e-06
2.26986e-06
2.26964e-06
2.26925e-06
2.2687e-06
2.26797e-06
2.2671e-06
2.26614e-06
2.26515e-06
2.26473e-06
2.26568e-06
2.26656e-06
2.26741e-06
2.26816e-06
2.26875e-06
2.26917e-06
2.26944e-06
2.26954e-06
2.26947e-06
2.26925e-06
2.26886e-06
2.2683e-06
2.26757e-06
2.26669e-06
2.26572e-06
2.26473e-06
2.26415e-06
2.2651e-06
2.26598e-06
2.26684e-06
2.2676e-06
2.26819e-06
2.26862e-06
2.26889e-06
2.26899e-06
2.26892e-06
2.2687e-06
2.2683e-06
2.26774e-06
2.26701e-06
2.26611e-06
2.26513e-06
2.26415e-06
2.26334e-06
2.2643e-06
2.26521e-06
2.26609e-06
2.26686e-06
2.26746e-06
2.2679e-06
2.26817e-06
2.26827e-06
2.26821e-06
2.26798e-06
2.26757e-06
2.26701e-06
2.26626e-06
2.26535e-06
2.26434e-06
2.26334e-06
2.2624e-06
2.26335e-06
2.26428e-06
2.26518e-06
2.26596e-06
2.26658e-06
2.26702e-06
2.26729e-06
2.2674e-06
2.26733e-06
2.2671e-06
2.26669e-06
2.26611e-06
2.26535e-06
2.26443e-06
2.26339e-06
2.2624e-06
2.26124e-06
2.26223e-06
2.26323e-06
2.26416e-06
2.26498e-06
2.26561e-06
2.26606e-06
2.26634e-06
2.26644e-06
2.26637e-06
2.26614e-06
2.26572e-06
2.26513e-06
2.26434e-06
2.26339e-06
2.26228e-06
2.26125e-06
2.26008e-06
2.26119e-06
2.26224e-06
2.26316e-06
2.26399e-06
2.26462e-06
2.26508e-06
2.26535e-06
2.26546e-06
2.26539e-06
2.26515e-06
2.26473e-06
2.26415e-06
2.26334e-06
2.2624e-06
2.26125e-06
2.26008e-06
2.20763e-06
2.20956e-06
2.21131e-06
2.21296e-06
2.21437e-06
2.21541e-06
2.21616e-06
2.21661e-06
2.21679e-06
2.21667e-06
2.21628e-06
2.21559e-06
2.21462e-06
2.21329e-06
2.21163e-06
2.20972e-06
2.20765e-06
2.20956e-06
2.21118e-06
2.21288e-06
2.2145e-06
2.21587e-06
2.2169e-06
2.21763e-06
2.21807e-06
2.21824e-06
2.21813e-06
2.21774e-06
2.21707e-06
2.21612e-06
2.21482e-06
2.2132e-06
2.21133e-06
2.20959e-06
2.21131e-06
2.21288e-06
2.21452e-06
2.21607e-06
2.21738e-06
2.21837e-06
2.21907e-06
2.2195e-06
2.21967e-06
2.21956e-06
2.21919e-06
2.21854e-06
2.21762e-06
2.21638e-06
2.21482e-06
2.21302e-06
2.21134e-06
2.21296e-06
2.2145e-06
2.21607e-06
2.21757e-06
2.21884e-06
2.21979e-06
2.22047e-06
2.22088e-06
2.22104e-06
2.22094e-06
2.22058e-06
2.21996e-06
2.21907e-06
2.21788e-06
2.21637e-06
2.21464e-06
2.213e-06
2.21437e-06
2.21587e-06
2.21738e-06
2.21884e-06
2.22006e-06
2.22099e-06
2.22165e-06
2.22205e-06
2.2222e-06
2.2221e-06
2.22176e-06
2.22115e-06
2.22029e-06
2.21913e-06
2.21767e-06
2.21601e-06
2.2144e-06
2.21541e-06
2.2169e-06
2.21837e-06
2.21979e-06
2.22099e-06
2.2219e-06
2.22254e-06
2.22294e-06
2.22309e-06
2.22299e-06
2.22265e-06
2.22206e-06
2.22121e-06
2.22009e-06
2.21866e-06
2.21703e-06
2.21545e-06
2.21616e-06
2.21763e-06
2.21907e-06
2.22047e-06
2.22165e-06
2.22254e-06
2.22318e-06
2.22356e-06
2.22371e-06
2.22362e-06
2.22328e-06
2.2227e-06
2.22187e-06
2.22076e-06
2.21935e-06
2.21776e-06
2.2162e-06
2.21661e-06
2.21807e-06
2.2195e-06
2.22088e-06
2.22205e-06
2.22294e-06
2.22356e-06
2.22395e-06
2.22409e-06
2.224e-06
2.22367e-06
2.22309e-06
2.22227e-06
2.22117e-06
2.21978e-06
2.2182e-06
2.21665e-06
2.21679e-06
2.21824e-06
2.21967e-06
2.22104e-06
2.2222e-06
2.22309e-06
2.22371e-06
2.2241e-06
2.22424e-06
2.22415e-06
2.22382e-06
2.22324e-06
2.22242e-06
2.22133e-06
2.21994e-06
2.21837e-06
2.21682e-06
2.21667e-06
2.21813e-06
2.21956e-06
2.22094e-06
2.2221e-06
2.22299e-06
2.22362e-06
2.224e-06
2.22415e-06
2.22406e-06
2.22372e-06
2.22315e-06
2.22232e-06
2.22123e-06
2.21984e-06
2.21826e-06
2.21671e-06
2.21628e-06
2.21774e-06
2.21919e-06
2.22058e-06
2.22176e-06
2.22265e-06
2.22328e-06
2.22367e-06
2.22382e-06
2.22372e-06
2.22339e-06
2.22281e-06
2.22198e-06
2.22087e-06
2.21947e-06
2.21788e-06
2.21632e-06
2.21559e-06
2.21707e-06
2.21854e-06
2.21996e-06
2.22115e-06
2.22206e-06
2.2227e-06
2.22309e-06
2.22324e-06
2.22315e-06
2.22281e-06
2.22222e-06
2.22138e-06
2.22025e-06
2.21883e-06
2.21721e-06
2.21563e-06
2.21462e-06
2.21612e-06
2.21762e-06
2.21907e-06
2.22029e-06
2.22121e-06
2.22187e-06
2.22227e-06
2.22242e-06
2.22232e-06
2.22198e-06
2.22138e-06
2.22052e-06
2.21937e-06
2.21791e-06
2.21625e-06
2.21465e-06
2.21329e-06
2.21482e-06
2.21638e-06
2.21788e-06
2.21913e-06
2.22009e-06
2.22076e-06
2.22117e-06
2.22133e-06
2.22123e-06
2.22087e-06
2.22025e-06
2.21937e-06
2.21818e-06
2.21668e-06
2.21496e-06
2.21332e-06
2.21163e-06
2.2132e-06
2.21483e-06
2.21637e-06
2.21767e-06
2.21866e-06
2.21936e-06
2.21978e-06
2.21994e-06
2.21984e-06
2.21947e-06
2.21883e-06
2.21791e-06
2.21668e-06
2.21513e-06
2.21334e-06
2.21166e-06
2.20972e-06
2.21133e-06
2.21302e-06
2.21464e-06
2.21601e-06
2.21703e-06
2.21776e-06
2.2182e-06
2.21838e-06
2.21826e-06
2.21788e-06
2.21721e-06
2.21625e-06
2.21496e-06
2.21334e-06
2.21148e-06
2.20975e-06
2.20765e-06
2.20959e-06
2.21134e-06
2.213e-06
2.2144e-06
2.21545e-06
2.2162e-06
2.21665e-06
2.21682e-06
2.21671e-06
2.21632e-06
2.21563e-06
2.21465e-06
2.21332e-06
2.21166e-06
2.20975e-06
2.20768e-06
2.15626e-06
2.15849e-06
2.16046e-06
2.1624e-06
2.16402e-06
2.16525e-06
2.16613e-06
2.16666e-06
2.16686e-06
2.16673e-06
2.16626e-06
2.16545e-06
2.16431e-06
2.16277e-06
2.16081e-06
2.15867e-06
2.15627e-06
2.15849e-06
2.16034e-06
2.16229e-06
2.16418e-06
2.16579e-06
2.167e-06
2.16787e-06
2.1684e-06
2.1686e-06
2.16847e-06
2.16801e-06
2.16721e-06
2.16607e-06
2.16455e-06
2.16264e-06
2.1605e-06
2.15851e-06
2.16046e-06
2.16229e-06
2.16421e-06
2.16604e-06
2.16759e-06
2.16877e-06
2.16961e-06
2.17012e-06
2.17032e-06
2.17019e-06
2.16974e-06
2.16897e-06
2.16787e-06
2.16639e-06
2.16455e-06
2.16244e-06
2.16048e-06
2.1624e-06
2.16418e-06
2.16604e-06
2.16781e-06
2.16932e-06
2.17047e-06
2.17129e-06
2.17178e-06
2.17197e-06
2.17185e-06
2.17142e-06
2.17066e-06
2.16959e-06
2.16816e-06
2.16638e-06
2.16433e-06
2.16243e-06
2.16402e-06
2.16579e-06
2.16759e-06
2.16932e-06
2.17078e-06
2.17191e-06
2.1727e-06
2.17319e-06
2.17338e-06
2.17326e-06
2.17283e-06
2.1721e-06
2.17105e-06
2.16966e-06
2.16792e-06
2.16593e-06
2.16405e-06
2.16525e-06
2.167e-06
2.16877e-06
2.17047e-06
2.17191e-06
2.17301e-06
2.17379e-06
2.17427e-06
2.17445e-06
2.17433e-06
2.17391e-06
2.1732e-06
2.17217e-06
2.17081e-06
2.16909e-06
2.16715e-06
2.16527e-06
2.16612e-06
2.16787e-06
2.16961e-06
2.17128e-06
2.1727e-06
2.17379e-06
2.17456e-06
2.17503e-06
2.17521e-06
2.17509e-06
2.17468e-06
2.17398e-06
2.17296e-06
2.17162e-06
2.16993e-06
2.16802e-06
2.16615e-06
2.16666e-06
2.1684e-06
2.17012e-06
2.17178e-06
2.17319e-06
2.17427e-06
2.17503e-06
2.1755e-06
2.17568e-06
2.17556e-06
2.17515e-06
2.17445e-06
2.17345e-06
2.17212e-06
2.17044e-06
2.16855e-06
2.16669e-06
2.16686e-06
2.1686e-06
2.17032e-06
2.17197e-06
2.17338e-06
2.17445e-06
2.17521e-06
2.17568e-06
2.17586e-06
2.17574e-06
2.17534e-06
2.17464e-06
2.17363e-06
2.17231e-06
2.17064e-06
2.16875e-06
2.16689e-06
2.16673e-06
2.16847e-06
2.17019e-06
2.17185e-06
2.17326e-06
2.17433e-06
2.17509e-06
2.17556e-06
2.17574e-06
2.17563e-06
2.17522e-06
2.17452e-06
2.17351e-06
2.17218e-06
2.17051e-06
2.16862e-06
2.16676e-06
2.16626e-06
2.16801e-06
2.16974e-06
2.17142e-06
2.17283e-06
2.17391e-06
2.17468e-06
2.17516e-06
2.17534e-06
2.17522e-06
2.17481e-06
2.1741e-06
2.17309e-06
2.17175e-06
2.17007e-06
2.16816e-06
2.16629e-06
2.16545e-06
2.16721e-06
2.16897e-06
2.17066e-06
2.1721e-06
2.1732e-06
2.17398e-06
2.17445e-06
2.17464e-06
2.17452e-06
2.1741e-06
2.17339e-06
2.17236e-06
2.171e-06
2.16929e-06
2.16736e-06
2.16548e-06
2.16431e-06
2.16607e-06
2.16787e-06
2.16959e-06
2.17105e-06
2.17217e-06
2.17296e-06
2.17345e-06
2.17363e-06
2.17351e-06
2.17309e-06
2.17236e-06
2.17132e-06
2.16993e-06
2.1682e-06
2.16622e-06
2.16433e-06
2.16277e-06
2.16455e-06
2.16639e-06
2.16816e-06
2.16966e-06
2.17081e-06
2.17162e-06
2.17212e-06
2.17231e-06
2.17218e-06
2.17175e-06
2.171e-06
2.16993e-06
2.16851e-06
2.16673e-06
2.1647e-06
2.16279e-06
2.16081e-06
2.16264e-06
2.16455e-06
2.16638e-06
2.16792e-06
2.1691e-06
2.16993e-06
2.17044e-06
2.17064e-06
2.17051e-06
2.17007e-06
2.1693e-06
2.1682e-06
2.16673e-06
2.1649e-06
2.16279e-06
2.16083e-06
2.15867e-06
2.1605e-06
2.16244e-06
2.16433e-06
2.16593e-06
2.16715e-06
2.16802e-06
2.16855e-06
2.16875e-06
2.16862e-06
2.16816e-06
2.16736e-06
2.16622e-06
2.1647e-06
2.16279e-06
2.16066e-06
2.15869e-06
2.15627e-06
2.15851e-06
2.16048e-06
2.16243e-06
2.16405e-06
2.16527e-06
2.16615e-06
2.16669e-06
2.16689e-06
2.16676e-06
2.16629e-06
2.16548e-06
2.16433e-06
2.16279e-06
2.16083e-06
2.15869e-06
2.15629e-06
2.10877e-06
2.11109e-06
2.11312e-06
2.11517e-06
2.11685e-06
2.11814e-06
2.11907e-06
2.11963e-06
2.11984e-06
2.1197e-06
2.11921e-06
2.11835e-06
2.11714e-06
2.11554e-06
2.11346e-06
2.11126e-06
2.10878e-06
2.11109e-06
2.11302e-06
2.11505e-06
2.11704e-06
2.11873e-06
2.12002e-06
2.12094e-06
2.12151e-06
2.12172e-06
2.12158e-06
2.12108e-06
2.12023e-06
2.11902e-06
2.11742e-06
2.11539e-06
2.11317e-06
2.1111e-06
2.11312e-06
2.11505e-06
2.11707e-06
2.11901e-06
2.12065e-06
2.12191e-06
2.12281e-06
2.12336e-06
2.12356e-06
2.12343e-06
2.12295e-06
2.12212e-06
2.12094e-06
2.11937e-06
2.11741e-06
2.11519e-06
2.11313e-06
2.11517e-06
2.11705e-06
2.11901e-06
2.12089e-06
2.1225e-06
2.12373e-06
2.1246e-06
2.12514e-06
2.12534e-06
2.12521e-06
2.12474e-06
2.12393e-06
2.12278e-06
2.12125e-06
2.11934e-06
2.11718e-06
2.11517e-06
2.11685e-06
2.11873e-06
2.12065e-06
2.1225e-06
2.12407e-06
2.12527e-06
2.12613e-06
2.12666e-06
2.12686e-06
2.12673e-06
2.12627e-06
2.12547e-06
2.12434e-06
2.12284e-06
2.12098e-06
2.11886e-06
2.11686e-06
2.11814e-06
2.12002e-06
2.12191e-06
2.12373e-06
2.12527e-06
2.12646e-06
2.12731e-06
2.12783e-06
2.12802e-06
2.12789e-06
2.12744e-06
2.12666e-06
2.12554e-06
2.12407e-06
2.12223e-06
2.12015e-06
2.11815e-06
2.11907e-06
2.12094e-06
2.12281e-06
2.1246e-06
2.12613e-06
2.12731e-06
2.12815e-06
2.12866e-06
2.12885e-06
2.12872e-06
2.12828e-06
2.1275e-06
2.1264e-06
2.12494e-06
2.12312e-06
2.12107e-06
2.11907e-06
2.11963e-06
2.12151e-06
2.12335e-06
2.12514e-06
2.12666e-06
2.12783e-06
2.12866e-06
2.12917e-06
2.12936e-06
2.12923e-06
2.12879e-06
2.12802e-06
2.12692e-06
2.12548e-06
2.12367e-06
2.12163e-06
2.11963e-06
2.11984e-06
2.12172e-06
2.12356e-06
2.12534e-06
2.12686e-06
2.12802e-06
2.12885e-06
2.12936e-06
2.12955e-06
2.12943e-06
2.12898e-06
2.12822e-06
2.12712e-06
2.12568e-06
2.12388e-06
2.12185e-06
2.11985e-06
2.1197e-06
2.12158e-06
2.12343e-06
2.12521e-06
2.12673e-06
2.12789e-06
2.12873e-06
2.12923e-06
2.12943e-06
2.1293e-06
2.12885e-06
2.12809e-06
2.12699e-06
2.12555e-06
2.12374e-06
2.1217e-06
2.1197e-06
2.11921e-06
2.12108e-06
2.12295e-06
2.12474e-06
2.12627e-06
2.12744e-06
2.12828e-06
2.12879e-06
2.12898e-06
2.12885e-06
2.1284e-06
2.12763e-06
2.12653e-06
2.12508e-06
2.12326e-06
2.12121e-06
2.11921e-06
2.11835e-06
2.12023e-06
2.12212e-06
2.12393e-06
2.12547e-06
2.12666e-06
2.1275e-06
2.12802e-06
2.12822e-06
2.12809e-06
2.12763e-06
2.12686e-06
2.12574e-06
2.12427e-06
2.12244e-06
2.12036e-06
2.11836e-06
2.11714e-06
2.11902e-06
2.12094e-06
2.12278e-06
2.12434e-06
2.12554e-06
2.1264e-06
2.12693e-06
2.12712e-06
2.12699e-06
2.12653e-06
2.12574e-06
2.12461e-06
2.12312e-06
2.12126e-06
2.11915e-06
2.11715e-06
2.11554e-06
2.11742e-06
2.11937e-06
2.12125e-06
2.12284e-06
2.12407e-06
2.12494e-06
2.12548e-06
2.12568e-06
2.12555e-06
2.12508e-06
2.12427e-06
2.12312e-06
2.1216e-06
2.1197e-06
2.11755e-06
2.11554e-06
2.11346e-06
2.11539e-06
2.11741e-06
2.11934e-06
2.12098e-06
2.12223e-06
2.12313e-06
2.12367e-06
2.12388e-06
2.12374e-06
2.12326e-06
2.12244e-06
2.12126e-06
2.1197e-06
2.11775e-06
2.11553e-06
2.11347e-06
2.11126e-06
2.11318e-06
2.11519e-06
2.11718e-06
2.11886e-06
2.12015e-06
2.12107e-06
2.12163e-06
2.12185e-06
2.12171e-06
2.12121e-06
2.12036e-06
2.11915e-06
2.11755e-06
2.11553e-06
2.11332e-06
2.11127e-06
2.10878e-06
2.1111e-06
2.11313e-06
2.11517e-06
2.11686e-06
2.11815e-06
2.11907e-06
2.11963e-06
2.11985e-06
2.1197e-06
2.11921e-06
2.11836e-06
2.11715e-06
2.11554e-06
2.11347e-06
2.11127e-06
2.10878e-06
2.06479e-06
2.06704e-06
2.06902e-06
2.07106e-06
2.07272e-06
2.07401e-06
2.07493e-06
2.07549e-06
2.0757e-06
2.07556e-06
2.07507e-06
2.07422e-06
2.07301e-06
2.07143e-06
2.06935e-06
2.06721e-06
2.06479e-06
2.06704e-06
2.06894e-06
2.07092e-06
2.07291e-06
2.07459e-06
2.07589e-06
2.07681e-06
2.07738e-06
2.07759e-06
2.07745e-06
2.07695e-06
2.0761e-06
2.07488e-06
2.07328e-06
2.07126e-06
2.06908e-06
2.06704e-06
2.06902e-06
2.07092e-06
2.07294e-06
2.07488e-06
2.07652e-06
2.07779e-06
2.0787e-06
2.07925e-06
2.07946e-06
2.07932e-06
2.07884e-06
2.078e-06
2.07681e-06
2.07524e-06
2.07327e-06
2.07106e-06
2.06902e-06
2.07106e-06
2.07291e-06
2.07488e-06
2.07677e-06
2.07839e-06
2.07964e-06
2.08053e-06
2.08107e-06
2.08128e-06
2.08114e-06
2.08066e-06
2.07984e-06
2.07867e-06
2.07712e-06
2.07521e-06
2.07304e-06
2.07106e-06
2.07272e-06
2.07459e-06
2.07652e-06
2.07839e-06
2.07998e-06
2.08121e-06
2.08209e-06
2.08262e-06
2.08283e-06
2.08269e-06
2.08222e-06
2.08141e-06
2.08026e-06
2.07874e-06
2.07685e-06
2.07472e-06
2.07272e-06
2.07401e-06
2.07589e-06
2.07779e-06
2.07963e-06
2.08121e-06
2.08243e-06
2.08329e-06
2.08382e-06
2.08402e-06
2.08389e-06
2.08342e-06
2.08262e-06
2.08148e-06
2.07998e-06
2.07811e-06
2.07601e-06
2.07401e-06
2.07493e-06
2.07681e-06
2.0787e-06
2.08053e-06
2.08209e-06
2.08329e-06
2.08415e-06
2.08468e-06
2.08488e-06
2.08474e-06
2.08428e-06
2.08349e-06
2.08236e-06
2.08087e-06
2.07902e-06
2.07694e-06
2.07493e-06
2.07549e-06
2.07738e-06
2.07925e-06
2.08107e-06
2.08262e-06
2.08382e-06
2.08468e-06
2.0852e-06
2.0854e-06
2.08527e-06
2.08481e-06
2.08402e-06
2.08289e-06
2.08141e-06
2.07957e-06
2.0775e-06
2.07549e-06
2.0757e-06
2.07759e-06
2.07946e-06
2.08128e-06
2.08283e-06
2.08402e-06
2.08488e-06
2.0854e-06
2.0856e-06
2.08547e-06
2.08501e-06
2.08422e-06
2.0831e-06
2.08162e-06
2.07978e-06
2.07772e-06
2.07571e-06
2.07556e-06
2.07745e-06
2.07932e-06
2.08114e-06
2.08269e-06
2.08389e-06
2.08474e-06
2.08527e-06
2.08547e-06
2.08533e-06
2.08487e-06
2.08409e-06
2.08296e-06
2.08148e-06
2.07964e-06
2.07758e-06
2.07556e-06
2.07507e-06
2.07695e-06
2.07884e-06
2.08066e-06
2.08222e-06
2.08342e-06
2.08428e-06
2.08481e-06
2.08501e-06
2.08487e-06
2.08441e-06
2.08362e-06
2.08249e-06
2.081e-06
2.07915e-06
2.07708e-06
2.07507e-06
2.07422e-06
2.0761e-06
2.078e-06
2.07984e-06
2.08141e-06
2.08262e-06
2.08349e-06
2.08402e-06
2.08422e-06
2.08409e-06
2.08362e-06
2.08282e-06
2.08168e-06
2.08018e-06
2.07832e-06
2.07622e-06
2.07422e-06
2.07301e-06
2.07488e-06
2.07681e-06
2.07867e-06
2.08026e-06
2.08148e-06
2.08236e-06
2.08289e-06
2.0831e-06
2.08296e-06
2.08249e-06
2.08168e-06
2.08053e-06
2.07901e-06
2.07713e-06
2.075e-06
2.07301e-06
2.07143e-06
2.07328e-06
2.07524e-06
2.07712e-06
2.07874e-06
2.07998e-06
2.08087e-06
2.08141e-06
2.08162e-06
2.08148e-06
2.081e-06
2.08018e-06
2.07902e-06
2.07748e-06
2.07557e-06
2.07341e-06
2.07143e-06
2.06935e-06
2.07126e-06
2.07327e-06
2.07521e-06
2.07685e-06
2.07812e-06
2.07902e-06
2.07957e-06
2.07978e-06
2.07964e-06
2.07915e-06
2.07832e-06
2.07713e-06
2.07557e-06
2.07361e-06
2.0714e-06
2.06935e-06
2.06721e-06
2.06909e-06
2.07106e-06
2.07304e-06
2.07472e-06
2.07601e-06
2.07694e-06
2.0775e-06
2.07772e-06
2.07758e-06
2.07708e-06
2.07622e-06
2.075e-06
2.07341e-06
2.0714e-06
2.06923e-06
2.06721e-06
2.06479e-06
2.06704e-06
2.06902e-06
2.07106e-06
2.07272e-06
2.07401e-06
2.07493e-06
2.07549e-06
2.07571e-06
2.07556e-06
2.07507e-06
2.07422e-06
2.07301e-06
2.07143e-06
2.06935e-06
2.06721e-06
2.06479e-06
2.02374e-06
2.02582e-06
2.02767e-06
2.02959e-06
2.03115e-06
2.03237e-06
2.03325e-06
2.03378e-06
2.03398e-06
2.03385e-06
2.03338e-06
2.03257e-06
2.03142e-06
2.02994e-06
2.02797e-06
2.02598e-06
2.02374e-06
2.02582e-06
2.02759e-06
2.02945e-06
2.03133e-06
2.03292e-06
2.03416e-06
2.03504e-06
2.03558e-06
2.03579e-06
2.03565e-06
2.03517e-06
2.03435e-06
2.03319e-06
2.03168e-06
2.02976e-06
2.02773e-06
2.02583e-06
2.02767e-06
2.02945e-06
2.03135e-06
2.03319e-06
2.03476e-06
2.03598e-06
2.03685e-06
2.03738e-06
2.03759e-06
2.03745e-06
2.03698e-06
2.03618e-06
2.03503e-06
2.03354e-06
2.03167e-06
2.02958e-06
2.02767e-06
2.02959e-06
2.03133e-06
2.03319e-06
2.035e-06
2.03655e-06
2.03775e-06
2.03861e-06
2.03914e-06
2.03934e-06
2.03921e-06
2.03874e-06
2.03795e-06
2.03682e-06
2.03534e-06
2.03351e-06
2.03145e-06
2.02959e-06
2.03115e-06
2.03292e-06
2.03476e-06
2.03655e-06
2.03809e-06
2.03928e-06
2.04013e-06
2.04065e-06
2.04085e-06
2.04072e-06
2.04026e-06
2.03947e-06
2.03835e-06
2.03689e-06
2.03507e-06
2.03304e-06
2.03115e-06
2.03237e-06
2.03416e-06
2.03598e-06
2.03775e-06
2.03928e-06
2.04046e-06
2.0413e-06
2.04182e-06
2.04202e-06
2.04189e-06
2.04143e-06
2.04065e-06
2.03954e-06
2.03809e-06
2.03629e-06
2.03427e-06
2.03237e-06
2.03324e-06
2.03504e-06
2.03685e-06
2.03861e-06
2.04013e-06
2.0413e-06
2.04214e-06
2.04266e-06
2.04285e-06
2.04272e-06
2.04227e-06
2.04149e-06
2.04039e-06
2.03895e-06
2.03716e-06
2.03516e-06
2.03325e-06
2.03378e-06
2.03558e-06
2.03738e-06
2.03914e-06
2.04065e-06
2.04182e-06
2.04266e-06
2.04317e-06
2.04336e-06
2.04323e-06
2.04278e-06
2.04201e-06
2.04091e-06
2.03947e-06
2.03769e-06
2.0357e-06
2.03378e-06
2.03398e-06
2.03579e-06
2.03759e-06
2.03934e-06
2.04085e-06
2.04202e-06
2.04285e-06
2.04336e-06
2.04356e-06
2.04343e-06
2.04298e-06
2.04221e-06
2.04111e-06
2.03967e-06
2.03789e-06
2.03591e-06
2.03398e-06
2.03385e-06
2.03565e-06
2.03745e-06
2.03921e-06
2.04072e-06
2.04189e-06
2.04272e-06
2.04324e-06
2.04343e-06
2.0433e-06
2.04285e-06
2.04208e-06
2.04098e-06
2.03954e-06
2.03776e-06
2.03577e-06
2.03385e-06
2.03338e-06
2.03517e-06
2.03698e-06
2.03874e-06
2.04026e-06
2.04143e-06
2.04227e-06
2.04278e-06
2.04298e-06
2.04285e-06
2.0424e-06
2.04162e-06
2.04052e-06
2.03908e-06
2.03729e-06
2.03529e-06
2.03338e-06
2.03257e-06
2.03435e-06
2.03618e-06
2.03795e-06
2.03947e-06
2.04065e-06
2.04149e-06
2.04201e-06
2.04221e-06
2.04208e-06
2.04162e-06
2.04084e-06
2.03973e-06
2.03828e-06
2.03648e-06
2.03447e-06
2.03257e-06
2.03142e-06
2.03319e-06
2.03503e-06
2.03682e-06
2.03835e-06
2.03954e-06
2.04039e-06
2.04091e-06
2.04111e-06
2.04098e-06
2.04052e-06
2.03974e-06
2.03862e-06
2.03715e-06
2.03534e-06
2.03331e-06
2.03142e-06
2.02994e-06
2.03168e-06
2.03354e-06
2.03534e-06
2.03689e-06
2.03809e-06
2.03895e-06
2.03947e-06
2.03967e-06
2.03954e-06
2.03908e-06
2.03828e-06
2.03715e-06
2.03568e-06
2.03385e-06
2.0318e-06
2.02994e-06
2.02797e-06
2.02976e-06
2.03167e-06
2.03351e-06
2.03508e-06
2.03629e-06
2.03716e-06
2.03769e-06
2.03789e-06
2.03776e-06
2.03729e-06
2.03649e-06
2.03535e-06
2.03385e-06
2.03198e-06
2.02989e-06
2.02797e-06
2.02598e-06
2.02773e-06
2.02958e-06
2.03145e-06
2.03304e-06
2.03427e-06
2.03516e-06
2.0357e-06
2.03591e-06
2.03577e-06
2.03529e-06
2.03447e-06
2.03331e-06
2.0318e-06
2.02989e-06
2.02787e-06
2.02598e-06
2.02374e-06
2.02583e-06
2.02767e-06
2.02959e-06
2.03115e-06
2.03237e-06
2.03325e-06
2.03378e-06
2.03398e-06
2.03385e-06
2.03338e-06
2.03257e-06
2.03142e-06
2.02994e-06
2.02797e-06
2.02598e-06
2.02374e-06
1.98528e-06
1.98715e-06
1.98882e-06
1.99057e-06
1.99199e-06
1.99311e-06
1.99391e-06
1.99441e-06
1.99459e-06
1.99447e-06
1.99403e-06
1.99329e-06
1.99223e-06
1.99089e-06
1.98909e-06
1.98729e-06
1.98528e-06
1.98715e-06
1.98876e-06
1.99044e-06
1.99216e-06
1.99361e-06
1.99475e-06
1.99557e-06
1.99607e-06
1.99626e-06
1.99613e-06
1.99569e-06
1.99494e-06
1.99386e-06
1.99248e-06
1.99072e-06
1.98888e-06
1.98715e-06
1.98882e-06
1.99044e-06
1.99218e-06
1.99387e-06
1.99531e-06
1.99644e-06
1.99725e-06
1.99774e-06
1.99793e-06
1.9978e-06
1.99737e-06
1.99662e-06
1.99556e-06
1.99418e-06
1.99246e-06
1.99056e-06
1.98882e-06
1.99057e-06
1.99216e-06
1.99387e-06
1.99553e-06
1.99697e-06
1.99809e-06
1.99889e-06
1.99938e-06
1.99957e-06
1.99944e-06
1.99901e-06
1.99827e-06
1.99722e-06
1.99584e-06
1.99415e-06
1.99227e-06
1.99057e-06
1.99199e-06
1.99361e-06
1.99531e-06
1.99697e-06
1.9984e-06
1.99951e-06
2.0003e-06
2.00079e-06
2.00098e-06
2.00085e-06
2.00042e-06
1.99969e-06
1.99864e-06
1.99728e-06
1.9956e-06
1.99372e-06
1.99199e-06
1.99311e-06
1.99475e-06
1.99644e-06
1.99809e-06
1.99951e-06
2.00061e-06
2.0014e-06
2.00189e-06
2.00207e-06
2.00195e-06
2.00152e-06
2.00079e-06
1.99975e-06
1.99839e-06
1.99672e-06
1.99486e-06
1.99311e-06
1.99391e-06
1.99557e-06
1.99725e-06
1.99889e-06
2.0003e-06
2.0014e-06
2.00219e-06
2.00268e-06
2.00286e-06
2.00274e-06
2.00231e-06
2.00158e-06
2.00055e-06
1.99919e-06
1.99753e-06
1.99568e-06
1.99391e-06
1.99441e-06
1.99607e-06
1.99774e-06
1.99938e-06
2.00079e-06
2.00189e-06
2.00268e-06
2.00316e-06
2.00334e-06
2.00322e-06
2.0028e-06
2.00207e-06
2.00104e-06
1.99969e-06
1.99802e-06
1.99618e-06
1.9944e-06
1.99459e-06
1.99626e-06
1.99793e-06
1.99957e-06
2.00098e-06
2.00208e-06
2.00286e-06
2.00334e-06
2.00353e-06
2.00341e-06
2.00298e-06
2.00225e-06
2.00122e-06