/*--------------------------------*- C++ -*----------------------------------*\
  =========                 |
  \\      /  F ield         | OpenFOAM: The Open Source CFD Toolbox
   \\    /   O peration     | Website:  https://openfoam.org
    \\  /    A nd           | Version:  6
     \\/     M anipulation  |
\*---------------------------------------------------------------------------*/
FoamFile
{
    version     2.0;
    format      ascii;
    class       volScalarField;
    location    "0";
    object      P_rec;
}
// * * * * * * * * * * * * * * * * * * * * * * * * * * * * * * * * * * * * * //

dimensions      [0 2 -2 0 0 0 0];

internalField   nonuniform List<scalar> 
13046
(
0.72652
0.741677
0.83633
0.73803
0.814557
0.776451
0.711214
0.77769
0.827458
0.284184
0.628283
0.827611
0.683822
0.74276
0.832784
0.369377
0.839949
0.608864
0.798749
0.802325
0.745305
0.357291
0.838385
0.614943
0.74469
0.771194
0.818618
0.666658
0.727734
0.841372
0.732213
0.732984
0.832192
0.764034
0.815059
0.767199
0.763826
0.814718
0.778236
0.757079
0.832337
0.689097
0.773278
0.79912
0.787042
0.765545
0.790719
0.800382
0.707178
0.746142
0.83617
0.822393
0.77527
0.626794
0.823012
0.597881
0.784975
0.61751
0.568949
0.851105
0.582365
0.760058
0.829003
0.833902
0.674286
0.427583
0.599621
0.61399
0.848885
0.623378
0.620116
0.848048
0.606734
0.544743
0.849862
0.794042
0.81379
0.728152
0.850294
0.493511
0.604237
0.730918
0.774481
0.820085
0.832215
0.662951
0.396163
0.40834
0.824034
0.712288
0.80632
0.367058
0.737229
0.574768
0.545271
0.709449
0.70587
0.837559
0.840694
0.82195
0.418788
0.723504
0.756173
0.798144
0.795617
0.805469
0.619644
0.814205
0.769804
0.829417
0.649165
0.165822
0.819732
0.590749
0.70038
0.753104
0.82742
0.542322
0.569821
0.678126
0.84236
0.69344
0.841548
0.258417
0.615607
0.827773
0.626771
0.71241
0.84408
0.743754
0.834122
0.694816
0.802571
0.395418
0.74783
0.493568
0.708255
0.833645
0.717626
0.72864
0.831437
0.653822
0.790784
0.818015
0.775292
0.824484
0.640077
0.803873
0.642079
0.815602
0.56873
0.746874
0.828685
0.821133
0.681729
0.800839
0.805577
0.568105
0.795496
0.553117
0.801335
0.8067
0.65181
0.793541
0.810135
0.284307
0.82361
0.641431
0.201721
0.823163
0.598003
0.477863
0.695459
0.837059
0.729185
0.660553
0.840893
0.663561
0.804633
0.80157
0.823863
0.666784
0.30534
0.740684
0.672576
0.836425
0.816261
0.665702
0.803289
0.673056
0.792548
0.814022
0.740264
0.838743
0.644619
0.726607
0.838101
0.38272
0.825936
0.686454
0.813567
0.424773
0.741738
0.366114
0.72036
0.807972
0.828035
0.59002
0.760047
0.675394
0.502563
0.852245
0.596273
0.705614
0.342577
0.813731
0.750965
0.81283
0.786689
0.685529
0.725421
0.841589
0.809682
0.418731
0.748739
0.659361
0.748833
0.838775
0.81929
0.627094
0.221299
0.768633
0.579607
0.822958
0.398983
0.727355
0.813016
0.595902
0.793219
0.812798
0.623954
0.699821
0.845328
0.778049
0.460913
0.796478
0.527232
0.793474
0.800132
0.814942
0.631872
0.200136
0.765689
0.835725
0.646258
0.183912
0.825279
0.558269
0.800254
0.745073
0.797874
0.598755
0.611687
0.78485
0.792523
0.819623
0.814263
0.846431
0.460635
0.607173
0.652605
0.705815
0.841259
0.50673
0.781953
0.808198
0.51512
0.691409
0.838153
0.783137
0.77576
0.804489
0.568807
0.789406
0.810853
0.649723
0.691769
0.84433
0.660193
0.642838
0.764036
0.834686
0.633966
0.553195
0.778867
0.814174
0.484752
0.83662
0.689411
0.784952
0.824216
0.664722
0.796674
0.555749
0.80606
0.579926
0.667416
0.84379
0.768185
0.827327
0.627564
0.5544
0.536204
0.659182
0.843634
0.661751
0.845761
0.825028
0.668216
0.326994
0.593645
0.691544
0.84395
0.554133
0.816203
0.103669
0.7172
0.799701
0.800594
0.606043
0.762288
0.828872
0.829314
0.418935
0.69136
0.822765
0.576449
0.781356
0.766249
0.445331
0.802358
0.764513
0.831779
0.591499
0.739377
0.834328
0.7666
0.828848
0.402112
0.840741
0.618519
0.832869
0.58051
0.752037
0.568692
0.737123
0.832584
0.641244
0.78782
0.821789
0.62945
0.815407
0.794959
0.725634
0.75967
0.827759
0.783222
0.568588
0.813121
0.373581
0.698913
0.819519
0.763195
0.447255
0.806794
0.657078
0.845383
0.621626
0.515546
0.542565
0.639763
0.633789
0.844489
0.8453
0.81879
0.558193
0.127914
0.20643
0.828165
0.563229
0.580552
0.781318
0.811568
0.826087
0.363819
0.674214
0.615412
0.594223
0.639877
0.646728
0.84845
0.848287
0.803431
0.697046
0.281505
0.164608
0.825948
0.538115
0.754176
0.789357
0.807017
0.157739
0.570098
0.821845
0.708813
0.67422
0.841136
0.315493
0.676677
0.821529
0.57079
0.808763
0.0442967
0.767596
0.829433
0.698449
0.72411
0.803155
0.806104
0.268901
0.8307
0.603739
0.709713
0.803725
0.806718
0.762953
0.790745
0.803634
0.7778
0.555311
0.822602
0.712388
0.820009
0.791138
0.724573
0.806057
0.793286
0.680154
0.618641
0.843853
0.835638
0.833681
0.629696
0.635373
0.332547
0.32466
0.343977
0.695605
0.816215
0.849512
0.642311
0.60815
0.751965
0.83361
0.667829
0.522677
0.796965
0.790053
0.619715
0.803317
0.10142
0.808838
0.352428
0.725017
0.221667
0.823543
0.612371
0.809362
0.554868
0.0303785
0.529629
0.814117
0.0619957
0.762437
0.528001
0.816713
0.669934
0.800273
0.203423
0.473979
0.712112
0.831072
0.324525
0.839393
0.576976
0.693336
0.826756
0.765338
0.706524
0.805867
0.305921
0.535613
0.786498
0.803169
0.773744
0.50191
0.814834
0.809733
0.486262
-0.0473001
0.572067
0.813188
0.0858205
0.714169
0.826053
0.767134
0.684714
0.276023
0.807836
0.802233
0.255354
0.69259
0.370668
0.828989
0.663505
0.844271
0.624482
0.44766
0.69704
0.601748
0.846502
0.630641
0.568747
0.850477
0.845957
0.410733
0.595305
0.688189
0.671059
0.693335
0.685081
0.842277
0.842897
0.705095
0.686902
0.840839
0.63024
0.624975
0.851372
0.766764
0.472625
0.808015
0.696248
0.338192
0.819538
0.812339
0.456734
0.750056
0.533474
0.816493
0.0880411
0.756921
0.746952
0.83369
0.711438
0.833879
0.723447
0.668456
0.681489
0.845112
0.643604
0.847248
0.64863
0.588734
0.803791
0.0540132
0.685762
0.299286
0.811035
0.742861
0.833215
0.637968
0.784797
0.485234
0.797139
0.845357
0.623999
0.468932
0.604047
0.147018
0.814776
0.619678
0.163905
0.813066
0.598813
0.657339
0.849017
0.794598
0.818792
0.674544
0.342054
0.829051
0.652605
0.760826
0.502505
0.821784
0.839036
0.672313
0.458544
0.698493
0.845754
0.639225
0.609923
0.802536
0.803756
0.762793
0.832158
0.673709
0.826381
0.655775
0.316222
0.512782
0.67748
0.841759
0.768807
0.828408
0.709811
0.377919
0.844492
0.584853
0.707561
0.711961
0.839
0.688946
0.79309
0.819702
0.776426
0.521857
0.812548
0.249563
0.83386
0.566522
0.270848
0.836613
0.563891
0.84134
0.660512
0.455545
0.59532
0.80957
0.795998
0.831801
0.551997
0.216099
0.828807
0.705649
0.443016
0.805846
0.547285
0.00311309
0.0387315
0.501924
0.815268
0.845263
0.609747
0.419301
0.82109
0.642655
0.258173
0.366235
0.394456
0.834303
0.635059
0.835839
0.646763
0.439832
0.714946
0.825377
0.8003
0.793877
0.492318
0.75553
0.82376
0.745579
0.461677
0.736107
0.822727
0.820848
0.475088
0.747222
0.434865
0.847222
0.593122
0.656922
0.630266
0.848872
0.690988
0.66884
0.840324
0.530191
0.74554
0.830701
0.515553
0.746928
0.826853
0.777178
0.820009
0.727585
0.664526
0.66853
0.847012
0.801662
0.714734
0.313056
0.154719
0.80805
0.63255
0.1297
0.804306
0.634434
0.735092
0.838307
0.68342
0.596861
0.810703
0.111643
0.484685
0.842097
0.662202
0.806764
0.604464
0.08986
0.745676
0.810707
0.78645
0.633144
0.735351
0.834909
0.814073
0.609158
0.791941
0.802474
0.676234
0.232945
0.764721
0.506957
0.818226
0.841124
0.355472
0.589739
0.602506
0.729106
0.841527
0.76248
0.823157
0.751492
0.669259
0.247244
0.810537
0.834762
0.68572
0.436784
0.242876
0.218648
0.828518
0.826591
0.590951
0.583731
0.618235
0.778544
0.823957
0.769051
0.548562
0.81445
0.697362
0.781597
0.827417
0.648164
0.187914
0.655305
0.808323
0.184664
0.804401
0.548848
0.716433
0.839478
0.240295
0.210559
0.657573
0.648682
0.813814
0.81087
0.557664
0.775006
0.824914
0.642595
0.759071
0.830143
0.302395
0.838538
0.579627
0.624461
0.768327
0.82703
0.68482
0.779106
0.82208
0.251999
0.832322
0.581756
0.599747
0.720133
0.837166
0.809894
0.528122
0.782577
0.700407
0.626937
0.844257
0.7571
0.796779
0.410362
0.810296
0.504663
-0.0187353
0.609936
0.755055
0.831558
0.326822
0.835097
0.606591
0.840423
0.590457
0.726591
0.0993932
0.820916
0.521816
0.800701
0.792286
0.812575
0.676347
0.817118
0.667338
0.703295
0.790744
0.816992
0.778906
0.791408
0.822226
0.6923
0.82168
0.682555
0.628382
0.763663
0.833531
0.644356
0.770268
0.830203
0.80116
0.647441
0.14914
0.721997
0.696187
0.836462
0.265817
0.656383
0.819352
0.515919
0.489382
0.733334
0.725983
0.828678
0.826552
0.721403
0.709972
0.836945
0.634695
0.656486
0.846198
0.559895
0.736099
0.836446
0.773491
0.761479
0.811763
0.484581
0.736378
0.824864
0.756717
0.823149
0.741466
0.568921
0.765414
0.827284
0.635631
0.671808
0.845234
0.768612
0.774656
0.748277
0.821883
0.741825
0.82126
0.783711
0.814024
0.793907
0.724138
0.822304
0.693845
0.691445
0.677749
0.704319
0.715334
0.841351
0.839407
0.842541
0.639183
0.454113
0.778588
0.55408
0.814748
0.843021
0.84058
0.633226
0.646626
0.425083
0.422663
0.760091
0.832331
0.606881
0.778774
0.804242
0.777471
0.472684
0.72546
0.827408
0.746834
0.832489
0.705218
0.620024
0.674139
0.845709
0.501971
0.508001
0.63651
0.84737
0.650361
0.84485
0.521651
0.717864
0.833379
0.125979
0.539948
0.821969
0.836396
0.596358
0.738197
0.713632
0.720901
0.841919
0.605797
0.843599
0.609622
0.476281
0.759235
0.814023
0.652361
0.654083
0.846769
0.749891
0.833772
0.617784
0.723519
0.721225
0.838447
0.84415
0.640749
0.641654
0.71331
0.843309
0.622134
0.531236
0.728151
0.834085
0.770063
0.820809
0.7383
0.291082
0.83089
0.606271
0.740472
0.836409
0.608448
0.624781
0.598902
0.687175
0.67931
0.842414
0.84745
0.833574
0.615458
0.313784
0.305339
0.836953
0.592797
0.281756
0.833005
0.592772
0.481902
0.844144
0.650267
0.66744
0.665983
0.84564
0.739917
0.825313
0.852512
0.742404
0.853285
0.633839
0.8452
0.754401
0.782001
0.851934
0.85123
0.781367
0.752619
0.851573
0.83816
0.770371
0.745881
0.831699
0.829365
0.847877
0.841186
0.825323
0.851258
0.84155
0.85691
0.825257
0.856309
0.787635
0.843555
0.745895
0.793158
0.844046
0.83972
0.839976
0.803839
0.846175
0.855334
0.851663
0.758944
0.789684
0.822791
0.819973
0.808003
0.850339
0.83001
0.834692
0.836923
0.823394
0.781585
0.812219
0.854709
0.841128
0.772449
0.838364
0.790425
0.853428
0.849652
0.840715
0.825456
0.849703
0.812002
0.809875
0.856601
0.760551
0.844252
0.84968
0.842639
0.852564
0.851668
0.823384
0.794977
0.801375
0.801907
0.849166
0.797906
0.838748
0.809906
0.802533
0.844034
0.851343
0.827831
0.842967
0.778508
0.778788
0.837756
0.846396
0.837337
0.747727
0.839252
0.853831
0.778856
0.851697
0.856919
0.839702
0.759913
0.59874
0.801434
0.825357
0.759121
0.793166
0.845229
0.852175
0.831479
0.850185
0.773579
0.737357
0.782825
0.782778
0.803131
0.855426
0.852408
0.845871
0.787815
0.805188
0.791884
0.827648
0.839161
0.749247
0.788546
0.829381
0.840036
0.848293
0.846187
0.849575
0.832482
0.800359
0.785304
0.855701
0.71551
0.84845
0.793954
0.851511
0.779421
0.678035
0.733921
0.851408
0.837317
0.780044
0.799078
0.843925
0.765994
0.847037
0.805659
0.792605
0.835329
0.83709
0.77574
0.852726
0.800196
0.838353
0.780211
0.82564
0.759583
0.85544
0.850865
0.83597
0.850092
0.846425
0.852618
0.811759
0.798135
0.791074
0.83214
0.714364
0.77986
0.783772
0.834829
0.831415
0.843295
0.853828
0.841595
0.856209
0.856133
0.85353
0.774392
0.791671
0.783828
0.852441
0.783394
0.775996
0.705236
0.776099
0.833342
0.832546
0.842176
0.854904
0.850796
0.823619
0.850501
0.830033
0.82358
0.67122
0.831956
0.803201
0.793028
0.847933
0.846701
0.800988
0.823793
0.83616
0.843792
0.740386
0.801111
0.849277
0.854631
0.811338
0.78027
0.826179
0.8346
0.823688
0.816721
0.757219
0.703658
0.796425
0.802907
0.796813
0.78938
0.748404
0.852085
0.837453
0.791409
0.838295
0.775816
0.774229
0.848258
0.848108
0.7702
0.778693
0.73118
0.848105
0.799873
0.833738
0.8458
0.839117
0.784895
0.845447
0.82113
0.784513
0.79091
0.852165
0.843606
0.843333
0.853796
0.819961
0.765254
0.782761
0.837549
0.838763
0.77192
0.792101
0.842687
0.848829
0.84959
0.844379
0.777001
0.837133
0.806743
0.842665
0.821926
0.799747
0.835487
0.824497
0.698004
0.779212
0.798807
0.775202
0.807745
0.846732
0.830984
0.840619
0.848239
0.756578
0.835058
0.816621
0.837878
0.832342
0.82916
0.84543
0.783908
0.775312
0.828807
0.780934
0.780002
0.843339
0.686046
0.780416
0.852281
0.846327
0.79278
0.792402
0.793567
0.843028
0.752202
0.694824
0.764454
0.833974
0.84065
0.835475
0.635661
0.768861
0.852492
0.822988
0.737856
0.774754
0.784133
0.790659
0.779529
0.836832
0.850077
0.792186
0.785256
0.809586
0.811557
0.823628
0.729873
0.850515
0.833143
0.684014
0.787956
0.779117
0.791665
0.847798
0.833828
0.849119
0.812208
0.766833
0.826436
0.84168
0.844933
0.813932
0.854636
0.849973
0.817255
0.845201
0.837085
0.807261
0.785019
0.824354
0.751077
0.823775
0.823278
0.793364
0.766551
0.764572
0.764477
0.747175
0.852496
0.774829
0.79889
0.846949
0.837966
0.78157
0.772719
0.85596
0.826511
0.679842
0.822637
0.792494
0.783693
0.852517
0.81731
0.806316
0.840615
0.79437
0.833907
0.790242
0.844046
0.826688
0.813575
0.610368
0.772739
0.793767
0.828755
0.8343
0.836209
0.833275
0.85478
0.760813
0.792504
0.758976
0.719037
0.785723
0.850827
0.809591
0.829578
0.800265
0.830917
0.780149
0.744006
0.765631
0.789058
0.793222
0.856714
0.814933
0.819151
0.853906
0.849943
0.833331
0.856041
0.747322
0.805174
0.78356
0.839739
0.835243
0.845396
0.821664
0.832935
0.793365
0.823054
0.778566
0.726584
0.843435
0.814226
0.71906
0.76999
0.78889
0.767417
0.793906
0.827968
0.838117
0.772366
0.799369
0.785456
0.789071
0.785674
0.807268
0.746905
0.790923
0.85304
0.852503
0.850222
0.83259
0.83665
0.675618
0.849352
0.842232
0.774009
0.854489
0.659622
0.849025
0.800434
0.836212
0.814143
0.848907
0.824791
0.760017
0.845317
0.759109
0.853342
0.838131
0.79304
0.804541
0.744935
0.813367
0.853537
0.80077
0.843562
0.848106
0.783844
0.734594
0.849568
0.668517
0.833318
0.836084
0.780283
0.85578
0.713082
0.709147
0.84707
0.825315
0.849472
0.845444
0.834154
0.846296
0.855612
0.851097
0.847089
0.846274
0.781677
0.809984
0.829619
0.853098
0.809315
0.65444
0.846442
0.797617
0.836448
0.807873
0.85406
0.827312
0.809481
0.850529
0.823179
0.855387
0.76832
0.851408
0.833386
0.852745
0.84402
0.84721
0.806465
0.831792
0.770499
0.760177
0.832406
0.806571
0.828988
0.742527
0.666232
0.782649
0.811875
0.832619
0.815287
0.855395
0.809965
0.774631
0.821005
0.781406
0.852692
0.749355
0.832847
0.839203
0.853351
0.818477
0.845144
0.762595
0.836603
0.850651
0.786422
0.750906
0.835367
0.811857
0.847789
0.850935
0.810315
0.780318
0.8272
0.789965
0.774688
0.85405
0.853641
0.845632
0.75014
0.85348
0.831458
0.855416
0.789632
0.843634
0.835587
0.841136
0.834265
0.753266
0.785972
0.805263
0.648696
0.852149
0.839168
0.837175
0.851397
0.846774
0.822416
0.834184
0.830197
0.855566
0.851516
0.831982
0.833441
0.817398
0.844839
0.834076
0.800953
0.805561
0.812233
0.810623
0.839551
0.795444
0.849342
0.852651
0.785807
0.851871
0.786629
0.773756
0.792076
0.849942
0.824678
0.833215
0.839977
0.850699
0.834159
0.840983
0.85074
0.795838
0.788314
0.767425
0.775979
0.77893
0.583336
0.78132
0.786571
0.84001
0.784132
0.806529
0.838376
0.829798
0.778554
0.795594
0.806171
0.602204
0.854656
0.815246
0.839593
0.784203
0.811873
0.834298
0.751957
0.84395
0.782469
0.850372
0.811193
0.852597
0.746018
0.700602
0.804261
0.810567
0.81699
0.841084
0.703971
0.83694
0.812377
0.776511
0.755209
0.797482
0.805323
0.851789
0.747039
0.848665
0.849836
0.836559
0.790205
0.850431
0.782999
0.583964
0.835021
0.787488
0.780125
0.849804
0.8505
0.837579
0.841521
0.816144
0.851887
0.855599
0.836643
0.813927
0.846285
0.855035
0.846446
0.837755
0.83412
0.849541
0.787657
0.785683
0.852389
0.849496
0.853906
0.828076
0.815226
0.792123
0.850608
0.847744
0.550744
0.815645
0.833563
0.773099
0.839399
0.82049
0.85231
0.835504
0.836378
0.793115
0.845677
0.85304
0.833434
0.852027
0.854117
0.701952
0.773723
0.818096
0.781539
0.700234
0.78864
0.83347
0.850847
0.792831
0.823806
0.752133
0.80081
0.835376
0.838972
0.79115
0.785546
0.781919
0.826113
0.798018
0.79297
0.835283
0.841679
0.846453
0.776621
0.844706
0.801383
0.785987
0.834079
0.850769
0.837471
0.826436
0.777374
0.848588
0.787825
0.855499
0.848095
0.851954
0.848802
0.779023
0.777615
0.838086
0.780776
0.784125
0.796222
0.793142
0.777322
0.833954
0.835976
0.783525
0.85206
0.808046
0.826364
0.833642
0.847458
0.844317
0.845984
0.82885
0.786515
0.850312
0.753838
0.849508
0.781534
0.84192
0.851768
0.850666
0.847356
0.851491
0.835929
0.774543
0.789547
0.833852
0.7985
0.855385
0.774339
0.747072
0.82277
0.818353
0.807443
0.785882
0.830305
0.848984
0.843644
0.6683
0.802973
0.73201
0.756015
0.834227
0.821764
0.836206
0.829453
0.852617
0.777852
0.854348
0.837466
0.74527
0.84681
0.811564
0.850577
0.835455
0.832792
0.773556
0.793936
0.836511
0.84766
0.802042
0.828011
0.83568
0.845971
0.829666
0.827055
0.8023
0.836171
0.781896
0.774933
0.724546
0.839709
0.783609
0.794385
0.779721
0.795864
0.854777
0.821512
0.836659
0.852801
0.835157
0.738422
0.833053
0.762953
0.816467
0.843197
0.79923
0.78589
0.812632
0.837894
0.761756
0.800559
0.725115
0.785586
0.842273
0.731965
0.793991
0.848254
0.779799
0.782939
0.836001
0.849814
0.817512
0.766225
0.838516
0.793873
0.798765
0.836009
0.812829
0.837793
0.843857
0.856379
0.80831
0.850663
0.84285
0.848292
0.852814
0.846541
0.743202
0.794999
0.824417
0.776014
0.853012
0.85298
0.848335
0.841649
0.777626
0.782933
0.826861
0.852859
0.761107
0.847399
0.844956
0.84895
0.771491
0.769446
0.776377
0.74083
0.840743
0.760811
0.845653
0.795488
0.846563
0.776358
0.837741
0.783901
0.833305
0.843614
0.840142
0.821946
0.845336
0.852835
0.855899
0.843469
0.814521
0.850163
0.844752
0.798635
0.808172
0.835664
0.793918
0.854739
0.81976
0.843755
0.849994
0.851746
0.800211
0.722298
0.855501
0.811685
0.816384
0.830338
0.843345
0.850484
0.851252
0.811868
0.84018
0.779515
0.802346
0.838017
0.848137
0.832903
0.842305
0.82387
0.856499
0.828142
0.797758
0.852752
0.839774
0.77108
0.802265
0.854995
0.827276
0.782748
0.800612
0.856553
0.818435
0.835979
0.851441
0.853222
0.848974
0.842157
0.784445
0.847303
0.803448
0.820466
0.853217
0.839727
0.777355
0.763838
0.820153
0.845096
0.791699
0.770464
0.847116
0.820927
0.831626
0.847651
0.779539
0.780789
0.813391
0.844956
0.854519
0.839698
0.837923
0.733286
0.838946
0.806153
0.828281
0.85281
0.854433
0.77036
0.778933
0.830709
0.849674
0.854476
0.851117
0.847521
0.805464
0.806507
0.779257
0.783076
0.849902
0.84251
0.700198
0.783325
0.849586
0.832657
0.771377
0.783022
0.841003
0.806695
0.840519
0.846109
0.832591
0.851817
0.848464
0.835881
0.84747
0.816352
0.810465
0.825219
0.842765
0.810495
0.847772
0.703402
0.832175
0.688534
0.822512
0.852583
0.839783
0.852239
0.850516
0.853081
0.801223
0.819425
0.837308
0.742798
0.851824
0.831737
0.794768
0.846165
0.640884
0.784082
0.833146
0.847955
0.855519
0.781913
0.779651
0.835869
0.845742
0.71166
0.798252
0.812871
0.714382
0.763595
0.833224
0.766144
0.838239
0.782947
0.838118
0.846545
0.645072
0.827322
0.831367
0.801287
0.776824
0.834265
0.800832
0.816188
0.784155
0.828615
0.820357
0.808357
0.835691
0.853102
0.800574
0.775003
0.811409
0.781583
0.789255
0.834961
0.737589
0.803523
0.801316
0.830477
0.842703
0.825894
0.829254
0.697933
0.837687
0.83783
0.807807
0.848465
0.821472
0.828323
0.717552
0.70172
0.843295
0.778028
0.831367
0.848313
0.801713
0.840339
0.697357
0.845085
0.81394
0.851503
0.813652
0.817227
0.833345
0.786026
0.805974
0.812158
0.855991
0.781951
0.770839
0.831441
0.856142
0.85098
0.72988
0.815325
0.813391
0.830771
0.808907
0.854873
0.851517
0.85005
0.848548
0.844746
0.794481
0.778069
0.85138
0.796535
0.819609
0.731804
0.766985
0.787094
0.773077
0.842503
0.706365
0.848365
0.799481
0.845712
0.826892
0.839535
0.851384
0.81363
0.847756
0.85249
0.850129
0.835903
0.851676
0.800498
0.838213
0.773764
0.80013
0.855783
0.707758
0.842676
0.847136
0.834406
0.827162
0.822041
0.840315
0.841023
0.837046
0.783959
0.78267
0.839571
0.835488
0.731332
0.8491
0.771446
0.837265
0.778607
0.822451
0.837333
0.851137
0.852731
0.784068
0.842338
0.834833
0.828243
0.852846
0.742694
0.763332
0.855578
0.779924
0.801975
0.852389
0.85194
0.840784
0.768754
0.791052
0.79297
0.788338
0.745065
0.833978
0.812086
0.827704
0.793402
0.837122
0.817854
0.797861
0.743559
0.831817
0.827076
0.791128
0.851835
0.851388
0.758008
0.842296
0.697954
0.798989
0.725986
0.79443
0.847419
0.830022
0.83409
0.822057
0.839691
0.849944
0.843328
0.837759
0.748712
0.819809
0.805997
0.833294
0.771625
0.853594
0.816659
0.792093
0.852463
0.848718
0.777133
0.84449
0.779751
0.844989
0.843868
0.846547
0.739079
0.842576
0.828581
0.844688
0.832996
0.790478
0.777095
0.792275
0.851009
0.853069
0.851806
0.815169
0.832255
0.850249
0.822015
0.84045
0.794681
0.799215
0.838016
0.852723
0.785715
0.854134
0.83861
0.856166
0.852462
0.851045
0.83561
0.819746
0.852891
0.678174
0.848144
0.722771
0.849694
0.853128
0.838664
0.8134
0.802758
0.839073
0.723782
0.747832
0.806221
0.758291
0.852836
0.781533
0.780178
0.741543
0.775164
0.834872
0.849433
0.854203
0.780933
0.815869
0.838964
0.844733
0.812002
0.807244
0.851132
0.852051
0.837032
0.851217
0.851644
0.849811
0.779208
0.828864
0.755641
0.843067
0.852948
0.852974
0.829606
0.839905
0.817225
0.777445
0.812269
0.780452
0.78986
0.785973
0.854985
0.831186
0.831292
0.85535
0.851854
0.842025
0.842355
0.797231
0.840039
0.83654
0.851314
0.811164
0.776709
0.839921
0.840641
0.84962
0.854847
0.85386
0.770605
0.767967
0.775522
0.84139
0.853038
0.729034
0.794545
0.853527
0.787383
0.817773
0.779391
0.833814
0.845283
0.834182
0.842705
0.793406
0.837274
0.837836
0.850023
0.819005
0.795241
0.846332
0.840637
0.823883
0.852837
0.857846
0.729168
0.852182
0.787149
0.807649
0.856461
0.854049
0.833292
0.851921
0.787794
0.850514
0.800457
0.779076
0.850814
0.812528
0.848172
0.828142
0.843563
0.837709
0.845794
0.794559
0.850084
0.77374
0.851516
0.829117
0.835639
0.809902
0.769972
0.778058
0.850727
0.796624
0.823664
0.768141
0.807362
0.849424
0.850352
0.84193
0.848141
0.841678
0.793709
0.814995
0.839557
0.774208
0.799352
0.842535
0.829925
0.816698
0.792416
0.729499
0.778726
0.850432
0.810757
0.851048
0.778966
0.854292
0.838464
0.853031
0.852657
0.814078
0.851904
0.780416
0.842623
0.792726
0.841074
0.761881
0.816307
0.795984
0.77568
0.815989
0.78268
0.777168
0.786359
0.853441
0.85657
0.81932
0.768407
0.851785
0.782762
0.735849
0.830596
0.849259
0.841915
0.784984
0.786614
0.855462
0.763288
0.839395
0.764406
0.790527
0.81194
0.7658
0.854259
0.830347
0.797115
0.854078
0.855183
0.793299
0.844982
0.829682
0.855226
0.832429
0.804072
0.783259
0.848284
0.854921
0.847494
0.756198
0.782708
0.801445
0.829527
0.842651
0.851382
0.76211
0.84014
0.785188
0.843905
0.845913
0.838764
0.808087
0.845099
0.733408
0.830802
0.764319
0.827087
0.752899
0.777237
0.837605
0.853403
0.792957
0.799849
0.842775
0.809386
0.723723
0.776705
0.790212
0.828181
0.6729
0.831314
0.824193
0.845056
0.824001
0.844835
0.844381
0.710677
0.707088
0.854767
0.829504
0.725327
0.804271
0.839199
0.85122
0.844199
0.755964
0.824736
0.762274
0.843077
0.852392
0.850217
0.820678
0.850749
0.786857
0.836336
0.855371
0.783276
0.796103
0.850888
0.85193
0.78687
0.781902
0.7467
0.709816
0.748996
0.8527
0.798466
0.779037
0.751813
0.769423
0.844529
0.76714
0.790869
0.770721
0.845959
0.805794
0.843972
0.796722
0.819797
0.820877
0.832891
0.838759
0.847236
0.772642
0.841997
0.8215
0.822675
0.844428
0.804478
0.85149
0.846554
0.801584
0.844643
0.781116
0.803183
0.832806
0.846418
0.786317
0.829732
0.827081
0.835165
0.837221
0.85247
0.753845
0.787329
0.770718
0.775167
0.85496
0.798443
0.842927
0.856047
0.817335
0.713921
0.774268
0.821127
0.766526
0.835205
0.776135
0.798305
0.79751
0.851143
0.849454
0.827499
0.764396
0.809455
0.782545
0.820914
0.850926
0.843142
0.807879
0.831225
0.81057
0.841383
0.847424
0.851504
0.840005
0.854485
0.843173
0.814286
0.793903
0.779948
0.777631
0.84128
0.833668
0.789474
0.845837
0.796746
0.853836
0.846854
0.780093
0.757246
0.802409
0.824067
0.851615
0.835288
0.8493
0.832815
0.852032
0.845557
0.832347
0.794453
0.833797
0.83061
0.785318
0.806037
0.846104
0.721085
0.638533
0.843328
0.836819
0.852313
0.818628
0.784559
0.77059
0.803681
0.758908
0.810286
0.840654
0.787422
0.850825
0.818627
0.771578
0.816144
0.794901
0.76849
0.851008
0.835536
0.841224
0.76866
0.825926
0.832934
0.769304
0.802976
0.804592
0.799146
0.773712
0.715088
0.854135
0.847223
0.853029
0.846089
0.850695
0.790948
0.838274
0.820919
0.819747
0.747292
0.84423
0.83153
0.813162
0.852468
0.852097
0.846329
0.844941
0.840361
0.842203
0.782325
0.837155
0.844297
0.848587
0.818195
0.787205
0.843236
0.796682
0.798143
0.84869
0.807195
0.85501
0.792469
0.855643
0.840812
0.838134
0.793443
0.847576
0.780902
0.796413
0.806699
0.787978
0.795803
0.795669
0.795622
0.834413
0.765122
0.770171
0.825818
0.843454
0.830386
0.80405
0.845704
0.843258
0.800437
0.849072
0.850783
0.852632
0.768419
0.800169
0.824347
0.780202
0.826658
0.737784
0.836486
0.741564
0.851513
0.826188
0.83593
0.790767
0.780192
0.801633
0.833497
0.798302
0.841254
0.844852
0.839151
0.847547
0.837908
0.828032
0.78997
0.853507
0.831626
0.832808
0.84996
0.786923
0.789215
0.787512
0.850414
0.851888
0.831824
0.824245
0.7982
0.826273
0.759877
0.817895
0.773659
0.850079
0.796719
0.819028
0.835125
0.837737
0.77354
0.817738
0.823872
0.835727
0.830604
0.846347
0.831547
0.803785
0.842527
0.851798
0.830318
0.779945
0.836871
0.780419
0.82783
0.751593
0.784227
0.833184
0.72948
0.77636
0.84819
0.851378
0.777053
0.827785
0.787135
0.744236
0.7847
0.774735
0.785426
0.786455
0.787052
0.848094
0.854681
0.819093
0.850104
0.81978
0.844124
0.832275
0.854304
0.847022
0.797415
0.83916
0.851783
0.837663
0.839087
0.751179
0.852113
0.816476
0.647163
0.841682
0.850817
0.855814
0.849543
0.841528
0.837839
0.80201
0.833895
0.825096
0.830012
0.657329
0.80624
0.747899
0.832486
0.83673
0.765528
0.777624
0.798196
0.787758
0.77401
0.835293
0.825528
0.837962
0.849704
0.788414
0.854284
0.773703
0.819138
0.849866
0.825279
0.828581
0.83041
0.66422
0.790084
0.838347
0.85238
0.7895
0.802134
0.834794
0.848839
0.776237
0.855368
0.794072
0.836171
0.835717
0.817085
0.834293
0.85005
0.853278
0.755211
0.839657
0.842952
0.846465
0.76675
0.827538
0.809323
0.775077
0.790898
0.80071
0.839147
0.83707
0.846374
0.821079
0.761259
0.831315
0.788566
0.788601
0.827138
0.82423
0.767758
0.855721
0.790825
0.795542
0.788603
0.837359
0.770948
0.735061
0.840096
0.813738
0.841535
0.79069
0.750204
0.839678
0.712685
0.849129
0.841331
0.785345
0.77524
0.85588
0.78666
0.773896
0.778637
0.753895
0.803016
0.844001
0.8503
0.773245
0.799201
0.849073
0.826267
0.793552
0.788552
0.817644
0.851268
0.85214
0.787565
0.778077
0.845723
0.85565
0.836983
0.833325
0.833351
0.754987
0.834361
0.847619
0.839153
0.760628
0.850697
0.834099
0.776826
0.844611
0.778685
0.853419
0.835784
0.768313
0.83275
0.828973
0.829552
0.781896
0.839564
0.803122
0.847243
0.845759
0.849597
0.783193
0.797763
0.849334
0.842833
0.808969
0.844114
0.835187
0.788408
0.8413
0.83802
0.787079
0.698408
0.781316
0.808885
0.79364
0.784558
0.795804
0.805969
0.84279
0.771519
0.780732
0.833478
0.773967
0.852561
0.787465
0.83679
0.834868
0.777337
0.837255
0.816913
0.846736
0.841024
0.850131
0.791599
0.786394
0.854484
0.758441
0.852807
0.84661
0.835018
0.800243
0.85297
0.827436
0.783145
0.855824
0.7562
0.838549
0.852081
0.763722
0.857027
0.782334
0.833179
0.68116
0.832521
0.776805
0.838097
0.805282
0.779721
0.808044
0.773849
0.790403
0.852711
0.775371
0.82534
0.838553
0.82808
0.840994
0.844521
0.834412
0.758845
0.854341
0.831725
0.849902
0.79408
0.835141
0.84303
0.815337
0.852411
0.83632
0.839283
0.787663
0.823033
0.736921
0.775749
0.852637
0.604516
0.84517
0.845776
0.799685
0.787831
0.810329
0.850718
0.825999
0.847498
0.833288
0.836857
0.840847
0.854714
0.850331
0.773261
0.835786
0.848815
0.839037
0.843183
0.815951
0.789924
0.782495
0.817422
0.838336
0.816737
0.856796
0.77913
0.795157
0.8256
0.807688
0.83787
0.848139
0.787635
0.80085
0.801514
0.81479
0.785359
0.850606
0.763775
0.812908
0.833898
0.813956
0.768647
0.764042
0.843434
0.763323
0.77347
0.851262
0.837105
0.80235
0.773998
0.777661
0.799029
0.850994
0.851771
0.805995
0.838403
0.838984
0.855014
0.849259
0.795086
0.852012
0.806042
0.833576
0.847054
0.851237
0.840128
0.852095
0.84981
0.760632
0.743396
0.824793
0.79925
0.810734
0.695867
0.703709
0.849545
0.851611
0.785267
0.852903
0.838395
0.849782
0.832341
0.782001
0.853288
0.851166
0.838506
0.760314
0.780795
0.839023
0.84418
0.827284
0.776847
0.810023
0.843383
0.852372
0.842741
0.818209
0.805551
0.847805
0.816418
0.809487
0.842531
0.817606
0.844254
0.692071
0.853184
0.82842
0.837839
0.852092
0.777076
0.785107
0.795305
0.783712
0.853858
0.784611
0.830864
0.695785
0.798213
0.815393
0.787869
0.7759
0.824305
0.770603
0.784529
0.82854
0.821267
0.850031
0.789173
0.838971
0.852797
0.802249
0.843009
0.840221
0.848845
0.836507
0.799902
0.849263
0.775951
0.78222
0.844917
0.851351
0.85152
0.837645
0.747605
0.840664
0.836016
0.813503
0.850794
0.838459
0.847771
0.848628
0.780359
0.78292
0.840334
0.774102
0.839605
0.838709
0.772116
0.853098
0.834448
0.847521
0.83007
0.837261
0.769298
0.813686
0.840117
0.790984
0.839894
0.84527
0.805619
0.837486
0.822758
0.83489
0.843406
0.837609
0.772472
0.850206
0.751178
0.686885
0.806275
0.846237
0.783053
0.85325
0.797741
0.748461
0.835605
0.843665
0.849259
0.654213
0.8401
0.840998
0.852029
0.813228
0.855057
0.843332
0.782177
0.83793
0.82022
0.821714
0.779757
0.841413
0.83697
0.783166
0.779908
0.839726
0.823971
0.779206
0.830177
0.851989
0.775683
0.852296
0.789356
0.743648
0.760132
0.83823
0.828686
0.782439
0.750589
0.777164
0.838091
0.835692
0.850865
0.808701
0.852334
0.76494
0.838149
0.782406
0.784462
0.781344
0.840848
0.833069
0.785526
0.791762
0.853447
0.814276
0.847916
0.848093
0.802336
0.829531
0.837577
0.81243
0.850382
0.837936
0.839522
0.813822
0.782925
0.833769
0.808066
0.856394
0.816243
0.795363
0.741503
0.790816
0.837867
0.849187
0.828678
0.847792
0.831327
0.797874
0.809965
0.760831
0.802941
0.79469
0.85025
0.772831
0.789496
0.782197
0.84643
0.829915
0.784537
0.77546
0.757654
0.849464
0.810573
0.793371
0.779604
0.803371
0.787421
0.821889
0.83736
0.770539
0.85329
0.854622
0.81129