/*--------------------------------*- C++ -*----------------------------------*\
  =========                 |
  \\      /  F ield         | OpenFOAM: The Open Source CFD Toolbox
   \\    /   O peration     | Website:  https://openfoam.org
    \\  /    A nd           | Version:  6
     \\/     M anipulation  |
\*---------------------------------------------------------------------------*/
FoamFile
{
    version     2.0;
    format      ascii;
    class       volVectorField;
    location    "0";
    object      U;
}
// * * * * * * * * * * * * * * * * * * * * * * * * * * * * * * * * * * * * * //

dimensions      [0 1 -1 0 0 0 0];

internalField   nonuniform List<vector> 
13046
(
(-0.991269 0.251089 0)
(-1.12891 -0.135094 -9.20061e-21)
(-0.687195 -0.114117 -2.3251e-20)
(-1.03644 0.144489 0)
(-0.724907 0.00810116 -2.08381e-20)
(-1.02195 -0.155767 0)
(-1.07139 0.164496 2.78228e-21)
(-1.03735 -0.197582 4.80011e-21)
(-0.681867 0.0284911 -2.31715e-20)
(-1.34177 0.507339 8.27517e-21)
(-1.38785 -0.470847 0)
(-0.098082 -0.0205053 1.58122e-20)
(-1.07571 0.28213 -8.97654e-21)
(-1.1568 -0.204268 -1.42174e-20)
(-0.581045 -0.0808266 1.31314e-20)
(-1.25083 0.558603 -1.12852e-20)
(-0.177354 -0.141732 3.78849e-20)
(-1.43723 -0.361109 5.95961e-21)
(-0.827448 0.120982 0)
(-0.892549 -0.152159 -1.07962e-20)
(-1.06735 0.0341382 2.8878e-20)
(-1.2691 0.548939 -4.66961e-21)
(-0.158989 -0.115136 -5.0556e-20)
(-1.42513 -0.382991 0)
(-0.976837 0.163892 1.21842e-20)
(-1.0579 -0.106681 -2.32507e-20)
(-0.753256 -0.0614049 0)
(-1.06515 0.318627 -1.63301e-20)
(-1.18243 -0.202451 4.15007e-21)
(-0.564148 -0.1123 -2.24661e-20)
(-0.975058 0.278978 0)
(-1.1588 -0.119371 0)
(-0.674608 -0.15476 2.36518e-20)
(-0.953152 0.133146 -1.41431e-20)
(-0.79162 -0.0586334 7.64103e-21)
(-1.03181 -0.0778168 4.05796e-20)
(-0.964301 0.102745 -2.1791e-20)
(-0.813422 -0.0252264 1.17095e-20)
(-1.00043 -0.0782919 -2.12819e-20)
(-0.846439 0.326975 1.62966e-20)
(-0.769682 -0.300797 4.36601e-21)
(-1.22755 -0.0277599 -1.34263e-20)
(-0.958801 0.0264029 9.74814e-21)
(-0.884056 0.0163126 1.73669e-20)
(-0.927844 -0.0453636 0)
(-0.992119 0.0314091 6.05133e-21)
(-0.855125 0.0455295 -2.64137e-20)
(-0.920074 -0.077026 -3.26156e-21)
(-1.01644 0.243482 0)
(-1.11632 -0.159477 -6.63689e-22)
(-0.656225 -0.0841215 7.89479e-23)
(-0.854144 -0.455202 2.5414e-20)
(-0.722326 0.405184 0)
(-1.3196 0.042095 -1.553e-20)
(-0.893771 -0.483481 -3.61054e-20)
(-1.336 0.0646847 -2.50003e-20)
(-0.674253 0.404357 2.60453e-20)
(-1.41239 -0.186973 -2.85372e-21)
(-1.08105 0.580085 0)
(-0.438466 -0.353341 2.06308e-20)
(-1.24402 0.259294 -8.13414e-21)
(-1.13692 -0.37518 8.51023e-21)
(-0.457758 0.113484 -5.53407e-20)
(-0.228229 -0.0370625 2.92279e-20)
(-1.3291 -0.399485 -4.76188e-21)
(-1.28766 0.442474 -1.32445e-20)
(-1.0416 0.591922 0)
(-1.41414 -0.149793 0)
(-0.48862 -0.404166 0)
(-1.01602 0.572555 -6.83853e-21)
(-1.39909 -0.137944 0)
(-0.515575 -0.404396 1.61834e-20)
(-1.43365 -0.193939 0)
(-1.10452 0.596923 2.73628e-22)
(-0.405166 -0.358066 6.74728e-23)
(-0.831022 0.156333 0)
(-0.86684 -0.17616 1.18799e-20)
(-1.09854 0.014944 -2.05982e-20)
(-0.334603 -0.28908 2.2958e-20)
(-1.15286 0.587958 -2.01171e-20)
(-1.43079 -0.246784 0)
(-1.00484 0.172585 6.29575e-21)
(-1.05559 -0.130458 0)
(-0.72345 -0.0373333 0)
(-0.19776 -0.0426117 -2.61307e-20)
(-1.34872 -0.412372 -3.5619e-21)
(-1.30191 0.461559 7.8576e-21)
(-1.36437 0.35211 -1.32374e-20)
(-0.244351 0.112145 0)
(-1.2486 -0.489736 -3.85138e-21)
(-0.266331 0.256249 0)
(-1.45833 0.277053 0)
(-1.18629 -0.601998 5.14153e-22)
(-1.17096 0.38426 0)
(-1.20453 0.38639 7.61102e-21)
(-1.25716 -0.293606 1.55137e-20)
(-1.26185 -0.32788 -7.29536e-21)
(-0.409343 -0.0860378 -1.20648e-20)
(-0.370731 -0.0527031 3.08061e-20)
(-0.269499 0.147115 -1.47201e-21)
(-1.37419 0.328334 1.29545e-20)
(-1.22252 -0.50881 0)
(-1.01195 0.0608395 -5.39212e-23)
(-0.818972 0.0449463 1.41579e-20)
(-0.941043 -0.10763 0)
(-0.65666 0.299473 0)
(-1.26707 0.0936544 -7.9264e-21)
(-0.931273 -0.394944 0)
(-0.753047 0.357375 2.85096e-20)
(-0.838447 -0.382961 0)
(-1.27211 0.0257169 -3.00983e-20)
(-1.33309 0.552532 0)
(-0.023845 -0.00517252 0)
(-1.36572 -0.535587 -3.81394e-21)
(-1.05462 0.255668 2.47671e-20)
(-1.13331 -0.185575 6.13569e-21)
(-0.613619 -0.0686052 2.35322e-20)
(-1.17268 0.453555 9.8455e-21)
(-1.15437 0.423543 -1.86009e-20)
(-1.32035 -0.285031 -1.2937e-20)
(-0.366527 -0.151721 1.37522e-20)
(-1.28863 -0.272814 7.66754e-21)
(-0.402443 -0.137615 -1.28529e-20)
(-1.33607 0.526951 -6.6122e-21)
(-1.40121 -0.478729 -6.25843e-21)
(-0.078267 -0.0274528 -7.04109e-21)
(-1.11461 0.366512 0)
(-1.2308 -0.246736 -1.0513e-20)
(-0.48088 -0.118916 2.77915e-20)
(-0.881011 0.337774 0)
(-0.732081 -0.28276 -2.12233e-20)
(-1.22718 -0.0541789 6.4863e-22)
(-0.301387 0.274098 0)
(-1.44116 0.25716 0)
(-1.16736 -0.586693 0)
(-1.26873 0.380724 0)
(-1.26608 -0.388432 -2.00998e-20)
(-0.31267 0.00982281 -3.31807e-20)
(-0.995139 0.301205 0)
(-1.18251 -0.135672 0)
(-0.642124 -0.170303 0)
(-1.17557 0.175957 0)
(-1.04114 -0.303747 0)
(-0.6015 0.124108 0)
(-0.7252 0.360514 0)
(-0.867453 -0.406481 0)
(-1.28495 0.0439345 1.62071e-20)
(-0.6757 0.274379 -3.06031e-21)
(-1.24443 0.0915844 -1.73638e-20)
(-0.934637 -0.369373 2.20366e-20)
(-1.24966 0.283149 1.8807e-20)
(-1.16629 -0.379253 0)
(-0.422186 0.0825988 7.20342e-20)
(-0.695102 0.172309 0)
(-1.16704 0.105522 1.92398e-20)
(-0.955923 -0.28353 -5.48637e-21)
(-0.979655 -0.498935 0)
(-1.34197 0.122461 1.7872e-20)
(-1.02065 -0.503254 0)
(-1.34441 0.154494 1.03442e-20)
(-0.580208 0.360843 0)
(-0.531919 0.329779 0)
(-1.21914 0.143971 2.39505e-21)
(-1.00372 -0.348472 1.12428e-20)
(-0.610255 0.191125 -1.34256e-20)
(-1.36995 0.484263 -8.37912e-21)
(-0.103408 0.0052975 0)
(-1.35672 -0.49515 -8.49937e-21)
(-1.33459 0.544545 -5.77329e-21)
(-0.0400437 -0.0154222 -3.19578e-21)
(-1.39233 -0.510405 0)
(-1.26725 0.404441 -1.09625e-20)
(-1.28857 -0.38598 0)
(-0.288479 -0.0160266 3.77269e-20)
(-0.893386 0.431456 0)
(-1.29955 -0.0645413 4.11118e-21)
(-0.68872 -0.363085 1.25081e-20)
(-1.21414 0.126053 1.57651e-20)
(-0.642339 0.212052 6.36799e-21)
(-0.976349 -0.336008 0)
(-0.128912 0.058161 0)
(-1.31472 -0.518901 0)
(-1.3974 0.430759 6.90269e-21)
(-0.874872 0.399338 0)
(-1.2767 -0.0497582 -9.08332e-21)
(-0.718987 -0.34189 3.24437e-21)
(-0.678922 0.199322 0)
(-1.18679 0.103475 0)
(-0.945158 -0.305597 0)
(-1.15082 0.160352 8.10118e-21)
(-1.02567 -0.281504 0)
(-0.627577 0.110601 0)
(-1.1588 -0.253642 -1.08785e-22)
(-0.534486 -0.0375747 -1.60117e-20)
(-1.10501 0.337041 2.58611e-20)
(-1.20693 -0.234376 0)
(-0.510393 -0.10113 -3.48144e-20)
(-1.34884 0.410936 -1.37505e-20)
(-0.200991 0.0435871 2.36535e-20)
(-1.30298 -0.46493 -1.80109e-20)
(-0.308936 0.225118 2.1539e-20)
(-1.40123 0.27872 7.93098e-21)
(-1.18179 -0.545564 1.98414e-20)
(-1.42774 0.318208 -2.1891e-20)
(-1.22555 -0.550276 0)
(-0.232684 0.18611 -2.11216e-20)
(-0.839245 -0.529392 -1.31811e-21)
(-1.37672 0.032513 6.86633e-21)
(-0.727235 0.494672 0)
(-1.1097 0.213563 -3.72192e-20)
(-1.13417 0.605353 1.04045e-20)
(-0.353887 -0.315637 -1.40568e-20)
(-1.44362 -0.237411 0)
(-1.24647 -0.556275 0)
(-1.43013 0.350812 -1.94882e-20)
(-0.197837 0.153605 0)
(-1.00152 0.0965181 -3.07876e-20)
(-0.793189 0.0147467 -1.14989e-20)
(-0.979321 -0.111535 3.12891e-20)
(-1.03914 0.328079 0)
(-1.1946 -0.180466 -5.87622e-22)
(-0.593869 -0.142788 -1.31517e-20)
(-0.318341 0.257264 1.64218e-20)
(-1.41819 0.263902 0)
(-1.16473 -0.568723 -2.28802e-20)
(-1.13076 0.233041 2.98646e-20)
(-1.13546 -0.264957 2.59587e-20)
(-0.545526 -0.00728926 0)
(-0.060187 0.0151209 0)
(-1.34422 -0.533951 6.68313e-21)
(-1.38941 0.503211 0)
(-0.688065 0.474016 0)
(-1.37664 0.0496194 0)
(-0.872303 -0.540159 0)
(-1.40266 0.308778 1.91871e-20)
(-1.21298 -0.532388 0)
(-0.260973 0.181017 -7.50182e-23)
(-1.28147 0.151517 6.87727e-21)
(-1.00858 -0.425646 -8.6762e-21)
(-0.564791 0.260256 0)
(-1.10158 0.389585 0)
(-1.24797 -0.232478 9.82432e-21)
(-0.48583 -0.150891 2.18169e-20)
(-1.09447 -0.599042 -2.98425e-20)
(-1.42823 0.189818 -1.38974e-20)
(-0.416898 0.361404 1.28103e-20)
(-1.3723 0.158397 0)
(-1.03773 -0.534981 -1.21039e-20)
(-0.505176 0.350463 -4.60769e-22)
(-0.0504826 0.0280459 -2.05762e-20)
(-1.32126 -0.552501 0)
(-1.41038 0.492132 -6.20886e-21)
(-0.802968 0.401805 1.50473e-20)
(-0.784681 -0.392416 -1.52277e-20)
(-1.29253 -0.00899615 1.3065e-21)
(-1.23932 0.597133 5.99486e-21)
(-0.0197341 -0.031958 -2.98609e-20)
(-1.42668 -0.475273 0)
(-0.795228 0.0925009 -6.65818e-21)
(-1.05895 0.0588822 -2.34861e-20)
(-0.92484 -0.155034 3.18667e-20)
(-1.24954 0.193598 8.39685e-21)
(-1.25574 0.161451 1.41201e-22)
(-1.05823 -0.387475 -2.04698e-20)
(-1.01917 -0.397654 0)
(-0.568855 0.225371 1.2208e-20)
(-0.526081 0.18485 -1.27336e-20)
(-0.291721 -0.259723 -3.00467e-20)
(-1.17372 0.584988 1.07275e-20)
(-1.44316 -0.264561 -1.46629e-20)
(-1.06915 0.38813 0)
(-1.25021 -0.199027 0)
(-0.528088 -0.181724 -2.87737e-20)
(-1.38153 0.186773 -3.67666e-21)
(-1.07109 -0.550135 0)
(-0.463922 0.330465 0)
(-1.22113 0.41974 -9.31857e-21)
(-1.29578 -0.33427 0)
(-0.328665 -0.077167 1.37276e-20)
(-0.932121 0.0438902 6.73124e-21)
(-0.955698 -0.0293459 9.55112e-21)
(-0.883621 -0.0136797 -3.36878e-21)
(-1.31457 0.17032 -1.31619e-20)
(-1.03888 -0.466213 0)
(-0.521304 0.279439 -2.14116e-20)
(-1.05879 0.415674 0)
(-1.27375 -0.192855 1.20265e-20)
(-0.52023 -0.214546 -1.8463e-20)
(-1.11938 0.268382 0)
(-1.14263 0.285724 2.98477e-21)
(-0.798474 0.425376 5.44706e-21)
(-0.779887 -0.419868 4.44329e-20)
(-1.31205 -0.00606631 -3.10255e-20)
(-1.31714 0.197632 -1.35794e-20)
(-1.07103 -0.467303 1.75671e-20)
(-0.478173 0.247643 1.95273e-20)
(-1.24686 0.421725 0)
(-0.297828 -0.0526427 -4.83993e-20)
(-1.30243 -0.358536 -9.62083e-21)
(-0.770369 0.325627 -3.92728e-20)
(-0.833582 -0.3584 0)
(-1.25039 0.0261594 1.02129e-20)
(-0.584824 0.398215 -2.45752e-20)
(-1.36382 0.115265 -1.01138e-20)
(-0.967946 -0.533067 0)
(-1.11216 0.474136 -9.67215e-21)
(-1.33053 -0.226802 -1.02381e-20)
(-0.425927 -0.228891 8.49618e-21)
(-0.75286 0.430975 1.98894e-21)
(-0.826034 -0.457881 0)
(-1.32915 0.0271667 2.15635e-20)
(-1.13508 0.491707 0)
(-1.16002 0.485535 0)
(-1.34872 -0.243923 -6.56273e-21)
(-0.395884 -0.224161 -2.22009e-20)
(-1.34497 -0.27289 9.26379e-21)
(-0.3659 -0.187561 2.35174e-20)
(-0.147657 0.0361584 -1.82967e-20)
(-1.32347 -0.492446 0)
(-1.37464 0.440193 -9.75106e-21)
(-1.12502 0.421366 1.1055e-20)
(-1.28065 -0.249807 0)
(-0.43812 -0.161895 7.54529e-21)
(-1.29159 -0.555483 9.57024e-21)
(0.00120562 -0.00254954 2.60642e-20)
(-1.25475 0.579722 1.25559e-20)
(-1.13323 0.0741844 -1.05152e-20)
(-0.744025 0.15631 0)
(-0.927412 -0.235881 0)
(-1.21073 0.248109 1.93031e-20)
(-1.1223 -0.343649 0)
(-0.488297 0.0908062 4.21773e-20)
(-0.233101 0.0252394 -1.50929e-20)
(-1.32256 0.402798 2.82714e-20)
(-1.29272 -0.437644 1.37438e-20)
(-0.899918 -0.509029 0)
(-1.3553 0.0679403 9.21825e-21)
(-0.657933 0.431561 -2.94984e-20)
(-1.12041 -0.59105 -3.56745e-20)
(-1.42546 0.216721 -8.60528e-21)
(-0.377687 0.32225 0)
(-1.09979 -0.239646 -2.65988e-20)
(-0.595164 0.00846884 0)
(-1.18921 0.309082 2.15796e-20)
(-1.17908 -0.314784 9.16148e-21)
(-0.453524 -0.000265561 1.2887e-20)
(-1.07965 -0.258244 1.56685e-20)
(-0.597281 0.0397582 2.08742e-22)
(-1.23897 0.545885 -6.99548e-22)
(-0.20954 -0.158262 1.78389e-20)
(-1.42381 -0.340008 -8.76136e-21)
(-0.814615 -0.557725 0)
(-1.39682 0.0205106 2.1497e-21)
(-0.750543 0.529544 0)
(-1.21122 0.321225 -2.2015e-20)
(-1.20021 -0.333078 -1.11723e-20)
(-0.419448 0.012135 -1.58584e-20)
(-1.19898 0.171416 0)
(-1.02693 -0.333245 -1.633e-20)
(-0.593006 0.154996 0)
(-1.28212 0.0756432 0)
(-0.903249 -0.417 0)
(-0.68468 0.330724 0)
(-1.02027 0.2095 -8.74566e-21)
(-1.08656 -0.15225 -1.47682e-20)
(-0.682632 -0.0572104 1.18726e-23)
(-0.619931 0.422012 3.05351e-20)
(-1.36615 0.0935957 2.45437e-20)
(-0.940891 -0.529988 1.7858e-20)
(-1.37835 0.377552 -1.18107e-20)
(-1.27364 -0.49556 1.52852e-20)
(-0.204992 0.0881987 -2.22895e-20)
(-1.13326 -0.56519 2.4168e-20)
(-1.40974 0.230093 8.7232e-21)
(-0.366366 0.290022 1.63783e-20)
(-0.956208 0.559166 -2.14115e-20)
(-0.593832 -0.435527 2.40969e-20)
(-1.38794 -0.0980491 -1.39427e-20)
(-1.14977 0.544437 5.82302e-21)
(-1.12984 0.53282 -5.3457e-21)
(-1.38088 -0.231739 -2.06376e-21)
(-1.39814 -0.244027 0)
(-0.355676 -0.260144 -8.09711e-21)
(-0.387563 -0.269192 -7.15779e-21)
(-0.00455422 -0.00926962 -3.52596e-20)
(-1.33581 -0.530723 -1.0558e-20)
(-1.25707 0.576413 3.8687e-21)
(-1.24428 0.592975 -3.99518e-22)
(-0.0337288 -0.0460748 4.13664e-20)
(-1.44387 -0.460409 0)
(-1.27186 0.206889 -3.08851e-20)
(-1.08636 -0.404401 -4.53846e-21)
(-0.498958 0.187558 0)
(-0.176517 0.0239322 -4.55256e-20)
(-1.35094 0.429969 9.70717e-21)
(-1.32353 -0.464312 0)
(-1.04259 0.524956 2.95572e-20)
(-1.07245 0.521947 -2.21695e-20)
(-1.36205 -0.167708 1.08072e-20)
(-1.36383 -0.188579 4.16513e-21)
(-0.503557 -0.334484 -1.39391e-20)
(-0.464676 -0.305529 -7.05029e-21)
(-0.148001 0.151638 0)
(-1.23675 -0.587685 0)
(-1.47191 0.351752 3.37595e-21)
(-1.1817 0.609899 -6.98139e-21)
(-0.0107183 -0.0276424 0)
(-1.41998 -0.47067 0)
(-1.0364 -0.00620681 -7.16952e-23)
(-0.876528 0.110907 1.45009e-20)
(-0.862157 -0.105084 7.22039e-21)
(-1.28249 0.574673 -1.17874e-20)
(-1.38132 -0.521624 5.57965e-21)
(-0.0144176 -0.0136931 1.93393e-21)
(-0.942871 0.43016 0)
(-1.29281 -0.0999989 -1.89208e-20)
(-0.639152 -0.325563 -2.95389e-23)
(-1.40648 0.415839 1.96759e-22)
(-1.29805 -0.528723 2.12891e-20)
(-0.149343 0.0789598 3.0894e-23)
(-1.16051 -0.590239 2.9947e-22)
(0.0054513 0.00386965 -1.49866e-20)
(-1.26577 0.513177 -4.49553e-21)
(-0.829835 0.288286 -1.41277e-20)
(-0.80086 -0.27655 1.34367e-20)
(-1.20095 -0.0108595 3.30831e-20)
(-1.07863 0.0858177 0)
(-0.953008 -0.183462 -3.50915e-20)
(-0.756828 0.0948662 1.92272e-20)
(-1.31372 0.548675 0)
(-0.0798309 -0.0462274 2.09657e-20)
(-1.41747 -0.463032 -5.1347e-23)
(-1.10357 0.0947606 0)
(-0.952535 -0.209178 -1.22214e-20)
(-0.731871 0.118719 -2.70924e-20)
(-1.0091 -0.00209224 1.42719e-20)
(-0.884443 0.0828833 -7.75819e-21)
(-0.877454 -0.0798901 3.78366e-21)
(-0.657144 0.493553 1.45265e-20)
(-1.39959 0.064393 -8.56683e-21)
(-0.902611 -0.579722 1.98858e-20)
(-1.11774 0.0265273 0)
(-0.873419 -0.200913 0)
(-0.802096 0.181563 2.20733e-21)
(-1.1385 0.0585418 1.66505e-20)
(-0.903455 -0.226502 9.67345e-21)
(-0.773362 0.178265 3.16478e-22)
(-0.923606 0.552269 3.25526e-20)
(-1.3836 -0.0799353 -1.39311e-20)
(-0.634564 -0.459394 -2.38701e-20)
(-0.1394 -0.058026 3.18704e-20)
(-0.131196 -0.0387653 -3.24303e-20)
(-1.39989 -0.429139 5.84101e-21)
(-1.38447 -0.446992 4.17304e-21)
(-1.30654 0.519023 0)
(-1.32451 0.507302 -8.47356e-21)
(-1.40193 0.379711 1.45959e-20)
(-1.27733 -0.513206 -1.3411e-20)
(-0.183259 0.104069 2.75973e-20)
(-0.566083 -0.456135 -1.55674e-20)
(-0.973686 0.592857 6.58931e-21)
(-1.40921 -0.106131 1.77564e-20)
(-0.836222 0.385017 -1.37384e-20)
(-0.758251 -0.357217 -1.40304e-20)
(-1.2751 -0.0272221 1.00772e-20)
(-1.39825 0.137273 0)
(-1.01746 -0.574292 1.25249e-20)
(-0.523501 0.401799 4.76952e-22)
(-1.19655 -0.605577 6.20083e-21)
(-0.0135568 0.0303426 -1.3976e-20)
(-1.41782 0.473562 -4.4389e-21)
(-0.237261 0.222922 0)
(-1.45434 0.301384 0)
(-1.20378 -0.59379 9.37654e-21)
(-1.3538 0.526437 6.9157e-21)
(-0.0546359 -0.00598612 0)
(-1.38055 -0.513397 -6.55817e-21)
(0.00782151 0.00134147 -5.53353e-32)
(-1.11793 -0.580978 -3.79477e-21)
(-1.19786 0.513353 4.23597e-21)
(-1.19418 -0.51373 4.22991e-21)
(0.00774701 -0.000999282 5.52048e-32)
(-1.12355 0.581233 -3.77851e-21)
(-1.14185 -0.446673 -2.35579e-20)
(-1.31087 0.253363 0)
(-0.414862 0.17513 -4.22666e-20)
(-1.23351 -0.597713 -3.63325e-21)
(-0.0798759 0.100045 -1.44022e-20)
(-1.48904 0.39906 0)
(-1.29484 0.370454 -1.37059e-20)
(-1.25561 -0.416796 1.24451e-20)
(-0.299222 0.0412725 2.20963e-20)
(-1.23077 0.596133 2.2596e-20)
(-0.13364 -0.148925 1.26768e-20)
(-1.48607 -0.359187 0)
(-1.07878 0.224209 6.571e-21)
(-0.621721 -0.0149651 -7.945e-21)
(-1.10075 -0.212097 6.42821e-21)
(-1.22852 -0.590483 4.75682e-21)
(-0.175704 0.175389 1.53762e-20)
(-1.46599 0.336171 3.89834e-21)
(-1.39312 0.12314 -9.89366e-21)
(-0.555376 0.421318 -8.41897e-21)
(-0.992301 -0.568713 0)
(-1.09019 -0.53478 0)
(-1.37077 0.205057 0)
(-0.436349 0.296934 0)
(0.00407444 0.000134496 0)
(-0.736674 -0.360672 -1.84116e-21)
(-0.737271 0.359983 1.85011e-21)
(-1.26574 -0.579169 5.32066e-21)
(-7.16164e-05 0.00301744 -1.81711e-20)
(-1.29578 0.556873 -5.65805e-21)
(-1.05805 0.201035 -1.71202e-20)
(-0.657925 -0.0156609 1.85683e-20)
(-1.07767 -0.190319 7.47156e-21)
(-1.2683 -0.559729 1.83391e-20)
(-1.45009 0.391736 -7.30775e-21)
(-0.129157 0.111253 0)
(-0.130536 0.150617 -1.60348e-20)
(-1.49241 0.35694 0)
(-1.22338 -0.604047 -1.38502e-20)
(-1.3277 0.45672 -9.01366e-21)
(-0.175388 -0.013152 4.87677e-20)
(-1.34436 -0.438388 0)
(-0.266127 -0.19837 -3.65273e-20)
(-1.41493 -0.30178 9.61676e-21)
(-1.205 0.549813 0)
(-0.894249 0.578752 -4.11685e-20)
(-1.40069 -0.0638887 1.77259e-20)
(-0.668187 -0.502066 -7.56022e-21)
(-1.38775 -0.206915 3.03422e-21)
(-1.09574 0.553305 1.2712e-20)
(-0.428653 -0.314567 -2.20504e-20)
(-0.226794 -0.217928 -3.26154e-20)
(-1.20245 0.589552 0)
(-1.46089 -0.303494 0)
(-0.99447 0.395745 -6.39521e-21)
(-1.02121 0.419355 0)
(-1.2581 -0.139102 -1.99455e-20)
(-1.27897 -0.157277 2.13694e-20)
(-0.600268 -0.246845 3.72715e-21)
(-0.561365 -0.251872 -3.96729e-21)
(-0.959397 0.400024 6.13212e-21)
(-1.26545 -0.111936 0)
(-0.636808 -0.281125 7.06674e-21)
(-1.02065 0.550202 0)
(-1.37857 -0.152873 -1.74608e-20)
(-0.519078 -0.372345 5.0167e-21)
(-1.12155 -0.543803 -1.20712e-20)
(-1.3897 0.224607 9.22664e-21)
(-0.388286 0.277031 -3.36817e-20)
(-1.25984 -0.54643 0)
(-1.41756 0.371385 2.14469e-20)
(-0.179472 0.127713 0)
(-0.341599 0.217089 -1.09461e-20)
(-1.37758 0.266664 -5.84724e-21)
(-1.16717 -0.520783 -7.79726e-21)
(-1.25235 -0.508583 -5.57631e-22)
(0.0057351 -0.00354286 9.65609e-21)
(-1.15502 0.589138 0)
(-0.901376 0.288863 1.25352e-20)
(-0.925951 0.270648 0)
(-0.736805 -0.221653 0)
(-1.18228 -0.063731 4.04994e-20)
(-0.727032 -0.186181 0)
(-1.16005 -0.0825002 -2.58671e-20)
(-0.978092 0.513329 0)
(-0.946004 0.491181 0)
(-0.619657 -0.373829 -5.18891e-23)
(-1.3528 -0.121197 1.11813e-20)
(-0.579914 -0.368956 3.63457e-20)
(-1.336 -0.101651 -2.3731e-20)
(-1.11334 -0.604789 0)
(0.00392391 0.00870661 2.03762e-20)
(-1.32297 0.494542 0)
(-1.27243 -0.54905 -1.10981e-20)
(-1.43478 0.390315 2.35157e-21)
(-0.142008 0.100922 9.76014e-21)
(-0.825379 0.451327 -2.37099e-20)
(-0.754779 -0.433763 -1.60205e-20)
(-1.32755 -0.0211024 3.20581e-20)
(-1.07065 -0.583395 2.66469e-20)
(-1.41142 0.175222 2.33705e-20)
(-0.450237 0.368087 0)
(-0.292164 -0.223316 3.9075e-20)
(-1.41302 -0.285789 -1.02246e-20)
(-1.18768 0.552444 1.34838e-20)
(-1.31547 -0.564519 0)
(-1.37551 0.52539 0)
(-0.0193884 0.0120014 0)
(-1.30677 -0.567076 0)
(-1.40201 0.500868 5.96054e-21)
(-0.0323913 0.0272248 3.4926e-21)
(-1.08317 0.495019 -1.22125e-20)
(-1.33936 -0.205622 6.38518e-21)
(-0.458835 -0.266959 1.0433e-20)
(-0.759058 0.296968 -3.73871e-21)
(-0.856022 -0.338677 0)
(-1.22981 0.0399925 -1.56807e-22)
(-1.3344 0.475888 1.05011e-20)
(-0.150149 -0.0176369 2.83368e-20)
(-1.36439 -0.447385 -4.85944e-21)
(-1.1431 -0.47808 0)
(-1.33645 0.254535 0)
(-0.394537 0.204571 3.63897e-20)
(-0.262665 -0.0707306 9.26048e-21)
(-1.33114 -0.368338 1.64019e-20)
(-1.25591 0.455614 2.92531e-20)
(-0.918625 0.493657 0)
(-0.649884 -0.399364 -2.40293e-20)
(-1.33945 -0.0849519 1.21615e-20)
(-1.2838 0.127061 2.33486e-22)
(-0.974938 -0.423269 1.27241e-20)
(-0.608156 0.288496 0)
(-0.822658 0.344901 3.08581e-22)
(-0.783294 -0.333251 -4.60096e-21)
(-1.24892 -0.0153449 -1.32003e-20)
(-0.133403 0.0113859 2.29195e-23)
(-1.34939 -0.481523 1.14403e-20)
(-1.36204 0.46487 1.12707e-20)
(-1.20307 0.452871 -5.49113e-21)
(-1.32351 -0.315024 -4.93452e-21)
(-0.330172 -0.120192 0)
(-0.854367 0.268497 -1.3589e-20)
(-0.788435 -0.241215 2.89675e-20)
(-1.17859 -0.0255002 -2.18733e-20)
(-1.20897 0.60044 9.06384e-21)
(-0.192875 -0.203037 1.44229e-20)
(-1.47792 -0.319349 -6.56268e-21)
(-0.973994 0.335178 -7.72143e-21)
(-1.20657 -0.126115 0)
(-0.645755 -0.206855 0)
(-1.14858 0.137728 -2.97985e-20)
(-0.991311 -0.271136 7.56891e-21)
(-0.664084 0.132136 0)
(-1.09571 -0.494633 0)
(-1.34481 0.206454 1.94396e-20)
(-0.444083 0.264464 0)
(-1.24334 0.594849 -4.67118e-21)
(-0.0643664 -0.0802618 -4.43815e-21)
(-1.4765 -0.424845 6.27136e-21)
(-1.2279 0.601947 1.30026e-20)
(-0.0801407 -0.103067 0)
(-1.48812 -0.398729 -6.52965e-21)
(-0.260593 -0.102943 8.427e-21)
(-1.352 -0.352046 -9.42559e-21)
(-1.24382 0.476661 -2.69653e-20)
(-1.31355 0.109532 -8.93969e-21)
(-0.962189 -0.465389 -1.29605e-20)
(-0.612827 0.33895 0)
(-0.0413981 -0.0633649 4.06473e-21)
(-1.47304 -0.441979 -5.8629e-21)
(-1.2117 0.603665 0)
(-0.26431 0.0509111 0)
(-1.26765 -0.438422 -1.00797e-20)
(-1.31895 0.378221 -3.25592e-21)
(0.00759431 -0.00143584 1.6248e-20)
(-0.974953 -0.568455 4.60904e-21)
(-1.11142 0.455351 0)
(-0.978086 0.5688 -4.58438e-21)
(-1.10922 -0.455188 0)
(0.00770949 0.00146183 1.62547e-20)
(-0.232329 -0.195158 -4.2416e-23)
(-1.4387 -0.315927 0)
(-1.21199 0.570207 0)
(-0.0862129 0.0233677 0)
(-1.3422 -0.519663 0)
(-1.39294 0.47755 1.43565e-20)
(-1.28674 0.511596 -9.48519e-21)
(-1.27923 0.496392 7.6721e-21)
(-0.169235 -0.0863279 -1.60112e-20)
(-1.4009 -0.392289 -1.95587e-21)
(-0.194084 -0.0837298 -2.60589e-20)
(-1.37795 -0.386974 3.70755e-21)
(-1.33608 0.354565 6.24898e-21)
(-1.24699 -0.46019 6.81411e-21)
(-0.271609 0.086664 0)
(-0.492048 0.414806 0)
(-1.03463 -0.603697 0)
(-1.42104 0.148001 0)
(-0.947435 0.216295 0)
(-0.738864 -0.12752 -4.02737e-20)
(-1.11209 -0.0905585 1.44962e-20)
(-1.34923 0.301113 1.75923e-20)
(-1.19651 -0.485128 2.61821e-21)
(-0.320651 0.157096 3.23255e-20)
(-0.349385 0.188123 2.09593e-20)
(-1.354 0.280988 -2.44935e-20)
(-1.1731 -0.495184 -3.63055e-21)
(-1.17917 0.605275 1.0609e-20)
(-0.260946 -0.259928 1.55759e-20)
(-1.46571 -0.273124 1.52968e-20)
(-0.981579 0.536283 0)
(-1.37135 -0.122778 5.18945e-21)
(-0.566154 -0.390161 -3.56262e-20)
(-0.962401 0.453656 0)
(-1.3104 -0.110603 2.48512e-20)
(-0.613157 -0.336773 8.55458e-24)
(-1.27991 0.293246 -2.38953e-20)
(-1.1793 -0.414891 3.19962e-21)
(-0.387661 0.104171 -1.83572e-20)
(-1.30233 0.286291 0)
(-1.17261 -0.437212 3.05618e-21)
(-0.380358 0.13252 1.68791e-20)
(-0.848322 0.231866 0)
(-0.813903 -0.21579 -4.56585e-20)
(-1.14951 -0.0144225 1.25155e-20)
(-1.01764 0.444384 0)
(-1.29764 -0.156955 0)
(-0.551015 -0.279936 5.381e-21)
(-0.195305 0.207676 -3.32532e-20)
(-1.20398 -0.606311 -2.61799e-20)
(-1.47904 0.316277 0)
(-1.43499 0.47738 7.43346e-21)
(-0.0332083 0.0407202 0)
(-1.25809 -0.589522 4.58437e-21)
(-1.44379 0.459784 -3.59692e-22)
(-0.0263684 0.0430267 0)
(-1.22532 -0.597685 -1.29482e-20)
(-0.897648 0.374239 9.3544e-21)
(-0.70571 -0.298436 -5.08904e-21)
(-1.25001 -0.0697265 -3.67118e-22)
(-1.27403 -0.576488 4.69102e-22)
(-0.00792053 0.0113995 2.77466e-20)
(-1.36686 0.525157 0)
(-1.217 0.479687 2.35211e-20)
(-0.295196 -0.1301 1.77003e-20)
(-1.35008 -0.323675 0)
(-0.00569445 0.0184379 -4.11282e-21)
(-1.20886 -0.603705 -6.33102e-21)
(-1.38019 0.495855 0)
(-1.03969 0.11902 2.1365e-20)
(-0.753071 0.0341984 2.44103e-20)
(-0.992212 -0.149453 1.22086e-22)
(-1.13954 0.317633 -3.72232e-21)
(-1.18662 -0.268206 -3.3531e-21)
(-0.498477 -0.0489154 -1.88951e-20)
(-0.925055 -0.460862 2.96589e-20)
(-1.3121 0.0894144 2.11834e-20)
(-0.651845 0.358066 0)
(-0.0996012 0.110057 0)
(-1.24328 -0.589746 -4.68647e-21)
(-1.47961 0.392672 0)
(-1.12416 -0.496582 0)
(-1.34815 0.23856 0)
(-0.408447 0.232833 0)
(-0.164261 -0.164263 0)
(-1.23228 0.586187 -8.21905e-21)
(-1.4715 -0.344991 6.44923e-21)
(-1.1661 0.3326 0)
(-1.19749 -0.298079 1.69003e-21)
(-0.461568 -0.0345688 1.8483e-20)
(-0.94551 0.192877 0)
(-0.759364 -0.108031 3.45259e-20)
(-1.08841 -0.0856438 0)
(-1.27604 -0.56869 -1.73259e-20)
(-1.44921 0.419154 6.95241e-21)
(-0.102117 0.0901237 0)
(-0.243899 -0.00748083 -1.93828e-20)
(-1.30412 -0.416206 6.31976e-22)
(-1.29658 0.421779 4.51547e-22)
(-1.29479 0.564485 0)
(-1.29151 0.571501 8.06001e-21)
(-0.0606922 -0.0504456 -1.03101e-20)
(-0.0449832 -0.0390331 -1.25799e-20)
(-1.43437 -0.458317 -4.12685e-21)
(-1.42751 -0.475849 3.39456e-21)
(-1.22098 0.204475 0)
(-1.06349 -0.360458 4.77285e-20)
(-0.540594 0.148247 1.99464e-20)
(-1.11544 -0.428607 3.3122e-20)
(-1.29411 0.234617 0)
(-0.442534 0.18262 -2.21465e-20)
(-1.10049 0.158674 -1.7193e-20)
(-1.02291 -0.224582 1.26237e-20)
(-0.664488 0.0620537 3.02269e-20)
(-1.26575 -0.587485 1.06257e-20)
(-1.45455 0.449342 8.15719e-21)
(-1.24129 -0.597919 -4.97362e-21)
(-0.0532495 0.0589674 0)
(-1.47411 0.427988 -7.8662e-21)
(-0.0590199 0.0732555 0)
(-1.21887 0.365636 0)
(-1.23775 -0.345364 0)
(-0.379738 -0.018058 2.07667e-20)
(-1.43531 0.437689 1.20165e-20)
(-1.44005 0.451656 -2.23029e-20)
(-1.29834 -0.557755 6.93947e-21)
(-1.29497 -0.566865 -1.78298e-20)
(-0.0835728 0.0638922 2.84492e-20)
(-0.06274 0.0527854 -4.03456e-23)
(-1.29546 0.217037 0)
(-1.08524 -0.443329 -3.1353e-20)
(-0.478088 0.217204 2.8683e-20)
(-1.15869 0.237846 1.58873e-20)
(-1.12764 -0.291297 -2.06951e-20)
(-0.521858 0.0296883 0)
(-1.24573 0.58992 0)
(-0.109887 -0.119078 0)
(-1.47738 -0.387423 6.27919e-21)
(-1.20567 0.226346 1.15778e-20)
(-1.09068 -0.34118 -1.32074e-20)
(-0.522516 0.112002 -3.32157e-20)
(-1.11922 0.186778 6.96263e-21)
(-1.05125 -0.250555 -1.4837e-20)
(-0.625447 0.05911 1.78959e-20)
(-1.2672 0.577246 0)
(-0.0719588 -0.0708653 0)
(-1.45899 -0.437107 -8.82829e-21)
(-1.15378 0.359246 0)
(-1.23178 -0.279625 3.50193e-21)
(-0.439867 -0.0763088 -2.05586e-20)
(-0.969131 -0.592638 0)
(-1.40929 0.106791 0)
(-0.578419 0.461204 -1.08228e-21)
(-0.905944 0.517967 -1.05116e-21)
(-1.35913 -0.0728819 0)
(-0.65557 -0.434669 3.70733e-20)
(-1.13784 -0.608621 1.3871e-20)
(-0.335359 0.317747 0)
(-1.44722 0.232228 0)
(0.00635452 1.82402e-05 -3.9072e-20)
(-0.949933 -0.465817 2.57588e-21)
(-0.951566 0.465703 -2.58875e-21)
(-1.18784 0.274642 0)
(-1.14222 -0.312776 1.27257e-20)
(-0.48969 0.0383655 -1.70214e-20)
(-1.27447 0.554729 1.54324e-20)
(-0.129872 -0.100407 5.38108e-20)
(-1.44126 -0.393283 0)
(-0.740746 -0.533272 -9.65672e-21)
(-1.40043 -0.0217145 -1.16848e-20)
(-0.819926 0.558034 -9.51805e-21)
(-1.10063 0.604667 0)
(0.00416206 -0.00777292 -1.45814e-20)
(-1.31994 -0.489332 0)
(-0.721616 0.229789 1.87345e-20)
(-0.71658 0.270909 -1.92053e-20)
(-0.904483 -0.305064 0)
(-1.19368 0.0716079 1.41171e-20)
(-0.897865 -0.341375 -2.83497e-20)
(-1.22484 0.0635257 -1.11424e-20)
(-1.11288 0.131592 1.61318e-20)
(-0.989918 -0.227545 1.71436e-20)
(-0.690052 0.0979551 0)
(-0.792995 0.272579 1.62874e-20)
(-0.765785 0.240732 0)
(-0.837556 -0.290771 -1.60769e-20)
(-1.20083 0.0161423 1.24624e-20)
(-0.866528 -0.277682 1.62023e-20)
(-1.18379 0.0388175 2.02847e-22)
(-1.16783 0.26406 1.01327e-21)
(-1.0959 -0.292083 -9.13797e-21)
(-0.555717 0.0582391 -2.22058e-20)
(-1.17426 0.221544 -2.71697e-20)
(-1.08223 -0.308538 2.44559e-22)
(-0.558031 0.0892506 0)
(-0.0397299 0.0614547 0)
(-1.20526 -0.609884 0)
(-1.47328 0.434141 7.77951e-21)
(-0.936001 0.372001 -8.61592e-21)
(-1.24509 -0.0927024 0)
(-0.669628 -0.272676 9.54026e-21)
(-1.40874 0.448656 -2.29546e-20)
(-1.31844 -0.534846 8.39763e-21)
(-0.0960027 0.0485214 -1.62676e-20)
(-1.27438 0.32509 0)
(-1.2936 0.339725 1.31744e-20)
(-1.21035 -0.402917 -3.98905e-21)
(-1.22913 -0.417952 1.24241e-20)
(-0.355318 0.0690396 -2.29267e-20)
(-0.324334 0.06921 -2.13378e-20)
(-0.946469 0.337288 0)
(-1.21506 -0.103128 0)
(-0.675674 -0.232795 4.46673e-21)
(-1.03185 0.49526 1.00199e-20)
(-1.33829 -0.160963 0)
(-0.52619 -0.315683 1.20091e-20)
(-1.23069 0.313292 -6.92671e-21)
(-1.18687 -0.363851 0)
(-0.408026 0.046034 0)
(-0.909359 0.132751 1.74175e-20)
(-1.04667 -0.0408646 -7.98051e-21)
(-0.821709 -0.0947631 9.12029e-21)
(-1.32308 0.3095 0)
(-1.19985 -0.455726 0)
(-0.33455 0.128902 -3.43551e-20)
(-0.913369 0.229795 0)
(-0.758398 -0.165067 5.09665e-21)
(-1.13064 -0.0641543 0)
(-1.26929 0.24395 -1.52612e-20)
(-1.11379 -0.409172 -1.71376e-20)
(-0.465639 0.153918 -2.87176e-21)
(-1.0442 0.463356 1.00223e-20)
(-1.31493 -0.176247 0)
(-0.518046 -0.277428 2.47951e-20)
(-0.906612 0.168117 -1.72721e-20)
(-0.877977 0.176972 -7.81934e-21)
(-1.07633 -0.0497542 7.84422e-21)
(-0.802486 -0.120327 -1.80812e-20)
(-1.09639 -0.0306715 0)
(-0.816106 -0.150116 -3.20922e-20)
(-0.816532 0.209066 -8.0612e-21)
(-0.843394 -0.224398 2.12091e-20)
(-0.783029 0.220615 5.20371e-21)
(-1.14277 0.0103331 -1.73187e-20)
(-0.872374 -0.257749 -1.00171e-20)
(-1.16471 0.0352283 3.87884e-22)
(-1.00124 0.366151 9.16157e-21)
(-1.03873 0.361843 0)
(-1.2307 -0.148609 1.50882e-20)
(-1.22752 -0.175361 -1.17984e-20)
(-0.602987 -0.210267 -2.15634e-20)
(-0.570557 -0.178492 3.59061e-20)
(-0.264279 -0.166523 0)
(-1.39169 -0.31759 -5.6792e-21)
(-1.21605 0.521147 -1.39755e-20)
(-0.61862 0.459121 1.31077e-20)
(-1.39205 0.0886133 1.35271e-20)
(-0.940059 -0.569402 -3.11261e-20)
(-0.230359 -0.142945 -1.82495e-20)
(-0.225579 -0.113075 1.46222e-20)
(-1.39637 -0.344525 4.91548e-21)
(-1.37693 -0.361561 8.62213e-21)
(-1.23779 0.525514 3.54809e-20)
(-1.25479 0.501998 -1.84127e-20)
(-0.753784 0.469619 1.75662e-20)
(-0.817547 -0.488655 -1.52144e-20)
(-1.35255 0.0186621 3.15918e-21)
(-0.931108 0.0735002 2.88423e-20)
(-0.855457 -0.0349623 0)
(-0.985333 -0.0388547 -2.82291e-20)
(-1.31834 0.334105 -6.20693e-21)
(-1.22493 -0.447513 -1.40259e-20)
(-0.310469 0.0980523 0)
(-0.910904 0.315655 0)
(-0.712294 -0.245842 -4.25326e-21)
(-1.20508 -0.072362 -1.32078e-20)
(-1.06634 0.464276 0)
(-1.31536 -0.192372 0)
(-0.491401 -0.256435 -2.31187e-20)
(-1.17309 0.531665 -1.53708e-20)
(-1.18016 0.506458 0)
(-1.39004 -0.276334 3.09419e-21)
(-0.326021 -0.219576 -2.23037e-20)
(-1.36949 -0.284067 -8.47327e-21)
(-0.328221 -0.191014 3.01687e-20)
(-1.24579 0.360743 1.31031e-20)
(-1.24215 -0.367528 1.29419e-20)
(-0.348685 0.00782487 1.2484e-20)
(-1.1785 0.599676 8.72292e-21)
(-1.36344 -0.496146 0)
(-0.00276701 -0.0143521 -5.97409e-21)
(-0.773061 -0.525052 1.04868e-20)
(-1.38736 -0.00602098 9.56252e-21)
(-0.792906 0.529463 1.03546e-20)
(-0.856585 0.551813 1.06517e-20)
(-0.848935 0.524057 1.16502e-20)
(-0.707206 -0.501762 -1.14783e-20)
(-1.38962 -0.0409838 0)