/*--------------------------------*- C++ -*----------------------------------*\
  =========                 |
  \\      /  F ield         | OpenFOAM: The Open Source CFD Toolbox
   \\    /   O peration     | Website:  https://openfoam.org
    \\  /    A nd           | Version:  6
     \\/     M anipulation  |
\*---------------------------------------------------------------------------*/
FoamFile
{
    version     2.0;
    format      ascii;
    class       volVectorField;
    location    "0";
    object      U;
}
// * * * * * * * * * * * * * * * * * * * * * * * * * * * * * * * * * * * * * //

dimensions      [0 1 -1 0 0 0 0];

internalField   nonuniform List<vector> 
40000
(
(-2.53661e-07 2.53538e-07 0)
(8.90057e-07 -4.71524e-07 0)
(4.69789e-06 -1.31866e-06 0)
(1.10688e-05 -1.94597e-06 0)
(1.93101e-05 -2.36081e-06 0)
(2.87538e-05 -2.59905e-06 0)
(3.88338e-05 -2.69748e-06 0)
(4.90905e-05 -2.68886e-06 0)
(5.91628e-05 -2.59966e-06 0)
(6.8773e-05 -2.45055e-06 0)
(7.77113e-05 -2.25763e-06 0)
(8.58217e-05 -2.03343e-06 0)
(9.29916e-05 -1.78768e-06 0)
(9.91427e-05 -1.52789e-06 0)
(0.000104223 -1.25984e-06 0)
(0.000108202 -9.87928e-07 0)
(0.000111065 -7.15403e-07 0)
(0.000112807 -4.44608e-07 0)
(0.000113436 -1.7714e-07 0)
(0.000112961 8.6008e-08 0)
(0.000111397 3.44331e-07 0)
(0.000108761 5.97711e-07 0)
(0.000105069 8.46335e-07 0)
(0.000100337 1.09062e-06 0)
(9.45798e-05 1.33117e-06 0)
(8.78084e-05 1.5687e-06 0)
(8.00319e-05 1.804e-06 0)
(7.12563e-05 2.03792e-06 0)
(6.14844e-05 2.27131e-06 0)
(5.07154e-05 2.50502e-06 0)
(3.89458e-05 2.73985e-06 0)
(2.61687e-05 2.97655e-06 0)
(1.23746e-05 3.21584e-06 0)
(-2.44869e-06 3.45834e-06 0)
(-1.83157e-05 3.70459e-06 0)
(-3.52427e-05 3.95507e-06 0)
(-5.32479e-05 4.21017e-06 0)
(-7.23505e-05 4.47018e-06 0)
(-9.25709e-05 4.73532e-06 0)
(-0.00011393 5.00574e-06 0)
(-0.000136449 5.28148e-06 0)
(-0.000160149 5.56252e-06 0)
(-0.000185051 5.84876e-06 0)
(-0.000211175 6.14004e-06 0)
(-0.00023854 6.43611e-06 0)
(-0.000267164 6.73667e-06 0)
(-0.000297064 7.04134e-06 0)
(-0.000328253 7.34969e-06 0)
(-0.000360744 7.66122e-06 0)
(-0.000394548 7.97535e-06 0)
(-0.000429672 8.29147e-06 0)
(-0.00046612 8.60889e-06 0)
(-0.000503894 8.92686e-06 0)
(-0.000542992 9.24457e-06 0)
(-0.000583409 9.56114e-06 0)
(-0.000625134 9.87564e-06 0)
(-0.000668154 1.0187e-05 0)
(-0.000712451 1.04943e-05 0)
(-0.000758003 1.07963e-05 0)
(-0.00080478 1.10918e-05 0)
(-0.000852751 1.13795e-05 0)
(-0.000901876 1.16582e-05 0)
(-0.000952112 1.19264e-05 0)
(-0.00100341 1.21828e-05 0)
(-0.00105571 1.24257e-05 0)
(-0.00110895 1.26537e-05 0)
(-0.00116306 1.28651e-05 0)
(-0.00121797 1.30583e-05 0)
(-0.0012736 1.32317e-05 0)
(-0.00132984 1.33835e-05 0)
(-0.00138661 1.3512e-05 0)
(-0.00144381 1.36155e-05 0)
(-0.00150132 1.36922e-05 0)
(-0.00155902 1.37403e-05 0)
(-0.00161679 1.37582e-05 0)
(-0.00167449 1.37442e-05 0)
(-0.001732 1.36965e-05 0)
(-0.00178916 1.36136e-05 0)
(-0.00184582 1.34939e-05 0)
(-0.00190182 1.3336e-05 0)
(-0.00195701 1.31384e-05 0)
(-0.00201121 1.28999e-05 0)
(-0.00206425 1.26193e-05 0)
(-0.00211596 1.22955e-05 0)
(-0.00216615 1.19276e-05 0)
(-0.00221464 1.15149e-05 0)
(-0.00226125 1.10568e-05 0)
(-0.00230578 1.05528e-05 0)
(-0.00234805 1.00029e-05 0)
(-0.00238787 9.40687e-06 0)
(-0.00242505 8.76502e-06 0)
(-0.00245942 8.07776e-06 0)
(-0.00249078 7.34577e-06 0)
(-0.00251895 6.56994e-06 0)
(-0.00254377 5.75144e-06 0)
(-0.00256506 4.89169e-06 0)
(-0.00258266 3.99236e-06 0)
(-0.00259642 3.0554e-06 0)
(-0.00260618 2.08301e-06 0)
(-0.00261183 1.07767e-06 0)
(-0.00261323 4.20995e-08 0)
(-0.00261027 -1.0207e-06 0)
(-0.00260284 -2.10748e-06 0)
(-0.00259087 -3.21477e-06 0)
(-0.00257429 -4.33884e-06 0)
(-0.00255303 -5.47575e-06 0)
(-0.00252706 -6.62136e-06 0)
(-0.00249636 -7.77135e-06 0)
(-0.00246092 -8.92121e-06 0)
(-0.00242076 -1.00663e-05 0)
(-0.00237592 -1.12018e-05 0)
(-0.00232644 -1.2323e-05 0)
(-0.00227241 -1.34248e-05 0)
(-0.0022139 -1.45023e-05 0)
(-0.00215104 -1.55505e-05 0)
(-0.00208397 -1.65644e-05 0)
(-0.00201282 -1.75392e-05 0)
(-0.00193777 -1.847e-05 0)
(-0.00185902 -1.93521e-05 0)
(-0.00177678 -2.0181e-05 0)
(-0.00169126 -2.09524e-05 0)
(-0.00160272 -2.16621e-05 0)
(-0.00151142 -2.23063e-05 0)
(-0.00141762 -2.28815e-05 0)
(-0.00132161 -2.33844e-05 0)
(-0.0012237 -2.38123e-05 0)
(-0.0011242 -2.41625e-05 0)
(-0.00102341 -2.4433e-05 0)
(-0.000921682 -2.46223e-05 0)
(-0.000819332 -2.4729e-05 0)
(-0.000716701 -2.47525e-05 0)
(-0.000614125 -2.46926e-05 0)
(-0.000511942 -2.45494e-05 0)
(-0.00041049 -2.43237e-05 0)
(-0.000310099 -2.40167e-05 0)
(-0.000211097 -2.36301e-05 0)
(-0.000113802 -2.31659e-05 0)
(-1.85251e-05 -2.26269e-05 0)
(7.44358e-05 -2.2016e-05 0)
(0.000164794 -2.13366e-05 0)
(0.000252279 -2.05927e-05 0)
(0.000336634 -1.97883e-05 0)
(0.000417621 -1.8928e-05 0)
(0.000495018 -1.80166e-05 0)
(0.000568626 -1.70589e-05 0)
(0.000638263 -1.60604e-05 0)
(0.000703769 -1.50262e-05 0)
(0.000765007 -1.39618e-05 0)
(0.00082186 -1.28729e-05 0)
(0.000874233 -1.17649e-05 0)
(0.000922056 -1.06434e-05 0)
(0.000965278 -9.51376e-06 0)
(0.00100387 -8.38138e-06 0)
(0.00103783 -7.25141e-06 0)
(0.00106716 -6.12885e-06 0)
(0.00109191 -5.01846e-06 0)
(0.00111211 -3.92473e-06 0)
(0.00112785 -2.85189e-06 0)
(0.00113922 -1.80382e-06 0)
(0.0011463 -7.84109e-07 0)
(0.00114922 2.04026e-07 0)
(0.00114811 1.15772e-06 0)
(0.00114311 2.07446e-06 0)
(0.00113437 2.95212e-06 0)
(0.00112204 3.78891e-06 0)
(0.00110631 4.58342e-06 0)
(0.00108732 5.33455e-06 0)
(0.00106527 6.04153e-06 0)
(0.00104034 6.70388e-06 0)
(0.0010127 7.32137e-06 0)
(0.000982536 7.89401e-06 0)
(0.000950036 8.42198e-06 0)
(0.000915382 8.90556e-06 0)
(0.000878757 9.34515e-06 0)
(0.000840345 9.7411e-06 0)
(0.000800326 1.00937e-05 0)
(0.000758883 1.04032e-05 0)
(0.000716198 1.06694e-05 0)
(0.000672457 1.08919e-05 0)
(0.000627847 1.10699e-05 0)
(0.00058256 1.12018e-05 0)
(0.000536799 1.12857e-05 0)
(0.000490775 1.13185e-05 0)
(0.000444713 1.12963e-05 0)
(0.000398857 1.1214e-05 0)
(0.000353473 1.10653e-05 0)
(0.000308857 1.0842e-05 0)
(0.000265334 1.05348e-05 0)
(0.000223273 1.01322e-05 0)
(0.000183085 9.62064e-06 0)
(0.000145235 8.98473e-06 0)
(0.000110241 8.20712e-06 0)
(7.86821e-05 7.26929e-06 0)
(5.11891e-05 6.15322e-06 0)
(2.84279e-05 4.84545e-06 0)
(1.10554e-05 3.34707e-06 0)
(-3.72132e-07 1.69187e-06 0)
(-5.62299e-06 -2.09934e-08 0)
(-5.41483e-06 -1.46777e-06 0)
(-1.75169e-06 -1.75148e-06 0)
(4.72998e-07 -8.91883e-07 0)
(5.9705e-06 -5.96102e-06 0)
(1.72489e-05 -1.14719e-05 0)
(3.39875e-05 -1.59046e-05 0)
(5.47633e-05 -1.90015e-05 0)
(7.82088e-05 -2.08578e-05 0)
(0.000103081 -2.16606e-05 0)
(0.00012831 -2.16082e-05 0)
(0.000153012 -2.088e-05 0)
(0.000176478 -1.96281e-05 0)
(0.00019815 -1.79778e-05 0)
(0.0002176 -1.60313e-05 0)
(0.000234504 -1.38705e-05 0)
(0.000248628 -1.15611e-05 0)
(0.000259808 -9.15453e-06 0)
(0.000267934 -6.69109e-06 0)
(0.000272943 -4.20135e-06 0)
(0.000274803 -1.70804e-06 0)
(0.000273509 7.7273e-07 0)
(0.000269072 3.23021e-06 0)
(0.000261514 5.65811e-06 0)
(0.000250867 8.0537e-06 0)
(0.000237162 1.04171e-05 0)
(0.00022043 1.27508e-05 0)
(0.0002007 1.50587e-05 0)
(0.000177995 1.73462e-05 0)
(0.000152332 1.96194e-05 0)
(0.000123721 2.18851e-05 0)
(9.21628e-05 2.415e-05 0)
(5.76514e-05 2.6421e-05 0)
(2.01725e-05 2.87047e-05 0)
(-2.02957e-05 3.10075e-05 0)
(-6.37822e-05 3.33351e-05 0)
(-0.000110323 3.56927e-05 0)
(-0.000159958 3.80848e-05 0)
(-0.000212734 4.05153e-05 0)
(-0.000268702 4.29872e-05 0)
(-0.000327914 4.55029e-05 0)
(-0.000390426 4.8064e-05 0)
(-0.000456294 5.06714e-05 0)
(-0.000525574 5.3325e-05 0)
(-0.000598324 5.60243e-05 0)
(-0.000674597 5.87679e-05 0)
(-0.000754446 6.15539e-05 0)
(-0.000837919 6.43795e-05 0)
(-0.00092506 6.72415e-05 0)
(-0.00101591 7.01358e-05 0)
(-0.0011105 7.3058e-05 0)
(-0.00120886 7.60027e-05 0)
(-0.00131101 7.89644e-05 0)
(-0.00141696 8.19366e-05 0)
(-0.00152671 8.49124e-05 0)
(-0.00164026 8.78843e-05 0)
(-0.00175759 9.08441e-05 0)
(-0.00187867 9.37833e-05 0)
(-0.00200346 9.66925e-05 0)
(-0.00213191 9.95619e-05 0)
(-0.00226395 0.000102381 0)
(-0.00239951 0.000105139 0)
(-0.00253848 0.000107824 0)
(-0.00268076 0.000110424 0)
(-0.00282623 0.000112927 0)
(-0.00297473 0.000115319 0)
(-0.00312612 0.000117586 0)
(-0.00328021 0.000119716 0)
(-0.00343681 0.000121692 0)
(-0.0035957 0.000123501 0)
(-0.00375666 0.000125127 0)
(-0.00391942 0.000126555 0)
(-0.00408372 0.00012777 0)
(-0.00424926 0.000128755 0)
(-0.00441575 0.000129495 0)
(-0.00458283 0.000129974 0)
(-0.00475017 0.000130178 0)
(-0.0049174 0.000130091 0)
(-0.00508413 0.000129697 0)
(-0.00524996 0.000128983 0)
(-0.00541446 0.000127935 0)
(-0.0055772 0.00012654 0)
(-0.00573772 0.000124785 0)
(-0.00589556 0.000122659 0)
(-0.00605024 0.000120151 0)
(-0.00620126 0.000117252 0)
(-0.00634813 0.000113954 0)
(-0.00649034 0.00011025 0)
(-0.00662736 0.000106135 0)
(-0.00675869 0.000101605 0)
(-0.0068838 9.66591e-05 0)
(-0.00700216 9.12958e-05 0)
(-0.00711326 8.55171e-05 0)
(-0.00721658 7.93267e-05 0)
(-0.00731161 7.27303e-05 0)
(-0.00739785 6.57355e-05 0)
(-0.00747483 5.83524e-05 0)
(-0.00754206 5.05929e-05 0)
(-0.00759909 4.24716e-05 0)
(-0.00764549 3.40049e-05 0)
(-0.00768086 2.5212e-05 0)
(-0.0077048 1.61139e-05 0)
(-0.00771697 6.73419e-06 0)
(-0.00771703 -2.90153e-06 0)
(-0.0077047 -1.27654e-05 0)
(-0.00767974 -2.28274e-05 0)
(-0.00764192 -3.30556e-05 0)
(-0.00759107 -4.34162e-05 0)
(-0.00752706 -5.38734e-05 0)
(-0.00744982 -6.439e-05 0)
(-0.0073593 -7.49271e-05 0)
(-0.00725552 -8.54446e-05 0)
(-0.00713855 -9.59011e-05 0)
(-0.00700849 -0.000106255 0)
(-0.00686552 -0.000116462 0)
(-0.00670986 -0.00012648 0)
(-0.00654178 -0.000136266 0)
(-0.00636161 -0.000145775 0)
(-0.00616973 -0.000154964 0)
(-0.00596657 -0.000163791 0)
(-0.00575262 -0.000172214 0)
(-0.0055284 -0.000180192 0)
(-0.00529451 -0.000187687 0)
(-0.00505157 -0.00019466 0)
(-0.00480026 -0.000201077 0)
(-0.00454129 -0.000206905 0)
(-0.0042754 -0.000212112 0)
(-0.00400341 -0.000216672 0)
(-0.00372611 -0.000220559 0)
(-0.00344436 -0.000223754 0)
(-0.00315903 -0.000226236 0)
(-0.00287101 -0.000227994 0)
(-0.00258121 -0.000229016 0)
(-0.00229054 -0.000229295 0)
(-0.00199992 -0.000228831 0)
(-0.00171028 -0.000227624 0)
(-0.00142253 -0.000225681 0)
(-0.00113757 -0.000223011 0)
(-0.000856314 -0.000219629 0)
(-0.00057962 -0.000215553 0)
(-0.000308342 -0.000210804 0)
(-4.33011e-05 -0.00020541 0)
(0.000214715 -0.000199398 0)
(0.000464954 -0.000192802 0)
(0.000706708 -0.000185656 0)
(0.00093931 -0.000178001 0)
(0.00116214 -0.000169876 0)
(0.00137464 -0.000161324 0)
(0.00157629 -0.000152391 0)
(0.00176664 -0.000143123 0)
(0.00194528 -0.000133567 0)
(0.00211187 -0.000123772 0)
(0.00226613 -0.000113785 0)
(0.00240783 -0.000103656 0)
(0.00253682 -9.34316e-05 0)
(0.00265297 -8.31596e-05 0)
(0.00275626 -7.28859e-05 0)
(0.00284667 -6.26551e-05 0)
(0.00292428 -5.25099e-05 0)
(0.00298919 -4.24909e-05 0)
(0.00304157 -3.26367e-05 0)
(0.00308164 -2.2983e-05 0)
(0.00310964 -1.35629e-05 0)
(0.00312587 -4.40686e-06 0)
(0.00313065 4.45799e-06 0)
(0.00312436 1.30073e-05 0)
(0.00310739 2.122e-05 0)
(0.00308016 2.90778e-05 0)
(0.00304311 3.65656e-05 0)
(0.00299671 4.3671e-05 0)
(0.00294142 5.03846e-05 0)
(0.00287774 5.6699e-05 0)
(0.00280618 6.26093e-05 0)
(0.00272723 6.81127e-05 0)
(0.0026414 7.32074e-05 0)
(0.00254923 7.78932e-05 0)
(0.00245121 8.217e-05 0)
(0.00234788 8.60381e-05 0)
(0.00223974 8.94971e-05 0)
(0.00212734 9.25452e-05 0)
(0.0020112 9.51786e-05 0)
(0.00189186 9.73909e-05 0)
(0.00176987 9.91717e-05 0)
(0.0016458 0.000100506 0)
(0.00152024 0.000101373 0)
(0.00139381 0.000101746 0)
(0.00126718 0.00010159 0)
(0.00114104 0.00010086 0)
(0.00101617 9.9504e-05 0)
(0.000893402 9.74561e-05 0)
(0.000773646 9.4641e-05 0)
(0.000657909 9.09711e-05 0)
(0.000547299 8.63482e-05 0)
(0.000443031 8.06653e-05 0)
(0.00034643 7.38122e-05 0)
(0.000258919 6.5686e-05 0)
(0.000181989 5.62119e-05 0)
(0.000117134 4.53831e-05 0)
(6.57273e-05 3.33398e-05 0)
(2.87922e-05 2.05171e-05 0)
(6.5765e-06 7.91949e-06 0)
(-2.27886e-06 -2.28728e-06 0)
(-1.46861e-06 -5.41455e-06 0)
(1.3263e-06 -4.71533e-06 0)
(1.15215e-05 -1.72551e-05 0)
(2.95448e-05 -2.94732e-05 0)
(5.46664e-05 -3.92659e-05 0)
(8.48892e-05 -4.61726e-05 0)
(0.00011846 -5.0329e-05 0)
(0.000153754 -5.2076e-05 0)
(0.00018932 -5.18078e-05 0)
(0.000223924 -4.99032e-05 0)
(0.000256545 -4.66994e-05 0)
(0.00028636 -4.24846e-05 0)
(0.000312715 -3.75005e-05 0)
(0.000335108 -3.19462e-05 0)
(0.000353162 -2.59835e-05 0)
(0.000366603 -1.97424e-05 0)
(0.000375239 -1.33255e-05 0)
(0.000378947 -6.81232e-06 0)
(0.000377656 -2.62646e-07 0)
(0.000371334 6.28004e-06 0)
(0.000359976 1.2786e-05 0)
(0.0003436 1.92368e-05 0)
(0.000322232 2.56232e-05 0)
(0.000295906 3.19435e-05 0)
(0.000264657 3.8202e-05 0)
(0.000228513 4.44072e-05 0)
(0.000187501 5.05713e-05 0)
(0.000141635 5.67084e-05 0)
(9.09215e-05 6.28345e-05 0)
(3.53547e-05 6.89659e-05 0)
(-2.5082e-05 7.51193e-05 0)
(-9.04167e-05 8.13108e-05 0)
(-0.000160688 8.75556e-05 0)
(-0.000235946 9.38677e-05 0)
(-0.000316248 0.00010026 0)
(-0.000401661 0.000106743 0)
(-0.000492258 0.000113326 0)
(-0.000588119 0.000120017 0)
(-0.000689325 0.000126821 0)
(-0.000795964 0.00013374 0)
(-0.00090812 0.000140778 0)
(-0.00102588 0.000147932 0)
(-0.00114933 0.000155201 0)
(-0.00127855 0.00016258 0)
(-0.00141362 0.000170064 0)
(-0.0015546 0.000177644 0)
(-0.00170156 0.000185311 0)
(-0.00185456 0.000193054 0)
(-0.00201363 0.000200859 0)
(-0.00217881 0.000208712 0)
(-0.00235012 0.000216597 0)
(-0.00252757 0.000224497 0)
(-0.00271114 0.000232392 0)
(-0.00290081 0.000240261 0)
(-0.00309654 0.000248082 0)
(-0.00329827 0.000255832 0)
(-0.00350591 0.000263484 0)
(-0.00371936 0.000271012 0)
(-0.0039385 0.000278388 0)
(-0.00416319 0.000285582 0)
(-0.00439324 0.000292562 0)
(-0.00462847 0.000299297 0)
(-0.00486864 0.000305752 0)
(-0.00511352 0.000311892 0)
(-0.00536283 0.000317681 0)
(-0.00561624 0.000323082 0)
(-0.00587345 0.000328056 0)
(-0.00613407 0.000332565 0)
(-0.00639771 0.000336569 0)
(-0.00666395 0.000340027 0)
(-0.00693233 0.000342899 0)
(-0.00720237 0.000345145 0)
(-0.00747355 0.000346725 0)
(-0.00774532 0.000347598 0)
(-0.0080171 0.000347725 0)
(-0.0082883 0.000347067 0)
(-0.00855827 0.000345587 0)
(-0.00882637 0.000343249 0)
(-0.00909189 0.000340018 0)
(-0.00935415 0.000335862 0)
(-0.00961239 0.000330751 0)
(-0.00986589 0.000324656 0)
(-0.0101139 0.000317553 0)
(-0.0103555 0.000309419 0)
(-0.0105901 0.000300237 0)
(-0.0108167 0.000289992 0)
(-0.0110346 0.000278672 0)
(-0.011243 0.00026627 0)
(-0.011441 0.000252786 0)
(-0.0116278 0.00023822 0)
(-0.0118026 0.00022258 0)
(-0.0119646 0.000205879 0)
(-0.0121131 0.000188134 0)
(-0.0122472 0.000169368 0)
(-0.0123662 0.00014961 0)
(-0.0124694 0.000128893 0)
(-0.0125561 0.000107259 0)
(-0.0126256 8.47516e-05 0)
(-0.0126773 6.1423e-05 0)
(-0.0127107 3.733e-05 0)
(-0.0127253 1.25353e-05 0)
(-0.0127205 -1.2893e-05 0)
(-0.0126959 -3.88815e-05 0)
(-0.0126511 -6.53517e-05 0)
(-0.012586 -9.222e-05 0)
(-0.0125001 -0.000119398 0)
(-0.0123935 -0.000146794 0)
(-0.0122658 -0.000174312 0)
(-0.0121173 -0.00020185 0)
(-0.0119478 -0.000229307 0)
(-0.0117575 -0.000256577 0)
(-0.0115466 -0.000283553 0)
(-0.0113155 -0.000310124 0)
(-0.0110644 -0.000336181 0)
(-0.0107939 -0.000361614 0)
(-0.0105044 -0.000386312 0)
(-0.0101966 -0.000410166 0)
(-0.00987111 -0.000433069 0)
(-0.00952876 -0.000454915 0)
(-0.00917038 -0.000475603 0)
(-0.00879686 -0.000495035 0)
(-0.00840921 -0.000513116 0)
(-0.00800846 -0.000529757 0)
(-0.00759572 -0.000544877 0)
(-0.00717217 -0.000558399 0)
(-0.00673902 -0.000570253 0)
(-0.00629754 -0.000580378 0)
(-0.00584904 -0.00058872 0)
(-0.00539487 -0.000595236 0)
(-0.0049364 -0.000599889 0)
(-0.00447502 -0.000602654 0)
(-0.00401215 -0.000603515 0)
(-0.00354921 -0.000602465 0)
(-0.00308762 -0.000599508 0)
(-0.00262879 -0.00059466 0)
(-0.00217412 -0.000587944 0)
(-0.001725 -0.000579395 0)
(-0.00128277 -0.000569059 0)
(-0.000848765 -0.000556989 0)
(-0.000424248 -0.000543249 0)
(-1.04488e-05 -0.000527913 0)
(0.000391459 -0.000511061 0)
(0.000780365 -0.000492781 0)
(0.00115522 -0.00047317 0)
(0.00151506 -0.000452331 0)
(0.00185898 -0.00043037 0)
(0.00218615 -0.000407401 0)
(0.00249585 -0.00038354 0)
(0.00278743 -0.000358907 0)
(0.00306032 -0.000333623 0)
(0.00331404 -0.00030781 0)
(0.00354822 -0.000281593 0)
(0.00376256 -0.000255091 0)
(0.00395686 -0.000228427 0)
(0.004131 -0.000201718 0)
(0.00428495 -0.000175078 0)
(0.00441877 -0.000148618 0)
(0.00453259 -0.000122443 0)
(0.00462663 -9.66525e-05 0)
(0.00470117 -7.13415e-05 0)
(0.00475657 -4.65968e-05 0)
(0.00479326 -2.24989e-05 0)
(0.0048117 8.79173e-07 0)
(0.00481245 2.34718e-05 0)
(0.00479607 4.5221e-05 0)
(0.00476321 6.6076e-05 0)
(0.00471453 8.59938e-05 0)
(0.00465074 0.000104938 0)
(0.00457255 0.00012288 0)
(0.00448072 0.000139796 0)
(0.00437604 0.000155668 0)
(0.00425928 0.000170485 0)
(0.00413125 0.000184236 0)
(0.00399277 0.000196915 0)
(0.00384464 0.000208518 0)
(0.00368771 0.00021904 0)
(0.00352281 0.000228475 0)
(0.00335078 0.000236814 0)
(0.00317248 0.000244042 0)
(0.0029888 0.00025014 0)
(0.00280063 0.000255076 0)
(0.0026089 0.00025881 0)
(0.00241457 0.000261288 0)
(0.00221864 0.000262438 0)
(0.0020222 0.000262174 0)
(0.00182637 0.000260387 0)
(0.00163239 0.000256945 0)
(0.00144155 0.000251696 0)
(0.0012553 0.000244462 0)
(0.00107518 0.000235045 0)
(0.000902866 0.000223227 0)
(0.000740162 0.000208782 0)
(0.000588996 0.000191491 0)
(0.000451387 0.000171175 0)
(0.000329388 0.000147741 0)
(0.000224988 0.000121282 0)
(0.000139936 9.22365e-05 0)
(7.5464e-05 6.16671e-05 0)
(3.18621e-05 3.17323e-05 0)
(7.99744e-06 6.59501e-06 0)
(-1.42781e-08 -5.60542e-06 0)
(1.96526e-06 -1.11309e-05 0)
(1.60227e-05 -3.40607e-05 0)
(3.94693e-05 -5.46259e-05 0)
(7.10473e-05 -7.08114e-05 0)
(0.000108162 -8.21567e-05 0)
(0.000148749 -8.88894e-05 0)
(0.00019093 -9.15232e-05 0)
(0.000233015 -9.06667e-05 0)
(0.000273539 -8.69243e-05 0)
(0.000311269 -8.08505e-05 0)
(0.000345191 -7.29325e-05 0)
(0.000374484 -6.35871e-05 0)
(0.000398504 -5.31642e-05 0)
(0.000416754 -4.19529e-05 0)
(0.000428864 -3.01882e-05 0)
(0.000434566 -1.8058e-05 0)
(0.000433677 -5.70951e-06 0)
(0.000426081 6.74489e-06 0)
(0.000411711 1.92225e-05 0)
(0.000390541 3.16655e-05 0)
(0.000362567 4.4037e-05 0)
(0.000327806 5.63172e-05 0)
(0.000286281 6.85001e-05 0)
(0.000238019 8.05909e-05 0)
(0.000183042 9.26033e-05 0)
(0.000121367 0.000104557 0)
(5.30014e-05 0.000116478 0)
(-2.206e-05 0.000128392 0)
(-0.000103835 0.000140328 0)
(-0.000192355 0.000152317 0)
(-0.000287666 0.000164386 0)
(-0.000389825 0.000176562 0)
(-0.000498903 0.000188871 0)
(-0.000614981 0.000201335 0)
(-0.00073815 0.000213972 0)
(-0.00086851 0.000226799 0)
(-0.00100617 0.000239828 0)
(-0.00115123 0.000253068 0)
(-0.0013038 0.000266525 0)
(-0.00146401 0.000280198 0)
(-0.00163196 0.000294087 0)
(-0.00180775 0.000308185 0)
(-0.00199149 0.000322483 0)
(-0.00218327 0.000336967 0)
(-0.00238318 0.000351622 0)
(-0.00259129 0.000366427 0)
(-0.00280766 0.00038136 0)
(-0.00303234 0.000396394 0)
(-0.00326535 0.000411501 0)
(-0.00350671 0.000426649 0)
(-0.0037564 0.000441801 0)
(-0.0040144 0.00045692 0)
(-0.00428065 0.000471964 0)
(-0.00455507 0.00048689 0)
(-0.00483757 0.000501651 0)
(-0.005128 0.000516196 0)
(-0.0054262 0.000530474 0)
(-0.00573199 0.000544428 0)
(-0.00604514 0.000558001 0)
(-0.00636538 0.000571132 0)
(-0.00669243 0.000583759 0)
(-0.00702597 0.000595815 0)
(-0.00736561 0.000607233 0)
(-0.00771097 0.000617944 0)
(-0.0080616 0.000627877 0)
(-0.00841701 0.000636957 0)
(-0.00877669 0.000645112 0)
(-0.00914008 0.000652266 0)
(-0.00950658 0.000658344 0)
(-0.00987554 0.000663269 0)
(-0.0102463 0.000666965 0)
(-0.0106181 0.000669357 0)
(-0.0109902 0.000670371 0)
(-0.0113618 0.000669935 0)
(-0.0117321 0.000667975 0)
(-0.0121001 0.000664425 0)
(-0.0124651 0.000659219 0)
(-0.012826 0.000652294 0)
(-0.0131819 0.000643591 0)
(-0.0135318 0.000633058 0)
(-0.0138747 0.000620644 0)
(-0.0142096 0.000606308 0)
(-0.0145353 0.000590012 0)
(-0.0148509 0.000571725 0)
(-0.0151553 0.000551423 0)
(-0.0154473 0.000529092 0)
(-0.0157259 0.000504722 0)
(-0.01599 0.000478315 0)
(-0.0162385 0.000449879 0)
(-0.0164704 0.000419434 0)
(-0.0166846 0.000387008 0)
(-0.0168801 0.000352638 0)
(-0.0170559 0.000316372 0)
(-0.0172111 0.00027827 0)
(-0.0173447 0.000238398 0)
(-0.0174558 0.000196837 0)
(-0.0175436 0.000153676 0)
(-0.0176074 0.000109014 0)
(-0.0176463 6.29626e-05 0)
(-0.0176599 1.56409e-05 0)
(-0.0176473 -3.28204e-05 0)
(-0.0176082 -8.22818e-05 0)
(-0.0175421 -0.000132595 0)
(-0.0174487 -0.000183601 0)
(-0.0173276 -0.000235136 0)
(-0.0171788 -0.000287025 0)
(-0.017002 -0.00033909 0)
(-0.0167974 -0.000391144 0)
(-0.016565 -0.000442996 0)
(-0.016305 -0.000494449 0)
(-0.0160178 -0.000545306 0)
(-0.0157036 -0.000595364 0)
(-0.0153632 -0.000644421 0)
(-0.014997 -0.000692273 0)
(-0.0146058 -0.000738719 0)
(-0.0141904 -0.000783558 0)
(-0.0137518 -0.000826594 0)
(-0.0132909 -0.000867634 0)
(-0.0128088 -0.000906493 0)
(-0.0123068 -0.00094299 0)
(-0.0117861 -0.000976955 0)
(-0.0112482 -0.00100823 0)
(-0.0106945 -0.00103665 0)
(-0.0101264 -0.00106209 0)
(-0.00954565 -0.00108443 0)
(-0.00895384 -0.00110354 0)
(-0.00835266 -0.00111933 0)
(-0.00774388 -0.00113172 0)
(-0.00712927 -0.00114065 0)
(-0.00651065 -0.00114606 0)
(-0.00588985 -0.00114793 0)
(-0.00526872 -0.00114624 0)
(-0.0046491 -0.00114101 0)
(-0.00403283 -0.00113225 0)
(-0.00342173 -0.00112001 0)
(-0.00281761 -0.00110435 0)
(-0.00222223 -0.00108536 0)
(-0.00163731 -0.00106313 0)
(-0.00106452 -0.00103777 0)
(-0.000505465 -0.00100942 0)
(3.83006e-05 -0.000978217 0)
(0.000565315 -0.000944331 0)
(0.00107419 -0.000907932 0)
(0.00156364 -0.000869206 0)
(0.00203245 -0.000828349 0)
(0.00247952 -0.000785566 0)
(0.00290386 -0.000741071 0)
(0.00330458 -0.000695081 0)
(0.0036809 -0.00064782 0)
(0.00403215 -0.000599512 0)
(0.00435779 -0.000550385 0)
(0.00465738 -0.000500663 0)
(0.00493061 -0.00045057 0)
(0.00517726 -0.000400323 0)
(0.00539725 -0.000350138 0)
(0.00559059 -0.000300219 0)
(0.0057574 -0.000250765 0)
(0.00589791 -0.000201964 0)
(0.00601245 -0.000153994 0)
(0.00610143 -0.000107022 0)
(0.00616536 -6.12008e-05 0)
(0.00620481 -1.66718e-05 0)
(0.00622045 2.64374e-05 0)
(0.006213 6.80124e-05 0)
(0.00618327 0.000107953 0)
(0.00613209 0.000146171 0)
(0.00606036 0.000182593 0)
(0.00596901 0.000217157 0)
(0.00585903 0.000249811 0)
(0.00573141 0.000280514 0)
(0.0055872 0.000309235 0)
(0.00542744 0.000335949 0)
(0.00525322 0.000360636 0)
(0.00506562 0.000383278 0)
(0.00486577 0.000403858 0)
(0.00465477 0.00042236 0)
(0.00443378 0.000438756 0)
(0.00420397 0.000453017 0)
(0.00396652 0.000465095 0)
(0.00372265 0.000474932 0)
(0.00347364 0.000482447 0)
(0.00322079 0.000487539 0)
(0.00296547 0.000490076 0)
(0.00270913 0.000489899 0)
(0.00245329 0.000486815 0)
(0.00219959 0.000480593 0)
(0.00194976 0.000470969 0)
(0.00170566 0.00045764 0)
(0.0014693 0.000440276 0)
(0.0012428 0.000418525 0)
(0.00102843 0.000392033 0)
(0.000828565 0.000360481 0)
(0.000645638 0.000323634 0)
(0.000482092 0.000281435 0)
(0.000340249 0.000234151 0)
(0.000222141 0.000182613 0)
(0.000129239 0.000128602 0)
(6.21694e-05 7.54279e-05 0)
(2.07625e-05 2.89634e-05 0)
(1.72079e-06 -2.80494e-07 0)
(2.39485e-06 -1.9458e-05 0)
(1.91977e-05 -5.49708e-05 0)
(4.65115e-05 -8.4943e-05 0)
(8.25678e-05 -0.00010795 0)
(0.000124209 -0.000123794 0)
(0.000169078 -0.00013291 0)
(0.000215096 -0.000136029 0)
(0.000260402 -0.000133991 0)
(0.000303382 -0.000127641 0)
(0.000342661 -0.000117761 0)
(0.000377095 -0.000105053 0)
(0.000405745 -9.0128e-05 0)
(0.00042786 -7.3504e-05 0)
(0.000442853 -5.56152e-05 0)
(0.000450274 -3.68187e-05 0)
(0.00044979 -1.74028e-05 0)
(0.000441164 2.4043e-06 0)
(0.000424235 2.24268e-05 0)
(0.000398901 4.25337e-05 0)
(0.000365105 6.26321e-05 0)
(0.000322823 8.26614e-05 0)
(0.000272049 0.000102587 0)
(0.000212789 0.000122398 0)
(0.000145056 0.000142097 0)
(6.88563e-05 0.000161704 0)
(-1.5807e-05 0.000181247 0)
(-0.000108942 0.000200763 0)
(-0.000210571 0.000220291 0)
(-0.000320729 0.000239875 0)
(-0.000439465 0.000259559 0)
(-0.000566846 0.000279385 0)
(-0.00070295 0.000299394 0)
(-0.000847871 0.000319622 0)
(-0.00100171 0.000340104 0)
(-0.0011646 0.000360867 0)
(-0.00133664 0.000381935 0)
(-0.00151797 0.000403325 0)
(-0.00170872 0.000425048 0)
(-0.00190904 0.000447112 0)
(-0.00211904 0.000469516 0)
(-0.00233887 0.000492254 0)
(-0.00256865 0.000515314 0)
(-0.00280849 0.000538679 0)
(-0.0030585 0.000562327 0)
(-0.00331877 0.000586227 0)
(-0.00358938 0.000610346 0)
(-0.00387038 0.000634646 0)
(-0.00416183 0.000659082 0)
(-0.00446373 0.000683604 0)
(-0.00477607 0.000708158 0)
(-0.00509884 0.000732685 0)
(-0.00543195 0.000757121 0)
(-0.00577533 0.000781397 0)
(-0.00612885 0.00080544 0)
(-0.00649235 0.000829172 0)
(-0.00686565 0.000852511 0)
(-0.0072485 0.000875369 0)
(-0.00764064 0.000897657 0)
(-0.00804176 0.000919277 0)
(-0.00845151 0.000940132 0)
(-0.00886948 0.000960118 0)
(-0.00929524 0.000979129 0)
(-0.0097283 0.000997055 0)
(-0.0101681 0.00101378 0)
(-0.0106141 0.0010292 0)
(-0.0110657 0.00104318 0)
(-0.0115221 0.00105562 0)
(-0.0119826 0.00106639 0)
(-0.0124465 0.00107537 0)
(-0.012913 0.00108244 0)
(-0.013381 0.00108747 0)
(-0.0138498 0.00109036 0)
(-0.0143184 0.00109099 0)
(-0.0147857 0.00108923 0)
(-0.0152507 0.00108499 0)
(-0.0157122 0.00107815 0)
(-0.0161693 0.00106862 0)
(-0.0166205 0.00105629 0)
(-0.0170649 0.00104109 0)
(-0.0175011 0.00102292 0)
(-0.0179278 0.00100173 0)
(-0.0183439 0.000977438 0)
(-0.0187479 0.000950002 0)
(-0.0191387 0.000919378 0)
(-0.0195147 0.000885534 0)
(-0.0198749 0.000848453 0)
(-0.0202177 0.00080813 0)
(-0.020542 0.000764572 0)
(-0.0208463 0.000717803 0)
(-0.0211295 0.00066786 0)
(-0.0213903 0.000614794 0)
(-0.0216274 0.000558674 0)
(-0.0218398 0.000499581 0)
(-0.0220261 0.000437617 0)
(-0.0221854 0.000372896 0)
(-0.0223166 0.000305549 0)
(-0.0224188 0.000235725 0)
(-0.022491 0.000163586 0)
(-0.0225324 8.93125e-05 0)
(-0.0225422 1.30984e-05 0)
(-0.0225198 -6.48467e-05 0)
(-0.0224647 -0.000144299 0)
(-0.0223763 -0.000225021 0)
(-0.0222542 -0.000306761 0)
(-0.0220983 -0.000389258 0)
(-0.0219082 -0.000472238 0)
(-0.0216839 -0.000555418 0)
(-0.0214256 -0.000638504 0)
(-0.0211333 -0.000721196 0)
(-0.0208074 -0.00080319 0)
(-0.0204482 -0.000884173 0)
(-0.0200564 -0.000963832 0)
(-0.0196324 -0.00104185 0)
(-0.0191772 -0.00111791 0)
(-0.0186916 -0.00119171 0)
(-0.0181766 -0.00126293 0)
(-0.0176334 -0.00133126 0)
(-0.0170631 -0.00139641 0)
(-0.0164672 -0.0014581 0)
(-0.015847 -0.00151604 0)
(-0.0152042 -0.00156998 0)
(-0.0145404 -0.00161966 0)
(-0.0138573 -0.00166484 0)
(-0.0131568 -0.00170533 0)
(-0.0124407 -0.00174091 0)
(-0.0117111 -0.00177143 0)
(-0.01097 -0.00179672 0)
(-0.0102194 -0.00181667 0)
(-0.0094616 -0.00183117 0)
(-0.00869861 -0.00184015 0)
(-0.00793267 -0.00184355 0)
(-0.00716599 -0.00184137 0)
(-0.00640077 -0.00183361 0)
(-0.0056392 -0.0018203 0)
(-0.00488349 -0.00180151 0)
(-0.00413577 -0.00177733 0)
(-0.00339817 -0.00174789 0)
(-0.00267277 -0.00171334 0)
(-0.00196157 -0.00167384 0)
(-0.00126652 -0.00162959 0)
(-0.000589483 -0.00158083 0)
(6.77467e-05 -0.0015278 0)
(0.000703484 -0.00147075 0)
(0.00131614 -0.00140999 0)
(0.00190424 -0.0013458 0)
(0.00246642 -0.0012785 0)
(0.00300142 -0.00120843 0)
(0.00350815 -0.00113592 0)
(0.0039856 -0.00106132 0)
(0.00443292 -0.000984974 0)
(0.0048494 -0.000907236 0)
(0.00523444 -0.000828457 0)
(0.00558759 -0.000748987 0)
(0.00590855 -0.000669169 0)
(0.00619713 -0.000589339 0)
(0.00645328 -0.000509823 0)
(0.00667709 -0.000430934 0)
(0.00686876 -0.000352972 0)
(0.0070286 -0.000276223 0)
(0.00715707 -0.000200952 0)
(0.0072547 -0.000127408 0)
(0.00732215 -5.58219e-05 0)
(0.00736015 1.35987e-05 0)
(0.00736954 8.06645e-05 0)
(0.00735122 0.000145207 0)
(0.00730618 0.000207079 0)
(0.00723546 0.000266152 0)
(0.00714016 0.000322316 0)
(0.00702146 0.00037548 0)
(0.00688054 0.000425567 0)
(0.00671866 0.000472515 0)
(0.00653708 0.000516271 0)
(0.00633712 0.000556792 0)
(0.0061201 0.00059404 0)
(0.0058874 0.000627976 0)
(0.0056404 0.00065856 0)
(0.00538052 0.000685743 0)
(0.00510919 0.000709466 0)
(0.00482792 0.000729649 0)
(0.00453821 0.000746193 0)
(0.00424164 0.000758968 0)
(0.00393984 0.000767812 0)
(0.00363452 0.000772525 0)
(0.00332746 0.000772861 0)
(0.00302052 0.00076853 0)
(0.00271571 0.000759193 0)
(0.00241512 0.000744461 0)
(0.00212099 0.000723901 0)
(0.00183567 0.000697046 0)
(0.00156168 0.000663413 0)
(0.00130163 0.000622533 0)
(0.00105822 0.000574002 0)
(0.000834229 0.000517561 0)
(0.000632382 0.00045322 0)
(0.00045529 0.000381448 0)
(0.000305288 0.000303467 0)
(0.000184222 0.00022168 0)
(9.33309e-05 0.000140291 0)
(3.38518e-05 6.62871e-05 0)
(3.41309e-06 1.13285e-05 0)
(2.64737e-06 -2.90296e-05 0)
(2.11139e-05 -7.86032e-05 0)
(5.07363e-05 -0.000118632 0)
(8.93227e-05 -0.000148549 0)
(0.00013325 -0.000168631 0)
(0.000179895 -0.000179642 0)
(0.000227006 -0.000182595 0)
(0.000272595 -0.000178595 0)
(0.000314941 -0.000168735 0)
(0.00035258 -0.000154039 0)
(0.000384281 -0.000135432 0)
(0.000409026 -0.000113722 0)
(0.000425993 -8.96098e-05 0)
(0.000434525 -6.36824e-05 0)
(0.000434116 -3.64292e-05 0)
(0.000424379 -8.24805e-06 0)
(0.000405032 2.05435e-05 0)
(0.000375873 4.96988e-05 0)
(0.000336767 7.90323e-05 0)
(0.000287625 0.000108411 0)
(0.000228397 0.000137747 0)
(0.000159053 0.000166989 0)
(7.95771e-05 0.000196115 0)
(-1.00401e-05 0.00022513 0)
(-0.000109811 0.000254057 0)
(-0.000219753 0.000282932 0)
(-0.000339896 0.000311804 0)
(-0.000470281 0.000340727 0)
(-0.000610966 0.000369759 0)
(-0.000762024 0.000398959 0)
(-0.000923542 0.000428386 0)
(-0.00109562 0.000458093 0)
(-0.00127839 0.000488132 0)
(-0.00147196 0.000518546 0)
(-0.00167649 0.000549373 0)
(-0.00189211 0.000580643 0)
(-0.00211898 0.000612379 0)
(-0.00235725 0.000644594 0)
(-0.00260709 0.000677294 0)
(-0.00286863 0.000710475 0)
(-0.00314204 0.000744125 0)
(-0.00342744 0.000778225 0)
(-0.00372496 0.000812746 0)
(-0.00403472 0.00084765 0)
(-0.0043568 0.000882893 0)
(-0.00469128 0.000918421 0)
(-0.00503821 0.000954175 0)
(-0.00539762 0.000990087 0)
(-0.00576951 0.00102608 0)
(-0.00615385 0.00106207 0)
(-0.00655057 0.00109798 0)
(-0.00695956 0.00113369 0)