/*--------------------------------*- C++ -*----------------------------------*\
  =========                 |
  \\      /  F ield         | OpenFOAM: The Open Source CFD Toolbox
   \\    /   O peration     | Website:  https://openfoam.org
    \\  /    A nd           | Version:  6
     \\/     M anipulation  |
\*---------------------------------------------------------------------------*/
FoamFile
{
    version     2.0;
    format      ascii;
    class       volScalarField;
    location    "0";
    object      p;
}
// * * * * * * * * * * * * * * * * * * * * * * * * * * * * * * * * * * * * * //

dimensions      [0 2 -2 0 0 0 0];

internalField   nonuniform List<scalar> 
918
(
0.194098
0.998801
0.00459976
0.193887
0.00127773
0.967645
-0.847184
0.392072
0.172019
-0.118148
0.0259457
0.162804
0.81843
0.585502
-1.46919
0.0144026
0.341353
-0.640107
0.170677
0.00888798
0.486483
0.178531
0.182
0.174514
0.218653
0.567505
0.691338
-0.0013823
-0.00352712
-0.000620743
-2.18799e-05
0.00155021
0.00996092
0.840786
0.886933
0.905549
0.139475
0.0803616
-0.722064
-0.788864
-0.745592
-0.85844
0.375817
0.377768
-0.522673
0.38867
0.398485
0.163129
0.171832
0.172526
0.173994
0.17249
0.174334
0.300157
-0.128918
-0.217494
-0.0871713
-0.0701849
0.0876257
0.0244136
0.0168212
0.0289775
0.0294017
0.100676
0.160139
0.156952
0.165597
0.179044
0.924245
0.896563
0.919248
0.843253
0.860871
0.792969
0.76528
0.604982
0.627711
0.571979
0.560466
-1.92834
-2.88814
-0.881249
-0.598952
0.0011375
0.0225799
0.0354655
0.321086
0.324142
0.334711
0.344133
0.796231
-0.590863
-0.752838
0.170405
0.168635
0.177604
0.17954
0.175168
0.175615
0.015174
0.015499
0.00107158
0.00802837
0.00647384
0.452142
0.444053
0.174091
0.169255
0.185283
0.208131
0.19438
-0.0652
0.239621
0.270543
0.382133
0.55389
0.551177
0.559052
0.665089
0.633412
0.723887
0.748294
0.00523043
0.00192256
0.0154592
0.0143817
0.0164007
0.140465
0.133493
0.150528
0.14208
0.146883
-0.0104404
-0.164632
0.157857
0.133582
-0.641811
-0.696783
-0.672862
-0.737145
-0.827868
0.240129
0.364652
0.368351
-0.540735
-0.444298
-0.600209
-0.406781
-0.464338
0.146983
0.15591
0.149555
0.165366
0.163106
0.162973
0.175392
0.172978
0.174522
0.331286
0.411338
0.255652
0.231766
-0.409764
-0.259011
-0.372793
-0.0195183
-0.0126569
0.0969677
0.112745
0.0841583
0.076091
-0.00367442
0.00772962
-0.000673628
0.0284673
0.0323435
0.092292
0.0822428
0.109994
0.115892
0.152319
0.150543
0.155016
0.152122
0.714489
0.736345
0.74451
0.721099
-3.87061
-6.54661
-0.247402
-0.0850407
0.000915274
0.00256425
0.000727862
0.00120088
0.00291264
0.00199993
0.0496544
0.0420038
0.0392616
0.0382386
0.3088
0.30661
0.804602
0.872628
0.721662
0.694062
0.155582
0.159802
0.165686
0.16086
0.0289586
0.0205598
0.0288777
0.400211
0.421825
0.418944
-0.108402
-0.191279
-0.0149634
0.0106347
0.296161
0.276929
0.300507
0.448112
0.491789
0.760514
0.784024
0.772961
0.788512
0.83666
0.85676
0.82074
0.121013
0.128675
0.125424
0.158872
0.154649
0.156084
0.149218
0.15218
0.151956
-0.308931
-0.682236
-0.180984
-0.091975
0.127957
0.0510282
0.405682
0.55334
0.34341
0.35778
0.361666
-0.340926
-0.401384
0.202655
0.181072
0.0407063
0.0670689
0.0540904
0.690212
0.651374
0.699616
0.674414
0.638544
0.660936
-0.622188
-2.38824
-1.34526
0.318852
0.111781
0.209601
0.0660159
0.054126
0.056728
0.836194
0.860061
0.454145
0.597611
0.555981
0.521207
0.549693
0.60714
0.539448
0.57279
0.606036
0.581456
0.0123246
-0.235681
-0.159564
0.672968
0.77596
-0.215764
-0.291453
-0.324257
0.121867
0.156664
0.140344
0.847598
0.793677
0.853619
0.171036
0.172306
0.00918843
0.0144079
0.174281
0.173722
0.00622713
0.013274
0.206836
-1.23473
-0.223726
0.167203
0.153718
0.170815
-0.074585
0.291515
0.031445
0.0989968
0.0614598
0.157147
0.111373
0.0711169
0.00770597
0.0234068
0.0175785
-0.392376
0.166011
0.16309
0.169595
0.171774
0.171505
0.00891457
0.0101266
0.00521172
0.0141684
0.00924887
0.00961298
0.141529
0.149055
-0.532654
0.170637
0.171946
0.171988
0.168013
0.170707
0.170322
0.0196275
0.0140205
0.0175829
-0.101562
0.0151522
0.435949
0.548953
0.357556
0.171753
-0.107019
0.351102
0.415172
0.319279
0.481811
0.343978
0.369854
-0.173928
-0.289829
-0.12957
-0.193862
0.16287
0.161687
0.152097
0.145412
0.161475
0.161089
0.16704
0.165855
0.169058
0.168957
-0.0393658
-0.0483869
-0.0958408
-0.167387
0.314226
0.400981
0.237884
0.237656
0.143654
0.0297985
0.0302092
0.0301373
0.0159486
0.0717404
0.0669522
0.0808658
0.0792487
0.0526958
0.0509252
0.0678469
0.0640425
0.0689571
0.153341
0.153676
0.155558
0.163548
0.116706
0.121059
0.0902091
0.109513
0.0954168
0.0435648
0.0705204
0.0500701
0.00742328
0.00916194
0.0053273
0.0293076
0.0369908
0.0157104
0.0126202
0.0144762
0.0110062
0.0116582
0.0212076
0.0260987
-0.360211
-0.50092
0.783387
0.643949
0.328594
0.157565
0.162544
0.159583
0.163568
0.166774
0.167852
0.165159
0.163386
0.150248
0.153238
0.149082
0.147247
-0.523794
-0.572655
-0.417992
-0.477021
-0.0954785
0.281762
0.0229819
-0.0417244
-0.0546489
0.161834
0.379886
0.347461
0.487611
0.474398
-0.69742
-0.268692
-0.614062
-0.0730228
-0.127046
0.453998
0.502096
0.523082
0.476014
0.423901
-0.323798
0.189531
-0.392366
-0.365342
-0.187216
-0.256127
0.403208
0.329985
0.33777
0.360501
0.378466
0.333463
0.317546
0.309803
0.346975
0.352956
0.162917
-0.0634237
-0.120998
-0.162379
0.30968
0.188738
0.244539
0.160524
0.153537
0.158054
0.156691
0.143809
0.147789
0.143011
0.149167
0.150573
0.160325
0.158642
0.155531
0.159989
-0.027856
-0.014249
-0.0706256
-0.272526
-0.217669
-0.293944
-0.134213
0.12093
0.112264
0.359527
0.376721
0.0590464
-0.155921
-0.0988219
-0.102146
0.155386
0.133947
0.11343
0.158473
0.185019
0.15357
0.211202
0.192639
0.0461227
0.0607682
0.0390799
0.0387056
0.10404
0.124101
0.122773
0.0530319
0.0506544
0.0321818
0.029122
0.0806219
0.0483636
0.0654568
0.0710217
0.0245891
0.0288193
0.0322609
0.0471141
0.0445164
0.0477702
0.14932
0.150658
0.149997
0.164713
0.174746
0.185975
0.159514
0.134634
0.125695
0.128047
0.110976
0.116374
0.119424
0.126802
0.141246
0.147838
0.147084
0.148288
0.133222
0.135311
0.121904
0.126749
0.107858
0.0891045
0.0754873
0.0182488
0.0150134
0.0160354
0.013497
0.0106889
0.0098791
0.0467155
0.0360354
0.0426416
0.0393644
0.0433476
0.0188847
0.0224035
-0.261608
-0.143889
-0.536648
-0.466323
-0.556896
0.729305
0.798939
0.625351
0.489244
0.54009
0.656626
0.73329
0.437948
0.535655
0.527604
0.0805368
0.765567
0.161696
0.160855
0.156766
0.156573
0.16062
-0.450523
-0.36562
-0.271955
-0.2217
0.00591745
0.125174
-0.482361
-0.329004
-0.160848
-0.250742
0.273226
0.287582
0.23611
0.262182
0.257462
0.0931134
0.157344
0.209391
0.159645
0.217605
0.241628
0.192077
0.229429
0.167217
0.124353
0.124264
0.0718701
0.0998975
0.079303
0.0497635
0.146367
0.130103
0.138601
0.131585
0.148207
0.18087
0.172958
0.190482
0.212301
0.137672
0.100199
0.112629
0.133869
0.0936101
0.105358
0.12313
-0.0951949
-0.0680249
-0.0365745
-0.378768
-0.248015
-0.251879
-0.286255
-0.316349
-0.00392467
-0.690081
-0.638013
-1.30987
0.141602
0.500888
0.35863
0.367352
0.376103
0.356413
0.363407
0.39039
0.397088
0.301246
0.323901
0.323851
0.274815
0.308342
0.326849
0.329931
0.151015
0.048101
0.0385856
-0.00223953
-0.127387
-0.100416
0.0893629
0.020094
-0.0441871
-0.0504398
0.116321
0.0198794
0.0869876
0.116776
0.0673898
0.00321942
0.213739
0.265331
0.263759
0.241577
0.148807
0.159062
0.186943
0.228017
0.254189
0.281053
0.147499
0.155051
0.156051
0.152729
0.149928
0.15233
0.153155
0.154036
0.154191
0.154498
0.154448
0.0143578
0.0274251
-0.00400627
0.000612449
0.012027
-0.0116729
0.0545864
-0.00476222
0.0449857
0.0434198
0.00966097
-0.00889625
0.00467863
0.0265684
0.173848
0.197402
0.180317
0.13733
0.240105
0.396158
0.433554
0.367397
0.202777
0.223632
0.295741
0.0946123
0.0970697
0.0882566
0.106066
0.10308
0.0345961
0.0383966
0.0395572
0.0448899
0.0436989
0.0346398
0.0272043
0.0283904
0.0320718
0.0294352
0.0279954
0.136542
0.131105
0.13035
0.123749
0.12358
0.137328
0.140117
0.142832
0.147316
0.147862
0.140999
0.144321
0.14671
0.0337359
0.028481
0.0300978
0.0281075
0.0293003
0.0228926
0.0228244
-0.23812
-0.120054
-0.0031843
-0.323668
-0.41542
-0.319611
-0.113123
-0.132223
-0.3349
0.627798
0.351321
0.186073
0.288277
0.451774
-0.00574538
0.284168
0.0467665
0.746255
0.659751
0.788828
0.42486
-0.0841641
0.0813743
0.0820427
-0.0522693
0.0448629
-0.0253574
-0.153045
-0.116971
-0.0839241
0.00575039
-0.0828912
-0.0402451
-0.36744
-0.577326
-0.124813
-0.294801
0.0806085
0.0837508
-0.572551
-0.33593
-0.415129
0.262586
0.279061
0.296656
0.271457
0.293042
0.219392
0.213293
0.232379
0.236238
0.227486
-0.962725
-0.583503
-1.7394
-1.1603
-0.676117
0.179057
0.178894
0.371114
0.287352
0.363793
0.349578
0.300462
0.264056
0.277579
0.315096
0.00632048
0.10825
0.0716732
0.102036
0.0339398
-0.0344132
0.239173
0.231395
0.267824
0.295133
0.247923
0.293296
0.146415
0.147547
0.144475
0.143188
0.139001
0.140814
0.100101
0.0751037
0.124595
0.103045
0.0608246
0.0500047
0.0419036
0.0357792
0.0342204
0.0343332
0.0363444
0.0411713
-0.696836
-0.536036
-0.458045
-0.447667
-0.488604
-0.50571
-0.501316
-0.599375
-0.692229
-0.54429
0.307947
0.656059
0.513754
0.671859
0.408202
0.536803
-0.335943
-0.0849714
-0.205687
-0.181742
-0.159805
-0.272704
-0.529873
-0.540111
0.403055
0.384636
0.200169
-0.0724616
-0.159212
0.106496
0.177779
0.128536
0.173366
0.230058
0.225526
-0.337165
-0.231487
-0.0904387
0.219831
0.0322443
-0.0402851
-0.019478
0.12872
0.0774469
)
;

boundaryField
{
    wall-4
    {
        type            zeroGradient;
    }
    velocity-inlet-5
    {
        type            zeroGradient;
    }
    velocity-inlet-6
    {
        type            zeroGradient;
    }
    pressure-outlet-7
    {
        type            fixedValue;
        value           uniform 0;
    }
    wall-8
    {
        type            zeroGradient;
    }
    frontAndBackPlanes
    {
        type            empty;
    }
}

