/*--------------------------------*- C++ -*----------------------------------*\
  =========                 |
  \\      /  F ield         | OpenFOAM: The Open Source CFD Toolbox
   \\    /   O peration     | Website:  https://openfoam.org
    \\  /    A nd           | Version:  6
     \\/     M anipulation  |
\*---------------------------------------------------------------------------*/
FoamFile
{
    version     2.0;
    format      ascii;
    class       volVectorField;
    location    "0";
    object      U;
}
// * * * * * * * * * * * * * * * * * * * * * * * * * * * * * * * * * * * * * //

dimensions      [0 1 -1 0 0 0 0];

internalField   nonuniform List<vector> 
13046
(
(-0.444381 -0.376255 0)
(-0.764223 -0.526252 -2.59227e-21)
(-0.469424 -0.644512 -5.5924e-21)
(-0.531219 -0.410597 0)
(-0.423188 -0.562424 -5.71104e-21)
(-0.716734 -0.60165 0)
(-0.537144 -0.388525 9.67746e-22)
(-0.74959 -0.618682 1.21751e-21)
(-0.391736 -0.552455 -6.21619e-21)
(-0.472245 -0.0275926 4.73316e-21)
(-0.825996 -0.412615 0)
(-0.0747349 -0.237009 3.11796e-21)
(-0.464174 -0.326116 -3.27723e-21)
(-0.824847 -0.553105 -3.36206e-21)
(-0.375564 -0.605129 3.03734e-21)
(-0.384892 -0.0697192 -5.97343e-21)
(-0.147307 -0.377384 6.91316e-21)
(-0.888558 -0.369367 5.52207e-22)
(-0.427122 -0.486195 0)
(-0.627538 -0.649375 -2.81751e-21)
(-0.628059 -0.461963 9.28429e-21)
(-0.401457 -0.0638466 -2.64647e-21)
(-0.132832 -0.353353 -9.2994e-21)
(-0.88125 -0.381432 0)
(-0.482562 -0.426778 3.96968e-21)
(-0.708012 -0.54859 -6.60741e-21)
(-0.484128 -0.611659 0)
(-0.43813 -0.310197 -6.227e-21)
(-0.833782 -0.526024 1.01669e-21)
(-0.3849 -0.621971 -5.29651e-21)
(-0.418053 -0.361019 0)
(-0.778307 -0.498321 0)
(-0.475477 -0.668141 5.68456e-21)
(-0.493248 -0.449281 -4.61261e-21)
(-0.504817 -0.603258 2.02246e-21)
(-0.673123 -0.545005 1.16141e-20)
(-0.519128 -0.465231 -6.79528e-21)
(-0.503283 -0.580284 3.25033e-21)
(-0.654068 -0.560741 -5.9625e-21)
(-0.321745 -0.369482 5.28263e-21)
(-0.621953 -0.774505 8.87308e-22)
(-0.752159 -0.401749 -4.28176e-21)
(-0.565501 -0.514109 2.93902e-21)
(-0.524425 -0.538944 5.00037e-21)
(-0.584934 -0.564307 0)
(-0.578639 -0.49288 1.97527e-21)
(-0.486724 -0.526442 -7.69816e-21)
(-0.60567 -0.58681 -8.97188e-22)
(-0.458796 -0.367397 0)
(-0.772921 -0.54383 -1.76969e-22)
(-0.433796 -0.621859 -8.71431e-23)
(-0.75614 -0.876044 4.43756e-21)
(-0.220024 -0.334661 0)
(-0.752971 -0.303311 -5.35972e-21)
(-0.796919 -0.883929 -6.29567e-21)
(-0.739226 -0.287312 -9.2752e-21)
(-0.200748 -0.336973 7.90319e-21)
(-0.916215 -0.342033 -6.25319e-22)
(-0.288297 -0.17818 0)
(-0.390933 -0.70375 3.58543e-21)
(-0.56564 -0.248888 -3.264e-21)
(-0.889157 -0.672738 1.46684e-21)
(-0.2207 -0.449995 -1.35788e-20)
(-0.14992 -0.396537 6.08409e-21)
(-0.908557 -0.491105 -5.46674e-22)
(-0.468191 -0.125203 -6.55933e-21)
(-0.263827 -0.191988 0)
(-0.90566 -0.323039 0)
(-0.449376 -0.76473 0)
(-0.263566 -0.2067 -2.64041e-21)
(-0.896083 -0.329091 0)
(-0.469081 -0.781378 2.67064e-21)
(-0.921814 -0.329444 0)
(-0.287498 -0.16221 2.29244e-23)
(-0.3659 -0.684896 5.03721e-24)
(-0.409703 -0.468049 0)
(-0.622669 -0.669971 3.01302e-21)
(-0.651005 -0.460926 -6.49215e-21)
(-0.293306 -0.592892 3.86567e-21)
(-0.316674 -0.140081 -9.21865e-21)
(-0.921757 -0.345439 0)
(-0.493926 -0.409625 2.15469e-21)
(-0.725248 -0.563815 0)
(-0.454417 -0.594554 0)
(-0.136046 -0.369485 -5.35575e-21)
(-0.89793 -0.469008 -3.10847e-22)
(-0.463133 -0.105706 3.94325e-21)
(-0.562513 -0.128793 -6.57279e-21)
(-0.110311 -0.324205 0)
(-0.90305 -0.604122 -3.60263e-22)
(-0.0643326 -0.231345 0)
(-0.655342 -0.109901 0)
(-0.8821 -0.706965 1.99023e-23)
(-0.446347 -0.227747 0)
(-0.463713 -0.207961 3.34257e-21)
(-0.90322 -0.522066 2.89658e-21)
(-0.911852 -0.535607 -1.32283e-21)
(-0.272419 -0.546013 -2.60166e-21)
(-0.238763 -0.506913 6.63446e-21)
(-0.109647 -0.318971 -3.51455e-22)
(-0.584376 -0.138605 6.42969e-21)
(-0.900788 -0.63785 0)
(-0.573288 -0.468452 4.47891e-23)
(-0.463453 -0.533379 4.1045e-21)
(-0.637237 -0.602646 0)
(-0.245274 -0.391391 0)
(-0.688848 -0.317916 -2.96368e-21)
(-0.786455 -0.805605 0)
(-0.260864 -0.362346 8.90818e-21)
(-0.718679 -0.825033 0)
(-0.736376 -0.344339 -1.04355e-20)
(-0.471847 0.0561936 0)
(-0.030917 -0.0887127 0)
(-0.67743 -0.336895 3.94693e-22)
(-0.47108 -0.344709 9.00615e-21)
(-0.805773 -0.555863 1.52748e-21)
(-0.391631 -0.603068 5.63684e-21)
(-0.405322 -0.193138 4.21449e-21)
(-0.413899 -0.216172 -7.83657e-21)
(-0.915415 -0.462605 -2.49551e-21)
(-0.267686 -0.55488 2.80342e-21)
(-0.906686 -0.483004 1.40694e-21)
(-0.28582 -0.570657 -2.61862e-21)
(-0.461973 -0.0086294 -4.21491e-21)
(-0.803788 -0.389275 4.98605e-23)
(-0.0668918 -0.210696 -1.35616e-21)
(-0.432931 -0.264646 0)
(-0.87664 -0.520825 -2.31659e-21)
(-0.328209 -0.599892 6.27304e-21)
(-0.332444 -0.356586 0)
(-0.585008 -0.761883 -4.59484e-21)
(-0.769718 -0.415202 2.5662e-22)
(-0.0745514 -0.25312 0)
(-0.656304 -0.129311 0)
(-0.894707 -0.732321 0)
(-0.501476 -0.175511 0)
(-0.916677 -0.560451 -2.78279e-21)
(-0.180792 -0.433115 -7.20876e-21)
(-0.40888 -0.344543 0)
(-0.799104 -0.493901 0)
(-0.457758 -0.675028 0)
(-0.58183 -0.330699 0)
(-0.812201 -0.691383 0)
(-0.296563 -0.486811 0)
(-0.244064 -0.359287 0)
(-0.749782 -0.840264 0)
(-0.731994 -0.326138 5.67778e-21)
(-0.266656 -0.410817 -8.4991e-22)
(-0.678109 -0.335091 -6.36216e-21)
(-0.775932 -0.789453 4.59093e-21)
(-0.549528 -0.234283 8.08082e-21)
(-0.897665 -0.650916 0)
(-0.209859 -0.454844 1.75724e-20)
(-0.326101 -0.467113 0)
(-0.629629 -0.375559 6.78023e-21)
(-0.742793 -0.7178 -1.25968e-21)
(-0.855074 -0.861946 0)
(-0.703995 -0.254819 6.98899e-21)
(-0.875896 -0.838882 0)
(-0.682926 -0.239286 4.20628e-21)
(-0.175053 -0.343364 0)
(-0.164191 -0.34892 0)
(-0.627375 -0.318449 8.92911e-22)
(-0.809541 -0.745695 2.30408e-21)
(-0.262019 -0.445933 -3.69981e-21)
(-0.499124 -0.0354153 -4.82472e-21)
(-0.0733632 -0.228898 0)
(-0.820058 -0.434663 -1.59553e-22)
(-0.463836 0.0332689 -3.92158e-21)
(-0.0423568 -0.133923 -6.05701e-22)
(-0.730356 -0.354608 0)
(-0.483816 -0.16191 -5.1935e-21)
(-0.91743 -0.536757 0)
(-0.17615 -0.433779 8.1731e-21)
(-0.289597 -0.308833 0)
(-0.813147 -0.373939 1.25518e-21)
(-0.588966 -0.813946 2.43789e-21)
(-0.643497 -0.329277 5.76338e-21)
(-0.271527 -0.437873 1.82435e-21)
(-0.792118 -0.751275 0)
(-0.0696512 -0.238868 0)
(-0.840074 -0.499948 0)
(-0.53749 -0.0554356 4.07834e-21)
(-0.297822 -0.326672 0)
(-0.794695 -0.380317 -2.76271e-21)
(-0.603574 -0.80202 6.73481e-22)
(-0.303058 -0.449305 0)
(-0.640798 -0.359554 0)
(-0.750562 -0.733395 0)
(-0.577031 -0.346892 2.94454e-21)
(-0.7905 -0.682507 0)
(-0.314292 -0.497698 0)
(-0.848368 -0.580056 6.13373e-23)
(-0.328102 -0.56807 -3.84717e-21)
(-0.445508 -0.282438 9.84046e-21)
(-0.864606 -0.532763 0)
(-0.338767 -0.598013 -7.86068e-21)
(-0.521975 -0.107182 -6.97987e-21)
(-0.109918 -0.324868 5.02928e-21)
(-0.89199 -0.532849 -1.22231e-21)
(-0.100344 -0.296046 5.29214e-21)
(-0.626779 -0.145361 3.76926e-21)
(-0.905393 -0.707637 1.51702e-21)
(-0.613045 -0.10822 -1.13216e-20)
(-0.88165 -0.638508 0)
(-0.0765157 -0.25848 -5.11067e-21)
(-0.778161 -0.93397 -2.18297e-22)
(-0.785909 -0.268184 2.41729e-21)
(-0.180315 -0.288878 0)
(-0.524353 -0.339816 -1.37615e-20)
(-0.3008 -0.138797 4.54132e-21)
(-0.313772 -0.615848 -2.31078e-21)
(-0.92264 -0.334208 0)
(-0.861975 -0.602765 0)
(-0.600657 -0.0891629 -1.06815e-20)
(-0.0700079 -0.241029 0)
(-0.54384 -0.454072 -9.99611e-21)
(-0.467805 -0.555644 -3.19595e-21)
(-0.661674 -0.588652 8.63768e-21)
(-0.420386 -0.318521 0)
(-0.827612 -0.508654 -1.50563e-22)
(-0.419152 -0.648866 -2.92083e-21)
(-0.0921482 -0.280822 4.24805e-21)
(-0.644802 -0.143995 0)
(-0.901061 -0.731173 -1.74709e-21)
(-0.524501 -0.322261 1.11563e-20)
(-0.841647 -0.602961 5.7515e-21)
(-0.322411 -0.552513 0)
(-0.047225 -0.153689 0)
(-0.751227 -0.403529 -2.8096e-22)
(-0.511016 0.0059254 0)
(-0.169764 -0.297282 0)
(-0.768764 -0.258936 0)
(-0.80283 -0.933738 0)
(-0.604105 -0.129587 9.93024e-21)
(-0.896339 -0.653254 0)
(-0.0937269 -0.291754 -1.11287e-22)
(-0.654695 -0.277868 2.6496e-21)
(-0.843504 -0.791165 -1.5455e-21)
(-0.211329 -0.398125 0)
(-0.41284 -0.259741 0)
(-0.876343 -0.49522 2.18275e-21)
(-0.347606 -0.620167 4.78874e-21)
(-0.91121 -0.839206 -2.80757e-21)
(-0.693427 -0.169831 -6.27178e-21)
(-0.0960029 -0.276016 3.5102e-21)
(-0.690326 -0.219754 0)
(-0.891663 -0.850618 -1.52872e-21)
(-0.141868 -0.325466 -1.29772e-22)
(-0.0392462 -0.129058 -4.39822e-21)
(-0.724947 -0.403934 0)
(-0.527884 0.0149961 -4.69149e-21)
(-0.265101 -0.337502 4.90572e-21)
(-0.679224 -0.8391 -2.88185e-21)
(-0.770152 -0.350776 4.31189e-22)
(-0.404797 0.0722612 4.39016e-21)
(-0.0301152 -0.0857201 -5.49427e-21)
(-0.670783 -0.283153 0)
(-0.420815 -0.506742 -1.94423e-21)
(-0.602515 -0.447925 -7.52189e-21)
(-0.651872 -0.639767 8.20621e-21)
(-0.607968 -0.275303 3.57783e-21)
(-0.635709 -0.290665 1.14388e-22)
(-0.858342 -0.731153 -3.89455e-21)
(-0.837873 -0.766435 0)
(-0.231803 -0.420608 3.36499e-21)
(-0.225419 -0.432452 -3.35526e-21)
(-0.252366 -0.543067 -5.0805e-21)
(-0.326128 -0.119997 4.77616e-21)
(-0.92292 -0.343813 -2.13096e-21)
(-0.397567 -0.275913 0)
(-0.865388 -0.4784 0)
(-0.387209 -0.652654 -6.27195e-21)
(-0.679172 -0.201254 -1.60849e-21)
(-0.90237 -0.835286 0)
(-0.129769 -0.318411 0)
(-0.44833 -0.183428 -4.10127e-21)
(-0.916969 -0.504125 0)
(-0.220286 -0.49461 2.83819e-21)
(-0.540463 -0.510398 1.93841e-21)
(-0.593067 -0.546167 2.76217e-21)
(-0.541646 -0.557684 -9.78369e-22)
(-0.657558 -0.248009 -5.33595e-21)
(-0.874172 -0.803911 0)
(-0.179916 -0.374702 -5.80872e-21)
(-0.377068 -0.26495 0)
(-0.871712 -0.458185 2.81648e-21)
(-0.393693 -0.670077 -3.76379e-21)
(-0.493521 -0.313118 0)
(-0.496774 -0.294375 1.16837e-21)
(-0.249183 -0.322691 1.8122e-21)
(-0.687225 -0.858313 8.47375e-21)
(-0.779567 -0.335058 -1.0222e-20)
(-0.63869 -0.233549 -5.78942e-21)
(-0.886043 -0.776086 2.80247e-21)
(-0.171799 -0.377457 5.30793e-21)
(-0.460076 -0.166491 0)
(-0.196064 -0.461819 -1.01355e-20)
(-0.918395 -0.507533 -1.28997e-21)
(-0.28466 -0.378067 -1.23621e-20)
(-0.695358 -0.807234 0)
(-0.729627 -0.363233 3.46294e-21)
(-0.158958 -0.322779 -7.32807e-21)
(-0.721508 -0.2422 -3.82174e-21)
(-0.85658 -0.891704 0)
(-0.360356 -0.210736 -3.97125e-21)
(-0.905886 -0.42276 -2.22822e-21)
(-0.335694 -0.632689 1.60782e-21)
(-0.223606 -0.321871 6.43216e-22)
(-0.738355 -0.884442 0)
(-0.770702 -0.307041 7.3638e-21)
(-0.362392 -0.193245 0)
(-0.381564 -0.182988 0)
(-0.914374 -0.418055 -1.23961e-21)
(-0.313226 -0.611457 -4.35724e-21)
(-0.918035 -0.436005 1.76293e-21)
(-0.281029 -0.57172 4.52328e-21)
(-0.0859047 -0.269806 -3.81586e-21)
(-0.855697 -0.494299 0)
(-0.520433 -0.0709839 -5.31563e-21)
(-0.40115 -0.232625 4.58633e-21)
(-0.895225 -0.473817 0)
(-0.319842 -0.603788 1.61277e-21)
(-0.548851 -0.274169 -1.79863e-21)
(-0.0115861 -0.00957148 5.0973e-21)
(-0.440043 0.106498 1.14785e-20)
(-0.633734 -0.402718 -3.52388e-21)
(-0.354262 -0.47202 0)
(-0.700229 -0.698568 0)
(-0.552156 -0.270937 7.85347e-21)
(-0.871493 -0.660334 0)
(-0.246696 -0.477065 1.05804e-20)
(-0.133055 -0.367165 -3.25184e-21)
(-0.509906 -0.13056 1.413e-20)
(-0.903279 -0.537618 1.29543e-21)
(-0.813141 -0.900606 0)
(-0.745546 -0.271054 3.43656e-21)
(-0.182439 -0.320735 -8.95729e-21)
(-0.908389 -0.803711 -2.92862e-21)
(-0.675204 -0.158699 -4.02584e-21)
(-0.0917792 -0.278267 0)
(-0.811719 -0.609151 -6.34147e-21)
(-0.348542 -0.552998 0)
(-0.50088 -0.257825 8.96972e-21)
(-0.88262 -0.593712 1.7408e-21)
(-0.265891 -0.519872 3.09845e-21)
(-0.807684 -0.636755 3.64929e-21)
(-0.331828 -0.533441 -1.66477e-23)
(-0.380983 -0.0920024 -3.48491e-22)
(-0.171771 -0.421672 3.2166e-21)
(-0.902276 -0.377785 -8.11788e-22)
(-0.766955 -0.955418 0)
(-0.803586 -0.263555 7.41886e-22)
(-0.176132 -0.273358 0)
(-0.505656 -0.239939 -9.13651e-21)
(-0.899433 -0.59104 -2.12121e-21)
(-0.241903 -0.497185 -3.62643e-21)
(-0.600629 -0.318074 0)
(-0.813916 -0.716823 -3.34466e-21)
(-0.275982 -0.46517 0)
(-0.710871 -0.313824 0)
(-0.772968 -0.834979 0)
(-0.236188 -0.372929 0)
(-0.482834 -0.384952 -2.98176e-21)
(-0.754164 -0.563528 -3.82001e-21)
(-0.432497 -0.604683 -7.74049e-23)
(-0.164548 -0.316431 9.01389e-21)
(-0.737305 -0.250479 9.55195e-21)
(-0.842917 -0.904706 2.55774e-21)
(-0.552551 -0.109135 -6.34537e-21)
(-0.885556 -0.563047 9.54696e-22)
(-0.0994339 -0.301154 -5.04603e-21)
(-0.909643 -0.773941 2.09255e-21)
(-0.657931 -0.164338 4.07763e-21)
(-0.10237 -0.29586 4.3317e-21)
(-0.246412 -0.231262 -7.9031e-21)
(-0.550544 -0.838512 3.99732e-21)
(-0.87502 -0.31933 -3.8553e-21)
(-0.337644 -0.161295 2.59541e-21)
(-0.33554 -0.178368 -2.2714e-21)
(-0.918167 -0.383237 -4.03527e-22)
(-0.922811 -0.376233 0)
(-0.296273 -0.59617 -1.42694e-21)
(-0.322983 -0.627904 -1.37738e-21)
(-0.0173549 -0.0308575 -6.88184e-21)
(-0.588337 -0.277642 1.98016e-21)
(-0.43386 0.091925 2.73414e-21)
(-0.399748 0.0527372 -2.69328e-22)
(-0.0429188 -0.119912 7.62717e-21)
(-0.710847 -0.292328 0)
(-0.608812 -0.261113 -1.2632e-20)
(-0.878429 -0.730892 -7.55555e-22)
(-0.210897 -0.422068 0)
(-0.102359 -0.311035 -9.65436e-21)
(-0.509542 -0.092218 5.28593e-21)
(-0.882203 -0.508429 0)
(-0.304528 -0.223107 1.18255e-20)
(-0.31876 -0.20954 -8.9109e-21)
(-0.892564 -0.371099 2.69747e-21)
(-0.903706 -0.380518 9.47678e-22)
(-0.433088 -0.732471 -2.56372e-21)
(-0.392217 -0.694121 -1.32547e-21)
(-0.0453888 -0.183287 0)
(-0.809985 -0.564423 0)
(-0.612778 -0.056148 1.97564e-21)
(-0.38138 0.0904109 -5.15886e-21)
(-0.0205095 -0.053627 0)
(-0.627458 -0.254941 0)
(-0.631106 -0.49803 9.95495e-23)
(-0.463746 -0.481804 4.39599e-21)
(-0.579492 -0.622646 1.90679e-21)
(-0.441125 0.0740244 -9.32336e-21)
(-0.651896 -0.306732 -5.77386e-22)
(-0.0248639 -0.0687866 3.61114e-22)
(-0.311455 -0.296767 0)
(-0.831852 -0.394746 -5.28196e-21)
(-0.531749 -0.778314 -1.20227e-22)
(-0.556201 -0.0660085 2.82287e-23)
(-0.844895 -0.523066 5.20061e-22)
(-0.072749 -0.238316 -6.11521e-24)
(-0.462477 -0.26668 -5.21918e-23)
(-0.00855361 0.0232566 -3.03973e-21)
(-0.467016 0.102144 -4.66087e-21)
(-0.334201 -0.391214 -4.43954e-21)
(-0.634004 -0.755195 2.93502e-21)
(-0.727717 -0.410261 1.05362e-20)
(-0.590813 -0.427689 0)
(-0.689043 -0.647153 -9.05452e-21)
(-0.402306 -0.512536 5.39884e-21)
(-0.44034 -0.00480537 0)
(-0.0700817 -0.220261 3.99883e-21)
(-0.806994 -0.373906 -8.35156e-23)
(-0.601024 -0.407294 0)
(-0.706408 -0.664886 -2.96859e-21)
(-0.375187 -0.495753 -7.65386e-21)
(-0.612905 -0.508362 4.21144e-21)
(-0.485901 -0.497544 -2.34451e-21)
(-0.574908 -0.601924 1.04093e-21)
(-0.15182 -0.285274 4.51458e-21)
(-0.769352 -0.242345 -3.32272e-21)
(-0.833442 -0.953389 2.76175e-21)
(-0.655131 -0.438427 0)
(-0.648057 -0.685161 0)
(-0.384062 -0.4548 6.77877e-22)
(-0.655334 -0.412254 5.5732e-21)
(-0.683174 -0.702079 2.28308e-21)
(-0.362991 -0.457485 9.48266e-23)
(-0.234956 -0.244931 1.19033e-20)
(-0.859169 -0.312584 -4.20385e-21)
(-0.591487 -0.867047 -4.05167e-21)
(-0.106432 -0.306444 6.02291e-21)
(-0.0989741 -0.291063 -6.44012e-21)
(-0.865291 -0.413609 2.94103e-22)
(-0.858392 -0.426427 1.96595e-22)
(-0.443644 -0.0550605 0)
(-0.46043 -0.0537723 -4.84565e-21)
(-0.56556 -0.0916374 7.76135e-21)
(-0.87017 -0.556132 -4.9579e-22)
(-0.084499 -0.267947 6.26939e-21)
(-0.534948 -0.840173 -2.56848e-21)
(-0.238365 -0.214 2.5507e-21)
(-0.886612 -0.309134 4.9167e-21)
(-0.284823 -0.340746 -4.47439e-21)
(-0.642025 -0.81513 -2.78353e-21)
(-0.775381 -0.368503 3.25046e-21)
(-0.715706 -0.209597 0)
(-0.890326 -0.892707 1.58263e-21)
(-0.126297 -0.300673 1.34222e-22)
(-0.563077 -0.345236 -6.25844e-22)
(-0.0165526 -0.0189174 -3.08646e-21)
(-0.55261 0.0609011 -3.81871e-21)
(-0.0636261 -0.231012 0)
(-0.638821 -0.0993178 0)
(-0.87247 -0.67171 1.69767e-22)
(-0.481428 0.0158661 4.39749e-21)
(-0.0477852 -0.157864 0)
(-0.756538 -0.382519 2.75741e-22)
(-0.00686868 0.0361171 -1.09327e-32)
(-0.41864 -0.23654 9.95613e-22)
(-0.431648 0.109728 4.87198e-21)
(-0.436632 -0.20807 -1.12455e-21)
(-0.00257813 0.031587 1.09075e-32)
(-0.385792 0.129623 -4.33337e-21)
(-0.905595 -0.708818 -3.46599e-21)
(-0.598425 -0.216529 0)
(-0.171541 -0.393196 -1.056e-20)
(-0.717051 -0.472854 2.91575e-22)
(-0.0287043 -0.113348 -3.34421e-21)
(-0.604068 -0.00895221 0)
(-0.520632 -0.167441 -6.33389e-21)
(-0.914654 -0.577049 1.66604e-21)
(-0.164675 -0.407299 5.00005e-21)
(-0.357049 -0.0303325 1.23899e-20)
(-0.120697 -0.320328 2.08328e-21)
(-0.859157 -0.31884 0)
(-0.503129 -0.353687 2.31795e-21)
(-0.374766 -0.573074 -1.95214e-21)
(-0.798188 -0.592223 1.53344e-21)
(-0.832489 -0.598895 2.83325e-23)
(-0.0501093 -0.198651 3.72925e-21)
(-0.621804 -0.0696838 2.07343e-21)
(-0.728256 -0.21771 -3.96438e-21)
(-0.133202 -0.29958 -2.45432e-21)
(-0.880221 -0.906679 0)
(-0.904535 -0.806267 0)
(-0.660618 -0.196718 0)
(-0.131302 -0.329 0)
(-0.0004126 0.0500171 0)
(-0.215252 -0.107304 1.14014e-21)
(-0.256912 0.0924265 3.76696e-21)
(-0.548025 -0.292146 -7.68147e-22)
(-0.0141144 -0.00852901 -3.70788e-21)
(-0.469552 0.0973984 -4.69167e-21)
(-0.507168 -0.374366 -6.11584e-21)
(-0.395368 -0.576937 4.75652e-21)
(-0.770712 -0.593078 1.97496e-21)
(-0.811521 -0.525951 -2.52769e-22)
(-0.584343 -0.0503449 -4.51343e-21)
(-0.0529343 -0.195835 0)
(-0.0374685 -0.154533 -3.82546e-21)
(-0.622637 -0.0424802 0)
(-0.7767 -0.546096 3.41119e-22)
(-0.481344 -0.0912426 -4.84797e-21)
(-0.116696 -0.332361 1.00252e-20)
(-0.885477 -0.475143 0)
(-0.219788 -0.495477 -6.48046e-21)
(-0.917998 -0.377742 1.41388e-21)
(-0.362173 -0.119468 0)
(-0.215479 -0.241834 -1.47059e-20)
(-0.854855 -0.296588 5.35849e-21)
(-0.633979 -0.903067 -1.24284e-21)
(-0.913001 -0.368202 6.65782e-22)
(-0.313674 -0.187391 5.27462e-21)
(-0.36982 -0.678392 -3.83494e-21)
(-0.195592 -0.460209 -5.46497e-21)
(-0.339713 -0.0875785 0)
(-0.908876 -0.339579 0)
(-0.356495 -0.29767 -2.30997e-21)
(-0.356337 -0.277911 0)
(-0.839485 -0.439215 -5.21004e-21)
(-0.859249 -0.436127 5.57296e-21)
(-0.469464 -0.716235 7.81024e-22)
(-0.440591 -0.708466 -8.30419e-22)
(-0.337505 -0.308219 2.21719e-21)
(-0.826226 -0.420602 0)
(-0.511129 -0.748707 1.38192e-21)
(-0.283732 -0.218622 0)
(-0.890954 -0.353549 -4.42317e-21)
(-0.459381 -0.762941 9.06795e-22)
(-0.908496 -0.7733 -1.26521e-21)
(-0.651865 -0.179735 4.21015e-21)
(-0.117355 -0.316566 -8.79379e-21)
(-0.861887 -0.581411 0)
(-0.581931 -0.0821266 1.16974e-20)
(-0.0712396 -0.247665 0)
(-0.118913 -0.32414 -2.70943e-21)
(-0.621393 -0.167343 -2.86979e-21)
(-0.908898 -0.713358 -8.01791e-22)
(-0.484829 -0.219831 1.65922e-22)
(-0.00653345 0.0163609 1.88345e-21)
(-0.391254 0.122579 0)
(-0.373803 -0.378317 4.08271e-21)
(-0.397575 -0.383842 0)
(-0.556381 -0.717257 0)
(-0.752726 -0.452827 1.19955e-20)
(-0.532258 -0.694034 0)
(-0.750956 -0.476847 -7.67041e-21)
(-0.286929 -0.248601 0)
(-0.280525 -0.268053 0)
(-0.541977 -0.805555 -7.4183e-23)
(-0.870554 -0.36243 3.12256e-21)
(-0.506446 -0.786064 6.57522e-21)
(-0.851334 -0.360764 -6.78637e-21)
(-0.460877 -0.28139 0)
(-0.0111549 0.0224112 4.39302e-21)
(-0.501946 0.0903008 0)
(-0.82848 -0.529269 -1.62337e-22)
(-0.574161 -0.0646068 1.3666e-21)
(-0.0638004 -0.220699 2.19329e-21)
(-0.243137 -0.307693 -7.8744e-21)
(-0.673079 -0.870167 -2.95334e-21)
(-0.797086 -0.328948 1.04672e-20)
(-0.907704 -0.851897 2.63209e-21)
(-0.695539 -0.186777 1.04528e-20)
(-0.109511 -0.291264 0)
(-0.243526 -0.530193 6.91268e-21)
(-0.920385 -0.374403 -1.50422e-21)
(-0.351435 -0.131586 6.14617e-21)
(-0.64859 -0.349952 0)
(-0.505152 0.0571968 0)
(-0.0256569 -0.067475 0)
(-0.676056 -0.379761 0)
(-0.529181 0.0400882 4.06684e-21)
(-0.0278421 -0.0857878 7.36281e-22)
(-0.340928 -0.21758 -4.91814e-21)
(-0.900072 -0.406979 1.33124e-21)
(-0.374499 -0.671088 1.96177e-21)
(-0.294415 -0.393002 -1.16384e-21)
(-0.702313 -0.789798 0)
(-0.712926 -0.366654 5.35839e-23)
(-0.478694 -0.0710604 5.64729e-21)
(-0.103153 -0.300867 5.69214e-21)
(-0.87173 -0.454678 -2.28901e-22)
(-0.909831 -0.722306 0)
(-0.612977 -0.200093 0)
(-0.152844 -0.36595 9.16133e-21)
(-0.180045 -0.440877 1.97473e-21)
(-0.915345 -0.482168 2.10236e-21)
(-0.448894 -0.142496 1.39262e-20)
(-0.267006 -0.274484 0)
(-0.577472 -0.831787 -4.4715e-21)
(-0.840476 -0.350139 3.55844e-21)
(-0.677589 -0.289467 9.35131e-24)
(-0.825226 -0.812018 2.26567e-21)
(-0.218428 -0.38777 0)
(-0.300733 -0.363972 8.24684e-24)
(-0.648373 -0.796607 -9.79038e-22)
(-0.752962 -0.383118 -4.25528e-21)
(-0.0866694 -0.263699 1.14688e-22)
(-0.851159 -0.464772 2.14687e-22)
(-0.502282 -0.0586665 6.49154e-21)
(-0.421242 -0.176512 -2.4949e-21)
(-0.919166 -0.472049 -8.46886e-22)
(-0.235587 -0.514896 0)
(-0.359629 -0.399341 -4.42439e-21)
(-0.605229 -0.729946 6.73807e-21)
(-0.725385 -0.434349 -6.95745e-21)
(-0.338143 -0.066244 4.6962e-21)
(-0.170126 -0.413367 2.31928e-21)
(-0.896071 -0.325692 -5.61773e-22)
(-0.380505 -0.335304 -2.77518e-21)
(-0.802605 -0.467335 0)
(-0.484372 -0.701012 0)
(-0.600884 -0.361361 -1.05335e-20)
(-0.762493 -0.693804 1.73855e-21)
(-0.324711 -0.486796 0)
(-0.903677 -0.777633 0)
(-0.643551 -0.21373 8.27457e-21)
(-0.150617 -0.354681 0)
(-0.384007 0.021647 -2.85416e-21)
(-0.0654198 -0.194319 -7.68525e-22)
(-0.781764 -0.307758 -2.69973e-22)
(-0.366701 0.0105074 7.86351e-21)
(-0.0780917 -0.227783 0)
(-0.805457 -0.302584 -8.20352e-23)
(-0.187958 -0.453418 1.67057e-21)
(-0.916194 -0.45699 -1.1526e-21)
(-0.427438 -0.137156 -1.27393e-20)
(-0.69802 -0.277937 -3.54828e-21)
(-0.833143 -0.846502 -2.24029e-21)
(-0.199102 -0.362667 0)
(-0.0488996 -0.140144 7.03653e-22)
(-0.732261 -0.283057 2.50074e-22)
(-0.375815 0.0476308 0)
(-0.14074 -0.375236 0)
(-0.910394 -0.570767 -9.5314e-22)
(-0.526564 -0.146551 -1.58829e-21)
(-0.00694526 0.0500552 3.26e-21)
(-0.337891 -0.204469 -1.04841e-21)
(-0.402788 0.100279 0)
(-0.328961 0.134585 -4.88379e-21)
(-0.369151 -0.163116 0)
(0.00228484 0.0457017 3.14287e-21)
(-0.1946 -0.45745 -1.21159e-22)
(-0.910313 -0.361835 0)
(-0.358682 -0.0968516 0)
(-0.0604724 -0.196419 0)
(-0.797339 -0.436867 0)
(-0.516235 -0.0215667 8.8173e-21)
(-0.427811 -0.0781938 -4.96685e-21)
(-0.432083 -0.0967935 4.01748e-21)
(-0.129683 -0.354786 -3.04789e-21)
(-0.888946 -0.41536 -1.24111e-22)
(-0.143388 -0.384904 -5.0332e-21)
(-0.899306 -0.435552 3.23374e-22)
(-0.547542 -0.149549 2.972e-21)
(-0.907388 -0.596604 6.37374e-22)
(-0.133119 -0.360982 0)
(-0.110574 -0.282701 0)
(-0.900735 -0.895943 0)
(-0.718645 -0.193863 0)
(-0.438709 -0.405033 0)
(-0.506907 -0.652437 -1.01044e-20)
(-0.730543 -0.512947 4.08621e-21)
(-0.587585 -0.166906 8.12485e-21)
(-0.91079 -0.667592 2.85965e-22)
(-0.130402 -0.351092 7.77117e-21)
(-0.132796 -0.346532 5.21413e-21)
(-0.605901 -0.175737 -1.12993e-20)
(-0.911216 -0.700171 -3.96154e-22)
(-0.318807 -0.099585 5.06017e-21)
(-0.230274 -0.512273 2.57465e-21)
(-0.917547 -0.328095 2.23902e-21)
(-0.274368 -0.235176 0)
(-0.878239 -0.348742 1.35547e-21)
(-0.50605 -0.796322 -6.44711e-21)
(-0.305526 -0.281207 0)
(-0.846472 -0.386331 6.93345e-21)
(-0.516174 -0.778451 -1.04394e-22)
(-0.557191 -0.214303 -1.02551e-20)
(-0.906562 -0.654479 4.7856e-22)
(-0.186408 -0.426324 -4.43406e-21)
(-0.573789 -0.205275 0)
(-0.908145 -0.672823 4.33796e-22)
(-0.170147 -0.403397 4.16628e-21)
(-0.375879 -0.41963 0)
(-0.609789 -0.71073 -1.0643e-20)
(-0.70319 -0.444067 3.85907e-21)
(-0.338802 -0.267024 0)
(-0.863693 -0.419271 0)
(-0.444723 -0.722349 1.07613e-21)
(-0.0498443 -0.196221 -8.17973e-21)
(-0.835704 -0.628338 -2.27807e-22)
(-0.641879 -0.0772092 0)
(-0.553784 0.03563 5.63851e-21)
(-0.025254 -0.0741211 0)
(-0.65428 -0.388716 -4.10848e-22)
(-0.564156 0.0432174 4.20332e-23)
(-0.0196274 -0.0494804 0)
(-0.616072 -0.378535 1.2566e-21)
(-0.323725 -0.335774 3.21607e-21)
(-0.574169 -0.770775 -1.05694e-21)
(-0.790671 -0.408069 -1.12408e-22)
(-0.586657 -0.321848 2.76172e-23)
(-0.019031 -0.0301262 5.65263e-21)
(-0.505453 0.0746351 0)
(-0.412747 -0.153264 1.08511e-20)
(-0.216875 -0.492365 3.4973e-21)
(-0.919532 -0.450016 0)
(-0.015215 -0.01007 -8.73615e-22)
(-0.545836 -0.324059 8.10793e-22)
(-0.52547 0.0747959 0)
(-0.554733 -0.425615 6.98556e-21)
(-0.427548 -0.545548 6.6956e-21)
(-0.696339 -0.612427 -6.11381e-23)
(-0.47696 -0.280269 -1.45781e-21)
(-0.868252 -0.566467 -7.08278e-22)
(-0.310929 -0.56479 -4.38758e-21)
(-0.807049 -0.858836 5.14255e-21)
(-0.715185 -0.287726 7.84206e-21)
(-0.207382 -0.356468 0)
(-0.0361198 -0.14249 0)
(-0.753077 -0.497706 2.81457e-22)
(-0.600985 -0.0250686 0)
(-0.907269 -0.750647 0)
(-0.62929 -0.199188 0)
(-0.145482 -0.354425 0)
(-0.143115 -0.367339 0)
(-0.359933 -0.0532518 -4.60796e-21)
(-0.88223 -0.336871 5.50738e-22)
(-0.479599 -0.259831 0)
(-0.882846 -0.572279 3.71264e-22)
(-0.285113 -0.543363 4.2579e-21)
(-0.454342 -0.419561 0)
(-0.509812 -0.638913 8.69193e-21)
(-0.713172 -0.523454 0)
(-0.778599 -0.49366 2.38988e-22)
(-0.577761 -0.0275184 4.28397e-21)
(-0.0442567 -0.166126 0)
(-0.149164 -0.392948 -3.93316e-21)
(-0.907452 -0.52143 6.62821e-23)
(-0.488853 -0.135589 4.98705e-23)
(-0.425415 0.0159348 0)
(-0.429341 0.0341124 5.48681e-21)
(-0.0618428 -0.183641 -1.94925e-21)
(-0.0496713 -0.149769 -2.31606e-21)
(-0.776739 -0.338507 1.8226e-22)
(-0.745674 -0.330403 -1.49875e-22)
(-0.590983 -0.290358 0)
(-0.845671 -0.709793 9.19349e-21)
(-0.249305 -0.457504 5.25041e-21)
(-0.896188 -0.716334 4.89885e-21)
(-0.602278 -0.230969 0)
(-0.183325 -0.402245 -5.71823e-21)
(-0.558071 -0.375998 -5.96617e-21)
(-0.756893 -0.641878 3.00016e-21)
(-0.36388 -0.5294 8.12225e-21)
(-0.699046 -0.428418 -6.63459e-22)
(-0.567606 0.0126769 5.82343e-21)
(-0.689493 -0.440861 3.31337e-22)
(-0.0297819 -0.105746 0)
(-0.586292 0.00914572 -5.63135e-21)
(-0.0263281 -0.0967924 0)
(-0.487608 -0.215128 0)
(-0.908355 -0.56494 0)
(-0.231652 -0.492078 4.72539e-21)
(-0.555402 -0.0173526 7.94899e-21)
(-0.55397 0.000804586 -1.49154e-20)
(-0.770985 -0.465685 -4.20148e-22)
(-0.735783 -0.436436 6.57606e-22)
(-0.0440676 -0.165921 6.16415e-21)
(-0.0373689 -0.134588 -6.13519e-23)
(-0.621672 -0.240906 0)
(-0.88567 -0.753431 -4.9733e-21)
(-0.18932 -0.397238 7.41848e-21)
(-0.540245 -0.306933 5.99058e-21)
(-0.853125 -0.621826 -4.37861e-21)
(-0.292992 -0.526773 0)
(-0.37391 -0.0166907 0)
(-0.101152 -0.281779 0)
(-0.840925 -0.32592 7.87738e-23)
(-0.568865 -0.284831 4.44601e-21)
(-0.853632 -0.682543 -2.60093e-21)
(-0.253231 -0.473302 -8.3986e-21)
(-0.549788 -0.349511 2.5353e-21)
(-0.789314 -0.648845 -3.52633e-21)
(-0.337031 -0.525521 4.67014e-21)
(-0.405165 0.00928774 0)
(-0.0708165 -0.204409 0)
(-0.79525 -0.330531 -4.89497e-24)
(-0.453965 -0.247071 0)
(-0.892993 -0.536696 7.15392e-22)
(-0.284699 -0.554771 -4.46337e-21)
(-0.873867 -0.933818 0)
(-0.747561 -0.219171 0)
(-0.129893 -0.286516 -3.23058e-22)
(-0.248922 -0.264183 -3.76471e-22)
(-0.844428 -0.330968 0)
(-0.596418 -0.856918 6.44919e-21)
(-0.897793 -0.777995 9.87497e-22)
(-0.0736502 -0.252031 0)
(-0.67537 -0.138107 0)
(-0.00142608 0.0511896 -7.69924e-21)
(-0.304782 -0.154316 -1.59479e-21)
(-0.330034 0.110009 -5.27963e-21)
(-0.523853 -0.273489 0)
(-0.869114 -0.626362 2.63522e-21)
(-0.270167 -0.510656 -4.09191e-21)
(-0.404205 -0.0423555 8.47282e-21)
(-0.11132 -0.311227 9.78907e-21)
(-0.863622 -0.366445 0)
(-0.705051 -0.937551 -1.5339e-21)
(-0.830272 -0.279774 -3.93536e-21)
(-0.192273 -0.257824 -3.18268e-21)
(-0.364536 0.120346 0)
(-0.00692507 0.00667933 -2.59706e-21)
(-0.515959 -0.212969 0)
(-0.306198 -0.430506 5.56958e-21)
(-0.283591 -0.409344 -5.69077e-21)
(-0.721862 -0.750972 0)
(-0.668214 -0.370509 4.78869e-21)
(-0.736787 -0.780658 -5.90853e-21)
(-0.68708 -0.354292 -3.82167e-21)
(-0.584564 -0.383221 5.60942e-21)
(-0.740283 -0.663874 4.16592e-21)
(-0.357821 -0.507712 0)
(-0.322502 -0.403018 5.11195e-21)
(-0.329209 -0.424043 0)
(-0.667508 -0.76081 -3.61103e-21)
(-0.710138 -0.394831 4.15457e-21)
(-0.682454 -0.740889 3.64088e-21)
(-0.684543 -0.395491 -1.84307e-23)
(-0.521438 -0.289287 3.88099e-22)
(-0.834085 -0.647503 -1.9806e-21)
(-0.300589 -0.516736 -5.71265e-21)
(-0.558169 -0.30887 -1.037e-20)
(-0.834904 -0.668662 5.04521e-23)
(-0.287657 -0.498585 0)
(-0.0201046 -0.0620596 0)
(-0.633467 -0.407669 0)
(-0.58692 0.0270826 6.29006e-21)
(-0.341159 -0.327391 -2.96938e-21)
(-0.805341 -0.423994 0)
(-0.530804 -0.747538 1.99665e-21)
(-0.535818 -0.0313444 -1.3923e-20)
(-0.805402 -0.467693 -1.22376e-22)
(-0.057518 -0.200657 -3.52035e-21)
(-0.535185 -0.199116 0)
(-0.535783 -0.181113 6.10362e-21)
(-0.911961 -0.617476 -5.96983e-22)
(-0.915267 -0.606558 1.52823e-21)
(-0.18265 -0.429756 -5.316e-21)
(-0.166299 -0.409306 -4.8224e-21)
(-0.364811 -0.343038 0)
(-0.793138 -0.449513 0)
(-0.518225 -0.723145 9.93566e-22)
(-0.316784 -0.23994 3.79896e-21)
(-0.882521 -0.388031 0)
(-0.441978 -0.731481 2.2306e-21)
(-0.52426 -0.230109 -2.97192e-21)
(-0.899546 -0.618834 0)
(-0.221254 -0.473358 0)
(-0.465879 -0.460862 5.5006e-21)
(-0.660017 -0.514752 -2.23734e-21)
(-0.54608 -0.624018 2.32366e-21)
(-0.571039 -0.179777 0)
(-0.912188 -0.652071 0)
(-0.148846 -0.378082 -8.26349e-21)
(-0.410358 -0.407007 0)
(-0.542493 -0.679008 1.24686e-21)
(-0.725563 -0.48348 0)
(-0.589335 -0.24728 -6.25092e-21)
(-0.886087 -0.707631 -2.95472e-21)
(-0.208663 -0.429458 -7.30023e-22)
(-0.337038 -0.24907 3.89585e-21)
(-0.879039 -0.411869 0)
(-0.4203 -0.707263 4.82464e-21)
(-0.445742 -0.442919 -5.44636e-21)
(-0.422481 -0.444917 -2.48532e-21)
(-0.680935 -0.505111 2.32717e-21)
(-0.549167 -0.64371 -4.7012e-21)
(-0.678835 -0.482798 0)
(-0.576411 -0.663301 -8.04739e-21)
(-0.367307 -0.435524 -2.46478e-21)
(-0.633242 -0.709907 4.95401e-21)
(-0.350758 -0.43749 1.59077e-21)
(-0.681224 -0.430437 -5.64569e-21)
(-0.673348 -0.727582 -2.36239e-21)
(-0.675955 -0.41208 7.63017e-24)
(-0.377966 -0.309878 3.27979e-21)
(-0.398399 -0.298752 0)
(-0.830259 -0.464006 3.92478e-21)
(-0.84528 -0.482976 -3.07006e-21)
(-0.454586 -0.693714 -4.70936e-21)
(-0.415355 -0.663042 7.89967e-21)
(-0.207673 -0.483159 0)
(-0.918421 -0.406871 -7.2382e-22)
(-0.383659 -0.12702 -6.73601e-21)
(-0.147903 -0.296398 3.92673e-21)
(-0.751753 -0.236854 5.23684e-21)
(-0.851981 -0.932682 -4.43111e-21)
(-0.18002 -0.440321 -3.33874e-21)
(-0.169838 -0.426204 2.78475e-21)
(-0.910109 -0.408591 6.2607e-22)
(-0.909059 -0.431717 1.05367e-21)
(-0.394948 -0.1087 1.7356e-20)
(-0.416302 -0.113835 -9.05277e-21)
(-0.207125 -0.304922 5.7212e-21)
(-0.746826 -0.906397 -2.62959e-21)
(-0.782466 -0.294691 9.98426e-22)
(-0.51709 -0.49001 8.97848e-21)
(-0.534865 -0.578786 0)
(-0.622062 -0.540638 -8.27583e-21)