/*--------------------------------*- C++ -*----------------------------------*\
  =========                 |
  \\      /  F ield         | OpenFOAM: The Open Source CFD Toolbox
   \\    /   O peration     | Website:  https://openfoam.org
    \\  /    A nd           | Version:  6
     \\/     M anipulation  |
\*---------------------------------------------------------------------------*/
FoamFile
{
    version     2.0;
    format      ascii;
    class       volVectorField;
    location    "0";
    object      U_rec;
}
// * * * * * * * * * * * * * * * * * * * * * * * * * * * * * * * * * * * * * //

dimensions      [0 1 -1 0 0 0 0];

internalField   nonuniform List<vector> 
13046
(
(-0.455052 0.174632 0)
(-0.676557 -0.275597 -5.19692e-21)
(-0.155831 -0.160802 -1.06048e-20)
(-0.419882 0.065902 0)
(-0.104603 -0.0769656 -9.93432e-21)
(-0.558508 -0.283366 0)
(-0.480901 0.0980234 1.56893e-21)
(-0.6393 -0.333421 2.58992e-21)
(-0.0719359 -0.06335 -1.07468e-20)
(-1.32076 0.59937 3.35429e-21)
(-1.48812 -0.690376 0)
(0.0873089 -0.0266989 6.28934e-21)
(-0.638135 0.240414 -4.97293e-21)
(-0.853654 -0.380911 -7.64767e-21)
(-0.0550321 -0.116497 5.60212e-21)
(-1.24187 0.665609 -4.83089e-21)
(0.0373839 -0.0445337 1.50108e-20)
(-1.53276 -0.582611 1.93892e-21)
(-0.183175 0.0108211 0)
(-0.383167 -0.243322 -5.48115e-21)
(-0.42562 -0.0634098 1.64353e-20)
(-1.25863 0.655879 -1.87805e-21)
(0.0525669 -0.0378007 -2.00565e-20)
(-1.52516 -0.606292 0)
(-0.360524 0.0780323 6.48017e-21)
(-0.536107 -0.229094 -1.28509e-20)
(-0.164323 -0.137586 0)
(-0.65527 0.279698 -8.91602e-21)
(-0.890666 -0.37753 2.26671e-21)
(-0.0694056 -0.132403 -9.85068e-21)
(-0.471121 0.201652 0)
(-0.708893 -0.259335 0)
(-0.177971 -0.183108 1.0793e-20)
(-0.312115 0.0384298 -7.52828e-21)
(-0.192092 -0.138292 3.74425e-21)
(-0.464379 -0.19033 2.23999e-20)
(-0.30887 0.00980862 -1.15953e-20)
(-0.191238 -0.113457 5.76819e-21)
(-0.426171 -0.185615 -1.14361e-20)
(-0.355131 0.191408 7.87178e-21)
(-0.415439 -0.340719 1.90898e-21)
(-0.672578 -0.13823 -7.97933e-21)
(-0.305887 -0.0736817 5.23328e-21)
(-0.234795 -0.0808127 8.78219e-21)
(-0.311086 -0.141088 0)
(-0.337418 -0.0621682 3.39417e-21)
(-0.198886 -0.0532423 -1.35364e-20)
(-0.337652 -0.174663 -1.67932e-21)
(-0.483521 0.16908 0)
(-0.69729 -0.303308 -3.67231e-22)
(-0.110006 -0.135314 -8.3669e-23)
(-0.689737 -0.532149 1.16336e-20)
(-0.294337 0.200511 0)
(-0.76992 -0.0286172 -9.4057e-21)
(-0.782975 -0.590082 -1.65914e-20)
(-0.800078 0.00755092 -1.50465e-20)
(-0.248672 0.172905 1.16318e-20)
(-1.31009 -0.377691 -1.44152e-21)
(-0.972916 0.599805 0)
(-0.17853 -0.209246 8.38875e-21)
(-0.901561 0.278854 -4.72054e-21)
(-1.08443 -0.601323 4.1323e-21)
(0.0441537 -0.0231865 -2.332e-20)
(0.0824343 -0.0476449 1.1708e-20)
(-1.42901 -0.659275 -1.91915e-21)
(-1.223 0.536106 -6.52383e-21)
(-0.909576 0.581398 0)
(-1.24146 -0.323049 0)
(-0.243804 -0.263478 0)
(-0.853189 0.544483 -3.30834e-21)
(-1.18393 -0.303622 0)
(-0.264998 -0.279301 6.70407e-21)
(-1.36884 -0.390257 0)
(-1.02606 0.632192 9.64819e-23)
(-0.158922 -0.198658 -5.96224e-23)
(-0.201824 0.037342 0)
(-0.381772 -0.260891 5.87407e-21)
(-0.465886 -0.0881314 -1.16548e-20)
(-0.081134 -0.135594 9.15913e-21)
(-1.10226 0.656504 -9.53236e-21)
(-1.43963 -0.455025 0)
(-0.399696 0.093043 3.43319e-21)
(-0.572166 -0.257421 0)
(-0.129699 -0.113116 0)
(0.0838032 -0.042892 -1.04387e-20)
(-1.45981 -0.666749 -1.24696e-21)
(-1.26035 0.562774 3.83156e-21)
(-1.26701 0.43373 -6.8987e-21)
(0.0946196 -0.0319937 0)
(-1.37898 -0.767668 -1.53936e-21)
(0.039755 -0.0137261 0)
(-1.35246 0.345109 0)
(-1.35033 -0.884477 1.74539e-22)
(-0.946895 0.41781 0)
(-1.00973 0.434786 4.03793e-21)
(-1.19268 -0.526314 7.79091e-21)
(-1.24463 -0.569418 -3.62087e-21)
(0.0185345 -0.0901259 -4.89917e-21)
(0.0446183 -0.0724153 1.26414e-20)
(0.0852859 -0.0267526 -5.96725e-22)
(-1.25415 0.403615 6.749e-21)
(-1.3528 -0.787444 0)
(-0.356728 -0.0304057 -1.63917e-23)
(-0.167767 -0.0535316 6.98666e-21)
(-0.393698 -0.211961 0)
(-0.144358 0.102715 0)
(-0.703161 0.0438564 -4.76402e-21)
(-0.749643 -0.517217 0)
(-0.279573 0.177128 1.33793e-20)
(-0.599153 -0.453288 0)
(-0.696717 -0.0592421 -1.82069e-20)
(-1.26074 0.594683 0)
(0.0684106 -0.0144433 0)
(-1.36509 -0.665227 5.12533e-22)
(-0.566289 0.20488 1.37263e-20)
(-0.788042 -0.347359 3.35833e-21)
(-0.069447 -0.114005 1.03557e-20)
(-1.02671 0.507378 5.1582e-21)
(-0.960142 0.460025 -9.77653e-21)
(-1.29529 -0.518706 -6.52989e-21)
(-0.00337954 -0.101705 5.61213e-21)
(-1.22213 -0.498869 3.74189e-21)
(-0.00810646 -0.106222 -5.24204e-21)
(-1.31221 0.614476 -2.21797e-21)
(-1.48283 -0.679578 -7.99299e-22)
(0.0819782 -0.0215271 -2.80481e-21)
(-0.812364 0.359578 0)
(-1.05471 -0.454746 -5.56154e-21)
(-0.0257686 -0.118412 1.1824e-20)
(-0.4102 0.217169 0)
(-0.354842 -0.306719 -9.67934e-21)
(-0.705939 -0.176027 4.53861e-22)
(0.0279341 -0.00293799 0)
(-1.29877 0.319527 0)
(-1.32527 -0.867294 0)
(-1.12284 0.451396 0)
(-1.32378 -0.651024 -9.04238e-21)
(0.0806559 -0.0493192 -1.34344e-20)
(-0.535293 0.234259 0)
(-0.774582 -0.291703 0)
(-0.159692 -0.186634 0)
(-0.654809 0.144201 0)
(-0.8151 -0.471065 0)
(-0.0235805 -0.0115207 0)
(-0.253708 0.168454 0)
(-0.665457 -0.495207 0)
(-0.717197 -0.0287852 9.84218e-21)
(-0.141229 0.0890423 -1.36257e-21)
(-0.670605 0.0361194 -1.04064e-20)
(-0.724775 -0.491537 1.07064e-20)
(-0.95587 0.309222 1.0683e-20)
(-1.13512 -0.618692 0)
(0.0580095 -0.0335947 3.02575e-20)
(-0.0990191 0.0303031 0)
(-0.563794 0.0394088 1.12459e-20)
(-0.637956 -0.404399 -2.77434e-21)
(-0.939585 -0.665317 0)
(-0.86858 0.100101 1.07315e-20)
(-1.01519 -0.69597 0)
(-0.919928 0.146903 6.1762e-21)
(-0.137459 0.11006 0)
(-0.0862562 0.0784962 0)
(-0.687979 0.104782 1.44438e-21)
(-0.805611 -0.509484 5.5861e-21)
(-0.0545995 0.0287815 -5.91556e-21)
(-1.34518 0.577626 -3.43856e-21)
(0.0939242 -0.0303009 0)
(-1.46256 -0.719168 -2.03311e-21)
(-1.28505 0.606001 -1.70414e-21)
(0.0735829 -0.0142592 -1.2848e-21)
(-1.42326 -0.669047 0)
(-1.1475 0.481533 -5.6929e-21)
(-1.35305 -0.647226 0)
(0.0791408 -0.0521375 1.52648e-20)
(-0.52447 0.311125 0)
(-0.83849 -0.194093 2.42595e-21)
(-0.387547 -0.348448 5.52268e-21)
(-0.652729 0.0789997 9.43605e-21)
(-0.0810768 0.0486871 2.87849e-21)
(-0.752314 -0.477795 0)
(0.100139 -0.0361116 0)
(-1.44448 -0.769167 0)
(-1.36446 0.522624 2.7555e-21)
(-0.465367 0.274195 0)
(-0.781123 -0.170585 -5.37566e-21)
(-0.402987 -0.343399 1.44993e-21)
(-0.0996881 0.0462381 0)
(-0.5877 0.040121 0)
(-0.656418 -0.425005 0)
(-0.602048 0.112168 4.67471e-21)
(-0.754833 -0.438328 0)
(-0.035772 -0.0158677 0)
(-0.935799 -0.443536 9.13561e-25)
(-0.0110611 -0.0894799 -7.00716e-21)
(-0.758925 0.322833 1.41056e-20)
(-1.00118 -0.434098 0)
(-0.0304328 -0.114507 -1.48152e-20)
(-1.29106 0.504521 -6.80516e-21)
(0.100338 -0.0376516 9.48612e-21)
(-1.43338 -0.734244 -6.39529e-21)
(0.053035 -0.00931006 8.70972e-21)
(-1.24757 0.341812 4.35009e-21)
(-1.31873 -0.825486 7.83894e-21)
(-1.33891 0.398297 -1.09847e-20)
(-1.38147 -0.831453 0)
(0.0770342 -0.0270439 -8.5483e-21)
(-0.736506 -0.589581 -5.85847e-22)
(-0.856741 -0.0353495 4.15235e-21)
(-0.370375 0.267175 0)
(-0.59647 0.168343 -2.10047e-20)
(-1.08424 0.669698 4.9813e-21)
(-0.110215 -0.153666 -5.6391e-21)
(-1.43931 -0.440861 0)
(-1.3977 -0.832261 0)
(-1.3683 0.434306 -9.09508e-21)
(0.085824 -0.0338614 0)
(-0.347358 0.00686169 -1.70333e-20)
(-0.155685 -0.079512 -5.66537e-21)
(-0.440603 -0.219486 1.67341e-20)
(-0.623579 0.285537 0)
(-0.869741 -0.348649 -3.30954e-22)
(-0.112578 -0.157845 -5.69308e-21)
(0.0350722 -0.00152295 6.70703e-21)
(-1.25539 0.323771 0)
(-1.30867 -0.846017 -9.03721e-21)
(-0.654067 0.202447 1.67824e-20)
(-0.912879 -0.452169 1.36816e-20)
(-0.00488979 -0.07598 0)
(0.0877569 -0.0284004 0)
(-1.41391 -0.72132 6.01802e-22)
(-1.34705 0.57591 0)
(-0.316372 0.229245 0)
(-0.858356 -0.00769494 0)
(-0.792874 -0.628899 0)
(-1.28972 0.383167 9.63276e-21)
(-1.35959 -0.811591 0)
(0.075796 -0.0235496 -5.03195e-23)
(-0.797213 0.125964 4.11046e-21)
(-0.9111 -0.601094 -4.10845e-21)
(-0.0613392 0.0538391 0)
(-0.811488 0.384541 0)
(-1.06491 -0.43535 5.21513e-21)
(-0.0521233 -0.133698 9.29353e-21)
(-1.21513 -0.851635 -1.25409e-20)
(-1.16641 0.221263 -8.00753e-21)
(-0.0532489 0.0549934 5.28174e-21)
(-0.988715 0.16296 0)
(-1.07559 -0.744087 -5.3437e-21)
(-0.0862473 0.0783062 -1.94151e-22)
(0.0849971 -0.0327166 -8.29681e-21)
(-1.38466 -0.731276 0)
(-1.3579 0.557956 -1.30631e-21)
(-0.375811 0.235316 7.18438e-21)
(-0.533206 -0.425756 -6.928e-21)
(-0.747508 -0.108847 7.80113e-22)
(-1.16995 0.632532 1.38394e-21)
(0.0537099 0.00451106 -1.20376e-20)
(-1.38563 -0.582697 0)
(-0.150438 -0.015495 -3.33879e-21)
(-0.411097 -0.0319463 -1.32768e-20)
(-0.427121 -0.255936 1.64274e-20)
(-0.808966 0.181782 4.82884e-21)
(-0.76763 0.136071 2.8893e-23)
(-0.958849 -0.583078 -1.01495e-20)
(-0.893088 -0.572615 0)
(-0.0425434 0.0358827 5.3775e-21)
(-0.00252225 0.010078 -5.52993e-21)
(-0.0511222 -0.109883 -1.19884e-20)
(-1.14206 0.668721 5.14742e-21)
(-1.48525 -0.475981 -5.63267e-21)
(-0.754708 0.369774 0)
(-1.01379 -0.391181 0)
(-0.0984828 -0.159895 -1.21939e-20)
(-1.05486 0.202778 -2.15605e-21)
(-1.13601 -0.781848 0)
(-0.0534203 0.0581318 0)
(-1.08128 0.486013 -4.9445e-21)
(-1.3163 -0.581118 0)
(0.0479116 -0.0720894 5.51354e-21)
(-0.274687 -0.0541092 3.48697e-21)
(-0.329055 -0.124669 5.11822e-21)
(-0.248234 -0.10769 -1.74521e-21)
(-0.892208 0.164638 -7.86405e-21)
(-1.00914 -0.665966 0)
(-0.0473059 0.0531322 -9.0998e-21)
(-0.771863 0.396275 0)
(-1.04149 -0.381664 6.51863e-21)
(-0.118222 -0.174949 -7.73511e-21)
(-0.689076 0.23971 0)
(-0.752726 0.272046 1.66065e-21)
(-0.394632 0.253155 2.58099e-21)
(-0.554786 -0.448162 2.00345e-20)
(-0.774062 -0.101123 -1.8592e-20)
(-0.942441 0.204154 -8.01396e-21)
(-1.06409 -0.68709 8.29922e-21)
(-0.0109402 0.0305666 8.30316e-21)
(-1.12478 0.498395 0)
(0.0636357 -0.0618656 -1.95545e-20)
(-1.35719 -0.612416 -4.16411e-21)
(-0.275165 0.159344 -1.85323e-20)
(-0.55517 -0.425749 0)
(-0.667475 -0.0636549 6.12848e-21)
(-0.169811 0.133927 -1.07048e-20)
(-0.892922 0.0888507 -6.13343e-21)
(-0.945829 -0.693494 0)
(-0.940351 0.499 -4.97917e-21)
(-1.22767 -0.436908 -5.36792e-21)
(-0.0797029 -0.14847 3.45593e-21)
(-0.345947 0.234689 9.27972e-22)
(-0.652125 -0.513257 0)
(-0.786978 -0.052371 1.30223e-20)
(-0.995132 0.534251 0)
(-1.03332 0.540979 0)
(-1.29049 -0.462226 -3.2312e-21)
(-0.0632736 -0.136706 -9.01099e-21)
(-1.32047 -0.500364 4.57127e-21)
(-0.0284193 -0.112834 9.54795e-21)
(0.100687 -0.0354766 -7.29351e-21)
(-1.45185 -0.746544 0)
(-1.34156 0.538275 -4.43367e-21)
(-0.899638 0.439088 5.82805e-21)
(-1.16342 -0.464634 0)
(-0.0389578 -0.12498 3.15194e-21)
(-1.2104 -0.612371 -3.52936e-21)
(0.0458144 -0.00692686 1.05487e-20)
(-1.13024 0.572111 7.09229e-22)
(-0.505566 -0.00469951 -6.19605e-21)
(-0.129097 0.0295822 0)
(-0.539159 -0.343916 0)
(-0.826499 0.251793 1.12471e-20)
(-1.01749 -0.553406 0)
(0.033868 -0.0323135 1.80301e-20)
(0.0961317 -0.0410888 -6.04581e-21)
(-1.24179 0.492658 1.41427e-20)
(-1.40671 -0.705525 5.35959e-21)
(-0.818169 -0.620112 0)
(-0.829947 0.0170775 5.51e-21)
(-0.25054 0.186691 -1.3183e-20)
(-1.24896 -0.854961 -1.45327e-20)
(-1.20141 0.257799 -4.78182e-21)
(-0.0173545 0.0297236 0)
(-0.813649 -0.407672 -1.42438e-20)
(-0.0262942 -0.0710901 0)
(-0.876534 0.321814 1.18915e-20)
(-1.07617 -0.535614 4.66833e-21)
(0.0373274 -0.0662503 5.47193e-21)
(-0.802596 -0.428149 8.26563e-21)
(-0.0183893 -0.0534219 -3.58603e-23)
(-1.22161 0.649217 -3.24125e-22)
(0.0273369 -0.056954 7.09451e-21)
(-1.51302 -0.567154 -2.8524e-21)
(-0.717898 -0.601527 0)
(-0.893314 -0.0548836 1.28643e-21)
(-0.424233 0.305205 0)
(-0.933333 0.353057 -1.21204e-20)
(-1.14815 -0.564981 -5.68815e-21)
(0.051141 -0.0591765 -6.57745e-21)
(-0.681156 0.138587 0)
(-0.825082 -0.499003 -8.11199e-21)
(-0.0285201 0.00442622 0)
(-0.718429 0.0145238 0)
(-0.721636 -0.527341 0)
(-0.197672 0.13171 0)
(-0.457707 0.13373 -4.7503e-21)
(-0.644933 -0.293981 -8.04784e-21)
(-0.107643 -0.118091 -5.56569e-24)
(-0.212584 0.164303 1.32661e-20)
(-0.873601 0.0575186 1.48366e-20)
(-0.898045 -0.670304 7.96731e-21)
(-1.31449 0.468123 -5.51924e-21)
(-1.41158 -0.766806 5.33219e-21)
(0.0998634 -0.0352601 -8.97922e-21)
(-1.25875 -0.831994 9.94952e-21)
(-1.18755 0.275849 4.84802e-21)
(0.00713786 0.0181066 6.78584e-21)
(-0.735597 0.478619 -1.01978e-20)
(-0.361224 -0.344514 1.00786e-20)
(-1.07519 -0.243284 -7.77262e-21)
(-1.07011 0.608213 2.81624e-21)
(-1.02361 0.578057 -2.64344e-21)
(-1.33472 -0.444107 -1.0267e-21)
(-1.38573 -0.461571 0)
(-0.0712544 -0.133607 -3.2559e-21)
(-0.0893573 -0.15056 -2.91893e-21)
(0.0512848 -0.00269309 -1.42911e-20)
(-1.26547 -0.603641 3.88911e-21)
(-1.14973 0.581321 1.08798e-21)
(-1.19002 0.643579 -1.17069e-22)
(0.0558605 0.00375426 1.66537e-20)
(-1.42788 -0.584314 0)
(-0.873761 0.21324 -1.79653e-20)
(-1.03071 -0.618496 -2.17787e-21)
(0.00913788 0.00872629 0)
(0.0998366 -0.0367318 -1.82602e-20)
(-1.31066 0.527429 4.41207e-21)
(-1.45207 -0.728208 0)
(-0.854863 0.508667 1.46841e-20)
(-0.908802 0.529429 -1.09255e-20)
(-1.16624 -0.349852 5.92302e-21)
(-1.21583 -0.380584 2.20507e-21)
(-0.203146 -0.230937 -5.76807e-21)
(-0.157611 -0.197883 -2.89075e-21)
(0.0812934 -0.0435009 0)
(-1.38257 -0.845795 0)
(-1.42791 0.430938 1.44955e-21)
(-1.09704 0.625085 -1.62493e-21)
(0.0472604 0.0111928 0)
(-1.34193 -0.551928 0)
(-0.405067 -0.106911 1.27473e-23)
(-0.224025 0.00589362 7.45719e-21)
(-0.299424 -0.192377 3.65639e-21)
(-1.19874 0.602263 -2.02263e-21)
(-1.35007 -0.6307 -7.49616e-22)
(0.0593005 -0.00481571 7.82335e-22)
(-0.59962 0.341442 0)
(-0.891995 -0.245379 -1.08811e-20)
(-0.303374 -0.293452 -8.80287e-23)
(-1.36882 0.505679 1.76501e-22)
(-1.4331 -0.786141 6.12998e-21)
(0.1002 -0.0369044 1.11913e-23)
(-1.06941 -0.61712 -9.34559e-23)
(0.0391379 -0.0206599 -6.10564e-21)
(-1.10336 0.485616 3.79712e-22)
(-0.296844 0.152226 -6.79925e-21)
(-0.427734 -0.331954 6.24445e-21)
(-0.617972 -0.112918 1.95753e-20)
(-0.437918 0.00394788 0)
(-0.50376 -0.293615 -1.82329e-20)
(-0.119827 -0.0196816 9.13943e-21)
(-1.29202 0.637436 0)
(0.0746794 -0.0181705 8.36519e-21)
(-1.49373 -0.660217 -1.8762e-22)
(-0.471922 0.0195975 0)
(-0.544278 -0.321655 -6.26701e-21)
(-0.104278 -0.00156186 -1.29655e-20)
(-0.372086 -0.101689 7.73708e-21)
(-0.226102 -0.0192673 -3.94199e-21)
(-0.291571 -0.169664 1.94824e-21)
(-0.300067 0.224007 6.40123e-21)
(-0.904424 0.0196399 -5.14755e-21)
(-0.871483 -0.690987 8.75763e-21)
(-0.486498 -0.0646692 0)
(-0.429698 -0.285873 0)
(-0.182369 0.0547632 1.08872e-21)
(-0.512409 -0.0257632 9.80561e-21)
(-0.502071 -0.325759 4.77174e-21)
(-0.158768 0.0531826 1.53264e-22)
(-0.67912 0.445798 1.55048e-20)
(-1.01709 -0.212683 -8.09182e-21)
(-0.41548 -0.387812 -9.98912e-21)
(0.0762971 -0.032415 1.26567e-20)
(0.0847072 -0.0314211 -1.2897e-20)
(-1.50697 -0.661033 1.4789e-21)
(-1.49438 -0.679917 1.13664e-21)
(-1.28989 0.622914 0)
(-1.30585 0.609144 -3.43466e-21)
(-1.34551 0.472779 6.90391e-21)
(-1.42206 -0.782817 -4.13613e-21)
(0.0995011 -0.0359099 1.11406e-20)
(-0.347425 -0.343392 -6.44677e-21)
(-0.791314 0.525421 3.18252e-21)
(-1.13268 -0.256144 9.90534e-21)
(-0.403001 0.239525 -6.55939e-21)
(-0.463516 -0.380548 -6.35668e-21)
(-0.742654 -0.136045 6.0371e-21)
(-1.00693 0.135633 0)
(-1.06581 -0.772433 5.53107e-21)
(-0.135523 0.10884 2.00661e-22)
(-1.18595 -0.705337 -1.35248e-23)
(0.063074 -0.0423139 -5.70012e-21)
(-1.29255 0.487344 -4.41078e-22)
(0.0583938 -0.0236798 0)
(-1.36858 0.375448 0)
(-1.36384 -0.874973 2.95001e-21)
(-1.31374 0.59629 2.31943e-21)
(0.0818851 -0.0215819 0)
(-1.43973 -0.695316 -5.91789e-22)
(0.0308003 -0.013481 -2.27512e-32)
(-1.00479 -0.581103 2.39592e-21)
(-1.02326 0.472268 -6.62888e-22)
(-1.05105 -0.516972 -2.71823e-21)
(0.029154 0.000676306 2.26966e-32)
(-0.971425 0.534331 5.66433e-22)
(-1.17365 -0.695276 -1.10102e-20)
(-1.02742 0.290037 0)
(0.0447842 -0.00536376 -1.75061e-20)
(-1.33295 -0.805228 -3.53749e-22)
(0.0808437 -0.0520684 -5.83681e-21)
(-1.43386 0.464002 0)
(-1.15543 0.443528 -7.36431e-21)
(-1.33245 -0.682841 5.52916e-21)
(0.0877183 -0.0425739 8.99833e-21)
(-1.23175 0.69929 9.1366e-21)
(0.0299092 -0.0275934 5.03172e-21)
(-1.56273 -0.550583 0)
(-0.558821 0.174671 3.69853e-21)
(-0.0487968 -0.0866117 -3.55104e-21)
(-0.77374 -0.373976 3.46749e-21)
(-1.3831 -0.859493 1.40873e-21)
(0.0762503 -0.038345 6.19651e-21)
(-1.414 0.414429 1.90402e-21)
(-0.96684 0.110497 -5.96389e-21)
(-0.167068 0.132232 -3.609e-21)
(-1.0197 -0.747288 0)
(-1.15658 -0.773221 0)
(-1.06263 0.228338 0)
(-0.0197877 0.0391765 0)
(0.00819276 -3.1587e-06 0)
(-0.605445 -0.317348 3.42247e-21)
(-0.594244 0.29899 -1.68454e-21)
(-1.20053 -0.641257 -1.0781e-21)
(0.0495666 -0.0156095 -7.367e-21)
(-1.16582 0.552711 -7.1919e-22)
(-0.501651 0.137617 -9.49961e-21)
(-0.0698541 -0.0887515 8.54751e-21)
(-0.693479 -0.340262 4.10908e-21)
(-1.40522 -0.809185 4.2111e-21)
(-1.40976 0.47753 -2.75639e-21)
(0.0926859 -0.0422925 0)
(0.0781988 -0.0479764 -6.46782e-21)
(-1.44723 0.432495 0)
(-1.35967 -0.849443 -3.17231e-21)
(-1.29022 0.5588 -4.058e-21)
(0.0919816 -0.0380198 1.94957e-20)
(-1.46782 -0.693306 0)
(-0.00732691 -0.0835864 -1.45001e-20)
(-1.47653 -0.52747 3.98508e-21)
(-1.16691 0.641167 0)
(-0.652335 0.44947 -1.95065e-20)
(-1.00854 -0.187905 1.03078e-20)
(-0.482572 -0.43995 -3.16177e-21)
(-1.29365 -0.407869 1.53314e-21)
(-0.974755 0.576613 6.31806e-21)
(-0.142351 -0.186991 -8.95551e-21)
(-0.0103248 -0.0733826 -1.295e-20)
(-1.19399 0.688972 0)
(-1.53777 -0.517631 0)
(-0.639459 0.335606 -3.26201e-21)
(-0.709957 0.376214 0)
(-0.910397 -0.300968 -1.13025e-20)
(-0.98921 -0.334585 1.20938e-20)
(-0.204607 -0.221061 1.60436e-21)
(-0.176356 -0.21044 -1.7094e-21)
(-0.587863 0.320864 3.13013e-21)
(-0.870549 -0.26283 0)
(-0.262445 -0.260106 3.03319e-21)
(-0.8394 0.521792 0)
(-1.16071 -0.327105 -9.5791e-21)
(-0.243302 -0.260481 2.08021e-21)
(-1.22438 -0.80253 -5.15949e-21)
(-1.14065 0.262779 5.23891e-21)
(0.00626203 0.0196688 -1.38478e-20)
(-1.40689 -0.820393 0)
(-1.36164 0.458279 1.00084e-20)
(0.0932659 -0.0360829 0)
(0.0487867 -0.00572205 -4.48038e-21)
(-1.18351 0.322443 -3.12299e-21)
(-1.28216 -0.793994 -3.29765e-21)
(-1.12102 -0.526227 4.1282e-22)
(0.0342755 0.0039225 3.93044e-21)
(-1.01535 0.558745 0)
(-0.38228 0.180539 6.30501e-21)
(-0.39125 0.169419 0)
(-0.298144 -0.254714 0)
(-0.653409 -0.185401 2.3475e-20)
(-0.25398 -0.225189 0)
(-0.645444 -0.209855 -1.49853e-20)
(-0.735456 0.452888 0)
(-0.658953 0.404006 0)
(-0.331125 -0.317658 1.85245e-23)
(-1.04961 -0.28177 6.42611e-21)
(-0.292583 -0.288462 1.52815e-20)
(-0.974987 -0.248892 -1.3829e-20)
(-1.04499 -0.640222 0)
(0.0439132 -0.0311176 8.34199e-21)
(-1.15673 0.471439 0)
(-1.41107 -0.801199 -3.04347e-21)
(-1.39477 0.479687 9.78675e-22)
(0.0956579 -0.0394705 3.90749e-21)
(-0.455174 0.289169 -1.11183e-20)
(-0.531373 -0.4458 -7.12043e-21)
(-0.817207 -0.126142 1.91711e-20)
(-1.16573 -0.819668 1.13133e-20)
(-1.10383 0.195735 1.35031e-20)
(-0.0712902 0.0693274 0)
(-0.0271281 -0.099458 1.55056e-20)
(-1.45483 -0.508435 -4.23713e-21)
(-1.14163 0.637003 6.5522e-21)
(-1.3182 -0.690537 0)
(-1.29033 0.562043 0)
(0.0691063 -0.0243723 0)
(-1.33946 -0.719681 0)
(-1.32658 0.547096 1.75057e-21)
(0.0774804 -0.0327908 1.40769e-21)
(-0.901155 0.50368 -6.16228e-21)
(-1.19723 -0.405444 3.31767e-21)
(-0.125061 -0.177281 4.27508e-21)
(-0.236556 0.134646 -1.76777e-21)
(-0.564459 -0.413454 0)
(-0.635681 -0.0428187 -9.71518e-23)
(-1.30947 0.578065 4.72831e-21)
(0.0911755 -0.0344758 1.12844e-20)
(-1.48523 -0.694655 -1.32314e-21)
(-1.2023 -0.732105 0)
(-1.07233 0.296291 0)
(0.0428988 0.00140302 1.51085e-20)
(0.0642121 -0.0583625 3.73841e-21)
(-1.40549 -0.622964 6.94918e-21)
(-1.17462 0.542753 1.46479e-20)
(-0.619112 0.387097 0)
(-0.381736 -0.353198 -1.03318e-20)
(-0.940399 -0.222722 7.18296e-21)
(-0.769574 0.0920499 1.10543e-22)
(-0.851817 -0.577332 6.02437e-21)
(-0.106664 0.0808851 0)
(-0.348005 0.196957 5.77488e-23)
(-0.467125 -0.375838 -2.12286e-21)
(-0.689381 -0.11937 -7.90732e-21)
(0.0967161 -0.0332985 5.41095e-24)
(-1.46999 -0.726038 2.73348e-21)
(-1.33607 0.563057 4.6238e-21)
(-1.08063 0.52068 -2.79764e-21)
(-1.33986 -0.557185 -2.35101e-21)
(0.0245387 -0.0834507 0)
(-0.30488 0.14426 -6.83768e-21)
(-0.373894 -0.293049 1.36827e-20)
(-0.602258 -0.134161 -1.29209e-20)
(-1.20961 0.704066 3.87105e-21)
(0.00116415 -0.057018 5.71207e-21)
(-1.56135 -0.525056 -1.75041e-21)
(-0.534357 0.257615 -4.00062e-21)
(-0.790514 -0.275429 0)
(-0.201194 -0.214435 0)
(-0.565204 0.0776604 -1.74184e-20)
(-0.679516 -0.405821 3.82761e-21)
(-0.0632102 0.00416477 0)
(-1.13743 -0.730957 0)
(-1.01724 0.228977 1.14595e-20)
(-0.00192387 0.0300515 0)
(-1.21834 0.670305 -1.59877e-21)
(0.0526466 -0.00305561 -1.77457e-21)
(-1.5071 -0.582858 -3.19603e-22)
(-1.21312 0.68599 4.50277e-21)
(0.0444752 -0.00633689 0)
(-1.53053 -0.56316 -6.38831e-22)
(0.0500948 -0.0632959 3.34164e-21)
(-1.42412 -0.601204 -3.75473e-21)
(-1.17535 0.565577 -1.35009e-20)
(-0.804886 0.0746555 -5.34146e-21)
(-0.878746 -0.619297 -6.05021e-21)
(-0.145815 0.105503 0)
(0.0500118 0.00643009 1.62571e-21)
(-1.46232 -0.568988 2.8993e-22)
(-1.16713 0.657535 0)
(0.0943315 -0.0391961 0)
(-1.37093 -0.710535 -3.93947e-21)
(-1.21289 0.459959 -1.67784e-21)
(0.0226441 -0.0145979 6.70132e-21)
(-0.853932 -0.53982 -2.19134e-21)
(-0.924015 0.402063 0)
(-0.826162 0.501174 2.63561e-22)
(-0.942886 -0.436566 0)
(0.0210652 0.00667973 6.69214e-21)
(0.00165738 -0.0704562 -2.22672e-23)
(-1.51548 -0.53875 0)
(-1.19482 0.668814 0)
(0.0939358 -0.03164 0)
(-1.44449 -0.737477 0)
(-1.36147 0.563733 5.30648e-21)
(-1.26984 0.617569 -4.31827e-21)
(-1.24757 0.598377 3.49311e-21)
(0.0673525 -0.0401625 -6.35704e-21)
(-1.50832 -0.632357 -5.57658e-22)
(0.0677416 -0.0458063 -1.03788e-20)
(-1.48406 -0.633147 1.29847e-21)
(-1.21515 0.43352 3.34002e-21)
(-1.35777 -0.733764 2.72525e-21)
(0.093269 -0.0347749 0)
(-0.124137 0.104358 0)
(-1.11546 -0.815784 0)
(-1.06894 0.157468 0)
(-0.370624 0.126045 0)
(-0.204416 -0.180381 -1.90201e-20)
(-0.589436 -0.218861 8.18683e-21)
(-1.17319 0.363333 9.85504e-21)
(-1.29657 -0.757403 1.10721e-21)
(0.0746224 -0.0200382 1.31691e-20)
(0.0588893 -0.00995619 8.56968e-21)
(-1.15193 0.33582 -1.37131e-20)
(-1.26626 -0.764811 -1.53414e-21)
(-1.1664 0.697761 4.90477e-21)
(-0.0422687 -0.0967701 6.18891e-21)
(-1.52558 -0.482225 5.87822e-21)
(-0.762266 0.477625 0)
(-1.08601 -0.283422 2.85695e-21)
(-0.298535 -0.297293 -1.49804e-20)
(-0.655445 0.379676 0)
(-0.948086 -0.265089 1.42853e-20)
(-0.288271 -0.287849 -4.50251e-23)
(-1.02547 0.335153 -1.35713e-20)
(-1.19953 -0.665372 1.49499e-21)
(0.0679557 -0.0289237 -7.64322e-21)
(-1.0574 0.330757 0)
(-1.21354 -0.691109 1.41011e-21)
(0.0651757 -0.0212032 6.98655e-21)
(-0.266471 0.1114 0)
(-0.372188 -0.279628 -2.16294e-20)
(-0.55263 -0.118625 7.25663e-21)
(-0.73406 0.401775 0)
(-1.01559 -0.331482 0)
(-0.188645 -0.223334 2.29748e-21)
(0.0637085 -0.0341676 -1.34089e-20)
(-1.36398 -0.877157 -7.95617e-21)
(-1.41633 0.391999 0)
(-1.35455 0.523193 1.51676e-21)
(0.0763789 -0.0405274 0)
(-1.29315 -0.737456 1.47016e-22)
(-1.34465 0.493488 -4.14582e-22)
(0.0708832 -0.0450925 0)
(-1.24766 -0.732296 -1.21894e-22)
(-0.468322 0.25904 4.66732e-21)
(-0.348112 -0.303712 -2.26106e-21)
(-0.76436 -0.198544 -2.17393e-22)
(-1.24112 -0.667964 3.47359e-22)
(0.060299 -0.0251263 1.12796e-20)
(-1.25297 0.542 0)
(-1.13211 0.560507 1.18263e-20)
(0.0278418 -0.0767906 7.09568e-21)
(-1.39426 -0.567972 0)
(0.0570296 -0.0339904 -1.67766e-21)
(-1.17531 -0.68554 7.91979e-22)
(-1.24657 0.501542 0)
(-0.404408 0.0365422 1.18467e-20)
(-0.118625 -0.0584007 1.16368e-20)
(-0.512051 -0.267568 1.40562e-23)
(-0.791033 0.312049 -2.07153e-21)
(-1.02054 -0.474815 -1.77866e-21)
(0.00146572 -0.0908865 -8.02178e-21)
(-0.806392 -0.58738 1.37927e-20)
(-0.77854 0.0401826 1.27905e-20)
(-0.192604 0.134228 0)
(0.0844157 -0.0488397 0)
(-1.35902 -0.814458 -6.94106e-22)
(-1.43373 0.466172 0)
(-1.18291 -0.748243 0)
(-1.07 0.272757 0)
(0.0244923 0.0129795 0)
(0.0242662 -0.041468 0)
(-1.2328 0.691579 -3.23392e-21)
(-1.56028 -0.551819 1.7211e-21)
(-0.861634 0.344406 0)
(-1.08154 -0.512419 9.17069e-22)
(0.0216551 -0.0807838 7.83722e-21)
(-0.344862 0.100403 0)
(-0.203129 -0.169692 1.6347e-20)
(-0.548709 -0.207474 0)
(-1.39469 -0.801098 -3.97584e-21)
(-1.40843 0.497422 2.62143e-21)
(0.0917486 -0.0439284 0)
(0.0891329 -0.0456378 -7.7652e-21)
(-1.40245 -0.680875 2.4878e-22)
(-1.21405 0.511248 3.69612e-22)
(-1.26433 0.64165 0)
(-1.24825 0.638025 2.38284e-21)
(0.0667318 -0.00941659 -4.11766e-21)
(0.0658758 -0.00668 -5.05255e-21)
(-1.48031 -0.626364 -9.10388e-23)
(-1.45349 -0.630209 7.49422e-23)
(-0.764641 0.188951 0)
(-0.925418 -0.549637 2.37588e-20)
(0.000575435 -0.00495739 8.64344e-21)
(-1.11405 -0.661056 1.54667e-20)
(-0.965449 0.256204 0)
(0.0331444 -0.00013386 -9.32566e-21)
(-0.512241 0.0948589 -9.80073e-21)
(-0.661042 -0.361164 6.58463e-21)
(-0.0556709 -0.0407407 1.40133e-20)
(-1.33602 -0.769955 1.21082e-21)
(-1.39276 0.510096 2.11236e-21)
(-1.31662 -0.784051 -4.35313e-22)
(0.082615 -0.0441315 0)
(-1.40875 0.485184 -2.03782e-21)
(0.079691 -0.0491931 0)
(-1.00566 0.410377 0)
(-1.22135 -0.589772 0)
(0.0563732 -0.0629351 8.59214e-21)
(-1.39694 0.516212 3.87261e-21)
(-1.39156 0.521229 -6.95751e-21)
(-1.40487 -0.778398 7.86721e-22)
(-1.37985 -0.764415 -2.74878e-21)
(0.092216 -0.0404285 1.1437e-20)
(0.0877888 -0.0398475 -1.31988e-23)
(-0.91947 0.231026 0)
(-1.06826 -0.659295 -1.474e-20)
(0.00734172 0.0175335 1.20904e-20)
(-0.69951 0.215739 9.18669e-21)
(-0.950001 -0.487894 -1.08053e-20)
(0.0155666 -0.0590935 0)
(-1.24065 0.687645 0)
(0.0436793 -0.0189114 0)
(-1.54804 -0.575713 6.14089e-22)
(-0.775625 0.217853 6.78139e-21)
(-0.950989 -0.535533 -6.61634e-21)
(0.0170452 -0.0215358 -1.42565e-20)
(-0.574976 0.133198 3.94136e-21)
(-0.746545 -0.409299 -7.73238e-21)
(-0.0307812 -0.0424519 8.04135e-21)
(-1.24352 0.65757 0)
(0.0602484 -0.00846094 0)
(-1.50951 -0.610012 -9.26572e-22)
(-0.88405 0.376071 0)
(-1.12568 -0.499664 1.80857e-21)
(0.0131127 -0.0928894 -8.55275e-21)
(-0.998723 -0.755639 0)
(-0.966824 0.0885954 0)
(-0.212008 0.163477 -4.64411e-22)
(-0.623862 0.403116 -5.02762e-22)
(-0.955232 -0.204548 0)
(-0.417933 -0.383569 1.5802e-20)
(-1.29204 -0.884476 5.52976e-21)
(-0.00387181 0.0155776 0)
(-1.27041 0.284906 0)
(0.0159852 -0.00219003 -1.61013e-20)
(-0.804985 -0.429249 -4.78781e-21)
(-0.785234 0.39979 2.35717e-21)
(-0.818472 0.274744 0)
(-1.00954 -0.52222 6.60136e-21)
(0.0309155 -0.0533619 -7.22116e-21)
(-1.26673 0.658819 6.40042e-21)
(0.0572238 -0.0285656 2.14053e-20)
(-1.53651 -0.606503 0)
(-0.60089 -0.520225 -4.17606e-21)
(-0.937516 -0.122905 -6.96034e-21)
(-0.536656 0.375171 -4.37434e-21)
(-0.977804 0.576564 0)
(0.0361678 0.0121455 -5.93724e-21)
(-1.18583 -0.514936 0)
(-0.151229 0.0755763 8.7156e-21)
(-0.17539 0.0994673 -8.90017e-21)
(-0.595465 -0.4085 0)
(-0.588042 -0.00255365 8.32854e-21)
(-0.633753 -0.445581 -1.37939e-20)
(-0.631875 -0.00721657 -6.65652e-21)
(-0.508084 0.0639565 9.23339e-21)
(-0.619916 -0.35586 8.80856e-21)
(-0.0730639 -0.0150844 0)
(-0.24632 0.127821 7.81318e-21)
(-0.193371 0.0948323 0)
(-0.487928 -0.361797 -7.75379e-21)
(-0.600471 -0.0763978 7.44398e-21)
(-0.51212 -0.361401 7.81457e-21)
(-0.56859 -0.046276 3.32394e-23)
(-0.763208 0.253628 5.77178e-22)
(-0.885856 -0.47392 -4.77687e-21)
(0.0034193 -0.0456972 -9.82196e-21)
(-0.704533 0.197869 -1.58201e-20)
(-0.889424 -0.490006 1.24436e-22)
(0.00237949 -0.0309995 0)
(0.0726269 -0.0514894 0)
(-1.25179 -0.76353 0)
(-1.38624 0.475831 1.23028e-21)
(-0.523558 0.280591 -4.30583e-21)
(-0.802987 -0.233539 0)
(-0.283862 -0.266904 4.18363e-21)
(-1.37693 0.534875 -8.71398e-21)
(-1.43445 -0.76576 1.61218e-21)
(0.0965875 -0.0357406 -6.521e-21)
(-1.06183 0.378006 0)
(-1.11865 0.404682 7.08238e-21)
(-1.2461 -0.658308 -1.86506e-21)
(-1.2931 -0.681685 5.40942e-21)
(0.0775169 -0.0380227 -9.43741e-21)
(0.084742 -0.0377854 -8.68287e-21)
(-0.496992 0.249906 0)
(-0.765777 -0.243393 0)
(-0.250705 -0.243913 2.01382e-21)
(-0.808922 0.468975 4.93373e-21)
(-1.10601 -0.339978 0)
(-0.203648 -0.230124 4.96882e-21)
(-0.95322 0.344878 -3.84876e-21)
(-1.15345 -0.600205 0)
(0.0603817 -0.0465678 0)
(-0.2659 0.0331085 9.0571e-21)
(-0.445624 -0.149515 -4.42025e-21)
(-0.248973 -0.1751 4.44973e-21)
(-1.13212 0.369802 0)
(-1.27897 -0.723113 0)
(0.077875 -0.0252059 -1.4008e-20)
(-0.340092 0.127989 0)
(-0.260802 -0.216823 2.38604e-21)
(-0.581481 -0.18575 0)
(-0.918848 0.25447 -8.88244e-21)
(-1.07516 -0.636564 -8.31916e-21)
(0.0321555 -0.00801972 -1.21343e-21)
(-0.799297 0.442034 5.04324e-21)
(-1.0872 -0.358898 0)
(-0.16557 -0.208075 1.02779e-20)
(-0.280574 0.064246 -8.97519e-21)
(-0.25824 0.0661034 -3.96765e-21)
(-0.488521 -0.161606 4.37801e-21)
(-0.256256 -0.193489 -8.83857e-21)
(-0.492284 -0.138511 0)
(-0.302201 -0.224601 -1.56645e-20)
(-0.220154 0.08454 -3.93735e-21)
(-0.413409 -0.299239 1.01151e-20)
(-0.19307 0.0806547 2.52951e-21)
(-0.526898 -0.085827 -1.00907e-20)
(-0.49102 -0.343954 -4.93172e-21)
(-0.545375 -0.0534765 2.09866e-22)
(-0.614319 0.306489 4.7408e-21)
(-0.673035 0.325127 0)
(-0.87729 -0.310626 8.52188e-21)
(-0.927158 -0.350266 -6.65983e-21)
(-0.173518 -0.199905 -9.3505e-21)
(-0.12373 -0.169215 1.55481e-20)
(0.0136944 -0.0759987 0)
(-1.45382 -0.553639 -2.22638e-21)
(-1.16786 0.612537 -6.67744e-21)
(-0.2412 0.18352 5.66589e-21)
(-0.914183 0.0556924 8.11916e-21)
(-0.927763 -0.709439 -1.38609e-20)
(0.0333529 -0.0612651 -7.25236e-21)
(0.0510423 -0.0560758 5.81165e-21)
(-1.48004 -0.582973 1.92779e-21)
(-1.46527 -0.605425 3.4361e-21)
(-1.20363 0.62382 1.68545e-20)
(-1.21331 0.60052 -8.72956e-21)
(-0.379281 0.262383 8.09271e-21)
(-0.671344 -0.537556 -6.74283e-21)
(-0.822479 -0.0610532 1.90001e-21)
(-0.270809 -0.0214976 1.53828e-20)
(-0.234647 -0.125737 0)
(-0.372595 -0.140995 -1.52063e-20)
(-1.15785 0.402143 -3.31559e-21)
(-1.31019 -0.716809 -6.11373e-21)
(0.0863232 -0.0318824 0)
(-0.429006 0.21015 0)
(-0.292843 -0.266791 -1.9183e-21)
(-0.700721 -0.201637 -7.58635e-21)
(-0.838756 0.45664 0)
(-1.12506 -0.38431 0)
(-0.135231 -0.186215 -9.56217e-21)
(-1.10087 0.603892 -7.46746e-21)
(-1.09179 0.577891 0)
(-1.40407 -0.503864 1.40509e-21)
(-0.0345775 -0.109686 -8.95543e-21)
(-1.382 -0.515848 -3.80971e-21)
(-0.0173739 -0.102147 1.21377e-20)