/*--------------------------------*- C++ -*----------------------------------*\
  =========                 |
  \\      /  F ield         | OpenFOAM: The Open Source CFD Toolbox
   \\    /   O peration     | Website:  https://openfoam.org
    \\  /    A nd           | Version:  6
     \\/     M anipulation  |
\*---------------------------------------------------------------------------*/
FoamFile
{
    version     2.0;
    format      ascii;
    class       volScalarField;
    location    "0";
    object      P_rec;
}
// * * * * * * * * * * * * * * * * * * * * * * * * * * * * * * * * * * * * * //

dimensions      [0 2 -2 0 0 0 0];

internalField   nonuniform List<scalar> 
918
(
0.55781
0.345504
0.105587
0.578101
-0.00193754
0.235735
-0.79236
0.521336
0.582767
-0.102554
0.0361706
0.452667
0.0687037
0.043637
-1.22565
0.0229206
0.578745
-0.721203
0.414895
0.0253335
-0.0605167
0.581429
0.51446
0.411893
0.497904
-0.0322134
0.136709
-0.036132
-0.0546081
-0.0418499
-0.00285422
0.0486575
0.0117906
0.205349
0.202076
0.245068
0.420413
0.213908
-0.654589
-0.707507
-0.695102
-0.86356
0.529915
0.543608
-0.291781
0.499333
0.473993
0.425164
0.561829
0.585687
0.518804
0.564172
0.59207
0.283887
-0.140115
-0.21286
-0.0616003
-0.0639226
0.0835189
0.030326
0.0174428
0.061926
0.0499341
0.372445
0.444234
0.439817
0.463042
0.463425
0.303189
0.262112
0.3079
0.0681967
0.20023
0.0453423
0.151892
0.0486412
0.0853121
0.0251279
0.00835017
-1.50316
-2.26989
-0.750143
-0.607929
0.0051098
0.0249615
0.0356245
0.566346
0.568507
0.564946
0.574098
0.726758
-0.646132
-0.835067
0.447246
0.446179
0.568937
0.523543
0.464887
0.401266
0.0225739
0.0183018
0.0116095
0.0410999
0.0316201
0.12069
0.233822
0.390662
0.422913
0.463374
0.488811
0.475509
0.204294
0.536744
0.540136
-0.0714402
0.0931046
-0.0343185
0.0420792
0.144753
0.111601
0.215299
0.251723
-0.0587602
-0.0102651
0.0395939
0.0056707
0.029865
0.42039
0.410477
0.434199
0.423473
0.42913
0.122021
0.0199661
0.280343
0.299672
-0.531517
-0.573032
-0.739045
-0.762973
-0.890804
0.512477
0.54664
0.562144
-0.392357
-0.258454
-0.430963
-0.179323
-0.224795
0.426651
0.419986
0.419785
0.427439
0.43206
0.432444
0.570554
0.563388
0.598072
0.29255
0.367955
0.268769
0.22437
-0.435454
-0.30009
-0.41807
-0.0349686
-0.00124766
0.0739177
0.108333
0.115654
0.0857863
-0.00157559
0.0135074
0.00386462
0.0218989
0.0235926
0.374469
0.359235
0.37455
0.384124
0.437834
0.435874
0.441776
0.442946
0.223918
0.215101
0.1748
0.150638
-3.07101
-5.26468
-0.4053
-0.308653
-0.00206471
-0.0128566
-0.00479996
-0.0806298
-0.0148216
-0.0405264
0.0723854
0.0460413
0.0379301
0.0557082
0.563165
0.574059
0.732944
0.77416
0.642798
0.640672
0.442447
0.452529
0.448333
0.449531
0.0347685
0.0199238
0.0357469
0.440066
0.33603
0.388763
0.168698
0.0751261
0.252601
0.290958
0.563507
0.547206
0.569384
-0.0684832
0.0115023
0.351442
0.113428
0.337788
0.17274
0.142873
0.186385
0.109677
0.389297
0.405707
0.402677
0.43164
0.438028
0.437934
0.439003
0.432135
0.43618
-0.137502
-0.439163
0.322878
0.324165
0.317787
0.340145
0.594646
0.669081
0.567074
0.557314
0.568501
-0.0778911
-0.118204
0.175838
0.160087
0.322482
0.338399
0.32852
0.14508
0.103352
0.143263
0.128623
0.103881
0.153318
-0.410958
-1.79868
-1.01822
-0.102501
-0.195164
-0.160333
0.0464395
0.106073
0.0751997
0.744353
0.793181
0.408291
0.564252
0.516818
-0.0936131
-0.0163365
0.0871714
-0.034254
0.0159799
0.0939059
0.0473189
0.394165
0.298571
0.349257
0.698053
0.768087
0.0404892
-0.0266748
-0.0655821
0.132208
0.130936
0.126151
0.782421
0.759832
0.794021
0.39871
0.389327
-0.055513
-0.0043427
0.497604
0.522368
-0.0583011
-0.0234086
-0.103315
-0.824901
0.0336712
0.449759
0.408308
0.463319
-0.120322
0.197759
0.00923698
0.0288653
-0.0237636
0.42452
0.354834
0.321725
-0.0574651
0.00974333
-0.00170452
-0.409386
0.456432
0.440444
0.44869
0.460068
0.473026
-0.00557755
-0.0128926
0.0291737
-0.0318955
0.0414704
0.0397687
0.430275
0.419692
-0.442251
0.442939
0.46637
0.465529
0.477884
0.479297
0.468053
-0.0108886
0.0321968
0.0393632
0.145405
0.251894
0.00959914
-0.0348382
0.0221054
-0.11872
-0.309537
-0.0299604
-0.018076
-0.0337114
-0.00419
0.531124
0.499829
0.117128
-0.0580606
0.114635
0.0759491
0.445273
0.462343
0.435267
0.446143
0.464678
0.416787
0.480016
0.449596
0.446516
0.488339
-0.0777825
-0.0238066
-0.0717474
-0.196844
0.28059
0.362776
0.188254
0.249091
0.1052
-0.00707234
0.0468026
-0.0125272
0.00705421
0.0113457
0.103951
0.0391313
0.139305
0.0230182
0.109972
-0.0263834
0.138629
0.00468764
0.408766
0.428472
0.42484
0.464906
0.385539
0.403879
0.379863
0.380086
0.397407
0.329289
0.347514
0.346634
0.0146165
0.0144948
0.0435566
0.0252407
0.0476247
-0.0254181
-0.0225049
-0.0235458
-0.00336118
-0.044145
-0.00679214
0.00080089
-0.331727
-0.502382
0.681344
0.554955
0.157838
0.41859
0.461366
0.435487
0.47139
0.481943
0.513478
0.479261
0.457032
0.426423
0.442069
0.42501
0.442311
-0.37056
-0.430796
-0.284948
-0.332801
0.127503
0.543985
0.29922
0.243774
0.234356
0.404977
0.338834
0.105543
-0.146047
-0.264012
-0.537792
-0.385224
-0.553448
-0.0975597
-0.0503893
-0.0613422
0.0123446
0.0831274
0.0224784
0.0068199
-0.112006
0.438058
-0.187299
-0.166441
0.0589406
-0.0224467
0.246013
0.531691
0.541871
0.477712
0.454798
0.514909
0.488825
0.48732
0.519941
0.526054
0.426029
0.191363
0.173504
0.108443
0.538637
0.447385
0.48437
0.372925
0.464242
0.468684
0.448381
0.438423
0.474332
0.437809
0.433491
0.411976
0.40582
0.443372
0.446423
0.418383
0.004305
-0.00880791
-0.0736027
-0.292068
-0.161543
-0.260715
-0.116055
0.0579141
-0.0295821
0.14833
0.297998
0.0420234
-0.194098
-0.0520889
-0.140834
0.141438
0.0651558
0.131433
0.138269
0.147266
0.144569
0.202284
0.173701
0.0397308
0.0504203
0.0805346
0.00335564
0.133185
0.0996461
0.159188
0.0647054
0.115281
0.0685534
0.0310078
0.0149312
0.108688
0.0599876
0.0184437
0.0316507
0.0204572
-0.0634168
-0.0585831
0.174815
0.0520146
0.44967
0.433869
0.435561
0.453995
0.486876
0.479986
0.425684
0.426247
0.452408
0.423739
0.394827
0.377661
0.369462
0.40012
0.41058
0.407618
0.447485
0.438867
0.410672
0.430505
0.37888
0.397795
0.351416
0.368022
0.392555
-0.0892584
0.0245825
-0.0315628
-0.0384845
0.014085
0.0507742
0.112341
0.034824
0.118096
0.0907767
0.0639134
0.0313352
0.0580429
-0.192042
-0.0665076
-0.366984
-0.416361
-0.515143
0.66532
0.728905
0.597813
0.463123
0.526414
0.611559
0.69106
0.417138
0.448705
0.518356
0.386198
0.690754
0.445196
0.430959
0.450981
0.470826
0.448366
-0.227758
-0.0986166
-0.0394257
0.0668904
0.185511
0.248643
0.0123618
0.0658533
0.169125
0.151031
0.524172
0.544573
0.510564
0.543552
0.53811
0.340437
0.429928
0.4626
0.455275
0.460625
0.481593
0.484654
0.482383
0.412836
0.406988
0.412909
0.369012
0.393001
0.365498
0.362272
0.422286
0.401119
0.402547
0.412796
0.460617
0.441398
0.46778
0.511744
0.493808
0.395017
0.37552
0.399514
0.409862
0.386959
0.386097
0.38223
0.0779847
0.11883
0.0725671
-0.121427
0.00988944
-0.0520889
-0.0961572
-0.0884004
0.0679147
-0.418138
-0.361849
-0.888494
0.333116
0.402051
0.205186
-0.0534335
0.43474
0.469228
0.454117
0.361395
0.371483
0.523008
0.545339
0.553394
0.477609
0.473861
0.49492
0.481126
0.429394
0.297454
0.236436
0.271957
0.116767
0.173327
0.33475
0.273322
0.228181
0.253992
0.35109
0.259179
0.28918
0.359102
0.320725
0.307229
0.441089
0.486182
0.50453
0.450561
0.356701
0.413008
0.403319
0.45161
0.49157
0.495243
0.4473
0.430808
0.440262
0.43159
0.420797
0.437673
0.408561
0.452982
0.457979
0.465749
0.459963
-0.00984009
0.0174505
0.0288354
-0.0165524
-0.0148462
-0.059687
-0.0443436
-0.0668087
0.080119
0.0583383
-0.030572
0.00029879
0.0914603
0.0456735
0.117551
0.134046
0.0788226
0.0219916
0.227967
0.365521
0.3557
0.317841
0.206348
0.214205
0.306813
0.0468313
0.133875
0.0867187
0.056534
0.0550051
0.0229882
0.113106
0.0514119
0.09036
0.042381
-0.104177
0.0470053
0.098239
-0.042638
0.0129733
0.0441619
0.413505
0.416386
0.400252
0.38129
0.388605
0.389028
0.423428
0.44867
0.450595
0.449163
0.455192
0.438624
0.444724
0.0161965
0.130379
0.15767
0.0936003
0.0509265
-0.00230059
-0.018684
0.0590675
-0.0122433
0.0605908
-0.15782
-0.263626
-0.194027
0.268599
0.305798
0.24978
0.632764
0.461532
0.354495
0.448817
0.588194
0.252267
0.394108
0.256337
0.671527
0.621144
0.711795
0.482487
0.0310063
0.15127
0.282992
-0.00561311
0.0231293
0.119438
0.11364
0.121432
0.116435
0.206836
0.152039
0.135673
0.012852
-0.00061105
0.194363
0.161677
0.271114
0.305467
-0.0657694
-0.00745967
-0.0569974
0.502171
0.526069
0.549208
0.522942
0.54303
0.481278
0.478658
0.510907
0.535262
0.523909
-0.726749
-0.457571
-1.32217
-0.649783
-0.331421
0.433309
0.196756
0.758762
0.60304
0.479122
0.501052
0.503074
0.464485
0.516648
0.519571
0.266147
0.360935
0.305267
0.343751
0.256736
0.185378
0.484861
0.470582
0.499766
0.520385
0.472891
0.518424
0.372629
0.413005
0.39444
0.427533
0.449557
0.468076
0.100781
0.0367844
0.0824501
0.0721503
0.0553604
0.0279854
-0.0377268
-0.00801061
0.169861
0.112144
0.0540337
0.10958
-0.113605
-0.0729701
-0.161382
-0.0950103
-0.177466
-0.280095
-0.266384
-0.26503
-0.20582
-0.118478
0.3965
0.576145
0.475731
0.621184
0.458385
0.595902
0.244802
0.279418
0.278655
0.217632
0.256829
0.0119117
-0.302649
-0.210465
0.810128
0.905255
0.579072
0.324912
0.0805355
0.376063
0.451495
0.381705
0.402495
0.484413
0.447731
-0.104157
-0.0235874
-0.0314262
0.0508144
0.133682
0.0677741
0.0752538
0.0967224
0.0953802
)
;

boundaryField
{
    wall-4
    {
        type            calculated;
        value           nonuniform List<scalar> 
100
(
0.55781
0.345504
0.105587
0.578101
0.235735
-0.79236
0.521336
-0.102554
0.0361706
0.452667
0.0687037
0.043637
-1.22565
0.578745
-0.721203
0.414895
0.0253335
-0.0605167
0.411893
0.497904
-0.0322134
0.136709
-0.036132
0.205349
0.420413
-0.707507
-0.86356
0.543608
-0.291781
0.473993
0.425164
-0.21286
-0.0639226
0.0174428
0.0499341
0.372445
0.439817
0.463425
0.20023
0.151892
0.0853121
0.00835017
-2.26989
-0.607929
0.568507
0.574098
-0.835067
0.446179
0.401266
0.0183018
0.0316201
0.233822
0.422913
0.475509
0.204294
0.540136
-0.0714402
0.0420792
0.111601
0.251723
0.410477
0.434199
0.42913
-0.573032
-0.890804
0.562144
-0.430963
-0.224795
0.419785
0.432444
-0.41807
-0.00124766
0.00386462
0.0235926
0.359235
0.384124
0.437834
0.442946
0.150638
-0.308653
0.574059
0.442447
0.449531
0.0357469
0.388763
0.0751261
0.290958
0.569384
0.0115023
0.17274
0.402677
0.437934
0.43618
0.568501
-0.118204
0.32852
0.128623
-0.160333
0.0159799
-0.0655821
)
;
    }
    velocity-inlet-5
    {
        type            calculated;
        value           nonuniform List<scalar> 8(0.55781 0.578101 0.582767 0.581429 0.585687 0.59207 0.568937 0.598072);
    }
    velocity-inlet-6
    {
        type            calculated;
        value           nonuniform List<scalar> 4(0.345504 0.235735 0.245068 0.3079);
    }
    pressure-outlet-7
    {
        type            calculated;
        value           uniform 0;
    }
    wall-8
    {
        type            calculated;
        value           nonuniform List<scalar> 
34
(
-0.00193754
0.0229206
0.0117906
0.213908
0.283887
0.0835189
0.0356245
0.726758
0.029865
0.0199661
0.299672
0.512477
0.367955
0.22437
0.108333
0.0857863
-5.26468
0.0723854
0.0557082
0.77416
0.640672
-0.439163
0.322878
0.340145
0.669081
0.160087
-1.01822
0.0751997
0.793181
0.516818
0.349257
0.768087
0.126151
0.794021
)
;
    }
    frontAndBackPlanes
    {
        type            empty;
    }
}

