/*--------------------------------*- C++ -*----------------------------------*\
  =========                 |
  \\      /  F ield         | OpenFOAM: The Open Source CFD Toolbox
   \\    /   O peration     | Website:  https://openfoam.org
    \\  /    A nd           | Version:  6
     \\/     M anipulation  |
\*---------------------------------------------------------------------------*/
FoamFile
{
    version     2.0;
    format      ascii;
    class       volScalarField;
    location    "0";
    object      p;
}
// * * * * * * * * * * * * * * * * * * * * * * * * * * * * * * * * * * * * * //

dimensions      [0 2 -2 0 0 0 0];

internalField   nonuniform List<scalar> 
40000
(
0.00349245
0.00349213
0.00349113
0.00348946
0.00348733
0.00348492
0.00348238
0.00347984
0.00347741
0.00347517
0.00347318
0.00347149
0.00347015
0.00346918
0.00346861
0.00346845
0.00346871
0.00346939
0.0034705
0.00347205
0.00347401
0.00347641
0.00347922
0.00348245
0.00348609
0.00349014
0.00349459
0.00349943
0.00350468
0.00351031
0.00351633
0.00352273
0.00352952
0.00353668
0.00354422
0.00355214
0.00356043
0.0035691
0.00357813
0.00358754
0.00359732
0.00360747
0.00361799
0.00362888
0.00364013
0.00365176
0.00366375
0.00367612
0.00368884
0.00370194
0.0037154
0.00372923
0.00374343
0.00375799
0.00377292
0.00378821
0.00380386
0.00381987
0.00383625
0.00385299
0.00387008
0.00388754
0.00390535
0.00392352
0.00394204
0.00396091
0.00398013
0.0039997
0.00401962
0.00403988
0.00406049
0.00408143
0.00410271
0.00412432
0.00414627
0.00416854
0.00419113
0.00421405
0.00423729
0.00426084
0.00428469
0.00430886
0.00433332
0.00435808
0.00438313
0.00440847
0.00443409
0.00445999
0.00448616
0.00451259
0.00453928
0.00456622
0.0045934
0.00462083
0.00464849
0.00467637
0.00470447
0.00473278
0.0047613
0.00479
0.00481889
0.00484796
0.0048772
0.00490659
0.00493614
0.00496582
0.00499564
0.00502558
0.00505562
0.00508577
0.00511601
0.00514632
0.00517671
0.00520715
0.00523763
0.00526815
0.00529868
0.00532923
0.00535977
0.0053903
0.0054208
0.00545126
0.00548166
0.005512
0.00554226
0.00557242
0.00560248
0.00563242
0.00566222
0.00569187
0.00572136
0.00575067
0.0057798
0.00580872
0.00583742
0.00586589
0.00589411
0.00592207
0.00594975
0.00597715
0.00600424
0.00603101
0.00605745
0.00608355
0.00610928
0.00613464
0.00615962
0.00618419
0.00620834
0.00623207
0.00625536
0.00627819
0.00630055
0.00632243
0.00634382
0.00636471
0.00638507
0.00640491
0.00642421
0.00644295
0.00646112
0.00647872
0.00649574
0.00651215
0.00652796
0.00654314
0.0065577
0.00657162
0.00658489
0.00659749
0.00660943
0.00662069
0.00663126
0.00664114
0.00665031
0.00665876
0.0066665
0.00667351
0.00667978
0.00668532
0.00669012
0.00669419
0.00669751
0.0067001
0.00670197
0.00670313
0.00670359
0.00670339
0.00670256
0.00670114
0.00669918
0.00669676
0.00669397
0.00669092
0.00668774
0.00668462
0.00668177
0.00667945
0.00667798
0.00667744
0.00349277
0.00349245
0.00349155
0.00349008
0.00348819
0.00348606
0.00348381
0.00348155
0.00347939
0.0034774
0.00347564
0.00347416
0.00347301
0.0034722
0.00347177
0.00347173
0.00347208
0.00347285
0.00347403
0.00347563
0.00347764
0.00348007
0.0034829
0.00348615
0.0034898
0.00349385
0.0034983
0.00350315
0.00350838
0.00351401
0.00352002
0.00352641
0.00353318
0.00354033
0.00354785
0.00355575
0.00356403
0.00357267
0.00358169
0.00359108
0.00360084
0.00361096
0.00362146
0.00363233
0.00364356
0.00365516
0.00366713
0.00367947
0.00369217
0.00370524
0.00371868
0.00373248
0.00374665
0.00376118
0.00377607
0.00379133
0.00380695
0.00382294
0.00383928
0.00385598
0.00387305
0.00389046
0.00390824
0.00392637
0.00394485
0.00396368
0.00398287
0.0040024
0.00402227
0.00404249
0.00406305
0.00408395
0.00410518
0.00412675
0.00414864
0.00417087
0.00419341
0.00421628
0.00423946
0.00426296
0.00428676
0.00431087
0.00433528
0.00435998
0.00438498
0.00441026
0.00443582
0.00446165
0.00448776
0.00451412
0.00454075
0.00456763
0.00459475
0.00462211
0.0046497
0.00467751
0.00470554
0.00473378
0.00476222
0.00479085
0.00481967
0.00484866
0.00487782
0.00490714
0.00493661
0.00496621
0.00499595
0.00502581
0.00505577
0.00508584
0.00511599
0.00514622
0.00517652
0.00520687
0.00523727
0.0052677
0.00529815
0.00532861
0.00535906
0.0053895
0.00541991
0.00545028
0.00548059
0.00551084
0.005541
0.00557108
0.00560104
0.00563088
0.00566059
0.00569015
0.00571955
0.00574877
0.0057778
0.00580663
0.00583524
0.00586361
0.00589174
0.00591961
0.00594721
0.00597451
0.00600151
0.00602819
0.00605454
0.00608055
0.0061062
0.00613147
0.00615635
0.00618084
0.00620491
0.00622855
0.00625176
0.00627451
0.00629679
0.00631859
0.0063399
0.00636071
0.006381
0.00640076
0.00641999
0.00643866
0.00645676
0.0064743
0.00649124
0.0065076
0.00652334
0.00653847
0.00655297
0.00656684
0.00658005
0.00659261
0.00660451
0.00661573
0.00662627
0.00663612
0.00664527
0.00665372
0.00666145
0.00666847
0.00667477
0.00668034
0.00668519
0.00668932
0.00669273
0.00669543
0.00669742
0.00669874
0.00669938
0.00669939
0.0066988
0.00669765
0.00669599
0.00669391
0.00669148
0.00668881
0.00668603
0.00668329
0.00668079
0.00667875
0.00667744
0.00667689
0.00349377
0.00349334
0.00349245
0.00349111
0.00348945
0.00348759
0.00348564
0.0034837
0.00348184
0.00348014
0.00347865
0.00347741
0.00347647
0.00347586
0.0034756
0.0034757
0.00347619
0.00347706
0.00347833
0.00347999
0.00348206
0.00348453
0.0034874
0.00349067
0.00349433
0.0034984
0.00350285
0.00350769
0.00351292
0.00351853
0.00352453
0.00353091
0.00353766
0.00354479
0.0035523
0.00356017
0.00356842
0.00357705
0.00358604
0.0035954
0.00360514
0.00361524
0.00362571
0.00363654
0.00364775
0.00365932
0.00367126
0.00368356
0.00369623
0.00370927
0.00372267
0.00373644
0.00375057
0.00376506
0.00377992
0.00379514
0.00381072
0.00382666
0.00384296
0.00385962
0.00387664
0.00389401
0.00391174
0.00392982
0.00394826
0.00396704
0.00398617
0.00400565
0.00402547
0.00404564
0.00406614
0.00408698
0.00410816
0.00412967
0.0041515
0.00417367
0.00419615
0.00421895
0.00424207
0.0042655
0.00428924
0.00431328
0.00433762
0.00436225
0.00438718
0.00441238
0.00443787
0.00446363
0.00448966
0.00451595
0.00454249
0.00456929
0.00459633
0.0046236
0.00465111
0.00467884
0.00470678
0.00473494
0.00476329
0.00479183
0.00482056
0.00484946
0.00487853
0.00490775
0.00493712
0.00496663
0.00499627
0.00502603
0.0050559
0.00508586
0.00511592
0.00514604
0.00517624
0.00520649
0.00523678
0.00526711
0.00529745
0.0053278
0.00535815
0.00538848
0.00541878
0.00544904
0.00547925
0.00550939
0.00553944
0.0055694
0.00559926
0.00562899
0.00565859
0.00568804
0.00571732
0.00574643
0.00577535
0.00580407
0.00583257
0.00586083
0.00588885
0.00591661
0.0059441
0.00597129
0.00599818
0.00602476
0.006051
0.0060769
0.00610244
0.00612761
0.00615239
0.00617678
0.00620075
0.00622429
0.00624739
0.00627005
0.00629223
0.00631394
0.00633516
0.00635587
0.00637608
0.00639575
0.00641489
0.00643347
0.0064515
0.00646895
0.00648582
0.0065021
0.00651777
0.00653283
0.00654726
0.00656106
0.00657422
0.00658673
0.00659858
0.00660976
0.00662026
0.00663008
0.00663922
0.00664765
0.00665539
0.00666242
0.00666875
0.00667436
0.00667928
0.00668349
0.006687
0.00668983
0.00669198
0.00669348
0.00669434
0.00669459
0.00669428
0.00669345
0.00669214
0.00669043
0.00668841
0.00668615
0.00668379
0.00668144
0.00667927
0.00667743
0.00667612
0.00667542
0.00349544
0.00349482
0.00349378
0.00349244
0.00349087
0.00348916
0.0034874
0.00348567
0.00348402
0.00348253
0.00348124
0.0034802
0.00347944
0.00347899
0.00347887
0.0034791
0.00347969
0.00348065
0.003482
0.00348373
0.00348585
0.00348837
0.00349127
0.00349456
0.00349825
0.00350232
0.00350678
0.00351162
0.00351684
0.00352245
0.00352844
0.0035348
0.00354154
0.00354866
0.00355614
0.003564
0.00357223
0.00358083
0.0035898
0.00359914
0.00360885
0.00361893
0.00362937
0.00364018
0.00365136
0.0036629
0.00367481
0.00368708
0.00369972
0.00371273
0.0037261
0.00373983
0.00375393
0.00376838
0.00378321
0.00379839
0.00381393
0.00382984
0.0038461
0.00386272
0.00387969
0.00389702
0.00391471
0.00393275
0.00395114
0.00396987
0.00398896
0.00400839
0.00402816
0.00404828
0.00406873
0.00408952
0.00411065
0.0041321
0.00415389
0.00417599
0.00419842
0.00422117
0.00424423
0.0042676
0.00429128
0.00431526
0.00433954
0.00436411
0.00438897
0.00441411
0.00443953
0.00446523
0.00449119
0.00451741
0.00454389
0.00457061
0.00459758
0.00462479
0.00465222
0.00467988
0.00470775
0.00473582
0.0047641
0.00479257
0.00482121
0.00485004
0.00487903
0.00490817
0.00493746
0.00496689
0.00499645
0.00502612
0.00505591
0.00508579
0.00511575
0.0051458
0.00517591
0.00520607
0.00523628
0.00526651
0.00529677
0.00532703
0.00535729
0.00538753
0.00541775
0.00544792
0.00547803
0.00550808
0.00553804
0.00556791
0.00559767
0.00562731
0.00565682
0.00568618
0.00571537
0.00574439
0.00577322
0.00580185
0.00583025
0.00585843
0.00588636
0.00591403
0.00594142
0.00596853
0.00599533
0.00602182
0.00604797
0.00607379
0.00609924
0.00612433
0.00614902
0.00617332
0.00619721
0.00622067
0.00624369
0.00626627
0.00628837
0.00631
0.00633115
0.00635179
0.00637191
0.00639152
0.00641058
0.0064291
0.00644706
0.00646444
0.00648125
0.00649747
0.00651308
0.00652808
0.00654247
0.00655622
0.00656933
0.0065818
0.00659361
0.00660475
0.00661523
0.00662503
0.00663415
0.00664258
0.00665033
0.00665737
0.00666373
0.00666939
0.00667436
0.00667864
0.00668225
0.00668518
0.00668747
0.00668911
0.00669015
0.00669061
0.00669052
0.00668992
0.00668888
0.00668745
0.0066857
0.00668372
0.00668161
0.00667947
0.00667743
0.00667559
0.00667408
0.00667311
0.00349758
0.00349671
0.00349544
0.003494
0.00349243
0.00349078
0.00348913
0.00348753
0.00348603
0.0034847
0.00348357
0.00348268
0.00348207
0.00348175
0.00348175
0.00348209
0.00348278
0.00348383
0.00348525
0.00348704
0.00348921
0.00349177
0.0034947
0.00349802
0.00350172
0.00350581
0.00351027
0.00351512
0.00352034
0.00352595
0.00353192
0.00353828
0.003545
0.0035521
0.00355957
0.00356741
0.00357563
0.00358421
0.00359315
0.00360247
0.00361215
0.00362221
0.00363262
0.00364341
0.00365456
0.00366607
0.00367795
0.0036902
0.00370281
0.00371578
0.00372912
0.00374282
0.00375688
0.0037713
0.00378609
0.00380124
0.00381675
0.00383261
0.00384884
0.00386542
0.00388235
0.00389964
0.00391729
0.00393529
0.00395363
0.00397233
0.00399137
0.00401075
0.00403048
0.00405055
0.00407096
0.0040917
0.00411278
0.00413418
0.00415591
0.00417797
0.00420035
0.00422304
0.00424605
0.00426937
0.00429299
0.00431691
0.00434114
0.00436565
0.00439045
0.00441554
0.0044409
0.00446653
0.00449243
0.00451859
0.00454501
0.00457167
0.00459858
0.00462572
0.00465309
0.00468068
0.00470848
0.00473649
0.0047647
0.0047931
0.00482168
0.00485043
0.00487935
0.00490843
0.00493765
0.00496701
0.00499649
0.0050261
0.00505581
0.00508561
0.00511551
0.00514548
0.00517551
0.0052056
0.00523573
0.00526589
0.00529608
0.00532626
0.00535645
0.00538661
0.00541675
0.00544684
0.00547688
0.00550685
0.00553673
0.00556653
0.00559621
0.00562578
0.0056552
0.00568449
0.0057136
0.00574255
0.0057713
0.00579985
0.00582818
0.00585628
0.00588413
0.00591172
0.00593904
0.00596607
0.0059928
0.00601922
0.0060453
0.00607104
0.00609642
0.00612144
0.00614606
0.00617029
0.00619411
0.0062175
0.00624046
0.00626296
0.00628501
0.00630657
0.00632765
0.00634823
0.0063683
0.00638784
0.00640684
0.0064253
0.00644321
0.00646054
0.00647729
0.00649346
0.00650902
0.00652398
0.00653832
0.00655203
0.00656511
0.00657754
0.00658932
0.00660044
0.0066109
0.00662069
0.0066298
0.00663823
0.00664598
0.00665305
0.00665943
0.00666513
0.00667015
0.0066745
0.00667818
0.00668122
0.00668361
0.00668539
0.00668657
0.00668719
0.00668728
0.00668687
0.00668603
0.0066848
0.00668325
0.00668144
0.00667947
0.00667742
0.00667537
0.00667341
0.00667158
0.00667027
0.0035
0.00349885
0.0034973
0.0034957
0.00349407
0.00349242
0.00349081
0.00348928
0.00348789
0.00348667
0.00348566
0.0034849
0.0034844
0.00348419
0.0034843
0.00348473
0.00348551
0.00348663
0.00348812
0.00348997
0.00349219
0.00349478
0.00349775
0.0035011
0.00350482
0.00350891
0.00351339
0.00351824
0.00352346
0.00352906
0.00353503
0.00354137
0.00354809
0.00355517
0.00356263
0.00357045
0.00357865
0.00358721
0.00359613
0.00360543
0.00361509
0.00362511
0.00363551
0.00364626
0.00365739
0.00366887
0.00368073
0.00369294
0.00370552
0.00371847
0.00373177
0.00374544
0.00375947
0.00377386
0.00378861
0.00380373
0.0038192
0.00383503
0.00385121
0.00386776
0.00388466
0.00390191
0.00391951
0.00393747
0.00395578
0.00397443
0.00399343
0.00401277
0.00403246
0.00405248
0.00407284
0.00409354
0.00411457
0.00413593
0.00415761
0.00417962
0.00420195
0.0042246
0.00424756
0.00427082
0.00429439
0.00431827
0.00434244
0.0043669
0.00439165
0.00441668
0.00444199
0.00446757
0.00449341
0.00451952
0.00454588
0.00457248
0.00459933
0.00462642
0.00465373
0.00468126
0.00470901
0.00473696
0.00476511
0.00479344
0.00482197
0.00485066
0.00487952
0.00490853
0.00493769
0.00496699
0.00499641
0.00502595
0.0050556
0.00508534
0.00511517
0.00514508
0.00517505
0.00520508
0.00523514
0.00526524
0.00529536
0.00532548
0.0053556
0.0053857
0.00541577
0.0054458
0.00547577
0.00550568
0.0055355
0.00556523
0.00559485
0.00562435
0.00565371
0.00568293
0.00571198
0.00574086
0.00576955
0.00579804
0.00582631
0.00585434
0.00588213
0.00590966
0.00593692
0.00596389
0.00599056
0.00601691
0.00604294
0.00606862
0.00609394
0.00611889
0.00614346
0.00616764
0.0061914
0.00621473
0.00623763
0.00626008
0.00628207
0.00630359
0.00632461
0.00634514
0.00636515
0.00638465
0.0064036
0.00642202
0.00643987
0.00645716
0.00647387
0.00649
0.00650552
0.00652044
0.00653475
0.00654843
0.00656147
0.00657388
0.00658564
0.00659674
0.00660718
0.00661696
0.00662607
0.0066345
0.00664226
0.00664935
0.00665576
0.0066615
0.00666656
0.00667097
0.00667473
0.00667784
0.00668033
0.00668222
0.00668352
0.00668427
0.0066845
0.00668424
0.00668354
0.00668245
0.00668102
0.00667932
0.00667741
0.00667535
0.00667322
0.00667106
0.00666885
0.00666715
0.00350256
0.00350111
0.00349924
0.00349746
0.00349571
0.003494
0.00349239
0.0034909
0.00348957
0.00348843
0.00348751
0.00348683
0.00348643
0.00348631
0.00348651
0.00348702
0.00348787
0.00348906
0.00349061
0.00349251
0.00349477
0.0034974
0.0035004
0.00350377
0.00350751
0.00351162
0.0035161
0.00352096
0.00352618
0.00353178
0.00353774
0.00354408
0.00355078
0.00355785
0.00356529
0.0035731
0.00358127
0.00358982
0.00359872
0.00360799
0.00361763
0.00362763
0.003638
0.00364873
0.00365983
0.00367129
0.00368312
0.0036953
0.00370785
0.00372077
0.00373404
0.00374768
0.00376168
0.00377604
0.00379076
0.00380583
0.00382127
0.00383707
0.00385322
0.00386972
0.00388659
0.0039038
0.00392137
0.00393929
0.00395755
0.00397617
0.00399512
0.00401443
0.00403407
0.00405406
0.00407438
0.00409503
0.00411602
0.00413733
0.00415897
0.00418094
0.00420322
0.00422582
0.00424873
0.00427196
0.00429548
0.00431931
0.00434343
0.00436785
0.00439255
0.00441753
0.00444279
0.00446832
0.00449412
0.00452017
0.00454648
0.00457304
0.00459984
0.00462687
0.00465413
0.00468161
0.00470931
0.00473721
0.0047653
0.00479359
0.00482206
0.0048507
0.00487951
0.00490847
0.00493758
0.00496682
0.00499619
0.00502568
0.00505527
0.00508497
0.00511475
0.0051446
0.00517452
0.00520449
0.0052345
0.00526455
0.00529461
0.00532468
0.00535475
0.0053848
0.00541482
0.00544479
0.00547471
0.00550457
0.00553434
0.00556402
0.00559358
0.00562303
0.00565235
0.00568151
0.00571052
0.00573935
0.00576798
0.00579642
0.00582464
0.00585262
0.00588037
0.00590785
0.00593506
0.00596198
0.0059886
0.00601491
0.00604088
0.00606652
0.00609179
0.0061167
0.00614123
0.00616535
0.00618907
0.00621236
0.00623522
0.00625763
0.00627957
0.00630105
0.00632203
0.00634252
0.00636249
0.00638195
0.00640087
0.00641924
0.00643706
0.00645432
0.006471
0.00648709
0.00650258
0.00651747
0.00653175
0.0065454
0.00655843
0.00657081
0.00658256
0.00659365
0.00660408
0.00661385
0.00662296
0.0066314
0.00663918
0.00664628
0.00665271
0.00665849
0.0066636
0.00666805
0.00667187
0.00667505
0.00667762
0.0066796
0.00668099
0.00668184
0.00668217
0.00668202
0.00668142
0.00668042
0.00667906
0.0066774
0.00667548
0.00667336
0.00667108
0.00666867
0.00666606
0.00666398
0.00350511
0.00350337
0.00350118
0.00349918
0.00349729
0.0034955
0.00349385
0.00349236
0.00349105
0.00348996
0.00348909
0.00348849
0.00348815
0.00348811
0.00348837
0.00348895
0.00348986
0.00349111
0.00349271
0.00349466
0.00349696
0.00349963
0.00350265
0.00350604
0.0035098
0.00351392
0.00351841
0.00352327
0.0035285
0.00353409
0.00354005
0.00354638
0.00355307
0.00356013
0.00356755
0.00357535
0.0035835
0.00359202
0.00360091
0.00361016
0.00361978
0.00362976
0.0036401
0.00365081
0.00366188
0.00367331
0.00368511
0.00369727
0.00370979
0.00372267
0.00373592
0.00374953
0.00376349
0.00377782
0.00379251
0.00380755
0.00382296
0.00383872
0.00385484
0.00387131
0.00388813
0.00390531
0.00392284
0.00394073
0.00395895
0.00397753
0.00399645
0.00401572
0.00403532
0.00405527
0.00407555
0.00409616
0.00411711
0.00413838
0.00415999
0.00418191
0.00420415
0.00422671
0.00424958
0.00427276
0.00429625
0.00432003
0.00434411
0.00436848
0.00439314
0.00441808
0.0044433
0.00446878
0.00449454
0.00452055
0.00454682
0.00457333
0.00460009
0.00462708
0.00465429
0.00468173
0.00470938
0.00473724
0.00476529
0.00479354
0.00482196
0.00485056
0.00487932
0.00490824
0.00493731
0.00496651
0.00499584
0.00502528
0.00505483
0.00508448
0.00511422
0.00514403
0.00517391
0.00520384
0.00523381
0.00526382
0.00529384
0.00532387
0.0053539
0.0053839
0.00541388
0.00544382
0.0054737
0.00550351
0.00553325
0.00556288
0.00559242
0.00562183
0.0056511
0.00568023
0.0057092
0.00573799
0.00576659
0.00579499
0.00582317
0.00585112
0.00587883
0.00590627
0.00593345
0.00596033
0.00598692
0.00601319
0.00603913
0.00606474
0.00608998
0.00611485
0.00613935
0.00616344
0.00618712
0.00621039
0.00623321
0.00625559
0.0062775
0.00629895
0.0063199
0.00634036
0.00636031
0.00637973
0.00639862
0.00641697
0.00643477
0.006452
0.00646865
0.00648472
0.00650019
0.00651506
0.00652932
0.00654296
0.00655597
0.00656834
0.00658007
0.00659115
0.00660158
0.00661136
0.00662047
0.00662892
0.0066367
0.00664382
0.00665028
0.00665608
0.00666123
0.00666573
0.0066696
0.00667284
0.00667547
0.00667751
0.00667898
0.00667991
0.00668031
0.00668023
0.00667969
0.00667873
0.0066774
0.00667573
0.00667375
0.00667152
0.00666907
0.00666638
0.00666336
0.00666092
0.00350757
0.00350554
0.00350303
0.0035008
0.00349875
0.00349686
0.00349514
0.00349362
0.00349232
0.00349124
0.00349041
0.00348985
0.00348956
0.00348957
0.00348989
0.00349053
0.00349149
0.00349279
0.00349443
0.00349642
0.00349875
0.00350145
0.0035045
0.00350791
0.00351168
0.00351582
0.00352031
0.00352518
0.0035304
0.00353599
0.00354195
0.00354827
0.00355495
0.003562
0.00356941
0.00357719
0.00358533
0.00359383
0.0036027
0.00361193
0.00362152
0.00363148
0.0036418
0.00365248
0.00366352
0.00367493
0.0036867
0.00369883
0.00371133
0.00372418
0.0037374
0.00375098
0.00376491
0.00377921
0.00379387
0.00380888
0.00382425
0.00383998
0.00385606
0.0038725
0.0038893
0.00390644
0.00392394
0.00394178
0.00395998
0.00397852
0.00399741
0.00401663
0.0040362
0.00405611
0.00407636
0.00409694
0.00411785
0.00413908
0.00416065
0.00418253
0.00420474
0.00422726
0.00425009
0.00427324
0.00429668
0.00432043
0.00434447
0.00436881
0.00439343
0.00441833
0.00444351
0.00446896
0.00449468
0.00452065
0.00454688
0.00457336
0.00460008
0.00462703
0.00465421
0.00468161
0.00470923
0.00473705
0.00476507
0.00479328
0.00482167
0.00485023
0.00487896
0.00490785
0.00493688
0.00496604
0.00499534
0.00502475
0.00505427
0.00508389
0.0051136
0.00514338
0.00517322
0.00520312
0.00523307
0.00526304
0.00529303
0.00532303
0.00535303
0.00538301
0.00541296
0.00544287
0.00547272
0.00550251
0.00553222
0.00556183
0.00559133
0.00562072
0.00564997
0.00567907
0.00570802
0.00573678
0.00576536
0.00579374
0.0058219
0.00584982
0.00587751
0.00590493
0.00593208
0.00595895
0.00598551
0.00601176
0.00603768
0.00606326
0.00608849
0.00611334
0.00613781
0.00616189
0.00618555
0.00620879
0.0062316
0.00625396
0.00627585
0.00629728
0.00631821
0.00633865
0.00635858
0.00637799
0.00639686
0.0064152
0.00643297
0.00645019
0.00646683
0.00648288
0.00649834
0.0065132
0.00652744
0.00654107
0.00655407
0.00656644
0.00657816
0.00658924
0.00659967
0.00660945
0.00661856
0.00662702
0.00663482
0.00664196
0.00664844
0.00665427
0.00665945
0.00666399
0.00666789
0.00667118
0.00667386
0.00667595
0.00667747
0.00667845
0.0066789
0.00667886
0.00667835
0.0066774
0.00667606
0.00667434
0.00667228
0.00666991
0.00666725
0.00666429
0.00666088
0.00665809
0.00350983
0.00350753
0.00350472
0.00350227
0.00350005
0.00349803
0.00349623
0.00349466
0.00349333
0.00349225
0.00349144
0.0034909
0.00349065
0.0034907
0.00349106
0.00349174
0.00349275
0.00349408
0.00349576
0.00349778
0.00350015
0.00350287
0.00350594
0.00350937
0.00351315
0.0035173
0.0035218
0.00352667
0.00353189
0.00353748
0.00354343
0.00354974
0.00355642
0.00356345
0.00357085
0.00357861
0.00358674
0.00359522
0.00360407
0.00361328
0.00362285
0.00363279
0.00364308
0.00365374
0.00366476
0.00367614
0.00368789
0.00369999
0.00371246
0.00372529
0.00373848
0.00375203
0.00376593
0.0037802
0.00379483
0.00380981
0.00382515
0.00384085
0.0038569
0.00387331
0.00389007
0.00390718
0.00392464
0.00394246
0.00396062
0.00397913
0.00399798
0.00401718
0.00403671
0.00405659
0.0040768
0.00409734
0.00411822
0.00413942
0.00416095
0.00418281
0.00420498
0.00422747
0.00425027
0.00427338
0.00429679
0.0043205
0.00434451
0.00436882
0.0043934
0.00441827
0.00444342
0.00446884
0.00449453
0.00452047
0.00454667
0.00457312
0.00459981
0.00462673
0.00465388
0.00468126
0.00470884
0.00473664
0.00476463
0.00479281
0.00482117
0.00484971
0.00487842
0.00490728
0.00493628
0.00496543
0.0049947
0.00502409
0.00505359
0.00508318
0.00511287
0.00514263
0.00517245
0.00520233
0.00523226
0.00526221
0.00529219
0.00532217
0.00535215
0.00538212
0.00541205
0.00544194
0.00547178
0.00550155
0.00553125
0.00556085
0.00559034
0.00561971
0.00564895
0.00567804
0.00570697
0.00573573
0.00576429
0.00579266
0.00582081
0.00584873
0.0058764
0.00590381
0.00593096
0.00595781
0.00598437
0.00601061
0.00603652
0.00606209
0.00608731
0.00611215
0.00613662
0.00616068
0.00618434
0.00620757
0.00623037
0.00625272
0.00627461
0.00629603
0.00631695
0.00633739
0.00635731
0.00637671
0.00639557
0.0064139
0.00643167
0.00644888
0.00646551
0.00648156
0.00649701
0.00651186
0.0065261
0.00653973
0.00655272
0.00656509
0.00657682
0.0065879
0.00659833
0.00660811
0.00661724
0.00662571
0.00663352
0.00664068
0.00664718
0.00665303
0.00665823
0.0066628
0.00666674
0.00667006
0.00667278
0.00667491
0.00667646
0.00667747
0.00667795
0.00667792
0.00667741
0.00667645
0.00667507
0.00667328
0.00667111
0.00666858
0.00666572
0.00666249
0.00665871
0.0066556
0.00351183
0.00350928
0.00350618
0.00350351
0.00350112
0.00349897
0.00349708
0.00349545
0.00349408
0.00349299
0.00349217
0.00349165
0.00349142
0.00349149
0.00349188
0.00349259
0.00349363
0.003495
0.0034967
0.00349875
0.00350114
0.00350388
0.00350697
0.00351042
0.00351421
0.00351837
0.00352288
0.00352774
0.00353297
0.00353855
0.0035445
0.0035508
0.00355747
0.00356449
0.00357188
0.00357962
0.00358773
0.0035962
0.00360503
0.00361422
0.00362377
0.00363368
0.00364395
0.00365459
0.00366559
0.00367694
0.00368866
0.00370074
0.00371318
0.00372598
0.00373914
0.00375266
0.00376654
0.00378078
0.00379538
0.00381033
0.00382564
0.00384131
0.00385733
0.00387371
0.00389044
0.00390752
0.00392496
0.00394274
0.00396087
0.00397935
0.00399817
0.00401734
0.00403684
0.00405669
0.00407687
0.00409738
0.00411823
0.0041394
0.0041609
0.00418272
0.00420487
0.00422733
0.0042501
0.00427318
0.00429656
0.00432025
0.00434423
0.0043685
0.00439307
0.00441791
0.00444303
0.00446842
0.00449408
0.00452001
0.00454618
0.0045726
0.00459927
0.00462617
0.0046533
0.00468066
0.00470822
0.00473599
0.00476397
0.00479213
0.00482048
0.004849
0.00487769
0.00490653
0.00493552
0.00496465
0.00499391
0.00502329
0.00505277
0.00508236
0.00511203
0.00514178
0.0051716
0.00520147
0.00523139
0.00526133
0.0052913
0.00532128
0.00535125
0.00538121
0.00541114
0.00544103
0.00547087
0.00550064
0.00553033
0.00555993
0.00558942
0.00561879
0.00564803
0.00567712
0.00570606
0.00573481
0.00576338
0.00579175
0.0058199
0.00584782
0.0058755
0.00590292
0.00593006
0.00595692
0.00598348
0.00600973
0.00603564
0.00606122
0.00608644
0.00611129
0.00613575
0.00615982
0.00618349
0.00620672
0.00622952
0.00625188
0.00627377
0.00629519
0.00631612
0.00633655
0.00635647
0.00637588
0.00639475
0.00641307
0.00643085
0.00644805
0.00646469
0.00648074
0.00649619
0.00651105
0.00652529
0.00653892
0.00655192
0.00656429
0.00657602
0.00658711
0.00659755
0.00660734
0.00661648
0.00662496
0.00663279
0.00663996
0.00664648
0.00665235
0.00665758
0.00666217
0.00666613
0.00666948
0.00667222
0.00667437
0.00667595
0.00667697
0.00667745
0.00667742
0.0066769
0.0066759
0.00667445
0.00667258
0.00667029
0.0066676
0.00666453
0.00666103
0.00665692
0.00665352
0.00351351
0.00351073
0.00350737
0.00350448
0.00350193
0.00349965
0.00349766
0.00349596
0.00349454
0.00349342
0.00349259
0.00349206
0.00349184
0.00349193
0.00349234
0.00349307
0.00349413
0.00349552
0.00349725
0.00349932
0.00350173
0.00350449
0.00350759
0.00351105
0.00351486
0.00351901
0.00352353
0.0035284
0.00353362
0.0035392
0.00354514
0.00355144
0.00355809
0.0035651
0.00357248
0.00358021
0.0035883
0.00359675
0.00360556
0.00361473
0.00362426
0.00363415
0.0036444
0.00365502
0.00366599
0.00367732
0.00368902
0.00370107
0.00371349
0.00372626
0.0037394
0.00375289
0.00376674
0.00378095
0.00379552
0.00381045
0.00382573
0.00384137
0.00385737
0.00387371
0.00389042
0.00390747
0.00392487
0.00394263
0.00396073
0.00397918
0.00399797
0.00401711
0.00403659
0.0040564
0.00407656
0.00409704
0.00411786
0.00413901
0.00416049
0.00418228
0.0042044
0.00422683
0.00424958
0.00427263
0.004296
0.00431966
0.00434362
0.00436787
0.00439241
0.00441723
0.00444233
0.00446771
0.00449335
0.00451925
0.00454541
0.00457182
0.00459847
0.00462535
0.00465247
0.00467981
0.00470736
0.00473512
0.00476308
0.00479124
0.00481957
0.00484809
0.00487677
0.0049056
0.00493459
0.00496371
0.00499297
0.00502234
0.00505183
0.00508141
0.00511108
0.00514083
0.00517065
0.00520053
0.00523045
0.0052604
0.00529037
0.00532036
0.00535034
0.0053803
0.00541024
0.00544014
0.00546999
0.00549977
0.00552947
0.00555908
0.00558858
0.00561797
0.00564722
0.00567632
0.00570527
0.00573404
0.00576262
0.00579101
0.00581917
0.00584711
0.0058748
0.00590224
0.0059294
0.00595627
0.00598285
0.00600911
0.00603504
0.00606064
0.00608587
0.00611074
0.00613522
0.0061593
0.00618298
0.00620623
0.00622905
0.00625141
0.00627332
0.00629475
0.0063157
0.00633614
0.00635608
0.00637549
0.00639437
0.00641271
0.00643049
0.00644771
0.00646435
0.00648041
0.00649588
0.00651074
0.006525
0.00653863
0.00655164
0.00656402
0.00657576
0.00658686
0.00659731
0.00660712
0.00661627
0.00662476
0.0066326
0.00663979
0.00664633
0.00665222
0.00665746
0.00666207
0.00666605
0.00666941
0.00667217
0.00667433
0.00667592
0.00667694
0.00667742
0.00667737
0.00667681
0.00667576
0.00667424
0.00667227
0.00666985
0.006667
0.00666373
0.00665998
0.00665557
0.00665191
0.00351482
0.00351184
0.00350823
0.00350515
0.00350244
0.00350003
0.00349794
0.00349616
0.00349469
0.00349353
0.00349268
0.00349214
0.00349191
0.00349201
0.00349243
0.00349317
0.00349425
0.00349566
0.0034974
0.00349949
0.00350191
0.00350468
0.0035078
0.00351126
0.00351508
0.00351924
0.00352375
0.00352862
0.00353384
0.00353942
0.00354535
0.00355164
0.00355829
0.00356529
0.00357265
0.00358036
0.00358844
0.00359687
0.00360566
0.00361482
0.00362433
0.0036342
0.00364443
0.00365502
0.00366597
0.00367728
0.00368895
0.00370098
0.00371337
0.00372612
0.00373923
0.0037527
0.00376652
0.00378071
0.00379525
0.00381015
0.00382541
0.00384102
0.00385699
0.00387331
0.00388998
0.00390701
0.00392439
0.00394212
0.00396019
0.00397862
0.00399738
0.0040165
0.00403595
0.00405574
0.00407587
0.00409633
0.00411713
0.00413825
0.0041597
0.00418148
0.00420357
0.00422598
0.00424871
0.00427175
0.00429509
0.00431873
0.00434268
0.00436691
0.00439143
0.00441624
0.00444133
0.00446669
0.00449232
0.00451821
0.00454435
0.00457075
0.00459739
0.00462427
0.00465138
0.00467871
0.00470626
0.00473402
0.00476198
0.00479013
0.00481846
0.00484698
0.00487566
0.0049045
0.00493349
0.00496262
0.00499188
0.00502126
0.00505075
0.00508034
0.00511003
0.00513979
0.00516962
0.0051995
0.00522944
0.00525941
0.0052894
0.0053194
0.00534939
0.00537938
0.00540934
0.00543926
0.00546913
0.00549893
0.00552865
0.00555828
0.00558781
0.00561722
0.0056465
0.00567563
0.0057046
0.0057334
0.00576201
0.00579042
0.00581862
0.00584658
0.0058743
0.00590177
0.00592896
0.00595586
0.00598247
0.00600876
0.00603472
0.00606034
0.0060856
0.00611049
0.006135
0.00615911
0.00618282
0.00620609
0.00622894
0.00625133
0.00627326
0.00629471
0.00631568
0.00633615
0.00635611
0.00637554
0.00639444
0.0064128
0.0064306
0.00644784
0.0064645
0.00648057
0.00649606
0.00651094
0.00652521
0.00653886
0.00655188
0.00656428
0.00657603
0.00658715
0.00659761
0.00660743
0.0066166
0.00662511
0.00663296
0.00664017
0.00664672
0.00665262
0.00665788
0.0066625
0.0066665
0.00666987
0.00667263
0.0066748
0.00667638
0.00667739
0.00667785
0.00667777
0.00667717
0.00667606
0.00667446
0.00667238
0.00666983
0.00666681
0.00666335
0.00665939
0.00665469
0.00665081
0.00351573
0.00351257
0.00350873
0.00350547
0.00350261
0.00350008
0.00349789
0.00349603
0.0034945
0.0034933
0.00349241
0.00349186
0.00349162
0.00349172
0.00349214
0.00349289
0.00349397
0.00349539
0.00349715
0.00349924
0.00350168
0.00350446
0.00350758
0.00351105
0.00351487
0.00351904
0.00352355
0.00352842
0.00353364
0.00353921
0.00354513
0.00355141
0.00355805
0.00356504
0.00357238
0.00358008
0.00358814
0.00359656
0.00360534
0.00361447
0.00362396
0.00363381
0.00364402
0.00365459
0.00366552
0.00367681
0.00368845
0.00370046
0.00371283
0.00372555
0.00373863
0.00375208
0.00376588
0.00378004
0.00379456
0.00380943
0.00382466
0.00384025
0.00385619
0.00387249
0.00388914
0.00390614
0.0039235
0.0039412
0.00395925
0.00397765
0.0039964
0.00401549
0.00403492
0.00405469
0.00407479
0.00409524
0.00411601
0.00413712
0.00415855
0.00418031
0.00420238
0.00422478
0.00424749
0.00427051
0.00429384
0.00431747
0.0043414
0.00436562
0.00439013
0.00441493
0.00444001
0.00446536
0.00449098
0.00451687