/*--------------------------------*- C++ -*----------------------------------*\
  =========                 |
  \\      /  F ield         | OpenFOAM: The Open Source CFD Toolbox
   \\    /   O peration     | Website:  https://openfoam.org
    \\  /    A nd           | Version:  6
     \\/     M anipulation  |
\*---------------------------------------------------------------------------*/
FoamFile
{
    version     2.0;
    format      ascii;
    class       volVectorField;
    location    "0";
    object      U;
}
// * * * * * * * * * * * * * * * * * * * * * * * * * * * * * * * * * * * * * //

dimensions      [0 1 -1 0 0 0 0];

internalField   nonuniform List<vector> 
40000
(
(4.17765e-07 -4.17769e-07 0)
(1.72176e-06 -5.25638e-07 0)
(2.75527e-06 -3.43264e-07 0)
(2.93615e-06 -2.98889e-08 0)
(1.88541e-06 3.22838e-07 0)
(-5.05361e-07 6.77527e-07 0)
(-4.22646e-06 1.01467e-06 0)
(-9.21037e-06 1.32497e-06 0)
(-1.5359e-05 1.60478e-06 0)
(-2.25607e-05 1.85324e-06 0)
(-3.07004e-05 2.07108e-06 0)
(-3.96654e-05 2.25999e-06 0)
(-4.93481e-05 2.42213e-06 0)
(-5.96478e-05 2.55982e-06 0)
(-7.0472e-05 2.6754e-06 0)
(-8.17369e-05 2.77115e-06 0)
(-9.33673e-05 2.84935e-06 0)
(-0.000105296 2.91216e-06 0)
(-0.000117465 2.96162e-06 0)
(-0.000129823 2.99962e-06 0)
(-0.000142325 3.02783e-06 0)
(-0.000154935 3.04778e-06 0)
(-0.000167619 3.06085e-06 0)
(-0.000180353 3.06822e-06 0)
(-0.000193113 3.07095e-06 0)
(-0.000205882 3.06992e-06 0)
(-0.000218645 3.06588e-06 0)
(-0.000231389 3.05947e-06 0)
(-0.000244107 3.05118e-06 0)
(-0.000256789 3.04145e-06 0)
(-0.00026943 3.03059e-06 0)
(-0.000282025 3.01886e-06 0)
(-0.000294571 3.00646e-06 0)
(-0.000307065 2.99352e-06 0)
(-0.000319504 2.98016e-06 0)
(-0.000331887 2.96642e-06 0)
(-0.00034421 2.95236e-06 0)
(-0.000356474 2.938e-06 0)
(-0.000368676 2.92333e-06 0)
(-0.000380815 2.90836e-06 0)
(-0.00039289 2.89307e-06 0)
(-0.000404898 2.87744e-06 0)
(-0.000416839 2.86145e-06 0)
(-0.00042871 2.84507e-06 0)
(-0.00044051 2.82826e-06 0)
(-0.000452237 2.81102e-06 0)
(-0.000463889 2.79331e-06 0)
(-0.000475463 2.77511e-06 0)
(-0.000486959 2.75639e-06 0)
(-0.000498373 2.73713e-06 0)
(-0.000509704 2.71732e-06 0)
(-0.000520949 2.69694e-06 0)
(-0.000532105 2.67597e-06 0)
(-0.00054317 2.65439e-06 0)
(-0.000554141 2.63218e-06 0)
(-0.000565016 2.60934e-06 0)
(-0.000575792 2.58585e-06 0)
(-0.000586467 2.56169e-06 0)
(-0.000597037 2.53685e-06 0)
(-0.000607499 2.51132e-06 0)
(-0.000617852 2.48507e-06 0)
(-0.000628091 2.4581e-06 0)
(-0.000638214 2.4304e-06 0)
(-0.000648217 2.40195e-06 0)
(-0.000658098 2.37274e-06 0)
(-0.000667854 2.34276e-06 0)
(-0.000677481 2.312e-06 0)
(-0.000686975 2.28044e-06 0)
(-0.000696335 2.24808e-06 0)
(-0.000705556 2.2149e-06 0)
(-0.000714634 2.1809e-06 0)
(-0.000723568 2.14606e-06 0)
(-0.000732352 2.11037e-06 0)
(-0.000740984 2.07382e-06 0)
(-0.00074946 2.0364e-06 0)
(-0.000757776 1.9981e-06 0)
(-0.00076593 1.95891e-06 0)
(-0.000773916 1.91882e-06 0)
(-0.000781733 1.87783e-06 0)
(-0.000789375 1.83592e-06 0)
(-0.000796839 1.79309e-06 0)
(-0.000804121 1.74934e-06 0)
(-0.000811218 1.70465e-06 0)
(-0.000818126 1.65902e-06 0)
(-0.000824841 1.61244e-06 0)
(-0.000831359 1.56492e-06 0)
(-0.000837675 1.51643e-06 0)
(-0.000843788 1.46698e-06 0)
(-0.000849691 1.41657e-06 0)
(-0.000855383 1.36518e-06 0)
(-0.000860857 1.31283e-06 0)
(-0.000866112 1.2595e-06 0)
(-0.000871142 1.20521e-06 0)
(-0.000875944 1.14994e-06 0)
(-0.000880514 1.09371e-06 0)
(-0.000884848 1.03651e-06 0)
(-0.000888942 9.78353e-07 0)
(-0.000892792 9.19238e-07 0)
(-0.000896394 8.59171e-07 0)
(-0.000899746 7.98156e-07 0)
(-0.000902842 7.36201e-07 0)
(-0.000905679 6.73314e-07 0)
(-0.000908253 6.09502e-07 0)
(-0.000910561 5.44777e-07 0)
(-0.000912599 4.79151e-07 0)
(-0.000914363 4.12636e-07 0)
(-0.00091585 3.45248e-07 0)
(-0.000917056 2.77001e-07 0)
(-0.000917979 2.07913e-07 0)
(-0.000918614 1.38002e-07 0)
(-0.000918958 6.72853e-08 0)
(-0.000919009 -4.21565e-09 0)
(-0.000918763 -7.64798e-08 0)
(-0.000918217 -1.49484e-07 0)
(-0.000917368 -2.23204e-07 0)
(-0.000916213 -2.97614e-07 0)
(-0.000914751 -3.72686e-07 0)
(-0.000912977 -4.48392e-07 0)
(-0.00091089 -5.24699e-07 0)
(-0.000908488 -6.01577e-07 0)
(-0.000905768 -6.78992e-07 0)
(-0.000902728 -7.5691e-07 0)
(-0.000899367 -8.35296e-07 0)
(-0.000895682 -9.14112e-07 0)
(-0.000891671 -9.93321e-07 0)
(-0.000887335 -1.07288e-06 0)
(-0.00088267 -1.15276e-06 0)
(-0.000877676 -1.2329e-06 0)
(-0.000872353 -1.31328e-06 0)
(-0.000866698 -1.39383e-06 0)
(-0.000860713 -1.47452e-06 0)
(-0.000854395 -1.5553e-06 0)
(-0.000847746 -1.63612e-06 0)
(-0.000840765 -1.71694e-06 0)
(-0.000833452 -1.7977e-06 0)
(-0.000825807 -1.87835e-06 0)
(-0.000817832 -1.95885e-06 0)
(-0.000809527 -2.03914e-06 0)
(-0.000800893 -2.11917e-06 0)
(-0.000791931 -2.19888e-06 0)
(-0.000782642 -2.27823e-06 0)
(-0.000773029 -2.35716e-06 0)
(-0.000763093 -2.43561e-06 0)
(-0.000752836 -2.51354e-06 0)
(-0.000742261 -2.59088e-06 0)
(-0.000731369 -2.66759e-06 0)
(-0.000720165 -2.7436e-06 0)
(-0.00070865 -2.81888e-06 0)
(-0.000696828 -2.89336e-06 0)
(-0.000684702 -2.96699e-06 0)
(-0.000672276 -3.03973e-06 0)
(-0.000659553 -3.11152e-06 0)
(-0.000646538 -3.18231e-06 0)
(-0.000633235 -3.25206e-06 0)
(-0.000619648 -3.32071e-06 0)
(-0.000605782 -3.38822e-06 0)
(-0.000591641 -3.45454e-06 0)
(-0.000577231 -3.51961e-06 0)
(-0.000562557 -3.58338e-06 0)
(-0.000547624 -3.64579e-06 0)
(-0.000532439 -3.70679e-06 0)
(-0.000517006 -3.76629e-06 0)
(-0.000501333 -3.82421e-06 0)
(-0.000485426 -3.88045e-06 0)
(-0.000469293 -3.9349e-06 0)
(-0.000452941 -3.9874e-06 0)
(-0.000436379 -4.0378e-06 0)
(-0.000419616 -4.08588e-06 0)
(-0.000402663 -4.1314e-06 0)
(-0.00038553 -4.17403e-06 0)
(-0.000368232 -4.21342e-06 0)
(-0.000350782 -4.24912e-06 0)
(-0.000333197 -4.2806e-06 0)
(-0.000315496 -4.30725e-06 0)
(-0.000297701 -4.32835e-06 0)
(-0.000279837 -4.34303e-06 0)
(-0.000261933 -4.35034e-06 0)
(-0.000244022 -4.34915e-06 0)
(-0.000226141 -4.33821e-06 0)
(-0.000208335 -4.31608e-06 0)
(-0.000190653 -4.28117e-06 0)
(-0.000173151 -4.23171e-06 0)
(-0.000155892 -4.16575e-06 0)
(-0.00013895 -4.08114e-06 0)
(-0.000122404 -3.97558e-06 0)
(-0.000106345 -3.84654e-06 0)
(-9.0872e-05 -3.69132e-06 0)
(-7.60967e-05 -3.50707e-06 0)
(-6.21402e-05 -3.29075e-06 0)
(-4.91349e-05 -3.03925e-06 0)
(-3.72236e-05 -2.74942e-06 0)
(-2.65587e-05 -2.41832e-06 0)
(-1.72992e-05 -2.04357e-06 0)
(-9.60582e-06 -1.62415e-06 0)
(-3.63005e-06 -1.16208e-06 0)
(5.05006e-07 -6.66033e-07 0)
(2.73911e-06 -1.57215e-07 0)
(3.15409e-06 3.20045e-07 0)
(2.1814e-06 6.46928e-07 0)
(5.78329e-07 5.78573e-07 0)
(5.26425e-07 -1.72243e-06 0)
(2.1629e-06 -2.16112e-06 0)
(2.61432e-06 -7.54575e-07 0)
(7.72289e-07 1.59544e-06 0)
(-4.10964e-06 4.35478e-06 0)
(-1.23152e-05 7.2165e-06 0)
(-2.38759e-05 1.00067e-05 0)
(-3.86775e-05 1.26308e-05 0)
(-5.65187e-05 1.50403e-05 0)
(-7.71506e-05 1.72144e-05 0)
(-0.000100303 1.91483e-05 0)
(-0.000125699 2.08472e-05 0)
(-0.00015307 2.23227e-05 0)
(-0.000182157 2.35898e-05 0)
(-0.000212719 2.46653e-05 0)
(-0.000244534 2.55671e-05 0)
(-0.0002774 2.63129e-05 0)
(-0.000311134 2.69204e-05 0)
(-0.000345575 2.74065e-05 0)
(-0.000380581 2.7787e-05 0)
(-0.000416028 2.80764e-05 0)
(-0.000451809 2.82883e-05 0)
(-0.000487834 2.84345e-05 0)
(-0.000524024 2.85258e-05 0)
(-0.000560315 2.85716e-05 0)
(-0.000596652 2.858e-05 0)
(-0.000632992 2.85579e-05 0)
(-0.000669297 2.85111e-05 0)
(-0.000705538 2.84446e-05 0)
(-0.000741691 2.83623e-05 0)
(-0.000777735 2.82674e-05 0)
(-0.000813657 2.81625e-05 0)
(-0.000849442 2.80496e-05 0)
(-0.00088508 2.79301e-05 0)
(-0.000920563 2.78051e-05 0)
(-0.000955883 2.76755e-05 0)
(-0.000991035 2.75418e-05 0)
(-0.00102601 2.74043e-05 0)
(-0.00106081 2.72631e-05 0)
(-0.00109542 2.71184e-05 0)
(-0.00112984 2.69701e-05 0)
(-0.00116407 2.6818e-05 0)
(-0.00119809 2.66621e-05 0)
(-0.00123191 2.65021e-05 0)
(-0.00126552 2.6338e-05 0)
(-0.00129891 2.61695e-05 0)
(-0.00133208 2.59964e-05 0)
(-0.00136502 2.58185e-05 0)
(-0.00139772 2.56357e-05 0)
(-0.00143018 2.54477e-05 0)
(-0.00146239 2.52545e-05 0)
(-0.00149435 2.50559e-05 0)
(-0.00152605 2.48516e-05 0)
(-0.00155747 2.46417e-05 0)
(-0.00158862 2.44259e-05 0)
(-0.00161948 2.42041e-05 0)
(-0.00165006 2.39763e-05 0)
(-0.00168033 2.37422e-05 0)
(-0.00171029 2.35017e-05 0)
(-0.00173994 2.32548e-05 0)
(-0.00176926 2.30014e-05 0)
(-0.00179825 2.27413e-05 0)
(-0.0018269 2.24743e-05 0)
(-0.00185519 2.22006e-05 0)
(-0.00188313 2.19198e-05 0)
(-0.0019107 2.16319e-05 0)
(-0.0019379 2.13369e-05 0)
(-0.0019647 2.10346e-05 0)
(-0.00199112 2.07249e-05 0)
(-0.00201712 2.04077e-05 0)
(-0.00204272 2.00831e-05 0)
(-0.00206789 1.97508e-05 0)
(-0.00209263 1.94107e-05 0)
(-0.00211692 1.90629e-05 0)
(-0.00214076 1.87072e-05 0)
(-0.00216414 1.83435e-05 0)
(-0.00218705 1.79718e-05 0)
(-0.00220947 1.75919e-05 0)
(-0.00223141 1.72039e-05 0)
(-0.00225283 1.68077e-05 0)
(-0.00227375 1.64031e-05 0)
(-0.00229414 1.59903e-05 0)
(-0.002314 1.5569e-05 0)
(-0.00233331 1.51392e-05 0)
(-0.00235206 1.4701e-05 0)
(-0.00237026 1.42543e-05 0)
(-0.00238787 1.37989e-05 0)
(-0.0024049 1.3335e-05 0)
(-0.00242132 1.28625e-05 0)
(-0.00243715 1.23813e-05 0)
(-0.00245235 1.18916e-05 0)
(-0.00246692 1.13931e-05 0)
(-0.00248085 1.08861e-05 0)
(-0.00249413 1.03704e-05 0)
(-0.00250674 9.8461e-06 0)
(-0.00251869 9.31327e-06 0)
(-0.00252995 8.7719e-06 0)
(-0.00254051 8.22205e-06 0)
(-0.00255038 7.66377e-06 0)
(-0.00255952 7.09712e-06 0)
(-0.00256795 6.52216e-06 0)
(-0.00257563 5.93898e-06 0)
(-0.00258258 5.34767e-06 0)
(-0.00258876 4.74832e-06 0)
(-0.00259419 4.14106e-06 0)
(-0.00259883 3.52599e-06 0)
(-0.0026027 2.90326e-06 0)
(-0.00260577 2.273e-06 0)
(-0.00260803 1.63537e-06 0)
(-0.00260949 9.9054e-07 0)
(-0.00261013 3.38679e-07 0)
(-0.00260993 -3.20026e-07 0)
(-0.0026089 -9.85374e-07 0)
(-0.00260703 -1.65715e-06 0)
(-0.0026043 -2.33515e-06 0)
(-0.00260071 -3.01911e-06 0)
(-0.00259626 -3.7088e-06 0)
(-0.00259093 -4.40395e-06 0)
(-0.00258472 -5.1043e-06 0)
(-0.00257762 -5.80955e-06 0)
(-0.00256963 -6.51941e-06 0)
(-0.00256074 -7.23357e-06 0)
(-0.00255095 -7.95171e-06 0)
(-0.00254025 -8.67351e-06 0)
(-0.00252865 -9.39862e-06 0)
(-0.00251612 -1.01267e-05 0)
(-0.00250268 -1.08573e-05 0)
(-0.00248831 -1.15902e-05 0)
(-0.00247302 -1.23249e-05 0)
(-0.00245681 -1.3061e-05 0)
(-0.00243967 -1.37982e-05 0)
(-0.0024216 -1.45359e-05 0)
(-0.0024026 -1.52739e-05 0)
(-0.00238267 -1.60116e-05 0)
(-0.00236182 -1.67486e-05 0)
(-0.00234004 -1.74845e-05 0)
(-0.00231734 -1.82188e-05 0)
(-0.00229371 -1.8951e-05 0)
(-0.00226917 -1.96807e-05 0)
(-0.00224371 -2.04075e-05 0)
(-0.00221734 -2.11308e-05 0)
(-0.00219006 -2.18501e-05 0)
(-0.00216188 -2.2565e-05 0)
(-0.00213281 -2.32751e-05 0)
(-0.00210285 -2.39797e-05 0)
(-0.002072 -2.46785e-05 0)
(-0.00204029 -2.5371e-05 0)
(-0.0020077 -2.60567e-05 0)
(-0.00197426 -2.67351e-05 0)
(-0.00193998 -2.74058e-05 0)
(-0.00190485 -2.80683e-05 0)
(-0.0018689 -2.87221e-05 0)
(-0.00183214 -2.93668e-05 0)
(-0.00179457 -3.00019e-05 0)
(-0.00175621 -3.0627e-05 0)
(-0.00171707 -3.12417e-05 0)
(-0.00167717 -3.18454e-05 0)
(-0.00163651 -3.24376e-05 0)
(-0.00159512 -3.30178e-05 0)
(-0.00155301 -3.35855e-05 0)
(-0.0015102 -3.41399e-05 0)
(-0.0014667 -3.46804e-05 0)
(-0.00142254 -3.52062e-05 0)
(-0.00137772 -3.57161e-05 0)
(-0.00133228 -3.62091e-05 0)
(-0.00128623 -3.66838e-05 0)
(-0.0012396 -3.71384e-05 0)
(-0.00119242 -3.75709e-05 0)
(-0.00114471 -3.79788e-05 0)
(-0.00109652 -3.83592e-05 0)
(-0.00104787 -3.87087e-05 0)
(-0.000998817 -3.90229e-05 0)
(-0.0009494 -3.92969e-05 0)
(-0.000899679 -3.95251e-05 0)
(-0.000849714 -3.97006e-05 0)
(-0.00079958 -3.98157e-05 0)
(-0.000749357 -3.98615e-05 0)
(-0.000699142 -3.98279e-05 0)
(-0.000649042 -3.97036e-05 0)
(-0.000599179 -3.94757e-05 0)
(-0.000549693 -3.91301e-05 0)
(-0.000500742 -3.86515e-05 0)
(-0.000452503 -3.80227e-05 0)
(-0.000405173 -3.72255e-05 0)
(-0.000358975 -3.62405e-05 0)
(-0.000314152 -3.50468e-05 0)
(-0.000270975 -3.36229e-05 0)
(-0.000229738 -3.19466e-05 0)
(-0.000190758 -2.99957e-05 0)
(-0.000154379 -2.7749e-05 0)
(-0.00012096 -2.51876e-05 0)
(-9.08775e-05 -2.22974e-05 0)
(-6.4509e-05 -1.90738e-05 0)
(-4.22184e-05 -1.55295e-05 0)
(-2.43257e-05 -1.17082e-05 0)
(-1.1059e-05 -7.71061e-06 0)
(-2.47735e-06 -3.74037e-06 0)
(1.67203e-06 -1.83667e-07 0)
(2.23613e-06 2.23706e-06 0)
(6.45693e-07 2.18121e-06 0)
(3.44821e-07 -2.75815e-06 0)
(7.57321e-07 -2.61299e-06 0)
(-1.19592e-06 1.19667e-06 0)
(-6.78215e-06 6.96737e-06 0)
(-1.68343e-05 1.36623e-05 0)
(-3.17228e-05 2.06399e-05 0)
(-5.15182e-05 2.75059e-05 0)
(-7.60954e-05 3.40267e-05 0)
(-0.000105202 4.00708e-05 0)
(-0.00013851 4.55715e-05 0)
(-0.000175647 5.05037e-05 0)
(-0.000216225 5.48692e-05 0)
(-0.000259855 5.86871e-05 0)
(-0.000306159 6.19878e-05 0)
(-0.000354781 6.48084e-05 0)
(-0.000405387 6.71893e-05 0)
(-0.000457669 6.91729e-05 0)
(-0.000511349 7.08013e-05 0)
(-0.000566178 7.21156e-05 0)
(-0.000621935 7.31547e-05 0)
(-0.000678424 7.39553e-05 0)
(-0.000735478 7.45509e-05 0)
(-0.00079295 7.49721e-05 0)
(-0.000850716 7.52462e-05 0)
(-0.00090867 7.53972e-05 0)
(-0.000966723 7.54462e-05 0)
(-0.0010248 7.54113e-05 0)
(-0.00108284 7.53079e-05 0)
(-0.0011408 7.51487e-05 0)
(-0.00119863 7.49445e-05 0)
(-0.00125629 7.4704e-05 0)
(-0.00131377 7.4434e-05 0)
(-0.00137103 7.41401e-05 0)
(-0.00142807 7.38264e-05 0)
(-0.00148485 7.34962e-05 0)
(-0.00154138 7.31518e-05 0)
(-0.00159763 7.27947e-05 0)
(-0.00165359 7.24261e-05 0)
(-0.00170927 7.20465e-05 0)
(-0.00176464 7.16564e-05 0)
(-0.00181969 7.12558e-05 0)
(-0.00187443 7.08444e-05 0)
(-0.00192884 7.04222e-05 0)
(-0.00198291 6.99888e-05 0)
(-0.00203663 6.95437e-05 0)
(-0.00208999 6.90865e-05 0)
(-0.00214298 6.86169e-05 0)
(-0.0021956 6.81344e-05 0)
(-0.00224783 6.76386e-05 0)
(-0.00229966 6.7129e-05 0)
(-0.00235108 6.66053e-05 0)
(-0.00240207 6.60671e-05 0)
(-0.00245264 6.55141e-05 0)
(-0.00250276 6.49458e-05 0)
(-0.00255243 6.43621e-05 0)
(-0.00260163 6.37625e-05 0)
(-0.00265034 6.31467e-05 0)
(-0.00269857 6.25146e-05 0)
(-0.00274629 6.18656e-05 0)
(-0.00279349 6.11997e-05 0)
(-0.00284016 6.05165e-05 0)
(-0.00288628 5.98157e-05 0)
(-0.00293184 5.90971e-05 0)
(-0.00297683 5.83604e-05 0)
(-0.00302124 5.76054e-05 0)
(-0.00306504 5.68319e-05 0)
(-0.00310823 5.60396e-05 0)
(-0.00315079 5.52283e-05 0)
(-0.00319271 5.43977e-05 0)
(-0.00323397 5.35477e-05 0)
(-0.00327455 5.26779e-05 0)
(-0.00331445 5.17883e-05 0)
(-0.00335364 5.08786e-05 0)
(-0.00339212 4.99486e-05 0)
(-0.00342986 4.8998e-05 0)
(-0.00346685 4.80268e-05 0)
(-0.00350307 4.70347e-05 0)
(-0.00353852 4.60216e-05 0)
(-0.00357316 4.49873e-05 0)
(-0.003607 4.39316e-05 0)
(-0.00364 4.28545e-05 0)
(-0.00367216 4.17558e-05 0)
(-0.00370346 4.06354e-05 0)
(-0.00373388 3.94931e-05 0)
(-0.0037634 3.83289e-05 0)
(-0.00379201 3.71427e-05 0)
(-0.0038197 3.59344e-05 0)
(-0.00384644 3.47039e-05 0)
(-0.00387222 3.34513e-05 0)
(-0.00389702 3.21764e-05 0)
(-0.00392083 3.08794e-05 0)
(-0.00394363 2.95601e-05 0)
(-0.00396541 2.82187e-05 0)
(-0.00398613 2.68551e-05 0)
(-0.0040058 2.54695e-05 0)
(-0.0040244 2.40619e-05 0)
(-0.0040419 2.26325e-05 0)
(-0.00405829 2.11813e-05 0)
(-0.00407356 1.97085e-05 0)
(-0.00408768 1.82143e-05 0)
(-0.00410065 1.66989e-05 0)
(-0.00411245 1.51625e-05 0)
(-0.00412306 1.36053e-05 0)
(-0.00413247 1.20275e-05 0)
(-0.00414065 1.04296e-05 0)
(-0.00414761 8.81186e-06 0)
(-0.00415332 7.17456e-06 0)
(-0.00415777 5.51811e-06 0)
(-0.00416094 3.84292e-06 0)
(-0.00416282 2.14943e-06 0)
(-0.0041634 4.38083e-07 0)
(-0.00416267 -1.29061e-06 0)
(-0.0041606 -3.03615e-06 0)
(-0.0041572 -4.79796e-06 0)
(-0.00415245 -6.57547e-06 0)
(-0.00414633 -8.36807e-06 0)
(-0.00413884 -1.01751e-05 0)
(-0.00412996 -1.19959e-05 0)
(-0.00411969 -1.38297e-05 0)
(-0.00410802 -1.56759e-05 0)
(-0.00409494 -1.75336e-05 0)
(-0.00408044 -1.94021e-05 0)
(-0.00406451 -2.12805e-05 0)
(-0.00404715 -2.3168e-05 0)
(-0.00402835 -2.50636e-05 0)
(-0.0040081 -2.69665e-05 0)
(-0.0039864 -2.88758e-05 0)
(-0.00396325 -3.07904e-05 0)
(-0.00393864 -3.27094e-05 0)
(-0.00391257 -3.46317e-05 0)
(-0.00388504 -3.65564e-05 0)
(-0.00385605 -3.84822e-05 0)
(-0.00382559 -4.04082e-05 0)
(-0.00379367 -4.23332e-05 0)
(-0.00376029 -4.42561e-05 0)
(-0.00372546 -4.61758e-05 0)
(-0.00368916 -4.8091e-05 0)
(-0.00365142 -5.00006e-05 0)
(-0.00361223 -5.19034e-05 0)
(-0.0035716 -5.37981e-05 0)
(-0.00352953 -5.56837e-05 0)
(-0.00348604 -5.75587e-05 0)
(-0.00344113 -5.94221e-05 0)
(-0.00339482 -6.12725e-05 0)
(-0.0033471 -6.31088e-05 0)
(-0.003298 -6.49297e-05 0)
(-0.00324753 -6.6734e-05 0)
(-0.0031957 -6.85204e-05 0)
(-0.00314252 -7.02877e-05 0)
(-0.003088 -7.20348e-05 0)
(-0.00303218 -7.37605e-05 0)
(-0.00297505 -7.54634e-05 0)
(-0.00291664 -7.71426e-05 0)
(-0.00285697 -7.87966e-05 0)
(-0.00279606 -8.04244e-05 0)
(-0.00273393 -8.20247e-05 0)
(-0.00267059 -8.35962e-05 0)
(-0.00260608 -8.51376e-05 0)
(-0.00254041 -8.66474e-05 0)
(-0.00247361 -8.81241e-05 0)
(-0.00240571 -8.95658e-05 0)
(-0.00233674 -9.09706e-05 0)
(-0.00226671 -9.23361e-05 0)
(-0.00219568 -9.36597e-05 0)
(-0.00212366 -9.49381e-05 0)
(-0.0020507 -9.61673e-05 0)
(-0.00197683 -9.73429e-05 0)
(-0.0019021 -9.84593e-05 0)
(-0.00182657 -9.95098e-05 0)
(-0.00175027 -0.000100487 0)
(-0.00167328 -0.00010138 0)
(-0.00159567 -0.000102179 0)
(-0.00151751 -0.000102871 0)
(-0.00143888 -0.000103441 0)
(-0.0013599 -0.00010387 0)
(-0.00128068 -0.000104139 0)
(-0.00120136 -0.000104225 0)
(-0.00112207 -0.000104101 0)
(-0.001043 -0.000103739 0)
(-0.000964335 -0.000103105 0)
(-0.000886299 -0.000102164 0)
(-0.000809135 -0.000100877 0)
(-0.000733122 -9.92011e-05 0)
(-0.000658567 -9.70913e-05 0)
(-0.000585809 -9.44996e-05 0)
(-0.000515223 -9.13761e-05 0)
(-0.000447218 -8.76696e-05 0)
(-0.000382235 -8.3329e-05 0)
(-0.00032075 -7.83051e-05 0)
(-0.000263263 -7.25534e-05 0)
(-0.000210295 -6.60387e-05 0)
(-0.000162378 -5.87416e-05 0)
(-0.000120033 -5.06706e-05 0)
(-8.37446e-05 -4.18797e-05 0)
(-5.39199e-05 -3.24995e-05 0)
(-3.08241e-05 -2.27883e-05 0)
(-1.44893e-05 -1.3216e-05 0)
(-4.57663e-06 -4.59617e-06 0)
(-1.74568e-07 1.67589e-06 0)
(3.19404e-07 3.15401e-06 0)
(3.13795e-08 -2.9408e-06 0)
(-1.60017e-06 -7.65913e-07 0)
(-6.99016e-06 6.78969e-06 0)
(-1.73807e-05 1.73448e-05 0)
(-3.3493e-05 2.9386e-05 0)
(-5.56858e-05 4.19224e-05 0)
(-8.40272e-05 5.43103e-05 0)
(-0.000118375 6.61444e-05 0)
(-0.000158443 7.71817e-05 0)
(-0.000203849 8.72881e-05 0)
(-0.000254154 9.6403e-05 0)
(-0.000308892 0.000104516 0)
(-0.000367589 0.000111649 0)
(-0.000429778 0.000117848 0)
(-0.000495011 0.000123173 0)
(-0.000562869 0.000127692 0)
(-0.00063296 0.000131478 0)
(-0.000704926 0.000134604 0)
(-0.000778446 0.000137143 0)
(-0.00085323 0.000139166 0)
(-0.000929022 0.000140739 0)
(-0.0010056 0.000141923 0)
(-0.00108277 0.000142773 0)
(-0.00116036 0.000143342 0)
(-0.00123823 0.000143672 0)
(-0.00131626 0.000143804 0)
(-0.00139435 0.000143771 0)
(-0.00147241 0.000143603 0)
(-0.00155038 0.000143323 0)
(-0.00162818 0.000142953 0)
(-0.00170578 0.000142509 0)
(-0.00178313 0.000142005 0)
(-0.0018602 0.000141451 0)
(-0.00193696 0.000140856 0)
(-0.0020134 0.000140226 0)
(-0.00208947 0.000139566 0)
(-0.00216518 0.000138879 0)
(-0.0022405 0.000138168 0)
(-0.00231542 0.000137434 0)
(-0.00238992 0.000136678 0)
(-0.002464 0.0001359 0)
(-0.00253763 0.0001351 0)
(-0.00261081 0.000134279 0)
(-0.00268351 0.000133435 0)
(-0.00275574 0.000132569 0)
(-0.00282747 0.000131678 0)
(-0.0028987 0.000130764 0)
(-0.0029694 0.000129824 0)
(-0.00303956 0.000128858 0)
(-0.00310917 0.000127866 0)
(-0.00317822 0.000126846 0)
(-0.00324668 0.000125799 0)
(-0.00331455 0.000124723 0)
(-0.00338181 0.000123618 0)
(-0.00344843 0.000122483 0)
(-0.00351441 0.000121318 0)
(-0.00357973 0.000120122 0)
(-0.00364437 0.000118895 0)
(-0.00370831 0.000117636 0)
(-0.00377154 0.000116344 0)
(-0.00383403 0.00011502 0)
(-0.00389578 0.000113662 0)
(-0.00395676 0.00011227 0)
(-0.00401695 0.000110844 0)
(-0.00407634 0.000109384 0)
(-0.00413491 0.000107888 0)
(-0.00419263 0.000106357 0)
(-0.0042495 0.00010479 0)
(-0.00430548 0.000103186 0)
(-0.00436056 0.000101546 0)
(-0.00441472 9.98682e-05 0)
(-0.00446795 9.81532e-05 0)
(-0.00452021 9.64003e-05 0)
(-0.00457149 9.46091e-05 0)
(-0.00462178 9.27793e-05 0)
(-0.00467104 9.09107e-05 0)
(-0.00471926 8.90028e-05 0)
(-0.00476641 8.70554e-05 0)
(-0.00481249 8.50682e-05 0)
(-0.00485746 8.3041e-05 0)
(-0.0049013 8.09736e-05 0)
(-0.004944 7.88656e-05 0)
(-0.00498553 7.67169e-05 0)
(-0.00502587 7.45274e-05 0)
(-0.00506499 7.22968e-05 0)
(-0.00510289 7.0025e-05 0)
(-0.00513953 6.7712e-05 0)
(-0.00517489 6.53576e-05 0)
(-0.00520896 6.29618e-05 0)
(-0.0052417 6.05245e-05 0)
(-0.00527311 5.80458e-05 0)
(-0.00530315 5.55257e-05 0)
(-0.00533181 5.29643e-05 0)
(-0.00535906 5.03617e-05 0)
(-0.00538489 4.77181e-05 0)
(-0.00540927 4.50336e-05 0)
(-0.00543217 4.23084e-05 0)
(-0.00545359 3.95428e-05 0)
(-0.0054735 3.67371e-05 0)
(-0.00549187 3.38916e-05 0)
(-0.00550869 3.10067e-05 0)
(-0.00552394 2.80829e-05 0)
(-0.0055376 2.51206e-05 0)
(-0.00554964 2.21203e-05 0)
(-0.00556005 1.90826e-05 0)
(-0.00556881 1.60082e-05 0)
(-0.0055759 1.28976e-05 0)
(-0.0055813 9.75174e-06 0)
(-0.005585 6.57123e-06 0)
(-0.00558697 3.35694e-06 0)
(-0.0055872 1.09752e-07 0)
(-0.00558568 -3.1694e-06 0)
(-0.00558238 -6.47954e-06 0)
(-0.0055773 -9.81961e-06 0)
(-0.00557041 -1.31885e-05 0)
(-0.0055617 -1.65851e-05 0)
(-0.00555116 -2.00081e-05 0)
(-0.00553878 -2.34564e-05 0)
(-0.00552454 -2.69285e-05 0)
(-0.00550843 -3.0423e-05 0)
(-0.00549044 -3.39386e-05 0)
(-0.00547057 -3.74738e-05 0)
(-0.00544879 -4.10269e-05 0)
(-0.00542511 -4.45964e-05 0)
(-0.00539952 -4.81807e-05 0)
(-0.005372 -5.1778e-05 0)
(-0.00534255 -5.53865e-05 0)
(-0.00531118 -5.90045e-05 0)
(-0.00527787 -6.263e-05 0)
(-0.00524261 -6.62613e-05 0)
(-0.00520542 -6.98962e-05 0)
(-0.00516629 -7.35329e-05 0)
(-0.00512522 -7.71693e-05 0)
(-0.0050822 -8.08032e-05 0)
(-0.00503725 -8.44327e-05 0)
(-0.00499036 -8.80555e-05 0)
(-0.00494155 -9.16694e-05 0)
(-0.00489081 -9.52723e-05 0)
(-0.00483815 -9.88619e-05 0)
(-0.00478359 -0.000102436 0)
(-0.00472712 -0.000105992 0)
(-0.00466877 -0.000109529 0)
(-0.00460854 -0.000113042 0)
(-0.00454645 -0.000116531 0)
(-0.0044825 -0.000119994 0)
(-0.00441672 -0.000123426 0)
(-0.00434912 -0.000126828 0)
(-0.00427972 -0.000130195 0)
(-0.00420854 -0.000133526 0)
(-0.0041356 -0.000136819 0)
(-0.00406091 -0.000140071 0)
(-0.00398451 -0.00014328 0)
(-0.00390641 -0.000146444 0)
(-0.00382665 -0.000149561 0)
(-0.00374523 -0.000152627 0)
(-0.00366221 -0.000155642 0)
(-0.0035776 -0.000158602 0)
(-0.00349143 -0.000161504 0)
(-0.00340373 -0.000164347 0)
(-0.00331454 -0.000167126 0)
(-0.0032239 -0.000169838 0)
(-0.00313184 -0.00017248 0)
(-0.0030384 -0.000175047 0)
(-0.00294362 -0.000177533 0)
(-0.00284755 -0.000179932 0)
(-0.00275024 -0.000182237 0)
(-0.00265175 -0.000184438 0)
(-0.00255213 -0.000186526 0)
(-0.00245145 -0.000188486 0)
(-0.00234978 -0.000190304 0)
(-0.00224721 -0.000191962 0)
(-0.00214383 -0.000193438 0)
(-0.00203976 -0.000194709 0)
(-0.0019351 -0.000195744 0)
(-0.00182999 -0.000196512 0)
(-0.0017246 -0.000196973 0)
(-0.0016191 -0.000197085 0)
(-0.00151368 -0.000196799 0)
(-0.00140859 -0.00019606 0)
(-0.00130407 -0.00019481 0)
(-0.00120041 -0.000192981 0)
(-0.00109794 -0.000190502 0)
(-0.000997024 -0.000187297 0)
(-0.000898051 -0.000183284 0)
(-0.000801465 -0.000178377 0)
(-0.000707745 -0.000172489 0)
(-0.000617412 -0.000165532 0)
(-0.000531026 -0.000157418 0)
(-0.000449177 -0.000148068 0)
(-0.000372488 -0.000137413 0)
(-0.000301594 -0.000125406 0)
(-0.000237135 -0.000112031 0)
(-0.000179727 -9.73254e-05 0)
(-0.000129931 -8.14114e-05 0)
(-8.82091e-05 -6.45401e-05 0)
(-5.48598e-05 -4.71671e-05 0)
(-2.99303e-05 -3.00652e-05 0)
(-1.31154e-05 -1.44875e-05 0)
(-3.69765e-06 -2.44501e-06 0)
(-1.54158e-07 2.74838e-06 0)
(-3.23251e-07 -1.886e-06 0)
(-4.38212e-06 4.14099e-06 0)
(-1.37472e-05 1.68801e-05 0)
(-2.95377e-05 3.34806e-05 0)
(-5.22334e-05 5.20467e-05 0)
(-8.21e-05 7.12812e-05 0)
(-0.000119156 9.03032e-05 0)
(-0.000163219 0.000108534 0)
(-0.000213966 0.000125608 0)
(-0.000270971 0.000141312 0)
(-0.000333746 0.00015554 0)
(-0.000401767 0.00016826 0)
(-0.000474498 0.000179495 0)
(-0.000551406 0.000189302 0)
(-0.000631977 0.000197762 0)
(-0.00071572 0.000204975 0)
(-0.00080218 0.000211045 0)
(-0.000890935 0.000216083 0)
(-0.000981601 0.000220197 0)
(-0.00107384 0.000223496 0)
(-0.00116733 0.000226078 0)
(-0.00126181 0.00022804 0)
(-0.00135705 0.000229467 0)
(-0.00145284 0.000230439 0)
(-0.00154899 0.000231025 0)
(-0.00164537 0.000231287 0)
(-0.00174185 0.000231279 0)
(-0.0018383 0.000231047 0)
(-0.00193466 0.00023063 0)
(-0.00203083 0.000230061 0)
(-0.00212676 0.000229367 0)
(-0.00222239 0.00022857 0)
(-0.00231768 0.000227688 0)
(-0.0024126 0.000226734 0)
(-0.0025071 0.000225719 0)
(-0.00260117 0.000224652 0)
(-0.00269477 0.000223538 0)
(-0.00278789 0.000222381 0)
(-0.00288051 0.000221185 0)
(-0.0029726 0.000219951 0)
(-0.00306415 0.000218679 0)
(-0.00315514 0.000217371 0)
(-0.00324556 0.000216026 0)
(-0.00333539 0.000214644 0)
(-0.0034246 0.000213223 0)
(-0.00351319 0.000211763 0)
(-0.00360113 0.000210263 0)
(-0.00368841 0.000208722 0)
(-0.00377501 0.000207138 0)
(-0.00386091 0.000205512 0)
(-0.0039461 0.000203841 0)
(-0.00403054 0.000202124 0)
(-0.00411424 0.000200362 0)
(-0.00419715 0.000198552 0)
(-0.00427927 0.000196695 0)
(-0.00436057 0.000194788 0)
(-0.00444104 0.000192832 0)
(-0.00452065 0.000190826 0)
(-0.00459938 0.000188768 0)
(-0.00467721 0.000186658 0)
(-0.00475411 0.000184495 0)
(-0.00483007 0.000182279 0)
(-0.00490507 0.000180009 0)
(-0.00497908 0.000177683 0)
(-0.00505207 0.000175303 0)
(-0.00512403 0.000172866 0)
(-0.00519493 0.000170372 0)
(-0.00526475 0.000167821 0)
(-0.00533346 0.000165212 0)
(-0.00540105 0.000162544 0)
(-0.00546748 0.000159817 0)
(-0.00553274 0.00015703 0)
(-0.00559679 0.000154183 0)
(-0.00565962 0.000151275 0)
(-0.00572119 0.000148306 0)
(-0.00578149 0.000145275 0)
(-0.00584049 0.000142181 0)
(-0.00589816 0.000139025 0)
(-0.00595448 0.000135806 0)
(-0.00600942 0.000132524 0)
(-0.00606296 0.000129177 0)
(-0.00611507 0.000125767 0)
(-0.00616573 0.000122292 0)
(-0.00621491 0.000118752 0)
(-0.00626258 0.000115148 0)
(-0.00630871 0.000111478 0)
(-0.00635329 0.000107743 0)
(-0.00639629 0.000103943 0)
(-0.00643767 0.000100078 0)
(-0.00647742 9.61473e-05 0)
(-0.00651551 9.21512e-05 0)
(-0.0065519 8.809e-05 0)
(-0.00658659 8.39637e-05 0)
(-0.00661953 7.97726e-05 0)
(-0.00665071 7.55169e-05 0)
(-0.0066801 7.11968e-05 0)
(-0.00670767 6.68129e-05 0)
(-0.0067334 6.23656e-05 0)
(-0.00675726 5.78552e-05 0)
(-0.00677923 5.32824e-05 0)
(-0.00679929 4.86479e-05 0)
(-0.00681741 4.39523e-05 0)
(-0.00683357 3.91964e-05 0)
(-0.00684774 3.4381e-05 0)
(-0.0068599 2.95072e-05 0)
(-0.00687003 2.45759e-05 0)
(-0.0068781 1.95881e-05 0)
(-0.0068841 1.45451e-05 0)
(-0.006888 9.44803e-06 0)
(-0.00688978 4.29831e-06 0)
(-0.00688943 -9.02684e-07 0)
(-0.00688692 -6.15346e-06 0)
(-0.00688223 -1.14524e-05 0)
(-0.00687535 -1.6798e-05 0)
(-0.00686625 -2.21882e-05 0)
(-0.00685493 -2.76215e-05 0)
(-0.00684136 -3.30957e-05 0)
(-0.00682554 -3.86089e-05 0)
(-0.00680744 -4.41589e-05 0)
(-0.00678705 -4.97437e-05 0)
(-0.00676436 -5.53608e-05 0)
(-0.00673936 -6.10079e-05 0)
(-0.00671204 -6.66826e-05 0)
(-0.00668239 -7.23823e-05 0)
(-0.00665039 -7.81044e-05 0)
(-0.00661605 -8.38463e-05 0)
(-0.00657935 -8.9605e-05 0)
(-0.00654029 -9.53777e-05 0)
(-0.00649887 -0.000101162 0)
(-0.00645509 -0.000106953 0)
(-0.00640893 -0.00011275 0)
(-0.0063604 -0.000118549 0)
(-0.00630951 -0.000124346 0)
(-0.00625625 -0.000130139 0)
(-0.00620063 -0.000135924 0)
(-0.00614264 -0.000141697 0)
(-0.00608231 -0.000147456 0)
(-0.00601963 -0.000153196 0)
(-0.00595462 -0.000158914 0)
(-0.00588728 -0.000164607 0)
(-0.00581763 -0.000170271 0)
(-0.00574567 -0.000175903 0)
(-0.00567143 -0.000181498 0)
(-0.00559492 -0.000187053 0)
(-0.00551616 -0.000192565 0)
(-0.00543517 -0.00019803 0)
(-0.00535196 -0.000203444 0)
(-0.00526656 -0.000208804 0)
(-0.00517899 -0.000214106 0)
(-0.00508928 -0.000219346 0)
(-0.00499745 -0.000224522 0)
(-0.00490353 -0.000229628 0)
(-0.00480755 -0.000234662 0)
(-0.00470954 -0.00023962 0)
(-0.00460953 -0.000244498 0)
(-0.00450756 -0.000249293 0)
(-0.00440366 -0.000253999 0)
(-0.00429787 -0.000258614 0)
(-0.00419023 -0.000263133 0)
(-0.00408077 -0.000267549 0)
(-0.00396955 -0.000271858 0)
(-0.00385661 -0.000276054 0)
(-0.003742 -0.000280127 0)
(-0.00362577 -0.000284071 0)
(-0.00350798 -0.000287873 0)
(-0.00338869 -0.000291523 0)
(-0.00326797 -0.000295005 0)
(-0.00314589 -0.000298302 0)
(-0.00302254 -0.000301392 0)
(-0.00289801 -0.000304252 0)
(-0.0027724 -0.000306853 0)
(-0.00264584 -0.000309159 0)
(-0.00251844 -0.000311133 0)
(-0.00239036 -0.000312727 0)
(-0.00226178 -0.00031389 0)
(-0.00213287 -0.000314561 0)
(-0.00200386 -0.000314672 0)
(-0.001875 -0.000314147 0)
(-0.00174655 -0.0003129 0)
(-0.00161884 -0.000310839 0)
(-0.00149221 -0.000307861 0)
(-0.00136705 -0.000303856 0)
(-0.00124378 -0.000298706 0)
(-0.0011229 -0.000292287 0)
(-0.00100491 -0.000284471 0)
(-0.000890373 -0.000275128 0)
(-0.000779908 -0.000264128 0)
(-0.00067416 -0.000251346 0)
(-0.00057381 -0.000236673 0)
(-0.000479566 -0.000220019 0)
(-0.00039215 -0.000201327 0)
(-0.000312276 -0.000180598 0)
(-0.000240628 -0.000157911 0)
(-0.000177827 -0.000133469 0)
(-0.000124386 -0.000107657 0)
(-8.06578e-05 -8.11308e-05 0)
(-4.67631e-05 -5.49439e-05 0)
(-2.2532e-05 -3.07225e-05 0)
(-7.60293e-06 -1.09405e-05 0)
(-6.55121e-07 5.46433e-07 0)
(-6.82632e-07 5.23495e-07 0)
(-7.28737e-06 1.2414e-05 0)
(-2.08378e-05 3.18717e-05 0)
(-4.22836e-05 5.57762e-05 0)
(-7.17891e-05 8.19635e-05 0)
(-0.000109469 0.000108895 0)
(-0.00015525 0.000135488 0)
(-0.000208885 0.000161005 0)
(-0.00027 0.000184965 0)
(-0.000338126 0.000207073 0)
(-0.000412732 0.000227173 0)
(-0.000493249 0.000245208 0)
(-0.000579091 0.000261195 0)
(-0.000669677 0.000275202 0)
(-0.00076444 0.000287332 0)
(-0.000862838 0.000297712 0)
(-0.000964363 0.000306484 0)
(-0.00106854 0.000313794 0)
(-0.00117494 0.000319793 0)
(-0.00128318 0.000324627 0)
(-0.0013929 0.000328435 0)
(-0.00150379 0.000331349 0)
(-0.00161559 0.00033349 0)
(-0.00172804 0.00033497 0)
(-0.00184096 0.000335886 0)
(-0.00195415 0.000336326 0)