/*--------------------------------*- C++ -*----------------------------------*\
  =========                 |
  \\      /  F ield         | OpenFOAM: The Open Source CFD Toolbox
   \\    /   O peration     | Website:  https://openfoam.org
    \\  /    A nd           | Version:  6
     \\/     M anipulation  |
\*---------------------------------------------------------------------------*/
FoamFile
{
    version     2.0;
    format      ascii;
    class       volVectorField;
    location    "0";
    object      U;
}
// * * * * * * * * * * * * * * * * * * * * * * * * * * * * * * * * * * * * * //

dimensions      [0 1 -1 0 0 0 0];

internalField   nonuniform List<vector> 
13046
(
(0.412863 0.133957 0)
(0.55634 -0.169237 2.66182e-21)
(0.206318 -0.10307 5.99515e-21)
(0.407985 0.0589821 0)
(0.189886 -0.0375654 5.518e-21)
(0.475011 -0.17795 0)
(0.443926 0.0785763 -8.09904e-22)
(0.518406 -0.210944 -1.3545e-21)
(0.165334 -0.0266701 6.07002e-21)
(0.851411 0.367876 -1.94692e-21)
(0.962559 -0.423171 0)
(-0.0178766 -0.00887048 -3.70954e-21)
(0.516274 0.170056 5.12098e-21)
(0.647933 -0.237057 3.92643e-21)
(0.136134 -0.0728001 -3.2675e-21)
(0.802215 0.410962 -1.13487e-21)
(0.0173805 -0.0384195 -5.90996e-21)
(1.00864 -0.354394 -1.11473e-21)
(0.249894 0.0287609 0)
(0.361147 -0.154917 2.9607e-21)
(0.421498 -0.0289065 -8.48e-21)
(0.8129 0.403262 1.11258e-21)
(0.00719723 -0.0305581 1.18344e-20)
(1.00016 -0.369915 -3.03271e-22)
(0.366435 0.0698993 -3.44769e-21)
(0.472524 -0.140734 5.03581e-21)
(0.224434 -0.0825439 0)
(0.522497 0.196425 -1.1641e-22)
(0.671269 -0.234828 -1.16014e-21)
(0.139285 -0.0864839 1.12913e-20)
(0.416723 0.153192 0)
(0.578951 -0.159092 0)
(0.214995 -0.121521 -6.10177e-21)
(0.338933 0.0441732 1.20963e-20)
(0.246386 -0.0823806 -2.05682e-21)
(0.431973 -0.115069 -7.80421e-21)
(0.340451 0.0236003 2.61967e-23)
(0.250944 -0.0633642 0)
(0.406256 -0.111931 0)
(0.336452 0.15768 -4.37372e-21)
(0.354038 -0.230917 -5.44062e-21)
(0.578376 -0.0799869 3.99538e-21)
(0.338689 -0.0341812 -2.76697e-21)
(0.287723 -0.0388194 2.83603e-21)
(0.334321 -0.0819131 0)
(0.361369 -0.0271242 -1.77635e-21)
(0.263771 -0.0188804 0)
(0.345078 -0.105789 9.06238e-22)
(0.431913 0.129225 0)
(0.56315 -0.188788 1.89906e-22)
(0.177565 -0.084285 3.17983e-23)
(0.512338 -0.355981 -6.48941e-21)
(0.284758 0.176282 0)
(0.644988 -0.0121517 4.60539e-21)
(0.565652 -0.390095 9.2387e-21)
(0.660056 0.0101262 4.9855e-21)
(0.253935 0.161684 -6.70612e-21)
(0.917742 -0.229027 7.20555e-22)
(0.665931 0.393255 0)
(0.174281 -0.163464 -4.92876e-21)
(0.672706 0.182684 2.40959e-21)
(0.756614 -0.376718 -2.20415e-21)
(0.0657547 0.0113363 1.3563e-20)
(0.00574115 -0.0241555 -6.89973e-21)
(0.946041 -0.403404 1.04799e-21)
(0.814812 0.333673 3.50554e-21)
(0.631586 0.387616 0)
(0.887548 -0.196975 -3.46829e-21)
(0.217919 -0.201425 -1.42665e-21)
(0.602429 0.368287 1.83995e-21)
(0.857936 -0.184798 4.70013e-21)
(0.233869 -0.210475 1.94095e-21)
(0.948655 -0.237294 6.76529e-24)
(0.691991 0.410234 -7.33568e-23)
(0.158525 -0.157776 2.85128e-23)
(0.259534 0.0486476 0)
(0.354948 -0.168579 -3.22732e-21)
(0.447841 -0.0453376 5.99708e-21)
(0.104353 -0.112081 -5.40501e-21)
(0.732337 0.416318 5.28682e-21)
(0.977619 -0.277704 1.4587e-21)
(0.390424 0.0786396 -1.8074e-21)
(0.489303 -0.159989 1.794e-21)
(0.201436 -0.0649076 0)
(-4.08557e-05 -0.0221906 6.146e-21)
(0.960973 -0.407976 0)
(0.830629 0.34817 -2.06393e-21)
(0.853346 0.268484 3.56385e-21)
(0.00390874 0.00821043 0)
(0.905003 -0.471776 8.59105e-22)
(0.0353733 0.0420098 0)
(0.912959 0.210443 0)
(0.871929 -0.546253 -1.04412e-22)
(0.676861 0.272533 4.73395e-21)
(0.711193 0.280408 -6.55061e-21)
(0.831185 -0.323948 -4.02347e-21)
(0.856141 -0.350462 1.87884e-21)
(0.0677679 -0.0571251 2.88176e-21)
(0.0483494 -0.0417058 -7.39956e-21)
(0.0128615 0.0165305 3.52141e-22)
(0.852184 0.248718 -3.48678e-21)
(0.888175 -0.485267 0)
(0.374915 -0.00557018 1.40815e-23)
(0.240841 -0.0187807 0)
(0.376934 -0.130964 0)
(0.196694 0.108193 -1.21929e-20)
(0.595955 0.0361864 2.34982e-21)
(0.555372 -0.338616 0)
(0.282328 0.155875 -1.84875e-21)
(0.461596 -0.303917 0)
(0.59929 -0.0297634 8.99626e-21)
(0.802171 0.366791 0)
(-0.0213527 0.000494487 5.01378e-21)
(0.87539 -0.410866 1.04416e-22)
(0.477974 0.148634 -3.58055e-21)
(0.611001 -0.216665 -1.74053e-21)
(0.149665 -0.0696337 -5.90094e-21)
(0.710622 0.326283 -2.73757e-21)
(0.678309 0.299495 2.5552e-21)
(0.890922 -0.318112 -1.03007e-21)
(0.0704395 -0.0729958 -3.2878e-21)
(0.851132 -0.306849 1.07764e-21)
(0.0791788 -0.073909 3.07142e-21)
(0.841057 0.37694 4.51512e-21)
(0.957692 -0.417492 7.39023e-22)
(-0.0187788 -0.00723625 1.65223e-21)
(0.605002 0.242262 0)
(0.760007 -0.281595 2.83041e-21)
(0.102331 -0.078819 -1.71518e-20)
(0.369868 0.17212 0)
(0.316013 -0.209762 5.48024e-21)
(0.594084 -0.104607 -2.08951e-22)
(0.0475196 0.0501738 0)
(0.8877 0.196021 0)
(0.86077 -0.537044 0)
(0.77339 0.284735 0)
(0.890534 -0.400339 4.83076e-21)
(0.0213978 -0.0183846 7.43234e-21)
(0.451588 0.173362 0)
(0.615442 -0.179567 0)
(0.199478 -0.125819 0)
(0.547705 0.103323 0)
(0.607179 -0.299873 0)
(0.126272 0.0178675 0)
(0.264308 0.152428 1.71073e-21)
(0.501188 -0.32954 0)
(0.61156 -0.0105383 -4.86492e-21)
(0.198755 0.0964652 1.18135e-20)
(0.576206 0.0319243 5.20729e-21)
(0.542116 -0.320998 -5.88194e-21)
(0.698271 0.201296 -5.42977e-21)
(0.786026 -0.38658 0)
(0.0524367 0.000857807 -1.7621e-20)
(0.181769 0.0480687 0)
(0.507046 0.0365896 -1.14872e-20)
(0.501809 -0.261887 -1.52677e-21)
(0.658019 -0.429737 -2.52827e-21)
(0.687184 0.0675732 -5.26156e-21)
(0.701714 -0.445773 0)
(0.708654 0.096507 -3.04124e-21)
(0.18015 0.122194 -5.74764e-21)
(0.145348 0.100563 5.52081e-21)
(0.574931 0.0762821 -7.28604e-22)
(0.595302 -0.328378 -2.99486e-21)
(0.142957 0.0508764 3.40004e-21)
(0.869553 0.353399 1.97568e-21)
(-0.0196712 -0.00637009 -1.93309e-21)
(0.946207 -0.440165 1.36613e-21)
(0.818637 0.373679 1.18414e-21)
(-0.021104 -0.00134607 7.53027e-22)
(0.91535 -0.412451 0)
(0.782358 0.302681 -1.07006e-22)
(0.907795 -0.397129 0)
(0.0176525 -0.0238921 -8.97735e-21)
(0.428573 0.234807 0)
(0.673882 -0.116755 -1.18887e-21)
(0.326306 -0.243506 -3.15995e-21)
(0.558732 0.0600883 -4.71586e-21)
(0.162087 0.0651192 0)
(0.564157 -0.309739 0)
(-0.0181209 -0.00109377 0)
(0.932316 -0.471398 0)
(0.890527 0.320092 -1.58724e-21)
(0.39582 0.211364 0)
(0.641813 -0.101443 2.66831e-21)
(0.339574 -0.23813 -8.22208e-22)
(0.178683 0.0613349 0)
(0.52279 0.0365723 0)
(0.509353 -0.276707 0)
(0.518471 0.0845587 -2.39069e-21)
(0.573423 -0.279534 0)
(0.137123 0.0129438 0)
(0.688944 -0.27651 1.67999e-23)
(0.105917 -0.0505566 4.0242e-21)
(0.578156 0.220101 -7.40902e-21)
(0.729567 -0.269218 0)
(0.110481 -0.0739969 1.77218e-20)
(0.856992 0.310677 4.04883e-21)
(-0.00644917 -0.00546944 -5.58249e-21)
(0.937298 -0.449879 3.6889e-21)
(0.0358014 0.0383585 -5.14917e-21)
(0.856852 0.211151 -2.19468e-21)
(0.86499 -0.510184 -4.45274e-21)
(0.898083 0.244615 5.68356e-21)
(0.894532 -0.511798 0)
(0.0109792 0.0235543 5.04046e-21)
(0.534218 -0.396769 2.59747e-21)
(0.699906 -0.0179478 -2.02105e-21)
(0.324532 0.225092 -5.62643e-21)
(0.504603 0.122574 4.70363e-21)
(0.720848 0.42622 -2.76065e-21)
(0.123293 -0.126486 3.32473e-21)
(0.981192 -0.266895 -6.75881e-24)
(0.901951 -0.511205 0)
(0.908297 0.264307 1.56036e-21)
(0.000534362 0.0152361 0)
(0.367182 0.020309 8.93286e-21)
(0.229278 -0.0380571 0)
(0.408329 -0.135682 -2.91982e-21)
(0.502094 0.202118 0)
(0.664103 -0.215137 1.67488e-22)
(0.166263 -0.10537 -3.34963e-21)
(0.0466524 0.0478161 -3.9676e-21)
(0.864845 0.198744 0)
(0.856156 -0.524184 5.13007e-21)
(0.53588 0.143084 0)
(0.673258 -0.282995 -7.10082e-21)
(0.105346 -0.0382036 0)
(-0.0236885 -0.00300021 0)
(0.908942 -0.444154 -7.10542e-22)
(0.865455 0.352522 0)
(0.290937 0.202565 6.08777e-21)
(0.698603 -0.00035707 0)
(0.568167 -0.418935 0)
(0.873201 0.235767 -4.98644e-21)
(0.88642 -0.501546 0)
(0.0163205 0.0239381 3.65954e-23)
(0.638678 0.0872347 -6.07601e-21)
(0.64857 -0.386479 -2.22228e-21)
(0.137934 0.0760614 7.79644e-21)
(0.601631 0.258997 0)
(0.768595 -0.268685 -2.65028e-21)
(0.115993 -0.0921716 -1.77527e-21)
(0.803915 -0.535468 7.03698e-21)
(0.833531 0.137715 3.94612e-21)
(0.109147 0.0939357 -3.12356e-21)
(0.745061 0.104834 0)
(0.732804 -0.474694 2.96936e-21)
(0.141027 0.10381 1.1376e-22)
(-0.0238251 -0.0026756 3.90025e-21)
(0.885773 -0.45146 0)
(0.872082 0.341008 1.07011e-21)
(0.339402 0.192629 -8.14899e-21)
(0.419232 -0.290041 3.91973e-21)
(0.629085 -0.0615946 3.81374e-22)
(0.736795 0.390368 -1.14113e-21)
(-0.0164267 0.00415471 4.14941e-22)
(0.889791 -0.357083 0)
(0.227318 0.00988711 -1.82983e-21)
(0.411749 -0.00740488 6.88695e-21)
(0.38951 -0.162461 -8.82191e-21)
(0.633941 0.123057 -2.44127e-21)
(0.618559 0.0941551 -3.23237e-23)
(0.681068 -0.370817 5.42614e-21)
(0.641759 -0.366971 5.31749e-21)
(0.129273 0.0605128 -6.19913e-21)
(0.101387 0.0402994 3.19087e-21)
(0.0815432 -0.0931299 7.07468e-21)
(0.750909 0.420996 -2.83035e-21)
(0.99886 -0.290018 0)
(0.569146 0.253166 0)
(0.745186 -0.240673 0)
(0.147063 -0.111716 7.07897e-21)
(0.77498 0.12821 1.05964e-21)
(0.766592 -0.494833 0)
(0.116686 0.0900873 0)
(0.744292 0.309162 -2.33719e-21)
(0.89497 -0.357061 0)
(0.0392105 -0.0448137 -3.24428e-21)
(0.317809 -0.0204167 -1.88665e-21)
(0.349313 -0.0704678 -2.70347e-21)
(0.29409 -0.0585246 9.45112e-22)
(0.688029 0.109179 3.86798e-21)
(0.701979 -0.425312 0)
(0.123083 0.0789515 5.30961e-21)
(0.575177 0.270647 0)
(0.763666 -0.234249 -3.27268e-21)
(0.155694 -0.125061 4.4921e-21)
(0.549473 0.167467 -7.59995e-21)
(0.58338 0.185736 6.1205e-21)
(0.347954 0.205815 6.44939e-21)
(0.430099 -0.305886 -1.13262e-20)
(0.646391 -0.0576338 8.35015e-21)
(0.709553 0.133198 3.97722e-21)
(0.734643 -0.436138 -4.48468e-21)
(0.0970362 0.061996 -4.84335e-21)
(0.768045 0.314915 8.62367e-21)
(0.0263297 -0.0350329 1.14978e-20)
(0.913024 -0.375411 2.23637e-21)
(0.283088 0.14147 2.8341e-21)
(0.437991 -0.285201 0)
(0.580082 -0.0328996 -3.02844e-21)
(0.197688 0.140932 6.22184e-21)
(0.704849 0.0598319 2.98865e-21)
(0.658723 -0.448839 0)
(0.660438 0.328238 8.94371e-22)
(0.862427 -0.267633 2.69609e-21)
(0.119449 -0.111301 -2.02579e-21)
(0.316138 0.19775 -5.27186e-22)
(0.488506 -0.34611 0)
(0.656065 -0.0277121 -6.38382e-21)
(0.688539 0.347119 0)
(0.710043 0.347638 0)
(0.895162 -0.282128 1.66004e-21)
(0.105544 -0.103486 5.29063e-21)
(0.907805 -0.30544 -2.3421e-21)
(0.0825677 -0.0845766 -5.60154e-21)
(-0.0154082 -0.00473902 4.30264e-21)
(0.942379 -0.457195 0)
(0.877588 0.32905 2.43978e-21)
(0.645929 0.290054 0)
(0.821795 -0.285963 1.28457e-21)
(0.100735 -0.0885089 -1.83884e-21)
(0.76877 -0.374324 5.60632e-22)
(-0.0163084 0.00413816 -6.17133e-21)
(0.711204 0.351737 -1.6929e-21)
(0.473569 0.00889773 9.31522e-21)
(0.206004 0.0453002 0)
(0.446071 -0.223152 3.20263e-21)
(0.631775 0.168333 -5.70816e-21)
(0.721237 -0.347661 0)
(0.0763005 0.00202062 -1.0438e-20)
(0.000751027 -0.0106906 3.5664e-21)
(0.832424 0.305176 -7.49491e-21)
(0.927211 -0.433281 -2.9943e-21)
(0.584739 -0.409183 3.36601e-21)
(0.678086 0.0160824 0)
(0.251994 0.173332 7.60024e-21)
(0.823034 -0.534112 8.20357e-21)
(0.845911 0.159468 2.37965e-21)
(0.0836285 0.0744509 0)
(0.617426 -0.256017 3.76952e-21)
(0.125475 -0.0334865 0)
(0.64962 0.213228 -6.12303e-21)
(0.761082 -0.333821 -2.44346e-21)
(0.0675085 -0.0309719 -3.17629e-21)
(0.607477 -0.269886 -1.2956e-22)
(0.12221 -0.0187294 -1.64494e-23)
(0.794968 0.402912 5.66905e-21)
(0.0278669 -0.0479288 -8.33871e-21)
(1.00111 -0.345572 1.63866e-21)
(0.520767 -0.406902 -3.38053e-21)
(0.723078 -0.0309779 -6.24118e-22)
(0.355973 0.249694 0)
(0.679361 0.23056 6.23729e-21)
(0.799223 -0.351142 2.98042e-21)
(0.0546777 -0.0246367 7.70134e-21)
(0.565553 0.0984176 0)
(0.60967 -0.31896 2.19498e-21)
(0.126789 0.0319346 0)
(0.608902 0.0165249 2.99746e-21)
(0.536341 -0.347366 0)
(0.228473 0.128656 0)
(0.420184 0.1052 2.50487e-21)
(0.531501 -0.182829 4.18378e-21)
(0.182285 -0.0704392 -5.41737e-24)
(0.225792 0.160602 -7.72106e-21)
(0.69892 0.0404426 -7.23307e-21)
(0.631034 -0.437304 -9.02154e-21)
(0.873954 0.287731 2.95461e-21)
(0.920846 -0.471 -3.10444e-21)
(-0.00510409 0.00310096 -8.41204e-23)
(0.830487 -0.51852 -5.60467e-21)
(0.835645 0.17152 -2.41181e-21)
(0.0691925 0.0629297 -3.99208e-21)
(0.539546 0.337198 5.69411e-21)
(0.298465 -0.251582 -2.88324e-21)
(0.805563 -0.147579 0)
(0.720571 0.388497 -1.54731e-21)
(0.698377 0.373648 1.44291e-21)
(0.921783 -0.271085 5.22983e-22)
(0.94812 -0.281042 -2.05258e-21)
(0.102969 -0.106782 1.91106e-21)
(0.117718 -0.117729 1.70944e-21)
(-0.0175918 0.00477063 6.27012e-21)
(0.80835 -0.369604 -6.17397e-22)
(0.724355 0.359127 -7.89957e-22)
(0.750742 0.397103 8.27226e-23)
(-0.0151502 0.00157835 0)
(0.921375 -0.35838 0)
(0.667506 0.141009 9.03607e-21)
(0.72057 -0.391374 1.17287e-21)
(0.0908844 0.0401936 0)
(-0.0103877 -0.00789568 1.07453e-20)
(0.862342 0.324251 -3.07639e-21)
(0.947315 -0.446191 0)
(0.60936 0.342567 -8.03283e-21)
(0.638184 0.35099 5.99115e-21)
(0.841092 -0.213599 -2.9249e-21)
(0.864681 -0.23256 -1.1021e-21)
(0.197712 -0.173396 3.37012e-21)
(0.167035 -0.150529 1.69338e-21)
(-0.00540705 0.0108776 0)
(0.882912 -0.518819 0)
(0.935713 0.262467 -7.97057e-22)
(0.689055 0.385859 1.34009e-21)
(-0.0153633 0.00729037 -3.87544e-21)
(0.858484 -0.334924 0)
(0.404479 -0.0582553 4.49341e-24)
(0.280297 0.0238714 -4.04213e-21)
(0.313483 -0.119484 -1.98197e-21)
(0.75872 0.372089 1.99292e-21)
(0.864037 -0.386918 -1.5275e-22)
(-0.019265 0.00319042 -7.79307e-21)
(0.473262 0.248932 -7.04e-21)
(0.697702 -0.149099 5.37814e-21)
(0.273436 -0.207905 4.53617e-23)
(0.897295 0.308142 -8.02142e-23)
(0.925649 -0.481268 -3.87558e-21)
(-0.0146847 0.00187002 2.19806e-21)
(0.672138 -0.379959 7.24419e-24)
(-0.0139351 -0.000187202 7.13826e-21)
(0.693852 0.292571 3.80369e-22)
(0.304347 0.131242 3.77505e-21)
(0.366121 -0.222465 2.33889e-22)
(0.545702 -0.0632513 -9.83348e-21)
(0.427917 0.0161932 0)
(0.433375 -0.187143 9.76485e-21)
(0.204469 0.00790874 -5.09133e-21)
(0.826038 0.391089 -4.62306e-21)
(-0.0156479 -0.00869747 -4.92196e-21)
(0.967318 -0.40352 5.61609e-23)
(0.449416 0.0258475 0)
(0.453828 -0.206335 3.3599e-21)
(0.191569 0.0221744 7.20556e-21)
(0.382198 -0.0543668 -4.06622e-21)
(0.283318 0.00551187 4.26939e-21)
(0.313338 -0.102921 -1.05135e-21)
(0.277416 0.202899 3.71056e-21)
(0.724151 0.015748 2.50003e-21)
(0.611647 -0.455222 -4.93497e-21)
(0.462201 -0.0302371 0)
(0.380051 -0.186051 0)
(0.243853 0.0623484 -5.99944e-22)
(0.479037 -0.00515088 -5.02204e-21)
(0.423128 -0.21166 -2.60842e-21)
(0.226221 0.0617023 -8.48127e-23)
(0.507737 0.320256 -8.67269e-21)
(0.777908 -0.129146 3.93779e-21)
(0.33349 -0.279056 5.78936e-21)
(-0.00670633 -0.018413 -7.46085e-21)
(-0.0116364 -0.0146882 7.6082e-21)
(0.983636 -0.402972 -9.50023e-22)
(0.973089 -0.416321 -7.17159e-22)
(0.835287 0.383162 -4.18409e-21)
(0.846211 0.373068 6.24658e-21)
(0.890363 0.290466 -3.67679e-21)
(0.921561 -0.480036 2.54372e-21)
(-0.00842759 0.00584808 0)
(0.286317 -0.253233 -3.74639e-21)
(0.567551 0.36345 -1.77357e-21)
(0.837348 -0.155997 0)
(0.35871 0.191917 0)
(0.377718 -0.260951 3.58707e-21)
(0.623027 -0.0794373 -2.99294e-21)
(0.761207 0.0872318 0)
(0.724242 -0.494821 -3.07259e-21)
(0.170056 0.128402 -1.17686e-22)
(0.750026 -0.437989 -5.15338e-22)
(-0.0198585 -0.00502667 0)
(0.824508 0.294512 1.49912e-21)
(0.0209106 0.0316451 0)
(0.916827 0.228759 0)
(0.880092 -0.537817 -1.81439e-21)
(0.841433 0.366972 -1.47191e-21)
(-0.0222979 -0.0033252 0)
(0.925902 -0.427398 6.97323e-22)
(-0.011272 0.00188382 2.64761e-32)
(0.628605 -0.353297 -5.00713e-22)
(0.636797 0.28203 -3.41983e-22)
(0.659116 -0.309952 5.81583e-22)
(-0.0111565 0.00669567 -2.64137e-32)
(0.603395 0.323157 3.18121e-22)
(0.798781 -0.435192 5.93515e-21)
(0.743887 0.185502 0)
(0.0580747 0.0311883 1.02585e-20)
(0.844848 -0.495138 4.37268e-22)
(-0.0164712 -0.000133434 0)
(0.92795 0.281391 0)
(0.792961 0.278022 3.80331e-21)
(0.891538 -0.420176 -2.96659e-21)
(0.0160095 -0.00955745 -5.28164e-21)
(0.783163 0.429835 -5.4318e-21)
(0.0133945 -0.0305843 -2.96192e-21)
(1.0223 -0.335047 0)
(0.480217 0.127491 -1.91074e-21)
(0.141544 -0.0461355 2.01529e-21)
(0.597251 -0.233745 -1.82402e-21)
(0.885522 -0.527056 0)
(0.00165846 0.017065 -3.66577e-21)
(0.932753 0.252385 -1.00252e-21)
(0.743983 0.0719797 2.90933e-21)
(0.191557 0.143776 2.10836e-21)
(0.698105 -0.481602 0)
(0.780049 -0.487321 0)
(0.774615 0.144952 0)
(0.0944681 0.0747388 -3.74429e-21)
(-0.00320497 0.00416249 0)
(0.372192 -0.185124 -9.86674e-22)
(0.363409 0.174056 1.99796e-22)
(0.760923 -0.395361 -5.55383e-23)
(-0.0172939 0.00164953 4.31166e-21)
(0.737375 0.337353 8.9576e-22)
(0.450198 0.105406 4.96594e-21)
(0.159065 -0.0475697 -4.81871e-21)
(0.553129 -0.213064 -2.11961e-21)
(0.899938 -0.496699 -2.97483e-21)
(0.920765 0.290573 1.6066e-21)
(-0.0140369 0.0048632 0)
(-0.00672098 0.00918338 3.82442e-21)
(0.945022 0.262325 0)
(0.864909 -0.520512 2.28005e-21)
(0.847587 0.344243 2.24786e-21)
(-0.00738182 -0.0146236 -1.1476e-20)
(0.959567 -0.424261 -3.24932e-21)
(0.0546205 -0.0691152 8.55767e-21)
(0.988215 -0.320864 -2.12644e-21)
(0.769156 0.401571 0)
(0.490255 0.326101 1.09884e-20)
(0.778658 -0.113197 -5.01863e-21)
(0.37506 -0.313166 5.47599e-21)
(0.905122 -0.248154 -7.67164e-22)
(0.670994 0.376868 -3.44983e-21)
(0.152648 -0.145107 5.2636e-21)
(0.0494236 -0.0663127 7.64766e-21)
(0.773513 0.428049 0)
(1.02042 -0.314021 1.15654e-21)
(0.501189 0.239363 1.77125e-21)
(0.539787 0.262739 0)
(0.698124 -0.184174 5.64457e-21)
(0.73961 -0.20446 -6.03529e-21)
(0.214507 -0.156121 -3.71322e-21)
(0.193157 -0.150539 0)
(0.470544 0.233471 1.73595e-21)
(0.680985 -0.159617 0)
(0.251144 -0.182904 -1.7457e-21)
(0.597959 0.353205 0)
(0.842377 -0.198343 4.7214e-21)
(0.222311 -0.195356 -1.21551e-21)
(0.814475 -0.502294 2.858e-21)
(0.811402 0.164593 -2.61221e-21)
(0.0733859 0.0614005 8.16984e-21)
(0.909518 -0.501594 0)
(0.90064 0.27969 -5.61798e-22)
(-0.00631867 0.00993324 0)
(0.0435917 0.0384651 2.63602e-21)
(0.825606 0.200798 1.58807e-21)
(0.848033 -0.492803 1.8281e-21)
(0.709957 -0.318081 -1.03653e-22)
(-0.012818 0.00775729 -5.8028e-24)
(0.632491 0.34195 0)
(0.359618 0.14507 -3.45535e-21)
(0.369182 0.135874 0)
(0.287754 -0.171719 8.70245e-22)
(0.557922 -0.110335 -1.18217e-20)
(0.263099 -0.149973 -1.1012e-21)
(0.54875 -0.126188 7.56769e-21)
(0.54336 0.316092 0)
(0.502591 0.2904 1.12173e-21)
(0.285384 -0.228144 -1.64628e-23)
(0.785575 -0.171209 -3.15769e-21)
(0.258735 -0.211016 -8.87168e-21)
(0.747076 -0.151217 6.7951e-21)
(0.658738 -0.395542 0)
(-0.0151447 -0.00337896 -7.79931e-21)
(0.728376 0.280813 0)
(0.908168 -0.492248 1.9608e-21)
(0.913132 0.291843 -5.47535e-22)
(-0.0133079 0.00428469 -2.3074e-21)
(0.382811 0.228126 2.10965e-21)
(0.413909 -0.306884 4.02995e-21)
(0.671261 -0.0740351 -9.3745e-21)
(0.778759 -0.518371 -6.32778e-21)
(0.803785 0.123071 -6.64382e-21)
(0.124177 0.10213 0)
(0.0691794 -0.0818475 -9.15137e-21)
(0.979929 -0.308898 2.26205e-21)
(0.756107 0.400969 0)
(0.840489 -0.427957 0)
(0.821561 0.345193 0)
(-0.0220538 -0.000886673 0)
(0.853913 -0.444744 0)
(0.85046 0.335758 -2.04023e-21)
(-0.0233983 -0.00236091 0)
(0.637716 0.333454 3.35003e-21)
(0.850447 -0.247385 -1.67732e-21)
(0.148427 -0.133177 -2.50646e-21)
(0.261186 0.124079 9.98974e-22)
(0.447106 -0.275418 0)
(0.559834 -0.0187713 -3.27597e-21)
(0.85347 0.354809 -2.6191e-21)
(-0.0111032 -0.0130656 -6.65315e-21)
(0.9675 -0.424852 4.62059e-21)
(0.811337 -0.457233 0)
(0.769062 0.187918 0)
(0.0555453 0.0398037 -8.85189e-21)
(0.019861 -0.0355215 -2.19879e-21)
(0.93919 -0.380613 -3.74708e-21)
(0.788962 0.339259 -7.85186e-21)
(0.478535 0.282219 -1.14267e-21)
(0.317566 -0.251247 5.95091e-21)
(0.731666 -0.134396 -3.53128e-21)
(0.627749 0.065328 5.8764e-21)
(0.613859 -0.373734 -3.29016e-21)
(0.168645 0.0950232 -7.6088e-21)
(0.328819 0.163551 -7.27236e-23)
(0.383545 -0.255029 1.19199e-21)
(0.591272 -0.0682847 3.92066e-21)
(-0.0161277 -0.0074282 2.59145e-21)
(0.953992 -0.443821 -1.83835e-21)
(0.86924 0.344823 -2.65742e-21)
(0.739807 0.331241 1.49598e-21)
(0.911368 -0.341267 1.21949e-21)
(0.0503739 -0.0577155 0)
(0.313185 0.12362 3.74715e-21)
(0.336096 -0.195736 -7.5923e-21)
(0.532668 -0.0766883 6.50134e-21)
(0.776802 0.434718 -2.24687e-21)
(0.0377858 -0.0551001 -3.37239e-21)
(1.03005 -0.318524 -1.27012e-22)
(0.447188 0.190634 2.15462e-21)
(0.629075 -0.168739 0)
(0.220768 -0.146947 0)
(0.502152 0.0622727 8.84424e-21)
(0.529872 -0.260741 -2.05116e-21)
(0.157686 0.0274632 0)
(0.772257 -0.461184 0)
(0.748608 0.147209 -5.68445e-21)
(0.0868432 0.0643652 3.92163e-21)
(0.770299 0.411927 0)
(-0.00872877 -0.00717336 1.04159e-21)
(0.976531 -0.355766 -3.18236e-22)
(0.767182 0.421563 -1.94684e-21)
(-0.00247868 -0.0125785 -3.31587e-21)
(0.994911 -0.343036 6.70393e-22)
(0.0259519 -0.0432386 -1.99366e-21)
(0.951771 -0.367136 2.0437e-21)
(0.785311 0.354227 7.24003e-21)
(0.653282 0.052914 2.61058e-21)
(0.624064 -0.401109 6.61706e-21)
(0.190006 0.115871 0)
(-0.0114394 -0.000248558 -9.54162e-22)
(0.944928 -0.346378 3.01138e-22)
(0.736376 0.405578 0)
(0.00708509 -0.00578772 0)
(0.908517 -0.436301 2.20073e-21)
(0.820976 0.285769 8.79498e-22)
(-0.00819337 0.000690709 -3.897e-21)
(0.530697 -0.32498 3.11005e-22)
(0.568764 0.233692 0)
(0.51028 0.299796 5.55374e-22)
(0.584269 -0.254612 0)
(-0.00846089 0.00846676 -3.89058e-21)
(0.0444259 -0.0611949 9.39341e-24)
(1.00739 -0.326801 2.20371e-22)
(0.778829 0.415406 0)
(-0.0222987 -0.0037568 0)
(0.929457 -0.452311 0)
(0.878697 0.344714 -3.17981e-21)
(0.825177 0.381351 2.4084e-21)
(0.818333 0.370673 -1.94833e-21)
(0.00245914 -0.0273181 3.74823e-21)
(0.98953 -0.386315 3.41328e-22)
(0.00633549 -0.0302213 0)
(0.977578 -0.386755 0)
(0.826658 0.269258 -1.72495e-21)
(0.897787 -0.450998 -1.51953e-21)
(0.00912792 0.00223696 0)
(0.158941 0.128107 0)
(0.749791 -0.519826 0)
(0.792843 0.0994124 0)
(0.364096 0.104262 -4.68158e-21)
(0.240916 -0.11637 1.05954e-20)
(0.51058 -0.132811 -4.19216e-21)
(0.814012 0.226998 -4.9834e-21)
(0.861503 -0.468814 -6.1072e-22)
(0.0267655 0.0211807 -7.75559e-21)
(0.0395978 0.0314906 -5.04578e-21)
(0.806367 0.20955 6.93024e-21)
(0.843988 -0.474557 8.46881e-22)
(0.758121 0.435725 -2.75489e-21)
(0.0717324 -0.0857277 -3.65364e-21)
(1.01888 -0.292868 0)
(0.556491 0.332016 0)
(0.806492 -0.171917 -1.40183e-21)
(0.259776 -0.218706 8.69644e-21)
(0.50331 0.270784 0)
(0.728386 -0.161549 -7.06152e-21)
(0.26121 -0.206339 1.27682e-23)
(0.735647 0.214835 6.89625e-21)
(0.817872 -0.413665 -8.01568e-22)
(0.0416061 0.00692043 4.46654e-21)
(0.754398 0.210539 0)
(0.822723 -0.430661 -7.61572e-22)
(0.0417045 0.0159407 -4.0918e-21)
(0.293366 0.100498 0)
(0.339921 -0.184623 1.19645e-20)
(0.502417 -0.0666352 0)
(0.550352 0.278749 0)
(0.756442 -0.202948 3.85265e-21)
(0.197612 -0.161868 -1.33146e-21)
(0.0114388 0.024608 7.93922e-21)
(0.873883 -0.538657 4.00838e-21)
(0.938888 0.237393 0)
(0.868597 0.318324 4.0992e-23)
(-0.0224674 -0.00347598 -2.4032e-21)
(0.823978 -0.456244 -4.25825e-22)
(0.860905 0.299839 1.61794e-22)
(-0.0210644 -0.00475941 0)
(0.790356 -0.454093 1.11913e-21)
(0.40158 0.198979 -2.55836e-21)
(0.307393 -0.209798 1.28948e-21)
(0.627251 -0.118596 1.29828e-22)
(0.788552 -0.414742 -1.66752e-22)
(-0.0200623 -0.000953354 -9.899e-21)
(0.794685 0.331508 0)
(0.762471 0.353378 -6.36304e-21)
(0.0426027 -0.0551673 0)
(0.940054 -0.347004 0)
(-0.0188704 -0.00332966 3.92998e-21)
(0.742765 -0.424206 2.47391e-22)
(0.791458 0.303814 -1.06919e-21)
(0.402393 0.0389393 -6.20907e-21)
(0.20284 -0.0228782 -6.46345e-21)
(0.445979 -0.168136 -2.9104e-23)
(0.600774 0.210823 1.07794e-21)
(0.735036 -0.294489 9.19867e-22)
(0.0929535 -0.0526573 4.07486e-21)
(0.582896 -0.385131 -7.63305e-21)
(0.643118 0.0310718 -9.52665e-21)
(0.220571 0.134151 0)
(-0.0149408 0.00249213 0)
(0.865044 -0.500499 6.2941e-22)
(0.931255 0.282934 0)
(0.798738 -0.468838 0)
(0.771366 0.172683 0)
(0.0670727 0.0506015 0)
(0.0214255 -0.0403629 0)
(0.789422 0.426317 1.95615e-21)
(1.02439 -0.335726 -1.05502e-21)
(0.638229 0.227933 0)
(0.767765 -0.317661 -4.74486e-22)
(0.076106 -0.044457 -2.28697e-24)
(0.351924 0.0866075 4.52269e-21)
(0.244454 -0.107426 -9.10491e-21)
(0.485842 -0.125883 0)
(0.891123 -0.491167 2.81238e-21)
(0.915571 0.302514 -1.5263e-21)
(-0.0182341 0.00127945 0)
(0.0054341 -0.0185172 4.57299e-21)
(0.929817 -0.416632 -1.37311e-22)
(0.814986 0.317381 -1.84616e-22)
(0.803399 0.395037 0)
(0.792597 0.392962 -1.65823e-21)
(-0.0152565 -0.00506621 -2.39908e-21)
(-0.0173779 -0.00180734 2.97066e-21)
(0.957934 -0.384516 3.22868e-22)
(0.937847 -0.386751 -2.65525e-22)
(0.607182 0.128286 0)
(0.665568 -0.348098 -6.30056e-21)
(0.102565 0.0261231 -4.98958e-21)
(0.766948 -0.416483 -8.35877e-21)
(0.712729 0.166526 0)
(0.0687973 0.0351113 5.44096e-21)
(0.465148 0.0756873 5.03989e-21)
(0.526292 -0.22998 -3.47697e-21)
(0.153801 -0.0085318 -7.91507e-21)
(0.85021 -0.474525 -1.28701e-21)
(0.896817 0.310533 -1.53837e-21)
(0.835227 -0.483235 5.4765e-22)
(-0.0219163 -0.00275083 2.54561e-21)
(0.908221 0.294228 1.44367e-21)
(-0.019582 -0.00267511 0)
(0.712889 0.263765 0)
(0.840596 -0.364054 0)
(0.0445616 -0.0310156 -5.02569e-21)
(0.903711 0.315858 -1.75767e-21)
(0.89655 0.318922 4.49629e-21)
(0.898032 -0.47822 -8.41432e-22)
(0.880445 -0.470788 2.40488e-21)
(-0.0215863 -0.00120117 -6.73048e-21)
(-0.0227949 -0.00221102 1.12317e-23)
(0.693581 0.150088 0)
(0.738904 -0.416444 7.98468e-21)
(0.087843 0.0500758 -7.05666e-21)
(0.562774 0.149441 -4.68797e-21)
(0.689379 -0.306255 5.63946e-21)
(0.0912355 -0.0228959 0)
(0.788443 0.422337 0)
(0.00288348 -0.0212759 -4.59369e-22)
(1.00919 -0.35075 -6.44022e-22)
(0.607879 0.147148 -3.45161e-21)
(0.683697 -0.338016 0)
(0.0909422 0.0113087 8.24313e-21)
(0.497732 0.0995627 -2.04392e-21)
(0.574386 -0.25955 4.07996e-21)
(0.133895 -0.00973959 -4.57711e-21)
(0.790535 0.403911 0)
(-0.0106399 -0.00812151 0)
(0.97802 -0.372955 9.58277e-22)
(0.645425 0.248944 0)
(0.794984 -0.309431 -9.30465e-22)
(0.076213 -0.0575407 4.97763e-21)
(0.683571 -0.488621 0)
(0.750026 0.0574379 0)
(0.219184 0.166447 2.71023e-22)
(0.478512 0.293898 2.8101e-22)
(0.743682 -0.123369 0)
(0.338321 -0.272637 -4.55067e-21)
(0.841454 -0.548199 -3.13954e-21)
(0.0697068 0.0669519 0)
(0.87905 0.174417 0)
(-0.00615694 0.00459723 9.36179e-21)
(0.495 -0.249686 1.38184e-21)
(0.480147 0.231786 -2.79814e-22)
(0.622545 0.184556 0)
(0.721703 -0.327248 -3.45859e-21)
(0.0777424 -0.0179615 0)
(0.813437 0.404877 -3.73237e-21)
(0.000307019 -0.023162 -1.26043e-20)
(1.00266 -0.370484 2.12761e-21)
(0.448899 -0.360739 0)
(0.745749 -0.0728163 3.37787e-21)
(0.422397 0.28772 0)
(0.612524 0.35478 0)
(-0.0134213 0.0101753 2.3001e-21)
(0.750427 -0.307003 0)
(0.212204 0.0819261 -4.91695e-21)
(0.223208 0.101182 5.02687e-21)
(0.471202 -0.267536 0)
(0.526537 0.00844434 -4.17649e-21)
(0.489021 -0.292734 7.56603e-21)
(0.555152 0.00473391 3.32084e-21)
(0.467377 0.0548905 -4.74413e-21)
(0.49934 -0.22751 -4.71586e-21)
(0.1677 0.0114757 0)
(0.272781 0.116281 -4.34993e-21)
(0.241666 0.0938706 0)
(0.40371 -0.240573 0)
(0.536766 -0.0392912 0)
(0.421605 -0.238542 4.40729e-21)
(0.516372 -0.0194401 -2.46714e-23)
(0.593218 0.172944 -2.95471e-22)
(0.652059 -0.29867 2.50679e-21)
(0.10379 -0.0111539 5.63377e-21)
(0.569107 0.13716 8.06678e-21)
(0.651479 -0.309544 0)
(0.104945 0.00202121 0)
(-0.0194646 -0.00482878 0)
(0.792922 -0.472542 0)
(0.890528 0.287443 -1.17177e-21)
(0.434952 0.209043 7.036e-21)
(0.644518 -0.141432 0)
(0.268136 -0.18563 -2.38785e-21)
(0.892521 0.326989 4.35045e-21)
(0.921616 -0.469707 -1.23996e-21)
(-0.0216932 -0.00189033 3.84213e-21)
(0.749569 0.240703 0)
(0.777705 0.255185 -3.66158e-21)
(0.845058 -0.407642 9.99369e-22)
(0.869229 -0.420868 -2.93868e-21)
(0.030856 -0.00340363 5.52825e-21)
(0.0220409 -0.00284212 5.0977e-21)
(0.42401 0.187812 0)
(0.61949 -0.147759 0)
(0.251704 -0.167247 -1.14042e-21)
(0.58679 0.318995 -2.71288e-21)
(0.808243 -0.207902 0)
(0.201584 -0.170392 -2.90153e-21)
(0.692947 0.223685 1.97447e-21)
(0.799287 -0.372916 0)
(0.0481538 -0.0121528 -5.09146e-21)
(0.307279 0.041844 -4.87966e-21)
(0.426484 -0.0872501 -2.33651e-21)
(0.280211 -0.108635 -2.45323e-21)
(0.790552 0.232175 0)
(0.855922 -0.447615 0)
(0.0275012 0.0136212 8.24731e-21)
(0.342084 0.108031 0)
(0.272876 -0.14229 -1.33101e-21)
(0.511389 -0.110815 0)
(0.686947 0.166431 4.47399e-21)
(0.74785 -0.399959 4.44432e-21)
(0.0731461 0.0260717 7.07391e-22)
(0.585088 0.300742 -2.7414e-21)
(0.793821 -0.219718 -4.39045e-21)
(0.179836 -0.152771 0)
(0.313238 0.0641904 4.83571e-21)
(0.296211 0.0671324 2.1585e-21)
(0.45408 -0.095194 -2.26918e-21)
(0.279313 -0.122676 4.86354e-21)
(0.460418 -0.0796833 0)
(0.304998 -0.144696 8.62917e-21)
(0.264543 0.0829106 2.17889e-21)
(0.366651 -0.196793 -5.56345e-21)
(0.244896 0.0826967 -1.40211e-21)
(0.488229 -0.0450368 0)
(0.411649 -0.225513 -2.83484e-21)
(0.501282 -0.0236778 4.77879e-21)
(0.490656 0.21978 -2.55198e-21)
(0.525073 0.227705 0)
(0.675832 -0.19055 -4.29176e-21)
(0.69927 -0.215988 3.34949e-21)
(0.198927 -0.139055 1.07403e-20)
(0.167698 -0.116883 -8.94079e-21)
(0.0439857 -0.0601255 0)
(0.973543 -0.336809 1.20848e-21)
(0.773525 0.383908 3.66434e-21)
(0.240713 0.17657 -9.17561e-21)
(0.72451 0.0380915 -3.94176e-21)
(0.644983 -0.462396 7.74546e-21)
(0.028474 -0.0481448 4.28065e-21)
(0.0193667 -0.0406455 0)
(0.983603 -0.354416 -1.04532e-21)
(0.972561 -0.369823 -1.86836e-21)
(0.791314 0.388373 -9.2585e-21)
(0.800367 0.373207 4.79103e-21)
(0.333553 0.217806 0)
(0.496744 -0.363089 4.35104e-21)
(0.678681 -0.0332285 -9.33903e-22)
(0.315278 0.00244508 -1.0263e-20)
(0.281053 -0.0717954 0)
(0.376959 -0.0813755 8.01371e-21)
(0.799601 0.251913 1.71074e-21)
(0.87474 -0.442205 3.31724e-21)
(0.0189936 0.00525622 0)
(0.38426 0.164682 0)
(0.280329 -0.181905 1.08663e-21)
(0.585969 -0.121282 3.81905e-21)
(0.606914 0.307276 0)
(0.811861 -0.235311 0)
(0.159479 -0.137266 6.98613e-22)
(0.738528 0.383131 0)
(0.737231 0.367303 0)
(0.953865 -0.3059 -7.281e-22)
(0.0788697 -0.0872225 5.2784e-21)
(0.939747 -0.314391 1.98244e-21)
(0.0705913 -0.0787635 -7.15034e-21)
(0.740427 0.266055 -3.70463e-21)
(0.860109 -0.382665 -3.16439e-21)
(0.03197 -0.0213991 -2.40469e-21)
(0.672624 0.365764 -1.39761e-21)
(0.805773 -0.335886 0)
(-0.0155773 0.00782393 2.83999e-21)
(0.472512 -0.369938 0)