/*--------------------------------*- C++ -*----------------------------------*\
  =========                 |
  \\      /  F ield         | OpenFOAM: The Open Source CFD Toolbox
   \\    /   O peration     | Website:  https://openfoam.org
    \\  /    A nd           | Version:  6
     \\/     M anipulation  |
\*---------------------------------------------------------------------------*/
FoamFile
{
    version     2.0;
    format      ascii;
    class       volScalarField;
    location    "0";
    object      p;
}
// * * * * * * * * * * * * * * * * * * * * * * * * * * * * * * * * * * * * * //

dimensions      [0 2 -2 0 0 0 0];

internalField   nonuniform List<scalar> 
13046
(
0.078092
0.073003
0.0980742
0.0820431
0.0921991
0.0768482
0.0736561
0.0798759
0.0970891
0.0114575
-0.0259813
0.0861716
0.0740481
0.0603085
0.094414
0.027742
0.087496
-0.015491
0.0927277
0.0884447
0.0784403
0.0255953
0.0881463
-0.0170546
0.0791933
0.0842677
0.0929668
0.0692143
0.0622829
0.0977962
0.0823582
0.0634049
0.0937017
0.0851819
0.0936494
0.0802182
0.0841418
0.0944907
0.0839908
0.0835419
0.093688
0.0606139
0.0841216
0.0935481
0.087174
0.0835724
0.0879719
0.0893307
0.0735102
0.0729889
0.0984274
0.0798338
0.0861149
0.0463041
0.0866444
0.0396867
0.0891513
0.0142893
0.0593137
0.090213
0.0531622
0.0576233
0.093425
0.0894962
0.011542
0.0344378
0.0634558
0.0170992
0.087771
0.0671361
0.020132
0.0878359
0.00774598
0.0565433
0.0897495
0.0931201
0.0952528
0.0720127
0.0916649
0.047727
0.00679176
0.0768724
0.082498
0.0925274
0.088615
0.0043935
0.0285515
0.0257135
0.0898072
0.0223367
0.0875103
0.0132046
0.0231561
0.0562843
0.0511842
0.0429007
0.0387551
0.0926363
0.0942902
0.0906161
0.0250118
0.0280281
0.0836626
0.0899892
0.0869767
0.0940935
0.0471714
0.087195
0.0850515
0.0912082
0.0524512
-0.00993625
0.0834869
-0.0603709
0.0753795
0.0666007
0.0923084
0.0527836
0.0558806
0.0292953
0.092455
0.0387058
0.0924769
0.00717184
-0.0357968
0.0857563
0.0667879
0.0438618
0.0970984
0.0816259
0.093333
0.0605376
0.0869393
0.0163873
0.0345621
0.0432793
0.0304862
0.0917104
0.0798515
0.0614688
0.0926027
0.0613725
0.0820053
0.0930703
0.0840409
0.0852822
0.0540286
0.0924592
0.0537286
0.0909114
0.0530348
0.0497418
0.0923976
0.0975836
0.0634002
0.0850301
0.0745834
0.0392864
0.070242
0.038062
0.0903454
0.0912094
0.0637633
0.0713203
0.08978
0.00953746
0.0860261
-0.0222847
-0.00217272
0.0839352
-0.0520119
0.0414616
0.0236384
0.0922046
0.0822074
0.0445656
0.0933057
0.064349
0.089015
0.0751893
0.0883559
-0.00912713
0.0103485
0.0822611
0.0508053
0.0895693
0.0967078
0.0588852
0.0833522
0.0650993
0.0809966
0.0914891
0.0581709
0.0971983
0.0674106
0.052203
0.0946521
0.0248408
0.0884963
0.00985988
0.0892729
0.0237333
0.034377
0.0149605
0.0211828
0.0863141
0.0775466
0.0371134
0.0828858
0.0694291
0.0484408
0.0897956
0.00616941
0.00917083
0.0139646
0.0873863
0.0810077
0.0942642
0.0847498
0.0717109
0.0645038
0.0968166
0.0896163
0.0198898
0.0382662
0.0662382
0.062407
0.0985859
0.0849719
-0.0390715
-0.00208829
0.0839803
0.0368124
0.074682
0.0197686
0.0286429
0.0883441
0.0479109
0.0723478
0.0934184
0.0647145
0.0482921
0.0976292
0.0516391
0.0239698
0.086141
0.0337536
0.0654882
0.0887741
0.0846256
-0.0377713
-0.00720491
0.086941
0.0935106
0.0471124
0.000199603
0.0822057
-0.0775992
0.0907925
0.0803751
0.0858485
0.0517365
0.0520277
0.0699655
0.0734229
0.0945388
0.0908483
0.087718
0.0437138
-0.00121911
0.0685546
0.0518853
0.0945925
0.033535
0.0548087
0.0902681
0.0466977
0.0311884
0.0922603
0.0870773
0.0827731
0.0936436
0.0438092
0.0677698
0.0915569
0.0698266
0.0439769
0.0947276
0.0669539
0.0660386
0.0883063
0.0898289
0.0414319
0.043311
0.0614336
0.0912412
0.040563
0.0918567
0.0292336
0.0912108
0.0884248
0.0531952
0.0904877
0.0355197
0.0704659
0.0590572
0.0315179
0.0908632
0.0863388
0.081332
0.0444826
0.0544723
0.052071
0.0284801
0.0908661
0.0253806
0.092729
0.0881805
-0.00413259
0.0144378
0.0585894
0.0434338
0.0943178
-0.0924588
0.0818882
-0.0177343
0.075318
0.0894994
0.0803441
0.0576038
0.0612884
0.0936397
0.0901857
0.0296738
0.0184095
0.0848581
0.0347821
0.0883647
0.0445535
0.0233192
0.0874736
0.0733087
0.0959413
0.0545886
0.0584242
0.0949771
0.0680336
0.0954715
0.033873
0.0878287
-0.00780103
0.0819166
0.0311636
0.0841432
0.0507706
0.0554494
0.0936329
0.0593385
0.077074
0.0948971
0.0509946
0.080341
0.0902124
0.0790488
0.0730581
0.0955781
0.0863322
0.0380594
0.073382
0.0200695
0.0144734
0.0878986
0.0485869
0.0222276
0.0891262
0.0696578
0.0860569
0.0304106
0.050864
0.053935
0.0212037
0.0140156
0.0880053
0.0895437
0.0819906
-0.0848533
-0.012811
0.00400919
0.0827891
-0.0724451
0.0493427
0.067483
0.0891095
0.0875385
0.0234552
0.00128001
0.0638481
0.0620753
0.0317535
0.026289
0.0925782
0.090826
0.0843049
0.000776331
0.00228687
-0.00370799
0.0818011
-0.086428
0.0778097
0.0909427
0.0916301
-0.00804826
-0.0724506
0.0828598
0.0787421
0.0453184
0.0908282
0.0114496
-0.00497249
0.0882174
-0.0780077
0.0825215
-0.0351093
0.0849583
0.0916862
0.0643204
0.0737011
0.0916064
0.0923022
0.010425
0.0859439
-0.0405123
0.0705857
0.0884857
0.0923314
0.0802623
0.0909338
0.0918147
0.0877651
0.0300722
0.0775957
0.0686217
0.0950119
0.0910164
0.0770604
0.0806127
0.0879081
0.072795
0.0327886
0.0857695
0.0885748
0.0888516
-0.0170149
-0.0176971
0.0188955
0.0174392
0.0134292
0.0116407
0.0876567
0.0903696
0.0694035
0.0211008
0.0823687
0.0887323
0.053931
0.0323766
0.0620818
0.0856192
-0.0515432
0.0825589
-0.0276795
0.0875991
0.0118178
0.0172638
6.19531e-06
0.0849295
-0.0431344
0.0820238
-0.086388
-0.0342516
-0.105254
0.0812599
-0.0224294
0.0555734
0.0414719
0.0899291
-0.0177228
0.0831137
-0.0108734
0.0379696
0.031662
0.0917855
0.0234044
0.0847342
-0.0364833
0.072148
0.0943907
0.0784053
0.0070317
0.0857408
0.00595235
0.033762
0.0855308
0.0642747
0.0522678
0.0337411
0.0914969
0.0814975
-0.130559
-0.0469686
-0.07681
0.0826261
-0.0262479
0.0760836
0.0952034
0.076081
-0.00232887
0.00137795
0.0853803
0.0851762
-0.0041524
-0.00395856
0.023305
0.0882264
0.00212377
0.088885
0.00369894
0.0391773
0.076841
0.028351
0.0878677
0.0197215
0.0587333
0.0928852
0.0880011
0.0368468
-0.0156424
0.0745087
0.0727552
0.050971
0.0465712
0.0938062
0.0952094
0.0769086
0.0519211
0.0934581
0.0677424
0.0258954
0.0939745
0.051294
0.0272857
0.0892193
0.00545619
0.0136163
0.088994
0.0886524
0.0289942
0.0419014
-0.106981
0.0809634
-0.0164118
0.0859174
0.0835619
0.0954679
0.0628339
0.0971185
0.0669184
0.0741002
0.071776
0.0913785
0.0313061
0.0920312
0.0429546
-0.0759305
0.0816568
-0.0329582
0.000525234
0.00520266
0.0861386
0.0815203
0.0837093
0.0453239
0.0569088
0.0266889
0.0871495
0.0891842
0.00635119
0.0427702
-0.0571368
-0.014692
0.0834098
-0.0464969
-0.0132312
0.0838725
0.0624335
0.0310964
0.0943516
0.0919119
0.0847422
0.057504
0.0204182
0.0873914
-0.00870243
0.052486
0.0359568
0.0925207
0.0919058
0.0164238
0.0391802
0.0743108
0.0928539
0.043268
0.0505869
0.0746429
0.090618
0.0853968
0.0920653
0.0559927
0.0872808
-0.0112252
0.0149119
0.0475
0.02642
0.0922141
0.0867729
0.0929727
0.065553
0.031464
0.0865907
-0.0236151
0.0755953
0.0625263
0.0963241
0.068741
0.0775091
0.0942755
0.0574617
0.0375036
0.0900848
0.0101714
0.0841121
-0.0575455
0.0145208
0.0841569
-0.0543536
0.0915386
0.0122669
0.0397727
0.0450048
0.079605
0.0885147
0.0831192
-0.0691864
0.00321451
0.0902438
0.0238125
0.03396
0.0813296
-0.0963782
-0.0382448
-0.0281154
-0.112053
0.08129
0.0891567
-0.0100219
0.0371204
0.0859612
-0.0258375
0.00435424
0.0272401
0.0303552
0.0869083
-0.0108705
0.0883685
-0.000800164
0.030291
0.029604
0.0904776
0.0901409
0.0613346
0.0244145
0.0861691
0.093147
0.0705157
0.0328118
0.0365546
0.0909826
0.0909102
0.0343756
0.0402434
0.0415451
0.0879174
-0.0125839
0.07274
0.0263197
0.0918134
0.0754898
0.043108
0.0888225
0.0426768
0.0519115
0.0942646
0.0406621
0.0495177
0.093246
0.0875368
0.0881865
0.0710382
0.0727614
0.0410404
0.0974775
0.0862068
0.0105684
0.00372838
-0.0166153
0.0835393
-0.0438423
-0.022741
0.0832866
-0.0405789
0.081054
0.0941387
0.0553815
-0.0634899
0.0826289
-0.0214839
0.0446847
0.0916195
0.016514
0.0828971
-0.0598366
-0.0290622
0.0822456
0.0920338
0.0802117
0.0646439
0.0608472
0.0949922
0.079087
0.0463968
0.088616
0.0835897
-0.0133188
-0.00531872
0.0497402
0.037679
0.0911484
0.0859778
0.0278034
-0.0262193
0.0581159
0.0574921
0.0972487
0.0873509
0.0945446
0.0719275
-0.0153005
-0.00164387
0.0854944
0.0913889
0.017273
0.033853
0.00823122
0.00371621
0.0839507
0.0834936
-0.0502888
-0.0581942
0.0564277
0.0712058
0.0946908
0.058858
0.0450651
0.0893377
0.0701777
0.0792515
0.0976269
-0.0318729
-0.0119557
-0.0286574
0.0843972
-0.0123809
0.0835517
0.0509321
0.0423428
0.0953445
-0.00139726
-0.0064317
-0.0205175
-0.0276976
0.0855287
0.0842891
0.0439656
0.0643124
0.0949645
0.0626979
0.0681904
0.0949308
0.0188975
0.0856531
-0.0414385
0.0617596
0.0627575
0.0936487
0.0699534
0.0720531
0.0938202
0.00864388
0.0844008
-0.0485992
0.0611692
0.0452757
0.0927128
0.0723382
0.0277551
0.0865196
0.0768858
0.0353664
0.0907111
0.0407165
0.0862977
0.0161491
0.081483
-0.118945
-0.0403647
0.0573369
0.0618277
0.0943965
0.0219857
0.0858078
-0.0266506
0.0849538
0.0287938
0.080381
-0.0193486
0.0818004
-0.0945238
0.0922572
0.0889391
0.0840984
0.0619427
0.0864938
0.059551
0.0723814
0.0795446
0.0943989
0.0864068
0.0911587
0.0889518
0.0652832
0.0943487
0.0608049
0.0603802
0.0696891
0.0974918
0.0634707
0.0718053
0.0967843
0.0830703
-0.0362223
-0.0200237
0.0789514
0.0561774
0.0914067
0.00376581
-0.0183496
0.0865417
0.0426014
0.0394711
0.0454193
0.0379715
0.0920989
0.0906432
0.0766485
0.0649651
0.0941001
0.0667838
0.0362143
0.0913906
0.0502641
0.0516121
0.0956838
0.0869532
0.0799669
0.0906789
0.0371099
0.0400906
0.0915533
0.0841386
0.0907761
0.0729987
0.0488981
0.0608041
0.0945707
0.0652377
0.0427223
0.091814
0.0864368
0.087178
0.075199
0.0952973
0.0751682
0.0936765
0.0877737
0.0858626
0.0922142
0.0723697
0.097218
0.0635499
0.0747805
0.0725205
0.0553627
0.0552615
0.0957372
0.0933771
0.0892199
0.00540815
0.0409005
0.0855106
0.0331406
0.0743028
0.0902175
0.0904271
-0.000234432
0.00387149
0.0361716
0.0344822
0.0847237
0.0860037
0.0390315
0.0871988
0.0910083
0.0841159
0.0369522
0.0340329
0.0912508
0.0843812
0.0935867
0.0599951
0.0633529
0.040529
0.0921711
0.0490961
0.0492146
0.0112063
0.0915128
0.0161921
0.0914778
0.0462243
0.0404073
0.092453
-0.0147027
-0.0860969
0.0822964
0.0823797
0.0335336
0.0808964
0.0775829
0.0789458
0.0859233
0.0324782
0.0911888
0.0351881
0.0316531
0.0459565
0.0898629
0.0685209
0.0402932
0.0928432
0.0841738
0.084088
0.0377306
0.0772032
0.0799288
0.0868318
0.094838
0.0466524
0.0422912
0.077141
0.0917821
0.038882
0.0464114
0.0445608
0.0938531
0.0862819
0.0910671
0.0736777
0.0148158
0.0852679
-0.0342098
0.0834972
0.0862616
0.0337914
0.0652733
0.0612539
0.0405002
0.0375015
0.0913303
0.0947694
0.0861575
-0.0264396
0.0186358
0.018675
0.0860039
-0.0370708
0.0142027
0.0849896
-0.040218
0.0449646
0.0911229
0.0129026
0.0705183
0.045402
0.0934655
0.00520857
-0.0094291
0.0606688
0.00698408
0.0311746
-0.032208
0.00734319
0.0161899
-0.0395657
0.024149
0.0224893
-0.0520422
-0.00249631
0.0253539
-0.0330211
-0.0115633
0.00670954
-0.0307648
-0.015683
0.00660174
-0.0202732
-0.0302348
0.0308033
0.084073
0.0636151
-0.00531422
0.036888
-0.055164
-0.00954101
-0.00543684
-0.0525555
0.00339762
-0.0176022
-0.0270428
-0.0502882
-0.0140189
0.0525059
0.0296388
0.00568734
0.0299774
-0.0357953
0.0798391
-0.0431863
0.0244971
0.0574156
-0.0453341
-0.041248
-0.0487572
-0.0501529
-0.0464089
0.0663911
-0.020507
-0.0105678
-0.0485899
-0.0503313
0.0626088
0.00786135
-0.0158392
-0.0520781
0.0210974
-0.0481618
-0.0410082
0.0638816
0.0204257
-0.0181005
0.00898521
-0.012534
0.0825339
0.0303862
0.0474041
-0.0715858
-0.0579181
-0.017046
0.0147153
-0.062193
-0.0280455
0.00340484
-0.0538965
0.0197247
0.0437028
-0.0281314
-0.0238533
-0.046019
-0.0215958
-0.0486121
0.0239117
-0.0477599
0.00159245
-0.0340862
0.0693128
-0.0166325
0.0188747
0.063557
-0.0260292
-0.00629655
-0.0626304
-0.0426803
-0.0482855
-0.00598675
-0.0732751
0.00391086
0.0328435
0.0627384
0.0840581
-0.017107
0.000743308
-0.0532629
-0.0114718
-0.0421868
0.0511895
0.0354392
0.00569275
-0.0375489
-0.0648065
0.0326713
0.0519309
-0.0379458
0.00148495
-0.0682322
-0.0332951
-0.0290554
0.0777078
0.0799692
0.0163132
-0.00704398
-0.0114
-0.0515036
0.0762451
-0.00380226
0.0132459
-0.0749322
0.0675405
-0.0448195
-0.0162522
4.76596e-05
0.0425355
-0.0321624
-0.0808504
-0.0368424
0.00701961
-0.012749
0.0244429
0.0293842
-0.0218484
0.0552113
-0.0471874
-0.0250936
0.0477767
-0.0378801
-0.0338855
-0.0507165
0.0029753
0.00460479
0.045531
0.0188289
-0.0419962
0.0148382
0.0260909
0.0586305
0.00307787
-0.0158491
-0.0222357
0.0385763
-0.00216347
0.031436
-0.0502312
0.0807094
-0.0330004
0.0558442
0.0731501
-0.0165528
0.078224
0.0477654
0.0562327
-0.031666
-0.075381
-0.0521389
0.0609505
-0.0377303
-0.040603
-0.00463332
-0.0390991
-0.0325853
-0.0424331
-0.0124663
0.073519
0.0172791
-0.0376987
0.0217268
-0.0471812
0.0792863
-0.0232845
0.0531038
-0.0266376
-0.0793981
0.0657068
0.0742448
-0.0287545
-0.0463295
0.0804312
-0.00834611
0.00842376
-0.0423534
0.0149616
0.051251
0.0406367
-0.0247432
-0.0528172
0.0426684
-0.000322482
-0.0568566
0.0321051
-0.0100753
-0.0505219
-0.0134092
0.0589586
-0.066092
0.0136574
0.0331125
-0.0499808
-0.0719165
-0.0401088
-0.0102712
-7.60043e-05
-0.00299046
0.00127334
-0.0176455
-0.0443734
-0.00408449
0.00797272
0.0407995
-0.0452202
0.00198213
-0.0459086
-0.0374889
-0.00880185
-0.0343549
-0.0769617
0.0457238
0.0470625
-0.0157919
0.0747994
0.0546571
0.0798042
-0.00873986
-0.0837396
-0.0323375
-0.0425244
0.000604806
-0.063602
-0.00340147
0.0634581
0.0160604
-0.0107041
-0.0270547
-0.0414559
0.0483824
-0.0207155
0.0277286
-0.0368462
-0.0267789
-0.0400916
-0.0139813
-0.0231308
-0.0252078
-0.0152396
-0.0526435
0.00311082
-0.00599264
-0.0419201
0.00655807
0.00306145
-0.0349465
-0.0500017
-0.0404126
-0.0562735
-0.0479391
-0.0120574
-0.0610316
-0.0864557
-0.0196005
-0.0545893
-0.0682801
-0.0113839
-0.0211839
-0.0654808
0.0471378
0.00404746
-0.0316706
0.048096
-0.0493733
0.00235512
0.033444
-0.00823853
-0.00525585
0.0477242
-0.0326641
0.0345598
-0.0383619
-0.0232329
0.0496326
-0.041093
-0.00201693
-0.094474
-0.0635089
-0.0814546
-0.0574045
-0.0498211
0.00590804
-0.0439562
-0.0711396
-0.0511064
-0.0331385
0.080042
-0.000826955
0.0140408
0.00594566
-0.0163209
0.00173125
-0.0251318
-0.0545644
-0.00209465
-0.039001
0.0629141
0.0349594
-0.0180127
-0.0376594
-0.0193419
0.0848929
0.0444921
0.053095
0.0185161
-0.0293403
-0.0153786
-0.036548
-0.052949
-0.0599818
-0.0471746
0.0104847
0.0273538
-0.0540091
-0.0640524
-0.00646502
0.00808592
-0.00825248
0.00754601
0.0389187
-0.00299572
-0.0220184
0.0655783
0.0541071
-0.0239988
0.0267007
0.0514677
-0.0692
-0.0231264
-0.032333
-0.0437552
-0.0481561
0.0525218
-0.0565037
-0.0108433
0.0652499
-0.0801357
-0.0064072
-0.0236302
-0.0159813
-0.0346645
-0.0404208
-0.0641636
0.0076738
-0.0614548
-0.0609669
-0.0430614
-0.0460801
0.0325479
0.062889
-0.00743535
0.0186669
0.0130566
4.31994e-06
-0.0810583
0.0371111
0.0259647
-0.058972
-0.07024
0.00375481
-0.0524751
0.00491862
-0.0148704
-0.0335201
0.0547131
0.0630284
-0.0305503
0.0380616
0.0836371
0.0402141
0.0531972
0.0565979
0.00701036
-0.0269541
-0.0464726
0.0825675
0.0475028
0.0540289
-0.0501461
-0.0491769
-0.0741671
0.0411196
-0.000890756
-0.0023133
0.0560871
0.0290892
-0.00166051
0.00773546
-0.0247392
-0.00776114
-0.0280654
-0.0393641
-0.0403343
-0.0326251
-0.0188747
-0.0615709
0.00083817
-0.0405326
0.0329006
0.0222127
-0.0674876
0.0525541
0.0591051
0.0175559
-0.0500426
-0.00537984
-0.0221232
0.023224
-0.0212917
-0.052719
0.0507201
-0.0316139
0.0640827
-0.0685726
-0.0338722
-0.00815096
0.0159917
0.0462066
-0.00586529
0.0715498
-0.005036
0.040646
-0.0337999
0.0366525
-0.0254405
-0.00268877
-0.0383488
0.0445674
-0.00177148
0.0813411
0.00904828
-0.0611963
0.000698721
0.00115247
-0.0244238
-0.0492895
-0.0319187
-0.0355734
0.0672285
-0.0047892
-0.0101333
0.0313193
-0.050037
0.0627746
0.0782534
-0.0466866
0.0833283
0.0720455
0.0408418
0.0546843
-0.00668212
-0.0515209
-0.0467184
-0.0349901
0.0342515
-0.0191787
-0.0307122
0.0703646
-0.0480759
-0.0405111
-0.0486288
0.0553431
0.0803334
-0.0482217
0.0395404
0.0124879
0.0627916
0.0113681
0.0210461
-0.0465313
0.0733748
0.0803939
0.0144909
-0.0433794
0.0449045
0.000282233
0.0270964
-0.0149752
-0.00849567
0.00878464
0.00566578
-0.0287779
-0.0458842
-0.00801544
0.014118
0.00677703
0.0487928
-0.0527662
-0.00139344
0.0242472
-0.0423639
0.0583246
-0.00539669
-0.0471259
0.0665869
0.0442632
0.00935035
0.0749261
-0.0136063
-0.0501905
0.0243113
0.0155231
0.0203903
-0.0349641
-0.0365556
0.00170673
0.0124098
-0.0353558
-0.020285
0.00166791
-0.0668935
-0.0353443
0.0656548
0.0833995
0.0819231
0.015365
0.0864698
0.0801674
0.0694917
-0.0842163
0.00147013
0.00339767
0.0737982
-0.0462282
-0.00375293
-0.0516082
-0.0432349
-0.0367449
0.072678
-0.0340793
-0.0301374
0.0227133
0.013731
-0.0378882
-0.0465105
0.0791978
0.0747908
0.0525817
0.0252842
-0.0563209
0.0383055
0.00804401
-0.0483705
-0.00115065
-0.0645101
-0.0503046
0.006076
-0.0265797
-0.0199286
0.0681798
0.0637361
-0.0792383
0.0423077
-0.0195106
-0.0198851
-0.00741203
0.0663209
-0.027366
0.023724
-0.0346657
0.0539718
-0.0450577
-0.0328111
0.0813161
-0.0729693
-0.0686114
-0.0150928
-0.0313324
-0.085194
-0.0648376
-0.0285906
-0.0848517
-0.0226897
-0.0756187
-0.0572252
-0.0263586
-0.0630745
-0.0274288
-0.0167439
-0.0689312
-0.0614573
0.073334
0.0603746
-0.0453899
-0.0548871
0.063497
-0.0542642
-0.00309509
0.0786932
-0.0247144
0.079521
-0.015525
0.0454999
0.0165495
-0.0156823
-0.059726
0.00877003
0.00523227
-0.0233083
-0.016933
-0.0437508
-0.0633386
-0.0299253
-0.000322647
-0.0756272
-0.0662925
0.0702035
-0.00771109
0.0118042
0.0281839
-0.0479706
0.0523512
0.0288199
-0.0504181
-0.0627231
-0.0316643
-0.0607151
-0.0840563
0.0163368
0.0176072
-0.0452722
0.00724574
-0.0329983
0.0813315
0.0709559
-0.0375314
-0.035461
0.0734277
0.0489105
9.60384e-05
0.00597072
-0.0473102
0.0826559
0.0187414
-0.0791152
0.0559176
0.04152
0.0643456
-0.00185928
-0.0498164
-0.00962833
0.0184998
-0.00088142
-0.0808644
0.0800433
-0.0313986
-0.0206289
-0.0208752
0.065725
0.0819746
0.0782209
0.0102131
0.0078529
0.0347621
0.0517376
0.069886
0.0132555
0.0352871
-0.00835358
-0.0155165
0.0127725
-0.0451787
-0.0069232
-0.067355
-0.0323444
0.0281097
-0.0660066
-0.0049425
-0.0021093
0.0550847
0.0775434
-0.0355466
-0.0591966
-0.071567
0.0456245
-0.0488091
-0.0400808
-0.0707319
0.0699388
-0.00855335
-0.00742722
-0.0550968
-0.00284164
-0.0391286
-0.0228804
0.0322775
0.0256854
0.0723373
0.0784724
-0.0259966
0.0571815
-0.0793401
0.0573448
0.0632879
0.0638672
0.0339716
-0.0354411
-0.0345296
-0.0445195
-0.076943
0.0186796
-0.0776159
0.0298068
-0.0523144
0.058293
-0.0475439
-0.0725587
0.0449216
0.0498738
-0.0221805
-0.0231266
0.0116315
0.0686752
-0.00963037
-0.0138606
-0.0756227
0.0403923
0.0267447
0.0771048
-0.0831012
-0.0270457
0.0566311
0.0187386
0.0752499
0.0228695
-0.0418005
-0.0916885
-0.0803362
-0.0253242
-0.0684544
0.0712461
-0.075116
0.00737597
-0.0192741
-0.0554859
0.0543012
-0.0842792
0.0689189
0.0190079
-0.00419784
-0.024867
0.0351718
0.00164638
0.0109565
-0.0299703
-0.0178149
-0.0497845
-0.0582079
0.0290353
-0.0351409
0.0862781
-0.0541779
0.0185905
0.00883952
0.0446159
0.0732555
-0.0501535
-0.0440057
-0.0256083
0.00643577
-0.0559154
0.067211
-0.0428951
-0.00972371
-0.0496618
0.0451198
-0.0654941
-0.00292651
-0.0636311
0.0788698
-0.0780579
-0.034396
0.00594904
0.0524973
-0.0704762
-0.0666249
-0.0382271
-0.0637321
0.0643509
-0.00838327
0.0246493
0.0453539
0.0191532
0.0239028
0.0777978
0.0227997
0.0465242
0.00935475
0.0151491
-0.0655698
0.012037
-0.0348662
-0.000813525
0.0204541
-0.00720609
-0.0626727
-0.0201468
0.010449
-0.0428594
0.040717
0.0151483
0.0419841
-0.0351864
0.0744832
-0.0154015
0.0114246
0.013094
-0.0666734
-0.0438968
-0.0502892
0.00723587
-0.00316014
0.000468094
0.0609318
0.0450378
0.0331358
-0.0143981
0.0574109
0.0736328
0.0692481
0.0273423
0.0123585
0.0113715
-0.0470883
0.0789479
0.0498403
0.0433369
-0.027236
-0.037795
-0.0648394
0.00963612
0.0181408
-0.0136883
0.0439638
0.055165
-0.000224311
-0.0114574
0.0271261
-0.00758514
-0.0038653
-0.0269341
-0.00572261
-0.00749112
-0.0724971
-0.00485474
0.0136574
-0.0374048
-0.0812117
0.0003846
-0.0170568
0.0173129
-0.0356405
-0.0109606
0.0599562
0.0677426
-0.00813311
-0.0166899
0.0340271
-0.0190758
-0.0426999
-0.0476283
-0.035312
-0.0640029
0.0616381
-0.00997317
-0.014235
0.0191377
0.0139941
0.0344644
-0.00801147
0.0846007
0.0319779
-0.0502472
-0.0159404
-0.023575
0.0335027
0.0566683
0.032901
0.00148038
-0.0687589
-0.0504381
-0.0379943
-0.00137948
-0.0121222
-0.00847808
-0.0508805
0.0650033
0.0147717
0.0554412
0.0518658
-0.0089699
-0.0160066
0.0130479
0.0781125
-0.061985
-0.0737927
0.0137724
0.0816411
-0.0391867
-0.0368078
0.0294115
0.0189566
0.0451848
-0.0265853
-0.0707182
-0.00303918
-0.0700815
-0.0379137
0.0412865
-0.0323193
-0.0449289
-0.0178896
-0.0411367
0.00343108
-0.0131564
-0.0069997
0.0603917
-0.0538535
0.0777763
0.0441522
-0.0521415
-0.0875391
-0.00300667
0.0293879
0.0493851
-0.0294678
-0.0379782
-0.00148348
-0.0428071
-0.00623314
0.0792714
0.0589087
0.0210816
0.00143147
-0.0640335
0.0719846
0.0843093
0.0660848
0.0345588
0.0611929
0.00962005
-0.0656283
-0.0785177
-0.0743713
0.0738127
-0.0199525
-0.00599019
-0.00273823
0.0836213
-0.0461525
-0.0120859
-0.0573068
-0.0285791
-0.0476638
0.0852707
-0.00325671
0.0343069
0.0543507
0.0537395
-0.0432988
0.0039341
0.000435292
0.0413825
-0.0669919
0.00498679
-0.0374091
0.0663419
-0.0143064
-0.0515027
-0.0103795
-0.0296008
0.0591929
-0.0469715
0.0399275
0.0560133
0.0574892
-0.0599953
-0.00327544
-0.0381661
0.000283766
0.0631228
-0.00334315
0.0205259
-0.00501186
-0.031991
-0.00219375
0.0735539
0.0068011
0.0654978
-0.076937
-0.0352511
-0.0474044
0.0693089
-0.00268853
0.000495438
-0.0616902
-0.00500157
0.00612134
0.0768502
0.010827
-0.0364933
-0.058144
0.0854568
0.0765393
-0.0338151
0.0727189
-0.0428161
-0.058992
-0.0335487
-0.0182036
-0.0672014
0.02587
-0.00459369
-0.0460328
-0.0260602
0.0672609
-0.025742
0.0401569
-0.00863351
-0.0391262
-0.0194595
-0.0774503
-0.0705686
-0.0314481
0.00975701
0.0201966
-0.0494092
-0.023051
0.0590355
0.0155561
-0.0466009
-0.0184361
0.0653783
-0.0298581
-0.00554826
0.0871704
0.0077441
-0.0480694
0.00417853
-0.0059939
0.0725078
-0.00682567
-0.0227061
0.00117985
-0.0707352
0.0663074
-0.0118891
0.05983
-0.000960731
0.0269464
-0.0596096
0.0540226
-0.0298506
-0.0532734
-0.0491108
0.000471349
0.0597186
-0.0924412
-0.0135549
-0.0539651
0.072949
0.0845649
-0.00319793
-0.0395908
0.0256494
0.0790554
-0.00996633
0.0630736
0.0482721
0.0413703
0.0312152
-0.0114166
0.0422692
0.0387722
0.0648253
0.00187562
0.00219356
-0.00250388
-0.00706084
0.00827845
-0.0289993
0.0721243
-0.00339231
0.0660077
-0.000563531
0.0692326
-0.0512711
0.075259
0.0248106
0.0679303
0.0705735
0.0593869
0.0869167
-0.040722
0.0521944
0.0059147
-0.0483945
-0.0128757
-0.0496006
0.0656183
-0.00328628
-0.004491
0.00236156
-0.0336678
0.0159072
-0.0515605
0.0737035
-0.0216461
0.0429296
-0.0802173
-0.02691
-0.0455453
0.08744
-0.000799139
0.00928461
-0.00668255
-0.0433844
-0.0456285
-0.0243801
-0.0489536
0.0359515
0.0674083
-0.0593731
-0.0075076
-0.0458635
-0.04894
0.0433654
-0.00473981
-0.00617114
0.0761008
-0.0715526
0.0171992
0.0184487
0.0568885
0.0780447
-0.00691025
-0.0275177
-0.0577361
-0.0116511
-0.000965614
-0.0459415
0.0502155
-0.0431013
-0.0524373
-0.0366427
-0.00174126
-0.0190855
0.0037596
-0.0543129
-0.00930415
-0.060358
0.0314035
0.0258894
0.00118947
0.0391387
-0.0100631
-0.0741151
-0.00375744
-0.0745493
0.0750702
-0.0383565
-0.048073
-0.0489656
0.0585198
0.0638033
-0.0138361
0.0409191
-7.57243e-05
-0.0549659
0.0078462
-0.0453155
-0.0151511
0.0643369
0.0148436
0.0420114
0.0779143
0.0388579
0.0161723
0.0702348
-0.0601155
-0.0125995
-0.0148257
-1.56915e-05
0.0122949
0.0759717
-0.0462125
-0.0027051
-0.0191005
-0.0149491
-0.0298727
-0.0256176
0.025
0.0445848
0.0532813
0.00388622
0.000607123
0.0749722
0.0549205
-0.0331314
0.0238537
-0.0571819
-0.043404
0.0382321
-0.0596618
0.0515837
-0.0511644
0.0561169
0.0858802
0.0664661
-0.0567032
0.066701
0.0498163
-0.0139818
0.0759687
0.00162548
0.0688022
0.0363496
-0.0470964
-0.0623364
0.0239075
-0.0404474
0.00916094
-0.00288469
0.059641
0.00195195
0.0732645
-0.0399137
-0.0124688
-0.000749281
-0.0367997
-0.0489074
0.047709
0.08196
-0.0419619
0.0518425
-0.0168268
-0.0028511
-0.0124371
0.0282276
0.0611489
0.0385144
-0.0508838
0.0574121
0.0422633
0.0788309
-0.037775
-0.0615791
-0.00350617
0.0366846
0.0769368
0.0459829
-0.0213309
0.0750409
-0.00520706
-0.0570966
-0.0623726
-0.0898234
0.0091929
-0.0531713
0.0798874
0.0779339
-0.000459055
0.088581
0.0393733
-0.0172371
0.0736058
-0.0596532
0.0759838
-0.0443382
0.0643863
-0.0218454
-0.0336678
0.0359956
-0.00648704
0.0685087
0.0616433
0.0632037
-0.023863
-0.0245009
-0.0657732
0.0610173
0.0374565
-0.000634405
0.0149288
0.0385161
-0.0765932
-0.0427159
-0.0294072
-0.0487594
-0.0016049
-0.0500808
-0.0147541
0.0522396
-0.0132887
-0.00508551
0.0264822
-0.0315031
-0.00862074
-0.00379325
-0.0139494
-0.0337387
0.0527155
0.0690071
-0.00161433
0.0362159
-0.0789105
-0.0375396
0.0560939
0.0324019
-0.0556684
0.0648954
-0.050578
0.0262207
-0.0060228
0.00718769
0.0559801
-0.021521
0.0338368
0.0446794
0.0196468
0.0831888
0.0201526
-0.0603736
0.0041665
0.0136452
0.0316318
0.0786457
0.0230256
-0.000247634
-0.0147306
0.00834328
0.0567324
-0.047039
0.0628204
-0.0196163
0.0237714
0.0387659
0.0274537
-0.0229179
0.0593396
0.0749258
-0.00939027
-0.0283115
-0.0078693
-0.0264262
-0.0617849
-0.01333
0.042939
-0.0547073
-0.061748
-0.0017309
-0.0551609
0.0234551
-0.00244824
0.0332506
-0.0130212
0.0656061
-0.0118859
0.0512112
0.0820701
-0.0473346
0.0598191
-0.000491521
-0.00964492
0.0163224
0.0623644
-0.00769164
-0.017718
0.0168281
-0.0328283
-0.0278758
-0.0358177
-0.0471659
-0.0787093
0.0765529
0.0831762
-0.0591346
-0.00893425
0.0287743
-0.0639638
-0.00481558
-0.0435032
0.0196688
0.031107
-0.0666881
-0.0815436
0.0613879
-0.00488773
0.00552677
-0.00608309
-0.0601191
-0.0627299
0.0324745
0.049611
0.0111009
-0.0725475
0.0666798
0.0480341
-0.0353623
-0.000520235
-0.0461772
0.0813538
-0.0396716
-0.00561312
-0.0479684
0.0110987
0.0719502
0.00152203
0.0287297
-0.0226246
0.00317968
0.0153711
0.0739153
0.0874089
-0.00758233
0.0757775
-0.0202724
-0.00931224
-0.00771406
-0.0327819
-0.0283257
0.0600226
0.0113832
0.003391
-0.0207291
-0.0677214
0.0144811
-0.031752
0.0256425
0.0649762
-0.0376274
-0.0300065
-0.00942006
-0.0280643
0.00427461
-0.078318
-0.0118975
0.0671435
-0.0193536
-0.0581719
0.043946
-0.012282
-0.0158512
0.0107221
0.0524966
-0.00922013
-0.00408625
0.044575
-0.0249881
-0.00411204
0.00530254
0.0623036
0.00988116
-0.00979691
-0.00413639
-0.0544674
-0.010631
0.0749606
0.0456699
0.0813549
-0.0164154
0.0163766
-0.0441243
-0.0145882
0.0494395
-0.0610588
-0.0659129
0.0259569
0.0471703
-0.0625258
-0.0129257
-0.000140381
-0.00674797
-0.00104768
0.0873947
-0.000198303
-0.0129264
0.0283199
-0.0141955
0.0332141
0.0324274
-0.0487305
-0.00482108
0.0427085
8.41725e-05
0.0765537
-0.0622131
-0.0437023
0.0294576
0.0118075
-0.0337416
0.001021
-0.0300089
0.0779738
0.0770778
0.02959
0.0627608
-0.0439712
0.0562433
0.00760943
0.0369546
0.0706869
-0.0631417
-0.0232244
0.0783068
0.00888582
-0.06988
-0.0579327
0.0602235
0.0772142
-0.0179167
0.0294906
-0.004462
-0.0532387
-0.0225996
-0.0684607
0.0496007
-0.031742
-0.019995
0.0732977
-0.0506199
-0.00641812
-0.0177757
0.00526197
-0.00574745
-0.0545522
-0.0165382
-0.053389
0.00402429
0.0374801
0.0699404
0.038883
0.00206387
-0.0277572
-0.0703894
-0.0420099
0.00464707
-0.00538848
0.0421713
0.0411683
-0.0282196
-0.0283171
0.0491036
0.0486552
0.0792462
0.0572579
0.0719153
-0.00465818
-0.0566511
-0.0284527
-0.03834
0.0739456
-0.00434831
-0.0237389
0.0702463
-0.0540502
0.0401524
0.0299988
-0.00931567
-0.00196617
-0.0216714
-0.0518652
0.0474245
-0.0417889
0.0196152
-0.016708
0.0687478
-0.00260169
0.0809951
-0.0378592
-0.0182359
-0.0620484
-0.0808029
-0.0217556
0.0403851
-0.006949
-0.0384592
-0.0105395
0.0729244
0.0315987
-0.0474189
-0.0519004
-0.0202701
-0.0600698
-0.00149414
-0.0644277
-0.0337227
-0.0424492
0.0268863
-0.0590762
-0.00847503
0.070878
0.00951258
0.0403892
0.0433329
-0.0392559
-0.0207816
-0.0258881
0.0524
-0.0455192
8.17414e-05
-0.00233691
-0.0496309
-0.066918
-0.0121531
-0.00125418
0.030988
0.0811289
0.0518208
-0.00741394
0.0229141
-0.0632204
0.0755889
0.0161476
0.0490032
0.000262656
0.0293783
-0.0559567
-0.0248982
0.0387431
0.0722688
0.0385138
-0.00738282
-0.0448988
0.0825048
-0.000563944
0.0528398
0.073535
0.0157642
-0.0195211
-0.0629471
0.0492803
0.0265117
-0.0497928
0.00899806
0.0177858
0.0677603
-0.0297786
0.0743635
0.080335
-0.0339185
-0.0359062
0.0729789
-0.04671
-0.0469738
-0.0205834
-0.0436415
-0.0134991
-0.0412813
-0.0594016
-0.0189437
-0.00431913
-0.0214766
-0.0442476
-0.0056667
-0.0638729
-0.0400734
0.0064756
-0.0197679
-0.0622205
0.0637685
0.0840257
0.0773823
-0.00864397
-0.0712365
0.0810039
-0.0510288
-0.0156117
-0.00189882
-0.0488865
0.000988512
0.0256311
-0.0396572
-0.0539595
-0.0630474
-0.0595181
-0.0520259
-0.0452439
-0.072094
-0.0245667
-0.0116732
-0.0294735
0.0683634
-0.00292198
0.0295731
-0.00109073
0.0469195
-0.0518307
-0.0435413
0.089268
-0.0076599
0.0264697
-0.0535444
0.0157757
0.0832379
-0.044535
0.0207712
0.0240362
-0.0608887
-0.00817181
-0.0541904
-0.0333438
0.0284211
-0.0459677
-0.0168871
-0.0528819
-0.033779
-0.0204503
-0.0527139
-0.0143589
-0.0445155
-0.0519013
0.0836891
-0.0199694
-0.00903561
-0.0100284
0.0708838
-0.0385606
-0.0581461
0.049509
-0.046183
-0.0301797
-0.00113923
0.0147812
-0.0564625
0.0108944
0.0180163
0.0792159
0.0505063
-0.0550656
-0.0486991
-0.0627544
-0.00112524
-0.0709421
-0.0314175
-0.00566183
-0.0333292
-0.00693285
0.00742611
0.0879993
-0.032565
0.0249339
0.000396256
0.0749782
-0.0478665
0.083784
0.00176188
-0.0520771
0.0129516
0.0295361
-0.0484193
0.0596294
-0.000322795
0.0544087
-0.0432271
-0.0440624
-0.0270243
0.0862813
0.0827275
0.0273877
0.0155558
0.0309899
-0.0731647
-0.0579836
0.0392438
0.0808086
-0.0335541
0.00305745
0.00108285
-0.0520334