/*--------------------------------*- C++ -*----------------------------------*\
  =========                 |
  \\      /  F ield         | OpenFOAM: The Open Source CFD Toolbox
   \\    /   O peration     | Website:  https://openfoam.org
    \\  /    A nd           | Version:  6
     \\/     M anipulation  |
\*---------------------------------------------------------------------------*/
FoamFile
{
    version     2.0;
    format      ascii;
    class       volScalarField;
    location    "0";
    object      P_rec;
}
// * * * * * * * * * * * * * * * * * * * * * * * * * * * * * * * * * * * * * //

dimensions      [0 2 -2 0 0 0 0];

internalField   nonuniform List<scalar> 
918
(
0.75172
0.2083
0.0484508
0.734482
-0.00615981
0.198097
-0.613554
0.570162
0.737202
-0.0506577
0.0528287
0.604547
0.241499
0.117564
-1.17434
0.0335428
0.684269
-0.733635
0.595693
0.0360025
0.391677
0.774526
0.717215
0.613626
0.6325
0.132649
0.19711
0.00236092
-0.0144146
-0.0179888
-0.0135784
0.00738719
-0.00445909
0.332621
0.178084
0.14374
0.61182
0.253474
-0.437276
-0.487909
-0.486314
-0.742818
0.591465
0.609981
-0.107423
0.5393
0.512856
0.618323
0.725712
0.735092
0.720603
0.743455
0.755352
0.335304
-0.0822164
-0.137844
-0.026555
-0.0158108
0.127579
0.0472863
0.0370069
0.073576
0.0462279
0.551527
0.599568
0.597136
0.613042
0.606273
0.179748
0.0710318
0.0768939
0.273739
0.259135
0.16434
0.229341
0.0922445
0.131342
0.0600658
0.0503904
-1.38176
-1.96614
-0.783826
-0.652529
0.0194886
0.0330052
0.0432503
0.681135
0.685074
0.668506
0.677875
0.689838
-0.605535
-0.820204
0.662048
0.646363
0.732862
0.702783
0.638263
0.610703
0.0285537
0.0213566
0.0242327
0.0448712
0.0270608
0.315322
0.360309
0.565016
0.609098
0.603105
0.613087
0.608963
0.372879
0.65348
0.656455
-0.0716098
0.145329
0.0717997
0.125042
0.202551
0.15532
0.29151
0.362357
-0.022309
-0.00400188
0.03299
-0.0091137
0.0132949
0.60584
0.594046
0.622043
0.614047
0.627006
0.168776
0.0511675
0.340917
0.433674
-0.3036
-0.344432
-0.677045
-0.631028
-0.842893
0.793796
0.615841
0.642156
-0.164881
-0.0775619
-0.220243
0.0143845
-0.035704
0.637177
0.615486
0.622513
0.620783
0.620412
0.627691
0.740099
0.735593
0.742428
0.325811
0.3941
0.325514
0.272078
-0.378333
-0.193471
-0.371091
0.0116355
0.018051
0.109398
0.145346
0.158891
0.120174
0.0103492
0.0326003
0.0315903
0.0160648
0.0281029
0.558747
0.535833
0.545337
0.560698
0.614659
0.609644
0.596424
0.607575
0.278942
0.260279
0.225075
0.203889
-2.57604
-4.2881
-0.508736
-0.39199
0.0106116
0.00890921
0.00326449
-0.0457594
0.00027406
-0.0264024
0.101378
0.0867463
0.0351295
0.0638074
0.673764
0.686584
0.698437
0.744066
0.612257
0.626813
0.635253
0.644678
0.645882
0.643955
0.0503785
0.0114205
0.0339032
0.476088
0.394604
0.435006
0.34514
0.251988
0.417293
0.460878
0.675053
0.672691
0.686134
-0.0547956
0.0477043
0.411994
0.257376
0.435157
0.34314
0.223176
0.14453
0.279596
0.564537
0.589245
0.580541
0.627122
0.619656
0.627133
0.622038
0.61445
0.617488
-0.0740777
-0.312826
0.694205
0.645363
0.501235
0.598027
0.796474
0.817294
0.667756
0.645249
0.661725
0.0883898
0.0651738
0.232709
0.201919
0.498582
0.509435
0.501355
0.203591
0.136434
0.189747
0.168377
0.139841
0.205113
-0.251831
-1.32189
-0.712344
-0.137929
-0.280061
-0.20194
0.0846579
0.13249
0.110074
0.712079
0.768571
0.426206
0.558162
0.524795
0.0174123
0.0375982
0.148153
0.0490294
0.0544829
0.141524
0.0845233
0.729245
0.694979
0.74075
0.782203
0.815944
0.206109
0.165201
0.122868
0.171683
0.168194
0.166235
0.76619
0.778647
0.800118
0.569847
0.599854
-0.0186653
0.00844641
0.697372
0.697463
-0.0152354
-0.00724482
-0.223484
-0.847719
0.224732
0.648155
0.616812
0.668374
-0.0412754
0.276743
0.0474316
0.0954712
0.0533075
0.588053
0.537845
0.501025
-0.0243271
0.0350744
0.0210988
-0.265468
0.644725
0.63052
0.655392
0.661136
0.688409
-0.00930832
-0.00300831
0.0356121
-0.0395164
0.0325935
0.0337167
0.619164
0.604431
-0.17299
0.64159
0.65967
0.675492
0.662783
0.677743
0.679204
-0.0067586
0.0353724
0.0308646
0.296992
0.428655
0.000373081
0.153997
-0.156579
-0.269062
-0.451235
-0.0823756
0.00464522
-0.0945043
0.0818266
0.60158
0.538347
0.303726
0.134417
0.262514
0.228525
0.632389
0.647601
0.627492
0.647108
0.653074
0.632993
0.66485
0.645355
0.649019
0.675363
0.00236223
-0.00542379
-0.00276293
-0.0910689
0.363529
0.399543
0.250258
0.306496
0.16403
0.0193186
0.0586636
0.0236483
0.0376298
0.0776906
0.140222
0.0559173
0.165763
0.0440885
0.114031
0.0263459
0.107101
0.00809247
0.575693
0.587773
0.578417
0.613022
0.57642
0.576627
0.550689
0.550818
0.576381
0.508527
0.508859
0.520885
0.0140377
0.0026011
0.0267202
0.0598579
0.0471812
-0.0363239
-0.0601524
-0.0602222
-0.0196606
-0.0531145
0.0205802
0.00584027
-0.175987
-0.352459
0.648623
0.552162
0.332623
0.632993
0.652178
0.628141
0.650599
0.680472
0.713082
0.686135
0.643385
0.614039
0.622733
0.600415
0.618783
-0.10733
-0.198209
0.00183489
-0.0967228
0.28103
0.655049
0.444161
0.427025
0.409621
0.548087
-0.173507
-0.232463
0.193739
0.204889
-0.660267
-0.513006
-0.651907
-0.336448
-0.279517
-0.0579449
0.0712522
0.127847
0.0506772
-0.0317863
0.00740483
0.54
0.0319035
0.0739824
0.290629
0.199962
0.220579
0.619785
0.636772
0.506982
0.478729
0.577497
0.550662
0.55636
0.568264
0.585324
0.534855
0.323223
0.345166
0.284812
0.646849
0.56
0.57739
0.503144
0.650591
0.653014
0.639524
0.639207
0.65911
0.630216
0.620895
0.610276
0.608987
0.634801
0.636269
0.61704
0.0216594
0.0270229
-0.0329106
-0.170556
-0.07898
-0.163651
-0.0357286
0.176702
0.0603306
0.248493
0.384453
0.190235
-0.0896614
0.0577625
0.0206904
0.238279
0.163652
0.14673
0.203841
0.207322
0.168644
0.266998
0.241684
0.0934687
0.105156
0.0751371
0.0308862
0.180451
0.131966
0.181676
0.0865986
0.119013
0.0655437
0.0404352
0.080485
0.146265
0.131409
0.0808874
0.0309828
0.0333382
-0.0255996
-0.0198972
0.182172
0.0487719
0.615909
0.604574
0.608123
0.591802
0.618182
0.620042
0.563011
0.603774
0.610015
0.597912
0.555062
0.541216
0.541918
0.565655
0.573657
0.572902
0.627369
0.615567
0.576658
0.595498
0.539245
0.560459
0.508899
0.515262
0.54918
-0.0696902
-0.0188259
-0.0580473
-0.0508458
0.00190821
0.0269404
0.0992791
0.0624556
0.13522
0.0882899
0.0886738
-0.00922664
0.0329102
-0.0117337
0.111502
-0.161678
-0.232268
-0.319214
0.652611
0.710282
0.581383
0.501097
0.551903
0.594903
0.638731
0.428657
0.468913
0.507924
0.707402
0.736893
0.611398
0.603871
0.64233
0.636839
0.625486
0.0240511
0.187421
0.231177
0.31812
0.370577
0.358253
0.404158
0.397126
0.480296
0.451929
0.638501
0.654864
0.632012
0.6588
0.667816
0.484455
0.56508
0.608867
0.580504
0.581823
0.598644
0.589928
0.582011
0.555874
0.558735
0.557666
0.503485
0.534437
0.516804
0.523236
0.571616
0.561761
0.56863
0.564755
0.608688
0.591682
0.605243
0.637732
0.614767
0.538306
0.516063
0.533863
0.543222
0.541812
0.528353
0.529097
0.404723
0.499455
0.320519
0.0324333
0.159513
0.0451121
-0.00914651
0.0978422
0.228526
-0.220086
-0.183088
-0.574093
0.48493
-0.187269
-0.0441074
-0.292318
0.444641
0.450099
0.40021
0.330516
0.389955
0.627697
0.644713
0.653148
0.53804
0.531149
0.501275
0.51768
0.566662
0.522274
0.511201
0.48851
0.3372
0.392715
0.501709
0.463563
0.411993
0.433662
0.477815
0.390445
0.41286
0.496955
0.50028
0.49191
0.559572
0.606478
0.607777
0.575198
0.496247
0.535286
0.522427
0.567459
0.592491
0.583818
0.638769
0.622432
0.621576
0.615665
0.617198
0.628768
0.605485
0.643554
0.653343
0.670255
0.653565
0.0546146
0.0640568
0.0494986
0.0133862
0.124479
0.0555672
-0.034715
-0.0469916
0.0979523
0.0673964
0.038669
0.016505
0.119687
0.10834
0.183864
0.220362
0.210373
0.139629
0.298529
0.394039
0.401167
0.37793
0.277439
0.287375
0.345899
0.0962424
0.127298
0.108296
0.0853992
0.101632
0.0213171
0.0769076
0.0599347
0.104731
0.0909754
-0.063517
0.0503978
0.0887054
-0.0306041
0.0270584
0.0546314
0.596344
0.570674
0.529503
0.50762
0.533828
0.536637
0.601474
0.6019
0.623143
0.61758
0.611577
0.602241
0.615325
-0.0161314
0.0576467
0.0642183
0.0966244
0.0173421
0.0015784
0.021617
0.332939
0.182518
0.267811
0.109129
-0.0666143
0.00373408
0.576637
0.683045
0.670099
0.716024
0.614389
0.590803
0.684018
0.744366
0.487899
0.562984
0.488052
0.689977
0.68215
0.722161
0.59436
0.332376
0.36788
0.517286
0.323449
0.264091
0.408768
0.32933
0.338285
0.372137
0.479624
0.403918
0.416752
0.475093
0.446267
0.449311
0.510156
0.444334
0.521698
0.336656
0.341542
0.258654
0.609061
0.639595
0.663932
0.62929
0.651915
0.608991
0.626351
0.636212
0.655541
0.641191
-0.475161
-0.266053
-1.11634
-0.710177
-0.380878
0.445565
0.315764
0.468132
0.530111
0.255546
0.392064
0.512289
0.514346
0.535509
0.50147
0.454133
0.52516
0.503497
0.495178
0.414938
0.335314
0.602688
0.603468
0.598354
0.619215
0.598678
0.617678
0.568819
0.600379
0.588553
0.619685
0.627309
0.637914
0.16985
0.137546
0.176892
0.158504
0.152734
0.170842
-0.0470309
-0.027366
0.113478
0.0662554
0.0363596
0.0885607
0.324404
0.329728
0.18795
0.261692
0.0812375
-0.0249178
-0.0447675
0.0858654
0.208753
0.24005
0.521726
0.609444
0.544694
0.599604
0.51631
0.593094
0.632358
0.571807
0.630439
0.568805
0.597738
0.11044
-0.110593
-0.113089
0.177615
0.474222
0.452265
0.274635
-0.0513909
0.0244762
0.556317
0.52365
0.511157
0.543152
0.519501
0.0752777
0.153
0.173498
0.279279
0.397485
0.283114
0.314115
0.305028
0.326926
)
;

boundaryField
{
    wall-4
    {
        type            calculated;
        value           nonuniform List<scalar> 
100
(
0.75172
0.2083
0.0484508
0.734482
0.198097
-0.613554
0.570162
-0.0506577
0.0528287
0.604547
0.241499
0.117564
-1.17434
0.684269
-0.733635
0.595693
0.0360025
0.391677
0.613626
0.6325
0.132649
0.19711
0.00236092
0.332621
0.61182
-0.487909
-0.742818
0.609981
-0.107423
0.512856
0.618323
-0.137844
-0.0158108
0.0370069
0.0462279
0.551527
0.597136
0.606273
0.259135
0.229341
0.131342
0.0503904
-1.96614
-0.652529
0.685074
0.677875
-0.820204
0.646363
0.610703
0.0213566
0.0270608
0.360309
0.609098
0.608963
0.372879
0.656455
-0.0716098
0.125042
0.15532
0.362357
0.594046
0.622043
0.627006
-0.344432
-0.842893
0.642156
-0.220243
-0.035704
0.622513
0.627691
-0.371091
0.018051
0.0315903
0.0281029
0.535833
0.560698
0.614659
0.607575
0.203889
-0.39199
0.686584
0.635253
0.643955
0.0339032
0.435006
0.251988
0.460878
0.686134
0.0477043
0.34314
0.580541
0.627133
0.617488
0.661725
0.0651738
0.501355
0.168377
-0.20194
0.0544829
0.122868
)
;
    }
    velocity-inlet-5
    {
        type            calculated;
        value           nonuniform List<scalar> 8(0.75172 0.734482 0.737202 0.774526 0.735092 0.755352 0.732862 0.742428);
    }
    velocity-inlet-6
    {
        type            calculated;
        value           nonuniform List<scalar> 4(0.2083 0.198097 0.14374 0.0768939);
    }
    pressure-outlet-7
    {
        type            calculated;
        value           uniform 0;
    }
    wall-8
    {
        type            calculated;
        value           nonuniform List<scalar> 
34
(
-0.00615981
0.0335428
-0.00445909
0.253474
0.335304
0.127579
0.0432503
0.689838
0.0132949
0.0511675
0.433674
0.793796
0.3941
0.272078
0.145346
0.120174
-4.2881
0.101378
0.0638074
0.744066
0.626813
-0.312826
0.694205
0.598027
0.817294
0.201919
-0.712344
0.110074
0.768571
0.524795
0.74075
0.815944
0.166235
0.800118
)
;
    }
    frontAndBackPlanes
    {
        type            empty;
    }
}

