/*--------------------------------*- C++ -*----------------------------------*\
  =========                 |
  \\      /  F ield         | OpenFOAM: The Open Source CFD Toolbox
   \\    /   O peration     | Website:  https://openfoam.org
    \\  /    A nd           | Version:  6
     \\/     M anipulation  |
\*---------------------------------------------------------------------------*/
FoamFile
{
    version     2.0;
    format      ascii;
    class       volVectorField;
    location    "0";
    object      U;
}
// * * * * * * * * * * * * * * * * * * * * * * * * * * * * * * * * * * * * * //

dimensions      [0 1 -1 0 0 0 0];

internalField   nonuniform List<vector> 
13046
(
(-0.318926 0.0912385 0)
(-0.716008 -0.339241 -3.68482e-21)
(-0.188709 -0.180904 -7.45223e-21)
(-0.32193 -0.00731073 0)
(-0.108853 -0.102258 -7.08967e-21)
(-0.600295 -0.33672 0)
(-0.363959 0.0182947 1.1467e-21)
(-0.682119 -0.387324 1.81586e-21)
(-0.0739796 -0.0858992 -7.64087e-21)
(-1.06387 0.455179 2.79907e-21)
(-1.43908 -0.716468 0)
(0.0728813 -0.00154383 4.37886e-21)
(-0.460462 0.138622 -3.6674e-21)
(-0.894245 -0.444475 -5.20765e-21)
(-0.0811541 -0.12702 3.94822e-21)
(-0.984413 0.504165 -3.87399e-21)
(0.0161513 -0.027171 1.03922e-20)
(-1.49442 -0.625932 6.57004e-22)
(-0.137321 -0.0328285 0)
(-0.422718 -0.28283 -3.87972e-21)
(-0.404034 -0.129302 1.19356e-20)
(-0.999825 0.495063 -1.55425e-21)
(0.0324262 -0.0188337 -1.38938e-20)
(-1.48552 -0.646514 0)
(-0.26514 0.0100262 4.71702e-21)
(-0.572309 -0.286809 -9.19143e-21)
(-0.188508 -0.164864 0)
(-0.473707 0.172666 -6.61124e-21)
(-0.930691 -0.4431 1.55506e-21)
(-0.0999778 -0.141588 -6.91842e-21)
(-0.326789 0.11565 0)
(-0.747098 -0.326676 0)
(-0.214171 -0.202333 7.58377e-21)
(-0.24051 -0.0216422 -5.48048e-21)
(-0.214778 -0.169888 2.65434e-21)
(-0.492816 -0.246165 1.60197e-20)
(-0.253489 -0.0488593 -8.39171e-21)
(-0.205722 -0.147599 4.11747e-21)
(-0.454665 -0.238387 -8.1528e-21)
(-0.233517 0.117966 5.70058e-21)
(-0.45455 -0.367467 1.3287e-21)
(-0.677039 -0.213167 -5.77412e-21)
(-0.295443 -0.125878 3.76498e-21)
(-0.23152 -0.12428 6.30677e-21)
(-0.328679 -0.186661 0)
(-0.319205 -0.117932 2.48389e-21)
(-0.184852 -0.0945055 -9.72634e-21)
(-0.366222 -0.218927 -1.19792e-21)
(-0.342902 0.08449 0)
(-0.739271 -0.365353 -2.58249e-22)
(-0.138402 -0.153505 -7.74716e-23)
(-0.719617 -0.562052 7.90302e-21)
(-0.189604 0.133738 0)
(-0.706644 -0.115242 -6.78171e-21)
(-0.810406 -0.622198 -1.1266e-20)
(-0.702538 -0.0839485 -1.10373e-20)
(-0.155005 0.114606 8.34155e-21)
(-1.32775 -0.44981 -8.82619e-22)
(-0.743205 0.439024 0)
(-0.206106 -0.210139 5.79396e-21)
(-0.67962 0.163127 -3.52481e-21)
(-1.10748 -0.653157 2.68575e-21)
(0.0525975 -0.0266468 -1.64655e-20)
(0.0641594 -0.0306586 8.16558e-21)
(-1.41512 -0.706393 -9.79658e-22)
(-0.957681 0.387463 -5.11462e-21)
(-0.691235 0.424076 0)
(-1.26654 -0.399213 0)
(-0.270925 -0.267724 0)
(-0.643781 0.394693 -2.43303e-21)
(-1.21251 -0.381064 0)
(-0.292969 -0.285764 4.61143e-21)
(-1.37895 -0.460223 0)
(-0.789338 0.465897 4.52699e-23)
(-0.185337 -0.197416 -5.67982e-23)
(-0.139677 -0.0100697 0)
(-0.422955 -0.298021 4.1561e-21)
(-0.449093 -0.155606 -8.42786e-21)
(-0.107055 -0.1296 6.32389e-21)
(-0.855377 0.486307 -7.29184e-21)
(-1.4351 -0.517736 0)
(-0.293822 0.0203101 2.51192e-21)
(-0.612537 -0.314592 0)
(-0.149648 -0.137595 0)
(0.0654875 -0.023962 -7.26552e-21)
(-1.43786 -0.710119 -5.20847e-22)
(-0.993336 0.412181 3.01436e-21)
(-0.994194 0.29933 -5.41455e-21)
(0.0943338 -0.0170552 0)
(-1.36873 -0.806574 -8.19844e-22)
(0.0584224 -0.00743563 0)
(-1.07364 0.224503 0)
(-1.33779 -0.911504 8.1567e-23)
(-0.714651 0.283844 0)
(-0.768139 0.298119 3.06554e-21)
(-1.21328 -0.588223 4.92028e-21)
(-1.25892 -0.628133 -2.27356e-21)
(-0.00700937 -0.0864372 -3.41961e-21)
(0.0226074 -0.0658096 8.81606e-21)
(0.0911779 -0.0146072 -4.20325e-22)
(-0.98308 0.271591 5.29775e-21)
(-1.34523 -0.824959 0)
(-0.319733 -0.0912011 -8.71379e-24)
(-0.155002 -0.0905862 5.01995e-21)
(-0.428919 -0.258192 0)
(-0.0708227 0.060021 0)
(-0.594649 -0.0445918 -3.50579e-21)
(-0.782207 -0.555664 0)
(-0.175392 0.112803 9.6492e-21)
(-0.633985 -0.484546 0)
(-0.654561 -0.14082 -1.33111e-20)
(-1.03515 0.467909 0)
(0.0584032 0.0138272 0)
(-1.29298 -0.668454 1.44037e-21)
(-0.405346 0.110627 1.01193e-20)
(-0.83035 -0.409964 2.34301e-21)
(-0.0944808 -0.127707 7.26733e-21)
(-0.78419 0.359816 3.89056e-21)
(-0.726479 0.319896 -7.34959e-21)
(-1.30726 -0.581528 -4.10039e-21)
(-0.0320275 -0.0956212 3.89483e-21)
(-1.24212 -0.56335 2.26242e-21)
(-0.0370918 -0.102563 -3.63818e-21)
(-1.06038 0.470836 -1.96977e-21)
(-1.42692 -0.701369 5.98441e-22)
(0.067946 0.00414342 -1.95164e-21)
(-0.60189 0.236198 0)
(-1.08658 -0.519831 -3.66435e-21)
(-0.0550546 -0.120938 8.27259e-21)
(-0.276927 0.135937 0)
(-0.393933 -0.330283 -6.74926e-21)
(-0.724698 -0.250302 3.35826e-22)
(0.0512205 -0.00121515 0)
(-1.02335 0.199971 0)
(-1.31798 -0.897819 0)
(-0.866027 0.311975 0)
(-1.32644 -0.702501 -5.30583e-21)
(0.0669755 -0.0381406 -9.39339e-21)
(-0.376557 0.141648 0)
(-0.814457 -0.360337 0)
(-0.196047 -0.202945 0)
(-0.498574 0.0498659 0)
(-0.852346 -0.521451 0)
(-0.00153494 -0.0296245 0)
(-0.155523 0.108258 0)
(-0.698277 -0.527432 0)
(-0.654847 -0.113668 7.22978e-21)
(-0.0700111 0.0481526 -9.74421e-22)
(-0.568781 -0.0524034 -7.68966e-21)
(-0.760156 -0.53059 7.41225e-21)
(-0.723269 0.189144 8.08018e-21)
(-1.15495 -0.671078 0)
(0.060682 -0.0334669 2.1359e-20)
(-0.0515046 -0.00232034 0)
(-0.468383 -0.0437063 8.224e-21)
(-0.678675 -0.448347 -1.9202e-21)
(-0.962535 -0.701803 0)
(-0.705018 0.00103229 7.96374e-21)
(-1.0353 -0.734171 0)
(-0.726659 0.0432524 4.60677e-21)
(-0.0678434 0.0706071 0)
(-0.0285173 0.0491171 0)
(-0.54128 0.0120253 1.07128e-21)
(-0.840228 -0.554611 3.7938e-21)
(-0.0101848 0.00403356 -4.22236e-21)
(-1.08375 0.435448 -2.86955e-21)
(0.0812276 -0.00456685 0)
(-1.41727 -0.743159 -2.7128e-22)
(-1.04886 0.472844 -1.57353e-21)
(0.062036 0.0131822 -8.93219e-22)
(-1.35518 -0.679581 0)
(-0.888117 0.338034 -4.41957e-21)
(-1.35191 -0.698676 0)
(0.0624947 -0.0394112 1.06714e-20)
(-0.370934 0.211098 0)
(-0.861558 -0.273615 1.71058e-21)
(-0.42264 -0.36783 3.82951e-21)
(-0.527999 -0.0103533 6.96956e-21)
(-0.0290478 0.0177293 2.06335e-21)
(-0.78798 -0.521147 0)
(0.0921543 -0.0119095 0)
(-1.40951 -0.795517 0)
(-1.09486 0.385124 2.33711e-21)
(-0.321642 0.182623 0)
(-0.799281 -0.248921 -3.82206e-21)
(-0.4392 -0.365124 1.00579e-21)
(-0.0461878 0.0122686 0)
(-0.490467 -0.0419042 0)
(-0.695594 -0.468122 0)
(-0.460749 0.0245851 3.44442e-21)
(-0.794709 -0.48863 0)
(-0.0143117 -0.0357334 0)
(-0.972299 -0.504959 1.77789e-23)
(-0.0305102 -0.0961159 -4.93853e-21)
(-0.557438 0.206467 1.04534e-20)
(-1.03626 -0.499027 0)
(-0.0583643 -0.11894 -1.03633e-20)
(-1.02013 0.362183 -5.38055e-21)
(0.0907777 -0.0181728 6.63696e-21)
(-1.41339 -0.772883 -2.90516e-21)
(0.0713403 -0.00477062 6.13908e-21)
(-0.976702 0.217826 3.36232e-21)
(-1.31492 -0.860608 4.33777e-21)
(-1.06107 0.27152 -8.68928e-21)
(-1.36536 -0.862335 0)
(0.0857795 -0.0139898 -6.02415e-21)
(-0.761511 -0.615785 -3.97412e-22)
(-0.797488 -0.124607 3.00788e-21)
(-0.25523 0.185723 0)
(-0.438525 0.0762817 -1.55197e-20)
(-0.840511 0.498382 3.7612e-21)
(-0.135273 -0.148879 -3.88923e-21)
(-1.43612 -0.504392 0)
(-1.37561 -0.859693 0)
(-1.09189 0.303307 -7.44639e-21)
(0.0902735 -0.0164296 0)
(-0.290341 -0.0558187 -1.23876e-20)
(-0.157404 -0.112454 -4.04439e-21)
(-0.476559 -0.269602 1.18967e-20)
(-0.447247 0.180304 0)
(-0.910144 -0.415846 -2.28944e-22)
(-0.146627 -0.169179 -3.96468e-21)
(0.0580742 -0.000112498 4.74378e-21)
(-0.984609 0.201049 0)
(-1.30466 -0.879017 -5.00032e-21)
(-0.48148 0.104028 1.24198e-20)
(-0.949368 -0.511171 9.256e-21)
(-0.0182221 -0.083916 0)
(0.0771356 -0.000104262 0)
(-1.35781 -0.734422 -8.70173e-22)
(-1.09772 0.441665 0)
(-0.212746 0.158044 0)
(-0.770692 -0.0977213 0)
(-0.81685 -0.657021 0)
(-1.01425 0.254656 7.62116e-21)
(-1.3496 -0.846318 0)
(0.0857446 -0.0123471 -3.92637e-23)
(-0.627528 0.0287371 3.03693e-21)
(-0.938856 -0.643311 -2.74613e-21)
(-0.00918545 0.0277532 0)
(-0.601538 0.258204 0)
(-1.09729 -0.502438 3.44198e-21)
(-0.0839034 -0.136473 6.49793e-21)
(-1.22033 -0.883873 -7.63268e-21)
(-0.916274 0.110195 -6.08762e-21)
(-0.0093485 0.0365653 3.73976e-21)
(-0.779172 0.0572072 0)
(-1.09175 -0.780889 -3.42124e-21)
(-0.0301263 0.0502485 -1.37968e-22)
(0.0758611 -0.00352725 -5.8059e-21)
(-1.32795 -0.740726 0)
(-1.1101 0.42792 -1.38939e-21)
(-0.251693 0.155958 5.19554e-21)
(-0.567462 -0.452236 -4.77816e-21)
(-0.734196 -0.189957 5.59389e-22)
(-0.956355 0.502238 1.39785e-21)
(0.0439582 0.0292154 -8.35319e-21)
(-1.29999 -0.586592 0)
(-0.118948 -0.0528918 -2.40241e-21)
(-0.369726 -0.0980768 -9.64414e-21)
(-0.468011 -0.299387 1.16189e-20)
(-0.617419 0.0783256 3.65471e-21)
(-0.598484 0.0376297 3.83945e-23)
(-0.987284 -0.630922 -6.80814e-21)
(-0.923018 -0.616946 0)
(0.00238667 0.0130889 3.8381e-21)
(0.0282114 -0.0044351 -3.93108e-21)
(-0.0758792 -0.101223 -8.27755e-21)
(-0.89091 0.499007 3.90587e-21)
(-1.47118 -0.53575 -2.52382e-21)
(-0.554269 0.248679 0)
(-1.0496 -0.460287 0)
(-0.13272 -0.165824 -8.52227e-21)
(-0.824323 0.0923101 -1.63019e-21)
(-1.14845 -0.818038 0)
(-0.00560021 0.037153 0)
(-0.830013 0.341431 -3.75583e-21)
(-1.32257 -0.638662 0)
(0.0245001 -0.0626535 3.83093e-21)
(-0.257884 -0.105101 2.50276e-21)
(-0.340874 -0.173694 3.66086e-21)
(-0.257074 -0.149725 -1.25661e-21)
(-0.695172 0.0613894 -5.86309e-21)
(-1.03135 -0.707316 0)
(0.00151899 0.0300257 -6.47191e-21)
(-0.569358 0.271019 0)
(-1.07631 -0.452302 4.32821e-21)
(-0.152745 -0.180836 -5.36046e-21)
(-0.503964 0.136256 0)
(-0.554275 0.161946 1.2359e-21)
(-0.267775 0.170354 1.8658e-21)
(-0.587334 -0.473981 1.37897e-20)
(-0.758818 -0.183871 -1.32907e-20)
(-0.726341 0.0956485 -6.0389e-21)
(-1.08378 -0.729896 5.38565e-21)
(0.0277132 0.0153704 5.90692e-21)
(-0.868768 0.352809 0)
(0.0424816 -0.0499488 -1.36134e-20)
(-1.35727 -0.666811 -2.29264e-21)
(-0.171348 0.0977477 -1.33764e-20)
(-0.592278 -0.457196 0)
(-0.631355 -0.145669 4.44312e-21)
(-0.0949802 0.0887198 -7.63444e-21)
(-0.734003 -0.00887956 -4.51179e-21)
(-0.96691 -0.727606 0)
(-0.711613 0.354224 -3.72184e-21)
(-1.25015 -0.506029 -3.42883e-21)
(-0.111254 -0.147714 2.38694e-21)
(-0.231001 0.158855 6.69234e-22)
(-0.682033 -0.540867 0)
(-0.742922 -0.139896 9.37537e-21)
(-0.758606 0.383651 0)
(-0.791027 0.388674 0)
(-1.30606 -0.529423 -1.96165e-21)
(-0.093694 -0.133478 -6.24423e-21)
(-1.33062 -0.564362 2.77679e-21)
(-0.0576418 -0.107131 6.60603e-21)
(0.0903713 -0.0122466 -5.09251e-21)
(-1.41955 -0.777405 0)
(-1.07168 0.395956 -3.60679e-21)
(-0.675641 0.303042 4.36745e-21)
(-1.18931 -0.531005 0)
(-0.0700392 -0.124327 2.19992e-21)
(-1.12917 -0.599359 -6.0895e-21)
(0.0393696 0.0195201 7.34127e-21)
(-0.932475 0.457204 1.65544e-21)
(-0.442054 -0.0804049 -4.53639e-21)
(-0.0782391 -0.00720511 0)
(-0.581477 -0.38581 0)
(-0.61808 0.141163 8.42525e-21)
(-1.04572 -0.607252 0)
(0.0398299 -0.0371914 1.27521e-20)
(0.0848441 -0.0238733 -4.22388e-21)
(-0.973101 0.349234 1.11289e-20)
(-1.39401 -0.748942 2.72564e-21)
(-0.843231 -0.651817 0)
(-0.724571 -0.0736593 4.04025e-21)
(-0.157912 0.125524 -9.45531e-21)
(-1.2511 -0.887384 -8.45251e-21)
(-0.941105 0.142794 -3.67362e-21)
(0.0184805 0.0194539 0)
(-0.853919 -0.465616 -9.85078e-21)
(-0.0365069 -0.0837099 0)
(-0.65581 0.201859 8.91026e-21)
(-1.10345 -0.593956 3.0542e-21)
(0.0242104 -0.0663452 3.85138e-21)
(-0.842206 -0.483822 5.67448e-21)
(-0.0193051 -0.0672555 -2.97322e-23)
(-0.962827 0.486682 -2.54596e-22)
(0.00438808 -0.0415747 4.91384e-21)
(-1.48398 -0.615487 -9.6639e-22)
(-0.74203 -0.625422 0)
(-0.847146 -0.144901 9.21535e-22)
(-0.300329 0.214611 0)
(-0.703057 0.228307 -9.07711e-21)
(-1.16982 -0.622488 -3.72062e-21)
(0.0386266 -0.0568773 -4.61189e-21)
(-0.524077 0.0432503 0)
(-0.860194 -0.547394 -5.5087e-21)
(0.00230687 -0.0147479 0)
(-0.626333 -0.0735097 0)
(-0.753745 -0.562473 0)
(-0.111804 0.0818744 0)
(-0.329052 0.05343 -3.47645e-21)
(-0.686413 -0.353437 -5.64454e-21)
(-0.130491 -0.138702 -1.6166e-23)
(-0.128981 0.110785 9.46658e-21)
(-0.738171 -0.0378887 1.09539e-20)
(-0.920466 -0.702677 5.27114e-21)
(-1.03969 0.330711 -4.43091e-21)
(-1.3929 -0.802344 2.37714e-21)
(0.0960065 -0.016541 -6.30057e-21)
(-1.26114 -0.866781 5.83824e-21)
(-0.927448 0.158825 3.72314e-21)
(0.0384411 0.0117145 4.81327e-21)
(-0.547977 0.343716 -7.43134e-21)
(-0.389386 -0.355902 6.89739e-21)
(-1.10628 -0.323562 -5.20731e-21)
(-0.825038 0.445864 2.13765e-21)
(-0.784526 0.419989 -1.9831e-21)
(-1.34679 -0.511616 -6.24868e-22)
(-1.39026 -0.526857 0)
(-0.0993479 -0.128169 -2.24285e-21)
(-0.11863 -0.14729 -2.01942e-21)
(0.0436097 0.0233962 -9.94553e-21)
(-1.18296 -0.595879 6.70935e-21)
(-0.946689 0.464064 1.04802e-21)
(-0.970258 0.50858 -1.07882e-22)
(0.0446652 0.0277936 1.15565e-20)
(-1.34585 -0.593106 0)
(-0.666177 0.104657 -1.34707e-20)
(-1.05529 -0.666097 -1.42837e-21)
(0.0375613 -0.00358178 0)
(0.0885208 -0.0155608 -1.27711e-20)
(-1.0395 0.383662 3.58822e-21)
(-1.42668 -0.765135 0)
(-0.643281 0.364203 1.08974e-20)
(-0.687127 0.380337 -8.10797e-21)
(-1.19586 -0.424061 3.88889e-21)
(-1.24138 -0.453148 1.41521e-21)
(-0.234347 -0.236047 -3.99507e-21)
(-0.18857 -0.200276 -2.00175e-21)
(0.0840296 -0.0219219 0)
(-1.35224 -0.864832 0)
(-1.15302 0.307487 1.21462e-21)
(-0.898918 0.4994 -1.64116e-21)
(0.0389835 0.0343319 0)
(-1.24932 -0.550139 0)
(-0.405421 -0.166054 3.49676e-23)
(-0.177464 -0.0418893 5.38384e-21)
(-0.332397 -0.230155 2.59449e-21)
(-0.984737 0.477499 -2.3526e-21)
(-1.27081 -0.630381 -2.10676e-21)
(0.0501896 0.0219675 5.43815e-22)
(-0.430732 0.232852 0)
(-0.925563 -0.322581 -7.52879e-21)
(-0.339147 -0.308859 -8.02372e-23)
(-1.09878 0.368696 1.23629e-22)
(-1.40156 -0.812503 1.95113e-21)
(0.094714 -0.0139011 5.96342e-24)
(-0.995611 -0.597019 -1.69211e-22)
(0.0335994 0.00599941 -4.26658e-21)
(-0.916391 0.385515 -2.00364e-22)
(-0.188821 0.0873416 -4.91445e-21)
(-0.467985 -0.361849 4.34946e-21)
(-0.612873 -0.187043 1.41538e-20)
(-0.37196 -0.0674116 0)
(-0.54712 -0.339542 -1.28952e-20)
(-0.0938752 -0.052653 6.52042e-21)
(-1.04222 0.490758 0)
(0.0599076 0.00658024 5.8147e-21)
(-1.43576 -0.683078 -1.6365e-22)
(-0.396539 -0.0543442 0)
(-0.587306 -0.367373 -4.37157e-21)
(-0.0727266 -0.0337389 -9.263e-21)
(-0.3718 -0.158008 5.54544e-21)
(-0.192855 -0.0658101 -2.84551e-21)
(-0.319412 -0.209292 1.38976e-21)
(-0.20176 0.1554 4.57563e-21)
(-0.792951 -0.0746359 -3.79113e-21)
(-0.892526 -0.719219 5.812e-21)
(-0.461385 -0.133564 0)
(-0.471584 -0.323631 0)
(-0.11877 0.00730034 7.85998e-22)
(-0.467018 -0.101278 7.18025e-21)
(-0.543901 -0.365042 3.33491e-21)
(-0.0984247 0.00992948 1.10446e-22)
(-0.502246 0.318196 1.12887e-20)
(-1.04458 -0.293733 -5.60683e-21)
(-0.44362 -0.402119 -6.88062e-21)
(0.0582776 -0.0104692 8.77708e-21)
(0.0682344 -0.00852232 -8.98011e-21)
(-1.46594 -0.695902 2.23957e-22)
(-1.45407 -0.712674 2.67461e-22)
(-1.0287 0.470285 0)
(-1.04345 0.457329 -2.866e-21)
(-1.06994 0.338236 5.51245e-21)
(-1.3983 -0.814472 -1.52591e-21)
(0.0961949 -0.0160425 7.81922e-21)
(-0.373982 -0.353009 -4.43521e-21)
(-0.594501 0.380125 2.34055e-21)
(-1.16179 -0.336196 6.63605e-21)
(-0.272641 0.1575 -4.74323e-21)
(-0.499496 -0.405267 -4.39159e-21)
(-0.745508 -0.215275 4.35361e-21)
(-0.80509 0.0326208 0)
(-1.08071 -0.805791 3.54135e-21)
(-0.0713304 0.0726269 1.42566e-22)
(-1.12418 -0.696776 -1.36142e-21)
(0.0565276 -0.011881 -3.99651e-21)
(-1.07429 0.379391 -7.00833e-22)
(0.0716978 -0.0128739 0)
(-1.08932 0.252053 0)
(-1.34805 -0.901101 1.21818e-21)
(-1.07001 0.461121 2.05896e-21)
(0.0700244 0.00598427 0)
(-1.37844 -0.709268 8.54036e-22)
(0.0261488 0.0109063 -1.58922e-32)
(-0.92894 -0.555632 3.50037e-21)
(-0.847048 0.37519 3.14857e-23)
(-0.964161 -0.494792 -3.95719e-21)
(0.025232 0.0231697 1.58546e-32)
(-0.80066 0.428263 -4.45459e-23)
(-1.18767 -0.741182 -7.00229e-21)
(-0.786624 0.170858 0)
(0.0638307 -0.00805295 -1.23704e-20)
(-1.28887 -0.813374 3.82686e-22)
(0.0782175 -0.0243546 -4.10438e-21)
(-1.17508 0.345586 0)
(-0.894426 0.304644 -5.65966e-21)
(-1.33242 -0.731037 3.21368e-21)
(0.0783986 -0.030629 6.31052e-21)
(-0.983338 0.538371 7.44139e-21)
(0.0116795 -0.00970094 3.47109e-21)
(-1.50503 -0.58644 0)
(-0.406489 0.0826471 2.71948e-21)
(-0.0638457 -0.101188 -2.49837e-21)
(-0.815903 -0.432922 2.41026e-21)
(-1.35734 -0.880798 5.18295e-22)
(0.0821874 -0.0201085 4.36243e-21)
(-1.13728 0.290805 1.54314e-21)
(-0.785333 0.00988998 -4.41873e-21)
(-0.0955331 0.088894 -2.56619e-21)
(-1.03667 -0.780092 0)
(-1.16817 -0.811121 0)
(-0.825406 0.116337 0)
(0.020416 0.0240007 0)
(0.00695337 0.0127152 0)
(-0.544375 -0.290889 4.23744e-21)
(-0.487716 0.237032 -7.91448e-22)
(-1.12411 -0.628576 -2.36696e-21)
(0.0428392 0.0121359 -5.14191e-21)
(-0.965127 0.438736 -9.84667e-22)
(-0.367669 0.0534779 -6.99789e-21)
(-0.0836555 -0.107393 6.0543e-21)
(-0.736383 -0.398119 2.88519e-21)
(-1.371 -0.830259 5.84646e-22)
(-1.13766 0.347531 -2.37531e-21)
(0.0904072 -0.0182915 0)
(0.0804246 -0.0250651 -4.54882e-21)
(-1.17514 0.311518 0)
(-1.32591 -0.863944 -5.00653e-22)
(-1.02159 0.410152 -3.27585e-21)
(0.0763398 -0.017012 1.35766e-20)
(-1.44077 -0.732415 0)
(-0.0324445 -0.0721235 -1.00056e-20)
(-1.46053 -0.583492 1.99441e-21)
(-0.911809 0.47604 0)
(-0.482231 0.321722 -1.41677e-20)
(-1.02843 -0.270856 7.14279e-21)
(-0.508957 -0.455363 -2.16482e-21)
(-1.31119 -0.477998 9.38698e-22)
(-0.743894 0.418262 4.72266e-21)
(-0.171559 -0.186866 -6.18764e-21)
(-0.0329257 -0.0608307 -8.94596e-21)
(-0.93994 0.519662 0)
(-1.50654 -0.568807 0)
(-0.460557 0.22494 -2.39077e-21)
(-0.519452 0.256775 0)
(-0.949163 -0.373952 -7.75552e-21)
(-1.02652 -0.407806 8.29961e-21)
(-0.241375 -0.233349 1.11618e-21)
(-0.212099 -0.219631 -1.18906e-21)
(-0.419658 0.2152 2.29484e-21)
(-0.906697 -0.337314 0)
(-0.299475 -0.275274 2.09444e-21)
(-0.631488 0.375214 0)
(-1.19006 -0.402682 -6.30225e-21)
(-0.273089 -0.267058 1.43986e-21)
(-1.23051 -0.839425 -3.09362e-21)
(-0.887037 0.146664 4.00373e-21)
(0.0387588 0.0120898 -9.80875e-21)
(-1.3835 -0.84833 0)
(-1.08619 0.325015 8.18226e-21)
(0.0936477 -0.0164941 0)
(0.0689639 -0.00371097 -3.16434e-21)
(-0.920642 0.199719 -2.43584e-21)
(-1.28367 -0.832321 -1.94413e-21)
(-1.03316 -0.507983 5.85532e-22)
(0.0295579 0.0270709 2.73592e-21)
(-0.836405 0.448743 0)
(-0.25573 0.104134 4.5833e-21)
(-0.265356 0.0930583 0)
(-0.338127 -0.279188 0)
(-0.676676 -0.256232 1.6716e-20)
(-0.293312 -0.248868 0)
(-0.674507 -0.278454 -1.06899e-20)
(-0.544802 0.32125 0)
(-0.482433 0.283638 0)
(-0.363726 -0.330965 2.66012e-23)
(-1.08274 -0.359544 4.41783e-21)
(-0.324337 -0.298955 1.05459e-20)
(-1.00796 -0.327187 -9.60604e-21)
(-0.97885 -0.620981 0)
(0.0379904 -0.00322118 5.84304e-21)
(-0.961938 0.370936 0)
(-1.37952 -0.824536 -8.5689e-22)
(-1.12092 0.346704 8.17021e-22)
(0.0928927 -0.0162123 2.73864e-21)
(-0.318043 0.19821 -8.0252e-21)
(-0.563134 -0.468721 -4.87231e-21)
(-0.814405 -0.209664 1.36893e-20)
(-1.1749 -0.853395 6.94254e-21)
(-0.867653 0.0866775 1.02457e-20)
(-0.021926 0.0457323 0)
(-0.0530989 -0.0899546 1.07005e-20)
(-1.44429 -0.566994 -2.12063e-21)
(-0.888913 0.471498 5.01427e-21)
(-1.25024 -0.69027 0)
(-1.06318 0.440427 0)
(0.0604609 0.00523899 0)
(-1.27766 -0.723144 0)
(-1.0931 0.425042 1.62698e-21)
(0.0690328 -0.0027512 9.84068e-22)
(-0.679834 0.357815 -4.58929e-21)
(-1.22269 -0.476491 2.10897e-21)
(-0.157061 -0.179131 2.95979e-21)
(-0.141338 0.0788418 -1.2774e-21)
(-0.602357 -0.447025 0)
(-0.591894 -0.12449 -5.95657e-23)
(-1.04325 0.429507 3.81694e-21)
(0.075523 -0.0120649 7.86123e-21)
(-1.45108 -0.729886 -3.1131e-22)
(-1.21256 -0.775317 0)
(-0.825738 0.176503 0)
(0.0643695 -0.00155008 1.06807e-20)
(0.0423563 -0.0441476 2.60493e-21)
(-1.39749 -0.674641 3.74155e-21)
(-0.914088 0.390809 1.13697e-20)
(-0.450351 0.270773 0)
(-0.413797 -0.368637 -7.13878e-21)
(-0.968981 -0.301989 5.03805e-21)
(-0.622613 -0.0032736 5.77525e-23)
(-0.881102 -0.617001 4.02646e-21)
(-0.0425708 0.046595 0)
(-0.228209 0.124129 3.20517e-23)
(-0.505032 -0.40327 -1.47594e-21)
(-0.682923 -0.197489 -5.70147e-21)
(0.0839496 -0.00934592 1.172e-23)
(-1.43257 -0.756008 3.65029e-22)
(-1.07022 0.419243 3.85967e-21)
(-0.831222 0.371328 -2.14146e-21)
(-1.34484 -0.616419 -1.40295e-21)
(-0.00186365 -0.0744263 0)
(-0.197114 0.078502 -4.97062e-21)
(-0.414757 -0.322203 9.54816e-21)
(-0.607614 -0.206054 -9.33653e-21)
(-0.957696 0.535336 3.08317e-21)
(-0.0197159 -0.0429407 3.9401e-21)
(-1.51941 -0.570887 -2.8647e-22)
(-0.375476 0.16202 -2.93729e-21)
(-0.829139 -0.345531 0)
(-0.239015 -0.231105 0)
(-0.44898 -0.00658819 -1.27511e-20)
(-0.720095 -0.453399 2.64938e-21)
(-0.0318025 -0.0221868 0)
(-1.15197 -0.772226 0)
(-0.786053 0.117709 8.63125e-21)
(0.0344145 0.016884 0)
(-0.985355 0.523991 -1.38253e-21)
(0.0385889 0.0190608 -1.2284e-21)
(-1.43235 -0.602221 -1.86494e-21)
(-0.977851 0.534978 3.86764e-21)
(0.0294756 0.0141742 0)
(-1.45849 -0.587186 9.00032e-22)
(0.0263782 -0.0494119 2.32495e-21)
(-1.41436 -0.654202 -1.84912e-21)
(-0.91572 0.411328 -1.04539e-20)
(-0.66224 -0.0216182 -3.97865e-21)
(-0.905634 -0.656509 -4.08188e-21)
(-0.0731358 0.0656565 0)
(0.0381515 0.0287073 1.12539e-21)
(-1.37855 -0.580042 1.73458e-21)
(-0.949744 0.519295 0)
(0.0863046 -0.0244418 0)
(-1.36451 -0.755291 -2.01041e-21)
(-0.94576 0.319915 -1.31029e-21)
(0.0186294 0.00702069 4.68598e-21)
(-0.784773 -0.508656 -3.42129e-21)
(-0.763414 0.316983 0)
(-0.679553 0.400845 -3.23793e-22)
(-0.854626 -0.410873 0)
(0.0187044 0.0253461 4.6704e-21)
(-0.0219579 -0.0573245 -1.86685e-23)
(-1.48908 -0.590179 0)
(-0.939699 0.501199 0)
(0.0831475 -0.00467242 0)
(-1.3969 -0.757202 0)
(-1.10211 0.425822 4.59327e-21)
(-1.00669 0.462432 -3.44973e-21)
(-0.983851 0.443281 2.79067e-21)
(0.0471758 -0.0206562 -4.40882e-21)
(-1.4752 -0.674351 -1.43857e-22)
(0.0469984 -0.0275382 -7.20323e-21)
(-1.45885 -0.678448 5.42339e-22)
(-0.947411 0.297004 2.58813e-21)
(-1.35187 -0.776407 1.45146e-21)
(0.0904112 -0.0211327 0)
(-0.0642054 0.0700652 0)
(-1.12688 -0.847869 0)
(-0.850957 0.0519488 0)
(-0.257581 0.0545566 0)
(-0.239029 -0.205448 -1.34149e-20)
(-0.621951 -0.282496 5.80565e-21)
(-0.91045 0.235584 7.58987e-21)
(-1.29764 -0.799095 6.42313e-22)
(0.0845537 -0.0132004 9.28159e-21)
(0.0752891 -0.00713726 6.05196e-21)
(-0.892379 0.210606 -1.05572e-20)
(-1.27034 -0.805847 -8.8991e-22)
(-0.914117 0.524662 3.79639e-21)
(-0.065302 -0.0868361 4.27282e-21)
(-1.50112 -0.538219 2.63435e-21)
(-0.568097 0.341409 0)
(-1.11783 -0.361405 1.88782e-21)
(-0.328677 -0.30727 -1.0338e-20)
(-0.47733 0.262813 0)
(-0.982697 -0.342711 9.88344e-21)
(-0.323018 -0.300934 -2.91045e-23)
(-0.782612 0.211 -1.0262e-20)
(-1.21334 -0.714963 9.24925e-22)
(0.072044 -0.026096 -5.389e-21)
(-0.809948 0.206499 0)
(-1.22485 -0.738354 8.79306e-22)
(0.0746275 -0.018598 4.93361e-21)
(-0.172275 0.0516497 0)
(-0.413394 -0.311303 -1.5078e-20)
(-0.552454 -0.188742 5.22552e-21)
(-0.540339 0.277145 0)
(-1.05164 -0.405366 0)
(-0.223716 -0.232317 1.59748e-21)
(0.0734781 -0.019134 -9.4426e-21)
(-1.34181 -0.898131 -3.09727e-21)
(-1.13755 0.269667 0)
(-1.11738 0.403652 1.64305e-21)
(0.0691794 -0.0100912 0)
(-1.23575 -0.737918 -8.40989e-22)
(-1.11365 0.381675 -2.88265e-22)
(0.0643503 -0.0143673 0)
(-1.18957 -0.729764 2.68348e-21)
(-0.323189 0.168521 3.39979e-21)
(-0.38605 -0.324966 -1.56954e-21)
(-0.789296 -0.273957 -1.85451e-22)
(-1.16985 -0.660929 2.91454e-22)
(0.0526537 0.00429266 7.87786e-21)
(-1.03602 0.426976 0)
(-0.876881 0.405797 9.09331e-21)
(0.00187011 -0.0654846 4.93001e-21)
(-1.39094 -0.624849 0)
(0.0502468 -0.00424649 -1.17387e-21)
(-1.10869 -0.674032 2.2605e-21)
(-1.03482 0.393611 0)
(-0.325944 -0.0342706 8.61822e-21)
(-0.113821 -0.0877574 8.30507e-21)
(-0.553357 -0.318115 7.47815e-24)
(-0.585233 0.19577 -1.54189e-21)
(-1.05321 -0.536783 -1.18869e-21)
(-0.0196065 -0.0941932 -5.63361e-21)
(-0.834972 -0.622428 9.33081e-21)
(-0.662649 -0.0530603 9.38484e-21)
(-0.109376 0.0859221 0)
(0.0825812 -0.0226041 0)
(-1.31884 -0.826687 2.59146e-22)
(-1.16895 0.343647 0)
(-1.19403 -0.789581 0)
(-0.825556 0.155124 0)
(0.0526161 0.00637762 0)
(0.0041697 -0.0247874 0)
(-0.979689 0.527821 -2.66092e-21)
(-1.5126 -0.593524 2.81363e-22)
(-0.643239 0.221359 0)
(-1.10929 -0.572904 6.24138e-22)
(0.00232302 -0.0812788 5.50307e-21)
(-0.244112 0.0323536 0)
(-0.235264 -0.196987 1.15347e-20)
(-0.579245 -0.26891 0)
(-1.35414 -0.817134 -5.51949e-22)
(-1.14448 0.368657 2.25793e-21)
(0.0876755 -0.0174973 0)
(0.0738734 -0.0292404 -5.40633e-21)
(-1.39194 -0.727053 1.2489e-22)
(-0.94892 0.364518 2.56752e-22)
(-1.02421 0.499459 0)
(-1.0167 0.499581 2.1887e-21)
(0.0529275 0.0153408 -2.86005e-21)
(0.0534413 0.0189075 -3.50499e-21)
(-1.41266 -0.644344 8.79993e-22)
(-1.38143 -0.643376 -7.23963e-22)
(-0.580032 0.0850889 0)
(-0.956506 -0.599441 1.59331e-20)
(0.0247517 -0.0179897 6.14379e-21)
(-1.1324 -0.708112 9.86228e-21)
(-0.736076 0.142176 0)
(0.0554534 -0.00598871 -6.60746e-21)
(-0.392869 0.0142515 -7.16665e-21)
(-0.703595 -0.413396 4.55488e-21)
(-0.0480046 -0.0629895 9.96447e-21)
(-1.28443 -0.775533 -9.93622e-22)
(-1.1429 0.388078 2.08432e-21)
(-1.26754 -0.788727 6.18541e-22)
(0.076383 -0.0145403 0)
(-1.15836 0.366602 -2.01144e-21)
(0.0751464 -0.0198342 0)
(-0.764188 0.275595 0)
(-1.23645 -0.646366 0)
(0.0393315 -0.0569653 6.02345e-21)
(-1.13504 0.386956 3.5173e-21)
(-1.13672 0.395346 -6.37817e-21)
(-1.3596 -0.793682 -6.65848e-22)
(-1.32931 -0.774729 9.44606e-22)
(0.0856489 -0.0128452 8.00999e-21)
(0.0806829 -0.0109943 -1.48586e-23)
(-0.704276 0.118935 0)
(-1.08851 -0.704704 -9.55392e-21)
(0.0391001 0.00519222 8.56974e-21)
(-0.518053 0.112934 6.81647e-21)
(-0.984357 -0.545466 -7.27563e-21)
(0.00942859 -0.0656469 0)
(-0.993952 0.53085 0)
(0.0265403 0.000910716 0)
(-1.48691 -0.606779 -8.6503e-22)
(-0.581422 0.111175 5.04943e-21)
(-0.981963 -0.588068 -4.434e-21)
(0.0313573 -0.0307729 -1.00932e-20)
(-0.430482 0.0455373 2.90316e-21)
(-0.78764 -0.463045 -5.35032e-21)
(-0.0247931 -0.0598823 5.71184e-21)
(-1.0066 0.511258 0)
(0.0453343 0.0146189 0)
(-1.4413 -0.631163 1.10709e-21)
(-0.661368 0.249345 0)
(-1.15201 -0.562536 1.18027e-21)
(-0.0115442 -0.0917088 -5.96654e-21)
(-1.01561 -0.786209 0)
(-0.802067 -0.0123175 0)
(-0.132744 0.111699 -3.30679e-22)
(-0.455546 0.284105 -3.65569e-22)
(-0.9801 -0.285511 0)
(-0.448408 -0.399137 1.09545e-20)
(-1.28854 -0.913982 3.1568e-21)
(0.0267967 0.0100977 0)
(-1.00047 0.16825 0)
(0.0136404 0.0153524 -1.12478e-20)
(-0.73071 -0.39967 -5.92785e-21)
(-0.645835 0.31719 1.10757e-21)
(-0.608753 0.161989 0)
(-1.03997 -0.579056 4.43746e-21)
(0.025619 -0.0571096 -5.08266e-21)
(-1.01141 0.501615 5.22268e-21)
(0.0384896 -0.0080536 1.48284e-20)
(-1.48782 -0.642508 0)
(-0.626234 -0.54027 -2.83792e-21)
(-0.931306 -0.210324 -4.94703e-21)
(-0.390128 0.265968 -3.14949e-21)
(-0.80563 0.464048 0)
(0.031012 0.0340275 -4.12073e-21)
(-1.09085 -0.498964 0)
(-0.0812141 0.0336513 6.26292e-21)
(-0.0961026 0.0537178 -6.39402e-21)
(-0.634997 -0.447475 0)
(-0.516945 -0.0826905 6.05962e-21)
(-0.671541 -0.482877 -9.55339e-21)
(-0.558898 -0.0893831 -4.84377e-21)
(-0.405251 -0.0152943 6.75575e-21)
(-0.662194 -0.404459 6.14936e-21)
(-0.0509436 -0.0420772 0)
(-0.150729 0.0705661 5.65574e-21)
(-0.113397 0.045164 0)
(-0.527888 -0.394654 -5.41116e-21)
(-0.5767 -0.152477 5.40429e-21)
(-0.552741 -0.397539 5.45383e-21)
(-0.528057 -0.12137 2.86921e-23)
(-0.564424 0.145213 4.27982e-22)
(-0.921991 -0.529099 -3.244e-21)
(0.00522994 -0.0561634 -6.97155e-21)
(-0.526301 0.0959884 -1.17659e-20)
(-0.924377 -0.54321 8.38629e-23)
(0.0124703 -0.0429628 0)
(0.067482 -0.0211491 0)
(-1.19967 -0.762069 0)
(-1.14602 0.363092 1.50867e-21)
(-0.366823 0.183672 -3.13816e-21)
(-0.836168 -0.307854 0)
(-0.321903 -0.285028 2.90021e-21)
(-1.11316 0.399511 -7.49036e-21)
(-1.39199 -0.786103 -1.05294e-22)
(0.0879886 -0.0093397 -4.56463e-21)
(-0.812614 0.247958 0)
(-0.861752 0.271164 5.44708e-21)
(-1.25633 -0.709142 -1.154e-21)
(-1.29786 -0.730596 3.14542e-21)
(0.0739203 -0.0314284 -6.62899e-21)
(0.0802361 -0.0285742 -6.08967e-21)
(-0.34553 0.158029 0)
(-0.800531 -0.314859 0)
(-0.289357 -0.262741 1.40371e-21)
(-0.603662 0.331849 3.62358e-21)
(-1.13872 -0.414704 0)
(-0.23652 -0.236714 3.44116e-21)
(-0.720745 0.219747 -2.91414e-21)
(-1.17251 -0.654892 0)
(0.0542464 -0.0440808 0)
(-0.201156 -0.0211301 6.56672e-21)
(-0.461138 -0.208642 -3.14809e-21)
(-0.279833 -0.209155 3.14171e-21)
(-0.87401 0.240392 0)
(-1.2833 -0.768103 0)
(0.0838575 -0.0182745 -9.87362e-21)
(-0.230438 0.0597609 0)
(-0.299248 -0.243817 1.67062e-21)
(-0.606196 -0.252748 0)
(-0.697612 0.140094 -6.66547e-21)
(-1.09721 -0.684831 -5.40628e-21)
(0.0507917 -0.0143521 -8.58891e-22)
(-0.594606 0.309282 3.72271e-21)
(-1.12081 -0.431938 0)
(-0.199403 -0.214255 7.09787e-21)
(-0.200704 0.00643345 -6.50623e-21)
(-0.178739 0.0109691 -2.876e-21)
(-0.505951 -0.222853 3.13597e-21)
(-0.291298 -0.225359 -6.25388e-21)
(-0.499465 -0.202474 0)
(-0.340994 -0.257567 -1.10465e-20)
(-0.139177 0.0319052 -2.84474e-21)
(-0.454849 -0.333851 7.03492e-21)
(-0.11687 0.0320375 1.82771e-21)
(-0.510208 -0.155877 -7.33179e-21)
(-0.53298 -0.380568 -3.4476e-21)
(-0.508909 -0.128217 1.40929e-22)
(-0.439806 0.200256 3.47813e-21)
(-0.486692 0.213423 0)
(-0.91675 -0.381421 5.8879e-21)
(-0.966485 -0.419686 -4.60231e-21)
(-0.210239 -0.21263 -6.51225e-21)
(-0.158854 -0.178685 1.0824e-20)
(-0.011698 -0.0638708 0)
(-1.44119 -0.609222 -1.05636e-21)
(-0.910749 0.451716 -5.19621e-21)
(-0.154125 0.125912 4.03853e-21)
(-0.776762 -0.0417302 5.97755e-21)
(-0.947819 -0.739802 -9.177e-21)
(0.00960935 -0.0465747 -5.02189e-21)
(0.0280801 -0.0404002 4.03017e-21)
(-1.45978 -0.633988 9.14676e-22)
(-1.44656 -0.655241 1.69216e-21)
(-0.944456 0.463103 1.31758e-20)
(-0.951726 0.44257 -6.8341e-21)
(-0.259797 0.180366 5.82617e-21)
(-0.699379 -0.563921 -4.59698e-21)
(-0.781031 -0.148502 1.3423e-21)
(-0.235538 -0.0736596 1.11242e-20)
(-0.251144 -0.163838 0)
(-0.38948 -0.193402 -1.0891e-20)
(-0.89601 0.26907 -2.56788e-21)
(-1.31126 -0.762279 -3.55387e-21)
(0.0862913 -0.0219414 0)
(-0.291475 0.127964 0)
(-0.332378 -0.289266 -1.3369e-21)
(-0.727218 -0.273162 -5.36909e-21)
(-0.626926 0.320314 0)
(-1.15615 -0.45619 0)
(-0.168607 -0.190292 -6.60559e-21)
(-0.851602 0.442126 -5.71505e-21)