/*--------------------------------*- C++ -*----------------------------------*\
  =========                 |
  \\      /  F ield         | OpenFOAM: The Open Source CFD Toolbox
   \\    /   O peration     | Website:  https://openfoam.org
    \\  /    A nd           | Version:  6
     \\/     M anipulation  |
\*---------------------------------------------------------------------------*/
FoamFile
{
    version     2.0;
    format      ascii;
    class       volScalarField;
    location    "0.035";
    object      p;
}
// * * * * * * * * * * * * * * * * * * * * * * * * * * * * * * * * * * * * * //

dimensions      [0 2 -2 0 0 0 0];

internalField   nonuniform List<scalar> 
16000
(
-0.00689761
-0.021484
-0.0362884
-0.0511451
-0.0661306
-0.081288
-0.0966394
-0.112202
-0.127987
-0.143995
-0.160216
-0.176636
-0.193237
-0.21
-0.226905
-0.243939
-0.261091
-0.278356
-0.295733
-0.313224
-0.330838
-0.348583
-0.366475
-0.384531
-0.402775
-0.421233
-0.439937
-0.458924
-0.478239
-0.497933
-0.518069
-0.538718
-0.559964
-0.581908
-0.604674
-0.628414
-0.653314
-0.679605
-0.707581
-0.737618
-0.770215
-0.806031
-0.845947
-0.891166
-0.943364
-1.00496
-1.07951
-1.17226
-1.29046
-1.45047
-0.00678695
-0.0213289
-0.0361065
-0.0509279
-0.0658958
-0.0810516
-0.0964081
-0.111976
-0.127763
-0.143765
-0.159979
-0.176393
-0.192992
-0.209755
-0.226663
-0.243698
-0.260848
-0.278104
-0.295464
-0.31293
-0.330506
-0.348203
-0.366037
-0.384026
-0.402193
-0.420563
-0.439165
-0.458033
-0.477207
-0.496733
-0.516668
-0.537074
-0.558027
-0.579612
-0.601933
-0.625117
-0.649312
-0.674694
-0.701472
-0.729895
-0.760262
-0.792941
-0.828388
-0.867173
-0.909993
-0.957739
-1.01139
-1.07197
-1.13978
-1.21398
-0.00686071
-0.021361
-0.0360358
-0.0507799
-0.0656887
-0.0807903
-0.0960995
-0.111634
-0.127401
-0.143397
-0.159606
-0.17601
-0.192585
-0.209312
-0.22617
-0.243141
-0.260213
-0.277378
-0.294633
-0.311981
-0.329426
-0.346974
-0.364634
-0.382418
-0.400343
-0.418431
-0.436706
-0.455196
-0.473935
-0.492956
-0.5123
-0.53201
-0.552134
-0.57273
-0.593861
-0.615602
-0.638036
-0.661254
-0.685356
-0.710447
-0.736639
-0.764057
-0.792833
-0.823051
-0.854766
-0.887873
-0.922011
-0.956408
-0.989924
-1.02091
-0.00684497
-0.0212662
-0.0358401
-0.0505024
-0.0653504
-0.0804021
-0.0956674
-0.111166
-0.126908
-0.142888
-0.159081
-0.175458
-0.191989
-0.208646
-0.225409
-0.24226
-0.259187
-0.276184
-0.293246
-0.310372
-0.327566
-0.344829
-0.362169
-0.379591
-0.397104
-0.414719
-0.432447
-0.450306
-0.468312
-0.486485
-0.504843
-0.523405
-0.542192
-0.561225
-0.580532
-0.600138
-0.620068
-0.640347
-0.660987
-0.681994
-0.703365
-0.725041
-0.746912
-0.768817
-0.790513
-0.811598
-0.831604
-0.84976
-0.865083
-0.876176
-0.00682174
-0.0211787
-0.0356724
-0.0502584
-0.065039
-0.0800277
-0.0952316
-0.110671
-0.126359
-0.142288
-0.158428
-0.174744
-0.191195
-0.207751
-0.224387
-0.241084
-0.25783
-0.274617
-0.29144
-0.308295
-0.325179
-0.342091
-0.359028
-0.375992
-0.392984
-0.410008
-0.427068
-0.444168
-0.461311
-0.478495
-0.49572
-0.512981
-0.530276
-0.547598
-0.564941
-0.582294
-0.599636
-0.616931
-0.634132
-0.651174
-0.667958
-0.684374
-0.70026
-0.715414
-0.729542
-0.742294
-0.753197
-0.761676
-0.767042
-0.768504
-0.00679314
-0.0210967
-0.0355389
-0.0500728
-0.0647995
-0.0797318
-0.0948751
-0.110248
-0.125862
-0.141706
-0.157753
-0.173964
-0.190301
-0.20673
-0.223223
-0.23976
-0.256325
-0.272907
-0.289495
-0.306081
-0.322657
-0.339217
-0.355753
-0.372259
-0.388727
-0.405152
-0.421527
-0.437846
-0.4541
-0.470276
-0.486356
-0.502321
-0.518147
-0.533805
-0.549263
-0.564482
-0.579417
-0.594008
-0.608184
-0.621857
-0.634922
-0.647252
-0.658696
-0.669076
-0.678179
-0.685757
-0.69152
-0.695145
-0.696272
-0.694512
-0.00676286
-0.0210286
-0.0354515
-0.0499607
-0.0646509
-0.0795377
-0.0946271
-0.109933
-0.125459
-0.141197
-0.157122
-0.173203
-0.189407
-0.205701
-0.222055
-0.238446
-0.254852
-0.271253
-0.287636
-0.303985
-0.32029
-0.336536
-0.352713
-0.368808
-0.384806
-0.400695
-0.416462
-0.432093
-0.447569
-0.462867
-0.47796
-0.492816
-0.507396
-0.52166
-0.535563
-0.549053
-0.562072
-0.574553
-0.586422
-0.597595
-0.60798
-0.617478
-0.625982
-0.633379
-0.639553
-0.644387
-0.647769
-0.649602
-0.649802
-0.648272
-0.00674144
-0.0210098
-0.0354567
-0.0499703
-0.064642
-0.0794958
-0.0945393
-0.109782
-0.125225
-0.14086
-0.15667
-0.172631
-0.188716
-0.204894
-0.221135
-0.237408
-0.253688
-0.269951
-0.286176
-0.302346
-0.318445
-0.334455
-0.350362
-0.366148
-0.381796
-0.397288
-0.412604
-0.427723
-0.442621
-0.457271
-0.471641
-0.485694
-0.499387
-0.512675
-0.525506
-0.537824
-0.549569
-0.560678
-0.571084
-0.580719
-0.589512
-0.597398
-0.604315
-0.610211
-0.61504
-0.618767
-0.621369
-0.622897
-0.623514
-0.623416
-0.00665921
-0.0209307
-0.0354337
-0.0499772
-0.064658
-0.079511
-0.0945438
-0.109762
-0.125164
-0.140747
-0.156495
-0.172389
-0.188404
-0.204509
-0.220674
-0.236868
-0.253063
-0.269235
-0.285361
-0.301422
-0.317397
-0.33327
-0.349023
-0.364635
-0.380088
-0.39536
-0.410429
-0.42527
-0.439859
-0.454166
-0.468158
-0.481794
-0.495032
-0.507824
-0.520116
-0.531853
-0.542978
-0.553431
-0.56315
-0.572074
-0.580141
-0.587294
-0.593491
-0.598699
-0.602896
-0.606069
-0.608249
-0.609598
-0.610562
-0.611648
-0.00676712
-0.0210717
-0.0355874
-0.0501525
-0.0648376
-0.07968
-0.0946948
-0.109892
-0.125276
-0.140838
-0.156566
-0.172435
-0.188421
-0.204492
-0.220621
-0.236776
-0.252932
-0.269064
-0.285151
-0.301171
-0.317105
-0.332936
-0.348643
-0.364207
-0.379609
-0.394827
-0.409839
-0.42462
-0.439144
-0.453383
-0.467302
-0.480865
-0.49403
-0.506752
-0.518986
-0.530683
-0.541793
-0.55227
-0.562067
-0.571142
-0.579459
-0.586988
-0.593701
-0.599584
-0.604663
-0.609021
-0.612862
-0.61683
-0.622195
-0.62732
-0.00680865
-0.0214393
-0.0362647
-0.051107
-0.0660754
-0.0812185
-0.0965589
-0.112116
-0.127899
-0.14391
-0.160137
-0.176564
-0.193172
-0.209942
-0.226853
-0.243892
-0.261046
-0.278311
-0.295686
-0.313175
-0.330784
-0.348524
-0.366409
-0.384456
-0.402689
-0.421135
-0.439824
-0.458793
-0.478087
-0.497758
-0.517865
-0.53848
-0.559686
-0.581581
-0.604289
-0.627959
-0.652771
-0.678954
-0.70679
-0.736647
-0.769006
-0.804519
-0.844051
-0.888758
-0.940252
-1.0009
-1.07438
-1.16684
-1.28937
-1.464
-0.00687523
-0.0215528
-0.036345
-0.0511477
-0.0660863
-0.0812029
-0.0965163
-0.112045
-0.1278
-0.143781
-0.15998
-0.176385
-0.19298
-0.209743
-0.226653
-0.243691
-0.260844
-0.278103
-0.295467
-0.312936
-0.330516
-0.348218
-0.366055
-0.384047
-0.402218
-0.420592
-0.439199
-0.458071
-0.47725
-0.496781
-0.516721
-0.537134
-0.558094
-0.579686
-0.602017
-0.625213
-0.649423
-0.674823
-0.701618
-0.730057
-0.760434
-0.793102
-0.828496
-0.867173
-0.909829
-0.957335
-1.01079
-1.07174
-1.14108
-1.21713
-0.00706122
-0.0216672
-0.0363433
-0.0511007
-0.0660002
-0.0810614
-0.0963127
-0.111786
-0.1275
-0.143455
-0.159637
-0.176024
-0.192591
-0.209315
-0.226175
-0.24315
-0.260226
-0.277395
-0.294653
-0.312004
-0.329453
-0.347007
-0.364675
-0.382468
-0.400402
-0.4185
-0.436785
-0.455286
-0.474035
-0.493071
-0.512431
-0.53216
-0.552306
-0.572926
-0.594083
-0.615849
-0.638309
-0.661556
-0.68569
-0.710807
-0.737006
-0.764399
-0.793107
-0.82323
-0.854876
-0.887971
-0.922125
-0.956202
-0.989034
-1.01898
-0.00708854
-0.0215886
-0.0361544
-0.0508515
-0.0657105
-0.0807328
-0.095943
-0.111376
-0.127055
-0.14298
-0.159134
-0.175487
-0.192005
-0.208657
-0.22542
-0.242273
-0.259202
-0.276203
-0.293269
-0.310399
-0.327595
-0.344861
-0.362203
-0.379629
-0.397148
-0.414768
-0.432503
-0.450368
-0.468381
-0.486562
-0.504929
-0.5235
-0.542296
-0.561336
-0.580646
-0.600251
-0.620176
-0.640441
-0.66106
-0.682046
-0.703405
-0.725079
-0.746961
-0.768864
-0.790466
-0.811361
-0.831079
-0.848872
-0.863794
-0.874411
-0.00708616
-0.0215108
-0.0359874
-0.0506145
-0.0654142
-0.0803791
-0.0955304
-0.110904
-0.126524
-0.142393
-0.158489
-0.174775
-0.19121
-0.207758
-0.224391
-0.241088
-0.257834
-0.274623
-0.291447
-0.308303
-0.325189
-0.342101
-0.35904
-0.376004
-0.392996
-0.410018
-0.427076
-0.444174
-0.461315
-0.4785
-0.495726
-0.512989
-0.530283
-0.547603
-0.564941
-0.582286
-0.599617
-0.616902
-0.634091
-0.651109
-0.667857
-0.68422
-0.700028
-0.715074
-0.729076
-0.741686
-0.752392
-0.760625
-0.765684
-0.766777
-0.00705667
-0.0214271
-0.0358523
-0.0504271
-0.0651723
-0.0800802
-0.0951708
-0.110478
-0.126024
-0.141809
-0.15781
-0.17399
-0.190309
-0.206729
-0.223218
-0.239754
-0.256319
-0.272901
-0.289489
-0.306074
-0.32265
-0.339209
-0.355744
-0.372248
-0.388714
-0.405135
-0.421505
-0.437818
-0.454065
-0.470233
-0.486305
-0.502261
-0.518075
-0.533718
-0.549158
-0.564355
-0.579262
-0.593821
-0.607958
-0.621586
-0.634597
-0.64686
-0.658222
-0.668503
-0.677491
-0.684936
-0.690546
-0.694
-0.694942
-0.692992
-0.0070035
-0.0213449
-0.0357589
-0.0503009
-0.0649992
-0.0798541
-0.0948873
-0.110128
-0.125591
-0.141276
-0.15716
-0.173214
-0.189401
-0.205686
-0.222037
-0.238426
-0.254831
-0.271232
-0.287613
-0.303962
-0.320264
-0.336508
-0.352682
-0.368772
-0.384765
-0.400647
-0.416405
-0.432024
-0.447487
-0.462771
-0.47785
-0.492689
-0.507251
-0.521493
-0.53537
-0.548828
-0.561811
-0.57425
-0.586071
-0.59719
-0.607513
-0.616938
-0.625359
-0.632663
-0.638734
-0.643455
-0.646719
-0.648436
-0.648537
-0.646952
-0.00693844
-0.0213077
-0.0357541
-0.0502783
-0.0649377
-0.0797494
-0.0947353
-0.109918
-0.125308
-0.1409
-0.156679
-0.17262
-0.188693
-0.204865
-0.221104
-0.237377
-0.253657
-0.26992
-0.286144
-0.302313
-0.318409
-0.334416
-0.350319
-0.3661
-0.381741
-0.397224
-0.41253
-0.427637
-0.442521
-0.457156
-0.471509
-0.485543
-0.499215
-0.512479
-0.525282
-0.537569
-0.549279
-0.560348
-0.570709
-0.580294
-0.589032
-0.596857
-0.603709
-0.609535
-0.614291
-0.617937
-0.620437
-0.621804
-0.622199
-0.621928
-0.00674763
-0.0211497
-0.0356647
-0.0501884
-0.0648395
-0.0796538
-0.094644
-0.109822
-0.125192
-0.140749
-0.15648
-0.172364
-0.188374
-0.204479
-0.220645
-0.236841
-0.253039
-0.269213
-0.285341
-0.301402
-0.317377
-0.333249
-0.349
-0.364611
-0.38006
-0.395328
-0.410392
-0.425228
-0.43981
-0.454109
-0.468091
-0.481718
-0.494946
-0.507725
-0.520004
-0.531726
-0.542833
-0.553265
-0.56296
-0.571854
-0.579884
-0.586982
-0.59311
-0.598242
-0.602349
-0.605417
-0.607453
-0.608565
-0.609111
-0.609624
-0.00668305
-0.0210303
-0.0355655
-0.0501167
-0.0647862
-0.0796159
-0.094622
-0.109816
-0.1252
-0.140769
-0.156505
-0.172386
-0.188383
-0.204467
-0.220607
-0.236773
-0.252938
-0.26908
-0.285174
-0.301202
-0.317144
-0.332982
-0.348697
-0.36427
-0.379681
-0.394909
-0.409931
-0.424725
-0.439263
-0.453517
-0.467454
-0.481035
-0.494221
-0.506966
-0.519224
-0.530946
-0.542082
-0.552586
-0.56241
-0.571512
-0.579858
-0.587421
-0.594163
-0.600057
-0.605131
-0.609476
-0.613379
-0.617857
-0.625015
-0.632211
-0.00677448
-0.0214587
-0.036289
-0.0511125
-0.0660622
-0.0811828
-0.0964971
-0.112029
-0.127797
-0.143801
-0.160031
-0.176468
-0.193089
-0.209873
-0.2268
-0.243851
-0.261016
-0.278288
-0.295669
-0.313162
-0.330775
-0.348519
-0.366406
-0.384456
-0.40269
-0.421137
-0.439827
-0.458797
-0.478092
-0.497762
-0.51787
-0.538486
-0.559692
-0.581589
-0.604298
-0.627968
-0.652785
-0.678974
-0.70682
-0.736689
-0.769066
-0.804607
-0.844219
-0.88916
-0.941151
-1.00277
-1.07828
-1.17534
-1.30951
-1.50531
-0.00703113
-0.0217271
-0.0365056
-0.0513206
-0.0662563
-0.0813459
-0.0966158
-0.112099
-0.127814
-0.143763
-0.159941
-0.176337
-0.192931
-0.209701
-0.226623
-0.243675
-0.260841
-0.278112
-0.295486
-0.312965
-0.330555
-0.348266
-0.366112
-0.384114
-0.402296
-0.420683
-0.439304
-0.458193
-0.47739
-0.496943
-0.516907
-0.537348
-0.558339
-0.579969
-0.60234
-0.625584
-0.649858
-0.675344
-0.702245
-0.730812
-0.76135
-0.794224
-0.829866
-0.868818
-0.911836
-0.959909
-1.01428
-1.07669
-1.14962
-1.23186
-0.00736947
-0.021802
-0.0364397
-0.0513016
-0.0662608
-0.0813121
-0.096517
-0.111933
-0.127589
-0.143495
-0.159643
-0.17601
-0.192571
-0.209297
-0.226165
-0.243151
-0.26024
-0.277421
-0.29469
-0.31205
-0.32951
-0.347076
-0.364756
-0.382563
-0.400514
-0.418629
-0.436932
-0.455454
-0.474227
-0.49329
-0.512684
-0.532452
-0.552644
-0.573316
-0.594532
-0.616367
-0.638901
-0.662227
-0.686451
-0.711679
-0.738013
-0.765543
-0.794355
-0.824542
-0.856202
-0.889328
-0.923896
-0.958957
-0.992667
-1.02258
-0.00746342
-0.0216649
-0.0361715
-0.0510265
-0.0659909
-0.0810269
-0.0962036
-0.111586
-0.127209
-0.143081
-0.159193
-0.175517
-0.192018
-0.208664
-0.22543
-0.242286
-0.259219
-0.27623
-0.293305
-0.310443
-0.327646
-0.344919
-0.362268
-0.379702
-0.39723
-0.414861
-0.432608
-0.450486
-0.468515
-0.486712
-0.505099
-0.523693
-0.542513
-0.561578
-0.580912
-0.600541
-0.620489
-0.640772
-0.661403
-0.682383
-0.703705
-0.725357
-0.747274
-0.769282
-0.791037
-0.812107
-0.831814
-0.849465
-0.864113
-0.874459
-0.00749491
-0.0215691
-0.0359694
-0.0507724
-0.0656953
-0.0806821
-0.0958039
-0.11113
-0.126698
-0.142515
-0.158567
-0.174821
-0.191236
-0.207773
-0.2244
-0.241095
-0.25784
-0.27463
-0.291456
-0.308314
-0.325202
-0.342117
-0.359058
-0.376024
-0.393017
-0.41004
-0.427096
-0.444193
-0.461335
-0.478522
-0.49575
-0.513017
-0.530315
-0.547637
-0.564974
-0.582316
-0.599643
-0.616923
-0.634107
-0.651122
-0.667874
-0.684221
-0.69999
-0.714959
-0.728861
-0.741326
-0.751864
-0.759893
-0.764674
-0.765403
-0.00746436
-0.0214832
-0.035832
-0.0505823
-0.0654501
-0.0803792
-0.0954398
-0.110699
-0.126193
-0.141925
-0.157882
-0.174027
-0.190323
-0.206728
-0.223211
-0.239743
-0.256307
-0.272888
-0.289475
-0.30606
-0.322635
-0.339192
-0.355724
-0.372226
-0.388688
-0.405104
-0.421467
-0.437771
-0.454008
-0.470165
-0.486225
-0.502168
-0.517967
-0.533591
-0.549007
-0.564176
-0.579049
-0.593566
-0.607655
-0.621225
-0.634166
-0.646346
-0.657607
-0.667764
-0.676604
-0.683878
-0.689297
-0.69254
-0.693257
-0.69109
-0.00737438
-0.0214132
-0.035767
-0.0504649
-0.0652649
-0.0801299
-0.095127
-0.110315
-0.12572
-0.141348
-0.157186
-0.173207
-0.189374
-0.205648
-0.221995
-0.238383
-0.254788
-0.27119
-0.28757
-0.303917
-0.320216
-0.336455
-0.352623
-0.368706
-0.38469
-0.400559
-0.416301
-0.431901
-0.447344
-0.462606
-0.47766
-0.492474
-0.507006
-0.521213
-0.535047
-0.548457
-0.561383
-0.573757
-0.585503
-0.596536
-0.60676
-0.616073
-0.624365
-0.631521
-0.637425
-0.641961
-0.645026
-0.646536
-0.646451
-0.644789
-0.00724121
-0.0214311
-0.0358372
-0.0504621
-0.0651764
-0.0799747
-0.0949129
-0.110037
-0.125368
-0.140907
-0.156644
-0.172558
-0.188617
-0.204786
-0.221026
-0.237304
-0.253588
-0.269854
-0.28608
-0.302248
-0.31834
-0.334342
-0.350237
-0.366008
-0.381637
-0.397105
-0.412392
-0.427477
-0.442336
-0.456943
-0.471266
-0.485267
-0.498902
-0.512123
-0.524879
-0.537111
-0.54876
-0.559759
-0.570041
-0.579537
-0.588177
-0.595892
-0.602619
-0.608307
-0.612911
-0.616389
-0.618698
-0.619805
-0.619792
-0.619151
-0.00690128
-0.0213159
-0.0358134
-0.0503468
-0.0649923
-0.079778
-0.0947251
-0.109856
-0.125182
-0.140703
-0.156409
-0.172279
-0.188285
-0.204392
-0.220565
-0.23677
-0.252975
-0.269154
-0.285285
-0.301347
-0.317322
-0.333191
-0.348937
-0.364541
-0.379982
-0.395239
-0.410289
-0.425109
-0.439672
-0.45395
-0.46791
-0.481513
-0.494715
-0.507465
-0.519711
-0.531396
-0.542461
-0.552845
-0.562486
-0.571318
-0.579276
-0.58629
-0.592299
-0.597273
-0.60118
-0.603969
-0.605585
-0.606068
-0.605776
-0.605508
-0.00665155
-0.0210488
-0.035585
-0.0501156
-0.0647657
-0.0795732
-0.0945543
-0.109725
-0.125094
-0.140656
-0.156393
-0.172282
-0.188291
-0.204389
-0.220544
-0.236723
-0.2529
-0.269051
-0.285153
-0.301187
-0.317133
-0.332973
-0.34869
-0.364264
-0.379675
-0.394903
-0.409925
-0.424717
-0.439254
-0.453507
-0.467443
-0.481024
-0.494211
-0.506957
-0.519216
-0.530939
-0.542077
-0.552581
-0.562407
-0.571511
-0.579859
-0.587426
-0.594187
-0.600108
-0.605192
-0.609518
-0.613358
-0.617838
-0.625644
-0.633906
-0.0067913
-0.0214852
-0.0363046
-0.0511197
-0.0660629
-0.081169
-0.0964594
-0.111963
-0.127708
-0.1437
-0.159928
-0.176371
-0.193006
-0.209807
-0.226751
-0.243819
-0.260998
-0.278281
-0.29567
-0.313171
-0.330792
-0.348543
-0.366438
-0.384495
-0.402738
-0.421193
-0.439893
-0.458874
-0.47818
-0.497864
-0.517988
-0.538623
-0.559852
-0.581776
-0.604518
-0.628228
-0.653096
-0.679351
-0.707284
-0.737267
-0.769796
-0.805547
-0.845468
-0.890934
-0.943925
-1.00734
-1.08613
-1.18931
-1.33539
-1.5487
-0.00719749
-0.021741
-0.036496
-0.0513785
-0.066355
-0.0814467
-0.0966918
-0.112144
-0.127827
-0.143742
-0.159896
-0.17628
-0.192874
-0.209652
-0.226588
-0.243656
-0.260838
-0.278124
-0.29551
-0.313001
-0.330601
-0.348323
-0.366179
-0.384192
-0.402386
-0.420788
-0.439426
-0.458335
-0.477555
-0.497134
-0.517128
-0.537603
-0.558635
-0.580311
-0.602735
-0.62604
-0.650387
-0.675973
-0.70301
-0.731747
-0.762503
-0.795668
-0.831716
-0.871213
-0.914932
-0.964049
-1.02016
-1.08513
-1.16156
-1.24931
-0.00765474
-0.0216352
-0.0362363
-0.0512966
-0.066389
-0.0814797
-0.0966778
-0.112067
-0.127684
-0.143547
-0.159658
-0.176002
-0.192551
-0.209277
-0.226152
-0.243148
-0.260253
-0.277449
-0.29473
-0.312101
-0.329571
-0.347149
-0.364842
-0.382663
-0.400628
-0.41876
-0.437083
-0.455626
-0.474425
-0.493519
-0.512948
-0.532758
-0.552998
-0.573725
-0.595006
-0.616917
-0.639543
-0.66297
-0.687303
-0.712665
-0.739169
-0.766917
-0.795996
-0.826433
-0.858324
-0.891755
-0.926674
-0.96259
-0.998126
-1.02934
-0.00780381
-0.0213683
-0.0358196
-0.0509449
-0.0661029
-0.081209
-0.0963999
-0.111775
-0.127375
-0.143213
-0.159286
-0.175575
-0.192052
-0.208685
-0.225446
-0.2423
-0.259234
-0.276256
-0.293342
-0.310487
-0.327698
-0.34498
-0.362338
-0.37978
-0.397317
-0.414958
-0.432717
-0.45061
-0.468655
-0.486872
-0.505281
-0.523902
-0.542751
-0.561849
-0.581218
-0.600883
-0.620869
-0.641192
-0.66186
-0.682873
-0.704216
-0.725858
-0.747741
-0.769825
-0.79181
-0.813143
-0.833179
-0.851064
-0.865749
-0.875873
-0.00786379
-0.0212242
-0.0355521
-0.0506511
-0.0657926
-0.0808599
-0.0960009
-0.111327
-0.126882
-0.142673
-0.158691
-0.17491
-0.191295
-0.20781
-0.224423
-0.241111
-0.25785
-0.274637
-0.291465
-0.308325
-0.325214
-0.342131
-0.359075
-0.376044
-0.39304
-0.410064
-0.427123
-0.444221
-0.461364
-0.478552
-0.495784
-0.513054
-0.530357
-0.547684
-0.565025
-0.582371
-0.5997
-0.616981
-0.634166
-0.651183
-0.667939
-0.684302
-0.700099
-0.71507
-0.728925
-0.741323
-0.751776
-0.759681
-0.764247
-0.764649
-0.00783248
-0.0211364
-0.0354128
-0.050459
-0.0655446
-0.0805534
-0.0956324
-0.110891
-0.126371
-0.142077
-0.157998
-0.174108
-0.19037
-0.20675
-0.223216
-0.239739
-0.256297
-0.272875
-0.289461
-0.306044
-0.322617
-0.339172
-0.355702
-0.3722
-0.388659
-0.405071
-0.421427
-0.437724
-0.453953
-0.4701
-0.486149
-0.502079
-0.517864
-0.533472
-0.548869
-0.564014
-0.578857
-0.59334
-0.607388
-0.620908
-0.633791
-0.645901
-0.65708
-0.667134
-0.67585
-0.68298
-0.688239
-0.691305
-0.69183
-0.689451
-0.00771125
-0.0211091
-0.0354075
-0.0503748
-0.0653656
-0.0802973
-0.095305
-0.110482
-0.125861
-0.141449
-0.157242
-0.173224
-0.189364
-0.205622
-0.221959
-0.238342
-0.254746
-0.271147
-0.287526
-0.30387
-0.320165
-0.336399
-0.352561
-0.368636
-0.38461
-0.400467
-0.416195
-0.431778
-0.4472
-0.462439
-0.47747
-0.492257
-0.50676
-0.520933
-0.534727
-0.54809
-0.560961
-0.573272
-0.584946
-0.595896
-0.606027
-0.615232
-0.6234
-0.630414
-0.636157
-0.640513
-0.643381
-0.644692
-0.644433
-0.642683
-0.00752136
-0.0212539
-0.0356229
-0.0504434
-0.0652861
-0.0801196
-0.0950478
-0.110144
-0.125432
-0.140924
-0.156619
-0.1725
-0.188541
-0.204702
-0.220944
-0.237226
-0.253515
-0.269785
-0.286013
-0.30218
-0.318269
-0.334265
-0.350152
-0.365913
-0.38153
-0.396982
-0.41225
-0.427312
-0.442146
-0.456724
-0.471016
-0.484983
-0.498582
-0.511761
-0.524468
-0.536646
-0.548232
-0.55916
-0.569362
-0.578769
-0.587307
-0.594908
-0.601505
-0.607041
-0.611471
-0.61475
-0.616832
-0.617667
-0.617315
-0.616349
-0.00706358
-0.021321
-0.0357933
-0.0503904
-0.0650724
-0.0798585
-0.0947826
-0.109879
-0.125169
-0.140653
-0.15633
-0.172183
-0.188182
-0.204292
-0.220472
-0.236686
-0.2529
-0.269086
-0.285221
-0.301285
-0.317258
-0.333124
-0.348865
-0.364461
-0.379893
-0.395137
-0.410172
-0.424973
-0.439516
-0.453771
-0.467706
-0.481283
-0.494456
-0.507174
-0.519385
-0.53103
-0.54205
-0.552383
-0.561966
-0.570734
-0.578621
-0.585558
-0.591473
-0.596294
-0.599976
-0.602466
-0.603647
-0.603455
-0.602243
-0.601259
-0.00666859
-0.0210723
-0.0355935
-0.050113
-0.0647545
-0.0795465
-0.0945041
-0.109647
-0.124994
-0.140541
-0.156273
-0.172164
-0.188182
-0.204292
-0.220461
-0.236654
-0.252841
-0.269001
-0.28511
-0.301147
-0.317095
-0.332935
-0.348651
-0.364222
-0.379629
-0.39485
-0.409865
-0.424648
-0.439175
-0.453417
-0.467341
-0.480911
-0.494086
-0.50682
-0.519066
-0.530774
-0.541896
-0.552384
-0.562191
-0.571275
-0.579601
-0.587141
-0.593873
-0.59979
-0.604873
-0.609145
-0.612835
-0.617041
-0.624496
-0.632471
-0.00681436
-0.0215003
-0.0363056
-0.0511211
-0.0660668
-0.0811681
-0.0964485
-0.111933
-0.127663
-0.143645
-0.159869
-0.176315
-0.192957
-0.209768
-0.226723
-0.243801
-0.260989
-0.27828
-0.295675
-0.31318
-0.330806
-0.348562
-0.366463
-0.384526
-0.402775
-0.421237
-0.439943
-0.458933
-0.478249
-0.497944
-0.518081
-0.538731
-0.559978
-0.581923
-0.60469
-0.628432
-0.653339
-0.679645
-0.707645
-0.737716
-0.770364
-0.80628
-0.84644
-0.892271
-0.945956
-1.01063
-1.09161
-1.19871
-1.35171
-1.57451
-0.00730342
-0.0216916
-0.0364314
-0.0513825
-0.0664083
-0.0815104
-0.0967449
-0.11219
-0.12786
-0.14375
-0.159883
-0.176255
-0.192846
-0.209628
-0.226572
-0.243649
-0.26084
-0.278134
-0.295527
-0.313024
-0.330631
-0.348358
-0.366221
-0.38424
-0.402442
-0.420853
-0.439502
-0.458424
-0.477658
-0.497254
-0.517267
-0.537765
-0.558823
-0.580528
-0.602987
-0.626332
-0.650728
-0.676373
-0.703495
-0.732347
-0.763247
-0.796607
-0.832931
-0.872845
-0.917098
-0.966966
-1.0243
-1.09111
-1.1697
-1.26007
-0.00782394
-0.0214209
-0.0360039
-0.0512284
-0.0664386
-0.0815781
-0.0967911
-0.112184
-0.127784
-0.143619
-0.159702
-0.176023
-0.192558
-0.209279
-0.226155
-0.243153
-0.260264
-0.277471
-0.294757
-0.312133
-0.32961
-0.347194
-0.364894
-0.382722
-0.400697
-0.418838
-0.437172
-0.455729
-0.474544
-0.493656
-0.513106
-0.532942
-0.553212
-0.573973
-0.595293
-0.617251
-0.639934
-0.663429
-0.687836
-0.713283
-0.739896
-0.767787
-0.797049
-0.827729
-0.859857
-0.893542
-0.928819
-0.96518
-1.00167
-1.03384
-0.00800431
-0.0210497
-0.0354664
-0.050808
-0.0661286
-0.0813069
-0.0965317
-0.111927
-0.12753
-0.143354
-0.1594
-0.175658
-0.192108
-0.208721
-0.22547
-0.242319
-0.259251
-0.276274
-0.293367
-0.310516
-0.327731
-0.345018
-0.362381
-0.379828
-0.39737
-0.415017
-0.432783
-0.450684
-0.46874
-0.486969
-0.505393
-0.524029
-0.542897
-0.562017
-0.58141
-0.601101
-0.621114
-0.641465
-0.662163
-0.683205
-0.704575
-0.726237
-0.748133
-0.770202
-0.792285
-0.813834
-0.834106
-0.852223
-0.867063
-0.877016
-0.00808051
-0.0208655
-0.0351462
-0.0504801
-0.0658029
-0.0809502
-0.0961291
-0.111483
-0.127052
-0.142839
-0.158835
-0.175023
-0.191377
-0.207865
-0.224458
-0.241133
-0.257863
-0.274644
-0.291472
-0.308332
-0.325222
-0.34214
-0.359085
-0.376056
-0.393053
-0.410081
-0.427141
-0.444241
-0.461385
-0.478574
-0.495806
-0.513078
-0.530384
-0.547714
-0.565061
-0.58241
-0.599742
-0.617026
-0.634212
-0.651232
-0.667992
-0.684362
-0.700171
-0.715172
-0.729042
-0.741414
-0.751831
-0.759672
-0.764111
-0.764287
-0.00804889
-0.0207768
-0.0350058
-0.0502869
-0.0655536
-0.0806417
-0.0957581
-0.111043
-0.126536
-0.142237
-0.158137
-0.174216
-0.190445
-0.206796
-0.22324
-0.239749
-0.256298
-0.27287
-0.289453
-0.306034
-0.322606
-0.339159
-0.355687
-0.372183
-0.38864
-0.405049
-0.421404
-0.437697
-0.45392
-0.470061
-0.486103
-0.502026
-0.517802
-0.533401
-0.548787
-0.563919
-0.578747
-0.59321
-0.607233
-0.620724
-0.633573
-0.645643
-0.656775
-0.666777
-0.675419
-0.682467
-0.687637
-0.690606
-0.691023
-0.688511
-0.00790979
-0.0207863
-0.03505
-0.0502337
-0.0653861
-0.080388
-0.0954269
-0.110621
-0.126
-0.14157
-0.157333
-0.173281
-0.189393
-0.205631
-0.221953
-0.238328
-0.254726
-0.271124
-0.287501
-0.303843
-0.320135
-0.336365
-0.352522
-0.368591
-0.384559
-0.40041
-0.41613
-0.431703
-0.447113
-0.462339
-0.477354
-0.492125
-0.50661
-0.520763
-0.534533
-0.547868
-0.560706
-0.572979
-0.584609
-0.595509
-0.605583
-0.614723
-0.622818
-0.629748
-0.635394
-0.639645
-0.642401
-0.643603
-0.643261
-0.64148
-0.00768787
-0.021034
-0.0353839
-0.0503678
-0.065326
-0.0802055
-0.0951463
-0.110242
-0.125511
-0.140975
-0.156638
-0.172493
-0.188514
-0.204665
-0.220903
-0.237184
-0.253475
-0.269746
-0.285974
-0.302139
-0.318226
-0.334218
-0.3501
-0.365855
-0.381464
-0.396907
-0.412163
-0.427212
-0.44203
-0.456591
-0.470863
-0.48481
-0.498386
-0.51154
-0.524219
-0.536363
-0.54791
-0.558795
-0.568949
-0.5783
-0.586778
-0.594309
-0.600826
-0.606269
-0.610587
-0.61374
-0.61568
-0.616367
-0.615866
-0.614784
-0.00716693
-0.0212658
-0.0357225
-0.0503858
-0.0651105
-0.0799105
-0.0948289
-0.109912
-0.125182
-0.140642
-0.156297
-0.172135
-0.188127
-0.204235
-0.220418
-0.236636
-0.252854
-0.269044
-0.285182
-0.301246
-0.317218
-0.333082
-0.348819
-0.36441
-0.379836
-0.395073
-0.410098
-0.424888
-0.439417
-0.453658
-0.467578
-0.481139
-0.494294
-0.506993
-0.519181
-0.530801
-0.541793
-0.552095
-0.561644
-0.570375
-0.578219
-0.585109
-0.59097
-0.595718
-0.599272
-0.601567
-0.602495
-0.601946
-0.600218
-0.598812
-0.0066911
-0.0210844
-0.0355903
-0.0501083
-0.0647506
-0.0795381
-0.0944848
-0.109608
-0.124941
-0.140477
-0.156203
-0.172093
-0.188114
-0.204231
-0.220407
-0.236607
-0.252802
-0.268967
-0.285079
-0.301118
-0.317067
-0.332907
-0.34862
-0.364189
-0.379592
-0.394809
-0.409818
-0.424594
-0.439113
-0.453347
-0.467262
-0.480823
-0.493989
-0.506712
-0.518947
-0.530643
-0.541752
-0.552225
-0.562017
-0.571085
-0.579393
-0.58691
-0.593617
-0.599504
-0.60457
-0.608809
-0.612394
-0.616363
-0.623394
-0.630847
-0.00681423
-0.0215001
-0.0363054
-0.051121
-0.0660666
-0.081168
-0.0964484
-0.111933
-0.127663
-0.143645
-0.159869
-0.176315
-0.192957
-0.209768
-0.226723
-0.243802
-0.260989
-0.27828
-0.295675
-0.31318
-0.330806
-0.348562
-0.366463
-0.384526
-0.402775
-0.421237
-0.439943
-0.458933
-0.478249
-0.497944
-0.518081
-0.538731
-0.559978
-0.581923
-0.604689
-0.628432
-0.653339
-0.679645
-0.707645
-0.737716
-0.770364
-0.80628
-0.84644
-0.892271
-0.945956
-1.01063
-1.09161
-1.19871
-1.35171
-1.57451
-0.0073033
-0.0216915
-0.0364312
-0.0513823
-0.0664081
-0.0815103
-0.0967447
-0.11219
-0.12786
-0.14375
-0.159883
-0.176256
-0.192846
-0.209628
-0.226572
-0.243649
-0.26084
-0.278134
-0.295527
-0.313024
-0.330631
-0.348358
-0.36622
-0.38424
-0.402442
-0.420853
-0.439502
-0.458424
-0.477658
-0.497254
-0.517267
-0.537765
-0.558823
-0.580528
-0.602987
-0.626332
-0.650727
-0.676373
-0.703495
-0.732347
-0.763247
-0.796607
-0.832931
-0.872845
-0.917098
-0.966965
-1.0243
-1.09111
-1.1697
-1.26007
-0.00782393
-0.0214208
-0.0360038
-0.0512283
-0.0664385
-0.081578
-0.0967909
-0.112183
-0.127784
-0.143619
-0.159702
-0.176023
-0.192558
-0.209279
-0.226155
-0.243153
-0.260265
-0.277471
-0.294757
-0.312134
-0.32961
-0.347194
-0.364894
-0.382722
-0.400697
-0.418838
-0.437172
-0.455729
-0.474544
-0.493656
-0.513106
-0.532942
-0.553212
-0.573973
-0.595293
-0.617251
-0.639934
-0.663429
-0.687836
-0.713283
-0.739896
-0.767786
-0.797049
-0.827729
-0.859856
-0.893542
-0.928819
-0.96518
-1.00167
-1.03384
-0.00800439
-0.0210497
-0.0354664
-0.0508079
-0.0661285
-0.0813069
-0.0965317
-0.111927
-0.12753
-0.143354
-0.1594
-0.175658
-0.192108
-0.208721
-0.22547
-0.242319
-0.259251
-0.276274
-0.293367
-0.310516
-0.327731
-0.345018
-0.362381
-0.379828
-0.39737
-0.415017
-0.432783
-0.450684
-0.46874
-0.486969
-0.505392
-0.524029
-0.542897
-0.562017
-0.58141
-0.601101
-0.621114
-0.641465
-0.662162
-0.683204
-0.704575
-0.726236
-0.748133
-0.770201
-0.792284
-0.813834
-0.834105
-0.852223
-0.867063
-0.877016
-0.00808071
-0.0208657
-0.0351463
-0.0504801
-0.0658029
-0.0809501
-0.0961291
-0.111483
-0.127052
-0.142839
-0.158836
-0.175024
-0.191377
-0.207865
-0.224458
-0.241133
-0.257863
-0.274643
-0.291471
-0.308332
-0.325222
-0.34214
-0.359085
-0.376056
-0.393053
-0.41008
-0.427141
-0.444241
-0.461385
-0.478574
-0.495806
-0.513078
-0.530384
-0.547714
-0.56506
-0.58241
-0.599742
-0.617026
-0.634211
-0.651231
-0.667991
-0.684362
-0.70017
-0.715171
-0.729041
-0.741413
-0.75183
-0.759671
-0.76411
-0.764287
-0.00804921
-0.0207771
-0.0350059
-0.050287
-0.0655536
-0.0806416
-0.095758
-0.111044
-0.126537
-0.142238
-0.158138
-0.174217
-0.190446
-0.206796
-0.22324
-0.239748
-0.256297
-0.272869
-0.289452
-0.306034
-0.322605
-0.339158
-0.355687
-0.372183
-0.38864
-0.405049
-0.421404
-0.437697
-0.45392
-0.470061
-0.486103
-0.502026
-0.517802
-0.533401
-0.548787
-0.563918
-0.578746
-0.593209
-0.607232
-0.620723
-0.633572
-0.645642
-0.656774
-0.666776
-0.675417
-0.682465
-0.687635
-0.690605
-0.691022
-0.68851
-0.00791005
-0.0207866
-0.0350501
-0.0502338
-0.0653861
-0.0803879
-0.0954268
-0.110621
-0.126
-0.141571
-0.157334
-0.173282
-0.189393
-0.205631
-0.221953
-0.238327
-0.254726
-0.271123
-0.287501
-0.303842
-0.320135
-0.336365
-0.352522
-0.368591
-0.384559
-0.40041
-0.41613
-0.431703
-0.447113
-0.462339
-0.477354
-0.492125
-0.50661
-0.520763
-0.534533
-0.547868
-0.560706
-0.572978
-0.584608
-0.595508
-0.605582
-0.614722
-0.622816
-0.629746
-0.635392
-0.639642
-0.642397
-0.643599
-0.643258
-0.641478
-0.00768803
-0.0210341
-0.035384
-0.0503679
-0.0653261
-0.0802055
-0.0951462
-0.110242
-0.125512
-0.140975
-0.156639
-0.172494
-0.188515
-0.204665
-0.220902
-0.237184
-0.253475
-0.269746
-0.285973
-0.302139
-0.318226
-0.334218
-0.3501
-0.365855
-0.381464
-0.396907
-0.412163
-0.427212
-0.44203
-0.456591
-0.470863
-0.48481
-0.498386
-0.51154
-0.524218
-0.536363
-0.54791
-0.558795
-0.568948
-0.578299
-0.586776
-0.594307
-0.600824
-0.606266
-0.610584
-0.613735
-0.615674
-0.61636
-0.615858
-0.614778
-0.00716701
-0.0212659
-0.0357226
-0.0503859
-0.0651106
-0.0799105
-0.094829
-0.109912
-0.125183
-0.140642
-0.156297
-0.172135
-0.188127
-0.204235
-0.220418
-0.236636
-0.252854
-0.269044
-0.285182
-0.301246
-0.317218
-0.333082
-0.348819
-0.36441
-0.379836