/*--------------------------------*- C++ -*----------------------------------*\
  =========                 |
  \\      /  F ield         | OpenFOAM: The Open Source CFD Toolbox
   \\    /   O peration     | Website:  https://openfoam.org
    \\  /    A nd           | Version:  6
     \\/     M anipulation  |
\*---------------------------------------------------------------------------*/
FoamFile
{
    version     2.0;
    format      ascii;
    class       volVectorField;
    location    "./ITHACAoutput/Offline/1";
    object      uRec;
}
// * * * * * * * * * * * * * * * * * * * * * * * * * * * * * * * * * * * * * //

dimensions      [0 1 -1 0 0 0 0];

internalField   nonuniform List<vector> 
115600
(
(0.00653142 -0.00184536 0)
(0.00745818 -3.61249e-05 0)
(0.00796551 1.44899e-06 0)
(0.00828672 1.33009e-06 0)
(0.00853042 6.52041e-07 0)
(0.00868764 1.01052e-06 0)
(0.00875883 1.19408e-06 0)
(0.00877047 1.12925e-06 0)
(0.00874959 1.01824e-06 0)
(0.00870502 9.70442e-07 0)
(0.00864571 9.12096e-07 0)
(0.00857797 8.46916e-07 0)
(0.00850626 7.79543e-07 0)
(0.00843365 7.13507e-07 0)
(0.0083622 6.5191e-07 0)
(0.00829319 5.94324e-07 0)
(0.00822746 5.40065e-07 0)
(0.00816559 4.88953e-07 0)
(0.00810793 4.40832e-07 0)
(0.00805468 3.95491e-07 0)
(0.00800595 3.52875e-07 0)
(0.00796173 3.12771e-07 0)
(0.00792199 2.74946e-07 0)
(0.00788668 2.38989e-07 0)
(0.00785571 2.04576e-07 0)
(0.00782903 1.71251e-07 0)
(0.00780655 1.38728e-07 0)
(0.00778823 1.06691e-07 0)
(0.00777403 7.49276e-08 0)
(0.00776391 4.31027e-08 0)
(0.00775782 9.60339e-09 0)
(0.00775605 -3.28294e-08 0)
(0.00775964 -7.80851e-08 0)
(0.00776798 -1.16638e-07 0)
(0.00778089 -1.52807e-07 0)
(0.00779824 -1.89408e-07 0)
(0.00782006 -2.27938e-07 0)
(0.00784653 -2.69466e-07 0)
(0.00787792 -3.15154e-07 0)
(0.00791464 -3.66467e-07 0)
(0.00795724 -4.25274e-07 0)
(0.00800649 -4.93584e-07 0)
(0.00806335 -5.73906e-07 0)
(0.00812907 -6.70021e-07 0)
(0.00820529 -7.86784e-07 0)
(0.00829417 -9.31501e-07 0)
(0.00839852 -1.11204e-06 0)
(0.00852241 -1.34914e-06 0)
(0.00867063 -1.64877e-06 0)
(0.00885293 -2.10499e-06 0)
(0.00907524 -2.62141e-06 0)
(0.0093759 -3.88869e-06 0)
(0.00973252 -4.657e-06 0)
(0.0104098 -1.19085e-05 0)
(0.0110298 -1.98346e-05 0)
(0.015178 -0.000324105 0)
(0.0197114 -0.000382069 0)
(0.0218159 -7.11847e-05 0)
(0.0235911 -4.58774e-05 0)
(0.0246893 -3.07551e-05 0)
(0.0254309 -2.04528e-05 0)
(0.0258916 -9.54817e-06 0)
(0.0261148 -1.18268e-06 0)
(0.0261677 3.88011e-06 0)
(0.0261187 6.72812e-06 0)
(0.0260011 8.5429e-06 0)
(0.02584 9.5348e-06 0)
(0.0256533 9.93696e-06 0)
(0.0254537 9.93722e-06 0)
(0.02525 9.67872e-06 0)
(0.0250483 9.26522e-06 0)
(0.0248524 8.75688e-06 0)
(0.024665 8.19048e-06 0)
(0.0244881 7.59131e-06 0)
(0.0243229 6.97729e-06 0)
(0.0241701 6.36139e-06 0)
(0.02403 5.7532e-06 0)
(0.023903 5.15872e-06 0)
(0.0237888 4.5813e-06 0)
(0.0236874 4.02169e-06 0)
(0.0235985 3.47915e-06 0)
(0.023522 2.95169e-06 0)
(0.0234574 2.43719e-06 0)
(0.0234047 1.93337e-06 0)
(0.0233638 1.43801e-06 0)
(0.0233343 9.48815e-07 0)
(0.0233163 4.46728e-07 0)
(0.0233104 -1.32093e-07 0)
(0.0233191 -7.36873e-07 0)
(0.0233408 -1.28604e-06 0)
(0.0233748 -1.80576e-06 0)
(0.0234208 -2.31663e-06 0)
(0.0234786 -2.83506e-06 0)
(0.0235485 -3.37425e-06 0)
(0.0236311 -3.94794e-06 0)
(0.0237272 -4.57231e-06 0)
(0.023838 -5.26635e-06 0)
(0.0239653 -6.05223e-06 0)
(0.0241111 -6.95772e-06 0)
(0.0242782 -8.02001e-06 0)
(0.0244707 -9.28873e-06 0)
(0.0246932 -1.08321e-05 0)
(0.0249522 -1.27444e-05 0)
(0.0252571 -1.51738e-05 0)
(0.0256192 -1.83251e-05 0)
(0.0260594 -2.26189e-05 0)
(0.0265955 -2.85634e-05 0)
(0.0273012 -3.80826e-05 0)
(0.0281686 -5.31099e-05 0)
(0.0296592 -9.01047e-05 0)
(0.0313438 -0.000195266 0)
(0.038028 -0.000645038 0)
(0.0309999 -0.000463609 0)
(0.0342327 -0.00024008 0)
(0.036992 -0.000164336 0)
(0.0387486 -0.000111013 0)
(0.0399433 -7.44116e-05 0)
(0.0407446 -4.3051e-05 0)
(0.0412324 -1.90029e-05 0)
(0.0414854 -2.64653e-06 0)
(0.0415669 7.7973e-06 0)
(0.0415389 1.46129e-05 0)
(0.041434 1.8957e-05 0)
(0.0412766 2.14969e-05 0)
(0.0410854 2.27283e-05 0)
(0.040874 2.30495e-05 0)
(0.0406522 2.27582e-05 0)
(0.0404276 2.20457e-05 0)
(0.0402053 2.10392e-05 0)
(0.0399896 1.98286e-05 0)
(0.0397835 1.84808e-05 0)
(0.0395894 1.70472e-05 0)
(0.0394088 1.55679e-05 0)
(0.0392428 1.40724e-05 0)
(0.0390923 1.25812e-05 0)
(0.0389575 1.11069e-05 0)
(0.0388386 9.65565e-06 0)
(0.0387356 8.22909e-06 0)
(0.0386486 6.82618e-06 0)
(0.0385775 5.44447e-06 0)
(0.0385221 4.08049e-06 0)
(0.0384825 2.72866e-06 0)
(0.0384587 1.34355e-06 0)
(0.0384515 -2.03335e-07 0)
(0.0384628 -1.80751e-06 0)
(0.0384916 -3.29773e-06 0)
(0.0385371 -4.71691e-06 0)
(0.0385989 -6.10924e-06 0)
(0.0386771 -7.51264e-06 0)
(0.0387719 -8.96047e-06 0)
(0.038884 -1.04881e-05 0)
(0.0390143 -1.21368e-05 0)
(0.0391645 -1.39543e-05 0)
(0.0393367 -1.59969e-05 0)
(0.0395337 -1.8335e-05 0)
(0.039759 -2.10602e-05 0)
(0.0400176 -2.42942e-05 0)
(0.0403158 -2.8203e-05 0)
(0.0406617 -3.3017e-05 0)
(0.0410667 -3.90832e-05 0)
(0.0415454 -4.6907e-05 0)
(0.0421224 -5.74105e-05 0)
(0.0428221 -7.19665e-05 0)
(0.0437237 -9.43745e-05 0)
(0.0448402 -0.000130616 0)
(0.0466207 -0.00020951 0)
(0.0487068 -0.00041024 0)
(0.0549369 -0.000954808 0)
(0.0409258 -0.000924946 0)
(0.0441058 -0.000460257 0)
(0.0470782 -0.000312715 0)
(0.0490554 -0.000213992 0)
(0.0504524 -0.000146203 0)
(0.0514585 -9.18055e-05 0)
(0.0521598 -5.02445e-05 0)
(0.0526271 -2.05603e-05 0)
(0.0529108 -3.55351e-07 0)
(0.0530606 1.31904e-05 0)
(0.0531174 2.22709e-05 0)
(0.0531051 2.81803e-05 0)
(0.0530423 3.17299e-05 0)
(0.0529435 3.35662e-05 0)
(0.0528196 3.41859e-05 0)
(0.0526793 3.39234e-05 0)
(0.0525294 3.30107e-05 0)
(0.0523752 3.16169e-05 0)
(0.0522211 2.98715e-05 0)
(0.0520705 2.78764e-05 0)
(0.0519261 2.57127e-05 0)
(0.05179 2.34434e-05 0)
(0.0516639 2.11149e-05 0)
(0.0515489 1.87597e-05 0)
(0.051446 1.63979e-05 0)
(0.0513557 1.4041e-05 0)
(0.0512787 1.1694e-05 0)
(0.0512154 9.3584e-06 0)
(0.051166 7.03231e-06 0)
(0.051131 4.70779e-06 0)
(0.0511105 2.31599e-06 0)
(0.0511057 -3.02832e-07 0)
(0.0511172 -3.00482e-06 0)
(0.0511448 -5.56926e-06 0)
(0.0511888 -8.04663e-06 0)
(0.0512491 -1.04972e-05 0)
(0.0513263 -1.29779e-05 0)
(0.0514208 -1.55428e-05 0)
(0.0515338 -1.82514e-05 0)
(0.0516665 -2.11739e-05 0)
(0.051821 -2.43919e-05 0)
(0.0519996 -2.80024e-05 0)
(0.0522055 -3.2126e-05 0)
(0.052443 -3.69187e-05 0)
(0.0527172 -4.25861e-05 0)
(0.053035 -4.94068e-05 0)
(0.0534052 -5.77666e-05 0)
(0.0538399 -6.82338e-05 0)
(0.0543541 -8.16489e-05 0)
(0.0549725 -9.94636e-05 0)
(0.0557205 -0.000123999 0)
(0.0566707 -0.000160839 0)
(0.0578426 -0.000220141 0)
(0.0596132 -0.000339794 0)
(0.0616417 -0.000620252 0)
(0.0667981 -0.00121177 0)
(0.0502165 -0.00129829 0)
(0.0525602 -0.00065257 0)
(0.0551579 -0.000456052 0)
(0.0569751 -0.000318501 0)
(0.0583126 -0.000222694 0)
(0.0593244 -0.00014778 0)
(0.0600794 -9.048e-05 0)
(0.0606333 -4.84807e-05 0)
(0.0610268 -1.85936e-05 0)
(0.0612912 2.22148e-06 0)
(0.0614608 1.65761e-05 0)
(0.0615606 2.64325e-05 0)
(0.0616064 3.29702e-05 0)
(0.0616107 3.70317e-05 0)
(0.0615834 3.92733e-05 0)
(0.0615325 4.01483e-05 0)
(0.0614647 3.99803e-05 0)
(0.0613851 3.90111e-05 0)
(0.0612983 3.74291e-05 0)
(0.0612078 3.53854e-05 0)
(0.0611167 3.30019e-05 0)
(0.0610274 3.03759e-05 0)
(0.0609419 2.75819e-05 0)
(0.0608619 2.46751e-05 0)
(0.0607886 2.16933e-05 0)
(0.0607232 1.86614e-05 0)
(0.0606666 1.55946e-05 0)
(0.0606196 1.25014e-05 0)
(0.060583 9.38458e-06 0)
(0.0605573 6.23561e-06 0)
(0.0605432 2.97167e-06 0)
(0.0605418 -5.5862e-07 0)
(0.0605532 -4.19236e-06 0)
(0.060578 -7.71125e-06 0)
(0.0606169 -1.11686e-05 0)
(0.0606705 -1.4632e-05 0)
(0.0607397 -1.81714e-05 0)
(0.0608257 -2.18581e-05 0)
(0.0609297 -2.5774e-05 0)
(0.0610534 -3.00169e-05 0)
(0.061199 -3.47021e-05 0)
(0.0613694 -3.99677e-05 0)
(0.0615681 -4.59855e-05 0)
(0.0617993 -5.29764e-05 0)
(0.0620686 -6.12305e-05 0)
(0.0623832 -7.11381e-05 0)
(0.0627518 -8.32384e-05 0)
(0.0631864 -9.83128e-05 0)
(0.0637022 -0.000117524 0)
(0.0643225 -0.000142808 0)
(0.0650721 -0.000177362 0)
(0.066016 -0.000228234 0)
(0.0671731 -0.000309116 0)
(0.0688588 -0.000463037 0)
(0.0707334 -0.000804387 0)
(0.0750308 -0.00142409 0)
(0.0592113 -0.00154283 0)
(0.0604582 -0.000799482 0)
(0.0623603 -0.000576752 0)
(0.0637675 -0.000411572 0)
(0.0648545 -0.000293902 0)
(0.0657175 -0.000202526 0)
(0.0663939 -0.000132248 0)
(0.0669183 -7.98768e-05 0)
(0.0673186 -4.15659e-05 0)
(0.0676161 -1.39931e-05 0)
(0.0678287 5.49901e-06 0)
(0.0679796 1.92156e-05 0)
(0.068082 2.87863e-05 0)
(0.0681452 3.52383e-05 0)
(0.0681773 3.93453e-05 0)
(0.0681846 4.16525e-05 0)
(0.0681727 4.25572e-05 0)
(0.0681462 4.23607e-05 0)
(0.0681089 4.13009e-05 0)
(0.0680641 3.95695e-05 0)
(0.0680146 3.73224e-05 0)
(0.0679628 3.46853e-05 0)
(0.0679106 3.17563e-05 0)
(0.0678599 2.86102e-05 0)
(0.067812 2.53008e-05 0)
(0.0677683 2.18663e-05 0)
(0.0677299 1.83319e-05 0)
(0.0676978 1.47139e-05 0)
(0.0676729 1.10198e-05 0)
(0.067656 7.24159e-06 0)
(0.067648 3.28843e-06 0)
(0.06765 -9.66885e-07 0)
(0.067662 -5.35407e-06 0)
(0.0676851 -9.68075e-06 0)
(0.0677201 -1.40038e-05 0)
(0.0677682 -1.8396e-05 0)
(0.0678304 -2.29381e-05 0)
(0.0679082 -2.77165e-05 0)
(0.0680031 -3.28336e-05 0)
(0.0681171 -3.84135e-05 0)
(0.0682525 -4.46042e-05 0)
(0.0684125 -5.15848e-05 0)
(0.0686004 -5.95781e-05 0)
(0.068821 -6.88699e-05 0)
(0.0690796 -7.98344e-05 0)
(0.0693835 -9.29718e-05 0)
(0.0697414 -0.000108972 0)
(0.0701649 -0.000128821 0)
(0.0706687 -0.000153989 0)
(0.0712749 -0.000186856 0)
(0.0720068 -0.000231441 0)
(0.0729233 -0.000295953 0)
(0.0740404 -0.00039723 0)
(0.0756283 -0.000580466 0)
(0.0773462 -0.000971222 0)
(0.081023 -0.00160884 0)
(0.0678921 -0.00168006 0)
(0.068118 -0.000890802 0)
(0.0692123 -0.000659561 0)
(0.0700709 -0.000480899 0)
(0.0707818 -0.000350073 0)
(0.0713864 -0.000247949 0)
(0.071887 -0.000168594 0)
(0.0722948 -0.000108611 0)
(0.0726221 -6.39135e-05 0)
(0.0728799 -3.09516e-05 0)
(0.0730777 -7.07177e-06 0)
(0.0732252 1.00192e-05 0)
(0.0733361 2.22405e-05 0)
(0.0734159 3.0871e-05 0)
(0.0734699 3.67523e-05 0)
(0.0735026 4.04875e-05 0)
(0.073518 4.2525e-05 0)
(0.0735196 4.32094e-05 0)
(0.0735104 4.28148e-05 0)
(0.0734929 4.15632e-05 0)
(0.0734694 3.96359e-05 0)
(0.0734419 3.71798e-05 0)
(0.0734121 3.4311e-05 0)
(0.0733816 3.11196e-05 0)
(0.0733518 2.76723e-05 0)
(0.0733238 2.40181e-05 0)
(0.0732989 2.01907e-05 0)
(0.0732779 1.62134e-05 0)
(0.0732619 1.20973e-05 0)
(0.0732518 7.83477e-06 0)
(0.0732485 3.32991e-06 0)
(0.0732531 -1.51819e-06 0)
(0.0732658 -6.53709e-06 0)
(0.0732876 -1.15656e-05 0)
(0.0733197 -1.66655e-05 0)
(0.0733632 -2.19158e-05 0)
(0.0734195 -2.74073e-05 0)
(0.0734902 -3.32415e-05 0)
(0.0735769 -3.95401e-05 0)
(0.0736817 -4.64528e-05 0)
(0.0738072 -5.41601e-05 0)
(0.0739563 -6.28813e-05 0)
(0.0741328 -7.28898e-05 0)
(0.0743411 -8.45359e-05 0)
(0.0745869 -9.8276e-05 0)
(0.0748769 -0.000114719 0)
(0.0752199 -0.0001347 0)
(0.0756271 -0.000159403 0)
(0.0761125 -0.000190594 0)
(0.0766969 -0.000231059 0)
(0.0774023 -0.00028559 0)
(0.0782824 -0.000363315 0)
(0.0793499 -0.000483934 0)
(0.080842 -0.000692708 0)
(0.0824189 -0.00112491 0)
(0.0856415 -0.00177407 0)
(0.0760952 -0.00173433 0)
(0.0755561 -0.000926861 0)
(0.0758959 -0.000696626 0)
(0.0761693 -0.000517673 0)
(0.0764397 -0.00038329 0)
(0.0767172 -0.00027721 0)
(0.076976 -0.000193606 0)
(0.0772053 -0.000129509 0)
(0.077402 -8.1025e-05 0)
(0.077566 -4.46574e-05 0)
(0.0776986 -1.77446e-05 0)
(0.0778018 1.82052e-06 0)
(0.0778825 1.59897e-05 0)
(0.0779434 2.62846e-05 0)
(0.0779872 3.35719e-05 0)
(0.0780163 3.84791e-05 0)
(0.0780331 4.14811e-05 0)
(0.0780398 4.29473e-05 0)
(0.0780381 4.31733e-05 0)
(0.0780298 4.23997e-05 0)
(0.0780165 4.08232e-05 0)
(0.0779996 3.86042e-05 0)
(0.0779803 3.58703e-05 0)
(0.0779599 3.27217e-05 0)
(0.0779395 2.92338e-05 0)
(0.0779201 2.54628e-05 0)
(0.0779026 2.14485e-05 0)
(0.0778879 1.72181e-05 0)
(0.0778768 1.27849e-05 0)
(0.0778704 8.14066e-06 0)
(0.0778693 3.18584e-06 0)
(0.0778747 -2.15843e-06 0)
(0.0778869 -7.72133e-06 0)
(0.0779069 -1.33709e-05 0)
(0.077936 -1.91748e-05 0)
(0.0779752 -2.52196e-05 0)
(0.0780261 -3.16075e-05 0)
(0.0780902 -3.84547e-05 0)
(0.0781692 -4.59023e-05 0)
(0.0782655 -5.41258e-05 0)
(0.0783813 -6.33375e-05 0)
(0.0785199 -7.37967e-05 0)
(0.0786848 -8.58269e-05 0)
(0.0788806 -9.98415e-05 0)
(0.0791127 -0.000116378 0)
(0.0793878 -0.000136152 0)
(0.0797143 -0.000160139 0)
(0.080103 -0.000189715 0)
(0.0805674 -0.000226928 0)
(0.0811272 -0.00027494 0)
(0.081803 -0.000339277 0)
(0.0826442 -0.000429794 0)
(0.0836604 -0.000568821 0)
(0.0850645 -0.000800253 0)
(0.0865198 -0.00126826 0)
(0.0893976 -0.00192508 0)
(0.0836431 -0.00172874 0)
(0.0826451 -0.000918406 0)
(0.0824027 -0.00068937 0)
(0.0821486 -0.00051845 0)
(0.0819756 -0.000388646 0)
(0.0818979 -0.000285303 0)
(0.0818773 -0.000202627 0)
(0.081888 -0.000138336 0)
(0.0819143 -8.90665e-05 0)
(0.081946 -5.16188e-05 0)
(0.0819767 -2.3486e-05 0)
(0.0820026 -2.75811e-06 0)
(0.0820225 1.24236e-05 0)
(0.0820361 2.36346e-05 0)
(0.0820435 3.17384e-05 0)
(0.0820451 3.73568e-05 0)
(0.0820414 4.09669e-05 0)
(0.0820331 4.2943e-05 0)
(0.082021 4.35866e-05 0)
(0.0820057 4.31436e-05 0)
(0.0819881 4.18163e-05 0)
(0.0819689 3.97697e-05 0)
(0.0819487 3.71363e-05 0)
(0.0819284 3.40204e-05 0)
(0.0819086 3.05013e-05 0)
(0.08189 2.66383e-05 0)
(0.0818734 2.24735e-05 0)
(0.0818593 1.80352e-05 0)
(0.0818485 1.33363e-05 0)
(0.0818417 8.36592e-06 0)
(0.0818397 3.02273e-06 0)
(0.0818433 -2.75773e-06 0)
(0.081853 -8.81093e-06 0)
(0.0818697 -1.50289e-05 0)
(0.0818946 -2.14862e-05 0)
(0.0819289 -2.82784e-05 0)
(0.081974 -3.55198e-05 0)
(0.0820313 -4.33423e-05 0)
(0.0821028 -5.19071e-05 0)
(0.0821905 -6.14156e-05 0)
(0.0822969 -7.21121e-05 0)
(0.0824251 -8.42958e-05 0)
(0.0825786 -9.83398e-05 0)
(0.0827618 -0.00011472 0)
(0.0829802 -0.000134055 0)
(0.0832401 -0.000157161 0)
(0.0835498 -0.000185157 0)
(0.0839196 -0.000219598 0)
(0.0843624 -0.000262811 0)
(0.084897 -0.000318307 0)
(0.0855428 -0.00039231 0)
(0.0863458 -0.000495257 0)
(0.087313 -0.000651913 0)
(0.0886377 -0.00090385 0)
(0.0899897 -0.00140341 0)
(0.0925946 -0.00206548 0)
(0.0904082 -0.0016823 0)
(0.0892101 -0.000880983 0)
(0.0886184 -0.000646935 0)
(0.0879754 -0.000485671 0)
(0.0874198 -0.000364968 0)
(0.087002 -0.000269532 0)
(0.0866942 -0.0001925 0)
(0.0864681 -0.000131917 0)
(0.0863007 -8.50007e-05 0)
(0.0861748 -4.89907e-05 0)
(0.0860778 -2.16917e-05 0)
(0.0860012 -1.37054e-06 0)
(0.0859368 1.36759e-05 0)
(0.0858807 2.48706e-05 0)
(0.0858308 3.30245e-05 0)
(0.0857852 3.87278e-05 0)
(0.0857429 4.24361e-05 0)
(0.085703 4.45086e-05 0)
(0.0856651 4.52355e-05 0)
(0.0856288 4.48548e-05 0)
(0.0855939 4.35628e-05 0)
(0.0855607 4.15208e-05 0)
(0.0855291 3.88582e-05 0)
(0.0854993 3.56775e-05 0)
(0.0854717 3.20566e-05 0)
(0.0854464 2.80534e-05 0)
(0.0854239 2.37084e-05 0)
(0.0854046 1.90475e-05 0)
(0.085389 1.40802e-05 0)
(0.0853775 8.79147e-06 0)
(0.0853707 3.07952e-06 0)
(0.0853692 -3.11478e-06 0)
(0.0853737 -9.63921e-06 0)
(0.0853849 -1.64033e-05 0)
(0.0854039 -2.34893e-05 0)
(0.0854318 -3.10036e-05 0)
(0.0854699 -3.90732e-05 0)
(0.0855198 -4.78467e-05 0)
(0.085583 -5.75064e-05 0)
(0.0856618 -6.82802e-05 0)
(0.0857585 -8.0445e-05 0)
(0.0858762 -9.43401e-05 0)
(0.0860183 -0.000110388 0)
(0.0861891 -0.000129127 0)
(0.0863937 -0.000151255 0)
(0.0866385 -0.000177691 0)
(0.0869315 -0.00020969 0)
(0.0872826 -0.000248986 0)
(0.0877041 -0.000298174 0)
(0.0882141 -0.000361099 0)
(0.0888308 -0.000444649 0)
(0.0895974 -0.000559735 0)
(0.0905188 -0.000733371 0)
(0.0917724 -0.0010042 0)
(0.0930359 -0.00153188 0)
(0.0954169 -0.00219764 0)
(0.0963202 -0.00160773 0)
(0.0950905 -0.000829417 0)
(0.0943756 -0.000583277 0)
(0.0935355 -0.000427439 0)
(0.0927195 -0.000315425 0)
(0.0920254 -0.000230068 0)
(0.0914575 -0.000161931 0)
(0.0910004 -0.000108333 0)
(0.090634 -6.66955e-05 0)
(0.0903391 -3.46154e-05 0)
(0.0900996 -1.02397e-05 0)
(0.0899032 8.02181e-06 0)
(0.0897363 2.16443e-05 0)
(0.0895933 3.1743e-05 0)
(0.0894694 3.9039e-05 0)
(0.0893611 4.40681e-05 0)
(0.0892654 4.7241e-05 0)
(0.08918 4.88806e-05 0)
(0.0891032 4.92489e-05 0)
(0.0890337 4.85616e-05 0)
(0.0889705 4.69976e-05 0)
(0.0889129 4.47047e-05 0)
(0.0888602 4.18017e-05 0)
(0.0888123 3.83829e-05 0)
(0.0887688 3.4519e-05 0)
(0.0887296 3.0262e-05 0)
(0.0886948 2.56464e-05 0)
(0.0886644 2.06926e-05 0)
(0.0886386 1.54036e-05 0)
(0.0886177 9.75786e-06 0)
(0.0886021 3.65552e-06 0)
(0.088592 -2.9672e-06 0)
(0.0885881 -9.97765e-06 0)
(0.088591 -1.72964e-05 0)
(0.0886018 -2.5014e-05 0)
(0.0886213 -3.32493e-05 0)
(0.0886509 -4.21429e-05 0)
(0.0886918 -5.18613e-05 0)
(0.0887458 -6.26086e-05 0)
(0.0888148 -7.46403e-05 0)
(0.0889012 -8.82668e-05 0)
(0.0890078 -0.000103867 0)
(0.089138 -0.000121915 0)
(0.0892961 -0.000143011 0)
(0.0894869 -0.00016793 0)
(0.0897167 -0.000197696 0)
(0.0899932 -0.000233696 0)
(0.0903258 -0.000277843 0)
(0.0907267 -0.00033299 0)
(0.0912129 -0.000403304 0)
(0.0918018 -0.000496308 0)
(0.0925342 -0.000623307 0)
(0.0934131 -0.00081337 0)
(0.0946023 -0.00110188 0)
(0.0957889 -0.00165474 0)
(0.0979806 -0.00232314 0)
(0.101353 -0.0015135 0)
(0.100178 -0.000774656 0)
(0.0995019 -0.000513398 0)
(0.0986609 -0.00035632 0)
(0.0977529 -0.000248008 0)
(0.0968978 -0.000170796 0)
(0.0961385 -0.000112172 0)
(0.0954878 -6.73959e-05 0)
(0.0949395 -3.32262e-05 0)
(0.094481 -7.18144e-06 0)
(0.0940961 1.24828e-05 0)
(0.0937685 2.71456e-05 0)
(0.0934879 3.79704e-05 0)
(0.093246 4.57897e-05 0)
(0.0930362 5.12218e-05 0)
(0.0928531 5.47211e-05 0)
(0.0926923 5.66305e-05 0)
(0.0925502 5.72175e-05 0)
(0.0924238 5.66989e-05 0)
(0.0923109 5.52541e-05 0)
(0.0922096 5.30331e-05 0)
(0.0921184 5.01605e-05 0)
(0.0920363 4.67366e-05 0)
(0.0919623 4.28407e-05 0)
(0.0918955 3.85309e-05 0)
(0.0918357 3.38485e-05 0)
(0.0917823 2.8818e-05 0)
(0.091735 2.34504e-05 0)
(0.0916939 1.77395e-05 0)
(0.0916589 1.16548e-05 0)
(0.0916302 5.10051e-06 0)
(0.0916077 -2.00037e-06 0)
(0.0915918 -9.5436e-06 0)
(0.0915834 -1.74561e-05 0)
(0.0915832 -2.58359e-05 0)
(0.091592 -3.48163e-05 0)
(0.0916108 -4.45529e-05 0)
(0.091641 -5.52306e-05 0)
(0.0916842 -6.70767e-05 0)
(0.0917421 -8.0375e-05 0)
(0.091817 -9.54702e-05 0)
(0.0919117 -0.000112783 0)
(0.0920294 -0.000132838 0)
(0.0921742 -0.000156296 0)
(0.0923509 -0.000184016 0)
(0.0925655 -0.00021712 0)
(0.0928253 -0.000257128 0)
(0.0931398 -0.000306131 0)
(0.0935204 -0.000367237 0)
(0.0939836 -0.000444921 0)
(0.094546 -0.000547312 0)
(0.095246 -0.00068605 0)
(0.0960853 -0.000892057 0)
(0.0972153 -0.0011973 0)
(0.0983339 -0.00177272 0)
(0.100362 -0.00244308 0)
(0.105516 -0.00140658 0)
(0.10443 -0.000722969 0)
(0.103869 -0.000449282 0)
(0.103169 -0.000286302 0)
(0.102342 -0.000174914 0)
(0.101481 -0.00010016 0)
(0.100647 -4.81634e-05 0)
(0.0998815 -1.15239e-05 0)
(0.0991997 1.47082e-05 0)
(0.0986 3.36974e-05 0)
(0.0980768 4.74127e-05 0)
(0.0976218 5.71598e-05 0)
(0.0972257 6.38715e-05 0)
(0.0968801 6.82451e-05 0)
(0.0965778 7.07897e-05 0)
(0.0963123 7.18641e-05 0)
(0.0960782 7.17302e-05 0)
(0.0958708 7.05862e-05 0)
(0.0956864 6.85913e-05 0)
(0.0955217 6.58765e-05 0)
(0.0953743 6.25526e-05 0)
(0.0952419 5.87122e-05 0)
(0.0951228 5.44294e-05 0)
(0.0950155 4.97621e-05 0)
(0.0949189 4.47506e-05 0)
(0.0948321 3.94206e-05 0)
(0.0947542 3.37829e-05 0)
(0.0946847 2.78354e-05 0)
(0.0946232 2.15598e-05 0)
(0.0945694 1.49141e-05 0)
(0.0945232 7.80711e-06 0)
(0.0944844 1.4552e-07 0)
(0.0944531 -8.0054e-06 0)
(0.09443 -1.6581e-05 0)
(0.0944157 -2.56814e-05 0)
(0.094411 -3.54562e-05 0)
(0.0944167 -4.60786e-05 0)
(0.094434 -5.7752e-05 0)
(0.0944643 -7.07279e-05 0)
(0.0945095 -8.532e-05 0)
(0.0945714 -0.000101908 0)
(0.094653 -0.000120956 0)
(0.0947571 -0.000143037 0)
(0.0948878 -0.00016888 0)
(0.0950497 -0.00019942 0)
(0.0952486 -0.000235881 0)
(0.0954916 -0.000279921 0)
(0.0957878 -0.000333798 0)
(0.0961484 -0.000400876 0)
(0.096589 -0.000485931 0)
(0.0971257 -0.000597665 0)
(0.0977947 -0.000748013 0)
(0.0985966 -0.000969529 0)
(0.0996717 -0.00129077 0)
(0.100729 -0.00188636 0)
(0.102611 -0.00255822 0)
(0.108854 -0.00129314 0)
(0.107866 -0.000676678 0)
(0.10743 -0.000397256 0)
(0.106924 -0.000228228 0)
(0.106293 -0.000109456 0)
(0.10558 -3.07038e-05 0)
(0.104824 2.06741e-05 0)
(0.10406 5.34005e-05 0)
(0.103323 7.39072e-05 0)
(0.102637 8.65903e-05 0)
(0.102013 9.41253e-05 0)
(0.101453 9.81916e-05 0)
(0.100953 9.98642e-05 0)
(0.100509 9.98493e-05 0)
(0.100116 9.86029e-05 0)
(0.099766 9.64144e-05 0)
(0.0994549 9.34742e-05 0)
(0.0991775 8.99132e-05 0)
(0.0989295 8.58291e-05 0)
(0.0987072 8.12995e-05 0)
(0.0985075 7.63891e-05 0)
(0.0983276 7.11519e-05 0)
(0.0981654 6.56299e-05 0)
(0.098019 5.98541e-05 0)
(0.0978867 5.38422e-05 0)
(0.0977673 4.76004e-05 0)
(0.0976596 4.11222e-05 0)
(0.0975627 3.43893e-05 0)
(0.0974759 2.73682e-05 0)
(0.0973988 2.00036e-05 0)
(0.097331 1.22043e-05 0)
(0.097272 3.86863e-06 0)
(0.0972215 -4.98758e-06 0)
(0.0971803 -1.43233e-05 0)
(0.0971488 -2.42312e-05 0)
(0.0971276 -3.48751e-05 0)
(0.0971175 -4.6449e-05 0)
(0.0971194 -5.91772e-05 0)
(0.0971348 -7.33355e-05 0)
(0.0971651 -8.92681e-05 0)
(0.0972124 -0.000107392 0)
(0.0972791 -0.000128213 0)
(0.0973684 -0.000152359 0)
(0.0974838 -0.000180622 0)
(0.0976299 -0.000214017 0)
(0.0978123 -0.000253872 0)
(0.0980379 -0.000301976 0)
(0.0983156 -0.000360765 0)
(0.0986559 -0.000433844 0)
(0.0990741 -0.00052629 0)
(0.0995854 -0.000647345 0)
(0.100225 -0.000809208 0)
(0.100991 -0.00104583 0)
(0.102013 -0.00138248 0)
(0.103014 -0.00199602 0)
(0.104765 -0.00266909 0)
(0.111442 -0.00117696 0)
(0.110549 -0.000635272 0)
(0.110215 -0.000358136 0)
(0.109885 -0.000186495 0)
(0.109477 -6.08505e-05 0)
(0.108996 2.53693e-05 0)
(0.108432 8.20021e-05 0)
(0.107802 0.000117086 0)
(0.107135 0.000136896 0)
(0.106464 0.000146505 0)
(0.105814 0.000149572 0)
(0.1052 0.000148608 0)
(0.104632 0.00014524 0)
(0.104113 0.000140472 0)
(0.103642 0.000134892 0)
(0.103216 0.000128826 0)
(0.102832 0.000122454 0)
(0.102485 0.000115869 0)
(0.102173 0.000109125 0)
(0.10189 0.000102253 0)
(0.101635 9.5272e-05 0)
(0.101404 8.81977e-05 0)
(0.101194 8.10371e-05 0)
(0.101004 7.37916e-05 0)
(0.100831 6.64532e-05 0)
(0.100675 5.90059e-05 0)
(0.100533 5.1423e-05 0)
(0.100404 4.36677e-05 0)
(0.100288 3.56894e-05 0)
(0.100183 2.74167e-05 0)
(0.10009 1.87522e-05 0)
(0.100007 9.59661e-06 0)
(0.0999338 -8.33126e-08 0)
(0.0998709 -1.0295e-05 0)
(0.099819 -2.1124e-05 0)
(0.0997783 -3.27377e-05 0)
(0.0997496 -4.5352e-05 0)
(0.0997336 -5.92155e-05 0)
(0.0997315 -7.463e-05 0)
(0.0997448 -9.19705e-05 0)
(0.0997754 -0.000111691 0)
(0.0998256 -0.000134344 0)
(0.0998982 -0.000160609 0)
(0.0999969 -0.000191344 0)
(0.100126 -0.000227646 0)
(0.100291 -0.000270946 0)
(0.100498 -0.000323168 0)
(0.100756 -0.000386917 0)
(0.101076 -0.000466046 0)
(0.101472 -0.000565919 0)
(0.101958 -0.000696287 0)
(0.102568 -0.000869596 0)
(0.103298 -0.00112095 0)
(0.104271 -0.00147252 0)
(0.105219 -0.00210193 0)
(0.10685 -0.00277604 0)
(0.113364 -0.00106005 0)
(0.112564 -0.000597225 0)
(0.112308 -0.000329803 0)
(0.11211 -0.000159863 0)
(0.111883 -3.08543e-05 0)
(0.111618 6.19263e-05 0)
(0.111285 0.000126024 0)
(0.110876 0.000167664 0)
(0.110397 0.000191998 0)
(0.109864 0.000203644 0)
(0.109299 0.000206431 0)
(0.108724 0.000203395 0)
(0.108158 0.000196798 0)
(0.107615 0.000188206 0)
(0.107103 0.000178623 0)
(0.106626 0.000168643 0)
(0.106186 0.000158591 0)
(0.105782 0.000148625 0)
(0.105412 0.000138814 0)
(0.105073 0.000129177 0)
(0.104764 0.000119711 0)
(0.104482 0.000110401 0)
(0.104224 0.000101225 0)
(0.103988 9.21573e-05 0)
(0.103772 8.31652e-05 0)
(0.103576 7.421e-05 0)
(0.103396 6.52443e-05 0)
(0.103232 5.62122e-05 0)
(0.103083 4.70444e-05 0)
(0.102947 3.76529e-05 0)
(0.102825 2.79283e-05 0)
(0.102715 1.77729e-05 0)
(0.102616 7.127e-06 0)
(0.102528 -4.08322e-06 0)
(0.102453 -1.59643e-05 0)
(0.10239 -2.86737e-05 0)
(0.102339 -4.24408e-05 0)
(0.102303 -5.75409e-05 0)
(0.102281 -7.43049e-05 0)
(0.102275 -9.31406e-05 0)
(0.102287 -0.00011454 0)
(0.102318 -0.000139101 0)
(0.102373 -0.000167558 0)
(0.102453 -0.000200835 0)
(0.102564 -0.000240112 0)
(0.10271 -0.000286925 0)
(0.102898 -0.00034333 0)
(0.103136 -0.000412108 0)
(0.103434 -0.000497347 0)
(0.103807 -0.0006047 0)
(0.104268 -0.000744388 0)
(0.104847 -0.000929092 0)
(0.105543 -0.0011948 0)
(0.106467 -0.00156088 0)
(0.107364 -0.00220418 0)
(0.108883 -0.00287931 0)
(0.114716 -0.000947537 0)
(0.114015 -0.000562444 0)
(0.113821 -0.000310045 0)
(0.113716 -0.000144941 0)
(0.113616 -1.59791e-05 0)
(0.113508 8.03747e-05 0)
(0.113367 0.000150037 0)
(0.113172 0.000198222 0)
(0.112916 0.000229163 0)
(0.112596 0.000246559 0)
(0.112216 0.000253576 0)
(0.111788 0.000252945 0)
(0.111327 0.000246969 0)
(0.110848 0.000237506 0)
(0.110367 0.000225964 0)
(0.109896 0.000213342 0)
(0.109441 0.000200301 0)
(0.10901 0.000187249 0)
(0.108605 0.000174411 0)
(0.108226 0.000161896 0)
(0.107874 0.000149742 0)
(0.107548 0.000137945 0)
(0.107247 0.000126481 0)
(0.106968 0.000115311 0)
(0.106711 0.000104386 0)
(0.106475 9.3652e-05 0)
(0.106257 8.30439e-05 0)
(0.106056 7.24885e-05 0)
(0.105873 6.18998e-05 0)
(0.105704 5.11736e-05 0)
(0.10555 4.01869e-05 0)
(0.10541 2.88348e-05 0)
(0.105283 1.7052e-05 0)
(0.105169 4.71378e-06 0)
(0.105068 -8.34824e-06 0)
(0.10498 -2.22939e-05 0)
(0.104906 -3.73475e-05 0)
(0.104846 -5.3805e-05 0)
(0.104802 -7.20294e-05 0)
(0.104775 -9.24644e-05 0)
(0.104765 -0.000115642 0)
(0.104776 -0.000142204 0)
(0.104811 -0.000172943 0)
(0.104871 -0.000208848 0)
(0.104962 -0.000251185 0)
(0.105087 -0.000301594 0)
(0.105255 -0.000362265 0)
(0.105472 -0.000436152 0)
(0.105748 -0.000527576 0)
(0.106096 -0.000642476 0)
(0.106531 -0.000791497 0)
(0.10708 -0.000987558 0)
(0.107742 -0.00126725 0)
(0.108616 -0.00164749 0)
(0.109464 -0.00230276 0)
(0.110877 -0.00297898 0)
(0.11564 -0.000847592 0)
(0.115044 -0.000532118 0)
(0.114902 -0.00029719 0)
(0.114861 -0.000138421 0)
(0.114843 -1.1643e-05 0)
(0.114837 8.55899e-05 0)
(0.114822 0.000157981 0)
(0.114781 0.000210315 0)
(0.114702 0.000246455 0)
(0.114578 0.000269617 0)
(0.114402 0.000282413 0)
(0.114173 0.000287014 0)
(0.113894 0.000285263 0)
(0.11357 0.000278736 0)
(0.113212 0.000268774 0)
(0.112829 0.000256486 0)
(0.112435 0.000242759 0)
(0.112037 0.000228268 0)
(0.111645 0.000213498 0)
(0.111264 0.000198775 0)
(0.110898 0.000184298 0)
(0.11055 0.000170172 0)
(0.110222 0.00015644 0)
(0.109913 0.0001431 0)
(0.109624 0.000130119 0)
(0.109354 0.000117449 0)
(0.109102 0.000105022 0)
(0.108869 9.27571e-05 0)
(0.108652 8.05584e-05 0)
(0.108451 6.83104e-05 0)
(0.108266 5.58791e-05 0)
(0.108096 4.31484e-05 0)
(0.107941 3.0046e-05 0)
(0.107799 1.64349e-05 0)
(0.107671 2.07985e-06 0)
(0.107556 -1.3231e-05 0)
(0.107456 -2.9713e-05 0)
(0.107372 -4.76635e-05 0)
(0.107304 -6.74734e-05 0)
(0.107254 -8.96245e-05 0)
(0.107222 -0.000114691 0)
(0.107211 -0.000143362 0)
(0.107224 -0.000176486 0)
(0.107262 -0.000215121 0)
(0.107332 -0.000260616 0)
(0.107436 -0.000314716 0)
(0.107581 -0.000379749 0)
(0.107776 -0.000458838 0)
(0.108028 -0.000556533 0)
(0.108352 -0.00067905 0)
(0.108759 -0.000837422 0)
(0.109277 -0.0010448 0)
(0.109904 -0.00133811 0)
(0.110729 -0.00173216 0)
(0.111527 -0.00239756 0)
(0.112839 -0.00307503 0)
(0.116308 -0.000763968 0)
(0.115807 -0.000506433 0)
(0.115707 -0.000289544 0)
(0.115709 -0.000137649 0)
(0.115741 -1.41019e-05 0)
(0.115797 8.23731e-05 0)
(0.115856 0.000155511 0)
(0.115907 0.00020978 0)
(0.115941 0.000248853 0)
(0.115948 0.000275769 0)
(0.115924 0.000292967 0)
(0.115863 0.000302381 0)
(0.11576 0.000305551 0)
(0.115615 0.000303711 0)
(0.115427 0.000297877 0)
(0.115201 0.000288905 0)
(0.11494 0.000277541 0)
(0.114651 0.000264441 0)
(0.114343 0.000250167 0)
(0.114022 0.000235186 0)
(0.113697 0.000219866 0)
(0.113372 0.000204478 0)
(0.113053 0.00018921 0)
(0.112743 0.000174174 0)
(0.112445 0.000159425 0)
(0.11216 0.000144969 0)
(0.111889 0.000130779 0)
(0.111633 0.000116794 0)
(0.111392 0.00010293 0)
(0.111165 8.90738e-05 0)
(0.110954 7.50919e-05 0)
(0.110758 6.08622e-05 0)
(0.110576 4.63012e-05 0)
(0.110408 3.12753e-05 0)
(0.110254 1.55296e-05 0)
(0.110114 -1.23006e-06 0)
(0.10999 -1.92559e-05 0)
(0.10988 -3.88304e-05 0)
(0.109788 -6.03534e-05 0)
(0.109714 -8.43414e-05 0)
(0.109659 -0.000111412 0)
(0.109625 -0.000142304 0)
(0.109615 -0.000177922 0)
(0.109631 -0.000219393 0)
(0.109678 -0.000268153 0)
(0.10976 -0.00032605 0)
(0.109882 -0.000395547 0)
(0.110053 -0.000479937 0)
(0.110282 -0.000583992 0)
(0.110579 -0.0007142 0)
(0.110958 -0.000881936 0)
(0.111444 -0.00110058 0)
(0.112034 -0.0014071 0)
(0.11281 -0.00181463 0)
(0.113558 -0.00248839 0)
(0.114771 -0.00316736 0)
(0.116851 -0.000694889 0)
(0.116427 -0.000484523 0)
(0.116355 -0.000285542 0)
(0.116385 -0.000140749 0)
(0.116449 -2.09183e-05 0)
(0.11654 7.39412e-05 0)
(0.116642 0.000146755 0)
(0.116745 0.000201654 0)
(0.116842 0.000242115 0)
(0.116926 0.000271057 0)
(0.116992 0.000290848 0)
(0.117037 0.000303364 0)
(0.117057 0.00031007 0)
(0.117047 0.000312097 0)
(0.117005 0.000310306 0)
(0.11693 0.000305364 0)
(0.11682 0.000297805 0)
(0.116677 0.000288087 0)
(0.116503 0.000276616 0)
(0.116301 0.000263766 0)
(0.116076 0.000249878 0)
(0.115833 0.000235261 0)
(0.115577 0.000220175 0)
(0.115314 0.000204833 0)
(0.115048 0.000189393 0)
(0.114784 0.000173961 0)
(0.114523 0.000158594 0)
(0.114269 0.0001433 0)
(0.114024 0.000128046 0)
(0.113789 0.000112754 0)
(0.113565 9.73188e-05 0)
(0.113352 8.16297e-05 0)
(0.113153 6.56043e-05 0)
(0.112966 4.91121e-05 0)
(0.112792 3.19163e-05 0)
(0.112632 1.36875e-05 0)
(0.112486 -5.91543e-06 0)
(0.112355 -2.71934e-05 0)
(0.11224 -5.05287e-05 0)
(0.112144 -7.64554e-05 0)
(0.112067 -0.000105631 0)
(0.112011 -0.000138844 0)
(0.111978 -0.000177056 0)
(0.111972 -0.000221465 0)
(0.111997 -0.000273589 0)
(0.112056 -0.000335385 0)
(0.112156 -0.000409444 0)
(0.112303 -0.000499231 0)
(0.112506 -0.00060973 0)
(0.112777 -0.000747692 0)
(0.113128 -0.000924784 0)
(0.113581 -0.00115463 0)
(0.114133 -0.00147392 0)
(0.114857 -0.00189457 0)
(0.115555 -0.00257494 0)
(0.11667 -0.00325573 0)
(0.117346 -0.000637147 0)
(0.11698 -0.000465472 0)
(0.116926 -0.000283962 0)
(0.116973 -0.000146446 0)
(0.117056 -3.06107e-05 0)