/*--------------------------------*- C++ -*----------------------------------*\
  =========                 |
  \\      /  F ield         | OpenFOAM: The Open Source CFD Toolbox
   \\    /   O peration     | Website:  https://openfoam.org
    \\  /    A nd           | Version:  6
     \\/     M anipulation  |
\*---------------------------------------------------------------------------*/
FoamFile
{
    version     2.0;
    format      ascii;
    class       surfaceScalarField;
    location    "0.004";
    object      phi;
}
// * * * * * * * * * * * * * * * * * * * * * * * * * * * * * * * * * * * * * //

dimensions      [0 3 -1 0 0 0 0];

internalField   nonuniform List<scalar> 
44700
(
-6.1831e-06
-6.03162e-08
-1.17227e-07
-5.95656e-06
-8.89784e-08
-1.37567e-07
-5.79675e-06
-8.00241e-08
-7.97804e-08
-5.69055e-06
-6.18027e-08
-4.43959e-08
-5.61848e-06
-4.53849e-08
-2.66911e-08
-5.56786e-06
-3.28944e-08
-1.77276e-08
-5.53103e-06
-2.42182e-08
-1.26062e-08
-5.50377e-06
-1.85877e-08
-8.6716e-09
-5.48383e-06
-1.4732e-08
-5.20766e-09
-5.46907e-06
-1.19354e-08
-2.82565e-09
-5.4576e-06
-1.01148e-08
-1.35564e-09
-5.44783e-06
-9.19819e-09
-5.70398e-10
-5.43912e-06
-8.95327e-09
2.42265e-10
-5.43157e-06
-8.63847e-09
1.08588e-09
-5.42639e-06
-7.04825e-09
1.87223e-09
-5.42302e-06
-5.46979e-09
2.09557e-09
-5.41775e-06
-6.03013e-09
7.57679e-10
-5.40899e-06
-8.59989e-09
-1.53288e-10
-5.39771e-06
-1.1165e-08
-1.21622e-10
-5.38446e-06
-1.3319e-08
7.66e-11
-5.36959e-06
-1.52831e-08
4.07167e-10
-5.35327e-06
-1.72262e-08
9.12526e-10
-5.33536e-06
-1.9463e-08
1.54981e-09
-5.31502e-06
-2.2521e-08
2.17908e-09
-5.29133e-06
-2.65583e-08
2.87245e-09
-5.26433e-06
-3.10778e-08
4.0758e-09
-5.23244e-06
-3.58632e-08
3.97598e-09
-5.19291e-06
-4.0854e-08
1.3228e-09
-5.14685e-06
-4.65731e-08
5.13104e-10
-5.09538e-06
-5.39769e-08
2.50444e-09
-5.03622e-06
-6.30435e-08
3.88641e-09
-4.96703e-06
-7.39264e-08
4.73244e-09
-4.88564e-06
-8.70315e-08
5.64382e-09
-4.78982e-06
-1.02498e-07
6.67262e-09
-4.67733e-06
-1.2055e-07
8.06171e-09
-4.54535e-06
-1.41841e-07
9.86647e-09
-4.39042e-06
-1.67192e-07
1.22548e-08
-4.2083e-06
-1.97602e-07
1.54878e-08
-3.99387e-06
-2.34387e-07
1.99582e-08
-3.74087e-06
-2.79316e-07
2.63109e-08
-3.44167e-06
-3.34827e-07
3.56282e-08
-3.08692e-06
-4.04397e-07
4.96425e-08
-2.66518e-06
-4.9302e-07
7.12814e-08
-2.162e-06
-6.08184e-07
1.0501e-07
-1.55926e-06
-7.61178e-07
1.58429e-07
-8.32605e-07
-9.69946e-07
2.43295e-07
4.92117e-08
-1.26215e-06
3.80336e-07
1.12393e-06
-1.68406e-06
6.09342e-07
2.40399e-06
-2.30924e-06
1.02917e-06
-3.4158e-06
1.69684e-06
4.12295e-06
-3.38003e-06
-5.54465e-08
-2.30564e-07
-3.09711e-06
-8.66949e-08
-2.85199e-07
-2.90088e-06
-8.93e-08
-1.86954e-07
-2.79899e-06
-7.39407e-08
-8.97543e-08
-2.74189e-06
-5.63945e-08
-4.60892e-08
-2.70531e-06
-4.22026e-08
-2.72684e-08
-2.67834e-06
-3.16093e-08
-1.95781e-08
-2.65604e-06
-2.42381e-08
-1.66504e-08
-2.6389e-06
-1.97193e-08
-1.21503e-08
-2.62682e-06
-1.71879e-08
-6.83483e-09
-2.61823e-06
-1.59512e-08
-2.75096e-09
-2.61048e-06
-1.56368e-08
-1.30923e-09
-2.60113e-06
-1.60971e-08
-2.21073e-09
-2.58868e-06
-1.7686e-08
-3.40088e-09
-2.57841e-06
-1.90811e-08
1.76217e-09
-2.5767e-06
-1.80217e-08
1.08445e-08
-2.57844e-06
-1.59349e-08
1.16416e-08
-2.57409e-06
-1.64913e-08
3.54616e-09
-2.56348e-06
-2.0219e-08
-1.55806e-09
-2.55019e-06
-2.49727e-08
-1.63871e-09
-2.53499e-06
-2.92845e-08
-1.1923e-09
-2.51878e-06
-3.3569e-08
1.24882e-10
-2.50161e-06
-3.85269e-08
1.90015e-09
-2.48172e-06
-4.50651e-08
2.65336e-09
-2.45705e-06
-5.39206e-08
2.68929e-09
-2.42906e-06
-6.347e-08
4.40399e-09
-2.39823e-06
-7.22565e-08
5.56387e-09
-2.35953e-06
-8.17801e-08
2.22716e-09
-2.31329e-06
-9.37967e-08
9.8351e-10
-2.26358e-06
-1.08819e-07
5.12788e-09
-2.20844e-06
-1.26899e-07
8.72112e-09
-2.14281e-06
-1.48029e-07
8.4723e-09
-2.06346e-06
-1.73032e-07
6.64938e-09
-1.96935e-06
-2.02895e-07
6.28155e-09
-1.8597e-06
-2.3819e-07
7.99658e-09
-1.73206e-06
-2.79849e-07
1.03648e-08
-1.5833e-06
-3.29181e-07
1.32301e-08
-1.40998e-06
-3.87884e-07
1.69633e-08
-1.20815e-06
-4.58091e-07
2.18688e-08
-9.73342e-07
-5.4254e-07
2.84211e-08
-7.00851e-07
-6.44885e-07
3.75667e-08
-3.85798e-07
-7.70025e-07
5.05754e-08
-2.38209e-08
-9.24566e-07
6.95685e-08
3.88246e-07
-1.11743e-06
9.71778e-08
8.49792e-07
-1.36124e-06
1.3852e-07
1.35766e-06
-1.67544e-06
1.97617e-07
1.89838e-06
-2.08569e-06
2.82821e-07
2.45442e-06
-2.6302e-06
3.90103e-07
2.9688e-06
-3.36327e-06
5.39652e-07
-4.37097e-06
7.32288e-07
3.19169e-06
-1.51709e-06
-3.62984e-08
-2.96375e-07
-1.17897e-06
-5.89887e-08
-3.65818e-07
-9.43364e-07
-6.44095e-08
-2.60501e-07
-8.33432e-07
-5.66197e-08
-1.27253e-07
-7.84868e-07
-4.5954e-08
-5.9004e-08
-7.60836e-07
-3.65609e-08
-2.96739e-08
-7.45644e-07
-2.90969e-08
-1.77042e-08
-7.3427e-07
-2.35786e-08
-1.20338e-08
-7.25131e-07
-1.99503e-08
-8.90693e-09
-7.1815e-07
-1.80593e-08
-6.10991e-09
-7.13245e-07
-1.76635e-08
-3.19316e-09
-7.09037e-07
-1.81707e-08
-1.67403e-09
-7.03157e-07
-1.91502e-08
-2.82661e-09
-6.93405e-07
-2.08463e-08
-6.59162e-09
-6.80094e-07
-2.43038e-08
-8.0881e-09
-6.69586e-07
-2.89074e-08
3.78206e-10
-6.6915e-07
-3.15503e-08
1.51789e-08
-6.73564e-07
-3.01827e-08
1.81054e-08
-6.70517e-07
-2.9725e-08
6.45875e-09
-6.59023e-07
-3.32506e-08
-3.21525e-09
-6.46541e-07
-3.88409e-08
-2.92575e-09
-6.34538e-07
-4.49697e-08
-6.02603e-10
-6.21141e-07
-5.33013e-08
1.37726e-09
-6.05686e-07
-6.3367e-08
2.8471e-09
-5.88204e-07
-7.32338e-08
1.83067e-09
-5.68016e-07
-8.38591e-08
2.01742e-10
-5.43555e-07
-9.71332e-08
4.15498e-10
-5.13525e-07
-1.1349e-07
1.67949e-09
-4.78687e-07
-1.31543e-07
2.90838e-09
-4.39394e-07
-1.52315e-07
4.20326e-09
-3.94984e-07
-1.77307e-07
5.99791e-09
-3.44434e-07
-2.06368e-07
7.78853e-09
-2.8479e-07
-2.41112e-07
8.43554e-09
-2.13958e-07
-2.8226e-07
8.5329e-09
-1.31217e-07
-3.30195e-07
9.26391e-09
-3.56988e-08
-3.86165e-07
1.0798e-08
7.39968e-08
-4.51829e-07
1.29525e-08
1.99478e-07
-5.2907e-07
1.57045e-08
3.42111e-07
-6.20016e-07
1.9293e-08
5.03218e-07
-7.27637e-07
2.39898e-08
6.83485e-07
-8.55352e-07
3.01999e-08
8.82534e-07
-1.00745e-06
3.83764e-08
1.09794e-06
-1.18937e-06
4.94013e-08
1.32539e-06
-1.40817e-06
6.32891e-08
1.55557e-06
-1.67307e-06
8.16487e-08
1.77266e-06
-1.9954e-06
1.0287e-07
1.95015e-06
-2.39144e-06
1.28261e-07
2.04964e-06
-2.88187e-06
1.52177e-07
1.99537e-06
-3.49255e-06
1.83551e-07
-4.22611e-06
1.66588e-07
1.68392e-06
-6.10425e-07
-1.75135e-08
-3.33198e-07
-2.29246e-07
-2.90481e-08
-4.1112e-07
4.14357e-08
-3.28023e-08
-3.02289e-07
1.62475e-07
-3.02902e-08
-1.47368e-07
2.08021e-07
-2.65254e-08
-6.49752e-08
2.25021e-07
-2.30181e-08
-3.05427e-08
2.32471e-07
-1.98693e-08
-1.66777e-08
2.36187e-07
-1.74353e-08
-9.85861e-09
2.38427e-07
-1.59484e-08
-6.24225e-09
2.39793e-07
-1.53422e-08
-4.08258e-09
2.40899e-07
-1.54165e-08
-3.35311e-09
2.42648e-07
-1.61374e-08
-3.78275e-09
2.44738e-07
-1.75302e-08
-3.70968e-09
2.4768e-07
-1.96788e-08
-4.10958e-09
2.51972e-07
-2.27425e-08
-5.85355e-09
2.57894e-07
-2.68147e-08
-8.01376e-09
2.67546e-07
-3.21209e-08
-9.08152e-09
2.7733e-07
-3.84042e-08
-1.56265e-09
2.79845e-07
-4.41164e-08
1.18769e-08
2.79001e-07
-4.73765e-08
1.49694e-08
2.84322e-07
-4.8901e-08
4.73907e-09
2.90804e-07
-5.19229e-08
4.71067e-10
2.96291e-07
-5.97894e-08
1.00132e-09
3.05195e-07
-7.16857e-08
-5.85555e-10
3.18542e-07
-8.47545e-08
-1.82559e-09
3.36809e-07
-9.8755e-08
-3.37169e-09
3.58658e-07
-1.14915e-07
-4.06688e-09
3.80488e-07
-1.33637e-07
-1.68272e-09
4.00398e-07
-1.54775e-07
3.32165e-09
4.21637e-07
-1.78557e-07
5.00283e-09
4.45962e-07
-2.0681e-07
5.17822e-09
4.70566e-07
-2.42696e-07
1.17245e-08
5.00398e-07
-2.85005e-07
1.40616e-08
5.40488e-07
-3.31161e-07
8.81102e-09
5.88863e-07
-3.84234e-07
5.66409e-09
6.4328e-07
-4.46789e-07
6.20648e-09
7.03985e-07
-5.20009e-07
7.47388e-09
7.71621e-07
-6.05325e-07
8.61928e-09
8.4629e-07
-7.04642e-07
9.95786e-09
9.27179e-07
-8.20086e-07
1.15593e-08
1.01264e-06
-9.54248e-07
1.34317e-08
1.09998e-06
-1.11013e-06
1.53433e-08
1.18433e-06
-1.29121e-06
1.74924e-08
1.25822e-06
-1.50183e-06
1.97628e-08
1.31072e-06
-1.74686e-06
2.12879e-08
1.32726e-06
-2.03036e-06
1.8418e-08
1.28584e-06
-2.35939e-06
9.37806e-09
1.15742e-06
-2.73999e-06
-1.34553e-08
9.11773e-07
-3.17531e-06
-7.16023e-08
-3.64979e-06
-1.61465e-07
4.96926e-07
-2.46761e-07
5.466e-10
-3.50969e-07
1.56504e-07
5.24018e-10
-4.32837e-07
4.45239e-07
-2.48939e-10
-3.21289e-07
5.72389e-07
-2.57026e-09
-1.54869e-07
6.17662e-07
-5.60396e-09
-6.61951e-08
6.32957e-07
-7.74707e-09
-3.05651e-08
6.37987e-07
-8.7728e-09
-1.61269e-08
6.38778e-07
-9.36238e-09
-8.86397e-09
6.37839e-07
-9.98864e-09
-5.02037e-09
6.36484e-07
-1.08881e-08
-3.09934e-09
6.35277e-07
-1.20756e-08
-2.13328e-09
6.34385e-07
-1.35744e-08
-1.67076e-09
6.33708e-07
-1.54636e-08
-1.38968e-09
6.33361e-07
-1.77633e-08
-1.56815e-09
6.33387e-07
-2.05591e-08
-2.20957e-09
6.33789e-07
-2.39699e-08
-3.24658e-09
6.34308e-07
-2.81987e-08
-4.4414e-09
6.35865e-07
-3.27804e-08
-7.18131e-09
6.42258e-07
-3.73647e-08
-1.31447e-08
6.54537e-07
-4.33427e-08
-1.63128e-08
6.66479e-07
-5.2704e-08
-8.13868e-09
6.69988e-07
-6.46554e-08
9.22352e-09
6.62708e-07
-7.55514e-08
2.30422e-08
6.56892e-07
-8.36864e-08
1.78168e-08
6.60488e-07
-9.15588e-08
3.2087e-09
6.68037e-07
-1.01939e-07
-4.36494e-09
6.77029e-07
-1.16396e-07
-7.51146e-09
6.86082e-07
-1.35739e-07
-6.95005e-09
6.93828e-07
-1.58835e-07
-3.68642e-09
6.99919e-07
-1.86418e-07
1.76948e-09
7.01922e-07
-2.18017e-07
9.20417e-09
7.01687e-07
-2.53984e-07
1.15225e-08
7.08252e-07
-2.95482e-07
3.91185e-09
7.17837e-07
-3.42906e-07
2.15958e-09
7.27332e-07
-3.97677e-07
3.94742e-09
7.3811e-07
-4.61258e-07
3.69094e-09
7.49821e-07
-5.34784e-07
3.06476e-09
7.61335e-07
-6.19521e-07
2.68217e-09
7.71262e-07
-7.17119e-07
2.54984e-09
7.77784e-07
-8.29003e-07
2.39522e-09
7.78501e-07
-9.56982e-07
2.01796e-09
7.70244e-07
-1.10276e-06
8.91651e-10
7.48445e-07
-1.26791e-06
-1.50024e-09
7.07172e-07
-1.45374e-06
-6.81317e-09
6.37426e-07
-1.66093e-06
-1.61831e-08
5.29072e-07
-1.88932e-06
-3.26912e-08
3.67815e-07
-2.13743e-06
-6.07091e-08
1.3646e-07
-2.40181e-06
-1.06821e-07
-1.78561e-07
-2.67593e-06
-1.84358e-07
-2.95015e-06
-2.83134e-07
-5.95068e-07
-2.46623e-07
1.84594e-08
-3.49609e-07
1.55183e-07
2.9898e-08
-4.3118e-07
4.40847e-07
3.22885e-08
-3.18201e-07
5.65742e-07
2.55381e-08
-1.53003e-07
6.12e-07
1.59283e-08
-6.77898e-08
6.29808e-07
8.28014e-09
-3.38355e-08
6.35982e-07
3.28569e-09
-1.82322e-08
6.36517e-07
-1.39529e-10
-9.75839e-09
6.34703e-07
-2.85287e-09
-5.32093e-09
6.32111e-07
-5.24612e-09
-3.04995e-09
6.2939e-07
-7.51061e-09
-1.84431e-09
6.2687e-07
-9.78768e-09
-1.26695e-09
6.2461e-07
-1.21817e-08
-1.02181e-09
6.22623e-07
-1.47703e-08
-1.00561e-09
6.20911e-07
-1.764e-08
-1.2073e-09
6.19439e-07
-2.08926e-08
-1.60497e-09
6.1794e-07
-2.46522e-08
-2.04726e-09
6.16507e-07
-2.89223e-08
-2.4255e-09
6.15466e-07
-3.38412e-08
-2.48231e-09
6.1511e-07
-3.98707e-08
-3.11543e-09
6.13704e-07
-4.7491e-08
-3.80691e-09
6.1047e-07
-5.58901e-08
-5.53157e-09
6.06956e-07
-6.36426e-08
-8.39529e-09
6.03935e-07
-7.2036e-08
-8.62948e-09
6.01226e-07
-8.33745e-08
-5.47453e-09
5.97027e-07
-9.76478e-08
-9.25263e-11
5.91835e-07
-1.13293e-07
2.08851e-09
5.8586e-07
-1.31553e-07
1.78873e-09
5.78423e-07
-1.53462e-07
2.06453e-09
5.67941e-07
-1.80178e-07
4.24227e-09
5.51212e-07
-2.102e-07
8.9126e-09
5.29972e-07
-2.41754e-07
9.01034e-09
5.12394e-07
-2.78022e-07
1.17291e-10
4.92102e-07
-3.22117e-07
-4.97894e-10
4.65763e-07
-3.73239e-07
1.90224e-09
4.35797e-07
-4.31643e-07
3.50879e-10
4.0149e-07
-4.98704e-07
-1.77368e-09
3.60872e-07
-5.75658e-07
-3.24534e-09
3.11909e-07
-6.6372e-07
-4.43531e-09
2.52753e-07
-7.6408e-07
-5.76668e-09
1.8111e-07
-8.77866e-07
-7.47301e-09
9.43481e-08
-1.00599e-06
-1.00114e-08
-1.08835e-08
-1.14892e-06
-1.37655e-08
-1.38352e-07
-1.30639e-06
-1.9884e-08
-2.92993e-07
-1.47676e-06
-2.95274e-08
-4.79952e-07
-1.65653e-06
-4.58239e-08
-7.06398e-07
-1.83887e-06
-7.21158e-08
-9.80333e-07
-2.01357e-06
-1.14306e-07
-1.30674e-06
-2.16635e-06
-1.83176e-07
-2.29479e-06
-2.70006e-07
-1.69209e-06
-6.10014e-07
3.61288e-08
-3.28256e-07
-2.33532e-07
5.80679e-08
-4.04652e-07
2.83715e-08
6.22218e-08
-2.91836e-07
1.42704e-07
5.17977e-08
-1.40592e-07
1.91248e-07
3.7741e-08
-7.03566e-08
2.15829e-07
2.60631e-08
-4.23632e-08
2.2691e-07
1.73995e-08
-2.51947e-08
2.29746e-07
1.07619e-08
-1.3738e-08
2.28739e-07
5.57659e-09
-7.42261e-09
2.26235e-07
1.41886e-09
-4.16039e-09
2.23226e-07
-2.05198e-09
-2.44988e-09
2.2009e-07
-5.09554e-09
-1.55544e-09
2.16927e-07
-7.91651e-09
-1.10247e-09
2.13725e-07
-1.06617e-08
-9.06468e-10
2.10416e-07
-1.34497e-08
-8.8127e-10
2.06902e-07
-1.6394e-08
-9.84906e-10
2.03031e-07
-1.96021e-08
-1.17839e-09
1.98779e-07
-2.31586e-08
-1.51193e-09
1.94288e-07
-2.7174e-08
-2.17595e-09
1.89564e-07
-3.18172e-08
-3.3297e-09
1.8461e-07
-3.72054e-08
-5.33203e-09
1.79981e-07
-4.33524e-08
-7.90884e-09
1.73897e-07
-5.0668e-08
-6.89022e-09
1.63209e-07
-5.98862e-08
-1.46214e-09
1.48926e-07
-7.10329e-08
1.94156e-09
1.34593e-07
-8.37872e-08
4.7294e-10
1.20145e-07
-9.76882e-08
-1.15654e-09
9.85179e-08
-1.13415e-07
3.48881e-09
7.01307e-08
-1.31671e-07
6.59611e-09
4.2365e-08
-1.52302e-07
-1.09786e-10
1.17995e-08
-1.75885e-07
-3.74992e-09
-2.65268e-08
-2.02801e-07
-6.27192e-10
-6.94647e-08
-2.33742e-07
-1.34118e-09
-1.17357e-07
-2.69985e-07
-4.23966e-09
-1.7376e-07
-3.12138e-07
-4.69827e-09
-2.39542e-07
-3.60513e-07
-5.34689e-09
-3.15135e-07
-4.15965e-07
-7.14616e-09
-4.02468e-07
-4.79583e-07
-8.74188e-09
-5.03638e-07
-5.52418e-07
-1.01317e-08
-6.20622e-07
-6.35481e-07
-1.16157e-08
-7.55554e-07
-7.29741e-07
-1.31938e-08
-9.10563e-07
-8.36001e-07
-1.49782e-08
-1.08796e-06
-9.54703e-07
-1.682e-08
-1.28961e-06
-1.08561e-06
-1.91278e-08
-1.51745e-06
-1.22718e-06
-2.1741e-08
-1.77172e-06
-1.37585e-06
-2.64075e-08
-2.05295e-06
-1.52414e-06
-3.35079e-08
-2.35884e-06
-1.65972e-06
-4.79561e-08
-2.68327e-06
-1.76587e-06
-7.60461e-08
-1.84255e-06
-1.26921e-07
-3.00859e-06
-1.51688e-06
5.31845e-08
-2.88975e-07
-1.18553e-06
8.17081e-08
-3.54995e-07
-9.59903e-07
8.2099e-08
-2.45502e-07
-8.57992e-07
6.70799e-08
-1.17194e-07
-8.06183e-07
5.19128e-08
-6.59804e-08
-7.73418e-07
3.92634e-08
-4.59654e-08
-7.55158e-07
2.83999e-08
-2.92601e-08
-7.47211e-07
1.93487e-08
-1.65344e-08
-7.44655e-07
1.22862e-08
-9.26548e-09
-7.44726e-07
6.85846e-09
-5.36791e-09
-7.46195e-07
2.64152e-09
-3.2243e-09
-7.48504e-07
-7.43821e-10
-2.04287e-09
-7.51405e-07
-3.61211e-09
-1.404e-09
-7.54831e-07
-6.16207e-09
-1.07366e-09
-7.58808e-07
-8.54395e-09
-9.28716e-10
-7.63399e-07
-1.08951e-08
-9.0726e-10
-7.68689e-07
-1.33366e-08
-9.75376e-10
-7.74754e-07
-1.59697e-08
-1.12473e-09
-7.81677e-07
-1.88936e-08
-1.35734e-09
-7.89623e-07
-2.22163e-08
-1.6546e-09
-7.98805e-07
-2.60428e-08
-1.98041e-09
-8.09459e-07
-3.04994e-08
-2.19899e-09
-8.22366e-07
-3.57829e-08
-1.97866e-09
-8.38784e-07
-4.19589e-08
-1.50875e-09
-8.58854e-07
-4.92042e-08
-1.75888e-09
-8.81946e-07
-5.8155e-08
-2.53995e-09
-9.08378e-07
-6.86392e-08
-2.61658e-09
-9.39526e-07
-8.01794e-08
-2.08833e-09
-9.75221e-07
-9.34138e-08
-2.56173e-09
-1.01489e-06
-1.08616e-07
-4.01517e-09
-1.06148e-06
-1.25293e-07
-4.00723e-09
-1.11666e-06
-1.44229e-07
-3.3928e-09
-1.17951e-06
-1.65991e-07
-4.89664e-09
-1.25124e-06
-1.9126e-07
-6.99319e-09
-1.33442e-06
-2.20756e-07
-8.20675e-09
-1.43064e-06
-2.54902e-07
-9.38587e-09
-1.54151e-06
-2.94253e-07
-1.08487e-08
-1.66913e-06
-3.39573e-07
-1.2386e-08
-1.81593e-06
-3.91755e-07
-1.38638e-08
-1.98447e-06
-4.51777e-07
-1.51648e-08
-2.17756e-06
-5.20713e-07
-1.59369e-08
-2.39807e-06
-5.99693e-07
-1.57935e-08
-2.64916e-06
-6.89861e-07
-1.37612e-08
-2.93357e-06
-7.92164e-07
-9.03235e-09
-3.2544e-06
-9.07103e-07
7.57336e-10
-3.6127e-06
-1.03395e-06
1.64026e-08
-4.00877e-06
-1.16953e-06
4.14653e-08
-4.43302e-06
-1.31105e-06
7.55721e-08
-4.83827e-06
-1.49653e-06
1.35914e-07
-1.84942e-06
1.79591e-07
-5.01099e-06
-3.39204e-06
5.80033e-08
-2.24649e-07
-3.11721e-06
8.53582e-08
-2.7848e-07
-2.92851e-06
7.65937e-08
-1.83202e-07
-2.8272e-06
6.01143e-08
-9.43438e-08
-2.76456e-06
4.58719e-08
-5.65957e-08
-2.72346e-06
3.35565e-08
-3.53947e-08
-2.6977e-06
2.32907e-08
-2.0653e-08
-2.68193e-06
1.55522e-08
-1.19658e-08
-2.67262e-06
9.98469e-09
-7.01099e-09
-2.66759e-06
6.03873e-09
-4.21076e-09
-2.66544e-06
3.1327e-09
-2.64483e-09
-2.66528e-06
9.09841e-10
-1.80551e-09
-2.66667e-06
-8.84591e-10
-1.34428e-09
-2.66938e-06
-2.38157e-09
-1.07071e-09
-2.67327e-06
-3.7359e-09
-9.15004e-10
-2.67829e-06
-5.02115e-09
-8.51895e-10
-2.68446e-06
-6.3125e-09
-8.58863e-10
-2.69183e-06
-7.67104e-09
-9.22929e-10
-2.70053e-06
-9.15222e-09
-1.04122e-09
-2.71072e-06
-1.08118e-08
-1.21675e-09
-2.7226e-06
-1.27089e-08
-1.45695e-09
-2.73646e-06
-1.49149e-08
-1.72443e-09
-2.75272e-06
-1.75071e-08
-2.01151e-09
-2.77199e-06
-2.05763e-08
-2.1196e-09
-2.79674e-06
-2.39628e-08
-4.87319e-10
-2.82699e-06
-2.77721e-08
-1.344e-10
-2.85931e-06
-3.27412e-08
-3.57494e-09
-2.89586e-06
-3.92569e-08
-4.36941e-09
-2.93925e-06
-4.60734e-08
-3.95316e-09
-2.98899e-06
-5.31133e-08
-5.76235e-09
-3.04724e-06
-6.13279e-08
-5.72178e-09
-3.11589e-06
-7.06882e-08
-4.8863e-09
-3.19473e-06
-8.12669e-08
-5.88591e-09
-3.28514e-06
-9.35654e-08
-7.2832e-09
-3.3893e-06
-1.07844e-07
-8.7514e-09
-3.5092e-06
-1.24396e-07
-1.06105e-08
-3.64749e-06
-1.43621e-07
-1.23394e-08
-3.8073e-06
-1.65987e-07
-1.3774e-08
-3.99205e-06
-1.92038e-07
-1.49675e-08
-4.20571e-06
-2.22441e-07
-1.56782e-08
-4.45311e-06
-2.58027e-07
-1.52824e-08
-4.74015e-06
-2.99761e-07
-1.28953e-08
-5.0745e-06
-3.48731e-07
-6.77739e-09
-5.46629e-06
-4.05814e-07
5.44284e-09
-5.93021e-06
-4.71343e-07
2.81544e-08
-6.48497e-06
-5.44462e-07
6.52732e-08
-7.15627e-06
-6.22082e-07
1.23844e-07
-7.97066e-06
-7.02798e-07
2.06145e-07
-8.84453e-06
-9.60814e-07
3.38148e-07
-2.47223e-06
4.99604e-07
-8.72132e-06
-6.20442e-06
-1.1579e-07
-5.9821e-06
-1.36966e-07
-5.82425e-06
-8.12499e-08
-5.71761e-06
-4.65321e-08
-5.64394e-06
-2.77931e-08
-5.59265e-06
-1.77321e-08
-5.55744e-06
-1.19188e-08
-5.53425e-06
-7.64442e-09
-5.51971e-06
-4.55592e-09
-5.51079e-06
-2.87387e-09
-5.50565e-06
-2.0153e-09
-5.50341e-06
-1.32878e-09
-5.50335e-06
-9.43312e-10
-5.50498e-06
-7.48916e-10
-5.50812e-06
-6.00228e-10
-5.5126e-06
-5.3473e-10
-5.51839e-06
-5.26769e-10
-5.5255e-06
-5.56989e-10
-5.53404e-06
-6.16444e-10
-5.54415e-06
-6.96842e-10
-5.55608e-06
-7.80169e-10
-5.57017e-06
-8.22111e-10
-5.58692e-06
-7.62595e-10
-5.60699e-06
-5.08938e-10
-5.63108e-06
1.27647e-10
-5.65972e-06
8.66853e-10
-5.69184e-06
-6.13816e-10
-5.7278e-06
-3.30213e-09
-5.76936e-06
-4.50827e-09
-5.8174e-06
-5.07225e-09
-5.87474e-06
-3.992e-09
-5.9422e-06
-3.22357e-09
-6.0196e-06
-3.86715e-09
-6.10859e-06
-4.57723e-09
-6.21115e-06
-5.28731e-09
-6.32958e-06
-5.96961e-09
-6.46663e-06
-6.56377e-09
-6.62567e-06
-6.95199e-09
-6.81074e-06
-6.96445e-09
-7.02691e-06
-6.27632e-09
-7.28065e-06
-4.27922e-09
-7.58046e-06
4.67662e-11
-7.93757e-06
8.38152e-09
-8.36651e-06
2.31199e-08
-8.88601e-06
4.81563e-08
-9.51927e-06
8.88054e-08
-1.02878e-05
1.4647e-07
-1.11876e-05
1.9695e-07
-1.24183e-05
2.69947e-07
6.54635e-07
-1.55452e-05
-4.37126e-06
-1.04859e-07
-1.50091e-07
-4.16702e-06
-1.49001e-07
-1.92805e-07
-3.98541e-06
-1.30087e-07
-1.31306e-07
-3.86083e-06
-9.52317e-08
-7.37441e-08
-3.77658e-06
-6.74229e-08
-4.35101e-08
-3.7164e-06
-4.77431e-08
-3.01692e-08
-3.67103e-06
-3.44646e-08
-2.35072e-08
-3.63611e-06
-2.62902e-08
-1.73059e-08
-3.60966e-06
-2.07509e-08
-1.09066e-08
-3.58979e-06
-1.67567e-08
-5.93963e-09
-3.57454e-06
-1.41091e-08
-2.49608e-09
-3.56134e-06
-1.28741e-08
-8.95436e-10
-3.54716e-06
-1.30107e-08
-9.26778e-10
-3.53295e-06
-1.32655e-08
1.44458e-10
-3.52402e-06
-1.04852e-08
3.42513e-09
-3.52102e-06
-6.13353e-09
5.23026e-09
-3.51786e-06
-5.63808e-09
3.23708e-09
-3.50899e-06
-9.79634e-09
7.70182e-10
-3.49453e-06
-1.46537e-08
7.56747e-11
-3.4764e-06
-1.81265e-08
7.18513e-11
-3.45552e-06
-2.08931e-08
4.20462e-10
-3.43257e-06
-2.34233e-08
1.38754e-09
-3.40737e-06
-2.61425e-08
2.48988e-09
-3.3786e-06
-2.98784e-08
3.28673e-09
-3.3447e-06
-3.54204e-08
4.38813e-09
-3.3038e-06
-4.22768e-08
5.45628e-09
-3.25643e-06
-4.90972e-08
5.70418e-09
-3.20301e-06
-5.56337e-08
3.53934e-09
-3.14081e-06
-6.28625e-08
1.17172e-09
-3.07084e-06
-7.18674e-08
4.40059e-09
-2.9913e-06
-8.37698e-08
8.12018e-09
-2.89613e-06
-9.84422e-08
7.9987e-09
-2.7824e-06
-1.1624e-07
8.16246e-09
-2.64826e-06
-1.37251e-07
9.78046e-09
-2.49074e-06
-1.61599e-07
1.21438e-08
-2.30581e-06
-1.90221e-07
1.51587e-08
-2.08844e-06
-2.24254e-07
1.91382e-08
-1.83244e-06
-2.65058e-07
2.45436e-08
-1.53008e-06
-3.14429e-07
3.20209e-08
-1.17162e-06
-3.74815e-07
4.26681e-08
-7.44705e-07
-4.49611e-07
5.83255e-08
-2.33162e-07
-5.43791e-07
8.18902e-08
3.84512e-07
-6.64641e-07
1.18249e-07
1.13774e-06
-8.23474e-07
1.75256e-07
2.06766e-06
-1.03756e-06
2.66069e-07
3.2358e-06
-1.33578e-06
4.1093e-07
4.73363e-06
-1.76355e-06
6.46063e-07
6.71254e-06
-2.40388e-06
1.03431e-06
9.38115e-06
-3.37451e-06
1.73507e-06
-5.20717e-06
2.94453e-06
1.33406e-05
5.16305e-06
-9.25317e-08
-3.01509e-07
5.25785e-06
-1.3841e-07
-3.9059e-07
5.39244e-06
-1.44179e-07
-3.07451e-07
5.48143e-06
-1.16964e-07
-1.57011e-07
5.52652e-06
-8.60149e-08
-7.25897e-08
5.55583e-06
-6.2967e-08
-4.13486e-08
5.58199e-06
-4.62447e-08
-3.39597e-08
5.6073e-06
-3.44772e-08
-3.37737e-08
5.62978e-06
-2.76738e-08
-2.77072e-08
5.64646e-06
-2.40984e-08
-1.61741e-08
5.65733e-06
-2.23848e-08
-5.34454e-09
5.66602e-06
-2.19073e-08
-9.71075e-10
5.67665e-06
-2.25587e-08
-3.28894e-09
5.69353e-06
-2.51001e-08
-8.44536e-09
5.7165e-06
-2.83057e-08
-3.38886e-09
5.73327e-06
-2.6874e-08
1.48115e-08
5.73366e-06
-2.12936e-08
2.69079e-08
5.73178e-06
-1.93247e-08
1.49619e-08
5.73975e-06
-2.4813e-08
6.26612e-10
5.7545e-06
-3.21408e-08
-2.37277e-09
5.77341e-06
-3.84939e-08
-2.50367e-09
5.7951e-06
-4.4615e-08
-3.68062e-10
5.81867e-06
-5.09503e-08
3.13454e-09
5.84655e-06
-5.93527e-08
4.24542e-09
5.8821e-06
-7.13672e-08
3.0874e-09
5.92816e-06
-8.60688e-08
2.13459e-09
5.97826e-06
-9.89859e-08
5.35533e-09
6.02797e-06
-1.09908e-07
6.78872e-09
6.08506e-06
-1.2395e-07
4.98493e-09
6.15098e-06
-1.43771e-07
1.11125e-08
6.22419e-06
-1.6831e-07
2.00427e-08
6.31248e-06
-1.96066e-07
1.78066e-08
6.42248e-06
-2.292e-07
9.608e-09
6.55385e-06
-2.69294e-07
6.95662e-09
6.70681e-06
-3.16692e-07
1.01305e-08
6.88474e-06
-3.72362e-07
1.45766e-08
7.09236e-06
-4.38197e-07
1.95555e-08
7.33488e-06
-5.16567e-07
2.5953e-08
7.61843e-06
-6.10387e-07
3.42747e-08
7.95026e-06
-7.23525e-07
4.52946e-08
8.33867e-06
-8.61203e-07
6.07564e-08
8.79303e-06
-1.03065e-06
8.30658e-08
9.32373e-06
-1.24197e-06
1.16203e-07
9.94236e-06
-1.50981e-06
1.64884e-07
1.06602e-05
-1.85506e-06
2.38158e-07
1.14874e-05
-2.30955e-06
3.44172e-07
1.24236e-05
-2.9197e-06
5.02761e-07
1.34483e-05
-3.75726e-06
7.18846e-07
1.45111e-05
-4.93048e-06
1.03281e-06
-6.65361e-06
1.46131e-06
1.52285e-05
1.08159e-05
-5.83257e-08
-3.70503e-07
1.08795e-05
-8.87426e-08
-4.79113e-07
1.09869e-05
-1.00131e-07
-4.1198e-07
1.10637e-05
-8.75196e-08
-2.33442e-07
1.1094e-05
-6.94402e-08
-1.0588e-07
1.11073e-05
-5.44726e-08
-5.1508e-08
1.11183e-05
-4.27954e-08
-3.21543e-08
1.11296e-05
-3.39346e-08
-2.38642e-08
1.11411e-05
-2.81071e-08
-1.99304e-08
1.11505e-05
-2.507e-08
-1.46002e-08
1.11562e-05
-2.4388e-08
-6.82374e-09
1.11589e-05
-2.50987e-08
-1.2559e-09
1.11627e-05
-2.6031e-08
-3.13418e-09
1.11717e-05
-2.75857e-08
-1.30761e-08
1.1189e-05
-3.27941e-08
-2.08525e-08
1.12126e-05
-4.14231e-08
-8.76381e-09
1.12343e-05
-4.77977e-08
2.00409e-08
1.12358e-05
-4.3786e-08
4.10786e-08
1.12311e-05
-3.80371e-08
2.44058e-08
1.12378e-05
-4.20896e-08
-3.20761e-11
1.12518e-05
-5.10746e-08
-4.32675e-09
1.12653e-05
-5.80948e-08
-6.64022e-10
1.12828e-05
-6.69278e-08
-9.57263e-11
1.13115e-05
-8.20305e-08
-3.15653e-09
1.13429e-05
-9.74097e-08
-3.60242e-09
1.13665e-05
-1.12008e-07
2.58191e-09
1.13914e-05
-1.29814e-07
6.33715e-09
1.14274e-05
-1.49849e-07
5.62534e-09
1.1475e-05
-1.72857e-07
4.19428e-09
1.15296e-05
-2.00335e-07
6.20555e-09
1.15892e-05
-2.32699e-07
1.07439e-08
1.16578e-05
-2.70342e-07
1.34625e-08
1.17397e-05
-3.16594e-07
1.4013e-08
1.18376e-05
-3.72061e-07
1.33189e-08
1.19525e-05
-4.35777e-07
1.3432e-08
1.20854e-05
-5.09863e-07
1.54375e-08
1.22381e-05
-5.96917e-07
1.89987e-08
1.24131e-05
-6.99535e-07
2.36264e-08
1.26132e-05
-8.20748e-07
2.96009e-08
1.28407e-05
-9.64472e-07
3.74636e-08
1.30972e-05
-1.1357e-06
4.81177e-08
1.33832e-05
-1.34086e-06
6.26138e-08
1.36959e-05
-1.58838e-06
8.31241e-08
1.40272e-05
-1.88934e-06
1.11462e-07
1.43619e-05
-2.25992e-06
1.51881e-07
1.46736e-05
-2.72183e-06
2.03382e-07
1.49186e-05
-3.30721e-06
2.70798e-07
1.50331e-05
-4.06057e-06
3.40988e-07
1.48948e-05
-5.0535e-06
4.44881e-07
-6.3649e-06
5.48023e-07
1.42247e-05
1.36161e-05
-2.74704e-08
-4.09174e-07
1.36864e-05
-4.20667e-08
-5.28089e-07
1.38043e-05
-4.87025e-08
-4.71696e-07
1.38889e-05
-4.45359e-08
-2.74959e-07
1.39137e-05
-3.87824e-08
-1.20395e-07
1.39168e-05
-3.40367e-08
-5.41093e-08
1.39169e-05
-2.94027e-08
-3.0112e-08
1.3917e-05
-2.53945e-08
-1.85324e-08
1.39175e-05
-2.26247e-08
-1.21973e-08
1.39177e-05
-2.13574e-08
-7.99779e-09
1.39179e-05
-2.12705e-08
-6.72568e-09
1.3919e-05
-2.18563e-08
-8.13789e-09
1.39208e-05
-2.33416e-08
-8.11721e-09
1.39225e-05
-2.56237e-08
-7.76888e-09
1.3924e-05
-2.90719e-08
-1.11002e-08
1.39256e-05
-3.52445e-08
-1.57805e-08
1.39316e-05
-4.41346e-08
-1.88039e-08
1.39497e-05
-5.36744e-08
-9.75139e-09
1.39746e-05
-6.32001e-08
1.21881e-08
1.39808e-05
-6.70406e-08
3.3732e-08
1.39803e-05
-6.60984e-08
2.02505e-08
1.39849e-05
-6.69677e-08
4.72029e-09
1.39919e-05
-7.56095e-08
2.71042e-09
1.40037e-05
-9.24932e-08
-1.91755e-09
1.40194e-05
-1.1187e-07
-3.14246e-09
1.40375e-05
-1.29263e-07
-4.19072e-09
1.40647e-05
-1.50133e-07
-1.09229e-08
1.41011e-05
-1.75359e-07
-1.26093e-08
1.41396e-05
-2.04565e-07
-3.44763e-09
1.41748e-05
-2.34027e-07
3.52125e-09
1.42055e-05
-2.68814e-07
1.05913e-08
1.42342e-05
-3.1562e-07
2.83137e-08
1.42726e-05
-3.74111e-07
3.31741e-08
1.4327e-05
-4.36218e-07
1.85162e-08
1.43936e-05
-5.05612e-07
8.96526e-09
1.44687e-05
-5.88125e-07
9.31625e-09
1.45526e-05
-6.85111e-07
1.1736e-08
1.46461e-05
-7.98297e-07
1.38952e-08
1.47488e-05
-9.30199e-07
1.67258e-08
1.48593e-05
-1.08393e-06
2.05574e-08
1.49749e-05
-1.2632e-06
2.53387e-08
1.50909e-05
-1.47251e-06
3.10042e-08
1.51994e-05
-1.7174e-06
3.79721e-08
1.52893e-05
-2.00493e-06
4.54739e-08
1.53403e-05
-2.34391e-06
5.42713e-08
1.53179e-05
-2.74463e-06
6.3567e-08
1.51664e-05
-3.22315e-06
7.68198e-08
1.48007e-05
-3.79808e-06
8.98243e-08
1.40924e-05
-4.4892e-06
7.2395e-08
-5.30425e-06
-2.41342e-08
1.28944e-05
1.4761e-05
1.22132e-09
-4.29121e-07
1.48377e-05
1.57631e-09
-5.53139e-07
1.49648e-05
2.04676e-09
-4.99184e-07
1.50568e-05
-7.59616e-10
-2.90656e-07
1.50813e-05
-6.96625e-09
-1.22546e-07
1.50824e-05
-1.17234e-08
-5.3949e-08
1.50794e-05
-1.34189e-08
-2.91121e-08
1.50755e-05
-1.38477e-08
-1.65294e-08
1.50719e-05
-1.42534e-08
-9.71145e-09
1.50686e-05
-1.50754e-08
-6.11877e-09
1.50658e-05
-1.63539e-08
-4.25078e-09
1.50638e-05
-1.80771e-08
-3.42868e-09
1.50622e-05
-2.04098e-08
-2.79652e-09
1.50614e-05
-2.32586e-08
-3.05083e-09
1.50611e-05
-2.664e-08
-4.3575e-09
1.50602e-05
-3.08593e-08
-6.72734e-09
1.5057e-05
-3.62863e-08
-9.1239e-09
1.50528e-05
-4.29794e-08
-1.36826e-08
1.50503e-05
-5.02404e-08
-2.36158e-08
1.50563e-05
-5.78792e-08
-3.14941e-08
1.50746e-05
-6.97512e-08
-2.27765e-08
1.51007e-05
-8.74625e-08
3.6142e-09
1.51155e-05
-1.03889e-07
3.65244e-08
1.51121e-05
-1.13315e-07
4.20581e-08
1.51081e-05
-1.2183e-07
1.71667e-08
1.51129e-05
-1.3275e-07
-5.67582e-09
1.51183e-05
-1.50641e-07
-1.23755e-08
1.51253e-05
-1.75567e-07
-1.37311e-08
1.51305e-05
-2.06861e-07
-6.59884e-09
1.51401e-05
-2.43661e-07
1.78942e-09
1.51568e-05
-2.86171e-07
9.8758e-09
1.5168e-05
-3.3273e-07
1.74616e-08
1.51712e-05
-3.87694e-07
1.42149e-08
1.51761e-05
-4.50856e-07
1.19356e-08
1.51866e-05
-5.23087e-07
1.09395e-08
1.52008e-05
-6.07289e-07
8.6614e-09
1.5217e-05
-7.04932e-07
6.67887e-09
1.52334e-05
-8.17556e-07
5.51077e-09
1.52477e-05
-9.47266e-07
5.33236e-09
1.52569e-05
-1.09639e-06
5.69016e-09
1.52567e-05
-1.26737e-06
6.32057e-09
1.5241e-05
-1.46265e-06
6.76837e-09
1.51997e-05
-1.6846e-06
7.00643e-09
1.51175e-05
-1.93541e-06
5.83996e-09
1.49712e-05
-2.21614e-06
2.40523e-09
1.47268e-05
-2.5269e-06
-6.09256e-09
1.43315e-05
-2.86586e-06
-2.26937e-08
1.37097e-05
-3.22882e-06
-5.42881e-08
1.2761e-05
-3.60606e-06
-1.18765e-07
-3.98097e-06
-2.50726e-07
1.14053e-05
1.47663e-05
2.96568e-08
-4.28257e-07
1.48437e-05
4.49659e-08
-5.51944e-07
1.49696e-05
5.23712e-08
-4.94492e-07
1.50586e-05
4.30739e-08
-2.85845e-07
1.50802e-05
2.54041e-08
-1.2171e-07
1.50814e-05
1.15273e-08
-5.8265e-08
1.50791e-05
3.90544e-09
-3.32872e-08
1.50746e-05
-5.18155e-10
-1.85506e-08
1.5069e-05
-3.87918e-09
-1.01728e-08
1.50636e-05
-6.86828e-09
-5.82014e-09
1.50587e-05
-9.75016e-09
-3.53671e-09
1.50545e-05
-1.26805e-08
-2.44132e-09
1.50508e-05
-1.57967e-08
-1.9719e-09
1.50476e-05
-1.91607e-08
-1.90848e-09
1.50449e-05
-2.28533e-08
-2.27777e-09
1.50426e-05
-2.70163e-08
-3.11792e-09
1.50404e-05
-3.1905e-08
-4.22557e-09
1.50377e-05
-3.74837e-08
-5.3114e-09
1.50339e-05
-4.36258e-08
-5.27734e-09
1.50302e-05
-5.10405e-08
-6.25861e-09
1.50265e-05
-6.15187e-08
-8.30533e-09
1.50191e-05
-7.4638e-08
-1.09546e-08
1.50063e-05
-8.63618e-08
-1.31448e-08
1.49936e-05
-9.63563e-08
-1.2887e-08
1.49855e-05
-1.09324e-07
-9.8664e-09
1.49836e-05
-1.27886e-07
-3.06404e-09
1.49827e-05
-1.49199e-07
1.51737e-09
1.49778e-05
-1.71342e-07
2.46395e-09
1.49656e-05
-1.99333e-07
6.79618e-09
1.4955e-05
-2.3693e-07
8.04983e-09
1.49494e-05
-2.79914e-07
8.2715e-09
1.49345e-05
-3.21184e-07
1.24061e-08
1.49058e-05
-3.66237e-07
7.36147e-09
1.4871e-05
-4.24242e-07
7.66209e-09
1.4834e-05
-4.92804e-07
8.58651e-09
1.47936e-05
-5.70566e-07
4.06145e-09
1.47475e-05
-6.59836e-07
-8.04221e-10
1.46925e-05
-7.6235e-07
-3.38555e-09
1.46253e-05
-8.79749e-07
-4.74543e-09
1.45426e-05
-1.01362e-06
-5.91911e-09
1.44403e-05
-1.16534e-06
-7.11446e-09
1.43122e-05
-1.33589e-06
-8.74126e-09
1.41501e-05
-1.52534e-06
-1.0852e-08
1.39415e-05
-1.73237e-06
-1.44041e-08
1.36682e-05
-1.95276e-06
-1.95844e-08
1.3303e-05
-2.17857e-06