/*--------------------------------*- C++ -*----------------------------------*\
  =========                 |
  \\      /  F ield         | OpenFOAM: The Open Source CFD Toolbox
   \\    /   O peration     | Website:  https://openfoam.org
    \\  /    A nd           | Version:  6
     \\/     M anipulation  |
\*---------------------------------------------------------------------------*/
FoamFile
{
    version     2.0;
    format      ascii;
    class       volScalarField;
    location    "./ITHACAoutput/POD/1";
    object      P_rec;
}
// * * * * * * * * * * * * * * * * * * * * * * * * * * * * * * * * * * * * * //

dimensions      [0 2 -2 0 0 0 0];

internalField   nonuniform List<scalar> 
9000
(
118.369
63.58
49.6504
43.6282
40.5992
38.8459
37.585
36.6498
36.0807
35.5404
35.0445
34.655
34.1805
33.7359
33.2113
32.6925
32.198
31.844
31.5398
31.1317
30.4706
29.9415
29.5669
29.0483
28.685
28.1919
27.4985
27.2633
26.6604
26.0762
25.8006
25.1816
24.6648
24.2782
23.7866
23.3783
22.8745
22.4698
22.1394
21.7795
21.0734
20.7026
20.3377
20.0565
19.5667
19.1043
19.0092
19.0407
18.6077
17.7857
86.3699
60.5227
50.3174
44.6283
41.5296
39.5187
38.1647
37.1252
36.3284
35.7575
35.2182
34.6035
34.1355
33.6427
33.3372
32.8142
32.3787
31.7639
31.3593
30.8614
30.5904
29.8431
29.4791
29.0457
28.565
28.0131
27.5484
27.2813
26.639
26.2225
25.669
25.24
24.705
24.3238
23.8661
23.4538
22.8937
22.6129
21.9184
21.6877
21.0336
20.7228
20.2914
19.7448
19.7106
19.1621
18.9501
18.2379
17.9563
16.4946
69.2451
56.8186
50.1239
45.0922
42.197
39.9813
38.3797
37.4917
36.5522
35.9974
35.3759
34.5118
34.3051
33.6886
33.2218
32.7559
32.3129
32.0102
31.3329
30.9441
30.4353
29.981
29.5396
29.0716
28.4676
28.2296
27.54
27.0973
26.6238
26.0718
25.8292
25.225
24.8845
24.4404
23.8294
23.4552
22.9423
22.4765
22.0341
21.5123
21.0803
20.7115
20.1873
19.7778
19.3551
18.9001
18.397
17.7137
17.1487
15.662
60.0858
53.3925
49.003
45.0152
42.2608
40.182
38.8549
37.8973
36.8488
36.1315
35.4637
34.9139
34.3007
33.7033
33.4379
32.9171
32.293
31.9321
31.3828
30.7965
30.4598
29.9947
29.5754
28.9635
28.5246
28.1472
27.5755
27.286
26.6726
26.3966
25.8493
25.3397
24.8498
24.3649
23.8244
23.4413
22.9392
22.5321
22.084
21.5924
21.0283
20.6708
20.2751
19.7727
19.3399
18.9006
18.24
17.7388
16.7574
15.4737
53.7231
50.4542
47.2853
44.4414
41.9764
40.324
39.1265
37.8768
36.9227
36.3411
35.3626
34.8171
34.4051
33.7516
33.3069
32.9317
32.2576
32.0119
31.4447
31.1076
30.5001
30.1071
29.5663
29.0111
28.4165
28.2326
27.6658
27.1368
26.9215
26.2039
25.6949
25.272
24.7497
24.4871
24.0182
23.2466
22.9207
22.4632
22.007
21.5223
21.0536
20.6248
20.0722
19.5192
19.0388
18.6227
18.0731
17.4664
16.62
15.5428
49.4428
47.6402
45.7216
43.5372
41.7874
40.3831
38.9119
37.8771
37.0139
36.1518
35.7132
35.1337
34.3458
33.9416
33.5536
32.9052
32.4746
32.0237
31.3191
30.8597
30.4422
30.0475
29.4841
29.0552
28.6255
28.2562
27.6515
27.1659
26.785
26.2493
25.6937
25.1855
24.8931
24.553
23.7306
23.3316
23.0594
22.3246
22.1704
21.3739
21.0873
20.5021
20.0927
19.5626
19.2448
18.6036
17.9842
17.3769
16.4033
15.4182
46.2385
45.4082
44.3575
42.9658
41.5168
40.0612
38.7432
37.9422
37.0208
36.3261
35.5749
34.86
34.4523
34.0686
33.2897
32.9579
32.4822
31.8027
31.2381
30.966
30.3822
30.0618
29.3515
29.0435
28.567
28.0113
27.6358
26.9804
26.6852
26.2647
25.6548
25.3502
24.6745
24.287
23.7491
23.3001
22.7896
22.336
21.8857
21.5008
20.9643
20.519
20.0879
19.6365
19.0719
18.4901
17.8688
17.0374
16.3409
15.5474
44.0347
43.6675
42.9997
41.901
40.9108
39.647
38.6416
37.6625
36.8068
36.2873
35.6068
35.0657
34.4849
33.7767
33.4871
32.935
32.5959
31.8329
31.1275
30.9778
30.3354
30.0206
29.7073
28.9798
28.4931
28.0331
27.6165
27.2528
26.6766
26.1422
25.65
25.2807
24.657
24.3182
23.8035
23.4692
22.9318
22.4172
21.9651
21.5013
20.9514
20.4114
19.9475
19.4154
18.9046
18.447
18.0064
17.1456
16.4587
15.5446
42.2163
42.2087
41.85
41.1668
40.0877
39.2758
38.495
37.844
37.0436
36.328
35.6533
35.035
34.4236
33.9697
33.5006
32.9253
32.443
31.9407
31.4419
30.8512
30.5783
30.0954
29.6174
28.9553
28.5922
27.8983
27.3619
27.0681
26.6924
26.2215
25.7531
25.0489
24.6067
24.1674
23.9306
23.2509
22.8769
22.4
21.9789
21.3403
20.989
20.4707
19.9301
19.4864
18.7773
18.4563
17.7399
17.1763
16.547
15.6652
40.639
40.932
41.0478
40.5154
39.7958
39.0531
38.1364
37.4139
36.9169
36.3397
35.5774
35.059
34.2838
34.1265
33.3813
33.0265
32.6203
31.9189
31.4677
30.8844
30.4946
29.9762
29.3881
29.1078
28.5398
28.3082
27.782
27.079
26.7781
26.2825
25.8061
25.2107
24.8332
24.3466
23.7278
23.3639
22.9276
22.6094
21.8374
21.3181
20.9588
20.4162
19.8358
19.4392
18.9383
18.4126
17.6878
17.1439
16.4197
16.0064
39.6309
40.1678
40.0985
39.9408
39.0692
38.6782
38.0536
37.4334
36.7496
36.1995
35.6936
35.0574
34.3993
33.9235
33.2424
33.036
32.4336
32.0031
31.5363
30.8684
30.4111
29.9593
29.4912
29.2172
28.6266
28.1596
27.5685
27.3864
26.5317
26.18
25.8006
25.3464
24.7434
24.2164
23.7323
23.3467
22.7918
22.443
21.9952
21.2466
21.0499
20.2733
19.9627
19.375
18.8802
18.3998
17.9037
17.1477
16.5404
15.9428
38.8325
39.3716
39.5205
39.1748
38.9658
38.3305
37.6686
37.1816
36.5872
35.9704
35.5263
34.9718
34.5102
34.0104
33.5062
32.844
32.5042
31.9332
31.5391
31.0037
30.4308
29.9623
29.5529
29.0743
28.5854
28.2107
27.5944
26.9398
26.7822
26.2641
25.8039
25.396
24.687
24.2351
23.7114
23.188
22.7364
22.4161
21.8329
21.284
20.9059
20.4639
19.8628
19.4895
18.8363
18.3249
17.7386
17.2187
16.6123
16.0253
38.0914
38.5694
38.9392
38.6372
38.35
38.1023
37.5632
37.071
36.4064
36.1053
35.532
34.897
34.3735
33.9598
33.3958
32.8342
32.5865
31.8639
31.4424
31.0802
30.4778
29.8882
29.4825
29.1599
28.6584
28.1355
27.4824
27.2497
26.652
26.0105
25.7786
25.139
24.7845
24.2557
23.7569
23.2486
22.9246
22.4264
21.8126
21.4918
20.9605
20.4748
20.0095
19.4551
18.9024
18.2923
17.8183
17.1792
16.7102
16.0864
37.624
38.2317
38.3052
38.5802
38.2074
37.8058
37.3888
36.7265
36.452
35.9269
35.5264
34.9561
34.4379
33.9953
33.511
32.9508
32.434
32.0268
31.4996
31.0102
30.5176
29.8631
29.6474
29.1971
28.6292
28.0395
27.7827
26.9818
26.6667
26.3318
25.7551
25.3722
24.8245
24.2707
23.7529
23.4234
22.9572
22.266
21.8365
21.4134
20.9166
20.4888
19.8956
19.5856
18.9526
18.5083
17.8287
17.4383
16.7369
16.3658
37.2265
37.6091
38.0195
38.0628
37.8848
37.4008
37.469
36.8326
36.3513
36.0039
35.539
34.9524
34.2645
33.9931
33.5873
32.8431
32.5237
31.8675
31.5339
30.9707
30.641
29.9937
29.5956
29.0659
28.4728
28.1535
27.3974
27.0678
26.5906
26.1895
25.7822
25.171
24.7417
24.2478
23.8622
23.3792
22.8858
22.295
21.8215
21.2829
20.7704
20.4013
19.8082
19.3333
18.9496
18.4768
17.8406
17.3551
16.8025
16.2692
36.8687
37.4245
37.6375
37.6472
37.6259
37.4948
37.0804
36.6743
36.2843
35.9731
35.378
34.8131
34.3426
34.0731
33.4895
32.9859
32.5628
31.8511
31.4259
31.1169
30.4087
30.0845
29.5634
28.9881
28.4594
28.013
27.6451
27.2112
26.6514
26.2837
25.8174
25.222
24.6686
24.2271
23.7907
23.0865
22.8815
22.1801
21.9536
21.4204
20.9488
20.2648
19.862
19.5152
18.7524
18.3218
17.9211
17.4493
16.8259
16.4573
36.72
36.9378
37.3675
37.4207
37.5647
37.3725
37.0007
36.7188
36.2979
35.8478
35.3262
34.8976
34.3078
33.7519
33.2488
32.8676
32.4575
32.0025
31.5327
31.1022
30.6076
30.0395
29.5326
29.0545
28.7318
27.9949
27.6783
27.2099
26.6648
26.1842
25.7154
25.3035
24.7379
24.3286
23.7215
23.413
22.7339
22.3301
21.7077
21.3879
21.0248
20.4119
19.923
19.3622
18.8256
18.4864
17.9824
17.3019
16.7493
16.4281
36.4244
36.9782
37.2411
37.3248
37.2707
37.0687
36.9013
36.5005
36.3861
35.9922
35.3127
34.8865
34.4514
34.1343
33.2558
32.7571
32.2969
31.9665
31.5054
31.072
30.4521
30.1222
29.4904
28.9055
28.6737
28.2288
27.7101
27.1456
26.5468
26.1071
25.7774
25.1241
24.6695
24.4387
23.5628
23.3082
22.8727
22.3879
21.8173
21.2881
20.8261
20.412
19.9047
19.3636
18.8332
18.4804
17.9393
17.4842
17.1386
16.5399
36.1981
36.8509
37.172
37.3407
37.1346
37.0439
36.7012
36.4412
36.1377
35.791
35.3319
35.0236
34.4099
33.8892
33.5372
32.9484
32.4662
32.0337
31.4723
31.0268
30.4735
30.1542
29.591
28.9355
28.6023
28.1666
27.58
27.0324
26.7765
26.0687
25.7637
25.1673
24.7503
24.2671
23.9672
23.3254
22.8788
22.4895
21.8559
21.1391
21.0152
20.4147
20.0138
19.5032
18.9699
18.5464
18.1454
17.4641
16.9584
16.5428
36.2785
36.6602
37.1054
37.1867
37.277
36.9857
36.9155
36.7199
36.2886
35.7973
35.3702
34.8382
34.4154
33.818
33.4559
32.9384
32.4414
31.8356
31.545
31.0089
30.3788
30.1734
29.5212
28.7542
28.6976
28.0518
27.7671
27.2173
26.6039
26.1478
25.6548
25.2591
24.7453
24.2802
23.8885
23.3555
22.6323
22.3929
21.891
21.3893
21.0608
20.3899
20.0152
19.3584
18.7993
18.4928
17.9148
17.5381
16.8714
16.6757
36.1426
36.7763
37.2143
37.034
37.2263
36.9128
36.776
36.4039
36.1115
35.7379
35.3212
34.9438
34.5377
33.9216
33.4932
32.9286
32.5061
32.014
31.5911
31.0196
30.412
30.0475
29.4637
29.1519
28.671
28.1052
27.635
27.1674
26.5917
26.1922
25.6849
25.1831
24.684
24.2821
23.9388
23.316
22.803
22.4253
21.7701
21.4908
21.0767
20.1885
19.8441
19.3944
18.9085
18.4965
18.0673
17.4801
17.0695
16.7254
36.1096
36.744
37.0575
37.2656
37.4136
37.0767
37.0552
36.6328
36.0038
35.7908
35.4362
34.8909
34.4111
33.8146
33.3907
33.1605
32.3285
31.9082
31.4813
30.9748
30.5502
30.1204
29.5725
29.2213
28.6194
27.9599
27.6924
27.0497
26.5041
26.2392
25.5942
25.1517
24.8765
24.1375
23.8242
23.2111
22.6621
22.2818
21.8727
21.3521
20.7392
20.3027
19.9234
19.3319
18.8195
18.5061
18.2379
17.5297
17.0057
16.831
36.4093
37.0517
37.1736
37.2609
37.3741
37.1796
37.1205
36.62
36.0955
35.8561
35.3752
34.8412
34.433
34.0783
33.5125
32.817
32.3552
31.9871
31.5773
30.9784
30.4618
29.9973
29.5289
29.0767
28.4564
28.1559
27.5246
27.3274
26.7198
25.9769
25.679
25.3213
24.7321
24.1728
23.7119
23.169
22.6233
22.2983
21.8878
21.3197
20.9376
20.5535
19.7559
19.5827
19.0767
18.4126
18.0099
17.5804
17.1738
16.5763
36.5576
37.0152
37.3662
37.5131
37.5627
37.5201
37.1903
36.715
36.1451
35.9213
35.5109
34.9826
34.4589
33.9539
33.3762
32.8919
32.5467
31.9789
31.4698
31.0329
30.4254
30.0221
29.4739
29.0962
28.4255
28.1951
27.5246
27.1206
26.8266
26.2229
25.6764
25.2806
24.6312
24.2133
23.8542
23.1556
22.7173
22.3726
21.8341
21.2844
20.8466
20.4631
19.8597
19.5259
19.0552
18.4164
18.0039
17.5962
17.1737
16.6215
37.0011
37.3972
37.6766
37.6534
37.7203
37.5655
37.1716
36.8803
36.1814
36.008
35.4097
34.9843
34.5318
33.9231
33.5803
33.0105
32.5539
32.0483
31.3714
31.2206
30.6124
30.0561
29.4507
29.0564
28.5852
28.0755
27.5498
27.043
26.5871
26.0524
25.6781
25.115
24.7755
24.158
23.7419
23.271
22.8049
22.3593
21.8112
21.3242
20.7493
20.3809
19.9184
19.3316
19.0143
18.4248
18.1803
17.5654
17.1921
16.6029
37.2531
37.6143
38.0304
37.9634
37.851
37.6591
37.3382
36.9221
36.4548
35.8846
35.2944
34.979
34.3087
33.973
33.5469
32.8988
32.3049
31.8658
31.4853
30.8809
30.4965
30.0592
29.4342
29.0116
28.6397
28.0256
27.698
27.0348
26.6273
26.0088
25.6884
25.203
24.9419
24.1194
23.7092
23.2875
22.7159
22.4027
21.8639
21.4183
20.932
20.5198
19.9247
19.3636
19.0096
18.497
18.0988
17.511
17.1712
16.7449
37.8732
37.975
38.48
38.4001
37.9772
37.9002
37.3929
36.9727
36.5192
36.0429
35.5919
34.9463
34.438
34.044
33.4765
32.8928
32.7157
31.9653
31.5182
30.9159
30.5764
29.9655
29.6388
29.1265
28.7494
28.0817
27.4687
27.1613
26.7593
26.1119
25.5751
25.095
24.8938
24.3053
23.7712
23.2903
22.8748
22.3123
21.8529
21.5263
20.7116
20.3939
19.9746
19.4093
19.0595
18.5603
17.9902
17.4991
17.2314
16.6933
38.3472
38.5904
38.9873
38.8709
38.4484
38.076
37.4324
37.1569
36.7951
35.9598
35.4843
34.9457
34.5323
33.9496
33.2755
33.0586
32.4117
31.898
31.6382
30.866
30.5927
30.0833
29.4758
29.1321
28.5229
28.2575
27.6702
27.1097
26.7163
26.0771
25.5556
25.182
24.608
24.26
23.7294
23.2191
22.7637
22.2972
21.8076
21.332
20.9582
20.4964
19.8903
19.5512
18.9154
18.5403
18.0447
17.6275
17.0987
16.7871
38.8182
39.3756
39.6418
39.234
38.8846
38.5712
37.8925
37.2345
36.5638
36.1334
35.6301
34.8697
34.4864
33.9773
33.4802
33.0416
32.3252
32.039
31.5419
31.0252
30.4888
29.9526
29.5076
29.0251
28.6485
28.03
27.6005
27.0672
26.5981
26.1637
25.7994
25.1746
24.8661
24.1749
23.7655
23.2588
22.9002
22.3741
21.7855
21.2442
20.8206
20.4383
19.9018
19.491
18.9558
18.543
17.97
17.647
17.3001
16.6488
39.6914
40.075
40.2609
39.7161
39.4104
38.7478
38.13
37.3674
36.7885
36.1244
35.5054
35.1705
34.5369
33.8605
33.3322
32.925
32.4275
32.0108
31.4192
31.0072
30.3923
30.0606
29.4513
29.0749
28.4755
28.0111
27.5497
27.2456
26.4871
26.2577
25.7137
25.0806
24.6989
24.2688
23.7946
23.375
22.8372
22.3019
21.6853
21.28
20.9882
20.3167
19.7576
19.4735
19.0503
18.4628
17.9089
17.6576
17.1594
16.7335
40.7809
41.1548
41.0211
40.5143
39.724
39.1977
38.2329
37.5523
36.7909
36.3364
35.5845
35.0141
34.4855
33.8575
33.4877
32.8855
32.3421
32.0426
31.3524
30.9185
30.5465
30.013
29.7046
29.0114
28.5868
28.0565
27.5668
27.2067
26.6512
26.0318
25.5995
25.1926
24.5742
24.2437
23.8816
23.4352
22.6798
22.1274
21.6433
21.4446
20.935
20.3521
19.8399
19.2816
19.013
18.7379
18.1916
17.5665
17.1323
16.623
42.2648
42.2313
42.1313
41.2738
40.1298
39.3593
38.4552
37.6051
36.9255
36.2591
35.487
34.981
34.4856
33.946
33.3287
32.9182
32.5073
31.8003
31.4452
31.1552
30.5272
30.092
29.5039
29.0276
28.5338
28.1183
27.6409
27.1501
26.6597
26.163
25.8342
25.1093
24.7255
24.227
23.6426
23.2521
22.7567
22.3339
21.8849
21.2495
20.9095
20.4582
19.8434
19.3549
18.9649
18.6128
17.996
17.5549
17.207
16.8082
43.8819
43.6064
43.0707
42.0958
40.7982
39.811
38.7161
37.8274
36.8378
36.1541
35.6343
35.12
34.4652
33.8813
33.38
32.9256
32.431
31.967
31.3776
30.8427
30.668
30.0161
29.5052
29.1206
28.5484
28.1349
27.5449
26.9867
26.7505
25.9438
25.7723
25.2515
24.6149
24.3306
23.8079
23.2132
22.9496
22.3094
21.7444
21.4206
20.7846
20.3255
19.9072
19.4539
18.9941
18.5825
18.0931
17.5103
17.2638
16.536
46.2749
45.6451
44.2637
42.8791
41.3875
40.0841
38.8645
37.9375
36.8508
36.3522
35.6072
35.1188
34.5287
33.9113
33.6247
32.9277
32.423
32.0423
31.407
30.9756
30.5517
29.8868
29.3838
29.1496
28.477
28.0865
27.7249
27.1555
26.874
25.9395
25.589
25.1247
24.8186
24.1008
23.7268
23.315
22.7923
22.3035
21.8325
21.2131
20.8867
20.2117
19.7749
19.4856
19.0035
18.591
17.9644
17.5041
17.0936
16.5752
49.265
47.6647
45.8642
43.7126
41.8807
40.0297
39.1354
37.8628
36.7815
36.1723
35.653
34.9242
34.3562
33.821
33.3018
32.8613
32.2498
31.9374
31.4084
30.9769
30.39
29.9266
29.4108
29.1324
28.5359
28.0115
27.5376
27.027
26.6434
26.2874
25.6904
25.175
24.8199
24.12
23.6832
23.173
22.9257
22.3151
21.7129
21.148
20.7971
20.4885
19.7234
19.364
18.8798
18.4732
17.7872
17.5779
16.9521
16.6113
53.8067
50.2289
47.3068
44.5802
42.0856
40.3913
38.9472
37.8078
36.9707
36.3059
35.3901
35.0212
34.2898
33.9673
33.3915
32.7717
32.2677
31.6777
31.5819
30.9078
30.5785
30.0498
29.5932
29.11
28.3645
28.0932
27.7331
27.1454
26.567
26.0874
25.814
25.0061
24.6203
24.0214
23.8216
23.2062
22.9177
22.3164
21.8112
21.2076
20.8326
20.3537
19.8474
19.4473
18.9098
18.407
17.9303
17.332
16.978
16.6498
60.0472
53.4579
49.044
45.099
42.2843
40.2344
38.9187
37.7157
36.9303
36.0545
35.5372
34.7099
34.4716
33.8055
33.2529
32.9912
32.3379
31.7492
31.5402
30.9362
30.6307
29.9158
29.5065
29.1485
28.4976
28.2284
27.6025
27.0549
26.7245
26.331
25.6158
25.346
24.7354
24.1062
23.5752
23.207
22.7338
22.395
21.729
21.3271
20.7738
20.2261
19.9971
19.1925
18.8062
18.4799
17.9493
17.3357
16.9558
16.5785
69.2739
56.8821
50.0136
45.3841
42.109
39.9576
38.5202
37.2844
36.6702
35.8293
35.1964
34.7912
34.1742
33.6841
33.2632
32.947
32.4397
32
31.2991
30.8769
30.4052
30.0064
29.6244
29.04
28.4464
28.1093
27.573
27.0755
26.6579
26.0914
25.6843
25.0933
24.5122
24.25
23.7903
23.3133
22.5794
22.3154
21.7849
21.2992
20.7923
20.1581
19.809
19.3851
18.7466
18.4297
17.8408
17.3549
16.865
16.6135
86.3157
60.4068
50.2866
44.8454
41.3851
39.5564
37.9582
37.3004
36.3781
35.8595
35.1312
34.7936
34.1271
33.5086
33.0089
32.7061
32.2895
31.7891
31.4694
30.7869
30.517
30.0317
29.4266
28.9831
28.4249
27.9679
27.5947
27.137
26.6194
26.1944
25.6687
25.2554
24.8585
24.1258
23.6972
23.2661
22.7276
22.2484
21.6071
21.2957
20.5885
20.1293
19.6509
19.2726
18.6417
18.4099
17.8383
17.5794
16.9521
16.3822
119.046
63.6943
49.4783
43.6646
40.652
38.8284
37.3197
36.6138
36.1451
35.371
35.0641
34.5603
34.1603
33.6019
33.2486
32.5742
32.1311
31.7785
31.2171
31.0473
30.4092
29.9834
29.5003
29.0826
28.4575
28.1634
27.6705
27.0254
26.718
26.0249
25.6769
25.218
24.6677
24.2458
23.7089
23.2775
22.5337
22.325
21.7312
21.2785
20.7518
20.1891
19.9032
19.2431
18.8171
18.1937
17.815
17.3272
16.8053
16.2733
8.24852
10.1226
10.2776
10.5651
10.937
10.9301
11.1791
11.1691
11.2037
11.058
11.2302
11.1896
10.9831
10.8779
10.9067
10.8814
10.6333
10.5035
10.5029
10.3332
10.2736
10.2689
10.0866
9.9272
9.7643
9.70086
9.57692
9.42322
9.28854
9.17012
9.0255
8.8929
8.77339
8.64674
8.52425
8.3967
8.24872
8.11397
7.999
7.8533
7.73631
7.58388
7.45918
7.34242
7.21241
7.08654
6.94341
6.8241
6.7043
6.56106
6.41854
6.29207
6.16512
6.02306
5.91679
5.75941
5.62353
5.51713
5.39707
5.25446
5.1238
4.98512
4.87174
4.73847
4.60736
4.46347
4.34155
4.22186
4.08673
3.96601
3.83492
3.69898
3.56936
3.43965
3.30438
3.17971
3.05362
2.93994
2.78406
2.64658
2.52443
2.38974
2.27172
2.13489
2.00224
1.86881
1.74136
1.61457
1.49655
1.35663
1.2165
1.09653
0.958238
0.84241
0.71293
0.582841
0.453671
0.324054
0.195057
0.0648963
10.6868
11.2246
10.9228
11.1673
11.0846
11.3395
11.2484
11.1925
11.2478
11.3268
11.2112
11.1114
11.0131
10.9861
10.9953
10.6309
10.7809
10.701
10.3362
10.3709
10.3245
10.1473
10.1876
10.0916
9.69942
9.62826
9.55329
9.43458
9.30446
9.16278
9.03157
8.89926
8.76921
8.65234
8.50898
8.38481
8.24375
8.1222
7.99795
7.85814
7.72399
7.59722
7.46936
7.33302
7.20515
7.07285
6.95143
6.81463
6.68602
6.55931
6.42618
6.30223
6.18094
6.04364
5.8952
5.77066
5.64755
5.5036
5.39675
5.25043
5.13023
4.9931
4.86557
4.74969
4.60184
4.46207
4.35246
4.20997
4.08671
3.94311
3.83375
3.71139
3.55816
3.43397
3.29044
3.18259
3.03828
2.90976
2.80051
2.6681
2.52765
2.39181
2.26873
2.13611
2.00225
1.87897
1.73554
1.62049
1.49062
1.36124
1.24371
1.10985
0.98264
0.84165
0.713736
0.583903
0.455787
0.325528
0.195112
0.0649256
12.0563
11.8508
11.468
11.3849
11.5784
11.4896
11.5732
11.3674
11.2463
11.4808
11.0901
11.1792
11.0507
11.073
11.0154
10.8336
10.7317
10.6804
10.4409
10.2791
10.317
10.1122
10.0478
9.99048
9.79579
9.62862
9.52516
9.4125
9.27623
9.13387
9.0386
8.8982
8.77365
8.64993
8.52165
8.38364
8.23345
8.1193
7.9909
7.85896
7.7224
7.58201
7.46857
7.33619
7.21068
7.07248
6.94836
6.8033
6.68155
6.55612
6.41545
6.30021
6.17621
6.04344
5.87726
5.77223
5.62785
5.50767
5.38156
5.25796
5.12493
4.99845
4.86929
4.73354
4.60443
4.47928
4.34672
4.20288
4.08671
3.95615
3.83027
3.65859
3.56336
3.43563
3.30664
3.19403
3.03095
2.91243
2.7863
2.66538
2.52708
2.39157
2.26993
2.15306
2.01162
1.8851
1.73429
1.6354
1.48407
1.36125
1.2363
1.10082
0.958488
0.843314
0.711683
0.583814
0.453726
0.324967
0.195918
0.0649561
12.8568
12.5907
11.9402
11.8404
11.7778
11.5972
11.6528
11.5484
11.5958
11.2874
11.2882
11.3364
11.174
11.2671
11.0208
10.9295
10.765
10.6854
10.3398
10.3909
10.2001
10.0879
9.95923
9.98742
9.77338
9.70225
9.55339
9.36945
9.26936
9.16338
9.04471
8.89661
8.77066
8.63273
8.50037
8.36377
8.24219
8.13742
7.99591
7.86753
7.74009
7.58716
7.47075
7.33491
7.20226
7.08558
6.93767
6.81917
6.67237
6.53679
6.41726
6.30172
6.18232
6.01786
5.92041
5.75738
5.64767
5.51059
5.38733
5.24768
5.13324
4.99826
4.85609
4.75473
4.60671
4.46972
4.32991
4.20916
4.08799
3.94637
3.83684
3.71914
3.58151
3.43905
3.31474
3.17538
3.05789
2.90588
2.77935
2.65064
2.53797
2.40616
2.27816
2.17035
2.02372
1.884
1.74195
1.61587
1.49526
1.35208
1.22456
1.10956
0.98147
0.842883
0.714256
0.583147
0.455253
0.324398
0.194499
0.0648242
13.4931
12.8981
12.3968
12.0991
11.8423
11.9138
11.7222
11.6657
11.6966
11.2894
11.3414
11.3873
11.3115
10.9424
10.9624
10.8
10.8653
10.6366
10.5222
10.3587
10.4042
10.0975
9.89742
10.0086
9.7373
9.60059
9.59287
9.3459
9.30454
9.16207
9.02567
8.9064
8.75472
8.65406
8.51742
8.35783
8.2424
8.10855
7.98217
7.86002
7.72185
7.59444
7.47484
7.33693
7.20996
7.0727
6.93474
6.82061
6.67178
6.55682
6.42371
6.28878
6.16791
6.02707
5.90352
5.7685
5.64742
5.52956
5.39016
5.25271
5.12936
4.98959
4.8655
4.72541
4.60761
4.47115
4.32987
4.21053
4.08797
3.95151
3.8233
3.69788
3.56471
3.44483
3.30986
3.18077
3.04223
2.93002
2.79425
2.66384
2.52831
2.40112
2.2768
2.15386
2.01652
1.879
1.74225
1.62935
1.49519
1.35892
1.26285
1.114
0.969148
0.844728
0.713304
0.583297
0.455284
0.325766
0.196504
0.0649166
14.0532
13.4063
12.7779
12.3922
12.4735
11.9584
12.159
11.629
11.7001
11.5419
11.4022
11.4033
11.212
10.81
10.9012
10.6664
10.7331
10.652
10.6596
10.3467
10.2504
10.0859
9.98909
9.93779
9.8591
9.61302
9.60423
9.41621
9.27535
9.15291
8.99991
8.88482
8.76273
8.64016
8.49176
8.35223
8.23887
8.12106
8.00327
7.83624
7.71231
7.58661
7.47231
7.34247
7.20402
7.06668
6.95905
6.81173
6.67789
6.53823
6.42336
6.28444
6.17406
6.02982
5.89977
5.7652
5.64401
5.52093
5.38611
5.25373
5.11482
5.00537
4.86306
4.73566
4.59313
4.48005
4.33155
4.21612
4.08665
3.94714
3.8259
3.68758
3.56877
3.45684
3.30581
3.17238
3.05128
2.9169
2.79993
2.66374
2.53258
2.40027
2.27528
2.15247
2.01559
1.89116
1.74363
1.63293
1.50221
1.36128
1.22541
1.09817
0.981048
0.843791
0.712644
0.584383
0.454312
0.325593
0.195577
0.0649915
14.4314
13.7035
12.9764
12.6551
12.5235
12.0941
12.1969
11.7575
11.8268
11.7964
11.5426
11.4116
11.4769
11.2648
11.0203
10.9551
11.0098
10.5103
10.5537
10.4279
10.3955
10.23
9.94424
9.84107
9.86194
9.57272
9.52094
9.37232
9.27626
9.16444
9.01486
8.87618
8.76747
8.6406
8.51502
8.36008
8.25376
8.09891
7.99656
7.84803
7.71127
7.56541
7.46085
7.33563
7.1941
7.05809
6.94809
6.80399
6.68683
6.56519
6.41381
6.29909
6.13783
6.03656
5.91076
5.7836
5.64562
5.51412
5.36879
5.25793
5.10658
4.98948
4.8691
4.73912
4.6121
4.45817
4.34203
4.22042
4.08794
3.95874
3.82572
3.70073
3.55513
3.4429
3.30006
3.17239
3.05757
2.9215
2.78468
2.65532
2.52558
2.41418
2.26487
2.16394
2.01789
1.88145
1.74819
1.62728
1.48262
1.35971
1.24637
1.11529
0.968766
0.842614
0.713899
0.582715
0.454173
0.324256
0.193772
0.0650878
14.607
14.0817
13.4442
13.0398
12.5593
12.6088
12.2736
11.9284
11.9161
11.883
11.6879
11.5171
11.4348
11.4838
10.9868
11.0295
10.6777
10.6753
10.5345
10.4812
10.2132
10.3122
10.0211
9.93592
9.71957
9.63027
9.45627
9.44086
9.25813
9.14422
9.00973
8.87036
8.72938
8.62373
8.50565
8.37548
8.223
8.09826
7.96691
7.83427
7.69613
7.58336
7.46291
7.33442
7.20428
7.06328
6.93072
6.78991
6.69583
6.55226
6.41679
6.27666
6.16204
6.0371
5.89286
5.77832
5.63774
5.50232
5.38729
5.24297
5.11396
4.9954
4.86333
4.73297
4.58263
4.49426
4.34172
4.21395
4.08296
3.95017
3.81802
3.70663
3.58062
3.43191
3.29549
3.18307
3.03904
2.90895
2.7832
2.65597
2.53933
2.3911
2.26489
2.15978
2.02688
1.88475
1.75276
1.6251
1.47539
1.36932
1.22798
1.08847
0.979496
0.841902
0.712335
0.583089
0.455675
0.324116
0.195511
0.0650626
14.8956
14.3356
13.6382
13.1128
13.0334
12.7592
12.2083
12.2461
11.9695
11.8345
11.8487
11.53
11.4833
11.1168
11.2238
10.9282
10.8227
10.6034
10.5913
10.3668
10.461
10.209
9.99468
9.91521
9.72842
9.72022
9.45366
9.38935
9.27172
9.13098
9.00921
8.8735
8.74882
8.62818
8.49458
8.36158
8.2339
8.11608
7.98225
7.83588
7.7081
7.57892
7.45695
7.32625
7.18293
7.05779
6.94577
6.80479
6.69344
6.56089
6.41805
6.28689
6.15515
6.03308
5.89358
5.77166
5.63847
5.51376
5.37954
5.23592
5.11218
4.99228
4.88349
4.73348
4.61517
4.47953
4.35121
4.21286
4.0866
3.95438
3.81232
3.70255
3.55475
3.43482
3.30626
3.1687
3.04196
2.91445
2.79008
2.66627
2.52309
2.40302
2.25773
2.14266
2.02061
1.87596
1.75883
1.64117
1.49498
1.35607
1.23303
1.11679
0.970513
0.843151
0.713958
0.584214
0.453352
0.323784
0.194964
0.0650122
14.9862
14.4826
13.9955
13.4438
13.1593
12.719
12.5753
12.2982
12.109
11.9103
11.5422
11.6687
11.3859
11.3607
11.2611
11.0316
10.9701
10.8971
10.6885
10.4582
10.3495
10.2657
10.0287
9.96475
9.75202
9.64324
9.57896
9.36474
9.28097
9.11718
8.99806
8.86773
8.75684
8.61153
8.4993
8.3339
8.23467
8.11154
7.97831
7.83909
7.71328
7.5749
7.45473
7.32025
7.18679
7.06201
6.91497
6.80539
6.6732
6.55418
6.42861
6.31127
6.16634
6.05039
5.91235
5.76858
5.62209
5.52051
5.37832
5.25427
5.1176
5.00264
4.86122
4.7457
4.58812
4.47241
4.35829
4.21061
4.08789
3.96357
3.82468
3.69227
3.55427
3.44225
3.30476
3.17747
3.04624
2.91043
2.7874
2.64989
2.51755
2.40305
2.26798
2.13153
2.01922
1.85724
1.75318
1.62676
1.50277
1.36279
1.22643
1.09118
0.978249
0.844099
0.713157
0.584131
0.452925
0.323792
0.195214
0.0648744
15.16
14.5748
13.9264
13.5857
13.29
12.9536
12.4985
12.5557
12.1034
12.0086
11.787
11.7039
11.4898
11.2412
11.2375
11.0838
10.8451
10.5674
10.5797
10.5535
10.3899
10.2135
10.0295
9.88037
9.83491
9.68955
9.49307
9.4329
9.25042
9.13504
8.99694
8.87067
8.73607
8.61606
8.49072
8.36066
8.22704
8.09488
7.97298
7.84347
7.71322
7.58383
7.4473
7.32929
7.19304
7.07322
6.92568
6.79494
6.6674
6.53865
6.40329
6.29341
6.14984
6.02985
5.91039
5.77206
5.6352
5.51293
5.38072
5.24325
5.12364
5.00034
4.86721
4.7427
4.60151
4.47435
4.36421
4.21059
4.07384
3.95419
3.82575
3.69253
3.56503
3.44163
3.28162
3.18353
3.04916
2.9168
2.78854
2.64729
2.53771
2.40375
2.26817
2.13201
2.01941
1.87259
1.7532
1.62906
1.49982
1.36587
1.22777
1.10193
0.974332
0.843178
0.712713
0.585151
0.455269
0.324687
0.193739
0.0648962
15.3926
14.7303
14.3713
13.785
13.4306
12.9612
12.8779
12.4452
12.3774
12.1102
11.9485
11.9088
11.6857
11.3918
11.1416
11.0131
10.8335
10.6461
10.705
10.4907
10.3531
10.1653
9.96473
9.851
9.71601
9.6656
9.47669
9.3645
9.25529
9.11535
9.00353
8.87088
8.73804
8.60247
8.4792
8.35041
8.23196
8.10567
7.93672
7.84241
7.68798
7.58461
7.45545
7.33126
7.19689
7.06096
6.92088
6.80673
6.67354
6.52912
6.41201
6.29603
6.15808
6.01913
5.89825
5.76553
5.63149
5.51174
5.39141
5.24346
5.13546
4.98835
4.85732
4.73075
4.61686
4.46935
4.35501
4.21778
4.09182
3.96405
3.82355
3.7029
3.56614
3.43386
3.28743
3.17908
3.04861
2.91472
2.78784
2.65756
2.52182
2.40196
2.27653
2.13332
2.01521
1.88336
1.75266
1.61862
1.50413
1.3637
1.23527
1.08542
0.978941
0.843612
0.713617
0.582801
0.45359
0.324051
0.19444
0.0649391
15.6082
14.8724
14.5401
13.9401
13.5713
13.2441
12.9124
12.5293
12.4559
12.2058
12.0456
11.7752
11.6854
11.4419
11.0531
11.0993
10.8373
10.8066
10.6911
10.4031
10.447
10.2106
10.05
9.99581
9.85882
9.70003
9.51396
9.3566
9.25719
9.11182
8.98597
8.86375
8.71388
8.60926
8.46478
8.35371
8.22991
8.10651
7.96633
7.8228
7.70587
7.58135
7.45406
7.30848
7.20794
7.06674
6.92152
6.80778
6.67012
6.55963
6.40437
6.27816
6.15195
6.01388
5.90895
5.77357
5.62799
5.50432
5.37273
5.24545
5.12431
5.0098
4.86911
4.72151
4.5967
4.47384
4.3311
4.22335
4.08959
3.96549
3.82633
3.69076
3.57403
3.42731
3.29231
3.18631
3.06349
2.91208
2.79041
2.66765
2.54603
2.3857
2.2609
2.14595
2.02605
1.8799
1.75048
1.61217
1.47494
1.35801
1.2221
1.10657
0.973232
0.84297
0.715567
0.582284
0.45493
0.324706
0.194963
0.0648956
15.5893
15.0142
14.4083
14.253
13.5718
13.4258
13.0006
12.6741
12.5639
12.139
11.9977
11.9381
11.6288
11.3916
11.2965
11.1069
10.8757
10.8782
10.5923
10.3923
10.3656
10.0797
10.1657
9.87623
9.8619
9.54004
9.47219
9.41553
9.23822
9.13392
9.00407
8.86898
8.74181
8.59037
8.46927
8.34375
8.2096
8.09188
7.94652
7.82909
7.70933
7.56986
7.45096
7.31586
7.1842
7.06738
6.93066
6.78511
6.6741
6.5379
6.42705
6.26399
6.16962
6.02506
5.91074
5.77328
5.63827
5.504
5.3801
5.24396
5.12664
5.00153
4.87986
4.73379
4.59965
4.47747
4.33585
4.20053
4.07941
3.94016
3.82556
3.70057
3.56332
3.42197
3.30449
3.1685
3.0327
2.91745
2.77592
2.67496
2.53654
2.42013
2.25848
2.13926
2.02009
1.87992
1.74216
1.62187
1.48016
1.36364
1.25963
1.08848
0.978563
0.842518
0.712587
0.583821
0.453025
0.325022
0.193451
0.0649323
15.5248
15.1223
14.539
14.0381
13.584
13.4045
13.1048
12.7878
12.4558
12.263
11.9771
11.9142
11.7132
11.4669
11.2886
11.1547
10.9515
10.8991
10.5372
10.4563
10.2121
10.1346
10.1781
9.95249
9.84395
9.63158
9.56063
9.33632
9.24858
9.12953
8.9773
8.84722
8.71581
8.59896
8.46792
8.33776
8.21397
8.06806
7.96142
7.82796
7.7022
7.57462
7.4389
7.30986
7.19409
7.05223
6.9214
6.78245
6.66462
6.53897
6.40293
6.29211
6.15619
6.02922
5.91116
5.76261
5.64163
5.5077
5.36883
5.24738
5.14419
4.98766
4.86902
4.73867
4.58668
4.47743
4.3385
4.21965
4.0875
3.9494
3.82704
3.70599
3.55203
3.45506
3.31207
3.19176
3.05058
2.92407
2.79246
2.64571
2.51652
2.39781
2.28576
2.13444
2.0176
1.87366
1.73126
1.61342
1.4744
1.35543
1.23002
1.11022
0.976787
0.842573
0.71489
0.585546
0.452589
0.325054
0.194013
0.0650248
15.8267
15.2191
14.9371
14.2791
14.0415
13.4808
13.1435
12.9135
12.5896
12.4211
11.922
11.9551
11.7853
11.484
11.2068
11.2174
11.2589
10.8382
10.6935
10.2992
10.2211
10.143
10.0368
9.86675
9.78582
9.57405
9.46861
9.39317
9.25114
9.09898
8.98822
8.84914
8.72831
8.59297
8.45327
8.33502
8.21051
8.0914
7.94266
7.838
7.70143
7.5709
7.43488
7.32861
7.17938
7.05197
6.92936
6.79834
6.6675
6.54085
6.41175
6.28648
6.16463
6.02154
5.87694
5.75466
5.63122
5.50809
5.36973
5.24401
5.12773
4.98626
4.84815
4.72265
4.60369
4.47807
4.33579
4.22818
4.09176
3.98158
3.83082
3.70601
3.56299
3.4356
3.306
3.16428
3.04889
2.91626
2.78996
2.66494
2.51707
2.39793
2.26941
2.1321
2.00745
1.87817
1.73128
1.6091
1.49618
1.36337
1.23689
1.09496
0.977621
0.842967
0.714061
0.58429
0.453297
0.323598
0.192421
0.0649709
15.8454
15.3489
14.7743
14.5247
13.8548
13.6126
13.2682
12.8729
12.6009
12.3877
12.0997
12.0081
11.7076
11.544
11.1662
11.1278
10.8522
10.7194
10.7677
10.4204
10.2474
10.1554
10.0604
9.7769
9.79235
9.60406
9.55437
9.38551
9.26079
9.11574
8.97163
8.84789
8.70578
8.58475
8.47063
8.32423
8.19747
8.06913
7.95254
7.81783
7.69445
7.56349
7.43253
7.30669
7.17299
7.04007
6.91734
6.7886
6.67852
6.53688
6.4204
6.29585
6.16223
6.0286
5.88909
5.75819
5.63749
5.50906
5.3852
5.24844
5.13024
4.97463
4.85586
4.72735
4.60022
4.46303
4.34973
4.21935
4.0818
3.94753
3.83287
3.69739
3.57431
3.4341
3.31541
3.17618
3.0419
2.90308
2.78813
2.66084
2.54033
2.38487
2.27092
2.13748
2.00773
1.88528
1.7388
1.62438
1.49952
1.36416
1.23514
1.10939
0.972665
0.843183
0.712094
0.582437
0.453609
0.32531