/*--------------------------------*- C++ -*----------------------------------*\
  =========                 |
  \\      /  F ield         | OpenFOAM: The Open Source CFD Toolbox
   \\    /   O peration     | Website:  https://openfoam.org
    \\  /    A nd           | Version:  6
     \\/     M anipulation  |
\*---------------------------------------------------------------------------*/
FoamFile
{
    version     2.0;
    format      ascii;
    class       volVectorField;
    location    "0";
    object      U_rec;
}
// * * * * * * * * * * * * * * * * * * * * * * * * * * * * * * * * * * * * * //

dimensions      [0 1 -1 0 0 0 0];

internalField   nonuniform List<vector> 
9000
(
(0.598209 0.15356 0)
(0.4755 0.0662853 0)
(0.287864 0.0224702 0)
(0.202456 0.00996958 0)
(0.156178 0.00576345 0)
(0.128802 0.00300235 0)
(0.112131 0.00269118 0)
(0.100649 0.000730142 0)
(0.0920683 -3.03784e-05 0)
(0.08667 -0.000451404 0)
(0.0830075 0.00199325 0)
(0.0802136 0.0019753 0)
(0.0773179 0.00229548 0)
(0.0769677 0.00188962 0)
(0.0767672 -0.000107248 0)
(0.0755691 -0.00108781 0)
(0.0745199 -0.00104893 0)
(0.0737027 0.000465192 0)
(0.0735139 0.00127028 0)
(0.0739184 0.00255009 0)
(0.0744407 0.00133809 0)
(0.0740404 0.00204513 0)
(0.0737684 0.00111701 0)
(0.0737774 0.00105405 0)
(0.073709 0.00119156 0)
(0.0743959 0.00158012 0)
(0.073223 -0.000565897 0)
(0.0734769 0.000139797 0)
(0.0741464 -0.00108331 0)
(0.0731712 -0.00106221 0)
(0.0741605 -9.41438e-06 0)
(0.0739462 -0.00172672 0)
(0.0735805 -0.00182434 0)
(0.0737758 -0.00161102 0)
(0.073001 -0.00125336 0)
(0.0731654 -0.000864583 0)
(0.0734306 0.000214587 0)
(0.0739463 -0.00119368 0)
(0.0743674 -0.000525636 0)
(0.0749749 -0.00052287 0)
(0.0753089 -0.000332327 0)
(0.0748342 -0.000703401 0)
(0.0754584 -4.79787e-05 0)
(0.076374 1.65624e-05 0)
(0.0784617 -0.00135465 0)
(0.0804009 -0.00274406 0)
(0.0837418 -0.00249977 0)
(0.0928815 -0.000999066 0)
(0.113298 -0.00844528 0)
(0.164808 -0.0485195 0)
(0.947433 0.339461 0)
(0.862375 0.233643 0)
(0.655522 0.131133 0)
(0.517073 0.0752417 0)
(0.423804 0.0455166 0)
(0.361821 0.0279654 0)
(0.319961 0.0208217 0)
(0.28954 0.0106888 0)
(0.268115 0.00720163 0)
(0.255123 0.00359904 0)
(0.244885 0.00652495 0)
(0.235617 0.00609279 0)
(0.228161 0.00480189 0)
(0.224623 0.00501963 0)
(0.222934 0.00145138 0)
(0.221257 -0.000469752 0)
(0.220119 -0.00182846 0)
(0.2185 0.000132095 0)
(0.217743 0.00258514 0)
(0.217122 0.00440866 0)
(0.21774 0.00368624 0)
(0.217124 0.00338957 0)
(0.21604 0.00228754 0)
(0.216712 0.00304767 0)
(0.216781 0.00368959 0)
(0.21644 0.0012127 0)
(0.214684 -0.000171226 0)
(0.21553 4.80608e-05 0)
(0.216164 -0.00343775 0)
(0.216199 -0.00110815 0)
(0.216771 -0.00140563 0)
(0.215529 -0.00304975 0)
(0.216128 -0.00410447 0)
(0.216826 -0.00390244 0)
(0.215393 -0.00202492 0)
(0.216028 -0.000873661 0)
(0.215975 -0.000441048 0)
(0.217386 -0.000831704 0)
(0.219333 -0.0014743 0)
(0.220164 -0.00050593 0)
(0.220879 -0.00162848 0)
(0.221321 -0.00350324 0)
(0.223877 -0.00270641 0)
(0.225726 -0.00358182 0)
(0.230501 -0.00448964 0)
(0.238296 -0.00793346 0)
(0.251487 -0.0110917 0)
(0.27241 -0.0169602 0)
(0.309725 -0.0410849 0)
(0.382208 -0.104249 0)
(1.02557 0.32473 0)
(1.01816 0.318338 0)
(0.874966 0.22528 0)
(0.743763 0.149101 0)
(0.637869 0.0996356 0)
(0.561518 0.0672881 0)
(0.503783 0.0461093 0)
(0.460946 0.0301705 0)
(0.431157 0.0222145 0)
(0.411738 0.0159855 0)
(0.397171 0.0123333 0)
(0.382003 0.00813888 0)
(0.371526 0.00733939 0)
(0.365906 0.0079169 0)
(0.3618 0.00339656 0)
(0.35871 0.00126432 0)
(0.357024 0.000950988 0)
(0.356242 0.000510228 0)
(0.355162 0.00332133 0)
(0.353681 0.00370976 0)
(0.353514 0.00534323 0)
(0.352231 0.00233466 0)
(0.351951 0.0027979 0)
(0.353149 0.00369999 0)
(0.3508 0.00390745 0)
(0.3505 0.000397106 0)
(0.350094 -0.000279338 0)
(0.348993 -0.00242954 0)
(0.35126 -0.00502045 0)
(0.351799 -0.00225934 0)
(0.351411 -0.00316596 0)
(0.350152 -0.00296553 0)
(0.350468 -0.00307296 0)
(0.352901 -0.00333876 0)
(0.35197 -0.00149482 0)
(0.351433 0.000367884 0)
(0.352051 0.000240593 0)
(0.353716 0.00125063 0)
(0.356238 -0.0015804 0)
(0.357787 -0.000466028 0)
(0.357966 -0.00242575 0)
(0.360504 -0.00491707 0)
(0.365094 -0.00660875 0)
(0.369512 -0.00826775 0)
(0.377449 -0.0104475 0)
(0.388689 -0.0154319 0)
(0.408212 -0.0232678 0)
(0.437034 -0.0428308 0)
(0.480657 -0.0761869 0)
(0.545493 -0.149862 0)
(1.03748 0.279967 0)
(1.07621 0.350293 0)
(0.995875 0.294261 0)
(0.896575 0.216587 0)
(0.801708 0.157193 0)
(0.722864 0.112172 0)
(0.661358 0.0775405 0)
(0.614928 0.0576768 0)
(0.579977 0.0429412 0)
(0.554869 0.03184 0)
(0.535056 0.0225097 0)
(0.519216 0.0142841 0)
(0.508134 0.0132709 0)
(0.498197 0.0104701 0)
(0.491905 0.00578984 0)
(0.489994 0.00346252 0)
(0.487335 0.00288273 0)
(0.485726 0.00164474 0)
(0.484684 0.00354233 0)
(0.482876 0.00189162 0)
(0.481574 0.00399942 0)
(0.47987 0.000826423 0)
(0.480524 0.00266705 0)
(0.481179 0.00250265 0)
(0.478333 0.00226294 0)
(0.477044 0.000454363 0)
(0.475944 -0.00210785 0)
(0.47556 -0.00141735 0)
(0.478918 -0.00393928 0)
(0.479906 -0.00296674 0)
(0.479619 -0.00143422 0)
(0.478586 -0.0020159 0)
(0.478601 -0.00101518 0)
(0.480924 -0.00251329 0)
(0.480977 -0.00241625 0)
(0.480614 0.00101918 0)
(0.480821 -3.88949e-05 0)
(0.481904 0.00041738 0)
(0.485345 -0.00166455 0)
(0.488308 -0.00249751 0)
(0.48882 -0.00505618 0)
(0.491816 -0.0061163 0)
(0.498293 -0.00976005 0)
(0.504619 -0.0124598 0)
(0.51497 -0.017912 0)
(0.530514 -0.0268346 0)
(0.551862 -0.0407633 0)
(0.584118 -0.0681544 0)
(0.627714 -0.109076 0)
(0.680153 -0.184688 0)
(1.03274 0.237134 0)
(1.09071 0.353416 0)
(1.06023 0.333549 0)
(0.995367 0.269102 0)
(0.920693 0.204698 0)
(0.850544 0.152809 0)
(0.794077 0.115827 0)
(0.7488 0.0858425 0)
(0.711055 0.0656278 0)
(0.684109 0.0488571 0)
(0.662651 0.0350679 0)
(0.645768 0.0246723 0)
(0.633415 0.0200448 0)
(0.621837 0.0132651 0)
(0.615096 0.00884113 0)
(0.61198 0.00603409 0)
(0.608852 0.00285525 0)
(0.607958 0.00143397 0)
(0.605801 0.0037849 0)
(0.603732 0.00391491 0)
(0.602477 0.00295592 0)
(0.600874 0.000204992 0)
(0.601788 0.00109173 0)
(0.601695 0.000258622 0)
(0.598286 0.000699272 0)
(0.59599 0.00012975 0)
(0.597058 -0.00153211 0)
(0.596078 0.000629148 0)
(0.598104 -0.00142283 0)
(0.60115 -0.00240056 0)
(0.600405 0.00059546 0)
(0.598851 0.000388951 0)
(0.598398 0.000548213 0)
(0.600635 -0.000477645 0)
(0.603042 -0.000163562 0)
(0.601987 -0.000179109 0)
(0.601327 -0.00227212 0)
(0.603761 -0.00170428 0)
(0.607199 -0.00494336 0)
(0.610253 -0.00574262 0)
(0.612285 -0.00940785 0)
(0.616589 -0.0105076 0)
(0.623684 -0.0147819 0)
(0.632073 -0.0209725 0)
(0.643677 -0.0297141 0)
(0.660241 -0.0407799 0)
(0.68318 -0.0585085 0)
(0.715879 -0.0890211 0)
(0.754641 -0.135546 0)
(0.79452 -0.206094 0)
(1.02728 0.200155 0)
(1.08858 0.340723 0)
(1.0893 0.348868 0)
(1.05489 0.301609 0)
(1.0045 0.241892 0)
(0.952738 0.191497 0)
(0.903176 0.149393 0)
(0.861065 0.112314 0)
(0.827247 0.0868778 0)
(0.799228 0.0661162 0)
(0.776964 0.0481864 0)
(0.761561 0.0360394 0)
(0.748713 0.026501 0)
(0.735791 0.0175181 0)
(0.729288 0.01354 0)
(0.725929 0.00948404 0)
(0.722352 0.00569385 0)
(0.722754 0.00515079 0)
(0.721805 0.00539348 0)
(0.717178 0.00460978 0)
(0.71377 0.0030597 0)
(0.713089 0.001302 0)
(0.714314 0.000922698 0)
(0.714654 -0.000656723 0)
(0.71201 -0.000704535 0)
(0.708947 0.00234752 0)
(0.709552 -0.000307435 0)
(0.709117 0.000200681 0)
(0.710254 0.00111214 0)
(0.71446 -0.00110342 0)
(0.715167 0.000734751 0)
(0.712373 0.000409302 0)
(0.711611 0.0036323 0)
(0.714212 0.00374864 0)
(0.71516 0.00238429 0)
(0.713732 -0.000844569 0)
(0.715197 -0.00162238 0)
(0.717045 -0.00279778 0)
(0.721228 -0.0064256 0)
(0.725547 -0.00893694 0)
(0.727777 -0.010953 0)
(0.733055 -0.015318 0)
(0.740058 -0.0206167 0)
(0.748729 -0.0296586 0)
(0.762929 -0.0409792 0)
(0.782106 -0.0552404 0)
(0.803372 -0.0740049 0)
(0.832712 -0.105974 0)
(0.866604 -0.155425 0)
(0.895543 -0.22213 0)
(1.02133 0.169324 0)
(1.07958 0.317183 0)
(1.09992 0.347969 0)
(1.09062 0.319837 0)
(1.06495 0.271819 0)
(1.02934 0.222791 0)
(0.989488 0.175512 0)
(0.955799 0.13621 0)
(0.926482 0.105532 0)
(0.900942 0.0796135 0)
(0.881012 0.0596975 0)
(0.865874 0.0451419 0)
(0.85249 0.0323543 0)
(0.841851 0.0230826 0)
(0.835941 0.0176368 0)
(0.831234 0.0125114 0)
(0.828715 0.00802576 0)
(0.829097 0.00845591 0)
(0.825842 0.00657912 0)
(0.821982 0.00302747 0)
(0.819853 0.00302524 0)
(0.818776 0.00153773 0)
(0.81921 -0.000679242 0)
(0.819377 -0.0002803 0)
(0.818924 -0.0016923 0)
(0.81468 0.00129475 0)
(0.814334 0.000489778 0)
(0.815792 -0.000318016 0)
(0.815916 0.00148509 0)
(0.819634 0.00178458 0)
(0.82042 0.00142597 0)
(0.819562 0.00119034 0)
(0.819154 0.00360315 0)
(0.818701 0.00371269 0)
(0.819571 0.00106481 0)
(0.819526 -0.00159853 0)
(0.821112 -0.00181558 0)
(0.823035 -0.00447572 0)
(0.827013 -0.00569791 0)
(0.832606 -0.01047 0)
(0.835512 -0.0130327 0)
(0.840659 -0.0186582 0)
(0.84851 -0.0251291 0)
(0.857796 -0.0351525 0)
(0.87214 -0.0478254 0)
(0.89178 -0.0662375 0)
(0.913076 -0.0905273 0)
(0.937239 -0.123025 0)
(0.963087 -0.171482 0)
(0.9838 -0.234211 0)
(1.01764 0.144121 0)
(1.07047 0.289443 0)
(1.10204 0.335398 0)
(1.11212 0.324859 0)
(1.10509 0.288537 0)
(1.08564 0.23972 0)
(1.05811 0.19394 0)
(1.03371 0.153583 0)
(1.01036 0.117657 0)
(0.989048 0.0899975 0)
(0.972576 0.06815 0)
(0.959852 0.0512587 0)
(0.948239 0.0376552 0)
(0.938108 0.0290687 0)
(0.932454 0.0203143 0)
(0.928498 0.0140225 0)
(0.926923 0.00922689 0)
(0.927962 0.00733992 0)
(0.923698 0.0047304 0)
(0.919631 0.00568947 0)
(0.917288 0.00230187 0)
(0.914957 0.00153287 0)
(0.916893 1.74022e-05 0)
(0.917887 -0.000711582 0)
(0.916959 -0.00181203 0)
(0.913948 -0.00153154 0)
(0.91243 0.00227961 0)
(0.913782 0.000263736 0)
(0.915389 -0.000763444 0)
(0.918238 0.000890357 0)
(0.918858 -0.000487242 0)
(0.917698 0.00219369 0)
(0.917115 0.000740747 0)
(0.916952 0.000818132 0)
(0.916792 -0.00153256 0)
(0.917513 -0.00243265 0)
(0.919771 -0.00388402 0)
(0.922022 -0.00656202 0)
(0.92616 -0.00681053 0)
(0.931295 -0.0103374 0)
(0.935212 -0.0173791 0)
(0.940944 -0.0225902 0)
(0.948581 -0.0315719 0)
(0.957404 -0.0423318 0)
(0.971475 -0.0553915 0)
(0.98957 -0.0769725 0)
(1.00926 -0.103064 0)
(1.03072 -0.13914 0)
(1.05029 -0.185615 0)
(1.06284 -0.241362 0)
(1.01362 0.124422 0)
(1.06049 0.261422 0)
(1.1001 0.315717 0)
(1.12489 0.316457 0)
(1.13202 0.289587 0)
(1.12552 0.245613 0)
(1.11228 0.204074 0)
(1.09651 0.165797 0)
(1.0808 0.128209 0)
(1.06634 0.0986315 0)
(1.05415 0.0749929 0)
(1.04383 0.0580167 0)
(1.03461 0.0430197 0)
(1.02589 0.0321632 0)
(1.02033 0.0248173 0)
(1.01731 0.017143 0)
(1.01627 0.0109418 0)
(1.0172 0.00762275 0)
(1.01505 0.00246873 0)
(1.0103 0.00481161 0)
(1.00686 0.00229353 0)
(1.00669 0.00362776 0)
(1.00675 0.0025154 0)
(1.00722 -0.00255136 0)
(1.00752 -0.00256312 0)
(1.00593 -0.00437625 0)
(1.0043 -0.000958351 0)
(1.00289 -0.000856249 0)
(1.00507 -0.00140959 0)
(1.00849 -0.00252036 0)
(1.01032 -0.0030043 0)
(1.00941 -0.00156347 0)
(1.00758 -0.00164899 0)
(1.00715 -0.000870369 0)
(1.00798 -0.00110256 0)
(1.00887 -0.00302486 0)
(1.00992 -0.00527459 0)
(1.01367 -0.00765137 0)
(1.01848 -0.00930168 0)
(1.02155 -0.0130686 0)
(1.02569 -0.0210929 0)
(1.03222 -0.0267313 0)
(1.0396 -0.0370956 0)
(1.04972 -0.049298 0)
(1.06153 -0.0633136 0)
(1.07809 -0.085412 0)
(1.09569 -0.112467 0)
(1.11165 -0.149379 0)
(1.12734 -0.195113 0)
(1.13482 -0.247272 0)
(1.01087 0.105449 0)
(1.0522 0.232325 0)
(1.09483 0.291848 0)
(1.12955 0.301642 0)
(1.14875 0.282888 0)
(1.15619 0.246545 0)
(1.15612 0.208889 0)
(1.14878 0.172061 0)
(1.13933 0.138006 0)
(1.13145 0.107278 0)
(1.12494 0.080728 0)
(1.11883 0.0634195 0)
(1.11095 0.0472842 0)
(1.10517 0.0348615 0)
(1.10106 0.0281054 0)
(1.09716 0.0204525 0)
(1.09745 0.0150198 0)
(1.09857 0.00857508 0)
(1.09743 0.00409131 0)
(1.09444 0.00266545 0)
(1.09125 0.00489139 0)
(1.0896 0.00531304 0)
(1.08711 0.00222918 0)
(1.08893 -0.00266084 0)
(1.09006 -0.00333732 0)
(1.0884 -0.00485223 0)
(1.08827 -0.00290384 0)
(1.08732 -0.00313313 0)
(1.08797 -0.000646876 0)
(1.09108 -0.00319596 0)
(1.09352 -0.00378383 0)
(1.09284 -0.0051157 0)
(1.09229 -0.00365318 0)
(1.09267 -0.00255671 0)
(1.09096 -0.00152325 0)
(1.09069 -0.00340723 0)
(1.09346 -0.00452529 0)
(1.09717 -0.00788321 0)
(1.10184 -0.0124 0)
(1.10466 -0.0165095 0)
(1.10963 -0.0232763 0)
(1.11598 -0.030554 0)
(1.12208 -0.0423135 0)
(1.13158 -0.054759 0)
(1.14297 -0.0732931 0)
(1.15698 -0.0935457 0)
(1.17137 -0.124504 0)
(1.18365 -0.157724 0)
(1.19403 -0.200966 0)
(1.19868 -0.248783 0)
(1.00866 0.089303 0)
(1.04616 0.205162 0)
(1.09113 0.26577 0)
(1.13224 0.283804 0)
(1.16022 0.270816 0)
(1.17775 0.242375 0)
(1.18855 0.207022 0)
(1.19111 0.172119 0)
(1.18958 0.140186 0)
(1.18627 0.111706 0)
(1.18609 0.0857332 0)
(1.18409 0.0664191 0)
(1.17851 0.049906 0)
(1.17637 0.0366949 0)
(1.17327 0.0271574 0)
(1.17077 0.0219279 0)
(1.16981 0.0171471 0)
(1.17108 0.0103599 0)
(1.17198 0.00602329 0)
(1.17067 0.00337307 0)
(1.16829 0.00512962 0)
(1.16433 0.00457082 0)
(1.16074 0.00146528 0)
(1.16309 0.000254641 0)
(1.16507 -0.00313497 0)
(1.16475 -0.00395577 0)
(1.16407 -0.00186089 0)
(1.16297 -9.63171e-05 0)
(1.16389 -0.00245014 0)
(1.16579 -0.0018889 0)
(1.16832 -0.0042281 0)
(1.16928 -0.00553601 0)
(1.16929 -0.00420996 0)
(1.16877 -0.00432478 0)
(1.16793 -0.0038358 0)
(1.16785 -0.00351632 0)
(1.1689 -0.00449862 0)
(1.1716 -0.00798378 0)
(1.17741 -0.0131898 0)
(1.18043 -0.018918 0)
(1.18472 -0.0246468 0)
(1.18979 -0.0357477 0)
(1.196 -0.0481232 0)
(1.20462 -0.0622889 0)
(1.21431 -0.0804293 0)
(1.22629 -0.102809 0)
(1.23835 -0.131784 0)
(1.24795 -0.16625 0)
(1.25339 -0.205269 0)
(1.25465 -0.248124 0)
(1.00773 0.0775087 0)
(1.04167 0.182087 0)
(1.08703 0.239605 0)
(1.13198 0.260047 0)
(1.16665 0.252564 0)
(1.19377 0.230883 0)
(1.21351 0.199024 0)
(1.22487 0.1668 0)
(1.23084 0.136906 0)
(1.23397 0.109002 0)
(1.23789 0.0856676 0)
(1.24009 0.0670545 0)
(1.2376 0.051147 0)
(1.2371 0.0356121 0)
(1.23779 0.0248303 0)
(1.23697 0.0199554 0)
(1.23571 0.0150738 0)
(1.23721 0.0119412 0)
(1.23812 0.00720206 0)
(1.23851 0.00390864 0)
(1.23638 0.00359035 0)
(1.23141 0.00306622 0)
(1.22819 0.00144468 0)
(1.22985 0.00109212 0)
(1.2312 -0.00301187 0)
(1.23303 -0.00304793 0)
(1.23448 -0.00178457 0)
(1.2311 -0.000842502 0)
(1.23106 -0.00259305 0)
(1.23421 -0.00116042 0)
(1.23596 -0.00328366 0)
(1.23785 -0.00328865 0)
(1.23812 -0.00377136 0)
(1.23785 -0.00553719 0)
(1.23707 -0.00536135 0)
(1.23641 -0.00626218 0)
(1.23787 -0.00870995 0)
(1.24008 -0.00994291 0)
(1.24435 -0.013735 0)
(1.24823 -0.0214145 0)
(1.25096 -0.0280823 0)
(1.25495 -0.0398415 0)
(1.2612 -0.0517864 0)
(1.26917 -0.067042 0)
(1.27778 -0.0845157 0)
(1.28768 -0.107673 0)
(1.29574 -0.134793 0)
(1.30203 -0.170905 0)
(1.30555 -0.206485 0)
(1.30322 -0.245961 0)
(1.00675 0.0654311 0)
(1.03782 0.157128 0)
(1.08275 0.212061 0)
(1.13061 0.229981 0)
(1.1717 0.229466 0)
(1.20457 0.213432 0)
(1.2316 0.184552 0)
(1.25163 0.156085 0)
(1.26418 0.127578 0)
(1.27288 0.102238 0)
(1.28319 0.0809357 0)
(1.2891 0.0632508 0)
(1.28731 0.0486119 0)
(1.28933 0.0349568 0)
(1.29334 0.024873 0)
(1.29485 0.019512 0)
(1.29472 0.0144126 0)
(1.29607 0.0109625 0)
(1.29646 0.00670267 0)
(1.29747 0.00341467 0)
(1.29668 0.00159968 0)
(1.29193 0.00127599 0)
(1.28811 0.0012191 0)
(1.2889 0.00117864 0)
(1.29115 -0.000173506 0)
(1.29424 0.000396268 0)
(1.29407 -0.00230314 0)
(1.29152 -0.00157583 0)
(1.2931 -0.000163039 0)
(1.29457 -0.0013616 0)
(1.29638 -0.00123417 0)
(1.29853 -0.00242198 0)
(1.29785 -0.00377708 0)
(1.298 -0.00664487 0)
(1.29806 -0.00797689 0)
(1.29714 -0.00961007 0)
(1.29902 -0.011339 0)
(1.30186 -0.0114118 0)
(1.30449 -0.0163046 0)
(1.30677 -0.0238436 0)
(1.3095 -0.0314603 0)
(1.31306 -0.0414145 0)
(1.3189 -0.0537094 0)
(1.32579 -0.0685683 0)
(1.33261 -0.0883804 0)
(1.34011 -0.110972 0)
(1.34472 -0.137266 0)
(1.34842 -0.170849 0)
(1.34983 -0.20307 0)
(1.34465 -0.240965 0)
(1.00639 0.0544565 0)
(1.0363 0.134393 0)
(1.07878 0.183471 0)
(1.12809 0.203245 0)
(1.17535 0.202887 0)
(1.21181 0.189779 0)
(1.24509 0.164454 0)
(1.27214 0.139714 0)
(1.29112 0.114687 0)
(1.30631 0.0938418 0)
(1.32016 0.0749638 0)
(1.3298 0.0575259 0)
(1.332 0.0459155 0)
(1.33561 0.0352219 0)
(1.34213 0.0253665 0)
(1.34472 0.0205866 0)
(1.34488 0.013386 0)
(1.34623 0.0106183 0)
(1.34754 0.00580889 0)
(1.34899 0.00264529 0)
(1.34896 -0.00117474 0)
(1.34488 -0.00166485 0)
(1.34164 -5.29471e-05 0)
(1.34235 0.00285547 0)
(1.3441 0.00400841 0)
(1.34543 0.0021401 0)
(1.3467 -0.00103844 0)
(1.34604 -0.000399828 0)
(1.34534 0.00128355 0)
(1.34778 0.000471011 0)
(1.34941 0.000158018 0)
(1.35058 -0.00116833 0)
(1.35046 -0.00369072 0)
(1.35086 -0.00527797 0)
(1.35113 -0.00826171 0)
(1.35078 -0.00930827 0)
(1.35419 -0.0107083 0)
(1.35508 -0.0125593 0)
(1.35562 -0.018852 0)
(1.35842 -0.0248292 0)
(1.36101 -0.0328509 0)
(1.36342 -0.0427631 0)
(1.36813 -0.0550241 0)
(1.3732 -0.0705087 0)
(1.37842 -0.089876 0)
(1.38479 -0.112563 0)
(1.3866 -0.138619 0)
(1.38803 -0.167249 0)
(1.38672 -0.199122 0)
(1.37893 -0.233551 0)
(1.00656 0.0439188 0)
(1.03471 0.11175 0)
(1.07696 0.152754 0)
(1.12619 0.175279 0)
(1.17496 0.174669 0)
(1.21588 0.161326 0)
(1.25392 0.144919 0)
(1.28856 0.12206 0)
(1.31386 0.101318 0)
(1.33363 0.0826838 0)
(1.3511 0.0675732 0)
(1.36489 0.0524737 0)
(1.37 0.041037 0)
(1.374 0.0324684 0)
(1.38286 0.0256909 0)
(1.38612 0.0181905 0)
(1.38752 0.0111495 0)
(1.39037 0.00925434 0)
(1.39047 0.00560307 0)
(1.39202 0.000787238 0)
(1.39284 -0.00132874 0)
(1.39135 -0.0041117 0)
(1.38958 -0.000222206 0)
(1.38979 0.00309765 0)
(1.38913 0.00334044 0)
(1.38951 0.00151601 0)
(1.39097 -0.000237544 0)
(1.39157 -0.00180096 0)
(1.39237 0.00085106 0)
(1.39288 0.00354798 0)
(1.39451 0.00136517 0)
(1.39555 0.000136254 0)
(1.39531 -0.00316553 0)
(1.39567 -0.00516058 0)
(1.39644 -0.00705783 0)
(1.39711 -0.00717909 0)
(1.3992 -0.0103654 0)
(1.39975 -0.0147148 0)
(1.40018 -0.0205813 0)
(1.4024 -0.0274571 0)
(1.40367 -0.0360734 0)
(1.40612 -0.0443174 0)
(1.40981 -0.0563246 0)
(1.41317 -0.0718544 0)
(1.41671 -0.0893321 0)
(1.42065 -0.111606 0)
(1.42149 -0.138963 0)
(1.42063 -0.163664 0)
(1.41624 -0.194671 0)
(1.40759 -0.226683 0)
(1.00715 0.033479 0)
(1.03396 0.0890959 0)
(1.07551 0.12319 0)
(1.1251 0.141394 0)
(1.17349 0.142285 0)
(1.21981 0.132683 0)
(1.26293 0.12291 0)
(1.29948 0.104004 0)
(1.33046 0.0853559 0)
(1.35582 0.0696951 0)
(1.37696 0.0569344 0)
(1.39188 0.0441676 0)
(1.40043 0.0335144 0)
(1.40795 0.0275283 0)
(1.41637 0.0246286 0)
(1.41902 0.0146959 0)
(1.42302 0.0115213 0)
(1.4268 0.0065385 0)
(1.42593 0.00344705 0)
(1.42864 4.76533e-05 0)
(1.42935 -0.000165954 0)
(1.4294 -0.00256077 0)
(1.42995 -0.000153413 0)
(1.4283 0.00165416 0)
(1.42671 -0.00160213 0)
(1.4267 -0.000514627 0)
(1.42816 -0.00250663 0)
(1.42997 -0.00108733 0)
(1.43213 0.00105749 0)
(1.43189 0.00264848 0)
(1.43111 0.00208938 0)
(1.43221 -0.000935841 0)
(1.43229 -0.00344714 0)
(1.43395 -0.00711526 0)
(1.43572 -0.00666556 0)
(1.43528 -0.0099533 0)
(1.43624 -0.011008 0)
(1.43648 -0.0176395 0)
(1.43573 -0.0225028 0)
(1.4377 -0.0294433 0)
(1.4405 -0.0383545 0)
(1.44236 -0.0465459 0)
(1.44338 -0.0580082 0)
(1.44588 -0.0721922 0)
(1.44739 -0.089215 0)
(1.44836 -0.111094 0)
(1.44794 -0.136846 0)
(1.44623 -0.161285 0)
(1.43829 -0.189482 0)
(1.42729 -0.219741 0)
(1.00804 0.0264359 0)
(1.03374 0.0663896 0)
(1.07337 0.0948924 0)
(1.1227 0.108508 0)
(1.17293 0.110952 0)
(1.22335 0.107146 0)
(1.26894 0.0964955 0)
(1.30803 0.0831376 0)
(1.34335 0.0680353 0)
(1.37238 0.0546135 0)
(1.39639 0.0443022 0)
(1.41389 0.03323 0)
(1.42528 0.0253142 0)
(1.43539 0.0200752 0)
(1.44271 0.0178939 0)
(1.44603 0.0127194 0)
(1.45115 0.0107298 0)
(1.45386 0.00534108 0)
(1.45492 0.00290796 0)
(1.45846 0.00165366 0)
(1.45955 0.00113653 0)
(1.45992 -0.000551879 0)
(1.46058 -0.00104314 0)
(1.45714 0.000765261 0)
(1.45626 -0.00215736 0)
(1.45761 -0.00195782 0)
(1.45885 -0.00136331 0)
(1.46157 0.000761745 0)
(1.46294 0.00195054 0)
(1.4623 0.00109877 0)
(1.4613 0.00102843 0)
(1.46154 0.000655539 0)
(1.46159 -0.00272468 0)
(1.46435 -0.00679586 0)
(1.46565 -0.00727542 0)
(1.46578 -0.0113684 0)
(1.46624 -0.0140988 0)
(1.465 -0.020875 0)
(1.46593 -0.0254952 0)
(1.46629 -0.0291727 0)
(1.46802 -0.0391472 0)
(1.4696 -0.0495432 0)
(1.47056 -0.0601322 0)
(1.47116 -0.073628 0)
(1.47024 -0.089417 0)
(1.46865 -0.110292 0)
(1.46791 -0.132775 0)
(1.46407 -0.157705 0)
(1.45431 -0.185669 0)
(1.44178 -0.21098 0)
(1.00612 0.021332 0)
(1.03195 0.0462944 0)
(1.07307 0.0659082 0)
(1.12224 0.0756332 0)
(1.17419 0.0804061 0)
(1.22502 0.0780976 0)
(1.27226 0.0701029 0)
(1.31442 0.059667 0)
(1.35161 0.050196 0)
(1.38454 0.0394578 0)
(1.41061 0.0316896 0)
(1.42915 0.0232344 0)
(1.44294 0.0173516 0)
(1.45529 0.0137744 0)
(1.46427 0.00789515 0)
(1.46773 0.00677971 0)
(1.47166 0.00468443 0)
(1.47487 0.0032383 0)
(1.47694 0.00381181 0)
(1.48085 0.00318049 0)
(1.4812 0.00318191 0)
(1.48112 -0.000489493 0)
(1.48375 -0.00137398 0)
(1.48067 0.000185099 0)
(1.47789 -0.000147552 0)
(1.48032 -0.000884363 0)
(1.48289 0.000739488 0)
(1.48533 0.00236116 0)
(1.48578 0.00144798 0)
(1.4851 0.00121986 0)
(1.48488 -0.000396853 0)
(1.4844 -0.000323016 0)
(1.48251 -0.00292793 0)
(1.48614 -0.00539798 0)
(1.48842 -0.0102731 0)
(1.48697 -0.0113608 0)
(1.48721 -0.015993 0)
(1.4865 -0.023034 0)
(1.48839 -0.0278542 0)
(1.4877 -0.0316459 0)
(1.48746 -0.0411875 0)
(1.48943 -0.0505018 0)
(1.48916 -0.0619986 0)
(1.48871 -0.0750897 0)
(1.48632 -0.0903744 0)
(1.48268 -0.107889 0)
(1.47992 -0.128099 0)
(1.47383 -0.152026 0)
(1.46374 -0.176592 0)
(1.45098 -0.201104 0)
(1.00441 0.0127206 0)
(1.02908 0.0289584 0)
(1.0708 0.0387016 0)
(1.12226 0.0445343 0)
(1.17525 0.0452382 0)
(1.22639 0.0436119 0)
(1.2743 0.0397611 0)
(1.31855 0.0335916 0)
(1.35821 0.0302814 0)
(1.39163 0.0240644 0)
(1.41938 0.0194619 0)
(1.44012 0.0139325 0)
(1.4556 0.00977141 0)
(1.46662 0.00940241 0)
(1.47576 0.00293209 0)
(1.48191 0.00146897 0)
(1.48685 0.00118582 0)
(1.49107 0.00179654 0)
(1.49296 0.00211056 0)
(1.49604 0.00219003 0)
(1.495 0.00280847 0)
(1.49504 -8.9069e-05 0)
(1.49939 0.000309546 0)
(1.49574 -0.00021661 0)
(1.49333 0.00014128 0)
(1.49604 0.00086105 0)
(1.499 0.00131313 0)
(1.50069 0.00287023 0)
(1.50082 0.002557 0)
(1.50004 0.00215324 0)
(1.49928 0.00102505 0)
(1.49931 -0.0024542 0)
(1.49783 -0.00336092 0)
(1.49945 -0.0046367 0)
(1.50218 -0.0113883 0)
(1.50294 -0.0129278 0)
(1.50049 -0.0143947 0)
(1.49966 -0.0216685 0)
(1.5033 -0.0269897 0)
(1.50132 -0.0347696 0)
(1.50034 -0.0411738 0)
(1.50138 -0.0484876 0)
(1.5002 -0.0606817 0)
(1.49905 -0.0719837 0)
(1.49557 -0.0881081 0)
(1.49111 -0.105529 0)
(1.48578 -0.122817 0)
(1.47881 -0.143972 0)
(1.46671 -0.16559 0)
(1.45155 -0.190041 0)
(1.00465 0.00459359 0)
(1.02855 0.00847328 0)
(1.07027 0.0102632 0)
(1.12079 0.0134823 0)
(1.17389 0.0112229 0)
(1.22711 0.0107434 0)
(1.27615 0.00921222 0)
(1.32216 0.0106617 0)
(1.36198 0.0102946 0)
(1.39604 0.00755303 0)
(1.42401 0.00421461 0)
(1.44428 0.00126976 0)
(1.46187 -0.00165359 0)
(1.47346 -0.000129869 0)
(1.48183 -0.000583054 0)
(1.48904 -0.000199455 0)
(1.49451 -0.000234823 0)
(1.49811 2.5782e-05 0)
(1.49999 -0.00110861 0)
(1.50394 0.000208885 0)
(1.50235 0.000587364 0)
(1.50241 0.00147472 0)
(1.5067 0.000865442 0)
(1.50324 -0.0021471 0)
(1.50148 0.000699538 0)
(1.50425 0.00142845 0)
(1.50745 0.00268636 0)
(1.50931 0.00256833 0)
(1.50879 0.00436553 0)
(1.50776 0.00231895 0)
(1.50616 0.00111889 0)
(1.50578 -0.00132137 0)
(1.50537 -0.00324552 0)
(1.50585 -0.00472676 0)
(1.50821 -0.00993976 0)
(1.51096 -0.0119072 0)
(1.50789 -0.0143354 0)
(1.50558 -0.0174734 0)
(1.50788 -0.0234782 0)
(1.50708 -0.0331267 0)
(1.50753 -0.039591 0)
(1.5066 -0.0462576 0)
(1.50431 -0.0561529 0)
(1.50146 -0.0691599 0)
(1.49574 -0.0835766 0)
(1.49176 -0.100858 0)
(1.48587 -0.118186 0)
(1.47648 -0.137908 0)
(1.46316 -0.159449 0)
(1.44537 -0.181847 0)
(1.0029 -0.00183162 0)
(1.0259 -0.0112211 0)
(1.0701 -0.0155297 0)
(1.12127 -0.0195644 0)
(1.17392 -0.0228654 0)
(1.22724 -0.0224506 0)
(1.2777 -0.0223714 0)
(1.32377 -0.0159647 0)
(1.36185 -0.0118906 0)
(1.39427 -0.0110976 0)
(1.4221 -0.0118732 0)
(1.44359 -0.00902704 0)
(1.46195 -0.00974085 0)
(1.4751 -0.00854432 0)
(1.48318 -0.00649446 0)
(1.48963 -0.00519493 0)
(1.49467 -0.00185307 0)
(1.49783 -0.0029665 0)
(1.50051 -0.00240782 0)
(1.50465 -0.00061431 0)
(1.50338 -0.00249005 0)
(1.50277 0.000722448 0)
(1.50464 -0.00133536 0)
(1.50346 -0.00360608 0)
(1.50356 0.0016843 0)
(1.50535 0.00321639 0)
(1.50796 0.003908 0)
(1.51 0.00327006 0)
(1.50925 0.00375364 0)
(1.50636 0.00171086 0)
(1.50588 0.000566799 0)
(1.50551 -0.00252105 0)
(1.50485 -0.00438643 0)
(1.5047 -0.00396922 0)
(1.50758 -0.00716914 0)
(1.5107 -0.00809189 0)
(1.50834 -0.0138061 0)
(1.50579 -0.0160147 0)
(1.5055 -0.0221677 0)
(1.5041 -0.0290558 0)
(1.50547 -0.0364714 0)
(1.50469 -0.0453885 0)
(1.50026 -0.0540108 0)
(1.4962 -0.0669588 0)
(1.49057 -0.0805596 0)
(1.48445 -0.0938236 0)
(1.47773 -0.113842 0)
(1.46709 -0.131354 0)
(1.45239 -0.152011 0)
(1.4344 -0.171367 0)
(1.00217 -0.0123141 0)
(1.02648 -0.030779 0)
(1.07005 -0.0420806 0)
(1.11886 -0.0528292 0)
(1.17291 -0.0571835 0)
(1.22602 -0.0569123 0)
(1.27735 -0.0525822 0)
(1.32442 -0.0452752 0)
(1.35992 -0.0377545 0)
(1.39026 -0.0310553 0)
(1.41867 -0.0248839 0)
(1.43868 -0.0191314 0)
(1.45525 -0.0168373 0)
(1.46822 -0.0148617 0)
(1.47626 -0.0117021 0)
(1.48424 -0.00930777 0)
(1.48826 -0.00624111 0)
(1.49017 -0.00598951 0)
(1.49379 -0.00368037 0)
(1.49639 -0.0026883 0)
(1.49574 -0.00354731 0)
(1.49568 -0.000553404 0)
(1.49686 -0.000397449 0)
(1.498 -0.000190296 0)
(1.49866 0.00252811 0)
(1.49845 0.00305185 0)
(1.50052 0.00452123 0)
(1.5027 0.00222112 0)
(1.50124 -0.000903068 0)
(1.49936 0.000812815 0)
(1.49684 0.000612803 0)
(1.49621 -0.00372205 0)
(1.49853 -0.0036593 0)
(1.49838 -0.00383791 0)
(1.50058 -0.00452478 0)
(1.50217 -0.0074385 0)
(1.49895 -0.0125553 0)
(1.49683 -0.0171876 0)
(1.49649 -0.0228435 0)
(1.49536 -0.0270365 0)
(1.49537 -0.0337319 0)
(1.49401 -0.0460469 0)
(1.48955 -0.0538345 0)
(1.48403 -0.0657838 0)
(1.4783 -0.0787573 0)
(1.47062 -0.089138 0)
(1.46224 -0.106011 0)
(1.45169 -0.123281 0)
(1.43608 -0.141399 0)
(1.41879 -0.156903 0)
(1.00317 -0.021916 0)
(1.02776 -0.0506202 0)
(1.06996 -0.0721397 0)
(1.11875 -0.0843098 0)
(1.1721 -0.0887027 0)
(1.22538 -0.0886567 0)
(1.27575 -0.079683 0)
(1.32017 -0.0699838 0)
(1.35469 -0.0594418 0)
(1.38421 -0.0482388 0)
(1.41002 -0.038734 0)
(1.42765 -0.0309101 0)
(1.44327 -0.0248199 0)
(1.45606 -0.0210825 0)
(1.46391 -0.0148274 0)
(1.47037 -0.0113733 0)
(1.47387 -0.0115065 0)
(1.47652 -0.0083156 0)
(1.4796 -0.00353636 0)
(1.48195 -0.00484736 0)
(1.48193 -0.00241751 0)
(1.48209 -2.39641e-06 0)
(1.48254 0.00115271 0)
(1.48322 0.00194363 0)
(1.48352 0.000916369 0)
(1.48465 0.000787185 0)
(1.48545 0.0033878 0)
(1.48493 0.000162805 0)
(1.48652 -0.00327914 0)
(1.48561 -0.00138267 0)
(1.48137 -0.0014305 0)
(1.48164 -0.0023125 0)
(1.48378 -0.00271078 0)
(1.48339 -0.00549601 0)
(1.48513 -0.00707249 0)
(1.48618 -0.0101866 0)
(1.48314 -0.0144554 0)
(1.48054 -0.018395 0)
(1.48092 -0.023131 0)
(1.47915 -0.0267268 0)
(1.47613 -0.0338784 0)
(1.47508 -0.043682 0)
(1.47142 -0.0509536 0)
(1.46465 -0.0636696 0)
(1.46052 -0.074687 0)
(1.45203 -0.0859723 0)
(1.44052 -0.0991886 0)
(1.42921 -0.115113 0)
(1.41479 -0.130242 0)
(1.39697 -0.143156 0)
(1.00453 -0.0301481 0)
(1.0297 -0.0709281 0)
(1.07132 -0.100068 0)
(1.1194 -0.113726 0)
(1.17046 -0.119824 0)
(1.22328 -0.115891 0)
(1.27269 -0.105695 0)
(1.3148 -0.0933685 0)
(1.34669 -0.0787635 0)
(1.3726 -0.064143 0)
(1.3968 -0.0499388 0)
(1.41252 -0.0404766 0)
(1.42509 -0.029768 0)
(1.43743 -0.0246757 0)
(1.44484 -0.0205222 0)
(1.44857 -0.0145633 0)
(1.45247 -0.0106201 0)
(1.4571 -0.00768784 0)
(1.45801 -0.0033781 0)
(1.45903 -0.00420924 0)
(1.46097 -0.00340464 0)
(1.46022 -0.00077595 0)
(1.46039 0.000503551 0)
(1.46043 0.00102422 0)
(1.46063 -0.00235865 0)
(1.46278 -0.00101848 0)
(1.46304 -4.7822e-06 0)
(1.46137 0.000272481 0)
(1.46344 -0.000598213 0)
(1.46357 -0.00177642 0)
(1.45949 -0.00250668 0)
(1.45905 -0.000964484 0)
(1.46048 -0.00432719 0)
(1.45958 -0.00542953 0)
(1.46209 -0.00820178 0)
(1.46263 -0.0111111 0)
(1.45936 -0.0155994 0)
(1.45696 -0.0184404 0)
(1.45762 -0.0233305 0)
(1.45577 -0.0277206 0)
(1.45225 -0.0319778 0)
(1.45089 -0.039503 0)
(1.44537 -0.0473959 0)
(1.43808 -0.0570096 0)
(1.43374 -0.0674608 0)
(1.42496 -0.0810245 0)
(1.41367 -0.0938645 0)
(1.40167 -0.106258 0)
(1.38728 -0.119354 0)
(1.36891 -0.13124 0)
(1.00586 -0.0386763 0)
(1.03211 -0.0913515 0)
(1.0739 -0.129687 0)
(1.12074 -0.147023 0)
(1.1703 -0.149285 0)
(1.22102 -0.141799 0)
(1.26607 -0.128579 0)
(1.3047 -0.113633 0)
(1.33458 -0.0973196 0)
(1.35889 -0.0771892 0)
(1.37807 -0.0605312 0)
(1.39119 -0.0479945 0)
(1.40221 -0.0352591 0)
(1.40974 -0.0290553 0)
(1.41767 -0.0256022 0)
(1.42386 -0.0170808 0)
(1.42504 -0.00942408 0)
(1.42822 -0.0066101 0)
(1.42878 -0.00639894 0)
(1.42882 -0.00332108 0)
(1.43141 -0.00416575 0)
(1.43137 -0.00278884 0)
(1.43092 -0.00105391 0)
(1.42882 -0.001285 0)
(1.42969 -0.00366496 0)
(1.43339 -0.00142907 0)
(1.43387 -0.00151521 0)
(1.43239 0.000396249 0)
(1.43335 -0.000289481 0)
(1.43248 -0.0013285 0)
(1.4302 -0.00266397 0)
(1.42887 -0.00204333 0)
(1.42982 -0.00627656 0)
(1.43006 -0.00653175 0)
(1.43068 -0.00892504 0)
(1.43123 -0.0120549 0)
(1.4282 -0.0147725 0)
(1.42606 -0.0186292 0)
(1.42632 -0.0218827 0)
(1.42546 -0.0279857 0)
(1.42113 -0.0312151 0)
(1.41838 -0.0383143 0)
(1.4137 -0.0455421 0)
(1.40578 -0.0518933 0)
(1.39953 -0.063004 0)
(1.39023 -0.0750834 0)
(1.37987 -0.0862362 0)
(1.36787 -0.0968535 0)
(1.35339 -0.108876 0)
(1.33435 -0.121404 0)
(1.00757 -0.0473314 0)
(1.03396 -0.112339 0)
(1.07488 -0.159481 0)
(1.12376 -0.179299 0)
(1.17135 -0.177872 0)
(1.21734 -0.170325 0)
(1.2582 -0.151811 0)
(1.29141 -0.131538 0)
(1.31859 -0.11143 0)
(1.33927 -0.0897785 0)
(1.35399 -0.0725738 0)
(1.36441 -0.0561186 0)
(1.37114 -0.0437809 0)
(1.37664 -0.0348222 0)
(1.38462 -0.0258279 0)
(1.3906 -0.0193195 0)
(1.39078 -0.014355 0)
(1.3907 -0.00915887 0)
(1.3917 -0.00824336 0)
(1.39227 -0.00537674 0)
(1.39331 -0.00548739 0)
(1.39382 -0.00446409 0)