/*--------------------------------*- C++ -*----------------------------------*\
  =========                 |
  \\      /  F ield         | OpenFOAM: The Open Source CFD Toolbox
   \\    /   O peration     | Website:  https://openfoam.org
    \\  /    A nd           | Version:  6
     \\/     M anipulation  |
\*---------------------------------------------------------------------------*/
FoamFile
{
    version     2.0;
    format      ascii;
    class       volScalarField;
    location    "0";
    object      p;
}
// * * * * * * * * * * * * * * * * * * * * * * * * * * * * * * * * * * * * * //

dimensions      [0 2 -2 0 0 0 0];

internalField   nonuniform List<scalar> 
40000
(
0.0126999
0.0126997
0.0126986
0.0126964
0.0126933
0.0126894
0.0126851
0.0126803
0.0126755
0.0126705
0.0126657
0.0126609
0.0126564
0.0126522
0.0126483
0.0126448
0.0126416
0.0126389
0.0126365
0.0126346
0.0126331
0.012632
0.0126313
0.0126311
0.0126312
0.0126318
0.0126327
0.012634
0.0126357
0.0126378
0.0126402
0.012643
0.0126461
0.0126495
0.0126533
0.0126574
0.0126618
0.0126666
0.0126717
0.012677
0.0126827
0.0126887
0.012695
0.0127016
0.0127086
0.0127158
0.0127233
0.0127312
0.0127394
0.0127479
0.0127567
0.0127658
0.0127753
0.0127851
0.0127952
0.0128057
0.0128165
0.0128276
0.0128391
0.012851
0.0128632
0.0128757
0.0128886
0.0129018
0.0129154
0.0129294
0.0129437
0.0129583
0.0129733
0.0129887
0.0130044
0.0130205
0.0130369
0.0130536
0.0130707
0.0130881
0.0131059
0.0131239
0.0131423
0.0131609
0.0131799
0.0131991
0.0132186
0.0132384
0.0132584
0.0132786
0.013299
0.0133197
0.0133405
0.0133614
0.0133825
0.0134037
0.0134251
0.0134465
0.0134679
0.0134894
0.0135109
0.0135323
0.0135538
0.0135751
0.0135963
0.0136175
0.0136384
0.0136592
0.0136797
0.0137
0.0137201
0.0137398
0.0137592
0.0137782
0.0137968
0.0138151
0.0138328
0.0138501
0.0138668
0.0138831
0.0138987
0.0139138
0.0139283
0.0139421
0.0139552
0.0139677
0.0139795
0.0139906
0.0140009
0.0140104
0.0140192
0.0140272
0.0140344
0.0140409
0.0140465
0.0140513
0.0140552
0.0140584
0.0140608
0.0140623
0.014063
0.0140629
0.014062
0.0140604
0.0140579
0.0140548
0.0140508
0.0140462
0.0140408
0.0140347
0.014028
0.0140207
0.0140127
0.0140041
0.013995
0.0139854
0.0139753
0.0139647
0.0139536
0.0139422
0.0139304
0.0139182
0.0139058
0.0138931
0.0138801
0.013867
0.0138537
0.0138403
0.0138269
0.0138133
0.0137998
0.0137863
0.0137729
0.0137595
0.0137463
0.0137333
0.0137205
0.0137079
0.0136956
0.0136836
0.0136719
0.0136607
0.0136498
0.0136394
0.0136295
0.0136201
0.0136112
0.0136029
0.0135953
0.0135882
0.0135819
0.0135762
0.0135713
0.0135671
0.0135637
0.0135611
0.0135592
0.0135582
0.0135578
0.0135581
0.0135589
0.0135601
0.0135613
0.013562
0.0127001
0.0126999
0.0126989
0.0126969
0.0126941
0.0126906
0.0126866
0.0126823
0.0126778
0.0126733
0.0126688
0.0126645
0.0126603
0.0126564
0.0126528
0.0126495
0.0126465
0.012644
0.0126418
0.01264
0.0126387
0.0126377
0.0126371
0.0126369
0.0126372
0.0126378
0.0126388
0.0126401
0.0126418
0.0126439
0.0126463
0.0126491
0.0126522
0.0126557
0.0126594
0.0126635
0.012668
0.0126727
0.0126777
0.0126831
0.0126888
0.0126947
0.012701
0.0127076
0.0127145
0.0127217
0.0127292
0.0127371
0.0127452
0.0127537
0.0127625
0.0127716
0.012781
0.0127908
0.0128008
0.0128113
0.012822
0.0128331
0.0128445
0.0128563
0.0128684
0.0128809
0.0128937
0.0129068
0.0129204
0.0129342
0.0129484
0.012963
0.0129779
0.0129932
0.0130088
0.0130247
0.013041
0.0130576
0.0130746
0.0130918
0.0131094
0.0131273
0.0131455
0.013164
0.0131828
0.0132019
0.0132212
0.0132407
0.0132605
0.0132806
0.0133008
0.0133212
0.0133418
0.0133625
0.0133834
0.0134044
0.0134255
0.0134467
0.0134679
0.0134891
0.0135103
0.0135315
0.0135527
0.0135738
0.0135948
0.0136156
0.0136363
0.0136568
0.0136771
0.0136971
0.0137169
0.0137364
0.0137555
0.0137743
0.0137927
0.0138106
0.0138281
0.0138452
0.0138617
0.0138777
0.0138932
0.013908
0.0139223
0.0139359
0.0139489
0.0139611
0.0139727
0.0139836
0.0139938
0.0140032
0.0140119
0.0140198
0.0140269
0.0140332
0.0140387
0.0140434
0.0140473
0.0140505
0.0140528
0.0140543
0.014055
0.0140549
0.014054
0.0140524
0.01405
0.0140468
0.0140429
0.0140384
0.0140331
0.0140271
0.0140205
0.0140133
0.0140054
0.013997
0.013988
0.0139786
0.0139686
0.0139582
0.0139473
0.0139361
0.0139245
0.0139125
0.0139003
0.0138878
0.0138751
0.0138622
0.0138492
0.013836
0.0138228
0.0138095
0.0137963
0.013783
0.0137698
0.0137568
0.0137438
0.0137311
0.0137185
0.0137062
0.0136942
0.0136824
0.0136711
0.0136601
0.0136495
0.0136393
0.0136296
0.0136205
0.0136118
0.0136038
0.0135963
0.0135895
0.0135833
0.0135778
0.013573
0.0135689
0.0135655
0.0135629
0.013561
0.0135598
0.0135593
0.0135594
0.01356
0.013561
0.013562
0.0135628
0.0127012
0.0127009
0.0126999
0.012698
0.0126955
0.0126923
0.0126888
0.0126849
0.0126809
0.0126769
0.0126728
0.0126689
0.0126651
0.0126616
0.0126583
0.0126553
0.0126527
0.0126503
0.0126484
0.0126468
0.0126456
0.0126448
0.0126443
0.0126443
0.0126446
0.0126453
0.0126463
0.0126477
0.0126495
0.0126516
0.012654
0.0126568
0.0126599
0.0126634
0.0126672
0.0126712
0.0126756
0.0126804
0.0126854
0.0126907
0.0126964
0.0127023
0.0127086
0.0127151
0.012722
0.0127292
0.0127367
0.0127444
0.0127525
0.012761
0.0127697
0.0127788
0.0127881
0.0127978
0.0128078
0.0128182
0.0128289
0.0128399
0.0128513
0.0128629
0.012875
0.0128873
0.0129001
0.0129131
0.0129265
0.0129403
0.0129544
0.0129688
0.0129836
0.0129987
0.0130142
0.01303
0.0130461
0.0130625
0.0130793
0.0130964
0.0131138
0.0131315
0.0131495
0.0131678
0.0131864
0.0132052
0.0132243
0.0132436
0.0132632
0.013283
0.013303
0.0133231
0.0133434
0.0133639
0.0133845
0.0134052
0.013426
0.0134469
0.0134678
0.0134887
0.0135096
0.0135305
0.0135514
0.0135721
0.0135928
0.0136133
0.0136337
0.0136539
0.0136739
0.0136936
0.013713
0.0137322
0.013751
0.0137695
0.0137875
0.0138052
0.0138224
0.0138392
0.0138554
0.0138711
0.0138863
0.0139009
0.0139149
0.0139283
0.013941
0.0139531
0.0139645
0.0139752
0.0139851
0.0139944
0.0140029
0.0140106
0.0140176
0.0140238
0.0140292
0.0140338
0.0140376
0.0140407
0.0140429
0.0140444
0.0140451
0.014045
0.0140441
0.0140425
0.0140401
0.014037
0.0140332
0.0140287
0.0140235
0.0140177
0.0140112
0.0140041
0.0139964
0.0139881
0.0139793
0.01397
0.0139603
0.01395
0.0139394
0.0139284
0.013917
0.0139053
0.0138934
0.0138812
0.0138687
0.0138561
0.0138434
0.0138305
0.0138176
0.0138046
0.0137917
0.0137787
0.0137659
0.0137531
0.0137405
0.0137281
0.0137159
0.0137039
0.0136922
0.0136808
0.0136697
0.013659
0.0136488
0.0136389
0.0136295
0.0136207
0.0136123
0.0136045
0.0135973
0.0135907
0.0135847
0.0135793
0.0135746
0.0135707
0.0135674
0.0135647
0.0135628
0.0135616
0.0135609
0.0135608
0.0135613
0.013562
0.0135631
0.013564
0.0127034
0.0127029
0.0127018
0.0126999
0.0126974
0.0126945
0.0126912
0.0126876
0.012684
0.0126802
0.0126765
0.0126729
0.0126695
0.0126663
0.0126633
0.0126605
0.0126581
0.012656
0.0126543
0.0126529
0.0126518
0.0126511
0.0126508
0.0126509
0.0126513
0.012652
0.0126531
0.0126546
0.0126564
0.0126585
0.012661
0.0126638
0.0126669
0.0126704
0.0126742
0.0126783
0.0126827
0.0126874
0.0126924
0.0126977
0.0127033
0.0127092
0.0127155
0.012722
0.0127288
0.012736
0.0127434
0.0127512
0.0127592
0.0127676
0.0127763
0.0127853
0.0127946
0.0128042
0.0128142
0.0128245
0.0128351
0.012846
0.0128573
0.0128689
0.0128809
0.0128932
0.0129058
0.0129187
0.012932
0.0129457
0.0129597
0.012974
0.0129886
0.0130036
0.013019
0.0130346
0.0130506
0.0130669
0.0130835
0.0131005
0.0131177
0.0131352
0.013153
0.0131712
0.0131895
0.0132082
0.013227
0.0132462
0.0132655
0.0132851
0.0133048
0.0133247
0.0133448
0.013365
0.0133854
0.0134058
0.0134264
0.013447
0.0134676
0.0134883
0.013509
0.0135296
0.0135502
0.0135706
0.013591
0.0136113
0.0136314
0.0136513
0.013671
0.0136904
0.0137096
0.0137285
0.013747
0.0137652
0.0137831
0.0138004
0.0138174
0.0138339
0.0138499
0.0138654
0.0138803
0.0138947
0.0139085
0.0139216
0.0139342
0.0139461
0.0139573
0.0139678
0.0139776
0.0139867
0.013995
0.0140026
0.0140095
0.0140155
0.0140209
0.0140254
0.0140291
0.0140321
0.0140343
0.0140357
0.0140364
0.0140363
0.0140354
0.0140338
0.0140315
0.0140284
0.0140246
0.0140202
0.0140151
0.0140093
0.0140029
0.0139959
0.0139883
0.0139802
0.0139715
0.0139624
0.0139528
0.0139427
0.0139322
0.0139214
0.0139102
0.0138987
0.013887
0.013875
0.0138628
0.0138504
0.0138379
0.0138253
0.0138126
0.0137999
0.0137872
0.0137746
0.013762
0.0137495
0.0137372
0.013725
0.0137131
0.0137014
0.0136899
0.0136788
0.013668
0.0136576
0.0136476
0.013638
0.0136289
0.0136203
0.0136121
0.0136046
0.0135975
0.0135911
0.0135853
0.0135801
0.0135755
0.0135716
0.0135684
0.0135658
0.0135638
0.0135625
0.0135618
0.0135617
0.013562
0.0135628
0.0135641
0.0135652
0.0127066
0.0127058
0.0127043
0.0127023
0.0126998
0.012697
0.0126938
0.0126905
0.012687
0.0126836
0.0126801
0.0126768
0.0126736
0.0126706
0.0126679
0.0126654
0.0126632
0.0126613
0.0126598
0.0126585
0.0126576
0.0126571
0.0126569
0.012657
0.0126575
0.0126583
0.0126595
0.012661
0.0126629
0.0126651
0.0126676
0.0126704
0.0126736
0.012677
0.0126808
0.0126849
0.0126893
0.012694
0.012699
0.0127043
0.0127099
0.0127158
0.012722
0.0127285
0.0127353
0.0127424
0.0127498
0.0127575
0.0127655
0.0127738
0.0127824
0.0127914
0.0128007
0.0128102
0.0128201
0.0128304
0.0128409
0.0128518
0.012863
0.0128745
0.0128864
0.0128986
0.0129111
0.0129239
0.0129371
0.0129507
0.0129646
0.0129788
0.0129933
0.0130082
0.0130234
0.0130389
0.0130547
0.0130709
0.0130873
0.0131041
0.0131212
0.0131386
0.0131562
0.0131741
0.0131923
0.0132108
0.0132295
0.0132484
0.0132675
0.0132869
0.0133064
0.0133261
0.013346
0.013366
0.0133861
0.0134064
0.0134267
0.013447
0.0134674
0.0134879
0.0135083
0.0135287
0.013549
0.0135692
0.0135894
0.0136094
0.0136292
0.0136489
0.0136683
0.0136875
0.0137065
0.0137251
0.0137434
0.0137614
0.0137789
0.0137961
0.0138129
0.0138291
0.0138449
0.0138602
0.0138749
0.0138891
0.0139027
0.0139156
0.013928
0.0139397
0.0139507
0.0139611
0.0139708
0.0139797
0.0139879
0.0139954
0.0140021
0.0140081
0.0140133
0.0140178
0.0140215
0.0140244
0.0140265
0.0140279
0.0140285
0.0140284
0.0140275
0.0140259
0.0140235
0.0140205
0.0140168
0.0140123
0.0140073
0.0140015
0.0139952
0.0139883
0.0139808
0.0139728
0.0139642
0.0139552
0.0139457
0.0139358
0.0139255
0.0139148
0.0139038
0.0138924
0.0138809
0.0138691
0.013857
0.0138449
0.0138326
0.0138202
0.0138077
0.0137952
0.0137827
0.0137703
0.013758
0.0137457
0.0137336
0.0137217
0.01371
0.0136986
0.0136874
0.0136765
0.013666
0.0136558
0.013646
0.0136367
0.0136278
0.0136193
0.0136114
0.013604
0.0135972
0.0135909
0.0135853
0.0135802
0.0135757
0.0135719
0.0135687
0.0135662
0.0135642
0.0135629
0.0135622
0.013562
0.0135624
0.0135632
0.0135647
0.013566
0.0127105
0.0127093
0.0127075
0.0127052
0.0127026
0.0126998
0.0126967
0.0126934
0.0126902
0.0126869
0.0126836
0.0126805
0.0126776
0.0126748
0.0126723
0.01267
0.012668
0.0126663
0.0126649
0.0126638
0.0126631
0.0126626
0.0126626
0.0126628
0.0126634
0.0126643
0.0126656
0.0126671
0.012669
0.0126713
0.0126738
0.0126767
0.0126798
0.0126833
0.0126871
0.0126912
0.0126956
0.0127002
0.0127052
0.0127105
0.0127161
0.012722
0.0127281
0.0127346
0.0127414
0.0127484
0.0127558
0.0127635
0.0127714
0.0127797
0.0127883
0.0127972
0.0128064
0.0128159
0.0128257
0.0128359
0.0128463
0.0128571
0.0128683
0.0128797
0.0128915
0.0129036
0.012916
0.0129288
0.0129419
0.0129553
0.0129691
0.0129832
0.0129976
0.0130123
0.0130274
0.0130428
0.0130585
0.0130745
0.0130908
0.0131074
0.0131244
0.0131416
0.0131591
0.0131768
0.0131948
0.0132131
0.0132316
0.0132504
0.0132693
0.0132885
0.0133078
0.0133273
0.013347
0.0133668
0.0133867
0.0134067
0.0134268
0.013447
0.0134672
0.0134874
0.0135076
0.0135277
0.0135478
0.0135678
0.0135878
0.0136075
0.0136272
0.0136466
0.0136658
0.0136848
0.0137035
0.0137219
0.01374
0.0137578
0.0137752
0.0137921
0.0138086
0.0138247
0.0138403
0.0138554
0.0138699
0.0138839
0.0138973
0.0139102
0.0139223
0.0139339
0.0139448
0.013955
0.0139645
0.0139733
0.0139814
0.0139888
0.0139954
0.0140013
0.0140064
0.0140108
0.0140144
0.0140172
0.0140193
0.0140207
0.0140212
0.0140211
0.0140202
0.0140185
0.0140162
0.0140132
0.0140094
0.014005
0.014
0.0139943
0.013988
0.0139812
0.0139738
0.0139658
0.0139573
0.0139484
0.013939
0.0139292
0.013919
0.0139084
0.0138975
0.0138864
0.0138749
0.0138633
0.0138514
0.0138394
0.0138273
0.013815
0.0138028
0.0137905
0.0137782
0.013766
0.0137538
0.0137418
0.0137299
0.0137182
0.0137067
0.0136955
0.0136845
0.0136739
0.0136635
0.0136536
0.013644
0.0136349
0.0136262
0.0136179
0.0136102
0.013603
0.0135963
0.0135902
0.0135846
0.0135797
0.0135753
0.0135716
0.0135684
0.0135659
0.013564
0.0135627
0.013562
0.0135618
0.0135622
0.0135632
0.0135648
0.0135663
0.012715
0.0127133
0.012711
0.0127085
0.0127057
0.0127027
0.0126996
0.0126965
0.0126933
0.0126901
0.012687
0.0126841
0.0126813
0.0126787
0.0126764
0.0126743
0.0126724
0.0126709
0.0126696
0.0126687
0.0126681
0.0126678
0.0126678
0.0126682
0.0126689
0.0126699
0.0126712
0.0126728
0.0126748
0.0126771
0.0126796
0.0126825
0.0126857
0.0126892
0.012693
0.0126971
0.0127015
0.0127061
0.0127111
0.0127164
0.0127219
0.0127278
0.0127339
0.0127404
0.0127471
0.0127541
0.0127614
0.0127691
0.012777
0.0127852
0.0127937
0.0128026
0.0128117
0.0128211
0.0128309
0.012841
0.0128514
0.0128621
0.0128732
0.0128845
0.0128962
0.0129082
0.0129206
0.0129332
0.0129462
0.0129595
0.0129732
0.0129872
0.0130015
0.0130161
0.013031
0.0130463
0.0130619
0.0130777
0.0130939
0.0131104
0.0131272
0.0131442
0.0131616
0.0131792
0.013197
0.0132151
0.0132335
0.013252
0.0132708
0.0132898
0.013309
0.0133283
0.0133478
0.0133674
0.0133871
0.0134069
0.0134268
0.0134468
0.0134668
0.0134868
0.0135068
0.0135267
0.0135466
0.0135665
0.0135862
0.0136058
0.0136252
0.0136444
0.0136635
0.0136822
0.0137008
0.013719
0.0137369
0.0137545
0.0137716
0.0137884
0.0138048
0.0138207
0.0138361
0.013851
0.0138654
0.0138792
0.0138925
0.0139051
0.0139172
0.0139286
0.0139394
0.0139494
0.0139588
0.0139675
0.0139755
0.0139828
0.0139893
0.0139951
0.0140001
0.0140044
0.014008
0.0140108
0.0140128
0.0140141
0.0140146
0.0140144
0.0140135
0.0140118
0.0140095
0.0140064
0.0140027
0.0139983
0.0139933
0.0139876
0.0139814
0.0139745
0.0139671
0.0139592
0.0139508
0.013942
0.0139326
0.0139229
0.0139128
0.0139023
0.0138915
0.0138805
0.0138692
0.0138576
0.0138459
0.013834
0.013822
0.01381
0.0137978
0.0137857
0.0137736
0.0137615
0.0137495
0.0137377
0.013726
0.0137145
0.0137032
0.0136921
0.0136813
0.0136709
0.0136607
0.013651
0.0136416
0.0136326
0.0136241
0.013616
0.0136084
0.0136014
0.0135948
0.0135888
0.0135834
0.0135786
0.0135743
0.0135706
0.0135675
0.013565
0.0135632
0.0135619
0.0135612
0.0135611
0.0135615
0.0135626
0.0135644
0.013566
0.0127198
0.0127177
0.0127149
0.012712
0.012709
0.0127059
0.0127027
0.0126995
0.0126963
0.0126932
0.0126902
0.0126874
0.0126848
0.0126823
0.0126801
0.0126782
0.0126765
0.0126751
0.012674
0.0126732
0.0126728
0.0126726
0.0126727
0.0126732
0.0126739
0.012675
0.0126764
0.0126781
0.0126801
0.0126824
0.0126851
0.012688
0.0126912
0.0126947
0.0126985
0.0127026
0.012707
0.0127116
0.0127166
0.0127219
0.0127274
0.0127332
0.0127393
0.0127457
0.0127524
0.0127594
0.0127667
0.0127743
0.0127821
0.0127903
0.0127988
0.0128075
0.0128166
0.012826
0.0128357
0.0128457
0.012856
0.0128667
0.0128776
0.0128889
0.0129005
0.0129124
0.0129247
0.0129372
0.0129501
0.0129633
0.0129769
0.0129907
0.0130049
0.0130194
0.0130343
0.0130494
0.0130648
0.0130806
0.0130966
0.013113
0.0131296
0.0131465
0.0131637
0.0131812
0.0131989
0.0132168
0.013235
0.0132534
0.013272
0.0132908
0.0133098
0.013329
0.0133483
0.0133677
0.0133873
0.0134069
0.0134267
0.0134464
0.0134662
0.0134861
0.0135059
0.0135257
0.0135454
0.0135651
0.0135846
0.013604
0.0136233
0.0136423
0.0136612
0.0136798
0.0136981
0.0137162
0.013734
0.0137513
0.0137684
0.013785
0.0138012
0.0138169
0.0138322
0.013847
0.0138612
0.0138749
0.0138881
0.0139006
0.0139125
0.0139238
0.0139344
0.0139444
0.0139537
0.0139623
0.0139702
0.0139773
0.0139838
0.0139895
0.0139944
0.0139987
0.0140021
0.0140048
0.0140068
0.014008
0.0140085
0.0140083
0.0140073
0.0140056
0.0140032
0.0140002
0.0139964
0.013992
0.013987
0.0139814
0.0139751
0.0139683
0.013961
0.0139531
0.0139447
0.0139359
0.0139266
0.0139169
0.0139069
0.0138965
0.0138858
0.0138748
0.0138635
0.0138521
0.0138405
0.0138287
0.0138168
0.0138049
0.0137929
0.0137809
0.0137689
0.013757
0.0137451
0.0137334
0.0137219
0.0137105
0.0136994
0.0136885
0.0136779
0.0136675
0.0136576
0.013648
0.0136387
0.0136299
0.0136215
0.0136136
0.0136062
0.0135992
0.0135928
0.0135869
0.0135816
0.0135768
0.0135726
0.013569
0.013566
0.0135636
0.0135617
0.0135605
0.0135598
0.0135597
0.0135602
0.0135614
0.0135633
0.0135651
0.0127249
0.0127223
0.012719
0.0127157
0.0127124
0.012709
0.0127057
0.0127024
0.0126993
0.0126962
0.0126933
0.0126906
0.012688
0.0126857
0.0126836
0.0126818
0.0126803
0.012679
0.012678
0.0126774
0.012677
0.0126769
0.0126772
0.0126777
0.0126786
0.0126797
0.0126812
0.012683
0.012685
0.0126874
0.0126901
0.012693
0.0126962
0.0126998
0.0127036
0.0127077
0.0127121
0.0127167
0.0127217
0.0127269
0.0127324
0.0127382
0.0127443
0.0127507
0.0127573
0.0127643
0.0127715
0.012779
0.0127868
0.0127949
0.0128034
0.0128121
0.0128211
0.0128304
0.01284
0.01285
0.0128602
0.0128708
0.0128816
0.0128928
0.0129043
0.0129162
0.0129283
0.0129408
0.0129536
0.0129667
0.0129801
0.0129939
0.0130079
0.0130223
0.013037
0.013052
0.0130674
0.013083
0.0130989
0.0131151
0.0131316
0.0131484
0.0131654
0.0131828
0.0132003
0.0132181
0.0132362
0.0132544
0.0132729
0.0132915
0.0133104
0.0133294
0.0133485
0.0133678
0.0133872
0.0134067
0.0134263
0.0134459
0.0134656
0.0134852
0.0135049
0.0135245
0.0135441
0.0135636
0.013583
0.0136022
0.0136213
0.0136403
0.013659
0.0136774
0.0136956
0.0137136
0.0137312
0.0137484
0.0137653
0.0137818
0.0137979
0.0138135
0.0138286
0.0138433
0.0138574
0.013871
0.013884
0.0138964
0.0139082
0.0139194
0.01393
0.0139398
0.013949
0.0139575
0.0139653
0.0139724
0.0139788
0.0139844
0.0139893
0.0139934
0.0139968
0.0139995
0.0140014
0.0140025
0.014003
0.0140027
0.0140017
0.014
0.0139975
0.0139944
0.0139907
0.0139863
0.0139812
0.0139755
0.0139693
0.0139625
0.0139551
0.0139473
0.0139389
0.0139301
0.0139209
0.0139112
0.0139012
0.0138908
0.0138802
0.0138692
0.0138581
0.0138467
0.0138351
0.0138235
0.0138117
0.0137998
0.0137879
0.013776
0.0137641
0.0137523
0.0137406
0.013729
0.0137176
0.0137063
0.0136953
0.0136845
0.0136741
0.0136639
0.013654
0.0136446
0.0136355
0.0136268
0.0136185
0.0136107
0.0136034
0.0135966
0.0135903
0.0135845
0.0135793
0.0135746
0.0135704
0.0135669
0.0135639
0.0135615
0.0135597
0.0135585
0.0135578
0.0135578
0.0135583
0.0135595
0.0135615
0.0135634
0.01273
0.012727
0.0127231
0.0127194
0.0127157
0.0127122
0.0127087
0.0127053
0.0127021
0.012699
0.0126961
0.0126934
0.012691
0.0126888
0.0126868
0.0126851
0.0126837
0.0126825
0.0126817
0.0126811
0.0126808
0.0126809
0.0126812
0.0126819
0.0126828
0.012684
0.0126856
0.0126874
0.0126895
0.0126919
0.0126946
0.0126976
0.0127008
0.0127044
0.0127082
0.0127123
0.0127167
0.0127213
0.0127263
0.0127315
0.012737
0.0127428
0.0127488
0.0127552
0.0127618
0.0127687
0.0127759
0.0127833
0.0127911
0.0127991
0.0128075
0.0128161
0.0128251
0.0128343
0.0128439
0.0128537
0.0128639
0.0128744
0.0128852
0.0128963
0.0129077
0.0129194
0.0129315
0.0129439
0.0129566
0.0129696
0.0129829
0.0129965
0.0130105
0.0130248
0.0130394
0.0130542
0.0130694
0.0130849
0.0131007
0.0131168
0.0131332
0.0131498
0.0131668
0.0131839
0.0132014
0.013219
0.0132369
0.0132551
0.0132734
0.0132919
0.0133106
0.0133295
0.0133485
0.0133676
0.0133869
0.0134063
0.0134257
0.0134452
0.0134647
0.0134842
0.0135038
0.0135233
0.0135427
0.0135621
0.0135813
0.0136004
0.0136194
0.0136382
0.0136568
0.0136751
0.0136932
0.013711
0.0137285
0.0137456
0.0137624
0.0137788
0.0137948
0.0138103
0.0138253
0.0138399
0.0138539
0.0138674
0.0138803
0.0138926
0.0139043
0.0139154
0.0139259
0.0139357
0.0139448
0.0139532
0.0139609
0.0139679
0.0139742
0.0139798
0.0139846
0.0139886
0.013992
0.0139946
0.0139964
0.0139975
0.0139979
0.0139976
0.0139965
0.0139947
0.0139923
0.0139891
0.0139853
0.0139809
0.0139758
0.0139701
0.0139639
0.013957
0.0139497
0.0139418
0.0139334
0.0139246
0.0139154
0.0139057
0.0138957
0.0138854
0.0138748
0.0138639
0.0138527
0.0138414
0.0138299
0.0138182
0.0138065
0.0137947
0.0137829
0.013771
0.0137592
0.0137475
0.0137359
0.0137244
0.013713
0.0137019
0.013691
0.0136803
0.0136699
0.0136599
0.0136501
0.0136408
0.0136318
0.0136232
0.0136151
0.0136074
0.0136002
0.0135934
0.0135872
0.0135815
0.0135763
0.0135717
0.0135676
0.0135641
0.0135612
0.0135588
0.0135571
0.0135559
0.0135552
0.0135552
0.0135558
0.0135571
0.0135591
0.013561
0.0127351
0.0127316
0.0127271
0.012723
0.012719
0.0127152
0.0127115
0.012708
0.0127047
0.0127016
0.0126987
0.012696
0.0126936
0.0126915
0.0126896
0.012688
0.0126866
0.0126856
0.0126849
0.0126844
0.0126842
0.0126844
0.0126848
0.0126855
0.0126865
0.0126878
0.0126894
0.0126913
0.0126935
0.0126959
0.0126987
0.0127017
0.012705
0.0127085
0.0127124
0.0127165
0.0127208
0.0127255
0.0127304
0.0127356
0.0127411
0.0127468
0.0127529
0.0127592
0.0127657
0.0127726
0.0127797
0.0127872
0.0127949
0.0128029
0.0128111
0.0128197
0.0128286
0.0128378
0.0128473
0.012857
0.0128671
0.0128775
0.0128882
0.0128992
0.0129106
0.0129222
0.0129342
0.0129464
0.012959
0.0129719
0.0129852
0.0129987
0.0130125
0.0130267
0.0130412
0.013056
0.013071
0.0130864
0.0131021
0.0131181
0.0131343
0.0131508
0.0131676
0.0131847
0.013202
0.0132195
0.0132373
0.0132553
0.0132735
0.0132919
0.0133105
0.0133292
0.0133481
0.0133671
0.0133863
0.0134055
0.0134248
0.0134442
0.0134636
0.013483
0.0135024
0.0135218
0.0135411
0.0135604
0.0135795
0.0135986
0.0136174
0.0136361
0.0136546
0.0136728
0.0136908
0.0137085
0.0137259
0.013743
0.0137597
0.0137759
0.0137918
0.0138072
0.0138222
0.0138367
0.0138506
0.013864
0.0138769
0.0138891
0.0139008
0.0139118
0.0139222
0.0139319
0.0139409
0.0139493
0.0139569
0.0139639
0.0139701
0.0139756
0.0139803
0.0139843
0.0139876
0.0139901
0.0139919
0.013993
0.0139933
0.0139929
0.0139918
0.01399
0.0139874
0.0139843
0.0139804
0.0139759
0.0139708
0.0139651
0.0139588
0.0139519
0.0139445
0.0139366
0.0139282
0.0139194
0.0139101
0.0139005
0.0138904
0.0138801
0.0138695
0.0138586
0.0138474
0.0138361
0.0138246
0.013813
0.0138013
0.0137895
0.0137777
0.013766
0.0137542
0.0137425
0.013731
0.0137195
0.0137083
0.0136972
0.0136864
0.0136758
0.0136655
0.0136555
0.0136459
0.0136366
0.0136277
0.0136192
0.0136112
0.0136036
0.0135964
0.0135898
0.0135836
0.013578
0.0135729
0.0135683
0.0135643
0.0135608
0.0135579
0.0135556
0.0135538
0.0135527
0.0135521
0.0135521
0.0135527
0.0135539
0.0135559
0.0135578
0.0127401
0.0127361
0.0127311
0.0127265
0.0127222
0.0127181
0.0127142
0.0127105
0.0127071
0.0127039
0.012701
0.0126983
0.012696
0.0126938
0.012692
0.0126905
0.0126892
0.0126883
0.0126876
0.0126872
0.0126872
0.0126874
0.0126879
0.0126887
0.0126898
0.0126912
0.0126928
0.0126948
0.012697
0.0126995
0.0127022
0.0127053
0.0127086
0.0127122
0.012716
0.0127201
0.0127245
0.0127291
0.0127341
0.0127392
0.0127447
0.0127504
0.0127564
0.0127627
0.0127692
0.012776
0.0127831
0.0127905
0.0127981
0.0128061
0.0128143
0.0128228
0.0128316
0.0128407
0.0128501
0.0128598
0.0128698
0.0128801
0.0128907
0.0129017
0.0129129
0.0129244
0.0129363
0.0129485
0.012961
0.0129738
0.0129869
0.0130003
0.0130141
0.0130281
0.0130425
0.0130572
0.0130721
0.0130874
0.013103
0.0131188
0.013135
0.0131514
0.013168
0.013185
0.0132022
0.0132196
0.0132373
0.0132552
0.0132732
0.0132915
0.01331
0.0133286
0.0133474
0.0133663
0.0133853
0.0134045
0.0134237
0.0134429
0.0134622
0.0134816
0.0135009
0.0135202
0.0135394
0.0135586
0.0135776
0.0135966
0.0136153
0.0136339
0.0136523
0.0136705
0.0136884
0.0137061
0.0137234
0.0137404
0.013757
0.0137732
0.013789
0.0138044
0.0138193
0.0138337
0.0138475
0.0138609
0.0138737
0.0138859
0.0138975
0.0139084
0.0139187
0.0139284
0.0139374
0.0139457
0.0139533
0.0139601
0.0139663
0.0139717
0.0139764
0.0139804
0.0139836
0.0139861
0.0139878
0.0139888
0.0139891
0.0139886
0.0139874
0.0139856
0.013983
0.0139797
0.0139758
0.0139713
0.0139661
0.0139603
0.013954
0.013947
0.0139396
0.0139316
0.0139232
0.0139143
0.013905
0.0138954
0.0138853
0.013875
0.0138643
0.0138534
0.0138422
0.0138309
0.0138194
0.0138078
0.0137961
0.0137843
0.0137726
0.0137608
0.0137491
0.0137374
0.0137259
0.0137145
0.0137033
0.0136923
0.0136815
0.013671
0.0136608
0.0136508
0.0136413
0.0136321
0.0136232
0.0136148
0.0136068
0.0135993
0.0135922
0.0135856
0.0135795
0.013574
0.0135689
0.0135644
0.0135604
0.013557
0.0135541
0.0135518
0.01355
0.0135489
0.0135483
0.0135483
0.0135489
0.0135502
0.0135522
0.013554
0.0127447
0.0127403
0.0127347
0.0127297
0.0127251
0.0127207
0.0127166
0.0127127
0.0127092
0.0127059
0.012703
0.0127003
0.0126979
0.0126958
0.012694
0.0126926
0.0126914
0.0126905
0.0126899
0.0126896
0.0126896
0.0126899
0.0126905
0.0126914
0.0126925
0.012694
0.0126957
0.0126977
0.0127
0.0127025
0.0127053
0.0127083
0.0127117
0.0127153
0.0127191
0.0127232
0.0127276
0.0127323
0.0127372
0.0127423
0.0127477
0.0127534
0.0127594
0.0127656
0.0127721
0.0127789
0.0127859
0.0127932
0.0128008
0.0128087
0.0128169
0.0128253
0.012834
0.0128431
0.0128524
0.012862
0.0128719
0.0128822
0.0128927
0.0129035
0.0129147
0.0129261
0.0129379
0.01295
0.0129624
0.0129751
0.0129881
0.0130014
0.013015
0.013029
0.0130433
0.0130578
0.0130727
0.0130878
0.0131033
0.013119
0.0131351
0.0131514
0.0131679
0.0131848
0.0132019
0.0132192
0.0132368
0.0132545
0.0132725
0.0132907
0.0133091
0.0133276
0.0133463
0.0133651
0.0133841
0.0134031
0.0134222
0.0134414
0.0134606
0.0134799
0.0134991
0.0135183
0.0135375
0.0135566
0.0135755
0.0135944
0.0136131
0.0136317
0.01365
0.0136681
0.013686
0.0137036
0.0137208
0.0137378
0.0137543
0.0137705
0.0137863
0.0138016
0.0138164
0.0138308
0.0138446
0.0138579
0.0138707
0.0138828
0.0138944
0.0139053
0.0139156
0.0139252
0.0139341
0.0139424
0.0139499
0.0139568
0.0139629
0.0139683
0.0139729
0.0139768
0.01398
0.0139824
0.013984
0.013985
0.0139852
0.0139847
0.0139834
0.0139815
0.0139788
0.0139755
0.0139716
0.0139669
0.0139617
0.0139559
0.0139494
0.0139425
0.0139349
0.0139269
0.0139184
0.0139095
0.0139002
0.0138904
0.0138803
0.0138699
0.0138592
0.0138483
0.0138371
0.0138257
0.0138142
0.0138026
0.0137909
0.0137791
0.0137673
0.0137555
0.0137438
0.0137322
0.0137207
0.0137093
0.0136981
0.0136871
0.0136764
0.0136659
0.0136557
0.0136458
0.0136363
0.0136271
0.0136183
0.01361
0.013602
0.0135945
0.0135875
0.013581
0.0135749
0.0135694
0.0135644
0.0135599
0.0135559
0.0135525
0.0135497
0.0135474
0.0135457
0.0135445
0.0135439
0.0135439
0.0135445
0.0135457
0.0135477
0.0135496
0.0127491
0.0127442
0.0127381
0.0127327
0.0127277
0.012723
0.0127186
0.0127146
0.0127109
0.0127076
0.0127045
0.0127018
0.0126995
0.0126974
0.0126956
0.0126942
0.0126931
0.0126922
0.0126917
0.0126915
0.0126916
0.0126919
0.0126926
0.0126935
0.0126948
0.0126963
0.012698
0.0127001
0.0127024
0.0127049
0.0127078
0.0127109
0.0127142
0.0127178
0.0127217
0.0127258
0.0127302
0.0127348
0.0127397
0.0127448
0.0127502
0.0127559
0.0127618
0.012768
0.0127744
0.0127812
0.0127881
0.0127954
0.0128029
0.0128107
0.0128188
0.0128272
0.0128359
0.0128448
0.0128541
0.0128636
0.0128735
0.0128836
0.012894
0.0129048
0.0129158
0.0129272
0.0129389
0.0129509
0.0129632
0.0129758
0.0129887
0.0130019
0.0130154
0.0130293
0.0130434
0.0130579
0.0130727
0.0130877
0.0131031
0.0131187
0.0131347
0.0131509
0.0131673
0.0131841
0.0132011
0.0132183
0.0132357
0.0132534
0.0132713
0.0132894
0.0133077
0.0133262
0.0133448
0.0133635
0.0133824
0.0134013
0.0134204
0.0134395
0.0134587
0.0134778
0.013497
0.0135162
0.0135353
0.0135543
0.0135733
0.0135921
0.0136108
0.0136293
0.0136476
0.0136656
0.0136835
0.013701
0.0137183
0.0137352
0.0137517
0.0137679
0.0137836
0.0137989
0.0138137
0.013828
0.0138419
0.0138551
0.0138679
0.01388
0.0138915
0.0139024
0.0139126
0.0139222
0.0139311
0.0139394
0.0139469
0.0139537
0.0139597
0.0139651
0.0139697
0.0139735
0.0139766
0.013979
0.0139806
0.0139815
0.0139816
0.013981
0.0139797
0.0139777
0.013975
0.0139716
0.0139676
0.0139629
0.0139576
0.0139516
0.0139451
0.0139381
0.0139305
0.0139224
0.0139138
0.0139048
0.0138954
0.0138856
0.0138754
0.013865
0.0138542
0.0138432
0.0138319
0.0138205
0.013809
0.0137973
0.0137855
0.0137737
0.0137619
0.0137501
0.0137384
0.0137267
0.0137152
0.0137038
0.0136926
0.0136817
0.0136709
0.0136605
0.0136503
0.0136404
0.0136309
0.0136218
0.013613
0.0136047
0.0135968
0.0135893
0.0135823
0.0135758
0.0135698
0.0135643
0.0135593
0.0135549
0.0135509
0.0135475
0.0135447
0.0135424
0.0135407
0.0135395
0.013539
0.013539
0.0135395
0.0135407
0.0135426
0.0135444
0.012753
0.0127477
0.0127411
0.0127353
0.0127299
0.0127249
0.0127203
0.0127161
0.0127123
0.0127088
0.0127057
0.012703
0.0127005
0.0126985
0.0126967
0.0126953
0.0126942
0.0126935
0.012693
0.0126928
0.012693
0.0126934
0.0126941
0.0126951
0.0126964
0.012698
0.0126998
0.0127019
0.0127042
0.0127068
0.0127097
0.0127128
0.0127162
0.0127198
0.0127236
0.0127278
0.0127321
0.0127367
0.0127416
0.0127467
0.0127521
0.0127577
0.0127636
0.0127698
0.0127762
0.0127828
0.0127898
0.012797
0.0128044
0.0128122
0.0128202
0.0128285
0.0128371
0.012846
0.0128552
0.0128646
0.0128744
0.0128844
0.0128948
0.0129054
0.0129164
0.0129277
0.0129392
0.0129511
0.0129633
0.0129758
0.0129887
0.0130018
0.0130152
0.013029
0.013043
0.0130574
0.0130721
0.013087
0.0131023
0.0131178
0.0131337
0.0131498
0.0131661
0.0131828
0.0131997
0.0132168
0.0132342
0.0132518
0.0132697
0.0132877
0.0133059
0.0133243
0.0133428
0.0133615
0.0133803
0.0133992
0.0134182
0.0134372
0.0134564
0.0134755
0.0134946
0.0135137
0.0135328
0.0135518
0.0135707
0.0135895
0.0136082
0.0136267
0.013645
0.013663
0.0136808
0.0136984
0.0137156
0.0137325
0.013749
0.0137652
0.0137809
0.0137962
0.013811
0.0138254
0.0138392
0.0138524
0.0138651
0.0138773
0.0138888
0.0138996
0.0139099
0.0139195
0.0139283
0.0139365
0.013944
0.0139508
0.0139568
0.0139621
0.0139667
0.0139705
0.0139735
0.0139759
0.0139774
0.0139782
0.0139783
0.0139777
0.0139763
0.0139742
0.0139714
0.0139679
0.0139638
0.013959
0.0139536
0.0139476
0.013941
0.0139339
0.0139262
0.013918
0.0139094
0.0139003
0.0138908
0.0138809
0.0138706
0.0138601
0.0138492
0.0138381
0.0138268
0.0138153
0.0138037
0.0137919
0.0137801
0.0137683
0.0137564