/*--------------------------------*- C++ -*----------------------------------*\
  =========                 |
  \\      /  F ield         | OpenFOAM: The Open Source CFD Toolbox
   \\    /   O peration     | Website:  https://openfoam.org
    \\  /    A nd           | Version:  6
     \\/     M anipulation  |
\*---------------------------------------------------------------------------*/
FoamFile
{
    version     2.0;
    format      ascii;
    class       volVectorField;
    location    "0";
    object      U;
}
// * * * * * * * * * * * * * * * * * * * * * * * * * * * * * * * * * * * * * //

dimensions      [0 1 -1 0 0 0 0];

internalField   nonuniform List<vector> 
40000
(
(5.57403e-07 -5.57485e-07 0)
(2.82895e-06 -9.18725e-07 0)
(5.42864e-06 -8.7869e-07 0)
(7.46043e-06 -5.8323e-07 0)
(8.1733e-06 -1.72561e-07 0)
(7.2295e-06 2.87377e-07 0)
(4.49641e-06 7.57399e-07 0)
(-4.34347e-08 1.21478e-06 0)
(-6.33627e-06 1.64714e-06 0)
(-1.42871e-05 2.04804e-06 0)
(-2.37789e-05 2.41461e-06 0)
(-3.46843e-05 2.74624e-06 0)
(-4.68724e-05 3.04364e-06 0)
(-6.02141e-05 3.30821e-06 0)
(-7.45847e-05 3.54182e-06 0)
(-8.98662e-05 3.74655e-06 0)
(-0.000105948 3.92467e-06 0)
(-0.000122729 4.07847e-06 0)
(-0.000140115 4.21025e-06 0)
(-0.000158021 4.32218e-06 0)
(-0.000176369 4.41634e-06 0)
(-0.000195091 4.49468e-06 0)
(-0.000214124 4.55904e-06 0)
(-0.000233415 4.61111e-06 0)
(-0.000252915 4.65245e-06 0)
(-0.000272581 4.68447e-06 0)
(-0.000292376 4.70845e-06 0)
(-0.00031227 4.72553e-06 0)
(-0.000332233 4.73673e-06 0)
(-0.000352243 4.74297e-06 0)
(-0.000372279 4.74504e-06 0)
(-0.000392325 4.74363e-06 0)
(-0.000412365 4.73933e-06 0)
(-0.000432389 4.73267e-06 0)
(-0.000452386 4.72407e-06 0)
(-0.000472348 4.71388e-06 0)
(-0.000492267 4.7024e-06 0)
(-0.000512138 4.68985e-06 0)
(-0.000531956 4.67642e-06 0)
(-0.000551717 4.66224e-06 0)
(-0.000571417 4.64738e-06 0)
(-0.000591053 4.63191e-06 0)
(-0.00061062 4.61583e-06 0)
(-0.000630117 4.59912e-06 0)
(-0.00064954 4.58176e-06 0)
(-0.000668884 4.56367e-06 0)
(-0.000688148 4.54477e-06 0)
(-0.000707326 4.52496e-06 0)
(-0.000726414 4.50413e-06 0)
(-0.000745407 4.48214e-06 0)
(-0.000764299 4.45887e-06 0)
(-0.000783085 4.43417e-06 0)
(-0.000801758 4.40787e-06 0)
(-0.000820311 4.37983e-06 0)
(-0.000838736 4.34988e-06 0)
(-0.000857024 4.31785e-06 0)
(-0.000875166 4.28357e-06 0)
(-0.000893152 4.24688e-06 0)
(-0.000910971 4.20759e-06 0)
(-0.000928613 4.16554e-06 0)
(-0.000946065 4.12055e-06 0)
(-0.000963314 4.07246e-06 0)
(-0.000980348 4.02109e-06 0)
(-0.000997151 3.96627e-06 0)
(-0.00101371 3.90786e-06 0)
(-0.00103001 3.84568e-06 0)
(-0.00104603 3.77959e-06 0)
(-0.00106176 3.70943e-06 0)
(-0.00107718 3.63506e-06 0)
(-0.00109228 3.55634e-06 0)
(-0.00110702 3.47314e-06 0)
(-0.0011214 3.38535e-06 0)
(-0.0011354 3.29283e-06 0)
(-0.001149 3.1955e-06 0)
(-0.00116217 3.09326e-06 0)
(-0.00117489 2.98601e-06 0)
(-0.00118716 2.8737e-06 0)
(-0.00119893 2.75626e-06 0)
(-0.0012102 2.63363e-06 0)
(-0.00122094 2.5058e-06 0)
(-0.00123113 2.37273e-06 0)
(-0.00124075 2.23443e-06 0)
(-0.00124977 2.09091e-06 0)
(-0.00125818 1.9422e-06 0)
(-0.00126596 1.78833e-06 0)
(-0.00127307 1.62939e-06 0)
(-0.00127952 1.46544e-06 0)
(-0.00128526 1.29659e-06 0)
(-0.00129029 1.12296e-06 0)
(-0.00129458 9.44691e-07 0)
(-0.00129811 7.61937e-07 0)
(-0.00130088 5.74882e-07 0)
(-0.00130285 3.83723e-07 0)
(-0.00130402 1.88681e-07 0)
(-0.00130436 -1.00029e-08 0)
(-0.00130387 -2.1207e-07 0)
(-0.00130253 -4.17239e-07 0)
(-0.00130033 -6.25212e-07 0)
(-0.00129726 -8.3567e-07 0)
(-0.00129331 -1.04828e-06 0)
(-0.00128848 -1.26267e-06 0)
(-0.00128274 -1.47849e-06 0)
(-0.00127611 -1.69535e-06 0)
(-0.00126857 -1.91284e-06 0)
(-0.00126014 -2.13054e-06 0)
(-0.00125079 -2.34802e-06 0)
(-0.00124055 -2.56485e-06 0)
(-0.00122941 -2.78058e-06 0)
(-0.00121737 -2.99473e-06 0)
(-0.00120445 -3.20686e-06 0)
(-0.00119066 -3.41648e-06 0)
(-0.001176 -3.62311e-06 0)
(-0.00116049 -3.82629e-06 0)
(-0.00114415 -4.02554e-06 0)
(-0.00112699 -4.22037e-06 0)
(-0.00110903 -4.41032e-06 0)
(-0.00109029 -4.59492e-06 0)
(-0.0010708 -4.7737e-06 0)
(-0.00105058 -4.94623e-06 0)
(-0.00102966 -5.11206e-06 0)
(-0.00100806 -5.27077e-06 0)
(-0.000985817 -5.42194e-06 0)
(-0.000962963 -5.56519e-06 0)
(-0.000939529 -5.70014e-06 0)
(-0.000915551 -5.82643e-06 0)
(-0.000891065 -5.94374e-06 0)
(-0.000866108 -6.05176e-06 0)
(-0.000840719 -6.15019e-06 0)
(-0.000814937 -6.23879e-06 0)
(-0.000788804 -6.31733e-06 0)
(-0.000762362 -6.38559e-06 0)
(-0.000735651 -6.44341e-06 0)
(-0.000708717 -6.49064e-06 0)
(-0.000681602 -6.52716e-06 0)
(-0.00065435 -6.55289e-06 0)
(-0.000627006 -6.56778e-06 0)
(-0.000599614 -6.5718e-06 0)
(-0.00057222 -6.56495e-06 0)
(-0.000544866 -6.54727e-06 0)
(-0.000517599 -6.51883e-06 0)
(-0.000490461 -6.47971e-06 0)
(-0.000463497 -6.43003e-06 0)
(-0.00043675 -6.36995e-06 0)
(-0.000410262 -6.29962e-06 0)
(-0.000384075 -6.21924e-06 0)
(-0.00035823 -6.12904e-06 0)
(-0.000332767 -6.02925e-06 0)
(-0.000307726 -5.92012e-06 0)
(-0.000283144 -5.80193e-06 0)
(-0.000259058 -5.67498e-06 0)
(-0.000235504 -5.53957e-06 0)
(-0.000212516 -5.39602e-06 0)
(-0.000190128 -5.24466e-06 0)
(-0.000168372 -5.08583e-06 0)
(-0.000147278 -4.91989e-06 0)
(-0.000126875 -4.74719e-06 0)
(-0.00010719 -4.56808e-06 0)
(-8.82505e-05 -4.38294e-06 0)
(-7.00804e-05 -4.19213e-06 0)
(-5.27029e-05 -3.99602e-06 0)
(-3.61399e-05 -3.79499e-06 0)
(-2.04114e-05 -3.58939e-06 0)
(-5.5362e-06 -3.37962e-06 0)
(8.46864e-06 -3.16603e-06 0)
(2.15875e-05 -2.94901e-06 0)
(3.38064e-05 -2.72893e-06 0)
(4.51127e-05 -2.50617e-06 0)
(5.54956e-05 -2.28111e-06 0)
(6.49459e-05 -2.05415e-06 0)
(7.34559e-05 -1.82568e-06 0)
(8.10198e-05 -1.59612e-06 0)
(8.76333e-05 -1.36591e-06 0)
(9.32945e-05 -1.13548e-06 0)
(9.80029e-05 -9.05329e-07 0)
(0.000101761 -6.75972e-07 0)
(0.000104572 -4.47972e-07 0)
(0.000106444 -2.21948e-07 0)
(0.000107385 1.41439e-09 0)
(0.00010741 2.21344e-07 0)
(0.000106533 4.3697e-07 0)
(0.000104776 6.47294e-07 0)
(0.000102163 8.51168e-07 0)
(9.87242e-05 1.04726e-06 0)
(9.44963e-05 1.23401e-06 0)
(8.95224e-05 1.40957e-06 0)
(8.38543e-05 1.57178e-06 0)
(7.75535e-05 1.71804e-06 0)
(7.06932e-05 1.84522e-06 0)
(6.33605e-05 1.94955e-06 0)
(5.56589e-05 2.02643e-06 0)
(4.77121e-05 2.07022e-06 0)
(3.96673e-05 2.07395e-06 0)
(3.17009e-05 2.02898e-06 0)
(2.40231e-05 1.92466e-06 0)
(1.6884e-05 1.74806e-06 0)
(1.05762e-05 1.48453e-06 0)
(5.43073e-06 1.12045e-06 0)
(1.79447e-06 6.48496e-07 0)
(-6.43698e-08 9.56055e-08 0)
(-2.87657e-07 -2.87733e-07 0)
(9.21695e-07 -2.83189e-06 0)
(4.89531e-06 -4.88548e-06 0)
(8.6882e-06 -4.29954e-06 0)
(1.05625e-05 -2.01579e-06 0)
(9.02694e-06 1.23099e-06 0)
(3.30159e-06 4.95353e-06 0)
(-6.98148e-06 8.84145e-06 0)
(-2.19269e-05 1.27013e-05 0)
(-4.14614e-05 1.64149e-05 0)
(-6.53967e-05 1.99126e-05 0)
(-9.3474e-05 2.31557e-05 0)
(-0.000125395 2.61267e-05 0)
(-0.000160842 2.88212e-05 0)
(-0.000199493 3.12438e-05 0)
(-0.000241029 3.34048e-05 0)
(-0.000285143 3.5318e-05 0)
(-0.000331545 3.69995e-05 0)
(-0.00037996 3.84666e-05 0)
(-0.000430137 3.9737e-05 0)
(-0.00048184 4.08283e-05 0)
(-0.000534859 4.17576e-05 0)
(-0.000589 4.25415e-05 0)
(-0.000644088 4.31955e-05 0)
(-0.00069997 4.37342e-05 0)
(-0.000756506 4.41711e-05 0)
(-0.000813573 4.45188e-05 0)
(-0.000871065 4.47884e-05 0)
(-0.000928886 4.49905e-05 0)
(-0.000986954 4.51342e-05 0)
(-0.0010452 4.52277e-05 0)
(-0.00110356 4.52785e-05 0)
(-0.00116198 4.52929e-05 0)
(-0.00122041 4.52766e-05 0)
(-0.00127883 4.52343e-05 0)
(-0.00133718 4.51702e-05 0)
(-0.00139546 4.50877e-05 0)
(-0.00145363 4.49896e-05 0)
(-0.00151167 4.48784e-05 0)
(-0.00156956 4.47557e-05 0)
(-0.00162729 4.46231e-05 0)
(-0.00168485 4.44813e-05 0)
(-0.00174221 4.43312e-05 0)
(-0.00179938 4.41729e-05 0)
(-0.00185633 4.40064e-05 0)
(-0.00191305 4.38317e-05 0)
(-0.00196954 4.36481e-05 0)
(-0.00202578 4.34551e-05 0)
(-0.00208175 4.32519e-05 0)
(-0.00213744 4.30375e-05 0)
(-0.00219284 4.28109e-05 0)
(-0.00224792 4.25709e-05 0)
(-0.00230268 4.23163e-05 0)
(-0.00235708 4.20457e-05 0)
(-0.0024111 4.17578e-05 0)
(-0.00246473 4.1451e-05 0)
(-0.00251793 4.1124e-05 0)
(-0.00257069 4.07753e-05 0)
(-0.00262296 4.04033e-05 0)
(-0.00267472 4.00064e-05 0)
(-0.00272594 3.95833e-05 0)
(-0.00277657 3.91323e-05 0)
(-0.00282659 3.86519e-05 0)
(-0.00287596 3.81407e-05 0)
(-0.00292463 3.75972e-05 0)
(-0.00297256 3.70198e-05 0)
(-0.00301971 3.64073e-05 0)
(-0.00306604 3.57582e-05 0)
(-0.00311149 3.50712e-05 0)
(-0.00315601 3.43451e-05 0)
(-0.00319956 3.35786e-05 0)
(-0.00324209 3.27707e-05 0)
(-0.00328353 3.19202e-05 0)
(-0.00332384 3.10261e-05 0)
(-0.00336296 3.00876e-05 0)
(-0.00340084 2.91039e-05 0)
(-0.0034374 2.80742e-05 0)
(-0.00347261 2.6998e-05 0)
(-0.00350639 2.58747e-05 0)
(-0.0035387 2.4704e-05 0)
(-0.00356946 2.34857e-05 0)
(-0.00359862 2.22196e-05 0)
(-0.00362612 2.09058e-05 0)
(-0.00365189 1.95445e-05 0)
(-0.00367589 1.8136e-05 0)
(-0.00369804 1.66807e-05 0)
(-0.0037183 1.51794e-05 0)
(-0.00373661 1.36328e-05 0)
(-0.0037529 1.20419e-05 0)
(-0.00376713 1.04079e-05 0)
(-0.00377923 8.73211e-06 0)
(-0.00378917 7.01605e-06 0)
(-0.00379689 5.2614e-06 0)
(-0.00380235 3.47004e-06 0)
(-0.00380549 1.64402e-06 0)
(-0.00380628 -2.1442e-07 0)
(-0.00380468 -2.10287e-06 0)
(-0.00380066 -4.01874e-06 0)
(-0.00379418 -5.95927e-06 0)
(-0.00378521 -7.92154e-06 0)
(-0.00377374 -9.90245e-06 0)
(-0.00375973 -1.18987e-05 0)
(-0.00374317 -1.3907e-05 0)
(-0.00372406 -1.59238e-05 0)
(-0.00370237 -1.79454e-05 0)
(-0.00367812 -1.99679e-05 0)
(-0.0036513 -2.19876e-05 0)
(-0.00362191 -2.40004e-05 0)
(-0.00358998 -2.60022e-05 0)
(-0.00355552 -2.79888e-05 0)
(-0.00351854 -2.99561e-05 0)
(-0.00347909 -3.18998e-05 0)
(-0.00343718 -3.38156e-05 0)
(-0.00339287 -3.56992e-05 0)
(-0.00334619 -3.75463e-05 0)
(-0.00329719 -3.93526e-05 0)
(-0.00324592 -4.11138e-05 0)
(-0.00319246 -4.28258e-05 0)
(-0.00313685 -4.44845e-05 0)
(-0.00307918 -4.60858e-05 0)
(-0.00301951 -4.76258e-05 0)
(-0.00295793 -4.91007e-05 0)
(-0.00289452 -5.05068e-05 0)
(-0.00282936 -5.18406e-05 0)
(-0.00276256 -5.30987e-05 0)
(-0.00269421 -5.42779e-05 0)
(-0.00262441 -5.53753e-05 0)
(-0.00255327 -5.63881e-05 0)
(-0.00248089 -5.73138e-05 0)
(-0.00240738 -5.815e-05 0)
(-0.00233286 -5.88946e-05 0)
(-0.00225744 -5.95457e-05 0)
(-0.00218125 -6.01019e-05 0)
(-0.0021044 -6.05617e-05 0)
(-0.00202701 -6.09242e-05 0)
(-0.00194921 -6.11884e-05 0)
(-0.00187112 -6.13539e-05 0)
(-0.00179286 -6.14203e-05 0)
(-0.00171457 -6.13877e-05 0)
(-0.00163635 -6.12564e-05 0)
(-0.00155835 -6.10267e-05 0)
(-0.00148067 -6.06995e-05 0)
(-0.00140345 -6.02757e-05 0)
(-0.0013268 -5.97567e-05 0)
(-0.00125085 -5.91437e-05 0)
(-0.0011757 -5.84386e-05 0)
(-0.00110148 -5.76431e-05 0)
(-0.0010283 -5.67593e-05 0)
(-0.000956268 -5.57894e-05 0)
(-0.000885491 -5.47358e-05 0)
(-0.000816073 -5.36011e-05 0)
(-0.000748117 -5.23878e-05 0)
(-0.00068172 -5.10989e-05 0)
(-0.000616976 -4.97371e-05 0)
(-0.000553977 -4.83055e-05 0)
(-0.000492809 -4.68071e-05 0)
(-0.000433556 -4.5245e-05 0)
(-0.000376297 -4.36225e-05 0)
(-0.000321108 -4.19428e-05 0)
(-0.000268059 -4.0209e-05 0)
(-0.000217219 -3.84247e-05 0)
(-0.000168649 -3.6593e-05 0)
(-0.00012241 -3.47173e-05 0)
(-7.85565e-05 -3.2801e-05 0)
(-3.71383e-05 -3.08475e-05 0)
(1.79812e-06 -2.88603e-05 0)
(3.82108e-05 -2.68427e-05 0)
(7.20623e-05 -2.47984e-05 0)
(0.00010332 -2.27309e-05 0)
(0.000131955 -2.0644e-05 0)
(0.000157944 -1.85414e-05 0)
(0.00018127 -1.64271e-05 0)
(0.000201918 -1.43054e-05 0)
(0.000219882 -1.21805e-05 0)
(0.00023516 -1.00573e-05 0)
(0.000247756 -7.94077e-06 0)
(0.000257682 -5.83653e-06 0)
(0.000264958 -3.75068e-06 0)
(0.000269612 -1.68997e-06 0)
(0.00027168 3.3801e-07 0)
(0.000271211 2.32471e-06 0)
(0.000268263 4.26041e-06 0)
(0.00026291 6.13402e-06 0)
(0.00025524 7.93274e-06 0)
(0.000245359 9.64178e-06 0)
(0.000233392 1.1244e-05 0)
(0.000219489 1.27192e-05 0)
(0.000203827 1.40439e-05 0)
(0.000186613 1.51904e-05 0)
(0.000168092 1.61258e-05 0)
(0.000148551 1.68113e-05 0)
(0.000128326 1.7201e-05 0)
(0.000107811 1.72404e-05 0)
(8.74636e-05 1.68662e-05 0)
(6.78121e-05 1.60055e-05 0)
(4.9461e-05 1.45796e-05 0)
(3.30835e-05 1.25141e-05 0)
(1.93935e-05 9.76706e-06 0)
(9.08349e-06 6.3925e-06 0)
(2.7162e-06 2.72188e-06 0)
(9.46485e-08 -6.55295e-08 0)
(8.8677e-07 -5.44579e-06 0)
(4.32906e-06 -8.68652e-06 0)
(6.38905e-06 -6.35761e-06 0)
(4.98261e-06 -4.53504e-07 0)
(-1.66201e-06 7.58697e-06 0)
(-1.45509e-05 1.67619e-05 0)
(-3.42064e-05 2.63905e-05 0)
(-6.08133e-05 3.60213e-05 0)
(-9.43118e-05 4.53617e-05 0)
(-0.000134474 5.42278e-05 0)
(-0.00018096 6.25099e-05 0)
(-0.00023336 7.01492e-05 0)
(-0.000291229 7.71224e-05 0)
(-0.0003541 8.34305e-05 0)
(-0.00042151 8.90905e-05 0)
(-0.000493004 9.41308e-05 0)
(-0.000568145 9.85863e-05 0)
(-0.000646518 0.000102496 0)
(-0.000727738 0.000105903 0)
(-0.000811444 0.000108847 0)
(-0.000897306 0.000111371 0)
(-0.000985022 0.000113516 0)
(-0.00107432 0.00011532 0)
(-0.00116495 0.000116819 0)
(-0.00125669 0.000118049 0)
(-0.00134935 0.000119039 0)
(-0.00144275 0.00011982 0)
(-0.00153673 0.000120418 0)
(-0.00163117 0.000120857 0)
(-0.00172593 0.000121158 0)
(-0.00182093 0.00012134 0)
(-0.00191607 0.00012142 0)
(-0.00201126 0.000121413 0)
(-0.00210645 0.000121333 0)
(-0.00220158 0.000121188 0)
(-0.0022966 0.00012099 0)
(-0.00239146 0.000120745 0)
(-0.00248612 0.00012046 0)
(-0.00258056 0.000120141 0)
(-0.00267474 0.00011979 0)
(-0.00276863 0.00011941 0)
(-0.00286222 0.000119004 0)
(-0.00295547 0.000118573 0)
(-0.00304837 0.000118116 0)
(-0.00314089 0.000117634 0)
(-0.003233 0.000117126 0)
(-0.0033247 0.000116589 0)
(-0.00341594 0.000116023 0)
(-0.0035067 0.000115424 0)
(-0.00359696 0.00011479 0)
(-0.00368669 0.000114119 0)
(-0.00377584 0.000113407 0)
(-0.0038644 0.000112651 0)
(-0.00395231 0.000111847 0)
(-0.00403955 0.000110992 0)
(-0.00412606 0.000110082 0)
(-0.00421181 0.000109112 0)
(-0.00429675 0.000108081 0)
(-0.00438081 0.000106982 0)
(-0.00446396 0.000105813 0)
(-0.00454613 0.000104569 0)
(-0.00462726 0.000103247 0)
(-0.0047073 0.000101842 0)
(-0.00478617 0.000100352 0)
(-0.0048638 9.87717e-05 0)
(-0.00494014 9.70983e-05 0)
(-0.00501509 9.5328e-05 0)
(-0.00508859 9.34576e-05 0)
(-0.00516056 9.14837e-05 0)
(-0.00523092 8.94034e-05 0)
(-0.00529958 8.72137e-05 0)
(-0.00536646 8.4912e-05 0)
(-0.00543147 8.24958e-05 0)
(-0.00549452 7.99628e-05 0)
(-0.00555553 7.73111e-05 0)
(-0.0056144 7.45388e-05 0)
(-0.00567103 7.16446e-05 0)
(-0.00572535 6.86272e-05 0)
(-0.00577724 6.54859e-05 0)
(-0.00582662 6.22201e-05 0)
(-0.0058734 5.88297e-05 0)
(-0.00591747 5.53148e-05 0)
(-0.00595874 5.16761e-05 0)
(-0.00599712 4.79145e-05 0)
(-0.00603252 4.40315e-05 0)
(-0.00606485 4.00288e-05 0)
(-0.00609402 3.59087e-05 0)
(-0.00611993 3.16738e-05 0)
(-0.00614251 2.73274e-05 0)
(-0.00616167 2.28729e-05 0)
(-0.00617733 1.83144e-05 0)
(-0.00618941 1.36566e-05 0)
(-0.00619786 8.90425e-06 0)
(-0.00620258 4.06291e-06 0)
(-0.00620353 -8.61523e-07 0)
(-0.00620064 -5.86268e-06 0)
(-0.00619385 -1.09337e-05 0)
(-0.00618313 -1.60674e-05 0)
(-0.00616842 -2.12561e-05 0)
(-0.00614969 -2.64916e-05 0)
(-0.00612691 -3.17654e-05 0)
(-0.00610005 -3.70687e-05 0)
(-0.0060691 -4.23923e-05 0)
(-0.00603404 -4.77265e-05 0)
(-0.00599489 -5.30615e-05 0)
(-0.00595163 -5.83871e-05 0)
(-0.00590428 -6.3693e-05 0)
(-0.00585286 -6.89685e-05 0)
(-0.00579741 -7.42028e-05 0)
(-0.00573796 -7.9385e-05 0)
(-0.00567455 -8.45041e-05 0)
(-0.00560723 -8.9549e-05 0)
(-0.00553608 -9.45084e-05 0)
(-0.00546116 -9.93713e-05 0)
(-0.00538254 -0.000104127 0)
(-0.00530033 -0.000108764 0)
(-0.0052146 -0.000113271 0)
(-0.00512546 -0.000117639 0)
(-0.00503304 -0.000121856 0)
(-0.00493743 -0.000125912 0)
(-0.00483877 -0.000129798 0)
(-0.0047372 -0.000133505 0)
(-0.00463285 -0.000137022 0)
(-0.00452588 -0.000140342 0)
(-0.00441642 -0.000143456 0)
(-0.00430465 -0.000146357 0)
(-0.00419073 -0.000149037 0)
(-0.00407483 -0.00015149 0)
(-0.00395712 -0.00015371 0)
(-0.00383778 -0.000155691 0)
(-0.00371699 -0.000157429 0)
(-0.00359494 -0.000158919 0)
(-0.00347183 -0.000160159 0)
(-0.00334783 -0.000161144 0)
(-0.00322315 -0.000161874 0)
(-0.00309798 -0.000162347 0)
(-0.00297251 -0.000162561 0)
(-0.00284694 -0.000162517 0)
(-0.00272147 -0.000162216 0)
(-0.00259628 -0.000161658 0)
(-0.00247158 -0.000160846 0)
(-0.00234756 -0.000159782 0)
(-0.00222441 -0.000158468 0)
(-0.00210231 -0.000156909 0)
(-0.00198145 -0.000155109 0)
(-0.00186202 -0.000153072 0)
(-0.00174418 -0.000150804 0)
(-0.00162813 -0.00014831 0)
(-0.00151402 -0.000145597 0)
(-0.00140202 -0.00014267 0)
(-0.00129229 -0.000139536 0)
(-0.00118499 -0.000136203 0)
(-0.00108028 -0.000132678 0)
(-0.000978283 -0.000128968 0)
(-0.000879153 -0.000125081 0)
(-0.000783021 -0.000121026 0)
(-0.000690013 -0.00011681 0)
(-0.000600252 -0.000112441 0)
(-0.000513852 -0.000107929 0)
(-0.000430921 -0.000103281 0)
(-0.000351563 -9.85063e-05 0)
(-0.000275874 -9.36135e-05 0)
(-0.000203942 -8.86114e-05 0)
(-0.000135851 -8.35087e-05 0)
(-7.16762e-05 -7.83146e-05 0)
(-1.14865e-05 -7.30381e-05 0)
(4.46561e-05 -6.76886e-05 0)
(9.6697e-05 -6.22756e-05 0)
(0.000144589 -5.68089e-05 0)
(0.000188294 -5.12989e-05 0)
(0.000227779 -4.5756e-05 0)
(0.000263023 -4.01917e-05 0)
(0.000294012 -3.46178e-05 0)
(0.000320742 -2.90472e-05 0)
(0.000343221 -2.34936e-05 0)
(0.000361468 -1.79722e-05 0)
(0.000375512 -1.24995e-05 0)
(0.000385399 -7.09396e-06 0)
(0.000391188 -1.77608e-06 0)
(0.000392958 3.43105e-06 0)
(0.000390805 8.50132e-06 0)
(0.000384847 1.3405e-05 0)
(0.000375226 1.81081e-05 0)
(0.000362115 2.25717e-05 0)
(0.000345714 2.67508e-05 0)
(0.000326264 3.05933e-05 0)
(0.000304044 3.4039e-05 0)
(0.000279383 3.7018e-05 0)
(0.000252663 3.94488e-05 0)
(0.000224326 4.1237e-05 0)
(0.000194886 4.22736e-05 0)
(0.000164929 4.24336e-05 0)
(0.00013513 4.15762e-05 0)
(0.000106245 3.95489e-05 0)
(7.91177e-05 3.61974e-05 0)
(5.46558e-05 3.13934e-05 0)
(3.37889e-05 2.50915e-05 0)
(1.74051e-05 1.74454e-05 0)
(6.36409e-06 9.08026e-06 0)
(6.43902e-07 1.78402e-06 0)
(5.95632e-07 -7.50193e-06 0)
(2.04705e-06 -1.05709e-05 0)
(4.57625e-07 -4.94126e-06 0)
(-6.36262e-06 6.33418e-06 0)
(-2.01778e-05 2.10928e-05 0)
(-4.20545e-05 3.77816e-05 0)
(-7.25732e-05 5.53e-05 0)
(-0.000111952 7.2886e-05 0)
(-0.000160137 9.00244e-05 0)
(-0.000216874 0.000106377 0)
(-0.000281771 0.000121731 0)
(-0.000354345 0.000135965 0)
(-0.000434057 0.000149021 0)
(-0.000520339 0.000160888 0)
(-0.000612615 0.000171584 0)
(-0.000710315 0.000181151 0)
(-0.000812887 0.000189647 0)
(-0.000919804 0.000197137 0)
(-0.00103057 0.000203693 0)
(-0.00114471 0.000209387 0)
(-0.0012618 0.000214294 0)
(-0.00138145 0.000218486 0)
(-0.00150329 0.000222033 0)
(-0.00162699 0.000225001 0)
(-0.00175226 0.000227453 0)
(-0.00187883 0.000229448 0)
(-0.00200647 0.000231038 0)
(-0.00213497 0.000232272 0)
(-0.00226413 0.000233197 0)
(-0.00239379 0.000233851 0)
(-0.00252382 0.00023427 0)
(-0.00265408 0.000234487 0)
(-0.00278447 0.00023453 0)
(-0.00291488 0.000234422 0)
(-0.00304524 0.000234184 0)
(-0.00317547 0.000233836 0)
(-0.0033055 0.00023339 0)
(-0.00343529 0.000232861 0)
(-0.00356478 0.000232256 0)
(-0.00369392 0.000231586 0)
(-0.00382267 0.000230854 0)
(-0.003951 0.000230065 0)
(-0.00407887 0.000229221 0)
(-0.00420624 0.000228323 0)
(-0.00433307 0.00022737 0)
(-0.00445935 0.000226362 0)
(-0.00458501 0.000225295 0)
(-0.00471004 0.000224167 0)
(-0.00483438 0.000222973 0)
(-0.00495801 0.000221709 0)
(-0.00508087 0.000220369 0)
(-0.00520292 0.000218947 0)
(-0.00532411 0.000217438 0)
(-0.00544439 0.000215835 0)
(-0.0055637 0.000214131 0)
(-0.00568198 0.000212319 0)
(-0.00579917 0.000210393 0)
(-0.0059152 0.000208345 0)
(-0.00603001 0.000206167 0)
(-0.00614351 0.000203853 0)
(-0.00625563 0.000201395 0)
(-0.00636629 0.000198786 0)
(-0.0064754 0.000196019 0)
(-0.00658288 0.000193087 0)
(-0.00668863 0.000189983 0)
(-0.00679255 0.0001867 0)
(-0.00689455 0.000183232 0)
(-0.00699452 0.000179572 0)
(-0.00709235 0.000175715 0)
(-0.00718794 0.000171655 0)
(-0.00728118 0.000167387 0)
(-0.00737195 0.000162906 0)
(-0.00746013 0.000158207 0)
(-0.00754561 0.000153286 0)
(-0.00762826 0.000148139 0)
(-0.00770797 0.000142764 0)
(-0.0077846 0.000137158 0)
(-0.00785804 0.000131319 0)
(-0.00792816 0.000125245 0)
(-0.00799483 0.000118936 0)
(-0.00805792 0.000112391 0)
(-0.00811732 0.000105612 0)
(-0.00817289 9.85988e-05 0)
(-0.00822452 9.13545e-05 0)
(-0.00827208 8.38817e-05 0)
(-0.00831544 7.61838e-05 0)
(-0.0083545 6.82654e-05 0)
(-0.00838914 6.01317e-05 0)
(-0.00841924 5.17888e-05 0)
(-0.0084447 4.32438e-05 0)
(-0.00846541 3.45044e-05 0)
(-0.00848128 2.55793e-05 0)
(-0.00849221 1.64782e-05 0)
(-0.0084981 7.2114e-06 0)
(-0.00849888 -2.20968e-06 0)
(-0.00849448 -1.17729e-05 0)
(-0.00848481 -2.14653e-05 0)
(-0.00846982 -3.1273e-05 0)
(-0.00844946 -4.11815e-05 0)
(-0.00842368 -5.11753e-05 0)
(-0.00839243 -6.12384e-05 0)
(-0.00835569 -7.13539e-05 0)
(-0.00831345 -8.15044e-05 0)
(-0.00826568 -9.16719e-05 0)
(-0.00821239 -0.000101838 0)
(-0.00815359 -0.000111982 0)
(-0.00808929 -0.000122087 0)
(-0.00801954 -0.000132131 0)
(-0.00794436 -0.000142094 0)
(-0.00786381 -0.000151957 0)
(-0.00777795 -0.000161697 0)
(-0.00768685 -0.000171294 0)
(-0.00759061 -0.000180728 0)
(-0.00748931 -0.000189977 0)
(-0.00738306 -0.000199021 0)
(-0.00727199 -0.00020784 0)
(-0.0071562 -0.000216412 0)
(-0.00703586 -0.000224718 0)
(-0.00691109 -0.000232739 0)
(-0.00678207 -0.000240456 0)
(-0.00664896 -0.000247851 0)
(-0.00651194 -0.000254904 0)
(-0.00637119 -0.000261601 0)
(-0.00622692 -0.000267924 0)
(-0.00607932 -0.000273859 0)
(-0.00592861 -0.00027939 0)
(-0.005775 -0.000284506 0)
(-0.00561873 -0.000289192 0)
(-0.00546002 -0.000293439 0)
(-0.00529911 -0.000297235 0)
(-0.00513625 -0.000300573 0)
(-0.00497167 -0.000303444 0)
(-0.00480563 -0.000305841 0)
(-0.00463839 -0.000307761 0)
(-0.0044702 -0.000309197 0)
(-0.00430131 -0.000310149 0)
(-0.004132 -0.000310613 0)
(-0.0039625 -0.000310591 0)
(-0.0037931 -0.000310083 0)
(-0.00362404 -0.00030909 0)
(-0.00345558 -0.000307617 0)
(-0.00328798 -0.000305668 0)
(-0.00312149 -0.000303248 0)
(-0.00295636 -0.000300364 0)
(-0.00279284 -0.000297024 0)
(-0.00263116 -0.000293236 0)
(-0.00247158 -0.00028901 0)
(-0.00231431 -0.000284355 0)
(-0.00215959 -0.000279284 0)
(-0.00200764 -0.000273808 0)
(-0.00185867 -0.000267939 0)
(-0.0017129 -0.000261691 0)
(-0.00157052 -0.000255076 0)
(-0.00143172 -0.00024811 0)
(-0.0012967 -0.000240806 0)
(-0.00116564 -0.00023318 0)
(-0.00103871 -0.000225246 0)
(-0.000916065 -0.00021702 0)
(-0.00079787 -0.000208518 0)
(-0.000684269 -0.000199756 0)
(-0.000575403 -0.000190749 0)
(-0.000471402 -0.000181514 0)
(-0.000372388 -0.000172067 0)
(-0.000278474 -0.000162426 0)
(-0.000189764 -0.000152607 0)
(-0.000106354 -0.000142627 0)
(-2.83275e-05 -0.000132505 0)
(4.42387e-05 -0.000122259 0)
(0.00011128 -0.000111907 0)
(0.00017274 -0.00010147 0)
(0.000228577 -9.09673e-05 0)
(0.000278758 -8.04213e-05 0)
(0.000323264 -6.98551e-05 0)
(0.000362089 -5.92935e-05 0)
(0.000395242 -4.87635e-05 0)
(0.000422746 -3.82944e-05 0)
(0.000444644 -2.79185e-05 0)
(0.000460995 -1.76715e-05 0)
(0.000471882 -7.59304e-06 0)
(0.000477408 2.27215e-06 0)
(0.000477705 1.18739e-05 0)
(0.000472933 2.11552e-05 0)
(0.000463285 3.00516e-05 0)
(0.00044899 3.84891e-05 0)
(0.00043032 4.63835e-05 0)
(0.000407593 5.3638e-05 0)
(0.00038118 6.01415e-05 0)
(0.000351513 6.57669e-05 0)
(0.000319088 7.03682e-05 0)
(0.000284476 7.37789e-05 0)
(0.000248329 7.58104e-05 0)
(0.000211386 7.62519e-05 0)
(0.000174476 7.48733e-05 0)
(0.000138519 7.14342e-05 0)
(0.000104519 6.57044e-05 0)
(7.35426e-05 5.75067e-05 0)
(4.66731e-05 4.67979e-05 0)
(2.49822e-05 3.38132e-05 0)
(9.7019e-06 1.93537e-05 0)
(1.10937e-06 5.3948e-06 0)
(1.84067e-07 -8.23524e-06 0)
(-1.24727e-06 -9.00281e-06 0)
(-7.74264e-06 1.79699e-06 0)
(-2.14481e-05 2.02189e-05 0)
(-4.39162e-05 4.3443e-05 0)
(-7.61488e-05 6.93961e-05 0)
(-0.000118699 9.6565e-05 0)
(-0.000171766 0.000123869 0)
(-0.000235274 0.000150552 0)
(-0.000308938 0.000176101 0)
(-0.000392323 0.000200183 0)
(-0.000484889 0.000222596 0)
(-0.000586029 0.000243236 0)
(-0.000695096 0.000262068 0)
(-0.00081143 0.000279109 0)
(-0.000934372 0.000294411 0)
(-0.00106328 0.000308051 0)
(-0.00119753 0.000320124 0)
(-0.00133653 0.000330732 0)
(-0.00147974 0.000339986 0)
(-0.00162663 0.000347995 0)
(-0.00177673 0.00035487 0)
(-0.00192961 0.000360717 0)
(-0.00208485 0.000365637 0)
(-0.0022421 0.000369728 0)
(-0.00240103 0.000373079 0)
(-0.00256136 0.000375775 0)
(-0.0027228 0.000377892 0)
(-0.00288514 0.000379501 0)
(-0.00304817 0.000380665 0)
(-0.00321169 0.00038144 0)
(-0.00337556 0.000381879 0)
(-0.00353962 0.000382024 0)
(-0.00370376 0.000381915 0)
(-0.00386786 0.000381587 0)
(-0.00403183 0.000381067 0)
(-0.00419557 0.000380379 0)
(-0.00435902 0.000379545 0)
(-0.00452211 0.00037858 0)
(-0.00468476 0.000377497 0)
(-0.00484694 0.000376305 0)
(-0.00500857 0.000375012 0)
(-0.00516961 0.000373621 0)
(-0.00533002 0.000372134 0)
(-0.00548974 0.000370552 0)
(-0.00564873 0.000368871 0)
(-0.00580693 0.00036709 0)
(-0.0059643 0.000365201 0)
(-0.00612078 0.000363201 0)
(-0.00627632 0.000361081 0)
(-0.00643086 0.000358833 0)
(-0.00658434 0.000356449 0)
(-0.0067367 0.000353918 0)
(-0.00688786 0.000351231 0)
(-0.00703776 0.000348378 0)
(-0.00718632 0.000345347 0)
(-0.00733346 0.000342127 0)
(-0.00747909 0.000338708 0)
(-0.00762313 0.000335077 0)
(-0.00776548 0.000331224 0)
(-0.00790604 0.000327137 0)
(-0.00804471 0.000322804 0)
(-0.00818139 0.000318214 0)
(-0.00831595 0.000313357 0)
(-0.00844829 0.000308221 0)
(-0.00857829 0.000302797 0)
(-0.00870581 0.000297073 0)
(-0.00883074 0.000291041 0)
(-0.00895294 0.00028469 0)
(-0.00907228 0.000278013 0)
(-0.00918861 0.000271001 0)
(-0.00930181 0.000263645 0)
(-0.00941171 0.000255941 0)
(-0.00951818 0.00024788 0)
(-0.00962107 0.000239458 0)
(-0.00972022 0.000230669 0)
(-0.00981549 0.000221511 0)
(-0.00990672 0.00021198 0)
(-0.00999376 0.000202074 0)
(-0.0100765 0.000191793 0)
(-0.0101546 0.000181136 0)
(-0.0102282 0.000170104 0)
(-0.0102969 0.000158701 0)
(-0.0103607 0.00014693 0)
(-0.0104194 0.000134795 0)
(-0.0104728 0.000122303 0)
(-0.0105208 0.000109461 0)
(-0.0105633 9.6278e-05 0)
(-0.0106001 8.27638e-05 0)
(-0.0106312 6.89299e-05 0)
(-0.0106563 5.47892e-05 0)
(-0.0106753 4.03556e-05 0)
(-0.0106882 2.56449e-05 0)
(-0.0106949 1.06739e-05 0)
(-0.0106952 -4.5391e-06 0)
(-0.010689 -1.99745e-05 0)
(-0.0106763 -3.56114e-05 0)
(-0.010657 -5.14276e-05 0)
(-0.010631 -6.73996e-05 0)
(-0.0105983 -8.35028e-05 0)
(-0.0105588 -9.97113e-05 0)
(-0.0105125 -0.000115998 0)
(-0.0104594 -0.000132336 0)
(-0.0103995 -0.000148696 0)
(-0.0103328 -0.000165048 0)
(-0.0102592 -0.000181361 0)
(-0.0101788 -0.000197605 0)
(-0.0100917 -0.000213747 0)
(-0.00999792 -0.000229757 0)
(-0.00989749 -0.0002456 0)
(-0.00979051 -0.000261244 0)
(-0.00967708 -0.000276656 0)
(-0.00955729 -0.000291803 0)
(-0.00943128 -0.000306652 0)
(-0.00929916 -0.00032117 0)
(-0.00916109 -0.000335325 0)
(-0.00901723 -0.000349085 0)
(-0.00886774 -0.000362418 0)
(-0.00871281 -0.000375293 0)
(-0.00855264 -0.000387682 0)
(-0.00838743 -0.000399554 0)
(-0.0082174 -0.000410881 0)
(-0.00804278 -0.000421638 0)
(-0.00786381 -0.000431799 0)
(-0.00768074 -0.000441339 0)
(-0.00749383 -0.000450236 0)
(-0.00730335 -0.000458468 0)
(-0.00710957 -0.000466018 0)
(-0.00691277 -0.000472865 0)
(-0.00671325 -0.000478996 0)
(-0.0065113 -0.000484395 0)
(-0.00630722 -0.000489051 0)
(-0.00610133 -0.000492953 0)
(-0.00589391 -0.000496093 0)
(-0.0056853 -0.000498464 0)
(-0.0054758 -0.000500062 0)
(-0.00526573 -0.000500885 0)
(-0.00505541 -0.000500931 0)
(-0.00484515 -0.000500202 0)
(-0.00463526 -0.000498703 0)
(-0.00442608 -0.000496436 0)
(-0.00421789 -0.00049341 0)
(-0.00401102 -0.000489634 0)
(-0.00380577 -0.000485116 0)
(-0.00360244 -0.00047987 0)
(-0.00340132 -0.000473908 0)
(-0.00320272 -0.000467246 0)
(-0.00300691 -0.000459899 0)
(-0.00281416 -0.000451884 0)
(-0.00262476 -0.000443221 0)
(-0.00243897 -0.000433928 0)
(-0.00225705 -0.000424026 0)
(-0.00207923 -0.000413536 0)
(-0.00190577 -0.00040248 0)
(-0.00173689 -0.000390881 0)
(-0.00157281 -0.000378763 0)
(-0.00141376 -0.000366148 0)
(-0.00125992 -0.000353062 0)
(-0.0011115 -0.000339529 0)
(-0.000968681 -0.000325574 0)
(-0.000831631 -0.000311222 0)
(-0.000700516 -0.0002965 0)
(-0.000575489 -0.000281434 0)
(-0.000456692 -0.000266051 0)
(-0.000344254 -0.000250377 0)
(-0.000238295 -0.000234441 0)
(-0.000138923 -0.000218271 0)
(-4.6234e-05 -0.000201896 0)
(3.96902e-05 -0.000185348 0)
(0.00011878 -0.000168658 0)
(0.000190978 -0.000151859 0)
(0.000256245 -0.000134988 0)
(0.000314555 -0.000118081 0)
(0.000365899 -0.00010118 0)
(0.000410287 -8.43279e-05 0)
(0.000447748 -6.75734e-05 0)
(0.000478334 -5.09689e-05 0)
(0.000502118 -3.45724e-05 0)
(0.000519203 -1.84488e-05 0)
(0.000529716 -2.67022e-06 0)
(0.000533822 1.26823e-05 0)
(0.000531715 2.75173e-05 0)
(0.000523636 4.17315e-05 0)
(0.000509864 5.52077e-05 0)
(0.000490733 6.78131e-05 0)
(0.000466628 7.93965e-05 0)
(0.000437999 8.97861e-05 0)
(0.000405361 9.87871e-05 0)
(0.000369307 0.000106179 0)
(0.000330508 0.000111713 0)
(0.000289724 0.000115115 0)
(0.000247808 0.00011608 0)
(0.000205705 0.000114288 0)
(0.000164451 0.000109408 0)
(0.000125168 0.000101136 0)
(8.90461e-05 8.92406e-05 0)
(5.73072e-05 7.36586e-05 0)
(3.1221e-05 5.4635e-05 0)
(1.241e-05 3.29737e-05 0)
(1.46567e-06 1.0493e-05 0)
(-2.86127e-07 -7.2783e-06 0)
(-5.09678e-06 -3.12019e-06 0)
(-1.72802e-05 1.49926e-05 0)
(-3.88448e-05 4.24415e-05 0)
(-7.09931e-05 7.58577e-05 0)
(-0.000114567 0.000112711 0)
(-0.00017002 0.000151111 0)
(-0.000237483 0.000189674 0)
(-0.000316826 0.000227406 0)
(-0.000407719 0.000263618 0)
(-0.000509679 0.000297845 0)
(-0.000622115 0.000329798 0)
(-0.000744362 0.000359317 0)
(-0.000875714 0.000386338 0)
(-0.00101544 0.00041087 0)
(-0.00116281 0.000432972 0)
(-0.00131712 0.000452741 0)
(-0.00147765 0.000470298 0)
(-0.00164376 0.000485781 0)
(-0.00181482 0.000499336 0)
(-0.00199023 0.000511114 0)
(-0.00216946 0.000521265 0)
(-0.00235199 0.000529936 0)
(-0.00253737 0.000537268 0)
(-0.00272518 0.000543398 0)
(-0.00291503 0.000548451 0)
(-0.00310659 0.000552545 0)
(-0.00329953 0.00055579 0)
(-0.00349359 0.000558285 0)
(-0.00368851 0.000560121 0)
(-0.00388408 0.000561378 0)