/*--------------------------------*- C++ -*----------------------------------*\
  =========                 |
  \\      /  F ield         | OpenFOAM: The Open Source CFD Toolbox
   \\    /   O peration     | Website:  https://openfoam.org
    \\  /    A nd           | Version:  6
     \\/     M anipulation  |
\*---------------------------------------------------------------------------*/
FoamFile
{
    version     2.0;
    format      ascii;
    class       volScalarField;
    location    "0";
    object      p;
}
// * * * * * * * * * * * * * * * * * * * * * * * * * * * * * * * * * * * * * //

dimensions      [0 2 -2 0 0 0 0];

internalField   nonuniform List<scalar> 
11644
(
0.0984413
0.0993481
0.101087
0.103661
0.107087
0.111373
0.116516
0.122507
0.129315
0.136887
0.145133
0.153919
0.163056
0.172292
0.181312
0.189744
0.197181
0.203214
0.207473
0.209679
0.209679
0.207474
0.203214
0.197182
0.189745
0.181313
0.172293
0.163057
0.15392
0.145134
0.136888
0.129316
0.122508
0.116517
0.111373
0.107088
0.103662
0.101088
0.0993489
0.0984421
0.0972562
0.0981217
0.09983
0.102386
0.105802
0.110087
0.115249
0.121283
0.128173
0.135877
0.144324
0.153391
0.162902
0.172608
0.18218
0.191219
0.199269
0.205853
0.210533
0.212967
0.212967
0.210533
0.205854
0.199269
0.19122
0.182181
0.172608
0.162903
0.153392
0.144324
0.135878
0.128173
0.121284
0.115249
0.110088
0.105802
0.102387
0.0998308
0.0981225
0.097257
0.0945424
0.0953799
0.0970544
0.0995784
0.10297
0.107249
0.112436
0.118549
0.125597
0.13357
0.142431
0.152095
0.162415
0.173153
0.183963
0.194384
0.20385
0.21173
0.217409
0.22039
0.22039
0.21741
0.21173
0.203851
0.194385
0.183964
0.173153
0.162416
0.152096
0.142431
0.133571
0.125598
0.11855
0.112437
0.10725
0.102971
0.0995792
0.0970552
0.0953807
0.0945432
0.0902041
0.0910131
0.0926411
0.0951081
0.0984432
0.102683
0.107873
0.114062
0.121298
0.129627
0.139071
0.149619
0.161184
0.173574
0.186436
0.199224
0.211191
0.221422
0.228956
0.232963
0.232963
0.228956
0.221422
0.211191
0.199225
0.186437
0.173575
0.161185
0.149619
0.139072
0.129627
0.121299
0.114062
0.107874
0.102684
0.098444
0.0951089
0.0926419
0.0910139
0.0902049
0.0842761
0.0850415
0.0865899
0.0889495
0.0921624
0.0962861
0.101394
0.107575
0.114934
0.123587
0.133656
0.145249
0.158414
0.173067
0.188914
0.20531
0.221267
0.235444
0.246202
0.252031
0.252031
0.246202
0.235444
0.221268
0.205311
0.188915
0.173068
0.158415
0.14525
0.133657
0.123588
0.114934
0.107576
0.101395
0.0962869
0.0921632
0.0889503
0.0865907
0.0850423
0.0842768
0.0768165
0.0775126
0.0789288
0.0811011
0.0840838
0.0879537
0.0928131
0.0987945
0.106065
0.114831
0.125343
0.137897
0.152793
0.170188
0.190017
0.211734
0.233801
0.2546
0.270941
0.280029
0.280029
0.270941
0.254601
0.233802
0.211735
0.190019
0.170189
0.152794
0.137898
0.125344
0.114832
0.106066
0.0987953
0.0928139
0.0879545
0.0840846
0.0811019
0.0789296
0.0775133
0.0768173
0.0679019
0.0684944
0.069709
0.071586
0.0741869
0.0776014
0.0819536
0.0874109
0.0941965
0.102606
0.113031
0.126
0.142227
0.162586
0.187229
0.216204
0.235898
0.265853
0.291059
0.307695
0.311461
0.301288
0.279961
0.252415
0.216205
0.187231
0.162588
0.142228
0.126001
0.113032
0.102607
0.0941974
0.0874118
0.0819544
0.0776022
0.0741877
0.0715867
0.0697097
0.0684951
0.0679026
0.057662
0.0581112
0.0590426
0.0604948
0.0625271
0.0652286
0.0687269
0.0732016
0.0789005
0.0861674
0.0955017
0.107668
0.123694
0.144119
0.170612
0.203428
0.24473
0.289578
0.332837
0.363204
0.36998
0.350393
0.312071
0.266668
0.224241
0.187135
0.157714
0.123696
0.107669
0.0955028
0.0861684
0.0789014
0.0732024
0.0687277
0.0652293
0.0625278
0.0604955
0.0590433
0.0581118
0.0576626
0.0463049
0.0465707
0.0471348
0.0480258
0.0492876
0.0509887
0.0532311
0.0561642
0.0600021
0.065046
0.07174
0.0808463
0.0936643
0.116876
0.143541
0.181686
0.229506
0.29435
0.367256
0.428144
0.448873
0.417478
0.351664
0.279364
0.217526
0.160815
0.129372
0.0936658
0.0808475
0.071741
0.0650469
0.0600029
0.0561649
0.0532319
0.0509894
0.0492883
0.0480265
0.0471354
0.0465713
0.0463056
0.0341275
0.0341758
0.0343001
0.0345102
0.0348199
0.0352543
0.0358543
0.036685
0.0378477
0.0394852
0.0417847
0.0450659
0.0500706
0.0712305
0.0893877
0.124306
0.176296
0.262799
0.386017
0.520995
0.57951
0.506139
0.368845
0.250244
0.162164
0.102543
0.079423
0.0500719
0.0450669
0.0417856
0.039486
0.0378484
0.0366857
0.035855
0.035255
0.0348205
0.0345107
0.0343007
0.0341764
0.0341281
0.0215105
0.0213217
0.0209624
0.0204168
0.0196577
0.0186483
0.0173392
0.0156639
0.0135367
0.0108369
0.00733901
0.00256928
-0.00420325
0.00796164
0.00420512
0.0190031
0.0425501
0.0961685
0.254132
0.567166
0.789272
0.544343
0.246027
0.0861816
0.0278185
0.00255397
0.00609736
-0.00420245
0.00257
0.00733967
0.0108375
0.0135373
0.0156644
0.0173397
0.0186489
0.0196582
0.0204173
0.0209629
0.0213222
0.021511
0.008899
0.0084746
0.00763192
0.00632758
0.00448994
0.00201564
-0.00124375
-0.00550036
-0.0110533
-0.0183249
-0.0279729
-0.041226
-0.0603266
-0.0628538
-0.0961792
-0.120857
-0.170265
-0.238512
-0.254854
-0.258403
-0.249409
-0.172822
-0.119096
-0.0779758
-0.0603266
-0.0412258
-0.0279726
-0.0183246
-0.0110529
-0.00549997
-0.00124335
0.00201604
0.00449035
0.006328
0.00763233
0.00847501
0.00889942
-0.00323487
-0.00386917
-0.00514431
-0.00712683
-0.00992492
-0.0136962
-0.0186672
-0.0251612
-0.0336357
-0.0447306
-0.059377
-0.079123
-0.106565
-0.122585
-0.175441
-0.228403
-0.320356
-0.456682
-0.643363
-0.63781
-0.445317
-0.308652
-0.209889
-0.14682
-0.106566
-0.0791232
-0.0593771
-0.0447305
-0.0336356
-0.025161
-0.0186669
-0.0136959
-0.00992461
-0.00712651
-0.00514398
-0.00386883
-0.00323453
-0.0144417
-0.0152388
-0.01685
-0.0193551
-0.0228816
-0.0276143
-0.0338138
-0.0418441
-0.0522077
-0.065589
-0.0829363
-0.105649
-0.135629
-0.158461
-0.211999
-0.265617
-0.338648
-0.413934
-0.463703
-0.461801
-0.405884
-0.325791
-0.243563
-0.183711
-0.13563
-0.10565
-0.0829366
-0.0655892
-0.0522077
-0.041844
-0.0338136
-0.0276141
-0.0228814
-0.0193549
-0.0168498
-0.0152385
-0.0144414
-0.0243462
-0.0252462
-0.0270698
-0.0298979
-0.0338583
-0.0391325
-0.045971
-0.0547112
-0.0658009
-0.0798253
-0.0975537
-0.120003
-0.148197
-0.171844
-0.216021
-0.258347
-0.304853
-0.341339
-0.358119
-0.355835
-0.351342
-0.356984
-0.35708
-0.33794
-0.29562
-0.239567
-0.193365
-0.148197
-0.120004
-0.097554
-0.0798255
-0.065801
-0.0547112
-0.0459709
-0.0391324
-0.0338582
-0.0298978
-0.0270696
-0.025246
-0.0243461
-0.0326863
-0.0336272
-0.0355353
-0.0384833
-0.0425833
-0.0479921
-0.0549194
-0.0636367
-0.074486
-0.0878899
-0.104368
-0.124501
-0.148603
-0.17074
-0.203897
-0.236197
-0.264929
-0.28406
-0.294195
-0.297054
-0.29709
-0.296813
-0.292456
-0.280088
-0.258665
-0.220252
-0.187539
-0.148604
-0.124502
-0.104368
-0.0878901
-0.0744862
-0.0636368
-0.0549194
-0.047992
-0.0425832
-0.0384832
-0.0355352
-0.0336271
-0.0326862
-0.0393275
-0.0402551
-0.0421359
-0.0450289
-0.0490231
-0.0542407
-0.0608401
-0.0690185
-0.0790105
-0.0910822
-0.105536
-0.122743
-0.143043
-0.165408
-0.183877
-0.206916
-0.226411
-0.238898
-0.245333
-0.247753
-0.248166
-0.24741
-0.244178
-0.236431
-0.216415
-0.195883
-0.165409
-0.143043
-0.122744
-0.105536
-0.0910824
-0.0790107
-0.0690186
-0.0608402
-0.0542408
-0.0490231
-0.0450288
-0.0421358
-0.040255
-0.0393275
-0.0442549
-0.0451274
-0.0468954
-0.0496029
-0.0533143
-0.0581162
-0.0641166
-0.0714442
-0.0802409
-0.0906471
-0.102781
-0.116719
-0.132345
-0.148629
-0.164683
-0.17964
-0.193112
-0.200702
-0.204494
-0.205951
-0.206232
-0.205734
-0.203818
-0.199217
-0.185582
-0.172711
-0.148629
-0.132345
-0.116719
-0.102781
-0.0906473
-0.0802411
-0.0714443
-0.0641167
-0.0581162
-0.0533144
-0.0496029
-0.0468954
-0.0451274
-0.0442549
-0.0475485
-0.0483376
-0.0499358
-0.0523727
-0.0556904
-0.0599436
-0.0651974
-0.0715231
-0.07899
-0.0876481
-0.097496
-0.108439
-0.120207
-0.132105
-0.144984
-0.154826
-0.164152
-0.168559
-0.170578
-0.171256
-0.171371
-0.171161
-0.170238
-0.167714
-0.15853
-0.150404
-0.132106
-0.120207
-0.108439
-0.0974963
-0.0876484
-0.0789902
-0.0715232
-0.0651975
-0.0599437
-0.0556904
-0.0523727
-0.0499358
-0.0483376
-0.0475485
-0.0493542
-0.0500441
-0.0514407
-0.0535618
-0.0564312
-0.0600782
-0.0645349
-0.0698309
-0.0759861
-0.0829969
-0.0908088
-0.0992625
-0.108011
-0.116504
-0.126557
-0.132959
-0.139386
-0.141693
-0.142503
-0.142606
-0.142585
-0.142609
-0.142398
-0.141277
-0.135178
-0.130177
-0.116505
-0.108012
-0.0992628
-0.0908091
-0.0829972
-0.0759863
-0.0698311
-0.064535
-0.0600783
-0.0564313
-0.0535619
-0.0514408
-0.0500441
-0.0493543
-0.0498578
-0.0504424
-0.0516263
-0.0534182
-0.0558277
-0.0588659
-0.0625418
-0.0668573
-0.0718004
-0.0773349
-0.0833817
-0.0897677
-0.0960749
-0.101488
-0.110174
-0.114027
-0.117902
-0.11903
-0.118995
-0.118754
-0.118761
-0.119103
-0.119501
-0.119385
-0.114136
-0.112662
-0.101489
-0.0960753
-0.0897681
-0.0833821
-0.0773352
-0.0718006
-0.0668575
-0.0625419
-0.0588661
-0.0558278
-0.0534182
-0.0516264
-0.0504425
-0.0498579
-0.0492622
-0.0497431
-0.0507182
-0.0521896
-0.0541572
-0.0566195
-0.0595706
-0.0629956
-0.0668646
-0.0711231
-0.0756762
-0.0803574
-0.0848775
-0.0888674
-0.092134
-0.0976542
-0.0982053
-0.097868
-0.0970964
-0.0965017
-0.096435
-0.0969238
-0.0976897
-0.0982436
-0.0980302
-0.0921345
-0.0888679
-0.084878
-0.0803578
-0.0756766
-0.0711234
-0.0668648
-0.0629958
-0.0595708
-0.0566197
-0.0541573
-0.0521897
-0.0507183
-0.0497432
-0.0492623
-0.0477714
-0.0481553
-0.0489354
-0.0501093
-0.0516706
-0.0536103
-0.0559137
-0.0585575
-0.0615043
-0.0646957
-0.0680393
-0.0713864
-0.0744924
-0.0770259
-0.0788445
-0.0798101
-0.0792028
-0.0777824
-0.076348
-0.0754695
-0.0754696
-0.0763482
-0.0777829
-0.0792034
-0.0798107
-0.0788451
-0.0770265
-0.0744929
-0.0713868
-0.0680397
-0.064696
-0.0615046
-0.0585577
-0.0559139
-0.0536104
-0.0516707
-0.0501094
-0.0489355
-0.0481554
-0.0477715
-0.0455792
-0.0458757
-0.04648
-0.0473869
-0.0485866
-0.050066
-0.0518067
-0.0537824
-0.0559555
-0.0582711
-0.060648
-0.0629605
-0.0650125
-0.0665427
-0.067376
-0.0672988
-0.0663182
-0.0648937
-0.0635575
-0.0627587
-0.0627588
-0.0635578
-0.0648942
-0.0663188
-0.0672995
-0.0673766
-0.0665433
-0.065013
-0.062961
-0.0606483
-0.0582714
-0.0559557
-0.0537826
-0.0518069
-0.0500661
-0.0485867
-0.047387
-0.0464801
-0.0458758
-0.0455793
-0.0428619
-0.0430821
-0.0435322
-0.0442053
-0.0450904
-0.0461733
-0.0474348
-0.0488494
-0.0503828
-0.0519878
-0.0535968
-0.0551088
-0.0563711
-0.0571796
-0.0573575
-0.0567575
-0.0554695
-0.0538338
-0.052326
-0.0514211
-0.0514213
-0.0523264
-0.0538344
-0.0554701
-0.0567582
-0.0573582
-0.0571802
-0.0563716
-0.0551092
-0.0535971
-0.0519881
-0.050383
-0.0488496
-0.047435
-0.0461734
-0.0450905
-0.0442054
-0.0435323
-0.0430822
-0.042862
-0.0397754
-0.0399304
-0.0402478
-0.04072
-0.0413364
-0.0420832
-0.0429425
-0.0438918
-0.0449019
-0.0459344
-0.0469349
-0.0478231
-0.0484775
-0.0487343
-0.0484352
-0.0474678
-0.0459
-0.0440369
-0.042356
-0.0413555
-0.0413556
-0.0423564
-0.0440374
-0.0459006
-0.0474684
-0.0484358
-0.0487348
-0.0484779
-0.0478234
-0.0469352
-0.0459346
-0.0449021
-0.043892
-0.0429427
-0.0420833
-0.0413365
-0.0407201
-0.0402478
-0.0399305
-0.0397754
-0.036454
-0.0365543
-0.0367591
-0.0370615
-0.0374517
-0.0379175
-0.0384437
-0.0390113
-0.0395972
-0.040171
-0.0406901
-0.0410895
-0.0412691
-0.0410915
-0.0404153
-0.0391488
-0.0373582
-0.0353345
-0.0335471
-0.0324927
-0.0324928
-0.0335474
-0.0353349
-0.0373587
-0.0391493
-0.0404158
-0.0410919
-0.0412694
-0.0410898
-0.0406903
-0.0401712
-0.0395973
-0.0390114
-0.0384438
-0.0379176
-0.0374517
-0.0370615
-0.0367592
-0.0365543
-0.036454
-0.0330118
-0.0330665
-0.0331775
-0.0333383
-0.033541
-0.0337755
-0.0340293
-0.0342878
-0.0345331
-0.0347424
-0.034882
-0.0348981
-0.0347055
-0.0341848
-0.0332095
-0.0317046
-0.0297424
-0.0276049
-0.0257492
-0.0246628
-0.0246629
-0.0257494
-0.0276052
-0.0297427
-0.0317049
-0.0332098
-0.034185
-0.0347058
-0.0348983
-0.0348821
-0.0347425
-0.0345332
-0.0342878
-0.0340294
-0.0337755
-0.033541
-0.0333383
-0.0331775
-0.0330665
-0.0330118
-0.0295444
-0.0295616
-0.0295954
-0.0296405
-0.0296906
-0.0297379
-0.0297729
-0.0297847
-0.0297604
-0.0296826
-0.0295244
-0.0292399
-0.028754
-0.0279606
-0.0267474
-0.0250543
-0.0229603
-0.0207422
-0.0188443
-0.017741
-0.0177411
-0.0188445
-0.0207423
-0.0229605
-0.0250545
-0.0267476
-0.0279608
-0.0287541
-0.02924
-0.0295245
-0.0296827
-0.0297604
-0.0297847
-0.0297729
-0.0297379
-0.0296906
-0.0296405
-0.0295954
-0.0295616
-0.0295444
-0.0261309
-0.0261176
-0.0260894
-0.026042
-0.025971
-0.0258704
-0.0257334
-0.0255525
-0.0253183
-0.0250175
-0.0246273
-0.024107
-0.0233889
-0.0223779
-0.0209756
-0.0191368
-0.0169482
-0.0146822
-0.0127686
-0.0116635
-0.0116635
-0.0127686
-0.0146823
-0.0169482
-0.0191368
-0.0209757
-0.0223779
-0.0233889
-0.024107
-0.0246273
-0.0250175
-0.0253183
-0.0255525
-0.0257334
-0.0258703
-0.0259709
-0.026042
-0.0260893
-0.0261176
-0.0261309
-0.0228365
-0.022799
-0.0227223
-0.0226035
-0.0224394
-0.0222257
-0.0219579
-0.0216306
-0.0212371
-0.0207665
-0.0201985
-0.0194956
-0.0185959
-0.0174145
-0.0158671
-0.0139232
-0.0116773
-0.00939635
-0.00749258
-0.00640001
-0.00639999
-0.00749254
-0.00939629
-0.0116772
-0.0139231
-0.015867
-0.0174144
-0.0185958
-0.0194955
-0.0201984
-0.0207665
-0.0212371
-0.0216306
-0.0219578
-0.0222257
-0.0224393
-0.0226035
-0.0227223
-0.0227989
-0.0228365
-0.0197141
-0.0196579
-0.0195451
-0.0193738
-0.0191414
-0.0188453
-0.0184824
-0.018049
-0.0175397
-0.0169449
-0.0162455
-0.0154065
-0.0143709
-0.0130636
-0.0114139
-0.00940517
-0.00713822
-0.00487301
-0.00300167
-0.0019337
-0.00193367
-0.00300158
-0.00487288
-0.00713806
-0.009405
-0.0114137
-0.0130634
-0.0143708
-0.0154064
-0.0162454
-0.0169448
-0.0175396
-0.0180489
-0.0184823
-0.0188453
-0.0191414
-0.0193737
-0.0195451
-0.0196579
-0.019714
-0.0168058
-0.0167363
-0.0165985
-0.016391
-0.0161124
-0.0157607
-0.0153339
-0.0148293
-0.0142421
-0.0135631
-0.0127739
-0.0118413
-0.0107131
-0.00932305
-0.00761327
-0.00557894
-0.0033252
-0.0011032
0.000716362
0.00174971
0.00174974
0.000716468
-0.00110304
-0.00332501
-0.00557873
-0.00761307
-0.00932286
-0.0107129
-0.0118411
-0.0127738
-0.013563
-0.014242
-0.0148292
-0.0153339
-0.0157606
-0.0161123
-0.016391
-0.0165984
-0.0167363
-0.0168058
-0.0141447
-0.0140667
-0.0139135
-0.0136845
-0.0133786
-0.0129946
-0.0125311
-0.0119857
-0.0113539
-0.0106264
-0.00978512
-0.00879845
-0.00761865
-0.00618758
-0.00445816
-0.00243532
-0.000226484
0.00192754
0.00367838
0.00466847
0.00466851
0.00367849
0.00192771
-0.000226279
-0.0024351
-0.00445794
-0.00618738
-0.00761848
-0.0087983
-0.00978499
-0.0106263
-0.0113538
-0.0119856
-0.012531
-0.0129945
-0.0133785
-0.0136844
-0.0139134
-0.0140666
-0.0141447
-0.0117553
-0.0116729
-0.0115128
-0.0112747
-0.0109579
-0.0105616
-0.0100847
-0.00952505
-0.00887794
-0.00813387
-0.00727488
-0.00627075
-0.00507763
-0.00364437
-0.00193302
4.38901e-05
0.00217862
0.00424198
0.00590861
0.0068476
0.00684764
0.00590872
0.00424214
0.00217881
4.40965e-05
-0.00193282
-0.00364418
-0.00507746
-0.0062706
-0.00727475
-0.00813376
-0.00887784
-0.00952496
-0.0100846
-0.0105615
-0.0109578
-0.0112747
-0.0115128
-0.0116729
-0.0117552
-0.0096538
-0.00957101
-0.00941122
-0.00917462
-0.00886073
-0.00846913
-0.00799894
-0.00744793
-0.00681118
-0.00607883
-0.00523295
-0.0042445
-0.00307292
-0.00167296
-1.41455e-05
0.00188532
0.00391907
0.00587074
0.00743878
0.00831935
0.00831938
0.00743887
0.00587089
0.00391925
0.00188551
-1.39651e-05
-0.00167279
-0.00307277
-0.00424436
-0.00523283
-0.00607872
-0.00681109
-0.00744784
-0.00799886
-0.00846906
-0.00886066
-0.00917455
-0.00941116
-0.00957094
-0.00965374
-0.00784905
-0.00776898
-0.00761559
-0.00738935
-0.00709006
-0.00671759
-0.00627117
-0.00574853
-0.00514446
-0.00444872
-0.00364331
-0.00270013
-0.00158134
-0.000246539
0.00132873
0.00312227
0.0050307
0.00685166
0.00830813
0.00912374
0.00912377
0.00830821
0.00685178
0.00503084
0.00312243
0.00132888
-0.000246394
-0.0015812
-0.00270001
-0.0036432
-0.00444862
-0.00514437
-0.00574845
-0.0062711
-0.00671752
-0.00709
-0.00738929
-0.00761552
-0.00776892
-0.00784899
-0.0063421
-0.00626742
-0.00612544
-0.00591693
-0.00564197
-0.00530067
-0.00489245
-0.00441496
-0.00386274
-0.0032252
-0.0024842
-0.00161232
-0.000573879
0.000667592
0.00213193
0.00379458
0.00555663
0.00723085
0.00856518
0.00931063
0.00931066
0.00856524
0.00723095
0.00555675
0.00379471
0.00213206
0.000667715
-0.000573766
-0.00161221
-0.00248411
-0.00322511
-0.00386267
-0.00441489
-0.00489238
-0.00530061
-0.00564191
-0.00591687
-0.00612538
-0.00626736
-0.00634204
-0.0051267
-0.00505956
-0.00493308
-0.00474832
-0.00450563
-0.00420541
-0.00384728
-0.00342892
-0.00294467
-0.00238359
-0.00172737
-0.000949046
-1.45753e-05
0.00110955
0.00243989
0.00395114
0.00555029
0.007066
0.00827106
0.00894314
0.00894316
0.00827111
0.00706608
0.00555039
0.00395125
0.00244
0.00110965
-1.44793e-05
-0.000948959
-0.00172729
-0.00238352
-0.0029446
-0.00342886
-0.00384722
-0.00420535
-0.00450557
-0.00474827
-0.00493303
-0.00505951
-0.00512665
-0.00418958
-0.00413169
-0.00402394
-0.00386763
-0.00366343
-0.00341208
-0.00311344
-0.00276527
-0.00236178
-0.00189176
-0.00133665
-0.000669717
0.00014197
0.00112989
0.00230868
0.00365378
0.00507932
0.00643011
0.00750301
0.00810084
0.00810085
0.00750306
0.00643018
0.00507941
0.00365388
0.00230877
0.00112998
0.000142052
-0.000669642
-0.00133658
-0.00189169
-0.00236172
-0.00276521
-0.00311338
-0.00341203
-0.00366338
-0.00386758
-0.00402389
-0.00413164
-0.00418954
-0.003511
-0.00346363
-0.00337695
-0.00325247
-0.00309121
-0.00289428
-0.00266179
-0.00239163
-0.00207794
-0.00170922
-0.00126664
-0.000723435
-4.7303e-05
0.000792082
0.00180864
0.00297986
0.00422777
0.00541312
0.00635535
0.00688043
0.00688045
0.0063554
0.00541318
0.00422784
0.00297995
0.00180873
0.000792161
-4.72303e-05
-0.000723369
-0.00126658
-0.00170917
-0.00207789
-0.00239159
-0.00266174
-0.00289423
-0.00309117
-0.00325243
-0.0033769
-0.00346359
-0.00351095
-0.00306547
-0.00302947
-0.00296527
-0.00287461
-0.00275885
-0.00261941
-0.0024567
-0.00226871
-0.00204947
-0.00178718
-0.00146265
-0.0010489
-0.000513832
0.000172422
0.00102398
0.00202122
0.00309437
0.00411938
0.00493643
0.0053923
0.00539231
0.00493647
0.00411944
0.00309444
0.0020213
0.00102406
0.000172494
-0.000513767
-0.00104884
-0.00146259
-0.00178713
-0.00204942
-0.00226866
-0.00245666
-0.00261937
-0.00275881
-0.00287457
-0.00296523
-0.00302943
-0.00306543
-0.00282289
-0.00279863
-0.00275737
-0.00270102
-0.00263124
-0.00254975
-0.00245712
-0.0023514
-0.00222644
-0.00207007
-0.0018626
-0.00157676
-0.00118037
-0.000643646
4.81972e-05
0.000878763
0.00178629
0.00266081
0.00336125
0.00375295
0.00375297
0.00336128
0.00266086
0.00178635
0.000878834
4.82672e-05
-0.000643581
-0.00118031
-0.00157671
-0.00186256
-0.00207002
-0.0022264
-0.00235136
-0.00245708
-0.00254971
-0.0026312
-0.00270098
-0.00275734
-0.00279859
-0.00282286
-0.00274994
-0.00273728
-0.0027184
-0.00269532
-0.00266993
-0.00264413
-0.00261854
-0.0025911
-0.00255535
-0.00249866
-0.00240083
-0.00223421
-0.00196657
-0.00156821
-0.00102363
-0.000346181
0.00040978
0.0011471
0.00174156
0.00207507
0.00207508
0.00174159
0.00114715
0.000409841
-0.000346116
-0.00102357
-0.00156815
-0.00196652
-0.00223416
-0.00240079
-0.00249862
-0.00255532
-0.00259107
-0.00261851
-0.0026441
-0.0026699
-0.00269529
-0.00271837
-0.00273725
-0.00274991
-0.00281166
-0.00280998
-0.00281197
-0.00281966
-0.00283512
-0.00286022
-0.00289548
-0.00293856
-0.00298254
-0.00301425
-0.00301299
-0.00295091
-0.00279596
-0.00251881
-0.00210369
-0.0015614
-0.000939741
-0.000324339
0.000175791
0.000457462
0.000457473
0.000175821
-0.000324293
-0.000939686
-0.00156134
-0.00210363
-0.00251876
-0.00279591
-0.00295086
-0.00301295
-0.00301422
-0.00298251
-0.00293853
-0.00289545
-0.00286019
-0.00283509
-0.00281964
-0.00281194
-0.00280995
-0.00281164
-0.00297323
-0.00298145
-0.00300195
-0.0030367
-0.00308777
-0.00315688
-0.00324425
-0.00334707
-0.00345787
-0.00356288
-0.00364108
-0.00366468
-0.00360232
-0.00342559
-0.00311905
-0.0026917
-0.00218568
-0.00167625
-0.00125864
-0.00102248
-0.00102247
-0.00125862
-0.00167621
-0.00218564
-0.00269165
-0.00311899
-0.00342554
-0.00360228
-0.00366464
-0.00364104
-0.00356285
-0.00345784
-0.00334704
-0.00324423
-0.00315686
-0.00308774
-0.00303668
-0.00300192
-0.00298142
-0.00297321
-0.00320161
-0.00321829
-0.0032543
-0.00331146
-0.00339171
-0.00349647
-0.00362546
-0.00377528
-0.00393784
-0.0040989
-0.00423731
-0.00432583
-0.00433431
-0.00423597
-0.00401641
-0.00368355
-0.00327467
-0.00285569
-0.00250925
-0.00231256
-0.00231256
-0.00250923
-0.00285566
-0.00327463
-0.00368351
-0.00401637
-0.00423593
-0.00433427
-0.00432579
-0.00423728
-0.00409887
-0.00393782
-0.00377526
-0.00362544
-0.00349645
-0.00339169
-0.00331144
-0.00325428
-0.00321827
-0.00320159
-0.00346699
-0.00349045
-0.00353858
-0.00361297
-0.00371532
-0.0038466
-0.00400591
-0.00418921
-0.00438783
-0.00458718
-0.00476639
-0.00489923
-0.00495741
-0.00491639
-0.00476342
-0.00450593
-0.00417701
-0.00383413
-0.00354836
-0.00338558
-0.00338557
-0.00354834
-0.0038341
-0.00417698
-0.00450589
-0.00476338
-0.00491635
-0.00495738
-0.00489921
-0.00476637
-0.00458716
-0.0043878
-0.0041892
-0.00400589
-0.00384658
-0.0037153
-0.00361295
-0.00353856
-0.00349044
-0.00346697
-0.00374383
-0.00377229
-0.00382901
-0.00391532
-0.00403259
-0.00418122
-0.00435969
-0.0045633
-0.0047829
-0.00500387
-0.00520595
-0.00536444
-0.00545344
-0.00545116
-0.00534693
-0.00514805
-0.00488395
-0.00460437
-0.00436986
-0.00423593
-0.00423592
-0.00436984
-0.00460435
-0.00488392
-0.00514802
-0.00534689
-0.00545113
-0.00545341
-0.00536442
-0.00520593
-0.00500385
-0.00478288
-0.00456329
-0.00435967
-0.00418121
-0.00403257
-0.00391531
-0.003829
-0.00377228
-0.00374382
-0.00401152
-0.0040432
-0.00410511
-0.00419827
-0.00432366
-0.0044811
-0.00466845
-0.00488045
-0.00510766
-0.00533571
-0.00554537
-0.00571389
-0.00581815
-0.00583942
-0.00576925
-0.00561507
-0.00540295
-0.00517561
-0.00498405
-0.00487449
-0.00487448
-0.00498404
-0.00517559
-0.00540293
-0.00561504
-0.00576923
-0.00583939
-0.00581813
-0.00571388
-0.00554535
-0.0053357
-0.00510765
-0.00488043
-0.00466844
-0.00448109
-0.00432364
-0.00419826
-0.00410509
-0.00404319
-0.0040115
-0.00425448
-0.00428775
-0.00435176
-0.00444723
-0.00457473
-0.00473354
-0.00492094
-0.00513128
-0.00535508
-0.00557851
-0.00578371
-0.0059502
-0.00605786
-0.00609107
-0.00604364
-0.00592306
-0.00575237
-0.00556787
-0.00541205
-0.0053229
-0.0053229
-0.00541204
-0.00556785
-0.00575235
-0.00592304
-0.00604362
-0.00609106
-0.00605785
-0.00595019
-0.00578369
-0.0055785
-0.00535507
-0.00513127
-0.00492093
-0.00473353
-0.00457472
-0.00444722
-0.00435175
-0.00428774
-0.00425447
-0.00446203
-0.00449545
-0.00455893
-0.00465291
-0.00477754
-0.00493163
-0.00511204
-0.00531289
-0.00552489
-0.00573503
-0.00592709
-0.00608305
-0.00618581
-0.00622275
-0.00618974
-0.00609425
-0.00595646
-0.00580694
-0.00568067
-0.00560848
-0.00560848
-0.00568066
-0.00580693
-0.00595645
-0.00609424
-0.00618973
-0.00622274
-0.0061858
-0.00608304
-0.00592708
-0.00573503
-0.00552488
-0.00531288
-0.00511203
-0.00493163
-0.00477753
-0.0046529
-0.00455893
-0.00449544
-0.00446202
-0.00462782
-0.00466023
-0.00472109
-0.00481057
-0.0049285
-0.0050733
-0.00524152
-0.00542727
-0.00562168
-0.0058128
-0.00598616
-0.00612626
-0.00621891
-0.00625425
-0.00622987
-0.0061531
-0.00604143
-0.00592035
-0.00581834
-0.00576012
-0.00576012
-0.00581833
-0.00592035
-0.00604143
-0.00615309
-0.00622987
-0.00625424
-0.0062189
-0.00612625
-0.00598615
-0.00581279
-0.00562168
-0.00542727
-0.00524151
-0.00507329
-0.0049285
-0.00481057
-0.00472108
-0.00466022
-0.00462781
-0.00474915
-0.00477966
-0.00483635
-0.0049192
-0.00502772
-0.00516008
-0.0053127
-0.00547984
-0.00565323
-0.0058221
-0.00597384
-0.00609537
-0.00617518
-0.00620582
-0.00618627
-0.00612352
-0.00603261
-0.00593455
-0.00585231
-0.00580552
-0.00580552
-0.00585231
-0.00593455
-0.00603261
-0.00612352
-0.00618627
-0.00620582
-0.00617518
-0.00609537
-0.00597384
-0.0058221
-0.00565323
-0.00547984
-0.0053127
-0.00516008
-0.00502772
-0.00491919
-0.00483635
-0.00477965
-0.00474914
-0.0048262
-0.00485419
-0.0049057
-0.00498053
-0.00507799
-0.00519608
-0.00533125
-0.00547804
-0.00562891
-0.00577437
-0.00590363
-0.00600586
-0.00607193
-0.00609639
-0.00607928
-0.00602714
-0.00595272
-0.00587323
-0.00580698
-0.00576944
-0.00576944
-0.00580698
-0.00587323
-0.00595272
-0.00602714
-0.00607929
-0.00609639
-0.00607193
-0.00600586
-0.00590363
-0.00577437
-0.00562891
-0.00547804
-0.00533125
-0.00519608
-0.00507799
-0.00498053
-0.0049057
-0.00485419
-0.0048262
-0.00486125
-0.00488636
-0.00493212
-0.00499823
-0.00508387
-0.00518696
-0.00530408
-0.00543021
-0.00555859
-0.00568102
-0.00578841
-0.00587198
-0.00592462
-0.00594254
-0.00592648
-0.00588243
-0.00582112
-0.00575651
-0.00570311
-0.00567299
-0.00567299
-0.00570311
-0.00575651
-0.00582113
-0.00588243
-0.00592649
-0.00594254
-0.00592463
-0.00587198
-0.00578842
-0.00568102
-0.00555859
-0.00543021
-0.00530409
-0.00518696
-0.00508387
-0.00499823
-0.00493212
-0.00488635
-0.00486125
-0.00485799
-0.00488005
-0.0049199
-0.00497714
-0.00505089
-0.00513911
-0.00523858
-0.00534477
-0.00545177
-0.00555258
-0.00563971
-0.00570612
-0.00574641
-0.00575806
-0.00574231
-0.0057045
-0.0056536
-0.00560084
-0.00555767
-0.00553345
-0.00553345
-0.00555767
-0.00560084
-0.0056536
-0.0057045
-0.00574231
-0.00575807
-0.00574642
-0.00570612
-0.00563972
-0.00555259
-0.00545178
-0.00534478
-0.00523859
-0.00513911
-0.00505089
-0.00497714
-0.00491989
-0.00488005
-0.00485799
-0.00482089
-0.00483992
-0.00487397
-0.00492262
-0.00498496
-0.00505906
-0.00514197
-0.00522968
-0.00531709
-0.00539836
-0.00546736
-0.00551857
-0.00554798
-0.00555402
-0.00553819
-0.00550523
-0.00546256
-0.00541919
-0.0053841
-0.00536453
-0.00536453
-0.0053841
-0.00541919
-0.00546257
-0.00550524
-0.0055382
-0.00555402
-0.00554799
-0.00551858
-0.00546737
-0.00539836
-0.0053171
-0.00522968
-0.00514197
-0.00505906
-0.00498496
-0.00492262
-0.00487397
-0.00483991
-0.00482089
-0.00475478
-0.00477091
-0.0047995
-0.00484013
-0.00489191
-0.00495305
-0.00502093
-0.00509203
-0.00516206
-0.00522616
-0.00527942
-0.00531757
-0.00533769
-0.00533891
-0.00532288
-0.0052937
-0.00525751
-0.00522151
-0.00519275
-0.00517682
-0.00517682
-0.00519275
-0.00522152
-0.00525752
-0.00529371
-0.00532289
-0.00533892
-0.00533769
-0.00531758
-0.00527943
-0.00522616
-0.00516206
-0.00509204
-0.00502093
-0.00495306
-0.00489191
-0.00484013
-0.0047995
-0.00477091
-0.00475478
-0.00466446
-0.00467791
-0.00470152
-0.00473489
-0.00477719
-0.00482679
-0.00488139
-0.00493797
-0.00499295
-0.00504235
-0.00508229
-0.00510948
-0.00512187
-0.00511911
-0.00510283
-0.00507661
-0.00504548
-0.00501523
-0.00499137
-0.00497825
-0.00497825
-0.00499137
-0.00501523
-0.00504549
-0.00507661
-0.00510284
-0.00511911
-0.00512188
-0.00510949
-0.00508229
-0.00504235
-0.00499295
-0.00493798
-0.00488139
-0.00482679
-0.00477719
-0.00473489
-0.00470152
-0.00467791
-0.00466446
-0.00455447
-0.0045655
-0.0045847
-0.00461168
-0.00464567
-0.00468525
-0.00472841
-0.0047726
-0.00481485
-0.00485195
-0.00488084
-0.00489904
-0.00490515
-0.00489916
-0.00488266
-0.00485873
-0.00483154
-0.00480571
-0.00478561
-0.00477464
-0.00477464
-0.00478561
-0.00480571
-0.00483154
-0.00485874
-0.00488267
-0.00489916
-0.00490515
-0.00489905
-0.00488084
-0.00485195
-0.00481485
-0.0047726
-0.00472841
-0.00468525
-0.00464567
-0.00461168
-0.0045847
-0.0045655
-0.00455446
-0.00442891
-0.00443784
-0.00445321
-0.0044747
-0.0045016
-0.00453268
-0.0045662
-0.00460005
-0.00463177
-0.00465878
-0.00467869
-0.00468967
-0.00469077
-0.00468222
-0.00466555
-0.00464338
-0.00461919
-0.00459673
-0.00457949
-0.00457014
-0.00457014
-0.00457949
-0.00459673
-0.00461919
-0.00464338
-0.00466555
-0.00468223
-0.00469077
-0.00468967
-0.00467869
-0.00465878
-0.00463177
-0.00460005
-0.0045662
-0.00453267
-0.0045016
-0.0044747
-0.00445321
-0.00443784
-0.00442891
-0.00429142
-0.00429855
-0.00431069
-0.00432756
-0.00434855
-0.00437257
-0.00439817
-0.00442356
-0.00444675
-0.00446565
-0.00447843
-0.0044837
-0.00448088
-0.00447036
-0.00445353
-0.0044327
-0.00441077
-0.00439083
-0.00437571
-0.00436757
-0.00436757
-0.00437571
-0.00439083
-0.00441077
-0.0044327
-0.00445353
-0.00447036
-0.00448088
-0.0044837
-0.00447842
-0.00446565
-0.00444674
-0.00442356
-0.00439816
-0.00437257
-0.00434855
-0.00432756
-0.00431069
-0.00429855
-0.00429142
-0.00414509
-0.00415071
-0.00416018
-0.00417327
-0.00418944
-0.00420775
-0.00422696
-0.00424561
-0.00426203
-0.00427457
-0.00428178
-0.00428264
-0.00427682
-0.00426478
-0.00424783
-0.00422798
-0.00420771
-0.00418961
-0.00417605
-0.00416879
-0.00416879
-0.00417605
-0.00418961
-0.00420771
-0.00422798
-0.00424783
-0.00426478
-0.00427681
-0.00428264
-0.00428177
-0.00427457
-0.00426203
-0.00424561
-0.00422696
-0.00420774
-0.00418944
-0.00417327
-0.00416018
-0.00415071
-0.00414509
-0.00399249
-0.00399688
-0.00400421
-0.00401428
-0.00402661
-0.00404041
-0.00405463
-0.00406802
-0.00407921
-0.00408687
-0.00408984
-0.00408737
-0.00407929
-0.00406611
-0.00404905
-0.00402989
-0.00401079
-0.003994
-0.00398152
-0.00397488
-0.00397488
-0.00398152
-0.00399399
-0.00401079
-0.00402988
-0.00404904
-0.0040661
-0.00407928
-0.00408736
-0.00408983
-0.00408686
-0.00407921
-0.00406801
-0.00405462
-0.00404041
-0.00402661
-0.00401428
-0.00400421
-0.00399688
-0.00399249
-0.00383573
-0.00383914
-0.00384479
-0.00385251
-0.0038619
-0.00387224
-0.00388265
-0.00389206
-0.00389934
-0.00390336
-0.00390319
-0.00389827
-0.00388853
-0.00387451
-0.00385733
-0.00383862
-0.0038203
-0.00380438
-0.00379264
-0.00378641
-0.00378641
-0.00379264
-0.00380438
-0.0038203
-0.00383861
-0.00385732
-0.0038745
-0.00388852
-0.00389826
-0.00390318
-0.00390335
-0.00389933
-0.00389206
-0.00388264
-0.00387223
-0.00386189
-0.00385251
-0.00384478
-0.00383913
-0.00383572
-0.00367646
-0.0036791
-0.00368349
-0.00368947
-0.00369666
-0.00370445
-0.00371207
-0.0037186
-0.00372305
-0.00372446
-0.00372206
-0.0037154
-0.00370448
-0.00368983
-0.00367252
-0.00365405
-0.00363621
-0.00362081
-0.00360951