/*--------------------------------*- C++ -*----------------------------------*\
  =========                 |
  \\      /  F ield         | OpenFOAM: The Open Source CFD Toolbox
   \\    /   O peration     | Website:  https://openfoam.org
    \\  /    A nd           | Version:  6
     \\/     M anipulation  |
\*---------------------------------------------------------------------------*/
FoamFile
{
    version     2.0;
    format      ascii;
    class       volVectorField;
    location    "0";
    object      U;
}
// * * * * * * * * * * * * * * * * * * * * * * * * * * * * * * * * * * * * * //

dimensions      [0 1 -1 0 0 0 0];

internalField   nonuniform List<vector> 
11644
(
(1.0001 -0.000305488 0)
(1.00004 -0.000898876 0)
(1.00004 -0.00147017 0)
(1.00004 -0.00204246 0)
(1.00004 -0.00262138 0)
(1.00005 -0.00320228 0)
(1.00005 -0.00377795 0)
(1.00004 -0.00433808 0)
(1.00004 -0.00486777 0)
(1.00004 -0.00534637 0)
(1.00003 -0.00574679 0)
(1.00002 -0.00603547 0)
(1.00001 -0.00617361 0)
(0.999995 -0.00612008 0)
(0.999973 -0.00583663 0)
(0.999948 -0.00529498 0)
(0.999922 -0.00448468 0)
(0.999898 -0.0034204 0)
(0.999878 -0.00214576 0)
(0.999868 -0.000731595 4.00387e-30)
(0.999868 0.000731503 -4.00387e-30)
(0.999878 0.00214568 0)
(0.999898 0.00342032 0)
(0.999922 0.00448461 0)
(0.999948 0.00529492 0)
(0.999973 0.00583658 0)
(0.999995 0.00612005 0)
(1.00001 0.00617358 0)
(1.00002 0.00603545 0)
(1.00003 0.00574677 0)
(1.00004 0.00534636 0)
(1.00004 0.00486777 0)
(1.00004 0.00433808 0)
(1.00005 0.00377795 0)
(1.00005 0.00320228 0)
(1.00004 0.00262138 0)
(1.00004 0.00204247 0)
(1.00004 0.00147018 0)
(1.00004 0.000898877 0)
(1.0001 0.000305489 0)
(1.00171 -0.000889352 0)
(1.0016 -0.00264731 0)
(1.0016 -0.0043779 0)
(1.00162 -0.0061117 0)
(1.00163 -0.00785828 0)
(1.00163 -0.00961023 0)
(1.00161 -0.0113499 0)
(1.00155 -0.0130484 0)
(1.00145 -0.0146623 0)
(1.00128 -0.0161303 0)
(1.00102 -0.017371 0)
(1.00067 -0.0182819 0)
(1.0002 -0.0187432 0)
(0.999602 -0.0186264 0)
(0.998903 -0.0178097 0)
(0.998137 -0.0161987 0)
(0.997365 -0.0137534 0)
(0.996669 -0.0105116 0)
(0.996138 -0.00660439 0)
(0.99585 -0.00225353 -1.64867e-29)
(0.99585 0.00225326 1.64867e-29)
(0.996138 0.00660412 0)
(0.996669 0.0105114 0)
(0.997365 0.0137532 0)
(0.998137 0.0161985 0)
(0.998903 0.0178096 0)
(0.999602 0.0186263 0)
(1.0002 0.0187431 0)
(1.00067 0.0182818 0)
(1.00102 0.017371 0)
(1.00128 0.0161303 0)
(1.00145 0.0146623 0)
(1.00155 0.0130484 0)
(1.00161 0.0113499 0)
(1.00163 0.00961024 0)
(1.00163 0.00785829 0)
(1.00162 0.00611171 0)
(1.0016 0.0043779 0)
(1.0016 0.00264731 0)
(1.00171 0.000889354 0)
(1.00485 -0.00145752 0)
(1.00471 -0.00436106 0)
(1.00471 -0.00725248 0)
(1.00474 -0.0101587 0)
(1.00478 -0.0130916 0)
(1.00478 -0.0160445 0)
(1.00472 -0.0189946 0)
(1.00457 -0.0218994 0)
(1.00428 -0.0246917 0)
(1.0038 -0.0272731 0)
(1.00307 -0.0295085 0)
(1.00204 -0.0312228 0)
(1.00066 -0.0322025 0)
(0.998907 -0.032208 0)
(0.996831 -0.0309988 0)
(0.99453 -0.0283761 0)
(0.99219 -0.0242314 0)
(0.990061 -0.0186078 0)
(0.988426 -0.0117319 0)
(0.987536 -0.00401054 -3.41226e-29)
(0.987536 0.00401006 3.41226e-29)
(0.988426 0.0117314 0)
(0.990061 0.0186074 0)
(0.99219 0.024231 0)
(0.99453 0.0283758 0)
(0.996831 0.0309985 0)
(0.998907 0.0322078 0)
(1.00066 0.0322024 0)
(1.00204 0.0312227 0)
(1.00307 0.0295085 0)
(1.0038 0.0272731 0)
(1.00428 0.0246917 0)
(1.00457 0.0218995 0)
(1.00472 0.0189947 0)
(1.00478 0.0160446 0)
(1.00478 0.0130916 0)
(1.00474 0.0101587 0)
(1.00471 0.00725249 0)
(1.00471 0.00436107 0)
(1.00485 0.00145753 0)
(1.00956 -0.00201478 0)
(1.00941 -0.00604421 0)
(1.00943 -0.0100858 0)
(1.00951 -0.0141677 0)
(1.00959 -0.0183081 0)
(1.00963 -0.0225072 0)
(1.00956 -0.0267442 0)
(1.00931 -0.030972 0)
(1.0088 -0.0351085 0)
(1.00792 -0.0390262 0)
(1.00654 -0.042539 0)
(1.00453 -0.0453911 0)
(1.00179 -0.0472531 0)
(0.998248 -0.0477359 0)
(0.993969 -0.0464264 0)
(0.989163 -0.042947 0)
(0.984189 -0.0370555 0)
(0.979605 -0.0287156 0)
(0.976039 -0.0182247 0)
(0.974079 -0.00625163 0)
(0.974079 0.00625092 0)
(0.976039 0.0182241 0)
(0.979605 0.028715 0)
(0.984189 0.0370549 0)
(0.989163 0.0429466 0)
(0.993969 0.0464261 0)
(0.998248 0.0477357 0)
(1.00179 0.047253 0)
(1.00453 0.045391 0)
(1.00654 0.042539 0)
(1.00792 0.0390262 0)
(1.0088 0.0351085 0)
(1.00931 0.030972 0)
(1.00956 0.0267443 0)
(1.00963 0.0225072 0)
(1.00959 0.0183081 0)
(1.00951 0.0141677 0)
(1.00943 0.0100858 0)
(1.00941 0.00604423 0)
(1.00956 0.00201478 0)
(1.01579 -0.00255425 0)
(1.01566 -0.00767518 0)
(1.01574 -0.0128406 0)
(1.01591 -0.0180883 0)
(1.01611 -0.0234501 0)
(1.01625 -0.0289417 0)
(1.01624 -0.034556 0)
(1.01597 -0.0402553 0)
(1.01529 -0.0459596 0)
(1.01401 -0.0515307 0)
(1.01189 -0.0567504 0)
(1.0087 -0.0612935 0)
(1.00418 -0.0647051 0)
(0.998209 -0.0663949 0)
(0.99077 -0.0656525 0)
(0.98212 -0.0617618 0)
(0.972982 -0.054078 0)
(0.964224 -0.0424375 0)
(0.957273 -0.0271948 0)
(0.953407 -0.00937694 -7.80433e-29)
(0.953407 0.00937594 7.80433e-29)
(0.957273 0.0271939 0)
(0.964224 0.0424366 0)
(0.972981 0.0540773 0)
(0.982119 0.0617613 0)
(0.99077 0.0656522 0)
(0.998209 0.0663947 0)
(1.00418 0.0647049 0)
(1.0087 0.0612935 0)
(1.01189 0.0567504 0)
(1.01401 0.0515307 0)
(1.01529 0.0459596 0)
(1.01597 0.0402553 0)
(1.01624 0.0345561 0)
(1.01625 0.0289418 0)
(1.01611 0.0234502 0)
(1.01591 0.0180883 0)
(1.01574 0.0128407 0)
(1.01566 0.0076752 0)
(1.01579 0.00255426 0)
(1.02345 -0.00306165 0)
(1.02339 -0.00921172 0)
(1.02357 -0.0154474 0)
(1.02392 -0.0218243 0)
(1.02433 -0.028397 0)
(1.02471 -0.0352079 0)
(1.02493 -0.0422789 0)
(1.02482 -0.0496026 0)
(1.02416 -0.0571282 0)
(1.02266 -0.0647412 0)
(1.01997 -0.0722283 0)
(1.01565 -0.0792187 0)
(1.00922 -0.0851066 0)
(1.0002 -0.0890101 0)
(0.988426 -0.0897989 0)
(0.974288 -0.0861272 0)
(0.958548 -0.0773395 0)
(0.94323 -0.0621256 0)
(0.930732 -0.0404562 0)
(0.923574 -0.0140712 -1.73698e-28)
(0.923574 0.0140698 1.73698e-28)
(0.930731 0.0404549 0)
(0.94323 0.0621245 0)
(0.958547 0.0773386 0)
(0.974287 0.0861266 0)
(0.988425 0.0897985 0)
(1.0002 0.0890098 0)
(1.00922 0.0851065 0)
(1.01565 0.0792186 0)
(1.01997 0.0722284 0)
(1.02266 0.0647413 0)
(1.02416 0.0571283 0)
(1.02482 0.0496027 0)
(1.02493 0.042279 0)
(1.02471 0.0352079 0)
(1.02433 0.0283971 0)
(1.02392 0.0218243 0)
(1.02357 0.0154474 0)
(1.02339 0.00921175 0)
(1.02345 0.00306166 0)
(1.03244 -0.0035168 0)
(1.03248 -0.0105934 0)
(1.03285 -0.0178042 0)
(1.03347 -0.0252298 0)
(1.03426 -0.0329559 0)
(1.03507 -0.0410634 0)
(1.03575 -0.0496212 0)
(1.0361 -0.0586774 0)
(1.03582 -0.0682473 0)
(1.03451 -0.0782927 0)
(1.03163 -0.0886855 0)
(1.02646 -0.0991399 0)
(1.01807 -0.109026 0)
(1.00541 -0.117286 0)
(0.988541 -0.122376 0)
(0.966665 -0.122479 0)
(0.951633 -0.106378 0)
(0.927149 -0.0910446 0)
(0.905609 -0.064748 0)
(0.891112 -0.0294729 -2.33952e-23)
(0.887824 0.0105027 0)
(0.896799 0.0488109 2.15425e-22)
(0.915233 0.079812 0)
(0.938451 0.101018 0)
(0.966664 0.122479 0)
(0.98854 0.122376 0)
(1.00541 0.117286 0)
(1.01807 0.109026 0)
(1.02646 0.09914 0)
(1.03163 0.0886856 0)
(1.03451 0.0782929 0)
(1.03582 0.0682475 0)
(1.0361 0.0586776 0)
(1.03575 0.0496213 0)
(1.03507 0.0410635 0)
(1.03426 0.032956 0)
(1.03347 0.0252299 0)
(1.03285 0.0178043 0)
(1.03248 0.0105934 0)
(1.03244 0.00351681 0)
(1.04258 -0.00389491 0)
(1.04277 -0.011745 0)
(1.04342 -0.0197817 0)
(1.04446 -0.028114 0)
(1.04578 -0.0368648 0)
(1.04728 -0.0461634 0)
(1.04876 -0.0561416 0)
(1.05 -0.0669292 0)
(1.05065 -0.0786508 0)
(1.05023 -0.0914205 0)
(1.04808 -0.105317 0)
(1.04326 -0.120275 0)
(1.03457 -0.135848 0)
(1.01907 -0.140525 0)
(1.0001 -0.151605 0)
(0.973127 -0.158688 0)
(0.937141 -0.155762 0)
(0.895661 -0.139039 0)
(0.854536 -0.103742 0)
(0.825261 -0.0490123 2.71317e-23)
(0.818698 0.0167018 0)
(0.837656 0.078535 -2.71325e-23)
(0.8744 0.124014 0)
(0.91705 0.149252 0)
(0.95549 0.159376 0)
(0.987084 0.155978 0)
(1.00995 0.146426 0)
(1.03457 0.135848 0)
(1.04326 0.120275 0)
(1.04808 0.105318 0)
(1.05023 0.0914208 0)
(1.05065 0.0786511 0)
(1.05 0.0669295 0)
(1.04876 0.0561418 0)
(1.04728 0.0461636 0)
(1.04578 0.0368649 0)
(1.04446 0.0281142 0)
(1.04342 0.0197818 0)
(1.04277 0.011745 0)
(1.04258 0.00389493 0)
(1.05364 -0.00416875 0)
(1.05404 -0.0125827 0)
(1.05505 -0.0212329 0)
(1.05663 -0.0302551 0)
(1.0587 -0.0398092 0)
(1.06115 -0.0500756 0)
(1.06382 -0.0612563 0)
(1.06647 -0.0735782 0)
(1.06878 -0.0873012 0)
(1.07026 -0.10274 0)
(1.07022 -0.120284 0)
(1.06761 -0.140315 0)
(1.0608 -0.162889 0)
(1.04215 -0.174628 0)
(1.02075 -0.196903 0)
(0.985322 -0.218567 0)
(0.939101 -0.220267 0)
(0.874097 -0.214306 0)
(0.798921 -0.176451 4.68817e-23)
(0.735436 -0.096335 0)
(0.714221 0.0145974 -2.77585e-23)
(0.748074 0.120554 0)
(0.817281 0.190035 -3.5304e-22)
(0.891461 0.218397 0)
(0.952569 0.218935 0)
(1.00513 0.208163 0)
(1.03299 0.185561 0)
(1.0608 0.16289 0)
(1.0676 0.140316 0)
(1.07021 0.120284 0)
(1.07026 0.10274 0)
(1.06878 0.0873016 0)
(1.06647 0.0735785 0)
(1.06382 0.0612566 0)
(1.06115 0.0500759 0)
(1.0587 0.0398093 0)
(1.05663 0.0302552 0)
(1.05505 0.021233 0)
(1.05404 0.0125828 0)
(1.05364 0.00416877 0)
(1.06529 -0.00431239 0)
(1.06595 -0.0130263 0)
(1.06739 -0.0220142 0)
(1.06964 -0.031431 0)
(1.07264 -0.0414651 0)
(1.0763 -0.0523382 0)
(1.08052 -0.0643122 0)
(1.08513 -0.0777018 0)
(1.08987 -0.0928934 0)
(1.09437 -0.110384 0)
(1.09805 -0.130858 0)
(1.10009 -0.155242 0)
(1.09906 -0.184665 0)
(1.08113 -0.206793 0)
(1.06447 -0.244052 0)
(1.02706 -0.276106 0)
(0.968479 -0.310461 0)
(0.871108 -0.339447 0)
(0.725968 -0.320641 2.11205e-22)
(0.568726 -0.202319 0)
(0.501581 0.0147738 4.72307e-22)
(0.585944 0.223615 5.37756e-22)
(0.746253 0.327446 -1.9701e-22)
(0.885979 0.33744 0)
(0.985713 0.308918 0)
(1.05003 0.266129 0)
(1.07464 0.224059 0)
(1.09906 0.184666 0)
(1.10009 0.155243 0)
(1.09805 0.130859 0)
(1.09437 0.110385 0)
(1.08987 0.0928939 0)
(1.08513 0.0777022 0)
(1.08052 0.0643126 0)
(1.0763 0.0523385 0)
(1.07264 0.0414653 0)
(1.06964 0.0314312 0)
(1.06739 0.0220143 0)
(1.06595 0.0130264 0)
(1.06529 0.00431241 0)
(1.07716 -0.00430606 0)
(1.0781 -0.0130136 0)
(1.08004 -0.0220125 0)
(1.08302 -0.0314626 0)
(1.08706 -0.0415626 0)
(1.09211 -0.0525519 0)
(1.09814 -0.0647208 0)
(1.1051 -0.0784296 0)
(1.11286 -0.0941333 0)
(1.12127 -0.11242 0)
(1.13007 -0.134101 0)
(1.13898 -0.160427 0)
(1.14756 -0.193605 0)
(1.13649 -0.226325 0)
(1.13545 -0.27594 0)
(1.10919 -0.333235 0)
(1.05765 -0.407931 5.37155e-24)
(0.935159 -0.496695 -6.41758e-23)
(0.666143 -0.517227 -3.85744e-22)
(0.257713 -0.326412 -1.39534e-20)
(0.0688865 0.010094 0)
(0.28136 0.345952 -3.0567e-21)
(0.688908 0.520547 4.06702e-22)
(0.957303 0.486698 1.84196e-23)
(1.0784 0.394293 -1.36895e-24)
(1.13029 0.308253 0)
(1.13735 0.248451 0)
(1.14756 0.193607 0)
(1.13898 0.160429 0)
(1.13007 0.134102 0)
(1.12127 0.112421 0)
(1.11286 0.0941339 0)
(1.1051 0.07843 0)
(1.09814 0.0647212 0)
(1.09211 0.0525522 0)
(1.08706 0.0415628 0)
(1.08302 0.0314628 0)
(1.08004 0.0220126 0)
(1.0781 0.0130137 0)
(1.07716 0.00430609 0)
(1.08882 -0.00414166 0)
(1.09004 -0.0125186 0)
(1.09248 -0.021178 0)
(1.09622 -0.0302671 0)
(1.1013 -0.039971 0)
(1.10777 -0.0505139 0)
(1.11566 -0.0621674 0)
(1.12505 -0.0752678 0)
(1.13601 -0.0902373 0)
(1.14862 -0.107598 0)
(1.16306 -0.12801 0)
(1.17964 -0.152509 0)
(1.19891 -0.183344 0)
(1.1997 -0.22085 0)
(1.21854 -0.267415 0)
(1.21343 -0.327665 0)
(1.17386 -0.390228 -2.27976e-23)
(0.989327 -0.406379 2.06796e-22)
(0.302005 -0.1594 -7.34864e-21)
(0.373628 0.19237 1.71131e-21)
(1.01821 0.402207 3.27362e-23)
(1.19271 0.37271 0)
(1.22464 0.296397 0)
(1.20977 0.241595 0)
(1.19891 0.183346 0)
(1.17964 0.15251 0)
(1.16306 0.128011 0)
(1.14862 0.107599 0)
(1.13601 0.090238 0)
(1.12505 0.0752684 0)
(1.11567 0.0621678 0)
(1.10777 0.0505142 0)
(1.1013 0.0399712 0)
(1.09622 0.0302673 0)
(1.09248 0.0211781 0)
(1.09004 0.0125187 0)
(1.08882 0.00414169 0)
(1.09983 -0.00382639 0)
(1.10132 -0.0115625 0)
(1.10421 -0.0195456 0)
(1.10862 -0.0278935 0)
(1.11465 -0.036754 0)
(1.12238 -0.0463035 0)
(1.13192 -0.0567475 0)
(1.14344 -0.0683295 0)
(1.15714 -0.0813365 0)
(1.17329 -0.0960852 0)
(1.19231 -0.112892 0)
(1.21467 -0.132193 0)
(1.24053 -0.155016 0)
(1.2514 -0.187029 0)
(1.2729 -0.211185 0)
(1.25984 -0.234932 0)
(1.15429 -0.212242 0)
(0.788917 -0.0924682 3.56196e-22)
(0.0118822 0.00222068 4.13184e-20)
(0.0375625 -0.00598943 -1.68697e-20)
(0.824477 0.103266 0)
(1.18568 0.213578 0)
(1.27261 0.219877 0)
(1.26411 0.198732 0)
(1.24053 0.155017 0)
(1.21467 0.132194 0)
(1.19231 0.112893 0)
(1.17329 0.096086 0)
(1.15714 0.0813371 0)
(1.14344 0.06833 0)
(1.13193 0.056748 0)
(1.12238 0.0463038 0)
(1.11465 0.0367543 0)
(1.10863 0.0278937 0)
(1.10421 0.0195457 0)
(1.10132 0.0115625 0)
(1.09983 0.00382642 0)
(1.10979 -0.00338328 0)
(1.1115 -0.0102161 0)
(1.11477 -0.0172404 0)
(1.11971 -0.0245336 0)
(1.12647 -0.0321918 0)
(1.13515 -0.0403249 0)
(1.1459 -0.0490504 0)
(1.15891 -0.0584905 0)
(1.17443 -0.0687632 0)
(1.19275 -0.0799439 0)
(1.2142 -0.0919874 0)
(1.23866 -0.104686 0)
(1.26412 -0.117452 0)
(1.27612 -0.13712 0)
(1.27579 -0.135427 0)
(1.21943 -0.121056 0)
(1.02461 -0.0581701 0)
(0.597749 0.03576 4.8032e-24)
(0.142329 0.0414743 0)
(0.16544 -0.0449268 1.43941e-21)
(0.660449 -0.0263957 0)
(1.07365 0.0691432 0)
(1.25156 0.125223 0)
(1.2812 0.137877 0)
(1.26412 0.117453 0)
(1.23866 0.104687 0)
(1.2142 0.0919882 0)
(1.19276 0.0799446 0)
(1.17443 0.0687638 0)
(1.15891 0.058491 0)
(1.1459 0.0490508 0)
(1.13515 0.0403252 0)
(1.12647 0.0321921 0)
(1.11972 0.0245338 0)
(1.11477 0.0172406 0)
(1.1115 0.0102162 0)
(1.10979 0.00338331 0)
(1.11839 -0.00284691 0)
(1.12027 -0.00858646 0)
(1.12378 -0.0144521 0)
(1.12908 -0.0204785 0)
(1.13629 -0.0267074 0)
(1.14554 -0.0331804 0)
(1.15695 -0.039929 0)
(1.1707 -0.0469629 0)
(1.18696 -0.0542473 0)
(1.20588 -0.0616466 0)
(1.2273 -0.0688206 0)
(1.24993 -0.0750886 0)
(1.26905 -0.0788313 0)
(1.27462 -0.0863594 0)
(1.24379 -0.0683175 0)
(1.14606 -0.0387483 0)
(0.916797 0.0150549 0)
(0.546493 0.0591829 -4.56285e-23)
(0.201425 0.0458034 -1.90271e-24)
(0.021138 0.00808546 -9.34539e-23)
(-0.0171112 8.61126e-05 -3.3943e-23)
(0.0340859 -0.0115963 -1.46555e-21)
(0.236987 -0.0502971 -7.68525e-22)
(0.595354 -0.0564592 4.56292e-23)
(0.970222 -0.00625568 0)
(1.19631 0.0501819 0)
(1.26726 0.0795272 0)
(1.26905 0.0788319 0)
(1.24993 0.0750892 0)
(1.22731 0.0688212 0)
(1.20588 0.0616472 0)
(1.18697 0.0542478 0)
(1.1707 0.0469633 0)
(1.15695 0.0399293 0)
(1.14554 0.0331807 0)
(1.13629 0.0267076 0)
(1.12908 0.0204787 0)
(1.12378 0.0144522 0)
(1.12027 0.00858653 0)
(1.11839 0.00284693 0)
(1.12542 -0.00225588 0)
(1.12739 -0.00679258 0)
(1.13104 -0.0113909 0)
(1.13651 -0.0160478 0)
(1.1439 -0.0207573 0)
(1.15333 -0.0255047 0)
(1.1649 -0.0302553 0)
(1.17872 -0.0349395 0)
(1.19483 -0.039424 0)
(1.21313 -0.0434505 0)
(1.23292 -0.0465244 0)
(1.25177 -0.0476796 0)
(1.26281 -0.0444357 0)
(1.25676 -0.0430698 0)
(1.20038 -0.0190091 0)
(1.04721 0.0219086 0)
(0.829728 0.0536222 0)
(0.512874 0.073052 0)
(0.230288 0.058602 3.56083e-23)
(0.0561222 0.0271703 -1.44244e-22)
(0.00906679 -0.00377306 0)
(0.0877449 -0.0353298 0)
(0.292641 -0.0647832 -6.39233e-22)
(0.592824 -0.0714566 0)
(0.902401 -0.0445581 0)
(1.1387 0.000391032 0)
(1.23852 0.0330307 0)
(1.26281 0.044436 0)
(1.25177 0.04768 0)
(1.23292 0.0465249 0)
(1.21313 0.0434509 0)
(1.19483 0.0394244 0)
(1.17872 0.0349398 0)
(1.1649 0.0302556 0)
(1.15333 0.0255049 0)
(1.1439 0.0207575 0)
(1.13651 0.0160479 0)
(1.13104 0.011391 0)
(1.12739 0.00679264 0)
(1.12542 0.0022559 0)
(1.13077 -0.00164521 0)
(1.13278 -0.00494208 0)
(1.13646 -0.00824465 0)
(1.14192 -0.0115207 0)
(1.14927 -0.0147284 0)
(1.15858 -0.0178118 0)
(1.16992 -0.0206912 0)
(1.18331 -0.0232464 0)
(1.19867 -0.0252819 0)
(1.21557 -0.0264474 0)
(1.23266 -0.0260817 0)
(1.24616 -0.0229664 0)
(1.24632 -0.0150623 0)
(1.21113 0.00262389 0)
(1.155 0.0167908 0)
(0.996608 0.0498386 0)
(0.790652 0.0717133 0)
(0.51427 0.0804379 0)
(0.265408 0.0650107 0)
(0.103294 0.0330915 0)
(0.0571658 -0.00481256 7.52994e-24)
(0.133616 -0.0419754 -2.4591e-22)
(0.321279 -0.0708712 0)
(0.58368 -0.0805184 0)
(0.883574 -0.0647632 0)
(1.0879 -0.0331461 0)
(1.21113 -0.00262385 0)
(1.24632 0.0150626 0)
(1.24616 0.0229668 0)
(1.23267 0.0260821 0)
(1.21557 0.0264478 0)
(1.19867 0.0252822 0)
(1.18332 0.0232466 0)
(1.16992 0.0206915 0)
(1.15858 0.017812 0)
(1.14927 0.0147285 0)
(1.14192 0.0115208 0)
(1.13646 0.00824473 0)
(1.13278 0.00494213 0)
(1.13077 0.00164523 0)
(1.13444 -0.00104187 0)
(1.13644 -0.00311719 0)
(1.14005 -0.00515441 0)
(1.14539 -0.00710184 0)
(1.15253 -0.00889377 0)
(1.16151 -0.0104484 0)
(1.17235 -0.0116588 0)
(1.18499 -0.0123766 0)
(1.19919 -0.0123752 0)
(1.2142 -0.0112687 0)
(1.22802 -0.00836449 0)
(1.23572 -0.00249598 0)
(1.22658 0.00801127 0)
(1.18171 0.0257491 0)
(1.11556 0.0404127 0)
(0.959466 0.0660811 0)
(0.768995 0.0813123 0)
(0.521992 0.0833901 0)
(0.30029 0.0661556 0)
(0.153261 0.0340479 0)
(0.110798 -0.00498342 0)
(0.181005 -0.0430407 0)
(0.350351 -0.0721397 0)
(0.5836 -0.0846659 0)
(0.854746 -0.0766614 0)
(1.04722 -0.0534323 0)
(1.18171 -0.0257489 0)
(1.22658 -0.008011 0)
(1.23572 0.0024963 0)
(1.22802 0.00836481 0)
(1.2142 0.011269 0)
(1.19919 0.0123755 0)
(1.18499 0.0123768 0)
(1.17235 0.011659 0)
(1.16151 0.0104485 0)
(1.15253 0.00889388 0)
(1.14539 0.00710193 0)
(1.14006 0.00515447 0)
(1.13644 0.00311722 0)
(1.13444 0.00104188 0)
(1.13648 -0.000464583 0)
(1.13842 -0.00137429 0)
(1.14192 -0.00221479 0)
(1.14705 -0.00292402 0)
(1.15386 -0.00342379 0)
(1.16237 -0.00361942 0)
(1.17256 -0.00339242 0)
(1.18427 -0.00258439 0)
(1.19711 -0.000962233 0)
(1.21001 0.00185423 0)
(1.22047 0.00651247 0)
(1.22288 0.0140349 0)
(1.2065 0.0257188 0)
(1.15474 0.0428629 0)
(1.08332 0.0562149 0)
(0.932324 0.0756027 0)
(0.756762 0.0857141 0)
(0.534438 0.0834289 0)
(0.33557 0.0648284 0)
(0.202888 0.0332192 0)
(0.164364 -0.00486122 0)
(0.228003 -0.0420066 0)
(0.380553 -0.0709078 0)
(0.589683 -0.0855206 0)
(0.835547 -0.0828566 0)
(1.01562 -0.0662794 0)
(1.15474 -0.0428627 0)
(1.2065 -0.0257186 0)
(1.22288 -0.0140346 0)
(1.22047 -0.00651223 0)
(1.21002 -0.00185402 0)
(1.19711 0.000962407 0)
(1.18427 0.00258453 0)
(1.17256 0.00339254 0)
(1.16237 0.00361951 0)
(1.15386 0.00342386 0)
(1.14705 0.00292407 0)
(1.14192 0.00221482 0)
(1.13842 0.00137431 0)
(1.13648 0.00046459 0)
(1.13698 7.36547e-05 0)
(1.13884 0.000248166 0)
(1.14219 0.00051208 0)
(1.14706 0.000930307 0)
(1.15348 0.00158454 0)
(1.16147 0.00257268 0)
(1.17092 0.00401474 0)
(1.18164 0.00606871 0)
(1.19305 0.00896377 0)
(1.20385 0.0130611 0)
(1.21111 0.0189383 0)
(1.20893 0.0274329 0)
(1.18685 0.0394649 0)
(1.13025 0.0554364 0)
(1.05752 0.0668868 0)
(0.91331 0.0811261 0)
(0.751266 0.0872056 0)
(0.550096 0.0818572 0)
(0.370788 0.0624752 0)
(0.250882 0.0317904 0)
(0.215986 -0.00464514 0)
(0.27361 -0.0402425 0)
(0.411366 -0.0685513 0)
(0.599937 -0.0845059 0)
(0.823809 -0.0857825 0)
(0.991885 -0.0744812 0)
(1.13025 -0.0554362 0)
(1.18685 -0.0394646 0)
(1.20893 -0.0274328 0)
(1.21111 -0.0189381 0)
(1.20385 -0.013061 0)
(1.19305 -0.00896369 0)
(1.18164 -0.00606865 0)
(1.17093 -0.0040147 0)
(1.16147 -0.00257265 0)
(1.15349 -0.00158452 0)
(1.14706 -0.000930293 0)
(1.14219 -0.000512071 0)
(1.13884 -0.000248162 0)
(1.13698 -7.36533e-05 0)
(1.13606 0.000562436 0)
(1.13783 0.00171986 0)
(1.141 0.00297901 0)
(1.14559 0.0044026 0)
(1.15162 0.00607 0)
(1.15905 0.00807622 0)
(1.16777 0.0105367 0)
(1.17748 0.0136026 0)
(1.1875 0.0174905 0)
(1.19629 0.0225301 0)
(1.20069 0.0292017 0)
(1.19472 0.0380947 0)
(1.16876 0.049694 0)
(1.11066 0.0644875 0)
(1.03692 0.0740949 0)
(0.901148 0.0837828 0)
(0.750296 0.0873566 0)
(0.567648 0.0796766 0)
(0.40528 0.0599199 0)
(0.296705 0.0302993 0)
(0.265191 -0.00440788 -3.35678e-33)
(0.317622 -0.0383703 0)
(0.442564 -0.0659064 0)
(0.613474 -0.0827053 0)
(0.818173 -0.0867309 0)
(0.975642 -0.0794546 0)
(1.11066 -0.0644873 0)
(1.16876 -0.0496939 0)
(1.19472 -0.0380946 0)
(1.20069 -0.0292017 0)
(1.19629 -0.0225301 0)
(1.1875 -0.0174905 0)
(1.17749 -0.0136026 0)
(1.16777 -0.0105368 0)
(1.15905 -0.00807626 0)
(1.15162 -0.00607003 0)
(1.1456 -0.00440262 0)
(1.141 -0.00297903 0)
(1.13783 -0.00171988 0)
(1.13606 -0.00056244 0)
(1.13389 0.000991974 0)
(1.13555 0.00301227 0)
(1.13854 0.00514187 0)
(1.14285 0.00743912 0)
(1.14848 0.00997832 0)
(1.15537 0.0128486 0)
(1.16337 0.0161574 0)
(1.17213 0.0200446 0)
(1.18083 0.0247068 0)
(1.18779 0.0304306 0)
(1.1897 0.037602 0)
(1.18072 0.04663 0)
(1.15196 0.0577161 0)
(1.09244 0.0703683 0)
(0.990775 0.0820157 0)
(0.889919 0.086344 0)
(0.733682 0.0857701 0)
(0.569351 0.0752502 0)
(0.428174 0.0541538 0)
(0.338618 0.0248516 0)
(0.319868 -0.00834643 8.53711e-34)
(0.376036 -0.0402205 0)
(0.494903 -0.0658637 0)
(0.65168 -0.0818462 0)
(0.81601 -0.0869328 0)
(0.990773 -0.0820153 0)
(1.09244 -0.0703683 0)
(1.15196 -0.0577162 0)
(1.18072 -0.0466302 0)
(1.1897 -0.0376022 0)
(1.18779 -0.0304308 0)
(1.18083 -0.024707 0)
(1.17213 -0.0200447 0)
(1.16337 -0.0161576 0)
(1.15537 -0.0128487 0)
(1.14848 -0.00997841 0)
(1.14285 -0.00743918 0)
(1.13854 -0.00514192 0)
(1.13555 -0.0030123 0)
(1.13389 -0.000991984 0)
(1.13062 0.00135349 0)
(1.13217 0.00409954 0)
(1.13497 0.00696016 0)
(1.13901 0.0099899 0)
(1.14425 0.0132581 0)
(1.15062 0.0168475 0)
(1.15795 0.0208572 0)
(1.16581 0.0254139 0)
(1.17331 0.0306911 0)
(1.17865 0.0369286 0)
(1.17849 0.0444186 0)
(1.1672 0.0534037 0)
(1.13662 0.0638345 0)
(1.07716 0.0749519 0)
(0.981175 0.0840847 0)
(0.853332 0.0872698 0)
(0.707162 0.0826963 0)
(0.562922 0.0686805 0)
(0.446357 0.0456141 0)
(0.381054 0.0160018 -1.42286e-33)
(0.381054 -0.0159989 1.42286e-33)
(0.446356 -0.0456116 0)
(0.56292 -0.0686786 0)
(0.707159 -0.0826951 0)
(0.85333 -0.0872693 0)
(0.981174 -0.0840846 0)
(1.07716 -0.0749521 0)
(1.13662 -0.0638349 0)
(1.1672 -0.0534041 0)
(1.17849 -0.044419 0)
(1.17865 -0.036929 0)
(1.17331 -0.0306914 0)
(1.16581 -0.0254141 0)
(1.15795 -0.0208575 0)
(1.15062 -0.0168477 0)
(1.14425 -0.0132582 0)
(1.13901 -0.00999001 0)
(1.13497 -0.00696024 0)
(1.13217 -0.00409959 0)
(1.13062 -0.0013535 0)
(1.12647 0.00164175 0)
(1.1279 0.00496616 0)
(1.13051 0.0084095 0)
(1.13427 0.0120252 0)
(1.13913 0.01588 0)
(1.14501 0.020052 0)
(1.15169 0.0246332 0)
(1.15871 0.029738 0)
(1.16511 0.0355165 0)
(1.16904 0.042161 0)
(1.16718 0.0498751 0)
(1.15421 0.0587567 0)
(1.12273 0.0685611 0)
(1.06454 0.0783297 0)
(0.97412 0.0856485 0)
(0.855144 0.0873243 0)
(0.720183 0.0814697 0)
(0.58821 0.0669506 0)
(0.482205 0.0441846 0)
(0.423019 0.0154549 -1.48268e-34)
(0.423018 -0.0154529 1.48268e-34)
(0.482204 -0.0441829 0)
(0.588208 -0.0669494 0)
(0.720181 -0.0814691 0)
(0.855143 -0.0873242 0)
(0.974119 -0.0856489 0)
(1.06454 -0.0783303 0)
(1.12273 -0.0685618 0)
(1.15421 -0.0587574 0)
(1.16719 -0.0498757 0)
(1.16904 -0.0421616 0)
(1.16511 -0.0355169 0)
(1.15871 -0.0297383 0)
(1.15169 -0.0246335 0)
(1.14501 -0.0200523 0)
(1.13913 -0.0158802 0)
(1.13427 -0.0120254 0)
(1.13051 -0.00840961 0)
(1.1279 -0.00496622 0)
(1.12647 -0.00164177 0)
(1.12163 0.00185829 0)
(1.12294 0.00561666 0)
(1.12536 0.00949799 0)
(1.12883 0.0135583 0)
(1.13331 0.017865 0)
(1.1387 0.0224948 0)
(1.14475 0.0275353 0)
(1.15097 0.0330908 0)
(1.15637 0.0392896 0)
(1.15906 0.0462794 0)
(1.15584 0.0541832 0)
(1.14171 0.0629768 0)
(1.11005 0.0722636 0)
(1.0539 0.0809612 0)
(0.969129 0.0868967 0)
(0.858993 0.0874087 0)
(0.734733 0.0806628 0)
(0.613793 0.0657371 0)
(0.51694 0.0431384 0)
(0.46294 0.0150453 0)
(0.46294 -0.0150443 0)
(0.516939 -0.0431376 0)
(0.613792 -0.0657367 0)
(0.734732 -0.0806629 0)
(0.858993 -0.0874092 0)
(0.969128 -0.0868975 0)
(1.0539 -0.0809622 0)
(1.11005 -0.0722646 0)
(1.14171 -0.0629777 0)
(1.15584 -0.0541841 0)
(1.15907 -0.0462802 0)
(1.15637 -0.0392902 0)
(1.15098 -0.0330913 0)
(1.14475 -0.0275357 0)
(1.1387 -0.0224952 0)
(1.13331 -0.0178652 0)
(1.12883 -0.0135585 0)
(1.12536 -0.00949812 0)
(1.12295 -0.00561675 0)
(1.12164 -0.00185831 0)
(1.1163 0.00201314 0)
(1.11749 0.00608126 0)
(1.1197 0.0102761 0)
(1.12288 0.0146597 0)
(1.12696 0.0193035 0)
(1.13184 0.0242861 0)
(1.13726 0.0296938 0)
(1.1427 0.0356238 0)
(1.14715 0.0421855 0)
(1.14875 0.0494858 0)
(1.14442 0.0575754 0)
(1.12957 0.0663257 0)
(1.09829 0.0752229 0)
(1.0447 0.0831161 0)
(0.965617 0.0880194 0)
(0.864035 0.0876093 0)
(0.750012 0.0801581 0)
(0.639431 0.0648906 0)
(0.551081 0.042389 0)
(0.501883 0.0147498 0)
(0.501883 -0.0147498 0)
(0.55108 -0.0423892 0)
(0.63943 -0.064891 0)
(0.750012 -0.0801589 0)
(0.864035 -0.0876104 0)
(0.965617 -0.0880207 0)
(1.0447 -0.0831175 0)
(1.09829 -0.0752242 0)
(1.12957 -0.0663269 0)
(1.14442 -0.0575764 0)
(1.14875 -0.0494867 0)
(1.14715 -0.0421863 0)
(1.1427 -0.0356244 0)
(1.13726 -0.0296943 0)
(1.13184 -0.0242865 0)
(1.12696 -0.0193038 0)
(1.12288 -0.0146599 0)
(1.1197 -0.0102762 0)
(1.11749 -0.00608136 0)
(1.1163 -0.00201317 0)
(1.11062 0.00212394 0)
(1.11169 0.0064131 0)
(1.11368 0.0108323 0)
(1.11654 0.0154521 0)
(1.12021 0.0203501 0)
(1.12455 0.025609 0)
(1.12932 0.0313164 0)
(1.13397 0.0375651 0)
(1.1375 0.0444481 0)
(1.13811 0.0520353 0)
(1.1329 0.0603129 0)
(1.11767 0.0690623 0)
(1.08722 0.0776771 0)
(1.03655 0.084969 0)
(0.963214 0.0890905 0)
(0.869976 0.0879511 0)
(0.76586 0.0799417 0)
(0.66521 0.0643896 0)
(0.584956 0.0419194 0)
(0.540314 0.0145616 -1.53528e-34)
(0.540314 -0.0145626 1.53528e-34)
(0.584956 -0.0419205 0)
(0.66521 -0.0643908 0)
(0.76586 -0.0799432 0)
(0.869976 -0.0879527 0)
(0.963214 -0.0890921 0)
(1.03655 -0.0849706 0)
(1.08722 -0.0776786 0)
(1.11767 -0.0690636 0)
(1.1329 -0.0603141 0)
(1.13811 -0.0520363 0)
(1.1375 -0.044449 0)
(1.13397 -0.0375658 0)
(1.12932 -0.0313169 0)
(1.12455 -0.0256095 0)
(1.12021 -0.0203505 0)
(1.11654 -0.0154524 0)
(1.11368 -0.0108325 0)
(1.11169 -0.0064132 0)
(1.11062 -0.00212398 0)
(1.10468 0.00221223 0)
(1.10563 0.0066772 0)
(1.1074 0.0112753 0)
(1.10992 0.0160857 0)
(1.11314 0.0211929 0)
(1.11692 0.0266843 0)
(1.12099 0.0326501 0)
(1.12483 0.0391797 0)
(1.12745 0.0463512 0)
(1.12715 0.0542007 0)
(1.12123 0.0626565 0)
(1.10592 0.071423 0)
(1.07666 0.0798208 0)
(1.02922 0.0866418 0)
(0.961702 0.0901433 0)
(0.876681 0.0884064 0)
(0.782224 0.0799337 0)
(0.691179 0.0641284 0)
(0.618707 0.0416394 0)
(0.578429 0.0144452 0)
(0.578428 -0.0144469 0)
(0.618707 -0.0416412 0)
(0.691179 -0.0641302 0)
(0.782223 -0.0799356 0)
(0.87668 -0.0884083 0)
(0.961702 -0.0901451 0)
(1.02922 -0.0866436 0)
(1.07666 -0.0798225 0)
(1.10592 -0.0714245 0)
(1.12124 -0.0626578 0)
(1.12715 -0.0542018 0)
(1.12745 -0.0463521 0)
(1.12483 -0.0391805 0)
(1.12099 -0.0326507 0)
(1.11692 -0.0266848 0)
(1.11314 -0.0211932 0)
(1.10992 -0.016086 0)
(1.1074 -0.0112755 0)
(1.10563 -0.00667731 0)
(1.10468 -0.00221227 0)
(1.09852 0.00229839 0)
(1.09935 0.00693508 0)
(1.10088 0.0117076 0)
(1.10305 0.0167021 0)
(1.10579 0.0220084 0)
(1.10896 0.0277182 0)
(1.11232 0.0339228 0)
(1.11533 0.0407078 0)
(1.11705 0.048136 0)
(1.11591 0.0562121 0)
(1.10945 0.0648127 0)
(1.0943 0.0735774 0)
(1.06652 0.0817711 0)
(1.02256 0.0881793 0)
(0.960944 0.091144 0)
(0.884049 0.0888821 0)
(0.799044 0.0799996 0)
(0.717337 0.0639642 0)
(0.652398 0.0414399 0)
(0.616334 0.0143599 0)
(0.616334 -0.014362 0)
(0.652398 -0.041442 0)
(0.717337 -0.0639663 0)
(0.799044 -0.0800017 0)
(0.884049 -0.0888842 0)
(0.960944 -0.0911459 0)
(1.02256 -0.088181 0)
(1.06652 -0.0817727 0)
(1.0943 -0.0735788 0)
(1.10945 -0.064814 0)
(1.11591 -0.0562131 0)
(1.11705 -0.0481369 0)
(1.11533 -0.0407085 0)
(1.11232 -0.0339235 0)
(1.10896 -0.0277187 0)
(1.10579 -0.0220088 0)
(1.10305 -0.0167024 0)
(1.10088 -0.0117078 0)
(1.09935 -0.0069352 0)
(1.09852 -0.00229843 0)
(1.09212 0.00239705 0)
(1.09283 0.00723084 0)
(1.09411 0.0122023 0)
(1.09591 0.0174017 0)
(1.09815 0.0229213 0)
(1.10071 0.028854 0)
(1.10332 0.0352902 0)
(1.10549 0.0423084 0)
(1.10635 0.0499554 0)
(1.10445 0.0582051 0)
(1.09759 0.0668894 0)
(1.08283 0.0755952 0)
(1.05679 0.0835492 0)
(1.01652 0.089544 0)
(0.960871 0.0919987 0)
(0.892016 0.089247 0)
(0.81627 0.0799926 0)
(0.743661 0.0637614 0)
(0.686038 0.0412252 0)
(0.654061 0.0142713 0)
(0.654061 -0.0142735 0)
(0.686038 -0.0412274 0)
(0.74366 -0.0637635 0)
(0.81627 -0.0799947 0)
(0.892016 -0.089249 0)
(0.960871 -0.0920005 0)
(1.01652 -0.0895457 0)
(1.05679 -0.0835507 0)
(1.08283 -0.0755965 0)
(1.09759 -0.0668905 0)
(1.10445 -0.0582061 0)
(1.10635 -0.0499562 0)
(1.10549 -0.0423091 0)
(1.10332 -0.0352908 0)
(1.10071 -0.0288545 0)
(1.09815 -0.0229216 0)
(1.09591 -0.0174019 0)
(1.09411 -0.0122025 0)
(1.09283 -0.00723096 0)
(1.09212 -0.00239709 0)
(1.08542 0.00251462 0)
(1.08601 0.00758358 0)
(1.08704 0.0127907 0)
(1.08846 0.0182264 0)
(1.0902 0.0239818 0)
(1.09214 0.0301475 0)
(1.09401 0.0368086 0)
(1.09537 0.0440336 0)
(1.09542 0.0518506 0)
(1.09286 0.0602046 0)
(1.08577 0.0688891 0)
(1.07162 0.0774521 0)
(1.04754 0.0850998 0)
(1.01111 0.0906465 0)
(0.961462 0.092589 0)
(0.900539 0.0893691 0)
(0.833844 0.0797834 0)
(0.77009 0.0634098 0)
(0.719572 0.0409208 0)
(0.69156 0.014153 0)
(0.69156 -0.014155 0)
(0.719572 -0.0409228 0)
(0.770089 -0.0634117 0)
(0.833844 -0.0797852 0)
(0.900538 -0.0893708 0)
(0.961461 -0.0925905 0)
(1.01111 -0.0906479 0)
(1.04754 -0.0851011 0)
(1.07162 -0.0774532 0)
(1.08577 -0.0688901 0)
(1.09286 -0.0602055 0)
(1.09542 -0.0518513 0)
(1.09537 -0.0440342 0)
(1.09401 -0.0368092 0)
(1.09214 -0.030148 0)
(1.0902 -0.0239822 0)
(1.08846 -0.0182266 0)
(1.08704 -0.0127909 0)
(1.08601 -0.00758368 0)
(1.08542 -0.00251465 0)
(1.07838 0.00264933 0)
(1.07884 0.00798776 0)
(1.07963 0.0134628 0)
(1.08068 0.0191613 0)
(1.08193 0.0251695 0)
(1.08326 0.0315715 0)
(1.08443 0.0384433 0)
(1.08503 0.0458396 0)
(1.08435 0.0537683 0)
(1.08126 0.0621475 0)
(1.07411 0.0707395 0)
(1.06077 0.0790673 0)
(1.03885 0.0863336 0)
(1.00638 0.0913889 0)
(0.96271 0.0928115 0)
(0.909574 0.0891468 0)
(0.851696 0.0792796 0)
(0.796533 0.0628342 0)
(0.752897 0.0404769 0)
(0.728723 0.0139873 0)
(0.728723 -0.0139889 0)
(0.752897 -0.0404784 0)
(0.796532 -0.0628357 0)
(0.851695 -0.079281 0)
(0.909574 -0.0891481 0)
(0.962709 -0.0928127 0)
(1.00638 -0.09139 0)
(1.03885 -0.0863346 0)
(1.06077 -0.0790682 0)
(1.07411 -0.0707403 0)
(1.08126 -0.0621482 0)
(1.08435 -0.053769 0)
(1.08503 -0.0458401 0)
(1.08442 -0.0384438 0)