/*--------------------------------*- C++ -*----------------------------------*\
  =========                 |
  \\      /  F ield         | OpenFOAM: The Open Source CFD Toolbox
   \\    /   O peration     | Website:  https://openfoam.org
    \\  /    A nd           | Version:  6
     \\/     M anipulation  |
\*---------------------------------------------------------------------------*/
FoamFile
{
    version     2.0;
    format      ascii;
    class       volScalarField;
    location    "0";
    object      p;
}
// * * * * * * * * * * * * * * * * * * * * * * * * * * * * * * * * * * * * * //

dimensions      [0 2 -2 0 0 0 0];

internalField   nonuniform List<scalar> 
13046
(
0.137135
0.12294
0.152202
0.140818
0.148394
0.125801
0.131235
0.128799
0.152976
0.064635
-0.0255767
0.139722
0.134014
0.102944
0.148725
0.0836316
0.139721
-0.00910307
0.151512
0.141433
0.133574
0.080842
0.141023
-0.0118214
0.137801
0.137225
0.146726
0.128712
0.10579
0.151613
0.142515
0.110334
0.146789
0.14338
0.149018
0.132911
0.14139
0.150135
0.137552
0.143184
0.144406
0.111238
0.139399
0.150725
0.142723
0.140217
0.144097
0.143073
0.131987
0.121845
0.153071
0.124682
0.145267
0.0951974
0.132072
0.089071
0.148489
0.0416533
0.119777
0.140666
0.110469
0.0938557
0.149181
0.143145
0.027944
0.0914976
0.123978
0.0466515
0.137259
0.128032
0.0520902
0.137116
0.0311996
0.116507
0.140595
0.152058
0.149541
0.126199
0.14361
0.106727
0.0265801
0.135358
0.133953
0.146462
0.14205
0.0168145
0.0844246
0.0801027
0.14481
0.0407297
0.143354
0.063631
0.0414556
0.11562
0.109884
0.0751618
0.0684994
0.146106
0.148183
0.146022
0.0787015
0.0482501
0.141188
0.146858
0.139561
0.152787
0.0990347
0.133194
0.144459
0.139888
0.103957
0.0377759
0.13704
-0.0729054
0.135258
0.111828
0.146291
0.112273
0.115507
0.0569775
0.145062
0.0702532
0.144971
0.0594729
-0.038594
0.139125
0.127128
0.0800517
0.151086
0.141496
0.144457
0.109857
0.143438
0.0670067
0.0561028
0.101197
0.0556242
0.146125
0.140271
0.106413
0.145297
0.118964
0.127852
0.149544
0.142978
0.131955
0.106635
0.151225
0.10776
0.139007
0.111014
0.0830793
0.148299
0.155543
0.117689
0.133548
0.115171
0.0906769
0.108692
0.0900369
0.148615
0.149217
0.120589
0.114296
0.147469
0.0611351
0.140072
-0.0218696
0.0477328
0.137456
-0.0615359
0.09946
0.0462965
0.146051
0.142887
0.0885134
0.143545
0.120698
0.147024
0.119813
0.142529
-0.00303851
0.0625816
0.142482
0.097025
0.138918
0.154735
0.111949
0.130511
0.122756
0.127531
0.148022
0.0990674
0.152653
0.127436
0.0912062
0.148348
0.0798329
0.142988
0.0238523
0.145325
0.0761704
0.0569621
0.0661629
0.036919
0.142334
0.121291
0.083877
0.142131
0.127839
0.108109
0.140439
0.0269395
0.021874
0.0659315
0.142632
0.137882
0.150501
0.137605
0.131485
0.109608
0.149774
0.146014
0.0709417
0.0614948
0.124847
0.10427
0.154419
0.139025
-0.0447315
0.0466852
0.143028
0.0844017
0.116752
0.0717765
0.0474434
0.144348
0.100988
0.113122
0.151256
0.124619
0.0856864
0.151716
0.0814548
0.074518
0.143419
0.0854238
0.101794
0.146568
0.139003
-0.0442157
0.0402297
0.147076
0.142781
0.095378
0.0494336
0.13515
-0.094324
0.148689
0.137146
0.137524
0.107545
0.106275
0.110095
0.115198
0.152013
0.147882
0.138707
0.102593
0.0151486
0.128793
0.0915027
0.1473
0.0853265
0.0877478
0.147435
0.105031
0.057042
0.145716
0.142575
0.137414
0.150169
0.0971939
0.106255
0.149253
0.130584
0.0820753
0.147061
0.126031
0.1254
0.148584
0.137859
0.0873125
0.0973809
0.0974218
0.14853
0.0978058
0.145322
0.0526671
0.150856
0.137002
0.102489
0.148866
0.0847434
0.109919
0.119043
0.0621582
0.142386
0.145778
0.127091
0.0916518
0.113851
0.11159
0.0564481
0.142484
0.0520118
0.144919
0.142241
0.0035543
0.0674373
0.118208
0.0775726
0.146834
-0.113395
0.135241
0.0260716
0.131623
0.14765
0.128354
0.11558
0.0997096
0.149245
0.144713
0.0851447
0.0356497
0.12901
0.0834745
0.147732
0.0714501
0.0740574
0.14431
0.118761
0.150935
0.112667
0.0956461
0.14998
0.111867
0.151734
0.0909626
0.140078
0.00213423
0.126872
0.0754319
0.143858
0.108624
0.0904514
0.148172
0.115383
0.121404
0.15199
0.102305
0.125123
0.148953
0.138023
0.121406
0.150599
0.144875
0.0879025
0.114379
0.0732322
0.0282152
0.143051
0.0757783
0.0730028
0.146095
0.129836
0.134617
0.0674616
0.110323
0.113493
0.0471958
0.036872
0.138835
0.140733
0.135377
-0.104261
0.0330264
0.0542479
0.135666
-0.0872527
0.105734
0.105952
0.146053
0.14186
0.0785239
0.0123156
0.124026
0.122573
0.0656391
0.057677
0.143671
0.14153
0.139938
0.00790323
0.051498
0.0449236
0.13462
-0.104937
0.131718
0.148951
0.14611
0.0401234
-0.0878137
0.136239
0.139535
0.0878096
0.140739
0.0638591
0.00296489
0.1426
-0.097908
0.136959
0.00527606
0.144268
0.14211
0.116469
0.130731
0.144107
0.149137
0.0625257
0.139214
-0.0447483
0.126974
0.139219
0.14924
0.134698
0.14832
0.146999
0.147058
0.0767063
0.119467
0.12326
0.147968
0.149266
0.133144
0.128999
0.146496
0.133066
0.0719209
0.133761
0.141315
0.142223
-0.0117955
-0.0130641
0.0735369
0.0715489
0.0650118
0.0230586
0.142771
0.140038
0.129973
0.0551701
0.142154
0.13738
0.102522
0.0829974
0.0978148
0.143405
-0.0632663
0.137319
0.0144862
0.143227
0.0622516
0.0326922
0.0505137
0.138491
-0.0492084
0.136466
-0.10881
0.00600349
-0.131629
0.134972
0.020102
0.0883276
0.0972141
0.146279
-0.0186724
0.138618
0.035176
0.0945575
0.0555554
0.146559
0.0787971
0.136466
-0.0371595
0.131281
0.149287
0.126172
0.0172492
0.141316
0.0561149
0.0836988
0.143482
0.101668
0.0838102
0.0858572
0.148379
0.135881
-0.163812
-0.0104936
-0.0947122
0.136482
0.016425
0.135184
0.151034
0.124376
0.0024987
0.0502118
0.140826
0.1407
0.0428635
0.000905307
0.0778035
0.142038
0.012273
0.140501
0.019506
0.0971149
0.137622
0.067696
0.135767
0.0477404
0.118918
0.144318
0.139671
0.0949058
-0.00581136
0.134957
0.133308
0.0933875
0.0865232
0.145365
0.147654
0.137412
0.0958135
0.144462
0.128629
0.0597048
0.144895
0.0803217
0.0790431
0.14623
0.016882
0.0655099
0.14375
0.145054
0.082223
0.0676927
-0.132781
0.134358
0.0275509
0.145878
0.143324
0.147988
0.11244
0.150633
0.116973
0.13526
0.132004
0.141404
0.0688027
0.142103
0.0848283
-0.0944881
0.136122
0.00662215
0.00657426
0.0547128
0.141584
0.141271
0.130486
0.0910233
0.0891085
0.077213
0.144722
0.140616
0.0242336
0.101212
-0.0693301
0.0314483
0.1375
-0.055359
0.033391
0.138119
0.122903
0.0636408
0.146185
0.151272
0.132533
0.108186
0.0750685
0.141018
-0.00142779
0.0834811
0.0901492
0.148751
0.145545
0.0359461
0.096803
0.134511
0.1428
0.0863883
0.103929
0.116951
0.148727
0.145126
0.141848
0.105834
0.141083
-0.00580798
0.0683887
0.106294
0.051601
0.144971
0.1463
0.144472
0.116962
0.0887035
0.137994
-0.0176404
0.135481
0.109373
0.149136
0.124994
0.124143
0.151686
0.0908992
0.0911608
0.147179
0.0629573
0.136528
-0.0663192
0.0682018
0.136345
-0.0615018
0.144661
0.0309594
0.0977102
0.0976161
0.122688
0.146925
0.135403
-0.0819311
0.0545928
0.144936
0.0443919
0.0902185
0.135751
-0.121167
-0.000444239
0.0133976
-0.139611
0.134837
0.141204
0.00152023
0.0950966
0.140101
-0.0268647
0.0547686
0.0834177
0.0868136
0.139739
-0.0027743
0.14141
0.010801
0.0851642
0.0508139
0.145609
0.148055
0.0955258
0.0732482
0.145843
0.146872
0.120028
0.0874397
0.061261
0.14674
0.146851
0.0890369
0.067087
0.100158
0.139312
-0.000307961
0.133951
0.0618935
0.141788
0.13609
0.0836415
0.13831
0.0988811
0.0835405
0.14967
0.0964295
0.0800657
0.149062
0.146828
0.138854
0.123297
0.133609
0.0799682
0.150205
0.142127
0.0214386
0.0522333
0.0281516
0.138152
-0.0527373
0.0209875
0.138293
-0.0497567
0.141224
0.145128
0.102702
-0.078636
0.136975
0.0223122
0.103296
0.144499
0.0377903
0.1373
-0.0737679
0.0128955
0.140176
0.148711
0.130339
0.124162
0.100638
0.149875
0.122852
0.0976602
0.147319
0.139196
-0.0125822
0.0418267
0.0806559
0.0917524
0.147715
0.137723
0.0842293
-0.0226492
0.116979
0.0952356
0.151835
0.146599
0.148843
0.122278
-0.0134682
0.0471646
0.140347
0.145335
0.0356249
0.0905033
0.0599917
0.0542942
0.136948
0.136591
-0.0586273
-0.0691185
0.112855
0.113103
0.15171
0.093624
0.100898
0.14585
0.126559
0.127457
0.154017
-0.0366009
0.0339622
-0.0322355
0.139081
0.0334983
0.138506
0.109409
0.0732402
0.150049
0.047748
0.0413874
-0.0208842
-0.0312352
0.140227
0.139133
0.0982573
0.101312
0.151799
0.120131
0.109864
0.150456
0.0734543
0.137806
-0.0439027
0.119757
0.102945
0.150205
0.127551
0.117346
0.150157
0.0616652
0.136792
-0.0546638
0.120936
0.0797934
0.146401
0.11142
0.0755905
0.145024
0.137414
0.0764293
0.139853
0.064372
0.143193
0.0656644
0.135627
-0.149351
-0.00244891
0.115279
0.100903
0.14969
0.0769725
0.138429
-0.0250227
0.131563
0.0704645
0.140576
0.0257681
0.134827
-0.116554
0.150699
0.147721
0.131792
0.115155
0.134367
0.113216
0.129281
0.127534
0.151586
0.145488
0.150013
0.138455
0.118601
0.145506
0.114118
0.1184
0.112724
0.153839
0.121304
0.115101
0.153507
0.138142
-0.0432903
0.0234407
0.139225
0.102036
0.142073
0.054364
-0.0166785
0.140823
0.0993476
0.096061
0.0747074
0.0641643
0.147245
0.145685
0.136387
0.113269
0.145703
0.127158
0.07207
0.142027
0.107782
0.0852665
0.150888
0.145197
0.133093
0.144247
0.0927816
0.0668423
0.147201
0.143672
0.142853
0.123987
0.104857
0.0973961
0.151106
0.12538
0.0799919
0.142433
0.144743
0.145676
0.127938
0.149441
0.128577
0.146717
0.146746
0.135635
0.151228
0.125957
0.149839
0.117432
0.135098
0.132888
0.0988933
0.0974019
0.14817
0.145427
0.141105
0.0224626
0.0993588
0.144171
0.0817159
0.115015
0.142754
0.14326
0.0135813
0.0184665
0.0938173
0.091701
0.144425
0.132503
0.0858059
0.144414
0.146195
0.138214
0.0930237
0.0586746
0.146505
0.144597
0.14536
0.107742
0.123494
0.0762807
0.143231
0.108606
0.108606
0.0327866
0.143486
0.0389998
0.143647
0.104045
0.0691097
0.147067
0.0317571
-0.106007
0.135391
0.128093
0.0774728
0.140766
0.137776
0.139257
0.133209
0.0740402
0.139671
0.0785342
0.0848934
0.0742569
0.146407
0.128734
0.0786541
0.143748
0.144225
0.130351
0.0823409
0.136934
0.140476
0.134915
0.145124
0.0924243
0.0866936
0.137279
0.140939
0.0826383
0.103896
0.0749067
0.148804
0.145402
0.143094
0.126001
0.0678764
0.138299
-0.0368434
0.143707
0.133072
0.0768613
0.125727
0.121463
0.0758784
0.0709367
0.142496
0.147051
0.138844
-0.0249002
0.0733578
0.0734575
0.138435
-0.0378108
0.0678527
0.137637
-0.0440147
0.103927
0.143424
0.0334551
0.13072
0.085808
0.144606
0.012247
0.012055
0.10536
0.0147789
0.0694712
-0.0442122
0.0378754
0.0301378
-0.0359924
0.0610613
0.0589512
-0.0517449
0.0051218
0.0619069
-0.0141403
-0.00277072
0.0162336
-0.0137447
0.00532052
0.0384202
0.00275071
-0.014245
0.0696028
0.135719
0.11058
0.0170894
0.077145
-0.0541075
0.0164168
0.000821592
-0.0498846
0.033137
0.00467277
-0.00593544
-0.0445123
0.0104009
0.0970417
0.0680491
0.0173619
0.0529938
-0.0222092
0.132455
-0.0346548
0.0608521
0.0950427
-0.030591
-0.0252981
-0.0380607
-0.0493127
-0.0378721
0.113317
0.00286541
-0.00122344
-0.0343406
-0.0477614
0.108778
0.0399256
0.00723623
-0.0418642
0.0563086
-0.0401368
-0.0316128
0.110924
0.0362841
0.00496713
0.0414375
0.0124672
0.130794
0.0690322
0.081535
-0.0738198
-0.0555577
-0.00297666
0.04897
-0.0613867
-0.00711067
0.0243863
-0.0490226
0.0532864
0.0858665
-0.0110265
-0.00231887
-0.0445452
-0.0138378
-0.0349661
0.0589203
-0.0339147
0.0103542
-0.0157371
0.115788
-0.0072485
0.0542216
0.110277
-0.00449078
0.00192294
-0.0801895
-0.0360232
-0.0370371
0.00211107
-0.0760694
0.0330145
0.0721872
0.1016
0.132079
-0.0090462
0.00788564
-0.0524049
-0.000394582
-0.0352179
0.0953753
0.0754571
0.0374421
-0.0320206
-0.0625785
0.056737
0.0880511
-0.0210566
0.0102437
-0.0717435
-0.0170906
-0.0087159
0.12327
0.126309
0.0510089
0.0165123
0.00358573
-0.0508555
0.124709
-0.0016863
0.0470933
-0.0780432
0.112845
-0.042974
-0.0166936
0.00514989
0.0844378
-0.0125608
-0.0884204
-0.0287052
0.0376766
-0.00475558
0.0598435
0.0555163
-0.0111632
0.0938188
-0.0329888
-0.0185505
0.0910243
-0.0294824
-0.0161812
-0.050341
0.0275743
0.0158989
0.0881032
0.0540331
-0.0263432
0.0490546
0.0616104
0.103042
0.0246761
-0.00226472
-0.0120385
0.0731391
-0.00017888
0.0531234
-0.0485763
0.132324
-0.0164973
0.096835
0.122167
0.00731705
0.127251
0.0910436
0.100836
-0.0271656
-0.079338
-0.0517077
0.105519
-0.0329504
-0.0380112
-0.00310117
-0.0361794
-0.0152698
-0.0282335
0.0120984
0.122632
0.0522083
-0.0240993
0.0567263
-0.0346907
0.131409
-0.0269114
0.0905068
-0.0154262
-0.0843505
0.113096
0.123855
-0.0183932
-0.0350349
0.131898
0.0180484
0.0185717
-0.0352538
0.0492752
0.0953512
0.07049
-0.0169763
-0.0425434
0.0788202
0.0228114
-0.0498031
0.0539483
-0.00853713
-0.0466353
0.00171225
0.0912868
-0.0689811
0.0258675
0.0725157
-0.0367943
-0.0754779
-0.0241832
-0.000410426
0.0125993
0.0256698
0.0313498
-0.0104523
-0.0422516
0.000105202
0.0401877
0.0686417
-0.0300405
0.0325523
-0.031083
-0.0324854
0.0181564
-0.0206383
-0.082823
0.0728926
0.0901352
0.00892469
0.118709
0.0986005
0.132305
-5.83747e-05
-0.091847
-0.0139587
-0.0269765
0.0130133
-0.0653776
0.0239865
0.110425
0.0498537
0.0157363
-0.0201737
-0.0255521
0.0787045
0.00206957
0.0573684
-0.0282581
-0.00787263
-0.0267607
-0.0140425
-0.0156267
-0.0143322
-0.00619741
-0.0471056
0.0336024
0.0172818
-0.0261924
0.038136
0.0122228
-0.0175906
-0.0413432
-0.0244106
-0.0444043
-0.0358181
0.0137594
-0.063176
-0.0959751
-8.18824e-05
-0.0550241
-0.0721569
0.0149347
-0.0238421
-0.0688864
0.0893807
0.0352441
-0.0236078
0.0762371
-0.0459021
0.03197
0.0548509
-0.00719336
0.00395158
0.0847921
-0.0138134
0.0690431
-0.050769
-0.017359
0.0922386
-0.0284195
0.00325562
-0.10623
-0.0656475
-0.0863241
-0.0586151
-0.0361163
0.0373222
-0.0391028
-0.0757835
-0.0443772
-0.0211976
0.132374
0.0054218
0.0479733
0.0327239
-0.017208
0.0175348
-0.0178974
-0.0528021
0.0269234
-0.0238883
0.109654
0.0642152
-0.0113509
-0.023436
0.00436627
0.136422
0.0757222
0.0977095
0.0538497
-0.0154203
0.00904152
-0.0193286
-0.0470976
-0.0615506
-0.0357756
0.0214761
0.0575355
-0.0445657
-0.0641047
0.00259355
0.0210994
0.000114165
0.0177604
0.0794878
0.00924573
-0.0104513
0.108915
0.0931789
-0.0164152
0.0461622
0.0957444
-0.0623201
-0.0267006
-0.0177258
-0.0387211
-0.046332
0.0956805
-0.0491402
0.00572232
0.107073
-0.083716
0.0179382
-0.0144107
0.00820851
-0.0198273
-0.0300918
-0.080481
0.0221823
-0.0610936
-0.0510081
-0.0280608
-0.03133
0.0660606
0.109861
0.000573128
0.0396299
0.0263627
0.00470891
-0.0875527
0.0766404
0.052498
-0.0484105
-0.0701726
0.0297243
-0.0525287
0.013433
-0.00752912
-0.0268973
0.0851708
0.109407
-0.0173108
0.0695653
0.132843
0.0803783
0.090953
0.101978
0.0173479
-0.0151661
-0.0443168
0.133927
0.0847255
0.0953668
-0.0400589
-0.0354854
-0.0782453
0.0740074
0.0125422
0.00294513
0.0970944
0.0574186
0.00155927
0.0217066
-0.015968
0.00121257
-0.0189503
-0.0251217
-0.0241948
-0.0286019
-0.00575525
-0.0630395
0.0166195
-0.036024
0.0603008
0.0375236
-0.0702869
0.0970068
0.105079
0.0525302
-0.0374193
0.0197195
-0.0253034
0.0599484
0.00162935
-0.0531684
0.0947176
-0.0387649
0.111139
-0.0688816
-0.0165157
0.0108474
0.0506861
0.0804144
0.00229132
0.12042
0.00366473
0.0815385
-0.0162999
0.0623535
-0.0132932
0.00395045
-0.0275315
0.0861126
0.0161714
0.132368
0.0416403
-0.0630641
0.0071695
0.0311257
-0.0300852
-0.0363689
-0.0142739
-0.0311671
0.114894
-0.00171606
-0.0090805
0.0685619
-0.0391786
0.109499
0.128553
-0.0323936
0.133938
0.119511
0.0822604
0.0967934
0.0200619
-0.0507225
-0.0385983
-0.0194684
0.0739427
-0.00386563
-0.0378664
0.118956
-0.0432484
-0.0240485
-0.0413944
0.100496
0.132556
-0.0417489
0.0797731
0.0390017
0.109768
0.0256979
0.0570323
-0.0318232
0.122252
0.130817
0.0469457
-0.035406
0.0808199
0.0121971
0.0452665
0.00688191
0.00873864
0.0357593
0.0146062
-0.0356854
-0.0436529
0.0106485
0.0431098
0.0300762
0.0920136
-0.0463766
0.0110663
0.0527572
-0.0395636
0.104195
0.00107013
-0.0324652
0.108129
0.0862484
0.0339924
0.124605
-0.00662
-0.0367817
0.0606086
0.0345239
0.0360787
-0.0178881
-0.0254549
0.0319013
0.0456693
-0.0242838
-0.0117343
0.0266011
-0.0689413
-0.0315229
0.111757
0.1319
0.132285
0.0286349
0.136406
0.131938
0.117574
-0.0908035
0.0295263
0.0306105
0.123202
-0.0324618
0.00394089
-0.0506642
-0.0355723
-0.046195
0.120864
-0.0156228
-0.0102258
0.0591831
0.046136
-0.024888
-0.0320126
0.130807
0.122498
0.0969932
0.0569046
-0.0453519
0.0694854
0.0385186
-0.034953
0.0170323
-0.0618891
-0.0428322
0.0278382
-0.0065286
-0.00802372
0.113063
0.110643
-0.0854143
0.0841221
-0.00971706
-0.0120998
0.00700187
0.110954
-0.0109045
0.0556019
-0.0166107
0.0987411
-0.0308702
-0.0144279
0.131307
-0.0766729
-0.0710903
-0.00767488
-0.026426
-0.0941603
-0.0850333
-0.0223145
-0.0927077
-0.00168232
-0.0817004
-0.0533547
-0.00654248
-0.0542181
-0.0210328
-0.00397701
-0.0673686
-0.0791983
0.120595
0.095725
-0.0306538
-0.0547348
0.0987362
-0.0425683
0.00442736
0.129108
-0.0173383
0.129592
0.000938247
0.0881803
0.029825
-0.0171257
-0.0566886
0.031407
0.0284714
-0.00217628
-0.0182504
-0.028791
-0.0589704
-0.0248502
0.008887
-0.0783672
-0.064291
0.118443
-0.00171478
0.0452025
0.0653608
-0.0340593
0.0834255
0.0664285
-0.0496051
-0.0816629
-0.0141564
-0.0620179
-0.0923524
0.0504808
0.0526114
-0.0305127
0.0368442
-0.0199733
0.131597
0.118142
-0.0204716
-0.023453
0.122817
0.0925153
0.0287789
0.0343912
-0.0335808
0.133238
0.0389335
-0.085346
0.101179
0.0812835
0.11153
0.0220723
-0.041513
0.00432325
0.0538025
0.0284779
-0.104902
0.133101
-0.0141547
-0.0133818
0.00172603
0.102917
0.130142
0.129101
0.0394222
0.0263998
0.0723628
0.095089
0.11073
0.0468323
0.0752165
-0.00809872
-0.00676966
0.0380374
-0.042998
-0.00730459
-0.0702715
-0.0154242
0.0660154
-0.067332
0.0172746
0.00605936
0.0882629
0.128331
-0.0175303
-0.0584932
-0.0758635
0.0741906
-0.0372641
-0.0329902
-0.0737391
0.111357
0.0172269
0.0198262
-0.056009
0.0247054
-0.0315792
-0.0139503
0.0660379
0.0630911
0.11461
0.129958
-0.0197776
0.0998608
-0.0851195
0.102864
0.110257
0.111059
0.0720375
-0.0311421
-0.0302557
-0.0294517
-0.0835075
0.038082
-0.0808695
0.0534697
-0.0524749
0.097291
-0.0335955
-0.0775607
0.0866442
0.0809085
-0.00384288
-0.00364454
0.0445106
0.11213
0.0162637
0.00727143
-0.0809439
0.0803204
0.0439345
0.12306
-0.0913263
-0.00690752
0.102028
0.0537408
0.12491
0.05859
-0.0266535
-0.102599
-0.0855887
-0.00594008
-0.0697764
0.119695
-0.0812838
0.0170111
-0.00119801
-0.0478767
0.0871529
-0.0919323
0.108937
0.0545288
0.0232624
-0.0316524
0.0622875
0.00681088
0.0232662
-0.0111863
0.000408746
-0.0365725
-0.0471239
0.0672437
-0.0306193
0.135851
-0.041597
0.0328814
0.0405439
0.0756289
0.119481
-0.0368189
-0.0280966
-0.0193409
0.0248077
-0.0449658
0.115035
-0.0354528
0.0121023
-0.0360722
0.084737
-0.0574104
0.0206884
-0.062016
0.129889
-0.0847952
-0.0304231
0.0139797
0.0919575
-0.07493
-0.0687694
-0.0347882
-0.0635536
0.110584
0.0123726
0.0573233
0.0880121
0.0498314
0.0395017
0.128647
0.0398582
0.078806
0.0398943
0.0369078
-0.0685076
0.0359747
-0.0163351
0.00930589
0.0437207
-0.00457367
-0.0645742
0.00325744
0.0197998
-0.0377419
0.0799004
0.0328928
0.0684146
-0.0171273
0.120036
0.002259
0.0257305
0.0434576
-0.0670977
-0.0374329
-0.0366962
0.0300795
0.02273
0.0299329
0.107047
0.0753167
0.0725396
0.00969144
0.10006
0.121562
0.1175
0.0447594
0.0324802
0.0377985
-0.0460453
0.127468
0.0927836
0.0835588
-0.00640175
-0.0338647
-0.067698
0.036201
0.0531519
-0.00695936
0.0839057
0.0965714
0.029057
-0.00237353
0.0462339
0.00354781
0.00224827
-0.00592185
0.00313933
0.0197899
-0.0757889
0.0227475
0.0304236
-0.0201539
-0.0886319
0.025807
0.00565197
0.0496119
-0.0220963
0.015195
0.106131
0.114947
0.0193095
0.000332732
0.0736636
0.00434496
-0.0358138
-0.0405411
-0.0184693
-0.0645209
0.107149
0.00993353
0.0106384
0.0546673
0.0479164
0.0608542
-0.00597905
0.134585
0.0600003
-0.041899
0.00475659
-0.00164698
0.0730675
0.101971
0.061252
0.0294866
-0.0732138
-0.0452627
-0.0208091
0.0273856
0.0100545
0.0190223
-0.0405767
0.112157
0.0428188
0.0866714
0.0953822
0.0162839
-0.00837781
0.0349652
0.127555
-0.0522884
-0.0789579
0.0354315
0.131757
-0.0271105
-0.0200947
0.0678229
0.0538538
0.0858497
-0.00605506
-0.0747227
0.025552
-0.0690716
-0.0250739
0.0828359
-0.0130763
-0.0431835
-0.0113056
-0.0293655
0.0333786
-0.000262428
0.00309777
0.103197
-0.0450073
0.128658
0.0842799
-0.0520108
-0.0968789
0.0169676
0.0651374
0.0930397
-0.00936638
-0.0207328
0.00422233
-0.0273862
0.0115158
0.130942
0.103523
0.0569196
0.013823
-0.0670223
0.112891
0.135064
0.112387
0.0740224
0.104142
0.0312686
-0.0635355
-0.0856396
-0.0794869
0.119734
0.00272276
-0.003941
0.0112621
0.133835
-0.0324762
-0.00307684
-0.0583016
-0.00819419
-0.0410554
0.131795
0.0254976
0.068231
0.0991809
0.0957219
-0.027778
0.0349535
0.022351
0.0714294
-0.0585487
0.0343425
-0.027197
0.113866
-0.0146654
-0.0392699
-0.00783975
-0.0141177
0.105154
-0.0321779
0.0811353
0.0990847
0.102166
-0.0569785
0.0183146
-0.0209244
0.00685127
0.110098
0.0206307
0.04244
0.0231338
-0.0423098
0.0121583
0.115584
0.0384604
0.112975
-0.0831461
-0.0310157
-0.0333144
0.117542
0.00191818
0.0184054
-0.0564828
-0.00328322
0.0185139
0.119444
0.0249736
-0.0186464
-0.0589685
0.131413
0.126588
-0.0441286
0.113698
-0.028887
-0.0557728
-0.0291012
0.00348562
-0.0678075
0.0537769
0.00875501
-0.0335361
-0.0100536
0.1044
-0.00522765
0.0812224
0.00745762
-0.0362853
-0.00372183
-0.083737
-0.0735613
-0.0126707
0.0200492
0.044022
-0.044531
-0.00436004
0.10036
0.0435236
-0.0339137
-0.0204219
0.106291
-0.0094445
0.0129843
0.138562
0.0325877
-0.0360297
0.0116822
-0.003763
0.121537
0.00470293
-0.00348272
0.0311324
-0.0710329
0.108283
-0.0120877
0.101905
0.0199971
0.0643406
-0.053967
0.0883874
-0.0112967
-0.0525881
-0.0424059
0.0213024
0.105438
-0.102386
-0.00540753
-0.0418566
0.121033
0.133122
0.00150698
-0.0285345
0.052945
0.122613
0.00742391
0.10926
0.0916183
0.0816507
0.0683841
0.0147816
0.0694734
0.0636499
0.112189
0.0197827
0.0252144
0.00243731
0.00213645
0.0257402
-0.0240717
0.12092
-0.00274932
0.110114
0.0170298
0.117343
-0.040224
0.125046
0.0618523
0.104742
0.119002
0.105452
0.137802
-0.0248368
0.0965462
0.0257804
-0.0342896
-0.00431554
-0.0446778
0.112998
-0.00234478
0.0242344
0.032501
-0.0161927
0.0441417
-0.0419734
0.116973
0.00131059
0.0798205
-0.0872711
-0.0195199
-0.0305674
0.133427
0.00490489
0.0417041
0.00359321
-0.0282368
-0.0440142
-0.00750758
-0.0349961
0.0761793
0.115307
-0.0607201
0.0203574
-0.0315052
-0.0372103
0.0853056
0.000947572
0.00249547
0.124393
-0.0765542
0.0399569
0.0536468
0.102196
0.128706
0.00294942
-0.018585
-0.0573925
0.00136679
0.00559988
-0.0318019
0.0827666
-0.0300604
-0.0504418
-0.0189202
0.0199011
-0.00656089
0.0109828
-0.0423336
0.0128298
-0.0599601
0.0703277
0.0632162
0.0112994
0.0766176
-0.0114586
-0.0751234
0.000978987
-0.0785194
0.124396
-0.0239436
-0.0345572
-0.0389544
0.0989167
0.110851
0.0114013
0.0773104
0.00772243
-0.0466349
0.0291177
-0.0314188
-0.00716903
0.11164
0.0403353
0.0688778
0.12664
0.0780489
0.0333331
0.118596
-0.0622283
0.0130698
0.0101423
0.0298181
0.0232411
0.120065
-0.0334271
0.0263358
0.00135482
-0.00281807
-0.024688
-0.0159276
0.0621498
0.0868498
0.0978507
0.026332
0.0257137
0.121154
0.0902898
-0.0144138
0.0465771
-0.0544906
-0.0278852
0.0789934
-0.0611474
0.0951914
-0.0379076
0.101149
0.134869
0.114117
-0.0448857
0.104203
0.0931248
-0.0182179
0.121051
0.0080041
0.116984
0.0765664
-0.0327792
-0.0574454
0.0485437
-0.0243424
0.0191711
0.00437779
0.0933275
0.012232
0.121408
-0.036138
-0.00179522
0.00561811
-0.0333349
-0.0353647
0.0891446
0.131618
-0.0388101
0.0853434
0.0059754
0.0262611
0.00525806
0.054738
0.107632
0.0793326
-0.0374485
0.102982
0.0841296
0.129249
-0.0341981
-0.0517826
0.00436859
0.0736233
0.124894
0.088603
-0.00206981
0.124839
0.0154007
-0.0585521
-0.0577175
-0.099707
0.027466
-0.0518402
0.129803
0.128929
0.0244334
0.139045
0.0804682
0.00719324
0.123073
-0.0574915
0.11942
-0.0291144
0.111623
-0.00737375
-0.029264
0.0723077
0.0191383
0.116676
0.108031
0.110207
-0.0179798
-0.0189396
-0.069581
0.102257
0.0780253
0.00393909
0.035501
0.079345
-0.0822533
-0.0318094
-0.0233765
-0.0349352
0.0269437
-0.0367124
0.0101738
0.0817761
0.0100643
0.0201727
0.0641359
-0.0175299
0.00634827
0.0248058
0.00991791
-0.0191852
0.0971842
0.117294
0.00301455
0.0764225
-0.0852888
-0.0274705
0.101471
0.0714489
-0.0437268
0.11223
-0.0484194
0.0633654
0.0103908
0.0228507
0.10119
-0.00657276
0.0718755
0.0794693
0.0528549
0.13483
0.0542109
-0.0600634
0.034975
0.0296403
0.0703719
0.130041
0.055318
0.0199922
-0.00682928
0.0241376
0.102116
-0.0435828
0.100238
-0.0129722
0.0492134
0.0780784
0.0648227
-0.000611996
0.102387
0.124763
0.00511328
-0.014191
0.0170783
-0.0207924
-0.0600545
0.0121088
0.0780212
-0.0471871
-0.0618839
0.00376842
-0.0558237
0.0601821
0.017415
0.0724591
-0.00285783
0.112075
0.0116019
0.0940912
0.130145
-0.0386389
0.105983
0.0133101
0.0157598
0.0368461
0.103649
0.000685724
-0.0007388
0.0383538
-0.028144
-0.0131833
-0.0314253
-0.0459278
-0.0850562
0.126324
0.13388
-0.0518153
0.000415629
0.0669712
-0.0664224
0.000338637
-0.0295147
0.0548304
0.06702
-0.0701533
-0.0879047
0.107823
0.00436862
0.0342539
0.00264457
-0.0606575
-0.0580679
0.0523478
0.0928805
0.0392137
-0.0740357
0.113299
0.0913165
-0.0280393
0.0280363
-0.0330562
0.129984
-0.0245324
0.0119255
-0.046492
0.0442064
0.119078
0.0315362
0.0482302
-0.0140182
0.0223771
0.0440369
0.123313
0.137018
0.000599854
0.12587
-0.0106426
0.0172446
0.0190502
-0.0140845
-0.0156717
0.102048
0.0213723
0.0291814
-0.0147733
-0.0602011
0.0274747
-0.0270073
0.0587467
0.112193
-0.0307215
-0.0194881
0.0163056
-0.0148906
0.0103039
-0.0853455
0.000986106
0.106212
-0.0252999
-0.0473256
0.0776608
0.0133886
0.00349986
0.0428766
0.0931217
-0.00697074
-0.0003782
0.0870242
-0.00682966
-0.000502972
0.025682
0.10308
0.0424235
0.0169942
0.00410984
-0.0447791
-0.00301454
0.124624
0.0883778
0.132101
0.00226113
0.0509664
-0.0411068
0.00780136
0.093127
-0.0626981
-0.0663066
0.0633647
0.090289
-0.0645113
-0.00191657
0.00732298
-0.00470682
0.00617313
0.136883
0.0172876
-0.00251676
0.047762
-0.00628189
0.0701248
0.0534147
-0.0463734
0.00609941
0.0815938
0.0193384
0.126358
-0.0611741
-0.0326006
0.0592877
0.0406796
-0.0150223
0.0302584
-0.0252928
0.128415
0.117708
0.0599499
0.105122
-0.0363245
0.0997067
0.0398506
0.0644002
0.119273
-0.065539
-0.0107213
0.129426
0.0415138
-0.0731829
-0.0471557
0.0976867
0.127796
0.00416666
0.0678779
0.00335775
-0.052425
-0.0163484
-0.0729176
0.0930627
-0.022282
0.00330108
0.121353
-0.0421895
-0.00380926
-0.00940885
0.0295602
0.00401449
-0.0426165
-0.00794123
-0.0499157
0.0227036
0.0780698
0.118389
0.0724361
0.0136662
-0.0152596
-0.0748999
-0.0302798
0.0355906
0.0229895
0.0717409
0.0760356
-0.0156513
-0.00798008
0.0898476
0.0921321
0.130017
0.10253
0.12077
0.0153295
-0.0547933
-0.0219388
-0.0351386
0.12344
0.0204601
-0.0140553
0.118639
-0.0511798
0.081175
0.0664106
0.00217944
0.00660475
-0.00908349
-0.0417213
0.0905739
-0.0258153
0.0549165
0.00451612
0.116924
0.0254059
0.13299
-0.0312848
0.00310824
-0.0520755
-0.0881026
-0.00814426
0.07881
-0.00437929
-0.0503095
0.0161359
0.115728
0.0705765
-0.0375384
-0.0505787
-0.0135662
-0.0569508
0.00741201
-0.0608857
-0.0152735
-0.0382686
0.0644551
-0.0520125
0.00143033
0.110195
0.0289275
0.0654975
0.0855165
-0.0220631
0.00238724
-0.0204633
0.0881015
-0.0303547
0.011744
0.0157843
-0.0443242
-0.0664831
-0.002619
0.0041496
0.069686
0.131589
0.0961002
0.0197503
0.0588874
-0.0645073
0.125526
0.042917
0.0825756
0.00855137
0.0654138
-0.0446345
-0.0104777
0.0796859
0.118514
0.0767189
0.0200804
-0.029654
0.133847
0.0136195
0.091499
0.122917
0.0497271
-0.00268247
-0.0649106
0.0888879
0.0502228
-0.0455749
0.0414702
0.0419042
0.115416
-0.0209583
0.12226
0.131253
-0.0159412
-0.0290372
0.12236
-0.0451395
-0.0422209
-0.0063413
-0.0394961
-0.000223954
-0.0356461
-0.0580923
0.00203193
0.00541324
-0.0151436
-0.0318545
0.0225574
-0.0550407
-0.0317469
0.0379895
0.00357179
-0.0618341
0.110686
0.132155
0.125203
0.000401827
-0.0722443
0.133542
-0.0506457
0.00408806
0.00398871
-0.035105
0.00877853
0.0628931
-0.0262319
-0.0410916
-0.0636052
-0.0614025
-0.0476068
-0.03143
-0.0742843
-0.00279419
0.0143095
-0.0091871
0.11645
0.0225571
0.0613723
0.0145882
0.0894083
-0.0389536
-0.0292936
0.138631
0.00585095
0.0484513
-0.0521545
0.0499875
0.132558
-0.028713
0.0497281
0.047692
-0.0506331
-0.000267716
-0.0461691
-0.0293504
0.0662679
-0.0407277
0.00105718
-0.0400099
-0.0157108
-0.0133312
-0.0444691
0.00521816
-0.0293822
-0.0401132
0.130372
0.000156648
0.00747492
0.0169229
0.116428
-0.0240282
-0.0596865
0.0874734
-0.0445219
-0.0138171
0.00672215
0.0331965
-0.0449673
0.0217814
0.0357787
0.129626
0.0944377
-0.0559911
-0.0370942
-0.0644328
0.00537039
-0.0746551
-0.026836
0.0077264
-0.0270282
0.00667269
0.0386831
0.138716
-0.0188192
0.0613186
0.0230922
0.124543
-0.0347737
0.133838
0.0320867
-0.0491225
0.0432981
0.067035
-0.0349276
0.1
0.0074522
0.099247
-0.0329074
-0.0542367
-0.00667339
0.136928
0.132009
0.0653492
0.0471053
0.0653811
-0.0736998
-0.0475303
0.072235
0.132913
-0.0420701
0.0232481
0.00895524
-0.0392806
-0.0105927
-0.0117346
-0.0384857
-0.0216175
-0.034607
0.000604834
-0.0321782
-0.00142137
0.133722
0.0932393
-0.0765277
0.0773642
-0.0199791
-0.0498799
0.0841739
-0.0420902
-0.0153402
0.0622138
-0.034499
-0.0268654
0.00284753
0.096783
-0.0419059
-0.0282024
-0.022633
0.0349171
-0.035177
0.116394
-0.0697598
-0.0350516
-0.0236968
-0.0380325
0.0522703
0.0366211
0.117686
0.00241545
0.079934
0.0135828
0.0341849
-0.00171655
0.0557964
-0.0467848
-0.0414513
-0.0893016
0.0515126
-0.0105681
-0.0246934
0.108839
0.013701
0.050566
0.0532887
-0.0220619
-0.0353813
-0.0243842
0.0420465
0.00379811
0.137638
-0.0519092
-0.0721488
0.00113485
-0.0407778
0.00125197
0.00884394
0.0687966
-0.0125506
-0.00496846
-0.0403702
0.00986716
-0.00864351
-0.0114345
0.133788
0.124506
-0.0344671
-0.0154735
0.0929904
0.0420738
-0.00966093
-0.0479
-0.00326454
-0.0482924
0.0126169
0.109307
-0.00828646
-0.0680093
0.0373571
0.00541674
-0.0685023
-0.0394598
0.0102689
0.0563781
0.13656
-0.0444824
-0.0634054
0.0221075
0.0926873
-0.0251308
0.0267517
-0.0260931
0.00562632
-0.0299017
0.0345059
-0.0134087
0.00340385
0.0768958
-0.0241341
-0.0778778
0.0102903
-0.00273111
0.0805615
0.133837
0.00590772
-0.0344543
-0.0313044
-0.0296445
-0.0401424
-0.034256
-0.0461457
0.118526
0.0883389
0.0549909
0.00804242
-0.0648033
0.0752392
0.126255
-0.0355389
0.00764864