/*--------------------------------*- C++ -*----------------------------------*\
  =========                 |
  \\      /  F ield         | OpenFOAM: The Open Source CFD Toolbox
   \\    /   O peration     | Website:  https://openfoam.org
    \\  /    A nd           | Version:  6
     \\/     M anipulation  |
\*---------------------------------------------------------------------------*/
FoamFile
{
    version     2.0;
    format      ascii;
    class       volVectorField;
    location    "0";
    object      U;
}
// * * * * * * * * * * * * * * * * * * * * * * * * * * * * * * * * * * * * * //

dimensions      [0 1 -1 0 0 0 0];

internalField   nonuniform List<vector> 
40000
(
(5.65068e-07 -5.65119e-07 0)
(2.65694e-06 -8.45348e-07 0)
(4.80954e-06 -7.24836e-07 0)
(6.16445e-06 -3.78127e-07 0)
(6.06047e-06 5.98555e-08 0)
(4.23251e-06 5.29286e-07 0)
(6.04377e-07 9.9597e-07 0)
(-4.7998e-06 1.44096e-06 0)
(-1.18979e-05 1.8549e-06 0)
(-2.05765e-05 2.23387e-06 0)
(-3.07075e-05 2.5769e-06 0)
(-4.21575e-05 2.88454e-06 0)
(-5.47945e-05 3.15824e-06 0)
(-6.84911e-05 3.39998e-06 0)
(-8.31269e-05 3.61207e-06 0)
(-9.85894e-05 3.79694e-06 0)
(-0.000114775 3.95701e-06 0)
(-0.000131588 4.09461e-06 0)
(-0.000148941 4.21196e-06 0)
(-0.000166758 4.31117e-06 0)
(-0.000184967 4.39421e-06 0)
(-0.000203505 4.46294e-06 0)
(-0.000222317 4.51902e-06 0)
(-0.000241352 4.56399e-06 0)
(-0.000260568 4.59925e-06 0)
(-0.000279925 4.62604e-06 0)
(-0.00029939 4.6455e-06 0)
(-0.000318935 4.65864e-06 0)
(-0.000338533 4.66635e-06 0)
(-0.000358162 4.66942e-06 0)
(-0.000377805 4.66853e-06 0)
(-0.000397444 4.66429e-06 0)
(-0.000417066 4.65723e-06 0)
(-0.00043666 4.64777e-06 0)
(-0.000456215 4.6363e-06 0)
(-0.000475723 4.62314e-06 0)
(-0.000495176 4.60854e-06 0)
(-0.000514568 4.59272e-06 0)
(-0.000533894 4.57584e-06 0)
(-0.000553148 4.55804e-06 0)
(-0.000572328 4.5394e-06 0)
(-0.000591428 4.51998e-06 0)
(-0.000610444 4.49983e-06 0)
(-0.000629375 4.47894e-06 0)
(-0.000648215 4.45733e-06 0)
(-0.000666961 4.43494e-06 0)
(-0.00068561 4.41175e-06 0)
(-0.000704157 4.38769e-06 0)
(-0.000722599 4.3627e-06 0)
(-0.000740932 4.3367e-06 0)
(-0.000759149 4.3096e-06 0)
(-0.000777248 4.28131e-06 0)
(-0.000795221 4.25173e-06 0)
(-0.000813064 4.22076e-06 0)
(-0.00083077 4.18829e-06 0)
(-0.000848332 4.15422e-06 0)
(-0.000865744 4.11842e-06 0)
(-0.000882998 4.08079e-06 0)
(-0.000900085 4.04122e-06 0)
(-0.000916998 3.99958e-06 0)
(-0.000933727 3.95577e-06 0)
(-0.000950263 3.90967e-06 0)
(-0.000966597 3.86116e-06 0)
(-0.000982717 3.81014e-06 0)
(-0.000998614 3.75648e-06 0)
(-0.00101428 3.70009e-06 0)
(-0.00102969 3.64086e-06 0)
(-0.00104485 3.57868e-06 0)
(-0.00105973 3.51345e-06 0)
(-0.00107433 3.44507e-06 0)
(-0.00108864 3.37345e-06 0)
(-0.00110263 3.29849e-06 0)
(-0.0011163 3.22012e-06 0)
(-0.00112963 3.13825e-06 0)
(-0.0011426 3.05281e-06 0)
(-0.00115521 2.96372e-06 0)
(-0.00116743 2.87093e-06 0)
(-0.00117925 2.77437e-06 0)
(-0.00119066 2.674e-06 0)
(-0.00120164 2.56978e-06 0)
(-0.00121217 2.46166e-06 0)
(-0.00122224 2.34964e-06 0)
(-0.00123183 2.23368e-06 0)
(-0.00124092 2.1138e-06 0)
(-0.0012495 1.98998e-06 0)
(-0.00125756 1.86225e-06 0)
(-0.00126507 1.73062e-06 0)
(-0.00127203 1.59515e-06 0)
(-0.00127841 1.45588e-06 0)
(-0.0012842 1.31286e-06 0)
(-0.00128938 1.16618e-06 0)
(-0.00129394 1.01592e-06 0)
(-0.00129787 8.62184e-07 0)
(-0.00130116 7.05084e-07 0)
(-0.00130377 5.44748e-07 0)
(-0.00130572 3.81317e-07 0)
(-0.00130698 2.14948e-07 0)
(-0.00130754 4.58104e-08 0)
(-0.00130739 -1.25914e-07 0)
(-0.00130652 -3.00027e-07 0)
(-0.00130492 -4.76318e-07 0)
(-0.00130258 -6.54563e-07 0)
(-0.0012995 -8.34526e-07 0)
(-0.00129567 -1.01596e-06 0)
(-0.00129108 -1.19859e-06 0)
(-0.00128573 -1.38216e-06 0)
(-0.00127962 -1.56638e-06 0)
(-0.00127274 -1.75095e-06 0)
(-0.0012651 -1.93557e-06 0)
(-0.00125669 -2.11993e-06 0)
(-0.00124751 -2.30371e-06 0)
(-0.00123758 -2.48657e-06 0)
(-0.00122688 -2.66819e-06 0)
(-0.00121544 -2.84822e-06 0)
(-0.00120325 -3.02633e-06 0)
(-0.00119033 -3.20218e-06 0)
(-0.00117669 -3.3754e-06 0)
(-0.00116233 -3.54567e-06 0)
(-0.00114727 -3.71264e-06 0)
(-0.00113152 -3.87596e-06 0)
(-0.00111511 -4.0353e-06 0)
(-0.00109804 -4.19032e-06 0)
(-0.00108033 -4.3407e-06 0)
(-0.00106201 -4.48612e-06 0)
(-0.0010431 -4.62626e-06 0)
(-0.00102361 -4.76084e-06 0)
(-0.00100357 -4.88956e-06 0)
(-0.000983012 -5.01214e-06 0)
(-0.000961952 -5.12831e-06 0)
(-0.00094042 -5.23784e-06 0)
(-0.000918443 -5.34048e-06 0)
(-0.00089605 -5.43602e-06 0)
(-0.00087327 -5.52425e-06 0)
(-0.000850135 -5.60498e-06 0)
(-0.000826674 -5.67806e-06 0)
(-0.000802919 -5.74332e-06 0)
(-0.000778903 -5.80063e-06 0)
(-0.000754658 -5.84989e-06 0)
(-0.000730218 -5.89099e-06 0)
(-0.000705615 -5.92386e-06 0)
(-0.000680885 -5.94842e-06 0)
(-0.000656061 -5.96465e-06 0)
(-0.000631178 -5.97251e-06 0)
(-0.000606269 -5.972e-06 0)
(-0.00058137 -5.96311e-06 0)
(-0.000556514 -5.94588e-06 0)
(-0.000531736 -5.92033e-06 0)
(-0.00050707 -5.88651e-06 0)
(-0.00048255 -5.84448e-06 0)
(-0.00045821 -5.79432e-06 0)
(-0.000434084 -5.73611e-06 0)
(-0.000410203 -5.66994e-06 0)
(-0.000386601 -5.59592e-06 0)
(-0.000363311 -5.51414e-06 0)
(-0.000340365 -5.42473e-06 0)
(-0.000317793 -5.32781e-06 0)
(-0.000295626 -5.2235e-06 0)
(-0.000273897 -5.11192e-06 0)
(-0.000252633 -4.99322e-06 0)
(-0.000231866 -4.86752e-06 0)
(-0.000211623 -4.73496e-06 0)
(-0.000191934 -4.59567e-06 0)
(-0.000172827 -4.44979e-06 0)
(-0.000154328 -4.29746e-06 0)
(-0.000136465 -4.13882e-06 0)
(-0.000119263 -3.97401e-06 0)
(-0.00010275 -3.80317e-06 0)
(-8.69489e-05 -3.62645e-06 0)
(-7.18855e-05 -3.444e-06 0)
(-5.75833e-05 -3.256e-06 0)
(-4.40654e-05 -3.06259e-06 0)
(-3.13544e-05 -2.86398e-06 0)
(-1.94717e-05 -2.66037e-06 0)
(-8.43797e-06 -2.45197e-06 0)
(1.72712e-06 -2.23905e-06 0)
(1.10052e-05 -2.02189e-06 0)
(1.93792e-05 -1.80083e-06 0)
(2.68337e-05 -1.57626e-06 0)
(3.33552e-05 -1.34863e-06 0)
(3.89323e-05 -1.1185e-06 0)
(4.35563e-05 -8.86498e-07 0)
(4.72215e-05 -6.53418e-07 0)
(4.99263e-05 -4.20192e-07 0)
(5.16732e-05 -1.8796e-07 0)
(5.24704e-05 4.18931e-08 0)
(5.23326e-05 2.67666e-07 0)
(5.12828e-05 4.87263e-07 0)
(4.93536e-05 6.98079e-07 0)
(4.65899e-05 8.96857e-07 0)
(4.30519e-05 1.07948e-06 0)
(3.88184e-05 1.2407e-06 0)
(3.3992e-05 1.37374e-06 0)
(2.87056e-05 1.46979e-06 0)
(2.31297e-05 1.51725e-06 0)
(1.74834e-05 1.50079e-06 0)
(1.20452e-05 1.40057e-06 0)
(7.16119e-06 1.19293e-06 0)
(3.25161e-06 8.52136e-07 0)
(7.86578e-07 3.61522e-07 0)
(-9.46488e-08 -9.47294e-08 0)
(8.47626e-07 -2.65915e-06 0)
(4.16739e-06 -4.1598e-06 0)
(6.75298e-06 -3.05962e-06 0)
(6.95046e-06 -4.1772e-07 0)
(3.45045e-06 3.03061e-06 0)
(-4.37669e-06 6.82543e-06 0)
(-1.67758e-05 1.06865e-05 0)
(-3.37546e-05 1.44471e-05 0)
(-5.51687e-05 1.80109e-05 0)
(-8.07812e-05 2.13263e-05 0)
(-0.000110303 2.4369e-05 0)
(-0.000143418 2.71318e-05 0)
(-0.000179803 2.96182e-05 0)
(-0.000219137 3.18385e-05 0)
(-0.000261111 3.38069e-05 0)
(-0.000305431 3.55401e-05 0)
(-0.00035182 3.70558e-05 0)
(-0.000400024 3.83721e-05 0)
(-0.000449806 3.95069e-05 0)
(-0.000500952 4.04774e-05 0)
(-0.000553266 4.13e-05 0)
(-0.000606572 4.19903e-05 0)
(-0.000660713 4.25626e-05 0)
(-0.000715546 4.30304e-05 0)
(-0.000770947 4.34059e-05 0)
(-0.000826803 4.37002e-05 0)
(-0.000883018 4.39235e-05 0)
(-0.000939503 4.40848e-05 0)
(-0.000996185 4.41924e-05 0)
(-0.001053 4.42533e-05 0)
(-0.00110988 4.42741e-05 0)
(-0.00116679 4.42604e-05 0)
(-0.00122367 4.42169e-05 0)
(-0.0012805 4.41481e-05 0)
(-0.00133725 4.40574e-05 0)
(-0.00139387 4.39479e-05 0)
(-0.00145035 4.38223e-05 0)
(-0.00150667 4.36825e-05 0)
(-0.00156281 4.35304e-05 0)
(-0.00161875 4.33673e-05 0)
(-0.00167448 4.31941e-05 0)
(-0.00172998 4.30116e-05 0)
(-0.00178524 4.28203e-05 0)
(-0.00184025 4.26204e-05 0)
(-0.00189499 4.24119e-05 0)
(-0.00194946 4.21947e-05 0)
(-0.00200364 4.19686e-05 0)
(-0.00205752 4.1733e-05 0)
(-0.00211109 4.14876e-05 0)
(-0.00216432 4.12315e-05 0)
(-0.00221721 4.09643e-05 0)
(-0.00226975 4.0685e-05 0)
(-0.00232191 4.03928e-05 0)
(-0.00237367 4.00868e-05 0)
(-0.00242503 3.97662e-05 0)
(-0.00247595 3.94299e-05 0)
(-0.00252642 3.90771e-05 0)
(-0.00257642 3.87066e-05 0)
(-0.00262591 3.83176e-05 0)
(-0.00267489 3.79089e-05 0)
(-0.00272332 3.74795e-05 0)
(-0.00277117 3.70286e-05 0)
(-0.00281841 3.65549e-05 0)
(-0.00286503 3.60577e-05 0)
(-0.00291098 3.55358e-05 0)
(-0.00295623 3.49882e-05 0)
(-0.00300075 3.44142e-05 0)
(-0.00304451 3.38126e-05 0)
(-0.00308747 3.31828e-05 0)
(-0.00312959 3.25236e-05 0)
(-0.00317083 3.18345e-05 0)
(-0.00321117 3.11144e-05 0)
(-0.00325055 3.03628e-05 0)
(-0.00328894 2.95789e-05 0)
(-0.00332629 2.87621e-05 0)
(-0.00336257 2.79117e-05 0)
(-0.00339773 2.70272e-05 0)
(-0.00343172 2.61081e-05 0)
(-0.00346451 2.51541e-05 0)
(-0.00349605 2.41647e-05 0)
(-0.00352629 2.31397e-05 0)
(-0.00355519 2.2079e-05 0)
(-0.00358271 2.09824e-05 0)
(-0.0036088 1.985e-05 0)
(-0.0036334 1.86817e-05 0)
(-0.00365649 1.74778e-05 0)
(-0.00367802 1.62385e-05 0)
(-0.00369793 1.49642e-05 0)
(-0.00371619 1.36555e-05 0)
(-0.00373276 1.23129e-05 0)
(-0.00374759 1.09371e-05 0)
(-0.00376064 9.52894e-06 0)
(-0.00377187 8.0894e-06 0)
(-0.00378124 6.61954e-06 0)
(-0.00378872 5.12055e-06 0)
(-0.00379427 3.59375e-06 0)
(-0.00379785 2.04057e-06 0)
(-0.00379944 4.62574e-07 0)
(-0.00379901 -1.13854e-06 0)
(-0.00379652 -2.76098e-06 0)
(-0.00379195 -4.4028e-06 0)
(-0.00378529 -6.06196e-06 0)
(-0.0037765 -7.73629e-06 0)
(-0.00376558 -9.42353e-06 0)
(-0.0037525 -1.11213e-05 0)
(-0.00373726 -1.28271e-05 0)
(-0.00371985 -1.45384e-05 0)
(-0.00370026 -1.62524e-05 0)
(-0.00367849 -1.79665e-05 0)
(-0.00365455 -1.96778e-05 0)
(-0.00362844 -2.13835e-05 0)
(-0.00360016 -2.30805e-05 0)
(-0.00356974 -2.47658e-05 0)
(-0.00353719 -2.64365e-05 0)
(-0.00350253 -2.80894e-05 0)
(-0.00346578 -2.97215e-05 0)
(-0.00342698 -3.13296e-05 0)
(-0.00338615 -3.29106e-05 0)
(-0.00334333 -3.44614e-05 0)
(-0.00329857 -3.59791e-05 0)
(-0.00325189 -3.74604e-05 0)
(-0.00320336 -3.89026e-05 0)
(-0.00315303 -4.03025e-05 0)
(-0.00310094 -4.16574e-05 0)
(-0.00304716 -4.29644e-05 0)
(-0.00299175 -4.42209e-05 0)
(-0.00293477 -4.54242e-05 0)
(-0.00287629 -4.65719e-05 0)
(-0.00281639 -4.76615e-05 0)
(-0.00275513 -4.86909e-05 0)
(-0.0026926 -4.96579e-05 0)
(-0.00262887 -5.05604e-05 0)
(-0.00256403 -5.13967e-05 0)
(-0.00249816 -5.21651e-05 0)
(-0.00243134 -5.28639e-05 0)
(-0.00236367 -5.34919e-05 0)
(-0.00229523 -5.40477e-05 0)
(-0.00222612 -5.45303e-05 0)
(-0.00215643 -5.49387e-05 0)
(-0.00208624 -5.52723e-05 0)
(-0.00201566 -5.55303e-05 0)
(-0.00194479 -5.57123e-05 0)
(-0.00187371 -5.58181e-05 0)
(-0.00180252 -5.58474e-05 0)
(-0.00173132 -5.58001e-05 0)
(-0.00166021 -5.56765e-05 0)
(-0.00158928 -5.54767e-05 0)
(-0.00151862 -5.5201e-05 0)
(-0.00144834 -5.485e-05 0)
(-0.00137853 -5.44241e-05 0)
(-0.00130927 -5.39239e-05 0)
(-0.00124068 -5.33504e-05 0)
(-0.00117282 -5.27041e-05 0)
(-0.00110581 -5.1986e-05 0)
(-0.00103973 -5.1197e-05 0)
(-0.000974669 -5.03382e-05 0)
(-0.000910713 -4.94104e-05 0)
(-0.000847951 -4.84148e-05 0)
(-0.00078647 -4.73524e-05 0)
(-0.000726352 -4.62243e-05 0)
(-0.000667682 -4.50317e-05 0)
(-0.00061054 -4.37757e-05 0)
(-0.000555009 -4.24575e-05 0)
(-0.000501165 -4.10782e-05 0)
(-0.000449087 -3.96391e-05 0)
(-0.000398851 -3.81415e-05 0)
(-0.000350531 -3.65865e-05 0)
(-0.000304199 -3.49756e-05 0)
(-0.000259927 -3.33102e-05 0)
(-0.000217784 -3.15918e-05 0)
(-0.000177836 -2.9822e-05 0)
(-0.000140148 -2.80027e-05 0)
(-0.000104783 -2.61359e-05 0)
(-7.17998e-05 -2.42238e-05 0)
(-4.12547e-05 -2.22691e-05 0)
(-1.32001e-05 -2.02746e-05 0)
(1.23156e-05 -1.82439e-05 0)
(3.52493e-05 -1.61809e-05 0)
(5.55636e-05 -1.40904e-05 0)
(7.32278e-05 -1.19779e-05 0)
(8.82196e-05 -9.85007e-06 0)
(0.000100526 -7.71481e-06 0)
(0.000110146 -5.58155e-06 0)
(0.00011709 -3.46165e-06 0)
(0.000121389 -1.36875e-06 0)
(0.000123089 6.80616e-07 0)
(0.000122261 2.66638e-06 0)
(0.000119006 4.56406e-06 0)
(0.000113455 6.34368e-06 0)
(0.000105783 7.96831e-06 0)
(9.6214e-05 9.39229e-06 0)
(8.5032e-05 1.0559e-05 0)
(7.25937e-05 1.13978e-05 0)
(5.93426e-05 1.18217e-05 0)
(4.58248e-05 1.17244e-05 0)
(3.27013e-05 1.09823e-05 0)
(2.07457e-05 9.46758e-06 0)
(1.08317e-05 7.08792e-06 0)
(3.92238e-06 3.92948e-06 0)
(3.60087e-07 7.84968e-07 0)
(7.30929e-07 -4.82264e-06 0)
(3.08007e-06 -6.75079e-06 0)
(3.33158e-06 -3.31204e-06 0)
(-4.66476e-07 3.36029e-06 0)
(-9.84205e-06 1.18317e-05 0)
(-2.56099e-05 2.11501e-05 0)
(-4.81328e-05 3.06948e-05 0)
(-7.74662e-05 4.00712e-05 0)
(-0.000113452 4.90355e-05 0)
(-0.000155791 5.74442e-05 0)
(-0.000204098 6.52204e-05 0)
(-0.000257938 7.23312e-05 0)
(-0.000316851 7.87731e-05 0)
(-0.000380376 8.45615e-05 0)
(-0.000448058 8.97244e-05 0)
(-0.000519459 9.4297e-05 0)
(-0.000594165 9.83191e-05 0)
(-0.000671788 0.000101833 0)
(-0.000751966 0.00010488 0)
(-0.000834367 0.000107503 0)
(-0.000918687 0.000109741 0)
(-0.00100465 0.000111633 0)
(-0.00109201 0.000113215 0)
(-0.00118053 0.000114521 0)
(-0.00127002 0.000115581 0)
(-0.00136031 0.000116424 0)
(-0.00145121 0.000117076 0)
(-0.00154261 0.000117561 0)
(-0.00163437 0.000117898 0)
(-0.00172639 0.000118109 0)
(-0.00181856 0.000118208 0)
(-0.00191081 0.000118211 0)
(-0.00200306 0.000118131 0)
(-0.00209525 0.000117979 0)
(-0.00218732 0.000117765 0)
(-0.00227923 0.000117496 0)
(-0.00237092 0.000117181 0)
(-0.00246237 0.000116824 0)
(-0.00255354 0.000116431 0)
(-0.0026444 0.000116004 0)
(-0.00273492 0.000115548 0)
(-0.00282507 0.000115064 0)
(-0.00291484 0.000114553 0)
(-0.0030042 0.000114016 0)
(-0.00309313 0.000113455 0)
(-0.00318161 0.000112867 0)
(-0.0032696 0.000112254 0)
(-0.0033571 0.000111614 0)
(-0.00344408 0.000110945 0)
(-0.00353052 0.000110247 0)
(-0.00361638 0.000109517 0)
(-0.00370165 0.000108754 0)
(-0.00378629 0.000107956 0)
(-0.00387028 0.000107119 0)
(-0.00395358 0.000106243 0)
(-0.00403616 0.000105325 0)
(-0.00411799 0.000104361 0)
(-0.00419903 0.00010335 0)
(-0.00427924 0.000102289 0)
(-0.00435858 0.000101175 0)
(-0.00443702 0.000100007 0)
(-0.00451449 9.87802e-05 0)
(-0.00459097 9.74933e-05 0)
(-0.0046664 9.61436e-05 0)
(-0.00474073 9.47284e-05 0)
(-0.00481392 9.32454e-05 0)
(-0.00488589 9.1692e-05 0)
(-0.00495661 9.0066e-05 0)
(-0.00502602 8.8365e-05 0)
(-0.00509405 8.65869e-05 0)
(-0.00516064 8.47295e-05 0)
(-0.00522574 8.27909e-05 0)
(-0.00528928 8.07691e-05 0)
(-0.0053512 7.86623e-05 0)
(-0.00541142 7.6469e-05 0)
(-0.00546989 7.41875e-05 0)
(-0.00552654 7.18167e-05 0)
(-0.00558129 6.93552e-05 0)
(-0.00563408 6.68021e-05 0)
(-0.00568484 6.41565e-05 0)
(-0.00573349 6.14179e-05 0)
(-0.00577997 5.85858e-05 0)
(-0.0058242 5.566e-05 0)
(-0.00586611 5.26405e-05 0)
(-0.00590564 4.95277e-05 0)
(-0.00594271 4.63221e-05 0)
(-0.00597725 4.30243e-05 0)
(-0.00600919 3.96357e-05 0)
(-0.00603846 3.61573e-05 0)
(-0.006065 3.2591e-05 0)
(-0.00608875 2.89385e-05 0)
(-0.00610962 2.52023e-05 0)
(-0.00612758 2.13847e-05 0)
(-0.00614254 1.74886e-05 0)
(-0.00615447 1.35172e-05 0)
(-0.00616329 9.47404e-06 0)
(-0.00616896 5.36283e-06 0)
(-0.00617144 1.18773e-06 0)
(-0.00617066 -3.04684e-06 0)
(-0.0061666 -7.33611e-06 0)
(-0.00615921 -1.1675e-05 0)
(-0.00614846 -1.60583e-05 0)
(-0.00613431 -2.04801e-05 0)
(-0.00611674 -2.49347e-05 0)
(-0.00609574 -2.94157e-05 0)
(-0.00607127 -3.39168e-05 0)
(-0.00604334 -3.84312e-05 0)
(-0.00601193 -4.2952e-05 0)
(-0.00597704 -4.7472e-05 0)
(-0.00593868 -5.19839e-05 0)
(-0.00589686 -5.64801e-05 0)
(-0.00585159 -6.0953e-05 0)
(-0.00580289 -6.53948e-05 0)
(-0.00575079 -6.97977e-05 0)
(-0.00569533 -7.41536e-05 0)
(-0.00563654 -7.84546e-05 0)
(-0.00557447 -8.26925e-05 0)
(-0.00550917 -8.68595e-05 0)
(-0.0054407 -9.09474e-05 0)
(-0.00536912 -9.49484e-05 0)
(-0.0052945 -9.88546e-05 0)
(-0.00521692 -0.000102658 0)
(-0.00513645 -0.000106352 0)
(-0.00505318 -0.000109928 0)
(-0.00496721 -0.000113379 0)
(-0.00487863 -0.000116699 0)
(-0.00478755 -0.00011988 0)
(-0.00469407 -0.000122917 0)
(-0.0045983 -0.000125802 0)
(-0.00450036 -0.00012853 0)
(-0.00440038 -0.000131096 0)
(-0.00429847 -0.000133495 0)
(-0.00419477 -0.000135721 0)
(-0.00408941 -0.00013777 0)
(-0.00398252 -0.000139638 0)
(-0.00387424 -0.000141322 0)
(-0.00376471 -0.000142818 0)
(-0.00365408 -0.000144124 0)
(-0.00354249 -0.000145236 0)
(-0.00343009 -0.000146153 0)
(-0.00331703 -0.000146874 0)
(-0.00320345 -0.000147396 0)
(-0.00308951 -0.00014772 0)
(-0.00297536 -0.000147843 0)
(-0.00286116 -0.000147767 0)
(-0.00274704 -0.000147492 0)
(-0.00263317 -0.000147017 0)
(-0.00251969 -0.000146344 0)
(-0.00240676 -0.000145473 0)
(-0.00229453 -0.000144406 0)
(-0.00218314 -0.000143145 0)
(-0.00207275 -0.000141691 0)
(-0.0019635 -0.000140046 0)
(-0.00185553 -0.000138211 0)
(-0.001749 -0.000136191 0)
(-0.00164403 -0.000133986 0)
(-0.00154078 -0.000131599 0)
(-0.00143938 -0.000129033 0)
(-0.00133997 -0.00012629 0)
(-0.00124269 -0.000123374 0)
(-0.00114766 -0.000120286 0)
(-0.00105502 -0.000117031 0)
(-0.000964897 -0.00011361 0)
(-0.000877418 -0.000110027 0)
(-0.000792709 -0.000106284 0)
(-0.000710891 -0.000102386 0)
(-0.000632083 -9.83354e-05 0)
(-0.000556403 -9.41356e-05 0)
(-0.000483966 -8.97906e-05 0)
(-0.000414883 -8.53044e-05 0)
(-0.00034926 -8.06815e-05 0)
(-0.000287204 -7.59269e-05 0)
(-0.000228813 -7.1046e-05 0)
(-0.000174183 -6.60452e-05 0)
(-0.000123403 -6.09315e-05 0)
(-7.65583e-05 -5.57133e-05 0)
(-3.37237e-05 -5.04002e-05 0)
(5.0324e-06 -4.50032e-05 0)
(3.9652e-05 -3.95355e-05 0)
(7.00886e-05 -3.40127e-05 0)
(9.63092e-05 -2.84529e-05 0)
(0.000118297 -2.28779e-05 0)
(0.000136054 -1.73135e-05 0)
(0.000149603 -1.17903e-05 0)
(0.000158997 -6.3453e-06 0)
(0.000164316 -1.0224e-06 0)
(0.00016568 4.12544e-06 0)
(0.000163251 9.03449e-06 0)
(0.000157243 1.36278e-05 0)
(0.000147935 1.78124e-05 0)
(0.000135674 2.14757e-05 0)
(0.000120895 2.44814e-05 0)
(0.000104134 2.66657e-05 0)
(8.60376e-05 2.78335e-05 0)
(6.73808e-05 2.77585e-05 0)
(4.90708e-05 2.61933e-05 0)
(3.2131e-05 2.29002e-05 0)
(1.76862e-05 1.7729e-05 0)
(7.05633e-06 1.08291e-05 0)
(8.4641e-07 3.23879e-06 0)
(3.86547e-07 -6.1939e-06 0)
(4.31375e-07 -6.94928e-06 0)
(-3.38061e-06 4.97932e-07 0)
(-1.30554e-05 1.30013e-05 0)
(-3.00595e-05 2.84295e-05 0)
(-5.52397e-05 4.53092e-05 0)
(-8.89953e-05 6.26332e-05 0)
(-0.000131397 7.97306e-05 0)
(-0.000182276 9.61668e-05 0)
(-0.000241296 0.000111672 0)
(-0.000308008 0.000126089 0)
(-0.000381897 0.000139343 0)
(-0.000462408 0.000151411 0)
(-0.000548975 0.000162306 0)
(-0.000641034 0.00017207 0)
(-0.000738037 0.000180758 0)
(-0.000839459 0.000188434 0)
(-0.000944801 0.000195171 0)
(-0.0010536 0.000201042 0)
(-0.00116543 0.000206119 0)
(-0.00127988 0.000210475 0)
(-0.0013966 0.000214178 0)
(-0.00151526 0.000217294 0)
(-0.00163555 0.000219883 0)
(-0.00175721 0.000222004 0)
(-0.00187999 0.000223707 0)
(-0.00200368 0.000225042 0)
(-0.00212809 0.000226052 0)
(-0.00225304 0.000226777 0)
(-0.00237839 0.000227252 0)
(-0.00250401 0.000227508 0)
(-0.00262977 0.000227573 0)
(-0.00275556 0.000227473 0)
(-0.00288132 0.000227229 0)
(-0.00300694 0.000226859 0)
(-0.00313236 0.000226378 0)
(-0.00325752 0.000225802 0)
(-0.00338237 0.00022514 0)
(-0.00350684 0.000224402 0)
(-0.00363091 0.000223595 0)
(-0.00375453 0.000222726 0)
(-0.00387765 0.000221799 0)
(-0.00400025 0.000220816 0)
(-0.00412229 0.000219779 0)
(-0.00424374 0.00021869 0)
(-0.00436456 0.000217549 0)
(-0.00448472 0.000216353 0)
(-0.00460419 0.000215103 0)
(-0.00472294 0.000213796 0)
(-0.00484092 0.000212429 0)
(-0.00495812 0.000210999 0)
(-0.00507447 0.000209503 0)
(-0.00518996 0.000207937 0)
(-0.00530453 0.000206297 0)
(-0.00541814 0.000204578 0)
(-0.00553075 0.000202777 0)
(-0.00564231 0.000200888 0)
(-0.00575276 0.000198907 0)
(-0.00586206 0.00019683 0)
(-0.00597015 0.00019465 0)
(-0.00607697 0.000192365 0)
(-0.00618246 0.000189968 0)
(-0.00628656 0.000187455 0)
(-0.00638921 0.000184822 0)
(-0.00649033 0.000182063 0)
(-0.00658985 0.000179174 0)
(-0.00668771 0.000176151 0)
(-0.00678383 0.000172988 0)
(-0.00687813 0.000169683 0)
(-0.00697054 0.000166231 0)
(-0.00706096 0.000162627 0)
(-0.00714933 0.000158869 0)
(-0.00723555 0.000154952 0)
(-0.00731953 0.000150874 0)
(-0.0074012 0.000146631 0)
(-0.00748046 0.000142222 0)
(-0.00755721 0.000137642 0)
(-0.00763137 0.000132891 0)
(-0.00770284 0.000127966 0)
(-0.00777154 0.000122865 0)
(-0.00783736 0.000117589 0)
(-0.00790021 0.000112136 0)
(-0.00796 0.000106506 0)
(-0.00801663 0.000100699 0)
(-0.00807001 9.47161e-05 0)
(-0.00812004 8.85579e-05 0)
(-0.00816664 8.22262e-05 0)
(-0.0082097 7.57231e-05 0)
(-0.00824914 6.90514e-05 0)
(-0.00828488 6.22142e-05 0)
(-0.00831682 5.52152e-05 0)
(-0.00834487 4.80587e-05 0)
(-0.00836897 4.07498e-05 0)
(-0.00838902 3.32938e-05 0)
(-0.00840496 2.56968e-05 0)
(-0.0084167 1.79654e-05 0)
(-0.00842419 1.0107e-05 0)
(-0.00842736 2.12945e-06 0)
(-0.00842615 -5.95891e-06 0)
(-0.00842049 -1.4149e-05 0)
(-0.00841035 -2.24313e-05 0)
(-0.00839568 -3.07955e-05 0)
(-0.00837644 -3.9231e-05 0)
(-0.00835259 -4.77266e-05 0)
(-0.0083241 -5.62705e-05 0)
(-0.00829097 -6.48505e-05 0)
(-0.00825317 -7.34539e-05 0)
(-0.00821069 -8.20678e-05 0)
(-0.00816354 -9.06785e-05 0)
(-0.00811172 -9.92723e-05 0)
(-0.00805525 -0.000107835 0)
(-0.00799414 -0.000116352 0)
(-0.00792843 -0.00012481 0)
(-0.00785816 -0.000133192 0)
(-0.00778337 -0.000141485 0)
(-0.00770412 -0.000149672 0)
(-0.00762045 -0.00015774 0)
(-0.00753246 -0.000165673 0)
(-0.0074402 -0.000173456 0)
(-0.00734377 -0.000181074 0)
(-0.00724326 -0.000188512 0)
(-0.00713877 -0.000195757 0)
(-0.00703041 -0.000202793 0)
(-0.00691828 -0.000209607 0)
(-0.00680253 -0.000216186 0)
(-0.00668326 -0.000222516 0)
(-0.00656063 -0.000228585 0)
(-0.00643477 -0.000234381 0)
(-0.00630583 -0.000239892 0)
(-0.00617396 -0.000245107 0)
(-0.00603934 -0.000250016 0)
(-0.00590211 -0.000254609 0)
(-0.00576246 -0.000258877 0)
(-0.00562056 -0.000262812 0)
(-0.00547659 -0.000266406 0)
(-0.00533072 -0.000269652 0)
(-0.00518316 -0.000272545 0)
(-0.00503408 -0.000275078 0)
(-0.00488368 -0.000277247 0)
(-0.00473216 -0.000279048 0)
(-0.00457972 -0.000280477 0)
(-0.00442654 -0.000281533 0)
(-0.00427284 -0.000282213 0)
(-0.0041188 -0.000282517 0)
(-0.00396464 -0.000282443 0)
(-0.00381056 -0.000281992 0)
(-0.00365675 -0.000281164 0)
(-0.00350343 -0.000279961 0)
(-0.00335078 -0.000278384 0)
(-0.00319901 -0.000276436 0)
(-0.00304832 -0.000274118 0)
(-0.0028989 -0.000271435 0)
(-0.00275096 -0.00026839 0)
(-0.00260468 -0.000264986 0)
(-0.00246026 -0.000261227 0)
(-0.00231789 -0.000257117 0)
(-0.00217776 -0.000252661 0)
(-0.00204005 -0.000247864 0)
(-0.00190495 -0.00024273 0)
(-0.00177264 -0.000237264 0)
(-0.0016433 -0.000231471 0)
(-0.0015171 -0.000225357 0)
(-0.00139423 -0.000218927 0)
(-0.00127484 -0.000212186 0)
(-0.00115912 -0.000205141 0)
(-0.00104721 -0.000197796 0)
(-0.000939295 -0.00019016 0)
(-0.000835522 -0.000182237 0)
(-0.000736048 -0.000174036 0)
(-0.000641022 -0.000165565 0)
(-0.000550591 -0.000156832 0)
(-0.000464895 -0.000147846 0)
(-0.000384068 -0.000138619 0)
(-0.00030824 -0.000129164 0)
(-0.00023753 -0.000119493 0)
(-0.000172049 -0.000109624 0)
(-0.0001119 -9.95759e-05 0)
(-5.71715e-05 -8.93702e-05 0)
(-7.93973e-06 -7.90331e-05 0)
(3.57358e-05 -6.85951e-05 0)
(7.38141e-05 -5.80921e-05 0)
(0.000106276 -4.75665e-05 0)
(0.00013313 -3.70684e-05 0)
(0.000154411 -2.66573e-05 0)
(0.000170193 -1.64036e-05 0)
(0.000180591 -6.3912e-06 0)
(0.000185767 3.28022e-06 0)
(0.00018594 1.24919e-05 0)
(0.000181397 2.11021e-05 0)
(0.000172499 2.89424e-05 0)
(0.0001597 3.5812e-05 0)
(0.00014355 4.14733e-05 0)
(0.000124717 4.56474e-05 0)
(0.000103996 4.80117e-05 0)
(8.23149e-05 4.82047e-05 0)
(6.07425e-05 4.58442e-05 0)
(4.04658e-05 4.05741e-05 0)
(2.27997e-05 3.2161e-05 0)
(9.40219e-06 2.07077e-05 0)
(1.18047e-06 7.12047e-06 0)
(-5.41437e-08 -6.09764e-06 0)
(-3.06945e-06 -3.40309e-06 0)
(-1.20117e-05 9.96914e-06 0)
(-2.87972e-05 3.00701e-05 0)
(-5.46377e-05 5.4163e-05 0)
(-9.02935e-05 8.02955e-05 0)
(-0.000136123 0.000107086 0)
(-0.000192166 0.000133581 0)
(-0.000258226 0.000159138 0)
(-0.000333929 0.000183345 0)
(-0.000418779 0.000205949 0)
(-0.0005122 0.000226816 0)
(-0.000613569 0.000245893 0)
(-0.00072224 0.000263189 0)
(-0.000837568 0.00027875 0)
(-0.000958918 0.000292651 0)
(-0.00108568 0.000304983 0)
(-0.00121726 0.000315848 0)
(-0.00135312 0.000325355 0)
(-0.00149274 0.000333613 0)
(-0.00163566 0.000340729 0)
(-0.00178141 0.000346808 0)
(-0.00192962 0.00035195 0)
(-0.00207992 0.000356249 0)
(-0.00223196 0.000359793 0)
(-0.00238547 0.000362664 0)
(-0.00254016 0.000364937 0)
(-0.0026958 0.000366681 0)
(-0.00285218 0.000367959 0)
(-0.0030091 0.000368825 0)
(-0.0031664 0.000369331 0)
(-0.00332392 0.000369521 0)
(-0.00348154 0.000369434 0)
(-0.00363914 0.000369104 0)
(-0.00379661 0.000368563 0)
(-0.00395386 0.000367835 0)
(-0.00411081 0.000366942 0)
(-0.00426738 0.000365903 0)
(-0.00442352 0.000364733 0)
(-0.00457915 0.000363444 0)
(-0.00473422 0.000362046 0)
(-0.00488868 0.000360547 0)
(-0.00504249 0.000358951 0)
(-0.0051956 0.000357263 0)
(-0.00534796 0.000355483 0)
(-0.00549952 0.000353613 0)
(-0.00565025 0.000351651 0)
(-0.0058001 0.000349595 0)
(-0.00594903 0.000347443 0)
(-0.00609698 0.000345189 0)
(-0.00624392 0.000342831 0)
(-0.00638979 0.000340361 0)
(-0.00653454 0.000337775 0)
(-0.00667812 0.000335066 0)
(-0.00682047 0.000332228 0)
(-0.00696154 0.000329254 0)
(-0.00710126 0.000326137 0)
(-0.00723957 0.000322868 0)
(-0.0073764 0.000319442 0)
(-0.00751168 0.00031585 0)
(-0.00764534 0.000312086 0)
(-0.0077773 0.00030814 0)
(-0.00790749 0.000304006 0)
(-0.00803582 0.000299677 0)
(-0.00816221 0.000295145 0)
(-0.00828657 0.000290403 0)
(-0.00840881 0.000285443 0)
(-0.00852884 0.000280259 0)
(-0.00864657 0.000274845 0)
(-0.00876189 0.000269194 0)
(-0.0088747 0.000263299 0)
(-0.0089849 0.000257156 0)
(-0.00909239 0.000250758 0)
(-0.00919706 0.000244101 0)
(-0.00929881 0.00023718 0)
(-0.00939751 0.000229991 0)
(-0.00949306 0.00022253 0)
(-0.00958534 0.000214793 0)
(-0.00967425 0.000206779 0)
(-0.00975967 0.000198485 0)
(-0.00984147 0.000189909 0)
(-0.00991955 0.000181051 0)
(-0.00999379 0.00017191 0)
(-0.0100641 0.000162487 0)
(-0.0101303 0.000152783 0)
(-0.0101923 0.0001428 0)
(-0.01025 0.000132541 0)
(-0.0103034 0.000122009 0)
(-0.0103521 0.00011121 0)
(-0.0103963 0.000100147 0)
(-0.0104357 8.88275e-05 0)
(-0.0104703 7.72584e-05 0)
(-0.0105 6.54476e-05 0)
(-0.0105246 5.3404e-05 0)
(-0.0105441 4.11374e-05 0)
(-0.0105584 2.86586e-05 0)
(-0.0105675 1.59794e-05 0)
(-0.0105711 3.11227e-06 0)
(-0.0105693 -9.92911e-06 0)
(-0.010562 -2.31303e-05 0)
(-0.0105491 -3.64758e-05 0)
(-0.0105306 -4.99494e-05 0)
(-0.0105065 -6.35341e-05 0)
(-0.0104766 -7.72118e-05 0)
(-0.0104411 -9.09637e-05 0)
(-0.0103997 -0.000104771 0)
(-0.0103526 -0.000118612 0)
(-0.0102997 -0.000132467 0)
(-0.010241 -0.000146315 0)
(-0.0101765 -0.000160133 0)
(-0.0101063 -0.000173899 0)
(-0.0100304 -0.00018759 0)
(-0.00994881 -0.000201183 0)
(-0.00986157 -0.000214654 0)
(-0.00976874 -0.00022798 0)
(-0.00967041 -0.000241137 0)
(-0.00956663 -0.0002541 0)
(-0.00945751 -0.000266847 0)
(-0.00934313 -0.000279353 0)
(-0.0092236 -0.000291595 0)
(-0.00909903 -0.000303549 0)
(-0.00896955 -0.000315193 0)
(-0.00883529 -0.000326505 0)
(-0.00869639 -0.000337461 0)
(-0.008553 -0.000348042 0)
(-0.00840527 -0.000358226 0)
(-0.00825339 -0.000367993 0)
(-0.00809751 -0.000377324 0)
(-0.00793783 -0.000386202 0)
(-0.00777453 -0.000394608 0)
(-0.00760781 -0.000402526 0)
(-0.00743786 -0.00040994 0)
(-0.00726491 -0.000416838 0)
(-0.00708915 -0.000423204 0)
(-0.00691082 -0.000429028 0)
(-0.00673013 -0.000434298 0)
(-0.00654732 -0.000439004 0)
(-0.00636261 -0.000443138 0)
(-0.00617623 -0.000446691 0)
(-0.00598844 -0.000449659 0)
(-0.00579946 -0.000452035 0)
(-0.00560955 -0.000453814 0)
(-0.00541893 -0.000454996 0)
(-0.00522787 -0.000455576 0)
(-0.0050366 -0.000455554 0)
(-0.00484538 -0.00045493 0)
(-0.00465444 -0.000453704 0)
(-0.00446404 -0.000451879 0)
(-0.00427442 -0.000449457 0)
(-0.00408582 -0.000446441 0)
(-0.0038985 -0.000442835 0)
(-0.00371268 -0.000438643 0)
(-0.00352862 -0.000433871 0)
(-0.00334655 -0.000428523 0)
(-0.0031667 -0.000422607 0)
(-0.00298932 -0.000416128 0)
(-0.00281463 -0.000409093 0)
(-0.00264286 -0.000401509 0)
(-0.00247424 -0.000393384 0)
(-0.002309 -0.000384725 0)
(-0.00214735 -0.00037554 0)
(-0.00198952 -0.000365837 0)
(-0.00183571 -0.000355624 0)
(-0.00168615 -0.00034491 0)
(-0.00154103 -0.000333705 0)
(-0.00140057 -0.000322017 0)
(-0.00126496 -0.000309857 0)
(-0.0011344 -0.000297236 0)
(-0.00100908 -0.000284165 0)
(-0.000889182 -0.000270658 0)
(-0.000774896 -0.000256728 0)
(-0.00066639 -0.000242392 0)
(-0.000563831 -0.000227667 0)
(-0.000467377 -0.000212574 0)
(-0.000377175 -0.000197137 0)
(-0.000293362 -0.000181382 0)
(-0.000216062 -0.000165341 0)
(-0.000145383 -0.000149051 0)
(-8.14156e-05 -0.000132555 0)
(-2.42315e-05 -0.000115903 0)
(2.61231e-05 -9.91537e-05 0)
(6.96288e-05 -8.23764e-05 0)
(0.000106298 -6.56529e-05 0)
(0.000136182 -4.9079e-05 0)
(0.000159373 -3.2768e-05 0)
(0.000176014 -1.68534e-05 0)
(0.000186308 -1.49262e-06 0)
(0.000190522 1.31288e-05 0)
(0.000189001 2.6792e-05 0)
(0.000182176 3.92402e-05 0)
(0.000170579 5.01719e-05 0)
(0.000154852 5.92368e-05 0)
(0.000135756 6.60309e-05 0)
(0.000114189 7.00973e-05 0)
(9.11873e-05 7.0934e-05 0)
(6.79302e-05 6.80179e-05 0)
(4.57298e-05 6.08558e-05 0)
(2.60658e-05 4.90776e-05 0)
(1.08906e-05 3.26059e-05 0)
(1.38119e-06 1.19575e-05 0)
(-5.34094e-07 -4.2431e-06 0)
(-6.98499e-06 4.5877e-06 0)
(-2.1664e-05 2.60273e-05 0)
(-4.63152e-05 5.5563e-05 0)
(-8.17707e-05 8.99785e-05 0)
(-0.000128615 0.000126917 0)
(-0.0001871 0.000164663 0)
(-0.000257191 0.000201999 0)
(-0.000338635 0.000238083 0)
(-0.000431012 0.000272352 0)
(-0.000533776 0.000304454 0)
(-0.000646302 0.000334187 0)
(-0.00076791 0.000361465 0)
(-0.000897895 0.00038628 0)
(-0.00103555 0.000408683 0)
(-0.00118016 0.000428764 0)
(-0.00133106 0.000446642 0)
(-0.00148759 0.000462449 0)
(-0.00164912 0.000476331 0)
(-0.00181509 0.000488433 0)
(-0.00198495 0.000498904 0)
(-0.00215819 0.000507887 0)
(-0.00233436 0.000515519 0)
(-0.00251303 0.000521933 0)
(-0.00269383 0.000527252 0)
(-0.0028764 0.000531591 0)
(-0.00306043 0.000535056 0)
(-0.00324564 0.000537744 0)
(-0.00343178 0.000539745 0)
(-0.00361861 0.000541137 0)