/*--------------------------------*- C++ -*----------------------------------*\
  =========                 |
  \\      /  F ield         | OpenFOAM: The Open Source CFD Toolbox
   \\    /   O peration     | Website:  https://openfoam.org
    \\  /    A nd           | Version:  6
     \\/     M anipulation  |
\*---------------------------------------------------------------------------*/
FoamFile
{
    version     2.0;
    format      ascii;
    class       volScalarField;
    location    "0";
    object      p;
}
// * * * * * * * * * * * * * * * * * * * * * * * * * * * * * * * * * * * * * //

dimensions      [0 2 -2 0 0 0 0];

internalField   nonuniform List<scalar> 
13046
(
0.643003
0.622828
0.632223
0.663282
0.641331
0.619138
0.643056
0.622732
0.642206
0.294197
0.0871164
0.561827
0.641491
0.562979
0.617222
0.381535
0.555703
0.170335
0.661108
0.642986
0.652312
0.368623
0.559334
0.158005
0.647992
0.650309
0.63649
0.618585
0.569595
0.614117
0.651634
0.592356
0.621881
0.660679
0.650141
0.643483
0.661439
0.655889
0.652573
0.627852
0.612434
0.59575
0.655406
0.668768
0.657896
0.661415
0.653301
0.651731
0.633407
0.615361
0.632035
0.563461
0.60851
0.54453
0.575417
0.525303
0.609684
0.370024
0.539967
0.56277
0.575743
0.507166
0.604162
0.572403
0.292316
0.449523
0.553991
0.386506
0.558597
0.570624
0.408628
0.561563
0.330907
0.52216
0.561385
0.660262
0.653012
0.636874
0.562943
0.487921
0.310134
0.6461
0.640173
0.632695
0.567937
0.249751
0.413567
0.423454
0.577111
0.31705
0.569706
0.362678
0.29889
0.564209
0.544596
0.465227
0.440159
0.588993
0.589386
0.578694
0.429615
0.339937
0.664784
0.652854
0.645182
0.628572
0.563245
0.591442
0.616232
0.599423
0.572627
0.135601
0.557739
-0.0949595
0.643988
0.585836
0.617982
0.538801
0.559015
0.409495
0.578592
0.452339
0.582235
0.261751
0.0383654
0.559641
0.607027
0.496453
0.605341
0.627093
0.61066
0.590946
0.571602
0.388794
0.346416
0.509778
0.3902
0.583775
0.64232
0.578361
0.613676
0.608354
0.598743
0.62219
0.60688
0.582209
0.576463
0.626881
0.584775
0.61026
0.56672
0.476811
0.599456
0.646973
0.619597
0.617373
0.537093
0.523193
0.520826
0.516792
0.601999
0.59933
0.614516
0.563391
0.615747
0.286202
0.562823
0.102737
0.188235
0.558655
-0.0500028
0.496957
0.359117
0.580266
0.62292
0.533748
0.596155
0.618397
0.619839
0.576297
0.566284
0.158325
0.311103
0.62433
0.556827
0.591667
0.643079
0.604497
0.604929
0.619452
0.603066
0.624456
0.547644
0.619071
0.613157
0.526434
0.605031
0.401919
0.572521
0.264252
0.577469
0.426963
0.360994
0.363927
0.286241
0.570688
0.544263
0.503108
0.594225
0.627709
0.496884
0.554626
0.310922
0.239589
0.350315
0.568008
0.657712
0.654373
0.647474
0.622781
0.582459
0.61106
0.576907
0.412459
0.370017
0.614374
0.559022
0.62336
0.56029
0.0168312
0.20486
0.594039
0.502208
0.532835
0.400285
0.327757
0.575449
0.560409
0.546397
0.613233
0.591944
0.508445
0.603603
0.430237
0.437094
0.573968
0.494511
0.495985
0.589609
0.561248
0.00789012
0.173131
0.626388
0.59979
0.55417
0.164175
0.554602
-0.15211
0.652231
0.657458
0.636269
0.570056
0.577741
0.543741
0.557744
0.618804
0.608348
0.554409
0.466053
0.268056
0.605536
0.528648
0.598234
0.491702
0.461748
0.587651
0.518213
0.399948
0.580954
0.659243
0.651888
0.667538
0.541698
0.522691
0.602393
0.606063
0.505404
0.595201
0.615825
0.61371
0.626735
0.587725
0.532102
0.536209
0.499752
0.598075
0.488308
0.577475
0.376846
0.636644
0.601498
0.578188
0.60009
0.505783
0.521952
0.556887
0.432953
0.574994
0.610643
0.56724
0.53783
0.534832
0.529504
0.408367
0.571632
0.393349
0.574713
0.566657
0.188404
0.337334
0.568947
0.478726
0.58653
-0.230562
0.555179
0.0441436
0.647692
0.637777
0.606424
0.591939
0.528749
0.607553
0.575525
0.434087
0.308789
0.562454
0.503878
0.60484
0.402212
0.430879
0.574749
0.593376
0.622833
0.56947
0.520535
0.603231
0.577324
0.627499
0.417327
0.558952
0.213348
0.553806
0.47765
0.596003
0.553968
0.499348
0.596519
0.602077
0.582591
0.623464
0.570322
0.572045
0.618559
0.653419
0.613217
0.63567
0.592426
0.511675
0.530869
0.383692
0.272482
0.573223
0.412287
0.428046
0.579924
0.572842
0.560762
0.45421
0.510382
0.526595
0.380888
0.344717
0.559745
0.565437
0.5565
-0.20003
0.0830249
0.194622
0.553925
-0.118271
0.556167
0.529522
0.600465
0.569963
0.384947
0.224079
0.564011
0.561492
0.447502
0.424447
0.57545
0.570276
0.564457
0.176931
0.272463
0.138892
0.552968
-0.201388
0.645191
0.663432
0.651963
0.128138
-0.144146
0.55752
0.621252
0.529251
0.588103
0.325918
0.180592
0.566844
-0.211139
0.560477
-0.048297
0.633878
0.613851
0.611868
0.644299
0.64891
0.646565
0.268728
0.557967
0.028905
0.636934
0.634236
0.642611
0.650562
0.664727
0.657942
0.598267
0.477369
0.534074
0.632231
0.644166
0.65149
0.653485
0.605445
0.63942
0.582657
0.468634
0.560929
0.559675
0.562744
0.150064
0.142566
0.346594
0.337639
0.344895
0.245531
0.570786
0.567857
0.568707
0.418632
0.61916
0.590213
0.569634
0.480116
0.48364
0.580262
-0.0840432
0.559579
0.0292451
0.568946
0.349591
0.271132
0.213599
0.559475
-0.00332495
0.562268
-0.253759
-0.0662631
-0.309594
0.560119
-0.0131829
0.474103
0.520489
0.591098
0.0762445
0.561963
0.16997
0.485763
0.381441
0.58332
0.338568
0.549182
0.0686635
0.635621
0.623513
0.61417
0.213018
0.566131
0.304442
0.489986
0.582927
0.49623
0.451823
0.490367
0.59
0.56557
-0.434889
-0.181092
-0.187856
0.55678
0.015194
0.646258
0.634461
0.614908
0.163746
0.26297
0.566558
0.563582
0.23085
0.148984
0.382469
0.56728
0.226296
0.558082
0.275031
0.453447
0.593861
0.457047
0.563281
0.390626
0.543342
0.571082
0.554878
0.426138
0.190041
0.617373
0.608453
0.541828
0.519773
0.597968
0.598846
0.619374
0.550277
0.597251
0.577165
0.434839
0.576465
0.432526
0.456485
0.583158
0.225931
0.343976
0.568649
0.580675
0.455319
0.399263
-0.297058
0.558511
0.0266644
0.649396
0.646913
0.625151
0.603697
0.631538
0.612273
0.601703
0.588393
0.58025
0.470316
0.578832
0.510538
-0.184898
0.559189
-0.0410591
0.185003
0.291397
0.567737
0.60603
0.56874
0.532531
0.455446
0.454886
0.58015
0.55865
0.296164
0.471571
-0.0893746
0.105478
0.559935
-0.0419252
0.127609
0.560295
0.56855
0.443915
0.580698
0.639693
0.596744
0.59354
0.359443
0.565236
0.178264
0.455198
0.499262
0.592249
0.575371
0.326263
0.473338
0.5938
0.583076
0.516626
0.570376
0.554605
0.610996
0.628141
0.604944
0.58321
0.564961
0.158922
0.33028
0.516101
0.386593
0.576466
0.644766
0.622298
0.615013
0.394108
0.550243
0.143869
0.623032
0.585635
0.614209
0.632951
0.599583
0.63728
0.47396
0.507368
0.592085
0.251795
0.551937
-0.0485032
0.278244
0.550266
-0.0241166
0.571883
0.312523
0.470525
0.544772
0.560236
0.602725
0.54981
-0.109439
0.207989
0.578984
0.339921
0.461822
0.561381
-0.289113
-0.112117
-0.0467591
-0.354137
0.558174
0.558734
0.215898
0.43472
0.562636
0.0777815
0.252013
0.387187
0.411908
0.561711
0.185191
0.565135
0.234127
0.448166
0.35446
0.579851
0.587933
0.471522
0.446402
0.661076
0.633484
0.617795
0.472024
0.387176
0.583983
0.585154
0.484418
0.406009
0.446021
0.554387
0.213635
0.593138
0.447154
0.575183
0.60702
0.512189
0.579671
0.52635
0.465688
0.595949
0.516268
0.452368
0.593142
0.648995
0.617861
0.630211
0.604884
0.502752
0.599838
0.565581
0.229938
0.299364
0.109093
0.560379
-0.0308573
0.0733108
0.561993
-0.0361041
0.626031
0.606424
0.572799
-0.128807
0.560419
0.0516882
0.494836
0.572973
0.341315
0.558975
-0.120623
0.01393
0.665277
0.647305
0.627958
0.602695
0.542568
0.607879
0.561418
0.550431
0.607741
0.563238
0.106169
0.209842
0.448474
0.504846
0.589728
0.551772
0.371693
0.123377
0.581983
0.523544
0.604552
0.666714
0.641582
0.623749
0.110037
0.233856
0.563451
0.575638
0.31709
0.456566
0.242363
0.209727
0.556165
0.55581
-0.0216086
-0.0623892
0.589679
0.560722
0.616746
0.493698
0.537839
0.594701
0.635365
0.61571
0.641404
0.0246367
0.151611
0.0337215
0.560908
0.1479
0.560324
0.548911
0.453893
0.594247
0.226845
0.187666
0.0839341
0.0441416
0.56388
0.563286
0.540487
0.515856
0.605734
0.611451
0.561782
0.614108
0.313573
0.551577
0.0415233
0.607464
0.541347
0.613758
0.634575
0.589192
0.630122
0.256967
0.552751
-0.0134017
0.586599
0.484756
0.59525
0.513548
0.466252
0.584754
0.597724
0.488927
0.576923
0.372725
0.569022
0.392373
0.562555
-0.388117
-0.137172
0.585075
0.536075
0.608685
0.340483
0.556856
0.10663
0.559308
0.466002
0.594978
0.0439177
0.553977
-0.270546
0.637569
0.625685
0.602875
0.611734
0.601332
0.599734
0.642149
0.610976
0.641194
0.630823
0.642188
0.609584
0.615795
0.629687
0.607674
0.598594
0.572543
0.624335
0.614951
0.574457
0.622941
0.559937
-0.00608879
0.0941361
0.625502
0.568243
0.598627
0.262009
0.10597
0.563987
0.518135
0.497399
0.440972
0.40558
0.590246
0.585239
0.621899
0.596521
0.608109
0.579433
0.470661
0.576613
0.553315
0.484102
0.599746
0.660268
0.646951
0.641789
0.493827
0.410261
0.586568
0.649466
0.623187
0.627386
0.557421
0.51305
0.604766
0.581446
0.493204
0.578165
0.65779
0.654604
0.638145
0.645929
0.641661
0.639627
0.644796
0.614147
0.64811
0.634735
0.642477
0.616437
0.622043
0.621746
0.557289
0.549867
0.606578
0.600158
0.562573
0.287045
0.466858
0.587225
0.48751
0.526445
0.564097
0.566253
0.25357
0.26635
0.440192
0.438542
0.604033
0.571449
0.515742
0.662946
0.654988
0.653221
0.486393
0.386667
0.584397
0.642229
0.615551
0.58822
0.576427
0.480381
0.57887
0.505408
0.511335
0.332453
0.567517
0.3508
0.570259
0.527286
0.433013
0.588388
0.0825939
-0.221851
0.554551
0.554878
0.485871
0.594785
0.591534
0.595746
0.561708
0.475327
0.575901
0.493998
0.474376
0.421802
0.584211
0.583245
0.491997
0.581339
0.60919
0.565147
0.508647
0.595579
0.610335
0.574468
0.594118
0.533994
0.525052
0.592693
0.580623
0.505636
0.533585
0.44924
0.592943
0.650692
0.627532
0.634692
0.296811
0.557262
0.0592394
0.605328
0.56736
0.491545
0.588343
0.574284
0.481282
0.463654
0.58144
0.585317
0.558202
0.102283
0.328654
0.319975
0.554555
0.0605261
0.291116
0.554948
0.0327325
0.492391
0.568849
0.328335
0.591921
0.51493
0.587401
0.14444
0.265461
0.488959
0.151875
0.423854
-0.0817268
0.352568
0.228655
0.0795801
0.410212
0.40596
0.044011
0.144423
0.409177
0.243378
0.144627
0.17523
0.221293
0.261582
0.363916
0.283411
0.21023
0.426991
0.546899
0.50121
0.274667
0.441002
0.0554849
0.310382
0.130147
0.0715779
0.346458
0.274955
0.265471
0.105663
0.293518
0.477678
0.423311
0.192119
0.312129
0.185708
0.557845
0.133272
0.406821
0.452521
0.201118
0.212347
0.154475
0.0525246
0.132911
0.50396
0.286655
0.148249
0.193188
0.0695762
0.497072
0.365942
0.282544
0.147379
0.396269
0.127876
0.142764
0.502305
0.250591
0.281573
0.369526
0.300998
0.539221
0.425326
0.412806
0.015728
0.0658442
0.192816
0.385779
0.0492922
0.264073
0.265204
0.0966879
0.383232
0.457103
0.221197
0.268278
0.0607598
0.127296
0.191412
0.395786
0.193413
0.168298
0.238048
0.509472
0.14489
0.396811
0.500588
0.269655
0.145475
-0.168356
0.111321
0.159978
0.144754
0.0113907
0.338368
0.431791
0.466855
0.545824
0.133557
0.148371
0.0519401
0.16073
0.114513
0.474963
0.438025
0.363334
0.101788
0.064453
0.327102
0.432163
0.22191
0.168458
0.000427716
0.212924
0.260021
0.521279
0.53488
0.389904
0.28577
0.20149
0.0478433
0.522954
0.0936346
0.382241
0.00516156
0.501163
0.0629778
0.0760272
0.124268
0.454997
0.251733
-0.0374544
0.128522
0.354928
0.137871
0.4003
0.334148
0.156143
0.450636
0.192262
0.117732
0.466719
0.133763
0.229043
0.0473053
0.296974
0.188704
0.460678
0.395341
0.211036
0.385638
0.402015
0.485025
0.269515
0.188571
0.1505
0.402701
0.0946549
0.311399
0.0605482
0.544281
0.216312
0.462994
0.520283
0.291099
0.527788
0.466814
0.482483
0.0948428
-0.00236063
0.0455271
0.488912
0.0948053
0.0732401
0.0867073
0.076838
0.225733
0.191807
0.296081
0.520728
0.392071
0.186056
0.393387
0.17501
0.552005
0.0397551
0.441508
0.157658
-0.0142296
0.507214
0.525372
0.148507
0.160857
0.543324
0.314806
0.189356
0.116933
0.386499
0.474707
0.374363
0.132328
0.148605
0.417763
0.282717
0.114945
0.337145
0.0847216
0.0841395
0.202385
0.443803
0.00839285
0.216934
0.432623
0.186499
0.00129069
0.212308
0.152471
0.19245
0.335354
0.348151
0.126481
0.0678342
0.112766
0.367605
0.366977
0.209918
0.352595
0.198942
0.0959311
0.319242
0.187038
-0.0203337
0.379154
0.465286
0.298764
0.510875
0.478907
0.55505
0.145969
-0.0459494
0.23818
0.210366
0.187033
0.0180036
0.324169
0.502178
0.382822
0.314652
0.120626
0.216047
0.395625
0.280767
0.355106
0.13554
0.240606
0.183176
0.0696468
0.124989
0.156729
0.145494
0.0983215
0.352623
0.284534
0.213355
0.361932
0.160049
0.227662
0.13359
0.212938
0.178148
0.170259
0.309083
0.0184393
-0.0550225
0.245601
0.037658
0.00394408
0.313651
0.0415132
0.00695
0.461985
0.358242
0.126643
0.389251
0.0789468
0.345549
0.340343
0.0932046
0.152762
0.430557
0.243243
0.397555
-0.0871504
0.112277
0.465926
0.176098
0.125993
-0.0799445
0.0206903
-0.0100947
0.0293352
0.188494
0.360124
0.0939294
-0.00887606
0.114529
0.1693
0.552403
0.142509
0.383174
0.319813
0.0615815
0.212912
0.122533
0.0623357
0.338298
0.200939
0.501297
0.363832
0.123208
0.193023
0.289643
0.545716
0.389159
0.478924
0.395686
0.189194
0.296858
0.225723
0.105503
0.0247431
0.162632
0.183061
0.360475
0.140106
0.0435233
0.150274
0.202659
0.144135
0.172077
0.445633
0.185111
0.162489
0.492751
0.450665
0.123683
0.289031
0.475494
0.128757
0.0330035
0.195809
0.0971102
0.0627826
0.471506
0.119071
0.218176
0.483261
0.00413604
0.29329
0.138685
0.293501
0.198525
0.15146
-0.152162
0.213745
0.045287
0.159193
0.203458
0.202006
0.38815
0.50028
0.142802
0.282423
0.204576
0.121231
-0.0265988
0.436624
0.331949
0.165195
0.0441841
0.310441
0.0431373
0.156373
0.132922
0.112959
0.42307
0.498083
0.18185
0.38155
0.541912
0.44227
0.441869
0.486266
0.184221
0.167442
0.0658877
0.544209
0.429991
0.463269
0.148165
0.189172
-0.00462705
0.394951
0.196637
0.135048
0.463582
0.348609
0.103444
0.210047
0.134113
0.148473
0.136721
0.193759
0.214307
0.0906991
0.182568
0.0274959
0.213508
0.0922949
0.34675
0.265461
0.00856701
0.477683
0.492187
0.392585
0.173438
0.30078
0.0407486
0.40817
0.282075
0.0420941
0.473268
-0.0217603
0.503769
0.034995
0.226205
0.24121
0.389986
0.412432
0.145759
0.520965
0.152836
0.447894
0.226702
0.346747
0.171276
0.135379
0.156809
0.454522
0.237299
0.539298
0.370973
0.0215045
0.145389
0.346793
0.000817452
0.177417
0.228621
0.0900817
0.507902
0.105067
0.0817249
0.417411
0.156252
0.500854
0.532852
0.198858
0.540533
0.515084
0.450639
0.468649
0.316163
0.052929
0.128167
0.205795
0.434804
0.20539
-0.019446
0.518618
0.0940781
0.221662
0.11931
0.483529
0.54948
0.107538
0.443291
0.318649
0.500017
0.216403
0.401428
0.205363
0.519897
0.536037
0.371034
0.126274
0.418491
0.180737
0.285217
0.269493
0.225779
0.321648
0.165188
-0.0156651
0.0683451
0.238163
0.341407
0.28835
0.468182
0.110579
0.193758
0.34348
0.0721129
0.490579
0.133553
0.205293
0.485344
0.456925
0.302003
0.526674
0.130366
0.189178
0.406727
0.264973
0.254952
0.223944
0.159062
0.349261
0.378236
0.160071
0.135404
0.300158
0.0200537
0.0869178
0.501043
0.540832
0.538968
0.23086
0.547678
0.546973
0.512125
-0.0294537
0.328479
0.321253
0.527846
0.186388
0.142527
0.0506451
0.124028
-0.0483955
0.516759
0.239618
0.249668
0.406119
0.371045
0.179625
0.203173
0.546735
0.52103
0.478246
0.367261
0.166584
0.380861
0.350573
0.184047
0.242159
0.0691849
0.121019
0.273893
0.252473
0.169686
0.502341
0.500918
-0.0230886
0.454124
0.146186
0.136345
0.195643
0.496993
0.215056
0.36975
0.234568
0.481572
0.193741
0.236731
0.534414
-0.00532166
0.0168691
0.130369
0.0975569
-0.0523475
-0.200986
0.110693
-0.0449468
0.261327
-0.0245323
0.0803237
0.251611
0.147054
0.112815
0.178773
0.0559272
-0.169348
0.516148
0.45194
0.200981
0.0464712
0.460368
0.173757
0.142034
0.534448
0.120387
0.53133
0.21625
0.461868
0.229403
0.051932
0.0727125
0.284144
0.286892
0.262516
0.0540271
0.200923
0.0848704
0.10006
0.158111
0.00912172
0.0616842
0.514218
0.126871
0.378266
0.413406
0.188565
0.430485
0.417157
0.0505776
-0.190148
0.226951
0.025776
-0.0455194
0.386873
0.392727
0.202585
0.344163
0.180277
0.53506
0.512844
0.226302
0.1691
0.523743
0.469462
0.335393
0.33301
0.189571
0.538853
0.274261
-0.0254718
0.485083
0.441434
0.502474
0.290636
0.129893
0.191881
0.395388
0.341463
-0.272052
0.559259
0.224021
0.126169
0.277107
0.471826
0.535005
0.539915
0.342486
0.248488
0.4221
0.472221
0.490845
0.379291
0.436842
0.0713007
0.142818
0.307492
0.066612
0.0661919
0.00869479
0.22105
0.418615
0.0267489
0.273793
0.149974
0.445216
0.539985
0.236205
0.0521818
-0.00407364
0.404034
0.163154
0.11842
0.00087226
0.497533
0.307939
0.3217
0.0352762
0.324016
0.119879
0.138924
0.39116
0.414269
0.502856
0.549803
0.111017
0.474901
-0.0223277
0.487966
0.501508
0.502032
0.423937
0.0898729
0.0902286
0.207047
-0.0264869
0.267521
0.00504523
0.316664
0.0426216
0.461059
0.189468
-0.0121625
0.456819
0.404188
0.233746
0.24406
0.37468
0.496448
0.30954
0.261576
-0.0169589
0.441885
0.287805
0.52236
-0.0464723
0.255056
0.486617
0.393617
0.526396
0.400456
0.202779
-0.0704655
-0.0150654
0.243813
0.0205854
0.51578
-0.022403
0.165837
0.231446
0.119886
0.4301
-0.0416736
0.491146
0.397316
0.325439
-0.0121221
0.349669
0.125201
0.194523
0.241804
0.232492
0.188063
0.168772
0.421669
0.0937813
0.54687
0.179835
0.248303
0.363604
0.39258
0.516158
0.189429
0.217282
0.111981
0.244508
0.164586
0.510389
0.12272
0.269209
0.187662
0.44322
0.139475
0.286973
0.0578842
0.540507
-0.0298686
0.088478
0.172027
0.449905
-0.00648337
0.00802269
0.0807479
0.0436618
0.499261
0.259444
0.376513
0.461847
0.35764
0.277571
0.542114
0.265896
0.399838
0.353089
0.284396
0.00868128
0.297413
0.241403
0.166548
0.298871
0.0979673
0.0210964
0.286985
0.196765
0.0944315
0.436282
0.248919
0.373792
0.235767
0.513645
0.228462
0.22354
0.353043
0.0400219
0.112451
0.188241
0.283628
0.308451
0.342408
0.495487
0.388617
0.432451
0.2919
0.475166
0.518145
0.515473
0.302061
0.267173
0.317625
0.056877
0.528653
0.467844
0.446332
0.262122
0.0891561
0.0111214
0.318294
0.392918
0.129272
0.444572
0.465391
0.340681
0.146565
0.287882
0.166951
0.132334
0.264423
0.152627
0.321938
0.00124577
0.325556
0.239834
0.227645
-0.0392052
0.305741
0.277788
0.369678
0.185046
0.312551
0.493654
0.507253
0.324067
0.220532
0.434196
0.286421
0.117878
0.11633
0.21892
0.0353868
0.49456
0.250307
0.300055
0.397484
0.383087
0.341695
0.0917985
0.541664
0.350295
0.12931
0.257602
0.272176
0.433668
0.487759
0.352676
0.328675
-0.00402415
0.0969081
0.228299
0.336571
0.271528
0.324721
0.150317
0.503527
0.332138
0.42835
0.473358
0.302985
0.130781
0.279649
0.527104
0.156622
-0.0125612
0.276679
0.535406
0.170038
0.219835
0.42336
0.392206
0.45126
0.258145
5.38917e-05
0.334309
0.0518602
0.177911
0.451225
0.247789
0.0635981
0.123488
0.166187
0.348627
0.181745
0.157874
0.479096
0.134627
0.543788
0.44688
0.0451572
-0.0591236
0.251635
0.401451
0.470491
0.255255
0.228569
0.127928
0.208817
0.230178
0.549422
0.486225
0.40115
0.188098
0.0117548
0.501656
0.541487
0.502378
0.434041
0.482311
0.273883
0.060052
-0.0319496
-0.0111841
0.514127
0.275473
0.114699
0.201903
0.540462
0.188941
0.146337
0.0306958
0.258925
0.110258
0.55406
0.336269
0.395094
0.482403
0.465066
0.212362
0.356738
0.27186
0.379334
0.145877
0.340956
0.149687
0.509011
0.0642147
0.171373
0.107702
0.204603
0.491754
0.198117
0.44851
0.475317
0.484337
0.0764304
0.2684
0.22845
0.137239
0.501099
0.28983
0.29339
0.33096
-0.0618875
0.206398
0.511144
0.363066
0.505045
-0.0217873
0.0888188
0.19595
0.515664
0.14194
0.23628
0.0965463
0.0901726
0.193321
0.521495
0.218459
0.234547
0.0343338
0.550386
0.529741
-0.0583769
0.510814
0.186905
0.0785984
0.0928247
0.268982
0.0286613
0.34132
0.188687
0.174779
0.210298
0.490616
0.256595
0.447796
0.214125
0.0766557
0.208499
-0.0234636
0.0105271
0.241645
0.186547
0.303413
0.0931585
0.237088
0.470283
0.333346
0.175097
0.0432142
0.4838
0.25945
0.239446
0.55118
0.301581
0.168665
0.170978
0.0996694
0.522876
0.169711
0.243094
0.347157
0.0379678
0.490217
0.0744799
0.475394
0.26352
0.415387
0.101065
0.430367
0.233868
0.049328
0.115264
0.261706
0.492021
-0.0642068
0.137689
0.180304
0.518194
0.544624
0.119685
0.158914
0.335952
0.534553
0.225266
0.498126
0.46803
0.443883
0.41512
0.31257
0.37004
0.356188
0.504203
0.238598
0.283038
0.120627
0.150793
0.236704
0.0999831
0.523527
0.0815039
0.495477
0.228607
0.515352
0.157301
0.531505
0.411692
0.479367
0.516445
0.492895
0.548632
0.213554
0.477331
0.259125
0.194321
0.139548
0.0946728
0.504952
0.083373
0.335893
0.349311
0.226981
0.335454
0.143262
0.506327
0.282728
0.423818
-0.0346391
0.123642
0.202198
0.560551
0.129758
0.36922
0.157836
0.203257
0.0610818
0.219086
0.190078
0.439556
0.50928
0.0268271
0.327901
0.196588
0.165122
0.455828
0.127856
0.148182
0.523039
-0.00975432
0.295767
0.39516
0.488528
0.535643
0.159002
0.138327
0.0422382
0.19017
0.138644
0.194321
0.41461
0.179949
0.0588075
0.232902
0.268951
0.174683
0.146987
0.178724
0.270813
0.0477885
0.428129
0.414188
0.17076
0.424649
0.0556355
0.0279412
0.125733
-0.0071504
0.524891
0.193884
0.186336
0.146922
0.464608
0.502975
0.302636
0.416711
0.150676
0.129157
0.272427
0.189259
0.134279
0.503467
0.312752
0.367148
0.52692
0.435879
0.251905
0.518157
0.0215433
0.307516
0.301182
0.345903
0.204768
0.515066
0.178414
0.338721
0.255138
0.173528
0.100719
0.146206
0.411894
0.458831
0.479807
0.278977
0.302093
0.515865
0.435711
0.242327
0.299966
0.0713125
0.210905
0.444674
0.0245537
0.472401
0.185901
0.485339
0.5478
0.507446
0.173891
0.477131
0.469333
0.0189707
0.515656
0.154504
0.512631
0.439498
0.198367
0.090744
0.313378
0.215816
0.197048
0.144936
0.444868
0.174156
0.517995
0.0845514
0.16038
0.134603
0.0827682
0.186791
0.457735
0.534305
0.0784629
0.4207
0.278746
0.339305
0.229424
0.333906
0.496927
0.444886
0.18922
0.488914
0.454668
0.532073
0.0819117
0.15793
0.144714
0.418144
0.523893
0.462373
0.243368
0.531244
0.258544
0.0293366
0.0886784
-0.0644564
0.243937
0.0584218
0.531409
0.544276
0.300591
0.551195
0.447537
0.296396
0.526398
0.0679743
0.514525
0.208732
0.502944
0.192856
0.0920874
0.41248
0.306902
0.512752
0.496334
0.500686
0.111817
0.109423
0.00406353
0.473295
0.442508
0.117438
0.271166
0.444956
-0.0206486
0.15772
0.108402
0.196249
0.334532
0.191138
0.301579
0.409562
0.284602
0.302292
0.416585
0.18925
0.208059
0.334624
0.289224
0.195514
0.478118
0.513196
0.118008
0.439377
-0.0318484
0.149474
0.486151
0.429232
0.176927
0.505533
0.0659487
0.413023
0.215922
0.216892
0.48592
0.197407
0.42469
0.412976
0.37989
0.546387
0.386778
0.0429858
0.3547
0.23981
0.426989
0.547169
0.373443
0.25611
0.133299
0.21921
0.48771
0.0762445
0.463633
0.119266
0.320937
0.436472
0.415945
0.27587
0.481365
0.529798
0.201841
0.191179
0.299974
0.10708
0.0581078
0.306382
0.413257
0.120303
0.0399291
0.131815
0.0376821
0.408102
0.253825
0.431835
0.154454
0.502477
0.284486
0.468802
0.536489
0.134794
0.494057
0.195938
0.304223
0.275063
0.476592
0.145456
0.221982
0.282318
0.0966836
0.198082
0.0892973
0.0586998
-0.0309832
0.526392
0.540029
0.11749
0.155233
0.421476
0.016756
0.126509
0.191089
0.395107
0.407183
0.0032939
-0.0345231
0.496384
0.154038
0.336818
0.150443
0.0341089
0.0899356
0.311575
0.469142
0.332887
0.0237979
0.504133
0.466783
0.119881
0.334333
0.181903
0.5363
0.20283
0.230815
0.0537462
0.375979
0.514685
0.348296
0.308105
0.138062
0.249049
0.338231
0.526724
0.553585
0.143308
0.53254
0.147697
0.316298
0.317346
0.241768
0.176747
0.475745
0.209627
0.309417
0.118665
0.134679
0.216824
0.0958316
0.380267
0.503684
0.118222
0.15646
0.307803
0.182751
0.139994
-0.0293565
0.181828
0.480254
-0.000273616
0.16682
0.403719
0.308008
0.244554
0.36928
0.457248
0.110072
0.116571
0.459437
0.232648
0.10815
0.263402
0.474416
0.370499
0.31806
0.147673
0.141199
0.136214
0.527999
0.461715
0.53615
0.237993
0.389177
0.0722326
0.274142
0.470513
0.0250841
0.0371382
0.414209
0.465741
0.0183881
0.165347
0.144158
0.100303
0.141998
0.551431
0.226717
0.159889
0.307843
0.133457
0.410455
0.32051
0.0636203
0.169233
0.435382
0.246156
0.529432
0.0539809
0.159782
0.359276
0.339565
0.242969
0.339679
0.0976803
0.534534
0.519717
0.363373
0.481174
0.125166
0.476345
0.367687
0.355391
0.518771
0.0173091
0.173924
0.54328
0.371354
0.00751197
0.167875
0.455977
0.539522
0.271738
0.42284
0.144099
0.0490866
0.115168
-0.000722443
0.470453
0.143316
0.285704
0.518402
0.129899
0.113215
0.140899
0.296651
0.158352
0.175332
0.136862
0.0791236
0.247892
0.442845
0.515121
0.396074
0.186686
0.172142
-0.00602107
0.166579
0.355684
0.332766
0.378113
0.407934
0.173406
0.258056
0.453526
0.469294
0.538483
0.48706
0.522374
0.250754
0.0638932
0.114798
0.079474
0.527996
0.297232
0.148282
0.516669
0.0722082
0.447748
0.40932
0.171919
0.150582
0.174094
0.148442
0.466486
0.216561
0.396279
0.263025
0.51206
0.328706
0.54752
0.111497
0.265075
0.157911
-0.0398309
0.187004
0.430938
0.0969926
-0.0839552
0.317012
0.512566
0.428492
0.14659
0.0541696
0.120506
0.0743819
0.153471
0.0760684
0.239588
0.087885
0.416264
0.11371
0.155638
0.507624
0.257825
0.372848
0.457559
0.229018
0.284892
0.107161
0.430781
0.210233
0.177557
0.234767
0.0968995
0.0470543
0.151175
0.145517
0.426342
0.537192
0.476084
0.320861
0.402602
0.0253328
0.533424
0.32396
0.413003
0.152294
0.405794
0.172078
0.194018
0.44628
0.512578
0.429976
0.324565
0.203574
0.542738
0.199108
0.447436
0.52501
0.384551
0.218479
0.0189082
0.44785
0.312186
0.0860836
0.369839
0.304303
0.50857
0.138616
0.519447
0.539129
0.233495
0.113907
0.522292
0.0593129
0.093151
0.194108
0.0879543
0.181997
0.0996236
0.0565736
0.260694
0.15863
0.116935
0.173478
0.331332
0.145783
0.131903
0.362522
0.286113
0.038072
0.50338
0.544155
0.524947
0.147874
0.026916
0.55303
0.047972
0.247325
0.134106
0.193294
0.151377
0.413347
0.183439
0.181656
0.0370563
0.0235081
0.0884595
0.186792
0.0136915
0.271068
0.310592
0.258009
0.513295
0.303156
0.373521
0.217381
0.462332
0.188155
0.193624
0.562152
0.194787
0.303636
0.0582061
0.386104
0.538562
0.216205
0.344524
0.30549
0.164181
0.141402
0.126157
0.0895101
0.419325
0.0992019
0.230298
0.181215
0.235068
0.122212
0.128374
0.246801
0.208251
0.164966
0.546368
0.252131
0.2176
0.319577
0.510346
0.195599
0.0273013
0.437874
0.0614565
0.21379
0.146261
0.255303
0.171981
0.208656
0.255695
0.53335
0.473642
0.035243
0.163908
0.0232117
0.135776
0.00479957
0.0949917
0.187868
0.109554
0.194518
0.359411
0.548049
0.186462
0.406548
0.280516
0.526801
0.180641
0.53841
0.350258
0.0709392
0.352526
0.417012
0.189881
0.467667
0.146492
0.481549
0.151846
-0.0639079
0.25633
0.546975
0.538094
0.419341
0.363405
0.394471
0.0336968
0.160619
0.393155
0.547826
-0.0385213
0.258398
0.148146
0.186248
0.237162
0.122107
0.0734677
0.148731
0.0923261
0.161651
0.201369
0.23519
0.545018
0.464814
0.00358954
0.440555
0.109524
0.119348
0.448519
0.149864
0.212393
0.380166
0.00149924
0.126058
0.269592
0.474558
0.078066
0.137548
0.208326
0.355383
0.0787946
0.510574
0.0227181
0.188981
0.210385
0.143319
0.36308
0.359116
0.51091
0.141536
0.425924
0.311321
0.349446
0.141392
0.361408
0.105623
0.0658512
-0.0179098
0.320744
0.253382
0.211016
0.490494
0.261248
0.31221
0.358193
0.12124
0.0965254
0.190065
0.327418
0.152703
0.546858
0.0606687
0.0231386
0.191782
0.1845
0.154658
0.141082
0.405428
0.192842
0.264185
0.0793958
0.149713
0.258664
0.0805402
0.543481
0.53702
0.0854013
0.120682
0.468725
0.28104
0.129969
0.0535574
0.129397
0.085139
0.307557
0.500197
0.131526
0.033029
0.358082
0.252114
0.0240424
0.0812333
0.249275
0.399441
0.5535
0.0696764
0.0208022
0.329037
0.470383
0.21813
0.311492
0.203261
0.146298
0.194395
0.354738
0.248012
0.148348
0.441307
0.206637
-0.0145574
0.30124
0.155551
0.447016
0.546293
0.157727
0.183267
0.185411
0.183732
0.0699166
0.195708
0.0847622
0.51664
0.4521
0.397238
0.190122
0.0406358
0.432045
0.531292
0.131006
0.295442
0.17588
-0.0315364
0.278049
0.190133
-0.0326698
0.151756
0.361524
0.0675965
0.0267239
0.0883575
0.462737
0.0535321
0.44066
0.242513
0.140666
0.20292
0.11429
0.447813
-0.00572224
0.194583
0.22494
0.0641199
0.311797
0.393359
0.325359
0.253896
0.424824
0.0814605
0.0838886
0.496623
0.142713
0.491088
0.330159
0.216761
0.309548
0.476558
0.252295
0.0205582
0.509904
0.135866
0.227324
0.477604
0.125594
0.520814
0.132903
0.209252
0.0110599
0.21093
0.0899769
0.266685
0.0939987
-0.012363
0.0814831
0.0798106
-0.0253985
0.500019
0.0795995
0.203909
0.319805
0.261502
0.533779
0.535245
0.168415
0.260701
0.452642
0.15534
0.501397
-0.011998
0.202566
0.298695
0.134877
0.457861
0.176657
0.186283
0.169578
0.133424
0.139092
-0.00939366
0.480882
-0.154192
0.520382
0.398805
0.0954158
0.0268693
0.0932724
0.55524
0.399682
0.365654
0.247299
0.315024
0.227521
0.478099
0.432792
0.117097
0.345489
0.523462
0.238616
0.291428
0.353743
0.00956163
0.0799427
0.449177
0.200799
0.234297
0.521179
0.0729061
-0.00760223
0.146235
0.232859
0.238224
0.542303
0.13165
0.0460422
0.129087
0.229929
0.136832
0.490226
0.251714
0.0978978
0.175556
0.130566
0.125114
0.18071
0.349513
0.281624
0.108296
0.488219
0.196171
0.467406
0.109207
0.0732523
0.200483
0.481551
0.527178
0.452128
0.269353
0.246431
0.44451
0.533531
0.0616784
0.502266
0.086599
0.371757
0.351043
0.488639
0.266301
0.473924
0.505963
0.155568
0.153855
0.205034
0.264778
0.087162
0.114723
0.0793541
0.413078
0.458696
0.0562661
0.509399
0.266099
0.428816
0.242553
0.0985526
0.454697
0.434505
0.179476
0.172354
0.0884906
0.53838
0.406052
0.550291
0.0576491
0.0862223
0.226345
0.464835
0.359012
0.500717
0.295496
0.538137
0.146117
0.219295
0.291796
0.162701
0.333936
0.042647
0.444508
0.25248
0.296752
0.503703
0.0466333
0.0599117
-0.00328414
0.329815
0.483031
0.168996
0.363628
0.0536888
0.0424209
0.239566
0.153055
0.133426
0.491514
0.274974
0.12085
0.220057
0.32416
0.515288
0.33167
0.210112
0.480291
0.270874
0.523508
0.279753
0.394999
0.212434
0.0532558
0.547496
0.103082
0.310672
0.318877
0.498009
0.38378
0.249429
0.154408
0.542626
0.223806
0.10385
0.418518
0.534828
0.406813
0.365102
0.0449766
-0.021414
0.296599
0.112459
0.207192
0.28258
0.108001
0.513017
0.540821
0.508174
0.16146
0.196339
0.13573
0.184184
0.384101
0.072966
0.380449
0.516452
0.0630849
0.183325
0.141667
0.456969
0.366057
0.195892
0.115728
0.404913
0.136111
0.0352058
0.0799222
0.549014
-0.00993773
0.440209
0.346278
0.144063
0.525832
0.306335
0.557741
-0.00182079
0.18671
0.299376
0.506414
0.187396
0.500566
0.307975
-0.0103043
0.251199
0.154617
0.195228
-0.0194042
0.436763
0.18571
0.11335
0.0207653
0.255651
0.49552
-0.0769001
0.17089
0.481428
0.217274
0.474599