/*--------------------------------*- C++ -*----------------------------------*\
  =========                 |
  \\      /  F ield         | OpenFOAM: The Open Source CFD Toolbox
   \\    /   O peration     | Website:  https://openfoam.org
    \\  /    A nd           | Version:  6
     \\/     M anipulation  |
\*---------------------------------------------------------------------------*/
FoamFile
{
    version     2.0;
    format      ascii;
    class       volVectorField;
    location    "0";
    object      U_rec;
}
// * * * * * * * * * * * * * * * * * * * * * * * * * * * * * * * * * * * * * //

dimensions      [0 1 -1 0 0 0 0];

internalField   nonuniform List<vector> 
13046
(
(-0.185081 0.0574041 0)
(-0.674085 -0.332592 -4.10108e-22)
(-0.193322 -0.0972861 -8.88417e-22)
(-0.239339 -0.0250569 0)
(-0.124125 -0.0355574 -1.01262e-21)
(-0.566921 -0.303817 0)
(-0.254349 -0.012758 1.82577e-22)
(-0.638436 -0.352292 1.80661e-22)
(-0.0933782 -0.0147786 -1.10726e-21)
(-0.526407 0.210214 2.45613e-22)
(-1.24986 -0.67954 0)
(0.0450948 0.10829 3.57998e-22)
(-0.244856 0.0691565 -6.53378e-22)
(-0.831805 -0.433273 -1.04928e-22)
(-0.0998481 -0.0360244 4.95393e-22)
(-0.479287 0.245678 -4.46441e-22)
(0.00873209 0.0807019 6.89494e-22)
(-1.31303 -0.622965 -1.6657e-21)
(-0.12322 0.00354596 0)
(-0.404274 -0.224556 -4.93104e-22)
(-0.371654 -0.133389 1.8793e-21)
(-0.487677 0.237448 -1.52135e-22)
(0.0199321 0.0889034 -9.39894e-22)
(-1.30327 -0.637044 0)
(-0.190689 0.00317579 7.87939e-22)
(-0.544121 -0.268487 -1.27867e-21)
(-0.196648 -0.0943916 0)
(-0.243443 0.092675 -1.14798e-21)
(-0.865572 -0.440187 5.57011e-23)
(-0.113131 -0.0470379 -8.05686e-22)
(-0.178354 0.0771923 0)
(-0.702705 -0.330399 0)
(-0.213473 -0.115353 9.04197e-22)
(-0.192305 -0.0154436 -9.15517e-22)
(-0.220418 -0.106758 3.53203e-22)
(-0.47097 -0.22592 2.21163e-21)
(-0.217278 -0.0399257 -1.3543e-21)
(-0.211444 -0.0905249 6.11155e-22)
(-0.436228 -0.210789 -1.10414e-21)
(-0.120994 0.106996 9.51101e-22)
(-0.417488 -0.275884 1.2552e-22)
(-0.630962 -0.245935 -7.4749e-22)
(-0.281231 -0.10289 5.63158e-22)
(-0.228977 -0.0853717 9.81365e-22)
(-0.321199 -0.148444 0)
(-0.298293 -0.104108 4.35024e-22)
(-0.183444 -0.0538527 -1.51724e-21)
(-0.355908 -0.17605 -1.71394e-22)
(-0.200202 0.0476622 0)
(-0.694169 -0.35432 -2.53401e-23)
(-0.15039 -0.0706089 -5.15313e-23)
(-0.645649 -0.461565 2.73525e-22)
(-0.0955432 0.137235 0)
(-0.617881 -0.182016 -6.44068e-22)
(-0.726876 -0.5231 -3.8328e-22)
(-0.583879 -0.158517 -1.22736e-21)
(-0.0790366 0.133332 1.33494e-21)
(-1.21476 -0.495415 2.79367e-22)
(-0.362311 0.239783 0)
(-0.177805 -0.0946706 3.60056e-22)
(-0.36642 0.0491063 -6.0942e-22)
(-1.00816 -0.607132 -1.96829e-22)
(0.0180862 0.0671723 -2.04159e-21)
(0.0327779 0.0794841 7.58378e-22)
(-1.26437 -0.68521 7.80646e-22)
(-0.468427 0.176576 -7.06294e-22)
(-0.339315 0.239481 0)
(-1.16739 -0.455056 0)
(-0.23327 -0.149846 0)
(-0.316349 0.228138 -4.0236e-22)
(-1.1217 -0.436816 0)
(-0.254254 -0.169035 2.25586e-22)
(-1.25495 -0.506812 0)
(-0.384989 0.250916 1.54402e-23)
(-0.158082 -0.0808979 -3.74821e-23)
(-0.11254 0.0209245 0)
(-0.402593 -0.233618 5.5229e-22)
(-0.414644 -0.162428 -1.24278e-21)
(-0.0914681 -0.0164677 3.64183e-22)
(-0.415945 0.250728 -1.08236e-21)
(-1.2921 -0.550168 0)
(-0.2045 0.00472163 4.26146e-22)
(-0.579436 -0.293347 0)
(-0.162109 -0.0661764 0)
(0.0354993 0.0864435 -6.28529e-22)
(-1.27795 -0.687814 8.02955e-22)
(-0.486341 0.189035 4.04629e-22)
(-0.495719 0.115585 -6.64099e-22)
(0.0513999 0.0938419 0)
(-1.22314 -0.754606 5.19593e-22)
(0.0278703 0.100558 0)
(-0.556793 0.059472 0)
(-1.19144 -0.829892 -8.84258e-23)
(-0.350535 0.137197 0)
(-0.376885 0.139435 4.86609e-22)
(-1.10878 -0.580828 -8.32232e-22)
(-1.14508 -0.614186 4.11188e-22)
(-0.0301282 0.0185655 -3.38247e-22)
(-0.00554599 0.0400725 8.57743e-22)
(0.049148 0.0949027 -4.94494e-23)
(-0.49578 0.0961934 6.4728e-22)
(-1.20395 -0.766737 0)
(-0.287446 -0.0867679 5.24644e-25)
(-0.158162 -0.042552 7.70949e-22)
(-0.412454 -0.215077 0)
(-0.0387954 0.101747 0)
(-0.473197 -0.106649 -4.60214e-22)
(-0.709406 -0.473878 0)
(-0.0890544 0.119519 1.59575e-21)
(-0.573013 -0.391859 0)
(-0.584868 -0.191991 -1.73151e-21)
(-0.514748 0.219184 0)
(0.0373805 0.116581 0)
(-1.08507 -0.608081 2.87309e-21)
(-0.22602 0.0545369 1.79045e-21)
(-0.77477 -0.397143 1.96743e-22)
(-0.11226 -0.0412176 8.09292e-22)
(-0.380915 0.179741 6.38441e-22)
(-0.353276 0.160538 -1.21007e-21)
(-1.18905 -0.587535 7.97141e-22)
(-0.0437891 0.013045 3.30151e-22)
(-1.13555 -0.567358 -6.92102e-22)
(-0.0510478 0.00397493 -3.08464e-22)
(-0.52451 0.219507 -6.37952e-23)
(-1.23027 -0.662093 2.92678e-21)
(0.0433936 0.112185 -1.47464e-22)
(-0.297659 0.120815 0)
(-1.00141 -0.517321 2.54034e-22)
(-0.0721053 -0.0195518 8.97762e-22)
(-0.141398 0.110768 0)
(-0.36358 -0.236835 -6.62806e-22)
(-0.679962 -0.28034 2.71585e-23)
(0.0247435 0.102043 0)
(-0.537161 0.044692 0)
(-1.17697 -0.817232 0)
(-0.426962 0.135905 0)
(-1.19665 -0.674926 1.88997e-21)
(0.0298481 0.0697205 -9.4324e-22)
(-0.1967 0.0901806 0)
(-0.764121 -0.366821 0)
(-0.196391 -0.110816 0)
(-0.324571 -0.0147252 0)
(-0.783875 -0.470094 0)
(-0.0222204 0.0459661 0)
(-0.0788407 0.121989 0)
(-0.630087 -0.434156 0)
(-0.570423 -0.171468 9.95534e-22)
(-0.0411825 0.0921881 -1.44061e-22)
(-0.457098 -0.110702 -1.20896e-21)
(-0.69277 -0.451379 6.40073e-22)
(-0.377235 0.06568 1.27121e-21)
(-1.0504 -0.629631 0)
(0.0232338 0.0645228 2.63822e-21)
(-0.0484107 0.0519342 0)
(-0.372706 -0.0854927 1.26393e-21)
(-0.626942 -0.385177 -1.47237e-22)
(-0.865388 -0.610309 0)
(-0.508213 -0.0882394 1.02975e-21)
(-0.932154 -0.648191 0)
(-0.481073 -0.055255 6.20074e-22)
(-0.0349102 0.119509 0)
(-0.0148989 0.112338 0)
(-0.380901 -0.0530752 1.83494e-22)
(-0.767861 -0.489496 1.3041e-22)
(-0.0151397 0.070515 -6.15176e-22)
(-0.537768 0.196671 -2.29246e-22)
(0.0484262 0.107266 0)
(-1.23524 -0.698451 2.77706e-21)
(-0.520281 0.222463 4.86937e-24)
(0.0404233 0.11771 -6.48702e-23)
(-1.14859 -0.628645 0)
(-0.435462 0.151004 -6.56521e-22)
(-1.21723 -0.67494 0)
(0.0280781 0.0693149 1.06669e-21)
(-0.182885 0.152513 0)
(-0.806577 -0.319364 8.43727e-23)
(-0.380889 -0.262404 3.15752e-22)
(-0.396816 -0.069453 1.08122e-21)
(-0.0249755 0.0752699 3.16011e-22)
(-0.71971 -0.452912 0)
(0.0523495 0.102679 0)
(-1.23865 -0.74369 0)
(-0.545497 0.16496 1.4255e-22)
(-0.158736 0.139418 0)
(-0.748446 -0.291353 -3.2561e-22)
(-0.398154 -0.264378 8.54769e-23)
(-0.039048 0.0643672 0)
(-0.390527 -0.0867156 0)
(-0.639572 -0.402207 0)
(-0.311708 -0.0269991 5.73489e-22)
(-0.733513 -0.438592 0)
(-0.0334492 0.0366766 0)
(-0.898341 -0.486076 2.11046e-23)
(-0.0560831 -0.00269468 -6.03304e-22)
(-0.279868 0.105196 1.81374e-21)
(-0.95729 -0.493793 0)
(-0.0771912 -0.0203032 -1.12516e-21)
(-0.504463 0.154494 -6.84986e-22)
(0.0505625 0.0941851 6.36405e-22)
(-1.25607 -0.732284 3.43313e-21)
(0.0375306 0.0996223 7.3247e-22)
(-0.505822 0.0598322 4.07025e-22)
(-1.17742 -0.788656 -2.22883e-21)
(-0.538173 0.0935003 -8.26357e-22)
(-1.21462 -0.795325 0)
(0.0455247 0.0980558 -7.00145e-22)
(-0.67666 -0.503995 -1.00271e-23)
(-0.706156 -0.203959 2.52499e-22)
(-0.130982 0.16518 0)
(-0.264469 0.0205786 -2.65411e-21)
(-0.409267 0.260195 5.83568e-22)
(-0.113832 -0.0346018 -2.0347e-22)
(-1.29447 -0.540195 0)
(-1.21923 -0.793163 0)
(-0.551043 0.111096 -6.68075e-22)
(0.048362 0.0981937 0)
(-0.247864 -0.0547667 -2.05329e-21)
(-0.165697 -0.0565599 -6.0026e-22)
(-0.456158 -0.234233 1.54676e-21)
(-0.228285 0.10322 0)
(-0.848567 -0.417693 -1.10288e-23)
(-0.15193 -0.0735375 -3.93183e-22)
(0.0294481 0.101907 6.12007e-22)
(-0.517379 0.0463351 0)
(-1.16765 -0.801363 2.56812e-21)
(-0.27884 0.0349472 2.13059e-21)
(-0.876566 -0.485278 1.25034e-22)
(-0.0459256 0.00715824 0)
(0.0457425 0.11087 0)
(-1.16748 -0.678497 -3.28174e-21)
(-0.548699 0.199913 0)
(-0.110738 0.155659 0)
(-0.658298 -0.178905 0)
(-0.727842 -0.547837 0)
(-0.514488 0.0838159 7.25677e-22)
(-1.20523 -0.782579 0)
(0.0457578 0.0972471 -2.60651e-23)
(-0.426185 -0.0521375 4.2345e-22)
(-0.850738 -0.568306 6.45435e-24)
(-0.00690893 0.0938798 0)
(-0.295125 0.136101 0)
(-1.01254 -0.507403 -2.26003e-22)
(-0.0936073 -0.0335637 6.771e-22)
(-1.09292 -0.791262 1.87363e-21)
(-0.532251 -0.0180867 -6.63141e-22)
(-0.00800794 0.116213 5.057e-22)
(-0.49916 -0.0497195 0)
(-0.980941 -0.691955 3.85763e-22)
(-0.0163217 0.116143 -1.94211e-23)
(0.0432699 0.108267 -5.41412e-22)
(-1.13844 -0.679035 0)
(-0.556871 0.191362 2.21209e-22)
(-0.125219 0.136903 8.70955e-22)
(-0.511197 -0.352074 -3.41197e-22)
(-0.675135 -0.240605 4.54037e-23)
(-0.468401 0.241747 -8.91477e-23)
(0.0347876 0.122919 -5.36642e-22)
(-1.07166 -0.536206 0)
(-0.11699 -0.00651128 -3.69164e-22)
(-0.328855 -0.104346 -1.55529e-21)
(-0.445805 -0.247432 1.46611e-21)
(-0.376931 -0.00935079 6.14916e-22)
(-0.39876 -0.0409407 4.11018e-23)
(-0.898678 -0.571467 -4.59226e-23)
(-0.839055 -0.547462 0)
(-0.00399661 0.0831845 5.59103e-22)
(0.00810924 0.0759661 -5.48176e-22)
(-0.0645055 0.0102849 -4.76324e-22)
(-0.432458 0.253965 5.85481e-22)
(-1.31541 -0.563802 3.41974e-21)
(-0.271823 0.138147 0)
(-0.972689 -0.471102 0)
(-0.134881 -0.0631327 -8.79563e-22)
(-0.495224 -0.0252688 -1.88361e-22)
(-1.0319 -0.730551 0)
(-0.00377637 0.112705 0)
(-0.404785 0.161271 -5.96625e-22)
(-1.19763 -0.629306 0)
(-0.00111295 0.0454815 3.35165e-22)
(-0.24533 -0.0801927 3.98292e-22)
(-0.330466 -0.142977 5.11628e-22)
(-0.255343 -0.106955 -2.04131e-22)
(-0.443058 -0.0348698 -7.73977e-22)
(-0.931405 -0.629758 0)
(0.000284181 0.101238 -9.13556e-22)
(-0.277443 0.152501 0)
(-0.997169 -0.469265 -2.78751e-22)
(-0.149052 -0.0763283 -4.39692e-22)
(-0.27307 0.0594585 0)
(-0.292568 0.0707519 2.16793e-22)
(-0.132996 0.145865 3.12083e-22)
(-0.526804 -0.370757 9.03535e-22)
(-0.69662 -0.240601 -9.98071e-22)
(-0.432153 -0.010051 -8.43806e-22)
(-0.979443 -0.658297 -3.97377e-22)
(0.0138284 0.0963928 8.35929e-22)
(-0.424585 0.163835 0)
(0.0136998 0.0591289 -1.25059e-21)
(-1.22363 -0.65237 1.26883e-21)
(-0.0890632 0.108268 -2.22287e-21)
(-0.539068 -0.366892 0)
(-0.566981 -0.193324 5.21256e-22)
(-0.0496562 0.129355 -1.15746e-21)
(-0.542048 -0.0999304 -4.9522e-22)
(-0.866779 -0.629556 0)
(-0.345007 0.18846 -6.22456e-22)
(-1.14635 -0.528981 5.9002e-22)
(-0.10734 -0.0386897 1.69509e-22)
(-0.115821 0.147051 1.11725e-22)
(-0.610485 -0.436544 0)
(-0.665427 -0.20778 8.94416e-22)
(-0.367961 0.200633 0)
(-0.383531 0.197696 0)
(-1.19186 -0.550483 5.8053e-22)
(-0.0905105 -0.0229349 -4.93714e-22)
(-1.2093 -0.577173 -8.24814e-22)
(-0.0613084 0.00261545 4.89944e-22)
(0.0518045 0.101185 -4.60381e-22)
(-1.25132 -0.73295 0)
(-0.531406 0.172359 -3.86767e-22)
(-0.328928 0.157082 7.21411e-22)
(-1.09225 -0.539497 0)
(-0.0786656 -0.018539 2.20307e-22)
(-0.918293 -0.520983 -9.87797e-21)
(0.0261142 0.10989 5.33145e-22)
(-0.458141 0.21291 -1.01302e-21)
(-0.377354 -0.109008 -7.78045e-22)
(-0.0686885 0.039906 0)
(-0.541972 -0.324222 0)
(-0.338741 0.0412026 1.39314e-21)
(-0.955822 -0.565473 0)
(0.00667131 0.0544662 1.64633e-21)
(0.0455392 0.0870334 -4.14491e-22)
(-0.479573 0.149755 1.45664e-21)
(-1.24567 -0.714963 -2.16033e-21)
(-0.754118 -0.550117 0)
(-0.596662 -0.151384 4.00313e-22)
(-0.0811963 0.140512 -1.51342e-21)
(-1.12055 -0.799468 3.10838e-21)
(-0.522548 0.00577838 -3.81292e-22)
(0.00731611 0.109202 0)
(-0.791902 -0.437142 -6.78122e-22)
(-0.0619337 0.000693491 0)
(-0.334763 0.0857049 1.41862e-21)
(-1.01118 -0.569364 -1.92108e-22)
(-0.00874595 0.0325729 4.64159e-22)
(-0.779444 -0.447676 2.89249e-22)
(-0.0458674 0.0142469 3.52005e-26)
(-0.468017 0.238189 -3.46604e-23)
(-0.0022693 0.0671046 3.38653e-22)
(-1.31272 -0.618501 2.44611e-21)
(-0.657019 -0.508159 0)
(-0.760885 -0.226811 4.68242e-23)
(-0.155631 0.178311 0)
(-0.35555 0.0974361 -1.44399e-21)
(-1.06727 -0.597135 2.34577e-22)
(0.00407613 0.0444472 -5.1337e-22)
(-0.347411 -0.0253856 0)
(-0.788358 -0.490026 -1.89341e-22)
(-0.0136148 0.0590898 0)
(-0.519015 -0.136644 0)
(-0.681786 -0.473301 0)
(-0.057716 0.112465 0)
(-0.207155 0.024963 -5.89893e-22)
(-0.645857 -0.334842 -5.43252e-22)
(-0.145204 -0.0611393 -1.30828e-23)
(-0.0670396 0.137773 1.4282e-21)
(-0.576051 -0.125078 1.19162e-21)
(-0.823788 -0.601011 -1.72225e-22)
(-0.517047 0.133426 -3.9777e-22)
(-1.23872 -0.752352 -2.9753e-21)
(0.0529936 0.0963645 -6.6343e-22)
(-1.13066 -0.785407 -1.99986e-21)
(-0.505743 0.0201665 3.86772e-22)
(0.0190128 0.105363 6.48561e-22)
(-0.271577 0.213645 -1.19325e-21)
(-0.340122 -0.238528 2.53443e-22)
(-1.0307 -0.384728 5.14189e-22)
(-0.400347 0.230987 3.25442e-22)
(-0.381022 0.220919 -3.15979e-22)
(-1.22647 -0.541555 1.88089e-22)
(-1.25938 -0.554952 0)
(-0.0895771 -0.0161584 -1.28867e-22)
(-0.10733 -0.0349822 -1.50109e-22)
(0.0303826 0.115088 -7.1736e-22)
(-0.966967 -0.526295 1.0879e-20)
(-0.465237 0.219408 2.157e-24)
(-0.475359 0.245767 -5.72876e-25)
(0.0355275 0.123387 7.48977e-22)
(-1.12058 -0.549675 0)
(-0.391524 0.00440344 -2.13598e-21)
(-0.958658 -0.606489 6.48975e-23)
(0.0145524 0.0804196 0)
(0.0502618 0.0967013 -1.21393e-21)
(-0.513066 0.167107 3.84554e-22)
(-1.26339 -0.726703 0)
(-0.314106 0.207246 1.79198e-21)
(-0.334103 0.209749 -1.31989e-21)
(-1.10516 -0.465699 -4.89398e-22)
(-1.14229 -0.49042 -2.39575e-22)
(-0.208092 -0.122994 -2.78076e-22)
(-0.168618 -0.088199 -1.46752e-22)
(0.042794 0.0958051 0)
(-1.19037 -0.791962 0)
(-0.583599 0.114202 6.27842e-23)
(-0.438853 0.240431 1.04824e-22)
(0.0332015 0.122237 0)
(-1.01322 -0.494164 0)
(-0.383637 -0.156986 4.09498e-23)
(-0.157472 -0.0142672 8.85977e-22)
(-0.324921 -0.173077 3.45008e-22)
(-0.486609 0.226255 4.3138e-22)
(-1.0533 -0.568529 -4.20211e-21)
(0.0349315 0.118873 3.76396e-23)
(-0.211102 0.155147 0)
(-0.867008 -0.361438 -1.35022e-22)
(-0.308036 -0.203465 -6.43054e-23)
(-0.549555 0.153215 3.97223e-23)
(-1.23522 -0.756422 -5.36985e-21)
(0.0528785 0.101367 -5.06197e-25)
(-0.804265 -0.508043 -2.8145e-22)
(0.0163487 0.0936636 -3.63204e-22)
(-0.451777 0.171324 5.92509e-22)
(-0.103507 0.0907428 -8.01243e-22)
(-0.432616 -0.276398 4.23626e-22)
(-0.568037 -0.215855 1.854e-21)
(-0.31264 -0.082699 0)
(-0.516188 -0.289379 -1.62203e-21)
(-0.0984921 0.0012398 9.61534e-22)
(-0.513101 0.232053 0)
(0.0402634 0.112892 4.27336e-22)
(-1.23628 -0.647739 -9.93806e-23)
(-0.326375 -0.0780606 0)
(-0.549571 -0.314304 -4.25622e-22)
(-0.077238 0.020568 -1.38019e-21)
(-0.353198 -0.143088 7.89065e-22)
(-0.179619 -0.0357877 -4.74769e-22)
(-0.313723 -0.157836 1.9884e-22)
(-0.106573 0.158466 7.24283e-22)
(-0.654852 -0.164133 -3.49904e-22)
(-0.794444 -0.606635 -1.57808e-22)
(-0.420324 -0.148753 0)
(-0.442787 -0.257957 0)
(-0.0930828 0.0384064 1.28673e-22)
(-0.412251 -0.127485 1.23072e-21)
(-0.506972 -0.299109 3.49791e-22)
(-0.0782201 0.0476761 1.76346e-23)
(-0.250421 0.206117 1.82943e-21)
(-0.975921 -0.357564 1.00317e-22)
(-0.388629 -0.284346 -2.98272e-22)
(0.0358489 0.099031 6.39327e-22)
(0.0414469 0.101584 -7.42267e-22)
(-1.28424 -0.671647 -1.97339e-21)
(-1.27391 -0.683168 -1.26172e-21)
(-0.504632 0.221254 0)
(-0.513557 0.210887 -2.51443e-22)
(-0.533872 0.137331 5.02923e-22)
(-1.23828 -0.76046 3.08957e-21)
(0.053118 0.0983599 8.30889e-22)
(-0.323395 -0.233066 -2.17076e-22)
(-0.294946 0.228728 3.88067e-22)
(-1.07909 -0.400081 -6.55969e-22)
(-0.135883 0.13216 -7.95174e-22)
(-0.45222 -0.306579 -3.34184e-22)
(-0.693661 -0.26073 4.85539e-22)
(-0.540849 -0.0738156 0)
(-0.968396 -0.707506 -3.9919e-22)
(-0.0393029 0.127337 2.00617e-23)
(-0.941069 -0.614167 -3.49443e-21)
(0.0265515 0.0945369 -3.90387e-22)
(-0.542198 0.163703 3.60145e-22)
(0.0358768 0.0986449 0)
(-0.557804 0.0778554 0)
(-1.19872 -0.822368 -1.89178e-21)
(-0.5329 0.213992 6.67334e-23)
(0.0438703 0.114131 0)
(-1.179 -0.658635 3.22048e-21)
(0.012933 0.089771 -1.30539e-33)
(-0.739518 -0.462501 5.06696e-21)
(-0.411069 0.165764 -6.09399e-22)
(-0.757263 -0.412643 -5.71159e-21)
(0.0184518 0.0974864 1.30241e-33)
(-0.38475 0.194945 5.3203e-22)
(-1.07365 -0.682645 8.70507e-22)
(-0.422872 0.0416752 0)
(0.0314195 0.0871197 -1.5632e-21)
(-1.11722 -0.737823 1.5867e-21)
(0.0384423 0.0940469 -4.38937e-22)
(-0.597093 0.139133 0)
(-0.442871 0.127473 -8.32122e-22)
(-1.19971 -0.696287 -1.22879e-21)
(0.0385366 0.0777206 6.82313e-22)
(-0.477559 0.264556 7.97916e-22)
(0.0112219 0.0939681 1.69135e-22)
(-1.2992 -0.582554 0)
(-0.242272 0.0297531 4.66025e-22)
(-0.086222 -0.017998 -2.99118e-22)
(-0.759631 -0.40818 2.09838e-22)
(-1.19908 -0.806052 -1.06238e-21)
(0.0417805 0.0962929 4.96927e-22)
(-0.577225 0.103155 1.58032e-22)
(-0.55799 -0.0913531 -4.75801e-22)
(-0.0513468 0.13295 -3.76605e-22)
(-0.927777 -0.679128 0)
(-1.05062 -0.729364 0)
(-0.477479 -0.00438308 0)
(0.0103752 0.106713 0)
(0.00411542 0.0528573 0)
(-0.409705 -0.224198 5.29842e-21)
(-0.227319 0.101973 -7.27169e-22)
(-0.920374 -0.547683 -4.31894e-21)
(0.0250624 0.106285 -4.2592e-22)
(-0.478474 0.200259 3.00516e-22)
(-0.233866 0.0154449 -1.22703e-21)
(-0.10388 -0.0294465 8.10357e-22)
(-0.688851 -0.371981 2.69199e-22)
(-1.20372 -0.766136 -5.65646e-21)
(-0.572196 0.139361 -3.78145e-23)
(0.0483741 0.0989583 0)
(0.0394312 0.0937717 -5.09324e-22)
(-0.597081 0.11616 0)
(-1.1631 -0.786621 4.0983e-21)
(-0.502042 0.184838 -3.58331e-22)
(0.0432996 0.0942581 1.18457e-21)
(-1.27522 -0.702882 0)
(-0.0323769 0.0380465 -6.05053e-22)
(-1.30448 -0.597677 -1.81328e-21)
(-0.442573 0.237122 0)
(-0.24257 0.212476 -2.34401e-21)
(-0.959721 -0.339919 -1.27943e-22)
(-0.445028 -0.334586 -8.46602e-23)
(-1.19941 -0.514818 -2.97331e-22)
(-0.362272 0.225607 7.69773e-22)
(-0.150883 -0.0728299 -3.84406e-22)
(-0.0274185 0.0480166 -5.10448e-22)
(-0.456156 0.259011 0)
(-1.3299 -0.583875 0)
(-0.225739 0.14021 -4.13461e-22)
(-0.253606 0.153081 0)
(-0.887033 -0.398011 -1.03011e-22)
(-0.955095 -0.432555 1.10792e-22)
(-0.226522 -0.131627 1.02421e-22)
(-0.199332 -0.114846 -1.09127e-22)
(-0.206273 0.141761 3.97058e-22)
(-0.849478 -0.366958 0)
(-0.276254 -0.172894 1.50507e-22)
(-0.309325 0.216477 0)
(-1.10084 -0.449871 7.7971e-22)
(-0.239532 -0.15221 1.01704e-22)
(-1.10519 -0.761154 8.70553e-22)
(-0.488898 0.0144082 4.93025e-22)
(0.0197022 0.10379 -1.29349e-21)
(-1.22591 -0.784675 0)
(-0.544636 0.125445 7.48781e-22)
(0.0510677 0.098596 0)
(0.0363671 0.0976581 -3.91769e-22)
(-0.482594 0.0508417 -2.78492e-22)
(-1.1524 -0.763906 6.40663e-22)
(-0.820351 -0.431012 8.27581e-22)
(0.0226942 0.105615 1.95413e-22)
(-0.403776 0.208614 0)
(-0.138714 0.086124 7.90197e-22)
(-0.149422 0.0738623 0)
(-0.319498 -0.192384 0)
(-0.636801 -0.272793 1.75081e-21)
(-0.282451 -0.16409 0)
(-0.636074 -0.287201 -1.18314e-21)
(-0.26669 0.196257 0)
(-0.237534 0.182868 0)
(-0.323687 -0.220005 3.53984e-23)
(-1.00794 -0.407187 -5.28288e-23)
(-0.287702 -0.186545 6.72893e-22)
(-0.942376 -0.375961 -1.30136e-22)
(-0.799784 -0.530968 0)
(0.0162414 0.0891771 5.43861e-22)
(-0.477155 0.160271 0)
(-1.21535 -0.763569 2.9677e-21)
(-0.56204 0.13881 4.92207e-23)
(0.0503487 0.0999239 2.80788e-22)
(-0.158284 0.158098 -1.32411e-21)
(-0.503311 -0.360984 -2.36346e-22)
(-0.755203 -0.26937 9.71085e-22)
(-1.05313 -0.760967 -1.54449e-21)
(-0.523973 -0.0335405 1.129e-21)
(-0.0138515 0.118449 0)
(-0.0494551 0.0210455 6.46668e-22)
(-1.29519 -0.585509 1.92857e-21)
(-0.431509 0.237476 7.59923e-22)
(-1.05057 -0.621777 0)
(-0.531364 0.201276 0)
(0.0350359 0.110438 0)
(-1.08428 -0.655534 0)
(-0.550028 0.191069 -5.99325e-23)
(0.0387477 0.107092 8.85274e-23)
(-0.330136 0.194891 -7.70964e-22)
(-1.1244 -0.505143 -3.69321e-22)
(-0.144431 -0.068839 2.16906e-22)
(-0.0761989 0.098253 -2.15709e-22)
(-0.550355 -0.361552 0)
(-0.526329 -0.170065 -1.36982e-23)
(-0.51373 0.195212 4.17525e-22)
(0.0440862 0.0991355 6.65605e-22)
(-1.27735 -0.698635 1.46634e-21)
(-1.09308 -0.711364 0)
(-0.443728 0.0421203 0)
(0.033077 0.0938191 1.35962e-21)
(0.0164022 0.0656123 2.4729e-22)
(-1.25399 -0.661068 -2.33296e-21)
(-0.445772 0.182473 1.67814e-21)
(-0.222346 0.180899 0)
(-0.36761 -0.25699 -5.09323e-22)
(-0.906722 -0.353954 1.88988e-22)
(-0.455989 -0.0804999 -2.54115e-23)
(-0.797659 -0.535744 -9.63598e-24)
(-0.0234048 0.101058 0)
(-0.116408 0.115016 1.52051e-23)
(-0.460455 -0.309894 -1.37097e-22)
(-0.631291 -0.237618 -6.35627e-22)
(0.049112 0.103093 2.50229e-23)
(-1.25767 -0.714836 -3.73629e-21)
(-0.529838 0.187492 3.08309e-22)
(-0.404293 0.180891 -3.3314e-22)
(-1.21734 -0.615566 4.67855e-22)
(-0.0191927 0.0346251 0)
(-0.112524 0.079407 -8.57053e-22)
(-0.387792 -0.23908 9.55116e-22)
(-0.567738 -0.226972 -1.22664e-21)
(-0.46487 0.265418 3.85501e-22)
(-0.0146732 0.0640964 1.92066e-22)
(-1.33042 -0.580847 2.34183e-21)
(-0.190904 0.106918 -5.07252e-22)
(-0.778561 -0.359804 0)
(-0.229857 -0.136291 0)
(-0.332992 -0.0510354 -1.97415e-21)
(-0.665844 -0.39835 2.03183e-22)
(-0.0424973 0.0407466 0)
(-1.03789 -0.698526 0)
(-0.453078 0.0016092 1.20531e-21)
(0.017896 0.10101 0)
(-0.481688 0.254267 -8.41169e-23)
(0.031691 0.118143 -7.11137e-23)
(-1.21041 -0.573612 -4.34699e-21)
(-0.476587 0.261249 2.56885e-22)
(0.0262738 0.113576 0)
(-1.23827 -0.56751 3.49235e-21)
(0.00630465 0.0603386 1.96016e-22)
(-1.26803 -0.647596 1.72555e-21)
(-0.445572 0.196261 -1.56034e-21)
(-0.495814 -0.102119 -4.83942e-22)
(-0.816178 -0.567417 -8.30551e-23)
(-0.0377474 0.113139 0)
(0.032942 0.123295 6.52059e-23)
(-1.14758 -0.541677 4.05732e-21)
(-0.464853 0.252827 0)
(0.0453442 0.0853713 0)
(-1.22375 -0.717276 1.57091e-21)
(-0.467361 0.132678 -1.80287e-22)
(0.00649159 0.0759491 3.97022e-22)
(-0.616565 -0.411737 -5.20223e-21)
(-0.366076 0.135614 0)
(-0.322572 0.179426 4.46723e-22)
(-0.654435 -0.332153 0)
(0.0160827 0.0873714 3.66152e-22)
(-0.0213618 0.0518148 -2.21883e-23)
(-1.3198 -0.600724 0)
(-0.456531 0.24792 0)
(0.0487535 0.108033 0)
(-1.21305 -0.705455 0)
(-0.549225 0.189883 1.81031e-22)
(-0.491792 0.219563 -4.33662e-22)
(-0.480403 0.209253 3.50669e-22)
(0.0271395 0.0885631 -3.25082e-22)
(-1.3006 -0.66052 5.9123e-22)
(0.0251118 0.0820962 -5.62347e-22)
(-1.29386 -0.665325 -8.35765e-22)
(-0.471784 0.117165 3.58564e-22)
(-1.21238 -0.731331 -9.19159e-22)
(0.048092 0.0884377 0)
(-0.0370817 0.128485 0)
(-1.00894 -0.747479 0)
(-0.550833 -0.0625011 0)
(-0.16239 0.0419596 0)
(-0.238819 -0.127686 -1.65975e-21)
(-0.58892 -0.278051 6.46121e-22)
(-0.465566 0.0778651 1.04552e-21)
(-1.16609 -0.741608 -2.43128e-22)
(0.0448953 0.091819 1.10315e-21)
(0.0396652 0.0943616 7.46981e-22)
(-0.464608 0.0604239 -1.45332e-21)
(-1.14245 -0.742452 3.36982e-22)
(-0.443152 0.264944 5.49356e-22)
(-0.0528847 0.023462 2.31724e-22)
(-1.33187 -0.56373 -3.57164e-21)
(-0.279212 0.206543 0)
(-1.03877 -0.412702 -2.25383e-22)
(-0.289119 -0.19267 -6.59537e-22)
(-0.233714 0.167918 0)
(-0.918882 -0.384221 1.77001e-22)
(-0.291786 -0.192958 -4.54445e-24)
(-0.403805 0.0737123 -1.61391e-21)
(-1.09928 -0.668954 -1.85204e-22)
(0.0328753 0.0745347 -6.57355e-22)
(-0.420298 0.0663702 0)
(-1.10731 -0.687141 -1.54953e-22)
(0.0366898 0.0819209 6.14112e-22)
(-0.108439 0.0624441 0)
(-0.389212 -0.233413 -1.46057e-21)
(-0.515703 -0.205206 7.21954e-22)
(-0.263559 0.164234 0)
(-0.977914 -0.435091 0)
(-0.206601 -0.125701 1.41565e-22)
(0.0356698 0.0960159 -1.08646e-21)
(-1.18866 -0.818591 5.57469e-21)
(-0.581249 0.0877766 0)
(-0.563733 0.176072 -3.10661e-22)
(0.0360412 0.101642 0)
(-1.05216 -0.663924 -2.42186e-21)
(-0.56286 0.164568 -7.70488e-23)
(0.0313796 0.0966198 0)
(-1.00744 -0.652313 7.13417e-21)
(-0.160962 0.126713 5.81929e-22)
(-0.353522 -0.22707 -1.33553e-22)
(-0.740831 -0.306853 -1.14827e-22)
(-0.970892 -0.585594 1.77025e-22)
(0.0290942 0.105678 6.64513e-22)
(-0.516566 0.193601 0)
(-0.425862 0.19739 1.40188e-21)
(-0.0131689 0.0441594 4.09401e-22)
(-1.25265 -0.625245 0)
(0.0244143 0.0973873 -1.06336e-22)
(-0.919643 -0.589881 4.51802e-21)
(-0.518562 0.173294 0)
(-0.261661 -0.04746 1.43343e-21)
(-0.125479 -0.0275532 1.18611e-21)
(-0.523969 -0.279497 1.61517e-23)
(-0.299364 0.0914538 -2.70508e-22)
(-0.969869 -0.520818 1.73829e-23)
(-0.0456879 0.00380435 -6.57896e-22)
(-0.752163 -0.530033 2.47837e-22)
(-0.528519 -0.128117 1.09794e-21)
(-0.0557749 0.119998 0)
(0.0418577 0.0958248 0)
(-1.15003 -0.754055 1.83734e-21)
(-0.592295 0.13678 0)
(-1.07579 -0.719659 0)
(-0.453938 0.0256003 0)
(0.0274471 0.0979345 0)
(0.00325321 0.0813629 0)
(-0.475917 0.259613 -2.75876e-22)
(-1.31861 -0.59524 -2.30044e-21)
(-0.324195 0.100756 0)
(-1.01793 -0.554099 2.14151e-23)
(-0.0260057 0.0190763 6.43105e-22)
(-0.16636 0.0258729 0)
(-0.236691 -0.123622 1.44216e-21)
(-0.549752 -0.259706 0)
(-1.18177 -0.750517 5.34298e-21)
(-0.577464 0.152134 3.60489e-23)
(0.0469987 0.0999126 0)
(0.0381217 0.080982 -4.7946e-22)
(-1.24635 -0.698878 -1.0564e-22)
(-0.465799 0.16114 8.92912e-23)
(-0.503637 0.239344 0)
(-0.500851 0.238903 -5.7388e-24)
(0.0377681 0.118036 -2.03783e-22)
(0.0383383 0.120317 -2.25905e-22)
(-1.20269 -0.608243 2.44844e-21)
(-1.1675 -0.600574 -2.01412e-21)
(-0.352596 -0.000676125 0)
(-0.873854 -0.544654 7.33967e-23)
(0.00162042 0.0639207 8.56664e-22)
(-1.02514 -0.650167 -1.16708e-21)
(-0.406693 0.0262226 0)
(0.0262092 0.0852042 -8.81303e-22)
(-0.27827 -0.0215296 -1.1483e-21)
(-0.655536 -0.372549 3.23123e-22)
(-0.0677144 0.00679039 1.44368e-21)
(-1.10439 -0.702909 -4.6195e-21)
(-0.577549 0.165945 -2.37013e-22)
(-1.09138 -0.71265 2.33507e-21)
(0.0396686 0.100549 0)
(-0.587715 0.152144 2.29287e-22)
(0.0373423 0.0966113 0)
(-0.378459 0.122835 0)
(-1.12457 -0.624464 0)
(0.00632458 0.0477756 6.65959e-22)
(-0.570249 0.165528 -6.54821e-23)
(-0.572188 0.171482 1.89259e-22)
(-1.18138 -0.730821 -3.04418e-21)
(-1.14709 -0.708707 7.09545e-21)
(0.0470537 0.102965 7.74765e-22)
(0.0438795 0.103706 -1.85878e-23)
(-0.410665 0.00799399 0)
(-0.985692 -0.638889 7.44055e-22)
(0.0182872 0.0895923 1.1526e-21)
(-0.298798 0.033795 1.12692e-21)
(-0.905555 -0.514614 -4.34514e-23)
(-0.021904 0.025689 0)
(-0.484142 0.258471 0)
(0.0217621 0.103895 0)
(-1.2783 -0.593565 -3.35488e-21)
(-0.336244 0.0204351 8.62481e-22)
(-0.898865 -0.540879 -1.54345e-24)
(0.00259886 0.0555653 -1.31953e-21)
(-0.279371 -0.00340873 4.94337e-22)
(-0.730217 -0.422674 -3.79969e-22)
(-0.0489406 0.016405 7.83543e-22)
(-0.494299 0.246313 0)
(0.0338992 0.116428 0)
(-1.22744 -0.601226 4.49504e-21)
(-0.32722 0.120443 0)
(-1.0566 -0.554013 -1.00054e-22)
(-0.0359768 0.0107775 -5.89543e-22)
(-0.906962 -0.678647 0)
(-0.597369 -0.114788 0)
(-0.0719298 0.143232 -4.90883e-23)
(-0.226 0.190009 -6.02985e-23)
(-0.91622 -0.344175 0)
(-0.395901 -0.284955 6.27488e-22)
(-1.15194 -0.825283 -1.3333e-21)
(0.0107511 0.106252 0)
(-0.540791 0.0210808 0)
(0.00822961 0.0716305 -9.17374e-22)
(-0.560348 -0.316742 -7.41248e-21)
(-0.304453 0.137463 1.01774e-21)
(-0.322704 0.0613142 0)
(-0.953769 -0.546807 1.85517e-23)
(-0.00784679 0.0370165 -6.12521e-22)
(-0.494108 0.240895 5.43204e-22)
(0.0258877 0.0984586 9.85485e-22)
(-1.29451 -0.629047 0)
(-0.551251 -0.420973 -6.56725e-23)
(-0.860959 -0.28645 -1.62229e-22)
(-0.199139 0.194627 -5.09678e-22)
(-0.391012 0.219356 0)
(0.0267187 0.111475 -2.53439e-22)
(-0.862259 -0.425648 0)
(-0.0538545 0.0737208 9.95916e-22)
(-0.0555393 0.089154 -1.01596e-21)
(-0.584245 -0.373426 0)
(-0.437428 -0.123819 8.28057e-22)
(-0.613496 -0.402769 -8.26908e-22)
(-0.473766 -0.137264 -6.48331e-22)
(-0.307676 -0.0486956 1.08447e-21)
(-0.61665 -0.355131 5.99071e-22)
(-0.0638161 0.0202407 0)
(-0.0854207 0.0865135 9.23494e-22)
(-0.0718647 0.0732355 0)
(-0.486222 -0.311866 -5.56088e-22)
(-0.525358 -0.185789 7.30139e-22)
(-0.510784 -0.321376 5.60475e-22)
(-0.470369 -0.15284 8.24342e-24)
(-0.305718 0.0551675 6.96848e-23)
(-0.849045 -0.490756 -9.66805e-23)
(-0.0240037 0.0295934 -9.60726e-22)
(-0.313053 0.0178925 -1.97802e-21)
(-0.849542 -0.498863 1.00641e-24)
(-0.0151413 0.040775 0)
(0.031462 0.0934163 0)
(-1.02481 -0.681405 0)
(-0.581785 0.151129 -5.04985e-22)
(-0.18199 0.127891 -5.375e-22)
(-0.785464 -0.336305 0)
(-0.298277 -0.186529 2.43822e-22)
(-0.556276 0.173174 -3.51666e-22)
(-1.21441 -0.730162 -3.01991e-21)
(0.0499465 0.105065 -4.37937e-22)
(-0.409565 0.0970489 0)
(-0.430919 0.107946 8.01852e-22)
(-1.1369 -0.670816 2.30975e-22)
(-1.17089 -0.691636 -1.1795e-21)
(0.0339319 0.0723745 -7.55315e-22)
(0.0393109 0.0776378 -6.58783e-22)
(-0.175518 0.1106 0)
(-0.75283 -0.334216 0)
(-0.272921 -0.167673 1.39093e-22)
(-0.294131 0.19178 6.0072e-22)
(-1.05543 -0.452869 0)
(-0.212868 -0.125928 2.37453e-22)
(-0.367911 0.0874317 -4.60395e-22)
(-1.06721 -0.6209 0)
(0.017486 0.056513 0)
(-0.164091 -0.00490395 1.08855e-21)
(-0.439184 -0.197204 -4.06224e-22)
(-0.277974 -0.146666 4.02676e-22)
(-0.444988 0.0838698 0)
(-1.15602 -0.716968 0)
(0.043437 0.0863994 -1.17453e-21)
(-0.141415 0.0542729 0)
(-0.289918 -0.164471 1.88123e-22)
(-0.573469 -0.257829 0)
(-0.386898 0.0289841 -1.04452e-21)
(-0.996931 -0.629266 3.97214e-22)
(0.020467 0.0765259 -1.12875e-22)
(-0.289672 0.177106 6.16516e-22)
(-1.03856 -0.462288 0)
(-0.183794 -0.105737 5.09066e-22)
(-0.149932 0.0169808 -1.07843e-21)
(-0.130879 0.0274592 -4.7931e-22)
(-0.480194 -0.216457 4.24347e-22)
(-0.286393 -0.157186 -8.16892e-22)
(-0.470763 -0.203396 0)
(-0.329292 -0.18826 -1.38248e-21)
(-0.0937757 0.0543193 -4.68576e-22)
(-0.426982 -0.2603 6.36968e-22)
(-0.0794392 0.0619261 3.02548e-22)
(-0.46943 -0.174967 -1.0613e-21)
(-0.496546 -0.30598 -3.61666e-22)
(-0.455731 -0.154857 7.09982e-23)
(-0.218566 0.123673 6.00173e-22)
(-0.241464 0.123517 0)
(-0.856784 -0.397274 2.2793e-22)
(-0.899989 -0.429988 -1.75681e-22)
(-0.202494 -0.114119 -6.3246e-22)
(-0.159312 -0.0796295 1.06115e-21)
(-0.0186999 0.0457776 0)
(-1.29028 -0.616536 1.14517e-21)
(-0.441885 0.222477 -7.47686e-22)
(-0.0816059 0.146897 6.01535e-22)
(-0.609688 -0.135559 5.5149e-22)
(-0.846123 -0.632017 2.86567e-22)
(-0.00108602 0.0627609 -3.46664e-22)
(0.0106489 0.0691258 3.01234e-22)
(-1.2998 -0.633494 -9.91315e-22)
(-1.28932 -0.649416 -1.57837e-21)
(-0.459238 0.22508 1.85153e-21)
(-0.463482 0.211635 -9.51442e-22)
(-0.131302 0.158667 9.50287e-22)
(-0.622935 -0.455109 -1.73566e-22)
(-0.7022 -0.219689 1.05747e-22)
(-0.215296 -0.0530639 1.7789e-21)
(-0.25196 -0.113121 0)
(-0.375339 -0.168177 -1.53984e-21)
(-0.449506 0.102572 -3.55407e-22)
(-1.17993 -0.716124 1.33571e-21)
(0.0447244 0.0849773 0)
(-0.151316 0.0997664 0)
(-0.312229 -0.197724 -1.32288e-22)
(-0.683773 -0.293836 -5.02881e-22)
(-0.304729 0.178736 0)
(-1.068 -0.48317 0)
(-0.157362 -0.0818522 -4.73676e-22)
(-0.412959 0.224207 -8.65935e-22)
(-0.408199 0.211546 0)