/*--------------------------------*- C++ -*----------------------------------*\
  =========                 |
  \\      /  F ield         | OpenFOAM: The Open Source CFD Toolbox
   \\    /   O peration     | Website:  https://openfoam.org
    \\  /    A nd           | Version:  6
     \\/     M anipulation  |
\*---------------------------------------------------------------------------*/
FoamFile
{
    version     2.0;
    format      ascii;
    class       volScalarField;
    location    "0";
    object      p;
}
// * * * * * * * * * * * * * * * * * * * * * * * * * * * * * * * * * * * * * //

dimensions      [0 2 -2 0 0 0 0];

internalField   nonuniform List<scalar> 
40000
(
0.0152238
0.0152239
0.0152233
0.0152216
0.0152188
0.0152151
0.0152106
0.0152055
0.0152
0.0151942
0.0151881
0.015182
0.0151758
0.0151696
0.0151636
0.0151577
0.0151519
0.0151464
0.015141
0.0151359
0.015131
0.0151264
0.015122
0.0151178
0.0151139
0.0151101
0.0151067
0.0151034
0.0151003
0.0150974
0.0150948
0.0150923
0.01509
0.0150879
0.015086
0.0150842
0.0150827
0.0150813
0.01508
0.015079
0.0150782
0.0150775
0.015077
0.0150767
0.0150767
0.0150768
0.0150771
0.0150777
0.0150785
0.0150796
0.0150809
0.0150825
0.0150843
0.0150864
0.0150888
0.0150916
0.0150946
0.0150979
0.0151016
0.0151056
0.01511
0.0151147
0.0151198
0.0151252
0.0151311
0.0151373
0.0151439
0.0151509
0.0151583
0.0151661
0.0151744
0.015183
0.015192
0.0152014
0.0152113
0.0152215
0.0152322
0.0152432
0.0152546
0.0152664
0.0152785
0.0152911
0.0153039
0.0153171
0.0153306
0.0153444
0.0153585
0.0153728
0.0153874
0.0154022
0.0154171
0.0154323
0.0154475
0.0154629
0.0154783
0.0154937
0.0155092
0.0155246
0.0155399
0.0155551
0.0155702
0.0155851
0.0155997
0.015614
0.015628
0.0156417
0.0156549
0.0156677
0.0156799
0.0156917
0.0157028
0.0157133
0.0157231
0.0157321
0.0157404
0.0157479
0.0157546
0.0157604
0.0157652
0.0157692
0.0157721
0.0157741
0.015775
0.0157749
0.0157737
0.0157715
0.0157682
0.0157638
0.0157582
0.0157516
0.0157439
0.0157351
0.0157252
0.0157143
0.0157023
0.0156893
0.0156753
0.0156604
0.0156445
0.0156277
0.01561
0.0155915
0.0155723
0.0155523
0.0155317
0.0155104
0.0154885
0.0154661
0.0154432
0.0154199
0.0153963
0.0153724
0.0153482
0.0153238
0.0152993
0.0152747
0.0152502
0.0152256
0.0152012
0.0151769
0.0151528
0.015129
0.0151054
0.0150823
0.0150595
0.0150372
0.0150154
0.0149941
0.0149734
0.0149533
0.0149339
0.0149152
0.0148971
0.0148799
0.0148634
0.0148478
0.0148329
0.014819
0.014806
0.0147939
0.0147827
0.0147725
0.0147633
0.0147552
0.014748
0.0147418
0.0147367
0.0147327
0.0147296
0.0147276
0.0147266
0.0147265
0.0147272
0.0147288
0.014731
0.0147336
0.0147364
0.0147391
0.0147411
0.0147421
0.0152237
0.0152238
0.0152233
0.0152216
0.015219
0.0152156
0.0152115
0.0152068
0.0152016
0.0151962
0.0151905
0.0151848
0.0151789
0.0151731
0.0151674
0.0151617
0.0151562
0.0151509
0.0151458
0.0151408
0.0151361
0.0151316
0.0151273
0.0151233
0.0151194
0.0151158
0.0151124
0.0151092
0.0151061
0.0151033
0.0151007
0.0150982
0.015096
0.0150939
0.015092
0.0150902
0.0150887
0.0150873
0.0150861
0.015085
0.0150842
0.0150835
0.015083
0.0150828
0.0150827
0.0150828
0.0150831
0.0150837
0.0150845
0.0150855
0.0150868
0.0150884
0.0150902
0.0150923
0.0150946
0.0150973
0.0151003
0.0151036
0.0151072
0.0151112
0.0151155
0.0151201
0.0151251
0.0151305
0.0151362
0.0151423
0.0151488
0.0151557
0.015163
0.0151707
0.0151787
0.0151872
0.0151961
0.0152053
0.015215
0.0152251
0.0152355
0.0152463
0.0152575
0.0152691
0.015281
0.0152933
0.0153059
0.0153189
0.0153321
0.0153456
0.0153594
0.0153735
0.0153877
0.0154022
0.0154169
0.0154317
0.0154466
0.0154617
0.0154767
0.0154919
0.015507
0.015522
0.015537
0.0155519
0.0155666
0.0155812
0.0155954
0.0156094
0.0156231
0.0156364
0.0156493
0.0156618
0.0156737
0.0156851
0.0156959
0.0157061
0.0157156
0.0157244
0.0157324
0.0157396
0.0157461
0.0157516
0.0157563
0.01576
0.0157628
0.0157646
0.0157654
0.0157651
0.0157638
0.0157615
0.0157581
0.0157536
0.0157481
0.0157415
0.0157338
0.015725
0.0157152
0.0157043
0.0156924
0.0156795
0.0156657
0.0156509
0.0156352
0.0156186
0.0156011
0.0155829
0.0155639
0.0155442
0.0155238
0.0155028
0.0154812
0.0154591
0.0154366
0.0154137
0.0153904
0.0153668
0.015343
0.015319
0.0152949
0.0152707
0.0152465
0.0152223
0.0151983
0.0151744
0.0151507
0.0151272
0.0151041
0.0150813
0.0150589
0.015037
0.0150155
0.0149946
0.0149742
0.0149545
0.0149354
0.0149169
0.0148992
0.0148822
0.0148661
0.0148507
0.0148361
0.0148224
0.0148096
0.0147977
0.0147867
0.0147766
0.0147676
0.0147594
0.0147523
0.0147462
0.0147411
0.014737
0.0147338
0.0147316
0.0147304
0.01473
0.0147305
0.0147317
0.0147334
0.0147356
0.014738
0.0147403
0.0147421
0.0147431
0.0152243
0.0152244
0.0152238
0.0152223
0.0152199
0.0152167
0.0152129
0.0152087
0.015204
0.015199
0.0151938
0.0151884
0.015183
0.0151776
0.0151722
0.0151669
0.0151617
0.0151567
0.0151518
0.0151471
0.0151426
0.0151382
0.0151341
0.0151302
0.0151265
0.0151229
0.0151196
0.0151165
0.0151135
0.0151108
0.0151082
0.0151058
0.0151035
0.0151015
0.0150996
0.0150979
0.0150963
0.0150949
0.0150937
0.0150927
0.0150918
0.0150912
0.0150907
0.0150904
0.0150903
0.0150904
0.0150907
0.0150913
0.0150921
0.0150931
0.0150943
0.0150958
0.0150976
0.0150996
0.015102
0.0151046
0.0151075
0.0151107
0.0151142
0.0151181
0.0151223
0.0151268
0.0151317
0.015137
0.0151426
0.0151486
0.0151549
0.0151617
0.0151688
0.0151763
0.0151841
0.0151924
0.0152011
0.0152101
0.0152196
0.0152294
0.0152396
0.0152501
0.0152611
0.0152724
0.015284
0.015296
0.0153083
0.0153209
0.0153338
0.015347
0.0153605
0.0153742
0.0153881
0.0154022
0.0154165
0.0154309
0.0154454
0.0154601
0.0154747
0.0154895
0.0155042
0.0155188
0.0155334
0.0155478
0.0155621
0.0155762
0.0155901
0.0156037
0.015617
0.0156299
0.0156424
0.0156544
0.0156659
0.015677
0.0156874
0.0156972
0.0157064
0.0157148
0.0157225
0.0157295
0.0157356
0.0157409
0.0157453
0.0157487
0.0157513
0.0157529
0.0157535
0.0157531
0.0157517
0.0157492
0.0157458
0.0157412
0.0157356
0.015729
0.0157213
0.0157126
0.0157028
0.015692
0.0156803
0.0156675
0.0156538
0.0156392
0.0156237
0.0156073
0.0155901
0.0155722
0.0155535
0.0155341
0.015514
0.0154934
0.0154722
0.0154505
0.0154283
0.0154058
0.0153829
0.0153598
0.0153364
0.0153128
0.0152892
0.0152654
0.0152417
0.015218
0.0151944
0.015171
0.0151478
0.0151248
0.0151021
0.0150798
0.0150578
0.0150363
0.0150153
0.0149948
0.0149749
0.0149555
0.0149368
0.0149188
0.0149014
0.0148848
0.014869
0.0148539
0.0148396
0.0148262
0.0148137
0.014802
0.0147912
0.0147813
0.0147724
0.0147644
0.0147573
0.0147512
0.0147461
0.0147419
0.0147386
0.0147363
0.0147348
0.0147341
0.0147342
0.014735
0.0147364
0.0147381
0.0147401
0.0147421
0.014744
0.0147452
0.0152261
0.015226
0.0152254
0.0152238
0.0152215
0.0152185
0.0152149
0.0152109
0.0152065
0.0152019
0.015197
0.015192
0.0151869
0.0151818
0.0151767
0.0151717
0.0151668
0.015162
0.0151573
0.0151528
0.0151485
0.0151444
0.0151404
0.0151366
0.015133
0.0151296
0.0151263
0.0151233
0.0151204
0.0151177
0.0151151
0.0151128
0.0151106
0.0151085
0.0151067
0.015105
0.0151034
0.0151021
0.0151009
0.0150998
0.015099
0.0150983
0.0150978
0.0150975
0.0150974
0.0150975
0.0150978
0.0150983
0.015099
0.0151
0.0151012
0.0151027
0.0151044
0.0151064
0.0151086
0.0151112
0.015114
0.0151171
0.0151206
0.0151244
0.0151285
0.0151329
0.0151377
0.0151428
0.0151483
0.0151541
0.0151603
0.0151669
0.0151739
0.0151812
0.0151889
0.015197
0.0152054
0.0152143
0.0152235
0.0152331
0.0152431
0.0152534
0.0152641
0.0152751
0.0152865
0.0152982
0.0153102
0.0153225
0.0153351
0.015348
0.0153612
0.0153745
0.0153881
0.0154019
0.0154159
0.0154299
0.0154441
0.0154584
0.0154728
0.0154871
0.0155015
0.0155158
0.01553
0.0155441
0.015558
0.0155718
0.0155853
0.0155985
0.0156114
0.015624
0.0156361
0.0156478
0.015659
0.0156697
0.0156799
0.0156894
0.0156982
0.0157064
0.0157139
0.0157205
0.0157264
0.0157315
0.0157356
0.0157389
0.0157413
0.0157427
0.0157432
0.0157426
0.0157411
0.0157386
0.015735
0.0157304
0.0157248
0.0157181
0.0157105
0.0157017
0.015692
0.0156813
0.0156696
0.015657
0.0156434
0.015629
0.0156136
0.0155974
0.0155804
0.0155627
0.0155442
0.0155251
0.0155053
0.0154849
0.015464
0.0154426
0.0154208
0.0153986
0.0153761
0.0153533
0.0153302
0.015307
0.0152838
0.0152604
0.0152371
0.0152138
0.0151906
0.0151675
0.0151447
0.0151221
0.0150998
0.0150779
0.0150563
0.0150352
0.0150146
0.0149944
0.0149749
0.0149559
0.0149375
0.0149198
0.0149028
0.0148865
0.0148709
0.0148561
0.0148421
0.0148289
0.0148166
0.0148051
0.0147945
0.0147848
0.014776
0.014768
0.0147611
0.014755
0.0147498
0.0147456
0.0147422
0.0147397
0.0147381
0.0147372
0.0147371
0.0147377
0.0147387
0.0147403
0.0147421
0.0147442
0.0147463
0.0147479
0.0152289
0.0152286
0.0152278
0.0152261
0.0152237
0.0152208
0.0152174
0.0152135
0.0152094
0.0152049
0.0152003
0.0151956
0.0151908
0.0151859
0.0151811
0.0151764
0.0151717
0.0151671
0.0151627
0.0151584
0.0151542
0.0151502
0.0151464
0.0151428
0.0151393
0.015136
0.0151328
0.0151298
0.015127
0.0151244
0.0151219
0.0151195
0.0151174
0.0151154
0.0151135
0.0151118
0.0151103
0.0151089
0.0151077
0.0151067
0.0151058
0.0151051
0.0151046
0.0151043
0.0151042
0.0151042
0.0151045
0.015105
0.0151057
0.0151066
0.0151077
0.0151092
0.0151108
0.0151127
0.0151149
0.0151174
0.0151201
0.0151232
0.0151266
0.0151302
0.0151342
0.0151385
0.0151432
0.0151482
0.0151535
0.0151592
0.0151653
0.0151717
0.0151785
0.0151856
0.0151932
0.0152011
0.0152093
0.015218
0.015227
0.0152364
0.0152461
0.0152562
0.0152666
0.0152774
0.0152885
0.0153
0.0153117
0.0153238
0.0153361
0.0153487
0.0153616
0.0153747
0.015388
0.0154014
0.0154151
0.0154288
0.0154427
0.0154567
0.0154707
0.0154848
0.0154988
0.0155128
0.0155267
0.0155404
0.0155541
0.0155675
0.0155807
0.0155936
0.0156062
0.0156185
0.0156303
0.0156417
0.0156527
0.0156631
0.0156729
0.0156822
0.0156908
0.0156987
0.0157059
0.0157124
0.015718
0.0157229
0.0157269
0.01573
0.0157322
0.0157335
0.0157338
0.0157332
0.0157315
0.0157289
0.0157253
0.0157206
0.015715
0.0157083
0.0157006
0.0156919
0.0156822
0.0156716
0.01566
0.0156474
0.0156339
0.0156196
0.0156044
0.0155883
0.0155715
0.0155539
0.0155356
0.0155167
0.0154971
0.015477
0.0154563
0.0154352
0.0154136
0.0153917
0.0153695
0.015347
0.0153243
0.0153014
0.0152784
0.0152554
0.0152324
0.0152094
0.0151866
0.0151639
0.0151414
0.0151191
0.0150972
0.0150756
0.0150544
0.0150336
0.0150133
0.0149935
0.0149742
0.0149556
0.0149375
0.0149201
0.0149034
0.0148873
0.014872
0.0148575
0.0148437
0.0148308
0.0148186
0.0148073
0.0147969
0.0147873
0.0147786
0.0147707
0.0147638
0.0147578
0.0147526
0.0147483
0.0147449
0.0147423
0.0147406
0.0147396
0.0147393
0.0147397
0.0147406
0.0147421
0.014744
0.0147461
0.0147487
0.0147507
0.0152327
0.0152321
0.0152309
0.015229
0.0152266
0.0152236
0.0152202
0.0152165
0.0152125
0.0152082
0.0152038
0.0151993
0.0151947
0.0151901
0.0151855
0.015181
0.0151765
0.0151721
0.0151679
0.0151638
0.0151598
0.0151559
0.0151523
0.0151487
0.0151454
0.0151421
0.0151391
0.0151362
0.0151334
0.0151308
0.0151284
0.0151261
0.015124
0.015122
0.0151202
0.0151185
0.015117
0.0151156
0.0151144
0.0151134
0.0151125
0.0151118
0.0151112
0.0151109
0.0151107
0.0151108
0.015111
0.0151114
0.0151121
0.0151129
0.015114
0.0151154
0.015117
0.0151188
0.0151209
0.0151233
0.015126
0.0151289
0.0151322
0.0151357
0.0151396
0.0151438
0.0151483
0.0151532
0.0151584
0.0151639
0.0151698
0.0151761
0.0151827
0.0151897
0.015197
0.0152047
0.0152128
0.0152213
0.0152301
0.0152392
0.0152487
0.0152586
0.0152688
0.0152794
0.0152902
0.0153014
0.0153129
0.0153247
0.0153368
0.0153491
0.0153617
0.0153745
0.0153875
0.0154007
0.0154141
0.0154276
0.0154411
0.0154548
0.0154686
0.0154823
0.015496
0.0155097
0.0155233
0.0155368
0.0155502
0.0155633
0.0155762
0.0155889
0.0156012
0.0156132
0.0156248
0.015636
0.0156466
0.0156568
0.0156664
0.0156755
0.0156838
0.0156916
0.0156986
0.0157048
0.0157103
0.015715
0.0157188
0.0157218
0.0157239
0.015725
0.0157252
0.0157245
0.0157228
0.0157201
0.0157164
0.0157117
0.015706
0.0156993
0.0156916
0.0156829
0.0156733
0.0156626
0.0156511
0.0156386
0.0156252
0.0156109
0.0155958
0.0155799
0.0155632
0.0155457
0.0155276
0.0155088
0.0154894
0.0154695
0.015449
0.0154281
0.0154068
0.0153851
0.0153631
0.0153408
0.0153184
0.0152958
0.0152731
0.0152503
0.0152276
0.0152049
0.0151823
0.0151599
0.0151377
0.0151158
0.0150942
0.0150729
0.015052
0.0150315
0.0150115
0.014992
0.014973
0.0149546
0.0149368
0.0149197
0.0149032
0.0148874
0.0148724
0.0148581
0.0148445
0.0148318
0.0148198
0.0148087
0.0147984
0.0147889
0.0147803
0.0147725
0.0147657
0.0147597
0.0147545
0.0147502
0.0147467
0.0147441
0.0147423
0.0147412
0.0147408
0.0147411
0.0147421
0.0147435
0.0147455
0.0147479
0.0147509
0.0147534
0.0152373
0.0152364
0.0152347
0.0152326
0.0152299
0.0152269
0.0152235
0.0152198
0.0152158
0.0152117
0.0152074
0.015203
0.0151986
0.0151942
0.0151898
0.0151855
0.0151812
0.015177
0.0151729
0.015169
0.0151651
0.0151614
0.0151579
0.0151545
0.0151512
0.0151481
0.0151451
0.0151423
0.0151396
0.0151371
0.0151347
0.0151325
0.0151304
0.0151284
0.0151266
0.015125
0.0151234
0.0151221
0.0151209
0.0151198
0.0151189
0.0151182
0.0151176
0.0151172
0.015117
0.015117
0.0151172
0.0151176
0.0151181
0.015119
0.01512
0.0151212
0.0151228
0.0151245
0.0151265
0.0151288
0.0151314
0.0151342
0.0151374
0.0151408
0.0151446
0.0151487
0.015153
0.0151578
0.0151628
0.0151682
0.015174
0.0151801
0.0151865
0.0151933
0.0152005
0.015208
0.0152159
0.0152241
0.0152327
0.0152416
0.0152509
0.0152606
0.0152706
0.0152809
0.0152915
0.0153025
0.0153137
0.0153253
0.0153371
0.0153492
0.0153615
0.015374
0.0153868
0.0153997
0.0154128
0.015426
0.0154394
0.0154528
0.0154662
0.0154797
0.0154932
0.0155066
0.01552
0.0155332
0.0155463
0.0155592
0.0155719
0.0155843
0.0155964
0.0156082
0.0156195
0.0156305
0.015641
0.0156509
0.0156603
0.0156692
0.0156774
0.0156849
0.0156918
0.0156979
0.0157032
0.0157077
0.0157114
0.0157143
0.0157162
0.0157173
0.0157174
0.0157166
0.0157148
0.015712
0.0157083
0.0157035
0.0156978
0.0156911
0.0156834
0.0156747
0.0156651
0.0156544
0.0156429
0.0156305
0.0156171
0.0156029
0.0155879
0.015572
0.0155554
0.0155381
0.0155201
0.0155014
0.0154822
0.0154624
0.0154421
0.0154213
0.0154002
0.0153787
0.0153569
0.0153348
0.0153126
0.0152902
0.0152677
0.0152452
0.0152227
0.0152003
0.015178
0.0151558
0.0151339
0.0151122
0.0150908
0.0150698
0.0150491
0.0150289
0.0150091
0.0149899
0.0149712
0.014953
0.0149355
0.0149186
0.0149024
0.0148868
0.014872
0.0148579
0.0148445
0.0148319
0.0148201
0.0148091
0.014799
0.0147896
0.0147811
0.0147735
0.0147666
0.0147607
0.0147555
0.0147512
0.0147477
0.0147451
0.0147432
0.0147421
0.0147417
0.014742
0.0147429
0.0147445
0.0147466
0.0147493
0.0147527
0.0147556
0.0152426
0.0152412
0.0152391
0.0152366
0.0152337
0.0152305
0.015227
0.0152232
0.0152193
0.0152152
0.015211
0.0152068
0.0152025
0.0151983
0.015194
0.0151898
0.0151857
0.0151817
0.0151778
0.015174
0.0151703
0.0151667
0.0151633
0.01516
0.0151569
0.0151539
0.015151
0.0151482
0.0151456
0.0151431
0.0151408
0.0151386
0.0151365
0.0151346
0.0151328
0.0151312
0.0151296
0.0151283
0.0151271
0.015126
0.0151251
0.0151243
0.0151237
0.0151233
0.015123
0.0151229
0.0151231
0.0151234
0.0151239
0.0151246
0.0151256
0.0151268
0.0151282
0.0151299
0.0151318
0.015134
0.0151364
0.0151392
0.0151422
0.0151455
0.0151491
0.0151531
0.0151573
0.0151619
0.0151668
0.015172
0.0151776
0.0151835
0.0151898
0.0151964
0.0152034
0.0152107
0.0152184
0.0152264
0.0152348
0.0152436
0.0152527
0.0152621
0.0152718
0.0152819
0.0152923
0.0153031
0.0153141
0.0153254
0.015337
0.0153488
0.0153609
0.0153732
0.0153857
0.0153984
0.0154113
0.0154243
0.0154373
0.0154505
0.0154638
0.015477
0.0154903
0.0155035
0.0155166
0.0155296
0.0155425
0.0155552
0.0155676
0.0155798
0.0155917
0.0156033
0.0156145
0.0156252
0.0156355
0.0156453
0.0156546
0.0156633
0.0156713
0.0156787
0.0156854
0.0156914
0.0156966
0.015701
0.0157046
0.0157074
0.0157093
0.0157102
0.0157103
0.0157094
0.0157075
0.0157047
0.0157009
0.0156961
0.0156904
0.0156836
0.0156759
0.0156672
0.0156576
0.015647
0.0156354
0.015623
0.0156097
0.0155955
0.0155805
0.0155648
0.0155482
0.015531
0.0155131
0.0154945
0.0154754
0.0154557
0.0154355
0.0154149
0.0153938
0.0153725
0.0153508
0.0153289
0.0153068
0.0152846
0.0152623
0.01524
0.0152177
0.0151955
0.0151734
0.0151514
0.0151297
0.0151082
0.015087
0.0150662
0.0150458
0.0150258
0.0150063
0.0149873
0.0149688
0.0149509
0.0149335
0.0149169
0.0149008
0.0148855
0.0148708
0.0148569
0.0148437
0.0148313
0.0148196
0.0148088
0.0147987
0.0147895
0.0147811
0.0147735
0.0147667
0.0147608
0.0147557
0.0147514
0.0147479
0.0147452
0.0147433
0.0147422
0.0147418
0.0147421
0.0147431
0.0147448
0.0147471
0.0147501
0.0147539
0.0147573
0.0152484
0.0152465
0.0152439
0.015241
0.0152378
0.0152344
0.0152307
0.0152269
0.0152229
0.0152189
0.0152147
0.0152106
0.0152064
0.0152022
0.0151981
0.0151941
0.0151901
0.0151862
0.0151825
0.0151788
0.0151752
0.0151718
0.0151685
0.0151653
0.0151623
0.0151593
0.0151565
0.0151539
0.0151513
0.0151489
0.0151466
0.0151445
0.0151424
0.0151405
0.0151387
0.0151371
0.0151356
0.0151342
0.015133
0.0151319
0.0151309
0.0151301
0.0151295
0.015129
0.0151287
0.0151286
0.0151286
0.0151289
0.0151293
0.01513
0.0151308
0.0151319
0.0151333
0.0151348
0.0151367
0.0151387
0.0151411
0.0151437
0.0151466
0.0151498
0.0151532
0.015157
0.0151611
0.0151656
0.0151703
0.0151754
0.0151808
0.0151865
0.0151926
0.0151991
0.0152058
0.015213
0.0152205
0.0152283
0.0152365
0.015245
0.0152539
0.0152631
0.0152726
0.0152825
0.0152927
0.0153032
0.015314
0.0153251
0.0153365
0.0153481
0.0153599
0.015372
0.0153843
0.0153968
0.0154094
0.0154222
0.015435
0.015448
0.015461
0.0154741
0.0154871
0.0155001
0.0155131
0.0155259
0.0155386
0.0155511
0.0155634
0.0155754
0.0155871
0.0155985
0.0156096
0.0156202
0.0156303
0.01564
0.0156491
0.0156577
0.0156656
0.0156729
0.0156795
0.0156854
0.0156905
0.0156948
0.0156984
0.015701
0.0157028
0.0157037
0.0157037
0.0157028
0.0157009
0.015698
0.0156942
0.0156894
0.0156836
0.0156768
0.0156691
0.0156604
0.0156507
0.0156401
0.0156286
0.0156162
0.0156029
0.0155887
0.0155738
0.015558
0.0155415
0.0155243
0.0155065
0.015488
0.0154689
0.0154493
0.0154292
0.0154086
0.0153877
0.0153664
0.0153449
0.0153231
0.0153012
0.0152791
0.0152569
0.0152347
0.0152126
0.0151905
0.0151685
0.0151468
0.0151252
0.0151039
0.0150829
0.0150623
0.0150421
0.0150223
0.0150029
0.0149841
0.0149658
0.0149481
0.0149309
0.0149144
0.0148986
0.0148834
0.0148689
0.0148551
0.0148421
0.0148298
0.0148183
0.0148076
0.0147976
0.0147885
0.0147802
0.0147726
0.0147659
0.01476
0.014755
0.0147507
0.0147472
0.0147446
0.0147427
0.0147416
0.0147412
0.0147416
0.0147427
0.0147445
0.014747
0.0147502
0.0147545
0.0147581
0.0152546
0.0152522
0.015249
0.0152457
0.0152422
0.0152385
0.0152347
0.0152307
0.0152267
0.0152226
0.0152184
0.0152143
0.0152102
0.0152062
0.0152021
0.0151982
0.0151944
0.0151906
0.0151869
0.0151834
0.01518
0.0151767
0.0151735
0.0151704
0.0151674
0.0151646
0.0151619
0.0151593
0.0151568
0.0151544
0.0151522
0.01515
0.015148
0.0151461
0.0151444
0.0151427
0.0151412
0.0151398
0.0151385
0.0151374
0.0151364
0.0151356
0.0151349
0.0151344
0.015134
0.0151338
0.0151338
0.015134
0.0151343
0.0151349
0.0151357
0.0151367
0.0151379
0.0151394
0.0151411
0.015143
0.0151452
0.0151477
0.0151505
0.0151535
0.0151569
0.0151605
0.0151644
0.0151687
0.0151733
0.0151782
0.0151834
0.015189
0.0151949
0.0152011
0.0152077
0.0152147
0.015222
0.0152296
0.0152376
0.0152459
0.0152546
0.0152636
0.0152729
0.0152826
0.0152926
0.0153028
0.0153134
0.0153243
0.0153355
0.0153469
0.0153585
0.0153704
0.0153825
0.0153947
0.0154072
0.0154197
0.0154324
0.0154452
0.015458
0.0154709
0.0154838
0.0154966
0.0155094
0.015522
0.0155345
0.0155469
0.015559
0.0155709
0.0155826
0.0155938
0.0156047
0.0156152
0.0156253
0.0156348
0.0156439
0.0156523
0.0156602
0.0156674
0.0156739
0.0156797
0.0156848
0.0156891
0.0156925
0.0156951
0.0156969
0.0156977
0.0156977
0.0156967
0.0156948
0.0156919
0.015688
0.0156832
0.0156774
0.0156706
0.0156628
0.0156541
0.0156444
0.0156338
0.0156223
0.0156099
0.0155966
0.0155825
0.0155675
0.0155518
0.0155353
0.0155181
0.0155003
0.0154818
0.0154627
0.0154432
0.0154231
0.0154026
0.0153817
0.0153605
0.0153391
0.0153174
0.0152955
0.0152735
0.0152514
0.0152294
0.0152073
0.0151853
0.0151635
0.0151419
0.0151204
0.0150993
0.0150784
0.0150579
0.0150379
0.0150182
0.014999
0.0149803
0.0149622
0.0149446
0.0149277
0.0149113
0.0148956
0.0148806
0.0148662
0.0148526
0.0148397
0.0148275
0.0148162
0.0148055
0.0147957
0.0147866
0.0147784
0.0147709
0.0147643
0.0147584
0.0147534
0.0147492
0.0147457
0.0147431
0.0147412
0.0147401
0.0147398
0.0147403
0.0147415
0.0147434
0.0147461
0.0147496
0.0147542
0.0147582
0.015261
0.0152582
0.0152544
0.0152506
0.0152467
0.0152428
0.0152387
0.0152346
0.0152304
0.0152263
0.0152221
0.015218
0.0152139
0.0152099
0.015206
0.0152022
0.0151984
0.0151948
0.0151912
0.0151878
0.0151845
0.0151812
0.0151781
0.0151752
0.0151723
0.0151695
0.0151669
0.0151643
0.0151619
0.0151596
0.0151574
0.0151553
0.0151533
0.0151514
0.0151497
0.015148
0.0151465
0.0151451
0.0151438
0.0151426
0.0151416
0.0151407
0.01514
0.0151394
0.015139
0.0151387
0.0151386
0.0151387
0.015139
0.0151394
0.0151401
0.015141
0.0151421
0.0151434
0.015145
0.0151469
0.0151489
0.0151513
0.0151539
0.0151568
0.01516
0.0151634
0.0151672
0.0151713
0.0151757
0.0151805
0.0151855
0.0151909
0.0151966
0.0152027
0.0152091
0.0152158
0.0152229
0.0152303
0.0152381
0.0152462
0.0152547
0.0152635
0.0152726
0.0152821
0.0152919
0.0153019
0.0153123
0.015323
0.0153339
0.0153451
0.0153566
0.0153683
0.0153802
0.0153923
0.0154045
0.0154169
0.0154294
0.015442
0.0154547
0.0154674
0.0154801
0.0154928
0.0155054
0.0155179
0.0155303
0.0155426
0.0155546
0.0155664
0.0155779
0.0155891
0.0155999
0.0156103
0.0156203
0.0156298
0.0156387
0.0156472
0.0156549
0.0156621
0.0156686
0.0156744
0.0156794
0.0156836
0.015687
0.0156896
0.0156913
0.0156922
0.0156921
0.0156911
0.0156891
0.0156862
0.0156823
0.0156775
0.0156717
0.0156649
0.0156571
0.0156484
0.0156387
0.0156281
0.0156165
0.0156041
0.0155908
0.0155766
0.0155617
0.0155459
0.0155294
0.0155122
0.0154944
0.0154759
0.0154569
0.0154373
0.0154173
0.0153968
0.0153759
0.0153548
0.0153333
0.0153117
0.0152898
0.0152679
0.0152459
0.0152239
0.0152019
0.01518
0.0151582
0.0151367
0.0151153
0.0150943
0.0150735
0.0150532
0.0150332
0.0150137
0.0149946
0.014976
0.014958
0.0149406
0.0149237
0.0149075
0.0148919
0.014877
0.0148628
0.0148493
0.0148365
0.0148245
0.0148132
0.0148027
0.0147929
0.0147839
0.0147758
0.0147684
0.0147618
0.014756
0.014751
0.0147468
0.0147434
0.0147407
0.0147389
0.0147379
0.0147376
0.0147382
0.0147395
0.0147416
0.0147445
0.0147482
0.0147531
0.0147573
0.0152676
0.0152643
0.0152599
0.0152556
0.0152514
0.0152471
0.0152428
0.0152385
0.0152342
0.0152299
0.0152257
0.0152216
0.0152175
0.0152136
0.0152097
0.0152059
0.0152023
0.0151987
0.0151952
0.0151919
0.0151887
0.0151855
0.0151825
0.0151796
0.0151768
0.0151742
0.0151716
0.0151691
0.0151667
0.0151645
0.0151623
0.0151602
0.0151582
0.0151564
0.0151546
0.0151529
0.0151514
0.01515
0.0151486
0.0151474
0.0151464
0.0151454
0.0151446
0.015144
0.0151435
0.0151431
0.015143
0.015143
0.0151431
0.0151435
0.0151441
0.0151448
0.0151458
0.015147
0.0151485
0.0151502
0.0151521
0.0151543
0.0151568
0.0151595
0.0151625
0.0151658
0.0151695
0.0151734
0.0151776
0.0151821
0.015187
0.0151922
0.0151977
0.0152036
0.0152098
0.0152164
0.0152232
0.0152305
0.0152381
0.015246
0.0152542
0.0152628
0.0152718
0.015281
0.0152906
0.0153005
0.0153106
0.0153211
0.0153319
0.0153429
0.0153542
0.0153657
0.0153774
0.0153893
0.0154014
0.0154136
0.015426
0.0154384
0.0154509
0.0154635
0.0154761
0.0154887
0.0155012
0.0155136
0.0155259
0.0155381
0.01555
0.0155617
0.0155731
0.0155843
0.015595
0.0156054
0.0156153
0.0156248
0.0156337
0.0156421
0.0156498
0.015657
0.0156634
0.0156692
0.0156742
0.0156784
0.0156818
0.0156844
0.0156861
0.015687
0.0156869
0.0156859
0.0156839
0.015681
0.0156771
0.0156722
0.0156664
0.0156596
0.0156518
0.0156431
0.0156334
0.0156227
0.0156112
0.0155987
0.0155854
0.0155712
0.0155562
0.0155404
0.0155239
0.0155067
0.0154888
0.0154703
0.0154513
0.0154317
0.0154116
0.0153911
0.0153703
0.0153491
0.0153276
0.015306
0.0152841
0.0152622
0.0152402
0.0152182
0.0151963
0.0151744
0.0151527
0.0151312
0.0151099
0.0150889
0.0150683
0.015048
0.0150281
0.0150086
0.0149897
0.0149712
0.0149533
0.0149359
0.0149192
0.0149031
0.0148876
0.0148728
0.0148587
0.0148453
0.0148326
0.0148206
0.0148094
0.014799
0.0147893
0.0147804
0.0147723
0.0147649
0.0147584
0.0147526
0.0147477
0.0147435
0.0147402
0.0147376
0.0147358
0.0147348
0.0147347
0.0147353
0.0147367
0.0147389
0.014742
0.014746
0.0147511
0.0147555
0.0152743
0.0152704
0.0152654
0.0152607
0.015256
0.0152514
0.0152468
0.0152423
0.0152378
0.0152335
0.0152292
0.0152251
0.015221
0.015217
0.0152132
0.0152095
0.0152059
0.0152024
0.015199
0.0151957
0.0151926
0.0151896
0.0151866
0.0151838
0.0151811
0.0151785
0.0151759
0.0151735
0.0151712
0.0151689
0.0151668
0.0151647
0.0151628
0.0151609
0.0151592
0.0151575
0.0151559
0.0151544
0.0151531
0.0151519
0.0151507
0.0151497
0.0151489
0.0151481
0.0151476
0.0151471
0.0151468
0.0151467
0.0151468
0.0151471
0.0151475
0.0151482
0.015149
0.0151501
0.0151514
0.0151529
0.0151547
0.0151568
0.0151591
0.0151616
0.0151645
0.0151676
0.0151711
0.0151748
0.0151788
0.0151832
0.0151879
0.0151929
0.0151982
0.0152039
0.0152099
0.0152162
0.0152229
0.01523
0.0152373
0.0152451
0.0152531
0.0152615
0.0152702
0.0152793
0.0152887
0.0152984
0.0153084
0.0153186
0.0153292
0.0153401
0.0153512
0.0153625
0.015374
0.0153858
0.0153977
0.0154098
0.015422
0.0154344
0.0154468
0.0154592
0.0154717
0.0154842
0.0154966
0.0155089
0.0155212
0.0155332
0.0155451
0.0155568
0.0155682
0.0155793
0.01559
0.0156003
0.0156102
0.0156197
0.0156286
0.015637
0.0156447
0.0156519
0.0156584
0.0156641
0.0156691
0.0156734
0.0156768
0.0156794
0.0156812
0.015682
0.0156819
0.0156809
0.015679
0.0156761
0.0156722
0.0156673
0.0156615
0.0156547
0.0156469
0.0156381
0.0156284
0.0156178
0.0156062
0.0155937
0.0155803
0.0155661
0.0155511
0.0155353
0.0155187
0.0155014
0.0154835
0.015465
0.0154458
0.0154262
0.0154061
0.0153856
0.0153647
0.0153434
0.015322
0.0153003
0.0152784
0.0152564
0.0152344
0.0152124
0.0151905
0.0151686
0.0151469
0.0151254
0.0151042
0.0150832
0.0150626
0.0150423
0.0150225
0.0150031
0.0149842
0.0149658
0.014948
0.0149307
0.014914
0.014898
0.0148826
0.0148679
0.0148538
0.0148405
0.0148279
0.014816
0.0148049
0.0147945
0.0147849
0.014776
0.014768
0.0147607
0.0147542
0.0147485
0.0147436
0.0147394
0.0147361
0.0147336
0.0147319
0.0147309
0.0147308
0.0147315
0.0147331
0.0147354
0.0147386
0.0147428
0.0147482
0.0147528
0.0152809
0.0152765
0.0152709
0.0152657
0.0152606
0.0152556
0.0152507
0.015246
0.0152414
0.0152369
0.0152325
0.0152283
0.0152242
0.0152203
0.0152165
0.0152128
0.0152092
0.0152058
0.0152025
0.0151993
0.0151962
0.0151932
0.0151904
0.0151876
0.015185
0.0151824
0.0151799
0.0151776
0.0151753
0.015173
0.0151709
0.0151689
0.0151669
0.0151651
0.0151633
0.0151616
0.01516
0.0151585
0.0151571
0.0151558
0.0151546
0.0151536
0.0151526
0.0151518
0.0151511
0.0151506
0.0151502
0.01515
0.01515
0.0151501
0.0151504
0.0151509
0.0151517
0.0151526
0.0151537
0.0151551
0.0151568
0.0151586
0.0151608
0.0151632
0.0151658
0.0151688
0.015172
0.0151756
0.0151795
0.0151836
0.0151881
0.0151929
0.015198
0.0152035
0.0152093
0.0152155
0.0152219
0.0152288
0.0152359
0.0152435
0.0152513
0.0152595
0.015268
0.0152769
0.0152861
0.0152956
0.0153054
0.0153155
0.0153259
0.0153366
0.0153475
0.0153587
0.0153701
0.0153817
0.0153935
0.0154055
0.0154176
0.0154298
0.0154421
0.0154544
0.0154668
0.0154792
0.0154916
0.0155039
0.015516
0.0155281
0.0155399
0.0155516
0.0155629
0.015574
0.0155847
0.0155951
0.015605
0.0156145
0.0156234
0.0156318
0.0156396
0.0156468
0.0156533
0.0156591
0.0156642
0.0156685
0.015672
0.0156746
0.0156764
0.0156773
0.0156772
0.0156763
0.0156743
0.0156715
0.0156676
0.0156627
0.0156569
0.0156501
0.0156423
0.0156335
0.0156238
0.0156131
0.0156015
0.015589
0.0155756
0.0155613
0.0155462
0.0155303
0.0155137
0.0154964
0.0154784
0.0154598
0.0154406
0.0154209
0.0154007
0.0153801
0.0153591
0.0153378
0.0153163
0.0152945
0.0152726
0.0152506
0.0152285
0.0152065
0.0151845
0.0151626
0.0151409
0.0151194
0.0150981
0.0150772
0.0150565
0.0150363
0.0150165
0.0149971
0.0149782
0.0149598
0.014942
0.0149248
0.0149082
0.0148922
0.0148769
0.0148622
0.0148482
0.014835
0.0148224
0.0148106
0.0147995
0.0147892
0.0147796
0.0147708
0.0147628
0.0147556
0.0147491
0.0147434
0.0147386
0.0147345
0.0147312
0.0147287
0.014727
0.0147262
0.0147261
0.0147269
0.0147285
0.014731
0.0147344
0.0147387
0.0147442
0.014749
0.0152874
0.0152825
0.0152763
0.0152706
0.015265
0.0152597
0.0152545
0.0152496
0.0152447
0.0152401
0.0152356
0.0152313
0.0152272
0.0152232
0.0152194
0.0152158
0.0152122
0.0152088
0.0152056
0.0152025
0.0151994
0.0151965
0.0151937
0.0151911
0.0151884
0.0151859
0.0151835
0.0151812
0.0151789
0.0151767
0.0151746
0.0151726
0.0151706
0.0151688
0.015167
0.0151652
0.0151636
0.0151621
0.0151606
0.0151593
0.015158
0.0151569
0.0151559
0.015155
0.0151542
0.0151535
0.0151531
0.0151527
0.0151526
0.0151526
0.0151527
0.0151531
0.0151537
0.0151545
0.0151555
0.0151567
0.0151582
0.0151599
0.0151618
0.015164
0.0151665
0.0151693
0.0151724
0.0151757
0.0151794
0.0151833
0.0151876
0.0151922
0.0151971
0.0152024
0.015208
0.0152139
0.0152202
0.0152268
0.0152338
0.0152411
0.0152488
0.0152568
0.0152651
0.0152738
0.0152828
0.0152921
0.0153017
0.0153117
0.0153219
0.0153324
0.0153432
0.0153542
0.0153655
0.015377
0.0153886
0.0154005
0.0154125
0.0154246
0.0154368
0.0154491
0.0154614
0.0154738
0.0154861
0.0154983
0.0155105
0.0155225
0.0155343
0.015546
0.0155574
0.0155685
0.0155792
0.0155896
0.0155996
0.0156091
0.0156181
0.0156265
0.0156344
0.0156416
0.0156482
0.0156541
0.0156592
0.0156636
0.0156671
0.0156698
0.0156717
0.0156726
0.0156726
0.0156717
0.0156699
0.015667
0.0156632
0.0156584
0.0156525
0.0156457
0.0156379
0.0156292
0.0156194
0.0156087
0.0155971
0.0155845
0.015571
0.0155567
0.0155416
0.0155256
0.0155089
0.0154915
0.0154734
0.0154547
0.0154355
0.0154157
0.0153954
0.0153747
0.0153536
0.0153322
0.0153106
0.0152887
0.0152667
0.0152446
0.0152225
0.0152004
0.0151783
0.0151563
0.0151346
0.015113
0.0150917
0.0150707
0.01505