/*--------------------------------*- C++ -*----------------------------------*\
  =========                 |
  \\      /  F ield         | OpenFOAM: The Open Source CFD Toolbox
   \\    /   O peration     | Website:  https://openfoam.org
    \\  /    A nd           | Version:  6
     \\/     M anipulation  |
\*---------------------------------------------------------------------------*/
FoamFile
{
    version     2.0;
    format      ascii;
    class       volVectorField;
    location    "0";
    object      U_rec;
}
// * * * * * * * * * * * * * * * * * * * * * * * * * * * * * * * * * * * * * //

dimensions      [0 1 -1 0 0 0 0];

internalField   nonuniform List<vector> 
918
(
(0.986591 -0.00273438 0)
(-0.00980377 2.99063 0)
(-0.00738326 1.71646 0)
(0.980243 0.00426477 0)
(-0.00839793 1.67947 5.56206e-17)
(0.00412381 2.98161 -2.53259e-17)
(0.949826 1.41069 4.01841e-18)
(0.484925 0.261039 2.54967e-19)
(0.996996 0.00056135 0)
(0.0434243 1.66186 0)
(-0.00689842 1.63706 0)
(0.908967 -0.00104083 0)
(-0.000327418 2.98658 0)
(0.00444262 2.88898 0)
(0.0027446 2.91095 1.77604e-17)
(-0.00496749 1.65508 3.34584e-17)
(0.655289 0.146198 -1.20448e-18)
(0.201849 1.84387 -3.58373e-17)
(0.983506 0.00941986 0)
(0.00464831 1.66036 0)
(0.0125219 0.0385213 6.16968e-18)
(0.989901 0.008608 0)
(1.00544 0.00927682 0)
(1.01214 -0.00142881 0)
(0.829995 -0.0123287 0)
(0.0211599 2.91553 0)
(-0.00684422 2.94093 -9.10157e-17)
(-0.00926968 1.7332 0)
(0.00359684 1.76775 0)
(-0.0111688 1.73909 0)
(-0.0104976 1.79029 0)
(-0.00936491 1.69599 5.53646e-17)
(-0.00388563 1.65526 0)
(0.00501091 3.01119 6.5972e-22)
(0.0059556 3.02314 -5.62222e-17)
(0.020387 3.01056 0)
(0.942635 -0.0024612 0)
(0.527191 1.10213 -1.15081e-17)
(0.942291 1.43898 -1.09814e-17)
(1.07202 1.23933 2.4865e-17)
(0.798179 1.58492 9.27137e-18)
(0.792297 1.55199 1.49766e-17)
(0.512578 0.318684 4.15143e-20)
(0.544856 0.235243 0)
(1.26587 0.674298 0)
(0.432354 0.329874 -9.97772e-21)
(0.424817 0.239611 9.49798e-19)
(0.951921 -0.00216672 0)
(0.996973 0.00252589 0)
(0.997003 0.00303905 0)
(0.993095 0.00346391 0)
(0.983417 0.00765029 0)
(0.997583 0.0119554 0)
(0.0159078 1.57334 4.69829e-18)
(0.0371192 1.75407 0)
(0.0658508 1.69551 0)
(0.0171843 1.74344 0)
(0.0136482 1.63957 0)
(-0.00880422 1.66082 0)
(-0.0080519 1.69815 0)
(-0.00615868 1.63611 0)
(-0.0131596 1.70767 0)
(-0.00679067 1.64747 0)
(0.974506 0.00938468 0)
(0.944845 0.008144 0)
(0.920838 -0.00275284 0)
(0.935638 0.0124384 0)
(0.890666 0.0110387 0)
(-0.0183163 3.04323 2.3311e-17)
(-0.00121086 2.97488 0)
(-0.02801 3.02198 0)
(0.0273861 3.04077 -6.80906e-23)
(-0.00313915 3.02554 3.91362e-17)
(0.0192473 3.01124 0)
(0.00561559 2.95441 0)
(0.00375281 2.96576 -1.6319e-23)
(0.00384695 2.89625 0)
(0.00897821 2.97185 0)
(0.00685824 2.87458 0)
(0.277592 3.20079 0)
(-0.0666189 3.27865 0)
(0.0966851 2.9734 6.47791e-18)
(-0.00161368 2.8127 0)
(0.00613951 1.7526 0)
(-0.00359025 1.70182 3.22969e-17)
(-0.00224082 1.65672 3.35469e-17)
(0.698788 0.172707 -4.01277e-18)
(0.689865 0.0975779 2.7548e-18)
(0.663251 0.206928 2.16056e-17)
(0.644012 0.165505 -7.80254e-18)
(0.202096 1.37439 0)
(0.268183 1.89435 -4.38288e-17)
(0.415896 1.80195 -3.58706e-17)
(0.994887 0.00699717 0)
(0.971578 0.00703204 0)
(0.996225 -0.00551479 0)
(1.002 0.00147307 0)
(1.00318 0.0145994 1.43903e-16)
(1.00402 0.0121459 1.12825e-16)
(-0.00125596 1.70856 0)
(0.00425094 1.66418 0)
(-0.00584788 1.74302 0)
(-0.0105044 1.71641 0)
(-0.00159926 1.66827 0)
(0.00584285 0.263492 -2.81237e-18)
(0.194685 0.18401 0)
(1.01146 -0.0142896 0)
(0.984107 0.000411071 0)
(0.906957 0.0335724 0)
(0.8744 0.0358316 0)
(0.860462 0.00781941 0)
(1.0985 0.00909919 0)
(0.836482 0.0215397 0)
(0.783391 0.00023254 1.79565e-17)
(-0.0194936 2.87631 2.03994e-17)
(0.00786719 2.98218 0)
(-0.0461025 3.02141 0)
(0.00584051 2.86287 0)
(-0.00573505 2.98515 -3.43916e-17)
(-0.00268223 2.93076 0)
(-0.010334 2.9885 -9.45067e-18)
(-0.0122257 2.95182 2.19555e-17)
(0.00394536 1.77251 0)
(0.00372514 1.76736 0)
(0.00323667 1.70476 -2.81354e-22)
(-0.00120625 1.7017 0)
(0.00257 1.65277 0)
(0.972287 0.00433171 0)
(0.946999 0.0059573 0)
(0.930592 -0.00670416 0)
(0.97248 -0.00346871 0)
(0.942023 -0.00303642 0)
(0.592876 1.23616 -4.0432e-18)
(0.710523 1.3012 0)
(0.41274 0.995972 -1.35831e-18)
(0.448737 0.863766 0)
(1.05535 1.26366 1.66854e-17)
(1.16356 1.04371 4.24174e-18)
(0.430473 1.82672 0)
(0.623162 1.71426 0)
(0.617102 1.67982 0)
(0.372708 0.605561 -5.09262e-18)
(0.563789 0.297144 0)
(0.582496 0.230613 -4.38832e-18)
(1.14042 1.07508 0)
(1.20946 0.875241 0)
(1.22742 0.845577 -4.43595e-18)
(1.27344 0.693191 0)
(1.29845 0.506575 -2.80522e-17)
(0.972749 0.00504805 0)
(0.971511 -0.00436458 0)
(0.944432 0.00159505 0)
(0.998559 -0.00598307 0)
(0.983331 -0.00546273 0)
(0.971131 0.000213936 0)
(0.990638 -0.00317587 0)
(0.988003 -0.000522348 0)
(0.997682 -0.00192635 0)
(0.0224766 1.59848 2.85985e-17)
(0.0300212 1.54678 0)
(0.0185172 1.63081 -3.92964e-18)
(0.0112883 1.59647 4.26859e-18)
(0.103582 1.86057 -4.1916e-17)
(0.0527158 1.80359 0)
(0.108077 1.77404 0)
(0.00232939 1.72072 0)
(0.00615398 1.62052 0)
(-0.00794334 1.70377 2.93577e-20)
(0.00129079 1.66784 0)
(-0.00903294 1.70336 -3.13841e-17)
(0.00167326 1.66036 -2.53467e-18)
(-0.000961196 1.70945 0)
(-0.0050786 1.70437 0)
(0.000596463 1.62667 0)
(-0.00860336 1.71521 0)
(-0.00165141 1.65632 0)
(1.01196 0.0185843 0)
(0.993506 0.00294226 0)
(0.995151 0.010249 0)
(0.966658 0.00391633 0)
(0.928583 -0.00104829 0)
(0.959523 0.00781061 0)
(0.953799 0.00611968 0)
(0.923529 0.0036357 0)
(0.0101973 3.04142 5.65718e-20)
(0.0155166 3.03604 0)
(0.0091805 2.99168 0)
(0.00502642 2.93533 0)
(0.991586 3.71419 0)
(1.3599 2.78251 -1.0241e-18)
(0.0111472 2.88963 0)
(-0.0121301 2.80737 0)
(0.00321403 1.76098 0)
(0.00659495 1.74948 0)
(0.0032105 1.7512 0)
(-0.00340888 1.77859 -7.40553e-17)
(0.0037442 1.75737 0)
(-7.53713e-05 1.7711 0)
(0.00271967 1.65307 -6.57868e-17)
(0.00364716 1.70306 -3.37794e-17)
(-0.0024972 1.69977 3.20911e-17)
(0.00087243 1.65232 0)
(0.722393 0.13247 -1.90252e-17)
(0.713407 0.0713517 -1.02505e-17)
(0.190897 1.37306 0)
(0.265655 1.29561 9.0659e-19)
(0.132424 1.4435 -2.54347e-17)
(0.126714 1.43257 -3.1395e-17)
(0.938563 0.00745876 0)
(0.979438 0.0108477 0)
(0.986425 0.0140188 0)
(0.956319 0.0148368 0)
(-0.000748073 1.71625 0)
(0.00504917 1.71219 0)
(0.00480992 1.66286 0)
(0.350534 0.331147 -2.55403e-18)
(0.232991 0.303686 2.41413e-18)
(0.326808 0.211688 0)
(1.19432 0.101112 -6.98593e-19)
(1.19698 0.0510044 0)
(1.10115 0.0528805 0)
(1.0387 0.00184902 0)
(0.750099 0.106949 0)
(0.78775 0.0697416 3.73732e-17)
(0.742273 0.0575145 -2.29182e-17)
(-0.0147721 2.9589 -3.42936e-17)
(-0.00971964 2.90459 -5.58762e-17)
(0.0080227 3.03219 1.09998e-19)
(0.0343123 3.02104 -3.66618e-17)
(-0.015884 3.00135 -2.23463e-19)
(-0.0134058 2.9799 8.60354e-22)
(-0.0125687 3.02978 -2.34535e-18)
(0.00212699 2.99237 -8.69808e-18)
(0.0514674 3.024 -2.75306e-17)
(0.99222 0.00423184 0)
(0.98442 0.011781 0)
(0.959013 0.00520207 0)
(0.968818 0.0101183 0)
(0.963169 0.000798727 0)
(0.926981 0.00451044 0)
(0.962547 -0.00236742 0)
(0.960756 -0.0026801 0)
(0.928885 -0.00821718 0)
(0.788526 1.47116 4.12235e-18)
(0.876703 1.53529 0)
(0.341151 0.467174 1.1682e-18)
(0.382137 0.737147 -4.23281e-18)
(0.380006 0.814081 -1.15477e-17)
(0.398524 0.639858 -1.89559e-17)
(0.436742 0.951137 -1.97486e-18)
(0.373571 0.777357 1.86059e-17)
(0.647599 0.236899 -1.28672e-17)
(0.606847 0.275577 -3.80651e-18)
(0.618522 0.201273 3.53679e-18)
(1.29873 0.520308 -2.3531e-17)
(1.30392 0.328738 4.88684e-18)
(0.00871166 1.65529 -3.37506e-17)
(0.00842749 1.6267 0)
(1.05136 0.0269722 0)
(1.02655 0.0143346 0)
(1.00681 -0.00165146 0)
(0.013403 3.0479 0)
(0.0127594 2.97029 -3.70621e-17)
(0.0104216 2.98159 0)
(0.00379908 2.91607 -1.97839e-17)
(0.0106234 3.05987 1.42502e-17)
(0.0105731 3.05411 0)
(0.862972 1.7671 -3.74197e-18)
(1.21455 2.34438 -8.21201e-18)
(0.944482 1.85356 -1.67397e-17)
(-0.0255994 2.924 3.38532e-17)
(-0.0225479 2.88813 0)
(-0.0203238 2.8411 0)
(-0.00977668 1.69706 6.53245e-17)
(0.00371176 1.69392 1.80175e-18)
(-0.00691054 1.64573 6.52281e-17)
(0.253139 1.30916 -1.65514e-17)
(0.320277 1.22292 -1.12112e-17)
(0.0366402 1.56394 -3.21088e-17)
(0.0753829 1.50556 -2.64902e-17)
(0.0620643 1.49746 -5.89175e-17)
(-0.0226657 3.07368 1.26506e-16)
(-0.0101423 3.06991 9.61473e-17)
(0.00484369 2.98682 2.23793e-17)
(-0.0106826 2.98162 -2.17161e-17)
(0.000171726 2.93261 3.45861e-17)
(0.0163812 3.06576 -8.24597e-17)
(-0.00622841 3.05868 -1.31129e-16)
(0.472148 0.851994 0)
(0.43319 0.772521 -2.11077e-18)
(0.341187 0.459003 -1.76548e-17)
(0.416625 1.05825 2.90112e-17)
(0.398848 0.959872 2.61787e-17)
(1.27747 0.205444 -2.95397e-18)
(1.30973 0.360887 0)
(1.27506 0.182895 2.47527e-18)
(-0.00510334 1.70011 2.88699e-20)
(0.0073668 1.68034 0)
(0.00259044 1.65525 0)
(0.299699 1.22535 1.36727e-18)
(0.353779 1.14472 -3.07846e-17)
(0.362824 1.11282 -3.09241e-17)
(1.00122 -0.0214489 0)
(1.00019 -0.00996097 1.08772e-17)
(0.000670824 1.77388 0)
(-0.00953069 1.78943 0)
(1.00319 -0.00125053 4.54493e-19)
(1.00354 0.00260649 1.28359e-17)
(0.001957 1.77555 -7.36423e-17)
(0.00036962 1.77626 0)
(-0.019228 2.98427 2.17712e-17)
(0.305578 3.01529 0)
(1.10799 0.709256 -2.47156e-17)
(1.00137 0.0059104 8.23388e-17)
(1.00322 -0.00701167 0)
(1.00507 -0.00219351 3.46009e-19)
(0.00394349 1.8521 0)
(0.00690824 1.67781 0)
(-0.00281667 1.80087 0)
(0.0238371 1.73476 -7.42593e-17)
(0.000139532 1.75324 7.14986e-17)
(0.988029 0.0141308 8.07035e-17)
(1.03389 0.0177705 0)
(1.05855 0.0304955 0)
(0.0110229 1.75988 0)
(0.0104369 1.75765 0)
(-0.00820335 1.77558 0)
(0.11131 1.83745 -8.28085e-17)
(1.00825 -0.0159623 0)
(1.00811 -0.0190878 0)
(0.998139 0.00319726 -2.19944e-17)
(0.994323 -0.00497829 2.77479e-17)
(0.997298 -0.00503233 0)
(0.00337826 1.75896 0)
(0.00183713 1.77041 0)
(0.00484758 1.759 0)
(-0.0025435 1.77872 0)
(-0.0185392 1.77655 0)
(-0.00822456 1.77285 0)
(1.01362 0.00727628 0)
(1.00958 0.00359116 8.25061e-17)
(0.785179 1.34339 3.28927e-19)
(0.999658 -0.00652615 2.23402e-17)
(0.998015 0.0028061 -2.74817e-17)
(1.00296 0.00269648 0)
(0.998101 0.00975763 3.28435e-17)
(1.00705 0.0113262 5.04176e-17)
(1.00295 0.00576159 0)
(0.011794 1.7631 0)
(0.00742511 1.76623 -3.77713e-17)
(0.00368547 1.76218 -3.29061e-17)
(1.14424 0.25696 -6.28128e-17)
(1.08906 0.0839683 0)
(-0.216751 2.98158 3.14792e-17)
(-0.238824 3.20933 8.56794e-19)
(-0.0254526 3.03495 4.12929e-17)
(-0.0296283 2.98989 3.68198e-17)
(0.0486908 2.96471 0)
(-0.0247563 3.0343 1.18838e-17)
(-0.0868493 3.13526 1.90105e-17)
(-0.0755765 3.02528 1.96574e-17)
(-0.0532495 3.10029 0)
(0.646517 0.346631 0)
(0.509598 0.388065 0)
(1.08345 0.829193 2.60713e-17)
(1.06364 0.882394 4.02792e-17)
(1.12808 0.620791 0)
(1.14229 0.564482 0)
(1.00356 0.00521231 1.78852e-17)
(1.00194 0.00587214 -1.94411e-17)
(1.00606 -0.00551032 0)
(1.00617 -0.00617561 0)
(1.00768 0.00274154 0)
(1.00955 0.00849023 0)
(1.00622 0.00415245 0)
(1.00472 0.00923828 0)
(1.00292 0.00439473 0)
(0.993735 0.00500284 0)
(0.0142166 1.85077 0)
(-0.00427128 1.85805 0)
(0.0332759 1.85762 0)
(0.0151972 1.86581 0)
(0.00967013 1.66912 0)
(0.0126141 1.67022 3.51004e-17)
(0.0197887 1.67931 0)
(0.00943305 1.67595 3.06079e-17)
(0.0347635 1.69799 -6.63748e-17)
(-0.00948885 1.80416 0)
(-0.000152702 1.79901 0)
(0.00535909 1.80856 0)
(-0.00335487 1.82521 0)
(0.0345126 1.76817 -7.1722e-17)
(-0.0143925 1.74181 -4.79656e-17)
(0.0216867 1.74272 3.51089e-17)
(0.00209435 1.75228 0)
(0.0229999 1.75829 3.23215e-17)
(0.0086904 1.76265 -6.82989e-17)
(0.00221942 1.78688 -1.12337e-16)
(-0.00317517 1.73415 -4.44949e-17)
(0.0214948 1.73983 3.92036e-17)
(0.992277 0.0168338 -1.23217e-17)
(0.996839 0.00289537 1.73032e-17)
(0.987212 0.0294315 1.67597e-17)
(0.973709 0.021874 -1.64056e-17)
(1.0303 0.00980861 0)
(1.03441 0.00759595 0)
(1.04577 0.0321542 0)
(1.03333 0.0193744 0)
(1.04477 0.0133342 0)
(1.08174 0.0646194 0)
(1.06344 0.0584122 0)
(1.0819 0.0409737 0)
(0.0015103 1.76868 9.67205e-18)
(0.01318 1.74454 0)
(-0.00375317 1.75272 0)
(0.0023745 1.758 -1.47713e-17)
(0.00487908 1.76051 3.54923e-20)
(-0.00529006 1.78214 4.24212e-17)
(-0.0162643 1.77293 4.35966e-17)
(1.54985e-05 1.77081 0)
(-0.0266862 1.77559 0)
(-0.00941774 1.76888 0)
(0.00104244 1.77858 0)
(-0.00297055 1.78543 0)
(0.219404 1.79979 -5.05528e-17)
(0.27411 1.74461 4.17217e-17)
(0.314598 1.53608 4.19065e-19)
(0.152257 1.59645 2.73626e-17)
(0.131493 1.84451 3.49156e-17)
(1.00331 -0.0169758 0)
(1.0069 -0.0144108 0)
(1.00469 -0.0174205 0)
(1.00916 -0.0029255 0)
(0.99787 -0.00642176 0)
(0.989128 -0.0041377 0)
(1.00127 -0.00962405 0)
(0.997077 -0.00899383 0)
(1.00917 0.000622274 -1.26204e-17)
(1.01219 -0.0012993 1.87516e-17)
(1.00841 0.00706133 1.71452e-17)
(1.00355 0.00669329 -1.82006e-17)
(0.732096 1.43382 0)
(0.657672 1.46742 -7.17732e-17)
(0.858544 1.29925 7.11617e-17)
(0.919074 1.23297 6.20448e-17)
(1.01584 2.17594 -2.95428e-17)
(0.812863 0.12485 -2.16515e-17)
(1.09899 0.129051 0)
(1.15617 0.194197 -8.7573e-17)
(1.14282 0.138271 3.0357e-19)
(0.952686 0.139634 0)
(-0.0798318 2.722 4.79158e-17)
(-0.356419 2.62897 7.2476e-17)
(-0.772134 2.66986 4.01054e-18)
(-0.609407 0.236339 -1.0118e-17)
(0.210193 3.00207 -1.55266e-17)
(0.0573167 2.99615 0)
(0.140904 2.97804 -6.84185e-18)
(0.0254503 2.72148 8.21194e-17)
(0.194978 2.74473 0)
(-0.0209781 3.0605 -5.65618e-19)
(-0.0327317 3.07263 -2.03084e-17)
(-0.00441338 3.1008 -3.25068e-17)
(-0.033968 3.11477 0)
(-0.0466867 3.05808 0)
(1.17509 2.20014 0)
(0.532193 1.0692 4.93553e-17)
(1.01881 1.06897 -3.52241e-17)
(0.978872 1.17266 0)
(0.850454 1.04617 -1.27163e-17)
(1.04591 1.00739 -5.99573e-17)
(0.185595 0.41943 1.26639e-18)
(0.659434 0.349229 1.17108e-17)
(0.690886 0.31153 1.08839e-17)
(0.458627 0.455345 -3.02878e-20)
(0.431433 0.39999 5.83583e-18)
(0.607653 0.389795 0)
(0.586257 0.474766 8.39426e-18)
(0.606168 0.433333 0)
(0.534036 0.419744 0)
(0.586555 0.359815 0)
(0.692215 0.677862 3.06518e-17)
(1.15253 0.32758 4.14055e-17)
(1.17022 0.457286 0)
(1.17577 0.386821 0)
(0.762719 0.232336 1.69954e-17)
(0.733839 0.640569 3.65592e-17)
(0.620323 0.56507 8.12857e-18)
(0.863041 0.434493 -7.52071e-17)
(1.008 -0.000675049 2.87229e-17)
(1.00396 0.0131235 4.92895e-17)
(1.00496 0.00900081 0)
(1.00955 0.0159227 0)
(1.00165 -0.0032513 -2.81488e-17)
(1.00173 0.00224045 -4.70709e-17)
(1.00784 5.5122e-05 0)
(1.00065 0.00173866 0)
(1.01269 0.00421915 0)
(1.00941 0.0051445 0)
(1.01675 0.00334342 0)
(1.01259 -0.000785608 0)
(0.0113789 1.85286 0)
(0.0122646 1.84536 0)
(0.0100541 1.83462 -4.8608e-17)
(0.0828024 1.85917 -3.72149e-17)
(0.051265 1.8754 7.83188e-17)
(0.0355476 1.87067 2.95235e-17)
(0.0291089 1.83039 0)
(0.0362835 1.78539 7.2417e-17)
(0.00887062 1.7758 0)
(0.102504 1.83133 3.78311e-17)
(0.155126 1.72163 -4.58847e-17)
(0.042134 1.80308 6.66674e-17)
(0.0770359 1.8082 -3.84136e-17)
(0.0374807 1.82205 -4.13399e-17)
(0.0440594 1.78873 -6.71745e-18)
(0.0568174 1.80286 0)
(0.0870765 1.80049 -5.30439e-17)
(0.0335532 1.72004 6.2186e-18)
(0.0320374 1.68573 0)
(0.01169 1.69624 -7.25721e-17)
(0.01719 1.69547 0)
(0.0229618 1.67576 3.43554e-17)
(0.0220053 1.67945 0)
(0.0310342 1.77015 5.39603e-17)
(0.0524584 1.77863 0)
(0.0291446 1.79764 0)
(0.0175997 1.79293 5.0114e-17)
(0.00662407 1.71893 -1.14262e-16)
(0.038409 1.7075 -6.94585e-17)
(0.0153702 1.7199 -1.94317e-20)
(0.00652222 1.75472 7.4038e-17)
(-0.0100933 1.78036 -3.86803e-17)
(-0.00555225 1.79492 0)
(-0.00951213 1.80003 0)
(0.0369069 1.76829 2.7863e-17)
(0.0295414 1.80396 2.34942e-17)
(0.0385249 1.78293 6.07025e-17)
(0.0262564 1.76971 0)
(0.00220305 1.75653 1.00743e-16)
(-0.00578602 1.75758 1.59212e-17)
(0.00463394 1.76383 -1.8642e-17)
(0.0121631 1.77013 7.62552e-17)
(0.0158777 1.73365 -3.50963e-18)
(0.00640014 1.74101 -4.46848e-17)
(0.999125 0.012277 4.85261e-17)
(0.996474 0.00194282 2.8773e-17)
(0.995674 0.00540985 0)
(0.98686 0.0594384 -6.99077e-17)
(0.964137 0.0454918 1.69022e-17)
(0.947187 0.0317765 -9.46508e-18)
(0.984551 0.102498 1.86307e-18)
(1.01992 0.00974093 0)
(1.02472 0.0154118 -4.78865e-17)
(1.02708 0.00823643 -2.87874e-17)
(1.02359 0.0371464 3.3392e-18)
(1.02378 0.029227 -1.06383e-17)
(1.00322 0.0376178 0)
(0.992086 0.0358088 5.18657e-19)
(0.994898 0.0258583 0)
(0.996125 0.0265421 0)
(1.0073 0.0187578 0)
(0.999799 0.00845949 0)
(0.997745 0.0271513 3.40562e-18)
(1.00129 0.0213826 3.05071e-17)
(1.01844 0.0379103 -5.16043e-18)
(1.00122 0.0302265 1.06466e-17)
(1.00104 0.0541899 2.54311e-17)
(1.03116 0.053585 0)
(1.02978 0.0904742 0)
(0.00573421 1.76426 -5.13037e-17)
(0.0230165 1.74402 -7.76339e-19)
(-0.000653332 1.75719 0)
(0.0135162 1.76771 -5.29586e-17)
(0.0116625 1.77112 8.65314e-18)
(0.011512 1.76315 -3.77498e-18)
(0.000595907 1.76125 -7.58796e-17)
(0.00834325 1.75734 -1.23504e-19)
(0.00958796 1.7529 -5.10085e-18)
(-0.00355185 1.75844 3.35553e-17)
(-0.000202972 1.7627 3.22205e-17)
(0.00553901 1.76733 -2.24729e-17)
(-0.00222035 1.76919 -3.81955e-17)
(0.114468 1.7063 2.46316e-17)
(0.0865105 1.7801 -9.42955e-18)
(0.594425 1.54757 -8.10995e-17)
(0.392906 1.67986 3.74644e-17)
(0.48151 1.61439 0)
(0.3446 1.54141 -3.914e-18)
(0.405256 1.46864 -8.74463e-19)
(0.20983 1.5709 -7.17473e-18)
(0.207513 1.63847 -3.09893e-17)
(0.26882 1.6692 -2.91953e-17)
(0.29576 1.54652 0)
(0.230849 1.55689 -1.16535e-17)
(0.0673125 1.64646 -8.07925e-19)
(0.121942 1.61802 6.03031e-17)
(0.0588765 1.62862 8.46648e-18)
(0.74078 1.80333 -3.65167e-17)
(0.56199 1.59535 0)
(1.01578 -0.00325131 -2.83415e-19)
(1.00057 -0.0140498 3.31843e-19)
(1.00143 -0.0161631 -6.39454e-18)
(1.02315 -0.00602868 -1.65071e-17)
(1.02189 -0.00280226 0)
(0.663738 1.22488 0)
(0.688507 1.15969 0)
(0.760486 1.20279 0)
(0.741705 1.11313 0)
(0.998751 2.22249 2.81902e-17)
(0.899916 2.01316 0)
(0.699599 2.20901 -1.08968e-18)
(0.477907 2.14917 0)
(0.603901 2.20825 7.32635e-17)
(0.688068 2.18965 6.45384e-17)
(0.809021 0.15456 0)
(0.79627 0.155153 -1.37163e-18)
(0.871922 0.1347 6.65751e-18)
(0.826133 0.119366 -2.71738e-17)
(0.839869 0.0902513 1.78618e-18)
(1.00394 0.242855 -2.31502e-17)
(0.880161 0.307838 2.78653e-17)
(0.854382 0.287894 2.31111e-17)
(0.930571 0.208196 1.04815e-17)
(0.883473 0.165122 4.1813e-17)
(0.876062 0.180444 -1.09986e-17)
(0.891855 0.243974 2.34164e-18)
(0.866603 0.211149 0)
(0.94714 0.185174 1.99233e-17)
(0.983698 0.180738 0)
(0.970417 0.233359 0)
(1.03433 0.128386 -1.32127e-17)
(0.997443 0.185023 3.06663e-17)
(0.989254 0.216199 2.13449e-17)
(1.04705 0.209491 0)
(0.991679 0.0282741 -3.77327e-17)
(0.996229 0.0296289 2.72691e-17)
(1.00002 0.0349594 -2.3472e-17)
(1.00654 0.0492762 4.3562e-17)
(0.98776 0.0554535 -5.15305e-17)
(0.922847 0.13821 0)
(0.952756 0.0809479 0)
(0.940042 0.0483782 4.45147e-17)
(0.915158 0.0521995 8.00355e-18)
(1.0008 0.10616 -3.99517e-17)
(1.00466 0.13822 -2.29813e-17)
(1.00786 0.159874 -1.13691e-17)
(0.986906 0.159058 0)
(1.01062 0.0956758 0)
(1.00477 0.0853508 3.59562e-17)
(0.99634 0.0880079 -2.39072e-17)
(0.780389 1.39729 2.53462e-17)
(0.795691 1.67311 -1.93265e-17)
(0.996415 2.29283 2.00824e-17)
(1.0402 2.53084 -2.62544e-18)
(1.06803 2.2751 -2.35883e-17)
(1.14268 2.2921 4.03565e-18)
(1.11589 2.02582 8.02816e-18)
(1.06282 2.44408 -1.4043e-17)
(1.05989 2.43728 -1.59862e-17)
(1.09674 2.62567 -1.91265e-18)
(1.21772 2.49153 2.98942e-18)
(1.28186 2.43647 0)
(0.498742 1.12198 -3.23708e-18)
(-0.176248 1.43319 -1.48968e-17)
(0.0453938 0.608617 -7.44984e-18)
(-0.100426 0.810605 -1.7901e-17)
(0.355435 0.454546 -9.41155e-18)
(0.367821 0.506931 4.09661e-18)
(0.316054 0.589208 -7.2516e-18)
(0.229007 0.479143 2.86539e-18)
(0.329674 0.381308 -8.02624e-18)
(0.740972 0.270099 2.42919e-17)
(0.699493 0.302821 0)
(0.724368 0.268288 6.00124e-18)
(0.592433 0.566232 -1.20076e-17)
(0.518589 0.533839 1.48998e-17)
(0.427051 0.585312 -5.73856e-18)
(0.498566 0.481277 0)
(0.585672 0.931706 -2.47732e-17)
(0.768148 0.859501 4.5565e-17)
(0.702654 1.0201 5.11256e-17)
(0.793691 0.882911 1.34707e-17)
(0.916898 0.902886 -4.03989e-18)
(0.916627 0.951849 -5.72149e-18)
(0.774198 0.75092 6.27879e-18)
(0.832926 0.800076 9.34844e-18)
(0.931672 0.833961 0)
(0.933659 0.730128 2.58746e-17)
(0.935508 0.322722 4.91277e-17)
(1.0607 0.310388 -2.0559e-17)
(0.985976 0.288783 -4.98438e-17)
(0.899924 0.397553 4.75981e-17)
(0.981645 0.454696 0)
(1.02373 0.425599 0)
(0.772865 0.403825 4.91292e-17)
(0.79408 0.28674 0)
(0.78652 0.284491 -1.5057e-17)
(0.838568 0.314172 6.69033e-17)
(0.825976 0.498184 -8.75809e-17)
(0.765158 0.557753 -1.29489e-18)
(0.790298 0.506693 8.6628e-18)
(0.709079 0.471825 -2.25303e-18)
(0.697431 0.490012 -6.32958e-18)
(0.642604 0.471324 -3.36606e-19)
(1.01816 0.0138099 -4.77386e-17)
(1.01553 0.00162184 0)
(1.02325 0.00894523 9.5977e-18)
(1.00858 0.0177853 -1.19837e-17)
(1.01888 0.00977471 -2.43662e-17)
(1.01126 0.0128867 4.71355e-18)
(1.00503 0.00722447 0)
(1.00812 -0.000870923 1.31705e-17)
(1.01677 0.00680986 -1.79557e-18)
(1.01073 0.00480154 -2.74089e-18)
(1.012 0.00349936 8.21438e-18)
(-0.00716739 1.82381 0)
(0.0140979 1.8215 0)
(0.0212047 1.83681 0)
(0.00145694 1.83233 0)
(0.023314 1.83224 -7.08787e-18)
(0.0113792 1.84231 -1.05289e-16)
(0.00196921 1.78213 -3.16333e-17)
(0.0018623 1.84436 -8.47327e-17)
(0.0199517 1.80605 5.6848e-17)
(0.0340019 1.8215 5.95323e-17)
(0.0241518 1.84169 1.17761e-16)
(0.0243898 1.84249 5.70163e-17)
(0.0184033 1.82866 1.00347e-17)
(0.0136022 1.83571 1.56091e-18)
(0.0120161 1.69447 -6.69831e-17)
(0.0250354 1.70348 0)
(0.0101105 1.73102 -4.03828e-17)
(-0.000836398 1.77429 -5.39093e-18)
(0.0766582 1.73548 -1.73086e-17)
(0.0742159 1.66339 0)
(0.0813422 1.66782 5.46176e-17)
(0.100151 1.69733 4.71425e-17)
(0.0539178 1.73264 -6.02806e-17)
(0.0331755 1.73254 -8.12931e-17)
(0.012317 1.65939 0)
(0.0321459 1.74602 3.28092e-17)
(0.0219474 1.71477 -2.02019e-17)
(0.0278934 1.74285 0)
(0.0387971 1.7198 2.06281e-17)
(0.0237105 1.72734 1.65923e-17)
(0.00192227 1.7835 9.23878e-18)
(-0.00502012 1.77781 -9.69239e-17)
(-0.0141134 1.77487 -6.52602e-17)
(-0.0168604 1.76954 4.51877e-17)
(0.00476164 1.76849 0)
(0.0154112 1.78077 0)
(0.00422946 1.78209 -3.86809e-17)
(0.00308616 1.76859 -3.48568e-18)
(0.00520182 1.77593 0)
(-0.0032868 1.79348 3.23013e-17)
(0.00143621 1.7868 1.39782e-18)
(1.0121 0.0286525 0)
(1.01625 0.0246379 3.92254e-19)
(0.998817 0.0187091 4.45732e-17)
(1.01174 0.0175672 0)
(1.00874 0.0110267 0)
(1.00817 0.00156295 2.09816e-17)
(1.00789 0.00890752 -5.51805e-17)
(1.0019 0.00470537 -1.89326e-17)
(1.00005 0.00489644 0)
(1.00591 0.00829034 0)
(1.0007 0.0129835 2.7759e-17)
(0.998706 0.0140499 0)
(1.00545 0.0117158 0)
(-0.00632213 1.76426 0)
(0.001448 1.76639 -4.05606e-17)
(0.00302316 1.75271 4.17715e-17)
(0.00363522 1.76435 0)
(0.00953802 1.77522 -3.84963e-17)
(-0.000480656 1.7704 -1.84941e-17)
(-0.00269173 1.76646 0)
(0.17578 2.04232 0)
(0.0174407 1.82361 2.51144e-17)
(0.0656488 1.88959 0)
(0.0840637 1.7087 7.80034e-17)
(0.241174 1.50895 0)
(0.173684 1.6672 3.45975e-17)
(0.816267 2.23042 -2.41639e-19)
(0.755607 1.88395 -2.41071e-17)
(0.756542 1.80069 -2.29856e-17)
(0.59819 1.65085 -8.30611e-18)
(0.552376 2.00025 0)
(0.615828 2.05371 0)
(0.702452 1.76167 0)
(0.68101 1.63542 -2.01649e-18)
(0.293078 2.09967 -3.69198e-17)
(0.452725 2.01906 4.01089e-18)
(0.411003 2.15066 2.31965e-18)
(0.437558 1.52639 0)
(0.515332 1.57073 0)
(0.494835 1.50159 1.11806e-18)
(0.422309 1.88002 0)
(0.77652 1.12525 0)
(0.66095 1.17 -6.05256e-17)
(0.634608 1.10692 -5.75842e-18)
(0.769041 1.15353 0)
(0.700239 1.22172 -7.26967e-17)
(0.74364 1.05351 -9.25602e-18)
(0.799498 1.15751 0)
(0.801372 1.07681 -2.99995e-17)
(0.740927 1.18688 0)
(0.66212 1.12513 0)
(0.95035 2.33922 1.44949e-17)
(0.966234 2.37834 -9.11428e-18)
(0.861687 2.14345 -4.00956e-17)
(0.83734 2.1604 -2.58107e-18)
(0.921444 2.30649 0)
(0.85454 2.31385 -5.19269e-18)
(0.860849 2.11915 -4.21165e-18)
(0.799896 1.92059 -7.49384e-18)
(0.562381 1.8779 0)
(0.61999 1.31486 3.10607e-17)
(0.623151 1.29302 0)
(0.82489 0.201769 0)
(0.793098 0.190974 0)
(0.767261 0.2007 0)
(0.819781 0.240216 -6.10088e-18)
(0.768705 0.225949 4.18103e-18)
(0.920294 0.075682 1.38964e-17)
(0.904207 0.117282 0)
(0.872778 0.0998392 -1.12035e-18)
(0.856965 0.0759678 -6.15511e-18)
(0.871526 0.0521454 -4.08058e-18)
(1.07031 2.77221 -1.59181e-17)
(1.02392 2.67743 0)
(0.967867 2.8507 -5.38318e-17)
(0.612468 3.05251 -2.84116e-17)
(0.76027 2.59134 1.28975e-17)
(0.493061 1.22837 -2.60274e-17)
(0.565558 1.15974 0)
(0.242998 0.833881 6.92296e-18)
(0.265245 0.957577 3.88509e-17)
(0.19898 0.79139 1.00626e-17)
(0.268924 0.633558 4.72508e-18)
(0.4856 0.607571 -9.59502e-18)
(0.519662 0.659634 0)
(0.476236 0.773683 0)
(0.35888 0.732795 0)
(0.910839 0.670958 9.80006e-18)
(0.836493 0.601744 8.6749e-18)
(0.847046 0.634357 -4.03124e-18)
(0.860251 0.525589 2.10891e-17)
(0.967612 0.552956 0)
(0.950487 0.603822 -1.01202e-17)
(0.747528 0.428356 1.17127e-17)
(0.757395 0.378145 2.6924e-17)
(0.687466 0.421948 -5.25433e-18)
(0.691018 0.397138 3.46624e-18)
(0.768515 0.338964 -7.76401e-18)
(0.736472 0.328158 -1.746e-17)
(1.02005 0.0069272 -3.63152e-17)
(1.01793 0.00229916 -3.66468e-17)
(1.02416 0.0152488 3.42667e-17)
(1.02146 0.0140917 5.15437e-17)
(1.00797 0.0232111 0)
(0.997115 0.010966 -1.1049e-17)
(0.0387578 1.76406 2.56065e-17)
(0.0364498 1.78435 0)
(0.0103621 1.769 -4.63299e-17)
(0.00214053 1.76635 -5.50824e-17)
(-0.00253324 1.78266 -3.57558e-17)
(0.0145426 1.79453 0)
(0.0274927 1.77948 0)
(0.0160516 1.77115 -1.87509e-17)
(0.00300095 1.75869 -1.94507e-17)
(-0.000749917 1.76669 -4.81373e-17)
(-0.00898739 1.76582 -9.63919e-18)
(0.0221977 1.76929 -4.24013e-18)
(0.424209 1.85432 -1.06712e-16)
(0.283377 1.89213 -1.27518e-16)
(0.159308 1.70215 7.51793e-17)
(0.149561 1.94885 -4.874e-18)
(0.556002 1.2765 0)
(0.340834 1.45617 7.51473e-17)
(0.435828 1.33821 6.48796e-17)
(0.232653 1.42422 6.46096e-17)
(0.390525 1.44234 0)
(0.522079 1.24965 0)
(0.269168 2.04464 -4.69737e-17)
(0.337609 1.76956 -6.55797e-17)
(0.381937 1.84263 -5.29716e-17)
(0.30565 1.72893 -2.07718e-18)
(0.216098 1.90781 1.70427e-18)
(0.249127 1.70136 -1.80602e-17)
(0.760405 1.95117 -9.45037e-18)
(0.800024 2.01706 0)
(0.764814 1.8602 5.28154e-18)
(0.849488 2.27005 0)
(0.821247 2.25426 0)
(0.574894 1.98789 -1.69641e-18)
(0.971977 2.51088 -2.31769e-18)
(0.845977 2.49354 -1.84186e-18)
(0.159386 1.23514 0)
(0.189081 1.16957 -1.41133e-17)
(0.472786 1.12232 -3.40606e-17)
(0.341943 1.91605 0)
(0.369493 2.34777 5.91937e-18)
(0.19656 2.29804 0)
(0.631851 0.84029 -1.22837e-17)
(0.662685 0.82303 -4.9042e-17)
(0.678807 0.762651 -2.00042e-17)
(0.511237 0.798368 -1.53964e-18)
(0.578462 0.693414 2.30096e-18)
(0.894066 2.30415 -1.05767e-17)
(0.95916 2.29413 -6.76143e-18)
(0.64501 1.92461 7.96191e-18)
(0.6844 1.66475 2.95193e-17)
(0.830984 1.76413 3.9458e-17)
(0.927983 2.08826 -2.84063e-17)
(0.930446 2.09017 -1.97178e-17)
(0.747053 1.68984 5.9881e-19)
(0.703021 1.42763 3.1067e-17)
)
;

boundaryField
{
    wall-4
    {
        type            calculated;
        value           uniform (0 0 0);
    }
    velocity-inlet-5
    {
        type            calculated;
        value           uniform (1 0 0);
    }
    velocity-inlet-6
    {
        type            calculated;
        value           uniform (0 3 0);
    }
    pressure-outlet-7
    {
        type            calculated;
        value           nonuniform List<vector> 8((-0.00719411 1.71671 0) (-0.00846807 1.67918 5.56206e-17) (0.00405586 1.76775 0) (-0.0100562 1.79002 0) (0.00629954 1.75227 0) (0.00399393 1.76697 0) (0.00327961 1.75082 0) (0.000207728 1.77072 0));
    }
    wall-8
    {
        type            calculated;
        value           uniform (0 0 0);
    }
    frontAndBackPlanes
    {
        type            empty;
    }
}

