/*--------------------------------*- C++ -*----------------------------------*\
  =========                 |
  \\      /  F ield         | OpenFOAM: The Open Source CFD Toolbox
   \\    /   O peration     | Website:  https://openfoam.org
    \\  /    A nd           | Version:  6
     \\/     M anipulation  |
\*---------------------------------------------------------------------------*/
FoamFile
{
    version     2.0;
    format      ascii;
    class       volScalarField;
    location    "0";
    object      p;
}
// * * * * * * * * * * * * * * * * * * * * * * * * * * * * * * * * * * * * * //

dimensions      [0 2 -2 0 0 0 0];

internalField   nonuniform List<scalar> 
13046
(
0.412796
0.387026
0.432977
0.418983
0.431602
0.395351
0.403221
0.398397
0.43677
0.220787
0.121376
0.401153
0.406067
0.354409
0.427558
0.27047
0.400082
0.151515
0.437281
0.421065
0.407621
0.262912
0.402355
0.147858
0.415247
0.410284
0.427653
0.393943
0.356264
0.428482
0.42189
0.366831
0.4262
0.424821
0.432758
0.406785
0.423042
0.435145
0.415578
0.419699
0.418324
0.361671
0.419464
0.435835
0.424361
0.420311
0.427161
0.423231
0.403376
0.38503
0.43364
0.386291
0.419814
0.327165
0.393137
0.314467
0.423119
0.237391
0.362617
0.404221
0.354553
0.334711
0.424422
0.408741
0.216933
0.296919
0.373117
0.243726
0.400114
0.383114
0.254117
0.400914
0.218364
0.353124
0.403701
0.437
0.431072
0.394896
0.406278
0.330278
0.211422
0.411055
0.405424
0.427135
0.405906
0.196949
0.278853
0.273854
0.411396
0.237938
0.407247
0.235078
0.237355
0.360555
0.347169
0.300392
0.289425
0.417301
0.419224
0.412983
0.273606
0.251061
0.420558
0.430759
0.41762
0.432845
0.339267
0.398134
0.419308
0.408368
0.344796
0.145258
0.396554
0.0380813
0.408708
0.368411
0.42504
0.3501
0.360036
0.268167
0.413129
0.291092
0.414258
0.20596
0.0986639
0.39974
0.387135
0.314783
0.426776
0.416906
0.418833
0.359642
0.407658
0.246972
0.261172
0.325035
0.266807
0.415387
0.416272
0.35814
0.423116
0.375058
0.390048
0.428291
0.416038
0.39653
0.346749
0.430516
0.35357
0.406774
0.351797
0.316393
0.422293
0.44079
0.379155
0.405239
0.366676
0.314453
0.355371
0.311533
0.42206
0.422043
0.375314
0.372403
0.425331
0.21439
0.401901
0.129914
0.171571
0.397542
0.0583302
0.319752
0.251018
0.414185
0.417487
0.322563
0.41517
0.377362
0.425758
0.381488
0.405292
0.160852
0.221687
0.418271
0.337104
0.409852
0.438938
0.368552
0.399927
0.38304
0.391459
0.427445
0.347322
0.431838
0.389896
0.332267
0.42406
0.268027
0.408215
0.208502
0.411988
0.268947
0.265318
0.239576
0.228339
0.40641
0.37839
0.301484
0.412166
0.392862
0.335171
0.4012
0.21067
0.203907
0.234845
0.406307
0.416777
0.435232
0.415206
0.399744
0.361433
0.426152
0.412065
0.258874
0.271896
0.38491
0.356245
0.434368
0.399732
0.0903154
0.174445
0.413294
0.301109
0.370624
0.256933
0.247715
0.409969
0.33836
0.366723
0.428265
0.380554
0.31965
0.426239
0.305789
0.2686
0.408709
0.2989
0.342373
0.416448
0.399564
0.089435
0.158051
0.424666
0.412973
0.332596
0.16755
0.394988
0.00471144
0.432909
0.412235
0.414049
0.348897
0.350312
0.360157
0.371068
0.430727
0.423509
0.399512
0.318761
0.192007
0.391086
0.328775
0.421015
0.297908
0.321547
0.41759
0.334237
0.267974
0.414083
0.424967
0.417534
0.435708
0.327227
0.353127
0.423493
0.393597
0.313844
0.420005
0.387695
0.385895
0.426722
0.406286
0.319177
0.325377
0.338649
0.421679
0.316838
0.412352
0.258844
0.432247
0.40831
0.349025
0.422028
0.303408
0.359462
0.365348
0.2756
0.409944
0.420682
0.390586
0.322686
0.352629
0.347151
0.264233
0.408707
0.258506
0.411717
0.405062
0.172885
0.235783
0.367011
0.303568
0.416915
-0.0290013
0.394969
0.1051
0.400071
0.429717
0.39906
0.365785
0.34547
0.425126
0.410795
0.28422
0.229473
0.386947
0.301712
0.420789
0.290029
0.266644
0.410096
0.378544
0.430356
0.357622
0.335759
0.424367
0.3705
0.432843
0.289287
0.401743
0.171205
0.38569
0.286289
0.41391
0.348304
0.32526
0.420674
0.368469
0.381995
0.431522
0.342946
0.388084
0.426539
0.414932
0.386739
0.432778
0.415236
0.306948
0.365822
0.255182
0.215452
0.408021
0.295408
0.265691
0.412925
0.387549
0.398068
0.277586
0.341379
0.350225
0.247414
0.229856
0.401975
0.405194
0.395255
-0.0141004
0.124857
0.181797
0.395433
0.0188132
0.341625
0.351218
0.419397
0.406375
0.26167
0.188587
0.375566
0.372302
0.278201
0.267168
0.410306
0.407644
0.401634
0.176581
0.196461
0.155073
0.393935
-0.0180178
0.405835
0.433735
0.428408
0.145784
0.0123989
0.396151
0.412329
0.321723
0.411664
0.226732
0.171711
0.405663
-0.00976341
0.396252
0.0546132
0.423145
0.416475
0.372895
0.401895
0.421258
0.432271
0.212082
0.399824
0.0905926
0.395054
0.413869
0.432033
0.41172
0.433223
0.430347
0.418758
0.286039
0.371962
0.389601
0.427233
0.432677
0.403281
0.400839
0.428693
0.394951
0.284154
0.396836
0.402302
0.404148
0.147304
0.145542
0.247256
0.241672
0.234803
0.204798
0.406428
0.404088
0.385771
0.257661
0.417147
0.406765
0.344021
0.290503
0.336564
0.410614
0.0513743
0.39647
0.0867305
0.406957
0.230297
0.222708
0.181456
0.398858
0.0800533
0.396726
-0.0292717
0.0503042
-0.0628792
0.395977
0.0825023
0.320312
0.321268
0.417041
0.129155
0.398892
0.149403
0.310051
0.265365
0.415263
0.252714
0.394984
0.102108
0.400324
0.428381
0.388727
0.193412
0.403792
0.210399
0.295202
0.411662
0.344217
0.315146
0.298542
0.419316
0.397852
-0.119129
-0.000320849
-0.00242177
0.395373
0.0858831
0.407845
0.432997
0.389393
0.168097
0.1941
0.402759
0.401615
0.175202
0.164473
0.261791
0.40548
0.188243
0.402096
0.200105
0.308012
0.403748
0.27619
0.398662
0.249553
0.362007
0.409834
0.40015
0.296977
0.156532
0.404012
0.398576
0.332659
0.319849
0.418689
0.421115
0.408512
0.335669
0.417164
0.384865
0.268729
0.411585
0.304652
0.280956
0.414305
0.196119
0.233312
0.407592
0.4127
0.284274
0.283878
-0.0612534
0.395652
0.101817
0.42711
0.422452
0.426617
0.369629
0.430433
0.376921
0.400818
0.394802
0.408857
0.286997
0.410216
0.309712
0.000505238
0.39584
0.0575623
0.176616
0.207553
0.404159
0.412903
0.395486
0.320313
0.319634
0.277379
0.411973
0.402491
0.208427
0.318548
0.0439113
0.128644
0.397623
0.0673001
0.136779
0.398144
0.373827
0.27887
0.414524
0.434293
0.403092
0.359688
0.251618
0.40387
0.164539
0.31259
0.3073
0.419817
0.412028
0.231414
0.310777
0.399531
0.410322
0.311743
0.343737
0.373461
0.424927
0.422569
0.414006
0.352579
0.403571
0.157044
0.235086
0.335812
0.258557
0.41219
0.427474
0.421445
0.376337
0.280486
0.396986
0.135409
0.406017
0.359924
0.425434
0.390253
0.390912
0.435021
0.325773
0.309621
0.418288
0.208814
0.39524
0.0511929
0.222557
0.394858
0.0602016
0.410253
0.222626
0.311482
0.327732
0.378899
0.420097
0.39316
0.0228941
0.186896
0.412461
0.245473
0.297428
0.396233
-0.048142
0.0292824
0.0649403
-0.0827548
0.394793
0.402795
0.17004
0.299405
0.401688
0.120355
0.196936
0.270506
0.281514
0.401973
0.162555
0.40467
0.18624
0.287634
0.25523
0.412942
0.417452
0.331222
0.271094
0.428276
0.428281
0.384628
0.295808
0.274873
0.415709
0.416305
0.300789
0.285544
0.309545
0.39993
0.165535
0.396677
0.274279
0.408844
0.404472
0.312488
0.407526
0.326914
0.313436
0.421785
0.319974
0.307635
0.420524
0.429832
0.41543
0.388123
0.397765
0.308586
0.423247
0.404249
0.20209
0.204902
0.12505
0.398215
0.0739488
0.106862
0.398067
0.075227
0.416065
0.418744
0.347715
0.0270841
0.39694
0.103059
0.325774
0.410645
0.234774
0.39628
0.0330639
0.0810547
0.419319
0.433181
0.403444
0.381198
0.344276
0.425613
0.381554
0.330604
0.422167
0.400362
0.14181
0.168198
0.309767
0.309528
0.418587
0.397032
0.268405
0.127545
0.366941
0.335166
0.426465
0.430783
0.431756
0.390036
0.141283
0.181485
0.401725
0.411719
0.23085
0.297408
0.201995
0.186052
0.396961
0.396461
0.0667127
0.0480587
0.36136
0.367321
0.429728
0.330569
0.330891
0.417892
0.395219
0.396493
0.437659
0.101128
0.143768
0.107163
0.399244
0.14109
0.398616
0.347042
0.298332
0.422215
0.180767
0.162734
0.128299
0.109787
0.401725
0.400169
0.329132
0.345093
0.427078
0.378702
0.360869
0.427677
0.23885
0.396747
0.0912943
0.374265
0.353077
0.428074
0.394409
0.379532
0.431815
0.208517
0.3954
0.0697513
0.373146
0.31074
0.419689
0.356759
0.28022
0.412952
0.404161
0.295071
0.40623
0.275035
0.406729
0.246447
0.396707
-0.0961747
0.0207584
0.364786
0.346543
0.425926
0.250146
0.399016
0.123841
0.392761
0.280057
0.408597
0.106217
0.393189
-0.0446373
0.432827
0.426645
0.401977
0.372571
0.402739
0.364128
0.3984
0.397052
0.435056
0.424284
0.431694
0.41105
0.374987
0.421027
0.370281
0.373209
0.368848
0.433872
0.379528
0.371997
0.432934
0.397715
0.0887411
0.114925
0.41303
0.346616
0.415253
0.198767
0.136581
0.402553
0.325201
0.314895
0.297811
0.279454
0.417916
0.415001
0.408113
0.365083
0.420525
0.384078
0.291185
0.409696
0.345632
0.318919
0.424442
0.42843
0.407403
0.425839
0.308696
0.284713
0.416925
0.42436
0.421421
0.388968
0.341913
0.339882
0.426141
0.382235
0.305347
0.410566
0.427359
0.428643
0.398766
0.431718
0.399024
0.427359
0.429165
0.410189
0.434174
0.391151
0.427858
0.376852
0.404837
0.401518
0.34321
0.340678
0.423348
0.41986
0.404243
0.2068
0.313744
0.4128
0.292629
0.364449
0.405883
0.40683
0.191597
0.200188
0.29877
0.295513
0.416621
0.39534
0.308727
0.427536
0.429863
0.416675
0.307191
0.271057
0.415726
0.423622
0.422225
0.359562
0.377695
0.299648
0.411623
0.336549
0.337956
0.225266
0.408185
0.236095
0.409218
0.334108
0.289197
0.417491
0.124387
-0.0228086
0.393929
0.388276
0.291714
0.409509
0.403938
0.406593
0.39544
0.286238
0.404409
0.29644
0.292687
0.296523
0.415394
0.387538
0.301338
0.41204
0.417539
0.393727
0.305229
0.404264
0.411117
0.400811
0.415124
0.321573
0.31612
0.403117
0.406982
0.303777
0.335324
0.300038
0.420446
0.427392
0.42182
0.392777
0.226829
0.398762
0.103985
0.415316
0.39655
0.29493
0.383073
0.372695
0.30148
0.292899
0.412274
0.417106
0.399583
0.123904
0.241922
0.240105
0.398193
0.101465
0.225353
0.39725
0.0905028
0.326257
0.408434
0.22663
0.392375
0.315055
0.414691
0.180356
0.229023
0.350929
0.18471
0.31005
0.0698789
0.268876
0.214088
0.148025
0.300039
0.297083
0.129576
0.178294
0.300321
0.207597
0.17943
0.190445
0.206328
0.224235
0.271423
0.227355
0.201591
0.309683
0.393555
0.359892
0.234518
0.320837
0.132727
0.244356
0.169821
0.141381
0.263307
0.229107
0.21555
0.155843
0.239443
0.344617
0.30783
0.198179
0.257529
0.192617
0.394609
0.16906
0.298395
0.330541
0.191599
0.19796
0.180276
0.132518
0.169543
0.362322
0.226089
0.18205
0.196511
0.141356
0.357011
0.274403
0.232512
0.18168
0.292951
0.167305
0.17327
0.360546
0.22476
0.232165
0.276283
0.239269
0.387136
0.308937
0.308618
0.119335
0.143323
0.198342
0.283998
0.134217
0.213109
0.233846
0.150607
0.286599
0.328295
0.206624
0.223095
0.135846
0.171231
0.185103
0.293891
0.185273
0.184798
0.206137
0.365084
0.17906
0.292026
0.35917
0.216747
0.178555
0.0170914
0.162205
0.183264
0.178255
0.115406
0.26329
0.313318
0.339006
0.390385
0.173475
0.176614
0.131025
0.189068
0.164288
0.342899
0.317558
0.268445
0.156674
0.142191
0.263275
0.31845
0.201501
0.185082
0.112825
0.201305
0.214213
0.37312
0.383194
0.286889
0.238064
0.204165
0.133448
0.376585
0.153345
0.281288
0.114992
0.360224
0.138419
0.131931
0.169086
0.327115
0.205862
0.0872915
0.168546
0.268345
0.174135
0.295502
0.267494
0.183137
0.329034
0.197754
0.164099
0.335841
0.168515
0.20736
0.130337
0.246087
0.196345
0.332938
0.291048
0.195377
0.284878
0.296706
0.348569
0.235195
0.196479
0.181066
0.302019
0.154283
0.25474
0.135445
0.389253
0.20345
0.335774
0.374436
0.233128
0.380341
0.336907
0.346553
0.153123
0.109612
0.131637
0.351198
0.152693
0.141717
0.148835
0.143808
0.205433
0.195835
0.238293
0.374943
0.288868
0.190807
0.293387
0.189113
0.391732
0.114974
0.323823
0.185208
0.106325
0.363293
0.377184
0.180554
0.183035
0.388394
0.246049
0.193986
0.162929
0.28474
0.341429
0.288745
0.16891
0.182152
0.309794
0.239773
0.165998
0.25964
0.143621
0.14752
0.204109
0.319482
0.116345
0.206894
0.314066
0.183087
0.112494
0.20006
0.184818
0.199322
0.257381
0.263578
0.169852
0.138793
0.162009
0.273675
0.283376
0.184285
0.263088
0.199273
0.154484
0.246767
0.192518
0.0978761
0.288302
0.334517
0.235011
0.366188
0.343846
0.393679
0.179351
0.0858786
0.208492
0.196394
0.198626
0.122942
0.252095
0.358934
0.2852
0.24317
0.163879
0.192382
0.298856
0.227101
0.277792
0.169659
0.21434
0.189413
0.135262
0.169541
0.18362
0.178021
0.157952
0.265499
0.23801
0.195786
0.271456
0.188594
0.203285
0.170964
0.199072
0.173123
0.188175
0.241976
0.11851
0.0746989
0.2183
0.125764
0.106104
0.241442
0.119543
0.109673
0.332613
0.266445
0.169303
0.293398
0.145944
0.261861
0.260065
0.145018
0.183566
0.317187
0.208577
0.298371
0.0637284
0.16094
0.335568
0.18677
0.168407
0.0627173
0.116545
0.10384
0.120611
0.193482
0.272201
0.152395
0.105377
0.161122
0.184966
0.392156
0.171753
0.284489
0.256345
0.128864
0.212691
0.167072
0.136959
0.2584
0.200559
0.359323
0.282155
0.16679
0.193775
0.228234
0.393924
0.295992
0.345292
0.290415
0.194802
0.236738
0.203348
0.156418
0.121131
0.182271
0.197443
0.278732
0.176938
0.127395
0.182946
0.204454
0.179054
0.19181
0.321724
0.195925
0.187828
0.35456
0.328882
0.170038
0.243056
0.343084
0.143986
0.114585
0.196367
0.152895
0.13776
0.339536
0.166701
0.210569
0.348912
0.110996
0.2407
0.178082
0.235073
0.197322
0.177742
0.0211973
0.210403
0.130536
0.157595
0.193474
0.190189
0.293866
0.359464
0.177254
0.24128
0.208148
0.164591
0.0946555
0.316811
0.265905
0.161348
0.1296
0.252036
0.127803
0.184519
0.170749
0.163259
0.309731
0.357823
0.191191
0.290951
0.390071
0.320551
0.324063
0.349513
0.193495
0.186775
0.139701
0.390813
0.31709
0.335365
0.177075
0.1839
0.111149
0.298283
0.201777
0.167636
0.336517
0.274109
0.158818
0.20837
0.175274
0.181817
0.175483
0.193106
0.197642
0.14997
0.193531
0.12045
0.21223
0.150845
0.274328
0.226259
0.116979
0.343089
0.353675
0.288963
0.192287
0.244168
0.117089
0.296807
0.225882
0.12292
0.340687
0.089413
0.361041
0.131166
0.206052
0.220931
0.286038
0.308065
0.179121
0.373627
0.18053
0.323973
0.207623
0.273323
0.188416
0.173271
0.1801
0.328888
0.219042
0.388557
0.275197
0.118796
0.174586
0.264507
0.103003
0.193129
0.208658
0.152414
0.365014
0.155001
0.143578
0.305852
0.181786
0.359236
0.382975
0.185127
0.389878
0.370138
0.323924
0.337944
0.249493
0.131285
0.166919
0.199633
0.31529
0.201996
0.0910191
0.372424
0.151943
0.193292
0.162571
0.347624
0.390619
0.163878
0.320733
0.257782
0.359527
0.211748
0.294895
0.181915
0.37449
0.386175
0.280419
0.167111
0.31089
0.196734
0.239438
0.227943
0.214105
0.25749
0.18645
0.0944898
0.139997
0.219551
0.267569
0.243109
0.337142
0.159912
0.197528
0.272284
0.143724
0.352097
0.171532
0.181369
0.350078
0.329283
0.249376
0.377787
0.169826
0.185333
0.298487
0.232374
0.224487
0.203534
0.180872
0.263833
0.281509
0.180964
0.174775
0.246166
0.11852
0.148337
0.360113
0.387886
0.388163
0.212391
0.394906
0.389679
0.368051
0.0960542
0.258509
0.255543
0.377359
0.19561
0.177363
0.134205
0.165919
0.0775994
0.37209
0.205414
0.211244
0.297488
0.279481
0.189852
0.182632
0.389391
0.37425
0.343208
0.282819
0.168829
0.290635
0.269669
0.192449
0.219812
0.143499
0.165412
0.237942
0.217699
0.188802
0.360501
0.359485
0.0966391
0.326497
0.180821
0.170389
0.203542
0.357216
0.204592
0.282321
0.206108
0.344662
0.193474
0.209325
0.38615
0.115257
0.115296
0.171432
0.154997
0.0796799
0.00449647
0.162984
0.0889138
0.222786
0.097673
0.151233
0.216902
0.155949
0.162854
0.193321
0.140373
0.0176978
0.370803
0.327873
0.193429
0.128646
0.332399
0.172812
0.177301
0.384055
0.169467
0.383602
0.20828
0.332561
0.212387
0.129212
0.145727
0.241971
0.24225
0.223317
0.129228
0.197701
0.155337
0.157191
0.184803
0.118574
0.141296
0.369472
0.167525
0.27964
0.303089
0.197161
0.310104
0.304964
0.133205
0.00917848
0.207843
0.122857
0.0832469
0.286513
0.289397
0.192894
0.265929
0.189578
0.386537
0.36813
0.199854
0.184678
0.375821
0.338352
0.259741
0.261026
0.190715
0.389362
0.238619
0.0961338
0.348281
0.320751
0.360828
0.24168
0.169405
0.200329
0.290861
0.260341
-0.0302353
0.395263
0.207034
0.16847
0.225047
0.339801
0.386463
0.385129
0.266016
0.226449
0.309066
0.339498
0.352334
0.28365
0.317427
0.1408
0.176608
0.253496
0.139901
0.140336
0.114967
0.2058
0.304726
0.123068
0.233951
0.17996
0.320064
0.385377
0.202622
0.130723
0.106342
0.295474
0.18344
0.163207
0.11721
0.356443
0.244629
0.249364
0.121522
0.254204
0.166783
0.17568
0.294788
0.301505
0.359287
0.390697
0.163571
0.342652
0.099371
0.350394
0.35731
0.360114
0.310573
0.15171
0.151635
0.192346
0.0930178
0.23549
0.115038
0.259506
0.126032
0.335061
0.195514
0.10222
0.329313
0.303166
0.212782
0.21761
0.277945
0.356549
0.245561
0.225986
0.101559
0.320624
0.237377
0.373596
0.0848114
0.217709
0.349129
0.290664
0.378571
0.296367
0.19852
0.0668004
0.10201
0.215381
0.127053
0.370898
0.0916652
0.190279
0.213386
0.169841
0.315002
0.0893233
0.352143
0.290408
0.252226
0.098945
0.275156
0.170208
0.202647
0.208843
0.214497
0.18198
0.167413
0.307449
0.151631
0.393385
0.183126
0.219394
0.273547
0.29709
0.371172
0.181248
0.185556
0.16222
0.225036
0.174544
0.365262
0.163597
0.230769
0.190723
0.322902
0.153355
0.239688
0.139047
0.386044
0.0925031
0.149747
0.183729
0.32841
0.105356
0.12272
0.147919
0.130112
0.358436
0.227051
0.285918
0.33276
0.276439
0.230097
0.386422
0.231416
0.301654
0.270212
0.241654
0.114284
0.24828
0.202845
0.18842
0.250512
0.153673
0.118729
0.228135
0.194703
0.154862
0.318293
0.226799
0.282519
0.202735
0.368353
0.213634
0.2121
0.271658
0.12498
0.159153
0.189964
0.241559
0.248025
0.259182
0.355384
0.295349
0.312426
0.236176
0.343004
0.373095
0.369453
0.240556
0.234536
0.257056
0.132443
0.381628
0.336779
0.32341
0.21683
0.147968
0.112939
0.256718
0.291257
0.168399
0.323068
0.336981
0.261526
0.18006
0.242237
0.190013
0.169978
0.216537
0.180953
0.248673
0.116249
0.252886
0.222302
0.200712
0.0901005
0.248676
0.232094
0.280387
0.191636
0.24413
0.354143
0.364387
0.24636
0.209692
0.313013
0.231117
0.160633
0.163793
0.204806
0.127006
0.354478
0.223403
0.237367
0.291486
0.285019
0.272451
0.150676
0.391318
0.275624
0.17079
0.224289
0.223473
0.312776
0.350758
0.277421
0.257313
0.103816
0.154081
0.198177
0.258849
0.231357
0.245166
0.179492
0.36175
0.26455
0.312566
0.340274
0.242247
0.172907
0.24129
0.380513
0.156284
0.100531
0.24101
0.386535
0.184321
0.202674
0.307604
0.292019
0.326562
0.217891
0.106987
0.256478
0.135261
0.187763
0.325838
0.208238
0.136605
0.165672
0.183782
0.26455
0.194767
0.185952
0.34576
0.173644
0.387223
0.32396
0.127984
0.0784996
0.22708
0.299633
0.338573
0.212761
0.19812
0.168904
0.193652
0.216802
0.390333
0.34928
0.296836
0.198997
0.110842
0.357849
0.391785
0.360612
0.31405
0.347873
0.238601
0.143898
0.0894005
0.100631
0.370731
0.228442
0.153279
0.203126
0.390676
0.190421
0.179272
0.123339
0.215016
0.161902
0.390403
0.255449
0.297092
0.346542
0.336594
0.188765
0.267339
0.235036
0.290558
0.148483
0.264082
0.178126
0.364966
0.134126
0.188639
0.147374
0.199829
0.352993
0.198995
0.323755
0.341982
0.348303
0.142064
0.232338
0.198863
0.175388
0.360169
0.242112
0.24564
0.252762
0.0762023
0.204469
0.363363
0.271176
0.362964
0.0948612
0.152011
0.189243
0.369014
0.16593
0.219629
0.156437
0.150924
0.200936
0.369347
0.21106
0.200831
0.123137
0.388355
0.381013
0.0765555
0.361065
0.195114
0.143409
0.152559
0.22549
0.131732
0.270786
0.200425
0.188061
0.202402
0.345303
0.21627
0.323671
0.209128
0.143013
0.203294
0.0941142
0.11317
0.208032
0.194287
0.252475
0.153731
0.215176
0.34034
0.264441
0.188707
0.125142
0.348892
0.21036
0.219384
0.397977
0.249497
0.186464
0.180703
0.150387
0.373828
0.192129
0.216314
0.263303
0.130679
0.352276
0.137575
0.343356
0.230869
0.303209
0.158985
0.317207
0.209777
0.131981
0.159663
0.231413
0.352891
0.0752626
0.176159
0.169797
0.372304
0.39183
0.164116
0.180698
0.268269
0.375403
0.213993
0.35749
0.336024
0.32194
0.305535
0.242573
0.283656
0.274928
0.36164
0.22065
0.240022
0.165657
0.182892
0.222184
0.155731
0.374905
0.148072
0.355915
0.218974
0.369198
0.183603
0.379303
0.300523
0.341973
0.370332
0.354465
0.396737
0.196432
0.342421
0.229498
0.191468
0.179237
0.152749
0.362809
0.149043
0.251009
0.26411
0.204974
0.266045
0.176393
0.362503
0.224345
0.312398
0.0917266
0.167401
0.196917
0.391336
0.169106
0.275675
0.187407
0.197884
0.136595
0.206369
0.19607
0.316912
0.365923
0.121424
0.24639
0.191627
0.187143
0.328526
0.168182
0.18094
0.376468
0.100421
0.246395
0.291813
0.35245
0.384031
0.184819
0.174122
0.132719
0.195133
0.174807
0.190965
0.308664
0.189703
0.140719
0.201482
0.233209
0.191681
0.180615
0.169902
0.231
0.1294
0.310467
0.301942
0.189439
0.311889
0.134185
0.125136
0.163907
0.112708
0.377233
0.197081
0.191257
0.178966
0.337136
0.360561
0.238065
0.309331
0.179733
0.171467
0.236614
0.193417
0.174465
0.361779
0.255478
0.28267
0.380464
0.317018
0.226282
0.370967
0.116587
0.240686
0.236589
0.260773
0.200448
0.368779
0.18671
0.254929
0.222244
0.191411
0.157824
0.177708
0.300373
0.330194
0.344727
0.238798
0.247903
0.370272
0.320362
0.207592
0.251533
0.142134
0.191652
0.321961
0.122204
0.340101
0.186616
0.348199
0.394024
0.364235
0.177891
0.342293
0.337461
0.118387
0.370011
0.17505
0.367642
0.318366
0.189432
0.157525
0.257744
0.196196
0.193482
0.175777
0.322721
0.190584
0.373209
0.147736
0.186135
0.173373
0.146497
0.191212
0.330705
0.386494
0.144438
0.311715
0.23059
0.255122
0.213381
0.26704
0.356515
0.321072
0.186039
0.350677
0.327136
0.383625
0.148078
0.158033
0.178905
0.308325
0.37794
0.332566
0.216659
0.379719
0.227837
0.118971
0.155529
0.0754248
0.225569
0.133962
0.383879
0.387808
0.246112
0.397844
0.322763
0.231682
0.376457
0.137619
0.367599
0.189429
0.360926
0.199111
0.152139
0.305265
0.245965
0.368039
0.356296
0.359737
0.161405
0.158863
0.105146
0.342307
0.320249
0.165685
0.23785
0.321933
0.100578
0.179535
0.161052
0.179537
0.257149
0.178386
0.236526
0.302819
0.234054
0.245148
0.302236
0.19389
0.204286
0.255109
0.235965
0.19604
0.343801
0.368647
0.164977
0.31768
0.097141
0.175833
0.349396
0.312939
0.173655
0.363667
0.138673
0.301594
0.212275
0.214319
0.348234
0.200906
0.310019
0.308276
0.285349
0.391986
0.288295
0.131965
0.269689
0.220143
0.310093
0.389005
0.283858
0.228587
0.174168
0.215513
0.349548
0.149558
0.335519
0.165971
0.260545
0.317579
0.303416
0.223506
0.346648
0.379372
0.20213
0.194649
0.242894
0.160287
0.137836
0.238487
0.307684
0.167532
0.128215
0.168159
0.123448
0.297863
0.226115
0.312451
0.184172
0.3608
0.236252
0.337873
0.384922
0.170577
0.355028
0.203804
0.242996
0.238334
0.344522
0.17835
0.209961
0.241773
0.153112
0.196479
0.153893
0.133673
0.0968673
0.379506
0.389781
0.168393
0.181666
0.306902
0.114494
0.165866
0.191227
0.291071
0.300683
0.111506
0.0964858
0.356465
0.183418
0.261972
0.181704
0.127052
0.154889
0.251715
0.337655
0.262885
0.122763
0.362315
0.336618
0.165054
0.257943
0.187887
0.384176
0.197169
0.216116
0.13711
0.277823
0.368614
0.263604
0.247978
0.173562
0.225983
0.266746
0.377287
0.398042
0.178126
0.381091
0.178956
0.244916
0.248185
0.207714
0.188744
0.343983
0.199146
0.251185
0.161819
0.146852
0.209209
0.155124
0.288423
0.361465
0.161944
0.178688
0.243709
0.190032
0.173895
0.0882182
0.195269
0.345433
0.107676
0.16503
0.303521
0.241263
0.219035
0.275387
0.331912
0.151478
0.157571
0.331968
0.211778
0.15916
0.231821
0.343262
0.278044
0.244314
0.179222
0.180114
0.174016
0.378001
0.332254
0.387236
0.215609
0.287378
0.145538
0.231075
0.33914
0.119123
0.127878
0.301816
0.33447
0.119519
0.187151
0.178059
0.15078
0.177492
0.396845
0.218777
0.184704
0.246968
0.174308
0.305645
0.256011
0.142898
0.189875
0.318716
0.225194
0.379828
0.13328
0.180991
0.27977
0.266268
0.205003
0.261658
0.154061
0.383339
0.363865
0.281566
0.347206
0.164596
0.343302
0.271566
0.277771
0.371053
0.114439
0.190374
0.386638
0.273523
0.110653
0.162554
0.33192
0.384697
0.227663
0.308015
0.17725
0.133435
0.163276
0.10122
0.338235
0.174968
0.228309
0.372991
0.171483
0.155103
0.173781
0.245785
0.184956
0.176076
0.17644
0.145891
0.224471
0.319155
0.369617
0.298652
0.195807
0.189798
0.104457
0.183786
0.270742
0.250289
0.289633
0.304996
0.189993
0.214857
0.329356
0.336773
0.38599
0.349426
0.373598
0.226061
0.136869
0.162877
0.14607
0.377905
0.243473
0.17798
0.369724
0.143126
0.323905
0.302075
0.190514
0.182613
0.191586
0.179464
0.335121
0.193486
0.291203
0.225491
0.367858
0.255222
0.391262
0.162083
0.224687
0.162555
0.0918237
0.1952
0.315837
0.152814
0.0648947
0.242662
0.364936
0.311126
0.175809
0.134232
0.166549
0.144852
0.184424
0.151028
0.206651
0.149591
0.303076
0.167986
0.184554
0.355468
0.23013
0.278267
0.328244
0.194405
0.226002
0.157499
0.31805
0.182966
0.195335
0.219535
0.156807
0.131427
0.181336
0.169167
0.311026
0.387379
0.342292
0.249341
0.29643
0.123519
0.381043
0.260549
0.308419
0.180866
0.300212
0.167158
0.197092
0.322493
0.367729
0.31404
0.248437
0.199559
0.390467
0.205116
0.327062
0.375952
0.284447
0.208682
0.119525
0.326399
0.25664
0.149895
0.27538
0.251964
0.365386
0.172013
0.373701
0.386758
0.206425
0.163859
0.374786
0.136878
0.152018
0.197575
0.148817
0.197048
0.158139
0.135246
0.223805
0.185638
0.164343
0.18641
0.249973
0.157278
0.16876
0.269864
0.229191
0.136599
0.36139
0.389177
0.378306
0.181326
0.127838
0.392882
0.129991
0.221319
0.17087
0.187917
0.179085
0.301602
0.191954
0.185296
0.125151
0.117854
0.151055
0.195777
0.122372
0.22107
0.242097
0.211832
0.368115
0.247731
0.286011
0.210792
0.33324
0.172757
0.193838
0.400548
0.198942
0.250799
0.13468
0.285945
0.389358
0.183631
0.270587
0.254685
0.155003
0.17629
0.16925
0.149981
0.304719
0.153905
0.213282
0.185498
0.206606
0.168565
0.17032
0.220755
0.187098
0.18796
0.387878
0.220143
0.210741
0.242857
0.366167
0.196777
0.119637
0.321471
0.137093
0.203942
0.179687
0.229322
0.171475
0.199188
0.229279
0.384311
0.339637
0.121754
0.186207
0.120352
0.174191
0.10777
0.153601
0.200004
0.161267
0.200136
0.271848
0.396897
0.192834
0.299002
0.237785
0.377551
0.190665
0.389702
0.263499
0.14558
0.271702
0.306225
0.184113
0.338907
0.180171
0.3457
0.177748
0.0676983
0.217256
0.3953
0.385748
0.303196
0.277352
0.296246
0.129499
0.168231
0.297108
0.390609
0.0836267
0.229748
0.180561
0.173602
0.212363
0.165917
0.142254
0.175558
0.153658
0.185419
0.183793
0.214902
0.390901
0.335221
0.109401
0.319723
0.161075
0.169476
0.32477
0.180546
0.20282
0.288396
0.0992416
0.164297
0.22697
0.341304
0.146859
0.171059
0.201082
0.268224
0.145019
0.366547
0.122067
0.193183
0.199616
0.173924
0.279079
0.271076
0.367795
0.176562
0.313421
0.239613
0.265797
0.177865
0.279174
0.159507
0.137022
0.0999663
0.259928
0.211592
0.199757
0.352941
0.228169
0.250728
0.27855
0.168285
0.15386
0.194121
0.26198
0.185013
0.395448
0.137048
0.121827
0.194656
0.185936
0.183978
0.175474
0.30134
0.195449
0.218491
0.148878
0.182599
0.212445
0.141986
0.391909
0.380135
0.152256
0.167245
0.338147
0.241843
0.173089
0.132918
0.169049
0.15179
0.239459
0.35865
0.174191
0.130512
0.270791
0.222379
0.122669
0.148718
0.222431
0.293856
0.396441
0.142635
0.115189
0.251285
0.338017
0.193397
0.250096
0.195969
0.180097
0.195292
0.266942
0.206995
0.180655
0.317575
0.198586
0.0964578
0.237334
0.183724
0.323548
0.391211
0.187753
0.190736
0.188179
0.192014
0.143338
0.194544
0.153602
0.370586
0.327888
0.291553
0.199186
0.130984
0.314441
0.38102
0.168922
0.234147
0.177009
0.0979447
0.222668
0.187019
0.093298
0.168888
0.276891
0.14681
0.123234
0.14953
0.328106
0.140374
0.321353
0.222236
0.174764
0.182029
0.163896
0.323208
0.106163
0.197345
0.203175
0.137186
0.250061
0.29756
0.251236
0.212853
0.307093
0.148113
0.150962
0.356614
0.177135
0.352782
0.2534
0.189188
0.255995
0.342479
0.222402
0.118629
0.366389
0.172594
0.198208
0.343317
0.167288
0.374527
0.173717
0.200448
0.112005
0.20459
0.151605
0.22707
0.150712
0.0993951
0.148052
0.144419
0.102112
0.359034
0.145023
0.199139
0.253613
0.226868
0.38255
0.384845
0.171875
0.227596
0.327273
0.162606
0.35936
0.110976
0.186359
0.24178
0.170468
0.329601
0.180745
0.187592
0.19207
0.176355
0.175739
0.0978705
0.345276
0.0213287
0.372338
0.295218
0.150247
0.122057
0.15528
0.398015
0.300591
0.274485
0.219119
0.252423
0.202457
0.343649
0.315309
0.165456
0.268487
0.375895
0.205427
0.231486
0.276831
0.1161
0.149432
0.326908
0.196877
0.217034
0.375143
0.141639
0.112907
0.180897
0.215468
0.20163
0.386687
0.170991
0.132553
0.16729
0.214719
0.172219
0.351645
0.22521
0.160835
0.172589
0.169189
0.168263
0.192371
0.2674
0.237428
0.160507
0.350511
0.186237
0.33233
0.161084
0.142407
0.203666
0.346776
0.380054
0.324218
0.214753
0.206659
0.322184
0.381983
0.139749
0.360618
0.15078
0.283514
0.26397
0.350041
0.216135
0.340804
0.364616
0.185215
0.184862
0.200042
0.233018
0.155051
0.150267
0.148534
0.299643
0.330044
0.136678
0.36582
0.22019
0.308989
0.215155
0.153456
0.327795
0.315501
0.183636
0.190885
0.151219
0.385797
0.300521
0.392032
0.133445
0.153917
0.205511
0.334166
0.272913
0.353929
0.247718
0.383828
0.175643
0.209114
0.231115
0.18196
0.251871
0.128183
0.321952
0.221809
0.239976
0.361407
0.127791
0.138588
0.112052
0.263749
0.346865
0.191
0.279663
0.134565
0.130335
0.218632
0.182725
0.174795
0.349976
0.237318
0.165107
0.206359
0.261307
0.369969
0.26547
0.193013
0.345139
0.236371
0.374674
0.221982
0.288928
0.190864
0.134705
0.39407
0.157383
0.254279
0.245902
0.357978
0.285735
0.211143
0.1836
0.390121
0.210708
0.161628
0.304323
0.38209
0.299008
0.272851
0.129313
0.0952552
0.229163
0.163066
0.197456
0.230941
0.159819
0.36841
0.385209
0.363669
0.187547
0.192248
0.174954
0.1934
0.289543
0.139737
0.286839
0.369611
0.145564
0.185802
0.176919
0.332864
0.274075
0.191237
0.164234
0.295529
0.172992
0.125519
0.145642
0.396375
0.103396
0.319446
0.272902
0.178443
0.37325
0.238312
0.397432
0.0932969
0.188374
0.244159
0.363582
0.195281
0.35964
0.23853
0.102372
0.206643
0.178682
0.196903
0.0962808
0.319819
0.185696
0.164162
0.115555
0.211388
0.351723
0.0680969
0.190062
0.345713
0.210818
0.341315
0.107115
0.174453
0.175783
0.19892
0.155797
0.130925
0.172266
0.0730324
0.191296
0.188997
0.311081
0.249313
0.347887
0.166334
0.195818
0.132412
0.240382
0.0767634
0.199886
0.3921
0.219453
0.187478
0.399796
0.162157
0.246376
0.272669
0.133285
0.183927
0.220342
0.258065
0.370274
0.381132
0.382374
0.262948
0.216308
0.187277
0.154049
0.339937
0.288138
0.175705
0.191009
0.188853
0.216225
0.397694
0.202737
0.395463
0.167582
0.278984
0.155379
0.173336
0.133052
0.181813
0.354788
0.191967
0.138684