/*--------------------------------*- C++ -*----------------------------------*\
  =========                 |
  \\      /  F ield         | OpenFOAM: The Open Source CFD Toolbox
   \\    /   O peration     | Website:  https://openfoam.org
    \\  /    A nd           | Version:  6
     \\/     M anipulation  |
\*---------------------------------------------------------------------------*/
FoamFile
{
    version     2.0;
    format      ascii;
    class       volScalarField;
    location    "0";
    object      p;
}
// * * * * * * * * * * * * * * * * * * * * * * * * * * * * * * * * * * * * * //

dimensions      [0 2 -2 0 0 0 0];

internalField   nonuniform List<scalar> 
145945
(
3.25508e-06
3.25424e-06
3.25366e-06
3.25309e-06
3.25272e-06
3.25242e-06
3.25224e-06
3.25213e-06
3.2521e-06
3.25213e-06
3.25226e-06
3.25244e-06
3.25274e-06
3.2531e-06
3.2537e-06
3.25429e-06
3.25521e-06
3.25424e-06
3.25361e-06
3.25305e-06
3.25251e-06
3.25213e-06
3.25183e-06
3.25164e-06
3.25153e-06
3.2515e-06
3.25153e-06
3.25166e-06
3.25185e-06
3.25216e-06
3.25254e-06
3.25309e-06
3.25368e-06
3.25437e-06
3.25366e-06
3.25305e-06
3.25246e-06
3.25196e-06
3.25157e-06
3.25128e-06
3.2511e-06
3.25098e-06
3.25095e-06
3.25099e-06
3.25112e-06
3.25131e-06
3.25161e-06
3.25199e-06
3.25251e-06
3.25313e-06
3.2538e-06
3.25309e-06
3.25251e-06
3.25196e-06
3.25148e-06
3.2511e-06
3.25082e-06
3.25063e-06
3.25052e-06
3.25049e-06
3.25053e-06
3.25065e-06
3.25085e-06
3.25114e-06
3.25152e-06
3.25202e-06
3.25261e-06
3.25323e-06
3.25272e-06
3.25213e-06
3.25157e-06
3.25111e-06
3.25073e-06
3.25044e-06
3.25025e-06
3.25014e-06
3.2501e-06
3.25015e-06
3.25027e-06
3.25047e-06
3.25076e-06
3.25115e-06
3.25164e-06
3.25224e-06
3.25287e-06
3.25242e-06
3.25183e-06
3.25128e-06
3.25082e-06
3.25044e-06
3.25016e-06
3.24996e-06
3.24985e-06
3.24982e-06
3.24986e-06
3.24999e-06
3.25019e-06
3.25048e-06
3.25087e-06
3.25136e-06
3.25194e-06
3.25257e-06
3.25224e-06
3.25164e-06
3.2511e-06
3.25063e-06
3.25025e-06
3.24996e-06
3.24977e-06
3.24966e-06
3.24962e-06
3.24967e-06
3.24979e-06
3.25e-06
3.25029e-06
3.25068e-06
3.25117e-06
3.25175e-06
3.25239e-06
3.25213e-06
3.25153e-06
3.25098e-06
3.25052e-06
3.25014e-06
3.24985e-06
3.24966e-06
3.24954e-06
3.24951e-06
3.24955e-06
3.24968e-06
3.24989e-06
3.25018e-06
3.25057e-06
3.25106e-06
3.25164e-06
3.25228e-06
3.2521e-06
3.2515e-06
3.25095e-06
3.25049e-06
3.2501e-06
3.24982e-06
3.24962e-06
3.24951e-06
3.24947e-06
3.24952e-06
3.24965e-06
3.24985e-06
3.25015e-06
3.25054e-06
3.25103e-06
3.25161e-06
3.25225e-06
3.25213e-06
3.25153e-06
3.25099e-06
3.25053e-06
3.25015e-06
3.24986e-06
3.24967e-06
3.24955e-06
3.24952e-06
3.24956e-06
3.24969e-06
3.2499e-06
3.25019e-06
3.25058e-06
3.25107e-06
3.25165e-06
3.25229e-06
3.25226e-06
3.25166e-06
3.25112e-06
3.25065e-06
3.25027e-06
3.24999e-06
3.24979e-06
3.24968e-06
3.24965e-06
3.24969e-06
3.24982e-06
3.25002e-06
3.25031e-06
3.2507e-06
3.25119e-06
3.25177e-06
3.25241e-06
3.25244e-06
3.25185e-06
3.25131e-06
3.25085e-06
3.25047e-06
3.25019e-06
3.25e-06
3.24989e-06
3.24985e-06
3.2499e-06
3.25002e-06
3.25022e-06
3.25051e-06
3.2509e-06
3.25138e-06
3.25196e-06
3.25259e-06
3.25275e-06
3.25216e-06
3.25161e-06
3.25114e-06
3.25076e-06
3.25048e-06
3.25029e-06
3.25018e-06
3.25015e-06
3.25019e-06
3.25031e-06
3.25051e-06
3.2508e-06
3.25119e-06
3.25168e-06
3.25226e-06
3.25289e-06
3.2531e-06
3.25254e-06
3.25199e-06
3.25152e-06
3.25115e-06
3.25087e-06
3.25068e-06
3.25057e-06
3.25054e-06
3.25058e-06
3.2507e-06
3.2509e-06
3.25119e-06
3.25156e-06
3.25205e-06
3.25264e-06
3.25325e-06
3.2537e-06
3.25309e-06
3.25251e-06
3.25202e-06
3.25164e-06
3.25136e-06
3.25117e-06
3.25106e-06
3.25103e-06
3.25107e-06
3.25119e-06
3.25138e-06
3.25168e-06
3.25205e-06
3.25257e-06
3.25318e-06
3.25384e-06
3.25429e-06
3.25368e-06
3.25313e-06
3.25261e-06
3.25224e-06
3.25194e-06
3.25175e-06
3.25164e-06
3.25161e-06
3.25165e-06
3.25177e-06
3.25196e-06
3.25226e-06
3.25264e-06
3.25318e-06
3.25376e-06
3.25442e-06
3.25521e-06
3.25437e-06
3.2538e-06
3.25323e-06
3.25287e-06
3.25257e-06
3.25239e-06
3.25228e-06
3.25225e-06
3.25229e-06
3.25241e-06
3.25259e-06
3.2529e-06
3.25325e-06
3.25384e-06
3.25443e-06
3.25534e-06
3.1897e-06
3.18918e-06
3.18883e-06
3.18848e-06
3.18826e-06
3.18809e-06
3.188e-06
3.18794e-06
3.18793e-06
3.18795e-06
3.18801e-06
3.1881e-06
3.18826e-06
3.18847e-06
3.18882e-06
3.18919e-06
3.18974e-06
3.18918e-06
3.18884e-06
3.18853e-06
3.18823e-06
3.18802e-06
3.18787e-06
3.18779e-06
3.18773e-06
3.18772e-06
3.18774e-06
3.1878e-06
3.18789e-06
3.18803e-06
3.18822e-06
3.18853e-06
3.18886e-06
3.18923e-06
3.18883e-06
3.18853e-06
3.18824e-06
3.18797e-06
3.18778e-06
3.18765e-06
3.18758e-06
3.18753e-06
3.18752e-06
3.18754e-06
3.18759e-06
3.18767e-06
3.1878e-06
3.18797e-06
3.18824e-06
3.18856e-06
3.18888e-06
3.18848e-06
3.18823e-06
3.18797e-06
3.18774e-06
3.18756e-06
3.18745e-06
3.18738e-06
3.18734e-06
3.18733e-06
3.18735e-06
3.1874e-06
3.18747e-06
3.18759e-06
3.18775e-06
3.18798e-06
3.18827e-06
3.18854e-06
3.18826e-06
3.18802e-06
3.18778e-06
3.18756e-06
3.1874e-06
3.1873e-06
3.18723e-06
3.1872e-06
3.18719e-06
3.18721e-06
3.18725e-06
3.18732e-06
3.18743e-06
3.18758e-06
3.1878e-06
3.18806e-06
3.18832e-06
3.18809e-06
3.18787e-06
3.18765e-06
3.18745e-06
3.1873e-06
3.1872e-06
3.18713e-06
3.1871e-06
3.1871e-06
3.18711e-06
3.18716e-06
3.18722e-06
3.18733e-06
3.18747e-06
3.18767e-06
3.18792e-06
3.18815e-06
3.188e-06
3.18779e-06
3.18758e-06
3.18738e-06
3.18723e-06
3.18714e-06
3.18708e-06
3.18705e-06
3.18704e-06
3.18706e-06
3.1871e-06
3.18716e-06
3.18726e-06
3.1874e-06
3.1876e-06
3.18784e-06
3.18806e-06
3.18794e-06
3.18774e-06
3.18753e-06
3.18734e-06
3.1872e-06
3.1871e-06
3.18705e-06
3.18702e-06
3.18701e-06
3.18703e-06
3.18707e-06
3.18713e-06
3.18723e-06
3.18737e-06
3.18756e-06
3.18779e-06
3.188e-06
3.18793e-06
3.18772e-06
3.18752e-06
3.18733e-06
3.18719e-06
3.1871e-06
3.18704e-06
3.18701e-06
3.187e-06
3.18702e-06
3.18706e-06
3.18713e-06
3.18722e-06
3.18736e-06
3.18755e-06
3.18778e-06
3.18799e-06
3.18795e-06
3.18774e-06
3.18754e-06
3.18735e-06
3.18721e-06
3.18711e-06
3.18706e-06
3.18703e-06
3.18702e-06
3.18704e-06
3.18708e-06
3.18714e-06
3.18724e-06
3.18738e-06
3.18757e-06
3.1878e-06
3.18801e-06
3.18801e-06
3.1878e-06
3.18759e-06
3.1874e-06
3.18725e-06
3.18716e-06
3.1871e-06
3.18707e-06
3.18706e-06
3.18708e-06
3.18712e-06
3.18719e-06
3.18728e-06
3.18742e-06
3.18762e-06
3.18785e-06
3.18807e-06
3.1881e-06
3.18789e-06
3.18767e-06
3.18747e-06
3.18732e-06
3.18722e-06
3.18716e-06
3.18713e-06
3.18713e-06
3.18714e-06
3.18719e-06
3.18725e-06
3.18735e-06
3.18749e-06
3.18769e-06
3.18794e-06
3.18817e-06
3.18826e-06
3.18803e-06
3.1878e-06
3.18759e-06
3.18743e-06
3.18733e-06
3.18726e-06
3.18723e-06
3.18722e-06
3.18724e-06
3.18728e-06
3.18735e-06
3.18746e-06
3.1876e-06
3.18782e-06
3.18808e-06
3.18832e-06
3.18847e-06
3.18822e-06
3.18797e-06
3.18775e-06
3.18758e-06
3.18747e-06
3.1874e-06
3.18737e-06
3.18736e-06
3.18738e-06
3.18742e-06
3.18749e-06
3.1876e-06
3.18776e-06
3.18799e-06
3.18826e-06
3.18853e-06
3.18882e-06
3.18853e-06
3.18824e-06
3.18798e-06
3.1878e-06
3.18767e-06
3.1876e-06
3.18756e-06
3.18755e-06
3.18757e-06
3.18762e-06
3.18769e-06
3.18782e-06
3.18799e-06
3.18825e-06
3.18856e-06
3.18887e-06
3.18919e-06
3.18886e-06
3.18856e-06
3.18827e-06
3.18807e-06
3.18792e-06
3.18784e-06
3.18779e-06
3.18778e-06
3.1878e-06
3.18785e-06
3.18794e-06
3.18808e-06
3.18826e-06
3.18856e-06
3.18888e-06
3.18924e-06
3.18974e-06
3.18923e-06
3.18889e-06
3.18854e-06
3.18832e-06
3.18815e-06
3.18806e-06
3.18801e-06
3.18799e-06
3.18801e-06
3.18807e-06
3.18817e-06
3.18832e-06
3.18853e-06
3.18887e-06
3.18924e-06
3.18978e-06
3.14886e-06
3.1492e-06
3.14951e-06
3.14976e-06
3.15001e-06
3.15017e-06
3.15029e-06
3.15036e-06
3.15039e-06
3.15038e-06
3.15032e-06
3.15021e-06
3.15006e-06
3.14983e-06
3.14956e-06
3.14921e-06
3.14886e-06
3.1492e-06
3.14953e-06
3.14982e-06
3.15006e-06
3.15028e-06
3.15044e-06
3.15056e-06
3.15063e-06
3.15065e-06
3.15064e-06
3.15059e-06
3.15048e-06
3.15034e-06
3.15012e-06
3.14986e-06
3.14953e-06
3.14921e-06
3.14951e-06
3.14982e-06
3.15006e-06
3.15028e-06
3.15048e-06
3.15063e-06
3.15073e-06
3.1508e-06
3.15082e-06
3.15081e-06
3.15076e-06
3.15067e-06
3.15053e-06
3.15033e-06
3.15009e-06
3.14981e-06
3.14952e-06
3.14976e-06
3.15006e-06
3.15028e-06
3.15048e-06
3.15066e-06
3.1508e-06
3.1509e-06
3.15096e-06
3.15098e-06
3.15097e-06
3.15092e-06
3.15084e-06
3.15071e-06
3.15053e-06
3.1503e-06
3.15005e-06
3.14977e-06
3.15001e-06
3.15029e-06
3.15048e-06
3.15066e-06
3.15083e-06
3.15096e-06
3.15105e-06
3.15111e-06
3.15113e-06
3.15112e-06
3.15108e-06
3.15099e-06
3.15087e-06
3.15071e-06
3.15049e-06
3.15028e-06
3.15001e-06
3.15017e-06
3.15044e-06
3.15063e-06
3.1508e-06
3.15096e-06
3.15108e-06
3.15117e-06
3.15122e-06
3.15125e-06
3.15124e-06
3.1512e-06
3.15112e-06
3.151e-06
3.15084e-06
3.15064e-06
3.15043e-06
3.15018e-06
3.15029e-06
3.15056e-06
3.15073e-06
3.1509e-06
3.15105e-06
3.15117e-06
3.15126e-06
3.15131e-06
3.15133e-06
3.15132e-06
3.15128e-06
3.15121e-06
3.1511e-06
3.15094e-06
3.15075e-06
3.15055e-06
3.1503e-06
3.15036e-06
3.15063e-06
3.1508e-06
3.15096e-06
3.15111e-06
3.15122e-06
3.15131e-06
3.15136e-06
3.15138e-06
3.15137e-06
3.15133e-06
3.15126e-06
3.15115e-06
3.151e-06
3.15081e-06
3.15062e-06
3.15037e-06
3.15039e-06
3.15065e-06
3.15082e-06
3.15098e-06
3.15113e-06
3.15125e-06
3.15133e-06
3.15138e-06
3.1514e-06
3.15139e-06
3.15135e-06
3.15128e-06
3.15117e-06
3.15102e-06
3.15084e-06
3.15064e-06
3.1504e-06
3.15038e-06
3.15064e-06
3.15081e-06
3.15097e-06
3.15112e-06
3.15124e-06
3.15132e-06
3.15137e-06
3.15139e-06
3.15138e-06
3.15134e-06
3.15127e-06
3.15116e-06
3.15101e-06
3.15082e-06
3.15063e-06
3.15038e-06
3.15032e-06
3.15059e-06
3.15076e-06
3.15092e-06
3.15108e-06
3.1512e-06
3.15128e-06
3.15133e-06
3.15135e-06
3.15134e-06
3.1513e-06
3.15123e-06
3.15112e-06
3.15097e-06
3.15077e-06
3.15058e-06
3.15033e-06
3.15021e-06
3.15048e-06
3.15067e-06
3.15084e-06
3.151e-06
3.15112e-06
3.15121e-06
3.15126e-06
3.15128e-06
3.15127e-06
3.15123e-06
3.15116e-06
3.15104e-06
3.15088e-06
3.15068e-06
3.15047e-06
3.15022e-06
3.15006e-06
3.15034e-06
3.15053e-06
3.15071e-06
3.15088e-06
3.151e-06
3.1511e-06
3.15115e-06
3.15117e-06
3.15116e-06
3.15112e-06
3.15104e-06
3.15092e-06
3.15076e-06
3.15055e-06
3.15033e-06
3.15007e-06
3.14983e-06
3.15012e-06
3.15033e-06
3.15053e-06
3.15071e-06
3.15085e-06
3.15094e-06
3.151e-06
3.15103e-06
3.15101e-06
3.15097e-06
3.15088e-06
3.15076e-06
3.15058e-06
3.15035e-06
3.15011e-06
3.14984e-06
3.14956e-06
3.14986e-06
3.15009e-06
3.1503e-06
3.1505e-06
3.15064e-06
3.15075e-06
3.15081e-06
3.15084e-06
3.15082e-06
3.15077e-06
3.15068e-06
3.15055e-06
3.15035e-06
3.15011e-06
3.14985e-06
3.14957e-06
3.14921e-06
3.14953e-06
3.14981e-06
3.15005e-06
3.15028e-06
3.15043e-06
3.15055e-06
3.15062e-06
3.15064e-06
3.15063e-06
3.15058e-06
3.15047e-06
3.15033e-06
3.15011e-06
3.14985e-06
3.14953e-06
3.14922e-06
3.14886e-06
3.14922e-06
3.14952e-06
3.14977e-06
3.15001e-06
3.15018e-06
3.1503e-06
3.15037e-06
3.1504e-06
3.15038e-06
3.15033e-06
3.15022e-06
3.15007e-06
3.14984e-06
3.14957e-06
3.14922e-06
3.14887e-06
3.1014e-06
3.1023e-06
3.10315e-06
3.10397e-06
3.10465e-06
3.10515e-06
3.10551e-06
3.10572e-06
3.10581e-06
3.10576e-06
3.10558e-06
3.10526e-06
3.1048e-06
3.10417e-06
3.10336e-06
3.10244e-06
3.10146e-06
3.1023e-06
3.10306e-06
3.10387e-06
3.10464e-06
3.10529e-06
3.10577e-06
3.1061e-06
3.1063e-06
3.10638e-06
3.10634e-06
3.10617e-06
3.10587e-06
3.10544e-06
3.10484e-06
3.10407e-06
3.10319e-06
3.10236e-06
3.10315e-06
3.10387e-06
3.10462e-06
3.10535e-06
3.10595e-06
3.1064e-06
3.10671e-06
3.1069e-06
3.10698e-06
3.10694e-06
3.10678e-06
3.1065e-06
3.10609e-06
3.10554e-06
3.10482e-06
3.10399e-06
3.10322e-06
3.10397e-06
3.10464e-06
3.10535e-06
3.10603e-06
3.1066e-06
3.10702e-06
3.10731e-06
3.10749e-06
3.10756e-06
3.10752e-06
3.10737e-06
3.10711e-06
3.10673e-06
3.10622e-06
3.10554e-06
3.10477e-06
3.10404e-06
3.10465e-06
3.10529e-06
3.10595e-06
3.1066e-06
3.10713e-06
3.10753e-06
3.1078e-06
3.10797e-06
3.10804e-06
3.108e-06
3.10787e-06
3.10762e-06
3.10726e-06
3.10678e-06
3.10614e-06
3.10541e-06
3.10472e-06
3.10515e-06
3.10576e-06
3.1064e-06
3.10702e-06
3.10753e-06
3.1079e-06
3.10817e-06
3.10833e-06
3.1084e-06
3.10836e-06
3.10823e-06
3.108e-06
3.10766e-06
3.10719e-06
3.10659e-06
3.10589e-06
3.10522e-06
3.10551e-06
3.1061e-06
3.10671e-06
3.10731e-06
3.1078e-06
3.10817e-06
3.10843e-06
3.10859e-06
3.10865e-06
3.10862e-06
3.10849e-06
3.10826e-06
3.10793e-06
3.10748e-06
3.1069e-06
3.10622e-06
3.10558e-06
3.10572e-06
3.1063e-06
3.1069e-06
3.10749e-06
3.10797e-06
3.10833e-06
3.10859e-06
3.10874e-06
3.1088e-06
3.10877e-06
3.10865e-06
3.10842e-06
3.1081e-06
3.10766e-06
3.10709e-06
3.10643e-06
3.10579e-06
3.10581e-06
3.10638e-06
3.10698e-06
3.10756e-06
3.10804e-06
3.1084e-06
3.10865e-06
3.1088e-06
3.10886e-06
3.10883e-06
3.10871e-06
3.10849e-06
3.10817e-06
3.10773e-06
3.10716e-06
3.10651e-06
3.10588e-06
3.10576e-06
3.10634e-06
3.10694e-06
3.10752e-06
3.10801e-06
3.10836e-06
3.10862e-06
3.10877e-06
3.10883e-06
3.1088e-06
3.10868e-06
3.10846e-06
3.10813e-06
3.10769e-06
3.10712e-06
3.10646e-06
3.10583e-06
3.10558e-06
3.10617e-06
3.10678e-06
3.10737e-06
3.10787e-06
3.10823e-06
3.10849e-06
3.10865e-06
3.10871e-06
3.10868e-06
3.10855e-06
3.10832e-06
3.10799e-06
3.10755e-06
3.10696e-06
3.10629e-06
3.10565e-06
3.10526e-06
3.10587e-06
3.1065e-06
3.10711e-06
3.10762e-06
3.108e-06
3.10826e-06
3.10842e-06
3.10849e-06
3.10846e-06
3.10832e-06
3.10809e-06
3.10775e-06
3.10729e-06
3.10669e-06
3.10599e-06
3.10533e-06
3.1048e-06
3.10544e-06
3.10609e-06
3.10673e-06
3.10726e-06
3.10766e-06
3.10793e-06
3.1081e-06
3.10817e-06
3.10813e-06
3.10799e-06
3.10775e-06
3.1074e-06
3.10691e-06
3.10628e-06
3.10556e-06
3.10487e-06
3.10417e-06
3.10484e-06
3.10554e-06
3.10622e-06
3.10678e-06
3.10719e-06
3.10748e-06
3.10766e-06
3.10773e-06
3.10769e-06
3.10755e-06
3.10729e-06
3.10691e-06
3.1064e-06
3.10574e-06
3.10496e-06
3.10424e-06
3.10336e-06
3.10408e-06
3.10482e-06
3.10555e-06
3.10615e-06
3.10659e-06
3.1069e-06
3.10709e-06
3.10716e-06
3.10712e-06
3.10696e-06
3.10669e-06
3.10629e-06
3.10574e-06
3.10503e-06
3.1042e-06
3.10343e-06
3.10244e-06
3.10319e-06
3.10399e-06
3.10477e-06
3.10542e-06
3.10589e-06
3.10623e-06
3.10643e-06
3.10651e-06
3.10646e-06
3.10629e-06
3.10599e-06
3.10556e-06
3.10496e-06
3.1042e-06
3.10332e-06
3.1025e-06
3.10146e-06
3.10236e-06
3.10322e-06
3.10404e-06
3.10472e-06
3.10522e-06
3.10558e-06
3.10579e-06
3.10588e-06
3.10583e-06
3.10565e-06
3.10533e-06
3.10487e-06
3.10424e-06
3.10343e-06
3.1025e-06
3.10151e-06
3.05518e-06
3.0563e-06
3.05731e-06
3.05831e-06
3.05914e-06
3.05976e-06
3.06021e-06
3.06048e-06
3.06058e-06
3.06052e-06
3.06028e-06
3.05988e-06
3.0593e-06
3.05852e-06
3.05751e-06
3.05641e-06
3.0552e-06
3.0563e-06
3.05724e-06
3.05822e-06
3.05918e-06
3.05999e-06
3.0606e-06
3.06103e-06
3.0613e-06
3.0614e-06
3.06134e-06
3.06111e-06
3.06072e-06
3.06015e-06
3.05939e-06
3.05842e-06
3.05734e-06
3.05632e-06
3.05731e-06
3.05822e-06
3.05917e-06
3.06008e-06
3.06085e-06
3.06144e-06
3.06185e-06
3.0621e-06
3.0622e-06
3.06214e-06
3.06193e-06
3.06155e-06
3.06101e-06
3.06028e-06
3.05936e-06
3.05832e-06
3.05734e-06
3.05831e-06
3.05918e-06
3.06008e-06
3.06095e-06
3.06169e-06
3.06224e-06
3.06264e-06
3.06288e-06
3.06297e-06
3.06292e-06
3.06271e-06
3.06236e-06
3.06184e-06
3.06115e-06
3.06027e-06
3.05927e-06
3.05834e-06
3.05914e-06
3.05999e-06
3.06085e-06
3.06169e-06
3.06239e-06
3.06293e-06
3.06331e-06
3.06354e-06
3.06363e-06
3.06357e-06
3.06338e-06
3.06303e-06
3.06254e-06
3.06188e-06
3.06104e-06
3.06008e-06
3.05917e-06
3.05976e-06
3.0606e-06
3.06144e-06
3.06224e-06
3.06293e-06
3.06344e-06
3.06381e-06
3.06404e-06
3.06413e-06
3.06407e-06
3.06388e-06
3.06355e-06
3.06307e-06
3.06243e-06
3.06162e-06
3.06069e-06
3.05979e-06
3.06021e-06
3.06103e-06
3.06185e-06
3.06264e-06
3.06331e-06
3.06381e-06
3.06417e-06
3.06439e-06
3.06448e-06
3.06443e-06
3.06424e-06
3.06392e-06
3.06345e-06
3.06283e-06
3.06203e-06
3.06113e-06
3.06024e-06
3.06048e-06
3.0613e-06
3.0621e-06
3.06288e-06
3.06354e-06
3.06404e-06
3.06439e-06
3.06461e-06
3.06469e-06
3.06464e-06
3.06446e-06
3.06414e-06
3.06368e-06
3.06307e-06
3.06228e-06
3.06139e-06
3.06051e-06
3.06058e-06
3.0614e-06
3.0622e-06
3.06297e-06
3.06363e-06
3.06413e-06
3.06448e-06
3.06469e-06
3.06478e-06
3.06473e-06
3.06455e-06
3.06423e-06
3.06377e-06
3.06316e-06
3.06238e-06
3.06149e-06
3.06062e-06
3.06052e-06
3.06134e-06
3.06214e-06
3.06292e-06
3.06357e-06
3.06407e-06
3.06443e-06
3.06464e-06
3.06473e-06
3.06468e-06
3.0645e-06
3.06418e-06
3.06372e-06
3.0631e-06
3.06232e-06
3.06143e-06
3.06055e-06
3.06029e-06
3.06111e-06
3.06193e-06
3.06271e-06
3.06338e-06
3.06388e-06
3.06424e-06
3.06446e-06
3.06455e-06
3.0645e-06
3.06431e-06
3.06399e-06
3.06352e-06
3.0629e-06
3.06211e-06
3.0612e-06
3.06032e-06
3.05988e-06
3.06072e-06
3.06155e-06
3.06236e-06
3.06303e-06
3.06355e-06
3.06392e-06
3.06414e-06
3.06423e-06
3.06418e-06
3.06399e-06
3.06366e-06
3.06318e-06
3.06254e-06
3.06173e-06
3.06081e-06
3.05991e-06
3.0593e-06
3.06015e-06
3.06101e-06
3.06184e-06
3.06254e-06
3.06307e-06
3.06345e-06
3.06368e-06
3.06377e-06
3.06372e-06
3.06352e-06
3.06318e-06
3.06269e-06
3.06203e-06
3.0612e-06
3.06024e-06
3.05933e-06
3.05852e-06
3.05939e-06
3.06029e-06
3.06115e-06
3.06188e-06
3.06243e-06
3.06283e-06
3.06307e-06
3.06316e-06
3.0631e-06
3.0629e-06
3.06254e-06
3.06203e-06
3.06135e-06
3.06048e-06
3.05948e-06
3.05855e-06
3.05751e-06
3.05842e-06
3.05937e-06
3.06027e-06
3.06104e-06
3.06162e-06
3.06203e-06
3.06228e-06
3.06238e-06
3.06232e-06
3.06211e-06
3.06173e-06
3.0612e-06
3.06048e-06
3.05956e-06
3.05852e-06
3.05754e-06
3.05641e-06
3.05734e-06
3.05832e-06
3.05928e-06
3.06008e-06
3.0607e-06
3.06113e-06
3.06139e-06
3.0615e-06
3.06143e-06
3.06121e-06
3.06081e-06
3.06025e-06
3.05948e-06
3.05852e-06
3.05744e-06
3.05644e-06
3.0552e-06
3.05633e-06
3.05734e-06
3.05834e-06
3.05917e-06
3.0598e-06
3.06024e-06
3.06051e-06
3.06062e-06
3.06055e-06
3.06032e-06
3.05991e-06
3.05933e-06
3.05855e-06
3.05754e-06
3.05644e-06
3.05523e-06
3.01176e-06
3.01297e-06
3.01407e-06
3.01517e-06
3.01608e-06
3.01678e-06
3.01727e-06
3.01757e-06
3.01769e-06
3.01762e-06
3.01735e-06
3.0169e-06
3.01625e-06
3.01539e-06
3.01427e-06
3.01308e-06
3.01177e-06
3.01297e-06
3.014e-06
3.01508e-06
3.01614e-06
3.01704e-06
3.01773e-06
3.01822e-06
3.01852e-06
3.01863e-06
3.01856e-06
3.0183e-06
3.01785e-06
3.01721e-06
3.01636e-06
3.01528e-06
3.0141e-06
3.01299e-06
3.01407e-06
3.01508e-06
3.01613e-06
3.01715e-06
3.01802e-06
3.01868e-06
3.01915e-06
3.01944e-06
3.01955e-06
3.01948e-06
3.01923e-06
3.0188e-06
3.01819e-06
3.01736e-06
3.01633e-06
3.01516e-06
3.01408e-06
3.01517e-06
3.01614e-06
3.01715e-06
3.01813e-06
3.01897e-06
3.01961e-06
3.02006e-06
3.02034e-06
3.02045e-06
3.02038e-06
3.02014e-06
3.01973e-06
3.01913e-06
3.01834e-06
3.01735e-06
3.01623e-06
3.01519e-06
3.01608e-06
3.01704e-06
3.01802e-06
3.01897e-06
3.01978e-06
3.0204e-06
3.02084e-06
3.02111e-06
3.02121e-06
3.02114e-06
3.02091e-06
3.02051e-06
3.01994e-06
3.01917e-06
3.01821e-06
3.01712e-06
3.0161e-06
3.01678e-06
3.01773e-06
3.01868e-06
3.01961e-06
3.0204e-06
3.021e-06
3.02143e-06
3.02169e-06
3.02179e-06
3.02173e-06
3.0215e-06
3.02111e-06
3.02055e-06
3.01981e-06
3.01887e-06
3.01781e-06
3.01679e-06
3.01727e-06
3.01822e-06
3.01915e-06
3.02006e-06
3.02084e-06
3.02143e-06
3.02185e-06
3.02211e-06
3.02221e-06
3.02215e-06
3.02192e-06
3.02154e-06
3.02099e-06
3.02026e-06
3.01934e-06
3.0183e-06
3.01729e-06
3.01757e-06
3.01852e-06
3.01944e-06
3.02034e-06
3.02111e-06
3.02169e-06
3.02211e-06
3.02236e-06
3.02246e-06
3.0224e-06
3.02218e-06
3.0218e-06
3.02126e-06
3.02053e-06
3.01962e-06
3.0186e-06
3.01759e-06
3.01769e-06
3.01863e-06
3.01955e-06
3.02045e-06
3.02121e-06
3.02179e-06
3.02221e-06
3.02246e-06
3.02256e-06
3.0225e-06
3.02228e-06
3.0219e-06
3.02136e-06
3.02064e-06
3.01973e-06
3.01871e-06
3.01771e-06
3.01762e-06
3.01856e-06
3.01948e-06
3.02038e-06
3.02115e-06
3.02173e-06
3.02215e-06
3.0224e-06
3.0225e-06
3.02244e-06
3.02222e-06
3.02184e-06
3.0213e-06
3.02057e-06
3.01966e-06
3.01864e-06
3.01763e-06
3.01736e-06
3.0183e-06
3.01923e-06
3.02014e-06
3.02091e-06
3.02151e-06
3.02193e-06
3.02218e-06
3.02228e-06
3.02222e-06
3.022e-06
3.02162e-06
3.02107e-06
3.02034e-06
3.01942e-06
3.01838e-06
3.01737e-06
3.0169e-06
3.01785e-06
3.0188e-06
3.01973e-06
3.02051e-06
3.02112e-06
3.02154e-06
3.0218e-06
3.0219e-06
3.02184e-06
3.02162e-06
3.02123e-06
3.02067e-06
3.01992e-06
3.01899e-06
3.01793e-06
3.01692e-06
3.01625e-06
3.01721e-06
3.01819e-06
3.01913e-06
3.01994e-06
3.02055e-06
3.02099e-06
3.02126e-06
3.02136e-06
3.0213e-06
3.02107e-06
3.02067e-06
3.02009e-06
3.01933e-06
3.01837e-06
3.01729e-06
3.01627e-06
3.01539e-06
3.01636e-06
3.01737e-06
3.01834e-06
3.01917e-06
3.01981e-06
3.02026e-06
3.02054e-06
3.02064e-06
3.02058e-06
3.02034e-06
3.01992e-06
3.01933e-06
3.01855e-06
3.01756e-06
3.01644e-06
3.01541e-06
3.01427e-06
3.01528e-06
3.01633e-06
3.01735e-06
3.01821e-06
3.01887e-06
3.01934e-06
3.01962e-06
3.01973e-06
3.01966e-06
3.01942e-06
3.01899e-06
3.01838e-06
3.01756e-06
3.01653e-06
3.01537e-06
3.01429e-06
3.01308e-06
3.0141e-06
3.01517e-06
3.01623e-06
3.01713e-06
3.01781e-06
3.0183e-06
3.0186e-06
3.01871e-06
3.01864e-06
3.01838e-06
3.01794e-06
3.0173e-06
3.01645e-06
3.01537e-06
3.01419e-06
3.01309e-06
3.01177e-06
3.01299e-06
3.01409e-06
3.01519e-06
3.0161e-06
3.0168e-06
3.01729e-06
3.01759e-06
3.01771e-06
3.01763e-06
3.01737e-06
3.01692e-06
3.01627e-06
3.01541e-06
3.01429e-06
3.01309e-06
3.01178e-06
2.97018e-06
2.97137e-06
2.97247e-06
2.97358e-06
2.97451e-06
2.97523e-06
2.97573e-06
2.97604e-06
2.97616e-06
2.97609e-06
2.97582e-06
2.97535e-06
2.97468e-06
2.97381e-06
2.97267e-06
2.97148e-06
2.97018e-06
2.97137e-06
2.9724e-06
2.97347e-06
2.97456e-06
2.97548e-06
2.97619e-06
2.9767e-06
2.97701e-06
2.97713e-06
2.97705e-06
2.97678e-06
2.97632e-06
2.97565e-06
2.97478e-06
2.97367e-06
2.97249e-06
2.97138e-06
2.97247e-06
2.97347e-06
2.97454e-06
2.97559e-06
2.97649e-06
2.97718e-06
2.97767e-06
2.97797e-06
2.97809e-06
2.97801e-06
2.97775e-06
2.9773e-06
2.97666e-06
2.97581e-06
2.97474e-06
2.97356e-06
2.97248e-06
2.97359e-06
2.97456e-06
2.97559e-06
2.97661e-06
2.97748e-06
2.97815e-06
2.97863e-06
2.97892e-06
2.97903e-06
2.97896e-06
2.97871e-06
2.97827e-06
2.97764e-06
2.97682e-06
2.97579e-06
2.97464e-06
2.9736e-06
2.97451e-06
2.97548e-06
2.97649e-06
2.97748e-06
2.97832e-06
2.97898e-06
2.97944e-06
2.97973e-06
2.97984e-06
2.97977e-06
2.97952e-06
2.9791e-06
2.97849e-06
2.97769e-06
2.97668e-06
2.97556e-06
2.97452e-06
2.97523e-06
2.97619e-06
2.97718e-06
2.97815e-06
2.97898e-06
2.97962e-06
2.98007e-06
2.98036e-06
2.98046e-06
2.9804e-06
2.98015e-06
2.97974e-06
2.97914e-06
2.97835e-06
2.97737e-06
2.97627e-06
2.97524e-06
2.97573e-06
2.9767e-06
2.97767e-06
2.97862e-06
2.97944e-06
2.98008e-06
2.98052e-06
2.9808e-06
2.98091e-06
2.98084e-06
2.9806e-06
2.98019e-06
2.9796e-06
2.97883e-06
2.97786e-06
2.97678e-06
2.97575e-06
2.97605e-06
2.97701e-06
2.97797e-06
2.97892e-06
2.97973e-06
2.98036e-06
2.9808e-06
2.98107e-06
2.98118e-06
2.98111e-06
2.98088e-06
2.98047e-06
2.97989e-06
2.97912e-06
2.97816e-06
2.97709e-06
2.97606e-06
2.97616e-06
2.97713e-06
2.97809e-06
2.97903e-06
2.97984e-06
2.98046e-06
2.98091e-06
2.98118e-06
2.98128e-06
2.98122e-06
2.98098e-06
2.98058e-06
2.98e-06
2.97923e-06
2.97828e-06
2.97721e-06
2.97618e-06
2.97609e-06
2.97705e-06
2.97801e-06
2.97896e-06
2.97977e-06
2.9804e-06
2.98084e-06
2.98111e-06
2.98122e-06
2.98115e-06
2.98092e-06
2.98051e-06
2.97993e-06
2.97916e-06
2.9782e-06
2.97713e-06
2.9761e-06
2.97582e-06
2.97678e-06
2.97775e-06
2.97871e-06
2.97952e-06
2.98015e-06
2.9806e-06
2.98088e-06
2.98098e-06
2.98092e-06
2.98068e-06
2.98027e-06
2.97968e-06
2.97891e-06
2.97794e-06
2.97686e-06
2.97583e-06
2.97535e-06
2.97632e-06
2.9773e-06
2.97827e-06
2.9791e-06
2.97974e-06
2.98019e-06
2.98047e-06
2.98058e-06
2.98051e-06
2.98027e-06
2.97985e-06
2.97926e-06
2.97847e-06
2.97749e-06
2.9764e-06
2.97536e-06
2.97468e-06
2.97565e-06
2.97666e-06
2.97764e-06
2.97849e-06
2.97914e-06
2.97961e-06
2.97989e-06
2.98e-06
2.97993e-06
2.97968e-06
2.97926e-06
2.97865e-06
2.97785e-06
2.97685e-06
2.97574e-06
2.97469e-06
2.97381e-06
2.97478e-06
2.97581e-06
2.97682e-06
2.97769e-06
2.97835e-06
2.97883e-06
2.97912e-06
2.97923e-06
2.97916e-06
2.97891e-06
2.97848e-06
2.97785e-06
2.97703e-06
2.97601e-06
2.97487e-06
2.97382e-06
2.97267e-06
2.97368e-06
2.97475e-06
2.97579e-06
2.97669e-06
2.97737e-06
2.97786e-06
2.97816e-06
2.97828e-06
2.9782e-06
2.97794e-06
2.9775e-06
2.97685e-06
2.97601e-06
2.97495e-06
2.97376e-06
2.97268e-06
2.97148e-06
2.97249e-06
2.97356e-06
2.97465e-06
2.97557e-06
2.97628e-06
2.97678e-06
2.97709e-06
2.97721e-06
2.97714e-06
2.97687e-06
2.9764e-06
2.97574e-06
2.97487e-06
2.97376e-06
2.97258e-06
2.97149e-06
2.97019e-06
2.97139e-06
2.97248e-06
2.9736e-06
2.97452e-06
2.97524e-06
2.97575e-06
2.97606e-06
2.97618e-06
2.9761e-06
2.97583e-06
2.97536e-06
2.9747e-06
2.97382e-06
2.97268e-06
2.97149e-06
2.97019e-06
2.93031e-06
2.93142e-06
2.93243e-06
2.93349e-06
2.93437e-06
2.93505e-06
2.93554e-06
2.93584e-06
2.93595e-06
2.93588e-06
2.93562e-06
2.93517e-06
2.93453e-06
2.9337e-06
2.93262e-06
2.9315e-06
2.93031e-06
2.93142e-06
2.93237e-06
2.93338e-06
2.93441e-06
2.93529e-06
2.93597e-06
2.93646e-06
2.93676e-06
2.93688e-06
2.9368e-06
2.93654e-06
2.93609e-06
2.93545e-06
2.93462e-06
2.93356e-06
2.93245e-06
2.93142e-06
2.93243e-06
2.93338e-06
2.93439e-06
2.93539e-06
2.93625e-06
2.93692e-06
2.9374e-06
2.93769e-06
2.93781e-06
2.93773e-06
2.93748e-06
2.93704e-06
2.93641e-06
2.9356e-06
2.93458e-06
2.93345e-06
2.93244e-06
2.93349e-06
2.93441e-06
2.93539e-06
2.93637e-06
2.93721e-06
2.93786e-06
2.93833e-06
2.93862e-06
2.93873e-06
2.93866e-06
2.93841e-06
2.93798e-06
2.93737e-06
2.93657e-06
2.93558e-06
2.93448e-06
2.93349e-06
2.93437e-06
2.93529e-06
2.93625e-06
2.93721e-06
2.93803e-06
2.93867e-06
2.93913e-06
2.93941e-06
2.93952e-06
2.93945e-06
2.93921e-06
2.93879e-06
2.93819e-06
2.93741e-06
2.93644e-06
2.93536e-06
2.93437e-06
2.93505e-06
2.93597e-06
2.93692e-06
2.93786e-06
2.93867e-06
2.9393e-06
2.93976e-06
2.94003e-06
2.94014e-06
2.94007e-06
2.93983e-06
2.93942e-06
2.93883e-06
2.93806e-06
2.9371e-06
2.93604e-06
2.93506e-06
2.93554e-06
2.93646e-06
2.9374e-06
2.93833e-06
2.93913e-06
2.93976e-06
2.9402e-06
2.94048e-06
2.94058e-06
2.94051e-06
2.94028e-06
2.93987e-06
2.93929e-06
2.93852e-06
2.93758e-06
2.93653e-06
2.93554e-06
2.93584e-06
2.93676e-06
2.93769e-06
2.93862e-06
2.93941e-06
2.94003e-06
2.94048e-06
2.94075e-06
2.94085e-06
2.94079e-06
2.94055e-06
2.94015e-06
2.93957e-06
2.93881e-06
2.93787e-06
2.93683e-06
2.93584e-06
2.93595e-06
2.93688e-06
2.93781e-06
2.93873e-06
2.93952e-06
2.94014e-06
2.94058e-06
2.94085e-06
2.94096e-06
2.94089e-06
2.94066e-06
2.94025e-06
2.93968e-06
2.93892e-06
2.93798e-06
2.93695e-06
2.93596e-06
2.93588e-06
2.9368e-06
2.93773e-06
2.93866e-06
2.93945e-06
2.94007e-06
2.94051e-06
2.94079e-06
2.94089e-06
2.94083e-06
2.94059e-06
2.94018e-06
2.93961e-06
2.93885e-06
2.93791e-06
2.93688e-06
2.93588e-06
2.93562e-06
2.93654e-06
2.93748e-06
2.93841e-06
2.93921e-06
2.93983e-06
2.94028e-06
2.94055e-06
2.94066e-06
2.94059e-06
2.94035e-06
2.93994e-06
2.93936e-06
2.9386e-06
2.93766e-06
2.93661e-06
2.93562e-06
2.93517e-06
2.93609e-06
2.93704e-06
2.93798e-06
2.93879e-06
2.93942e-06
2.93987e-06
2.94015e-06
2.94025e-06
2.94019e-06
2.93994e-06
2.93953e-06
2.93895e-06
2.93817e-06
2.93722e-06
2.93616e-06
2.93517e-06
2.93453e-06
2.93545e-06
2.93642e-06
2.93737e-06
2.93819e-06
2.93883e-06
2.93929e-06
2.93957e-06
2.93968e-06
2.93961e-06
2.93936e-06
2.93895e-06
2.93835e-06
2.93757e-06
2.9366e-06
2.93552e-06
2.93453e-06
2.9337e-06
2.93462e-06
2.9356e-06
2.93657e-06
2.93741e-06
2.93806e-06
2.93853e-06
2.93881e-06
2.93892e-06
2.93885e-06
2.9386e-06
2.93818e-06
2.93757e-06
2.93677e-06
2.93578e-06
2.93469e-06
2.9337e-06
2.93262e-06
2.93357e-06
2.93458e-06
2.93558e-06
2.93644e-06
2.93711e-06
2.93758e-06
2.93787e-06
2.93799e-06
2.93791e-06
2.93766e-06
2.93722e-06
2.9366e-06
2.93578e-06
2.93476e-06
2.93364e-06
2.93262e-06
2.93151e-06
2.93245e-06
2.93346e-06
2.93448e-06
2.93536e-06
2.93605e-06
2.93654e-06
2.93684e-06
2.93695e-06
2.93688e-06
2.93662e-06
2.93617e-06
2.93552e-06
2.93469e-06
2.93364e-06
2.93253e-06
2.93151e-06
2.93031e-06
2.93142e-06
2.93244e-06
2.9335e-06
2.93437e-06
2.93506e-06
2.93555e-06
2.93585e-06
2.93596e-06
2.93589e-06
2.93562e-06
2.93518e-06
2.93453e-06
2.9337e-06
2.93262e-06
2.93151e-06
2.93031e-06
2.89197e-06
2.89296e-06
2.89388e-06
2.89484e-06
2.89564e-06
2.89627e-06
2.89672e-06
2.897e-06
2.8971e-06
2.89703e-06
2.89679e-06
2.89638e-06
2.89579e-06
2.89503e-06
2.89404e-06
2.89303e-06
2.89196e-06
2.89296e-06
2.89382e-06
2.89473e-06
2.89567e-06
2.89648e-06
2.89711e-06
2.89757e-06
2.89785e-06
2.89795e-06
2.89788e-06
2.89764e-06
2.89722e-06
2.89663e-06
2.89586e-06
2.8949e-06
2.89389e-06
2.89296e-06
2.89388e-06
2.89473e-06
2.89565e-06
2.89657e-06
2.89737e-06
2.89799e-06
2.89843e-06
2.89871e-06
2.89881e-06
2.89874e-06
2.8985e-06
2.8981e-06
2.89751e-06
2.89676e-06
2.89582e-06
2.8948e-06
2.89387e-06
2.89484e-06
2.89567e-06
2.89657e-06
2.89747e-06
2.89825e-06
2.89886e-06
2.8993e-06
2.89957e-06
2.89967e-06
2.8996e-06
2.89937e-06
2.89897e-06
2.8984e-06
2.89765e-06
2.89674e-06
2.89573e-06
2.89484e-06
2.89564e-06
2.89648e-06
2.89737e-06
2.89825e-06
2.89902e-06
2.89962e-06
2.90005e-06
2.90032e-06
2.90042e-06
2.90035e-06
2.90012e-06
2.89973e-06
2.89916e-06
2.89843e-06
2.89753e-06
2.89654e-06
2.89564e-06
2.89627e-06
2.89711e-06
2.89799e-06
2.89886e-06
2.89962e-06
2.90021e-06
2.90064e-06
2.9009e-06
2.901e-06
2.90094e-06
2.90071e-06
2.90032e-06
2.89976e-06
2.89904e-06
2.89815e-06
2.89717e-06
2.89627e-06
2.89672e-06
2.89757e-06
2.89843e-06
2.8993e-06
2.90005e-06
2.90064e-06
2.90106e-06
2.90132e-06
2.90142e-06
2.90135e-06
2.90113e-06
2.90074e-06
2.90019e-06
2.89948e-06
2.89859e-06
2.89763e-06
2.89672e-06
2.897e-06
2.89785e-06
2.89871e-06
2.89957e-06
2.90032e-06
2.9009e-06
2.90132e-06
2.90158e-06
2.90168e-06
2.90161e-06
2.90139e-06
2.901e-06
2.90046e-06
2.89975e-06
2.89887e-06
2.89791e-06
2.897e-06
2.8971e-06
2.89795e-06
2.89881e-06
2.89967e-06
2.90042e-06
2.901e-06
2.90142e-06
2.90168e-06
2.90177e-06
2.90171e-06
2.90149e-06
2.9011e-06
2.90056e-06
2.89985e-06
2.89897e-06
2.89801e-06
2.8971e-06
2.89703e-06