/*--------------------------------*- C++ -*----------------------------------*\
  =========                 |
  \\      /  F ield         | OpenFOAM: The Open Source CFD Toolbox
   \\    /   O peration     | Website:  https://openfoam.org
    \\  /    A nd           | Version:  6
     \\/     M anipulation  |
\*---------------------------------------------------------------------------*/
FoamFile
{
    version     2.0;
    format      ascii;
    class       volScalarField;
    location    "0";
    object      p;
}
// * * * * * * * * * * * * * * * * * * * * * * * * * * * * * * * * * * * * * //

dimensions      [0 2 -2 0 0 0 0];

internalField   nonuniform List<scalar> 
13046
(
0.804072
0.795247
0.821759
0.827094
0.823323
0.801265
0.801316
0.806212
0.82749
0.318752
0.235927
0.736601
0.791753
0.73829
0.803638
0.435508
0.736218
0.319831
0.837111
0.829557
0.821381
0.418009
0.738495
0.308644
0.812341
0.827105
0.824697
0.76454
0.742209
0.802238
0.812989
0.761424
0.811951
0.831132
0.83552
0.820439
0.833482
0.841072
0.832282
0.792891
0.804869
0.747994
0.832409
0.848899
0.836984
0.833587
0.832931
0.835186
0.790529
0.789759
0.820318
0.756781
0.775078
0.678871
0.769511
0.650339
0.777053
0.513524
0.656891
0.750716
0.69893
0.692047
0.782506
0.751145
0.458685
0.523886
0.679934
0.525809
0.747487
0.703204
0.548102
0.751349
0.47279
0.632088
0.748371
0.835816
0.840992
0.80152
0.74779
0.582405
0.45811
0.807903
0.818775
0.819884
0.746254
0.413195
0.477535
0.491638
0.749815
0.492511
0.73454
0.416047
0.477241
0.684323
0.656046
0.637411
0.613409
0.77333
0.772402
0.75018
0.501698
0.518898
0.833859
0.832148
0.829636
0.802069
0.697193
0.784774
0.782559
0.792467
0.711207
0.118272
0.729818
0.0331198
0.798111
0.761552
0.80464
0.649145
0.677932
0.574065
0.763787
0.619867
0.768114
0.276834
0.181151
0.734205
0.741456
0.667131
0.79205
0.7895
0.802588
0.746044
0.736235
0.452687
0.528993
0.605329
0.564629
0.762517
0.799695
0.747429
0.803597
0.748708
0.786708
0.80163
0.773369
0.774987
0.711599
0.799736
0.721643
0.802676
0.684662
0.659162
0.776385
0.826687
0.772311
0.807343
0.729845
0.639802
0.712857
0.62959
0.771269
0.768911
0.754392
0.752697
0.789344
0.310969
0.735848
0.257246
0.183269
0.731836
0.0835026
0.587225
0.530205
0.759924
0.781769
0.681509
0.788985
0.76171
0.79277
0.766062
0.738048
0.318088
0.342909
0.78602
0.706539
0.784531
0.821696
0.754439
0.795822
0.765244
0.79037
0.80353
0.725271
0.803502
0.752884
0.699127
0.79177
0.460878
0.746709
0.43306
0.745871
0.500441
0.543095
0.417502
0.462772
0.737116
0.737265
0.625358
0.756798
0.775623
0.594422
0.740181
0.455222
0.411062
0.394908
0.735312
0.827304
0.837751
0.829174
0.773117
0.752828
0.80081
0.743915
0.484332
0.554096
0.756835
0.739237
0.807431
0.731325
0.16287
0.207241
0.757555
0.621543
0.725897
0.46594
0.507477
0.744024
0.688667
0.737961
0.786707
0.725622
0.676741
0.790473
0.618614
0.520875
0.737978
0.598942
0.687035
0.756913
0.730838
0.153722
0.168039
0.792461
0.793512
0.69483
0.151897
0.729168
-0.0340224
0.829407
0.823823
0.82216
0.696411
0.709887
0.732426
0.748465
0.794688
0.783036
0.738909
0.549908
0.414947
0.747131
0.695011
0.786921
0.59118
0.65115
0.755973
0.620617
0.570092
0.763572
0.838341
0.829938
0.849409
0.660394
0.713628
0.773535
0.746535
0.667628
0.78441
0.759315
0.752867
0.792199
0.781725
0.671415
0.650459
0.689031
0.769526
0.581176
0.758906
0.547454
0.807077
0.794776
0.726926
0.76822
0.620851
0.714722
0.678147
0.591894
0.762617
0.776088
0.76054
0.674261
0.648595
0.637627
0.567009
0.758342
0.553972
0.760356
0.740067
0.351017
0.37743
0.694604
0.645403
0.773633
-0.122557
0.726143
0.00377108
0.806448
0.812361
0.795872
0.721276
0.713125
0.787314
0.751392
0.505727
0.480513
0.756508
0.622048
0.770821
0.588887
0.510225
0.740136
0.774925
0.807846
0.694619
0.700196
0.785502
0.760617
0.809294
0.482384
0.740503
0.366062
0.746955
0.598166
0.756772
0.672605
0.678786
0.778475
0.741413
0.7717
0.801679
0.707088
0.765113
0.789311
0.814759
0.790922
0.822297
0.757955
0.627628
0.723601
0.440287
0.44511
0.744942
0.599244
0.508587
0.746522
0.713697
0.75107
0.59141
0.612255
0.636986
0.534129
0.496587
0.745742
0.752086
0.728629
-0.087808
0.0514656
0.190442
0.729115
0.00519403
0.675396
0.717657
0.77346
0.743978
0.437063
0.38843
0.694594
0.686275
0.596055
0.575063
0.764509
0.758816
0.728898
0.344276
0.296554
0.120223
0.727404
-0.0945044
0.817519
0.839759
0.83749
0.107094
-0.0248919
0.730379
0.776038
0.68103
0.780367
0.361713
0.343616
0.737452
-0.100346
0.72851
-0.108196
0.801485
0.805906
0.766661
0.804294
0.835127
0.827181
0.286887
0.733363
0.170372
0.794306
0.82201
0.822568
0.825165
0.842523
0.842041
0.762796
0.589864
0.72754
0.791051
0.833356
0.827325
0.814023
0.795094
0.812119
0.729235
0.603463
0.752048
0.737588
0.739023
0.302694
0.296063
0.388062
0.376001
0.391346
0.416658
0.741402
0.757984
0.705648
0.553029
0.782758
0.783281
0.715762
0.582026
0.674615
0.745137
0.049609
0.725214
-0.0112856
0.73473
0.398074
0.447055
0.21585
0.732418
0.136618
0.730906
-0.151679
-0.132299
-0.216063
0.73129
-0.0683491
0.660215
0.625713
0.763712
0.232941
0.725733
0.166119
0.575176
0.557598
0.760467
0.376232
0.7292
0.205946
0.787564
0.808893
0.794202
0.383726
0.731106
0.3374
0.596817
0.747865
0.687621
0.640455
0.588833
0.759987
0.735405
-0.367124
-0.275219
-0.0740606
0.726174
-0.0304743
0.803689
0.818971
0.794936
0.329738
0.285814
0.733539
0.727444
0.24565
0.313953
0.437494
0.743681
0.389962
0.741391
0.428368
0.533631
0.744421
0.586385
0.755313
0.540079
0.660804
0.758777
0.737553
0.493376
0.333924
0.76767
0.754223
0.701462
0.679279
0.788841
0.78888
0.773275
0.706842
0.789028
0.711654
0.578619
0.766223
0.620416
0.545589
0.750779
0.395091
0.386856
0.738247
0.749539
0.539024
0.583584
-0.198963
0.730436
-0.0194489
0.815885
0.811301
0.816592
0.765727
0.822085
0.777584
0.746213
0.735869
0.771555
0.615213
0.769993
0.654628
-0.0661865
0.725645
-0.099359
0.352863
0.322985
0.735767
0.766855
0.761829
0.671562
0.645301
0.546805
0.745294
0.742844
0.448896
0.558682
0.0411677
0.0812493
0.72967
0.0959645
0.109354
0.729278
0.694876
0.599557
0.769075
0.812269
0.789661
0.744345
0.404237
0.74112
0.336687
0.641632
0.598139
0.765179
0.755947
0.492615
0.557381
0.74521
0.774953
0.657997
0.70125
0.746488
0.782404
0.79416
0.797899
0.732023
0.739135
0.317909
0.366347
0.617529
0.55251
0.760388
0.81328
0.813909
0.774867
0.450338
0.732113
0.284384
0.777897
0.749163
0.804654
0.785832
0.787578
0.816323
0.662523
0.611119
0.762165
0.263042
0.729147
0.0785793
0.297072
0.728366
0.105054
0.753458
0.475377
0.553511
0.668482
0.752959
0.771712
0.726381
0.0100667
0.207972
0.754602
0.513933
0.541188
0.729148
-0.191829
-0.189661
-0.109597
-0.275321
0.729624
0.741228
0.364559
0.505135
0.734254
0.230316
0.266983
0.440078
0.474703
0.740777
0.339436
0.744673
0.39323
0.526669
0.531774
0.75403
0.754143
0.662566
0.540199
0.828148
0.822138
0.790211
0.557757
0.568776
0.756218
0.7566
0.574191
0.589307
0.520929
0.738055
0.35635
0.734218
0.589258
0.765936
0.757278
0.663237
0.771454
0.63374
0.649042
0.77361
0.618906
0.636371
0.768478
0.819395
0.808832
0.79449
0.748635
0.658546
0.78996
0.72934
0.40432
0.335307
0.0878057
0.727387
0.111968
0.0433096
0.727826
0.105329
0.786512
0.7986
0.726332
-0.00335511
0.729105
0.0149026
0.58715
0.755993
0.504047
0.726017
0.00579021
-0.0304339
0.831954
0.82856
0.811554
0.738895
0.719766
0.792095
0.754389
0.679688
0.776682
0.72761
0.267077
0.216737
0.635194
0.60455
0.76071
0.732655
0.420421
0.265639
0.710326
0.701012
0.789168
0.836219
0.830075
0.797396
0.268883
0.245617
0.730634
0.753781
0.487245
0.534158
0.251768
0.21045
0.731897
0.730647
0.114412
0.0687637
0.722262
0.748683
0.794006
0.68065
0.649501
0.767803
0.792
0.800883
0.825201
0.174012
0.142045
0.184446
0.727731
0.136554
0.725364
0.661329
0.630119
0.775643
0.235899
0.186454
0.239592
0.195105
0.732435
0.73113
0.656236
0.704911
0.780747
0.752006
0.744216
0.796571
0.343421
0.730383
0.178158
0.74164
0.726702
0.7917
0.78612
0.773648
0.811419
0.269666
0.729834
0.118849
0.713828
0.657856
0.780142
0.706249
0.570645
0.748639
0.749353
0.626374
0.768887
0.558299
0.732408
0.461011
0.732331
-0.310795
-0.221387
0.715459
0.718096
0.790457
0.379368
0.735556
0.252467
0.751766
0.590794
0.751263
0.00373625
0.727092
-0.177522
0.812104
0.797
0.794271
0.762976
0.793442
0.744209
0.798433
0.79795
0.821243
0.800151
0.81559
0.8016
0.767982
0.821332
0.758433
0.734585
0.756914
0.806222
0.754733
0.760292
0.803073
0.724343
0.141062
0.070705
0.783447
0.725706
0.790499
0.28005
0.261929
0.734656
0.62112
0.591516
0.621487
0.584077
0.767832
0.761583
0.779781
0.758015
0.799547
0.715584
0.622391
0.766374
0.669133
0.665083
0.779992
0.832446
0.822138
0.828864
0.586709
0.59188
0.760379
0.815723
0.813381
0.796656
0.675893
0.700113
0.780826
0.718127
0.649596
0.767976
0.829429
0.826713
0.8092
0.834325
0.810413
0.829153
0.81659
0.804791
0.822353
0.796397
0.833498
0.769734
0.773043
0.769962
0.720758
0.716287
0.79714
0.790121
0.745807
0.443276
0.54912
0.75126
0.598498
0.719376
0.745874
0.747326
0.409779
0.425891
0.512924
0.510956
0.767191
0.764913
0.643918
0.83776
0.838811
0.831715
0.575322
0.565595
0.759166
0.805989
0.807453
0.748983
0.708987
0.638456
0.767927
0.602677
0.610876
0.487266
0.752464
0.50915
0.755122
0.631888
0.60982
0.768155
0.0516349
-0.117851
0.727926
0.747524
0.611045
0.753319
0.745594
0.751009
0.754077
0.604229
0.768425
0.624867
0.564655
0.607643
0.753491
0.72381
0.642167
0.77145
0.771143
0.758527
0.641821
0.751969
0.766627
0.766802
0.786792
0.673399
0.666697
0.746442
0.772737
0.639955
0.640939
0.62855
0.77226
0.820405
0.817849
0.802098
0.323448
0.734038
0.203743
0.76502
0.760621
0.622581
0.7222
0.701073
0.642898
0.626359
0.770422
0.773111
0.736108
0.249279
0.363283
0.351275
0.732935
0.200481
0.314583
0.732413
0.172235
0.583733
0.752593
0.48764
0.736089
0.668218
0.777871
0.314953
0.447658
0.672106
0.322929
0.606721
0.0493932
0.53584
0.40569
0.257212
0.59285
0.588562
0.221839
0.318032
0.592333
0.426947
0.320655
0.348797
0.403983
0.444183
0.546951
0.467001
0.392411
0.609279
0.726984
0.682645
0.456904
0.623718
0.234178
0.493854
0.301863
0.250658
0.529699
0.458348
0.449112
0.285903
0.477127
0.658959
0.605701
0.368115
0.494669
0.367593
0.73243
0.31382
0.589853
0.639855
0.384339
0.395678
0.336192
0.230385
0.313743
0.68594
0.470195
0.324298
0.376067
0.248344
0.678817
0.548985
0.465941
0.328893
0.579344
0.308687
0.323503
0.683679
0.429395
0.465213
0.552529
0.484528
0.726358
0.607666
0.598214
0.194934
0.245472
0.372865
0.568638
0.228712
0.447729
0.446198
0.276877
0.566404
0.638916
0.403583
0.4519
0.238504
0.304247
0.375058
0.57898
0.377071
0.34301
0.421729
0.693289
0.322186
0.579844
0.68247
0.453294
0.320269
-0.0499806
0.290968
0.341824
0.319479
0.19064
0.521731
0.613987
0.654818
0.734786
0.31003
0.319277
0.230129
0.338247
0.29429
0.656335
0.620116
0.546417
0.280081
0.244488
0.5109
0.618061
0.40557
0.343129
0.179102
0.395443
0.443687
0.709118
0.724754
0.572692
0.468513
0.381321
0.225951
0.705957
0.257145
0.56517
0.184478
0.685485
0.240755
0.233466
0.29334
0.636818
0.435426
0.141086
0.307991
0.538288
0.313251
0.583435
0.517477
0.334911
0.636189
0.374921
0.294668
0.648282
0.31352
0.412391
0.225206
0.479303
0.36471
0.642673
0.578315
0.394476
0.568539
0.585163
0.667857
0.450528
0.368357
0.328954
0.586465
0.258047
0.494539
0.238837
0.721836
0.399007
0.647413
0.701099
0.474597
0.71078
0.648687
0.664483
0.271934
0.176653
0.223568
0.672099
0.272777
0.250528
0.247708
0.254185
0.408715
0.374408
0.479545
0.701593
0.574926
0.368055
0.576641
0.357234
0.727233
0.193962
0.627228
0.337293
0.165043
0.68807
0.705084
0.327944
0.34263
0.72126
0.498286
0.363501
0.296741
0.56931
0.656283
0.55899
0.30999
0.330197
0.601679
0.464822
0.295852
0.520975
0.245558
0.263467
0.382357
0.63434
0.187041
0.393737
0.614804
0.370144
0.180236
0.395694
0.328851
0.370013
0.518642
0.531398
0.302772
0.245363
0.280911
0.550613
0.552242
0.393683
0.535771
0.381939
0.273762
0.502638
0.368781
0.158364
0.566277
0.646882
0.482265
0.699434
0.661524
0.729154
0.321239
0.132803
0.42148
0.393829
0.363719
0.196755
0.507499
0.683101
0.566181
0.498087
0.298384
0.399704
0.582377
0.464426
0.538157
0.315634
0.42365
0.365233
0.228989
0.302193
0.336105
0.322253
0.278615
0.535927
0.467185
0.397031
0.545198
0.334497
0.410845
0.314713
0.396369
0.36163
0.35238
0.492507
0.196886
0.123396
0.428062
0.215633
0.182109
0.497102
0.197733
0.185198
0.644434
0.541364
0.305397
0.576491
0.257891
0.52879
0.523937
0.254253
0.328039
0.61502
0.426943
0.581011
0.0453662
0.288338
0.64857
0.357985
0.296191
0.0986352
0.199095
0.169306
0.207208
0.371305
0.543156
0.272826
0.169713
0.295108
0.350264
0.727375
0.31229
0.565979
0.502617
0.217915
0.391121
0.299791
0.241381
0.521585
0.383592
0.682352
0.547693
0.299215
0.375253
0.473187
0.726338
0.574301
0.6602
0.578404
0.370514
0.480443
0.40909
0.285915
0.203043
0.344508
0.356127
0.543635
0.321543
0.222866
0.325892
0.379131
0.319696
0.344036
0.62811
0.36258
0.341685
0.678729
0.635623
0.301029
0.470635
0.656941
0.312491
0.187887
0.377682
0.276189
0.240805
0.654183
0.300107
0.398651
0.669823
0.183659
0.476121
0.316754
0.477142
0.380743
0.332417
-0.0281566
0.391483
0.224445
0.343029
0.386656
0.385459
0.571445
0.681141
0.3177
0.463779
0.379609
0.286812
0.152278
0.619388
0.514578
0.348993
0.224077
0.493028
0.221023
0.327841
0.308673
0.291137
0.612587
0.680137
0.362971
0.565519
0.727716
0.624857
0.627156
0.667745
0.358314
0.347563
0.243698
0.72393
0.614303
0.647059
0.329763
0.372568
0.174382
0.579289
0.374581
0.304446
0.648112
0.531614
0.267754
0.387445
0.312053
0.324197
0.315397
0.376197
0.397991
0.267641
0.362364
0.205986
0.392112
0.270682
0.530204
0.444586
0.187399
0.65905
0.673175
0.57539
0.355563
0.483791
0.194971
0.590753
0.465725
0.219427
0.65476
0.122184
0.684661
0.214551
0.409391
0.422437
0.572764
0.597694
0.320704
0.701067
0.327824
0.630438
0.40995
0.531249
0.351415
0.306933
0.337813
0.637168
0.417864
0.718993
0.553949
0.199715
0.316345
0.529979
0.148814
0.359651
0.411705
0.267452
0.689088
0.269112
0.244217
0.600411
0.338068
0.681844
0.712844
0.382479
0.722111
0.698319
0.632548
0.652112
0.499696
0.230917
0.308863
0.388273
0.617089
0.386309
0.124978
0.69879
0.273548
0.405404
0.299861
0.66472
0.724953
0.287569
0.625945
0.500966
0.680854
0.393757
0.584137
0.389147
0.700893
0.716534
0.554407
0.306508
0.602738
0.357041
0.465865
0.452189
0.406439
0.504162
0.33718
0.130533
0.246149
0.419142
0.524232
0.470073
0.650423
0.291184
0.371914
0.526301
0.249786
0.671578
0.306599
0.389108
0.672615
0.639137
0.484142
0.706387
0.305686
0.372674
0.589794
0.445804
0.432818
0.407167
0.339921
0.53255
0.561423
0.340924
0.312613
0.482568
0.198945
0.263867
0.683805
0.727685
0.720604
0.408655
0.733646
0.72394
0.693298
0.149727
0.511872
0.504186
0.707804
0.368889
0.315741
0.228765
0.30418
0.0933311
0.698544
0.423309
0.433367
0.588771
0.554392
0.361462
0.386907
0.723611
0.704992
0.659646
0.550259
0.350271
0.565002
0.53394
0.366643
0.423148
0.249358
0.301788
0.455182
0.435962
0.34885
0.6876
0.681863
0.155784
0.636025
0.324006
0.313578
0.374395
0.681638
0.397214
0.552711
0.418247
0.66295
0.376559
0.420379
0.716612
0.173972
0.195779
0.306313
0.274427
0.126264
-0.0910984
0.288252
0.134081
0.444724
0.154184
0.260281
0.434869
0.330764
0.290023
0.358075
0.235934
-0.0501049
0.700054
0.641383
0.384509
0.224522
0.650851
0.357438
0.315159
0.714288
0.297736
0.712309
0.39722
0.643549
0.405996
0.210637
0.252619
0.465714
0.468653
0.445993
0.214047
0.3839
0.265249
0.277412
0.331797
0.188575
0.241791
0.695112
0.299004
0.561173
0.596198
0.371093
0.61939
0.599848
0.228506
-0.0793097
0.40997
0.20426
0.133039
0.570155
0.575496
0.385973
0.527303
0.361541
0.71676
0.69609
0.409887
0.350207
0.703533
0.651064
0.518958
0.516061
0.372468
0.72071
0.454848
0.153236
0.666214
0.624564
0.683327
0.473094
0.310905
0.370828
0.578109
0.524681
-0.177853
0.732067
0.406888
0.302734
0.460679
0.662283
0.721952
0.718319
0.52538
0.428447
0.605074
0.654618
0.679968
0.562274
0.619151
0.230288
0.319364
0.489597
0.244326
0.224689
0.187397
0.403954
0.601176
0.205832
0.455807
0.323711
0.635445
0.718299
0.419849
0.231308
0.174573
0.591261
0.345156
0.297912
0.180006
0.687142
0.491268
0.505187
0.21296
0.50749
0.299421
0.317028
0.574489
0.596753
0.692058
0.726701
0.288006
0.658794
0.156519
0.669418
0.682428
0.682653
0.607043
0.267173
0.267485
0.39055
0.152004
0.447686
0.184509
0.498991
0.220266
0.647909
0.372147
0.16628
0.639289
0.591445
0.415976
0.426959
0.557886
0.682817
0.493193
0.444095
0.161687
0.624827
0.469499
0.709758
0.132213
0.438641
0.667728
0.576613
0.706358
0.58363
0.385754
0.107956
0.164036
0.42678
0.199846
0.696921
0.155549
0.337715
0.41344
0.300812
0.618948
0.137206
0.681592
0.580029
0.508919
0.13446
0.533309
0.293585
0.368802
0.425115
0.414391
0.371693
0.352322
0.604161
0.271044
0.733464
0.363258
0.425999
0.546808
0.578426
0.702058
0.373141
0.401087
0.288797
0.42431
0.348068
0.691004
0.302867
0.451592
0.370555
0.62666
0.323122
0.469206
0.237698
0.718855
0.148641
0.265503
0.342444
0.634314
0.171943
0.187081
0.258436
0.222997
0.681527
0.441442
0.559625
0.643529
0.540682
0.456635
0.7204
0.445876
0.585356
0.536301
0.465798
0.187138
0.479134
0.425128
0.341853
0.480277
0.264519
0.199471
0.470597
0.370865
0.273262
0.619447
0.428075
0.560318
0.419333
0.699905
0.409908
0.4016
0.53605
0.21947
0.292117
0.371213
0.465356
0.49155
0.525775
0.677313
0.574661
0.614692
0.475527
0.659187
0.701047
0.695981
0.48321
0.447837
0.500024
0.23429
0.712957
0.650202
0.629323
0.445781
0.26666
0.189307
0.500788
0.575911
0.304467
0.627738
0.649634
0.524103
0.322773
0.469218
0.343739
0.303444
0.448081
0.32749
0.505498
0.18035
0.508988
0.418441
0.41128
0.139542
0.488525
0.461154
0.552817
0.366818
0.496149
0.674656
0.68937
0.507472
0.401774
0.616425
0.470019
0.297683
0.296697
0.401977
0.214534
0.677278
0.432131
0.483688
0.58016
0.566034
0.524909
0.257534
0.726073
0.533911
0.310285
0.440163
0.455795
0.615876
0.66907
0.536194
0.511881
0.174265
0.276811
0.411964
0.519991
0.454325
0.50811
0.331955
0.684945
0.514783
0.618163
0.655582
0.486294
0.307289
0.460555
0.708877
0.340424
0.165885
0.45722
0.717997
0.351591
0.403002
0.605702
0.575306
0.63435
0.441803
0.178565
0.517728
0.23194
0.359626
0.633153
0.431481
0.240989
0.299288
0.347696
0.531967
0.360545
0.33384
0.663427
0.315968
0.722056
0.629986
0.222864
0.119596
0.432612
0.584582
0.652153
0.438897
0.412267
0.296515
0.392542
0.410602
0.726391
0.668898
0.584182
0.364624
0.189853
0.692543
0.723711
0.685077
0.61648
0.667004
0.454785
0.239988
0.146502
0.167338
0.700571
0.459049
0.279392
0.380592
0.723727
0.371721
0.322616
0.208861
0.442653
0.29038
0.746075
0.519632
0.578526
0.663733
0.648532
0.396087
0.539821
0.453384
0.564331
0.329667
0.524203
0.330329
0.689834
0.223946
0.353587
0.268658
0.386507
0.672777
0.381123
0.630442
0.65874
0.666539
0.256484
0.450167
0.412151
0.308626
0.681781
0.472465
0.475357
0.514348
0.074016
0.385452
0.702242
0.546251
0.685989
0.156735
0.266291
0.379269
0.696271
0.310193
0.41637
0.277235
0.253701
0.369234
0.713281
0.395873
0.418246
0.21259
0.742709
0.709461
0.0800896
0.702756
0.369338
0.258753
0.270042
0.451872
0.208025
0.524096
0.366499
0.356991
0.391986
0.682504
0.439934
0.630034
0.394051
0.253896
0.389462
0.154987
0.189463
0.424972
0.358636
0.485075
0.272818
0.41969
0.655293
0.51596
0.357332
0.201211
0.671943
0.44317
0.420388
0.734347
0.483632
0.350769
0.340766
0.261449
0.703071
0.346655
0.425811
0.530558
0.217629
0.677791
0.23463
0.660154
0.44496
0.598204
0.28177
0.61806
0.417087
0.22756
0.295761
0.442887
0.673958
0.114691
0.314097
0.364067
0.700907
0.73273
0.287843
0.340066
0.518572
0.726774
0.405905
0.680174
0.649589
0.626621
0.598187
0.496091
0.556003
0.541217
0.68478
0.418701
0.464874
0.288965
0.326201
0.4157
0.276886
0.704051
0.242181
0.680669
0.408246
0.696079
0.3391
0.711326
0.594388
0.670831
0.697016
0.673828
0.732461
0.396999
0.658721
0.439793
0.37769
0.316466
0.274363
0.686089
0.244271
0.519241
0.532655
0.410003
0.517957
0.324718
0.694887
0.466286
0.607662
0.144044
0.301369
0.385523
0.753466
0.298334
0.552344
0.333863
0.386334
0.238665
0.400985
0.372802
0.621662
0.689873
0.204977
0.511289
0.379661
0.34708
0.637833
0.299298
0.323517
0.706477
0.168453
0.477735
0.57813
0.669847
0.714401
0.335289
0.316994
0.221043
0.369582
0.310835
0.377327
0.602005
0.36211
0.237542
0.416602
0.45059
0.354033
0.318714
0.362481
0.453075
0.226837
0.610443
0.596846
0.345473
0.607994
0.213236
0.207806
0.294129
0.172038
0.705427
0.376317
0.369091
0.32837
0.650012
0.683774
0.486249
0.600381
0.323504
0.31039
0.45371
0.371893
0.310493
0.684181
0.494849
0.553111
0.710283
0.618867
0.431979
0.698844
0.199711
0.491019
0.484736
0.529081
0.379236
0.704165
0.360744
0.522076
0.437962
0.352131
0.27802
0.325028
0.594479
0.6408
0.661164
0.460655
0.484887
0.701732
0.622963
0.426004
0.481544
0.250881
0.394652
0.626657
0.202918
0.65455
0.369397
0.667295
0.735556
0.688041
0.357323
0.667924
0.651296
0.168739
0.703171
0.324615
0.693131
0.621689
0.381999
0.271231
0.495221
0.3995
0.369
0.318054
0.634609
0.349493
0.700337
0.262248
0.337737
0.305367
0.259793
0.369591
0.640657
0.71742
0.256121
0.607882
0.462015
0.52257
0.410776
0.516737
0.677784
0.626946
0.372688
0.670071
0.636506
0.712178
0.259384
0.341689
0.318745
0.601463
0.708147
0.644272
0.425903
0.710833
0.440151
0.207163
0.269144
0.114326
0.423205
0.236924
0.713115
0.722168
0.483236
0.737252
0.629486
0.479897
0.706087
0.247713
0.704264
0.392475
0.683521
0.3734
0.269289
0.595788
0.490223
0.693167
0.677619
0.681465
0.288305
0.285417
0.181905
0.658964
0.624584
0.284806
0.45159
0.627052
0.15814
0.339039
0.285552
0.380005
0.517961
0.374903
0.485109
0.59824
0.467678
0.485405
0.599033
0.370707
0.387982
0.517883
0.472612
0.377558
0.659438
0.694442
0.285584
0.621554
0.146991
0.330048
0.667636
0.611755
0.360519
0.686268
0.244457
0.595741
0.395571
0.394277
0.667208
0.378113
0.607689
0.59771
0.563099
0.725133
0.569953
0.222022
0.537747
0.419187
0.609489
0.724464
0.556439
0.437038
0.309667
0.396439
0.668976
0.254887
0.652668
0.295126
0.503304
0.619466
0.598747
0.459562
0.665625
0.709157
0.381377
0.372433
0.483292
0.284079
0.237891
0.489996
0.597644
0.301286
0.218874
0.300692
0.215475
0.59068
0.435206
0.614323
0.331678
0.684805
0.467702
0.651601
0.723256
0.315781
0.674991
0.373482
0.487648
0.456002
0.66277
0.320419
0.403448
0.4632
0.273857
0.379582
0.267051
0.236192
0.147824
0.706986
0.722287
0.298518
0.331866
0.603847
0.194941
0.29733
0.373681
0.578009
0.590248
0.181764
0.144392
0.677668
0.329105
0.519933
0.326122
0.212827
0.270508
0.494712
0.651261
0.515533
0.203367
0.686498
0.648543
0.298833
0.51776
0.364333
0.72172
0.385654
0.411334
0.231749
0.559037
0.69842
0.531652
0.489689
0.315942
0.429531
0.520981
0.706653
0.741324
0.318365
0.711729
0.325824
0.499967
0.50089
0.425396
0.357438
0.660707
0.385523
0.492097
0.294538
0.318453
0.39302
0.273171
0.563408
0.684669
0.297459
0.336463
0.491258
0.363719
0.307642
0.148869
0.360543
0.669946
0.147397
0.350591
0.588362
0.491559
0.426677
0.552344
0.641137
0.277075
0.280782
0.641196
0.415156
0.27483
0.444513
0.660948
0.553684
0.501466
0.321719
0.322568
0.311219
0.707837
0.643357
0.716694
0.419833
0.572081
0.250203
0.457188
0.652192
0.203246
0.216492
0.596747
0.647353
0.196798
0.343148
0.316128
0.264482
0.314823
0.7389
0.406064
0.337249
0.488853
0.309739
0.593519
0.50393
0.241992
0.34563
0.618793
0.426609
0.709545
0.233569
0.341346
0.542366
0.522268
0.426607
0.523205
0.274428
0.713911
0.712621
0.546511
0.66658
0.305466
0.659366
0.550744
0.539694
0.699195
0.195385
0.353851
0.721199
0.554395
0.186118
0.35164
0.643848
0.718305
0.45491
0.605265
0.317748
0.227366
0.291386
0.177159
0.652361
0.322843
0.469301
0.701183
0.310907
0.279927
0.31806
0.478848
0.333956
0.358926
0.31351
0.258697
0.428274
0.624891
0.695512
0.579927
0.36323
0.352522
0.172389
0.348251
0.538769
0.516108
0.563389
0.591944
0.353945
0.441624
0.636983
0.65084
0.717772
0.668713
0.702733
0.431818
0.243229
0.292276
0.25706
0.707729
0.479993
0.326855
0.697251
0.251573
0.630084
0.592463
0.349557
0.32472
0.353839
0.330056
0.648102
0.400127
0.579168
0.445826
0.692631
0.512236
0.724118
0.290491
0.447968
0.34157
0.139044
0.36741
0.61436
0.262414
0.0492902
0.500425
0.702995
0.610818
0.327997
0.23229
0.296728
0.254386
0.327898
0.256298
0.423291
0.266283
0.598882
0.294591
0.331791
0.700087
0.43815
0.558632
0.639372
0.412742
0.468515
0.283179
0.616925
0.394009
0.35342
0.414907
0.276863
0.226788
0.327745
0.313655
0.60896
0.718662
0.657445
0.50437
0.585622
0.204055
0.712941
0.506465
0.599014
0.324642
0.588804
0.355819
0.375041
0.628247
0.697574
0.6133
0.507929
0.386814
0.722229
0.37692
0.632449
0.704912
0.567623
0.399871
0.197389
0.631765
0.494471
0.265452
0.552831
0.48614
0.689818
0.317802
0.702821
0.718515
0.416994
0.292751
0.701958
0.237023
0.272475
0.374675
0.266398
0.360959
0.278613
0.235897
0.443677
0.334113
0.293394
0.355511
0.514753
0.329458
0.312113
0.54572
0.469775
0.217329
0.68437
0.732603
0.709889
0.323634
0.206408
0.727828
0.225782
0.429621
0.305076
0.376689
0.323043
0.595973
0.365557
0.364751
0.216019
0.201612
0.268304
0.369227
0.193036
0.454741
0.494139
0.441711
0.693783
0.486263
0.556639
0.396819
0.644578
0.371938
0.376335
0.751987
0.373735
0.48612
0.236702
0.56921
0.72371
0.400047
0.527102
0.486937
0.348071
0.315827
0.307302
0.266524
0.601966
0.278676
0.411932
0.364315
0.418522
0.298659
0.309509
0.4288
0.391998
0.346965
0.737057
0.434847
0.397912
0.502991
0.695864
0.378072
0.20537
0.622394
0.239209
0.396144
0.319373
0.435168
0.355658
0.382576
0.43524
0.713551
0.655139
0.213011
0.345828
0.201812
0.307473
0.183425
0.271982
0.365777
0.287745
0.373181
0.542752
0.732522
0.368081
0.589449
0.4625
0.706773
0.363046
0.721669
0.533476
0.250143
0.535612
0.600029
0.373535
0.653611
0.319648
0.662789
0.333055
0.0766475
0.439978
0.731
0.723047
0.601768
0.546575
0.577768
0.213441
0.344243
0.577195
0.723832
0.104261
0.439452
0.320396
0.370013
0.420294
0.297897
0.25092
0.328469
0.270539
0.338506
0.385086
0.417379
0.723103
0.647976
0.182519
0.623011
0.286243
0.300359
0.631502
0.331503
0.394818
0.563305
0.150218
0.305136
0.452855
0.656958
0.256485
0.317558
0.391214
0.53867
0.256191
0.692398
0.201881
0.371841
0.393467
0.324629
0.545999
0.542419
0.69549
0.315356
0.609648
0.494744
0.532885
0.317441
0.544377
0.286124
0.243195
0.161333
0.503075
0.437157
0.394255
0.67601
0.443107
0.495474
0.541144
0.299371
0.27495
0.37232
0.509789
0.328886
0.730961
0.239547
0.202534
0.371569
0.367793
0.330717
0.310781
0.588756
0.374063
0.447851
0.257622
0.322714
0.44228
0.244657
0.728796
0.728237
0.263222
0.297361
0.651028
0.4619
0.306424
0.231247
0.303117
0.264892
0.490993
0.681071
0.308256
0.212533
0.541434
0.434397
0.203165
0.259626
0.430838
0.582394
0.74216
0.248042
0.198719
0.512378
0.652368
0.401876
0.494276
0.386295
0.320269
0.377155
0.538043
0.431686
0.323469
0.623394
0.38954
0.163524
0.484788
0.33265
0.628985
0.724389
0.333653
0.365835
0.367884
0.366044
0.247795
0.378973
0.264282
0.697082
0.635471
0.580206
0.368199
0.219998
0.614724
0.710567
0.311547
0.479004
0.359406
0.147398
0.46166
0.37364
0.146492
0.31639
0.547514
0.247736
0.205882
0.26661
0.653647
0.233456
0.624219
0.421407
0.318631
0.386699
0.290943
0.629775
0.173139
0.377382
0.408119
0.241722
0.494839
0.57847
0.508803
0.437482
0.607165
0.260187
0.261783
0.679267
0.317406
0.674148
0.513423
0.400529
0.491138
0.657893
0.434682
0.198764
0.690725
0.310075
0.411072
0.660398
0.301042
0.702865
0.310337
0.392133
0.161824
0.393573
0.26728
0.449908
0.27435
0.165954
0.261906
0.25693
0.153655
0.680799
0.256842
0.386077
0.502871
0.443921
0.71309
0.715244
0.352067
0.440569
0.634613
0.33903
0.682143
0.167194
0.386211
0.48212
0.316001
0.639615
0.360028
0.369746
0.347595
0.31467
0.30868
0.168679
0.662104
-0.0310865
0.709269
0.58174
0.275363
0.205405
0.273782
0.743861
0.583892
0.548923
0.430137
0.497981
0.411198
0.659602
0.615637
0.293709
0.528419
0.711581
0.422316
0.475026
0.536962
0.188312
0.257673
0.638281
0.383968
0.415648
0.703242
0.250358
0.171625
0.327802
0.413797
0.421919
0.732518
0.310002
0.225795
0.309044
0.411121
0.315223
0.671407
0.430783
0.278366
0.359224
0.311535
0.301386
0.357136
0.532771
0.463139
0.284995
0.671821
0.37973
0.658356
0.285934
0.250862
0.380125
0.664924
0.708776
0.642238
0.453022
0.430063
0.626784
0.722572
0.240742
0.683089
0.266812
0.554704
0.534174
0.669703
0.449907
0.655425
0.692047
0.33057
0.325594
0.387146
0.445451
0.267465
0.279271
0.238792
0.595589
0.640729
0.234279
0.690174
0.449517
0.611112
0.425339
0.276429
0.636961
0.617107
0.362987
0.347078
0.265971
0.716746
0.589317
0.72576
0.235262
0.266488
0.409974
0.646467
0.5422
0.692816
0.477278
0.727934
0.327308
0.400165
0.475416
0.344119
0.517235
0.197536
0.626511
0.434928
0.479867
0.684513
0.224329
0.237951
0.176023
0.513993
0.664562
0.346656
0.546575
0.210451
0.222014
0.420957
0.331261
0.310316
0.682587
0.4554
0.299045
0.402528
0.506424
0.700912
0.51529
0.393796
0.661562
0.451724
0.703783
0.463356
0.577742
0.396172
0.232998
0.733411
0.280008
0.493528
0.502216
0.678945
0.566631
0.432924
0.326271
0.721182
0.406572
0.284436
0.60093
0.713972
0.58976
0.54822
0.222987
0.157215
0.480142
0.289374
0.390785
0.465917
0.284785
0.697463
0.719429
0.689033
0.343363
0.379583
0.312065
0.365161
0.567294
0.252128
0.563448
0.697039
0.242965
0.366644
0.323124
0.643092
0.549203
0.379201
0.292308
0.587573
0.309349
0.188318
0.260302
0.730745
0.168563
0.622267
0.530439
0.316267
0.718006
0.489789
0.748267
0.14622
0.370192
0.482675
0.687792
0.368366
0.681579
0.49141
0.168161
0.434879
0.33619
0.376991
0.159002
0.620632
0.36908
0.291136
0.19876
0.439318
0.686929
0.10193
0.352975
0.662696
0.395457
0.65735
0.16141
0.31092
0.315529
0.408729
0.337475
0.222695
0.307674
0.115011
0.390105
0.393001
0.612644
0.4791
0.665314
0.299071
0.379334
0.226417
0.457731
0.115052
0.385593
0.725756
0.417611
0.353437
0.737588
0.289539
0.495278
0.54047
0.215389
0.343457
0.43756
0.499544
0.696153
0.713296
0.713454
0.51049
0.398841
0.401777
0.272007
0.654283
0.560682
0.318731
0.356471
0.348175
0.429893
0.748814
0.398919
0.749019
0.358242
0.542984
0.275736
0.311776
0.219909
0.33346
0.676606
0.353236
0.236609
0.26903
0.727599
0.350952
0.283314
0.27773
0.309283