/*--------------------------------*- C++ -*----------------------------------*\
  =========                 |
  \\      /  F ield         | OpenFOAM: The Open Source CFD Toolbox
   \\    /   O peration     | Website:  https://openfoam.org
    \\  /    A nd           | Version:  6
     \\/     M anipulation  |
\*---------------------------------------------------------------------------*/
FoamFile
{
    version     2.0;
    format      ascii;
    class       volVectorField;
    location    "0";
    object      U_rec;
}
// * * * * * * * * * * * * * * * * * * * * * * * * * * * * * * * * * * * * * //

dimensions      [0 1 -1 0 0 0 0];

internalField   nonuniform List<vector> 
40000
(
(-2.69601e-07 2.69471e-07 0)
(7.9478e-07 -4.40037e-07 0)
(4.49951e-06 -1.2845e-06 0)
(1.07741e-05 -1.91858e-06 0)
(1.89517e-05 -2.3439e-06 0)
(2.83728e-05 -2.59322e-06 0)
(3.84707e-05 -2.70176e-06 0)
(4.87817e-05 -2.70178e-06 0)
(5.89396e-05 -2.61982e-06 0)
(6.86622e-05 -2.47686e-06 0)
(7.77361e-05 -2.28928e-06 0)
(8.60027e-05 -2.06984e-06 0)
(9.33475e-05 -1.82839e-06 0)
(9.96903e-05 -1.57256e-06 0)
(0.000104978 -1.30816e-06 0)
(0.00010918 -1.03961e-06 0)
(0.000112277 -7.70166e-07 0)
(0.000114268 -5.02179e-07 0)
(0.000115155 -2.37245e-07 0)
(0.000114949 2.3633e-08 0)
(0.000113663 2.79934e-07 0)
(0.000111313 5.31532e-07 0)
(0.000107914 7.78606e-07 0)
(0.000103481 1.02157e-06 0)
(9.80271e-05 1.26099e-06 0)
(9.15639e-05 1.49761e-06 0)
(8.40989e-05 1.7322e-06 0)
(7.56368e-05 1.96563e-06 0)
(6.61806e-05 2.19872e-06 0)
(5.57275e-05 2.43236e-06 0)
(4.42735e-05 2.66735e-06 0)
(3.18106e-05 2.90445e-06 0)
(1.83283e-05 3.1444e-06 0)
(3.81289e-06 3.38782e-06 0)
(-1.17505e-05 3.63528e-06 0)
(-2.83801e-05 3.88726e-06 0)
(-4.60949e-05 4.14416e-06 0)
(-6.49153e-05 4.40629e-06 0)
(-8.48636e-05 4.67386e-06 0)
(-0.000105962 4.94702e-06 0)
(-0.000128233 5.22582e-06 0)
(-0.000151698 5.51023e-06 0)
(-0.00017638 5.80015e-06 0)
(-0.0002023 6.09539e-06 0)
(-0.000229479 6.39569e-06 0)
(-0.000257937 6.70074e-06 0)
(-0.000287688 7.01013e-06 0)
(-0.00031875 7.32341e-06 0)
(-0.000351136 7.64005e-06 0)
(-0.000384857 7.95945e-06 0)
(-0.00041992 8.28097e-06 0)
(-0.000456331 8.60389e-06 0)
(-0.000494092 8.92742e-06 0)
(-0.0005332 9.25074e-06 0)
(-0.000573651 9.57293e-06 0)
(-0.000615434 9.89303e-06 0)
(-0.000658537 1.021e-05 0)
(-0.00070294 1.05228e-05 0)
(-0.000748621 1.08302e-05 0)
(-0.000795552 1.1131e-05 0)
(-0.000843698 1.14239e-05 0)
(-0.000893021 1.17076e-05 0)
(-0.000943476 1.19807e-05 0)
(-0.000995012 1.22418e-05 0)
(-0.00104757 1.24892e-05 0)
(-0.00110109 1.27215e-05 0)
(-0.0011555 1.29371e-05 0)
(-0.00121073 1.31342e-05 0)
(-0.00126668 1.33113e-05 0)
(-0.00132328 1.34665e-05 0)
(-0.00138041 1.35982e-05 0)
(-0.00143798 1.37047e-05 0)
(-0.00149588 1.37841e-05 0)
(-0.00155397 1.38347e-05 0)
(-0.00161215 1.38548e-05 0)
(-0.00167028 1.38426e-05 0)
(-0.00172821 1.37966e-05 0)
(-0.0017858 1.37151e-05 0)
(-0.0018429 1.35965e-05 0)
(-0.00189934 1.34393e-05 0)
(-0.00195498 1.32422e-05 0)
(-0.00200962 1.30038e-05 0)
(-0.00206311 1.2723e-05 0)
(-0.00211526 1.23987e-05 0)
(-0.00216589 1.203e-05 0)
(-0.00221482 1.16162e-05 0)
(-0.00226186 1.11566e-05 0)
(-0.00230681 1.06509e-05 0)
(-0.0023495 1.00987e-05 0)
(-0.00238973 9.50025e-06 0)
(-0.00242731 8.85556e-06 0)
(-0.00246205 8.16515e-06 0)
(-0.00249378 7.42965e-06 0)
(-0.00252231 6.65001e-06 0)
(-0.00254746 5.82738e-06 0)
(-0.00256907 4.96319e-06 0)
(-0.00258697 4.05912e-06 0)
(-0.002601 3.11714e-06 0)
(-0.00261103 2.13947e-06 0)
(-0.0026169 1.1286e-06 0)
(-0.00261851 8.72635e-08 0)
(-0.00261573 -9.81502e-07 0)
(-0.00260847 -2.07444e-06 0)
(-0.00259663 -3.18805e-06 0)
(-0.00258015 -4.31857e-06 0)
(-0.00255897 -5.46204e-06 0)
(-0.00253305 -6.61429e-06 0)
(-0.00250238 -7.77096e-06 0)
(-0.00246693 -8.92752e-06 0)
(-0.00242674 -1.00793e-05 0)
(-0.00238184 -1.12215e-05 0)
(-0.00233227 -1.23492e-05 0)
(-0.00227812 -1.34574e-05 0)
(-0.00221947 -1.45412e-05 0)
(-0.00215644 -1.55955e-05 0)
(-0.00208917 -1.66153e-05 0)
(-0.0020178 -1.75957e-05 0)
(-0.00194252 -1.85318e-05 0)
(-0.00186351 -1.94189e-05 0)
(-0.00178098 -2.02526e-05 0)
(-0.00169516 -2.10283e-05 0)
(-0.0016063 -2.17419e-05 0)
(-0.00151466 -2.23897e-05 0)
(-0.00142051 -2.2968e-05 0)
(-0.00132414 -2.34736e-05 0)
(-0.00122586 -2.39036e-05 0)
(-0.00112597 -2.42556e-05 0)
(-0.00102481 -2.45274e-05 0)
(-0.000922683 -2.47174e-05 0)
(-0.000819938 -2.48245e-05 0)
(-0.000716911 -2.48478e-05 0)
(-0.000613941 -2.47872e-05 0)
(-0.000511368 -2.4643e-05 0)
(-0.00040953 -2.44157e-05 0)
(-0.00030876 -2.41067e-05 0)
(-0.000209388 -2.37177e-05 0)
(-0.000111733 -2.32507e-05 0)
(-1.6108e-05 -2.27085e-05 0)
(7.71872e-05 -2.20941e-05 0)
(0.000167865 -2.14109e-05 0)
(0.000255654 -2.06629e-05 0)
(0.000340296 -1.98542e-05 0)
(0.000421551 -1.89893e-05 0)
(0.000499199 -1.8073e-05 0)
(0.000573036 -1.71105e-05 0)
(0.000642882 -1.61068e-05 0)
(0.000708577 -1.50675e-05 0)
(0.000769982 -1.3998e-05 0)
(0.000826982 -1.29038e-05 0)
(0.00087948 -1.17907e-05 0)
(0.000927403 -1.0664e-05 0)
(0.000970709 -9.5293e-06 0)
(0.00100936 -8.39194e-06 0)
(0.00104336 -7.25714e-06 0)
(0.00107271 -6.1299e-06 0)
(0.00109746 -5.01501e-06 0)
(0.00111765 -3.91698e-06 0)
(0.00113336 -2.84004e-06 0)
(0.00114467 -1.78813e-06 0)
(0.00115168 -7.6481e-07 0)
(0.00115452 2.26673e-07 0)
(0.00115332 1.18345e-06 0)
(0.00114821 2.103e-06 0)
(0.00113934 2.98321e-06 0)
(0.00112689 3.82228e-06 0)
(0.00111101 4.6188e-06 0)
(0.00109187 5.37168e-06 0)
(0.00106967 6.08016e-06 0)
(0.00104457 6.74376e-06 0)
(0.00101676 7.36228e-06 0)
(0.000986425 7.93573e-06 0)
(0.000953748 8.46429e-06 0)
(0.000918914 8.94829e-06 0)
(0.000882108 9.38811e-06 0)
(0.000843512 9.78415e-06 0)
(0.00080331 1.01367e-05 0)
(0.000761682 1.0446e-05 0)
(0.000718814 1.07119e-05 0)
(0.000674889 1.09341e-05 0)
(0.000630098 1.11116e-05 0)
(0.000584631 1.1243e-05 0)
(0.000538692 1.13264e-05 0)
(0.000492491 1.13586e-05 0)
(0.000446254 1.13359e-05 0)
(0.000400226 1.1253e-05 0)
(0.000354673 1.11036e-05 0)
(0.000309889 1.08799e-05 0)
(0.000266201 1.05721e-05 0)
(0.000223978 1.01687e-05 0)
(0.000183632 9.6562e-06 0)
(0.000145629 9.01882e-06 0)
(0.000110491 8.23888e-06 0)
(7.87996e-05 7.29739e-06 0)
(5.11926e-05 6.17578e-06 0)
(2.83436e-05 4.86019e-06 0)
(1.09175e-05 3.35173e-06 0)
(-5.22814e-07 1.68516e-06 0)
(-5.74603e-06 -3.80754e-08 0)
(-5.4846e-06 -1.48939e-06 0)
(-1.7664e-06 -1.7662e-06 0)
(4.41429e-07 -7.9656e-07 0)
(5.78053e-06 -5.7713e-06 0)
(1.68776e-05 -1.1275e-05 0)
(3.34702e-05 -1.57604e-05 0)
(5.41842e-05 -1.89386e-05 0)
(7.76694e-05 -2.0883e-05 0)
(0.000102683 -2.17686e-05 0)
(0.000128146 -2.17891e-05 0)
(0.000153163 -2.11239e-05 0)
(0.000177016 -1.99265e-05 0)
(0.000199139 -1.83244e-05 0)
(0.000219096 -1.64212e-05 0)
(0.000236561 -1.43001e-05 0)
(0.000251293 -1.20271e-05 0)
(0.000263124 -9.65432e-06 0)
(0.000271943 -7.22202e-06 0)
(0.000277683 -4.76085e-06 0)
(0.000280309 -2.2937e-06 0)
(0.000279811 1.63414e-07 0)
(0.0002762 2.59969e-06 0)
(0.000269494 5.00867e-06 0)
(0.000259721 7.38754e-06 0)
(0.000246909 9.73656e-06 0)
(0.000231087 1.20578e-05 0)
(0.000212282 1.43554e-05 0)
(0.000190514 1.66346e-05 0)
(0.000165796 1.89016e-05 0)
(0.000138136 2.1163e-05 0)
(0.000107534 2.34257e-05 0)
(7.39785e-05 2.56967e-05 0)
(3.74546e-05 2.79827e-05 0)
(-2.06459e-06 3.02901e-05 0)
(-4.46105e-05 3.26248e-05 0)
(-9.02212e-05 3.4992e-05 0)
(-0.000138942 3.73965e-05 0)
(-0.000190823 3.98422e-05 0)
(-0.000245917 4.23322e-05 0)
(-0.00030428 4.48689e-05 0)
(-0.000365974 4.7454e-05 0)
(-0.000431057 5.00883e-05 0)
(-0.000499593 5.27719e-05 0)
(-0.000571634 5.55042e-05 0)
(-0.000647247 5.82836e-05 0)
(-0.000726482 6.11081e-05 0)
(-0.000809399 6.39749e-05 0)
(-0.000896032 6.68804e-05 0)
(-0.000986438 6.98206e-05 0)
(-0.00108064 7.27906e-05 0)
(-0.00117868 7.5785e-05 0)
(-0.00128058 7.87979e-05 0)
(-0.00138634 8.18226e-05 0)
(-0.00149597 8.48518e-05 0)
(-0.00160947 8.7878e-05 0)
(-0.00172683 9.08926e-05 0)
(-0.001848 9.38867e-05 0)
(-0.00197296 9.68508e-05 0)
(-0.00210165 9.97747e-05 0)
(-0.002234 0.000102648 0)
(-0.00236994 0.000105459 0)
(-0.00250936 0.000108197 0)
(-0.00265216 0.000110848 0)
(-0.00279821 0.000113401 0)
(-0.00294736 0.000115841 0)
(-0.00309946 0.000118155 0)
(-0.00325433 0.00012033 0)
(-0.00341175 0.000122349 0)
(-0.00357154 0.000124199 0)
(-0.00373343 0.000125864 0)
(-0.00389718 0.000127329 0)
(-0.00406252 0.000128578 0)
(-0.00422914 0.000129595 0)
(-0.00439675 0.000130365 0)
(-0.00456499 0.000130872 0)
(-0.00473353 0.000131101 0)
(-0.00490198 0.000131035 0)
(-0.00506996 0.000130661 0)
(-0.00523706 0.000129963 0)
(-0.00540286 0.000128929 0)
(-0.00556691 0.000127544 0)
(-0.00572875 0.000125797 0)
(-0.00588793 0.000123675 0)
(-0.00604394 0.000121169 0)
(-0.0061963 0.000118268 0)
(-0.0063445 0.000114966 0)
(-0.00648803 0.000111254 0)
(-0.00662637 0.000107128 0)
(-0.00675899 0.000102584 0)
(-0.00688537 9.76201e-05 0)
(-0.00700498 9.22358e-05 0)
(-0.00711729 8.64328e-05 0)
(-0.00722179 8.0215e-05 0)
(-0.00731797 7.35879e-05 0)
(-0.00740532 6.65593e-05 0)
(-0.00748335 5.91394e-05 0)
(-0.00755159 5.13401e-05 0)
(-0.00760957 4.3176e-05 0)
(-0.00765687 3.46639e-05 0)
(-0.00769308 2.58229e-05 0)
(-0.00771779 1.66743e-05 0)
(-0.00773066 7.24169e-06 0)
(-0.00773136 -2.44893e-06 0)
(-0.0077196 -1.23696e-05 0)
(-0.00769513 -2.24902e-05 0)
(-0.00765772 -3.27783e-05 0)
(-0.0076072 -4.32e-05 0)
(-0.00754346 -5.37193e-05 0)
(-0.00746638 -6.42986e-05 0)
(-0.00737596 -7.48988e-05 0)
(-0.0072722 -8.54794e-05 0)
(-0.00715516 -9.5999e-05 0)
(-0.00702495 -0.000106415 0)
(-0.00688176 -0.000116684 0)
(-0.00672579 -0.000126763 0)
(-0.00655733 -0.000136607 0)
(-0.0063767 -0.000146174 0)
(-0.00618429 -0.000155418 0)
(-0.00598053 -0.000164298 0)
(-0.00576592 -0.000172771 0)
(-0.00554098 -0.000180797 0)
(-0.0053063 -0.000188336 0)
(-0.00506252 -0.000195351 0)
(-0.00481031 -0.000201805 0)
(-0.0045504 -0.000207667 0)
(-0.00428354 -0.000212904 0)
(-0.00401053 -0.00021749 0)
(-0.00373218 -0.000221399 0)
(-0.00344936 -0.00022461 0)
(-0.00316294 -0.000227106 0)
(-0.00287381 -0.000228872 0)
(-0.00258289 -0.000229898 0)
(-0.0022911 -0.000230178 0)
(-0.00199936 -0.00022971 0)
(-0.00170861 -0.000228494 0)
(-0.00141975 -0.000226538 0)
(-0.00113372 -0.000223852 0)
(-0.000851392 -0.000220449 0)
(-0.000573663 -0.000216349 0)
(-0.000301384 -0.000211573 0)
(-3.53715e-05 -0.000206148 0)
(0.00022357 -0.000200102 0)
(0.000474695 -0.00019347 0)
(0.000717291 -0.000186286 0)
(0.000950684 -0.000178589 0)
(0.00117426 -0.000170421 0)
(0.00138744 -0.000161825 0)
(0.00158972 -0.000152847 0)
(0.00178064 -0.000143532 0)
(0.00195979 -0.000133929 0)
(0.00212683 -0.000124086 0)
(0.00228148 -0.000114051 0)
(0.00242351 -0.000103874 0)
(0.00255277 -9.3603e-05 0)
(0.00266913 -8.32847e-05 0)
(0.00277257 -7.29658e-05 0)
(0.00286308 -6.2691e-05 0)
(0.00294073 -5.25032e-05 0)
(0.00300563 -4.24434e-05 0)
(0.00305795 -3.25501e-05 0)
(0.0030979 -2.28593e-05 0)
(0.00312575 -1.34043e-05 0)
(0.00314177 -4.21549e-06 0)
(0.00314631 4.67987e-06 0)
(0.00313974 1.32574e-05 0)
(0.00312245 2.14958e-05 0)
(0.00309486 2.93771e-05 0)
(0.00305743 3.68859e-05 0)
(0.00301061 4.40101e-05 0)
(0.00295489 5.074e-05 0)
(0.00289076 5.70686e-05 0)
(0.00281872 6.29912e-05 0)
(0.00273928 6.85046e-05 0)
(0.00265295 7.36076e-05 0)
(0.00256026 7.82997e-05 0)
(0.00246172 8.25813e-05 0)
(0.00235786 8.64527e-05 0)
(0.00224919 8.99135e-05 0)
(0.00213625 9.29622e-05 0)
(0.00201956 9.55951e-05 0)
(0.00189968 9.78059e-05 0)
(0.00177715 9.95843e-05 0)
(0.00165254 0.000100916 0)
(0.00152645 0.000101779 0)
(0.00139949 0.000102148 0)
(0.00127233 0.000101987 0)
(0.00114567 0.000101253 0)
(0.00102029 9.98914e-05 0)
(0.000897008 9.7838e-05 0)
(0.000776751 9.50167e-05 0)
(0.000660521 9.1339e-05 0)
(0.000549431 8.67057e-05 0)
(0.000444699 8.10078e-05 0)
(0.000347657 7.41324e-05 0)
(0.000259739 6.59731e-05 0)
(0.000182451 5.64514e-05 0)
(0.000117303 4.55584e-05 0)
(6.56877e-05 3.34351e-05 0)
(2.86416e-05 2.05251e-05 0)
(6.41248e-06 7.85069e-06 0)
(-2.38513e-06 -2.39376e-06 0)
(-1.49017e-06 -5.48432e-06 0)
(1.29195e-06 -4.51658e-06 0)
(1.13238e-05 -1.68838e-05 0)
(2.91878e-05 -2.91173e-05 0)
(5.42223e-05 -3.90481e-05 0)
(8.44853e-05 -4.61533e-05 0)
(0.000118244 -5.05231e-05 0)
(0.000153872 -5.24725e-05 0)
(0.000189908 -5.23854e-05 0)
(0.000225105 -5.06396e-05 0)
(0.000258428 -4.75753e-05 0)
(0.000289042 -4.3485e-05 0)
(0.000316286 -3.86135e-05 0)
(0.000339649 -3.31624e-05 0)
(0.000358749 -2.72952e-05 0)
(0.000373304 -2.11425e-05 0)
(0.00038312 -1.48073e-05 0)
(0.000388068 -8.36924e-06 0)
(0.000388072 -1.88829e-06 0)
(0.000383094 4.59209e-06 0)
(0.000373127 1.1042e-05 0)
(0.000358183 1.74429e-05 0)
(0.000338282 2.37854e-05 0)
(0.000313454 3.00677e-05 0)
(0.000283729 3.62937e-05 0)
(0.000249134 4.24721e-05 0)
(0.000209686 4.86148e-05 0)
(0.000165403 5.47361e-05 0)
(0.000116278 6.08518e-05 0)
(6.23016e-05 6.69787e-05 0)
(3.46334e-06 7.31335e-05 0)
(-6.02841e-05 7.93324e-05 0)
(-0.000128977 8.5591e-05 0)
(-0.00020267 9.19238e-05 0)
(-0.000281426 9.83436e-05 0)
(-0.000365321 0.000104862 0)
(-0.000454435 0.000111487 0)
(-0.000548845 0.000118228 0)
(-0.00064865 0.00012509 0)
(-0.000753932 0.000132076 0)
(-0.000864793 0.000139187 0)
(-0.000981319 0.000146423 0)
(-0.0011036 0.000153782 0)
(-0.00123174 0.000161259 0)
(-0.00136579 0.000168848 0)
(-0.00150585 0.00017654 0)
(-0.00165199 0.000184326 0)
(-0.00180425 0.000192193 0)
(-0.00196269 0.000200128 0)
(-0.00212735 0.000208116 0)
(-0.00229824 0.00021614 0)
(-0.00247538 0.000224183 0)
(-0.00265877 0.000232223 0)
(-0.00284836 0.00024024 0)
(-0.00304414 0.00024821 0)
(-0.00324603 0.000256109 0)
(-0.00345396 0.00026391 0)
(-0.00366781 0.000271587 0)
(-0.00388748 0.000279111 0)
(-0.0041128 0.00028645 0)
(-0.00434361 0.000293574 0)
(-0.00457971 0.000300449 0)
(-0.00482087 0.000307041 0)
(-0.00506683 0.000313313 0)
(-0.00531733 0.000319231 0)
(-0.00557204 0.000324755 0)
(-0.00583064 0.000329848 0)
(-0.00609274 0.000334469 0)
(-0.00635796 0.00033858 0)
(-0.00662586 0.00034214 0)
(-0.00689598 0.000345107 0)
(-0.00716783 0.000347441 0)
(-0.00744088 0.000349103 0)
(-0.00771459 0.00035005 0)
(-0.00798838 0.000350245 0)
(-0.00826162 0.000349648 0)
(-0.00853369 0.00034822 0)
(-0.00880392 0.000345927 0)
(-0.00907161 0.000342734 0)
(-0.00933606 0.000338607 0)
(-0.00959652 0.000333516 0)
(-0.00985223 0.000327434 0)
(-0.0101024 0.000320335 0)
(-0.0103463 0.000312197 0)
(-0.0105831 0.000303002 0)
(-0.010812 0.000292734 0)
(-0.0110321 0.000281384 0)
(-0.0112426 0.000268943 0)
(-0.0114427 0.00025541 0)
(-0.0116316 0.000240787 0)
(-0.0118084 0.000225081 0)
(-0.0119724 0.000208305 0)
(-0.0121228 0.000190476 0)
(-0.0122588 0.000171619 0)
(-0.0123795 0.000151761 0)
(-0.0124844 0.000130937 0)
(-0.0125727 0.000109187 0)
(-0.0126437 8.65569e-05 0)
(-0.0126968 6.30986e-05 0)
(-0.0127316 3.88696e-05 0)
(-0.0127473 1.3933e-05 0)
(-0.0127435 -1.16428e-05 0)
(-0.0127199 -3.77837e-05 0)
(-0.012676 -6.44106e-05 0)
(-0.0126116 -9.14394e-05 0)
(-0.0125263 -0.000118781 0)
(-0.0124201 -0.000146343 0)
(-0.0122928 -0.000174028 0)
(-0.0121444 -0.000201735 0)
(-0.011975 -0.00022936 0)
(-0.0117846 -0.000256798 0)
(-0.0115735 -0.00028394 0)
(-0.0113421 -0.000310675 0)
(-0.0110905 -0.000336893 0)
(-0.0108194 -0.000362483 0)
(-0.0105292 -0.000387334 0)
(-0.0102206 -0.000411335 0)
(-0.0098942 -0.000434379 0)
(-0.00955082 -0.00045636 0)
(-0.0091913 -0.000477175 0)
(-0.00881654 -0.000496725 0)
(-0.00842756 -0.000514916 0)
(-0.0080254 -0.000531658 0)
(-0.00761118 -0.000546869 0)
(-0.00718607 -0.000560471 0)
(-0.00675132 -0.000572396 0)
(-0.00630817 -0.00058258 0)
(-0.00585797 -0.000590971 0)
(-0.00540205 -0.000597524 0)
(-0.00494181 -0.000602203 0)
(-0.00447865 -0.000604982 0)
(-0.00401398 -0.000605846 0)
(-0.00354923 -0.000604788 0)
(-0.00308585 -0.000601812 0)
(-0.00262524 -0.000596934 0)
(-0.00216882 -0.000590177 0)
(-0.00171798 -0.000581578 0)
(-0.00127407 -0.000571181 0)
(-0.000838434 -0.000559043 0)
(-0.000412334 -0.000545226 0)
(2.99144e-06 -0.000529803 0)
(0.000406352 -0.000512858 0)
(0.000796643 -0.000494479 0)
(0.00117281 -0.000474764 0)
(0.00153388 -0.000453814 0)
(0.00187894 -0.000431738 0)
(0.00220718 -0.000408651 0)
(0.00251785 -0.000384669 0)
(0.0028103 -0.000359913 0)
(0.00308397 -0.000334504 0)
(0.00333838 -0.000308567 0)
(0.00357315 -0.000282225 0)
(0.00378799 -0.0002556 0)
(0.00398269 -0.000228814 0)
(0.00415715 -0.000201986 0)
(0.00431132 -0.000175229 0)
(0.00444527 -0.000148655 0)
(0.00455914 -0.000122371 0)
(0.00465313 -9.64762e-05 0)
(0.00472755 -7.10654e-05 0)
(0.00478276 -4.62262e-05 0)
(0.00481917 -2.20392e-05 0)
(0.00483729 1.42239e-06 0)
(0.00483762 2.40926e-05 0)
(0.00482079 4.59131e-05 0)
(0.00478741 6.68338e-05 0)
(0.00473815 8.68113e-05 0)
(0.00467374 0.000105809 0)
(0.00459489 0.000123798 0)
(0.00450237 0.000140756 0)
(0.00439696 0.000156665 0)
(0.00427943 0.000171512 0)
(0.00415061 0.000185289 0)
(0.00401132 0.00019799 0)
(0.00386237 0.000209609 0)
(0.00370459 0.000220144 0)
(0.00353883 0.000229588 0)
(0.00336594 0.000237932 0)
(0.00318677 0.000245163 0)
(0.00300221 0.000251259 0)
(0.00281316 0.000256193 0)
(0.00262055 0.000259921 0)
(0.00242535 0.000262392 0)
(0.00222855 0.000263534 0)
(0.00203125 0.00026326 0)
(0.00183456 0.000261461 0)
(0.00163972 0.000258006 0)
(0.00144805 0.000252743 0)
(0.00126097 0.000245493 0)
(0.00108003 0.000236054 0)
(0.000906921 0.000224208 0)
(0.000743447 0.000209723 0)
(0.000591546 0.000192374 0)
(0.000453254 0.000171974 0)
(0.000330643 0.000148424 0)
(0.000225725 0.00012181 0)
(0.000140273 9.25738e-05 0)
(7.55362e-05 6.17976e-05 0)
(3.18082e-05 3.16767e-05 0)
(7.92976e-06 6.43121e-06 0)
(-3.11872e-08 -5.72812e-06 0)
(1.93756e-06 -1.08352e-05 0)
(1.58771e-05 -3.3543e-05 0)
(3.92501e-05 -5.41828e-05 0)
(7.08681e-05 -7.06333e-05 0)
(0.000108189 -8.23373e-05 0)
(0.000149168 -8.94517e-05 0)
(0.000191923 -9.24488e-05 0)
(0.000234751 -9.19206e-05 0)
(0.000276174 -8.84691e-05 0)
(0.000314943 -8.26537e-05 0)
(0.00035003 -7.4968e-05 0)
(0.000380605 -6.58341e-05 0)
(0.000406013 -5.56058e-05 0)
(0.00042575 -4.45742e-05 0)
(0.00043944 -3.29767e-05 0)
(0.000446809 -2.10012e-05 0)
(0.000447665 -8.79524e-06 0)
(0.000441888 3.52899e-06 0)
(0.000429405 1.58881e-05 0)
(0.00041018 2.82244e-05 0)
(0.000384208 4.05011e-05 0)
(0.000351497 5.2698e-05 0)
(0.000312064 6.48086e-05 0)
(0.000265928 7.68381e-05 0)
(0.000213108 8.88e-05 0)
(0.000153613 0.000100715 0)
(8.74461e-05 0.000112605 0)
(1.4594e-05 0.000124502 0)
(-6.49706e-05 0.000136432 0)
(-0.000151279 0.000148425 0)
(-0.000244381 0.000160511 0)
(-0.000344352 0.000172717 0)
(-0.000451264 0.000185068 0)
(-0.000565209 0.000197588 0)
(-0.000686279 0.000210295 0)
(-0.000814588 0.000223207 0)
(-0.000950247 0.000236336 0)
(-0.00109337 0.000249692 0)
(-0.00124409 0.000263279 0)
(-0.00140251 0.000277099 0)
(-0.00156877 0.00029115 0)
(-0.00174297 0.000305425 0)
(-0.00192522 0.000319914 0)
(-0.00211562 0.000334604 0)
(-0.00231428 0.000349478 0)
(-0.00252127 0.000364515 0)
(-0.00273665 0.000379692 0)
(-0.00296048 0.000394981 0)
(-0.00319279 0.000410352 0)
(-0.0034336 0.000425772 0)
(-0.0036829 0.000441203 0)
(-0.00394067 0.000456606 0)
(-0.00420686 0.00047194 0)
(-0.00448138 0.000487157 0)
(-0.00476414 0.00050221 0)
(-0.005055 0.000517049 0)
(-0.00535381 0.000531617 0)
(-0.00566036 0.000545861 0)
(-0.00597443 0.00055972 0)
(-0.00629577 0.000573132 0)
(-0.00662407 0.000586034 0)
(-0.00695901 0.000598358 0)
(-0.00730021 0.000610037 0)
(-0.00764727 0.000621 0)
(-0.00799974 0.000631175 0)
(-0.00835714 0.000640488 0)
(-0.00871893 0.000648866 0)
(-0.00908456 0.00065623 0)
(-0.00945341 0.000662507 0)
(-0.00982483 0.000667619 0)
(-0.0101981 0.000671488 0)
(-0.0105726 0.000674042 0)
(-0.0109475 0.000675202 0)
(-0.0113219 0.000674898 0)
(-0.0116951 0.000673057 0)
(-0.0120661 0.00066961 0)
(-0.0124341 0.000664492 0)
(-0.0127981 0.000657639 0)
(-0.0131571 0.000648993 0)
(-0.0135101 0.0006385 0)
(-0.0138561 0.000626111 0)
(-0.0141941 0.000611782 0)
(-0.014523 0.000595475 0)
(-0.0148418 0.000577161 0)
(-0.0151492 0.000556816 0)
(-0.0154443 0.000534423 0)
(-0.0157259 0.000509975 0)
(-0.015993 0.000483472 0)
(-0.0162445 0.000454924 0)
(-0.0164792 0.000424348 0)
(-0.0166962 0.000391775 0)
(-0.0168944 0.000357241 0)
(-0.0170729 0.000320797 0)
(-0.0172305 0.000282499 0)
(-0.0173665 0.000242417 0)
(-0.0174798 0.000200631 0)
(-0.0175698 0.000157231 0)
(-0.0176355 0.000112317 0)
(-0.0176763 6.60007e-05 0)
(-0.0176915 1.84035e-05 0)
(-0.0176804 -3.03439e-05 0)
(-0.0176427 -8.01007e-05 0)
(-0.0175778 -0.000130716 0)
(-0.0174854 -0.000182033 0)
(-0.0173652 -0.000233884 0)
(-0.017217 -0.000286093 0)
(-0.0170407 -0.000338481 0)
(-0.0168364 -0.000390859 0)
(-0.0166041 -0.000443036 0)
(-0.0163441 -0.000494812 0)
(-0.0160566 -0.000545989 0)
(-0.0157421 -0.000596363 0)
(-0.015401 -0.000645729 0)
(-0.0150341 -0.000693884 0)
(-0.014642 -0.000740623 0)
(-0.0142255 -0.000785746 0)
(-0.0137857 -0.000829053 0)
(-0.0133234 -0.000870352 0)
(-0.0128398 -0.000909455 0)
(-0.0123361 -0.000946182 0)
(-0.0118137 -0.000980359 0)
(-0.0112739 -0.00101183 0)
(-0.0107182 -0.00104043 0)
(-0.010148 -0.00106603 0)
(-0.0095651 -0.0010885 0)
(-0.00897104 -0.00110773 0)
(-0.00836756 -0.00112362 0)
(-0.00775642 -0.00113608 0)
(-0.00713942 -0.00114506 0)
(-0.00651837 -0.00115051 0)
(-0.00589513 -0.00115239 0)
(-0.00527156 -0.00115069 0)
(-0.00464949 -0.00114542 0)
(-0.00403079 -0.00113661 0)
(-0.0034173 -0.00112431 0)
(-0.00281082 -0.00110856 0)
(-0.00221312 -0.00108946 0)
(-0.00162594 -0.0010671 0)
(-0.00105095 -0.0010416 0)
(-0.000489792 -0.00101309 0)
(5.6004e-05 -0.000981719 0)
(0.000584963 -0.000947649 0)
(0.00109568 -0.000911055 0)
(0.00158687 -0.000872123 0)
(0.00205731 -0.000831053 0)
(0.0025059 -0.000788049 0)
(0.00293164 -0.000743326 0)
(0.00333364 -0.000697106 0)
(0.00371111 -0.00064961 0)
(0.0040634 -0.000601067 0)
(0.00438994 -0.000551705 0)
(0.00469031 -0.000501748 0)
(0.0049642 -0.000451423 0)
(0.00521138 -0.000400949 0)
(0.00543177 -0.00035054 0)
(0.00562539 -0.000300404 0)
(0.00579238 -0.00025074 0)
(0.00593295 -0.000201737 0)
(0.00604743 -0.000153574 0)
(0.00613625 -0.000106418 0)
(0.00619991 -6.04223e-05 0)
(0.006239 -1.57298e-05 0)
(0.00625419 2.7532e-05 0)
(0.00624621 6.92492e-05 0)
(0.00621586 0.000109321 0)
(0.006164 0.000147658 0)
(0.00609151 0.000184189 0)
(0.00599934 0.000218849 0)
(0.00588848 0.00025159 0)
(0.00575994 0.00028237 0)
(0.00561475 0.000311157 0)
(0.00545399 0.000337928 0)
(0.00527872 0.000362661 0)
(0.00509005 0.000385343 0)
(0.00488909 0.000405954 0)
(0.00467697 0.000424479 0)
(0.00445484 0.000440892 0)
(0.00422387 0.000455162 0)
(0.00398525 0.000467246 0)
(0.00374022 0.000477081 0)
(0.00349003 0.000484591 0)
(0.003236 0.000489674 0)
(0.00297951 0.000492198 0)
(0.002722 0.000492005 0)
(0.002465 0.000488902 0)
(0.00221014 0.000482659 0)
(0.00195917 0.000473008 0)
(0.00171395 0.000459648 0)
(0.00147647 0.000442245 0)
(0.00124889 0.000420439 0)
(0.00103346 0.000393873 0)
(0.000832585 0.000362214 0)
(0.000648713 0.000325216 0)
(0.000484306 0.000282808 0)
(0.000341715 0.00023525 0)
(0.000222999 0.000183381 0)
(0.000129651 0.000129008 0)
(6.23052e-05 7.54993e-05 0)
(2.07734e-05 2.88148e-05 0)
(1.71452e-06 -4.29787e-07 0)
(2.37756e-06 -1.90978e-05 0)
(1.91339e-05 -5.43909e-05 0)
(4.64929e-05 -8.45413e-05 0)
(8.27519e-05 -0.000107979 0)
(0.000124799 -0.000124379 0)
(0.000170291 -0.000134078 0)
(0.000217144 -0.000137752 0)
(0.000263483 -0.00013622 0)
(0.000307677 -0.000130321 0)
(0.000348336 -0.000120845 0)
(0.000384299 -0.000108503 0)
(0.000414619 -9.39126e-05 0)
(0.000438533 -7.75969e-05 0)
(0.000455444 -5.99951e-05 0)
(0.000464897 -4.14651e-05 0)
(0.00046655 -2.22959e-05 0)
(0.000460158 -2.7166e-06 0)
(0.000445553 1.7097e-05 0)
(0.000422621 3.70143e-05 0)
(0.000391306 5.6942e-05 0)
(0.000351572 7.68192e-05 0)
(0.000303407 9.66117e-05 0)
(0.000246804 0.000116306 0)
(0.00018177 0.000135908 0)
(0.000108305 0.000155435 0)
(2.64068e-05 0.000174916 0)
(-6.39455e-05 0.000194388 0)
(-0.000162778 0.000213889 0)
(-0.000270132 0.000233466 0)
(-0.000386076 0.000253161 0)
(-0.000510674 0.000273018 0)
(-0.000644013 0.000293079 0)
(-0.000786204 0.000313382 0)
(-0.000937358 0.000333959 0)
(-0.0010976 0.000354842 0)
(-0.00126707 0.000376053 0)
(-0.00144589 0.000397611 0)
(-0.00163423 0.000419528 0)
(-0.00183221 0.00044181 0)
(-0.00204 0.000464458 0)
(-0.00225772 0.000487464 0)
(-0.00248552 0.000510819 0)
(-0.00272351 0.000534502 0)
(-0.00297183 0.00055849 0)
(-0.00323056 0.000582753 0)
(-0.0034998 0.000607256 0)
(-0.00377961 0.000631959 0)
(-0.00407004 0.000656815 0)
(-0.00437111 0.000681772 0)
(-0.00468283 0.000706775 0)
(-0.00500516 0.000731762 0)
(-0.00533806 0.000756668 0)
(-0.00568143 0.00078142 0)
(-0.00603515 0.000805944 0)
(-0.00639907 0.000830159 0)
(-0.00677299 0.000853982 0)
(-0.00715668 0.000877322 0)
(-0.00754988 0.000900087 0)
(-0.00795226 0.000922179 0)
(-0.00836348 0.000943498 0)
(-0.00878314 0.000963938 0)
(-0.00921078 0.000983393 0)
(-0.00964591 0.00100175 0)
(-0.010088 0.0010189 0)
(-0.0105364 0.00103471 0)
(-0.0109906 0.00104908 0)
(-0.0114498 0.00106189 0)
(-0.0119133 0.00107301 0)
(-0.0123803 0.00108231 0)
(-0.0128499 0.00108969 0)
(-0.0133214 0.00109501 0)
(-0.0137937 0.00109817 0)
(-0.0142658 0.00109904 0)
(-0.0147368 0.0010975 0)
(-0.0152056 0.00109345 0)
(-0.015671 0.00108678 0)
(-0.016132 0.00107739 0)
(-0.0165873 0.00106518 0)
(-0.0170357 0.00105007 0)
(-0.0174759 0.00103197 0)
(-0.0179067 0.00101081 0)
(-0.0183269 0.00098653 0)
(-0.018735 0.000959076 0)
(-0.0191298 0.000928404 0)
(-0.0195099 0.000894485 0)
(-0.0198741 0.0008573 0)
(-0.0202209 0.000816844 0)
(-0.020549 0.000773126 0)
(-0.0208571 0.000726169 0)
(-0.0211441 0.000676008 0)
(-0.0214084 0.000622698 0)
(-0.0216491 0.000566306 0)
(-0.0218647 0.000506917 0)
(-0.0220543 0.000444629 0)
(-0.0222166 0.00037956 0)
(-0.0223507 0.000311843 0)
(-0.0224557 0.000241625 0)
(-0.0225304 0.000169072 0)
(-0.0225741 9.43638e-05 0)
(-0.0225862 1.76976e-05 0)
(-0.0225658 -6.0716e-05 0)
(-0.0225124 -0.000140652 0)
(-0.0224256 -0.000221869 0)
(-0.0223048 -0.000304117 0)
(-0.02215 -0.000387129 0)
(-0.0219608 -0.000470631 0)
(-0.0217372 -0.000554337 0)
(-0.0214793 -0.000637951 0)
(-0.0211872 -0.000721172 0)
(-0.0208613 -0.000803691 0)
(-0.0205019 -0.000885195 0)
(-0.0201095 -0.000965367 0)
(-0.0196849 -0.00104389 0)
(-0.0192288 -0.00112045 0)
(-0.0187421 -0.00119472 0)
(-0.0182258 -0.0012664 0)
(-0.0176811 -0.00133517 0)
(-0.0171091 -0.00140075 0)
(-0.0165113 -0.00146283 0)
(-0.0158891 -0.00152115 0)
(-0.0152441 -0.00157543 0)
(-0.0145779 -0.00162543 0)
(-0.0138924 -0.00167091 0)
(-0.0131893 -0.00171165 0)
(-0.0124705 -0.00174747 0)
(-0.0117381 -0.00177818 0)
(-0.0109942 -0.00180363 0)
(-0.0102407 -0.00182371 0)
(-0.00947982 -0.00183831 0)
(-0.00871379 -0.00184734 0)
(-0.00794478 -0.00185078 0)
(-0.00717501 -0.00184859 0)
(-0.00640671 -0.00184078 0)
(-0.00564208 -0.0018274 0)
(-0.00488332 -0.00180851 0)
(-0.0041326 -0.0017842 0)
(-0.00339206 -0.00175459 0)
(-0.00266377 -0.00171984 0)
(-0.00194976 -0.00168013 0)
(-0.00125198 -0.00163564 0)
(-0.000572318 -0.00158661 0)
(8.74307e-05 -0.00153329 0)
(0.000725574 -0.00147594 0)
(0.00134052 -0.00141485 0)
(0.00193077 -0.00135033 0)
(0.00249497 -0.00128268 0)
(0.00303186 -0.00121226 0)
(0.00354032 -0.00113938 0)
(0.00401936 -0.0010644 0)
(0.00446811 -0.000987685 0)
(0.00488587 -0.00090957 0)
(0.00527204 -0.000830417 0)
(0.00562616 -0.000750575 0)
(0.00594794 -0.00067039 0)
(0.00623719 -0.000590201 0)
(0.00649386 -0.000510334 0)
(0.00671804 -0.000431104 0)
(0.00690994 -0.000352814 0)
(0.00706988 -0.000275749 0)
(0.00719831 -0.000200177 0)
(0.00729577 -0.000126347 0)
(0.00736293 -5.44899e-05 0)
(0.00740052 1.51843e-05 0)
(0.00740939 8.24863e-05 0)
(0.00739045 0.000147248 0)
(0.00734469 0.000209322 0)
(0.00727316 0.000268579 0)
(0.00717697 0.00032491 0)
(0.0070573 0.000378224 0)
(0.00691534 0.000428444 0)
(0.00675236 0.000475509 0)
(0.00656963 0.000519367 0)
(0.00636846 0.000559975 0)
(0.00615019 0.000597296 0)
(0.0059162 0.000631292 0)
(0.00566788 0.000661924 0)
(0.00540664 0.000689144 0)
(0.00513395 0.000712892 0)
(0.00485128 0.000733092 0)
(0.00456017 0.000749643 0)
(0.00426219 0.000762417 0)
(0.00395897 0.000771253 0)
(0.00365223 0.000775951 0)
(0.00334375 0.000776267 0)
(0.0030354 0.00077191 0)
(0.00272918 0.000762542 0)
(0.00242719 0.000747771 0)
(0.00213168 0.000727164 0)
(0.001845 0.000700247 0)
(0.00156967 0.000666531 0)
(0.00130832 0.000625534 0)
(0.00106367 0.000576839 0)
(0.000838493 0.000520169 0)
(0.000635561 0.000455515 0)
(0.000457507 0.000383336 0)
(0.000306696 0.000304861 0)
(0.000185003 0.000222532 0)
(9.36783e-05 0.00014063 0)
(3.39524e-05 6.62532e-05 0)
(3.41858e-06 1.11942e-05 0)
(2.64124e-06 -2.86462e-05 0)
(2.114e-05 -7.80647e-05 0)
(5.09367e-05 -0.000118422 0)
(8.99003e-05 -0.000148975 0)
(0.000134443 -0.000169842 0)
(0.000181949 -0.000181666 0)
(0.00023016 -0.000185394 0)
(0.00027707 -0.000182101 0)
(0.000320942 -0.000172877 0)
(0.000360293 -0.000158753 0)
(0.000393876 -0.000140666 0)
(0.000420664 -0.000119436 0)
(0.000439821 -9.57664e-05 0)
(0.000450684 -7.02519e-05 0)
(0.000452734 -4.33824e-05 0)
(0.000445581 -1.55576e-05 0)
(0.000428926 1.2905e-05 0)
(0.000402568 4.17578e-05 0)
(0.000366356 7.08169e-05 0)
(0.000320195 9.99489e-05 0)
(0.000264024 0.000129065 0)
(0.00019781 0.000158113 0)
(0.000121521 0.000187073 0)
(3.51367e-05 0.000215948 0)
(-6.13546e-05 0.00024476 0)
(-0.00016799 0.000273548 0)
(-0.000284802 0.000302358 0)
(-0.000411841 0.000331247 0)
(-0.00054918 0.000360272 0)
(-0.000696897 0.000389495 0)
(-0.000855103 0.000418973 0)
(-0.00102389 0.000448764 0)
(-0.00120341 0.000478917 0)
(-0.00139378 0.00050948 0)
(-0.00159518 0.00054049 0)
(-0.00180775 0.00057198 0)
(-0.00203166 0.000603971 0)
(-0.00226707 0.000636479 0)
(-0.00251417 0.000669508 0)
(-0.00277311 0.000703057 0)
(-0.00304405 0.000737112 0)
(-0.00332714 0.000771653 0)
(-0.00362252 0.00080665 0)
(-0.00393032 0.000842065 0)
(-0.00425063 0.000877851 0)
(-0.00458356 0.000913953 0)
(-0.00492915 0.00095031 0)
(-0.00528744 0.000986849 0)
(-0.00565844 0.00102349 0)
(-0.00604213 0.00106016 0)
(-0.00643844 0.00109675 0)
(-0.00684729 0.00113316 0)