/*--------------------------------*- C++ -*----------------------------------*\
  =========                 |
  \\      /  F ield         | OpenFOAM: The Open Source CFD Toolbox
   \\    /   O peration     | Website:  https://openfoam.org
    \\  /    A nd           | Version:  6
     \\/     M anipulation  |
\*---------------------------------------------------------------------------*/
FoamFile
{
    version     2.0;
    format      ascii;
    class       volVectorField;
    location    "0";
    object      U_rec;
}
// * * * * * * * * * * * * * * * * * * * * * * * * * * * * * * * * * * * * * //

dimensions      [0 1 -1 0 0 0 0];

internalField   nonuniform List<vector> 
13046
(
(-0.888092 0.535493 0)
(-0.638827 0.174696 -7.12231e-21)
(-0.311345 0.1048 -1.5738e-20)
(-0.852798 0.442702 0)
(-0.417208 0.209519 -1.40393e-20)
(-0.522811 0.139877 0)
(-0.910547 0.472485 1.98831e-21)
(-0.511591 0.108296 3.67604e-21)
(-0.392138 0.210228 -1.54793e-20)
(-1.21683 0.661113 4.5874e-21)
(-0.727122 -0.161006 0)
(-0.0384399 -0.0556861 1.02988e-20)
(-1.03095 0.593715 -6.20782e-21)
(-0.593594 0.103238 -1.15159e-20)
(-0.264393 0.0968177 8.60546e-21)
(-1.2233 0.769007 -6.36673e-21)
(-0.0522382 -0.0754383 2.49363e-20)
(-0.772407 -0.0727079 6.27545e-21)
(-0.593847 0.346386 0)
(-0.432353 0.126053 -7.70133e-21)
(-0.754735 0.334087 2.13189e-20)
(-1.22829 0.75593 -2.56957e-21)
(-0.0482685 -0.0693985 -3.32656e-20)
(-0.758723 -0.0910522 0)
(-0.7986 0.444689 8.47816e-21)
(-0.603239 0.191503 -1.73993e-20)
(-0.38887 0.161982 0)
(-1.03624 0.625242 -1.10223e-20)
(-0.618734 0.104843 3.36039e-21)
(-0.237145 0.070274 -1.48889e-20)
(-0.897964 0.557786 0)
(-0.670162 0.188706 0)
(-0.286129 0.0761164 1.60216e-20)
(-0.739658 0.403431 -9.84077e-21)
(-0.423344 0.178993 5.30314e-21)
(-0.604838 0.215371 3.02883e-20)
(-0.721009 0.377473 -1.53365e-20)
(-0.463016 0.211683 8.05847e-21)
(-0.578295 0.212935 -1.56118e-20)
(-0.772414 0.542017 1.07198e-20)
(-0.291345 -0.00263485 2.97141e-21)
(-0.855682 0.286211 -1.05909e-20)
(-0.634384 0.299166 6.9794e-21)
(-0.560235 0.270824 1.19914e-20)
(-0.547413 0.22646 0)
(-0.680049 0.316052 4.36762e-21)
(-0.556215 0.287541 -1.83774e-20)
(-0.507806 0.193919 -2.32132e-21)
(-0.913372 0.533638 0)
(-0.602951 0.145394 -5.15042e-22)
(-0.307083 0.119002 1.20634e-24)
(-0.323417 -0.0875274 1.87703e-20)
(-0.67488 0.541164 0)
(-1.05964 0.358485 -1.27138e-20)
(-0.346831 -0.10359 -2.67471e-20)
(-1.11547 0.385221 -1.97419e-20)
(-0.618635 0.508103 1.67792e-20)
(-0.819767 0.0987889 -2.69472e-21)
(-1.17013 0.85752 0)
(-0.132596 -0.0927197 1.38875e-20)
(-1.20868 0.587316 -5.67718e-21)
(-0.514175 -0.0362215 6.9532e-21)
(-0.269288 0.17338 -3.56183e-20)
(-0.0900893 -0.00599108 1.88461e-20)
(-0.67002 -0.0840474 -4.53901e-21)
(-1.28625 0.710035 -8.02368e-21)
(-1.13559 0.86288 0)
(-0.857574 0.13296 0)
(-0.152331 -0.105791 0)
(-1.10647 0.840855 -4.32282e-21)
(-0.858822 0.148779 0)
(-0.163506 -0.0998349 1.11255e-20)
(-0.828506 0.0850253 0)
(-1.19018 0.872193 2.15564e-22)
(-0.121001 -0.101839 -1.20083e-23)
(-0.626386 0.377879 0)
(-0.402183 0.100883 8.38059e-21)
(-0.771633 0.319775 -1.52578e-20)
(-0.0951938 -0.0896983 1.53352e-20)
(-1.21702 0.858287 -1.20362e-20)
(-0.794728 0.0298249 0)
(-0.838286 0.462511 4.38676e-21)
(-0.573518 0.168447 0)
(-0.3792 0.172817 0)
(-0.0751074 -0.0218163 -1.69114e-20)
(-0.688462 -0.0994817 -3.56297e-21)
(-1.28319 0.711524 4.73169e-21)
(-1.3273 0.619144 -8.47576e-21)
(-0.134207 0.073049 0)
(-0.600209 -0.141303 -3.51274e-21)
(-0.186764 0.15393 0)
(-1.36339 0.517602 0)
(-0.551862 -0.21412 4.73302e-22)
(-1.20461 0.70317 0)
(-1.23406 0.700812 4.89941e-21)
(-0.628765 0.0182985 1.3625e-20)
(-0.622604 -0.00972832 -6.40286e-21)
(-0.162677 0.0347574 -7.7942e-21)
(-0.152801 0.0403182 1.9991e-20)
(-0.158276 0.100572 -9.38728e-22)
(-1.33239 0.600771 8.30842e-21)
(-0.579548 -0.150997 0)
(-0.731184 0.350941 -7.49854e-23)
(-0.524863 0.275212 9.62062e-21)
(-0.499157 0.17087 0)
(-0.539153 0.416405 0)
(-1.06411 0.421989 -6.03346e-21)
(-0.371727 -0.0468347 0)
(-0.679384 0.518851 1.86317e-20)
(-0.31598 -0.047361 0)
(-0.982012 0.344925 -2.3819e-20)
(-1.06607 0.579862 0)
(-0.0126896 -0.0854275 0)
(-0.729541 -0.225541 -5.31455e-21)
(-0.981597 0.562753 1.7176e-20)
(-0.585955 0.119854 4.83868e-21)
(-0.288946 0.115799 1.55331e-20)
(-1.22619 0.759739 6.29665e-21)
(-1.20116 0.736009 -1.1972e-20)
(-0.683177 0.0168214 -1.15554e-20)
(-0.124936 -0.0138458 9.00105e-21)
(-0.661571 0.0317518 7.04547e-21)
(-0.144516 0.00514647 -8.41015e-21)
(-1.18622 0.656778 -3.47318e-21)
(-0.740681 -0.172113 -7.31639e-21)
(-0.0300452 -0.0671186 -4.61699e-21)
(-1.13154 0.680622 0)
(-0.628787 0.0614822 -8.93931e-21)
(-0.191171 0.042856 1.82456e-20)
(-0.822576 0.570822 0)
(-0.27415 0.00231856 -1.48191e-20)
(-0.819242 0.256448 6.13418e-22)
(-0.217988 0.185321 0)
(-1.36301 0.518208 0)
(-0.536357 -0.197887 0)
(-1.28164 0.682185 0)
(-0.616225 -0.0625718 -1.7948e-20)
(-0.143033 0.0496736 -2.13566e-20)
(-0.945745 0.587564 0)
(-0.675344 0.169567 0)
(-0.262121 0.0562422 0)
(-1.05559 0.506653 0)
(-0.462269 0.0200712 0)
(-0.386512 0.245607 0)
(-0.649146 0.503271 0)
(-0.330537 -0.0598583 0)
(-1.02509 0.366844 1.27932e-20)
(-0.542833 0.401859 -1.98467e-21)
(-1.03783 0.42087 -1.30849e-20)
(-0.377666 -0.0297541 1.62343e-20)
(-1.23246 0.607323 1.28526e-20)
(-0.535959 -0.044687 0)
(-0.235836 0.14011 4.63052e-20)
(-0.501274 0.329805 0)
(-0.95831 0.42756 1.42001e-20)
(-0.412974 0.0338458 -4.1017e-21)
(-0.39913 -0.113103 0)
(-1.19573 0.445044 1.36865e-20)
(-0.426759 -0.118924 0)
(-1.23255 0.475475 7.69208e-21)
(-0.494339 0.414669 0)
(-0.432575 0.361013 0)
(-1.07768 0.472058 1.78816e-21)
(-0.422789 -0.0172567 8.62802e-21)
(-0.437051 0.30287 -8.69468e-21)
(-1.23973 0.646164 -4.72972e-21)
(-0.0435669 -0.043747 0)
(-0.704746 -0.174723 -8.98768e-21)
(-1.11142 0.610208 -2.98991e-21)
(-0.0178473 -0.0808347 -2.11164e-21)
(-0.743057 -0.203767 0)
(-1.28321 0.698692 -6.86325e-21)
(-0.634982 -0.0635405 0)
(-0.123632 0.0283228 2.42893e-20)
(-0.898299 0.663389 0)
(-0.872812 0.24325 3.44762e-21)
(-0.240421 -0.0503716 8.70839e-21)
(-1.04435 0.452042 1.18874e-20)
(-0.475447 0.337958 4.14084e-21)
(-0.406447 -0.00767951 0)
(-0.0628965 -0.00705394 0)
(-0.66266 -0.183366 0)
(-1.2854 0.619732 3.92197e-21)
(-0.856676 0.625851 0)
(-0.869374 0.26101 -7.43395e-21)
(-0.257384 -0.0344277 2.24836e-21)
(-0.503221 0.348238 0)
(-0.977811 0.424481 0)
(-0.396601 0.0147848 0)
(-1.01374 0.48328 5.85e-21)
(-0.458404 0.0359087 0)
(-0.401629 0.247629 0)
(-0.569068 0.0626329 -5.58959e-23)
(-0.253838 0.109048 -1.05354e-20)
(-1.10363 0.652687 1.74621e-20)
(-0.614015 0.074315 0)
(-0.213471 0.0616929 -2.2862e-20)
(-1.308 0.657484 -8.43044e-21)
(-0.0956622 0.0180741 1.52354e-20)
(-0.647608 -0.133247 -1.72094e-20)
(-0.206359 0.162711 1.3719e-20)
(-1.34563 0.555541 5.39148e-21)
(-0.545841 -0.168716 1.74789e-20)
(-1.3504 0.563176 -1.41171e-20)
(-0.583354 -0.186352 0)
(-0.145886 0.101742 -1.34634e-20)
(-0.317477 -0.129838 -9.62872e-22)
(-1.10868 0.340352 5.68619e-21)
(-0.72479 0.618984 0)
(-1.01047 0.530865 -2.61689e-20)
(-1.2046 0.870207 6.30819e-21)
(-0.102565 -0.0983944 -9.47949e-21)
(-0.817099 0.0434746 0)
(-0.602326 -0.197003 0)
(-1.33273 0.573473 -1.19553e-20)
(-0.117731 0.0661873 0)
(-0.754767 0.382624 -2.2062e-20)
(-0.476439 0.238523 -7.90923e-21)
(-0.529896 0.176497 2.30163e-20)
(-1.01136 0.62919 0)
(-0.651454 0.131213 -4.83543e-22)
(-0.241071 0.0578092 -8.79071e-21)
(-0.223816 0.186091 1.04494e-20)
(-1.35348 0.539339 0)
(-0.534189 -0.182701 -2.01354e-20)
(-1.05309 0.556117 2.08833e-20)
(-0.547167 0.0528688 2.08972e-20)
(-0.275825 0.132894 0)
(-0.0270692 -0.0602394 0)
(-0.703811 -0.212766 7.87653e-21)
(-1.18274 0.603733 0)
(-0.669923 0.575035 0)
(-1.14435 0.359236 0)
(-0.335829 -0.135965 0)
(-1.34805 0.575176 1.23777e-20)
(-0.571282 -0.170007 0)
(-0.162497 0.115115 -4.10092e-23)
(-1.15511 0.477316 5.12131e-21)
(-0.418227 -0.0686546 -6.66796e-21)
(-0.429795 0.331596 0)
(-1.12631 0.700353 0)
(-0.651977 0.0743791 8.34162e-21)
(-0.181577 0.0243104 1.44165e-20)
(-0.480365 -0.188848 -2.47323e-20)
(-1.3443 0.479193 -1.02185e-20)
(-0.339363 0.309118 8.1632e-21)
(-1.26895 0.473607 0)
(-0.438823 -0.140827 -9.64277e-21)
(-0.416954 0.357212 -2.93651e-22)
(-0.0237961 -0.0593654 -1.33875e-20)
(-0.68641 -0.229482 0)
(-1.1749 0.578812 -3.17533e-21)
(-0.767714 0.58701 9.85406e-21)
(-0.287483 -0.0558354 -1.09265e-20)
(-0.953979 0.308435 1.06321e-21)
(-0.991212 0.601491 3.01369e-21)
(-0.0133235 -0.0959248 -1.99033e-20)
(-0.777592 -0.190625 0)
(-0.54244 0.308476 -4.56277e-21)
(-0.781922 0.358702 -1.72426e-20)
(-0.451749 0.127652 2.31367e-20)
(-1.16327 0.522964 5.88427e-21)
(-1.13435 0.490387 -5.05089e-24)
(-0.455528 -0.0439994 -1.60952e-20)
(-0.428999 -0.0477074 0)
(-0.414006 0.307102 7.90457e-21)
(-0.355862 0.25526 -8.2218e-21)
(-0.0825589 -0.0878883 -2.00723e-20)
(-1.22228 0.844036 6.49075e-21)
(-0.794191 0.0106751 -1.51889e-20)
(-1.09041 0.693625 0)
(-0.67774 0.107329 0)
(-0.193949 0.0175142 -1.89853e-20)
(-1.29785 0.493924 -2.72095e-21)
(-0.462107 -0.153314 0)
(-0.369712 0.317852 0)
(-1.25727 0.72542 -5.99279e-21)
(-0.649547 -0.0227262 0)
(-0.12594 0.0124697 8.8819e-21)
(-0.626288 0.310335 4.73344e-21)
(-0.58425 0.248994 6.92222e-21)
(-0.533691 0.243782 -2.36578e-21)
(-1.21442 0.493346 -9.83843e-21)
(-0.438046 -0.0965844 0)
(-0.398109 0.319737 -1.3701e-20)
(-1.09316 0.715703 0)
(-0.703066 0.112373 1.0426e-20)
(-0.182593 -0.00215317 -1.22956e-20)
(-1.07186 0.587938 0)
(-1.11177 0.608972 2.03641e-21)
(-0.778154 0.605234 3.5484e-21)
(-0.283805 -0.0712909 3.16898e-20)
(-0.975203 0.309434 -2.56194e-20)
(-1.2423 0.519459 -9.83153e-21)
(-0.460066 -0.101055 1.41243e-20)
(-0.347018 0.273375 1.24952e-20)
(-1.27331 0.720747 0)
(-0.116897 0.0133597 -3.13282e-20)
(-0.650684 -0.0437791 -8.99481e-21)
(-0.684429 0.499827 -2.5701e-20)
(-0.318454 -0.0301133 0)
(-0.949186 0.345036 8.09591e-21)
(-0.518822 0.448184 -1.5759e-20)
(-1.20846 0.430536 -8.03205e-21)
(-0.39275 -0.132345 0)
(-1.1789 0.776847 -6.19185e-21)
(-0.720087 0.0689354 -9.23815e-21)
(-0.135653 -0.0343364 5.62461e-21)
(-0.72386 0.581966 1.29404e-21)
(-0.30817 -0.0900812 0)
(-1.04122 0.342331 1.7567e-20)
(-1.20337 0.792737 0)
(-1.22028 0.784927 0)
(-0.725855 0.05155 -6.05286e-21)
(-0.123787 -0.0411557 -1.45911e-20)
(-0.709661 0.0270168 8.56339e-21)
(-0.116968 -0.0324225 1.55261e-20)
(-0.0685454 -0.0100581 -1.18238e-20)
(-0.670874 -0.161978 0)
(-1.28823 0.646066 -5.72245e-21)
(-1.1709 0.733268 7.15692e-21)
(-0.668547 0.0543084 0)
(-0.15413 0.00315266 4.95833e-21)
(-0.689202 -0.248085 1.54822e-20)
(-0.00474172 -0.0931094 1.729e-20)
(-0.915024 0.516425 6.31224e-21)
(-0.885753 0.388966 -7.90896e-21)
(-0.541932 0.340402 0)
(-0.407039 0.0626978 0)
(-1.16716 0.578506 1.35513e-20)
(-0.507622 -0.0124573 0)
(-0.282352 0.172225 2.72545e-20)
(-0.107693 0.0245385 -9.69443e-21)
(-1.30817 0.673778 1.74355e-20)
(-0.638203 -0.109833 1.28556e-20)
(-0.351134 -0.118129 0)
(-1.14065 0.385301 7.31739e-21)
(-0.612045 0.524374 -1.90048e-20)
(-0.499094 -0.18757 -3.04514e-20)
(-1.35074 0.500731 -6.0786e-21)
(-0.293103 0.26086 0)
(-0.53124 0.0745815 -2.08773e-20)
(-0.31466 0.160875 0)
(-1.18336 0.635388 1.45258e-20)
(-0.560538 0.00546005 7.68847e-21)
(-0.220373 0.101876 8.34584e-21)
(-0.506411 0.0575079 1.22927e-20)
(-0.336013 0.184933 7.64401e-23)
(-1.23822 0.782369 -4.08885e-22)
(-0.0613333 -0.0702908 1.17484e-20)
(-0.761102 -0.0532226 -9.21611e-21)
(-0.306283 -0.145657 0)
(-1.10933 0.325363 1.83078e-21)
(-0.767385 0.661705 0)
(-1.2125 0.648141 -1.48174e-20)
(-0.57102 -0.0109563 -9.3917e-21)
(-0.203286 0.0960445 -1.02314e-20)
(-1.07317 0.500911 0)
(-0.444625 -0.0019043 -1.25401e-20)
(-0.398587 0.266413 0)
(-1.06004 0.399268 0)
(-0.352008 -0.0625389 0)
(-0.591369 0.454997 0)
(-0.893066 0.503332 -6.08959e-21)
(-0.580273 0.150349 -1.1391e-20)
(-0.342724 0.148008 7.23675e-23)
(-0.565912 0.488918 1.9591e-20)
(-1.18594 0.408785 1.93121e-20)
(-0.375584 -0.130816 1.36606e-20)
(-1.32489 0.625789 -7.20413e-21)
(-0.624203 -0.154278 1.46656e-20)
(-0.107143 0.0410352 -1.42842e-20)
(-0.50836 -0.173482 2.05686e-20)
(-1.34432 0.521306 6.15643e-21)
(-0.27169 0.235067 1.04213e-20)
(-1.03296 0.806254 -1.3647e-20)
(-0.196103 -0.102729 1.67726e-20)
(-0.902916 0.193471 -1.26995e-20)
(-1.21855 0.829535 3.54097e-21)
(-1.20491 0.824064 -3.32456e-21)
(-0.759064 0.055729 -1.92849e-21)
(-0.765389 0.0412035 0)
(-0.104713 -0.0702682 -5.39168e-21)
(-0.115579 -0.0651345 -4.73394e-21)
(-0.0074621 -0.0941864 -2.34087e-20)
(-0.720096 -0.230314 -1.70529e-20)
(-0.942802 0.536447 1.9784e-21)
(-1.02376 0.626671 -2.06952e-22)
(-0.0162293 -0.0955848 2.75353e-20)
(-0.789952 -0.177695 0)
(-1.20249 0.53884 -2.20755e-20)
(-0.473589 -0.0580875 -3.64596e-21)
(-0.334769 0.241264 0)
(-0.080491 -0.00158667 -2.93424e-20)
(-1.29809 0.661946 5.69354e-21)
(-0.665318 -0.138108 0)
(-1.11954 0.808149 1.8718e-20)
(-1.1507 0.811819 -1.39774e-20)
(-0.800857 0.12433 9.78607e-21)
(-0.778611 0.102457 3.77829e-21)
(-0.157589 -0.0700272 -9.4017e-21)
(-0.143483 -0.0636477 -4.70294e-21)
(-0.0887744 0.0394461 0)
(-0.602164 -0.228626 0)
(-1.3142 0.533003 2.0325e-21)
(-0.91661 0.578508 -3.53685e-21)
(-0.0125109 -0.0978748 0)
(-0.777452 -0.190363 0)
(-0.681443 0.287074 -1.05331e-22)
(-0.633837 0.353385 1.00363e-20)
(-0.442905 0.159328 5.11496e-21)
(-1.00285 0.572339 -5.81492e-21)
(-0.743345 -0.219618 7.77284e-21)
(-0.0107603 -0.0918967 1.28664e-21)
(-0.961412 0.686488 0)
(-0.819765 0.206237 -1.61755e-20)
(-0.219797 -0.0382891 -1.54978e-24)
(-1.29321 0.610307 1.46276e-22)
(-0.649211 -0.186853 2.12384e-20)
(-0.0761088 0.00770317 1.80729e-23)
(-0.604536 -0.277274 4.67464e-22)
(0.00210838 -0.0884989 -9.89653e-21)
(-0.863562 0.423327 -2.15665e-21)
(-0.725097 0.498334 -9.33314e-21)
(-0.314872 0.018282 9.46597e-21)
(-0.849341 0.305043 2.58841e-20)
(-0.836755 0.394041 0)
(-0.456109 0.109398 -2.5671e-20)
(-0.502627 0.291602 1.28665e-20)
(-1.17352 0.674897 0)
(-0.0294726 -0.0737176 1.3779e-20)
(-0.756966 -0.159357 1.04802e-23)
(-0.872655 0.407561 0)
(-0.437504 0.0881603 -9.08803e-21)
(-0.496345 0.303851 -1.81776e-20)
(-0.658294 0.286126 1.03891e-20)
(-0.616451 0.330411 -5.32451e-21)
(-0.473914 0.185277 2.69282e-21)
(-0.641493 0.568513 9.34219e-21)
(-1.18921 0.373686 -6.89285e-21)
(-0.356024 -0.156714 1.5084e-20)
(-0.804819 0.33625 0)
(-0.389131 0.082628 0)
(-0.60879 0.390235 1.48002e-21)
(-0.863805 0.373968 1.25282e-20)
(-0.394035 0.0674634 6.9865e-21)
(-0.5815 0.374069 2.11212e-22)
(-0.991741 0.784384 2.07935e-20)
(-0.933595 0.213076 -1.23661e-20)
(-0.213249 -0.109303 -1.65512e-20)
(-0.0486389 -0.0541473 2.08705e-20)
(-0.048025 -0.0485772 -2.10895e-20)
(-0.73657 -0.121597 6.30866e-21)
(-0.722424 -0.137351 4.37275e-21)
(-1.23986 0.712856 0)
(-1.24595 0.699366 -4.69773e-21)
(-1.32426 0.610203 8.98384e-21)
(-0.628605 -0.169601 -1.31952e-20)
(-0.097999 0.0381305 1.76784e-20)
(-0.185414 -0.115751 -1.07234e-20)
(-1.06309 0.843059 4.16016e-21)
(-0.908768 0.18112 1.61862e-20)
(-0.799983 0.591154 -9.00088e-21)
(-0.27522 -0.0394159 -9.9353e-21)
(-0.907703 0.285929 8.10086e-21)
(-1.28066 0.444322 0)
(-0.426363 -0.161999 9.97415e-21)
(-0.45889 0.40618 3.03956e-22)
(-0.616351 -0.280402 7.66246e-21)
(-0.00557393 -0.0761501 -9.14362e-21)
(-1.03779 0.460414 -2.24895e-21)
(-0.157851 0.121938 0)
(-1.35569 0.532606 0)
(-0.567143 -0.211808 8.86932e-21)
(-1.15314 0.616826 3.63384e-21)
(-0.0236974 -0.07046 0)
(-0.730048 -0.200073 -7.72775e-21)
(0.00271109 -0.0865092 -3.67583e-32)
(-0.582029 -0.271326 -7.25788e-21)
(-0.789772 0.400381 2.07513e-21)
(-0.63158 -0.230265 8.12771e-21)
(-0.00341344 -0.0880972 3.66699e-32)
(-0.763355 0.453474 -1.85752e-21)
(-0.51357 -0.0923478 -1.94866e-20)
(-1.27574 0.574595 0)
(-0.265687 0.18825 -2.69776e-20)
(-0.615311 -0.253812 -4.10276e-21)
(-0.0444657 -0.0184527 -9.31216e-21)
(-1.2361 0.507493 0)
(-1.29696 0.668253 -8.90862e-21)
(-0.607041 -0.0839369 1.11525e-20)
(-0.14499 0.0605814 1.41549e-20)
(-1.16305 0.757802 1.24067e-20)
(-0.039275 -0.0936946 8.50521e-21)
(-0.81651 -0.0849679 0)
(-0.978481 0.537721 4.6744e-21)
(-0.320527 0.152586 -5.27002e-21)
(-0.547376 0.0983845 5.02524e-21)
(-0.592552 -0.223758 4.58889e-21)
(-0.109228 0.0650053 9.84628e-21)
(-1.3291 0.533238 2.42926e-21)
(-1.25587 0.4299 -7.7222e-21)
(-0.498994 0.442838 -5.38941e-21)
(-0.409636 -0.155631 0)
(-0.47571 -0.144815 0)
(-1.2995 0.511915 0)
(-0.33179 0.282201 0)
(0.000227506 -0.0545009 0)
(-0.381149 -0.164677 -6.12619e-21)
(-0.443204 0.231042 9.7558e-22)
(-0.668839 -0.264596 7.69026e-21)
(-0.00261736 -0.0911006 -1.19703e-20)
(-0.939071 0.500776 -2.87187e-21)
(-0.931196 0.506528 -1.19606e-20)
(-0.347966 0.167647 1.24332e-20)
(-0.544786 0.11618 5.78711e-21)
(-0.628665 -0.213678 1.89492e-20)
(-1.29899 0.568964 -4.2046e-21)
(-0.0714813 0.0136605 0)
(-0.0783551 0.0292538 -1.03226e-20)
(-1.30181 0.517349 0)
(-0.597837 -0.243437 -1.41445e-20)
(-1.28786 0.693497 -5.25222e-21)
(-0.070711 -0.0182639 3.15606e-20)
(-0.684394 -0.120867 0)
(-0.0766931 -0.0689948 -2.41771e-20)
(-0.759928 -0.0157135 9.60712e-21)
(-1.2393 0.811907 0)
(-0.963259 0.792838 -2.63553e-20)
(-0.97981 0.232018 1.5741e-20)
(-0.231136 -0.126913 -5.2639e-21)
(-0.786136 0.0813977 2.86953e-21)
(-1.17864 0.840147 7.96624e-21)
(-0.128495 -0.0764278 -1.48284e-20)
(-0.063731 -0.0896163 -2.17298e-20)
(-1.21604 0.819999 0)
(-0.799025 -0.0278642 0)
(-1.00495 0.676435 -4.2219e-21)
(-1.05027 0.707984 0)
(-0.739971 0.167607 -1.68731e-20)
(-0.737024 0.147102 1.80468e-20)
(-0.212836 -0.00167069 2.50631e-21)
(-0.193892 -0.0126595 -2.67175e-21)
(-0.962296 0.666638 4.04808e-21)
(-0.779189 0.195575 0)
(-0.225115 -0.0141773 4.83248e-21)
(-1.10341 0.82385 0)
(-0.833012 0.140404 -1.58041e-20)
(-0.164035 -0.0845343 3.39334e-21)
(-0.499275 -0.158439 -1.0183e-20)
(-1.3291 0.523967 6.476e-21)
(-0.284888 0.239133 -2.14302e-20)
(-0.614284 -0.189724 0)
(-1.32352 0.590103 1.31469e-20)
(-0.101361 0.0481553 0)
(-0.227651 0.174868 -6.96877e-21)
(-1.33218 0.560059 -3.89896e-21)
(-0.533399 -0.149672 -6.66948e-21)
(-0.671425 -0.226405 -1.11926e-21)
(-0.00506425 -0.0915988 6.42429e-21)
(-0.809275 0.487645 0)
(-0.812423 0.535474 8.41089e-21)
(-0.824913 0.527359 0)
(-0.296565 0.0437173 0)
(-0.759165 0.249372 3.19398e-20)
(-0.304533 0.0656223 0)
(-0.719212 0.227657 -2.02605e-20)
(-1.04292 0.778045 0)
(-0.992018 0.743547 0)
(-0.206382 -0.0690396 3.7368e-23)
(-0.844427 0.177051 9.76951e-21)
(-0.190174 -0.0724354 2.48579e-20)
(-0.859154 0.197462 -2.05654e-20)
(-0.577486 -0.286785 0)
(0.00352664 -0.0861672 1.33997e-20)
(-0.900446 0.413326 0)
(-0.631081 -0.203833 -1.11468e-20)
(-1.30817 0.585666 1.35501e-21)
(-0.076618 0.0157159 6.26328e-21)
(-0.82618 0.641436 -1.53865e-20)
(-0.269636 -0.083003 -1.14355e-20)
(-0.971778 0.289472 2.66651e-20)
(-0.463377 -0.175121 2.19878e-20)
(-1.3225 0.474318 1.72138e-20)
(-0.372208 0.335943 0)
(-0.0840435 -0.0719158 2.58555e-20)
(-0.764245 0.000153951 -1.0221e-20)
(-1.23492 0.822274 8.15222e-21)
(-0.692175 -0.248363 0)
(-1.07381 0.546229 0)
(-0.0100448 -0.0809079 0)
(-0.680976 -0.244502 0)
(-1.11648 0.545927 3.17132e-21)
(-0.0162655 -0.0695486 2.27881e-21)
(-1.15263 0.791456 -7.75682e-21)
(-0.746385 0.0904361 5.74798e-21)
(-0.144079 -0.0456846 6.96122e-21)
(-0.653053 0.469053 -2.46089e-21)
(-0.334694 -0.0136429 0)
(-0.94314 0.360421 -1.62109e-22)
(-1.268 0.685901 6.11992e-21)
(-0.0593251 -0.0320825 1.83983e-20)
(-0.702346 -0.133013 -5.09351e-21)
(-0.514558 -0.113359 0)
(-1.29423 0.56789 0)
(-0.259769 0.198837 2.32357e-20)
(-0.0970204 -0.00904339 5.97313e-21)
(-0.675289 -0.0563512 1.54183e-20)
(-1.27513 0.736786 1.79067e-20)
(-0.96023 0.732713 0)
(-0.219382 -0.0771656 -1.6601e-20)
(-0.890073 0.217785 1.04664e-20)
(-1.1281 0.453967 1.52785e-22)
(-0.396114 -0.0655685 9.78777e-21)
(-0.486575 0.375728 0)
(-0.757055 0.545879 1.91846e-22)
(-0.292877 -0.0214476 -3.24166e-21)
(-0.897555 0.301563 -1.06193e-20)
(-0.0572879 -0.0278733 -2.45867e-23)
(-0.692964 -0.158024 1.20946e-20)
(-1.26457 0.656067 6.36046e-21)
(-1.24691 0.752895 -3.41544e-21)
(-0.677761 -0.00915993 -4.51804e-21)
(-0.115257 -0.0101666 0)
(-0.739093 0.493312 -9.12158e-21)
(-0.32029 0.0400543 2.03457e-20)
(-0.804364 0.288029 -1.70617e-20)
(-1.19598 0.806301 5.07524e-21)
(-0.0540708 -0.0949001 9.6794e-21)
(-0.812111 -0.0466254 -7.31636e-21)
(-0.936076 0.610885 -5.13765e-21)
(-0.712799 0.180681 0)
(-0.248284 0.0324814 0)
(-0.975035 0.457525 -2.19711e-20)
(-0.43847 0.0442014 5.65578e-21)
(-0.447674 0.285831 0)
(-0.477408 -0.121146 0)
(-1.27944 0.523391 1.40723e-20)
(-0.323201 0.265303 0)
(-1.08602 0.678705 -2.43257e-21)
(-0.0232192 -0.0943421 -2.96807e-21)
(-0.809788 -0.143834 8.5024e-21)
(-1.09782 0.704204 6.76677e-21)
(-0.0268959 -0.0960033 0)
(-0.819766 -0.122784 -8.07557e-21)
(-0.0892744 -0.0257235 5.46046e-21)
(-0.695171 -0.046454 -9.19644e-21)
(-1.26719 0.753314 -1.64706e-20)
(-1.14984 0.435077 -6.88481e-21)
(-0.386657 -0.0921982 -9.78676e-21)
(-0.517267 0.413139 0)
(-0.0181452 -0.098181 2.71808e-21)
(-0.812132 -0.161257 -7.9473e-21)
(-1.01518 0.64304 0)
(-0.130015 0.0501683 0)
(-0.61615 -0.104133 -9.42651e-21)
(-1.30797 0.659679 -2.04579e-21)
(0.00531291 -0.0791378 1.07824e-20)
(-0.50252 -0.265878 8.10403e-21)
(-0.695573 0.326941 0)
(-0.641833 0.411388 -2.27964e-21)
(-0.584132 -0.199049 0)
(-0.00514986 -0.0797146 1.08349e-20)
(-0.066141 -0.0787937 3.68003e-23)
(-0.778127 -0.0325183 0)
(-1.2271 0.809843 0)
(-0.0382195 -0.0432362 0)
(-0.693593 -0.195837 0)
(-1.22954 0.620839 7.99123e-21)
(-1.25177 0.732932 -5.48924e-21)
(-1.26638 0.738038 4.44001e-21)
(-0.0565288 -0.0533841 -1.04679e-20)
(-0.734417 -0.093629 -2.06475e-21)
(-0.0662652 -0.0416528 -1.69917e-20)
(-0.714993 -0.0834495 3.7045e-21)
(-1.31822 0.639337 4.0574e-21)
(-0.599333 -0.117511 6.20784e-21)
(-0.143573 0.0714167 0)
(-0.431758 0.398278 0)
(-0.440179 -0.180587 0)
(-1.31071 0.449099 0)
(-0.811695 0.485958 0)
(-0.341156 0.109894 -2.7584e-20)
(-0.662185 0.2124 1.12111e-20)
(-1.32015 0.595792 1.19224e-20)
(-0.556287 -0.127898 2.27462e-21)
(-0.194141 0.132843 2.06134e-20)
(-0.223133 0.163329 1.33395e-20)
(-1.31721 0.579272 -1.65941e-20)
(-0.537711 -0.130619 -3.15713e-21)
(-1.21376 0.847601 6.22214e-21)
(-0.0734956 -0.0963105 1.0411e-20)
(-0.81032 -0.00220604 1.586e-20)
(-1.0561 0.798421 0)
(-0.857979 0.172648 4.68725e-21)
(-0.183918 -0.0844867 -2.43655e-20)
(-0.99868 0.71756 0)
(-0.821556 0.191404 2.12514e-20)
(-0.206024 -0.0496137 1.79881e-23)
(-1.26474 0.613209 -1.63408e-20)
(-0.545163 -0.0708015 2.74193e-21)
(-0.220255 0.135039 -1.17716e-20)
(-1.28085 0.602301 0)
(-0.538283 -0.0883028 2.5696e-21)
(-0.226692 0.147493 1.07768e-20)
(-0.704033 0.457713 0)
(-0.344695 0.0626095 -3.21346e-20)
(-0.790044 0.296159 9.62621e-21)
(-1.05932 0.729926 0)
(-0.755585 0.14343 0)
(-0.184065 -0.0299685 3.63743e-21)
(-0.127634 0.0917906 -2.12635e-20)
(-0.574266 -0.230473 -2.5014e-20)
(-1.34521 0.520225 0)
(-1.13194 0.522666 3.84918e-21)
(-0.0164386 -0.0637021 0)
(-0.649897 -0.259923 5.51998e-21)
(-1.10228 0.484212 -2.92004e-22)
(-0.0127505 -0.0658492 0)
(-0.628254 -0.270181 -1.58544e-20)
(-0.867761 0.613522 6.18719e-21)
(-0.256439 -0.0116649 -3.52581e-21)
(-0.821261 0.241797 -1.50809e-22)
(-0.669066 -0.262111 2.06108e-22)
(-0.00480578 -0.0856771 1.82968e-20)
(-1.01901 0.508973 0)
(-1.25655 0.766818 1.44616e-20)
(-0.0980596 -0.0272272 1.15285e-20)
(-0.698135 -0.021526 0)
(-0.00200312 -0.0831035 -2.70381e-21)
(-0.627092 -0.279947 -8.6308e-21)
(-0.997192 0.46389 0)
(-0.824942 0.417559 1.53139e-20)
(-0.458219 0.242553 1.64393e-20)
(-0.504501 0.143472 8.63108e-23)
(-1.12884 0.639374 -2.53935e-21)
(-0.58345 0.0475073 -2.78916e-21)
(-0.226755 0.0875045 -1.22819e-20)
(-0.364548 -0.08912 2.22666e-20)
(-1.11687 0.411606 1.6684e-20)
(-0.569755 0.454521 0)
(-0.056019 -0.00382999 0)
(-0.618175 -0.242327 -5.1313e-21)
(-1.26563 0.528403 0)
(-0.49976 -0.125097 0)
(-1.29755 0.54976 0)
(-0.282417 0.224318 0)
(-0.0471789 -0.0888577 0)
(-1.19432 0.77731 -4.44449e-21)
(-0.802876 -0.0682284 7.17095e-21)
(-1.16861 0.656139 0)
(-0.583504 0.0229555 1.37949e-21)
(-0.21085 0.0834405 1.20146e-20)
(-0.786001 0.462051 0)
(-0.367002 0.130652 2.36672e-20)
(-0.648208 0.21552 0)
(-0.64025 -0.225414 -1.79323e-20)
(-1.26124 0.562348 4.00003e-21)
(-0.054727 -0.0106484 0)
(-0.104412 0.0130975 -1.25391e-20)
(-0.64915 -0.0914447 6.00765e-22)
(-1.29355 0.696098 3.54623e-22)
(-1.1212 0.65777 0)
(-1.08923 0.63881 4.18223e-21)
(-0.0227409 -0.0846367 -6.79243e-21)
(-0.0189891 -0.0874787 -8.36307e-21)
(-0.774833 -0.165314 -5.21449e-21)
(-0.771818 -0.180605 4.28725e-21)
(-1.1318 0.534472 0)
(-0.464838 -0.0214167 3.75814e-20)
(-0.351109 0.235851 1.28699e-20)
(-0.493572 -0.0774175 2.73409e-20)
(-1.24889 0.55822 0)
(-0.289021 0.209017 -1.41168e-20)
(-0.937077 0.470168 -1.2412e-20)
(-0.48284 0.0827516 9.6739e-21)
(-0.400269 0.23131 2.01732e-20)
(-0.645683 -0.252258 1.19929e-20)
(-1.19066 0.532914 4.42564e-21)
(-0.626998 -0.259686 -5.7356e-21)
(-0.0272041 -0.0465615 0)
(-1.19595 0.510439 -4.2662e-21)
(-0.0311593 -0.0395528 0)
(-1.23838 0.684339 0)
(-0.600019 -0.0229247 0)
(-0.169888 0.062481 1.3394e-20)
(-1.24508 0.573465 6.57434e-21)
(-1.20994 0.557368 -1.21347e-20)
(-0.658455 -0.22257 7.8699e-21)
(-0.662112 -0.235562 -1.97071e-20)
(-0.042446 -0.0281323 1.84246e-20)
(-0.0315696 -0.043467 6.88588e-24)
(-1.22657 0.543751 0)
(-0.473162 -0.0805657 -2.51651e-20)
(-0.331801 0.252325 1.83797e-20)
(-1.08517 0.564151 1.12614e-20)
(-0.527636 0.0280235 -1.67759e-20)
(-0.277242 0.147831 0)
(-1.15377 0.734007 0)
(-0.0333662 -0.0905061 0)
(-0.80714 -0.108012 7.75925e-21)
(-1.1384 0.555569 8.26035e-21)
(-0.485991 -0.00832708 -1.04463e-20)
(-0.320488 0.202876 -2.14737e-20)
(-0.992851 0.50297 4.90592e-21)
(-0.488778 0.0617784 -1.13423e-20)
(-0.368988 0.21083 1.17719e-20)
(-1.11348 0.677069 0)
(-0.0249997 -0.0885288 0)
(-0.793538 -0.148752 -1.06861e-20)
(-1.17534 0.678693 0)
(-0.612556 0.0322175 2.97612e-21)
(-0.183656 0.0524767 -1.3383e-20)
(-0.396831 -0.167036 0)
(-1.25077 0.414023 0)
(-0.541367 0.489996 -6.91278e-22)
(-0.956519 0.747674 -6.75837e-22)
(-0.921337 0.227402 0)
(-0.222751 -0.093248 2.58744e-20)
(-0.514424 -0.203753 1.19368e-20)
(-0.257755 0.233218 0)
(-1.36517 0.499363 0)
(0.000153742 -0.0711673 -2.59812e-20)
(-0.491555 -0.210223 8.58019e-21)
(-0.594237 0.318625 -1.3654e-21)
(-1.15738 0.602676 0)
(-0.531194 0.00996806 1.03077e-20)
(-0.259744 0.140444 -1.10189e-20)
(-1.20584 0.735431 8.61259e-21)
(-0.040434 -0.0741386 3.54964e-20)
(-0.771834 -0.104753 0)
(-0.267755 -0.13626 -6.94504e-21)
(-1.04699 0.280886 -1.00646e-20)
(-0.866933 0.732014 -6.12582e-21)
(-0.791296 0.508277 0)
(-0.00820354 -0.0932295 -9.81789e-21)
(-0.714401 -0.208255 0)
(-0.567645 0.392588 1.2287e-20)
(-0.586377 0.420665 -1.25836e-20)
(-0.36994 0.0113197 0)
(-0.949048 0.392477 1.07298e-20)
(-0.357313 -0.0141838 -2.08758e-20)
(-0.981821 0.386054 -8.64147e-21)
(-0.923695 0.446161 1.16663e-20)
(-0.454297 0.0768379 1.2752e-20)
(-0.447502 0.271314 0)
(-0.672572 0.465501 1.07467e-20)
(-0.618359 0.42595 0)
(-0.332152 0.0137193 -1.15369e-20)
(-0.884645 0.333996 9.70195e-21)
(-0.354711 0.0263215 1.16226e-20)
(-0.893202 0.356291 9.74623e-23)
(-1.12515 0.591051 7.09825e-22)
(-0.505262 0.030954 -7.27546e-21)
(-0.315905 0.180992 -1.45291e-20)
(-1.09035 0.549587 -1.9297e-20)
(-0.489925 0.017524 1.9295e-22)
(-0.334827 0.202972 0)
(-0.0199244 -0.0526868 0)
(-0.611435 -0.274309 0)
(-1.14825 0.48064 4.07395e-21)
(-0.917226 0.631183 -5.69782e-21)
(-0.782793 0.215348 0)
(-0.243799 -0.00272664 6.51569e-21)
(-1.254 0.605073 -1.28662e-20)
(-0.671215 -0.202549 9.03914e-21)
(-0.0457063 -0.0266174 -1.05251e-20)
(-1.27302 0.639682 0)
(-1.29224 0.645986 8.55971e-21)
(-0.56992 -0.0668184 -3.41568e-21)
(-0.583971 -0.081425 1.09644e-20)
(-0.186661 0.101513 -1.47184e-20)
(-0.168261 0.0873719 -1.36671e-20)
(-0.904178 0.602387 0)
(-0.748298 0.206438 0)
(-0.256478 0.0216466 3.06303e-21)
(-1.09789 0.779894 6.42486e-21)
(-0.786501 0.13496 0)
(-0.168317 -0.0554181 8.09006e-21)
(-1.22403 0.637606 -4.63767e-21)
(-0.556237 -0.0322971 0)
(-0.209969 0.113252 0)
(-0.691582 0.388191 1.20038e-20)
(-0.656638 0.254291 -6.02448e-21)
(-0.418923 0.1568 6.38447e-21)
(-1.30435 0.613339 0)
(-0.559389 -0.106011 0)
(-0.194153 0.123491 -2.19138e-20)
(-0.780562 0.484526 0)
(-0.332848 0.0868629 3.50284e-21)
(-0.710234 0.242101 0)
(-1.22202 0.570753 -1.07825e-20)
(-0.495193 -0.060622 -1.404e-20)
(-0.293075 0.202661 -1.83575e-21)
(-1.09953 0.755839 6.44705e-21)
(-0.754283 0.122202 0)
(-0.168472 -0.0373686 1.66021e-20)
(-0.716072 0.419767 -1.19083e-20)
(-0.693731 0.416992 -5.30784e-21)
(-0.67785 0.250035 5.86816e-21)
(-0.387774 0.131693 -1.25921e-20)
(-0.722069 0.273241 0)
(-0.378463 0.111095 -2.25328e-20)
(-0.65406 0.422719 -5.38944e-21)
(-0.360707 0.0599936 1.50217e-20)
(-0.620578 0.412384 3.47059e-21)
(-0.81541 0.320691 -1.31298e-20)
(-0.367583 0.0428435 -7.21597e-21)
(-0.868922 0.352943 3.47965e-22)
(-0.993344 0.652109 6.10362e-21)
(-1.03929 0.661808 0)
(-0.707752 0.158353 1.2504e-20)
(-0.677351 0.131969 -9.7584e-21)
(-0.224013 0.0208294 -1.44564e-20)
(-0.216621 0.0313046 2.40395e-20)
(-0.0801644 -0.0542033 0)
(-0.73519 -0.0237746 -5.65791e-21)
(-1.24999 0.78989 -8.30916e-21)
(-0.583129 0.514955 8.38233e-21)
(-1.21032 0.39964 1.08872e-20)
(-0.377462 -0.152435 -2.37212e-20)
(-0.0706065 -0.0558137 -1.19989e-20)
(-0.0732248 -0.0433181 9.54707e-21)
(-0.736374 -0.047996 4.89052e-21)
(-0.716523 -0.0604177 8.40168e-21)
(-1.25095 0.777838 2.10081e-20)
(-1.26369 0.759428 -1.08629e-20)
(-0.74463 0.614888 1.13581e-20)
(-0.30416 -0.108194 -1.09666e-20)
(-1.05933 0.331884 2.59283e-21)
(-0.659227 0.339225 2.03565e-20)
(-0.48953 0.215619 0)
(-0.599217 0.245386 -2.04599e-20)
(-1.3065 0.631857 -4.02797e-21)
(-0.579868 -0.102728 -1.23801e-20)
(-0.169674 0.0958546 0)
(-0.847825 0.56535 0)
(-0.274941 0.0233048 -2.91963e-21)
(-0.769949 0.236634 -1.03861e-20)
(-1.12376 0.761599 0)
(-0.737885 0.105999 0)
(-0.159369 -0.0324388 -1.54705e-20)
(-1.23071 0.81478 -9.28783e-21)
(-1.23619 0.796327 0)
(-0.746822 0.0160376 2.96364e-21)
(-0.0970405 -0.0598254 -1.47044e-20)
(-0.725432 0.011648 -8.09224e-21)
(-0.101607 -0.0454472 1.9885e-20)
(-1.26195 0.674212 8.6654e-21)
(-0.598742 -0.0434222 1.14872e-20)
(-0.161561 0.0645739 8.02311e-21)
(-0.877482 0.537847 4.29922e-21)