/*--------------------------------*- C++ -*----------------------------------*\
  =========                 |
  \\      /  F ield         | OpenFOAM: The Open Source CFD Toolbox
   \\    /   O peration     | Website:  https://openfoam.org
    \\  /    A nd           | Version:  6
     \\/     M anipulation  |
\*---------------------------------------------------------------------------*/
FoamFile
{
    version     2.0;
    format      ascii;
    class       volScalarField;
    location    "25959";
    object      nut;
}
// * * * * * * * * * * * * * * * * * * * * * * * * * * * * * * * * * * * * * //

dimensions      [0 2 -1 0 0 0 0];

internalField   nonuniform List<scalar> 
115600
(
8.15635e-10
2.34073e-10
2.04764e-10
1.94661e-10
1.84225e-10
1.70766e-10
1.56347e-10
1.42644e-10
1.30946e-10
1.20666e-10
1.11678e-10
1.03858e-10
9.70771e-11
9.12038e-11
8.61169e-11
8.17094e-11
7.78897e-11
7.45804e-11
7.17164e-11
6.92426e-11
6.71129e-11
6.52878e-11
6.37339e-11
6.24227e-11
6.13294e-11
6.04326e-11
5.97135e-11
5.91554e-11
5.87435e-11
5.84641e-11
5.83058e-11
5.82902e-11
5.84498e-11
5.87252e-11
5.90943e-11
5.95431e-11
6.00603e-11
6.06362e-11
6.12625e-11
6.19322e-11
6.26392e-11
6.33784e-11
6.41463e-11
6.49415e-11
6.57653e-11
6.66237e-11
6.7529e-11
6.85056e-11
6.9594e-11
7.08802e-11
7.24909e-11
7.48221e-11
7.84283e-11
8.65311e-11
1.09984e-10
2.35301e-10
5.19251e-08
2.86104e-08
2.54389e-08
2.41533e-08
2.26014e-08
2.05433e-08
1.83118e-08
1.61962e-08
1.43965e-08
1.28717e-08
1.15863e-08
1.0506e-08
9.59886e-09
8.836e-09
8.19282e-09
7.64891e-09
7.18771e-09
6.79586e-09
6.46257e-09
6.1791e-09
5.93834e-09
5.73445e-09
5.56264e-09
5.41894e-09
5.30003e-09
5.20311e-09
5.12581e-09
5.06607e-09
5.02214e-09
4.99243e-09
4.97566e-09
4.97318e-09
4.98779e-09
5.01481e-09
5.05193e-09
5.09763e-09
5.15069e-09
5.2101e-09
5.27494e-09
5.34443e-09
5.41783e-09
5.49453e-09
5.57401e-09
5.65591e-09
5.74011e-09
5.82687e-09
5.917e-09
6.01232e-09
6.11618e-09
6.23544e-09
6.38187e-09
6.58603e-09
6.90532e-09
7.56817e-09
9.42331e-09
1.49498e-08
2.69826e-07
2.63545e-07
2.66043e-07
2.63442e-07
2.53357e-07
2.3717e-07
2.17924e-07
1.98136e-07
1.79508e-07
1.62815e-07
1.48052e-07
1.35124e-07
1.23881e-07
1.14145e-07
1.05734e-07
9.84785e-08
9.22298e-08
8.68566e-08
8.22459e-08
7.83003e-08
7.49362e-08
7.2082e-08
6.96766e-08
6.76674e-08
6.60096e-08
6.46647e-08
6.35992e-08
6.27844e-08
6.21947e-08
6.18079e-08
6.16055e-08
6.15935e-08
6.17901e-08
6.21553e-08
6.26606e-08
6.3284e-08
6.40074e-08
6.48141e-08
6.56889e-08
6.66178e-08
6.7587e-08
6.85835e-08
6.95945e-08
7.06086e-08
7.16156e-08
7.26079e-08
7.35822e-08
7.45425e-08
7.55057e-08
7.6513e-08
7.76541e-08
7.91306e-08
8.14328e-08
8.58508e-08
9.78123e-08
1.19545e-07
5.40773e-07
6.57629e-07
7.10099e-07
7.21746e-07
7.08747e-07
6.80573e-07
6.44547e-07
6.05895e-07
5.6813e-07
5.32942e-07
5.00936e-07
4.72139e-07
4.46439e-07
4.23611e-07
4.03393e-07
3.85532e-07
3.69796e-07
3.55974e-07
3.43882e-07
3.33354e-07
3.24244e-07
3.1642e-07
3.09767e-07
3.04177e-07
2.99559e-07
2.95826e-07
2.929e-07
2.9071e-07
2.89189e-07
2.88276e-07
2.87917e-07
2.88102e-07
2.88826e-07
2.90013e-07
2.91588e-07
2.93483e-07
2.95634e-07
2.97985e-07
3.00478e-07
3.03061e-07
3.05681e-07
3.08285e-07
3.10822e-07
3.13241e-07
3.15491e-07
3.17523e-07
3.19295e-07
3.20771e-07
3.21933e-07
3.22798e-07
3.23462e-07
3.2418e-07
3.25693e-07
3.29811e-07
3.44791e-07
3.75804e-07
7.48118e-07
1.01475e-06
1.15877e-06
1.21524e-06
1.22041e-06
1.19557e-06
1.15413e-06
1.1049e-06
1.05374e-06
1.00409e-06
9.57609e-07
9.14925e-07
8.76227e-07
8.41422e-07
8.10303e-07
7.82618e-07
7.58107e-07
7.36513e-07
7.17592e-07
7.01115e-07
6.86874e-07
6.74674e-07
6.6434e-07
6.5571e-07
6.48637e-07
6.42986e-07
6.38632e-07
6.3546e-07
6.33362e-07
6.32236e-07
6.31991e-07
6.32578e-07
6.33952e-07
6.36018e-07
6.38669e-07
6.41803e-07
6.45321e-07
6.49127e-07
6.53131e-07
6.57242e-07
6.61373e-07
6.65436e-07
6.69344e-07
6.73006e-07
6.76333e-07
6.79238e-07
6.81634e-07
6.83445e-07
6.84613e-07
6.85124e-07
6.85049e-07
6.84703e-07
6.84887e-07
6.88188e-07
7.04516e-07
7.48804e-07
8.91729e-07
1.25803e-06
1.49804e-06
1.62111e-06
1.66858e-06
1.66968e-06
1.64309e-06
1.6009e-06
1.55105e-06
1.49886e-06
1.44726e-06
1.39801e-06
1.35195e-06
1.30942e-06
1.27056e-06
1.23536e-06
1.20374e-06
1.17554e-06
1.15061e-06
1.12874e-06
1.10974e-06
1.09341e-06
1.07955e-06
1.06799e-06
1.05855e-06
1.05106e-06
1.04536e-06
1.0413e-06
1.03875e-06
1.03756e-06
1.03762e-06
1.03882e-06
1.04107e-06
1.04427e-06
1.04829e-06
1.053e-06
1.05827e-06
1.06398e-06
1.06999e-06
1.07619e-06
1.08246e-06
1.08867e-06
1.09472e-06
1.10048e-06
1.10584e-06
1.11068e-06
1.11489e-06
1.11838e-06
1.12109e-06
1.12301e-06
1.12425e-06
1.12527e-06
1.12714e-06
1.13316e-06
1.15561e-06
1.21307e-06
1.00155e-06
1.3883e-06
1.69557e-06
1.88433e-06
1.98494e-06
2.02702e-06
2.03156e-06
2.01265e-06
1.97975e-06
1.9393e-06
1.8956e-06
1.85101e-06
1.80735e-06
1.76551e-06
1.7261e-06
1.6895e-06
1.65593e-06
1.62549e-06
1.59818e-06
1.57396e-06
1.55274e-06
1.53438e-06
1.51878e-06
1.50576e-06
1.49519e-06
1.48692e-06
1.48078e-06
1.47663e-06
1.47431e-06
1.47369e-06
1.47463e-06
1.47698e-06
1.48062e-06
1.48543e-06
1.49129e-06
1.49805e-06
1.50557e-06
1.51369e-06
1.52228e-06
1.53119e-06
1.54028e-06
1.5494e-06
1.55843e-06
1.56723e-06
1.57566e-06
1.58361e-06
1.59096e-06
1.59763e-06
1.60357e-06
1.60883e-06
1.61361e-06
1.61849e-06
1.62494e-06
1.63644e-06
1.66754e-06
1.73371e-06
1.10974e-06
1.43534e-06
1.76516e-06
2.00289e-06
2.15486e-06
2.24321e-06
2.28745e-06
2.30196e-06
2.29686e-06
2.27923e-06
2.25403e-06
2.22448e-06
2.19274e-06
2.16035e-06
2.12843e-06
2.09773e-06
2.06881e-06
2.04202e-06
2.01761e-06
1.9957e-06
1.97637e-06
1.95963e-06
1.94545e-06
1.93377e-06
1.92452e-06
1.91759e-06
1.91289e-06
1.91029e-06
1.90968e-06
1.91092e-06
1.91388e-06
1.91843e-06
1.92439e-06
1.93168e-06
1.94016e-06
1.94971e-06
1.96017e-06
1.9714e-06
1.98324e-06
1.99554e-06
2.00814e-06
2.02091e-06
2.03369e-06
2.04635e-06
2.05876e-06
2.07079e-06
2.08235e-06
2.09336e-06
2.10383e-06
2.11383e-06
2.12367e-06
2.13401e-06
2.14661e-06
2.16461e-06
2.20385e-06
2.27369e-06
1.24341e-06
1.43635e-06
1.73579e-06
1.99454e-06
2.18682e-06
2.31935e-06
2.40577e-06
2.45854e-06
2.48737e-06
2.49945e-06
2.50004e-06
2.49284e-06
2.48029e-06
2.46446e-06
2.44688e-06
2.42864e-06
2.41057e-06
2.39326e-06
2.37716e-06
2.36259e-06
2.34977e-06
2.33885e-06
2.32995e-06
2.3231e-06
2.31833e-06
2.31562e-06
2.31493e-06
2.31621e-06
2.31938e-06
2.32435e-06
2.33105e-06
2.3393e-06
2.34899e-06
2.36001e-06
2.37228e-06
2.38566e-06
2.40003e-06
2.41525e-06
2.43116e-06
2.44763e-06
2.4645e-06
2.48164e-06
2.49889e-06
2.51613e-06
2.53322e-06
2.55006e-06
2.56657e-06
2.58268e-06
2.59842e-06
2.61392e-06
2.62953e-06
2.64588e-06
2.66491e-06
2.68895e-06
2.73411e-06
2.80357e-06
1.42007e-06
1.42924e-06
1.6453e-06
1.88707e-06
2.09919e-06
2.26696e-06
2.393e-06
2.48486e-06
2.55028e-06
2.59576e-06
2.62646e-06
2.64623e-06
2.65787e-06
2.66377e-06
2.66572e-06
2.66509e-06
2.66291e-06
2.65998e-06
2.65691e-06
2.65418e-06
2.65217e-06
2.65115e-06
2.65133e-06
2.65289e-06
2.65592e-06
2.66051e-06
2.66669e-06
2.67447e-06
2.68384e-06
2.69477e-06
2.70722e-06
2.72105e-06
2.73618e-06
2.75253e-06
2.77002e-06
2.78856e-06
2.80804e-06
2.82835e-06
2.84935e-06
2.87091e-06
2.89291e-06
2.91519e-06
2.93765e-06
2.96014e-06
2.98255e-06
3.00478e-06
3.02676e-06
3.04844e-06
3.06987e-06
3.09116e-06
3.11269e-06
3.13499e-06
3.15994e-06
3.18891e-06
3.23734e-06
3.30365e-06
1.64875e-06
1.44711e-06
1.53879e-06
1.71988e-06
1.92043e-06
2.10541e-06
2.26219e-06
2.38959e-06
2.49098e-06
2.57089e-06
2.63373e-06
2.68318e-06
2.72224e-06
2.75341e-06
2.77862e-06
2.7994e-06
2.81695e-06
2.83222e-06
2.84597e-06
2.85881e-06
2.87123e-06
2.88361e-06
2.89629e-06
2.9095e-06
2.92344e-06
2.93827e-06
2.9541e-06
2.97102e-06
2.98906e-06
3.00826e-06
3.02862e-06
3.05004e-06
3.07248e-06
3.0959e-06
3.12024e-06
3.14544e-06
3.17142e-06
3.19808e-06
3.22533e-06
3.25305e-06
3.28113e-06
3.30945e-06
3.3379e-06
3.36635e-06
3.39471e-06
3.42288e-06
3.45079e-06
3.47841e-06
3.50576e-06
3.53295e-06
3.56031e-06
3.5882e-06
3.61832e-06
3.65098e-06
3.70038e-06
3.76175e-06
1.93927e-06
1.51636e-06
1.46334e-06
1.54544e-06
1.6945e-06
1.86678e-06
2.0356e-06
2.18793e-06
2.31986e-06
2.43193e-06
2.52664e-06
2.60681e-06
2.67509e-06
2.73376e-06
2.78474e-06
2.82962e-06
2.8697e-06
2.90604e-06
2.93952e-06
2.97083e-06
3.00058e-06
3.02925e-06
3.05723e-06
3.08486e-06
3.1124e-06
3.14009e-06
3.1681e-06
3.19657e-06
3.2256e-06
3.25527e-06
3.28564e-06
3.31666e-06
3.34831e-06
3.38057e-06
3.41344e-06
3.44686e-06
3.4808e-06
3.51518e-06
3.54994e-06
3.58497e-06
3.6202e-06
3.65552e-06
3.69082e-06
3.72601e-06
3.76099e-06
3.79568e-06
3.82999e-06
3.8639e-06
3.8974e-06
3.93056e-06
3.9636e-06
3.99672e-06
4.03128e-06
4.06657e-06
4.11521e-06
4.17062e-06
2.31258e-06
1.66096e-06
1.46091e-06
1.42319e-06
1.48361e-06
1.6038e-06
1.75264e-06
1.90777e-06
2.05645e-06
2.193e-06
2.31572e-06
2.42506e-06
2.52234e-06
2.60917e-06
2.68714e-06
2.7577e-06
2.82213e-06
2.88153e-06
2.93681e-06
2.98876e-06
3.03805e-06
3.08522e-06
3.13076e-06
3.17504e-06
3.21842e-06
3.26116e-06
3.30349e-06
3.34562e-06
3.38769e-06
3.42982e-06
3.47211e-06
3.51458e-06
3.55721e-06
3.60003e-06
3.64304e-06
3.68623e-06
3.72958e-06
3.77306e-06
3.8166e-06
3.86015e-06
3.90362e-06
3.94695e-06
3.99003e-06
4.03279e-06
4.07512e-06
4.11695e-06
4.15819e-06
4.19879e-06
4.23871e-06
4.27795e-06
4.31663e-06
4.35469e-06
4.39313e-06
4.43028e-06
4.47702e-06
4.52608e-06
2.80222e-06
1.91043e-06
1.5677e-06
1.40795e-06
1.35955e-06
1.39173e-06
1.47974e-06
1.60223e-06
1.74137e-06
1.88439e-06
2.02354e-06
2.15489e-06
2.27697e-06
2.38971e-06
2.49371e-06
2.58985e-06
2.67911e-06
2.76242e-06
2.84066e-06
2.91458e-06
2.98486e-06
3.05211e-06
3.11682e-06
3.17944e-06
3.24035e-06
3.29986e-06
3.35826e-06
3.41576e-06
3.47257e-06
3.52884e-06
3.58471e-06
3.64024e-06
3.69544e-06
3.75034e-06
3.80498e-06
3.85937e-06
3.91351e-06
3.96737e-06
4.02094e-06
4.07416e-06
4.12697e-06
4.17932e-06
4.23111e-06
4.28228e-06
4.33273e-06
4.38237e-06
4.43111e-06
4.47887e-06
4.52555e-06
4.57108e-06
4.61544e-06
4.65833e-06
4.70031e-06
4.73887e-06
4.78315e-06
4.82598e-06
3.4581e-06
2.31528e-06
1.82933e-06
1.55106e-06
1.39003e-06
1.31578e-06
1.31088e-06
1.36099e-06
1.45126e-06
1.56745e-06
1.69753e-06
1.83263e-06
1.96695e-06
2.09716e-06
2.22165e-06
2.33986e-06
2.45182e-06
2.5579e-06
2.65862e-06
2.75453e-06
2.8462e-06
2.93415e-06
3.01887e-06
3.10079e-06
3.1803e-06
3.25774e-06
3.3334e-06
3.40753e-06
3.48036e-06
3.55206e-06
3.6228e-06
3.69268e-06
3.76175e-06
3.83003e-06
3.89756e-06
3.96438e-06
4.03049e-06
4.09591e-06
4.16062e-06
4.22457e-06
4.28774e-06
4.35006e-06
4.41146e-06
4.47187e-06
4.53119e-06
4.58932e-06
4.64615e-06
4.70156e-06
4.75541e-06
4.80752e-06
4.85773e-06
4.90547e-06
4.95089e-06
4.99077e-06
5.03252e-06
5.06969e-06
4.38429e-06
2.97819e-06
2.33167e-06
1.92666e-06
1.64816e-06
1.45932e-06
1.34471e-06
1.29415e-06
1.29784e-06
1.34551e-06
1.4267e-06
1.53139e-06
1.65079e-06
1.77796e-06
1.9079e-06
2.03732e-06
2.16426e-06
2.28766e-06
2.40706e-06
2.52236e-06
2.63369e-06
2.74128e-06
2.84542e-06
2.94643e-06
3.0446e-06
3.14024e-06
3.23361e-06
3.32495e-06
3.41446e-06
3.50235e-06
3.58875e-06
3.67382e-06
3.75764e-06
3.84022e-06
3.92159e-06
4.00177e-06
4.08081e-06
4.1587e-06
4.23545e-06
4.31103e-06
4.3854e-06
4.45852e-06
4.53031e-06
4.60069e-06
4.66957e-06
4.73683e-06
4.80232e-06
4.86589e-06
4.92734e-06
4.98638e-06
5.0427e-06
5.0955e-06
5.14447e-06
5.18584e-06
5.22548e-06
5.25802e-06
5.73289e-06
4.05259e-06
3.20782e-06
2.64937e-06
2.23604e-06
1.91888e-06
1.67904e-06
1.50802e-06
1.39893e-06
1.34464e-06
1.33758e-06
1.36992e-06
1.43384e-06
1.5218e-06
1.62693e-06
1.74337e-06
1.86648e-06
1.99283e-06
2.12003e-06
2.24653e-06
2.37136e-06
2.49396e-06
2.61407e-06
2.7316e-06
2.84657e-06
2.95906e-06
3.06921e-06
3.17714e-06
3.28299e-06
3.3869e-06
3.489e-06
3.5894e-06
3.68818e-06
3.78541e-06
3.88104e-06
3.97509e-06
4.06757e-06
4.1585e-06
4.24786e-06
4.33565e-06
4.42182e-06
4.50632e-06
4.58908e-06
4.67001e-06
4.74899e-06
4.82588e-06
4.90053e-06
4.97271e-06
5.04217e-06
5.1085e-06
5.17126e-06
5.22941e-06
5.28225e-06
5.32559e-06
5.36395e-06
5.39329e-06
7.47819e-06
5.60019e-06
4.54235e-06
3.81062e-06
3.24836e-06
2.79156e-06
2.41485e-06
2.10815e-06
1.86638e-06
1.68539e-06
1.56039e-06
1.48573e-06
1.45532e-06
1.46291e-06
1.50233e-06
1.56762e-06
1.65315e-06
1.75386e-06
1.86539e-06
1.98418e-06
2.10746e-06
2.23319e-06
2.35988e-06
2.48653e-06
2.61243e-06
2.73714e-06
2.86038e-06
2.98198e-06
3.10186e-06
3.21998e-06
3.33634e-06
3.45095e-06
3.56383e-06
3.67502e-06
3.78447e-06
3.8921e-06
3.99786e-06
4.10176e-06
4.20376e-06
4.30385e-06
4.40197e-06
4.49805e-06
4.592e-06
4.68373e-06
4.77309e-06
4.85992e-06
4.94401e-06
5.02511e-06
5.10288e-06
5.17683e-06
5.24635e-06
5.31021e-06
5.36739e-06
5.41343e-06
5.45176e-06
5.47976e-06
9.22335e-06
7.40672e-06
6.22049e-06
5.35077e-06
4.66119e-06
4.08244e-06
3.5842e-06
3.15226e-06
2.78041e-06
2.46609e-06
2.20781e-06
2.00363e-06
1.85064e-06
1.74493e-06
1.68195e-06
1.65686e-06
1.66472e-06
1.70068e-06
1.76006e-06
1.83845e-06
1.93181e-06
2.0366e-06
2.14983e-06
2.26904e-06
2.39229e-06
2.51809e-06
2.64531e-06
2.7731e-06
2.90085e-06
3.02808e-06
3.15448e-06
3.27979e-06
3.40384e-06
3.5265e-06
3.64767e-06
3.76719e-06
3.88485e-06
4.00057e-06
4.11428e-06
4.2259e-06
4.33534e-06
4.44251e-06
4.54729e-06
4.64953e-06
4.74908e-06
4.84572e-06
4.93921e-06
5.02924e-06
5.11539e-06
5.19711e-06
5.27363e-06
5.34358e-06
5.40567e-06
5.45534e-06
5.49524e-06
5.52421e-06
1.05506e-05
9.09172e-06
7.95307e-06
7.04648e-06
6.29613e-06
5.64796e-06
5.07471e-06
4.56076e-06
4.0977e-06
3.68173e-06
3.31171e-06
2.98777e-06
2.71028e-06
2.47911e-06
2.29332e-06
2.151e-06
2.04947e-06
1.98542e-06
1.95524e-06
1.95512e-06
1.98123e-06
2.0298e-06
2.09722e-06
2.18013e-06
2.2755e-06
2.38065e-06
2.49331e-06
2.61158e-06
2.73391e-06
2.85905e-06
2.986e-06
3.11399e-06
3.24238e-06
3.3707e-06
3.49855e-06
3.62562e-06
3.75154e-06
3.87597e-06
3.9987e-06
4.11955e-06
4.23836e-06
4.35493e-06
4.46909e-06
4.58063e-06
4.68934e-06
4.79495e-06
4.89716e-06
4.99559e-06
5.08978e-06
5.17905e-06
5.26257e-06
5.33884e-06
5.4064e-06
5.4608e-06
5.50421e-06
5.53686e-06
1.1376e-05
1.03991e-05
9.47047e-06
8.64842e-06
7.92567e-06
7.2777e-06
6.68905e-06
6.14845e-06
5.64833e-06
5.18416e-06
4.75374e-06
4.35655e-06
3.99318e-06
3.66484e-06
3.37287e-06
3.11838e-06
2.90196e-06
2.7235e-06
2.58215e-06
2.47634e-06
2.40395e-06
2.36244e-06
2.34897e-06
2.36056e-06
2.39417e-06
2.44684e-06
2.51569e-06
2.59807e-06
2.69156e-06
2.79402e-06
2.90358e-06
3.01865e-06
3.1379e-06
3.26019e-06
3.38459e-06
3.51034e-06
3.63679e-06
3.76328e-06
3.88927e-06
4.01436e-06
4.13817e-06
4.26036e-06
4.38061e-06
4.4986e-06
4.61401e-06
4.72648e-06
4.83563e-06
4.94101e-06
5.04205e-06
5.13804e-06
5.22804e-06
5.31051e-06
5.38394e-06
5.44414e-06
5.49322e-06
5.53266e-06
1.18297e-05
1.12869e-05
1.06426e-05
9.99435e-06
9.37756e-06
8.79597e-06
8.24873e-06
7.73277e-06
7.24461e-06
6.78138e-06
6.34114e-06
5.92292e-06
5.5266e-06
5.1528e-06
4.80266e-06
4.47773e-06
4.1797e-06
3.91026e-06
3.67086e-06
3.46253e-06
3.28583e-06
3.14069e-06
3.02647e-06
2.942e-06
2.88564e-06
2.85542e-06
2.84912e-06
2.86437e-06
2.89875e-06
2.94985e-06
3.01538e-06
3.09316e-06
3.1812e-06
3.2777e-06
3.38108e-06
3.48991e-06
3.603e-06
3.71925e-06
3.83772e-06
3.95758e-06
4.07809e-06
4.19862e-06
4.31858e-06
4.43743e-06
4.55466e-06
4.66977e-06
4.78222e-06
4.89145e-06
4.99681e-06
5.09748e-06
5.1925e-06
5.28033e-06
5.35954e-06
5.42638e-06
5.48328e-06
5.53275e-06
1.20641e-05
1.18382e-05
1.14684e-05
1.1029e-05
1.05657e-05
1.00983e-05
9.63696e-06
9.18656e-06
8.74884e-06
8.32408e-06
7.91204e-06
7.51247e-06
7.12531e-06
6.75084e-06
6.38968e-06
6.04279e-06
5.71148e-06
5.39727e-06
5.1019e-06
4.82714e-06
4.57475e-06
4.3463e-06
4.14308e-06
3.96601e-06
3.81555e-06
3.69171e-06
3.59401e-06
3.52157e-06
3.47313e-06
3.44715e-06
3.44189e-06
3.45545e-06
3.4859e-06
3.53129e-06
3.58974e-06
3.65943e-06
3.73867e-06
3.82592e-06
3.91977e-06
4.01902e-06
4.12248e-06
4.22907e-06
4.33782e-06
4.44786e-06
4.55839e-06
4.66863e-06
4.77786e-06
4.88531e-06
4.99021e-06
5.09165e-06
5.18861e-06
5.27965e-06
5.36354e-06
5.43711e-06
5.5035e-06
5.56596e-06
1.21844e-05
1.21638e-05
1.20146e-05
1.17736e-05
1.14768e-05
1.11466e-05
1.07979e-05
1.04404e-05
1.00801e-05
9.7202e-06
9.36274e-06
9.00881e-06
8.65913e-06
8.31429e-06
7.97487e-06
7.64159e-06
7.31531e-06
6.9971e-06
6.68821e-06
6.39009e-06
6.10432e-06
5.8326e-06
5.57665e-06
5.33816e-06
5.11869e-06
4.91961e-06
4.74201e-06
4.58664e-06
4.45389e-06
4.34378e-06
4.25596e-06
4.18974e-06
4.14416e-06
4.11801e-06
4.10991e-06
4.11834e-06
4.14174e-06
4.17848e-06
4.22693e-06
4.28585e-06
4.35376e-06
4.4293e-06
4.51115e-06
4.59811e-06
4.68904e-06
4.78288e-06
4.87861e-06
4.97527e-06
5.07189e-06
5.16745e-06
5.26092e-06
5.35097e-06
5.43669e-06
5.51564e-06
5.59191e-06
5.66916e-06
1.22499e-05
1.2354e-05
1.23634e-05
1.22861e-05
1.21425e-05
1.19502e-05
1.17224e-05
1.14707e-05
1.12027e-05
1.09238e-05
1.06375e-05
1.03464e-05
1.00521e-05
9.75588e-06
9.45868e-06
9.16132e-06
8.86459e-06
8.56933e-06
8.27648e-06
7.98706e-06
7.70227e-06
7.42341e-06
7.1519e-06
6.88928e-06
6.63713e-06
6.39706e-06
6.17063e-06
5.95932e-06
5.76447e-06
5.5872e-06
5.4284e-06
5.28866e-06
5.1683e-06
5.06732e-06
4.98544e-06
4.92214e-06
4.87664e-06
4.84794e-06
4.83479e-06
4.83616e-06
4.85091e-06
4.87781e-06
4.91561e-06
4.96302e-06
5.01879e-06
5.08171e-06
5.15061e-06
5.22434e-06
5.30181e-06
5.38195e-06
5.46375e-06
5.54606e-06
5.62841e-06
5.70913e-06
5.79337e-06
5.88489e-06
1.22901e-05
1.24687e-05
1.25848e-05
1.26308e-05
1.26141e-05
1.25446e-05
1.24319e-05
1.22859e-05
1.2114e-05
1.19223e-05
1.17152e-05
1.14959e-05
1.1267e-05
1.10303e-05
1.07872e-05
1.05388e-05
1.0286e-05
1.00297e-05
9.77073e-06
9.50992e-06
9.2482e-06
8.98654e-06
8.72603e-06
8.46785e-06
8.21327e-06
7.96365e-06
7.7204e-06
7.485e-06
7.25891e-06
7.04355e-06
6.8403e-06
6.6504e-06
6.47494e-06
6.31482e-06
6.17075e-06
6.04319e-06
5.93238e-06
5.83831e-06
5.76058e-06
5.69852e-06
5.65179e-06
5.61983e-06
5.60192e-06
5.59722e-06
5.60477e-06
5.62359e-06
5.65264e-06
5.69091e-06
5.7374e-06
5.79114e-06
5.85133e-06
5.91713e-06
5.98863e-06
6.06495e-06
6.15224e-06
6.25411e-06
1.23185e-05
1.25425e-05
1.27283e-05
1.28621e-05
1.2943e-05
1.29746e-05
1.29622e-05
1.29126e-05
1.2832e-05
1.27257e-05
1.25983e-05
1.24532e-05
1.22933e-05
1.21207e-05
1.19373e-05
1.17443e-05
1.15429e-05
1.13341e-05
1.11188e-05
1.08977e-05
1.06718e-05
1.04417e-05
1.02084e-05
9.97275e-06
9.73575e-06
9.49846e-06
9.26203e-06
9.02766e-06
8.79661e-06
8.5702e-06
8.34977e-06
8.13664e-06
7.9321e-06
7.7374e-06
7.55369e-06
7.382e-06
7.22324e-06
7.0782e-06
6.94727e-06
6.83011e-06
6.72718e-06
6.63875e-06
6.56487e-06
6.50543e-06
6.46017e-06
6.42868e-06
6.41048e-06
6.40501e-06
6.41171e-06
6.43005e-06
6.45968e-06
6.50029e-06
6.55265e-06
6.61675e-06
6.69952e-06
6.80435e-06
1.23408e-05
1.25942e-05
1.28253e-05
1.30196e-05
1.31722e-05
1.32824e-05
1.33519e-05
1.33846e-05
1.33849e-05
1.33567e-05
1.33041e-05
1.32302e-05
1.31377e-05
1.3029e-05
1.29059e-05
1.277e-05
1.26225e-05
1.24646e-05
1.22972e-05
1.21212e-05
1.19373e-05
1.17463e-05
1.1549e-05
1.1346e-05
1.11382e-05
1.09265e-05
1.07117e-05
1.04948e-05
1.02768e-05
1.00588e-05
9.84198e-06
9.62743e-06
9.4164e-06
9.21009e-06
9.00973e-06
8.81649e-06
8.63157e-06
8.45614e-06
8.29092e-06
8.13589e-06
7.992e-06
7.86008e-06
7.74084e-06
7.63483e-06
7.54251e-06
7.4642e-06
7.4001e-06
7.35036e-06
7.31511e-06
7.29448e-06
7.28881e-06
7.29854e-06
7.3252e-06
7.36966e-06
7.43943e-06
7.53781e-06
1.23593e-05
1.26329e-05
1.2894e-05
1.31294e-05
1.33332e-05
1.3502e-05
1.36356e-05
1.37352e-05
1.38033e-05
1.38427e-05
1.38564e-05
1.3847e-05
1.38169e-05
1.37682e-05
1.37027e-05
1.3622e-05
1.35274e-05
1.34202e-05
1.33012e-05
1.31713e-05
1.30315e-05
1.28824e-05
1.27247e-05
1.25591e-05
1.23863e-05
1.22071e-05
1.20221e-05
1.18321e-05
1.1638e-05
1.14405e-05
1.12408e-05
1.10396e-05
1.08381e-05
1.06372e-05
1.04382e-05
1.02421e-05
1.00501e-05
9.86369e-06
9.68293e-06
9.50863e-06
9.34183e-06
9.18356e-06
9.03485e-06
8.8967e-06
8.77003e-06
8.65573e-06
8.55461e-06
8.46747e-06
8.39512e-06
8.3384e-06
8.29838e-06
8.27628e-06
8.27439e-06
8.29436e-06
8.34404e-06
8.42696e-06
1.23746e-05
1.26626e-05
1.29441e-05
1.32075e-05
1.34469e-05
1.36584e-05
1.38403e-05
1.39921e-05
1.41149e-05
1.42105e-05
1.42805e-05
1.43271e-05
1.4352e-05
1.43572e-05
1.43441e-05
1.43144e-05
1.42692e-05
1.42097e-05
1.41369e-05
1.40517e-05
1.3955e-05
1.38474e-05
1.37297e-05
1.36026e-05
1.34666e-05
1.33225e-05
1.31708e-05
1.30122e-05
1.28474e-05
1.26771e-05
1.2502e-05
1.2323e-05
1.21408e-05
1.19565e-05
1.17708e-05
1.15849e-05
1.13998e-05
1.12167e-05
1.10357e-05
1.08577e-05
1.06838e-05
1.05151e-05
1.03526e-05
1.01975e-05
1.0051e-05
9.91428e-06
9.78847e-06
9.67482e-06
9.57463e-06
9.4893e-06
9.42046e-06
9.36995e-06
9.34061e-06
9.3347e-06
9.36014e-06
9.42103e-06
1.23868e-05
1.26852e-05
1.29805e-05
1.32627e-05
1.35267e-05
1.37685e-05
1.39856e-05
1.4177e-05
1.43425e-05
1.44828e-05
1.4599e-05
1.46923e-05
1.47642e-05
1.48159e-05
1.48489e-05
1.48643e-05
1.48634e-05
1.48472e-05
1.48168e-05
1.47729e-05
1.47164e-05
1.4648e-05
1.45685e-05
1.44785e-05
1.43786e-05
1.42694e-05
1.41514e-05
1.40253e-05
1.38917e-05
1.37511e-05
1.36042e-05
1.34516e-05
1.32941e-05
1.31323e-05
1.29672e-05
1.27994e-05
1.26302e-05
1.24598e-05
1.22889e-05
1.21184e-05
1.19492e-05
1.17822e-05
1.16186e-05
1.14594e-05
1.13059e-05
1.11592e-05
1.10208e-05
1.0892e-05
1.07743e-05
1.06696e-05
1.05796e-05
1.05066e-05
1.04537e-05
1.04235e-05
1.04237e-05
1.04592e-05
1.23959e-05
1.27013e-05
1.30055e-05
1.33e-05
1.35804e-05
1.38429e-05
1.4085e-05
1.43053e-05
1.4503e-05
1.46779e-05
1.48306e-05
1.49617e-05
1.50721e-05
1.51628e-05
1.52347e-05
1.5289e-05
1.53266e-05
1.53485e-05
1.53555e-05
1.53485e-05
1.53283e-05
1.52956e-05
1.52511e-05
1.51954e-05
1.51292e-05
1.50529e-05
1.49672e-05
1.48725e-05
1.47696e-05
1.46587e-05
1.45406e-05
1.44158e-05
1.42848e-05
1.41483e-05
1.40069e-05
1.38615e-05
1.37126e-05
1.35606e-05
1.34062e-05
1.32502e-05
1.30933e-05
1.29364e-05
1.27805e-05
1.26265e-05
1.24755e-05
1.23288e-05
1.21876e-05
1.20533e-05
1.19275e-05
1.18119e-05
1.17085e-05
1.16196e-05
1.15483e-05
1.14972e-05
1.14736e-05
1.14833e-05
1.24019e-05
1.2711e-05
1.30201e-05
1.33218e-05
1.36123e-05
1.38881e-05
1.4147e-05
1.43874e-05
1.46083e-05
1.4809e-05
1.49895e-05
1.515e-05
1.52911e-05
1.54133e-05
1.55173e-05
1.56039e-05
1.5674e-05
1.57282e-05
1.57675e-05
1.57926e-05
1.58042e-05
1.58029e-05
1.57895e-05
1.57646e-05
1.57287e-05
1.56825e-05
1.56264e-05
1.55609e-05
1.54866e-05
1.5404e-05
1.53135e-05
1.52157e-05
1.5111e-05
1.5e-05
1.48834e-05
1.47615e-05
1.46348e-05
1.45038e-05
1.43691e-05
1.42314e-05
1.40912e-05
1.39493e-05
1.38064e-05
1.36636e-05
1.35216e-05
1.33816e-05
1.32446e-05
1.3112e-05
1.29852e-05
1.28658e-05
1.27557e-05
1.26568e-05
1.25722e-05
1.25042e-05
1.24597e-05
1.24454e-05
1.24048e-05
1.27143e-05
1.30247e-05
1.33293e-05
1.36246e-05
1.39078e-05
1.41768e-05
1.44301e-05
1.46665e-05
1.48852e-05
1.50858e-05
1.52682e-05
1.54326e-05
1.55793e-05
1.57087e-05
1.58214e-05
1.5918e-05
1.59991e-05
1.60654e-05
1.61176e-05
1.61563e-05
1.61821e-05
1.61957e-05
1.61977e-05
1.61885e-05
1.61689e-05
1.61392e-05
1.61e-05
1.60517e-05
1.59949e-05
1.59299e-05
1.58572e-05
1.57774e-05
1.56908e-05
1.55979e-05
1.5499e-05
1.53946e-05
1.52852e-05
1.51712e-05
1.50531e-05
1.49315e-05
1.48069e-05
1.46801e-05
1.45517e-05
1.44224e-05
1.42932e-05
1.4165e-05
1.40389e-05
1.39161e-05
1.37979e-05
1.3686e-05
1.35821e-05
1.34887e-05
1.34079e-05
1.33458e-05
1.33104e-05
1.24044e-05
1.27112e-05
1.30193e-05
1.33228e-05
1.36185e-05
1.3904e-05
1.41773e-05
1.44372e-05
1.46826e-05
1.49124e-05
1.51263e-05
1.53238e-05
1.55049e-05
1.56697e-05
1.58183e-05
1.59511e-05
1.60685e-05
1.61711e-05
1.62593e-05
1.63337e-05
1.6395e-05
1.64435e-05
1.648e-05
1.6505e-05
1.65189e-05
1.65223e-05
1.65157e-05
1.64996e-05
1.64744e-05
1.64406e-05
1.63985e-05
1.63486e-05
1.62914e-05
1.62271e-05
1.61562e-05
1.6079e-05
1.59959e-05
1.59073e-05
1.58135e-05
1.5715e-05
1.56122e-05
1.55057e-05
1.53958e-05
1.52832e-05
1.51684e-05
1.50522e-05
1.49353e-05
1.48185e-05
1.47027e-05
1.45891e-05
1.44789e-05
1.43735e-05
1.4275e-05
1.4185e-05
1.41092e-05
1.40561e-05
1.24007e-05
1.27015e-05
1.30039e-05
1.33023e-05
1.35942e-05
1.38773e-05
1.415e-05
1.4411e-05
1.46594e-05
1.48944e-05
1.51153e-05
1.53217e-05
1.55134e-05
1.56902e-05
1.58521e-05
1.59995e-05
1.61325e-05
1.62514e-05
1.63567e-05
1.64488e-05
1.65282e-05
1.65954e-05
1.66508e-05
1.6695e-05
1.67284e-05
1.67515e-05
1.67648e-05
1.67686e-05
1.67635e-05
1.67498e-05
1.67279e-05
1.66983e-05
1.66612e-05
1.66171e-05
1.65661e-05
1.65087e-05
1.64452e-05
1.6376e-05
1.63012e-05
1.62214e-05
1.61368e-05
1.60477e-05
1.59547e-05
1.5858e-05
1.57582e-05
1.56557e-05
1.55511e-05
1.5445e-05
1.5338e-05
1.5231e-05
1.51248e-05
1.50205e-05
1.49197e-05
1.48238e-05
1.47376e-05
1.46705e-05
1.23937e-05
1.26852e-05
1.29782e-05
1.32679e-05
1.35518e-05
1.38281e-05
1.40953e-05
1.43524e-05
1.45986e-05
1.48331e-05
1.50553e-05
1.52649e-05
1.54614e-05
1.56446e-05
1.58145e-05
1.59711e-05
1.61146e-05
1.62451e-05
1.63629e-05
1.64683e-05
1.65618e-05
1.66436e-05
1.67143e-05
1.67741e-05
1.68236e-05
1.68632e-05
1.68932e-05
1.69141e-05
1.69263e-05
1.693e-05
1.69258e-05
1.69139e-05
1.68946e-05
1.68683e-05
1.68352e-05
1.67957e-05
1.675e-05
1.66984e-05
1.66412e-05
1.65787e-05
1.6511e-05
1.64385e-05
1.63615e-05
1.62802e-05
1.6195e-05
1.61062e-05
1.60141e-05
1.59192e-05
1.58218e-05
1.57225e-05
1.56218e-05
1.55205e-05
1.54198e-05
1.53206e-05
1.52273e-05
1.515e-05
1.23833e-05
1.26621e-05
1.29421e-05
1.3219e-05
1.34908e-05
1.37559e-05
1.40131e-05
1.42614e-05
1.45003e-05
1.47291e-05
1.49473e-05
1.51546e-05
1.53506e-05
1.5535e-05
1.57077e-05
1.58686e-05
1.60178e-05
1.61553e-05
1.62812e-05
1.63958e-05
1.64994e-05
1.65922e-05
1.66746e-05
1.67468e-05
1.68093e-05
1.68624e-05
1.69063e-05
1.69416e-05
1.69684e-05
1.69871e-05
1.69981e-05
1.70017e-05
1.6998e-05
1.69875e-05
1.69704e-05
1.69469e-05
1.69172e-05
1.68817e-05
1.68405e-05
1.67937e-05
1.67417e-05
1.66847e-05
1.66227e-05
1.6556e-05
1.64847e-05
1.64091e-05
1.63294e-05
1.62457e-05
1.61583e-05
1.60673e-05
1.59732e-05
1.58763e-05
1.57775e-05
1.56777e-05
1.55805e-05
1.54966e-05
1.23695e-05
1.26319e-05
1.2895e-05
1.31551e-05
1.34107e-05
1.36602e-05
1.39027e-05
1.41375e-05
1.43642e-05
1.45823e-05
1.47915e-05
1.49915e-05
1.51819e-05
1.53625e-05
1.55331e-05
1.56936e-05
1.58438e-05
1.59839e-05
1.61139e-05
1.62337e-05
1.63437e-05
1.6444e-05
1.65347e-05
1.66162e-05
1.66887e-05
1.67525e-05
1.68078e-05
1.68549e-05
1.6894e-05
1.69255e-05
1.69496e-05
1.69666e-05
1.69768e-05
1.69803e-05
1.69773e-05
1.69682e-05
1.6953e-05
1.69321e-05
1.69054e-05
1.68733e-05
1.68358e-05
1.6793e-05
1.67451e-05
1.66921e-05
1.66342e-05
1.65713e-05
1.65036e-05
1.64311e-05
1.63538e-05
1.62718e-05
1.61851e-05
1.6094e-05
1.59991e-05
1.59011e-05
1.58034e-05
1.57167e-05
1.23519e-05
1.25941e-05
1.28363e-05
1.30755e-05
1.33103e-05
1.35397e-05
1.3763e-05
1.39797e-05
1.41895e-05
1.43922e-05
1.45875e-05
1.47753e-05
1.49554e-05
1.51274e-05
1.52913e-05
1.54468e-05
1.55939e-05
1.57324e-05
1.58623e-05
1.59837e-05
1.60965e-05
1.62009e-05
1.62969e-05
1.63847e-05
1.64644e-05
1.65363e-05
1.66005e-05
1.66571e-05
1.67065e-05
1.67487e-05
1.67841e-05
1.68129e-05
1.68351e-05
1.6851e-05
1.68609e-05
1.68647e-05
1.68628e-05
1.68552e-05
1.6842e-05
1.68234e-05
1.67995e-05
1.67702e-05
1.67356e-05
1.66958e-05
1.66507e-05
1.66003e-05
1.65445e-05
1.64832e-05
1.64164e-05
1.6344e-05
1.62658e-05
1.61821e-05
1.60932e-05
1.59998e-05
1.5905e-05
1.58196e-05
1.23303e-05
1.25481e-05
1.2765e-05
1.29787e-05
1.31883e-05
1.3393e-05
1.35925e-05
1.37865e-05
1.39749e-05
1.41576e-05
1.43346e-05
1.45057e-05
1.4671e-05
1.48301e-05
1.49829e-05
1.51293e-05
1.52691e-05
1.54021e-05
1.55283e-05
1.56476e-05
1.57598e-05
1.58651e-05
1.59633e-05
1.60546e-05
1.6139e-05
1.62165e-05
1.62873e-05
1.63514e-05
1.6409e-05
1.64603e-05
1.65053e-05
1.65442e-05
1.65772e-05
1.66043e-05
1.66257e-05
1.66414e-05
1.66517e-05
1.66566e-05
1.66561e-05
1.66503e-05
1.66393e-05
1.66229e-05
1.66013e-05
1.65744e-05
1.6542e-05
1.6504e-05
1.64604e-05
1.64109e-05
1.63554e-05
1.62936e-05
1.62254e-05
1.6151e-05
1.60706e-05
1.59851e-05
1.58975e-05
1.58179e-05
1.23042e-05
1.24929e-05
1.26798e-05
1.28633e-05
1.30429e-05
1.32184e-05
1.33895e-05
1.35564e-05
1.37191e-05
1.38777e-05
1.40322e-05
1.41828e-05
1.43292e-05
1.44715e-05
1.46094e-05
1.47429e-05
1.48717e-05
1.49957e-05
1.51146e-05
1.52284e-05
1.5337e-05
1.54401e-05
1.55377e-05
1.56298e-05
1.57163e-05
1.57971e-05
1.58724e-05
1.59421e-05
1.60062e-05
1.60648e-05
1.61179e-05
1.61657e-05
1.62081e-05
1.62453e-05
1.62773e-05
1.63042e-05
1.6326e-05
1.63427e-05
1.63544e-05
1.63611e-05
1.63627e-05
1.63592e-05
1.63505e-05
1.63366e-05
1.63172e-05
1.62923e-05
1.62615e-05
1.62247e-05
1.61817e-05
1.61322e-05
1.60762e-05
1.60137e-05
1.59451e-05
1.58716e-05
1.57958e-05
1.57274e-05
1.22728e-05
1.24271e-05
1.25788e-05
1.27271e-05
1.28721e-05
1.30138e-05
1.31525e-05
1.32883e-05
1.34216e-05
1.35525e-05
1.36812e-05
1.38077e-05
1.39321e-05
1.40542e-05
1.4174e-05
1.42913e-05
1.44059e-05
1.45177e-05
1.46264e-05
1.47318e-05
1.48337e-05
1.49319e-05
1.50263e-05
1.51167e-05
1.5203e-05
1.52851e-05
1.53628e-05
1.54361e-05
1.55051e-05
1.55695e-05
1.56294e-05
1.56849e-05
1.57358e-05
1.57822e-05
1.58241e-05
1.58615e-05
1.58943e-05
1.59227e-05
1.59464e-05
1.59655e-05
1.598e-05
1.59896e-05
1.59944e-05
1.59941e-05
1.59886e-05
1.59777e-05
1.59611e-05
1.59387e-05
1.59102e-05
1.58754e-05
1.58343e-05
1.57872e-05
1.57347e-05
1.5678e-05
1.562e-05
1.55689e-05
1.22353e-05
1.23491e-05
1.24602e-05
1.25684e-05
1.26744e-05
1.27785e-05
1.28812e-05
1.29829e-05
1.3084e-05
1.31846e-05
1.32849e-05
1.33849e-05
1.34848e-05
1.35844e-05
1.36837e-05
1.37824e-05
1.38804e-05
1.39775e-05
1.40734e-05
1.41679e-05
1.42608e-05
1.43517e-05
1.44406e-05
1.45271e-05
1.46111e-05
1.46924e-05
1.47708e-05
1.48461e-05
1.49184e-05
1.49873e-05
1.50528e-05
1.51149e-05
1.51735e-05
1.52285e-05
1.52798e-05
1.53274e-05
1.53711e-05
1.54111e-05
1.54471e-05
1.5479e-05
1.55068e-05
1.55304e-05
1.55495e-05
1.5564e-05
1.55738e-05
1.55787e-05
1.55783e-05
1.55726e-05
1.55614e-05
1.55445e-05
1.55223e-05
1.5495e-05
1.54637e-05
1.54298e-05
1.53964e-05
1.53697e-05