/*--------------------------------*- C++ -*----------------------------------*\
  =========                 |
  \\      /  F ield         | OpenFOAM: The Open Source CFD Toolbox
   \\    /   O peration     | Website:  https://openfoam.org
    \\  /    A nd           | Version:  6
     \\/     M anipulation  |
\*---------------------------------------------------------------------------*/
FoamFile
{
    version     2.0;
    format      ascii;
    class       volVectorField;
    location    "0";
    object      U;
}
// * * * * * * * * * * * * * * * * * * * * * * * * * * * * * * * * * * * * * //

dimensions      [0 1 -1 0 0 0 0];

internalField   nonuniform List<vector> 
13046
(
(0.524021 0.200574 0)
(0.595408 -0.137553 3.89996e-21)
(0.221494 -0.0822415 8.7664e-21)
(0.505287 0.115143 0)
(0.224734 -0.00780206 7.9718e-21)
(0.50387 -0.149094 0)
(0.550688 0.138143 -1.15648e-21)
(0.546584 -0.185045 -1.99775e-21)
(0.199232 0.00268699 8.76471e-21)
(1.01889 0.453264 -2.67289e-21)
(1.06294 -0.440666 0)
(-0.0174519 -0.0170276 -5.47166e-21)
(0.64877 0.244228 7.23061e-21)
(0.685466 -0.211488 5.92049e-21)
(0.150958 -0.0550745 -4.76272e-21)
(0.969685 0.50996 -1.57019e-21)
(0.0144892 -0.0449066 -8.78463e-21)
(1.10598 -0.358781 -2.10063e-21)
(0.313997 0.0729163 0)
(0.383305 -0.128984 4.32016e-21)
(0.488505 0.0171153 -1.2178e-20)
(0.981199 0.500946 1.51714e-21)
(0.00484646 -0.0372177 1.75883e-20)
(1.0975 -0.376722 -6.23717e-22)
(0.459547 0.125899 -4.92331e-21)
(0.50937 -0.107596 7.30789e-21)
(0.249366 -0.0556713 0)
(0.656634 0.274557 -1.7502e-22)
(0.711341 -0.20953 -1.74055e-21)
(0.149675 -0.0711635 1.65269e-20)
(0.531105 0.222068 0)
(0.6208 -0.125594 0)
(0.226572 -0.103107 -8.92247e-21)
(0.42086 0.0953162 1.72848e-20)
(0.27454 -0.0535583 -2.98959e-21)
(0.471536 -0.0800132 -1.133e-20)
(0.416089 0.0723945 5.65028e-23)
(0.285117 -0.0315592 0)
(0.443803 -0.0774571 0)
(0.436057 0.224503 -6.224e-21)
(0.36447 -0.21734 -8.05285e-21)
(0.644554 -0.0385543 5.79933e-21)
(0.393811 0.00730567 -3.98758e-21)
(0.335307 -0.00099099 4.07952e-21)
(0.37353 -0.0474036 0)
(0.422198 0.0157721 -2.53161e-21)
(0.314771 0.0199492 0)
(0.377107 -0.0739082 1.31333e-21)
(0.546094 0.195653 0)
(0.59896 -0.159548 2.79488e-22)
(0.194519 -0.0629114 2.92137e-23)
(0.531982 -0.350803 -9.82899e-21)
(0.372548 0.243285 0)
(0.745789 0.0358005 6.74055e-21)
(0.58978 -0.387061 1.39967e-20)
(0.774582 0.0610489 7.22827e-21)
(0.334228 0.224599 -9.5529e-21)
(0.986816 -0.208607 1.15999e-21)
(0.822744 0.503003 0)
(0.17367 -0.163778 -7.37328e-21)
(0.82842 0.256013 3.39247e-21)
(0.800972 -0.367367 -3.41579e-21)
(0.0945071 0.0334702 1.9687e-20)
(0.00956658 -0.0235883 -1.01399e-20)
(1.02494 -0.405683 1.79388e-21)
(0.988569 0.423958 4.8567e-21)
(0.783158 0.498062 0)
(0.954315 -0.172152 -5.48523e-21)
(0.219133 -0.201882 -2.15018e-21)
(0.749619 0.475424 2.57443e-21)
(0.922355 -0.157956 7.43351e-21)
(0.235879 -0.20978 2.92532e-21)
(1.02253 -0.218956 1.12819e-23)
(0.852098 0.52204 -1.08046e-22)
(0.157251 -0.159601 3.42179e-23)
(0.33099 0.0962289 0)
(0.37403 -0.144971 -4.70483e-21)
(0.514575 -0.000502615 8.64762e-21)
(0.10149 -0.114716 -8.08966e-21)
(0.896633 0.52703 7.30567e-21)
(1.05801 -0.266448 2.43209e-21)
(0.489234 0.136684 -2.57101e-21)
(0.522472 -0.128758 2.60759e-21)
(0.227341 -0.0379201 0)
(0.00226421 -0.0238828 9.05313e-21)
(1.0453 -0.413403 0)
(1.00478 0.438979 -2.85844e-21)
(1.03162 0.346963 4.99638e-21)
(0.0188145 0.0164323 0)
(0.977626 -0.481047 1.4472e-21)
(0.0600624 0.0600274 0)
(1.09498 0.276498 0)
(0.942393 -0.565922 -1.8306e-22)
(0.836088 0.360828 6.62804e-21)
(0.874818 0.368494 -9.16946e-21)
(0.885967 -0.309717 -6.33192e-21)
(0.914708 -0.340127 2.96447e-21)
(0.074466 -0.0482432 4.232e-21)
(0.0559396 -0.0334043 -1.0875e-20)
(0.0318436 0.0279812 5.11056e-22)
(1.03005 0.325187 -4.88878e-21)
(0.957665 -0.495483 0)
(0.445319 0.041007 2.50865e-23)
(0.289314 0.0184131 0)
(0.405913 -0.100486 0)
(0.265616 0.159378 -1.743e-20)
(0.710006 0.0904832 3.38212e-21)
(0.578728 -0.32887 0)
(0.370264 0.220026 -2.64171e-21)
(0.477402 -0.294088 0)
(0.688611 0.0168348 1.30212e-20)
(0.95304 0.443719 0)
(-0.0222427 -0.0143737 7.40845e-21)
(0.985872 -0.442957 8.2146e-22)
(0.602351 0.218772 -5.07187e-21)
(0.64639 -0.189398 -2.57995e-21)
(0.166821 -0.0495721 -8.62877e-21)
(0.874309 0.422464 -3.82298e-21)
(0.837938 0.392307 3.56774e-21)
(0.954989 -0.305363 -1.6659e-21)
(0.0716921 -0.0689613 -4.86047e-21)
(0.908801 -0.29136 1.70336e-21)
(0.0822032 -0.0674462 4.54063e-21)
(1.00528 0.462122 6.16328e-21)
(1.06196 -0.437663 1.82234e-21)
(-0.0192589 -0.0171513 2.44276e-21)
(0.75356 0.327669 0)
(0.807007 -0.261371 4.3581e-21)
(0.109662 -0.0675213 -2.51324e-20)
(0.476279 0.242604 0)
(0.324786 -0.196195 8.10804e-21)
(0.653206 -0.0657619 -3.03991e-22)
(0.0761978 0.0722466 0)
(1.0684 0.261844 0)
(0.926998 -0.553182 0)
(0.944123 0.370842 0)
(0.956175 -0.397523 7.86186e-21)
(0.0319861 -0.0108634 1.08924e-20)
(0.573429 0.245864 0)
(0.657721 -0.147676 0)
(0.209078 -0.109556 0)
(0.675015 0.166888 0)
(0.636336 -0.282758 0)
(0.168284 0.049281 0)
(0.348422 0.214634 2.44443e-21)
(0.51988 -0.321113 0)
(0.709654 0.0381878 -7.02178e-21)
(0.267277 0.145977 1.68905e-20)
(0.686589 0.0866807 7.4456e-21)
(0.564598 -0.309523 -8.76158e-21)
(0.858767 0.277163 -7.64863e-21)
(0.834451 -0.378515 0)
(0.0766366 0.0192793 -2.55796e-20)
(0.24021 0.0892383 0)
(0.610468 0.0920185 -1.64484e-20)
(0.52356 -0.243541 -2.26193e-21)
(0.69125 -0.428627 -3.86108e-21)
(0.825117 0.124601 -7.57805e-21)
(0.739853 -0.445841 0)
(0.857272 0.156907 -4.35528e-21)
(0.24443 0.173437 -8.23426e-21)
(0.201554 0.145033 7.90852e-21)
(0.700813 0.136076 -1.03481e-21)
(0.622683 -0.314851 -4.51779e-21)
(0.195925 0.0885341 4.89206e-21)
(1.04004 0.436906 2.72511e-21)
(-0.0178739 -0.0135062 -2.84205e-21)
(1.04305 -0.459704 2.7659e-21)
(0.974578 0.453506 1.60365e-21)
(-0.0220074 -0.0145288 1.11452e-21)
(1.02499 -0.439645 0)
(0.95409 0.391125 -1.59823e-22)
(0.976932 -0.394976 0)
(0.0252536 -0.0187614 -1.31576e-20)
(0.545958 0.317506 0)
(0.736277 -0.0788874 -1.76781e-21)
(0.333572 -0.235515 -4.70511e-21)
(0.676079 0.117591 -6.74953e-21)
(0.220166 0.107025 0)
(0.588809 -0.29519 0)
(-0.0123575 -0.00376521 0)
(1.02215 -0.490415 0)
(1.06607 0.399729 -2.20047e-21)
(0.507559 0.289097 0)
(0.705085 -0.0620824 3.92804e-21)
(0.347985 -0.228155 -1.22134e-21)
(0.239153 0.104352 0)
(0.628052 0.0909355 0)
(0.530627 -0.260044 0)
(0.638797 0.145116 -3.40353e-21)
(0.600348 -0.260566 0)
(0.180056 0.0447969 0)
(0.727889 -0.255441 3.37085e-23)
(0.122844 -0.0329099 5.86332e-21)
(0.722241 0.301655 -1.04439e-20)
(0.773249 -0.247262 0)
(0.120325 -0.0606257 2.59654e-20)
(1.03377 0.394599 5.62746e-21)
(0.00175546 -0.00369422 -8.18244e-21)
(1.01834 -0.45944 6.50826e-21)
(0.0624931 0.0575 -7.45617e-21)
(1.03517 0.281549 -3.10671e-21)
(0.92992 -0.521974 -7.41959e-21)
(1.07936 0.316044 8.03287e-21)
(0.969231 -0.527953 0)
(0.0295915 0.034914 7.30702e-21)
(0.555914 -0.3968 3.97049e-21)
(0.803228 0.0280514 -2.96525e-21)
(0.418713 0.302683 -8.01526e-21)
(0.629742 0.188657 6.67715e-21)
(0.883261 0.538442 -3.82404e-21)
(0.12095 -0.129379 4.9904e-21)
(1.06196 -0.254946 -1.127e-23)
(0.981183 -0.530177 0)
(1.0883 0.337994 2.1854e-21)
(0.015453 0.0218885 0)
(0.445549 0.06998 1.27687e-20)
(0.269175 -0.00446407 0)
(0.439503 -0.104438 -4.27118e-21)
(0.633204 0.28048 0)
(0.705783 -0.187596 2.50334e-22)
(0.17514 -0.0903025 -4.88717e-21)
(0.0759583 0.0698856 -5.71889e-21)
(1.04353 0.267438 0)
(0.920144 -0.53785 8.54976e-21)
(0.667962 0.212206 0)
(0.710314 -0.262952 -1.07406e-20)
(0.126458 -0.0183672 0)
(-0.0227989 -0.013549 0)
(1.0104 -0.471024 -1.86804e-21)
(1.02977 0.431561 0)
(0.377786 0.274431 8.67068e-21)
(0.812373 0.0471453 0)
(0.592745 -0.419796 0)
(1.05342 0.308834 -7.04605e-21)
(0.956835 -0.514277 0)
(0.0367634 0.0370399 4.3349e-23)
(0.775964 0.147415 -8.7083e-21)
(0.680706 -0.379557 -3.38425e-21)
(0.192566 0.116788 1.11881e-20)
(0.749867 0.34696 0)
(0.817038 -0.24744 -4.07691e-21)
(0.120971 -0.0822331 -2.62465e-21)
(0.857457 -0.547586 1.13353e-20)
(1.00512 0.198481 5.66078e-21)
(0.153511 0.131989 -4.48341e-21)
(0.900467 0.164919 0)
(0.774926 -0.478032 4.66276e-21)
(0.195393 0.1479 1.63225e-22)
(-0.0227655 -0.0136288 5.70829e-21)
(0.986497 -0.480965 0)
(1.03607 0.41726 1.476e-21)
(0.439262 0.265467 -1.15497e-20)
(0.432042 -0.281614 5.86229e-21)
(0.708074 -0.0182781 5.61134e-22)
(0.878528 0.470409 -1.52319e-21)
(-0.0179211 -0.0114971 6.1479e-22)
(1.00975 -0.386272 0)
(0.283267 0.0498307 -2.63201e-21)
(0.486905 0.0404238 9.87846e-21)
(0.41273 -0.135722 -1.28979e-20)
(0.777946 0.188546 -3.44951e-21)
(0.754418 0.156053 -3.21645e-23)
(0.716467 -0.361172 8.25485e-21)
(0.673329 -0.357725 8.1059e-21)
(0.180539 0.0983231 -8.91147e-21)
(0.143959 0.0719438 4.60448e-21)
(0.0782802 -0.0966617 1.05888e-20)
(0.91666 0.529661 -3.92708e-21)
(1.08452 -0.281524 0)
(0.712464 0.339844 0)
(0.792638 -0.216011 0)
(0.151581 -0.101299 1.04078e-20)
(0.938065 0.190959 1.51855e-21)
(0.813566 -0.500811 0)
(0.165079 0.129145 0)
(0.912291 0.400839 -3.26415e-21)
(0.960357 -0.349116 0)
(0.0437244 -0.039802 -4.78319e-21)
(0.374412 0.0218421 -2.71457e-21)
(0.393214 -0.0336437 -3.91593e-21)
(0.335409 -0.0230908 1.35778e-21)
(0.836571 0.171286 5.54588e-21)
(0.739966 -0.422354 0)
(0.174316 0.118318 7.63684e-21)
(0.719306 0.360227 0)
(0.813581 -0.209284 -5.03014e-21)
(0.158698 -0.116233 6.65695e-21)
(0.686618 0.240662 -1.07371e-20)
(0.726888 0.26169 8.64774e-21)
(0.4494 0.281044 9.1412e-21)
(0.443508 -0.29913 -1.69621e-20)
(0.72746 -0.0142315 1.231e-20)
(0.865351 0.198468 5.65777e-21)
(0.776613 -0.434206 -6.96165e-21)
(0.141326 0.0955528 -6.96496e-21)
(0.938419 0.405964 1.20428e-20)
(0.0311551 -0.0308428 1.69253e-20)
(0.982432 -0.370818 3.72614e-21)
(0.371302 0.203035 4.02977e-21)
(0.452706 -0.273792 0)
(0.665305 0.0146771 -4.40397e-21)
(0.265191 0.196448 8.88612e-21)
(0.842371 0.115016 4.33708e-21)
(0.692425 -0.450274 0)
(0.81751 0.42633 1.24957e-21)
(0.922347 -0.248556 4.2354e-21)
(0.119219 -0.107099 -3.0142e-21)
(0.41038 0.270092 -7.47853e-22)
(0.506272 -0.341337 0)
(0.75018 0.0191243 -9.34496e-21)
(0.849337 0.447517 0)
(0.873352 0.447323 0)
(0.959728 -0.265744 2.66345e-21)
(0.104704 -0.100659 7.84378e-21)
(0.974602 -0.29223 -3.75938e-21)
(0.0821351 -0.0819788 -8.32366e-21)
(-0.0100507 -0.00722975 6.31816e-21)
(1.03112 -0.472752 0)
(1.0532 0.412094 3.37452e-21)
(0.800991 0.382384 0)
(0.875987 -0.267801 2.00329e-21)
(0.103357 -0.0812608 -2.70619e-21)
(0.880564 -0.415749 -1.40217e-21)
(-0.0172402 -0.0136615 -9.11604e-21)
(0.845536 0.423924 -2.29357e-21)
(0.562665 0.0600914 1.33329e-20)
(0.268377 0.0878723 0)
(0.465773 -0.201973 4.75398e-21)
(0.781221 0.240375 -8.05146e-21)
(0.761448 -0.334866 0)
(0.105103 0.0243595 -1.51336e-20)
(0.0092705 -0.00751644 5.22797e-21)
(1.00851 0.390925 -1.04307e-20)
(1.0035 -0.438559 -5.12253e-21)
(0.610745 -0.407983 5.15536e-21)
(0.79649 0.0662754 0)
(0.331405 0.23861 1.08253e-20)
(0.880272 -0.546973 1.34436e-20)
(1.02107 0.222985 3.40268e-21)
(0.122132 0.106203 0)
(0.650149 -0.233517 5.58587e-21)
(0.15064 -0.0102982 0)
(0.804029 0.292586 -8.64454e-21)
(0.80627 -0.319667 -3.76715e-21)
(0.0844 -0.0156081 -4.63481e-21)
(0.638737 -0.248813 -1.94893e-22)
(0.152583 0.00660133 -2.38492e-23)
(0.963884 0.503307 7.78682e-21)
(0.025067 -0.0528799 -1.24111e-20)
(1.0931 -0.346272 3.08803e-21)
(0.541534 -0.40908 -5.16721e-21)
(0.822825 0.0138212 -9.25348e-22)
(0.455678 0.332964 0)
(0.838245 0.31148 8.80931e-21)
(0.849118 -0.339369 4.59505e-21)
(0.0704759 -0.0103842 1.12373e-20)
(0.694194 0.161479 0)
(0.638776 -0.304177 3.30906e-21)
(0.172592 0.0652193 0)
(0.717973 0.0687547 4.3307e-21)
(0.558022 -0.339368 0)
(0.304915 0.184583 0)
(0.529081 0.168079 3.56517e-21)
(0.565269 -0.152973 6.17155e-21)
(0.204415 -0.0463568 -2.02124e-23)
(0.29928 0.221382 -1.10312e-20)
(0.828493 0.0933236 -1.04788e-20)
(0.661718 -0.438167 -1.38708e-20)
(1.05295 0.367475 4.1435e-21)
(0.999561 -0.483317 -5.4997e-21)
(0.00612686 0.00719614 -1.22944e-22)
(0.88848 -0.529474 -9.14583e-21)
(1.0105 0.237339 -3.44917e-21)
(0.104805 0.0913625 -5.74716e-21)
(0.675855 0.439285 8.01977e-21)
(0.303666 -0.249983 -4.37162e-21)
(0.869919 -0.11598 0)
(0.884608 0.494585 -2.14584e-21)
(0.859997 0.478783 2.01007e-21)
(0.990658 -0.254974 8.40048e-22)
(1.02178 -0.267296 -3.42188e-21)
(0.10065 -0.107296 2.8585e-21)
(0.115884 -0.116969 2.54125e-21)
(-0.0186636 -0.0124297 9.25489e-21)
(0.922826 -0.407089 1.54438e-21)
(0.861511 0.432112 -1.05988e-21)
(0.895865 0.47962 1.11427e-22)
(-0.0170275 -0.013057 0)
(1.0401 -0.384487 0)
(0.818409 0.208357 1.28324e-20)
(0.760404 -0.383823 1.81007e-21)
(0.131103 0.0703148 0)
(-0.0042782 -0.00859208 1.5756e-20)
(1.0387 0.408911 -4.25581e-21)
(1.03238 -0.457 0)
(0.757881 0.445179 -1.12408e-20)
(0.791466 0.454197 8.38094e-21)
(0.901407 -0.189037 -4.54215e-21)
(0.926221 -0.210345 -1.72886e-21)
(0.198357 -0.170439 5.03065e-21)
(0.166692 -0.147806 2.521e-21)
(0.00604108 0.0136217 0)
(0.966219 -0.544272 0)
(1.11524 0.331093 -1.11925e-21)
(0.821343 0.463969 1.78849e-21)
(-0.0164174 -0.00914529 -5.7702e-21)
(0.981835 -0.366682 0)
(0.4592 -0.0170997 2.41692e-23)
(0.347287 0.0690132 -5.78958e-21)
(0.339022 -0.0912469 -2.8844e-21)
(0.902076 0.44862 2.67449e-21)
(0.97913 -0.420256 -1.20175e-21)
(-0.0203065 -0.0127466 -1.15171e-20)
(0.599299 0.334583 -9.93307e-21)
(0.753356 -0.114776 8.08708e-21)
(0.278346 -0.199502 4.30216e-23)
(1.07333 0.386915 -1.10353e-22)
(1.01278 -0.500569 -7.27336e-21)
(-0.00675318 0.00105653 3.20537e-21)
(0.773983 -0.426395 -5.21565e-23)
(-0.0152892 -0.0184292 1.04769e-20)
(0.823861 0.355561 5.32323e-22)
(0.396762 0.192576 5.38909e-21)
(0.378163 -0.20658 3.45255e-22)
(0.614265 -0.0200235 -1.42613e-20)
(0.514493 0.0677159 0)
(0.45629 -0.161822 1.42808e-20)
(0.255824 0.0458927 -7.33742e-21)
(0.988773 0.478685 -6.30634e-21)
(-0.0168423 -0.0190724 -7.28397e-21)
(1.07339 -0.422615 6.47143e-23)
(0.541146 0.0784563 0)
(0.475535 -0.18276 4.96042e-21)
(0.244445 0.0609086 1.03786e-20)
(0.435529 -0.0136164 -5.8829e-21)
(0.344781 0.04852 6.11421e-21)
(0.343219 -0.0724898 -1.52361e-21)
(0.360496 0.274076 5.28871e-21)
(0.847499 0.0650473 3.64647e-21)
(0.640659 -0.45942 -7.6114e-21)
(0.533949 0.0153808 0)
(0.39775 -0.163868 0)
(0.314661 0.111138 -8.5736e-22)
(0.561014 0.0449019 -7.17389e-21)
(0.441506 -0.190372 -3.84547e-21)
(0.294248 0.10832 -1.21484e-22)
(0.638218 0.419566 -1.22128e-20)
(0.844779 -0.0955587 5.96017e-21)
(0.340627 -0.277629 8.73191e-21)
(-0.00721019 -0.0248288 -1.10558e-20)
(-0.0112478 -0.0209697 1.12183e-20)
(1.08058 -0.414345 -1.9238e-21)
(1.06895 -0.429448 -1.40148e-21)
(1.00508 0.474856 -5.75495e-21)
(1.01682 0.463484 8.58927e-21)
(1.0698 0.368088 -5.16351e-21)
(1.00348 -0.495318 4.66841e-21)
(0.00217159 0.00918684 0)
(0.290999 -0.253404 -5.64734e-21)
(0.708368 0.470973 -2.48084e-21)
(0.903565 -0.125801 0)
(0.462689 0.265141 0)
(0.388168 -0.250935 5.3531e-21)
(0.693748 -0.0379223 -4.36585e-21)
(0.915163 0.143879 0)
(0.765738 -0.500937 -4.82483e-21)
(0.229711 0.178779 -1.68874e-22)
(0.847571 -0.479181 -1.60388e-21)
(-0.0201999 -0.0204675 0)
(0.974891 0.359486 2.13275e-21)
(0.0417263 0.045425 0)
(1.09885 0.296883 0)
(0.953491 -0.558242 -3.27146e-21)
(1.00186 0.447427 -2.01065e-21)
(-0.0223646 -0.0148407 0)
(1.0318 -0.452907 1.83326e-21)
(-0.0126707 -0.0163331 3.89726e-32)
(0.729403 -0.40201 3.51516e-22)
(0.758801 0.343448 -4.48213e-22)
(0.768491 -0.353137 -3.71917e-22)
(-0.0116433 -0.0113269 -3.888e-32)
(0.720401 0.391174 4.14964e-22)
(0.849367 -0.433612 9.31481e-21)
(0.909169 0.257533 0)
(0.0900051 0.0544128 1.4853e-20)
(0.935082 -0.527096 1.04806e-21)
(-0.0110776 -0.00578381 0)
(1.09987 0.348426 0)
(0.965876 0.36261 5.32879e-21)
(0.95816 -0.420468 -4.84686e-21)
(0.0284967 -0.00140528 -7.71005e-21)
(0.944008 0.528006 -7.38564e-21)
(0.00989319 -0.0397812 -4.43915e-21)
(1.1315 -0.343421 0)
(0.601825 0.194921 -2.72153e-21)
(0.165238 -0.0230536 2.94039e-21)
(0.629895 -0.208907 -2.70198e-21)
(0.965966 -0.551011 0)
(0.0160205 0.0233244 -5.30743e-21)
(1.11323 0.320911 -1.40231e-21)
(0.890671 0.12708 4.20777e-21)
(0.256402 0.198854 3.01623e-21)
(0.73638 -0.486443 0)
(0.828929 -0.492487 0)
(0.93985 0.209554 0)
(0.137822 0.109254 -5.39166e-21)
(-0.00352299 -0.00856552 0)
(0.444973 -0.220235 -3.73906e-22)
(0.436932 0.213783 2.88244e-22)
(0.869124 -0.437795 -1.06957e-21)
(-0.0184091 -0.0160306 6.34029e-21)
(0.87477 0.408193 1.20239e-21)
(0.563507 0.168864 7.04611e-21)
(0.18531 -0.0224048 -6.99552e-21)
(0.584335 -0.186287 -3.12687e-21)
(0.986954 -0.52023 -5.94988e-21)
(1.09858 0.364077 2.2524e-21)
(-0.00568254 0.00425331 0)
(0.00345277 0.0102939 5.54073e-21)
(1.12369 0.329531 0)
(0.949324 -0.549264 4.50821e-21)
(1.02265 0.432944 3.10737e-21)
(-0.0042261 -0.0168572 -1.68955e-20)
(1.04649 -0.433167 -6.07939e-21)
(0.0516872 -0.0721376 1.2778e-20)
(1.07307 -0.315633 -3.66867e-21)
(0.937193 0.505814 0)
(0.616721 0.426995 1.54626e-20)
(0.850934 -0.0779619 -7.59421e-21)
(0.38504 -0.313491 8.28603e-21)
(0.972018 -0.229314 -1.23479e-21)
(0.828567 0.484342 -4.81042e-21)
(0.151472 -0.144333 7.87417e-21)
(0.0458381 -0.0719405 1.14356e-20)
(0.93942 0.533966 0)
(1.11551 -0.312038 2.25738e-21)
(0.632895 0.323582 2.50082e-21)
(0.677818 0.351118 0)
(0.74674 -0.153462 8.50327e-21)
(0.789847 -0.175898 -9.09358e-21)
(0.218784 -0.145442 -5.48137e-21)
(0.196241 -0.141596 0)
(0.596426 0.316431 2.43732e-21)
(0.732743 -0.126385 0)
(0.256182 -0.172541 -2.60265e-21)
(0.744354 0.458129 0)
(0.904557 -0.172578 7.32977e-21)
(0.223831 -0.193325 -1.81465e-21)
(0.869174 -0.510399 4.61761e-21)
(0.983396 0.230787 -3.71333e-21)
(0.110565 0.0903889 1.177e-20)
(0.99028 -0.520182 0)
(1.07993 0.355445 -7.87476e-22)
(0.00589146 0.0141919 0)
(0.0726808 0.0593408 3.81737e-21)
(1.0007 0.271538 2.24438e-21)
(0.908651 -0.500917 2.97411e-21)
(0.822649 -0.359165 2.66109e-23)
(-0.0134397 -0.0102238 1.64271e-25)
(0.754384 0.412075 0)
(0.463245 0.211131 -4.91097e-21)
(0.473375 0.200982 0)
(0.298167 -0.154712 1.27504e-21)
(0.611071 -0.0717724 -1.73201e-20)
(0.274771 -0.131415 -1.61347e-21)
(0.597077 -0.0895078 1.1065e-20)
(0.68089 0.414344 0)
(0.632843 0.383912 1.58591e-21)
(0.290064 -0.222877 -2.11725e-23)
(0.845038 -0.140774 -4.77804e-21)
(0.262162 -0.206855 -1.32754e-20)
(0.80659 -0.118615 1.02099e-20)
(0.75445 -0.44197 0)
(-0.0168069 -0.0213487 -1.14147e-20)
(0.864115 0.343106 0)
(0.993816 -0.513953 3.73941e-21)
(1.09169 0.367333 -7.63412e-22)
(-0.00460964 0.00418408 -3.36482e-21)
(0.490639 0.308072 2.99015e-21)
(0.426092 -0.301536 6.06531e-21)
(0.74846 -0.0323484 -1.3842e-20)
(0.827964 -0.527673 -1.01544e-20)
(0.970002 0.183261 -9.53432e-21)
(0.172815 0.143702 0)
(0.066255 -0.0842759 -1.36646e-20)
(1.06188 -0.301435 3.90225e-21)
(0.923182 0.506534 0)
(0.946622 -0.462999 0)
(0.97438 0.418573 0)
(-0.0225861 -0.0157883 0)
(0.95672 -0.477934 0)
(1.00756 0.408565 -2.8255e-21)
(-0.0229059 -0.0154383 0)
(0.790955 0.433913 4.68048e-21)
(0.909844 -0.226192 -2.63795e-21)
(0.148259 -0.129161 -3.73147e-21)
(0.344628 0.181737 1.42151e-21)
(0.462877 -0.262213 0)
(0.646783 0.030193 -4.7348e-21)
(1.02658 0.442928 -3.62054e-21)
(-0.00903324 -0.0173066 -9.79917e-21)
(1.05929 -0.436443 8.71412e-21)
(0.864499 -0.459039 0)
(0.937124 0.259221 0)
(0.0877544 0.0639231 -1.28068e-20)
(0.0225202 -0.0342043 -3.23168e-21)
(1.01483 -0.37882 -6.29623e-21)
(0.960628 0.433103 -1.08877e-20)
(0.604452 0.374368 -1.61552e-21)
(0.323815 -0.246371 8.89495e-21)
(0.794373 -0.100054 -5.26987e-21)
(0.756466 0.12346 8.4172e-21)
(0.642418 -0.366329 -5.01977e-21)
(0.231032 0.141219 -1.09133e-20)
(0.426754 0.230975 -9.8185e-23)
(0.39488 -0.243054 1.76736e-21)
(0.663942 -0.0252345 5.71953e-21)
(-0.0129352 -0.0119995 3.82615e-21)
(1.04669 -0.459703 -3.72218e-21)
(1.04223 0.429238 -3.66532e-21)
(0.906687 0.426717 2.0793e-21)
(0.97939 -0.332284 1.97228e-21)
(0.0520926 -0.0544577 0)
(0.406382 0.184423 5.32561e-21)
(0.348221 -0.178171 -1.11978e-20)
(0.594743 -0.0347883 9.42578e-21)
(0.940706 0.539188 -3.06259e-21)
(0.0340145 -0.0621604 -5.05806e-21)
(1.1312 -0.320183 -1.41673e-22)
(0.568552 0.266277 3.04664e-21)
(0.674605 -0.136501 0)
(0.228071 -0.132443 0)
(0.61265 0.120368 1.26526e-20)
(0.553947 -0.240958 -3.05136e-21)
(0.207203 0.0636863 0)
(0.819418 -0.462664 0)
(0.91098 0.212796 -8.08943e-21)
(0.128471 0.096891 5.64625e-21)
(0.922288 0.500664 0)
(-0.0112424 -0.0196587 1.55323e-21)
(1.0934 -0.375096 -1.488e-21)
(0.92028 0.513369 -2.62497e-21)
(-0.0053785 -0.0242354 -4.96282e-21)
(1.11097 -0.358912 1.83763e-21)
(0.0267022 -0.0432742 -2.93961e-21)
(1.02968 -0.364364 3.53892e-21)
(0.95631 0.450173 1.00411e-20)
(0.782523 0.109051 3.77099e-21)
(0.653583 -0.397153 1.00826e-20)
(0.257005 0.166816 0)
(-0.0136519 -0.0143251 -1.4228e-21)
(1.0661 -0.370666 1.39489e-21)
(0.879473 0.490161 0)
(0.0188737 0.000510934 0)
(0.979752 -0.440048 3.76106e-21)
(0.996387 0.369569 1.22618e-21)
(-0.0099163 -0.01675 -5.726e-21)
(0.620462 -0.37584 -6.59324e-22)
(0.679791 0.286902 0)
(0.61072 0.364596 6.97772e-22)
(0.689396 -0.295154 0)
(-0.00822006 -0.0083976 -5.73659e-21)
(0.0411556 -0.0660027 1.37744e-25)
(1.09887 -0.324998 4.10641e-22)
(0.945767 0.519882 0)
(-0.020203 -0.0114804 0)
(1.02682 -0.475227 0)
(1.04842 0.425244 -4.39801e-21)
(0.996267 0.475197 3.3113e-21)
(0.99054 0.465054 -2.6787e-21)
(0.00162601 -0.0323656 5.55223e-21)
(1.0825 -0.392284 6.63706e-22)
(0.00630119 -0.0335416 0)
(1.06524 -0.39047 0)
(1.00287 0.350271 -2.41636e-21)
(0.967539 -0.456469 -2.55989e-21)
(0.0239113 0.0107123 0)
(0.214986 0.17751 0)
(0.795003 -0.529286 0)
(0.953247 0.156684 0)
(0.463351 0.164516 -6.64617e-21)
(0.25777 -0.0940814 1.54582e-20)
(0.553272 -0.0973843 -6.14195e-21)
(0.988554 0.302184 -7.0154e-21)
(0.924071 -0.474206 -9.99088e-22)
(0.050088 0.0369907 -1.12569e-20)
(0.0673125 0.0510379 -7.30223e-21)
(0.979606 0.282831 9.75904e-21)
(0.90322 -0.479829 1.38541e-21)
(0.923425 0.54533 -3.78568e-21)
(0.0682498 -0.0907339 -5.47071e-21)
(1.11093 -0.287086 0)
(0.69595 0.433065 0)
(0.867867 -0.142315 -2.17458e-21)
(0.263066 -0.215823 1.30132e-20)
(0.634522 0.360639 0)
(0.784387 -0.128772 -1.06191e-20)
(0.265197 -0.199403 1.05158e-23)
(0.901096 0.291646 9.71621e-21)
(0.871218 -0.410019 -1.27148e-21)
(0.0650337 0.0241129 6.48721e-21)
(0.922114 0.28617 0)
(0.877173 -0.429206 -1.20543e-21)
(0.0674653 0.0342264 -5.93148e-21)
(0.380096 0.157083 0)
(0.354042 -0.164694 1.76622e-20)
(0.565003 -0.0240109 0)
(0.689906 0.370339 0)
(0.808755 -0.174936 5.87228e-21)
(0.199888 -0.154445 -1.97346e-21)
(0.0283426 0.0342733 1.14824e-20)
(0.951004 -0.56323 7.29068e-21)
(1.12082 0.304476 0)
(1.02853 0.388886 5.74517e-23)
(-0.0216182 -0.016048 -3.51089e-21)
(0.921998 -0.491901 -1.22283e-21)
(1.0183 0.3662 2.284e-22)
(-0.0204465 -0.0180745 0)
(0.887301 -0.491752 3.38451e-21)
(0.514413 0.275036 -3.62626e-21)
(0.314992 -0.197966 1.91542e-21)
(0.684858 -0.0811559 1.61614e-22)
(0.89434 -0.453716 -2.21725e-22)
(-0.0210165 -0.0173858 -1.45379e-20)
(0.942285 0.401778 0)
(0.931556 0.451011 -8.82324e-21)
(0.0427971 -0.0542894 0)
(1.01426 -0.340578 0)
(-0.0198361 -0.0199984 5.76129e-21)
(0.843397 -0.466771 1.41585e-21)
(0.937137 0.3697 -1.52518e-21)
(0.491903 0.0926775 -8.87077e-21)
(0.243874 0.010349 -9.33732e-21)
(0.473362 -0.139247 -4.58379e-23)
(0.747528 0.290734 1.51856e-21)
(0.778174 -0.275536 1.40133e-21)
(0.107039 -0.037498 5.94767e-21)
(0.608511 -0.380377 -1.15869e-20)
(0.762724 0.0848741 -1.37941e-20)
(0.294565 0.190222 0)
(-0.00806724 -0.000887612 0)
(0.953667 -0.529877 1.40979e-21)
(1.10605 0.352113 0)
(0.850092 -0.471794 0)
(0.938846 0.241965 0)
(0.103111 0.0778719 0)
(0.0179344 -0.0480841 0)
(0.953692 0.526758 2.64758e-21)
(1.12792 -0.340437 -2.14917e-21)
(0.79107 0.310259 0)
(0.814155 -0.301936 -7.14501e-22)
(0.089577 -0.0304465 -7.27576e-24)
(0.445746 0.144288 6.42002e-21)
(0.264452 -0.0830587 -1.32762e-20)
(0.52801 -0.0903018 0)
(0.98177 -0.517744 5.62398e-21)
(1.08896 0.375872 -2.14083e-21)
(-0.012013 -0.00280141 0)
(0.0119801 -0.0160847 6.73457e-21)
(1.00543 -0.419636 -2.36131e-22)
(0.989038 0.406121 -2.51754e-22)
(0.960191 0.480511 0)
(0.945448 0.476506 -2.24479e-21)
(-0.0171409 -0.0172436 -3.56148e-21)
(-0.0190181 -0.0151382 4.40821e-21)
(1.06925 -0.405801 1.06647e-21)
(1.05106 -0.411268 -8.77104e-22)
(0.74737 0.195554 0)
(0.699865 -0.336034 -9.6094e-21)
(0.14271 0.0555945 -7.20122e-21)
(0.812812 -0.412099 -1.31043e-20)
(0.873051 0.236315 0)
(0.103586 0.0609461 7.85976e-21)
(0.574305 0.134789 7.19783e-21)
(0.552723 -0.206384 -5.17366e-21)
(0.191803 0.0223262 -1.14281e-20)
(0.945779 -0.50746 -3.08105e-21)
(1.06332 0.381309 -2.15568e-21)
(0.928425 -0.517029 1.39707e-21)
(-0.0194517 -0.0124489 3.71883e-21)
(1.07564 0.362421 2.02199e-21)
(-0.0161296 -0.0115127 0)
(0.876585 0.350009 0)
(0.896931 -0.35498 0)
(0.0558412 -0.0207301 -7.34379e-21)
(1.07566 0.390302 -2.44433e-21)
(1.06495 0.391857 6.24808e-21)
(0.992134 -0.504767 -2.01575e-21)
(0.976971 -0.500354 5.38638e-21)
(-0.0174403 -0.00754615 -9.83951e-21)
(-0.0200841 -0.0109592 6.47659e-24)
(0.848264 0.218501 0)
(0.781395 -0.412313 1.2406e-20)
(0.128904 0.0810661 -1.01892e-20)
(0.699371 0.219843 -6.64473e-21)
(0.726838 -0.288629 8.55372e-21)
(0.11524 -0.00212334 0)
(0.948305 0.517642 0)
(-0.000258801 -0.0312923 -6.85734e-22)
(1.11967 -0.362785 -1.76576e-21)
(0.751297 0.216738 -4.88063e-21)
(0.71993 -0.324292 0)
(0.125562 0.0371633 1.19444e-20)
(0.617733 0.162376 -2.89746e-21)
(0.602858 -0.23779 6.07112e-21)
(0.169206 0.018517 -6.62191e-21)
(0.945485 0.492137 0)
(-0.0129858 -0.0199638 0)
(1.09107 -0.391918 2.51309e-21)
(0.800023 0.333865 0)
(0.844758 -0.292632 -1.43969e-21)
(0.0851336 -0.0464308 7.313e-21)
(0.720441 -0.495107 0)
(0.891901 0.111271 0)
(0.289195 0.227552 3.87224e-22)
(0.604101 0.388166 3.96313e-22)
(0.809805 -0.0881233 0)
(0.345733 -0.269325 -6.85156e-21)
(0.903628 -0.564844 -5.18865e-21)
(0.103633 0.0950971 0)
(1.05807 0.238015 0)
(-0.00671655 -0.0112091 1.37796e-20)
(0.585197 -0.29191 5.23742e-22)
(0.575589 0.283651 -4.03748e-22)
(0.772072 0.259636 0)
(0.762218 -0.311901 -5.25002e-21)
(0.10077 0.00152066 0)
(0.979319 0.49983 -5.10625e-21)
(-0.00211275 -0.0311861 -1.8736e-20)
(1.10537 -0.380001 4.49898e-21)
(0.464017 -0.361653 0)
(0.829959 -0.0323576 5.03319e-21)
(0.535407 0.380299 0)
(0.729638 0.42619 0)
(-0.0138061 -0.00743949 3.43002e-21)
(0.870209 -0.346235 0)
(0.282314 0.130146 -7.036e-21)
(0.29737 0.152927 7.19491e-21)
(0.489481 -0.251543 0)
(0.622025 0.059868 -6.02562e-21)
(0.507596 -0.279388 1.127e-20)
(0.653305 0.0555325 4.79926e-21)
(0.570652 0.111598 -6.7731e-21)
(0.523276 -0.204606 -6.96207e-21)
(0.214063 0.0465319 0)
(0.357939 0.173481 -6.2106e-21)
(0.318294 0.146271 0)
(0.417765 -0.224739 0)
(0.61366 0.00658608 0)
(0.437385 -0.221321 6.46226e-21)
(0.598988 0.0282939 -4.18647e-23)
(0.737577 0.246499 -4.1885e-22)
(0.686155 -0.28065 3.77817e-21)
(0.133639 0.0131313 8.15074e-21)
(0.705018 0.205973 1.14151e-20)
(0.685062 -0.292954 0)
(0.139107 0.0284845 0)
(-0.0175889 -0.0160935 0)
(0.885789 -0.509969 0)
(1.05328 0.353095 -1.65919e-21)
(0.554501 0.287295 9.95731e-21)
(0.696867 -0.106089 0)
(0.274536 -0.173603 -3.54311e-21)
(1.06494 0.405248 6.01887e-21)
(1.01521 -0.49282 -2.6281e-21)
(-0.0179246 -0.00751752 5.61984e-21)
(0.917471 0.321011 0)
(0.949038 0.336509 -5.12738e-21)
(0.902652 -0.404006 1.58522e-21)
(0.931358 -0.419844 -4.79772e-21)
(0.048855 0.00989704 8.059e-21)
(0.0382592 0.00848018 7.44184e-21)
(0.541146 0.262361 0)
(0.66867 -0.113337 0)
(0.259102 -0.153033 -1.68288e-21)
(0.732108 0.417621 -3.81613e-21)
(0.865284 -0.181547 0)
(0.202835 -0.165698 -4.33087e-21)
(0.853077 0.303581 2.77648e-21)
(0.849646 -0.363891 0)
(0.0669934 0.00332687 -7.42108e-21)
(0.383909 0.0908317 -6.97025e-21)
(0.474307 -0.0487026 -3.37952e-21)
(0.304726 -0.0809924 -3.57817e-21)
(0.962769 0.309527 0)
(0.916597 -0.449709 0)
(0.0495226 0.0286157 1.19706e-20)
(0.438453 0.167865 0)
(0.287177 -0.121324 -1.95032e-21)
(0.560205 -0.0727671 0)
(0.843442 0.238197 6.33504e-21)
(0.791298 -0.393661 6.88646e-21)
(0.107117 0.051341 1.02326e-21)
(0.73038 0.395934 -3.85228e-21)
(0.848255 -0.194418 -6.69077e-21)
(0.181058 -0.146645 0)
(0.39619 0.116588 6.90859e-21)
(0.377619 0.119037 3.08071e-21)
(0.50286 -0.0569871 -3.29066e-21)
(0.299681 -0.09737 7.08112e-21)
(0.515819 -0.0394516 0)
(0.32295 -0.120723 1.26085e-20)
(0.343954 0.135269 3.11319e-21)
(0.382072 -0.176702 -8.22835e-21)
(0.320451 0.133735 -2.00304e-21)
(0.557739 -0.000584982 0)
(0.427968 -0.206928 -4.1346e-21)
(0.580972 0.0242399 6.90054e-21)
(0.620243 0.300745 -3.61061e-21)
(0.660974 0.309997 0)
(0.721667 -0.160553 -6.42609e-21)
(0.743759 -0.188372 5.01631e-21)
(0.204563 -0.126513 1.58458e-20)
(0.173703 -0.104339 -1.31747e-20)
(0.0420016 -0.0620501 0)
(1.05525 -0.33198 2.11882e-21)
(0.942799 0.484892 5.05729e-21)
(0.316273 0.24075 -1.3093e-20)
(0.856259 0.0903008 -5.75131e-21)
(0.677424 -0.466404 1.1956e-20)
(0.0266487 -0.0513707 6.36355e-21)
(0.0186856 -0.0430835 0)
(1.06967 -0.353508 -1.83298e-21)
(1.05664 -0.369904 -3.23572e-21)
(0.961137 0.488023 -1.27736e-20)
(0.971705 0.470435 6.61166e-21)
(0.430419 0.294679 0)
(0.515166 -0.360521 6.58397e-21)
(0.773498 0.012193 -1.3763e-21)
(0.380251 0.046968 -1.47135e-20)
(0.316384 -0.0391042 0)
(0.420105 -0.0443236 1.15966e-20)
(0.973167 0.331668 2.39746e-21)
(0.938893 -0.444478 5.41674e-21)
(0.0369652 0.0170027 0)
(0.493581 0.234355 0)
(0.28907 -0.166917 1.6035e-21)
(0.638962 -0.0838672 5.61512e-21)
(0.755761 0.403269 0)
(0.866978 -0.211778 0)
(0.160271 -0.131355 1.03872e-21)
(0.904387 0.487359 0)
(0.903547 0.46876 0)
(1.0296 -0.295516 -1.21275e-21)
(0.076702 -0.0878066 7.84626e-21)
(1.01272 -0.303858 3.3083e-21)
(0.0692112 -0.0781939 -1.06232e-20)
(0.907629 0.350793 -5.19944e-21)
(0.919821 -0.376285 -5.10854e-21)
(0.0440184 -0.0116352 -3.51061e-21)
(0.80048 0.439555 -1.87697e-21)
(0.925844 -0.372183 0)
(-0.0164805 -0.00944858 4.20658e-21)
(0.489174 -0.370122 0)
(0.81195 -0.0143622 -4.10078e-21)
(0.495828 0.349695 0)
(0.568116 0.393317 -3.99563e-21)
(0.546806 0.369399 4.34291e-21)
(0.418953 -0.327662 4.25579e-21)
(0.826559 -0.0539601 0)
(0.418869 -0.317003 0)
(0.802556 -0.0510317 0)
(0.979607 0.251219 8.46102e-21)
(0.880207 -0.498917 -1.04448e-20)