/*--------------------------------*- C++ -*----------------------------------*\
  =========                 |
  \\      /  F ield         | OpenFOAM: The Open Source CFD Toolbox
   \\    /   O peration     | Website:  https://openfoam.org
    \\  /    A nd           | Version:  6
     \\/     M anipulation  |
\*---------------------------------------------------------------------------*/
FoamFile
{
    version     2.0;
    format      ascii;
    class       volVectorField;
    location    "0";
    object      U_rec;
}
// * * * * * * * * * * * * * * * * * * * * * * * * * * * * * * * * * * * * * //

dimensions      [0 1 -1 0 0 0 0];

internalField   nonuniform List<vector> 
13046
(
(-0.438677 0.162963 0)
(-0.681512 -0.284561 -5.04016e-21)
(-0.160835 -0.16481 -1.02674e-20)
(-0.408435 0.0550351 0)
(-0.105545 -0.0816115 -9.6398e-21)
(-0.56443 -0.291279 0)
(-0.467244 0.0863881 1.52762e-21)
(-0.645475 -0.341223 2.50796e-21)
(-0.0725151 -0.067538 -1.04237e-20)
(-1.29458 0.583422 3.32632e-21)
(-1.4817 -0.691768 0)
(0.0860616 -0.0231957 6.08018e-21)
(-0.617131 0.226658 -4.84799e-21)
(-0.859126 -0.389293 -7.38717e-21)
(-0.0588719 -0.119074 5.42412e-21)
(-1.21479 0.647589 -4.76761e-21)
(0.0349037 -0.042566 1.44925e-20)
(-1.52774 -0.586001 1.79342e-21)
(-0.177698 0.00382921 0)
(-0.389059 -0.249813 -5.31261e-21)
(-0.423196 -0.0734439 1.59828e-20)
(-1.23153 0.637907 -1.8603e-21)
(0.0502795 -0.0355271 -1.93663e-20)
(-1.52 -0.609339 0)
(-0.349217 0.0679074 6.3048e-21)
(-0.540874 -0.23766 -1.24714e-20)
(-0.168052 -0.142574 0)
(-0.633686 0.265544 -8.70086e-21)
(-0.895864 -0.38598 2.19104e-21)
(-0.0739497 -0.134835 -9.53678e-21)
(-0.453608 0.189838 0)
(-0.713505 -0.268674 0)
(-0.183453 -0.187024 1.04496e-20)
(-0.303686 0.0291982 -7.32466e-21)
(-0.195587 -0.143856 3.62999e-21)
(-0.468231 -0.198838 2.17395e-20)
(-0.30245 0.000690383 -1.12721e-20)
(-0.193605 -0.119374 5.59702e-21)
(-0.430129 -0.193817 -1.10947e-20)
(-0.33975 0.181473 7.6589e-21)
(-0.421721 -0.345727 1.84446e-21)
(-0.672412 -0.148909 -7.75574e-21)
(-0.304996 -0.0820372 5.0836e-21)
(-0.234833 -0.0879901 8.52772e-21)
(-0.313778 -0.148494 0)
(-0.335517 -0.0709815 3.30297e-21)
(-0.19752 -0.0601067 -1.31457e-20)
(-0.341866 -0.181835 -1.62914e-21)
(-0.466718 0.157198 0)
(-0.702792 -0.311922 -3.55789e-22)
(-0.114312 -0.139029 -8.40105e-23)
(-0.694903 -0.537652 1.12102e-20)
(-0.28047 0.191886 0)
(-0.761937 -0.0407386 -9.146e-21)
(-0.78785 -0.595729 -1.59872e-20)
(-0.788535 -0.00516596 -1.46597e-20)
(-0.236068 0.165345 1.13062e-20)
(-1.31087 -0.385457 -1.38116e-21)
(-0.946837 0.581092 0)
(-0.182533 -0.210874 8.09222e-21)
(-0.876446 0.263654 -4.6099e-21)
(-1.08829 -0.607938 3.97083e-21)
(0.045607 -0.0242383 -2.26014e-20)
(0.0804241 -0.0457926 1.13239e-20)
(-1.4273 -0.663674 -1.81262e-21)
(-1.19443 0.518667 -6.41625e-21)
(-0.884445 0.562998 0)
(-1.24263 -0.331528 0)
(-0.247876 -0.265754 0)
(-0.828763 0.526792 -3.22876e-21)
(-1.18551 -0.312495 0)
(-0.269247 -0.281909 6.46227e-21)
(-1.3687 -0.397516 0)
(-0.99954 0.613011 9.03607e-23)
(-0.16266 -0.199952 -5.82997e-23)
(-0.19426 0.0299469 0)
(-0.387993 -0.26703 5.69173e-21)
(-0.463964 -0.0983092 -1.13286e-20)
(-0.0846778 -0.135924 8.83466e-21)
(-1.07511 0.637023 -9.35033e-21)
(-1.43826 -0.46107 0)
(-0.387181 0.0823465 3.34294e-21)
(-0.57762 -0.265806 0)
(-0.132815 -0.11771 0)
(0.0818231 -0.0406964 -1.0093e-20)
(-1.457 -0.670515 -1.16385e-21)
(-1.23195 0.545354 3.77014e-21)
(-1.23783 0.417586 -6.78539e-21)
(0.0953589 -0.0301605 0)
(-1.37786 -0.771515 -1.45621e-21)
(0.0433172 -0.0128527 0)
(-1.32326 0.330614 0)
(-1.34887 -0.887265 1.63388e-22)
(-0.920304 0.401098 0)
(-0.982417 0.417893 3.9542e-21)
(-1.19555 -0.533387 7.47553e-21)
(-1.24677 -0.575984 -3.47244e-21)
(0.0150515 -0.0905716 -4.73873e-21)
(0.0417487 -0.0723233 1.22262e-20)
(0.086904 -0.025263 -5.78276e-22)
(-1.22508 0.387613 6.63755e-21)
(-1.35208 -0.791318 0)
(-0.352561 -0.0398525 -1.45588e-23)
(-0.166539 -0.0598156 6.78561e-21)
(-0.398809 -0.219301 0)
(-0.134456 0.0967729 0)
(-0.690655 0.0312039 -4.64344e-21)
(-0.755169 -0.523368 0)
(-0.265964 0.168563 1.30106e-20)
(-0.605022 -0.458846 0)
(-0.691173 -0.0709106 -1.77219e-20)
(-1.23869 0.581337 0)
(0.0677485 -0.0098646 0)
(-1.35555 -0.663814 6.23416e-22)
(-0.54719 0.191903 1.33805e-20)
(-0.793768 -0.355838 3.2504e-21)
(-0.0731627 -0.117046 1.00271e-20)
(-0.999349 0.489603 5.0476e-21)
(-0.933432 0.442835 -9.56259e-21)
(-1.29673 -0.525421 -6.264e-21)
(-0.00729657 -0.101869 5.42316e-21)
(-1.22467 -0.506076 3.57938e-21)
(-0.0121384 -0.106761 -5.06557e-21)
(-1.28677 0.598782 -2.21851e-21)
(-1.47551 -0.680382 -6.35023e-22)
(0.0807757 -0.0178306 -2.71077e-21)
(-0.787758 0.343826 0)
(-1.05891 -0.462619 -5.35743e-21)
(-0.0299626 -0.11985 1.14404e-20)
(-0.39351 0.206295 0)
(-0.361051 -0.311331 -9.35729e-21)
(-0.707434 -0.186407 4.4225e-22)
(0.0320896 -0.00269174 0)
(-1.26958 0.304887 0)
(-1.32461 -0.870733 0)
(-1.09446 0.434397 0)
(-1.32448 -0.656522 -8.6214e-21)
(0.0792056 -0.0483445 -1.29994e-20)
(-0.516066 0.221747 0)
(-0.779339 -0.300949 0)
(-0.165178 -0.190158 0)
(-0.636878 0.130907 0)
(-0.820986 -0.478195 0)
(-0.0206345 -0.0147787 0)
(-0.240728 0.160476 0)
(-0.671062 -0.500872 0)
(-0.709471 -0.0408685 9.58394e-21)
(-0.131752 0.0831894 -1.32307e-21)
(-0.658843 0.0234421 -1.01435e-20)
(-0.730641 -0.497746 1.03429e-20)
(-0.929622 0.293654 1.04527e-20)
(-1.13846 -0.625127 0)
(0.0587194 -0.034171 2.93246e-20)
(-0.0929072 0.0251366 0)
(-0.552796 0.0272564 1.09505e-20)
(-0.644373 -0.411131 -2.68208e-21)
(-0.943774 -0.671139 0)
(-0.850242 0.0865145 1.04709e-20)
(-1.01892 -0.701724 0)
(-0.898465 0.132857 6.03174e-21)
(-0.127684 0.104851 0)
(-0.077936 0.0745473 0)
(-0.671318 0.091641 1.40849e-21)
(-0.811336 -0.516154 5.38939e-21)
(-0.0485567 0.0248776 -5.74283e-21)
(-1.31855 0.561806 -3.40966e-21)
(0.0929442 -0.0267093 0)
(-1.45657 -0.720363 -1.82598e-21)
(-1.2617 0.591799 -1.71464e-21)
(0.0727279 -0.00999199 -1.24162e-21)
(-1.41432 -0.6685 0)
(-1.11898 0.464243 -5.59082e-21)
(-1.35318 -0.652561 0)
(0.0772681 -0.0509528 1.47702e-20)
(-0.505321 0.298404 0)
(-0.839884 -0.204673 2.35284e-21)
(-0.393196 -0.352694 5.33263e-21)
(-0.638475 0.0662101 9.19722e-21)
(-0.0740923 0.0439925 2.79609e-21)
(-0.758229 -0.484396 0)
(0.0998809 -0.0327997 0)
(-1.43985 -0.770877 0)
(-1.33676 0.507014 2.73802e-21)
(-0.447294 0.262374 0)
(-0.782113 -0.181281 -5.21679e-21)
(-0.408828 -0.34789 1.4008e-21)
(-0.0926804 0.0410081 0)
(-0.576477 0.028093 0)
(-0.662718 -0.431614 0)
(-0.585774 0.0995738 4.55575e-21)
(-0.761042 -0.445538 0)
(-0.0329779 -0.0194399 0)
(-0.940975 -0.451464 3.87251e-24)
(-0.0138403 -0.0914085 -6.78696e-21)
(-0.73526 0.307735 1.37643e-20)
(-1.00587 -0.442179 0)
(-0.0344482 -0.116214 -1.43345e-20)
(-1.26236 0.487864 -6.69939e-21)
(0.0997531 -0.0352326 9.17978e-21)
(-1.43083 -0.737646 -5.98938e-21)
(0.0564203 -0.00875537 8.44306e-21)
(-1.21853 0.326518 4.2695e-21)
(-1.3186 -0.829468 7.4262e-21)
(-1.30968 0.383168 -1.08161e-20)
(-1.37948 -0.834386 0)
(0.0791821 -0.0253346 -8.28584e-21)
(-0.741031 -0.594847 -5.64225e-22)
(-0.848786 -0.0474276 4.03955e-21)
(-0.355256 0.257044 0)
(-0.578035 0.155424 -2.04809e-20)
(-1.05738 0.650209 4.87875e-21)
(-0.113679 -0.154229 -5.43739e-21)
(-1.43788 -0.44709 0)
(-1.39482 -0.834548 0)
(-1.3396 0.418988 -8.99371e-21)
(0.0873808 -0.0315142 0)
(-0.340774 -0.00279244 -1.65684e-20)
(-0.156346 -0.0852576 -5.49729e-21)
(-0.445696 -0.227256 1.62299e-20)
(-0.602457 0.271658 0)
(-0.874728 -0.357445 -3.2016e-22)
(-0.117702 -0.160636 -5.50538e-21)
(0.0391337 -0.00134537 6.5058e-21)
(-1.22643 0.308609 0)
(-1.30851 -0.84982 -8.56128e-21)
(-0.633978 0.188886 1.63678e-20)
(-0.918198 -0.459909 1.32041e-20)
(-0.00681023 -0.0780446 0)
(0.0870867 -0.0242032 0)
(-1.4064 -0.721109 4.26153e-22)
(-1.32227 0.561346 0)
(-0.302534 0.220317 0)
(-0.847585 -0.0199737 0)
(-0.797273 -0.634287 0)
(-1.26037 0.367591 9.48539e-21)
(-1.35852 -0.815139 0)
(0.0780453 -0.0221352 -4.99819e-23)
(-0.778134 0.112403 4.00896e-21)
(-0.915902 -0.607363 -3.95566e-21)
(-0.0539968 0.0500569 0)
(-0.786882 0.368585 0)
(-1.06896 -0.443393 5.02454e-21)
(-0.0567396 -0.135248 8.9889e-21)
(-1.21652 -0.856116 -1.19603e-20)
(-1.13943 0.207035 -7.84256e-21)
(-0.0464421 0.0526534 5.1263e-21)
(-0.96565 0.148848 0)
(-1.07872 -0.749589 -5.12006e-21)
(-0.0780378 0.0746148 -1.88506e-22)
(0.0845196 -0.0283558 -8.03048e-21)
(-1.37701 -0.730645 0)
(-1.33348 0.543921 -1.34342e-21)
(-0.359855 0.225021 6.9901e-21)
(-0.538916 -0.430859 -6.68523e-21)
(-0.744898 -0.120195 7.58057e-22)
(-1.14899 0.618968 1.41104e-21)
(0.0530476 0.00880819 -1.16275e-20)
(-1.37465 -0.58148 0)
(-0.146743 -0.0217133 -3.24313e-21)
(-0.406364 -0.0420548 -1.29112e-20)
(-0.433162 -0.262852 1.59192e-20)
(-0.787295 0.167619 4.72366e-21)
(-0.748532 0.12236 3.0744e-23)
(-0.963644 -0.58966 -9.77952e-21)
(-0.89817 -0.579083 0)
(-0.0362558 0.0323911 5.22044e-21)
(0.00192586 0.00761554 -5.36504e-21)
(-0.054374 -0.109698 -1.15636e-20)
(-1.11476 0.649443 5.04422e-21)
(-1.48288 -0.481529 -5.28682e-21)
(-0.730963 0.354391 0)
(-1.01802 -0.399681 0)
(-0.103552 -0.161962 -1.17935e-20)
(-1.02965 0.188296 -2.10981e-21)
(-1.13852 -0.787041 0)
(-0.0462151 0.055365 0)
(-1.05325 0.468518 -4.8423e-21)
(-1.31729 -0.587208 0)
(0.0449066 -0.0715814 5.32985e-21)
(-0.272994 -0.0622892 3.38557e-21)
(-0.330946 -0.132558 4.96814e-21)
(-0.249822 -0.11467 -1.69493e-21)
(-0.870263 0.15059 -7.67952e-21)
(-1.01313 -0.671988 0)
(-0.040221 0.0498652 -8.83207e-21)
(-0.747899 0.380559 0)
(-1.04538 -0.390256 6.28427e-21)
(-0.123349 -0.177055 -7.47281e-21)
(-0.667422 0.225716 0)
(-0.729662 0.257404 1.62127e-21)
(-0.3783 0.242559 2.51162e-21)
(-0.560244 -0.453251 1.93319e-20)
(-0.771108 -0.112579 -1.80608e-20)
(-0.918387 0.189628 -7.83732e-21)
(-1.06765 -0.693022 7.97006e-21)
(-0.00514297 0.0283107 8.05937e-21)
(-1.09647 0.480887 0)
(0.0610396 -0.0609121 -1.89072e-20)
(-1.35739 -0.618011 -3.9534e-21)
(-0.261724 0.150977 -1.80235e-20)
(-0.561268 -0.431305 0)
(-0.662734 -0.075388 5.96069e-21)
(-0.159321 0.128095 -1.04002e-20)
(-0.875066 0.0754896 -5.9781e-21)
(-0.949754 -0.699148 0)
(-0.914075 0.481507 -4.86717e-21)
(-1.22997 -0.444566 -5.1587e-21)
(-0.0842188 -0.149633 3.33661e-21)
(-0.330905 0.225018 9.02687e-22)
(-0.657277 -0.518585 0)
(-0.780894 -0.0644565 1.26605e-20)
(-0.968269 0.51627 0)
(-1.00605 0.522855 0)
(-1.29196 -0.469449 -3.09202e-21)
(-0.0675657 -0.137474 -8.70385e-21)
(-1.32148 -0.507125 4.37465e-21)
(-0.0324655 -0.113116 9.21976e-21)
(0.100052 -0.0323809 -7.05549e-21)
(-1.44759 -0.748782 0)
(-1.31359 0.522049 -4.38151e-21)
(-0.873723 0.422255 5.69807e-21)
(-1.16657 -0.472215 0)
(-0.0434088 -0.126029 3.04786e-21)
(-1.19963 -0.609239 -3.8373e-21)
(0.0454856 -0.00212525 1.01977e-20)
(-1.11133 0.560457 8.72272e-22)
(-0.498171 -0.0160008 -6.03042e-21)
(-0.122678 0.0237533 0)
(-0.545714 -0.350519 0)
(-0.802692 0.237011 1.09884e-20)
(-1.02204 -0.560379 0)
(0.0348609 -0.0336794 1.74789e-20)
(0.0952046 -0.0390938 -5.84972e-21)
(-1.21289 0.475636 1.39147e-20)
(-1.40522 -0.709652 5.05663e-21)
(-0.822724 -0.625732 0)
(-0.81754 0.00448079 5.36853e-21)
(-0.237994 0.178871 -1.28143e-20)
(-1.24981 -0.859216 -1.3813e-20)
(-1.1734 0.24325 -4.69003e-21)
(-0.0115745 0.0284098 0)
(-0.81949 -0.415556 -1.37731e-20)
(-0.0278592 -0.0738484 0)
(-0.851192 0.306231 1.16231e-20)
(-1.08028 -0.542741 4.49054e-21)
(0.035621 -0.0671272 5.30039e-21)
(-0.808517 -0.435816 7.98732e-21)
(-0.0186377 -0.0562783 -3.59299e-23)
(-1.19408 0.630839 -3.18988e-22)
(0.0245497 -0.0554263 6.84905e-21)
(-1.5091 -0.571212 -2.63847e-21)
(-0.722279 -0.606597 0)
(-0.886494 -0.0668562 1.2502e-21)
(-0.4082 0.294067 0)
(-0.907092 0.337085 -1.18461e-20)
(-1.15153 -0.571826 -5.47147e-21)
(0.0496158 -0.059651 -6.3673e-21)
(-0.663248 0.125178 0)
(-0.830755 -0.505925 -7.82633e-21)
(-0.0243147 0.00114453 0)
(-0.70761 0.00200739 0)
(-0.727108 -0.533238 0)
(-0.18616 0.124978 0)
(-0.442439 0.122203 -4.62541e-21)
(-0.650515 -0.302453 -7.79442e-21)
(-0.111129 -0.122121 -8.15648e-24)
(-0.201056 0.157476 1.28876e-20)
(-0.85813 0.0444362 1.447e-20)
(-0.902206 -0.67591 7.65479e-21)
(-1.28548 0.451935 -5.44582e-21)
(-1.4092 -0.769943 4.98756e-21)
(0.10013 -0.0328779 -8.69482e-21)
(-1.25963 -0.836392 9.46431e-21)
(-1.15943 0.261023 4.75495e-21)
(0.0122843 0.0172464 6.58466e-21)
(-0.713115 0.462439 -9.94036e-21)
(-0.365729 -0.347918 9.71184e-21)
(-1.0767 -0.253 -7.50406e-21)
(-1.04285 0.589361 2.75953e-21)
(-0.996687 0.55948 -2.58616e-21)
(-1.33548 -0.451162 -9.82779e-22)
(-1.38561 -0.468193 0)
(-0.075128 -0.134044 -3.14107e-21)
(-0.0934903 -0.151395 -2.81845e-21)
(0.0508439 0.00199236 -1.38156e-20)
(-1.25464 -0.601096 4.22811e-21)
(-1.13017 0.5693 1.10049e-21)
(-1.16828 0.629376 -1.17742e-22)
(0.0549859 0.00779921 1.60867e-20)
(-1.41739 -0.58363 0)
(-0.8504 0.198616 -1.75527e-20)
(-1.03493 -0.624896 -2.09366e-21)
(0.0133501 0.00661427 0)
(0.0990154 -0.0340443 -1.76692e-20)
(-1.28217 0.510803 4.35998e-21)
(-1.44879 -0.731296 0)
(-0.830144 0.491334 1.43444e-20)
(-0.883204 0.51165 -1.06736e-20)
(-1.16853 -0.358361 5.70729e-21)
(-1.21791 -0.388719 2.12027e-21)
(-0.207842 -0.233189 -5.56706e-21)
(-0.162163 -0.199656 -2.7907e-21)
(0.0826463 -0.0405264 0)
(-1.37842 -0.846813 0)
(-1.40005 0.416826 1.43825e-21)
(-1.07774 0.612178 -1.65684e-21)
(0.0468064 0.0155196 0)
(-1.33015 -0.550154 0)
(-0.405361 -0.116055 1.67407e-23)
(-0.218568 -0.00173335 7.24689e-21)
(-0.304349 -0.19873 3.54481e-21)
(-1.17793 0.589293 -2.11112e-21)
(-1.33971 -0.628961 -9.1178e-22)
(0.0587386 -0.000251738 7.55957e-22)
(-0.578897 0.327698 0)
(-0.894805 -0.255398 -1.05316e-20)
(-0.30899 -0.297115 -8.87329e-23)
(-1.34108 0.490057 1.71009e-22)
(-1.42893 -0.787941 5.63592e-21)
(0.100308 -0.0337601 1.03927e-23)
(-1.05935 -0.613119 -1.0264e-22)
(0.0387886 -0.0158545 -5.90736e-21)
(-1.08582 0.475623 2.93381e-22)
(-0.283179 0.143203 -6.61252e-21)
(-0.434152 -0.337303 6.03708e-21)
(-0.616896 -0.123693 1.90261e-20)
(-0.430289 -0.0068095 0)
(-0.510152 -0.300731 -1.76687e-20)
(-0.116791 -0.0252796 8.87072e-21)
(-1.26671 0.621474 0)
(0.0733456 -0.0145998 8.08357e-21)
(-1.48618 -0.661144 -1.85946e-22)
(-0.463197 0.00849543 0)
(-0.550771 -0.328688 -6.06425e-21)
(-0.100407 -0.00692895 -1.2586e-20)
(-0.372366 -0.110515 7.51242e-21)
(-0.222341 -0.0268064 -3.83082e-21)
(-0.295739 -0.17628 1.89003e-21)
(-0.286835 0.215464 6.22217e-21)
(-0.891227 0.00694308 -5.01925e-21)
(-0.875475 -0.696333 8.41311e-21)
(-0.483524 -0.0750976 0)
(-0.436158 -0.292056 0)
(-0.174483 0.0474997 1.05841e-21)
(-0.507034 -0.0370145 9.54334e-21)
(-0.508577 -0.332117 4.61683e-21)
(-0.151188 0.0465611 1.4895e-22)
(-0.657666 0.430401 1.51114e-20)
(-1.01807 -0.222718 -7.8358e-21)
(-0.420111 -0.391643 -9.63074e-21)
(0.0744252 -0.029574 1.22269e-20)
(0.0830907 -0.0283975 -1.24687e-20)
(-1.50162 -0.663506 1.3339e-21)
(-1.48912 -0.682168 1.0357e-21)
(-1.26274 0.605832 0)
(-1.27868 0.592119 -3.40599e-21)
(-1.3167 0.457078 6.80664e-21)
(-1.41892 -0.78541 -3.82902e-21)
(0.0998945 -0.0332992 1.07877e-20)
(-0.351653 -0.346592 -6.21416e-21)
(-0.768066 0.508213 3.10595e-21)
(-1.13386 -0.265598 9.5634e-21)
(-0.386404 0.228811 -6.38195e-21)
(-0.469415 -0.385415 -6.13743e-21)
(-0.741917 -0.147045 5.86712e-21)
(-0.984733 0.121939 0)
(-1.06878 -0.777732 5.29959e-21)
(-0.126255 0.104211 1.94826e-22)
(-1.17733 -0.702489 -1.78539e-22)
(0.0627932 -0.0374387 -5.52062e-21)
(-1.27192 0.476185 -4.91106e-22)
(0.0612231 -0.0222109 0)
(-1.33946 0.360795 0)
(-1.36186 -0.877473 2.74106e-21)
(-1.2895 0.581706 2.3198e-21)
(0.0810289 -0.0174471 0)
(-1.43163 -0.69519 -4.19514e-22)
(0.0304876 -0.00886256 -2.20076e-32)
(-0.994557 -0.576624 2.5289e-21)
(-1.00679 0.462688 -5.64767e-22)
(-1.03966 -0.513083 -2.86733e-21)
(0.0290392 0.00518905 2.19549e-32)
(-0.95528 0.523865 4.79859e-22)
(-1.17628 -0.701039 -1.05565e-20)
(-1.00065 0.27459 0)
(0.0479328 -0.00605418 -1.69726e-20)
(-1.32677 -0.804585 -2.62372e-22)
(0.0813659 -0.0480962 -5.65645e-21)
(-1.40847 0.451026 0)
(-1.12678 0.426599 -7.22231e-21)
(-1.33281 -0.687937 5.2677e-21)
(0.0869555 -0.0414034 8.71233e-21)
(-1.20607 0.681746 9.03554e-21)
(0.0279268 -0.025293 4.85301e-21)
(-1.55533 -0.55295 0)
(-0.54091 0.161801 3.6034e-21)
(-0.0510937 -0.0897179 -3.43958e-21)
(-0.779687 -0.382083 3.35381e-21)
(-1.37962 -0.860984 1.30076e-21)
(0.0780663 -0.0358502 6.00667e-21)
(-1.38572 0.400132 1.88021e-21)
(-0.946719 0.0970351 -5.82023e-21)
(-0.156919 0.126726 -3.50515e-21)
(-1.02303 -0.752716 0)
(-1.15891 -0.778458 0)
(-1.03664 0.213737 0)
(-0.0135801 0.037121 0)
(0.00813577 0.00289966 0)
(-0.597401 -0.313574 3.51942e-21)
(-0.584362 0.293072 -1.57331e-21)
(-1.19027 -0.638062 -1.23433e-21)
(0.0491857 -0.0107273 -7.12667e-21)
(-1.14673 0.541137 -7.73522e-22)
(-0.485871 0.125584 -9.25809e-21)
(-0.0720216 -0.0924426 8.28537e-21)
(-0.699497 -0.348417 3.98057e-21)
(-1.40057 -0.810302 3.77375e-21)
(-1.38213 0.462787 -2.74581e-21)
(0.0932878 -0.0389723 0)
(0.0794707 -0.0447922 -6.26888e-21)
(-1.41996 0.418821 0)
(-1.35494 -0.849813 -2.84576e-21)
(-1.26187 0.541667 -4.00636e-21)
(0.0904561 -0.0354248 1.88518e-20)
(-1.46431 -0.69652 0)
(-0.0105729 -0.0828488 -1.39919e-20)
(-1.47417 -0.532612 3.7631e-21)
(-1.13926 0.622274 0)
(-0.631601 0.434158 -1.90054e-20)
(-1.00841 -0.19828 9.98203e-21)
(-0.487039 -0.444018 -3.04668e-21)
(-1.29476 -0.4154 1.46897e-21)
(-0.948506 0.557998 6.1779e-21)
(-0.146584 -0.188386 -8.63908e-21)
(-0.013108 -0.0723579 -1.24925e-20)
(-1.16689 0.670004 0)
(-1.53344 -0.521952 0)
(-0.617783 0.321446 -3.17942e-21)
(-0.687117 0.361152 0)
(-0.914422 -0.310356 -1.09292e-20)
(-0.993074 -0.343711 1.16944e-20)
(-0.210246 -0.224147 1.55051e-21)
(-0.181756 -0.213103 -1.65201e-21)
(-0.567269 0.307309 3.051e-21)
(-0.873984 -0.272596 0)
(-0.268214 -0.263651 2.9282e-21)
(-0.815058 0.504325 0)
(-1.16266 -0.335856 -9.23248e-21)
(-0.247829 -0.263016 2.0074e-21)
(-1.22585 -0.807273 -4.91912e-21)
(-1.11305 0.247917 5.13409e-21)
(0.0115078 0.0186116 -1.3435e-20)
(-1.40384 -0.822688 0)
(-1.33302 0.442784 9.89461e-21)
(0.0942344 -0.033441 0)
(0.052351 -0.00556516 -4.34392e-21)
(-1.15498 0.307051 -3.06889e-21)
(-1.28286 -0.798498 -3.14037e-21)
(-1.10957 -0.522749 4.33529e-22)
(0.0341044 0.00850563 3.79982e-21)
(-0.998324 0.547765 0)
(-0.366612 0.169992 6.13541e-21)
(-0.375815 0.158749 0)
(-0.304337 -0.259362 0)
(-0.655806 -0.195517 2.27817e-20)
(-0.26001 -0.229724 0)
(-0.648726 -0.219611 -1.45449e-20)
(-0.712615 0.436892 0)
(-0.637468 0.389153 0)
(-0.3363 -0.321164 1.80815e-23)
(-1.05196 -0.291282 6.21659e-21)
(-0.297517 -0.291535 1.47428e-20)
(-0.977264 -0.258739 -1.33897e-20)
(-1.03579 -0.636218 0)
(0.0435079 -0.0262652 8.07686e-21)
(-1.13855 0.461373 0)
(-1.40682 -0.802598 -2.78292e-21)
(-1.36672 0.464472 9.70714e-22)
(0.0961755 -0.0362908 3.78373e-21)
(-0.437704 0.277687 -1.08185e-20)
(-0.536692 -0.450618 -6.8664e-21)
(-0.815393 -0.137421 1.86193e-20)
(-1.16776 -0.824534 1.07979e-20)
(-1.07816 0.181552 1.32212e-20)
(-0.0638285 0.0663199 0)
(-0.0305611 -0.099104 1.49621e-20)
(-1.45306 -0.513958 -4.00115e-21)
(-1.11405 0.618003 6.42606e-21)
(-1.30907 -0.688729 0)
(-1.26835 0.549275 0)
(0.0686065 -0.0196202 0)
(-1.33108 -0.718302 0)
(-1.30389 0.534134 1.76289e-21)
(0.0770778 -0.0281472 1.36225e-21)
(-0.87555 0.486106 -6.02179e-21)
(-1.19963 -0.413464 3.18668e-21)
(-0.129742 -0.178889 4.12711e-21)
(-0.224221 0.126909 -1.71909e-21)
(-0.570643 -0.419223 0)
(-0.630197 -0.0545996 -9.18298e-23)
(-1.28173 0.561209 4.66813e-21)
(0.0896917 -0.0315809 1.09114e-20)
(-1.48078 -0.697318 -1.20576e-21)
(-1.20436 -0.737501 0)
(-1.04514 0.2809 0)
(0.0464761 0.000784633 1.46493e-20)
(0.0615737 -0.0570215 3.61556e-21)
(-1.40454 -0.627998 6.58726e-21)
(-1.14622 0.524835 1.43878e-20)
(-0.598384 0.372726 0)
(-0.386916 -0.357045 -9.97092e-21)
(-0.942008 -0.232873 6.9605e-21)
(-0.753009 0.0786602 1.045e-22)
(-0.856886 -0.58352 5.80033e-21)
(-0.0978213 0.076101 0)
(-0.332733 0.187207 5.41034e-23)
(-0.473289 -0.380954 -2.05164e-21)
(-0.687857 -0.130445 -7.68454e-21)
(0.0957064 -0.0300735 7.85898e-24)
(-1.46508 -0.728064 2.45497e-21)
(-1.30867 0.546837 4.58502e-21)
(-1.05283 0.50282 -2.74307e-21)
(-1.34051 -0.563346 -2.24625e-21)
(0.0210433 -0.0830784 0)
(-0.291396 0.134994 -6.65377e-21)
(-0.3803 -0.298286 1.32365e-20)
(-0.602523 -0.144648 -1.2558e-20)
(-1.18306 0.685382 3.81753e-21)
(-0.00130681 -0.0555956 5.50811e-21)
(-1.55579 -0.528659 -1.58422e-21)
(-0.514982 0.244903 -3.89951e-21)
(-0.794802 -0.284847 0)
(-0.207009 -0.218053 0)
(-0.551808 0.0653827 -1.69624e-20)
(-0.68584 -0.412883 3.70035e-21)
(-0.0591602 -0.00023717 0)
(-1.14024 -0.736527 0)
(-0.991693 0.214321 1.12063e-20)
(0.00367265 0.028147 0)
(-1.19488 0.654691 -1.59369e-21)
(0.051377 0.000382094 -1.71297e-21)
(-1.4976 -0.583343 -5.00897e-22)
(-1.18926 0.669807 4.48492e-21)
(0.0430554 -0.00325147 0)
(-1.52139 -0.564166 -4.60551e-22)
(0.0471551 -0.062056 3.22988e-21)
(-1.42287 -0.606289 -3.53986e-21)
(-1.14709 0.547517 -1.32588e-20)
(-0.788708 0.0612885 -5.2139e-21)
(-0.883521 -0.625263 -5.82752e-21)
(-0.135767 0.100135 0)
(0.049054 0.0101883 1.5693e-21)
(-1.45171 -0.568558 4.59375e-22)
(-1.1455 0.642989 0)
(0.0938547 -0.0375437 0)
(-1.37038 -0.715084 -3.71757e-21)
(-1.18397 0.44312 -1.64908e-21)
(0.0222797 -0.0103664 6.48411e-21)
(-0.844526 -0.534797 -2.34112e-21)
(-0.909134 0.393778 0)
(-0.812345 0.4914 1.76742e-22)
(-0.931473 -0.432556 0)
(0.0211294 0.0107503 6.4719e-21)
(-0.00127278 -0.0693414 -2.38202e-23)
(-1.51182 -0.54319 0)
(-1.16753 0.649904 0)
(0.0932569 -0.0277928 0)
(-1.43814 -0.738163 0)
(-1.33532 0.548478 5.28797e-21)
(-1.24218 0.600024 -4.25796e-21)
(-1.21952 0.580613 3.44428e-21)
(0.0651133 -0.0378455 -6.1414e-21)
(-1.504 -0.635728 -5.10005e-22)
(0.0653752 -0.0437616 -1.00275e-20)
(-1.48077 -0.637018 1.21192e-21)
(-1.18614 0.416968 3.27906e-21)
(-1.35731 -0.738173 2.57806e-21)
(0.0935557 -0.0332199 0)
(-0.11537 0.100028 0)
(-1.11788 -0.820779 0)
(-1.04515 0.143628 0)
(-0.356976 0.115723 0)
(-0.209674 -0.18506 -1.84251e-20)
(-0.593467 -0.228081 7.93996e-21)
(-1.14455 0.347459 9.66595e-21)
(-1.29718 -0.762112 1.0536e-21)
(0.076715 -0.0193315 1.27622e-20)
(0.0618648 -0.0097495 8.30918e-21)
(-1.12361 0.320111 -1.34494e-20)
(-1.26735 -0.769667 -1.45986e-21)
(-1.13927 0.678323 4.81846e-21)
(-0.0451877 -0.0962896 5.9691e-21)
(-1.52194 -0.487177 5.51743e-21)
(-0.739137 0.461214 0)
(-1.08805 -0.292821 2.75503e-21)
(-0.303233 -0.30035 -1.44523e-20)
(-0.633779 0.36509 0)
(-0.95092 -0.274905 1.38263e-20)
(-0.293689 -0.29123 -4.48893e-23)
(-0.998305 0.319279 -1.32782e-20)
(-1.202 -0.671296 1.43077e-21)
(0.0689699 -0.0290279 -7.40633e-21)
(-1.02991 0.314903 0)
(-1.21568 -0.696772 1.34989e-21)
(0.0670054 -0.0212368 6.77258e-21)
(-0.254754 0.102742 0)
(-0.378587 -0.285154 -2.09231e-20)
(-0.552397 -0.128987 7.0495e-21)
(-0.710905 0.38624 0)
(-1.01913 -0.340559 0)
(-0.19396 -0.226009 2.21947e-21)
(0.0660726 -0.0321115 -1.29992e-20)
(-1.36097 -0.878716 -7.36742e-21)
(-1.38775 0.377757 0)
(-1.33161 0.510502 1.56427e-21)
(0.0761288 -0.0358669 0)
(-1.28524 -0.735721 2.64351e-23)
(-1.32256 0.481731 -4.01894e-22)
(0.0706872 -0.0403551 0)
(-1.23957 -0.730186 2.21658e-22)
(-0.450205 0.247181 4.54508e-21)
(-0.354157 -0.308055 -2.18439e-21)
(-0.766403 -0.208865 -2.13952e-22)
(-1.23148 -0.665349 3.39983e-22)
(0.0598558 -0.0202402 1.09126e-20)
(-1.23223 0.530123 0)
(-1.10403 0.542303 1.16029e-20)
(0.0244797 -0.0760364 6.8566e-21)
(-1.39378 -0.573613 0)
(0.0566564 -0.0290628 -1.62402e-21)
(-1.16612 -0.682392 9.70691e-22)
(-1.22655 0.490484 0)
(-0.395284 0.0259054 1.15241e-20)
(-0.118366 -0.0635968 1.12918e-20)
(-0.517981 -0.275237 1.19693e-23)
(-0.767093 0.296857 -2.02243e-21)
(-1.02517 -0.482536 -1.71451e-21)
(-0.0014925 -0.0923572 -7.76633e-21)
(-0.811394 -0.593247 1.32873e-20)
(-0.765169 0.0271761 1.24617e-20)
(-0.181285 0.127821 0)
(0.0850786 -0.0451364 0)
(-1.35342 -0.814381 -5.77483e-22)
(-1.40742 0.452543 0)
(-1.18513 -0.753571 0)
(-1.0431 0.257561 0)
(0.0290125 0.0119359 0)
(0.0219636 -0.0395365 0)
(-1.20635 0.673505 -3.20254e-21)
(-1.55411 -0.554936 1.55778e-21)
(-0.836443 0.328572 0)
(-1.08557 -0.51978 8.85292e-22)
(0.0190034 -0.0817894 7.58764e-21)
(-0.332778 0.0903999 0)
(-0.208003 -0.174664 1.58365e-20)
(-0.552601 -0.216518 0)
(-1.38912 -0.801495 -3.56299e-21)
(-1.38201 0.483088 2.61113e-21)
(0.0920881 -0.0401831 0)
(0.0875647 -0.04383 -7.508e-21)
(-1.40124 -0.685312 2.34651e-22)
(-1.1854 0.493881 3.57505e-22)
(-1.24029 0.626383 0)
(-1.22518 0.623285 2.39763e-21)
(0.0655061 -0.00565977 -3.97839e-21)
(0.0648629 -0.00265791 -4.88026e-21)
(-1.47156 -0.626685 2.33673e-23)
(-1.44416 -0.629974 -1.91822e-23)
(-0.743645 0.174724 0)
(-0.930512 -0.556472 2.2894e-20)
(0.00402098 -0.00734668 8.3856e-21)
(-1.11737 -0.667151 1.48319e-20)
(-0.939793 0.24118 0)
(0.036678 -0.00128319 -9.04567e-21)
(-0.498387 0.0830721 -9.54254e-21)
(-0.667352 -0.368724 6.36729e-21)
(-0.0548795 -0.0448011 1.35921e-20)
(-1.3289 -0.768918 9.42169e-22)
(-1.36832 0.496911 2.14617e-21)
(-1.30977 -0.782944 -3.07298e-22)
(0.0825645 -0.0397525 0)
(-1.38438 0.472359 -2.07068e-21)
(0.0798979 -0.0448773 0)
(-0.978394 0.393547 0)
(-1.22372 -0.596206 0)
(0.0542409 -0.0628635 8.31713e-21)
(-1.37075 0.501895 3.88621e-21)
(-1.3664 0.507495 -6.9914e-21)
(-1.39869 -0.778624 6.10199e-22)
(-1.37296 -0.763963 -2.30341e-21)
(0.0921749 -0.0364909 1.10721e-20)
(0.0876404 -0.0356368 -1.44318e-23)
(-0.895406 0.216115 0)
(-1.07188 -0.665448 -1.41529e-20)
(0.0121257 0.0155569 1.17273e-20)
(-0.678563 0.201691 8.96239e-21)
(-0.955199 -0.495369 -1.04217e-20)
(0.0147384 -0.0608945 0)
(-1.21532 0.670595 0)
(0.0418962 -0.0161872 0)
(-1.54022 -0.577535 4.42704e-22)
(-0.753443 0.203402 6.61837e-21)
(-0.955971 -0.542582 -6.37617e-21)
(0.0191438 -0.0234788 -1.38223e-20)
(-0.55823 0.12066 3.84171e-21)
(-0.75273 -0.416884 -7.47729e-21)
(-0.0301118 -0.045805 7.79863e-21)
(-1.21963 0.641847 0)
(0.0588594 -0.00498197 0)
(-1.50076 -0.610689 -6.89191e-22)
(-0.858338 0.359996 0)
(-1.12936 -0.507098 1.74027e-21)
(0.0097248 -0.093713 -8.27278e-21)
(-1.00204 -0.760944 0)
(-0.948376 0.0751651 0)
(-0.200941 0.156962 -4.51168e-22)
(-0.603198 0.38856 -4.89845e-22)
(-0.956197 -0.214877 0)
(-0.422881 -0.387523 1.5243e-20)
(-1.29195 -0.888091 5.24718e-21)
(0.00127048 0.0148989 0)
(-1.24167 0.270447 0)
(0.0158782 0.00155386 -1.55755e-20)
(-0.795163 -0.424791 -4.92348e-21)
(-0.772242 0.39181 2.20153e-21)
(-0.794362 0.259791 0)
(-1.01424 -0.52947 6.36529e-21)
(0.0302855 -0.0547077 -6.99478e-21)
(-1.24025 0.641414 6.32854e-21)
(0.0552144 -0.0259255 2.06688e-20)
(-1.53021 -0.608965 0)
(-0.605344 -0.524898 -4.02098e-21)
(-0.934634 -0.13421 -6.75924e-21)
(-0.518272 0.361898 -4.25666e-21)
(-0.961311 0.56528 0)
(0.0360283 0.0166033 -5.73458e-21)
(-1.17367 -0.511727 0)
(-0.142125 0.0693844 8.46933e-21)
(-0.164995 0.0929616 -8.64846e-21)
(-0.601833 -0.41475 0)
(-0.579702 -0.0143414 8.10379e-21)
(-0.639959 -0.45168 -1.33261e-20)
(-0.62325 -0.0191627 -6.47716e-21)
(-0.496182 0.0522578 8.99066e-21)
(-0.62632 -0.363116 8.5242e-21)
(-0.0703524 -0.0197094 0)
(-0.234114 0.119758 7.59962e-21)
(-0.183153 0.0875967 0)
(-0.494345 -0.367484 -7.4987e-21)
(-0.597305 -0.0875244 7.24037e-21)
(-0.518594 -0.367382 7.55749e-21)
(-0.56365 -0.0574262 3.17963e-23)
(-0.740239 0.239094 5.63144e-22)
(-0.89138 -0.481355 -4.61044e-21)
(0.00364031 -0.0480031 -9.52409e-21)
(-0.684044 0.183851 -1.5438e-20)
(-0.894882 -0.497255 1.20001e-22)
(0.00375916 -0.0334367 0)
(0.07267 -0.0469341 0)
(-1.24444 -0.761617 0)
(-1.36316 0.463842 1.29814e-21)
(-0.504208 0.26794 -4.19334e-21)
(-0.806139 -0.24353 0)
(-0.289805 -0.270815 4.04212e-21)
(-1.35025 0.519764 -8.67479e-21)
(-1.42875 -0.766605 1.40651e-21)
(0.0962461 -0.0320215 -6.31234e-21)
(-1.03403 0.361673 0)
(-1.09026 0.388152 6.94647e-21)
(-1.24799 -0.664131 -1.78495e-21)
(-1.29419 -0.687101 5.1516e-21)
(0.0774779 -0.0376452 -9.13938e-21)
(0.0846522 -0.0369842 -8.40701e-21)
(-0.478356 0.237681 0)
(-0.769374 -0.253139 0)
(-0.256712 -0.247857 1.94733e-21)
(-0.784707 0.452306 4.81284e-21)
(-1.10882 -0.348793 0)
(-0.208616 -0.232551 4.79591e-21)
(-0.926879 0.328857 -3.76657e-21)
(-1.15657 -0.606774 0)
(0.0598216 -0.0469048 0)
(-0.258223 0.0246787 8.80772e-21)
(-0.447757 -0.158543 -4.28797e-21)
(-0.253622 -0.180971 4.31113e-21)
(-1.10375 0.35365 0)
(-1.28006 -0.728229 0)
(0.0793296 -0.0245764 -1.35754e-20)
(-0.326691 0.118167 0)
(-0.266683 -0.221759 2.30982e-21)
(-0.584361 -0.195469 0)
(-0.893956 0.23931 -8.68028e-21)
(-1.07894 -0.642851 -7.99405e-21)
(0.035053 -0.00935234 -1.17664e-21)
(-0.775108 0.425704 4.92235e-21)
(-1.09044 -0.367564 0)
(-0.170654 -0.210359 9.92306e-21)
(-0.270979 0.0554706 -8.72787e-21)
(-0.248584 0.0577403 -3.85883e-21)
(-0.490781 -0.170832 4.25051e-21)
(-0.261561 -0.199054 -8.56614e-21)
(-0.493196 -0.148122 0)
(-0.308086 -0.230281 -1.51733e-20)
(-0.210026 0.0767413 -3.82791e-21)
(-0.419848 -0.30508 9.78357e-21)
(-0.183443 0.0734369 2.45926e-21)
(-0.524794 -0.0963072 -9.81382e-21)
(-0.497609 -0.349997 -4.77169e-21)
(-0.540955 -0.0645817 2.00604e-22)
(-0.593198 0.292673 4.62056e-21)
(-0.650729 0.310672 0)
(-0.881697 -0.319838 8.24436e-21)
(-0.931808 -0.359127 -6.44305e-21)
(-0.179113 -0.202979 -9.04066e-21)
(-0.128992 -0.171781 1.50338e-20)
(0.0104497 -0.0751208 0)
(-1.45203 -0.558867 -2.09484e-21)
(-1.13992 0.59398 -6.56254e-21)
(-0.229241 0.176272 5.50477e-21)
(-0.898461 0.0425571 7.91634e-21)
(-0.931581 -0.714867 -1.33169e-20)
(0.0304286 -0.0598846 -7.00228e-21)
(0.0482612 -0.0545106 5.61428e-21)
(-1.47729 -0.587501 1.81388e-21)
(-1.46281 -0.609915 3.23944e-21)
(-1.17578 0.605431 1.65743e-20)
(-1.1852 0.582334 -8.58687e-21)
(-0.3637 0.252073 7.87199e-21)
(-0.676266 -0.542803 -6.49766e-21)
(-0.816488 -0.0730032 1.84369e-21)
(-0.266826 -0.0298033 1.49529e-20)
(-0.237276 -0.132194 0)
(-0.375082 -0.149263 -1.47633e-20)
(-1.12916 0.385748 -3.25487e-21)
(-1.31077 -0.72181 -5.82234e-21)
(0.0869408 -0.03087 0)
(-0.411954 0.199021 0)
(-0.299003 -0.271204 -1.85492e-21)
(-0.703351 -0.211665 -7.35879e-21)
(-0.813932 0.439939 0)
(-1.12817 -0.392703 0)
(-0.14018 -0.188148 -9.23235e-21)
(-1.07334 0.585096 -7.3237e-21)
(-1.06411 0.559403 0)
(-1.40349 -0.510021 1.33672e-21)
(-0.0383165 -0.109652 -8.6462e-21)
(-1.3819 -0.522078 -3.62221e-21)