/*--------------------------------*- C++ -*----------------------------------*\
  =========                 |
  \\      /  F ield         | OpenFOAM: The Open Source CFD Toolbox
   \\    /   O peration     | Website:  https://openfoam.org
    \\  /    A nd           | Version:  6
     \\/     M anipulation  |
\*---------------------------------------------------------------------------*/
FoamFile
{
    version     2.0;
    format      ascii;
    class       volVectorField;
    location    "0";
    object      U_rec;
}
// * * * * * * * * * * * * * * * * * * * * * * * * * * * * * * * * * * * * * //

dimensions      [0 1 -1 0 0 0 0];

internalField   nonuniform List<vector> 
13046
(
(-0.309433 0.175317 0)
(-0.351184 -0.0131268 -2.5709e-21)
(-0.14049 0.0683521 -5.77076e-21)
(-0.304966 0.131168 0)
(-0.165524 0.103812 -5.17572e-21)
(-0.292114 -0.00354073 0)
(-0.323314 0.137676 7.5264e-22)
(-0.312885 -0.0269932 1.32424e-21)
(-0.154366 0.112295 -5.73639e-21)
(-0.426696 0.215948 2.72022e-21)
(-0.710541 -0.296464 0)
(-0.0167597 0.0921522 3.87629e-21)
(-0.35287 0.18134 -2.40727e-21)
(-0.400813 -0.0652274 -4.05148e-21)
(-0.111429 0.0868163 3.19058e-21)
(-0.412573 0.251854 -3.53351e-21)
(-0.0121064 0.0796291 9.28584e-21)
(-0.732423 -0.240919 1.92881e-21)
(-0.220118 0.136143 0)
(-0.223262 0.0260836 -2.80878e-21)
(-0.299199 0.0804476 7.8742e-21)
(-0.416354 0.245245 -1.51284e-21)
(-0.0118791 0.0832712 -1.2402e-20)
(-0.726812 -0.252571 0)
(-0.28609 0.144535 3.17373e-21)
(-0.302294 0.0146741 -6.33963e-21)
(-0.166161 0.0777377 0)
(-0.353829 0.195129 -4.43044e-21)
(-0.419182 -0.0706537 1.18644e-21)
(-0.10279 0.0785526 -5.49616e-21)
(-0.310526 0.186172 0)
(-0.367327 -0.0119873 0)
(-0.136296 0.0572422 5.87553e-21)
(-0.269109 0.133104 -3.68642e-21)
(-0.180682 0.0752129 1.94093e-21)
(-0.283796 0.0341446 1.10283e-20)
(-0.266293 0.12132 -5.6811e-21)
(-0.190787 0.085219 2.96315e-21)
(-0.268245 0.0406998 -5.67462e-21)
(-0.274505 0.203445 4.12569e-21)
(-0.189275 -0.0117384 1.09417e-21)
(-0.383997 0.0268734 -3.86578e-21)
(-0.251835 0.0905134 2.56446e-21)
(-0.222062 0.0939365 4.42999e-21)
(-0.234884 0.0655866 0)
(-0.266552 0.0898598 1.62002e-21)
(-0.214816 0.106968 -6.78448e-21)
(-0.231074 0.0516142 -8.48904e-22)
(-0.318487 0.169153 0)
(-0.350065 -0.0262104 -1.85275e-22)
(-0.13242 0.0790709 4.50966e-25)
(-0.278561 -0.0980489 6.77908e-21)
(-0.24806 0.22514 0)
(-0.42663 0.0521111 -4.68261e-21)
(-0.315221 -0.12592 -9.65966e-21)
(-0.433105 0.062823 -7.49356e-21)
(-0.233127 0.221718 6.5135e-21)
(-0.622168 -0.122175 -8.98637e-22)
(-0.382433 0.281415 0)
(-0.073037 0.0291122 5.09858e-21)
(-0.415213 0.162847 -2.28221e-21)
(-0.471132 -0.161996 2.43547e-21)
(-0.110689 0.138944 -1.33294e-20)
(-0.0369335 0.101482 7.062e-21)
(-0.657449 -0.245384 -1.47185e-21)
(-0.435913 0.218962 -4.00491e-21)
(-0.371966 0.28601 0)
(-0.598252 -0.0982587 0)
(-0.094106 0.00876773 0)
(-0.36397 0.281112 -1.84656e-21)
(-0.573983 -0.0839006 0)
(-0.103934 0.00415885 4.05513e-21)
(-0.65149 -0.136691 0)
(-0.38818 0.285393 5.79719e-23)
(-0.0638649 0.0306775 -9.17254e-24)
(-0.23 0.147149 0)
(-0.214393 0.0192515 3.07026e-21)
(-0.312632 0.0683409 -5.60149e-21)
(-0.0400762 0.0520313 5.65557e-21)
(-0.399251 0.276951 -5.85043e-21)
(-0.68036 -0.171502 0)
(-0.297737 0.145467 1.66441e-21)
(-0.305938 0.0021978 0)
(-0.157772 0.0883775 0)
(-0.0305202 0.0988813 -6.35711e-21)
(-0.678549 -0.258463 -1.12103e-21)
(-0.436429 0.22184 2.38889e-21)
(-0.459166 0.179597 -4.13238e-21)
(-0.0666755 0.129868 0)
(-0.619632 -0.277835 -1.16553e-21)
(-0.100402 0.160096 0)
(-0.486282 0.138272 0)
(-0.596846 -0.323977 1.5414e-22)
(-0.403731 0.213944 0)
(-0.41467 0.21218 2.17744e-21)
(-0.539579 -0.154173 4.6659e-21)
(-0.56123 -0.175945 -2.18951e-21)
(-0.066548 0.0936605 -2.90251e-21)
(-0.0618067 0.101584 7.42871e-21)
(-0.078918 0.138162 -3.56629e-22)
(-0.463516 0.169334 4.04253e-21)
(-0.603106 -0.280858 0)
(-0.278742 0.09968 -1.2445e-23)
(-0.202491 0.109988 3.55921e-21)
(-0.242491 0.0351407 0)
(-0.204522 0.191838 0)
(-0.397583 0.088807 -2.3116e-21)
(-0.312391 -0.0967153 0)
(-0.248449 0.210897 7.14734e-21)
(-0.24721 -0.0631715 0)
(-0.401287 0.0500587 -8.84827e-21)
(-0.38651 0.198216 0)
(-0.00722466 0.0760771 0)
(-0.669753 -0.308148 -1.31962e-21)
(-0.337508 0.173214 6.64503e-21)
(-0.376183 -0.0468891 1.73456e-21)
(-0.121306 0.0883628 5.72472e-21)
(-0.407408 0.236735 2.7667e-21)
(-0.400261 0.228076 -5.1978e-21)
(-0.594521 -0.168061 -3.92964e-21)
(-0.0506609 0.0808683 3.33195e-21)
(-0.557907 -0.150272 2.36036e-21)
(-0.0598681 0.0823559 -3.11307e-21)
(-0.417724 0.217621 -2.32827e-21)
(-0.713787 -0.299293 -2.0469e-21)
(-0.0119716 0.0878472 -1.73718e-21)
(-0.381194 0.209476 0)
(-0.482663 -0.114841 -3.09269e-21)
(-0.0812143 0.0826957 6.74072e-21)
(-0.289224 0.206884 0)
(-0.16874 0.00285631 -5.41547e-21)
(-0.390163 0.0109709 2.28374e-22)
(-0.11034 0.166901 0)
(-0.483351 0.135193 0)
(-0.579877 -0.306281 0)
(-0.434335 0.203087 0)
(-0.595475 -0.21814 -6.03566e-21)
(-0.0602747 0.113807 -7.98703e-21)
(-0.325252 0.194051 0)
(-0.389846 -0.0305192 0)
(-0.125388 0.0557862 0)
(-0.37133 0.136401 0)
(-0.358465 -0.086778 0)
(-0.150518 0.141745 0)
(-0.23963 0.211987 0)
(-0.272346 -0.081848 0)
(-0.407796 0.0591387 4.77443e-21)
(-0.204978 0.184834 -7.45004e-22)
(-0.388088 0.0903342 -4.97154e-21)
(-0.305327 -0.0841474 5.91113e-21)
(-0.421872 0.170709 5.46108e-21)
(-0.497042 -0.177617 0)
(-0.0988013 0.131892 1.73631e-20)
(-0.188944 0.155058 0)
(-0.352977 0.104137 5.35161e-21)
(-0.288403 -0.0480654 -1.47301e-21)
(-0.385041 -0.165922 0)
(-0.438224 0.0923198 5.3443e-21)
(-0.421077 -0.186624 0)
(-0.443203 0.106388 3.08677e-21)
(-0.195376 0.205741 0)
(-0.176119 0.195227 0)
(-0.385192 0.115836 6.86293e-22)
(-0.34543 -0.100409 3.07906e-21)
(-0.170205 0.160859 -3.26992e-21)
(-0.436047 0.207546 -2.7834e-21)
(-0.0227712 0.0970435 0)
(-0.697182 -0.305028 -2.68946e-21)
(-0.398621 0.207672 -2.13631e-21)
(-0.00770729 0.0803895 -7.95786e-22)
(-0.694852 -0.305482 0)
(-0.433716 0.210484 -3.26553e-21)
(-0.613331 -0.222775 0)
(-0.0514657 0.108019 9.08546e-21)
(-0.310495 0.236796 0)
(-0.441999 -0.0100494 1.23223e-21)
(-0.164402 -0.0152951 3.18439e-21)
(-0.378213 0.108158 4.51018e-21)
(-0.181914 0.167629 1.56214e-21)
(-0.322661 -0.0828077 0)
(-0.0372376 0.109809 0)
(-0.674186 -0.31396 0)
(-0.452493 0.191933 2.35558e-21)
(-0.298108 0.227093 0)
(-0.421781 0.00445869 -2.67647e-21)
(-0.174506 -0.0131924 8.19429e-22)
(-0.189982 0.162692 0)
(-0.361056 0.100318 0)
(-0.289351 -0.0582286 0)
(-0.358672 0.129858 2.23629e-21)
(-0.336899 -0.0711765 0)
(-0.155833 0.137537 0)
(-0.425791 -0.0931569 -2.88853e-23)
(-0.103495 0.100479 -3.89274e-21)
(-0.373332 0.200567 7.00325e-21)
(-0.458808 -0.0999481 0)
(-0.090425 0.0860274 -8.44744e-21)
(-0.451253 0.198816 -4.25565e-21)
(-0.0463652 0.114142 5.74755e-21)
(-0.657313 -0.279424 -5.53498e-21)
(-0.101575 0.157115 5.26037e-21)
(-0.471989 0.149261 2.47105e-21)
(-0.578191 -0.285381 5.90586e-21)
(-0.475361 0.158702 -7.03847e-21)
(-0.618993 -0.309365 0)
(-0.0793533 0.143235 -5.17119e-21)
(-0.290559 -0.121955 -3.47029e-22)
(-0.459691 0.0380315 2.10939e-21)
(-0.262608 0.251359 0)
(-0.350444 0.154006 -1.01778e-20)
(-0.394824 0.283762 2.96507e-21)
(-0.0467985 0.0444288 -3.4821e-21)
(-0.683604 -0.163647 0)
(-0.634253 -0.320545 0)
(-0.472037 0.165149 -6.48242e-21)
(-0.0680207 0.133489 0)
(-0.27965 0.115175 -8.19567e-21)
(-0.188186 0.100453 -2.90916e-21)
(-0.261382 0.0280645 8.35342e-21)
(-0.345131 0.20194 0)
(-0.417601 -0.0569772 -1.71261e-22)
(-0.109586 0.0684398 -3.22996e-21)
(-0.110399 0.164869 4.03033e-21)
(-0.477475 0.140784 0)
(-0.571641 -0.292717 -6.80214e-21)
(-0.363505 0.161677 8.16241e-21)
(-0.413048 -0.0933208 7.3822e-21)
(-0.111076 0.108328 0)
(-0.018497 0.0906643 0)
(-0.683085 -0.320234 2.17542e-21)
(-0.424871 0.197749 0)
(-0.24806 0.243114 0)
(-0.45596 0.0484278 0)
(-0.315507 -0.14187 0)
(-0.471092 0.159374 6.17937e-21)
(-0.603799 -0.294046 0)
(-0.0840926 0.144314 -7.66999e-24)
(-0.41346 0.112049 2.00249e-21)
(-0.380549 -0.142675 -2.37602e-21)
(-0.170974 0.177944 0)
(-0.378111 0.219105 0)
(-0.491152 -0.109836 2.8888e-21)
(-0.0794211 0.0745808 5.31717e-21)
(-0.514473 -0.27412 -8.60149e-21)
(-0.48146 0.11188 -4.39858e-21)
(-0.152263 0.196525 3.18333e-21)
(-0.456193 0.105648 0)
(-0.446948 -0.211437 -3.39757e-21)
(-0.173027 0.198791 -1.13738e-22)
(-0.0204167 0.090309 -5.12413e-21)
(-0.667113 -0.327675 0)
(-0.424911 0.187719 -2.52241e-21)
(-0.273535 0.225752 3.81734e-21)
(-0.219353 -0.0492223 -3.97832e-21)
(-0.417954 0.0280828 3.86811e-22)
(-0.354552 0.212093 2.36099e-21)
(0.00184269 0.0680588 -7.46859e-21)
(-0.683321 -0.270592 0)
(-0.204221 0.127429 -1.68275e-21)
(-0.298477 0.0930433 -6.37259e-21)
(-0.239151 0.0176923 8.42834e-21)
(-0.406796 0.134002 2.43458e-21)
(-0.403594 0.119577 1.9911e-23)
(-0.407998 -0.142389 -5.72992e-21)
(-0.377064 -0.130271 0)
(-0.163626 0.16841 2.97233e-21)
(-0.143497 0.156712 -3.09117e-21)
(-0.0304427 0.0593216 -7.40129e-21)
(-0.402087 0.273718 3.07708e-21)
(-0.702961 -0.184863 -4.74835e-21)
(-0.366482 0.221617 0)
(-0.475949 -0.0884644 0)
(-0.0899334 0.0642146 -7.00692e-21)
(-0.462931 0.115233 -1.14618e-21)
(-0.477973 -0.234814 0)
(-0.158452 0.191657 0)
(-0.420945 0.221619 -2.66898e-21)
(-0.598981 -0.19313 0)
(-0.0503417 0.0968428 3.32356e-21)
(-0.243512 0.100265 1.74488e-21)
(-0.246917 0.0700071 2.52481e-21)
(-0.218283 0.0826425 -8.71235e-22)
(-0.431997 0.117324 -3.93825e-21)
(-0.421794 -0.175753 0)
(-0.162575 0.181762 -5.21343e-21)
(-0.36661 0.230564 0)
(-0.491524 -0.0884519 3.59349e-21)
(-0.0878006 0.0558909 -4.51565e-21)
(-0.367203 0.175116 0)
(-0.379406 0.180372 8.20996e-22)
(-0.276184 0.233147 1.39185e-21)
(-0.224606 -0.0589338 1.15095e-20)
(-0.428708 0.0265162 -9.31902e-21)
(-0.436676 0.128245 -4.0911e-21)
(-0.44991 -0.192604 4.97588e-21)
(-0.145728 0.171883 4.75739e-21)
(-0.42774 0.219748 0)
(-0.0468482 0.101261 -1.16952e-20)
(-0.617191 -0.210401 -2.97196e-21)
(-0.249262 0.201849 -9.86487e-21)
(-0.236336 -0.0504735 0)
(-0.389593 0.0520246 2.98159e-21)
(-0.203764 0.216539 -6.11088e-21)
(-0.448259 0.0844248 -3.07323e-21)
(-0.385304 -0.176774 0)
(-0.389536 0.247846 -2.67167e-21)
(-0.570322 -0.131703 -3.15028e-21)
(-0.0622093 0.0604829 2.07067e-21)
(-0.261769 0.233914 5.03561e-22)
(-0.261875 -0.0878655 0)
(-0.433888 0.0413819 6.44759e-21)
(-0.396929 0.252337 0)
(-0.403975 0.247527 0)
(-0.599012 -0.14735 -2.03814e-21)
(-0.0543426 0.0638922 -5.39162e-21)
(-0.61049 -0.16415 2.88219e-21)
(-0.0480443 0.0731923 5.73106e-21)
(-0.0360681 0.107875 -4.47732e-21)
(-0.678739 -0.30076 0)
(-0.449504 0.200162 -3.13224e-21)
(-0.390311 0.228949 3.07188e-21)
(-0.534191 -0.132654 0)
(-0.0667611 0.0749667 1.83401e-21)
(-0.593698 -0.284225 3.47869e-21)
(-0.00271502 0.0606841 6.55293e-21)
(-0.334904 0.177619 6.09077e-21)
(-0.333805 0.0927684 -2.93689e-21)
(-0.201774 0.150585 0)
(-0.257699 -0.0197604 0)
(-0.400586 0.160895 5.51554e-21)
(-0.443298 -0.137928 0)
(-0.11419 0.132541 1.01763e-20)
(-0.0491816 0.113004 -3.64456e-21)
(-0.446985 0.201813 8.68343e-21)
(-0.640853 -0.260312 4.20065e-21)
(-0.327801 -0.139473 0)
(-0.442307 0.0630362 2.77807e-21)
(-0.231167 0.229183 -7.3817e-21)
(-0.535237 -0.282438 -1.0459e-20)
(-0.480329 0.122049 -2.72574e-21)
(-0.136149 0.184 0)
(-0.374168 -0.0677832 -7.4736e-21)
(-0.125646 0.110384 0)
(-0.401981 0.185769 6.07641e-21)
(-0.478739 -0.142956 2.6974e-21)
(-0.0897955 0.111775 3.11101e-21)
(-0.364824 -0.073161 4.37397e-21)
(-0.132673 0.11893 3.69518e-23)
(-0.414258 0.253147 -2.11516e-22)
(-0.0171638 0.0783602 4.35477e-21)
(-0.717359 -0.228641 -2.83403e-21)
(-0.280699 -0.126895 0)
(-0.475795 0.0265706 6.72045e-22)
(-0.275003 0.262329 0)
(-0.411262 0.190037 -6.18606e-21)
(-0.50924 -0.160272 -3.29343e-21)
(-0.0829349 0.115459 -3.82162e-21)
(-0.379609 0.129743 0)
(-0.358368 -0.0983369 -4.47489e-21)
(-0.155547 0.149945 0)
(-0.405462 0.0744914 0)
(-0.298084 -0.0982792 0)
(-0.221666 0.201836 0)
(-0.3126 0.156982 -2.3067e-21)
(-0.329675 -0.0165813 -4.09423e-21)
(-0.143831 0.0864912 2.27564e-23)
(-0.218029 0.225349 7.58414e-21)
(-0.448878 0.0739436 7.51079e-21)
(-0.362953 -0.16356 4.88033e-21)
(-0.459896 0.184932 -3.80476e-21)
(-0.643897 -0.291363 4.70972e-21)
(-0.0559766 0.122405 -5.44935e-21)
(-0.54103 -0.274709 7.07639e-21)
(-0.474789 0.130864 2.76271e-21)
(-0.127093 0.175777 4.01092e-21)
(-0.344454 0.277622 -5.6649e-21)
(-0.139619 -0.018852 6.07805e-21)
(-0.534488 -0.052602 -4.38866e-21)
(-0.400099 0.266567 1.66687e-21)
(-0.39572 0.264375 -1.49531e-21)
(-0.624159 -0.149465 -6.49388e-22)
(-0.649432 -0.162285 0)
(-0.0451115 0.0577794 -1.98204e-21)
(-0.0528241 0.0541267 -1.74599e-21)
(-0.00181069 0.0632999 -8.86641e-21)
(-0.623703 -0.280713 -3.82973e-21)
(-0.343188 0.187448 1.4654e-21)
(-0.364149 0.22 -1.47636e-22)
(0.00192854 0.0707564 1.03334e-20)
(-0.705579 -0.270397 0)
(-0.41895 0.140119 -8.91108e-21)
(-0.439099 -0.161586 -1.28965e-21)
(-0.137028 0.157934 0)
(-0.0390825 0.1086 -1.10673e-20)
(-0.448218 0.203168 3.11262e-21)
(-0.671908 -0.28454 0)
(-0.370196 0.265642 8.07414e-21)
(-0.379081 0.264229 -6.06373e-21)
(-0.557578 -0.0968783 3.38281e-21)
(-0.575285 -0.112096 1.28696e-21)
(-0.0899471 0.0264536 -3.44704e-21)
(-0.0758223 0.0385812 -1.72737e-21)
(-0.0604826 0.126611 0)
(-0.634501 -0.341807 0)
(-0.471793 0.155565 1.16632e-21)
(-0.330136 0.206828 -2.77313e-21)
(0.00380402 0.0624026 0)
(-0.660789 -0.254294 0)
(-0.283162 0.067222 -2.13269e-23)
(-0.234999 0.128918 3.71887e-21)
(-0.206825 0.0490659 1.87031e-21)
(-0.363734 0.199384 -4.93676e-21)
(-0.663105 -0.291886 1.93074e-21)
(-0.00272606 0.0697714 4.84654e-22)
(-0.327916 0.237244 0)
(-0.454282 -0.0313803 -5.67516e-21)
(-0.137133 0.00712008 -1.12718e-23)
(-0.457856 0.186037 3.05153e-23)
(-0.665632 -0.316076 6.63766e-21)
(-0.0449963 0.115056 1.13954e-24)
(-0.518877 -0.290364 1.10745e-22)
(-0.00730497 0.0549315 -3.79051e-21)
(-0.320496 0.13901 -2.42296e-21)
(-0.259401 0.191171 -3.54859e-21)
(-0.200236 -0.00833127 3.4524e-21)
(-0.365689 0.0418042 9.44777e-21)
(-0.311088 0.104373 0)
(-0.259817 -0.000673793 -9.34403e-21)
(-0.190486 0.129108 4.79222e-21)
(-0.410547 0.225741 0)
(-0.0080604 0.0849563 5.18042e-21)
(-0.723193 -0.289587 -2.08225e-23)
(-0.322554 0.105794 0)
(-0.266416 -0.0132127 -3.27881e-21)
(-0.186817 0.137754 -6.76726e-21)
(-0.270842 0.0728617 3.79602e-21)
(-0.231984 0.118202 -1.97991e-21)
(-0.213232 0.0574938 9.84805e-22)
(-0.240673 0.246807 3.68676e-21)
(-0.467342 0.0543738 -2.67311e-21)
(-0.34727 -0.169573 5.41111e-21)
(-0.322248 0.073392 0)
(-0.221747 0.00755459 0)
(-0.223019 0.155998 5.57274e-22)
(-0.333733 0.0850503 4.64785e-21)
(-0.243554 -0.00911139 2.54271e-21)
(-0.21402 0.158355 7.90001e-23)
(-0.333851 0.274583 8.60134e-21)
(-0.515919 -0.0384272 -4.3879e-21)
(-0.159727 -0.0359974 -6.00601e-21)
(-0.0161601 0.0911938 7.81482e-21)
(-0.0188257 0.093702 -7.93509e-21)
(-0.716998 -0.273959 1.87021e-21)
(-0.708797 -0.283756 1.32052e-21)
(-0.425928 0.231139 0)
(-0.430514 0.223971 -2.78497e-21)
(-0.462811 0.181911 4.66816e-21)
(-0.651221 -0.303238 -4.1682e-21)
(-0.0539584 0.123497 6.74294e-21)
(-0.130862 -0.0202389 -3.90986e-21)
(-0.351989 0.286708 1.77962e-21)
(-0.559663 -0.064269 5.59908e-21)
(-0.282895 0.221726 -3.48548e-21)
(-0.196294 -0.0296461 -3.61627e-21)
(-0.412399 0.0188376 2.95707e-21)
(-0.466576 0.092354 0)
(-0.439889 -0.220389 3.51458e-21)
(-0.187978 0.213465 1.17675e-22)
(-0.574441 -0.329524 2.08339e-21)
(-0.0189621 0.0746834 -3.54533e-21)
(-0.386249 0.145978 -2.02757e-21)
(-0.0881949 0.150736 0)
(-0.482579 0.146366 0)
(-0.608797 -0.325726 2.8575e-21)
(-0.412906 0.206563 2.43026e-21)
(-0.0124831 0.0861328 0)
(-0.697507 -0.311072 -2.13419e-21)
(-0.00479389 0.0478255 -1.40051e-32)
(-0.484889 -0.26893 -1.54896e-21)
(-0.29142 0.131167 2.49424e-21)
(-0.509058 -0.2348 1.72321e-21)
(-0.000131483 0.0464104 1.39729e-32)
(-0.278326 0.154384 -2.21978e-21)
(-0.507016 -0.209016 -6.80747e-21)
(-0.441366 0.153939 0)
(-0.114829 0.15225 -1.02268e-20)
(-0.627285 -0.348593 -1.1844e-21)
(-0.0417119 0.106201 -3.62278e-21)
(-0.451585 0.153619 0)
(-0.441643 0.196159 -4.0588e-21)
(-0.598279 -0.233142 3.74118e-21)
(-0.0634309 0.119524 5.32449e-21)
(-0.394456 0.255117 7.23182e-21)
(-0.00302349 0.0740355 3.15304e-21)
(-0.758919 -0.241584 0)
(-0.339449 0.160271 1.78295e-21)
(-0.129541 0.102678 -1.94593e-21)
(-0.36327 -0.0520633 1.81824e-21)
(-0.629161 -0.338668 1.46517e-21)
(-0.069056 0.134854 3.81564e-21)
(-0.476488 0.153062 1.27527e-21)
(-0.463148 0.0853157 -3.05319e-21)
(-0.199346 0.220683 -2.08865e-21)
(-0.416928 -0.204126 0)
(-0.490416 -0.234957 0)
(-0.459493 0.124942 0)
(-0.144536 0.182016 0)
(-0.000594361 0.0220209 0)
(-0.286624 -0.138911 -1.06843e-21)
(-0.164429 0.0766162 1.89362e-21)
(-0.58667 -0.300811 1.88717e-21)
(-0.00624325 0.0629951 -4.57025e-21)
(-0.346739 0.168325 -2.54645e-21)
(-0.326296 0.152585 -4.59774e-21)
(-0.140775 0.100773 4.58597e-21)
(-0.336974 -0.0343415 2.0723e-21)
(-0.65173 -0.331909 5.78948e-21)
(-0.46359 0.170848 -2.58976e-21)
(-0.0485885 0.117843 0)
(-0.0580109 0.123969 -4.02125e-21)
(-0.470749 0.15069 0)
(-0.628168 -0.349593 -4.36121e-21)
(-0.440862 0.215309 -2.85427e-21)
(-0.0310692 0.102182 1.1871e-20)
(-0.682867 -0.273386 0)
(-0.025757 0.0721151 -8.94286e-21)
(-0.695292 -0.202507 3.08933e-21)
(-0.4106 0.260435 0)
(-0.326287 0.281396 -1.08379e-20)
(-0.518148 -0.029607 5.59492e-21)
(-0.183801 -0.0576138 -1.91014e-21)
(-0.610631 -0.131598 9.57544e-22)
(-0.386903 0.271894 3.52421e-21)
(-0.0658827 0.0402105 -5.44203e-21)
(-0.0172134 0.0673321 -8.03048e-21)
(-0.403541 0.267899 0)
(-0.73378 -0.211622 0)
(-0.340549 0.225689 -1.67776e-21)
(-0.353722 0.233072 0)
(-0.448379 -0.0489964 -5.9387e-21)
(-0.476323 -0.0676314 6.34437e-21)
(-0.114299 0.0382284 9.19423e-22)
(-0.101862 0.0416358 -9.80424e-22)
(-0.32866 0.22771 1.61067e-21)
(-0.440442 -0.0327696 0)
(-0.130178 0.0223863 1.76131e-21)
(-0.364699 0.273474 0)
(-0.560558 -0.0877972 -5.45119e-21)
(-0.0999379 0.0137188 1.24521e-21)
(-0.524154 -0.258766 -3.50686e-21)
(-0.467986 0.131206 2.85371e-21)
(-0.130363 0.174102 -8.25866e-21)
(-0.642366 -0.316592 0)
(-0.466576 0.173353 7.09875e-21)
(-0.0589758 0.127247 0)
(-0.107536 0.157323 -2.64544e-21)
(-0.465129 0.148935 -1.84342e-21)
(-0.55771 -0.265696 -2.28088e-21)
(-0.549107 -0.24162 -2.24632e-22)
(0.000845581 0.0509173 2.42978e-21)
(-0.294514 0.169053 0)
(-0.284902 0.190939 3.20099e-21)
(-0.289599 0.183816 0)
(-0.163413 0.0253898 0)
(-0.364919 0.0162496 1.15147e-20)
(-0.156436 0.0390857 0)
(-0.356042 0.00981007 -7.32781e-21)
(-0.348769 0.2634 0)
(-0.335859 0.256202 0)
(-0.137117 -0.00494709 2.73777e-23)
(-0.517405 -0.0602348 3.42981e-21)
(-0.122026 0.00527385 9.073e-21)
(-0.49071 -0.0428229 -7.29273e-21)
(-0.508511 -0.302893 0)
(-0.0109793 0.0583428 5.17654e-21)
(-0.335062 0.131343 0)
(-0.654223 -0.32582 -3.46142e-21)
(-0.463823 0.175002 7.90294e-22)
(-0.0492635 0.117864 2.39573e-21)
(-0.290147 0.24215 -6.05043e-21)
(-0.213336 -0.0573867 -4.13351e-21)
(-0.444688 0.0121974 9.6753e-21)
(-0.489498 -0.253675 7.66302e-21)
(-0.474605 0.107769 7.35343e-21)
(-0.161793 0.200313 0)
(-0.0306754 0.067077 9.56209e-21)
(-0.684911 -0.191179 -3.28739e-21)
(-0.40779 0.263809 3.90581e-21)
(-0.64252 -0.320709 0)
(-0.392631 0.182206 0)
(-0.0119465 0.0771258 0)
(-0.648479 -0.328209 0)
(-0.409363 0.179475 2.2292e-21)
(-0.0176754 0.0840475 8.70821e-22)
(-0.381427 0.254558 -3.34732e-21)
(-0.562097 -0.117103 1.964e-21)
(-0.0715637 0.0488618 2.55677e-21)
(-0.23806 0.193206 -9.35715e-22)
(-0.244506 -0.0455347 0)
(-0.378248 0.0633552 -4.24151e-23)
(-0.437599 0.216821 3.32583e-21)
(-0.0259411 0.0990666 6.92992e-21)
(-0.697179 -0.281985 -1.53806e-21)
(-0.519238 -0.227038 0)
(-0.449942 0.150789 0)
(-0.115016 0.158168 8.82251e-21)
(-0.037675 0.0969219 2.23546e-21)
(-0.646615 -0.224599 5.0642e-21)
(-0.428996 0.227301 8.67928e-21)
(-0.326725 0.256551 0)
(-0.154391 -0.0191348 -6.06882e-21)
(-0.481731 -0.0313503 3.7482e-21)
(-0.410213 0.100429 3.17983e-23)
(-0.353943 -0.126363 3.48759e-21)
(-0.189312 0.187343 0)
(-0.270596 0.208663 5.94494e-23)
(-0.203276 -0.027744 -1.18292e-21)
(-0.393724 0.031011 -3.87472e-21)
(-0.0285697 0.101932 8.89546e-24)
(-0.692437 -0.297562 3.61917e-21)
(-0.441741 0.207476 3.74416e-21)
(-0.415965 0.233566 -1.58774e-21)
(-0.61435 -0.188115 -1.51218e-21)
(-0.0452452 0.0880205 0)
(-0.26333 0.184825 -3.47168e-21)
(-0.188332 0.00859944 7.39174e-21)
(-0.355683 0.037901 -6.2285e-21)
(-0.399597 0.266392 2.81884e-21)
(-0.0109747 0.0687144 3.57811e-21)
(-0.750382 -0.222222 -2.16136e-21)
(-0.322407 0.205035 -2.0323e-21)
(-0.402103 -0.0283333 0)
(-0.12694 0.0431082 0)
(-0.350701 0.118918 -8.29274e-21)
(-0.308461 -0.0526514 2.03125e-21)
(-0.170501 0.144023 0)
(-0.481503 -0.216787 0)
(-0.449588 0.130729 5.84414e-21)
(-0.139475 0.174533 0)
(-0.37927 0.234801 -1.59885e-21)
(0.00156458 0.0743749 -1.10935e-21)
(-0.739587 -0.26485 2.16344e-21)
(-0.380107 0.242988 4.42047e-21)
(0.00209541 0.0738045 0)
(-0.750448 -0.254605 -2.19206e-21)
(-0.0329811 0.0906912 2.04337e-21)
(-0.658782 -0.220007 -2.95153e-21)
(-0.42463 0.235468 -7.9683e-21)
(-0.424158 0.0889513 -2.70437e-21)
(-0.359062 -0.142724 -3.52053e-21)
(-0.201318 0.200137 0)
(0.00398158 0.069994 1.01653e-21)
(-0.721842 -0.261499 -2.02427e-21)
(-0.359664 0.227139 0)
(-0.0591851 0.119462 0)
(-0.618475 -0.251996 -3.08188e-21)
(-0.447411 0.194646 -9.89513e-22)
(-0.004912 0.0396579 4.11995e-21)
(-0.409513 -0.246153 1.87048e-21)
(-0.257114 0.104098 0)
(-0.234737 0.139909 -2.52771e-21)
(-0.450598 -0.191259 0)
(0.00146061 0.0377978 4.12031e-21)
(-0.0191713 0.0720431 3.91318e-24)
(-0.71978 -0.215239 0)
(-0.408622 0.262385 0)
(-0.0237836 0.0974582 0)
(-0.687755 -0.316948 0)
(-0.436887 0.199228 5.01793e-21)
(-0.425261 0.235852 -2.93695e-21)
(-0.428074 0.234096 2.37746e-21)
(-0.0181522 0.0891437 -3.91755e-21)
(-0.712042 -0.256782 -6.22747e-22)
(-0.0231025 0.0913614 -6.34025e-21)
(-0.694706 -0.248911 1.16565e-21)
(-0.452652 0.185124 1.89946e-21)
(-0.608952 -0.258319 2.06029e-21)
(-0.0673141 0.12664 0)
(-0.180944 0.215164 0)
(-0.463332 -0.243862 0)
(-0.477039 0.0949433 0)
(-0.286468 0.164915 0)
(-0.1587 0.0581996 -1.00891e-20)
(-0.329666 0.0128664 4.04715e-21)
(-0.456955 0.164963 5.37103e-21)
(-0.570456 -0.254806 7.6914e-22)
(-0.090844 0.143667 7.80671e-21)
(-0.102987 0.15183 5.08749e-21)
(-0.457715 0.156563 -7.46453e-21)
(-0.552514 -0.250905 -1.06723e-21)
(-0.399641 0.276469 3.14553e-21)
(-0.0237442 0.0594265 3.84312e-21)
(-0.727312 -0.194632 4.96153e-21)
(-0.351758 0.270347 0)
(-0.533585 -0.0651446 1.61199e-21)
(-0.120349 0.000713782 -8.89293e-21)
(-0.337908 0.245041 0)
(-0.475479 -0.0447063 7.45237e-21)
(-0.128384 0.00820432 1.5781e-23)
(-0.4339 0.171879 -6.93564e-21)
(-0.525404 -0.202612 9.45137e-22)
(-0.094336 0.135375 -4.4261e-21)
(-0.440949 0.166212 0)
(-0.530238 -0.214795 8.91171e-22)
(-0.0988098 0.141302 4.07741e-21)
(-0.252523 0.173151 0)
(-0.195488 0.0141891 -1.16562e-20)
(-0.339321 0.0478495 3.50589e-21)
(-0.355848 0.240556 0)
(-0.490451 -0.0717508 0)
(-0.0996485 0.0343943 1.3365e-21)
(-0.0787462 0.143688 -8.27616e-21)
(-0.616685 -0.341021 -8.0328e-21)
(-0.483065 0.144804 0)
(-0.415821 0.166934 3.05399e-21)
(-0.0223462 0.0859358 0)
(-0.625885 -0.336258 1.51587e-21)
(-0.407672 0.153319 -3.26835e-23)
(-0.0230327 0.0828018 0)
(-0.601458 -0.337053 -4.32874e-21)
(-0.301723 0.218367 2.41008e-21)
(-0.160449 0.00424446 -1.28461e-21)
(-0.41003 -0.00192141 -7.56791e-23)
(-0.606126 -0.31457 1.23014e-22)
(-0.0108043 0.0704906 6.9969e-21)
(-0.374478 0.168652 0)
(-0.418594 0.240031 6.85215e-21)
(-0.0367571 0.085952 4.28759e-21)
(-0.644383 -0.201789 0)
(-0.0140933 0.0690857 -1.0417e-21)
(-0.57062 -0.321367 -2.19981e-21)
(-0.37011 0.149778 0)
(-0.299705 0.120514 5.69283e-21)
(-0.178291 0.111437 6.06118e-21)
(-0.274516 0.00717998 4.31393e-23)
(-0.383818 0.191996 -1.0243e-21)
(-0.460112 -0.113031 -9.86454e-22)
(-0.0929676 0.0995294 -4.57272e-21)
(-0.329218 -0.126325 8.0255e-21)
(-0.421975 0.0772695 6.33312e-21)
(-0.21714 0.20773 0)
(-0.0457169 0.111947 0)
(-0.636643 -0.345815 -1.51254e-21)
(-0.458875 0.158925 0)
(-0.507667 -0.231132 0)
(-0.453363 0.141775 0)
(-0.124999 0.16558 0)
(-0.00770133 0.0743453 0)
(-0.402237 0.257938 -2.66309e-21)
(-0.751235 -0.235356 2.1167e-21)
(-0.396234 0.195213 0)
(-0.485686 -0.133177 4.96155e-22)
(-0.0852621 0.103955 4.4717e-21)
(-0.279741 0.155936 0)
(-0.166033 0.062767 8.6621e-21)
(-0.315459 0.020816 0)
(-0.654446 -0.337141 -5.47717e-21)
(-0.454946 0.172475 2.45776e-21)
(-0.0410615 0.109762 0)
(-0.0448971 0.107577 -4.68462e-21)
(-0.641321 -0.247896 1.94572e-22)
(-0.440126 0.210886 7.81291e-23)
(-0.394783 0.224897 0)
(-0.387166 0.220076 2.98852e-21)
(-0.00327952 0.0794453 -2.55073e-21)
(-0.00255419 0.0773412 -3.13686e-21)
(-0.723947 -0.283198 -1.37429e-21)
(-0.713012 -0.287504 1.13004e-21)
(-0.395206 0.140693 0)
(-0.398859 -0.125802 1.33613e-20)
(-0.14001 0.147491 4.83493e-21)
(-0.477835 -0.188991 9.55001e-21)
(-0.431983 0.147638 0)
(-0.122361 0.154242 -5.35364e-21)
(-0.333385 0.132291 -4.68463e-21)
(-0.312833 -0.0383409 3.45453e-21)
(-0.155245 0.122902 7.47665e-21)
(-0.638796 -0.341989 3.43207e-21)
(-0.434506 0.167411 3.23537e-21)
(-0.626027 -0.346776 -1.60686e-21)
(-0.0291537 0.094889 0)
(-0.438603 0.157475 -3.12741e-21)
(-0.0339348 0.0973958 0)
(-0.418113 0.202799 0)
(-0.547366 -0.180294 0)
(-0.0694669 0.109203 4.9991e-21)
(-0.447083 0.179697 4.43017e-21)
(-0.438037 0.176876 -8.28395e-21)
(-0.66406 -0.333811 2.25531e-21)
(-0.657742 -0.336179 -5.73638e-21)
(-0.033013 0.1031 7.04995e-21)
(-0.0284584 0.0968375 -1.90488e-24)
(-0.428729 0.139582 0)
(-0.45508 -0.179305 -8.84934e-21)
(-0.137163 0.16439 6.94725e-21)
(-0.374767 0.160458 4.43252e-21)
(-0.421332 -0.109614 -5.93402e-21)
(-0.111315 0.117556 0)
(-0.394726 0.247758 0)
(-0.00169702 0.076486 0)
(-0.752465 -0.254539 2.10539e-21)
(-0.393322 0.151559 3.26212e-21)
(-0.414269 -0.123131 -3.70035e-21)
(-0.127677 0.138125 -8.01468e-21)
(-0.348324 0.14133 1.90288e-21)
(-0.341897 -0.0616731 -4.04835e-21)
(-0.144417 0.123747 4.3665e-21)
(-0.390634 0.231906 0)
(-0.00162252 0.0778742 0)
(-0.737201 -0.274613 -2.93746e-21)
(-0.395384 0.2062 0)
(-0.508501 -0.136193 1.02824e-21)
(-0.0751386 0.0946018 -4.95582e-21)
(-0.404694 -0.204194 0)
(-0.47044 0.0752774 0)
(-0.212482 0.232853 -2.70052e-22)
(-0.324969 0.264024 -2.75407e-22)
(-0.491346 -0.0277117 0)
(-0.164549 -0.0323952 9.42349e-21)
(-0.559005 -0.30349 4.08675e-21)
(-0.125679 0.180065 0)
(-0.486755 0.124433 0)
(-0.00118692 0.0323409 -9.90778e-21)
(-0.382527 -0.189514 1.49532e-21)
(-0.217974 0.104698 -2.65115e-21)
(-0.394964 0.172984 0)
(-0.445628 -0.128183 3.65091e-21)
(-0.104809 0.120354 -4.1063e-21)
(-0.411807 0.242245 4.92054e-21)
(-0.00822153 0.0829713 1.32448e-20)
(-0.736726 -0.259537 0)
(-0.231475 -0.0912429 -2.5044e-21)
(-0.494447 -0.00144571 -3.67199e-21)
(-0.300966 0.273043 -2.44671e-21)
(-0.289101 0.181064 0)
(0.00325216 0.0517108 -3.69242e-21)
(-0.578814 -0.23224 0)
(-0.210901 0.172044 4.64198e-21)
(-0.21839 0.183882 -4.75253e-21)
(-0.264002 -0.0470137 0)
(-0.361421 0.0837227 3.98489e-21)
(-0.271015 -0.0618326 -7.60264e-21)
(-0.376749 0.0773295 -3.20526e-21)
(-0.333479 0.119906 4.40968e-21)
(-0.293616 -0.0311835 4.60281e-21)
(-0.170585 0.133462 0)
(-0.243788 0.18625 4.08795e-21)
(-0.226626 0.175852 0)
(-0.221675 -0.0219679 -4.20509e-21)
(-0.363378 0.0559826 3.57777e-21)
(-0.234875 -0.0246932 4.23649e-21)
(-0.353819 0.0704246 2.15153e-23)
(-0.384784 0.170694 2.81349e-22)
(-0.393493 -0.0962764 -2.5929e-21)
(-0.124986 0.124371 -5.39859e-21)
(-0.378413 0.152438 -7.62887e-21)
(-0.391561 -0.10069 6.8397e-23)
(-0.131815 0.132623 0)
(-0.0297898 0.0900568 0)
(-0.60007 -0.345865 0)
(-0.424042 0.14807 3.40701e-21)
(-0.315481 0.218701 -2.22441e-21)
(-0.417786 -0.0165434 0)
(-0.141838 0.0198209 2.37818e-21)
(-0.446279 0.190484 -7.96187e-21)
(-0.676454 -0.323897 2.674e-21)
(-0.0307956 0.103518 -4.02023e-21)
(-0.434159 0.183486 0)
(-0.440854 0.186578 3.9111e-21)
(-0.550863 -0.207646 -1.17774e-21)
(-0.574849 -0.224386 3.69476e-21)
(-0.0800781 0.126856 -5.52355e-21)
(-0.0737609 0.125993 -5.14137e-21)
(-0.312646 0.207303 0)
(-0.399577 -0.0150939 0)
(-0.13931 0.0308286 1.12052e-21)
(-0.364826 0.256853 2.67296e-21)
(-0.53114 -0.0861886 0)
(-0.0952181 0.029034 2.9645e-21)
(-0.417371 0.183095 -1.99516e-21)
(-0.509585 -0.173056 0)
(-0.0868564 0.12302 0)
(-0.253003 0.135748 4.4883e-21)
(-0.288746 0.0488793 -2.18066e-21)
(-0.190207 0.0581716 2.33407e-21)
(-0.448983 0.171656 0)
(-0.563319 -0.237493 0)
(-0.0877891 0.138452 -8.29964e-21)
(-0.27635 0.170734 0)
(-0.167277 0.0422162 1.27973e-21)
(-0.335396 0.0233602 0)
(-0.422798 0.152041 -4.40542e-21)
(-0.46327 -0.175294 -4.91773e-21)
(-0.122034 0.148886 -6.92449e-22)
(-0.366716 0.24659 2.69755e-21)
(-0.517963 -0.0894386 0)
(-0.0890268 0.0394006 6.09005e-21)
(-0.259091 0.148154 -4.44863e-21)
(-0.251128 0.152719 -1.99235e-21)
(-0.304116 0.0406761 2.136e-21)
(-0.182169 0.0511599 -4.60638e-21)
(-0.31209 0.0474398 0)
(-0.189304 0.0370895 -8.24108e-21)
(-0.237187 0.166181 -2.02691e-21)
(-0.210896 0.00349811 5.43421e-21)
(-0.227029 0.169475 1.30468e-21)
(-0.334962 0.0606834 -4.84054e-21)
(-0.232744 -0.0157172 -2.62428e-21)
(-0.345327 0.0715817 1.04697e-22)
(-0.338273 0.215212 2.40678e-21)
(-0.351587 0.213769 0)
(-0.430815 -0.0478989 4.41996e-21)
(-0.443485 -0.0651199 -3.44706e-21)
(-0.112999 0.0481096 -5.30617e-21)
(-0.102292 0.0612886 8.82842e-21)
(-0.0274368 0.0784599 0)
(-0.680044 -0.207271 -1.79743e-21)
(-0.415163 0.25161 -4.15469e-21)
(-0.22393 0.235198 3.26743e-21)
(-0.46249 0.0680094 4.21311e-21)
(-0.373525 -0.180109 -8.48285e-21)
(-0.0224543 0.0821489 -4.45846e-21)
(-0.0251133 0.0876598 3.56802e-21)
(-0.695171 -0.224819 1.55375e-21)
(-0.684424 -0.232379 2.69668e-21)
(-0.418423 0.248682 1.06468e-20)
(-0.424269 0.240139 -5.54385e-21)
(-0.268075 0.244522 4.45807e-21)
(-0.265452 -0.0977992 -3.96351e-21)
(-0.448471 0.0339491 9.26549e-22)
(-0.248554 0.112613 7.53116e-21)
(-0.205682 0.0773201 0)
(-0.259537 0.0601005 -7.4773e-21)
(-0.448013 0.18074 -1.88193e-21)
(-0.582364 -0.240665 -4.171e-21)
(-0.0767461 0.131062 0)
(-0.295834 0.199808 0)
(-0.155222 0.020307 -1.06833e-21)
(-0.381895 0.00411229 -3.72307e-21)
(-0.373873 0.246142 0)
(-0.53054 -0.101465 0)
(-0.0802883 0.0479167 -5.67378e-21)