/*--------------------------------*- C++ -*----------------------------------*\
  =========                 |
  \\      /  F ield         | OpenFOAM: The Open Source CFD Toolbox
   \\    /   O peration     | Website:  https://openfoam.org
    \\  /    A nd           | Version:  6
     \\/     M anipulation  |
\*---------------------------------------------------------------------------*/
FoamFile
{
    version     2.0;
    format      ascii;
    class       volVectorField;
    location    "0";
    object      U_rec;
}
// * * * * * * * * * * * * * * * * * * * * * * * * * * * * * * * * * * * * * //

dimensions      [0 1 -1 0 0 0 0];

internalField   nonuniform List<vector> 
918
(
(0.985091 -0.0042344 0)
(-0.00806904 2.98845 0)
(-0.0139078 1.70137 0)
(0.977283 0.00707833 0)
(-0.00672779 1.66263 5.7471e-17)
(0.00331686 2.97953 -3.28584e-17)
(0.942677 1.42607 2.74029e-18)
(0.474869 0.242377 2.21759e-19)
(0.995597 2.81697e-05 0)
(0.028603 1.57081 0)
(-0.00353206 1.57367 0)
(0.891476 -0.00289949 0)
(-0.00191526 2.98723 0)
(0.00480879 2.89227 0)
(-0.000370271 2.90288 1.6314e-17)
(-0.00664138 1.62813 3.43819e-17)
(0.645024 0.134921 1.86521e-18)
(0.187525 1.62739 -3.82292e-17)
(0.981924 0.00729956 0)
(0.00628011 1.63391 0)
(-0.00319136 0.0147829 4.4999e-18)
(0.985525 0.00873277 0)
(1.00252 0.0100111 0)
(1.0152 0.000111812 0)
(0.806809 -0.00179044 0)
(0.0175982 2.92938 0)
(-0.00825873 2.94132 -9.16991e-17)
(-0.0107173 1.72605 0)
(0.00163367 1.76523 0)
(-0.0109355 1.72263 0)
(-0.00812584 1.78818 0)
(-0.00971665 1.67496 5.73031e-17)
(-0.00662746 1.63285 0)
(0.00248885 3.00996 4.26787e-22)
(0.00537109 3.02204 -5.28045e-17)
(0.0204018 3.0077 0)
(0.932116 -0.00429202 0)
(0.593272 1.11337 -1.08066e-17)
(0.963193 1.4332 -8.64223e-18)
(1.07964 1.26849 2.3495e-17)
(0.817271 1.55771 9.90615e-18)
(0.780885 1.54175 1.38228e-17)
(0.496348 0.310118 8.3907e-20)
(0.527584 0.230836 0)
(1.27525 0.681378 0)
(0.422803 0.321903 1.72841e-19)
(0.407071 0.229212 7.92666e-19)
(0.955888 -0.00232566 0)
(0.996072 0.00257092 0)
(0.995725 0.00343103 0)
(0.990064 0.00208654 0)
(0.98102 0.00910131 0)
(0.996642 0.0132708 0)
(0.0303522 1.58359 3.01194e-18)
(0.0183678 1.6542 0)
(0.0358004 1.57283 0)
(0.0113751 1.67352 0)
(0.0143163 1.5919 0)
(-0.00784112 1.65511 0)
(-0.00565089 1.66106 0)
(-0.00145804 1.57712 0)
(-0.0137591 1.67002 0)
(-0.0076046 1.5859 0)
(0.962989 0.00325433 0)
(0.934443 0.0100452 0)
(0.906529 0.00100977 0)
(0.925241 0.0113103 0)
(0.878575 -0.00121789 0)
(-0.0202561 3.04328 2.65361e-17)
(-0.00137605 2.9729 0)
(-0.0280266 3.01764 0)
(0.0292426 3.03941 -4.17375e-23)
(-0.00195203 3.02716 3.67508e-17)
(0.0165204 3.01077 0)
(0.00267039 2.95746 0)
(0.00383512 2.9671 -1.07678e-23)
(0.00426384 2.8993 0)
(0.00631876 2.9739 0)
(0.00818839 2.87998 0)
(0.271194 3.18349 0)
(-0.0658277 3.26364 0)
(0.0916562 2.96243 8.59004e-18)
(0.000793031 2.80587 0)
(0.00111008 1.76105 0)
(-0.00334946 1.68934 3.36231e-17)
(-0.00185618 1.6331 3.44215e-17)
(0.684833 0.169552 -5.23761e-18)
(0.673515 0.0972222 1.78156e-18)
(0.642991 0.206749 1.91297e-17)
(0.619462 0.166409 -1.01253e-17)
(0.220944 1.2945 0)
(0.245516 1.68111 -4.42703e-17)
(0.375204 1.62874 -3.88097e-17)
(0.993834 0.00610516 0)
(0.969549 0.00365842 0)
(0.994734 -0.00628958 0)
(1.00082 0.000527945 0)
(1.00482 0.0148109 1.35232e-16)
(1.00627 0.0149613 1.27208e-16)
(-0.00302933 1.6901 0)
(0.000368743 1.63236 0)
(-0.00497537 1.72711 0)
(-0.0107062 1.70139 0)
(-0.000141613 1.64585 0)
(-0.0232875 0.249832 -2.3243e-18)
(0.178571 0.167959 0)
(1.01435 -0.0153348 0)
(0.983328 -0.00322511 0)
(0.901986 0.0271587 0)
(0.862969 0.0454867 0)
(0.847974 0.00788862 0)
(1.0907 0.000868204 0)
(0.818703 0.0380763 0)
(0.751907 -0.00976229 2.37065e-17)
(-0.017666 2.87589 2.36833e-17)
(0.00735967 2.98399 0)
(-0.0498322 3.02496 0)
(0.00544276 2.87038 0)
(-0.00694287 2.98407 -3.31935e-17)
(-0.00308322 2.93011 0)
(-0.0129524 2.98772 -1.70255e-17)
(-0.0144178 2.95134 2.5176e-17)
(0.00465613 1.77914 0)
(0.000458761 1.77901 0)
(0.00120833 1.69164 -5.75396e-21)
(-0.00371446 1.6842 0)
(-0.000306481 1.63005 0)
(0.965202 0.000648982 0)
(0.932366 -1.30756e-05 0)
(0.921835 0.00272048 0)
(0.966747 -0.0013263 0)
(0.937752 -0.00133075 0)
(0.6492 1.23138 -5.53671e-18)
(0.734024 1.27281 0)
(0.525704 1.06848 -1.25066e-18)
(0.483766 0.997443 0)
(1.07847 1.27453 1.79534e-17)
(1.1863 1.07006 2.86138e-18)
(0.450356 1.67789 0)
(0.654404 1.64546 0)
(0.575452 1.61292 0)
(0.296366 0.535168 -5.87911e-18)
(0.547382 0.293324 0)
(0.568178 0.217275 -3.97774e-18)
(1.15851 1.09348 0)
(1.22157 0.89399 0)
(1.24267 0.864075 -2.97339e-18)
(1.2722 0.70931 0)
(1.29747 0.504336 -2.90021e-17)
(0.97245 0.00273745 0)
(0.975422 -0.00442029 0)
(0.946064 -0.00194957 0)
(0.998027 -0.00743171 0)
(0.987982 -0.00737072 0)
(0.970219 -0.00131217 0)
(0.987875 -0.00381669 0)
(0.986506 -0.000280348 0)
(0.996638 -0.00169808 0)
(0.0317004 1.6323 3.05381e-17)
(0.0384771 1.54831 0)
(0.030483 1.6666 -2.28013e-18)
(0.0199729 1.61149 2.74977e-18)
(0.0825583 1.65645 -4.23785e-17)
(0.0264265 1.64602 0)
(0.0564504 1.58192 0)
(0.00485044 1.6914 0)
(0.0149073 1.58082 0)
(-0.00651368 1.70188 2.13445e-20)
(0.00550169 1.65392 0)
(-0.00729603 1.70346 -3.29586e-17)
(0.00258216 1.65589 -1.64726e-18)
(0.0119641 1.68121 0)
(0.00227401 1.66786 0)
(0.0108307 1.57546 0)
(-0.0122718 1.68081 0)
(-0.0070254 1.60505 0)
(1.00299 0.0188651 0)
(0.980346 0.00697811 0)
(0.987284 0.00897961 0)
(0.953084 0.00258481 0)
(0.911961 -0.00515041 0)
(0.950958 0.00235116 0)
(0.944071 0.0098809 0)
(0.907739 0.000982451 0)
(0.0111249 3.03905 3.60017e-20)
(0.016309 3.03379 0)
(0.0068069 2.99368 0)
(0.00388004 2.93967 0)
(0.979294 3.69536 0)
(1.35161 2.7495 -1.63303e-18)
(0.00893039 2.88157 0)
(-0.0112061 2.80277 0)
(-0.00510284 1.77146 0)
(-0.00460936 1.76356 0)
(-0.00480041 1.76567 0)
(-0.00373581 1.77748 -7.65277e-17)
(-0.00624226 1.76312 0)
(0.00159722 1.76961 0)
(0.00312256 1.6386 -6.80101e-17)
(0.00334388 1.69934 -3.4585e-17)
(-0.00531147 1.69518 3.34738e-17)
(-0.00136125 1.6368 0)
(0.713898 0.137987 -1.79669e-17)
(0.709772 0.0729013 -1.22734e-17)
(0.202473 1.3525 0)
(0.273768 1.16768 5.60532e-19)
(0.137012 1.44374 -2.75635e-17)
(0.142052 1.40762 -3.12135e-17)
(0.948774 0.00745032 0)
(0.980314 0.00714098 0)
(0.985053 0.00869434 0)
(0.957149 0.00690109 0)
(-0.0109861 1.68784 0)
(-0.000481317 1.68805 0)
(-0.00430823 1.62053 0)
(0.345518 0.323166 -9.69232e-19)
(0.213292 0.288337 5.52042e-19)
(0.311 0.208637 0)
(1.18191 0.102773 -5.02382e-19)
(1.187 0.0569006 0)
(1.09489 0.0476149 0)
(1.03322 0.00116337 0)
(0.736669 0.0980323 0)
(0.768882 0.0488592 3.04658e-17)
(0.723001 0.0377055 -2.06632e-17)
(-0.0146359 2.95626 -3.30693e-17)
(-0.00700219 2.90493 -5.77492e-17)
(0.00788137 3.02843 6.70134e-20)
(0.0336564 3.01643 -3.61309e-17)
(-0.0174265 3.0008 -1.48882e-19)
(-0.0141025 2.97991 5.57371e-22)
(-0.01267 3.02755 -3.87905e-18)
(-0.000860863 2.98742 -7.98165e-18)
(0.0491574 3.02016 -3.02202e-17)
(0.982268 0.00557521 0)
(0.973476 0.0109951 0)
(0.943197 0.00491401 0)
(0.974195 0.0089644 0)
(0.962133 0.00990324 0)
(0.929246 0.00839323 0)
(0.952671 -0.00258269 0)
(0.955098 0.0037495 0)
(0.911137 -0.00403485 0)
(0.790517 1.43939 2.68668e-18)
(0.869615 1.50289 0)
(0.397131 0.761882 1.43906e-18)
(0.359046 0.848574 -2.40261e-18)
(0.420437 0.956928 -1.30904e-17)
(0.426944 0.896747 -1.7333e-17)
(0.407978 0.899554 9.49079e-19)
(0.290226 0.604017 1.97751e-17)
(0.621063 0.233151 -1.11369e-17)
(0.589173 0.260882 -3.37197e-18)
(0.598537 0.189384 4.71168e-18)
(1.29491 0.525761 -2.60058e-17)
(1.2954 0.33036 3.24192e-18)
(0.00913538 1.68692 -3.41079e-17)
(0.00324492 1.62562 0)
(1.04789 0.0297421 0)
(1.02118 0.0189097 0)
(1.00134 -0.000340365 0)
(0.0147172 3.0465 0)
(0.0131472 2.97233 -3.49956e-17)
(0.0100049 2.98416 0)
(0.00383078 2.92014 -2.37896e-17)
(0.0118588 3.05896 1.55428e-17)
(0.0115147 3.05239 0)
(0.845193 1.7373 -3.4136e-18)
(1.19449 2.32026 -1.00728e-17)
(0.930117 1.82525 -1.58263e-17)
(-0.0276059 2.91963 3.26107e-17)
(-0.0252496 2.88196 0)
(-0.0201786 2.83882 0)
(-0.0143815 1.69752 6.75332e-17)
(0.00241029 1.69016 1.06595e-18)
(-0.0125416 1.63825 6.74342e-17)
(0.257122 1.27963 -1.58798e-17)
(0.301949 1.01598 -1.24183e-17)
(0.0380934 1.59204 -3.21225e-17)
(0.0758512 1.52529 -2.85955e-17)
(0.0640401 1.48873 -6.09037e-17)
(-0.0227841 3.07074 1.256e-16)
(-0.0096675 3.06786 1.05621e-16)
(0.00571463 2.98554 2.54781e-17)
(-0.0114004 2.97976 -2.48295e-17)
(0.000404417 2.93302 3.34027e-17)
(0.0171818 3.06431 -9.13198e-17)
(-0.00568276 3.05772 -1.29407e-16)
(0.358601 0.847835 0)
(0.297677 0.804279 -5.8971e-18)
(0.344138 0.576167 -1.66625e-17)
(0.381332 0.99054 3.15639e-17)
(0.339111 0.712141 2.46426e-17)
(1.27082 0.201647 -2.18962e-18)
(1.29853 0.362754 0)
(1.2665 0.177813 1.6381e-18)
(-0.0073438 1.69779 1.96875e-20)
(0.00188117 1.69309 0)
(-0.00163513 1.63764 0)
(0.299853 1.18891 9.65797e-19)
(0.349723 1.11189 -3.2803e-17)
(0.310638 0.86288 -3.01791e-17)
(1.00178 -0.0225845 0)
(1.00302 -0.0138017 1.38124e-17)
(0.00259739 1.77693 0)
(-0.00894103 1.79323 0)
(1.00267 -0.00118715 4.67432e-19)
(1.00179 0.0016493 1.83548e-17)
(0.00129067 1.77665 -7.62533e-17)
(0.00232895 1.77592 0)
(-0.0205137 2.97233 2.47988e-17)
(0.300966 2.99946 0)
(1.09714 0.698409 -2.63776e-17)
(1.00468 0.00679607 8.51387e-17)
(1.00991 -0.00777076 0)
(1.00611 -0.000902115 3.57383e-19)
(-0.0762582 1.74024 0)
(-0.0111243 1.79077 0)
(-0.001641 1.80333 0)
(0.0258787 1.73896 -7.61634e-17)
(-0.00128577 1.75517 7.43531e-17)
(0.989043 0.0108083 8.34479e-17)
(1.03652 0.0227705 0)
(1.06107 0.0323954 0)
(-0.0013543 1.7713 0)
(0.00377733 1.76803 0)
(-0.013377 1.777 0)
(0.135246 1.57054 -8.45991e-17)
(1.00536 -0.01216 0)
(1.00842 -0.0152492 0)
(0.996643 0.00507039 -1.94996e-17)
(0.997509 -0.00545573 2.48078e-17)
(0.997068 -0.00380343 0)
(-0.00429669 1.7659 0)
(0.00117417 1.77035 0)
(-0.000861299 1.76422 0)
(-0.00613569 1.78041 0)
(-0.0205206 1.77731 0)
(-0.0107021 1.77349 0)
(1.01177 0.00763097 0)
(1.01198 0.00448633 8.53113e-17)
(0.827286 1.40575 -9.90869e-19)
(1.00169 -0.00672895 1.98582e-17)
(0.999642 0.00437442 -2.45223e-17)
(1.00403 0.00355775 0)
(1.00031 0.0104499 3.71179e-17)
(1.00645 0.0129464 4.82824e-17)
(1.00589 0.01052 0)
(0.00521916 1.77154 0)
(0.00586565 1.76867 -3.88517e-17)
(0.0013065 1.76826 -3.41886e-17)
(1.15821 0.263962 -6.04541e-17)
(1.09708 0.0817624 0)
(-0.231958 2.97291 2.9387e-17)
(-0.25137 3.21994 6.83745e-19)
(-0.0330727 3.01861 4.72214e-17)
(-0.0391244 2.97184 3.67569e-17)
(0.0484677 2.95085 0)
(-0.0273169 3.02635 1.33147e-17)
(-0.0960084 3.12796 2.26818e-17)
(-0.0823551 3.01261 1.8402e-17)
(-0.0593371 3.09688 0)
(0.646789 0.343783 0)
(0.518374 0.385166 0)
(1.0803 0.825138 2.94293e-17)
(1.0701 0.907422 3.84366e-17)
(1.13323 0.635069 0)
(1.14939 0.561186 0)
(1.00675 0.00409603 1.25198e-17)
(1.00242 0.0034615 -1.2679e-17)
(1.01046 -0.00897456 0)
(1.00562 -0.0157771 0)
(1.00173 0.00799347 0)
(1.00641 0.00396237 0)
(1.00445 0.00580135 0)
(1.00258 0.00524282 0)
(1.00388 0.00440243 0)
(0.993773 0.006565 0)
(-0.0556715 1.75282 0)
(-0.0595008 1.78594 0)
(-0.0514037 1.72174 0)
(-0.0473233 1.70559 0)
(-0.00955601 1.79705 0)
(0.0170859 1.78878 3.54438e-17)
(0.00188061 1.78 0)
(-0.0129727 1.75685 3.23429e-17)
(0.00552083 1.72077 -6.96459e-17)
(-0.0111592 1.80373 0)
(-0.00348868 1.7978 0)
(0.0104119 1.81102 0)
(0.00355096 1.82112 0)
(0.03007 1.76689 -7.47127e-17)
(-0.0143691 1.74084 -4.90201e-17)
(0.0257109 1.74411 3.70095e-17)
(0.00560076 1.75372 0)
(0.0219654 1.76126 3.2445e-17)
(0.00667449 1.76689 -7.12234e-17)
(0.000107545 1.78544 -1.15752e-16)
(-0.00399084 1.7315 -4.67562e-17)
(0.0232752 1.73847 3.96839e-17)
(0.99213 0.0169272 -7.40101e-18)
(0.994858 0.000966777 1.11387e-17)
(0.988318 0.0246261 1.20982e-17)
(0.974934 0.0193882 -1.04789e-17)
(1.03021 0.0113271 0)
(1.03323 0.0107056 0)
(1.04485 0.0324812 0)
(1.03663 0.0296534 0)
(1.04306 0.0128744 0)
(1.08538 0.0692207 0)
(1.06368 0.0597662 0)
(1.08255 0.0411121 0)
(-0.0100625 1.77607 9.98208e-18)
(0.00181045 1.75585 0)
(-0.0160466 1.76122 0)
(-0.00239657 1.76699 -1.50831e-17)
(0.000420948 1.76978 2.85536e-20)
(-0.0099066 1.7877 4.40945e-17)
(-0.0212513 1.77601 4.48692e-17)
(-0.00254316 1.77045 0)
(-0.0294459 1.77573 0)
(-0.0121686 1.76969 0)
(-0.00325005 1.77991 0)
(-0.00713464 1.78914 0)
(0.311217 1.55692 -5.44096e-17)
(0.376651 1.57465 4.23931e-17)
(0.352914 1.8379 1.1652e-19)
(0.184562 1.79679 2.932e-17)
(0.111426 2.07525 3.65076e-17)
(1.00954 -0.0153574 0)
(1.01176 -0.00822005 0)
(1.01448 -0.0100388 0)
(1.00558 0.00207529 0)
(0.997545 -0.00313349 0)
(0.98987 -0.000977979 0)
(1.00296 -0.0016653 0)
(1.00394 -0.00105559 0)
(1.0093 0.00305561 -7.3507e-18)
(1.00738 0.00476402 1.21767e-17)
(1.0118 0.00616262 1.21318e-17)
(1.00677 0.00597025 -1.18432e-17)
(0.763177 1.49702 0)
(0.710442 1.52297 -7.59296e-17)
(0.896805 1.35886 7.21758e-17)
(0.951805 1.28123 6.60744e-17)
(1.01013 2.09337 -2.61166e-17)
(0.815468 0.117021 -2.03801e-17)
(1.10838 0.133173 0)
(1.1598 0.191939 -9.42719e-17)
(1.13729 0.137856 1.54627e-19)
(0.951415 0.144493 0)
(-0.0877653 2.70311 5.20847e-17)
(-0.374133 2.61613 7.08114e-17)
(-0.809804 2.68549 6.53202e-18)
(-0.644041 0.219753 -1.15053e-17)
(0.195829 2.99355 -1.47236e-17)
(0.0482749 2.9814 0)
(0.143607 2.96472 -8.84712e-18)
(0.0179789 2.70464 7.90273e-17)
(0.192068 2.73622 0)
(-0.0224559 3.05548 -4.14684e-19)
(-0.0348247 3.06978 -2.2897e-17)
(-0.00641626 3.09682 -3.08533e-17)
(-0.0395022 3.11111 0)
(-0.0495205 3.05138 0)
(1.13575 2.16102 0)
(0.490333 1.0548 4.95263e-17)
(1.02153 1.09593 -3.52432e-17)
(0.997118 1.22349 0)
(0.841424 1.08291 -1.40459e-17)
(1.04127 1.03535 -6.19928e-17)
(0.174401 0.411885 -1.21805e-18)
(0.656606 0.33955 1.21064e-17)
(0.681991 0.297606 1.24834e-17)
(0.457996 0.457373 5.15546e-20)
(0.420449 0.395869 2.74929e-18)
(0.609188 0.38969 0)
(0.58388 0.482099 1.07466e-17)
(0.60808 0.439686 0)
(0.541664 0.413145 0)
(0.58944 0.358888 0)
(0.676786 0.696773 3.33576e-17)
(1.16622 0.338559 3.91532e-17)
(1.17981 0.461278 0)
(1.17267 0.386934 0)
(0.75338 0.229106 1.94765e-17)
(0.72644 0.629634 3.65689e-17)
(0.607569 0.571824 1.0723e-17)
(0.862199 0.43253 -8.06951e-17)
(1.00327 0.00604927 3.35685e-17)
(1.00174 0.015588 4.70147e-17)
(0.998873 0.0130941 0)
(1.00746 0.0101992 0)
(1.00339 -0.0145632 -3.28343e-17)
(0.996544 -0.00685862 -4.49861e-17)
(1.01478 0.00166547 0)
(1.00548 0.00330565 0)
(1.01048 0.00055342 0)
(1.00567 0.00484841 0)
(1.01257 -0.00107509 0)
(1.00837 -0.00609325 0)
(-0.0324281 1.80179 0)
(-0.0183126 1.80443 0)
(-0.123558 1.69743 -5.13351e-17)
(0.0732928 1.62961 -3.91005e-17)
(-0.0100278 1.68357 7.96589e-17)
(0.00103195 1.63635 3.26999e-17)
(-0.0953857 1.67673 0)
(-0.112762 1.86769 7.37959e-17)
(-0.138044 1.84494 0)
(0.0210854 2.08876 3.8553e-17)
(0.0681495 2.00188 -4.60467e-17)
(-0.116792 1.85256 6.99206e-17)
(0.00733454 1.58728 -4.02882e-17)
(-0.0945913 1.6582 -4.23104e-17)
(-0.0249533 1.5796 -8.31022e-18)
(-0.0863301 1.89864 0)
(-0.0212123 1.90304 -5.3841e-17)
(-0.0159414 1.73251 6.05175e-18)
(-0.00229869 1.72108 0)
(-0.0505794 1.73908 -7.40248e-17)
(-0.0455638 1.72003 0)
(-0.00441435 1.74329 3.47749e-17)
(-0.00562167 1.72973 0)
(0.0368258 1.78192 5.51201e-17)
(0.0503336 1.78344 0)
(0.0267304 1.80298 0)
(0.0212018 1.80801 5.26114e-17)
(0.00205015 1.72315 -1.18146e-16)
(0.0190836 1.72411 -7.06205e-17)
(0.00894962 1.73047 -1.15161e-20)
(0.0108306 1.75804 7.69541e-17)
(-0.00733933 1.78377 -3.97795e-17)
(-0.00899925 1.79354 0)
(-0.0143155 1.7998 0)
(0.00318834 1.77986 2.99016e-17)
(0.00430738 1.8066 2.53464e-17)
(0.0210545 1.78972 6.14475e-17)
(-0.0395631 1.78978 0)
(0.00109791 1.76944 1.03497e-16)
(-0.00920648 1.76798 1.67726e-17)
(0.00414738 1.77366 -1.93748e-17)
(0.0163569 1.77755 7.84062e-17)
(0.0172302 1.73499 -3.78455e-18)
(0.00547999 1.74367 -4.55135e-17)
(1.00309 0.0120326 4.64646e-17)
(0.99662 0.00525983 3.33751e-17)
(0.997959 0.00817157 0)
(0.989022 0.0487604 -6.75699e-17)
(0.965614 0.0501168 1.23579e-17)
(0.948358 0.0355778 -4.17858e-18)
(0.98373 0.0941987 1.29007e-18)
(1.01729 0.0121491 0)
(1.02396 0.0131586 -4.59625e-17)
(1.02325 0.00842261 -3.3337e-17)
(1.02436 0.0395574 3.24514e-18)
(1.02602 0.034793 -9.22678e-18)
(1.01212 0.0469843 0)
(1.00457 0.0438552 -7.48572e-20)
(0.99993 0.0257056 0)
(0.999662 0.0257304 0)
(1.01406 0.0233783 0)
(1.00384 0.00931822 0)
(1.00802 0.0274693 4.79614e-18)
(1.0092 0.0205572 2.87406e-17)
(1.02242 0.0331879 -6.7214e-18)
(1.01406 0.0326248 9.51714e-18)
(1.01117 0.0629766 2.92309e-17)
(1.03555 0.0583811 0)
(1.02678 0.0908776 0)
(0.00407186 1.77948 -5.33684e-17)
(0.0163319 1.75698 -8.28625e-19)
(-0.0049032 1.77008 0)
(0.0100013 1.77878 -5.44606e-17)
(0.00194487 1.78292 8.9941e-18)
(0.00644735 1.77306 -3.95532e-18)
(-0.00136859 1.76725 -7.7965e-17)
(0.00917804 1.76463 -1.59549e-19)
(0.0124476 1.75654 -5.12432e-18)
(-0.00593012 1.76626 3.44395e-17)
(-0.00335391 1.7701 3.36454e-17)
(0.0049301 1.76395 -2.32324e-17)
(-0.00319566 1.7724 -3.9164e-17)
(0.235312 1.42248 2.65941e-17)
(0.141636 1.61422 -8.34462e-18)
(0.670855 1.56439 -8.22536e-17)
(0.513604 1.56377 3.94765e-17)
(0.566039 1.57163 0)
(0.384746 1.85891 -3.6616e-18)
(0.482723 1.80956 -4.4271e-19)
(0.234647 1.79828 -7.40124e-18)
(0.185979 1.98172 -3.37875e-17)
(0.231886 2.00535 -2.89512e-17)
(0.333313 1.83278 0)
(0.28086 1.7872 -1.28547e-17)
(0.0572847 1.80313 1.29349e-18)
(0.142565 1.80667 6.23361e-17)
(0.0943471 1.76653 6.11924e-18)
(0.753381 1.98389 -3.56413e-17)
(0.653136 1.95088 0)
(1.00846 0.00459064 -1.6519e-19)
(1.00643 -0.0084413 2.35712e-19)
(1.00137 -0.0231253 -8.53415e-18)
(1.01548 -0.0120355 -1.51262e-17)
(1.01428 -0.00113867 0)
(0.740445 1.39861 0)
(0.676417 1.35864 0)
(0.777123 1.23207 0)
(0.700859 1.30887 0)
(0.988567 2.11444 2.91881e-17)
(0.939007 1.93248 0)
(0.786016 1.88754 -1.09948e-18)
(0.707979 2.11071 0)
(0.788662 2.11932 7.37892e-17)
(0.847325 2.06389 6.801e-17)
(0.801106 0.156955 0)
(0.786802 0.159343 -9.0455e-19)
(0.872732 0.134233 1.02728e-17)
(0.835746 0.110281 -2.92935e-17)
(0.853176 0.0825207 -1.91675e-18)
(1.01181 0.25469 -2.84765e-17)
(0.891581 0.292699 2.8808e-17)
(0.862399 0.281985 2.6978e-17)
(0.943882 0.221664 1.36638e-17)
(0.881471 0.168377 3.85907e-17)
(0.863258 0.195384 -1.08113e-17)
(0.875466 0.255557 1.15384e-18)
(0.855893 0.224523 0)
(0.952091 0.198619 2.29575e-17)
(0.988661 0.189923 0)
(0.981127 0.253805 0)
(1.04 0.122942 -1.22501e-17)
(1.00094 0.188785 3.17039e-17)
(0.989442 0.220832 2.13148e-17)
(1.03155 0.207309 0)
(0.992934 0.0273331 -3.62541e-17)
(1.00002 0.0336566 3.16908e-17)
(1.00307 0.0352216 -2.69675e-17)
(1.00226 0.0526897 4.27173e-17)
(0.981212 0.0520982 -5.66425e-17)
(0.939353 0.150159 0)
(0.961978 0.0776553 0)
(0.944668 0.0533667 4.40822e-17)
(0.918262 0.0525089 9.00656e-18)
(0.990117 0.0973516 -3.8184e-17)
(1.01033 0.124539 -2.77317e-17)
(1.00941 0.154822 -8.32714e-18)
(0.981256 0.152647 0)
(1.01271 0.0933416 0)
(1.00777 0.0822355 3.5557e-17)
(0.99111 0.0829529 -2.7319e-17)
(0.583157 1.34651 2.74566e-17)
(0.574824 1.51659 -2.12174e-17)
(0.915014 2.21759 1.90466e-17)
(0.984387 2.48414 -2.28191e-18)
(1.04378 2.19283 -2.88115e-17)
(1.10206 2.24124 5.71225e-18)
(1.10323 1.97714 8.28657e-18)
(1.00827 2.38038 -1.64364e-17)
(1.01473 2.35379 -1.36914e-17)
(1.05109 2.59363 -1.10566e-18)
(1.17815 2.4611 2.20406e-18)
(1.24592 2.41244 0)
(0.464717 1.11631 -3.52738e-18)
(-0.181403 1.41831 -1.42254e-17)
(0.0321004 0.592919 -6.09439e-18)
(-0.102428 0.814857 -1.66369e-17)
(0.341782 0.458302 -7.86088e-18)
(0.358427 0.511607 1.07126e-18)
(0.306825 0.595824 -4.9049e-18)
(0.219577 0.464935 2.01533e-18)
(0.310297 0.385306 -6.20077e-18)
(0.732943 0.273908 2.40114e-17)
(0.688132 0.304063 0)
(0.709753 0.26494 6.20354e-18)
(0.59361 0.57135 -1.13188e-17)
(0.507017 0.539809 1.14093e-17)
(0.424719 0.577761 -5.93178e-18)
(0.488767 0.488074 0)
(0.57939 0.930647 -2.42787e-17)
(0.744103 0.900654 4.90144e-17)
(0.684861 1.02138 5.07342e-17)
(0.770171 0.934478 1.31181e-17)
(0.896975 0.920776 -4.48997e-18)
(0.89742 0.987879 -5.59521e-18)
(0.779969 0.754028 3.7287e-18)
(0.839619 0.811053 1.04272e-17)
(0.927045 0.855063 0)
(0.927508 0.736536 2.56324e-17)
(0.942896 0.319779 5.18e-17)
(1.05681 0.315912 -1.9323e-17)
(0.994154 0.306094 -4.97795e-17)
(0.899944 0.395087 4.73296e-17)
(0.989714 0.453363 0)
(1.03133 0.419384 0)
(0.799072 0.398975 5.07919e-17)
(0.789077 0.289958 0)
(0.781217 0.284803 -1.42383e-17)
(0.872078 0.309983 6.91695e-17)
(0.821991 0.503873 -8.23498e-17)
(0.752302 0.553651 7.95699e-19)
(0.787385 0.513556 6.93411e-18)
(0.709385 0.469346 -1.65884e-19)
(0.692521 0.48834 -5.36484e-18)
(0.652538 0.472714 -1.48103e-18)
(1.01708 0.00496615 -4.62687e-17)
(1.01506 -0.00665755 0)
(1.02224 -0.000587671 1.19947e-17)
(1.00796 0.00775175 -1.70528e-17)
(1.02334 0.00574444 -2.29328e-17)
(1.01387 0.0143644 8.91126e-20)
(1.00917 0.0101598 0)
(1.00963 0.00277733 1.26417e-17)
(1.01572 0.00853778 6.00912e-19)
(1.00835 0.0086978 -4.08905e-18)
(1.01087 0.00453828 9.41245e-18)
(-0.00317886 1.81836 0)
(0.00799116 1.82666 0)
(0.00312602 1.8079 0)
(-0.000486111 1.81419 0)
(-0.081978 1.79999 -5.36809e-18)
(-0.0924553 1.77073 -1.09494e-16)
(-0.130471 1.83821 -3.32549e-17)
(-0.153823 1.80466 -8.7058e-17)
(-0.030118 1.80293 5.75383e-17)
(-0.024713 1.81742 6.25131e-17)
(-0.0622115 1.81107 1.21776e-16)
(-0.0409244 1.81812 5.77838e-17)
(-0.0186556 1.81821 1.02142e-17)
(-0.0113693 1.83253 1.46702e-18)
(-0.0558828 1.76143 -7.03832e-17)
(-0.0347466 1.80087 0)
(-0.0953143 1.8422 -4.1268e-17)
(-0.129223 1.845 -5.08743e-18)
(-0.0399112 1.92867 -1.82949e-17)
(0.0132659 1.88825 0)
(0.0111397 1.91131 5.48397e-17)
(0.0187867 1.96644 4.99117e-17)
(-0.0554495 1.89321 -6.34316e-17)
(-0.0694066 1.87302 -8.35163e-17)
(-0.0440333 1.83585 0)
(0.00906166 1.7456 3.27298e-17)
(0.0104709 1.71289 -2.22105e-17)
(0.0151147 1.73752 0)
(0.0165497 1.72641 2.13253e-17)
(-0.0148233 1.73614 1.77501e-17)
(0.00423167 1.79437 9.65861e-18)
(-0.00660111 1.78398 -1.01852e-16)
(-0.0175239 1.78485 -6.70443e-17)
(-0.0153594 1.78306 4.72805e-17)
(0.0100495 1.78354 0)
(0.011863 1.78927 0)
(-0.00208351 1.78335 -3.95598e-17)
(-0.00323761 1.76937 -3.74322e-18)
(-0.0014704 1.78103 0)
(-0.0108721 1.7937 3.37642e-17)
(-0.00589762 1.7887 7.57327e-19)
(1.01731 0.0339139 0)
(1.0247 0.0279337 7.76327e-20)
(1.00697 0.0199571 4.37961e-17)
(1.01612 0.0141814 0)
(1.01472 0.00823499 0)
(1.01682 0.0029548 2.16908e-17)
(1.01265 0.0111123 -5.33299e-17)
(1.00674 0.00721769 -1.50362e-17)
(1.00246 0.00635449 0)
(1.00615 0.00953523 0)
(1.00437 0.0145271 3.09827e-17)
(1.00082 0.0165866 0)
(1.00494 0.0142719 0)
(-0.00349763 1.77578 0)
(0.00238395 1.7734 -4.1931e-17)
(0.00320843 1.76463 4.33545e-17)
(-0.000975353 1.76446 0)
(0.0103369 1.77749 -3.95765e-17)
(-0.000212739 1.76846 -1.92487e-17)
(-0.00561117 1.76314 0)
(0.427871 1.96339 0)
(0.107601 1.69822 2.36013e-17)
(0.163511 1.93588 0)
(0.351725 1.41624 8.36802e-17)
(0.450345 1.35801 0)
(0.387465 1.42146 3.44298e-17)
(0.860179 2.17089 -3.02184e-19)
(0.774526 1.99162 -2.75046e-17)
(0.704371 1.81012 -2.02172e-17)
(0.681281 1.95739 -8.04336e-18)
(0.73701 2.09923 0)
(0.781693 2.06408 0)
(0.71059 1.97357 0)
(0.714682 1.94554 -4.02166e-18)
(0.474967 2.19642 -3.95612e-17)
(0.657764 2.12054 3.82554e-18)
(0.661152 2.14336 2.66382e-18)
(0.48306 1.90365 0)
(0.593199 1.94737 0)
(0.570073 1.88977 6.28814e-19)
(0.579693 2.12198 0)
(0.616035 1.2684 0)
(0.555457 1.15224 -6.50071e-17)
(0.550918 1.14781 -6.09989e-18)
(0.570541 1.25908 0)
(0.554647 1.22036 -7.15015e-17)
(0.728154 1.04544 -1.03477e-17)
(0.781065 1.18198 0)
(0.790583 1.09984 -2.9663e-17)
(0.672288 1.21106 0)
(0.614005 1.14642 0)
(0.930323 2.18598 1.34192e-17)
(0.910402 2.25692 -1.066e-17)
(0.769112 1.96655 -3.92991e-17)
(0.777987 1.95349 -3.29974e-18)
(0.916519 2.16475 0)
(0.885019 2.1514 -4.55624e-18)
(0.89273 2.01284 -5.60786e-18)
(0.829404 1.81598 -7.75124e-18)
(0.674478 1.50458 0)
(0.621923 1.33183 3.10484e-17)
(0.643852 1.366 0)
(0.814681 0.212358 0)
(0.780928 0.19 0)
(0.763407 0.201385 0)
(0.802871 0.244234 -8.43398e-18)
(0.753729 0.225661 5.49942e-18)
(0.924818 0.0748077 1.28382e-17)
(0.918274 0.115905 0)
(0.887155 0.0927212 -5.27893e-19)
(0.859474 0.073782 -3.85559e-18)
(0.870241 0.0551023 -5.81712e-18)
(1.03669 2.75427 -1.49922e-17)
(0.978383 2.6613 0)
(0.937643 2.83317 -5.3212e-17)
(0.583779 3.03718 -3.16266e-17)
(0.726553 2.55557 1.18774e-17)
(0.457705 1.17462 -2.5021e-17)
(0.51382 1.09833 0)
(0.234683 0.82863 6.77999e-18)
(0.257829 0.930375 4.27082e-17)
(0.184766 0.792854 9.81457e-18)
(0.257846 0.635663 5.50787e-18)
(0.481973 0.629957 -8.50122e-18)
(0.507789 0.684745 0)
(0.455145 0.778035 0)
(0.343291 0.731472 0)
(0.899091 0.68463 1.10418e-17)
(0.827499 0.605128 6.92365e-18)
(0.844756 0.642127 -2.27582e-18)
(0.861967 0.529831 2.01331e-17)
(0.975298 0.555275 0)
(0.967216 0.618781 -1.10457e-17)
(0.761389 0.419846 9.31926e-18)
(0.766102 0.368789 2.42234e-17)
(0.709542 0.409554 -3.30239e-18)
(0.716592 0.376048 1.56775e-18)
(0.767057 0.329694 -9.70623e-18)
(0.751267 0.311797 -1.59938e-17)
(1.02764 0.00369742 -3.99563e-17)
(1.02589 0.00228272 -3.29099e-17)
(1.02434 0.00974632 3.84214e-17)
(1.02425 0.00807842 4.96754e-17)
(1.01508 0.0233055 0)
(0.999938 0.0160109 -1.73116e-17)
(-0.0414851 1.78691 2.67182e-17)
(-0.0442593 1.80566 0)
(-0.10396 1.81906 -4.59602e-17)
(-0.117806 1.82786 -5.87579e-17)
(-0.136166 1.8276 -3.59677e-17)
(-0.105397 1.83253 0)
(0.0332159 1.78741 0)
(0.0171382 1.77992 -1.9533e-17)
(0.00382158 1.76167 -1.99919e-17)
(0.000296227 1.7694 -4.97672e-17)
(-0.00594188 1.77458 -1.01905e-17)
(0.027926 1.77666 -4.26087e-18)
(0.699048 1.52687 -1.13283e-16)
(0.653549 1.61755 -1.28798e-16)
(0.483497 1.45485 7.58824e-17)
(0.545101 1.6477 -4.91067e-18)
(0.706207 1.39262 0)
(0.580178 1.39538 7.58682e-17)
(0.636668 1.40706 6.88952e-17)
(0.548688 1.29148 6.86174e-17)
(0.692829 1.35021 0)
(0.697811 1.36868 0)
(0.427356 2.20373 -4.6472e-17)
(0.426718 2.08019 -6.51101e-17)
(0.49622 2.10848 -5.66448e-17)
(0.364169 2.07809 -2.47621e-18)
(0.25247 2.22454 2.41242e-18)
(0.244717 2.10388 -2.02653e-17)
(0.782418 1.92711 -1.18095e-17)
(0.832782 1.92758 0)
(0.744047 1.76851 3.1181e-18)
(0.876141 2.12899 0)
(0.851318 2.14135 0)
(0.560355 2.02608 -3.4216e-18)
(0.91732 2.49144 -4.09523e-18)
(0.792356 2.48798 -1.75627e-19)
(0.172725 1.23655 0)
(0.200322 1.18871 -1.54277e-17)
(0.434324 1.09401 -3.6445e-17)
(0.384973 1.96499 0)
(0.37724 2.34239 7.16475e-18)
(0.20092 2.30554 0)
(0.606233 0.845608 -1.55945e-17)
(0.645223 0.843965 -4.65206e-17)
(0.654984 0.792391 -2.48409e-17)
(0.484533 0.81324 -1.94004e-18)
(0.557891 0.71541 9.05823e-19)
(0.820848 2.29936 -9.65313e-18)
(0.886265 2.28614 -9.23412e-18)
(0.639054 1.98441 1.09662e-17)
(0.622952 1.70676 2.8781e-17)
(0.648201 1.75557 3.81336e-17)
(0.825684 2.06812 -2.96005e-17)
(0.835378 2.07567 -1.81119e-17)
(0.685022 1.73233 7.75714e-19)
(0.521579 1.4649 3.32339e-17)
)
;

boundaryField
{
    wall-4
    {
        type            calculated;
        value           uniform (0 0 0);
    }
    velocity-inlet-5
    {
        type            calculated;
        value           uniform (1 0 0);
    }
    velocity-inlet-6
    {
        type            calculated;
        value           uniform (0 3 0);
    }
    pressure-outlet-7
    {
        type            calculated;
        value           nonuniform List<vector> 8((-0.0140496 1.7015 0) (-0.00679784 1.6624 5.7471e-17) (0.00186153 1.76544 0) (-0.00756673 1.78817 0) (0.0012013 1.76082 0) (0.000734644 1.77879 0) (-0.00474052 1.76542 0) (0.00174564 1.76943 0));
    }
    wall-8
    {
        type            calculated;
        value           uniform (0 0 0);
    }
    frontAndBackPlanes
    {
        type            empty;
    }
}

