/*--------------------------------*- C++ -*----------------------------------*\
  =========                 |
  \\      /  F ield         | OpenFOAM: The Open Source CFD Toolbox
   \\    /   O peration     | Website:  https://openfoam.org
    \\  /    A nd           | Version:  6
     \\/     M anipulation  |
\*---------------------------------------------------------------------------*/
FoamFile
{
    version     2.0;
    format      ascii;
    class       volScalarField;
    location    "0";
    object      p;
}
// * * * * * * * * * * * * * * * * * * * * * * * * * * * * * * * * * * * * * //

dimensions      [0 2 -2 0 0 0 0];

internalField   nonuniform List<scalar> 
145945
(
2.38236e-06
2.38203e-06
2.38202e-06
2.38204e-06
2.38218e-06
2.38226e-06
2.38237e-06
2.38242e-06
2.38246e-06
2.38245e-06
2.38241e-06
2.38232e-06
2.38226e-06
2.38214e-06
2.38216e-06
2.38212e-06
2.38248e-06
2.38203e-06
2.38189e-06
2.38191e-06
2.38198e-06
2.38213e-06
2.38223e-06
2.38234e-06
2.3824e-06
2.38244e-06
2.38243e-06
2.38239e-06
2.3823e-06
2.38222e-06
2.3821e-06
2.38206e-06
2.382e-06
2.38215e-06
2.38202e-06
2.38191e-06
2.38193e-06
2.38206e-06
2.38221e-06
2.38234e-06
2.38245e-06
2.38252e-06
2.38256e-06
2.38254e-06
2.3825e-06
2.38241e-06
2.38232e-06
2.38219e-06
2.3821e-06
2.38203e-06
2.38214e-06
2.38204e-06
2.38198e-06
2.38206e-06
2.38222e-06
2.38239e-06
2.38253e-06
2.38265e-06
2.38272e-06
2.38276e-06
2.38275e-06
2.3827e-06
2.38261e-06
2.3825e-06
2.38236e-06
2.38224e-06
2.38213e-06
2.38217e-06
2.38218e-06
2.38213e-06
2.38221e-06
2.38239e-06
2.38258e-06
2.38272e-06
2.38284e-06
2.38292e-06
2.38296e-06
2.38294e-06
2.38289e-06
2.3828e-06
2.38269e-06
2.38254e-06
2.3824e-06
2.38228e-06
2.38231e-06
2.38226e-06
2.38223e-06
2.38234e-06
2.38253e-06
2.38272e-06
2.38288e-06
2.383e-06
2.38307e-06
2.38311e-06
2.3831e-06
2.38305e-06
2.38296e-06
2.38284e-06
2.38269e-06
2.38253e-06
2.38239e-06
2.3824e-06
2.38237e-06
2.38234e-06
2.38245e-06
2.38265e-06
2.38284e-06
2.383e-06
2.38312e-06
2.3832e-06
2.38323e-06
2.38322e-06
2.38317e-06
2.38308e-06
2.38296e-06
2.3828e-06
2.38264e-06
2.3825e-06
2.38251e-06
2.38242e-06
2.3824e-06
2.38252e-06
2.38272e-06
2.38292e-06
2.38307e-06
2.3832e-06
2.38328e-06
2.38331e-06
2.3833e-06
2.38325e-06
2.38316e-06
2.38303e-06
2.38288e-06
2.38271e-06
2.38256e-06
2.38256e-06
2.38246e-06
2.38244e-06
2.38256e-06
2.38276e-06
2.38296e-06
2.38311e-06
2.38323e-06
2.38331e-06
2.38335e-06
2.38334e-06
2.38329e-06
2.3832e-06
2.38307e-06
2.38292e-06
2.38275e-06
2.3826e-06
2.3826e-06
2.38245e-06
2.38243e-06
2.38254e-06
2.38275e-06
2.38294e-06
2.3831e-06
2.38322e-06
2.3833e-06
2.38334e-06
2.38333e-06
2.38328e-06
2.38319e-06
2.38306e-06
2.38291e-06
2.38274e-06
2.38258e-06
2.38259e-06
2.38241e-06
2.38239e-06
2.3825e-06
2.3827e-06
2.38289e-06
2.38305e-06
2.38317e-06
2.38325e-06
2.38329e-06
2.38328e-06
2.38323e-06
2.38313e-06
2.38301e-06
2.38286e-06
2.38269e-06
2.38254e-06
2.38255e-06
2.38232e-06
2.3823e-06
2.38241e-06
2.38261e-06
2.3828e-06
2.38296e-06
2.38308e-06
2.38316e-06
2.3832e-06
2.38319e-06
2.38313e-06
2.38304e-06
2.38292e-06
2.38276e-06
2.3826e-06
2.38245e-06
2.38246e-06
2.38226e-06
2.38222e-06
2.38232e-06
2.3825e-06
2.38269e-06
2.38284e-06
2.38296e-06
2.38303e-06
2.38307e-06
2.38306e-06
2.38301e-06
2.38292e-06
2.3828e-06
2.38265e-06
2.3825e-06
2.38237e-06
2.3824e-06
2.38215e-06
2.3821e-06
2.38219e-06
2.38236e-06
2.38254e-06
2.38269e-06
2.3828e-06
2.38288e-06
2.38292e-06
2.38291e-06
2.38286e-06
2.38276e-06
2.38265e-06
2.3825e-06
2.38237e-06
2.38225e-06
2.38228e-06
2.38216e-06
2.38206e-06
2.3821e-06
2.38224e-06
2.3824e-06
2.38253e-06
2.38264e-06
2.38271e-06
2.38275e-06
2.38274e-06
2.38269e-06
2.3826e-06
2.3825e-06
2.38237e-06
2.38227e-06
2.38219e-06
2.38229e-06
2.38212e-06
2.382e-06
2.38204e-06
2.38213e-06
2.38228e-06
2.38239e-06
2.3825e-06
2.38256e-06
2.3826e-06
2.38258e-06
2.38254e-06
2.38245e-06
2.38237e-06
2.38225e-06
2.38219e-06
2.38212e-06
2.38225e-06
2.38248e-06
2.38215e-06
2.38214e-06
2.38217e-06
2.38231e-06
2.3824e-06
2.38251e-06
2.38256e-06
2.3826e-06
2.38259e-06
2.38255e-06
2.38246e-06
2.3824e-06
2.38228e-06
2.38229e-06
2.38225e-06
2.3826e-06
2.30879e-06
2.30874e-06
2.30898e-06
2.30923e-06
2.30953e-06
2.30978e-06
2.30999e-06
2.31013e-06
2.31019e-06
2.31016e-06
2.31005e-06
2.30987e-06
2.30964e-06
2.30936e-06
2.30913e-06
2.30885e-06
2.30888e-06
2.30874e-06
2.30886e-06
2.30914e-06
2.30945e-06
2.30978e-06
2.31006e-06
2.31029e-06
2.31043e-06
2.3105e-06
2.31047e-06
2.31035e-06
2.31015e-06
2.3099e-06
2.30959e-06
2.3093e-06
2.30898e-06
2.30883e-06
2.30898e-06
2.30914e-06
2.30943e-06
2.30978e-06
2.31015e-06
2.31045e-06
2.31069e-06
2.31084e-06
2.31091e-06
2.31088e-06
2.31076e-06
2.31055e-06
2.31028e-06
2.30994e-06
2.3096e-06
2.30927e-06
2.30908e-06
2.30923e-06
2.30945e-06
2.30978e-06
2.31018e-06
2.31057e-06
2.31089e-06
2.31114e-06
2.31131e-06
2.31138e-06
2.31134e-06
2.31122e-06
2.311e-06
2.31071e-06
2.31035e-06
2.30997e-06
2.3096e-06
2.30933e-06
2.30953e-06
2.30978e-06
2.31015e-06
2.31057e-06
2.31097e-06
2.31131e-06
2.31157e-06
2.31173e-06
2.31181e-06
2.31177e-06
2.31164e-06
2.31142e-06
2.31111e-06
2.31074e-06
2.31034e-06
2.30993e-06
2.30964e-06
2.30978e-06
2.31006e-06
2.31045e-06
2.31089e-06
2.31131e-06
2.31165e-06
2.31192e-06
2.31209e-06
2.31216e-06
2.31213e-06
2.31199e-06
2.31177e-06
2.31146e-06
2.31107e-06
2.31065e-06
2.31022e-06
2.30989e-06
2.30999e-06
2.31029e-06
2.31069e-06
2.31114e-06
2.31157e-06
2.31192e-06
2.31219e-06
2.31236e-06
2.31243e-06
2.3124e-06
2.31226e-06
2.31203e-06
2.31172e-06
2.31133e-06
2.31089e-06
2.31045e-06
2.3101e-06
2.31013e-06
2.31043e-06
2.31084e-06
2.31131e-06
2.31173e-06
2.31209e-06
2.31236e-06
2.31253e-06
2.31261e-06
2.31257e-06
2.31244e-06
2.3122e-06
2.31189e-06
2.31149e-06
2.31105e-06
2.31059e-06
2.31024e-06
2.31019e-06
2.3105e-06
2.31091e-06
2.31138e-06
2.31181e-06
2.31216e-06
2.31243e-06
2.31261e-06
2.31268e-06
2.31265e-06
2.31251e-06
2.31228e-06
2.31196e-06
2.31156e-06
2.31112e-06
2.31066e-06
2.3103e-06
2.31016e-06
2.31046e-06
2.31088e-06
2.31134e-06
2.31177e-06
2.31213e-06
2.3124e-06
2.31257e-06
2.31265e-06
2.31262e-06
2.31248e-06
2.31224e-06
2.31193e-06
2.31153e-06
2.31109e-06
2.31063e-06
2.31027e-06
2.31005e-06
2.31035e-06
2.31076e-06
2.31122e-06
2.31164e-06
2.31199e-06
2.31226e-06
2.31244e-06
2.31251e-06
2.31248e-06
2.31234e-06
2.31211e-06
2.31179e-06
2.3114e-06
2.31096e-06
2.31051e-06
2.31016e-06
2.30987e-06
2.31015e-06
2.31055e-06
2.311e-06
2.31142e-06
2.31177e-06
2.31203e-06
2.3122e-06
2.31228e-06
2.31224e-06
2.31211e-06
2.31188e-06
2.31157e-06
2.31118e-06
2.31075e-06
2.31031e-06
2.30998e-06
2.30964e-06
2.3099e-06
2.31028e-06
2.31071e-06
2.31112e-06
2.31146e-06
2.31172e-06
2.31189e-06
2.31196e-06
2.31193e-06
2.31179e-06
2.31157e-06
2.31126e-06
2.31088e-06
2.31047e-06
2.31006e-06
2.30975e-06
2.30936e-06
2.30959e-06
2.30994e-06
2.31035e-06
2.31074e-06
2.31107e-06
2.31133e-06
2.31149e-06
2.31156e-06
2.31153e-06
2.3114e-06
2.31118e-06
2.31088e-06
2.31052e-06
2.31013e-06
2.30974e-06
2.30946e-06
2.30913e-06
2.3093e-06
2.3096e-06
2.30997e-06
2.31034e-06
2.31065e-06
2.31089e-06
2.31105e-06
2.31112e-06
2.31109e-06
2.31096e-06
2.31075e-06
2.31047e-06
2.31013e-06
2.30978e-06
2.30944e-06
2.30923e-06
2.30885e-06
2.30898e-06
2.30927e-06
2.3096e-06
2.30994e-06
2.31022e-06
2.31045e-06
2.3106e-06
2.31066e-06
2.31063e-06
2.31051e-06
2.31031e-06
2.31006e-06
2.30974e-06
2.30944e-06
2.30911e-06
2.30894e-06
2.30888e-06
2.30884e-06
2.30908e-06
2.30933e-06
2.30964e-06
2.30989e-06
2.3101e-06
2.31024e-06
2.3103e-06
2.31027e-06
2.31016e-06
2.30998e-06
2.30975e-06
2.30946e-06
2.30923e-06
2.30894e-06
2.30898e-06
2.25651e-06
2.25762e-06
2.25867e-06
2.25959e-06
2.26043e-06
2.26106e-06
2.26151e-06
2.26179e-06
2.26189e-06
2.26182e-06
2.26159e-06
2.26117e-06
2.26059e-06
2.25978e-06
2.25883e-06
2.25767e-06
2.25651e-06
2.25762e-06
2.25861e-06
2.25963e-06
2.26056e-06
2.26138e-06
2.26201e-06
2.26246e-06
2.26274e-06
2.26285e-06
2.26278e-06
2.26254e-06
2.26212e-06
2.26154e-06
2.26074e-06
2.25979e-06
2.25866e-06
2.25762e-06
2.25867e-06
2.25963e-06
2.26057e-06
2.26148e-06
2.26227e-06
2.26289e-06
2.26334e-06
2.26361e-06
2.26372e-06
2.26365e-06
2.26341e-06
2.263e-06
2.26242e-06
2.26165e-06
2.26072e-06
2.25967e-06
2.25867e-06
2.25959e-06
2.26056e-06
2.26148e-06
2.26236e-06
2.26313e-06
2.26374e-06
2.26418e-06
2.26445e-06
2.26455e-06
2.26449e-06
2.26426e-06
2.26385e-06
2.26328e-06
2.26253e-06
2.26161e-06
2.2606e-06
2.2596e-06
2.26043e-06
2.26138e-06
2.26227e-06
2.26313e-06
2.26389e-06
2.26449e-06
2.26492e-06
2.26519e-06
2.26529e-06
2.26523e-06
2.265e-06
2.2646e-06
2.26404e-06
2.2633e-06
2.2624e-06
2.26142e-06
2.26043e-06
2.26106e-06
2.26201e-06
2.26289e-06
2.26374e-06
2.26449e-06
2.26508e-06
2.26551e-06
2.26578e-06
2.26588e-06
2.26581e-06
2.26559e-06
2.26519e-06
2.26464e-06
2.26391e-06
2.26302e-06
2.26205e-06
2.26106e-06
2.26151e-06
2.26246e-06
2.26334e-06
2.26418e-06
2.26492e-06
2.26551e-06
2.26594e-06
2.2662e-06
2.2663e-06
2.26624e-06
2.26601e-06
2.26562e-06
2.26507e-06
2.26435e-06
2.26347e-06
2.2625e-06
2.26151e-06
2.26179e-06
2.26274e-06
2.26361e-06
2.26445e-06
2.26519e-06
2.26578e-06
2.2662e-06
2.26646e-06
2.26656e-06
2.2665e-06
2.26627e-06
2.26589e-06
2.26533e-06
2.26461e-06
2.26374e-06
2.26278e-06
2.26179e-06
2.26189e-06
2.26285e-06
2.26372e-06
2.26455e-06
2.26529e-06
2.26588e-06
2.2663e-06
2.26656e-06
2.26666e-06
2.2666e-06
2.26637e-06
2.26599e-06
2.26544e-06
2.26472e-06
2.26384e-06
2.26288e-06
2.2619e-06
2.26182e-06
2.26278e-06
2.26365e-06
2.26449e-06
2.26523e-06
2.26581e-06
2.26624e-06
2.2665e-06
2.2666e-06
2.26654e-06
2.26631e-06
2.26592e-06
2.26537e-06
2.26465e-06
2.26378e-06
2.26282e-06
2.26183e-06
2.26159e-06
2.26254e-06
2.26341e-06
2.26426e-06
2.265e-06
2.26559e-06
2.26601e-06
2.26627e-06
2.26637e-06
2.26631e-06
2.26609e-06
2.2657e-06
2.26514e-06
2.26442e-06
2.26354e-06
2.26258e-06
2.26159e-06
2.26117e-06
2.26212e-06
2.263e-06
2.26385e-06
2.2646e-06
2.26519e-06
2.26562e-06
2.26589e-06
2.26599e-06
2.26592e-06
2.2657e-06
2.2653e-06
2.26475e-06
2.26402e-06
2.26313e-06
2.26216e-06
2.26117e-06
2.26059e-06
2.26154e-06
2.26242e-06
2.26328e-06
2.26404e-06
2.26464e-06
2.26507e-06
2.26534e-06
2.26544e-06
2.26537e-06
2.26514e-06
2.26475e-06
2.26419e-06
2.26345e-06
2.26256e-06
2.26157e-06
2.26059e-06
2.25978e-06
2.26074e-06
2.26165e-06
2.26253e-06
2.2633e-06
2.26391e-06
2.26435e-06
2.26461e-06
2.26472e-06
2.26465e-06
2.26442e-06
2.26402e-06
2.26345e-06
2.2627e-06
2.26179e-06
2.26078e-06
2.25978e-06
2.25883e-06
2.25979e-06
2.26072e-06
2.26162e-06
2.26241e-06
2.26302e-06
2.26347e-06
2.26374e-06
2.26384e-06
2.26378e-06
2.26354e-06
2.26313e-06
2.26256e-06
2.26179e-06
2.26086e-06
2.25983e-06
2.25884e-06
2.25767e-06
2.25866e-06
2.25967e-06
2.2606e-06
2.26142e-06
2.26205e-06
2.2625e-06
2.26278e-06
2.26288e-06
2.26282e-06
2.26258e-06
2.26216e-06
2.26157e-06
2.26078e-06
2.25983e-06
2.25871e-06
2.25768e-06
2.25651e-06
2.25762e-06
2.25867e-06
2.2596e-06
2.26043e-06
2.26106e-06
2.26151e-06
2.26179e-06
2.2619e-06
2.26183e-06
2.26159e-06
2.26117e-06
2.26059e-06
2.25978e-06
2.25884e-06
2.25768e-06
2.25651e-06
2.20404e-06
2.20597e-06
2.20772e-06
2.20938e-06
2.21079e-06
2.21183e-06
2.21258e-06
2.21303e-06
2.21321e-06
2.21309e-06
2.2127e-06
2.21201e-06
2.21104e-06
2.2097e-06
2.20804e-06
2.20613e-06
2.20406e-06
2.20597e-06
2.20759e-06
2.2093e-06
2.21092e-06
2.21229e-06
2.21332e-06
2.21405e-06
2.21449e-06
2.21466e-06
2.21455e-06
2.21417e-06
2.21349e-06
2.21254e-06
2.21124e-06
2.20962e-06
2.20774e-06
2.206e-06
2.20772e-06
2.2093e-06
2.21093e-06
2.21249e-06
2.21381e-06
2.2148e-06
2.2155e-06
2.21593e-06
2.21609e-06
2.21599e-06
2.21561e-06
2.21497e-06
2.21405e-06
2.2128e-06
2.21124e-06
2.20944e-06
2.20775e-06
2.20938e-06
2.21092e-06
2.21249e-06
2.214e-06
2.21526e-06
2.21622e-06
2.2169e-06
2.21731e-06
2.21747e-06
2.21737e-06
2.21701e-06
2.21639e-06
2.2155e-06
2.2143e-06
2.21279e-06
2.21106e-06
2.20941e-06
2.21079e-06
2.21229e-06
2.2138e-06
2.21526e-06
2.21649e-06
2.21742e-06
2.21808e-06
2.21848e-06
2.21863e-06
2.21854e-06
2.21819e-06
2.21758e-06
2.21672e-06
2.21556e-06
2.2141e-06
2.21243e-06
2.21082e-06
2.21183e-06
2.21332e-06
2.2148e-06
2.21622e-06
2.21742e-06
2.21833e-06
2.21897e-06
2.21937e-06
2.21952e-06
2.21942e-06
2.21908e-06
2.21849e-06
2.21764e-06
2.21651e-06
2.21508e-06
2.21345e-06
2.21187e-06
2.21258e-06
2.21405e-06
2.2155e-06
2.2169e-06
2.21808e-06
2.21897e-06
2.21961e-06
2.22e-06
2.22015e-06
2.22005e-06
2.21971e-06
2.21913e-06
2.2183e-06
2.21719e-06
2.21578e-06
2.21418e-06
2.21262e-06
2.21303e-06
2.21449e-06
2.21593e-06
2.21731e-06
2.21848e-06
2.21937e-06
2.22e-06
2.22038e-06
2.22053e-06
2.22044e-06
2.2201e-06
2.21953e-06
2.2187e-06
2.2176e-06
2.21621e-06
2.21463e-06
2.21307e-06
2.21321e-06
2.21466e-06
2.21609e-06
2.21747e-06
2.21863e-06
2.21952e-06
2.22015e-06
2.22053e-06
2.22068e-06
2.22058e-06
2.22025e-06
2.21968e-06
2.21885e-06
2.21776e-06
2.21637e-06
2.2148e-06
2.21324e-06
2.21309e-06
2.21455e-06
2.21599e-06
2.21737e-06
2.21854e-06
2.21942e-06
2.22005e-06
2.22044e-06
2.22058e-06
2.22049e-06
2.22016e-06
2.21958e-06
2.21876e-06
2.21766e-06
2.21626e-06
2.21469e-06
2.21313e-06
2.2127e-06
2.21417e-06
2.21561e-06
2.21701e-06
2.21819e-06
2.21908e-06
2.21971e-06
2.2201e-06
2.22025e-06
2.22016e-06
2.21982e-06
2.21924e-06
2.21841e-06
2.2173e-06
2.21589e-06
2.2143e-06
2.21274e-06
2.21201e-06
2.21349e-06
2.21497e-06
2.21639e-06
2.21758e-06
2.21849e-06
2.21913e-06
2.21953e-06
2.21968e-06
2.21958e-06
2.21924e-06
2.21865e-06
2.21781e-06
2.21668e-06
2.21525e-06
2.21363e-06
2.21205e-06
2.21104e-06
2.21254e-06
2.21405e-06
2.2155e-06
2.21672e-06
2.21764e-06
2.2183e-06
2.2187e-06
2.21885e-06
2.21876e-06
2.21841e-06
2.21781e-06
2.21694e-06
2.21579e-06
2.21434e-06
2.21267e-06
2.21107e-06
2.2097e-06
2.21124e-06
2.2128e-06
2.2143e-06
2.21556e-06
2.21651e-06
2.21719e-06
2.2176e-06
2.21776e-06
2.21766e-06
2.2173e-06
2.21668e-06
2.21579e-06
2.2146e-06
2.2131e-06
2.21138e-06
2.20974e-06
2.20804e-06
2.20962e-06
2.21124e-06
2.21279e-06
2.2141e-06
2.21508e-06
2.21578e-06
2.21621e-06
2.21637e-06
2.21627e-06
2.2159e-06
2.21525e-06
2.21434e-06
2.2131e-06
2.21155e-06
2.20976e-06
2.20807e-06
2.20613e-06
2.20774e-06
2.20944e-06
2.21106e-06
2.21243e-06
2.21345e-06
2.21419e-06
2.21463e-06
2.2148e-06
2.21469e-06
2.2143e-06
2.21363e-06
2.21268e-06
2.21138e-06
2.20976e-06
2.20789e-06
2.20616e-06
2.20406e-06
2.206e-06
2.20775e-06
2.20941e-06
2.21082e-06
2.21187e-06
2.21262e-06
2.21307e-06
2.21324e-06
2.21313e-06
2.21274e-06
2.21205e-06
2.21107e-06
2.20974e-06
2.20807e-06
2.20616e-06
2.20408e-06
2.15265e-06
2.15488e-06
2.15686e-06
2.1588e-06
2.16043e-06
2.16165e-06
2.16253e-06
2.16307e-06
2.16327e-06
2.16314e-06
2.16267e-06
2.16186e-06
2.16071e-06
2.15917e-06
2.15721e-06
2.15506e-06
2.15267e-06
2.15488e-06
2.15673e-06
2.15869e-06
2.16059e-06
2.16219e-06
2.16341e-06
2.16428e-06
2.16481e-06
2.16501e-06
2.16488e-06
2.16442e-06
2.16362e-06
2.16248e-06
2.16095e-06
2.15904e-06
2.1569e-06
2.1549e-06
2.15686e-06
2.15869e-06
2.16061e-06
2.16245e-06
2.164e-06
2.16518e-06
2.16602e-06
2.16654e-06
2.16673e-06
2.16661e-06
2.16616e-06
2.16538e-06
2.16428e-06
2.1628e-06
2.16096e-06
2.15884e-06
2.15688e-06
2.1588e-06
2.16059e-06
2.16245e-06
2.16422e-06
2.16573e-06
2.16688e-06
2.1677e-06
2.1682e-06
2.16839e-06
2.16827e-06
2.16783e-06
2.16708e-06
2.166e-06
2.16457e-06
2.16278e-06
2.16073e-06
2.15883e-06
2.16043e-06
2.16219e-06
2.164e-06
2.16573e-06
2.1672e-06
2.16832e-06
2.16912e-06
2.16961e-06
2.16979e-06
2.16967e-06
2.16925e-06
2.16851e-06
2.16747e-06
2.16607e-06
2.16433e-06
2.16234e-06
2.16045e-06
2.16165e-06
2.16341e-06
2.16518e-06
2.16688e-06
2.16832e-06
2.16942e-06
2.17021e-06
2.17069e-06
2.17087e-06
2.17075e-06
2.17033e-06
2.16961e-06
2.16859e-06
2.16722e-06
2.16551e-06
2.16356e-06
2.16168e-06
2.16253e-06
2.16428e-06
2.16602e-06
2.1677e-06
2.16912e-06
2.17021e-06
2.17098e-06
2.17145e-06
2.17163e-06
2.17152e-06
2.1711e-06
2.1704e-06
2.16938e-06
2.16804e-06
2.16634e-06
2.16443e-06
2.16256e-06
2.16307e-06
2.16481e-06
2.16654e-06
2.1682e-06
2.16961e-06
2.17069e-06
2.17145e-06
2.17192e-06
2.1721e-06
2.17199e-06
2.17158e-06
2.17087e-06
2.16987e-06
2.16853e-06
2.16686e-06
2.16496e-06
2.16309e-06
2.16327e-06
2.16501e-06
2.16673e-06
2.16839e-06
2.16979e-06
2.17087e-06
2.17163e-06
2.1721e-06
2.17228e-06
2.17216e-06
2.17176e-06
2.17106e-06
2.17005e-06
2.16872e-06
2.16705e-06
2.16516e-06
2.1633e-06
2.16314e-06
2.16488e-06
2.16661e-06
2.16827e-06
2.16967e-06
2.17075e-06
2.17152e-06
2.17199e-06
2.17216e-06
2.17205e-06
2.17164e-06
2.17094e-06
2.16993e-06
2.1686e-06
2.16693e-06
2.16503e-06
2.16316e-06
2.16267e-06
2.16442e-06
2.16616e-06
2.16783e-06
2.16925e-06
2.17033e-06
2.1711e-06
2.17158e-06
2.17176e-06
2.17164e-06
2.17123e-06
2.17052e-06
2.16951e-06
2.16817e-06
2.16648e-06
2.16457e-06
2.1627e-06
2.16186e-06
2.16362e-06
2.16538e-06
2.16708e-06
2.16852e-06
2.16961e-06
2.1704e-06
2.17087e-06
2.17106e-06
2.17094e-06
2.17052e-06
2.1698e-06
2.16878e-06
2.16742e-06
2.16571e-06
2.16376e-06
2.16189e-06
2.16071e-06
2.16248e-06
2.16428e-06
2.16601e-06
2.16747e-06
2.16859e-06
2.16938e-06
2.16987e-06
2.17005e-06
2.16993e-06
2.16951e-06
2.16878e-06
2.16773e-06
2.16635e-06
2.16461e-06
2.16263e-06
2.16074e-06
2.15917e-06
2.16095e-06
2.1628e-06
2.16458e-06
2.16608e-06
2.16722e-06
2.16804e-06
2.16853e-06
2.16872e-06
2.1686e-06
2.16817e-06
2.16742e-06
2.16635e-06
2.16492e-06
2.16314e-06
2.1611e-06
2.15919e-06
2.15721e-06
2.15904e-06
2.16096e-06
2.16278e-06
2.16433e-06
2.16551e-06
2.16635e-06
2.16686e-06
2.16705e-06
2.16693e-06
2.16648e-06
2.16571e-06
2.16461e-06
2.16314e-06
2.1613e-06
2.15919e-06
2.15723e-06
2.15506e-06
2.1569e-06
2.15884e-06
2.16074e-06
2.16234e-06
2.16356e-06
2.16443e-06
2.16496e-06
2.16516e-06
2.16503e-06
2.16457e-06
2.16377e-06
2.16263e-06
2.1611e-06
2.15919e-06
2.15706e-06
2.15508e-06
2.15267e-06
2.1549e-06
2.15688e-06
2.15883e-06
2.16045e-06
2.16168e-06
2.16256e-06
2.16309e-06
2.1633e-06
2.16316e-06
2.1627e-06
2.16189e-06
2.16074e-06
2.15919e-06
2.15723e-06
2.15508e-06
2.15268e-06
2.10515e-06
2.10747e-06
2.10951e-06
2.11156e-06
2.11325e-06
2.11454e-06
2.11546e-06
2.11602e-06
2.11624e-06
2.11609e-06
2.1156e-06
2.11475e-06
2.11354e-06
2.11193e-06
2.10985e-06
2.10764e-06
2.10516e-06
2.10747e-06
2.10941e-06
2.11144e-06
2.11344e-06
2.11513e-06
2.11642e-06
2.11734e-06
2.11791e-06
2.11812e-06
2.11798e-06
2.11748e-06
2.11663e-06
2.11542e-06
2.11381e-06
2.11178e-06
2.10956e-06
2.10748e-06
2.10951e-06
2.11144e-06
2.11347e-06
2.11541e-06
2.11705e-06
2.11831e-06
2.11921e-06
2.11976e-06
2.11997e-06
2.11983e-06
2.11935e-06
2.11852e-06
2.11734e-06
2.11577e-06
2.11381e-06
2.11158e-06
2.10951e-06
2.11156e-06
2.11344e-06
2.11541e-06
2.11729e-06
2.1189e-06
2.12013e-06
2.12101e-06
2.12155e-06
2.12175e-06
2.12162e-06
2.12114e-06
2.12033e-06
2.11918e-06
2.11765e-06
2.11574e-06
2.11357e-06
2.11156e-06
2.11325e-06
2.11513e-06
2.11705e-06
2.1189e-06
2.12047e-06
2.12168e-06
2.12254e-06
2.12307e-06
2.12327e-06
2.12313e-06
2.12267e-06
2.12188e-06
2.12074e-06
2.11925e-06
2.11738e-06
2.11525e-06
2.11325e-06
2.11454e-06
2.11642e-06
2.11831e-06
2.12013e-06
2.12168e-06
2.12287e-06
2.12372e-06
2.12424e-06
2.12443e-06
2.1243e-06
2.12385e-06
2.12307e-06
2.12195e-06
2.12047e-06
2.11863e-06
2.11655e-06
2.11454e-06
2.11546e-06
2.11734e-06
2.11921e-06
2.12101e-06
2.12254e-06
2.12372e-06
2.12456e-06
2.12507e-06
2.12526e-06
2.12514e-06
2.12469e-06
2.12391e-06
2.12281e-06
2.12135e-06
2.11953e-06
2.11747e-06
2.11547e-06
2.11602e-06
2.1179e-06
2.11976e-06
2.12155e-06
2.12307e-06
2.12424e-06
2.12507e-06
2.12558e-06
2.12577e-06
2.12565e-06
2.1252e-06
2.12443e-06
2.12333e-06
2.12188e-06
2.12007e-06
2.11803e-06
2.11603e-06
2.11624e-06
2.11812e-06
2.11997e-06
2.12175e-06
2.12327e-06
2.12443e-06
2.12526e-06
2.12577e-06
2.12597e-06
2.12584e-06
2.12539e-06
2.12463e-06
2.12353e-06
2.12209e-06
2.12028e-06
2.11825e-06
2.11624e-06
2.11609e-06
2.11798e-06
2.11983e-06
2.12162e-06
2.12313e-06
2.1243e-06
2.12514e-06
2.12565e-06
2.12584e-06
2.12571e-06
2.12526e-06
2.1245e-06
2.1234e-06
2.12195e-06
2.12014e-06
2.1181e-06
2.1161e-06
2.1156e-06
2.11748e-06
2.11935e-06
2.12114e-06
2.12267e-06
2.12385e-06
2.12469e-06
2.1252e-06
2.12539e-06
2.12527e-06
2.12482e-06
2.12404e-06
2.12294e-06
2.12148e-06
2.11966e-06
2.11761e-06
2.11561e-06
2.11475e-06
2.11663e-06
2.11852e-06
2.12033e-06
2.12188e-06
2.12307e-06
2.12391e-06
2.12443e-06
2.12463e-06
2.1245e-06
2.12404e-06
2.12326e-06
2.12215e-06
2.12068e-06
2.11884e-06
2.11676e-06
2.11475e-06
2.11354e-06
2.11542e-06
2.11734e-06
2.11918e-06
2.12075e-06
2.12195e-06
2.12281e-06
2.12333e-06
2.12353e-06
2.1234e-06
2.12294e-06
2.12215e-06
2.12102e-06
2.11952e-06
2.11766e-06
2.11555e-06
2.11354e-06
2.11193e-06
2.11381e-06
2.11577e-06
2.11765e-06
2.11925e-06
2.12047e-06
2.12135e-06
2.12188e-06
2.12209e-06
2.12195e-06
2.12148e-06
2.12068e-06
2.11952e-06
2.118e-06
2.1161e-06
2.11394e-06
2.11193e-06
2.10985e-06
2.11178e-06
2.11381e-06
2.11574e-06
2.11738e-06
2.11863e-06
2.11953e-06
2.12007e-06
2.12028e-06
2.12014e-06
2.11966e-06
2.11884e-06
2.11766e-06
2.1161e-06
2.11414e-06
2.11192e-06
2.10985e-06
2.10765e-06
2.10956e-06
2.11158e-06
2.11357e-06
2.11525e-06
2.11655e-06
2.11747e-06
2.11803e-06
2.11825e-06
2.11811e-06
2.11761e-06
2.11676e-06
2.11555e-06
2.11394e-06
2.11192e-06
2.10971e-06
2.10765e-06
2.10516e-06
2.10748e-06
2.10951e-06
2.11156e-06
2.11325e-06
2.11454e-06
2.11547e-06
2.11603e-06
2.11624e-06
2.1161e-06
2.11561e-06
2.11475e-06
2.11354e-06
2.11193e-06
2.10985e-06
2.10765e-06
2.10516e-06
2.06116e-06
2.06342e-06
2.0654e-06
2.06744e-06
2.06911e-06
2.0704e-06
2.07132e-06
2.07188e-06
2.07209e-06
2.07195e-06
2.07146e-06
2.0706e-06
2.06939e-06
2.06781e-06
2.06573e-06
2.06358e-06
2.06116e-06
2.06342e-06
2.06532e-06
2.06731e-06
2.0693e-06
2.07098e-06
2.07228e-06
2.07321e-06
2.07377e-06
2.07399e-06
2.07384e-06
2.07335e-06
2.07249e-06
2.07127e-06
2.06967e-06
2.06764e-06
2.06547e-06
2.06342e-06
2.0654e-06
2.06731e-06
2.06932e-06
2.07126e-06
2.07292e-06
2.07419e-06
2.07509e-06
2.07565e-06
2.07586e-06
2.07572e-06
2.07523e-06
2.07439e-06
2.0732e-06
2.07163e-06
2.06966e-06
2.06744e-06
2.06541e-06
2.06744e-06
2.0693e-06
2.07126e-06
2.07316e-06
2.07478e-06
2.07603e-06
2.07692e-06
2.07747e-06
2.07768e-06
2.07754e-06
2.07706e-06
2.07623e-06
2.07506e-06
2.07351e-06
2.07159e-06
2.06943e-06
2.06744e-06
2.06911e-06
2.07098e-06
2.07291e-06
2.07478e-06
2.07638e-06
2.07761e-06
2.07849e-06
2.07902e-06
2.07923e-06
2.07909e-06
2.07862e-06
2.07781e-06
2.07665e-06
2.07513e-06
2.07324e-06
2.0711e-06
2.06911e-06
2.0704e-06
2.07228e-06
2.07419e-06
2.07603e-06
2.07761e-06
2.07883e-06
2.07969e-06
2.08022e-06
2.08043e-06
2.08029e-06
2.07982e-06
2.07902e-06
2.07788e-06
2.07638e-06
2.07451e-06
2.0724e-06
2.0704e-06
2.07132e-06
2.07321e-06
2.07509e-06
2.07692e-06
2.07849e-06
2.07969e-06
2.08055e-06
2.08108e-06
2.08128e-06
2.08115e-06
2.08068e-06
2.07989e-06
2.07876e-06
2.07727e-06
2.07541e-06
2.07333e-06
2.07132e-06
2.07188e-06
2.07377e-06
2.07565e-06
2.07747e-06
2.07902e-06
2.08022e-06
2.08108e-06
2.0816e-06
2.0818e-06
2.08167e-06
2.08121e-06
2.08042e-06
2.07929e-06
2.07781e-06
2.07596e-06
2.0739e-06
2.07188e-06
2.07209e-06
2.07399e-06
2.07586e-06
2.07768e-06
2.07923e-06
2.08043e-06
2.08128e-06
2.0818e-06
2.082e-06
2.08187e-06
2.08141e-06
2.08062e-06
2.0795e-06
2.07802e-06
2.07617e-06
2.07411e-06
2.0721e-06
2.07195e-06
2.07384e-06
2.07572e-06
2.07754e-06
2.07909e-06
2.08029e-06
2.08115e-06
2.08167e-06
2.08187e-06
2.08174e-06
2.08128e-06
2.08049e-06
2.07936e-06
2.07788e-06
2.07603e-06
2.07397e-06
2.07195e-06
2.07146e-06
2.07335e-06
2.07523e-06
2.07706e-06
2.07862e-06
2.07983e-06
2.08068e-06
2.08121e-06
2.08141e-06
2.08128e-06
2.08081e-06
2.08002e-06
2.07889e-06
2.0774e-06
2.07555e-06
2.07347e-06
2.07146e-06
2.0706e-06
2.07249e-06
2.07439e-06
2.07623e-06
2.07781e-06
2.07902e-06
2.07989e-06
2.08042e-06
2.08062e-06
2.08049e-06
2.08002e-06
2.07922e-06
2.07808e-06
2.07658e-06
2.07471e-06
2.07261e-06
2.0706e-06
2.06939e-06
2.07127e-06
2.0732e-06
2.07506e-06
2.07665e-06
2.07788e-06
2.07876e-06
2.07929e-06
2.0795e-06
2.07936e-06
2.07889e-06
2.07808e-06
2.07693e-06
2.07541e-06
2.07352e-06
2.07139e-06
2.06939e-06
2.06781e-06
2.06967e-06
2.07163e-06
2.07351e-06
2.07513e-06
2.07638e-06
2.07727e-06
2.07781e-06
2.07802e-06
2.07788e-06
2.0774e-06
2.07658e-06
2.07541e-06
2.07387e-06
2.07196e-06
2.06979e-06
2.06781e-06
2.06573e-06
2.06764e-06
2.06966e-06
2.0716e-06
2.07324e-06
2.07451e-06
2.07541e-06
2.07597e-06
2.07618e-06
2.07604e-06
2.07555e-06
2.07471e-06
2.07352e-06
2.07196e-06
2.06999e-06
2.06778e-06
2.06574e-06
2.06359e-06
2.06547e-06
2.06744e-06
2.06943e-06
2.07111e-06
2.0724e-06
2.07333e-06
2.0739e-06
2.07411e-06
2.07397e-06
2.07347e-06
2.07261e-06
2.07139e-06
2.0698e-06
2.06778e-06
2.06561e-06
2.06359e-06
2.06116e-06
2.06342e-06
2.06541e-06
2.06744e-06
2.06911e-06
2.0704e-06
2.07132e-06
2.07188e-06
2.0721e-06
2.07195e-06
2.07146e-06
2.07061e-06
2.06939e-06
2.06781e-06
2.06573e-06
2.06359e-06
2.06117e-06
2.02011e-06
2.0222e-06
2.02405e-06
2.02597e-06
2.02753e-06
2.02876e-06
2.02963e-06
2.03017e-06
2.03037e-06
2.03023e-06
2.02976e-06
2.02895e-06
2.0278e-06
2.02632e-06
2.02435e-06
2.02235e-06
2.02011e-06
2.0222e-06
2.02397e-06
2.02583e-06
2.02772e-06
2.0293e-06
2.03054e-06
2.03143e-06
2.03197e-06
2.03218e-06
2.03204e-06
2.03156e-06
2.03074e-06
2.02958e-06
2.02807e-06
2.02614e-06
2.02411e-06
2.0222e-06
2.02405e-06
2.02583e-06
2.02773e-06
2.02958e-06
2.03115e-06
2.03237e-06
2.03324e-06
2.03378e-06
2.03398e-06
2.03385e-06
2.03337e-06
2.03257e-06
2.03142e-06
2.02992e-06
2.02805e-06
2.02596e-06
2.02405e-06
2.02597e-06
2.02772e-06
2.02958e-06
2.03139e-06
2.03294e-06
2.03415e-06
2.03501e-06
2.03554e-06
2.03574e-06
2.03561e-06
2.03514e-06
2.03434e-06
2.03321e-06
2.03173e-06
2.02989e-06
2.02784e-06
2.02597e-06
2.02753e-06
2.0293e-06
2.03115e-06
2.03294e-06
2.03448e-06
2.03567e-06
2.03653e-06
2.03705e-06
2.03725e-06
2.03712e-06
2.03666e-06
2.03587e-06
2.03475e-06
2.03328e-06
2.03146e-06
2.02942e-06
2.02753e-06
2.02876e-06
2.03054e-06
2.03237e-06
2.03415e-06
2.03567e-06
2.03686e-06
2.0377e-06
2.03822e-06
2.03842e-06
2.03829e-06
2.03783e-06
2.03705e-06
2.03594e-06
2.03448e-06
2.03268e-06
2.03066e-06
2.02876e-06
2.02963e-06
2.03143e-06
2.03324e-06
2.03501e-06
2.03653e-06
2.0377e-06
2.03854e-06
2.03906e-06
2.03925e-06
2.03912e-06
2.03867e-06
2.03789e-06
2.03679e-06
2.03534e-06
2.03355e-06
2.03155e-06
2.02963e-06
2.03017e-06
2.03197e-06
2.03378e-06
2.03554e-06
2.03705e-06
2.03822e-06
2.03906e-06
2.03957e-06
2.03977e-06
2.03964e-06
2.03918e-06
2.03841e-06
2.03731e-06
2.03587e-06
2.03408e-06
2.03209e-06
2.03017e-06
2.03037e-06
2.03218e-06
2.03398e-06
2.03574e-06
2.03725e-06
2.03842e-06
2.03925e-06
2.03977e-06
2.03996e-06
2.03983e-06
2.03938e-06
2.03861e-06
2.03751e-06
2.03607e-06
2.03428e-06
2.0323e-06
2.03037e-06
2.03023e-06
2.03204e-06
2.03384e-06
2.03561e-06
2.03712e-06
2.03829e-06
2.03912e-06
2.03964e-06
2.03983e-06
2.0397e-06
2.03925e-06
2.03848e-06
2.03738e-06
2.03594e-06
2.03415e-06
2.03216e-06
2.03023e-06
2.02976e-06
2.03156e-06
2.03337e-06
2.03514e-06
2.03666e-06
2.03783e-06
2.03867e-06
2.03918e-06
2.03938e-06
2.03925e-06
2.0388e-06
2.03802e-06
2.03692e-06
2.03547e-06
2.03368e-06
2.03168e-06
2.02976e-06
2.02895e-06
2.03074e-06
2.03257e-06
2.03434e-06
2.03587e-06
2.03705e-06
2.03789e-06
2.03841e-06
2.03861e-06
2.03848e-06
2.03802e-06
2.03724e-06
2.03613e-06
2.03468e-06
2.03288e-06
2.03086e-06
2.02895e-06
2.0278e-06
2.02958e-06
2.03142e-06
2.03321e-06
2.03475e-06
2.03594e-06
2.03679e-06
2.03731e-06
2.03751e-06
2.03738e-06
2.03692e-06
2.03613e-06
2.03501e-06
2.03355e-06
2.03173e-06
2.0297e-06
2.0278e-06
2.02632e-06
2.02807e-06
2.02993e-06
2.03173e-06
2.03328e-06
2.03448e-06
2.03534e-06
2.03587e-06
2.03607e-06
2.03594e-06
2.03547e-06
2.03468e-06
2.03355e-06
2.03207e-06
2.03024e-06
2.02819e-06
2.02632e-06
2.02435e-06
2.02615e-06
2.02805e-06
2.0299e-06
2.03147e-06
2.03268e-06
2.03355e-06
2.03408e-06
2.03429e-06
2.03415e-06
2.03368e-06
2.03288e-06
2.03174e-06
2.03024e-06
2.02837e-06
2.02627e-06
2.02435e-06
2.02235e-06
2.02411e-06
2.02596e-06
2.02784e-06
2.02942e-06
2.03066e-06
2.03155e-06
2.03209e-06
2.0323e-06
2.03216e-06
2.03168e-06
2.03086e-06
2.0297e-06
2.02819e-06
2.02627e-06
2.02425e-06
2.02236e-06
2.02011e-06
2.0222e-06
2.02405e-06
2.02597e-06
2.02753e-06
2.02876e-06
2.02963e-06
2.03017e-06
2.03037e-06
2.03023e-06
2.02976e-06
2.02895e-06
2.0278e-06
2.02632e-06
2.02435e-06
2.02235e-06
2.02012e-06
1.98166e-06
1.98353e-06
1.9852e-06
1.98696e-06
1.98838e-06
1.9895e-06
1.9903e-06
1.9908e-06
1.99098e-06
1.99086e-06
1.99042e-06
1.98968e-06
1.98862e-06
1.98727e-06
1.98548e-06
1.98367e-06
1.98166e-06
1.98353e-06
1.98514e-06
1.98683e-06
1.98855e-06
1.99e-06
1.99114e-06
1.99196e-06
1.99246e-06
1.99265e-06
1.99253e-06
1.99208e-06
1.99133e-06
1.99025e-06
1.98887e-06
1.98711e-06
1.98526e-06
1.98353e-06
1.9852e-06
1.98683e-06
1.98856e-06
1.99026e-06
1.99171e-06
1.99283e-06
1.99364e-06
1.99414e-06
1.99433e-06
1.9942e-06
1.99376e-06
1.99301e-06
1.99195e-06
1.99057e-06
1.98885e-06
1.98694e-06
1.9852e-06
1.98696e-06
1.98855e-06
1.99026e-06
1.99192e-06
1.99336e-06
1.99448e-06
1.99528e-06
1.99578e-06
1.99596e-06
1.99584e-06
1.9954e-06
1.99466e-06
1.99361e-06
1.99224e-06
1.99054e-06
1.98866e-06
1.98696e-06
1.98838e-06
1.99e-06
1.99171e-06
1.99336e-06
1.99479e-06
1.99591e-06
1.9967e-06
1.99719e-06
1.99738e-06
1.99725e-06
1.99682e-06
1.99608e-06
1.99504e-06
1.99367e-06
1.99199e-06
1.99011e-06
1.98837e-06
1.9895e-06
1.99114e-06
1.99283e-06
1.99448e-06
1.99591e-06
1.99701e-06
1.9978e-06
1.99829e-06
1.99848e-06
1.99835e-06
1.99792e-06
1.99719e-06
1.99615e-06
1.99479e-06
1.99312e-06
1.99125e-06
1.9895e-06
1.9903e-06
1.99196e-06
1.99364e-06
1.99528e-06
1.9967e-06
1.9978e-06
1.99859e-06
1.99908e-06
1.99926e-06
1.99914e-06
1.99871e-06
1.99798e-06
1.99695e-06
1.99559e-06
1.99392e-06
1.99207e-06
1.9903e-06
1.99079e-06
1.99246e-06
1.99414e-06
1.99578e-06
1.99719e-06
1.99829e-06
1.99908e-06
1.99956e-06
1.99975e-06
1.99963e-06
1.9992e-06
1.99847e-06
1.99744e-06
1.99608e-06
1.99442e-06
1.99257e-06
1.99079e-06
1.99098e-06
1.99265e-06
1.99432e-06
1.99596e-06
1.99738e-06
1.99848e-06
1.99926e-06
1.99975e-06
1.99993e-06
1.99981e-06
1.99938e-06
1.99865e-06
1.99762e-06
1.99627e-06
1.99461e-06
1.99276e-06
1.99098e-06
1.99086e-06
1.99253e-06