/*--------------------------------*- C++ -*----------------------------------*\
  =========                 |
  \\      /  F ield         | OpenFOAM: The Open Source CFD Toolbox
   \\    /   O peration     | Website:  https://openfoam.org
    \\  /    A nd           | Version:  6
     \\/     M anipulation  |
\*---------------------------------------------------------------------------*/
FoamFile
{
    version     2.0;
    format      ascii;
    class       volScalarField;
    location    "0";
    object      p;
}
// * * * * * * * * * * * * * * * * * * * * * * * * * * * * * * * * * * * * * //

dimensions      [0 2 -2 0 0 0 0];

internalField   nonuniform List<scalar> 
13046
(
0.41278
0.280096
0.287544
0.407544
0.323116
0.269371
0.4073
0.257986
0.322121
0.486744
-0.0888654
0.233312
0.438231
0.211788
0.277877
0.488353
0.209239
-0.0413601
0.376482
0.288966
0.361131
0.486661
0.220769
-0.0508876
0.400616
0.308615
0.300189
0.435024
0.216187
0.27117
0.427901
0.265124
0.265069
0.390978
0.316523
0.312794
0.380139
0.331024
0.319466
0.404203
0.230941
0.316621
0.35018
0.354304
0.334044
0.366055
0.345417
0.316053
0.411428
0.264489
0.293778
0.157488
0.392726
0.332204
0.15309
0.345429
0.383682
0.11484
0.467664
0.181117
0.441947
0.118979
0.29807
0.239147
-0.00602939
0.482706
0.463085
0.137139
0.170484
0.459647
0.155238
0.169414
0.0879197
0.475158
0.182213
0.38253
0.289838
0.35272
0.199229
0.476263
0.0527987
0.403597
0.291317
0.302128
0.235871
-0.0273278
0.483066
0.457078
0.276276
-0.0142554
0.306568
0.422052
-0.0367228
0.468608
0.465173
0.110137
0.088652
0.248195
0.255226
0.289652
0.445366
-0.00966626
0.37914
0.347546
0.300917
0.36642
0.371305
0.180964
0.387791
0.197845
0.341558
0.477977
0.234827
-0.138663
0.435398
0.231606
0.277922
0.474692
0.468868
0.0855243
0.228352
0.110852
0.233596
0.485908
-0.0991846
0.2301
0.454723
0.156022
0.260103
0.414326
0.234276
0.298786
0.314758
0.420294
-0.0233496
0.471825
0.0445395
0.25939
0.439081
0.245331
0.258164
0.422971
0.200839
0.322612
0.381212
0.180496
0.353568
0.366287
0.381152
0.199398
0.452929
0.0986171
0.291722
0.358904
0.383283
0.231487
0.119477
0.377343
0.101861
0.390016
0.360837
0.35177
0.411899
0.173138
0.342218
0.475378
0.247835
-0.0985779
0.485737
0.230427
-0.127002
0.47255
0.0360664
0.251429
0.428797
0.263575
0.208514
0.404365
0.348513
0.185423
0.261096
-0.0719111
0.462747
0.420442
0.282977
0.208416
0.359847
0.377187
0.214874
0.419604
0.211515
0.322397
0.183201
0.287174
0.451198
0.173316
0.260646
0.474121
0.257435
-0.0327207
0.307177
0.430462
-0.00482946
0.443349
-0.0466317
0.295008
0.133372
0.313158
0.396507
0.427697
0.471442
0.181279
0.0665024
-0.0576846
0.445404
0.288138
0.379983
0.337989
0.304816
0.434478
0.233887
0.262892
0.317455
0.417679
-0.0082896
0.436362
0.188143
0.298732
0.251451
-0.12572
0.468015
0.3873
0.327176
0.120844
0.440447
-0.0266191
0.297473
0.392085
0.137561
0.350288
0.45497
0.162819
0.256921
0.0241736
0.396521
0.337184
0.391262
0.0795565
0.347106
0.257557
-0.131261
0.463081
0.404742
0.199826
0.311749
0.492152
0.220153
-0.147268
0.3589
0.379176
0.281582
0.424738
0.401948
0.138902
0.154864
0.341607
0.321629
0.186229
0.485568
0.0295971
0.4539
0.186155
0.244968
0.394395
0.0595969
0.341454
0.473603
0.0617822
0.242469
0.354941
0.334836
0.343829
0.401413
0.109102
0.343757
0.456252
0.180946
0.233147
0.441739
0.449689
0.409919
0.184713
0.299616
0.412136
0.093859
0.332918
0.472584
0.245952
0.0420686
0.397052
0.208122
0.330698
0.369753
0.360311
0.106226
0.470943
0.116895
0.21064
0.402414
0.163644
0.315332
0.473765
0.473002
0.0966795
0.211177
0.0849083
0.220053
0.25446
-0.0637781
0.468792
0.460499
0.13529
0.235968
-0.167156
0.237815
0.464719
0.384407
0.363048
0.236398
0.441591
0.141966
0.297428
0.260791
0.470269
-0.0116129
0.137922
0.343248
0.382259
0.010782
0.402404
0.330836
0.219166
0.300712
0.452157
0.137404
0.282423
0.205851
0.313693
0.490718
0.206631
-0.0239217
0.13577
0.292944
0.407102
0.457331
0.117698
0.274157
0.408834
0.18561
0.336205
0.358036
0.170117
0.376723
0.413615
0.265679
0.302565
0.374103
0.354809
0.113532
0.462752
-0.0429992
0.270994
0.0159841
0.411103
0.325498
0.44442
0.169696
0.199882
0.480679
0.475667
0.0878869
0.0672293
0.19239
0.198627
0.230934
-0.159916
0.477114
0.49167
0.218804
-0.14082
0.434882
0.120644
0.315383
0.249821
0.479545
-0.0446672
0.457604
0.464545
0.156855
0.137764
0.20021
0.197487
0.286139
-0.0907611
0.444898
0.490808
0.215564
-0.147529
0.341662
0.376244
0.306538
0.486615
-0.143846
0.226669
0.438224
0.241325
0.206784
0.459196
-0.0695684
0.26725
-0.16183
0.248927
0.451098
0.393832
0.237101
0.334266
0.388169
0.281836
0.344229
0.484368
0.230207
-0.104115
0.387011
0.261151
0.345748
0.343807
0.36779
0.320002
0.387036
0.328158
0.111407
0.360478
0.274938
0.370753
0.378367
0.241296
0.370123
0.437498
0.219665
0.163905
0.227268
0.238144
-0.0566285
-0.0640909
0.481159
0.478351
0.457902
-0.0574278
0.27429
0.171345
0.449716
0.181139
0.408724
0.202045
0.305265
0.377735
0.0692009
0.355415
-0.150843
0.26416
0.443433
0.303001
0.426812
-0.0479382
0.481813
0.235814
-0.117261
0.243615
-0.165641
0.456329
-0.176688
0.233025
0.47255
0.0736797
0.441988
0.303899
-0.125565
0.280411
0.443755
0.465278
0.0312883
0.268968
0.49546
0.19544
-0.0686932
0.428237
0.295901
0.238097
-0.0772128
0.291319
0.439826
0.367284
0.362047
0.0812711
0.0571226
0.402419
0.334077
0.235644
-0.192094
0.444711
-0.156622
0.24407
0.456155
0.422678
0.308049
0.250087
-0.0977226
0.452417
0.278982
0.290894
0.433824
-0.102509
0.478516
0.245086
-0.044537
0.203158
0.0178501
0.481858
0.432925
0.229337
0.157561
0.112308
0.468277
0.199623
0.191487
0.4908
-0.010328
0.441104
0.45221
0.22636
0.199473
0.231263
0.23233
0.436488
0.244673
0.224516
0.455412
0.163619
0.191866
0.0310449
0.413849
0.324506
-0.0564195
0.445745
0.283065
0.307784
0.434035
0.0156192
-0.178065
0.229694
0.476987
0.411955
0.412128
0.257613
0.301565
0.271404
0.296997
0.449883
0.437125
0.195504
0.200018
0.192486
0.228615
-0.168915
0.258215
0.437735
-0.0920726
0.452322
0.279245
0.414668
0.172621
0.286409
0.0415363
0.392216
0.342803
0.199276
0.0329765
0.480443
-0.143622
0.468033
0.247075
-0.136699
0.46484
0.252925
0.46304
0.138619
0.213128
0.390628
0.208627
0.344189
0.483886
0.237772
-0.0577556
0.0610976
0.429713
0.310375
0.240675
0.0188432
0.478258
0.429887
0.194045
0.24346
0.385164
0.148125
0.357445
0.402789
0.217305
0.318015
0.244736
-0.0720509
0.477575
0.475164
0.0643932
0.231166
0.398967
0.25144
0.325832
0.491727
0.188314
-0.0299544
0.427855
0.257744
0.254765
0.402998
0.219735
0.341117
0.0732098
0.417827
0.325111
0.49608
0.207069
-0.108674
0.49589
0.201782
-0.100111
0.230788
0.0197465
0.480647
0.378842
0.140789
0.362778
0.205225
-0.123728
0.493399
0.265207
0.00725007
0.468612
0.247966
-0.176211
0.43973
0.467865
-0.172144
0.227429
0.200815
-0.00705608
0.488433
0.25353
-0.106346
0.469884
0.493371
0.488152
0.217653
-0.0425472
0.224882
-0.0257923
0.459173
0.00485215
0.276685
0.35598
0.0566164
0.372909
0.413214
0.284447
0.293011
0.443673
0.0206078
0.295738
0.302758
0.436908
0.0314935
0.489904
0.185747
0.00724039
0.451121
0.189376
0.186665
0.444468
0.222701
0.200046
0.446094
0.0813664
0.291492
0.442011
0.0666536
0.298593
0.394946
0.254326
0.335824
0.4517
0.194214
0.227972
0.305832
-0.0819328
0.422817
0.45024
0.265106
-0.145469
0.448996
0.267169
-0.144927
0.41968
0.22773
0.282873
-0.155074
0.250131
0.460774
0.480461
0.226133
0.0393908
0.257362
-0.151333
0.446089
0.397565
0.334538
0.278369
0.454546
0.16319
0.275283
0.149505
0.36218
0.373401
0.28335
-0.121266
0.444979
0.0572624
0.422979
0.319217
0.195168
0.494835
-0.0483927
0.451865
0.147918
0.275751
0.405115
0.294501
0.30189
-0.107086
0.452091
0.273812
0.252399
0.0018381
0.471929
0.492543
0.490018
0.220281
0.223395
-0.118407
-0.129929
0.420642
0.160144
0.325959
0.0881724
0.437627
0.307299
0.399984
0.243296
0.330481
-0.131275
0.448071
-0.130283
0.269773
0.445452
0.274763
0.460489
0.0908021
0.27108
0.460312
0.461029
-0.110886
-0.124524
0.266086
0.263313
0.413908
0.109852
0.327968
0.422442
0.172477
0.295367
0.492587
0.204905
-0.0789674
0.434159
0.154513
0.31267
0.415785
0.216374
0.317215
0.49502
0.208012
-0.10028
0.465629
0.128088
0.251327
0.0865481
0.348866
0.373008
0.43465
0.235828
0.180449
-0.0176177
0.331083
0.403075
0.23679
-0.184571
0.450327
0.445024
0.151236
0.290903
0.495145
0.212052
-0.0703464
0.148385
0.261231
0.418459
0.478942
0.218727
-0.153011
0.368991
0.373651
0.217043
0.366393
0.20442
0.369412
0.398938
0.240179
0.340546
0.388305
0.378362
0.228233
0.349077
0.241927
0.355519
0.439632
0.187135
0.31357
0.424247
0.182841
0.320986
0.277171
-0.145839
0.437145
0.430362
0.262832
0.226375
0.464518
-0.0959609
0.258711
0.458133
0.463553
0.0641162
0.041905
0.278696
0.273428
0.423138
0.275081
0.244588
0.456021
0.171621
0.202729
0.447973
0.107269
0.287099
0.383767
0.328638
0.301445
0.448564
0.0376765
0.291159
0.407561
0.269989
0.309946
0.428028
0.112461
0.316543
0.452502
0.178365
0.210628
0.386771
0.386577
0.325355
0.298189
0.337359
0.286326
0.385438
0.246859
0.379902
0.350507
0.258797
0.357547
0.438198
0.446273
0.231207
0.212626
0.244999
0.241493
0.2075
0.0202531
0.485335
0.378406
0.345137
0.102001
0.215689
0.223935
-0.00331599
-0.00306747
0.484819
0.483013
0.40249
0.159077
0.309847
0.372313
0.327021
0.331751
0.456505
0.0288269
0.280864
0.422339
0.245172
0.2851
0.456732
0.162636
0.214704
0.47974
0.480083
0.0552399
0.206396
0.0576847
0.212615
0.466308
0.0676361
0.265832
0.483077
-0.150343
0.220982
0.145348
0.282439
0.410752
0.42509
0.419861
0.155622
0.249281
0.170626
0.26472
0.423661
0.0329497
0.316058
0.448885
0.191623
0.20537
0.413177
0.160438
0.287713
0.417247
0.423629
0.181903
0.201056
0.277542
0.265407
0.422834
0.180173
0.260966
0.45656
0.0787078
0.277161
0.398383
0.270201
0.327038
0.49029
0.222494
-0.0962733
0.418779
0.159078
0.274494
0.461429
0.461652
0.158281
0.13656
0.218951
0.228386
0.215993
-0.0729905
0.493055
0.493713
0.20879
-0.0768035
0.494885
0.212609
-0.0948404
0.481724
0.215233
0.0399074
0.443883
0.209375
0.214902
-0.154233
-0.179061
0.0411694
-0.152548
-0.040761
-0.146084
-0.118737
-0.108306
-0.285528
-0.0512055
-0.0546167
-0.322552
-0.176807
-0.0606702
-0.237811
-0.201009
-0.138893
-0.238891
-0.192872
-0.106189
-0.198109
-0.238086
-0.0268987
0.188425
0.0689341
-0.170305
-0.020132
-0.326024
-0.16782
-0.173292
-0.316292
-0.124426
-0.200925
-0.218873
-0.304436
-0.188564
0.0462329
-0.0333295
-0.142949
-0.0780893
-0.256916
0.209437
-0.282829
-0.0609847
0.0163624
-0.272607
-0.2642
-0.28537
-0.315279
-0.289076
0.0738069
-0.19503
-0.198346
-0.274097
-0.312768
0.068347
-0.104141
-0.19354
-0.288332
-0.0717097
-0.293868
-0.276743
0.072092
-0.100208
-0.20109
-0.0995921
-0.178294
0.129872
-0.0301852
-0.0221989
-0.373332
-0.332137
-0.209879
-0.0808165
-0.344538
-0.220645
-0.148962
-0.312667
-0.0810564
0.0123244
-0.231851
-0.214565
-0.305481
-0.229801
-0.29424
-0.0708036
-0.292581
-0.152384
-0.246704
0.0716894
-0.216081
-0.0725973
0.0637828
-0.214611
-0.185571
-0.162897
-0.287064
-0.283415
-0.186348
-0.378703
-0.135713
-0.0198413
0.0270876
0.136464
-0.216718
-0.144786
-0.319964
-0.203318
-0.286318
0.0420751
-0.0109687
-0.108314
-0.273226
-0.341611
-0.076131
-0.0100722
-0.262785
-0.154713
-0.379039
-0.243419
-0.223753
0.0815689
0.124428
-0.0749307
-0.172195
-0.196412
-0.323942
0.102465
-0.152298
-0.0860556
-0.385963
0.0627027
-0.303722
-0.126345
-0.160079
0.0110444
-0.233964
-0.413611
-0.267316
-0.117608
-0.19954
-0.0649833
-0.0809635
-0.226696
0.00461361
-0.270013
-0.238086
0.0285171
-0.268397
-0.247672
-0.321119
-0.147411
-0.14917
0.0125374
-0.0730003
-0.267912
-0.0816927
-0.0630567
0.0394907
-0.148332
-0.209506
-0.226837
-0.0443913
-0.150715
-0.0739689
-0.313251
0.187822
-0.244424
0.0100565
0.116106
-0.18721
0.112538
0.020764
0.0418622
-0.262699
-0.387391
-0.324998
0.0441324
-0.275485
-0.286391
-0.141275
-0.283867
-0.241129
-0.268439
-0.181348
0.114349
-0.07436
-0.259151
-0.077774
-0.276954
0.201199
-0.142223
-0.000104856
-0.240769
-0.403944
0.0986755
0.137782
-0.244802
-0.280085
0.181278
-0.163934
-0.125096
-0.284992
-0.0787156
0.0348895
-0.0527265
-0.233057
-0.288868
-0.0321168
-0.156569
-0.308708
-0.0321531
-0.139942
-0.30846
-0.198776
0.0181524
-0.370872
-0.11713
-0.0182882
-0.299284
-0.382588
-0.265909
-0.19834
-0.167613
-0.140052
-0.126391
-0.221986
-0.295214
-0.162576
-0.10187
-0.0413228
-0.277984
-0.120896
-0.271154
-0.272013
-0.158853
-0.252356
-0.399465
-0.0305302
0.0268465
-0.182
0.0725235
0.0279968
0.212258
-0.191489
-0.425453
-0.236731
-0.27035
-0.162514
-0.362649
-0.149226
0.0881126
-0.0921634
-0.164664
-0.244451
-0.269137
-0.0275947
-0.203376
-0.0851883
-0.268991
-0.227606
-0.264073
-0.144459
-0.235427
-0.235517
-0.208567
-0.311847
-0.121828
-0.170986
-0.27267
-0.112407
-0.171363
-0.244338
-0.294553
-0.266216
-0.303366
-0.279376
-0.169708
-0.358024
-0.428602
-0.207517
-0.331409
-0.367168
-0.166129
-0.150538
-0.365697
0.0104832
-0.114008
-0.25581
-0.020348
-0.306317
-0.124846
-0.0304402
-0.133767
-0.185408
-0.01412
-0.242417
-0.0580132
-0.15391
-0.232234
0.0124785
-0.267451
-0.165788
-0.455577
-0.355244
-0.402737
-0.337419
-0.277146
-0.109273
-0.291677
-0.38668
-0.303028
-0.253979
0.20485
-0.140526
-0.081347
-0.135423
-0.135209
-0.156662
-0.237323
-0.325187
-0.137119
-0.260378
0.0877373
-0.0565657
-0.220623
-0.257244
-0.192219
0.184619
-0.0444049
0.0481847
-0.0676447
-0.241113
-0.185407
-0.250918
-0.308664
-0.349314
-0.28102
-0.133349
-0.0844843
-0.295037
-0.34953
-0.192341
-0.1413
-0.196469
-0.133809
-0.0102303
-0.173324
-0.226915
0.0551638
-0.00124246
-0.238506
-0.0847142
0.0389171
-0.359696
-0.151195
-0.245618
-0.291189
-0.306995
0.0194274
-0.307313
-0.19127
0.0430009
-0.391065
-0.166759
-0.233867
-0.189575
-0.251154
-0.272495
-0.167894
-0.141034
-0.344168
-0.331304
-0.270055
-0.277829
-0.0642591
0.079787
-0.19034
-0.117413
-0.123092
-0.135174
-0.408862
-0.0232294
-0.0875528
-0.32419
-0.359344
-0.139298
-0.324899
-0.146128
-0.208103
-0.260721
0.00844899
0.0575559
-0.24367
-0.0532395
0.137399
-0.0124913
-0.00548757
0.0496271
-0.132128
-0.238803
-0.301587
0.182052
-0.0201561
0.0132777
-0.290277
-0.28924
-0.389401
-0.0438934
-0.168699
-0.143346
0.0138142
-0.0769005
-0.149594
-0.141705
-0.236551
-0.194611
-0.244233
-0.261251
-0.271091
-0.264229
-0.217081
-0.349879
-0.161645
-0.284471
-0.0693895
-0.0837171
-0.373469
0.0436409
0.0703315
-0.0725892
-0.276654
-0.163423
-0.141125
-0.0527221
-0.202106
-0.316869
0.0352885
-0.150111
0.0925032
-0.361099
-0.246123
-0.180737
-0.0745782
-0.0243408
-0.188601
0.128375
-0.179394
-0.0101239
-0.247879
-0.0487626
-0.235202
-0.167814
-0.267966
-0.00347935
-0.169697
0.174188
-0.0978315
-0.350855
-0.148018
-0.126177
-0.148643
-0.275129
-0.241406
-0.271448
0.0854257
-0.140892
-0.151399
-0.0431308
-0.286502
0.0872331
0.152624
-0.284985
0.164649
0.0849204
0.00402474
0.0195908
-0.163778
-0.315917
-0.29112
-0.250214
-0.0197265
-0.214959
-0.145002
0.124856
-0.301284
-0.265457
-0.297084
0.0525019
0.199549
-0.298265
-0.0131287
-0.11833
0.0781463
-0.134888
-0.0618914
-0.283094
0.117973
0.163536
-0.102002
-0.283476
-0.0281275
-0.166623
-0.0739153
-0.187456
-0.186528
-0.124696
-0.138052
-0.156059
-0.299181
-0.181018
-0.112472
-0.141249
0.0161561
-0.307265
-0.172353
-0.0924133
-0.29332
0.0667534
-0.18052
-0.283795
0.0432338
0.00456231
-0.130697
0.139776
-0.206105
-0.292962
-0.0607104
-0.126451
-0.0810132
-0.249108
-0.262322
-0.126256
-0.0949537
-0.261377
-0.224317
-0.146851
-0.363438
-0.268176
0.0690684
0.12391
0.158603
-0.108103
0.152456
0.190083
0.094644
-0.417037
-0.145999
-0.138092
0.141768
-0.271757
-0.175215
-0.321113
-0.284068
-0.155823
0.107797
-0.245721
-0.234595
-0.0559639
-0.101038
-0.262316
-0.284047
0.189646
0.0923509
0.0478463
-0.0838152
-0.320324
-0.0474523
-0.122417
-0.276072
-0.171817
-0.339575
-0.300133
-0.144339
-0.226519
-0.21872
0.0658746
0.0807219
-0.40616
0.00748953
-0.222761
-0.222622
-0.180776
0.0559189
-0.232825
-0.0816827
-0.250384
0.0522536
-0.270967
-0.247565
0.146736
-0.395547
-0.369356
-0.213308
-0.257143
-0.429314
-0.159603
-0.254257
-0.429355
-0.215802
-0.404193
-0.323809
-0.222
-0.340571
-0.246765
-0.211707
-0.348627
-0.162853
0.0835686
0.0204851
-0.281803
-0.324166
0.0336376
-0.312841
-0.174928
0.15793
-0.242195
0.145166
-0.20452
0.0219925
-0.0997548
-0.158897
-0.330477
-0.137251
-0.143897
-0.21596
-0.162948
-0.267953
-0.327736
-0.261624
-0.161744
-0.384571
-0.34542
0.10745
-0.178732
-0.0890734
-0.0484132
-0.270457
0.0236723
-0.0431536
-0.318295
-0.155357
-0.241275
-0.351022
-0.421589
-0.0862855
-0.0716286
-0.276149
-0.122091
-0.250652
0.146419
0.0783641
-0.255855
-0.258118
0.133496
0.0290491
-0.142567
-0.129579
-0.277134
0.15939
-0.109926
-0.404667
0.058103
-0.0211139
0.0817663
-0.15915
-0.295856
-0.190228
-0.0678559
-0.132549
-0.164896
0.218219
-0.240558
-0.225101
-0.203717
0.0356893
0.124394
0.170675
-0.114502
-0.141121
-0.0337812
0.0234011
0.0500175
-0.0892199
-0.0179692
-0.145363
-0.208
-0.123382
-0.299439
-0.148065
-0.37136
-0.244452
-0.0418712
-0.360444
-0.165505
-0.16836
0.0332647
0.171481
-0.248378
-0.336576
-0.382994
0.0114031
-0.284077
-0.277519
-0.386623
0.0656652
-0.164543
-0.157861
-0.329022
-0.152355
-0.27672
-0.233816
-0.0585292
-0.044138
0.0618566
0.19117
-0.246155
0.0231893
-0.403845
0.0520593
0.0853802
0.0860184
-0.0399535
-0.270571
-0.269625
-0.274507
-0.402151
-0.112228
-0.388747
-0.0789228
-0.321431
0.0254218
-0.272734
-0.387249
0.00379267
-0.0187782
-0.214342
-0.220483
-0.0975262
0.0548964
-0.172751
-0.191688
-0.395136
-0.018569
-0.0766533
0.0872785
-0.424852
-0.227017
0.0606143
-0.0742614
0.140076
-0.0697674
-0.265726
-0.443513
-0.401578
-0.222083
-0.369245
0.101487
-0.388946
-0.139405
-0.210338
-0.304155
0.00800028
-0.423313
0.0582103
-0.0662979
-0.150505
-0.153574
-0.0623764
-0.155812
-0.128732
-0.231405
-0.207021
-0.297151
-0.313875
-0.0369507
-0.265482
0.141909
-0.300419
-0.0868283
-0.107133
-0.030213
0.0984607
-0.297164
-0.271485
-0.241102
-0.143185
-0.317205
0.104572
-0.285642
-0.180774
-0.279267
-0.0152968
-0.346662
-0.158043
-0.343632
0.173836
-0.405613
-0.267781
-0.115476
0.000719655
-0.381494
-0.378204
-0.285453
-0.348618
0.0626328
-0.179862
-0.0812461
0.0227962
-0.10089
-0.0646046
0.174473
-0.0912476
-0.0318998
-0.115365
-0.124611
-0.367286
-0.125892
-0.245087
-0.169499
-0.103346
-0.164797
-0.35382
-0.196139
-0.116857
-0.289267
-0.0265242
-0.120512
-0.0238229
-0.245227
0.073349
-0.202022
-0.131308
-0.107051
-0.354857
-0.286491
-0.280517
-0.138242
-0.157332
-0.132181
0.0548087
-0.0317306
-0.0212204
-0.190012
0.0263981
0.105127
0.116085
-0.0554049
-0.12852
-0.122917
-0.303993
0.123412
0.018217
-0.0095945
-0.22255
-0.273138
-0.360281
-0.126338
-0.0763874
-0.205261
-0.0124128
0.0169201
-0.136562
-0.20096
-0.0827662
-0.186961
-0.16408
-0.220079
-0.178239
-0.158958
-0.385419
-0.15316
-0.122439
-0.256011
-0.418795
-0.151002
-0.199893
-0.0918815
-0.255478
-0.169527
0.0692337
0.0752328
-0.154837
-0.204825
-0.019987
-0.196518
-0.28416
-0.2962
-0.250561
-0.353179
0.0474024
-0.186747
-0.182886
-0.0647333
-0.0846774
-0.0598642
-0.164706
0.144293
-0.0762208
-0.295551
-0.19734
-0.21144
-0.0191077
0.064567
-0.0677712
-0.138484
-0.377037
-0.306692
-0.256889
-0.142399
-0.188919
-0.153687
-0.288617
0.0747334
-0.115829
0.00557453
0.0294101
-0.168726
-0.220529
-0.12206
0.12201
-0.332425
-0.387779
-0.118239
0.131656
-0.265874
-0.252319
-0.0317847
-0.079048
-0.00531817
-0.226022
-0.376631
-0.143074
-0.354764
-0.261874
0.0038712
-0.237835
-0.297184
-0.21485
-0.269176
-0.124599
-0.200086
-0.185744
0.0315931
-0.297968
0.176512
-0.00786158
-0.320415
-0.43762
-0.166872
-0.062027
0.0290711
-0.228369
-0.257414
-0.151557
-0.277896
-0.177239
0.18993
0.0429313
-0.0684617
-0.159698
-0.358524
0.0693528
0.166386
0.0671242
-0.0237403
0.0381702
-0.132001
-0.343009
-0.406775
-0.387744
0.0934003
-0.205961
-0.133021
-0.174248
0.158959
-0.274636
-0.200626
-0.341158
-0.226882
-0.297328
0.137347
-0.141173
-0.0487313
0.0550569
0.00716211
-0.274553
-0.11418
-0.153471
-0.0428383
-0.342992
-0.128535
-0.267432
0.103096
-0.15478
-0.280155
-0.115612
-0.237981
0.066917
-0.272348
0.00217861
0.0180615
0.0463961
-0.330345
-0.165846
-0.257028
-0.165563
0.0877331
-0.16459
-0.114576
-0.146886
-0.146701
-0.174128
0.0816052
-0.110074
0.0836987
-0.398152
-0.274511
-0.280892
0.11572
-0.127237
-0.161601
-0.322746
-0.153381
-0.144625
0.0926771
-0.130393
-0.251427
-0.339241
0.12874
0.147814
-0.15211
0.0819338
-0.269637
-0.329893
-0.266581
-0.19314
-0.363317
-0.0854888
-0.176907
-0.276359
-0.226703
0.0679322
-0.217745
-0.00510589
-0.184992
-0.282293
-0.213507
-0.398321
-0.373593
-0.231861
-0.109279
-0.103292
-0.305369
-0.220535
0.0220631
-0.111327
-0.276677
-0.16137
0.0467014
-0.226559
-0.177624
0.181108
-0.133494
-0.280368
-0.11023
-0.130889
0.130223
-0.185858
-0.216199
-0.130852
-0.36086
0.051584
-0.145326
0.0277422
-0.162596
-0.0493323
-0.318404
0.00223148
-0.236867
-0.323914
-0.300191
-0.156636
0.0476459
-0.445699
-0.212893
-0.307981
0.0915927
0.142654
-0.155298
-0.269593
-0.0868263
0.110954
-0.187651
0.0628963
0.0306856
-0.0122993
-0.0493231
-0.168539
-0.039324
-0.0225551
0.0908708
-0.158168
-0.148617
-0.157175
-0.188895
-0.137612
-0.255056
0.132788
-0.148323
0.0541238
-0.163133
0.115521
-0.285772
0.148285
-0.0511548
0.0461073
0.115387
0.0730541
0.17415
-0.265335
0.046038
-0.146155
-0.284003
-0.217779
-0.304823
0.0809187
-0.148233
-0.141909
-0.126543
-0.24099
-0.103972
-0.2924
0.0655874
-0.199468
-0.0267771
-0.413216
-0.243204
-0.27494
0.132039
-0.148203
-0.102781
-0.188673
-0.267969
-0.302664
-0.222846
-0.273657
-0.0107182
0.0984669
-0.344667
-0.15061
-0.274065
-0.281285
0.00773111
-0.172158
-0.190538
0.101087
-0.380959
-0.120198
-0.0736729
0.0674255
0.164545
-0.188273
-0.243225
-0.340159
-0.199208
-0.169726
-0.274712
-0.00555335
-0.269867
-0.322639
-0.252033
-0.162456
-0.217035
-0.160314
-0.309478
-0.175707
-0.339393
-0.0268145
-0.0478471
-0.157757
-0.0293295
-0.151538
-0.373633
-0.149045
-0.395359
0.133122
-0.262128
-0.277225
-0.287653
0.0167845
0.0908273
-0.179933
-0.0390553
-0.163971
-0.301324
-0.140599
-0.271587
-0.213398
0.0878302
-0.117179
-0.0351159
0.126866
-0.0240144
-0.122661
0.120926
-0.350269
-0.17315
-0.180494
-0.127249
-0.110097
0.0803633
-0.275153
-0.139142
-0.206508
-0.205676
-0.260403
-0.237597
-0.0490257
0.0113532
0.0506946
-0.150731
-0.155418
0.0824132
0.00261628
-0.242874
-0.0935659
-0.325751
-0.276748
-0.0019853
-0.350557
0.024358
-0.29637
0.0410465
0.142313
0.0964321
-0.306867
0.0446547
0.0254029
-0.146303
0.0745444
-0.128199
0.106916
-0.0131735
-0.286592
-0.324112
-0.0922067
-0.269975
-0.0977676
-0.167967
0.0193931
-0.158726
0.108794
-0.281319
-0.200021
-0.163209
-0.273251
-0.277915
0.00590477
0.135776
-0.286739
-0.00886313
-0.193752
-0.136146
-0.194992
-0.0872102
0.0795181
-0.00531876
-0.291755
0.065556
0.0114395
0.148144
-0.280881
-0.330488
-0.180791
-0.0414
0.113936
0.0174468
-0.211709
0.149739
-0.174356
-0.337111
-0.325634
-0.443972
-0.134992
-0.320836
0.131776
0.180015
-0.1524
0.154927
0.00114346
-0.184413
0.139536
-0.332384
0.079676
-0.27851
0.0884951
-0.219806
-0.266813
-0.0422595
-0.165004
0.109501
0.066474
0.0815025
-0.237865
-0.233234
-0.361502
0.0259634
-0.00736108
-0.155028
-0.119164
-0.00572739
-0.401441
-0.274748
-0.250358
-0.29165
-0.141144
-0.297145
-0.178633
-0.00886679
-0.182336
-0.164825
-0.0410773
-0.245184
-0.190833
-0.14028
-0.185581
-0.251113
0.0470433
0.0889249
-0.154717
-0.0132986
-0.41305
-0.266762
0.0484907
-0.0296838
-0.306565
0.0962108
-0.311893
-0.049126
-0.177093
-0.137947
0.0600019
-0.218893
-0.0364301
-0.0253084
-0.085926
0.190094
-0.0797748
-0.343733
-0.114876
-0.131254
-0.0310263
0.185332
-0.0785026
-0.159506
-0.215982
-0.133816
0.0632702
-0.303743
0.026931
-0.222841
-0.0971245
-0.0242658
-0.0478535
-0.209211
0.0389204
0.148736
-0.191179
-0.23841
-0.172102
-0.24978
-0.343188
-0.175326
-0.0250194
-0.304979
-0.344842
-0.146383
-0.328539
-0.0525116
-0.168819
-0.0267384
-0.205805
0.0736887
-0.186043
0.0130807
0.118153
-0.290325
0.0749569
-0.16421
-0.172134
-0.119807
0.0328959
-0.187698
-0.209904
-0.114813
-0.261518
-0.238198
-0.278608
-0.303376
-0.411701
0.129323
0.143682
-0.309063
-0.194484
-0.0342395
-0.354881
-0.163759
-0.267779
-0.0701861
-0.0470049
-0.372876
-0.417011
0.066748
-0.180484
-0.12798
-0.192014
-0.346972
-0.327431
-0.0680058
0.0205297
-0.112416
-0.372184
0.0786998
0.0223618
-0.267075
-0.140898
-0.273838
0.113327
-0.261291
-0.178022
-0.315935
-0.0950931
0.0722377
-0.128033
-0.0461095
-0.230876
-0.155367
-0.11139
0.140521
0.162519
-0.191296
0.154527
-0.224606
-0.165364
-0.163103
-0.241282
-0.241049
0.0306232
-0.114365
-0.144164
-0.22083
-0.354738
-0.115265
-0.26575
-0.0758456
0.0836083
-0.273161
-0.248307
-0.169077
-0.240133
-0.129917
-0.400297
-0.198355
0.0406046
-0.150603
-0.321937
-0.0345455
-0.173253
-0.200493
-0.0967682
0.0042327
-0.149432
-0.128273
0.016551
-0.222055
-0.156977
-0.148832
0.0318462
-0.102609
-0.160426
-0.175595
-0.292735
-0.19745
0.142429
0.0211254
0.156966
-0.20087
-0.0781906
-0.297881
-0.192356
0.0285104
-0.346467
-0.355293
-0.0456798
0.0276026
-0.357028
-0.201651
-0.163422
-0.146003
-0.172367
0.155656
-0.159654
-0.199845
-0.0424438
-0.21506
-0.0499828
-0.0513219
-0.312574
-0.177465
-0.026811
-0.160406
0.144668
-0.343656
-0.277335
-0.072564
-0.108182
-0.241361
-0.138024
-0.255078
0.158775
0.0784165
-0.0715341
0.0344485
-0.285886
0.0246189
-0.103533
-0.0566145
0.121855
-0.352655
-0.228525
0.176531
-0.099544
-0.370957
-0.320615
0.0170626
0.16752
-0.19806
-0.034506
-0.175097
-0.325234
-0.231558
-0.366845
0.024214
-0.252421
-0.197306
0.0950296
-0.295494
-0.146635
-0.215587
-0.144058
-0.180564
-0.309186
-0.216252
-0.318163
-0.152943
-0.00649624
0.112881
-0.0461249
-0.156854
-0.23839
-0.380881
-0.272917
-0.114657
-0.144645
-0.0445959
-0.037141
-0.24061
-0.224376
-0.00501699
0.0331265
0.168353
0.0499791
0.129689
-0.170192
-0.328921
-0.247902
-0.284961
0.143497
-0.1604
-0.23076
0.116519
-0.321042
-0.00782874
-0.0554477
-0.192234
-0.176565
-0.224758
-0.290234
0.0290427
-0.265246
-0.0695105
-0.197633
0.103624
-0.149905
0.197858
-0.275154
-0.197623
-0.328128
-0.421689
-0.223779
-0.0344094
-0.158548
-0.155125
-0.161828
0.0874417
-0.0267597
-0.286959
-0.317157
-0.226665
-0.331031
-0.176785
-0.333235
-0.24639
-0.289638
-0.044949
-0.309715
-0.189927
0.0794785
-0.136848
-0.0139669
0.0149138
-0.257587
-0.198586
-0.235584
-0.00730763
-0.277901
-0.165336
-0.165913
-0.307472
-0.352975
-0.200064
-0.123134
-0.0347434
0.159184
0.0434322
-0.159174
-0.0655854
-0.355379
0.153962
-0.116311
-0.020278
-0.153652
-0.0530054
-0.315852
-0.230318
6.1573e-05
0.0773853
-0.0324006
-0.152754
-0.271522
0.178422
-0.165174
0.000429488
0.136121
-0.0843394
-0.211878
-0.357595
-0.00650296
-0.088718
-0.30699
-0.0992528
-0.112878
0.0865644
-0.252354
0.0943571
0.169524
-0.246433
-0.270427
0.130019
-0.306788
-0.29967
-0.219692
-0.288106
-0.202701
-0.286372
-0.335788
-0.204387
-0.179823
-0.232613
-0.273329
-0.148077
-0.34108
-0.277132
-0.109388
-0.198083
-0.351856
0.0927171
0.128869
0.112227
-0.193872
-0.367648
0.209412
-0.319079
-0.201554
-0.160887
-0.285251
-0.147528
-0.0483899
-0.2657
-0.290039
-0.348209
-0.347305
-0.313713
-0.270139
-0.377831
-0.213275
-0.170871
-0.227411
0.111808
-0.163942
-0.0699533
-0.169025
0.0114938
-0.300467
-0.268791
0.161075
-0.1877
-0.0985816
-0.320229
-0.0850259
0.145233
-0.273511
-0.0929988
-0.0887211
-0.327329
-0.188395
-0.302817
-0.266634
-0.0417183
-0.296359
-0.205147
-0.290542
-0.243626
-0.227703
-0.300111
-0.194713
-0.279286
-0.282018
0.128179
-0.206931
-0.188635
-0.15937
0.0759917
-0.261022
-0.343082
-0.0121037
-0.304847
-0.239105
-0.171112
-0.126536
-0.314499
-0.0977708
-0.111922
0.151216
0.0397986
-0.330429
-0.281062
-0.355501
-0.168846
-0.374088
-0.261197
-0.179318
-0.264521
-0.183902
-0.115292
0.159657
-0.249146
-0.0574256
-0.156981
0.139747
-0.275078
0.143539
-0.124106
-0.319031
-0.109748
-0.0492346
-0.29598
0.0231368
-0.171248
0.0517264
-0.278531
-0.163807
-0.22732
0.164148
0.11363
-0.0380406
-0.101819
-0.0617113
-0.366716
-0.324848
-0.0484997
0.198792
-0.15727
-0.154685
-0.161359
-0.30204
-0.233776
-0.218809
-0.288659
-0.251476
-0.282229
-0.192117
-0.285538
-0.211377
0.189072
0.0106418
-0.380401
-0.0166626
-0.243005
-0.306787
-0.010094
-0.289306
-0.24217
-0.0653326
-0.147526
-0.26236
-0.202763
0.0286603
-0.297609
-0.268095
-0.258099
-0.119734
-0.282716
0.0908284
-0.365798
-0.277356
-0.260027
-0.288817
-0.0900153
-0.116555
0.0807534
-0.180282
-0.031518
-0.167575
-0.127173
-0.204605
-0.0841701
-0.3095
-0.294249
-0.407086
-0.092722
-0.233481
-0.263442
0.0460273
-0.1745
-0.055008
-0.0911251
-0.251218
-0.279047
-0.262299
-0.108455
-0.19614
0.156984
-0.324055
-0.369915
-0.203578
-0.292049
-0.192886
-0.145263
-0.0511703
-0.234238
-0.220342
-0.294921
-0.167628
-0.225049
-0.161329
0.161572
0.116048
-0.282809
-0.232036
0.0155105
-0.102862
-0.220656
-0.311376
-0.19042
-0.315447
-0.17161
0.0858304
-0.223111
-0.361828
-0.117697
-0.196513
-0.363898
-0.294369
-0.181592
-0.0683726
0.14887
-0.307353
-0.346778
-0.147857
0.0221508
-0.268978
-0.144093
-0.265502
-0.178606
-0.269341
-0.12051
-0.237184
-0.187905
-0.00829976
-0.259831
-0.383607
-0.180535
-0.203436
-0.000431285
0.191534
-0.188915
-0.276026
-0.27079
-0.269735
-0.298991
-0.279754
-0.310915
0.118587
0.00258021
-0.0706364
-0.178414
-0.351781
-0.0270608
0.153035
-0.284725
-0.186675
-0.306999
-0.414504
-0.205425
-0.292318
-0.419962
-0.0950865
-0.0376905
-0.339979
-0.361777
-0.286471
0.0476782
-0.349997
-0.00804739
-0.119696
-0.228571
-0.285165
-0.23804
0.000360967
-0.388394
-0.270434
-0.246896
-0.3
-0.152308
-0.0370692
-0.153451
-0.229032
-0.0304807
-0.299969
-0.285268
0.0561542
-0.188562
0.0489184
-0.144775
-0.270992
-0.0915699
0.0444775
-0.198681
-0.351844
0.0913106
-0.189483
-0.26001
0.0282927
-0.211998
0.0965236
-0.229974
-0.255969
-0.154568
-0.249682
-0.270668
-0.204784
-0.318562
-0.385531
-0.332636
-0.277441
-0.410696
0.0823582
-0.279609
-0.244816
-0.145122
-0.189232
0.158004
0.159256
-0.317689
-0.0953949
0.00461098
-0.331801
0.0872183
-0.40012
-0.281986
-0.177808
-0.293163
0.0160001
-0.302186
-0.295081
-0.200997
-0.29732
-0.148806
-0.378511
0.0500742
-0.164409
0.0880105
-0.0629557
-0.309255
-0.349597
-0.322367
0.161213