/*--------------------------------*- C++ -*----------------------------------*\
  =========                 |
  \\      /  F ield         | OpenFOAM: The Open Source CFD Toolbox
   \\    /   O peration     | Website:  https://openfoam.org
    \\  /    A nd           | Version:  6
     \\/     M anipulation  |
\*---------------------------------------------------------------------------*/
FoamFile
{
    version     2.0;
    format      ascii;
    class       volVectorField;
    location    "0";
    object      U;
}
// * * * * * * * * * * * * * * * * * * * * * * * * * * * * * * * * * * * * * //

dimensions      [0 1 -1 0 0 0 0];

internalField   nonuniform List<vector> 
13046
(
(-0.404376 -0.460936 0)
(-0.881636 -0.706226 -2.1587e-21)
(-0.51268 -0.681171 -4.14655e-21)
(-0.537474 -0.53248 0)
(-0.433418 -0.602207 -4.52603e-21)
(-0.825791 -0.770903 0)
(-0.538938 -0.511521 8.93818e-22)
(-0.86562 -0.792914 9.43392e-22)
(-0.392042 -0.571645 -4.86896e-21)
(-0.413617 -0.0993259 4.76821e-21)
(-0.78324 -0.473614 0)
(-0.0583969 -0.0683002 2.32875e-21)
(-0.421559 -0.422889 -3.04225e-21)
(-0.949537 -0.737186 -2.44122e-21)
(-0.392323 -0.588578 2.23949e-21)
(-0.312325 -0.133581 -5.81281e-21)
(-0.142808 -0.212177 5.05523e-21)
(-0.872949 -0.439545 -2.32733e-22)
(-0.413436 -0.547396 0)
(-0.714278 -0.778032 -2.21594e-21)
(-0.69063 -0.61452 8.37696e-21)
(-0.331137 -0.130683 -2.62244e-21)
(-0.123985 -0.185374 -6.83724e-21)
(-0.862809 -0.4519 0)
(-0.470633 -0.527593 3.51532e-21)
(-0.813859 -0.71857 -5.53489e-21)
(-0.522531 -0.675092 0)
(-0.383972 -0.396733 -5.82713e-21)
(-0.957569 -0.706585 7.57802e-22)
(-0.408707 -0.602542 -3.89326e-21)
(-0.367298 -0.434661 0)
(-0.898085 -0.677899 0)
(-0.524789 -0.701978 4.2144e-21)
(-0.493422 -0.552253 -4.08506e-21)
(-0.548087 -0.68379 1.59062e-21)
(-0.766019 -0.707221 9.76958e-21)
(-0.532722 -0.57739 -5.90061e-21)
(-0.540835 -0.664051 2.62671e-21)
(-0.741933 -0.71625 -4.91551e-21)
(-0.249902 -0.394096 4.52602e-21)
(-0.712647 -0.858581 6.14963e-22)
(-0.857984 -0.567949 -3.85563e-21)
(-0.610473 -0.642222 2.51955e-21)
(-0.559742 -0.644173 4.11888e-21)
(-0.647718 -0.693353 0)
(-0.625488 -0.627393 1.77507e-21)
(-0.504493 -0.614452 -6.40978e-21)
(-0.68009 -0.719648 -7.28435e-22)
(-0.422699 -0.460644 0)
(-0.892778 -0.724592 -1.41203e-22)
(-0.465003 -0.646787 -1.17886e-22)
(-0.861808 -0.987785 2.78447e-21)
(-0.136949 -0.306798 0)
(-0.844432 -0.446718 -5.02555e-21)
(-0.905551 -1.00938 -3.93972e-21)
(-0.819023 -0.427264 -8.98738e-21)
(-0.119227 -0.295847 6.52933e-21)
(-1.0019 -0.450281 -3.69704e-22)
(-0.200505 -0.217314 0)
(-0.433932 -0.62063 2.47928e-21)
(-0.549813 -0.365779 -3.17974e-21)
(-0.994686 -0.849367 8.05326e-22)
(-0.179861 -0.361991 -1.0132e-20)
(-0.131441 -0.244195 4.44119e-21)
(-0.940132 -0.611367 -3.45272e-23)
(-0.40911 -0.207875 -6.51112e-21)
(-0.174721 -0.22178 0)
(-1.00318 -0.431505 0)
(-0.501864 -0.702484 0)
(-0.173947 -0.234765 -2.36613e-21)
(-1.00111 -0.446088 0)
(-0.524773 -0.732777 1.77193e-21)
(-0.994063 -0.424707 0)
(-0.201446 -0.201978 -6.18899e-24)
(-0.404561 -0.587937 -2.14774e-23)
(-0.384311 -0.524315 0)
(-0.710644 -0.791485 2.32703e-21)
(-0.7226 -0.621185 -5.80207e-21)
(-0.317076 -0.47042 2.75505e-21)
(-0.233634 -0.190571 -8.67672e-21)
(-0.970647 -0.43539 0)
(-0.481935 -0.515067 1.94812e-21)
(-0.835944 -0.736211 0)
(-0.482542 -0.642563 0)
(-0.118003 -0.209101 -3.91554e-21)
(-0.912282 -0.575996 1.07705e-22)
(-0.402377 -0.185187 3.92363e-21)
(-0.528571 -0.222948 -6.70691e-21)
(-0.0729265 -0.17723 0)
(-0.94279 -0.73816 7.40521e-24)
(-0.0220093 -0.0969998 0)
(-0.649869 -0.201671 0)
(-0.917926 -0.830567 -2.11788e-23)
(-0.386062 -0.315015 0)
(-0.406657 -0.297811 3.25045e-21)
(-0.999573 -0.685356 1.55585e-21)
(-0.998477 -0.69492 -6.8865e-22)
(-0.272088 -0.453118 -1.87234e-21)
(-0.229098 -0.398654 4.73998e-21)
(-0.0673693 -0.176162 -2.66624e-22)
(-0.558163 -0.236657 6.56062e-21)
(-0.94637 -0.775994 0)
(-0.612746 -0.602996 6.48314e-23)
(-0.475391 -0.607372 3.38299e-21)
(-0.723897 -0.746496 0)
(-0.173828 -0.359207 0)
(-0.749974 -0.465021 -2.87652e-21)
(-0.899292 -0.951142 0)
(-0.181885 -0.353059 7.4733e-21)
(-0.824319 -0.936997 0)
(-0.827343 -0.498922 -9.81756e-21)
(-0.415765 -0.00518276 0)
(-0.0212389 0.0604376 0)
(-0.587625 -0.348407 9.64231e-22)
(-0.434932 -0.443788 8.36878e-21)
(-0.930623 -0.739329 1.16849e-21)
(-0.409582 -0.600599 4.12611e-21)
(-0.333248 -0.267121 4.02598e-21)
(-0.344302 -0.293572 -7.45516e-21)
(-0.995686 -0.605105 -1.35145e-21)
(-0.276459 -0.446071 1.96792e-21)
(-1.00037 -0.637333 6.7445e-22)
(-0.295572 -0.476886 -1.83837e-21)
(-0.402101 -0.0775944 -4.29097e-21)
(-0.747744 -0.436691 9.07969e-22)
(-0.0518334 -0.0425784 -1.02113e-21)
(-0.372283 -0.349129 0)
(-0.992074 -0.695455 -1.51968e-21)
(-0.342134 -0.542189 4.50898e-21)
(-0.260031 -0.390244 0)
(-0.667609 -0.828434 -3.27642e-21)
(-0.882988 -0.58413 2.458e-22)
(-0.0269715 -0.123756 0)
(-0.655196 -0.225823 0)
(-0.942415 -0.865792 0)
(-0.453409 -0.269824 0)
(-0.982573 -0.710592 -9.04221e-22)
(-0.15554 -0.301988 -5.2192e-21)
(-0.35249 -0.417086 0)
(-0.922001 -0.673596 0)
(-0.504893 -0.694037 0)
(-0.591288 -0.46399 0)
(-0.933522 -0.867451 0)
(-0.25923 -0.455431 0)
(-0.164222 -0.338218 0)
(-0.858166 -0.960712 0)
(-0.817758 -0.476732 5.36925e-21)
(-0.199344 -0.386456 -6.72767e-22)
(-0.737674 -0.4855 -6.1418e-21)
(-0.890415 -0.936071 3.16809e-21)
(-0.52591 -0.346773 8.03739e-21)
(-0.996872 -0.824277 0)
(-0.173059 -0.357733 1.31161e-20)
(-0.282631 -0.467018 0)
(-0.673291 -0.525093 6.38198e-21)
(-0.857144 -0.874372 -9.08979e-22)
(-0.962414 -1.01034 0)
(-0.758824 -0.386831 6.91507e-21)
(-0.979328 -0.994448 0)
(-0.723071 -0.367048 4.20597e-21)
(-0.099214 -0.277123 0)
(-0.0925852 -0.269977 0)
(-0.660102 -0.459574 8.66785e-22)
(-0.928203 -0.913362 1.54478e-21)
(-0.206817 -0.408176 -2.91504e-21)
(-0.444398 -0.109468 -4.90311e-21)
(-0.0538257 -0.0607122 0)
(-0.782673 -0.501527 8.57442e-22)
(-0.40556 -0.0308079 -3.97633e-21)
(-0.0304544 0.0251588 -4.61503e-22)
(-0.648914 -0.377714 0)
(-0.430161 -0.251565 -5.15857e-21)
(-0.976203 -0.680523 0)
(-0.154991 -0.29704 5.91673e-21)
(-0.204646 -0.329102 0)
(-0.932846 -0.531244 1.08506e-21)
(-0.671676 -0.856936 1.66962e-21)
(-0.686987 -0.473703 5.56092e-21)
(-0.213615 -0.409582 1.46986e-21)
(-0.909431 -0.911936 0)
(-0.0446116 -0.0756124 0)
(-0.824483 -0.587053 0)
(-0.491302 -0.134557 4.19336e-21)
(-0.215071 -0.346809 0)
(-0.911628 -0.541169 -2.40269e-21)
(-0.689105 -0.858436 4.69709e-22)
(-0.251615 -0.441693 0)
(-0.687468 -0.508281 0)
(-0.864563 -0.888063 0)
(-0.589046 -0.481298 2.79009e-21)
(-0.911716 -0.856646 0)
(-0.281697 -0.479456 0)
(-0.969783 -0.763827 1.01708e-22)
(-0.328806 -0.527539 -2.84624e-21)
(-0.390268 -0.370996 9.20668e-21)
(-0.984421 -0.710699 0)
(-0.35169 -0.550232 -5.65002e-21)
(-0.474976 -0.194264 -7.04973e-21)
(-0.0811447 -0.166992 3.71433e-21)
(-0.910211 -0.649489 6.43215e-22)
(-0.0516261 -0.163385 4.0547e-21)
(-0.617588 -0.246755 3.86625e-21)
(-0.960875 -0.850375 -1.19391e-22)
(-0.592267 -0.199699 -1.1717e-20)
(-0.908314 -0.761304 0)
(-0.0370781 -0.114046 -3.91962e-21)
(-0.879768 -1.02976 -1.36662e-22)
(-0.884593 -0.396814 2.27374e-21)
(-0.0940577 -0.254249 0)
(-0.509244 -0.457289 -1.30156e-20)
(-0.216526 -0.183794 4.20472e-21)
(-0.341443 -0.498243 -1.61278e-21)
(-0.973967 -0.420622 0)
(-0.875008 -0.713069 0)
(-0.57387 -0.176952 -1.1079e-20)
(-0.0352887 -0.091111 0)
(-0.565414 -0.577996 -8.92994e-21)
(-0.48834 -0.62557 -2.5832e-21)
(-0.754994 -0.74344 7.06228e-21)
(-0.361599 -0.396057 0)
(-0.951929 -0.68884 -1.15578e-22)
(-0.454003 -0.64119 -2.06754e-21)
(-0.0416677 -0.151325 3.30918e-21)
(-0.641921 -0.244972 0)
(-0.956112 -0.871396 1.37469e-22)
(-0.505968 -0.438036 1.05956e-20)
(-0.963122 -0.78694 3.95683e-21)
(-0.315922 -0.513197 0)
(-0.0315686 0.00741288 0)
(-0.689427 -0.446538 -1.14494e-21)
(-0.458221 -0.0628654 0)
(-0.0863578 -0.253419 0)
(-0.857974 -0.385613 0)
(-0.906359 -1.04303 0)
(-0.583232 -0.225959 1.02751e-20)
(-0.936963 -0.786739 0)
(-0.0509226 -0.149738 -8.39408e-23)
(-0.690309 -0.41381 2.59058e-21)
(-0.956547 -0.954523 -9.37014e-22)
(-0.145295 -0.33743 0)
(-0.345684 -0.33699 0)
(-0.990796 -0.664809 1.44966e-21)
(-0.369631 -0.56529 3.44113e-21)
(-0.988483 -0.982741 -6.99463e-22)
(-0.719133 -0.277046 -6.43202e-21)
(-0.0354037 -0.168245 2.78997e-21)
(-0.728543 -0.341859 0)
(-0.989211 -1.0032 -6.99448e-22)
(-0.071579 -0.237731 -1.03614e-22)
(-0.0252058 0.0270322 -3.3944e-21)
(-0.661062 -0.442204 0)
(-0.477527 -0.0516824 -4.87412e-21)
(-0.181874 -0.337484 4.18461e-21)
(-0.777804 -0.925559 -1.89348e-21)
(-0.875385 -0.50613 3.93932e-22)
(-0.343976 0.0138081 4.43413e-21)
(-0.0196823 0.0600657 -4.21e-21)
(-0.564264 -0.28266 0)
(-0.411455 -0.562412 -1.61399e-21)
(-0.651511 -0.593439 -6.76393e-21)
(-0.745868 -0.781349 6.4425e-21)
(-0.618719 -0.40485 3.60324e-21)
(-0.66386 -0.427396 1.24876e-22)
(-0.972223 -0.904867 -2.43964e-21)
(-0.953282 -0.934702 0)
(-0.171291 -0.364867 2.64067e-21)
(-0.171025 -0.365104 -2.58537e-21)
(-0.269528 -0.407143 -3.61981e-21)
(-0.245007 -0.172884 4.47514e-21)
(-0.956058 -0.427157 -3.41528e-22)
(-0.327578 -0.345844 0)
(-0.984664 -0.648227 0)
(-0.420426 -0.614863 -4.50046e-21)
(-0.707023 -0.318518 -1.63785e-21)
(-0.993058 -0.98796 0)
(-0.063769 -0.219492 0)
(-0.386126 -0.267882 -3.98927e-21)
(-0.988462 -0.650351 0)
(-0.212266 -0.371608 2.03933e-21)
(-0.574819 -0.627118 1.61588e-21)
(-0.655227 -0.680429 2.31797e-21)
(-0.586947 -0.666463 -8.1659e-22)
(-0.687618 -0.377346 -5.33099e-21)
(-0.980112 -0.967039 0)
(-0.112403 -0.29638 -4.55616e-21)
(-0.30225 -0.328517 0)
(-0.98991 -0.623846 1.95736e-21)
(-0.43131 -0.630778 -2.60936e-21)
(-0.459575 -0.419088 0)
(-0.460778 -0.399561 1.11822e-21)
(-0.163548 -0.317021 1.55313e-21)
(-0.785646 -0.941654 5.62407e-21)
(-0.88595 -0.485855 -9.30845e-21)
(-0.655176 -0.357804 -5.84089e-21)
(-0.987802 -0.94184 1.47005e-21)
(-0.108815 -0.287977 4.17095e-21)
(-0.399696 -0.251199 0)
(-0.182161 -0.328243 -7.28392e-21)
(-0.978492 -0.648041 -2.94876e-22)
(-0.210237 -0.377563 -1.04233e-20)
(-0.799629 -0.91855 0)
(-0.820301 -0.522459 3.22001e-21)
(-0.08218 -0.25621 -5.94894e-21)
(-0.782527 -0.369646 -3.73047e-21)
(-0.961066 -1.03293 0)
(-0.279983 -0.271471 -3.71187e-21)
(-1.00156 -0.563771 -1.37045e-21)
(-0.363641 -0.55024 1.12074e-21)
(-0.137929 -0.299486 5.43948e-22)
(-0.841446 -0.983348 0)
(-0.870164 -0.45087 6.8741e-21)
(-0.282185 -0.254205 0)
(-0.304518 -0.249639 0)
(-0.998795 -0.552083 -6.19784e-22)
(-0.33674 -0.513926 -3.04931e-21)
(-0.994643 -0.570757 8.86265e-22)
(-0.295697 -0.462439 3.15967e-21)
(-0.060368 -0.105217 -2.84179e-21)
(-0.845633 -0.587647 0)
(-0.470755 -0.151778 -5.40555e-21)
(-0.329102 -0.306103 4.34511e-21)
(-0.998149 -0.631766 0)
(-0.338281 -0.526111 1.15203e-21)
(-0.449565 -0.260664 -3.37675e-21)
(-0.00660801 0.109929 3.9454e-21)
(-0.386019 0.0538976 1.19452e-20)
(-0.688318 -0.555067 -3.2637e-21)
(-0.31641 -0.49318 0)
(-0.807109 -0.845026 0)
(-0.535161 -0.38938 7.70502e-21)
(-0.984003 -0.840457 0)
(-0.210935 -0.404108 7.9646e-21)
(-0.104736 -0.214972 -2.38283e-21)
(-0.460862 -0.220047 1.42233e-20)
(-0.936937 -0.665085 -1.00726e-22)
(-0.919304 -1.02511 0)
(-0.824772 -0.405617 3.33298e-21)
(-0.100793 -0.274778 -7.40137e-21)
(-0.978718 -0.947449 -2.26084e-22)
(-0.689727 -0.263147 -4.14066e-21)
(-0.0349775 -0.162361 0)
(-0.93469 -0.792524 -4.67802e-21)
(-0.343832 -0.534437 0)
(-0.460909 -0.362397 8.72258e-21)
(-0.992179 -0.770277 1.01019e-21)
(-0.249352 -0.441886 2.29805e-21)
(-0.929898 -0.819457 2.6442e-21)
(-0.317886 -0.512417 -2.12679e-23)
(-0.306912 -0.156462 -3.38209e-22)
(-0.170882 -0.262726 2.30071e-21)
(-0.904404 -0.458294 3.42209e-22)
(-0.865766 -1.03889 0)
(-0.906335 -0.387006 6.84479e-22)
(-0.0903943 -0.240682 0)
(-0.464772 -0.342549 -8.88457e-21)
(-0.999589 -0.764181 -1.22922e-21)
(-0.220706 -0.403906 -2.65715e-21)
(-0.617353 -0.453683 0)
(-0.933016 -0.89045 -2.24171e-21)
(-0.229735 -0.427019 0)
(-0.78355 -0.460842 0)
(-0.884258 -0.969358 0)
(-0.159816 -0.34218 0)
(-0.460613 -0.487631 -2.69477e-21)
(-0.870431 -0.742001 -3.00274e-21)
(-0.458252 -0.635642 -7.79037e-23)
(-0.0848395 -0.257601 7.2843e-21)
(-0.80875 -0.3796 9.41627e-21)
(-0.948135 -1.03713 1.40775e-21)
(-0.513297 -0.198703 -6.50873e-21)
(-0.905415 -0.681538 -6.24299e-22)
(-0.0661051 -0.145689 -3.80281e-21)
(-0.979684 -0.921161 2.76334e-22)
(-0.66539 -0.270485 4.19307e-21)
(-0.0460035 -0.176933 3.38648e-21)
(-0.155348 -0.246869 -6.96398e-21)
(-0.620459 -0.827621 2.63337e-21)
(-0.991319 -0.443085 -2.98571e-21)
(-0.255188 -0.215657 2.43706e-21)
(-0.25222 -0.232285 -2.11387e-21)
(-0.995231 -0.501178 -2.06155e-22)
(-0.987526 -0.485944 0)
(-0.320077 -0.479662 -9.87381e-22)
(-0.351715 -0.525202 -9.60061e-22)
(-0.010213 0.0971726 -5.32446e-21)
(-0.484854 -0.268881 3.71699e-21)
(-0.377773 0.0366594 2.80443e-21)
(-0.337251 -0.00720449 -2.71027e-22)
(-0.0310471 0.0336609 5.83626e-21)
(-0.609496 -0.298036 0)
(-0.616055 -0.388236 -1.25728e-20)
(-0.987148 -0.904038 -4.17701e-22)
(-0.156073 -0.342723 0)
(-0.0765429 -0.149003 -7.12815e-21)
(-0.459102 -0.176205 5.3756e-21)
(-0.888534 -0.614922 0)
(-0.217044 -0.263719 1.08223e-20)
(-0.232729 -0.255823 -8.14461e-21)
(-0.998697 -0.502834 1.88683e-21)
(-1.00387 -0.5112 6.08798e-22)
(-0.483735 -0.680277 -1.76361e-21)
(-0.435018 -0.624986 -9.15036e-22)
(-0.0194595 -0.0351321 0)
(-0.801359 -0.652541 0)
(-0.584811 -0.13502 2.07196e-21)
(-0.322017 0.0334009 -5.21114e-21)
(-0.011097 0.0793917 0)
(-0.513343 -0.245789 0)
(-0.700715 -0.650687 1.55806e-22)
(-0.462025 -0.564331 3.74427e-21)
(-0.6497 -0.737487 1.50474e-21)
(-0.383795 0.0148578 -9.57658e-21)
(-0.552199 -0.307414 -1.41041e-21)
(-0.0160376 0.0730648 2.77724e-22)
(-0.227727 -0.329919 0)
(-0.955132 -0.554316 -4.29167e-21)
(-0.603278 -0.796229 -1.171e-22)
(-0.515038 -0.148099 1.67793e-23)
(-0.836319 -0.616301 -1.67936e-21)
(-0.0454 -0.0779759 -1.54505e-23)
(-0.376497 -0.248072 -9.62797e-23)
(-0.0102331 0.123625 -2.38528e-21)
(-0.420367 0.0583684 -4.94203e-21)
(-0.269168 -0.417827 -3.7584e-21)
(-0.727392 -0.853122 2.0993e-21)
(-0.825434 -0.577229 9.48037e-21)
(-0.627618 -0.570123 0)
(-0.794287 -0.799986 -7.12361e-21)
(-0.389535 -0.553631 4.34546e-21)
(-0.377426 -0.0717811 0)
(-0.0557599 -0.0509592 3.01521e-21)
(-0.747543 -0.418149 -3.29769e-23)
(-0.638323 -0.551063 0)
(-0.814625 -0.819423 -2.23253e-21)
(-0.35183 -0.522519 -6.1862e-21)
(-0.676594 -0.654413 3.58983e-21)
(-0.496298 -0.589546 -1.98539e-21)
(-0.640421 -0.719225 8.45156e-22)
(-0.0706553 -0.231759 3.74191e-21)
(-0.852973 -0.364401 -3.25947e-21)
(-0.935759 -1.06742 1.51573e-21)
(-0.724676 -0.597335 0)
(-0.741973 -0.811733 0)
(-0.347844 -0.497263 5.69253e-22)
(-0.721259 -0.568685 5.16062e-21)
(-0.785152 -0.838017 1.69526e-21)
(-0.322861 -0.483158 7.83678e-23)
(-0.144427 -0.253474 1.04616e-20)
(-0.976826 -0.437852 -3.50554e-21)
(-0.668238 -0.875737 -2.70843e-21)
(-0.091694 -0.137092 4.41357e-21)
(-0.0817509 -0.1215 -4.78514e-21)
(-0.841492 -0.488465 -4.57427e-22)
(-0.834868 -0.501862 -3.06694e-22)
(-0.37938 -0.126331 0)
(-0.39903 -0.12739 -4.88144e-21)
(-0.527876 -0.177591 7.9545e-21)
(-0.878632 -0.666225 8.77455e-22)
(-0.052491 -0.111768 4.7216e-21)
(-0.600739 -0.814882 -1.71063e-21)
(-0.147933 -0.230605 2.28574e-21)
(-0.997567 -0.423914 3.80703e-21)
(-0.203018 -0.351865 -3.82122e-21)
(-0.734815 -0.890611 -1.89175e-21)
(-0.885801 -0.527273 2.93913e-21)
(-0.765094 -0.326905 0)
(-0.986395 -1.0362 7.23254e-22)
(-0.0545084 -0.215866 1.07162e-22)
(-0.48841 -0.351967 -1.33098e-21)
(-0.0144795 0.103168 -2.43489e-21)
(-0.509951 0.00762333 -4.0505e-21)
(-0.0245543 -0.0913119 0)
(-0.625475 -0.188541 0)
(-0.90043 -0.790372 -6.2251e-22)
(-0.425219 -0.0512643 4.47584e-21)
(-0.0341376 0.00446772 0)
(-0.687439 -0.418511 1.12373e-21)
(-0.00865258 0.124976 -8.55686e-33)
(-0.33286 -0.211914 1.68935e-21)
(-0.385374 0.0691756 5.14415e-21)
(-0.33938 -0.185034 -1.9045e-21)
(0.000302636 0.122521 8.53013e-33)
(-0.335385 0.0848233 -4.57135e-21)
(-0.995484 -0.875969 -1.59774e-21)
(-0.59093 -0.333085 0)
(-0.119578 -0.285435 -8.01722e-21)
(-0.676007 -0.526362 6.19305e-22)
(-0.0146533 0.0299942 -2.62723e-21)
(-0.569308 -0.0773903 0)
(-0.477156 -0.263425 -6.34038e-21)
(-0.97548 -0.724781 4.95936e-22)
(-0.133792 -0.271794 3.69215e-21)
(-0.285196 -0.0892231 1.2009e-20)
(-0.116502 -0.15168 1.55342e-21)
(-0.808746 -0.358543 0)
(-0.481109 -0.465571 2.17319e-21)
(-0.379619 -0.568902 -1.45638e-21)
(-0.921379 -0.775133 1.12559e-21)
(-0.835288 -0.696949 -3.8663e-22)
(-0.0201103 -0.0528877 2.90413e-21)
(-0.598805 -0.151905 2.15082e-21)
(-0.78694 -0.337041 -3.94328e-21)
(-0.0583546 -0.222974 -1.98279e-21)
(-0.979277 -1.04602 0)
(-0.992998 -0.962875 0)
(-0.678814 -0.312108 0)
(-0.0680416 -0.225571 0)
(-0.00100583 0.0882658 0)
(-0.159417 -0.0869318 1.70336e-21)
(-0.224124 0.0702853 4.05769e-21)
(-0.454442 -0.281042 -1.5167e-21)
(-0.0108605 0.111024 -2.88157e-21)
(-0.418295 0.0448177 -4.85124e-21)
(-0.49279 -0.4874 -5.68892e-21)
(-0.40493 -0.590096 3.64784e-21)
(-0.890459 -0.773071 1.57896e-21)
(-0.79446 -0.610418 -2.13321e-21)
(-0.547888 -0.128479 -4.70647e-21)
(-0.0278552 -0.0404775 0)
(-0.0152983 -0.00983641 -2.98585e-21)
(-0.595093 -0.117786 0)
(-0.759228 -0.624189 1.58132e-21)
(-0.423663 -0.171059 -4.8748e-21)
(-0.095298 -0.168108 7.34717e-21)
(-0.88904 -0.57643 0)
(-0.22775 -0.351383 -4.59537e-21)
(-0.946628 -0.47113 2.92843e-22)
(-0.284043 -0.180282 0)
(-0.125483 -0.241217 -1.28119e-20)
(-0.971019 -0.417302 4.46789e-21)
(-0.715496 -0.921947 -8.07499e-22)
(-0.999314 -0.486058 3.93543e-22)
(-0.227781 -0.233982 4.87766e-21)
(-0.408649 -0.592523 -2.65148e-21)
(-0.203066 -0.306448 -3.95032e-21)
(-0.262256 -0.144384 0)
(-0.90984 -0.407647 0)
(-0.27938 -0.350102 -2.07619e-21)
(-0.277845 -0.331933 0)
(-0.963779 -0.607525 -4.01137e-21)
(-0.981149 -0.600342 4.29246e-21)
(-0.52556 -0.714769 5.49146e-22)
(-0.490642 -0.68873 -5.83822e-22)
(-0.258156 -0.351382 1.99313e-21)
(-0.949655 -0.586877 0)
(-0.577022 -0.765237 9.35067e-22)
(-0.194908 -0.252404 0)
(-0.997859 -0.480473 -3.15336e-21)
(-0.515151 -0.718404 6.1987e-22)
(-0.985444 -0.925233 -3.31054e-22)
(-0.660309 -0.29022 4.29948e-21)
(-0.0591043 -0.201689 -6.86342e-21)
(-0.872363 -0.690002 0)
(-0.548844 -0.167535 1.20966e-20)
(-0.0385188 -0.0938403 0)
(-0.0672989 -0.197478 -2.05554e-21)
(-0.613865 -0.274022 -2.95572e-21)
(-0.975117 -0.863197 -1.6902e-22)
(-0.381555 -0.199227 2.77017e-22)
(-0.00103705 0.118522 1.45485e-21)
(-0.337807 0.0738436 0)
(-0.313768 -0.429177 3.54017e-21)
(-0.344998 -0.446527 0)
(-0.630174 -0.783826 0)
(-0.863653 -0.627292 1.03235e-20)
(-0.598625 -0.755355 0)
(-0.862916 -0.65332 -6.59846e-21)
(-0.19826 -0.277744 0)
(-0.192062 -0.292738 0)
(-0.613414 -0.810975 -3.68451e-23)
(-0.988544 -0.502626 2.49373e-21)
(-0.571131 -0.769811 4.39575e-21)
(-0.972264 -0.505395 -5.52444e-21)
(-0.382643 -0.268419 0)
(-0.0136545 0.123317 3.46156e-21)
(-0.458456 0.0461524 0)
(-0.817454 -0.618929 9.91173e-22)
(-0.536102 -0.145723 1.41078e-21)
(-0.036229 -0.0624836 1.66899e-21)
(-0.155367 -0.303583 -6.72265e-21)
(-0.768487 -0.938845 -1.9296e-21)
(-0.909103 -0.474903 9.46803e-21)
(-0.992262 -0.998031 7.40968e-22)
(-0.727026 -0.298731 1.07042e-20)
(-0.0449736 -0.190944 0)
(-0.256458 -0.394058 4.90488e-21)
(-0.959106 -0.471262 -3.11549e-22)
(-0.271842 -0.1902 5.83828e-21)
(-0.564729 -0.361817 0)
(-0.453134 -0.00264762 0)
(-0.0177165 0.0751423 0)
(-0.602076 -0.404307 0)
(-0.480233 -0.0226288 4.1975e-21)
(-0.0181889 0.0603273 5.67797e-22)
(-0.257607 -0.271402 -4.53105e-21)
(-1.00119 -0.547158 7.79223e-22)
(-0.411986 -0.601442 1.35421e-21)
(-0.223981 -0.393007 -9.76307e-22)
(-0.808033 -0.909517 0)
(-0.797481 -0.525666 1.00177e-22)
(-0.420741 -0.148332 5.67832e-21)
(-0.0840103 -0.133971 4.22223e-21)
(-0.860177 -0.542843 3.57037e-22)
(-0.993406 -0.884882 0)
(-0.608089 -0.3138 0)
(-0.0988338 -0.25279 6.97129e-21)
(-0.167886 -0.296676 1.42743e-21)
(-0.959682 -0.608932 3.83651e-22)
(-0.385635 -0.223231 1.36719e-20)
(-0.177845 -0.291721 0)
(-0.65543 -0.85114 -3.04595e-21)
(-0.960581 -0.493684 2.94736e-21)
(-0.728472 -0.43027 -2.85302e-23)
(-0.939374 -0.96717 1.3746e-21)
(-0.147201 -0.33626 0)
(-0.224836 -0.37784 -3.92092e-23)
(-0.744337 -0.886048 -6.90322e-22)
(-0.856453 -0.546219 -3.84638e-21)
(-0.0649287 -0.0969715 1.0497e-22)
(-0.831134 -0.548185 -1.15365e-21)
(-0.448715 -0.136194 6.59743e-21)
(-0.352192 -0.253433 -2.41308e-21)
(-0.987743 -0.610373 -3.73849e-22)
(-0.236096 -0.392236 0)
(-0.301592 -0.439253 -3.83646e-21)
(-0.691169 -0.821396 4.93944e-21)
(-0.824821 -0.604608 -6.25362e-21)
(-0.262448 -0.122882 4.49461e-21)
(-0.174065 -0.252946 1.70069e-21)
(-0.877329 -0.380175 3.57627e-22)
(-0.314373 -0.396626 -2.50853e-21)
(-0.925356 -0.643492 0)
(-0.540964 -0.724901 0)
(-0.629089 -0.50206 -9.92262e-21)
(-0.879353 -0.859988 1.25482e-21)
(-0.288948 -0.480452 0)
(-0.995724 -0.940287 0)
(-0.656901 -0.333263 8.34883e-21)
(-0.0885638 -0.254713 0)
(-0.318068 -0.0392499 -2.81799e-21)
(-0.0557596 -0.030145 -5.85672e-22)
(-0.696135 -0.326269 -1.2961e-21)
(-0.298564 -0.0492932 7.72655e-21)
(-0.0701915 -0.0616452 0)
(-0.726812 -0.323846 9.30228e-22)
(-0.181041 -0.308494 1.21894e-21)
(-0.956798 -0.576945 -9.34911e-23)
(-0.359622 -0.213254 -1.24655e-20)
(-0.75547 -0.416108 -3.53101e-21)
(-0.944942 -0.994529 -1.37552e-21)
(-0.12319 -0.307396 0)
(-0.0387327 0.0147718 5.3649e-22)
(-0.630468 -0.287395 1.20999e-21)
(-0.311709 -0.01167 0)
(-0.108956 -0.230334 0)
(-0.958028 -0.70955 7.02062e-23)
(-0.483537 -0.240618 -1.59833e-21)
(-0.0107747 0.120758 2.55477e-21)
(-0.265249 -0.177993 -1.77056e-21)
(-0.361639 0.0677952 0)
(-0.282424 0.0937664 -5.07245e-21)
(-0.277593 -0.139587 0)
(0.00542547 0.117881 2.45721e-21)
(-0.200251 -0.304249 -8.47705e-23)
(-0.919362 -0.440438 0)
(-0.28191 -0.15723 0)
(-0.0412082 -0.0314781 0)
(-0.754064 -0.496934 0)
(-0.464222 -0.0942314 9.06607e-21)
(-0.361247 -0.149945 -4.91222e-21)
(-0.365457 -0.170911 3.97322e-21)
(-0.118246 -0.188803 -2.22392e-21)
(-0.881654 -0.50008 1.20639e-22)
(-0.131356 -0.223421 -3.62984e-21)
(-0.907847 -0.533447 -1.12057e-22)
(-0.510506 -0.246342 3.00095e-21)
(-0.956075 -0.737689 -1.31049e-23)
(-0.0963996 -0.217893 0)
(-0.0424613 -0.191207 0)
(-0.990351 -1.03773 0)
(-0.763263 -0.30654 0)
(-0.405305 -0.486264 0)
(-0.560444 -0.714165 -7.65081e-21)
(-0.839228 -0.688561 3.40423e-21)
(-0.567194 -0.271416 8.2538e-21)
(-0.975244 -0.819047 6.32723e-23)
(-0.0841233 -0.220068 5.85722e-21)
(-0.0826035 -0.221049 3.98451e-21)
(-0.594165 -0.283896 -1.14798e-20)
(-0.982632 -0.855102 -8.76499e-23)
(-0.239061 -0.15213 4.78781e-21)
(-0.244364 -0.366913 1.85273e-21)
(-0.932105 -0.397722 3.56951e-22)
(-0.184969 -0.26179 0)
(-0.993573 -0.481669 1.00016e-21)
(-0.569962 -0.77442 -4.31037e-21)
(-0.220134 -0.314357 0)
(-0.968996 -0.540242 5.63254e-21)
(-0.584141 -0.781791 -6.29051e-23)
(-0.532036 -0.324466 -1.01979e-20)
(-0.994935 -0.822509 2.02312e-22)
(-0.145633 -0.316291 -3.30589e-21)
(-0.553946 -0.316572 0)
(-0.992287 -0.837839 1.83113e-22)
(-0.124565 -0.288788 3.149e-21)
(-0.327557 -0.464303 0)
(-0.695623 -0.811739 -7.8071e-21)
(-0.795443 -0.612253 3.41248e-21)
(-0.257373 -0.317156 0)
(-0.983582 -0.577885 0)
(-0.497115 -0.699364 7.53048e-22)
(-0.0172268 -0.0549731 -6.39466e-21)
(-0.846235 -0.730583 1.99553e-21)
(-0.625231 -0.16061 0)
(-0.508151 -0.0258663 5.90365e-21)
(-0.0167645 0.0673272 0)
(-0.586125 -0.414091 -9.36736e-22)
(-0.521284 -0.0143517 5.18317e-23)
(-0.0145645 0.0830501 0)
(-0.546839 -0.397727 2.73328e-21)
(-0.245758 -0.368316 2.83319e-21)
(-0.654115 -0.822171 -7.372e-22)
(-0.908208 -0.575081 -1.08084e-22)
(-0.498479 -0.322549 2.5661e-23)
(-0.0146263 0.0993184 4.41183e-21)
(-0.455389 0.0195804 0)
(-0.341903 -0.226977 1.05012e-20)
(-0.216917 -0.357339 2.49625e-21)
(-0.972622 -0.575075 0)
(-0.0139901 0.109254 -6.85171e-22)
(-0.465152 -0.322987 1.62791e-21)
(-0.479791 0.0235027 0)
(-0.57498 -0.554454 6.26133e-21)
(-0.433059 -0.591862 5.30667e-21)
(-0.800761 -0.77348 -8.97139e-23)
(-0.4322 -0.379659 -1.39529e-21)
(-0.984742 -0.746183 -4.55975e-22)
(-0.309779 -0.507727 -3.22825e-21)
(-0.918418 -0.99668 3.17859e-21)
(-0.784353 -0.428426 7.59564e-21)
(-0.128724 -0.311394 0)
(-0.0177779 0.00562441 0)
(-0.721023 -0.562381 7.68456e-22)
(-0.566549 -0.0974198 0)
(-0.993239 -0.911891 0)
(-0.632532 -0.314281 0)
(-0.087774 -0.24426 0)
(-0.141378 -0.201237 0)
(-0.286792 -0.11304 -4.46715e-21)
(-0.851548 -0.390982 -3.50568e-22)
(-0.432425 -0.358899 0)
(-0.993118 -0.74957 2.49896e-22)
(-0.277503 -0.469943 3.13558e-21)
(-0.430562 -0.506571 0)
(-0.561433 -0.707601 6.58849e-21)
(-0.817406 -0.696034 0)
(-0.747459 -0.563379 2.01662e-21)
(-0.53868 -0.101867 4.46675e-21)
(-0.023548 -0.0116425 0)
(-0.125441 -0.243076 -2.84879e-21)
(-0.945953 -0.650295 -1.17335e-24)
(-0.434726 -0.223007 1.15628e-23)
(-0.362079 -0.0477669 0)
(-0.367614 -0.0286601 5.5611e-21)
(-0.0488989 -0.0178057 -1.47044e-21)
(-0.0371389 0.0116112 -1.76748e-21)
(-0.699143 -0.365971 8.07077e-22)
(-0.6591 -0.349649 -6.63676e-22)
(-0.596321 -0.420433 0)
(-0.962341 -0.88669 5.79609e-21)
(-0.20177 -0.399111 4.0612e-21)
(-0.993837 -0.885968 2.25083e-21)
(-0.599851 -0.350825 0)
(-0.130047 -0.304569 -4.38764e-21)
(-0.567436 -0.504614 -5.52976e-21)
(-0.873827 -0.814946 2.215e-21)
(-0.35142 -0.537967 6.36229e-21)
(-0.643044 -0.468681 -1.78966e-21)
(-0.524124 -0.0528375 6.1221e-21)
(-0.638166 -0.482183 8.84305e-22)
(-0.0177411 0.0416398 0)
(-0.546983 -0.0563073 -5.92172e-21)
(-0.015109 0.0461508 0)
(-0.438488 -0.311678 0)
(-0.99721 -0.728715 0)
(-0.214162 -0.385388 3.457e-21)
(-0.510923 -0.089458 8.28194e-21)
(-0.508431 -0.0677703 -1.55322e-20)
(-0.730343 -0.52686 -1.20477e-21)
(-0.682775 -0.483854 2.65516e-21)
(-0.0254415 -0.00800041 4.73367e-21)
(-0.0223888 0.0193186 -4.48766e-23)
(-0.630531 -0.365132 0)
(-0.988551 -0.924407 -2.60198e-21)
(-0.129753 -0.30904 5.70971e-21)
(-0.525223 -0.425806 5.72916e-21)
(-0.97296 -0.804577 -2.90115e-21)
(-0.274514 -0.475332 0)
(-0.304056 -0.077706 0)
(-0.0936686 -0.112023 0)
(-0.782472 -0.362566 -8.9298e-22)
(-0.563537 -0.409756 4.30176e-21)
(-0.969977 -0.862509 -1.65706e-21)
(-0.212542 -0.411639 -6.3421e-21)
(-0.549551 -0.47531 2.37468e-21)
(-0.911163 -0.828062 -2.60548e-21)
(-0.319236 -0.513764 3.56043e-21)
(-0.340191 -0.053767 0)
(-0.060181 -0.0382084 0)
(-0.719002 -0.357782 1.29722e-21)
(-0.398109 -0.337963 0)
(-0.998788 -0.706313 4.37015e-22)
(-0.283812 -0.476085 -3.17508e-21)
(-0.972774 -1.06458 0)
(-0.814393 -0.337392 0)
(-0.0536273 -0.215062 -2.64267e-22)
(-0.158935 -0.274613 -3.30294e-22)
(-0.963782 -0.467936 0)
(-0.67715 -0.877628 4.31887e-21)
(-0.955079 -0.913443 -5.52673e-23)
(-0.0220694 -0.130598 0)
(-0.684004 -0.236565 0)
(-0.00195811 0.110236 -6.02293e-21)
(-0.230691 -0.129795 -2.38343e-21)
(-0.28924 0.0787101 -5.69117e-21)
(-0.495146 -0.384553 0)
(-0.984383 -0.808044 1.71534e-21)
(-0.247214 -0.443803 -3.03464e-21)
(-0.33551 -0.108107 8.34297e-21)
(-0.101718 -0.140847 7.22229e-21)
(-0.827227 -0.424448 0)
(-0.796773 -0.990646 -9.65986e-22)
(-0.942401 -0.40182 -3.56003e-21)
(-0.103701 -0.241675 -2.70646e-21)
(-0.310043 0.0685597 0)
(0.000259703 0.112707 -2.02234e-21)
(-0.404165 -0.192738 0)
(-0.248246 -0.429845 4.56738e-21)
(-0.216719 -0.399152 -4.66537e-21)
(-0.832095 -0.891344 0)
(-0.731805 -0.525234 4.44019e-21)
(-0.84859 -0.917459 -4.07797e-21)
(-0.756949 -0.50868 -3.58274e-21)
(-0.609238 -0.520954 5.20575e-21)
(-0.854181 -0.829046 3.13364e-21)
(-0.335213 -0.519234 0)
(-0.258372 -0.420076 4.32736e-21)
(-0.273326 -0.440974 0)
(-0.767516 -0.874594 -2.60654e-21)
(-0.798681 -0.558074 3.84059e-21)
(-0.785192 -0.867155 2.62846e-21)
(-0.760568 -0.555419 -5.07336e-23)
(-0.494633 -0.400708 3.71026e-22)
(-0.955428 -0.830451 -1.34451e-21)
(-0.277784 -0.476171 -4.37861e-21)
(-0.551882 -0.433858 -9.97879e-21)
(-0.955174 -0.849725 3.3197e-23)
(-0.256478 -0.454859 0)
(-0.0139112 0.0721396 0)
(-0.574785 -0.43563 0)
(-0.547655 -0.0329393 6.664e-21)
(-0.264881 -0.370013 -2.61658e-21)
(-0.926947 -0.592925 0)
(-0.600771 -0.780161 1.3928e-21)
(-0.487909 -0.106027 -1.43167e-20)
(-0.772478 -0.536781 -1.05476e-21)
(-0.0365748 -0.0379256 -2.68517e-21)
(-0.500078 -0.303018 0)
(-0.498726 -0.281857 6.11082e-21)
(-0.992801 -0.780151 -2.542e-22)
(-0.985707 -0.762477 4.06219e-22)
(-0.147599 -0.311693 -3.92366e-21)
(-0.131182 -0.281154 -3.5617e-21)
(-0.295754 -0.395127 0)
(-0.913832 -0.623514 0)
(-0.58352 -0.759827 7.12421e-22)
(-0.230599 -0.282884 3.42215e-21)
(-0.995243 -0.530272 0)
(-0.494577 -0.690849 1.53508e-21)
(-0.489354 -0.336031 -2.92658e-21)
(-0.996962 -0.791841 0)
(-0.191805 -0.375426 0)
(-0.458075 -0.548594 4.75324e-21)
(-0.744718 -0.675534 -1.85655e-21)
(-0.605865 -0.721419 1.79398e-21)
(-0.546244 -0.285584 0)
(-0.98285 -0.808435 0)
(-0.104854 -0.250647 -6.22156e-21)
(-0.367353 -0.473402 0)
(-0.608749 -0.753539 9.3191e-22)
(-0.831343 -0.657512 0)
(-0.583593 -0.368608 -6.17704e-21)
(-0.990789 -0.881683 -1.59888e-21)
(-0.160516 -0.340302 -5.54374e-22)
(-0.254041 -0.299594 3.55166e-21)
(-0.993536 -0.562775 0)
(-0.466756 -0.665997 3.32256e-21)
(-0.425289 -0.52268 -4.70554e-21)
(-0.394133 -0.512442 -2.13795e-21)
(-0.771828 -0.6716 1.99578e-21)
(-0.613525 -0.73572 -3.66506e-21)
(-0.766279 -0.648708 0)
(-0.651025 -0.764249 -6.16081e-21)
(-0.321146 -0.474251 -2.07396e-21)
(-0.724388 -0.824945 3.63478e-21)
(-0.302541 -0.463242 1.33684e-21)
(-0.762803 -0.593781 -5.14385e-21)
(-0.775547 -0.854821 -1.75515e-21)
(-0.749826 -0.573012 -3.74928e-23)
(-0.307421 -0.37165 2.96349e-21)
(-0.331363 -0.368598 0)
(-0.954719 -0.638016 3.04267e-21)
(-0.96928 -0.657996 -2.38356e-21)
(-0.504443 -0.694634 -3.33336e-21)
(-0.453709 -0.644218 5.56028e-21)
(-0.211204 -0.339376 0)
(-0.953462 -0.511958 -6.20702e-23)
(-0.308371 -0.193307 -6.51548e-21)
(-0.068468 -0.234539 3.21236e-21)
(-0.826027 -0.359953 5.13694e-21)
(-0.954231 -1.05865 -2.43722e-21)
(-0.177911 -0.286946 -2.40236e-21)
(-0.162633 -0.271862 2.01611e-21)
(-0.929502 -0.506028 5.36958e-23)
(-0.931458 -0.536449 8.54785e-23)
(-0.321893 -0.176909 1.68708e-20)
(-0.346515 -0.186406 -8.82033e-21)
(-0.120061 -0.280451 4.84765e-21)
(-0.84878 -0.999069 -1.67893e-21)
(-0.883659 -0.432757 8.97312e-22)
(-0.537089 -0.598746 7.79888e-21)
(-0.581781 -0.680385 0)