/*--------------------------------*- C++ -*----------------------------------*\
  =========                 |
  \\      /  F ield         | OpenFOAM: The Open Source CFD Toolbox
   \\    /   O peration     | Website:  https://openfoam.org
    \\  /    A nd           | Version:  6
     \\/     M anipulation  |
\*---------------------------------------------------------------------------*/
FoamFile
{
    version     2.0;
    format      ascii;
    class       volScalarField;
    location    "0";
    object      p;
}
// * * * * * * * * * * * * * * * * * * * * * * * * * * * * * * * * * * * * * //

dimensions      [0 2 -2 0 0 0 0];

internalField   nonuniform List<scalar> 
918
(
0.196693
0.968144
0.00864363
0.196323
-0.000624246
0.936886
-0.846476
0.375859
0.175123
-0.465903
-0.0308219
0.166147
0.78756
0.553168
-1.51786
0.00939688
0.334483
-0.723978
0.174169
-0.000811706
0.450687
0.181198
0.184442
0.176375
0.233407
0.526953
0.659908
0.00138237
-0.00224488
-0.00364575
0.003485
-0.00236461
0.00304142
0.809941
0.856222
0.874907
0.144344
-0.00659927
-0.724164
-0.784174
-0.753685
-0.888479
0.361976
0.365321
-0.513276
0.375274
0.39019
0.161725
0.174414
0.175211
0.176477
0.175453
0.176797
0.168096
-0.481763
-0.509802
-0.433933
-0.39623
-0.0235736
-0.0552992
-0.0904492
-0.0113721
-0.0048526
0.100763
0.163844
0.162524
0.170994
0.181548
0.893627
0.865744
0.888511
0.812923
0.83048
0.761776
0.733729
0.573402
0.595711
0.53685
0.524069
-1.98656
-2.96561
-0.923011
-0.639545
0.000585973
0.0118707
0.0142055
0.319712
0.321226
0.331519
0.342743
0.703504
-0.704494
-0.860785
0.173568
0.172644
0.180548
0.182049
0.178388
0.177808
0.00585613
0.0121158
-0.00807724
-0.00414198
-0.00633278
0.427878
0.423695
0.175623
0.173244
0.19149
0.216109
0.203379
-0.0632007
0.243629
0.261718
0.355153
0.520238
0.513787
0.524021
0.6345
0.601679
0.691331
0.716133
0.0132151
0.00376059
0.00330422
0.00431457
0.00277753
0.140488
0.134775
0.157788
0.147685
0.150604
-0.104351
-0.251226
0.0732667
0.098469
-0.633048
-0.68264
-0.804801
-0.792424
-0.874422
0.198249
0.35719
0.355575
-0.532685
-0.449819
-0.58662
-0.389164
-0.453271
0.15426
0.159706
0.156508
0.170454
0.163981
0.166941
0.178319
0.175625
0.177096
0.183009
0.298052
0.1331
0.0572484
-0.603771
-0.533469
-0.586975
-0.356007
-0.295858
-0.0256105
-0.0427003
-0.0331228
-0.00493057
-0.242661
-0.128556
-0.186117
0.00776081
0.00672518
0.0929081
0.0825708
0.109884
0.115934
0.154683
0.156563
0.159301
0.157539
0.681533
0.70536
0.712774
0.689044
-3.97129
-6.69085
-0.283089
-0.117437
0.00278342
0.00265898
0.0018072
0.0027277
0.00256456
0.000818501
0.00920182
0.0116803
0.0142843
0.0152886
0.307885
0.31028
0.64797
0.67652
0.678415
0.673731
0.162585
0.164535
0.169516
0.166439
0.0137205
0.0162102
0.0156214
0.392209
0.407546
0.403406
-0.1013
-0.188147
-0.0159598
0.0131316
0.299532
0.275921
0.295726
0.4196
0.459263
0.729764
0.753811
0.741224
0.757386
0.80581
0.826111
0.790646
0.120717
0.129815
0.12448
0.161284
0.159389
0.16022
0.154515
0.155904
0.153519
-0.384287
-0.758618
0.158977
0.165386
0.135641
0.143193
0.27608
0.353711
0.339369
0.34574
0.349408
-0.342409
-0.395184
0.0231737
0.00294542
0.0390545
0.0716415
0.0549277
0.657447
0.619882
0.667553
0.64353
0.606049
0.630073
-0.692511
-2.47565
-1.42637
0.292751
0.0868896
0.183864
0.01312
0.00168057
0.0107192
0.677847
0.712111
0.354344
0.530455
0.499355
0.487174
0.516995
0.575604
0.505158
0.541778
0.575445
0.553769
0.168144
0.156063
0.149342
0.435322
0.499883
-0.221835
-0.288426
-0.322508
-0.0708615
-0.0378326
-0.0649706
0.678033
0.566079
0.634494
0.173293
0.17374
0.0120196
0.0201974
0.177281
0.177498
0.00528307
0.00630771
0.189263
-1.27815
-0.204235
0.166229
0.157003
0.173076
-0.459732
-0.0322143
-0.0630304
0.0621907
0.0742732
0.163699
0.110961
0.0776107
0.00478586
0.0152116
-0.00122533
-0.52429
0.170914
0.169414
0.172661
0.173692
0.174334
0.00599753
0.00803795
0.00562329
0.00136258
0.00291876
-0.00104787
0.139662
0.155606
-0.514432
0.172667
0.17486
0.174588
0.16812
0.17362
0.17186
0.0126482
0.00732143
0.00613306
-0.116988
0.00869692
0.405301
0.507496
0.336139
0.15397
-0.13966
0.32594
0.387206
0.297444
0.449168
0.343516
0.355622
-0.143219
-0.28517
-0.14654
-0.202851
0.164067
0.162991
0.15485
0.152601
0.168494
0.166527
0.170732
0.167971
0.170653
0.171938
-0.494409
-0.418549
-0.448908
-0.486043
-0.0121874
0.251935
-0.187768
0.0212475
-0.102275
-0.034083
-0.0141762
-0.106708
-0.129866
-0.0840011
0.0510474
0.0758946
-0.00200109
0.0666493
0.0158318
-0.062354
0.0217253
-0.00916883
0.15796
0.155567
0.163808
0.170886
0.118772
0.120757
0.0932674
0.109239
0.0969963
0.0465976
0.0738136
0.0513444
0.00606017
0.00621065
0.00494574
0.0191948
0.0175539
0.0079816
0.00821961
0.0136202
0.0076922
0.00713194
0.00301831
0.0103143
-0.488595
-0.609897
0.63594
0.618336
-0.148572
0.160122
0.166327
0.162932
0.168006
0.17077
0.171312
0.16932
0.165905
0.156021
0.158074
0.154281
0.154464
-0.459222
-0.564229
-0.396045
-0.4623
-0.196292
0.282519
0.0149863
-0.0341511
-0.047837
0.164522
0.368351
0.321629
0.439411
0.433686
-0.731648
-0.308364
-0.654014
-0.106838
-0.148889
0.425297
0.471346
0.49154
0.444901
0.395523
-0.387337
0.173581
-0.380861
-0.339401
-0.158205
-0.255536
0.388938
0.323703
0.328948
0.347697
0.371449
0.335114
0.316051
0.312213
0.34114
0.345935
0.158229
-0.0852537
-0.115411
-0.163811
0.312472
0.191308
0.243481
0.161156
0.158985
0.161851
0.16009
0.14457
0.150285
0.146829
0.150904
0.154474
0.163674
0.163797
0.159309
0.161262
-0.402002
-0.371461
-0.467945
-0.476281
-0.475776
-0.53443
-0.436572
-0.335078
-0.490479
-0.0474371
-0.000506073
-0.306789
-0.420737
-0.390885
-0.357763
-0.152586
-0.108018
-0.433765
-0.0858165
-0.290679
-0.31921
-0.0636059
-0.0198996
-0.0944724
-0.138774
-0.22356
-0.129681
-0.012787
-0.130369
-0.116645
0.0128618
-0.0014459
-0.00899568
0.0057702
-0.296595
-0.274616
-0.236544
-0.438373
0.0136621
0.016905
0.0187066
0.0197638
0.0267462
0.0284641
0.153422
0.152502
0.154202
0.166199
0.17817
0.192759
0.162624
0.138178
0.13009
0.132407
0.107486
0.115801
0.110898
0.124635
0.143696
0.150802
0.148413
0.150859
0.136388
0.137209
0.124999
0.129413
0.106146
0.0901006
0.0831371
0.00992485
0.00765051
0.00931217
0.00838149
0.00790349
0.00845222
0.0291697
0.0241198
0.027962
0.0220053
0.0147905
0.0139759
0.0112395
-0.411578
-0.351189
-0.521821
-0.56241
-0.623337
0.550565
0.661867
0.491631
0.254492
0.261589
0.48402
0.583874
0.267021
0.432449
0.473426
0.174915
0.445194
0.164838
0.164088
0.162269
0.161135
0.162227
-0.360869
-0.266236
-0.242416
-0.195675
-0.0716892
0.0410567
-0.0559462
-0.182504
-0.0473314
-0.0197648
0.278235
0.291759
0.23588
0.2619
0.263673
0.0844023
0.160081
0.206332
0.155414
0.218955
0.249867
0.198842
0.241931
0.168596
0.124948
0.119453
0.0676618
0.103282
0.0835015
0.0574811
0.154364
0.134912
0.144051
0.137965
0.1541
0.185395
0.182247
0.199531
0.216138
0.141835
0.0976343
0.112238
0.136717
0.0992395
0.113143
0.130336
-0.165044
-0.254322
-0.110594
-0.466238
-0.340621
-0.322306
-0.360337
-0.404833
-0.0911134
-0.76821
-0.70141
-1.38794
0.112885
0.516129
0.34649
0.358447
0.367635
0.345573
0.355226
0.379715
0.386485
0.302541
0.312497
0.31875
0.276699
0.308737
0.315606
0.321437
0.14487
0.0683326
0.0567285
0.00760651
-0.124456
-0.0889447
0.087836
0.0274452
-0.0376412
-0.0373301
0.120946
0.00505195
0.0730303
0.119341
0.0671611
0.00457178
0.210477
0.272149
0.257046
0.227583
0.146315
0.163477
0.18782
0.227296
0.248507
0.27868
0.151803
0.157147
0.157849
0.155346
0.153707
0.155863
0.155575
0.15853
0.159284
0.161874
0.161231
-0.198415
-0.251352
-0.331559
-0.248772
-0.646298
-0.620173
-0.551198
-0.531034
-0.36723
-0.465882
-0.57372
-0.473588
-0.369481
-0.333393
-0.362342
-0.355899
-0.292746
-0.390597
-0.0710719
0.139347
0.178345
0.0361688
-0.110866
-0.0743959
0.00836041
-0.255947
-0.097751
-0.106217
-0.153018
-0.277469
-0.0234152
-0.0216897
-0.0243585
-0.011666
-0.0459405
-0.0146921
0.0104755
0.00645644
0.00112745
0.00720424
0.0114839
0.140924
0.13429
0.132393
0.127516
0.12743
0.138145
0.143297
0.145106
0.149654
0.151416
0.143622
0.148765
0.150993
0.0206694
0.0153051
0.0195451
0.00770102
0.0109993
0.0134065
0.00998421
-0.251254
-0.299255
-0.256274
-0.342122
-0.464309
-0.408178
0.113572
0.105637
0.137293
0.320151
0.174047
0.0870043
0.170655
0.273364
-0.105968
0.102939
-0.0676705
0.523755
0.410214
0.551354
0.192007
-0.113855
0.0321105
0.0521781
-0.104524
0.00297952
-0.0132957
-0.12997
-0.091764
-0.0743899
0.00383357
-0.0958343
-0.11884
-0.36333
-0.19235
-0.0651164
-0.0869249
0.0516731
0.113372
-0.108105
-0.180569
-0.235545
0.271579
0.288628
0.301265
0.27107
0.294919
0.223206
0.21671
0.233809
0.244656
0.235697
-1.03844
-0.652557
-1.80622
-1.19185
-0.753009
0.138388
0.121409
0.370416
0.28327
0.356059
0.341679
0.287005
0.255375
0.267113
0.301289
0.0031251
0.11278
0.0738196
0.0960546
0.027972
-0.0506686
0.240176
0.236352
0.264995
0.287105
0.263106
0.289009
0.14981
0.148769
0.149638
0.146775
0.1452
0.146798
-0.539747
-0.533308
-0.488712
-0.492074
-0.565506
-0.564528
0.0263933
0.00710705
0.0067648
0.00958764
0.028153
0.0283655
-0.211664
-0.263873
-0.328902
-0.316029
-0.360894
-0.412312
-0.428938
-0.336669
-0.261689
-0.279073
0.0363612
0.311291
0.139558
0.31661
0.120084
0.215435
0.131433
0.11347
0.149913
0.0165083
0.0913576
-0.334003
-0.563892
-0.596022
0.420437
0.383691
0.179855
-0.0715291
-0.200472
0.0933157
0.172482
0.138597
0.174281
0.218885
0.215528
-0.377021
-0.28479
-0.197855
0.0960869
-0.0919554
-0.0921594
-0.0851696
0.0498311
0.0247019
)
;

boundaryField
{
    wall-4
    {
        type            zeroGradient;
    }
    velocity-inlet-5
    {
        type            zeroGradient;
    }
    velocity-inlet-6
    {
        type            zeroGradient;
    }
    pressure-outlet-7
    {
        type            fixedValue;
        value           uniform 0;
    }
    wall-8
    {
        type            zeroGradient;
    }
    frontAndBackPlanes
    {
        type            empty;
    }
}

