/*--------------------------------*- C++ -*----------------------------------*\
  =========                 |
  \\      /  F ield         | OpenFOAM: The Open Source CFD Toolbox
   \\    /   O peration     | Website:  https://openfoam.org
    \\  /    A nd           | Version:  6
     \\/     M anipulation  |
\*---------------------------------------------------------------------------*/
FoamFile
{
    version     2.0;
    format      ascii;
    class       volScalarField;
    location    "0";
    object      p;
}
// * * * * * * * * * * * * * * * * * * * * * * * * * * * * * * * * * * * * * //

dimensions      [0 2 -2 0 0 0 0];

internalField   nonuniform List<scalar> 
13046
(
-0.0507997
-0.0510241
-0.0371208
-0.0444445
-0.0419295
-0.0526405
-0.0529866
-0.0480756
-0.0379927
-0.112542
-0.207679
-0.0572761
-0.0532298
-0.0702621
-0.0429955
-0.0990094
-0.0560897
-0.181279
-0.0393376
-0.0418407
-0.0471631
-0.100426
-0.0555312
-0.186103
-0.0497012
-0.0400496
-0.040414
-0.0584718
-0.0648026
-0.0397835
-0.0475322
-0.063963
-0.0420927
-0.0437343
-0.0385268
-0.0465306
-0.0444044
-0.0375106
-0.0433356
-0.0497259
-0.0400607
-0.0613486
-0.044382
-0.0356816
-0.0415076
-0.0438326
-0.0428976
-0.0400507
-0.0545624
-0.0520226
-0.0368968
-0.0567922
-0.0510188
-0.0756022
-0.0455285
-0.0820584
-0.0483143
-0.124191
-0.0716025
-0.051397
-0.0705421
-0.0781642
-0.0464111
-0.0529042
-0.14318
-0.090603
-0.0687226
-0.117939
-0.0536087
-0.0652877
-0.113255
-0.0530269
-0.134463
-0.0744208
-0.0519466
-0.038734
-0.0335384
-0.0532799
-0.0507188
-0.0815426
-0.137616
-0.051352
-0.0431305
-0.0418249
-0.0539261
-0.155319
-0.0964846
-0.0967715
-0.0527018
-0.132217
-0.0552546
-0.107063
-0.13654
-0.0705266
-0.0746294
-0.0922967
-0.0995827
-0.0478029
-0.0468771
-0.0520219
-0.0969205
-0.123713
-0.0427882
-0.041876
-0.0420993
-0.0425446
-0.0762411
-0.0440776
-0.0501123
-0.04147
-0.0688557
-0.132665
-0.0601292
-0.26955
-0.0524032
-0.0620817
-0.0443466
-0.0747345
-0.071657
-0.1102
-0.0488223
-0.0966338
-0.0483648
-0.116682
-0.224346
-0.0579604
-0.0602619
-0.0913516
-0.042199
-0.0511018
-0.0414101
-0.0622142
-0.0552465
-0.104238
-0.117501
-0.0813189
-0.114199
-0.0501226
-0.0500968
-0.0655763
-0.0440277
-0.0628573
-0.0458438
-0.0436648
-0.0520989
-0.0492095
-0.0659373
-0.0439079
-0.0685857
-0.036871
-0.0706418
-0.0885776
-0.0479274
-0.0380805
-0.0613399
-0.0451384
-0.0606697
-0.0820091
-0.065257
-0.0831345
-0.0486578
-0.0484896
-0.0583891
-0.0631264
-0.0478755
-0.113779
-0.0576086
-0.202334
-0.125602
-0.059587
-0.253919
-0.0832159
-0.125086
-0.0499751
-0.0512196
-0.0810915
-0.0431541
-0.0581848
-0.0479904
-0.0582627
-0.0555238
-0.183616
-0.111842
-0.051392
-0.0737173
-0.0475206
-0.0391292
-0.0660388
-0.0479943
-0.0593558
-0.0473643
-0.044654
-0.0730711
-0.0411239
-0.0599966
-0.079796
-0.0441337
-0.0986054
-0.0542188
-0.149763
-0.0531312
-0.0974591
-0.116012
-0.1065
-0.136984
-0.0561604
-0.0612312
-0.0838561
-0.0545722
-0.056469
-0.0811841
-0.0533537
-0.137414
-0.155539
-0.107009
-0.0562367
-0.0464956
-0.0380711
-0.0432482
-0.0569997
-0.0603094
-0.0408766
-0.0527956
-0.100929
-0.110529
-0.0595687
-0.0683856
-0.0395201
-0.0590924
-0.232467
-0.124476
-0.0538896
-0.0837253
-0.0644824
-0.101856
-0.124447
-0.0539314
-0.0743721
-0.0619271
-0.0454071
-0.0631847
-0.0818613
-0.0415496
-0.0918907
-0.0960515
-0.0551529
-0.0869518
-0.0725234
-0.0512507
-0.0590635
-0.233061
-0.129049
-0.0477895
-0.0404946
-0.0760469
-0.124109
-0.0617923
-0.293213
-0.0417428
-0.04503
-0.0441454
-0.0713944
-0.070886
-0.0627229
-0.0599168
-0.0439044
-0.0475259
-0.0550406
-0.0853445
-0.152337
-0.0604984
-0.0760249
-0.0443566
-0.0870281
-0.0875878
-0.0509937
-0.0794878
-0.110294
-0.0491007
-0.0423825
-0.0462209
-0.0360372
-0.0779383
-0.0677897
-0.0482126
-0.0596017
-0.0865701
-0.0444034
-0.0595217
-0.0601517
-0.0469331
-0.0457375
-0.0835442
-0.0782951
-0.0765859
-0.0489823
-0.0851628
-0.0499135
-0.114471
-0.0440718
-0.0453876
-0.0708672
-0.0489905
-0.0860665
-0.0673859
-0.0702297
-0.103487
-0.0498658
-0.0505872
-0.055806
-0.0782914
-0.0746411
-0.0759028
-0.108226
-0.0503758
-0.114613
-0.0489079
-0.0551775
-0.173396
-0.108547
-0.0693931
-0.0884261
-0.0459899
-0.322869
-0.0626702
-0.139421
-0.0479773
-0.045264
-0.0523128
-0.0664015
-0.0728508
-0.0454308
-0.0523357
-0.0941638
-0.13491
-0.0485775
-0.0869934
-0.0492861
-0.102368
-0.0968673
-0.0544051
-0.0545106
-0.0411846
-0.0709496
-0.0728549
-0.0444494
-0.0632228
-0.0417637
-0.0933095
-0.0551631
-0.16801
-0.055158
-0.0909827
-0.053256
-0.0747363
-0.0772681
-0.0462037
-0.064191
-0.0533396
-0.0427331
-0.0709498
-0.0550575
-0.046834
-0.0487321
-0.0546204
-0.03948
-0.0525769
-0.0823602
-0.0639034
-0.102708
-0.144634
-0.054458
-0.0955177
-0.0987791
-0.0523937
-0.0639389
-0.0543988
-0.0966448
-0.0785635
-0.0757351
-0.11709
-0.12871
-0.0542258
-0.0519785
-0.0619205
-0.309875
-0.135448
-0.120622
-0.0614413
-0.282845
-0.0733917
-0.064977
-0.0497594
-0.0553271
-0.100093
-0.163717
-0.0672997
-0.0683884
-0.0984072
-0.108528
-0.0474175
-0.0502574
-0.0585917
-0.172511
-0.118493
-0.127882
-0.0625855
-0.307721
-0.0490763
-0.0396481
-0.0385633
-0.13127
-0.288013
-0.0608654
-0.0537335
-0.0813568
-0.0474089
-0.110406
-0.176631
-0.0557466
-0.307678
-0.0605485
-0.15516
-0.0482837
-0.0422725
-0.0583879
-0.0519184
-0.0352342
-0.0408465
-0.113938
-0.0583326
-0.228858
-0.0547773
-0.0400024
-0.041722
-0.0472807
-0.039304
-0.0378977
-0.0507702
-0.0913106
-0.0595298
-0.0561879
-0.0345899
-0.0414413
-0.0459442
-0.0533557
-0.0464366
-0.0613886
-0.0920368
-0.0539333
-0.0553561
-0.0552127
-0.189043
-0.191909
-0.105848
-0.106643
-0.109112
-0.150394
-0.0547718
-0.0490297
-0.0639556
-0.109807
-0.0518834
-0.0473818
-0.0683062
-0.0872718
-0.0782297
-0.054655
-0.262138
-0.0607828
-0.147588
-0.0555202
-0.108613
-0.145321
-0.123166
-0.0588424
-0.238399
-0.0608219
-0.322963
-0.154476
-0.349446
-0.0621003
-0.144195
-0.0815971
-0.0810282
-0.0504292
-0.204449
-0.0599561
-0.131305
-0.0859889
-0.114097
-0.050114
-0.103699
-0.0591041
-0.21513
-0.0545554
-0.0418433
-0.0460451
-0.161486
-0.0573651
-0.114651
-0.0864564
-0.054447
-0.0757618
-0.0908952
-0.0872925
-0.049905
-0.0609571
-0.396801
-0.166374
-0.30101
-0.0613187
-0.147111
-0.0508916
-0.0402365
-0.0505529
-0.176062
-0.120244
-0.0573275
-0.0580507
-0.124548
-0.180894
-0.101096
-0.054591
-0.160694
-0.0540746
-0.148102
-0.0886644
-0.0578679
-0.0967951
-0.0512954
-0.11751
-0.0714598
-0.0482456
-0.0553035
-0.0912994
-0.1777
-0.0561652
-0.0578367
-0.0759832
-0.0811345
-0.0442644
-0.0429664
-0.054751
-0.0733503
-0.0440354
-0.0638678
-0.105147
-0.0458553
-0.0909252
-0.093857
-0.0519923
-0.160864
-0.107661
-0.0549184
-0.0530042
-0.0925652
-0.103734
-0.349031
-0.062955
-0.138609
-0.0456125
-0.0470663
-0.0389056
-0.0623655
-0.0365874
-0.0576409
-0.0582888
-0.0610677
-0.0470324
-0.098584
-0.0472882
-0.0805818
-0.302541
-0.0619195
-0.152461
-0.169904
-0.116685
-0.0567155
-0.0538771
-0.0545009
-0.076756
-0.0842688
-0.0936657
-0.0537506
-0.0535506
-0.142423
-0.0855502
-0.266917
-0.136365
-0.0602511
-0.24895
-0.134732
-0.0597647
-0.0672246
-0.102326
-0.0460214
-0.0436428
-0.0499327
-0.0667454
-0.103838
-0.0557267
-0.178294
-0.0873515
-0.086179
-0.0484934
-0.0505991
-0.133335
-0.0863943
-0.058993
-0.0448172
-0.0788399
-0.0711269
-0.060273
-0.0476769
-0.0486161
-0.0421967
-0.0667013
-0.0560578
-0.18412
-0.108561
-0.079309
-0.115871
-0.0494845
-0.0456902
-0.0406445
-0.0584762
-0.0964009
-0.057148
-0.191299
-0.0547207
-0.0610643
-0.039841
-0.0559221
-0.0539274
-0.0418475
-0.0824774
-0.0840228
-0.0503179
-0.115465
-0.0599305
-0.25512
-0.111669
-0.0600535
-0.247215
-0.0511279
-0.138516
-0.0863277
-0.0757455
-0.0531353
-0.0497031
-0.0609457
-0.275612
-0.122053
-0.0520698
-0.12709
-0.0896412
-0.0617997
-0.339257
-0.157482
-0.14955
-0.35969
-0.0620773
-0.0541151
-0.169606
-0.0905362
-0.0578698
-0.210167
-0.118257
-0.0985812
-0.0954312
-0.0559986
-0.17776
-0.0543902
-0.161143
-0.0928546
-0.119123
-0.0516707
-0.0505969
-0.0792594
-0.0960981
-0.0436136
-0.0409931
-0.0561875
-0.0893235
-0.110611
-0.0511155
-0.0510625
-0.087365
-0.105619
-0.0874252
-0.0551717
-0.170576
-0.0596719
-0.105161
-0.0478311
-0.0570803
-0.0838981
-0.0503328
-0.0808092
-0.0859888
-0.0464352
-0.0821225
-0.0902884
-0.0478782
-0.045135
-0.0462552
-0.0533617
-0.0578404
-0.0877386
-0.0404657
-0.0570691
-0.155352
-0.116533
-0.137305
-0.0601924
-0.245923
-0.143066
-0.0597416
-0.244047
-0.0514817
-0.041409
-0.0684265
-0.279666
-0.060682
-0.142606
-0.0821047
-0.0505894
-0.130469
-0.060574
-0.275285
-0.149146
-0.0443145
-0.0416045
-0.0495137
-0.0618751
-0.06718
-0.0436274
-0.0555719
-0.074996
-0.0493153
-0.0596223
-0.19571
-0.125986
-0.0924545
-0.0837382
-0.050216
-0.0575783
-0.099502
-0.197668
-0.0678234
-0.0726501
-0.0423049
-0.0421839
-0.0387559
-0.0556349
-0.196821
-0.122768
-0.0581903
-0.0513418
-0.134818
-0.0904381
-0.116558
-0.120638
-0.0596436
-0.0603464
-0.246559
-0.260543
-0.0669384
-0.0598027
-0.0439236
-0.077076
-0.0776135
-0.0504925
-0.055818
-0.0495946
-0.03791
-0.225712
-0.132735
-0.22176
-0.0593382
-0.132701
-0.060186
-0.0741222
-0.0952202
-0.0458088
-0.122991
-0.127955
-0.205232
-0.218361
-0.0580258
-0.058958
-0.0784061
-0.0701706
-0.0453048
-0.0620986
-0.0607359
-0.043159
-0.107348
-0.0585286
-0.225373
-0.0618492
-0.0713437
-0.0453167
-0.0553988
-0.0592021
-0.0426487
-0.116641
-0.0593148
-0.241938
-0.0656288
-0.0898909
-0.04707
-0.0641722
-0.0929323
-0.0531447
-0.0571578
-0.0895452
-0.0471783
-0.106979
-0.0560164
-0.104174
-0.0614632
-0.377118
-0.160179
-0.0678012
-0.0701579
-0.0445889
-0.104121
-0.0575218
-0.202712
-0.0532658
-0.0952574
-0.0556436
-0.14218
-0.0618005
-0.327021
-0.0430279
-0.0468344
-0.0485562
-0.0618626
-0.0451315
-0.0628087
-0.0526721
-0.0509727
-0.0407868
-0.0478147
-0.0427389
-0.0443717
-0.0566926
-0.0354537
-0.0630211
-0.0650528
-0.0600645
-0.0405442
-0.060538
-0.0579404
-0.0412606
-0.0605097
-0.235557
-0.139949
-0.0530906
-0.0683055
-0.045693
-0.118366
-0.1996
-0.0571304
-0.0814234
-0.0843987
-0.0942424
-0.105714
-0.048715
-0.050609
-0.0546284
-0.0567296
-0.0422394
-0.0644037
-0.093423
-0.0486159
-0.0740015
-0.0842726
-0.0449186
-0.0431153
-0.0465269
-0.0417108
-0.0854952
-0.103923
-0.050247
-0.0468838
-0.0437788
-0.0517971
-0.0738281
-0.0737393
-0.0457099
-0.0652141
-0.0853414
-0.0482495
-0.0437379
-0.0440204
-0.0508285
-0.0366835
-0.0499923
-0.0385104
-0.0454401
-0.0477541
-0.041217
-0.0514051
-0.0309361
-0.0604257
-0.0552529
-0.0568674
-0.0710811
-0.0723937
-0.0416465
-0.0449855
-0.0534582
-0.146838
-0.086459
-0.0536296
-0.086979
-0.0623155
-0.0529224
-0.052516
-0.156346
-0.151939
-0.0905194
-0.0916422
-0.0519673
-0.0495302
-0.0828333
-0.0420826
-0.0398047
-0.0437021
-0.0860325
-0.112598
-0.050721
-0.0475061
-0.041576
-0.0650535
-0.0665538
-0.0893667
-0.0481808
-0.0791727
-0.0787377
-0.134553
-0.0508599
-0.128175
-0.0505677
-0.0786816
-0.099019
-0.0486195
-0.137942
-0.312213
-0.0613023
-0.0560851
-0.0890827
-0.055502
-0.0577945
-0.0559925
-0.0525539
-0.0909088
-0.0455411
-0.0879541
-0.0896356
-0.0982606
-0.051768
-0.0631303
-0.0860425
-0.0463314
-0.0519696
-0.0537114
-0.0861446
-0.0574429
-0.0536188
-0.0511985
-0.0413107
-0.0745105
-0.0816282
-0.0573845
-0.0447172
-0.0834448
-0.0778676
-0.0944498
-0.0471653
-0.0453062
-0.0425528
-0.0505821
-0.110378
-0.0583021
-0.217634
-0.0525806
-0.0509793
-0.0906886
-0.0641968
-0.0672261
-0.0916321
-0.095689
-0.0489667
-0.0458173
-0.0571861
-0.204456
-0.106747
-0.107164
-0.057974
-0.219317
-0.11136
-0.0585967
-0.226945
-0.0823169
-0.0512839
-0.134656
-0.0609572
-0.0802454
-0.0454086
-0.177858
-0.201067
-0.0875152
-0.17527
-0.132596
-0.243098
-0.169505
-0.154454
-0.261986
-0.142316
-0.144487
-0.284095
-0.190679
-0.140569
-0.237691
-0.208837
-0.17229
-0.240736
-0.210851
-0.168862
-0.214242
-0.23975
-0.131303
-0.0598994
-0.0855488
-0.194182
-0.124316
-0.289144
-0.197564
-0.194632
-0.285544
-0.17474
-0.213807
-0.224432
-0.280684
-0.209039
-0.101842
-0.133555
-0.174052
-0.132912
-0.252654
-0.0639674
-0.267113
-0.141506
-0.0906149
-0.26455
-0.257841
-0.279756
-0.279751
-0.274218
-0.0813263
-0.212183
-0.207785
-0.278888
-0.281857
-0.0863094
-0.168675
-0.210341
-0.290777
-0.147358
-0.277727
-0.263099
-0.0851565
-0.147119
-0.215329
-0.166636
-0.202607
-0.0596199
-0.132264
-0.105236
-0.325577
-0.300748
-0.217803
-0.155592
-0.307303
-0.224375
-0.180962
-0.286274
-0.14928
-0.111631
-0.235562
-0.223954
-0.271075
-0.228262
-0.270388
-0.142801
-0.267852
-0.17983
-0.240906
-0.0760224
-0.218329
-0.150518
-0.0850518
-0.221572
-0.197753
-0.286559
-0.269339
-0.279354
-0.19713
-0.327036
-0.17679
-0.128843
-0.0823503
-0.0570961
-0.218848
-0.181633
-0.284537
-0.211209
-0.269111
-0.10375
-0.125248
-0.167603
-0.257373
-0.313488
-0.126847
-0.097612
-0.251063
-0.179979
-0.318897
-0.244401
-0.22928
-0.0632073
-0.0623343
-0.153534
-0.196354
-0.208708
-0.285475
-0.0685446
-0.191743
-0.157318
-0.332242
-0.0785109
-0.270055
-0.204048
-0.185907
-0.113488
-0.230912
-0.335472
-0.255776
-0.168703
-0.209255
-0.141508
-0.134092
-0.228328
-0.0935985
-0.277561
-0.232589
-0.107038
-0.255579
-0.245081
-0.280809
-0.179261
-0.175834
-0.111321
-0.15046
-0.257528
-0.156426
-0.138745
-0.0910066
-0.180885
-0.215805
-0.229412
-0.119615
-0.189388
-0.128629
-0.279317
-0.0637825
-0.244325
-0.0931262
-0.0733564
-0.208625
-0.0662426
-0.108146
-0.0947661
-0.244509
-0.331316
-0.285841
-0.0875594
-0.25647
-0.260596
-0.192025
-0.258042
-0.241706
-0.266233
-0.203309
-0.0730482
-0.152754
-0.254806
-0.147442
-0.276497
-0.0649897
-0.216406
-0.0968521
-0.239597
-0.340992
-0.0819371
-0.0719552
-0.243066
-0.274865
-0.0639732
-0.194955
-0.166911
-0.266629
-0.155507
-0.102526
-0.114904
-0.230637
-0.292284
-0.112517
-0.18606
-0.298925
-0.122925
-0.198351
-0.28207
-0.21207
-0.0828786
-0.314901
-0.157738
-0.128644
-0.273186
-0.3259
-0.257858
-0.208111
-0.185733
-0.187196
-0.178868
-0.219271
-0.267784
-0.192175
-0.166783
-0.114466
-0.254343
-0.174478
-0.273936
-0.257323
-0.194983
-0.249271
-0.330917
-0.104809
-0.107636
-0.206455
-0.0667151
-0.0964958
-0.0646098
-0.202876
-0.343274
-0.239004
-0.260299
-0.185914
-0.312177
-0.186808
-0.0841334
-0.155298
-0.197174
-0.235107
-0.252827
-0.102189
-0.216179
-0.136557
-0.254391
-0.232386
-0.259053
-0.204444
-0.230653
-0.235621
-0.214594
-0.290751
-0.174844
-0.194804
-0.25827
-0.169862
-0.182773
-0.243703
-0.282409
-0.257164
-0.278739
-0.278973
-0.201537
-0.302392
-0.342032
-0.219417
-0.288299
-0.311268
-0.1971
-0.215451
-0.307561
-0.107394
-0.17123
-0.247193
-0.101439
-0.280321
-0.175745
-0.119662
-0.194085
-0.197121
-0.105139
-0.238757
-0.125373
-0.250735
-0.227909
-0.103624
-0.261582
-0.188688
-0.35678
-0.304717
-0.341027
-0.292339
-0.280457
-0.173051
-0.269285
-0.321571
-0.283325
-0.247124
-0.0640817
-0.182405
-0.158795
-0.173856
-0.206649
-0.185901
-0.233479
-0.289259
-0.18482
-0.25996
-0.0857559
-0.124601
-0.218485
-0.254627
-0.210691
-0.0593835
-0.108215
-0.100831
-0.150136
-0.240888
-0.208336
-0.247936
-0.286214
-0.300302
-0.275064
-0.167727
-0.136261
-0.292899
-0.306815
-0.199859
-0.171012
-0.202236
-0.172457
-0.119597
-0.19122
-0.230685
-0.0807447
-0.0950385
-0.233617
-0.136108
-0.103325
-0.298595
-0.218336
-0.245189
-0.26833
-0.276337
-0.0996044
-0.297162
-0.206429
-0.0799342
-0.339189
-0.194351
-0.235225
-0.208798
-0.249826
-0.262506
-0.286412
-0.172318
-0.303737
-0.281745
-0.260846
-0.264734
-0.12885
-0.0868078
-0.199796
-0.151244
-0.163885
-0.183836
-0.338546
-0.122063
-0.139657
-0.278951
-0.320802
-0.178269
-0.283738
-0.176849
-0.212238
-0.250876
-0.090289
-0.0859506
-0.242848
-0.119168
-0.059083
-0.11751
-0.0963613
-0.0952573
-0.170693
-0.237745
-0.27369
-0.0614362
-0.105218
-0.0962593
-0.281878
-0.269847
-0.33183
-0.11464
-0.187876
-0.185533
-0.0933628
-0.134407
-0.188388
-0.171739
-0.235589
-0.202199
-0.241502
-0.256949
-0.255208
-0.245095
-0.221141
-0.301833
-0.18717
-0.261556
-0.128199
-0.140668
-0.318218
-0.100163
-0.0918014
-0.152084
-0.285399
-0.192579
-0.215393
-0.141604
-0.21561
-0.279865
-0.10343
-0.233427
-0.0842516
-0.322745
-0.244729
-0.201445
-0.153066
-0.106929
-0.197241
-0.0752616
-0.194214
-0.117412
-0.246196
-0.121478
-0.234546
-0.190194
-0.258235
-0.111738
-0.188234
-0.0635727
-0.164568
-0.301762
-0.181516
-0.180779
-0.223588
-0.283044
-0.242241
-0.25382
-0.0808817
-0.190501
-0.200225
-0.130809
-0.282939
-0.0862192
-0.0668463
-0.262623
-0.060867
-0.0734366
-0.115699
-0.0953489
-0.194578
-0.281171
-0.274211
-0.24925
-0.126899
-0.22012
-0.232807
-0.0771913
-0.277253
-0.248871
-0.277573
-0.0969336
-0.0636235
-0.283191
-0.118389
-0.163286
-0.0873427
-0.165898
-0.147262
-0.256673
-0.0730438
-0.06432
-0.158592
-0.268635
-0.109069
-0.187081
-0.134505
-0.209594
-0.201805
-0.168808
-0.174403
-0.230717
-0.271938
-0.20096
-0.159475
-0.172967
-0.10565
-0.287268
-0.186229
-0.143332
-0.26661
-0.092461
-0.194697
-0.257126
-0.0776268
-0.111817
-0.168229
-0.0708785
-0.209991
-0.274146
-0.141846
-0.156473
-0.145686
-0.245539
-0.254262
-0.177652
-0.161341
-0.251558
-0.225738
-0.180869
-0.313828
-0.250705
-0.0819917
-0.0579787
-0.0622671
-0.154011
-0.0557233
-0.0640107
-0.0777844
-0.347298
-0.181216
-0.177639
-0.0716423
-0.275726
-0.193025
-0.285143
-0.268207
-0.24432
-0.0734029
-0.239915
-0.232057
-0.144517
-0.15928
-0.256735
-0.258624
-0.0653616
-0.0696158
-0.0997509
-0.141304
-0.280891
-0.119037
-0.169625
-0.278083
-0.185987
-0.312109
-0.283178
-0.17566
-0.230437
-0.224378
-0.0771171
-0.0850979
-0.33562
-0.113842
-0.22549
-0.220331
-0.202357
-0.0796513
-0.234737
-0.14313
-0.243633
-0.0969838
-0.268718
-0.242202
-0.0632253
-0.332882
-0.315608
-0.214002
-0.244639
-0.343037
-0.294437
-0.241337
-0.347949
-0.223717
-0.329551
-0.300837
-0.229489
-0.29016
-0.237987
-0.218822
-0.323238
-0.286623
-0.0712391
-0.0836688
-0.267493
-0.288448
-0.0795934
-0.277571
-0.191908
-0.0663747
-0.235664
-0.0656825
-0.214438
-0.110146
-0.15242
-0.209747
-0.303578
-0.169933
-0.175849
-0.225219
-0.211321
-0.267219
-0.31425
-0.242741
-0.186793
-0.335322
-0.316736
-0.0766702
-0.198227
-0.160322
-0.13604
-0.280024
-0.0936081
-0.135028
-0.281655
-0.288967
-0.241707
-0.303032
-0.341366
-0.154393
-0.152359
-0.265627
-0.17031
-0.246638
-0.0633471
-0.0746317
-0.246606
-0.251414
-0.0729721
-0.106243
-0.182219
-0.172717
-0.272418
-0.0617241
-0.152238
-0.335454
-0.0956801
-0.114839
-0.0846739
-0.18741
-0.282258
-0.205394
-0.150804
-0.18303
-0.320918
-0.0636838
-0.241527
-0.224109
-0.215488
-0.0763113
-0.0612877
-0.0661037
-0.1652
-0.172157
-0.125607
-0.100837
-0.0714836
-0.16133
-0.126211
-0.198139
-0.214981
-0.162987
-0.270986
-0.197357
-0.316072
-0.243524
-0.135434
-0.313712
-0.193693
-0.189382
-0.0910066
-0.0673641
-0.242023
-0.296815
-0.321513
-0.104182
-0.279041
-0.261645
-0.327458
-0.0728186
-0.196534
-0.193653
-0.286082
-0.187661
-0.262858
-0.230445
-0.129487
-0.138838
-0.0682891
-0.0661507
-0.236505
-0.0922025
-0.337644
-0.0939846
-0.0832522
-0.0850392
-0.127147
-0.252994
-0.250865
-0.262434
-0.328705
-0.152433
-0.337744
-0.133302
-0.281749
-0.0897191
-0.277185
-0.322687
-0.110618
-0.0998724
-0.224437
-0.226482
-0.160535
-0.0750405
-0.199107
-0.208736
-0.330125
-0.117071
-0.133476
-0.0643003
-0.341248
-0.230988
-0.0944867
-0.151011
-0.0708661
-0.145059
-0.263258
-0.351223
-0.339144
-0.22892
-0.324536
-0.0756235
-0.32137
-0.174183
-0.220167
-0.297958
-0.0924032
-0.346055
-0.0736153
-0.148307
-0.187908
-0.226417
-0.123928
-0.183477
-0.167016
-0.233055
-0.217891
-0.270984
-0.281066
-0.13515
-0.251177
-0.0551556
-0.28392
-0.147232
-0.166482
-0.108607
-0.0716846
-0.269943
-0.249455
-0.233833
-0.175277
-0.286996
-0.079801
-0.265872
-0.201738
-0.277852
-0.109417
-0.295894
-0.189447
-0.31113
-0.0655875
-0.331741
-0.249472
-0.169852
-0.0981834
-0.319154
-0.321331
-0.258642
-0.308829
-0.0837235
-0.199749
-0.141286
-0.11053
-0.151012
-0.137026
-0.0669254
-0.142525
-0.106024
-0.166383
-0.157353
-0.311613
-0.164117
-0.238111
-0.187498
-0.149714
-0.196802
-0.304967
-0.213373
-0.161681
-0.269327
-0.116316
-0.158895
-0.109469
-0.240353
-0.0678935
-0.214363
-0.163158
-0.160496
-0.31114
-0.267912
-0.278183
-0.172594
-0.188674
-0.178166
-0.0888268
-0.107887
-0.127135
-0.207342
-0.0920536
-0.071772
-0.0777598
-0.130498
-0.163541
-0.16485
-0.271551
-0.0654497
-0.10371
-0.112327
-0.227682
-0.254435
-0.307783
-0.167743
-0.153243
-0.209371
-0.111338
-0.0949239
-0.183052
-0.208689
-0.135292
-0.201859
-0.190711
-0.225664
-0.195924
-0.192663
-0.330415
-0.190179
-0.161264
-0.246774
-0.339499
-0.183589
-0.213949
-0.154214
-0.252037
-0.199463
-0.0900849
-0.0794883
-0.190728
-0.216269
-0.125218
-0.214841
-0.264703
-0.278312
-0.249672
-0.309885
-0.0867237
-0.20298
-0.204829
-0.149117
-0.159497
-0.126292
-0.198184
-0.0587967
-0.129545
-0.284666
-0.212905
-0.222623
-0.126085
-0.0950591
-0.128749
-0.180051
-0.313087
-0.282861
-0.246038
-0.18427
-0.205986
-0.18962
-0.284922
-0.0837807
-0.158796
-0.0890035
-0.100753
-0.19711
-0.217046
-0.163166
-0.0672973
-0.28329
-0.323772
-0.162744
-0.0624599
-0.258048
-0.250026
-0.133607
-0.152693
-0.109791
-0.229102
-0.31871
-0.18632
-0.32227
-0.255513
-0.116581
-0.23572
-0.268487
-0.217139
-0.263201
-0.17494
-0.211391
-0.20057
-0.0875819
-0.292004
-0.0668702
-0.111389
-0.282344
-0.349224
-0.192864
-0.135038
-0.105096
-0.230653
-0.245654
-0.187103
-0.259279
-0.198414
-0.0648627
-0.0906189
-0.149167
-0.184186
-0.303768
-0.0690006
-0.0599289
-0.0811424
-0.125614
-0.0868606
-0.169783
-0.31851
-0.330604
-0.324577
-0.0707532
-0.217753
-0.188928
-0.190483
-0.060266
-0.270057
-0.209388
-0.294412
-0.229713
-0.279146
-0.0524235
-0.184917
-0.12677
-0.097774
-0.0968166
-0.254201
-0.173267
-0.184926
-0.114072
-0.290151
-0.174401
-0.257728
-0.0815166
-0.206081
-0.285985
-0.193857
-0.239003
-0.0912778
-0.276144
-0.118155
-0.093187
-0.0931855
-0.298595
-0.19084
-0.246228
-0.18562
-0.0866969
-0.191014
-0.147537
-0.188142
-0.23999
-0.189053
-0.0670199
-0.168731
-0.0833196
-0.328644
-0.253249
-0.268968
-0.077091
-0.182192
-0.185544
-0.307042
-0.193409
-0.175046
-0.0625285
-0.165024
-0.242638
-0.294439
-0.0519107
-0.0694684
-0.242496
-0.0671591
-0.268401
-0.297975
-0.248693
-0.213929
-0.323227
-0.140319
-0.196833
-0.27329
-0.232233
-0.0728536
-0.22542
-0.118108
-0.202246
-0.257468
-0.220622
-0.329572
-0.320085
-0.235322
-0.165543
-0.150196
-0.282207
-0.226899
-0.0885971
-0.157274
-0.274879
-0.215069
-0.0797676
-0.227109
-0.19533
-0.0560706
-0.171623
-0.278494
-0.171603
-0.191458
-0.072904
-0.201321
-0.224942
-0.179111
-0.325504
-0.0781261
-0.201226
-0.0880061
-0.186908
-0.137613
-0.303791
-0.0943352
-0.237025
-0.286983
-0.277665
-0.185604
-0.0902987
-0.358089
-0.212518
-0.270815
-0.072428
-0.0575953
-0.189558
-0.26039
-0.140661
-0.0590224
-0.205061
-0.0855771
-0.105603
-0.115705
-0.131542
-0.198889
-0.110913
-0.116629
-0.0836601
-0.18247
-0.18152
-0.189168
-0.20091
-0.17239
-0.239489
-0.0740088
-0.191526
-0.0797052
-0.189872
-0.0774723
-0.286408
-0.069313
-0.140839
-0.0717593
-0.0759033
-0.0917083
-0.0565493
-0.254978
-0.100165
-0.174546
-0.273921
-0.213088
-0.280648
-0.0830049
-0.191312
-0.182541
-0.176505
-0.242775
-0.15747
-0.286558
-0.0670498
-0.214532
-0.112151
-0.337231
-0.236998
-0.269923
-0.0469315
-0.185311
-0.165522
-0.200737
-0.265709
-0.270855
-0.228856
-0.280416
-0.12286
-0.0807511
-0.298273
-0.187386
-0.267465
-0.281999
-0.113164
-0.192756
-0.1984
-0.0684421
-0.31796
-0.153443
-0.152158
-0.0958764
-0.0672726
-0.199206
-0.23842
-0.299972
-0.205215
-0.187014
-0.267821
-0.100855
-0.266872
-0.289878
-0.24366
-0.188428
-0.223313
-0.179908
-0.272329
-0.200358
-0.29952
-0.130584
-0.139026
-0.183215
-0.118623
-0.20244
-0.330561
-0.187953
-0.334287
-0.0705586
-0.258554
-0.275614
-0.282436
-0.0890408
-0.0847101
-0.203354
-0.115379
-0.185024
-0.294343
-0.171748
-0.270846
-0.21557
-0.0849454
-0.159133
-0.111595
-0.0669758
-0.119469
-0.155699
-0.076096
-0.29733
-0.20183
-0.2049
-0.179367
-0.159878
-0.065214
-0.270748
-0.182016
-0.218258
-0.215244
-0.243011
-0.234919
-0.140204
-0.11114
-0.0992557
-0.178333
-0.183605
-0.0676598
-0.0931584
-0.239259
-0.143739
-0.295495
-0.257724
-0.121307
-0.300726
-0.101677
-0.278836
-0.0952117
-0.0559078
-0.0817466
-0.286288
-0.0749298
-0.103686
-0.210393
-0.0658429
-0.177059
-0.0783648
-0.123894
-0.267876
-0.311886
-0.143748
-0.254368
-0.162803
-0.189318
-0.0840948
-0.181604
-0.0726664
-0.260496
-0.210749
-0.187012
-0.253593
-0.27706
-0.106216
-0.0624794
-0.264001
-0.0972151
-0.211964
-0.182072
-0.207287
-0.135281
-0.0885807
-0.119905
-0.275933
-0.093277
-0.11406
-0.0668574
-0.257458
-0.284038
-0.193007
-0.1224
-0.0678157
-0.109178
-0.222276
-0.0702213
-0.194433
-0.290193
-0.310838
-0.353005
-0.17091
-0.284969
-0.0652806
-0.0669656
-0.185015
-0.0531077
-0.118571
-0.206857
-0.0719535
-0.297798
-0.0645881
-0.25814
-0.0845067
-0.228441
-0.248817
-0.123271
-0.1941
-0.0791188
-0.0879963
-0.0864131
-0.229711
-0.229721
-0.304798
-0.0855145
-0.12215
-0.186984
-0.159907
-0.120787
-0.332741
-0.265915
-0.242104
-0.262961
-0.183843
-0.266681
-0.204278
-0.0940966
-0.205504
-0.192354
-0.136849
-0.243911
-0.200753
-0.186432
-0.206921
-0.247694
-0.100363
-0.0786445
-0.187937
-0.123456
-0.338283
-0.255466
-0.0960689
-0.130721
-0.278656
-0.0845247
-0.281259
-0.138587
-0.199463
-0.175213
-0.0948036
-0.227533
-0.126953
-0.110055
-0.149312
-0.0608573
-0.14871
-0.304211
-0.176585
-0.159459
-0.130312
-0.0656186
-0.144508
-0.186715
-0.214532
-0.173021
-0.0938389
-0.280476
-0.0807805
-0.222441
-0.143363
-0.1195
-0.136726
-0.219201
-0.0894528
-0.0708419
-0.202627
-0.23725
-0.196746
-0.235733
-0.305862
-0.201189
-0.112737
-0.293959
-0.30462
-0.185535
-0.287283
-0.142371
-0.189381
-0.127394
-0.212364
-0.0820914
-0.204944
-0.1015
-0.0595887
-0.276322
-0.0908641
-0.189001
-0.198897
-0.155995
-0.0839004
-0.200232
-0.218042
-0.15544
-0.246282
-0.235004
-0.256075
-0.272221
-0.33724
-0.0694909
-0.0606967
-0.304437
-0.20191
-0.135079
-0.305251
-0.191544
-0.264515
-0.14886
-0.13096
-0.3134
-0.343418
-0.0885106
-0.195896
-0.172955
-0.198051
-0.302647
-0.310501
-0.125042
-0.104474
-0.165447
-0.32725
-0.080774
-0.107538
-0.253136
-0.182457
-0.270257
-0.0604675
-0.257656
-0.196098
-0.278986
-0.16102
-0.0721203
-0.178115
-0.130925
-0.228234
-0.180864
-0.157384
-0.0719322
-0.0545676
-0.200582
-0.0697621
-0.224638
-0.195226
-0.194689
-0.238271
-0.23765
-0.0881518
-0.158739
-0.178253
-0.221782
-0.295622
-0.1579
-0.246222
-0.140515
-0.0834039
-0.255605
-0.24025
-0.197642
-0.235709
-0.176898
-0.327963
-0.209333
-0.0749247
-0.21915
-0.280218
-0.110461
-0.201528
-0.213116
-0.162356
-0.098413
-0.194155
-0.187252
-0.112763
-0.229705
-0.191567
-0.175835
-0.0838966
-0.166349
-0.19492
-0.193394
-0.296318
-0.205653
-0.07028
-0.109806
-0.0637415
-0.213674
-0.15441
-0.271916
-0.20976
-0.105568
-0.300395
-0.313709
-0.138706
-0.107084
-0.306514
-0.210573
-0.186184
-0.192859
-0.188184
-0.0545869
-0.189733
-0.210488
-0.130613
-0.213521
-0.129437
-0.125579
-0.282415
-0.195561
-0.113057
-0.18737
-0.0685157
-0.304258
-0.268159
-0.134468
-0.16442
-0.2376
-0.180752
-0.240916
-0.0671127
-0.0581233
-0.13398
-0.083566
-0.26796
-0.0940064
-0.165108
-0.120643
-0.0752819
-0.303105
-0.230652
-0.065807
-0.162859
-0.317442
-0.277129
-0.0853419
-0.0674326
-0.214341
-0.134227
-0.193647
-0.288406
-0.227657
-0.30867
-0.104655
-0.245625
-0.214045
-0.0723543
-0.285977
-0.190925
-0.21776
-0.174784
-0.197335
-0.28018
-0.218966
-0.288537
-0.178071
-0.120763
-0.0770199
-0.118597
-0.180997
-0.240085
-0.31795
-0.264667
-0.176265
-0.18509
-0.11226
-0.115348
-0.240855
-0.230095
-0.103552
-0.10492
-0.0654584
-0.0935142
-0.0738153
-0.195232
-0.292669
-0.239401
-0.257593
-0.0719182
-0.191372
-0.23037
-0.0757416
-0.290068
-0.118491
-0.132581
-0.203905
-0.190938
-0.228718
-0.287573
-0.106852
-0.25316
-0.148538
-0.213234
-0.0789393
-0.186335
-0.0637504
-0.259259
-0.214754
-0.28891
-0.340485
-0.226758
-0.116332
-0.195753
-0.25092
-0.195045
-0.0688264
-0.130744
-0.276283
-0.284021
-0.223925
-0.302626
-0.190471
-0.316051
-0.240807
-0.266158
-0.137238
-0.305535
-0.203351
-0.0676467
-0.168843
-0.110441
-0.111702
-0.243909
-0.213393
-0.232036
-0.0972618
-0.253421
-0.187335
-0.191439
-0.284489
-0.314766
-0.209323
-0.18041
-0.132786
-0.0632911
-0.101498
-0.193964
-0.144303
-0.308891
-0.0695115
-0.156148
-0.102219
-0.184839
-0.134189
-0.275948
-0.231725
-0.12001
-0.0719792
-0.119139
-0.19139
-0.270454
-0.062117
-0.189113
-0.0974693
-0.0721751
-0.15479
-0.221903
-0.307201
-0.103079
-0.138526
-0.282097
-0.165544
-0.153711
-0.0799655
-0.24108
-0.0706601
-0.0641213
-0.24251
-0.255809
-0.0735586
-0.274077
-0.275548
-0.223613
-0.267907
-0.213617
-0.267237
-0.299755
-0.217125
-0.194975
-0.225551
-0.26875
-0.186084
-0.293281
-0.261495
-0.168077
-0.214127
-0.31425
-0.085243
-0.0564955
-0.0667023
-0.203848
-0.328164
-0.06296
-0.280928
-0.2137
-0.18715
-0.271919
-0.181989
-0.139673
-0.260455
-0.283898
-0.30553
-0.296535
-0.287091
-0.273615
-0.330122
-0.222079
-0.199862
-0.228703
-0.0791341
-0.190013
-0.133925
-0.188034
-0.108268
-0.265973
-0.265807
-0.0501082
-0.199157
-0.136902
-0.286549
-0.15546
-0.0602801
-0.248843
-0.148381
-0.144176
-0.276622
-0.201047
-0.292055
-0.247091
-0.134559
-0.272737
-0.215738
-0.282142
-0.241577
-0.225511
-0.289251
-0.211161
-0.2567
-0.288663
-0.0558505
-0.219183
-0.20333
-0.192834
-0.0741555
-0.258004
-0.293873
-0.102285
-0.272301
-0.24022
-0.188587
-0.159086
-0.28054
-0.159768
-0.153093
-0.0662209
-0.102197
-0.286293
-0.281341
-0.305881
-0.18786
-0.31807
-0.244444
-0.19887
-0.249661
-0.198756
-0.169591
-0.0550738
-0.24607
-0.141181
-0.183693
-0.0703486
-0.27681
-0.0603999
-0.176684
-0.289199
-0.16093
-0.134579
-0.269921
-0.0875696
-0.187371
-0.0976123
-0.267804
-0.254805
-0.230059
-0.057035
-0.0584187
-0.134698
-0.15667
-0.131594
-0.33047
-0.286219
-0.117662
-0.0635356
-0.23942
-0.180496
-0.184643
-0.268091
-0.2366
-0.218857
-0.262107
-0.243161
-0.26203
-0.204169
-0.260803
-0.221395
-0.0626287
-0.100782
-0.323866
-0.123238
-0.234475
-0.301401
-0.112217
-0.289101
-0.242554
-0.133463
-0.227993
-0.247856
-0.216573
-0.098789
-0.273654
-0.255094
-0.256203
-0.174565
-0.256714
-0.0781238
-0.318634
-0.277908
-0.256635
-0.276174
-0.147735
-0.173305
-0.0741508
-0.195608
-0.112089
-0.198438
-0.174586
-0.205469
-0.140651
-0.289288
-0.264504