/*--------------------------------*- C++ -*----------------------------------*\
  =========                 |
  \\      /  F ield         | OpenFOAM: The Open Source CFD Toolbox
   \\    /   O peration     | Website:  https://openfoam.org
    \\  /    A nd           | Version:  6
     \\/     M anipulation  |
\*---------------------------------------------------------------------------*/
FoamFile
{
    version     2.0;
    format      ascii;
    class       volVectorField;
    location    "0";
    object      U;
}
// * * * * * * * * * * * * * * * * * * * * * * * * * * * * * * * * * * * * * //

dimensions      [0 1 -1 0 0 0 0];

internalField   nonuniform List<vector> 
13046
(
(-0.399594 -0.469827 0)
(-0.900811 -0.735661 -2.04855e-21)
(-0.52149 -0.676774 -3.86986e-21)
(-0.541777 -0.549183 0)
(-0.439037 -0.599174 -4.25905e-21)
(-0.84316 -0.7943 0)
(-0.542062 -0.529203 8.67025e-22)
(-0.883401 -0.817475 8.83492e-22)
(-0.396345 -0.565134 -4.57871e-21)
(-0.396973 -0.114297 4.7485e-21)
(-0.779968 -0.490673 0)
(-0.0600257 -0.0422513 2.22123e-21)
(-0.414551 -0.435951 -2.95587e-21)
(-0.968477 -0.767906 -2.25297e-21)
(-0.398332 -0.576205 2.10142e-21)
(-0.293449 -0.145141 -5.73946e-21)
(-0.145015 -0.185318 4.83443e-21)
(-0.870768 -0.460186 -3.59678e-22)
(-0.415571 -0.54924 0)
(-0.728489 -0.790778 -2.0831e-21)
(-0.703938 -0.637506 8.08037e-21)
(-0.312585 -0.143205 -2.60093e-21)
(-0.125877 -0.158331 -6.54152e-21)
(-0.860727 -0.472087 0)
(-0.472011 -0.538891 3.37749e-21)
(-0.831755 -0.743797 -5.25958e-21)
(-0.531234 -0.6756 0)
(-0.374258 -0.407735 -5.67726e-21)
(-0.976375 -0.738179 7.02664e-22)
(-0.415089 -0.58969 -3.63653e-21)
(-0.360185 -0.441398 0)
(-0.917743 -0.708618 0)
(-0.53409 -0.697014 3.93317e-21)
(-0.497155 -0.563515 -3.92492e-21)
(-0.557604 -0.687672 1.49501e-21)
(-0.78248 -0.730254 9.2903e-21)
(-0.538642 -0.590314 -5.64456e-21)
(-0.549833 -0.668821 2.48081e-21)
(-0.757603 -0.737024 -4.65479e-21)
(-0.239585 -0.39065 4.32696e-21)
(-0.72531 -0.861317 5.72537e-22)
(-0.877704 -0.599469 -3.72026e-21)
(-0.62095 -0.657577 2.40283e-21)
(-0.568812 -0.653899 3.89667e-21)
(-0.660242 -0.707856 0)
(-0.636339 -0.644853 1.70978e-21)
(-0.511091 -0.620643 -6.07659e-21)
(-0.693637 -0.734574 -6.88376e-22)
(-0.418439 -0.471698 0)
(-0.911822 -0.753789 -1.32844e-22)
(-0.472571 -0.640657 -1.17675e-22)
(-0.87574 -0.995216 2.54523e-21)
(-0.124349 -0.294335 0)
(-0.863395 -0.47755 -4.90796e-21)
(-0.920137 -1.01978 -3.59866e-21)
(-0.836153 -0.457676 -8.84217e-21)
(-0.107241 -0.281105 6.2134e-21)
(-1.01431 -0.478441 -3.16723e-22)
(-0.180844 -0.220616 0)
(-0.439577 -0.599808 2.34831e-21)
(-0.546282 -0.387457 -3.12745e-21)
(-1.00978 -0.876169 7.02137e-22)
(-0.178746 -0.340231 -9.49224e-21)
(-0.133224 -0.216553 4.18969e-21)
(-0.945649 -0.636501 4.25403e-23)
(-0.393108 -0.223484 -6.45329e-21)
(-0.155369 -0.222805 0)
(-1.0183 -0.459904 0)
(-0.50812 -0.683966 0)
(-0.154845 -0.235104 -2.29064e-21)
(-1.01774 -0.475505 0)
(-0.531555 -0.715818 1.66698e-21)
(-1.00408 -0.451047 0)
(-0.181805 -0.205735 -1.14134e-23)
(-0.409606 -0.565722 -2.41882e-23)
(-0.384271 -0.525365 0)
(-0.724783 -0.802504 2.18284e-21)
(-0.737213 -0.646411 -5.58462e-21)
(-0.321068 -0.445952 2.63547e-21)
(-0.213928 -0.19728 -8.4957e-21)
(-0.976904 -0.460553 0)
(-0.483028 -0.527879 1.88022e-21)
(-0.853926 -0.761688 0)
(-0.49007 -0.640557 0)
(-0.119718 -0.18122 -3.70714e-21)
(-0.915533 -0.599633 1.6942e-22)
(-0.385766 -0.200411 3.8913e-21)
(-0.518084 -0.242758 -6.6959e-21)
(-0.0720321 -0.149902 0)
(-0.950887 -0.761909 5.56827e-23)
(-0.0186298 -0.072147 0)
(-0.646128 -0.223417 0)
(-0.927335 -0.849846 -2.54424e-23)
(-0.372051 -0.328682 0)
(-0.392787 -0.312841 3.20199e-21)
(-1.01361 -0.716059 1.3196e-21)
(-1.01107 -0.724691 -5.7899e-22)
(-0.275942 -0.430716 -1.75881e-21)
(-0.231989 -0.37463 4.44092e-21)
(-0.0655085 -0.149219 -2.51422e-22)
(-0.54965 -0.257658 6.54978e-21)
(-0.955496 -0.799397 0)
(-0.622595 -0.621118 6.76484e-23)
(-0.481372 -0.610913 3.20448e-21)
(-0.738786 -0.763519 0)
(-0.165622 -0.345271 0)
(-0.763391 -0.493939 -2.82827e-21)
(-0.914636 -0.966113 0)
(-0.170591 -0.343418 7.11568e-21)
(-0.83832 -0.944727 0)
(-0.845743 -0.53004 -9.57624e-21)
(-0.399587 -0.0189691 0)
(-0.0227865 0.080642 0)
(-0.579684 -0.35766 1.03957e-21)
(-0.42997 -0.456876 8.13322e-21)
(-0.949758 -0.769208 1.09141e-21)
(-0.415785 -0.590349 3.84164e-21)
(-0.315994 -0.2783 3.94891e-21)
(-0.328146 -0.305019 -7.30426e-21)
(-1.00721 -0.634874 -1.14414e-21)
(-0.280757 -0.422114 1.84489e-21)
(-1.01409 -0.668068 5.43719e-22)
(-0.30012 -0.454463 -1.72349e-21)
(-0.385223 -0.092119 -4.28607e-21)
(-0.742721 -0.451919 1.02473e-21)
(-0.0533809 -0.0174781 -9.77622e-22)
(-0.35951 -0.360881 0)
(-1.00887 -0.727125 -1.36737e-21)
(-0.347445 -0.524121 4.20789e-21)
(-0.249015 -0.388743 0)
(-0.679356 -0.828167 -3.05052e-21)
(-0.903353 -0.616206 2.39463e-22)
(-0.0228324 -0.0988206 0)
(-0.652791 -0.248432 0)
(-0.952981 -0.885829 0)
(-0.440623 -0.287325 0)
(-0.992805 -0.738228 -6.21416e-22)
(-0.15679 -0.275713 -4.90399e-21)
(-0.343577 -0.423943 0)
(-0.941914 -0.705285 0)
(-0.513804 -0.686518 0)
(-0.594966 -0.486815 0)
(-0.95092 -0.8914 0)
(-0.258339 -0.441213 0)
(-0.153014 -0.326668 0)
(-0.872542 -0.969978 0)
(-0.835496 -0.507509 5.2429e-21)
(-0.192161 -0.373718 -6.33891e-22)
(-0.750874 -0.51421 -6.02509e-21)
(-0.906126 -0.951332 2.92606e-21)
(-0.520282 -0.367653 7.957e-21)
(-1.01145 -0.851736 0)
(-0.172608 -0.334937 1.22945e-20)
(-0.280209 -0.457914 0)
(-0.683818 -0.550809 6.22008e-21)
(-0.873636 -0.892588 -8.41687e-22)
(-0.977522 -1.02621 0)
(-0.77108 -0.415474 6.83958e-21)
(-0.99438 -1.01271 0)
(-0.732176 -0.394729 4.17235e-21)
(-0.08951 -0.258685 0)
(-0.0841904 -0.249827 0)
(-0.668494 -0.485706 8.51583e-22)
(-0.944872 -0.934141 1.41208e-21)
(-0.202616 -0.393275 -2.74559e-21)
(-0.428469 -0.125149 -4.89345e-21)
(-0.0550336 -0.0344512 0)
(-0.780733 -0.518878 9.87601e-22)
(-0.388966 -0.0448412 -3.96864e-21)
(-0.0319924 0.0474441 -4.42888e-22)
(-0.641326 -0.389004 0)
(-0.41596 -0.268104 -5.11133e-21)
(-0.985386 -0.708009 0)
(-0.156594 -0.270397 5.56057e-21)
(-0.189475 -0.325777 0)
(-0.954122 -0.564142 1.0376e-21)
(-0.682585 -0.85257 1.55546e-21)
(-0.697408 -0.500375 5.45436e-21)
(-0.208815 -0.396032 1.38938e-21)
(-0.925698 -0.930742 0)
(-0.0452257 -0.048867 0)
(-0.82612 -0.606018 0)
(-0.477304 -0.151726 4.19902e-21)
(-0.201139 -0.343178 0)
(-0.932744 -0.573785 -2.30128e-21)
(-0.700598 -0.856243 4.36657e-22)
(-0.247757 -0.431361 0)
(-0.698438 -0.534747 0)
(-0.880622 -0.905628 0)
(-0.593563 -0.503774 2.72353e-21)
(-0.929291 -0.880069 0)
(-0.281471 -0.467237 0)
(-0.987612 -0.794049 1.03767e-22)
(-0.333111 -0.511857 -2.66012e-21)
(-0.379282 -0.383292 8.96957e-21)
(-1.00197 -0.742151 0)
(-0.357068 -0.533494 -5.27269e-21)
(-0.461224 -0.21209 -7.01875e-21)
(-0.0816831 -0.139186 3.51352e-21)
(-0.915064 -0.672582 8.8414e-22)
(-0.0480332 -0.137501 3.83324e-21)
(-0.613366 -0.269393 3.8656e-21)
(-0.971654 -0.872465 -3.08048e-22)
(-0.584591 -0.220343 -1.17486e-20)
(-0.915892 -0.782197 0)
(-0.0351255 -0.0877075 -3.70944e-21)
(-0.893026 -1.03424 -1.25593e-22)
(-0.90516 -0.426876 2.22191e-21)
(-0.0797441 -0.241405 0)
(-0.508265 -0.475233 -1.27051e-20)
(-0.196814 -0.189301 4.10177e-21)
(-0.345469 -0.474375 -1.54018e-21)
(-0.980628 -0.445692 0)
(-0.881063 -0.732978 0)
(-0.564587 -0.196835 -1.1121e-20)
(-0.0340353 -0.0648518 0)
(-0.572502 -0.593936 -8.59305e-21)
(-0.49529 -0.628092 -2.43974e-21)
(-0.770881 -0.76342 6.67852e-21)
(-0.351237 -0.404804 0)
(-0.971244 -0.720846 -1.07726e-22)
(-0.461405 -0.629719 -1.9267e-21)
(-0.0373252 -0.125909 3.13161e-21)
(-0.639254 -0.26806 0)
(-0.967156 -0.892407 3.54686e-22)
(-0.503854 -0.456155 1.03546e-20)
(-0.980917 -0.816191 3.61527e-21)
(-0.319383 -0.497742 0)
(-0.0329106 0.0312515 0)
(-0.685228 -0.460202 -1.25183e-21)
(-0.442606 -0.0780576 0)
(-0.0730326 -0.238944 0)
(-0.877114 -0.415133 0)
(-0.92017 -1.05009 0)
(-0.575848 -0.24728 1.03024e-20)
(-0.945866 -0.808908 0)
(-0.0485549 -0.123009 -7.49646e-23)
(-0.698767 -0.441064 2.55271e-21)
(-0.972393 -0.974341 -8.43455e-22)
(-0.138572 -0.319389 0)
(-0.331461 -0.347156 0)
(-1.00768 -0.696803 1.30669e-21)
(-0.375441 -0.547488 3.21965e-21)
(-1.00186 -1.00104 -4.59109e-22)
(-0.724213 -0.302368 -6.4353e-21)
(-0.0283136 -0.145363 2.64758e-21)
(-0.737055 -0.369119 0)
(-1.00398 -1.02133 -5.95729e-22)
(-0.0631037 -0.21666 -9.8204e-23)
(-0.0265138 0.0500098 -3.24197e-21)
(-0.657288 -0.45483 0)
(-0.462391 -0.0666946 -4.89603e-21)
(-0.168676 -0.329819 3.99973e-21)
(-0.790743 -0.928401 -1.74693e-21)
(-0.895711 -0.538181 3.81781e-22)
(-0.327183 0.000893821 4.42256e-21)
(-0.0207751 0.0785894 -4.05233e-21)
(-0.55245 -0.290247 0)
(-0.414442 -0.562829 -1.53048e-21)
(-0.662914 -0.615051 -6.52056e-21)
(-0.761073 -0.797172 6.05737e-21)
(-0.621773 -0.429579 3.57632e-21)
(-0.670863 -0.453772 1.25158e-22)
(-0.988266 -0.928491 -2.19823e-21)
(-0.969506 -0.955852 0)
(-0.166141 -0.347448 2.49699e-21)
(-0.167307 -0.346136 -2.4411e-21)
(-0.273065 -0.381691 -3.46248e-21)
(-0.225371 -0.180565 4.37666e-21)
(-0.959776 -0.451259 -1.03106e-23)
(-0.31335 -0.353866 0)
(-1.00264 -0.680609 0)
(-0.427278 -0.599216 -4.21253e-21)
(-0.712955 -0.344921 -1.63496e-21)
(-1.00734 -1.00705 0)
(-0.0562437 -0.197148 0)
(-0.370557 -0.282169 -3.92999e-21)
(-0.998893 -0.679303 0)
(-0.215208 -0.346156 1.92067e-21)
(-0.583778 -0.640038 1.53373e-21)
(-0.667834 -0.696499 2.20193e-21)
(-0.597202 -0.676657 -7.75605e-22)
(-0.694628 -0.404309 -5.2874e-21)
(-0.995353 -0.987311 0)
(-0.105446 -0.276136 -4.3012e-21)
(-0.286759 -0.335323 0)
(-1.00778 -0.656468 1.77804e-21)
(-0.438389 -0.614931 -2.43307e-21)
(-0.453904 -0.434946 0)
(-0.454084 -0.415828 1.0956e-21)
(-0.149533 -0.308538 1.48717e-21)
(-0.798419 -0.943908 5.19474e-21)
(-0.906561 -0.517923 -9.02155e-21)
(-0.658895 -0.383671 -5.80868e-21)
(-1.00272 -0.963835 1.27604e-21)
(-0.102911 -0.266271 3.93872e-21)
(-0.384136 -0.266136 0)
(-0.184446 -0.301764 -6.85384e-21)
(-0.987516 -0.675997 -1.39383e-22)
(-0.200042 -0.369318 -9.9352e-21)
(-0.813797 -0.926218 0)
(-0.838481 -0.553496 3.1321e-21)
(-0.0715403 -0.237986 -5.65275e-21)
(-0.796114 -0.398288 -3.67933e-21)
(-0.975899 -1.04704 0)
(-0.261757 -0.278902 -3.62279e-21)
(-1.0154 -0.594534 -1.19864e-21)
(-0.369314 -0.528995 1.05204e-21)
(-0.124273 -0.288182 5.19581e-22)
(-0.854868 -0.988288 0)
(-0.890302 -0.482217 6.70463e-21)
(-0.263533 -0.262149 0)
(-0.286187 -0.259257 0)
(-1.01082 -0.582094 -5.0593e-22)
(-0.341837 -0.491115 -2.86569e-21)
(-1.0055 -0.600305 7.23728e-22)
(-0.300169 -0.438539 2.97254e-21)
(-0.0610925 -0.0779292 -2.69783e-21)
(-0.847364 -0.60794 0)
(-0.456056 -0.168775 -5.39402e-21)
(-0.312981 -0.31608 4.25234e-21)
(-1.01311 -0.663281 0)
(-0.343514 -0.505489 1.07966e-21)
(-0.441201 -0.265207 -3.58896e-21)
(-0.00789823 0.124396 3.79077e-21)
(-0.370459 0.0415181 1.20048e-20)
(-0.700817 -0.580428 -3.16917e-21)
(-0.315051 -0.487535 0)
(-0.82306 -0.860648 0)
(-0.532009 -0.410502 7.59582e-21)
(-1.00017 -0.867876 0)
(-0.210506 -0.384146 7.46266e-21)
(-0.105387 -0.187166 -2.24834e-21)
(-0.446985 -0.237777 1.41477e-20)
(-0.943422 -0.689816 -2.9121e-22)
(-0.933586 -1.03535 0)
(-0.84185 -0.435634 3.28034e-21)
(-0.0885924 -0.259478 -7.04341e-21)
(-0.991453 -0.966852 7.89076e-23)
(-0.691884 -0.287632 -4.14646e-21)
(-0.0289302 -0.138451 0)
(-0.952894 -0.820627 -4.3388e-21)
(-0.347423 -0.522044 0)
(-0.452166 -0.379884 8.58466e-21)
(-1.00796 -0.799826 8.84737e-22)
(-0.251538 -0.421282 2.1509e-21)
(-0.947876 -0.846353 2.44346e-21)
(-0.320265 -0.49988 -1.75466e-23)
(-0.287893 -0.167677 -3.33568e-22)
(-0.173501 -0.235737 2.19137e-21)
(-0.904434 -0.480504 5.28902e-22)
(-0.878584 -1.04129 0)
(-0.927552 -0.416733 6.65997e-22)
(-0.0755353 -0.228468 0)
(-0.455287 -0.360173 -8.744e-21)
(-1.01419 -0.793632 -1.0764e-21)
(-0.222364 -0.381523 -2.49125e-21)
(-0.622394 -0.477989 0)
(-0.949955 -0.91331 -2.04904e-21)
(-0.22727 -0.411934 0)
(-0.799154 -0.490687 0)
(-0.899315 -0.981551 0)
(-0.150023 -0.328688 0)
(-0.459294 -0.500405 -2.60073e-21)
(-0.888959 -0.769377 -2.81896e-21)
(-0.465437 -0.630674 -7.35988e-23)
(-0.0733881 -0.240541 6.918e-21)
(-0.824471 -0.408807 9.31556e-21)
(-0.962747 -1.04919 1.26065e-21)
(-0.501256 -0.217664 -6.50934e-21)
(-0.911077 -0.703943 -8.2499e-22)
(-0.0657577 -0.118106 -3.59815e-21)
(-0.992143 -0.941869 6.50412e-23)
(-0.665728 -0.294695 4.19874e-21)
(-0.0404855 -0.152387 3.20068e-21)
(-0.136867 -0.244214 -6.71626e-21)
(-0.628728 -0.815233 2.46313e-21)
(-1.01089 -0.473415 -2.77697e-21)
(-0.235642 -0.222797 2.38427e-21)
(-0.232823 -0.238924 -2.06297e-21)
(-1.00602 -0.529729 -1.68537e-22)
(-0.996315 -0.513418 0)
(-0.324595 -0.455479 -9.33551e-22)
(-0.356755 -0.502125 -9.02471e-22)
(-0.0114716 0.112927 -5.1152e-21)
(-0.475137 -0.274472 3.95052e-21)
(-0.36181 0.0239453 2.80746e-21)
(-0.320152 -0.0201348 -2.70015e-22)
(-0.0320411 0.0537061 5.61604e-21)
(-0.597712 -0.306987 0)
(-0.618029 -0.412869 -1.2441e-20)
(-1.00259 -0.92803 -3.66797e-22)
(-0.152253 -0.322196 0)
(-0.0774174 -0.121274 -6.7441e-21)
(-0.444479 -0.193461 5.36413e-21)
(-0.891806 -0.637045 0)
(-0.198163 -0.266373 1.0518e-20)
(-0.213701 -0.259993 -7.9149e-21)
(-1.01497 -0.533653 1.70624e-21)
(-1.01869 -0.541624 5.38391e-22)
(-0.490672 -0.662682 -1.6581e-21)
(-0.441331 -0.605472 -8.60397e-22)
(-0.0189998 -0.0102156 0)
(-0.805662 -0.66968 0)
(-0.574984 -0.153508 2.08648e-21)
(-0.305721 0.0206064 -5.19767e-21)
(-0.0121249 0.095361 0)
(-0.500396 -0.25158 0)
(-0.714675 -0.672572 1.63078e-22)
(-0.465857 -0.570514 3.56794e-21)
(-0.662331 -0.747839 1.41512e-21)
(-0.367541 0.00147797 -9.59157e-21)
(-0.542608 -0.31486 -1.52057e-21)
(-0.0174475 0.0914199 2.67091e-22)
(-0.212083 -0.329422 0)
(-0.97598 -0.587323 -4.04812e-21)
(-0.613147 -0.788127 -1.10485e-22)
(-0.502191 -0.166062 1.30969e-23)
(-0.839046 -0.635658 -1.93507e-21)
(-0.0456378 -0.0514007 -1.70072e-23)
(-0.371069 -0.251485 -1.01868e-22)
(-0.0119079 0.135667 -2.29082e-21)
(-0.406331 0.0475913 -4.98572e-21)
(-0.260985 -0.414458 -3.58351e-21)
(-0.740691 -0.858527 1.95367e-21)
(-0.844046 -0.607708 9.14407e-21)
(-0.637088 -0.591547 0)
(-0.810602 -0.818398 -6.70006e-21)
(-0.391965 -0.55123 4.10126e-21)
(-0.359994 -0.0857076 0)
(-0.057264 -0.0259277 2.88908e-21)
(-0.741606 -0.433283 -1.95473e-23)
(-0.647781 -0.57368 0)
(-0.830865 -0.837972 -2.07956e-21)
(-0.352763 -0.517793 -5.84231e-21)
(-0.68965 -0.674264 3.42131e-21)
(-0.501984 -0.597488 -1.88873e-21)
(-0.652742 -0.730408 7.9868e-22)
(-0.0577774 -0.216066 3.56695e-21)
(-0.871246 -0.393394 -3.22276e-21)
(-0.949924 -1.07573 1.3624e-21)
(-0.739149 -0.623144 0)
(-0.756369 -0.823605 0)
(-0.346033 -0.495918 5.41303e-22)
(-0.735369 -0.594798 5.01098e-21)
(-0.800314 -0.851447 1.5802e-21)
(-0.32049 -0.479065 7.40597e-23)
(-0.12654 -0.249167 1.00844e-20)
(-0.997401 -0.468361 -3.32562e-21)
(-0.677401 -0.865966 -2.53364e-21)
(-0.0934774 -0.109982 4.20732e-21)
(-0.0833163 -0.09442 -4.55735e-21)
(-0.839691 -0.508334 -5.6671e-22)
(-0.833587 -0.521283 -3.75589e-22)
(-0.361763 -0.140373 0)
(-0.381944 -0.142236 -4.86124e-21)
(-0.515945 -0.196125 7.95264e-21)
(-0.883295 -0.687419 1.0406e-21)
(-0.0521768 -0.0845894 4.4647e-21)
(-0.608252 -0.800867 -1.61034e-21)
(-0.12922 -0.228492 2.21275e-21)
(-1.01604 -0.453221 3.54078e-21)
(-0.189898 -0.346264 -3.6537e-21)
(-0.747147 -0.891554 -1.75209e-21)
(-0.906532 -0.559468 2.84018e-21)
(-0.776243 -0.354182 0)
(-1.00111 -1.05197 6.15062e-22)
(-0.0448821 -0.195579 1.01566e-22)
(-0.484999 -0.359485 -1.40821e-21)
(-0.0163993 0.119928 -2.3321e-21)
(-0.496512 -0.00524887 -4.09139e-21)
(-0.0219711 -0.0659522 0)
(-0.619629 -0.209457 0)
(-0.908865 -0.809786 -7.02885e-22)
(-0.409014 -0.0659121 4.47049e-21)
(-0.0357215 0.0280595 0)
(-0.681627 -0.431581 1.22865e-21)
(-0.0100321 0.135024 -8.21759e-33)
(-0.327199 -0.214043 1.78719e-21)
(-0.371506 0.0591472 5.18871e-21)
(-0.331263 -0.18695 -2.01494e-21)
(-0.000630655 0.132273 8.19117e-33)
(-0.320845 0.0738626 -4.60989e-21)
(-1.00934 -0.90093 -1.33138e-21)
(-0.588487 -0.356608 0)
(-0.11631 -0.26142 -7.54e-21)
(-0.676814 -0.539668 6.49844e-22)
(-0.015578 0.0524037 -2.50843e-21)
(-0.557665 -0.0936607 0)
(-0.465179 -0.281857 -6.29264e-21)
(-0.985326 -0.751496 3.2233e-22)
(-0.134246 -0.245049 3.47084e-21)
(-0.266603 -0.100217 1.18499e-20)
(-0.118237 -0.126284 1.50108e-21)
(-0.801247 -0.374858 0)
(-0.479 -0.481592 2.11627e-21)
(-0.384386 -0.558555 -1.35947e-21)
(-0.939984 -0.803405 1.04313e-21)
(-0.840894 -0.714893 -4.28261e-22)
(-0.0190376 -0.0277743 2.75884e-21)
(-0.590297 -0.171187 2.15894e-21)
(-0.800142 -0.364811 -3.91202e-21)
(-0.0479471 -0.203803 -1.88211e-21)
(-0.994064 -1.06038 0)
(-1.00704 -0.983393 0)
(-0.6824 -0.337661 0)
(-0.0614523 -0.20251 0)
(-0.00143665 0.0913457 0)
(-0.156093 -0.0868785 1.79303e-21)
(-0.214343 0.0644739 4.11238e-21)
(-0.447372 -0.286069 -1.6092e-21)
(-0.012384 0.125945 -2.76327e-21)
(-0.403165 0.0324222 -4.86299e-21)
(-0.492665 -0.50302 -5.52948e-21)
(-0.410336 -0.58245 3.41995e-21)
(-0.908918 -0.800106 1.48645e-21)
(-0.797064 -0.627995 -2.33628e-21)
(-0.535975 -0.146244 -4.73116e-21)
(-0.0278875 -0.0148186 0)
(-0.0151171 0.014062 -2.84281e-21)
(-0.585252 -0.1357 0)
(-0.762891 -0.640022 1.7027e-21)
(-0.407491 -0.186925 -4.85012e-21)
(-0.0965907 -0.140127 6.95827e-21)
(-0.891363 -0.598804 0)
(-0.230938 -0.325045 -4.37518e-21)
(-0.950135 -0.495804 9.44476e-23)
(-0.264622 -0.189948 0)
(-0.107938 -0.235276 -1.23299e-20)
(-0.992081 -0.447389 4.23853e-21)
(-0.725195 -0.914048 -7.53064e-22)
(-1.01174 -0.515076 3.37136e-22)
(-0.208312 -0.238701 4.75264e-21)
(-0.414247 -0.571239 -2.5113e-21)
(-0.205852 -0.280244 -3.78889e-21)
(-0.242942 -0.1537 0)
(-0.908995 -0.429007 0)
(-0.264849 -0.353634 -2.00605e-21)
(-0.262183 -0.336248 0)
(-0.983678 -0.640476 -3.73724e-21)
(-1.00019 -0.633236 3.99936e-21)
(-0.534345 -0.704033 5.12305e-22)
(-0.498733 -0.675375 -5.44664e-22)
(-0.243663 -0.352744 1.92585e-21)
(-0.970152 -0.619883 0)
(-0.586619 -0.756998 8.68557e-22)
(-0.175935 -0.253667 0)
(-1.01462 -0.510952 -2.86791e-21)
(-0.522282 -0.701868 5.8339e-22)
(-0.998426 -0.946502 -2.13037e-22)
(-0.661134 -0.314898 4.29336e-21)
(-0.0534578 -0.177368 -6.49111e-21)
(-0.877949 -0.710261 0)
(-0.538006 -0.186609 1.21322e-20)
(-0.0377649 -0.0671773 0)
(-0.0634557 -0.171847 -1.93556e-21)
(-0.610417 -0.297259 -2.95896e-21)
(-0.986763 -0.886008 -9.03611e-23)
(-0.372125 -0.20184 2.93237e-22)
(-0.00184976 0.129756 1.39684e-21)
(-0.322622 0.0622129 0)
(-0.305683 -0.430725 3.38994e-21)
(-0.338294 -0.450403 0)
(-0.641641 -0.783883 0)
(-0.883259 -0.658223 9.86231e-21)
(-0.609784 -0.754789 0)
(-0.882293 -0.683649 -6.30209e-21)
(-0.18018 -0.277417 0)
(-0.174726 -0.291115 0)
(-0.622495 -0.800949 -2.66016e-23)
(-1.00784 -0.534443 2.3394e-21)
(-0.579473 -0.756838 4.10123e-21)
(-0.992714 -0.537613 -5.20744e-21)
(-0.378566 -0.272839 0)
(-0.0154828 0.135923 3.31934e-21)
(-0.444978 0.0352341 0)
(-0.820411 -0.637314 1.12322e-21)
(-0.523902 -0.16388 1.41381e-21)
(-0.0360396 -0.0360686 1.58488e-21)
(-0.140199 -0.295681 -6.43508e-21)
(-0.780687 -0.938493 -1.77898e-21)
(-0.93052 -0.506891 9.16245e-21)
(-1.00609 -1.016 5.21928e-22)
(-0.733701 -0.324806 1.07047e-20)
(-0.0371826 -0.168707 0)
(-0.259977 -0.368279 4.67052e-21)
(-0.964005 -0.496697 -1.00481e-22)
(-0.252349 -0.19904 5.72672e-21)
(-0.55865 -0.370679 0)
(-0.437729 -0.016408 0)
(-0.0193297 0.0946395 0)
(-0.597496 -0.414895 0)
(-0.465417 -0.0370513 4.20832e-21)
(-0.0198403 0.0811512 5.42861e-22)
(-0.239124 -0.277067 -4.40928e-21)
(-1.01609 -0.578302 6.72314e-22)
(-0.418187 -0.581828 1.27333e-21)
(-0.215239 -0.384723 -9.29575e-22)
(-0.822594 -0.918905 0)
(-0.814706 -0.555853 1.09577e-22)
(-0.404374 -0.163915 5.64954e-21)
(-0.0855331 -0.106562 4.01544e-21)
(-0.860581 -0.563561 4.37226e-22)
(-1.00662 -0.908942 0)
(-0.605912 -0.337444 0)
(-0.0949665 -0.228301 6.55759e-21)
(-0.170289 -0.269645 1.34289e-21)
(-0.966573 -0.635544 1.17962e-22)
(-0.369064 -0.237695 1.35117e-20)
(-0.16076 -0.288484 0)
(-0.665136 -0.843085 -2.84828e-21)
(-0.981509 -0.525865 2.79009e-21)
(-0.740024 -0.458693 -3.90791e-23)
(-0.955133 -0.984441 1.23752e-21)
(-0.139423 -0.319396 0)
(-0.213623 -0.372426 -4.58031e-23)
(-0.757404 -0.889652 -6.41591e-22)
(-0.876176 -0.577957 -3.71663e-21)
(-0.0660612 -0.0699789 9.85529e-23)
(-0.831177 -0.567681 -1.32875e-21)
(-0.433143 -0.152358 6.58451e-21)
(-0.335127 -0.265874 -2.37539e-21)
(-0.997537 -0.63921 -2.9203e-22)
(-0.239665 -0.366941 0)
(-0.294689 -0.438266 -3.67368e-21)
(-0.703954 -0.8258 4.59992e-21)
(-0.843355 -0.634694 -6.02984e-21)
(-0.243409 -0.132582 4.4216e-21)
(-0.176406 -0.22702 1.64244e-21)
(-0.873672 -0.39942 5.13166e-22)
(-0.303388 -0.401253 -2.42537e-21)
(-0.945548 -0.675795 0)
(-0.550278 -0.718063 0)
(-0.636794 -0.525721 -9.67277e-21)
(-0.896326 -0.880913 1.16196e-21)
(-0.288136 -0.470276 0)
(-1.00998 -0.962294 0)
(-0.6595 -0.35873 8.30297e-21)
(-0.0827094 -0.231876 0)
(-0.300399 -0.0517904 -2.79407e-21)
(-0.0571344 -0.00751224 -5.65534e-22)
(-0.685252 -0.338091 -1.45055e-21)
(-0.28059 -0.0612913 7.6523e-21)
(-0.0716316 -0.0383781 0)
(-0.716204 -0.336552 1.08894e-21)
(-0.183814 -0.281535 1.1575e-21)
(-0.962888 -0.603324 7.41449e-23)
(-0.342086 -0.226544 -1.23096e-20)
(-0.768309 -0.445146 -3.49896e-21)
(-0.960437 -1.01014 -1.24855e-21)
(-0.113678 -0.29025 0)
(-0.0398102 0.0350026 5.18076e-22)
(-0.617703 -0.296571 1.35449e-21)
(-0.294482 -0.0242451 0)
(-0.109234 -0.202971 0)
(-0.966419 -0.735083 2.0958e-22)
(-0.471242 -0.259269 -1.58935e-21)
(-0.0120225 0.128308 2.45178e-21)
(-0.261141 -0.179348 -1.86515e-21)
(-0.34906 0.0596072 0)
(-0.26913 0.0835195 -5.09462e-21)
(-0.26984 -0.140405 0)
(0.00474964 0.124796 2.36113e-21)
(-0.20321 -0.277793 -7.43279e-23)
(-0.920044 -0.462995 0)
(-0.262588 -0.167246 0)
(-0.0422925 -0.00601188 0)
(-0.752012 -0.512878 0)
(-0.448791 -0.110034 9.07904e-21)
(-0.34336 -0.163506 -4.86673e-21)
(-0.347685 -0.184728 3.93642e-21)
(-0.120393 -0.161344 -2.11726e-21)
(-0.88141 -0.521646 1.5651e-22)
(-0.133528 -0.195691 -3.4437e-21)
(-0.909792 -0.556668 -1.76269e-22)
(-0.499614 -0.265985 2.98629e-21)
(-0.96492 -0.762734 -9.85462e-23)
(-0.0958097 -0.190601 0)
(-0.0333387 -0.170299 0)
(-1.00459 -1.0536 0)
(-0.773175 -0.333268 0)
(-0.402588 -0.493668 0)
(-0.570641 -0.713738 -7.11793e-21)
(-0.857836 -0.71669 3.23076e-21)
(-0.560669 -0.293314 8.22709e-21)
(-0.9863 -0.843437 3.44248e-23)
(-0.0817539 -0.193869 5.51566e-21)
(-0.079382 -0.19546 3.75687e-21)
(-0.58987 -0.306821 -1.14429e-20)
(-0.994614 -0.879012 -4.76861e-23)
(-0.219614 -0.160141 4.69476e-21)
(-0.247401 -0.341213 1.77893e-21)
(-0.932987 -0.419796 1.07769e-23)
(-0.166512 -0.261203 0)
(-1.01235 -0.512897 9.18107e-22)
(-0.578063 -0.760615 -4.02173e-21)
(-0.203524 -0.314166 0)
(-0.989406 -0.573038 5.31269e-21)
(-0.593399 -0.771516 -4.928e-23)
(-0.525444 -0.345611 -1.00955e-20)
(-1.00835 -0.849362 1.61623e-22)
(-0.14449 -0.291977 -3.10084e-21)
(-0.548385 -0.338676 0)
(-1.00544 -0.863845 1.47278e-22)
(-0.122537 -0.264006 2.96033e-21)
(-0.322951 -0.46391 0)
(-0.708771 -0.818077 -7.2674e-21)
(-0.81296 -0.640869 3.27947e-21)
(-0.240817 -0.320837 0)
(-1.0024 -0.610736 0)
(-0.505123 -0.685617 7.05145e-22)
(-0.0154138 -0.0302255 -6.07683e-21)
(-0.85308 -0.748396 2.21683e-21)
(-0.618314 -0.18049 0)
(-0.494009 -0.040262 5.94266e-21)
(-0.0183697 0.0876879 0)
(-0.582937 -0.424446 -9.94485e-22)
(-0.507739 -0.0280801 5.35499e-23)
(-0.0163747 0.101989 0)
(-0.544004 -0.407016 2.89522e-21)
(-0.232896 -0.366934 2.72516e-21)
(-0.665296 -0.819296 -6.85325e-22)
(-0.928928 -0.607719 -1.05511e-22)
(-0.492277 -0.329502 2.89445e-23)
(-0.0163155 0.116408 4.23371e-21)
(-0.4404 0.00666503 0)
(-0.324055 -0.239158 1.0341e-20)
(-0.22031 -0.331134 2.35821e-21)
(-0.980227 -0.602566 0)
(-0.0158624 0.12503 -6.56828e-22)
(-0.460724 -0.329487 1.72483e-21)
(-0.465755 0.0111396 0)
(-0.581733 -0.572403 6.02976e-21)
(-0.438133 -0.590168 4.99363e-21)
(-0.81747 -0.794459 -8.91688e-23)
(-0.423177 -0.394879 -1.36707e-21)
(-1.00161 -0.776755 -4.09182e-22)
(-0.313758 -0.48972 -3.02272e-21)
(-0.933572 -1.00977 2.89198e-21)
(-0.799514 -0.458124 7.47165e-21)
(-0.118162 -0.295852 0)
(-0.0183058 0.0292992 0)
(-0.722607 -0.577095 8.18233e-22)
(-0.555013 -0.114436 0)
(-1.00684 -0.934855 0)
(-0.632409 -0.338746 0)
(-0.0829828 -0.22023 0)
(-0.143487 -0.17507 0)
(-0.267978 -0.123823 -4.40859e-21)
(-0.846677 -0.409625 -5.03025e-22)
(-0.422182 -0.374765 0)
(-1.00902 -0.779995 2.26845e-22)
(-0.280655 -0.449915 2.93658e-21)
(-0.429834 -0.514939 0)
(-0.571511 -0.709006 6.13068e-21)
(-0.835446 -0.722702 0)
(-0.748522 -0.579257 2.2085e-21)
(-0.526102 -0.118933 4.49004e-21)
(-0.02412 0.0129902 0)
(-0.12667 -0.21553 -2.68637e-21)
(-0.952755 -0.675896 -1.09627e-23)
(-0.419882 -0.239784 2.27426e-25)
(-0.34461 -0.0611232 0)
(-0.350463 -0.0421183 5.5498e-21)
(-0.0502025 0.00564787 -1.40984e-21)
(-0.0384268 0.0338673 -1.70056e-21)
(-0.690523 -0.378631 8.9508e-22)
(-0.649778 -0.360786 -7.3605e-22)
(-0.59845 -0.444351 0)
(-0.97896 -0.911234 5.22634e-21)
(-0.199291 -0.381232 3.81888e-21)
(-1.00847 -0.910817 1.88192e-21)
(-0.59894 -0.374729 0)
(-0.126521 -0.281635 -4.12751e-21)
(-0.571827 -0.524269 -5.3686e-21)
(-0.891332 -0.838709 2.0557e-21)
(-0.354012 -0.529854 5.98291e-21)
(-0.641414 -0.480865 -1.90798e-21)
(-0.510471 -0.0681158 6.1705e-21)
(-0.637596 -0.494152 9.44362e-22)
(-0.0190584 0.0637472 0)
(-0.534307 -0.0718474 -5.96895e-21)
(-0.016391 0.0677745 0)
(-0.426456 -0.328404 0)
(-1.01028 -0.758087 0)
(-0.216184 -0.361394 3.24179e-21)
(-0.497122 -0.105805 8.32433e-21)
(-0.494352 -0.0834406 -1.56096e-20)
(-0.729846 -0.542015 -1.29049e-21)
(-0.680885 -0.497219 2.87866e-21)
(-0.0263572 0.0167072 4.51129e-21)
(-0.0235874 0.0427164 -3.95074e-23)
(-0.632491 -0.390166 0)
(-1.00352 -0.947698 -2.25482e-21)
(-0.124863 -0.287373 5.37414e-21)
(-0.523489 -0.44544 5.60852e-21)
(-0.990337 -0.833228 -2.62927e-21)
(-0.276483 -0.458116 0)
(-0.285704 -0.0895525 0)
(-0.0952621 -0.0870113 0)
(-0.774519 -0.377963 -1.04528e-21)
(-0.563329 -0.432169 4.22384e-21)
(-0.986623 -0.888563 -1.4958e-21)
(-0.211341 -0.393325 -5.94448e-21)
(-0.551765 -0.495165 2.31251e-21)
(-0.92912 -0.853445 -2.41838e-21)
(-0.321239 -0.50244 3.33911e-21)
(-0.322549 -0.0667139 0)
(-0.0616795 -0.0146849 0)
(-0.709821 -0.370866 1.48885e-21)
(-0.385685 -0.351958 0)
(-1.01432 -0.737263 3.8708e-22)
(-0.287808 -0.455398 -2.96408e-21)
(-0.987406 -1.07685 0)
(-0.829336 -0.365469 0)
(-0.0423972 -0.196757 -2.51467e-22)
(-0.141609 -0.270239 -3.18137e-22)
(-0.984851 -0.499595 0)
(-0.686991 -0.869883 4.03097e-21)
(-0.966921 -0.932534 -1.68623e-22)
(-0.0168728 -0.106472 0)
(-0.684298 -0.260044 0)
(-0.00270072 0.115847 -5.78375e-21)
(-0.225693 -0.130285 -2.50904e-21)
(-0.277169 0.0708276 -5.76738e-21)
(-0.489454 -0.403304 0)
(-1.00088 -0.836721 1.54914e-21)
(-0.24863 -0.424556 -2.84029e-21)
(-0.317183 -0.120766 8.26149e-21)
(-0.103575 -0.114369 6.9151e-21)
(-0.822771 -0.442634 0)
(-0.808137 -0.987909 -8.943e-22)
(-0.964338 -0.431813 -3.44518e-21)
(-0.087382 -0.232571 -2.59037e-21)
(-0.294868 0.056387 0)
(-0.000520557 0.124233 -1.95213e-21)
(-0.392678 -0.195666 0)
(-0.24279 -0.420926 4.32875e-21)
(-0.209333 -0.388788 -4.42207e-21)
(-0.847581 -0.905425 0)
(-0.745612 -0.553196 4.31175e-21)
(-0.864014 -0.930549 -3.76649e-21)
(-0.771889 -0.537806 -3.49117e-21)
(-0.616409 -0.54279 5.05541e-21)
(-0.871132 -0.850199 2.92075e-21)
(-0.336348 -0.511841 0)
(-0.250858 -0.414799 4.126e-21)
(-0.267886 -0.435367 0)
(-0.781656 -0.882951 -2.42317e-21)
(-0.816241 -0.587947 3.72937e-21)
(-0.799815 -0.878411 2.44358e-21)
(-0.776258 -0.583807 -5.79055e-23)
(-0.489861 -0.418923 3.63274e-22)
(-0.973013 -0.857663 -1.22617e-21)
(-0.279032 -0.460693 -4.10884e-21)
(-0.551949 -0.455135 -9.78405e-21)
(-0.972484 -0.875862 3.01256e-23)
(-0.256421 -0.439048 0)
(-0.0155482 0.0918937 0)
(-0.573622 -0.445816 0)
(-0.534933 -0.0473779 6.73013e-21)
(-0.25182 -0.370862 -2.5169e-21)
(-0.947679 -0.625655 0)
(-0.611047 -0.774408 1.29475e-21)
(-0.473397 -0.122479 -1.4337e-20)
(-0.772189 -0.553438 -1.16151e-21)
(-0.0374502 -0.0121906 -2.55708e-21)
(-0.490852 -0.322746 0)
(-0.488581 -0.301332 6.06505e-21)
(-1.00511 -0.807593 -2.02273e-22)
(-0.996833 -0.7894 2.48557e-22)
(-0.147435 -0.286545 -3.68148e-21)
(-0.131011 -0.255103 -3.34841e-21)
(-0.284561 -0.39766 0)
(-0.934255 -0.655861 0)
(-0.593608 -0.754821 6.63434e-22)
(-0.212371 -0.285664 3.31368e-21)
(-1.0128 -0.561947 0)
(-0.50206 -0.674689 1.44186e-21)
(-0.48107 -0.35508 -2.89061e-21)
(-1.01125 -0.820425 0)
(-0.192319 -0.352478 0)
(-0.460692 -0.556296 4.54231e-21)
(-0.760556 -0.699072 -1.76022e-21)
(-0.617173 -0.728229 1.68184e-21)
(-0.538912 -0.307044 0)
(-0.994426 -0.833996 0)
(-0.103098 -0.224669 -5.85877e-21)
(-0.363075 -0.477584 0)
(-0.619935 -0.755286 8.68969e-22)
(-0.850078 -0.68639 0)
(-0.582262 -0.391965 -6.10382e-21)
(-1.00589 -0.907004 -1.39372e-21)
(-0.157902 -0.3184 -5.20693e-22)
(-0.236562 -0.303816 3.44658e-21)
(-1.01109 -0.59505 0)
(-0.473975 -0.649758 3.10772e-21)
(-0.425551 -0.529002 -4.49667e-21)
(-0.39309 -0.51614 -2.04101e-21)
(-0.788528 -0.697089 1.90431e-21)
(-0.625097 -0.741289 -3.44056e-21)
(-0.782794 -0.674893 0)
(-0.663579 -0.771216 -5.77097e-21)
(-0.317381 -0.472465 -1.97352e-21)
(-0.738245 -0.834114 3.38043e-21)
(-0.298545 -0.459125 1.27204e-21)
(-0.778896 -0.621517 -4.97445e-21)
(-0.790489 -0.866388 -1.63614e-21)
(-0.765067 -0.600713 -4.40292e-23)
(-0.294604 -0.376924 2.86513e-21)
(-0.318701 -0.375995 0)
(-0.974542 -0.670748 2.84138e-21)
(-0.988395 -0.690466 -2.22647e-21)
(-0.512893 -0.684352 -3.10389e-21)
(-0.461195 -0.631511 5.17993e-21)
(-0.214457 -0.312871 0)
(-0.958217 -0.537616 4.76761e-23)
(-0.289444 -0.204182 -6.41917e-21)
(-0.0565523 -0.217422 3.05329e-21)
(-0.842467 -0.388741 5.07902e-21)
(-0.968748 -1.06954 -2.18389e-21)
(-0.180692 -0.259915 -2.28838e-21)
(-0.16516 -0.244538 1.91616e-21)
(-0.932272 -0.530263 -4.12451e-23)
(-0.934954 -0.561118 -6.77923e-23)
(-0.30314 -0.188743 1.6642e-20)
(-0.32834 -0.199322 -8.70574e-21)
(-0.105628 -0.269015 4.63565e-21)
(-0.861954 -1.00295 -1.54722e-21)
(-0.904178 -0.463868 8.66446e-22)
(-0.544049 -0.610384 7.46133e-21)
(-0.591983 -0.688693 0)
(-0.710113 -0.705946 -6.66964e-21)
(-0.511521 -0.290399 -2.96193e-21)