/*--------------------------------*- C++ -*----------------------------------*\
  =========                 |
  \\      /  F ield         | OpenFOAM: The Open Source CFD Toolbox
   \\    /   O peration     | Website:  https://openfoam.org
    \\  /    A nd           | Version:  6
     \\/     M anipulation  |
\*---------------------------------------------------------------------------*/
FoamFile
{
    version     2.0;
    format      ascii;
    class       volScalarField;
    location    "0";
    object      p;
}
// * * * * * * * * * * * * * * * * * * * * * * * * * * * * * * * * * * * * * //

dimensions      [0 2 -2 0 0 0 0];

internalField   nonuniform List<scalar> 
918
(
0.208117
1.01529
0.00362348
0.208609
0.00121019
0.984818
-0.818507
0.415052
0.186531
-0.131565
0.0295213
0.177824
0.835693
0.600894
-1.41515
0.0167513
0.359192
-0.656083
0.183741
0.00912227
0.508711
0.192742
0.196153
0.188748
0.236988
0.583893
0.708541
-0.00161751
-0.00445597
-0.00312483
0.00042893
0.00183221
0.0139
0.85796
0.904213
0.922615
0.155545
0.0628922
-0.689823
-0.758794
-0.718583
-0.821331
0.398856
0.401372
-0.514188
0.413114
0.423918
0.178229
0.186487
0.186925
0.188291
0.186566
0.188292
0.286188
-0.128072
-0.190765
-0.0777059
-0.0545663
0.0957564
0.0292583
0.0193728
0.0275731
0.0285976
0.117666
0.174647
0.173595
0.180972
0.195046
0.940798
0.912652
0.93521
0.861134
0.878274
0.809997
0.782584
0.62092
0.642665
0.583805
0.572026
-1.8688
-2.81368
-0.835221
-0.567879
0.000154058
0.0229845
0.0349931
0.339104
0.341346
0.353494
0.364209
0.753481
-0.589811
-0.74339
0.18359
0.18226
0.192155
0.194213
0.189687
0.190446
0.0160501
0.0187917
0.00130718
0.00986369
0.00793496
0.475366
0.469297
0.18885
0.183471
0.202484
0.225197
0.20948
-0.0474316
0.256499
0.289974
0.396376
0.56996
0.5664
0.575516
0.68288
0.648706
0.740788
0.765444
0.00525557
3.97241e-05
0.0222472
0.0168716
0.0197615
0.15641
0.14925
0.167412
0.159424
0.161332
0.027819
-0.109505
0.0775731
-0.0102667
-0.610496
-0.67015
-0.63785
-0.674377
-0.784884
0.374999
0.385794
0.38854
-0.523683
-0.430721
-0.586346
-0.393945
-0.452478
0.160614
0.170282
0.164678
0.177833
0.178688
0.177265
0.189964
0.187596
0.189187
0.316531
0.389196
0.246216
0.225674
-0.396501
-0.240428
-0.381682
-0.0228694
-0.0171248
0.102841
0.109206
0.0839625
0.0713772
-0.00286024
0.0122337
0.00556355
0.0295003
0.0363488
0.105121
0.0964208
0.127053
0.132024
0.167846
0.165623
0.170102
0.165068
0.730847
0.754303
0.762219
0.738737
-3.78316
-6.44772
-0.225368
-0.0655045
0.00271071
0.00164939
0.00117818
0.00242218
0.00361984
0.00279581
0.0467029
0.0459549
0.0397865
0.0437623
0.324642
0.323725
0.766208
0.82437
0.68152
0.664638
0.171749
0.174721
0.180158
0.173503
0.0289187
0.0225985
0.0243926
0.426373
0.448989
0.445411
-0.093104
-0.176645
0.0024328
0.0259529
0.310776
0.290775
0.310002
0.462219
0.502332
0.777431
0.801578
0.789421
0.805474
0.853873
0.873952
0.838685
0.137207
0.14263
0.140491
0.174519
0.169252
0.169526
0.164335
0.166814
0.166969
-0.239408
-0.619334
-0.331032
-0.362922
-0.144547
-0.252491
0.500391
0.64482
0.363306
0.377663
0.382093
-0.328109
-0.388748
0.19706
0.173938
0.055941
0.0848647
0.0708174
0.708392
0.667438
0.717942
0.692782
0.654319
0.680522
-0.563101
-2.29361
-1.28472
0.332834
0.127424
0.224587
0.0675958
0.0532744
0.0629935
0.815937
0.856199
0.426197
0.569542
0.532324
0.534453
0.565328
0.621835
0.548857
0.586795
0.62286
0.602782
0.207324
-0.204768
0.0216441
0.72129
0.785587
-0.19903
-0.278815
-0.309229
0.122194
0.149325
0.138896
0.822543
0.797554
0.847896
0.184946
0.186096
0.0107156
0.0150471
0.189144
0.188252
0.00774077
0.0101322
0.219474
-1.17651
-0.214975
0.18346
0.16697
0.185654
-0.0582752
0.274056
0.0305513
0.0957323
0.0636179
0.172721
0.127124
0.0876355
0.00532344
0.0272096
0.0193457
-0.315951
0.17865
0.174894
0.183989
0.185978
0.185513
0.00660889
0.0100489
0.0067091
0.0159022
0.0108463
0.011674
0.156664
0.164081
-0.481856
0.185358
0.186828
0.186899
0.183915
0.185536
0.185119
0.0205895
0.0105821
0.0203202
-0.0777759
0.0343478
0.446982
0.566067
0.358187
0.181147
-0.0886257
0.365254
0.428766
0.332567
0.496341
0.364169
0.396605
-0.1596
-0.268358
-0.116908
-0.17904
0.176735
0.176547
0.165177
0.159053
0.174834
0.174808
0.181429
0.179547
0.183596
0.183313
-0.0257045
-0.0419637
-0.0792181
-0.147464
0.303261
0.383052
0.226604
0.224929
0.141875
0.0323935
0.0281878
0.0308108
0.0249687
0.0708738
0.069304
0.0794079
0.0781787
0.0541937
0.0528441
0.0694327
0.0663437
0.0738959
0.169091
0.169151
0.171221
0.17795
0.131747
0.137222
0.105656
0.125409
0.108561
0.0601382
0.0851225
0.0654469
0.0102058
0.00991497
0.00691266
0.0333128
0.0360262
0.0160194
0.012323
0.0156642
0.0117577
0.0110467
0.0230572
0.0265291
-0.282985
-0.432085
0.751168
0.602085
0.36682
0.17219
0.178106
0.175465
0.175264
0.179887
0.183161
0.181179
0.179385
0.165674
0.168321
0.164851
0.162887
-0.480714
-0.526296
-0.386435
-0.445828
-0.10826
0.294321
0.0405535
-0.0231198
-0.0397342
0.172744
0.355847
0.340788
0.506266
0.49505
-0.62753
-0.240568
-0.56061
-0.0616657
-0.0624111
0.469739
0.519202
0.540615
0.492082
0.438961
-0.280156
0.228036
-0.376913
-0.342614
-0.169591
-0.247922
0.42774
0.347848
0.356615
0.38674
0.404001
0.355095
0.338536
0.331092
0.372226
0.375649
0.175159
-0.0478542
-0.103573
-0.149315
0.331376
0.205127
0.265339
0.173226
0.168871
0.172748
0.171682
0.158061
0.16295
0.160879
0.163957
0.166441
0.174463
0.170789
0.169654
0.175019
-0.0235088
-0.0141039
-0.0528223
-0.229788
-0.187143
-0.259076
-0.118146
0.13019
0.106099
0.346448
0.398327
0.0710569
-0.115891
-0.0748332
-0.011485
0.168759
0.160209
0.118791
0.156063
0.181908
0.152868
0.200796
0.184619
0.0511266
0.0641433
0.0382923
0.0392329
0.101393
0.113093
0.12033
0.0564399
0.0552913
0.0355531
0.0308316
0.085155
0.0543172
0.07188
0.0741038
0.0282836
0.0338544
0.0368353
0.0494435
0.0453741
0.0501157
0.164981
0.166197
0.165814
0.182059
0.190524
0.204022
0.175993
0.150031
0.141215
0.142315
0.127432
0.134783
0.135619
0.14315
0.15636
0.163244
0.161908
0.164059
0.149794
0.150917
0.139233
0.143553
0.122965
0.102416
0.0898587
0.0206414
0.0157473
0.0178877
0.0156082
0.0136386
0.012486
0.049299
0.0398994
0.0439044
0.0401758
0.0465141
0.0211094
0.0225602
-0.149765
-0.0226858
-0.446772
-0.377174
-0.492113
0.720526
0.760317
0.595711
0.505072
0.535795
0.646498
0.682736
0.4181
0.515456
0.506027
0.291411
0.767873
0.174391
0.175943
0.171581
0.170409
0.174181
-0.441178
-0.402009
-0.273458
-0.220121
-0.0992687
-0.00602539
-0.588876
0.0219792
0.134245
-0.00801058
0.285807
0.301643
0.250387
0.275938
0.272439
0.106102
0.171528
0.228104
0.175054
0.230261
0.254265
0.210503
0.24616
0.180205
0.137314
0.137865
0.086434
0.1141
0.0918012
0.0608064
0.162804
0.145468
0.154299
0.14583
0.16563
0.19223
0.188896
0.205453
0.226864
0.154317
0.115595
0.128004
0.148166
0.109282
0.121201
0.137777
-0.570323
-0.620086
-0.247217
-0.416225
-0.264447
-0.251959
-0.252116
-0.411977
-0.0881583
-0.667377
-0.568418
-1.22444
0.191536
0.503118
0.38149
0.376382
0.404077
0.388928
0.395377
0.415982
0.423765
0.323447
0.342188
0.343169
0.300139
0.329324
0.360433
0.357446
0.176012
0.0463581
0.0351969
-0.00984303
-0.124113
-0.0980831
0.107656
0.0324143
-0.0321046
-0.0466511
0.13008
0.0325534
0.102559
0.128494
0.0838359
0.018679
0.229762
0.28656
0.281522
0.261843
0.166814
0.179087
0.210913
0.254796
0.277654
0.304225
0.161619
0.168653
0.170793
0.167079
0.163986
0.166753
0.169109
0.169416
0.16735
0.167147
0.169221
0.0219013
0.0336678
-0.00467062
0.00295234
0.0289658
0.00456703
0.0623522
0.013368
0.0481109
0.047574
0.0218743
-0.00173933
0.0115446
0.0373658
0.176719
0.203425
0.191463
0.138981
0.251883
0.377871
0.425388
0.366015
0.214705
0.237407
0.292574
0.0930185
0.0929769
0.0858897
0.101149
0.103176
0.0432748
0.0428024
0.0440817
0.0477002
0.0497281
0.0379942
0.0285214
0.028087
0.0324636
0.0319909
0.0319027
0.153865
0.14709
0.145545
0.138486
0.138232
0.152973
0.154186
0.158489
0.16284
0.163612
0.155779
0.160421
0.162574
0.0362751
0.0303762
0.0336562
0.0290118
0.0303247
0.0238328
0.0237945
0.0849079
0.0572888
0.181757
-0.0785042
-0.285106
-0.152828
0.0126858
0.114418
-0.177805
0.613865
0.406923
0.19399
0.308961
0.528769
0.273439
0.535698
0.388419
0.720367
0.680505
0.751386
0.591656
-0.190087
0.0908218
0.107238
-0.23877
-0.000582885
-0.0365919
-0.168777
-0.114496
-0.125117
-0.00358605
-0.294517
-0.408337
-0.761052
-0.696885
-0.255943
-0.304161
-0.170047
-0.279523
-0.703848
-0.75298
-0.655619
0.28115
0.297557
0.316387
0.290294
0.313069
0.233144
0.227812
0.247172
0.251412
0.244418
-0.904624
-0.525972
-1.6729
-1.09924
-0.567314
0.265496
0.257949
0.431945
0.329276
0.401913
0.386874
0.335341
0.297205
0.313322
0.350302
0.012883
0.126615
0.0886518
0.120391
0.0524142
-0.0166919
0.264319
0.250707
0.292893
0.317461
0.269956
0.312067
0.161316
0.161484
0.158378
0.156867
0.154439
0.154606
0.106884
0.0794274
0.12887
0.10884
0.071805
0.0568221
0.0424271
0.0398878
0.037968
0.0367713
0.0375298
0.0414759
-0.421622
-0.169446
-0.18683
-0.0936083
-0.43508
-0.335345
-0.383296
-0.341689
-0.400819
-0.490142
0.416634
0.649654
0.547277
0.660313
0.470314
0.533856
-0.280784
-0.41769
-0.435429
-0.282346
-0.133264
-0.0963649
-0.438839
-0.401491
0.451174
0.462228
0.315944
0.0910541
-0.0328058
0.174635
0.202906
0.152946
0.193365
0.259118
0.253802
-0.258551
-0.236074
0.0377529
0.308858
-0.152683
-0.0927264
-0.131985
0.144386
0.102625
)
;

boundaryField
{
    wall-4
    {
        type            zeroGradient;
    }
    velocity-inlet-5
    {
        type            zeroGradient;
    }
    velocity-inlet-6
    {
        type            zeroGradient;
    }
    pressure-outlet-7
    {
        type            fixedValue;
        value           uniform 0;
    }
    wall-8
    {
        type            zeroGradient;
    }
    frontAndBackPlanes
    {
        type            empty;
    }
}

