/*--------------------------------*- C++ -*----------------------------------*\
  =========                 |
  \\      /  F ield         | OpenFOAM: The Open Source CFD Toolbox
   \\    /   O peration     | Website:  https://openfoam.org
    \\  /    A nd           | Version:  6
     \\/     M anipulation  |
\*---------------------------------------------------------------------------*/
FoamFile
{
    version     2.0;
    format      ascii;
    class       volScalarField;
    location    "0";
    object      P_rec;
}
// * * * * * * * * * * * * * * * * * * * * * * * * * * * * * * * * * * * * * //

dimensions      [0 2 -2 0 0 0 0];

internalField   nonuniform List<scalar> 
13046
(
0.749217
0.761567
0.855593
0.760973
0.83511
0.795725
0.733337
0.796993
0.848117
0.286438
0.63629
0.845285
0.70673
0.760553
0.851914
0.377951
0.856255
0.619154
0.820925
0.822129
0.766993
0.364841
0.855017
0.624808
0.766962
0.791789
0.838549
0.688357
0.74601
0.859852
0.755815
0.752122
0.851291
0.786517
0.835571
0.787731
0.786124
0.835695
0.799102
0.779856
0.849985
0.708977
0.794768
0.820815
0.807939
0.787544
0.812148
0.820917
0.729181
0.76564
0.855571
0.837993
0.798553
0.645649
0.838573
0.615457
0.807943
0.632196
0.588635
0.866681
0.601299
0.775173
0.848839
0.851775
0.685616
0.438763
0.620858
0.6291
0.864282
0.645578
0.635562
0.863624
0.62058
0.563369
0.865576
0.816361
0.833587
0.749049
0.865981
0.509334
0.61756
0.753192
0.794739
0.84003
0.849895
0.673489
0.405579
0.41749
0.843187
0.72297
0.827044
0.37277
0.746584
0.593665
0.562535
0.724601
0.72051
0.855621
0.858794
0.841369
0.428454
0.734448
0.778288
0.819397
0.815791
0.827886
0.638179
0.830953
0.792351
0.846028
0.668524
0.161392
0.837521
0.59621
0.723459
0.771422
0.846748
0.55996
0.588691
0.69255
0.859636
0.708767
0.859043
0.259291
0.623036
0.845202
0.647675
0.728606
0.862452
0.766623
0.851836
0.714539
0.823341
0.402964
0.757906
0.508224
0.72126
0.851998
0.74097
0.747387
0.850189
0.674403
0.808286
0.838431
0.797563
0.840457
0.659531
0.825758
0.661382
0.832823
0.586871
0.761298
0.848152
0.843175
0.702794
0.819309
0.820206
0.584871
0.809798
0.569377
0.823484
0.828395
0.672704
0.809725
0.83122
0.286675
0.841653
0.649114
0.199341
0.840884
0.604066
0.491723
0.708134
0.855056
0.753018
0.678887
0.857853
0.684884
0.826068
0.818063
0.842228
0.675256
0.308246
0.764475
0.691692
0.853376
0.838535
0.686288
0.821241
0.694329
0.810146
0.83461
0.757448
0.85805
0.666194
0.743428
0.856695
0.39055
0.844486
0.696611
0.833756
0.434377
0.752629
0.372121
0.729721
0.82791
0.842552
0.607352
0.783796
0.696916
0.519358
0.867257
0.609942
0.714543
0.347042
0.833243
0.773226
0.833967
0.807084
0.707918
0.744301
0.859824
0.830181
0.42777
0.759569
0.68014
0.766192
0.858309
0.837408
0.633465
0.219792
0.792246
0.596631
0.837084
0.407323
0.737623
0.832917
0.614274
0.808853
0.834413
0.64432
0.716581
0.863303
0.789532
0.472167
0.817974
0.542193
0.806854
0.821746
0.833452
0.637791
0.197218
0.789431
0.85249
0.664859
0.181366
0.842697
0.563642
0.821898
0.767096
0.81739
0.617479
0.630924
0.800285
0.808581
0.841058
0.834976
0.86221
0.474905
0.619652
0.674413
0.723185
0.859137
0.520879
0.794768
0.829702
0.531176
0.70514
0.855937
0.80499
0.796814
0.826091
0.586108
0.804062
0.832225
0.67172
0.708702
0.861937
0.681589
0.664112
0.788154
0.851183
0.652151
0.569908
0.793042
0.835162
0.498922
0.854341
0.702615
0.808394
0.841618
0.684601
0.819382
0.571921
0.820335
0.599499
0.682661
0.860738
0.791772
0.843081
0.646403
0.572659
0.553514
0.674008
0.860368
0.676226
0.862536
0.843178
0.677205
0.331552
0.613416
0.707634
0.861291
0.558457
0.834094
0.0963673
0.739252
0.821363
0.818831
0.625906
0.77806
0.84862
0.847623
0.429115
0.702497
0.837793
0.592854
0.804381
0.777436
0.455621
0.82358
0.782846
0.851441
0.610345
0.755433
0.853235
0.784292
0.849003
0.412612
0.857312
0.629393
0.847532
0.597108
0.776071
0.586619
0.752564
0.851329
0.66131
0.805026
0.84262
0.648726
0.831529
0.817628
0.748554
0.779081
0.84766
0.805819
0.585238
0.827357
0.380796
0.708654
0.838597
0.774718
0.457649
0.827611
0.679598
0.860703
0.638383
0.532536
0.56072
0.654193
0.64756
0.860704
0.861639
0.836632
0.56281
0.121959
0.205184
0.845329
0.569014
0.598265
0.796113
0.831839
0.844474
0.370663
0.683837
0.636307
0.614601
0.655916
0.662348
0.864581
0.864458
0.823479
0.704373
0.282279
0.161104
0.843053
0.543384
0.775278
0.811693
0.827387
0.153042
0.57537
0.83953
0.732644
0.692414
0.858101
0.318861
0.68529
0.840124
0.574643
0.827225
0.0333409
0.790265
0.847243
0.718979
0.745766
0.82282
0.827331
0.270676
0.847809
0.611263
0.731175
0.822945
0.828057
0.784215
0.812866
0.82439
0.801699
0.57106
0.836575
0.733251
0.839282
0.813295
0.746928
0.824191
0.815207
0.703502
0.635594
0.859085
0.852424
0.850825
0.639175
0.644514
0.338242
0.329582
0.349163
0.704764
0.835296
0.864874
0.664618
0.623905
0.775418
0.850279
0.687211
0.537282
0.809827
0.812093
0.624178
0.822498
0.0925673
0.82918
0.357294
0.734057
0.220173
0.841295
0.618954
0.827992
0.55852
0.0187793
0.533263
0.832494
0.0527178
0.775965
0.54366
0.836587
0.675738
0.820192
0.199528
0.487241
0.724702
0.849642
0.330759
0.855449
0.585954
0.715487
0.846231
0.784158
0.714492
0.826021
0.307983
0.551021
0.808919
0.816384
0.786597
0.51573
0.836097
0.828539
0.489333
-0.0622916
0.576475
0.831172
0.0771314
0.73679
0.846077
0.786085
0.692075
0.276926
0.827377
0.822245
0.254537
0.699412
0.378225
0.846881
0.673473
0.860356
0.636857
0.460802
0.721351
0.618227
0.861485
0.645471
0.588131
0.86653
0.861828
0.422153
0.606357
0.711057
0.693476
0.71148
0.702466
0.859802
0.860547
0.728264
0.705374
0.858175
0.652234
0.640677
0.8673
0.778806
0.484824
0.828856
0.705307
0.342493
0.838643
0.832523
0.468321
0.761666
0.537233
0.834776
0.0801184
0.780416
0.769938
0.852323
0.731286
0.852816
0.743295
0.691702
0.70406
0.861197
0.660252
0.863536
0.666358
0.592407
0.822915
0.0432485
0.693557
0.301929
0.830389
0.766482
0.849058
0.656554
0.796932
0.497959
0.818897
0.86136
0.636792
0.483432
0.60909
0.141178
0.833143
0.625121
0.158549
0.831616
0.619165
0.673057
0.865651
0.81808
0.836274
0.694914
0.347908
0.846852
0.661874
0.774021
0.516683
0.841943
0.856528
0.684671
0.471454
0.721539
0.861716
0.657009
0.628931
0.818171
0.825553
0.78591
0.849466
0.69332
0.844382
0.664427
0.320321
0.528835
0.691335
0.859078
0.791821
0.846783
0.730314
0.387577
0.860182
0.595239
0.729882
0.731066
0.857106
0.710822
0.810968
0.841151
0.789669
0.536891
0.833417
0.250899
0.850349
0.573697
0.273649
0.85285
0.571521
0.858513
0.672913
0.46839
0.613324
0.824832
0.81786
0.848188
0.558492
0.215635
0.847442
0.717283
0.454524
0.824793
0.550605
-0.0098544
0.0284264
0.50579
0.833173
0.861395
0.621056
0.430969
0.839346
0.649824
0.258617
0.374111
0.403871
0.851544
0.64498
0.853147
0.65747
0.450922
0.726508
0.844257
0.822837
0.806427
0.505047
0.778898
0.843323
0.765526
0.473798
0.748074
0.84239
0.840786
0.487949
0.759401
0.44777
0.862982
0.604683
0.679849
0.646426
0.864849
0.714292
0.686713
0.857054
0.546216
0.759633
0.849995
0.530637
0.760565
0.84639
0.800203
0.838596
0.748817
0.686771
0.685465
0.864386
0.82209
0.722747
0.315487
0.148871
0.827082
0.637587
0.122231
0.823639
0.63919
0.758369
0.855732
0.702594
0.601259
0.829352
0.10404
0.499337
0.859243
0.675202
0.825502
0.608853
0.080826
0.768713
0.831751
0.805963
0.653874
0.752177
0.853713
0.82955
0.627752
0.814456
0.822435
0.682436
0.230943
0.777641
0.521328
0.838744
0.857213
0.363551
0.599538
0.622121
0.745646
0.860058
0.78594
0.843157
0.771574
0.676155
0.246157
0.829773
0.852692
0.697411
0.448272
0.24345
0.21773
0.845827
0.843963
0.597696
0.589947
0.637742
0.795027
0.84445
0.783083
0.565234
0.834694
0.719153
0.800522
0.848323
0.653839
0.183746
0.660874
0.827395
0.179784
0.823878
0.566101
0.731133
0.857817
0.239077
0.207806
0.66427
0.654701
0.83277
0.829941
0.574282
0.78997
0.845597
0.663128
0.775999
0.849695
0.306973
0.854687
0.588158
0.644892
0.784473
0.847214
0.706769
0.796883
0.842601
0.253202
0.848956
0.589234
0.619772
0.735637
0.855677
0.823311
0.542628
0.805314
0.723952
0.644036
0.860147
0.767489
0.817802
0.4185
0.828833
0.507963
-0.0324275
0.629517
0.771267
0.850986
0.332542
0.851991
0.615572
0.855259
0.606963
0.7509
0.092457
0.83808
0.526509
0.823025
0.814446
0.830252
0.697157
0.834281
0.687619
0.725178
0.80931
0.838156
0.801342
0.813744
0.839956
0.712894
0.840155
0.702594
0.648831
0.78116
0.853539
0.665039
0.787563
0.850302
0.820749
0.652313
0.142557
0.745384
0.715189
0.854021
0.266455
0.663789
0.837839
0.531408
0.503376
0.746945
0.738749
0.847737
0.845513
0.744052
0.729603
0.854751
0.656364
0.673077
0.862642
0.577219
0.751285
0.855413
0.795949
0.78264
0.831887
0.498125
0.749
0.84424
0.779616
0.842161
0.762123
0.586406
0.780527
0.847358
0.657206
0.68884
0.86177
0.791222
0.797203
0.76901
0.841824
0.762963
0.840838
0.806382
0.832436
0.816195
0.745491
0.841285
0.71401
0.714082
0.70056
0.722661
0.733306
0.859295
0.857443
0.859114
0.651438
0.467488
0.801474
0.569838
0.828604
0.859614
0.857454
0.644831
0.658204
0.436598
0.433892
0.783666
0.847783
0.624598
0.800924
0.825225
0.798563
0.485699
0.73778
0.846541
0.770338
0.850825
0.724678
0.640997
0.690825
0.862385
0.517987
0.524168
0.649913
0.863751
0.663896
0.861596
0.537642
0.731761
0.851932
0.120316
0.544851
0.839175
0.851155
0.613537
0.762257
0.737713
0.744496
0.856962
0.622696
0.858995
0.626696
0.488919
0.771378
0.834549
0.674401
0.671164
0.863189
0.774039
0.849327
0.635554
0.746456
0.744486
0.854224
0.860603
0.659432
0.659583
0.736436
0.859011
0.639637
0.547483
0.742359
0.852903
0.792908
0.839898
0.759271
0.294565
0.84806
0.614183
0.764603
0.851915
0.625587
0.646117
0.619088
0.703618
0.695275
0.859592
0.864569
0.850637
0.62417
0.318586
0.309859
0.853435
0.601392
0.284796
0.849845
0.600661
0.496589
0.860925
0.663283
0.689474
0.683748
0.862351
0.745305
0.835992
0.864688
0.748046
0.865698
0.637125
0.856895
0.76128
0.789915
0.864091
0.86326
0.789
0.758497
0.863827
0.849152
0.777664
0.751844
0.843119
0.840227
0.859483
0.852308
0.83626
0.863388
0.857283
0.869655
0.836029
0.869054
0.795925
0.855097
0.75138
0.801974
0.85557
0.851281
0.850594
0.813575
0.858076
0.868205
0.863801
0.765574
0.798231
0.833903
0.838127
0.818029
0.862421
0.841079
0.846217
0.848553
0.835136
0.789302
0.822719
0.867313
0.851819
0.779914
0.851413
0.798999
0.865988
0.861501
0.852281
0.838023
0.861751
0.822537
0.819976
0.869373
0.767786
0.856012
0.861561
0.85407
0.866224
0.8638
0.833779
0.804354
0.811355
0.811268
0.860856
0.807454
0.849149
0.81971
0.812196
0.855735
0.863602
0.83894
0.854463
0.785973
0.786634
0.848858
0.858279
0.848272
0.753622
0.850385
0.866308
0.786653
0.863855
0.869576
0.850227
0.766327
0.602108
0.810968
0.837324
0.765456
0.802308
0.857091
0.864436
0.842782
0.86427
0.780984
0.74289
0.790578
0.790989
0.812859
0.868286
0.864795
0.857077
0.796177
0.815827
0.800545
0.838295
0.850565
0.7551
0.796965
0.840563
0.85117
0.860864
0.860126
0.86139
0.843663
0.809617
0.793478
0.868691
0.719943
0.86005
0.803323
0.863746
0.787022
0.683586
0.738829
0.863714
0.847513
0.787225
0.808353
0.855448
0.772789
0.858909
0.814854
0.801408
0.846401
0.850236
0.783212
0.865272
0.80948
0.850028
0.787797
0.83639
0.766096
0.867991
0.862885
0.847396
0.861959
0.858253
0.864786
0.821622
0.80721
0.799762
0.842946
0.718677
0.788135
0.791626
0.850751
0.842845
0.854805
0.867184
0.85293
0.869394
0.86881
0.865816
0.78164
0.80057
0.791815
0.864563
0.791378
0.783255
0.709845
0.783392
0.844687
0.844805
0.853642
0.868187
0.862742
0.834609
0.862739
0.842412
0.841027
0.676046
0.842826
0.812829
0.802286
0.861495
0.860882
0.810406
0.835482
0.851879
0.855279
0.746602
0.810558
0.861063
0.867217
0.821052
0.788061
0.838874
0.84558
0.834354
0.828495
0.766861
0.70849
0.805536
0.812384
0.808039
0.797927
0.75498
0.864435
0.848567
0.800238
0.85021
0.783614
0.781677
0.860026
0.85977
0.777286
0.786185
0.735971
0.859762
0.80921
0.843629
0.857083
0.852086
0.793067
0.856759
0.83196
0.792359
0.800517
0.864653
0.8547
0.855708
0.866107
0.837892
0.772118
0.79028
0.848937
0.850448
0.779319
0.800981
0.854177
0.86196
0.861648
0.855525
0.784417
0.847657
0.81651
0.853901
0.83238
0.808983
0.847033
0.835685
0.702626
0.787058
0.808052
0.782742
0.818229
0.858342
0.842146
0.851985
0.859996
0.762865
0.846273
0.827757
0.849588
0.843196
0.841626
0.856811
0.79186
0.781787
0.839839
0.788539
0.78735
0.85433
0.690391
0.787843
0.864465
0.857642
0.801558
0.802218
0.802465
0.854417
0.762078
0.699922
0.771316
0.844868
0.851745
0.846599
0.63885
0.775647
0.864701
0.834098
0.742782
0.781052
0.791997
0.799612
0.786883
0.849742
0.862102
0.800914
0.793222
0.819957
0.82167
0.840942
0.735347
0.862532
0.844403
0.688978
0.796477
0.786873
0.800348
0.859437
0.846108
0.862535
0.821876
0.773539
0.837664
0.85246
0.860259
0.82379
0.867528
0.861863
0.82774
0.856768
0.848567
0.817407
0.793041
0.83596
0.757344
0.834177
0.835613
0.8023
0.773555
0.771433
0.77125
0.75338
0.864757
0.782296
0.808198
0.858931
0.849163
0.78964
0.780601
0.868764
0.835746
0.684233
0.833493
0.801143
0.791676
0.864738
0.829035
0.815953
0.852281
0.803884
0.845104
0.799068
0.85552
0.837916
0.823982
0.613669
0.780185
0.802769
0.838092
0.845813
0.847534
0.844328
0.867732
0.767227
0.800986
0.765886
0.72416
0.793783
0.862927
0.819092
0.839084
0.810313
0.841934
0.787704
0.749795
0.77231
0.797619
0.804071
0.869311
0.825211
0.829184
0.867992
0.861872
0.844244
0.868691
0.753498
0.814809
0.791516
0.855433
0.846241
0.857042
0.833301
0.843919
0.802519
0.833303
0.786307
0.731886
0.854928
0.823997
0.723746
0.777244
0.797529
0.774479
0.802876
0.839292
0.84949
0.779337
0.808569
0.793479
0.797636
0.793821
0.816668
0.754473
0.799676
0.865666
0.865527
0.862127
0.845784
0.848018
0.68038
0.861111
0.853218
0.78077
0.867085
0.663551
0.86247
0.81069
0.847827
0.82423
0.860625
0.83524
0.766435
0.85969
0.765445
0.865705
0.849932
0.802103
0.814137
0.750493
0.823745
0.865931
0.809967
0.858656
0.859718
0.7917
0.739954
0.861443
0.672526
0.846464
0.847812
0.788075
0.868606
0.717986
0.71363
0.858923
0.837412
0.862867
0.860036
0.844831
0.861222
0.868252
0.863284
0.858862
0.858018
0.789364
0.82025
0.84102
0.865371
0.819134
0.65869
0.860753
0.806795
0.846817
0.817992
0.866782
0.843887
0.820061
0.862568
0.833663
0.868374
0.775424
0.863474
0.843209
0.866155
0.858935
0.859249
0.816399
0.842629
0.777878
0.768112
0.843461
0.816244
0.839814
0.748376
0.669866
0.790547
0.821849
0.843755
0.825346
0.867934
0.820466
0.781937
0.831361
0.789242
0.865587
0.754822
0.842725
0.850894
0.865641
0.828671
0.859454
0.768989
0.848133
0.862798
0.794529
0.758488
0.846772
0.822029
0.859409
0.863
0.820377
0.788268
0.837916
0.79858
0.781879
0.866445
0.867233
0.860637
0.757014
0.867916
0.847778
0.868302
0.798366
0.855436
0.846846
0.856052
0.847102
0.759306
0.794142
0.815101
0.652376
0.8654
0.850054
0.847939
0.863489
0.858719
0.833547
0.844219
0.846792
0.868337
0.864262
0.842985
0.843729
0.827345
0.856634
0.846756
0.810083
0.816239
0.822939
0.82048
0.851129
0.804433
0.86156
0.865561
0.793865
0.864122
0.795095
0.78099
0.800861
0.862037
0.835617
0.844176
0.851293
0.863362
0.846275
0.852495
0.864939
0.805382
0.796659
0.774252
0.783389
0.785912
0.586433
0.789266
0.794664
0.851607
0.791907
0.817111
0.8499
0.839552
0.786252
0.804602
0.817273
0.605346
0.867256
0.826338
0.851365
0.792159
0.823275
0.844738
0.757915
0.858785
0.790631
0.864399
0.821143
0.865122
0.752982
0.704542
0.814542
0.820325
0.827166
0.852769
0.707844
0.849303
0.824218
0.784062
0.761534
0.807465
0.816071
0.865087
0.752508
0.860352
0.861791
0.849813
0.8015
0.862445
0.790884
0.587426
0.84662
0.795769
0.787283
0.861871
0.862466
0.849342
0.853095
0.82658
0.866005
0.868132
0.847708
0.824261
0.86046
0.867676
0.858349
0.84914
0.846213
0.864147
0.795978
0.793651
0.865204
0.861595
0.866855
0.839003
0.826209
0.800857
0.862579
0.859418
0.553919
0.834071
0.845112
0.780405
0.850333
0.832067
0.866281
0.851196
0.847622
0.801809
0.85733
0.865274
0.845255
0.864148
0.866548
0.706206
0.78115
0.828322
0.789331
0.704324
0.79705
0.845064
0.862854
0.8018
0.834373
0.758146
0.812409
0.851268
0.849695
0.799754
0.793542
0.792767
0.838063
0.807188
0.802118
0.8475
0.853197
0.857955
0.783687
0.856485
0.810893
0.794325
0.845055
0.862729
0.849604
0.843867
0.785078
0.860424
0.796148
0.868141
0.860939
0.86502
0.860869
0.786697
0.78515
0.849453
0.788075
0.792219
0.806027
0.80174
0.78451
0.845208
0.848858
0.791205
0.864224
0.818042
0.837225
0.845056
0.85914
0.856257
0.857828
0.839796
0.794613
0.862404
0.761838
0.862172
0.788851
0.853505
0.864594
0.862721
0.861578
0.86379
0.84814
0.780844
0.798231
0.845146
0.808436
0.868398
0.780819
0.753208
0.833488
0.830377
0.818215
0.793887
0.842436
0.86069
0.855245
0.671793
0.81223
0.736949
0.76262
0.845173
0.832426
0.847121
0.839833
0.864857
0.785368
0.868257
0.849447
0.752684
0.85856
0.821459
0.863494
0.846297
0.842473
0.780811
0.802682
0.847776
0.861204
0.811526
0.838981
0.848109
0.857718
0.8396
0.837825
0.812521
0.851809
0.789307
0.782195
0.730661
0.850998
0.791349
0.803629
0.787498
0.805134
0.867214
0.832037
0.847963
0.86537
0.8465
0.746706
0.849327
0.770473
0.826451
0.85487
0.808141
0.793966
0.822486
0.848377
0.768359
0.809579
0.729464
0.793627
0.853311
0.73825
0.802913
0.860312
0.787624
0.792764
0.846789
0.862147
0.827917
0.7732
0.849905
0.802871
0.807992
0.84838
0.822691
0.849217
0.855124
0.869006
0.818108
0.862718
0.854425
0.86011
0.865968
0.86054
0.751975
0.80374
0.835011
0.783137
0.866623
0.865217
0.860227
0.852643
0.785049
0.790618
0.837586
0.865121
0.767301
0.859264
0.85651
0.860838
0.7788
0.777319
0.7841
0.746184
0.851597
0.767318
0.857063
0.804968
0.858281
0.783998
0.848801
0.791581
0.844531
0.855428
0.85153
0.832832
0.856903
0.865635
0.868519
0.854415
0.824653
0.862092
0.856149
0.807797
0.818434
0.847424
0.80298
0.867159
0.830251
0.855102
0.861885
0.863892
0.809351
0.726484
0.869402
0.821231
0.827635
0.841453
0.854574
0.862483
0.86443
0.821483
0.851643
0.786776
0.812067
0.848602
0.860009
0.844202
0.853084
0.835914
0.869217
0.838999
0.8086
0.86499
0.851155
0.778302
0.811484
0.868364
0.836643
0.790347
0.809765
0.870091
0.829143
0.847596
0.863557
0.865609
0.860891
0.853442
0.792307
0.858938
0.81403
0.831294
0.865586
0.850535
0.784671
0.77029
0.83112
0.85676
0.800374
0.777765
0.85889
0.832905
0.848218
0.859405
0.786976
0.787971
0.823457
0.856849
0.867061
0.850607
0.84847
0.738529
0.85016
0.815737
0.84523
0.864994
0.866974
0.777654
0.786157
0.843105
0.864331
0.866869
0.863194
0.85932
0.814889
0.817569
0.786342
0.790742
0.862707
0.853859
0.705541
0.791334
0.864277
0.844577
0.778654
0.790803
0.852166
0.816826
0.854949
0.857518
0.843363
0.864738
0.860418
0.84617
0.85905
0.826469
0.820172
0.834411
0.854428
0.820653
0.861533
0.707653
0.845052
0.694602
0.833297
0.865422
0.852819
0.864589
0.862621
0.865339
0.810933
0.829809
0.848119
0.748113
0.865159
0.842958
0.803242
0.857599
0.644441
0.792074
0.845935
0.859573
0.868432
0.789397
0.787408
0.84754
0.859699
0.717431
0.807206
0.824354
0.718736
0.770488
0.84634
0.773189
0.848832
0.790701
0.852308
0.860988
0.648535
0.840261
0.843633
0.810964
0.784307
0.845361
0.811161
0.826113
0.792413
0.840628
0.830868
0.821072
0.846587
0.865386
0.809845
0.782182
0.821351
0.788997
0.797766
0.845909
0.743951
0.812718
0.810958
0.841804
0.854223
0.83653
0.841349
0.701765
0.849478
0.848246
0.817453
0.863838
0.83192
0.840495
0.723868
0.706826
0.857623
0.785908
0.842577
0.86005
0.812181
0.852248
0.701892
0.856709
0.823976
0.863651
0.825128
0.827805
0.844485
0.794113
0.815856
0.822126
0.868545
0.789422
0.778107
0.841159
0.868938
0.865406
0.73486
0.825863
0.823154
0.844468
0.818666
0.86739
0.864003
0.86203
0.860564
0.856019
0.803839
0.787727
0.864506
0.805444
0.829941
0.736838
0.77408
0.795437
0.780223
0.8573
0.710462
0.860395
0.808735
0.85976
0.83939
0.854582
0.863486
0.825559
0.861516
0.865617
0.865162
0.847271
0.864328
0.809512
0.850355
0.781365
0.809634
0.868631
0.711904
0.853434
0.858776
0.8457
0.837804
0.833917
0.852532
0.851728
0.848112
0.791641
0.790693
0.851966
0.849993
0.736516
0.860847
0.778945
0.849538
0.786081
0.833108
0.850496
0.863222
0.865945
0.791922
0.853032
0.846629
0.840799
0.865155
0.747842
0.770014
0.868523
0.787155
0.810956
0.864635
0.865396
0.855855
0.775826
0.799713
0.801924
0.796677
0.750402
0.845777
0.822402
0.839413
0.802374
0.848024
0.828143
0.807023
0.749058
0.841649
0.837793
0.799765
0.863964
0.863464
0.764468
0.85374
0.701777
0.80908
0.731119
0.803783
0.861496
0.841917
0.846476
0.833879
0.851036
0.863246
0.85451
0.849053
0.754494
0.831773
0.815434
0.845568
0.778931
0.866751
0.826687
0.801504
0.866104
0.8606
0.784647
0.858768
0.787177
0.856287
0.855044
0.857992
0.745529
0.855185
0.840259
0.855784
0.844287
0.799135
0.784719
0.801007
0.863014
0.86536
0.864651
0.825309
0.843518
0.862684
0.83264
0.851464
0.803389
0.808719
0.848836
0.865168
0.793855
0.866499
0.850514
0.868778
0.866916
0.864333
0.847338
0.831527
0.865153
0.68197
0.860554
0.728511
0.863156
0.865419
0.850115
0.825275
0.81194
0.850059
0.730658
0.75349
0.817223
0.764693
0.866064
0.789348
0.788136
0.746914
0.78238
0.84733
0.861364
0.868014
0.788685
0.826189
0.85038
0.855842
0.821899
0.816609
0.864256
0.864293
0.848789
0.86417
0.863985
0.863978
0.786873
0.838454
0.761719
0.854685
0.866259
0.865303
0.840677
0.855032
0.827518
0.78458
0.823905
0.787608
0.798395
0.794081
0.8686
0.847851
0.842365
0.869597
0.86414
0.852836
0.856922
0.806483
0.852622
0.84728
0.864453
0.821175
0.784153
0.851217
0.852262
0.86324
0.867518
0.866869
0.777605
0.774695
0.782266
0.852883
0.865358
0.733932
0.803321
0.865893
0.79561
0.828552
0.787186
0.843876
0.856906
0.844398
0.853918
0.803722
0.848621
0.849308
0.861904
0.829609
0.804034
0.857789
0.852185
0.83493
0.865609
0.870807
0.734097
0.864409
0.795294
0.817482
0.869195
0.866436
0.844055
0.865431
0.796055
0.86251
0.809785
0.787075
0.863677
0.822605
0.860082
0.838686
0.855305
0.853573
0.857571
0.803682
0.862144
0.781088
0.863605
0.845916
0.846738
0.819678
0.777091
0.785999
0.863653
0.805945
0.834909
0.774969
0.816736
0.861487
0.862417
0.852982
0.86001
0.856561
0.802449
0.825278
0.85114
0.781549
0.809016
0.853716
0.84056
0.828285
0.80126
0.7347
0.786083
0.862355
0.820587
0.863144
0.786876
0.866798
0.850028
0.865351
0.866007
0.8248
0.865055
0.788412
0.854195
0.801255
0.852606
0.768463
0.826667
0.804714
0.783039
0.826335
0.790837
0.784461
0.794399
0.867023
0.870374
0.831656
0.775336
0.863958
0.790438
0.740933
0.842187
0.861146
0.853233
0.792949
0.794813
0.868178
0.77005
0.85083
0.771176
0.799134
0.823514
0.774098
0.866656
0.841139
0.806852
0.866641
0.867761
0.802129
0.856625
0.841411
0.868432
0.844138
0.813516
0.791194
0.859905
0.867463
0.85921
0.765189
0.790731
0.810637
0.840369
0.857372
0.866335
0.768687
0.855284
0.793422
0.855234
0.857521
0.849859
0.81795
0.856728
0.739947
0.841925
0.770742
0.836377
0.759558
0.784819
0.848894
0.866306
0.801676
0.80901
0.854294
0.819182
0.729091
0.783475
0.798821
0.839824
0.676398
0.841258
0.834552
0.856468
0.834744
0.856352
0.855942
0.715668
0.712536
0.867395
0.840633
0.73002
0.813606
0.850674
0.863293
0.855299
0.762189
0.837555
0.768785
0.857623
0.864831
0.864508
0.831154
0.862712
0.795187
0.847777
0.868018
0.791051
0.8055
0.862898
0.864384
0.795082
0.789943
0.752417
0.714538
0.754642
0.867314
0.80766
0.786848
0.760885
0.776462
0.856291
0.775964
0.799621
0.778
0.857808
0.815346
0.85849
0.806004
0.830905
0.831024
0.843879
0.849382
0.859044
0.779713
0.856959
0.834533
0.832962
0.856103
0.814181
0.863608
0.857855
0.810814
0.858752
0.788614
0.812691
0.848924
0.857759
0.794415
0.839222
0.83808
0.851103
0.848562
0.864666
0.759905
0.795622
0.77775
0.78187
0.867426
0.807618
0.854002
0.868882
0.828696
0.718802
0.781597
0.831568
0.773534
0.846199
0.783809
0.807679
0.806443
0.863286
0.863032
0.838029
0.771175
0.81947
0.790145
0.832037
0.863057
0.85406
0.817459
0.841951
0.820621
0.852374
0.859288
0.863997
0.855404
0.866964
0.857622
0.824401
0.802782
0.787731
0.785153
0.856197
0.844857
0.797978
0.859695
0.805973
0.866238
0.858795
0.78797
0.763594
0.811885
0.83629
0.864146
0.846191
0.86117
0.844023
0.865365
0.857247
0.84872
0.803368
0.844964
0.84105
0.793195
0.81571
0.858126
0.725569
0.641788
0.854252
0.84968
0.864522
0.829785
0.792494
0.777723
0.813821
0.76541
0.821852
0.851692
0.795746
0.862851
0.831018
0.778951
0.829248
0.803617
0.778673
0.863254
0.845628
0.852071
0.775409
0.836508
0.842635
0.776588
0.812297
0.814605
0.808941
0.781166
0.720934
0.866554
0.86201
0.86573
0.857644
0.86282
0.799658
0.853684
0.831247
0.82997
0.753246
0.855806
0.841348
0.823303
0.86485
0.864528
0.858263
0.85619
0.853024
0.857536
0.79046
0.848285
0.858655
0.860362
0.82861
0.795459
0.854737
0.805458
0.807453
0.860392
0.816591
0.867844
0.80109
0.868443
0.856036
0.849507
0.802327
0.861516
0.788616
0.805483
0.816364
0.796291
0.804864
0.804782
0.804782
0.845724
0.77202
0.777145
0.83736
0.854428
0.840487
0.813694
0.857184
0.854484
0.810555
0.862716
0.864677
0.865954
0.775543
0.810459
0.841511
0.787768
0.837656
0.742983
0.848227
0.747272
0.863602
0.837758
0.848216
0.799403
0.787662
0.811331
0.846229
0.808304
0.852326
0.85618
0.84984
0.861411
0.84954
0.838657
0.798447
0.865823
0.841273
0.84479
0.864891
0.795109
0.797445
0.795797
0.862392
0.866119
0.841232
0.834682
0.80714
0.835033
0.766336
0.829508
0.780781
0.862044
0.805801
0.829492
0.847314
0.849097
0.780932
0.829263
0.834578
0.846034
0.843591
0.860264
0.842694
0.813232
0.85332
0.864249
0.842112
0.787404
0.847959
0.788065
0.839051
0.757543
0.792278
0.843851
0.736501
0.784051
0.862594
0.863954
0.784182
0.840181
0.795382
0.749575
0.792588
0.782021
0.793805
0.794761
0.795394
0.859992
0.869118
0.829725
0.862199
0.830136
0.858503
0.844702
0.868348
0.858496
0.806795
0.85064
0.864109
0.8486
0.850441
0.757026
0.864834
0.827263
0.650779
0.852994
0.865753
0.868945
0.861329
0.853179
0.849149
0.812646
0.844497
0.835474
0.846373
0.660907
0.815721
0.753716
0.842361
0.848361
0.772167
0.785055
0.807292
0.796178
0.781472
0.845604
0.836427
0.853714
0.861654
0.796837
0.866703
0.781
0.831392
0.861844
0.837646
0.839844
0.841107
0.668563
0.798545
0.84988
0.864523
0.798017
0.811566
0.846819
0.860672
0.783569
0.868157
0.803255
0.848881
0.847518
0.828085
0.845451
0.862047
0.865808
0.761303
0.851032
0.853863
0.858229
0.773623
0.838191
0.819897
0.78216
0.799871
0.809676
0.850064
0.849015
0.858232
0.831527
0.770024
0.842301
0.797088
0.797043
0.838695
0.834671
0.774877
0.869926
0.799438
0.804988
0.796831
0.849667
0.778345
0.740491
0.851502
0.823913
0.852564
0.79945
0.75607
0.850318
0.716894
0.863894
0.855093
0.793607
0.782742
0.868489
0.794929
0.781404
0.786066
0.759656
0.812998
0.855132
0.86354
0.7807
0.809234
0.860987
0.837112
0.802662
0.796987
0.827869
0.863349
0.866563
0.795921
0.785269
0.857064
0.868198
0.84763
0.844405
0.844969
0.761053
0.846639
0.859303
0.849824
0.767082
0.862743
0.84592
0.783643
0.85588
0.786558
0.865832
0.851834
0.775556
0.845101
0.840429
0.841543
0.789859
0.852197
0.813103
0.86118
0.857394
0.86153
0.791265
0.807376
0.861164
0.857636
0.819108
0.855341
0.846426
0.796729
0.852109
0.849689
0.795521
0.705291
0.790637
0.820353
0.80273
0.792627
0.808048
0.8171
0.854164
0.778838
0.788526
0.843575
0.781318
0.864861
0.795759
0.849598
0.846203
0.784686
0.848651
0.826876
0.858222
0.851971
0.862045
0.800298
0.794734
0.866813
0.764654
0.864978
0.858127
0.845129
0.809314
0.865653
0.838386
0.790936
0.868843
0.762223
0.849289
0.864223
0.770141
0.869951
0.790441
0.844887
0.684699
0.844377
0.784295
0.849715
0.815333
0.786956
0.818872
0.780896
0.799081
0.865778
0.782598
0.836395
0.849983
0.839041
0.856173
0.859303
0.845156
0.766197
0.866825
0.84195
0.863126
0.803336
0.845888
0.854716
0.826245
0.864819
0.848361
0.851344
0.796193
0.835658
0.742394
0.782482
0.865324
0.60799
0.858
0.857392
0.808994
0.796137
0.821373
0.865638
0.836429
0.859253
0.844714
0.848287
0.852011
0.86729
0.862434
0.780586
0.847055
0.861969
0.849937
0.854339
0.825862
0.798516
0.790483
0.828414
0.850751
0.827019
0.869775
0.786675
0.80464
0.838383
0.817334
0.848374
0.861919
0.796
0.811025
0.810877
0.82496
0.793533
0.863648
0.771034
0.824465
0.844144
0.824758
0.775517
0.770729
0.855107
0.771103
0.780727
0.863313
0.84835
0.814504
0.781325
0.785119
0.808207
0.863035
0.865548
0.817807
0.848686
0.849611
0.867585
0.862628
0.80419
0.865169
0.8164
0.844508
0.85857
0.864022
0.850779
0.864879
0.862222
0.767217
0.74896
0.835773
0.808244
0.822029
0.701586
0.707776
0.861303
0.863755
0.793355
0.866029
0.849552
0.861615
0.843576
0.789855
0.865631
0.863288
0.850113
0.766985
0.788638
0.854389
0.855948
0.844205
0.784093
0.821177
0.855581
0.864771
0.854349
0.830707
0.814864
0.861328
0.827259
0.819317
0.853631
0.828339
0.855291
0.695895
0.865618
0.839371
0.849163
0.865122
0.784279
0.793198
0.80492
0.792334
0.866321
0.792935
0.841616
0.699735
0.807919
0.825599
0.79636
0.783525
0.836503
0.778275
0.792589
0.839757
0.831555
0.86253
0.797894
0.849999
0.86559
0.811404
0.85758
0.850808
0.860571
0.847211
0.809741
0.864179
0.783377
0.790525
0.856179
0.864681
0.863641
0.848787
0.753602
0.856109
0.847982
0.824899
0.862833
0.853789
0.8596
0.860369
0.787982
0.790565
0.850793
0.781472
0.851458
0.850036
0.779214
0.865602
0.850394
0.861076
0.843154
0.849363
0.776374
0.823916
0.85169
0.799503
0.851157
0.859331
0.816458
0.849863
0.834927
0.846016
0.854799
0.849668
0.779684
0.862094
0.756936
0.690634
0.81675
0.861701
0.79073
0.865667
0.806809
0.754287
0.849294
0.854733
0.863793
0.65881
0.852106
0.852754
0.864915
0.823466
0.86796
0.854309
0.789735
0.848295
0.831453
0.832506
0.78697
0.852778
0.849062
0.791279
0.787299
0.850358
0.836414
0.786149
0.842916
0.864799
0.783197
0.86443
0.797883
0.74929
0.766432
0.849236
0.838063
0.79027
0.756389
0.783827
0.849049
0.846394
0.862874
0.818316
0.865252
0.771499
0.850831
0.790259
0.792654
0.788596
0.853838
0.849352
0.793614
0.800368
0.868337
0.825638
0.859763
0.860124
0.812959
0.842125
0.849202
0.822229
0.863951
0.853362
0.854862
0.82371
0.791091
0.843568
0.818681
0.869103
0.826163
0.804388
0.747504
0.799477
0.849455
0.863774
0.839769
0.862226
0.841126
0.806958
0.820874
0.767124
0.81364
0.803593
0.863191
0.780155
0.798036
0.790276
0.861688
0.842532
0.792697
0.782847
0.763801
0.861586
0.820278
0.801967
0.787294
0.813628
0.795698
0.832404
0.847532
0.77773