/*--------------------------------*- C++ -*----------------------------------*\
  =========                 |
  \\      /  F ield         | OpenFOAM: The Open Source CFD Toolbox
   \\    /   O peration     | Website:  https://openfoam.org
    \\  /    A nd           | Version:  6
     \\/     M anipulation  |
\*---------------------------------------------------------------------------*/
FoamFile
{
    version     2.0;
    format      ascii;
    class       volVectorField;
    location    "0";
    object      U_rec;
}
// * * * * * * * * * * * * * * * * * * * * * * * * * * * * * * * * * * * * * //

dimensions      [0 1 -1 0 0 0 0];

internalField   nonuniform List<vector> 
13046
(
(-0.877677 0.539021 0)
(-0.639032 0.183832 -7.06934e-21)
(-0.315853 0.12812 -1.56178e-20)
(-0.844799 0.446629 0)
(-0.42201 0.230683 -1.39334e-20)
(-0.525165 0.153494 0)
(-0.899966 0.473976 1.97394e-21)
(-0.513701 0.122057 3.6492e-21)
(-0.397282 0.232564 -1.53645e-20)
(-1.1806 0.641787 4.67965e-21)
(-0.722634 -0.154023 0)
(-0.0404993 -0.0263589 1.02235e-20)
(-1.01293 0.590598 -6.16211e-21)
(-0.594417 0.113379 -1.14347e-20)
(-0.26948 0.122328 8.54157e-21)
(-1.18665 0.749223 -6.4474e-21)
(-0.0512968 -0.0470764 2.47393e-20)
(-0.769043 -0.0673748 6.2452e-21)
(-0.595072 0.361963 0)
(-0.435739 0.14398 -7.64315e-21)
(-0.750885 0.340372 2.11569e-20)
(-1.19147 0.735823 -2.61596e-21)
(-0.0480038 -0.0408105 -3.30028e-20)
(-0.755201 -0.0853182 0)
(-0.792879 0.45169 8.41431e-21)
(-0.604281 0.202631 -1.72682e-20)
(-0.393518 0.183115 0)
(-1.01754 0.621718 -1.09582e-20)
(-0.61921 0.113864 3.33639e-21)
(-0.241619 0.0960314 -1.47776e-20)
(-0.886738 0.561058 0)
(-0.669502 0.196311 0)
(-0.290048 0.0997083 1.58999e-20)
(-0.736238 0.412505 -9.76664e-21)
(-0.427682 0.198692 5.26309e-21)
(-0.605752 0.226826 3.0059e-20)
(-0.718314 0.386971 -1.52183e-20)
(-0.466923 0.230373 7.99757e-21)
(-0.579822 0.225607 -1.54921e-20)
(-0.766526 0.552318 1.06449e-20)
(-0.292113 0.0192437 2.94727e-21)
(-0.848275 0.287343 -1.05113e-20)
(-0.634514 0.311119 6.92577e-21)
(-0.562297 0.28596 1.19009e-20)
(-0.549689 0.241233 0)
(-0.678818 0.325957 4.33302e-21)
(-0.558354 0.30327 -1.82378e-20)
(-0.510708 0.209533 -2.30366e-21)
(-0.901967 0.535806 0)
(-0.60388 0.155538 -5.11214e-22)
(-0.312066 0.142587 1.09055e-24)
(-0.31987 -0.0671901 1.86224e-20)
(-0.672321 0.556746 0)
(-1.04249 0.351774 -1.26269e-20)
(-0.342851 -0.0841314 -2.65379e-20)
(-1.0956 0.376606 -1.96318e-20)
(-0.618033 0.526345 1.6667e-20)
(-0.815799 0.100684 -2.67754e-21)
(-1.14013 0.845152 0)
(-0.129014 -0.0661815 1.37703e-20)
(-1.18058 0.575155 -5.64297e-21)
(-0.512655 -0.0231709 6.9057e-21)
(-0.276031 0.201484 -3.53636e-20)
(-0.0936435 0.0238712 1.87089e-20)
(-0.667062 -0.0758941 -4.51401e-21)
(-1.24859 0.691134 -8.0753e-21)
(-1.10815 0.852917 0)
(-0.851933 0.133384 0)
(-0.147918 -0.0798475 0)
(-1.08105 0.832861 -4.30363e-21)
(-0.852869 0.14905 0)
(-0.159355 -0.0742488 1.10276e-20)
(-0.824484 0.086871 0)
(-1.15859 0.858128 2.11241e-22)
(-0.117081 -0.0750627 -8.90395e-24)
(-0.626611 0.39268 0)
(-0.405618 0.119775 8.31748e-21)
(-0.767408 0.325532 -1.51426e-20)
(-0.0923124 -0.0623149 1.52063e-20)
(-1.18297 0.841352 -1.20686e-20)
(-0.79183 0.0333319 0)
(-0.830748 0.467544 4.35403e-21)
(-0.575067 0.180142 0)
(-0.384086 0.194419 0)
(-0.078141 0.00799562 -1.67877e-20)
(-0.685208 -0.0917202 -3.54502e-21)
(-1.2451 0.692044 4.76599e-21)
(-1.28862 0.600218 -8.53958e-21)
(-0.140968 0.104169 0)
(-0.596194 -0.130712 -3.49272e-21)
(-0.195178 0.185623 0)
(-1.32394 0.498605 0)
(-0.546481 -0.201715 4.70464e-22)
(-1.17446 0.69071 0)
(-1.20183 0.686652 4.8956e-21)
(-0.627999 0.0271303 1.35379e-20)
(-0.621311 -0.000564657 -6.36233e-21)
(-0.166732 0.0631228 -7.73708e-21)
(-0.157233 0.0692824 1.98407e-20)
(-0.165676 0.131749 -9.3245e-22)
(-1.29409 0.582008 8.36821e-21)
(-0.575408 -0.139691 0)
(-0.728241 0.359007 -7.34213e-23)
(-0.527766 0.292462 9.54813e-21)
(-0.502047 0.186367 0)
(-0.541476 0.436556 0)
(-1.04671 0.41554 -5.99812e-21)
(-0.369963 -0.0284813 0)
(-0.676891 0.533551 1.85001e-20)
(-0.314372 -0.0268861 0)
(-0.968816 0.341221 -2.3652e-20)
(-1.03622 0.563443 0)
(-0.0136857 -0.0584115 0)
(-0.723935 -0.219211 -5.30291e-21)
(-0.966403 0.561552 1.70513e-20)
(-0.587016 0.13031 4.80401e-21)
(-0.294092 0.140511 1.54153e-20)
(-1.19351 0.745146 6.2841e-21)
(-1.17066 0.723246 -1.19415e-20)
(-0.681805 0.0238611 -1.14818e-20)
(-0.126887 0.0144746 8.93179e-21)
(-0.660645 0.0393008 7.00168e-21)
(-0.147257 0.0331852 -8.34566e-21)
(-1.15111 0.63773 -3.58071e-21)
(-0.73597 -0.165466 -7.28889e-21)
(-0.0314221 -0.0382781 -4.58271e-21)
(-1.10651 0.672351 0)
(-0.628687 0.0701869 -8.87937e-21)
(-0.195285 0.0701077 1.81059e-20)
(-0.814425 0.578635 0)
(-0.275241 0.0249283 -1.47036e-20)
(-0.813396 0.258765 6.09116e-22)
(-0.226144 0.216483 0)
(-1.32423 0.499486 0)
(-0.531058 -0.184996 0)
(-1.24603 0.665275 0)
(-0.613863 -0.0527717 -1.78403e-20)
(-0.148352 0.0796332 -2.12016e-20)
(-0.932047 0.589101 0)
(-0.674697 0.176992 0)
(-0.265868 0.0806095 0)
(-1.03787 0.501529 0)
(-0.462856 0.0351348 0)
(-0.392079 0.269975 0)
(-0.647787 0.519639 0)
(-0.328236 -0.0398317 0)
(-1.00971 0.361462 1.27042e-20)
(-0.545114 0.422044 -1.97061e-21)
(-1.02186 0.415719 -1.29969e-20)
(-0.376821 -0.0113587 1.61131e-20)
(-1.20247 0.594202 1.28252e-20)
(-0.534331 -0.0323966 0)
(-0.242617 0.168856 4.59795e-20)
(-0.504746 0.35026 0)
(-0.946028 0.426049 1.4097e-20)
(-0.414411 0.0511494 -4.07097e-21)
(-0.394866 -0.0955321 0)
(-1.17106 0.433319 1.36227e-20)
(-0.422565 -0.102379 0)
(-1.20548 0.462378 7.66434e-21)
(-0.497735 0.437716 0)
(-0.43763 0.38624 0)
(-1.05931 0.465716 1.77575e-21)
(-0.422381 -0.000860921 8.56567e-21)
(-0.442059 0.326398 -8.63365e-21)
(-1.2028 0.626709 -4.82404e-21)
(-0.046651 -0.0139225 0)
(-0.700172 -0.167098 -8.94765e-21)
(-1.07965 0.592822 -3.09804e-21)
(-0.0187692 -0.0530825 -2.09585e-21)
(-0.737791 -0.197477 0)
(-1.247 0.681193 -6.88841e-21)
(-0.63255 -0.0543833 0)
(-0.128301 0.0582421 2.41138e-20)
(-0.885785 0.668029 0)
(-0.865018 0.243255 3.42354e-21)
(-0.239055 -0.0269001 8.63764e-21)
(-1.02766 0.446624 1.18077e-20)
(-0.479566 0.360015 4.11165e-21)
(-0.406126 0.00944301 0)
(-0.0679281 0.0237216 0)
(-0.657974 -0.174578 0)
(-1.24705 0.600209 4.01319e-21)
(-0.84635 0.632384 0)
(-0.861505 0.261064 -7.37973e-21)
(-0.256611 -0.0114554 2.23052e-21)
(-0.506663 0.368576 0)
(-0.964666 0.421876 0)
(-0.397387 0.0322244 0)
(-0.998291 0.480062 5.80894e-21)
(-0.459578 0.0510759 0)
(-0.40704 0.271205 0)
(-0.569645 0.0735515 -5.53963e-23)
(-0.259309 0.135535 -1.04555e-20)
(-1.08065 0.645845 1.73592e-20)
(-0.614194 0.0834817 0)
(-0.218023 0.0885755 -2.26869e-20)
(-1.26926 0.638015 -8.50213e-21)
(-0.100867 0.0488585 1.51266e-20)
(-0.643754 -0.124022 -1.71195e-20)
(-0.214357 0.193754 1.36289e-20)
(-1.30763 0.537146 5.41444e-21)
(-0.541129 -0.156166 1.73688e-20)
(-1.31076 0.543965 -1.42633e-20)
(-0.578424 -0.17504 0)
(-0.153635 0.133346 -1.33747e-20)
(-0.311971 -0.109003 -9.55004e-22)
(-1.08886 0.33161 5.65097e-21)
(-0.719771 0.632747 0)
(-0.994388 0.528047 -2.60009e-20)
(-1.17123 0.853768 6.31083e-21)
(-0.0989384 -0.0711855 -9.39856e-21)
(-0.813698 0.0462504 0)
(-0.597397 -0.186286 0)
(-1.29335 0.553971 -1.21541e-20)
(-0.125175 0.0978321 0)
(-0.750898 0.390254 -2.18892e-20)
(-0.480233 0.257237 -7.84915e-21)
(-0.532339 0.190633 2.28412e-20)
(-0.993889 0.627101 0)
(-0.651339 0.139302 -4.80037e-22)
(-0.244927 0.0832764 -8.72448e-21)
(-0.231911 0.217001 1.03828e-20)
(-1.31546 0.520727 0)
(-0.529205 -0.169734 -2.00089e-20)
(-1.03467 0.551477 2.07557e-20)
(-0.547865 0.0646592 2.07512e-20)
(-0.281616 0.159213 0)
(-0.0299864 -0.0311059 0)
(-0.698662 -0.205351 7.84908e-21)
(-1.14851 0.585528 0)
(-0.667248 0.591411 0)
(-1.12276 0.349427 0)
(-0.330375 -0.115938 0)
(-1.309 0.556193 1.2507e-20)
(-0.566696 -0.158469 0)
(-0.170251 0.146463 -4.07947e-23)
(-1.13249 0.467494 5.09426e-21)
(-0.415797 -0.052188 -6.61856e-21)
(-0.434988 0.355985 0)
(-1.10132 0.692222 0)
(-0.651642 0.0821401 8.2854e-21)
(-0.184767 0.0513195 1.43046e-20)
(-0.474807 -0.173782 -2.45592e-20)
(-1.30917 0.462003 -1.02342e-20)
(-0.346206 0.337868 8.11241e-21)
(-1.23956 0.459118 0)
(-0.434034 -0.124566 -9.57257e-21)
(-0.422262 0.383286 -2.91772e-22)
(-0.0272302 -0.0303327 -1.32961e-20)
(-0.680999 -0.221903 0)
(-1.14128 0.560971 -3.3368e-21)
(-0.761377 0.598009 9.78405e-21)
(-0.285542 -0.0340938 -1.08361e-20)
(-0.942198 0.305644 1.05612e-21)
(-0.963449 0.585449 3.14555e-21)
(-0.0120264 -0.0704427 -1.97467e-20)
(-0.77204 -0.185693 0)
(-0.545016 0.325795 -4.52805e-21)
(-0.777104 0.364381 -1.711e-20)
(-0.454954 0.144463 2.29646e-20)
(-1.13922 0.512836 5.86754e-21)
(-1.11266 0.481417 -4.04158e-24)
(-0.453975 -0.0290957 -1.59827e-20)
(-0.427393 -0.0315458 0)
(-0.41938 0.331693 7.84893e-21)
(-0.362096 0.281328 -8.16434e-21)
(-0.079813 -0.0603157 -1.99028e-20)
(-1.18721 0.826021 6.49962e-21)
(-0.791228 0.0144181 -1.5108e-20)
(-1.06762 0.687661 0)
(-0.677024 0.114279 0)
(-0.196623 0.0439841 -1.88391e-20)
(-1.26597 0.478211 -2.72052e-21)
(-0.457251 -0.137805 0)
(-0.376105 0.345422 0)
(-1.22286 0.709463 -5.9887e-21)
(-0.647851 -0.0143726 0)
(-0.129514 0.0416318 8.81698e-21)
(-0.626575 0.322809 4.69763e-21)
(-0.585684 0.262333 6.86946e-21)
(-0.536252 0.259575 -2.34752e-21)
(-1.18805 0.481045 -9.80284e-21)
(-0.434623 -0.0806409 0)
(-0.403936 0.345579 -1.36075e-20)
(-1.06986 0.709309 0)
(-0.701819 0.118428 1.0355e-20)
(-0.184381 0.0242379 -1.21984e-20)
(-1.05194 0.582987 0)
(-1.08928 0.601951 2.02527e-21)
(-0.771197 0.615946 3.52395e-21)
(-0.280997 -0.0495332 3.14326e-20)
(-0.96235 0.305655 -2.54444e-20)
(-1.2136 0.505958 -9.81256e-21)
(-0.456663 -0.0861057 1.40249e-20)
(-0.353668 0.300563 1.24107e-20)
(-1.23767 0.703677 0)
(-0.120671 0.0429061 -3.10961e-20)
(-0.648518 -0.0353093 -8.94311e-21)
(-0.681976 0.51438 -2.55191e-20)
(-0.317914 -0.00954209 0)
(-0.93753 0.342659 8.03823e-21)
(-0.521449 0.470511 -1.56539e-20)
(-1.18323 0.418228 -7.99099e-21)
(-0.387801 -0.114461 0)
(-1.14932 0.765148 -6.17165e-21)
(-0.718507 0.0742401 -9.1786e-21)
(-0.135977 -0.00716739 5.57958e-21)
(-0.719265 0.595466 1.28483e-21)
(-0.304426 -0.0690793 0)
(-1.02492 0.336036 1.74451e-20)
(-1.17192 0.779277 0)
(-1.18755 0.77011 0)
(-0.724107 0.0569012 -6.01504e-21)
(-0.123825 -0.0135927 -1.44768e-20)
(-0.708024 0.0331147 8.51003e-21)
(-0.117713 -0.00438016 1.54033e-20)
(-0.0730875 0.0205677 -1.17401e-20)
(-0.666569 -0.153381 0)
(-1.24973 0.626313 -5.80729e-21)
(-1.14256 0.722427 7.13482e-21)
(-0.667816 0.0614591 0)
(-0.156598 0.0306344 4.92082e-21)
(-0.6832 -0.242468 1.54577e-20)
(-0.00490696 -0.0694433 1.71633e-20)
(-0.890785 0.502371 6.76691e-21)
(-0.876778 0.390189 -7.84591e-21)
(-0.544511 0.359017 0)
(-0.409327 0.0804078 0)
(-1.14185 0.568354 1.34866e-20)
(-0.506935 0.000575264 0)
(-0.288891 0.199597 2.70615e-20)
(-0.112836 0.0550378 -9.62562e-21)
(-1.26993 0.654752 1.75658e-20)
(-0.634884 -0.100577 1.27846e-20)
(-0.346386 -0.0987987 0)
(-1.11949 0.375675 7.28007e-21)
(-0.611538 0.542615 -1.88778e-20)
(-0.493743 -0.173325 -3.02494e-20)
(-1.31441 0.482896 -6.10435e-21)
(-0.300657 0.290626 0)
(-0.532496 0.0869837 -2.07262e-20)
(-0.320357 0.185881 0)
(-1.15604 0.62469 1.44799e-20)
(-0.560175 0.0165041 7.6376e-21)
(-0.226227 0.129871 8.28614e-21)
(-0.507652 0.0708255 1.22038e-20)
(-0.341904 0.20971 7.72205e-23)
(-1.20143 0.76285 -4.12139e-22)
(-0.0605877 -0.0419409 1.16537e-20)
(-0.757991 -0.047806 -9.17198e-21)
(-0.300305 -0.124296 0)
(-1.08951 0.316647 1.81958e-21)
(-0.760488 0.673591 0)
(-1.18301 0.635753 -1.47692e-20)
(-0.570029 -9.43015e-05 -9.33e-21)
(-0.209051 0.124662 -1.01576e-20)
(-1.05467 0.494611 0)
(-0.44462 0.0135901 -1.245e-20)
(-0.404114 0.2907 0)
(-1.04285 0.392686 0)
(-0.349744 -0.0434486 0)
(-0.59212 0.473779 0)
(-0.882737 0.506165 -6.04469e-21)
(-0.581618 0.161572 -1.13078e-20)
(-0.347885 0.17086 7.21995e-23)
(-0.567039 0.509429 1.94601e-20)
(-1.16206 0.39731 1.92286e-20)
(-0.370507 -0.112181 1.35548e-20)
(-1.28566 0.606369 -7.30191e-21)
(-0.620034 -0.144364 1.45897e-20)
(-0.113378 0.0721808 -1.41866e-20)
(-0.503356 -0.159668 2.04318e-20)
(-1.30809 0.503599 6.18273e-21)
(-0.279404 0.265045 1.03541e-20)
(-1.01231 0.803385 -1.35748e-20)
(-0.191533 -0.0779738 1.66283e-20)
(-0.894314 0.192033 -1.26157e-20)
(-1.18505 0.813813 3.5443e-21)
(-1.17283 0.809845 -3.31953e-21)
(-0.756763 0.0599415 -1.91655e-21)
(-0.762932 0.0454224 0)
(-0.103087 -0.0427776 -5.34651e-21)
(-0.114177 -0.0378539 -4.69593e-21)
(-0.0073087 -0.0698307 -2.32361e-20)
(-0.714257 -0.224855 -1.70274e-20)
(-0.917468 0.52206 2.0586e-21)
(-0.994682 0.609908 -2.14149e-22)
(-0.0148147 -0.0695207 2.73204e-20)
(-0.78471 -0.172782 0)
(-1.17593 0.527185 -2.19906e-20)
(-0.471545 -0.0434937 -3.62142e-21)
(-0.341244 0.268282 0)
(-0.0850866 0.0289565 -2.91318e-20)
(-1.25933 0.642267 5.77752e-21)
(-0.661389 -0.129417 0)
(-1.09363 0.799827 1.86534e-20)
(-1.12258 0.801399 -1.39321e-20)
(-0.797093 0.126872 9.72273e-21)
(-0.775639 0.105772 3.75351e-21)
(-0.155478 -0.0439741 -9.32394e-21)
(-0.141785 -0.0371192 -4.66436e-21)
(-0.0962072 0.0709769 0)
(-0.596781 -0.218335 0)
(-1.27553 0.514189 2.07757e-21)
(-0.891624 0.563606 -3.69193e-21)
(-0.0106951 -0.0736901 0)
(-0.771764 -0.185786 0)
(-0.680166 0.296177 -1.04073e-22)
(-0.633936 0.366887 9.95924e-21)
(-0.44665 0.17739 5.07582e-21)
(-0.975256 0.556683 -6.13269e-21)
(-0.737657 -0.213902 7.75584e-21)
(-0.010717 -0.0660988 1.27679e-21)
(-0.945556 0.68776 0)
(-0.814394 0.208056 -1.60585e-20)
(-0.219214 -0.0139595 -3.36598e-24)
(-1.25486 0.590801 1.408e-22)
(-0.644545 -0.177503 2.11353e-20)
(-0.0818975 0.0388103 1.78114e-23)
(-0.59843 -0.271255 4.6686e-22)
(0.000368279 -0.0666316 -9.82966e-21)
(-0.841565 0.411172 -2.36566e-21)
(-0.721359 0.510408 -9.26681e-21)
(-0.316305 0.0394455 9.39397e-21)
(-0.84204 0.306528 2.56877e-20)
(-0.829809 0.397887 0)
(-0.45905 0.125667 -2.54801e-20)
(-0.506024 0.310615 1.27738e-20)
(-1.13869 0.655748 0)
(-0.0299302 -0.0452407 1.36767e-20)
(-0.752356 -0.153183 1.16394e-23)
(-0.864115 0.409571 0)
(-0.440032 0.104674 -9.02091e-21)
(-0.499896 0.323246 -1.80458e-20)
(-0.657673 0.29634 1.03103e-20)
(-0.617052 0.344161 -5.28385e-21)
(-0.477385 0.202439 2.67234e-21)
(-0.639722 0.58632 9.28069e-21)
(-1.16532 0.362262 -6.86582e-21)
(-0.350028 -0.137054 1.49625e-20)
(-0.799212 0.340254 0)
(-0.392006 0.101488 0)
(-0.609367 0.40556 1.46913e-21)
(-0.855527 0.375654 1.24282e-20)
(-0.396329 0.0859951 6.93412e-21)
(-0.582945 0.391137 2.09656e-22)
(-0.973551 0.784103 2.06797e-20)
(-0.923408 0.210749 -1.22837e-20)
(-0.20852 -0.085097 -1.64084e-20)
(-0.0499152 -0.0248517 2.07137e-20)
(-0.050037 -0.0190571 -2.09353e-20)
(-0.732653 -0.114904 6.28065e-21)
(-0.718405 -0.130288 4.35253e-21)
(-1.20264 0.692945 0)
(-1.20859 0.679329 -4.79215e-21)
(-1.28483 0.590745 9.093e-21)
(-0.624022 -0.159742 -1.31301e-20)
(-0.104273 0.0694313 1.75565e-20)
(-0.180217 -0.0907168 -1.06293e-20)
(-1.04041 0.837893 4.14174e-21)
(-0.900297 0.179513 1.60807e-20)
(-0.792438 0.600562 -8.93708e-21)
(-0.274204 -0.0172555 -9.85703e-21)
(-0.898057 0.284866 8.04216e-21)
(-1.25092 0.429666 0)
(-0.4209 -0.145114 9.90132e-21)
(-0.463078 0.431237 3.02009e-22)
(-0.610128 -0.27279 7.64075e-21)
(-0.00952664 -0.0499506 -9.08598e-21)
(-1.01039 0.446046 -2.40455e-21)
(-0.16612 0.153743 0)
(-1.31608 0.513457 0)
(-0.561862 -0.199987 8.81881e-21)
(-1.1198 0.598854 3.74576e-21)
(-0.0254743 -0.0418736 0)
(-0.724894 -0.193255 -7.70113e-21)
(0.00155254 -0.0666652 -3.64945e-32)
(-0.576207 -0.265927 -7.25556e-21)
(-0.769811 0.389036 2.29276e-21)
(-0.625918 -0.225804 8.12511e-21)
(-0.00294569 -0.0684902 3.64072e-32)
(-0.743729 0.441342 -2.04982e-21)
(-0.510548 -0.0790125 -1.9361e-20)
(-1.24359 0.559575 0)
(-0.272893 0.217389 -2.67962e-20)
(-0.60951 -0.244569 -4.08721e-21)
(-0.0508559 0.0118066 -9.25402e-21)
(-1.20088 0.490042 0)
(-1.26051 0.650728 -8.92477e-21)
(-0.604285 -0.0737665 1.10861e-20)
(-0.150795 0.0908696 1.40541e-20)
(-1.12813 0.738129 1.25977e-20)
(-0.0368062 -0.0661976 8.43379e-21)
(-0.812532 -0.0805993 0)
(-0.963944 0.53633 4.64328e-21)
(-0.325991 0.177093 -5.23121e-21)
(-0.548852 0.110388 4.98831e-21)
(-0.587194 -0.212999 4.56388e-21)
(-0.11702 0.0967754 9.78342e-21)
(-1.29005 0.514272 2.46388e-21)
(-1.2277 0.416011 -7.69508e-21)
(-0.502047 0.466375 -5.35384e-21)
(-0.404074 -0.138113 0)
(-0.47109 -0.129976 0)
(-1.26705 0.496123 0)
(-0.338798 0.31049 0)
(0.000173514 -0.0442885 0)
(-0.377514 -0.162194 -6.13355e-21)
(-0.432312 0.22473 1.17822e-21)
(-0.662789 -0.258427 7.67619e-21)
(-0.00378902 -0.0669381 -1.18871e-20)
(-0.914446 0.486686 -3.04356e-21)
(-0.919278 0.507433 -1.18773e-20)
(-0.353335 0.191052 1.23411e-20)
(-0.546487 0.128538 5.74453e-21)
(-0.623494 -0.204111 1.88622e-20)
(-1.26061 0.549778 -4.31966e-21)
(-0.0779365 0.0448842 0)
(-0.0858247 0.0606235 -1.02597e-20)
(-1.26375 0.498809 0)
(-0.592216 -0.233187 -1.40762e-20)
(-1.24935 0.673626 -5.32157e-21)
(-0.0741942 0.0118211 3.13295e-20)
(-0.680701 -0.112872 0)
(-0.0755173 -0.0408778 -2.39828e-20)
(-0.757249 -0.0107479 9.55306e-21)
(-1.20337 0.793378 0)
(-0.946462 0.793868 -2.61998e-20)
(-0.967271 0.228095 1.56371e-20)
(-0.22555 -0.103022 -5.21893e-21)
(-0.783197 0.0846464 2.85128e-21)
(-1.14835 0.827489 7.94727e-21)
(-0.126158 -0.0495649 -1.47022e-20)
(-0.0611823 -0.0618763 -2.15468e-20)
(-1.18009 0.800545 0)
(-0.795755 -0.023683 0)
(-0.986961 0.675196 -4.19444e-21)
(-1.02957 0.704259 0)
(-0.737546 0.17221 -1.6755e-20)
(-0.734783 0.151837 1.79202e-20)
(-0.21415 0.0234537 2.48616e-21)
(-0.194899 0.013051 -2.65045e-21)
(-0.946703 0.66769 4.02195e-21)
(-0.775385 0.198923 0)
(-0.225751 0.0103555 4.79294e-21)
(-1.0783 0.816111 0)
(-0.828098 0.141812 -1.57018e-20)
(-0.16091 -0.0587782 3.36492e-21)
(-0.494587 -0.144446 -1.01162e-20)
(-1.29408 0.507044 6.48853e-21)
(-0.292429 0.268667 -2.12945e-20)
(-0.609478 -0.17951 0)
(-1.28425 0.570528 1.3361e-20)
(-0.108256 0.0796502 0)
(-0.235436 0.205364 -6.9222e-21)
(-1.29562 0.542404 -3.92384e-21)
(-0.529073 -0.136832 -6.62675e-21)
(-0.665756 -0.221924 -1.11878e-21)
(-0.00426919 -0.0705544 6.3759e-21)
(-0.788259 0.474796 0)
(-0.805008 0.543165 8.34807e-21)
(-0.817211 0.53427 0)
(-0.2992 0.0661678 0)
(-0.755582 0.253961 3.17047e-20)
(-0.307901 0.0882073 0)
(-0.717056 0.233914 -2.01112e-20)
(-1.02173 0.774338 0)
(-0.974068 0.742959 0)
(-0.203965 -0.0445334 3.83022e-23)
(-0.838524 0.177943 9.70187e-21)
(-0.187595 -0.047264 2.46459e-20)
(-0.852384 0.197884 -2.04219e-20)
(-0.571358 -0.280218 0)
(0.000852015 -0.0635982 1.33122e-20)
(-0.877476 0.400947 0)
(-0.626204 -0.194274 -1.10925e-20)
(-1.26936 0.566184 1.38404e-21)
(-0.0829651 0.046873 6.22054e-21)
(-0.816988 0.650289 -1.5281e-20)
(-0.266377 -0.0607102 -1.13419e-20)
(-0.959126 0.285816 2.64812e-20)
(-0.457945 -0.159557 2.18343e-20)
(-1.28925 0.457955 1.72312e-20)
(-0.378397 0.363642 0)
(-0.0825993 -0.0439899 2.5647e-20)
(-0.761684 0.00485333 -1.01635e-20)
(-1.1996 0.804415 8.16768e-21)
(-0.686375 -0.241533 0)
(-1.04421 0.530157 0)
(-0.0122475 -0.0537899 0)
(-0.675218 -0.237078 0)
(-1.08549 0.529414 3.29015e-21)
(-0.019447 -0.0414076 2.26329e-21)
(-1.12465 0.780994 -7.72973e-21)
(-0.744283 0.0948669 5.71173e-21)
(-0.143536 -0.0189022 6.90416e-21)
(-0.651727 0.484658 -2.44283e-21)
(-0.334628 0.00646281 0)
(-0.931594 0.358254 -1.59338e-22)
(-1.22997 0.666025 6.20072e-21)
(-0.0623201 -0.00215167 1.82643e-20)
(-0.698385 -0.125355 -5.07035e-21)
(-0.510893 -0.0999782 0)
(-1.26085 0.551965 0)
(-0.267172 0.228262 2.30783e-20)
(-0.0999739 0.0204904 5.93006e-21)
(-0.672783 -0.048476 1.53307e-20)
(-1.23841 0.718452 1.7983e-20)
(-0.944028 0.734019 0)
(-0.216492 -0.053118 -1.64667e-20)
(-0.881808 0.217075 1.03929e-20)
(-1.10691 0.44487 1.50047e-22)
(-0.393632 -0.048088 9.71551e-21)
(-0.490457 0.398452 0)
(-0.751616 0.557099 1.87555e-22)
(-0.292776 0.00018342 -3.21651e-21)
(-0.88834 0.301126 -1.05423e-20)
(-0.0609257 0.00234511 -2.17173e-23)
(-0.688653 -0.14998 1.20405e-20)
(-1.22682 0.636439 6.48731e-21)
(-1.21266 0.736894 -3.41973e-21)
(-0.676059 -0.00174919 -4.4905e-21)
(-0.117623 0.018655 0)
(-0.734951 0.504376 -9.0536e-21)
(-0.322588 0.0614028 2.01907e-20)
(-0.79899 0.29132 -1.69319e-20)
(-1.1603 0.786496 5.13238e-21)
(-0.0512303 -0.0672813 9.5975e-21)
(-0.808626 -0.0425729 -7.2832e-21)
(-0.922512 0.612825 -5.1053e-21)
(-0.711108 0.186652 0)
(-0.251023 0.0567572 0)
(-0.96159 0.455356 -2.18125e-20)
(-0.439852 0.0603239 5.61331e-21)
(-0.452279 0.307722 0)
(-0.47341 -0.106527 0)
(-1.24817 0.508499 1.4044e-20)
(-0.330179 0.293404 0)
(-1.05417 0.660525 -2.49609e-21)
(-0.0214179 -0.0674403 -2.94448e-21)
(-0.805011 -0.139066 8.47754e-21)
(-1.0654 0.685599 6.93738e-21)
(-0.0245212 -0.0690613 0)
(-0.815202 -0.118356 -8.04551e-21)
(-0.0912681 0.00346008 5.42006e-21)
(-0.692709 -0.039263 -9.14618e-21)
(-1.23058 0.735023 -1.65383e-20)
(-1.12783 0.425174 -6.85872e-21)
(-0.383259 -0.0743001 -9.71272e-21)
(-0.520124 0.43535 0)
(-0.016028 -0.072224 2.69666e-21)
(-0.807021 -0.156685 -7.924e-21)
(-0.986208 0.626207 0)
(-0.135823 0.0807531 0)
(-0.612932 -0.0941748 -9.37439e-21)
(-1.27029 0.641257 -2.05717e-21)
(0.00389924 -0.0621701 1.07066e-20)
(-0.497188 -0.26091 8.09934e-21)
(-0.678253 0.31751 0)
(-0.625659 0.400511 -2.47934e-21)
(-0.578974 -0.195484 0)
(-0.00416796 -0.0630936 1.0756e-20)
(-0.0644549 -0.0507354 3.45607e-23)
(-0.775075 -0.0277333 0)
(-1.19093 0.790469 0)
(-0.0417454 -0.0133909 0)
(-0.688707 -0.188059 0)
(-1.19327 0.601771 8.20559e-21)
(-1.21428 0.713144 -5.54797e-21)
(-1.22874 0.718458 4.48744e-21)
(-0.057587 -0.0242708 -1.03889e-20)
(-0.730956 -0.0871066 -2.05514e-21)
(-0.0678785 -0.0123818 -1.68623e-20)
(-0.71182 -0.0765601 3.68581e-21)
(-1.28042 0.620898 4.07291e-21)
(-0.595861 -0.106983 6.17242e-21)
(-0.149994 0.102202 0)
(-0.43661 0.424202 0)
(-0.434405 -0.164043 0)
(-1.27902 0.433351 0)
(-0.804938 0.492882 0)
(-0.34549 0.131935 -2.73715e-20)
(-0.661751 0.22111 1.11274e-20)
(-1.28362 0.578169 1.19489e-20)
(-0.552492 -0.115912 2.26036e-21)
(-0.201611 0.163456 2.04727e-20)
(-0.230786 0.193657 1.32504e-20)
(-1.28142 0.56194 -1.66297e-20)
(-0.533788 -0.117935 -3.13742e-21)
(-1.17831 0.828576 6.25253e-21)
(-0.0701739 -0.0688333 1.03222e-20)
(-0.807069 0.00134699 1.57755e-20)
(-1.03404 0.79393 0)
(-0.851661 0.173032 4.65689e-21)
(-0.180605 -0.0592635 -2.41573e-20)
(-0.980624 0.716838 0)
(-0.8163 0.193172 2.10977e-20)
(-0.20493 -0.0249351 1.83351e-23)
(-1.23245 0.598384 -1.63052e-20)
(-0.54288 -0.0586592 2.72468e-21)
(-0.227187 0.164481 -1.16899e-20)
(-1.24766 0.586705 0)
(-0.535485 -0.0758774 2.55308e-21)
(-0.233866 0.177169 1.07043e-20)
(-0.701448 0.46992 0)
(-0.347506 0.0833213 -3.18901e-20)
(-0.785075 0.300265 9.55123e-21)
(-1.03782 0.725514 0)
(-0.752928 0.147543 0)
(-0.184262 -0.00432765 3.60829e-21)
(-0.135835 0.123678 -2.11263e-20)
(-0.568793 -0.219126 -2.48736e-20)
(-1.30578 0.50115 0)
(-1.10062 0.506204 4.04943e-21)
(-0.0205569 -0.0354351 0)
(-0.644092 -0.252078 5.50304e-21)
(-1.07242 0.468839 -2.80671e-22)
(-0.0171882 -0.0382258 0)
(-0.622204 -0.262301 -1.58075e-20)
(-0.85713 0.619287 6.14412e-21)
(-0.256885 0.0115604 -3.4975e-21)
(-0.815512 0.243778 -1.49189e-22)
(-0.663009 -0.255412 2.03468e-22)
(-0.00697185 -0.0599054 1.8171e-20)
(-0.991631 0.494062 0)
(-1.22089 0.749442 1.44945e-20)
(-0.0996375 0.00162626 1.14403e-20)
(-0.696037 -0.0146127 0)
(-0.00507398 -0.0578792 -2.68618e-21)
(-0.620877 -0.272847 -8.61259e-21)
(-0.970966 0.449904 0)
(-0.818132 0.422182 1.5193e-20)
(-0.462394 0.262502 1.63149e-20)
(-0.507094 0.158053 8.63148e-23)
(-1.10482 0.631334 -2.5255e-21)
(-0.58368 0.0578769 -2.77029e-21)
(-0.231971 0.114763 -1.21916e-20)
(-0.361189 -0.0704126 2.20966e-20)
(-1.09671 0.402751 1.65871e-20)
(-0.570986 0.474642 0)
(-0.0625762 0.0269027 0)
(-0.612599 -0.232877 -5.11148e-21)
(-1.22896 0.510145 0)
(-0.49581 -0.111241 0)
(-1.26438 0.533808 0)
(-0.28983 0.253409 0)
(-0.045059 -0.0610257 0)
(-1.15848 0.757443 -4.52094e-21)
(-0.799263 -0.0636706 7.13837e-21)
(-1.14183 0.645846 0)
(-0.583322 0.033351 1.36987e-21)
(-0.216141 0.111366 1.19276e-20)
(-0.780465 0.469707 0)
(-0.371421 0.15204 2.34848e-20)
(-0.648102 0.225013 0)
(-0.634921 -0.216263 -1.78503e-20)
(-1.22445 0.543629 4.10884e-21)
(-0.0606759 0.0201401 0)
(-0.108907 0.0432723 -1.24461e-20)
(-0.646196 -0.0825752 5.97471e-22)
(-1.25601 0.677323 3.40641e-22)
(-1.08842 0.639496 0)
(-1.0578 0.621119 4.33401e-21)
(-0.0223633 -0.0569969 -6.7408e-21)
(-0.0186064 -0.060211 -8.29808e-21)
(-0.769982 -0.159731 -5.19846e-21)
(-0.766701 -0.174997 4.27407e-21)
(-1.10952 0.525563 0)
(-0.46412 -0.00678458 3.73167e-20)
(-0.357271 0.261734 1.27802e-20)
(-0.490824 -0.0636799 2.71634e-20)
(-1.21874 0.544496 0)
(-0.29601 0.237303 -1.40197e-20)
(-0.925331 0.470279 -1.23217e-20)
(-0.484806 0.0972284 9.60333e-21)
(-0.405506 0.253704 2.00223e-20)
(-0.640018 -0.243914 1.19488e-20)
(-1.15693 0.515609 4.62279e-21)
(-0.621192 -0.251003 -5.71517e-21)
(-0.0321822 -0.0171864 0)
(-1.16234 0.493387 -4.45717e-21)
(-0.036817 -0.0100288 0)
(-1.20629 0.67002 0)
(-0.598678 -0.0129124 0)
(-0.175131 0.0915947 1.32966e-20)
(-1.20866 0.554885 6.80321e-21)
(-1.17518 0.539536 -1.25708e-20)
(-0.653171 -0.214031 7.8418e-21)
(-0.656679 -0.227343 -1.96309e-20)
(-0.0475266 0.00214927 1.83001e-20)
(-0.0362298 -0.0138016 6.24826e-24)
(-1.19851 0.530538 0)
(-0.470316 -0.0659298 -2.49851e-20)
(-0.338431 0.279729 1.8256e-20)
(-1.06498 0.557651 1.11951e-20)
(-0.527976 0.040306 -1.66612e-20)
(-0.28334 0.174502 0)
(-1.11919 0.714494 0)
(-0.0314405 -0.0629313 0)
(-0.802928 -0.103294 7.7304e-21)
(-1.1152 0.546435 8.21112e-21)
(-0.48551 0.00553105 -1.03724e-20)
(-0.326821 0.229336 -2.13202e-20)
(-0.978062 0.50064 4.87309e-21)
(-0.49029 0.0758349 -1.12592e-20)
(-0.374704 0.234694 1.1685e-20)
(-1.08081 0.658654 0)
(-0.0239928 -0.0610546 0)
(-0.788843 -0.143482 -1.06479e-20)
(-1.14751 0.668018 0)
(-0.612149 0.0415153 2.95655e-21)
(-0.188188 0.0804318 -1.32807e-20)
(-0.390871 -0.148876 0)
(-1.22325 0.400254 0)
(-0.543021 0.512028 -6.86886e-22)
(-0.940331 0.749157 -6.71854e-22)
(-0.9116 0.225487 0)
(-0.218851 -0.0693499 2.56514e-20)
(-0.508878 -0.190076 1.18577e-20)
(-0.265603 0.263772 0)
(-1.3272 0.480862 0)
(2.67626e-05 -0.0567597 -2.57958e-20)
(-0.486776 -0.206607 8.59021e-21)
(-0.579391 0.309874 -1.64905e-21)
(-1.13233 0.593275 0)
(-0.531029 0.0221136 1.02372e-20)
(-0.265995 0.167826 -1.094e-20)
(-1.16951 0.71541 8.74866e-21)
(-0.0399416 -0.0457388 3.5216e-20)
(-0.767872 -0.0992116 0)
(-0.261828 -0.113647 -6.88554e-21)
(-1.03061 0.274352 -1.00032e-20)
(-0.855155 0.738645 -6.08632e-21)
(-0.770766 0.495356 0)
(-0.00663703 -0.0719653 -9.74103e-21)
(-0.708695 -0.203956 0)
(-0.569436 0.410919 1.21991e-20)
(-0.587475 0.438946 -1.24942e-20)
(-0.370765 0.029951 0)
(-0.937168 0.390571 1.06536e-20)
(-0.35715 0.00483746 -2.07197e-20)
(-0.968485 0.382904 -8.57998e-21)
(-0.912726 0.446343 1.15817e-20)
(-0.456356 0.0925199 1.26576e-20)
(-0.452044 0.292521 0)
(-0.670921 0.479852 1.06733e-20)
(-0.618574 0.441897 0)
(-0.333236 0.0340959 -1.14492e-20)
(-0.87579 0.33426 9.63063e-21)
(-0.356161 0.0458186 1.15341e-20)
(-0.883952 0.356619 9.83733e-23)
(-1.10224 0.583224 7.05794e-22)
(-0.505841 0.0442339 -7.22404e-21)
(-0.322014 0.206817 -1.44233e-20)
(-1.07015 0.542791 -1.91846e-20)
(-0.490251 0.0314647 1.91577e-22)
(-0.34091 0.228669 0)
(-0.0253218 -0.0241694 0)
(-0.60539 -0.265901 0)
(-1.11672 0.464704 4.31907e-21)
(-0.904148 0.634395 -5.65845e-21)
(-0.778666 0.21865 0)
(-0.244854 0.0211625 6.46424e-21)
(-1.21695 0.585948 -1.31957e-20)
(-0.666279 -0.194196 9.0009e-21)
(-0.0502519 0.00371544 -1.04538e-20)
(-1.23932 0.623968 0)
(-1.25679 0.62916 8.57649e-21)
(-0.56762 -0.0556293 -3.39409e-21)
(-0.581257 -0.0705734 1.08988e-20)
(-0.193125 0.131231 -1.46157e-20)
(-0.174614 0.117516 -1.3571e-20)
(-0.892186 0.606104 0)
(-0.745373 0.21123 0)
(-0.258636 0.0454511 3.03931e-21)
(-1.07354 0.773126 6.39319e-21)
(-0.783027 0.137919 0)
(-0.167014 -0.0295138 8.02312e-21)
(-1.19405 0.624344 -4.63008e-21)
(-0.554829 -0.0208962 0)
(-0.21625 0.142095 0)
(-0.68989 0.399528 1.19122e-20)
(-0.656132 0.263964 -5.97858e-21)
(-0.423033 0.176038 6.33627e-21)
(-1.26876 0.596241 0)
(-0.5561 -0.0941986 0)
(-0.20127 0.153837 -2.17655e-20)
(-0.775043 0.493187 0)
(-0.336603 0.108636 3.47647e-21)
(-0.708252 0.248895 0)
(-1.1937 0.558218 -1.07429e-20)
(-0.493202 -0.0468682 -1.39445e-20)
(-0.299993 0.230635 -1.8227e-21)
(-1.07544 0.749116 6.41675e-21)
(-0.751806 0.126365 0)
(-0.168351 -0.0112891 1.64713e-20)
(-0.71337 0.430451 -1.18176e-20)
(-0.691757 0.429006 -5.26769e-21)
(-0.676789 0.25875 5.82322e-21)
(-0.391908 0.15182 -1.24965e-20)
(-0.719542 0.280415 0)
(-0.382274 0.131098 -2.23616e-20)
(-0.653346 0.436914 -5.35003e-21)
(-0.363393 0.0798203 1.49085e-20)
(-0.620765 0.428334 3.44534e-21)
(-0.80946 0.323995 -1.3033e-20)
(-0.369732 0.0622997 -7.16179e-21)
(-0.860762 0.35448 3.39827e-22)
(-0.976365 0.651144 6.06477e-21)
(-1.01971 0.658393 0)
(-0.706278 0.16428 1.24148e-20)
(-0.676651 0.138945 -9.6886e-21)
(-0.226362 0.0459258 -1.43439e-20)
(-0.219604 0.0570688 2.3857e-20)
(-0.0801038 -0.0257656 0)
(-0.73272 -0.0180315 -5.62751e-21)
(-1.21377 0.77151 -8.35313e-21)
(-0.583493 0.535189 8.32857e-21)
(-1.18516 0.38733 1.08435e-20)
(-0.371752 -0.133616 -2.35349e-20)
(-0.0707518 -0.0271503 -1.19042e-20)
(-0.0744145 -0.0142955 9.47454e-21)
(-0.733584 -0.0419688 4.86419e-21)
(-0.713736 -0.05377 8.35572e-21)
(-1.21417 0.758697 2.11425e-20)
(-1.22653 0.740262 -1.09395e-20)
(-0.738895 0.627545 1.12811e-20)
(-0.299603 -0.0870179 -1.08753e-20)
(-1.04228 0.324978 2.57247e-21)
(-0.65859 0.350971 2.01996e-20)
(-0.492936 0.232937 0)
(-0.600267 0.257653 -2.0304e-20)
(-1.2701 0.61434 -4.04293e-21)
(-0.576651 -0.0915919 -1.2306e-20)
(-0.17641 0.126348 0)
(-0.838676 0.571782 0)
(-0.277086 0.0462566 -2.8972e-21)
(-0.766091 0.240756 -1.03101e-20)
(-1.09809 0.753358 0)
(-0.735877 0.110702 0)
(-0.159535 -0.00594816 -1.53484e-20)
(-1.19631 0.79813 -9.30523e-21)
(-1.2018 0.779921 0)
(-0.744576 0.0211461 2.94623e-21)
(-0.0962581 -0.0318676 -1.45851e-20)
(-0.723425 0.0174223 -8.04499e-21)
(-0.101748 -0.017271 1.97257e-20)
(-1.22823 0.658782 8.65662e-21)
(-0.596878 -0.0333514 1.14174e-20)
(-0.167034 0.0940747 7.96534e-21)