/*--------------------------------*- C++ -*----------------------------------*\
  =========                 |
  \\      /  F ield         | OpenFOAM: The Open Source CFD Toolbox
   \\    /   O peration     | Website:  https://openfoam.org
    \\  /    A nd           | Version:  6
     \\/     M anipulation  |
\*---------------------------------------------------------------------------*/
FoamFile
{
    version     2.0;
    format      ascii;
    class       volScalarField;
    location    "0";
    object      p;
}
// * * * * * * * * * * * * * * * * * * * * * * * * * * * * * * * * * * * * * //

dimensions      [0 2 -2 0 0 0 0];

internalField   nonuniform List<scalar> 
918
(
0.212059
0.988976
0.00587761
0.211243
0.00074223
0.957868
-0.832094
0.397336
0.189984
-0.131233
0.0233614
0.184276
0.807915
0.572035
-1.49314
0.0158406
0.350292
-0.667511
0.189269
0.00493993
0.472544
0.19652
0.199842
0.192107
0.243395
0.549532
0.681039
0.000780421
-0.00326911
-0.00129263
0.00277891
0.000680618
0.00669703
0.83092
0.877211
0.895879
0.160677
0.0321155
-0.69429
-0.762091
-0.756069
-0.840438
0.383743
0.38544
-0.506157
0.395049
0.405689
0.179121
0.189314
0.190065
0.191696
0.190487
0.191768
0.298673
-0.157716
-0.227491
-0.0740017
-0.0615758
0.0827389
0.0187559
0.00979058
0.0237041
0.0255226
0.119749
0.179284
0.173836
0.189088
0.199468
0.914472
0.886666
0.90943
0.833519
0.851342
0.782352
0.754816
0.593976
0.616535
0.554332
0.543941
-1.95994
-2.93194
-0.900281
-0.615941
0.00112654
0.0221783
0.0257208
0.333143
0.336452
0.344486
0.355309
0.799444
-0.633135
-0.802624
0.187917
0.186641
0.195219
0.196938
0.193211
0.192858
0.0118979
0.0208158
-0.000567108
0.00688826
0.00556308
0.445516
0.44082
0.191743
0.188816
0.207054
0.230452
0.220322
-0.0447222
0.26055
0.281243
0.373615
0.541659
0.535282
0.54562
0.655367
0.621226
0.713065
0.737171
0.00655809
0.00196348
0.0102941
0.00865637
0.00945841
0.157275
0.151663
0.168616
0.162546
0.164647
-0.0614309
-0.203542
0.107957
0.138297
-0.621415
-0.676601
-0.751601
-0.773251
-0.839904
0.168876
0.373366
0.377303
-0.519727
-0.441062
-0.580993
-0.378686
-0.443021
0.166387
0.175966
0.171123
0.185751
0.180558
0.18211
0.193025
0.190399
0.191932
0.328653
0.395249
0.250914
0.226331
-0.458482
-0.283122
-0.406593
-0.0302592
-0.017392
0.0926417
0.103586
0.0710979
0.0692065
0.00550646
0.0109964
0.00297404
0.0269273
0.0285658
0.114421
0.104465
0.127789
0.1346
0.170723
0.170215
0.173122
0.174294
0.703174
0.726064
0.733959
0.710586
-3.92834
-6.62397
-0.255049
-0.0916102
0.00302219
0.0027991
0.00178588
0.00308497
0.00295941
0.000467702
0.0415931
0.038823
0.0295584
0.0354523
0.321692
0.323255
0.807917
0.861715
0.716746
0.701412
0.175046
0.17847
0.184511
0.181098
0.0292713
0.0245592
0.0311973
0.406163
0.422682
0.422239
-0.0809498
-0.167477
0.00471849
0.0318402
0.314342
0.293467
0.319706
0.437291
0.476159
0.749629
0.774065
0.761661
0.778337
0.826794
0.847292
0.811309
0.140019
0.149774
0.144915
0.175539
0.17312
0.174106
0.169773
0.170773
0.169732
-0.335802
-0.703304
0.226489
0.224096
0.178378
0.191367
0.242609
0.373166
0.353081
0.363641
0.365443
-0.324494
-0.378515
0.192279
0.179278
0.0573678
0.089587
0.0730594
0.678905
0.641656
0.689406
0.665347
0.628458
0.652013
-0.633668
-2.41604
-1.36123
0.311148
0.107092
0.202957
0.0589929
0.0465544
0.0489324
0.860317
0.863582
0.447689
0.597129
0.554732
0.508313
0.539358
0.59368
0.521131
0.558419
0.595719
0.576486
0.149721
0.214871
0.1664
0.47846
0.557097
-0.199221
-0.264996
-0.302117
0.115855
0.148623
0.130066
0.77964
0.631235
0.723457
0.189752
0.189491
0.0115643
0.0185242
0.191888
0.191748
0.00685291
0.00893634
0.203817
-1.25851
-0.189656
0.182729
0.173607
0.188132
-0.110758
0.282271
0.0194048
0.0894715
0.0602697
0.178173
0.129919
0.0907227
0.00744402
0.0190068
0.0159538
-0.449429
0.186248
0.18424
0.18745
0.188892
0.189541
0.00954533
0.0104201
0.00773824
0.0132661
0.0105108
0.0102639
0.159327
0.168412
-0.486439
0.187859
0.189782
0.189435
0.184433
0.188099
0.186289
0.0151345
0.0112889
0.0100731
-0.0947471
0.0308359
0.425296
0.530547
0.35353
0.169227
-0.11465
0.343459
0.405827
0.313329
0.469315
0.354587
0.371648
-0.141062
-0.279535
-0.118217
-0.181307
0.180675
0.178387
0.170747
0.166859
0.182645
0.18108
0.185652
0.183875
0.186486
0.187368
-0.0648779
-0.0556181
-0.153771
-0.228748
0.314947
0.407852
0.214314
0.234446
0.142622
0.0254424
0.0253798
0.0192774
0.0144896
0.054493
0.0635608
0.0801355
0.072279
0.0503417
0.047591
0.052253
0.0567896
0.0623441
0.173379
0.173293
0.177005
0.185432
0.137211
0.140459
0.109097
0.127645
0.118333
0.0652679
0.0925323
0.0701553
0.0082746
0.0101972
0.00847476
0.0233659
0.0285359
0.014772
0.0134748
0.0127949
0.0105605
0.0114565
0.0200364
0.0233335
-0.490146
-0.570506
0.860585
0.671824
-0.312803
0.176753
0.180729
0.178658
0.182356
0.185092
0.185372
0.183444
0.182012
0.16902
0.172046
0.166882
0.167295
-0.455055
-0.599116
-0.385385
-0.456677
-0.148478
0.298718
0.0396159
-0.0182221
-0.0269607
0.185937
0.3882
0.342228
0.465102
0.456056
-0.711431
-0.28177
-0.629402
-0.083523
-0.142627
0.443969
0.492148
0.513412
0.465037
0.414313
-0.336608
0.181225
-0.367737
-0.344788
-0.17535
-0.240548
0.401021
0.339445
0.345809
0.360688
0.386085
0.341372
0.329145
0.323663
0.353338
0.360178
0.172302
-0.0496047
-0.099299
-0.137945
0.318884
0.20672
0.255177
0.175318
0.17342
0.176555
0.175964
0.163033
0.165027
0.16249
0.167683
0.169701
0.178665
0.179283
0.174665
0.176047
-0.0312632
-0.011566
-0.136638
-0.35869
-0.25729
-0.356409
-0.213671
0.0763392
0.0968429
-0.0150122
0.213002
-0.0545338
-0.371492
-0.260643
-0.437909
-0.0854851
-0.201955
0.101925
0.153215
0.169327
0.14139
0.203217
0.185025
0.0379569
0.0456124
0.0312906
0.0291036
0.0960155
0.115673
0.111611
0.0477147
0.0502317
0.0269347
0.0284804
0.0703288
0.0417573
0.0526376
0.066139
0.0220341
0.0244063
0.0282397
0.0397922
0.0387886
0.0419603
0.16798
0.17079
0.168305
0.182303
0.191408
0.20453
0.179523
0.155254
0.146207
0.150264
0.128961
0.132458
0.136911
0.143705
0.160884
0.166835
0.165546
0.166548
0.152292
0.154246
0.139892
0.145076
0.13134
0.114552
0.101033
0.0185372
0.0109593
0.0145007
0.0157395
0.0101172
0.0126819
0.0410692
0.0340746
0.0383196
0.0330105
0.0360551
0.0165404
0.0180517
-0.592651
-0.620706
-0.567424
-0.599586
-0.614947
0.782111
0.802728
0.642294
0.372896
0.382037
0.650984
0.764347
0.405803
0.482414
0.511446
0.0915119
0.461987
0.180485
0.180724
0.177781
0.177285
0.177766
-0.361938
-0.255607
-0.23669
-0.199567
-0.0186769
0.0852278
0.139262
-0.205979
-0.0398037
0.0273292
0.294037
0.305942
0.253812
0.275672
0.272435
0.11063
0.18461
0.224187
0.187363
0.233605
0.257553
0.212274
0.243624
0.188797
0.150799
0.150654
0.0942124
0.121355
0.104381
0.081365
0.169429
0.150853
0.159718
0.152457
0.170438
0.202739
0.196781
0.215448
0.233709
0.160258
0.118489
0.131889
0.158823
0.115034
0.127738
0.145556
-0.124791
-0.194191
-0.0853639
-0.454512
-0.301597
-0.282079
-0.318774
-0.388191
-0.0768415
-0.74402
-0.65785
-1.34216
0.130901
0.523457
0.3586
0.37155
0.382463
0.35863
0.363662
0.390767
0.398197
0.311799
0.329946
0.332853
0.281932
0.315672
0.329683
0.33175
0.145842
0.0791706
0.0678863
0.0212093
-0.113599
-0.0873508
0.105026
0.0429401
-0.0311777
-0.0330123
0.142982
0.0373825
0.0991582
0.137327
0.085418
0.0224311
0.228618
0.283148
0.277023
0.244674
0.161146
0.178343
0.194558
0.230456
0.260833
0.292463
0.167106
0.172849
0.175499
0.171482
0.167722
0.170816
0.171184
0.172432
0.173041
0.17472
0.173311
0.0132854
0.020165
0.000812902
0.00938578
-0.0113244
-0.0403048
0.0431841
-0.0413282
0.0332073
0.0279309
-0.00677165
-0.0114283
0.000299948
0.0175473
0.141686
0.160041
0.15646
0.108347
0.100455
0.343111
0.296015
0.233889
0.147051
0.215624
0.317286
0.0790525
0.0891921
0.0748854
0.0972338
0.0944201
0.0322972
0.0289588
0.0324727
0.0405061
0.036873
0.0318896
0.0268236
0.0260716
0.0286777
0.02838
0.0288864
0.154325
0.150059
0.151873
0.145376
0.144406
0.157438
0.160449
0.161597
0.166032
0.167537
0.159978
0.163971
0.167042
0.0272304
0.0218411
0.0236142
0.0233232
0.0240587
0.0208904
0.0212664
-0.597349
-0.765185
-0.767512
-0.662911
-0.578318
-0.621314
0.17738
0.00380113
0.16848
0.310495
0.200215
0.113555
0.149347
0.226212
-0.238763
0.0891688
-0.129419
0.636564
0.454601
0.60362
0.182325
-0.115363
0.028509
0.0598731
-0.0960725
-0.00928228
-0.000351957
-0.129587
-0.100729
-0.0629816
0.0255605
-0.030355
-0.0470835
-0.223862
-0.0120229
-0.012441
-0.0446498
0.103972
0.171126
0.0364795
-0.097565
-0.188503
0.275353
0.295007
0.310252
0.284998
0.304389
0.238693
0.227895
0.247074
0.255826
0.251044
-1.00397
-0.623215
-1.77683
-1.17801
-0.741919
0.147209
0.129777
0.364662
0.285867
0.361507
0.350175
0.301825
0.266691
0.278046
0.314659
0.0254396
0.129262
0.0916934
0.114864
0.0486658
-0.023183
0.24228
0.248615
0.274113
0.302471
0.271358
0.305165
0.164896
0.164821
0.165795
0.163541
0.158091
0.160341
0.0861122
0.0644239
0.0920751
0.0749371
0.051808
0.0513794
0.0326554
0.0295878
0.0262552
0.0273731
0.030851
0.03541
-0.209913
-0.379485
-0.578969
-0.588851
-0.372392
-0.484023
-0.472722
-0.44395
-0.299948
-0.301174
-0.0775222
0.360831
0.112494
0.350915
-0.0274923
0.228049
0.212964
0.188069
0.227829
0.0902862
0.179729
-0.32513
-0.525669
-0.556676
0.419063
0.379148
0.176665
-0.0741967
-0.200929
0.0914115
0.180256
0.14442
0.183835
0.233026
0.229279
-0.35044
-0.270632
-0.187519
0.0913963
-0.100416
-0.100493
-0.0899782
0.0274118
0.000468097
)
;

boundaryField
{
    wall-4
    {
        type            zeroGradient;
    }
    velocity-inlet-5
    {
        type            zeroGradient;
    }
    velocity-inlet-6
    {
        type            zeroGradient;
    }
    pressure-outlet-7
    {
        type            fixedValue;
        value           uniform 0;
    }
    wall-8
    {
        type            zeroGradient;
    }
    frontAndBackPlanes
    {
        type            empty;
    }
}

