/*--------------------------------*- C++ -*----------------------------------*\
  =========                 |
  \\      /  F ield         | OpenFOAM: The Open Source CFD Toolbox
   \\    /   O peration     | Website:  https://openfoam.org
    \\  /    A nd           | Version:  6
     \\/     M anipulation  |
\*---------------------------------------------------------------------------*/
FoamFile
{
    version     2.0;
    format      ascii;
    class       volScalarField;
    location    "0";
    object      p;
}
// * * * * * * * * * * * * * * * * * * * * * * * * * * * * * * * * * * * * * //

dimensions      [0 2 -2 0 0 0 0];

internalField   nonuniform List<scalar> 
9000
(
124.12
68.9471
53.6452
47.1797
43.8135
41.8876
40.6411
39.7391
39.0251
38.4171
37.8696
37.3557
36.8594
36.3709
35.8844
35.3969
34.9064
34.4124
33.9146
33.4132
32.9088
32.4017
31.8923
31.3814
30.8691
30.3561
29.8426
29.3291
28.8159
28.3032
27.7916
27.2812
26.7726
26.2661
25.7623
25.2617
24.7653
24.2738
23.7885
23.311
22.8434
22.3888
21.9514
21.5374
21.156
20.8193
20.533
20.2659
20.2565
19.1238
93.4715
65.4479
54.3287
48.3598
44.8521
42.6747
41.2148
40.1544
39.3261
38.6358
38.0286
37.4711
36.9428
36.4309
35.9273
35.4272
34.9277
34.4271
33.9247
33.4201
32.9134
32.4047
31.8944
31.3827
30.8701
30.3568
29.8432
29.3296
28.8162
28.3035
27.7916
27.281
26.7718
26.2647
25.7599
25.258
24.7595
24.2654
23.7763
23.2935
22.8184
22.3528
21.8989
21.4594
21.0366
20.6304
20.2279
19.7779
19.2654
17.6455
74.9115
61.5289
54.1898
48.9897
45.5772
43.2992
41.7065
40.5292
39.608
38.8465
38.1853
37.5871
37.0283
36.4934
35.9728
35.46
34.9511
34.4437
33.9363
33.4281
32.9189
32.4085
31.8969
31.3845
30.8713
30.3577
29.8438
29.33
28.8165
28.3035
27.7913
27.2802
26.7705
26.2624
25.7564
25.2528
24.752
24.2547
23.7612
23.2722
22.7885
22.3104
21.8381
21.3708
20.9046
20.4292
19.9168
19.295
18.4798
16.9654
64.8777
57.7608
52.9164
48.7549
45.7426
43.5769
41.9847
40.7712
39.8062
39.0037
38.3077
37.6811
37.0998
36.5473
36.013
35.4898
34.973
34.4596
33.9478
33.4364
32.9247
32.4126
31.8998
31.3865
30.8727
30.3586
29.8444
29.3303
28.8165
28.3031
27.7905
27.2789
26.7684
26.2594
25.752
25.2466
24.7434
24.2427
23.7447
23.2496
22.7573
22.2673
21.778
21.2861
20.7843
20.2575
19.6748
18.9695
18.0657
16.7368
58.2355
54.4112
51.2559
48.0818
45.5607
43.6106
42.0999
40.9062
39.9343
39.1152
38.4003
37.7559
37.1589
36.5934
36.0485
35.5168
34.9934
34.4749
33.9591
33.4447
32.9308
32.417
31.903
31.3887
30.8742
30.3596
29.845
29.3305
28.8162
28.3025
27.7894
27.2771
26.7658
26.2557
25.7469
25.2396
24.7339
24.2298
23.7274
23.2263
22.7258
22.2247
21.7203
21.2077
20.6782
20.1156
19.4919
18.7555
17.8504
16.6825
53.4666
51.5686
49.5815
47.2273
45.179
43.4797
42.0932
40.9551
40.0032
39.1864
38.4658
37.8125
37.2061
36.6318
36.0791
35.5409
35.012
34.4892
33.9699
33.4528
32.9368
32.4214
31.9062
31.391
30.8758
30.3606
29.8454
29.3305
28.8159
28.3016
27.788
27.275
26.7628
26.2515
25.7412
25.232
24.7238
24.2165
23.7097
23.203
22.6951
22.1841
21.6669
21.1379
20.588
20.0023
19.3576
18.6172
17.7442
16.7099
50.0124
49.2203
48.0226
46.3131
44.6835
43.2366
41.994
40.9337
40.0209
39.2213
38.5058
37.8517
37.2415
36.6622
36.1045
35.5615
35.0286
34.5022
33.9801
33.4606
32.9428
32.4258
31.9094
31.3933
30.8774
30.3615
29.8459
29.3304
28.8153
28.3005
27.7863
27.2725
26.7594
26.247
25.7352
25.2241
24.7135
24.2031
23.6924
23.1805
22.6661
22.1469
21.6195
21.0782
20.5147
19.9161
19.2646
18.5356
17.7077
16.7831
47.4707
47.2995
46.6262
45.4097
44.1347
42.9235
41.8292
40.8581
39.9966
39.2249
38.5233
37.8748
37.2655
36.6848
36.1246
35.5787
35.0428
34.5138
33.9893
33.4679
32.9484
32.4301
31.9126
31.3956
30.8789
30.3625
29.8462
29.3303
28.8146
28.2993
27.7844
27.2699
26.7559
26.2423
25.7291
25.2162
24.7034
24.1901
23.6759
23.1596
22.6398
22.114
21.5789
21.0293
20.4577
19.8541
19.2053
18.4961
17.7161
16.8803
45.5577
45.731
45.4047
44.5588
43.575
42.574
41.6223
40.7438
39.9403
39.2034
38.5218
37.8839
37.2795
36.7004
36.1397
35.5924
35.0548
34.5239
33.9976
33.4745
32.9536
32.4342
31.9157
31.3978
30.8804
30.3633
29.8465
29.33
28.8138
28.2979
27.7823
27.2671
26.7522
26.2375
25.723
25.2085
24.6936
24.1779
23.6606
23.1407
22.6165
22.0859
21.5455
20.9908
20.4158
19.8127
19.1725
18.4868
17.7522
16.9876
44.0883
44.4489
44.3522
43.7819
43.0327
42.2131
41.3926
40.6046
39.8611
39.1629
38.5052
37.8815
37.2849
36.7096
36.1503
35.603
35.0645
34.5324
34.0049
33.4805
32.9584
32.4379
31.9185
31.3998
30.8817
30.364
29.8467
29.3296
28.8129
28.2964
27.7802
27.2642
26.7485
26.2328
25.717
25.201
24.6844
24.1665
23.6468
23.124
22.5966
22.0626
21.519
20.9621
20.3871
19.7884
19.1602
18.4988
17.8049
17.0976
42.9407
43.3993
43.4546
43.0879
42.5251
41.8587
41.1551
40.4518
39.7674
39.109
38.4773
37.87
37.2833
36.7135
36.157
35.6107
35.0722
34.5395
34.0111
33.4858
32.9627
32.4413
31.9211
31.4017
30.8829
30.3646
29.8468
29.3292
28.8119
28.2949
27.778
27.2614
26.7448
26.2282
25.7114
25.1941
24.6759
24.1563
23.6346
23.1097
22.5802
22.0441
21.4992
20.9422
20.3697
19.7778
19.1633
18.5253
17.8671
17.2057
42.0328
42.5391
42.6952
42.4786
42.0625
41.5233
40.9214
40.295
39.6664
39.0471
38.4419
37.852
37.2764
36.7132
36.1604
35.6159
35.0781
34.5453
34.0163
33.4903
32.9665
32.4444
31.9234
31.4033
30.884
30.3651
29.8467
29.3286
28.8108
28.2933
27.7759
27.2585
26.7412
26.2238
25.706
25.1876
24.6682
24.1473
23.6242
23.0978
22.567
22.0301
21.4852
20.9298
20.3615
19.7779
19.1776
18.5614
17.9339
17.3097
41.3085
41.8349
42.0579
41.9519
41.6503
41.2154
40.7002
40.1418
39.5641
38.9817
38.4023
37.8299
37.2658
36.7098
36.1613
35.6192
35.0823
34.5498
34.0207
33.4942
32.9698
32.447
31.9254
31.4048
30.8848
30.3655
29.8466
29.328
28.8097
28.2916
27.7737
27.2558
26.7378
26.2197
25.7011
25.1818
24.6615
24.1396
23.6155
23.0883
22.557
22.0202
21.4764
20.9239
20.3609
19.7863
19.1998
18.6034
18.0022
17.4081
40.7291
41.261
41.5286
41.5038
41.291
40.9402
40.4977
39.998
39.4656
38.9167
38.3615
37.8059
37.253
36.7043
36.1603
35.6208
35.0853
34.5533
34.0242
33.4974
32.9726
32.4492
31.9271
31.4059
30.8855
30.3657
29.8463
29.3273
28.8085
28.29
27.7715
27.2531
26.7346
26.2158
25.6966
25.1766
24.6556
24.133
23.6084
23.0809
22.5498
22.0139
21.472
20.9231
20.3661
19.8007
19.2273
18.6487
18.0697
17.5004
40.2676
40.7979
41.0952
41.1298
40.9852
40.7014
40.3184
39.8682
39.3748
38.8555
38.322
37.7817
37.2394
36.6977
36.1582
35.6213
35.0873
34.5559
34.0269
33.5
32.9748
32.4511
31.9285
31.4069
30.886
30.3657
29.8459
29.3265
28.8073
28.2883
27.7694
27.2505
26.7315
26.2122
25.6925
25.172
24.6505
24.1276
23.6028
23.0755
22.545
22.0105
21.4712
20.9264
20.3757
19.8192
19.2581
18.6951
18.135
17.5861
39.905
40.4307
40.7477
40.8254
40.7325
40.501
40.1656
39.7558
39.295
38.8008
38.2859
37.7591
37.2262
36.6909
36.1554
35.621
35.0884
34.5577
34.029
33.502
32.9766
32.4525
31.9295
31.4075
30.8862
30.3656
29.8454
29.3256
28.806
28.2867
27.7674
27.2481
26.7286
26.2089
25.6888
25.168
24.6462
24.1232
23.5986
23.0718
22.5423
22.0096
21.4733
20.9329
20.3884
19.8404
19.2904
18.7412
18.1972
17.6651
39.628
40.1484
40.4785
40.5869
40.5319
40.3399
40.0413
39.6633
39.2284
38.7546
38.255
37.7394
37.2144
36.6844
36.1525
35.6204
35.089
34.559
34.0305
33.5034
32.9778
32.4535
31.9302
31.4079
30.8863
30.3653
29.8447
29.3246
28.8047
28.285
27.7654
27.2457
26.7259
26.2059
25.6855
25.1645
24.6426
24.1197
23.5954
23.0694
22.5412
22.0107
21.4774
20.9414
20.403
19.863
19.323
18.7859
18.2554
17.7373
39.4273
39.9431
40.2814
40.4109
40.3826
40.2189
39.9471
39.5925
39.1771
38.7186
38.2307
37.7237
37.2048
36.6791
36.1499
35.6196
35.0892
34.5597
34.0314
33.5044
32.9787
32.4541
31.9306
31.4079
30.8861
30.3648
29.844
29.3235
28.8033
28.2833
27.7634
27.2435
26.7234
26.2031
25.6825
25.1614
24.6396
24.1169
23.5932
23.0681
22.5414
22.0131
21.483
20.9513
20.4186
19.8859
19.3549
18.8282
18.3092
17.8027
39.2967
39.8091
40.1523
40.2949
40.2836
40.1382
39.8838
39.5447
39.1421
38.6939
38.214
37.7128
37.198
36.6752
36.148
35.6188
35.0892
34.5601
34.0319
33.5049
32.9791
32.4543
31.9306
31.4078
30.8856
30.3641
29.843
29.3223
28.8019
28.2816
27.7614
27.2413
26.721
26.2005
25.6798
25.1587
24.637
24.1147
23.5916
23.0675
22.5424
22.0164
21.4894
20.9618
20.4345
19.9084
19.3852
18.8675
18.3582
17.8614
39.2323
39.743
40.0885
40.2373
40.2343
40.0978
39.852
39.5205
39.1245
38.6814
38.2054
37.7071
37.1945
36.6732
36.1469
35.6184
35.0891
34.5602
34.032
33.505
32.979
32.4542
31.9303
31.4073
30.885
30.3632
29.842
29.3211
28.8004
28.2799
27.7595
27.2391
26.7187
26.1981
25.6773
25.1562
24.6347
24.1128
23.5904
23.0675
22.544
22.0201
21.496
20.9724
20.4498
19.9296
19.4133
18.9033
18.4022
17.9135
39.2323
39.7429
40.0885
40.2373
40.2343
40.0978
39.852
39.5205
39.1244
38.6814
38.2053
37.7071
37.1944
36.673
36.1468
35.6182
35.0889
34.5599
34.0317
33.5046
32.9786
32.4536
31.9297
31.4065
30.8841
30.3622
29.8408
29.3197
28.7988
28.2782
27.7576
27.237
26.7164
26.1957
25.6749
25.1539
24.6327
24.1112
23.5895
23.0676
22.5456
22.0238
21.5025
20.9824
20.4641
19.9491
19.4388
18.9353
18.4411
17.9591
39.2966
39.809
40.1523
40.2948
40.2836
40.1381
39.8837
39.5446
39.142
38.6938
38.2138
37.7126
37.1978
36.6749
36.1476
35.6183
35.0886
34.5594
34.031
33.5038
32.9777
32.4527
31.9287
31.4055
30.883
30.361
29.8394
29.3182
28.7972
28.2764
27.7556
27.2349
26.7142
26.1934
25.6726
25.1516
24.6306
24.1096
23.5886
23.0677
22.5471
22.0272
21.5084
20.9913
20.4769
19.9663
19.4611
18.9632
18.4746
17.9982
39.4271
39.943
40.2813
40.4108
40.3825
40.2188
39.947
39.5924
39.1769
38.7184
38.2305
37.7234
37.2044
36.6786
36.1493
35.6187
35.0882
34.5585
34.0299
33.5026
32.9764
32.4514
31.9274
31.4042
30.8816
30.3596
29.838
29.3166
28.7955
28.2745
27.7536
27.2328
26.7119
26.1911
25.6702
25.1494
24.6286
24.1079
23.5875
23.0675
22.5482
22.03
21.5133
20.999
20.4878
19.981
19.4801
18.9867
18.5029
18.0309
39.6277
40.1483
40.4783
40.5868
40.5318
40.3398
40.0412
39.6631
39.2282
38.7543
38.2547
37.739
37.2138
36.6837
36.1516
35.6193
35.0876
34.5573
34.0284
33.5009
32.9748
32.4498
31.9258
31.4026
30.8801
30.3581
29.8364
29.315
28.7938
28.2727
27.7516
27.2306
26.7097
26.1887
25.6678
25.147
24.6264
24.106
23.5861
23.0669
22.5486
22.0318
21.517
21.0049
20.4965
19.9929
19.4954
19.0058
18.5258
18.0574
39.9047
40.4305
40.7476
40.8253
40.7323
40.5008
40.1654
39.7556
39.2947
38.8005
38.2855
37.7586
37.2255
36.69
36.1543
35.6197
35.0867
34.5556
34.0263
33.4988
32.9727
32.4478
31.9239
31.4008
30.8784
30.3564
29.8347
29.3132
28.7919
28.2707
27.7496
27.2284
26.7073
26.1862
25.6653
25.1445
24.6239
24.1037
23.5842
23.0656
22.5482
22.0325
21.5192
21.009
20.5027
20.0016
19.507
19.0203
18.5433
18.0777
40.2672
40.7976
41.095
41.1296
40.985
40.7013
40.3182
39.8679
39.3745
38.8552
38.3215
37.7811
37.2386
36.6967
36.1569
35.6197
35.0852
34.5533
34.0237
33.4961
32.9701
32.4454
31.9217
31.3988
30.8765
30.3545
29.8329
29.3114
28.7901
28.2687
27.7474
27.2262
26.7049
26.1837
25.6626
25.1417
24.6211
24.1011
23.5818
23.0635
22.5467
22.0319
21.5197
21.0109
20.5063
20.0071
19.5146
19.0302
18.5554
18.0919
40.7287
41.2607
41.5284
41.5036
41.2908
40.9401
40.4975
39.9977
39.4653
38.9163
38.361
37.8051
37.2521
36.7032
36.1589
35.6189
35.083
34.5504
34.0206
33.493
32.9672
32.4427
31.9193
31.3966
30.8744
30.3526
29.831
29.3096
28.7881
28.2667
27.7453
27.2238
26.7024
26.181
25.6597
25.1386
24.6179
24.0978
23.5786
23.0606
22.5441
22.0299
21.5184
21.0105
20.5071
20.0093
19.5183
19.0355
18.5623
18.1002
41.3081
41.8346
42.0577
41.9517
41.6501
41.2152
40.7
40.1415
39.5638
38.9812
38.4018
37.8292
37.2648
36.7086
36.1597
35.6171
35.0797
34.5466
34.0167
33.4893
32.9638
32.4397
31.9166
31.3942
30.8723
30.3506
29.8291
29.3077
28.7862
28.2647
27.7431
27.2214
26.6998
26.1781
25.6565
25.1352
24.6143
24.0941
23.5747
23.0566
22.5403
22.0262
21.5151
21.0077
20.5051
20.0081
19.518
19.0362
18.5639
18.1026
42.0324
42.5388
42.6949
42.4784
42.0623
41.5231
40.9212
40.2947
39.666
39.0466
38.4413
37.8512
37.2754
36.7119
36.1587
35.6137
35.0753
34.5418
34.012
33.485
32.9599
32.4363
31.9137
31.3916
30.87
30.3485
29.8272
29.3057
28.7842
28.2626
27.7409
27.219
26.697
26.1751
25.6532
25.1315
24.6103
24.0897
23.57
23.0517
22.5351
22.021
21.5098
21.0026
20.5001
20.0034
19.5137
19.0322
18.5603
18.0993
42.9403
43.399
43.4543
43.0877
42.5249
41.8585
41.1549
40.4515
39.7671
39.1086
38.4767
37.8692
37.2823
36.7121
36.1552
35.6084
35.0693
34.5358
34.0065
33.4801
32.9557
32.4327
31.9106
31.389
30.8677
30.3465
29.8252
29.3039
28.7823
28.2606
27.7386
27.2165
26.6943
26.1719
25.6496
25.1275
24.6058
24.0847
23.5645
23.0457
22.5287
22.0141
21.5025
20.9949
20.4922
19.9953
19.5054
19.0237
18.5516
18.0904
44.0879
44.4486
44.352
43.7817
43.0325
42.2129
41.3924
40.6043
39.8608
39.1624
38.5046
37.8807
37.2839
36.7082
36.1485
35.6007
35.0615
34.5286
34.0001
33.4745
32.951
32.4288
31.9073
31.3863
30.8654
30.3444
29.8233
29.302
28.7805
28.2586
27.7365
27.214
26.6914
26.1687
25.6459
25.1232
24.6009
24.0791
23.5582
23.0386
22.5209
22.0055
21.4932
20.9848
20.4813
19.9837
19.4931
19.0107
18.5379
18.0758
45.5573
45.7307
45.4045
44.5586
43.5749
42.5738
41.6221
40.7436
39.94
39.203
38.5212
37.8831
37.2785
36.699
36.1379
35.5901
35.0518
34.52
33.9927
33.4684
32.946
32.4247
31.904
31.3835
30.8631
30.3424
29.8215
29.3003
28.7787
28.2567
27.7343
27.2116
26.6886
26.1653
25.6419
25.1186
24.5955
24.0729
23.5511
23.0306
22.5118
21.9953
21.4819
20.9723
20.4676
19.9688
19.4769
18.9933
18.5192
18.0559
47.4703
47.2992
46.626
45.4096
44.1345
42.9233
41.8291
40.8579
39.9964
39.2246
38.5228
37.8741
37.2646
36.6836
36.1229
35.5764
35.0399
34.51
33.9844
33.4617
32.9406
32.4204
31.9006
31.3808
30.8608
30.3406
29.8198
29.2987
28.777
28.2549
27.7323
27.2092
26.6857
26.1619
25.6379
25.1138
24.5898
24.0662
23.5433
23.0216
22.5014
21.9835
21.4686
20.9575
20.4511
19.9505
19.4569
18.9716
18.4956
18.0305
50.0121
49.2201
48.0224
46.313
44.6834
43.2365
41.9939
40.9336
40.0207
39.221
38.5054
37.8511
37.2406
36.661
36.1029
35.5594
35.0257
34.4985
33.9753
33.4545
32.935
32.4161
31.8972
31.3782
30.8588
30.3388
29.8184
29.2973
28.7756
28.2533
27.7304
27.2069
26.6829
26.1585
25.6338
25.1088
24.5838
24.0591
23.5349
23.0116
22.4899
21.9703
21.4535
20.9403
20.4318
19.9291
19.4332
18.9455
18.4673
17.9999
53.4663
51.5684
49.5813
47.2272
45.1789
43.4796
42.0931
40.955
40.0031
39.1863
38.4655
37.8121
37.2054
36.6308
36.0777
35.5389
35.0094
34.4857
33.9654
33.4469
32.9292
32.4117
31.894
31.3758
30.8569
30.3374
29.8171
29.2961
28.7743
28.2518
27.7287
27.2048
26.6803
26.1552
25.6296
25.1037
24.5776
24.0515
23.5259
23.001
22.4773
21.9556
21.4366
20.921
20.41
19.9045
19.4059
18.9154
18.4343
17.9641
58.2353
54.411
51.2558
48.0818
45.5606
43.6106
42.0999
40.9062
39.9343
39.1152
38.4001
37.7556
37.1584
36.5926
36.0473
35.5152
34.9911
34.4717
33.9548
33.4391
32.9235
32.4076
31.891
31.3736
30.8554
30.3362
29.8161
29.2952
28.7733
28.2507
27.7272
27.2029
26.6778
26.152
25.6256
25.0986
24.5712
24.0437
23.5164
22.9896
22.4638
21.9398
21.4181
20.8997
20.3856
19.877
19.3751
18.8812
18.3968
17.9232
64.8775
57.7607
52.9163
48.7549
45.7426
43.577
41.9848
40.7713
39.8063
39.0038
38.3077
37.681
37.0995
36.5468
36.0121
35.4885
34.971
34.4568
33.944
33.4312
32.9179
32.4037
31.8883
31.3718
30.8542
30.3354
29.8155
29.2946
28.7727
28.2498
27.726
27.2013
26.6756
26.149
25.6217
25.0936
24.5649
24.0358
23.5066
22.9777
22.4496
21.9228
21.3982
20.8765
20.359
19.8467
19.341
18.8432
18.3548
17.8774
74.9113
61.5288
54.1898
48.9897
45.5772
43.2993
41.7066
40.5294
39.6083
38.8467
38.1855
37.5872
37.0282
36.4932
35.9722
35.459
34.9496
34.4414
33.933
33.4236
32.9127
32.4002
31.8861
31.3705
30.8534
30.335
29.8153
29.2944
28.7724
28.2493
27.7252
27.2
26.6737
26.1464
25.618
25.0887
24.5586
24.0278
23.4966
22.9653
22.4345
21.9047
21.3767
20.8514
20.3298
19.8133
19.3031
18.8007
18.3078
17.8259
93.4714
65.4479
54.3287
48.3598
44.8522
42.675
41.2151
40.1547
39.3265
38.6362
38.029
37.4715
36.9431
36.431
35.9272
35.4268
34.9267
34.4255
33.9221
33.4163
32.9081
32.3974
31.8846
31.3698
30.8533
30.3351
29.8156
29.2948
28.7726
28.2493
27.7248
27.1991
26.6722
26.144
25.6146
25.084
24.5523
24.0196
23.4861
22.9522
22.4182
21.8849
21.353
20.8233
20.297
19.7754
19.2599
18.7521
18.2537
17.7663
124.12
68.947
53.6452
47.1798
43.8137
41.8879
40.6415
39.7396
39.0256
38.4177
37.8703
37.3564
36.86
36.3713
35.8847
35.3969
34.906
34.4113
33.9127
33.4103
32.9044
32.3954
31.8837
31.3696
30.8535
30.3357
29.8163
29.2954
28.7732
28.2497
27.7248
27.1986
26.6711
26.1422
25.6118
25.08
24.5468
24.0122
23.4766
22.9401
22.4032
21.8665
21.3306
20.7967
20.2657
19.7391
19.2184
18.7051
18.2012
17.7085
8.85715
10.96
11.0866
11.5066
11.7366
11.902
12.0016
12.0572
12.078
12.0718
12.0438
11.998
11.9373
11.8643
11.7807
11.6882
11.588
11.4812
11.3688
11.2515
11.1301
11.0052
10.8772
10.7466
10.6139
10.4793
10.3432
10.2058
10.0673
9.92803
9.78802
9.64744
9.50643
9.36508
9.22349
9.08171
8.93982
8.79785
8.65586
8.51387
8.37191
8.23
8.08815
7.94637
7.80467
7.66306
7.52154
7.3801
7.23875
7.09748
6.95629
6.81518
6.67414
6.53317
6.39225
6.2514
6.11059
5.96983
5.82912
5.68844
5.5478
5.40719
5.26661
5.12605
4.98551
4.84499
4.70448
4.56399
4.42351
4.28304
4.14258
4.00213
3.86168
3.72124
3.5808
3.44037
3.29994
3.15951
3.01908
2.87866
2.73823
2.59781
2.45739
2.31696
2.17654
2.03612
1.8957
1.75528
1.61486
1.47444
1.33401
1.19359
1.05317
0.91275
0.772329
0.631907
0.491486
0.351063
0.210648
0.0702054
11.4574
12.0583
11.7516
11.933
12.0372
12.1257
12.1751
12.1951
12.1892
12.1622
12.1175
12.058
11.986
11.9035
11.8119
11.7127
11.6068
11.4953
11.3789
11.2583
11.1342
11.007
10.8773
10.7453
10.6114
10.476
10.3393
10.2015
10.0628
9.92337
9.78333
9.64282
9.50193
9.36075
9.21936
9.07782
8.93618
8.79447
8.65274
8.51101
8.3693
8.22763
8.08601
7.94445
7.80295
7.66153
7.52018
7.3789
7.2377
7.09656
6.9555
6.81449
6.67354
6.53266
6.39182
6.25103
6.11028
5.96958
5.82891
5.68827
5.54766
5.40708
5.26652
5.12598
4.98545
4.84495
4.70445
4.56397
4.4235
4.28304
4.14258
4.00213
3.86169
3.72125
3.58081
3.44038
3.29995
3.15952
3.0191
2.87867
2.73825
2.59782
2.4574
2.31698
2.17655
2.03613
1.89571
1.75529
1.61486
1.47444
1.33402
1.1936
1.05318
0.912754
0.772332
0.63191
0.491488
0.351064
0.210645
0.0702109
12.8836
12.8567
12.3567
12.3517
12.3434
12.3569
12.3554
12.3384
12.3048
12.256
12.1939
12.1202
12.0365
11.9442
11.8444
11.7382
11.6265
11.5101
11.3896
11.2656
11.1387
11.0092
10.8776
10.7442
10.6092
10.473
10.3356
10.1974
10.0584
9.91877
9.77869
9.63822
9.49745
9.35643
9.21525
9.07393
8.93253
8.79108
8.6496
8.50812
8.36666
8.22523
8.08384
7.9425
7.80121
7.65998
7.5188
7.37769
7.23663
7.09563
6.95468
6.81378
6.67294
6.53213
6.39137
6.25065
6.10996
5.96931
5.82868
5.68809
5.54751
5.40696
5.26642
5.1259
4.9854
4.84491
4.70443
4.56395
4.42349
4.28303
4.14258
4.00214
3.8617
3.72126
3.58083
3.4404
3.29997
3.15954
3.01911
2.87869
2.73826
2.59784
2.45741
2.31699
2.17657
2.03614
1.89572
1.7553
1.61487
1.47445
1.33403
1.1936
1.05318
0.912759
0.772335
0.631912
0.491489
0.351065
0.210643
0.0702162
13.8607
13.4843
12.8943
12.7474
12.6444
12.5891
12.5382
12.4846
12.4229
12.3521
12.2722
12.184
12.0883
11.9859
11.8777
11.7644
11.6468
11.5254
11.4007
11.2733
11.1435
11.0117
10.8783
10.7433
10.6072
10.47
10.332
10.1933
10.054
9.91423
9.7741
9.63366
9.49298
9.35212
9.21113
9.07003
8.92887
8.78767
8.64645
8.50523
8.36401
8.22282
8.08166
7.94054
7.79945
7.65841
7.51741
7.37646
7.23555
7.09468
6.95385
6.81307
6.67232
6.5316
6.39092
6.25026
6.10964
5.96904
5.82846
5.6879
5.54736
5.40683
5.26632
5.12583
4.98534
4.84486
4.70439
4.56393
4.42348
4.28303
4.14259
4.00215
3.86171
3.72127
3.58084
3.44041
3.29998
3.15955
3.01913
2.8787
2.73828
2.59785
2.45743
2.317
2.17658
2.03615
1.89573
1.75531
1.61488
1.47446
1.33403
1.19361
1.05319
0.912763
0.772339
0.631915
0.49149
0.351066
0.21064
0.0702214
14.5714
13.9981
13.3666
13.1141
12.9339
12.8174
12.7206
12.6315
12.5422
12.4493
12.3516
12.2488
12.1409
12.0283
11.9116
11.7912
11.6675
11.5411
11.4122
11.2813
11.1486
11.0144
10.879
10.7426
10.6052
10.4671
10.3284
10.1893
10.0497
9.90973
9.76953
9.62911
9.48853
9.34782
9.20701
9.06613
8.92521
8.78426
8.64329
8.50231
8.36135
8.2204
8.07947
7.93856
7.79768
7.65683
7.516
7.37521
7.23445
7.09372
6.95301
6.81234
6.67169
6.53106
6.39046
6.24987
6.10931
5.96876
5.82823
5.68771
5.5472
5.40671
5.26622
5.12575
4.98528
4.84482
4.70436
4.56391
4.42347
4.28303
4.14259
4.00215
3.86172
3.72128
3.58085
3.44042
3.3
3.15957
3.01914
2.87872
2.73829
2.59787
2.45744
2.31702
2.17659
2.03617
1.89574
1.75532
1.61489
1.47447
1.33404
1.19362
1.05319
0.912767
0.772342
0.631917
0.491492
0.351067
0.210638
0.0702265
15.0943
14.4238
13.779
13.4498
13.208
13.0385
12.8997
12.7772
12.6611
12.5467
12.4314
12.3139
12.1938
12.0711
11.9458
11.8182
11.6885
11.557
11.4238
11.2894
11.1538
11.0172
10.8799
10.7419
10.6033
10.4643
10.325
10.1853
10.0454
9.90524
9.76497
9.62458
9.48408
9.34352
9.2029
9.06223
8.92154
8.78083
8.64012
8.49939
8.35867
8.21796
8.07726
7.93657
7.79589
7.65523
7.51459
7.37396
7.23335
7.09275
6.95217
6.8116
6.67105
6.53051
6.38999
6.24947
6.10897
5.96848
5.82799
5.68751
5.54704
5.40658
5.26612
5.12567
4.98522
4.84477
4.70433
4.56389
4.42345
4.28302
4.14259
4.00215
3.86172
3.7213
3.58087
3.44044
3.30001
3.15958
3.01916
2.87873
2.73831
2.59788
2.45745
2.31703
2.1766
2.03618
1.89575
1.75533
1.6149
1.47447
1.33405
1.19362
1.0532
0.912772
0.772346
0.63192
0.491493
0.351069
0.210636
0.0702313
15.4911
14.7813
14.1385
13.7549
13.4645
13.2499
13.0735
12.9201
12.7786
12.6433
12.5107
12.3788
12.2467
12.1139
11.9801
11.8452
11.7095
11.5729
11.4355
11.2975
11.159
11.0201
10.8808
10.7412
10.6015
10.4615
10.3215
10.1813
10.0411
9.90077
9.76043
9.62005
9.47964
9.33922
9.19878
9.05833
8.91787
8.77741
8.63694
8.49647
8.356
8.21552
8.07505
7.93458
7.79411
7.65364
7.51317
7.3727
7.23224
7.09178
6.95132
6.81087
6.67041
6.52997
6.38952
6.24907
6.10863
5.96819
5.82775
5.68732
5.54688
5.40645
5.26602
5.12559
4.98515
4.84473
4.7043
4.56387
4.42344
4.28301
4.14259
4.00216
3.86173
3.72131
3.58088
3.44045
3.30003
3.1596
3.01917
2.87875
2.73832
2.59789
2.45747
2.31704
2.17662
2.03619
1.89576
1.75534
1.61491
1.47448
1.33406
1.19363
1.0532
0.912776
0.772349
0.631923
0.491495
0.35107
0.210634
0.070236
15.8039
15.0858
14.4524
14.0309
13.7026
13.45
13.2405
13.0587
12.8934
12.7382
12.5888
12.443
12.299
12.1562
12.014
11.8721
11.7303
11.5886
11.4471
11.3056
11.1642
11.0228
10.8816
10.7406
10.5996
10.4587
10.318
10.1773
10.0368
9.89629
9.75587
9.61551
9.4752
9.33492
9.19467
9.05443
8.91421
8.77399
8.63377
8.49355
8.35332
8.21308
8.07284
7.93258
7.79232
7.65204
7.51175
7.37144
7.23113
7.09081
6.95047
6.81013
6.66978
6.52942
6.38905
6.24867
6.10829
5.96791
5.82752
5.68712
5.54672
5.40632
5.26591
5.1255
4.98509
4.84468
4.70426
4.56385
4.42343
4.28301
4.14259
4.00216
3.86174
3.72132
3.58089
3.44047
3.30004
3.15962
3.01919
2.87876
2.73834
2.59791
2.45748
2.31705
2.17663
2.0362
1.89577
1.75535
1.61492
1.47449
1.33406
1.19364
1.05321
0.912781
0.772353
0.631925
0.491497
0.351071
0.210632
0.0702404
16.0585
15.3485
14.7274
14.2801
13.9224
13.6382
13.3996
13.1921
13.0048
12.8307
12.6653
12.5059
12.3504
12.1978
12.0473
11.8984
11.7507
11.6041
11.4584
11.3134
11.1691
11.0255
10.8824
10.7398
10.5976
10.4559
10.3144
10.1733
10.0324
9.89179
9.75131
9.61097
9.47075
9.33062
9.19055
9.05053
8.91054
8.77057
8.6306
8.49063
8.35065
8.21065
8.07063
7.9306
7.79053
7.65044
7.51033
7.37019
7.23002
7.08984
6.94962
6.80939
6.66914
6.52887
6.38858
6.24827
6.10796
5.96762
5.82728
5.68693
5.54656
5.40619
5.26581
5.12542
4.98503
4.84463
4.70423
4.56382
4.42341
4.283
4.14259
4.00217
3.86175
3.72133
3.5809
3.44048
3.30006
3.15963
3.0192
2.87878
2.73835
2.59792
2.4575
2.31707
2.17664
2.03621
1.89578
1.75536
1.61493
1.4745
1.33407
1.19364
1.05321
0.912785
0.772356
0.631928
0.491498
0.351072
0.210631
0.0702445
16.2716
15.5772
14.9694
14.5047
14.1242
13.8138
13.55
13.3195
13.1118
12.9201
12.7395
12.567
12.4005
12.2384
12.0798
11.924
11.7706
11.6191
11.4693
11.3209
11.1738
11.0279
10.8829
10.7388
10.5955
10.4529
10.3108
10.1692
10.0281
9.88726
9.74672
9.60641
9.46629
9.32631
9.18643
9.04663
8.90688
8.76715
8.62744
8.48772
8.34798
8.20823
8.06844
7.92862
7.78876
7.64886
7.50892
7.36894
7.22893
7.08887
6.94878
6.80866
6.66851
6.52832
6.38811
6.24788
6.10762
5.96734
5.82705
5.68673
5.5464
5.40606
5.26571
5.12534
4.98497
4.84459
4.7042
4.5638
4.4234
4.28299
4.14259
4.00217
3.86176
3.72134
3.58092
3.44049
3.30007
3.15965
3.01922
2.87879
2.73837
2.59794
2.45751
2.31708
2.17665
2.03622
1.89579
1.75536
1.61494
1.47451
1.33408
1.19365
1.05322
0.91279
0.77236
0.631931
0.4915
0.351074
0.21063
0.0702483
16.4537
15.778
15.183
14.7069
14.309
13.9768
13.6913
13.4403
13.214
13.0058
12.8109
12.626
12.4488
12.2776
12.1112
11.9488
11.7897
11.6334
11.4796
11.328
11.1781
11.03
10.8832
10.7377
10.5933
10.4498
10.3071
10.1651
10.0236
9.88267
9.7421
9.60183
9.46182
9.322
9.18232
9.04274
8.90322
8.76375
8.62429
8.48482
8.34533
8.20581
8.06625
7.92665
7.78699
7.64728
7.50752
7.3677
7.22784
7.08792
6.94795
6.80794
6.66788
6.52779
6.38765
6.24749
6.10729
5.96707
5.82682
5.68654
5.54625
5.40594
5.26561
5.12526
4.98491
4.84454
4.70417
4.56378
4.42339
4.28299
4.14259
4.00218
3.86176
3.72135
3.58093
3.44051
3.30009
3.15966
3.01924
2.87881
2.73838
2.59795
2.45752
2.31709
2.17666
2.03623
1.8958
1.75537
1.61494
1.47451
1.33408
1.19365
1.05322
0.912794
0.772364
0.631934
0.491502
0.351075
0.210628
0.0702519
16.6121
15.9553
15.3722
14.889
14.4775
14.1275
13.8232
13.5539
13.3107
13.0874
12.8791
12.6825
12.4951
12.3151
12.1412
11.9724
11.8078
11.647
11.4893
11.3345
11.182
11.0317
10.8832
10.7363
10.5908
10.4465
10.3032
10.1608
10.0191
9.87803
9.73743
9.59722
9.45733
9.31767
9.1782
9.03885
8.89958
8.76036
8.62115
8.48194
8.3427
8.20342
8.06409
7.9247
7.78525
7.64573
7.50614
7.36648
7.22676
7.08698
6.94713
6.80722
6.66727
6.52726
6.3872
6.2471
6.10697
5.96679
5.82659
5.68636
5.5461
5.40581
5.26551
5.12519
4.98485
4.8445
4.70414
4.56376
4.42338
4.28299
4.14259
4.00218
3.86177
3.72136
3.58094
3.44052
3.3001
3.15968
3.01925
2.87882
2.7384
2.59797
2.45754
2.31711
2.17668
2.03625
1.89582
1.75538
1.61495
1.47452
1.33409
1.19366
1.05323
0.912799
0.772367
0.631936
0.491504
0.351076
0.210628
0.0702551
16.7516
16.1126
15.5403
15.0528
14.6309
14.266
13.9456
13.6601
13.4018
13.1645
12.9437
12.7361
12.5391
12.3507
12.1696
11.9946
11.8249
11.6596
11.4983
11.3403
11.1853
11.0329
10.8828
10.7346
10.5881
10.443
10.2992
10.1564
10.0145
9.87331
9.73271
9.59257
9.45282
9.31334
9.17408
9.03496
8.89595
8.75698
8.61804
8.47908
8.34009
8.20105
8.06195
7.92277
7.78352
7.64419
7.50478
7.36528
7.2257
7.08605
6.94632
6.80653
6.66666
6.52674
6.38676
6.24673
6.10665
5.96653
5.82637
5.68618
5.54595
5.4057
5.26542
5.12512
4.9848
4.84446
4.70411
4.56374
4.42337
4.28298
4.14259
4.00219
3.86178
3.72137
3.58096
3.44054
3.30012
3.15969
3.01927
2.87884
2.73841
2.59798
2.45755
2.31712
2.17669
2.03626
1.89583
1.75539
1.61496
1.47453
1.3341
1.19367
1.05323
0.912803
0.772371
0.631939
0.491506
0.351078
0.210627
0.070258
16.8753
16.2526
15.6898
15.2
14.7699
14.3928
14.0585
13.7588
13.4867
13.2367
13.0044
12.7864
12.5804
12.3841
12.1962
12.0154
11.8406
11.6712
11.5063
11.3454
11.188
11.0336
10.8819
10.7325
10.5851
10.4393
10.295
10.1519
10.0098
9.8685
9.72792
9.58789
9.44828
9.309
9.16996
9.03109
8.89233
8.75363
8.61494
8.47624
8.33751
8.19871
8.05983
7.92087
7.78182
7.64268
7.50344
7.3641
7.22467
7.08514
6.94553
6.80584
6.66608
6.52624
6.38633
6.24637
6.10635
5.96628
5.82616
5.686
5.54581
5.40558
5.26533
5.12505
4.98475
4.84442
4.70408
4.56373
4.42336
4.28298
4.14259
4.0022
3.86179
3.72139
3.58097
3.44055
3.30013
3.15971
3.01928
2.87886
2.73843
2.598
2.45756
2.31713
2.1767
2.03627
1.89584
1.7554
1.61497
1.47454
1.33411
1.19367
1.05324
0.912808
0.772375
0.631942
0.491508
0.351079
0.210627
0.0702606
16.9856
16.3773
15.8229
15.3319
14.8955
14.5083
14.162
13.8498
13.5654
13.3038
13.0608
12.8333
12.6188
12.4151
12.2208
12.0344
11.8549
11.6815
11.5133
11.3496
11.1899
11.0337
10.8806
10.73
10.5817
10.4353
10.2905
10.1471
10.0049
9.8636
9.72306
9.58315
9.44371
9.30464
9.16584
9.02722
8.88873
8.75029
8.61188
8.47344
8.33495
8.19639
8.05775
7.91901
7.78016
7.6412
7.50212
7.36294
7.22365
7.08426
6.94477
6.80518
6.6655
6.52575
6.38592
6.24602
6.10605
5.96603
5.82596
5.68584
5.54568
5.40548
5.26525
5.12498
4.9847
4.84439
4.70406
4.56372
4.42336
4.28298
4.1426
4.00221
3.86181
3.7214
3.58099
3.44057
3.30015
3.15973
3.0193
2.87887
2.73844
2.59801
2.45758
2.31715
2.17671
2.03628
1.89585
1.75541
1.61498
1.47455
1.33411
1.19368
1.05325
0.912812
0.772379
0.631945
0.49151
0.351081
0.210626
0.0702629
17.0841
16.4884
15.9413
15.4499
15.0085
14.6129
14.2564
13.9331
13.6377
13.3655
13.1128
12.8765
12.6541
12.4435
12.2431
12.0516
11.8677
11.6905
11.5191
11.3528
11.1911
11.0332
10.8786
10.727
10.5779
10.431
10.2858
10.1422
9.99987
9.85858
9.71813
9.57835
9.43911
9.30027
9.16172
9.02337
8.88514
8.74699
8.60884
8.47067
8.33243
8.19412
8.0557
7.91717
7.77852
7.63975
7.50084
7.36182
7.22267
7.0834
6.94402
6.80454
6.66495
6.52528
6.38552
6.24568
6.10577
5.9658
5.82576
5.68568
5.54555
5.40538
5.26517
5.12493
4.98466
4.84436
4.70404
4.56371
4.42335
4.28299
4.14261
4.00222
3.86182
3.72141
3.581
3.44059
3.30017
3.15974
3.01932
2.87889
2.73846
2.59803
2.45759
2.31716
2.17673
2.03629
1.89586
1.75542
1.61499
1.47455
1.33412
1.19369
1.05325
0.912817
0.772382
0.631948
0.491512
0.351083
0.210626
0.0702648
17.172
16.5871
16.0463
15.555
15.1097
14.707
14.3416
14.0087
13.7035
13.4218
13.1602
12.9158
12.6861
12.4691
12.2631
12.0667
11.8787
11.698
11.5237
11.355
11.1913
11.0318
10.8761
10.7235
10.5737
10.4263
10.2809
10.1371
9.99469
9.85343
9.7131
9.5735
9.43447
9.29588
9.15759
9.01952
8.88158
8.74371
8.60584
8.46793
8.32996
8.19188
8.0537
7.91538
7.77693
7.63834
7.4996
7.36072
7.22171
7.08257
6.9433
6.80392
6.66442
6.52483
6.38514
6.24536
6.1055
5.96558
5.82558
5.68553
5.54543
5.40529
5.2651
5.12487
4.98462
4.84433
4.70403
4.5637
4.42335
4.28299
4.14262
4.00223
3.86183
3.72143
3.58102
3.4406
3.30018
3.15976
3.01933
2.8789
2.73847
2.59804
2.45761
2.31717
2.17674
2.0363
1.89587
1.75543
1.615
1.47456
1.33413
1.19369
1.05326
0.912821
0.772386
0.631951
0.491515
0.351084