/*--------------------------------*- C++ -*----------------------------------*\
  =========                 |
  \\      /  F ield         | OpenFOAM: The Open Source CFD Toolbox
   \\    /   O peration     | Website:  https://openfoam.org
    \\  /    A nd           | Version:  6
     \\/     M anipulation  |
\*---------------------------------------------------------------------------*/
FoamFile
{
    version     2.0;
    format      ascii;
    class       volScalarField;
    location    "0";
    object      p;
}
// * * * * * * * * * * * * * * * * * * * * * * * * * * * * * * * * * * * * * //

dimensions      [0 2 -2 0 0 0 0];

internalField   nonuniform List<scalar> 
918
(
0.193382
0.997999
0.00450348
0.193403
0.00130025
0.966557
-0.838606
0.393762
0.171372
-0.126001
0.0270374
0.162081
0.819186
0.585088
-1.45648
0.0147389
0.342281
-0.649394
0.169616
0.00930741
0.490011
0.17778
0.181336
0.174
0.218931
0.57007
0.691818
-0.00133575
-0.00393586
-0.00132591
-0.000124983
0.00179716
0.0114949
0.839618
0.885897
0.904612
0.139218
0.091091
-0.713876
-0.78154
-0.736607
-0.845549
0.377645
0.37982
-0.52512
0.390651
0.400698
0.162802
0.171315
0.171947
0.17319
0.171677
0.173478
0.295385
-0.130126
-0.2123
-0.0883889
-0.0680593
0.0907503
0.0262488
0.0179442
0.0282479
0.0286915
0.101235
0.159377
0.156702
0.165066
0.17877
0.923464
0.895329
0.918092
0.843701
0.860543
0.793226
0.765437
0.604926
0.628001
0.570446
0.561418
-1.91137
-2.8713
-0.869762
-0.591852
0.000843339
0.0226924
0.0362022
0.322079
0.324711
0.335727
0.345469
0.784073
-0.592569
-0.751527
0.169376
0.167605
0.177038
0.179033
0.174609
0.175176
0.0161217
0.016755
0.00137339
0.00851156
0.00694773
0.454724
0.446928
0.173788
0.168698
0.18504
0.207352
0.193043
-0.0647204
0.240226
0.27181
0.381055
0.55736
0.553115
0.561525
0.665737
0.631611
0.724584
0.748571
0.00475813
0.0014185
0.0174713
0.0155904
0.0175938
0.140469
0.13338
0.150285
0.142151
0.146341
0.0126162
-0.144144
0.15723
0.108721
-0.634889
-0.693324
-0.656852
-0.715975
-0.812669
0.324539
0.366076
0.369551
-0.539856
-0.443641
-0.599765
-0.408512
-0.465537
0.146228
0.155017
0.148952
0.164188
0.162871
0.162216
0.174842
0.17249
0.17404
0.32732
0.405254
0.251811
0.227836
-0.410858
-0.257792
-0.379854
-0.0222011
-0.0158845
0.0990509
0.110633
0.0861846
0.0760267
-0.00369678
0.00908543
0.00149828
0.0283998
0.0334877
0.091534
0.0818
0.11062
0.116106
0.15161
0.149607
0.153852
0.150267
0.714843
0.737262
0.745571
0.722271
-3.8562
-6.51216
-0.245143
-0.0838333
0.00116469
0.00242392
0.000701026
0.00175132
0.0027877
0.00250669
0.049552
0.0437843
0.0401348
0.0403468
0.308972
0.30711
0.80016
0.864241
0.71014
0.685567
0.154907
0.158853
0.164675
0.159307
0.028502
0.0213106
0.0272188
0.402543
0.424894
0.421552
-0.109039
-0.192039
-0.0145852
0.0102687
0.295649
0.275531
0.297853
0.44558
0.488109
0.760215
0.784773
0.77236
0.78777
0.835566
0.85507
0.821015
0.121097
0.127863
0.125081
0.158302
0.153642
0.154866
0.148356
0.151276
0.151157
-0.288447
-0.668502
-0.26792
-0.185063
0.0636734
-0.0229357
0.479736
0.624122
0.344644
0.359087
0.363226
-0.341729
-0.402692
0.197642
0.175546
0.0406239
0.0676621
0.0544953
0.690103
0.652673
0.700159
0.675221
0.639581
0.66299
-0.622439
-2.37233
-1.35042
0.317538
0.110205
0.207316
0.0669145
0.0548702
0.0594791
0.833778
0.86943
0.444823
0.588871
0.549148
0.521779
0.553022
0.603443
0.535696
0.569678
0.603369
0.584154
0.102291
-0.257768
-0.100547
0.725654
0.80762
-0.215634
-0.293046
-0.3249
0.119962
0.153578
0.139751
0.846579
0.819565
0.864599
0.17093
0.171565
0.00942558
0.0144737
0.173744
0.173159
0.00654583
0.0120989
0.205559
-1.20944
-0.226162
0.166974
0.152627
0.170381
-0.0682972
0.287607
0.0306547
0.0991864
0.0628244
0.157096
0.111275
0.0713081
0.00660876
0.0247073
0.0182372
-0.371637
0.165326
0.162133
0.168891
0.170916
0.170652
0.00791173
0.0099092
0.00519303
0.0146454
0.00969341
0.0101186
0.141092
0.148263
-0.520393
0.170351
0.171403
0.171633
0.167882
0.17027
0.16986
0.0198977
0.0129617
0.0189725
-0.0988777
0.0162094
0.435331
0.551443
0.352265
0.168093
-0.108499
0.350727
0.415352
0.319082
0.482479
0.345079
0.372619
-0.174986
-0.286812
-0.129696
-0.19368
0.16223
0.161117
0.151135
0.144581
0.160092
0.160109
0.166342
0.165057
0.168552
0.168118
-0.0377241
-0.0487314
-0.0900733
-0.165738
0.310866
0.393904
0.236347
0.233735
0.142549
0.0291985
0.028966
0.0303761
0.0183725
0.0730812
0.0688181
0.0792819
0.0796506
0.0537508
0.0522164
0.070867
0.0666094
0.0721373
0.153322
0.153371
0.15535
0.162779
0.116021
0.120985
0.0901529
0.109083
0.0947614
0.0435763
0.0699638
0.0498648
0.0076366
0.00929112
0.00468732
0.0307695
0.0368995
0.016175
0.0124562
0.0145852
0.0109464
0.0111163
0.021534
0.0260575
-0.328608
-0.474768
0.764778
0.626054
0.3562
0.156781
0.162136
0.15913
0.161628
0.165515
0.167312
0.164969
0.163242
0.149543
0.152453
0.148485
0.1467
-0.516959
-0.556148
-0.409737
-0.471485
-0.0780219
0.280754
0.0235723
-0.0414016
-0.0554375
0.16101
0.368492
0.341974
0.491282
0.478388
-0.676615
-0.269071
-0.604561
-0.0774982
-0.127149
0.452895
0.503165
0.526624
0.477144
0.423867
-0.31466
0.198639
-0.391672
-0.362518
-0.184057
-0.256921
0.405639
0.33049
0.338691
0.363042
0.380387
0.335094
0.318657
0.31105
0.349333
0.354779
0.162459
-0.0634734
-0.121018
-0.163744
0.311607
0.18868
0.245966
0.158981
0.152822
0.157438
0.155912
0.142974
0.147445
0.143423
0.147908
0.149929
0.159353
0.156961
0.154541
0.159256
-0.0260196
-0.0148968
-0.0607394
-0.258915
-0.210863
-0.289366
-0.125168
0.126934
0.109461
0.363341
0.392141
0.0623976
-0.13542
-0.0857287
-0.0611029
0.163377
0.152768
0.110928
0.156898
0.180187
0.148098
0.207261
0.189493
0.0491776
0.0634062
0.0376434
0.0395927
0.103574
0.121424
0.122887
0.0547466
0.052763
0.0328568
0.0289922
0.0827909
0.0501982
0.0688863
0.0696044
0.0258229
0.0308287
0.0332932
0.0486555
0.0455801
0.0492996
0.148918
0.150361
0.149553
0.165455
0.174598
0.18617
0.158923
0.134358
0.125454
0.127284
0.111061
0.116765
0.119343
0.126783
0.14024
0.146802
0.146217
0.147625
0.133164
0.135086
0.122137
0.126884
0.107312
0.0879901
0.0746331
0.0187621
0.0158754
0.0168492
0.0131017
0.0113848
0.00973454
0.0473681
0.0371799
0.0435206
0.0401521
0.0444765
0.0192304
0.0228862
-0.213814
-0.0905257
-0.503483
-0.432633
-0.532781
0.724602
0.783795
0.609459
0.50199
0.548334
0.663338
0.709616
0.431142
0.52822
0.518866
0.202239
0.807063
0.160071
0.160471
0.156223
0.155469
0.159388
-0.455386
-0.392286
-0.271225
-0.224619
-0.00601528
0.113706
-0.510491
-0.228846
-0.0753403
-0.196593
0.272307
0.287071
0.236496
0.261682
0.256327
0.0923999
0.157234
0.210903
0.159405
0.217622
0.241449
0.193458
0.23052
0.167112
0.123498
0.123499
0.0713184
0.0993072
0.0780088
0.0475948
0.146306
0.129704
0.138135
0.13081
0.148558
0.180732
0.172796
0.189417
0.210601
0.13714
0.0998924
0.112319
0.133352
0.0934566
0.105237
0.122245
-0.25261
-0.231436
-0.0828483
-0.373825
-0.232277
-0.240151
-0.270342
-0.312973
-0.000497093
-0.67088
-0.621649
-1.29531
0.162034
0.495516
0.359615
0.36542
0.378876
0.360428
0.367005
0.392707
0.399963
0.303276
0.324728
0.324905
0.27744
0.30947
0.331069
0.332837
0.157995
0.0431841
0.0366471
-0.00867281
-0.1292
-0.102102
0.0901946
0.018704
-0.044293
-0.054086
0.11383
0.0188058
0.0870534
0.114482
0.0670232
0.00253813
0.213664
0.266697
0.263977
0.244175
0.149258
0.159949
0.189587
0.231783
0.25657
0.283056
0.146877
0.154098
0.155619
0.152236
0.149268
0.151721
0.15273
0.153312
0.153155
0.153174
0.15358
0.0160045
0.0298168
-0.0035388
0.00102372
0.0162791
-0.00823674
0.0594285
0.00330905
0.0459558
0.043374
0.0135051
-0.00770745
0.00574952
0.0304561
0.176269
0.20049
0.186811
0.13912
0.244857
0.392163
0.435274
0.369939
0.210722
0.230936
0.297799
0.0968039
0.0943512
0.0884022
0.103303
0.102462
0.0372075
0.0393095
0.041148
0.0463865
0.0470165
0.0347817
0.0273736
0.0277195
0.0312356
0.0293809
0.0286156
0.137567
0.131527
0.13001
0.123264
0.123013
0.137176
0.13966
0.142437
0.146866
0.14741
0.140368
0.14372
0.146101
0.0349984
0.0294757
0.0315758
0.0280188
0.0296549
0.0230688
0.0229104
-0.112753
-0.0379541
0.0814636
-0.230038
-0.366866
-0.250862
-0.062767
0.00196109
-0.29607
0.664033
0.404967
0.232356
0.343962
0.527292
0.102476
0.409557
0.176395
0.744884
0.698496
0.779918
0.552854
-0.11073
0.0906995
0.0914651
-0.105893
0.0378521
-0.0282559
-0.164663
-0.122096
-0.0972311
0.00221444
-0.1446
-0.169945
-0.52407
-0.619468
-0.151045
-0.274453
0.0328842
-0.0127443
-0.632441
-0.480948
-0.511243
0.263693
0.27992
0.298064
0.272427
0.294571
0.218208
0.214548
0.233808
0.236547
0.22857
-0.951308
-0.567787
-1.73165
-1.14265
-0.667509
0.211502
0.214723
0.375955
0.292245
0.366979
0.354344
0.305129
0.268611
0.283049
0.320013
0.00287598
0.108618
0.071838
0.102784
0.0343469
-0.0339973
0.242339
0.231959
0.270798
0.297425
0.249066
0.293777
0.146294
0.146482
0.143718
0.142355
0.138862
0.140127
0.0999316
0.0744254
0.126447
0.107242
0.0666827
0.0510325
0.0425844
0.0369392
0.0356955
0.0354845
0.0373354
0.04191
-0.640637
-0.42657
-0.354265
-0.323658
-0.472352
-0.452058
-0.458685
-0.519336
-0.616194
-0.543815
0.354112
0.670275
0.555983
0.682074
0.430456
0.539556
-0.35485
-0.216578
-0.316403
-0.22314
-0.142509
-0.209278
-0.480147
-0.502
0.405775
0.395353
0.227604
-0.017929
-0.139694
0.104304
0.181606
0.131539
0.175406
0.233323
0.228502
-0.285432
-0.248517
-0.0247355
0.266558
0.031352
-0.0605428
-0.0200141
0.145038
0.104733
)
;

boundaryField
{
    wall-4
    {
        type            zeroGradient;
    }
    velocity-inlet-5
    {
        type            zeroGradient;
    }
    velocity-inlet-6
    {
        type            zeroGradient;
    }
    pressure-outlet-7
    {
        type            fixedValue;
        value           uniform 0;
    }
    wall-8
    {
        type            zeroGradient;
    }
    frontAndBackPlanes
    {
        type            empty;
    }
}

