/*--------------------------------*- C++ -*----------------------------------*\
  =========                 |
  \\      /  F ield         | OpenFOAM: The Open Source CFD Toolbox
   \\    /   O peration     | Website:  https://openfoam.org
    \\  /    A nd           | Version:  6
     \\/     M anipulation  |
\*---------------------------------------------------------------------------*/
FoamFile
{
    version     2.0;
    format      ascii;
    class       volScalarField;
    location    "0";
    object      p;
}
// * * * * * * * * * * * * * * * * * * * * * * * * * * * * * * * * * * * * * //

dimensions      [0 2 -2 0 0 0 0];

internalField   nonuniform List<scalar> 
13046
(
0.465838
0.451294
0.503158
0.464557
0.493657
0.464811
0.454308
0.467323
0.501014
0.376451
0.35868
0.512177
0.456243
0.441562
0.503608
0.405586
0.5132
0.357747
0.488547
0.483189
0.458852
0.400651
0.513628
0.359094
0.466483
0.466997
0.494103
0.452926
0.439946
0.508282
0.471644
0.440595
0.499815
0.473668
0.492003
0.464628
0.471855
0.4917
0.470487
0.481974
0.499192
0.428184
0.472408
0.485833
0.477442
0.468947
0.482225
0.481283
0.458851
0.453029
0.504172
0.488192
0.493617
0.404358
0.493518
0.395856
0.498545
0.373866
0.453017
0.511816
0.421088
0.448977
0.507471
0.511386
0.394544
0.404665
0.460576
0.373994
0.509079
0.464678
0.377516
0.507897
0.366939
0.450053
0.512479
0.489144
0.491258
0.450235
0.515044
0.436326
0.369804
0.462104
0.466417
0.495006
0.511614
0.38741
0.398288
0.385221
0.511574
0.416181
0.511587
0.359756
0.428583
0.434535
0.426608
0.421957
0.419664
0.508978
0.511764
0.512146
0.38256
0.424285
0.467274
0.486234
0.478234
0.501661
0.410481
0.488531
0.488895
0.496613
0.414436
0.349856
0.511811
0.325921
0.458389
0.448414
0.499893
0.433589
0.436797
0.403742
0.511383
0.414088
0.509949
0.372137
0.348034
0.512607
0.448209
0.422205
0.510837
0.478245
0.500138
0.428864
0.50949
0.364283
0.439799
0.412805
0.416003
0.51086
0.468611
0.437625
0.500599
0.433403
0.473602
0.500952
0.489914
0.49103
0.414135
0.498647
0.418936
0.490329
0.421173
0.439998
0.50745
0.501549
0.436475
0.480316
0.479659
0.394653
0.473902
0.393588
0.503267
0.505534
0.431163
0.468402
0.497919
0.371824
0.511848
0.366284
0.360201
0.511666
0.332946
0.411892
0.407675
0.512393
0.480972
0.407756
0.504409
0.432025
0.495678
0.473275
0.513799
0.382879
0.368608
0.481151
0.415426
0.499299
0.501497
0.429924
0.480485
0.438816
0.472691
0.497869
0.440905
0.50783
0.448964
0.43141
0.5071
0.387822
0.511184
0.399358
0.510622
0.376781
0.435363
0.366992
0.421762
0.509407
0.490239
0.3884
0.492878
0.447398
0.439278
0.514182
0.366251
0.408389
0.366103
0.511858
0.465973
0.492212
0.47335
0.45809
0.439895
0.507002
0.511333
0.370541
0.441585
0.44315
0.447053
0.508684
0.512281
0.351467
0.356445
0.495267
0.387781
0.486674
0.374008
0.428033
0.510257
0.410029
0.472301
0.504685
0.448249
0.423039
0.511595
0.459228
0.370835
0.506203
0.386188
0.470823
0.504768
0.512038
0.355154
0.348223
0.489653
0.501349
0.408692
0.366336
0.511134
0.302715
0.488192
0.46093
0.479115
0.417334
0.417041
0.465601
0.471095
0.505027
0.502246
0.512218
0.430563
0.363277
0.454804
0.425095
0.507884
0.385428
0.459982
0.508026
0.422344
0.410823
0.511289
0.47726
0.471507
0.486351
0.402664
0.468654
0.505164
0.457533
0.415189
0.508933
0.445877
0.443561
0.492237
0.499229
0.401573
0.402395
0.461093
0.506021
0.414068
0.511879
0.410335
0.493936
0.492913
0.419003
0.504394
0.388427
0.478135
0.445641
0.400847
0.509134
0.493143
0.491023
0.402156
0.440329
0.435099
0.39762
0.510349
0.396757
0.512588
0.512864
0.385771
0.375841
0.441719
0.417123
0.510806
0.29354
0.511536
0.339235
0.449982
0.49058
0.476883
0.427984
0.451403
0.50621
0.511801
0.395295
0.406362
0.493184
0.388331
0.499098
0.45086
0.371418
0.508325
0.458503
0.504212
0.429021
0.44282
0.508687
0.456176
0.503188
0.412972
0.512425
0.364908
0.49601
0.380804
0.494388
0.423846
0.440193
0.508824
0.429204
0.470796
0.503521
0.412392
0.484755
0.497733
0.46367
0.456287
0.499731
0.499187
0.390131
0.482133
0.379441
0.408145
0.510495
0.452549
0.373023
0.509369
0.470126
0.504467
0.385863
0.438067
0.441984
0.387022
0.380069
0.510116
0.51037
0.511123
0.299596
0.346926
0.372153
0.511553
0.307104
0.413416
0.463049
0.501873
0.510915
0.386919
0.389643
0.457258
0.453346
0.393658
0.390243
0.510705
0.509979
0.509946
0.402774
0.350472
0.362996
0.511504
0.291205
0.460913
0.484064
0.48676
0.353635
0.310794
0.511511
0.474799
0.41045
0.503337
0.368186
0.388934
0.51344
0.312082
0.511518
0.3147
0.483407
0.49535
0.433922
0.452845
0.483243
0.492147
0.378258
0.513085
0.341139
0.447647
0.481453
0.493663
0.465319
0.483457
0.485517
0.5011
0.378771
0.489709
0.444478
0.491976
0.488852
0.451476
0.478781
0.487617
0.474933
0.38729
0.503255
0.514308
0.514413
0.363316
0.36529
0.389057
0.384962
0.37062
0.406779
0.511232
0.509808
0.470101
0.375389
0.483046
0.49728
0.417408
0.381359
0.470646
0.502369
0.345002
0.511444
0.319572
0.511997
0.359846
0.421134
0.361651
0.512334
0.343123
0.510823
0.302056
0.31561
0.279679
0.510339
0.33249
0.451034
0.403124
0.506178
0.383752
0.510388
0.335741
0.404847
0.419666
0.51136
0.402639
0.512391
0.333754
0.452847
0.501329
0.461863
0.409454
0.511053
0.354003
0.383054
0.501318
0.473516
0.455577
0.387536
0.509421
0.509983
0.253552
0.299877
0.311459
0.511994
0.32756
0.457992
0.500105
0.460734
0.396689
0.353256
0.510777
0.511906
0.342183
0.399467
0.390179
0.511766
0.387658
0.512766
0.373235
0.421664
0.481312
0.380201
0.505597
0.382672
0.449698
0.513338
0.513724
0.420821
0.35106
0.465904
0.463314
0.420569
0.415573
0.505731
0.508305
0.470803
0.419523
0.504728
0.463411
0.385222
0.512493
0.454133
0.380174
0.508205
0.402475
0.367926
0.513729
0.508318
0.384316
0.441673
0.27744
0.510241
0.340842
0.480111
0.475649
0.500077
0.435815
0.501242
0.44189
0.470773
0.469611
0.506226
0.392232
0.508377
0.402847
0.318488
0.511039
0.314085
0.398455
0.359133
0.510975
0.485371
0.495529
0.403498
0.464205
0.375176
0.505827
0.512664
0.374269
0.427099
0.333327
0.340329
0.511684
0.345926
0.34066
0.511897
0.451421
0.397767
0.512315
0.494705
0.487806
0.425045
0.38672
0.511879
0.376289
0.449848
0.395105
0.510183
0.513173
0.39654
0.412656
0.473935
0.507077
0.401652
0.411895
0.476355
0.500615
0.485686
0.498117
0.421681
0.512321
0.376722
0.378005
0.425754
0.402776
0.512029
0.483241
0.495966
0.437914
0.414581
0.513496
0.343284
0.466291
0.434628
0.504956
0.442953
0.471161
0.49915
0.458318
0.394147
0.506509
0.383009
0.512635
0.317445
0.39021
0.512731
0.318315
0.51338
0.389719
0.415438
0.402894
0.483223
0.499304
0.512404
0.305791
0.374916
0.510935
0.412979
0.398842
0.510516
0.293506
0.308619
0.327317
0.268991
0.510811
0.514026
0.359203
0.419187
0.512367
0.364808
0.363627
0.400002
0.403273
0.511427
0.36772
0.511906
0.378366
0.393007
0.421247
0.511034
0.508615
0.470613
0.371556
0.476067
0.495704
0.450267
0.391988
0.432446
0.510726
0.510184
0.392239
0.43781
0.428501
0.51347
0.351195
0.47017
0.385578
0.509365
0.471441
0.407166
0.502981
0.408606
0.443005
0.511034
0.404031
0.442728
0.510527
0.483758
0.489825
0.445789
0.464363
0.407846
0.511368
0.511745
0.415875
0.349906
0.333789
0.51178
0.352765
0.325084
0.51149
0.357135
0.47757
0.502728
0.422391
0.328116
0.511194
0.331075
0.422835
0.512686
0.392089
0.511949
0.333959
0.319988
0.464501
0.491916
0.470046
0.443256
0.442018
0.507208
0.484271
0.404702
0.498209
0.510228
0.388149
0.342729
0.449333
0.394876
0.508832
0.512713
0.407767
0.343898
0.434923
0.439071
0.511168
0.476989
0.495598
0.453335
0.382607
0.3499
0.51208
0.512953
0.402413
0.40232
0.376298
0.370191
0.511494
0.511528
0.330635
0.323527
0.424905
0.464358
0.505329
0.454639
0.407662
0.504165
0.448568
0.46859
0.502239
0.36558
0.33842
0.370703
0.512254
0.335479
0.511473
0.424116
0.425802
0.512212
0.352259
0.346383
0.375011
0.367944
0.512093
0.511265
0.406029
0.461139
0.509457
0.437349
0.45448
0.505773
0.395153
0.513441
0.331358
0.431844
0.454301
0.504749
0.446716
0.4618
0.500167
0.379728
0.512413
0.328225
0.43973
0.425465
0.507534
0.482834
0.375483
0.502304
0.478258
0.392168
0.505822
0.447858
0.508631
0.362519
0.510406
0.266078
0.308558
0.430767
0.448841
0.506753
0.3959
0.511905
0.349856
0.500909
0.379413
0.487915
0.342315
0.511602
0.283926
0.495501
0.493036
0.483714
0.431852
0.487462
0.426362
0.44911
0.47169
0.497716
0.486735
0.49195
0.49129
0.434264
0.493748
0.431458
0.435296
0.457712
0.507036
0.436178
0.461501
0.506337
0.511552
0.364276
0.326229
0.473434
0.424861
0.501072
0.360794
0.374357
0.512715
0.409802
0.405454
0.434628
0.427625
0.509511
0.509214
0.469546
0.435372
0.502484
0.459653
0.400221
0.508307
0.420761
0.438751
0.511359
0.478136
0.462871
0.488536
0.399099
0.433584
0.510377
0.476374
0.493649
0.450148
0.413945
0.454656
0.508833
0.456097
0.409143
0.508172
0.478162
0.480868
0.455906
0.494383
0.453891
0.492847
0.485481
0.486076
0.491812
0.446938
0.495242
0.436097
0.464552
0.459924
0.427317
0.429144
0.506416
0.505131
0.512267
0.377733
0.421095
0.499564
0.382479
0.484705
0.51391
0.513621
0.373721
0.380665
0.414292
0.410093
0.492322
0.49686
0.393624
0.476923
0.485866
0.471166
0.400272
0.425826
0.510669
0.478819
0.500018
0.431517
0.45256
0.408186
0.509012
0.433395
0.431793
0.379939
0.513489
0.387237
0.512622
0.417132
0.425576
0.510106
0.348014
0.29391
0.511759
0.497103
0.384803
0.488896
0.48312
0.4835
0.502071
0.384678
0.505497
0.389054
0.386619
0.446652
0.508873
0.46292
0.402911
0.508837
0.490227
0.49653
0.393462
0.479592
0.480164
0.499421
0.506768
0.404489
0.402237
0.48009
0.505615
0.394449
0.415858
0.431775
0.510914
0.480221
0.492308
0.45054
0.384967
0.511872
0.345961
0.489761
0.499844
0.388076
0.452567
0.44652
0.411223
0.408726
0.507468
0.511778
0.512257
0.352567
0.389716
0.392791
0.513162
0.338022
0.386087
0.512191
0.337326
0.425166
0.512928
0.385807
0.464394
0.409696
0.508007
0.444983
0.486544
0.509794
0.448025
0.507792
0.369347
0.498034
0.446449
0.463762
0.501903
0.500135
0.460309
0.45007
0.505418
0.485837
0.460307
0.44303
0.489735
0.48652
0.494547
0.488468
0.485538
0.501084
0.512728
0.513497
0.488616
0.511739
0.463105
0.493886
0.442422
0.46748
0.494536
0.494167
0.4847
0.473608
0.498726
0.509697
0.502338
0.450439
0.470737
0.486738
0.5096
0.47709
0.503213
0.493068
0.486654
0.489575
0.487585
0.460458
0.479903
0.510878
0.484788
0.462331
0.496368
0.466629
0.508482
0.497608
0.494399
0.492183
0.502679
0.479906
0.478088
0.513008
0.451059
0.496562
0.497565
0.492844
0.50964
0.502187
0.490812
0.470404
0.477014
0.475016
0.497029
0.472765
0.482227
0.481679
0.471739
0.498881
0.504481
0.487481
0.493082
0.459056
0.464041
0.487909
0.502142
0.48698
0.441178
0.488528
0.510664
0.46404
0.502516
0.513834
0.483676
0.453347
0.334717
0.475253
0.489395
0.453337
0.46791
0.500432
0.502245
0.496182
0.508045
0.460704
0.434889
0.458786
0.469169
0.47685
0.50894
0.502962
0.491383
0.465575
0.478074
0.472059
0.493611
0.491084
0.442424
0.467182
0.48663
0.487206
0.508545
0.503319
0.497587
0.492028
0.475691
0.465551
0.51325
0.423584
0.496207
0.470143
0.508146
0.460732
0.388694
0.437602
0.503735
0.480239
0.454586
0.47248
0.495229
0.454973
0.501351
0.480023
0.470904
0.49858
0.49728
0.459603
0.506595
0.471539
0.49261
0.460182
0.490137
0.451112
0.509657
0.501272
0.48781
0.498673
0.50169
0.508689
0.482012
0.473437
0.469773
0.496237
0.423887
0.463327
0.460591
0.511864
0.489122
0.504647
0.51263
0.490694
0.514077
0.510827
0.508004
0.458699
0.466727
0.463733
0.508779
0.462689
0.457303
0.415971
0.458185
0.48828
0.493422
0.493876
0.513509
0.499947
0.484366
0.506058
0.49205
0.51009
0.382561
0.495173
0.47818
0.469981
0.508957
0.511747
0.475744
0.488118
0.512103
0.49358
0.436277
0.473729
0.496749
0.509169
0.485904
0.460799
0.492722
0.498376
0.488722
0.486169
0.443381
0.409054
0.469809
0.476655
0.47474
0.468156
0.441888
0.502066
0.488049
0.468179
0.49336
0.465319
0.461887
0.495944
0.495721
0.459095
0.458152
0.432916
0.495065
0.474627
0.477101
0.491539
0.497618
0.464115
0.49167
0.484341
0.459956
0.470455
0.505713
0.489366
0.504366
0.510352
0.509977
0.456747
0.457912
0.488818
0.490997
0.461233
0.471415
0.494019
0.508445
0.50298
0.490201
0.45782
0.483352
0.481289
0.491077
0.492435
0.471434
0.491899
0.485436
0.403585
0.463893
0.47407
0.460983
0.480376
0.495131
0.492024
0.490789
0.497596
0.457117
0.486552
0.483626
0.491573
0.479478
0.4925
0.491968
0.463474
0.447724
0.488209
0.459835
0.455074
0.488513
0.392847
0.457537
0.506938
0.492155
0.46994
0.470984
0.468527
0.492091
0.442634
0.403698
0.45821
0.496792
0.489195
0.49949
0.364551
0.454832
0.508704
0.484743
0.438587
0.446143
0.46035
0.46457
0.456978
0.494689
0.497851
0.467823
0.462686
0.478426
0.479074
0.51053
0.427841
0.498037
0.494325
0.393625
0.471619
0.461828
0.466862
0.494993
0.494975
0.508219
0.482324
0.455398
0.486198
0.486029
0.513734
0.487998
0.509297
0.49829
0.483074
0.494343
0.489119
0.47627
0.463535
0.486786
0.449769
0.491636
0.489872
0.466641
0.460288
0.455861
0.457718
0.44621
0.505582
0.461167
0.475484
0.502847
0.501751
0.466028
0.458218
0.5104
0.470962
0.388919
0.484843
0.467413
0.462177
0.509538
0.485602
0.478302
0.50153
0.467365
0.491687
0.47224
0.493513
0.487367
0.48037
0.336107
0.460533
0.468637
0.472053
0.487584
0.486324
0.498449
0.511008
0.454226
0.472817
0.454623
0.424125
0.460143
0.505212
0.482106
0.473242
0.472267
0.491415
0.459428
0.444968
0.4543
0.467743
0.471978
0.51412
0.481032
0.48883
0.512703
0.503701
0.498316
0.511147
0.441876
0.476512
0.462464
0.512144
0.499539
0.504727
0.48639
0.483253
0.470778
0.49128
0.464271
0.424816
0.503592
0.484835
0.427206
0.459138
0.470505
0.460205
0.471726
0.486417
0.490358
0.456161
0.474111
0.462
0.472016
0.463777
0.481474
0.439301
0.469279
0.507792
0.509043
0.498937
0.496224
0.493361
0.385779
0.498212
0.488534
0.450967
0.508636
0.376505
0.508717
0.476967
0.491027
0.482454
0.496034
0.491372
0.454802
0.510551
0.451482
0.50819
0.493461
0.469802
0.476541
0.4434
0.480735
0.510235
0.476143
0.512642
0.494755
0.461415
0.43331
0.497268
0.385559
0.496157
0.492368
0.462528
0.512371
0.417962
0.413478
0.501888
0.489482
0.508454
0.512407
0.482659
0.513178
0.512125
0.503295
0.505506
0.49797
0.458814
0.478257
0.488529
0.504508
0.478453
0.373558
0.510223
0.470708
0.48204
0.47663
0.509451
0.511319
0.482902
0.5042
0.4891
0.512112
0.459123
0.501099
0.476803
0.511459
0.511775
0.502953
0.476681
0.497183
0.4619
0.449164
0.487857
0.479108
0.490694
0.441178
0.382613
0.461541
0.481339
0.495265
0.485062
0.511158
0.47888
0.46026
0.490826
0.462529
0.509125
0.445545
0.476393
0.501425
0.507451
0.486085
0.511674
0.452989
0.488347
0.503352
0.468721
0.441472
0.489152
0.479067
0.495614
0.501357
0.47852
0.464403
0.488809
0.465597
0.456678
0.509001
0.51183
0.512521
0.441677
0.513034
0.511355
0.51204
0.464817
0.499746
0.493831
0.510192
0.495818
0.449592
0.464959
0.475812
0.367852
0.510411
0.486825
0.485209
0.501372
0.501235
0.486306
0.478629
0.510706
0.512307
0.506366
0.496574
0.481219
0.486038
0.499878
0.493597
0.475657
0.477835
0.481119
0.482716
0.492991
0.472039
0.506005
0.509963
0.46092
0.504423
0.469537
0.457328
0.471755
0.507248
0.48649
0.494766
0.490536
0.506066
0.490852
0.493169
0.513004
0.476042
0.463259
0.457143
0.459204
0.453006
0.329888
0.464986
0.462568
0.493923
0.461406
0.480568
0.491389
0.475816
0.46206
0.472989
0.479937
0.336666
0.511954
0.485375
0.492406
0.460895
0.48424
0.482266
0.449177
0.512101
0.467528
0.51321
0.480427
0.505546
0.439764
0.406976
0.477298
0.482558
0.485268
0.49435
0.407521
0.493837
0.485685
0.462121
0.450438
0.474054
0.478377
0.510591
0.441943
0.495712
0.502313
0.497588
0.465452
0.502505
0.46258
0.331344
0.491439
0.465654
0.453782
0.501939
0.499104
0.490293
0.496846
0.481403
0.514123
0.512228
0.486295
0.480294
0.5117
0.509252
0.499154
0.495303
0.490254
0.513365
0.469536
0.460507
0.508356
0.507761
0.511629
0.490325
0.482804
0.470984
0.498982
0.494975
0.310003
0.50962
0.490722
0.458796
0.48751
0.489742
0.51019
0.51103
0.493858
0.472928
0.500682
0.50822
0.498457
0.501398
0.506555
0.411447
0.459538
0.487377
0.461398
0.413249
0.46596
0.491104
0.501741
0.468582
0.486177
0.447573
0.471639
0.510747
0.48501
0.464787
0.461726
0.458299
0.48867
0.471209
0.472635
0.496575
0.493246
0.494216
0.454309
0.497875
0.475595
0.467711
0.496277
0.499959
0.500459
0.509659
0.463103
0.506929
0.463036
0.51097
0.508119
0.510771
0.505398
0.46121
0.460568
0.48832
0.456116
0.467961
0.471842
0.472092
0.45583
0.494448
0.495338
0.459668
0.506412
0.481191
0.486223
0.492237
0.497114
0.504562
0.497919
0.48854
0.462302
0.506455
0.443802
0.507951
0.456634
0.493639
0.50812
0.501634
0.51169
0.506126
0.493524
0.445676
0.463802
0.489847
0.477142
0.512787
0.447754
0.447891
0.486002
0.488522
0.478811
0.461011
0.494068
0.497236
0.494271
0.386348
0.478223
0.437516
0.451996
0.485022
0.485983
0.485699
0.476249
0.503528
0.458126
0.512878
0.49017
0.437642
0.497465
0.482257
0.505314
0.484337
0.474676
0.45828
0.47294
0.488459
0.509519
0.4732
0.489549
0.491671
0.505383
0.476607
0.488113
0.476359
0.511371
0.457138
0.457851
0.42425
0.501599
0.460345
0.475441
0.46295
0.469964
0.510654
0.485992
0.498495
0.505264
0.498551
0.433682
0.510392
0.451621
0.487587
0.49809
0.476567
0.463766
0.483753
0.482939
0.454994
0.477152
0.426605
0.462573
0.488294
0.430282
0.470565
0.507837
0.46513
0.462121
0.483421
0.509236
0.484065
0.455
0.496094
0.46605
0.47035
0.491006
0.48246
0.494253
0.492082
0.513128
0.48113
0.501507
0.495141
0.505877
0.509741
0.509811
0.436264
0.473343
0.489706
0.455284
0.510789
0.507971
0.504876
0.488498
0.456912
0.459454
0.490474
0.504206
0.451336
0.505445
0.502901
0.498656
0.460414
0.456262
0.463776
0.438048
0.486848
0.452115
0.49352
0.473706
0.49666
0.462458
0.487003
0.459719
0.493399
0.497564
0.49603
0.484419
0.494136
0.5092
0.512398
0.488498
0.48168
0.501438
0.492796
0.470187
0.47896
0.492136
0.469341
0.512385
0.485864
0.492558
0.497927
0.501135
0.47626
0.424268
0.51441
0.484601
0.484781
0.489684
0.490945
0.50109
0.507196
0.483891
0.494578
0.456162
0.47457
0.483888
0.498652
0.492675
0.486065
0.488949
0.512632
0.493273
0.474751
0.506868
0.492246
0.461068
0.477455
0.514433
0.470658
0.457809
0.476972
0.515633
0.482398
0.49008
0.501213
0.506242
0.505471
0.492005
0.459719
0.495675
0.475696
0.483512
0.505962
0.486258
0.456938
0.451115
0.484059
0.495657
0.470383
0.460522
0.506021
0.487809
0.510097
0.503373
0.457868
0.455082
0.482978
0.504625
0.508641
0.486556
0.483822
0.434186
0.489508
0.478586
0.510419
0.507987
0.507153
0.46017
0.455394
0.494937
0.513741
0.510434
0.503407
0.504317
0.4796
0.481489
0.454059
0.457655
0.504964
0.493222
0.406187
0.466218
0.512544
0.488967
0.459372
0.461528
0.48916
0.478481
0.502588
0.493102
0.493838
0.506897
0.509715
0.481247
0.493613
0.483703
0.482567
0.467046
0.497513
0.47971
0.509034
0.408578
0.49316
0.396117
0.484608
0.50918
0.497639
0.504194
0.51072
0.507219
0.471331
0.485621
0.484871
0.443976
0.510248
0.493037
0.473998
0.492958
0.370693
0.465817
0.495723
0.496038
0.512276
0.456602
0.463009
0.488412
0.509475
0.412359
0.474482
0.482672
0.421787
0.455431
0.496608
0.455588
0.484045
0.459828
0.502663
0.512261
0.36997
0.491675
0.493483
0.471594
0.459964
0.487192
0.479714
0.485902
0.468504
0.489951
0.482525
0.480353
0.485511
0.506249
0.475305
0.456691
0.479381
0.455787
0.464059
0.484079
0.434965
0.478412
0.474714
0.490938
0.503421
0.490873
0.490224
0.403128
0.497745
0.481758
0.479304
0.513721
0.487738
0.490242
0.417752
0.408947
0.510231
0.465491
0.489295
0.497409
0.476353
0.49978
0.404131
0.504269
0.483272
0.503467
0.483549
0.485611
0.487674
0.4634
0.474711
0.482218
0.513141
0.454884
0.46146
0.475335
0.5131
0.509335
0.430912
0.481435
0.484567
0.495433
0.479977
0.510642
0.505572
0.504816
0.504943
0.491571
0.471869
0.457777
0.510104
0.47412
0.48602
0.433652
0.459523
0.469635
0.458247
0.509595
0.418589
0.505712
0.476898
0.509227
0.491462
0.510427
0.501952
0.486559
0.510358
0.5093
0.513644
0.487756
0.506405
0.475813
0.492403
0.46582
0.472797
0.512278
0.419491
0.486977
0.495989
0.487322
0.489842
0.487718
0.503292
0.485088
0.498535
0.45939
0.464
0.494817
0.502343
0.432315
0.497642
0.463221
0.493551
0.458969
0.484274
0.496585
0.502144
0.51119
0.461717
0.485835
0.488715
0.492889
0.505871
0.440117
0.457467
0.512788
0.455019
0.477686
0.503422
0.507525
0.51187
0.458873
0.468809
0.471074
0.466974
0.444575
0.488624
0.481295
0.488662
0.471467
0.485213
0.485321
0.473985
0.446682
0.476375
0.486566
0.464922
0.502226
0.501977
0.451186
0.500615
0.409604
0.472721
0.425513
0.473241
0.511246
0.492364
0.491805
0.488736
0.501649
0.508791
0.490822
0.502024
0.446015
0.487476
0.479602
0.492022
0.461011
0.511203
0.485788
0.469806
0.510502
0.504147
0.462547
0.50942
0.457993
0.491893
0.490373
0.492318
0.434807
0.503794
0.487041
0.490862
0.49091
0.469935
0.462513
0.469622
0.501142
0.50601
0.506785
0.485199
0.494637
0.508665
0.489148
0.488419
0.473811
0.471772
0.486165
0.50402
0.464863
0.509648
0.491729
0.512049
0.511683
0.510768
0.4873
0.488875
0.506503
0.399271
0.508361
0.422104
0.510707
0.504963
0.489608
0.485935
0.478229
0.488315
0.422847
0.443142
0.480302
0.451266
0.510072
0.461183
0.464672
0.442148
0.457063
0.491903
0.505127
0.514159
0.460234
0.48547
0.492077
0.489637
0.480247
0.482284
0.508961
0.504359
0.489174
0.5077
0.503726
0.513984
0.461656
0.472791
0.452274
0.503063
0.509672
0.505824
0.488152
0.510482
0.484976
0.455173
0.484357
0.454294
0.471492
0.462023
0.515163
0.510137
0.491652
0.514972
0.503429
0.486177
0.510616
0.468437
0.502079
0.484405
0.510548
0.480125
0.459685
0.499318
0.495179
0.510508
0.510871
0.510943
0.456911
0.452896
0.450936
0.5026
0.504566
0.433893
0.473985
0.505698
0.46391
0.482163
0.462244
0.478801
0.495268
0.480237
0.489791
0.472519
0.491236
0.495115
0.499015
0.483101
0.471925
0.492425
0.493569
0.486252
0.507676
0.515425
0.432698
0.504293
0.464265
0.476352
0.511996
0.50653
0.480778
0.510078
0.463546
0.50135
0.47662
0.465614
0.506839
0.481015
0.503067
0.492665
0.500171
0.512564
0.500134
0.471013
0.497723
0.461
0.50289
0.510274
0.494748
0.480693
0.460062
0.46531
0.50694
0.475108
0.491007
0.455751
0.48157
0.505983
0.502419
0.489232
0.503742
0.510908
0.471679
0.481187
0.495193
0.460534
0.472869
0.489692
0.49238
0.485701
0.467308
0.429048
0.456519
0.499757
0.481209
0.503134
0.465332
0.509207
0.495144
0.511074
0.510672
0.481407
0.509002
0.466162
0.494859
0.472334
0.501364
0.453997
0.483315
0.474155
0.457993
0.481096
0.466592
0.456209
0.463252
0.514048
0.516366
0.488692
0.457137
0.501643
0.458549
0.433175
0.486974
0.499733
0.497019
0.463114
0.463066
0.511316
0.456142
0.494866
0.458546
0.467956
0.483497
0.453965
0.509235
0.489512
0.471538
0.508889
0.50968
0.469863
0.496098
0.487267
0.513654
0.489763
0.477711
0.464394
0.496389
0.514205
0.496294
0.443306
0.464224
0.477331
0.492897
0.510488
0.511023
0.455391
0.510954
0.46646
0.492132
0.495735
0.487941
0.477669
0.503278
0.430104
0.493092
0.449766
0.471502
0.44643
0.462042
0.498043
0.510441
0.467887
0.47184
0.493826
0.47712
0.428353
0.45001
0.47022
0.494429
0.392728
0.476828
0.492169
0.492764
0.486553
0.494246
0.504636
0.411073
0.41236
0.508008
0.487966
0.428427
0.478625
0.500056
0.501404
0.489332
0.450396
0.492953
0.454012
0.510991
0.505911
0.514384
0.484032
0.499928
0.467067
0.493088
0.509862
0.459695
0.470671
0.500872
0.505419
0.465088
0.465201
0.44583
0.414254
0.448121
0.511918
0.476143
0.462758
0.440987
0.459949
0.50377
0.452045
0.470423
0.45927
0.507136
0.479689
0.511394
0.469748
0.484552
0.488556
0.490981
0.483891
0.49878
0.456889
0.511809
0.492539
0.489693
0.504262
0.474025
0.510019
0.492856
0.477061
0.509868
0.457262
0.476191
0.510724
0.493117
0.46091
0.473098
0.493195
0.510482
0.491191
0.503173
0.448602
0.465743
0.456862
0.449461
0.509356
0.471906
0.489259
0.512422
0.485511
0.415115
0.458134
0.487951
0.457125
0.484928
0.463624
0.472009
0.47465
0.502768
0.510779
0.493709
0.453975
0.479783
0.458986
0.484979
0.499189
0.48762
0.481696
0.495678
0.480296
0.487576
0.507641
0.505314
0.511605
0.509279
0.509861
0.482687
0.467325
0.461655
0.460637
0.510411
0.491782
0.467131
0.509808
0.47109
0.508017
0.504411
0.464583
0.454271
0.476584
0.489751
0.505121
0.483562
0.499414
0.490204
0.511582
0.497088
0.511767
0.470819
0.488737
0.477782
0.462351
0.477378
0.508257
0.423868
0.366363
0.487701
0.496285
0.503239
0.484089
0.461351
0.458011
0.475644
0.455982
0.484007
0.488956
0.465108
0.501426
0.489296
0.460667
0.485107
0.473609
0.451795
0.503238
0.478779
0.486752
0.452644
0.492286
0.475261
0.460918
0.477146
0.47811
0.472093
0.46068
0.415285
0.506697
0.512141
0.507736
0.494875
0.503531
0.468133
0.510349
0.489178
0.488684
0.44372
0.499793
0.476437
0.480406
0.503555
0.509514
0.505656
0.490719
0.496706
0.513171
0.467397
0.499378
0.510924
0.498499
0.483581
0.465101
0.503755
0.474724
0.471977
0.495969
0.480669
0.5119
0.468508
0.512208
0.512192
0.489793
0.47112
0.512106
0.461144
0.47032
0.477253
0.463658
0.474383
0.472881
0.46944
0.490792
0.457458
0.457668
0.48699
0.48921
0.47779
0.474933
0.493444
0.49069
0.479946
0.508559
0.509408
0.509204
0.459911
0.476434
0.511074
0.45939
0.489581
0.436885
0.489024
0.438846
0.502105
0.489308
0.489358
0.465001
0.458337
0.474874
0.495435
0.476149
0.488567
0.492186
0.484624
0.509963
0.49786
0.493074
0.470183
0.508215
0.474875
0.490606
0.509749
0.466914
0.470516
0.463407
0.501074
0.511336
0.472737
0.48942
0.475161
0.466268
0.452748
0.485541
0.457328
0.501115
0.470165
0.484396
0.48953
0.48897
0.460707
0.485675
0.4865
0.481548
0.494116
0.504944
0.488991
0.477545
0.486376
0.507553
0.491181
0.458312
0.500006
0.460556
0.488409
0.449853
0.468514
0.481454
0.42642
0.462321
0.513619
0.505656
0.455084
0.491893
0.464337
0.444186
0.45882
0.458957
0.468865
0.466567
0.468282
0.499648
0.515809
0.483456
0.502955
0.486159
0.510962
0.491801
0.514996
0.493999
0.474091
0.497275
0.506952
0.487487
0.500022
0.450205
0.50769
0.482676
0.362629
0.49183
0.513861
0.51561
0.498473
0.499501
0.49929
0.476641
0.483291
0.492691
0.511699
0.375587
0.479229
0.447211
0.476957
0.492473
0.453393
0.458813
0.470951
0.467245
0.460401
0.481224
0.487447
0.512701
0.506924
0.463
0.507661
0.458949
0.488995
0.505917
0.490245
0.48841
0.49309
0.378281
0.46531
0.49293
0.507023
0.466688
0.473561
0.493153
0.497909
0.458819
0.510695
0.47002
0.493941
0.491049
0.482928
0.496053
0.499871
0.508423
0.45023
0.502574
0.486983
0.497912
0.459593
0.492859
0.480093
0.455616
0.464506
0.478175
0.486533
0.492302
0.505371
0.485274
0.448233
0.495728
0.468582
0.465372
0.48952
0.488001
0.462948
0.515861
0.467136
0.470645
0.466313
0.490571
0.462097
0.436425
0.500044
0.480121
0.489006
0.470199
0.450959
0.484313
0.414242
0.510102
0.500506
0.466889
0.46092
0.512947
0.46861
0.46224
0.457852
0.446907
0.477647
0.489367
0.508956
0.463455
0.476127
0.499624
0.487776
0.469792
0.467106
0.482862
0.502414
0.510812
0.46655
0.454177
0.491674
0.510279
0.484207
0.490889
0.488682
0.452436
0.492594
0.496297
0.484545
0.455828
0.501464
0.490763
0.451527
0.49153
0.464854
0.505432
0.51201
0.463496
0.491429
0.485461
0.49105
0.464263
0.495115
0.47886
0.509876
0.502546
0.500217
0.466456
0.472837
0.502322
0.511467
0.478066
0.490965
0.485597
0.466036
0.486438
0.490345
0.461171
0.403749
0.463097
0.482726
0.469215
0.463615
0.471738
0.480746
0.499733
0.459169
0.462513
0.47841
0.459975
0.504486
0.46339
0.495814
0.487728
0.458055
0.494264
0.486516
0.494366
0.487328
0.499474
0.468478
0.467034
0.510578
0.45312
0.508551
0.4928
0.479361
0.476742
0.507027
0.488672
0.46147
0.513263
0.449526
0.485382
0.508934
0.452953
0.515309
0.4657
0.490593
0.395725
0.493943
0.460615
0.494307
0.474379
0.455437
0.478487
0.456161
0.468663
0.510414
0.457699
0.486411
0.494644
0.488854
0.511185
0.512283
0.483874
0.448427
0.507364
0.479482
0.50937
0.47349
0.482928
0.496942
0.482024
0.504926
0.488704
0.492869
0.470295
0.491408
0.439146
0.450456
0.508326
0.334354
0.504826
0.498884
0.470436
0.463716
0.481795
0.509851
0.492527
0.498091
0.492129
0.495122
0.490317
0.509388
0.505699
0.460007
0.494895
0.505417
0.487341
0.489996
0.487061
0.467174
0.464994
0.486827
0.49465
0.48346
0.514607
0.458669
0.473991
0.49244
0.478436
0.482939
0.506296
0.466687
0.474395
0.473165
0.482307
0.465154
0.507585
0.452568
0.486201
0.480942
0.481745
0.457362
0.453352
0.496993
0.450333
0.459158
0.508552
0.486869
0.475339
0.459474
0.459654
0.47476
0.508814
0.512091
0.472913
0.481386
0.483967
0.50834
0.507907
0.471017
0.509479
0.477803
0.493429
0.493
0.508055
0.484507
0.505906
0.506162
0.457492
0.448798
0.486146
0.475796
0.483586
0.400557
0.418922
0.498469
0.504542
0.464002
0.510998
0.487033
0.499458
0.488793
0.46109
0.507272
0.504369
0.491414
0.45241
0.462412
0.511872
0.503688
0.511139
0.456908
0.482565
0.496706
0.506452
0.497142
0.489536
0.480228
0.506338
0.482713
0.479243
0.489411
0.482726
0.488763
0.405229
0.505032
0.487774
0.491592
0.51006
0.45615
0.46418
0.471794
0.465483
0.508362
0.46812
0.491794
0.408837
0.472311
0.482882
0.468865
0.463389
0.490449
0.457783
0.464063
0.488545
0.488048
0.508393
0.468731
0.488056
0.507769
0.477479
0.510039
0.484184
0.496625
0.484041
0.473058
0.51017
0.459334
0.464237
0.490048
0.50908
0.500354
0.486038
0.446848
0.512908
0.495681
0.484736
0.500209
0.510809
0.500652
0.496719
0.460575
0.456993
0.483012
0.460915
0.493944
0.490214
0.458379
0.511011
0.510598
0.508846
0.494719
0.491531
0.460286
0.481043
0.501538
0.464739
0.495174
0.509565
0.481801
0.491037
0.489161
0.498068
0.494058
0.491044
0.459109
0.499445
0.446745
0.404037
0.475854
0.513982
0.460173
0.504626
0.474437
0.447023
0.495692
0.488795
0.509716
0.369384
0.49374
0.497715
0.509127
0.48163
0.511262
0.487775
0.458928
0.481659
0.48469
0.484731
0.455623
0.501704
0.490085
0.465902
0.456512
0.484911
0.488654
0.452203
0.494316
0.507401
0.462579
0.508377
0.468226
0.440862
0.453463
0.487033
0.472472
0.462773
0.445533
0.450361
0.48759
0.483194
0.50135
0.481582
0.50782
0.453455
0.494863
0.462861
0.467226
0.455961
0.498393
0.512189
0.467635
0.468298
0.515876
0.483749
0.498032
0.502119
0.479229
0.490677
0.493792
0.48509
0.511054
0.510313
0.510717
0.486314
0.468276
0.476191
0.479728
0.514615
0.487261
0.472721
0.437001
0.469322
0.492785
0.508511
0.485902
0.507642
0.475995
0.47703
0.480798
0.453066
0.477996
0.47171
0.508514
0.460551
0.467662
0.465675
0.512605
0.492543
0.464843
0.459238
0.450245
0.505036
0.482107
0.473079
0.465107
0.477015
0.463162
0.484405
0.47991