/*--------------------------------*- C++ -*----------------------------------*\
  =========                 |
  \\      /  F ield         | OpenFOAM: The Open Source CFD Toolbox
   \\    /   O peration     | Website:  https://openfoam.org
    \\  /    A nd           | Version:  6
     \\/     M anipulation  |
\*---------------------------------------------------------------------------*/
FoamFile
{
    version     2.0;
    format      ascii;
    class       volVectorField;
    location    "0";
    object      U_rec;
}
// * * * * * * * * * * * * * * * * * * * * * * * * * * * * * * * * * * * * * //

dimensions      [0 1 -1 0 0 0 0];

internalField   nonuniform List<vector> 
918
(
(0.992156 -0.00123032 0)
(-0.022582 3.00531 0)
(0.00331795 1.73302 0)
(0.984274 0.00420943 0)
(-0.0181952 1.68984 5.36173e-17)
(0.0126563 2.99873 5.89373e-18)
(1.01706 1.48575 1.01287e-17)
(0.497504 0.277662 4.33637e-19)
(1.003 0.000632568 0)
(0.0236574 1.70835 0)
(0.000663469 1.69344 0)
(0.920828 0.00595325 0)
(-0.00536334 2.9912 0)
(0.000494167 2.88367 0)
(0.00089544 2.9616 2.62581e-17)
(0.00535126 1.67531 3.31027e-17)
(0.685678 0.155473 -1.51432e-17)
(0.207476 1.98094 -2.90874e-17)
(0.992696 0.0164021 0)
(-0.000259697 1.69295 0)
(0.0188796 0.0626427 1.43818e-17)
(0.995369 0.011073 0)
(1.00741 0.00979182 0)
(1.00333 0.00557656 0)
(0.857893 -0.0108266 0)
(0.00770629 2.91025 0)
(-0.00125744 2.93768 -9.83273e-17)
(-0.00442087 1.74328 0)
(0.00799746 1.76422 0)
(-0.0104443 1.75181 0)
(-0.0101098 1.7873 0)
(-0.00375657 1.71014 5.29293e-17)
(-0.0105437 1.67501 0)
(0.0279822 3.01223 1.78899e-21)
(0.0126564 3.02637 -7.81117e-17)
(0.0216264 3.02335 0)
(0.96043 0.00634503 0)
(0.403999 0.764548 -1.61023e-17)
(0.979217 1.53321 -2.25632e-17)
(1.10518 1.2899 3.36972e-17)
(0.843072 1.72987 7.47785e-18)
(0.875636 1.69399 2.18476e-17)
(0.529612 0.337064 -1.44833e-19)
(0.55803 0.260559 0)
(1.26228 0.647373 0)
(0.463272 0.338669 -8.34594e-19)
(0.449753 0.259226 1.7654e-18)
(0.953877 0.000524025 0)
(0.99828 0.00163229 0)
(1.00289 0.00208579 0)
(0.991085 0.00563729 0)
(0.985706 0.00592773 0)
(1.00347 0.0101825 0)
(0.0234254 1.59254 1.28874e-17)
(0.0338255 1.79302 0)
(0.0671943 1.7532 0)
(-0.00500331 1.76409 0)
(-0.00873933 1.69424 0)
(-0.00186788 1.67298 0)
(-0.00259141 1.73058 0)
(-0.00884879 1.69153 0)
(-0.00514877 1.73414 0)
(0.00426294 1.68889 0)
(0.98983 0.0144718 0)
(0.953088 0.0118796 0)
(0.936634 0.00166769 0)
(0.939649 0.0225889 0)
(0.90303 0.0196695 0)
(-0.0104654 3.05162 1.13987e-17)
(-0.0126809 2.98202 0)
(-0.0330082 3.04785 0)
(0.0124732 3.04432 -1.95524e-22)
(-0.00976022 3.01946 5.44084e-17)
(0.0212729 3.0141 0)
(0.0109049 2.95112 0)
(-7.32703e-05 2.95913 -4.32617e-23)
(0.00521618 2.88618 0)
(0.0172872 2.96655 0)
(0.000106759 2.86954 0)
(0.298221 3.27427 0)
(-0.0660939 3.35499 0)
(0.11657 3.02459 -2.26216e-18)
(0.00391419 2.83188 0)
(-0.000806022 1.75191 0)
(-6.96873e-05 1.71983 3.00006e-17)
(0.00199524 1.68758 3.34386e-17)
(0.710302 0.178766 1.03775e-18)
(0.707705 0.116688 7.43803e-18)
(0.697918 0.207217 3.51806e-17)
(0.668539 0.180681 1.7494e-18)
(0.191745 1.40048 0)
(0.321362 2.06109 -4.68566e-17)
(0.453579 2.00968 -2.66523e-17)
(0.998161 0.0132917 0)
(0.967714 0.025547 0)
(1.0018 -0.00534458 0)
(1.00214 0.00288647 0)
(1.00821 0.0191436 1.99034e-16)
(0.999513 0.0091306 6.10812e-17)
(-0.00283679 1.72592 0)
(-0.00213321 1.69211 0)
(0.00715375 1.75643 0)
(-0.013864 1.73565 0)
(0.00373065 1.7034 0)
(0.0541329 0.277531 -5.32834e-18)
(0.224681 0.203052 0)
(1.01039 -0.00872835 0)
(0.993707 0.00361508 0)
(0.912781 0.0205496 0)
(0.895161 0.0208724 0)
(0.892782 -0.00136082 0)
(1.11284 0.00941746 0)
(0.855086 0.0431756 0)
(0.793911 0.0423082 -5.82152e-18)
(-0.0341137 2.8815 7.88944e-18)
(-0.0013498 2.9749 0)
(-0.0514418 3.01739 0)
(-0.00841963 2.86235 0)
(-0.00296371 2.98468 -4.37325e-17)
(0.00294264 2.93081 0)
(-0.00691165 2.98688 2.36896e-17)
(-0.0113919 2.94787 9.91744e-18)
(0.00679996 1.76187 0)
(0.00247105 1.75624 0)
(0.00919286 1.71942 2.48188e-20)
(-0.00545561 1.71636 0)
(0.00344341 1.67655 0)
(0.985222 0.00864699 0)
(0.966493 0.00757038 0)
(0.951566 -0.00881143 0)
(0.980735 0.00340888 0)
(0.954429 -0.00884747 0)
(0.474371 1.0185 2.36604e-18)
(0.529524 1.09289 0)
(0.481927 0.812252 -2.00734e-18)
(0.417801 0.538466 0)
(1.08171 1.32202 1.29224e-17)
(1.184 1.06771 1.08345e-17)
(0.510058 2.03143 0)
(0.68762 1.90828 0)
(0.697176 1.88808 0)
(0.5165 1.00422 -2.02164e-18)
(0.595371 0.302574 0)
(0.606301 0.236766 -6.73563e-18)
(1.15673 1.11473 0)
(1.21013 0.899192 0)
(1.23178 0.859556 -1.14118e-17)
(1.26856 0.697573 0)
(1.29716 0.49775 -2.69723e-17)
(0.983464 -0.00105181 0)
(0.97326 0.00224703 0)
(0.956027 0.00537204 0)
(0.997886 -0.000688223 0)
(0.978785 -0.00345052 0)
(0.968824 0.00192354 0)
(0.993106 -0.00181865 0)
(0.990335 -5.64941e-05 0)
(1.00353 -0.00126004 0)
(0.0227411 1.59091 2.30848e-17)
(0.0241236 1.5402 0)
(0.0235457 1.64184 -1.18685e-17)
(0.010408 1.63752 1.16532e-17)
(0.155818 1.97304 -4.46444e-17)
(0.0587711 1.84028 0)
(0.0887494 1.85887 0)
(-0.00176374 1.75933 0)
(0.00630199 1.68697 0)
(-0.00561358 1.70182 6.88797e-20)
(0.00105891 1.66883 0)
(0.00434086 1.71004 -2.78603e-17)
(0.000302707 1.67788 -6.83297e-18)
(0.00303078 1.74695 0)
(-0.0106423 1.73745 0)
(-0.00445882 1.68947 0)
(0.00437079 1.73312 0)
(0.00524382 1.69772 0)
(1.02304 0.00765931 0)
(0.995999 -0.00514307 0)
(1.00113 0.0146916 0)
(0.976819 0.0100865 0)
(0.9444 0.00528179 0)
(0.968036 0.00805678 0)
(0.967822 0.00329073 0)
(0.943831 -0.00595741 0)
(0.0058258 3.04654 1.5627e-19)
(0.0147316 3.03645 0)
(0.0147544 2.98835 0)
(0.0094157 2.92645 0)
(0.982878 3.79617 0)
(1.31139 2.84489 1.53458e-18)
(0.0228692 2.91039 0)
(-0.0178765 2.81107 0)
(-0.000240864 1.74847 0)
(-0.00384886 1.74529 0)
(-0.00383155 1.74636 0)
(-0.00739743 1.77838 -7.13473e-17)
(-0.00571362 1.76188 0)
(0.000724943 1.76857 0)
(0.0085684 1.68451 -6.32543e-17)
(0.000601137 1.71838 -3.39996e-17)
(-0.0083678 1.72028 2.94977e-17)
(-0.00719929 1.68215 0)
(0.746138 0.134796 -2.59322e-17)
(0.729483 0.0677271 -2.33416e-18)
(0.194315 1.40436 0)
(0.262457 1.3458 2.59948e-18)
(0.128645 1.44248 -1.87104e-17)
(0.113447 1.4389 -3.58124e-17)
(0.938041 0.00364644 0)
(0.977262 0.00305414 0)
(0.98308 0.021991 0)
(0.95031 0.0123832 0)
(0.00591577 1.7355 0)
(0.00554028 1.72786 0)
(0.00532586 1.69428 0)
(0.378708 0.345739 -9.9824e-18)
(0.257596 0.332213 1.10729e-17)
(0.363519 0.232419 0)
(1.20534 0.0986933 -1.65146e-18)
(1.2053 0.0527065 0)
(1.1141 0.0536721 0)
(1.05103 0.00775662 0)
(0.766327 0.0955022 0)
(0.786779 0.08546 7.25913e-17)
(0.756872 0.0494786 -3.56277e-17)
(-0.0190149 2.96264 -4.37612e-17)
(-0.0165702 2.91005 -5.38009e-17)
(0.0064425 3.03051 3.17357e-19)
(0.0400192 3.015 -4.32889e-17)
(-0.0163822 2.99485 -5.8695e-19)
(-0.0197663 2.97558 2.33239e-21)
(-0.0199918 3.03571 4.3348e-18)
(0.000354761 2.99521 -1.29224e-17)
(0.0656929 3.0241 -1.85181e-17)
(1.00325 0.00684877 0)
(0.998296 0.0100082 0)
(0.976952 0.00567235 0)
(0.972956 0.00224925 0)
(0.975238 -0.00736142 0)
(0.945978 -0.0107939 0)
(0.973078 0.00535922 0)
(0.972032 -0.00304584 0)
(0.946088 -0.00403681 0)
(0.640026 1.30357 1.11964e-17)
(0.758576 1.40888 0)
(0.453739 0.643359 2.08304e-19)
(0.564759 0.861564 -1.17577e-17)
(0.551864 0.801732 -6.32004e-18)
(0.406002 0.519605 -2.76164e-17)
(0.476831 1.17801 -1.61141e-17)
(0.502704 1.14806 1.52637e-17)
(0.667574 0.253069 -2.21124e-17)
(0.624992 0.279908 -6.19481e-18)
(0.630989 0.222505 -1.35721e-18)
(1.30071 0.514393 -1.51502e-17)
(1.30372 0.301691 1.27536e-17)
(0.000994752 1.67378 -3.60054e-17)
(-0.00713881 1.65348 0)
(1.06214 0.0298395 0)
(1.02842 0.0169119 0)
(1.02242 0.00612929 0)
(0.0110683 3.05193 0)
(0.010934 2.96304 -5.06502e-17)
(0.0121003 2.9759 0)
(0.0072958 2.90421 -3.92866e-18)
(0.00706862 3.06176 1.00324e-17)
(0.00640147 3.05936 0)
(0.72258 1.67326 -5.63761e-18)
(1.16732 2.35125 -8.02432e-19)
(0.813597 1.80066 -2.26569e-17)
(-0.0293627 2.92827 4.33431e-17)
(-0.0177196 2.89779 0)
(-0.030569 2.84455 0)
(-0.013291 1.70246 6.27997e-17)
(0.0123896 1.70687 5.33309e-18)
(-0.00470417 1.66783 6.27154e-17)
(0.248522 1.35508 -2.15628e-17)
(0.322575 1.31755 -6.97935e-18)
(0.0321102 1.54698 -3.57184e-17)
(0.0741739 1.49681 -1.99829e-17)
(0.0493613 1.4873 -5.66831e-17)
(-0.0296515 3.07323 1.45077e-16)
(-0.0178164 3.07051 6.42407e-17)
(0.00312141 2.98884 1.09354e-17)
(-0.00384098 2.98522 -1.01384e-17)
(0.00371639 2.93661 4.38809e-17)
(0.013602 3.06929 -5.18479e-17)
(-0.00889703 3.05688 -1.53911e-16)
(0.531615 1.09037 0)
(0.571642 0.97205 1.30097e-17)
(0.512439 0.832922 -2.34792e-17)
(0.421037 1.25793 2.02856e-17)
(0.439569 1.22591 3.68648e-17)
(1.28559 0.206115 -6.70092e-18)
(1.31476 0.350157 0)
(1.28635 0.179177 6.48377e-18)
(-0.000677331 1.70178 7.35342e-20)
(-0.00439957 1.68895 0)
(-0.000130853 1.66213 0)
(0.298858 1.33081 3.38422e-18)
(0.357927 1.29974 -2.49648e-17)
(0.390261 1.2931 -3.82833e-17)
(1.00212 -0.0310821 0)
(0.999065 -0.0117421 -1.04393e-18)
(0.00298516 1.76374 0)
(-0.0100069 1.78531 0)
(1.00493 -0.00221728 4.49578e-19)
(1.00936 -0.00187559 -1.04501e-17)
(-0.00764409 1.77304 -7.0255e-17)
(-0.00401445 1.78023 0)
(-0.00647944 2.9937 1.06286e-17)
(0.352965 3.10279 0)
(1.12726 0.690023 -2.0099e-17)
(1.00259 0.00397508 7.9095e-17)
(1.00186 0.00575676 0)
(1.01002 -0.00659976 3.31659e-19)
(0.0262577 1.86385 0)
(0.0609004 1.65547 0)
(0.00689557 1.78923 0)
(0.0233648 1.74726 -7.41323e-17)
(0.00640441 1.7428 6.67675e-17)
(0.985939 0.0207113 7.75246e-17)
(1.02993 0.00862693 0)
(1.05181 0.034518 0)
(0.00268495 1.757 0)
(0.00829475 1.75926 0)
(-0.00862602 1.77296 0)
(0.190918 1.95108 -8.43304e-17)
(1.00465 -0.0244069 0)
(0.999505 -0.0279112 0)
(1.00198 0.00115347 -3.5658e-17)
(0.991773 -0.00613795 4.40731e-17)
(1.00215 -0.00470399 0)
(0.000914375 1.74034 0)
(0.00755848 1.75752 0)
(0.00720722 1.74165 0)
(-0.00371008 1.78041 0)
(-0.0138432 1.76933 0)
(-0.00947904 1.77273 0)
(1.01249 0.00163921 0)
(1.0048 0.00835671 7.9256e-17)
(0.735693 1.41721 6.22998e-18)
(1.00388 -0.00573938 3.59904e-17)
(0.994534 0.00226466 -4.38583e-17)
(1.00747 0.00608283 0)
(0.99736 0.0104936 1.73999e-17)
(0.999946 0.00455171 6.56926e-17)
(0.994153 0.00174244 0)
(0.00732631 1.76944 0)
(-0.00319474 1.77113 -3.72108e-17)
(-0.00529755 1.77082 -3.08652e-17)
(1.13459 0.253993 -8.0445e-17)
(1.08531 0.0811464 0)
(-0.209358 2.97046 4.44916e-17)
(-0.223416 3.18292 1.73709e-18)
(0.0120452 3.0214 1.93748e-17)
(-0.0125577 2.98982 4.12941e-17)
(0.0774363 2.99327 0)
(-0.0262563 3.03187 6.77729e-18)
(-0.0633384 3.12642 4.69291e-18)
(-0.0659843 3.02291 2.75647e-17)
(-0.0530321 3.09683 0)
(0.648754 0.347138 0)
(0.537154 0.384115 0)
(1.0429 0.789212 1.40707e-17)
(1.04623 0.882937 5.29854e-17)
(1.14669 0.616081 0)
(1.15019 0.573864 0)
(1.00841 -0.00189646 4.39689e-17)
(1.01087 -0.000339519 -5.19483e-17)
(1.0095 0.00624198 0)
(1.01426 0.00624278 0)
(1.01433 0.00486932 0)
(1.01122 0.0148476 0)
(1.01928 -0.00548096 0)
(1.01336 0.0163869 0)
(1.01145 0.0149617 0)
(1.00572 0.00922717 0)
(0.0278882 1.85677 0)
(0.00257872 1.8537 0)
(0.0769694 1.88623 0)
(0.0476754 1.90695 0)
(0.0473725 1.63778 0)
(0.0293751 1.62633 3.75836e-17)
(0.0683624 1.66901 0)
(0.0431582 1.66704 2.62496e-17)
(0.0293495 1.70489 -5.91863e-17)
(-3.25551e-05 1.79344 0)
(0.00663615 1.78747 0)
(0.013658 1.79787 0)
(0.00455759 1.81997 0)
(0.020261 1.76538 -6.64056e-17)
(-0.0159601 1.74028 -4.86877e-17)
(0.0226519 1.75056 3.05266e-17)
(0.00359954 1.7579 0)
(0.0324025 1.74966 3.54685e-17)
(0.0180156 1.75518 -6.28876e-17)
(-0.0111922 1.77689 -1.09738e-16)
(-0.0102761 1.72936 -3.93592e-17)
(0.0161513 1.7432 4.15183e-17)
(0.989694 0.0244856 -3.57689e-17)
(0.995619 0.00879724 4.68812e-17)
(0.98582 0.0224214 3.95341e-17)
(0.971118 0.0149683 -4.47734e-17)
(1.03146 0.00483274 0)
(1.03596 -0.00510844 0)
(1.04486 0.0306567 0)
(1.03365 0.0154159 0)
(1.04965 0.016438 0)
(1.07069 0.0705686 0)
(1.06169 0.0535405 0)
(1.07693 0.0410021 0)
(-0.00760675 1.78013 9.37692e-18)
(0.00628315 1.75078 0)
(-0.0211101 1.76023 0)
(0.00788005 1.76062 -1.50601e-17)
(0.0123592 1.76581 7.11955e-20)
(0.0103745 1.762 3.97054e-17)
(-0.00684793 1.74798 4.28291e-17)
(0.000855424 1.76252 0)
(-0.0267522 1.76475 0)
(-0.00298875 1.75814 0)
(0.000901513 1.77509 0)
(-0.00339607 1.78274 0)
(0.326247 1.95201 -3.8452e-17)
(0.337375 1.94767 4.35119e-17)
(0.264179 1.48067 1.86338e-18)
(0.119049 1.54417 2.15686e-17)
(0.220059 1.64577 3.13896e-17)
(1.00152 -0.00380004 0)
(0.994242 -0.0208734 0)
(0.993729 -0.0183937 0)
(1.02503 -0.00398218 0)
(1.00288 -0.0123955 0)
(0.992105 -0.0127646 0)
(0.994734 -0.0136533 0)
(0.995388 0.00586533 0)
(1.00274 0.00754189 -3.76486e-17)
(1.01075 0.00419171 5.03312e-17)
(1.0039 0.00646078 4.15439e-17)
(1.0031 0.000882956 -4.87437e-17)
(0.670888 1.57452 0)
(0.614021 1.65995 -6.12796e-17)
(0.820146 1.32935 7.45706e-17)
(0.890312 1.25044 5.11041e-17)
(0.831072 2.09503 -4.83573e-17)
(0.828183 0.116381 -2.9812e-17)
(1.09786 0.123401 0)
(1.12643 0.190317 -6.74729e-17)
(1.14824 0.137835 1.00275e-18)
(0.951675 0.121096 0)
(-0.0512226 2.68452 3.47281e-17)
(-0.33381 2.60234 8.81156e-17)
(-0.756876 2.68267 -6.87597e-18)
(-0.596133 0.2759 -5.03354e-18)
(0.247092 3.08047 -2.09423e-17)
(0.103506 3.0237 0)
(0.189055 3.05183 1.48029e-18)
(0.0631988 2.73164 1.05111e-16)
(0.26233 2.79342 0)
(-0.0173645 3.06162 -1.31357e-18)
(-0.0341438 3.06271 -1.09125e-17)
(-0.00524828 3.10306 -4.37225e-17)
(-0.022676 3.11111 0)
(-0.0500933 3.05292 0)
(1.02046 2.21939 0)
(0.575012 0.961002 5.42884e-17)
(0.986966 1.05947 -3.90633e-17)
(0.947936 1.17269 0)
(0.772556 1.07666 -8.22613e-18)
(1.02333 0.990913 -5.76265e-17)
(0.192799 0.430191 1.25917e-17)
(0.658399 0.34439 1.12606e-17)
(0.691357 0.314343 4.9268e-18)
(0.480048 0.457445 -4.02823e-19)
(0.45081 0.405553 2.03979e-17)
(0.611437 0.390432 0)
(0.612442 0.471004 -1.23854e-18)
(0.624484 0.423791 0)
(0.545059 0.41315 0)
(0.592313 0.373076 0)
(0.726283 0.643184 2.19766e-17)
(1.16573 0.326834 5.61667e-17)
(1.15652 0.46536 0)
(1.1855 0.39148 0)
(0.765119 0.233696 7.76979e-18)
(0.74473 0.607062 4.06618e-17)
(0.644104 0.53965 -2.5975e-18)
(0.871269 0.435887 -5.91057e-17)
(1.00975 -0.00235247 1.02608e-17)
(1.01066 0.0028117 6.50597e-17)
(1.01127 0.00147291 0)
(1.01113 0.0108769 0)
(1.00916 0.00256529 -1.03378e-17)
(1.01064 -0.000819863 -6.17292e-17)
(1.00282 -0.00531132 0)
(0.992839 0.00159869 0)
(1.01407 0.00395376 0)
(1.01148 -0.00389525 0)
(1.01308 0.00842702 0)
(1.012 0.00410608 0)
(0.0113906 1.84805 0)
(0.0148596 1.84277 0)
(0.0837374 1.86359 -4.16876e-17)
(0.164002 1.95267 -3.28666e-17)
(0.0934497 1.94689 8.13422e-17)
(0.089148 1.96318 1.83189e-17)
(0.117145 1.86994 0)
(0.126792 1.74051 7.47455e-17)
(0.0922987 1.74887 0)
(0.184187 1.64928 3.93614e-17)
(0.166067 1.58259 -5.07886e-17)
(0.136119 1.77741 5.9331e-17)
(0.184748 1.86153 -3.4142e-17)
(0.134445 1.86224 -4.18264e-17)
(0.189637 1.82288 5.42948e-19)
(0.149261 1.74595 0)
(0.182247 1.73086 -5.61078e-17)
(0.0400555 1.73427 7.68361e-18)
(0.0219631 1.6864 0)
(0.0281622 1.68954 -7.43465e-17)
(0.031539 1.69671 0)
(0.0378458 1.66986 3.64033e-17)
(0.0159304 1.67549 0)
(0.0248626 1.75238 5.4877e-17)
(0.040651 1.76285 0)
(0.0274795 1.77145 0)
(0.0154056 1.77651 4.45602e-17)
(0.000612901 1.73229 -1.09763e-16)
(0.0350861 1.72331 -7.21267e-17)
(0.00750129 1.73931 -5.73608e-20)
(-0.00483835 1.74832 6.93163e-17)
(-0.0168889 1.77184 -3.81327e-17)
(0.0022278 1.78313 0)
(-0.0147689 1.78709 0)
(0.025952 1.76154 2.18409e-17)
(0.0208136 1.78248 1.78291e-17)
(0.0331607 1.76294 6.42533e-17)
(0.0312099 1.75584 0)
(0.0153884 1.745 9.9845e-17)
(0.00156717 1.74552 1.38818e-17)
(0.00677576 1.75224 -1.74571e-17)
(0.00274708 1.76393 7.52582e-17)
(0.021942 1.72523 -2.6676e-18)
(0.0110993 1.7363 -4.60621e-17)
(0.999723 0.00357055 6.32507e-17)
(0.997398 0.00415441 1.14e-17)
(0.999939 0.00211765 0)
(0.978715 0.0696386 -8.82775e-17)
(0.962465 0.03758 3.9165e-17)
(0.938352 0.0243942 -3.42272e-17)
(0.976069 0.0935143 4.64108e-18)
(1.02295 0.0130406 0)
(1.02768 0.00890619 -6.18981e-17)
(1.03068 0.00764247 -1.16585e-17)
(1.01489 0.0409921 4.13812e-18)
(1.01881 0.0255041 -1.81632e-17)
(0.992519 0.0333421 0)
(0.979994 0.031724 3.2332e-18)
(0.999438 0.0260351 0)
(0.99251 0.0302133 0)
(1.00421 0.0133362 0)
(1.00106 0.0030836 0)
(0.994817 0.019592 -2.43952e-18)
(0.994891 0.0243801 4.18717e-17)
(0.99747 0.0293771 1.24604e-18)
(0.977454 0.0206251 1.69093e-17)
(0.991163 0.0639844 1.12913e-17)
(1.03817 0.0563515 0)
(1.03664 0.0994816 0)
(0.025817 1.7589 -4.78257e-17)
(0.0271175 1.73471 -6.27799e-19)
(0.0142113 1.74478 0)
(0.0170507 1.77085 -5.22311e-17)
(0.00354751 1.78101 8.09981e-18)
(0.0111733 1.76763 -3.39217e-18)
(0.00825979 1.75382 -7.51293e-17)
(0.0120571 1.74786 2.57415e-20)
(0.0129753 1.74751 -5.57829e-18)
(0.00258757 1.75199 3.33984e-17)
(0.00227679 1.75703 2.94585e-17)
(0.0101389 1.74992 -2.16083e-17)
(0.0135353 1.75165 -3.81873e-17)
(0.286778 1.82858 1.82471e-17)
(0.249594 1.79682 -1.64334e-17)
(0.570848 1.77986 -8.50569e-17)
(0.447183 1.91885 3.25996e-17)
(0.48497 1.84788 0)
(0.286018 1.4714 -5.60759e-18)
(0.305862 1.45081 -2.99563e-18)
(0.177181 1.52087 -6.91148e-18)
(0.17485 1.54322 -2.13067e-17)
(0.245319 1.53662 -3.40792e-17)
(0.252339 1.505 0)
(0.184182 1.52093 -7.49716e-18)
(0.0642251 1.59724 -1.04814e-17)
(0.0963704 1.56356 5.7986e-17)
(0.0277748 1.56807 2.02014e-17)
(0.691555 1.40801 -4.4617e-17)
(0.498571 1.41322 0)
(1.02612 -0.00107678 -8.45686e-19)
(1.00912 0.00814717 8.00055e-19)
(1.01467 0.0128674 2.47498e-18)
(1.02183 0.00834912 -2.45642e-17)
(1.02354 0.00205475 0)
(0.469211 1.45122 0)
(0.399592 1.34744 0)
(0.633695 1.17982 0)
(0.486885 1.16341 0)
(0.81835 2.08213 2.71834e-17)
(0.818525 1.86524 0)
(0.464637 2.08925 -1.15022e-18)
(0.453889 1.70511 0)
(0.500255 1.78446 7.91078e-17)
(0.533891 1.85229 5.63271e-17)
(0.827925 0.152571 0)
(0.812104 0.166194 -3.62178e-18)
(0.900552 0.118803 -8.81375e-18)
(0.83657 0.110297 -2.07362e-17)
(0.837054 0.085256 1.8592e-17)
(0.998532 0.238036 -1.88391e-18)
(0.889061 0.312364 2.67905e-17)
(0.817796 0.290301 8.35167e-18)
(0.923973 0.236181 -2.5701e-18)
(0.904703 0.160989 6.09845e-17)
(0.887034 0.170621 -1.30838e-17)
(0.874165 0.243163 7.92106e-18)
(0.87431 0.212184 0)
(0.940915 0.183811 8.57286e-18)
(0.965894 0.171955 0)
(0.956384 0.247089 0)
(1.05401 0.126363 -1.90113e-17)
(0.986253 0.168466 2.9487e-17)
(0.987887 0.202794 2.38814e-17)
(1.05076 0.215558 0)
(0.999673 0.0331438 -4.86173e-17)
(1.00137 0.0368992 1.05511e-17)
(1.00547 0.0429854 -1.04746e-17)
(1.01581 0.0583679 5.22602e-17)
(0.98578 0.0669156 -3.44544e-17)
(0.925108 0.106851 0)
(0.933521 0.0696616 0)
(0.928251 0.0601818 5.14755e-17)
(0.907994 0.0629995 4.41131e-18)
(1.00217 0.11146 -5.23804e-17)
(0.99576 0.138486 -4.30057e-18)
(1.00018 0.141831 -2.62621e-17)
(0.98153 0.150804 0)
(1.00428 0.103909 0)
(1.00528 0.0982028 4.17991e-17)
(1.00239 0.101266 -1.13305e-17)
(0.280217 1.70887 1.94355e-17)
(0.39494 2.26436 -1.36415e-17)
(0.734776 2.46149 2.68989e-17)
(0.893454 2.70568 -4.49027e-18)
(0.894212 2.28592 -2.47872e-18)
(0.989444 2.34657 -3.11354e-18)
(0.944642 1.91775 7.72797e-18)
(0.888038 2.57569 -4.88403e-18)
(0.882205 2.55089 -2.8044e-17)
(0.993365 2.79151 -5.79684e-18)
(1.12921 2.62641 6.95038e-18)
(1.21652 2.51777 0)
(0.559438 0.983196 -2.27812e-18)
(-0.0774501 1.31657 -1.95383e-17)
(0.0142593 0.66987 -1.44113e-17)
(-0.0719346 0.827212 -2.56176e-17)
(0.372724 0.459308 -1.74687e-17)
(0.393943 0.50074 1.82411e-17)
(0.336595 0.617759 -1.87058e-17)
(0.227492 0.497133 7.01989e-18)
(0.346543 0.414519 -1.71605e-17)
(0.746044 0.271453 2.83041e-17)
(0.706461 0.306731 0)
(0.729988 0.282666 5.77177e-18)
(0.624176 0.549719 -1.64774e-17)
(0.543044 0.522759 3.23084e-17)
(0.435502 0.588433 -5.5159e-18)
(0.521675 0.491186 0)
(0.611915 0.837708 -2.98491e-17)
(0.738637 0.871359 3.53179e-17)
(0.67591 0.97242 5.85873e-17)
(0.775242 0.84584 1.65496e-17)
(0.885273 0.923664 -2.48652e-18)
(0.865305 0.946149 -6.9273e-18)
(0.77421 0.700083 1.84262e-17)
(0.835795 0.733261 5.59322e-18)
(0.933991 0.803767 0)
(0.931468 0.702144 2.9853e-17)
(0.943743 0.331614 4.2709e-17)
(1.07219 0.330601 -2.8414e-17)
(0.986155 0.289405 -5.57613e-17)
(0.912241 0.398605 5.41669e-17)
(0.975038 0.447214 0)
(1.00904 0.4224 0)
(0.7887 0.390062 4.72475e-17)
(0.777632 0.307172 0)
(0.78885 0.30077 -2.04373e-17)
(0.813907 0.318927 6.43008e-17)
(0.823497 0.495241 -1.20957e-16)
(0.768818 0.555522 -1.08082e-17)
(0.794491 0.510778 1.74303e-17)
(0.721926 0.456295 -1.19016e-17)
(0.699175 0.474703 -1.13897e-17)
(0.649481 0.457611 4.76912e-18)
(1.01389 0.0193704 -5.97102e-17)
(1.00887 -0.00443379 0)
(1.01247 0.0171042 -5.28816e-20)
(1.01097 0.0235242 9.37616e-18)
(1.00869 0.0069378 -3.35443e-17)
(1.00477 0.0214874 2.59709e-17)
(0.997396 0.00913561 0)
(1.00068 -0.00755329 1.70282e-17)
(1.00974 0.0047082 -1.27252e-17)
(1.01012 0.00101528 2.98323e-18)
(1.00512 0.00193509 3.77659e-18)
(-0.0037648 1.81856 0)
(0.0137849 1.79594 0)
(0.0216796 1.83158 0)
(0.00217101 1.82878 0)
(0.0466282 1.80453 -1.57673e-17)
(0.0469198 1.83026 -9.83052e-17)
(0.0591038 1.76978 -2.78768e-17)
(0.0667781 1.83038 -8.40081e-17)
(0.0192411 1.77631 6.02009e-17)
(0.0309518 1.79514 5.28854e-17)
(0.0355889 1.80301 1.13115e-16)
(0.0225832 1.80823 6.00575e-17)
(0.0136781 1.79909 1.03652e-17)
(0.00834016 1.81024 2.1604e-18)
(0.0419129 1.68519 -5.92186e-17)
(0.0629055 1.69377 0)
(0.0564199 1.712 -4.10608e-17)
(0.0591919 1.75858 -7.43638e-18)
(0.132783 1.68632 -1.4724e-17)
(0.0917604 1.59839 0)
(0.0861852 1.5931 6.03079e-17)
(0.114153 1.59111 3.97149e-17)
(0.112456 1.69222 -5.27623e-17)
(0.0926806 1.70914 -8.06639e-17)
(0.05985 1.62763 0)
(0.0253778 1.75399 3.69132e-17)
(0.0183185 1.72642 -1.34661e-17)
(0.0195378 1.74393 0)
(0.0417151 1.73747 1.98348e-17)
(0.0357482 1.73774 1.32566e-17)
(0.00818944 1.77759 8.39634e-18)
(0.000938344 1.77324 -8.57005e-17)
(-0.00708011 1.77113 -6.46677e-17)
(-0.0181976 1.7692 4.08952e-17)
(-0.0018771 1.74993 0)
(0.0138598 1.78284 0)
(0.00887431 1.77679 -3.91231e-17)
(-0.00112689 1.77038 -2.72119e-18)
(0.00600822 1.77901 0)
(-0.0047925 1.78241 2.93884e-17)
(0.00660296 1.77636 4.44155e-18)
(1.00035 0.027668 0)
(1.00498 0.0350314 1.84587e-18)
(0.997651 0.0174968 5.30901e-17)
(1.01936 0.0181441 0)
(1.01501 0.0214393 0)
(0.992841 -0.000387183 2.01729e-17)
(0.998589 0.008102 -6.96933e-17)
(0.996467 0.00611598 -3.85339e-17)
(1.00051 0.00391845 0)
(1.00748 0.0100486 0)
(0.996872 0.0177255 1.64528e-17)
(0.992018 0.0183905 0)
(0.999206 0.0151644 0)
(0.00146526 1.74307 0)
(0.0162697 1.76582 -3.90061e-17)
(0.0222535 1.74548 3.93861e-17)
(0.00716462 1.77118 0)
(0.0112961 1.77385 -3.80224e-17)
(0.00169755 1.76663 -1.71975e-17)
(-0.00627029 1.77306 0)
(0.343383 1.73537 0)
(0.237605 1.79537 3.64822e-17)
(0.221685 1.72169 0)
(0.286252 1.77171 5.97235e-17)
(0.355195 1.78246 0)
(0.335506 1.82138 3.98687e-17)
(0.709573 1.69295 -2.57553e-21)
(0.695931 1.40189 -1.14907e-17)
(0.752571 1.41484 -3.63379e-17)
(0.530042 1.40376 -1.0616e-17)
(0.496091 1.54266 0)
(0.54734 1.59791 0)
(0.648511 1.40046 0)
(0.601259 1.38081 7.33122e-18)
(0.353942 1.67334 -2.85774e-17)
(0.440895 1.53929 5.45386e-18)
(0.413592 1.68108 9.16063e-19)
(0.36986 1.44055 0)
(0.447723 1.42618 0)
(0.410653 1.42947 3.61523e-18)
(0.42499 1.51555 0)
(0.527753 1.08551 0)
(0.468906 0.974861 -4.69814e-17)
(0.612247 0.892272 -4.85273e-18)
(0.30111 1.23213 0)
(0.453773 1.30274 -8.67362e-17)
(0.692249 0.970413 -5.43917e-18)
(0.704332 1.12106 0)
(0.739062 1.06048 -3.4849e-17)
(0.691929 0.956028 0)
(0.673711 0.960636 0)
(0.72708 2.22899 2.07147e-17)
(0.707051 2.40762 -3.6965e-18)
(0.492282 2.30151 -4.72109e-17)
(0.472573 2.17284 3.35845e-20)
(0.750103 2.02346 0)
(0.714392 1.97542 -8.24586e-18)
(0.776537 1.84036 1.21222e-18)
(0.81416 1.66133 -7.21318e-18)
(0.345004 1.93293 0)
(0.240466 1.65361 3.40198e-17)
(0.298383 1.6453 0)
(0.846637 0.205641 0)
(0.803378 0.194768 0)
(0.783295 0.194075 0)
(0.836607 0.248627 3.68816e-18)
(0.77493 0.226475 -1.27013e-18)
(0.907814 0.0932284 2.02263e-17)
(0.903598 0.116298 0)
(0.888369 0.0915796 -3.90604e-18)
(0.851826 0.0860349 -1.71699e-17)
(0.865814 0.0685752 3.24658e-18)
(1.04652 2.92726 -2.18926e-17)
(0.96388 2.86123 0)
(0.953812 2.9486 -6.26165e-17)
(0.628894 3.16618 -1.71791e-17)
(0.757006 2.69728 1.91982e-17)
(0.594162 1.11947 -3.40017e-17)
(0.598042 1.10687 0)
(0.45414 0.82475 8.37471e-18)
(0.42878 0.885751 2.57388e-17)
(0.251651 0.885899 1.23336e-17)
(0.322538 0.645049 1.71142e-18)
(0.501332 0.622693 -1.56296e-17)
(0.558746 0.638353 0)
(0.52411 0.777526 0)
(0.399802 0.752983 0)
(0.944834 0.664613 5.37466e-18)
(0.825645 0.577288 1.74946e-17)
(0.81173 0.618788 -1.23229e-17)
(0.853326 0.536451 2.77636e-17)
(0.95501 0.533758 0)
(0.968948 0.583883 -7.1236e-18)
(0.749971 0.426163 2.38179e-17)
(0.76931 0.385634 4.20951e-17)
(0.690863 0.40368 -1.46339e-17)
(0.690652 0.39116 1.24074e-17)
(0.750391 0.360352 7.97461e-20)
(0.71312 0.348238 -2.60235e-17)
(1.01328 -0.00327328 -2.40915e-17)
(1.01333 -0.00766117 -5.75654e-17)
(1.01513 0.0156358 1.95437e-17)
(1.00871 0.0203793 6.5728e-17)
(0.994436 0.0280288 0)
(0.990057 0.00496844 1.57327e-17)
(0.0557476 1.76781 2.3524e-17)
(0.0554576 1.77412 0)
(0.0554963 1.75768 -5.34582e-17)
(0.0544603 1.75635 -4.45915e-17)
(0.0474112 1.78057 -3.89724e-17)
(0.0473739 1.78607 0)
(0.0264093 1.76765 0)
(0.0090887 1.76402 -1.73571e-17)
(0.00424981 1.7614 -1.92304e-17)
(-0.00309157 1.7716 -4.62712e-17)
(-0.0117112 1.74653 -8.24501e-18)
(0.0240071 1.75146 -4.63132e-18)
(0.352226 1.82381 -9.00082e-17)
(0.341528 1.79244 -1.35438e-16)
(0.319647 1.76735 8.06489e-17)
(0.329468 1.78861 -5.27623e-18)
(0.426281 1.56567 0)
(0.392315 1.75511 8.04327e-17)
(0.416723 1.65936 5.41975e-17)
(0.320704 1.73408 5.38474e-17)
(0.330896 1.73929 0)
(0.328252 1.64119 0)
(0.344893 1.62256 -5.55581e-17)
(0.333716 1.49904 -7.65807e-17)
(0.373917 1.52268 -4.15634e-17)
(0.307216 1.50763 -4.27775e-19)
(0.281328 1.60485 -1.6374e-18)
(0.240197 1.52953 -9.46049e-18)
(0.751141 1.47197 -9.37535e-19)
(0.802552 1.59679 0)
(0.801246 1.49275 1.42375e-17)
(0.737654 1.83493 0)
(0.72274 1.77385 0)
(0.747251 2.16729 6.3596e-18)
(0.87914 2.72099 5.72266e-18)
(0.798367 2.65882 -9.92453e-18)
(0.340709 1.20769 0)
(0.448148 1.22652 -9.63457e-18)
(0.646978 1.15775 -2.68324e-17)
(0.630729 1.97673 0)
(0.550416 2.42223 8.02768e-19)
(0.315771 2.31891 0)
(0.64395 0.789212 1.28539e-18)
(0.670044 0.80098 -6.59732e-17)
(0.677179 0.766923 -5.3715e-19)
(0.556725 0.767023 9.43878e-20)
(0.59427 0.695432 8.85972e-18)
(0.802647 2.537 -1.61692e-17)
(0.809702 2.56988 3.7262e-18)
(0.807289 2.22654 -5.69924e-18)
(0.730583 2.05349 3.68744e-17)
(0.57143 2.17098 4.98962e-17)
(0.727928 2.38385 -2.63345e-17)
(0.626583 2.42657 -2.91176e-17)
(0.708206 2.04199 -1.47402e-19)
(0.582031 2.04221 2.4973e-17)
)
;

boundaryField
{
    wall-4
    {
        type            calculated;
        value           uniform (0 0 0);
    }
    velocity-inlet-5
    {
        type            calculated;
        value           uniform (1 0 0);
    }
    velocity-inlet-6
    {
        type            calculated;
        value           uniform (0 3 0);
    }
    pressure-outlet-7
    {
        type            calculated;
        value           nonuniform List<vector> 8((0.00264609 1.73306 0) (-0.0182793 1.68948 5.36173e-17) (0.00807319 1.76479 0) (-0.00889221 1.78745 0) (-0.000737887 1.75147 0) (0.0029836 1.75594 0) (-0.00376611 1.74593 0) (0.000766242 1.76839 0));
    }
    wall-8
    {
        type            calculated;
        value           uniform (0 0 0);
    }
    frontAndBackPlanes
    {
        type            empty;
    }
}

