/*--------------------------------*- C++ -*----------------------------------*\
  =========                 |
  \\      /  F ield         | OpenFOAM: The Open Source CFD Toolbox
   \\    /   O peration     | Website:  https://openfoam.org
    \\  /    A nd           | Version:  6
     \\/     M anipulation  |
\*---------------------------------------------------------------------------*/
FoamFile
{
    version     2.0;
    format      ascii;
    class       volVectorField;
    location    "0";
    object      U;
}
// * * * * * * * * * * * * * * * * * * * * * * * * * * * * * * * * * * * * * //

dimensions      [0 1 -1 0 0 0 0];

internalField   nonuniform List<vector> 
918
(
(0.985956 0.00310587 0)
(-0.00408871 2.96745 0)
(0.00346927 1.68631 0)
(0.980894 -0.00196261 0)
(-0.00850106 1.65597 -1.5769e-21)
(0.00143842 2.95101 -1.42845e-18)
(0.881606 1.15784 4.97622e-19)
(0.520879 0.265013 -5.79063e-21)
(0.999959 0.000137401 0)
(0.0706249 1.50072 0)
(-0.0134541 1.53118 0)
(0.872331 -0.00151042 0)
(0.00893828 2.93453 0)
(0.00345249 2.79834 0)
(-0.00048754 3.18456 7.52656e-19)
(-0.00309227 1.59306 -1.20341e-20)
(0.623704 0.121259 3.52287e-19)
(0.249613 1.6996 3.52008e-19)
(0.970573 0.0134551 0)
(0.00298525 1.57914 0)
(0.254316 0.299201 -3.2458e-19)
(1.00153 -0.00454755 0)
(1.00122 -0.00812407 0)
(0.975512 -0.00453911 0)
(0.80297 -0.0274941 0)
(0.0323347 2.63221 0)
(-0.0109115 2.91582 4.81732e-19)
(-0.00751795 1.69627 0)
(-0.00896935 1.7699 0)
(-0.0156283 1.70916 0)
(-0.00133227 1.80264 0)
(0.00237705 1.67372 1.23504e-21)
(-0.00191166 1.59014 0)
(-0.0198675 2.98948 -5.02299e-23)
(-0.0138314 3.00795 1.12492e-18)
(0.00158496 2.99971 0)
(0.906531 -0.00344239 0)
(0.287335 0.925325 2.18238e-20)
(0.834377 1.20747 -7.17111e-19)
(0.984602 1.01364 6.67143e-19)
(0.705586 1.3293 -1.10744e-19)
(0.764114 1.25878 6.18709e-19)
(0.56702 0.318903 5.6477e-21)
(0.565605 0.214901 0)
(1.20242 0.559586 0)
(0.509029 0.336486 2.61161e-20)
(0.489003 0.256081 -2.71081e-20)
(0.921751 -0.00190542 0)
(0.999851 0.0004421 0)
(0.999939 0.000214894 0)
(1.00355 -0.00705171 0)
(1.00094 -0.00116664 0)
(1.00013 -0.000329146 0)
(0.0214627 1.5568 -3.68016e-19)
(0.0417515 1.62808 0)
(0.115113 1.51937 0)
(0.0210907 1.63782 0)
(0.0334735 1.4556 0)
(-0.0083545 1.59795 0)
(-0.0141209 1.62917 0)
(-0.00869631 1.52185 0)
(-0.0149082 1.65078 0)
(-0.00902714 1.5503 0)
(0.93602 0.0120281 0)
(0.930292 0.00403535 0)
(0.880447 -0.00626429 0)
(0.922464 0.0123285 0)
(0.848415 0.0155783 0)
(0.0138534 3.0035 5.15873e-19)
(0.0116725 3.00441 0)
(0.00745979 3.00382 0)
(0.0107157 2.99785 5.77787e-24)
(0.00627941 2.96184 -7.76246e-19)
(0.0119874 2.98439 0)
(0.00879745 2.90874 0)
(0.0212479 2.93407 1.06416e-24)
(0.0034227 2.83012 0)
(0.0285738 2.91969 0)
(-0.0003506 2.74565 0)
(0.303944 3.58067 0)
(-0.12769 3.65992 0)
(0.145649 3.27518 -6.97441e-19)
(-0.00195074 3.01445 0)
(0.0109735 1.76023 0)
(-0.002363 1.67312 1.18708e-20)
(-0.00174692 1.59216 -2.31508e-20)
(0.694945 0.16192 -1.20732e-19)
(0.655387 0.0623642 -1.1454e-19)
(0.665556 0.194433 -3.62806e-19)
(0.629661 0.132881 -2.42741e-19)
(0.241688 1.29356 0)
(0.270402 1.72421 -3.7177e-19)
(0.450663 1.60714 6.22013e-19)
(0.990199 0.0117585 0)
(0.952758 0.0137143 0)
(0.999899 0.00083926 0)
(1.00332 0.0083751 0)
(1.00238 0.0132757 -5.94181e-19)
(0.992156 0.00601683 4.52635e-19)
(-0.00235583 1.66318 0)
(0.00676853 1.58211 0)
(-0.011121 1.7205 0)
(-0.00764171 1.67719 0)
(0.00343386 1.58171 0)
(0.293145 0.321336 9.88052e-20)
(0.335791 0.29857 0)
(0.992582 -0.00417968 0)
(0.960366 0.00203061 0)
(0.890242 0.0337569 0)
(0.864831 0.0226099 0)
(0.822205 0.00652581 0)
(1.05616 0.0132113 0)
(0.832951 0.00654413 0)
(0.744869 -0.0129329 4.52681e-19)
(-0.0331222 2.86859 2.8383e-19)
(0.0364529 2.91262 0)
(0.0463656 2.88864 0)
(0.00420699 2.69839 0)
(-0.00750785 2.98734 4.48931e-19)
(-0.0123302 2.89921 0)
(-0.00983914 2.99203 -1.40877e-18)
(-0.00957301 2.93158 4.84998e-19)
(-0.0067237 1.79577 0)
(0.000762618 1.78324 0)
(0.00184999 1.67949 -3.98725e-22)
(0.00410273 1.66997 0)
(-0.00244559 1.58479 0)
(0.95556 0.00510863 0)
(0.909931 0.00988195 0)
(0.891829 -0.011836 0)
(0.956871 -0.00468499 0)
(0.905003 -0.00456493 0)
(0.446342 1.12964 -3.01397e-20)
(0.520686 1.21516 0)
(0.148354 0.782882 6.35645e-21)
(0.222522 0.562981 0)
(0.939146 1.065 -1.94997e-19)
(1.06503 0.848472 4.02229e-19)
(0.379473 1.61094 0)
(0.538575 1.45354 0)
(0.61066 1.41539 0)
(0.297061 0.153951 -1.36163e-19)
(0.599716 0.289284 0)
(0.587648 0.211077 7.11363e-20)
(1.03292 0.907425 0)
(1.11998 0.747137 0)
(1.14966 0.687045 -3.55545e-19)
(1.20356 0.591706 0)
(1.25554 0.41798 3.6225e-20)
(0.956488 0.00184807 0)
(0.957357 -0.00489073 0)
(0.910288 0.000555477 0)
(0.987809 -0.0024486 0)
(0.970682 4.93308e-05 0)
(0.947122 9.90713e-05 0)
(1.00087 0.0023255 0)
(1.00012 0.000512276 0)
(0.999925 0.000488361 0)
(0.0156011 1.63212 2.00159e-19)
(0.0677118 1.54182 0)
(-0.00202541 1.64781 3.25333e-19)
(0.00677648 1.55235 -2.79141e-19)
(0.108518 1.71858 -2.94278e-19)
(0.0693603 1.68409 0)
(0.217543 1.61278 0)
(0.000729894 1.59711 0)
(0.0026786 1.45294 0)
(-0.0127492 1.69171 -9.02562e-22)
(-0.00558086 1.63137 0)
(-0.00997869 1.68097 -4.51561e-20)
(-0.00114319 1.60332 8.51773e-20)
(-0.0212937 1.60517 0)
(-0.0168206 1.62696 0)
(-0.0114045 1.48788 0)
(-0.0121487 1.66409 0)
(-0.00338069 1.56002 0)
(0.994571 0.0168296 0)
(0.958308 0.00468227 0)
(0.978902 0.0109769 0)
(0.930763 0.00667471 0)
(0.888263 -0.000563012 0)
(0.945669 0.00998616 0)
(0.940412 0.00333547 0)
(0.884688 0.00485968 0)
(0.00933769 3.06447 -4.44403e-21)
(0.0143269 3.05632 0)
(0.0123754 2.97188 0)
(0.00781804 2.88038 0)
(0.901219 3.9787 0)
(1.20365 3.35955 7.32195e-19)
(0.0766458 3.09939 0)
(-0.0175888 2.92635 0)
(0.00640005 1.77512 0)
(0.014765 1.75534 0)
(0.0111123 1.75779 0)
(0.00323631 1.79045 2.89296e-21)
(0.0166928 1.76588 0)
(0.00323284 1.78241 0)
(-0.00356117 1.59156 2.57744e-21)
(-0.00382508 1.67988 2.68941e-20)
(0.0020528 1.6713 2.36292e-20)
(-0.00065074 1.58365 0)
(0.710204 0.116559 1.737e-19)
(0.668669 0.0430636 -1.69082e-19)
(0.189011 1.39537 0)
(0.313694 1.21823 -1.73775e-19)
(0.144617 1.44573 -5.05422e-19)
(0.189139 1.34925 5.0447e-19)
(0.900479 0.0119214 0)
(0.971537 0.0199679 0)
(0.980857 0.0183146 0)
(0.933033 0.0236692 0)
(-0.000145089 1.66823 0)
(0.00158781 1.66865 0)
(0.010227 1.57509 0)
(0.465 0.353651 2.39202e-19)
(0.416305 0.337296 -2.95251e-19)
(0.420058 0.257775 0)
(1.17836 0.0853421 -5.99599e-21)
(1.16503 0.0308364 0)
(1.08358 0.0458929 0)
(0.99911 0.00204237 0)
(0.735626 0.103405 0)
(0.777857 0.0698372 -7.26943e-19)
(0.700939 0.0481309 2.79214e-19)
(0.011371 2.98205 3.41029e-19)
(-0.0281773 2.86799 3.20592e-20)
(0.00609177 3.05067 -9.532e-21)
(0.0149363 3.04123 3.63129e-19)
(-0.00997091 3.0001 1.6092e-20)
(-0.00879669 2.95401 -6.56459e-23)
(-0.0150209 3.01297 -3.06679e-19)
(0.0119534 3.02421 2.1619e-19)
(0.00585441 3.0314 -3.47324e-19)
(0.976802 0.00702172 0)
(0.970882 0.0082671 0)
(0.919443 0.0062273 0)
(0.953833 0.0147644 0)
(0.949307 -0.00105904 0)
(0.886687 0.00480556 0)
(0.949443 -0.00180302 0)
(0.944126 -0.00689051 0)
(0.892583 -0.0121298 0)
(0.690985 1.4394 1.53143e-19)
(0.712919 1.54529 0)
(0.120098 -0.149761 -2.5727e-20)
(0.218738 0.352354 -2.91154e-19)
(0.141473 0.428191 4.60548e-20)
(0.203549 0.139318 -1.05498e-19)
(0.407573 0.754603 8.05452e-19)
(0.313707 0.462156 2.40582e-19)
(0.66442 0.226817 2.63962e-19)
(0.629789 0.272334 6.48604e-20)
(0.614178 0.175674 1.36289e-19)
(1.24734 0.455254 2.31017e-19)
(1.27693 0.255255 2.42999e-19)
(0.000331122 1.64733 1.30398e-19)
(0.0200505 1.58552 0)
(1.03163 0.0204763 0)
(1.00931 0.00921233 0)
(0.966512 -0.00581193 0)
(0.0108143 3.07245 0)
(0.0165084 2.94563 6.17335e-19)
(0.0143733 2.95824 0)
(0.0055996 2.85358 -6.148e-19)
(0.00607944 3.08753 1.45549e-19)
(0.0100343 3.07843 0)
(0.740107 1.82992 -1.56175e-19)
(1.24907 2.59897 5.15434e-19)
(0.719771 1.99528 -1.07809e-18)
(0.0229575 2.98646 -2.62894e-19)
(0.0408671 3.01235 0)
(-0.0306328 2.88878 0)
(-1.96925e-05 1.67415 -2.871e-21)
(-0.00327348 1.67976 -6.32808e-20)
(0.00172522 1.59355 -3.6752e-21)
(0.273358 1.29073 5.48046e-19)
(0.351909 1.10331 -3.79399e-19)
(0.0521258 1.5852 3.33444e-19)
(0.0924675 1.51368 -4.14755e-19)
(0.120834 1.45385 5.26761e-20)
(0.00448331 3.11821 -8.64331e-19)
(0.0187859 3.11694 9.59509e-19)
(-0.00435046 2.98275 3.99455e-19)
(-0.000258566 2.97818 -3.64606e-19)
(-0.0146065 2.88225 -4.06965e-19)
(0.0114643 3.09828 -1.07125e-18)
(0.00666237 3.10204 1.0693e-18)
(0.440187 0.556138 0)
(0.374441 0.436097 2.78503e-19)
(0.168682 -0.0634363 -8.47272e-20)
(0.406303 0.888048 6.69282e-19)
(0.390077 0.721207 -1.0195e-18)
(1.25279 0.176775 -4.92636e-20)
(1.27322 0.310537 0)
(1.25072 0.128797 9.69733e-20)
(6.43987e-05 1.69827 -1.10844e-21)
(0.00954486 1.6712 0)
(0.0138979 1.61964 0)
(0.323249 1.15464 -1.9301e-19)
(0.354037 1.03298 -4.53373e-19)
(0.373012 0.92381 8.12357e-19)
(1.00402 -0.0105382 0)
(1.0035 -0.00556454 1.07809e-19)
(-0.00623213 1.79595 0)
(-0.00782285 1.8 0)
(1.00207 0.00180852 7.7789e-22)
(1.00442 0.00716628 2.22123e-19)
(0.000887228 1.79012 -3.75729e-21)
(-0.00395753 1.79029 0)
(0.0448359 3.18419 1.317e-19)
(0.368403 3.53662 0)
(1.09148 0.700513 5.87396e-20)
(1.00592 0.00521963 -2.23471e-21)
(1.00122 -0.0138512 0)
(1.00044 -0.00165525 5.37213e-22)
(0.0212951 1.82251 0)
(0.025304 1.7601 0)
(-0.0135117 1.79609 0)
(-0.00881305 1.78126 6.33836e-20)
(0.00277587 1.79257 3.15903e-20)
(1.00172 0.0128259 6.95713e-22)
(1.04385 0.00949943 0)
(1.07259 0.0274876 0)
(0.013671 1.76227 0)
(0.0087937 1.78103 0)
(-0.00589746 1.79348 0)
(0.0740673 1.80815 -1.78808e-19)
(1.01264 -0.0172101 0)
(1.00994 -0.0212272 0)
(1.00592 -0.00119963 1.35792e-19)
(1.00097 -0.00379778 -1.63712e-19)
(1.00206 -0.00287789 0)
(0.00209885 1.77232 0)
(-0.00393489 1.79382 0)
(0.00114206 1.78395 0)
(-0.0055194 1.79531 0)
(-0.00409004 1.79289 0)
(-0.00527898 1.79486 0)
(1.0226 0.00642263 0)
(1.02032 0.00389088 -2.86838e-22)
(0.689097 1.20261 3.52095e-19)
(1.00068 -0.00135256 -1.36217e-19)
(1.002 0.00294771 1.65888e-19)
(1.00104 0.00144282 0)
(1.00669 0.00717058 1.34031e-19)
(1.00818 0.00629825 -1.64243e-19)
(1.00407 0.00167008 0)
(0.0071945 1.7842 0)
(0.00260418 1.78774 1.20679e-20)
(0.00444846 1.78181 -9.23145e-21)
(1.15552 0.253659 -8.86125e-20)
(1.10162 0.0838886 0)
(0.06676 3.08803 -4.18609e-19)
(0.0541995 2.86369 -3.21998e-20)
(0.125517 3.20961 5.185e-19)
(0.135397 3.22479 -5.03276e-20)
(0.138448 3.26334 0)
(0.0259209 3.1382 1.02481e-19)
(0.074309 3.16411 4.12434e-19)
(0.072218 3.18748 -1.96305e-19)
(0.0332052 3.12465 0)
(0.703114 0.351735 0)
(0.601705 0.403849 0)
(1.07605 0.73592 -2.0246e-19)
(1.02726 0.82842 2.94459e-19)
(1.10824 0.561606 0)
(1.13554 0.550775 0)
(1.00831 0.00993126 -2.49491e-19)
(1.009 0.0112098 3.14662e-19)
(1.00692 -0.0101953 0)
(1.00956 -0.00573962 0)
(1.01771 -0.00901931 0)
(1.01773 0.00817753 0)
(1.00771 0.000361422 0)
(1.01259 0.0114537 0)
(1.00631 0.00273887 0)
(1.0048 0.00371153 0)
(0.0224473 1.82168 0)
(0.0146415 1.82537 0)
(0.0330218 1.83602 0)
(0.0165862 1.83433 0)
(0.0441685 1.75315 0)
(0.0595828 1.75847 -2.14435e-19)
(0.0108188 1.77324 0)
(-0.000198344 1.76425 1.07555e-19)
(0.039955 1.78488 -1.07303e-19)
(-0.0107093 1.80131 0)
(-0.00924251 1.80088 0)
(-0.0207641 1.79573 0)
(-0.0232215 1.80286 0)
(-0.00199071 1.79115 -3.79606e-20)
(0.00124708 1.79269 4.68947e-20)
(-0.00857084 1.79143 5.63338e-20)
(-0.00211859 1.79219 0)
(-0.00110443 1.79514 -7.22492e-20)
(-0.00229854 1.79165 -4.23163e-20)
(-6.21612e-05 1.79235 3.07598e-20)
(0.00085711 1.79119 -5.93682e-20)
(1.84384e-05 1.79208 -7.0336e-20)
(1.00901 0.0131268 2.35986e-19)
(1.01105 0.00492624 -2.94551e-19)
(1.00271 0.0252119 -2.45516e-19)
(0.988666 0.0221531 3.13596e-19)
(1.04042 0.0153876 0)
(1.04431 0.00652319 0)
(1.06149 0.0325557 0)
(1.04419 0.00492101 0)
(1.0613 0.0113584 0)
(1.09282 0.0591928 0)
(1.07652 0.0427419 0)
(1.09683 0.0405651 0)
(0.0144304 1.77336 -1.23083e-21)
(0.0117128 1.75925 0)
(0.01466 1.76472 0)
(0.00293982 1.78477 1.44642e-20)
(0.000896745 1.78357 -6.50443e-22)
(-0.00380343 1.77441 1.12503e-20)
(-0.00417367 1.7827 -1.13901e-20)
(-0.00571414 1.79372 0)
(-0.00432489 1.79352 0)
(-0.00364504 1.7922 0)
(-0.00302747 1.79372 0)
(-0.00253168 1.79232 0)
(0.136965 1.74001 3.25922e-19)
(0.166049 1.65869 1.67343e-19)
(0.432321 1.62294 -1.38229e-19)
(0.164287 1.6966 3.40378e-19)
(0.153399 1.91937 9.28989e-20)
(1.00212 -0.0170656 0)
(1.00736 -0.0208632 0)
(0.99875 -0.0266529 0)
(1.01509 -0.0116095 0)
(1.00457 -0.00702787 0)
(1.0008 -0.00703538 0)
(1.00442 -0.0123545 0)
(1.00087 -0.0149777 0)
(1.02265 0.00175636 2.25365e-19)
(1.02548 0.000472261 -2.92789e-19)
(1.01934 0.00528147 -2.24159e-19)
(1.01551 0.00635272 2.83507e-19)
(0.702588 1.21129 0)
(0.568392 1.26558 3.92167e-19)
(0.791138 1.1235 2.515e-19)
(0.822301 1.13082 -3.35332e-19)
(1.15635 2.62913 -2.40277e-19)
(0.816276 0.126446 1.74412e-19)
(1.10419 0.0878949 0)
(1.16028 0.182614 7.8287e-20)
(1.15851 0.148764 4.37274e-21)
(0.973567 0.128739 0)
(0.125185 3.03694 -3.23635e-20)
(0.11732 2.90154 -4.84801e-19)
(0.0646015 2.32968 3.35393e-19)
(0.208499 0.135712 -1.41382e-19)
(0.34726 3.43473 -2.87348e-19)
(0.199658 3.33905 0)
(0.214253 3.39458 3.74131e-19)
(0.239345 3.09076 -1.66901e-19)
(0.279605 3.20761 0)
(0.0088585 3.11919 2.21974e-20)
(0.0195972 3.12868 -2.75779e-19)
(0.0185448 3.12419 4.05142e-19)
(0.0395661 3.13803 0)
(0.0380236 3.15058 0)
(1.2668 2.57708 0)
(0.534827 0.862166 -1.54711e-19)
(0.965825 1.0012 -1.47227e-19)
(0.934555 1.00767 0)
(0.842762 0.896695 5.39838e-20)
(1.02903 0.858902 2.21846e-20)
(0.443694 0.466589 -3.53654e-19)
(0.727796 0.347508 -1.49222e-20)
(0.739994 0.31441 1.37686e-19)
(0.609549 0.426637 1.1251e-20)
(0.572171 0.429751 -4.63049e-19)
(0.696168 0.363078 0)
(0.670134 0.425809 2.32534e-19)
(0.673931 0.427813 0)
(0.649479 0.413161 0)
(0.668745 0.360671 0)
(0.733845 0.605364 6.9048e-20)
(1.15313 0.262046 6.04527e-20)
(1.15578 0.412921 0)
(1.17559 0.393793 0)
(0.798134 0.223728 2.07556e-19)
(0.773854 0.552484 -1.11786e-19)
(0.706183 0.488461 1.80092e-19)
(0.874888 0.415096 -1.54982e-19)
(1.02389 0.00104872 1.59687e-19)
(1.01587 0.00782343 -1.66988e-19)
(1.02038 0.00717581 0)
(1.01951 0.0127895 0)
(1.01032 0.00458098 -1.44537e-19)
(1.01311 0.00170939 1.43691e-19)
(1.01623 0.00439902 0)
(1.0161 0.00383926 0)
(1.02007 0.00966145 0)
(1.02237 0.0102291 0)
(1.02973 0.00661551 0)
(1.02466 0.00587476 0)
(0.0175142 1.82385 0)
(0.0112926 1.81495 0)
(0.0621175 1.83212 1.43655e-20)
(0.082378 1.81702 8.6463e-20)
(0.0516548 1.85127 1.81199e-19)
(0.0449965 1.84786 -2.97346e-19)
(0.0618696 1.84219 0)
(0.0553122 1.78638 -7.32712e-20)
(0.0561809 1.78833 0)
(0.156931 1.88064 -1.33667e-19)
(0.172668 1.80215 3.95094e-19)
(0.069768 1.8102 6.51392e-20)
(0.0669246 1.81001 3.57651e-20)
(0.0757173 1.82324 -2.95391e-20)
(0.0503806 1.78633 -3.02108e-20)
(0.0944144 1.80169 0)
(0.0822741 1.81441 4.4917e-20)
(0.0231388 1.78949 -3.23288e-20)
(0.0379273 1.77914 0)
(0.0261345 1.77339 1.33375e-19)
(0.0333273 1.78406 0)
(0.0117457 1.76647 -1.18826e-19)
(0.0294011 1.77149 0)
(-0.0135513 1.77639 -3.04902e-20)
(-0.000252909 1.79047 0)
(-0.0148563 1.78932 0)
(-0.0170065 1.7746 3.43079e-20)
(-0.000591481 1.78017 -4.36166e-21)
(0.0296136 1.78586 1.24372e-19)
(0.0153778 1.78132 8.93415e-22)
(-0.00574095 1.77758 2.50558e-20)
(-0.00506422 1.77917 1.54303e-20)
(-0.0104412 1.80014 0)
(-0.00934343 1.79934 0)
(0.0154547 1.78965 7.89879e-20)
(0.0104424 1.79128 5.51708e-20)
(0.00144466 1.7878 -7.84705e-20)
(0.0329817 1.79369 0)
(-0.00423792 1.77316 -4.83593e-20)
(-0.00110158 1.7816 2.12423e-20)
(-0.0036488 1.78331 -6.75348e-21)
(-0.0050645 1.7774 -3.07964e-20)
(-0.00733643 1.78783 -1.0237e-20)
(-0.00598501 1.78855 4.99239e-20)
(1.01378 0.0077184 -1.51723e-19)
(1.01286 0.00332009 1.59018e-19)
(1.01002 0.00201498 0)
(0.991356 0.0606221 2.31107e-19)
(0.985492 0.0265093 -2.69729e-19)
(0.962157 0.0248825 3.13232e-19)
(0.990717 0.0989188 -2.9676e-20)
(1.02844 0.00240227 0)
(1.03548 0.013475 1.25847e-19)
(1.03801 0.0044581 -1.24771e-19)
(1.02971 0.0344966 -7.01102e-21)
(1.03002 0.0173823 6.17598e-20)
(0.998892 0.0344485 0)
(0.987205 0.0299406 -2.33094e-20)
(1.0044 0.0233738 0)
(1.00888 0.0207299 0)
(1.01605 0.0044311 0)
(1.01612 0.00544307 0)
(1.00332 0.0229805 4.82906e-20)
(1.01098 0.0172723 -1.10551e-19)
(1.01296 0.0379987 -4.93827e-20)
(0.997922 0.0312058 -5.7297e-20)
(0.997922 0.0357597 9.48458e-20)
(1.04171 0.0400228 0)
(1.04283 0.0806233 0)
(-0.00390423 1.77024 -1.50744e-20)
(0.0016338 1.76227 -1.59306e-21)
(-0.00471741 1.76398 0)
(0.00109122 1.77687 1.46438e-20)
(0.00875054 1.77038 2.69254e-21)
(0.00121423 1.77532 -2.31425e-21)
(-0.00352737 1.79099 3.78067e-20)
(-0.00585724 1.78733 -2.24233e-21)
(-0.00775453 1.78724 1.06287e-20)
(-0.00290471 1.78699 -2.07598e-20)
(-0.00226916 1.7858 2.45132e-20)
(-0.00645079 1.78912 6.38777e-23)
(-0.0100549 1.77482 2.00172e-20)
(0.0422148 1.70777 -1.47761e-19)
(0.0213966 1.79568 -1.17081e-20)
(0.52798 1.33668 -3.80193e-19)
(0.281818 1.55351 -1.60546e-19)
(0.367617 1.46965 0)
(0.476858 1.62211 1.47504e-19)
(0.506487 1.52983 1.98812e-19)
(0.212938 1.69586 3.70651e-20)
(0.233285 1.71182 -4.56666e-19)
(0.310927 1.75183 3.93027e-19)
(0.380486 1.65856 0)
(0.264906 1.67937 -2.97264e-19)
(0.0947796 1.73943 5.59149e-19)
(0.146184 1.72318 -3.45522e-20)
(0.0968703 1.74004 -7.62967e-19)
(0.868212 2.08673 1.6102e-19)
(0.63454 1.65934 0)
(1.02291 -0.0181896 5.32675e-21)
(1.00188 -0.0172521 -4.32715e-21)
(1.00626 -0.00328802 -7.67174e-20)
(1.02832 -0.00265472 7.76776e-20)
(1.03021 -0.00964684 0)
(0.609325 0.948294 0)
(0.764314 0.845371 0)
(0.736101 1.05655 0)
(0.738719 0.875668 0)
(1.17727 2.7085 -5.0044e-20)
(0.973895 2.40243 0)
(0.788492 2.78118 -6.50178e-21)
(0.437656 2.62311 0)
(0.646742 2.75475 -6.77006e-22)
(0.747593 2.73618 4.24263e-22)
(0.834864 0.134873 0)
(0.81747 0.14784 5.07457e-20)
(0.884371 0.123497 2.54151e-19)
(0.837567 0.11678 -1.04429e-19)
(0.838438 0.0878804 -3.03344e-19)
(1.00036 0.196596 -1.2846e-19)
(0.909011 0.277458 -9.2272e-21)
(0.889667 0.277208 2.30504e-19)
(0.944201 0.167891 1.55638e-19)
(0.910784 0.158615 -3.11057e-19)
(0.89988 0.15513 4.13698e-20)
(0.943373 0.231462 -7.38517e-20)
(0.908475 0.171761 0)
(0.968104 0.145947 1.45923e-19)
(0.990946 0.160499 0)
(0.982933 0.160896 0)
(1.04171 0.108698 3.75906e-20)
(1.00416 0.153898 -8.5072e-21)
(0.999791 0.213181 -2.20546e-20)
(1.05815 0.191808 0)
(1.00562 0.0261113 1.15208e-19)
(1.00205 0.028351 1.34295e-19)
(1.00741 0.0292522 -1.12247e-19)
(1.01469 0.0370147 -9.12886e-20)
(1.00601 0.0533925 -1.62308e-19)
(0.935433 0.115295 0)
(0.972342 0.0875271 0)
(0.955773 0.0383522 -1.12475e-19)
(0.921441 0.0545249 4.94501e-20)
(1.01791 0.0949826 1.3042e-19)
(1.00243 0.117084 -1.22506e-19)
(1.01105 0.147405 1.1509e-19)
(1.0138 0.139967 0)
(1.01745 0.0849715 0)
(1.00461 0.0763405 -5.12759e-20)
(1.01833 0.0787029 -1.0175e-19)
(1.00224 1.20931 -2.55072e-19)
(1.04568 1.64429 2.64772e-19)
(1.25853 2.76163 7.76388e-20)
(1.21812 3.10539 -4.90708e-20)
(1.25495 2.76093 2.62251e-19)
(1.31521 2.7037 -1.55158e-19)
(1.25867 2.33019 -3.39926e-21)
(1.21344 3.02033 1.42746e-19)
(1.22666 2.99824 -1.62137e-19)
(1.18874 3.25 -1.63029e-19)
(1.39326 2.95717 1.85944e-19)
(1.40908 2.91416 0)
(0.53634 0.874702 -9.76746e-21)
(0.227995 1.33683 1.76947e-19)
(0.488833 0.548905 2.30244e-19)
(0.321671 0.351795 2.70376e-19)
(0.568311 0.438547 2.5888e-19)
(0.53854 0.496206 -4.18816e-19)
(0.534168 0.497202 3.47236e-19)
(0.521225 0.484763 -1.3777e-19)
(0.520363 0.41465 3.16064e-19)
(0.793346 0.247545 -1.14538e-19)
(0.763985 0.28848 0)
(0.774453 0.260884 8.00173e-21)
(0.664444 0.517548 1.19401e-19)
(0.646974 0.48392 -4.40272e-19)
(0.598381 0.507201 1.43283e-20)
(0.627889 0.455542 0)
(0.6509 0.753579 8.7571e-20)
(0.781468 0.711435 1.71186e-20)
(0.715495 0.82967 -2.66678e-20)
(0.818733 0.72589 4.27503e-22)
(0.907446 0.806917 1.38636e-20)
(0.911794 0.801574 -1.42579e-20)
(0.777221 0.637383 -1.18172e-19)
(0.852654 0.699818 -3.9844e-22)
(0.936157 0.689284 0)
(0.937198 0.679705 9.5333e-21)
(0.94751 0.304513 2.96294e-20)
(1.08284 0.27046 -1.37287e-20)
(0.989138 0.22268 5.22684e-20)
(0.930508 0.341794 -7.22094e-20)
(0.958609 0.426252 0)
(1.03759 0.395525 0)
(0.798387 0.366579 -1.06219e-21)
(0.84442 0.268314 0)
(0.841102 0.257268 1.20473e-19)
(0.837138 0.273784 2.17549e-21)
(0.876325 0.417436 4.23274e-19)
(0.830858 0.496519 1.03669e-19)
(0.826553 0.437509 -1.52234e-19)
(0.762528 0.42586 1.6297e-19)
(0.748949 0.432133 1.12273e-19)
(0.712966 0.429585 -1.09927e-19)
(1.02122 0.0196628 1.24881e-19)
(1.02695 0.00611114 0)
(1.0249 0.00935448 8.49196e-20)
(1.01601 0.0146918 -1.89281e-19)
(1.02667 0.00775766 8.97328e-20)
(1.02517 0.00722881 -1.89952e-19)
(1.01962 0.00314217 0)
(1.01888 0.00186352 -3.91905e-20)
(1.02744 0.00350603 9.74025e-20)
(1.02337 0.00438168 -5.03853e-20)
(1.02248 0.00555114 3.69761e-20)
(-0.022704 1.80149 0)
(-0.0151862 1.78925 0)
(-0.00190374 1.81587 0)
(-0.0157169 1.80747 0)
(0.0290733 1.81521 2.25741e-20)
(0.0250445 1.82454 -7.15898e-21)
(0.0265484 1.79479 -2.51809e-20)
(0.024723 1.8256 -1.74358e-20)
(0.0285091 1.80472 -4.90389e-20)
(0.0290116 1.80515 3.59538e-20)
(0.0367419 1.81871 -1.35128e-20)
(0.0310523 1.82861 -3.3683e-21)
(0.0192143 1.81186 3.08062e-23)
(-0.00123547 1.80143 -5.06348e-21)
(0.0211038 1.77164 -1.3855e-19)
(0.0216578 1.76501 0)
(0.0362923 1.75749 8.37159e-20)
(0.044728 1.78385 5.37773e-20)
(0.0949457 1.77049 -5.9383e-20)
(0.0968729 1.73588 0)
(0.0994305 1.735 -4.17711e-19)
(0.144953 1.77562 2.93492e-19)
(0.0886034 1.7704 -1.57041e-19)
(0.0542996 1.75306 8.70824e-20)
(0.0279227 1.73561 0)
(0.00551989 1.78475 -9.59758e-20)
(-0.00450453 1.77861 -1.15023e-19)
(-0.000101265 1.78827 0)
(0.00640421 1.78376 -3.21841e-21)
(0.0190242 1.78611 4.84359e-20)
(-0.0119539 1.78053 4.99004e-21)
(-0.0101098 1.78545 -8.36074e-20)
(-0.007466 1.77665 2.21301e-20)
(-0.00997272 1.76599 2.98012e-20)
(-0.0105368 1.77361 0)
(-0.0060262 1.77782 0)
(-0.00232835 1.79344 2.06511e-20)
(-0.00119154 1.7843 -6.50213e-21)
(-0.00480296 1.78043 0)
(-0.00711505 1.79696 1.61009e-20)
(-0.00506305 1.79477 -3.16391e-20)
(1.01474 0.0162498 0)
(1.01615 0.0190216 -1.18199e-20)
(1.01235 0.0130737 -8.71698e-20)
(1.01749 0.0224462 0)
(1.01713 0.0268169 0)
(1.01552 0.00295391 -4.27146e-21)
(1.01707 0.00293433 1.42272e-19)
(1.01537 0.00523551 1.78379e-19)
(1.01716 0.00659691 0)
(1.01787 0.00564436 0)
(1.0147 0.00986712 8.96089e-20)
(1.01544 0.00728872 0)
(1.01925 0.00754663 0)
(-0.0127602 1.77553 0)
(-0.0106274 1.76802 2.3233e-21)
(-0.00966018 1.7666 1.03702e-20)
(-0.00475852 1.78407 0)
(-0.00813235 1.77769 1.49475e-20)
(-0.00636551 1.78751 -6.23784e-21)
(-0.00396093 1.79024 0)
(0.0395029 2.18591 0)
(-0.0585838 1.8448 4.36545e-20)
(-0.00791372 1.96431 0)
(-0.0577991 1.78057 -1.88213e-19)
(0.096267 1.42958 0)
(0.0404908 1.64529 1.18972e-19)
(0.963354 2.85481 -9.84539e-22)
(0.884385 2.28095 -2.04391e-19)
(0.925864 2.14573 -3.53532e-19)
(0.687929 1.78402 1.57888e-19)
(0.543351 2.3957 0)
(0.624199 2.51706 0)
(0.860622 2.01158 0)
(0.805921 1.76547 -5.14675e-19)
(0.268725 2.44961 -2.51942e-19)
(0.430843 2.40324 -7.32713e-20)
(0.372053 2.58369 5.6259e-20)
(0.537455 1.56931 0)
(0.604772 1.61765 0)
(0.581835 1.53279 -2.26126e-19)
(0.458347 2.10281 0)
(0.825075 0.916298 0)
(0.607165 1.00573 -4.46395e-20)
(0.610216 0.918991 -2.78805e-21)
(0.879358 0.998406 0)
(0.671251 1.14773 8.142e-20)
(0.743546 0.891356 2.1427e-20)
(0.796487 0.979949 0)
(0.767638 0.946044 -6.7664e-20)
(0.721257 1.02107 0)
(0.662377 0.932439 0)
(1.19533 2.91139 8.04781e-20)
(1.22246 2.91992 1.97675e-19)
(1.1515 2.58862 -4.24847e-19)
(1.10301 2.65777 1.09557e-19)
(1.13405 2.90757 0)
(1.02895 2.9297 -1.29237e-19)
(1.0081 2.60201 6.0563e-20)
(0.874926 2.34096 -4.79163e-21)
(0.521802 2.1948 0)
(0.642 1.09769 2.22847e-19)
(0.649669 1.0551 0)
(0.856948 0.190195 0)
(0.831997 0.16964 0)
(0.786091 0.191613 0)
(0.859886 0.206258 -1.90058e-19)
(0.816446 0.21458 1.18883e-19)
(0.920767 0.0546502 -1.02488e-19)
(0.907168 0.0996742 0)
(0.881888 0.11469 4.68762e-20)
(0.880455 0.068442 1.89302e-19)
(0.890466 0.0526695 -1.17413e-19)
(1.11261 3.34332 -6.14328e-19)
(1.18222 3.2646 0)
(1.13397 3.42702 -1.31868e-18)
(0.667208 3.57235 1.12537e-18)
(0.98112 3.15475 2.26132e-19)
(0.521015 0.94209 1.8889e-19)
(0.498669 0.998708 0)
(0.372812 0.571889 -5.38364e-20)
(0.37863 0.734896 2.52161e-19)
(0.495949 0.5219 -7.44337e-20)
(0.493739 0.543655 8.37404e-20)
(0.60748 0.502592 1.68268e-19)
(0.640226 0.532633 0)
(0.594831 0.611879 0)
(0.551361 0.560531 0)
(0.930675 0.563695 -4.35702e-20)
(0.862792 0.521692 -9.88903e-20)
(0.885391 0.560654 2.46705e-20)
(0.901622 0.474144 -7.42238e-20)
(0.981313 0.458685 0)
(0.973879 0.542382 2.80686e-21)
(0.779377 0.385382 -2.4758e-19)
(0.790505 0.36674 -2.80258e-19)
(0.7501 0.405846 1.94599e-19)
(0.739032 0.377151 -2.21991e-19)
(0.827377 0.305539 -1.56904e-19)
(0.780984 0.318879 1.93307e-19)
(1.02348 0.0100261 -9.48712e-20)
(1.02204 0.0071639 1.97268e-19)
(1.02216 0.0196101 1.17384e-19)
(1.0229 0.0216575 -1.39767e-19)
(1.0092 0.0221428 0)
(1.01717 0.00214006 -2.27839e-19)
(0.0403647 1.79261 1.79509e-20)
(0.0369419 1.7948 0)
(0.0390013 1.78291 1.64897e-19)
(0.040727 1.78655 -1.52537e-19)
(0.0296603 1.79314 4.55139e-20)
(0.0341877 1.79343 0)
(-0.00979211 1.77553 0)
(-0.00846925 1.77482 -8.21059e-21)
(-0.0100511 1.77511 7.27573e-21)
(-0.00941264 1.77547 1.5392e-21)
(-0.0122545 1.77609 -1.42827e-20)
(-0.0113488 1.77727 8.50491e-21)
(0.221179 2.12435 4.99911e-19)
(0.019131 2.11234 -5.38874e-19)
(-0.0665777 1.76004 3.00155e-19)
(-0.059764 2.1301 -1.39048e-20)
(0.459571 1.01234 0)
(0.166964 1.31331 3.48075e-19)
(0.283042 1.11687 -3.38325e-19)
(-0.00974244 1.35979 -2.938e-19)
(0.175911 1.35545 0)
(0.424583 0.980268 0)
(0.269208 2.32879 3.79418e-19)
(0.448981 1.90281 9.55613e-19)
(0.46323 2.0387 -6.23673e-19)
(0.464071 1.83635 -1.2377e-19)
(0.256393 2.04541 1.89157e-19)
(0.307218 1.78377 -4.86258e-19)
(0.87348 2.46099 2.21615e-19)
(0.916559 2.56306 0)
(0.873463 2.33009 3.30202e-19)
(1.00986 2.90941 0)
(1.01427 2.87137 0)
(0.542797 2.32157 1.37574e-19)
(1.11829 3.07323 2.45013e-19)
(0.960552 2.96158 -2.36516e-19)
(0.292294 0.992978 0)
(0.293622 0.854767 -1.05733e-19)
(0.534585 0.84009 -8.66747e-20)
(0.278389 2.14147 0)
(0.396137 2.80056 -1.59224e-19)
(0.380832 2.53365 0)
(0.683988 0.680614 -1.80395e-19)
(0.734527 0.650298 2.36055e-19)
(0.736655 0.60101 -2.25635e-19)
(0.627931 0.628644 -2.75579e-20)
(0.690428 0.572273 -1.15113e-19)
(1.02189 2.74089 -1.84718e-19)
(1.05495 2.7612 1.83231e-19)
(0.517895 2.14239 9.97234e-20)
(0.587769 1.74322 -9.87052e-20)
(0.947656 1.83089 -1.47599e-20)
(1.05422 2.42661 -5.84662e-20)
(1.09932 2.35245 -9.85308e-20)
(0.639294 1.83489 -1.49828e-22)
(0.692563 1.32152 -1.60632e-20)
)
;

boundaryField
{
    wall-4
    {
        type            noSlip;
    }
    velocity-inlet-5
    {
        type            fixedValue;
        value           uniform (1 0 0);
    }
    velocity-inlet-6
    {
        type            fixedValue;
        value           uniform (0 3 0);
    }
    pressure-outlet-7
    {
        type            zeroGradient;
    }
    wall-8
    {
        type            noSlip;
    }
    frontAndBackPlanes
    {
        type            empty;
    }
}

