/*--------------------------------*- C++ -*----------------------------------*\
  =========                 |
  \\      /  F ield         | OpenFOAM: The Open Source CFD Toolbox
   \\    /   O peration     | Website:  https://openfoam.org
    \\  /    A nd           | Version:  6
     \\/     M anipulation  |
\*---------------------------------------------------------------------------*/
FoamFile
{
    version     2.0;
    format      ascii;
    class       volVectorField;
    location    "0";
    object      U;
}
// * * * * * * * * * * * * * * * * * * * * * * * * * * * * * * * * * * * * * //

dimensions      [0 1 -1 0 0 0 0];

internalField   nonuniform List<vector> 
918
(
(0.00926901 0.00756966 0)
(-0.00312756 0.00418783 0)
(0.0146162 -0.00155406 0)
(0.0143023 -0.00932599 0)
(-0.0011516 -0.00214862 6.96341e-18)
(0.00444448 0.0080038 -2.31582e-18)
(-0.0119549 -0.00431894 5.92633e-19)
(-0.00607616 -0.00328347 3.72842e-20)
(0.00800838 0.000540436 0)
(0.00119902 -0.0169758 0)
(-0.00262402 -0.00304186 0)
(-0.00011651 -0.00161722 0)
(0.000442846 0.00062311 0)
(-0.00154862 0.00297849 0)
(0.00644807 -0.00733262 2.36136e-18)
(0.00104376 0.000139996 4.20977e-18)
(-0.00231738 0.00059391 -5.58546e-19)
(-0.00561925 0.0118515 -4.40301e-18)
(0.00101341 -0.00523622 0)
(-0.00314013 -0.00483394 0)
(-0.0549894 -0.0260825 9.75042e-19)
(0.0179125 0.00243263 0)
(0.0121686 1.68505e-05 0)
(0.000256228 -0.00438984 0)
(0.000583642 -0.00725093 0)
(-0.00527822 0.0186914 0)
(0.00255978 0.00477935 -1.16779e-17)
(0.00994458 -0.00242905 0)
(0.00402393 0.00422944 0)
(0.0107738 -0.000664282 0)
(-0.0024678 0.00374235 0)
(0.00478916 0.00192555 6.91589e-18)
(0.00129993 0.000363303 0)
(0.00776933 0.000583796 1.13883e-22)
(0.00250333 0.00231266 -7.70025e-18)
(0.00128766 0.00131978 0)
(0.000348533 0.000448692 0)
(-0.0145435 0.00479338 -1.57311e-18)
(-0.010312 -0.000785866 -1.58513e-18)
(-0.0102621 -0.00563 3.27475e-18)
(-0.00749415 0.002083 1.13946e-18)
(-0.00977265 -0.00249697 1.96876e-18)
(-0.00679921 -0.000378752 -9.60335e-23)
(-0.0021549 -0.00433784 0)
(-0.00662588 -0.00485449 0)
(-0.0110763 -0.00132844 -2.44468e-20)
(-0.00672197 -0.0069701 1.42735e-19)
(-0.00120054 -0.000230839 0)
(0.00480191 -0.000146077 0)
(0.0076903 -8.92371e-05 0)
(0.00885796 0.00824179 0)
(0.00513911 -0.00163669 0)
(0.00690665 -0.000654936 0)
(0.000317729 0.00693635 8.44247e-19)
(0.00712858 -0.015163 0)
(0.00664342 -0.0100264 0)
(0.00102207 -0.0228828 0)
(-0.00256488 -0.0245863 0)
(0.00267759 -0.000996039 0)
(-0.00299105 -0.00855056 0)
(-0.00303813 -0.00773086 0)
(-0.0012539 -0.00401629 0)
(-0.000805119 -0.00152775 0)
(0.000172267 0.00295939 0)
(-0.00108547 -0.00104936 0)
(-0.000623041 -0.000618193 0)
(-0.000289581 0.001238 0)
(-0.00278167 0.00216642 0)
(-0.00207522 0.00785571 2.61091e-18)
(-0.00613058 0.000905056 0)
(-0.00279019 0.0072137 0)
(0.00266461 0.000577429 -1.21434e-23)
(0.00425959 0.00757062 5.36388e-18)
(0.00185452 -0.00161562 0)
(0.000376724 0.00109896 0)
(-0.00243136 -0.000887355 -2.76354e-24)
(0.00046934 0.00190185 0)
(-0.00196866 0.00147824 0)
(-0.000322679 0.006491 0)
(0.0106267 -0.000738268 0)
(0.00481207 0.00225328 0)
(0.00351685 -0.00982979 6.81358e-19)
(0.00471799 -0.00926231 0)
(0.000141923 0.00166559 0)
(0.000778134 -0.000611405 4.0124e-18)
(-0.00187611 0.000332505 4.2279e-18)
(-0.00351372 -0.000580422 -3.59296e-19)
(-0.00179663 -0.00269265 4.84066e-19)
(-0.00174283 -0.0020513 3.12073e-18)
(0.000612505 -0.00247417 -7.071e-19)
(-0.00358585 0.00171389 0)
(0.00402439 0.0182746 -5.54375e-18)
(0.00127402 0.0129077 -4.3865e-18)
(0.00209325 -0.00143994 0)
(0.00174846 0.000914449 0)
(0.00815825 0.000888268 0)
(0.00436585 -0.000856506 0)
(-0.00181454 -0.008549 1.96345e-17)
(-0.00448208 -0.0107362 1.28366e-17)
(-0.00213203 -0.00568049 0)
(0.000536725 -0.00627937 0)
(-0.00147657 0.0010531 0)
(-0.00239996 -0.00263333 0)
(-0.000567532 -0.00357428 0)
(-0.0537875 -0.00544783 -4.16663e-19)
(-0.0263194 -0.0202264 0)
(-0.00234001 -0.00228199 0)
(8.41068e-05 0.000505262 0)
(-0.00307168 0.00151194 0)
(-0.00152526 -0.0042083 0)
(-0.00241716 -0.00245559 0)
(-0.000113353 0.00304017 0)
(2.96937e-05 -0.00333101 0)
(0.000294563 0.000752619 1.58709e-18)
(4.23077e-05 0.00307401 2.2531e-18)
(-0.00267637 0.00310416 0)
(-0.00987984 0.00826701 0)
(-0.00267595 0.00876192 0)
(0.00164117 0.00208242 -4.58619e-18)
(0.000361348 0.00616967 0)
(0.00249651 0.00233713 -2.9904e-19)
(0.00440947 0.0055353 2.44263e-18)
(-0.00268783 0.00017198 0)
(0.000326319 -0.00105423 0)
(0.00216367 0.000153423 6.40632e-22)
(0.00189169 -0.000345191 0)
(6.80362e-05 0.000539716 0)
(-0.000377073 5.90199e-05 0)
(0.000121211 0.00111708 0)
(0.0012368 -0.000105056 0)
(8.87697e-05 -0.0010218 0)
(-8.45469e-05 -0.00181942 0)
(-0.0199519 0.00890523 -3.38687e-19)
(0.00380094 0.0247424 0)
(-0.026706 -0.0177186 -1.89909e-19)
(-0.0142357 -0.0280477 0)
(-0.00636356 -0.0011916 2.03216e-18)
(-0.0123843 -0.0027926 6.56016e-19)
(-0.00144909 0.0145922 0)
(-0.00764799 0.00628138 0)
(-0.00118233 0.00138999 0)
(0.00247356 0.00361956 -5.49862e-19)
(-0.00443045 -0.00260804 0)
(-0.0024499 -0.000666071 -6.22126e-19)
(-0.00317571 -0.000684742 0)
(-0.00288395 -0.000722814 0)
(-0.00908926 -0.00272319 -6.99053e-19)
(0.000355114 -0.000882759 0)
(-0.00416166 0.000387078 -3.51347e-18)
(0.000303404 -0.000403676 0)
(-0.00234227 0.00101575 0)
(-0.000578357 0.00250035 0)
(0.000766126 -0.000942675 0)
(-0.000962818 -0.000304499 0)
(0.00104024 -0.000242732 0)
(0.00674761 0.000893273 0)
(0.00526572 0.000396952 0)
(0.00739688 -0.000711801 0)
(-0.00206509 0.00460492 3.44218e-18)
(-0.00250071 0.00326166 0)
(-0.000213017 0.00692754 -7.37796e-19)
(-0.000290218 0.00678164 7.60764e-19)
(0.00450101 0.0121145 -5.30636e-18)
(0.00954695 -0.00176283 0)
(0.00493329 0.00558698 0)
(-0.00220119 -0.0253744 0)
(-0.00267493 -0.0200876 0)
(0.00336066 -0.00056848 4.77291e-21)
(-0.00105166 -0.00167718 0)
(0.00155735 0.000726201 -3.86154e-18)
(-0.00195779 -0.00214815 -4.38406e-19)
(-0.00269519 -0.0193654 0)
(-0.00403263 -0.012859 0)
(-0.00283746 -0.0117364 0)
(0.000662232 -0.00305163 0)
(0.00113277 -0.00398441 0)
(-0.000169235 -0.000640393 0)
(-0.000908422 -0.0029412 0)
(-0.00246142 0.00130491 0)
(-0.000870711 -0.00125458 0)
(-0.000442702 0.00159274 0)
(-0.000686242 0.00161137 0)
(-6.47825e-05 -0.00124358 0)
(-0.000352796 0.000132714 0)
(-0.00428332 -0.0018515 9.91024e-21)
(-0.0036888 -0.00215508 0)
(0.000150605 -0.000744645 0)
(0.00141366 0.00203353 0)
(0.0339754 0.0331889 0)
(0.0465721 -0.00718296 -1.34733e-19)
(-0.00258246 -0.0121733 0)
(0.00253645 -0.00592541 0)
(0.00128476 -0.00302999 0)
(-1.7506e-05 0.00249488 0)
(-0.000368433 -0.000112117 0)
(-0.00544081 -0.00139876 -9.26355e-18)
(0.000870572 -0.000332681 0)
(-0.00429288 0.00132153 0)
(0.000543311 -0.00104367 -8.23028e-18)
(-0.000203734 -0.000770783 -4.26644e-18)
(-0.0010144 -0.00138179 3.97778e-18)
(-0.0018623 -0.00115478 0)
(-0.00388526 -0.00267414 -2.60233e-18)
(-0.00425432 -0.00135766 -1.06463e-18)
(0.00125573 0.00788077 0)
(-0.00237476 0.00164183 1.76106e-19)
(0.000989233 0.00556152 -2.98343e-18)
(-0.00397395 -0.00235285 -4.12194e-18)
(-0.00299773 0.000636279 0)
(-0.000362978 0.00127866 0)
(0.000191052 0.00197754 0)
(0.000422317 0.000703991 0)
(0.00165965 -0.00410866 0)
(0.000504844 -0.00468053 0)
(0.00159166 -0.00540756 0)
(-0.0178914 -0.00231969 -5.27025e-19)
(-0.0281669 -0.00316691 5.34784e-19)
(-0.0126457 -0.0117961 0)
(0.00124569 -0.000435015 -1.12518e-19)
(-0.001235 -0.00049395 0)
(-0.00220828 0.00141676 0)
(-0.00118781 -0.00053727 0)
(-0.00327799 0.000178739 0)
(-0.00290442 0.00525369 5.72493e-18)
(-0.00228741 0.00266854 -3.26072e-18)
(-0.00239791 -0.000798554 -4.57246e-18)
(-0.000419363 0.00568979 -6.99402e-18)
(-0.00513977 -0.00140775 1.97092e-20)
(-0.00254902 -0.00392159 -4.81017e-18)
(0.00230254 0.00214668 -3.84034e-20)
(0.00494365 0.00391326 1.49152e-22)
(0.00503717 0.000990473 -1.10923e-19)
(-0.0070665 -0.00389413 -1.21061e-18)
(-0.000914472 -0.00391807 -3.22881e-18)
(-0.000768154 -0.00167883 0)
(9.39008e-05 -0.00143575 0)
(0.000415002 -0.00210158 0)
(-0.00156858 0.00165307 0)
(-0.000550009 -0.000730333 0)
(-0.000489939 -0.00016255 0)
(0.000572099 0.000905202 0)
(-0.000534415 -0.00128721 0)
(0.00138505 -0.00110676 0)
(0.000692422 0.0251952 6.88719e-19)
(0.0245466 0.0281004 0)
(-0.0180623 -0.0475356 1.18758e-19)
(-0.00424385 -0.0259688 -7.64596e-19)
(-0.0127228 -0.0282883 -1.29475e-18)
(-0.0187154 -0.0477295 -2.6636e-18)
(-0.00135774 -1.15462e-05 -6.88148e-19)
(0.00532771 0.0158052 2.23896e-18)
(-0.00194269 0.000265 -1.89411e-18)
(-0.00464981 0.00114913 -5.495e-19)
(-0.00269618 -0.000447705 3.03983e-19)
(0.00294748 -6.4089e-05 -2.77301e-18)
(-0.00121922 -0.00138039 7.97009e-19)
(0.000405199 0.00483079 -4.32703e-18)
(-0.00170865 0.00384511 0)
(-0.00163373 -0.000600784 0)
(-0.00331215 0.000110035 0)
(-0.00091668 0.00139346 0)
(-0.0029711 -0.00281567 0)
(-0.000109522 -0.000952841 -5.0379e-18)
(0.000407849 -0.000658322 0)
(0.00137609 0.00192376 -2.07099e-18)
(-0.00163946 -0.00328359 1.68402e-18)
(-0.00303948 -0.00245387 0)
(0.0191252 0.0344939 -5.04995e-19)
(0.0244607 0.0268523 -8.8967e-19)
(0.0392533 0.0280021 -2.16263e-18)
(-0.0043385 -0.00446961 4.51047e-18)
(-0.00475826 -0.00916435 0)
(0.000634339 -0.00117309 0)
(0.00127342 -0.00275685 8.17166e-18)
(0.00156085 0.000185886 3.24027e-19)
(0.00214694 -0.00233223 8.15795e-18)
(-0.000847315 0.00200806 -2.27082e-18)
(-0.00193058 0.00879139 -1.26818e-18)
(-0.00287819 0.00610053 -4.17297e-18)
(0.0002436 0.00751339 -3.13237e-18)
(-0.000548559 0.00303398 -7.37584e-18)
(-0.00288876 -0.00440986 1.64348e-17)
(-0.00208695 -0.00583924 1.12831e-17)
(0.00127274 0.00316482 2.51991e-18)
(-0.00152616 0.00177103 -2.4393e-18)
(-0.00266218 0.00831661 4.60645e-18)
(-0.000396818 -0.00248189 -9.5907e-18)
(-0.000891185 -0.00522435 -1.71406e-17)
(0.00695895 -0.00757893 0)
(0.0103736 -0.0142573 1.78429e-19)
(-0.00852782 -0.0209003 -2.4009e-18)
(0.000621339 0.00297073 3.37751e-18)
(-0.000186505 0.0205114 3.66134e-18)
(0.000992105 0.00400101 -4.64422e-19)
(0.00393136 0.00225848 0)
(-0.00122602 0.00268798 4.06735e-19)
(0.00156968 0.00173239 4.96313e-21)
(0.000943653 0.00295757 0)
(0.000491711 0.00290879 0)
(-0.00241188 0.00462085 2.4217e-19)
(-0.00193684 0.00144964 -3.68819e-18)
(0.00104673 0.0182674 -4.16309e-18)
(-0.00181871 0.00400485 0)
(-0.00520368 0.00864511 1.05075e-18)
(-0.0030556 -0.000291577 0)
(-0.00201591 0.00241578 0)
(0.000233037 0.0021712 5.49731e-20)
(0.0049407 0.00485348 9.86405e-19)
(-0.00147985 -0.00199737 -9.20232e-18)
(-0.004743 0.000464592 0)
(-0.00477792 -0.0165375 2.47876e-18)
(0.0122056 -0.0204054 0)
(0.00266721 0.00229961 -2.99939e-18)
(-0.00374451 0.00166042 1.02985e-17)
(-0.00417026 -0.00187424 0)
(0.000269768 -8.71208e-05 4.36601e-20)
(0.0156915 -0.014156 0)
(0.00671555 0.0164864 0)
(-0.00374157 -0.0140086 0)
(-0.00921995 0.0102177 -9.36363e-18)
(-0.0044105 0.000816239 8.89481e-18)
(-0.00184583 0.00261184 1.00927e-17)
(-0.00556912 -0.00317962 0)
(-0.00454991 -0.00156632 0)
(0.000938381 0.00135301 0)
(-0.000143165 -0.002568 0)
(0.00209565 -0.00337679 0)
(0.00804316 0.026701 -1.04435e-17)
(0.00168772 0.00464289 0)
(0.00182626 0.00249702 0)
(-0.000401768 -0.00438475 -3.14451e-18)
(-0.00187407 -0.00168813 3.94201e-18)
(-0.00424645 0.000507949 0)
(0.000836 -4.54077e-06 0)
(-0.000367705 0.000397181 0)
(0.0015738 -0.00127855 0)
(0.00179765 -0.00365348 0)
(-0.00016783 -0.00136632 0)
(-0.00115303 0.00116347 0)
(-0.0012698 -0.00139976 0)
(-0.0035069 0.00190303 1.03188e-17)
(-0.0024915 -0.025079 1.44933e-19)
(-0.00204567 0.00469949 3.18726e-18)
(-0.00390967 -0.00403137 -3.91459e-18)
(-0.00483531 -0.00238262 0)
(-0.000726056 0.00134716 3.72324e-18)
(0.000397513 -0.000338051 6.77953e-18)
(0.000538784 -0.000501289 0)
(0.000400918 -0.00235098 0)
(-0.00256313 0.00127945 -4.74984e-18)
(0.000285865 0.00152964 -4.09508e-18)
(-0.00782828 -0.00732855 -8.37378e-18)
(-0.00507363 -0.000162226 0)
(-0.0230988 -0.0121524 4.29641e-18)
(-0.0332668 0.0293429 1.30962e-19)
(-0.00584197 -0.0144906 4.64903e-18)
(-0.0131345 -0.0195927 4.74333e-18)
(-0.00456545 -0.0210373 0)
(-0.00419413 -0.00735426 1.36891e-18)
(-0.0116455 -0.00220505 2.05081e-18)
(-0.0143183 -0.0141803 2.67805e-18)
(-0.00511823 -0.000947925 0)
(-0.00706078 0.00117336 0)
(-0.00723028 -0.00257597 0)
(0.00216043 0.00398611 2.98943e-18)
(-0.0048377 -0.00370759 5.38957e-18)
(0.00294033 0.000682977 0)
(0.000191484 -0.00381822 0)
(-0.00368198 -0.001016 2.96886e-18)
(-0.000475507 9.96706e-05 -3.34017e-18)
(-0.00458726 0.00328108 0)
(0.000714867 0.00493372 0)
(0.0059379 -0.00334928 0)
(-0.00156156 0.00353038 0)
(-0.000559152 -0.000364566 0)
(-0.000408095 0.00437197 0)
(-0.00296437 0.00498888 0)
(-0.00129139 -0.0016121 0)
(0.0159112 -0.0162155 0)
(0.00849681 -0.025744 0)
(0.0264835 -0.00413967 0)
(0.0141911 0.00206709 0)
(0.00705993 0.0169772 0)
(0.0026671 0.0174603 4.51267e-18)
(0.00312866 0.0219058 0)
(0.0021378 0.026784 3.73158e-18)
(-0.00693772 0.0233214 -8.17104e-18)
(-0.00414226 -0.0126341 0)
(-0.00484229 -0.00744456 0)
(-0.00403955 -0.0142261 0)
(-0.00396289 -0.0164364 0)
(-0.00898619 0.00925615 -8.90669e-18)
(-0.00657747 0.00962876 -6.07158e-18)
(-0.00604906 0.00908253 4.30942e-18)
(-0.00464862 0.010498 0)
(3.65737e-05 0.00108894 4.15302e-18)
(-7.74257e-05 0.00409375 -8.46529e-18)
(-0.0173626 0.00786671 -1.40956e-17)
(-0.00551204 0.0127207 -5.47159e-18)
(-0.0113701 0.00994241 5.00212e-18)
(-0.000605088 0.00370294 -2.19805e-18)
(4.2318e-05 0.00412098 2.99529e-18)
(-0.00167783 0.00167454 2.74271e-18)
(0.00174483 0.0008139 -2.85387e-18)
(-0.00162397 -0.00222826 0)
(-0.000234428 -0.00184695 0)
(0.00193487 -0.000112074 0)
(-0.00464319 -0.00103492 0)
(0.000534376 0.000190546 0)
(0.000749891 -0.000565209 0)
(-0.00307341 0.00214565 0)
(0.000693023 -6.19509e-05 0)
(0.00854607 0.00474688 1.21196e-18)
(-0.00143082 -0.000988818 0)
(0.00126612 0.00138061 0)
(-0.000792208 0.000201579 -1.86971e-18)
(-4.3514e-05 -0.00089235 5.42669e-21)
(-0.000384958 0.00075361 5.2807e-18)
(0.00428905 0.0014768 5.47472e-18)
(0.00273464 -0.000912045 0)
(-0.00313368 -0.00184705 0)
(-0.00442655 -0.00126063 0)
(0.00347756 -0.000984114 0)
(0.0034767 -0.00200479 0)
(-0.00294745 0.0315914 -6.13481e-18)
(-0.00622996 0.017904 5.27702e-18)
(-0.000855981 -0.0213325 1.03364e-19)
(0.000379265 -0.0027219 3.27093e-18)
(0.0037203 -0.0417252 4.31554e-18)
(-0.000576786 -0.00191259 0)
(0.000143767 -0.0020359 0)
(-0.00135145 -0.00520886 0)
(0.00134575 0.00246988 0)
(-0.000610215 0.00172799 0)
(0.00372188 -0.00207544 0)
(0.00122484 -0.0114374 0)
(-0.00457254 -0.00717544 0)
(-0.000362571 0.00231772 -2.27548e-18)
(-2.92628e-05 0.00060894 3.22967e-18)
(-0.00290549 0.00143291 2.82807e-18)
(-0.000585319 -0.000185237 -3.13382e-18)
(-0.00875984 -0.0108208 0)
(-0.00623524 -0.00930099 -8.82949e-18)
(-0.000617533 -0.0160572 9.0316e-18)
(0.00125728 -0.0226573 7.57646e-18)
(-0.00360153 0.03319 -4.21782e-18)
(-0.00304291 0.00107685 -2.96634e-18)
(-0.00372481 0.00261811 0)
(0.00134747 -0.00259225 -1.05198e-17)
(0.00198243 -6.51928e-05 5.64481e-20)
(-0.000787083 -0.00526355 0)
(-0.00121638 -0.0418426 5.753e-18)
(-0.0424327 -0.038039 9.51141e-18)
(-0.0933105 0.00781028 2.32627e-19)
(-0.0865002 -0.0438146 -1.16112e-18)
(0.00959655 -0.0221471 -2.05251e-18)
(-0.0046639 -0.0232968 0)
(0.000595938 -0.0219861 -6.99843e-19)
(0.00400858 -0.0421191 1.08614e-17)
(0.02172 -0.0421556 0)
(-0.00156144 -0.00397519 -9.0813e-20)
(-0.00459751 -0.00639465 -2.3117e-18)
(-0.00174209 -0.000496823 -4.39751e-18)
(-0.00521474 -0.000524268 0)
(-0.0076228 -0.00705039 0)
(0.0116724 0.0194301 0)
(0.0392878 0.0166406 6.3666e-18)
(-0.000849209 -0.0123024 -4.52946e-18)
(0.00304756 -0.0129014 0)
(0.00319288 -0.00432917 -1.48692e-18)
(0.00617072 -0.00495147 -7.50219e-18)
(-0.0311179 0.013894 4.38039e-19)
(-0.00420855 0.00324493 1.46611e-18)
(0.000789506 -0.000482645 1.20269e-18)
(-0.011444 0.00237834 -1.41733e-20)
(-0.00846675 -0.000737348 1.13672e-18)
(-0.00861749 0.000899932 0)
(-0.00473401 0.00220994 7.87492e-19)
(-0.00353318 0.00129463 0)
(-0.00717393 0.00129739 0)
(-0.00426071 -0.000848372 0)
(0.00892248 -0.00864473 3.62707e-18)
(-0.00529362 0.00229534 5.59991e-18)
(0.00102313 0.0022077 0)
(0.000309513 0.00233305 0)
(-0.00292433 -0.000271022 1.88063e-18)
(0.00969586 0.0045021 4.7308e-18)
(0.000158133 0.00422666 7.21773e-19)
(0.00418237 -0.000242609 -9.04554e-18)
(0.000983216 -0.00223366 3.11921e-18)
(-0.00084354 -0.00514796 6.6496e-18)
(0.00120604 -0.00464519 0)
(0.000427945 0.00225762 0)
(0.000134085 0.00446738 -3.0641e-18)
(0.00115769 0.00108765 -6.33819e-18)
(7.85708e-05 -0.00350571 0)
(0.000373385 0.000117625 0)
(-0.00263129 0.00162632 0)
(0.000927584 0.000657363 0)
(-0.000966777 0.00392099 0)
(0.000557519 0.00345773 0)
(-0.000164798 -0.025531 0)
(-0.00630898 -0.0264007 0)
(0.0385316 -0.00327858 -5.95089e-18)
(0.00748211 0.0233053 -4.59511e-18)
(0.0166191 0.0140459 9.92506e-18)
(0.0121171 0.0205582 3.48155e-18)
(0.0432942 0.00591408 0)
(0.0393529 -0.0182759 9.19387e-18)
(0.0403466 -0.0219013 0)
(0.0121205 -0.0468175 4.80372e-18)
(0.0205414 -0.0290599 -5.9388e-18)
(0.0430467 -0.0232474 8.21267e-18)
(0.0248561 0.0206476 -4.7457e-18)
(0.0388265 0.0117147 -5.21449e-18)
(0.0210608 0.0164898 -6.97107e-19)
(0.031667 -0.023046 0)
(0.0267847 -0.0288611 -6.74268e-18)
(-0.00610466 0.0265011 8.31196e-19)
(-0.00511369 0.0278113 0)
(0.00371754 0.0260375 -9.2213e-18)
(0.00326378 0.0280476 0)
(0.000261169 0.0277755 4.40043e-18)
(-0.00354222 0.0283919 0)
(-0.0122467 -0.00823753 6.82844e-18)
(-0.0160377 -0.00234703 0)
(-0.0131154 -0.0111691 0)
(-0.0135504 -0.0122336 6.17267e-18)
(-0.0116205 0.0206034 -1.42956e-17)
(-0.00465358 0.0234363 -8.84077e-18)
(-0.0066343 0.0234471 -3.56172e-21)
(-0.0138599 0.00674529 9.21522e-18)
(-0.014141 0.0113283 -4.86299e-18)
(-0.000963256 -0.00453687 0)
(0.00243006 -0.00390362 0)
(-0.0120136 0.00148568 3.34408e-18)
(-0.00817191 -0.00792375 2.80016e-18)
(-0.0117859 -0.00341839 7.7645e-18)
(-0.00357807 -0.00508737 0)
(-0.000675931 0.000327125 1.2682e-17)
(0.00149002 0.0030472 1.95617e-18)
(4.50104e-05 -0.00113363 -2.32066e-18)
(-0.0128481 -0.00254592 9.58676e-18)
(-0.00550441 0.00845598 -4.18579e-19)
(-0.000998676 0.00371649 -5.6695e-18)
(-0.000989936 -0.00136089 6.52683e-18)
(0.000438047 0.00189029 3.15389e-18)
(0.00037901 -0.00257774 0)
(0.000829256 0.00746461 -9.32604e-18)
(0.00249782 -0.00501439 2.75169e-18)
(0.000879304 -0.00342975 -1.88848e-18)
(0.00129881 0.00914252 3.11178e-19)
(-0.00313027 0.00380817 0)
(-0.000244927 0.00237065 -6.42153e-18)
(0.000700658 0.00328167 -3.16237e-18)
(0.00556505 0.000700043 4.42973e-19)
(0.00301018 -0.00385937 -1.54589e-18)
(0.00261873 -0.00558156 0)
(0.00218901 -0.00208137 1.3937e-19)
(-0.000756376 -0.00235742 0)
(0.00142182 -0.00248569 0)
(-0.00114066 -0.00399443 0)
(0.000299032 -0.000380817 0)
(-0.00286636 -0.0037078 2.69879e-19)
(-0.00137722 -0.000439674 4.1613e-18)
(0.00689787 0.00369635 -4.78418e-19)
(0.0015468 -5.88139e-06 1.51406e-18)
(-0.00446722 -0.00300084 2.82617e-18)
(0.000675981 -0.00231565 0)
(0.00624887 0.00433776 0)
(0.00121772 -0.00377161 -6.38174e-18)
(-0.00383857 -0.00180999 -9.39471e-20)
(-0.000554855 0.000754227 0)
(0.000144958 -0.000964292 -6.65521e-18)
(0.00694337 0.00138319 1.07655e-18)
(0.00282547 0.00147618 -4.65482e-19)
(0.00189855 0.0020081 -9.55336e-18)
(-0.00412519 0.0015917 -1.15767e-20)
(-0.00956008 0.00661644 -6.57164e-19)
(0.000422882 -0.000279352 4.22878e-18)
(0.00258376 0.00115664 3.98881e-18)
(-0.0022659 0.00353035 -2.81039e-18)
(0.000644921 0.0031533 -4.81799e-18)
(-0.0106582 0.0364353 2.97569e-18)
(0.00263072 0.0106982 -1.32688e-18)
(-0.0121375 0.00215378 -1.02756e-17)
(-0.0128849 0.0181912 4.62634e-18)
(-0.00902938 0.00367052 0)
(-0.00251742 -0.0245613 -5.50435e-19)
(-0.00694518 -0.0232733 -1.84015e-19)
(0.00398411 -0.00831195 -9.04128e-19)
(0.00490654 -0.0221768 -3.62512e-18)
(0.0105093 -0.0236354 -3.84081e-18)
(0.00122314 -0.0202284 0)
(0.000913733 -0.00568553 -1.3319e-18)
(0.0113315 0.00510865 -4.10847e-19)
(0.00579042 -0.00534006 7.54621e-18)
(0.00153987 0.0102453 1.44686e-18)
(0.00277053 -0.0221306 -4.83282e-18)
(-0.0066225 -0.0354561 0)
(0.000360831 -0.00523212 -5.08672e-20)
(-0.00345887 0.00113359 5.44514e-20)
(0.00314671 0.00598072 -5.64066e-19)
(0.00335858 0.0013405 -2.30245e-18)
(0.00340759 -0.00316139 0)
(-0.0221611 -0.0250402 0)
(-0.01942 -0.0312019 0)
(-0.0107094 -0.00684277 0)
(0.00409891 -0.0375069 0)
(-0.00471306 0.0379361 3.5228e-18)
(-0.00889116 0.0284798 0)
(-0.0215715 0.0634209 -1.39072e-19)
(-0.0193392 0.00987476 0)
(-0.02524 0.0227082 9.40225e-18)
(-0.0185069 0.0315805 7.91766e-18)
(-0.00215027 0.00242677 0)
(-0.00103802 0.00116662 -2.37813e-19)
(0.00132249 0.00330213 4.01236e-19)
(-0.00258593 0.00195246 -3.2457e-18)
(-0.00146995 -0.000343312 7.04441e-19)
(-0.00177699 0.00365341 -2.34465e-18)
(0.00276036 0.00161758 3.48797e-18)
(-0.0034091 0.00460353 2.50036e-18)
(-0.00134498 0.00529345 9.58507e-19)
(0.00140261 -0.000824018 5.8111e-18)
(0.000737553 -0.00518391 -1.44641e-18)
(0.00941634 -0.00491509 4.51388e-19)
(-0.000841982 -0.00567805 0)
(-0.00142395 0.000220801 2.1979e-18)
(0.00236701 -0.00414595 0)
(-0.00263241 0.00243326 0)
(0.00337608 -0.00412795 -1.82425e-18)
(0.00323021 -0.0067919 3.83642e-18)
(0.00622426 0.00294899 2.76242e-18)
(0.0107817 0.00453455 0)
(0.0009834 -0.00261923 -5.05843e-18)
(0.00108032 0.00416829 2.98297e-18)
(-0.00332675 -0.00279976 -2.60646e-18)
(0.00153194 -0.00368254 5.73285e-18)
(0.00475254 0.00237839 -6.02949e-18)
(-0.00113203 -0.00314823 0)
(-0.00337978 0.0041637 0)
(0.000621226 -0.0043774 5.81162e-18)
(0.000290579 0.00178147 9.08642e-19)
(0.00051053 0.00070817 -5.37896e-18)
(-0.00164773 0.00482996 -2.38918e-18)
(0.00345468 0.00155157 -1.83892e-18)
(0.00325066 -0.00204637 0)
(0.00220189 -0.000142849 0)
(0.00403531 -8.12516e-05 4.69295e-18)
(0.00213572 -0.000116779 -2.67341e-18)
(0.00398866 0.00897271 3.02898e-18)
(0.0160816 0.0482474 -2.27563e-18)
(0.00760321 0.0429101 2.72322e-18)
(0.0165748 0.0247083 -3.77564e-19)
(-0.000214992 0.0338018 -2.41244e-18)
(0.00431077 0.026534 3.44299e-19)
(-0.0052308 0.0218029 1.00781e-18)
(0.0133802 0.0276213 -1.53283e-18)
(0.0119286 0.0377257 -2.34038e-18)
(0.023 0.00966053 -3.29167e-19)
(0.0117074 0.0222759 4.65194e-19)
(0.0176587 0.0122508 0)
(0.024682 0.00505696 -3.80896e-19)
(-0.0120506 -0.0355967 -1.98409e-18)
(-0.0434221 0.0297978 -1.11825e-18)
(-0.0349746 0.0459855 -2.43392e-18)
(-0.0154972 0.00301394 -1.40912e-18)
(-0.00987251 0.00812777 9.04986e-19)
(-0.0145629 0.02003 -1.2288e-18)
(-0.0287279 0.011869 4.69056e-19)
(-0.0154138 0.000975434 -1.25543e-18)
(-0.00392772 -0.000316963 3.17925e-18)
(0.000262429 -0.00162538 0)
(0.000324206 0.00101972 7.4961e-19)
(0.00146322 0.00461854 -1.64084e-18)
(0.000855075 0.000191502 2.37008e-18)
(-0.00763484 0.0164069 -7.1626e-19)
(-0.00202 0.00384657 0)
(0.0119256 0.0036687 -3.2715e-18)
(0.0088921 -0.00351644 5.463e-18)
(0.00713715 0.00916301 6.65825e-18)
(0.0143514 -0.00695334 1.78384e-18)
(0.0076246 6.63314e-05 -4.68279e-19)
(0.00605111 -0.00264042 -7.53684e-19)
(0.00225004 0.00776474 1.12887e-18)
(0.0048551 -0.00581043 1.07633e-18)
(0.00260228 0.0014049 0)
(0.00736619 -0.00652618 3.37035e-18)
(0.00269504 -0.0051108 6.02312e-18)
(0.00354956 -0.00209222 -2.79697e-18)
(-0.00810966 -0.000239996 -6.44507e-18)
(0.0019272 -0.00161376 6.1845e-18)
(2.67113e-05 0.00609672 0)
(0.0038532 0.00342394 0)
(-0.00261411 0.00207391 6.14434e-18)
(-0.00105624 -0.000295846 0)
(0.00397797 -0.00274293 -2.05376e-18)
(-0.0103924 0.00672643 8.36917e-18)
(-0.00312764 0.000922308 -1.19674e-17)
(0.00276881 0.00364929 -4.29388e-19)
(0.00336454 -0.00134325 1.33907e-18)
(-0.000474936 0.00499814 -5.5409e-19)
(0.00352855 0.0011936 -9.43028e-19)
(-0.00102328 0.00192668 1.01725e-19)
(0.00259025 -0.00596418 -6.34633e-18)
(0.00222315 0.00813632 0)
(0.00158561 0.00119375 9.49578e-19)
(0.00544911 -0.00615604 -9.31965e-19)
(-0.0022846 0.00361172 -3.32405e-18)
(0.000828647 -0.00355824 1.17407e-18)
(-0.00274577 0.00104787 0)
(0.00127018 0.00262005 1.76705e-18)
(0.000825118 -0.00528195 -5.25312e-19)
(0.00363094 -0.00137353 -1.89405e-19)
(0.00321839 0.0061812 9.15075e-19)
(-0.00800915 -0.0203679 0)
(-0.0216491 -0.00954692 0)
(-0.00457044 -0.0231346 0)
(-0.00597921 -0.0254074 0)
(0.0129108 -0.0101337 -1.14499e-18)
(0.0209604 -0.0087677 -1.30838e-17)
(0.0305835 -0.0116931 -3.88333e-18)
(0.032707 -0.00574899 -1.0659e-17)
(-0.00631598 -0.00913865 7.27641e-18)
(-0.00720417 -0.00637137 7.31866e-18)
(0.00579856 -0.0177414 1.47315e-17)
(9.94905e-05 -0.0163278 7.27994e-18)
(-0.00605378 -0.0163857 1.27546e-18)
(-0.0173115 -0.0122051 2.1426e-19)
(0.00943505 0.0235731 -8.21793e-18)
(0.0121318 0.0218887 0)
(0.0245043 0.00354137 -5.11703e-18)
(0.0308617 -0.0114222 -7.40787e-19)
(0.034754 -0.0186775 -2.11059e-18)
(0.0162435 -0.0127553 0)
(0.0150057 -0.0148588 7.06452e-18)
(0.0207789 -0.0254428 5.73154e-18)
(0.0309488 -0.0138506 -7.3895e-18)
(0.0266125 0.00297491 -1.02397e-17)
(0.0218405 0.00419604 0)
(-0.0152383 0.0189904 4.25826e-18)
(-0.0114473 0.0222968 -2.35706e-18)
(-0.0103105 0.0198859 0)
(-0.0105176 0.0209747 2.58021e-18)
(-0.0107167 0.0205293 1.99696e-18)
(-0.00813592 -0.00861643 1.1431e-18)
(-0.00736377 -0.00297902 -1.19273e-17)
(-0.0054671 -0.00380822 -8.21352e-18)
(-0.00731403 0.00065978 5.58545e-18)
(-0.01596 -0.0122175 0)
(-0.00178201 -0.00818132 0)
(0.0015608 -0.00137684 -4.88803e-18)
(-0.00493348 -0.000584718 -4.19455e-19)
(-0.000840426 -0.00573049 0)
(-0.00020001 -0.00392814 3.999e-18)
(-0.000548502 -0.00184265 2.52478e-19)
(0.00376686 -0.011444 0)
(-0.00462023 -0.0101191 8.90623e-20)
(-0.00126719 -0.00185406 5.85122e-18)
(0.00654127 0.00255152 0)
(0.00142071 0.00434503 0)
(-0.00631266 0.00644851 2.6271e-18)
(0.00273045 0.0079683 -7.3571e-18)
(0.000584277 -0.000125291 -2.92461e-18)
(0.000294043 -0.00100254 0)
(0.00123445 0.000714072 0)
(0.001954 0.00335843 3.19146e-18)
(7.87958e-05 -0.00126788 0)
(0.00246715 -0.0042969 0)
(0.000426615 -0.00437421 0)
(0.000529653 0.00872501 -5.07541e-18)
(0.00302123 0.00275273 5.20522e-18)
(-0.000343853 -0.000304361 0)
(-0.00816466 0.0057409 -4.84394e-18)
(-0.00677919 0.00236231 -2.29918e-18)
(-0.00282608 0.00144529 0)
(-0.0253224 -0.000628969 0)
(-0.00193551 0.00987371 3.38223e-18)
(-0.00923024 -0.0267645 0)
(-0.0316051 0.023121 9.45704e-18)
(-0.0215744 0.024331 0)
(-0.0224679 0.0316956 4.45701e-18)
(0.00271366 0.0151145 -2.38074e-20)
(0.00132049 -0.0173444 -2.68592e-18)
(0.0109533 -0.00424678 -3.29248e-18)
(-0.00581294 -0.0327506 -1.12071e-18)
(-0.0179059 -0.0100577 0)
(-0.0156154 0.00249982 0)
(0.00194976 -0.0267469 0)
(0.00206904 -0.032554 3.51482e-20)
(-0.00915077 -0.00255313 -4.43152e-18)
(-0.013525 -0.0133133 5.45664e-19)
(-0.0256093 0.00899233 2.53829e-19)
(-0.00148142 -0.0342632 0)
(-0.00816707 -0.0373645 0)
(-0.00621049 -0.0334904 2.23963e-19)
(-0.0106228 -0.0254302 0)
(0.0326624 -0.0413334 0)
(0.0365768 -0.0243185 -7.25167e-18)
(0.0325257 -0.0154762 -7.004e-19)
(0.0129344 -0.0372453 0)
(0.0299603 -0.0306257 -9.58036e-18)
(0.00396977 -0.00565802 -1.06499e-18)
(-0.00362828 -0.001038 0)
(0.00342884 -0.00211991 -3.91048e-18)
(0.0354708 -0.0285993 0)
(0.0247705 -0.0104226 0)
(-0.00583818 0.0531526 2.00644e-18)
(0.00336301 0.0523556 -9.96178e-19)
(-0.00486531 0.0578864 -5.26444e-18)
(-0.012341 0.0514032 -2.53837e-19)
(-0.00629472 0.0436959 0)
(-0.0094244 0.0440636 -7.39012e-19)
(-0.0121743 0.0321322 -3.66939e-19)
(-0.00473841 0.0242956 -9.35593e-19)
(-0.0304494 0.054725 0)
(-0.0185808 -0.00245293 4.00365e-18)
(-0.0203622 -0.000816896 0)
(0.000782394 -0.0036313 0)
(-0.00243041 0.00144787 0)
(0.00127911 -0.00224086 0)
(0.00311969 -0.00156841 -4.88999e-19)
(0.000375377 5.10743e-05 3.70534e-19)
(-0.00267296 0.00668802 1.93314e-18)
(-0.0015535 0.00693259 0)
(-0.00243928 0.00510502 -2.21059e-19)
(-0.00026856 0.000172836 -1.09247e-18)
(0.000466057 0.000485252 -3.06093e-19)
(0.0274754 -0.000468342 -2.10645e-18)
(0.0174616 0.00295228 0)
(0.00920462 -0.00837824 -6.87045e-18)
(0.0324007 -0.00702214 -3.41292e-18)
(0.0306704 -0.0171787 1.75591e-18)
(0.0474019 0.000915126 -3.50325e-18)
(0.0557899 -0.0254362 0)
(0.0192762 0.0252201 9.11956e-19)
(0.0183656 0.0264687 4.53049e-18)
(-0.00750681 0.0535394 1.33058e-18)
(-0.0152475 0.0179394 5.16244e-19)
(-0.00196122 0.0105371 -1.3782e-18)
(-0.00577671 0.0113498 0)
(0.01118 0.0164558 0)
(-0.00301039 0.0224394 0)
(0.0079952 0.000517169 1.12089e-18)
(0.0084226 0.00505439 1.3401e-18)
(0.00083962 0.00156118 -7.34424e-19)
(0.00257661 0.00271088 2.84403e-18)
(-0.00834656 0.00297229 0)
(-0.00710333 -0.00361976 -1.19628e-18)
(-0.00260502 0.00856411 1.82231e-18)
(0.000651561 0.00634343 3.82665e-18)
(-0.00138118 -0.00300019 -9.28956e-19)
(-0.00370403 0.00245064 6.95397e-19)
(-0.00236836 0.00373393 -7.55894e-19)
(-0.00456057 0.00288841 -2.44794e-18)
(-0.0043396 0.00135269 -4.24845e-18)
(-0.0048856 -0.00157778 -5.19275e-18)
(-0.000510974 -0.00465442 3.92666e-18)
(-0.000856602 0.000353263 6.88448e-18)
(0.0103383 -0.00349988 0)
(0.0111772 0.00296498 -6.65327e-19)
(-0.00392912 0.00840516 3.16864e-18)
(0.00402281 0.000467171 0)
(0.0141136 -0.006541 -6.06566e-18)
(0.0228288 -0.00722535 -6.63808e-18)
(0.0274713 -0.00766278 -4.60795e-18)
(0.0150418 -0.00493642 0)
(-0.00770276 -0.00045176 0)
(-0.00540575 -0.00136565 -2.32816e-18)
(-0.0023022 0.0075993 -2.44673e-18)
(-0.00733473 0.00978557 -6.02074e-18)
(0.00096588 -0.0016864 -1.17789e-18)
(-0.00205123 0.00471861 -5.46371e-19)
(-0.0401331 0.0381205 -1.3058e-17)
(-0.0492223 0.0290319 -1.62479e-17)
(-0.0354601 0.0240517 9.57535e-18)
(-0.0553232 0.0220535 -6.22717e-19)
(-0.0262203 -0.0111269 0)
(-0.0290552 0.0137601 9.56808e-18)
(-0.0237443 -0.00599939 7.94667e-18)
(-0.0394633 0.0200037 7.91614e-18)
(-0.0480428 0.0167246 0)
(-0.0355396 -0.00862002 0)
(-0.0179242 -0.0104212 -6.15672e-18)
(-0.00200362 -0.0329606 -8.61792e-18)
(-0.00517092 -0.0295987 -6.3417e-18)
(0.00254523 -0.0364109 -2.08206e-19)
(-0.000565257 -0.0230691 1.17448e-19)
(0.0111037 -0.033946 -2.02026e-18)
(-0.000711875 0.0019672 -9.46276e-19)
(-0.00413266 0.0174262 0)
(0.00716944 0.0120147 9.37589e-19)
(-0.00272088 0.0336567 0)
(-0.00374947 0.0268608 0)
(0.0404805 -0.0398816 -1.60819e-20)