/*--------------------------------*- C++ -*----------------------------------*\
  =========                 |
  \\      /  F ield         | OpenFOAM: The Open Source CFD Toolbox
   \\    /   O peration     | Website:  https://openfoam.org
    \\  /    A nd           | Version:  6
     \\/     M anipulation  |
\*---------------------------------------------------------------------------*/
FoamFile
{
    version     2.0;
    format      ascii;
    class       volScalarField;
    location    "0";
    object      p;
}
// * * * * * * * * * * * * * * * * * * * * * * * * * * * * * * * * * * * * * //

dimensions      [0 2 -2 0 0 0 0];

internalField   nonuniform List<scalar> 
9000
(
114.187
63.4449
49.3773
43.4327
40.3389
38.5695
37.4246
36.5962
35.9404
35.3819
34.8787
34.4062
33.9497
33.5003
33.0527
32.604
32.1526
31.698
31.2399
30.7785
30.3143
29.8477
29.3791
28.909
28.4378
27.9658
27.4935
27.0212
26.5492
26.0779
25.6074
25.1382
24.6707
24.2053
23.7424
23.2826
22.8267
22.3755
21.9302
21.4923
21.0638
20.6474
20.2472
19.8689
19.5209
19.2146
18.9553
18.7144
18.7128
17.6801
86.0027
60.2305
50.0068
44.5182
41.294
39.2931
37.9518
36.9777
36.2168
35.5825
35.0245
34.5119
34.0261
33.5552
33.0919
32.6318
32.1721
31.7115
31.2491
30.7848
30.3185
29.8505
29.381
28.9103
28.4387
27.9666
27.4942
27.0218
26.5497
26.0782
25.6076
25.1382
24.6702
24.2041
23.7403
23.2793
22.8216
22.368
21.9192
21.4764
21.0409
20.6144
20.1989
19.797
19.4108
19.0402
18.6736
18.2635
17.7967
16.3098
68.9349
56.6273
49.8791
45.0974
41.9605
39.867
38.4035
37.3219
36.4756
35.7759
35.1682
34.6183
34.1044
33.6125
33.1335
32.6617
32.1935
31.7266
31.2597
30.7922
30.3236
29.854
29.3834
28.912
28.4399
27.9674
27.4948
27.0223
26.55
26.0783
25.6074
25.1376
24.6691
24.2022
23.7373
23.2747
22.8149
22.3583
21.9055
21.457
21.0134
20.5754
20.1429
19.7152
19.2889
18.8543
18.3861
17.817
17.0698
15.6773
59.707
53.1615
48.7073
44.8811
42.1123
40.122
38.659
37.5441
36.6574
35.9201
35.2804
34.7044
34.1699
33.6618
33.1703
32.689
32.2135
31.7412
31.2703
30.7997
30.329
29.8578
29.3861
28.9138
28.4412
27.9683
27.4954
27.0226
26.5501
26.0781
25.6068
25.1365
24.6673
24.1995
23.7334
23.2691
22.8071
22.3474
21.8904
21.4362
20.9848
20.5356
20.0873
19.6369
19.1776
18.6955
18.1619
17.5154
16.6855
15.4626
53.5975
50.0801
47.1792
44.2613
41.9443
40.1524
38.7644
37.6677
36.7748
36.0222
35.3652
34.7729
34.224
33.7039
33.2028
32.7137
32.2322
31.7551
31.2806
30.8073
30.3345
29.8618
29.3889
28.9159
28.4426
27.9693
27.496
27.0228
26.55
26.0776
25.6059
25.1349
24.665
24.1962
23.7287
23.2627
22.7983
22.3356
21.8744
21.4147
20.9557
20.4962
20.0339
19.5643
19.0793
18.5639
17.9922
17.3165
16.4846
15.4092
49.2101
47.4645
45.638
43.4743
41.5923
40.0311
38.7575
37.7121
36.8377
36.0872
35.425
34.8246
34.2671
33.739
33.2307
32.7356
32.2492
31.7682
31.2905
30.8147
30.3401
29.8659
29.3919
28.918
28.4441
27.9702
27.4965
27.0229
26.5496
26.0768
25.6046
25.133
24.6622
24.1924
23.7236
23.2558
22.789
22.3232
21.8581
21.3931
20.9271
20.4586
19.9844
19.4995
18.9954
18.4585
17.8671
17.1872
16.3843
15.4314
46.0314
45.3032
44.2029
42.6323
41.1355
39.8065
38.6654
37.6916
36.8532
36.1187
35.4614
34.8602
34.2993
33.7667
33.2538
32.7545
32.2642
31.78
31.2997
30.8218
30.3455
29.8699
29.3949
28.9201
28.4455
27.9711
27.4969
27.0229
26.5491
26.0758
25.603
25.1308
24.6592
24.1882
23.718
23.2485
22.7795
22.3108
21.842
21.3722
20.9002
20.424
19.9402
19.4438
18.927
18.3779
17.7799
17.1101
16.3483
15.4961
43.6915
43.5348
42.917
41.8
40.6294
39.5174
38.5128
37.6212
36.8302
36.1214
35.4769
34.881
34.321
33.7872
33.272
32.77
32.2772
31.7906
31.3081
30.8285
30.3506
29.8738
29.3978
28.9222
28.447
27.972
27.4972
27.0227
26.5485
26.0747
25.6013
25.1283
24.6559
24.1839
23.7123
23.2411
22.77
22.2987
21.8265
21.3526
20.8756
20.3932
19.9022
19.398
18.8736
18.3195
17.7236
17.0716
16.3536
15.583
41.9297
42.0902
41.7919
41.0158
40.1132
39.1946
38.3214
37.5151
36.7775
36.1009
35.4749
34.8889
34.3335
33.8011
33.2856
32.7824
32.288
31.7997
31.3156
30.8345
30.3553
29.8775
29.4005
28.9242
28.4483
27.9727
27.4974
27.0224
26.5478
26.0734
25.5994
25.1257
24.6524
24.1794
23.7066
23.2338
22.7608
22.2872
21.8122
21.3348
20.8537
20.3666
19.8707
19.3616
18.8338
18.28
17.6918
17.0611
16.3846
15.6795
40.5759
40.9091
40.8221
40.2997
39.6129
38.8614
38.1088
37.3859
36.7037
36.0628
35.4589
34.886
34.338
33.8092
33.2951
32.7919
32.2967
31.8073
31.3221
30.8399
30.3596
29.8809
29.4031
28.926
28.4495
27.9734
27.4976
27.0221
26.5469
26.072
25.5974
25.123
24.6489
24.1749
23.701
23.2268
22.7521
22.2765
21.7991
21.319
20.8348
20.3446
19.8455
19.3342
18.8062
18.2561
17.6787
17.07
16.4309
15.7784
39.518
39.9417
39.9948
39.6598
39.1446
38.534
37.8891
37.2443
36.6165
36.0124
35.4326
34.8749
34.336
33.8124
33.3009
32.7987
32.3035
31.8137
31.3277
30.8446
30.3635
29.8839
29.4054
28.9277
28.4506
27.9739
27.4976
27.0216
26.5459
26.0705
25.5953
25.1203
24.6454
24.1706
23.6956
23.2202
22.7441
22.2667
21.7875
21.3054
20.819
20.3268
19.8263
19.3148
18.7888
18.2448
17.6797
17.0924
16.486
15.8758
38.6807
39.1486
39.2946
39.0979
38.7176
38.2242
37.673
37.0989
36.5226
35.9546
35.3993
34.8577
34.329
33.8117
33.3036
32.8032
32.3087
31.8188
31.3324
30.8486
30.3669
29.8866
29.4075
28.9292
28.4515
27.9743
27.4975
27.0211
26.5449
26.069
25.5932
25.1176
24.642
24.1663
23.6904
23.214
22.7367
22.2581
21.7774
21.2939
20.8063
20.3131
19.8125
19.3022
18.78
18.2434
17.6911
17.1237
16.5454
15.9694
38.0124
38.4992
38.707
38.6119
38.3372
37.9396
37.4682
36.9569
36.4275
35.8935
35.362
34.8367
34.3187
33.8081
33.3041
32.8058
32.3123
31.8227
31.3362
30.8521
30.3698
29.889
29.4092
28.9304
28.4522
27.9745
27.4973
27.0204
26.5438
26.0674
25.5911
25.1149
24.6387
24.1623
23.6856
23.2084
22.7301
22.2505
21.7689
21.2845
20.7963
20.3031
19.8034
19.2955
18.778
18.2495
17.7098
17.1605
16.6062
16.0581
37.4776
37.9697
38.2187
38.1984
38.0054
37.6854
37.2808
36.8235
36.3359
35.8329
35.3237
34.8139
34.3064
33.8026
33.3028
32.807
32.3148
31.8257
31.3392
30.8549
30.3722
29.8909
29.4107
28.9314
28.4528
27.9747
27.497
27.0197
26.5426
26.0657
25.589
25.1123
24.6355
24.1586
23.6812
23.2032
22.7243
22.244
21.7618
21.2771
20.7889
20.2963
19.7983
19.2936
18.7814
18.2611
17.7333
17.2003
16.6664
16.1411
37.0514
37.5423
37.8187
37.8532
37.723
37.4646
37.1149
36.7032
36.2516
35.7758
35.2867
34.7911
34.2934
33.796
33.3005
32.8072
32.3164
31.8279
31.3416
30.8571
30.3742
29.8925
29.4119
28.9322
28.4531
27.9746
27.4965
27.0188
26.5414
26.0641
25.5869
25.1098
24.6325
24.155
23.6772
23.1987
22.7192
22.2386
21.7561
21.2714
20.7837
20.2923
19.7965
19.2954
18.7888
18.2766
17.7599
17.2412
16.7247
16.2181
36.7165
37.2033
37.4981
37.5723
37.4895
37.2793
36.9734
36.5989
36.1773
35.7247
35.2529
34.7697
34.2807
33.7893
33.2976
32.8067
32.3172
31.8294
31.3433
30.8588
30.3757
29.8937
29.4128
28.9327
28.4533
27.9744
27.496
27.0179
26.5401
26.0624
25.5849
25.1073
24.6296
24.1517
23.6735
23.1946
22.7149
22.234
21.7516
21.2672
20.7804
20.2905
19.7972
19.3001
18.7991
18.2946
17.7881
17.2819
16.7802
16.289
36.4605
36.9427
37.2495
37.352
37.3043
37.1304
36.8583
36.5131
36.1154
35.6817
35.2239
34.7512
34.2695
33.7831
33.2946
32.8058
32.3176
31.8304
31.3446
30.86
30.3768
29.8946
29.4134
28.933
28.4532
27.974
27.4953
27.0169
26.5387
26.0608
25.5828
25.1049
24.6269
24.1487
23.6701
23.191
22.7111
22.2302
21.7481
21.2643
20.7786
20.2905
19.8
19.3068
18.8112
18.3139
17.8165
17.3214
16.832
16.3538
36.2751
36.7531
37.0675
37.1895
37.1663
37.0185
36.7711
36.4474
36.0677
35.6481
35.2012
34.7364
34.2604
33.7779
33.292
32.8049
32.3176
31.831
31.3454
30.8608
30.3774
29.8951
29.4136
28.933
28.453
27.9735
27.4945
27.0158
26.5374
26.0591
25.5809
25.1027
24.6243
24.1458
23.667
23.1877
22.7078
22.2271
21.7454
21.2624
20.7779
20.2918
19.804
19.3147
18.8243
18.3336
17.8443
17.3587
16.88
16.4125
36.1543
36.6293
36.9484
37.0824
37.0749
36.9438
36.7125
36.4031
36.0352
35.6251
35.1855
34.726
34.2539
33.7741
33.2901
32.8041
32.3175
31.8313
31.3458
30.8612
30.3777
29.8952
29.4136
28.9327
28.4525
27.9728
27.4936
27.0146
26.5359
26.0574
25.5789
25.1004
24.6219
24.1432
23.6642
23.1848
22.705
22.2245
21.7433
21.2611
20.778
20.2939
19.8089
19.3232
18.8376
18.3529
17.8708
17.3934
16.9236
16.4651
36.0948
36.5682
36.8894
37.0292
37.0293
36.9065
36.6831
36.3807
36.0188
35.6134
35.1774
34.7207
34.2506
33.7722
33.289
32.8036
32.3173
31.8312
31.3458
30.8612
30.3777
29.895
29.4133
28.9322
28.4518
27.972
27.4925
27.0133
26.5344
26.0556
25.5769
25.0982
24.6195
24.1406
23.6615
23.1821
22.7024
22.2222
21.7416
21.2604
20.7786
20.2964
19.814
19.3318
18.8505
18.3712
17.8953
17.425
16.9627
16.5117
36.0948
36.5682
36.8894
37.0292
37.0293
36.9064
36.683
36.3807
36.0187
35.6133
35.1774
34.7207
34.2505
33.7721
33.2889
32.8034
32.3171
31.831
31.3455
30.8609
30.3772
29.8945
29.4126
28.9315
28.451
27.9709
27.4913
27.012
26.5329
26.0539
25.575
25.0961
24.6172
24.1381
23.659
23.1796
22.7
22.2202
21.7401
21.2598
20.7794
20.299
19.819
19.3399
18.8625
18.3879
17.9175
17.4532
16.9972
16.5523
36.1543
36.6293
36.9483
37.0823
37.0748
36.9438
36.7124
36.403
36.0351
35.625
35.1853
34.7259
34.2537
33.7739
33.2897
32.8036
32.3169
31.8305
31.3449
30.8602
30.3764
29.8937
29.4117
28.9305
28.4499
27.9698
27.49
27.0105
26.5313
26.0521
25.573
25.094
24.6149
24.1357
23.6565
23.1772
22.6977
22.2182
21.7387
21.2592
20.78
20.3013
19.8235
19.3472
18.8733
18.4027
17.9369
17.4776
17.0269
16.5872
36.2749
36.753
37.0675
37.1894
37.1662
37.0184
36.771
36.4473
36.0676
35.6479
35.2009
34.7361
34.26
33.7774
33.2914
32.8041
32.3167
31.8298
31.3439
30.8591
30.3753
29.8925
29.4105
28.9293
28.4486
27.9684
27.4886
27.009
26.5296
26.0503
25.571
25.0918
24.6126
24.1333
23.654
23.1747
22.6954
22.2162
21.7371
21.2584
20.7803
20.3031
19.8272
19.3533
18.8823
18.4152
17.9533
17.4982
17.0518
16.6162
36.4603
36.9425
37.2493
37.3519
37.3042
37.1303
36.8582
36.513
36.1153
35.6814
35.2236
34.7508
34.269
33.7824
33.2938
32.8048
32.3163
31.8288
31.3426
30.8576
30.3738
29.891
29.4091
28.9279
28.4472
27.967
27.4871
27.0074
26.5279
26.0484
25.569
25.0896
24.6103
24.1309
23.6515
23.1722
22.693
22.214
21.7353
21.2573
20.78
20.304
19.8298
19.358
18.8894
18.4251
17.9664
17.5148
17.0719
16.6397
36.7162
37.2031
37.4979
37.5722
37.4894
37.2791
36.9732
36.5987
36.1771
35.7245
35.2525
34.7693
34.2801
33.7885
33.2965
32.8054
32.3156
31.8274
31.3408
30.8557
30.3719
29.8892
29.4074
28.9262
28.4456
27.9654
27.4855
27.0057
26.5261
26.0465
25.567
25.0874
24.6079
24.1284
23.6489
23.1695
22.6903
22.2115
21.7331
21.2555
20.779
20.304
19.8311
19.3609
18.8943
18.4323
17.9762
17.5273
17.0872
16.6575
37.0511
37.5421
37.8186
37.8531
37.7228
37.4645
37.1147
36.703
36.2513
35.7755
35.2862
34.7905
34.2926
33.7951
33.2992
32.8056
32.3144
31.8255
31.3386
30.8534
30.3697
29.8871
29.4054
28.9244
28.4439
27.9637
27.4838
27.004
26.5243
26.0446
25.5649
25.0852
24.6055
24.1258
23.6461
23.1666
22.6874
22.2086
21.7304
21.2531
20.7771
20.3029
19.8309
19.3619
18.8968
18.4366
17.9825
17.5356
17.0976
16.6698
37.4773
37.9695
38.2185
38.1983
38.0052
37.6852
37.2806
36.8233
36.3357
35.8325
35.3232
34.8133
34.3056
33.8015
33.3014
32.8053
32.3126
31.823
31.3358
30.8506
30.367
29.8847
29.4032
28.9223
28.442
27.9619
27.482
27.0022
26.5225
26.0427
25.5628
25.0829
24.603
24.1231
23.6432
23.1635
22.6842
22.2053
21.7271
21.25
20.7742
20.3004
19.8291
19.361
18.8969
18.4379
17.9852
17.5398
17.1032
16.6768
38.0121
38.4989
38.7067
38.6118
38.337
37.9395
37.468
36.9566
36.4272
35.8931
35.3615
34.836
34.3178
33.8069
33.3026
32.8039
32.3099
31.8197
31.3324
30.8474
30.364
29.8819
29.4007
28.9202
28.44
27.9601
27.4802
27.0004
26.5206
26.0407
25.5607
25.0806
24.6004
24.1203
23.6402
23.1602
22.6806
22.2015
21.7231
21.2459
20.7702
20.2966
19.8256
19.3579
18.8945
18.4362
17.9843
17.5398
17.1041
16.6785
38.6804
39.1483
39.2944
39.0977
38.7175
38.224
37.6728
37.0987
36.5223
35.9542
35.3987
34.857
34.3281
33.8104
33.302
32.8011
32.3061
31.8155
31.3283
30.8435
30.3606
29.8789
29.3981
28.9179
28.4379
27.9582
27.4784
26.9987
26.5188
26.0387
25.5586
25.0783
24.5978
24.1173
23.6369
23.1566
22.6766
22.1972
21.7185
21.241
20.7651
20.2913
19.8203
19.3527
18.8894
18.4314
17.9797
17.5356
17.1002
16.6749
39.5177
39.9414
39.9946
39.6597
39.1444
38.5339
37.889
37.2441
36.6163
36.012
35.4321
34.8742
34.335
33.8111
33.2992
32.7965
32.3008
31.8102
31.3234
30.8392
30.3568
29.8757
29.3953
28.9155
28.4358
27.9563
27.4766
26.9969
26.517
26.0368
25.5565
25.0759
24.5952
24.1143
23.6335
23.1527
22.6723
22.1923
21.7132
21.2352
20.7588
20.2846
19.8131
19.3452
18.8817
18.4234
17.9716
17.5273
17.0918
16.6662
40.5755
40.9088
40.8219
40.2995
39.6128
38.8612
38.1087
37.3857
36.7035
36.0625
35.4584
34.8853
34.337
33.8079
33.2934
32.7897
32.2939
31.8038
31.3176
30.8342
30.3526
29.8722
29.3924
28.913
28.4337
27.9544
27.4749
26.9952
26.5152
26.035
25.5544
25.0735
24.5925
24.1112
23.6299
23.1486
22.6676
22.187
21.7072
21.2285
20.7514
20.2764
19.8042
19.3356
18.8713
18.4124
17.9599
17.515
17.0787
16.6525
41.9294
42.09
41.7917
41.0157
40.1131
39.1945
38.3212
37.515
36.7773
36.1006
35.4745
34.8882
34.3326
33.7999
33.284
32.7803
32.2852
31.7961
31.311
30.8287
30.3481
29.8684
29.3894
28.9105
28.4316
27.9526
27.4733
26.9936
26.5136
26.0332
25.5524
25.0712
24.5898
24.1081
23.6262
23.1443
22.6625
22.1812
21.7005
21.2209
20.7428
20.2668
19.7935
19.3238
18.8584
18.3984
17.9447
17.4986
17.0612
16.6337
43.6912
43.5345
42.9169
41.7999
40.6293
39.5173
38.5127
37.6211
36.83
36.1212
35.4765
34.8804
34.3202
33.7861
33.2705
32.768
32.2745
31.787
31.3036
30.8226
30.3432
29.8646
29.3863
28.9081
28.4296
27.9509
27.4717
26.9921
26.5121
26.0315
25.5505
25.069
24.5871
24.1049
23.6224
23.1398
22.6572
22.1749
21.6932
21.2124
20.7331
20.2558
19.7811
19.3099
18.8429
18.3813
17.9261
17.4783
17.0393
16.6102
46.0311
45.303
44.2028
42.6322
41.1354
39.8065
38.6654
37.6916
36.8531
36.1185
35.4611
34.8598
34.2986
33.7657
33.2524
32.7526
32.2617
31.7766
31.2953
30.8161
30.3381
29.8607
29.3833
28.9057
28.4278
27.9494
27.4704
26.9909
26.5107
26.03
25.5488
25.0669
24.5846
24.1017
23.6186
23.1351
22.6516
22.1682
21.6853
21.2032
20.7224
20.2434
19.767
19.2939
18.825
18.3614
17.904
17.4541
17.013
16.5818
49.2099
47.4644
45.6379
43.4743
41.5923
40.0311
38.7575
37.7121
36.8376
36.0872
35.4248
34.8243
34.2666
33.7382
33.2295
32.7339
32.2468
31.765
31.2863
30.8092
30.3329
29.8568
29.3804
28.9036
28.4261
27.948
27.4693
26.9898
26.5096
26.0288
25.5472
25.065
24.5821
24.0987
23.6148
23.1304
22.6458
22.1613
21.6769
21.1933
20.7107
20.2298
19.7513
19.276
18.8047
18.3386
17.8787
17.4262
16.9824
16.5486
53.5973
50.08
47.1791
44.2613
41.9443
40.1524
38.7645
37.6678
36.7749
36.0222
35.3651
34.7727
34.2236
33.7033
33.2018
32.7123
32.2301
31.7522
31.2767
30.8021
30.3277
29.853
29.3777
28.9016
28.4247
27.947
27.4684
26.989
26.5088
26.0277
25.5459
25.0633
24.5799
24.0958
23.611
23.1257
22.64
22.1541
21.6682
21.1828
20.6983
20.2152
19.7342
19.2563
18.7822
18.3131
17.8502
17.3946
16.9477
16.5108
59.7069
53.1615
48.7073
44.8811
42.1123
40.1221
38.6591
37.5443
36.6576
35.9202
35.2805
34.7045
34.1697
33.6614
33.1696
32.6879
32.2118
31.7387
31.2668
30.795
30.3227
29.8495
29.3753
28.9
28.4237
27.9463
27.4679
26.9885
26.5082
26.027
25.5449
25.0618
24.5779
24.0931
23.6075
23.1212
22.6342
22.1468
21.6593
21.1719
20.6851
20.1995
19.7159
19.2349
18.7576
18.2851
17.8187
17.3595
16.9089
16.4685
68.9348
56.6273
49.8791
45.0975
41.9607
39.8672
38.4038
37.3222
36.4759
35.7762
35.1685
34.6185
34.1045
33.6124
33.1332
32.661
32.1923
31.7247
31.2568
30.7881
30.318
29.8464
29.3734
28.8989
28.4231
27.946
27.4678
26.9884
26.5081
26.0266
25.5442
25.0607
24.5763
24.0907
23.6042
23.1168
22.6285
22.1395
21.6501
21.1605
20.6713
20.1829
19.6961
19.2117
18.7307
18.2543
17.7837
17.3203
16.8655
16.4209
86.0026
60.2305
50.0068
44.5183
41.2941
39.2933
37.9521
36.9781
36.2172
35.583
35.025
34.5124
34.0265
33.5555
33.092
32.6315
32.1714
31.7101
31.2469
30.7815
30.3138
29.8439
29.372
28.8983
28.423
27.9462
27.4681
26.9888
26.5084
26.0267
25.544
25.0601
24.575
24.0887
23.6012
23.1126
22.6228
22.1321
21.6405
21.1485
20.6564
20.1648
19.6743
19.1859
18.7005
18.2194
17.7439
17.2754
16.8155
16.3659
114.187
63.4449
49.3773
43.4329
40.3391
38.5698
37.425
36.5967
35.941
35.3825
34.8794
34.4069
33.9504
33.5009
33.0531
32.6042
32.1525
31.6973
31.2384
30.776
30.3105
29.8421
29.3712
28.8982
28.4233
27.9468
27.4688
26.9895
26.5089
26.0271
25.5441
25.0597
24.5741
24.0871
23.5988
23.109
22.6179
22.1254
21.6319
21.1375
20.6426
20.1478
19.6538
19.1614
18.6717
18.1859
17.7055
17.2321
16.7671
16.3125
8.19826
10.1229
10.2307
10.6115
10.8182
10.9663
11.0544
11.1025
11.1191
11.1112
11.0836
11.04
10.9829
10.9147
10.8369
10.7511
10.6584
10.5598
10.4561
10.348
10.2362
10.1211
10.0034
9.88328
9.7612
9.63746
9.51232
9.38601
9.25874
9.13069
9.00199
8.87278
8.74316
8.61324
8.48308
8.35276
8.22232
8.09181
7.96128
7.83074
7.70023
7.56975
7.43933
7.30897
7.17868
7.04846
6.91832
6.78826
6.65827
6.52835
6.39851
6.26873
6.13901
6.00936
5.87976
5.7502
5.6207
5.49123
5.36181
5.23242
5.10305
4.97372
4.84441
4.71512
4.58585
4.45659
4.32735
4.19812
4.06891
3.9397
3.8105
3.68131
3.55212
3.42293
3.29375
3.16458
3.0354
2.90623
2.77706
2.64789
2.51873
2.38956
2.26039
2.13123
2.00206
1.8729
1.74373
1.61457
1.4854
1.35624
1.22707
1.09791
0.968746
0.839581
0.710417
0.581252
0.452089
0.322922
0.193766
0.0645749
10.5948
11.1369
10.8453
11.0058
11.0963
11.1733
11.215
11.2302
11.2222
11.195
11.152
11.0957
11.0282
10.9512
10.8661
10.7741
10.6761
10.5731
10.4657
10.3546
10.2403
10.1232
10.0038
9.88236
9.75926
9.63475
9.50904
9.38234
9.25482
9.12663
8.99789
8.86872
8.73921
8.60942
8.47945
8.34932
8.2191
8.08882
7.95851
7.8282
7.69791
7.56764
7.43742
7.30726
7.17714
7.0471
6.91711
6.78719
6.65733
6.52753
6.39779
6.26811
6.13848
6.0089
5.87936
5.74987
5.62042
5.491
5.36161
5.23225
5.10292
4.97361
4.84432
4.71505
4.5858
4.45656
4.32733
4.19811
4.0689
3.9397
3.8105
3.68131
3.55212
3.42294
3.29377
3.16459
3.03542
2.90625
2.77708
2.64791
2.51874
2.38957
2.26041
2.13124
2.00207
1.87291
1.74374
1.61458
1.48541
1.35625
1.22708
1.09792
0.96875
0.839585
0.71042
0.581254
0.45209
0.322923
0.193763
0.0645805
11.9075
11.8732
11.404
11.3926
11.3793
11.3871
11.3817
11.3628
11.3291
11.2819
11.2228
11.1534
11.0751
10.989
10.8963
10.798
10.6947
10.5871
10.476
10.3617
10.2448
10.1256
10.0045
9.8817
9.75754
9.63221
9.5059
9.37878
9.25098
9.12264
8.99385
8.8647
8.73527
8.60563
8.47582
8.34589
8.21588
8.08582
7.95574
7.82565
7.69557
7.56552
7.4355
7.30553
7.17559
7.04571
6.91588
6.7861
6.65638
6.5267
6.39706
6.26748
6.13793
6.00843
5.87896
5.74953
5.62013
5.49076
5.36141
5.23209
5.10279
4.9735
4.84424
4.71499
4.58575
4.45652
4.3273
4.19809
4.06889
3.93969
3.8105
3.68131
3.55213
3.42295
3.29378
3.1646
3.03543
2.90626
2.77709
2.64792
2.51875
2.38958
2.26042
2.13125
2.00208
1.87292
1.74375
1.61459
1.48542
1.35625
1.22709
1.09792
0.968755
0.839589
0.710423
0.581256
0.45209
0.322923
0.193759
0.0645858
12.8063
12.4513
11.8998
11.7579
11.6573
11.6016
11.5507
11.498
11.4384
11.3709
11.2954
11.2126
11.1232
11.0279
10.9274
10.8225
10.7138
10.6016
10.4866
10.3692
10.2496
10.1283
10.0054
9.88122
9.75597
9.6298
9.50286
9.3753
9.24721
9.1187
8.98984
8.86071
8.73136
8.60184
8.47219
8.34245
8.21265
8.08281
7.95295
7.82308
7.69322
7.56338
7.43356
7.30378
7.17403
7.04432
6.91464
6.785
6.65541
6.52585
6.39632
6.26683
6.13738
6.00795
5.87856
5.74918
5.61984
5.49051
5.36121
5.23192
5.10265
4.97339
4.84415
4.71491
4.58569
4.45648
4.32727
4.19807
4.06888
3.93969
3.8105
3.68132
3.55214
3.42296
3.29379
3.16461
3.03544
2.90627
2.7771
2.64793
2.51876
2.3896
2.26043
2.13126
2.00209
1.87293
1.74376
1.61459
1.48543
1.35626
1.22709
1.09793
0.968759
0.839592
0.710425
0.581258
0.452091
0.322924
0.193757
0.0645911
13.4593
12.9241
12.335
12.096
11.9244
11.8124
11.7191
11.6338
11.5487
11.4608
11.3689
11.2726
11.172
11.0674
10.9591
10.8476
10.7333
10.6165
10.4976
10.3769
10.2547
10.1311
10.0065
9.88088
9.75451
9.62748
9.49991
9.37188
9.24349
9.1148
8.98587
8.85674
8.72746
8.59806
8.46857
8.33902
8.20942
8.07979
7.95015
7.8205
7.69086
7.56123
7.43161
7.30202
7.17245
7.04291
6.91339
6.7839
6.65443
6.52499
6.39557
6.26618
6.13681
6.00747
5.87814
5.74883
5.61954
5.49026
5.361
5.23175
5.10251
4.97328
4.84405
4.71484
4.58564
4.45643
4.32724
4.19805
4.06886
3.93968
3.8105
3.68132
3.55214
3.42297
3.2938
3.16463
3.03545
2.90628
2.77712
2.64795
2.51878
2.38961
2.26044
2.13127
2.00211
1.87294
1.74377
1.6146
1.48543
1.35627
1.2271
1.09793
0.968764
0.839596
0.710428
0.58126
0.452092
0.322925
0.193754
0.0645962
13.939
13.3153
12.7146
12.4053
12.1771
12.0163
11.8845
11.7684
11.6586
11.5509
11.4428
11.333
11.2212
11.1072
10.991
10.8729
10.753
10.6315
10.5087
10.3848
10.2598
10.1341
10.0076
9.88061
9.75311
9.62521
9.49699
9.36851
9.2398
9.11093
8.98191
8.85278
8.72357
8.59428
8.46495
8.33558
8.20618
8.07677
7.94734
7.81792
7.68849
7.55907
7.42966
7.30025
7.17087
7.04149
6.91213
6.78278
6.65344
6.52413
6.39482
6.26553
6.13625
6.00698
5.87772
5.74847
5.61923
5.49001
5.36078
5.23157
5.10236
4.97316
4.84396
4.71477
4.58558
4.45639
4.32721
4.19803
4.06885
3.93967
3.8105
3.68132
3.55215
3.42298
3.29381
3.16464
3.03547
2.9063
2.77713
2.64796
2.51879
2.38962
2.26045
2.13128
2.00212
1.87295
1.74378
1.61461
1.48544
1.35627
1.22711
1.09794
0.968768
0.8396
0.710431
0.581263
0.452093
0.322926
0.193751
0.0646011
14.3026
13.6433
13.0451
12.6861
12.4134
12.2112
12.0448
11.9002
11.7671
11.6402
11.5162
11.3932
11.2703
11.1469
11.0229
10.8982
10.7727
10.6466
10.5199
10.3927
10.265
10.1371
10.0088
9.88037
9.75174
9.62297
9.4941
9.36514
9.23613
9.10706
8.97796
8.84883
8.71968
8.59051
8.46133
8.33214
8.20295
8.07374
7.94454
7.81533
7.68612
7.55691
7.42769
7.29848
7.16928
7.04007
6.91086
6.78166
6.65246
6.52326
6.39406
6.26487
6.13567
6.00649
5.8773
5.74811
5.61893
5.48975
5.36057
5.23139
5.10221
4.97304
4.84387
4.71469
4.58552
4.45635
4.32718
4.19801
4.06883
3.93966
3.8105
3.68133
3.55216
3.42299
3.29382
3.16465
3.03548
2.90631
2.77714
2.64797
2.5188
2.38963
2.26046
2.1313
2.00213
1.87296
1.74379
1.61462
1.48545
1.35628
1.22711
1.09794
0.968773
0.839604
0.710434
0.581265
0.452095
0.322926
0.193749
0.0646058
14.5886
13.9224
13.3335
12.9399
12.6326
12.3956
12.1988
12.0281
11.8732
11.7279
11.5885
11.4526
11.3189
11.1863
11.0546
10.9233
10.7923
10.6615
10.5309
10.4005
10.2702
10.14
10.01
9.88009
9.75034
9.6207
9.49119
9.36177
9.23244
9.10319
8.97401
8.84488
8.71579
8.58674
8.45771
8.32871
8.19971
8.07072
7.94173
7.81274
7.68374
7.55474
7.42573
7.29671
7.16768
7.03865
6.9096
6.78054
6.65147
6.52239
6.3933
6.26421
6.1351
6.00599
5.87688
5.74775
5.61862
5.48949
5.36035
5.23121
5.10207
4.97292
4.84377
4.71462
4.58546
4.4563
4.32714
4.19798
4.06882
3.93966
3.81049
3.68133
3.55216
3.423
3.29383
3.16466
3.03549
2.90632
2.77715
2.64799
2.51882
2.38965
2.26048
2.13131
2.00214
1.87297
1.7438
1.61463
1.48546
1.35629
1.22712
1.09795
0.968778
0.839607
0.710437
0.581267
0.452096
0.322927
0.193746
0.0646103
14.8211
14.1628
13.5858
13.1688
12.8347
12.5687
12.3454
12.1512
11.9759
11.8134
11.6593
11.5109
11.3665
11.225
11.0857
10.9479
10.8115
10.6762
10.5417
10.4081
10.2751
10.1428
10.011
9.87972
9.74887
9.61838
9.48823
9.35836
9.22873
9.0993
8.97004
8.84091
8.7119
8.58296
8.4541
8.32527
8.19648
8.0677
7.93893
7.81016
7.68138
7.55258
7.42378
7.29495
7.1661
7.03723
6.90833
6.77942
6.65048
6.52152
6.39254
6.26355
6.13453
6.0055
5.87645
5.74739
5.61832
5.48924
5.36014
5.23104
5.10192
4.9728
4.84367
4.71454
4.5854
4.45626
4.32711
4.19796
4.06881
3.93965
3.81049
3.68133
3.55217
3.423
3.29384
3.16467
3.0355
2.90634
2.77717
2.648
2.51883
2.38966
2.26049
2.13132
2.00215
1.87298
1.74381
1.61464
1.48547
1.35629
1.22712
1.09795
0.968782
0.839611
0.71044
0.581269
0.452097
0.322928
0.193744
0.0646146
15.0152
14.3719
13.8075
13.3749
13.0202
12.7303
12.4839
12.2685
12.0747
11.8959
11.7279
11.5675
11.413
11.2628
11.116
10.972
10.8302
10.6904
10.5522
10.4154
10.2798
10.1454
10.0119
9.87922
9.74728
9.61597
9.4852
9.35489
9.22497
9.09538
8.96605
8.83694
8.70799
8.57918
8.45047
8.32184
8.19324
8.06468
7.93613
7.80758
7.67902
7.55043
7.42182
7.29319
7.16452
7.03581
6.90708
6.77831
6.6495
6.52066
6.39179
6.26289
6.13397
6.00501
5.87604
5.74704
5.61802
5.48898
5.35993
5.23086
5.10178
4.97268
4.84358
4.71447
4.58535
4.45622
4.32708
4.19794
4.06879
3.93964
3.81049
3.68133
3.55217
3.42301
3.29385
3.16468
3.03552
2.90635
2.77718
2.64801
2.51884
2.38967
2.2605
2.13133
2.00216
1.87299
1.74382
1.61464
1.48547
1.3563
1.22713
1.09796
0.968787
0.839615
0.710443
0.581271
0.452098
0.322929
0.193742
0.0646185
15.181
14.5551
14.003
13.5604
13.1898
12.8801
12.6138
12.3797
12.1689
11.9751
11.7939
11.6222
11.4578
11.2992
11.1453
10.9951
10.8482
10.704
10.5621
10.4223
10.2842
10.1477
10.0125
9.87852
9.74554
9.61343
9.48207
9.35135
9.22116
9.09141
8.96202
8.83293
8.70407
8.57539
8.44685
8.3184
8.19002
8.06167
7.93334
7.80501
7.67667
7.54829
7.41989
7.29144
7.16295
7.03441
6.90583
6.7772
6.64853
6.51981
6.39105
6.26224
6.13341
6.00453
5.87562
5.74669
5.61772
5.48873
5.35972
5.23069
5.10164
4.97257
4.84349
4.71439
4.58529
4.45617
4.32705
4.19792
4.06878
3.93964
3.81049
3.68134
3.55218
3.42302
3.29386
3.16469
3.03553
2.90636
2.77719
2.64802
2.51885
2.38968
2.26051
2.13134
2.00217
1.873
1.74383
1.61465
1.48548
1.35631
1.22714
1.09796
0.968791
0.839619
0.710446
0.581274
0.4521
0.32293
0.193741
0.0646222
15.3249
14.7168
14.176
13.7271
13.3444
13.0185
12.7351
12.4843
12.258
12.0503
11.8569
11.6744
11.5008
11.3341
11.1733
11.0172
10.8653
10.7169
10.5714
10.4286
10.2881
10.1496
10.0128
9.87757
9.74359
9.61072
9.47881
9.3477
9.21726
9.08738
8.95795
8.8289
8.70013
8.57159
8.44322
8.31497
8.1868
8.05867
7.93057
7.80246
7.67433
7.54617
7.41796
7.28971
7.1614
7.03303
6.9046
6.77611
6.64757
6.51897
6.39031
6.26161
6.13285
6.00406
5.87522
5.74634
5.61743
5.48849
5.35952
5.23052
5.1015
4.97246
4.8434
4.71432
4.58524
4.45613
4.32702
4.1979
4.06877
3.93963
3.81049
3.68134
3.55219
3.42303
3.29387
3.16471
3.03554
2.90638
2.77721
2.64804
2.51887
2.3897
2.26052
2.13135
2.00218
1.87301
1.74383
1.61466
1.48549
1.35632
1.22714
1.09797
0.968796
0.839623
0.710449
0.581276
0.452101
0.322931
0.193739
0.0646256
15.4514
14.86
14.3295
13.877
13.4849
13.1456
12.8475
12.5821
12.3419
12.1214
11.9165
11.724
11.5415
11.3672
11.1998
11.0381
10.8814
10.7289
10.58
10.4344
10.2916
10.1511
10.0128
9.87633
9.7414
9.60782
9.47539
9.34392
9.21326
9.08327
8.95383
8.82483
8.69617
8.56778
8.43959
8.31154
8.18359
8.05569
7.92781
7.79992
7.67201
7.54406
7.41606
7.28799
7.15986
7.03166
6.90338
6.77504
6.64662
6.51814
6.38959
6.26098
6.13231
6.00359
5.87482
5.746
5.61714
5.48825
5.35932
5.23036
5.10137
4.97235
4.84331
4.71426
4.58518
4.4561
4.327
4.19788
4.06876
3.93963
3.81049
3.68134
3.55219
3.42304
3.29388
3.16472
3.03556
2.90639
2.77722
2.64805
2.51888
2.38971
2.26054
2.13136
2.00219
1.87302
1.74384
1.61467
1.4855
1.35632
1.22715
1.09797
0.968801
0.839627
0.710452
0.581278
0.452103
0.322932
0.193738
0.0646287
15.5635
14.9873
14.4659
14.0115
13.6122
13.2619
12.9512
12.6728
12.4201
12.188
11.9726
11.7706
11.5798
11.3983
11.2246
11.0575
10.8962
10.7399
10.5878
10.4395
10.2944
10.1521
10.0124
9.87473
9.73893
9.60469
9.47178
9.34
9.20915
9.07908
8.94964
8.82071
8.69218
8.56395
8.43595
8.30812
8.18039
8.05271
7.92506
7.79741
7.66972
7.54198
7.41418
7.2863
7.15835
7.03031
6.90219
6.77398
6.6457
6.51733
6.38888
6.26037
6.13179
6.00314
5.87443
5.74568
5.61687
5.48802
5.35913
5.2302
5.10124
4.97225
4.84323
4.71419
4.58514
4.45606
4.32697
4.19787
4.06875
3.93963
3.81049
3.68135
3.5522
3.42305
3.29389
3.16473
3.03557
2.9064
2.77723
2.64806
2.51889
2.38972
2.26055
2.13138
2.0022
1.87303
1.74385
1.61468
1.4855
1.35633
1.22715
1.09798
0.968806
0.839631
0.710456
0.581281
0.452104
0.322933
0.193737
0.0646315
15.6633
15.1006
14.5872
14.132
13.7271
13.3677
13.0462
12.7564
12.4925
12.2498
12.0247
11.814
11.6155
11.4271
11.2475
11.0754
10.9098
10.7497
10.5946
10.4437
10.2965
10.1526
10.0115
9.87275
9.73613
9.60129
9.46796
9.3359
9.20491
9.07479
8.94538
8.81654
8.68815
8.5601
8.43231
8.30469
8.17719
8.04976
7.92234
7.79492
7.66745
7.53992
7.41232
7.28464
7.15686
7.02899
6.90102
6.77295
6.64479
6.51654
6.3882
6.25977
6.13127
6.0027
5.87406
5.74536
5.6166
5.4878
5.35894
5.23005
5.10111
4.97215
4.84316
4.71414
4.58509
4.45603
4.32695
4.19785
4.06874
3.93962
3.81049
3.68136
3.55221
3.42306
3.29391
3.16475
3.03558
2.90642
2.77725
2.64808
2.51891
2.38973
2.26056
2.13139
2.00221
1.87304
1.74386
1.61469
1.48551
1.35634
1.22716
1.09799
0.96881
0.839635
0.710459
0.581283
0.452106
0.322935
0.193736
0.0646339
15.7523
15.2014
14.6949
14.2396
13.8304
13.4634
13.1327
12.8329
12.559
12.3067
12.0727
11.854
11.6482
11.4535
11.2684
11.0915
10.9218
10.7583
10.6003
10.447
10.2979
10.1524
10.01
9.87032
9.73296
9.59759
9.4639
9.33162
9.20052
9.07039
8.94104
8.81232
8.68409
8.55624
8.42866
8.30128
8.17402
8.04682
7.91965
7.79245
7.66521
7.5379
7.4105
7.28301
7.15541
7.0277
6.89988
6.77195
6.64391
6.51577
6.38753
6.2592
6.13078
6.00228
5.8737
5.74506
5.61635
5.48758
5.35877
5.2299
5.101
4.97206
4.84308
4.71408
4.58505
4.456
4.32693
4.19784
4.06874
3.93963
3.8105
3.68136
3.55222
3.42307
3.29392
3.16476
3.0356
2.90643
2.77726
2.64809
2.51892
2.38975
2.26057
2.1314
2.00222
1.87305
1.74387
1.6147
1.48552
1.35634
1.22717
1.09799
0.968815
0.839639
0.710462
0.581286
0.452108
0.322936
0.193736
0.064636
15.8317
15.2909
14.7904
14.3355
13.9228
13.5495
13.2108
12.9023
12.6194
12.3586
12.1164
11.8903
11.6779
11.4773
11.2871
11.1058
10.9322
10.7656
10.6049
10.4494
10.2984
10.1515
10.008
9.8674
9.7294
9.59357
9.45958
9.32713
9.19597
9.06586
8.93661
8.80803
8.67999
8.55235
8.42501
8.29787
8.17085
8.04391
7.91697
7.79002
7.663
7.53591
7.40871
7.28141
7.15398
7.02644
6.89877
6.77097
6.64306
6.51503
6.38689
6.25864
6.1303
6.00187
5.87336
5.74477
5.61611
5.48738
5.3586
5.22977
5.10089
4.97197
4.84302
4.71403
4.58502
4.45598
4.32691
4.19783
4.06874
3.93963
3.81051
3.68137
3.55223
3.42309
3.29393
3.16477
3.03561
2.90645
2.77728
2.64811
2.51893
2.38976
2.26059
2.13141
2.00223
1.87306
1.74388
1.6147
1.48553
1.35635
1.22717
1.098
0.96882
0.839643
0.710466
0.581289
0.45211
0.322937
0.193736