/*--------------------------------*- C++ -*----------------------------------*\
  =========                 |
  \\      /  F ield         | OpenFOAM: The Open Source CFD Toolbox
   \\    /   O peration     | Website:  https://openfoam.org
    \\  /    A nd           | Version:  6
     \\/     M anipulation  |
\*---------------------------------------------------------------------------*/
FoamFile
{
    version     2.0;
    format      ascii;
    class       volScalarField;
    location    "0";
    object      p;
}
// * * * * * * * * * * * * * * * * * * * * * * * * * * * * * * * * * * * * * //

dimensions      [0 2 -2 0 0 0 0];

internalField   nonuniform List<scalar> 
13046
(
0.307636
0.279536
0.316615
0.3127
0.317085
0.283418
0.300103
0.285915
0.320452
0.186369
0.0330332
0.290595
0.305242
0.247261
0.312041
0.218277
0.289256
0.0624713
0.32477
0.30616
0.300144
0.213396
0.291674
0.058162
0.30926
0.299952
0.31134
0.296206
0.250196
0.312963
0.315772
0.261629
0.309774
0.31533
0.3173
0.296249
0.31263
0.31948
0.30336
0.312503
0.30249
0.26447
0.307668
0.322008
0.311834
0.310718
0.313535
0.309216
0.30053
0.276821
0.317564
0.271643
0.31139
0.240104
0.278235
0.232672
0.313761
0.149219
0.277721
0.291633
0.26962
0.224781
0.310729
0.296685
0.118778
0.235809
0.283694
0.157246
0.287404
0.290436
0.167201
0.28767
0.131479
0.271549
0.291557
0.324469
0.315569
0.290267
0.294863
0.256683
0.121801
0.306254
0.294544
0.311125
0.294171
0.100447
0.223287
0.217779
0.300013
0.135234
0.297735
0.188738
0.133741
0.276255
0.267201
0.196886
0.185858
0.303345
0.305546
0.301842
0.216036
0.146456
0.312198
0.317273
0.303587
0.319936
0.251347
0.282704
0.31127
0.293108
0.255073
0.135002
0.286699
-0.0402794
0.306988
0.260488
0.309353
0.270013
0.275921
0.169168
0.299727
0.189939
0.300361
0.176453
0.0134032
0.289417
0.294098
0.211306
0.311729
0.311187
0.30309
0.261217
0.298514
0.195464
0.154865
0.253447
0.16372
0.302724
0.312606
0.253426
0.307002
0.282732
0.276757
0.314139
0.308313
0.281848
0.258308
0.31872
0.263994
0.291413
0.269458
0.208177
0.309534
0.325668
0.279847
0.290116
0.252991
0.235926
0.24224
0.234968
0.311616
0.311438
0.28244
0.259328
0.31398
0.180202
0.291631
0.0385607
0.153612
0.287464
-0.0225388
0.250364
0.149866
0.30148
0.312549
0.229087
0.299747
0.283021
0.314463
0.267839
0.294863
0.0667609
0.184718
0.312303
0.242033
0.294378
0.324084
0.271219
0.284682
0.287904
0.278256
0.313545
0.23957
0.316829
0.295107
0.227237
0.308852
0.215956
0.296975
0.10956
0.301663
0.211395
0.159056
0.192792
0.12525
0.296944
0.264603
0.221129
0.305438
0.29508
0.259628
0.289873
0.122927
0.103874
0.191776
0.296739
0.307956
0.320094
0.302325
0.300129
0.256113
0.310379
0.302078
0.202787
0.164556
0.290544
0.247073
0.319184
0.289971
0.00336576
0.153072
0.305784
0.222229
0.257009
0.203642
0.142662
0.299762
0.25281
0.253034
0.31615
0.288959
0.217008
0.311752
0.195986
0.207725
0.300266
0.227093
0.230249
0.3068
0.28993
0.00223856
0.141552
0.316099
0.29735
0.242031
0.15203
0.284939
-0.068809
0.320142
0.305873
0.299767
0.263987
0.262021
0.247835
0.257488
0.317419
0.311076
0.28795
0.250203
0.103613
0.295719
0.226579
0.306042
0.22694
0.21072
0.307357
0.25891
0.166475
0.300897
0.311755
0.305499
0.321234
0.246788
0.240391
0.312389
0.298125
0.214115
0.305036
0.29247
0.292126
0.317797
0.290717
0.229726
0.246836
0.226982
0.310587
0.246823
0.299569
0.157382
0.321424
0.29243
0.253746
0.311809
0.225689
0.246033
0.2795
0.178767
0.296215
0.312621
0.275895
0.234471
0.270802
0.267963
0.167901
0.295523
0.161594
0.298663
0.294295
0.0773309
0.193842
0.279703
0.202238
0.302795
-0.0982681
0.285499
0.107734
0.297427
0.318175
0.284383
0.277515
0.235232
0.311145
0.299253
0.225558
0.128478
0.272359
0.223823
0.311795
0.181267
0.206998
0.300996
0.267884
0.314829
0.272196
0.227669
0.310336
0.259408
0.318204
0.231238
0.290391
0.0803456
0.271761
0.207658
0.307483
0.266265
0.217761
0.30666
0.276028
0.268494
0.317891
0.2533
0.27323
0.31575
0.309546
0.277021
0.316895
0.306988
0.229213
0.252402
0.205187
0.114304
0.297185
0.186209
0.206085
0.303138
0.291616
0.284753
0.190844
0.264299
0.269437
0.154116
0.13785
0.289523
0.29248
0.285445
-0.0853147
0.122013
0.161344
0.285454
-0.0569643
0.260792
0.239589
0.307852
0.295391
0.212801
0.0921217
0.285031
0.283962
0.186025
0.174489
0.29699
0.294291
0.292726
0.0787682
0.165461
0.143417
0.284138
-0.0860707
0.297048
0.321184
0.313337
0.136959
-0.0616584
0.286215
0.309347
0.226324
0.296303
0.187801
0.0760022
0.295404
-0.0814341
0.286991
0.0717833
0.314376
0.300639
0.273815
0.29897
0.306874
0.317762
0.180028
0.289726
0.00592094
0.293478
0.299229
0.317687
0.301552
0.320024
0.315646
0.30999
0.211232
0.258297
0.287451
0.311632
0.319746
0.299389
0.286047
0.317942
0.296113
0.19837
0.28325
0.291452
0.293528
0.057072
0.0548158
0.202862
0.199236
0.190679
0.104402
0.295823
0.290995
0.291248
0.173111
0.310605
0.291397
0.250379
0.22069
0.224805
0.302448
-0.0302163
0.287605
0.0922673
0.297342
0.186136
0.120258
0.159813
0.288764
-0.00369731
0.287172
-0.0976546
0.0703702
-0.126973
0.285934
0.0941893
0.210585
0.247287
0.305591
0.0364349
0.290246
0.133952
0.242276
0.16146
0.302957
0.20782
0.28457
0.0197277
0.300607
0.312968
0.278331
0.0939008
0.294581
0.174665
0.222375
0.30347
0.232093
0.204704
0.227834
0.308309
0.287656
-0.174207
0.0360676
-0.0746754
0.286178
0.093163
0.305593
0.317665
0.278817
0.0706921
0.163361
0.293139
0.292653
0.149558
0.0676151
0.211356
0.294251
0.0917011
0.290574
0.10828
0.242365
0.302227
0.193442
0.285065
0.15809
0.277301
0.297056
0.289098
0.23672
0.0704197
0.303782
0.300905
0.233239
0.221098
0.303305
0.306081
0.306654
0.23755
0.301708
0.291664
0.17926
0.298172
0.194779
0.216559
0.304278
0.0971708
0.190707
0.297375
0.302443
0.221546
0.176103
-0.126405
0.285578
0.107733
0.318449
0.31521
0.310264
0.267369
0.314168
0.27294
0.302401
0.296403
0.294749
0.196273
0.29586
0.218466
-0.0744588
0.286763
0.0728761
0.077977
0.171911
0.294379
0.307437
0.280766
0.231055
0.208747
0.212569
0.303042
0.290778
0.116707
0.249173
-0.0360742
0.123216
0.288047
-0.0159169
0.128204
0.288647
0.285064
0.1835
0.300853
0.322578
0.287336
0.26272
0.206122
0.292806
0.0712194
0.202985
0.236169
0.307744
0.299796
0.132876
0.244416
0.299107
0.296139
0.22173
0.256937
0.25957
0.313989
0.31452
0.29825
0.257227
0.292761
0.063501
0.194679
0.260451
0.159283
0.299071
0.318013
0.305319
0.274693
0.225802
0.28629
0.0512293
0.304285
0.257637
0.30979
0.290338
0.277188
0.320718
0.214981
0.236933
0.307405
0.179271
0.285142
-0.0260972
0.188302
0.284789
-0.0178031
0.29806
0.125952
0.24528
0.246092
0.264782
0.310486
0.283273
-0.0504393
0.164127
0.30063
0.143225
0.234703
0.28677
-0.114458
0.0553023
0.0816934
-0.140735
0.284957
0.291535
0.0814573
0.238029
0.291632
0.030067
0.16846
0.219493
0.225964
0.290575
0.071285
0.293052
0.0921229
0.226291
0.151108
0.301382
0.307505
0.21959
0.205917
0.319557
0.312098
0.277078
0.230695
0.168452
0.304344
0.30504
0.233677
0.178225
0.244838
0.288749
0.07997
0.29974
0.185375
0.29487
0.304009
0.217832
0.292626
0.250874
0.204851
0.308437
0.246313
0.199047
0.308105
0.319605
0.299459
0.283729
0.300631
0.212009
0.308454
0.295296
0.100472
0.168237
0.118578
0.289001
-0.0118871
0.106165
0.288952
-0.0102857
0.31091
0.303068
0.250451
-0.0509973
0.287456
0.105166
0.254606
0.298082
0.137759
0.287218
-0.0452972
0.0886626
0.311747
0.318665
0.290515
0.2893
0.236903
0.311121
0.267243
0.245725
0.312468
0.291576
0.0469417
0.146469
0.200227
0.23771
0.307492
0.286281
0.218179
0.0424938
0.279017
0.228038
0.311861
0.320572
0.315331
0.281683
0.0477011
0.15651
0.292289
0.299652
0.130634
0.234974
0.17449
0.163621
0.286608
0.286334
-0.0153189
-0.0315837
0.272346
0.254899
0.316472
0.220116
0.253246
0.306267
0.292917
0.283462
0.321807
0.0121211
0.13064
0.0175779
0.290008
0.12932
0.289837
0.266848
0.1932
0.308803
0.156889
0.144674
0.0365108
0.0200228
0.292036
0.290646
0.2492
0.233231
0.314241
0.284044
0.250721
0.313022
0.198699
0.286536
0.00952549
0.283167
0.242188
0.314781
0.294642
0.267664
0.317036
0.178882
0.285085
-0.00985878
0.284845
0.206458
0.305147
0.243815
0.209652
0.304992
0.302852
0.207643
0.291956
0.167016
0.298427
0.193011
0.286795
-0.154385
0.050867
0.276603
0.237158
0.311491
0.206168
0.288189
0.0369207
0.27899
0.199494
0.304465
0.109098
0.283478
-0.107174
0.320218
0.316109
0.286676
0.274475
0.287539
0.270434
0.296399
0.283405
0.320663
0.315084
0.319768
0.295415
0.277002
0.305056
0.273209
0.281714
0.257528
0.319134
0.285613
0.260074
0.318855
0.28899
0.000650059
0.110419
0.309303
0.247598
0.299558
0.169264
0.0446498
0.292458
0.251066
0.245139
0.190937
0.174119
0.305062
0.302663
0.305196
0.263486
0.30482
0.290792
0.197052
0.295731
0.264359
0.211041
0.310846
0.317678
0.297371
0.310165
0.239836
0.177977
0.305186
0.31649
0.305296
0.282568
0.259746
0.228885
0.313369
0.289079
0.208533
0.296397
0.316586
0.317703
0.290989
0.315641
0.292229
0.311227
0.318664
0.294536
0.321968
0.287807
0.311852
0.278265
0.304351
0.302364
0.241647
0.237911
0.307718
0.304217
0.292157
0.113619
0.247095
0.305161
0.218493
0.251144
0.294268
0.295097
0.0988213
0.105614
0.237254
0.23469
0.309662
0.28077
0.22531
0.316034
0.314918
0.304787
0.239872
0.165873
0.303822
0.316601
0.305993
0.258435
0.286526
0.202311
0.297591
0.261869
0.262646
0.13221
0.295829
0.141046
0.296533
0.258261
0.184173
0.304457
0.121478
-0.0901465
0.284146
0.274447
0.210493
0.304531
0.301425
0.303592
0.281653
0.203347
0.290224
0.212189
0.226357
0.187802
0.30486
0.292378
0.207547
0.298044
0.310861
0.279112
0.219525
0.301542
0.307638
0.28644
0.300164
0.232111
0.225804
0.301283
0.292726
0.217578
0.258307
0.193621
0.307226
0.317838
0.305685
0.286886
0.189965
0.288269
0.0177109
0.309627
0.282031
0.210673
0.290942
0.284144
0.202498
0.193798
0.297696
0.303011
0.288647
0.0365254
0.200866
0.199803
0.287728
0.0182217
0.189853
0.286781
0.00712423
0.255207
0.295974
0.13146
0.295562
0.219323
0.300315
0.0793553
0.12103
0.241839
0.0834131
0.200994
-0.0128281
0.159966
0.110682
0.042311
0.190983
0.188044
0.0236856
0.0755246
0.191222
0.0987426
0.0750152
0.0884185
0.0980202
0.115955
0.162349
0.118366
0.0935644
0.20064
0.283498
0.251107
0.126511
0.211811
0.0264103
0.135402
0.0681143
0.0348923
0.154388
0.120344
0.106515
0.0488024
0.130521
0.235753
0.198765
0.0947547
0.150866
0.0847418
0.283849
0.0618684
0.189291
0.220716
0.0830119
0.089304
0.0724806
0.026637
0.0621969
0.25338
0.117035
0.0775724
0.0881125
0.0350209
0.248092
0.165359
0.123722
0.0739843
0.18393
0.0599567
0.0660022
0.251752
0.120446
0.123253
0.16724
0.130306
0.276353
0.199879
0.199845
0.0126603
0.0364951
0.0916336
0.174899
0.0274859
0.104047
0.126761
0.0435681
0.17777
0.219233
0.0984828
0.114175
0.0300689
0.0660932
0.076296
0.18495
0.0764508
0.0822386
0.0972244
0.255784
0.0738332
0.182928
0.250337
0.107691
0.0750671
-0.0590262
0.0554702
0.0753982
0.0747903
0.00871466
0.154423
0.204308
0.228882
0.278629
0.0687232
0.0759353
0.0250244
0.0837645
0.0574904
0.234042
0.208565
0.159298
0.0507007
0.0351572
0.156041
0.209329
0.0926528
0.0823939
0.00637574
0.0930913
0.105246
0.262484
0.270979
0.177813
0.129693
0.0976451
0.0273804
0.267366
0.0560552
0.172163
0.00824773
0.250828
0.0326115
0.0387437
0.0688338
0.218081
0.0968101
-0.0190879
0.0619322
0.159345
0.0701575
0.186538
0.159992
0.0770288
0.219793
0.0894729
0.0590271
0.226862
0.0617299
0.0986839
0.0244142
0.138048
0.0927747
0.223984
0.181955
0.0866541
0.175795
0.18775
0.239522
0.127977
0.0899463
0.0751286
0.193433
0.0570431
0.148199
0.0293939
0.279532
0.0951381
0.226641
0.265699
0.124221
0.271124
0.227972
0.237618
0.0478386
0.00302169
0.0256115
0.242114
0.0468847
0.0362444
0.0531583
0.0383054
0.0969605
0.0875817
0.129416
0.266241
0.17979
0.08289
0.184384
0.0810599
0.281391
0.0230664
0.214646
0.0785647
-0.000427776
0.254139
0.268133
0.0740345
0.0752097
0.27867
0.137056
0.0922155
0.0561192
0.175669
0.232495
0.180488
0.0634804
0.0744228
0.201099
0.131871
0.0585767
0.153036
0.0483086
0.0409154
0.0974541
0.208548
0.00991122
0.10369
0.205071
0.0742909
0.00593516
0.0913896
0.0800951
0.0944864
0.148355
0.154516
0.0651766
0.033164
0.062284
0.164599
0.175431
0.0753004
0.153962
0.0908051
0.0487337
0.137717
0.0847268
-0.00857394
0.179456
0.225521
0.125967
0.25534
0.234832
0.28333
0.0754297
-0.0206288
0.0998254
0.0876742
0.0942307
0.0164643
0.143228
0.249823
0.176075
0.134093
0.058466
0.0834863
0.189936
0.1181
0.169707
0.0628619
0.10584
0.0814422
0.0406056
0.0642542
0.0771864
0.0731719
0.0508691
0.156425
0.129723
0.0869338
0.162354
0.0853071
0.0946767
0.063455
0.0903724
0.0643937
0.0801688
0.132959
0.0122214
-0.0316188
0.110118
0.019785
-1.1078e-05
0.132338
0.0265423
0.00349966
0.223624
0.157325
0.063121
0.184483
0.0395237
0.152916
0.153363
0.0497826
0.0796793
0.208379
0.0996397
0.189722
-0.0194622
0.0563713
0.22657
0.0788867
0.0675658
-0.0437061
0.0103066
-0.00293334
0.0146889
0.0851184
0.163211
0.0460439
-0.00102338
0.0538721
0.077604
0.281966
0.0718741
0.175482
0.147995
0.0359623
0.107271
0.0618007
0.0304722
0.149362
0.0922807
0.250242
0.174268
0.0623539
0.0857284
0.119173
0.28409
0.187466
0.236411
0.181343
0.0872705
0.127755
0.0946567
0.0492478
0.0149282
0.0743969
0.0954295
0.170531
0.0692651
0.0207103
0.0788186
0.100589
0.0749974
0.0903994
0.212689
0.0910817
0.0814861
0.244719
0.219731
0.064623
0.137248
0.234207
0.0351642
0.0222951
0.0885218
0.0464802
0.031818
0.23056
0.0592246
0.103644
0.239101
0.00416996
0.132257
0.07227
0.126073
0.0892875
0.0703645
-0.0568791
0.105817
0.0239315
0.0486643
0.084895
0.08147
0.185353
0.250691
0.073637
0.134701
0.105211
0.0668141
-0.0118786
0.207783
0.15843
0.0524306
0.0226283
0.143824
0.0218848
0.0832144
0.0665854
0.0573497
0.199477
0.248956
0.0837759
0.182731
0.27951
0.21158
0.214931
0.240677
0.0913422
0.0799196
0.0338631
0.28078
0.208223
0.226369
0.0693327
0.0752038
0.00453428
0.189815
0.0966475
0.0680131
0.227368
0.1664
0.0611095
0.103964
0.0695098
0.077621
0.0693518
0.0849424
0.0887851
0.0447774
0.0869145
0.0141792
0.106607
0.0447927
0.166737
0.122012
0.0104626
0.234143
0.244765
0.179888
0.0842791
0.135609
0.0250672
0.187692
0.116832
0.0173717
0.231768
0.00186951
0.251953
0.0243226
0.0974673
0.113616
0.176953
0.199267
0.0754823
0.264323
0.0770693
0.214931
0.0990104
0.165886
0.0815602
0.0717066
0.0726959
0.219884
0.11223
0.279155
0.166116
0.0126458
0.0739516
0.155513
0.0135574
0.0850564
0.100131
0.0468973
0.256271
0.0579857
0.0472368
0.196934
0.0739339
0.250181
0.273685
0.0762973
0.279855
0.260973
0.214857
0.22897
0.140501
0.0253704
0.0596411
0.091446
0.206257
0.094749
0.003597
0.263202
0.0452794
0.08433
0.0553614
0.238729
0.280735
0.0568664
0.211697
0.14989
0.250743
0.107467
0.18583
0.0729314
0.265673
0.276604
0.171442
0.060075
0.202175
0.0924458
0.134367
0.119612
0.1071
0.149339
0.0851792
0.0056814
0.0341878
0.112305
0.159186
0.13553
0.228153
0.0526554
0.0924371
0.164304
0.0379812
0.243184
0.0690719
0.0723695
0.240001
0.220252
0.141656
0.268606
0.0658864
0.0766205
0.18944
0.126142
0.120866
0.0949208
0.0735468
0.154748
0.172416
0.0736427
0.0695513
0.138052
0.0120186
0.0431187
0.251072
0.277195
0.278052
0.108777
0.284066
0.2797
0.259327
-0.0106466
0.14965
0.147061
0.267647
0.0874141
0.0747682
0.0281513
0.0589277
-0.00874638
0.263012
0.0964727
0.102268
0.188419
0.170493
0.0819956
0.0736959
0.279283
0.264826
0.234222
0.174413
0.0600138
0.182517
0.160719
0.0842061
0.112836
0.0364069
0.0580797
0.130764
0.108914
0.0825303
0.250909
0.250609
-0.00989056
0.217449
0.075205
0.0653597
0.0977123
0.247794
0.0965741
0.173888
0.0972218
0.235642
0.0851125
0.100466
0.276627
0.00847471
0.00880147
0.0670294
0.0498308
-0.0267498
-0.0688177
0.0574559
-0.01774
0.11402
-0.00880689
0.0442635
0.10823
0.0471291
0.057527
0.0870208
0.0333359
-0.0585305
0.261463
0.217392
0.0846967
0.0226559
0.221277
0.0639907
0.0747811
0.274639
0.0640221
0.274564
0.10102
0.223579
0.109446
0.0344616
0.0387797
0.134647
0.134629
0.114528
0.0338538
0.0892524
0.0481375
0.0517459
0.082144
0.0117543
0.0342322
0.260607
0.0656024
0.17056
0.194105
0.0889414
0.200095
0.195985
0.0272637
-0.0639392
0.0993475
0.0165585
-0.0231472
0.177397
0.180338
0.084219
0.157192
0.0820087
0.277273
0.258968
0.0910159
0.0772092
0.26669
0.22942
0.150763
0.152433
0.0823116
0.279762
0.132619
-0.0103313
0.239338
0.211769
0.252004
0.133537
0.0619573
0.0943728
0.181812
0.151307
-0.0970927
0.284786
0.0986313
0.063648
0.116071
0.228577
0.275389
0.275217
0.157528
0.120286
0.20022
0.230507
0.241575
0.174635
0.208402
0.0458127
0.0718971
0.145834
0.0341285
0.0455923
0.00853804
0.0973755
0.19562
0.0164814
0.126098
0.0773577
0.209257
0.27542
0.0936899
0.0241919
-6.42231e-05
0.186511
0.0754933
0.0565843
0.0105249
0.245311
0.135827
0.140308
0.01573
0.145292
0.0601154
0.0699218
0.186283
0.19244
0.248333
0.280031
0.058357
0.233476
-0.00715975
0.24152
0.24815
0.251226
0.20157
0.0462542
0.0462054
0.0835833
-0.0133324
0.129727
0.00822338
0.152655
0.0202648
0.225374
0.0872317
-0.00409778
0.220311
0.194003
0.104735
0.109163
0.168832
0.246698
0.13657
0.117764
-0.00487328
0.211581
0.132009
0.263057
-0.021663
0.108857
0.240168
0.181611
0.269535
0.187349
0.0900714
-0.0395297
-0.00462712
0.106894
0.0203293
0.262147
-0.014371
0.0887972
0.105498
0.0624133
0.205024
-0.0172431
0.240688
0.181299
0.143283
0.00982035
0.167611
0.0703112
0.10005
0.100158
0.106666
0.0731742
0.0586366
0.1984
0.046253
0.282706
0.0744688
0.11581
0.164578
0.188497
0.261037
0.0723948
0.076509
0.0571593
0.118929
0.0658736
0.25611
0.0566194
0.122641
0.0823244
0.213931
0.044586
0.131682
0.0321216
0.276241
-0.0138646
0.0444802
0.0838837
0.219411
-0.000946746
0.0160601
0.0422058
0.0234238
0.249449
0.119208
0.177314
0.223798
0.167905
0.126063
0.276216
0.126591
0.192965
0.161394
0.134777
0.00797369
0.14088
0.0938357
0.0847974
0.143769
0.0547314
0.0124935
0.119083
0.0929377
0.0485269
0.209348
0.121558
0.174287
0.0938828
0.258361
0.106089
0.107654
0.163052
0.018239
0.0524282
0.0815255
0.134229
0.139397
0.150073
0.246437
0.18675
0.203336
0.12721
0.233826
0.263777
0.260213
0.135352
0.128146
0.149091
0.0268636
0.271743
0.227779
0.214489
0.107839
0.042495
0.00679425
0.148611
0.182187
0.0645662
0.214151
0.22784
0.152505
0.0755563
0.136598
0.0852449
0.0688739
0.107527
0.0775213
0.139572
0.00958383
0.143888
0.11738
0.0918433
-0.0164037
0.140303
0.123271
0.171614
0.0838392
0.13507
0.245258
0.255445
0.137229
0.102274
0.203889
0.122119
0.0538414
0.056666
0.0963019
0.0204003
0.245416
0.115635
0.128315
0.182428
0.17599
0.165211
0.052123
0.28145
0.167762
0.06335
0.116047
0.114493
0.203685
0.24181
0.169711
0.14858
-0.00239698
0.0471788
0.0892484
0.149796
0.122962
0.136013
0.0717254
0.252981
0.156356
0.202073
0.231335
0.133455
0.0681211
0.134674
0.271549
0.0473859
-0.00577509
0.134596
0.277426
0.0766364
0.0941094
0.198561
0.182989
0.217549
0.108964
0.000666759
0.14744
0.0282008
0.0799908
0.216825
0.0992512
0.0310418
0.0615275
0.0760853
0.155571
0.0887765
0.0816763
0.236542
0.0660313
0.276795
0.214979
0.0221536
-0.0279985
0.119882
0.190791
0.229641
0.103818
0.0891732
0.0691511
0.0847899
0.109963
0.279868
0.24023
0.187817
0.0947071
0.00477001
0.246144
0.282062
0.25161
0.20494
0.238479
0.131809
0.0369006
-0.0169265
-0.00570405
0.260386
0.119534
0.0562942
0.0975191
0.280542
0.0820855
0.0747749
0.0172359
0.106015
0.0548928
0.277116
0.146345
0.188618
0.237587
0.227558
0.0798259
0.15828
0.127593
0.182271
0.039582
0.15527
0.0709175
0.255795
0.0389983
0.0805911
0.0527023
0.0919526
0.244081
0.0905179
0.214737
0.232919
0.239393
0.0350639
0.124626
0.0899328
0.0738685
0.251243
0.133841
0.138729
0.143693
-0.00790678
0.0987388
0.25135
0.162082
0.254217
-0.0114967
0.0464302
0.0806099
0.259691
0.0672096
0.113182
0.0491083
0.0537006
0.0973159
0.256879
0.106869
0.0918656
0.0170228
0.275168
0.271933
-0.00871403
0.248645
0.0869471
0.0364045
0.0471783
0.11703
0.0249654
0.163091
0.0951455
0.0800159
0.0946622
0.233037
0.107489
0.214634
0.102576
0.0375902
0.0959908
-0.0122015
0.00664872
0.0993464
0.0934429
0.145582
0.0469558
0.106913
0.231056
0.156339
0.0806512
0.0306049
0.238465
0.101285
0.112261
0.287402
0.141712
0.0784762
0.0813542
0.0546812
0.264358
0.0872667
0.10798
0.1542
0.0237834
0.242022
0.0424965
0.234057
0.123443
0.194132
0.0516607
0.207635
0.101162
0.0259052
0.0524888
0.124218
0.24391
-0.0313146
0.0714876
0.0608781
0.263259
0.280106
0.0646231
0.0732154
0.160698
0.2625
0.106969
0.248536
0.22701
0.212973
0.196558
0.133486
0.175334
0.167488
0.252757
0.114219
0.132385
0.0659533
0.0789016
0.116622
0.0505806
0.265253
0.0521429
0.246349
0.112704
0.259869
0.0757562
0.269426
0.191435
0.230239
0.261212
0.245549
0.286209
0.0877062
0.233434
0.12277
0.0828223
0.0741977
0.0459559
0.254031
0.0529392
0.141818
0.155048
0.0964632
0.158055
0.0687183
0.251788
0.115295
0.203641
-0.0147391
0.0618353
0.08829
0.277655
0.0694837
0.166585
0.083011
0.0893804
0.0308945
0.0985096
0.087755
0.207847
0.25712
0.015319
0.137219
0.0831272
0.0792185
0.219512
0.0667154
0.0770008
0.267165
-0.00575096
0.139245
0.182726
0.243552
0.274666
0.0804589
0.0680673
0.0262762
0.0889781
0.0729121
0.0825003
0.199355
0.0816866
0.0343322
0.0925572
0.12558
0.0853021
0.0790351
0.060997
0.122942
0.0228814
0.201424
0.192866
0.0863226
0.203094
0.0397578
0.0181932
0.0646287
0.00598934
0.26806
0.0889121
0.0829306
0.0713012
0.227794
0.251556
0.129001
0.200586
0.0775076
0.0639011
0.129584
0.0851523
0.0698447
0.252958
0.147828
0.174557
0.270891
0.207979
0.120729
0.261521
0.0104839
0.13164
0.127535
0.151706
0.0984882
0.257642
0.0786025
0.145765
0.113844
0.0855161
0.0524059
0.0715787
0.191281
0.221206
0.235767
0.131228
0.139523
0.260444
0.210882
0.0986626
0.144994
0.0353636
0.0827445
0.212979
0.0159611
0.23112
0.0779167
0.239282
0.282459
0.255319
0.0692232
0.230904
0.228504
0.027482
0.259496
0.0753728
0.258672
0.209341
0.0806533
0.0502814
0.150822
0.0873314
0.0932087
0.0735474
0.212196
0.0872205
0.264054
0.0420467
0.081002
0.0722389
0.0412091
0.082863
0.221743
0.276928
0.0387563
0.202384
0.121871
0.146003
0.106009
0.159518
0.247556
0.212015
0.0773409
0.241693
0.218118
0.274704
0.0424897
0.0491494
0.0758019
0.199478
0.268165
0.223582
0.108433
0.269953
0.120203
0.0130785
0.0482944
-0.0311054
0.119839
0.0277563
0.27489
0.277477
0.137842
0.287231
0.21374
0.122616
0.266979
0.0307794
0.256208
0.0805175
0.25202
0.0920307
0.0467654
0.196503
0.137218
0.259056
0.247445
0.250916
0.0565832
0.0543708
-0.00078382
0.232814
0.211243
0.0663691
0.131629
0.212918
-0.0059348
0.0719273
0.0557378
0.0706056
0.148174
0.0694731
0.127511
0.193051
0.125472
0.136525
0.193151
0.0862253
0.097781
0.146062
0.127166
0.0880839
0.234861
0.259912
0.0656563
0.20861
-0.00941373
0.0686556
0.240534
0.203938
0.0648788
0.254754
0.0325031
0.192541
0.105891
0.109655
0.239233
0.0937351
0.20103
0.199578
0.176506
0.281981
0.179351
0.0254156
0.160725
0.114871
0.201048
0.278583
0.175375
0.121464
0.0694803
0.110945
0.240546
0.0432356
0.225085
0.0615356
0.153188
0.208586
0.194352
0.114465
0.237361
0.269899
0.0957732
0.0871328
0.134152
0.055088
0.0309516
0.129405
0.199063
0.0600807
0.0217266
0.0685685
0.0175896
0.18878
0.118803
0.203335
0.0790184
0.251852
0.127588
0.228861
0.274386
0.063147
0.246098
0.0988289
0.134128
0.131935
0.234846
0.0747239
0.102377
0.135296
0.0478077
0.0888106
0.0481248
0.0280508
-0.00966653
0.270791
0.280709
0.0609099
0.0771598
0.197869
0.00837416
0.0650998
0.0829882
0.18204
0.191888
0.00518171
-0.0101054
0.247653
0.0797431
0.153266
0.0776398
0.0206485
0.0476104
0.145161
0.22868
0.154666
0.015932
0.253341
0.22766
0.0587215
0.148991
0.0797302
0.274206
0.0887963
0.109242
0.0311154
0.168688
0.259326
0.154531
0.142476
0.0679827
0.119306
0.158469
0.267787
0.286141
0.0744161
0.271484
0.0732631
0.135819
0.139175
0.0988399
0.0815618
0.234592
0.0965438
0.142895
0.0575919
0.0379998
0.106124
0.0496623
0.179808
0.252629
0.0554904
0.0718824
0.1348
0.0826962
0.075095
-0.0179675
0.0893619
0.234501
0.0175986
0.0561472
0.194929
0.132218
0.111074
0.16645
0.222886
0.0533879
0.0608846
0.223018
0.103575
0.060324
0.124819
0.233501
0.168974
0.135232
0.0762509
0.0724697
0.0702647
0.26858
0.223253
0.278221
0.10781
0.178301
0.039594
0.122528
0.2302
0.0130259
0.0211695
0.192731
0.225462
0.0132422
0.0817704
0.0762544
0.0537438
0.0751623
0.285229
0.11269
0.0796329
0.14179
0.0696595
0.196782
0.149491
0.0366989
0.085539
0.209759
0.118385
0.270434
0.0264772
0.0732628
0.171831
0.15799
0.0960443
0.152654
0.0489993
0.273877
0.250896
0.173535
0.237694
0.057544
0.234314
0.162417
0.170042
0.261667
0.00838477
0.0836436
0.276461
0.164359
0.00429517
0.0536504
0.221971
0.274552
0.11902
0.198975
0.074517
0.0272839
0.0586104
-0.00472179
0.229305
0.0683908
0.119271
0.263905
0.0640329
0.0568674
0.0688212
0.137879
0.0810056
0.0673147
0.0715198
0.0391355
0.117914
0.210088
0.260655
0.190205
0.0918339
0.0827773
-0.00183165
0.0760071
0.161771
0.141134
0.181295
0.196389
0.0828904
0.105919
0.220358
0.227768
0.276264
0.240522
0.264053
0.118752
0.030238
0.0574539
0.0404288
0.268302
0.135081
0.0720312
0.260461
0.03647
0.214867
0.193181
0.0853118
0.0794723
0.0849578
0.0717023
0.226121
0.0846661
0.182147
0.117098
0.259018
0.146217
0.281489
0.0557257
0.116232
0.0537521
-0.0147542
0.0882188
0.206881
0.0546347
-0.0184865
0.133562
0.253186
0.202078
0.0681764
0.0282327
0.061906
0.0378615
0.0811142
0.0438969
0.097715
0.0435
0.193981
0.0605687
0.0801637
0.242786
0.123781
0.170355
0.219201
0.0854008
0.116934
0.0529794
0.208902
0.0739631
0.091267
0.112904
0.0498859
0.0245347
0.0766584
0.0704269
0.201988
0.277706
0.233344
0.140291
0.187349
0.0170919
0.271123
0.152607
0.199462
0.0791533
0.191357
0.0582772
0.0896993
0.213502
0.258159
0.205127
0.139375
0.0909761
0.280814
0.0999797
0.217951
0.266616
0.175383
0.101108
0.0132199
0.217404
0.1498
0.0432641
0.166313
0.144712
0.256582
0.0656629
0.264448
0.277122
0.0976435
0.0575643
0.265797
0.0310671
0.0454379
0.0905219
0.0427514
0.0909272
0.0517214
0.028591
0.115304
0.0817402
0.0595462
0.078459
0.140791
0.0484897
0.0617685
0.160765
0.120145
0.0299023
0.252305
0.277759
0.268311
0.0771006
0.0210242
0.282814
0.0241254
0.113244
0.0699009
0.0792529
0.077941
0.192515
0.0839465
0.0767817
0.0186608
0.0117851
0.0441772
0.0876132
0.0156011
0.112062
0.133026
0.102805
0.258954
0.139126
0.177738
0.104766
0.224264
0.0638073
0.085533
0.287966
0.0930874
0.143904
0.0284584
0.176843
0.278844
0.0745532
0.162628
0.148151
0.0459977
0.072874
0.0617256
0.0447266
0.195605
0.0472562
0.105576
0.0769799
0.0978487
0.0637449
0.0628029
0.112874
0.0781595
0.0800276
0.275433
0.111804
0.103944
0.133723
0.256285
0.08859
0.013596
0.212523
0.0313066
0.095813
0.077199
0.123543
0.0626574
0.0979054
0.124067
0.275173
0.230634
0.0159129
0.0783072
0.014005
0.0724762
0.00141272
0.0483617
0.0946539
0.0553458
0.0943709
0.162827
0.286567
0.0851236
0.190044
0.130005
0.268232
0.0825217
0.28
0.1544
0.0389851
0.163047
0.197232
0.0753046
0.229401
0.077636
0.236738
0.0702056
-0.0180028
0.108348
0.284741
0.27608
0.194088
0.1686
0.187576
0.0225627
0.0594695
0.188657
0.280887
-0.00359823
0.122761
0.0785931
0.064678
0.103797
0.0616391
0.0366838
0.06887
0.0476439
0.0806916
0.0748853
0.106889
0.281273
0.22619
0.00287434
0.210714
0.0560753
0.0620034
0.215725
0.0727823
0.0946581
0.180047
0.00999544
0.0579867
0.1183
0.232318
0.0407454
0.0641777
0.0926721
0.159157
0.039493
0.257747
0.0154285
0.0848017
0.091103
0.0663351
0.170652
0.161996
0.258165
0.0736341
0.204605
0.130533
0.156752
0.0734453
0.170947
0.0523031
0.0315069
-0.00674773
0.152712
0.102574
0.0911608
0.243341
0.12043
0.144683
0.170203
0.0624385
0.0478086
0.0860407
0.154094
0.0805504
0.28554
0.0306326
0.0150707
0.088337
0.0773714
0.0796032
0.0752867
0.192616
0.0879987
0.109509
0.0428077
0.0801674
0.103447
0.0447366
0.280973
0.267546
0.0464172
0.0622894
0.229154
0.135865
0.0682851
0.0271348
0.0661103
0.0449302
0.130413
0.249631
0.0692346
0.0236998
0.161745
0.114305
0.0160492
0.0426089
0.114857
0.184775
0.284585
0.0364825
0.00923518
0.14221
0.229048
0.0844597
0.141716
0.0874959
0.0770441
0.0869591
0.157837
0.0979989
0.0769351
0.208504
0.0901681
-0.009646
0.128284
0.078685
0.214555
0.281271
0.083448
0.0825067
0.0800024
0.0839134
0.0374703
0.0859902
0.0468581
0.261435
0.218981
0.182436
0.0938239
0.0242711
0.205353
0.271691
0.0617335
0.125108
0.0682883
-0.00866245
0.113623
0.0783041
-0.0133885
0.072241
0.168796
0.0397122
0.0166109
0.0435367
0.21663
0.0333658
0.212468
0.117373
0.069231
0.073067
0.0589328
0.214188
-0.000352548
0.088997
0.0945791
0.0315034
0.14147
0.189042
0.142178
0.103918
0.198008
0.0418188
0.045088
0.247604
0.0736514
0.243699
0.144382
0.0802037
0.149219
0.233551
0.114268
0.0124749
0.25766
0.0694267
0.0892555
0.234363
0.063209
0.265581
0.0683366
0.0920429
0.0206202
0.0963077
0.0461563
0.118433
0.0435783
-0.00683948
0.0408479
0.0390755
-0.00455073
0.250153
0.0395942
0.0911129
0.14498
0.11872
0.27298
0.27544
0.0630869
0.122859
0.218286
0.0538009
0.250343
0.00424552
0.0775127
0.132923
0.062965
0.220601
0.0721165
0.0789138
0.0864767
0.06878
0.0754359
-0.00820966
0.236323
-0.0564941
0.261154
0.186269
0.0433416
0.0157703
0.0480416
0.285762
0.192102
0.16542
0.110714
0.143895
0.0935768
0.234739
0.206318
0.0605347
0.160002
0.264833
0.0964894
0.122452
0.168933
0.00964671
0.043657
0.216568
0.0883156
0.109557
0.26619
0.0360631
0.00616479
0.0731621
0.108309
0.0926452
0.274511
0.065091
0.0256372
0.0604347
0.107317
0.066352
0.242649
0.120662
0.0536122
0.0637661
0.0617656
0.0636389
0.0883661
0.158545
0.131994
0.0554948
0.241343
0.0774702
0.220852
0.0560617
0.0367377
0.0972527
0.237697
0.270944
0.213473
0.105655
0.097693
0.213171
0.270507
0.0332119
0.251728
0.0437003
0.175137
0.15491
0.241052
0.107117
0.231852
0.254549
0.0815766
0.0833081
0.0920557
0.126388
0.0479104
0.0536794
0.0530295
0.190534
0.221001
0.0306723
0.257009
0.111379
0.19988
0.106785
0.0477292
0.218748
0.206516
0.0749382
0.0877378
0.0456403
0.276335
0.191648
0.282098
0.0277432
0.0467923
0.09672
0.22515
0.164098
0.241629
0.140584
0.271977
0.0681285
0.101917
0.122058
0.0743403
0.142756
0.0348424
0.212959
0.113643
0.131341
0.252535
0.0220151
0.032587
0.00529673
0.1566
0.23796
0.0856614
0.171357
0.0405005
0.0235019
0.111142
0.0769767
0.0697572
0.238306
0.132025
0.0593105
0.0981678
0.153541
0.260187
0.158422
0.0841517
0.236199
0.129619
0.265137
0.112906
0.179823
0.0819442
0.0278236
0.282938