/*--------------------------------*- C++ -*----------------------------------*\
  =========                 |
  \\      /  F ield         | OpenFOAM: The Open Source CFD Toolbox
   \\    /   O peration     | Website:  https://openfoam.org
    \\  /    A nd           | Version:  6
     \\/     M anipulation  |
\*---------------------------------------------------------------------------*/
FoamFile
{
    version     2.0;
    format      ascii;
    class       volScalarField;
    location    "0";
    object      P_rec;
}
// * * * * * * * * * * * * * * * * * * * * * * * * * * * * * * * * * * * * * //

dimensions      [0 2 -2 0 0 0 0];

internalField   nonuniform List<scalar> 
918
(
1.33012
0.180442
0.0789426
1.31004
-0.00786823
0.1851
-0.353003
0.929576
1.31572
0.138482
0.157214
1.07287
0.329484
0.227652
-0.844933
0.0687069
1.09829
-0.555907
1.12157
0.0818711
0.636388
1.36178
1.28239
1.14517
1.07694
0.209032
0.315105
0.0194375
-0.0184608
-0.0177947
-0.0176437
0.0142284
-0.00208148
0.47437
0.198845
0.132243
1.11828
0.607971
-0.172069
-0.212274
-0.234383
-0.510385
0.960791
0.983267
0.262089
0.888746
0.848006
1.13788
1.29993
1.31351
1.28765
1.32249
1.33963
0.516423
0.110593
0.0657504
0.152995
0.151512
0.246067
0.157252
0.146801
0.179899
0.132836
1.02349
1.07045
1.06947
1.07987
1.06639
0.17611
0.0181031
0.0143109
0.365974
0.336323
0.215354
0.332721
0.183358
0.236296
0.141107
0.125002
-0.969535
-1.46877
-0.491229
-0.423294
0.0313985
0.0738534
0.0907279
1.09797
1.10191
1.07553
1.08303
0.867399
-0.402302
-0.616949
1.20109
1.18167
1.30739
1.26526
1.18507
1.13925
0.0784857
0.0690312
0.0528316
0.0904997
0.0641676
0.54821
0.617303
1.08505
1.14175
1.05691
1.06154
1.06119
0.810115
1.10287
1.09651
0.0188877
0.278171
0.135484
0.228179
0.328921
0.269251
0.444211
0.545945
-0.0342501
-0.00745925
0.0695121
-0.00410858
0.0353269
1.10996
1.09227
1.12707
1.12323
1.14313
0.523846
0.418819
0.684788
0.766931
-0.0209154
-0.0479674
-0.4629
-0.414493
-0.633014
1.09571
0.995778
1.03028
0.147224
0.264957
0.106033
0.386992
0.346307
1.1567
1.1319
1.13911
1.1527
1.14405
1.1562
1.31739
1.31277
1.32363
0.498133
0.566738
0.514697
0.444288
-0.172818
-0.000935658
-0.182841
0.174912
0.172434
0.220806
0.275783
0.293571
0.232586
0.1426
0.149887
0.158703
0.0787365
0.0972317
1.03279
1.0034
1.01668
1.03692
1.10805
1.09806
1.07361
1.09248
0.428146
0.392151
0.335883
0.310376
-2.01247
-3.54917
-0.354493
-0.254498
0.0172266
0.0167114
0.00674824
-0.0602944
0.00389344
-0.0373483
0.189825
0.162982
0.0842161
0.133254
1.09582
1.11431
0.89398
0.943549
0.777432
0.803291
1.15751
1.17311
1.1788
1.17549
0.127327
0.0588198
0.0986041
0.798147
0.678116
0.73496
0.78064
0.679332
0.860248
0.914098
1.10611
1.11143
1.1239
0.00730679
0.157
0.624034
0.367577
0.65757
0.508014
0.296705
0.157677
0.388976
1.04494
1.08338
1.07018
1.14192
1.12805
1.14012
1.12001
1.11555
1.1169
0.276393
0.0443704
0.994768
0.953533
0.816108
0.912746
1.09703
1.10003
1.07108
1.0375
1.05852
0.486198
0.480358
0.392192
0.354887
0.95819
0.969084
0.960291
0.320969
0.237463
0.300369
0.276411
0.245756
0.33381
0.10291
-0.826398
-0.332092
-0.0537813
-0.168431
-0.0986803
0.175208
0.243601
0.212741
0.905685
0.972688
0.598264
0.74741
0.702032
0.0818282
0.113906
0.260375
0.127967
0.126384
0.254382
0.180514
1.01697
0.985456
1.03634
1.04347
1.0774
0.623474
0.580368
0.536757
0.317288
0.307898
0.305745
0.984145
1.01988
1.02933
1.09155
1.12368
-0.0246275
0.0192741
1.25727
1.26057
-0.00957959
-0.000523392
-0.106256
-0.422562
0.602964
1.18286
1.1339
1.21973
0.150031
0.459641
0.158265
0.194502
0.11886
1.05574
1.00484
0.953199
-0.0295014
0.0816986
0.0745413
-0.0537807
1.18582
1.16487
1.1993
1.20737
1.24406
-0.00307005
0.00378061
0.0589751
-0.0249236
0.0687625
0.0709128
1.1285
1.10367
0.0888801
1.18277
1.20747
1.22834
1.20674
1.22737
1.22399
0.0129139
0.0677859
0.0668762
0.712361
0.863511
0.0923516
0.24609
-0.0810143
-0.153648
-0.31196
0.0228822
0.115737
0.0285956
0.195687
0.98414
0.895342
0.685191
0.490968
0.65026
0.628396
1.1582
1.17736
1.15222
1.17195
1.19501
1.16107
1.21683
1.18183
1.1916
1.23183
0.191188
0.17735
0.218004
0.113191
0.582069
0.58059
0.449749
0.502424
0.308121
0.106642
0.154919
0.128191
0.158242
0.191518
0.255995
0.140001
0.301917
0.110575
0.214749
0.109188
0.217949
0.0779026
1.04157
1.06201
1.03932
1.08058
1.06072
1.06241
1.02013
1.02346
1.05746
0.964476
0.967515
0.984126
0.0290815
0.0135864
0.0458137
0.118749
0.103341
-0.03282
-0.0737331
-0.0526806
-0.00123748
-0.0629106
0.0719908
0.0491295
0.0578249
-0.141809
0.841256
0.718311
0.584383
1.15481
1.18764
1.15381
1.19682
1.23528
1.27824
1.23836
1.18205
1.1179
1.13201
1.09459
1.11585
0.139049
0.0641868
0.28514
0.189968
0.678895
1.08635
0.886177
0.858268
0.849037
0.97827
-0.0457919
-0.187908
0.326901
0.355862
-0.341305
-0.32092
-0.383796
-0.111035
0.0365519
-0.00242407
0.18224
0.266527
0.155664
0.0579909
0.379721
0.961061
0.363505
0.397568
0.64275
0.55667
0.453245
1.01002
1.03036
0.857095
0.810831
0.955784
0.92348
0.930616
0.940379
0.959994
0.934657
0.739842
0.760122
0.698932
1.05263
0.959718
0.972706
0.894151
1.17142
1.18108
1.15803
1.15338
1.18647
1.14394
1.12582
1.11204
1.12578
1.15961
1.16176
1.1359
0.199245
0.191628
0.169756
0.0323202
0.144594
0.0640045
0.180693
0.412
0.26717
0.456075
0.610366
0.44477
0.111725
0.302605
0.242661
0.485386
0.387576
0.326843
0.367643
0.394056
0.343204
0.452378
0.411593
0.224175
0.240368
0.216225
0.139177
0.330677
0.268212
0.336617
0.183993
0.235249
0.160869
0.114852
0.22141
0.321741
0.289064
0.242261
0.076904
0.0823103
-0.00447982
0.0224386
0.309022
0.120908
1.11111
1.08731
1.09525
1.0508
1.0861
1.07889
1.00906
1.10687
1.11011
1.09555
1.023
1.00247
1.00064
1.02962
1.04355
1.03987
1.13379
1.11433
1.04875
1.08193
0.998224
1.02436
0.957255
0.970292
1.01416
-0.0865848
-0.0107588
-0.0687964
-0.0589447
0.0165147
0.0552996
0.183276
0.126335
0.233773
0.166301
0.163218
0.0212333
0.0779005
0.242178
0.37862
0.0938251
0.00276551
-0.0929167
0.865093
0.923528
0.782493
0.721732
0.792185
0.80173
0.839685
0.621075
0.640923
0.700401
1.00519
0.996672
1.1427
1.13132
1.1738
1.16746
1.15258
0.265729
0.453109
0.539159
0.628902
0.716925
0.68828
0.650893
0.657802
0.7431
0.717238
1.06424
1.07941
1.07364
1.09921
1.109
0.910362
0.988066
1.0317
1.01393
1.00776
1.02139
1.01858
0.999299
0.983109
0.994714
0.993696
0.947837
0.975181
0.953593
0.966474
1.03366
1.02257
1.03484
1.02545
1.07821
1.03132
1.05925
1.10126
1.06114
0.981434
0.958896
0.977793
0.984628
0.998377
0.982392
0.977459
0.687515
0.831794
0.625421
0.427773
0.563244
0.415524
0.353108
0.484754
0.547888
0.182146
0.206356
-0.122302
0.906473
-0.0399396
0.111815
-0.249797
0.767412
0.788608
0.727781
0.610975
0.683336
1.02983
1.04834
1.05873
0.918744
0.899627
0.865438
0.880672
0.980585
0.900396
0.884036
0.871909
0.699154
0.766118
0.89183
0.844748
0.795163
0.834571
0.879881
0.80117
0.814792
0.899612
0.909779
0.92338
0.962069
1.00615
1.01576
0.977528
0.885609
0.929836
0.910491
0.962317
0.99115
0.972478
1.16037
1.13922
1.14044
1.13038
1.12927
1.14513
1.11118
1.16524
1.18198
1.20142
1.1788
0.193356
0.207359
0.208908
0.14352
0.346841
0.262131
0.142964
0.132358
0.264907
0.233398
0.215144
0.184353
0.317743
0.284328
0.380124
0.432387
0.415852
0.338967
0.527175
0.602644
0.599601
0.604391
0.504324
0.500292
0.558954
0.240786
0.260855
0.239134
0.204275
0.246865
0.110924
0.189747
0.162145
0.221203
0.216917
-0.0335699
0.120849
0.18324
0.00684211
0.0940049
0.132187
1.0933
1.05893
1.00342
0.972994
1.00962
1.00848
1.09886
1.09349
1.12206
1.11261
1.10339
1.08658
1.10481
0.0164498
0.118459
0.133856
0.190222
0.0566807
0.0368763
0.0689536
0.614471
0.447539
0.532656
0.369461
0.194411
0.260865
0.865235
0.998007
0.959545
0.996831
0.881269
0.858728
0.976839
1.03858
0.781301
0.830347
0.763682
0.920817
0.929877
0.957237
0.858946
0.60877
0.721187
0.909312
0.585927
0.541172
0.743912
0.666389
0.680042
0.696347
0.834624
0.714794
0.721979
0.814184
0.742418
0.765766
0.832464
0.760577
0.836876
0.582524
0.598836
0.506971
1.01988
1.05711
1.08183
1.04315
1.06543
1.04436
1.06996
1.07939
1.10101
1.08673
-0.0867384
0.127651
-0.694063
-0.249083
0.0553048
0.925957
0.682565
0.941347
0.974302
0.565238
0.737052
0.892051
0.89707
0.940535
0.885729
0.848841
0.922111
0.892494
0.895097
0.80625
0.717924
1.0082
1.01162
0.995785
1.0189
0.99621
1.01737
1.06098
1.09962
1.08844
1.12899
1.13929
1.1558
0.371865
0.333989
0.390095
0.379649
0.392696
0.40332
-0.0174025
0.0197462
0.220807
0.136916
0.0939448
0.171292
0.593293
0.604804
0.472081
0.536747
0.346399
0.222143
0.209216
0.331026
0.473532
0.521995
0.798873
0.854974
0.804579
0.84782
0.787387
0.871756
0.922081
0.878381
0.929277
0.880788
0.897094
0.587134
0.330232
0.354104
0.61043
1.03008
1.00447
0.818517
0.405214
0.46552
0.963162
0.913908
0.89862
0.947295
0.91348
0.491699
0.543318
0.574435
0.593319
0.707675
0.629132
0.619607
0.626983
0.617728
)
;

boundaryField
{
    wall-4
    {
        type            calculated;
        value           nonuniform List<scalar> 
100
(
1.33012
0.180442
0.0789426
1.31004
0.1851
-0.353003
0.929576
0.138482
0.157214
1.07287
0.329484
0.227652
-0.844933
1.09829
-0.555907
1.12157
0.0818711
0.636388
1.14517
1.07694
0.209032
0.315105
0.0194375
0.47437
1.11828
-0.212274
-0.510385
0.983267
0.262089
0.848006
1.13788
0.0657504
0.151512
0.146801
0.132836
1.02349
1.06947
1.06639
0.336323
0.332721
0.236296
0.125002
-1.46877
-0.423294
1.10191
1.08303
-0.616949
1.18167
1.13925
0.0690312
0.0641676
0.617303
1.14175
1.06119
0.810115
1.09651
0.0188877
0.228179
0.269251
0.545945
1.09227
1.12707
1.14313
-0.0479674
-0.633014
1.03028
0.106033
0.346307
1.13911
1.1562
-0.182841
0.172434
0.158703
0.0972317
1.0034
1.03692
1.10805
1.09248
0.310376
-0.254498
1.11431
1.15751
1.17549
0.0986041
0.73496
0.679332
0.914098
1.1239
0.157
0.508014
1.07018
1.14012
1.1169
1.05852
0.480358
0.960291
0.276411
-0.0986803
0.126384
0.536757
)
;
    }
    velocity-inlet-5
    {
        type            calculated;
        value           nonuniform List<scalar> 8(1.33012 1.31004 1.31572 1.36178 1.31351 1.33963 1.30739 1.32363);
    }
    velocity-inlet-6
    {
        type            calculated;
        value           nonuniform List<scalar> 4(0.180442 0.1851 0.132243 0.0143109);
    }
    pressure-outlet-7
    {
        type            calculated;
        value           uniform 0;
    }
    wall-8
    {
        type            calculated;
        value           nonuniform List<scalar> 
34
(
-0.00786823
0.0687069
-0.00208148
0.607971
0.516423
0.246067
0.0907279
0.867399
0.0353269
0.418819
0.766931
1.09571
0.566738
0.444288
0.275783
0.232586
-3.54917
0.189825
0.133254
0.943549
0.803291
0.0443704
0.994768
0.912746
1.10003
0.354887
-0.332092
0.212741
0.972688
0.702032
1.03634
1.0774
0.305745
1.02933
)
;
    }
    frontAndBackPlanes
    {
        type            empty;
    }
}

