/*--------------------------------*- C++ -*----------------------------------*\
  =========                 |
  \\      /  F ield         | OpenFOAM: The Open Source CFD Toolbox
   \\    /   O peration     | Website:  https://openfoam.org
    \\  /    A nd           | Version:  6
     \\/     M anipulation  |
\*---------------------------------------------------------------------------*/
FoamFile
{
    version     2.0;
    format      ascii;
    class       volScalarField;
    location    "0";
    object      p;
}
// * * * * * * * * * * * * * * * * * * * * * * * * * * * * * * * * * * * * * //

dimensions      [0 2 -2 0 0 0 0];

internalField   nonuniform List<scalar> 
145945
(
2.08057e-06
2.08029e-06
2.08036e-06
2.08047e-06
2.08068e-06
2.08082e-06
2.08097e-06
2.08105e-06
2.0811e-06
2.08107e-06
2.08101e-06
2.08088e-06
2.08076e-06
2.08057e-06
2.0805e-06
2.08038e-06
2.08067e-06
2.08029e-06
2.08022e-06
2.08033e-06
2.08049e-06
2.08072e-06
2.08089e-06
2.08104e-06
2.08113e-06
2.08118e-06
2.08115e-06
2.08109e-06
2.08095e-06
2.08081e-06
2.08061e-06
2.08048e-06
2.08032e-06
2.08039e-06
2.08036e-06
2.08033e-06
2.08045e-06
2.08067e-06
2.08091e-06
2.0811e-06
2.08126e-06
2.08136e-06
2.08141e-06
2.08138e-06
2.08131e-06
2.08117e-06
2.08101e-06
2.0808e-06
2.08061e-06
2.08044e-06
2.08047e-06
2.08047e-06
2.08049e-06
2.08067e-06
2.08093e-06
2.0812e-06
2.08141e-06
2.08158e-06
2.08168e-06
2.08173e-06
2.08171e-06
2.08163e-06
2.08148e-06
2.08131e-06
2.08107e-06
2.08084e-06
2.08062e-06
2.08058e-06
2.08068e-06
2.08072e-06
2.08091e-06
2.0812e-06
2.08148e-06
2.0817e-06
2.08187e-06
2.08198e-06
2.08203e-06
2.08201e-06
2.08192e-06
2.08177e-06
2.08159e-06
2.08135e-06
2.0811e-06
2.08085e-06
2.08079e-06
2.08082e-06
2.08089e-06
2.0811e-06
2.08141e-06
2.0817e-06
2.08193e-06
2.0821e-06
2.08222e-06
2.08227e-06
2.08224e-06
2.08216e-06
2.08201e-06
2.08181e-06
2.08156e-06
2.08129e-06
2.08102e-06
2.08093e-06
2.08097e-06
2.08104e-06
2.08126e-06
2.08158e-06
2.08187e-06
2.0821e-06
2.08228e-06
2.08239e-06
2.08244e-06
2.08242e-06
2.08234e-06
2.08219e-06
2.08199e-06
2.08173e-06
2.08146e-06
2.08118e-06
2.08108e-06
2.08105e-06
2.08113e-06
2.08136e-06
2.08168e-06
2.08198e-06
2.08222e-06
2.08239e-06
2.08251e-06
2.08256e-06
2.08254e-06
2.08245e-06
2.0823e-06
2.0821e-06
2.08184e-06
2.08155e-06
2.08127e-06
2.08116e-06
2.0811e-06
2.08118e-06
2.08141e-06
2.08173e-06
2.08203e-06
2.08227e-06
2.08244e-06
2.08256e-06
2.08261e-06
2.08259e-06
2.0825e-06
2.08235e-06
2.08215e-06
2.08189e-06
2.0816e-06
2.08132e-06
2.08121e-06
2.08107e-06
2.08115e-06
2.08138e-06
2.08171e-06
2.08201e-06
2.08224e-06
2.08242e-06
2.08254e-06
2.08259e-06
2.08257e-06
2.08248e-06
2.08233e-06
2.08212e-06
2.08187e-06
2.08158e-06
2.08129e-06
2.08118e-06
2.08101e-06
2.08109e-06
2.08131e-06
2.08163e-06
2.08192e-06
2.08216e-06
2.08234e-06
2.08245e-06
2.0825e-06
2.08248e-06
2.08239e-06
2.08224e-06
2.08204e-06
2.08179e-06
2.08151e-06
2.08123e-06
2.08112e-06
2.08088e-06
2.08095e-06
2.08117e-06
2.08148e-06
2.08178e-06
2.08201e-06
2.08219e-06
2.0823e-06
2.08235e-06
2.08233e-06
2.08224e-06
2.08209e-06
2.08189e-06
2.08164e-06
2.08136e-06
2.08109e-06
2.08099e-06
2.08076e-06
2.08081e-06
2.08101e-06
2.08131e-06
2.08159e-06
2.08181e-06
2.08199e-06
2.0821e-06
2.08215e-06
2.08212e-06
2.08204e-06
2.08189e-06
2.0817e-06
2.08146e-06
2.0812e-06
2.08095e-06
2.08087e-06
2.08057e-06
2.08061e-06
2.0808e-06
2.08107e-06
2.08135e-06
2.08156e-06
2.08173e-06
2.08184e-06
2.08189e-06
2.08187e-06
2.08179e-06
2.08164e-06
2.08146e-06
2.08122e-06
2.08098e-06
2.08074e-06
2.08068e-06
2.0805e-06
2.08048e-06
2.08061e-06
2.08085e-06
2.0811e-06
2.08129e-06
2.08146e-06
2.08155e-06
2.08161e-06
2.08158e-06
2.08151e-06
2.08136e-06
2.0812e-06
2.08098e-06
2.08078e-06
2.0806e-06
2.08061e-06
2.08038e-06
2.08032e-06
2.08044e-06
2.08062e-06
2.08085e-06
2.08102e-06
2.08118e-06
2.08127e-06
2.08132e-06
2.08129e-06
2.08123e-06
2.08109e-06
2.08095e-06
2.08074e-06
2.0806e-06
2.08043e-06
2.08048e-06
2.08067e-06
2.08039e-06
2.08047e-06
2.08058e-06
2.08079e-06
2.08093e-06
2.08108e-06
2.08116e-06
2.08121e-06
2.08118e-06
2.08112e-06
2.08099e-06
2.08087e-06
2.08068e-06
2.08061e-06
2.08048e-06
2.08076e-06
2.00582e-06
2.00584e-06
2.0062e-06
2.00657e-06
2.00697e-06
2.00731e-06
2.00758e-06
2.00775e-06
2.00782e-06
2.00778e-06
2.00764e-06
2.0074e-06
2.0071e-06
2.00672e-06
2.00638e-06
2.00596e-06
2.00591e-06
2.00584e-06
2.00604e-06
2.00644e-06
2.00687e-06
2.00731e-06
2.00768e-06
2.00797e-06
2.00815e-06
2.00823e-06
2.00818e-06
2.00804e-06
2.00778e-06
2.00745e-06
2.00704e-06
2.00663e-06
2.00618e-06
2.00594e-06
2.0062e-06
2.00644e-06
2.00684e-06
2.00733e-06
2.0078e-06
2.00819e-06
2.00849e-06
2.00868e-06
2.00877e-06
2.00872e-06
2.00857e-06
2.0083e-06
2.00794e-06
2.00751e-06
2.00704e-06
2.00658e-06
2.0063e-06
2.00657e-06
2.00687e-06
2.00733e-06
2.00785e-06
2.00835e-06
2.00876e-06
2.00908e-06
2.00928e-06
2.00936e-06
2.00932e-06
2.00916e-06
2.00888e-06
2.00851e-06
2.00804e-06
2.00754e-06
2.00703e-06
2.00667e-06
2.00697e-06
2.00731e-06
2.0078e-06
2.00835e-06
2.00887e-06
2.00929e-06
2.00962e-06
2.00983e-06
2.00991e-06
2.00987e-06
2.0097e-06
2.00941e-06
2.00903e-06
2.00855e-06
2.00802e-06
2.00748e-06
2.00708e-06
2.00731e-06
2.00768e-06
2.00819e-06
2.00876e-06
2.00929e-06
2.00973e-06
2.01006e-06
2.01027e-06
2.01036e-06
2.01032e-06
2.01015e-06
2.00985e-06
2.00946e-06
2.00897e-06
2.00841e-06
2.00785e-06
2.00741e-06
2.00758e-06
2.00796e-06
2.00849e-06
2.00908e-06
2.00962e-06
2.01006e-06
2.0104e-06
2.01061e-06
2.0107e-06
2.01065e-06
2.01048e-06
2.01019e-06
2.00978e-06
2.00929e-06
2.00872e-06
2.00814e-06
2.00768e-06
2.00775e-06
2.00815e-06
2.00868e-06
2.00928e-06
2.00983e-06
2.01027e-06
2.01061e-06
2.01082e-06
2.01091e-06
2.01087e-06
2.01069e-06
2.0104e-06
2.00999e-06
2.00949e-06
2.00892e-06
2.00832e-06
2.00785e-06
2.00782e-06
2.00823e-06
2.00877e-06
2.00936e-06
2.00991e-06
2.01036e-06
2.0107e-06
2.01091e-06
2.011e-06
2.01096e-06
2.01078e-06
2.01049e-06
2.01008e-06
2.00958e-06
2.009e-06
2.0084e-06
2.00793e-06
2.00778e-06
2.00818e-06
2.00872e-06
2.00932e-06
2.00987e-06
2.01032e-06
2.01065e-06
2.01087e-06
2.01096e-06
2.01092e-06
2.01074e-06
2.01044e-06
2.01004e-06
2.00953e-06
2.00896e-06
2.00836e-06
2.00789e-06
2.00764e-06
2.00804e-06
2.00857e-06
2.00916e-06
2.0097e-06
2.01015e-06
2.01048e-06
2.01069e-06
2.01078e-06
2.01074e-06
2.01057e-06
2.01027e-06
2.00987e-06
2.00937e-06
2.0088e-06
2.00821e-06
2.00775e-06
2.0074e-06
2.00778e-06
2.0083e-06
2.00888e-06
2.00941e-06
2.00985e-06
2.01019e-06
2.0104e-06
2.01049e-06
2.01044e-06
2.01027e-06
2.00998e-06
2.00958e-06
2.00908e-06
2.00852e-06
2.00795e-06
2.00751e-06
2.0071e-06
2.00745e-06
2.00794e-06
2.00851e-06
2.00903e-06
2.00946e-06
2.00978e-06
2.00999e-06
2.01008e-06
2.01004e-06
2.00987e-06
2.00958e-06
2.00919e-06
2.00871e-06
2.00817e-06
2.00762e-06
2.0072e-06
2.00672e-06
2.00704e-06
2.00751e-06
2.00804e-06
2.00855e-06
2.00897e-06
2.00929e-06
2.00949e-06
2.00958e-06
2.00953e-06
2.00937e-06
2.00908e-06
2.00871e-06
2.00824e-06
2.00772e-06
2.0072e-06
2.00682e-06
2.00638e-06
2.00663e-06
2.00705e-06
2.00754e-06
2.00802e-06
2.00841e-06
2.00872e-06
2.00892e-06
2.009e-06
2.00896e-06
2.0088e-06
2.00853e-06
2.00817e-06
2.00772e-06
2.00725e-06
2.00678e-06
2.00648e-06
2.00596e-06
2.00618e-06
2.00658e-06
2.00703e-06
2.00748e-06
2.00785e-06
2.00814e-06
2.00832e-06
2.0084e-06
2.00836e-06
2.00821e-06
2.00795e-06
2.00762e-06
2.0072e-06
2.00678e-06
2.00632e-06
2.00606e-06
2.00591e-06
2.00594e-06
2.0063e-06
2.00667e-06
2.00708e-06
2.00741e-06
2.00768e-06
2.00785e-06
2.00793e-06
2.00789e-06
2.00775e-06
2.00751e-06
2.0072e-06
2.00682e-06
2.00648e-06
2.00606e-06
2.006e-06
1.94973e-06
1.95104e-06
1.9523e-06
1.95341e-06
1.95441e-06
1.95516e-06
1.9557e-06
1.95603e-06
1.95616e-06
1.95607e-06
1.95579e-06
1.95529e-06
1.95459e-06
1.95362e-06
1.9525e-06
1.95111e-06
1.94972e-06
1.95104e-06
1.9522e-06
1.95342e-06
1.95454e-06
1.95552e-06
1.95627e-06
1.95682e-06
1.95715e-06
1.95727e-06
1.95719e-06
1.9569e-06
1.9564e-06
1.9557e-06
1.95475e-06
1.95362e-06
1.95227e-06
1.95104e-06
1.9523e-06
1.95342e-06
1.95456e-06
1.95565e-06
1.9566e-06
1.95733e-06
1.95787e-06
1.95819e-06
1.95832e-06
1.95824e-06
1.95795e-06
1.95746e-06
1.95677e-06
1.95585e-06
1.95474e-06
1.95347e-06
1.9523e-06
1.95341e-06
1.95454e-06
1.95565e-06
1.95671e-06
1.95763e-06
1.95836e-06
1.95888e-06
1.9592e-06
1.95933e-06
1.95925e-06
1.95897e-06
1.95849e-06
1.95781e-06
1.95691e-06
1.95581e-06
1.95459e-06
1.95341e-06
1.95441e-06
1.95552e-06
1.9566e-06
1.95763e-06
1.95854e-06
1.95926e-06
1.95977e-06
1.96009e-06
1.96021e-06
1.96013e-06
1.95986e-06
1.95938e-06
1.95871e-06
1.95783e-06
1.95676e-06
1.95557e-06
1.9544e-06
1.95516e-06
1.95627e-06
1.95733e-06
1.95836e-06
1.95926e-06
1.95996e-06
1.96047e-06
1.96079e-06
1.96091e-06
1.96083e-06
1.96056e-06
1.96009e-06
1.95942e-06
1.95855e-06
1.95749e-06
1.95632e-06
1.95515e-06
1.9557e-06
1.95682e-06
1.95787e-06
1.95888e-06
1.95977e-06
1.96047e-06
1.96098e-06
1.96129e-06
1.96141e-06
1.96134e-06
1.96106e-06
1.9606e-06
1.95994e-06
1.95907e-06
1.95802e-06
1.95686e-06
1.9557e-06
1.95603e-06
1.95714e-06
1.95819e-06
1.9592e-06
1.96009e-06
1.96079e-06
1.96129e-06
1.9616e-06
1.96172e-06
1.96165e-06
1.96138e-06
1.96091e-06
1.96025e-06
1.95939e-06
1.95835e-06
1.95719e-06
1.95602e-06
1.95616e-06
1.95727e-06
1.95832e-06
1.95933e-06
1.96021e-06
1.96091e-06
1.96141e-06
1.96172e-06
1.96184e-06
1.96177e-06
1.9615e-06
1.96103e-06
1.96038e-06
1.95952e-06
1.95847e-06
1.95732e-06
1.95615e-06
1.95607e-06
1.95719e-06
1.95824e-06
1.95925e-06
1.96013e-06
1.96083e-06
1.96134e-06
1.96165e-06
1.96177e-06
1.96169e-06
1.96142e-06
1.96096e-06
1.9603e-06
1.95944e-06
1.95839e-06
1.95724e-06
1.95607e-06
1.95579e-06
1.9569e-06
1.95795e-06
1.95897e-06
1.95986e-06
1.96056e-06
1.96106e-06
1.96138e-06
1.9615e-06
1.96142e-06
1.96115e-06
1.96068e-06
1.96002e-06
1.95916e-06
1.95811e-06
1.95695e-06
1.95578e-06
1.95529e-06
1.9564e-06
1.95746e-06
1.95849e-06
1.95938e-06
1.96009e-06
1.9606e-06
1.96091e-06
1.96103e-06
1.96096e-06
1.96068e-06
1.96021e-06
1.95955e-06
1.95868e-06
1.95762e-06
1.95645e-06
1.95528e-06
1.95459e-06
1.9557e-06
1.95677e-06
1.95781e-06
1.95871e-06
1.95942e-06
1.95994e-06
1.96026e-06
1.96038e-06
1.9603e-06
1.96002e-06
1.95955e-06
1.95888e-06
1.958e-06
1.95693e-06
1.95575e-06
1.95458e-06
1.95362e-06
1.95475e-06
1.95585e-06
1.95691e-06
1.95783e-06
1.95855e-06
1.95907e-06
1.95939e-06
1.95952e-06
1.95944e-06
1.95916e-06
1.95868e-06
1.958e-06
1.95711e-06
1.95602e-06
1.9548e-06
1.95362e-06
1.9525e-06
1.95362e-06
1.95474e-06
1.95581e-06
1.95676e-06
1.95749e-06
1.95802e-06
1.95835e-06
1.95847e-06
1.95839e-06
1.95811e-06
1.95762e-06
1.95693e-06
1.95602e-06
1.95491e-06
1.95366e-06
1.9525e-06
1.95111e-06
1.95227e-06
1.95347e-06
1.95459e-06
1.95557e-06
1.95632e-06
1.95686e-06
1.95719e-06
1.95732e-06
1.95724e-06
1.95695e-06
1.95645e-06
1.95575e-06
1.9548e-06
1.95366e-06
1.95233e-06
1.95111e-06
1.94972e-06
1.95104e-06
1.9523e-06
1.95341e-06
1.9544e-06
1.95515e-06
1.9557e-06
1.95602e-06
1.95615e-06
1.95607e-06
1.95578e-06
1.95528e-06
1.95458e-06
1.95362e-06
1.95249e-06
1.95111e-06
1.94971e-06
1.89567e-06
1.89786e-06
1.89985e-06
1.90172e-06
1.90331e-06
1.9045e-06
1.90535e-06
1.90586e-06
1.90606e-06
1.90593e-06
1.90548e-06
1.90469e-06
1.90359e-06
1.90207e-06
1.90019e-06
1.89803e-06
1.89567e-06
1.89787e-06
1.8997e-06
1.90164e-06
1.90348e-06
1.90504e-06
1.90621e-06
1.90704e-06
1.90754e-06
1.90774e-06
1.90761e-06
1.90717e-06
1.9064e-06
1.90531e-06
1.90382e-06
1.90198e-06
1.89985e-06
1.89788e-06
1.89985e-06
1.90164e-06
1.90351e-06
1.90528e-06
1.90677e-06
1.9079e-06
1.9087e-06
1.90919e-06
1.90938e-06
1.90926e-06
1.90883e-06
1.90809e-06
1.90703e-06
1.90561e-06
1.90384e-06
1.90178e-06
1.89986e-06
1.90172e-06
1.90348e-06
1.90528e-06
1.90699e-06
1.90843e-06
1.90953e-06
1.9103e-06
1.91078e-06
1.91096e-06
1.91084e-06
1.91043e-06
1.90971e-06
1.90869e-06
1.90732e-06
1.90559e-06
1.90361e-06
1.90174e-06
1.90331e-06
1.90504e-06
1.90677e-06
1.90843e-06
1.90983e-06
1.9109e-06
1.91165e-06
1.91211e-06
1.91229e-06
1.91217e-06
1.91177e-06
1.91108e-06
1.91008e-06
1.90875e-06
1.90708e-06
1.90517e-06
1.90333e-06
1.9045e-06
1.90621e-06
1.9079e-06
1.90953e-06
1.9109e-06
1.91194e-06
1.91268e-06
1.91313e-06
1.91331e-06
1.91319e-06
1.9128e-06
1.91212e-06
1.91114e-06
1.90984e-06
1.9082e-06
1.90634e-06
1.90451e-06
1.90535e-06
1.90704e-06
1.9087e-06
1.9103e-06
1.91165e-06
1.91268e-06
1.91341e-06
1.91386e-06
1.91403e-06
1.91392e-06
1.91353e-06
1.91285e-06
1.91189e-06
1.91061e-06
1.909e-06
1.90717e-06
1.90536e-06
1.90586e-06
1.90754e-06
1.90919e-06
1.91078e-06
1.91211e-06
1.91313e-06
1.91386e-06
1.9143e-06
1.91447e-06
1.91436e-06
1.91397e-06
1.91331e-06
1.91235e-06
1.91108e-06
1.90948e-06
1.90767e-06
1.90588e-06
1.90606e-06
1.90774e-06
1.90938e-06
1.91096e-06
1.91229e-06
1.91331e-06
1.91403e-06
1.91447e-06
1.91464e-06
1.91453e-06
1.91414e-06
1.91348e-06
1.91253e-06
1.91126e-06
1.90967e-06
1.90787e-06
1.90607e-06
1.90593e-06
1.90761e-06
1.90926e-06
1.91084e-06
1.91217e-06
1.91319e-06
1.91392e-06
1.91436e-06
1.91453e-06
1.91442e-06
1.91403e-06
1.91337e-06
1.91241e-06
1.91115e-06
1.90955e-06
1.90774e-06
1.90594e-06
1.90548e-06
1.90717e-06
1.90883e-06
1.91042e-06
1.91177e-06
1.9128e-06
1.91353e-06
1.91397e-06
1.91414e-06
1.91403e-06
1.91364e-06
1.91297e-06
1.91201e-06
1.91073e-06
1.90912e-06
1.9073e-06
1.90549e-06
1.90469e-06
1.9064e-06
1.90809e-06
1.90971e-06
1.91108e-06
1.91212e-06
1.91286e-06
1.91331e-06
1.91348e-06
1.91337e-06
1.91297e-06
1.91229e-06
1.91132e-06
1.91002e-06
1.90839e-06
1.90653e-06
1.90471e-06
1.90359e-06
1.90531e-06
1.90703e-06
1.90869e-06
1.91008e-06
1.91114e-06
1.91189e-06
1.91235e-06
1.91253e-06
1.91241e-06
1.91201e-06
1.91132e-06
1.91033e-06
1.909e-06
1.90734e-06
1.90544e-06
1.9036e-06
1.90207e-06
1.90382e-06
1.90561e-06
1.90732e-06
1.90875e-06
1.90984e-06
1.91061e-06
1.91108e-06
1.91126e-06
1.91115e-06
1.91073e-06
1.91002e-06
1.909e-06
1.90764e-06
1.90593e-06
1.90396e-06
1.90208e-06
1.90019e-06
1.90198e-06
1.90384e-06
1.90559e-06
1.90708e-06
1.9082e-06
1.909e-06
1.90949e-06
1.90967e-06
1.90955e-06
1.90912e-06
1.90839e-06
1.90734e-06
1.90593e-06
1.90416e-06
1.90212e-06
1.90021e-06
1.89803e-06
1.89985e-06
1.90178e-06
1.90361e-06
1.90517e-06
1.90634e-06
1.90717e-06
1.90767e-06
1.90787e-06
1.90774e-06
1.9073e-06
1.90653e-06
1.90544e-06
1.90396e-06
1.90212e-06
1.9e-06
1.89804e-06
1.89567e-06
1.89788e-06
1.89986e-06
1.90174e-06
1.90333e-06
1.90451e-06
1.90536e-06
1.90588e-06
1.90607e-06
1.90594e-06
1.90549e-06
1.90471e-06
1.9036e-06
1.90208e-06
1.90021e-06
1.89804e-06
1.89567e-06
1.84321e-06
1.84574e-06
1.84797e-06
1.85017e-06
1.852e-06
1.85338e-06
1.85437e-06
1.85497e-06
1.8552e-06
1.85505e-06
1.85452e-06
1.8536e-06
1.85231e-06
1.85057e-06
1.84835e-06
1.84593e-06
1.84321e-06
1.84574e-06
1.84783e-06
1.85004e-06
1.85219e-06
1.854e-06
1.85538e-06
1.85636e-06
1.85696e-06
1.85719e-06
1.85704e-06
1.85651e-06
1.8556e-06
1.85432e-06
1.85259e-06
1.85042e-06
1.848e-06
1.84575e-06
1.84797e-06
1.85004e-06
1.85222e-06
1.8543e-06
1.85605e-06
1.85739e-06
1.85834e-06
1.85892e-06
1.85914e-06
1.859e-06
1.85849e-06
1.85761e-06
1.85636e-06
1.85468e-06
1.8526e-06
1.8502e-06
1.84798e-06
1.85017e-06
1.85219e-06
1.8543e-06
1.85631e-06
1.85802e-06
1.85932e-06
1.86025e-06
1.86081e-06
1.86103e-06
1.86089e-06
1.86039e-06
1.85954e-06
1.85832e-06
1.85669e-06
1.85466e-06
1.85233e-06
1.85018e-06
1.852e-06
1.854e-06
1.85605e-06
1.85802e-06
1.85968e-06
1.86095e-06
1.86186e-06
1.86241e-06
1.86262e-06
1.86249e-06
1.862e-06
1.86117e-06
1.85997e-06
1.85839e-06
1.85641e-06
1.85415e-06
1.85201e-06
1.85338e-06
1.85538e-06
1.85739e-06
1.85932e-06
1.86095e-06
1.86221e-06
1.86309e-06
1.86364e-06
1.86385e-06
1.86371e-06
1.86323e-06
1.86241e-06
1.86124e-06
1.85969e-06
1.85774e-06
1.85553e-06
1.85339e-06
1.85437e-06
1.85636e-06
1.85834e-06
1.86025e-06
1.86186e-06
1.86309e-06
1.86397e-06
1.86451e-06
1.86471e-06
1.86458e-06
1.86411e-06
1.8633e-06
1.86214e-06
1.86061e-06
1.85869e-06
1.85651e-06
1.85438e-06
1.85497e-06
1.85696e-06
1.85892e-06
1.86081e-06
1.86241e-06
1.86364e-06
1.86451e-06
1.86504e-06
1.86524e-06
1.86511e-06
1.86465e-06
1.86384e-06
1.8627e-06
1.86118e-06
1.85927e-06
1.85711e-06
1.85499e-06
1.8552e-06
1.85719e-06
1.85914e-06
1.86103e-06
1.86262e-06
1.86385e-06
1.86471e-06
1.86524e-06
1.86545e-06
1.86531e-06
1.86485e-06
1.86405e-06
1.86291e-06
1.86139e-06
1.85949e-06
1.85734e-06
1.85522e-06
1.85505e-06
1.85704e-06
1.859e-06
1.86089e-06
1.86249e-06
1.86371e-06
1.86458e-06
1.86511e-06
1.86531e-06
1.86518e-06
1.86472e-06
1.86391e-06
1.86277e-06
1.86125e-06
1.85934e-06
1.85719e-06
1.85506e-06
1.85452e-06
1.85651e-06
1.85849e-06
1.86039e-06
1.862e-06
1.86323e-06
1.86411e-06
1.86465e-06
1.86485e-06
1.86472e-06
1.86425e-06
1.86344e-06
1.86228e-06
1.86076e-06
1.85884e-06
1.85666e-06
1.85454e-06
1.8536e-06
1.8556e-06
1.85761e-06
1.85954e-06
1.86117e-06
1.86241e-06
1.8633e-06
1.86384e-06
1.86405e-06
1.86391e-06
1.86344e-06
1.86262e-06
1.86145e-06
1.8599e-06
1.85796e-06
1.85575e-06
1.85362e-06
1.85231e-06
1.85432e-06
1.85636e-06
1.85832e-06
1.85997e-06
1.86124e-06
1.86214e-06
1.8627e-06
1.86291e-06
1.86277e-06
1.86228e-06
1.86145e-06
1.86026e-06
1.85869e-06
1.85671e-06
1.85446e-06
1.85232e-06
1.85057e-06
1.85259e-06
1.85469e-06
1.85669e-06
1.85839e-06
1.85969e-06
1.86061e-06
1.86118e-06
1.86139e-06
1.86125e-06
1.86076e-06
1.8599e-06
1.85869e-06
1.85707e-06
1.85505e-06
1.85273e-06
1.85058e-06
1.84835e-06
1.85043e-06
1.8526e-06
1.85466e-06
1.85641e-06
1.85774e-06
1.85869e-06
1.85927e-06
1.85949e-06
1.85934e-06
1.85884e-06
1.85796e-06
1.85672e-06
1.85505e-06
1.85297e-06
1.85058e-06
1.84836e-06
1.84593e-06
1.848e-06
1.8502e-06
1.85233e-06
1.85415e-06
1.85553e-06
1.85651e-06
1.85711e-06
1.85734e-06
1.85719e-06
1.85666e-06
1.85575e-06
1.85446e-06
1.85273e-06
1.85058e-06
1.84816e-06
1.84594e-06
1.84321e-06
1.84575e-06
1.84798e-06
1.85018e-06
1.85201e-06
1.85339e-06
1.85439e-06
1.85499e-06
1.85522e-06
1.85506e-06
1.85454e-06
1.85362e-06
1.85232e-06
1.85058e-06
1.84836e-06
1.84594e-06
1.84321e-06
1.7949e-06
1.79752e-06
1.79981e-06
1.80212e-06
1.80402e-06
1.80548e-06
1.80652e-06
1.80715e-06
1.80739e-06
1.80723e-06
1.80667e-06
1.80571e-06
1.80434e-06
1.80253e-06
1.80019e-06
1.79771e-06
1.79489e-06
1.79752e-06
1.7997e-06
1.80199e-06
1.80424e-06
1.80614e-06
1.8076e-06
1.80865e-06
1.80928e-06
1.80952e-06
1.80936e-06
1.8088e-06
1.80783e-06
1.80647e-06
1.80465e-06
1.80236e-06
1.79986e-06
1.79752e-06
1.79981e-06
1.80199e-06
1.80428e-06
1.80647e-06
1.80832e-06
1.80974e-06
1.81076e-06
1.81138e-06
1.81161e-06
1.81145e-06
1.81091e-06
1.80997e-06
1.80864e-06
1.80687e-06
1.80465e-06
1.80213e-06
1.79981e-06
1.80212e-06
1.80424e-06
1.80647e-06
1.8086e-06
1.81041e-06
1.8118e-06
1.81279e-06
1.8134e-06
1.81363e-06
1.81348e-06
1.81294e-06
1.81202e-06
1.81072e-06
1.80899e-06
1.80683e-06
1.80438e-06
1.80212e-06
1.80402e-06
1.80614e-06
1.80832e-06
1.81041e-06
1.81219e-06
1.81355e-06
1.81452e-06
1.81512e-06
1.81534e-06
1.81519e-06
1.81467e-06
1.81377e-06
1.81249e-06
1.81079e-06
1.80868e-06
1.80628e-06
1.80402e-06
1.80548e-06
1.8076e-06
1.80974e-06
1.8118e-06
1.81355e-06
1.8149e-06
1.81586e-06
1.81644e-06
1.81666e-06
1.81652e-06
1.816e-06
1.81511e-06
1.81385e-06
1.81218e-06
1.8101e-06
1.80773e-06
1.80547e-06
1.80652e-06
1.80864e-06
1.81076e-06
1.81279e-06
1.81452e-06
1.81586e-06
1.8168e-06
1.81738e-06
1.8176e-06
1.81746e-06
1.81695e-06
1.81607e-06
1.81482e-06
1.81317e-06
1.8111e-06
1.80878e-06
1.80651e-06
1.80715e-06
1.80928e-06
1.81138e-06
1.8134e-06
1.81512e-06
1.81644e-06
1.81738e-06
1.81796e-06
1.81818e-06
1.81803e-06
1.81753e-06
1.81665e-06
1.81541e-06
1.81377e-06
1.81172e-06
1.80941e-06
1.80714e-06
1.80739e-06
1.80952e-06
1.81161e-06
1.81363e-06
1.81534e-06
1.81666e-06
1.8176e-06
1.81818e-06
1.8184e-06
1.81825e-06
1.81775e-06
1.81688e-06
1.81564e-06
1.814e-06
1.81195e-06
1.80965e-06
1.80738e-06
1.80723e-06
1.80936e-06
1.81145e-06
1.81347e-06
1.81519e-06
1.81652e-06
1.81746e-06
1.81803e-06
1.81825e-06
1.81811e-06
1.8176e-06
1.81673e-06
1.81549e-06
1.81385e-06
1.8118e-06
1.80949e-06
1.80722e-06
1.80667e-06
1.8088e-06
1.81091e-06
1.81294e-06
1.81467e-06
1.816e-06
1.81695e-06
1.81753e-06
1.81775e-06
1.8176e-06
1.81709e-06
1.81621e-06
1.81496e-06
1.81331e-06
1.81126e-06
1.80893e-06
1.80667e-06
1.80571e-06
1.80783e-06
1.80997e-06
1.81202e-06
1.81377e-06
1.81511e-06
1.81607e-06
1.81666e-06
1.81688e-06
1.81673e-06
1.81621e-06
1.81533e-06
1.81407e-06
1.8124e-06
1.81032e-06
1.80797e-06
1.8057e-06
1.80434e-06
1.80647e-06
1.80864e-06
1.81072e-06
1.81249e-06
1.81385e-06
1.81482e-06
1.81541e-06
1.81564e-06
1.81549e-06
1.81496e-06
1.81407e-06
1.81279e-06
1.8111e-06
1.80899e-06
1.8066e-06
1.80434e-06
1.80253e-06
1.80465e-06
1.80687e-06
1.80899e-06
1.81079e-06
1.81218e-06
1.81317e-06
1.81377e-06
1.814e-06
1.81385e-06
1.81332e-06
1.8124e-06
1.8111e-06
1.80937e-06
1.80723e-06
1.80478e-06
1.80253e-06
1.80019e-06
1.80237e-06
1.80465e-06
1.80683e-06
1.80868e-06
1.8101e-06
1.81111e-06
1.81172e-06
1.81196e-06
1.8118e-06
1.81126e-06
1.81032e-06
1.80899e-06
1.80723e-06
1.80503e-06
1.80251e-06
1.80018e-06
1.79771e-06
1.79986e-06
1.80213e-06
1.80438e-06
1.80628e-06
1.80774e-06
1.80878e-06
1.80941e-06
1.80965e-06
1.80949e-06
1.80893e-06
1.80797e-06
1.8066e-06
1.80478e-06
1.80251e-06
1.80002e-06
1.7977e-06
1.79489e-06
1.79752e-06
1.79981e-06
1.80212e-06
1.80402e-06
1.80547e-06
1.80651e-06
1.80714e-06
1.80739e-06
1.80722e-06
1.80667e-06
1.8057e-06
1.80434e-06
1.80253e-06
1.80018e-06
1.7977e-06
1.79488e-06
1.75058e-06
1.75313e-06
1.75535e-06
1.75764e-06
1.75951e-06
1.76095e-06
1.76199e-06
1.76262e-06
1.76286e-06
1.76269e-06
1.76214e-06
1.76118e-06
1.75982e-06
1.75805e-06
1.75571e-06
1.75331e-06
1.75057e-06
1.75313e-06
1.75526e-06
1.75749e-06
1.75973e-06
1.76161e-06
1.76307e-06
1.76411e-06
1.76475e-06
1.76499e-06
1.76483e-06
1.76427e-06
1.7633e-06
1.76193e-06
1.76013e-06
1.75786e-06
1.75541e-06
1.75312e-06
1.75535e-06
1.75749e-06
1.75976e-06
1.76194e-06
1.7638e-06
1.76522e-06
1.76624e-06
1.76687e-06
1.7671e-06
1.76694e-06
1.76639e-06
1.76545e-06
1.76411e-06
1.76234e-06
1.76013e-06
1.75763e-06
1.75534e-06
1.75764e-06
1.75973e-06
1.76194e-06
1.76407e-06
1.7659e-06
1.7673e-06
1.7683e-06
1.76892e-06
1.76915e-06
1.76899e-06
1.76845e-06
1.76752e-06
1.7662e-06
1.76446e-06
1.7623e-06
1.75986e-06
1.75764e-06
1.75951e-06
1.76161e-06
1.7638e-06
1.7659e-06
1.76769e-06
1.76908e-06
1.77006e-06
1.77067e-06
1.7709e-06
1.77075e-06
1.77021e-06
1.7693e-06
1.76799e-06
1.76628e-06
1.76415e-06
1.76174e-06
1.7595e-06
1.76095e-06
1.76307e-06
1.76522e-06
1.7673e-06
1.76908e-06
1.77045e-06
1.77142e-06
1.77202e-06
1.77225e-06
1.7721e-06
1.77157e-06
1.77066e-06
1.76938e-06
1.76768e-06
1.76557e-06
1.7632e-06
1.76094e-06
1.76199e-06
1.76411e-06
1.76624e-06
1.7683e-06
1.77006e-06
1.77142e-06
1.77239e-06
1.77298e-06
1.77321e-06
1.77306e-06
1.77253e-06
1.77164e-06
1.77036e-06
1.76868e-06
1.76659e-06
1.76424e-06
1.76198e-06
1.76261e-06
1.76475e-06
1.76686e-06
1.76892e-06
1.77067e-06
1.77202e-06
1.77298e-06
1.77358e-06
1.7738e-06
1.77365e-06
1.77313e-06
1.77224e-06
1.77096e-06
1.76929e-06
1.76721e-06
1.76488e-06
1.76261e-06
1.76286e-06
1.76499e-06
1.7671e-06
1.76915e-06
1.7709e-06
1.77225e-06
1.77321e-06
1.7738e-06
1.77402e-06
1.77387e-06
1.77335e-06
1.77246e-06
1.77119e-06
1.76952e-06
1.76745e-06
1.76512e-06
1.76285e-06
1.76269e-06
1.76483e-06
1.76694e-06
1.76899e-06
1.77075e-06
1.7721e-06
1.77306e-06
1.77365e-06
1.77387e-06
1.77372e-06
1.7732e-06
1.77231e-06
1.77104e-06
1.76937e-06
1.76729e-06
1.76496e-06
1.76268e-06
1.76214e-06
1.76427e-06
1.76639e-06
1.76845e-06
1.77021e-06
1.77157e-06
1.77254e-06
1.77313e-06
1.77335e-06
1.7732e-06
1.77268e-06
1.77178e-06
1.77051e-06
1.76883e-06
1.76674e-06
1.7644e-06
1.76213e-06
1.76118e-06
1.7633e-06
1.76545e-06
1.76752e-06
1.7693e-06
1.77066e-06
1.77164e-06
1.77224e-06
1.77246e-06
1.77231e-06
1.77178e-06
1.77088e-06
1.76959e-06
1.7679e-06
1.7658e-06
1.76343e-06
1.76117e-06
1.75982e-06
1.76193e-06
1.76411e-06
1.7662e-06
1.76799e-06
1.76938e-06
1.77036e-06
1.77096e-06
1.77119e-06
1.77104e-06
1.77051e-06
1.76959e-06
1.7683e-06
1.76658e-06
1.76446e-06
1.76206e-06
1.75981e-06
1.75805e-06
1.76013e-06
1.76234e-06
1.76446e-06
1.76628e-06
1.76768e-06
1.76868e-06
1.76929e-06
1.76952e-06
1.76937e-06
1.76883e-06
1.7679e-06
1.76658e-06
1.76485e-06
1.7627e-06
1.76026e-06
1.75804e-06
1.75571e-06
1.75786e-06
1.76013e-06
1.7623e-06
1.76415e-06
1.76558e-06
1.76659e-06
1.76721e-06
1.76745e-06
1.76729e-06
1.76674e-06
1.7658e-06
1.76446e-06
1.7627e-06
1.76049e-06
1.758e-06
1.7557e-06
1.75331e-06
1.75541e-06
1.75763e-06
1.75986e-06
1.76174e-06
1.7632e-06
1.76424e-06
1.76488e-06
1.76512e-06
1.76496e-06
1.7644e-06
1.76343e-06
1.76206e-06
1.76026e-06
1.758e-06
1.75557e-06
1.7533e-06
1.75057e-06
1.75312e-06
1.75534e-06
1.75763e-06
1.7595e-06
1.76094e-06
1.76198e-06
1.76261e-06
1.76285e-06
1.76268e-06
1.76213e-06
1.76117e-06
1.75981e-06
1.75804e-06
1.7557e-06
1.7533e-06
1.75057e-06
1.70964e-06
1.71199e-06
1.71406e-06
1.71622e-06
1.71796e-06
1.71933e-06
1.72031e-06
1.72091e-06
1.72114e-06
1.72098e-06
1.72045e-06
1.71955e-06
1.71825e-06
1.7166e-06
1.71439e-06
1.71216e-06
1.70963e-06
1.71199e-06
1.71398e-06
1.71606e-06
1.71817e-06
1.71995e-06
1.72134e-06
1.72233e-06
1.72294e-06
1.72317e-06
1.72302e-06
1.72248e-06
1.72156e-06
1.72025e-06
1.71856e-06
1.7164e-06
1.71412e-06
1.71198e-06
1.71406e-06
1.71606e-06
1.7182e-06
1.72027e-06
1.72203e-06
1.7234e-06
1.72438e-06
1.72497e-06
1.7252e-06
1.72505e-06
1.72452e-06
1.72361e-06
1.72233e-06
1.72065e-06
1.71855e-06
1.71619e-06
1.71405e-06
1.71622e-06
1.71817e-06
1.72027e-06
1.7223e-06
1.72404e-06
1.72539e-06
1.72636e-06
1.72695e-06
1.72718e-06
1.72703e-06
1.7265e-06
1.72561e-06
1.72434e-06
1.72267e-06
1.72061e-06
1.7183e-06
1.71621e-06
1.71796e-06
1.71995e-06
1.72203e-06
1.72404e-06
1.72577e-06
1.72711e-06
1.72807e-06
1.72865e-06
1.72888e-06
1.72873e-06
1.72821e-06
1.72732e-06
1.72606e-06
1.72441e-06
1.72237e-06
1.72007e-06
1.71795e-06
1.71933e-06
1.72134e-06
1.7234e-06
1.72539e-06
1.72711e-06
1.72844e-06
1.72939e-06
1.72997e-06
1.73019e-06
1.73004e-06
1.72953e-06
1.72865e-06
1.7274e-06
1.72576e-06
1.72374e-06
1.72146e-06
1.71932e-06
1.72031e-06
1.72233e-06
1.72438e-06
1.72636e-06
1.72807e-06
1.72939e-06
1.73033e-06
1.73091e-06
1.73113e-06
1.73098e-06
1.73047e-06
1.7296e-06
1.72835e-06
1.72672e-06
1.72471e-06
1.72246e-06
1.7203e-06
1.72091e-06
1.72294e-06
1.72497e-06
1.72695e-06
1.72865e-06
1.72997e-06
1.73091e-06
1.73149e-06
1.73171e-06
1.73156e-06
1.73105e-06
1.73018e-06
1.72894e-06
1.72732e-06
1.72531e-06
1.72306e-06
1.7209e-06
1.72114e-06
1.72317e-06
1.7252e-06
1.72718e-06
1.72888e-06
1.73019e-06
1.73113e-06
1.73171e-06
1.73192e-06
1.73178e-06
1.73127e-06
1.7304e-06
1.72916e-06
1.72754e-06
1.72553e-06
1.7233e-06
1.72113e-06
1.72098e-06
1.72302e-06
1.72505e-06
1.72703e-06
1.72873e-06
1.73004e-06
1.73098e-06
1.73156e-06
1.73178e-06
1.73163e-06
1.73112e-06
1.73025e-06
1.72901e-06
1.72739e-06
1.72538e-06
1.72314e-06
1.72097e-06
1.72045e-06
1.72248e-06
1.72452e-06
1.7265e-06
1.72821e-06
1.72953e-06
1.73047e-06
1.73105e-06
1.73127e-06
1.73112e-06
1.73061e-06
1.72974e-06
1.7285e-06
1.72687e-06
1.72485e-06
1.7226e-06
1.72044e-06
1.71955e-06
1.72156e-06
1.72361e-06
1.72561e-06
1.72732e-06
1.72865e-06
1.7296e-06
1.73018e-06
1.7304e-06
1.73025e-06
1.72974e-06
1.72886e-06
1.72761e-06
1.72597e-06
1.72395e-06
1.72168e-06
1.71954e-06
1.71825e-06
1.72025e-06
1.72233e-06
1.72434e-06
1.72606e-06
1.7274e-06
1.72835e-06
1.72894e-06
1.72916e-06
1.72901e-06
1.7285e-06
1.72761e-06
1.72635e-06
1.7247e-06
1.72267e-06
1.72037e-06
1.71824e-06
1.7166e-06
1.71856e-06
1.72065e-06
1.72267e-06
1.72441e-06
1.72576e-06
1.72673e-06
1.72732e-06
1.72754e-06
1.72739e-06
1.72687e-06
1.72597e-06
1.7247e-06
1.72304e-06
1.72099e-06
1.71868e-06
1.71659e-06
1.71439e-06
1.7164e-06
1.71855e-06
1.72061e-06
1.72237e-06
1.72374e-06
1.72471e-06
1.72531e-06
1.72553e-06
1.72538e-06
1.72485e-06
1.72395e-06
1.72267e-06
1.72099e-06
1.71889e-06
1.71653e-06
1.71438e-06
1.71216e-06
1.71412e-06
1.7162e-06
1.7183e-06
1.72007e-06
1.72146e-06
1.72246e-06
1.72307e-06
1.7233e-06
1.72314e-06
1.7226e-06
1.72168e-06
1.72037e-06
1.71868e-06
1.71653e-06
1.71427e-06
1.71215e-06
1.70963e-06
1.71198e-06
1.71405e-06
1.71621e-06
1.71795e-06
1.71932e-06
1.7203e-06
1.7209e-06
1.72113e-06
1.72097e-06
1.72044e-06
1.71954e-06
1.71824e-06
1.71659e-06
1.71438e-06
1.71215e-06
1.70962e-06
1.67163e-06
1.67374e-06
1.67561e-06
1.67758e-06
1.67916e-06
1.68042e-06
1.68132e-06
1.68187e-06
1.68208e-06
1.68194e-06
1.68145e-06
1.68062e-06
1.67943e-06
1.67793e-06
1.6759e-06
1.67389e-06
1.67162e-06
1.67374e-06
1.67554e-06
1.67743e-06
1.67936e-06
1.68099e-06
1.68227e-06
1.68319e-06
1.68375e-06
1.68396e-06
1.68382e-06
1.68332e-06
1.68247e-06
1.68126e-06
1.67971e-06
1.67774e-06
1.67567e-06
1.67373e-06
1.67561e-06
1.67743e-06
1.67939e-06
1.68129e-06
1.68291e-06
1.68417e-06
1.68508e-06
1.68563e-06
1.68584e-06
1.6857e-06
1.68521e-06
1.68437e-06
1.68318e-06
1.68163e-06
1.6797e-06
1.67755e-06
1.6756e-06
1.67758e-06
1.67936e-06
1.68129e-06
1.68316e-06
1.68477e-06
1.68602e-06
1.68692e-06
1.68748e-06
1.68769e-06
1.68754e-06
1.68706e-06
1.68622e-06
1.68504e-06
1.6835e-06
1.6816e-06
1.67948e-06
1.67757e-06
1.67916e-06
1.68099e-06
1.68291e-06
1.68477e-06
1.68638e-06
1.68762e-06
1.68852e-06
1.68907e-06
1.68927e-06
1.68913e-06
1.68865e-06
1.68782e-06
1.68665e-06
1.68511e-06
1.68322e-06
1.6811e-06
1.67915e-06
1.68042e-06
1.68227e-06
1.68417e-06
1.68602e-06
1.68762e-06
1.68886e-06
1.68975e-06
1.6903e-06
1.69051e-06
1.69037e-06
1.68989e-06
1.68906e-06
1.68789e-06
1.68636e-06
1.68448e-06
1.68238e-06
1.68041e-06
1.68132e-06
1.68319e-06
1.68508e-06
1.68692e-06
1.68852e-06
1.68975e-06
1.69064e-06
1.69119e-06
1.69139e-06
1.69125e-06
1.69077e-06
1.68995e-06
1.68878e-06
1.68726e-06
1.68539e-06
1.6833e-06
1.68131e-06
1.68187e-06
1.68375e-06
1.68563e-06
1.68748e-06
1.68907e-06
1.6903e-06
1.69119e-06
1.69173e-06
1.69194e-06
1.6918e-06
1.69132e-06
1.6905e-06
1.68933e-06
1.68781e-06
1.68594e-06
1.68386e-06
1.68186e-06
1.68208e-06
1.68396e-06
1.68584e-06
1.68769e-06
1.68927e-06
1.69051e-06
1.69139e-06
1.69194e-06
1.69214e-06
1.692e-06
1.69152e-06
1.6907e-06
1.68954e-06
1.68802e-06
1.68615e-06
1.68407e-06
1.68207e-06
1.68194e-06
1.68382e-06
1.6857e-06