/*--------------------------------*- C++ -*----------------------------------*\
  =========                 |
  \\      /  F ield         | OpenFOAM: The Open Source CFD Toolbox
   \\    /   O peration     | Website:  https://openfoam.org
    \\  /    A nd           | Version:  6
     \\/     M anipulation  |
\*---------------------------------------------------------------------------*/
FoamFile
{
    version     2.0;
    format      ascii;
    class       volVectorField;
    location    "0";
    object      U_rec;
}
// * * * * * * * * * * * * * * * * * * * * * * * * * * * * * * * * * * * * * //

dimensions      [0 1 -1 0 0 0 0];

internalField   nonuniform List<vector> 
918
(
(0.991238 -0.00116577 0)
(-0.0189392 2.99992 0)
(-0.00093346 1.72912 0)
(0.983905 0.00375297 0)
(-0.0159077 1.68608 5.37113e-17)
(0.0114156 2.99386 -7.1274e-18)
(0.988151 1.45395 7.44665e-18)
(0.491638 0.273625 3.53195e-19)
(1.0024 0.00072356 0)
(0.0345922 1.69596 0)
(-0.0027723 1.68037 0)
(0.917098 0.0032709 0)
(-0.00557888 2.98753 0)
(0.00305369 2.88158 0)
(0.00425218 2.94216 2.23746e-17)
(0.000282675 1.67005 3.27937e-17)
(0.675 0.153092 -9.13447e-18)
(0.206404 1.9518 -3.14851e-17)
(0.989694 0.0139319 0)
(0.00201162 1.68261 0)
(0.0303186 0.0561882 1.07575e-17)
(0.995347 0.00990768 0)
(1.00631 0.00915485 0)
(1.00737 0.00247095 0)
(0.851587 -0.0150032 0)
(0.00867051 2.90917 0)
(-0.00481993 2.93771 -9.39377e-17)
(-0.00237542 1.74045 0)
(0.00633785 1.76449 0)
(-0.0100722 1.74992 0)
(-0.0107596 1.78915 0)
(-0.00602867 1.7061 5.321e-17)
(-0.00966772 1.67016 0)
(0.0225451 3.01028 1.29591e-21)
(0.00967164 3.02505 -6.79513e-17)
(0.0203537 3.01785 0)
(0.954333 0.00389645 0)
(0.421758 0.864349 -1.39923e-17)
(0.958134 1.49677 -1.74286e-17)
(1.08851 1.2658 2.95614e-17)
(0.820838 1.68175 8.12083e-18)
(0.846714 1.64369 1.86875e-17)
(0.523964 0.332892 -6.52041e-20)
(0.556255 0.251124 0)
(1.25982 0.65411 0)
(0.450691 0.336005 -4.79351e-19)
(0.441652 0.251494 1.40093e-18)
(0.952245 -0.00109544 0)
(0.99682 0.00213686 0)
(1.00218 0.00230642 0)
(0.991542 0.00491774 0)
(0.98444 0.00692851 0)
(1.00302 0.0107809 0)
(0.0176751 1.57668 9.30602e-18)
(0.0394212 1.78556 0)
(0.0702451 1.73673 0)
(0.00187269 1.75521 0)
(-0.00522489 1.67326 0)
(-0.00626354 1.66601 0)
(-0.00609464 1.7228 0)
(-0.00993467 1.67772 0)
(-0.00748007 1.72938 0)
(0.000201798 1.68026 0)
(0.98467 0.0153411 0)
(0.951544 0.0112452 0)
(0.933877 -0.000546768 0)
(0.939418 0.0195604 0)
(0.898924 0.0199645 0)
(-0.011823 3.05016 1.6187e-17)
(-0.0111473 2.98328 0)
(-0.0296328 3.04023 0)
(0.0173368 3.03931 -1.401e-22)
(-0.00476366 3.01957 4.7325e-17)
(0.017608 3.01221 0)
(0.00597152 2.95366 0)
(0.00274559 2.96047 -3.14945e-23)
(0.00566752 2.88829 0)
(0.0159538 2.96667 0)
(0.00699716 2.86577 0)
(0.299481 3.25715 0)
(-0.0673394 3.33508 0)
(0.113569 3.00625 1.39196e-18)
(-0.000128957 2.82376 0)
(-0.00187707 1.75311 0)
(-0.00217142 1.71629 3.05409e-17)
(-0.00157684 1.68113 3.30236e-17)
(0.706836 0.1777 -1.07773e-18)
(0.703538 0.110452 5.38725e-18)
(0.688411 0.206204 2.90434e-17)
(0.663656 0.1738 -2.25183e-18)
(0.199246 1.39385 0)
(0.310205 2.02666 -4.49618e-17)
(0.451738 1.96437 -3.01005e-17)
(0.997773 0.00920291 0)
(0.969799 0.0192558 0)
(1.00122 -0.00548527 0)
(1.00213 0.00183189 0)
(1.00551 0.0171979 1.73361e-16)
(1.00167 0.0100163 8.17437e-17)
(-0.00235949 1.72061 0)
(0.00114222 1.68341 0)
(0.0028231 1.75434 0)
(-0.013413 1.72879 0)
(-0.000770968 1.69345 0)
(0.0488181 0.266351 -4.20501e-18)
(0.212769 0.199703 0)
(1.00963 -0.0096939 0)
(0.990118 0.00314989 0)
(0.910143 0.0263021 0)
(0.889446 0.0235228 0)
(0.881578 0.000582443 0)
(1.1087 0.00996411 0)
(0.852225 0.0326596 0)
(0.795811 0.0317408 4.15153e-18)
(-0.0257857 2.87998 1.29589e-17)
(0.00411459 2.97337 0)
(-0.0483183 3.01374 0)
(-0.00260505 2.85667 0)
(-0.00536818 2.98388 -3.92548e-17)
(0.000941227 2.92817 0)
(-0.0109564 2.98654 9.60871e-18)
(-0.0144678 2.94727 1.47787e-17)
(0.00706799 1.76396 0)
(0.00363186 1.75765 0)
(0.00764851 1.71484 1.39957e-20)
(-0.00256018 1.71345 0)
(0.00587968 1.67033 0)
(0.98114 0.00800074 0)
(0.961179 0.00787104 0)
(0.945949 -0.00905521 0)
(0.978605 0.000175452 0)
(0.950211 -0.00860766 0)
(0.477372 1.08065 -3.02249e-19)
(0.584914 1.17738 0)
(0.425336 0.823318 -1.71516e-18)
(0.409392 0.577762 0)
(1.06627 1.29557 1.4308e-17)
(1.16981 1.05491 7.94777e-18)
(0.48548 1.98518 0)
(0.662078 1.85629 0)
(0.674201 1.83159 0)
(0.479676 0.893515 -3.28641e-18)
(0.586182 0.299548 0)
(0.598076 0.234933 -5.66541e-18)
(1.14336 1.09546 0)
(1.20377 0.883802 0)
(1.22327 0.850546 -8.36078e-18)
(1.26934 0.692981 0)
(1.29698 0.499663 -2.70474e-17)
(0.980523 0.00225132 0)
(0.97105 -0.00013209 0)
(0.950972 0.00645299 0)
(0.998677 -0.00239684 0)
(0.979444 -0.00425986 0)
(0.969474 0.00168748 0)
(0.991557 -0.00252652 0)
(0.988677 -0.000794109 0)
(1.00308 -0.00150458 0)
(0.018528 1.58573 2.50568e-17)
(0.0230839 1.53699 0)
(0.0244993 1.62958 -8.40392e-18)
(0.0165377 1.62409 8.42222e-18)
(0.143969 1.95223 -4.28991e-17)
(0.0544109 1.83637 0)
(0.0999577 1.84533 0)
(-0.00628759 1.74752 0)
(0.0026355 1.66958 0)
(-0.00641451 1.70166 5.14915e-20)
(0.00147719 1.66573 0)
(0.000653557 1.7062 -2.89413e-17)
(0.00536361 1.67231 -4.95283e-18)
(0.0022295 1.73984 0)
(-0.00762919 1.72945 0)
(0.000509862 1.67466 0)
(0.000959516 1.72968 0)
(0.00503076 1.68566 0)
(1.0213 0.012471 0)
(0.996416 -0.00519451 0)
(0.998741 0.0129263 0)
(0.974748 0.0076614 0)
(0.939944 0.00427361 0)
(0.965406 0.0095343 0)
(0.963576 0.00247468 0)
(0.937044 -0.00260014 0)
(0.00919711 3.04337 1.12838e-19)
(0.0163982 3.03537 0)
(0.0108591 2.9911 0)
(0.00685388 2.93147 0)
(1.00355 3.7842 0)
(1.34707 2.85004 4.70345e-19)
(0.017564 2.90053 0)
(-0.0179014 2.81179 0)
(0.00277382 1.74871 0)
(-0.00117999 1.74379 0)
(-0.00235347 1.74604 0)
(-0.00921871 1.77901 -7.14878e-17)
(-0.00720528 1.76332 0)
(-0.00192097 1.77067 0)
(0.00902927 1.67419 -6.34336e-17)
(0.00545804 1.71299 -3.34389e-17)
(-0.00836421 1.71392 3.01663e-17)
(-0.00298112 1.67386 0)
(0.740046 0.132914 -2.27014e-17)
(0.723126 0.0662485 -5.5961e-18)
(0.192662 1.39519 0)
(0.262167 1.33577 1.86042e-18)
(0.133422 1.44366 -2.12454e-17)
(0.118268 1.43686 -3.34836e-17)
(0.93529 0.00470182 0)
(0.977421 0.00572737 0)
(0.985005 0.0218038 0)
(0.950901 0.0157508 0)
(0.00505688 1.73059 0)
(0.00661921 1.72444 0)
(0.00556675 1.68728 0)
(0.367401 0.339756 -6.74643e-18)
(0.250788 0.322609 7.30653e-18)
(0.352528 0.224436 0)
(1.20289 0.0995306 -1.23241e-18)
(1.20303 0.0504246 0)
(1.11022 0.0543425 0)
(1.04702 0.00645249 0)
(0.760892 0.0986563 0)
(0.787141 0.0851883 5.6936e-17)
(0.750683 0.0554541 -2.98516e-17)
(-0.0135341 2.96151 -3.92441e-17)
(-0.00902478 2.90773 -5.39206e-17)
(0.00804076 3.0291 2.27122e-19)
(0.0376546 3.01426 -3.99527e-17)
(-0.0172738 2.99708 -4.28375e-19)
(-0.018013 2.97629 1.69066e-21)
(-0.0160015 3.03322 1.50676e-18)
(-0.00365611 2.99322 -1.09881e-17)
(0.057951 3.02142 -2.20027e-17)
(1.00064 0.00553025 0)
(0.994143 0.0109373 0)
(0.972197 0.00516025 0)
(0.970273 0.00577811 0)
(0.970585 -0.00690174 0)
(0.939113 -0.00628902 0)
(0.970254 0.0027651 0)
(0.969318 -0.00324312 0)
(0.94151 -0.00610725 0)
(0.687071 1.37922 8.1256e-18)
(0.805425 1.48038 0)
(0.392732 0.526872 6.04913e-19)
(0.516744 0.788142 -8.50742e-18)
(0.489185 0.757814 -8.35769e-18)
(0.373145 0.473581 -2.37351e-17)
(0.456972 1.1095 -9.96096e-18)
(0.479202 1.06061 1.6445e-17)
(0.664078 0.248878 -1.7959e-17)
(0.618925 0.280813 -5.11537e-18)
(0.627804 0.217637 6.98746e-19)
(1.29907 0.51285 -1.84193e-17)
(1.30345 0.310412 9.31237e-18)
(0.00879566 1.669 -3.45696e-17)
(-0.00065444 1.65162 0)
(1.05828 0.0292986 0)
(1.02662 0.0144306 0)
(1.01658 0.00425283 0)
(0.0134589 3.05051 0)
(0.0122835 2.96654 -4.4322e-17)
(0.0112581 2.97964 0)
(0.00612208 2.90926 -1.0446e-17)
(0.00969406 3.06263 1.16413e-17)
(0.00955371 3.05794 0)
(0.780551 1.73743 -4.7764e-18)
(1.20509 2.37917 -3.84599e-18)
(0.872915 1.84965 -1.99209e-17)
(-0.0268924 2.92698 3.88213e-17)
(-0.0206486 2.89392 0)
(-0.0276959 2.84465 0)
(-0.0116196 1.702 6.29826e-17)
(0.00758943 1.7 3.79045e-18)
(-0.00962523 1.65989 6.28945e-17)
(0.247912 1.34871 -1.91829e-17)
(0.323259 1.30562 -8.64273e-18)
(0.0309751 1.55008 -3.37256e-17)
(0.075301 1.49954 -2.24108e-17)
(0.0536727 1.4932 -5.68285e-17)
(-0.0281166 3.07535 1.3539e-16)
(-0.0140299 3.07203 7.65553e-17)
(0.00436371 2.98663 1.55296e-17)
(-0.00337858 2.98265 -1.47995e-17)
(0.00342297 2.93308 3.94224e-17)
(0.0154787 3.06982 -6.38253e-17)
(-0.00689485 3.05975 -1.42356e-16)
(0.520002 1.01627 0)
(0.549903 0.890128 6.49104e-18)
(0.459475 0.69833 -2.07091e-17)
(0.420158 1.20519 2.36486e-17)
(0.43341 1.17069 3.18877e-17)
(1.28314 0.207001 -5.05052e-18)
(1.31506 0.355805 0)
(1.28355 0.182405 4.73026e-18)
(-0.00449047 1.70126 5.39802e-20)
(-0.00287651 1.68961 0)
(-0.00360094 1.66292 0)
(0.299986 1.31448 2.49904e-18)
(0.357799 1.26122 -2.70394e-17)
(0.386629 1.26303 -3.46922e-17)
(1.00297 -0.0278276 0)
(1.00019 -0.00937598 3.92732e-18)
(0.00239337 1.76672 0)
(-0.0104245 1.78717 0)
(1.0057 -0.00128026 4.45187e-19)
(1.00812 -4.22286e-05 -6.24432e-19)
(-0.00623277 1.77539 -7.06934e-17)
(-0.00357743 1.78175 0)
(-0.0113257 2.98658 1.51027e-17)
(0.341943 3.0675 0)
(1.1258 0.70076 -2.17393e-17)
(1.00134 0.00567377 7.93512e-17)
(1.0016 0.00295132 0)
(1.00934 -0.00526097 3.33031e-19)
(0.02827 1.86658 0)
(0.044765 1.65946 0)
(0.00448175 1.79338 0)
(0.0240544 1.74322 -7.31611e-17)
(0.00216083 1.74702 6.78129e-17)
(0.98594 0.0212622 7.77761e-17)
(1.03139 0.0115724 0)
(1.05443 0.0339684 0)
(0.00814065 1.75575 0)
(0.0118544 1.75668 0)
(-0.0076659 1.77352 0)
(0.174334 1.93539 -8.25262e-17)
(1.00602 -0.0211135 0)
(1.00294 -0.0250729 0)
(1.00138 0.00136795 -2.94857e-17)
(0.993399 -0.00550232 3.66804e-17)
(1.00123 -0.0046713 0)
(0.00426561 1.743 0)
(0.00690563 1.76201 0)
(0.00922523 1.74335 0)
(-0.00306526 1.78003 0)
(-0.0148924 1.7722 0)
(-0.00909225 1.77441 0)
(1.01301 0.00207052 0)
(1.00552 0.00764043 7.95129e-17)
(0.740136 1.36283 3.68646e-18)
(1.00188 -0.00524498 2.98194e-17)
(0.996215 0.00227937 -3.64495e-17)
(1.00696 0.00492688 0)
(0.996459 0.0107574 2.35794e-17)
(1.00331 0.00580745 5.84407e-17)
(0.997585 0.00236338 0)
(0.0113026 1.7671 0)
(-0.000552385 1.77095 -3.69305e-17)
(-0.0031816 1.76863 -3.12876e-17)
(1.1343 0.256695 -7.20038e-17)
(1.08588 0.0849528 0)
(-0.210431 2.98046 3.84865e-17)
(-0.22841 3.18457 1.34891e-18)
(-0.00879239 3.02583 2.81681e-17)
(-0.0243796 2.98441 3.88699e-17)
(0.062608 2.97339 0)
(-0.0266128 3.03325 8.79666e-18)
(-0.0740663 3.12713 1.05865e-17)
(-0.0722422 3.02015 2.39146e-17)
(-0.0532324 3.09982 0)
(0.646977 0.345966 0)
(0.526903 0.384047 0)
(1.06114 0.796342 1.88624e-17)
(1.04894 0.876409 4.69828e-17)
(1.13799 0.620598 0)
(1.14507 0.577247 0)
(1.00672 0.00148586 3.25266e-17)
(1.00841 0.00149948 -3.77215e-17)
(1.00759 0.00438807 0)
(1.01157 0.00298236 0)
(1.01313 0.0035479 0)
(1.01123 0.0143175 0)
(1.01488 -0.00291438 0)
(1.01116 0.0143938 0)
(1.00809 0.0109179 0)
(1.00045 0.00705411 0)
(0.030693 1.85912 0)
(0.00320258 1.85726 0)
(0.0754025 1.88701 0)
(0.0458078 1.90614 0)
(0.0333217 1.63841 0)
(0.0177 1.63137 3.6033e-17)
(0.059829 1.66886 0)
(0.0436759 1.66975 2.76974e-17)
(0.0272814 1.69848 -6.13572e-17)
(-0.00266608 1.79747 0)
(0.00568793 1.79241 0)
(0.0113962 1.80326 0)
(0.00218734 1.82422 0)
(0.0262405 1.76531 -6.76991e-17)
(-0.0161113 1.73974 -4.77177e-17)
(0.0248875 1.7488 3.20087e-17)
(0.00479986 1.75756 0)
(0.0276894 1.75102 3.36695e-17)
(0.0154717 1.75638 -6.4268e-17)
(-0.00713694 1.77913 -1.09304e-16)
(-0.00722514 1.72943 -4.09497e-17)
(0.021051 1.74398 3.99857e-17)
(0.990019 0.0218526 -2.55353e-17)
(0.997181 0.005421 3.39444e-17)
(0.986396 0.0266756 2.95234e-17)
(0.971941 0.0172318 -3.23568e-17)
(1.03106 0.00553554 0)
(1.03621 -0.000768633 0)
(1.04508 0.0312429 0)
(1.03275 0.0162245 0)
(1.04801 0.0155218 0)
(1.07371 0.0698281 0)
(1.06224 0.0551484 0)
(1.07923 0.0410034 0)
(-0.00506769 1.77862 9.3702e-18)
(0.0148456 1.7458 0)
(-0.0164275 1.7584 0)
(0.00691501 1.75749 -1.47322e-17)
(0.0117211 1.76187 5.54094e-20)
(0.00848115 1.77096 4.02843e-17)
(-0.00647092 1.75703 4.25589e-17)
(0.00120981 1.76652 0)
(-0.027886 1.76962 0)
(-0.00564023 1.76316 0)
(0.00178222 1.77696 0)
(-0.00193745 1.78368 0)
(0.300416 1.92934 -4.2973e-17)
(0.314599 1.91417 4.21603e-17)
(0.270268 1.48859 1.23747e-18)
(0.129613 1.55467 2.36772e-17)
(0.207224 1.67799 3.24234e-17)
(1.00122 -0.00799259 0)
(0.998119 -0.0195927 0)
(0.996275 -0.0189744 0)
(1.02055 -0.00462023 0)
(1.00052 -0.0111381 0)
(0.989795 -0.00944484 0)
(0.997364 -0.015043 0)
(0.994543 -0.000907188 0)
(1.00488 0.00477128 -2.67293e-17)
(1.01215 0.000573884 3.65154e-17)
(1.00483 0.00865714 3.08329e-17)
(1.00248 0.00414388 -3.53788e-17)
(0.678301 1.51254 0)
(0.613497 1.59331 -6.4805e-17)
(0.824498 1.29438 7.2123e-17)
(0.892509 1.22996 5.49447e-17)
(0.882918 2.18452 -3.99848e-17)
(0.823801 0.117672 -2.60078e-17)
(1.09652 0.125991 0)
(1.13739 0.191424 -7.48927e-17)
(1.14773 0.137745 6.98595e-19)
(0.952775 0.124935 0)
(-0.0708762 2.7026 3.97623e-17)
(-0.338794 2.62289 8.04137e-17)
(-0.752461 2.68524 -2.2731e-18)
(-0.577525 0.262305 -7.07572e-18)
(0.24313 3.04508 -1.83981e-17)
(0.0854277 3.00373 0)
(0.173853 3.01212 -1.99542e-18)
(0.0440663 2.7186 9.40634e-17)
(0.223415 2.76342 0)
(-0.0193473 3.06326 -9.86273e-19)
(-0.0345212 3.06683 -1.46492e-17)
(-0.0073811 3.1024 -3.8484e-17)
(-0.0279 3.1122 0)
(-0.0496327 3.05514 0)
(1.09629 2.25061 0)
(0.593876 1.02682 5.1471e-17)
(0.992141 1.04839 -3.69343e-17)
(0.949551 1.16003 0)
(0.800404 1.06173 -9.97281e-18)
(1.03221 0.996877 -5.77998e-17)
(0.185567 0.408049 7.69496e-18)
(0.659403 0.344858 1.12922e-17)
(0.693242 0.316265 7.33808e-18)
(0.474697 0.454782 -2.41994e-19)
(0.443777 0.403718 1.40423e-17)
(0.609047 0.390108 0)
(0.605056 0.472508 2.78918e-18)
(0.617225 0.426944 0)
(0.537747 0.419794 0)
(0.588018 0.37136 0)
(0.723069 0.64905 2.52799e-17)
(1.15797 0.325866 4.92557e-17)
(1.15935 0.459126 0)
(1.18524 0.387008 0)
(0.765544 0.232452 1.15032e-17)
(0.741768 0.623922 3.83929e-17)
(0.636462 0.549943 1.90139e-18)
(0.871803 0.434499 -6.49871e-17)
(1.0103 -0.00367083 1.77938e-17)
(1.00876 0.00591565 5.76079e-17)
(1.01044 0.00297322 0)
(1.01122 0.0125963 0)
(1.00626 0.00273992 -1.75987e-17)
(1.0088 0.00141047 -5.47843e-17)
(1.00337 -0.00300148 0)
(0.995107 0.00196925 0)
(1.01457 0.00539963 0)
(1.01116 -0.000804333 0)
(1.01482 0.00726182 0)
(1.01314 0.00234314 0)
(0.0095194 1.85165 0)
(0.0108223 1.84522 0)
(0.0711243 1.86393 -4.39837e-17)
(0.14593 1.93903 -3.42205e-17)
(0.0863703 1.93871 7.89625e-17)
(0.0772594 1.94625 2.27246e-17)
(0.094217 1.86561 0)
(0.11031 1.75182 7.2744e-17)
(0.0817269 1.75396 0)
(0.165872 1.67612 3.81808e-17)
(0.165354 1.607 -4.80429e-17)
(0.114846 1.7822 6.15624e-17)
(0.163319 1.85906 -3.54484e-17)
(0.112905 1.8575 -4.10446e-17)
(0.164793 1.81864 -2.50209e-18)
(0.12875 1.75318 0)
(0.160993 1.73694 -5.4048e-17)
(0.0333837 1.72789 6.97009e-18)
(0.0239501 1.68438 0)
(0.0304846 1.69217 -7.25897e-17)
(0.026445 1.69478 0)
(0.0433188 1.67333 3.50495e-17)
(0.0246569 1.67788 0)
(0.0283402 1.75553 5.37393e-17)
(0.0455514 1.76658 0)
(0.0277524 1.77855 0)
(0.0163008 1.77981 4.62512e-17)
(0.00147784 1.72657 -1.10119e-16)
(0.0328828 1.71613 -7.00226e-17)
(0.00702189 1.73094 -4.08175e-20)
(-0.000563868 1.74749 7.03228e-17)
(-0.0132733 1.77437 -3.78341e-17)
(0.00389675 1.78689 0)
(-0.0105118 1.79177 0)
(0.0295454 1.76575 2.40409e-17)
(0.0207725 1.78853 1.99345e-17)
(0.0324611 1.76997 6.18949e-17)
(0.032067 1.76203 0)
(0.00952097 1.74487 9.88431e-17)
(-0.00138567 1.74859 1.45373e-17)
(0.00742302 1.75665 -1.77085e-17)
(0.00531982 1.76503 7.46341e-17)
(0.018858 1.7273 -2.98019e-18)
(0.00629391 1.73797 -4.48545e-17)
(0.998396 0.0066717 5.62593e-17)
(0.998245 0.00243251 1.84646e-17)
(0.99902 0.00268547 0)
(0.981926 0.0680001 -7.94156e-17)
(0.963297 0.0399755 2.9366e-17)
(0.942078 0.0256091 -2.34623e-17)
(0.979163 0.0983755 3.42188e-18)
(1.02146 0.011078 0)
(1.02677 0.0131327 -5.5218e-17)
(1.03027 0.00846942 -1.86142e-17)
(1.01786 0.0411395 3.74901e-18)
(1.02027 0.0251413 -1.47845e-17)
(0.995161 0.0333139 0)
(0.982356 0.0316351 2.05964e-18)
(0.996806 0.0244751 0)
(0.993197 0.0295044 0)
(1.00422 0.0151497 0)
(1.00019 0.00529609 0)
(0.995074 0.0218918 2.33863e-20)
(0.99528 0.0253965 3.65714e-17)
(1.00731 0.0334501 -1.43601e-18)
(0.984926 0.022903 1.4073e-17)
(0.992023 0.0584952 1.70153e-17)
(1.03501 0.0537703 0)
(1.03526 0.0976656 0)
(0.0206311 1.75691 -4.86075e-17)
(0.0319494 1.73366 -6.80684e-19)
(0.0128597 1.74807 0)
(0.0192957 1.76877 -5.18161e-17)
(0.0103431 1.77741 8.21784e-18)
(0.016073 1.7642 -3.50429e-18)
(0.00682236 1.75552 -7.44048e-17)
(0.0139133 1.75179 -3.66415e-20)
(0.0139643 1.7488 -5.3033e-18)
(-0.0010746 1.75192 3.30027e-17)
(0.0024798 1.75864 3.02001e-17)
(0.0097101 1.76019 -2.16696e-17)
(0.00875654 1.76032 -3.7666e-17)
(0.246847 1.81583 2.0658e-17)
(0.222672 1.7955 -1.3272e-17)
(0.558434 1.71722 -8.2225e-17)
(0.418069 1.87295 3.4178e-17)
(0.466478 1.79069 0)
(0.301118 1.47815 -4.82788e-18)
(0.328681 1.44942 -2.07392e-18)
(0.184936 1.53236 -6.92782e-18)
(0.18422 1.55843 -2.50377e-17)
(0.251136 1.55715 -3.15841e-17)
(0.259582 1.51307 0)
(0.190783 1.53149 -9.1176e-18)
(0.0604295 1.60074 -6.32143e-18)
(0.10756 1.57738 5.81504e-17)
(0.0351528 1.58126 1.50556e-17)
(0.70498 1.47351 -4.05726e-17)
(0.519675 1.42123 0)
(1.02374 -0.00236586 -6.00221e-19)
(1.00532 -0.000649783 5.94283e-19)
(1.01045 0.00314898 -1.24412e-18)
(1.02414 0.00459379 -2.08784e-17)
(1.02488 0.000907724 0)
(0.480243 1.35359 0)
(0.449526 1.2423 0)
(0.671164 1.15922 0)
(0.563811 1.06013 0)
(0.877272 2.19232 2.72225e-17)
(0.826263 1.9655 0)
(0.460619 2.22252 -1.1091e-18)
(0.439578 1.83877 0)
(0.485659 1.93999 7.5547e-17)
(0.527359 1.9983 5.899e-17)
(0.82326 0.150985 0)
(0.807978 0.162709 -2.63529e-18)
(0.892768 0.123012 -2.26211e-18)
(0.833085 0.114718 -2.31267e-17)
(0.834763 0.0920742 1.13436e-17)
(1.00101 0.237521 -1.06918e-17)
(0.885728 0.316424 2.68674e-17)
(0.827316 0.291538 1.43759e-17)
(0.924955 0.227516 2.89643e-18)
(0.900957 0.161353 5.21696e-17)
(0.88648 0.174126 -1.20362e-17)
(0.884132 0.243845 5.48957e-18)
(0.873132 0.210488 0)
(0.943319 0.179526 1.31727e-17)
(0.971989 0.170761 0)
(0.95926 0.23951 0)
(1.04692 0.126109 -1.63388e-17)
(0.990233 0.171912 2.95699e-17)
(0.989152 0.207426 2.24971e-17)
(1.05454 0.212481 0)
(0.997589 0.0308815 -4.34224e-17)
(0.999461 0.034129 1.73546e-17)
(1.00286 0.0387921 -1.57342e-17)
(1.01295 0.0553225 4.79227e-17)
(0.987765 0.0643375 -4.10828e-17)
(0.922322 0.117359 0)
(0.937199 0.0745714 0)
(0.932326 0.0543136 4.78702e-17)
(0.909643 0.0589487 5.84382e-18)
(1.0031 0.112088 -4.64899e-17)
(0.999112 0.142843 -1.20042e-17)
(1.00298 0.148741 -1.97059e-17)
(0.983966 0.154769 0)
(1.0061 0.103642 0)
(1.0044 0.094848 3.87928e-17)
(1.00156 0.0986179 -1.64035e-17)
(0.418973 1.62932 2.15497e-17)
(0.530779 2.19387 -1.57511e-17)
(0.838019 2.48042 2.37666e-17)
(0.980111 2.6855 -3.66418e-18)
(0.959806 2.34374 -1.10833e-17)
(1.06221 2.37523 -1.13608e-19)
(0.998054 2 7.75109e-18)
(0.979143 2.58593 -8.56159e-18)
(0.961685 2.5775 -2.27476e-17)
(1.06596 2.76363 -4.12218e-18)
(1.18984 2.61175 5.22977e-18)
(1.27044 2.51027 0)
(0.57648 1.05313 -2.64372e-18)
(-0.160122 1.36557 -1.73323e-17)
(0.00917545 0.652631 -1.13098e-17)
(-0.127188 0.82774 -2.20538e-17)
(0.365771 0.455645 -1.38678e-17)
(0.381205 0.502608 1.20866e-17)
(0.325812 0.606393 -1.36715e-17)
(0.223949 0.495575 5.19014e-18)
(0.340355 0.400697 -1.3112e-17)
(0.746792 0.269598 2.62412e-17)
(0.703628 0.308721 0)
(0.72933 0.279781 5.78761e-18)
(0.613941 0.556017 -1.43882e-17)
(0.534592 0.531974 2.46124e-17)
(0.428669 0.592193 -5.53223e-18)
(0.513847 0.488922 0)
(0.61886 0.876873 -2.73269e-17)
(0.75944 0.867036 3.90764e-17)
(0.700326 0.998261 5.46895e-17)
(0.795288 0.843796 1.50439e-17)
(0.906862 0.913426 -3.09585e-18)
(0.888385 0.935683 -6.33286e-18)
(0.774874 0.717955 1.31214e-17)
(0.837242 0.751703 7.07489e-18)
(0.94154 0.804596 0)
(0.938333 0.706659 2.77886e-17)
(0.939121 0.331449 4.47879e-17)
(1.06808 0.32644 -2.47571e-17)
(0.985169 0.288727 -5.25309e-17)
(0.909875 0.397942 5.06885e-17)
(0.97873 0.449455 0)
(1.01517 0.424728 0)
(0.780245 0.39501 4.73774e-17)
(0.783736 0.300959 0)
(0.789272 0.296467 -1.79168e-17)
(0.81704 0.318581 6.44948e-17)
(0.827294 0.494806 -1.05411e-16)
(0.768359 0.561478 -6.70485e-18)
(0.792597 0.511576 1.35433e-17)
(0.71948 0.464188 -7.72289e-18)
(0.699965 0.481643 -9.12658e-18)
(0.647431 0.461934 2.57608e-18)
(1.01587 0.0184994 -5.39084e-17)
(1.01181 -0.000125988 0)
(1.01661 0.0163673 3.96125e-18)
(1.01062 0.0224912 3.66678e-19)
(1.0115 0.00889246 -2.92683e-17)
(1.00681 0.0175851 1.67803e-17)
(0.999375 0.00822196 0)
(1.00303 -0.00571876 1.51904e-17)
(1.01341 0.00513735 -8.00661e-18)
(1.01126 0.000961751 5.61907e-19)
(1.0089 0.00244008 5.56945e-18)
(-0.00590358 1.82149 0)
(0.0121837 1.80343 0)
(0.0194396 1.83347 0)
(9.55114e-05 1.83115 0)
(0.0470186 1.81849 -1.19495e-17)
(0.0466746 1.83976 -9.985e-17)
(0.0541186 1.77285 -2.90516e-17)
(0.0596761 1.8416 -8.31518e-17)
(0.0200528 1.78519 5.79828e-17)
(0.0328418 1.80513 5.49145e-17)
(0.0364565 1.81896 1.13484e-16)
(0.0235361 1.82125 5.79691e-17)
(0.0120499 1.80662 1.00851e-17)
(0.00453016 1.81793 1.88178e-18)
(0.0432688 1.69063 -6.16208e-17)
(0.064211 1.69933 0)
(0.0560176 1.71853 -4.02115e-17)
(0.0543022 1.76171 -6.4854e-18)
(0.116264 1.69031 -1.55946e-17)
(0.0824029 1.59962 0)
(0.0809577 1.59842 5.71105e-17)
(0.110418 1.60189 4.22571e-17)
(0.0980166 1.69657 -5.51584e-17)
(0.0841187 1.71268 -7.98101e-17)
(0.047714 1.62816 0)
(0.0272643 1.75293 3.47009e-17)
(0.0217769 1.72507 -1.60784e-17)
(0.0231232 1.74445 0)
(0.0396323 1.73235 1.98907e-17)
(0.0290184 1.73325 1.44575e-17)
(0.00661509 1.77785 8.63026e-18)
(0.000482995 1.7746 -8.91766e-17)
(-0.00729871 1.77021 -6.40237e-17)
(-0.0168516 1.76803 4.21143e-17)
(0.00105293 1.75152 0)
(0.0157213 1.78127 0)
(0.0089932 1.77763 -3.84e-17)
(-2.29308e-05 1.7702 -3.00093e-18)
(0.00743855 1.77937 0)
(-0.00517486 1.7859 3.01929e-17)
(0.00374237 1.77892 3.11594e-18)
(1.00474 0.0275588 0)
(1.00664 0.0313349 1.21606e-18)
(0.996451 0.0182296 4.88159e-17)
(1.01551 0.0201617 0)
(1.01135 0.0172501 0)
(0.997855 0.00039462 2.02306e-17)
(1.00192 0.00800034 -6.26967e-17)
(0.997985 0.00478355 -2.98577e-17)
(1.00043 0.00257139 0)
(1.0083 0.00815742 0)
(0.997181 0.016732 2.09251e-17)
(0.993583 0.0176141 0)
(1.00274 0.0130395 0)
(-0.00437069 1.74892 0)
(0.00994153 1.76781 -3.9114e-17)
(0.0150524 1.74521 3.9834e-17)
(0.00616706 1.76949 0)
(0.00918576 1.77642 -3.76964e-17)
(0.00157719 1.7726 -1.74984e-17)
(-0.00423327 1.77363 0)
(0.304232 1.80453 0)
(0.195822 1.80706 3.11923e-17)
(0.196714 1.7549 0)
(0.227961 1.77977 6.65785e-17)
(0.302907 1.7397 0)
(0.28326 1.80361 3.70933e-17)
(0.733624 1.86539 -1.03159e-19)
(0.709684 1.49049 -1.66428e-17)
(0.761174 1.49717 -3.02444e-17)
(0.551331 1.42475 -9.50591e-18)
(0.501162 1.64352 0)
(0.543519 1.7244 0)
(0.66968 1.45191 0)
(0.626278 1.39635 3.32151e-18)
(0.34351 1.77272 -3.1686e-17)
(0.446651 1.63252 4.76714e-18)
(0.395307 1.80648 1.49626e-18)
(0.395292 1.4435 0)
(0.471414 1.42676 0)
(0.441387 1.42486 2.5252e-18)
(0.438638 1.57221 0)
(0.652205 1.0186 0)
(0.6147 1.00256 -5.18605e-17)
(0.686399 0.941974 -5.1568e-18)
(0.484965 1.12287 0)
(0.621457 1.20652 -7.98708e-17)
(0.721928 1.00363 -6.94242e-18)
(0.743622 1.10867 0)
(0.760973 1.05777 -3.23638e-17)
(0.739714 0.992707 0)
(0.705761 0.989696 0)
(0.784547 2.36263 1.78978e-17)
(0.793413 2.48397 -5.85329e-18)
(0.575019 2.36012 -4.37043e-17)
(0.522635 2.26485 -1.0517e-18)
(0.783071 2.18443 0)
(0.724895 2.15033 -6.86511e-18)
(0.787841 1.97899 -1.00126e-18)
(0.80233 1.78523 -7.22786e-18)
(0.310973 2.00457 0)
(0.283722 1.55274 3.23829e-17)
(0.331114 1.55047 0)
(0.841566 0.203521 0)
(0.800422 0.195763 0)
(0.778269 0.19747 0)
(0.835568 0.245237 -4.3256e-19)
(0.775603 0.227066 1.01452e-18)
(0.911382 0.0863003 1.73186e-17)
(0.900854 0.119197 0)
(0.880641 0.0964718 -2.69462e-18)
(0.851933 0.0874297 -1.23549e-17)
(0.86762 0.0628543 1.55645e-19)
(1.08393 2.88278 -1.91259e-17)
(1.02278 2.80938 0)
(0.986024 2.92152 -5.80989e-17)
(0.647151 3.12731 -2.15994e-17)
(0.797694 2.6402 1.62903e-17)
(0.598474 1.20064 -3.0174e-17)
(0.675202 1.10225 0)
(0.367118 0.851536 7.64995e-18)
(0.366203 0.947986 3.08572e-17)
(0.215591 0.858111 1.12187e-17)
(0.292715 0.647817 2.94696e-18)
(0.497077 0.617855 -1.2894e-17)
(0.550796 0.642186 0)
(0.500048 0.790261 0)
(0.37857 0.762873 0)
(0.933654 0.667488 7.13836e-18)
(0.832556 0.588784 1.35853e-17)
(0.826723 0.626608 -8.70793e-18)
(0.856848 0.535557 2.46058e-17)
(0.958714 0.542133 0)
(0.956908 0.589963 -8.27019e-18)
(0.750511 0.429165 1.84528e-17)
(0.76627 0.38618 3.52044e-17)
(0.688865 0.410684 -1.05265e-17)
(0.687508 0.397907 8.51568e-18)
(0.756646 0.357074 -3.18474e-18)
(0.716192 0.346839 -2.21008e-17)
(1.01414 0.00052991 -2.88379e-17)
(1.01367 -0.00457565 -4.80819e-17)
(1.01904 0.0157651 2.53991e-17)
(1.01295 0.0172904 5.89229e-17)
(0.998599 0.0250817 0)
(0.99275 0.00688535 4.37537e-18)
(0.0539018 1.76716 2.40642e-17)
(0.0522244 1.78028 0)
(0.0498282 1.75916 -4.97668e-17)
(0.0477801 1.7589 -4.83268e-17)
(0.0417183 1.77852 -3.71036e-17)
(0.043007 1.79144 0)
(0.026731 1.77277 0)
(0.0107315 1.76713 -1.76965e-17)
(0.00410987 1.7576 -1.90568e-17)
(-0.00342977 1.76845 -4.64075e-17)
(-0.0104624 1.75339 -8.7103e-18)
(0.025942 1.75802 -4.40508e-18)
(0.296398 1.88132 -9.58334e-17)
(0.276404 1.85866 -1.30147e-16)
(0.256818 1.78127 7.72021e-17)
(0.264062 1.84959 -5.03053e-18)
(0.413855 1.47098 0)
(0.341028 1.69844 7.70999e-17)
(0.381554 1.57404 5.79153e-17)
(0.251798 1.69926 5.76428e-17)
(0.276187 1.6964 0)
(0.307464 1.53883 0)
(0.341478 1.70828 -5.11712e-17)
(0.346044 1.53348 -7.09364e-17)
(0.393171 1.57164 -4.57452e-17)
(0.315078 1.53367 -1.1061e-18)
(0.27868 1.65818 -2.23183e-19)
(0.248328 1.55294 -1.29055e-17)
(0.753212 1.59835 -4.48772e-18)
(0.795175 1.74654 0)
(0.799529 1.60932 1.03639e-17)
(0.753795 2.01671 0)
(0.727467 1.95682 0)
(0.746504 2.04351 2.9286e-18)
(0.955688 2.63232 2.32747e-18)
(0.863855 2.5683 -6.43282e-18)
(0.246862 1.19717 0)
(0.348297 1.20328 -1.13936e-17)
(0.630335 1.14879 -2.94869e-17)
(0.553239 1.88047 0)
(0.473154 2.35694 2.93643e-18)
(0.262948 2.27417 0)
(0.649782 0.827356 -4.37148e-18)
(0.674526 0.812281 -5.80298e-17)
(0.685952 0.760989 -8.61877e-18)
(0.540868 0.79383 -5.87312e-19)
(0.592184 0.699795 6.00567e-18)
(0.892631 2.43815 -1.36417e-17)
(0.910105 2.48865 -6.07217e-19)
(0.823337 2.09718 -1.02482e-20)
(0.8141 1.87174 3.33573e-17)
(0.739845 2.06797 4.50644e-17)
(0.86499 2.28331 -2.68019e-17)
(0.763861 2.36667 -2.49117e-17)
(0.832951 1.89385 1.57442e-19)
(0.722912 1.82235 2.70676e-17)
)
;

boundaryField
{
    wall-4
    {
        type            calculated;
        value           uniform (0 0 0);
    }
    velocity-inlet-5
    {
        type            calculated;
        value           uniform (1 0 0);
    }
    velocity-inlet-6
    {
        type            calculated;
        value           uniform (0 3 0);
    }
    pressure-outlet-7
    {
        type            calculated;
        value           nonuniform List<vector> 8((-0.00149557 1.72917 0) (-0.0159785 1.68578 5.37113e-17) (0.00642061 1.76499 0) (-0.0097308 1.78928 0) (-0.001801 1.75275 0) (0.00407673 1.7574 0) (-0.0022898 1.74569 0) (-0.00187177 1.77053 0));
    }
    wall-8
    {
        type            calculated;
        value           uniform (0 0 0);
    }
    frontAndBackPlanes
    {
        type            empty;
    }
}

