/*--------------------------------*- C++ -*----------------------------------*\
  =========                 |
  \\      /  F ield         | OpenFOAM: The Open Source CFD Toolbox
   \\    /   O peration     | Website:  https://openfoam.org
    \\  /    A nd           | Version:  6
     \\/     M anipulation  |
\*---------------------------------------------------------------------------*/
FoamFile
{
    version     2.0;
    format      ascii;
    class       volVectorField;
    location    "0";
    object      U;
}
// * * * * * * * * * * * * * * * * * * * * * * * * * * * * * * * * * * * * * //

dimensions      [0 1 -1 0 0 0 0];

internalField   nonuniform List<vector> 
13046
(
(-0.63101 0.293448 0)
(-0.69682 -0.196609 -7.0123e-21)
(-0.160915 -0.096155 -1.46968e-20)
(-0.570115 0.172603 0)
(-0.151755 -0.00355852 -1.35148e-20)
(-0.566811 -0.205878 0)
(-0.645083 0.208403 2.06255e-21)
(-0.643554 -0.25885 3.54166e-21)
(-0.1205 0.00929235 -1.46966e-20)
(-1.52361 0.715438 4.10441e-21)
(-1.57734 -0.685004 0)
(0.0827015 -0.0104599 8.90844e-21)
(-0.838683 0.367547 -6.49222e-21)
(-0.865391 -0.308636 -1.06287e-20)
(-0.0670955 -0.058578 7.80662e-21)
(-1.45094 0.800986 -6.01686e-21)
(0.0453462 -0.0231477 2.14548e-20)
(-1.61597 -0.56232 3.53276e-21)
(-0.286002 0.10258 0)
(-0.387859 -0.169505 -7.47962e-21)
(-0.511497 0.0320575 2.17678e-20)
(-1.46794 0.790375 -2.30934e-21)
(0.0583835 -0.0173914 -2.86381e-20)
(-1.60857 -0.588506 0)
(-0.507666 0.184532 8.5992e-21)
(-0.55817 -0.147781 -1.72866e-20)
(-0.186388 -0.0654414 0)
(-0.856751 0.410576 -1.15882e-20)
(-0.905287 -0.306926 3.13194e-21)
(-0.0723438 -0.0769619 -1.37007e-20)
(-0.652361 0.322519 0)
(-0.732612 -0.179061 0)
(-0.176171 -0.120801 1.49588e-20)
(-0.439978 0.138919 -9.98791e-21)
(-0.218316 -0.0635859 5.11383e-21)
(-0.494764 -0.10697 3.01209e-20)
(-0.423201 0.107787 -1.54563e-20)
(-0.229069 -0.0354257 7.82999e-21)
(-0.454903 -0.102583 -1.5441e-20)
(-0.518936 0.310752 1.05465e-20)
(-0.40215 -0.278832 2.69281e-21)
(-0.74107 -0.0518261 -1.05829e-20)
(-0.376722 0.0164537 7.00576e-21)
(-0.295997 0.00443789 1.18372e-20)
(-0.34984 -0.0589053 0)
(-0.417503 0.0289071 4.47643e-21)
(-0.270711 0.0324351 -1.82148e-20)
(-0.361438 -0.0950783 -2.27527e-21)
(-0.662311 0.287439 0)
(-0.711402 -0.22704 -4.99345e-22)
(-0.121349 -0.0711811 -7.50891e-23)
(-0.679399 -0.474598 1.66477e-20)
(-0.44252 0.320405 0)
(-0.900965 0.0614159 -1.24585e-20)
(-0.775186 -0.534039 -2.37387e-20)
(-0.956578 0.101282 -1.97192e-20)
(-0.387186 0.288271 1.58083e-20)
(-1.35896 -0.324408 -2.11298e-21)
(-1.18707 0.760913 0)
(-0.163129 -0.169512 1.20353e-20)
(-1.12406 0.398954 -6.07793e-21)
(-1.09726 -0.544705 5.98062e-21)
(-0.0108694 0.0371658 -3.23211e-20)
(0.0749992 -0.0176516 1.65147e-20)
(-1.4856 -0.628195 -3.10356e-21)
(-1.44656 0.666471 -8.17928e-21)
(-1.11971 0.7458 0)
(-1.28908 -0.264778 0)
(-0.228078 -0.221262 0)
(-1.06071 0.705985 -4.34937e-21)
(-1.22952 -0.24212 0)
(-0.249321 -0.234894 9.64945e-21)
(-1.42349 -0.34085 0)
(-1.24097 0.794494 1.67042e-22)
(-0.143855 -0.161459 -6.66086e-23)
(-0.319365 0.133498 0)
(-0.381489 -0.189582 8.05041e-21)
(-0.548323 0.00595768 -1.54905e-20)
(-0.0668371 -0.102806 1.31675e-20)
(-1.31788 0.814477 -1.2163e-20)
(-1.50139 -0.414548 0)
(-0.555103 0.201986 4.52194e-21)
(-0.586665 -0.178048 0)
(-0.156437 -0.042041 0)
(0.0786208 -0.0161844 -1.47613e-20)
(-1.52429 -0.64144 -2.16667e-21)
(-1.48113 0.691799 4.79636e-21)
(-1.49669 0.549998 -8.63829e-21)
(0.0577756 0.00821173 0)
(-1.42621 -0.739387 -2.47266e-21)
(-0.0207094 0.0432983 0)
(-1.58377 0.443983 0)
(-1.39501 -0.86481 3.00705e-22)
(-1.16898 0.555576 0)
(-1.2343 0.57009 5.15731e-21)
(-1.22005 -0.470525 1.13339e-20)
(-1.27556 -0.518237 -5.28972e-21)
(0.0143389 -0.0456869 -6.90039e-21)
(0.0360452 -0.029842 1.77942e-20)
(0.0391754 0.018302 -8.31228e-22)
(-1.48457 0.518608 8.45414e-21)
(-1.39605 -0.758749 0)
(-0.455192 0.0651627 -3.47956e-23)
(-0.23735 0.0298988 9.4261e-21)
(-0.409044 -0.133091 0)
(-0.269173 0.202621 0)
(-0.864982 0.143506 -6.21244e-21)
(-0.742588 -0.456082 0)
(-0.428654 0.293378 1.80288e-20)
(-0.586587 -0.392559 0)
(-0.809243 0.0314228 -2.39335e-20)
(-1.43833 0.694835 0)
(0.0655395 -0.0100432 0)
(-1.47627 -0.684667 -7.16682e-22)
(-0.758089 0.327023 1.7933e-20)
(-0.798271 -0.272847 4.60341e-21)
(-0.0846003 -0.052812 1.43773e-20)
(-1.24936 0.651852 6.61852e-21)
(-1.18151 0.60248 -1.25767e-20)
(-1.3343 -0.468385 -9.50827e-21)
(0.00287109 -0.0627918 7.95014e-21)
(-1.25343 -0.443521 5.55167e-21)
(-0.00408073 -0.0640167 -7.42614e-21)
(-1.5102 0.729256 -2.65324e-21)
(-1.57886 -0.679437 -2.6083e-21)
(0.0793504 -0.00811882 -3.98067e-21)
(-1.02668 0.497409 0)
(-1.0749 -0.391053 -7.87038e-21)
(-0.0270632 -0.0692018 1.65484e-20)
(-0.58172 0.340846 0)
(-0.341514 -0.246057 -1.35694e-20)
(-0.759698 -0.0924088 5.86655e-22)
(-0.038783 0.0593997 0)
(-1.53353 0.420075 0)
(-1.36358 -0.841544 0)
(-1.35071 0.581248 0)
(-1.36229 -0.608747 -1.37752e-20)
(0.0607371 -0.0093138 -1.88752e-20)
(-0.724743 0.359039 0)
(-0.796555 -0.2135 0)
(-0.155849 -0.127031 0)
(-0.845287 0.256807 0)
(-0.814569 -0.404357 0)
(-0.0979239 0.062193 0)
(-0.398095 0.282188 0)
(-0.654602 -0.435162 0)
(-0.84606 0.0639355 1.28999e-20)
(-0.26426 0.186931 -1.85984e-21)
(-0.827397 0.137651 -1.35561e-20)
(-0.717198 -0.429019 1.50023e-20)
(-1.1815 0.431909 1.36512e-20)
(-1.15257 -0.564667 0)
(0.0111999 0.0218074 4.19625e-20)
(-0.201221 0.1171 0)
(-0.714383 0.144198 1.47464e-20)
(-0.632486 -0.336252 -3.85314e-21)
(-0.939176 -0.61158 0)
(-1.06598 0.199984 1.39397e-20)
(-1.0196 -0.644525 0)
(-1.1327 0.250249 7.97604e-21)
(-0.256019 0.210891 0)
(-0.193952 0.170348 0)
(-0.873822 0.212284 1.87349e-21)
(-0.802433 -0.445516 7.87444e-21)
(-0.152225 0.110636 -8.09068e-21)
(-1.55184 0.69181 -4.2044e-21)
(0.0849523 -0.0125422 0)
(-1.54725 -0.715407 -4.32279e-21)
(-1.47003 0.711037 -2.00866e-21)
(0.0712327 -0.00669347 -1.82295e-21)
(-1.53074 -0.680872 0)
(-1.3747 0.613371 -7.16365e-21)
(-1.39627 -0.60715 0)
(0.0654299 -0.0153765 2.14537e-20)
(-0.706589 0.449123 0)
(-0.892302 -0.113714 3.26842e-21)
(-0.371959 -0.292608 7.82072e-21)
(-0.82489 0.183906 1.22991e-20)
(-0.186722 0.136254 3.91573e-21)
(-0.746961 -0.412684 0)
(0.0806112 -0.0116085 0)
(-1.51849 -0.761041 0)
(-1.57942 0.633691 3.35466e-21)
(-0.642456 0.406291 0)
(-0.838979 -0.0879842 -7.20697e-21)
(-0.388159 -0.285521 2.0429e-21)
(-0.207451 0.135119 0)
(-0.739987 0.142116 0)
(-0.649698 -0.358491 0)
(-0.783184 0.221728 6.10598e-21)
(-0.752877 -0.369826 0)
(-0.110144 0.0583853 0)
(-0.94691 -0.375904 -3.12086e-23)
(-0.0313432 -0.033086 -9.71445e-21)
(-0.970147 0.456436 1.83453e-20)
(-1.01767 -0.367329 0)
(-0.0358908 -0.0626437 -2.07378e-20)
(-1.51454 0.625509 -8.49737e-21)
(0.0791344 -0.00668759 1.33382e-20)
(-1.49293 -0.71065 -1.0931e-20)
(-0.00926489 0.0476355 1.21192e-20)
(-1.48142 0.449726 5.50082e-21)
(-1.35513 -0.795013 1.25186e-20)
(-1.5685 0.503559 -1.37694e-20)
(-1.43227 -0.810814 0)
(0.0289145 0.0191104 -1.18989e-20)
(-0.726724 -0.535811 -8.434e-22)
(-0.988027 0.0494424 5.49087e-21)
(-0.523886 0.400511 0)
(-0.787185 0.285116 -2.73915e-20)
(-1.29812 0.828771 6.4073e-21)
(-0.0958487 -0.120306 -8.12148e-21)
(-1.50204 -0.40009 0)
(-1.45576 -0.81743 0)
(-1.59202 0.541412 -1.12012e-20)
(0.0446685 0.00532134 0)
(-0.463618 0.105945 -2.25524e-20)
(-0.208125 -0.000316255 -7.68917e-21)
(-0.457442 -0.139809 2.26498e-20)
(-0.822486 0.416393 0)
(-0.887641 -0.27567 -4.54058e-22)
(-0.110048 -0.101286 -7.98795e-21)
(-0.0324876 0.0600473 9.29551e-21)
(-1.48999 0.429997 0)
(-1.34405 -0.817028 -1.44351e-20)
(-0.85307 0.322028 2.18694e-20)
(-0.921794 -0.384968 1.91501e-20)
(-0.0343171 -0.017005 0)
(0.0791187 -0.0159623 0)
(-1.50893 -0.729786 2.54588e-21)
(-1.54217 0.681625 0)
(-0.461484 0.355887 0)
(-1.0103 0.0786309 0)
(-0.78503 -0.575664 0)
(-1.52204 0.493321 1.20704e-20)
(-1.40407 -0.785433 0)
(0.0250862 0.0243099 -5.82613e-23)
(-0.996846 0.231401 5.33938e-21)
(-0.910809 -0.543109 -5.88949e-21)
(-0.165508 0.139799 0)
(-1.02503 0.524684 0)
(-1.08736 -0.371547 7.37043e-21)
(-0.0476652 -0.0854398 1.30386e-20)
(-1.23587 -0.814954 -1.92227e-20)
(-1.40011 0.318973 -1.02449e-20)
(-0.14358 0.13954 7.30013e-21)
(-1.20857 0.264137 0)
(-1.08355 -0.695916 -7.94132e-21)
(-0.191285 0.170131 -2.67308e-22)
(0.0747067 -0.020772 -1.16532e-20)
(-1.47987 -0.743168 0)
(-1.55176 0.659941 -1.4748e-21)
(-0.539017 0.362263 9.63824e-21)
(-0.519404 -0.36697 -9.82462e-21)
(-0.836692 -0.0223628 1.03834e-21)
(-1.33913 0.736592 1.57207e-21)
(0.0553231 0.00623297 -1.71238e-20)
(-1.51027 -0.600952 0)
(-0.238686 0.0707219 -4.49455e-21)
(-0.514983 0.0649949 -1.75912e-20)
(-0.431514 -0.180831 2.24286e-20)
(-1.01937 0.294422 6.18872e-21)
(-0.966453 0.245028 2.11837e-23)
(-0.961943 -0.524002 -1.4428e-20)
(-0.89277 -0.512751 0)
(-0.14011 0.117855 7.35537e-21)
(-0.08448 0.083419 -7.60083e-21)
(-0.0378583 -0.0798182 -1.72334e-20)
(-1.35669 0.821654 6.60329e-21)
(-1.55292 -0.439491 -9.43601e-21)
(-0.964334 0.508795 0)
(-1.03648 -0.323483 0)
(-0.0905673 -0.109545 -1.71234e-20)
(-1.28242 0.30638 -2.76322e-21)
(-1.14944 -0.737608 0)
(-0.150171 0.143396 0)
(-1.30735 0.623874 -6.31152e-21)
(-1.35569 -0.535037 0)
(0.0443438 -0.0339286 7.80364e-21)
(-0.351417 0.0367269 4.69514e-21)
(-0.375792 -0.0397915 6.88738e-21)
(-0.29566 -0.0250025 -2.3456e-21)
(-1.1058 0.27042 -1.0162e-20)
(-1.01372 -0.612065 0)
(-0.147259 0.13784 -1.25156e-20)
(-0.981244 0.538528 0)
(-1.06739 -0.314694 9.16635e-21)
(-0.107403 -0.12589 -1.09521e-20)
(-0.894262 0.364437 0)
(-0.964088 0.399245 2.15098e-21)
(-0.559288 0.383037 3.46172e-21)
(-0.541112 -0.390522 2.84413e-20)
(-0.865864 -0.0155209 -2.47901e-20)
(-1.16431 0.313582 -1.02686e-20)
(-1.07286 -0.635468 1.20854e-20)
(-0.0999866 0.10705 1.14177e-20)
(-1.35107 0.633752 0)
(0.0575824 -0.0256065 -2.76177e-20)
(-1.40123 -0.570746 -6.50885e-21)
(-0.424958 0.272379 -2.49436e-20)
(-0.542869 -0.36403 0)
(-0.773642 0.0298083 8.09817e-21)
(-0.292213 0.240524 -1.46248e-20)
(-1.08813 0.185388 -8.01578e-21)
(-0.945724 -0.641694 0)
(-1.15843 0.647919 -6.44069e-21)
(-1.26336 -0.380187 -7.70952e-21)
(-0.0672708 -0.106458 4.92745e-21)
(-0.501348 0.361252 1.24896e-21)
(-0.640575 -0.4562 0)
(-0.903873 0.0366606 1.7266e-20)
(-1.21498 0.684102 0)
(-1.25433 0.688871 0)
(-1.33146 -0.409516 -4.779e-21)
(-0.0509131 -0.0970887 -1.2809e-20)
(-1.36344 -0.45105 6.7577e-21)
(-0.0183859 -0.0749909 1.36012e-20)
(0.0839302 -0.0107584 -1.02894e-20)
(-1.5238 -0.733874 0)
(-1.55823 0.654958 -5.46579e-21)
(-1.11796 0.582613 7.51551e-21)
(-1.19165 -0.40626 0)
(-0.0320744 -0.0805926 4.438e-21)
(-1.33079 -0.648261 -1.229e-22)
(0.0443592 -0.0102985 1.49274e-20)
(-1.28934 0.664175 4.1334e-22)
(-0.630823 0.0951471 -8.14221e-21)
(-0.235475 0.118216 0)
(-0.534182 -0.273964 0)
(-1.04376 0.37207 1.44509e-20)
(-1.02668 -0.493054 0)
(-0.0187649 0.0281993 2.49256e-20)
(0.0762246 -0.00804809 -8.50891e-21)
(-1.46854 0.618253 1.77e-20)
(-1.45965 -0.675837 8.74749e-21)
(-0.81151 -0.565361 0)
(-0.992391 0.108313 7.23211e-21)
(-0.387726 0.305404 -1.79126e-20)
(-1.27478 -0.821004 -2.27517e-20)
(-1.43694 0.358546 -6.08323e-21)
(-0.099367 0.105424 0)
(-0.819108 -0.337151 -1.96681e-20)
(-0.0615868 -0.00751658 0)
(-1.09674 0.450768 1.53299e-20)
(-1.09178 -0.476399 6.68478e-21)
(0.0111452 -0.0142256 7.60566e-21)
(-0.806044 -0.358401 1.14729e-20)
(-0.0659785 0.0124486 -2.09377e-23)
(-1.43519 0.788914 -4.06903e-22)
(0.0360828 -0.0325611 1.01394e-20)
(-1.58878 -0.541152 -5.19682e-21)
(-0.707526 -0.549506 0)
(-1.01532 0.0281878 1.71535e-21)
(-0.58314 0.445654 0)
(-1.15688 0.481868 -1.56341e-20)
(-1.16819 -0.508929 -8.1469e-21)
(0.0253527 -0.00884501 -9.1964e-21)
(-0.87227 0.25024 0)
(-0.824191 -0.434325 -1.14362e-20)
(-0.112013 0.0802606 0)
(-0.869249 0.111521 0)
(-0.713107 -0.467562 0)
(-0.332699 0.23762 0)
(-0.629351 0.24851 -6.25959e-21)
(-0.657822 -0.216033 -1.09852e-20)
(-0.128988 -0.0509427 2.27169e-23)
(-0.342132 0.277333 1.8133e-20)
(-1.05519 0.151285 1.93288e-20)
(-0.895011 -0.617409 1.16398e-20)
(-1.54072 0.584174 -6.87035e-21)
(-1.46817 -0.745075 9.18497e-21)
(0.069859 -0.000936752 -1.25756e-20)
(-1.28559 -0.79695 1.54931e-20)
(-1.42249 0.380005 6.16822e-21)
(-0.0706223 0.0886795 9.37053e-21)
(-0.933553 0.636909 -1.35379e-20)
(-0.345362 -0.296062 1.45337e-20)
(-1.12378 -0.1755 -1.08288e-20)
(-1.28873 0.762036 3.60967e-21)
(-1.24216 0.732921 -3.41472e-21)
(-1.38153 -0.394092 -1.5146e-21)
(-1.43806 -0.415232 0)
(-0.0575071 -0.0984012 -4.66958e-21)
(-0.0751026 -0.112725 -4.15758e-21)
(0.0504833 -0.00451568 -2.02195e-20)
(-1.38695 -0.633979 1.35471e-22)
(-1.31197 0.675116 1.25571e-21)
(-1.36323 0.751189 -1.37947e-22)
(0.0584972 0.00784696 2.36914e-20)
(-1.54888 -0.5979 0)
(-1.09174 0.326944 -2.31524e-20)
(-1.03794 -0.561825 -3.14948e-21)
(-0.0696736 0.080437 0)
(0.082932 -0.00941425 -2.56883e-20)
(-1.53166 0.647862 5.44132e-21)
(-1.51757 -0.707712 0)
(-1.06459 0.665057 1.91424e-20)
(-1.12272 0.684965 -1.42492e-20)
(-1.20554 -0.288644 8.34717e-21)
(-1.25526 -0.322028 3.15421e-21)
(-0.187223 -0.186056 -8.24036e-21)
(-0.142254 -0.155034 -4.1216e-21)
(0.0451561 -0.00939171 0)
(-1.44861 -0.842208 0)
(-1.64534 0.527841 1.77511e-21)
(-1.25503 0.726201 -1.84499e-21)
(0.0487601 0.0101344 0)
(-1.47342 -0.575469 0)
(-0.467601 -0.0172776 -2.57859e-23)
(-0.328434 0.098699 9.98948e-21)
(-0.313925 -0.116818 4.98128e-21)
(-1.36816 0.70136 -2.1657e-21)
(-1.46871 -0.653413 1.04839e-21)
(0.0581648 -0.00327607 1.11003e-21)
(-0.791035 0.481798 0)
(-0.932106 -0.168885 -1.4873e-20)
(-0.287835 -0.239406 -8.09236e-23)
(-1.58388 0.61661 2.2782e-22)
(-1.50291 -0.776539 1.16533e-20)
(0.0753888 -0.00932803 1.9304e-23)
(-1.18138 -0.66097 8.83241e-24)
(0.0362475 -0.025679 -8.59506e-21)
(-1.25576 0.566171 6.65979e-22)
(-0.451713 0.26492 -9.13338e-21)
(-0.416075 -0.267498 8.73366e-21)
(-0.694249 -0.0236314 2.59665e-20)
(-0.563569 0.105375 0)
(-0.504673 -0.219558 -2.4883e-20)
(-0.201379 0.0639589 1.24232e-20)
(-1.48881 0.754934 0)
(0.0748186 -0.00544684 1.18826e-20)
(-1.59207 -0.659744 -1.95767e-22)
(-0.605659 0.121336 0)
(-0.542126 -0.249047 -8.64428e-21)
(-0.191476 0.0823858 -1.75992e-20)
(-0.434201 -0.0124814 1.03842e-20)
(-0.318021 0.0712215 -5.28555e-21)
(-0.314362 -0.0919758 2.63957e-21)
(-0.43983 0.350553 8.71691e-21)
(-1.07241 0.107537 -6.73294e-21)
(-0.866597 -0.640236 1.28166e-20)
(-0.577467 0.028864 0)
(-0.425284 -0.21559 0)
(-0.30107 0.152163 1.46092e-21)
(-0.622448 0.0734171 1.28877e-20)
(-0.496493 -0.255711 6.60545e-21)
(-0.27433 0.147449 2.06395e-22)
(-0.871655 0.602332 2.05969e-20)
(-1.07178 -0.142669 -1.10383e-20)
(-0.399624 -0.337628 -1.43451e-20)
(0.0764442 -0.0127852 1.80143e-20)
(0.0816744 -0.0119395 -1.82572e-20)
(-1.59033 -0.647469 3.0775e-21)
(-1.57632 -0.667713 2.25495e-21)
(-1.49964 0.748536 0)
(-1.51587 0.734043 -4.20307e-21)
(-1.56986 0.583955 8.62013e-21)
(-1.48368 -0.765671 -7.57561e-21)
(0.0696587 -0.00229754 1.55989e-20)
(-0.33154 -0.297034 -9.28336e-21)
(-0.99263 0.689563 4.18809e-21)
(-1.18285 -0.191138 1.3798e-20)
(-0.571048 0.366472 -8.80089e-21)
(-0.449086 -0.321486 -8.98777e-21)
(-0.816116 -0.0510695 8.01465e-21)
(-1.22427 0.231121 0)
(-1.07301 -0.726069 8.2192e-21)
(-0.246679 0.209389 2.7621e-22)
(-1.28501 -0.73683 1.82912e-21)
(0.0536679 -0.0379894 -7.97288e-21)
(-1.46615 0.571491 -4.11843e-22)
(0.00485774 0.0268704 0)
(-1.59742 0.476018 0)
(-1.41306 -0.85823 5.30244e-21)
(-1.50443 0.703096 2.77678e-21)
(0.0770324 -0.0108756 0)
(-1.54054 -0.703298 -2.50071e-21)
(0.0293082 -0.0210123 -3.20182e-32)
(-1.11834 -0.63044 9.22975e-22)
(-1.16884 0.551503 -1.06416e-21)
(-1.17685 -0.560794 -1.06719e-21)
(0.0285282 -0.00764457 3.19413e-32)
(-1.1117 0.62134 9.19464e-22)
(-1.19223 -0.646922 -1.62109e-20)
(-1.25707 0.406061 0)
(-0.0216448 0.0565797 -2.42735e-20)
(-1.41347 -0.816134 -1.37892e-21)
(0.0567253 -0.0302373 -8.13723e-21)
(-1.63588 0.554825 0)
(-1.38459 0.571252 -9.33045e-21)
(-1.37205 -0.643918 8.46867e-21)
(0.0617608 -0.00202483 1.25877e-20)
(-1.42955 0.831064 1.12939e-20)
(0.0385936 -0.0110061 7.23992e-21)
(-1.6634 -0.539013 0)
(-0.745754 0.293871 4.85242e-21)
(-0.0785167 -0.0223441 -4.91469e-21)
(-0.780283 -0.301079 4.77548e-21)
(-1.44387 -0.851705 2.62173e-21)
(0.0344391 0.00123503 8.62784e-21)
(-1.6345 0.512401 2.35199e-21)
(-1.1746 0.204571 -7.74568e-21)
(-0.285041 0.238774 -4.94874e-21)
(-1.02338 -0.698838 0)
(-1.17249 -0.729261 0)
(-1.29215 0.333721 0)
(-0.109045 0.117877 0)
(0.0080116 -0.0100704 0)
(-0.69445 -0.35953 2.36521e-21)
(-0.684719 0.352194 -2.32946e-21)
(-1.31593 -0.677344 6.61124e-22)
(0.0467073 -0.0178937 -1.03808e-20)
(-1.32685 0.643677 -7.01631e-22)
(-0.676886 0.252435 -1.24365e-20)
(-0.102746 -0.0212815 1.17451e-20)
(-0.700375 -0.26502 5.59598e-21)
(-1.47639 -0.805189 9.07757e-21)
(-1.62525 0.580619 -3.35087e-21)
(0.0644288 -0.0138771 0)
(0.0438326 -0.0156698 -9.01423e-21)
(-1.66112 0.526319 0)
(-1.42906 -0.851512 -6.83523e-21)
(-1.51021 0.684295 -5.0307e-21)
(0.0832141 -0.0126863 2.75507e-20)
(-1.5363 -0.672438 0)
(0.00388115 -0.0546765 -2.07987e-20)
(-1.54257 -0.493148 6.42342e-21)
(-1.38366 0.78866 0)
(-0.840032 0.608931 -2.59682e-20)
(-1.073 -0.116465 1.40567e-20)
(-0.467584 -0.390037 -4.55993e-21)
(-1.33939 -0.354955 2.24698e-21)
(-1.19029 0.73611 8.18371e-21)
(-0.12703 -0.147121 -1.28456e-20)
(0.00118662 -0.0484634 -1.8607e-20)
(-1.40416 0.835283 0)
(-1.61788 -0.490318 0)
(-0.837796 0.473525 -4.30057e-21)
(-0.91327 0.518185 0)
(-0.938271 -0.227138 -1.55465e-20)
(-1.01723 -0.263707 1.66374e-20)
(-0.191478 -0.167281 2.26136e-21)
(-0.163134 -0.159419 -2.40974e-21)
(-0.779876 0.457901 4.12516e-21)
(-0.904926 -0.186506 0)
(-0.248144 -0.204946 4.30833e-21)
(-1.04674 0.681535 0)
(-1.20344 -0.265346 -1.34824e-20)
(-0.227425 -0.215263 2.97265e-21)
(-1.24729 -0.763901 -7.90561e-21)
(-1.37465 0.368854 6.66317e-21)
(-0.0735483 0.0905614 -1.91556e-20)
(-1.46695 -0.806168 0)
(-1.58442 0.567054 1.23369e-20)
(0.0584184 -0.00098345 0)
(-0.0167139 0.0532964 -6.21919e-21)
(-1.41722 0.432797 -3.9316e-21)
(-1.3129 -0.758333 -5.08992e-21)
(-1.24774 -0.565979 1.84366e-22)
(0.0341033 -0.00291902 5.55503e-21)
(-1.16123 0.648129 0)
(-0.550927 0.298921 8.3984e-21)
(-0.559603 0.28656 0)
(-0.289038 -0.19144 0)
(-0.699018 -0.100194 3.14936e-20)
(-0.248265 -0.161026 0)
(-0.682711 -0.12615 -2.00815e-20)
(-0.935815 0.606436 0)
(-0.852685 0.553057 0)
(-0.314832 -0.266442 2.70216e-23)
(-1.09105 -0.212627 8.81286e-21)
(-0.276603 -0.239594 2.18409e-20)
(-1.01869 -0.176868 -1.88411e-20)
(-1.14778 -0.683779 0)
(0.0397486 -0.0343719 1.16837e-20)
(-1.31531 0.552015 0)
(-1.47995 -0.794862 -5.94715e-21)
(-1.61291 0.586517 1.19942e-21)
(0.0673296 -0.0107422 5.47574e-21)
(-0.625897 0.424336 -1.49368e-20)
(-0.517025 -0.389826 -1.01613e-20)
(-0.899145 -0.0431899 2.56069e-20)
(-1.18138 -0.778904 1.72517e-20)
(-1.33377 0.294283 1.72977e-20)
(-0.167785 0.158361 0)
(-0.0148716 -0.0687007 2.22406e-20)
(-1.51747 -0.471298 -6.82911e-21)
(-1.359 0.78717 8.3484e-21)
(-1.42486 -0.713201 0)
(-1.4695 0.657451 0)
(0.063359 -0.0197143 0)
(-1.43968 -0.738175 0)
(-1.50965 0.642315 2.07178e-21)
(0.0682656 -0.0244282 1.97992e-21)
(-1.1156 0.656924 -8.00138e-21)
(-1.2337 -0.346638 4.78332e-21)
(-0.110729 -0.133862 6.09606e-21)
(-0.380425 0.242618 -2.37805e-21)
(-0.55332 -0.35005 0)
(-0.747518 0.0524249 -1.46165e-22)
(-1.52394 0.701017 5.86163e-21)
(0.0841398 -0.0120951 1.59528e-20)
(-1.56084 -0.678706 -2.62493e-21)
(-1.22375 -0.687587 0)
(-1.30326 0.410085 0)
(-0.0257653 0.0647923 2.09319e-20)
(0.0617825 -0.0263046 5.27246e-21)
(-1.45795 -0.586759 1.09746e-20)
(-1.39853 0.679807 1.84659e-20)
(-0.808649 0.535786 0)
(-0.365529 -0.300945 -1.47205e-20)
(-0.990765 -0.148923 9.72554e-21)
(-0.956512 0.19532 1.67114e-22)
(-0.848215 -0.518159 8.63668e-21)
(-0.222319 0.174188 0)
(-0.50956 0.317144 9.95459e-23)
(-0.453376 -0.314787 -2.97733e-21)
(-0.769518 -0.031409 -1.04992e-20)
(0.0854198 -0.0116147 -1.42994e-23)
(-1.54778 -0.715647 5.81013e-21)
(-1.54809 0.68018 5.65217e-21)
(-1.30405 0.662527 -3.55672e-21)
(-1.38307 -0.511523 -3.51939e-21)
(0.0278446 -0.046755 0)
(-0.459966 0.25624 -9.10776e-21)
(-0.364196 -0.227702 1.90221e-20)
(-0.666928 -0.0453601 -1.71427e-20)
(-1.41438 0.846745 4.83358e-21)
(0.0120477 -0.0351411 8.23254e-21)
(-1.64996 -0.503584 -3.56378e-21)
(-0.722693 0.386542 -5.26523e-21)
(-0.817338 -0.198133 0)
(-0.1918 -0.155942 0)
(-0.73023 0.185113 -2.28274e-20)
(-0.676082 -0.336368 5.31555e-21)
(-0.148984 0.0843322 0)
(-1.15128 -0.683523 0)
(-1.24463 0.336658 1.46919e-20)
(-0.0876805 0.105513 0)
(-1.40159 0.787522 -1.93227e-21)
(0.0573992 0.00591809 -2.53818e-21)
(-1.62178 -0.586614 1.66648e-21)
(-1.3982 0.807493 5.45528e-21)
(0.0507371 0.00451133 0)
(-1.64316 -0.562769 -2.58218e-21)
(0.0523613 -0.0325147 4.73999e-21)
(-1.47982 -0.565198 -6.13192e-21)
(-1.3977 0.70422 -1.70402e-20)
(-0.989517 0.174976 -6.93213e-21)
(-0.875153 -0.562815 -8.66712e-21)
(-0.268054 0.205477 0)
(0.054123 0.0115979 2.32524e-21)
(-1.58515 -0.580826 -1.5656e-21)
(-1.33822 0.768114 0)
(0.0677687 -0.00170443 0)
(-1.41645 -0.676647 -6.42139e-21)
(-1.44145 0.584683 -2.10667e-21)
(0.0219491 -0.0237839 9.41214e-21)
(-0.958042 -0.595092 -5.30125e-22)
(-1.05892 0.473232 0)
(-0.948114 0.584994 5.8913e-22)
(-1.06862 -0.481844 0)
(0.0203251 -0.00342084 9.43069e-21)
(0.0124602 -0.0447686 -6.92892e-24)
(-1.59046 -0.510223 0)
(-1.40677 0.814612 0)
(0.0827322 -0.0148187 0)
(-1.53081 -0.737892 0)
(-1.56544 0.6734 6.41836e-21)
(-1.48366 0.747844 -5.3716e-21)
(-1.4654 0.731201 4.34517e-21)
(0.0695346 -0.017754 -9.04494e-21)
(-1.58511 -0.610943 -1.08351e-21)
(0.0688472 -0.02074 -1.47553e-20)
(-1.55328 -0.607611 2.25622e-21)
(-1.44537 0.555198 4.20954e-21)
(-1.40149 -0.70087 4.37725e-21)
(0.0590137 0.00576768 0)
(-0.230334 0.204346 0)
(-1.12653 -0.773346 0)
(-1.2929 0.252444 0)
(-0.530443 0.237221 0)
(-0.20951 -0.113022 -2.6182e-20)
(-0.619286 -0.135531 1.10452e-20)
(-1.40541 0.479261 1.2452e-20)
(-1.33014 -0.72047 1.71558e-21)
(0.0216592 0.0313344 1.83302e-20)
(-0.00272067 0.0469108 1.18935e-20)
(-1.38467 0.450399 -1.73345e-20)
(-1.29522 -0.725936 -2.37742e-21)
(-1.37791 0.850171 6.21298e-21)
(-0.0295369 -0.0694538 8.90265e-21)
(-1.60176 -0.450414 9.8441e-21)
(-0.963741 0.63399 0)
(-1.12956 -0.21637 4.00903e-21)
(-0.28256 -0.249326 -2.14101e-20)
(-0.851296 0.524333 0)
(-0.986975 -0.191087 1.95288e-20)
(-0.272403 -0.235958 -3.84407e-23)
(-1.25379 0.457096 -1.73473e-20)
(-1.2222 -0.616975 2.22239e-21)
(0.0202906 0.0245334 -1.06196e-20)
(-1.28759 0.450634 0)
(-1.23722 -0.644766 2.0964e-21)
(0.011087 0.0336605 9.69637e-21)
(-0.411417 0.218354 0)
(-0.36524 -0.211733 -3.0069e-20)
(-0.621308 -0.0285681 9.66497e-21)
(-0.938217 0.547609 0)
(-1.04636 -0.262341 0)
(-0.174037 -0.173553 3.25136e-21)
(0.016428 0.010923 -1.86606e-20)
(-1.42016 -0.868559 -1.45765e-20)
(-1.6399 0.489071 0)
(-1.54053 0.615985 1.70526e-21)
(0.0646208 -0.0309318 0)
(-1.38795 -0.758936 1.49182e-21)
(-1.52654 0.579837 -5.3034e-22)
(0.0589098 -0.0366104 0)
(-1.34305 -0.756901 -3.95516e-21)
(-0.646925 0.389277 6.20161e-21)
(-0.333626 -0.244854 -3.18926e-21)
(-0.812801 -0.117157 -2.61339e-22)
(-1.3509 -0.697944 4.32826e-22)
(0.0553373 -0.0236446 1.5884e-20)
(-1.42569 0.632608 0)
(-1.35492 0.702898 1.49938e-20)
(0.0330997 -0.04372 1.00699e-20)
(-1.44548 -0.527313 0)
(0.0505319 -0.0328404 -2.35356e-21)
(-1.27988 -0.720485 -1.20146e-21)
(-1.41611 0.586399 0)
(-0.539581 0.140719 1.56746e-20)
(-0.177402 0.019577 1.58294e-20)
(-0.519698 -0.189936 4.25439e-23)
(-1.00429 0.44315 -2.68277e-21)
(-1.0354 -0.410422 -2.50661e-21)
(-0.0146664 -0.0377232 -1.11853e-20)
(-0.7999 -0.530014 1.97439e-20)
(-0.94648 0.138051 1.67509e-20)
(-0.323896 0.240693 0)
(0.0576308 -0.0238271 0)
(-1.43566 -0.820505 -1.99656e-21)
(-1.64084 0.560954 0)
(-1.20198 -0.703922 0)
(-1.30111 0.384519 0)
(-0.0517688 0.0809328 0)
(0.0335828 -0.0217545 0)
(-1.43649 0.827981 -3.97402e-21)
(-1.65243 -0.534042 3.50453e-21)
(-1.07992 0.477261 0)
(-1.09938 -0.452148 1.27815e-21)
(0.00464314 -0.0296709 1.09323e-20)
(-0.495786 0.208813 0)
(-0.213615 -0.0998491 2.24901e-20)
(-0.579618 -0.123762 0)
(-1.47261 -0.803325 -8.5715e-21)
(-1.61533 0.598201 3.1894e-21)
(0.0679059 -0.0206339 0)
(0.0753454 -0.0133127 -1.09747e-20)
(-1.4546 -0.649017 4.06109e-22)
(-1.43921 0.640972 4.82759e-22)
(-1.4525 0.754805 0)
(-1.43026 0.747958 2.80911e-21)
(0.0686522 2.19212e-05 -5.85348e-21)
(0.0669371 0.000490241 -7.19268e-21)
(-1.58769 -0.631101 -1.34835e-21)
(-1.56505 -0.639745 1.10932e-21)
(-0.970887 0.304849 0)
(-0.928502 -0.488347 3.37455e-20)
(-0.0744846 0.0653931 1.18842e-20)
(-1.1273 -0.608903 2.27513e-20)
(-1.19196 0.370572 0)
(-0.0376143 0.0650681 -1.2869e-20)
(-0.678651 0.203896 -1.28762e-20)
(-0.661902 -0.288665 9.10901e-21)
(-0.115301 0.032987 1.91603e-20)
(-1.42508 -0.784962 4.21297e-21)
(-1.58821 0.604505 2.45756e-21)
(-1.40268 -0.799335 -1.86317e-21)
(0.0665473 -0.0295389 0)
(-1.60432 0.576379 -2.36828e-21)
(0.060376 -0.0327797 0)
(-1.23125 0.54475 0)
(-1.24927 -0.53876 0)
(0.0391297 -0.0181232 1.20194e-20)
(-1.60241 0.617464 4.61616e-21)
(-1.59079 0.619176 -8.27336e-21)
(-1.48825 -0.782389 2.75452e-21)
(-1.46837 -0.774296 -7.71612e-21)
(0.0737371 -0.0210116 1.60465e-20)
(0.0721557 -0.0240492 -2.99456e-24)
(-1.14042 0.344721 0)
(-1.07826 -0.606067 -2.14925e-20)
(-0.0747221 0.0904696 1.66973e-20)
(-0.903603 0.336369 1.19125e-20)
(-0.957826 -0.422968 -1.51967e-20)
(-0.0227926 0.000367355 0)
(-1.43627 0.81505 0)
(0.0507297 -0.0044381 0)
(-1.65109 -0.568311 2.48326e-21)
(-0.986839 0.336119 8.76482e-21)
(-0.956432 -0.473165 -9.38566e-21)
(-0.0465345 0.0437928 -1.96866e-20)
(-0.757797 0.246301 5.14414e-21)
(-0.74744 -0.338368 -1.06953e-20)
(-0.0877823 0.0274006 1.10345e-20)
(-1.42943 0.774847 0)
(0.0640414 0.00180913 0)
(-1.61803 -0.611875 -3.53104e-21)
(-1.10342 0.510982 0)
(-1.14727 -0.439726 2.58227e-21)
(0.00545053 -0.0454054 -1.20139e-20)
(-1.00101 -0.70812 0)
(-1.16591 0.181129 0)
(-0.335819 0.278142 -6.36481e-22)
(-0.812482 0.554426 -6.69067e-22)
(-1.011 -0.130681 0)
(-0.40195 -0.332069 2.25775e-20)
(-1.32473 -0.857018 8.7525e-21)
(-0.0787241 0.0868685 0)
(-1.5059 0.383608 0)
(0.0155137 -0.012467 -2.26519e-20)
(-0.913479 -0.478902 -3.30849e-21)
(-0.902467 0.469733 3.25951e-21)
(-1.03569 0.399488 0)
(-1.01997 -0.459982 9.30419e-21)
(-0.00761204 0.00395348 -1.00376e-20)
(-1.47083 0.78814 7.9266e-21)
(0.0623779 -0.0108482 3.05523e-20)
(-1.6281 -0.593328 0)
(-0.587721 -0.468557 -6.03432e-21)
(-1.02687 -0.0447728 -9.32498e-21)
(-0.710174 0.526184 -5.89179e-21)
(-1.11739 0.668163 0)
(0.0364692 0.00584764 -8.44437e-21)
(-1.31997 -0.552401 0)
(-0.274655 0.171289 1.17954e-20)
(-0.305953 0.199829 -1.20542e-20)
(-0.586706 -0.342494 0)
(-0.720566 0.0963025 1.09738e-20)
(-0.623715 -0.381542 -1.93182e-20)
(-0.766683 0.089616 -8.7687e-21)
(-0.662895 0.170421 1.2121e-20)
(-0.618437 -0.283682 1.21397e-20)
(-0.14952 0.0639261 0)
(-0.391319 0.235156 1.04926e-20)
(-0.325697 0.196131 0)
(-0.476919 -0.296615 -1.07873e-20)
(-0.694104 0.0158469 9.82631e-21)
(-0.502728 -0.294873 1.08712e-20)
(-0.675971 0.0483343 6.09091e-23)
(-0.975885 0.377401 7.49128e-22)
(-0.890706 -0.407638 -6.68701e-21)
(-0.0461981 0.0183246 -1.35107e-20)
(-0.907082 0.316687 -2.04663e-20)
(-0.893295 -0.424716 1.75505e-22)
(-0.0571602 0.0358317 0)
(0.0565005 -0.0389012 0)
(-1.34033 -0.786117 0)
(-1.57463 0.562447 1.31823e-21)
(-0.70979 0.412745 -5.7172e-21)
(-0.840768 -0.154108 0)
(-0.270332 -0.209401 5.8999e-21)
(-1.58458 0.642453 -1.05614e-20)
(-1.51526 -0.764568 3.90047e-21)
(0.080437 -0.015647 -9.15698e-21)
(-1.29085 0.503259 0)
(-1.34869 0.529472 8.96585e-21)
(-1.27402 -0.611816 -2.7721e-21)
(-1.32652 -0.63922 8.32148e-21)
(0.0412792 0.00983471 -1.31757e-20)
(0.0507776 0.0071737 -1.21479e-20)
(-0.680851 0.377693 0)
(-0.79964 -0.16395 0)
(-0.239396 -0.184576 2.81787e-21)
(-1.01717 0.621694 6.49722e-21)
(-1.14176 -0.275081 0)
(-0.187912 -0.1833 7.09651e-21)
(-1.17732 0.472549 -4.91947e-21)
(-1.17387 -0.54648 0)
(0.0260772 0.00485309 0)
(-0.3872 0.130649 1.20683e-20)
(-0.492254 -0.0623907 -5.95949e-21)
(-0.264695 -0.100752 6.10747e-21)
(-1.36353 0.489706 0)
(-1.31023 -0.682544 0)
(0.0295448 0.0248327 -1.94973e-20)
(-0.497114 0.238808 0)
(-0.258871 -0.149689 3.30207e-21)
(-0.62251 -0.099937 0)
(-1.14163 0.373452 -1.14152e-20)
(-1.08674 -0.582435 -1.20412e-20)
(-0.0350346 0.0567829 -1.67576e-21)
(-1.00829 0.590811 6.60266e-21)
(-1.11917 -0.294069 0)
(-0.150891 -0.160636 1.46356e-20)
(-0.414481 0.165867 -1.19628e-20)
(-0.391541 0.167244 -5.29692e-21)
(-0.534492 -0.0752894 5.86671e-21)
(-0.264125 -0.121591 -1.20997e-20)
(-0.550676 -0.0502699 0)
(-0.30376 -0.153519 -2.1531e-20)
(-0.35404 0.186014 -5.28659e-21)
(-0.406917 -0.230821 1.4065e-20)
(-0.322649 0.180594 3.39794e-21)
(-0.611072 0.00576862 -1.33448e-20)
(-0.482978 -0.2761 -6.82676e-21)
(-0.648361 0.0425662 3.03609e-22)
(-0.810939 0.440852 6.24536e-21)
(-0.876511 0.459985 0)
(-0.901717 -0.236465 1.16877e-20)
(-0.947745 -0.278389 -9.13291e-21)
(-0.163338 -0.144719 -1.31308e-20)
(-0.116604 -0.115613 2.18311e-20)
(0.0226569 -0.0463368 0)
(-1.51519 -0.517952 -3.67606e-21)
(-1.38725 0.756541 -8.42117e-21)
(-0.372386 0.301307 7.75349e-21)
(-1.09748 0.147426 1.06253e-20)
(-0.925988 -0.659062 -2.02538e-20)
(0.0405934 -0.0344522 -1.03585e-20)
(0.0551792 -0.0288295 8.26995e-21)
(-1.54726 -0.552727 3.18313e-21)
(-1.52959 -0.575019 5.61169e-21)
(-1.42062 0.764246 2.1198e-20)
(-1.43256 0.73865 -1.09669e-20)
(-0.536797 0.394695 1.09164e-20)
(-0.659688 -0.482117 -9.67042e-21)
(-0.938548 0.0250078 2.5451e-21)
(-0.365779 0.0712554 2.05129e-20)
(-0.271475 -0.0462633 0)
(-0.414743 -0.0555349 -2.04278e-20)
(-1.38886 0.523953 -4.18123e-21)
(-1.34614 -0.677945 -9.40406e-21)
(0.0467119 0.0134614 0)
(-0.604472 0.332673 0)
(-0.281749 -0.205628 -2.68462e-21)
(-0.743859 -0.118549 -1.02138e-20)
(-1.05071 0.605605 0)
(-1.15681 -0.321416 0)
(-0.12128 -0.140153 -1.36154e-20)
(-1.31997 0.754762 -9.51417e-21)
(-1.31288 0.725887 0)
(-1.45864 -0.460895 2.16232e-21)
(-0.022491 -0.076034 -1.27806e-20)
(-1.4325 -0.47141 -5.88711e-21)
(-0.00697125 -0.0675916 1.7311e-20)
(-1.28358 0.547169 9.17557e-21)
(-1.29558 -0.57199 8.98294e-21)
(0.0503151 -0.00989282 7.16489e-21)
(-1.2207 0.688318 1.24606e-21)
(-1.39491 -0.585158 0)