/*--------------------------------*- C++ -*----------------------------------*\
  =========                 |
  \\      /  F ield         | OpenFOAM: The Open Source CFD Toolbox
   \\    /   O peration     | Website:  https://openfoam.org
    \\  /    A nd           | Version:  6
     \\/     M anipulation  |
\*---------------------------------------------------------------------------*/
FoamFile
{
    version     2.0;
    format      ascii;
    class       volVectorField;
    location    "0";
    object      U;
}
// * * * * * * * * * * * * * * * * * * * * * * * * * * * * * * * * * * * * * //

dimensions      [0 1 -1 0 0 0 0];

internalField   nonuniform List<vector> 
13046
(
(0.538138 0.211775 0)
(0.603459 -0.130197 4.29789e-21)
(0.227384 -0.0727684 9.64394e-21)
(0.518446 0.12517 0)
(0.233036 0.00212708 8.77392e-21)
(0.510849 -0.141128 0)
(0.564482 0.148195 -1.27642e-21)
(0.553116 -0.177453 -2.19948e-21)
(0.207501 0.0129334 9.64767e-21)
(1.03786 0.464565 -3.12653e-21)
(1.0732 -0.44006 0)
(-0.0142439 -0.00661713 -6.07881e-21)
(0.664128 0.255349 7.99931e-21)
(0.692706 -0.204811 6.55444e-21)
(0.157012 -0.0453907 -5.24695e-21)
(0.987746 0.522652 -1.7758e-21)
(0.0167553 -0.0355602 -9.74526e-21)
(1.11662 -0.357135 -2.45396e-21)
(0.324844 0.0834918 0)
(0.389685 -0.120332 4.74749e-21)
(0.499435 0.0261917 -1.34055e-20)
(0.999478 0.513438 1.76773e-21)
(0.00732429 -0.0276892 1.95138e-20)
(1.108 -0.375251 -7.41512e-22)
(0.472486 0.136341 -5.4232e-21)
(0.517394 -0.0995365 8.03459e-21)
(0.256545 -0.0460689 0)
(0.672066 0.286008 -1.78954e-22)
(0.718827 -0.203198 -1.92563e-21)
(0.155063 -0.0615867 1.82091e-20)
(0.545394 0.233497 0)
(0.629168 -0.118318 0)
(0.231883 -0.0938895 -9.81574e-21)
(0.433024 0.105596 1.90268e-20)
(0.282011 -0.04408 -3.28624e-21)
(0.479944 -0.0716146 -1.24553e-20)
(0.427792 0.0824115 5.69374e-23)
(0.293242 -0.0219195 0)
(0.452026 -0.0688724 0)
(0.449534 0.236764 -6.88648e-21)
(0.368501 -0.208925 -8.8595e-21)
(0.655393 -0.0311611 6.40866e-21)
(0.403831 0.0168114 -4.38512e-21)
(0.344667 0.00869637 4.48366e-21)
(0.382014 -0.0383336 0)
(0.432666 0.0250654 -2.78254e-21)
(0.324535 0.0298409 0)
(0.384808 -0.0649795 1.4425e-21)
(0.560397 0.206588 0)
(0.606518 -0.152362 3.07937e-22)
(0.200767 -0.0533031 2.70925e-23)
(0.535334 -0.34345 -1.08418e-20)
(0.385247 0.256557 0)
(0.759156 0.0429553 7.50365e-21)
(0.593201 -0.380083 1.54396e-20)
(0.788887 0.0683051 8.05621e-21)
(0.34649 0.238052 -1.06041e-20)
(0.996844 -0.204544 1.31352e-21)
(0.839191 0.516961 0)
(0.175685 -0.155248 -8.14643e-21)
(0.845094 0.265693 3.76177e-21)
(0.80695 -0.361774 -3.79167e-21)
(0.102436 0.0446283 2.17808e-20)
(0.0138973 -0.0134281 -1.12439e-20)
(1.03367 -0.40292 2.04474e-21)
(1.00665 0.435146 5.52121e-21)
(0.799293 0.512333 0)
(0.964568 -0.16772 -6.20174e-21)
(0.221049 -0.193545 -2.3759e-21)
(0.765519 0.489561 2.87829e-21)
(0.932551 -0.153251 8.40452e-21)
(0.23793 -0.20146 3.23235e-21)
(1.03281 -0.21516 1.28923e-23)
(0.868713 0.536119 -1.15947e-22)
(0.159095 -0.151109 3.17028e-23)
(0.342439 0.107118 0)
(0.379954 -0.136353 -5.16661e-21)
(0.525504 0.00825688 9.52399e-21)
(0.103453 -0.105967 -8.95434e-21)
(0.913727 0.540791 8.27418e-21)
(1.06828 -0.263336 2.77207e-21)
(0.502531 0.147034 -2.83495e-21)
(0.529981 -0.120865 2.86559e-21)
(0.234695 -0.0281789 0)
(0.00628868 -0.0137571 1.00498e-20)
(1.05442 -0.411138 0)
(1.0231 0.450259 -3.25549e-21)
(1.05008 0.35651 5.68888e-21)
(0.0251368 0.0278756 0)
(0.985029 -0.478189 1.63865e-21)
(0.0678805 0.073111 0)
(1.11375 0.284272 0)
(0.948738 -0.563388 -2.08728e-22)
(0.852877 0.372315 7.40504e-21)
(0.891914 0.379749 -1.02564e-20)
(0.893639 -0.304828 -7.08102e-21)
(0.922364 -0.335626 3.31568e-21)
(0.0793788 -0.0383829 4.68122e-21)
(0.0609987 -0.0233115 -1.20252e-20)
(0.0387999 0.0397507 5.67655e-22)
(1.04843 0.334475 -5.56643e-21)
(0.96466 -0.492462 0)
(0.456538 0.0504872 2.45005e-23)
(0.298859 0.0284141 0)
(0.41319 -0.091807 0)
(0.277124 0.171802 -1.92693e-20)
(0.724271 0.0985005 3.7596e-21)
(0.582855 -0.321722 0)
(0.383029 0.232761 -2.92924e-21)
(0.481025 -0.286305 0)
(0.701213 0.0242455 1.44423e-20)
(0.973062 0.455333 0)
(-0.0200771 -0.00372865 8.24382e-21)
(0.997234 -0.444539 1.12673e-21)
(0.617205 0.229667 -5.60167e-21)
(0.653574 -0.182392 -2.84483e-21)
(0.173168 -0.0398853 -9.51531e-21)
(0.891365 0.434658 -4.27762e-21)
(0.854753 0.40428 3.99197e-21)
(0.963521 -0.301153 -1.87713e-21)
(0.0754609 -0.0594612 -5.37376e-21)
(0.916918 -0.28667 1.90607e-21)
(0.0863799 -0.0578869 5.02022e-21)
(1.02443 0.473654 7.34486e-21)
(1.07264 -0.437521 2.2362e-21)
(-0.0164437 -0.00681814 2.71494e-21)
(0.769776 0.339387 0)
(0.814629 -0.255794 4.85307e-21)
(0.114635 -0.0578903 -2.77177e-20)
(0.490125 0.254865 0)
(0.328821 -0.187608 8.92034e-21)
(0.663423 -0.0585793 -3.41779e-22)
(0.0844094 0.0853356 0)
(1.08692 0.269569 0)
(0.932987 -0.55007 0)
(0.961761 0.381608 0)
(0.963848 -0.393643 8.84273e-21)
(0.0375464 -0.000335145 1.20665e-20)
(0.588154 0.257434 0)
(0.666021 -0.140676 0)
(0.214152 -0.100351 0)
(0.690033 0.176337 0)
(0.641822 -0.275801 0)
(0.177468 0.0603179 0)
(0.360937 0.227438 2.71048e-21)
(0.523526 -0.313539 0)
(0.722807 0.0456481 -7.78703e-21)
(0.278713 0.15821 1.86737e-20)
(0.700592 0.0949616 8.24317e-21)
(0.568928 -0.302195 -9.64022e-21)
(0.875719 0.28708 -8.5463e-21)
(0.840788 -0.373276 0)
(0.0840553 0.0302507 -2.83076e-20)
(0.250736 0.100523 0)
(0.624062 0.101047 -1.81551e-20)
(0.528746 -0.235934 -2.489e-21)
(0.695217 -0.422344 -4.26584e-21)
(0.840802 0.132244 -8.45996e-21)
(0.744191 -0.439984 0)
(0.873586 0.164798 -4.86577e-21)
(0.255612 0.186643 -9.14003e-21)
(0.212173 0.158028 8.77832e-21)
(0.715734 0.144952 -1.14381e-21)
(0.627644 -0.307875 -4.9861e-21)
(0.206081 0.100031 5.41011e-21)
(1.05927 0.447806 3.18953e-21)
(-0.0141394 -0.00276486 -3.15977e-21)
(1.05283 -0.459164 3.26517e-21)
(0.994244 0.465043 1.95394e-21)
(-0.0196896 -0.00406926 1.2395e-21)
(1.03622 -0.440539 0)
(0.971861 0.402124 -1.68946e-22)
(0.984961 -0.391397 0)
(0.0303125 -0.00841933 -1.45765e-20)
(0.560392 0.330687 0)
(0.746797 -0.0723553 -1.96816e-21)
(0.336728 -0.227161 -5.17987e-21)
(0.690463 0.126319 -7.47429e-21)
(0.230723 0.118641 0)
(0.593581 -0.28792 0)
(-0.00764954 0.00747606 0)
(1.03104 -0.489361 0)
(1.0853 0.409753 -2.59611e-21)
(0.521675 0.301975 0)
(0.715683 -0.0552459 4.35408e-21)
(0.351412 -0.219784 -1.34474e-21)
(0.2499 0.115817 0)
(0.641776 0.0996584 0)
(0.535502 -0.252567 0)
(0.65339 0.154535 -3.76085e-21)
(0.605912 -0.253384 0)
(0.18932 0.0556332 0)
(0.734749 -0.249184 3.58325e-23)
(0.129196 -0.0228804 6.46202e-21)
(0.738205 0.31308 -1.15773e-20)
(0.78065 -0.241293 0)
(0.1257 -0.0509386 2.86381e-20)
(1.05229 0.404981 6.42321e-21)
(0.00691815 0.00719693 -9.08921e-21)
(1.02671 -0.457119 7.45208e-21)
(0.0704319 0.0700017 -8.29805e-21)
(1.0535 0.289998 -3.52178e-21)
(0.936174 -0.518586 -8.36178e-21)
(1.09819 0.324549 9.22492e-21)
(0.97629 -0.52552 0)
(0.0365535 0.0472344 8.13626e-21)
(0.558729 -0.389652 4.38637e-21)
(0.816829 0.0345514 -3.3122e-21)
(0.431786 0.316829 -8.91934e-21)
(0.644631 0.198862 7.37804e-21)
(0.900158 0.552401 -4.31432e-21)
(0.122752 -0.120749 5.51945e-21)
(1.07244 -0.251881 -1.28785e-23)
(0.988736 -0.528305 0)
(1.10731 0.346904 2.54451e-21)
(0.0218667 0.0340172 0)
(0.457428 0.0797676 1.40477e-20)
(0.277916 0.00542951 0)
(0.446968 -0.0960092 -4.69706e-21)
(0.648468 0.292153 0)
(0.713632 -0.181124 2.77115e-22)
(0.180177 -0.080832 -5.38189e-21)
(0.0842393 0.0827277 -6.36736e-21)
(1.06188 0.275609 0)
(0.926128 -0.534499 9.63574e-21)
(0.683247 0.222494 0)
(0.716905 -0.256586 -1.1885e-20)
(0.13336 -0.00813519 0)
(-0.0194165 -0.00253147 0)
(1.02055 -0.47152 -2.31122e-21)
(1.04955 0.442427 0)
(0.390487 0.288462 9.64845e-21)
(0.826643 0.0537355 0)
(0.595747 -0.412915 0)
(1.07203 0.317548 -8.0915e-21)
(0.96365 -0.511405 0)
(0.0439775 0.0491584 4.33171e-23)
(0.791619 0.155796 -9.68303e-21)
(0.68528 -0.373163 -3.73995e-21)
(0.202974 0.129013 1.23856e-20)
(0.766039 0.358953 0)
(0.824917 -0.241964 -4.53934e-21)
(0.125435 -0.0727522 -2.89197e-21)
(0.862282 -0.543214 1.26634e-20)
(1.02282 0.205775 6.40207e-21)
(0.1632 0.145657 -5.00081e-21)
(0.917171 0.172543 0)
(0.779303 -0.472504 5.18076e-21)
(0.205885 0.161148 1.81676e-22)
(-0.019245 -0.002365 6.36016e-21)
(0.99649 -0.481739 0)
(1.0562 0.427731 1.89346e-21)
(0.452725 0.278589 -1.27892e-20)
(0.435364 -0.273647 6.45081e-21)
(0.719978 -0.011278 6.24379e-22)
(0.898033 0.483124 -1.90228e-21)
(-0.0168202 -0.00170172 6.83786e-22)
(1.02242 -0.387882 0)
(0.293482 0.0602031 -2.89793e-21)
(0.498472 0.0496544 1.08685e-20)
(0.419202 -0.127252 -1.41723e-20)
(0.793958 0.197562 -3.84837e-21)
(0.769976 0.164795 -3.48259e-23)
(0.721603 -0.354993 9.12643e-21)
(0.678138 -0.351252 8.95832e-21)
(0.190637 0.110263 -9.85697e-21)
(0.1533 0.0835348 5.09175e-21)
(0.0801975 -0.0878531 1.17203e-20)
(0.933889 0.543191 -4.43798e-21)
(1.09496 -0.278718 0)
(0.728362 0.351951 0)
(0.80075 -0.210197 0)
(0.155867 -0.0919756 1.14764e-20)
(0.955229 0.198811 1.71096e-21)
(0.818299 -0.495775 0)
(0.175076 0.142336 0)
(0.929709 0.412357 -3.69196e-21)
(0.968495 -0.345131 0)
(0.0482423 -0.0298611 -5.30049e-21)
(0.384581 0.0315782 -2.98063e-21)
(0.402175 -0.0245692 -4.30514e-21)
(0.344148 -0.0136107 1.49069e-21)
(0.852847 0.179553 6.19749e-21)
(0.74461 -0.416423 0)
(0.184476 0.130836 8.469e-21)
(0.735214 0.372635 0)
(0.82201 -0.203666 -5.61117e-21)
(0.162568 -0.10707 7.34661e-21)
(0.702213 0.251393 -1.18957e-20)
(0.742836 0.272484 9.57914e-21)
(0.462933 0.294389 1.01183e-20)
(0.446629 -0.291296 -1.86793e-20)
(0.739544 -0.00740193 1.37083e-20)
(0.88207 0.206974 6.33373e-21)
(0.781599 -0.428688 -7.72396e-21)
(0.150899 0.1078 -7.72519e-21)
(0.956067 0.417288 1.35642e-20)
(0.0357375 -0.0207305 1.87419e-20)
(0.990657 -0.367177 4.22117e-21)
(0.384058 0.2155 4.4578e-21)
(0.456607 -0.26592 0)
(0.677648 0.0224308 -4.88404e-21)
(0.276596 0.210019 9.87444e-21)
(0.858044 0.122367 4.84518e-21)
(0.696181 -0.4441 0)
(0.834095 0.439024 1.39627e-21)
(0.931134 -0.243944 4.75404e-21)
(0.122419 -0.0980166 -3.33188e-21)
(0.423438 0.283586 -8.28905e-22)
(0.509425 -0.333828 0)
(0.763143 0.0261477 -1.03947e-20)
(0.866141 0.460278 0)
(0.890363 0.459888 0)
(0.968701 -0.261482 3.00018e-21)
(0.107762 -0.0915254 8.67103e-21)
(0.983501 -0.288221 -4.23658e-21)
(0.0853951 -0.0726699 -9.2023e-21)
(-0.00544337 0.0037224 7.0236e-21)
(1.04007 -0.471371 0)
(1.07218 0.422539 3.89812e-21)
(0.817563 0.394511 0)
(0.884106 -0.262877 2.23843e-21)
(0.107426 -0.0718325 -2.98639e-21)
(0.892531 -0.418982 -2.3049e-21)
(-0.0159829 -0.00346764 -1.01502e-20)
(0.865972 0.43604 -3.26154e-21)
(0.57522 0.069005 1.46968e-20)
(0.279169 0.098812 0)
(0.47123 -0.193919 5.23259e-21)
(0.797549 0.250166 -8.94742e-21)
(0.767421 -0.328945 0)
(0.11302 0.0352426 -1.67295e-20)
(0.0145152 0.00316143 5.79915e-21)
(1.02681 0.40147 -1.18769e-20)
(1.01167 -0.435762 -5.82709e-21)
(0.614032 -0.401164 5.69747e-21)
(0.811045 0.0732784 0)
(0.343634 0.252352 1.20163e-20)
(0.88552 -0.542994 1.50822e-20)
(1.03907 0.230579 3.86428e-21)
(0.131289 0.119561 0)
(0.6566 -0.226677 6.15448e-21)
(0.158023 -7.58636e-05 0)
(0.8206 0.303225 -9.64301e-21)
(0.812964 -0.314174 -4.18494e-21)
(0.0908648 -0.0052589 -5.11827e-21)
(0.644933 -0.241914 -2.15244e-22)
(0.16054 0.0169834 -2.77139e-23)
(0.98177 0.515966 8.9325e-21)
(0.0274961 -0.0436054 -1.37549e-20)
(1.10342 -0.344159 3.60742e-21)
(0.544106 -0.401955 -5.70845e-21)
(0.836236 0.0201078 -1.0369e-21)
(0.46909 0.347486 0)
(0.855072 0.322044 9.8272e-21)
(0.855929 -0.334183 5.10474e-21)
(0.0768053 0.000109354 1.24261e-20)
(0.709312 0.170742 0)
(0.644032 -0.297367 3.6516e-21)
(0.182124 0.0764976 0)
(0.731897 0.0765438 4.81426e-21)
(0.561916 -0.332134 0)
(0.31695 0.197224 0)
(0.543041 0.178751 3.9315e-21)
(0.572699 -0.145415 6.79896e-21)
(0.211346 -0.036667 -1.93477e-23)
(0.311085 0.235091 -1.22556e-20)
(0.843679 0.100469 -1.1725e-20)
(0.665228 -0.431684 -1.5341e-20)
(1.0717 0.377197 4.78534e-21)
(1.00748 -0.481062 -6.30189e-21)
(0.0119358 0.0185053 -1.36615e-22)
(0.89395 -0.525497 -1.02519e-20)
(1.02851 0.245231 -3.91714e-21)
(0.113713 0.104382 -6.39289e-21)
(0.691188 0.453458 8.95295e-21)
(0.305791 -0.241757 -4.8305e-21)
(0.880436 -0.110752 0)
(0.901603 0.507829 -2.42186e-21)
(0.876817 0.492028 2.25681e-21)
(1.00011 -0.251016 9.47907e-22)
(1.03147 -0.263641 -3.90019e-21)
(0.103077 -0.0984019 3.16269e-21)
(0.118432 -0.108074 2.80864e-21)
(-0.0173636 -0.00231177 1.03054e-20)
(0.93502 -0.409784 2.53872e-21)
(0.881748 0.44422 -1.29889e-21)
(0.915113 0.492285 1.35416e-22)
(-0.0157804 -0.00337748 0)
(1.05255 -0.385683 0)
(0.834817 0.217358 1.42906e-20)
(0.765709 -0.377901 2.00651e-21)
(0.140224 0.0820222 0)
(0.000450535 0.00212463 1.75015e-20)
(1.05737 0.419444 -4.90898e-21)
(1.04117 -0.455002 0)
(0.773937 0.458778 -1.25673e-20)
(0.807791 0.467613 9.37973e-21)
(0.91097 -0.184205 -5.10257e-21)
(0.935611 -0.205723 -1.94193e-21)
(0.200909 -0.161782 5.55259e-21)
(0.169298 -0.139049 2.7837e-21)
(0.0120728 0.0259711 0)
(0.973938 -0.54335 0)
(1.13485 0.339379 -1.31754e-21)
(0.840614 0.477178 2.23356e-21)
(-0.0157455 0.000361328 -6.41505e-21)
(0.995099 -0.368793 0)
(0.469117 -0.00823908 2.47064e-23)
(0.358358 0.0793399 -6.36569e-21)
(0.346002 -0.0822451 -3.16866e-21)
(0.92198 0.460719 3.46798e-21)
(0.991186 -0.422194 -1.64836e-21)
(-0.0187474 -0.00249313 -1.28153e-20)
(0.614197 0.347578 -1.10109e-20)
(0.763124 -0.108508 9.00503e-21)
(0.281613 -0.19091 4.30142e-23)
(1.09246 0.396813 -1.15197e-22)
(1.02135 -0.499328 -8.43631e-21)
(-0.00155903 0.0125282 3.56859e-21)
(0.784949 -0.430336 -7.89691e-23)
(-0.0135387 -0.00822733 1.168e-20)
(0.844675 0.366167 9.19686e-22)
(0.409798 0.204493 5.95633e-21)
(0.382547 -0.198154 3.79709e-22)
(0.625297 -0.0122923 -1.57481e-20)
(0.526907 0.0770536 0)
(0.462482 -0.153654 1.56918e-20)
(0.265709 0.0564197 -8.08455e-21)
(1.00779 0.490662 -7.48809e-21)
(-0.0144162 -0.00898913 -8.09567e-21)
(1.08433 -0.422491 6.3857e-23)
(0.553915 0.0876536 0)
(0.481339 -0.174759 5.45681e-21)
(0.254492 0.0716121 1.14332e-20)
(0.445342 -0.00459016 -6.46969e-21)
(0.355402 0.0586255 6.72245e-21)
(0.350728 -0.0634113 -1.67346e-21)
(0.372973 0.288502 5.88652e-21)
(0.862374 0.0716161 4.0925e-21)
(0.64367 -0.452896 -8.42011e-21)
(0.54524 0.0239399 0)
(0.403232 -0.155414 0)
(0.326108 0.122237 -9.45057e-22)
(0.573017 0.0537429 -7.8956e-21)
(0.446853 -0.182086 -4.22779e-21)
(0.305456 0.119407 -1.33936e-22)
(0.653303 0.433815 -1.36273e-20)
(0.85566 -0.0901506 6.68774e-21)
(0.342819 -0.269539 9.64162e-21)
(-0.00417518 -0.0147873 -1.22744e-20)
(-0.0079155 -0.0107432 1.24613e-20)
(1.09076 -0.413119 -2.27824e-21)
(1.07894 -0.428309 -1.64505e-21)
(1.02363 0.486682 -6.68886e-21)
(1.03556 0.475107 1.00039e-20)
(1.08877 0.377538 -5.95153e-21)
(1.01151 -0.49341 5.38947e-21)
(0.0078882 0.0207621 0)
(0.292872 -0.245265 -6.235e-21)
(0.723922 0.485515 -2.77353e-21)
(0.914213 -0.120866 0)
(0.476379 0.277958 0)
(0.39165 -0.242732 5.89362e-21)
(0.704981 -0.0309119 -4.83711e-21)
(0.93177 0.151023 0)
(0.769797 -0.495423 -5.36079e-21)
(0.24057 0.192526 -1.87967e-22)
(0.857399 -0.481723 -2.03109e-21)
(-0.0169262 -0.00885754 0)
(0.996199 0.369239 3.12619e-21)
(0.0490541 0.0582305 0)
(1.1178 0.304943 0)
(0.960211 -0.55606 -3.75243e-21)
(1.02135 0.458715 -2.41506e-21)
(-0.019566 -0.0041744 0)
(1.04254 -0.453393 2.26817e-21)
(-0.0113436 -0.00689236 4.33977e-32)
(0.740513 -0.406529 7.73721e-22)
(0.7793 0.354175 -8.328e-22)
(0.780786 -0.35715 -8.45524e-22)
(-0.0110924 -0.0023438 -4.3295e-32)
(0.740064 0.40351 7.5629e-22)
(0.855203 -0.428658 1.03672e-20)
(0.926463 0.266652 0)
(0.0983724 0.0661705 1.64763e-20)
(0.943565 -0.527512 1.27452e-21)
(-0.00608697 0.00646772 0)
(1.12027 0.357028 0)
(0.983731 0.373097 6.0027e-21)
(0.965676 -0.416822 -5.4555e-21)
(0.0343875 0.00938384 -8.54725e-21)
(0.962092 0.54113 -8.58152e-21)
(0.0114012 -0.0307231 -4.92666e-21)
(1.14321 -0.342502 0)
(0.616516 0.205464 -3.00519e-21)
(0.172424 -0.0130142 3.24094e-21)
(0.636613 -0.201846 -2.97467e-21)
(0.973357 -0.549685 0)
(0.0224597 0.0358544 -5.92177e-21)
(1.13256 0.329117 -1.61799e-21)
(0.90684 0.134148 4.71607e-21)
(0.267596 0.212703 3.35463e-21)
(0.740182 -0.480618 0)
(0.833939 -0.48764 0)
(0.957155 0.217615 0)
(0.14737 0.122141 -5.98877e-21)
(-0.00328563 -0.00326446 0)
(0.453756 -0.224187 -7.65733e-24)
(0.450987 0.221515 1.1067e-23)
(0.880573 -0.441 -1.50829e-21)
(-0.0166424 -0.00547701 7.06466e-21)
(0.895511 0.419822 1.60499e-21)
(0.577678 0.179306 7.77844e-21)
(0.19275 -0.0124285 -7.6998e-21)
(0.59118 -0.178892 -3.44716e-21)
(0.99522 -0.519401 -6.98961e-21)
(1.11822 0.373144 2.68999e-21)
(-0.000248281 0.0161777 0)
(0.00936761 0.0228559 6.18699e-21)
(1.14361 0.337694 0)
(0.957062 -0.548804 5.27958e-21)
(1.04123 0.443954 3.58358e-21)
(-4.47195e-05 -0.00647217 -1.87583e-20)
(1.0556 -0.431219 -7.06591e-21)
(0.0540837 -0.0629989 1.41541e-20)
(1.08312 -0.312928 -4.20839e-21)
(0.954728 0.518784 0)
(0.631565 0.441689 1.72375e-20)
(0.862369 -0.0725325 -8.52092e-21)
(0.387116 -0.305613 9.14685e-21)
(0.981668 -0.225191 -1.39817e-21)
(0.845118 0.49805 -5.39083e-21)
(0.1538 -0.135606 8.6997e-21)
(0.0476451 -0.063051 1.2669e-20)
(0.95696 0.547367 0)
(1.1264 -0.309928 2.66641e-21)
(0.648142 0.336036 2.7726e-21)
(0.693364 0.363738 0)
(0.755558 -0.147234 9.45079e-21)
(0.798616 -0.169979 -1.01072e-20)
(0.222598 -0.136479 -6.03835e-21)
(0.199877 -0.132614 0)
(0.611345 0.329078 2.70514e-21)
(0.742065 -0.11998 0)
(0.25983 -0.163743 -2.86876e-21)
(0.760255 0.472095 0)
(0.914486 -0.167789 8.23628e-21)
(0.22613 -0.184834 -2.00243e-21)
(0.87455 -0.506106 5.1674e-21)
(1.00119 0.238867 -4.19122e-21)
(0.11961 0.103176 1.30985e-20)
(0.998073 -0.518482 0)
(1.09899 0.364654 -9.19237e-22)
(0.0118531 0.0260535 0)
(0.0808625 0.0716301 4.23842e-21)
(1.01873 0.280133 2.55472e-21)
(0.914726 -0.497064 3.33453e-21)
(0.835138 -0.362815 9.26755e-23)
(-0.0128551 -0.000941988 -1.13428e-24)
(0.774284 0.424549 0)
(0.476942 0.222924 -5.41934e-21)
(0.487091 0.212549 0)
(0.30286 -0.145894 1.4015e-21)
(0.620754 -0.0642632 -1.91314e-20)
(0.279856 -0.122388 -1.77351e-21)
(0.606257 -0.0819875 1.22134e-20)
(0.696342 0.42806 0)
(0.647946 0.397462 1.76575e-21)
(0.292789 -0.214426 -1.97659e-23)
(0.854986 -0.135297 -5.33839e-21)
(0.264761 -0.198368 -1.46422e-20)
(0.816675 -0.112855 1.13922e-20)
(0.764544 -0.445783 0)
(-0.0144974 -0.0106946 -1.27344e-20)
(0.885499 0.353331 0)
(1.00206 -0.512936 4.35093e-21)
(1.11117 0.376605 -8.97147e-22)
(0.000894758 0.01589 -3.74623e-21)
(0.504512 0.321585 3.31613e-21)
(0.429037 -0.29363 6.68629e-21)
(0.760236 -0.02576 -1.5421e-20)
(0.832541 -0.522886 -1.13354e-20)
(0.987347 0.190605 -1.07751e-20)
(0.182847 0.157314 0)
(0.0686156 -0.0752365 -1.51361e-20)
(1.07187 -0.298525 4.47627e-21)
(0.940548 0.519645 0)
(0.957429 -0.464833 0)
(0.995007 0.4295 0)
(-0.019959 -0.00473848 0)
(0.967002 -0.479284 0)
(1.0279 0.419062 -3.54617e-21)
(-0.0197118 -0.00408561 0)
(0.807315 0.447053 5.23001e-21)
(0.918896 -0.221482 -2.95885e-21)
(0.151205 -0.12022 -4.12028e-21)
(0.357043 0.19394 1.56999e-21)
(0.467032 -0.254334 0)
(0.65922 0.0381839 -5.24043e-21)
(1.04527 0.454087 -4.1754e-21)
(-0.00517409 -0.00691977 -1.08868e-20)
(1.06883 -0.434901 1.01469e-20)
(0.870285 -0.454417 0)
(0.95464 0.268113 0)
(0.096187 0.0760039 -1.42085e-20)
(0.0266012 -0.0242296 -3.57971e-21)
(1.02355 -0.375693 -7.14674e-21)
(0.978433 0.444788 -1.23234e-20)
(0.619352 0.388071 -1.79871e-21)
(0.326488 -0.238054 9.80511e-21)
(0.804855 -0.0941932 -5.87262e-21)
(0.771596 0.131685 9.36435e-21)
(0.646722 -0.359576 -5.54788e-21)
(0.242024 0.153611 -1.20851e-20)
(0.440106 0.243491 -1.03788e-22)
(0.39868 -0.234828 1.94432e-21)
(0.675325 -0.0178687 6.33698e-21)
(-0.00882979 -0.00127145 4.25043e-21)
(1.05611 -0.458553 -4.39411e-21)
(1.06118 0.440006 -4.28994e-21)
(0.923996 0.438698 2.3413e-21)
(0.987949 -0.328437 2.22238e-21)
(0.055995 -0.0447695 0)
(0.419446 0.196133 5.87691e-21)
(0.35292 -0.169563 -1.23175e-20)
(0.605254 -0.0269716 1.04049e-20)
(0.958396 0.552662 -3.5293e-21)
(0.0356198 -0.0532944 -5.60811e-21)
(1.14247 -0.318538 -1.42702e-22)
(0.583269 0.27823 3.37451e-21)
(0.683292 -0.129746 0)
(0.232568 -0.123361 0)
(0.626663 0.129701 1.3974e-20)
(0.559403 -0.233494 -3.35963e-21)
(0.216992 0.0746392 0)
(0.824543 -0.457549 0)
(0.928096 0.221091 -9.05628e-21)
(0.137858 0.10939 6.27136e-21)
(0.940959 0.513563 0)
(-0.00988289 -0.0102219 1.72592e-21)
(1.10566 -0.375415 -1.98013e-21)
(0.938646 0.526486 -3.11377e-21)
(-0.00413881 -0.0150204 -5.51172e-21)
(1.12321 -0.358891 2.30145e-21)
(0.0303215 -0.0335267 -3.25597e-21)
(1.03873 -0.361328 4.0507e-21)
(0.974064 0.46213 1.13593e-20)
(0.797659 0.116831 4.22052e-21)
(0.657583 -0.390533 1.11352e-20)
(0.268393 0.17971 0)
(-0.0126332 -0.0049368 -1.58103e-21)
(1.07888 -0.371707 1.85474e-21)
(0.8982 0.503202 0)
(0.0246463 0.0113757 0)
(0.987468 -0.436823 4.27723e-21)
(1.01451 0.37991 1.39083e-21)
(-0.00864912 -0.00824337 -6.37871e-21)
(0.63056 -0.38097 -1.12131e-21)
(0.699372 0.296461 0)
(0.628568 0.37698 1.07781e-21)
(0.701605 -0.299215 0)
(-0.00814657 -0.000588877 -6.38619e-21)
(0.0432887 -0.0569292 2.00217e-24)
(1.10938 -0.322746 4.79737e-22)
(0.963346 0.533075 0)
(-0.0163779 -0.000478431 0)
(1.03651 -0.475035 0)
(1.06796 0.435839 -5.23686e-21)
(1.01456 0.487104 3.79838e-21)
(1.0087 0.476892 -3.07272e-21)
(0.00466963 -0.022596 6.16307e-21)
(1.09253 -0.39044 7.79331e-22)
(0.00964233 -0.0237346 0)
(1.07483 -0.388274 0)
(1.02108 0.360201 -2.73153e-21)
(0.974933 -0.45324 -2.89853e-21)
(0.0301884 0.0218911 0)
(0.225622 0.191576 0)
(0.799125 -0.524194 0)
(0.970271 0.163708 0)
(0.476698 0.175524 -7.31648e-21)
(0.263801 -0.0848482 1.6996e-20)
(0.561927 -0.0895388 -6.76859e-21)
(1.00657 0.311404 -7.90945e-21)
(0.930636 -0.470426 -1.12238e-21)
(0.0575329 0.0487509 -1.24937e-20)
(0.0752803 0.063044 -8.11452e-21)
(0.997502 0.291857 1.10031e-20)
(0.909417 -0.475771 1.55639e-21)
(0.940728 0.55908 -4.30613e-21)
(0.069892 -0.0820282 -6.06029e-21)
(1.12181 -0.284655 0)
(0.711481 0.446962 0)
(0.877987 -0.137089 -2.44472e-21)
(0.265427 -0.207417 1.43529e-20)
(0.649692 0.373811 0)
(0.794103 -0.122762 -1.18246e-20)
(0.268281 -0.190831 9.95966e-24)
(0.918408 0.301404 1.08568e-20)
(0.877639 -0.405307 -1.42003e-21)
(0.0724385 0.0353286 7.18215e-21)
(0.939598 0.295689 0)
(0.883469 -0.424608 -1.34436e-21)
(0.0751428 0.0456829 -6.57717e-21)
(0.392703 0.168503 0)
(0.359158 -0.156024 1.94324e-20)
(0.575557 -0.0159016 0)
(0.705554 0.383242 0)
(0.81777 -0.169273 6.54907e-21)
(0.203217 -0.145587 -2.17481e-21)
(0.0352574 0.0471568 1.28163e-20)
(0.957932 -0.561747 8.37673e-21)
(1.14013 0.312418 0)
(1.04926 0.398844 7.33681e-23)
(-0.0179881 -0.00440238 -3.9155e-21)
(0.931676 -0.493468 -1.52998e-21)
(1.03931 0.375663 2.36267e-22)
(-0.016797 -0.0063066 0)
(0.896872 -0.4936 4.26814e-21)
(0.528614 0.287624 -4.01537e-21)
(0.318727 -0.18938 2.10894e-21)
(0.694918 -0.0742979 1.68006e-22)
(0.905267 -0.456234 -2.29626e-22)
(-0.0185916 -0.00636006 -1.62035e-20)
(0.96335 0.412642 0)
(0.94906 0.463193 -9.95371e-21)
(0.046295 -0.0446961 0)
(1.02324 -0.33718 0)
(-0.0170937 -0.00876173 6.42362e-21)
(0.853744 -0.469701 1.90368e-21)
(0.95846 0.379916 -2.29823e-21)
(0.504512 0.102532 -9.76022e-21)
(0.252761 0.0204282 -1.02767e-20)
(0.48023 -0.131041 -4.74208e-23)
(0.763614 0.301853 1.68405e-21)
(0.785175 -0.269651 1.55382e-21)
(0.113048 -0.0274637 6.5651e-21)
(0.612281 -0.373476 -1.27868e-20)
(0.777282 0.0925447 -1.53603e-20)
(0.306401 0.203227 0)
(-0.00282913 0.0113024 0)
(0.961985 -0.529849 1.69248e-21)
(1.12613 0.360795 0)
(0.855609 -0.467092 0)
(0.956309 0.250638 0)
(0.111938 0.0901711 0)
(0.0196945 -0.0390022 0)
(0.97165 0.539834 3.08665e-21)
(1.13919 -0.339025 -2.55883e-21)
(0.807533 0.321337 0)
(0.821153 -0.296478 -7.89839e-22)
(0.0955198 -0.0202602 -4.45104e-24)
(0.458728 0.15514 7.06737e-21)
(0.270902 -0.0737459 -1.45957e-20)
(0.536639 -0.0822625 0)
(0.990445 -0.517471 6.60669e-21)
(1.10874 0.38522 -2.55688e-21)
(-0.00705549 0.00906561 0)
(0.0168574 -0.0056716 7.46521e-21)
(1.01377 -0.416732 -2.69235e-22)
(1.00713 0.417105 -2.62321e-22)
(0.979315 0.492618 0)
(0.964716 0.488705 -2.73469e-21)
(-0.0151772 -0.00733161 -3.96032e-21)
(-0.0171979 -0.00511368 4.89989e-21)
(1.08076 -0.406147 1.36393e-21)
(1.06276 -0.412012 -1.12175e-21)
(0.763184 0.204992 0)
(0.705265 -0.329733 -1.06294e-20)
(0.151742 0.0669025 -7.96357e-21)
(0.818361 -0.406762 -1.45809e-20)
(0.890021 0.245317 0)
(0.112211 0.0726361 8.70971e-21)
(0.588277 0.144576 7.94274e-21)
(0.558828 -0.19892 -5.70158e-21)
(0.200515 0.0327767 -1.2579e-20)
(0.955056 -0.508394 -3.74535e-21)
(1.08382 0.390805 -2.71466e-21)
(0.937373 -0.517925 1.71643e-21)
(-0.0152738 -0.000656871 4.14747e-21)
(1.09625 0.371491 2.5451e-21)
(-0.0116475 0.000517632 0)
(0.893714 0.36106 0)
(0.904259 -0.350367 0)
(0.0614961 -0.0104011 -8.12023e-21)
(1.09553 0.399904 -2.99585e-21)
(1.08513 0.401534 7.63599e-21)
(1.00127 -0.504731 -2.45131e-21)
(0.986392 -0.50086 6.47616e-21)
(-0.0129925 0.00400987 -1.09603e-20)
(-0.0159456 0.000593188 7.59893e-24)
(0.864915 0.227419 0)
(0.786623 -0.406751 1.37661e-20)
(0.138111 0.0931052 -1.12912e-20)
(0.714981 0.229997 -7.35939e-21)
(0.733122 -0.282392 9.46733e-21)
(0.122565 0.00833297 0)
(0.966634 0.530573 0)
(0.00134335 -0.02202 -7.61395e-22)
(1.13139 -0.362214 -2.2115e-21)
(0.767276 0.22643 -5.40527e-21)
(0.725654 -0.318051 0)
(0.134013 0.0481607 1.32012e-20)
(0.632326 0.172306 -3.20068e-21)
(0.608883 -0.230598 6.69065e-21)
(0.177695 0.0289752 -7.30021e-21)
(0.964185 0.504709 0)
(-0.0112232 -0.0103065 0)
(1.10286 -0.392042 3.12227e-21)
(0.816525 0.345195 0)
(0.852148 -0.287324 -1.60324e-21)
(0.0903975 -0.0365557 8.08046e-21)
(0.723943 -0.489216 0)
(0.907831 0.118128 0)
(0.300784 0.241835 4.31295e-22)
(0.618941 0.402172 4.41451e-22)
(0.820635 -0.0823345 0)
(0.348182 -0.261179 -7.55906e-21)
(0.909101 -0.561454 -5.8311e-21)
(0.11234 0.108598 0)
(1.07641 0.24548 0)
(-0.00623982 -0.00405192 1.53452e-20)
(0.59571 -0.29634 1.07261e-23)
(0.592979 0.293473 -1.55022e-23)
(0.788393 0.269932 0)
(0.768525 -0.30595 -5.81015e-21)
(0.108006 0.0120715 0)
(0.99769 0.512248 -5.92294e-21)
(0.00016699 -0.0216152 -2.07969e-20)
(1.11626 -0.378883 5.37756e-21)
(0.466279 -0.35412 0)
(0.842349 -0.0264781 5.64273e-21)
(0.54953 0.394944 0)
(0.748575 0.439131 0)
(-0.0134757 0.00163532 3.81413e-21)
(0.883517 -0.349634 0)
(0.293832 0.141767 -7.77197e-21)
(0.309188 0.164946 7.94925e-21)
(0.494148 -0.243784 0)
(0.635066 0.0683124 -6.66214e-21)
(0.511899 -0.271721 1.24001e-20)
(0.666494 0.0636545 5.31173e-21)
(0.584213 0.121106 -7.47327e-21)
(0.529117 -0.196903 -7.6587e-21)
(0.223541 0.0571744 0)
(0.370467 0.185317 -6.86448e-21)
(0.330251 0.157907 0)
(0.422199 -0.216527 0)
(0.625336 0.0145346 0)
(0.44206 -0.21323 7.09374e-21)
(0.611115 0.0365266 -4.49997e-23)
(0.753632 0.256826 -4.64476e-22)
(0.692213 -0.274128 4.17413e-21)
(0.141574 0.0237448 8.98725e-21)
(0.720581 0.215897 1.26423e-20)
(0.690899 -0.286405 0)
(0.147489 0.0393286 0)
(-0.0133942 -0.00401946 0)
(0.894758 -0.511542 0)
(1.07427 0.362117 -2.22496e-21)
(0.569073 0.299747 1.10288e-20)
(0.706341 -0.0993357 0)
(0.278415 -0.164855 -3.90348e-21)
(1.08447 0.415324 7.13355e-21)
(1.02442 -0.492432 -3.12823e-21)
(-0.0135958 0.00372475 6.25796e-21)
(0.93492 0.331117 0)
(0.966746 0.346622 -5.77549e-21)
(0.909493 -0.399595 1.7704e-21)
(0.938443 -0.415813 -5.3946e-21)
(0.055541 0.0208281 8.92405e-21)
(0.0447097 0.0194425 8.25024e-21)
(0.555622 0.274437 0)
(0.677818 -0.10644 0)
(0.263413 -0.144092 -1.85218e-21)
(0.748013 0.430983 -4.25435e-21)
(0.874633 -0.176347 0)
(0.205671 -0.156964 -4.78065e-21)
(0.870003 0.313943 3.10481e-21)
(0.856289 -0.35886 0)
(0.0737282 0.0140695 -8.20657e-21)
(0.395706 0.101227 -7.67335e-21)
(0.483564 -0.0401111 -3.71799e-21)
(0.311698 -0.0717851 -3.93124e-21)
(0.980576 0.319101 0)
(0.923234 -0.445671 0)
(0.0567565 0.0400912 1.32854e-20)
(0.451645 0.179079 0)
(0.29271 -0.112294 -2.14548e-21)
(0.569488 -0.0648762 0)
(0.860205 0.247665 7.05806e-21)
(0.796966 -0.388164 7.64418e-21)
(0.11564 0.0628508 1.13227e-21)
(0.746353 0.408884 -4.2948e-21)
(0.857245 -0.189155 -7.46166e-21)
(0.184252 -0.137742 0)
(0.408465 0.127297 7.6057e-21)
(0.389807 0.129907 3.39503e-21)
(0.512179 -0.0486691 -3.62094e-21)
(0.306084 -0.0882209 7.78167e-21)
(0.525763 -0.031114 0)
(0.328926 -0.111759 1.38528e-20)
(0.356075 0.146522 3.43269e-21)
(0.387268 -0.168239 -9.0569e-21)
(0.332314 0.145228 -2.20894e-21)
(0.568862 0.00770241 0)
(0.432922 -0.198707 -4.53167e-21)
(0.592868 0.0326696 7.62755e-21)
(0.635392 0.312892 -3.9995e-21)
(0.676471 0.321941 0)
(0.730169 -0.154174 -7.12288e-21)
(0.751852 -0.18213 5.56081e-21)
(0.208814 -0.117406 1.74582e-20)
(0.178217 -0.0950624 -1.45192e-20)
(0.0447996 -0.052736 0)
(1.06492 -0.32911 2.43591e-21)
(0.9604 0.49747 5.74567e-21)
(0.328227 0.254886 -1.45735e-20)
(0.871578 0.0971809 -6.45507e-21)
(0.680778 -0.460105 1.32321e-20)
(0.0294516 -0.0419384 7.05279e-21)
(0.0219077 -0.0334474 0)
(1.07949 -0.351047 -2.10732e-21)
(1.06614 -0.367375 -3.7037e-21)
(0.978938 0.50052 -1.45364e-20)
(0.989661 0.482577 7.53013e-21)
(0.443663 0.308565 0)
(0.518066 -0.3531 7.2623e-21)
(0.786551 0.0188694 -1.52586e-21)
(0.391112 0.0568437 -1.61818e-20)
(0.324578 -0.029686 0)
(0.428956 -0.0354151 1.27517e-20)
(0.991083 0.341516 2.71027e-21)
(0.945922 -0.440701 6.09116e-21)
(0.0436561 0.0282327 0)
(0.507621 0.246348 0)
(0.293471 -0.158164 1.76485e-21)
(0.64861 -0.0766191 6.2038e-21)
(0.771925 0.416124 0)
(0.875812 -0.206661 0)
(0.163514 -0.122353 1.14703e-21)
(0.921573 0.500375 0)
(0.920774 0.481448 0)
(1.0392 -0.292114 -1.3791e-21)
(0.0793382 -0.078705 8.67985e-21)
(1.02198 -0.300269 3.76164e-21)
(0.0721899 -0.0689403 -1.17512e-20)
(0.92499 0.361502 -5.82443e-21)
(0.927154 -0.371938 -5.73614e-21)
(0.0498112 -0.00115529 -3.88598e-21)
(0.819949 0.452323 -2.48964e-21)
(0.93887 -0.374941 0)
(-0.0157266 0.000138089 4.68113e-21)
(0.491661 -0.362649 0)
(0.824661 -0.0082341 -4.59873e-21)
(0.509627 0.364069 0)
(0.58253 0.407782 -4.4552e-21)
(0.561097 0.383631 4.83273e-21)
(0.421224 -0.319881 4.69717e-21)
(0.838312 -0.0481534 0)
(0.421325 -0.309135 0)
(0.81426 -0.0450238 0)
(0.997406 0.259713 9.55135e-21)