/*--------------------------------*- C++ -*----------------------------------*\
  =========                 |
  \\      /  F ield         | OpenFOAM: The Open Source CFD Toolbox
   \\    /   O peration     | Website:  https://openfoam.org
    \\  /    A nd           | Version:  6
     \\/     M anipulation  |
\*---------------------------------------------------------------------------*/
FoamFile
{
    version     2.0;
    format      ascii;
    class       volScalarField;
    location    "./ITHACAoutput/Offline/1";
    object      nutRec;
}
// * * * * * * * * * * * * * * * * * * * * * * * * * * * * * * * * * * * * * //

dimensions      [0 2 -1 0 0 0 0];

internalField   nonuniform List<scalar> 
115600
(
8.15737e-10
2.34275e-10
2.04972e-10
1.94792e-10
1.84249e-10
1.7071e-10
1.56258e-10
1.42562e-10
1.30902e-10
1.20668e-10
1.11716e-10
1.03915e-10
9.71339e-11
9.12479e-11
8.61425e-11
8.17173e-11
7.78855e-11
7.45719e-11
7.17109e-11
6.92457e-11
6.71271e-11
6.53128e-11
6.37676e-11
6.24617e-11
6.13709e-11
6.04749e-11
5.97568e-11
5.92016e-11
5.8796e-11
5.85271e-11
5.83828e-11
5.83524e-11
5.84599e-11
5.87154e-11
5.90712e-11
5.95081e-11
6.00133e-11
6.05768e-11
6.11901e-11
6.1846e-11
6.25373e-11
6.32585e-11
6.40041e-11
6.47703e-11
6.55545e-11
6.63568e-11
6.71806e-11
6.80363e-11
6.89431e-11
6.99451e-11
7.11134e-11
7.26612e-11
7.49508e-11
7.97753e-11
9.40909e-11
1.7749e-10
5.192e-08
2.86426e-08
2.54863e-08
2.4193e-08
2.262e-08
2.05407e-08
1.82968e-08
1.61787e-08
1.43835e-08
1.28664e-08
1.15883e-08
1.05127e-08
9.60718e-09
8.84347e-09
8.19795e-09
7.65131e-09
7.18782e-09
6.79462e-09
6.46107e-09
6.17826e-09
5.93874e-09
5.73629e-09
5.56579e-09
5.42304e-09
5.30466e-09
5.20793e-09
5.13065e-09
5.07102e-09
5.02749e-09
4.99864e-09
4.98316e-09
4.97992e-09
4.99065e-09
5.01608e-09
5.05238e-09
5.0975e-09
5.15006e-09
5.20898e-09
5.27337e-09
5.34245e-09
5.41553e-09
5.49195e-09
5.57114e-09
5.65258e-09
5.7359e-09
5.82089e-09
5.90766e-09
5.99692e-09
6.09025e-09
6.19122e-09
6.30659e-09
6.45383e-09
6.67013e-09
7.09622e-09
8.30189e-09
1.26316e-08
2.69758e-07
2.63749e-07
2.66467e-07
2.63886e-07
2.53648e-07
2.37243e-07
2.17818e-07
1.97943e-07
1.79322e-07
1.62702e-07
1.48034e-07
1.35188e-07
1.23993e-07
1.14265e-07
1.05831e-07
9.85382e-08
9.22494e-08
8.6846e-08
8.2221e-08
7.82777e-08
7.49292e-08
7.20978e-08
6.97163e-08
6.77272e-08
6.60828e-08
6.47446e-08
6.36812e-08
6.28674e-08
6.22818e-08
6.19054e-08
6.17204e-08
6.17116e-08
6.18876e-08
6.22502e-08
6.27637e-08
6.34017e-08
6.41435e-08
6.49725e-08
6.58748e-08
6.68379e-08
6.78506e-08
6.89017e-08
6.99806e-08
7.10771e-08
7.21811e-08
7.32842e-08
7.43803e-08
7.54678e-08
7.65535e-08
7.76599e-08
7.8842e-08
8.02319e-08
8.21773e-08
8.56646e-08
9.49675e-08
1.17237e-07
5.40602e-07
6.57938e-07
7.10915e-07
7.22703e-07
7.09468e-07
6.80866e-07
6.44425e-07
6.05515e-07
5.67698e-07
5.32629e-07
5.00835e-07
4.72256e-07
4.46716e-07
4.23956e-07
4.03715e-07
3.85767e-07
3.69916e-07
3.55989e-07
3.43832e-07
3.33289e-07
3.24214e-07
3.1646e-07
3.09893e-07
3.04386e-07
2.99831e-07
2.96138e-07
2.93232e-07
2.91053e-07
2.89549e-07
2.88672e-07
2.88375e-07
2.88613e-07
2.89375e-07
2.90638e-07
2.92323e-07
2.94355e-07
2.96666e-07
2.99199e-07
3.01905e-07
3.0474e-07
3.07664e-07
3.10637e-07
3.13622e-07
3.16579e-07
3.19469e-07
3.22252e-07
3.24892e-07
3.27359e-07
3.29634e-07
3.31723e-07
3.33681e-07
3.35678e-07
3.38253e-07
3.42813e-07
3.56056e-07
3.87447e-07
7.47868e-07
1.0151e-06
1.15987e-06
1.21663e-06
1.22152e-06
1.1961e-06
1.15404e-06
1.10438e-06
1.05309e-06
1.00358e-06
9.57412e-07
9.15072e-07
8.76647e-07
8.41981e-07
8.10856e-07
7.8305e-07
7.58359e-07
7.36587e-07
7.17541e-07
7.01022e-07
6.86822e-07
6.74729e-07
6.64537e-07
6.56052e-07
6.49099e-07
6.43528e-07
6.3922e-07
6.36073e-07
6.34004e-07
6.32935e-07
6.32791e-07
6.33498e-07
6.35006e-07
6.37263e-07
6.40157e-07
6.43579e-07
6.47423e-07
6.51599e-07
6.56026e-07
6.60633e-07
6.65355e-07
6.70129e-07
6.74892e-07
6.79578e-07
6.84119e-07
6.88448e-07
6.92497e-07
6.96206e-07
6.99525e-07
7.0243e-07
7.04952e-07
7.07266e-07
7.09917e-07
7.14605e-07
7.28877e-07
7.66902e-07
8.91455e-07
1.25836e-06
1.49927e-06
1.62275e-06
1.66998e-06
1.6704e-06
1.64305e-06
1.60031e-06
1.55026e-06
1.49822e-06
1.44698e-06
1.39818e-06
1.35247e-06
1.31015e-06
1.2713e-06
1.23596e-06
1.20411e-06
1.17568e-06
1.15057e-06
1.12863e-06
1.10966e-06
1.09346e-06
1.07979e-06
1.06842e-06
1.05914e-06
1.05176e-06
1.04612e-06
1.04209e-06
1.03958e-06
1.03845e-06
1.03863e-06
1.04e-06
1.04248e-06
1.04596e-06
1.05032e-06
1.05543e-06
1.06114e-06
1.06734e-06
1.07391e-06
1.08076e-06
1.0878e-06
1.09494e-06
1.1021e-06
1.10918e-06
1.1161e-06
1.12276e-06
1.12907e-06
1.13495e-06
1.14035e-06
1.14522e-06
1.1496e-06
1.1537e-06
1.15817e-06
1.16498e-06
1.18262e-06
1.22649e-06
1.0013e-06
1.3886e-06
1.69681e-06
1.88606e-06
1.98649e-06
2.02789e-06
2.03161e-06
2.01207e-06
1.9789e-06
1.93856e-06
1.89525e-06
1.85115e-06
1.80792e-06
1.76634e-06
1.72698e-06
1.69024e-06
1.65642e-06
1.62569e-06
1.59817e-06
1.57384e-06
1.55265e-06
1.53442e-06
1.51902e-06
1.50623e-06
1.49584e-06
1.48769e-06
1.48162e-06
1.4775e-06
1.4752e-06
1.47464e-06
1.47569e-06
1.47824e-06
1.48216e-06
1.48731e-06
1.49357e-06
1.50077e-06
1.50877e-06
1.51743e-06
1.52662e-06
1.53622e-06
1.54612e-06
1.55622e-06
1.56642e-06
1.57659e-06
1.58664e-06
1.59646e-06
1.60595e-06
1.61503e-06
1.62361e-06
1.63168e-06
1.63932e-06
1.64676e-06
1.65481e-06
1.66549e-06
1.68809e-06
1.73585e-06
1.10956e-06
1.43558e-06
1.76629e-06
2.00459e-06
2.15648e-06
2.24421e-06
2.28763e-06
2.30144e-06
2.29599e-06
2.27843e-06
2.25359e-06
2.22457e-06
2.1933e-06
2.16123e-06
2.1294e-06
2.09859e-06
2.06941e-06
2.04233e-06
2.01765e-06
1.99561e-06
1.97627e-06
1.95966e-06
1.94567e-06
1.93422e-06
1.92517e-06
1.91838e-06
1.91374e-06
1.91117e-06
1.91056e-06
1.91183e-06
1.91489e-06
1.91963e-06
1.9259e-06
1.93355e-06
1.94245e-06
1.95245e-06
1.9634e-06
1.97514e-06
1.98755e-06
2.00051e-06
2.01386e-06
2.02754e-06
2.0414e-06
2.05532e-06
2.06921e-06
2.08294e-06
2.09639e-06
2.1095e-06
2.12218e-06
2.13447e-06
2.14642e-06
2.15832e-06
2.17111e-06
2.18662e-06
2.21452e-06
2.26443e-06
1.24331e-06
1.43652e-06
1.73673e-06
1.99609e-06
2.1884e-06
2.32043e-06
2.40606e-06
2.45812e-06
2.48653e-06
2.4986e-06
2.49951e-06
2.49283e-06
2.48079e-06
2.46533e-06
2.44791e-06
2.42961e-06
2.4113e-06
2.39369e-06
2.3773e-06
2.36255e-06
2.34968e-06
2.33886e-06
2.33015e-06
2.32353e-06
2.31896e-06
2.31639e-06
2.31578e-06
2.31707e-06
2.32023e-06
2.32521e-06
2.33197e-06
2.3404e-06
2.35039e-06
2.36179e-06
2.37447e-06
2.3883e-06
2.40314e-06
2.41884e-06
2.43528e-06
2.45233e-06
2.46988e-06
2.48781e-06
2.506e-06
2.52433e-06
2.54269e-06
2.56095e-06
2.57903e-06
2.59682e-06
2.61429e-06
2.63143e-06
2.64838e-06
2.66538e-06
2.68342e-06
2.70399e-06
2.73661e-06
2.78742e-06
1.42008e-06
1.42934e-06
1.64601e-06
1.88837e-06
2.10064e-06
2.26804e-06
2.39341e-06
2.48457e-06
2.54952e-06
2.59491e-06
2.62585e-06
2.6461e-06
2.65827e-06
2.66459e-06
2.66676e-06
2.66614e-06
2.66376e-06
2.66053e-06
2.65717e-06
2.65423e-06
2.65212e-06
2.65117e-06
2.65151e-06
2.65329e-06
2.65653e-06
2.66128e-06
2.66754e-06
2.67534e-06
2.68469e-06
2.69562e-06
2.70809e-06
2.7221e-06
2.73752e-06
2.75423e-06
2.77213e-06
2.79112e-06
2.81106e-06
2.83183e-06
2.85332e-06
2.87542e-06
2.89802e-06
2.92101e-06
2.94428e-06
2.96771e-06
2.9912e-06
3.01463e-06
3.03791e-06
3.06096e-06
3.08372e-06
3.10621e-06
3.12854e-06
3.15094e-06
3.17436e-06
3.1998e-06
3.23631e-06
3.28718e-06
1.64884e-06
1.44717e-06
1.53925e-06
1.72087e-06
1.92164e-06
2.10642e-06
2.26266e-06
2.38942e-06
2.49033e-06
2.57006e-06
2.63306e-06
2.68293e-06
2.72251e-06
2.75414e-06
2.77964e-06
2.80049e-06
2.81792e-06
2.83292e-06
2.84638e-06
2.85897e-06
2.87127e-06
2.88367e-06
2.89647e-06
2.90989e-06
2.92405e-06
2.93905e-06
2.95499e-06
2.97193e-06
2.98996e-06
3.00915e-06
3.02952e-06
3.05111e-06
3.07384e-06
3.09762e-06
3.12238e-06
3.14804e-06
3.17449e-06
3.20163e-06
3.22937e-06
3.25762e-06
3.28627e-06
3.31526e-06
3.34447e-06
3.37379e-06
3.40314e-06
3.4324e-06
3.46148e-06
3.49031e-06
3.51884e-06
3.54707e-06
3.57509e-06
3.60305e-06
3.6318e-06
3.66185e-06
3.70146e-06
3.75193e-06
1.93944e-06
1.51641e-06
1.4636e-06
1.5461e-06
1.69542e-06
1.86766e-06
2.0361e-06
2.18789e-06
2.31934e-06
2.43117e-06
2.52595e-06
2.60646e-06
2.67522e-06
2.73436e-06
2.7857e-06
2.83072e-06
2.87075e-06
2.90688e-06
2.94008e-06
2.97114e-06
3.00074e-06
3.02938e-06
3.05746e-06
3.08527e-06
3.11303e-06
3.1409e-06
3.16904e-06
3.19757e-06
3.22662e-06
3.25629e-06
3.28667e-06
3.31784e-06
3.34979e-06
3.38242e-06
3.41573e-06
3.44965e-06
3.4841e-06
3.51901e-06
3.5543e-06
3.58991e-06
3.62575e-06
3.66176e-06
3.69786e-06
3.73396e-06
3.76996e-06
3.80577e-06
3.84131e-06
3.8765e-06
3.91128e-06
3.94564e-06
3.97964e-06
4.01333e-06
4.04739e-06
4.08181e-06
4.12397e-06
4.17386e-06
2.31283e-06
1.66102e-06
1.46103e-06
1.42356e-06
1.48422e-06
1.60446e-06
1.7531e-06
1.90781e-06
2.05607e-06
2.19236e-06
2.31506e-06
2.42465e-06
2.52234e-06
2.60963e-06
2.68798e-06
2.75876e-06
2.82322e-06
2.88248e-06
2.93753e-06
2.98924e-06
3.03836e-06
3.08546e-06
3.13106e-06
3.1755e-06
3.21908e-06
3.26201e-06
3.30452e-06
3.34674e-06
3.38886e-06
3.43102e-06
3.47336e-06
3.51597e-06
3.55891e-06
3.60212e-06
3.64562e-06
3.68936e-06
3.7333e-06
3.77737e-06
3.82155e-06
3.86576e-06
3.90996e-06
3.9541e-06
3.99809e-06
4.04189e-06
4.08541e-06
4.12856e-06
4.17125e-06
4.21343e-06
4.25501e-06
4.29594e-06
4.33625e-06
4.37586e-06
4.41528e-06
4.454e-06
4.49842e-06
4.54785e-06
2.80254e-06
1.91056e-06
1.56777e-06
1.40812e-06
1.35989e-06
1.39217e-06
1.4801e-06
1.60233e-06
1.74114e-06
1.8839e-06
2.02297e-06
2.15446e-06
2.27687e-06
2.39002e-06
2.4944e-06
2.59083e-06
2.68019e-06
2.76345e-06
2.84152e-06
2.91523e-06
2.98534e-06
3.0525e-06
3.11723e-06
3.17998e-06
3.24107e-06
3.30079e-06
3.35937e-06
3.41702e-06
3.47393e-06
3.53028e-06
3.58623e-06
3.64191e-06
3.69742e-06
3.75277e-06
3.80795e-06
3.86296e-06
3.91777e-06
3.97235e-06
4.02668e-06
4.08072e-06
4.13443e-06
4.18777e-06
4.2407e-06
4.29315e-06
4.34506e-06
4.39635e-06
4.44694e-06
4.49676e-06
4.54571e-06
4.59371e-06
4.64072e-06
4.68656e-06
4.73148e-06
4.77457e-06
4.82125e-06
4.87052e-06
3.45849e-06
2.31548e-06
1.82942e-06
1.55113e-06
1.3902e-06
1.31604e-06
1.31115e-06
1.36113e-06
1.45117e-06
1.56713e-06
1.69709e-06
1.83224e-06
1.96678e-06
2.09734e-06
2.22219e-06
2.3407e-06
2.45284e-06
2.55896e-06
2.65959e-06
2.75534e-06
2.84685e-06
2.9347e-06
3.01942e-06
3.10142e-06
3.18111e-06
3.25874e-06
3.33462e-06
3.40894e-06
3.48192e-06
3.55376e-06
3.62465e-06
3.69471e-06
3.76408e-06
3.83284e-06
3.90097e-06
3.9685e-06
4.03541e-06
4.10168e-06
4.16731e-06
4.23228e-06
4.29656e-06
4.36013e-06
4.42294e-06
4.48496e-06
4.54612e-06
4.60635e-06
4.66557e-06
4.7237e-06
4.78062e-06
4.83622e-06
4.89036e-06
4.94276e-06
4.99347e-06
5.04115e-06
5.0903e-06
5.13995e-06
4.38476e-06
2.97848e-06
2.33181e-06
1.92673e-06
1.64825e-06
1.45947e-06
1.3449e-06
1.29431e-06
1.29788e-06
1.34538e-06
1.42644e-06
1.53111e-06
1.65063e-06
1.77805e-06
1.90829e-06
2.03801e-06
2.16517e-06
2.28868e-06
2.40807e-06
2.52329e-06
2.6345e-06
2.74199e-06
2.84611e-06
2.94717e-06
3.0455e-06
3.14134e-06
3.23492e-06
3.32649e-06
3.41622e-06
3.50431e-06
3.59093e-06
3.67624e-06
3.76037e-06
3.84343e-06
3.92546e-06
4.00645e-06
4.0864e-06
4.1653e-06
4.24317e-06
4.31998e-06
4.39572e-06
4.47038e-06
4.54392e-06
4.6163e-06
4.68747e-06
4.75737e-06
4.82589e-06
4.89295e-06
4.95841e-06
5.02211e-06
5.08386e-06
5.14323e-06
5.20003e-06
5.25266e-06
5.30472e-06
5.35544e-06
5.73349e-06
4.05298e-06
3.20806e-06
2.64951e-06
2.23613e-06
1.919e-06
1.6792e-06
1.50818e-06
1.39905e-06
1.34467e-06
1.3375e-06
1.36978e-06
1.43373e-06
1.52183e-06
1.62719e-06
1.74389e-06
1.86722e-06
1.99374e-06
2.12101e-06
2.2475e-06
2.37226e-06
2.4948e-06
2.61488e-06
2.73245e-06
2.84754e-06
2.96022e-06
3.0706e-06
3.17878e-06
3.2849e-06
3.38909e-06
3.49148e-06
3.59219e-06
3.69134e-06
3.78903e-06
3.88533e-06
3.98025e-06
4.07377e-06
4.16588e-06
4.25656e-06
4.34581e-06
4.43362e-06
4.51998e-06
4.60484e-06
4.68819e-06
4.76996e-06
4.85008e-06
4.92846e-06
5.00497e-06
5.07947e-06
5.15173e-06
5.22149e-06
5.28821e-06
5.3515e-06
5.40949e-06
5.46503e-06
5.51769e-06
7.47895e-06
5.60074e-06
4.54273e-06
3.81088e-06
3.24855e-06
2.79172e-06
2.41504e-06
2.10835e-06
1.86658e-06
1.68554e-06
1.56044e-06
1.48571e-06
1.45526e-06
1.46289e-06
1.50245e-06
1.56792e-06
1.65366e-06
1.75456e-06
1.86621e-06
1.98505e-06
2.10835e-06
2.23406e-06
2.36074e-06
2.48743e-06
2.61343e-06
2.73832e-06
2.86178e-06
2.98367e-06
3.10386e-06
3.2223e-06
3.33902e-06
3.45401e-06
3.56733e-06
3.67902e-06
3.78911e-06
3.89761e-06
4.00451e-06
4.10973e-06
4.21324e-06
4.31502e-06
4.41504e-06
4.51328e-06
4.60971e-06
4.70428e-06
4.79692e-06
4.88756e-06
4.97609e-06
5.06236e-06
5.1462e-06
5.22732e-06
5.30541e-06
5.3798e-06
5.44992e-06
5.51373e-06
5.57343e-06
5.62898e-06
9.22427e-06
7.40744e-06
6.22105e-06
5.35121e-06
4.66154e-06
4.08274e-06
3.58448e-06
3.15254e-06
2.78066e-06
2.4663e-06
2.20794e-06
2.00367e-06
1.85059e-06
1.74485e-06
1.6819e-06
1.65691e-06
1.66492e-06
1.70104e-06
1.76057e-06
1.83906e-06
1.93248e-06
2.03731e-06
2.15057e-06
2.26983e-06
2.39318e-06
2.51914e-06
2.64659e-06
2.77467e-06
2.90275e-06
3.03035e-06
3.15716e-06
3.28292e-06
3.40747e-06
3.5307e-06
3.65252e-06
3.77285e-06
3.89164e-06
4.00878e-06
4.12414e-06
4.23764e-06
4.34921e-06
4.45881e-06
4.56637e-06
4.67183e-06
4.77511e-06
4.87609e-06
4.97465e-06
5.07062e-06
5.16378e-06
5.25382e-06
5.3403e-06
5.42251e-06
5.49971e-06
5.56975e-06
5.63431e-06
5.69373e-06
1.05517e-05
9.0926e-06
7.95382e-06
7.04711e-06
6.29667e-06
5.64843e-06
5.07512e-06
4.56112e-06
4.09802e-06
3.682e-06
3.31188e-06
2.98783e-06
2.71021e-06
2.47894e-06
2.29308e-06
2.15076e-06
2.04928e-06
1.98533e-06
1.95526e-06
1.95526e-06
1.98145e-06
2.03008e-06
2.09755e-06
2.18052e-06
2.27599e-06
2.3813e-06
2.49417e-06
2.61272e-06
2.73538e-06
2.86091e-06
2.9883e-06
3.11678e-06
3.24572e-06
3.37466e-06
3.50322e-06
3.63108e-06
3.75802e-06
3.88382e-06
4.00826e-06
4.13111e-06
4.25218e-06
4.37135e-06
4.48851e-06
4.60354e-06
4.7163e-06
4.82665e-06
4.93442e-06
5.0394e-06
5.1413e-06
5.23978e-06
5.33434e-06
5.42416e-06
5.50841e-06
5.58491e-06
5.65493e-06
5.71919e-06
1.13771e-05
1.04001e-05
9.47138e-06
8.64924e-06
7.9264e-06
7.27836e-06
6.68962e-06
6.14895e-06
5.64876e-06
5.1845e-06
4.75397e-06
4.35663e-06
3.99311e-06
3.6646e-06
3.37249e-06
3.11788e-06
2.9014e-06
2.72294e-06
2.5816e-06
2.47582e-06
2.40347e-06
2.36198e-06
2.34853e-06
2.36015e-06
2.39382e-06
2.44659e-06
2.51561e-06
2.59822e-06
2.69202e-06
2.79483e-06
2.90483e-06
3.02038e-06
3.14017e-06
3.26309e-06
3.38821e-06
3.51478e-06
3.64218e-06
3.76987e-06
3.89746e-06
4.02448e-06
4.15054e-06
4.27535e-06
4.39865e-06
4.52021e-06
4.6398e-06
4.75718e-06
4.87211e-06
4.9843e-06
5.09343e-06
5.19906e-06
5.30063e-06
5.39727e-06
5.48806e-06
5.57084e-06
5.64668e-06
5.71657e-06
1.18309e-05
1.1288e-05
1.06436e-05
9.99531e-06
9.37846e-06
8.79679e-06
8.24947e-06
7.73343e-06
7.24518e-06
6.78183e-06
6.34147e-06
5.92309e-06
5.52659e-06
5.15259e-06
4.80226e-06
4.47714e-06
4.17894e-06
3.90935e-06
3.66982e-06
3.46139e-06
3.28459e-06
3.13934e-06
3.02502e-06
2.94045e-06
2.88402e-06
2.85376e-06
2.84748e-06
2.86282e-06
2.89736e-06
2.9487e-06
3.01454e-06
3.09268e-06
3.18117e-06
3.27821e-06
3.38221e-06
3.49179e-06
3.60575e-06
3.72307e-06
3.84285e-06
3.96437e-06
4.08687e-06
4.20978e-06
4.33257e-06
4.45477e-06
4.57598e-06
4.69581e-06
4.81385e-06
4.92972e-06
5.04297e-06
5.15307e-06
5.25938e-06
5.361e-06
5.45693e-06
5.54513e-06
5.62658e-06
5.70245e-06
1.20653e-05
1.18394e-05
1.14695e-05
1.10301e-05
1.05668e-05
1.00993e-05
9.63786e-06
9.18738e-06
8.74957e-06
8.32469e-06
7.91252e-06
7.51279e-06
7.12546e-06
6.75078e-06
6.3894e-06
6.04228e-06
5.71073e-06
5.39629e-06
5.10067e-06
4.82566e-06
4.57299e-06
4.34425e-06
4.14072e-06
3.96333e-06
3.81256e-06
3.68842e-06
3.59046e-06
3.5178e-06
3.46921e-06
3.44315e-06
3.43787e-06
3.4515e-06
3.48208e-06
3.5277e-06
3.58646e-06
3.6566e-06
3.73645e-06
3.82449e-06
3.91933e-06
4.01975e-06
4.12464e-06
4.23298e-06
4.34395e-06
4.45671e-06
4.57055e-06
4.68479e-06
4.79884e-06
4.91206e-06
5.02387e-06
5.13358e-06
5.24047e-06
5.34352e-06
5.44178e-06
5.53332e-06
5.61917e-06
5.70058e-06
1.21856e-05
1.2165e-05
1.20158e-05
1.17748e-05
1.14778e-05
1.11477e-05
1.07989e-05
1.04414e-05
1.00809e-05
9.72096e-06
9.36339e-06
9.00931e-06
8.65947e-06
8.31444e-06
7.97481e-06
7.64129e-06
7.31476e-06
6.99627e-06
6.68707e-06
6.38859e-06
6.10244e-06
5.83027e-06
5.57382e-06
5.33479e-06
5.11474e-06
4.91504e-06
4.7368e-06
4.58079e-06
4.44742e-06
4.33671e-06
4.24832e-06
4.18158e-06
4.13553e-06
4.10896e-06
4.10051e-06
4.1087e-06
4.132e-06
4.16885e-06
4.2177e-06
4.27709e-06
4.34557e-06
4.42183e-06
4.50477e-06
4.59324e-06
4.68617e-06
4.78258e-06
4.88154e-06
4.98217e-06
5.08365e-06
5.18512e-06
5.28567e-06
5.38424e-06
5.47987e-06
5.57081e-06
5.65824e-06
5.74332e-06
1.22511e-05
1.23552e-05
1.23646e-05
1.22873e-05
1.21437e-05
1.19513e-05
1.17236e-05
1.14718e-05
1.12038e-05
1.09247e-05
1.06383e-05
1.03471e-05
1.00526e-05
9.75627e-06
9.45888e-06
9.16131e-06
8.86433e-06
8.5688e-06
8.27561e-06
7.98581e-06
7.70058e-06
7.4212e-06
7.14909e-06
6.88578e-06
6.63285e-06
6.39192e-06
6.16455e-06
5.95221e-06
5.75627e-06
5.57783e-06
5.41781e-06
5.27679e-06
5.15511e-06
5.05279e-06
4.96956e-06
4.90491e-06
4.8581e-06
4.82823e-06
4.81422e-06
4.81493e-06
4.82906e-06
4.85531e-06
4.89248e-06
4.93953e-06
4.99521e-06
5.05835e-06
5.12784e-06
5.2026e-06
5.28157e-06
5.36371e-06
5.44802e-06
5.53335e-06
5.61879e-06
5.70278e-06
5.78672e-06
5.87161e-06
1.22913e-05
1.24699e-05
1.25861e-05
1.26321e-05
1.26154e-05
1.25459e-05
1.24332e-05
1.22871e-05
1.21151e-05
1.19233e-05
1.17162e-05
1.14968e-05
1.12678e-05
1.1031e-05
1.07877e-05
1.05391e-05
1.02861e-05
1.00295e-05
9.77022e-06
9.50905e-06
9.24689e-06
8.9847e-06
8.72358e-06
8.46466e-06
8.20923e-06
7.95863e-06
7.71428e-06
7.47763e-06
7.25012e-06
7.03319e-06
6.82819e-06
6.63636e-06
6.45879e-06
6.29639e-06
6.14985e-06
6.01966e-06
5.90607e-06
5.80911e-06
5.72861e-06
5.66415e-06
5.61519e-06
5.58089e-06
5.56032e-06
5.5528e-06
5.55741e-06
5.5732e-06
5.59916e-06
5.63427e-06
5.67748e-06
5.72776e-06
5.78411e-06
5.84542e-06
5.91095e-06
5.97941e-06
6.05246e-06
6.13096e-06
1.23197e-05
1.25438e-05
1.27296e-05
1.28634e-05
1.29443e-05
1.29759e-05
1.29635e-05
1.29138e-05
1.28332e-05
1.27269e-05
1.25995e-05
1.24543e-05
1.22943e-05
1.21216e-05
1.1938e-05
1.17448e-05
1.15433e-05
1.13343e-05
1.11187e-05
1.08973e-05
1.06709e-05
1.04404e-05
1.02065e-05
9.97012e-06
9.7323e-06
9.49405e-06
9.25648e-06
9.02079e-06
8.78822e-06
8.56005e-06
8.33759e-06
8.12215e-06
7.915e-06
7.71736e-06
7.53033e-06
7.35495e-06
7.19211e-06
7.04252e-06
6.90681e-06
6.78529e-06
6.67827e-06
6.58565e-06
6.507e-06
6.44209e-06
6.39069e-06
6.35243e-06
6.32679e-06
6.31315e-06
6.31082e-06
6.31906e-06
6.33717e-06
6.36437e-06
6.40022e-06
6.4439e-06
6.49745e-06
6.56172e-06
1.2342e-05
1.25955e-05
1.28267e-05
1.30209e-05
1.31735e-05
1.32837e-05
1.33532e-05
1.3386e-05
1.33862e-05
1.3358e-05
1.33053e-05
1.32313e-05
1.31388e-05
1.303e-05
1.29068e-05
1.27708e-05
1.26232e-05
1.24651e-05
1.22975e-05
1.21212e-05
1.1937e-05
1.17455e-05
1.15477e-05
1.13441e-05
1.11355e-05
1.09229e-05
1.07071e-05
1.04889e-05
1.02694e-05
1.00497e-05
9.83082e-06
9.61387e-06
9.40006e-06
9.19051e-06
8.98641e-06
8.7889e-06
8.59905e-06
8.41791e-06
8.24648e-06
8.08551e-06
7.93592e-06
7.79821e-06
7.67235e-06
7.55853e-06
7.45721e-06
7.36865e-06
7.29295e-06
7.23013e-06
7.18007e-06
7.14264e-06
7.11763e-06
7.10486e-06
7.10447e-06
7.11626e-06
7.14277e-06
7.1852e-06
1.23605e-05
1.26342e-05
1.28953e-05
1.31308e-05
1.33345e-05
1.35034e-05
1.3637e-05
1.37366e-05
1.38047e-05
1.38441e-05
1.38578e-05
1.38484e-05
1.38182e-05
1.37694e-05
1.37039e-05
1.36231e-05
1.35284e-05
1.3421e-05
1.33018e-05
1.31718e-05
1.30316e-05
1.28822e-05
1.2724e-05
1.25579e-05
1.23845e-05
1.22045e-05
1.20185e-05
1.18275e-05
1.1632e-05
1.1433e-05
1.12313e-05
1.10278e-05
1.08236e-05
1.06196e-05
1.04167e-05
1.02163e-05
1.00191e-05
9.82623e-06
9.63885e-06
9.45787e-06
9.2845e-06
9.11948e-06
8.9628e-06
8.81523e-06
8.67758e-06
8.55055e-06
8.43476e-06
8.33076e-06
8.23904e-06
8.16005e-06
8.09424e-06
8.04209e-06
8.00442e-06
7.98175e-06
7.97723e-06
7.99273e-06
1.23758e-05
1.26639e-05
1.29454e-05
1.32088e-05
1.34482e-05
1.36598e-05
1.38417e-05
1.39935e-05
1.41164e-05
1.42119e-05
1.42819e-05
1.43284e-05
1.43534e-05
1.43585e-05
1.43454e-05
1.43156e-05
1.42704e-05
1.42108e-05
1.41379e-05
1.40524e-05
1.39555e-05
1.38477e-05
1.37296e-05
1.36021e-05
1.34657e-05
1.33209e-05
1.31684e-05
1.30088e-05
1.28429e-05
1.26712e-05
1.24945e-05
1.23134e-05
1.21289e-05
1.19416e-05
1.17525e-05
1.15623e-05
1.13721e-05
1.11829e-05
1.09954e-05
1.08108e-05
1.06301e-05
1.04543e-05
1.02834e-05
1.01182e-05
9.95994e-06
9.80934e-06
9.66734e-06
9.53484e-06
9.41273e-06
9.30192e-06
9.20337e-06
9.11812e-06
9.0476e-06
8.99298e-06
8.95791e-06
8.94524e-06
1.2388e-05
1.26865e-05
1.29818e-05
1.3264e-05
1.35282e-05
1.37699e-05
1.3987e-05
1.41784e-05
1.4344e-05
1.44844e-05
1.46006e-05
1.46939e-05
1.47657e-05
1.48174e-05
1.48503e-05
1.48657e-05
1.48648e-05
1.48485e-05
1.4818e-05
1.4774e-05
1.47173e-05
1.46488e-05
1.4569e-05
1.44787e-05
1.43784e-05
1.42686e-05
1.41501e-05
1.40233e-05
1.38887e-05
1.37471e-05
1.35987e-05
1.34445e-05
1.32849e-05
1.31206e-05
1.29524e-05
1.27809e-05
1.26069e-05
1.24312e-05
1.22547e-05
1.20783e-05
1.19028e-05
1.17289e-05
1.1557e-05
1.13881e-05
1.1223e-05
1.10627e-05
1.09081e-05
1.07603e-05
1.06204e-05
1.04894e-05
1.03689e-05
1.02598e-05
1.01643e-05
1.00838e-05
1.00224e-05
9.98392e-06
1.23971e-05
1.27026e-05
1.30068e-05
1.33013e-05
1.35818e-05
1.38443e-05
1.40864e-05
1.43068e-05
1.45045e-05
1.46795e-05
1.48322e-05
1.49633e-05
1.50737e-05
1.51643e-05
1.52363e-05
1.52906e-05
1.53281e-05
1.53501e-05
1.5357e-05
1.53499e-05
1.53296e-05
1.52968e-05
1.52521e-05
1.51962e-05
1.51297e-05
1.50531e-05
1.49669e-05
1.48717e-05
1.4768e-05
1.46564e-05
1.45372e-05
1.4411e-05
1.42784e-05
1.41398e-05
1.39959e-05
1.38473e-05
1.36946e-05
1.35383e-05
1.33793e-05
1.32185e-05
1.30562e-05
1.28931e-05
1.27298e-05
1.25669e-05
1.24056e-05
1.22463e-05
1.20904e-05
1.19386e-05
1.1792e-05
1.1652e-05
1.15196e-05
1.13966e-05
1.12848e-05
1.1186e-05
1.11044e-05
1.10448e-05
1.24031e-05
1.27123e-05
1.30215e-05
1.33232e-05
1.36137e-05
1.38895e-05
1.41485e-05
1.43889e-05
1.46098e-05
1.48106e-05
1.49911e-05
1.51517e-05
1.52927e-05
1.54149e-05
1.5519e-05
1.56056e-05
1.56757e-05
1.573e-05
1.57692e-05
1.57943e-05
1.58058e-05
1.58045e-05
1.5791e-05
1.5766e-05
1.57299e-05
1.56835e-05
1.5627e-05
1.55612e-05
1.54864e-05
1.54033e-05
1.5312e-05
1.52132e-05
1.51073e-05
1.49948e-05
1.4876e-05
1.47517e-05
1.46222e-05
1.44881e-05
1.435e-05
1.42086e-05
1.40641e-05
1.39171e-05
1.37682e-05
1.3618e-05
1.34673e-05
1.33169e-05
1.31674e-05
1.30199e-05
1.28753e-05
1.27347e-05
1.25994e-05
1.24708e-05
1.23507e-05
1.22411e-05
1.21458e-05
1.20707e-05
1.2406e-05
1.27156e-05
1.30261e-05
1.33306e-05
1.3626e-05
1.39093e-05
1.41783e-05
1.44316e-05
1.46681e-05
1.48868e-05
1.50874e-05
1.52699e-05
1.54344e-05
1.55811e-05
1.57105e-05
1.58232e-05
1.59198e-05
1.6001e-05
1.60673e-05
1.61195e-05
1.61582e-05
1.6184e-05
1.61976e-05
1.61995e-05
1.61903e-05
1.61705e-05
1.61407e-05
1.61013e-05
1.60528e-05
1.59955e-05
1.59302e-05
1.58569e-05
1.57761e-05
1.56885e-05
1.55942e-05
1.54937e-05
1.53875e-05
1.52761e-05
1.51599e-05
1.50392e-05
1.49144e-05
1.47861e-05
1.46548e-05
1.4521e-05
1.43851e-05
1.42479e-05
1.41101e-05
1.39724e-05
1.38356e-05
1.37007e-05
1.35687e-05
1.3441e-05
1.33192e-05
1.32048e-05
1.31018e-05
1.30165e-05
1.24056e-05
1.27125e-05
1.30207e-05
1.33241e-05
1.36199e-05
1.39054e-05
1.41788e-05
1.44387e-05
1.46842e-05
1.49141e-05
1.51279e-05
1.53255e-05
1.55067e-05
1.56715e-05
1.58201e-05
1.5953e-05
1.60704e-05
1.6173e-05
1.62613e-05
1.63358e-05
1.63971e-05
1.64457e-05
1.64822e-05
1.65072e-05
1.65212e-05
1.65246e-05
1.6518e-05
1.65019e-05
1.64766e-05
1.64426e-05
1.64003e-05
1.63501e-05
1.62925e-05
1.62276e-05
1.6156e-05
1.60779e-05
1.5994e-05
1.59044e-05
1.58095e-05
1.57095e-05
1.56048e-05
1.5496e-05
1.53833e-05
1.52672e-05
1.51482e-05
1.50267e-05
1.49034e-05
1.47786e-05
1.46532e-05
1.4528e-05
1.44036e-05
1.42812e-05
1.41622e-05
1.4048e-05
1.39421e-05
1.38515e-05
1.24019e-05
1.27028e-05
1.30052e-05
1.33037e-05
1.35957e-05
1.38788e-05
1.41515e-05
1.44125e-05
1.4661e-05
1.48961e-05
1.5117e-05
1.53234e-05
1.55152e-05
1.5692e-05
1.58541e-05
1.60014e-05
1.61345e-05
1.62535e-05
1.63589e-05
1.64511e-05
1.65306e-05
1.65978e-05
1.66533e-05
1.66976e-05
1.67311e-05
1.67544e-05
1.67677e-05
1.67717e-05
1.67666e-05
1.6753e-05
1.67312e-05
1.67016e-05
1.66645e-05
1.66202e-05
1.65692e-05
1.65117e-05
1.64482e-05
1.63788e-05
1.63038e-05
1.62236e-05
1.61384e-05
1.60485e-05
1.59544e-05
1.58563e-05
1.57545e-05
1.56496e-05
1.55417e-05
1.54315e-05
1.53193e-05
1.52059e-05
1.50916e-05
1.49775e-05
1.48646e-05
1.47541e-05
1.4649e-05
1.45566e-05
1.23949e-05
1.26865e-05
1.29795e-05
1.32692e-05
1.35532e-05
1.38295e-05
1.40968e-05
1.43539e-05
1.46002e-05
1.48347e-05
1.5057e-05
1.52666e-05
1.54632e-05
1.56464e-05
1.58165e-05
1.59731e-05
1.61167e-05
1.62473e-05
1.63652e-05
1.64707e-05
1.65643e-05
1.66463e-05
1.67171e-05
1.67771e-05
1.68268e-05
1.68666e-05
1.68968e-05
1.69179e-05
1.69304e-05
1.69344e-05
1.69304e-05
1.69188e-05
1.68999e-05
1.6874e-05
1.68414e-05
1.68025e-05
1.67573e-05
1.67064e-05
1.66497e-05
1.65878e-05
1.65208e-05
1.6449e-05
1.63725e-05
1.62917e-05
1.62069e-05
1.61183e-05
1.60262e-05
1.59308e-05
1.58327e-05
1.57319e-05
1.56293e-05
1.5525e-05
1.54203e-05
1.53157e-05
1.52142e-05
1.51233e-05
1.23845e-05
1.26634e-05
1.29434e-05
1.32203e-05
1.34922e-05
1.37574e-05
1.40146e-05
1.42629e-05
1.45019e-05
1.47307e-05
1.4949e-05
1.51564e-05
1.53524e-05
1.55369e-05
1.57097e-05
1.58706e-05
1.602e-05
1.61575e-05
1.62836e-05
1.63984e-05
1.65021e-05
1.65951e-05
1.66777e-05
1.67501e-05
1.68129e-05
1.68662e-05
1.69105e-05
1.6946e-05
1.69732e-05
1.69925e-05
1.7004e-05
1.70082e-05
1.70053e-05
1.69956e-05
1.69794e-05
1.69569e-05
1.69284e-05
1.68942e-05
1.68544e-05
1.68093e-05
1.6759e-05
1.67039e-05
1.6644e-05
1.65797e-05
1.65109e-05
1.6438e-05
1.63612e-05
1.62806e-05
1.61964e-05
1.61089e-05
1.60183e-05
1.5925e-05
1.58297e-05
1.57328e-05
1.5637e-05
1.55498e-05
1.23707e-05
1.26332e-05
1.28963e-05
1.31565e-05
1.3412e-05
1.36616e-05
1.39042e-05
1.4139e-05
1.43658e-05
1.4584e-05
1.47933e-05
1.49933e-05
1.51837e-05
1.53644e-05
1.55351e-05
1.56956e-05
1.5846e-05
1.59862e-05
1.61163e-05
1.62364e-05
1.63465e-05
1.6447e-05
1.6538e-05
1.66198e-05
1.66926e-05
1.67566e-05
1.68123e-05
1.68599e-05
1.68997e-05
1.69318e-05
1.69567e-05
1.69746e-05
1.69857e-05
1.69904e-05
1.69887e-05
1.6981e-05
1.69677e-05
1.69485e-05
1.69241e-05
1.68944e-05
1.68597e-05
1.68201e-05
1.67757e-05
1.67267e-05
1.66732e-05
1.66154e-05
1.65533e-05
1.6487e-05
1.64167e-05
1.63424e-05
1.62642e-05
1.61824e-05
1.60973e-05
1.60095e-05
1.59213e-05
1.584e-05
1.23531e-05
1.25954e-05
1.28376e-05
1.30768e-05
1.33116e-05
1.35412e-05
1.37645e-05
1.39812e-05
1.4191e-05
1.43938e-05
1.45892e-05
1.47771e-05
1.49572e-05
1.51293e-05
1.52933e-05
1.54489e-05
1.55961e-05
1.57348e-05
1.58648e-05
1.59863e-05
1.60994e-05
1.62041e-05
1.63003e-05
1.63884e-05
1.64685e-05
1.65408e-05
1.66055e-05
1.66628e-05
1.67128e-05
1.67559e-05
1.67923e-05
1.6822e-05
1.68455e-05
1.68629e-05
1.68744e-05
1.68801e-05
1.68803e-05
1.68752e-05
1.68648e-05
1.68494e-05
1.68291e-05
1.6804e-05
1.67743e-05
1.67399e-05
1.6701e-05
1.66576e-05
1.66098e-05
1.65575e-05
1.65009e-05
1.64399e-05
1.63743e-05
1.63046e-05
1.62308e-05
1.61534e-05
1.60743e-05
1.60007e-05
1.23315e-05
1.25494e-05
1.27663e-05
1.29801e-05
1.31896e-05
1.33944e-05
1.3594e-05
1.3788e-05
1.39764e-05
1.41592e-05
1.43362e-05
1.45075e-05
1.46728e-05
1.4832e-05
1.49849e-05
1.51314e-05
1.52713e-05
1.54045e-05
1.55309e-05
1.56503e-05
1.57628e-05
1.58683e-05
1.59669e-05
1.60585e-05
1.61433e-05
1.62213e-05
1.62926e-05
1.63575e-05
1.64159e-05
1.64681e-05
1.65142e-05
1.65544e-05
1.65888e-05
1.66176e-05
1.66409e-05
1.66589e-05
1.66716e-05
1.66795e-05
1.66824e-05
1.66805e-05
1.66739e-05
1.66626e-05
1.66469e-05
1.66265e-05
1.66018e-05
1.65725e-05
1.65389e-05
1.65006e-05
1.64578e-05
1.64102e-05
1.6358e-05
1.63011e-05
1.62396e-05
1.6174e-05
1.61061e-05
1.60425e-05
1.23054e-05
1.24942e-05
1.26811e-05
1.28646e-05
1.30443e-05
1.32197e-05
1.33909e-05
1.35579e-05
1.37206e-05
1.38793e-05
1.40339e-05
1.41844e-05
1.4331e-05
1.44733e-05
1.46113e-05
1.47449e-05
1.48739e-05
1.49981e-05
1.51172e-05
1.52312e-05
1.534e-05
1.54433e-05
1.55413e-05
1.56337e-05
1.57207e-05
1.58021e-05
1.5878e-05
1.59485e-05
1.60134e-05
1.60731e-05
1.61274e-05
1.61765e-05
1.62206e-05
1.62597e-05
1.62938e-05
1.63231e-05
1.63478e-05
1.63678e-05
1.63834e-05
1.63944e-05
1.64011e-05
1.64034e-05
1.64014e-05
1.63951e-05
1.63845e-05
1.63695e-05
1.635e-05
1.63261e-05
1.62976e-05
1.62644e-05
1.62264e-05
1.61834e-05
1.61359e-05
1.6084e-05
1.60294e-05
1.59782e-05
1.22741e-05
1.24283e-05
1.25801e-05
1.27285e-05
1.28734e-05
1.30152e-05
1.31539e-05
1.32897e-05
1.3423e-05
1.35541e-05
1.36828e-05
1.38094e-05
1.39338e-05
1.4056e-05
1.41759e-05
1.42933e-05
1.44081e-05
1.452e-05
1.46289e-05
1.47345e-05
1.48367e-05
1.49352e-05
1.50299e-05
1.51208e-05
1.52075e-05
1.52901e-05
1.53685e-05
1.54427e-05
1.55124e-05
1.5578e-05
1.56392e-05
1.56962e-05
1.57488e-05
1.57972e-05
1.58415e-05
1.58815e-05
1.59174e-05
1.59493e-05
1.59772e-05
1.6001e-05
1.60209e-05
1.60368e-05
1.60488e-05
1.60567e-05
1.60606e-05
1.60604e-05
1.60559e-05
1.60473e-05
1.60341e-05
1.60163e-05
1.59939e-05
1.5967e-05
1.59353e-05
1.58996e-05
1.58612e-05
1.58255e-05
1.22365e-05
1.23503e-05
1.24615e-05
1.25697e-05
1.26757e-05
1.27798e-05
1.28826e-05
1.29843e-05
1.30854e-05
1.3186e-05
1.32864e-05
1.33865e-05
1.34865e-05
1.35862e-05
1.36855e-05
1.37844e-05
1.38825e-05
1.39797e-05
1.40759e-05
1.41706e-05
1.42637e-05
1.4355e-05
1.44442e-05
1.45311e-05
1.46156e-05
1.46974e-05
1.47765e-05
1.48526e-05
1.49258e-05
1.49957e-05
1.50627e-05
1.51263e-05
1.51866e-05
1.52436e-05
1.52973e-05
1.53476e-05
1.53946e-05
1.54382e-05
1.54784e-05
1.55152e-05
1.55486e-05
1.55786e-05
1.5605e-05
1.56279e-05
1.56472e-05
1.56628e-05
1.56746e-05
1.56824e-05
1.56862e-05
1.56858e-05
1.56811e-05
1.56723e-05
1.56594e-05
1.5643e-05