/*--------------------------------*- C++ -*----------------------------------*\
  =========                 |
  \\      /  F ield         | OpenFOAM: The Open Source CFD Toolbox
   \\    /   O peration     | Website:  https://openfoam.org
    \\  /    A nd           | Version:  6
     \\/     M anipulation  |
\*---------------------------------------------------------------------------*/
FoamFile
{
    version     2.0;
    format      ascii;
    class       volVectorField;
    location    "0";
    object      U;
}
// * * * * * * * * * * * * * * * * * * * * * * * * * * * * * * * * * * * * * //

dimensions      [0 1 -1 0 0 0 0];

internalField   nonuniform List<vector> 
13046
(
(-0.520161 0.224532 0)
(-0.676135 -0.243162 -5.6823e-21)
(-0.147479 -0.137877 -1.16718e-20)
(-0.472546 0.110672 0)
(-0.112262 -0.0499612 -1.08557e-20)
(-0.552793 -0.252462 0)
(-0.540277 0.144693 1.69316e-21)
(-0.63236 -0.303769 2.84735e-21)
(-0.0801115 -0.0372695 -1.17604e-20)
(-1.39597 0.64544 3.36966e-21)
(-1.51606 -0.687036 0)
(0.0912902 -0.0314636 6.925e-21)
(-0.715485 0.294902 -5.34512e-21)
(-0.850478 -0.351732 -8.46015e-21)
(-0.0492843 -0.0973181 6.16241e-21)
(-1.32274 0.722339 -4.93625e-21)
(0.0464611 -0.0443493 1.65905e-20)
(-1.55777 -0.573224 2.3881e-21)
(-0.214259 0.0466387 0)
(-0.375188 -0.214782 -6.01231e-21)
(-0.450003 -0.0237552 1.78212e-20)
(-1.3392 0.711887 -1.89337e-21)
(0.0607731 -0.0384864 -2.21576e-20)
(-1.55026 -0.597955 0)
(-0.411821 0.122249 7.01737e-21)
(-0.535673 -0.195993 -1.4036e-20)
(-0.162252 -0.110932 0)
(-0.733117 0.336003 -9.54537e-21)
(-0.8888 -0.348785 2.50225e-21)
(-0.0604151 -0.114337 -1.08377e-20)
(-0.538836 0.252526 0)
(-0.710009 -0.226268 0)
(-0.167168 -0.161148 1.18792e-20)
(-0.35439 0.0796465 -8.15173e-21)
(-0.191661 -0.110028 4.10458e-21)
(-0.466738 -0.156407 2.44597e-20)
(-0.345017 0.0500144 -1.25937e-20)
(-0.195321 -0.0836093 6.30695e-21)
(-0.427649 -0.151982 -1.25057e-20)
(-0.414553 0.239534 8.51618e-21)
(-0.401156 -0.318496 2.11132e-21)
(-0.691076 -0.101954 -8.65411e-21)
(-0.323622 -0.0371284 5.69757e-21)
(-0.248311 -0.0470621 9.57855e-21)
(-0.315957 -0.10825 0)
(-0.35911 -0.0247577 3.67401e-21)
(-0.216678 -0.0195805 -1.47574e-20)
(-0.336849 -0.143133 -1.83732e-21)
(-0.550089 0.219006 0)
(-0.694535 -0.272206 -4.02896e-22)
(-0.103936 -0.112787 -8.37773e-23)
(-0.6779 -0.511372 1.29617e-20)
(-0.346588 0.246477 0)
(-0.814818 0.00942779 -1.01678e-20)
(-0.772515 -0.569689 -1.84866e-20)
(-0.856216 0.0472513 -1.6161e-20)
(-0.296473 0.215585 1.26033e-20)
(-1.3227 -0.355337 -1.62446e-21)
(-1.05798 0.670094 0)
(-0.16516 -0.197834 9.30293e-21)
(-0.989447 0.331146 -5.03826e-21)
(-1.0818 -0.579298 4.64025e-21)
(0.0325217 -0.00598566 -2.55349e-20)
(0.0872825 -0.0444546 1.28867e-20)
(-1.44388 -0.646311 -2.25031e-21)
(-1.31078 0.591893 -6.77227e-21)
(-0.992649 0.652729 0)
(-1.25376 -0.298781 0)
(-0.230454 -0.250599 0)
(-0.93472 0.614283 -3.53221e-21)
(-1.19537 -0.277986 0)
(-0.251484 -0.265363 7.44879e-21)
(-1.38366 -0.369546 0)
(-1.11173 0.703017 1.19315e-22)
(-0.14595 -0.188503 -6.24429e-23)
(-0.239493 0.0750051 0)
(-0.371903 -0.233723 6.45189e-21)
(-0.489107 -0.0489192 -1.26557e-20)
(-0.0685887 -0.128046 1.01519e-20)
(-1.18807 0.725328 -9.98056e-21)
(-1.45682 -0.43785 0)
(-0.454878 0.138644 3.70626e-21)
(-0.56898 -0.225275 0)
(-0.129384 -0.0871657 0)
(0.0891113 -0.041421 -1.14937e-20)
(-1.47781 -0.655821 -1.50487e-21)
(-1.34645 0.617506 3.96989e-21)
(-1.35685 0.483128 -7.16522e-21)
(0.0888067 -0.0263752 0)
(-1.39062 -0.756346 -1.79855e-21)
(0.0248942 -0.0034047 0)
(-1.44214 0.386204 0)
(-1.36182 -0.876911 2.0894e-22)
(-1.0348 0.47792 0)
(-1.09875 0.493846 4.26492e-21)
(-1.19614 -0.503772 8.77282e-21)
(-1.24938 -0.548753 -4.08389e-21)
(0.0262675 -0.0784509 -5.39704e-21)
(0.0504148 -0.0622001 1.39301e-20)
(0.076153 -0.0192856 -6.5264e-22)
(-1.34447 0.452481 7.01197e-21)
(-1.36299 -0.776076 0)
(-0.386222 0.00909551 -2.39054e-23)
(-0.184538 -0.0212841 7.61276e-21)
(-0.389846 -0.180712 0)
(-0.185507 0.139056 0)
(-0.761538 0.0864991 -5.11399e-21)
(-0.738803 -0.49441 0)
(-0.332161 0.222237 1.44971e-20)
(-0.585912 -0.431281 0)
(-0.733434 -0.0209181 -1.96359e-20)
(-1.31978 0.629773 0)
(0.0711867 -0.0256182 0)
(-1.40145 -0.67069 1.74936e-22)
(-0.639228 0.257093 1.47583e-20)
(-0.78408 -0.317238 3.69664e-21)
(-0.0648047 -0.0931709 1.13842e-20)
(-1.11507 0.570453 5.46223e-21)
(-1.04779 0.522212 -1.03709e-20)
(-1.30341 -0.4981 -7.35485e-21)
(0.0076169 -0.0922876 6.19933e-21)
(-1.22723 -0.476316 4.24417e-21)
(0.00244225 -0.0951681 -5.79052e-21)
(-1.38438 0.659193 -2.1493e-21)
(-1.51331 -0.678056 -1.30416e-21)
(0.0861877 -0.0276148 -3.08828e-21)
(-0.896505 0.419334 0)
(-1.05526 -0.42894 -6.19459e-21)
(-0.0164867 -0.103665 1.30279e-20)
(-0.473456 0.267849 0)
(-0.340383 -0.285209 -1.0697e-20)
(-0.718756 -0.141041 4.85539e-22)
(0.0106235 0.0103029 0)
(-1.39067 0.361805 0)
(-1.33422 -0.857517 0)
(-1.21306 0.507661 0)
(-1.33154 -0.634078 -1.03589e-20)
(0.0817687 -0.0415236 -1.47746e-20)
(-0.607159 0.287137 0)
(-0.775359 -0.259634 0)
(-0.148112 -0.16607 0)
(-0.726995 0.192872 0)
(-0.806711 -0.445239 0)
(-0.0425741 0.0134091 0)
(-0.30407 0.211916 0)
(-0.653106 -0.473457 0)
(-0.761036 0.0105726 1.06009e-20)
(-0.181577 0.12469 -1.4838e-21)
(-0.726709 0.0795829 -1.11802e-20)
(-0.713575 -0.468136 1.18595e-20)
(-1.04531 0.362562 1.13222e-20)
(-1.13438 -0.597696 0)
(0.0494953 -0.0186259 3.31295e-20)
(-0.129869 0.0620489 0)
(-0.616764 0.0841032 1.2128e-20)
(-0.62703 -0.378234 -3.06558e-21)
(-0.932206 -0.645449 0)
(-0.943836 0.142786 1.14756e-20)
(-1.00982 -0.676795 0)
(-1.0027 0.1912 6.58501e-21)
(-0.176134 0.144739 0)
(-0.120054 0.108551 0)
(-0.757754 0.151038 1.55e-21)
(-0.796106 -0.485273 6.20715e-21)
(-0.0836893 0.0570426 -6.44559e-21)
(-1.42184 0.62309 -3.45509e-21)
(0.0966498 -0.0349124 0)
(-1.48903 -0.716423 -2.6716e-21)
(-1.34896 0.644538 -1.60924e-21)
(0.0769644 -0.023603 -1.4149e-21)
(-1.45809 -0.67175 0)
(-1.23734 0.538534 -5.94686e-21)
(-1.36263 -0.630988 0)
(0.0823151 -0.0456381 1.67889e-20)
(-0.592965 0.36823 0)
(-0.851928 -0.160509 2.64398e-21)
(-0.372895 -0.32911 6.11899e-21)
(-0.715796 0.12407 1.0139e-20)
(-0.113668 0.0798539 3.13075e-21)
(-0.741846 -0.453179 0)
(0.0995711 -0.0383002 0)
(-1.46646 -0.764769 0)
(-1.44533 0.567612 2.75013e-21)
(-0.531377 0.328527 0)
(-0.795884 -0.135992 -5.85395e-21)
(-0.388451 -0.323103 1.60462e-21)
(-0.133017 0.0786969 0)
(-0.641511 0.0836163 0)
(-0.645142 -0.399671 0)
(-0.669676 0.159183 5.02862e-21)
(-0.74571 -0.411768 0)
(-0.0546845 0.00982672 0)
(-0.932412 -0.416405 -9.31214e-24)
(-0.0085922 -0.0716558 -7.69716e-21)
(-0.841524 0.380724 1.51055e-20)
(-1.00018 -0.407108 0)
(-0.0225152 -0.0985231 -1.6325e-20)
(-1.37784 0.555445 -7.04212e-21)
(0.0999372 -0.0356504 1.04186e-20)
(-1.44975 -0.724392 -7.65759e-21)
(0.037704 0.00265547 9.50812e-21)
(-1.33953 0.387694 4.55585e-21)
(-1.32651 -0.813729 9.12134e-21)
(-1.42774 0.442301 -1.13646e-20)
(-1.39504 -0.823233 0)
(0.0668021 -0.0205677 -9.33173e-21)
(-0.725641 -0.570399 -6.5329e-22)
(-0.901713 0.000183576 4.47878e-21)
(-0.425209 0.31865 0)
(-0.668799 0.218364 -2.25617e-20)
(-1.16942 0.73909 5.24541e-21)
(-0.0978405 -0.145621 -6.25785e-21)
(-1.45699 -0.423397 0)
(-1.41403 -0.82614 0)
(-1.45389 0.478441 -9.26217e-21)
(0.0780158 -0.0305487 0)
(-0.384519 0.0478713 -1.84592e-20)
(-0.165501 -0.0493645 -6.19418e-21)
(-0.43756 -0.187525 1.83156e-20)
(-0.700093 0.341703 0)
(-0.869199 -0.318692 -3.64326e-22)
(-0.10157 -0.139089 -6.28529e-21)
(0.0176652 0.0120881 7.30682e-21)
(-1.34765 0.368744 0)
(-1.31625 -0.834937 -1.05163e-20)
(-0.730567 0.253992 1.8014e-20)
(-0.908521 -0.425351 1.51777e-20)
(-0.0058646 -0.0571487 0)
(0.0898693 -0.0363202 0)
(-1.44413 -0.722903 1.14222e-21)
(-1.41621 0.615849 0)
(-0.367154 0.276892 0)
(-0.912399 0.0285369 0)
(-0.782883 -0.609845 0)
(-1.38052 0.429762 9.96388e-21)
(-1.37052 -0.801298 0)
(0.0647923 -0.0155569 -5.33181e-23)
(-0.873664 0.171226 4.40372e-21)
(-0.903222 -0.579294 -4.58917e-21)
(-0.0934232 0.0826541 0)
(-0.895278 0.445399 0)
(-1.06646 -0.40932 5.80574e-21)
(-0.0408348 -0.119211 1.02484e-20)
(-1.21709 -0.838088 -1.43434e-20)
(-1.25903 0.262745 -8.44891e-21)
(-0.0800573 0.0790503 5.73802e-21)
(-1.07499 0.206245 0)
(-1.07192 -0.726219 -6.04139e-21)
(-0.119037 0.107599 -2.10682e-22)
(0.0864483 -0.0414445 -9.0937e-21)
(-1.41515 -0.734178 0)
(-1.4256 0.595945 -1.12231e-21)
(-0.43512 0.285884 7.7687e-21)
(-0.519512 -0.404734 -7.68986e-21)
(-0.774596 -0.0723914 8.45173e-22)
(-1.22549 0.668218 1.23135e-21)
(0.0570681 -0.00642787 -1.32689e-20)
(-1.42679 -0.587731 0)
(-0.175175 0.0176422 -3.63688e-21)
(-0.443059 0.00846679 -1.43995e-20)
(-0.419228 -0.226628 1.80323e-20)
(-0.890725 0.23049 5.12778e-21)
(-0.84371 0.182999 2.32102e-23)
(-0.95229 -0.560537 -1.13171e-20)
(-0.885022 -0.549848 0)
(-0.0716574 0.0632195 5.85948e-21)
(-0.02507 0.0333321 -6.03737e-21)
(-0.0392835 -0.103993 -1.32878e-20)
(-1.22726 0.735038 5.41125e-21)
(-1.50456 -0.460351 -6.69324e-21)
(-0.836565 0.429945 0)
(-1.01556 -0.363446 0)
(-0.0858553 -0.144151 -1.34485e-20)
(-1.14485 0.24702 -2.28146e-21)
(-1.13455 -0.765396 0)
(-0.0826286 0.0838796 0)
(-1.17095 0.54604 -5.22108e-21)
(-1.32443 -0.562372 0)
(0.0551738 -0.0639495 6.07941e-21)
(-0.294745 -0.0174162 3.80574e-21)
(-0.337161 -0.0904151 5.58653e-21)
(-0.256306 -0.0750454 -1.90294e-21)
(-0.97558 0.210145 -8.38578e-21)
(-1.00353 -0.645722 0)
(-0.0776816 0.0803675 -9.91056e-21)
(-0.853732 0.457779 0)
(-1.04462 -0.354077 7.24018e-21)
(-0.104735 -0.159656 -8.55476e-21)
(-0.768618 0.293461 0)
(-0.835384 0.327075 1.77571e-21)
(-0.454636 0.304955 2.78786e-21)
(-0.541377 -0.427601 2.224e-20)
(-0.802286 -0.0649886 -2.01573e-20)
(-1.02976 0.251291 -8.50466e-21)
(-1.0602 -0.667592 9.33258e-21)
(-0.0366924 0.0538523 9.04114e-21)
(-1.21435 0.557146 0)
(0.0696935 -0.0551119 -2.15525e-20)
(-1.36713 -0.595411 -4.81993e-21)
(-0.32804 0.203298 -2.00746e-20)
(-0.541695 -0.40324 0)
(-0.701358 -0.0242792 6.62547e-21)
(-0.210256 0.171 -1.16138e-20)
(-0.967149 0.129777 -6.57806e-21)
(-0.93879 -0.674465 0)
(-1.02668 0.563994 -5.29266e-21)
(-1.23482 -0.413522 -6.009e-21)
(-0.066344 -0.136738 3.8262e-21)
(-0.40167 0.284067 1.00368e-21)
(-0.639859 -0.492793 0)
(-0.825704 -0.0148724 1.40874e-20)
(-1.08238 0.599753 0)
(-1.12107 0.605555 0)
(-1.29968 -0.440407 -3.66044e-21)
(-0.0501934 -0.126314 -9.96466e-21)
(-1.33022 -0.479955 5.17705e-21)
(-0.0163035 -0.103633 1.05655e-20)
(0.101266 -0.036899 -8.01043e-21)
(-1.47302 -0.740474 0)
(-1.424 0.586131 -4.51968e-21)
(-0.9858 0.501653 6.19269e-21)
(-1.16741 -0.440769 0)
(-0.0271755 -0.112497 3.47758e-21)
(-1.25004 -0.623652 -2.60321e-21)
(0.047565 -0.0207533 1.15978e-20)
(-1.17842 0.601048 5.10862e-23)
(-0.546934 0.0375423 -6.69884e-21)
(-0.161785 0.0630601 0)
(-0.528062 -0.317241 0)
(-0.911844 0.304078 1.19834e-20)
(-1.01329 -0.529835 0)
(0.0233406 -0.0142895 1.97373e-20)
(0.0965217 -0.0373996 -6.64725e-21)
(-1.33068 0.546248 1.46684e-20)
(-1.42035 -0.693353 6.3032e-21)
(-0.808433 -0.600227 0)
(-0.888845 0.0556562 5.91518e-21)
(-0.297707 0.230485 -1.42831e-20)
(-1.25284 -0.84233 -1.67668e-20)
(-1.29461 0.300503 -5.02051e-21)
(-0.0406899 0.0496801 0)
(-0.807758 -0.379523 -1.57226e-20)
(-0.0294133 -0.049799 0)
(-0.963464 0.377908 1.26552e-20)
(-1.07471 -0.512127 5.22601e-21)
(0.037116 -0.0515125 6.00576e-21)
(-0.795737 -0.400624 9.14003e-21)
(-0.0263506 -0.0312318 -3.49418e-23)
(-1.30514 0.708632 -3.35249e-22)
(0.0372072 -0.0550149 7.84673e-21)
(-1.5352 -0.555697 -3.51307e-21)
(-0.707029 -0.583041 0)
(-0.934475 -0.0202933 1.39107e-21)
(-0.48158 0.359959 0)
(-1.02181 0.409276 -1.29021e-20)
(-1.14854 -0.542761 -6.36832e-21)
(0.0508481 -0.04574 -7.2292e-21)
(-0.753593 0.186691 0)
(-0.816486 -0.474148 -9.01418e-21)
(-0.0514641 0.0299969 0)
(-0.771885 0.0557424 0)
(-0.710192 -0.505414 0)
(-0.243553 0.17099 0)
(-0.520618 0.182021 -5.12887e-21)
(-0.641483 -0.26243 -8.84142e-21)
(-0.105237 -0.0940712 5.526e-24)
(-0.256335 0.20481 1.43952e-20)
(-0.941377 0.097217 1.58766e-20)
(-0.88987 -0.651076 8.94191e-21)
(-1.40217 0.516893 -5.66165e-21)
(-1.42699 -0.757788 6.40423e-21)
(0.0963483 -0.0324862 -9.83844e-21)
(-1.2629 -0.81881 1.14573e-20)
(-1.28048 0.320266 5.08997e-21)
(-0.0142934 0.0361556 7.3872e-21)
(-0.812096 0.545889 -1.09376e-20)
(-0.347673 -0.328542 1.121e-20)
(-1.08759 -0.215084 -8.57203e-21)
(-1.1571 0.675386 2.96218e-21)
(-1.11046 0.645673 -2.7984e-21)
(-1.34627 -0.423275 -1.16152e-21)
(-1.39932 -0.442164 0)
(-0.0583558 -0.125153 -3.60934e-21)
(-0.0759918 -0.140733 -3.23059e-21)
(0.0535389 -0.0157424 -1.57124e-20)
(-1.30561 -0.61294 2.86869e-21)
(-1.20008 0.611629 1.00627e-21)
(-1.24845 0.681874 -1.10667e-22)
(0.0600099 -0.00585776 1.83573e-20)
(-1.46768 -0.587634 0)
(-0.959251 0.262617 -1.915e-20)
(-1.02601 -0.596955 -2.44346e-21)
(-0.0121952 0.030691 0)
(0.100705 -0.0363122 -2.00624e-20)
(-1.39591 0.577755 4.49858e-21)
(-1.47066 -0.719424 0)
(-0.93724 0.576365 1.56377e-20)
(-0.993284 0.59717 -1.16293e-20)
(-1.17515 -0.324406 6.57298e-21)
(-1.22472 -0.356242 2.46358e-21)
(-0.18883 -0.217115 -6.38324e-21)
(-0.14349 -0.185215 -3.20136e-21)
(0.0750088 -0.0435079 0)
(-1.40243 -0.843728 0)
(-1.50888 0.46987 1.45701e-21)
(-1.14702 0.658141 -1.4453e-21)
(0.0499646 -0.000437665 0)
(-1.38556 -0.558797 0)
(-0.419879 -0.0699792 -2.58757e-24)
(-0.255776 0.0428328 8.11135e-21)
(-0.294854 -0.163132 4.00787e-21)
(-1.25353 0.635862 -1.61183e-21)
(-1.38907 -0.637361 -2.55893e-22)
(0.0619901 -0.0166282 8.61504e-22)
(-0.672635 0.40055 0)
(-0.900415 -0.213497 -1.19381e-20)
(-0.288498 -0.275206 -8.82934e-23)
(-1.44998 0.550682 1.93654e-22)
(-1.45368 -0.78143 7.66186e-21)
(0.0980336 -0.0380342 1.48497e-23)
(-1.106 -0.631132 -6.58624e-23)
(0.0407389 -0.0353183 -6.69722e-21)
(-1.14713 0.509949 7.02507e-22)
(-0.351842 0.197221 -7.36865e-21)
(-0.413972 -0.308436 6.90096e-21)
(-0.639312 -0.0753276 2.12355e-20)
(-0.479447 0.0465436 0)
(-0.494959 -0.264549 -2.0015e-20)
(-0.141647 0.011762 9.97635e-21)
(-1.36394 0.683203 0)
(0.0796386 -0.0240861 9.21688e-21)
(-1.52504 -0.658418 -1.92683e-22)
(-0.517165 0.0625495 0)
(-0.53443 -0.293338 -6.90966e-21)
(-0.128485 0.0297496 -1.41471e-20)
(-0.386514 -0.0651001 8.43615e-21)
(-0.25241 0.0167831 -4.28794e-21)
(-0.290138 -0.139274 2.13152e-21)
(-0.348481 0.270514 6.92683e-21)
(-0.965933 0.05657 -5.50997e-21)
(-0.862987 -0.672694 9.82712e-21)
(-0.513259 -0.0252366 0)
(-0.418492 -0.259125 0)
(-0.220509 0.0926621 1.18193e-21)
(-0.547189 0.0161077 1.06013e-20)
(-0.49068 -0.299224 5.2626e-21)
(-0.195587 0.0894487 1.66588e-22)
(-0.752807 0.511541 1.66369e-20)
(-1.03166 -0.183548 -8.84466e-21)
(-0.401969 -0.370869 -1.10871e-20)
(0.0824274 -0.0345128 1.39663e-20)
(0.0897354 -0.033976 -1.42009e-20)
(-1.53223 -0.654358 1.92678e-21)
(-1.51912 -0.673878 1.44893e-21)
(-1.36983 0.674511 0)
(-1.38559 0.660251 -3.45055e-21)
(-1.4316 0.518985 7.10342e-21)
(-1.43952 -0.775572 -5.09078e-21)
(0.095829 -0.0341634 1.22104e-20)
(-0.334263 -0.328265 -7.16224e-21)
(-0.869701 0.595514 3.39756e-21)
(-1.14587 -0.229132 1.09237e-20)
(-0.46466 0.290854 -7.09324e-21)
(-0.449269 -0.359627 -7.04731e-21)
(-0.763392 -0.100363 6.54506e-21)
(-1.09187 0.176231 0)
(-1.06208 -0.755406 6.25306e-21)
(-0.171148 0.141713 2.18001e-22)
(-1.21825 -0.715263 4.87502e-22)
(0.0641763 -0.0554019 -6.23239e-21)
(-1.3465 0.515233 -2.34813e-22)
(0.0461605 -0.0160814 0)
(-1.45674 0.417071 0)
(-1.37698 -0.868315 3.59355e-21)
(-1.38113 0.636384 2.24862e-21)
(0.0849333 -0.0297094 0)
(-1.47208 -0.696634 -1.12099e-21)
(0.0322947 -0.0279736 -2.49692e-32)
(-1.0418 -0.596808 2.00023e-21)
(-1.06379 0.495413 -1.01845e-21)
(-1.09214 -0.530742 -2.27461e-21)
(0.0300981 -0.0133345 2.4909e-32)
(-1.01102 0.559504 8.80685e-22)
(-1.17369 -0.676733 -1.24376e-20)
(-1.11848 0.340339 0)
(0.0283053 0.0112539 -1.91287e-20)
(-1.35843 -0.808205 -6.31472e-22)
(0.0782669 -0.0581585 -6.36952e-21)
(-1.505 0.498376 0)
(-1.24601 0.498665 -7.73644e-21)
(-1.34075 -0.667245 6.34714e-21)
(0.0864596 -0.0350895 9.87484e-21)
(-1.3065 0.752882 9.25044e-21)
(0.0381506 -0.0295888 5.57129e-21)
(-1.59451 -0.544372 0)
(-0.629294 0.22558 3.9858e-21)
(-0.0496582 -0.0646498 -3.90093e-21)
(-0.768214 -0.344702 3.82524e-21)
(-1.40087 -0.855939 1.74138e-21)
(0.0680502 -0.0359083 6.75813e-21)
(-1.49716 0.454224 1.9495e-21)
(-1.04706 0.150383 -6.36773e-21)
(-0.205724 0.168305 -3.91818e-21)
(-1.01452 -0.729546 0)
(-1.156 -0.756706 0)
(-1.15352 0.27352 0)
(-0.0457924 0.0620936 0)
(0.00854754 -0.00958983 0)
(-0.633785 -0.330386 3.14381e-21)
(-0.617746 0.313235 -2.05479e-21)
(-1.23838 -0.652609 -6.05742e-22)
(0.0513826 -0.0296094 -8.08476e-21)
(-1.21453 0.581529 -4.834e-22)
(-0.566391 0.186297 -1.02252e-20)
(-0.0718883 -0.0649822 9.37246e-21)
(-0.687798 -0.310106 4.51009e-21)
(-1.42672 -0.806631 5.56146e-21)
(-1.48987 0.518815 -2.72471e-21)
(0.0891122 -0.0441416 0)
(0.0724739 -0.0493839 -7.05574e-21)
(-1.52557 0.469481 0)
(-1.38095 -0.849335 -4.17253e-21)
(-1.37532 0.611498 -4.14958e-21)
(0.0957434 -0.0378546 2.14588e-20)
(-1.48746 -0.684134 0)
(0.00393546 -0.0788842 -1.60595e-20)
(-1.49504 -0.51276 4.66734e-21)
(-1.25262 0.704862 0)
(-0.723759 0.515797 -2.09501e-20)
(-1.02676 -0.158232 1.12654e-20)
(-0.46974 -0.422935 -3.5173e-21)
(-1.30499 -0.385751 1.72766e-21)
(-1.0603 0.646138 6.7028e-21)
(-0.128635 -0.175766 -9.93061e-21)
(0.000268106 -0.0704151 -1.43444e-20)
(-1.27653 0.751401 0)
(-1.56159 -0.505545 0)
(-0.715819 0.394413 -3.50698e-21)
(-0.788891 0.437151 0)
(-0.914155 -0.27036 -1.24442e-20)
(-0.993218 -0.305272 1.33161e-20)
(-0.190186 -0.203218 1.77324e-21)
(-0.162005 -0.193978 -1.8894e-21)
(-0.661148 0.378747 3.36468e-21)
(-0.8767 -0.231042 0)
(-0.247723 -0.241455 3.36212e-21)
(-0.920705 0.590715 0)
(-1.17098 -0.301294 -1.06226e-20)
(-0.229329 -0.246274 2.30601e-21)
(-1.2268 -0.787982 -5.90961e-21)
(-1.23335 0.308162 5.51668e-21)
(-0.0159174 0.0385453 -1.5081e-20)
(-1.42385 -0.814291 0)
(-1.4467 0.503089 1.02029e-20)
(0.0876754 -0.0342058 0)
(0.0323402 0.0079167 -4.89397e-21)
(-1.27586 0.369689 -3.2559e-21)
(-1.28754 -0.780343 -3.7885e-21)
(-1.16261 -0.538634 3.51359e-22)
(0.0355447 -0.00991688 4.32045e-21)
(-1.05752 0.585424 0)
(-0.443896 0.22916 6.82145e-21)
(-0.452734 0.217756 0)
(-0.284947 -0.231949 0)
(-0.662741 -0.149785 2.5592e-20)
(-0.241809 -0.20213 0)
(-0.651498 -0.175064 -1.63319e-20)
(-0.813143 0.518496 0)
(-0.733179 0.466934 0)
(-0.316549 -0.300681 2.05356e-23)
(-1.05917 -0.252992 7.0547e-21)
(-0.278211 -0.27253 1.69542e-20)
(-0.985203 -0.218856 -1.51435e-20)
(-1.07857 -0.654043 0)
(0.0456466 -0.0457969 9.12839e-21)
(-1.2026 0.496003 0)
(-1.43156 -0.797772 -3.848e-21)
(-1.47674 0.523036 9.83671e-22)
(0.0922148 -0.0405911 4.28004e-21)
(-0.518145 0.343727 -1.20097e-20)
(-0.517809 -0.426177 -7.91568e-21)
(-0.841702 -0.091277 2.07956e-20)
(-1.16554 -0.804592 1.29159e-20)
(-1.19483 0.237677 1.42617e-20)
(-0.100641 0.0960642 0)
(-0.0152892 -0.0935643 1.71731e-20)
(-1.47215 -0.492574 -4.96243e-21)
(-1.22789 0.702193 6.86838e-21)
(-1.35297 -0.697208 0)
(-1.34878 0.595161 0)
(0.0711133 -0.0362256 0)
(-1.37193 -0.724923 0)
(-1.38773 0.580982 1.65233e-21)
(0.0788614 -0.0434712 1.54395e-21)
(-0.985796 0.570336 -6.55595e-21)
(-1.2048 -0.381028 3.72107e-21)
(-0.111017 -0.16454 4.73466e-21)
(-0.286591 0.176304 -1.91607e-21)
(-0.551349 -0.390091 0)
(-0.671817 -0.00251235 -1.16774e-22)
(-1.3915 0.628873 4.83499e-21)
(0.0952154 -0.0359126 1.2419e-20)
(-1.5075 -0.6872 -1.68662e-21)
(-1.20366 -0.715037 0)
(-1.16384 0.34546 0)
(0.0254205 0.018026 1.65013e-20)
(0.0711927 -0.0535589 4.11753e-21)
(-1.41871 -0.607929 8.07472e-21)
(-1.26305 0.601809 1.52851e-20)
(-0.691199 0.449324 0)
(-0.367348 -0.335599 -1.14603e-20)
(-0.953029 -0.191869 7.84721e-21)
(-0.839784 0.136231 1.29824e-22)
(-0.842565 -0.555256 6.72952e-21)
(-0.143877 0.11345 0)
(-0.406489 0.244981 7.00473e-23)
(-0.452912 -0.353924 -2.34793e-21)
(-0.712605 -0.0823966 -8.5733e-21)
(0.0990393 -0.0358374 -3.47482e-24)
(-1.49322 -0.720576 3.5911e-21)
(-1.41617 0.61075 4.64564e-21)
(-1.16927 0.582458 -2.93925e-21)
(-1.34954 -0.538424 -2.67596e-21)
(0.0341846 -0.0755813 0)
(-0.35994 0.189341 -7.39772e-21)
(-0.360664 -0.269133 1.50949e-20)
(-0.618909 -0.0968772 -1.40191e-20)
(-1.28915 0.764059 3.96127e-21)
(0.0110194 -0.0556765 6.33002e-21)
(-1.58837 -0.515134 -2.26054e-21)
(-0.605751 0.312006 -4.30163e-21)
(-0.793298 -0.243401 0)
(-0.187805 -0.194324 0)
(-0.624915 0.123462 -1.8778e-20)
(-0.669557 -0.378952 4.22929e-21)
(-0.0869499 0.0328784 0)
(-1.13584 -0.713062 0)
(-1.10719 0.275424 1.21642e-20)
(-0.0263826 0.0521207 0)
(-1.2836 0.714537 -1.56583e-21)
(0.0583029 -0.00978252 -1.96018e-21)
(-1.54443 -0.582476 2.33617e-22)
(-1.28023 0.732782 4.42208e-21)
(0.0508597 -0.0116877 0)
(-1.567 -0.561196 -1.18652e-21)
(0.0586494 -0.0587295 3.68432e-21)
(-1.43857 -0.586136 -4.42057e-21)
(-1.26316 0.625398 -1.40968e-20)
(-0.874023 0.117597 -5.70189e-21)
(-0.869786 -0.598411 -6.75023e-21)
(-0.186033 0.140533 0)
(0.0546989 -0.00211613 1.79566e-21)
(-1.50276 -0.571551 -2.26959e-22)
(-1.22559 0.69727 0)
(0.0925523 -0.0335847 0)
(-1.38164 -0.696877 -4.63091e-21)
(-1.30285 0.513397 -1.74752e-21)
(0.0241961 -0.028347 7.34756e-21)
(-0.887535 -0.55723 -1.74554e-21)
(-0.960291 0.422131 0)
(-0.859422 0.524449 5.87776e-22)
(-0.983677 -0.450631 0)
(0.0213173 -0.00620727 7.34878e-21)
(0.0123334 -0.0673659 -1.84963e-23)
(-1.53735 -0.526227 0)
(-1.27817 0.731096 0)
(0.0957111 -0.0373029 0)
(-1.47172 -0.736387 0)
(-1.43591 0.606679 5.23163e-21)
(-1.35251 0.672141 -4.43409e-21)
(-1.33253 0.65462 3.58686e-21)
(0.0746776 -0.0403262 -7.01483e-21)
(-1.53096 -0.622784 -7.05161e-22)
(0.0750605 -0.0445572 -1.14562e-20)
(-1.50378 -0.622028 1.56699e-21)
(-1.30576 0.485616 3.49414e-21)
(-1.36789 -0.720591 3.18393e-21)
(0.0886623 -0.0282537 0)
(-0.157684 0.136123 0)
(-1.11354 -0.800115 0)
(-1.15711 0.197786 0)
(-0.427981 0.172084 0)
(-0.196063 -0.155777 -2.0899e-20)
(-0.592301 -0.184638 8.95093e-21)
(-1.26493 0.413105 1.03469e-20)
(-1.30277 -0.743059 1.27471e-21)
(0.0630841 -0.00913834 1.44059e-20)
(0.0440493 0.00329016 9.35448e-21)
(-1.24402 0.384983 -1.44004e-20)
(-1.2707 -0.749843 -1.76636e-21)
(-1.2501 0.763399 5.10188e-21)
(-0.0310814 -0.0921658 6.85799e-21)
(-1.54802 -0.468402 6.98408e-21)
(-0.840539 0.544527 0)
(-1.0965 -0.255468 3.16291e-21)
(-0.284519 -0.281676 -1.66202e-20)
(-0.730647 0.441076 0)
(-0.956344 -0.234338 1.5674e-20)
(-0.273407 -0.270639 -4.67562e-23)
(-1.11602 0.388116 -1.43853e-20)
(-1.20105 -0.646456 1.69652e-21)
(0.0589426 -0.0154921 -8.37147e-21)
(-1.1487 0.382666 0)
(-1.21554 -0.673155 1.59916e-21)
(0.0535271 -0.00761439 7.63942e-21)
(-0.316706 0.154148 0)
(-0.359866 -0.254436 -2.38641e-20)
(-0.570689 -0.0809281 7.89065e-21)
(-0.813372 0.464391 0)
(-1.02073 -0.302785 0)
(-0.173968 -0.207328 2.54161e-21)
(0.0536626 -0.0296352 -1.46163e-20)
(-1.38015 -0.873463 -9.7669e-21)
(-1.50106 0.43149 0)
(-1.41647 0.556102 1.28824e-21)
(0.0771436 -0.0512248 0)
(-1.32383 -0.743809 5.14737e-22)
(-1.4036 0.523408 -4.52774e-22)
(0.0715005 -0.05664 0)
(-1.27863 -0.739861 -1.16705e-21)
(-0.535053 0.31286 5.03452e-21)
(-0.333378 -0.28307 -2.50249e-21)
(-0.775419 -0.164469 -2.30406e-22)
(-1.2771 -0.677202 3.70884e-22)
(0.0621929 -0.0384017 1.23752e-20)
(-1.30708 0.572075 0)
(-1.22043 0.622291 1.23928e-20)
(0.0377883 -0.0706799 7.83291e-21)
(-1.40702 -0.551092 0)
(0.0585801 -0.0477623 -1.83723e-21)
(-1.20944 -0.696509 2.5039e-22)
(-1.29837 0.529097 0)
(-0.450075 0.0801038 1.28346e-20)
(-0.130975 -0.0292492 1.27156e-20)
(-0.505805 -0.236761 2.31202e-23)
(-0.874721 0.368898 -2.21492e-21)
(-1.01882 -0.448971 -1.97927e-21)
(0.0053573 -0.0748443 -8.81915e-21)
(-0.79618 -0.566371 1.538e-20)
(-0.839835 0.081787 1.37409e-20)
(-0.236971 0.172817 0)
(0.0810893 -0.0531558 0)
(-1.383 -0.815676 -1.05049e-21)
(-1.50819 0.502722 0)
(-1.18338 -0.731425 0)
(-1.1616 0.320859 0)
(0.00388597 0.0315112 0)
(0.0333392 -0.0417743 0)
(-1.31114 0.748168 -3.2545e-21)
(-1.58869 -0.543345 2.22239e-21)
(-0.947719 0.402162 0)
(-1.08102 -0.488232 1.01645e-21)
(0.0249569 -0.0661391 8.61692e-21)
(-0.39793 0.145099 0)
(-0.196739 -0.143891 1.79586e-20)
(-0.551735 -0.173172 0)
(-1.41895 -0.80092 -5.25092e-21)
(-1.48371 0.53677 2.59248e-21)
(0.0894234 -0.048267 0)
(0.0918647 -0.041668 -8.55587e-21)
(-1.41565 -0.667723 2.92754e-22)
(-1.30256 0.566797 4.08969e-22)
(-1.33136 0.684547 0)
(-1.31139 0.678498 2.25083e-21)
(0.0717337 -0.0168083 -4.53839e-21)
(0.0701826 -0.015417 -5.57058e-21)
(-1.51505 -0.626415 -4.41527e-22)
(-1.48976 -0.632014 3.63244e-22)
(-0.844466 0.239009 0)
(-0.918605 -0.525987 2.64849e-20)
(-0.0190182 0.0175009 9.43753e-21)
(-1.11182 -0.641062 1.74681e-20)
(-1.05501 0.305829 0)
(0.0149275 0.0184093 -1.01825e-20)
(-0.572595 0.141057 -1.05775e-20)
(-0.652793 -0.332566 7.26964e-21)
(-0.068371 -0.0144168 1.53341e-20)
(-1.36448 -0.774135 2.03289e-21)
(-1.4603 0.544969 1.92505e-21)
(-1.34405 -0.788462 -8.26839e-22)
(0.0823704 -0.0526987 0)
(-1.47608 0.518759 -1.85585e-21)
(0.0784731 -0.0574254 0)
(-1.0951 0.468861 0)
(-1.22486 -0.569362 0)
(0.0590272 -0.0520147 9.44519e-21)
(-1.47125 0.555579 3.71486e-21)
(-1.46189 0.558273 -6.63573e-21)
(-1.43108 -0.778747 1.32801e-21)
(-1.40796 -0.766787 -4.11786e-21)
(0.0915154 -0.0460627 1.2531e-20)
(0.0877902 -0.0473471 -9.49137e-24)
(-1.00639 0.280232 0)
(-1.0647 -0.638959 -1.65854e-20)
(-0.0154398 0.0394502 1.32007e-20)
(-0.778411 0.267849 9.84179e-21)
(-0.945206 -0.462246 -1.20103e-20)
(0.0109789 -0.0405599 0)
(-1.31362 0.738586 0)
(0.0510741 -0.0224032 0)
(-1.58085 -0.571195 1.14078e-21)
(-0.857893 0.269103 7.25565e-21)
(-0.945135 -0.511303 -7.37291e-21)
(0.00213919 -0.00112934 -1.56015e-20)
(-0.643371 0.181398 4.23827e-21)
(-0.738554 -0.381481 -8.53621e-21)
(-0.0424296 -0.0183338 8.79861e-21)
(-1.31026 0.702356 0)
(0.0660288 -0.0149091 0)
(-1.54455 -0.608971 -1.65557e-21)
(-0.970695 0.434875 0)
(-1.12681 -0.475546 2.02166e-21)
(0.0197727 -0.0796281 -9.42445e-21)
(-0.993198 -0.738296 0)
(-1.04294 0.127698 0)
(-0.253301 0.203155 -5.03535e-22)
(-0.695551 0.466312 -5.40362e-22)
(-0.970008 -0.173714 0)
(-0.403932 -0.366182 1.75131e-20)
(-1.29889 -0.874182 6.40507e-21)
(-0.0245077 0.032738 0)
(-1.36303 0.326407 0)
(0.0166415 -0.0143575 -1.76673e-20)
(-0.839902 -0.44472 -4.39768e-21)
(-0.81646 0.418925 2.87534e-21)
(-0.903871 0.328906 0)
(-1.00586 -0.497703 7.34369e-21)
(0.0261222 -0.0362546 -7.9258e-21)
(-1.34417 0.711668 6.50192e-21)
(0.0647264 -0.0308881 2.36429e-20)
(-1.56496 -0.59987 0)
(-0.588895 -0.502158 -4.65644e-21)
(-0.965286 -0.0905026 -7.54252e-21)
(-0.60108 0.436185 -4.71924e-21)
(-1.01867 0.604094 0)
(0.0375345 -0.00104047 -6.54339e-21)
(-1.23014 -0.526496 0)
(-0.191567 0.111519 9.47061e-21)
(-0.219155 0.137072 -9.67198e-21)
(-0.583264 -0.383684 0)
(-0.632962 0.0393632 9.00136e-21)
(-0.621251 -0.421788 -1.52755e-20)
(-0.678057 0.0339945 -7.19079e-21)
(-0.563007 0.109041 9.9628e-21)
(-0.61058 -0.327643 9.70765e-21)
(-0.0927556 0.0137101 0)
(-0.296705 0.169933 8.46353e-21)
(-0.23776 0.133963 0)
(-0.474553 -0.337776 -8.56241e-21)
(-0.628801 -0.0374581 8.05437e-21)
(-0.499427 -0.336492 8.62934e-21)
(-0.602555 -0.00633134 3.9923e-23)
(-0.846327 0.307275 6.18115e-22)
(-0.879691 -0.447816 -5.29999e-21)
(-0.00554247 -0.0249846 -1.07521e-20)
(-0.782647 0.249188 -1.69319e-20)
(-0.882871 -0.464481 1.3839e-22)
(-0.0106768 -0.00932289 0)
(0.0722366 -0.0616671 0)
(-1.28031 -0.770395 0)
(-1.4488 0.506509 9.32987e-22)
(-0.593967 0.335957 -4.6433e-21)
(-0.810133 -0.200462 0)
(-0.269297 -0.247066 4.62887e-21)
(-1.45336 0.577392 -8.62947e-21)
(-1.45957 -0.764141 2.24351e-21)
(0.096866 -0.0402635 -7.14721e-21)
(-1.15262 0.43237 0)
(-1.20975 0.458705 7.43745e-21)
(-1.24971 -0.639994 -2.11632e-21)
(-1.29897 -0.664905 6.21636e-21)
(0.072729 -0.0269553 -1.03562e-20)
(0.0806346 -0.0283791 -9.52899e-21)
(-0.566179 0.303444 0)
(-0.771225 -0.210322 0)
(-0.236749 -0.223313 2.22375e-21)
(-0.890396 0.534904 5.28288e-21)
(-1.11341 -0.313059 0)
(-0.189049 -0.215506 5.49594e-21)
(-1.04199 0.400431 -4.07607e-21)
(-1.15391 -0.579009 0)
(0.0566825 -0.0330773 0)
(-0.305236 0.0725432 9.82428e-21)
(-0.454233 -0.113749 -4.8331e-21)
(-0.244683 -0.146797 4.88877e-21)
(-1.22371 0.421507 0)
(-1.28411 -0.707297 0)
(0.0682242 -0.0142722 -1.53238e-20)
(-0.396137 0.173384 0)
(-0.250031 -0.19217 2.62813e-21)
(-0.58867 -0.150208 0)
(-1.00679 0.305987 -9.45682e-21)
(-1.0721 -0.615684 -9.3425e-21)
(0.0156262 0.0107352 -1.32676e-21)
(-0.881001 0.506349 5.39014e-21)
(-1.09302 -0.331996 0)
(-0.151086 -0.193317 1.13856e-20)
(-0.325678 0.105396 -9.73653e-21)
(-0.303063 0.10662 -4.30189e-21)
(-0.49713 -0.126003 4.77288e-21)
(-0.24901 -0.166456 -9.69942e-21)
(-0.505807 -0.10188 0)
(-0.292776 -0.197898 -1.72194e-20)
(-0.265234 0.12453 -4.2741e-21)
(-0.401431 -0.273631 1.11633e-20)
(-0.236077 0.119305 2.74578e-21)
(-0.551301 -0.0473917 -1.09309e-20)
(-0.478757 -0.318392 -5.43891e-21)
(-0.577459 -0.0130048 2.43717e-22)
(-0.689837 0.363772 5.09952e-21)
(-0.751846 0.383178 0)
(-0.879499 -0.279946 9.37632e-21)
(-0.927962 -0.320759 -7.32683e-21)
(-0.159964 -0.181466 -1.03255e-20)
(-0.111279 -0.15181 1.71711e-20)
(0.0243847 -0.0712334 0)
(-1.47047 -0.538477 -2.63265e-21)
(-1.25467 0.674744 -6.94479e-21)
(-0.285764 0.225628 6.14375e-21)
(-0.982844 0.0944063 8.69268e-21)
(-0.92039 -0.691171 -1.5555e-20)
(0.0430795 -0.0582354 -8.01796e-21)
(0.0597742 -0.0532136 6.4148e-21)
(-1.49892 -0.569925 2.27951e-21)
(-1.48305 -0.592411 4.04531e-21)
(-1.28895 0.683929 1.749e-20)
(-1.29947 0.659598 -9.04877e-21)
(-0.435986 0.314095 8.74877e-21)
(-0.659361 -0.517757 -7.50765e-21)
(-0.860971 -0.0248824 2.06899e-21)
(-0.298561 0.0161532 1.67113e-20)
(-0.238495 -0.0947936 0)
(-0.379094 -0.106317 -1.65854e-20)
(-1.24916 0.45462 -3.46956e-21)
(-1.31713 -0.701493 -7.02563e-21)
(0.0799106 -0.0228943 0)
(-0.494016 0.260784 0)
(-0.278945 -0.245079 -2.11842e-21)
(-0.70941 -0.166985 -8.283e-21)
(-0.921965 0.521265 0)
(-1.13077 -0.358278 0)
(-0.121029 -0.172258 -1.05921e-20)
(-1.18797 0.669581 -7.82765e-21)
(-1.17966 0.642382 0)
(-1.4183 -0.485794 1.61567e-21)
(-0.0223062 -0.102335 -9.90897e-21)
(-1.39462 -0.497345 -4.38818e-21)
(-0.00550434 -0.0946113 1.34282e-20)
(-1.14623 0.473424 7.60252e-21)
(-1.26921 -0.60063 6.79997e-21)