/*--------------------------------*- C++ -*----------------------------------*\
  =========                 |
  \\      /  F ield         | OpenFOAM: The Open Source CFD Toolbox
   \\    /   O peration     | Website:  https://openfoam.org
    \\  /    A nd           | Version:  6
     \\/     M anipulation  |
\*---------------------------------------------------------------------------*/
FoamFile
{
    version     2.0;
    format      ascii;
    class       volScalarField;
    location    "./ITHACAoutput/POD/1";
    object      P_rec;
}
// * * * * * * * * * * * * * * * * * * * * * * * * * * * * * * * * * * * * * //

dimensions      [0 2 -2 0 0 0 0];

internalField   nonuniform List<scalar> 
9000
(
118.732
63.7745
49.8017
43.7609
40.7225
38.9638
37.699
36.7608
36.1899
35.648
35.1505
34.7598
34.2839
33.8379
33.3117
32.7913
32.2953
31.9402
31.6351
31.2257
30.5626
30.0319
29.6562
29.136
28.7715
28.277
27.5814
27.3455
26.7407
26.1547
25.8782
25.2573
24.7389
24.3511
23.858
23.4484
22.9431
22.5371
22.2057
21.8446
21.1362
20.7643
20.3982
20.116
19.6246
19.1607
19.0651
19.0965
18.6619
17.8371
86.6344
60.7076
50.4707
44.7641
41.6558
39.6387
38.2804
37.2377
36.4385
35.8657
35.3248
34.7081
34.2387
33.7444
33.438
32.9133
32.4766
31.8598
31.454
30.9546
30.6828
29.9332
29.568
29.1334
28.6512
28.0976
27.6314
27.3636
26.7193
26.3014
25.7462
25.3159
24.7792
24.3969
23.9377
23.5242
22.9623
22.6806
21.984
21.7525
21.0963
20.7845
20.3517
19.8033
19.7689
19.2186
19.0058
18.2913
18.0087
16.5424
69.4568
56.992
50.2767
45.2295
42.3253
40.1027
38.4962
37.6053
36.6629
36.1064
35.483
34.6162
34.4089
33.7905
33.3223
32.8549
32.4105
32.107
31.4276
31.0376
30.5272
30.0715
29.6288
29.1593
28.5535
28.3147
27.623
27.179
26.704
26.1503
25.907
25.3009
24.9593
24.5139
23.9009
23.5256
23.0111
22.5438
22.1
21.5765
21.1432
20.7731
20.2473
19.8365
19.4123
18.9559
18.4511
17.7656
17.1987
15.7075
60.2693
53.5554
49.1524
45.1523
42.3893
40.3041
38.9728
38.0122
36.9605
36.241
35.5711
35.0196
34.4045
33.8053
33.539
33.0166
32.3906
32.0286
31.4776
30.8896
30.5518
30.0853
29.6646
29.0509
28.6107
28.2321
27.6587
27.3683
26.7529
26.4761
25.9271
25.4159
24.9245
24.4381
23.8959
23.5116
23.0079
22.5995
22.15
21.6569
21.091
20.7323
20.3354
19.8313
19.3972
18.9564
18.2936
17.7909
16.8064
15.5187
53.887
50.608
47.4294
44.5767
42.104
40.4465
39.2453
37.9916
37.0346
36.4512
35.4696
34.9224
34.5092
33.8536
33.4076
33.0312
32.3551
32.1087
31.5397
31.2016
30.5922
30.198
29.6555
29.0987
28.5022
28.3177
27.7492
27.2186
27.0026
26.2828
25.7722
25.348
24.8241
24.5607
24.0903
23.3163
22.9894
22.5304
22.0728
21.5866
21.1164
20.6862
20.1319
19.5771
19.0952
18.6777
18.1264
17.5177
16.6687
15.5882
49.5936
47.7855
45.8609
43.6698
41.9145
40.5058
39.0301
37.992
37.1261
36.2613
35.8214
35.24
34.4497
34.0443
33.6551
33.0047
32.5727
32.1205
31.4137
30.953
30.5341
30.1382
29.573
29.1429
28.7118
28.3414
27.7348
27.2477
26.8657
26.3284
25.771
25.2612
24.9679
24.6267
23.8018
23.4016
23.1286
22.3915
22.2368
21.4377
21.1502
20.5632
20.1524
19.6207
19.3018
18.6585
18.0372
17.428
16.4514
15.4633
46.3795
45.5466
44.4927
43.0967
41.6431
40.183
38.8609
38.0574
37.133
36.4362
35.6827
34.9656
34.5565
34.1716
33.3903
33.0576
32.5804
31.8988
31.3325
31.0595
30.474
30.1526
29.4401
29.1312
28.6532
28.0957
27.7191
27.0617
26.7656
26.3438
25.732
25.4264
24.7487
24.36
23.8204
23.37
22.8579
22.4029
21.9512
21.565
21.0269
20.5801
20.1477
19.6948
19.1284
18.5448
17.9215
17.0876
16.3889
15.5931
44.169
43.8006
43.1307
42.0286
41.0353
39.7676
38.7589
37.7768
36.9184
36.3973
35.7147
35.1719
34.5893
33.8789
33.5884
33.0346
32.6945
31.9291
31.2215
31.0714
30.427
30.1112
29.797
29.0672
28.579
28.1176
27.6998
27.3349
26.757
26.2209
25.7272
25.3568
24.7311
24.3913
23.8749
23.5396
23.0005
22.4843
22.0308
21.5655
21.0139
20.4722
20.0068
19.473
18.9606
18.5016
18.0596
17.1962
16.5072
15.5903
42.3451
42.3375
41.9776
41.2922
40.2098
39.3952
38.612
37.9589
37.156
36.4382
35.7614
35.1411
34.5278
34.0725
33.602
33.0249
32.5411
32.0372
31.5369
30.9444
30.6707
30.1862
29.7069
29.0427
28.6784
27.9824
27.4444
27.1497
26.7728
26.3004
25.8306
25.1242
24.6806
24.24
24.0025
23.3206
22.9455
22.4671
22.0447
21.4041
21.0516
20.5317
19.9894
19.5443
18.833
18.511
17.7924
17.227
16.5958
15.7113
40.763
41.0569
41.173
40.6389
39.9169
39.1719
38.2523
37.5275
37.0289
36.4499
35.6852
35.1652
34.3876
34.2298
33.4823
33.1264
32.719
32.0154
31.5628
30.9777
30.5867
30.0667
29.4768
29.1956
28.6259
28.3936
27.8657
27.1606
26.8587
26.3616
25.8837
25.2865
24.9079
24.4198
23.799
23.434
22.9963
22.6771
21.9027
21.3818
21.0213
20.4771
19.8949
19.497
18.9945
18.4672
17.7402
17.1946
16.4682
16.0537
39.7519
40.2904
40.2208
40.0625
39.1881
38.7959
38.1693
37.5471
36.8612
36.3093
35.8018
35.1636
34.5034
34.0262
33.343
33.136
32.5317
32.0998
31.6317
30.9616
30.5029
30.0498
29.5802
29.3053
28.713
28.2445
27.6516
27.469
26.6117
26.2588
25.8782
25.4227
24.8178
24.2892
23.8036
23.4168
22.8601
22.5102
22.061
21.3101
21.1128
20.3338
20.0222
19.4326
18.9363
18.4545
17.9568
17.1985
16.5893
15.99
38.9512
39.4918
39.6411
39.2943
39.0845
38.4472
37.7831
37.2945
36.6983
36.0795
35.634
35.0778
34.6148
34.1134
33.6076
32.9434
32.6025
32.0298
31.6344
31.0973
30.5227
30.0528
29.6421
29.1621
28.6716
28.2958
27.6775
27.021
26.8629
26.3432
25.8816
25.4724
24.7612
24.3079
23.7826
23.2576
22.8045
22.4833
21.8982
21.3476
20.9684
20.525
19.922
19.5475
18.8923
18.3793
17.7912
17.2697
16.6615
16.0728
38.2079
38.6872
39.0581
38.7551
38.4669
38.2183
37.6775
37.1837
36.5169
36.2149
35.6398
35.0028
34.4777
34.0627
33.4969
32.9335
32.6851
31.9602
31.5374
31.1741
30.5699
29.9785
29.5715
29.2479
28.7449
28.2204
27.5653
27.3318
26.7323
26.0888
25.8562
25.2146
24.859
24.3286
23.8283
23.3184
22.9934
22.4936
21.8779
21.5561
21.0231
20.536
20.0692
19.5131
18.9587
18.3466
17.8712
17.2302
16.7598
16.1342
37.7391
38.3485
38.4221
38.698
38.3239
37.9209
37.5026
36.8381
36.5627
36.036
35.6342
35.0621
34.5423
34.0982
33.6125
33.0505
32.5321
32.1237
31.5948
31.1039
30.6098
29.9533
29.7369
29.2853
28.7156
28.1241
27.8665
27.0631
26.747
26.4111
25.8326
25.4485
24.8991
24.3436
23.8243
23.4937
23.026
22.3327
21.9019
21.4775
20.9791
20.55
19.955
19.644
19.0091
18.5635
17.8817
17.4902
16.7867
16.4144
37.3404
37.7241
38.1357
38.179
38.0003
37.5147
37.5831
36.9447
36.4617
36.1132
35.6468
35.0584
34.3684
34.096
33.689
32.9425
32.6221
31.9639
31.6292
31.0643
30.7335
30.0842
29.685
29.1536
28.5587
28.2385
27.48
27.1493
26.6707
26.2684
25.8598
25.2467
24.8161
24.3207
23.9339
23.4494
22.9544
22.3619
21.8869
21.3466
20.8325
20.4623
19.8673
19.391
19.0061
18.5318
17.8937
17.4068
16.8525
16.3177
36.9816
37.5389
37.7525
37.7621
37.7407
37.6091
37.1933
36.7859
36.3946
36.0824
35.4854
34.9187
34.4467
34.1764
33.5909
33.0857
32.6613
31.9474
31.5209
31.2109
30.5006
30.1753
29.6526
29.0756
28.5453
28.0975
27.7285
27.2933
26.7317
26.3629
25.8951
25.2979
24.7428
24.3
23.8621
23.1558
22.9502
22.2466
22.0194
21.4845
21.0115
20.3254
19.9214
19.5735
18.8084
18.3765
17.9746
17.5013
16.8761
16.5064
36.8325
37.0508
37.4817
37.535
37.6793
37.4864
37.1134
36.8305
36.4083
35.9567
35.4334
35.0035
34.4118
33.8542
33.3495
32.9671
32.5557
32.0993
31.6281
31.1962
30.7001
30.1302
29.6218
29.1422
28.8185
28.0793
27.7618
27.2919
26.7452
26.2631
25.7929
25.3796
24.8124
24.4018
23.7928
23.4834
22.8022
22.3971
21.7728
21.452
21.0878
20.473
19.9826
19.4201
18.8819
18.5416
18.0361
17.3535
16.7993
16.4771
36.536
37.0913
37.3549
37.4388
37.3844
37.1817
37.0137
36.6116
36.4967
36.1016
35.4199
34.9923
34.5559
34.2377
33.3565
32.8562
32.3946
32.0632
31.6007
31.1659
30.5441
30.2132
29.5795
28.9928
28.7602
28.3139
27.7937
27.2275
26.6268
26.1857
25.855
25.1997
24.7437
24.5122
23.6336
23.3782
22.9414
22.4551
21.8827
21.3519
20.8885
20.4731
19.9643
19.4215
18.8895
18.5356
17.9929
17.5364
17.1898
16.5894
36.3091
36.9637
37.2857
37.4548
37.2479
37.1568
36.813
36.5521
36.2476
35.8997
35.4392
35.1299
34.5142
33.9919
33.6388
33.0482
32.5644
32.1306
31.5675
31.1206
30.5655
30.2452
29.6803
29.0228
28.6886
28.2516
27.6631
27.1138
26.8572
26.1472
25.8413
25.243
24.8248
24.3401
24.0393
23.3954
22.9475
22.5571
21.9215
21.2024
21.0782
20.4759
20.0737
19.5616
19.0267
18.6019
18.1997
17.5164
17.0092
16.5923
36.3896
36.7724
37.2188
37.3003
37.3908
37.0985
37.028
36.8317
36.399
35.9061
35.4776
34.9439
34.5198
33.9205
33.5573
33.0381
32.5395
31.9319
31.6404
31.1026
30.4706
30.2645
29.6103
28.8409
28.7842
28.1364
27.8508
27.2993
26.6841
26.2266
25.7321
25.3352
24.8198
24.3532
23.9603
23.4257
22.7003
22.4602
21.9567
21.4535
21.124
20.4511
20.0752
19.4163
18.8556
18.5482
17.9684
17.5907
16.9219
16.7257
36.2533
36.8889
37.3281
37.1472
37.3399
37.0254
36.8881
36.5147
36.2214
35.8465
35.4284
35.0499
34.6424
34.0244
33.5946
33.0283
32.6045
32.1109
31.6867
31.1134
30.5039
30.1382
29.5527
29.2399
28.7575
28.19
27.7184
27.2493
26.6719
26.2711
25.7623
25.2589
24.7583
24.3551
24.0108
23.3861
22.8715
22.4927
21.8355
21.5553
21.14
20.249
19.9036
19.4525
18.9652
18.552
18.1215
17.5325
17.1207
16.7756
36.2202
36.8564
37.1708
37.3795
37.5278
37.1897
37.1681
36.7443
36.1133
35.8996
35.5438
34.9967
34.5154
33.9171
33.4918
33.2609
32.4263
32.0047
31.5765
31.0685
30.6425
30.2114
29.6618
29.3096
28.7058
28.0443
27.776
27.1313
26.5839
26.3183
25.6712
25.2274
24.9514
24.2101
23.8959
23.2809
22.7302
22.3487
21.9384
21.4162
20.8014
20.3636
19.9831
19.3899
18.876
18.5616
18.2927
17.5823
17.0567
16.8815
36.5208
37.1651
37.2872
37.3747
37.4882
37.2929
37.2336
36.7314
36.2053
35.965
35.4826
34.9469
34.5374
34.1816
33.614
32.9163
32.4531
32.0838
31.6728
31.072
30.5538
30.0879
29.6181
29.1645
28.5422
28.2409
27.6076
27.4098
26.8003
26.0551
25.7563
25.3976
24.8066
24.2455
23.7832
23.2387
22.6913
22.3653
21.9535
21.3837
21.0005
20.6152
19.8152
19.6415
19.134
18.4679
18.064
17.6332
17.2254
16.6261
36.6696
37.1285
37.4805
37.6277
37.6773
37.6345
37.3036
36.8267
36.255
36.0305
35.6187
35.0888
34.5634
34.0568
33.4773
32.9915
32.6452
32.0757
31.565
31.1267
30.5173
30.1127
29.5629
29.1841
28.5113
28.2802
27.6076
27.2023
26.9074
26.3019
25.7538
25.3568
24.7054
24.2862
23.9259
23.2253
22.7856
22.4399
21.8998
21.3483
20.9092
20.5245
19.9194
19.5845
19.1124
18.4717
18.0579
17.649
17.2253
16.6715
37.1144
37.5116
37.7918
37.7684
37.8353
37.68
37.2848
36.9925
36.2913
36.1174
35.5171
35.0904
34.6365
34.0259
33.682
33.1104
32.6524
32.1452
31.4663
31.3149
30.7049
30.1469
29.5396
29.1441
28.6715
28.1602
27.6329
27.1245
26.6673
26.1309
25.7554
25.1906
24.8501
24.2307
23.8133
23.341
22.8735
22.4265
21.8768
21.3883
20.8117
20.4421
19.9782
19.3897
19.0714
18.4802
18.235
17.6182
17.2438
16.6529
37.3671
37.7293
38.1466
38.0793
37.9664
37.7738
37.4518
37.0344
36.5656
35.9936
35.4015
35.0851
34.4126
34.0759
33.6485
32.9983
32.4026
31.9622
31.5805
30.9743
30.5886
30.15
29.523
29.0992
28.7261
28.1101
27.7815
27.1164
26.7076
26.0872
25.7658
25.2789
25.017
24.192
23.7805
23.3576
22.7842
22.4701
21.9296
21.4827
20.9949
20.5815
19.9846
19.4218
19.0667
18.5526
18.1532
17.5637
17.2229
16.7954
37.989
38.0911
38.5975
38.5173
38.093
38.0157
37.5067
37.0851
36.6302
36.1523
35.6999
35.0523
34.5423
34.1471
33.5779
32.9923
32.8147
32.062
31.6134
31.0093
30.6688
30.056
29.7283
29.2144
28.8362
28.1664
27.5516
27.2432
26.84
26.1906
25.6521
25.1706
24.9688
24.3784
23.8428
23.3604
22.9437
22.3795
21.9186
21.591
20.7738
20.4552
20.0346
19.4676
19.1168
18.6161
18.0443
17.5518
17.2833
16.7436
38.4645
38.7083
39.1063
38.9895
38.5656
38.1919
37.5463
37.2698
36.9069
36.0689
35.592
35.0516
34.6369
34.0524
33.3762
33.1587
32.5097
31.9944
31.7338
30.9593
30.6852
30.1742
29.5648
29.22
28.609
28.3428
27.7536
27.1914
26.7969
26.1557
25.6326
25.2579
24.6821
24.333
23.8008
23.289
22.8322
22.3643
21.8732
21.3962
21.0212
20.5581
19.9501
19.61
18.9723
18.5961
18.099
17.6806
17.1502
16.8376
38.9368
39.4958
39.7628
39.3537
39.003
38.6886
38.0077
37.3477
36.6748
36.243
35.7382
34.9753
34.5908
34.0802
33.5816
33.1416
32.423
32.1359
31.6372
31.1189
30.5809
30.043
29.5967
29.1127
28.7349
28.1145
27.6838
27.1488
26.6783
26.2425
25.8772
25.2505
24.941
24.2476
23.837
23.3288
22.9691
22.4414
21.851
21.3081
20.8832
20.4998
19.9617
19.5497
19.0129
18.5988
18.0241
17.7002
17.3522
16.699
39.8127
40.1973
40.3837
39.8371
39.5304
38.8657
38.2459
37.4809
36.9001
36.234
35.6131
35.2771
34.6415
33.963
33.4331
33.0246
32.5256
32.1075
31.5142
31.1009
30.4841
30.1514
29.5402
29.1627
28.5614
28.0956
27.6328
27.3278
26.567
26.3368
25.7912
25.1561
24.7733
24.3419
23.8663
23.4454
22.9059
22.369
21.7505
21.3441
21.0513
20.3778
19.8171
19.5321
19.1076
18.5183
17.9629
17.7109
17.2111
16.7839
40.9054
41.2804
41.1462
40.6377
39.8449
39.317
38.3491
37.6663
36.9025
36.4466
35.6923
35.1202
34.5899
33.9599
33.589
32.985
32.4399
32.1394
31.4472
31.0119
30.6388
30.1036
29.7943
29.099
28.6731
28.1411
27.65
27.2888
26.7316
26.1103
25.6766
25.2685
24.6482
24.3167
23.9536
23.5058
22.7481
22.194
21.7085
21.5092
20.998
20.4133
19.8996
19.3397
19.0702
18.7943
18.2465
17.6195
17.1839
16.6731
42.3937
42.3601
42.2598
41.3996
40.252
39.479
38.5721
37.7193
37.0375
36.369
35.5945
35.087
34.59
34.0488
33.4295
33.0178
32.6056
31.8964
31.5402
31.2493
30.6194
30.1829
29.593
29.1152
28.6199
28.2032
27.7243
27.232
26.74
26.2419
25.9121
25.1849
24.7999
24.2999
23.7138
23.3221
22.8252
22.4011
21.9508
21.3135
20.9724
20.5198
19.9032
19.4132
19.022
18.6689
18.0502
17.6078
17.2589
16.8589
44.0158
43.7394
43.202
42.224
40.9224
39.932
38.8337
37.9422
36.9495
36.2637
35.7423
35.2263
34.5695
33.9839
33.481
33.0251
32.529
32.0637
31.4724
30.9358
30.7607
30.1068
29.5943
29.2085
28.6346
28.2198
27.628
27.0681
26.8312
26.022
25.85
25.3276
24.6891
24.4039
23.8795
23.283
23.0187
22.3766
21.8099
21.4851
20.8471
20.3866
19.9672
19.5125
19.0513
18.6384
18.1476
17.563
17.3159
16.5859
46.416
45.7843
44.3985
43.0097
41.5134
40.2059
38.9825
38.0526
36.9625
36.4624
35.715
35.2251
34.6332
34.0139
33.7264
33.0273
32.521
32.1391
31.5019
31.0692
30.644
29.977
29.4725
29.2376
28.5629
28.1712
27.8086
27.2374
26.955
26.0177
25.6661
25.2004
24.8933
24.1734
23.7982
23.3852
22.8609
22.3707
21.8983
21.2769
20.9495
20.2726
19.8344
19.5443
19.0608
18.647
18.0185
17.5569
17.1452
16.6252
49.4153
47.8101
46.004
43.8456
42.0081
40.1513
39.2543
37.9777
36.893
36.2818
35.7609
35.0299
34.4602
33.9233
33.4025
32.9606
32.3472
32.0339
31.5032
31.0705
30.4818
30.0169
29.4996
29.2203
28.622
28.096
27.6207
27.1084
26.7237
26.3667
25.7679
25.2509
24.8946
24.1926
23.7545
23.2428
22.9947
22.3822
21.7782
21.2116
20.8597
20.5502
19.7828
19.4223
18.9367
18.5289
17.8408
17.6309
17.0032
16.6614
53.9709
50.382
47.451
44.7159
42.2136
40.514
39.0654
37.9225
37.0827
36.4158
35.4973
35.1272
34.3936
34.0701
33.4924
32.8707
32.3652
31.7734
31.6774
31.0012
30.6708
30.1405
29.6826
29.1978
28.4501
28.1779
27.8168
27.2272
26.6471
26.166
25.8917
25.0815
24.6944
24.0937
23.8934
23.2761
22.9867
22.3836
21.8769
21.2714
20.8953
20.415
19.9072
19.5059
18.9668
18.4625
17.9843
17.3843
17.0292
16.7001
60.2306
53.621
49.1935
45.2363
42.4129
40.3566
39.0368
37.83
37.0423
36.1637
35.6448
34.8149
34.5759
33.9077
33.3535
33.0909
32.4356
31.8451
31.6355
31.0297
30.7232
30.0061
29.5956
29.2365
28.5836
28.3135
27.6857
27.1364
26.805
26.4104
25.693
25.4224
24.8099
24.1788
23.6462
23.2768
22.8022
22.4624
21.7944
21.3913
20.8363
20.2869
20.0574
19.2503
18.8629
18.5356
18.0034
17.388
17.007
16.6286
69.4856
57.0558
50.166
45.5223
42.237
40.0789
38.6371
37.3974
36.7813
35.9378
35.3029
34.8964
34.2776
33.7859
33.3638
33.0466
32.5378
32.0967
31.3936
30.9702
30.497
30.097
29.7138
29.1276
28.5322
28.1941
27.6562
27.1571
26.7383
26.1701
25.7617
25.1689
24.586
24.323
23.8619
23.3835
22.6474
22.3825
21.8505
21.3633
20.8549
20.2187
19.8686
19.4435
18.803
18.4852
17.8946
17.4072
16.9159
16.6637
86.58
60.5913
50.4399
44.9819
41.5109
39.6765
38.0733
37.4135
36.4883
35.9681
35.2375
34.8988
34.2303
33.6099
33.1086
32.8049
32.3871
31.8851
31.5645
30.8799
30.6092
30.1224
29.5155
29.0706
28.5107
28.0522
27.6779
27.2188
26.6996
26.2733
25.7461
25.3315
24.9333
24.1984
23.7685
23.3362
22.796
22.3153
21.6721
21.3598
20.6505
20.1898
19.71
19.3306
18.6978
18.4653
17.892
17.6324
17.0033
16.4316
119.411
63.889
49.6291
43.7974
40.7755
38.9463
37.4329
36.7247
36.2545
35.478
35.1702
34.6648
34.2636
33.7035
33.3491
32.6726
32.2282
31.8745
31.3113
31.1411
30.501
30.074
29.5893
29.1703
28.5433
28.2483
27.754
27.1068
26.7985
26.1033
25.7542
25.294
24.742
24.3188
23.7803
23.3476
22.6015
22.3922
21.7966
21.3426
20.8143
20.2499
19.9631
19.301
18.8738
18.2485
17.8687
17.3794
16.856
16.3224
8.27199
10.1522
10.3079
10.5965
10.9698
10.963
11.2129
11.203
11.2378
11.0918
11.2645
11.2238
11.0167
10.9112
10.9402
10.9149
10.666
10.5359
10.5352
10.365
10.3052
10.3005
10.1177
9.95777
9.79436
9.73073
9.60641
9.45223
9.31713
9.19834
9.05328
8.92027
8.80038
8.67335
8.55048
8.42253
8.2741
8.13892
8.0236
7.87745
7.7601
7.6072
7.48211
7.36499
7.23459
7.10832
6.96475
6.84507
6.72491
6.58122
6.43826
6.3114
6.18407
6.04156
5.93498
5.7771
5.64081
5.53408
5.41365
5.27061
5.13954
5.00043
4.88671
4.75302
4.62152
4.47718
4.35489
4.23483
4.09929
3.97819
3.84671
3.71034
3.58032
3.45022
3.31454
3.18948
3.063
2.94898
2.79262
2.65471
2.53219
2.39708
2.2787
2.14145
2.00839
1.87455
1.74671
1.61953
1.50114
1.3608
1.22024
1.0999
0.961182
0.844998
0.71512
0.584632
0.455065
0.325049
0.195657
0.0650958
10.7176
11.2574
10.955
11.2006
11.1177
11.3737
11.2824
11.2264
11.282
11.3614
11.2454
11.1453
11.0468
11.0198
11.029
10.6636
10.814
10.7339
10.368
10.4028
10.3563
10.1786
10.219
10.1226
9.72928
9.65789
9.58269
9.46362
9.3331
9.19098
9.05936
8.92665
8.79618
8.67895
8.53515
8.4106
8.2691
8.14718
8.02254
7.8823
7.74773
7.62057
7.49232
7.35556
7.2273
7.09459
6.9728
6.83558
6.70656
6.57946
6.44592
6.3216
6.19993
6.06221
5.91331
5.78839
5.6649
5.52051
5.41333
5.26656
5.14599
5.00844
4.88052
4.76428
4.61598
4.47578
4.36583
4.22291
4.09927
3.95523
3.84553
3.72279
3.56909
3.44452
3.30055
3.19237
3.04761
2.9187
2.80912
2.6763
2.53542
2.39916
2.2757
2.14267
2.0084
1.88475
1.74087
1.62546
1.4952
1.36542
1.24753
1.11326
0.985659
0.844235
0.715928
0.585696
0.457188
0.326528
0.195711
0.0651251
12.0913
11.8855
11.5018
11.4187
11.613
11.5241
11.6081
11.4019
11.2805
11.5158
11.124
11.2134
11.0846
11.1069
11.0492
10.8668
10.7647
10.7132
10.473
10.3107
10.3488
10.1433
10.0787
10.0212
9.82593
9.65825
9.55447
9.44146
9.30477
9.16197
9.0664
8.92557
8.80063
8.67653
8.54785
8.40942
8.25876
8.14426
8.01547
7.88312
7.74614
7.60531
7.49152
7.35874
7.23284
7.09422
6.96972
6.82421
6.70208
6.57626
6.43516
6.31957
6.19519
6.06201
5.89532
5.78997
5.64514
5.52459
5.3981
5.27411
5.14068
5.0138
4.88425
4.74808
4.61858
4.49304
4.36007
4.21579
4.09926
3.96831
3.84204
3.66983
3.57431
3.44619
3.3168
3.20384
3.04027
2.92138
2.79486
2.67357
2.53484
2.39891
2.2769
2.15967
2.0178
1.89089
1.73962
1.64042
1.48863
1.36544
1.2401
1.1042
0.961433
0.845905
0.713869
0.585608
0.45512
0.325965
0.19652
0.0651558
12.8943
12.6276
11.9754
11.8756
11.813
11.632
11.688
11.5834
11.631
11.3218
11.3226
11.371
11.2082
11.3016
11.0546
10.963
10.7981
10.7182
10.3716
10.4229
10.2315
10.119
9.98986
10.0181
9.80344
9.73209
9.58277
9.39827
9.29786
9.19156
9.07253
8.92397
8.79763
8.65927
8.5265
8.38948
8.26752
8.16243
8.02049
7.89172
7.76388
7.61048
7.49371
7.35745
7.22439
7.10735
6.95899
6.84012
6.69287
6.55687
6.43698
6.32108
6.20131
6.03635
5.9386
5.77507
5.66503
5.52752
5.40388
5.2638
5.14901
5.01362
4.87101
4.76934
4.62086
4.48346
4.34321
4.22209
4.10055
3.95849
3.84863
3.73057
3.59251
3.44962
3.32493
3.18514
3.06729
2.9148
2.78789
2.65878
2.54577
2.41355
2.28516
2.17702
2.02993
1.88978
1.74731
1.62083
1.49985
1.35623
1.22832
1.11297
0.984485
0.845472
0.71645
0.584938
0.456652
0.325395
0.195097
0.0650234
13.5325
12.936
12.4334
12.135
11.8777
11.9496
11.7576
11.701
11.7321
11.3237
11.3759
11.4221
11.3461
10.9759
10.996
10.8331
10.8986
10.6693
10.5545
10.3905
10.4362
10.1285
9.92784
10.0394
9.76723
9.6301
9.62236
9.37463
9.33314
9.19023
9.05342
8.93378
8.78163
8.68066
8.5436
8.38351
8.26773
8.13347
8.0067
7.88418
7.74558
7.61778
7.49781
7.35948
7.23211
7.09443
6.95605
6.84157
6.69228
6.57697
6.44345
6.30811
6.18686
6.04558
5.92166
5.78622
5.66477
5.54655
5.40672
5.26885
5.14512
5.00492
4.88045
4.73993
4.62177
4.48488
4.34317
4.22347
4.10053
3.96365
3.83504
3.70924
3.57566
3.45542
3.32003
3.19054
3.05158
2.93902
2.80283
2.67202
2.53608
2.4085
2.2838
2.16048
2.02272
1.88477
1.7476
1.63435
1.49978
1.36309
1.26673
1.11743
0.972125
0.847323
0.715495
0.585089
0.456682
0.326767
0.197107
0.0651161
14.0943
13.4458
12.8157
12.429
12.5108
11.9943
12.1956
11.6641
11.7356
11.577
11.437
11.4381
11.2462
10.843
10.9346
10.6991
10.766
10.6847
10.6923
10.3785
10.2819
10.1169
10.0198
9.96832
9.8894
9.64256
9.63375
9.44515
9.30386
9.18104
9.02757
8.91213
8.78966
8.66671
8.51786
8.3779
8.26419
8.14601
8.02787
7.86032
7.73601
7.60992
7.49527
7.36503
7.22615
7.08839
6.98043
6.83266
6.6984
6.55832
6.44309
6.30375
6.19303
6.04835
5.91789
5.78291
5.66135
5.5379
5.40266
5.26987
5.13054
5.02075
4.878
4.75021
4.60724
4.49382
4.34486
4.22907
4.09921
3.95927
3.83766
3.69891
3.57973
3.46746
3.31597
3.18212
3.06066
2.92586
2.80853
2.67192
2.54037
2.40765
2.28227
2.15909
2.02178
1.89697
1.74899
1.63794
1.50682
1.36546
1.22918
1.10155
0.984062
0.846383
0.714834
0.586179
0.455707
0.326593
0.196178
0.0651912
14.4738
13.7438
13.0148
12.6927
12.5609
12.1304
12.2336
11.793
11.8626
11.8323
11.5777
11.4464
11.512
11.2993
11.054
10.9886
11.0435
10.5426
10.5861
10.4599
10.4274
10.2614
9.97478
9.8713
9.89224
9.60213
9.55019
9.40111
9.30476
9.1926
9.04255
8.90346
8.79441
8.66715
8.54118
8.38576
8.27911
8.12379
8.02112
7.87214
7.73496
7.58865
7.48377
7.35816
7.2162
7.07977
6.96944
6.82489
6.70738
6.58536
6.43351
6.31844
6.15669
6.05511
5.92892
5.80136
5.66297
5.53106
5.38528
5.27408
5.12227
5.00481
4.88406
4.75368
4.62627
4.47186
4.35537
4.23338
4.10049
3.9709
3.83747
3.7121
3.56605
3.45348
3.3102
3.18214
3.06697
2.93048
2.79323
2.66348
2.53334
2.4216
2.27183
2.17059
2.02409
1.88723
1.75356
1.63228
1.48717
1.36388
1.2502
1.11871
0.971743
0.845202
0.716092
0.584505
0.455569
0.325252
0.194368
0.0652878
14.65
14.1233
13.4841
13.0786
12.5968
12.6467
12.3106
11.9645
11.9522
11.9191
11.7235
11.5522
11.4697
11.5189
11.0204
11.0633
10.7104
10.7081
10.5668
10.5134
10.2446
10.3438
10.0519
9.96642
9.74941
9.65984
9.48531
9.46986
9.28656
9.1723
9.03741
8.89761
8.7562
8.65022
8.53178
8.40121
8.24826
8.12313
7.99138
7.85833
7.71977
7.60666
7.48584
7.35695
7.22641
7.08498
6.95202
6.81077
6.71641
6.57238
6.4365
6.29594
6.18097
6.05565
5.91096
5.79608
5.65506
5.51922
5.40384
5.25907
5.12967
5.01075
4.87827
4.74751
4.59671
4.50807
4.35506
4.2269
4.0955
3.96231
3.82975
3.71802
3.59163
3.44245
3.30561
3.19285
3.04837
2.91789
2.79175
2.66413
2.54713
2.39845
2.27185
2.16642
2.03311
1.89054
1.75814
1.63009
1.47992
1.37352
1.23175
1.09182
0.982506
0.844489
0.714523
0.584881
0.457075
0.325112
0.196111
0.0652625
14.9395
14.378
13.6787
13.1518
13.0724
12.7976
12.2451
12.2832
12.0057
11.8704
11.8848
11.5651
11.5183
11.1508
11.2582
10.9616
10.8559
10.6359
10.6237
10.3986
10.4931
10.2403
10.0254
9.94564
9.75828
9.75006
9.48268
9.41818
9.30019
9.15901
9.03687
8.90074
8.77568
8.65468
8.52066
8.38726
8.25919
8.141
8.00676
7.85995
7.73177
7.6022
7.47985
7.34875
7.20499
7.07947
6.96711
6.82569
6.71401
6.58105
6.43776
6.3062
6.17406
6.05161
5.91168
5.78939
5.65579
5.5307
5.39606
5.252
5.12789
5.00762
4.89849
4.74802
4.62935
4.4933
4.36458
4.22581
4.09915
3.96652
3.82403
3.71392
3.56567
3.44537
3.31642
3.17844
3.0513
2.9234
2.79865
2.67446
2.53084
2.41041
2.26466
2.14924
2.02682
1.88172
1.76424
1.64621
1.49958
1.36024
1.23682
1.12022
0.973495
0.845742
0.716152
0.586009
0.454745
0.324779
0.195563
0.0652119
15.0305
14.5255
14.0371
13.4839
13.1987
12.7572
12.6132
12.3353
12.1456
11.9465
11.5773
11.7043
11.4207
11.3954
11.2955
11.0653
11.0037
10.9305
10.7212
10.4903
10.3812
10.2972
10.0594
9.99531
9.78194
9.67282
9.60835
9.39348
9.30946
9.14517
9.02568
8.89495
8.78372
8.63796
8.5254
8.35949
8.25995
8.13645
8.00281
7.86316
7.73697
7.59816
7.47762
7.34273
7.20887
7.0837
6.93621
6.82629
6.6937
6.57431
6.44836
6.33065
6.18528
6.06898
5.93051
5.7863
5.63936
5.53747
5.39484
5.27041
5.13332
5.01801
4.87616
4.76028
4.60222
4.48615
4.37168
4.22355
4.10045
3.97575
3.83643
3.70362
3.56519
3.45283
3.31491
3.18724
3.0556
2.91937
2.79596
2.65803
2.52528
2.41043
2.27495
2.13808
2.02542
1.86295
1.75857
1.63176
1.50739
1.36698
1.2302
1.09453
0.981254
0.846693
0.715348
0.585925
0.454317
0.324787
0.195814
0.0650737
15.2049
14.6181
13.9678
13.6263
13.3298
12.9925
12.5362
12.5937
12.1401
12.045
11.8228
11.7395
11.5249
11.2755
11.2719
11.1177
10.8783
10.5997
10.6121
10.5858
10.4218
10.2448
10.0602
9.91067
9.86507
9.71927
9.52219
9.46184
9.27881
9.16307
9.02455
8.8979
8.76288
8.6425
8.51678
8.38633
8.2523
8.11973
7.99746
7.86755
7.7369
7.60712
7.47017
7.3518
7.21513
7.09494
6.94695
6.81581
6.68788
6.55873
6.42296
6.31274
6.16873
6.04837
5.92855
5.7898
5.65251
5.52986
5.39725
5.25935
5.13938
5.0157
4.88217
4.75727
4.61565
4.4881
4.37762
4.22352
4.08636
3.96634
3.83751
3.70388
3.57598
3.4522
3.2917
3.19331
3.05853
2.92577
2.79711
2.65542
2.5455
2.41114
2.27514
2.13856
2.02561
1.87835
1.75858
1.63407
1.50443
1.37006
1.23154
1.10531
0.977325
0.845769
0.714903
0.586949
0.456667
0.325684
0.194335
0.0650956
15.4383
14.7741
14.4141
13.8262
13.4708
13.0001
12.9167
12.4828
12.4149
12.147
11.9848
11.9451
11.7213
11.4266
11.1757
11.0467
10.8666
10.6787
10.7377
10.5229
10.3848
10.1964
9.99527
9.8812
9.74579
9.69524
9.50574
9.39321
9.28368
9.14331
9.03115
8.8981
8.76485
8.62887
8.50522
8.37604
8.25723
8.13055
7.96108
7.86648
7.71159
7.60789
7.47835
7.35377
7.21899
7.08264
6.94214
6.82764
6.69404
6.54917
6.43171
6.31537
6.17699
6.03762
5.91636
5.78324
5.64879
5.52868
5.40797
5.25957
5.15124
5.00368
4.87225
4.74528
4.63105
4.48308
4.36839
4.23074
4.10439
3.97623
3.8353
3.71428
3.57709
3.44441
3.29753
3.18885
3.05797
2.92367
2.79641
2.66573
2.52956
2.40934
2.28353
2.13987
2.0214
1.88914
1.75805
1.62359
1.50875
1.36789
1.23907
1.08875
0.981949
0.846204
0.715809
0.584591
0.454984
0.325046
0.195038
0.0651385
15.6546
14.9166
14.5835
13.9818
13.612
13.2839
12.9514
12.5671
12.4936
12.2428
12.0822
11.811
11.7211
11.4768
11.0868
11.1333
10.8704
10.8397
10.7238
10.4349
10.479
10.2419
10.0808
10.0264
9.88903
9.72976
9.54312
9.38529
9.28557
9.13976
9.01353
8.89094
8.74061
8.63567
8.49075
8.37934
8.25517
8.13139
7.99078
7.84682
7.72953
7.60463
7.47695
7.33092
7.23008
7.08844
6.94277
6.82869
6.6906
6.57977
6.42404
6.29744
6.17085
6.03236
5.9271
5.79131
5.64528
5.52123
5.38924
5.26157
5.14005
5.02519
4.88407
4.73602
4.61082
4.48758
4.34441
4.23633
4.10216
3.97768
3.83809
3.7021
3.58501
3.43784
3.30243
3.1961
3.07291
2.92103
2.79898
2.67585
2.55385
2.39303
2.26785
2.15254
2.03227
1.88568
1.75585
1.61713
1.47947
1.36218
1.22585
1.10997
0.976222
0.84556
0.717765
0.584073
0.456328
0.325704
0.195562
0.0650948
15.6357
15.059
14.4513
14.2956
13.6126
13.4662
13.0398
12.7124
12.6019
12.1758
12.0342
11.9744
11.6642
11.4263
11.3309
11.1409
10.9089
10.9114
10.6247
10.4241
10.3974
10.1106
10.1969
9.90647
9.89211
9.56927
9.50121
9.44438
9.26654
9.16192
9.03167
8.89618
8.76862
8.61671
8.49525
8.36935
8.23479
8.11671
7.97091
7.85312
7.733
7.59309
7.47383
7.33832
7.20626
7.08908
6.95195
6.80594
6.6946
6.55798
6.44679
6.28323
6.18857
6.04356
5.92889
5.79102
5.65559
5.52091
5.39663
5.26007
5.14239
5.0169
4.89485
4.74833
4.61378
4.49123
4.34917
4.21343
4.09194
3.95226
3.83731
3.71194
3.57426
3.43249
3.31465
3.17823
3.04202
2.92641
2.78445
2.68318
2.54433
2.42757
2.26542
2.14583
2.0263
1.88569
1.74752
1.62685
1.48471
1.36783
1.2635
1.09183
0.98157
0.845106
0.714776
0.585614
0.454417
0.32602
0.194045
0.0651317
15.571
15.1674
14.5825
14.0802
13.6247
13.4449
13.1443
12.8265
12.4936
12.3002
12.0135
11.9505
11.7489
11.5019
11.323
11.1888
10.985
10.9324
10.5694
10.4883
10.2433
10.1656
10.2093
9.98296
9.87409
9.66107
9.58992
9.36493
9.27692
9.15751
9.00482
8.87434
8.74254
8.62533
8.49389
8.36333
8.23917
8.09282
7.98585
7.85198
7.72584
7.59787
7.46174
7.3323
7.21617
7.07389
6.94265
6.80327
6.68509
6.55905
6.4226
6.31143
6.1751
6.04774
5.92931
5.78031
5.65896
5.52462
5.38532
5.26351
5.15999
5.00298
4.88398
4.75323
4.60077
4.49119
4.35183
4.23261
4.10006
3.96154
3.8388
3.71737
3.56294
3.46568
3.32225
3.20156
3.05995
2.93306
2.80104
2.65384
2.52425
2.40518
2.29278
2.141
2.0238
1.87942
1.73658
1.61838
1.47893
1.35959
1.2338
1.11363
0.979788
0.845162
0.717086
0.587346
0.453979
0.326053
0.194609
0.0652245
15.8739
15.2646
14.9818
14.3219
14.0837
13.5214
13.1832
12.9525
12.6278
12.4588
11.9582
11.9914
11.8212
11.519
11.241
11.2516
11.2933
10.8713
10.7262
10.3307
10.2524
10.174
10.0675
9.89695
9.81578
9.60336
9.49761
9.42193
9.27948
9.12686
9.01577
8.87625
8.75506
8.61931
8.47919
8.36058
8.2357
8.11622
7.96702
7.86205
7.72507
7.59413
7.4577
7.35111
7.20142
7.07362
6.95064
6.81922
6.68797
6.56093
6.43145
6.30578
6.18357
6.04004
5.89499
5.77233
5.64851
5.52501
5.38623
5.26012
5.14348
5.00158
4.86304
4.73716
4.61784
4.49183
4.34911
4.24117
4.10433
3.99381
3.84259
3.71739
3.57394
3.44615
3.31616
3.174
3.05826
2.92522
2.79853
2.67313
2.5248
2.40529
2.27638
2.13866
2.01361
1.88394
1.7366
1.61404
1.50077
1.36756
1.24069
1.09833
0.980624
0.845557
0.716255
0.586085
0.454689
0.324592
0.193013
0.0651704
15.8927
15.3949
14.8186
14.5683
13.8965
13.6536
13.3083
12.9118
12.6391
12.4253
12.1365
12.0446
11.7433
11.5792
11.2003
11.1618
10.8854
10.7521
10.8006
10.4522
10.2788
10.1865
10.0912
9.8068
9.82231
9.63345
9.58362
9.41425
9.28915
9.14366
8.99911
8.875
8.73246
8.61107
8.4966
8.34976
8.22261
8.09388
7.97693
7.84181
7.71806
7.5867
7.45535
7.32912
7.19501
7.06168
6.93858
6.80944
6.69903
6.55696
6.44012
6.31519
6.18116
6.04712
5.90718
5.77588
5.65481
5.52598
5.40174
5.26456
5.146
4.98991
4.87078
4.74188
4.61436
4.47674
4.3631
4.23231
4.09434
3.95966
3.84465
3.70875
3.58529
3.44465
3.3256
3.18594
3.05125
2.912
2.79669
2.66901
2.54814
2.3922
2.27789
2.14405
2.0139
1.89107
1.74414
1.62937
1.50413
1.36835
1.23893
1.1128
0.975653
0.845773
0.714282