/*--------------------------------*- C++ -*----------------------------------*\
  =========                 |
  \\      /  F ield         | OpenFOAM: The Open Source CFD Toolbox
   \\    /   O peration     | Website:  https://openfoam.org
    \\  /    A nd           | Version:  6
     \\/     M anipulation  |
\*---------------------------------------------------------------------------*/
FoamFile
{
    version     2.0;
    format      ascii;
    class       volVectorField;
    location    "0";
    object      U_rec;
}
// * * * * * * * * * * * * * * * * * * * * * * * * * * * * * * * * * * * * * //

dimensions      [0 1 -1 0 0 0 0];

internalField   nonuniform List<vector> 
13046
(
(-0.556128 0.251448 0)
(-0.66993 -0.219173 -5.89654e-21)
(-0.141024 -0.122584 -1.21844e-20)
(-0.496702 0.137348 0)
(-0.1148 -0.0337235 -1.12703e-20)
(-0.544009 -0.229799 0)
(-0.568456 0.172553 1.74103e-21)
(-0.622977 -0.281555 2.9659e-21)
(-0.0836725 -0.0220863 -1.22205e-20)
(-1.4518 0.679069 3.24414e-21)
(-1.53822 -0.687915 0)
(0.0901268 -0.0340063 7.25044e-21)
(-0.760078 0.324863 -5.47697e-21)
(-0.843138 -0.329686 -8.8356e-21)
(-0.045827 -0.0853254 6.43648e-21)
(-1.37936 0.758225 -4.83898e-21)
(0.0482702 -0.0439864 1.74458e-20)
(-1.57729 -0.569548 2.59643e-21)
(-0.229373 0.0666464 0)
(-0.366495 -0.194381 -6.25741e-21)
(-0.456932 0.00257433 1.83942e-20)
(-1.39596 0.747956 -1.831e-21)
(0.0621544 -0.0387018 -2.32896e-20)
(-1.56992 -0.595006 0)
(-0.436853 0.147481 7.23472e-21)
(-0.529511 -0.172178 -1.45602e-20)
(-0.158586 -0.0936251 0)
(-0.779822 0.366192 -9.74599e-21)
(-0.882375 -0.32705 2.61024e-21)
(-0.0551519 -0.102631 -1.13154e-20)
(-0.577841 0.27917 0)
(-0.704603 -0.201784 0)
(-0.15961 -0.146012 1.24009e-20)
(-0.373887 0.10368 -8.40388e-21)
(-0.18845 -0.0916318 4.26985e-21)
(-0.462257 -0.132525 2.53681e-20)
(-0.360368 0.0741931 -1.30139e-20)
(-0.194413 -0.0646105 6.54821e-21)
(-0.423006 -0.128568 -1.29839e-20)
(-0.451966 0.262816 8.76787e-21)
(-0.39076 -0.30082 2.21756e-21)
(-0.694334 -0.0749144 -8.9339e-21)
(-0.328362 -0.0136086 5.89763e-21)
(-0.251679 -0.025846 9.92846e-21)
(-0.313914 -0.0863508 0)
(-0.365579 -0.000591628 3.78878e-21)
(-0.223128 0.000840909 -1.52906e-20)
(-0.331691 -0.121575 -1.90847e-21)
(-0.586482 0.24631 0)
(-0.687066 -0.249013 -4.19e-22)
(-0.0991808 -0.0981921 -7.99824e-23)
(-0.668677 -0.492654 1.36775e-20)
(-0.383371 0.267528 0)
(-0.830294 0.0384849 -1.04545e-20)
(-0.763592 -0.550923 -1.95074e-20)
(-0.87722 0.0772343 -1.65463e-20)
(-0.331021 0.235186 1.30049e-20)
(-1.32944 -0.339333 -1.70534e-21)
(-1.1137 0.705693 0)
(-0.15984 -0.188585 9.81634e-21)
(-1.03957 0.363572 -5.13597e-21)
(-1.07691 -0.561414 4.89617e-21)
(0.023281 0.00243185 -2.65746e-20)
(0.0869745 -0.0427714 1.3478e-20)
(-1.45411 -0.638155 -2.41249e-21)
(-1.37011 0.627047 -6.73617e-21)
(-1.04716 0.687891 0)
(-1.25974 -0.280851 0)
(-0.22464 -0.239667 0)
(-0.988486 0.648454 -3.59418e-21)
(-1.2001 -0.258666 0)
(-0.245301 -0.253523 7.87611e-21)
(-1.39281 -0.355258 0)
(-1.16778 0.739282 1.31619e-22)
(-0.141234 -0.180179 -6.7866e-23)
(-0.258952 0.09549 0)
(-0.362423 -0.21403 6.72236e-21)
(-0.494967 -0.0222839 -1.3076e-20)
(-0.0644244 -0.122235 1.07124e-20)
(-1.2448 0.762357 -9.99582e-21)
(-1.46844 -0.426925 0)
(-0.481915 0.164666 3.81174e-21)
(-0.561369 -0.201888 0)
(-0.127176 -0.0707593 0)
(0.088969 -0.0406362 -1.20286e-20)
(-1.49098 -0.649808 -1.63068e-21)
(-1.40552 0.652717 3.94205e-21)
(-1.41684 0.516656 -7.12613e-21)
(0.0811303 -0.0240107 0)
(-1.39836 -0.748179 -1.93384e-21)
(0.00947276 0.00196125 0)
(-1.50126 0.417095 0)
(-1.36957 -0.870315 2.28282e-22)
(-1.09105 0.511737 0)
(-1.15602 0.527975 4.30413e-21)
(-1.19524 -0.487003 9.24005e-21)
(-1.25002 -0.533391 -4.30534e-21)
(0.0290141 -0.071325 -5.64681e-21)
(0.051705 -0.0563001 1.45765e-20)
(0.0661001 -0.0160755 -6.78916e-22)
(-1.40388 0.485865 6.97537e-21)
(-1.36941 -0.767268 0)
(-0.396737 0.034209 -3.01547e-23)
(-0.191016 -0.00198478 7.88622e-21)
(-0.382798 -0.158806 0)
(-0.213271 0.155907 0)
(-0.784558 0.116523 -5.23613e-21)
(-0.729221 -0.474892 0)
(-0.36745 0.243209 1.49473e-20)
(-0.575559 -0.412508 0)
(-0.745242 0.00775031 -2.01873e-20)
(-1.37005 0.660276 0)
(0.0698401 -0.0316305 0)
(-1.43174 -0.679403 2.73572e-23)
(-0.679781 0.285995 1.51259e-20)
(-0.776052 -0.294583 3.85206e-21)
(-0.0615947 -0.0801157 1.1878e-20)
(-1.17285 0.605512 5.52348e-21)
(-1.10457 0.556498 -1.05015e-20)
(-1.30662 -0.483473 -7.74097e-21)
(0.0117586 -0.0860796 6.50224e-21)
(-1.22761 -0.45981 4.47825e-21)
(0.00669845 -0.0879427 -6.07342e-21)
(-1.43915 0.692613 -1.98536e-21)
(-1.53787 -0.680796 -1.54304e-21)
(0.085269 -0.0308871 -3.23732e-21)
(-0.949308 0.45169 0)
(-1.05126 -0.409511 -6.48719e-21)
(-0.0121184 -0.0942884 1.36197e-20)
(-0.513218 0.292547 0)
(-0.330334 -0.268384 -1.1212e-20)
(-0.719392 -0.114707 4.96065e-22)
(-0.00619717 0.0168054 0)
(-1.44892 0.392998 0)
(-1.33971 -0.848731 0)
(-1.27183 0.542214 0)
(-1.33527 -0.621596 -1.10133e-20)
(0.0795817 -0.0375747 -1.5437e-20)
(-0.649938 0.314751 0)
(-0.76987 -0.235707 0)
(-0.140558 -0.151829 0)
(-0.761926 0.223262 0)
(-0.797223 -0.424627 0)
(-0.0544848 0.026273 0)
(-0.338483 0.231943 0)
(-0.643127 -0.454441 0)
(-0.776132 0.039778 1.08913e-20)
(-0.207969 0.141653 -1.53715e-21)
(-0.748574 0.109791 -1.14603e-20)
(-0.703474 -0.448488 1.24389e-20)
(-1.09841 0.395382 1.14652e-20)
(-1.13093 -0.580807 0)
(0.0419508 -0.0111788 3.44805e-20)
(-0.148008 0.0782076 0)
(-0.638171 0.113562 1.24652e-20)
(-0.616452 -0.357658 -3.2063e-21)
(-0.924893 -0.62701 0)
(-0.976459 0.173774 1.17075e-20)
(-1.00375 -0.659135 0)
(-1.04157 0.222715 6.70004e-21)
(-0.205075 0.160572 0)
(-0.145968 0.122282 0)
(-0.788873 0.181426 1.58752e-21)
(-0.786483 -0.465192 6.51479e-21)
(-0.102772 0.0707142 -6.6798e-21)
(-1.4785 0.65654 -3.32507e-21)
(0.0946123 -0.0373722 0)
(-1.51 -0.717574 -2.99375e-21)
(-1.401 0.67606 -1.43554e-21)
(0.0757872 -0.0286362 -1.48266e-21)
(-1.48685 -0.678216 0)
(-1.29654 0.573458 -5.94922e-21)
(-1.36795 -0.619388 0)
(0.0813213 -0.042268 1.75428e-20)
(-0.638599 0.395513 0)
(-0.853831 -0.134741 2.73431e-21)
(-0.363643 -0.313047 6.43689e-21)
(-0.742403 0.15406 1.03945e-20)
(-0.134573 0.0948585 3.23981e-21)
(-0.731752 -0.432952 0)
(0.0951781 -0.0395535 0)
(-1.48381 -0.763933 0)
(-1.50368 0.600552 2.62118e-21)
(-0.574777 0.35443 0)
(-0.798008 -0.109581 -6.0549e-21)
(-0.378848 -0.306494 1.68451e-21)
(-0.153452 0.094727 0)
(-0.663152 0.112816 0)
(-0.634544 -0.379365 0)
(-0.701607 0.18864 5.15822e-21)
(-0.735619 -0.390821 0)
(-0.0661023 0.023357 0)
(-0.925565 -0.395575 -1.82296e-23)
(-0.00770727 -0.0611738 -8.02796e-21)
(-0.892166 0.412194 1.54256e-20)
(-0.994888 -0.386694 0)
(-0.0186257 -0.0884882 -1.70662e-20)
(-1.43748 0.589742 -6.98134e-21)
(0.0959352 -0.0348643 1.08767e-20)
(-1.46167 -0.718493 -8.31197e-21)
(0.0229779 0.00811884 9.87881e-21)
(-1.39779 0.420026 4.56051e-21)
(-1.33091 -0.80365 9.82844e-21)
(-1.48779 0.474261 -1.12341e-20)
(-1.40459 -0.817111 0)
(0.0553616 -0.0174253 -9.69719e-21)
(-0.717148 -0.551984 -6.90688e-22)
(-0.917616 0.0285581 4.59776e-21)
(-0.465078 0.342369 0)
(-0.706423 0.247634 -2.31051e-20)
(-1.22561 0.775908 5.27763e-21)
(-0.093712 -0.139314 -6.61105e-21)
(-1.46901 -0.412001 0)
(-1.42617 -0.822244 0)
(-1.51343 0.510769 -9.02458e-21)
(0.0682188 -0.0289244 0)
(-0.399725 0.0730583 -1.90437e-20)
(-0.168221 -0.0308862 -6.43101e-21)
(-0.430574 -0.164906 1.90261e-20)
(-0.746355 0.371412 0)
(-0.863417 -0.296119 -3.79404e-22)
(-0.0948606 -0.126537 -6.57898e-21)
(0.00111965 0.0184622 7.57921e-21)
(-1.40528 0.400894 0)
(-1.32055 -0.825099 -1.13323e-20)
(-0.771494 0.284101 1.8434e-20)
(-0.901132 -0.404617 1.58857e-20)
(-0.00696432 -0.0464206 0)
(0.0875518 -0.0403651 0)
(-1.46922 -0.728114 1.40371e-21)
(-1.47041 0.647743 0)
(-0.40476 0.298838 0)
(-0.932277 0.0573353 0)
(-0.774577 -0.591332 0)
(-1.44034 0.462458 9.8477e-21)
(-1.37766 -0.793269 0)
(0.0530798 -0.0119676 -5.2788e-23)
(-0.908723 0.202259 4.50055e-21)
(-0.895187 -0.560268 -4.8387e-21)
(-0.11625 0.0958901 0)
(-0.948494 0.477903 0)
(-1.06317 -0.3898 6.07867e-21)
(-0.0353148 -0.109577 1.07298e-20)
(-1.21663 -0.824795 -1.53671e-20)
(-1.30979 0.293724 -8.50446e-21)
(-0.103385 0.0905689 5.93983e-21)
(-1.1169 0.23764 0)
(-1.06708 -0.709359 -6.42883e-21)
(-0.145004 0.121015 -2.182e-22)
(0.0837384 -0.0456883 -9.48197e-21)
(-1.44052 -0.740422 0)
(-1.47936 0.62698 -8.52632e-22)
(-0.475126 0.309538 7.99439e-21)
(-0.509627 -0.386795 -8.09888e-21)
(-0.782216 -0.0445493 8.70903e-22)
(-1.27376 0.699338 1.00249e-21)
(0.0562733 -0.0129312 -1.39249e-20)
(-1.46058 -0.59593 0)
(-0.186935 0.0364162 -3.76661e-21)
(-0.454204 0.0347347 -1.48645e-20)
(-0.410134 -0.205485 1.8775e-20)
(-0.932284 0.261938 5.19777e-21)
(-0.879375 0.214178 1.71164e-23)
(-0.944684 -0.541635 -1.19018e-20)
(-0.876615 -0.530521 0)
(-0.091753 0.0760811 6.07254e-21)
(-0.0411467 0.0443725 -6.26723e-21)
(-0.0358001 -0.099429 -1.40214e-20)
(-1.2841 0.771894 5.4356e-21)
(-1.51839 -0.450962 -7.16263e-21)
(-0.8885 0.46154 0)
(-1.01197 -0.342634 0)
(-0.0791692 -0.133293 -1.40822e-20)
(-1.19166 0.278725 -2.30462e-21)
(-1.13143 -0.749803 0)
(-0.106544 0.0957202 0)
(-1.22955 0.580983 -5.26815e-21)
(-1.32811 -0.549008 0)
(0.0569853 -0.0591285 6.36749e-21)
(-0.301246 0.00559219 3.9454e-21)
(-0.336626 -0.0676143 5.79237e-21)
(-0.256636 -0.0540786 -1.97194e-21)
(-1.01607 0.241584 -8.53364e-21)
(-0.997142 -0.627647 0)
(-0.100471 0.0927918 -1.02715e-20)
(-0.906385 0.489719 0)
(-1.04211 -0.33339 7.56701e-21)
(-0.0977778 -0.14875 -8.98028e-21)
(-0.813706 0.323942 0)
(-0.88323 0.358396 1.81073e-21)
(-0.495713 0.328973 2.86575e-21)
(-0.531869 -0.409627 2.34162e-20)
(-0.810614 -0.0371771 -2.07737e-20)
(-1.0753 0.283193 -8.61846e-21)
(-1.05504 -0.650345 9.8709e-21)
(-0.0566499 0.0643964 9.36875e-21)
(-1.2734 0.592248 0)
(0.0705723 -0.0512819 -2.25651e-20)
(-1.37262 -0.583491 -5.13922e-21)
(-0.362391 0.224035 -2.06921e-20)
(-0.531257 -0.384491 0)
(-0.71183 0.00469739 6.82131e-21)
(-0.24111 0.187973 -1.19929e-20)
(-0.998604 0.16038 -6.72599e-21)
(-0.931866 -0.656242 0)
(-1.08308 0.598319 -5.36751e-21)
(-1.23657 -0.39658 -6.29969e-21)
(-0.0605627 -0.128244 4.02349e-21)
(-0.440736 0.306765 1.03313e-21)
(-0.63065 -0.474283 0)
(-0.838532 0.0140385 1.44942e-20)
(-1.13955 0.634797 0)
(-1.1787 0.640964 0)
(-1.3035 -0.424923 -3.85941e-21)
(-0.0448858 -0.118808 -1.04663e-20)
(-1.33485 -0.465615 5.45727e-21)
(-0.0116315 -0.0972826 1.11068e-20)
(0.0978198 -0.0377948 -8.3749e-21)
(-1.48951 -0.738296 0)
(-1.48263 0.61995 -4.41685e-21)
(-1.04143 0.535347 6.27888e-21)
(-1.16646 -0.423149 0)
(-0.0218595 -0.104104 3.64294e-21)
(-1.28326 -0.636399 -2.23047e-21)
(0.0465108 -0.0287396 1.21375e-20)
(-1.22373 0.629199 -7.90705e-22)
(-0.562259 0.0658384 -6.90088e-21)
(-0.180073 0.0804179 0)
(-0.517399 -0.296608 0)
(-0.959531 0.335997 1.21967e-20)
(-1.00694 -0.510904 0)
(0.0153392 -0.00520114 2.05288e-20)
(0.0933109 -0.0357574 -6.94444e-21)
(-1.39054 0.581 1.4572e-20)
(-1.42958 -0.685269 6.78419e-21)
(-0.799983 -0.581526 0)
(-0.911198 0.085318 6.05321e-21)
(-0.332476 0.250602 -1.47374e-20)
(-1.25403 -0.830158 -1.80256e-20)
(-1.34855 0.331841 -5.03064e-21)
(-0.0615735 0.0591558 0)
(-0.799132 -0.357912 -1.64153e-20)
(-0.0311705 -0.0375791 0)
(-1.01605 0.410601 1.28477e-20)
(-1.07008 -0.493863 5.49703e-21)
(0.0354578 -0.0433226 6.25999e-21)
(-0.786701 -0.379237 9.55213e-21)
(-0.0311238 -0.0189424 -3.22906e-23)
(-1.36249 0.744793 -3.32403e-22)
(0.0395335 -0.053478 8.25602e-21)
(-1.55217 -0.550105 -3.81889e-21)
(-0.698732 -0.565025 0)
(-0.949193 0.00760546 1.42927e-21)
(-0.523124 0.385352 0)
(-1.07613 0.44248 -1.31006e-20)
(-1.14559 -0.525552 -6.69814e-21)
(0.0487371 -0.0384143 -7.54676e-21)
(-0.787908 0.217359 0)
(-0.807296 -0.453891 -9.46074e-21)
(-0.0664222 0.0426694 0)
(-0.791911 0.0855957 0)
(-0.700586 -0.486145 0)
(-0.275072 0.18902 0)
(-0.553261 0.209111 -5.27517e-21)
(-0.63366 -0.239161 -9.20305e-21)
(-0.102382 -0.078891 1.40001e-23)
(-0.289286 0.223401 1.48708e-20)
(-0.968628 0.12746 1.6199e-20)
(-0.882266 -0.632607 9.48607e-21)
(-1.46225 0.550498 -5.5545e-21)
(-1.43817 -0.752168 6.96172e-21)
(0.0900579 -0.031382 -1.02495e-20)
(-1.26422 -0.806605 1.23021e-20)
(-1.33529 0.352035 5.10022e-21)
(-0.0334974 0.0445754 7.65636e-21)
(-0.863423 0.578072 -1.1169e-20)
(-0.340436 -0.314554 1.18565e-20)
(-1.09187 -0.193083 -8.90414e-21)
(-1.2144 0.7115 2.9773e-21)
(-1.16751 0.681444 -2.82738e-21)
(-1.35234 -0.408829 -1.2232e-21)
(-1.40751 -0.429143 0)
(-0.05372 -0.118741 -3.80419e-21)
(-0.0707781 -0.133234 -3.39672e-21)
(0.0525077 -0.0233278 -1.64439e-20)
(-1.33898 -0.624304 2.4583e-21)
(-1.24641 0.640294 8.76751e-22)
(-1.29778 0.713763 -9.88682e-23)
(0.0595181 -0.0115897 1.92641e-20)
(-1.5003 -0.594553 0)
(-1.00422 0.294684 -1.94809e-20)
(-1.01973 -0.578773 -2.57968e-21)
(-0.0278709 0.0411613 0)
(0.0975087 -0.0362906 -2.09456e-20)
(-1.45527 0.612014 4.3971e-21)
(-1.48462 -0.714704 0)
(-0.991575 0.610266 1.58764e-20)
(-1.04873 0.631646 -1.1801e-20)
(-1.1777 -0.305473 6.856e-21)
(-1.2277 -0.338409 2.57906e-21)
(-0.182083 -0.206105 -6.73408e-21)
(-0.137262 -0.175407 -3.36979e-21)
(0.0659554 -0.0430237 0)
(-1.41791 -0.843798 0)
(-1.5676 0.500186 1.39726e-21)
(-1.1925 0.688484 -1.17628e-21)
(0.0489407 -0.00777627 0)
(-1.42116 -0.568217 0)
(-0.422004 -0.0450405 -1.40047e-23)
(-0.270266 0.0641555 8.38976e-21)
(-0.288355 -0.143034 4.16961e-21)
(-1.30183 0.665958 -1.04879e-21)
(-1.42138 -0.646808 -4.01603e-23)
(0.0608002 -0.023323 9.0303e-22)
(-0.720719 0.429349 0)
(-0.900064 -0.189168 -1.23926e-20)
(-0.279702 -0.260509 -8.22027e-23)
(-1.50829 0.583655 2.04757e-22)
(-1.46963 -0.779972 8.46577e-21)
(0.0924349 -0.0387148 1.74182e-23)
(-1.13733 -0.646132 -5.41964e-23)
(0.0398166 -0.0433566 -6.99133e-21)
(-1.19016 0.534431 1.0968e-21)
(-0.385363 0.21919 -7.59858e-21)
(-0.40341 -0.290091 7.22988e-21)
(-0.643852 -0.0479053 2.19265e-20)
(-0.495743 0.0737183 0)
(-0.485044 -0.243151 -2.08381e-20)
(-0.152373 0.0294475 1.03465e-20)
(-1.41843 0.717053 0)
(0.0791924 -0.0273597 9.66272e-21)
(-1.55032 -0.661001 -1.94676e-22)
(-0.535188 0.0902785 0)
(-0.524097 -0.272142 -7.21142e-21)
(-0.141327 0.0466445 -1.46684e-20)
(-0.388807 -0.0407077 8.73988e-21)
(-0.263393 0.0382358 -4.43503e-21)
(-0.285245 -0.11875 2.21407e-21)
(-0.385072 0.292214 7.13915e-21)
(-0.989463 0.0858901 -5.61903e-21)
(-0.855384 -0.654471 1.04392e-20)
(-0.521047 0.00180733 0)
(-0.408246 -0.239356 0)
(-0.24115 0.112621 1.22075e-21)
(-0.559009 0.0444222 1.09223e-20)
(-0.480158 -0.278991 5.49886e-21)
(-0.216011 0.108051 1.72218e-22)
(-0.802688 0.542687 1.69965e-20)
(-1.03647 -0.160513 -9.14862e-21)
(-0.394172 -0.355853 -1.17205e-20)
(0.0826403 -0.0356784 1.46539e-20)
(0.089265 -0.0354232 -1.48651e-20)
(-1.55201 -0.652505 2.14004e-21)
(-1.53855 -0.672439 1.60202e-21)
(-1.42693 0.709499 0)
(-1.44275 0.695299 -3.32211e-21)
(-1.49154 0.551905 6.98831e-21)
(-1.45271 -0.771548 -5.58912e-21)
(0.0893055 -0.0334365 1.2717e-20)
(-0.327515 -0.314873 -7.57424e-21)
(-0.921877 0.629198 3.45767e-21)
(-1.15138 -0.208248 1.13453e-20)
(-0.505497 0.315144 -7.29946e-21)
(-0.439272 -0.342166 -7.40911e-21)
(-0.768054 -0.0731669 6.75226e-21)
(-1.13132 0.206884 0)
(-1.05733 -0.738639 6.65418e-21)
(-0.199783 0.15703 2.25524e-22)
(-1.24608 -0.727418 7.42468e-22)
(0.0617252 -0.0613827 -6.4825e-21)
(-1.39505 0.541608 3.70253e-23)
(0.0327061 -0.0121252 0)
(-1.5164 0.448201 0)
(-1.3863 -0.86294 3.95638e-21)
(-1.43436 0.668343 2.07813e-21)
(0.0833234 -0.0339956 0)
(-1.49872 -0.70184 -1.37819e-21)
(0.0317426 -0.0364182 -2.60841e-32)
(-1.07334 -0.612776 1.85938e-21)
(-1.1047 0.519135 -1.44922e-21)
(-1.12651 -0.544815 -2.11733e-21)
(0.029259 -0.0221292 2.60211e-32)
(-1.05097 0.585564 1.26206e-21)
(-1.1713 -0.661123 -1.31748e-20)
(-1.17143 0.373334 0)
(0.0146913 0.0188848 -1.98828e-20)
(-1.37963 -0.813648 -7.83739e-22)
(0.0721267 -0.060235 -6.61431e-21)
(-1.56037 0.527093 0)
(-1.30512 0.533271 -7.77227e-21)
(-1.34509 -0.655728 6.7549e-21)
(0.0825751 -0.0315095 1.02994e-20)
(-1.36091 0.788327 8.98845e-21)
(0.0393009 -0.0306388 5.87699e-21)
(-1.61989 -0.543922 0)
(-0.666583 0.25479 4.09241e-21)
(-0.0496615 -0.0515542 -4.06658e-21)
(-0.759504 -0.322525 3.99407e-21)
(-1.41444 -0.854268 1.92864e-21)
(0.0575787 -0.034243 7.01613e-21)
(-1.55624 0.484785 1.9117e-21)
(-1.08232 0.180764 -6.48265e-21)
(-0.236176 0.185041 -4.04898e-21)
(-1.00878 -0.712057 0)
(-1.15356 -0.741409 0)
(-1.20275 0.305185 0)
(-0.067312 0.072485 0)
(0.00837271 -0.016593 0)
(-0.657757 -0.34239 3.08777e-21)
(-0.642515 0.32803 -2.48587e-21)
(-1.27038 -0.665716 -3.95426e-22)
(0.0502161 -0.0373051 -8.44271e-21)
(-1.26025 0.60936 -1.69862e-22)
(-0.599493 0.214387 -1.04894e-20)
(-0.0720728 -0.0506711 9.75574e-21)
(-0.678898 -0.287506 4.69125e-21)
(-1.44386 -0.80703 6.28113e-21)
(-1.54832 0.550347 -2.55949e-21)
(0.0823047 -0.0448308 0)
(0.0637447 -0.0492351 -7.32517e-21)
(-1.58362 0.499197 0)
(-1.39807 -0.85136 -4.7327e-21)
(-1.43443 0.646494 -4.06704e-21)
(0.094522 -0.037861 2.24515e-20)
(-1.50228 -0.679578 0)
(0.00724308 -0.0754151 -1.69163e-20)
(-1.50827 -0.504082 4.98159e-21)
(-1.31022 0.741479 0)
(-0.772495 0.546914 -2.14272e-20)
(-1.03351 -0.134467 1.16509e-20)
(-0.461901 -0.407255 -3.72079e-21)
(-1.31048 -0.370017 1.81344e-21)
(-1.11639 0.681827 6.78475e-21)
(-0.123014 -0.167005 -1.04787e-20)
(0.00276644 -0.0680947 -1.51296e-20)
(-1.33289 0.788173 0)
(-1.58007 -0.499736 0)
(-0.764752 0.423999 -3.59019e-21)
(-0.839991 0.468032 0)
(-0.911136 -0.247205 -1.29488e-20)
(-0.990852 -0.28319 1.38576e-20)
(-0.181804 -0.189936 1.86043e-21)
(-0.154246 -0.181727 -1.98229e-21)
(-0.708506 0.407429 3.44417e-21)
(-0.874842 -0.206918 0)
(-0.238832 -0.227064 3.53675e-21)
(-0.974457 0.624708 0)
(-1.17451 -0.281869 -1.10735e-20)
(-0.222725 -0.234612 2.43106e-21)
(-1.22666 -0.774714 -6.31866e-21)
(-1.28682 0.340074 5.54959e-21)
(-0.0352217 0.0471285 -1.56353e-20)
(-1.43657 -0.810654 0)
(-1.5063 0.53573 9.95072e-21)
(0.0795307 -0.0334342 0)
(0.0172897 0.0140064 -5.08542e-21)
(-1.33269 0.402305 -3.24495e-21)
(-1.28979 -0.768607 -4.05401e-21)
(-1.1973 -0.551806 3.30312e-22)
(0.034687 -0.0185632 4.52083e-21)
(-1.09931 0.612521 0)
(-0.48043 0.253703 7.02523e-21)
(-0.488148 0.242764 0)
(-0.275409 -0.215162 0)
(-0.66149 -0.123617 2.6503e-20)
(-0.232814 -0.185561 0)
(-0.648548 -0.149543 -1.69119e-20)
(-0.864887 0.55041 0)
(-0.782937 0.497348 0)
(-0.308324 -0.28636 2.58152e-23)
(-1.06111 -0.230945 7.32163e-21)
(-0.270696 -0.259419 1.78801e-20)
(-0.986784 -0.19559 -1.57006e-20)
(-1.10769 -0.669189 0)
(0.044609 -0.0533601 9.50423e-21)
(-1.24688 0.520572 0)
(-1.44766 -0.797389 -4.27719e-21)
(-1.5357 0.555306 9.44809e-22)
(0.0855692 -0.0411411 4.45787e-21)
(-0.561509 0.369096 -1.23452e-20)
(-0.508544 -0.40867 -8.34447e-21)
(-0.848633 -0.0642005 2.14414e-20)
(-1.16337 -0.789905 1.38208e-20)
(-1.24232 0.268802 1.43705e-20)
(-0.125327 0.108602 0)
(-0.0115614 -0.0891944 1.80896e-20)
(-1.4841 -0.482828 -5.29621e-21)
(-1.28537 0.738785 6.88709e-21)
(-1.38218 -0.706796 0)
(-1.3993 0.624581 0)
(0.0692921 -0.0422484 0)
(-1.3992 -0.733264 0)
(-1.43924 0.610525 1.46303e-21)
(0.0762827 -0.048625 1.61073e-21)
(-1.04125 0.604707 -6.65229e-21)
(-1.20658 -0.363153 3.90579e-21)
(-0.104707 -0.155073 4.98354e-21)
(-0.318294 0.196071 -1.97667e-21)
(-0.540874 -0.370941 0)
(-0.683421 0.0265137 -1.30033e-22)
(-1.44961 0.66354 4.73881e-21)
(0.0940872 -0.036753 1.29923e-20)
(-1.52477 -0.684343 -1.86396e-21)
(-1.20251 -0.70042 0)
(-1.21746 0.378252 0)
(0.0105966 0.0255384 1.71472e-20)
(0.0723685 -0.0508179 4.30768e-21)
(-1.42724 -0.59805 8.6242e-21)
(-1.32211 0.637511 1.52708e-20)
(-0.739886 0.479028 0)
(-0.358851 -0.32042 -1.20727e-20)
(-0.955679 -0.167776 8.12771e-21)
(-0.869561 0.167351 1.43592e-22)
(-0.833802 -0.535909 7.09525e-21)
(-0.16987 0.12833 0)
(-0.444195 0.267895 7.93879e-23)
(-0.442526 -0.336012 -2.46229e-21)
(-0.718144 -0.0547128 -8.8449e-21)
(0.0967563 -0.0372731 -1.29093e-23)
(-1.51152 -0.719368 4.02466e-21)
(-1.47388 0.644577 4.47053e-21)
(-1.22759 0.617766 -2.95322e-21)
(-1.35446 -0.525349 -2.82955e-21)
(0.0373479 -0.0705941 0)
(-0.392456 0.211933 -7.61864e-21)
(-0.35041 -0.251074 1.57832e-20)
(-0.621161 -0.06983 -1.44769e-20)
(-1.34463 0.800651 3.89284e-21)
(0.0129914 -0.0545543 6.68416e-21)
(-1.60968 -0.511409 -2.48716e-21)
(-0.649613 0.339782 -4.40542e-21)
(-0.789072 -0.21934 0)
(-0.179201 -0.179837 0)
(-0.651113 0.152756 -1.92971e-20)
(-0.659266 -0.357953 4.42344e-21)
(-0.100858 0.0477976 0)
(-1.13236 -0.697077 0)
(-1.15595 0.307305 1.2329e-20)
(-0.0461076 0.06216 0)
(-1.3351 0.748059 -1.46948e-21)
(0.0582796 -0.013804 -2.06181e-21)
(-1.57469 -0.586622 4.65843e-22)
(-1.33214 0.766937 4.1654e-21)
(0.0510843 -0.014942 0)
(-1.59641 -0.564142 -1.42234e-21)
(0.0607024 -0.0559051 3.86145e-21)
(-1.44816 -0.576495 -4.7385e-21)
(-1.322 0.661172 -1.40915e-20)
(-0.903104 0.148459 -5.80898e-21)
(-0.8613 -0.579456 -7.12204e-21)
(-0.21513 0.156534 0)
(0.054344 -0.00741703 1.88871e-21)
(-1.53566 -0.577958 -4.43956e-22)
(-1.27442 0.729581 0)
(0.0880104 -0.0310616 0)
(-1.38821 -0.687042 -4.9832e-21)
(-1.36252 0.547891 -1.74276e-21)
(0.0241311 -0.0366444 7.66937e-21)
(-0.916497 -0.574313 -1.57034e-21)
(-0.997492 0.442757 0)
(-0.894052 0.548967 9.87646e-22)
(-1.01752 -0.464287 0)
(0.0203439 -0.0150289 7.68339e-21)
(0.0149983 -0.065049 -8.91039e-24)
(-1.55391 -0.519763 0)
(-1.33498 0.767862 0)
(0.0929794 -0.0402329 0)
(-1.49346 -0.738809 0)
(-1.49205 0.639381 4.9162e-21)
(-1.41027 0.707487 -4.36834e-21)
(-1.39098 0.690229 3.53361e-21)
(0.0755887 -0.0402535 -7.35957e-21)
(-1.54827 -0.61857 -7.75547e-22)
(0.0760763 -0.0436882 -1.20201e-20)
(-1.51849 -0.616214 1.69817e-21)
(-1.3654 0.519777 3.49747e-21)
(-1.37401 -0.710763 3.42355e-21)
(0.082139 -0.0254016 0)
(-0.185366 0.151173 0)
(-1.11014 -0.784469 0)
(-1.19985 0.228545 0)
(-0.458648 0.196999 0)
(-0.188988 -0.139057 -2.17869e-20)
(-0.587694 -0.159837 9.2885e-21)
(-1.32287 0.446339 1.03944e-20)
(-1.30566 -0.731356 1.36324e-21)
(0.0518373 -0.00433693 1.49882e-20)
(0.030567 0.00914329 9.71693e-21)
(-1.3006 0.418083 -1.44688e-20)
(-1.27213 -0.737205 -1.88892e-21)
(-1.30642 0.800568 5.08486e-21)
(-0.0282637 -0.0885831 7.23793e-21)
(-1.56503 -0.460938 7.47293e-21)
(-0.89272 0.577022 0)
(-1.09946 -0.234012 3.29318e-21)
(-0.277319 -0.268655 -1.75279e-20)
(-0.780491 0.47106 0)
(-0.956376 -0.210891 1.62712e-20)
(-0.265027 -0.256637 -4.15221e-23)
(-1.17109 0.421456 -1.45682e-20)
(-1.19961 -0.631203 1.79844e-21)
(0.0505846 -0.00902154 -8.71626e-21)
(-1.20404 0.416081 0)
(-1.21469 -0.65844 1.69688e-21)
(0.0431064 -0.00132419 7.94435e-21)
(-0.345201 0.176006 0)
(-0.349765 -0.235865 -2.4951e-20)
(-0.573641 -0.0539701 8.16063e-21)
(-0.865231 0.495891 0)
(-1.01935 -0.281125 0)
(-0.16625 -0.195112 2.6705e-21)
(0.0415606 -0.0268058 -1.51693e-20)
(-1.39236 -0.871246 -1.07929e-20)
(-1.56042 0.46196 0)
(-1.46845 0.585122 9.53689e-22)
(0.0740679 -0.0560957 0)
(-1.34983 -0.752948 7.0318e-22)
(-1.45444 0.550682 -4.82095e-22)
(0.0683969 -0.0616732 0)
(-1.30508 -0.749991 -1.70092e-21)
(-0.577921 0.339002 5.16837e-21)
(-0.32362 -0.266895 -2.62748e-21)
(-0.775533 -0.138631 -2.37908e-22)
(-1.30757 -0.688896 3.92687e-22)
(0.060629 -0.0451576 1.29202e-20)
(-1.35575 0.600083 0)
(-1.27906 0.658079 1.24258e-20)
(0.0408085 -0.0667466 8.21687e-21)
(-1.41486 -0.539901 0)
(0.0568113 -0.0545253 -1.9142e-21)
(-1.23875 -0.709493 -3.45045e-24)
(-1.3459 0.555442 0)
(-0.46962 0.106733 1.32375e-20)
(-0.135928 -0.0120258 1.32013e-20)
(-0.496988 -0.214412 3.07647e-23)
(-0.925105 0.400879 -2.2585e-21)
(-1.01337 -0.429188 -2.07466e-21)
(0.00667935 -0.0653163 -9.2067e-21)
(-0.787246 -0.547285 1.62277e-20)
(-0.863937 0.112205 1.40718e-20)
(-0.26865 0.19044 0)
(0.07435 -0.054564 0)
(-1.40259 -0.819434 -1.24474e-21)
(-1.56498 0.532656 0)
(-1.18161 -0.716601 0)
(-1.21395 0.353416 0)
(-0.0133313 0.0398536 0)
(0.0349748 -0.0416947 0)
(-1.3666 0.784164 -3.14543e-21)
(-1.6111 -0.540735 2.44614e-21)
(-1.00056 0.435093 0)
(-1.07687 -0.469623 1.06391e-21)
(0.0255565 -0.0576526 8.99585e-21)
(-0.425106 0.169807 0)
(-0.190568 -0.126583 1.87192e-20)
(-0.547293 -0.148552 0)
(-1.4385 -0.80342 -5.92967e-21)
(-1.54036 0.567821 2.43646e-21)
(0.083575 -0.0501028 0)
(0.0902805 -0.0397565 -8.95657e-21)
(-1.4244 -0.658986 3.1459e-22)
(-1.36199 0.601965 4.32326e-22)
(-1.38395 0.717505 0)
(-1.36288 0.71097 2.00617e-21)
(0.0714604 -0.0209472 -4.7599e-21)
(0.0695857 -0.020328 -5.84713e-21)
(-1.54338 -0.630786 -6.00732e-22)
(-1.5196 -0.637831 4.94287e-22)
(-0.88519 0.270632 0)
(-0.910672 -0.506519 2.78443e-20)
(-0.0325644 0.0284609 9.7973e-21)
(-1.10764 -0.624226 1.84992e-20)
(-1.10526 0.338228 0)
(0.000543589 0.0268312 -1.05685e-20)
(-0.600586 0.16927 -1.08775e-20)
(-0.642937 -0.310816 7.59193e-21)
(-0.075083 0.000262803 1.59338e-20)
(-1.38837 -0.781101 2.46687e-21)
(-1.51435 0.574483 1.6076e-21)
(-1.36716 -0.795417 -1.02967e-21)
(0.0782801 -0.056437 0)
(-1.53005 0.547548 -1.54826e-21)
(0.0735149 -0.0607344 0)
(-1.15185 0.503186 0)
(-1.2246 -0.5539 0)
(0.0584453 -0.0460339 9.86183e-21)
(-1.52766 0.586642 3.36089e-21)
(-1.51685 0.588573 -5.95434e-21)
(-1.45237 -0.782046 1.61124e-21)
(-1.43123 -0.772178 -4.83051e-21)
(0.0869573 -0.0486603 1.30594e-20)
(0.0838424 -0.0507448 -4.13596e-24)
(-1.05254 0.312749 0)
(-1.05967 -0.621407 -1.75481e-20)
(-0.0327711 0.0495399 1.37058e-20)
(-0.820483 0.298809 1.00656e-20)
(-0.937813 -0.44217 -1.25866e-20)
(0.00732997 -0.0304128 0)
(-1.36763 0.773646 0)
(0.051857 -0.0244024 0)
(-1.60706 -0.571982 1.36776e-21)
(-0.901635 0.300765 7.413e-21)
(-0.937706 -0.491646 -7.74632e-21)
(-0.00831196 0.00902229 -1.6223e-20)
(-0.676913 0.210488 4.3446e-21)
(-0.728833 -0.359922 -8.91509e-21)
(-0.0491698 -0.00505968 9.14598e-21)
(-1.36247 0.735957 0)
(0.0660609 -0.0186432 0)
(-1.57295 -0.612538 -1.98497e-21)
(-1.02514 0.467794 0)
(-1.12382 -0.457348 2.12205e-21)
(0.0222022 -0.0715863 -9.85861e-21)
(-0.98729 -0.720854 0)
(-1.07503 0.158095 0)
(-0.285753 0.221799 -5.19865e-22)
(-0.744218 0.496215 -5.52848e-22)
(-0.974 -0.149436 0)
(-0.39573 -0.350678 1.85028e-20)
(-1.30265 -0.864262 6.90295e-21)
(-0.0438479 0.0412177 0)
(-1.41938 0.357444 0)
(0.0162716 -0.0225322 -1.8456e-20)
(-0.869428 -0.459414 -4.31914e-21)
(-0.849069 0.438965 3.47861e-21)
(-0.953112 0.360845 0)
(-0.999553 -0.478414 7.70128e-21)
(0.0219031 -0.0270871 -8.26136e-21)
(-1.40005 0.747098 6.32965e-21)
(0.0656132 -0.0320525 2.48456e-20)
(-1.58718 -0.598673 0)
(-0.580669 -0.484991 -4.93074e-21)
(-0.975252 -0.0643726 -7.75864e-21)
(-0.646371 0.464581 -4.84581e-21)
(-1.05908 0.631803 0)
(0.03643 -0.00966555 -6.86847e-21)
(-1.26644 -0.539038 0)
(-0.216352 0.129003 9.78945e-21)
(-0.247111 0.154945 -9.99841e-21)
(-0.572501 -0.363875 0)
(-0.649479 0.0684409 9.26701e-21)
(-0.610544 -0.402142 -1.60214e-20)
(-0.694811 0.0632073 -7.39876e-21)
(-0.58692 0.137438 1.02442e-20)
(-0.600358 -0.306213 1.01316e-20)
(-0.103483 0.0292201 0)
(-0.327554 0.190344 8.72771e-21)
(-0.26433 0.153226 0)
(-0.463845 -0.318759 -8.96108e-21)
(-0.636684 -0.00939605 8.2986e-21)
(-0.488661 -0.317121 9.03114e-21)
(-0.613415 0.0218726 4.71213e-23)
(-0.893203 0.338597 6.31616e-22)
(-0.871418 -0.42726 -5.55111e-21)
(-0.0115066 -0.0138825 -1.11813e-20)
(-0.823281 0.280358 -1.73044e-20)
(-0.874558 -0.444151 1.452e-22)
(-0.0192426 0.00195596 0)
(0.0681066 -0.0657619 0)
(-1.30478 -0.779738 0)
(-1.50101 0.534014 5.16171e-22)
(-0.638819 0.36334 -4.7659e-21)
(-0.808388 -0.175446 0)
(-0.260053 -0.231865 4.85772e-21)
(-1.51028 0.609737 -8.14915e-21)
(-1.4796 -0.765855 2.57235e-21)
(0.0930212 -0.0425797 -7.4519e-21)
(-1.2096 0.466194 0)
(-1.26803 0.492775 7.46981e-21)
(-1.24997 -0.625653 -2.24354e-21)
(-1.30123 -0.651982 6.62905e-21)
(0.0669713 -0.021545 -1.0798e-20)
(0.0750051 -0.0239154 -9.93832e-21)
(-0.609021 0.330412 0)
(-0.768357 -0.185478 0)
(-0.227534 -0.208056 2.32872e-21)
(-0.944035 0.5679 5.38634e-21)
(-1.11434 -0.292884 0)
(-0.181848 -0.203922 5.79853e-21)
(-1.09608 0.433793 -4.12478e-21)
(-1.15131 -0.562266 0)
(0.052195 -0.0261028 0)
(-0.323825 0.0950832 1.01414e-20)
(-0.45298 -0.0889476 -5.01691e-21)
(-0.238894 -0.127675 5.09395e-21)
(-1.28126 0.455205 0)
(-1.28596 -0.694578 0)
(0.0586802 -0.00938624 -1.59432e-20)
(-0.427093 0.197275 0)
(-0.241394 -0.174902 2.74194e-21)
(-0.586215 -0.124505 0)
(-1.05574 0.338727 -9.61542e-21)
(-1.06711 -0.598306 -9.85672e-21)
(0.00288272 0.0196803 -1.37847e-21)
(-0.934519 0.538974 5.48851e-21)
(-1.09263 -0.311851 0)
(-0.143824 -0.18206 1.19728e-20)
(-0.348307 0.128224 -1.00514e-20)
(-0.326332 0.128573 -4.4384e-21)
(-0.495635 -0.100928 4.94424e-21)
(-0.241765 -0.147911 -1.00982e-20)
(-0.506749 -0.0761834 0)
(-0.284137 -0.179091 -1.79518e-20)
(-0.290777 0.145052 -4.41421e-21)
(-0.391143 -0.254466 1.1671e-20)
(-0.260975 0.138814 2.8357e-21)
(-0.55732 -0.0201787 -1.12727e-20)
(-0.467824 -0.298923 -5.68337e-21)
(-0.587494 0.0151754 2.64683e-22)
(-0.737208 0.393049 5.22376e-21)
(-0.800968 0.413451 0)
(-0.875317 -0.256825 9.75775e-21)
(-0.923224 -0.298559 -7.62519e-21)
(-0.151892 -0.168244 -1.08164e-20)
(-0.104136 -0.139754 1.79795e-20)
(0.0274709 -0.0679003 0)
(-1.48192 -0.529127 -2.82291e-21)
(-1.31284 0.71096 -6.91957e-21)
(-0.319829 0.245183 6.34194e-21)
(-1.01038 0.124519 8.86616e-21)
(-0.913358 -0.67307 -1.6507e-20)
(0.045486 -0.0561353 -8.43096e-21)
(0.0617291 -0.0513499 6.73142e-21)
(-1.51271 -0.562683 2.44458e-21)
(-1.4958 -0.584862 4.33671e-21)
(-1.34692 0.720119 1.7391e-20)
(-1.35794 0.695608 -8.98888e-21)
(-0.476363 0.33794 9.00021e-21)
(-0.650343 -0.499381 -7.92934e-21)
(-0.873973 0.00354872 2.13828e-21)
(-0.309526 0.0390789 1.72711e-20)
(-0.23684 -0.0746938 0)
(-0.377262 -0.082802 -1.71875e-20)
(-1.3078 0.488543 -3.47364e-21)
(-1.32049 -0.689548 -7.49179e-21)
(0.0724819 -0.0188728 0)
(-0.53379 0.286025 0)
(-0.269359 -0.228793 -2.21844e-21)
(-0.708006 -0.141279 -8.58454e-21)
(-0.976344 0.554444 0)
(-1.13063 -0.338925 0)
(-0.114179 -0.161864 -1.11378e-20)
(-1.24561 0.705834 -7.84895e-21)
(-1.23767 0.678284 0)
(-1.42721 -0.473862 1.71263e-21)
(-0.0180949 -0.0970355 -1.04239e-20)
(-1.40207 -0.484897 -4.65709e-21)
(-0.00136645 -0.0893522 1.41219e-20)
(-1.20395 0.507626 7.67962e-21)
(-1.27033 -0.586305 7.21521e-21)
(0.0704514 -0.0384364 5.87108e-21)