/*--------------------------------*- C++ -*----------------------------------*\
  =========                 |
  \\      /  F ield         | OpenFOAM: The Open Source CFD Toolbox
   \\    /   O peration     | Website:  https://openfoam.org
    \\  /    A nd           | Version:  6
     \\/     M anipulation  |
\*---------------------------------------------------------------------------*/
FoamFile
{
    version     2.0;
    format      ascii;
    class       volVectorField;
    location    "0";
    object      U_rec;
}
// * * * * * * * * * * * * * * * * * * * * * * * * * * * * * * * * * * * * * //

dimensions      [0 1 -1 0 0 0 0];

internalField   nonuniform List<vector> 
13046
(
(-0.473543 0.243278 0)
(-0.454456 0.0424083 -5.76583e-21)
(-0.250942 0.0990886 -1.28169e-20)
(-0.471265 0.190243 0)
(-0.296065 0.145088 -1.15243e-20)
(-0.393089 0.0466408 0)
(-0.493116 0.198215 1.68909e-21)
(-0.40052 0.0242908 2.95495e-21)
(-0.282281 0.154136 -1.27056e-20)
(-0.619788 0.305577 6.35557e-21)
(-0.718246 -0.240121 0)
(-0.0647678 0.0948848 8.72104e-21)
(-0.524147 0.25169 -5.38375e-21)
(-0.471231 -0.00438306 -9.23343e-21)
(-0.220429 0.114208 7.07668e-21)
(-0.59481 0.349006 -8.11118e-21)
(-0.0656414 0.0671468 2.09127e-20)
(-0.740953 -0.1742 4.97431e-21)
(-0.367163 0.190502 0)
(-0.331292 0.0676894 -6.23738e-21)
(-0.452666 0.134499 1.75695e-20)
(-0.600885 0.34092 -3.49814e-21)
(-0.0648576 0.0739346 -2.793e-20)
(-0.734148 -0.187525 0)
(-0.448363 0.204521 7.07911e-21)
(-0.41902 0.0660956 -1.40721e-20)
(-0.289303 0.115693 0)
(-0.523901 0.26934 -9.95049e-21)
(-0.488025 -0.00933508 2.69526e-21)
(-0.205616 0.102145 -1.22326e-20)
(-0.472646 0.256438 0)
(-0.470822 0.0449804 0)
(-0.239437 0.0843871 1.30492e-20)
(-0.427906 0.190395 -8.22141e-21)
(-0.30685 0.115243 4.3095e-21)
(-0.4101 0.0844312 2.45116e-20)
(-0.424115 0.176561 -1.26277e-20)
(-0.322954 0.128119 6.56261e-21)
(-0.394952 0.0895035 -1.26116e-20)
(-0.422709 0.278459 9.20296e-21)
(-0.262905 0.016885 2.42942e-21)
(-0.522003 0.0831437 -8.73083e-21)
(-0.399426 0.141277 5.70883e-21)
(-0.364663 0.142084 9.81607e-21)
(-0.369407 0.1118 0)
(-0.417593 0.141212 3.59821e-21)
(-0.359005 0.155961 -1.50331e-20)
(-0.356657 0.0965364 -1.88004e-21)
(-0.48498 0.2364 0)
(-0.444849 0.028707 -4.14997e-22)
(-0.245812 0.110577 1.95316e-23)
(-0.313257 -0.0626208 1.51659e-20)
(-0.3797 0.308434 0)
(-0.588021 0.107443 -1.07964e-20)
(-0.340285 -0.0855661 -2.16026e-20)
(-0.603754 0.118189 -1.7356e-20)
(-0.359055 0.304872 1.44904e-20)
(-0.659344 -0.0497406 -2.17635e-21)
(-0.547871 0.383462 0)
(-0.129546 0.0194759 1.14415e-20)
(-0.600909 0.228846 -5.15613e-21)
(-0.489242 -0.0968163 5.55706e-21)
(-0.216832 0.182066 -2.98004e-20)
(-0.107593 0.112546 1.58506e-20)
(-0.655801 -0.173812 -3.60343e-21)
(-0.624511 0.302377 -9.22259e-21)
(-0.533371 0.389836 0)
(-0.649311 -0.0275275 0)
(-0.146572 0.00113703 0)
(-0.523239 0.382996 -4.12601e-21)
(-0.633728 -0.0149874 0)
(-0.157268 0.000110296 9.1106e-21)
(-0.682009 -0.0625939 0)
(-0.555285 0.389126 1.02784e-22)
(-0.118392 0.0173632 5.76737e-24)
(-0.378379 0.204883 0)
(-0.317243 0.0586913 6.78318e-21)
(-0.464632 0.122523 -1.25353e-20)
(-0.0973711 0.0368361 1.27244e-20)
(-0.571477 0.378927 -1.32357e-20)
(-0.698759 -0.0985939 0)
(-0.462608 0.206313 3.71885e-21)
(-0.413116 0.0537787 0)
(-0.281718 0.12647 0)
(-0.0960709 0.106493 -1.42795e-20)
(-0.676671 -0.188978 -2.81861e-21)
(-0.626146 0.307103 5.51101e-21)
(-0.656124 0.251496 -9.65987e-21)
(-0.141641 0.165002 0)
(-0.607553 -0.208034 -2.79271e-21)
(-0.172253 0.218309 0)
(-0.690939 0.199697 0)
(-0.57382 -0.257756 3.76645e-22)
(-0.582283 0.293141 0)
(-0.596372 0.291199 4.95857e-21)
(-0.564228 -0.0830482 1.08771e-20)
(-0.576851 -0.104379 -5.10698e-21)
(-0.157422 0.110399 -6.4954e-21)
(-0.150709 0.119979 1.6626e-20)
(-0.156933 0.179522 -7.98506e-22)
(-0.661404 0.238656 9.44871e-21)
(-0.589591 -0.211458 0)
(-0.435157 0.15328 -2.2714e-23)
(-0.344115 0.157901 7.9195e-21)
(-0.360485 0.0806137 0)
(-0.332047 0.262214 0)
(-0.572226 0.144501 -5.30338e-21)
(-0.351505 -0.0528437 0)
(-0.385406 0.288998 1.59125e-20)
(-0.297365 -0.0291991 0)
(-0.558245 0.105404 -2.0181e-20)
(-0.578895 0.292752 0)
(-0.0358647 0.0738201 0)
(-0.704888 -0.28005 -4.11826e-21)
(-0.507059 0.241118 1.48732e-20)
(-0.455099 0.0111662 3.88267e-21)
(-0.233994 0.118436 1.27959e-20)
(-0.584935 0.323353 6.26533e-21)
(-0.576663 0.311661 -1.17604e-20)
(-0.613954 -0.0948566 -9.22682e-21)
(-0.129781 0.0864411 7.46436e-21)
(-0.584053 -0.0787271 5.62546e-21)
(-0.144504 0.0925099 -6.97472e-21)
(-0.610057 0.309672 -5.48367e-21)
(-0.72746 -0.248098 -5.7252e-21)
(-0.0551641 0.0868502 -3.91435e-21)
(-0.554898 0.287902 0)
(-0.528771 -0.0473959 -7.16873e-21)
(-0.176795 0.100958 1.50325e-20)
(-0.440762 0.283191 0)
(-0.246935 0.0284119 -1.20277e-20)
(-0.517212 0.0680725 5.34407e-22)
(-0.187863 0.228478 0)
(-0.685858 0.195244 0)
(-0.557142 -0.23885 0)
(-0.622087 0.280423 0)
(-0.597685 -0.145649 -1.42825e-20)
(-0.14532 0.136896 -1.79047e-20)
(-0.488802 0.266481 0)
(-0.484697 0.0292038 0)
(-0.22548 0.0797893 0)
(-0.54965 0.197012 0)
(-0.409697 -0.0323057 0)
(-0.274091 0.190617 0)
(-0.373248 0.290088 0)
(-0.314704 -0.0444152 0)
(-0.570386 0.114378 1.08745e-20)
(-0.335514 0.252469 -1.66513e-21)
(-0.561369 0.14676 -1.12717e-20)
(-0.350954 -0.0399792 1.30895e-20)
(-0.608272 0.238717 1.24929e-20)
(-0.511757 -0.109924 0)
(-0.200183 0.169928 3.88243e-20)
(-0.323252 0.211463 0)
(-0.524283 0.16144 1.20526e-20)
(-0.357136 -0.00241225 -3.29361e-21)
(-0.396922 -0.115069 0)
(-0.621444 0.147986 1.23569e-20)
(-0.426919 -0.131071 0)
(-0.630902 0.163165 7.13007e-21)
(-0.310918 0.282595 0)
(-0.286342 0.267411 0)
(-0.564336 0.174149 1.54461e-21)
(-0.389369 -0.0484555 6.92142e-21)
(-0.294354 0.217406 -7.29989e-21)
(-0.632925 0.294057 -6.52637e-21)
(-0.0724915 0.105733 0)
(-0.701065 -0.249497 -7.07032e-21)
(-0.590931 0.30151 -5.01238e-21)
(-0.0413109 0.0772715 -1.79364e-21)
(-0.722377 -0.267754 0)
(-0.621081 0.290285 -7.50675e-21)
(-0.615249 -0.150307 0)
(-0.13209 0.126286 2.03682e-20)
(-0.4608 0.3236 0)
(-0.557543 0.0502956 2.85244e-21)
(-0.226943 0.00261812 7.08292e-21)
(-0.55442 0.16547 1.02371e-20)
(-0.309804 0.227342 3.48616e-21)
(-0.371529 -0.0342254 0)
(-0.092045 0.13085 0)
(-0.668713 -0.253733 0)
(-0.652589 0.27173 5.575e-21)
(-0.447294 0.310208 0)
(-0.545295 0.0631287 -6.10868e-21)
(-0.239876 0.00815818 1.82646e-21)
(-0.322324 0.221929 0)
(-0.533175 0.156804 0)
(-0.351386 -0.0135207 0)
(-0.534576 0.18936 5.03179e-21)
(-0.397219 -0.0183923 0)
(-0.282191 0.185592 0)
(-0.479398 -0.0308106 -4.96145e-23)
(-0.212086 0.129918 -8.67209e-21)
(-0.546564 0.275982 1.57341e-20)
(-0.510454 -0.0342642 0)
(-0.190511 0.107604 -1.88367e-20)
(-0.646368 0.277551 -9.88169e-21)
(-0.114862 0.136113 1.29177e-20)
(-0.649201 -0.210272 -1.36366e-20)
(-0.182945 0.21124 1.17752e-20)
(-0.671454 0.212892 5.78679e-21)
(-0.560823 -0.216654 1.39555e-20)
(-0.678284 0.225215 -1.66376e-20)
(-0.600366 -0.242098 0)
(-0.149561 0.189665 -1.15872e-20)
(-0.312802 -0.089878 -7.7963e-22)
(-0.616284 0.0937157 4.90122e-21)
(-0.392395 0.345605 0)
(-0.524625 0.2179 -2.28775e-20)
(-0.564652 0.387937 6.67382e-21)
(-0.101718 0.0280453 -7.8349e-21)
(-0.704953 -0.0909919 0)
(-0.618342 -0.255552 0)
(-0.675392 0.235048 -1.53631e-20)
(-0.132659 0.173792 0)
(-0.439612 0.170683 -1.82361e-20)
(-0.32436 0.145221 -6.44255e-21)
(-0.378656 0.0750916 1.85832e-20)
(-0.512667 0.277089 0)
(-0.494694 0.00411985 -3.88646e-22)
(-0.209659 0.0912644 -7.19986e-21)
(-0.191622 0.224075 9.00822e-21)
(-0.678082 0.202594 0)
(-0.551866 -0.225044 -1.60752e-20)
(-0.539632 0.227099 1.83717e-20)
(-0.466053 -0.0325355 1.675e-20)
(-0.223299 0.141444 0)
(-0.0582687 0.0983007 0)
(-0.69682 -0.277017 6.15148e-21)
(-0.624056 0.28599 0)
(-0.373575 0.334706 0)
(-0.621751 0.102969 0)
(-0.333077 -0.104663 0)
(-0.671619 0.225619 1.46043e-20)
(-0.586241 -0.225664 0)
(-0.159352 0.190789 -5.69782e-24)
(-0.597255 0.169765 4.57971e-21)
(-0.404365 -0.0893614 -5.35651e-21)
(-0.287844 0.242085 0)
(-0.550337 0.300149 0)
(-0.539367 -0.0421866 6.6926e-21)
(-0.170694 0.0896121 1.18527e-20)
(-0.496461 -0.209729 -1.98689e-20)
(-0.678564 0.16759 -1.03627e-20)
(-0.244355 0.271697 7.10489e-21)
(-0.646496 0.16167 0)
(-0.444572 -0.153412 -7.75563e-21)
(-0.278742 0.273154 -2.54138e-22)
(-0.0571936 0.101004 -1.1511e-20)
(-0.681321 -0.288581 0)
(-0.62668 0.273701 -6.03807e-21)
(-0.41485 0.309242 8.50551e-21)
(-0.271707 -0.0219627 -8.83371e-21)
(-0.561663 0.0848423 8.95098e-22)
(-0.535198 0.313216 5.50652e-21)
(-0.0239372 0.0544201 -1.68587e-20)
(-0.734025 -0.24499 0)
(-0.347145 0.178445 -3.74761e-21)
(-0.45719 0.147427 -1.4187e-20)
(-0.345196 0.0612745 1.86776e-20)
(-0.591203 0.194632 5.57791e-21)
(-0.586448 0.178457 3.5832e-23)
(-0.433431 -0.083918 -1.29014e-20)
(-0.407279 -0.0763016 0)
(-0.282126 0.228404 6.63574e-21)
(-0.257492 0.210789 -6.8955e-21)
(-0.0864839 0.043092 -1.66509e-20)
(-0.575917 0.374958 6.95972e-21)
(-0.716844 -0.112364 -1.21404e-20)
(-0.535682 0.302592 0)
(-0.535516 -0.0218251 0)
(-0.180032 0.0792142 -1.56239e-20)
(-0.655938 0.172788 -2.68611e-21)
(-0.470822 -0.173067 0)
(-0.258784 0.262806 0)
(-0.603781 0.303809 -6.07641e-21)
(-0.609051 -0.120338 0)
(-0.132392 0.109362 7.45014e-21)
(-0.391969 0.151285 3.84976e-21)
(-0.385152 0.117689 5.62265e-21)
(-0.356134 0.128877 -1.92389e-21)
(-0.619352 0.175404 -9.10657e-21)
(-0.432882 -0.118402 0)
(-0.273161 0.247337 -1.16425e-20)
(-0.534172 0.31449 0)
(-0.550872 -0.0215727 8.36303e-21)
(-0.172529 0.0675081 -1.01046e-20)
(-0.542599 0.243816 0)
(-0.556691 0.250432 1.84807e-21)
(-0.416209 0.319322 3.09768e-21)
(-0.271327 -0.032728 2.56554e-20)
(-0.572127 0.0832138 -2.15516e-20)
(-0.626149 0.187908 -9.45208e-21)
(-0.456852 -0.131637 1.13116e-20)
(-0.251413 0.232488 1.06271e-20)
(-0.613088 0.301775 0)
(-0.12636 0.11505 -2.62033e-20)
(-0.621647 -0.137664 -7.15054e-21)
(-0.388867 0.276359 -2.19635e-20)
(-0.294722 -0.0166826 0)
(-0.545241 0.108372 6.81185e-21)
(-0.318399 0.298182 -1.36177e-20)
(-0.630582 0.139435 -7.1302e-21)
(-0.393371 -0.127293 0)
(-0.560714 0.337426 -6.0152e-21)
(-0.604833 -0.0598843 -7.43632e-21)
(-0.136779 0.0624117 4.64715e-21)
(-0.396359 0.320468 1.11951e-21)
(-0.298309 -0.0565695 0)
(-0.588133 0.0978357 1.48537e-20)
(-0.56997 0.343645 0)
(-0.579647 0.337809 0)
(-0.625557 -0.0743499 -4.84275e-21)
(-0.126809 0.0635501 -1.20833e-20)
(-0.630712 -0.0909627 6.8535e-21)
(-0.122149 0.0741151 1.28515e-20)
(-0.0948654 0.125575 -1.00593e-20)
(-0.673678 -0.237372 0)
(-0.647167 0.281622 -7.32281e-21)
(-0.564115 0.312761 6.94422e-21)
(-0.570074 -0.0624752 0)
(-0.151807 0.0850137 4.09213e-21)
(-0.648912 -0.278572 1.19151e-20)
(-0.0194133 0.0553594 1.47744e-20)
(-0.516341 0.273261 1.4481e-20)
(-0.498879 0.148459 -6.53416e-21)
(-0.341519 0.206157 0)
(-0.340063 0.0236941 0)
(-0.583537 0.226321 1.25193e-20)
(-0.471342 -0.075286 0)
(-0.224049 0.17413 2.27298e-20)
(-0.122699 0.134099 -8.17632e-21)
(-0.639782 0.280282 2.01313e-20)
(-0.634672 -0.189526 1.02051e-20)
(-0.346846 -0.0985261 0)
(-0.614309 0.117397 6.47707e-21)
(-0.354385 0.31563 -1.64197e-20)
(-0.516361 -0.216448 -2.43986e-20)
(-0.679218 0.179731 -6.43479e-21)
(-0.223717 0.253423 0)
(-0.439319 -0.010686 -1.67365e-20)
(-0.243661 0.146913 0)
(-0.583204 0.257197 1.38398e-20)
(-0.508084 -0.0764799 6.14315e-21)
(-0.192372 0.141365 6.94128e-21)
(-0.42738 -0.0166555 9.84844e-21)
(-0.253231 0.158683 7.07566e-23)
(-0.595601 0.348901 -4.83786e-22)
(-0.0744012 0.0671738 9.79516e-21)
(-0.724464 -0.15902 -7.30831e-21)
(-0.301937 -0.0977679 0)
(-0.625656 0.0835518 1.57515e-21)
(-0.406567 0.360904 0)
(-0.594339 0.262269 -1.4094e-20)
(-0.529336 -0.0920979 -7.50143e-21)
(-0.181887 0.144813 -8.53533e-21)
(-0.559225 0.190136 0)
(-0.403928 -0.0448106 -1.00596e-20)
(-0.278043 0.202159 0)
(-0.576009 0.130362 0)
(-0.336545 -0.0567795 0)
(-0.351184 0.276105 0)
(-0.479144 0.221071 -5.15716e-21)
(-0.428148 0.037511 -9.16495e-21)
(-0.263379 0.121211 3.18583e-23)
(-0.336563 0.310137 1.68973e-20)
(-0.62647 0.128518 1.74712e-20)
(-0.374515 -0.117609 1.10273e-20)
(-0.65838 0.259193 -8.96594e-21)
(-0.632143 -0.223783 1.16162e-20)
(-0.124711 0.152054 -1.22152e-20)
(-0.523698 -0.208108 1.64767e-20)
(-0.673445 0.190017 6.5232e-21)
(-0.214664 0.240396 8.96078e-21)
(-0.498197 0.378701 -1.26669e-20)
(-0.188173 -0.0153635 1.36973e-20)
(-0.616511 0.0127164 -1.0447e-20)
(-0.573044 0.363499 3.76794e-21)
(-0.567194 0.360291 -3.36959e-21)
(-0.649555 -0.0758643 -1.54693e-21)
(-0.669406 -0.0881797 0)
(-0.108606 0.0486962 -4.45987e-21)
(-0.11834 0.0477473 -3.91343e-21)
(-0.021996 0.0554544 -1.99932e-20)
(-0.67808 -0.268599 -1.31209e-20)
(-0.525695 0.283877 3.44788e-21)
(-0.545356 0.320762 -3.44113e-22)
(-0.0274766 0.0554643 2.33246e-20)
(-0.749864 -0.23888 0)
(-0.605628 0.201373 -2.03867e-20)
(-0.456433 -0.0999872 -2.91863e-21)
(-0.247543 0.211285 0)
(-0.103235 0.125786 -2.48723e-20)
(-0.643286 0.283875 7.27863e-21)
(-0.665818 -0.21686 0)
(-0.533599 0.361885 1.81283e-20)
(-0.545318 0.359725 -1.36193e-20)
(-0.612186 -0.0274423 7.99288e-21)
(-0.619643 -0.041451 3.04918e-21)
(-0.1537 0.0257715 -7.72029e-21)
(-0.141612 0.0364564 -3.86982e-21)
(-0.114785 0.16633 0)
(-0.620164 -0.283996 0)
(-0.679736 0.223804 2.79575e-21)
(-0.503322 0.309778 -6.46723e-21)
(-0.0184139 0.046321 0)
(-0.722776 -0.236121 0)
(-0.428087 0.118796 -4.10756e-23)
(-0.3859 0.183291 8.2417e-21)
(-0.326175 0.0904344 4.14719e-21)
(-0.549557 0.29675 -1.16495e-20)
(-0.708556 -0.269121 6.02517e-21)
(-0.0275839 0.0623103 1.09296e-21)
(-0.48339 0.323603 0)
(-0.553149 0.0308697 -1.31395e-20)
(-0.206855 0.0215172 2.4522e-24)
(-0.659 0.263936 5.81922e-23)
(-0.657689 -0.254667 1.67872e-20)
(-0.103315 0.14049 8.81742e-25)
(-0.571066 -0.295533 3.61082e-22)
(-0.0197504 0.0554827 -8.52098e-21)
(-0.500618 0.219839 -5.84544e-21)
(-0.406934 0.261822 -7.92254e-21)
(-0.277902 0.0236144 7.66607e-21)
(-0.51044 0.0970268 2.13116e-20)
(-0.475445 0.160277 0)
(-0.356468 0.044387 -2.07004e-20)
(-0.329637 0.179361 1.06424e-20)
(-0.600079 0.320796 0)
(-0.0504806 0.0796346 1.16781e-20)
(-0.739543 -0.237966 2.17337e-24)
(-0.48913 0.161928 0)
(-0.35377 0.031761 -7.30355e-21)
(-0.324402 0.189651 -1.50299e-20)
(-0.415781 0.1238 8.45604e-21)
(-0.381553 0.170599 -4.38159e-21)
(-0.33831 0.100552 2.18099e-21)
(-0.361825 0.340867 8.18524e-21)
(-0.638371 0.108838 -6.26057e-21)
(-0.356307 -0.12867 1.21942e-20)
(-0.477065 0.127033 0)
(-0.315812 0.0465969 0)
(-0.368888 0.21573 1.23898e-21)
(-0.494251 0.140535 1.03421e-20)
(-0.32831 0.0327576 5.64143e-21)
(-0.356983 0.216691 1.76037e-22)
(-0.484383 0.375012 1.92114e-20)
(-0.611508 0.0247222 -1.03222e-20)
(-0.205167 -0.0285876 -1.35172e-20)
(-0.0701611 0.0903838 1.75902e-20)
(-0.0725102 0.0960639 -1.78486e-20)
(-0.722144 -0.210684 4.96496e-21)
(-0.712483 -0.221984 3.44531e-21)
(-0.615102 0.323035 0)
(-0.621943 0.314158 -6.50706e-21)
(-0.66373 0.25587 1.09897e-20)
(-0.638801 -0.237455 -1.04358e-20)
(-0.118583 0.155007 1.51112e-20)
(-0.177194 -0.0210283 -8.78283e-21)
(-0.506681 0.39156 3.97666e-21)
(-0.633722 0.00280884 1.33273e-20)
(-0.428269 0.303166 -7.76655e-21)
(-0.257216 -0.00428401 -8.05002e-21)
(-0.548255 0.0760296 6.73063e-21)
(-0.655691 0.146795 0)
(-0.434601 -0.164506 8.02241e-21)
(-0.294063 0.29486 2.62962e-22)
(-0.604399 -0.316012 5.98232e-21)
(-0.0419389 0.086767 -7.95102e-21)
(-0.587283 0.224524 -4.93565e-21)
(-0.15658 0.203442 0)
(-0.687651 0.210305 0)
(-0.587827 -0.260361 7.04965e-21)
(-0.607411 0.298138 5.72572e-21)
(-0.050577 0.0876744 0)
(-0.716576 -0.267559 -6.03675e-21)
(-0.0142223 0.0458209 -3.14933e-32)
(-0.542364 -0.280989 -5.56062e-21)
(-0.461103 0.210292 5.95585e-21)
(-0.577511 -0.242798 6.22392e-21)
(-0.0101436 0.0390494 3.1421e-32)
(-0.440282 0.245886 -5.29256e-21)
(-0.508915 -0.14209 -1.55831e-20)
(-0.632595 0.218016 0)
(-0.214208 0.201668 -2.28649e-20)
(-0.62632 -0.305762 -3.22768e-21)
(-0.082292 0.135637 -8.11867e-21)
(-0.661932 0.225922 0)
(-0.632098 0.271929 -9.35082e-21)
(-0.596532 -0.161445 8.86989e-21)
(-0.147162 0.146432 1.19278e-20)
(-0.573119 0.356814 1.65719e-20)
(-0.0473992 0.0532541 7.12202e-21)
(-0.778399 -0.182143 0)
(-0.511206 0.225469 3.99799e-21)
(-0.24827 0.137955 -4.33695e-21)
(-0.437699 0.00449236 4.03051e-21)
(-0.61184 -0.277614 3.6445e-21)
(-0.127866 0.179 8.54394e-21)
(-0.683385 0.219879 3.02036e-21)
(-0.648583 0.139617 -7.12072e-21)
(-0.309238 0.304879 -4.65834e-21)
(-0.415513 -0.151557 0)
(-0.483492 -0.171841 0)
(-0.653232 0.183777 0)
(-0.242379 0.24842 0)
(-0.00293294 0.0179046 0)
(-0.340161 -0.157217 -4.64918e-21)
(-0.268392 0.127836 4.54944e-21)
(-0.635899 -0.295172 5.95188e-21)
(-0.0236379 0.0614973 -1.02847e-20)
(-0.533373 0.259777 -5.99562e-21)
(-0.495977 0.215945 -1.02942e-20)
(-0.262902 0.137635 1.01897e-20)
(-0.422789 0.0202843 4.65675e-21)
(-0.641865 -0.274871 1.49537e-20)
(-0.66964 0.244474 -6.19935e-21)
(-0.101509 0.149476 0)
(-0.108159 0.163847 -8.99042e-21)
(-0.681055 0.218773 0)
(-0.615814 -0.29631 -1.1189e-20)
(-0.633393 0.299542 -6.64156e-21)
(-0.09397 0.113047 2.66676e-20)
(-0.679171 -0.205758 0)
(-0.0860928 0.061308 -2.0126e-20)
(-0.704916 -0.130223 7.66607e-21)
(-0.588771 0.357187 0)
(-0.473104 0.385234 -2.41267e-20)
(-0.622457 0.0329429 1.31582e-20)
(-0.222494 -0.0481239 -4.29963e-21)
(-0.645399 -0.0591064 2.31864e-21)
(-0.554688 0.370792 7.9269e-21)
(-0.12809 0.0334413 -1.22131e-20)
(-0.0701497 0.0486199 -1.80915e-20)
(-0.579751 0.369257 0)
(-0.745228 -0.141581 0)
(-0.502262 0.307994 -3.75201e-21)
(-0.517514 0.317837 0)
(-0.532494 0.0140211 -1.36548e-20)
(-0.548557 -0.00176376 1.4592e-20)
(-0.196801 0.0535292 2.05043e-21)
(-0.182537 0.0536397 -2.18627e-21)
(-0.486767 0.310678 3.60125e-21)
(-0.536531 0.0289922 0)
(-0.208068 0.038773 3.93891e-21)
(-0.525239 0.372896 0)
(-0.620664 -0.019 -1.29132e-20)
(-0.158484 0.0119756 2.78558e-21)
(-0.511175 -0.192774 -8.1476e-21)
(-0.664844 0.19073 6.66657e-21)
(-0.221808 0.237097 -1.84509e-20)
(-0.628369 -0.252112 0)
(-0.668838 0.245894 1.67893e-20)
(-0.121466 0.162951 0)
(-0.194419 0.210822 -5.9254e-21)
(-0.662392 0.212246 -4.33167e-21)
(-0.544357 -0.196944 -5.33034e-21)
(-0.61673 -0.244885 -8.54047e-22)
(-0.0116687 0.041694 5.48092e-21)
(-0.462104 0.264459 0)
(-0.439783 0.262181 7.12226e-21)
(-0.447314 0.253392 0)
(-0.254657 0.0532543 0)
(-0.490322 0.0722959 2.60513e-20)
(-0.25515 0.068209 0)
(-0.47637 0.0653748 -1.65389e-20)
(-0.505917 0.359 0)
(-0.490363 0.349483 0)
(-0.197075 0.00470681 2.92475e-23)
(-0.595631 0.00592853 8.0033e-21)
(-0.182329 0.0103676 2.03135e-20)
(-0.582167 0.0205694 -1.6905e-20)
(-0.552789 -0.306846 0)
(-0.0248813 0.0632676 1.16182e-20)
(-0.522055 0.208699 0)
(-0.643627 -0.266942 -8.80697e-21)
(-0.668403 0.248993 1.87522e-21)
(-0.105147 0.147689 5.37728e-21)
(-0.432385 0.33123 -1.3472e-20)
(-0.259266 -0.0343552 -9.26299e-21)
(-0.579464 0.0706235 2.23853e-20)
(-0.476151 -0.191573 1.76664e-20)
(-0.669174 0.163277 1.7313e-20)
(-0.258717 0.276692 0)
(-0.0916213 0.0558051 2.15204e-20)
(-0.697209 -0.11843 -8.15705e-21)
(-0.584205 0.361119 8.85643e-21)
(-0.674 -0.296594 0)
(-0.590235 0.271869 0)
(-0.0388587 0.0807883 0)
(-0.670951 -0.297159 0)
(-0.609847 0.266054 5.30499e-21)
(-0.0490328 0.0934219 1.95742e-21)
(-0.549521 0.346929 -7.5182e-21)
(-0.604974 -0.0465486 4.61827e-21)
(-0.14302 0.0498226 5.72782e-21)
(-0.377328 0.26428 -2.079e-21)
(-0.305609 -0.00973079 0)
(-0.537084 0.119427 -6.66945e-23)
(-0.63043 0.303045 7.73876e-21)
(-0.0842293 0.106842 1.55832e-20)
(-0.696377 -0.217203 -4.01271e-21)
(-0.515792 -0.160018 0)
(-0.643329 0.214427 0)
(-0.21073 0.21111 1.9716e-20)
(-0.111127 0.105427 5.00719e-21)
(-0.649309 -0.152041 1.2254e-20)
(-0.614495 0.312874 1.98749e-20)
(-0.478284 0.350312 0)
(-0.209884 -0.00733376 -1.35503e-20)
(-0.583272 0.0308194 8.63159e-21)
(-0.590452 0.157348 7.38398e-23)
(-0.382038 -0.0769816 7.86248e-21)
(-0.310867 0.255506 0)
(-0.415593 0.285612 1.05791e-22)
(-0.269043 0.00135123 -2.6263e-21)
(-0.536531 0.0874574 -8.81953e-21)
(-0.0844133 0.113819 1.13423e-23)
(-0.691426 -0.236034 9.51416e-21)
(-0.637738 0.291879 8.7784e-21)
(-0.596461 0.319626 -3.61406e-21)
(-0.626529 -0.114745 -3.60206e-21)
(-0.123248 0.0946308 0)
(-0.413878 0.253635 -7.72429e-21)
(-0.274963 0.0400678 1.64639e-20)
(-0.495443 0.0929128 -1.40405e-20)
(-0.576001 0.368879 6.41999e-21)
(-0.0602029 0.0472781 8.07607e-21)
(-0.763918 -0.155534 -5.79557e-21)
(-0.483514 0.281096 -4.54762e-21)
(-0.5001 0.0308641 0)
(-0.219317 0.0650259 0)
(-0.523812 0.177448 -1.86728e-20)
(-0.376004 -0.00382106 4.54176e-21)
(-0.301247 0.19542 0)
(-0.479864 -0.153369 0)
(-0.641774 0.190086 1.35065e-20)
(-0.240114 0.236543 0)
(-0.55971 0.336185 -3.70094e-21)
(-0.0340915 0.0564 -2.5045e-21)
(-0.773098 -0.220629 6.6275e-21)
(-0.558497 0.345583 1.02127e-20)
(-0.0352361 0.0531544 0)
(-0.781336 -0.205981 -6.33361e-21)
(-0.103525 0.0940404 4.59039e-21)
(-0.663072 -0.147166 -7.30473e-21)
(-0.608416 0.323571 -1.8227e-20)
(-0.604121 0.144871 -6.29064e-21)
(-0.379774 -0.094042 -7.88898e-21)
(-0.321803 0.274571 0)
(-0.026312 0.0506086 2.29477e-21)
(-0.767291 -0.22723 -6.1966e-21)
(-0.536499 0.32959 0)
(-0.13786 0.146016 0)
(-0.612647 -0.18043 -7.48272e-21)
(-0.639944 0.27058 -2.28977e-21)
(-0.0112437 0.0383897 9.2599e-21)
(-0.464893 -0.265876 6.2474e-21)
(-0.412487 0.170882 0)
(-0.375562 0.226939 -5.92045e-21)
(-0.523726 -0.203422 0)
(-0.00581577 0.0291546 9.2701e-21)
(-0.0754685 0.0575388 1.28186e-23)
(-0.729465 -0.144529 0)
(-0.586611 0.361391 0)
(-0.0697351 0.108945 0)
(-0.692334 -0.265317 0)
(-0.636392 0.284453 1.1877e-20)
(-0.612198 0.327013 -6.76863e-21)
(-0.614752 0.323685 5.47836e-21)
(-0.075975 0.0863455 -8.81662e-21)
(-0.715391 -0.188911 -1.62758e-21)
(-0.0852878 0.0917531 -1.42496e-20)
(-0.695892 -0.17902 2.93084e-21)
(-0.647132 0.258154 4.39499e-21)
(-0.60061 -0.187715 4.93631e-21)
(-0.147009 0.158983 0)
(-0.282196 0.298356 0)
(-0.451878 -0.185911 0)
(-0.669036 0.149147 0)
(-0.446514 0.229303 0)
(-0.270113 0.0908753 -2.24201e-20)
(-0.448748 0.0669838 9.07688e-21)
(-0.652367 0.232333 1.24645e-20)
(-0.561361 -0.185117 1.81311e-21)
(-0.176778 0.188053 1.74805e-20)
(-0.19228 0.201304 1.13916e-20)
(-0.653083 0.222014 -1.73272e-20)
(-0.543708 -0.181903 -2.51603e-21)
(-0.573082 0.38003 7.12504e-21)
(-0.0762089 0.0391973 8.66004e-21)
(-0.740599 -0.123042 1.26834e-20)
(-0.508666 0.368591 0)
(-0.60829 0.0014881 3.8376e-21)
(-0.176735 0.00332568 -1.99099e-20)
(-0.494787 0.333885 0)
(-0.565733 0.0194693 1.72556e-20)
(-0.195925 0.019247 3.09515e-23)
(-0.623169 0.240206 -1.5868e-20)
(-0.531131 -0.134107 2.18584e-21)
(-0.191115 0.17478 -9.8906e-21)
(-0.632108 0.233465 0)
(-0.531565 -0.146398 2.05235e-21)
(-0.194208 0.184186 9.1192e-21)
(-0.402961 0.238177 0)
(-0.287898 0.0485013 -2.59949e-20)
(-0.483128 0.102006 7.84413e-21)
(-0.518686 0.328137 0)
(-0.561493 -0.00603981 0)
(-0.175679 0.04335 2.97901e-21)
(-0.139613 0.194019 -1.85187e-20)
(-0.596175 -0.279764 -1.98812e-20)
(-0.691041 0.209336 0)
(-0.62043 0.249307 7.35177e-21)
(-0.0530751 0.100055 0)
(-0.644748 -0.308038 4.30875e-21)
(-0.612444 0.231684 -7.09102e-23)
(-0.0507722 0.0983366 0)
(-0.622659 -0.313497 -1.23777e-20)
(-0.454139 0.298727 5.38411e-21)
(-0.234825 0.0260616 -2.86383e-21)
(-0.528691 0.0566369 -1.13216e-22)
(-0.645581 -0.30078 1.7539e-22)
(-0.0327246 0.0737828 1.57355e-20)
(-0.570357 0.256578 0)
(-0.599744 0.32886 1.56015e-20)
(-0.109239 0.0881975 9.62281e-21)
(-0.653017 -0.128052 0)
(-0.0340344 0.0764159 -2.33961e-21)
(-0.607944 -0.31255 -6.69786e-21)
(-0.566407 0.231342 0)
(-0.464057 0.178057 1.26683e-20)
(-0.313417 0.156 1.34954e-20)
(-0.378546 0.0554613 6.30623e-23)
(-0.560457 0.265251 -2.30553e-21)
(-0.503274 -0.0475633 -2.23546e-21)
(-0.196953 0.125838 -1.01888e-20)
(-0.355903 -0.0820797 1.7959e-20)
(-0.596837 0.133228 1.46212e-20)
(-0.341711 0.284879 0)
(-0.0909485 0.14322 0)
(-0.63117 -0.297258 -4.04059e-21)
(-0.668177 0.231253 0)
(-0.503488 -0.164982 0)
(-0.647004 0.20388 0)
(-0.221436 0.222643 0)
(-0.0564467 0.0557478 0)
(-0.5814 0.358415 -6.10069e-21)
(-0.764853 -0.17085 5.67857e-21)
(-0.575143 0.269424 0)
(-0.518764 -0.0669214 1.10888e-21)
(-0.186382 0.12993 9.96601e-21)
(-0.439411 0.218272 0)
(-0.282219 0.0979079 1.924e-20)
(-0.437719 0.0735452 0)
(-0.650378 -0.285423 -1.41482e-20)
(-0.660844 0.24911 5.88545e-21)
(-0.0885336 0.136627 0)
(-0.119294 0.12421 -1.05183e-20)
(-0.638537 -0.176369 4.76463e-22)
(-0.630111 0.292016 1.39751e-22)
(-0.582029 0.321737 0)
(-0.574065 0.317945 7.0115e-21)
(-0.0404684 0.0694311 -5.75042e-21)
(-0.0362456 0.0677252 -7.08154e-21)
(-0.749788 -0.2389 -4.05868e-21)
(-0.744415 -0.24846 3.33728e-21)
(-0.577775 0.203114 0)
(-0.432523 -0.0680776 3.01295e-20)
(-0.256225 0.197604 1.07885e-20)
(-0.485371 -0.124403 2.18551e-20)
(-0.621315 0.210305 0)
(-0.225463 0.205655 -1.19686e-20)
(-0.505096 0.192265 -1.05099e-20)
(-0.39201 0.0119761 7.75562e-21)
(-0.283668 0.167362 1.65597e-20)
(-0.647943 -0.305092 9.4047e-21)
(-0.641371 0.246688 7.80466e-21)
(-0.632624 -0.30997 -4.48468e-21)
(-0.0652115 0.114101 0)
(-0.647402 0.233325 -7.54152e-21)
(-0.070115 0.120533 0)
(-0.601461 0.279529 0)
(-0.561929 -0.109539 0)
(-0.162008 0.132497 1.11676e-20)
(-0.651472 0.258934 1.05993e-20)
(-0.64313 0.257345 -1.98189e-20)
(-0.66449 -0.284451 6.1683e-21)
(-0.664383 -0.293699 -1.54653e-20)
(-0.0772897 0.123767 1.58298e-20)
(-0.0677934 0.114278 1.54478e-25)
(-0.617205 0.201421 0)
(-0.464773 -0.117979 -2.01415e-20)
(-0.244232 0.221218 1.55187e-20)
(-0.553299 0.226131 9.99842e-21)
(-0.464754 -0.048024 -1.34291e-20)
(-0.223148 0.153716 0)
(-0.57536 0.348649 0)
(-0.0443087 0.0582747 0)
(-0.773716 -0.198694 6.08384e-21)
(-0.57523 0.215609 7.35684e-21)
(-0.448299 -0.0636385 -8.37212e-21)
(-0.241969 0.183408 -1.79009e-20)
(-0.52258 0.203197 4.26097e-21)
(-0.409533 -0.00754491 -9.09119e-21)
(-0.268974 0.166385 9.72558e-21)
(-0.574228 0.330735 0)
(-0.0401239 0.0638659 0)
(-0.76396 -0.227374 -8.36949e-21)
(-0.572578 0.283084 0)
(-0.54037 -0.0672335 2.37868e-21)
(-0.170594 0.114694 -1.10933e-20)
(-0.402744 -0.154692 0)
(-0.65295 0.129629 0)
(-0.324288 0.322589 -6.02581e-22)
(-0.47445 0.360673 -6.14732e-22)
(-0.595367 0.0344597 0)
(-0.213877 -0.0211461 2.10853e-20)
(-0.535569 -0.236718 9.56797e-21)
(-0.206568 0.248891 0)
(-0.688567 0.182377 0)
(-0.00601634 0.027557 -2.22811e-20)
(-0.444542 -0.207682 6.50577e-21)
(-0.352382 0.172791 -6.36857e-21)
(-0.576219 0.241263 0)
(-0.479926 -0.0644462 8.24812e-21)
(-0.213417 0.156078 -9.16297e-21)
(-0.596641 0.33851 1.13483e-20)
(-0.0570829 0.0725795 2.98446e-20)
(-0.74798 -0.197925 0)
(-0.261048 -0.0724666 -5.63795e-21)
(-0.622961 0.0586751 -8.62522e-21)
(-0.439891 0.374925 -5.45071e-21)
(-0.450547 0.280166 0)
(-0.0111844 0.0385756 -8.3311e-21)
(-0.651658 -0.231756 0)
(-0.34768 0.235176 1.03379e-20)
(-0.353623 0.251604 -1.05879e-20)
(-0.3292 -0.00579426 0)
(-0.528048 0.139316 9.0282e-21)
(-0.327154 -0.0209151 -1.68335e-20)
(-0.543578 0.132639 -7.27579e-21)
(-0.503864 0.178233 9.88891e-21)
(-0.37344 0.0168302 1.02525e-20)
(-0.303331 0.182194 0)
(-0.387677 0.254915 9.13117e-21)
(-0.368256 0.240893 0)
(-0.294587 0.0129402 -9.31429e-21)
(-0.516576 0.111123 8.08906e-21)
(-0.309304 0.0130207 9.38369e-21)
(-0.513147 0.125135 5.22157e-23)
(-0.564411 0.238275 6.35969e-22)
(-0.442704 -0.0378824 -5.83175e-21)
(-0.241833 0.164867 -1.20111e-20)
(-0.557846 0.216693 -1.72019e-20)
(-0.436841 -0.0431278 1.54634e-22)
(-0.249941 0.176541 0)
(-0.060311 0.111248 0)
(-0.613286 -0.318542 0)
(-0.632454 0.223038 8.27923e-21)
(-0.471796 0.298596 -4.96733e-21)
(-0.524375 0.043434 0)
(-0.221914 0.0394963 5.30961e-21)
(-0.647643 0.271844 -1.88415e-20)
(-0.675446 -0.270026 7.1062e-21)
(-0.0786744 0.121151 -9.02799e-21)
(-0.622921 0.254862 0)
(-0.631318 0.259039 9.00687e-21)
(-0.554737 -0.137675 -2.72355e-21)
(-0.574089 -0.153471 8.72619e-21)
(-0.172272 0.160322 -1.23518e-20)
(-0.161561 0.158089 -1.15192e-20)
(-0.470952 0.283541 0)
(-0.506542 0.0434562 0)
(-0.227449 0.0534954 2.49279e-21)
(-0.527873 0.349875 5.987e-21)
(-0.592647 -0.0178853 0)
(-0.163221 0.0322077 6.64253e-21)
(-0.602286 0.254397 -4.55729e-21)
(-0.525576 -0.105399 0)
(-0.185579 0.156161 0)
(-0.408062 0.192358 9.97778e-21)
(-0.425202 0.100177 -4.85598e-21)
(-0.310728 0.0978215 5.16773e-21)
(-0.642087 0.240561 0)
(-0.558493 -0.167512 0)
(-0.176612 0.179322 -1.85841e-20)
(-0.433211 0.23613 0)
(-0.271021 0.0742256 2.84791e-21)
(-0.462796 0.07777 0)
(-0.610294 0.216585 -1.00635e-20)
(-0.478108 -0.111019 -1.122e-20)
(-0.228582 0.197277 -1.54629e-21)
(-0.531795 0.335843 6.05789e-21)
(-0.577781 -0.0220815 0)
(-0.163193 0.0452422 1.36444e-20)
(-0.414836 0.207919 -9.89126e-21)
(-0.404365 0.212966 -4.43645e-21)
(-0.438756 0.0926201 4.76863e-21)
(-0.296842 0.0886184 -1.02131e-20)
(-0.453056 0.100114 0)
(-0.297234 0.0743337 -1.82484e-20)
(-0.384555 0.228486 -4.50873e-21)
(-0.300963 0.0398871 1.21458e-20)
(-0.370803 0.232549 2.90318e-21)
(-0.486126 0.114507 -1.08881e-20)
(-0.313326 0.0228114 -5.82442e-21)
(-0.503517 0.126661 1.60738e-22)
(-0.501347 0.294375 5.3881e-21)
(-0.518308 0.292081 0)
(-0.515364 0.0138143 1.00843e-20)
(-0.515754 -0.00156794 -7.86912e-21)
(-0.202494 0.0664121 -1.18273e-20)
(-0.195456 0.0795022 1.96795e-20)
(-0.0917506 0.0723785 0)
(-0.688111 -0.134248 -4.49684e-21)
(-0.595037 0.344943 -9.48415e-21)
(-0.341114 0.324684 7.29315e-21)
(-0.639736 0.122612 9.87035e-21)
(-0.379376 -0.134384 -1.91549e-20)
(-0.084523 0.075991 -1.00313e-20)
(-0.0896533 0.0860767 8.02658e-21)
(-0.700727 -0.153143 3.8873e-21)
(-0.687875 -0.160999 6.6741e-21)
(-0.600336 0.342291 2.43477e-20)
(-0.608549 0.330816 -1.26924e-20)
(-0.40179 0.335823 9.92648e-21)
(-0.296662 -0.0681354 -8.88539e-21)
(-0.600465 0.0903593 2.12405e-21)
(-0.401173 0.165056 1.6746e-20)
(-0.338424 0.121319 0)
(-0.395531 0.109065 -1.66539e-20)
(-0.640736 0.252112 -4.35593e-21)
(-0.577453 -0.170038 -9.85243e-21)
(-0.162382 0.166606 0)
(-0.450939 0.273802 0)
(-0.242241 0.0454344 -2.3764e-21)
(-0.502063 0.0614934 -8.44998e-21)
(-0.541111 0.335269 0)
(-0.582404 -0.0327769 0)
(-0.155684 0.0531404 -1.27135e-20)
(-0.581879 0.355093 -1.00943e-20)
(-0.585701 0.344574 0)
(-0.671778 -0.104792 2.36861e-21)
(-0.103892 0.0604117 -1.21993e-20)
(-0.656924 -0.105549 -6.45749e-21)
(-0.109202 0.0704098 1.65004e-20)