/*--------------------------------*- C++ -*----------------------------------*\
  =========                 |
  \\      /  F ield         | OpenFOAM: The Open Source CFD Toolbox
   \\    /   O peration     | Website:  https://openfoam.org
    \\  /    A nd           | Version:  6
     \\/     M anipulation  |
\*---------------------------------------------------------------------------*/
FoamFile
{
    version     2.0;
    format      ascii;
    class       volScalarField;
    location    "0";
    object      p;
}
// * * * * * * * * * * * * * * * * * * * * * * * * * * * * * * * * * * * * * //

dimensions      [0 2 -2 0 0 0 0];

internalField   nonuniform List<scalar> 
145945
(
3.77594e-06
3.77474e-06
3.77372e-06
3.7727e-06
3.7719e-06
3.77127e-06
3.77082e-06
3.77054e-06
3.77042e-06
3.77048e-06
3.7707e-06
3.77108e-06
3.77164e-06
3.77237e-06
3.77335e-06
3.77441e-06
3.7757e-06
3.77474e-06
3.77377e-06
3.77279e-06
3.77182e-06
3.77103e-06
3.77041e-06
3.76997e-06
3.76969e-06
3.76957e-06
3.76962e-06
3.76984e-06
3.77022e-06
3.77077e-06
3.77149e-06
3.77241e-06
3.77345e-06
3.77449e-06
3.77372e-06
3.77279e-06
3.77181e-06
3.77088e-06
3.77011e-06
3.76951e-06
3.76909e-06
3.76882e-06
3.7687e-06
3.76875e-06
3.76896e-06
3.76932e-06
3.76985e-06
3.77055e-06
3.77144e-06
3.77247e-06
3.77347e-06
3.7727e-06
3.77182e-06
3.77088e-06
3.76998e-06
3.76924e-06
3.76866e-06
3.76825e-06
3.76799e-06
3.76788e-06
3.76792e-06
3.76812e-06
3.76847e-06
3.76898e-06
3.76966e-06
3.77051e-06
3.77151e-06
3.77245e-06
3.7719e-06
3.77103e-06
3.77011e-06
3.76924e-06
3.76852e-06
3.76796e-06
3.76755e-06
3.7673e-06
3.76719e-06
3.76723e-06
3.76743e-06
3.76777e-06
3.76826e-06
3.76892e-06
3.76975e-06
3.77072e-06
3.77165e-06
3.77127e-06
3.77041e-06
3.76951e-06
3.76866e-06
3.76796e-06
3.76741e-06
3.76702e-06
3.76677e-06
3.76666e-06
3.7667e-06
3.76689e-06
3.76722e-06
3.7677e-06
3.76835e-06
3.76915e-06
3.7701e-06
3.77102e-06
3.77083e-06
3.76997e-06
3.76909e-06
3.76825e-06
3.76755e-06
3.76702e-06
3.76663e-06
3.76638e-06
3.76628e-06
3.76632e-06
3.7665e-06
3.76683e-06
3.7673e-06
3.76794e-06
3.76873e-06
3.76966e-06
3.77057e-06
3.77054e-06
3.76969e-06
3.76882e-06
3.76799e-06
3.7673e-06
3.76677e-06
3.76638e-06
3.76614e-06
3.76604e-06
3.76608e-06
3.76626e-06
3.76658e-06
3.76705e-06
3.76768e-06
3.76846e-06
3.76939e-06
3.77029e-06
3.77043e-06
3.76957e-06
3.76871e-06
3.76788e-06
3.76719e-06
3.76666e-06
3.76628e-06
3.76604e-06
3.76594e-06
3.76598e-06
3.76616e-06
3.76648e-06
3.76694e-06
3.76757e-06
3.76835e-06
3.76927e-06
3.77017e-06
3.77048e-06
3.76962e-06
3.76875e-06
3.76792e-06
3.76723e-06
3.7667e-06
3.76632e-06
3.76608e-06
3.76598e-06
3.76601e-06
3.7662e-06
3.76652e-06
3.76698e-06
3.76761e-06
3.76839e-06
3.76932e-06
3.77022e-06
3.7707e-06
3.76984e-06
3.76896e-06
3.76812e-06
3.76743e-06
3.76689e-06
3.7665e-06
3.76626e-06
3.76616e-06
3.7662e-06
3.76638e-06
3.76671e-06
3.76718e-06
3.76781e-06
3.7686e-06
3.76953e-06
3.77044e-06
3.77108e-06
3.77022e-06
3.76932e-06
3.76847e-06
3.76777e-06
3.76722e-06
3.76683e-06
3.76658e-06
3.76648e-06
3.76652e-06
3.76671e-06
3.76704e-06
3.76752e-06
3.76816e-06
3.76896e-06
3.76991e-06
3.77083e-06
3.77164e-06
3.77077e-06
3.76985e-06
3.76898e-06
3.76826e-06
3.7677e-06
3.7673e-06
3.76705e-06
3.76694e-06
3.76698e-06
3.76718e-06
3.76752e-06
3.76801e-06
3.76867e-06
3.76949e-06
3.77046e-06
3.77139e-06
3.77237e-06
3.77149e-06
3.77055e-06
3.76966e-06
3.76892e-06
3.76835e-06
3.76794e-06
3.76768e-06
3.76757e-06
3.76761e-06
3.76781e-06
3.76816e-06
3.76867e-06
3.76934e-06
3.77018e-06
3.77118e-06
3.77212e-06
3.77335e-06
3.77241e-06
3.77144e-06
3.77051e-06
3.76975e-06
3.76915e-06
3.76873e-06
3.76846e-06
3.76835e-06
3.76839e-06
3.7686e-06
3.76896e-06
3.76949e-06
3.77018e-06
3.77107e-06
3.7721e-06
3.7731e-06
3.77441e-06
3.77345e-06
3.77247e-06
3.77151e-06
3.77072e-06
3.7701e-06
3.76966e-06
3.76939e-06
3.76927e-06
3.76932e-06
3.76953e-06
3.76991e-06
3.77046e-06
3.77118e-06
3.7721e-06
3.77313e-06
3.77416e-06
3.77569e-06
3.77449e-06
3.77347e-06
3.77245e-06
3.77165e-06
3.77102e-06
3.77057e-06
3.77029e-06
3.77017e-06
3.77022e-06
3.77044e-06
3.77083e-06
3.77139e-06
3.77212e-06
3.7731e-06
3.77416e-06
3.77545e-06
3.72861e-06
3.72778e-06
3.727e-06
3.72621e-06
3.72557e-06
3.72508e-06
3.72473e-06
3.7245e-06
3.72441e-06
3.72444e-06
3.72461e-06
3.7249e-06
3.72533e-06
3.72589e-06
3.72662e-06
3.72743e-06
3.72832e-06
3.72778e-06
3.7271e-06
3.72636e-06
3.72562e-06
3.725e-06
3.72452e-06
3.72417e-06
3.72395e-06
3.72386e-06
3.72389e-06
3.72405e-06
3.72434e-06
3.72475e-06
3.72529e-06
3.72599e-06
3.72676e-06
3.72749e-06
3.727e-06
3.72636e-06
3.72565e-06
3.72494e-06
3.72435e-06
3.72388e-06
3.72355e-06
3.72334e-06
3.72325e-06
3.72328e-06
3.72343e-06
3.72371e-06
3.7241e-06
3.72462e-06
3.72528e-06
3.72603e-06
3.72671e-06
3.72621e-06
3.72562e-06
3.72494e-06
3.72426e-06
3.72369e-06
3.72324e-06
3.72292e-06
3.72272e-06
3.72263e-06
3.72266e-06
3.72281e-06
3.72307e-06
3.72344e-06
3.72394e-06
3.72457e-06
3.72529e-06
3.72592e-06
3.72558e-06
3.725e-06
3.72435e-06
3.72369e-06
3.72313e-06
3.7227e-06
3.72239e-06
3.72219e-06
3.72211e-06
3.72213e-06
3.72227e-06
3.72253e-06
3.72289e-06
3.72338e-06
3.72398e-06
3.72467e-06
3.72529e-06
3.72508e-06
3.72452e-06
3.72388e-06
3.72324e-06
3.7227e-06
3.72228e-06
3.72198e-06
3.72179e-06
3.7217e-06
3.72173e-06
3.72186e-06
3.72211e-06
3.72246e-06
3.72293e-06
3.72352e-06
3.72419e-06
3.72479e-06
3.72473e-06
3.72417e-06
3.72355e-06
3.72292e-06
3.72239e-06
3.72198e-06
3.72168e-06
3.72149e-06
3.72141e-06
3.72143e-06
3.72157e-06
3.72181e-06
3.72215e-06
3.72261e-06
3.72319e-06
3.72385e-06
3.72443e-06
3.7245e-06
3.72395e-06
3.72334e-06
3.72272e-06
3.72219e-06
3.72179e-06
3.72149e-06
3.7213e-06
3.72122e-06
3.72124e-06
3.72137e-06
3.72161e-06
3.72196e-06
3.72241e-06
3.72298e-06
3.72363e-06
3.72421e-06
3.72441e-06
3.72386e-06
3.72325e-06
3.72263e-06
3.72211e-06
3.7217e-06
3.72141e-06
3.72122e-06
3.72113e-06
3.72116e-06
3.72129e-06
3.72153e-06
3.72187e-06
3.72232e-06
3.72289e-06
3.72353e-06
3.72411e-06
3.72444e-06
3.72389e-06
3.72328e-06
3.72266e-06
3.72213e-06
3.72173e-06
3.72143e-06
3.72124e-06
3.72116e-06
3.72118e-06
3.72132e-06
3.72155e-06
3.7219e-06
3.72235e-06
3.72292e-06
3.72357e-06
3.72415e-06
3.72461e-06
3.72405e-06
3.72343e-06
3.72281e-06
3.72227e-06
3.72186e-06
3.72157e-06
3.72137e-06
3.72129e-06
3.72131e-06
3.72145e-06
3.72169e-06
3.72204e-06
3.7225e-06
3.72307e-06
3.72373e-06
3.72432e-06
3.7249e-06
3.72434e-06
3.72371e-06
3.72307e-06
3.72253e-06
3.72211e-06
3.72181e-06
3.72161e-06
3.72153e-06
3.72155e-06
3.72169e-06
3.72194e-06
3.72229e-06
3.72276e-06
3.72334e-06
3.72401e-06
3.72461e-06
3.72533e-06
3.72475e-06
3.7241e-06
3.72345e-06
3.72289e-06
3.72246e-06
3.72215e-06
3.72196e-06
3.72187e-06
3.7219e-06
3.72204e-06
3.72229e-06
3.72265e-06
3.72313e-06
3.72373e-06
3.72442e-06
3.72504e-06
3.72589e-06
3.72529e-06
3.72462e-06
3.72394e-06
3.72337e-06
3.72293e-06
3.72261e-06
3.72241e-06
3.72232e-06
3.72235e-06
3.7225e-06
3.72276e-06
3.72313e-06
3.72363e-06
3.72425e-06
3.72497e-06
3.7256e-06
3.72662e-06
3.72599e-06
3.72528e-06
3.72457e-06
3.72398e-06
3.72352e-06
3.72319e-06
3.72298e-06
3.72289e-06
3.72292e-06
3.72307e-06
3.72334e-06
3.72373e-06
3.72425e-06
3.72491e-06
3.72566e-06
3.72633e-06
3.72743e-06
3.72676e-06
3.72603e-06
3.72529e-06
3.72467e-06
3.72419e-06
3.72385e-06
3.72363e-06
3.72353e-06
3.72357e-06
3.72373e-06
3.72401e-06
3.72442e-06
3.72497e-06
3.72566e-06
3.72642e-06
3.72715e-06
3.72832e-06
3.72749e-06
3.72671e-06
3.72592e-06
3.72529e-06
3.72479e-06
3.72444e-06
3.72421e-06
3.72411e-06
3.72415e-06
3.72432e-06
3.72461e-06
3.72504e-06
3.7256e-06
3.72634e-06
3.72715e-06
3.72803e-06
3.69382e-06
3.69346e-06
3.69314e-06
3.69279e-06
3.69251e-06
3.69227e-06
3.69209e-06
3.69197e-06
3.69191e-06
3.69193e-06
3.69201e-06
3.69216e-06
3.69236e-06
3.69262e-06
3.69292e-06
3.69325e-06
3.69361e-06
3.69346e-06
3.69314e-06
3.6928e-06
3.69246e-06
3.69216e-06
3.69191e-06
3.69173e-06
3.69161e-06
3.69155e-06
3.69156e-06
3.69165e-06
3.6918e-06
3.69201e-06
3.69227e-06
3.69259e-06
3.69292e-06
3.69325e-06
3.69314e-06
3.69281e-06
3.69244e-06
3.69209e-06
3.69178e-06
3.69153e-06
3.69134e-06
3.69121e-06
3.69116e-06
3.69117e-06
3.69126e-06
3.69141e-06
3.69163e-06
3.6919e-06
3.69222e-06
3.69258e-06
3.69293e-06
3.69279e-06
3.69246e-06
3.69209e-06
3.69172e-06
3.69141e-06
3.69115e-06
3.69096e-06
3.69083e-06
3.69078e-06
3.69079e-06
3.69088e-06
3.69103e-06
3.69125e-06
3.69153e-06
3.69186e-06
3.69223e-06
3.69259e-06
3.69251e-06
3.69216e-06
3.69178e-06
3.69141e-06
3.69109e-06
3.69083e-06
3.69063e-06
3.69051e-06
3.69045e-06
3.69046e-06
3.69055e-06
3.69071e-06
3.69093e-06
3.69121e-06
3.69155e-06
3.69194e-06
3.6923e-06
3.69227e-06
3.69191e-06
3.69153e-06
3.69115e-06
3.69083e-06
3.69057e-06
3.69037e-06
3.69024e-06
3.69019e-06
3.6902e-06
3.69029e-06
3.69045e-06
3.69067e-06
3.69095e-06
3.69129e-06
3.69169e-06
3.69206e-06
3.69209e-06
3.69173e-06
3.69134e-06
3.69096e-06
3.69063e-06
3.69037e-06
3.69018e-06
3.69005e-06
3.68999e-06
3.69001e-06
3.69009e-06
3.69025e-06
3.69047e-06
3.69076e-06
3.69111e-06
3.6915e-06
3.69188e-06
3.69197e-06
3.69161e-06
3.69121e-06
3.69083e-06
3.69051e-06
3.69024e-06
3.69005e-06
3.68992e-06
3.68986e-06
3.68988e-06
3.68997e-06
3.69012e-06
3.69035e-06
3.69064e-06
3.69098e-06
3.69138e-06
3.69176e-06
3.69191e-06
3.69155e-06
3.69116e-06
3.69078e-06
3.69045e-06
3.69019e-06
3.68999e-06
3.68986e-06
3.68981e-06
3.68982e-06
3.68991e-06
3.69007e-06
3.69029e-06
3.69058e-06
3.69092e-06
3.69132e-06
3.6917e-06
3.69193e-06
3.69157e-06
3.69117e-06
3.69079e-06
3.69046e-06
3.6902e-06
3.69001e-06
3.68988e-06
3.68982e-06
3.68984e-06
3.68993e-06
3.69008e-06
3.69031e-06
3.69059e-06
3.69094e-06
3.69134e-06
3.69172e-06
3.69201e-06
3.69165e-06
3.69126e-06
3.69088e-06
3.69055e-06
3.69029e-06
3.69009e-06
3.68997e-06
3.68991e-06
3.68992e-06
3.69001e-06
3.69017e-06
3.69039e-06
3.69068e-06
3.69103e-06
3.69142e-06
3.6918e-06
3.69216e-06
3.6918e-06
3.69141e-06
3.69103e-06
3.69071e-06
3.69045e-06
3.69025e-06
3.69012e-06
3.69007e-06
3.69008e-06
3.69017e-06
3.69033e-06
3.69055e-06
3.69084e-06
3.69118e-06
3.69157e-06
3.69195e-06
3.69236e-06
3.69201e-06
3.69163e-06
3.69125e-06
3.69093e-06
3.69067e-06
3.69047e-06
3.69035e-06
3.69029e-06
3.69031e-06
3.69039e-06
3.69055e-06
3.69077e-06
3.69106e-06
3.69139e-06
3.69179e-06
3.69215e-06
3.69262e-06
3.69227e-06
3.6919e-06
3.69153e-06
3.69121e-06
3.69095e-06
3.69076e-06
3.69064e-06
3.69058e-06
3.69059e-06
3.69068e-06
3.69084e-06
3.69106e-06
3.69134e-06
3.69167e-06
3.69205e-06
3.69241e-06
3.69292e-06
3.69259e-06
3.69222e-06
3.69186e-06
3.69155e-06
3.69129e-06
3.69111e-06
3.69098e-06
3.69092e-06
3.69094e-06
3.69103e-06
3.69118e-06
3.69139e-06
3.69167e-06
3.69199e-06
3.69236e-06
3.69271e-06
3.69325e-06
3.69292e-06
3.69258e-06
3.69223e-06
3.69194e-06
3.69169e-06
3.6915e-06
3.69138e-06
3.69133e-06
3.69134e-06
3.69143e-06
3.69157e-06
3.69179e-06
3.69205e-06
3.69236e-06
3.6927e-06
3.69304e-06
3.69361e-06
3.69325e-06
3.69293e-06
3.69259e-06
3.6923e-06
3.69206e-06
3.69188e-06
3.69176e-06
3.6917e-06
3.69172e-06
3.6918e-06
3.69195e-06
3.69215e-06
3.69241e-06
3.69272e-06
3.69304e-06
3.6934e-06
3.65274e-06
3.6526e-06
3.6525e-06
3.6524e-06
3.65231e-06
3.65222e-06
3.65215e-06
3.6521e-06
3.65207e-06
3.65207e-06
3.6521e-06
3.65215e-06
3.65222e-06
3.6523e-06
3.65239e-06
3.65246e-06
3.65258e-06
3.6526e-06
3.65245e-06
3.65234e-06
3.65222e-06
3.65212e-06
3.65201e-06
3.65193e-06
3.65188e-06
3.65185e-06
3.65185e-06
3.65188e-06
3.65194e-06
3.65203e-06
3.65212e-06
3.65222e-06
3.65232e-06
3.65244e-06
3.6525e-06
3.65234e-06
3.6522e-06
3.65207e-06
3.65194e-06
3.65183e-06
3.65174e-06
3.65167e-06
3.65165e-06
3.65165e-06
3.65169e-06
3.65175e-06
3.65185e-06
3.65196e-06
3.65208e-06
3.65221e-06
3.65234e-06
3.6524e-06
3.65222e-06
3.65207e-06
3.65191e-06
3.65177e-06
3.65164e-06
3.65154e-06
3.65148e-06
3.65145e-06
3.65145e-06
3.65149e-06
3.65157e-06
3.65167e-06
3.6518e-06
3.65194e-06
3.65209e-06
3.65224e-06
3.65231e-06
3.65212e-06
3.65194e-06
3.65177e-06
3.65161e-06
3.65148e-06
3.65137e-06
3.6513e-06
3.65127e-06
3.65128e-06
3.65132e-06
3.6514e-06
3.65151e-06
3.65165e-06
3.65181e-06
3.65198e-06
3.65216e-06
3.65222e-06
3.65201e-06
3.65183e-06
3.65164e-06
3.65148e-06
3.65133e-06
3.65122e-06
3.65115e-06
3.65112e-06
3.65112e-06
3.65117e-06
3.65126e-06
3.65138e-06
3.65153e-06
3.6517e-06
3.65188e-06
3.65207e-06
3.65215e-06
3.65193e-06
3.65174e-06
3.65154e-06
3.65137e-06
3.65122e-06
3.65111e-06
3.65104e-06
3.651e-06
3.65101e-06
3.65106e-06
3.65115e-06
3.65127e-06
3.65143e-06
3.65161e-06
3.6518e-06
3.65199e-06
3.6521e-06
3.65188e-06
3.65167e-06
3.65148e-06
3.6513e-06
3.65115e-06
3.65104e-06
3.65096e-06
3.65093e-06
3.65093e-06
3.65098e-06
3.65107e-06
3.6512e-06
3.65136e-06
3.65154e-06
3.65174e-06
3.65194e-06
3.65207e-06
3.65185e-06
3.65165e-06
3.65145e-06
3.65127e-06
3.65112e-06
3.651e-06
3.65093e-06
3.65089e-06
3.6509e-06
3.65095e-06
3.65104e-06
3.65117e-06
3.65133e-06
3.65151e-06
3.65171e-06
3.65192e-06
3.65207e-06
3.65185e-06
3.65165e-06
3.65145e-06
3.65128e-06
3.65112e-06
3.65101e-06
3.65093e-06
3.6509e-06
3.65091e-06
3.65096e-06
3.65105e-06
3.65117e-06
3.65133e-06
3.65152e-06
3.65172e-06
3.65192e-06
3.6521e-06
3.65188e-06
3.65169e-06
3.65149e-06
3.65132e-06
3.65117e-06
3.65106e-06
3.65098e-06
3.65095e-06
3.65096e-06
3.65101e-06
3.65109e-06
3.65122e-06
3.65138e-06
3.65156e-06
3.65175e-06
3.65195e-06
3.65215e-06
3.65194e-06
3.65175e-06
3.65157e-06
3.6514e-06
3.65126e-06
3.65115e-06
3.65107e-06
3.65104e-06
3.65105e-06
3.65109e-06
3.65118e-06
3.6513e-06
3.65145e-06
3.65162e-06
3.65181e-06
3.652e-06
3.65223e-06
3.65203e-06
3.65185e-06
3.65167e-06
3.65151e-06
3.65138e-06
3.65127e-06
3.6512e-06
3.65117e-06
3.65117e-06
3.65122e-06
3.6513e-06
3.65141e-06
3.65156e-06
3.65172e-06
3.65189e-06
3.65207e-06
3.6523e-06
3.65212e-06
3.65196e-06
3.6518e-06
3.65165e-06
3.65153e-06
3.65143e-06
3.65136e-06
3.65133e-06
3.65133e-06
3.65138e-06
3.65145e-06
3.65156e-06
3.65169e-06
3.65183e-06
3.65199e-06
3.65215e-06
3.65239e-06
3.65222e-06
3.65208e-06
3.65194e-06
3.65181e-06
3.6517e-06
3.65161e-06
3.65154e-06
3.65151e-06
3.65152e-06
3.65156e-06
3.65162e-06
3.65172e-06
3.65183e-06
3.65196e-06
3.65209e-06
3.65223e-06
3.65247e-06
3.65232e-06
3.65221e-06
3.65209e-06
3.65198e-06
3.65188e-06
3.6518e-06
3.65174e-06
3.65172e-06
3.65172e-06
3.65175e-06
3.65181e-06
3.65189e-06
3.65199e-06
3.65209e-06
3.65219e-06
3.6523e-06
3.65258e-06
3.65244e-06
3.65235e-06
3.65225e-06
3.65216e-06
3.65207e-06
3.652e-06
3.65195e-06
3.65192e-06
3.65192e-06
3.65195e-06
3.652e-06
3.65207e-06
3.65215e-06
3.65223e-06
3.6523e-06
3.65241e-06
3.61409e-06
3.61406e-06
3.61406e-06
3.61405e-06
3.61405e-06
3.61404e-06
3.61402e-06
3.614e-06
3.61399e-06
3.61399e-06
3.61399e-06
3.61399e-06
3.614e-06
3.61399e-06
3.61397e-06
3.61395e-06
3.61394e-06
3.61406e-06
3.61402e-06
3.61401e-06
3.61399e-06
3.61398e-06
3.61395e-06
3.61393e-06
3.61391e-06
3.6139e-06
3.6139e-06
3.6139e-06
3.61391e-06
3.61392e-06
3.61392e-06
3.61392e-06
3.61391e-06
3.61392e-06
3.61406e-06
3.61401e-06
3.61397e-06
3.61393e-06
3.6139e-06
3.61387e-06
3.61384e-06
3.61382e-06
3.6138e-06
3.6138e-06
3.61381e-06
3.61382e-06
3.61384e-06
3.61386e-06
3.61387e-06
3.61389e-06
3.61392e-06
3.61405e-06
3.61399e-06
3.61393e-06
3.61388e-06
3.61383e-06
3.61379e-06
3.61375e-06
3.61372e-06
3.6137e-06
3.6137e-06
3.61371e-06
3.61374e-06
3.61377e-06
3.6138e-06
3.61383e-06
3.61387e-06
3.61391e-06
3.61405e-06
3.61398e-06
3.6139e-06
3.61383e-06
3.61377e-06
3.61371e-06
3.61367e-06
3.61363e-06
3.61362e-06
3.61362e-06
3.61363e-06
3.61366e-06
3.6137e-06
3.61375e-06
3.6138e-06
3.61385e-06
3.61391e-06
3.61404e-06
3.61395e-06
3.61387e-06
3.61379e-06
3.61371e-06
3.61365e-06
3.6136e-06
3.61356e-06
3.61354e-06
3.61354e-06
3.61356e-06
3.61359e-06
3.61364e-06
3.6137e-06
3.61376e-06
3.61383e-06
3.6139e-06
3.61402e-06
3.61393e-06
3.61384e-06
3.61375e-06
3.61367e-06
3.6136e-06
3.61354e-06
3.6135e-06
3.61348e-06
3.61348e-06
3.6135e-06
3.61354e-06
3.61359e-06
3.61366e-06
3.61373e-06
3.61381e-06
3.61388e-06
3.614e-06
3.61391e-06
3.61382e-06
3.61372e-06
3.61363e-06
3.61356e-06
3.6135e-06
3.61346e-06
3.61344e-06
3.61344e-06
3.61346e-06
3.6135e-06
3.61356e-06
3.61363e-06
3.6137e-06
3.61379e-06
3.61387e-06
3.61399e-06
3.6139e-06
3.6138e-06
3.6137e-06
3.61362e-06
3.61354e-06
3.61348e-06
3.61344e-06
3.61342e-06
3.61342e-06
3.61344e-06
3.61348e-06
3.61354e-06
3.61361e-06
3.61369e-06
3.61378e-06
3.61386e-06
3.61399e-06
3.6139e-06
3.6138e-06
3.6137e-06
3.61362e-06
3.61354e-06
3.61348e-06
3.61344e-06
3.61342e-06
3.61342e-06
3.61344e-06
3.61348e-06
3.61354e-06
3.61361e-06
3.61369e-06
3.61377e-06
3.61385e-06
3.61399e-06
3.6139e-06
3.61381e-06
3.61371e-06
3.61363e-06
3.61356e-06
3.6135e-06
3.61346e-06
3.61344e-06
3.61344e-06
3.61346e-06
3.6135e-06
3.61356e-06
3.61362e-06
3.6137e-06
3.61377e-06
3.61385e-06
3.61399e-06
3.61391e-06
3.61382e-06
3.61374e-06
3.61366e-06
3.61359e-06
3.61354e-06
3.6135e-06
3.61348e-06
3.61348e-06
3.6135e-06
3.61354e-06
3.61359e-06
3.61365e-06
3.61371e-06
3.61378e-06
3.61386e-06
3.614e-06
3.61392e-06
3.61384e-06
3.61377e-06
3.6137e-06
3.61364e-06
3.61359e-06
3.61356e-06
3.61354e-06
3.61354e-06
3.61356e-06
3.61359e-06
3.61363e-06
3.61368e-06
3.61373e-06
3.61379e-06
3.61386e-06
3.61399e-06
3.61392e-06
3.61386e-06
3.6138e-06
3.61375e-06
3.6137e-06
3.61366e-06
3.61363e-06
3.61361e-06
3.61361e-06
3.61362e-06
3.61365e-06
3.61368e-06
3.61372e-06
3.61376e-06
3.6138e-06
3.61385e-06
3.61397e-06
3.61392e-06
3.61387e-06
3.61383e-06
3.6138e-06
3.61376e-06
3.61373e-06
3.61371e-06
3.61369e-06
3.61369e-06
3.6137e-06
3.61371e-06
3.61374e-06
3.61376e-06
3.61377e-06
3.61379e-06
3.61383e-06
3.61395e-06
3.61391e-06
3.61389e-06
3.61387e-06
3.61385e-06
3.61383e-06
3.61381e-06
3.61379e-06
3.61378e-06
3.61377e-06
3.61378e-06
3.61378e-06
3.61379e-06
3.6138e-06
3.61379e-06
3.61379e-06
3.61381e-06
3.61394e-06
3.61392e-06
3.61392e-06
3.61391e-06
3.61391e-06
3.6139e-06
3.61388e-06
3.61387e-06
3.61386e-06
3.61385e-06
3.61385e-06
3.61386e-06
3.61386e-06
3.61385e-06
3.61383e-06
3.61381e-06
3.6138e-06
3.57535e-06
3.57539e-06
3.57545e-06
3.57551e-06
3.57557e-06
3.57561e-06
3.57563e-06
3.57564e-06
3.57564e-06
3.57563e-06
3.57562e-06
3.57559e-06
3.57555e-06
3.57548e-06
3.5754e-06
3.57532e-06
3.57525e-06
3.57539e-06
3.57541e-06
3.57546e-06
3.57551e-06
3.57556e-06
3.57559e-06
3.57561e-06
3.57562e-06
3.57562e-06
3.57561e-06
3.5756e-06
3.57557e-06
3.57553e-06
3.57548e-06
3.57541e-06
3.57533e-06
3.57529e-06
3.57545e-06
3.57546e-06
3.57549e-06
3.57553e-06
3.57556e-06
3.57559e-06
3.5756e-06
3.5756e-06
3.5756e-06
3.57559e-06
3.57558e-06
3.57556e-06
3.57553e-06
3.57549e-06
3.57544e-06
3.57538e-06
3.57534e-06
3.57551e-06
3.57551e-06
3.57553e-06
3.57555e-06
3.57557e-06
3.57558e-06
3.57558e-06
3.57558e-06
3.57558e-06
3.57557e-06
3.57556e-06
3.57555e-06
3.57553e-06
3.57551e-06
3.57547e-06
3.57543e-06
3.57541e-06
3.57557e-06
3.57556e-06
3.57556e-06
3.57557e-06
3.57558e-06
3.57558e-06
3.57557e-06
3.57556e-06
3.57556e-06
3.57555e-06
3.57555e-06
3.57554e-06
3.57554e-06
3.57552e-06
3.5755e-06
3.57548e-06
3.57547e-06
3.57561e-06
3.57559e-06
3.57558e-06
3.57558e-06
3.57558e-06
3.57557e-06
3.57555e-06
3.57554e-06
3.57554e-06
3.57553e-06
3.57553e-06
3.57553e-06
3.57553e-06
3.57553e-06
3.57552e-06
3.57551e-06
3.57551e-06
3.57563e-06
3.57561e-06
3.5756e-06
3.57558e-06
3.57557e-06
3.57555e-06
3.57554e-06
3.57553e-06
3.57552e-06
3.57551e-06
3.57552e-06
3.57552e-06
3.57553e-06
3.57553e-06
3.57553e-06
3.57553e-06
3.57553e-06
3.57564e-06
3.57562e-06
3.5756e-06
3.57558e-06
3.57556e-06
3.57554e-06
3.57553e-06
3.57551e-06
3.5755e-06
3.5755e-06
3.5755e-06
3.57551e-06
3.57552e-06
3.57553e-06
3.57553e-06
3.57554e-06
3.57554e-06
3.57564e-06
3.57562e-06
3.5756e-06
3.57558e-06
3.57556e-06
3.57554e-06
3.57552e-06
3.5755e-06
3.57549e-06
3.57549e-06
3.57549e-06
3.5755e-06
3.57551e-06
3.57552e-06
3.57553e-06
3.57553e-06
3.57554e-06
3.57563e-06
3.57561e-06
3.57559e-06
3.57557e-06
3.57555e-06
3.57553e-06
3.57551e-06
3.5755e-06
3.57549e-06
3.57549e-06
3.57549e-06
3.5755e-06
3.57551e-06
3.57552e-06
3.57552e-06
3.57553e-06
3.57553e-06
3.57562e-06
3.5756e-06
3.57558e-06
3.57556e-06
3.57555e-06
3.57553e-06
3.57552e-06
3.5755e-06
3.57549e-06
3.57549e-06
3.57549e-06
3.5755e-06
3.5755e-06
3.57551e-06
3.57551e-06
3.57551e-06
3.57552e-06
3.57559e-06
3.57557e-06
3.57556e-06
3.57555e-06
3.57554e-06
3.57553e-06
3.57552e-06
3.57551e-06
3.5755e-06
3.5755e-06
3.5755e-06
3.5755e-06
3.5755e-06
3.5755e-06
3.57549e-06
3.57549e-06
3.57549e-06
3.57555e-06
3.57553e-06
3.57553e-06
3.57554e-06
3.57554e-06
3.57553e-06
3.57553e-06
3.57552e-06
3.57551e-06
3.57551e-06
3.5755e-06
3.5755e-06
3.5755e-06
3.57549e-06
3.57547e-06
3.57545e-06
3.57544e-06
3.57549e-06
3.57548e-06
3.57549e-06
3.57551e-06
3.57553e-06
3.57553e-06
3.57553e-06
3.57553e-06
3.57552e-06
3.57552e-06
3.57551e-06
3.5755e-06
3.57549e-06
3.57547e-06
3.57543e-06
3.5754e-06
3.57538e-06
3.5754e-06
3.57541e-06
3.57544e-06
3.57547e-06
3.5755e-06
3.57552e-06
3.57553e-06
3.57553e-06
3.57553e-06
3.57552e-06
3.57551e-06
3.5755e-06
3.57547e-06
3.57543e-06
3.57538e-06
3.57533e-06
3.5753e-06
3.57532e-06
3.57533e-06
3.57538e-06
3.57543e-06
3.57548e-06
3.57551e-06
3.57553e-06
3.57554e-06
3.57554e-06
3.57553e-06
3.57551e-06
3.57549e-06
3.57545e-06
3.5754e-06
3.57533e-06
3.57526e-06
3.57521e-06
3.57525e-06
3.57529e-06
3.57534e-06
3.57541e-06
3.57547e-06
3.57551e-06
3.57553e-06
3.57554e-06
3.57554e-06
3.57554e-06
3.57552e-06
3.57549e-06
3.57544e-06
3.57538e-06
3.5753e-06
3.57521e-06
3.57515e-06
3.5371e-06
3.53715e-06
3.53722e-06
3.5373e-06
3.53737e-06
3.53742e-06
3.53745e-06
3.53747e-06
3.53747e-06
3.53746e-06
3.53744e-06
3.5374e-06
3.53735e-06
3.53728e-06
3.53719e-06
3.5371e-06
3.53702e-06
3.53715e-06
3.53719e-06
3.53726e-06
3.53733e-06
3.53739e-06
3.53744e-06
3.53747e-06
3.53749e-06
3.53749e-06
3.53748e-06
3.53746e-06
3.53742e-06
3.53737e-06
3.53731e-06
3.53722e-06
3.53714e-06
3.53707e-06
3.53722e-06
3.53726e-06
3.53731e-06
3.53737e-06
3.53742e-06
3.53746e-06
3.53749e-06
3.5375e-06
3.53751e-06
3.5375e-06
3.53748e-06
3.53745e-06
3.5374e-06
3.53735e-06
3.53727e-06
3.53719e-06
3.53714e-06
3.5373e-06
3.53733e-06
3.53737e-06
3.53742e-06
3.53746e-06
3.53749e-06
3.53751e-06
3.53752e-06
3.53752e-06
3.53752e-06
3.5375e-06
3.53748e-06
3.53744e-06
3.53739e-06
3.53733e-06
3.53726e-06
3.53721e-06
3.53737e-06
3.53739e-06
3.53742e-06
3.53746e-06
3.5375e-06
3.53752e-06
3.53753e-06
3.53754e-06
3.53754e-06
3.53753e-06
3.53752e-06
3.5375e-06
3.53747e-06
3.53743e-06
3.53738e-06
3.53733e-06
3.53729e-06
3.53742e-06
3.53744e-06
3.53746e-06
3.53749e-06
3.53752e-06
3.53754e-06
3.53754e-06
3.53755e-06
3.53755e-06
3.53754e-06
3.53753e-06
3.53751e-06
3.53749e-06
3.53746e-06
3.53742e-06
3.53737e-06
3.53734e-06
3.53745e-06
3.53747e-06
3.53749e-06
3.53751e-06
3.53753e-06
3.53754e-06
3.53755e-06
3.53755e-06
3.53755e-06
3.53754e-06
3.53754e-06
3.53752e-06
3.5375e-06
3.53748e-06
3.53744e-06
3.5374e-06
3.53737e-06
3.53747e-06
3.53749e-06
3.5375e-06
3.53752e-06
3.53754e-06
3.53755e-06
3.53755e-06
3.53755e-06
3.53755e-06
3.53754e-06
3.53754e-06
3.53753e-06
3.53751e-06
3.53749e-06
3.53746e-06
3.53742e-06
3.53739e-06
3.53747e-06
3.53749e-06
3.53751e-06
3.53752e-06
3.53754e-06
3.53755e-06
3.53755e-06
3.53755e-06
3.53755e-06
3.53754e-06
3.53753e-06
3.53752e-06
3.53751e-06
3.53749e-06
3.53746e-06
3.53743e-06
3.53739e-06
3.53746e-06
3.53748e-06
3.5375e-06
3.53752e-06
3.53753e-06
3.53754e-06
3.53754e-06
3.53754e-06
3.53754e-06
3.53754e-06
3.53753e-06
3.53752e-06
3.5375e-06
3.53748e-06
3.53745e-06
3.53742e-06
3.53739e-06
3.53744e-06
3.53746e-06
3.53748e-06
3.5375e-06
3.53752e-06
3.53753e-06
3.53754e-06
3.53754e-06
3.53753e-06
3.53753e-06
3.53752e-06
3.53751e-06
3.53749e-06
3.53747e-06
3.53743e-06
3.53739e-06
3.53736e-06
3.5374e-06
3.53742e-06
3.53745e-06
3.53748e-06
3.5375e-06
3.53751e-06
3.53752e-06
3.53753e-06
3.53752e-06
3.53752e-06
3.53751e-06
3.53749e-06
3.53747e-06
3.53744e-06
3.5374e-06
3.53736e-06
3.53733e-06
3.53735e-06
3.53737e-06
3.53741e-06
3.53744e-06
3.53747e-06
3.53749e-06
3.5375e-06
3.53751e-06
3.53751e-06
3.5375e-06
3.53749e-06
3.53747e-06
3.53745e-06
3.53741e-06
3.53736e-06
3.53731e-06
3.53727e-06
3.53728e-06
3.53731e-06
3.53735e-06
3.53739e-06
3.53743e-06
3.53746e-06
3.53748e-06
3.53749e-06
3.53749e-06
3.53748e-06
3.53747e-06
3.53744e-06
3.53741e-06
3.53736e-06
3.53731e-06
3.53724e-06
3.5372e-06
3.53719e-06
3.53722e-06
3.53727e-06
3.53733e-06
3.53738e-06
3.53742e-06
3.53744e-06
3.53746e-06
3.53746e-06
3.53745e-06
3.53743e-06
3.5374e-06
3.53736e-06
3.53731e-06
3.53724e-06
3.53716e-06
3.53711e-06
3.5371e-06
3.53714e-06
3.5372e-06
3.53726e-06
3.53733e-06
3.53737e-06
3.53741e-06
3.53742e-06
3.53743e-06
3.53742e-06
3.5374e-06
3.53736e-06
3.53731e-06
3.53724e-06
3.53716e-06
3.53708e-06
3.53702e-06
3.53702e-06
3.53707e-06
3.53714e-06
3.53722e-06
3.53729e-06
3.53734e-06
3.53737e-06
3.53739e-06
3.5374e-06
3.53739e-06
3.53736e-06
3.53733e-06
3.53727e-06
3.5372e-06
3.53711e-06
3.53702e-06
3.53694e-06
3.49908e-06
3.49914e-06
3.4992e-06
3.49927e-06
3.49934e-06
3.49939e-06
3.49942e-06
3.49944e-06
3.49945e-06
3.49944e-06
3.49942e-06
3.49938e-06
3.49933e-06
3.49926e-06
3.49918e-06
3.4991e-06
3.49903e-06
3.49914e-06
3.49918e-06
3.49924e-06
3.49931e-06
3.49937e-06
3.49942e-06
3.49946e-06
3.49948e-06
3.49948e-06
3.49947e-06
3.49945e-06
3.49942e-06
3.49937e-06
3.4993e-06
3.49922e-06
3.49914e-06
3.49908e-06
3.4992e-06
3.49924e-06
3.4993e-06
3.49936e-06
3.49942e-06
3.49946e-06
3.49949e-06
3.49951e-06
3.49951e-06
3.49951e-06
3.49949e-06
3.49945e-06
3.49941e-06
3.49935e-06
3.49927e-06
3.4992e-06
3.49914e-06
3.49927e-06
3.49931e-06
3.49936e-06
3.49942e-06
3.49947e-06
3.4995e-06
3.49953e-06
3.49954e-06
3.49955e-06
3.49954e-06
3.49952e-06
3.49949e-06
3.49945e-06
3.4994e-06
3.49933e-06
3.49926e-06
3.49921e-06
3.49934e-06
3.49937e-06
3.49942e-06
3.49947e-06
3.49951e-06
3.49954e-06
3.49956e-06
3.49958e-06
3.49958e-06
3.49957e-06
3.49955e-06
3.49953e-06
3.49949e-06
3.49945e-06
3.49939e-06
3.49933e-06
3.49928e-06
3.49939e-06
3.49942e-06
3.49946e-06
3.4995e-06
3.49954e-06
3.49957e-06
3.49959e-06
3.4996e-06
3.4996e-06
3.49959e-06
3.49958e-06
3.49956e-06
3.49952e-06
3.49948e-06
3.49943e-06
3.49938e-06
3.49933e-06
3.49942e-06
3.49946e-06
3.49949e-06
3.49953e-06
3.49956e-06
3.49959e-06
3.4996e-06
3.49961e-06
3.49961e-06
3.49961e-06
3.49959e-06
3.49957e-06
3.49955e-06
3.49951e-06
3.49946e-06
3.49941e-06
3.49936e-06
3.49944e-06
3.49948e-06
3.49951e-06
3.49954e-06
3.49958e-06
3.4996e-06
3.49961e-06
3.49962e-06
3.49962e-06
3.49961e-06
3.4996e-06
3.49958e-06
3.49956e-06
3.49952e-06
3.49948e-06
3.49943e-06
3.49938e-06
3.49945e-06
3.49948e-06
3.49951e-06
3.49955e-06
3.49958e-06
3.4996e-06
3.49961e-06
3.49962e-06
3.49962e-06
3.49961e-06
3.4996e-06
3.49958e-06
3.49956e-06
3.49952e-06
3.49948e-06
3.49943e-06
3.49939e-06
3.49944e-06
3.49947e-06
3.49951e-06
3.49954e-06
3.49957e-06
3.49959e-06
3.49961e-06
3.49961e-06
3.49961e-06
3.49961e-06
3.4996e-06
3.49958e-06
3.49955e-06
3.49952e-06
3.49947e-06
3.49942e-06
3.49938e-06
3.49942e-06
3.49945e-06
3.49949e-06
3.49952e-06
3.49956e-06
3.49958e-06
3.49959e-06
3.4996e-06
3.4996e-06
3.4996e-06
3.49958e-06
3.49956e-06
3.49954e-06
3.4995e-06
3.49945e-06
3.4994e-06
3.49936e-06
3.49938e-06
3.49942e-06
3.49945e-06
3.49949e-06
3.49953e-06
3.49956e-06
3.49957e-06
3.49958e-06
3.49958e-06
3.49958e-06
3.49956e-06
3.49954e-06
3.49951e-06
3.49947e-06
3.49942e-06
3.49937e-06
3.49932e-06
3.49933e-06
3.49937e-06
3.49941e-06
3.49945e-06
3.49949e-06
3.49953e-06
3.49955e-06
3.49956e-06
3.49956e-06
3.49955e-06
3.49954e-06
3.49951e-06
3.49948e-06
3.49943e-06
3.49938e-06
3.49932e-06
3.49927e-06
3.49926e-06
3.4993e-06
3.49935e-06
3.4994e-06
3.49945e-06
3.49948e-06
3.49951e-06
3.49952e-06
3.49952e-06
3.49952e-06
3.4995e-06
3.49947e-06
3.49943e-06
3.49938e-06
3.49932e-06
3.49925e-06
3.4992e-06
3.49918e-06
3.49922e-06
3.49928e-06
3.49933e-06
3.49939e-06
3.49943e-06
3.49946e-06
3.49948e-06
3.49948e-06
3.49947e-06
3.49945e-06
3.49942e-06
3.49938e-06
3.49932e-06
3.49925e-06
3.49918e-06
3.49912e-06
3.4991e-06
3.49914e-06
3.4992e-06
3.49927e-06
3.49933e-06
3.49938e-06
3.49941e-06
3.49943e-06
3.49943e-06
3.49943e-06
3.4994e-06
3.49937e-06
3.49932e-06
3.49925e-06
3.49918e-06
3.4991e-06
3.49904e-06
3.49903e-06
3.49908e-06
3.49914e-06
3.49921e-06
3.49928e-06
3.49933e-06
3.49936e-06
3.49938e-06
3.49939e-06
3.49938e-06
3.49936e-06
3.49932e-06
3.49927e-06
3.4992e-06
3.49912e-06
3.49904e-06
3.49897e-06
3.46125e-06
3.46129e-06
3.46135e-06
3.4614e-06
3.46146e-06
3.4615e-06
3.46153e-06
3.46155e-06
3.46155e-06
3.46154e-06
3.46153e-06
3.46149e-06
3.46145e-06
3.4614e-06
3.46133e-06
3.46126e-06
3.46121e-06
3.46129e-06
3.46134e-06
3.46139e-06
3.46144e-06
3.4615e-06
3.46154e-06
3.46157e-06
3.46158e-06
3.46159e-06
3.46158e-06
3.46156e-06
3.46153e-06
3.46149e-06
3.46143e-06
3.46137e-06
3.4613e-06
3.46125e-06
3.46135e-06
3.46139e-06
3.46144e-06
3.46149e-06
3.46154e-06
3.46158e-06
3.4616e-06
3.46162e-06
3.46162e-06
3.46162e-06
3.4616e-06
3.46157e-06
3.46153e-06
3.46148e-06
3.46142e-06
3.46135e-06
3.4613e-06
3.4614e-06
3.46144e-06
3.46149e-06
3.46154e-06
3.46158e-06
3.46162e-06
3.46164e-06
3.46166e-06
3.46166e-06
3.46165e-06
3.46164e-06
3.46161e-06
3.46157e-06
3.46153e-06
3.46147e-06
3.46141e-06
3.46136e-06
3.46146e-06
3.4615e-06
3.46154e-06
3.46158e-06
3.46162e-06
3.46166e-06
3.46168e-06
3.46169e-06
3.46169e-06
3.46169e-06
3.46167e-06
3.46165e-06
3.46161e-06
3.46157e-06
3.46152e-06
3.46146e-06
3.46141e-06
3.4615e-06
3.46154e-06
3.46158e-06
3.46162e-06
3.46166e-06
3.46168e-06
3.4617e-06
3.46172e-06
3.46172e-06
3.46171e-06
3.4617e-06
3.46167e-06
3.46164e-06
3.4616e-06
3.46155e-06
3.4615e-06
3.46145e-06
3.46153e-06
3.46157e-06
3.4616e-06
3.46164e-06
3.46168e-06
3.4617e-06
3.46172e-06
3.46173e-06
3.46173e-06
3.46173e-06
3.46172e-06
3.46169e-06
3.46166e-06
3.46163e-06
3.46158e-06
3.46153e-06
3.46148e-06
3.46155e-06
3.46158e-06
3.46162e-06
3.46166e-06
3.46169e-06
3.46172e-06
3.46173e-06
3.46174e-06
3.46174e-06
3.46174e-06
3.46173e-06
3.4617e-06
3.46168e-06
3.46164e-06
3.46159e-06
3.46155e-06
3.4615e-06
3.46155e-06
3.46159e-06
3.46162e-06
3.46166e-06
3.46169e-06
3.46172e-06
3.46173e-06
3.46174e-06
3.46175e-06
3.46174e-06
3.46173e-06
3.46171e-06
3.46168e-06
3.46164e-06
3.4616e-06
3.46155e-06
3.4615e-06
3.46154e-06