/*--------------------------------*- C++ -*----------------------------------*\
  =========                 |
  \\      /  F ield         | OpenFOAM: The Open Source CFD Toolbox
   \\    /   O peration     | Website:  https://openfoam.org
    \\  /    A nd           | Version:  6
     \\/     M anipulation  |
\*---------------------------------------------------------------------------*/
FoamFile
{
    version     2.0;
    format      ascii;
    class       volVectorField;
    location    "0";
    object      U;
}
// * * * * * * * * * * * * * * * * * * * * * * * * * * * * * * * * * * * * * //

dimensions      [0 1 -1 0 0 0 0];

internalField   nonuniform List<vector> 
918
(
(0.985651 0.00381293 0)
(-0.0040022 2.9674 0)
(-0.00726346 1.59944 0)
(0.9807 -0.00203727 0)
(-0.00915718 1.56625 1.4267e-21)
(0.00135615 2.95101 -1.39157e-18)
(0.852048 1.17718 4.97965e-19)
(0.442842 0.181051 -5.6183e-21)
(0.999912 -0.000298174 0)
(0.054241 0.732544 0)
(-0.0189736 1.18665 0)
(0.777844 -0.00857246 0)
(0.00899515 2.93475 0)
(0.00409504 2.79741 0)
(-0.00104632 3.20121 7.97071e-19)
(-0.00649453 1.47006 -6.83125e-21)
(0.558307 0.0744146 3.53539e-19)
(0.212264 1.12342 4.43304e-19)
(0.965456 0.00385997 0)
(-0.00330401 1.33732 0)
(0.200221 0.250636 -3.0365e-19)
(1.00191 -0.00491639 0)
(1.00172 -0.00830532 0)
(0.977587 -0.00475527 0)
(0.69522 -0.0261806 0)
(0.0305732 2.63733 0)
(-0.0105472 2.91564 4.6425e-19)
(-0.0249777 1.62069 0)
(-0.0263028 1.74607 0)
(-0.0279351 1.61599 0)
(-0.00844959 1.8336 0)
(-0.000702235 1.5893 -1.11641e-21)
(-0.010885 1.47633 0)
(-0.0197502 2.98961 -4.87942e-23)
(-0.0137429 3.00794 1.09518e-18)
(0.00163002 2.9997 0)
(0.87598 -0.00678164 0)
(0.375345 0.922076 -2.67454e-20)
(0.85678 1.19105 -7.2718e-19)
(0.993754 1.0432 6.67555e-19)
(0.717398 1.27374 -1.14828e-19)
(0.727093 1.25002 6.5152e-19)
(0.481235 0.26968 5.4796e-21)
(0.47193 0.159356 0)
(1.17935 0.53367 0)
(0.446655 0.296022 2.56305e-20)
(0.399246 0.202444 -2.66055e-20)
(0.922904 -0.00623098 0)
(1.00031 4.85155e-05 0)
(0.999896 0.000335638 0)
(1.00327 -0.00758398 0)
(1.00089 -0.00104356 0)
(1.00018 -1.26028e-06 0)
(0.000298927 1.74695 -2.10758e-19)
(0.0655763 0.862104 0)
(0.112441 0.812913 0)
(0.00328512 0.821332 0)
(0.00448813 0.728839 0)
(0.0272506 1.55511 0)
(-0.0335327 1.29868 0)
(-0.0410227 1.10768 0)
(-0.0193306 1.38696 0)
(-0.0124465 1.23553 0)
(0.856891 -0.0012909 0)
(0.872003 0.0128126 0)
(0.790756 -0.00474317 0)
(0.865019 0.0170135 0)
(0.75912 -0.0101023 0)
(0.0136806 3.00362 5.01856e-19)
(0.0114821 3.00451 0)
(0.00734283 3.00383 0)
(0.0106653 2.99821 5.60576e-24)
(0.00615123 2.96197 -7.5515e-19)
(0.0117733 2.98447 0)
(0.00845955 2.90905 0)
(0.0217747 2.93269 1.01917e-24)
(0.00459007 2.82785 0)
(0.0274548 2.91964 0)
(-0.000657267 2.74689 0)
(0.312677 3.60712 0)
(-0.127895 3.68972 0)
(0.151243 3.29286 -7.38628e-19)
(0.00637576 3.02261 0)
(-0.015501 1.81216 0)
(0.00237427 1.61876 6.7378e-21)
(-0.00368182 1.47574 -9.30934e-21)
(0.609274 0.138833 -1.21419e-19)
(0.562693 0.0332543 -1.16379e-19)
(0.596965 0.179581 -3.66337e-19)
(0.539319 0.107079 -2.44991e-19)
(0.25746 0.922666 0)
(0.311235 1.27508 -4.3633e-19)
(0.375013 1.26746 7.20932e-19)
(0.989068 0.00633425 0)
(0.945377 0.00479802 0)
(0.999816 0.000752921 0)
(1.00381 0.00759404 0)
(1.00349 0.00861484 -6.29668e-19)
(0.992854 0.00737103 4.82004e-19)
(-0.0183531 1.4966 0)
(-0.00558748 1.32178 0)
(-0.0316219 1.62313 0)
(-0.0247229 1.53477 0)
(-0.0042132 1.38008 0)
(0.219519 0.271649 9.33528e-20)
(0.272892 0.242435 0)
(0.994791 -0.0061463 0)
(0.956467 -0.00556591 0)
(0.835918 0.0253495 0)
(0.801077 0.0353379 0)
(0.73326 -0.0190929 0)
(1.01191 2.30034e-05 0)
(0.753086 0.0465451 0)
(0.6157 -0.0177363 4.56747e-19)
(-0.0344386 2.86816 2.68738e-19)
(0.0352616 2.91411 0)
(0.0450824 2.89004 0)
(0.00563853 2.70062 0)
(-0.00810842 2.9877 4.32452e-19)
(-0.0126269 2.89883 0)
(-0.00987078 2.99281 -1.35754e-18)
(-0.00918625 2.93255 4.67269e-19)
(-0.021447 1.81616 0)
(-0.0164746 1.8119 0)
(6.17978e-05 1.61912 -1.03823e-22)
(0.0005992 1.59045 0)
(-0.0104058 1.47725 0)
(0.936905 -0.00317302 0)
(0.86018 -0.00787766 0)
(0.871371 0.00794292 0)
(0.950111 -0.00408744 0)
(0.888489 -0.00548862 0)
(0.50463 1.12047 2.56307e-20)
(0.551512 1.19149 0)
(0.334065 0.85179 2.56333e-21)
(0.274774 0.7181 0)
(0.953854 1.07545 -1.94664e-19)
(1.06956 0.868606 3.93702e-19)
(0.475612 1.3585 0)
(0.570836 1.34219 0)
(0.588506 1.25966 0)
(0.0909895 0.13216 -7.56701e-20)
(0.507941 0.248664 0)
(0.489829 0.154687 6.9828e-20)
(1.03211 0.922424 0)
(1.09833 0.76043 0)
(1.12855 0.695314 -3.42623e-19)
(1.15873 0.598986 0)
(1.21495 0.387299 3.24048e-20)
(0.957611 -0.00518377 0)
(0.963319 -0.00719171 0)
(0.902679 -0.00598173 0)
(0.985109 -0.00669482 0)
(0.976524 -0.00693273 0)
(0.939332 -0.00502817 0)
(0.999844 0.00209187 0)
(1.00084 0.00123478 0)
(0.999938 0.000736191 0)
(-0.0493494 1.9992 1.16447e-19)
(0.134062 1.69561 0)
(-0.0350549 1.96967 1.58648e-19)
(0.0282861 1.7554 -8.51183e-20)
(0.114043 1.12492 -3.67881e-19)
(0.0803061 1.00248 0)
(0.152616 0.950173 0)
(-0.0505782 0.886864 0)
(-0.0489549 0.831252 0)
(0.0567198 1.7205 -1.87242e-22)
(0.00440745 1.53772 0)
(0.0280178 1.72434 6.57392e-21)
(-0.00235314 1.55524 -1.2984e-21)
(-0.0568898 1.02874 0)
(-0.0534902 1.17939 0)
(-0.041609 0.979205 0)
(-0.0149823 1.44508 0)
(-0.00848134 1.26758 0)
(0.944028 0.0164175 0)
(0.881987 0.00192046 0)
(0.925757 0.00941573 0)
(0.849721 -0.00353322 0)
(0.817988 0.00366502 0)
(0.906701 0.0128352 0)
(0.88957 0.00905896 0)
(0.79723 -0.00124847 0)
(0.00846743 3.06508 -4.27997e-21)
(0.0137903 3.05724 0)
(0.0121048 2.97252 0)
(0.00731921 2.88117 0)
(0.91518 4.01588 0)
(1.21985 3.39331 7.5937e-19)
(0.080948 3.10512 0)
(-0.0141254 2.92799 0)
(-0.0197099 1.80209 0)
(-0.0200338 1.80686 0)
(-0.0177145 1.80327 0)
(-0.0106592 1.82204 2.25083e-21)
(-0.0145876 1.82062 0)
(-0.0121609 1.81868 0)
(-0.00751961 1.49753 -2.45682e-21)
(-0.00124808 1.66309 7.00217e-21)
(0.00241297 1.63531 9.52573e-21)
(-0.00649788 1.47656 0)
(0.625599 0.107206 1.789e-19)
(0.558817 0.00821069 -1.74312e-19)
(0.238344 1.52101 0)
(0.303275 0.654618 -1.44979e-19)
(0.201153 1.62162 -5.09045e-19)
(0.244106 1.14924 5.08762e-19)
(0.906515 0.00752421 0)
(0.968731 0.0101401 0)
(0.976335 0.00891509 0)
(0.926597 0.00705748 0)
(-0.0143631 1.47803 0)
(-0.0156289 1.48583 0)
(-0.00501723 1.28965 0)
(0.392215 0.30178 2.35862e-19)
(0.344679 0.277509 -2.86907e-19)
(0.355059 0.225177 0)
(1.13291 0.086727 -4.88783e-21)
(1.11987 0.0416135 0)
(1.04389 0.0414299 0)
(0.94801 0.00940857 0)
(0.643775 0.0793433 0)
(0.686593 0.0582395 -7.4185e-19)
(0.566942 -0.0115229 2.88449e-19)
(0.0110939 2.98126 3.27021e-19)
(-0.0286483 2.86678 3.17271e-20)
(0.00693021 3.05001 -9.23444e-21)
(0.0155351 3.04129 3.5205e-19)
(-0.00951076 3.00006 1.55789e-20)
(-0.00889932 2.9541 -6.36096e-23)
(-0.0150739 3.01278 -2.97931e-19)
(0.0127475 3.02365 2.10612e-19)
(0.00617459 3.03196 -3.37735e-19)
(0.928003 0.00370075 0)
(0.934339 -0.000642865 0)
(0.850201 -0.00613621 0)
(0.958354 0.0112871 0)
(0.94485 0.0117656 0)
(0.887367 0.00964679 0)
(0.923511 0.0136053 0)
(0.932171 0.0120102 0)
(0.848495 0.00832375 0)
(0.691632 1.42603 2.14643e-19)
(0.711509 1.53904 0)
(0.188191 0.383261 1.57627e-20)
(0.158273 0.553742 1.25116e-19)
(0.239453 0.670972 -7.24425e-20)
(0.202879 0.560807 1.31061e-19)
(0.284941 0.686854 4.42487e-19)
(0.114389 0.163739 1.37821e-19)
(0.560783 0.217905 2.64635e-19)
(0.535367 0.235904 6.45408e-20)
(0.508991 0.134835 1.32157e-19)
(1.20593 0.446462 2.22505e-19)
(1.22966 0.245249 2.33077e-19)
(-0.00683794 1.9187 2.39523e-20)
(-0.00963571 1.66752 0)
(0.992401 0.0320682 0)
(0.957385 0.0215928 0)
(0.906598 0.00114671 0)
(0.0115361 3.07296 0)
(0.0173615 2.94637 5.93321e-19)
(0.0139381 2.95925 0)
(0.005816 2.85412 -5.90168e-19)
(0.00833095 3.08923 1.39939e-19)
(0.0101912 3.08026 0)
(0.731114 1.83413 -1.7106e-19)
(1.26422 2.62682 5.66918e-19)
(0.711437 2.00566 -1.14146e-18)
(0.0230493 2.98441 -2.48923e-19)
(0.0415217 3.01033 0)
(-0.0322493 2.88695 0)
(0.0144246 1.69253 3.523e-21)
(0.000305238 1.69431 -9.81318e-21)
(0.000314722 1.52939 -3.5662e-21)
(0.261339 1.3004 4.65683e-19)
(0.26214 0.435726 -3.18991e-19)
(0.00988805 1.9426 3.02951e-19)
(0.117267 1.82398 -3.88058e-19)
(0.203896 1.51085 6.2901e-20)
(0.00693967 3.11764 -7.62595e-19)
(0.0134349 3.11833 8.5166e-19)
(-0.00443392 2.98198 3.85852e-19)
(-0.00132185 2.97782 -3.50703e-19)
(-0.0154959 2.88199 -3.93107e-19)
(0.0121521 3.09707 -1.02793e-18)
(0.00471468 3.10248 1.04115e-18)
(0.190852 0.578413 0)
(0.137976 0.544148 -2.49481e-19)
(0.0897722 0.181161 1.10607e-19)
(0.308877 0.79065 4.2037e-19)
(0.173918 0.206293 -6.40339e-19)
(1.2183 0.16971 -5.02334e-20)
(1.22759 0.302284 0)
(1.21394 0.114002 9.387e-20)
(0.0388577 1.74864 7.84461e-22)
(-0.00779696 1.81097 0)
(0.0133596 1.59472 0)
(0.30139 1.20282 -1.63472e-19)
(0.325003 1.01816 -3.42503e-19)
(0.216996 0.31408 5.90152e-19)
(1.00568 -0.0104223 0)
(1.00685 -0.00716906 1.16031e-19)
(-0.0226561 1.8047 0)
(-0.0323463 1.81336 0)
(1.00144 0.00327078 1.17609e-21)
(1.00334 0.00887657 2.36056e-19)
(-0.0106823 1.82572 -3.00492e-21)
(-0.00888704 1.82436 0)
(0.0476853 3.17886 1.25728e-19)
(0.383493 3.55303 0)
(1.08367 0.684212 4.77373e-20)
(1.01215 0.0122217 -1.43824e-21)
(1.02033 -0.00949891 0)
(1.00157 3.94678e-05 2.75204e-24)
(0.104086 1.12039 0)
(0.168091 2.68967 0)
(-0.172845 1.52591 0)
(-0.140524 2.18222 2.2974e-20)
(-0.0756035 1.96549 3.58752e-20)
(1.00647 0.0160411 2.02217e-21)
(1.04572 0.0119548 0)
(1.07411 0.0277124 0)
(-0.0216224 1.81058 0)
(-0.0108214 1.84542 0)
(-0.0258339 1.79433 0)
(0.299051 1.45082 -2.96225e-19)
(1.01008 -0.00892795 0)
(1.00904 -0.0148334 0)
(1.00223 0.000355749 1.45981e-19)
(1.00534 -0.00512926 -1.74888e-19)
(1.00121 -0.0010184 0)
(-0.0248061 1.80577 0)
(-0.0238669 1.80172 0)
(-0.0232928 1.80443 0)
(-0.0266038 1.79412 0)
(-0.029055 1.79261 0)
(-0.029381 1.79518 0)
(1.02692 -0.0126944 0)
(1.0181 0.0113704 -6.19332e-22)
(0.763682 1.30511 3.66185e-19)
(1.00306 0.000279052 -1.46657e-19)
(1.00322 0.00490805 1.76998e-19)
(1.00126 0.00205194 0)
(1.01232 0.0100707 1.42415e-19)
(1.0072 0.00851642 -1.78487e-19)
(1.00864 0.0131861 0)
(-0.00981302 1.84467 0)
(-0.00854613 1.8344 5.97887e-21)
(-0.00585108 1.83375 -4.1786e-21)
(1.19234 0.262945 -9.47394e-20)
(1.12691 0.0948787 0)
(0.0581085 3.08607 -3.97867e-19)
(0.0524321 2.86551 -3.02958e-20)
(0.121249 3.20441 5.13672e-19)
(0.129851 3.22095 -4.51962e-20)
(0.150944 3.2635 0)
(0.0242175 3.13729 9.76609e-20)
(0.0714627 3.16163 3.91223e-19)
(0.0692223 3.18363 -1.86795e-19)
(0.0305007 3.12513 0)
(0.661083 0.336833 0)
(0.632516 0.376734 0)
(1.07663 0.708206 -1.77873e-19)
(1.03688 0.856164 2.72186e-19)
(1.13468 0.603537 0)
(1.16189 0.538061 0)
(1.01498 0.0127482 -2.63962e-19)
(1.01373 0.0133676 3.29708e-19)
(1.02445 -0.00849799 0)
(1.02273 -0.0113751 0)
(1.00715 0.00284747 0)
(1.00945 0.00292454 0)
(1.00409 0.00187465 0)
(1.00825 0.00641888 0)
(1.00783 0.00539387 0)
(1.00383 0.00482152 0)
(0.113419 1.12586 0)
(0.0108374 0.934146 0)
(0.230762 1.18588 0)
(0.152344 1.22529 0)
(0.159737 2.66959 0)
(0.219062 2.67895 -1.39413e-19)
(0.0778107 2.7786 0)
(0.0308786 2.74272 -1.15562e-20)
(-0.184347 2.60052 8.40592e-20)
(-0.136251 1.55578 0)
(-0.110727 1.59902 0)
(-0.204252 1.46541 0)
(-0.189117 1.35489 0)
(-0.363057 2.02572 3.35994e-20)
(-0.106839 2.02843 2.39326e-20)
(-0.129151 2.17024 2.08527e-20)
(-0.077236 2.08898 0)
(-0.07087 1.96345 -7.12121e-20)
(-0.0545639 1.93855 -1.98384e-20)
(-0.358419 1.99717 -3.68038e-20)
(-0.17929 1.98224 -3.09466e-20)
(-0.200861 2.08597 -2.67288e-20)
(1.01655 0.0244091 2.58516e-19)
(1.01562 0.0110405 -3.16972e-19)
(1.00746 0.0254453 -2.70751e-19)
(0.991752 0.0145586 3.46057e-19)
(1.04544 0.0135656 0)
(1.03097 -0.00512636 0)
(1.06885 0.0392711 0)
(1.05364 0.0227909 0)
(1.05613 0.0150887 0)
(1.1057 0.0763971 0)
(1.08286 0.0505265 0)
(1.09605 0.0422352 0)
(-0.0135159 1.82804 -7.63394e-22)
(-0.0214021 1.82116 0)
(-0.01701 1.82158 0)
(-0.0190263 1.85964 7.80414e-21)
(-0.0194867 1.8632 -2.74937e-22)
(-0.0300519 1.81482 6.50284e-21)
(-0.029147 1.80972 -6.54921e-21)
(-0.0302629 1.80146 0)
(-0.0292332 1.804 0)
(-0.0296169 1.80356 0)
(-0.0294178 1.78803 0)
(-0.0203488 1.76908 0)
(0.366077 1.4847 5.68851e-19)
(0.372628 1.48479 2.26811e-19)
(0.589907 2.42429 -1.09329e-19)
(0.388791 2.52167 2.93834e-19)
(0.346796 2.0769 -1.73916e-20)
(1.02011 -0.00812564 0)
(1.0135 -0.00938261 0)
(1.0153 -0.0148039 0)
(1.00747 -0.000885147 0)
(1.00417 -0.00116162 0)
(1.00639 -0.00378208 0)
(1.00979 -0.00389802 0)
(1.01261 -0.00521477 0)
(1.02082 0.0139376 2.52715e-19)
(1.01438 0.0108402 -3.20392e-19)
(1.02154 0.0170735 -2.5402e-19)
(1.01607 0.0168332 3.17694e-19)
(0.735726 1.34155 0)
(0.654551 1.38971 4.13434e-19)
(0.838682 1.21802 2.45129e-19)
(0.852437 1.20454 -3.25223e-19)
(1.15834 2.62778 -3.74723e-19)
(0.836486 0.124353 1.80974e-19)
(1.13324 0.10295 0)
(1.16905 0.183073 7.74363e-20)
(1.15313 0.159894 3.56227e-21)
(0.980146 0.123741 0)
(0.108588 3.02553 -4.77213e-20)
(0.107158 2.90161 -4.65928e-19)
(0.0492169 2.34496 3.12892e-19)
(0.175962 0.0543803 -1.38817e-19)
(0.352382 3.45886 -3.19807e-19)
(0.20142 3.34797 0)
(0.232689 3.4064 4.16385e-19)
(0.243378 3.08576 -1.5643e-19)
(0.28011 3.21005 0)
(0.00914266 3.11922 2.11925e-20)
(0.0201617 3.12838 -2.60727e-19)
(0.0188918 3.12422 3.8303e-19)
(0.0379673 3.13732 0)
(0.0357154 3.14953 0)
(1.25538 2.60453 0)
(0.490297 0.840309 -1.43715e-19)
(0.964377 1.04271 -1.40292e-19)
(0.946831 1.06475 0)
(0.797556 0.946706 4.01834e-20)
(1.02878 0.893896 2.01458e-20)
(0.443825 0.448487 -3.43899e-19)
(0.705077 0.329512 -1.55973e-20)
(0.693017 0.281677 1.38704e-19)
(0.639939 0.401983 1.10123e-20)
(0.579598 0.403706 -4.55539e-19)
(0.679297 0.353602 0)
(0.710645 0.419604 2.31634e-19)
(0.707243 0.418486 0)
(0.6664 0.372327 0)
(0.640999 0.339221 0)
(0.729632 0.606678 7.19033e-20)
(1.19479 0.283228 7.40473e-20)
(1.16928 0.418246 0)
(1.18616 0.388895 0)
(0.766484 0.210744 2.1046e-19)
(0.80107 0.51322 -1.14362e-19)
(0.738722 0.480405 1.85876e-19)
(0.909429 0.417845 -1.61232e-19)
(1.01839 0.0122152 1.72258e-19)
(1.01626 0.0131114 -1.76121e-19)
(1.0144 0.0130889 0)
(1.02824 -0.0123612 0)
(1.0271 -0.0106083 -1.56997e-19)
(1.02388 -0.0145708 1.5546e-19)
(1.0279 0.00526281 0)
(1.02616 0.0137478 0)
(1.01179 0.00438334 0)
(1.01381 0.00915748 0)
(1.01557 0.00394288 0)
(1.01381 0.00211008 0)
(-0.104009 1.02782 0)
(-0.152313 1.03009 0)
(0.33134 1.2332 3.59725e-19)
(0.291203 1.46757 1.80511e-19)
(0.215532 1.37574 4.05916e-19)
(0.213554 1.38909 -6.42584e-19)
(0.330392 1.35309 0)
(0.39448 1.6602 2.383e-19)
(0.387138 1.73028 0)
(0.349177 2.02371 2.52139e-20)
(0.347607 2.38725 1.34875e-19)
(0.421607 1.46539 -2.1393e-19)
(0.322294 1.43792 1.38634e-19)
(0.349699 1.34741 -1.12496e-19)
(0.333974 1.37278 2.11954e-19)
(0.322159 1.63589 0)
(0.329713 1.63209 -1.2874e-19)
(-0.30984 2.47609 1.3617e-19)
(-0.1757 2.67262 0)
(-0.0518816 2.60494 -2.35951e-19)
(-0.15573 2.61594 0)
(-0.0962409 2.75169 1.12169e-20)
(-0.135039 2.70746 0)
(-0.330375 1.68658 7.14316e-20)
(-0.434014 1.77891 0)
(-0.343717 1.5291 0)
(-0.302798 1.55113 -8.04766e-20)
(-0.210061 2.33575 -6.42421e-20)
(-0.179417 2.55804 -1.07936e-19)
(-0.154023 2.42351 -6.16e-22)
(-0.193504 1.88313 9.4443e-21)
(-0.255634 1.87093 -8.11453e-21)
(-0.0884776 1.64675 0)
(-0.0572677 1.67429 0)
(-0.492466 1.87815 -2.41419e-19)
(-0.402016 1.55037 -2.31996e-19)
(-0.433196 1.75935 2.90627e-19)
(-0.381605 1.81951 0)
(-0.0356332 1.84331 -2.62618e-20)
(-0.035601 1.86077 1.05851e-20)
(-0.0471956 1.86807 -3.66183e-21)
(-0.156998 1.8475 -1.14241e-20)
(-0.0812228 1.90214 -6.79446e-21)
(-0.0934078 1.92417 4.24071e-20)
(1.02078 0.0188388 -1.6965e-19)
(1.02257 0.0182983 1.68392e-19)
(1.01663 0.0170642 0)
(1.00139 0.0443943 2.44627e-19)
(0.992993 0.029777 -2.91026e-19)
(0.96984 0.0295479 3.37644e-19)
(0.999481 0.0813623 -3.19169e-20)
(1.03041 -0.0126638 0)
(1.03323 -0.00292685 1.38413e-19)
(1.02381 -0.0173341 -1.39794e-19)
(1.05273 0.040887 -7.36118e-21)
(1.05145 0.0345204 6.64491e-20)
(1.05178 0.0550706 0)
(1.04055 0.0471814 -2.52883e-20)
(1.03231 0.031651 0)
(1.02795 0.0221862 0)
(1.03324 0.00853801 0)
(1.02972 0.0122276 0)
(1.0407 0.0298481 5.24748e-20)
(1.04358 0.0217755 -1.20145e-19)
(1.04371 0.0339764 -5.2358e-20)
(1.04192 0.0335628 -6.14378e-20)
(1.05084 0.0589388 1.05212e-19)
(1.07374 0.0545838 0)
(1.06429 0.0947095 0)
(-0.0298968 1.84226 -8.4814e-21)
(-0.0216627 1.82398 -8.58246e-22)
(-0.0255838 1.8275 0)
(-0.0167011 1.83993 8.53753e-21)
(-0.0157121 1.83096 1.55626e-21)
(-0.0144009 1.83598 -1.61323e-21)
(-0.0499133 1.92692 1.56511e-20)
(-0.0552834 1.88211 -1.40929e-21)
(-0.0683978 1.89152 7.09564e-21)
(-0.036498 1.89209 -8.42338e-21)
(-0.0382377 1.89845 1.04102e-20)
(-0.0355339 1.80889 2.8966e-22)
(-0.0385356 1.81826 1.12941e-20)
(0.403679 1.42199 -2.80625e-19)
(0.358987 1.40498 -2.77295e-19)
(0.63107 1.4252 -3.99482e-19)
(0.511726 1.48425 -2.18361e-19)
(0.530349 1.47014 0)
(0.593906 2.39489 8.74853e-20)
(0.659197 2.3814 1.52976e-19)
(0.422606 2.48329 5.88384e-20)
(0.41382 2.54805 -9.24812e-20)
(0.521574 2.51429 1.74967e-19)
(0.544671 2.43691 0)
(0.499973 2.47672 -2.39063e-19)
(0.302339 2.56303 4.2145e-19)
(0.372153 2.52237 -4.37451e-20)
(0.312226 2.61558 -6.57154e-19)
(0.925631 2.38968 1.36861e-19)
(0.825947 2.37522 0)
(1.01026 0.0008874 5.69377e-21)
(1.01535 -0.00521763 -4.7455e-21)
(1.0155 -0.00436408 -8.34038e-20)
(1.01488 -0.000911293 8.57669e-20)
(1.01269 0.000946271 0)
(0.6163 1.25836 0)
(0.641075 1.16101 0)
(0.74244 1.09166 0)
(0.623203 1.12992 0)
(1.18771 2.64666 3.2915e-20)
(1.07664 2.38376 0)
(0.840882 2.23686 -1.34433e-21)
(0.826219 2.50073 0)
(0.919171 2.58069 2.52255e-20)
(0.952701 2.52838 -1.66543e-20)
(0.839926 0.141551 0)
(0.811334 0.15618 5.24848e-20)
(0.928096 0.130855 2.64107e-19)
(0.864573 0.10685 -1.05867e-19)
(0.848954 0.0769827 -3.21905e-19)
(1.02942 0.209375 -1.28982e-19)
(0.9443 0.268519 -6.8093e-21)
(0.895325 0.302096 2.28721e-19)
(0.975321 0.206396 1.64223e-19)
(0.924899 0.169923 -3.28173e-19)
(0.894387 0.178156 4.40423e-20)
(0.921839 0.278726 -7.77407e-20)
(0.897403 0.190885 0)
(0.970958 0.163475 1.5433e-19)
(1.0068 0.173405 0)
(1.00449 0.184559 0)
(1.08751 0.112351 4.00089e-20)
(1.01514 0.154837 -6.95954e-21)
(1.02067 0.21654 -2.69416e-20)
(1.07043 0.189616 0)
(1.0197 0.0300891 1.28417e-19)
(1.0338 0.0496597 1.50073e-19)
(1.02971 0.0344769 -1.26818e-19)
(1.02704 0.0505621 -1.01224e-19)
(1.01093 0.0515446 -1.72394e-19)
(0.9755 0.125512 0)
(0.97596 0.0757415 0)
(0.968865 0.0457629 -1.21584e-19)
(0.93681 0.0606191 5.24018e-20)
(1.01483 0.0824324 1.43143e-19)
(1.03358 0.113257 -1.30888e-19)
(1.02466 0.144407 1.24401e-19)
(1.00213 0.122088 0)
(1.04668 0.0977798 0)
(1.02902 0.0861094 -5.62573e-20)
(1.02696 0.079845 -1.13444e-19)
(0.578389 1.09565 -7.36788e-20)
(0.60691 1.43771 1.38944e-19)
(1.14225 2.75037 5.68374e-20)
(1.20117 3.12695 -5.33356e-20)
(1.24977 2.74915 3.99879e-19)
(1.29316 2.72532 -2.04223e-19)
(1.26175 2.3492 -1.94042e-20)
(1.18566 3.0293 1.57637e-19)
(1.20345 2.98459 -1.63028e-19)
(1.18916 3.28138 -1.89415e-19)
(1.40318 2.99586 2.2777e-19)
(1.4182 2.92972 0)
(0.51452 0.857646 -6.54821e-21)
(0.249051 1.2718 1.90036e-19)
(0.489267 0.540577 2.22845e-19)
(0.343151 0.317771 2.61426e-19)
(0.581903 0.430292 2.53989e-19)
(0.563084 0.505875 -4.02925e-19)
(0.562445 0.508448 3.36478e-19)
(0.539038 0.464967 -1.34266e-19)
(0.512014 0.407503 3.06672e-19)
(0.774325 0.263143 -1.17772e-19)
(0.737242 0.298697 0)
(0.726829 0.264007 7.27949e-21)
(0.724079 0.501837 1.21273e-19)
(0.689405 0.471112 -4.47871e-19)
(0.652332 0.493967 1.55361e-20)
(0.662147 0.455932 0)
(0.647579 0.738798 8.42294e-20)
(0.74269 0.766049 4.51401e-20)
(0.68908 0.825176 -5.69111e-20)
(0.82045 0.790321 -7.64472e-21)
(0.873808 0.833376 1.11731e-20)
(0.878454 0.843004 -1.14782e-20)
(0.798386 0.637148 -1.2264e-19)
(0.879687 0.690859 7.11391e-21)
(0.942178 0.697984 0)
(0.931105 0.671967 1.53202e-21)
(0.979467 0.315853 3.49333e-20)
(1.10105 0.292192 -1.94374e-20)
(1.0148 0.248767 5.16573e-20)
(0.95185 0.353453 -8.15045e-20)
(0.986042 0.440625 0)
(1.05439 0.40323 0)
(0.880769 0.372327 7.1427e-21)
(0.813472 0.301629 0)
(0.844977 0.279154 1.22705e-19)
(0.868714 0.307948 2.14277e-21)
(0.907621 0.426148 4.40941e-19)
(0.85357 0.486865 1.11123e-19)
(0.85902 0.439191 -1.53472e-19)
(0.803272 0.427225 1.63234e-19)
(0.798548 0.420534 1.11829e-19)
(0.776949 0.396162 -1.09393e-19)
(1.02566 -0.00563571 1.33256e-19)
(1.01913 -0.00261545 0)
(1.01754 -0.00123578 9.03938e-20)
(1.0226 -0.00250689 -2.03142e-19)
(1.02124 0.000309581 9.84726e-20)
(1.02115 0.00914288 -2.09326e-19)
(1.02268 0.00909437 0)
(1.0205 0.0114554 -4.35928e-20)
(1.01645 0.00703225 1.0942e-19)
(1.01652 0.0101969 -5.54419e-20)
(1.01757 0.00892286 4.04781e-20)
(-0.246638 1.30319 0)
(-0.355863 1.46592 0)
(-0.203816 1.14822 0)
(-0.18769 1.16146 0)
(-0.0449331 1.36546 -8.91524e-19)
(0.17366 1.1772 3.06706e-19)
(0.23604 1.71149 2.18854e-19)
(0.278744 1.27896 -1.62412e-19)
(-0.376446 1.53308 3.72205e-19)
(-0.37043 1.52862 -2.84684e-19)
(-0.186327 1.25741 7.88745e-20)
(-0.212541 1.26826 4.54643e-19)
(-0.258 1.28423 5.3071e-20)
(-0.351774 1.40935 4.08784e-20)
(0.0309648 2.60614 2.52453e-19)
(0.128888 2.62062 0)
(0.223774 2.23279 -2.96281e-20)
(0.268098 1.83912 -1.10879e-19)
(0.335842 2.1019 2.22675e-20)
(0.239424 2.44077 0)
(0.248066 2.41335 -1.37414e-19)
(0.366096 2.39035 9.29044e-20)
(0.349695 2.06154 6.77503e-20)
(0.225495 2.27756 1.17884e-20)
(0.114236 2.41876 0)
(-0.430556 2.15556 2.50263e-19)
(-0.363064 2.25293 6.68017e-20)
(-0.422204 2.14509 0)
(-0.343398 2.4108 5.14414e-21)
(-0.382816 2.37928 -1.22286e-19)
(-0.216358 1.67497 -2.18935e-21)
(-0.146245 1.69972 3.65207e-20)
(-0.150727 1.73956 -1.41907e-20)
(-0.231759 1.73421 -8.1326e-21)
(-0.295576 1.70654 0)
(-0.125194 1.74346 0)
(-0.0363351 1.76295 8.36259e-21)
(-0.0675493 1.77174 -2.26479e-21)
(-0.0904109 1.75677 0)
(-0.0517597 1.71722 5.80274e-21)
(-0.0268512 1.733 -1.2457e-20)
(1.03069 0.00465467 0)
(1.03848 0.00626484 -1.29891e-20)
(1.04643 0.0197903 -9.43098e-20)
(1.04675 0.0208562 0)
(1.04452 0.0196271 0)
(1.04446 0.00525469 -4.44663e-21)
(1.03867 0.00387324 1.60287e-19)
(1.04066 0.0116126 1.91959e-19)
(1.03217 0.0167501 0)
(1.02935 0.0166346 0)
(1.04095 0.0206996 9.61664e-20)
(1.03112 0.0172117 0)
(1.02966 0.016393 0)
(-0.0783952 1.84199 0)
(-0.0502194 1.81457 1.84853e-21)
(-0.0590589 1.83397 5.83757e-21)
(-0.0506786 1.78141 0)
(-0.061946 1.80693 5.09114e-21)
(-0.0468261 1.80195 -4.04608e-21)
(-0.0449833 1.79449 0)
(0.382075 1.71986 0)
(0.300569 1.33313 4.52563e-19)
(0.253786 1.3852 0)
(0.421048 1.28616 -5.72456e-19)
(0.496098 1.43103 0)
(0.433797 1.41092 2.74245e-19)
(1.02482 2.71456 -2.58074e-21)
(0.946668 2.41958 -1.70128e-19)
(0.885521 2.16469 2.12708e-19)
(0.84784 2.37192 8.04561e-20)
(0.844442 2.53702 0)
(0.911592 2.53027 0)
(0.908329 2.38389 0)
(0.889564 2.35724 -2.72477e-19)
(0.681914 2.52298 5.97088e-21)
(0.802275 2.50898 -6.01776e-21)
(0.812473 2.48367 4.6909e-21)
(0.685427 2.36605 0)
(0.792184 2.36952 0)
(0.754242 2.37626 -1.53694e-19)
(0.768378 2.51513 0)
(0.571658 1.06167 0)
(0.487513 0.903314 -2.11603e-20)
(0.491601 0.958856 -3.46883e-22)
(0.48537 1.07941 0)
(0.471767 1.00767 3.69113e-20)
(0.728014 0.87465 1.01019e-20)
(0.754397 1.0034 0)
(0.726322 0.976535 -4.61696e-20)
(0.600838 1.01771 0)
(0.605146 0.937425 0)
(1.15741 2.78006 4.27584e-20)
(1.13312 2.84089 8.7838e-20)
(0.926935 2.37399 -2.05027e-19)
(0.897684 2.34884 2.8892e-20)
(1.12504 2.75713 0)
(1.07562 2.72763 -3.55057e-20)
(1.0863 2.50953 -4.4185e-20)
(0.982632 2.24488 -2.02398e-20)
(0.510291 1.36947 0)
(0.513666 1.07229 6.46992e-20)
(0.560907 1.14991 0)
(0.86388 0.198952 0)
(0.817934 0.15968 0)
(0.771351 0.156707 0)
(0.860154 0.209198 -1.9273e-19)
(0.803684 0.209156 1.21737e-19)
(0.939548 0.0566113 -1.08584e-19)
(0.945026 0.103773 0)
(0.922854 0.112227 4.96946e-20)
(0.884749 0.0714576 2.04138e-19)
(0.883418 0.0520912 -1.25248e-19)
(1.11499 3.37831 -6.59707e-19)
(1.17838 3.30175 0)
(1.13581 3.45112 -1.38668e-18)
(0.669919 3.59699 1.1888e-18)
(1.00956 3.10454 2.90424e-19)
(0.495537 0.849446 1.21776e-19)
(0.480869 0.821527 0)
(0.390198 0.561873 -5.14559e-20)
(0.423564 0.694992 2.34677e-19)
(0.508378 0.542824 -7.1745e-20)
(0.505535 0.561464 8.01904e-20)
(0.664171 0.550323 1.6067e-19)
(0.67827 0.561916 0)
(0.612007 0.637581 0)
(0.584298 0.577037 0)
(0.940415 0.590632 -3.64911e-20)
(0.875126 0.51968 -1.06138e-19)
(0.903578 0.564451 3.2074e-20)
(0.949256 0.4838 -7.55328e-20)
(1.00173 0.467427 0)
(1.02129 0.580535 1.89554e-21)
(0.825579 0.384708 -2.48227e-19)
(0.823103 0.380461 -2.91266e-19)
(0.78639 0.374552 1.94475e-19)
(0.779261 0.345489 -2.20111e-19)
(0.816579 0.316244 -1.6408e-19)
(0.783594 0.313432 2.01619e-19)
(1.02711 -0.000410345 -1.03261e-19)
(1.02858 -0.00259041 2.11956e-19)
(1.02652 -0.00640784 1.26458e-19)
(1.02794 -0.0081598 -1.54614e-19)
(1.03277 -0.000225672 0)
(1.03296 -0.000455475 -2.52924e-19)
(-0.285785 2.01409 -8.36368e-20)
(-0.301357 1.81343 0)
(0.0379745 1.85314 -6.76013e-19)
(0.182102 1.86272 5.9278e-19)
(0.194377 1.69596 -4.00966e-19)
(-0.0587378 1.69676 0)
(-0.138173 1.83984 0)
(-0.12003 1.77637 -1.9112e-21)
(-0.085903 1.78177 1.71947e-21)
(-0.0765961 1.80246 3.21412e-21)
(-0.0924894 1.84371 -7.40127e-21)
(-0.104176 1.84203 5.44408e-21)
(0.503453 1.38434 3.06518e-19)
(0.481115 1.40142 -3.26451e-19)
(0.429179 1.27817 2.89141e-19)
(0.406949 1.31599 -1.88043e-20)
(0.612237 1.29721 0)
(0.553613 1.36924 3.62198e-19)
(0.562743 1.35841 -3.50205e-19)
(0.444626 1.25203 -2.84219e-19)
(0.492798 1.20569 0)
(0.565777 1.18236 0)
(0.641428 2.47525 -8.93896e-21)
(0.661092 2.47512 3.76913e-19)
(0.710157 2.49901 -2.57803e-19)
(0.614545 2.48134 -8.13437e-20)
(0.540743 2.57384 7.04059e-20)
(0.510438 2.52898 -2.00868e-19)
(0.961679 2.38475 -1.16176e-19)
(1.007 2.41133 0)
(0.907346 2.15498 -1.4842e-19)
(1.04339 2.70794 0)
(1.04351 2.69641 0)
(0.615459 2.32684 2.37026e-19)
(1.10796 3.11299 3.06654e-19)
(0.981115 2.99804 -3.3368e-19)
(0.33874 0.939288 0)
(0.37335 0.846116 -8.53436e-20)
(0.540186 0.762606 -3.40363e-20)
(0.387985 2.16704 0)
(0.420536 2.77242 -2.05764e-19)
(0.433825 2.51799 0)
(0.642376 0.692122 -1.76806e-19)
(0.698241 0.665547 2.47897e-19)
(0.707789 0.628456 -2.46761e-19)
(0.638379 0.665216 -2.65112e-20)
(0.697632 0.60457 -1.12827e-19)
(0.973385 2.78824 -2.317e-19)
(1.0143 2.80146 1.85308e-19)
(0.574432 2.25228 -1.0376e-19)
(0.613864 1.7853 4.00134e-20)
(0.697403 1.90062 2.84226e-20)
(0.977025 2.439 -6.73983e-20)
(0.972685 2.40109 -7.05878e-20)
(0.656265 1.84524 -1.47104e-21)
(0.449215 1.33983 -3.55676e-20)
)
;

boundaryField
{
    wall-4
    {
        type            noSlip;
    }
    velocity-inlet-5
    {
        type            fixedValue;
        value           uniform (1 0 0);
    }
    velocity-inlet-6
    {
        type            fixedValue;
        value           uniform (0 3 0);
    }
    pressure-outlet-7
    {
        type            zeroGradient;
    }
    wall-8
    {
        type            noSlip;
    }
    frontAndBackPlanes
    {
        type            empty;
    }
}

