/*--------------------------------*- C++ -*----------------------------------*\
  =========                 |
  \\      /  F ield         | OpenFOAM: The Open Source CFD Toolbox
   \\    /   O peration     | Website:  https://openfoam.org
    \\  /    A nd           | Version:  6
     \\/     M anipulation  |
\*---------------------------------------------------------------------------*/
FoamFile
{
    version     2.0;
    format      ascii;
    class       volVectorField;
    location    "0";
    object      U_rec;
}
// * * * * * * * * * * * * * * * * * * * * * * * * * * * * * * * * * * * * * //

dimensions      [0 1 -1 0 0 0 0];

internalField   nonuniform List<vector> 
9000
(
(0.598192 0.153556 0)
(0.475486 0.0662834 0)
(0.287856 0.0224695 0)
(0.202451 0.0099693 0)
(0.156174 0.00576328 0)
(0.128799 0.00300226 0)
(0.112128 0.0026911 0)
(0.100646 0.000730121 0)
(0.0920656 -3.03781e-05 0)
(0.0866675 -0.000451392 0)
(0.0830052 0.00199319 0)
(0.0802113 0.00197524 0)
(0.0773157 0.00229541 0)
(0.0769655 0.00188956 0)
(0.076765 -0.000107245 0)
(0.0755669 -0.00108778 0)
(0.0745178 -0.0010489 0)
(0.0737006 0.000465178 0)
(0.0735118 0.00127024 0)
(0.0739163 0.00255002 0)
(0.0744386 0.00133806 0)
(0.0740383 0.00204507 0)
(0.0737663 0.00111698 0)
(0.0737753 0.00105402 0)
(0.0737069 0.00119152 0)
(0.0743938 0.00158007 0)
(0.0732209 -0.00056588 0)
(0.0734748 0.000139793 0)
(0.0741442 -0.00108328 0)
(0.0731691 -0.00106218 0)
(0.0741584 -9.41403e-06 0)
(0.0739441 -0.00172667 0)
(0.0735784 -0.00182429 0)
(0.0737737 -0.00161098 0)
(0.0729989 -0.00125332 0)
(0.0731633 -0.000864558 0)
(0.0734285 0.000214581 0)
(0.0739442 -0.00119364 0)
(0.0743653 -0.000525621 0)
(0.0749728 -0.000522855 0)
(0.0753067 -0.000332317 0)
(0.0748321 -0.00070338 0)
(0.0754562 -4.7977e-05 0)
(0.0763718 1.6562e-05 0)
(0.0784595 -0.00135461 0)
(0.0803986 -0.00274398 0)
(0.0837394 -0.0024997 0)
(0.0928788 -0.000999038 0)
(0.113295 -0.00844504 0)
(0.164804 -0.0485182 0)
(0.947406 0.339451 0)
(0.86235 0.233636 0)
(0.655504 0.131129 0)
(0.517058 0.0752395 0)
(0.423792 0.0455153 0)
(0.36181 0.0279646 0)
(0.319951 0.0208211 0)
(0.289532 0.0106885 0)
(0.268107 0.00720142 0)
(0.255116 0.00359893 0)
(0.244878 0.00652476 0)
(0.235611 0.00609261 0)
(0.228154 0.00480175 0)
(0.224617 0.00501949 0)
(0.222928 0.00145134 0)
(0.221251 -0.00046974 0)
(0.220112 -0.00182841 0)
(0.218494 0.000132091 0)
(0.217737 0.00258506 0)
(0.217116 0.00440853 0)
(0.217734 0.00368613 0)
(0.217118 0.00338948 0)
(0.216034 0.00228748 0)
(0.216706 0.00304758 0)
(0.216775 0.00368949 0)
(0.216434 0.00121266 0)
(0.214678 -0.00017122 0)
(0.215524 4.80605e-05 0)
(0.216158 -0.00343765 0)
(0.216193 -0.00110811 0)
(0.216765 -0.00140559 0)
(0.215523 -0.00304966 0)
(0.216122 -0.00410435 0)
(0.21682 -0.00390233 0)
(0.215387 -0.00202486 0)
(0.216021 -0.000873634 0)
(0.215968 -0.000441033 0)
(0.217379 -0.000831679 0)
(0.219326 -0.00147426 0)
(0.220158 -0.000505914 0)
(0.220873 -0.00162843 0)
(0.221314 -0.00350314 0)
(0.223871 -0.00270633 0)
(0.225719 -0.00358171 0)
(0.230494 -0.00448952 0)
(0.238289 -0.00793324 0)
(0.25148 -0.0110914 0)
(0.272403 -0.0169598 0)
(0.309716 -0.0410838 0)
(0.382197 -0.104246 0)
(1.02554 0.324721 0)
(1.01813 0.318329 0)
(0.874941 0.225273 0)
(0.743742 0.149097 0)
(0.637851 0.0996327 0)
(0.561502 0.0672861 0)
(0.503768 0.046108 0)
(0.460933 0.0301696 0)
(0.431145 0.0222139 0)
(0.411727 0.015985 0)
(0.39716 0.0123329 0)
(0.381992 0.00813863 0)
(0.371516 0.00733917 0)
(0.365895 0.00791666 0)
(0.36179 0.00339646 0)
(0.358699 0.00126428 0)
(0.357013 0.000950958 0)
(0.356232 0.000510211 0)
(0.355152 0.00332124 0)
(0.353671 0.00370965 0)
(0.353504 0.00534308 0)
(0.352221 0.00233459 0)
(0.351941 0.00279782 0)
(0.353139 0.00369989 0)
(0.35079 0.00390734 0)
(0.35049 0.000397097 0)
(0.350084 -0.000279328 0)
(0.348983 -0.00242947 0)
(0.35125 -0.00502031 0)
(0.351789 -0.00225927 0)
(0.351401 -0.00316586 0)
(0.350142 -0.00296544 0)
(0.350458 -0.00307286 0)
(0.352891 -0.00333866 0)
(0.35196 -0.00149477 0)
(0.351423 0.000367878 0)
(0.352041 0.000240591 0)
(0.353706 0.0012506 0)
(0.356228 -0.00158035 0)
(0.357776 -0.000466009 0)
(0.357956 -0.00242567 0)
(0.360493 -0.00491693 0)
(0.365084 -0.00660856 0)
(0.369501 -0.00826751 0)
(0.377439 -0.0104472 0)
(0.388678 -0.0154314 0)
(0.408201 -0.0232671 0)
(0.437021 -0.0428296 0)
(0.480643 -0.0761848 0)
(0.545477 -0.149858 0)
(1.03745 0.279959 0)
(1.07618 0.350283 0)
(0.995846 0.294253 0)
(0.89655 0.21658 0)
(0.801684 0.157188 0)
(0.722844 0.112169 0)
(0.661339 0.0775382 0)
(0.61491 0.0576752 0)
(0.579961 0.0429399 0)
(0.554853 0.0318391 0)
(0.53504 0.022509 0)
(0.519201 0.0142836 0)
(0.508119 0.0132705 0)
(0.498183 0.0104698 0)
(0.491891 0.00578966 0)
(0.48998 0.00346241 0)
(0.487322 0.00288264 0)
(0.485712 0.00164469 0)
(0.48467 0.00354223 0)
(0.482862 0.00189157 0)
(0.48156 0.00399931 0)
(0.479856 0.000826401 0)
(0.480511 0.00266697 0)
(0.481165 0.00250258 0)
(0.47832 0.00226288 0)
(0.477031 0.000454353 0)
(0.47593 -0.00210778 0)
(0.475546 -0.00141731 0)
(0.478905 -0.00393916 0)
(0.479893 -0.00296665 0)
(0.479606 -0.00143417 0)
(0.478572 -0.00201583 0)
(0.478587 -0.00101514 0)
(0.48091 -0.00251321 0)
(0.480963 -0.00241617 0)
(0.4806 0.00101916 0)
(0.480807 -3.8884e-05 0)
(0.48189 0.000417378 0)
(0.485332 -0.00166449 0)
(0.488294 -0.00249743 0)
(0.488806 -0.00505603 0)
(0.491802 -0.00611612 0)
(0.498278 -0.00975977 0)
(0.504605 -0.0124595 0)
(0.514956 -0.0179115 0)
(0.530499 -0.0268339 0)
(0.551846 -0.0407622 0)
(0.584102 -0.0681525 0)
(0.627696 -0.109073 0)
(0.680133 -0.184683 0)
(1.03271 0.237127 0)
(1.09068 0.353406 0)
(1.0602 0.333539 0)
(0.995339 0.269094 0)
(0.920667 0.204692 0)
(0.85052 0.152805 0)
(0.794054 0.115823 0)
(0.748779 0.08584 0)
(0.711034 0.0656258 0)
(0.684089 0.0488556 0)
(0.662632 0.0350668 0)
(0.64575 0.0246716 0)
(0.633397 0.0200442 0)
(0.621819 0.0132647 0)
(0.615078 0.00884086 0)
(0.611963 0.00603391 0)
(0.608835 0.00285516 0)
(0.60794 0.00143392 0)
(0.605784 0.00378479 0)
(0.603715 0.0039148 0)
(0.602459 0.00295583 0)
(0.600857 0.000204988 0)
(0.601771 0.0010917 0)
(0.601678 0.000258619 0)
(0.598269 0.000699257 0)
(0.595973 0.000129753 0)
(0.597041 -0.00153206 0)
(0.596061 0.000629138 0)
(0.598087 -0.00142278 0)
(0.601132 -0.00240048 0)
(0.600388 0.000595454 0)
(0.598834 0.000388951 0)
(0.598381 0.00054821 0)
(0.600617 -0.000477619 0)
(0.603024 -0.000163544 0)
(0.601969 -0.00017909 0)
(0.60131 -0.00227204 0)
(0.603744 -0.00170422 0)
(0.607182 -0.00494321 0)
(0.610236 -0.00574245 0)
(0.612268 -0.00940757 0)
(0.616571 -0.0105073 0)
(0.623666 -0.0147815 0)
(0.632055 -0.0209719 0)
(0.643659 -0.0297133 0)
(0.660223 -0.0407787 0)
(0.68316 -0.0585069 0)
(0.715858 -0.0890187 0)
(0.75462 -0.135542 0)
(0.794497 -0.206089 0)
(1.02725 0.200149 0)
(1.08855 0.340713 0)
(1.08927 0.348858 0)
(1.05486 0.3016 0)
(1.00447 0.241885 0)
(0.95271 0.191492 0)
(0.90315 0.149389 0)
(0.861041 0.112311 0)
(0.827224 0.0868753 0)
(0.799206 0.0661142 0)
(0.776942 0.048185 0)
(0.761539 0.0360384 0)
(0.748691 0.0265002 0)
(0.73577 0.0175176 0)
(0.729267 0.0135396 0)
(0.725908 0.00948375 0)
(0.722331 0.00569367 0)
(0.722733 0.00515063 0)
(0.721784 0.00539332 0)
(0.717157 0.00460965 0)
(0.713749 0.00305961 0)
(0.713068 0.00130197 0)
(0.714294 0.000922676 0)
(0.714633 -0.000656698 0)
(0.71199 -0.000704508 0)
(0.708926 0.00234747 0)
(0.709532 -0.000307417 0)
(0.709097 0.000200687 0)
(0.710233 0.00111212 0)
(0.71444 -0.00110338 0)
(0.715147 0.000734745 0)
(0.712353 0.000409306 0)
(0.711591 0.00363221 0)
(0.714192 0.00374856 0)
(0.71514 0.00238424 0)
(0.713712 -0.000844525 0)
(0.715176 -0.00162231 0)
(0.717024 -0.00279768 0)
(0.721207 -0.0064254 0)
(0.725526 -0.00893667 0)
(0.727756 -0.0109527 0)
(0.733034 -0.0153176 0)
(0.740037 -0.0206161 0)
(0.748708 -0.0296578 0)
(0.762907 -0.040978 0)
(0.782084 -0.0552389 0)
(0.803349 -0.0740029 0)
(0.832688 -0.105971 0)
(0.866579 -0.155421 0)
(0.895518 -0.222124 0)
(1.0213 0.169319 0)
(1.07955 0.317174 0)
(1.09989 0.347959 0)
(1.09058 0.319828 0)
(1.06492 0.271812 0)
(1.02931 0.222785 0)
(0.98946 0.175507 0)
(0.955771 0.136206 0)
(0.926455 0.105529 0)
(0.900916 0.0796112 0)
(0.880987 0.0596957 0)
(0.865849 0.0451405 0)
(0.852465 0.0323534 0)
(0.841827 0.0230819 0)
(0.835917 0.0176363 0)
(0.83121 0.012511 0)
(0.828691 0.00802551 0)
(0.829073 0.00845565 0)
(0.825818 0.00657893 0)
(0.821959 0.00302738 0)
(0.81983 0.00302515 0)
(0.818752 0.00153768 0)
(0.819187 -0.000679217 0)
(0.819354 -0.000280284 0)
(0.818901 -0.00169224 0)
(0.814657 0.00129472 0)
(0.814311 0.000489777 0)
(0.815769 -0.000317992 0)
(0.815892 0.00148507 0)
(0.81961 0.00178455 0)
(0.820396 0.00142595 0)
(0.819539 0.00119033 0)
(0.819131 0.00360307 0)
(0.818677 0.00371261 0)
(0.819548 0.00106481 0)
(0.819503 -0.00159846 0)
(0.821088 -0.0018155 0)
(0.823011 -0.00447557 0)
(0.826989 -0.00569772 0)
(0.832582 -0.0104697 0)
(0.835488 -0.0130323 0)
(0.840635 -0.0186576 0)
(0.848485 -0.0251284 0)
(0.857772 -0.0351515 0)
(0.872115 -0.047824 0)
(0.891755 -0.0662357 0)
(0.91305 -0.0905249 0)
(0.937212 -0.123022 0)
(0.96306 -0.171478 0)
(0.983772 -0.234205 0)
(1.01761 0.144117 0)
(1.07044 0.289435 0)
(1.10201 0.335389 0)
(1.11209 0.32485 0)
(1.10506 0.288529 0)
(1.08561 0.239714 0)
(1.05808 0.193934 0)
(1.03368 0.153579 0)
(1.01033 0.117654 0)
(0.98902 0.0899949 0)
(0.972549 0.068148 0)
(0.959825 0.0512572 0)
(0.948212 0.0376541 0)
(0.938081 0.0290678 0)
(0.932427 0.0203136 0)
(0.928472 0.0140221 0)
(0.926897 0.00922661 0)
(0.927936 0.0073397 0)
(0.923671 0.00473026 0)
(0.919604 0.0056893 0)
(0.917262 0.0023018 0)
(0.914931 0.00153283 0)
(0.916867 1.74079e-05 0)
(0.917861 -0.000711553 0)
(0.916933 -0.00181196 0)
(0.913922 -0.00153148 0)
(0.912404 0.00227956 0)
(0.913756 0.000263747 0)
(0.915363 -0.000763402 0)
(0.918212 0.000890353 0)
(0.918832 -0.000487204 0)
(0.917672 0.00219365 0)
(0.917089 0.000740754 0)
(0.916926 0.000818138 0)
(0.916765 -0.00153249 0)
(0.917486 -0.00243255 0)
(0.919745 -0.00388388 0)
(0.921995 -0.00656181 0)
(0.926134 -0.00681031 0)
(0.931269 -0.0103371 0)
(0.935186 -0.0173786 0)
(0.940917 -0.0225896 0)
(0.948554 -0.031571 0)
(0.957377 -0.0423307 0)
(0.971448 -0.05539 0)
(0.989542 -0.0769704 0)
(1.00923 -0.103062 0)
(1.03069 -0.139136 0)
(1.05026 -0.18561 0)
(1.06281 -0.241355 0)
(1.0136 0.124418 0)
(1.06046 0.261415 0)
(1.10006 0.315708 0)
(1.12486 0.316448 0)
(1.13199 0.289578 0)
(1.12549 0.245606 0)
(1.11224 0.204068 0)
(1.09648 0.165792 0)
(1.08077 0.128205 0)
(1.06631 0.0986286 0)
(1.05412 0.0749907 0)
(1.0438 0.058015 0)
(1.03458 0.0430184 0)
(1.02586 0.0321622 0)
(1.0203 0.0248165 0)
(1.01728 0.0171425 0)
(1.01624 0.0109415 0)
(1.01717 0.00762252 0)
(1.01503 0.00246865 0)
(1.01027 0.00481147 0)
(1.00683 0.00229346 0)
(1.00667 0.00362766 0)
(1.00672 0.00251533 0)
(1.00719 -0.00255128 0)
(1.00749 -0.00256303 0)
(1.0059 -0.0043761 0)
(1.00428 -0.000958305 0)
(1.00286 -0.000856203 0)
(1.00504 -0.00140953 0)
(1.00846 -0.00252026 0)
(1.01029 -0.00300418 0)
(1.00938 -0.00156339 0)
(1.00755 -0.00164891 0)
(1.00712 -0.00087031 0)
(1.00795 -0.00110249 0)
(1.00884 -0.00302474 0)
(1.00989 -0.0052744 0)
(1.01364 -0.00765112 0)
(1.01845 -0.00930138 0)
(1.02152 -0.0130682 0)
(1.02566 -0.0210923 0)
(1.03219 -0.0267305 0)
(1.03957 -0.0370945 0)
(1.04969 -0.0492966 0)
(1.0615 -0.0633119 0)
(1.07805 -0.0854096 0)
(1.09566 -0.112464 0)
(1.11162 -0.149375 0)
(1.12731 -0.195107 0)
(1.13479 -0.247265 0)
(1.01084 0.105446 0)
(1.05217 0.232319 0)
(1.0948 0.29184 0)
(1.12952 0.301634 0)
(1.14871 0.28288 0)
(1.15615 0.246538 0)
(1.15608 0.208883 0)
(1.14875 0.172056 0)
(1.1393 0.138002 0)
(1.13141 0.107275 0)
(1.12491 0.0807256 0)
(1.1188 0.0634176 0)
(1.11092 0.0472828 0)
(1.10514 0.0348605 0)
(1.10103 0.0281046 0)
(1.09712 0.0204518 0)
(1.09742 0.0150194 0)
(1.09854 0.00857482 0)
(1.0974 0.00409118 0)
(1.09441 0.00266537 0)
(1.09122 0.00489125 0)
(1.08957 0.0053129 0)
(1.08707 0.00222913 0)
(1.0889 -0.00266075 0)
(1.09003 -0.00333721 0)
(1.08837 -0.00485207 0)
(1.08824 -0.00290373 0)
(1.08729 -0.00313302 0)
(1.08794 -0.00064683 0)
(1.09104 -0.00319584 0)
(1.09349 -0.00378369 0)
(1.09281 -0.00511552 0)
(1.09226 -0.00365304 0)
(1.09264 -0.0025566 0)
(1.09092 -0.00152317 0)
(1.09066 -0.00340709 0)
(1.09343 -0.00452512 0)
(1.09714 -0.00788294 0)
(1.10181 -0.0123996 0)
(1.10462 -0.016509 0)
(1.1096 -0.0232756 0)
(1.11595 -0.0305531 0)
(1.12204 -0.0423123 0)
(1.13155 -0.0547575 0)
(1.14294 -0.0732911 0)
(1.15695 -0.0935432 0)
(1.17133 -0.1245 0)
(1.18362 -0.157719 0)
(1.194 -0.200961 0)
(1.19865 -0.248776 0)
(1.00863 0.0893006 0)
(1.04613 0.205157 0)
(1.0911 0.265762 0)
(1.13221 0.283796 0)
(1.16019 0.270809 0)
(1.17772 0.242368 0)
(1.18851 0.207016 0)
(1.19108 0.172114 0)
(1.18955 0.140182 0)
(1.18623 0.111703 0)
(1.18605 0.0857306 0)
(1.18406 0.0664172 0)
(1.17848 0.0499045 0)
(1.17634 0.0366938 0)
(1.17323 0.0271566 0)
(1.17074 0.0219272 0)
(1.16978 0.0171466 0)
(1.17104 0.0103595 0)
(1.17195 0.00602311 0)
(1.17064 0.00337297 0)
(1.16826 0.00512948 0)
(1.1643 0.0045707 0)
(1.16071 0.00146525 0)
(1.16306 0.000254649 0)
(1.16504 -0.00313486 0)
(1.16472 -0.00395564 0)
(1.16403 -0.00186081 0)
(1.16294 -9.62857e-05 0)
(1.16386 -0.00245004 0)
(1.16575 -0.00188881 0)
(1.16829 -0.00422794 0)
(1.16924 -0.00553581 0)
(1.16926 -0.0042098 0)
(1.16873 -0.00432461 0)
(1.1679 -0.00383564 0)
(1.16782 -0.00351617 0)
(1.16887 -0.00449844 0)
(1.17157 -0.0079835 0)
(1.17738 -0.0131894 0)
(1.1804 -0.0189174 0)
(1.18468 -0.024646 0)
(1.18975 -0.0357467 0)
(1.19597 -0.0481218 0)
(1.20458 -0.0622872 0)
(1.21427 -0.0804271 0)
(1.22625 -0.102807 0)
(1.23832 -0.131781 0)
(1.24792 -0.166246 0)
(1.25336 -0.205264 0)
(1.25462 -0.248117 0)
(1.0077 0.0775066 0)
(1.04164 0.182082 0)
(1.087 0.239599 0)
(1.13195 0.26004 0)
(1.16662 0.252557 0)
(1.19374 0.230876 0)
(1.21348 0.199018 0)
(1.22483 0.166795 0)
(1.23081 0.136902 0)
(1.23393 0.108998 0)
(1.23785 0.085665 0)
(1.24006 0.0670526 0)
(1.23757 0.0511455 0)
(1.23706 0.035611 0)
(1.23775 0.0248295 0)
(1.23694 0.0199547 0)
(1.23567 0.0150733 0)
(1.23718 0.0119409 0)
(1.23808 0.00720185 0)
(1.23847 0.00390852 0)
(1.23634 0.00359025 0)
(1.23137 0.00306614 0)
(1.22815 0.00144465 0)
(1.22982 0.0010921 0)
(1.23117 -0.00301176 0)
(1.23299 -0.00304782 0)
(1.23445 -0.0017845 0)
(1.23106 -0.000842446 0)
(1.23103 -0.00259294 0)
(1.23418 -0.00116034 0)
(1.23592 -0.00328353 0)
(1.23781 -0.00328851 0)
(1.23808 -0.00377121 0)
(1.23781 -0.00553698 0)
(1.23703 -0.00536115 0)
(1.23638 -0.00626195 0)
(1.23784 -0.00870965 0)
(1.24005 -0.00994258 0)
(1.24431 -0.0137346 0)
(1.24819 -0.0214139 0)
(1.25093 -0.0280815 0)
(1.25492 -0.0398404 0)
(1.26117 -0.051785 0)
(1.26914 -0.0670402 0)
(1.27774 -0.0845134 0)
(1.28764 -0.10767 0)
(1.2957 -0.134789 0)
(1.302 -0.1709 0)
(1.30551 -0.20648 0)
(1.30318 -0.245955 0)
(1.00672 0.0654294 0)
(1.03779 0.157124 0)
(1.08272 0.212055 0)
(1.13058 0.229975 0)
(1.17167 0.229459 0)
(1.20453 0.213426 0)
(1.23156 0.184547 0)
(1.25159 0.156081 0)
(1.26414 0.127574 0)
(1.27284 0.102235 0)
(1.28315 0.0809333 0)
(1.28906 0.0632489 0)
(1.28727 0.0486105 0)
(1.2893 0.0349558 0)
(1.2933 0.0248723 0)
(1.29481 0.0195114 0)
(1.29468 0.0144121 0)
(1.29603 0.0109622 0)
(1.29642 0.00670247 0)
(1.29743 0.00341456 0)
(1.29664 0.00159964 0)
(1.2919 0.00127597 0)
(1.28808 0.00121908 0)
(1.28886 0.00117863 0)
(1.29111 -0.000173478 0)
(1.2942 0.000396284 0)
(1.29403 -0.00230305 0)
(1.29149 -0.00157575 0)
(1.29306 -0.000162996 0)
(1.29454 -0.00136152 0)
(1.29634 -0.00123409 0)
(1.29849 -0.00242186 0)
(1.29781 -0.00377692 0)
(1.29796 -0.00664463 0)
(1.29802 -0.00797661 0)
(1.2971 -0.00960974 0)
(1.29898 -0.0113386 0)
(1.30183 -0.0114114 0)
(1.30446 -0.0163041 0)
(1.30673 -0.0238429 0)
(1.30946 -0.0314594 0)
(1.31303 -0.0414133 0)
(1.31886 -0.0537079 0)
(1.32575 -0.0685664 0)
(1.33257 -0.0883779 0)
(1.34008 -0.110969 0)
(1.34468 -0.137262 0)
(1.34838 -0.170844 0)
(1.34979 -0.203064 0)
(1.34461 -0.240958 0)
(1.00636 0.0544551 0)
(1.03628 0.134389 0)
(1.07875 0.183466 0)
(1.12806 0.203239 0)
(1.17531 0.202882 0)
(1.21178 0.189774 0)
(1.24506 0.164449 0)
(1.2721 0.13971 0)
(1.29108 0.114684 0)
(1.30628 0.093839 0)
(1.32013 0.0749616 0)
(1.32976 0.0575242 0)
(1.33196 0.0459141 0)
(1.33557 0.0352209 0)
(1.34209 0.0253657 0)
(1.34468 0.0205859 0)
(1.34484 0.0133856 0)
(1.34619 0.010618 0)
(1.3475 0.00580871 0)
(1.34895 0.00264521 0)
(1.34892 -0.00117471 0)
(1.34484 -0.00166479 0)
(1.34161 -5.29298e-05 0)
(1.34231 0.00285541 0)
(1.34406 0.00400832 0)
(1.34539 0.00214007 0)
(1.34666 -0.00103838 0)
(1.34601 -0.000399778 0)
(1.3453 0.00128356 0)
(1.34774 0.000471043 0)
(1.34938 0.000158063 0)
(1.35054 -0.00116825 0)
(1.35042 -0.00369056 0)
(1.35082 -0.00527776 0)
(1.3511 -0.00826142 0)
(1.35074 -0.00930794 0)
(1.35415 -0.0107079 0)
(1.35504 -0.0125589 0)
(1.35558 -0.0188514 0)
(1.35838 -0.0248284 0)
(1.36097 -0.03285 0)
(1.36338 -0.0427618 0)
(1.36809 -0.0550225 0)
(1.37316 -0.0705068 0)
(1.37839 -0.0898736 0)
(1.38475 -0.11256 0)
(1.38656 -0.138615 0)
(1.38799 -0.167245 0)
(1.38668 -0.199117 0)
(1.37889 -0.233544 0)
(1.00653 0.0439177 0)
(1.03468 0.111747 0)
(1.07693 0.15275 0)
(1.12616 0.175274 0)
(1.17493 0.174664 0)
(1.21585 0.161321 0)
(1.25388 0.144915 0)
(1.28852 0.122056 0)
(1.31383 0.101315 0)
(1.33359 0.0826814 0)
(1.35106 0.0675712 0)
(1.36485 0.0524722 0)
(1.36996 0.0410358 0)
(1.37396 0.0324674 0)
(1.38282 0.0256902 0)
(1.38608 0.0181899 0)
(1.38748 0.0111492 0)
(1.39033 0.00925406 0)
(1.39043 0.00560291 0)
(1.39198 0.000787215 0)
(1.3928 -0.0013287 0)
(1.39131 -0.00411158 0)
(1.38954 -0.000222183 0)
(1.38975 0.00309759 0)
(1.38909 0.00334037 0)
(1.38947 0.001516 0)
(1.39093 -0.000237501 0)
(1.39153 -0.00180086 0)
(1.39233 0.000851081 0)
(1.39284 0.00354793 0)
(1.39447 0.00136518 0)
(1.39551 0.000136306 0)
(1.39527 -0.00316539 0)
(1.39563 -0.00516037 0)
(1.3964 -0.00705757 0)
(1.39707 -0.00717882 0)
(1.39916 -0.0103651 0)
(1.39971 -0.0147144 0)
(1.40014 -0.0205806 0)
(1.40236 -0.0274563 0)
(1.40363 -0.0360723 0)
(1.40608 -0.0443161 0)
(1.40977 -0.056323 0)
(1.41313 -0.0718524 0)
(1.41667 -0.0893296 0)
(1.42061 -0.111603 0)
(1.42144 -0.138959 0)
(1.42059 -0.16366 0)
(1.4162 -0.194666 0)
(1.40755 -0.226677 0)
(1.00713 0.0334781 0)
(1.03393 0.0890935 0)
(1.07548 0.123186 0)
(1.12506 0.14139 0)
(1.17346 0.142281 0)
(1.21978 0.132679 0)
(1.26289 0.122906 0)
(1.29944 0.104001 0)
(1.33042 0.0853534 0)
(1.35579 0.0696931 0)
(1.37692 0.0569327 0)
(1.39184 0.0441662 0)
(1.40039 0.0335134 0)
(1.40791 0.0275275 0)
(1.41633 0.0246279 0)
(1.41898 0.0146955 0)
(1.42298 0.0115209 0)
(1.42676 0.0065383 0)
(1.42589 0.00344695 0)
(1.4286 4.76544e-05 0)
(1.42931 -0.000165941 0)
(1.42936 -0.00256068 0)
(1.42991 -0.00015339 0)
(1.42826 0.00165414 0)
(1.42666 -0.00160206 0)
(1.42666 -0.000514578 0)
(1.42812 -0.00250652 0)
(1.42993 -0.00108726 0)
(1.43209 0.00105751 0)
(1.43185 0.00264845 0)
(1.43107 0.00208938 0)
(1.43217 -0.000935756 0)
(1.43225 -0.00344698 0)
(1.43391 -0.007115 0)
(1.43568 -0.0066653 0)
(1.43524 -0.00995295 0)
(1.4362 -0.0110076 0)
(1.43644 -0.0176389 0)
(1.43569 -0.0225021 0)
(1.43766 -0.0294424 0)
(1.44045 -0.0383534 0)
(1.44232 -0.0465445 0)
(1.44334 -0.0580066 0)
(1.44584 -0.0721902 0)
(1.44735 -0.0892125 0)
(1.44832 -0.111091 0)
(1.4479 -0.136842 0)
(1.44619 -0.16128 0)
(1.43825 -0.189477 0)
(1.42725 -0.219735 0)
(1.00802 0.0264352 0)
(1.03371 0.0663878 0)
(1.07334 0.0948899 0)
(1.12267 0.108505 0)
(1.1729 0.110949 0)
(1.22332 0.107143 0)
(1.2689 0.0964928 0)
(1.308 0.0831352 0)
(1.34331 0.0680333 0)
(1.37234 0.0546119 0)
(1.39635 0.0443009 0)
(1.41385 0.033229 0)
(1.42524 0.0253134 0)
(1.43534 0.0200746 0)
(1.44267 0.0178934 0)
(1.44599 0.012719 0)
(1.45111 0.0107295 0)
(1.45382 0.00534093 0)
(1.45488 0.00290788 0)
(1.45842 0.00165362 0)
(1.45951 0.00113651 0)
(1.45988 -0.000551847 0)
(1.46053 -0.00104309 0)
(1.45709 0.000765265 0)
(1.45622 -0.00215726 0)
(1.45757 -0.00195773 0)
(1.45881 -0.00136323 0)
(1.46153 0.000761767 0)
(1.4629 0.00195053 0)
(1.46225 0.00109879 0)
(1.46126 0.00102845 0)
(1.4615 0.00065558 0)
(1.46155 -0.00272454 0)
(1.46431 -0.0067956 0)
(1.46561 -0.00727514 0)
(1.46574 -0.011368 0)
(1.4662 -0.0140984 0)
(1.46496 -0.0208743 0)
(1.46588 -0.0254944 0)
(1.46625 -0.0291718 0)
(1.46798 -0.039146 0)
(1.46955 -0.0495418 0)
(1.47051 -0.0601305 0)
(1.47112 -0.073626 0)
(1.4702 -0.0894146 0)
(1.46861 -0.110289 0)
(1.46787 -0.132771 0)
(1.46402 -0.157701 0)
(1.45427 -0.185664 0)
(1.44174 -0.210974 0)
(1.0061 0.0213315 0)
(1.03192 0.0462932 0)
(1.07304 0.0659064 0)
(1.1222 0.0756311 0)
(1.17416 0.0804038 0)
(1.22499 0.0780954 0)
(1.27222 0.0701009 0)
(1.31439 0.0596652 0)
(1.35157 0.0501946 0)
(1.3845 0.0394566 0)
(1.41057 0.0316886 0)
(1.42911 0.0232337 0)
(1.4429 0.0173511 0)
(1.45525 0.0137739 0)
(1.46423 0.0078949 0)
(1.46768 0.0067795 0)
(1.47162 0.00468428 0)
(1.47483 0.00323821 0)
(1.4769 0.0038117 0)
(1.48081 0.00318041 0)
(1.48116 0.00318183 0)
(1.48108 -0.000489461 0)
(1.4837 -0.00137392 0)
(1.48063 0.000185121 0)
(1.47785 -0.000147516 0)
(1.48028 -0.000884302 0)
(1.48285 0.000739507 0)
(1.48529 0.00236114 0)
(1.48574 0.00144799 0)
(1.48506 0.00121988 0)
(1.48484 -0.000396785 0)
(1.48435 -0.000322947 0)
(1.48247 -0.00292779 0)
(1.4861 -0.00539776 0)
(1.48838 -0.0102727 0)
(1.48692 -0.0113604 0)
(1.48717 -0.0159925 0)
(1.48646 -0.0230333 0)
(1.48835 -0.0278533 0)
(1.48766 -0.031645 0)
(1.48742 -0.0411863 0)
(1.48938 -0.0505004 0)
(1.48912 -0.0619968 0)
(1.48867 -0.0750876 0)
(1.48628 -0.0903719 0)
(1.48264 -0.107886 0)
(1.47987 -0.128096 0)
(1.47378 -0.152022 0)
(1.46369 -0.176587 0)
(1.45094 -0.201098 0)
(1.00438 0.0127202 0)
(1.02905 0.0289576 0)
(1.07077 0.0387006 0)
(1.12223 0.044533 0)
(1.17521 0.0452369 0)
(1.22636 0.0436107 0)
(1.27427 0.03976 0)
(1.31851 0.0335906 0)
(1.35817 0.0302805 0)
(1.39159 0.0240637 0)
(1.41934 0.0194613 0)
(1.44008 0.0139321 0)
(1.45556 0.00977112 0)
(1.46658 0.00940213 0)
(1.47572 0.002932 0)
(1.48186 0.00146893 0)
(1.48681 0.00118578 0)
(1.49103 0.00179649 0)
(1.49292 0.00211051 0)
(1.496 0.00218998 0)
(1.49496 0.0028084 0)
(1.495 -8.90461e-05 0)
(1.49935 0.000309561 0)
(1.4957 -0.000216575 0)
(1.49329 0.000141309 0)
(1.496 0.000861062 0)
(1.49895 0.00131313 0)
(1.50065 0.0028702 0)
(1.50077 0.00255698 0)
(1.5 0.00215323 0)
(1.49924 0.00102508 0)
(1.49926 -0.00245407 0)
(1.49779 -0.00336076 0)
(1.49941 -0.0046365 0)
(1.50214 -0.0113879 0)
(1.5029 -0.0129274 0)
(1.50045 -0.0143942 0)
(1.49962 -0.0216678 0)
(1.50326 -0.0269889 0)
(1.50128 -0.0347685 0)
(1.5003 -0.0411726 0)
(1.50134 -0.0484863 0)
(1.50015 -0.06068 0)
(1.499 -0.0719817 0)
(1.49553 -0.0881057 0)
(1.49107 -0.105526 0)
(1.48574 -0.122814 0)
(1.47877 -0.143968 0)
(1.46666 -0.165586 0)
(1.4515 -0.190036 0)
(1.00462 0.00459347 0)
(1.02852 0.00847306 0)
(1.07024 0.0102629 0)
(1.12076 0.013482 0)
(1.17385 0.0112226 0)
(1.22708 0.0107431 0)
(1.27611 0.00921196 0)
(1.32212 0.0106614 0)
(1.36194 0.0102943 0)
(1.396 0.00755281 0)
(1.42397 0.00421449 0)
(1.44424 0.00126972 0)
(1.46183 -0.00165354 0)
(1.47342 -0.000129865 0)
(1.48179 -0.000583035 0)
(1.489 -0.000199444 0)
(1.49447 -0.000234809 0)
(1.49806 2.57916e-05 0)
(1.49995 -0.00110856 0)
(1.5039 0.000208895 0)
(1.5023 0.000587366 0)
(1.50237 0.0014747 0)
(1.50666 0.000865443 0)
(1.5032 -0.00214701 0)
(1.50144 0.000699551 0)
(1.50421 0.00142845 0)
(1.50741 0.00268633 0)
(1.50927 0.0025683 0)
(1.50875 0.00436546 0)
(1.50771 0.00231894 0)
(1.50612 0.00111892 0)
(1.50573 -0.00132127 0)
(1.50532 -0.00324536 0)
(1.5058 -0.00472656 0)
(1.50817 -0.00993941 0)
(1.51091 -0.0119068 0)
(1.50785 -0.0143349 0)
(1.50554 -0.0174728 0)
(1.50784 -0.0234775 0)
(1.50703 -0.0331257 0)
(1.50749 -0.0395898 0)
(1.50656 -0.0462563 0)
(1.50427 -0.0561513 0)
(1.50142 -0.069158 0)
(1.4957 -0.0835743 0)
(1.49172 -0.100855 0)
(1.48583 -0.118183 0)
(1.47643 -0.137904 0)
(1.46312 -0.159445 0)
(1.44533 -0.181842 0)
(1.00287 -0.00183158 0)
(1.02588 -0.0112208 0)
(1.07007 -0.0155293 0)
(1.12124 -0.0195638 0)
(1.17389 -0.0228648 0)
(1.2272 -0.02245 0)
(1.27766 -0.0223708 0)
(1.32373 -0.0159642 0)
(1.36181 -0.0118903 0)
(1.39424 -0.0110973 0)
(1.42206 -0.0118729 0)
(1.44355 -0.00902677 0)
(1.4619 -0.00974056 0)
(1.47505 -0.00854406 0)
(1.48314 -0.00649426 0)
(1.48959 -0.00519477 0)
(1.49463 -0.001853 0)
(1.49779 -0.0029664 0)
(1.50047 -0.00240774 0)
(1.50461 -0.000614273 0)
(1.50334 -0.00248995 0)
(1.50273 0.000722451 0)
(1.50459 -0.00133529 0)
(1.50342 -0.00360595 0)
(1.50352 0.00168429 0)
(1.50531 0.00321634 0)
(1.50791 0.00390793 0)
(1.50996 0.00327001 0)
(1.50921 0.00375358 0)
(1.50632 0.00171087 0)
(1.50583 0.000566841 0)
(1.50547 -0.00252092 0)
(1.50481 -0.00438624 0)
(1.50466 -0.00396904 0)
(1.50754 -0.00716887 0)
(1.51066 -0.0080916 0)
(1.5083 -0.0138057 0)
(1.50575 -0.0160142 0)
(1.50546 -0.022167 0)
(1.50406 -0.029055 0)
(1.50543 -0.0364703 0)
(1.50465 -0.0453872 0)
(1.50021 -0.0540093 0)
(1.49615 -0.0669569 0)
(1.49052 -0.0805574 0)
(1.48441 -0.093821 0)
(1.47769 -0.113839 0)
(1.46705 -0.13135 0)
(1.45234 -0.152007 0)
(1.43436 -0.171362 0)
(1.00214 -0.0123138 0)
(1.02645 -0.0307781 0)
(1.07002 -0.0420794 0)
(1.11883 -0.0528277 0)
(1.17287 -0.0571819 0)
(1.22598 -0.0569107 0)
(1.27732 -0.0525807 0)
(1.32438 -0.0452739 0)
(1.35988 -0.0377534 0)
(1.39022 -0.0310544 0)
(1.41863 -0.0248831 0)
(1.43864 -0.0191308 0)
(1.45521 -0.0168368 0)
(1.46817 -0.0148612 0)
(1.47622 -0.0117017 0)
(1.48419 -0.00930748 0)
(1.48822 -0.00624091 0)
(1.49013 -0.00598932 0)
(1.49375 -0.00368024 0)
(1.49635 -0.0026882 0)
(1.4957 -0.00354719 0)
(1.49564 -0.000553363 0)
(1.49682 -0.00039741 0)
(1.49796 -0.00019026 0)
(1.49861 0.00252808 0)
(1.49841 0.0030518 0)
(1.50047 0.00452114 0)
(1.50266 0.0022211 0)
(1.5012 -0.000902994 0)
(1.49931 0.000812845 0)
(1.4968 0.000612841 0)
(1.49616 -0.00372189 0)
(1.49848 -0.00365913 0)
(1.49834 -0.00383774 0)
(1.50054 -0.00452459 0)
(1.50213 -0.00743822 0)
(1.49891 -0.0125549 0)
(1.49679 -0.017187 0)
(1.49645 -0.0228428 0)
(1.49532 -0.0270357 0)
(1.49532 -0.0337309 0)
(1.49396 -0.0460456 0)
(1.4895 -0.053833 0)
(1.48399 -0.0657819 0)
(1.47826 -0.0787551 0)
(1.47058 -0.0891355 0)
(1.4622 -0.106008 0)
(1.45165 -0.123277 0)
(1.43604 -0.141395 0)
(1.41875 -0.156899 0)
(1.00315 -0.0219155 0)
(1.02774 -0.0506188 0)
(1.06993 -0.0721378 0)
(1.11872 -0.0843074 0)
(1.17207 -0.0887002 0)
(1.22534 -0.0886542 0)
(1.27572 -0.0796807 0)
(1.32013 -0.0699818 0)
(1.35465 -0.0594401 0)
(1.38417 -0.0482374 0)
(1.40998 -0.0387328 0)
(1.42761 -0.0309092 0)
(1.44323 -0.0248191 0)
(1.45602 -0.0210819 0)
(1.46387 -0.014827 0)
(1.47033 -0.011373 0)
(1.47383 -0.0115062 0)
(1.47647 -0.00831533 0)
(1.47956 -0.00353623 0)
(1.4819 -0.0048472 0)
(1.48189 -0.00241742 0)
(1.48205 -2.37018e-06 0)
(1.4825 0.0011527 0)
(1.48318 0.00194361 0)
(1.48348 0.000916376 0)
(1.4846 0.000787199 0)
(1.48541 0.00338774 0)
(1.48489 0.000162844 0)
(1.48648 -0.003279 0)
(1.48556 -0.00138258 0)
(1.48133 -0.00143041 0)
(1.48159 -0.00231237 0)
(1.48373 -0.00271064 0)
(1.48335 -0.00549579 0)
(1.48509 -0.00707222 0)
(1.48613 -0.0101863 0)
(1.4831 -0.014455 0)
(1.4805 -0.0183944 0)
(1.48088 -0.0231303 0)
(1.47911 -0.026726 0)
(1.47609 -0.0338774 0)
(1.47504 -0.0436808 0)
(1.47138 -0.0509521 0)
(1.46461 -0.0636678 0)
(1.46047 -0.0746849 0)
(1.45198 -0.0859699 0)
(1.44048 -0.0991858 0)
(1.42917 -0.11511 0)
(1.41475 -0.130239 0)
(1.39693 -0.143152 0)
(1.0045 -0.0301473 0)
(1.02967 -0.0709262 0)
(1.07129 -0.100065 0)
(1.11936 -0.113722 0)
(1.17043 -0.11982 0)
(1.22324 -0.115888 0)
(1.27266 -0.105692 0)
(1.31476 -0.0933658 0)
(1.34665 -0.0787612 0)
(1.37256 -0.0641412 0)
(1.39676 -0.0499373 0)
(1.41248 -0.0404754 0)
(1.42505 -0.0297671 0)
(1.43739 -0.0246749 0)
(1.4448 -0.0205215 0)
(1.44853 -0.0145628 0)
(1.45243 -0.0106197 0)
(1.45706 -0.00768759 0)
(1.45797 -0.00337797 0)
(1.45899 -0.0042091 0)
(1.46093 -0.00340451 0)
(1.46018 -0.000775901 0)
(1.46035 0.000503565 0)
(1.46039 0.00102422 0)
(1.46059 -0.00235855 0)
(1.46274 -0.00101842 0)
(1.463 -4.74368e-06 0)
(1.46133 0.000272515 0)
(1.4634 -0.000598151 0)
(1.46352 -0.00177632 0)
(1.45945 -0.00250656 0)
(1.45901 -0.000964402 0)
(1.46044 -0.00432701 0)
(1.45954 -0.00542932 0)
(1.46204 -0.00820148 0)
(1.46259 -0.0111107 0)
(1.45932 -0.0155989 0)
(1.45692 -0.0184398 0)
(1.45758 -0.0233297 0)
(1.45573 -0.0277198 0)
(1.45221 -0.0319768 0)
(1.45085 -0.0395019 0)
(1.44533 -0.0473946 0)
(1.43804 -0.057008 0)
(1.43369 -0.0674589 0)
(1.42491 -0.0810223 0)
(1.41363 -0.093862 0)
(1.40163 -0.106255 0)
(1.38724 -0.119351 0)
(1.36887 -0.131236 0)
(1.00583 -0.0386752 0)
(1.03208 -0.091349 0)
(1.07387 -0.129684 0)
(1.12071 -0.147019 0)
(1.17027 -0.149281 0)
(1.22099 -0.141795 0)
(1.26604 -0.128575 0)
(1.30467 -0.113629 0)
(1.33454 -0.0973168 0)
(1.35885 -0.0771869 0)
(1.37803 -0.0605294 0)
(1.39115 -0.0479931 0)
(1.40217 -0.035258 0)
(1.4097 -0.0290544 0)
(1.41762 -0.0256015 0)
(1.42382 -0.0170802 0)
(1.425 -0.00942378 0)
(1.42818 -0.00660988 0)
(1.42874 -0.00639873 0)
(1.42878 -0.00332095 0)
(1.43137 -0.0041656 0)
(1.43133 -0.00278874 0)
(1.43088 -0.00105386 0)
(1.42878 -0.00128494 0)
(1.42965 -0.00366482 0)
(1.43335 -0.00142899 0)
(1.43383 -0.00151513 0)
(1.43235 0.000396277 0)
(1.43331 -0.000289429 0)
(1.43244 -0.00132842 0)
(1.43016 -0.00266384 0)
(1.42883 -0.00204322 0)
(1.42977 -0.00627632 0)
(1.43001 -0.00653151 0)
(1.43064 -0.00892473 0)
(1.43119 -0.0120545 0)
(1.42816 -0.0147721 0)
(1.42602 -0.0186286 0)
(1.42628 -0.021882 0)
(1.42542 -0.0279849 0)
(1.42109 -0.0312142 0)
(1.41834 -0.0383132 0)
(1.41366 -0.0455408 0)
(1.40574 -0.0518919 0)
(1.39949 -0.0630023 0)
(1.39019 -0.0750813 0)
(1.37983 -0.0862339 0)
(1.36783 -0.0968509 0)
(1.35336 -0.108873 0)
(1.33431 -0.121401 0)
(1.00754 -0.0473301 0)
(1.03393 -0.112336 0)
(1.07485 -0.159477 0)
(1.12373 -0.179295 0)
(1.17132 -0.177867 0)
(1.2173 -0.17032 0)
(1.25816 -0.151806 0)
(1.29137 -0.131534 0)
(1.31855 -0.111426 0)
(1.33923 -0.0897758 0)
(1.35396 -0.0725716 0)
(1.36437 -0.0561169 0)
(1.3711 -0.0437795 0)
(1.3766 -0.0348212 0)
(1.38458 -0.0258271 0)
(1.39056 -0.0193189 0)
(1.39074 -0.0143545 0)
(1.39066 -0.00915857 0)
(1.39166 -0.00824309 0)
(1.39223 -0.00537656 0)
(1.39327 -0.00548721 0)