/*--------------------------------*- C++ -*----------------------------------*\
  =========                 |
  \\      /  F ield         | OpenFOAM: The Open Source CFD Toolbox
   \\    /   O peration     | Website:  https://openfoam.org
    \\  /    A nd           | Version:  6
     \\/     M anipulation  |
\*---------------------------------------------------------------------------*/
FoamFile
{
    version     2.0;
    format      ascii;
    class       volScalarField;
    location    "0";
    object      p;
}
// * * * * * * * * * * * * * * * * * * * * * * * * * * * * * * * * * * * * * //

dimensions      [0 2 -2 0 0 0 0];

internalField   nonuniform List<scalar> 
13046
(
0.930183
0.939387
1.04197
0.937201
1.01812
0.977031
0.911824
0.980086
1.0334
0.563742
0.833985
1.03943
0.892806
0.940411
1.03942
0.646933
1.04726
0.817288
0.999645
1.00503
0.942292
0.634731
1.0464
0.823833
0.943424
0.969627
1.02425
0.878157
0.928223
1.04919
0.938156
0.926885
1.03698
0.96417
1.01818
0.965718
0.964649
1.01767
0.977443
0.963169
1.03883
0.879009
0.97409
0.999936
0.987201
0.963413
0.993304
1.00148
0.911696
0.94598
1.04208
1.02769
0.985803
0.813303
1.03239
0.785286
0.996825
0.809315
0.815249
1.05523
0.794073
0.965805
1.03867
1.04366
0.882598
0.680134
0.841885
0.80327
1.0524
0.860293
0.80702
1.05171
0.801388
0.798122
1.05372
0.996856
1.01742
0.924278
1.05515
0.753214
0.809682
0.930631
0.97331
1.02566
1.04243
0.873983
0.654814
0.649199
1.03854
0.92492
1.02813
0.597902
0.948638
0.800376
0.774869
0.912916
0.911717
1.04559
1.04972
1.03786
0.653297
0.938016
0.954303
1.0005
0.997047
1.01536
0.814551
1.02423
0.977726
1.03624
0.836149
0.463972
1.03385
0.787406
0.904587
0.950017
1.03324
0.779477
0.799615
0.880261
1.05024
0.895383
1.04946
0.543836
0.817622
1.03981
0.847812
0.910064
1.05183
0.950636
1.03995
0.885905
1.02233
0.62031
0.963999
0.72876
0.914367
1.04403
0.924674
0.92375
1.03748
0.851309
0.997162
1.02566
0.982322
1.0305
0.827762
1.01093
0.833651
1.02342
0.784007
0.952341
1.03763
1.02707
0.879513
1.00704
1.01529
0.762201
1.0066
0.750352
1.01352
1.01947
0.848205
0.99631
1.01526
0.56013
1.03649
0.852575
0.496701
1.03547
0.797486
0.71836
0.901204
1.04791
0.94309
0.848939
1.04734
0.857234
1.00952
1.00342
1.04058
0.876179
0.568534
0.950886
0.861152
1.04163
1.0236
0.863912
1.01012
0.868757
0.996484
1.02017
0.939981
1.04509
0.859324
0.924152
1.04537
0.635782
1.03859
0.897217
1.03098
0.651521
0.95595
0.604775
0.938145
1.02549
1.03187
0.774428
0.97495
0.8795
0.761291
1.05722
0.79893
0.917761
0.589161
1.03277
0.950809
1.01601
0.986482
0.894262
0.923847
1.04921
1.02888
0.64206
0.965624
0.863724
0.950538
1.04587
1.03444
0.832973
0.505791
0.983019
0.765751
1.02795
0.632557
0.946094
1.0294
0.795985
1.00211
1.0231
0.845348
0.901355
1.05233
0.990219
0.667175
1.01406
0.725492
1.00397
1.01461
1.03147
0.840498
0.484311
0.975208
1.04327
0.833819
0.494137
1.0355
0.747349
1.00154
0.941164
1.00038
0.800591
0.812469
0.991593
0.999757
1.02867
1.02266
1.05126
0.727371
0.807208
0.869042
0.903508
1.04835
0.713678
0.990353
1.02407
0.751656
0.898932
1.04712
0.984526
0.975913
1.005
0.769213
0.998152
1.02235
0.869809
0.886151
1.05109
0.866102
0.853163
0.976979
1.04159
0.821923
0.758098
0.987834
1.02547
0.724961
1.04671
0.900642
0.993116
1.03051
0.855978
1.0117
0.750859
1.0145
0.814603
0.866234
1.04959
0.980721
1.03145
0.814909
0.793735
0.777211
0.861894
1.05016
0.864237
1.05337
1.03984
0.879663
0.589863
0.819196
0.894353
1.05189
0.735117
1.03207
0.416587
0.911548
1.00216
1.00403
0.815355
0.967129
1.0375
1.04117
0.665778
0.905008
1.03298
0.763955
0.9951
0.979168
0.659318
1.02056
0.967244
1.03917
0.805965
0.946516
1.04296
0.968447
1.03482
0.673989
1.04714
0.826513
1.0382
0.763676
0.971246
0.786568
0.945085
1.04238
0.842224
0.994179
1.02936
0.822399
1.02207
1.00378
0.928255
0.958542
1.03292
0.99708
0.758617
1.01981
0.622379
0.915468
1.03335
0.980245
0.661965
1.02434
0.886785
1.04832
0.808956
0.768284
0.788312
0.84069
0.833535
1.04979
1.05044
1.03226
0.744369
0.439024
0.514057
1.03741
0.754943
0.7831
0.988875
1.02043
1.03816
0.623155
0.882587
0.847833
0.831225
0.836142
0.84007
1.05356
1.05342
1.02336
0.913313
0.535409
0.478338
1.03623
0.720559
0.952264
0.99077
1.00956
0.463016
0.759519
1.03451
0.924149
0.862566
1.04683
0.574306
0.886304
1.03914
0.764012
1.0268
0.351814
0.972521
1.0345
0.889249
0.919141
1.0059
1.01057
0.557784
1.04137
0.806592
0.90537
1.00659
1.01215
0.961698
0.992477
1.00543
0.994829
0.741701
1.03068
0.90743
1.02332
0.995788
0.918402
1.00864
0.994641
0.90569
0.805088
1.04723
1.04728
1.04584
0.83529
0.841335
0.606981
0.597994
0.595566
0.91493
1.03227
1.05359
0.877387
0.793518
0.959891
1.03918
0.856198
0.716676
1.00509
1.00527
0.823312
1.02429
0.393008
1.03001
0.58949
0.938745
0.510126
1.03711
0.813326
1.02634
0.744853
0.34477
0.709661
1.02879
0.383149
0.972686
0.740165
1.02813
0.886494
1.02144
0.47293
0.709106
0.922543
1.04255
0.617409
1.04525
0.778624
0.895188
1.03336
0.967726
0.921823
1.02663
0.553872
0.728798
1.00192
1.00892
0.983796
0.712964
1.03002
1.02574
0.657883
0.28165
0.762343
1.03044
0.392175
0.913545
1.03093
0.967115
0.90491
0.536092
1.02621
1.02502
0.511782
0.910215
0.631342
1.04041
0.87749
1.05091
0.830812
0.710191
0.922542
0.785598
1.05079
0.827251
0.811937
1.05597
1.05104
0.687334
0.794874
0.902661
0.888737
0.886749
0.879612
1.04843
1.04912
0.917819
0.879083
1.04728
0.863108
0.81715
1.05691
0.981954
0.684696
1.02378
0.908213
0.588881
1.03852
1.02727
0.678284
0.963693
0.709398
1.03044
0.408028
0.962209
0.951745
1.03885
0.904674
1.03861
0.918054
0.89476
0.900642
1.04987
0.830321
1.05291
0.838418
0.781393
1.02422
0.359239
0.907487
0.556481
1.02797
0.95613
1.03794
0.825354
0.996529
0.687155
1.01386
1.0516
0.828803
0.728598
0.802888
0.442595
1.03106
0.822655
0.453174
1.03068
0.831987
0.853805
1.05531
1.00056
1.02383
0.866639
0.610018
1.0406
0.860134
0.972595
0.718974
1.03587
1.04842
0.879869
0.707394
0.915636
1.05132
0.829196
0.806501
1.00916
1.01299
0.970356
1.03838
0.863542
1.03973
0.865192
0.58534
0.753619
0.88229
1.05028
0.973308
1.03348
0.902883
0.661246
1.04989
0.785183
0.915925
0.906953
1.04545
0.887099
0.995324
1.02426
0.986289
0.729367
1.02519
0.550913
1.04198
0.760837
0.571547
1.04343
0.759266
1.05004
0.86617
0.708355
0.786011
1.01815
1.00559
1.04052
0.741871
0.521831
1.04069
0.915014
0.68387
1.02445
0.733253
0.323443
0.363347
0.679631
1.02982
1.05125
0.810707
0.690729
1.03595
0.851903
0.535639
0.638682
0.658739
1.04282
0.839763
1.04445
0.854868
0.676304
0.929421
1.03836
1.0186
1.00547
0.689857
0.958472
1.02847
0.941837
0.689717
0.948043
1.0368
1.03543
0.698286
0.95659
0.710291
1.05147
0.789653
0.886858
0.817836
1.05431
0.909205
0.858268
1.04584
0.74844
0.957377
1.04288
0.734961
0.958589
1.03934
0.979792
1.02453
0.920814
0.88556
0.862456
1.05351
1.02447
0.934243
0.555151
0.44126
1.0275
0.839731
0.416138
1.02452
0.845241
0.944007
1.04456
0.875116
0.795919
1.02766
0.411828
0.733611
1.05003
0.866622
1.02695
0.803551
0.386298
0.943617
1.0136
0.98663
0.84566
0.939619
1.04198
1.02077
0.799517
1.00175
1.02227
0.894508
0.498457
0.973522
0.721546
1.03178
1.04707
0.640573
0.792549
0.818845
0.935734
1.05006
0.96519
1.02748
0.947712
0.882164
0.514307
1.0302
1.04626
0.89582
0.683682
0.539875
0.518856
1.03793
1.03687
0.792128
0.781534
0.82158
0.984684
1.03214
0.977665
0.758336
1.02453
0.899219
0.984548
1.03362
0.858575
0.466621
0.86583
1.02858
0.460977
1.02564
0.77464
0.922947
1.04899
0.512296
0.488217
0.870038
0.860627
1.0317
1.02837
0.766118
0.985269
1.03684
0.850918
0.964385
1.03787
0.595897
1.04592
0.778657
0.831399
0.970705
1.034
0.886552
0.979606
1.028
0.548201
1.04162
0.778188
0.821489
0.919686
1.04418
1.0201
0.718692
0.999652
0.921677
0.813456
1.04958
0.975558
1.01723
0.628506
1.02678
0.680669
0.308258
0.820114
0.959463
1.03988
0.610864
1.04266
0.811374
1.04457
0.77335
0.947951
0.415694
1.03363
0.702899
1.00711
0.997886
1.017
0.872306
1.02197
0.857869
0.902365
0.9931
1.02182
0.982847
0.997264
1.02754
0.883637
1.02735
0.875672
0.837064
0.968742
1.04084
0.849411
0.975932
1.03762
1.02324
0.858858
0.430147
0.931419
0.887408
1.04211
0.53684
0.866139
1.03596
0.740045
0.719025
0.944023
0.935851
1.03954
1.03777
0.927556
0.903566
1.04357
0.862152
0.850607
1.05144
0.779104
0.944767
1.04677
0.974824
0.959786
1.01547
0.71028
0.947091
1.03778
0.959215
1.02794
0.936329
0.779471
0.974016
1.03776
0.859179
0.868209
1.05194
0.971557
0.97749
0.945119
1.026
0.937523
1.02548
0.985674
1.01866
0.998683
0.917479
1.02671
0.887409
0.903779
0.890472
0.899443
0.90998
1.04804
1.04633
1.04993
0.842494
0.713239
0.994061
0.741328
1.02277
1.05077
1.04931
0.839108
0.85367
0.688699
0.682931
0.974094
1.03824
0.79261
0.978785
1.00634
0.976908
0.704004
0.935209
1.0397
0.9535
1.03864
0.898924
0.846119
0.870877
1.05231
0.754902
0.756805
0.836968
1.05378
0.851823
1.05187
0.750723
0.926088
1.04297
0.438188
0.725565
1.03424
1.04031
0.779105
0.956472
0.934632
0.939531
1.04585
0.789258
1.04967
0.79507
0.693626
0.970463
1.02899
0.87633
0.848018
1.052
0.965514
1.03907
0.802681
0.937786
0.936868
1.04268
1.05067
0.828305
0.830101
0.931406
1.04907
0.808679
0.755778
0.936576
1.0445
0.972103
1.02578
0.932697
0.578222
1.03992
0.812979
0.958954
1.04253
0.79305
0.849264
0.8272
0.882913
0.878292
1.04948
1.05465
1.04292
0.819025
0.595832
0.594566
1.04505
0.790818
0.573209
1.04145
0.795017
0.734137
1.05171
0.853254
0.887369
0.859956
1.05132
0.972397
1.01241
1.04198
0.97578
1.03305
0.859269
1.02215
0.975822
0.991214
1.02775
1.02619
0.98736
0.979036
1.03027
1.00847
0.989436
0.971594
1.01352
1.01177
1.0194
1.01139
1.01012
1.02834
1.04569
1.04445
1.01426
1.03671
0.99014
1.01698
0.970158
0.994356
1.01899
1.01706
1.00729
0.999904
1.0208
1.03936
1.02876
0.980415
1.00392
1.01142
1.03239
1.00294
1.02847
1.03096
1.00963
1.0121
1.01218
0.987945
1.00554
1.04458
1.00802
0.990935
1.01967
0.993578
1.04204
1.02231
1.01717
1.01707
1.02753
1.00557
1.00402
1.04447
0.981704
1.01869
1.02244
1.01574
1.0516
1.02873
1.02533
0.996625
1.00315
1.00298
1.02194
0.998958
1.0048
1.01049
0.998037
1.02511
1.03243
1.01157
1.01543
0.986753
0.992343
1.01008
1.02779
1.00904
0.97108
1.01067
1.04606
0.992328
1.02692
1.04455
1.00631
0.982452
0.805293
1.0015
1.01372
0.982408
0.994129
1.02358
1.02988
1.03418
1.05098
0.989372
0.961771
0.986109
0.997136
1.00313
1.03904
1.03117
1.01569
0.993335
1.00408
1.00577
1.02835
1.01291
0.972857
0.993492
1.01061
1.00992
1.04824
1.04679
1.02304
1.01651
1.00368
0.992643
1.05025
0.945374
1.0208
0.995946
1.04434
0.988312
0.894933
0.964336
1.03213
1.0027
0.980903
0.999498
1.02017
0.983796
1.02762
1.0128
0.998641
1.03323
1.02076
0.988452
1.03544
0.998618
1.01487
0.987551
1.01611
0.981476
1.03735
1.02605
1.01042
1.0236
1.02815
1.04111
1.01007
1.00134
0.99775
1.02718
0.945839
0.996534
0.987766
1.04068
1.0128
1.03711
1.04668
1.0138
1.05141
1.03856
1.0395
0.987079
0.993076
0.990742
1.04191
0.990454
0.98535
0.933706
0.986235
1.01181
1.01674
1.01675
1.04738
1.02484
1.00898
1.03002
1.01622
1.0344
0.888577
1.03032
1.00435
0.995979
1.04048
1.04363
1.00233
1.01257
1.04125
1.01683
0.963577
0.999895
1.02232
1.03838
1.01954
0.98993
1.01758
1.02907
1.01522
1.01151
0.971171
0.924767
0.99658
1.00445
1.0112
0.994677
0.971582
1.03025
1.0101
0.99447
1.01576
0.994001
0.991855
1.01996
1.01966
0.98795
0.98611
0.958619
1.02006
1.00927
0.999136
1.01559
1.02055
0.991912
1.0152
1.00938
0.986263
1.00648
1.03452
1.01254
1.04435
1.04038
1.03311
0.98566
0.983916
1.01193
1.01354
0.990706
0.997635
1.01784
1.03887
1.02672
1.01342
0.986795
1.00605
1.01759
1.01334
1.02154
0.99838
1.0152
1.00968
0.918606
0.992246
1.00161
0.989819
1.00594
1.01914
1.01702
1.01326
1.02127
0.986529
1.00984
1.00878
1.01385
1.00241
1.01676
1.01556
0.990244
0.9741
1.01273
0.986912
0.98207
1.01168
0.90433
0.984345
1.03621
1.01638
0.997209
1.00675
0.995588
1.01723
0.969179
0.91762
0.98722
1.02952
1.01137
1.02791
0.855427
0.98348
1.03777
1.00924
0.966115
0.972163
0.987186
0.990479
0.984062
1.01819
1.02307
0.994781
0.989152
1.0041
1.00504
1.03465
0.953036
1.02426
1.02036
0.902082
1.00017
0.990355
0.993568
1.01895
1.01836
1.03999
1.01547
0.984464
1.01073
1.0091
1.04832
1.02172
1.03934
1.02394
1.00872
1.01702
1.01184
1.00211
0.990354
1.01126
0.977025
1.02064
1.01469
0.993067
0.989242
0.985537
0.986965
0.972438
1.03343
0.990913
1.00295
1.04125
1.0349
0.994057
0.990592
1.03966
0.992734
0.898166
1.00979
0.994466
0.989697
1.03902
1.01091
1.0061
1.03868
0.993523
1.01602
0.999822
1.01593
1.01176
1.00605
0.811074
0.990843
0.994924
0.993517
1.01053
1.00892
1.02667
1.04253
0.983245
1.00433
0.982807
0.944985
0.986483
1.03248
1.01341
0.99496
0.998495
1.01788
0.986827
0.972102
0.983606
0.99564
1.00841
1.0448
1.00683
1.02064
1.05349
1.03229
1.03218
1.04106
0.970375
1.00383
0.989985
1.04413
1.03127
1.03655
1.01096
1.00539
0.997127
1.02366
0.993838
0.94989
1.03701
1.01599
0.949107
0.989447
0.997954
0.989065
0.999155
1.01069
1.01209
0.984637
1.00153
0.988827
1.00066
0.991338
1.01426
0.967538
0.995558
1.03736
1.04025
1.02433
1.02031
1.01755
0.893149
1.02395
1.01095
0.978695
1.03785
0.875041
1.04029
1.0029
1.014
1.00951
1.02169
1.02583
0.984168
1.04233
0.980862
1.03519
1.016
1.00422
1.00367
0.971152
1.00633
1.0373
1.00491
1.04572
1.01982
0.988286
0.96044
1.02161
0.889317
1.02018
1.01544
0.990386
1.0452
0.937827
0.933018
1.02928
1.01399
1.04025
1.04505
1.00478
1.04921
1.04801
1.03123
1.03691
1.02042
0.986406
1.00372
1.01245
1.03127
1.00525
0.870588
1.04261
0.997303
1.00416
1.0023
1.03927
1.03612
1.00881
1.03263
1.01677
1.04328
0.989173
1.02647
0.998727
1.04621
1.04581
1.02684
1.00273
1.02876
0.991037
0.979299
1.0129
1.007
1.01761
0.968145
0.886044
0.989321
1.00859
1.02136
1.01284
1.03889
1.00455
0.990909
1.02042
0.990093
1.03952
0.974476
0.998184
1.03925
1.03545
1.01422
1.04338
0.982137
1.0107
1.0287
1.00046
0.969412
1.01212
1.00482
1.01935
1.0254
1.00444
0.992786
1.01487
0.99215
0.98496
1.04408
1.05312
1.04799
0.971469
1.0543
1.03853
1.04568
0.990887
1.02291
1.01879
1.04101
1.0193
0.977916
0.991959
1.00227
0.863466
1.0462
1.00903
1.00701
1.02698
1.02555
1.01104
1.00089
1.03768
1.0496
1.03639
1.02397
1.00329
1.01871
1.02345
1.01719
1.00453
1.00348
1.00644
1.01159
1.0153
0.999985
1.04306
1.04196
0.98721
1.03242
0.997311
0.987
1.0004
1.04318
1.01103
1.02227
1.01252
1.03585
1.01442
1.01508
1.05002
1.00187
0.989527
0.986014
0.987464
0.979196
0.794335
0.993046
0.988358
1.01642
0.987645
1.0064
1.01464
0.997753
0.990265
1.00083
1.00593
0.808444
1.04831
1.02331
1.0147
0.988415
1.02325
1.00445
0.977757
1.04462
0.99528
1.04864
1.00731
1.03444
0.9675
0.923763
1.00324
1.01147
1.01301
1.01675
0.925742
1.01684
1.01137
0.990477
0.978875
1.00014
1.00422
1.04432
0.970008
1.02099
1.02857
1.02123
0.999717
1.02875
0.989842
0.794403
1.01464
0.992115
0.980013
1.02616
1.02471
1.01297
1.02144
1.00704
1.0505
1.04774
1.00878
1.00573
1.04326
1.03774
1.02223
1.02003
1.01368
1.04964
1.00085
0.986826
1.03837
1.03486
1.04307
1.01594
1.00806
0.999463
1.02479
1.01933
0.755861
1.03022
1.01427
0.987722
1.01008
1.02929
1.05229
1.03974
1.02003
1.00312
1.02939
1.0383
1.03724
1.0261
1.03304
0.927931
0.988549
1.01542
0.988982
0.930335
0.992351
1.01455
1.02765
0.994956
1.01287
0.976527
1.00838
1.03971
1.00776
0.991572
0.9881
0.99087
1.01278
0.998266
0.998018
1.0372
1.01691
1.01729
0.981727
1.02084
1.00194
0.995709
1.02564
1.02619
1.03977
1.03617
0.991453
1.03989
0.989121
1.04117
1.03731
1.04137
1.0319
0.989251
0.988641
1.01086
0.982572
0.999093
0.997925
1.00538
0.983265
1.03192
1.01887
0.986104
1.03531
1.01802
1.01107
1.01517
1.02164
1.04153
1.0203
1.01328
0.988673
1.03427
0.973553
1.04783
0.982717
1.016
1.0383
1.02649
1.04461
1.03008
1.0165
0.9719
0.989995
1.01284
1.00292
1.04681
0.974198
0.974504
1.01138
1.01375
1.01595
0.987012
1.0349
1.02262
1.01813
0.891255
1.01148
0.963563
0.979831
1.00852
1.01139
1.00794
0.998612
1.0298
0.986652
1.05417
1.01284
0.965708
1.02192
1.0176
1.04581
1.0063
0.996467
0.986758
1.00299
1.01126
1.04055
0.999361
1.01452
1.01503
1.03464
0.99871
1.01412
1.00234
1.04047
0.983495
0.986166
0.946815
1.03411
0.98685
1.00073
0.990876
0.996297
1.04399
1.01207
1.02512
1.03459
1.02443
0.958844
1.03903
0.982732
1.02223
1.0225
1.00685
0.990286
1.01263
1.00514
0.984189
1.00787
0.951291
0.989275
1.01096
0.956973
0.997257
1.03458
0.995645
0.995312
1.00622
1.04725
1.01064
0.986127
1.02195
0.992424
0.997282
1.0143
1.01097
1.01852
1.01598
1.04396
1.01668
1.02842
1.01744
1.03945
1.04696
1.04164
0.962378
1.00401
1.01726
0.983092
1.05048
1.03765
1.03365
1.01095
0.98558
0.986223
1.01779
1.02836
0.980601
1.03415
1.03655
1.02193
0.989158
0.988224
0.992565
0.965752
1.0093
0.981344
1.01622
0.999949
1.01973
0.992996
1.00926
0.985809
1.0189
1.02006
1.02263
1.00938
1.01671
1.04019
1.04598
1.01163
1.00783
1.02785
1.01542
0.996819
1.00467
1.01475
0.995651
1.04392
1.01174
1.01496
1.02398
1.02588
1.00961
0.948441
1.05453
1.01702
1.01007
1.01422
1.01361
1.02781
1.0392
1.01633
1.01912
0.982884
1.0006
1.00654
1.02156
1.01651
1.00941
1.01354
1.04474
1.02009
1.01187
1.03762
1.01613
0.989953
1.00722
1.05079
0.992179
0.984328
1.00691
1.05272
1.00722
1.01312
1.02811
1.03004
1.03514
1.01417
0.986317
1.01888
1.00155
1.00817
1.03357
1.00854
0.984815
0.98072
1.009
1.01996
0.998855
0.98937
1.03993
1.01287
1.03843
1.03367
0.98525
0.980891
1.01072
1.02995
1.03744
1.00898
1.00621
0.959293
1.01148
1.00649
1.03681
1.04087
1.03114
0.989711
0.982217
1.03572
1.05098
1.04454
1.03041
1.04025
1.0087
1.00738
0.980526
0.984223
1.04559
1.01507
0.92374
0.995879
1.05071
1.01275
0.988388
0.988428
1.01134
1.00425
1.04538
1.01652
1.02489
1.03774
1.03918
1.0035
1.01855
1.01117
1.01708
0.988803
1.02146
1.00561
1.0411
0.925777
1.01769
0.904522
1.00935
1.04002
1.02064
1.03225
1.04041
1.03973
0.997505
1.01234
1.00701
0.971947
1.04161
1.01828
1.00557
1.01652
0.862418
0.995685
1.03691
1.02023
1.04421
0.983192
0.990885
1.01126
1.04089
0.933406
1.00332
1.00833
0.94347
0.98481
1.03844
0.986324
1.00639
0.986864
1.04491
1.04494
0.864846
1.03256
1.01661
0.997907
0.988187
1.01186
1.00573
1.01671
0.997379
1.01433
1.00799
1.01842
1.00856
1.0337
1.00341
0.984872
1.0057
0.982331
0.990538
1.00764
0.959917
1.00912
1.00111
1.01477
1.03764
1.01848
1.01425
0.919024
1.0372
1.00407
1.00679
1.05131
1.0153
1.0145
0.937917
0.924528
1.04107
0.994116
1.01342
1.02053
1.0027
1.03847
0.920212
1.03883
1.01068
1.02896
1.00925
1.02254
1.01032
0.990569
1.00066
1.01022
1.0435
0.980737
0.990513
0.997345
1.0484
1.05199
0.956115
1.00664
1.01531
1.03653
1.00723
1.04354
1.03455
1.03324
1.03098
1.01434
1.00714
0.990361
1.04143
1.00342
1.0131
0.95901
0.988231
0.999546
0.986774
1.04163
0.938325
1.04233
1.00534
1.04138
1.01583
1.04043
1.02758
1.02532
1.04272
1.04045
1.05276
1.01044
1.03608
1.00509
1.01492
0.994796
0.999195
1.04452
0.939297
1.01014
1.01968
1.01072
1.01839
1.01267
1.04202
1.00817
1.02945
0.985567
0.992299
1.01736
1.04367
0.957192
1.02194
0.991859
1.01637
0.986629
1.00934
1.0201
1.02924
1.04357
0.988557
1.00897
1.01186
1.01714
1.03427
0.968187
0.986578
1.04991
0.981745
1.00822
1.0278
1.04078
1.04265
0.988025
0.996656
0.99746
0.996266
0.973466
1.01188
1.01823
1.01288
0.997876
1.00738
1.01216
1.00151
0.975169
0.998361
1.0121
0.991687
1.02907
1.0277
0.980547
1.03032
0.926191
0.998276
0.950112
0.999098
1.04473
1.01597
1.01535
1.01357
1.03627
1.04039
1.01336
1.03114
0.974878
1.01255
1.00915
1.01551
0.989773
1.04275
1.01483
1.00477
1.04904
1.03274
0.994713
1.04127
0.985071
1.01485
1.0133
1.01681
0.961576
1.04428
1.01114
1.01397
1.0148
0.998444
0.990819
0.997456
1.02665
1.03451
1.03729
1.0127
1.01969
1.04637
1.02579
1.01071
1.00577
0.998295
1.00804
1.03247
0.991645
1.03898
1.01405
1.0415
1.05412
1.0425
1.0099
1.02843
1.03643
0.908283
1.04803
0.945732
1.04256
1.03201
1.01188
1.01158
1.0093
1.01045
0.943313
0.972231
1.0177
0.981013
1.04667
0.989065
0.993455
0.969505
0.985228
1.01546
1.03541
1.05292
0.988233
1.02179
1.01512
1.01346
1.00691
1.01356
1.03998
1.03158
1.01161
1.03832
1.03216
1.04767
0.989572
0.994671
0.981258
1.03114
1.04928
1.035
1.01258
1.04094
1.0115
0.982505
1.01008
0.980086
1.00106
0.989126
1.05168
1.03844
1.01746
1.05605
1.03146
1.00944
1.04114
0.994838
1.04295
1.00634
1.04159
1.00694
0.987879
1.02835
1.01909
1.04256
1.04247
1.04238
0.985811
0.981915
0.977904
1.03796
1.03204
0.958803
1.00466
1.03304
0.990201
1.0074
0.990461
1.00079
1.01888
1.0021
1.01282
1.00865
1.01522
1.01877
1.02541
1.00845
1.00061
1.01663
1.01673
1.01061
1.03764
1.04741
0.957543
1.03106
0.990084
1.00234
1.04149
1.03243
1.00324
1.04269
0.990874
1.0276
1.00495
0.994659
1.03734
1.00736
1.03067
1.02643
1.02584
1.04393
1.02586
0.997309
1.02321
0.992672
1.02947
1.03705
1.02274
1.00872
0.988978
0.994404
1.03768
1.00202
1.0291
0.984305
1.01254
1.03345
1.02852
1.01137
1.03923
1.04177
0.999972
1.00661
1.01886
0.989103
0.998643
1.01264
1.02571
1.01087
0.994005
0.954264
0.983969
1.02554
1.00906
1.02991
0.993817
1.04374
1.01827
1.03957
1.05124
1.00687
1.04025
0.995403
1.0179
1.00362
1.0381
0.982986
1.00982
1.00474
0.986488
1.00642
0.994373
0.984099
0.989045
1.04839
1.05329
1.01401
0.986837
1.02856
0.98554
0.96099
1.01085
1.02527
1.02629
0.989624
0.988309
1.04259
0.985083
1.02016
0.988035
0.994296
1.00894
0.986663
1.03815
1.01773
0.997425
1.04403
1.0378
0.996794
1.01971
1.01136
1.05279
1.01314
1.00585
0.991109
1.02072
1.0485
1.01993
0.972003
0.992721
1.0059
1.01991
1.042
1.05392
0.984445
1.04145
0.994885
1.015
1.01847
1.01017
1.00394
1.03895
0.95792
1.0187
0.979557
0.993057
0.975718
0.99024
1.02554
1.04268
0.995102
0.998818
1.01707
1.00294
0.951125
0.976701
0.998608
1.03361
0.900174
0.998563
1.02516
1.01568
1.01189
1.02008
1.03626
0.933011
0.92918
1.03637
1.01251
0.952749
1.0079
1.03716
1.02517
1.01282
0.97928
1.01778
0.982967
1.04217
1.03425
1.04929
1.00956
1.02487
0.994265
1.01666
1.03842
0.986725
0.997023
1.02679
1.03406
0.991643
0.994084
0.973619
0.934468
0.976942
1.05509
1.00473
0.992084
0.967904
0.988633
1.02987
0.984096
0.99715
0.988593
1.03485
1.0077
1.04372
0.995895
1.00934
1.01944
1.01896
1.00673
1.02178
0.985398
1.04325
1.03219
1.02023
1.03988
1.00043
1.04028
1.01711
1.01073
1.04094
0.984173
1.0033
1.03826
1.01741
0.987584
0.995101
1.0306
1.03954
1.01453
1.02939
0.977438
0.992517
0.985611
0.976636
1.03824
0.999267
1.01201
1.04863
1.01078
0.938187
0.987781
1.01466
0.9863
1.00719
0.991906
0.998195
1.00406
1.03001
1.04294
1.025
0.984216
1.00622
0.9855
1.00976
1.02424
1.01115
1.01633
1.02734
1.00664
1.01081
1.03691
1.03448
1.04275
1.04032
1.04103
1.0101
0.993982
0.990165
0.988691
1.04143
1.01641
0.995629
1.04133
0.997407
1.0348
1.03015
0.993668
0.983081
1.00377
1.01447
1.03433
1.00618
1.02483
1.01428
1.044
1.02009
1.03958
0.997897
1.01293
0.999755
0.988209
1.00458
1.03482
0.947216
0.857177
1.0111
1.03774
1.02985
1.00892
0.988361
0.986944
1.00145
0.984897
1.00975
1.01122
0.992541
1.02746
1.01461
0.989551
1.02397
1.00366
0.981745
1.03154
1.0011
1.00933
0.981519
1.02765
0.997289
0.989732
1.0054
1.00414
0.998183
0.989621
0.936526
1.03228
1.0472
1.0372
1.01773
1.0284
0.994552
1.04061
1.01736
1.02399
0.971298
1.02749
0.998479
1.00651
1.03198
1.04653
1.03312
1.01439
1.01936
1.04586
0.996358
1.03335
1.04203
1.02358
1.00962
0.99165
1.03506
1.00698
0.998557
1.02093
1.01093
1.04518
0.996019
1.0491
1.04378
1.01225
0.998048
1.04335
0.988635
0.997062
1.00434
0.991577
1.00212
0.999418
0.99597
1.01461
0.986531
0.986513
1.01148
1.01203
0.999622
1.00146
1.01831
1.01313
1.00576
1.04095
1.05121
1.04897
0.988715
1.00254
1.03526
0.986855
1.01437
0.965007
1.01168
0.966058
1.02776
1.01321
1.01267
0.991753
0.985407
1.00084
1.01894
1.00227
1.01089
1.01495
1.00701
1.04176
1.02109
1.02243
0.999845
1.03683
0.996851
1.01411
1.05288
0.996457
1.00356
0.990467
1.02532
1.05198
0.994263
1.01794
1.00668
0.987674
0.981676
1.01074
0.9857
1.02753
0.996883
1.01004
1.01257
1.01169
0.989197
1.0108
1.01222
1.00361
1.01855
1.04842
1.01316
1.00526
1.00963
1.04687
1.01495
0.985443
1.03243
0.988147
1.01248
0.978327
0.999244
1.00348
0.949408
0.993666
1.04728
1.0351
0.982516
1.01636
0.990902
0.972377
0.985503
0.987296
0.997616
0.994094
0.997607
1.02331
1.05625
1.00862
1.02833
1.01296
1.04277
1.01586
1.05405
1.01788
1.00037
1.02279
1.03197
1.00969
1.03598
0.979008
1.03769
1.00789
0.856291
1.01405
1.05287
1.053
1.02477
1.02455
1.02751
1.00275
1.00545
1.02434
1.03809
0.87431
1.00785
0.975129
0.998929
1.01533
0.982683
0.986767
0.998131
0.994419
0.989706
1.00352
1.01267
1.04295
1.0374
0.989487
1.03399
0.987579
1.01424
1.03477
1.01489
1.01223
1.02241
0.879551
0.993166
1.01612
1.03832
0.994078
1.00014
1.01629
1.02155
0.986909
1.04506
0.996189
1.01734
1.01399
1.00795
1.02293
1.02335
1.04722
0.979014
1.03169
1.0106
1.02142
0.988935
1.02134
1.00559
0.983605
0.990842
1.00987
1.0084
1.01492
1.04162
1.01161
0.978253
1.02369
0.996207
0.993168
1.01316
1.01677
0.992368
1.05547
0.993663
0.996773
0.995746
1.0135
0.991241
0.962049
1.02867
1.00626
1.01125
0.997499
0.979798
1.00723
0.936535
1.0507
1.04347
0.994063
0.989408
1.04014
1.00014
0.99089
0.985067
0.975647
1.00355
1.01292
1.04006
0.992259
1.0019
1.02322
1.01276
0.996073
0.994169
1.00947
1.02714
1.05383
0.993319
0.981127
1.01539
1.0386
1.00618
1.01655
1.01152
0.981454
1.01586
1.02001
1.0071
0.98519
1.0288
1.01405
0.978237
1.0144
0.993586
1.03319
1.04182
0.992641
1.01522
1.0096
1.01499
0.991887
1.01793
1.00503
1.04229
1.03391
1.02529
0.99565
0.999075
1.03017
1.04276
1.00398
1.01373
1.00791
0.991902
1.00914
1.01266
0.986769
0.914825
0.99726
1.00861
0.995535
0.991038
1.00771
1.0067
1.0316
0.990218
0.991033
1.00028
0.988479
1.03212
0.98974
1.01904
1.01097
0.985857
1.01873
1.02066
1.01745
1.01047
1.02624
0.995346
0.994404
1.04378
0.98237
1.04212
1.01717
1.00144
1.00805
1.03697
1.0134
0.988248
1.04556
0.978547
1.00747
1.03933
0.982013
1.05046
0.99392
1.01397
0.905613
1.01706
0.98882
1.01736
1.00032
0.982071
1.0042
0.984392
0.994529
1.04157
0.985821
1.01082
1.01909
1.01401
1.04244
1.04518
1.00592
0.979544
1.03495
1.00136
1.04024
0.999314
1.0051
1.01944
1.00714
1.03334
1.01148
1.01547
0.998478
1.01649
0.964797
0.977288
1.03774
0.807887
1.04579
1.02537
0.996869
0.990358
1.00722
1.05345
1.02466
1.02238
1.01531
1.01937
1.01252
1.03891
1.03271
0.988649
1.02114
1.0478
1.0095
1.01276
1.01803
0.993552
0.992271
1.02483
1.01735
1.00985
1.05006
0.986599
0.999887
1.01708
1.00603
1.00532
1.05026
0.994767
1.00055
0.999658
1.0094
0.993558
1.03858
0.983714
1.01149
1.00335
1.0072
0.986346
0.983881
1.02162
0.982065
0.987682
1.04169
1.00941
1.01252
0.988016
0.987573
1.00287
1.04099
1.04784
1.00994
1.00375
1.00686
1.03487
1.05045
0.997336
1.04163
1.00349
1.02216
1.01774
1.03787
1.00747
1.0364
1.04593
0.98677
0.977584
1.01072
1.00539
1.00911
0.915363
0.938147
1.02436
1.03377
0.990915
1.04372
1.01035
1.02599
1.01287
0.989161
1.03508
1.03167
1.0139
0.981408
0.990379
1.04214
1.03038
1.03687
0.984667
1.00828
1.01934
1.03484
1.02227
1.02895
1.01023
1.04941
1.00809
1.00618
1.01208
1.00782
1.01255
0.918782
1.0328
1.01289
1.01575
1.04203
0.983742
0.991138
0.997902
0.999538
1.03935
0.99666
1.02115
0.924258
0.998341
1.00974
0.997033
0.991789
1.03015
0.989745
0.992265
1.01257
1.01684
1.04572
1.00252
1.01031
1.03768
1.00714
1.04145
1.00692
1.02225
1.00601
0.999295
1.05032
0.987761
0.997557
1.01421
1.04092
1.02583
1.00916
0.973962
1.04425
1.01853
1.01025
1.02697
1.0407
1.02717
1.02093
0.98796
0.983504
1.0059
0.989543
1.01579
1.01401
0.987052
1.04723
1.03907
1.04016
1.01921
1.01426
0.989413
1.00717
1.02726
0.991495
1.0235
1.04096
1.00739
1.01388
1.01395
1.03374
1.01996
1.01379
0.987743
1.02492
0.975725
0.91674
1.00183
1.05034
0.986681
1.03242
1.00835
0.974887
1.03919
1.01221
1.05341
0.867375
1.01644
1.02087
1.04297
1.00781
1.04294
1.01133
0.985454
1.00415
1.00936
1.00985
0.982142
1.03303
1.01278
0.993636
0.98367
1.00736
1.02876
0.977961
1.01814
1.03757
0.992694
1.03922
0.993696
0.968189
0.982612
1.0091
0.994256
0.989901
0.974017
0.976488
1.00957
1.00528
1.02797
1.01097
1.03836
0.98254
1.01786
0.990073
0.998623
0.98176
1.02114
1.0408
0.998449
0.996697
1.05573
1.00925
1.0206
1.02529
1.00516
1.01511
1.01671
1.01473
1.04376
1.04034
1.04138
1.01599
0.997473
0.998303
1.00549
1.04116
1.01948
0.999732
0.965311
0.997784
1.01563
1.05245
1.01041
1.05122
0.99771
1.0115
1.00629
0.982294
1.00411
0.999199
1.03903
0.990168
0.994508
0.993528
1.04942
1.01635
0.992863
0.987706
0.979203
1.03
1.01142
1.00533
0.995416
1.01372
0.989991
1.01023
1.00244
0.988586
1.03708
1.03994
1.00725
1.04236
1.04571
1.03848
1.00939
1.00299
1.00143
1.0116
1.04903
1.01316
1.01715
1.03671
1.04038
1.04224
1.04315
0.980714
1.02696
1.01346
1.00953
0.984518
1.00933
1.03491
1.05411
1.04637
0.98357
1.00258
0.988508
0.931521
1.00623
1.05417
1.01248
1.03229
1.03132
1.02951
1.02532
0.974012
1.00457
1.00073
0.988559
0.992516
1.01014
0.986548
0.982446
0.982011
1.04499
1.01812
0.987963
1.0457
0.98235
0.995477
1.01139
0.986329
1.02364
1.02682
0.985114
1.00465
1.05046
1.04065
1.02457
1.02372
0.999104
1.01243
1.01024
0.981857
1.01904
1.01116
0.978939
1.02455
1.01938
0.993017
0.830807
0.972263
1.04998
0.993655
1.02467
1.01594
1.03955
1.01168
0.98504
1.03338
1.0248
1.02114
1.01255
1.0025
0.991229
0.982841
1.02472
0.980315
1.03223
1.02016
0.994215
1.01792
0.992553
0.99544
1.03875
1.00801
1.02276
0.988546
0.994205
0.989041
1.004
1.03567
1.03976
1.01375
1.04534
0.984535
1.04438
1.03516
1.02689
0.990299
1.03783
0.987265
1.02163
1.01734
0.910666
1.00662
0.988336
1.04522
1.02444
0.977844
0.992806
1.00959
1.01258
1.03069
1.0108
1.01103
1.0518
0.970012
1.04865
1.01296
0.991899
0.991816
1.03313
0.991587
1.04337
0.824102
0.994961
1.02323
1.03386
1.01399
1.02056
0.995868
0.997275
1.02813
1.02498
0.976979
1.02573
1.00782
1.04192
0.916204
1.01432
0.975377
0.983733
1.01392
0.986018
0.859224
0.970576
1.04722
1.01777
0.996061
1.04155
0.996693
1.0283
0.942797
0.996228
0.992858
1.04217
1.04538
1.02296
1.01305
1.01385
0.961326
1.01891
0.985174
1.04092
0.939004
1.00728
0.954577
0.992872
1.01044
1.04146
1.00739
1.01024
0.994558
0.998344
1.03063
1.00862
1.01197
1.0387
1.02437
0.979539
1.02606
1.03843
1.00889
0.946523
0.991588
1.0108
0.9833
1.01028
0.894206
1.01782
1.01564
1.03903
1.00257
1.03155
1.03466
1.01419
0.984048
1.00489
0.975135
1.00567
0.978205
1.01253
1.01767
1.0139
1.04132
1.03393
0.949137
1.05012
1.0098
1.03734
1.02385
1.01204
1.01634
1.01298
0.986988