/*--------------------------------*- C++ -*----------------------------------*\
  =========                 |
  \\      /  F ield         | OpenFOAM: The Open Source CFD Toolbox
   \\    /   O peration     | Website:  https://openfoam.org
    \\  /    A nd           | Version:  6
     \\/     M anipulation  |
\*---------------------------------------------------------------------------*/
FoamFile
{
    version     2.0;
    format      ascii;
    class       volScalarField;
    location    "0";
    object      p;
}
// * * * * * * * * * * * * * * * * * * * * * * * * * * * * * * * * * * * * * //

dimensions      [0 2 -2 0 0 0 0];

internalField   nonuniform List<scalar> 
13046
(
0.164409
0.126769
0.130589
0.172943
0.141268
0.114623
0.162013
0.116504
0.141497
0.088893
-0.271997
0.0970717
0.171885
0.0752064
0.122198
0.109103
0.0858096
-0.207799
0.163772
0.132618
0.154774
0.106614
0.0905684
-0.219563
0.162955
0.146766
0.131088
0.163249
0.0833126
0.121273
0.171964
0.105733
0.119566
0.165142
0.142734
0.139171
0.160433
0.147397
0.143605
0.158821
0.110822
0.130982
0.149599
0.161587
0.150068
0.159417
0.148061
0.143059
0.160021
0.117939
0.133024
0.0669236
0.149381
0.118799
0.078815
0.115784
0.15031
-0.0392648
0.147983
0.0814581
0.153997
0.0231195
0.126427
0.101597
-0.129211
0.128387
0.14884
-0.0187484
0.0755426
0.153334
-0.00138703
0.0763649
-0.0688656
0.143211
0.081144
0.164876
0.142603
0.146287
0.0870104
0.135205
-0.0938377
0.162723
0.136099
0.130218
0.098682
-0.16021
0.117211
0.117506
0.114203
-0.119542
0.121483
0.0964337
-0.136175
0.155439
0.150365
0.00211401
-0.0196165
0.106811
0.110093
0.117859
0.116389
-0.104514
0.165973
0.150234
0.135753
0.152216
0.128118
0.088974
0.152415
0.0996418
0.13227
0.0445744
0.0956231
-0.391831
0.17148
0.0941554
0.121242
0.149644
0.153385
-0.0343195
0.098597
-0.00321432
0.100445
0.0803671
-0.303101
0.0952154
0.167585
0.0256285
0.116328
0.160691
0.110211
0.122863
0.123414
0.100176
-0.101405
0.143623
-0.0600205
0.110463
0.171737
0.0957856
0.113689
0.159911
0.0974546
0.136155
0.147225
0.0841843
0.140735
0.151522
0.143562
0.107318
0.156488
0.000807072
0.124262
0.154477
0.146582
0.108173
0.0451906
0.125128
0.0318753
0.126388
0.142319
0.139882
0.163973
0.0659897
0.141014
0.0835213
0.100391
-0.268043
0.0605699
0.0951405
-0.362537
0.141047
-0.0819413
0.10718
0.16375
0.086472
0.0993307
0.162258
0.143865
0.0770599
0.106327
-0.227599
0.091068
0.161092
0.10303
0.0937714
0.153576
0.138395
0.0974509
0.162412
0.10107
0.136742
0.0604632
0.128488
0.166432
0.0489734
0.114774
0.115199
0.107513
-0.154054
0.122172
0.113102
-0.0898622
0.0976311
-0.143833
0.117687
0.0527702
0.103721
0.145698
0.165081
0.137133
0.0787939
-0.0879805
-0.175872
0.0996082
0.114638
0.159303
0.149378
0.138071
0.164089
0.0975452
0.116292
0.124581
0.105303
-0.084339
0.164186
0.0671359
0.132924
0.100373
-0.326645
0.0610712
0.144248
0.10791
0.0425745
0.105564
-0.114714
0.119339
0.135475
0.0512006
0.142845
0.161224
0.0398256
0.115778
-0.0382427
0.110103
0.128753
0.122358
0.0130654
0.13578
0.103145
-0.333033
0.0515609
0.160194
0.100251
0.112697
0.0564483
0.0882269
-0.42694
0.154986
0.164285
0.127591
0.148728
0.142676
0.052142
0.0608597
0.142237
0.134234
0.079347
0.131014
-0.124951
0.163413
0.0595315
0.107847
0.122521
-0.0155343
0.133295
0.143316
-0.0479907
0.103813
0.152058
0.144034
0.157872
0.135649
0.0333925
0.138406
0.165335
0.0443618
0.104932
0.164758
0.166576
0.161383
0.0887821
0.0969868
0.13775
0.0150227
0.13456
0.134078
0.103214
-0.0662919
0.161001
0.0979172
0.120413
0.143241
0.112904
0.0318151
0.152009
-0.00857068
0.0919845
0.152443
0.0708403
0.108577
0.145562
0.14689
-0.0274526
0.0908738
-0.0426589
0.095439
0.104164
-0.20728
0.0965444
0.154188
0.0186374
0.102858
-0.477708
0.0931453
0.021654
0.165735
0.15145
0.0999751
0.15923
0.0406065
0.126968
0.108486
0.121406
-0.122143
0.0681446
0.109276
0.14884
-0.0606695
0.10922
0.12691
0.0949948
0.130044
0.15248
0.0391431
0.121081
0.0789126
0.136614
0.119527
0.0869641
-0.177558
0.0619816
0.0867374
0.149392
0.14873
0.0231788
0.11619
0.152914
0.0816329
0.141306
0.131364
0.0723515
0.150218
0.168469
0.113198
0.134474
0.141298
0.118741
0.0408515
0.105739
-0.152338
0.111638
-0.0519005
0.106911
0.127963
0.148976
0.0739866
0.0402289
0.140745
0.143504
-0.0429787
-0.0701561
0.0814955
0.0857774
0.0927717
-0.457993
0.0328021
0.0641733
0.0873983
-0.407711
0.150288
0.0423806
0.130386
0.105121
0.112921
-0.18062
0.150878
0.152852
0.0168645
-0.00524659
0.0909923
0.086795
0.114587
-0.221289
0.075977
0.0494014
0.0861279
-0.449334
0.144949
0.162911
0.141596
0.0461019
-0.419738
0.0931874
0.164326
0.0778163
0.093186
0.0946855
-0.214832
0.108205
-0.463469
0.102449
-0.00740537
0.158172
0.110496
0.139632
0.160531
0.139426
0.147763
0.0815615
0.0928049
-0.310699
0.15725
0.125383
0.146924
0.146828
0.160382
0.147304
0.147303
0.0983218
0.0444605
0.148172
0.135252
0.157598
0.166597
0.0994382
0.154088
0.150442
0.0560071
0.0727636
0.0929154
0.0973511
-0.226665
-0.234123
0.100898
0.0994405
0.0932328
-0.17058
0.111244
0.0815887
0.150793
0.0146463
0.156554
0.0921314
0.119074
0.11862
0.00276446
0.133445
-0.390214
0.106195
0.011352
0.119035
0.0938689
-0.156481
0.066906
0.0967983
-0.332891
0.101933
-0.487043
-0.0086194
-0.524201
0.0954876
0.0093469
-0.00148597
0.140736
0.12514
-0.290168
0.112093
0.0481818
0.134775
-0.0684974
0.112871
0.1001
0.0793947
-0.273558
0.167881
0.128491
0.115205
-0.196299
0.116076
0.0847443
0.116394
0.135432
0.0127976
-0.0237112
0.122691
0.132113
0.100812
-0.596028
-0.0379475
-0.44801
0.0977729
0.0101961
0.170073
0.136461
0.114288
-0.231454
0.0710244
0.112136
0.11478
0.0615015
-0.241648
0.108067
0.100875
-0.17868
0.0849438
-0.127837
0.126571
0.15493
0.0549139
0.0739919
-0.031163
0.148914
0.0896296
0.0817631
0.122803
-0.183904
0.163894
0.163967
0.0768107
0.060007
0.104037
0.106444
0.163531
0.0881779
0.102034
0.156059
0.012547
0.0907218
-0.036829
0.115087
0.128726
-0.18432
0.0976941
0.112383
0.123584
0.120592
-0.0608801
-0.520584
0.0927433
0.0209294
0.168027
0.167204
0.120975
0.121939
0.128577
0.125496
0.161777
0.153027
0.0904167
0.0395799
0.0889123
0.0744067
-0.454582
0.103271
-0.00597768
-0.218199
0.0776683
0.111944
0.152929
0.0737917
0.101272
-0.0191653
0.112062
0.131903
0.0842033
-0.110358
0.13102
-0.390693
0.0364386
0.100566
-0.361193
0.0414671
0.102495
0.155673
0.00356355
0.0965519
0.159968
0.0923836
0.129968
0.105136
0.0990369
-0.210038
-0.0178688
0.130008
0.127167
0.102391
-0.102455
0.133994
0.153539
0.0922953
0.0832524
0.139566
0.0585167
0.143711
0.158997
0.103834
0.124552
0.101152
-0.22707
0.0967667
0.143488
-0.0541162
0.0990083
0.163332
0.117139
0.134455
0.114205
0.0785667
-0.216728
0.162685
0.107891
0.116746
0.159242
0.094864
0.14675
-0.00448342
0.1315
0.131602
0.0786275
0.0842368
-0.353416
0.0854245
0.0817562
-0.336735
0.0983915
-0.109427
0.133728
0.134419
0.0652999
0.14255
0.0827919
-0.391882
0.0656976
0.111155
-0.0989883
0.130099
0.101809
-0.512031
-0.0209034
-0.000710601
-0.538703
0.093435
0.0856988
-0.169336
0.124755
0.102176
-0.284699
0.0748604
0.113271
0.118368
0.0916751
-0.200255
0.0947463
-0.167465
0.122674
-0.0911133
0.114297
0.137544
-0.0071735
0.103714
0.172002
0.127569
0.122612
0.127648
-0.069161
0.121103
0.123411
0.13082
-0.0553476
0.127661
0.0796437
-0.162041
0.160208
0.0243777
0.0866745
0.160489
0.0662509
0.0871061
0.140205
-0.0077633
0.122387
0.138372
-0.0190406
0.124006
0.162996
0.111002
0.142405
0.164282
0.0500565
0.108321
0.117962
-0.188583
0.0779914
0.0334334
0.105468
-0.360768
0.0232108
0.108387
-0.362042
0.162255
0.107524
0.109303
-0.416559
0.101852
0.0203794
0.139643
0.0971632
-0.0867791
0.103653
-0.40983
0.00758599
0.169521
0.145881
0.121097
0.164771
0.0595158
0.120643
0.0654462
0.129151
0.146189
0.112606
-0.272487
0.0587293
-0.0243103
0.132822
0.128776
0.0810538
0.108766
-0.235892
0.157295
0.0433049
0.120084
0.171125
0.133802
0.125543
-0.266045
0.0675549
0.109269
0.105825
-0.113976
0.128809
0.0756153
0.0668492
0.0899279
0.0903427
-0.345149
-0.371178
0.153573
0.0650377
0.137916
0.0133361
0.143811
0.12693
0.155834
0.108852
0.144417
-0.323443
0.0440847
-0.317243
0.106948
0.0448246
0.108947
0.151793
-0.0117592
0.116121
0.0670143
0.0556758
-0.282059
-0.309057
0.107458
0.107069
0.137249
0.0285546
0.135065
0.157723
0.0701336
0.127571
0.0942301
0.0831788
-0.293613
0.16394
0.04964
0.133829
0.163289
0.0886292
0.137524
0.07929
0.085702
-0.330721
0.161817
0.0160566
0.110106
0.0278993
0.102374
0.139049
0.155809
0.0669559
0.0856869
-0.0828621
0.124528
0.0971694
0.0990367
-0.567886
-0.0253256
0.155889
0.0492436
0.124659
0.100832
0.0879241
-0.253779
0.0686776
0.069504
0.151887
0.0207528
0.0890166
-0.485371
0.153997
0.151403
0.0979329
0.142201
0.0990008
0.145977
0.161974
0.104524
0.147172
0.155803
0.157651
0.105603
0.147082
0.122676
0.140171
0.157657
0.0753852
0.136589
0.162412
0.0764758
0.138297
0.109089
-0.346338
0.0273354
0.163342
0.101995
0.101155
0.076973
-0.264586
0.105015
0.140408
0.137151
-0.0247233
-0.0508564
0.117471
0.114735
0.160393
0.120548
0.109996
0.154885
0.0312015
0.090027
0.149651
0.00777064
0.122239
0.163144
0.143364
0.13297
0.134891
-0.0504303
0.120412
0.166189
0.118198
0.134793
0.147008
0.0267391
0.131894
0.154606
0.043335
0.0917679
0.162462
0.161321
0.13943
0.137627
0.145387
0.131233
0.159234
0.107275
0.160294
0.15045
0.134946
0.143618
0.165422
0.166219
0.0845434
0.0758183
0.111283
0.106307
0.0881526
-0.122486
0.132452
0.140294
0.110303
0.0382283
0.0916151
0.0945841
-0.149111
-0.142399
0.125993
0.124731
0.151372
0.0766865
0.103014
0.160563
0.145628
0.146272
0.134713
-0.0671272
0.117126
0.167789
0.112901
0.112063
0.154597
0.0306104
0.0934472
0.142434
0.143534
-0.0844514
0.0901557
-0.0737891
0.092417
0.145269
-0.0279626
0.11308
0.0310275
-0.461872
0.0898086
0.0638468
0.0856047
0.149647
0.151026
0.153239
0.0716926
0.0710281
0.0844985
0.0805139
0.124151
-0.044287
0.126716
0.154173
0.0508476
0.0937843
0.154737
0.0708004
0.0904
0.150518
0.159405
0.081364
0.0992153
0.10115
0.0875064
0.152051
0.0889873
0.0848796
0.145945
-0.0178438
0.117757
0.163732
0.120442
0.14261
0.0881195
0.0904783
-0.290627
0.154991
0.0738189
0.0797347
0.159873
0.157321
0.026496
0.0108304
0.0942854
0.100978
0.0901774
-0.258167
0.0983053
0.0964747
0.0861832
-0.281776
0.0878808
0.0874524
-0.304629
0.139299
0.0929127
-0.0930428
0.156515
0.0650794
0.0975731
-0.269828
-0.238393
-0.00455223
-0.265484
-0.0859883
-0.380672
-0.159451
-0.201511
-0.396043
-0.0985453
-0.101987
-0.435147
-0.286636
-0.101806
-0.280353
-0.308806
-0.246658
-0.301078
-0.248581
-0.147454
-0.235864
-0.30552
-0.0767709
0.0764926
0.00740842
-0.228179
-0.0693217
-0.434373
-0.207657
-0.292015
-0.423353
-0.165822
-0.245404
-0.25318
-0.401331
-0.230307
-0.0196675
-0.0819775
-0.24344
-0.145466
-0.333439
0.0857087
-0.374006
-0.102717
-0.0279706
-0.33211
-0.320502
-0.377338
-0.426535
-0.381764
0.0156364
-0.229175
-0.30622
-0.356412
-0.420939
0.00791262
-0.14747
-0.237357
-0.394472
-0.114378
-0.388087
-0.364999
0.00912585
-0.185361
-0.242594
-0.143456
-0.217425
0.057449
-0.0792659
-0.0659786
-0.495028
-0.44576
-0.293891
-0.122891
-0.459322
-0.252731
-0.220542
-0.410982
-0.124204
-0.0406041
-0.295902
-0.256297
-0.413875
-0.337642
-0.342367
-0.112011
-0.338293
-0.257884
-0.287919
0.0206796
-0.318676
-0.115355
0.00583739
-0.247505
-0.294518
-0.438972
-0.388271
-0.374515
-0.294517
-0.497904
-0.176188
-0.0718638
-0.0138225
0.0619585
-0.324179
-0.264222
-0.43002
-0.305125
-0.386985
-0.0231888
-0.0648481
-0.145087
-0.379141
-0.458902
-0.132976
-0.0480914
-0.308583
-0.258457
-0.496376
-0.307833
-0.263287
0.0367429
0.0504327
-0.118852
-0.22388
-0.280884
-0.436989
0.0402164
-0.293403
-0.12642
-0.507771
0.0138019
-0.412412
-0.291633
-0.283286
-0.0432407
-0.265178
-0.527903
-0.364721
-0.15636
-0.309624
-0.107308
-0.137343
-0.323467
-0.0337535
-0.356737
-0.345466
-0.0305064
-0.361025
-0.30044
-0.430911
-0.20239
-0.247787
-0.0424122
-0.115533
-0.32022
-0.124832
-0.104278
-0.0089627
-0.217139
-0.294188
-0.327107
-0.0869289
-0.290995
-0.139672
-0.421245
0.0740558
-0.307045
-0.0273034
0.0380936
-0.227804
0.045857
-0.0358746
-0.0117076
-0.369888
-0.509188
-0.437768
-0.00344218
-0.381556
-0.395875
-0.291064
-0.39214
-0.298087
-0.344746
-0.221969
0.0376876
-0.118147
-0.333099
-0.118463
-0.363947
0.0802887
-0.317953
-0.0407794
-0.334875
-0.527584
0.0229028
0.047084
-0.342318
-0.369309
0.0719957
-0.202375
-0.229886
-0.381925
-0.122359
-0.0237768
-0.0987937
-0.335559
-0.395545
-0.071897
-0.216555
-0.418958
-0.112401
-0.293138
-0.41364
-0.283488
-0.0286394
-0.48849
-0.2101
-0.0712531
-0.348147
-0.502854
-0.322955
-0.305545
-0.260901
-0.182344
-0.166891
-0.328625
-0.405621
-0.291766
-0.143623
-0.097099
-0.310476
-0.15809
-0.348946
-0.381798
-0.197063
-0.32808
-0.516208
-0.083099
-0.0313946
-0.218845
0.0274198
-0.0196323
0.0846533
-0.300315
-0.541789
-0.287308
-0.324406
-0.263024
-0.481761
-0.19026
0.0172119
-0.13004
-0.201133
-0.345434
-0.30839
-0.0730246
-0.240309
-0.132132
-0.359143
-0.282628
-0.339452
-0.303493
-0.341439
-0.330548
-0.31343
-0.418325
-0.16118
-0.223841
-0.319454
-0.151856
-0.275286
-0.296953
-0.390686
-0.320641
-0.354803
-0.369687
-0.209386
-0.469377
-0.540915
-0.266997
-0.442895
-0.481229
-0.200908
-0.321628
-0.477673
-0.03838
-0.151908
-0.357032
-0.0734889
-0.414606
-0.166246
-0.10855
-0.283031
-0.292399
-0.0555227
-0.282504
-0.0971032
-0.389328
-0.341884
-0.0340262
-0.345789
-0.286184
-0.568413
-0.467922
-0.5224
-0.449791
-0.359908
-0.155237
-0.395485
-0.502228
-0.40061
-0.335195
0.0821711
-0.26365
-0.128184
-0.185115
-0.302439
-0.2517
-0.344136
-0.432204
-0.177915
-0.334314
0.0148475
-0.109927
-0.327967
-0.329525
-0.226611
0.0750951
-0.0847307
-0.017687
-0.11249
-0.318912
-0.224943
-0.303097
-0.407636
-0.463209
-0.367402
-0.239259
-0.127353
-0.399771
-0.459356
-0.29775
-0.237182
-0.30247
-0.248344
-0.0591096
-0.269464
-0.323249
0.00724748
-0.0369916
-0.345585
-0.157087
-0.0239953
-0.397223
-0.326293
-0.319066
-0.392631
-0.418166
-0.0271856
-0.414438
-0.269792
-0.000248426
-0.513534
-0.216821
-0.339758
-0.227342
-0.32245
-0.359943
-0.434631
-0.234668
-0.456341
-0.36385
-0.328165
-0.330852
-0.105804
0.00982256
-0.298467
-0.18162
-0.227482
-0.27122
-0.527146
-0.0678845
-0.143614
-0.358261
-0.475015
-0.192867
-0.435522
-0.261787
-0.315859
-0.367559
-0.0459169
0.00252072
-0.324133
-0.0973748
0.06082
-0.0588103
-0.042305
-0.0105124
-0.238943
-0.326879
-0.413723
0.0736023
-0.0582491
-0.0286754
-0.382695
-0.341772
-0.513232
-0.0859818
-0.26106
-0.26882
-0.0260358
-0.129535
-0.287229
-0.235768
-0.342836
-0.300739
-0.346626
-0.331177
-0.3169
-0.37157
-0.302688
-0.462088
-0.253129
-0.38826
-0.124629
-0.166084
-0.492052
-0.0174213
0.00107535
-0.11678
-0.375617
-0.21114
-0.317297
-0.0966969
-0.237173
-0.428084
-0.0246458
-0.353166
0.0181012
-0.484758
-0.30162
-0.252678
-0.117653
-0.0680454
-0.295303
0.0403111
-0.285938
-0.0572809
-0.303577
-0.113594
-0.321923
-0.285666
-0.353275
-0.0496429
-0.242428
0.0677222
-0.139329
-0.465141
-0.265588
-0.170019
-0.340551
-0.37079
-0.298877
-0.381892
0.0191931
-0.282386
-0.300833
-0.0872435
-0.380258
0.0139165
0.0578574
-0.328646
0.0682257
0.0281852
-0.0482771
-0.0238555
-0.202976
-0.426677
-0.383907
-0.317755
-0.0700577
-0.289607
-0.351153
0.0366618
-0.403748
-0.300956
-0.391658
-0.0111056
0.080013
-0.406855
-0.0594591
-0.174686
0.00830337
-0.22649
-0.107744
-0.315155
0.0394341
0.0638444
-0.141443
-0.379248
-0.0681968
-0.268421
-0.153241
-0.242613
-0.261995
-0.177579
-0.251941
-0.353655
-0.410474
-0.253719
-0.159657
-0.200817
-0.0345229
-0.406814
-0.260346
-0.144283
-0.40414
-0.00085436
-0.293514
-0.3157
0.00191843
-0.0449761
-0.188559
0.0493244
-0.314526
-0.348521
-0.103273
-0.195175
-0.175307
-0.302611
-0.347399
-0.165239
-0.135975
-0.344577
-0.330662
-0.200383
-0.479202
-0.378314
0.0125727
0.0583013
0.0651856
-0.198563
0.0691343
0.0758495
0.0262705
-0.539762
-0.186359
-0.186044
0.0496318
-0.358125
-0.28858
-0.434404
-0.379958
-0.37229
0.0363688
-0.284607
-0.270945
-0.102552
-0.141044
-0.340578
-0.319171
0.074348
0.0353074
-0.0148991
-0.128608
-0.363285
-0.0958401
-0.162099
-0.36021
-0.237685
-0.454661
-0.397872
-0.211461
-0.273012
-0.312234
0.0160381
0.0129903
-0.522853
-0.0450969
-0.326205
-0.323183
-0.276917
0.00927248
-0.298984
-0.12681
-0.293595
-0.00966438
-0.343645
-0.292451
0.0594204
-0.517762
-0.481559
-0.320382
-0.367606
-0.542936
-0.454319
-0.360126
-0.548108
-0.261986
-0.518388
-0.43856
-0.272034
-0.38089
-0.354195
-0.302486
-0.474269
-0.439979
0.0301058
-0.0233173
-0.337052
-0.437823
-0.0156601
-0.356435
-0.28791
0.0602838
-0.350125
0.0561956
-0.278732
-0.0360818
-0.195687
-0.319773
-0.443951
-0.200208
-0.204022
-0.26256
-0.321474
-0.339252
-0.451555
-0.367308
-0.274056
-0.510624
-0.463851
0.031739
-0.297345
-0.131411
-0.092964
-0.361573
-0.0393937
-0.0893941
-0.430549
-0.444993
-0.298956
-0.465895
-0.537489
-0.125937
-0.116868
-0.333972
-0.165838
-0.32867
0.0591399
0.0248322
-0.299723
-0.339386
0.0444428
-0.0303183
-0.181788
-0.174931
-0.349196
0.0647872
-0.184876
-0.523467
-0.00737733
-0.0613472
0.0131653
-0.213088
-0.392381
-0.281748
-0.113687
-0.17431
-0.493188
0.0896469
-0.300497
-0.332571
-0.240533
-0.00680612
0.0541637
0.0664452
-0.162035
-0.219828
-0.0788914
-0.0260688
0.00963141
-0.134479
-0.0693531
-0.300517
-0.31454
-0.181327
-0.410654
-0.304137
-0.488192
-0.30443
-0.0870496
-0.476612
-0.226737
-0.280319
-0.0297305
0.0652341
-0.287186
-0.444087
-0.498741
-0.0604326
-0.371751
-0.375535
-0.507038
0.0149884
-0.208604
-0.195874
-0.439644
-0.193028
-0.377396
-0.334611
-0.102478
-0.0911947
0.0202904
0.0750857
-0.354778
-0.0184012
-0.524929
-0.00795085
0.0178862
0.0142731
-0.0818972
-0.380741
-0.378623
-0.326305
-0.515954
-0.188363
-0.514146
-0.143033
-0.43206
-0.0206048
-0.356904
-0.503395
-0.0444253
-0.065429
-0.277729
-0.27558
-0.136176
0.0120882
-0.211592
-0.248052
-0.514335
-0.0616018
-0.149844
0.0383883
-0.539561
-0.271459
-0.00495997
-0.117711
0.0490222
-0.111472
-0.334585
-0.557239
-0.522735
-0.276153
-0.494779
0.0308259
-0.502014
-0.254742
-0.27616
-0.41628
-0.0420722
-0.54337
0.00896454
-0.109183
-0.190621
-0.349539
-0.117292
-0.279892
-0.234489
-0.278224
-0.273627
-0.344034
-0.360865
-0.0855671
-0.374961
0.066509
-0.36435
-0.180017
-0.148965
-0.0788805
0.0337786
-0.341812
-0.300422
-0.349468
-0.224545
-0.374256
0.0274002
-0.377763
-0.238009
-0.355971
-0.0548556
-0.391402
-0.215438
-0.459732
0.0676816
-0.521048
-0.377162
-0.233082
-0.0389016
-0.497211
-0.498397
-0.393003
-0.462546
0.00880011
-0.241471
-0.123163
-0.0362643
-0.143957
-0.153987
0.0671829
-0.172817
-0.0745318
-0.157261
-0.187099
-0.483013
-0.187114
-0.279568
-0.273591
-0.170369
-0.299498
-0.468799
-0.232096
-0.218466
-0.396291
-0.066371
-0.203528
-0.0856988
-0.286564
0.0286967
-0.272581
-0.218219
-0.152311
-0.465058
-0.384174
-0.355376
-0.202053
-0.203399
-0.169295
-0.000720334
-0.0810529
-0.0697564
-0.228685
-0.017183
0.0374769
0.0334127
-0.136916
-0.201022
-0.177148
-0.414238
0.0496439
-0.0314328
-0.0536828
-0.26013
-0.380634
-0.475649
-0.179297
-0.120494
-0.31373
-0.0549451
-0.0248063
-0.177226
-0.307218
-0.156082
-0.290395
-0.284621
-0.25619
-0.28745
-0.194722
-0.510059
-0.192436
-0.209602
-0.29896
-0.535164
-0.201325
-0.244224
-0.136067
-0.331475
-0.207302
0.00322757
0.0178664
-0.188743
-0.2778
-0.0666407
-0.235854
-0.378097
-0.395251
-0.311093
-0.468237
-0.00117585
-0.250157
-0.219065
-0.110238
-0.130487
-0.122768
-0.302213
0.0632198
-0.125493
-0.396002
-0.254528
-0.250573
-0.0673491
-0.00426693
-0.122055
-0.182927
-0.488554
-0.409069
-0.295052
-0.181182
-0.241366
-0.186281
-0.385528
0.0117783
-0.164572
-0.0424005
-0.0237649
-0.212187
-0.325587
-0.194034
0.0473015
-0.366441
-0.503652
-0.194919
0.0556327
-0.345508
-0.309666
-0.081219
-0.122189
-0.0487651
-0.26625
-0.492478
-0.182441
-0.473606
-0.338772
-0.0500757
-0.275246
-0.408081
-0.324259
-0.353088
-0.165217
-0.292796
-0.293095
-0.0106137
-0.401226
0.068232
-0.0516119
-0.43181
-0.55354
-0.238988
-0.10338
-0.0288384
-0.266561
-0.294536
-0.278902
-0.322774
-0.255327
0.0759526
-0.00654846
-0.113815
-0.260221
-0.470016
0.0189973
0.0682556
0.0127669
-0.0699513
-0.00611679
-0.2041
-0.468003
-0.519932
-0.503555
0.0325865
-0.246065
-0.271428
-0.261413
0.0658543
-0.346818
-0.307463
-0.453289
-0.265068
-0.399304
0.0657115
-0.178494
-0.0957763
-0.0104432
-0.0314656
-0.310896
-0.155501
-0.219953
-0.0921088
-0.37756
-0.171335
-0.356633
0.0247406
-0.311271
-0.375248
-0.270284
-0.308159
0.000783211
-0.351256
-0.0519809
-0.0215833
-0.00861736
-0.434347
-0.228212
-0.296542
-0.28102
0.0126532
-0.217644
-0.172272
-0.184751
-0.371856
-0.257331
0.027273
-0.149154
0.0153506
-0.513278
-0.382927
-0.340323
0.0343573
-0.255259
-0.23893
-0.43597
-0.295976
-0.245892
0.036336
-0.222669
-0.288324
-0.450271
0.0620866
0.0530648
-0.374316
0.0261382
-0.349728
-0.432777
-0.374996
-0.24589
-0.490322
-0.139759
-0.275028
-0.35994
-0.297551
0.00866912
-0.26173
-0.0555445
-0.267367
-0.390926
-0.287986
-0.514457
-0.489864
-0.279432
-0.226416
-0.168568
-0.410712
-0.280343
-0.0174612
-0.161239
-0.361044
-0.326418
0.000877217
-0.258157
-0.24787
0.077324
-0.192012
-0.368435
-0.231522
-0.279407
0.0442384
-0.289066
-0.27361
-0.168934
-0.485291
0.00627303
-0.299466
-0.0130502
-0.227399
-0.0931569
-0.430487
-0.0441312
-0.288089
-0.436028
-0.393366
-0.226711
-0.00489939
-0.564869
-0.317675
-0.342588
0.0317784
0.0630514
-0.284126
-0.353992
-0.142796
0.0473517
-0.264616
0.00631023
-0.0275239
-0.0573164
-0.0909101
-0.204852
-0.0922981
-0.0987771
0.0178776
-0.235362
-0.211168
-0.284996
-0.297284
-0.224851
-0.36213
0.043579
-0.295375
0.00839446
-0.248174
0.0337195
-0.383989
0.0547381
-0.0967056
0.000536548
0.0354571
0.00194824
0.0741381
-0.316359
-0.0159841
-0.216357
-0.347931
-0.320006
-0.407586
0.0150388
-0.294536
-0.173378
-0.16506
-0.297076
-0.158751
-0.39064
0.0235359
-0.233848
-0.066942
-0.530108
-0.347649
-0.340896
0.0703674
-0.275128
-0.143016
-0.295123
-0.336172
-0.412972
-0.290051
-0.360163
-0.0610226
0.0235454
-0.45884
-0.18206
-0.339053
-0.375985
-0.0451018
-0.290597
-0.296264
0.0394788
-0.495293
-0.177173
-0.117859
-0.00483282
0.0618405
-0.291125
-0.34196
-0.455839
-0.282196
-0.282804
-0.341005
-0.0576695
-0.350007
-0.436742
-0.291977
-0.225736
-0.308995
-0.272594
-0.345531
-0.23382
-0.449118
-0.0763453
-0.093535
-0.264298
-0.072279
-0.311682
-0.494011
-0.276406
-0.518574
0.0475838
-0.336193
-0.35526
-0.38521
-0.021331
0.0169752
-0.214992
-0.0774245
-0.274598
-0.406684
-0.207747
-0.349309
-0.321261
0.0146756
-0.1739
-0.093885
0.0487963
-0.0663924
-0.199046
0.0372201
-0.460232
-0.210664
-0.216744
-0.167018
-0.213069
0.0314283
-0.3533
-0.173052
-0.261023
-0.301048
-0.367081
-0.334547
-0.0947595
-0.0413335
-0.0137082
-0.211622
-0.204836
0.0322431
-0.0405263
-0.282958
-0.163385
-0.434518
-0.317818
-0.057427
-0.464416
-0.0269853
-0.356468
-0.0133234
0.0653583
0.0217741
-0.36879
-0.00198338
-0.0280205
-0.327471
0.0307651
-0.249319
0.0295799
-0.0644733
-0.337416
-0.44587
-0.156374
-0.3128
-0.212336
-0.280512
-0.0277471
-0.261557
0.0371372
-0.390442
-0.302689
-0.281986
-0.383559
-0.356224
-0.0401957
0.0568422
-0.396771
-0.0528879
-0.239946
-0.172148
-0.264518
-0.139526
0.00825387
-0.0565855
-0.350825
-0.00160402
-0.0435715
0.0556969
-0.390036
-0.367294
-0.289813
-0.0817723
0.0440307
-0.0369637
-0.270671
0.054022
-0.23743
-0.447424
-0.445292
-0.559907
-0.219909
-0.428308
0.0523315
0.0692775
-0.205013
0.0722376
-0.0525073
-0.219105
0.0483579
-0.437172
0.0310834
-0.319012
0.0157834
-0.304157
-0.375341
-0.0839711
-0.209142
0.0293489
0.00446003
0.0111096
-0.34571
-0.344224
-0.473188
-0.0127599
-0.0603121
-0.284284
-0.195301
-0.0583765
-0.520042
-0.359829
-0.360277
-0.327552
-0.181112
-0.3349
-0.216262
-0.0568852
-0.230919
-0.210802
-0.0873357
-0.321283
-0.269149
-0.180402
-0.229799
-0.322353
-0.0166662
0.021941
-0.284281
-0.0634901
-0.531885
-0.353346
-0.0120738
-0.0789254
-0.355715
0.0181341
-0.420925
-0.0942779
-0.264181
-0.236555
-0.00487717
-0.301044
-0.0797411
-0.0699805
-0.127471
0.0772254
-0.121582
-0.459197
-0.161755
-0.209207
-0.0782422
0.0731834
-0.125207
-0.230194
-0.321177
-0.23294
-0.00265323
-0.419404
-0.0141009
-0.333109
-0.153924
-0.0672689
-0.0919131
-0.244735
-0.0082282
0.0526315
-0.274196
-0.31384
-0.216079
-0.355915
-0.452758
-0.210708
-0.0711494
-0.410779
-0.45943
-0.272726
-0.440206
-0.0981844
-0.235192
-0.0729154
-0.308324
0.0142097
-0.232663
-0.0322885
0.0541799
-0.38333
0.00378649
-0.262561
-0.213626
-0.189556
-0.00825834
-0.296915
-0.279697
-0.184538
-0.369539
-0.30776
-0.387109
-0.414158
-0.529941
0.046695
0.0610184
-0.424039
-0.29537
-0.0840706
-0.469543
-0.286059
-0.339339
-0.11415
-0.0918249
-0.48769
-0.537524
0.0034648
-0.288958
-0.172373
-0.295871
-0.461585
-0.443809
-0.134149
-0.0313324
-0.16655
-0.49262
0.0173926
-0.0341801
-0.366554
-0.180796
-0.350729
0.0525906
-0.327618
-0.253264
-0.427029
-0.134117
0.0248375
-0.167205
-0.133877
-0.331625
-0.228541
-0.158944
0.0485909
0.0723705
-0.299575
0.0559793
-0.323657
-0.200519
-0.201076
-0.283039
-0.322083
-0.0120761
-0.210265
-0.19492
-0.330346
-0.391238
-0.21144
-0.372517
-0.119481
0.016179
-0.369111
-0.334088
-0.209661
-0.316
-0.25814
-0.513699
-0.291112
7.58746e-05
-0.340539
-0.360462
-0.0771531
-0.210943
-0.262125
-0.140467
-0.0352727
-0.283251
-0.269848
-0.0422155
-0.283652
-0.290178
-0.216612
-0.00941574
-0.144759
-0.196628
-0.286955
-0.404196
-0.307242
0.0512202
-0.03612
0.0617699
-0.265439
-0.121589
-0.410527
-0.24244
-0.0298583
-0.460746
-0.471455
-0.091832
-0.0301804
-0.473111
-0.300113
-0.278494
-0.286013
-0.284129
0.0707097
-0.248416
-0.301998
-0.133129
-0.319985
-0.0919564
-0.127123
-0.426638
-0.281298
-0.0646472
-0.236461
0.0538719
-0.452307
-0.362164
-0.124127
-0.161835
-0.27846
-0.176843
-0.363681
0.0601422
0.0346677
-0.121693
-0.0056514
-0.37829
-0.0197882
-0.14078
-0.110606
0.03855
-0.466693
-0.31668
0.0693662
-0.136784
-0.487315
-0.35477
-0.0225711
0.0639487
-0.246295
-0.0834583
-0.28809
-0.438547
-0.341092
-0.478925
-0.0300381
-0.346598
-0.233775
0.0330696
-0.397095
-0.27995
-0.318197
-0.198415
-0.288177
-0.359981
-0.32373
-0.42379
-0.226228
-0.0573848
0.0331079
-0.0893287
-0.255331
-0.327241
-0.495252
-0.354955
-0.161446
-0.178047
-0.0916557
-0.0794975
-0.32736
-0.264243
-0.0440607
-0.0257171
0.0652986
-0.00747851
0.0429099
-0.241164
-0.434553
-0.354092
-0.391823
0.0496769
-0.211799
-0.328258
0.036272
-0.428815
-0.0572255
-0.0958723
-0.290025
-0.285553
-0.315
-0.389743
-0.0294819
-0.31006
-0.112741
-0.251309
0.0273888
-0.18802
0.077792
-0.377374
-0.25016
-0.375264
-0.537933
-0.30612
-0.0714591
-0.296752
-0.388615
-0.196561
0.0287946
-0.0766434
-0.377278
-0.42908
-0.33536
-0.44123
-0.284622
-0.457585
-0.286255
-0.395313
-0.090347
-0.427756
-0.296967
0.0228576
-0.211327
-0.0840237
-0.0391336
-0.290176
-0.232644
-0.347355
-0.0481006
-0.308478
-0.269644
-0.245634
-0.412204
-0.467415
-0.305127
-0.252358
-0.0827773
0.0633621
-0.0192098
-0.197363
-0.107759
-0.472569
0.0564668
-0.166284
-0.0629377
-0.270714
-0.0968444
-0.352868
-0.306802
-0.0548302
0.0264857
-0.0724316
-0.190331
-0.341734
0.0714956
-0.261403
-0.0393047
0.0466803
-0.125486
-0.284392
-0.473485
-0.0457431
-0.151956
-0.413477
-0.141486
-0.17263
0.0211875
-0.344308
0.0348469
0.0670375
-0.293574
-0.373104
0.0425697
-0.41774
-0.402664
-0.298986
-0.395823
-0.296186
-0.392611
-0.44624
-0.256266
-0.286361
-0.339364
-0.354873
-0.180581
-0.385947
-0.36901
-0.148508
-0.234635
-0.476132
0.0167986
0.0607539
0.0448367
-0.301968
-0.494229
0.0844374
-0.42997
-0.262322
-0.279989
-0.344887
-0.265813
-0.0943231
-0.342903
-0.363551
-0.460954
-0.458283
-0.418196
-0.355851
-0.50397
-0.250191
-0.207405
-0.261988
0.0302131
-0.210054
-0.11642
-0.251648
-0.0390424
-0.333141
-0.341228
0.0772626
-0.273473
-0.155334
-0.430274
-0.125783
0.0612266
-0.299391
-0.145433
-0.160004
-0.353103
-0.299004
-0.405249
-0.374508
-0.0863575
-0.396612
-0.272396
-0.362424
-0.291475
-0.336874
-0.401385
-0.258747
-0.315886
-0.382735
0.0602598
-0.262716
-0.267292
-0.192379
0.0240338
-0.333688
-0.453667
-0.0505216
-0.414857
-0.305253
-0.28288
-0.202393
-0.36079
-0.206475
-0.19334
0.0575775
-0.0202045
-0.44042
-0.375358
-0.469516
-0.284162
-0.488661
-0.369534
-0.27736
-0.368597
-0.273729
-0.155154
0.071777
-0.325396
-0.102306
-0.215045
0.0502329
-0.360166
0.0613887
-0.162695
-0.43026
-0.153797
-0.0924089
-0.342371
-0.0169941
-0.282044
-0.0116295
-0.365718
-0.385978
-0.268356
0.0713574
0.0546255
-0.0833239
-0.14409
-0.103842
-0.492776
-0.373126
-0.0904568
0.0788492
-0.366551
-0.223354
-0.27562
-0.337365
-0.288353
-0.327608
-0.397894
-0.340926
-0.389853
-0.294326
-0.323654
-0.275323
0.0749186
-0.032261
-0.497003
-0.0658806
-0.351863
-0.420218
-0.0527319
-0.390307
-0.307935
-0.111052
-0.341376
-0.356518
-0.250712
-0.0215365
-0.408243
-0.359212
-0.324881
-0.160122
-0.390293
0.0242645
-0.484309
-0.356858
-0.322108
-0.378743
-0.135928
-0.157517
0.0261263
-0.292433
-0.0685204
-0.20281
-0.165248
-0.308456
-0.130247
-0.412429
-0.403061
-0.530494
-0.147488
-0.269279
-0.324104
0.00381484
-0.238141
-0.132579
-0.138451
-0.357172
-0.386837
-0.335884
-0.164725
-0.297858
0.069647
-0.432246
-0.48844
-0.280937
-0.361827
-0.298462
-0.267961
-0.0930673
-0.309895
-0.257686
-0.408081
-0.27765
-0.260775
-0.30646
0.0673325
0.0500122
-0.393838
-0.340917
-0.0347076
-0.17594
-0.328826
-0.42223
-0.303702
-0.42425
-0.20894
0.012953
-0.327539
-0.483751
-0.157201
-0.255816
-0.481331
-0.403203
-0.247929
-0.11131
0.0705686
-0.416174
-0.459209
-0.18596
-0.0310297
-0.30734
-0.194594
-0.328113
-0.287437
-0.344168
-0.159499
-0.273585
-0.293304
-0.0583183
-0.325182
-0.496147
-0.217661
-0.306154
-0.0550903
0.0768132
-0.292272
-0.357135
-0.343767
-0.349481
-0.408061
-0.351239
-0.422975
0.0354559
-0.0426458
-0.11256
-0.273096
-0.469863
-0.070152
0.0552182
-0.377974
-0.224032
-0.361785
-0.533454
-0.240298
-0.349043
-0.541596
-0.238259
-0.0960413
-0.465801
-0.478549
-0.391022
-0.0146359
-0.476549
-0.0525199
-0.202598
-0.32649
-0.32009
-0.346649
-0.0530506
-0.50507
-0.350655
-0.30076
-0.408433
-0.198994
-0.0817991
-0.191545
-0.268561
-0.0775996
-0.408121
-0.396721
0.00467397
-0.296083
-0.000427354
-0.185981
-0.304234
-0.158184
-0.0183822
-0.257285
-0.465277
0.0211818