/*--------------------------------*- C++ -*----------------------------------*\
  =========                 |
  \\      /  F ield         | OpenFOAM: The Open Source CFD Toolbox
   \\    /   O peration     | Website:  https://openfoam.org
    \\  /    A nd           | Version:  6
     \\/     M anipulation  |
\*---------------------------------------------------------------------------*/
FoamFile
{
    version     2.0;
    format      ascii;
    class       volScalarField;
    location    "0";
    object      p;
}
// * * * * * * * * * * * * * * * * * * * * * * * * * * * * * * * * * * * * * //

dimensions      [0 2 -2 0 0 0 0];

internalField   nonuniform List<scalar> 
145945
(
3.88295e-06
3.88237e-06
3.88183e-06
3.88129e-06
3.88088e-06
3.88056e-06
3.88033e-06
3.88018e-06
3.88011e-06
3.88013e-06
3.88024e-06
3.88043e-06
3.8807e-06
3.88106e-06
3.88154e-06
3.88211e-06
3.88274e-06
3.88237e-06
3.88193e-06
3.88145e-06
3.88097e-06
3.88059e-06
3.8803e-06
3.88009e-06
3.87995e-06
3.87989e-06
3.87991e-06
3.88e-06
3.88017e-06
3.88041e-06
3.88074e-06
3.88117e-06
3.88167e-06
3.88216e-06
3.88183e-06
3.88145e-06
3.88101e-06
3.88058e-06
3.88024e-06
3.87997e-06
3.87978e-06
3.87966e-06
3.8796e-06
3.87961e-06
3.8797e-06
3.87984e-06
3.88006e-06
3.88035e-06
3.88073e-06
3.8812e-06
3.88162e-06
3.88129e-06
3.88097e-06
3.88058e-06
3.88019e-06
3.87988e-06
3.87964e-06
3.87946e-06
3.87935e-06
3.8793e-06
3.87931e-06
3.87938e-06
3.87951e-06
3.8797e-06
3.87996e-06
3.8803e-06
3.88072e-06
3.88108e-06
3.88088e-06
3.88059e-06
3.88024e-06
3.87988e-06
3.87959e-06
3.87937e-06
3.87921e-06
3.87911e-06
3.87906e-06
3.87907e-06
3.87913e-06
3.87925e-06
3.87942e-06
3.87966e-06
3.87996e-06
3.88034e-06
3.88066e-06
3.88056e-06
3.8803e-06
3.87997e-06
3.87964e-06
3.87937e-06
3.87917e-06
3.87902e-06
3.87893e-06
3.87888e-06
3.87888e-06
3.87894e-06
3.87905e-06
3.8792e-06
3.87942e-06
3.8797e-06
3.88005e-06
3.88034e-06
3.88033e-06
3.88009e-06
3.87978e-06
3.87946e-06
3.87921e-06
3.87902e-06
3.87888e-06
3.87879e-06
3.87875e-06
3.87875e-06
3.8788e-06
3.8789e-06
3.87905e-06
3.87925e-06
3.87951e-06
3.87984e-06
3.88011e-06
3.88018e-06
3.87995e-06
3.87966e-06
3.87935e-06
3.87911e-06
3.87893e-06
3.87879e-06
3.8787e-06
3.87866e-06
3.87866e-06
3.87871e-06
3.87881e-06
3.87894e-06
3.87914e-06
3.87939e-06
3.8797e-06
3.87996e-06
3.88011e-06
3.87989e-06
3.8796e-06
3.8793e-06
3.87906e-06
3.87888e-06
3.87875e-06
3.87866e-06
3.87861e-06
3.87861e-06
3.87866e-06
3.87876e-06
3.87889e-06
3.87908e-06
3.87933e-06
3.87964e-06
3.87989e-06
3.88013e-06
3.87991e-06
3.87961e-06
3.87931e-06
3.87907e-06
3.87888e-06
3.87875e-06
3.87866e-06
3.87861e-06
3.87862e-06
3.87867e-06
3.87876e-06
3.8789e-06
3.87909e-06
3.87934e-06
3.87966e-06
3.87991e-06
3.88024e-06
3.88e-06
3.8797e-06
3.87938e-06
3.87913e-06
3.87894e-06
3.8788e-06
3.87871e-06
3.87866e-06
3.87867e-06
3.87872e-06
3.87882e-06
3.87896e-06
3.87916e-06
3.87942e-06
3.87975e-06
3.88002e-06
3.88042e-06
3.88017e-06
3.87984e-06
3.87951e-06
3.87925e-06
3.87905e-06
3.8789e-06
3.8788e-06
3.87876e-06
3.87876e-06
3.87882e-06
3.87892e-06
3.87908e-06
3.87929e-06
3.87957e-06
3.87992e-06
3.88021e-06
3.8807e-06
3.88041e-06
3.88006e-06
3.8797e-06
3.87942e-06
3.8792e-06
3.87905e-06
3.87894e-06
3.87889e-06
3.8789e-06
3.87896e-06
3.87908e-06
3.87925e-06
3.87948e-06
3.87978e-06
3.88016e-06
3.88048e-06
3.88106e-06
3.88074e-06
3.88035e-06
3.87996e-06
3.87965e-06
3.87942e-06
3.87925e-06
3.87914e-06
3.87908e-06
3.87909e-06
3.87916e-06
3.87929e-06
3.87948e-06
3.87974e-06
3.88007e-06
3.88049e-06
3.88084e-06
3.88154e-06
3.88117e-06
3.88073e-06
3.8803e-06
3.87996e-06
3.8797e-06
3.87951e-06
3.87939e-06
3.87933e-06
3.87934e-06
3.87942e-06
3.87957e-06
3.87978e-06
3.88007e-06
3.88045e-06
3.88091e-06
3.88133e-06
3.88211e-06
3.88167e-06
3.8812e-06
3.88072e-06
3.88034e-06
3.88005e-06
3.87984e-06
3.8797e-06
3.87964e-06
3.87966e-06
3.87975e-06
3.87992e-06
3.88016e-06
3.88049e-06
3.88091e-06
3.88142e-06
3.8819e-06
3.88274e-06
3.88216e-06
3.88162e-06
3.88108e-06
3.88066e-06
3.88034e-06
3.88011e-06
3.87996e-06
3.87989e-06
3.87991e-06
3.88002e-06
3.88021e-06
3.88048e-06
3.88084e-06
3.88133e-06
3.8819e-06
3.88253e-06
3.83856e-06
3.83808e-06
3.8376e-06
3.83713e-06
3.83675e-06
3.83646e-06
3.83625e-06
3.83612e-06
3.83606e-06
3.83608e-06
3.83617e-06
3.83634e-06
3.83658e-06
3.83691e-06
3.83733e-06
3.83783e-06
3.83834e-06
3.83808e-06
3.83772e-06
3.8373e-06
3.83687e-06
3.83653e-06
3.83626e-06
3.83608e-06
3.83595e-06
3.8359e-06
3.83591e-06
3.83599e-06
3.83614e-06
3.83636e-06
3.83665e-06
3.83702e-06
3.83746e-06
3.83787e-06
3.8376e-06
3.8373e-06
3.83693e-06
3.83654e-06
3.83623e-06
3.83599e-06
3.83582e-06
3.83571e-06
3.83566e-06
3.83567e-06
3.83574e-06
3.83587e-06
3.83607e-06
3.83632e-06
3.83666e-06
3.83705e-06
3.83739e-06
3.83713e-06
3.83687e-06
3.83654e-06
3.83619e-06
3.83591e-06
3.83569e-06
3.83554e-06
3.83544e-06
3.83539e-06
3.83539e-06
3.83546e-06
3.83558e-06
3.83575e-06
3.83598e-06
3.83627e-06
3.83662e-06
3.83691e-06
3.83675e-06
3.83653e-06
3.83623e-06
3.83591e-06
3.83565e-06
3.83545e-06
3.83531e-06
3.83521e-06
3.83517e-06
3.83517e-06
3.83523e-06
3.83533e-06
3.83549e-06
3.8357e-06
3.83596e-06
3.83628e-06
3.83653e-06
3.83646e-06
3.83626e-06
3.83599e-06
3.83569e-06
3.83545e-06
3.83527e-06
3.83513e-06
3.83504e-06
3.835e-06
3.835e-06
3.83505e-06
3.83515e-06
3.83529e-06
3.83548e-06
3.83573e-06
3.83602e-06
3.83624e-06
3.83625e-06
3.83608e-06
3.83582e-06
3.83554e-06
3.83531e-06
3.83513e-06
3.83501e-06
3.83492e-06
3.83488e-06
3.83488e-06
3.83493e-06
3.83502e-06
3.83515e-06
3.83533e-06
3.83556e-06
3.83583e-06
3.83603e-06
3.83612e-06
3.83595e-06
3.83571e-06
3.83544e-06
3.83521e-06
3.83504e-06
3.83492e-06
3.83484e-06
3.8348e-06
3.8348e-06
3.83484e-06
3.83493e-06
3.83505e-06
3.83522e-06
3.83545e-06
3.83571e-06
3.8359e-06
3.83606e-06
3.8359e-06
3.83566e-06
3.83539e-06
3.83517e-06
3.835e-06
3.83488e-06
3.8348e-06
3.83475e-06
3.83475e-06
3.8348e-06
3.83488e-06
3.83501e-06
3.83518e-06
3.83539e-06
3.83565e-06
3.83584e-06
3.83608e-06
3.83591e-06
3.83567e-06
3.83539e-06
3.83517e-06
3.835e-06
3.83488e-06
3.8348e-06
3.83475e-06
3.83476e-06
3.8348e-06
3.83489e-06
3.83501e-06
3.83518e-06
3.8354e-06
3.83566e-06
3.83585e-06
3.83617e-06
3.83599e-06
3.83574e-06
3.83546e-06
3.83523e-06
3.83505e-06
3.83493e-06
3.83484e-06
3.8348e-06
3.8348e-06
3.83485e-06
3.83494e-06
3.83507e-06
3.83525e-06
3.83548e-06
3.83575e-06
3.83595e-06
3.83634e-06
3.83614e-06
3.83587e-06
3.83558e-06
3.83533e-06
3.83515e-06
3.83502e-06
3.83493e-06
3.83488e-06
3.83489e-06
3.83494e-06
3.83503e-06
3.83517e-06
3.83536e-06
3.83561e-06
3.8359e-06
3.83612e-06
3.83658e-06
3.83636e-06
3.83607e-06
3.83575e-06
3.83549e-06
3.83529e-06
3.83515e-06
3.83505e-06
3.83501e-06
3.83501e-06
3.83507e-06
3.83517e-06
3.83533e-06
3.83553e-06
3.8358e-06
3.83611e-06
3.83636e-06
3.83691e-06
3.83665e-06
3.83632e-06
3.83598e-06
3.8357e-06
3.83548e-06
3.83533e-06
3.83522e-06
3.83518e-06
3.83518e-06
3.83525e-06
3.83536e-06
3.83553e-06
3.83576e-06
3.83605e-06
3.8364e-06
3.83669e-06
3.83733e-06
3.83702e-06
3.83666e-06
3.83627e-06
3.83596e-06
3.83573e-06
3.83556e-06
3.83545e-06
3.83539e-06
3.8354e-06
3.83548e-06
3.83561e-06
3.8358e-06
3.83605e-06
3.83638e-06
3.83677e-06
3.83711e-06
3.83783e-06
3.83746e-06
3.83705e-06
3.83662e-06
3.83628e-06
3.83602e-06
3.83583e-06
3.83571e-06
3.83565e-06
3.83566e-06
3.83575e-06
3.8359e-06
3.83611e-06
3.8364e-06
3.83677e-06
3.83721e-06
3.83761e-06
3.83834e-06
3.83787e-06
3.83739e-06
3.83691e-06
3.83653e-06
3.83624e-06
3.83603e-06
3.8359e-06
3.83584e-06
3.83585e-06
3.83595e-06
3.83612e-06
3.83636e-06
3.83669e-06
3.83711e-06
3.83761e-06
3.83812e-06
3.80257e-06
3.80233e-06
3.80211e-06
3.80189e-06
3.80171e-06
3.80156e-06
3.80144e-06
3.80137e-06
3.80133e-06
3.80134e-06
3.80139e-06
3.80148e-06
3.80161e-06
3.80178e-06
3.80197e-06
3.80219e-06
3.80244e-06
3.80233e-06
3.80213e-06
3.80193e-06
3.80173e-06
3.80155e-06
3.80141e-06
3.8013e-06
3.80123e-06
3.80119e-06
3.8012e-06
3.80125e-06
3.80133e-06
3.80145e-06
3.80161e-06
3.80179e-06
3.80199e-06
3.8022e-06
3.80211e-06
3.80193e-06
3.80174e-06
3.80154e-06
3.80137e-06
3.80124e-06
3.80113e-06
3.80106e-06
3.80103e-06
3.80104e-06
3.80108e-06
3.80116e-06
3.80127e-06
3.80142e-06
3.80159e-06
3.80179e-06
3.80198e-06
3.80189e-06
3.80173e-06
3.80154e-06
3.80135e-06
3.80119e-06
3.80106e-06
3.80096e-06
3.80089e-06
3.80086e-06
3.80087e-06
3.80091e-06
3.80098e-06
3.80109e-06
3.80123e-06
3.80139e-06
3.80158e-06
3.80176e-06
3.80171e-06
3.80155e-06
3.80137e-06
3.80119e-06
3.80104e-06
3.80091e-06
3.80082e-06
3.80075e-06
3.80072e-06
3.80073e-06
3.80076e-06
3.80084e-06
3.80094e-06
3.80107e-06
3.80122e-06
3.80141e-06
3.80158e-06
3.80156e-06
3.80141e-06
3.80124e-06
3.80106e-06
3.80091e-06
3.80079e-06
3.8007e-06
3.80064e-06
3.80061e-06
3.80061e-06
3.80065e-06
3.80071e-06
3.80081e-06
3.80094e-06
3.80109e-06
3.80127e-06
3.80142e-06
3.80144e-06
3.8013e-06
3.80113e-06
3.80096e-06
3.80082e-06
3.8007e-06
3.80061e-06
3.80055e-06
3.80052e-06
3.80052e-06
3.80056e-06
3.80062e-06
3.80072e-06
3.80084e-06
3.80098e-06
3.80116e-06
3.80131e-06
3.80137e-06
3.80123e-06
3.80106e-06
3.80089e-06
3.80075e-06
3.80064e-06
3.80055e-06
3.80049e-06
3.80046e-06
3.80047e-06
3.8005e-06
3.80056e-06
3.80065e-06
3.80077e-06
3.80091e-06
3.80108e-06
3.80123e-06
3.80133e-06
3.80119e-06
3.80103e-06
3.80086e-06
3.80072e-06
3.80061e-06
3.80052e-06
3.80046e-06
3.80043e-06
3.80044e-06
3.80047e-06
3.80053e-06
3.80062e-06
3.80074e-06
3.80088e-06
3.80105e-06
3.8012e-06
3.80134e-06
3.8012e-06
3.80104e-06
3.80087e-06
3.80073e-06
3.80061e-06
3.80052e-06
3.80047e-06
3.80044e-06
3.80044e-06
3.80047e-06
3.80053e-06
3.80062e-06
3.80074e-06
3.80089e-06
3.80106e-06
3.80121e-06
3.80139e-06
3.80125e-06
3.80108e-06
3.80091e-06
3.80076e-06
3.80065e-06
3.80056e-06
3.8005e-06
3.80047e-06
3.80047e-06
3.80051e-06
3.80057e-06
3.80066e-06
3.80078e-06
3.80093e-06
3.8011e-06
3.80126e-06
3.80148e-06
3.80133e-06
3.80116e-06
3.80098e-06
3.80083e-06
3.80071e-06
3.80062e-06
3.80056e-06
3.80053e-06
3.80053e-06
3.80057e-06
3.80064e-06
3.80073e-06
3.80086e-06
3.80101e-06
3.80119e-06
3.80135e-06
3.80161e-06
3.80145e-06
3.80127e-06
3.80109e-06
3.80094e-06
3.80081e-06
3.80072e-06
3.80065e-06
3.80062e-06
3.80062e-06
3.80066e-06
3.80073e-06
3.80083e-06
3.80097e-06
3.80112e-06
3.80131e-06
3.80148e-06
3.80177e-06
3.80161e-06
3.80142e-06
3.80123e-06
3.80107e-06
3.80094e-06
3.80084e-06
3.80077e-06
3.80074e-06
3.80074e-06
3.80078e-06
3.80086e-06
3.80097e-06
3.8011e-06
3.80127e-06
3.80146e-06
3.80164e-06
3.80197e-06
3.80179e-06
3.80159e-06
3.80139e-06
3.80122e-06
3.80109e-06
3.80098e-06
3.80091e-06
3.80088e-06
3.80089e-06
3.80093e-06
3.80101e-06
3.80112e-06
3.80127e-06
3.80144e-06
3.80164e-06
3.80184e-06
3.80219e-06
3.80199e-06
3.80179e-06
3.80158e-06
3.80141e-06
3.80126e-06
3.80116e-06
3.80108e-06
3.80105e-06
3.80106e-06
3.8011e-06
3.80119e-06
3.80131e-06
3.80146e-06
3.80164e-06
3.80185e-06
3.80206e-06
3.80243e-06
3.80219e-06
3.80198e-06
3.80176e-06
3.80157e-06
3.80142e-06
3.80131e-06
3.80123e-06
3.8012e-06
3.80121e-06
3.80126e-06
3.80135e-06
3.80148e-06
3.80164e-06
3.80184e-06
3.80206e-06
3.8023e-06
3.76213e-06
3.76199e-06
3.76188e-06
3.76176e-06
3.76166e-06
3.76157e-06
3.76151e-06
3.76146e-06
3.76144e-06
3.76144e-06
3.76147e-06
3.76152e-06
3.7616e-06
3.76169e-06
3.7618e-06
3.7619e-06
3.76203e-06
3.76199e-06
3.76187e-06
3.76176e-06
3.76165e-06
3.76155e-06
3.76147e-06
3.7614e-06
3.76136e-06
3.76134e-06
3.76134e-06
3.76137e-06
3.76142e-06
3.76149e-06
3.76158e-06
3.76168e-06
3.76178e-06
3.76189e-06
3.76188e-06
3.76176e-06
3.76166e-06
3.76155e-06
3.76145e-06
3.76137e-06
3.76131e-06
3.76126e-06
3.76124e-06
3.76124e-06
3.76127e-06
3.76132e-06
3.76139e-06
3.76147e-06
3.76157e-06
3.76168e-06
3.76178e-06
3.76176e-06
3.76165e-06
3.76155e-06
3.76145e-06
3.76135e-06
3.76127e-06
3.7612e-06
3.76116e-06
3.76114e-06
3.76114e-06
3.76117e-06
3.76121e-06
3.76128e-06
3.76137e-06
3.76146e-06
3.76157e-06
3.76167e-06
3.76166e-06
3.76156e-06
3.76145e-06
3.76135e-06
3.76125e-06
3.76117e-06
3.76111e-06
3.76107e-06
3.76105e-06
3.76105e-06
3.76107e-06
3.76112e-06
3.76119e-06
3.76127e-06
3.76137e-06
3.76147e-06
3.76157e-06
3.76157e-06
3.76147e-06
3.76137e-06
3.76127e-06
3.76117e-06
3.76109e-06
3.76103e-06
3.76099e-06
3.76097e-06
3.76097e-06
3.76099e-06
3.76104e-06
3.7611e-06
3.76119e-06
3.76128e-06
3.76138e-06
3.76148e-06
3.76151e-06
3.7614e-06
3.76131e-06
3.7612e-06
3.76111e-06
3.76103e-06
3.76097e-06
3.76093e-06
3.76091e-06
3.76091e-06
3.76093e-06
3.76098e-06
3.76104e-06
3.76112e-06
3.76122e-06
3.76132e-06
3.76141e-06
3.76146e-06
3.76136e-06
3.76126e-06
3.76116e-06
3.76107e-06
3.76099e-06
3.76093e-06
3.76089e-06
3.76087e-06
3.76087e-06
3.76089e-06
3.76093e-06
3.761e-06
3.76108e-06
3.76117e-06
3.76127e-06
3.76137e-06
3.76144e-06
3.76134e-06
3.76124e-06
3.76114e-06
3.76105e-06
3.76097e-06
3.76091e-06
3.76087e-06
3.76085e-06
3.76085e-06
3.76087e-06
3.76091e-06
3.76098e-06
3.76106e-06
3.76115e-06
3.76125e-06
3.76135e-06
3.76144e-06
3.76134e-06
3.76124e-06
3.76114e-06
3.76105e-06
3.76097e-06
3.76091e-06
3.76087e-06
3.76085e-06
3.76085e-06
3.76087e-06
3.76091e-06
3.76098e-06
3.76106e-06
3.76115e-06
3.76126e-06
3.76135e-06
3.76147e-06
3.76137e-06
3.76127e-06
3.76117e-06
3.76107e-06
3.76099e-06
3.76093e-06
3.76089e-06
3.76087e-06
3.76087e-06
3.76089e-06
3.76094e-06
3.761e-06
3.76108e-06
3.76118e-06
3.76128e-06
3.76138e-06
3.76152e-06
3.76142e-06
3.76132e-06
3.76121e-06
3.76112e-06
3.76104e-06
3.76098e-06
3.76093e-06
3.76091e-06
3.76091e-06
3.76094e-06
3.76098e-06
3.76105e-06
3.76113e-06
3.76123e-06
3.76133e-06
3.76143e-06
3.7616e-06
3.76149e-06
3.76139e-06
3.76128e-06
3.76119e-06
3.7611e-06
3.76104e-06
3.761e-06
3.76098e-06
3.76098e-06
3.761e-06
3.76105e-06
3.76112e-06
3.7612e-06
3.7613e-06
3.7614e-06
3.7615e-06
3.76169e-06
3.76158e-06
3.76147e-06
3.76137e-06
3.76127e-06
3.76119e-06
3.76112e-06
3.76108e-06
3.76106e-06
3.76106e-06
3.76108e-06
3.76113e-06
3.7612e-06
3.76129e-06
3.76139e-06
3.76149e-06
3.76159e-06
3.76179e-06
3.76168e-06
3.76157e-06
3.76146e-06
3.76137e-06
3.76128e-06
3.76122e-06
3.76117e-06
3.76115e-06
3.76115e-06
3.76118e-06
3.76123e-06
3.7613e-06
3.76139e-06
3.76149e-06
3.76159e-06
3.7617e-06
3.7619e-06
3.76178e-06
3.76168e-06
3.76157e-06
3.76147e-06
3.76138e-06
3.76132e-06
3.76127e-06
3.76125e-06
3.76126e-06
3.76128e-06
3.76133e-06
3.7614e-06
3.76149e-06
3.76159e-06
3.76169e-06
3.76181e-06
3.76203e-06
3.76189e-06
3.76178e-06
3.76167e-06
3.76157e-06
3.76148e-06
3.76141e-06
3.76137e-06
3.76135e-06
3.76135e-06
3.76138e-06
3.76143e-06
3.7615e-06
3.76159e-06
3.7617e-06
3.76181e-06
3.76194e-06
3.72357e-06
3.72349e-06
3.72342e-06
3.72335e-06
3.72329e-06
3.72324e-06
3.7232e-06
3.72317e-06
3.72315e-06
3.72316e-06
3.72317e-06
3.7232e-06
3.72325e-06
3.7233e-06
3.72336e-06
3.72342e-06
3.7235e-06
3.72349e-06
3.72342e-06
3.72335e-06
3.72329e-06
3.72323e-06
3.72318e-06
3.72314e-06
3.72311e-06
3.72309e-06
3.7231e-06
3.72311e-06
3.72314e-06
3.72318e-06
3.72323e-06
3.72329e-06
3.72335e-06
3.72341e-06
3.72342e-06
3.72335e-06
3.72329e-06
3.72322e-06
3.72316e-06
3.72311e-06
3.72307e-06
3.72304e-06
3.72303e-06
3.72303e-06
3.72304e-06
3.72307e-06
3.72311e-06
3.72316e-06
3.72322e-06
3.72328e-06
3.72334e-06
3.72335e-06
3.72329e-06
3.72322e-06
3.72315e-06
3.72309e-06
3.72304e-06
3.723e-06
3.72297e-06
3.72295e-06
3.72295e-06
3.72297e-06
3.723e-06
3.72304e-06
3.72309e-06
3.72315e-06
3.72321e-06
3.72327e-06
3.72329e-06
3.72323e-06
3.72316e-06
3.72309e-06
3.72303e-06
3.72297e-06
3.72293e-06
3.7229e-06
3.72289e-06
3.72289e-06
3.7229e-06
3.72293e-06
3.72297e-06
3.72303e-06
3.72309e-06
3.72315e-06
3.72322e-06
3.72324e-06
3.72318e-06
3.72311e-06
3.72304e-06
3.72297e-06
3.72292e-06
3.72288e-06
3.72285e-06
3.72284e-06
3.72284e-06
3.72285e-06
3.72288e-06
3.72292e-06
3.72297e-06
3.72304e-06
3.7231e-06
3.72316e-06
3.7232e-06
3.72314e-06
3.72307e-06
3.723e-06
3.72293e-06
3.72288e-06
3.72284e-06
3.72281e-06
3.72279e-06
3.72279e-06
3.72281e-06
3.72284e-06
3.72288e-06
3.72293e-06
3.72299e-06
3.72306e-06
3.72312e-06
3.72317e-06
3.72311e-06
3.72304e-06
3.72297e-06
3.7229e-06
3.72285e-06
3.72281e-06
3.72278e-06
3.72277e-06
3.72277e-06
3.72278e-06
3.72281e-06
3.72285e-06
3.7229e-06
3.72297e-06
3.72304e-06
3.72309e-06
3.72315e-06
3.72309e-06
3.72303e-06
3.72295e-06
3.72289e-06
3.72284e-06
3.72279e-06
3.72277e-06
3.72275e-06
3.72275e-06
3.72277e-06
3.7228e-06
3.72284e-06
3.72289e-06
3.72295e-06
3.72302e-06
3.72308e-06
3.72316e-06
3.7231e-06
3.72303e-06
3.72295e-06
3.72289e-06
3.72284e-06
3.72279e-06
3.72277e-06
3.72275e-06
3.72275e-06
3.72277e-06
3.7228e-06
3.72284e-06
3.72289e-06
3.72295e-06
3.72302e-06
3.72308e-06
3.72317e-06
3.72311e-06
3.72304e-06
3.72297e-06
3.7229e-06
3.72285e-06
3.72281e-06
3.72278e-06
3.72277e-06
3.72277e-06
3.72278e-06
3.72281e-06
3.72285e-06
3.72291e-06
3.72297e-06
3.72304e-06
3.7231e-06
3.7232e-06
3.72314e-06
3.72307e-06
3.723e-06
3.72293e-06
3.72288e-06
3.72284e-06
3.72281e-06
3.7228e-06
3.7228e-06
3.72281e-06
3.72284e-06
3.72288e-06
3.72294e-06
3.723e-06
3.72307e-06
3.72313e-06
3.72325e-06
3.72318e-06
3.72311e-06
3.72304e-06
3.72297e-06
3.72292e-06
3.72288e-06
3.72285e-06
3.72284e-06
3.72284e-06
3.72285e-06
3.72288e-06
3.72292e-06
3.72298e-06
3.72304e-06
3.72311e-06
3.72317e-06
3.7233e-06
3.72323e-06
3.72316e-06
3.72309e-06
3.72303e-06
3.72297e-06
3.72293e-06
3.7229e-06
3.72289e-06
3.72289e-06
3.72291e-06
3.72294e-06
3.72298e-06
3.72303e-06
3.72309e-06
3.72316e-06
3.72322e-06
3.72336e-06
3.72329e-06
3.72322e-06
3.72315e-06
3.72309e-06
3.72304e-06
3.72299e-06
3.72297e-06
3.72295e-06
3.72295e-06
3.72297e-06
3.723e-06
3.72304e-06
3.72309e-06
3.72315e-06
3.72322e-06
3.72328e-06
3.72342e-06
3.72335e-06
3.72328e-06
3.72321e-06
3.72315e-06
3.7231e-06
3.72306e-06
3.72304e-06
3.72302e-06
3.72302e-06
3.72304e-06
3.72307e-06
3.72311e-06
3.72316e-06
3.72322e-06
3.72328e-06
3.72334e-06
3.7235e-06
3.72341e-06
3.72334e-06
3.72327e-06
3.72322e-06
3.72316e-06
3.72312e-06
3.72309e-06
3.72308e-06
3.72308e-06
3.7231e-06
3.72313e-06
3.72317e-06
3.72322e-06
3.72328e-06
3.72334e-06
3.72342e-06
3.68454e-06
3.6845e-06
3.68447e-06
3.68444e-06
3.68441e-06
3.68438e-06
3.68436e-06
3.68434e-06
3.68434e-06
3.68434e-06
3.68434e-06
3.68436e-06
3.68438e-06
3.6844e-06
3.68443e-06
3.68445e-06
3.68449e-06
3.6845e-06
3.68446e-06
3.68443e-06
3.6844e-06
3.68437e-06
3.68434e-06
3.68432e-06
3.6843e-06
3.6843e-06
3.68429e-06
3.6843e-06
3.68432e-06
3.68434e-06
3.68436e-06
3.68439e-06
3.68441e-06
3.68444e-06
3.68447e-06
3.68443e-06
3.68439e-06
3.68436e-06
3.68433e-06
3.6843e-06
3.68428e-06
3.68426e-06
3.68425e-06
3.68425e-06
3.68426e-06
3.68427e-06
3.6843e-06
3.68432e-06
3.68435e-06
3.68438e-06
3.68441e-06
3.68444e-06
3.6844e-06
3.68436e-06
3.68432e-06
3.68429e-06
3.68426e-06
3.68424e-06
3.68422e-06
3.68421e-06
3.68421e-06
3.68422e-06
3.68423e-06
3.68426e-06
3.68428e-06
3.68431e-06
3.68435e-06
3.68438e-06
3.68441e-06
3.68437e-06
3.68433e-06
3.68429e-06
3.68425e-06
3.68422e-06
3.6842e-06
3.68418e-06
3.68417e-06
3.68417e-06
3.68418e-06
3.6842e-06
3.68422e-06
3.68425e-06
3.68428e-06
3.68432e-06
3.68435e-06
3.68438e-06
3.68434e-06
3.6843e-06
3.68426e-06
3.68422e-06
3.68419e-06
3.68416e-06
3.68415e-06
3.68414e-06
3.68414e-06
3.68415e-06
3.68416e-06
3.68419e-06
3.68422e-06
3.68425e-06
3.68429e-06
3.68433e-06
3.68436e-06
3.68432e-06
3.68428e-06
3.68424e-06
3.6842e-06
3.68416e-06
3.68414e-06
3.68412e-06
3.68411e-06
3.68411e-06
3.68412e-06
3.68414e-06
3.68416e-06
3.68419e-06
3.68423e-06
3.68427e-06
3.68431e-06
3.68434e-06
3.6843e-06
3.68426e-06
3.68422e-06
3.68418e-06
3.68415e-06
3.68412e-06
3.6841e-06
3.68409e-06
3.68409e-06
3.6841e-06
3.68412e-06
3.68414e-06
3.68418e-06
3.68421e-06
3.68425e-06
3.68429e-06
3.68434e-06
3.6843e-06
3.68425e-06
3.68421e-06
3.68417e-06
3.68414e-06
3.68411e-06
3.68409e-06
3.68408e-06
3.68408e-06
3.68409e-06
3.68411e-06
3.68413e-06
3.68417e-06
3.6842e-06
3.68425e-06
3.68428e-06
3.68434e-06
3.68429e-06
3.68425e-06
3.68421e-06
3.68417e-06
3.68414e-06
3.68411e-06
3.68409e-06
3.68408e-06
3.68408e-06
3.68409e-06
3.68411e-06
3.68413e-06
3.68417e-06
3.6842e-06
3.68424e-06
3.68428e-06
3.68434e-06
3.6843e-06
3.68426e-06
3.68422e-06
3.68418e-06
3.68415e-06
3.68412e-06
3.6841e-06
3.68409e-06
3.68409e-06
3.6841e-06
3.68412e-06
3.68414e-06
3.68418e-06
3.68421e-06
3.68425e-06
3.68429e-06
3.68436e-06
3.68432e-06
3.68427e-06
3.68423e-06
3.6842e-06
3.68416e-06
3.68414e-06
3.68412e-06
3.68411e-06
3.68411e-06
3.68412e-06
3.68413e-06
3.68416e-06
3.68419e-06
3.68423e-06
3.68427e-06
3.6843e-06
3.68438e-06
3.68434e-06
3.6843e-06
3.68426e-06
3.68422e-06
3.68419e-06
3.68416e-06
3.68414e-06
3.68413e-06
3.68413e-06
3.68414e-06
3.68416e-06
3.68418e-06
3.68421e-06
3.68425e-06
3.68429e-06
3.68432e-06
3.6844e-06
3.68436e-06
3.68432e-06
3.68428e-06
3.68425e-06
3.68422e-06
3.68419e-06
3.68418e-06
3.68417e-06
3.68417e-06
3.68418e-06
3.68419e-06
3.68421e-06
3.68424e-06
3.68428e-06
3.68431e-06
3.68435e-06
3.68443e-06
3.68439e-06
3.68435e-06
3.68431e-06
3.68428e-06
3.68425e-06
3.68423e-06
3.68421e-06
3.6842e-06
3.6842e-06
3.68421e-06
3.68423e-06
3.68425e-06
3.68428e-06
3.68431e-06
3.68434e-06
3.68437e-06
3.68445e-06
3.68441e-06
3.68438e-06
3.68435e-06
3.68432e-06
3.68429e-06
3.68427e-06
3.68425e-06
3.68425e-06
3.68424e-06
3.68425e-06
3.68427e-06
3.68429e-06
3.68431e-06
3.68434e-06
3.68436e-06
3.6844e-06
3.68449e-06
3.68444e-06
3.68441e-06
3.68438e-06
3.68435e-06
3.68433e-06
3.68431e-06
3.68429e-06
3.68428e-06
3.68428e-06
3.68429e-06
3.6843e-06
3.68432e-06
3.68435e-06
3.68437e-06
3.6844e-06
3.68443e-06
3.64573e-06
3.6457e-06
3.64569e-06
3.64567e-06
3.64565e-06
3.64564e-06
3.64562e-06
3.64562e-06
3.64561e-06
3.64561e-06
3.64561e-06
3.64562e-06
3.64563e-06
3.64564e-06
3.64565e-06
3.64567e-06
3.64569e-06
3.6457e-06
3.64568e-06
3.64566e-06
3.64565e-06
3.64563e-06
3.64561e-06
3.6456e-06
3.64559e-06
3.64559e-06
3.64558e-06
3.64559e-06
3.64559e-06
3.6456e-06
3.64562e-06
3.64563e-06
3.64565e-06
3.64566e-06
3.64569e-06
3.64566e-06
3.64564e-06
3.64562e-06
3.6456e-06
3.64559e-06
3.64557e-06
3.64556e-06
3.64556e-06
3.64556e-06
3.64556e-06
3.64557e-06
3.64558e-06
3.64559e-06
3.64561e-06
3.64562e-06
3.64564e-06
3.64567e-06
3.64565e-06
3.64562e-06
3.6456e-06
3.64558e-06
3.64556e-06
3.64555e-06
3.64554e-06
3.64553e-06
3.64553e-06
3.64553e-06
3.64554e-06
3.64555e-06
3.64557e-06
3.64559e-06
3.64561e-06
3.64562e-06
3.64565e-06
3.64563e-06
3.6456e-06
3.64558e-06
3.64556e-06
3.64554e-06
3.64552e-06
3.64551e-06
3.64551e-06
3.64551e-06
3.64551e-06
3.64552e-06
3.64553e-06
3.64555e-06
3.64557e-06
3.64559e-06
3.64561e-06
3.64564e-06
3.64561e-06
3.64559e-06
3.64556e-06
3.64554e-06
3.64552e-06
3.6455e-06
3.64549e-06
3.64548e-06
3.64548e-06
3.64549e-06
3.6455e-06
3.64551e-06
3.64553e-06
3.64555e-06
3.64557e-06
3.64559e-06
3.64562e-06
3.6456e-06
3.64557e-06
3.64555e-06
3.64552e-06
3.6455e-06
3.64549e-06
3.64547e-06
3.64547e-06
3.64547e-06
3.64547e-06
3.64548e-06
3.6455e-06
3.64551e-06
3.64554e-06
3.64556e-06
3.64558e-06
3.64562e-06
3.64559e-06
3.64556e-06
3.64554e-06
3.64551e-06
3.64549e-06
3.64547e-06
3.64546e-06
3.64546e-06
3.64545e-06
3.64546e-06
3.64547e-06
3.64548e-06
3.6455e-06
3.64553e-06
3.64555e-06
3.64557e-06
3.64561e-06
3.64559e-06
3.64556e-06
3.64553e-06
3.64551e-06
3.64548e-06
3.64547e-06
3.64546e-06
3.64545e-06
3.64545e-06
3.64545e-06
3.64546e-06
3.64548e-06
3.6455e-06
3.64552e-06
3.64554e-06
3.64557e-06
3.64561e-06
3.64558e-06
3.64556e-06
3.64553e-06
3.64551e-06
3.64548e-06
3.64547e-06
3.64545e-06
3.64545e-06
3.64545e-06
3.64545e-06
3.64546e-06
3.64548e-06
3.6455e-06
3.64552e-06
3.64554e-06
3.64556e-06
3.64561e-06
3.64559e-06
3.64556e-06
3.64553e-06
3.64551e-06
3.64549e-06
3.64547e-06
3.64546e-06
3.64545e-06
3.64545e-06
3.64546e-06
3.64547e-06
3.64548e-06
3.6455e-06
3.64552e-06
3.64555e-06
3.64557e-06
3.64562e-06
3.64559e-06
3.64557e-06
3.64554e-06
3.64552e-06
3.6455e-06
3.64548e-06
3.64547e-06
3.64546e-06
3.64546e-06
3.64547e-06
3.64548e-06
3.64549e-06
3.64551e-06
3.64553e-06
3.64555e-06
3.64557e-06
3.64563e-06
3.6456e-06
3.64558e-06
3.64555e-06
3.64553e-06
3.64551e-06
3.6455e-06
3.64548e-06
3.64548e-06
3.64548e-06
3.64548e-06
3.64549e-06
3.64551e-06
3.64552e-06
3.64554e-06
3.64556e-06
3.64558e-06
3.64564e-06
3.64562e-06
3.64559e-06
3.64557e-06
3.64555e-06
3.64553e-06
3.64551e-06
3.6455e-06
3.6455e-06
3.6455e-06
3.6455e-06
3.64551e-06
3.64552e-06
3.64554e-06
3.64556e-06
3.64558e-06
3.6456e-06
3.64565e-06
3.64563e-06
3.64561e-06
3.64559e-06
3.64557e-06
3.64555e-06
3.64554e-06
3.64553e-06
3.64552e-06
3.64552e-06
3.64552e-06
3.64553e-06
3.64554e-06
3.64556e-06
3.64557e-06
3.64559e-06
3.64561e-06
3.64567e-06
3.64565e-06
3.64562e-06
3.6456e-06
3.64559e-06
3.64557e-06
3.64556e-06
3.64555e-06
3.64554e-06
3.64554e-06
3.64555e-06
3.64555e-06
3.64556e-06
3.64558e-06
3.64559e-06
3.64561e-06
3.64562e-06
3.64569e-06
3.64566e-06
3.64564e-06
3.64562e-06
3.64561e-06
3.64559e-06
3.64558e-06
3.64557e-06
3.64557e-06
3.64556e-06
3.64557e-06
3.64557e-06
3.64558e-06
3.6456e-06
3.64561e-06
3.64562e-06
3.64564e-06
3.60693e-06
3.60692e-06
3.60691e-06
3.6069e-06
3.60689e-06
3.60688e-06
3.60688e-06
3.60687e-06
3.60687e-06
3.60687e-06
3.60687e-06
3.60687e-06
3.60687e-06
3.60688e-06
3.60688e-06
3.60689e-06
3.6069e-06
3.60692e-06
3.60691e-06
3.6069e-06
3.60689e-06
3.60688e-06
3.60687e-06
3.60686e-06
3.60685e-06
3.60685e-06
3.60685e-06
3.60685e-06
3.60685e-06
3.60686e-06
3.60686e-06
3.60687e-06
3.60688e-06
3.60688e-06
3.60691e-06
3.6069e-06
3.60688e-06
3.60687e-06
3.60686e-06
3.60685e-06
3.60684e-06
3.60684e-06
3.60683e-06
3.60683e-06
3.60683e-06
3.60684e-06
3.60684e-06
3.60685e-06
3.60686e-06
3.60687e-06
3.60687e-06
3.6069e-06
3.60689e-06
3.60687e-06
3.60686e-06
3.60685e-06
3.60684e-06
3.60683e-06
3.60682e-06
3.60682e-06
3.60681e-06
3.60682e-06
3.60682e-06
3.60683e-06
3.60683e-06
3.60684e-06
3.60685e-06
3.60686e-06
3.60689e-06
3.60688e-06
3.60686e-06
3.60685e-06
3.60683e-06
3.60682e-06
3.60681e-06
3.6068e-06
3.6068e-06
3.6068e-06
3.6068e-06
3.60681e-06
3.60681e-06
3.60682e-06
3.60683e-06
3.60684e-06
3.60686e-06
3.60688e-06
3.60687e-06
3.60685e-06
3.60684e-06
3.60682e-06
3.60681e-06
3.6068e-06
3.60679e-06
3.60679e-06
3.60679e-06
3.60679e-06
3.60679e-06
3.6068e-06
3.60681e-06
3.60682e-06
3.60683e-06
3.60685e-06
3.60688e-06
3.60686e-06
3.60684e-06
3.60683e-06
3.60681e-06
3.6068e-06
3.60679e-06
3.60678e-06
3.60678e-06
3.60677e-06
3.60678e-06
3.60678e-06
3.60679e-06
3.6068e-06
3.60681e-06
3.60683e-06
3.60684e-06
3.60687e-06
3.60685e-06
3.60684e-06
3.60682e-06
3.6068e-06
3.60679e-06
3.60678e-06
3.60677e-06
3.60677e-06
3.60677e-06
3.60677e-06
3.60677e-06
3.60678e-06
3.60679e-06
3.60681e-06
3.60682e-06
3.60683e-06
3.60687e-06
3.60685e-06
3.60683e-06
3.60682e-06
3.6068e-06
3.60679e-06
3.60678e-06
3.60677e-06
3.60676e-06
3.60676e-06
3.60676e-06
3.60677e-06
3.60678e-06
3.60679e-06
3.6068e-06
3.60682e-06
3.60683e-06
3.60687e-06
3.60685e-06
3.60683e-06
3.60681e-06
3.6068e-06
3.60679e-06
3.60677e-06
3.60677e-06
3.60676e-06
3.60676e-06
3.60676e-06
3.60677e-06
3.60678e-06
3.60679e-06
3.6068e-06
3.60682e-06
3.60683e-06
3.60687e-06
3.60685e-06
3.60683e-06
3.60682e-06
3.6068e-06
3.60679e-06
3.60678e-06
3.60677e-06
3.60676e-06
3.60676e-06
3.60677e-06
3.60677e-06
3.60678e-06
3.60679e-06
3.6068e-06
3.60682e-06
3.60683e-06
3.60687e-06
3.60685e-06
3.60684e-06
3.60682e-06
3.60681e-06
3.60679e-06
3.60678e-06
3.60677e-06
3.60677e-06
3.60677e-06
3.60677e-06
3.60678e-06
3.60679e-06
3.6068e-06
3.60681e-06
3.60682e-06
3.60683e-06
3.60687e-06
3.60686e-06
3.60684e-06
3.60683e-06
3.60681e-06
3.6068e-06
3.60679e-06
3.60678e-06
3.60678e-06
3.60678e-06
3.60678e-06
3.60679e-06
3.60679e-06
3.6068e-06
3.60681e-06
3.60683e-06
3.60684e-06
3.60688e-06
3.60686e-06
3.60685e-06
3.60683e-06
3.60682e-06
3.60681e-06
3.6068e-06
3.60679e-06
3.60679e-06
3.60679e-06
3.60679e-06
3.6068e-06
3.6068e-06
3.60681e-06
3.60682e-06
3.60683e-06
3.60684e-06
3.60688e-06
3.60687e-06
3.60686e-06
3.60684e-06
3.60683e-06
3.60682e-06
3.60681e-06
3.60681e-06
3.6068e-06
3.6068e-06
3.6068e-06
3.60681e-06
3.60681e-06
3.60682e-06
3.60683e-06
3.60684e-06
3.60685e-06
3.60689e-06
3.60688e-06
3.60686e-06
3.60685e-06
3.60684e-06
3.60683e-06
3.60683e-06
3.60682e-06
3.60682e-06
3.60682e-06
3.60682e-06
3.60682e-06
3.60683e-06
3.60683e-06
3.60684e-06
3.60685e-06
3.60686e-06
3.6069e-06
3.60688e-06
3.60687e-06
3.60686e-06
3.60685e-06
3.60685e-06
3.60684e-06
3.60683e-06
3.60683e-06
3.60683e-06
3.60683e-06
3.60683e-06
3.60684e-06
3.60684e-06
3.60685e-06
3.60686e-06
3.60686e-06
3.56815e-06
3.56814e-06
3.56813e-06
3.56813e-06
3.56812e-06
3.56812e-06
3.56812e-06
3.56811e-06
3.56811e-06
3.56811e-06
3.56811e-06
3.56811e-06
3.56811e-06
3.56811e-06
3.56811e-06
3.56812e-06
3.56812e-06
3.56814e-06
3.56813e-06
3.56813e-06
3.56812e-06
3.56811e-06
3.56811e-06
3.56811e-06
3.5681e-06
3.5681e-06
3.5681e-06
3.5681e-06
3.5681e-06
3.5681e-06
3.5681e-06
3.56811e-06
3.56811e-06
3.56811e-06
3.56813e-06
3.56813e-06
3.56812e-06
3.56811e-06
3.56811e-06
3.5681e-06
3.56809e-06
3.56809e-06
3.56809e-06
3.56809e-06
3.56809e-06
3.56809e-06
3.56809e-06
3.56809e-06
3.5681e-06
3.5681e-06
3.56811e-06
3.56813e-06
3.56812e-06
3.56811e-06
3.5681e-06
3.5681e-06
3.56809e-06
3.56808e-06
3.56808e-06
3.56808e-06
3.56808e-06
3.56808e-06
3.56808e-06
3.56808e-06
3.56808e-06
3.56809e-06
3.56809e-06
3.5681e-06
3.56812e-06
3.56811e-06
3.56811e-06
3.5681e-06
3.56809e-06
3.56808e-06
3.56808e-06
3.56807e-06
3.56807e-06
3.56807e-06
3.56807e-06
3.56807e-06
3.56807e-06
3.56808e-06
3.56808e-06
3.56809e-06
3.56809e-06
3.56812e-06
3.56811e-06
3.5681e-06
3.56809e-06
3.56808e-06
3.56807e-06
3.56807e-06
3.56806e-06
3.56806e-06
3.56806e-06
3.56806e-06
3.56806e-06
3.56807e-06
3.56807e-06
3.56808e-06
3.56808e-06
3.56809e-06
3.56812e-06
3.56811e-06
3.56809e-06
3.56808e-06
3.56808e-06
3.56807e-06
3.56806e-06
3.56806e-06
3.56805e-06
3.56805e-06
3.56805e-06
3.56805e-06
3.56806e-06
3.56806e-06
3.56807e-06
3.56808e-06
3.56809e-06
3.56811e-06
3.5681e-06
3.56809e-06
3.56808e-06
3.56807e-06
3.56806e-06
3.56806e-06
3.56805e-06
3.56805e-06
3.56805e-06
3.56805e-06
3.56805e-06
3.56805e-06
3.56806e-06
3.56807e-06
3.56807e-06
3.56808e-06
3.56811e-06
3.5681e-06
3.56809e-06
3.56808e-06
3.56807e-06
3.56806e-06
3.56805e-06
3.56805e-06
3.56804e-06
3.56804e-06
3.56804e-06
3.56805e-06
3.56805e-06
3.56806e-06
3.56806e-06
3.56807e-06