/*--------------------------------*- C++ -*----------------------------------*\
  =========                 |
  \\      /  F ield         | OpenFOAM: The Open Source CFD Toolbox
   \\    /   O peration     | Website:  https://openfoam.org
    \\  /    A nd           | Version:  6
     \\/     M anipulation  |
\*---------------------------------------------------------------------------*/
FoamFile
{
    version     2.0;
    format      ascii;
    class       volScalarField;
    location    "./ITHACAoutput/Offline/1";
    object      P_rec;
}
// * * * * * * * * * * * * * * * * * * * * * * * * * * * * * * * * * * * * * //

dimensions      [0 2 -2 0 0 0 0];

internalField   nonuniform List<scalar> 
13046
(
0.414151
0.390833
0.44162
0.415399
0.438903
0.40577
0.404772
0.404233
0.443208
0.266465
0.189931
0.437992
0.402731
0.373951
0.441675
0.302923
0.436071
0.212131
0.438606
0.424886
0.408113
0.296401
0.437806
0.210523
0.419288
0.409623
0.43481
0.396574
0.368336
0.443414
0.419928
0.381422
0.437395
0.42438
0.435965
0.409901
0.421956
0.43703
0.416399
0.428077
0.429947
0.371797
0.420655
0.433149
0.425107
0.42018
0.429731
0.426217
0.406551
0.389428
0.442799
0.40931
0.43626
0.344923
0.408076
0.337505
0.439471
0.278349
0.375042
0.434034
0.361648
0.359704
0.446093
0.440864
0.265971
0.320213
0.384848
0.283548
0.430561
0.39252
0.292548
0.430074
0.26381
0.36747
0.433594
0.437365
0.430403
0.399999
0.437074
0.348747
0.254516
0.414332
0.407347
0.436281
0.439227
0.250341
0.307483
0.302042
0.444704
0.284966
0.444685
0.272871
0.287787
0.36918
0.358113
0.329077
0.320476
0.441472
0.444509
0.446477
0.301534
0.295671
0.418206
0.434107
0.421257
0.443268
0.356503
0.40778
0.432512
0.420939
0.359492
0.20962
0.434093
0.121392
0.407981
0.383551
0.438657
0.361592
0.369562
0.303262
0.440279
0.319995
0.440274
0.255598
0.171761
0.437415
0.387021
0.343709
0.445014
0.424543
0.432043
0.370351
0.443423
0.281755
0.30491
0.340256
0.305819
0.444316
0.416297
0.374302
0.436851
0.383995
0.397865
0.441969
0.433954
0.414261
0.357978
0.442681
0.367466
0.412836
0.359233
0.346459
0.446073
0.446531
0.385257
0.412545
0.387979
0.334629
0.377924
0.331969
0.443795
0.445667
0.377928
0.39396
0.443495
0.259456
0.439332
0.200374
0.229713
0.434516
0.138845
0.336255
0.293505
0.444198
0.422746
0.344699
0.431967
0.380454
0.441875
0.400965
0.443426
0.223317
0.265735
0.425174
0.3546
0.42873
0.445173
0.377281
0.409673
0.390178
0.401543
0.440336
0.367105
0.446511
0.391546
0.355738
0.442157
0.299055
0.442318
0.260762
0.446125
0.297685
0.308025
0.277602
0.278213
0.442648
0.405767
0.323699
0.431657
0.395205
0.353251
0.435614
0.253601
0.259789
0.273469
0.445223
0.41627
0.437972
0.417819
0.403418
0.371126
0.44184
0.446264
0.290572
0.312773
0.390567
0.373416
0.447898
0.438787
0.169347
0.229718
0.433835
0.323259
0.399061
0.289375
0.293201
0.444071
0.350941
0.386193
0.44634
0.385746
0.34047
0.44457
0.341833
0.297686
0.442781
0.322148
0.369106
0.443476
0.437697
0.167457
0.217566
0.432569
0.425867
0.351256
0.223752
0.431378
0.0963136
0.437299
0.411843
0.420247
0.360818
0.360325
0.379757
0.389133
0.446951
0.443042
0.433419
0.340088
0.241614
0.39563
0.348601
0.440435
0.317224
0.355472
0.446909
0.348928
0.303594
0.441541
0.425184
0.41995
0.433649
0.34216
0.37623
0.446353
0.396701
0.338967
0.440034
0.392333
0.388149
0.433382
0.422593
0.342171
0.339466
0.365469
0.446504
0.336891
0.441689
0.295266
0.438886
0.421456
0.363337
0.443796
0.324535
0.385223
0.375233
0.30777
0.436589
0.435153
0.413833
0.340933
0.366381
0.36043
0.297276
0.436897
0.293887
0.440047
0.441833
0.233024
0.275856
0.376015
0.327909
0.440926
0.0662553
0.433872
0.174618
0.39924
0.439649
0.413132
0.370804
0.367537
0.445044
0.443325
0.310581
0.276084
0.403449
0.328301
0.438341
0.329614
0.295287
0.44451
0.387685
0.443717
0.368634
0.354873
0.44479
0.386791
0.445479
0.316382
0.435754
0.227734
0.410171
0.3139
0.430921
0.361859
0.346676
0.443234
0.3755
0.394062
0.446035
0.355221
0.407066
0.441016
0.413129
0.395723
0.441013
0.439037
0.327382
0.391315
0.28859
0.26771
0.44178
0.330342
0.297635
0.445109
0.400977
0.426985
0.306914
0.357056
0.364307
0.284029
0.271793
0.434002
0.434892
0.431967
0.0788752
0.191012
0.234613
0.432489
0.110224
0.356248
0.372715
0.442155
0.441117
0.294221
0.245522
0.386798
0.381805
0.306347
0.301585
0.435585
0.435729
0.44012
0.237792
0.245456
0.215147
0.431404
0.0723656
0.409625
0.433306
0.429999
0.209841
0.0991379
0.432795
0.416429
0.344988
0.432276
0.268974
0.232955
0.444572
0.0745808
0.431307
0.138362
0.430535
0.428513
0.380096
0.405906
0.421572
0.437026
0.258697
0.437905
0.167026
0.399441
0.417542
0.438191
0.41431
0.432121
0.430421
0.43842
0.313631
0.396415
0.395206
0.429089
0.434952
0.400413
0.416873
0.438055
0.407713
0.311909
0.424707
0.439971
0.441509
0.210605
0.210325
0.28591
0.28078
0.274887
0.258026
0.441229
0.429993
0.397653
0.29448
0.427501
0.425279
0.358214
0.314422
0.368221
0.44078
0.130978
0.434601
0.164632
0.444953
0.269491
0.276071
0.237549
0.437
0.157002
0.429836
0.0556869
0.133913
0.032278
0.429123
0.155866
0.348578
0.338927
0.444088
0.198311
0.437669
0.211616
0.329471
0.304183
0.444769
0.290032
0.432072
0.173005
0.402833
0.440666
0.393095
0.251092
0.44232
0.255787
0.317022
0.44005
0.375478
0.349211
0.318162
0.44798
0.426827
-0.0240192
0.0921127
0.0836458
0.433713
0.162673
0.408957
0.441975
0.397006
0.23041
0.244397
0.439456
0.44088
0.229747
0.228342
0.295064
0.4398
0.243209
0.436227
0.247768
0.331659
0.414152
0.306656
0.424711
0.286993
0.373357
0.437293
0.434814
0.323183
0.215106
0.407885
0.403342
0.351836
0.341567
0.437198
0.438751
0.41373
0.35324
0.435055
0.393066
0.300853
0.435757
0.338387
0.30789
0.44497
0.253058
0.272674
0.446132
0.444863
0.309361
0.322245
0.0382927
0.43047
0.170605
0.427674
0.423596
0.43553
0.380212
0.437733
0.384898
0.406076
0.406684
0.431637
0.318679
0.433514
0.329948
0.0887824
0.432976
0.138932
0.238166
0.253248
0.440581
0.425899
0.4195
0.339246
0.352632
0.304955
0.443181
0.435865
0.2545
0.339396
0.126678
0.196324
0.435185
0.145754
0.20367
0.436644
0.381835
0.309766
0.439119
0.441434
0.418128
0.370686
0.287961
0.439423
0.225223
0.342891
0.327078
0.447053
0.442831
0.275944
0.330963
0.411318
0.431138
0.33057
0.354556
0.393723
0.443618
0.430713
0.426981
0.364948
0.440264
0.220525
0.275565
0.350704
0.295547
0.440837
0.43104
0.431205
0.384118
0.31132
0.433558
0.198362
0.411703
0.369552
0.438716
0.392162
0.404706
0.444691
0.355781
0.329014
0.445314
0.257781
0.432624
0.132294
0.267838
0.432559
0.140136
0.441729
0.268462
0.33199
0.345542
0.396521
0.441318
0.431089
0.108134
0.241985
0.444187
0.289739
0.3196
0.429968
0.0407396
0.115009
0.143312
0.0069954
0.428271
0.436928
0.226357
0.324462
0.43988
0.192465
0.246812
0.302297
0.310328
0.43662
0.222689
0.438268
0.240475
0.313025
0.296816
0.444571
0.44515
0.362008
0.301762
0.425871
0.436
0.394353
0.316987
0.31456
0.44684
0.447313
0.320137
0.32421
0.33268
0.433758
0.22218
0.402775
0.308829
0.433266
0.410968
0.33716
0.431119
0.342984
0.340547
0.446635
0.336572
0.337404
0.447171
0.433633
0.427879
0.392973
0.401937
0.332565
0.43981
0.443306
0.259983
0.251313
0.192468
0.437137
0.154909
0.179951
0.434997
0.152313
0.422183
0.43328
0.361615
0.11192
0.433227
0.175598
0.342716
0.440661
0.277934
0.434165
0.114225
0.159983
0.415799
0.438454
0.412597
0.385727
0.360198
0.44333
0.401543
0.346589
0.440894
0.438977
0.210622
0.22438
0.344096
0.326456
0.447573
0.433282
0.30198
0.192946
0.374456
0.352295
0.446114
0.426782
0.436687
0.3994
0.209081
0.235879
0.441149
0.44405
0.277146
0.320062
0.250934
0.239005
0.433353
0.433535
0.148163
0.132515
0.369107
0.383058
0.447051
0.357391
0.345552
0.443053
0.39714
0.403578
0.444838
0.1768
0.206994
0.180843
0.438645
0.205448
0.438683
0.357382
0.328152
0.446783
0.235413
0.221571
0.197884
0.182977
0.439964
0.437633
0.343779
0.367195
0.449145
0.381538
0.374673
0.444008
0.279691
0.434376
0.165194
0.375808
0.375078
0.446851
0.395144
0.395253
0.442932
0.258866
0.433204
0.145967
0.377644
0.339562
0.441517
0.381756
0.308888
0.439715
0.414225
0.321352
0.428037
0.315932
0.443743
0.281494
0.428364
-0.00362172
0.108458
0.373299
0.366141
0.444749
0.287895
0.434654
0.191262
0.417873
0.310113
0.422529
0.178258
0.428813
0.0415588
0.440848
0.439147
0.414859
0.378735
0.415208
0.374051
0.398688
0.407362
0.44278
0.434409
0.43721
0.423187
0.380881
0.424568
0.380405
0.379303
0.381687
0.447759
0.381778
0.384325
0.447757
0.43708
0.166833
0.184914
0.418542
0.361861
0.432756
0.248775
0.204564
0.440847
0.341443
0.333593
0.328471
0.315573
0.444206
0.443454
0.416044
0.372057
0.435703
0.392991
0.318239
0.434789
0.356729
0.34356
0.447595
0.428427
0.409316
0.431448
0.327243
0.321129
0.446597
0.426881
0.43253
0.394354
0.352458
0.363095
0.44862
0.391422
0.328365
0.435919
0.42703
0.43006
0.403154
0.435418
0.401708
0.432846
0.435231
0.423135
0.437999
0.395022
0.427885
0.385978
0.407967
0.403597
0.359383
0.359386
0.439032
0.438462
0.437286
0.255515
0.334831
0.438083
0.317846
0.389498
0.439421
0.440102
0.243588
0.250916
0.323508
0.320604
0.432242
0.415249
0.331406
0.427307
0.431756
0.418392
0.325988
0.31062
0.44589
0.425757
0.433882
0.373104
0.386815
0.324572
0.437221
0.351871
0.352772
0.269283
0.438708
0.277945
0.438937
0.347941
0.321132
0.44389
0.19269
0.0648862
0.429753
0.414412
0.31802
0.425515
0.417959
0.419777
0.420817
0.313873
0.424499
0.321229
0.314653
0.333037
0.44638
0.397545
0.323938
0.435007
0.429682
0.41689
0.329944
0.419322
0.419596
0.424092
0.431372
0.338132
0.337198
0.416925
0.426661
0.32628
0.348571
0.33
0.445915
0.430336
0.4311
0.396823
0.269536
0.435205
0.177443
0.42735
0.418428
0.322358
0.389005
0.37973
0.329531
0.320922
0.4371
0.441235
0.435794
0.191943
0.282096
0.280778
0.435605
0.173462
0.269768
0.433921
0.164853
0.343773
0.439499
0.270681
0.401679
0.334359
0.436002
0.229861
0.251519
0.379489
0.233131
0.324938
0.132223
0.283985
0.267027
0.179243
0.321255
0.319958
0.160334
0.227287
0.315363
0.221472
0.222465
0.244937
0.216315
0.245528
0.293658
0.243595
0.216728
0.336334
0.43001
0.386588
0.254972
0.331845
0.162013
0.257637
0.222572
0.166894
0.282602
0.237227
0.23242
0.177436
0.242872
0.37155
0.331227
0.251563
0.300987
0.204084
0.426393
0.188306
0.316891
0.368063
0.201319
0.204136
0.187393
0.164573
0.185317
0.395782
0.246932
0.221781
0.194542
0.167706
0.392772
0.293447
0.240954
0.183675
0.309711
0.182566
0.192706
0.388871
0.27572
0.236638
0.296131
0.252497
0.420526
0.332629
0.344579
0.134483
0.155334
0.230002
0.305016
0.149712
0.232423
0.265713
0.173411
0.308664
0.355646
0.219483
0.229977
0.17061
0.207464
0.190031
0.312591
0.19086
0.244171
0.214879
0.396675
0.217561
0.30797
0.383825
0.235121
0.226784
0.0947182
0.181585
0.188413
0.225959
0.13295
0.271739
0.339953
0.372717
0.421491
0.214252
0.235079
0.165927
0.222496
0.182394
0.371414
0.345655
0.291577
0.18904
0.153492
0.306793
0.353104
0.205485
0.24408
0.130566
0.214148
0.227823
0.402467
0.416585
0.309552
0.25356
0.23537
0.159061
0.411046
0.210902
0.302254
0.129121
0.393967
0.172221
0.20047
0.222787
0.355657
0.225583
0.113822
0.194548
0.289694
0.220014
0.316866
0.307655
0.214592
0.362044
0.194964
0.205625
0.363611
0.196317
0.210753
0.16236
0.267522
0.249678
0.3547
0.309313
0.203798
0.304866
0.317904
0.379545
0.266034
0.228974
0.213652
0.332885
0.210839
0.300963
0.168432
0.426284
0.213146
0.364594
0.408991
0.247692
0.414504
0.357802
0.378247
0.192444
0.126888
0.158902
0.38208
0.187464
0.180113
0.207491
0.181566
0.216828
0.197304
0.249122
0.408405
0.30789
0.205182
0.303542
0.192256
0.425558
0.188049
0.359352
0.205853
0.118461
0.396387
0.412306
0.203758
0.189752
0.42453
0.260573
0.251459
0.184523
0.308357
0.368311
0.324954
0.211458
0.183816
0.338905
0.262531
0.172304
0.307755
0.207234
0.171714
0.234284
0.353059
0.133715
0.26274
0.342903
0.186643
0.128279
0.201128
0.222201
0.24475
0.273203
0.280937
0.211655
0.175841
0.218092
0.29643
0.325547
0.201849
0.284834
0.195543
0.187765
0.264691
0.207614
0.120329
0.328973
0.362658
0.252243
0.39703
0.369168
0.428698
0.224493
0.107548
0.21843
0.199595
0.243044
0.136879
0.268
0.388661
0.298019
0.260933
0.210186
0.206883
0.337184
0.237894
0.305566
0.198718
0.222313
0.200811
0.202135
0.206326
0.21183
0.220047
0.16945
0.284364
0.254445
0.199339
0.287829
0.233384
0.215812
0.181461
0.202381
0.186889
0.190551
0.258802
0.143912
0.106231
0.234032
0.156631
0.137624
0.260822
0.190793
0.139284
0.359726
0.288337
0.198167
0.33285
0.171203
0.28601
0.305513
0.209213
0.227604
0.350337
0.217268
0.322671
0.132405
0.204635
0.360017
0.198835
0.221877
0.0925996
0.144163
0.122849
0.153634
0.193528
0.292305
0.180154
0.127078
0.17618
0.206102
0.426846
0.233186
0.309029
0.275827
0.196148
0.247892
0.206394
0.161768
0.27558
0.200676
0.393017
0.322142
0.211882
0.20651
0.247602
0.430962
0.33085
0.373827
0.313253
0.212641
0.246333
0.212008
0.173318
0.145412
0.190694
0.244893
0.307951
0.180509
0.150206
0.224775
0.253287
0.223995
0.240816
0.346706
0.241782
0.214316
0.391719
0.358611
0.203925
0.29183
0.368714
0.158759
0.186946
0.211715
0.18176
0.169198
0.36392
0.174103
0.240665
0.382243
0.128748
0.257071
0.205434
0.245091
0.209065
0.194955
0.102508
0.257646
0.150651
0.173165
0.20221
0.199196
0.317865
0.390282
0.2233
0.283733
0.253979
0.22181
0.116535
0.339664
0.303679
0.177415
0.145864
0.2751
0.160129
0.234558
0.217924
0.194352
0.345452
0.38208
0.210616
0.325761
0.423419
0.348215
0.356286
0.376033
0.249404
0.213235
0.170635
0.427961
0.346835
0.364267
0.184666
0.195463
0.123195
0.332406
0.245181
0.231106
0.367703
0.310245
0.214381
0.256231
0.203933
0.223629
0.203843
0.205207
0.201596
0.191297
0.223718
0.146974
0.247657
0.18393
0.313144
0.279557
0.132558
0.372119
0.385967
0.310725
0.190362
0.259354
0.188854
0.320779
0.239992
0.16316
0.367935
0.159859
0.394137
0.140343
0.212734
0.247391
0.310559
0.344161
0.226297
0.408987
0.231554
0.344399
0.21049
0.317721
0.214728
0.225705
0.197233
0.347209
0.25442
0.426112
0.298305
0.145722
0.234258
0.280896
0.170601
0.191448
0.214335
0.186451
0.397119
0.216044
0.207609
0.330205
0.186944
0.393124
0.419018
0.196762
0.428121
0.402718
0.35177
0.366554
0.257152
0.165686
0.183296
0.209439
0.337989
0.229271
0.161528
0.408563
0.175699
0.207287
0.180481
0.376171
0.424507
0.173005
0.348029
0.284987
0.389067
0.258525
0.314953
0.198967
0.411109
0.424512
0.29163
0.186317
0.341321
0.239482
0.288715
0.247954
0.244214
0.282484
0.24003
0.163843
0.172909
0.247249
0.287822
0.271882
0.357436
0.174506
0.245918
0.301943
0.176113
0.38209
0.223033
0.198862
0.382586
0.353755
0.279058
0.413599
0.216829
0.189885
0.31635
0.277666
0.277044
0.21218
0.20032
0.280844
0.295806
0.201682
0.212112
0.269903
0.139848
0.188687
0.395202
0.419456
0.425642
0.268466
0.427527
0.424571
0.401824
0.111761
0.267201
0.273631
0.411175
0.193995
0.226018
0.160025
0.187096
0.151153
0.410123
0.216493
0.227139
0.318328
0.29388
0.201363
0.199038
0.424411
0.407092
0.373747
0.306281
0.177994
0.328172
0.282473
0.193555
0.256535
0.155596
0.177653
0.269439
0.223887
0.221
0.394773
0.392975
0.117609
0.353686
0.212184
0.217264
0.239109
0.390279
0.219147
0.30837
0.21186
0.374418
0.198723
0.212103
0.423484
0.122384
0.139115
0.214988
0.1937
0.106409
0.077588
0.196957
0.105161
0.229066
0.119182
0.160776
0.22627
0.168269
0.200161
0.225034
0.149057
0.0928401
0.402647
0.362613
0.194318
0.159145
0.365356
0.182341
0.226983
0.4209
0.200598
0.421156
0.234361
0.360796
0.266415
0.193845
0.158631
0.274494
0.270872
0.229248
0.195069
0.198476
0.159842
0.194174
0.234567
0.12881
0.152186
0.40534
0.221423
0.302971
0.324909
0.194
0.348286
0.326972
0.162383
0.0816871
0.214698
0.144381
0.109402
0.30199
0.311563
0.196567
0.282473
0.208499
0.422751
0.400305
0.210803
0.203131
0.410509
0.362971
0.269613
0.278286
0.195762
0.425611
0.28229
0.117348
0.377977
0.339411
0.391902
0.261747
0.180776
0.236207
0.313624
0.279568
0.0452243
0.42764
0.215324
0.21131
0.241828
0.372043
0.421694
0.419598
0.288549
0.266393
0.337065
0.367316
0.382885
0.299713
0.337755
0.201106
0.220339
0.281678
0.172511
0.199423
0.134241
0.213283
0.327823
0.141616
0.259069
0.232895
0.358646
0.419901
0.217034
0.157147
0.128729
0.337771
0.189349
0.189977
0.128398
0.390295
0.259674
0.263639
0.15804
0.264019
0.186859
0.209403
0.323427
0.325446
0.389634
0.424778
0.200128
0.373045
0.118038
0.378058
0.383903
0.390465
0.330344
0.187759
0.188226
0.198461
0.119239
0.279346
0.127185
0.303031
0.161847
0.372915
0.194961
0.126134
0.355959
0.341696
0.230131
0.225233
0.298258
0.388206
0.252152
0.243536
0.122165
0.343265
0.288893
0.405008
0.10799
0.222507
0.379613
0.308321
0.415201
0.307078
0.199982
0.098382
0.121413
0.226093
0.134434
0.404849
0.128229
0.238134
0.232147
0.173784
0.352913
0.107567
0.385456
0.313791
0.268598
0.165042
0.315702
0.22288
0.249804
0.225973
0.233314
0.188925
0.183941
0.329201
0.192855
0.424059
0.185459
0.27396
0.291643
0.336943
0.41001
0.189078
0.20557
0.204743
0.264499
0.178228
0.397136
0.186742
0.248179
0.19367
0.347357
0.164151
0.262408
0.151437
0.421088
0.11699
0.189438
0.242539
0.35877
0.129796
0.130915
0.181812
0.148912
0.390851
0.249797
0.306982
0.362028
0.294295
0.281056
0.421235
0.282372
0.338353
0.285924
0.280664
0.136592
0.280489
0.218055
0.236245
0.289299
0.212137
0.143686
0.244004
0.253172
0.178761
0.335533
0.271554
0.325477
0.219196
0.398516
0.236369
0.264229
0.292291
0.147976
0.186357
0.193558
0.273669
0.26329
0.280984
0.382234
0.334876
0.338454
0.244392
0.375054
0.411079
0.403599
0.290333
0.275582
0.283569
0.170457
0.419187
0.364075
0.348879
0.229181
0.190299
0.140369
0.282456
0.304007
0.216387
0.347064
0.370541
0.272908
0.22226
0.290989
0.230451
0.227135
0.230736
0.231448
0.262839
0.125978
0.264258
0.268627
0.210442
0.110975
0.267006
0.235406
0.305702
0.206471
0.256195
0.385826
0.395766
0.266363
0.233384
0.338159
0.241615
0.187699
0.178659
0.209318
0.145405
0.380894
0.244955
0.249357
0.316016
0.301569
0.313602
0.209835
0.425487
0.312803
0.179862
0.239662
0.235206
0.337929
0.386044
0.314925
0.275259
0.133723
0.172436
0.212902
0.268564
0.243207
0.268026
0.184533
0.391623
0.287407
0.348486
0.370698
0.258888
0.21361
0.278295
0.416341
0.174865
0.126691
0.278015
0.419293
0.199177
0.210125
0.332811
0.30128
0.353801
0.22489
0.132658
0.270464
0.148294
0.201886
0.350538
0.220769
0.17406
0.21706
0.19649
0.28294
0.230259
0.228345
0.376679
0.179613
0.421222
0.354061
0.161826
0.101193
0.254658
0.314745
0.364656
0.22656
0.211891
0.224911
0.197854
0.247323
0.423491
0.38206
0.306218
0.244755
0.143307
0.389
0.428412
0.393008
0.339263
0.38344
0.272781
0.151186
0.117394
0.12736
0.408343
0.236482
0.218994
0.245893
0.427247
0.19797
0.223081
0.151281
0.224975
0.176545
0.415058
0.272948
0.330743
0.378821
0.358316
0.203257
0.290425
0.263319
0.330104
0.170071
0.278601
0.196206
0.399356
0.199144
0.191133
0.212746
0.215626
0.384596
0.195376
0.350905
0.36375
0.381764
0.16276
0.257327
0.210692
0.226764
0.392251
0.258806
0.288059
0.269951
0.141122
0.248496
0.394642
0.290229
0.393726
0.121094
0.185664
0.195089
0.401872
0.23187
0.255807
0.165601
0.209633
0.24945
0.397765
0.261813
0.214806
0.153575
0.411428
0.417453
0.145418
0.391308
0.195859
0.165128
0.190516
0.245373
0.137401
0.305862
0.237951
0.194127
0.222707
0.375183
0.234699
0.347722
0.24198
0.182692
0.228412
0.121009
0.135085
0.226363
0.24904
0.290832
0.17238
0.22549
0.371493
0.291094
0.19404
0.19325
0.384864
0.229411
0.24943
0.432081
0.276615
0.19173
0.241421
0.212437
0.407122
0.230752
0.229933
0.276489
0.141382
0.387231
0.20409
0.375671
0.258803
0.32248
0.16773
0.354944
0.223385
0.1596
0.180132
0.261207
0.378887
0.0975925
0.216841
0.186297
0.40426
0.424245
0.22245
0.196388
0.303708
0.401715
0.241646
0.389435
0.365046
0.347563
0.323662
0.257577
0.326284
0.319193
0.394264
0.258134
0.266214
0.221876
0.225227
0.263105
0.196114
0.410253
0.205672
0.39
0.251151
0.404067
0.185998
0.411317
0.321528
0.371126
0.405395
0.386402
0.431708
0.205264
0.37188
0.266897
0.192377
0.217049
0.173787
0.393773
0.205833
0.273354
0.280585
0.217193
0.295681
0.183025
0.391875
0.24405
0.34279
0.112959
0.204272
0.195798
0.410404
0.226029
0.294129
0.22667
0.198738
0.171651
0.224722
0.194107
0.342152
0.399491
0.14786
0.26866
0.198253
0.188638
0.355521
0.222126
0.225228
0.410052
0.130021
0.285589
0.306387
0.390945
0.420867
0.229691
0.206682
0.14979
0.237246
0.226862
0.197747
0.348858
0.197208
0.159328
0.214109
0.258659
0.221222
0.230749
0.185045
0.253239
0.155406
0.335074
0.323236
0.240869
0.340305
0.194451
0.139507
0.226529
0.122085
0.414178
0.200538
0.194582
0.184498
0.369018
0.393827
0.2533
0.333297
0.232588
0.17724
0.272115
0.19653
0.214421
0.392899
0.287378
0.325187
0.418569
0.343388
0.274994
0.405248
0.147947
0.255271
0.252321
0.282812
0.256871
0.39929
0.195446
0.273922
0.234624
0.226893
0.194427
0.210035
0.321585
0.357164
0.37648
0.266349
0.263506
0.401014
0.35705
0.21722
0.293312
0.162222
0.19938
0.350079
0.145923
0.365831
0.187171
0.372002
0.425306
0.397375
0.182355
0.374039
0.367392
0.178661
0.400231
0.237127
0.401166
0.341858
0.192699
0.162274
0.296582
0.203447
0.250628
0.231747
0.357129
0.242562
0.411149
0.183004
0.225801
0.22525
0.185822
0.194443
0.359487
0.422965
0.180491
0.349764
0.242375
0.276844
0.2407
0.303984
0.388431
0.346089
0.189771
0.381834
0.355182
0.419618
0.182821
0.174567
0.22631
0.331294
0.416272
0.361454
0.232058
0.413701
0.252102
0.153885
0.161827
0.0985502
0.264708
0.164976
0.419241
0.423007
0.266317
0.428052
0.350113
0.251994
0.409934
0.161217
0.397614
0.199135
0.393144
0.222796
0.190115
0.333019
0.259298
0.402043
0.387384
0.391077
0.20485
0.206346
0.141154
0.37444
0.345141
0.220029
0.277806
0.345749
0.118902
0.194279
0.197967
0.193919
0.272763
0.190475
0.25314
0.340148
0.248846
0.257249
0.327478
0.211011
0.241329
0.275361
0.247828
0.208614
0.373681
0.395958
0.22057
0.34122
0.113733
0.197788
0.374318
0.331043
0.185201
0.397848
0.169152
0.324846
0.24397
0.255649
0.379632
0.223049
0.334435
0.344308
0.304221
0.429665
0.308763
0.14928
0.290678
0.269348
0.333576
0.42208
0.31159
0.259681
0.216421
0.257059
0.381326
0.165134
0.369261
0.21029
0.297721
0.33925
0.325575
0.23583
0.382975
0.414695
0.237914
0.214122
0.25486
0.199478
0.155095
0.255894
0.344413
0.174437
0.150245
0.228286
0.158162
0.320539
0.256275
0.337172
0.222261
0.395761
0.245338
0.358846
0.415951
0.184382
0.387467
0.244465
0.254107
0.280746
0.378559
0.226128
0.232861
0.282374
0.19426
0.217076
0.184579
0.171846
0.114344
0.414546
0.421982
0.172405
0.229296
0.331962
0.143978
0.226791
0.201567
0.312623
0.332122
0.134172
0.114648
0.386111
0.229393
0.281889
0.225654
0.146468
0.162367
0.299325
0.362669
0.293321
0.137596
0.39836
0.360078
0.192738
0.272456
0.196458
0.414945
0.204535
0.248156
0.164835
0.297901
0.395513
0.279607
0.297018
0.211762
0.259824
0.291105
0.412901
0.42969
0.224078
0.416521
0.215596
0.260608
0.258995
0.217765
0.212557
0.3787
0.258773
0.270034
0.214884
0.160939
0.261964
0.191301
0.31256
0.394633
0.192734
0.208315
0.257071
0.214918
0.229472
0.121172
0.230757
0.377416
0.170176
0.17767
0.337645
0.254843
0.238245
0.30112
0.36036
0.220899
0.219338
0.35655
0.22677
0.217175
0.267231
0.377747
0.290833
0.263907
0.229464
0.18041
0.22068
0.41268
0.359141
0.423698
0.237068
0.306531
0.171415
0.242287
0.363513
0.148516
0.145321
0.324713
0.361775
0.141273
0.227073
0.228866
0.214881
0.227318
0.428812
0.251614
0.227248
0.295508
0.215807
0.325264
0.303813
0.163623
0.235408
0.338088
0.255678
0.41638
0.152747
0.192368
0.313844
0.295476
0.221778
0.272434
0.195396
0.419846
0.387482
0.314641
0.379728
0.18809
0.367743
0.293667
0.319372
0.403913
0.145263
0.21693
0.418832
0.29612
0.136154
0.180106
0.366514
0.418282
0.240472
0.329859
0.228539
0.157777
0.206225
0.138268
0.36316
0.20407
0.243106
0.406887
0.179679
0.22183
0.220309
0.270672
0.231268
0.182732
0.213752
0.16557
0.262376
0.345027
0.403882
0.33071
0.247608
0.210838
0.130129
0.195509
0.288449
0.273255
0.329046
0.336964
0.210469
0.230407
0.352158
0.366002
0.422484
0.379914
0.40684
0.253792
0.16144
0.201924
0.182208
0.413085
0.260816
0.214744
0.403338
0.163348
0.344505
0.318609
0.231497
0.228953
0.217726
0.183912
0.364674
0.206813
0.312983
0.239801
0.401436
0.266848
0.428536
0.188364
0.241251
0.174223
0.109824
0.222328
0.331253
0.212876
0.132373
0.263409
0.398538
0.334227
0.186616
0.165828
0.209602
0.159761
0.229766
0.156617
0.21552
0.180528
0.326243
0.170754
0.227074
0.383867
0.269808
0.321592
0.356113
0.213061
0.242908
0.204519
0.353481
0.202314
0.237929
0.252122
0.171578
0.147777
0.224257
0.233164
0.327984
0.42384
0.370612
0.262214
0.31311
0.142054
0.415432
0.288777
0.34538
0.234568
0.326366
0.181796
0.219638
0.350548
0.399851
0.333983
0.267725
0.1966
0.428167
0.244489
0.359972
0.409641
0.305321
0.229923
0.141358
0.354718
0.298447
0.171242
0.297081
0.288823
0.398906
0.204445
0.407602
0.423706
0.214204
0.189402
0.408669
0.169472
0.17669
0.225276
0.182877
0.226799
0.179322
0.156463
0.236908
0.231066
0.206874
0.195906
0.269303
0.167208
0.191827
0.293921
0.241749
0.142697
0.396764
0.419274
0.415343
0.223412
0.137514
0.427807
0.162638
0.236408
0.228838
0.192395
0.23535
0.322653
0.198426
0.190351
0.149828
0.148811
0.168143
0.19457
0.130374
0.234189
0.256355
0.227744
0.402157
0.255801
0.315785
0.251083
0.358203
0.190305
0.19877
0.426917
0.240944
0.295753
0.163667
0.302158
0.42532
0.204758
0.300594
0.295333
0.176877
0.224536
0.177274
0.190134
0.329635
0.179233
0.233767
0.190194
0.215862
0.208117
0.178077
0.241001
0.200256
0.188534
0.416297
0.234964
0.240978
0.264522
0.402915
0.202148
0.151096
0.352043
0.169934
0.21496
0.228381
0.272499
0.180667
0.256399
0.276424
0.420668
0.369126
0.157613
0.18914
0.143657
0.22557
0.135343
0.192619
0.237118
0.192616
0.240021
0.28519
0.430096
0.209258
0.31696
0.263369
0.413354
0.194274
0.425644
0.282624
0.162074
0.290358
0.319926
0.189363
0.373044
0.228605
0.376116
0.191275
0.14652
0.22474
0.429845
0.413009
0.328561
0.293783
0.321139
0.139518
0.175028
0.329807
0.42696
0.154758
0.26306
0.230703
0.188787
0.218182
0.214225
0.1788
0.205855
0.181669
0.230145
0.197412
0.232264
0.427975
0.3626
0.131896
0.338551
0.202099
0.173088
0.350492
0.18427
0.213133
0.319093
0.171311
0.200059
0.236896
0.372668
0.175079
0.196052
0.203671
0.283039
0.182511
0.40023
0.137934
0.19397
0.204536
0.186016
0.301865
0.283848
0.405018
0.225867
0.337612
0.261532
0.28004
0.220939
0.307057
0.17186
0.175953
0.11794
0.29959
0.224807
0.202771
0.385481
0.252163
0.299224
0.303318
0.198714
0.186478
0.200391
0.293085
0.226225
0.427949
0.160704
0.137159
0.238103
0.188676
0.224553
0.230329
0.326914
0.218252
0.230121
0.171522
0.230878
0.23036
0.208575
0.428099
0.410176
0.180366
0.206606
0.355642
0.285924
0.212206
0.168734
0.220053
0.164744
0.258737
0.390211
0.212715
0.140731
0.28378
0.240214
0.139388
0.175951
0.248304
0.310956
0.425766
0.168432
0.151556
0.269983
0.36062
0.204243
0.2721
0.204049
0.227939
0.197661
0.284
0.221671
0.226743
0.34397
0.204456
0.129213
0.251623
0.221729
0.348704
0.428444
0.227721
0.19469
0.200238
0.196495
0.174442
0.192869
0.165736
0.405964
0.359145
0.312122
0.239847
0.145974
0.342888
0.417015
0.187085
0.248091
0.182911
0.112585
0.239338
0.189119
0.113443
0.229797
0.320516
0.15331
0.140924
0.182088
0.360433
0.147688
0.354925
0.271058
0.21602
0.197206
0.203624
0.348713
0.126855
0.195918
0.214308
0.173434
0.266063
0.335555
0.265516
0.228444
0.333275
0.173459
0.178722
0.387728
0.224573
0.385031
0.273697
0.205618
0.295835
0.372555
0.238742
0.145325
0.397355
0.22248
0.20913
0.369638
0.213964
0.406679
0.209071
0.207374
0.175876
0.206647
0.188767
0.234705
0.169395
0.128568
0.160208
0.184394
0.114951
0.3902
0.183504
0.212157
0.269904
0.245
0.418849
0.421826
0.178271
0.280131
0.350516
0.171872
0.391355
0.120004
0.197855
0.248925
0.182835
0.356654
0.184533
0.187656
0.225756
0.178315
0.2285
0.132666
0.373719
0.103093
0.403762
0.320562
0.174367
0.146857
0.164208
0.428892
0.334288
0.292191
0.227568
0.266851
0.208166
0.371031
0.336439
0.205877
0.290177
0.41136
0.215716
0.245897
0.311186
0.134098
0.179773
0.362214
0.196093
0.240581
0.408212
0.178429
0.121627
0.182134
0.246321
0.217215
0.416836
0.205681
0.146281
0.191682
0.24031
0.209704
0.384213
0.276669
0.165051
0.184495
0.182294
0.211405
0.245136
0.284773
0.288741
0.200597
0.380361
0.192328
0.365491
0.201186
0.178284
0.23591
0.37551
0.416537
0.363945
0.234374
0.223885
0.341225
0.413086
0.158685
0.394394
0.164166
0.313318
0.286588
0.379438
0.234641
0.372977
0.402127
0.230172
0.233278
0.213975
0.270857
0.161936
0.218558
0.204466
0.323685
0.360706
0.164546
0.399805
0.237448
0.334395
0.229173
0.191352
0.351955
0.339178
0.184908
0.240821
0.185802
0.422851
0.319453
0.428662
0.170144
0.162127
0.20324
0.361412
0.292097
0.38029
0.283943
0.41403
0.188971
0.236576
0.246116
0.196474
0.273981
0.189961
0.34716
0.240305
0.256757
0.394944
0.163978
0.167108
0.123124
0.308884
0.378477
0.226951
0.311384
0.195264
0.145666
0.244071
0.216683
0.212989
0.382004
0.285783
0.20191
0.217967
0.291554
0.401474
0.309929
0.199653
0.374395
0.273223
0.408959
0.241208
0.313664
0.201418
0.150912
0.427791
0.196997
0.301091
0.267448
0.391288
0.305642
0.226771
0.233109
0.427993
0.211184
0.168618
0.330013
0.416226
0.322874
0.291596
0.161187
0.121329
0.251001
0.202099
0.196748
0.247433
0.200847
0.399201
0.417607
0.395945
0.18731
0.194616
0.216808
0.214035
0.306382
0.169239
0.317106
0.402806
0.151695
0.187977
0.181359
0.366677
0.299904
0.194108
0.205031
0.317457
0.225268
0.185588
0.161486
0.432571
0.127818
0.344961
0.315651
0.228371
0.4056
0.257403
0.422773
0.169759
0.187738
0.251379
0.400387
0.215765
0.390383
0.259105
0.127946
0.224787
0.189168
0.212768
0.124534
0.34979
0.188703
0.197111
0.148206
0.226958
0.384184
0.0914894
0.189438
0.376402
0.256859
0.369753
0.121392
0.229264
0.222686
0.207692
0.171827
0.159832
0.224901
0.100852
0.197356
0.200542
0.335774
0.283558
0.378855
0.213118
0.195344
0.161499
0.284666
0.0981963
0.195126
0.429068
0.263982
0.22539
0.431825
0.170955
0.252956
0.28168
0.140069
0.189036
0.22667
0.291079
0.4047
0.414769
0.417846
0.295427
0.256519
0.206754
0.165991
0.353903
0.323845
0.202145
0.249244
0.224817
0.222853
0.424605
0.218381
0.420469
0.181731
0.319258
0.165765
0.220472
0.14202
0.211806
0.385967
0.237522
0.162336
0.185246
0.429905
0.189101
0.193084
0.195756
0.221738
0.313487
0.27898
0.295855
0.255767