/*--------------------------------*- C++ -*----------------------------------*\
  =========                 |
  \\      /  F ield         | OpenFOAM: The Open Source CFD Toolbox
   \\    /   O peration     | Website:  https://openfoam.org
    \\  /    A nd           | Version:  6
     \\/     M anipulation  |
\*---------------------------------------------------------------------------*/
FoamFile
{
    version     2.0;
    format      ascii;
    class       volScalarField;
    location    "0";
    object      p;
}
// * * * * * * * * * * * * * * * * * * * * * * * * * * * * * * * * * * * * * //

dimensions      [0 2 -2 0 0 0 0];

internalField   nonuniform List<scalar> 
40000
(
0.0170306
0.0170315
0.0170325
0.017033
0.0170325
0.0170311
0.0170287
0.0170251
0.0170206
0.0170151
0.0170087
0.0170015
0.0169935
0.0169849
0.0169756
0.0169657
0.0169552
0.0169443
0.0169329
0.016921
0.0169087
0.0168961
0.016883
0.0168696
0.0168559
0.0168418
0.0168273
0.0168126
0.0167974
0.016782
0.0167662
0.0167502
0.0167337
0.016717
0.0167
0.0166827
0.016665
0.0166471
0.0166289
0.0166105
0.0165918
0.0165728
0.0165536
0.0165343
0.0165147
0.0164949
0.0164751
0.0164551
0.016435
0.0164148
0.0163946
0.0163744
0.0163542
0.0163341
0.016314
0.0162941
0.0162744
0.0162549
0.0162356
0.0162166
0.016198
0.0161798
0.016162
0.0161447
0.0161279
0.0161118
0.0160962
0.0160814
0.0160673
0.016054
0.0160416
0.0160301
0.0160196
0.01601
0.0160016
0.0159942
0.015988
0.0159831
0.0159793
0.0159769
0.0159757
0.0159759
0.0159775
0.0159805
0.0159849
0.0159907
0.015998
0.0160066
0.0160167
0.0160281
0.0160409
0.016055
0.0160704
0.016087
0.0161047
0.0161235
0.0161434
0.0161641
0.0161857
0.016208
0.0162308
0.0162541
0.0162778
0.0163016
0.0163254
0.0163492
0.0163726
0.0163956
0.016418
0.0164396
0.0164602
0.0164797
0.0164979
0.0165146
0.0165296
0.0165427
0.0165539
0.0165629
0.0165695
0.0165737
0.0165754
0.0165742
0.0165703
0.0165634
0.0165535
0.0165405
0.0165244
0.016505
0.0164825
0.0164567
0.0164277
0.0163955
0.0163602
0.0163217
0.0162803
0.0162359
0.0161887
0.0161388
0.0160863
0.0160314
0.0159743
0.015915
0.0158539
0.015791
0.0157266
0.0156608
0.0155939
0.0155261
0.0154575
0.0153885
0.0153191
0.0152496
0.0151802
0.0151111
0.0150425
0.0149745
0.0149074
0.0148412
0.0147761
0.0147124
0.0146501
0.0145893
0.0145302
0.0144728
0.0144173
0.0143637
0.0143121
0.0142626
0.0142152
0.01417
0.0141269
0.0140861
0.0140476
0.0140113
0.0139773
0.0139456
0.0139161
0.013889
0.0138641
0.0138415
0.0138212
0.0138031
0.0137873
0.0137738
0.0137625
0.0137534
0.0137464
0.0137417
0.013739
0.0137384
0.0137397
0.0137428
0.0137475
0.0137536
0.0137606
0.0137683
0.0137758
0.0137825
0.0137872
0.0137893
0.0170297
0.0170306
0.0170315
0.0170317
0.0170312
0.0170297
0.0170272
0.0170238
0.0170194
0.0170141
0.0170079
0.0170009
0.0169932
0.0169848
0.0169758
0.0169662
0.016956
0.0169454
0.0169342
0.0169226
0.0169106
0.0168982
0.0168855
0.0168723
0.0168588
0.0168449
0.0168307
0.0168162
0.0168013
0.0167861
0.0167706
0.0167548
0.0167386
0.0167221
0.0167054
0.0166883
0.0166709
0.0166533
0.0166354
0.0166172
0.0165988
0.0165801
0.0165613
0.0165422
0.0165229
0.0165035
0.0164839
0.0164643
0.0164445
0.0164246
0.0164048
0.0163849
0.016365
0.0163452
0.0163255
0.0163059
0.0162864
0.0162672
0.0162482
0.0162295
0.0162112
0.0161932
0.0161757
0.0161586
0.016142
0.016126
0.0161106
0.0160959
0.016082
0.0160688
0.0160564
0.0160449
0.0160344
0.0160248
0.0160163
0.0160088
0.0160025
0.0159973
0.0159933
0.0159906
0.0159892
0.015989
0.0159902
0.0159928
0.0159967
0.0160019
0.0160086
0.0160166
0.016026
0.0160367
0.0160487
0.016062
0.0160765
0.0160923
0.0161091
0.0161269
0.0161458
0.0161655
0.016186
0.0162072
0.0162289
0.0162511
0.0162736
0.0162962
0.0163189
0.0163415
0.0163637
0.0163855
0.0164068
0.0164272
0.0164467
0.016465
0.0164821
0.0164977
0.0165117
0.0165238
0.016534
0.0165421
0.0165479
0.0165513
0.0165522
0.0165504
0.0165458
0.0165384
0.0165281
0.0165147
0.0164982
0.0164786
0.0164559
0.0164301
0.0164011
0.0163689
0.0163338
0.0162956
0.0162544
0.0162105
0.0161637
0.0161144
0.0160625
0.0160083
0.0159519
0.0158935
0.0158332
0.0157712
0.0157077
0.015643
0.0155771
0.0155104
0.015443
0.015375
0.0153068
0.0152385
0.0151703
0.0151023
0.0150349
0.0149681
0.014902
0.014837
0.0147731
0.0147104
0.0146492
0.0145894
0.0145313
0.0144749
0.0144203
0.0143676
0.0143169
0.0142682
0.0142216
0.0141771
0.0141347
0.0140945
0.0140566
0.0140208
0.0139873
0.013956
0.0139269
0.0139001
0.0138755
0.0138531
0.013833
0.013815
0.0137993
0.0137857
0.0137743
0.013765
0.0137578
0.0137527
0.0137496
0.0137484
0.013749
0.0137514
0.0137552
0.0137603
0.0137663
0.0137728
0.0137793
0.0137851
0.0137893
0.0137914
0.0170286
0.0170297
0.0170306
0.0170307
0.01703
0.0170284
0.017026
0.0170226
0.0170184
0.0170132
0.0170073
0.0170006
0.0169932
0.0169851
0.0169764
0.0169672
0.0169574
0.016947
0.0169362
0.016925
0.0169133
0.0169012
0.0168888
0.0168759
0.0168628
0.0168492
0.0168353
0.0168211
0.0168065
0.0167916
0.0167764
0.0167609
0.016745
0.0167289
0.0167125
0.0166957
0.0166787
0.0166614
0.0166439
0.016626
0.016608
0.0165897
0.0165712
0.0165525
0.0165336
0.0165146
0.0164954
0.0164762
0.0164568
0.0164373
0.0164179
0.0163984
0.0163789
0.0163595
0.0163401
0.0163209
0.0163018
0.016283
0.0162643
0.016246
0.0162279
0.0162102
0.0161929
0.0161761
0.0161598
0.016144
0.0161288
0.0161142
0.0161004
0.0160872
0.0160749
0.0160634
0.0160528
0.0160432
0.0160345
0.0160269
0.0160203
0.0160149
0.0160106
0.0160075
0.0160056
0.016005
0.0160057
0.0160076
0.0160109
0.0160155
0.0160214
0.0160286
0.0160371
0.0160469
0.016058
0.0160703
0.0160837
0.0160983
0.016114
0.0161307
0.0161483
0.0161667
0.0161859
0.0162057
0.0162261
0.0162469
0.016268
0.0162892
0.0163105
0.0163316
0.0163524
0.0163728
0.0163926
0.0164117
0.0164298
0.0164468
0.0164625
0.0164768
0.0164896
0.0165005
0.0165096
0.0165166
0.0165214
0.0165238
0.0165238
0.0165212
0.0165159
0.0165079
0.0164969
0.0164831
0.0164662
0.0164464
0.0164234
0.0163975
0.0163685
0.0163364
0.0163014
0.0162635
0.0162227
0.0161792
0.016133
0.0160843
0.0160332
0.0159798
0.0159242
0.0158667
0.0158074
0.0157465
0.0156842
0.0156206
0.015556
0.0154905
0.0154244
0.0153578
0.015291
0.015224
0.0151572
0.0150907
0.0150246
0.0149592
0.0148946
0.0148309
0.0147683
0.014707
0.0146471
0.0145886
0.0145317
0.0144765
0.0144231
0.0143715
0.0143218
0.0142741
0.0142285
0.0141849
0.0141434
0.014104
0.0140668
0.0140317
0.0139988
0.013968
0.0139395
0.0139131
0.0138888
0.0138668
0.0138468
0.013829
0.0138133
0.0137997
0.0137882
0.0137787
0.0137712
0.0137657
0.013762
0.0137602
0.0137601
0.0137615
0.0137643
0.0137683
0.0137732
0.0137786
0.0137842
0.0137893
0.0137936
0.0137962
0.0170282
0.0170294
0.0170304
0.0170306
0.0170298
0.0170282
0.0170258
0.0170225
0.0170183
0.0170133
0.0170076
0.0170011
0.016994
0.0169861
0.0169777
0.0169687
0.0169592
0.0169492
0.0169387
0.0169277
0.0169163
0.0169046
0.0168924
0.0168798
0.0168669
0.0168537
0.0168401
0.0168261
0.0168118
0.0167972
0.0167823
0.0167671
0.0167516
0.0167357
0.0167196
0.0167032
0.0166865
0.0166695
0.0166522
0.0166348
0.016617
0.0165991
0.0165809
0.0165626
0.0165441
0.0165254
0.0165066
0.0164876
0.0164686
0.0164495
0.0164304
0.0164112
0.0163921
0.016373
0.016354
0.0163351
0.0163163
0.0162978
0.0162794
0.0162613
0.0162435
0.016226
0.016209
0.0161923
0.0161761
0.0161605
0.0161454
0.0161309
0.0161171
0.016104
0.0160916
0.0160801
0.0160694
0.0160596
0.0160508
0.0160429
0.0160361
0.0160304
0.0160257
0.0160222
0.0160199
0.0160188
0.016019
0.0160204
0.016023
0.0160269
0.0160321
0.0160385
0.0160463
0.0160552
0.0160654
0.0160767
0.0160892
0.0161028
0.0161175
0.0161331
0.0161496
0.0161669
0.0161849
0.0162036
0.0162228
0.0162424
0.0162622
0.0162823
0.0163023
0.0163222
0.0163418
0.016361
0.0163796
0.0163975
0.0164145
0.0164304
0.016445
0.0164583
0.01647
0.01648
0.0164881
0.0164942
0.0164982
0.0164998
0.0164991
0.0164958
0.0164899
0.0164813
0.0164699
0.0164557
0.0164385
0.0164184
0.0163953
0.0163692
0.0163402
0.0163082
0.0162733
0.0162356
0.016195
0.0161519
0.0161061
0.0160578
0.0160072
0.0159544
0.0158996
0.0158428
0.0157843
0.0157242
0.0156628
0.0156002
0.0155365
0.0154721
0.015407
0.0153415
0.0152757
0.0152099
0.0151442
0.0150789
0.015014
0.0149497
0.0148863
0.0148238
0.0147624
0.0147022
0.0146434
0.014586
0.0145302
0.0144761
0.0144237
0.0143731
0.0143244
0.0142776
0.0142328
0.01419
0.0141493
0.0141107
0.0140741
0.0140397
0.0140074
0.0139771
0.0139491
0.0139231
0.0138992
0.0138774
0.0138577
0.01384
0.0138244
0.0138108
0.0137992
0.0137896
0.0137819
0.013776
0.0137719
0.0137696
0.0137689
0.0137697
0.0137718
0.0137751
0.0137793
0.0137841
0.0137893
0.0137944
0.0137993
0.0138028
0.0170286
0.01703
0.0170311
0.0170313
0.0170305
0.0170289
0.0170265
0.0170232
0.0170191
0.0170142
0.0170086
0.0170023
0.0169953
0.0169877
0.0169796
0.0169708
0.0169615
0.0169518
0.0169415
0.0169308
0.0169197
0.0169082
0.0168963
0.0168841
0.0168714
0.0168584
0.0168451
0.0168315
0.0168175
0.0168031
0.0167885
0.0167736
0.0167583
0.0167428
0.0167269
0.0167108
0.0166944
0.0166777
0.0166608
0.0166436
0.0166262
0.0166086
0.0165908
0.0165728
0.0165546
0.0165362
0.0165177
0.0164991
0.0164804
0.0164616
0.0164428
0.016424
0.0164051
0.0163863
0.0163676
0.016349
0.0163305
0.0163121
0.016294
0.0162761
0.0162585
0.0162412
0.0162243
0.0162078
0.0161917
0.0161761
0.0161611
0.0161466
0.0161328
0.0161196
0.0161072
0.0160956
0.0160847
0.0160748
0.0160657
0.0160576
0.0160505
0.0160444
0.0160394
0.0160354
0.0160327
0.0160311
0.0160306
0.0160314
0.0160334
0.0160367
0.0160411
0.0160468
0.0160538
0.0160619
0.0160712
0.0160817
0.0160933
0.0161059
0.0161196
0.0161342
0.0161497
0.0161659
0.0161829
0.0162006
0.0162187
0.0162372
0.016256
0.0162749
0.0162939
0.0163127
0.0163313
0.0163495
0.016367
0.0163839
0.0163999
0.0164148
0.0164285
0.0164409
0.0164517
0.0164609
0.0164682
0.0164735
0.0164768
0.0164778
0.0164765
0.0164726
0.0164662
0.0164572
0.0164454
0.0164308
0.0164133
0.0163929
0.0163697
0.0163435
0.0163144
0.0162824
0.0162476
0.01621
0.0161697
0.0161268
0.0160813
0.0160334
0.0159832
0.0159309
0.0158765
0.0158204
0.0157625
0.0157031
0.0156424
0.0155805
0.0155177
0.0154541
0.0153899
0.0153253
0.0152604
0.0151956
0.0151309
0.0150665
0.0150026
0.0149394
0.0148769
0.0148155
0.0147551
0.0146959
0.0146381
0.0145817
0.0145269
0.0144737
0.0144223
0.0143726
0.0143248
0.0142789
0.0142349
0.0141929
0.014153
0.014115
0.0140791
0.0140453
0.0140136
0.0139839
0.0139563
0.0139307
0.0139072
0.0138857
0.0138663
0.0138488
0.0138333
0.0138197
0.0138081
0.0137984
0.0137904
0.0137843
0.0137799
0.0137772
0.0137761
0.0137764
0.013778
0.0137809
0.0137847
0.0137893
0.0137944
0.0138
0.0138058
0.0138104
0.0170301
0.0170315
0.0170327
0.0170328
0.0170321
0.0170304
0.017028
0.0170247
0.0170206
0.0170159
0.0170104
0.0170042
0.0169974
0.0169899
0.0169819
0.0169734
0.0169644
0.0169548
0.0169448
0.0169344
0.0169236
0.0169123
0.0169007
0.0168887
0.0168763
0.0168636
0.0168505
0.0168371
0.0168234
0.0168094
0.016795
0.0167803
0.0167654
0.0167501
0.0167345
0.0167187
0.0167026
0.0166862
0.0166696
0.0166527
0.0166356
0.0166183
0.0166008
0.016583
0.0165652
0.0165471
0.0165289
0.0165106
0.0164922
0.0164737
0.0164552
0.0164366
0.016418
0.0163995
0.016381
0.0163626
0.0163443
0.0163262
0.0163083
0.0162905
0.0162731
0.0162559
0.0162391
0.0162226
0.0162066
0.0161911
0.016176
0.0161615
0.0161476
0.0161344
0.0161218
0.01611
0.0160989
0.0160887
0.0160794
0.0160709
0.0160635
0.016057
0.0160515
0.0160472
0.0160439
0.0160417
0.0160407
0.0160409
0.0160422
0.0160448
0.0160485
0.0160535
0.0160596
0.016067
0.0160754
0.016085
0.0160957
0.0161075
0.0161202
0.0161339
0.0161484
0.0161638
0.0161798
0.0161964
0.0162136
0.0162311
0.0162489
0.0162669
0.0162849
0.0163028
0.0163204
0.0163377
0.0163543
0.0163703
0.0163854
0.0163995
0.0164125
0.016424
0.0164341
0.0164426
0.0164492
0.016454
0.0164566
0.0164571
0.0164552
0.0164509
0.0164441
0.0164346
0.0164225
0.0164076
0.0163899
0.0163693
0.0163459
0.0163196
0.0162905
0.0162585
0.0162237
0.0161862
0.016146
0.0161032
0.016058
0.0160104
0.0159605
0.0159086
0.0158546
0.0157989
0.0157415
0.0156827
0.0156226
0.0155613
0.0154991
0.0154362
0.0153727
0.0153089
0.0152448
0.0151808
0.0151169
0.0150534
0.0149904
0.014928
0.0148665
0.0148059
0.0147464
0.0146882
0.0146313
0.0145758
0.0145219
0.0144696
0.014419
0.0143702
0.0143232
0.0142781
0.0142349
0.0141937
0.0141545
0.0141172
0.014082
0.0140488
0.0140176
0.0139885
0.0139614
0.0139362
0.0139131
0.0138919
0.0138727
0.0138554
0.0138401
0.0138266
0.013815
0.0138052
0.0137971
0.0137908
0.0137862
0.0137832
0.0137817
0.0137817
0.013783
0.0137856
0.0137893
0.0137939
0.0137992
0.0138053
0.0138123
0.013818
0.0170327
0.0170341
0.0170352
0.0170353
0.0170345
0.0170328
0.0170303
0.017027
0.0170229
0.0170182
0.0170128
0.0170067
0.017
0.0169927
0.0169849
0.0169765
0.0169677
0.0169584
0.0169486
0.0169384
0.0169278
0.0169168
0.0169054
0.0168936
0.0168815
0.016869
0.0168562
0.0168431
0.0168296
0.0168159
0.0168018
0.0167874
0.0167727
0.0167577
0.0167424
0.0167268
0.016711
0.0166949
0.0166786
0.016662
0.0166451
0.0166281
0.0166109
0.0165934
0.0165758
0.016558
0.0165401
0.0165221
0.0165039
0.0164857
0.0164674
0.0164491
0.0164307
0.0164124
0.0163941
0.0163759
0.0163578
0.0163398
0.016322
0.0163044
0.016287
0.01627
0.0162532
0.0162367
0.0162207
0.0162051
0.01619
0.0161754
0.0161614
0.016148
0.0161352
0.0161232
0.0161118
0.0161013
0.0160916
0.0160828
0.016075
0.016068
0.0160621
0.0160572
0.0160534
0.0160507
0.016049
0.0160486
0.0160492
0.0160511
0.0160541
0.0160583
0.0160637
0.0160702
0.0160778
0.0160866
0.0160964
0.0161073
0.0161192
0.016132
0.0161456
0.01616
0.0161752
0.0161909
0.0162072
0.0162238
0.0162408
0.0162579
0.0162751
0.0162921
0.0163089
0.0163254
0.0163413
0.0163565
0.0163709
0.0163843
0.0163965
0.0164075
0.0164169
0.0164248
0.0164309
0.0164351
0.0164373
0.0164373
0.016435
0.0164303
0.0164231
0.0164134
0.016401
0.0163858
0.0163679
0.0163472
0.0163236
0.0162972
0.016268
0.016236
0.0162013
0.0161638
0.0161237
0.0160811
0.016036
0.0159886
0.015939
0.0158873
0.0158337
0.0157783
0.0157213
0.0156629
0.0156032
0.0155424
0.0154807
0.0154184
0.0153555
0.0152922
0.0152288
0.0151654
0.0151023
0.0150395
0.0149772
0.0149156
0.0148548
0.014795
0.0147364
0.0146789
0.0146228
0.0145682
0.0145151
0.0144636
0.0144138
0.0143658
0.0143196
0.0142752
0.0142328
0.0141923
0.0141538
0.0141172
0.0140827
0.0140501
0.0140195
0.0139909
0.0139642
0.0139395
0.0139168
0.0138959
0.013877
0.01386
0.0138448
0.0138314
0.0138198
0.01381
0.0138019
0.0137955
0.0137907
0.0137875
0.0137858
0.0137856
0.0137868
0.0137892
0.0137928
0.0137976
0.0138033
0.0138101
0.0138182
0.013825
0.0170364
0.0170377
0.0170387
0.0170387
0.0170377
0.0170359
0.0170333
0.01703
0.017026
0.0170212
0.0170158
0.0170098
0.0170032
0.016996
0.0169884
0.0169801
0.0169715
0.0169623
0.0169528
0.0169428
0.0169324
0.0169216
0.0169104
0.0168989
0.016887
0.0168748
0.0168622
0.0168494
0.0168361
0.0168226
0.0168088
0.0167946
0.0167802
0.0167655
0.0167505
0.0167352
0.0167196
0.0167038
0.0166877
0.0166713
0.0166548
0.016638
0.016621
0.0166038
0.0165865
0.0165689
0.0165513
0.0165335
0.0165155
0.0164975
0.0164794
0.0164613
0.0164432
0.016425
0.0164069
0.0163888
0.0163708
0.0163529
0.0163352
0.0163177
0.0163003
0.0162833
0.0162665
0.01625
0.0162339
0.0162182
0.0162029
0.0161882
0.016174
0.0161603
0.0161473
0.0161349
0.0161233
0.0161124
0.0161023
0.0160931
0.0160848
0.0160773
0.0160709
0.0160654
0.016061
0.0160576
0.0160554
0.0160542
0.0160542
0.0160553
0.0160576
0.016061
0.0160656
0.0160713
0.0160781
0.0160861
0.0160951
0.0161051
0.0161162
0.0161281
0.0161409
0.0161545
0.0161688
0.0161837
0.0161992
0.0162151
0.0162312
0.0162476
0.016264
0.0162803
0.0162964
0.0163122
0.0163274
0.016342
0.0163558
0.0163686
0.0163803
0.0163907
0.0163997
0.0164071
0.0164127
0.0164165
0.0164183
0.016418
0.0164154
0.0164104
0.0164029
0.0163929
0.0163803
0.016365
0.0163469
0.016326
0.0163024
0.0162759
0.0162467
0.0162146
0.0161799
0.0161425
0.0161024
0.0160599
0.0160149
0.0159676
0.0159182
0.0158667
0.0158133
0.0157582
0.0157015
0.0156434
0.015584
0.0155236
0.0154624
0.0154004
0.015338
0.0152752
0.0152123
0.0151495
0.0150869
0.0150247
0.014963
0.014902
0.0148419
0.0147828
0.0147249
0.0146681
0.0146128
0.0145588
0.0145065
0.0144557
0.0144067
0.0143594
0.0143139
0.0142703
0.0142286
0.0141888
0.014151
0.0141151
0.0140811
0.0140491
0.0140191
0.013991
0.0139648
0.0139406
0.0139182
0.0138978
0.0138791
0.0138623
0.0138473
0.0138341
0.0138226
0.0138128
0.0138047
0.0137983
0.0137934
0.0137901
0.0137883
0.013788
0.0137891
0.0137915
0.0137952
0.0138002
0.0138064
0.0138139
0.0138232
0.013831
0.0170412
0.0170423
0.0170431
0.0170429
0.0170418
0.0170399
0.0170372
0.0170338
0.0170297
0.0170249
0.0170195
0.0170135
0.017007
0.0169999
0.0169923
0.0169843
0.0169757
0.0169667
0.0169573
0.0169475
0.0169373
0.0169268
0.0169158
0.0169045
0.0168929
0.0168809
0.0168686
0.0168559
0.0168429
0.0168297
0.0168161
0.0168022
0.016788
0.0167735
0.0167587
0.0167437
0.0167283
0.0167127
0.0166969
0.0166808
0.0166645
0.016648
0.0166312
0.0166142
0.0165971
0.0165798
0.0165623
0.0165447
0.016527
0.0165092
0.0164912
0.0164733
0.0164552
0.0164372
0.0164192
0.0164012
0.0163833
0.0163655
0.0163478
0.0163302
0.0163129
0.0162957
0.0162788
0.0162623
0.016246
0.0162302
0.0162147
0.0161997
0.0161852
0.0161713
0.0161579
0.0161452
0.0161332
0.0161218
0.0161113
0.0161016
0.0160927
0.0160847
0.0160776
0.0160716
0.0160665
0.0160625
0.0160595
0.0160576
0.0160569
0.0160572
0.0160587
0.0160614
0.0160651
0.0160701
0.0160761
0.0160832
0.0160914
0.0161006
0.0161109
0.016122
0.016134
0.0161468
0.0161603
0.0161745
0.0161892
0.0162044
0.0162198
0.0162355
0.0162512
0.0162669
0.0162824
0.0162976
0.0163123
0.0163264
0.0163397
0.016352
0.0163633
0.0163733
0.0163818
0.0163889
0.0163942
0.0163977
0.0163992
0.0163986
0.0163958
0.0163906
0.016383
0.0163728
0.01636
0.0163446
0.0163264
0.0163055
0.0162818
0.0162552
0.016226
0.0161939
0.0161592
0.0161218
0.0160818
0.0160393
0.0159944
0.0159472
0.0158979
0.0158466
0.0157933
0.0157384
0.0156819
0.015624
0.0155649
0.0155048
0.0154438
0.0153822
0.0153201
0.0152577
0.0151953
0.0151329
0.0150707
0.015009
0.0149478
0.0148874
0.0148279
0.0147693
0.014712
0.0146558
0.0146011
0.0145478
0.0144961
0.0144461
0.0143977
0.0143511
0.0143063
0.0142634
0.0142223
0.0141832
0.014146
0.0141107
0.0140774
0.014046
0.0140165
0.0139889
0.0139633
0.0139395
0.0139175
0.0138974
0.0138791
0.0138626
0.0138478
0.0138348
0.0138234
0.0138137
0.0138057
0.0137992
0.0137943
0.013791
0.0137891
0.0137888
0.0137899
0.0137924
0.0137963
0.0138016
0.0138082
0.0138164
0.0138267
0.0138354
0.0170471
0.017048
0.0170485
0.017048
0.0170467
0.0170446
0.0170417
0.0170382
0.017034
0.0170292
0.0170238
0.0170178
0.0170113
0.0170043
0.0169968
0.0169888
0.0169804
0.0169716
0.0169623
0.0169527
0.0169427
0.0169323
0.0169215
0.0169105
0.016899
0.0168872
0.0168751
0.0168627
0.01685
0.0168369
0.0168236
0.0168099
0.0167959
0.0167817
0.0167671
0.0167523
0.0167372
0.0167218
0.0167062
0.0166904
0.0166743
0.0166579
0.0166414
0.0166246
0.0166077
0.0165905
0.0165732
0.0165558
0.0165382
0.0165205
0.0165027
0.0164848
0.0164669
0.016449
0.016431
0.016413
0.0163951
0.0163773
0.0163596
0.0163419
0.0163245
0.0163072
0.0162902
0.0162734
0.016257
0.0162409
0.0162251
0.0162098
0.016195
0.0161807
0.0161669
0.0161537
0.0161412
0.0161294
0.0161183
0.016108
0.0160985
0.0160899
0.0160821
0.0160754
0.0160696
0.0160648
0.0160611
0.0160585
0.0160569
0.0160565
0.0160572
0.016059
0.016062
0.0160661
0.0160713
0.0160776
0.016085
0.0160934
0.0161028
0.0161132
0.0161245
0.0161365
0.0161493
0.0161628
0.0161768
0.0161913
0.0162061
0.0162212
0.0162364
0.0162515
0.0162665
0.0162812
0.0162954
0.0163091
0.016322
0.016334
0.0163449
0.0163546
0.0163629
0.0163697
0.0163748
0.0163781
0.0163794
0.0163786
0.0163757
0.0163704
0.0163627
0.0163524
0.0163396
0.0163241
0.0163059
0.0162849
0.0162612
0.0162347
0.0162054
0.0161734
0.0161387
0.0161013
0.0160614
0.016019
0.0159741
0.015927
0.0158778
0.0158265
0.0157734
0.0157186
0.0156623
0.0156045
0.0155456
0.0154857
0.015425
0.0153636
0.0153018
0.0152397
0.0151775
0.0151154
0.0150537
0.0149923
0.0149316
0.0148716
0.0148125
0.0147545
0.0146976
0.014642
0.0145879
0.0145352
0.0144841
0.0144346
0.0143869
0.0143409
0.0142967
0.0142544
0.014214
0.0141755
0.0141389
0.0141043
0.0140715
0.0140407
0.0140117
0.0139847
0.0139595
0.0139362
0.0139146
0.0138949
0.013877
0.0138607
0.0138462
0.0138334
0.0138222
0.0138126
0.0138046
0.0137983
0.0137934
0.0137901
0.0137883
0.0137879
0.0137891
0.0137917
0.0137958
0.0138015
0.0138086
0.0138174
0.0138285
0.013838
0.017054
0.0170546
0.0170547
0.0170539
0.0170524
0.01705
0.017047
0.0170433
0.017039
0.0170341
0.0170287
0.0170227
0.0170162
0.0170092
0.0170017
0.0169938
0.0169855
0.0169768
0.0169677
0.0169582
0.0169484
0.0169382
0.0169276
0.0169167
0.0169055
0.0168939
0.016882
0.0168698
0.0168572
0.0168444
0.0168313
0.0168178
0.0168041
0.01679
0.0167757
0.0167611
0.0167462
0.016731
0.0167156
0.0166999
0.016684
0.0166678
0.0166515
0.0166349
0.0166181
0.0166011
0.0165839
0.0165666
0.0165491
0.0165315
0.0165138
0.016496
0.0164781
0.0164602
0.0164422
0.0164242
0.0164062
0.0163883
0.0163705
0.0163527
0.0163351
0.0163176
0.0163004
0.0162833
0.0162666
0.0162501
0.016234
0.0162183
0.016203
0.0161883
0.016174
0.0161603
0.0161472
0.0161348
0.016123
0.0161121
0.0161019
0.0160926
0.0160841
0.0160766
0.01607
0.0160645
0.0160599
0.0160565
0.0160541
0.0160528
0.0160527
0.0160537
0.0160558
0.016059
0.0160634
0.0160689
0.0160755
0.0160831
0.0160917
0.0161013
0.0161118
0.0161232
0.0161353
0.0161481
0.0161615
0.0161754
0.0161896
0.0162041
0.0162188
0.0162335
0.0162481
0.0162624
0.0162762
0.0162895
0.0163021
0.0163139
0.0163245
0.016334
0.0163422
0.0163488
0.0163538
0.016357
0.0163583
0.0163575
0.0163545
0.0163492
0.0163414
0.0163312
0.0163184
0.016303
0.0162848
0.0162639
0.0162402
0.0162138
0.0161846
0.0161526
0.016118
0.0160807
0.0160408
0.0159985
0.0159537
0.0159067
0.0158575
0.0158064
0.0157534
0.0156986
0.0156424
0.0155848
0.015526
0.0154662
0.0154056
0.0153444
0.0152828
0.0152209
0.015159
0.0150972
0.0150357
0.0149747
0.0149143
0.0148546
0.0147959
0.0147383
0.0146819
0.0146268
0.0145731
0.0145209
0.0144703
0.0144214
0.0143742
0.0143288
0.0142852
0.0142435
0.0142037
0.0141658
0.0141298
0.0140957
0.0140635
0.0140332
0.0140048
0.0139783
0.0139536
0.0139307
0.0139096
0.0138903
0.0138727
0.0138568
0.0138426
0.01383
0.013819
0.0138096
0.0138017
0.0137954
0.0137906
0.0137874
0.0137856
0.0137854
0.0137866
0.0137894
0.0137938
0.0137997
0.0138072
0.0138166
0.0138285
0.0138387
0.0170619
0.0170621
0.0170618
0.0170607
0.0170588
0.0170562
0.0170529
0.0170491
0.0170446
0.0170396
0.017034
0.017028
0.0170215
0.0170145
0.0170071
0.0169993
0.0169911
0.0169824
0.0169735
0.0169641
0.0169544
0.0169443
0.0169339
0.0169232
0.0169122
0.0169008
0.0168891
0.0168771
0.0168647
0.0168521
0.0168391
0.0168259
0.0168123
0.0167985
0.0167843
0.0167699
0.0167552
0.0167402
0.016725
0.0167094
0.0166937
0.0166777
0.0166614
0.016645
0.0166283
0.0166114
0.0165943
0.0165771
0.0165597
0.0165421
0.0165244
0.0165066
0.0164887
0.0164707
0.0164526
0.0164345
0.0164164
0.0163984
0.0163803
0.0163624
0.0163445
0.0163267
0.0163092
0.0162918
0.0162746
0.0162578
0.0162412
0.016225
0.0162092
0.0161938
0.016179
0.0161646
0.0161509
0.0161378
0.0161253
0.0161136
0.0161026
0.0160925
0.0160832
0.0160749
0.0160675
0.016061
0.0160556
0.0160512
0.016048
0.0160458
0.0160447
0.0160448
0.0160461
0.0160484
0.0160519
0.0160566
0.0160623
0.0160691
0.016077
0.0160858
0.0160956
0.0161062
0.0161177
0.0161298
0.0161426
0.016156
0.0161697
0.0161838
0.016198
0.0162123
0.0162265
0.0162404
0.016254
0.0162671
0.0162795
0.0162911
0.0163016
0.016311
0.0163191
0.0163257
0.0163307
0.0163339
0.0163352
0.0163345
0.0163315
0.0163263
0.0163187
0.0163086
0.0162959
0.0162806
0.0162626
0.0162418
0.0162183
0.016192
0.0161629
0.0161311
0.0160966
0.0160594
0.0160197
0.0159774
0.0159328
0.0158859
0.0158368
0.0157857
0.0157328
0.0156782
0.015622
0.0155645
0.0155058
0.0154462
0.0153857
0.0153246
0.0152631
0.0152014
0.0151397
0.0150781
0.0150168
0.014956
0.0148959
0.0148365
0.0147782
0.0147209
0.0146648
0.0146101
0.0145568
0.0145051
0.0144549
0.0144065
0.0143598
0.014315
0.0142719
0.0142307
0.0141915
0.0141541
0.0141187
0.0140851
0.0140535
0.0140238
0.0139959
0.0139699
0.0139456
0.0139232
0.0139026
0.0138836
0.0138664
0.0138508
0.0138369
0.0138245
0.0138137
0.0138045
0.0137968
0.0137907
0.013786
0.0137828
0.0137812
0.013781
0.0137824
0.0137854
0.0137899
0.0137961
0.0138041
0.0138139
0.0138264
0.0138372
0.0170707
0.0170705
0.0170697
0.0170681
0.0170659
0.017063
0.0170595
0.0170554
0.0170508
0.0170456
0.01704
0.0170338
0.0170273
0.0170203
0.0170129
0.0170051
0.016997
0.0169884
0.0169795
0.0169703
0.0169607
0.0169508
0.0169406
0.01693
0.0169191
0.0169079
0.0168964
0.0168845
0.0168724
0.0168599
0.0168471
0.0168341
0.0168207
0.016807
0.016793
0.0167788
0.0167642
0.0167494
0.0167343
0.0167189
0.0167033
0.0166874
0.0166712
0.0166548
0.0166382
0.0166214
0.0166044
0.0165871
0.0165697
0.0165521
0.0165344
0.0165165
0.0164985
0.0164804
0.0164622
0.016444
0.0164257
0.0164073
0.016389
0.0163707
0.0163525
0.0163344
0.0163164
0.0162986
0.016281
0.0162636
0.0162464
0.0162296
0.0162132
0.0161972
0.0161816
0.0161665
0.016152
0.0161381
0.0161248
0.0161122
0.0161004
0.0160893
0.0160792
0.0160698
0.0160615
0.0160541
0.0160477
0.0160424
0.0160381
0.0160349
0.0160329
0.0160321
0.0160323
0.0160338
0.0160364
0.0160401
0.016045
0.016051
0.016058
0.0160661
0.0160751
0.0160851
0.0160959
0.0161074
0.0161197
0.0161325
0.0161457
0.0161593
0.0161732
0.0161871
0.0162011
0.0162148
0.0162282
0.0162411
0.0162534
0.0162649
0.0162754
0.0162848
0.0162929
0.0162996
0.0163047
0.016308
0.0163095
0.0163089
0.0163062
0.0163012
0.0162938
0.016284
0.0162715
0.0162564
0.0162387
0.0162182
0.0161949
0.0161688
0.01614
0.0161084
0.0160741
0.0160371
0.0159975
0.0159555
0.015911
0.0158642
0.0158153
0.0157644
0.0157115
0.015657
0.015601
0.0155436
0.015485
0.0154254
0.015365
0.0153041
0.0152427
0.0151811
0.0151195
0.0150581
0.0149969
0.0149363
0.0148764
0.0148173
0.0147592
0.0147022
0.0146464
0.014592
0.0145391
0.0144878
0.014438
0.01439
0.0143438
0.0142994
0.0142568
0.0142162
0.0141774
0.0141406
0.0141056
0.0140726
0.0140415
0.0140123
0.0139849
0.0139594
0.0139357
0.0139137
0.0138934
0.0138749
0.013858
0.0138428
0.0138292
0.0138171
0.0138066
0.0137976
0.0137901
0.013784
0.0137795
0.0137765
0.0137749
0.0137749
0.0137764
0.0137795
0.0137843
0.0137907
0.0137989
0.0138092
0.0138222
0.0138334
0.0170803
0.0170796
0.0170783
0.0170763
0.0170737
0.0170704
0.0170666
0.0170623
0.0170574
0.0170521
0.0170463
0.0170401
0.0170335
0.0170265
0.0170191
0.0170113
0.0170032
0.0169948
0.0169859
0.0169768
0.0169674
0.0169576
0.0169475
0.016937
0.0169263
0.0169152
0.0169039
0.0168922
0.0168802
0.0168679
0.0168553
0.0168424
0.0168291
0.0168156
0.0168018
0.0167876
0.0167732
0.0167585
0.0167435
0.0167282
0.0167127
0.0166968
0.0166807
0.0166644
0.0166478
0.016631
0.016614
0.0165967
0.0165792
0.0165616
0.0165437
0.0165257
0.0165075
0.0164892
0.0164708
0.0164523
0.0164337
0.016415
0.0163964
0.0163777
0.016359
0.0163404
0.0163219
0.0163035
0.0162853
0.0162673
0.0162495
0.016232
0.0162148
0.016198
0.0161816
0.0161656
0.0161502
0.0161354
0.0161211
0.0161076
0.0160947
0.0160827
0.0160714
0.0160611
0.0160517
0.0160432
0.0160357
0.0160293
0.016024
0.0160198
0.0160167
0.0160148
0.0160141
0.0160145
0.0160162
0.016019
0.0160229
0.016028
0.0160343
0.0160415
0.0160498
0.0160591
0.0160692
0.0160802
0.0160918
0.0161041
0.016117
0.0161302
0.0161437
0.0161574
0.016171
0.0161846
0.0161979
0.0162107
0.0162229
0.0162344
0.016245
0.0162545
0.0162628
0.0162697
0.016275
0.0162786
0.0162804
0.0162801
0.0162777
0.0162731
0.016266
0.0162565
0.0162445
0.0162298
0.0162124
0.0161922
0.0161693
0.0161436
0.0161151
0.0160839
0.0160499
0.0160132
0.0159739
0.0159321
0.0158879
0.0158414
0.0157927
0.0157419
0.0156893
0.0156349
0.015579
0.0155217
0.0154632
0.0154038
0.0153435
0.0152827
0.0152214
0.0151599
0.0150984
0.0150371
0.0149761
0.0149157
0.0148559
0.014797
0.0147391
0.0146823
0.0146268
0.0145727
0.0145201
0.014469
0.0144197
0.014372
0.0143262
0.0142822
0.0142401
0.0141999
0.0141616
0.0141252
0.0140908
0.0140583
0.0140277
0.0139989
0.013972
0.013947
0.0139237
0.0139022
0.0138824
0.0138642
0.0138477
0.0138328
0.0138195
0.0138077
0.0137974
0.0137887
0.0137813
0.0137755
0.0137711
0.0137682
0.0137668
0.0137669
0.0137685
0.0137718
0.0137767
0.0137834
0.0137918
0.0138024
0.0138158
0.0138272
0.0170906
0.0170895
0.0170876
0.0170851
0.0170821
0.0170784
0.0170743
0.0170697
0.0170646
0.0170591
0.0170531
0.0170468
0.0170401
0.0170331
0.0170256
0.0170179
0.0170098
0.0170014
0.0169926
0.0169836
0.0169742
0.0169646
0.0169546
0.0169443
0.0169337
0.0169227
0.0169115
0.0169
0.0168881
0.016876
0.0168635
0.0168507
0.0168376
0.0168242
0.0168105
0.0167964
0.0167821
0.0167675
0.0167525
0.0167373
0.0167218
0.016706
0.0166899
0.0166736
0.016657
0.0166401
0.016623
0.0166056
0.016588
0.0165702
0.0165522
0.016534
0.0165156
0.016497
0.0164782
0.0164594
0.0164404
0.0164213
0.0164022
0.016383
0.0163638
0.0163446
0.0163254
0.0163064
0.0162874
0.0162686
0.01625
0.0162317
0.0162136
0.0161959
0.0161785
0.0161616
0.0161451
0.0161292
0.0161139
0.0160992
0.0160853
0.0160721
0.0160597
0.0160481
0.0160375
0.0160279
0.0160192
0.0160116
0.0160051
0.0159998
0.0159956
0.0159925
0.0159907
0.0159901
0.0159906
0.0159924
0.0159954
0.0159996
0.016005
0.0160114
0.0160189
0.0160275
0.0160369
0.0160473
0.0160584
0.0160702
0.0160826
0.0160954
0.0161086
0.0161221
0.0161356
0.016149
0.0161622
0.0161751
0.0161874
0.016199
0.0162097
0.0162195
0.016228
0.0162352
0.0162409
0.0162448
0.016247
0.0162472
0.0162453
0.0162411
0.0162346
0.0162256
0.0162141
0.0161999
0.0161831
0.0161634
0.016141
0.0161158
0.0160878
0.0160571
0.0160235
0.0159873
0.0159484
0.015907
0.0158631
0.0158169
0.0157685
0.015718
0.0156657
0.0156115
0.0155558
0.0154987
0.0154404
0.0153811
0.015321
0.0152603
0.0151991
0.0151378
0.0150764
0.0150152
0.0149543
0.014894
0.0148344
0.0147756
0.0147179
0.0146613
0.014606
0.0145521
0.0144998
0.014449
0.0144
0.0143527
0.0143072
0.0142636
0.0142218