/*--------------------------------*- C++ -*----------------------------------*\
  =========                 |
  \\      /  F ield         | OpenFOAM: The Open Source CFD Toolbox
   \\    /   O peration     | Website:  https://openfoam.org
    \\  /    A nd           | Version:  6
     \\/     M anipulation  |
\*---------------------------------------------------------------------------*/
FoamFile
{
    version     2.0;
    format      ascii;
    class       volVectorField;
    location    "0";
    object      Ulift0;
}
// * * * * * * * * * * * * * * * * * * * * * * * * * * * * * * * * * * * * * //

dimensions      [0 1 -1 0 0 0 0];

internalField   nonuniform List<vector> 
400
(
(0.0893712 -0.0913793 0)
(0.010218 0.0638925 0)
(-0.548077 0.232829 0)
(-1.46117 0.341334 0)
(-2.57215 0.396415 0)
(-3.7588 0.41195 0)
(-4.92214 0.39527 0)
(-5.97091 0.346882 0)
(-6.81154 0.263689 0)
(-7.34756 0.143854 0)
(-7.4901 -0.00838658 0)
(-7.17767 -0.179274 0)
(-6.40002 -0.344699 0)
(-5.21881 -0.473094 0)
(-3.77604 -0.532425 0)
(-2.28217 -0.500154 0)
(-0.98041 -0.37321 0)
(-0.0909389 -0.174451 0)
(0.262705 0.0400408 0)
(0.149362 0.142562 0)
(-0.0709873 -0.0159691 0)
(-0.784356 0.748407 0)
(-2.50902 1.48659 0)
(-4.93881 1.97712 0)
(-7.76165 2.22569 0)
(-10.7184 2.26956 0)
(-13.5719 2.1317 0)
(-16.0941 1.81645 0)
(-18.061 1.32056 0)
(-19.2583 0.651286 0)
(-19.5063 -0.156123 0)
(-18.6963 -1.02713 0)
(-16.8323 -1.84748 0)
(-14.0637 -2.47717 0)
(-10.6962 -2.77976 0)
(-7.1661 -2.66288 0)
(-3.97075 -2.11963 0)
(-1.55962 -1.25596 0)
(-0.213257 -0.308274 0)
(0.0863198 0.279744 0)
(-0.28409 0.594137 0)
(-1.7317 2.53605 0)
(-4.6445 4.21536 0)
(-8.46491 5.32473 0)
(-12.7493 5.86835 0)
(-17.1531 5.90548 0)
(-21.3501 5.47638 0)
(-25.0218 4.59408 0)
(-27.8591 3.26641 0)
(-29.5744 1.53131 0)
(-29.9324 -0.509926 0)
(-28.7941 -2.67292 0)
(-26.1642 -4.69229 0)
(-22.231 -6.2521 0)
(-17.3839 -7.04689 0)
(-12.1916 -6.86771 0)
(-7.32344 -5.69353 0)
(-3.41411 -3.75509 0)
(-0.932748 -1.55664 0)
(-0.0473038 0.072986 0)
(-0.479103 1.72813 0)
(-2.62854 5.36582 0)
(-6.68118 8.23279 0)
(-11.7943 10.0651 0)
(-17.3898 10.9125 0)
(-23.0612 10.8716 0)
(-28.4266 10.0047 0)
(-33.1133 8.33662 0)
(-36.7594 5.89231 0)
(-39.0269 2.75037 0)
(-39.6322 -0.908165 0)
(-38.3913 -4.77106 0)
(-35.2718 -8.39704 0)
(-30.4446 -11.2587 0)
(-24.3212 -12.8337 0)
(-17.5558 -12.7407 0)
(-10.9778 -10.8979 0)
(-5.44311 -7.64377 0)
(-1.69123 -3.77135 0)
(-0.17202 -0.520765 0)
(-0.64822 3.32747 0)
(-3.42862 9.14221 0)
(-8.5209 13.4049 0)
(-14.808 16.0221 0)
(-21.5854 17.1556 0)
(-28.401 16.9694 0)
(-34.8431 15.558 0)
(-40.5122 12.9604 0)
(-45.0168 9.21636 0)
(-47.9803 4.44022 0)
(-49.0651 -1.11489 0)
(-48.015 -7.01519 0)
(-44.7121 -12.6404 0)
(-39.2463 -17.2273 0)
(-31.9879 -19.9806 0)
(-23.6345 -20.2608 0)
(-15.1803 -17.8285 0)
(-7.76946 -13.0641 0)
(-2.52774 -7.04968 0)
(-0.293446 -1.50433 0)
(-0.789256 5.32999 0)
(-4.10835 13.7589 0)
(-10.1004 19.6139 0)
(-17.4109 23.0782 0)
(-25.2282 24.4929 0)
(-33.072 24.125 0)
(-40.5226 22.1163 0)
(-47.1773 18.5199 0)
(-52.6347 13.3808 0)
(-56.4887 6.82953 0)
(-58.3414 -0.835032 0)
(-57.8378 -9.08448 0)
(-54.7257 -17.134 0)
(-48.9458 -23.9687 0)
(-40.7489 -28.4546 0)
(-30.8106 -29.5708 0)
(-20.2723 -26.7626 0)
(-10.632 -20.3223 0)
(-3.55573 -11.6016 0)
(-0.438041 -2.92744 0)
(-0.897982 7.6637 0)
(-4.64294 19.0764 0)
(-11.3577 26.699 0)
(-19.5002 31.0763 0)
(-28.1777 32.7895 0)
(-36.8994 32.2454 0)
(-45.2584 29.6491 0)
(-52.8713 25.0677 0)
(-59.3481 18.5354 0)
(-64.2681 10.1683 0)
(-67.1769 0.268723 0)
(-67.6078 -10.588 0)
(-65.1379 -21.4905 0)
(-59.4932 -31.1768 0)
(-50.7096 -38.1166 0)
(-39.3325 -40.7603 0)
(-26.5723 -38.0087 0)
(-14.3042 -29.8325 0)
(-4.91896 -17.766 0)
(-0.640023 -4.91305 0)
(-0.969048 10.2426 0)
(-5.00663 24.9225 0)
(-12.2301 34.4544 0)
(-20.9644 39.8071 0)
(-30.2626 41.8528 0)
(-39.6401 41.1741 0)
(-48.7223 38.0579 0)
(-57.1688 32.5857 0)
(-64.6264 24.7637 0)
(-70.6866 14.658 0)
(-74.8616 2.52016 0)
(-76.586 -11.0934 0)
(-75.2573 -25.2117 0)
(-70.3389 -38.3694 0)
(-61.5513 -48.6186 0)
(-49.1549 -53.7427 0)
(-34.2588 -51.8058 0)
(-19.0378 -42.0739 0)
(-6.77892 -26.0164 0)
(-0.941373 -7.66732 0)
(-0.998733 12.9672 0)
(-5.18093 31.0967 0)
(-12.668 42.6316 0)
(-21.7028 49.0015 0)
(-31.3075 51.412 0)
(-41.0177 50.6567 0)
(-50.509 47.1257 0)
(-59.5081 40.9207 0)
(-67.7306 32.0073 0)
(-74.8196 20.3679 0)
(-80.3006 6.14845 0)
(-83.5564 -10.1927 0)
(-83.8374 -27.7221 0)
(-80.3372 -44.8683 0)
(-72.3815 -59.3179 0)
(-59.7653 -68.1104 0)
(-43.2265 -68.1664 0)
(-24.9935 -57.489 0)
(-9.30849 -36.9403 0)
(-1.39663 -11.4887 0)
(-0.989463 15.7317 0)
(-5.16967 37.3819 0)
(-12.6619 50.9458 0)
(-21.6634 58.3271 0)
(-31.1823 61.1017 0)
(-40.7863 60.3106 0)
(-50.2185 56.4743 0)
(-59.2971 49.728 0)
(-67.8412 39.9945 0)
(-75.5953 27.1518 0)
(-82.1645 11.1936 0)
(-86.9603 -7.59905 0)
(-89.1676 -28.45 0)
(-87.7652 -49.8367 0)
(-81.6631 -69.2343 0)
(-70.0367 -82.992 0)
(-52.9172 -86.6613 0)
(-32.1352 -76.2982 0)
(-12.6787 -51.1745 0)
(-2.08082 -16.7798 0)
(-0.956094 18.4421 0)
(-5.01975 43.5708 0)
(-12.2783 59.0951 0)
(-20.8921 67.3961 0)
(-29.866 70.4603 0)
(-38.8147 69.6167 0)
(-47.5686 65.5479 0)
(-56.0617 58.4454 0)
(-64.2502 48.2009 0)
(-72.0301 34.5862 0)
(-79.1599 17.4176 0)
(-85.1814 -3.26455 0)
(-89.3388 -26.9634 0)
(-90.5221 -52.4031 0)
(-87.3041 -77.1097 0)
(-78.1803 -96.9845 0)
(-62.1647 -106.202 0)
(-40.0764 -98.2279 0)
(-17.0185 -69.2713 0)
(-3.09747 -24.0603 0)
(-0.93499 21.0477 0)
(-4.84804 49.5114 0)
(-11.7022 66.7957 0)
(-19.5852 75.7876 0)
(-27.5094 78.946 0)
(-35.1666 77.9349 0)
(-42.5041 73.6321 0)
(-49.5969 66.3121 0)
(-56.5657 55.8597 0)
(-63.4965 41.9584 0)
(-70.363 24.2517 0)
(-76.9344 2.5104 0)
(-82.6577 -23.1419 0)
(-86.5219 -51.876 0)
(-86.9575 -81.6081 0)
(-81.8848 -108.24 0)
(-69.1397 -124.912 0)
(-47.9053 -122.187 0)
(-22.3208 -91.4532 0)
(-4.57879 -33.9714 0)
(-0.999401 23.5942 0)
(-4.87871 55.1713 0)
(-11.2821 73.8247 0)
(-18.1303 83.0743 0)
(-24.4712 85.9625 0)
(-30.1399 84.5403 0)
(-35.2506 79.9047 0)
(-40.0491 72.4329 0)
(-44.8373 62.0285 0)
(-49.908 48.3194 0)
(-55.4795 30.8098 0)
(-61.6117 9.01885 0)
(-68.0771 -17.3342 0)
(-74.1727 -48.0091 0)
(-78.4823 -81.6507 0)
(-78.6581 -114.761 0)
(-71.4729 -140.211 0)
(-54.063 -146.001 0)
(-28.2714 -117.217 0)
(-6.65943 -47.2318 0)
(-1.28897 26.3105 0)
(-5.5009 60.7203 0)
(-11.5739 80.0542 0)
(-17.1106 88.8318 0)
(-21.2844 90.8722 0)
(-24.2053 88.6565 0)
(-26.237 83.4951 0)
(-27.8309 75.8634 0)
(-29.4758 65.6956 0)
(-31.6605 52.5964 0)
(-34.8365 35.9822 0)
(-39.3614 15.1853 0)
(-45.3948 -10.4265 0)
(-52.7092 -41.2238 0)
(-60.372 -76.8059 0)
(-66.2545 -114.89 0)
(-66.5365 -149.19 0)
(-56.3389 -166.381 0)
(-33.9955 -144.838 0)
(-9.38669 -64.4682 0)
(-2.06483 29.7615 0)
(-7.35368 66.6162 0)
(-13.3489 85.4343 0)
(-17.1968 92.5895 0)
(-18.4457 92.9604 0)
(-17.7193 89.4499 0)
(-15.7447 83.5135 0)
(-13.2155 75.6741 0)
(-10.8001 65.8783 0)
(-9.1491 53.7239 0)
(-8.89864 38.5926 0)
(-10.6563 19.7226 0)
(-14.9478 -3.74096 0)
(-22.0852 -32.6509 0)
(-31.8715 -67.5627 0)
(-42.9502 -107.831 0)
(-51.7234 -149.255 0)
(-51.9427 -179.306 0)
(-37.7471 -171.055 0)
(-12.4923 -85.9027 0)
(-3.78643 35.1444 0)
(-11.3831 73.6475 0)
(-17.3859 89.8444 0)
(-18.6279 93.6573 0)
(-15.6724 91.3021 0)
(-10.0336 85.9449 0)
(-2.92075 79.011 0)
(4.71708 70.9541 0)
(12.0636 61.6751 0)
(18.3636 50.7569 0)
(22.8699 37.5861 0)
(24.81 21.4001 0)
(23.3813 1.28697 0)
(17.7976 -23.8413 0)
(7.46365 -55.2308 0)
(-7.44298 -93.8906 0)
(-24.5362 -138.708 0)
(-37.5424 -180.678 0)
(-36.6031 -191.216 0)
(-14.903 -111.095 0)
(-7.10693 44.9112 0)
(-18.4994 82.6238 0)
(-23.2081 92.3639 0)
(-19.2 90.4514 0)
(-9.53347 84.2596 0)
(2.97746 76.6853 0)
(16.6584 68.7735 0)
(30.4001 60.712 0)
(43.3477 52.2596 0)
(54.7515 42.959 0)
(63.8614 32.2286 0)
(69.8516 19.3845 0)
(71.7718 3.61174 0)
(68.5216 -16.133 0)
(58.8799 -41.3259 0)
(41.8047 -74.1207 0)
(17.6673 -116.759 0)
(-9.18368 -166.513 0)
(-26.2695 -199.115 0)
(-13.9188 -138.213 0)
(-12.125 63.4526 0)
(-27.0391 92.1542 0)
(-23.5444 88.2234 0)
(-7.67986 78.2927 0)
(12.8183 68.2538 0)
(34.4185 59.1624 0)
(55.6244 51.1441 0)
(75.5876 43.9315 0)
(93.7102 37.0772 0)
(109.467 30.084 0)
(122.277 22.4426 0)
(131.413 13.6209 0)
(135.94 3.02047 0)
(134.646 -10.1271 0)
(125.977 -27.0304 0)
(107.997 -50.0002 0)
(78.8336 -83.5757 0)
(38.6653 -132.727 0)
(-0.32594 -184.85 0)
(-3.66911 -159.036 0)
(-10.4016 90.6622 0)
(-16.3112 91.5003 0)
(14.7479 67.7688 0)
(51.229 52.0189 0)
(84.1707 41.3762 0)
(113.28 33.4332 0)
(139.031 27.3168 0)
(161.618 22.4348 0)
(181.112 18.2539 0)
(197.467 14.3305 0)
(210.455 10.2988 0)
(219.617 5.83484 0)
(224.229 0.61586 0)
(223.241 -5.74584 0)
(215.143 -13.8774 0)
(197.66 -25.1627 0)
(167.265 -43.5843 0)
(118.242 -78.8059 0)
(56.1864 -134.302 0)
(31.0643 -147.215 0)
(108.744 54.308 0)
(134.646 47.8589 0)
(185.802 31.6054 0)
(228.145 21.2788 0)
(257.584 14.9981 0)
(279.242 10.8617 0)
(296.265 8.03374 0)
(309.947 6.04274 0)
(320.914 4.55057 0)
(329.494 3.31595 0)
(335.766 2.16918 0)
(339.594 0.984922 0)
(340.652 -0.339562 0)
(338.407 -1.90665 0)
(332.04 -3.86828 0)
(320.062 -6.56448 0)
(299.521 -11.0572 0)
(262.584 -20.9623 0)
(195.508 -44.4503 0)
(142.217 -61.858 0)
)
;

boundaryField
{
    movingWall
    {
        type            calculated;
        value           uniform (407.983 0 0);
    }
    fixedWalls
    {
        type            calculated;
        value           uniform (0 0 0);
    }
    frontAndBack
    {
        type            empty;
    }
}

