/*--------------------------------*- C++ -*----------------------------------*\
  =========                 |
  \\      /  F ield         | OpenFOAM: The Open Source CFD Toolbox
   \\    /   O peration     | Website:  https://openfoam.org
    \\  /    A nd           | Version:  6
     \\/     M anipulation  |
\*---------------------------------------------------------------------------*/
FoamFile
{
    version     2.0;
    format      ascii;
    class       volVectorField;
    location    "0";
    object      U;
}
// * * * * * * * * * * * * * * * * * * * * * * * * * * * * * * * * * * * * * //

dimensions      [0 1 -1 0 0 0 0];

internalField   nonuniform List<vector> 
13046
(
(-0.625784 0.343863 0)
(-0.55242 0.0982916 -6.28183e-21)
(-0.316121 0.132427 -1.40416e-20)
(-0.619705 0.276612 0)
(-0.380666 0.196445 -1.25827e-20)
(-0.477378 0.0958509 0)
(-0.64907 0.288116 1.81271e-21)
(-0.476094 0.0711131 3.23255e-21)
(-0.362553 0.205141 -1.3883e-20)
(-0.811427 0.407899 6.07229e-21)
(-0.7261 -0.1986 0)
(-0.0737711 0.0845471 9.46143e-21)
(-0.695438 0.358504 -5.74168e-21)
(-0.544069 0.0470529 -1.00991e-20)
(-0.278688 0.143848 7.74706e-21)
(-0.78977 0.469926 -7.87573e-21)
(-0.0794913 0.0518094 2.27415e-20)
(-0.757946 -0.126242 5.46054e-21)
(-0.478525 0.264279 0)
(-0.409201 0.110755 -6.82398e-21)
(-0.585591 0.206584 1.90343e-20)
(-0.79624 0.459631 -3.35279e-21)
(-0.0777711 0.0600633 -3.03574e-20)
(-0.748531 -0.140806 0)
(-0.589062 0.292079 7.65595e-21)
(-0.520589 0.121851 -1.53557e-20)
(-0.36845 0.159938 0)
(-0.695726 0.381064 -1.04937e-20)
(-0.562345 0.0427751 2.94613e-21)
(-0.258582 0.12652 -1.33803e-20)
(-0.626138 0.36022 0)
(-0.572037 0.102519 0)
(-0.29856 0.112706 1.42959e-20)
(-0.560633 0.272098 -8.88927e-21)
(-0.391436 0.162988 4.71576e-21)
(-0.515826 0.142147 2.67427e-20)
(-0.5544 0.254543 -1.37194e-20)
(-0.414514 0.181173 7.17631e-21)
(-0.49802 0.146327 -1.37815e-20)
(-0.556806 0.383242 9.88932e-21)
(-0.307463 0.0381506 2.65752e-21)
(-0.659289 0.149767 -9.4328e-21)
(-0.516428 0.208468 6.21374e-21)
(-0.47133 0.204724 1.07071e-20)
(-0.471939 0.168781 0)
(-0.541325 0.210693 3.90142e-21)
(-0.465285 0.220867 -1.63925e-20)
(-0.451322 0.149095 -2.05623e-21)
(-0.640746 0.336341 0)
(-0.534342 0.0812673 -4.53074e-22)
(-0.311423 0.14574 1.77158e-23)
(-0.335938 -0.0443723 1.66215e-20)
(-0.497036 0.415582 0)
(-0.755126 0.178297 -1.15341e-20)
(-0.358626 -0.0651683 -2.36773e-20)
(-0.779733 0.191473 -1.83697e-20)
(-0.466769 0.407406 1.55707e-20)
(-0.72591 0.00715294 -2.36537e-21)
(-0.739764 0.529141 0)
(-0.151441 0.008432 1.25005e-20)
(-0.79415 0.328119 -5.41627e-21)
(-0.514512 -0.0536884 6.09758e-21)
(-0.272317 0.224493 -3.24454e-20)
(-0.129669 0.11515 1.72397e-20)
(-0.667205 -0.125015 -3.95785e-21)
(-0.827759 0.415337 -9.15745e-21)
(-0.720903 0.539022 0)
(-0.732187 0.0302852 0)
(-0.167779 -0.00935627 0)
(-0.706485 0.529529 -4.28576e-21)
(-0.723774 0.0428533 0)
(-0.179659 -0.00770817 9.96193e-21)
(-0.74191 -0.00518649 0)
(-0.750262 0.535935 1.36888e-22)
(-0.138551 0.0033106 9.69015e-24)
(-0.493798 0.283633 0)
(-0.389399 0.0976778 7.42882e-21)
(-0.598849 0.193062 -1.35977e-20)
(-0.116893 0.0219525 1.38742e-20)
(-0.768854 0.520639 -1.3263e-20)
(-0.740749 -0.0444551 0)
(-0.608825 0.296048 3.99806e-21)
(-0.506658 0.107109 0)
(-0.35984 0.171839 0)
(-0.114677 0.105 -1.55026e-20)
(-0.686294 -0.140944 -3.10113e-21)
(-0.828778 0.419609 5.45604e-21)
(-0.86319 0.349823 -9.61261e-21)
(-0.168738 0.185616 0)
(-0.608397 -0.163397 -3.07132e-21)
(-0.204207 0.255108 0)
(-0.901158 0.281965 0)
(-0.56496 -0.218561 4.14796e-22)
(-0.776095 0.411246 0)
(-0.793601 0.407296 5.07146e-21)
(-0.603816 -0.0316007 1.19067e-20)
(-0.607038 -0.0540949 -5.59438e-21)
(-0.196128 0.124361 -7.08607e-21)
(-0.187269 0.134516 1.81366e-20)
(-0.187669 0.206049 -8.65535e-22)
(-0.868668 0.334634 9.40493e-21)
(-0.589266 -0.167935 0)
(-0.566475 0.227513 -3.88959e-23)
(-0.445654 0.220644 8.62951e-21)
(-0.450701 0.130751 0)
(-0.429444 0.348651 0)
(-0.745059 0.223624 -5.6188e-21)
(-0.381586 -0.0252391 0)
(-0.504199 0.3919 1.71429e-20)
(-0.329979 -0.00871232 0)
(-0.716037 0.176547 -2.15958e-20)
(-0.747501 0.383079 0)
(-0.0376907 0.0558201 0)
(-0.721724 -0.253382 -4.57828e-21)
(-0.672086 0.343796 1.58713e-20)
(-0.533022 0.0625551 4.24653e-21)
(-0.296703 0.15198 1.39803e-20)
(-0.782103 0.44935 6.43551e-21)
(-0.770454 0.435148 -1.21196e-20)
(-0.65181 -0.0417786 -1.00923e-20)
(-0.160162 0.0890399 8.14778e-21)
(-0.627567 -0.0261044 6.15093e-21)
(-0.179198 0.10004 -7.61386e-21)
(-0.797091 0.41112 -5.10915e-21)
(-0.737581 -0.209148 -6.33336e-21)
(-0.0621538 0.0735177 -4.24324e-21)
(-0.739308 0.405611 0)
(-0.586608 0.0047158 -7.83361e-21)
(-0.221144 0.118395 1.6435e-20)
(-0.582291 0.391771 0)
(-0.292265 0.0481748 -1.31796e-20)
(-0.645791 0.132046 5.61528e-22)
(-0.225736 0.27191 0)
(-0.896147 0.278103 0)
(-0.549282 -0.199902 0)
(-0.824602 0.391036 0)
(-0.613585 -0.0971529 -1.56823e-20)
(-0.178307 0.152767 -1.94953e-20)
(-0.64874 0.374375 0)
(-0.581524 0.0862566 0)
(-0.280356 0.103774 0)
(-0.724105 0.288621 0)
(-0.456409 0.0076758 0)
(-0.350748 0.24729 0)
(-0.487234 0.390745 0)
(-0.343367 -0.0229137 0)
(-0.734725 0.187206 1.16247e-20)
(-0.434216 0.336481 -1.80886e-21)
(-0.731198 0.226502 -1.20159e-20)
(-0.386352 -0.0109145 1.43462e-20)
(-0.804625 0.340424 1.28989e-20)
(-0.535384 -0.0655178 0)
(-0.249732 0.205502 4.22542e-20)
(-0.418153 0.282883 0)
(-0.685353 0.243727 1.29178e-20)
(-0.410576 0.0335137 -3.61122e-21)
(-0.409664 -0.0880573 0)
(-0.81025 0.226793 1.29878e-20)
(-0.437175 -0.100799 0)
(-0.825162 0.245337 7.44438e-21)
(-0.398639 0.369608 0)
(-0.363972 0.345036 0)
(-0.741101 0.26006 1.64484e-21)
(-0.42682 -0.013618 7.59129e-21)
(-0.377268 0.284339 -7.92978e-21)
(-0.82768 0.394406 -6.23812e-21)
(-0.0819502 0.0984202 0)
(-0.706328 -0.208652 -7.81082e-21)
(-0.766699 0.39586 -4.61709e-21)
(-0.0447851 0.0604449 -1.94152e-21)
(-0.736892 -0.236007 0)
(-0.824034 0.403085 -7.53786e-21)
(-0.630967 -0.101404 0)
(-0.161483 0.137333 2.21771e-20)
(-0.612751 0.446863 0)
(-0.685373 0.11343 3.07489e-21)
(-0.260363 0.0126679 7.75877e-21)
(-0.726545 0.248941 1.09144e-20)
(-0.399078 0.300309 3.78045e-21)
(-0.410892 -0.000737299 0)
(-0.104549 0.132593 0)
(-0.668945 -0.211717 0)
(-0.853519 0.368502 5.30078e-21)
(-0.593281 0.427784 0)
(-0.677051 0.127361 -6.60295e-21)
(-0.276392 0.0217868 2.00177e-21)
(-0.416743 0.296569 0)
(-0.696581 0.238112 0)
(-0.398972 0.0199265 0)
(-0.70371 0.278512 5.37369e-21)
(-0.449879 0.0218536 0)
(-0.36186 0.242786 0)
(-0.537545 0.0179865 -5.36609e-23)
(-0.268453 0.161069 -9.4806e-21)
(-0.727312 0.389873 1.66026e-20)
(-0.571494 0.0177294 0)
(-0.239156 0.129154 -2.05929e-20)
(-0.851299 0.381263 -9.77106e-21)
(-0.135738 0.144124 1.40103e-20)
(-0.652434 -0.164148 -1.50198e-20)
(-0.220701 0.250575 1.27202e-20)
(-0.879974 0.301993 5.83479e-21)
(-0.557399 -0.17575 1.53389e-20)
(-0.887585 0.314301 -1.64354e-20)
(-0.594745 -0.200165 0)
(-0.175889 0.215683 -1.25024e-20)
(-0.326941 -0.077076 -8.54334e-22)
(-0.785816 0.161077 5.21181e-21)
(-0.516886 0.466234 0)
(-0.693555 0.314486 -2.43414e-20)
(-0.760422 0.532102 6.74774e-21)
(-0.12097 0.0121492 -8.55221e-21)
(-0.751921 -0.0361667 0)
(-0.613261 -0.213783 0)
(-0.882097 0.325463 -1.49157e-20)
(-0.153884 0.192042 0)
(-0.574564 0.24923 -1.97557e-20)
(-0.418581 0.202097 -7.04402e-21)
(-0.472098 0.126902 2.03137e-20)
(-0.681204 0.390045 0)
(-0.577953 0.0586037 -4.23887e-22)
(-0.262211 0.114044 -7.88313e-21)
(-0.23148 0.267913 9.71527e-21)
(-0.887276 0.289311 0)
(-0.546516 -0.18564 -1.76702e-20)
(-0.714074 0.326493 1.9517e-20)
(-0.521698 0.0146795 1.83331e-20)
(-0.283385 0.177196 0)
(-0.0631333 0.0867604 0)
(-0.704129 -0.242323 6.81973e-21)
(-0.810159 0.380094 0)
(-0.489161 0.448623 0)
(-0.798643 0.171725 0)
(-0.345464 -0.0888535 0)
(-0.880836 0.317269 1.44227e-20)
(-0.58256 -0.183414 0)
(-0.189447 0.220197 -1.83616e-23)
(-0.782902 0.254357 4.82935e-21)
(-0.427119 -0.0571812 -5.87589e-21)
(-0.367355 0.314299 0)
(-0.734309 0.421222 0)
(-0.601156 0.0109414 7.31112e-21)
(-0.212457 0.10325 1.29645e-20)
(-0.491898 -0.175813 -2.18035e-20)
(-0.885995 0.246203 -1.05783e-20)
(-0.303421 0.339567 7.62978e-21)
(-0.845007 0.242284 0)
(-0.449603 -0.122663 -8.50884e-21)
(-0.352761 0.350159 -2.73354e-22)
(-0.0606918 0.089682 -1.24164e-20)
(-0.687738 -0.256141 0)
(-0.811757 0.364627 -5.44801e-21)
(-0.547012 0.422515 9.12097e-21)
(-0.303181 -0.00631135 -9.68177e-21)
(-0.710983 0.15267 9.60024e-22)
(-0.692682 0.405692 4.99012e-21)
(-0.0266052 0.0334386 -1.82514e-20)
(-0.760416 -0.220936 0)
(-0.45083 0.246274 -4.08467e-21)
(-0.595157 0.222433 -1.53812e-20)
(-0.424402 0.105531 2.04464e-20)
(-0.778635 0.285714 5.79771e-21)
(-0.769832 0.26554 2.79773e-23)
(-0.46041 -0.0466257 -1.41482e-20)
(-0.435487 -0.0419647 0)
(-0.360122 0.29629 7.2085e-21)
(-0.326292 0.269144 -7.49677e-21)
(-0.104429 0.0272832 -1.81553e-20)
(-0.773551 0.512382 7.01636e-21)
(-0.75127 -0.0594047 -1.32615e-20)
(-0.714984 0.423901 0)
(-0.608781 0.0334743 0)
(-0.222865 0.0926359 -1.70879e-20)
(-0.858001 0.255355 -2.75988e-21)
(-0.473166 -0.139851 0)
(-0.32479 0.332586 0)
(-0.804283 0.422571 -6.21172e-21)
(-0.634862 -0.0695256 0)
(-0.163253 0.117179 8.10696e-21)
(-0.508331 0.219774 4.20463e-21)
(-0.493274 0.177925 6.1347e-21)
(-0.45833 0.187707 -2.10119e-21)
(-0.81208 0.260449 -9.51087e-21)
(-0.447559 -0.0853941 0)
(-0.346357 0.317437 -1.26052e-20)
(-0.713866 0.439305 0)
(-0.62616 0.0340467 9.12616e-21)
(-0.211931 0.0771166 -1.1052e-20)
(-0.719398 0.348289 0)
(-0.738511 0.356919 1.9453e-21)
(-0.54986 0.435609 3.3091e-21)
(-0.298857 -0.0190037 2.81209e-20)
(-0.7232 0.150594 -2.31025e-20)
(-0.822613 0.276064 -9.77878e-21)
(-0.469545 -0.0961242 1.24096e-20)
(-0.31601 0.293943 1.15032e-20)
(-0.815409 0.418704 0)
(-0.155026 0.122684 -2.8539e-20)
(-0.641377 -0.0875867 -7.84516e-21)
(-0.509129 0.375748 -2.36527e-20)
(-0.332559 0.0054894 0)
(-0.699076 0.180391 7.30669e-21)
(-0.409585 0.391083 -1.46377e-20)
(-0.820014 0.215747 -7.52518e-21)
(-0.402945 -0.102592 0)
(-0.752482 0.468838 -6.21764e-21)
(-0.661077 -0.00481789 -8.09999e-21)
(-0.166811 0.062229 5.0756e-21)
(-0.521417 0.434069 1.2002e-21)
(-0.320933 -0.0412209 0)
(-0.750379 0.167411 1.58946e-20)
(-0.765055 0.476445 0)
(-0.776378 0.468066 0)
(-0.67438 -0.0195272 -5.28867e-21)
(-0.154812 0.0609453 -1.31947e-20)
(-0.67111 -0.0372458 7.48278e-21)
(-0.150052 0.0725977 1.40314e-20)
(-0.109487 0.126667 -1.08995e-20)
(-0.675734 -0.193471 0)
(-0.848932 0.382723 -7.10392e-21)
(-0.754089 0.437483 7.17921e-21)
(-0.623256 -0.00908574 0)
(-0.187927 0.0929724 4.47363e-21)
(-0.673933 -0.265422 1.32791e-20)
(-0.0191951 0.0351727 1.59566e-20)
(-0.661622 0.355456 1.26595e-20)
(-0.650412 0.226354 -7.06034e-21)
(-0.443612 0.279041 0)
(-0.401283 0.0606613 0)
(-0.771994 0.325811 1.30926e-20)
(-0.504403 -0.0324043 0)
(-0.282754 0.21688 2.47706e-20)
(-0.146915 0.143846 -8.88727e-21)
(-0.845312 0.387527 1.99716e-20)
(-0.641263 -0.142426 1.12239e-20)
(-0.361503 -0.078783 0)
(-0.793181 0.189696 6.84331e-21)
(-0.460721 0.421064 -1.76408e-20)
(-0.511254 -0.180472 -2.67917e-20)
(-0.8878 0.261103 -6.50902e-21)
(-0.27509 0.312154 0)
(-0.502428 0.0362043 -1.83183e-20)
(-0.310723 0.188274 0)
(-0.773946 0.36545 1.43744e-20)
(-0.546579 -0.0293335 6.72898e-21)
(-0.241531 0.169875 7.57121e-21)
(-0.485951 0.0279744 1.07863e-20)
(-0.323476 0.204487 8.14745e-23)
(-0.793519 0.472965 -4.77547e-22)
(-0.0903094 0.0535936 1.06723e-20)
(-0.743667 -0.109219 -8.02127e-21)
(-0.314752 -0.0877198 0)
(-0.79198 0.149782 1.67501e-21)
(-0.537702 0.488431 0)
(-0.788596 0.371185 -1.46455e-20)
(-0.560735 -0.0448128 -8.21864e-21)
(-0.227451 0.171554 -9.30419e-21)
(-0.735593 0.2805 0)
(-0.44454 -0.00733332 -1.1034e-20)
(-0.355758 0.262613 0)
(-0.746836 0.206746 0)
(-0.364083 -0.0325424 0)
(-0.456439 0.369066 0)
(-0.632446 0.31641 -5.54885e-21)
(-0.517234 0.0901968 -1.00187e-20)
(-0.335405 0.161751 4.45657e-23)
(-0.435398 0.409817 1.81774e-20)
(-0.811935 0.202412 1.8345e-20)
(-0.385454 -0.0954723 1.20877e-20)
(-0.86517 0.358013 -8.75625e-21)
(-0.63206 -0.179309 1.28002e-20)
(-0.146339 0.165244 -1.32067e-20)
(-0.520248 -0.170681 1.80934e-20)
(-0.881648 0.274748 6.59843e-21)
(-0.262927 0.294145 9.66719e-21)
(-0.670682 0.522958 -1.3267e-20)
(-0.21019 -0.0188231 1.49887e-20)
(-0.727291 0.0721871 -1.12713e-20)
(-0.77051 0.500847 3.80579e-21)
(-0.762989 0.498251 -3.44479e-21)
(-0.699722 -0.020424 -1.6868e-21)
(-0.713176 -0.0329878 0)
(-0.13124 0.0385769 -4.8667e-21)
(-0.142764 0.0398245 -4.27288e-21)
(-0.022612 0.0350528 -2.15936e-20)
(-0.70397 -0.251779 -1.46263e-20)
(-0.675515 0.367877 3.16033e-21)
(-0.707927 0.416841 -3.17199e-22)
(-0.0311946 0.0344313 2.52551e-20)
(-0.774204 -0.211362 0)
(-0.797893 0.293632 -2.13348e-20)
(-0.478736 -0.0615384 -3.20353e-21)
(-0.312246 0.266658 0)
(-0.121114 0.129103 -2.69751e-20)
(-0.846934 0.387733 7.06315e-21)
(-0.669405 -0.171084 0)
(-0.717854 0.502217 1.876e-20)
(-0.73373 0.498776 -1.40708e-20)
(-0.693137 0.0299269 8.65032e-21)
(-0.689753 0.0150874 3.31668e-21)
(-0.18091 0.0218786 -8.44281e-21)
(-0.168609 0.0319936 -4.23137e-21)
(-0.12909 0.178313 0)
(-0.61359 -0.245102 0)
(-0.884411 0.308 2.67799e-21)
(-0.648966 0.398611 -5.85987e-21)
(-0.0208021 0.0248158 0)
(-0.754814 -0.216913 0)
(-0.549699 0.184908 -6.17735e-23)
(-0.50349 0.258105 8.97418e-21)
(-0.410541 0.137134 4.53563e-21)
(-0.708584 0.385555 -1.04057e-20)
(-0.730748 -0.246156 6.69752e-21)
(-0.0291196 0.0425902 1.18233e-21)
(-0.644658 0.448666 0)
(-0.666571 0.0916888 -1.42542e-20)
(-0.242431 0.0302521 3.97953e-25)
(-0.860664 0.359521 8.33047e-23)
(-0.65673 -0.212447 1.85251e-20)
(-0.118073 0.14559 7.05566e-24)
(-0.592434 -0.287866 4.02222e-22)
(-0.0175878 0.035922 -9.1821e-21)
(-0.637986 0.289346 -4.99978e-21)
(-0.534687 0.359764 -8.54832e-21)
(-0.327159 0.0491214 8.4052e-21)
(-0.650077 0.165329 2.30411e-20)
(-0.621221 0.23985 0)
(-0.431688 0.0876729 -2.26618e-20)
(-0.426925 0.244422 1.1592e-20)
(-0.785547 0.424874 0)
(-0.0577922 0.0644725 1.26598e-20)
(-0.751635 -0.198862 8.0797e-24)
(-0.6396 0.242668 0)
(-0.421596 0.0726936 -8.0048e-21)
(-0.420323 0.256579 -1.63692e-20)
(-0.534781 0.18964 9.2158e-21)
(-0.496817 0.242021 -4.76977e-21)
(-0.428609 0.151225 2.38534e-21)
(-0.472323 0.454191 8.74717e-21)
(-0.821177 0.178278 -6.56323e-21)
(-0.364443 -0.111494 1.33601e-20)
(-0.615797 0.198857 0)
(-0.382073 0.0834317 0)
(-0.481245 0.29651 1.34219e-21)
(-0.641805 0.216748 1.11781e-20)
(-0.389589 0.0692224 6.18061e-21)
(-0.465136 0.294801 1.91146e-22)
(-0.65064 0.517333 2.01482e-20)
(-0.733917 0.0847221 -1.10776e-20)
(-0.226636 -0.0300035 -1.47919e-20)
(-0.0827755 0.0804283 1.91068e-20)
(-0.0844668 0.0875735 -1.93684e-20)
(-0.732189 -0.165204 5.47421e-21)
(-0.720687 -0.177608 3.79977e-21)
(-0.811021 0.434074 0)
(-0.818369 0.4233 -6.21738e-21)
(-0.870138 0.351856 1.07689e-20)
(-0.636892 -0.193827 -1.15118e-20)
(-0.137746 0.167198 1.63359e-20)
(-0.197407 -0.0278347 -9.60238e-21)
(-0.683777 0.541177 4.12861e-21)
(-0.739056 0.0619914 1.43757e-20)
(-0.565671 0.41629 -8.32963e-21)
(-0.292771 0.0113594 -8.82486e-21)
(-0.689864 0.142053 7.24857e-21)
(-0.854733 0.222732 0)
(-0.436838 -0.136857 8.80099e-21)
(-0.374213 0.380739 2.82899e-22)
(-0.614639 -0.296503 6.64522e-21)
(-0.0403606 0.0705016 -8.54033e-21)
(-0.752302 0.30003 -4.35555e-21)
(-0.183786 0.233569 0)
(-0.897143 0.294681 0)
(-0.579792 -0.220446 7.76839e-21)
(-0.789262 0.393581 5.33735e-21)
(-0.0553397 0.0735286 0)
(-0.727175 -0.232673 -6.69229e-21)
(-0.0121893 0.0266901 -3.39565e-32)
(-0.566763 -0.278269 -6.21099e-21)
(-0.586771 0.276355 5.05345e-21)
(-0.609201 -0.239363 6.9529e-21)
(-0.00982226 0.019844 3.38782e-32)
(-0.561789 0.319172 -4.49388e-21)
(-0.520687 -0.100947 -1.71097e-20)
(-0.833663 0.313258 0)
(-0.26602 0.246657 -2.48015e-20)
(-0.623755 -0.272385 -3.57491e-21)
(-0.0878206 0.133779 -8.71656e-21)
(-0.85628 0.307182 0)
(-0.836248 0.379943 -9.48009e-21)
(-0.608169 -0.114144 9.74319e-21)
(-0.17944 0.164594 1.2963e-20)
(-0.758903 0.474572 1.5919e-20)
(-0.0576814 0.0325755 7.73946e-21)
(-0.79849 -0.138163 0)
(-0.675936 0.32414 4.28394e-21)
(-0.316562 0.178151 -4.73932e-21)
(-0.508891 0.0532136 4.40859e-21)
(-0.604418 -0.23796 4.01766e-21)
(-0.146009 0.196603 9.19201e-21)
(-0.889742 0.304067 2.95365e-21)
(-0.843741 0.214094 -7.43859e-21)
(-0.396326 0.397172 -5.00889e-21)
(-0.41955 -0.12619 0)
(-0.486467 -0.136789 0)
(-0.856017 0.268751 0)
(-0.302483 0.311519 0)
(-0.00243428 0.00562514 0)
(-0.363437 -0.162702 -5.20214e-21)
(-0.337046 0.165458 3.67241e-21)
(-0.657222 -0.281234 6.62668e-21)
(-0.0226067 0.0417625 -1.10907e-20)
(-0.682383 0.340407 -5.31402e-21)
(-0.654603 0.310756 -1.10124e-20)
(-0.33595 0.180982 1.11432e-20)
(-0.500665 0.0695494 5.08854e-21)
(-0.638076 -0.235271 1.65245e-20)
(-0.872361 0.33404 -5.85479e-21)
(-0.11368 0.155786 0)
(-0.119934 0.173041 -9.6605e-21)
(-0.884126 0.301045 0)
(-0.60909 -0.259129 -1.2359e-20)
(-0.836198 0.408684 -6.46201e-21)
(-0.110855 0.112318 2.8944e-20)
(-0.685418 -0.159081 0)
(-0.104818 0.0491068 -2.1936e-20)
(-0.731728 -0.0782044 8.38028e-21)
(-0.787868 0.488276 0)
(-0.634927 0.530293 -2.53716e-20)
(-0.753853 0.0939309 1.41149e-20)
(-0.241245 -0.0492675 -4.70596e-21)
(-0.706891 -0.00281672 2.51961e-21)
(-0.747136 0.513284 8.14294e-21)
(-0.152234 0.0250165 -1.33442e-20)
(-0.0853571 0.0307027 -1.97062e-20)
(-0.775274 0.500166 0)
(-0.770375 -0.0909871 0)
(-0.669802 0.429582 -3.98009e-21)
(-0.691467 0.443249 0)
(-0.629193 0.0722946 -1.48463e-20)
(-0.63681 0.0561061 1.58708e-20)
(-0.238342 0.0660639 2.24417e-21)
(-0.221204 0.0627985 -2.39276e-21)
(-0.648269 0.43207 3.81897e-21)
(-0.644488 0.0890842 0)
(-0.248513 0.0509349 4.31496e-21)
(-0.707414 0.516587 0)
(-0.708475 0.0389358 -1.39752e-20)
(-0.183666 0.00659332 3.04605e-21)
(-0.510766 -0.155452 -8.94875e-21)
(-0.871381 0.27659 6.78492e-21)
(-0.273003 0.291794 -1.99043e-20)
(-0.624404 -0.209999 0)
(-0.874558 0.338721 1.63088e-20)
(-0.140317 0.177437 0)
(-0.236667 0.252823 -6.42337e-21)
(-0.869577 0.302896 -4.33393e-21)
(-0.544325 -0.156115 -5.85648e-21)
(-0.648914 -0.238611 -9.54919e-22)
(-0.0117627 0.0218221 5.91936e-21)
(-0.590996 0.342252 0)
(-0.580706 0.364433 7.67873e-21)
(-0.590344 0.354077 0)
(-0.309424 0.0789202 0)
(-0.611913 0.135555 2.82788e-20)
(-0.314462 0.0968232 0)
(-0.591449 0.126291 -1.79507e-20)
(-0.679011 0.497278 0)
(-0.65604 0.483847 0)
(-0.226222 0.00756887 3.28748e-23)
(-0.697921 0.0656475 8.65227e-21)
(-0.210336 0.0103003 2.22323e-20)
(-0.694981 0.0805826 -1.82487e-20)
(-0.569486 -0.297388 0)
(-0.0219391 0.0440547 1.2486e-20)
(-0.665428 0.277593 0)
(-0.640437 -0.226389 -9.72143e-21)
(-0.872437 0.341118 1.79095e-21)
(-0.118741 0.154612 5.81013e-21)
(-0.573353 0.453094 -1.43802e-20)
(-0.285016 -0.0239962 -1.01533e-20)
(-0.726546 0.136398 2.40071e-20)
(-0.474427 -0.159216 1.93865e-20)
(-0.873925 0.242093 1.77097e-20)
(-0.323807 0.349774 0)
(-0.11133 0.0435886 2.34567e-20)
(-0.728895 -0.0656079 -8.91656e-21)
(-0.783135 0.494935 8.90255e-21)
(-0.687596 -0.271981 0)
(-0.760291 0.358311 0)
(-0.0393939 0.063982 0)
(-0.680138 -0.268775 0)
(-0.786209 0.352418 4.89217e-21)
(-0.0506584 0.0794774 2.11224e-21)
(-0.737714 0.482336 -7.778e-21)
(-0.670709 0.00931884 5.03628e-21)
(-0.172581 0.0485899 6.26303e-21)
(-0.493419 0.358601 -2.24761e-21)
(-0.346547 0.0152947 0)
(-0.691731 0.192953 -9.55713e-23)
(-0.830013 0.410219 7.5295e-21)
(-0.0984365 0.102546 1.69048e-20)
(-0.702712 -0.171599 -4.42612e-21)
(-0.52307 -0.119596 0)
(-0.846254 0.30792 0)
(-0.260404 0.258053 2.13719e-20)
(-0.1355 0.107546 5.4513e-21)
(-0.666431 -0.101906 1.34474e-20)
(-0.816768 0.431243 1.98906e-20)
(-0.639329 0.484106 0)
(-0.23758 -0.00366811 -1.4836e-20)
(-0.705118 0.0920293 9.3044e-21)
(-0.771895 0.239227 1.00272e-22)
(-0.406 -0.0474214 8.62531e-21)
(-0.399521 0.3354 0)
(-0.546857 0.391559 1.3607e-22)
(-0.309144 0.0211464 -2.8787e-21)
(-0.679954 0.1553 -9.49946e-21)
(-0.0972042 0.110537 4.18572e-24)
(-0.695565 -0.192431 1.05106e-20)
(-0.836259 0.394118 8.3902e-21)
(-0.795938 0.443077 -3.65662e-21)
(-0.655978 -0.0626276 -3.9435e-21)
(-0.151898 0.0973448 0)
(-0.544246 0.35025 -8.32773e-21)
(-0.329857 0.0676265 1.80514e-20)
(-0.628295 0.159649 -1.51843e-20)
(-0.767886 0.496299 6.23439e-21)
(-0.0733792 0.0272984 8.78929e-21)
(-0.786944 -0.107046 -6.36098e-21)
(-0.641627 0.393395 -4.83078e-21)
(-0.602648 0.0887667 0)
(-0.269353 0.0852145 0)
(-0.687652 0.263472 -2.00052e-20)
(-0.431113 0.0348204 4.97952e-21)
(-0.388458 0.259291 0)
(-0.487235 -0.116947 0)
(-0.842619 0.277504 1.39803e-20)
(-0.299664 0.296425 0)
(-0.732274 0.440164 -3.46747e-21)
(-0.040113 0.035444 -2.71597e-21)
(-0.794712 -0.185652 7.33391e-21)
(-0.733292 0.453606 9.58156e-21)
(-0.0423085 0.031634 0)
(-0.803164 -0.168533 -6.98742e-21)
(-0.126386 0.0921587 4.99395e-21)
(-0.682372 -0.0963161 -8.01409e-21)
(-0.810067 0.444602 -1.82598e-20)
(-0.787378 0.22369 -6.59116e-21)
(-0.39804 -0.0672282 -8.6486e-21)
(-0.413997 0.361286 0)
(-0.030744 0.0286828 2.48825e-21)
(-0.793619 -0.198146 -6.85619e-21)
(-0.697662 0.42774 0)
(-0.16633 0.161735 0)
(-0.619896 -0.133489 -8.23027e-21)
(-0.845237 0.3761 -2.28743e-21)
(-0.0088368 0.0204503 9.97564e-21)
(-0.487644 -0.267934 6.96672e-21)
(-0.522646 0.225613 0)
(-0.477061 0.293285 -5.08193e-21)
(-0.558059 -0.203979 0)
(-0.00614147 0.011782 9.99851e-21)
(-0.0918046 0.0423327 1.86808e-23)
(-0.753139 -0.0935824 0)
(-0.783362 0.490726 0)
(-0.0772292 0.101768 0)
(-0.696457 -0.226722 0)
(-0.829457 0.381016 1.11935e-20)
(-0.810763 0.441932 -6.61931e-21)
(-0.815696 0.440236 5.35508e-21)
(-0.0907955 0.076699 -9.57917e-21)
(-0.727543 -0.140922 -1.79311e-21)
(-0.102504 0.0853015 -1.55036e-20)
(-0.708436 -0.130245 3.2244e-21)
(-0.853494 0.360543 4.42226e-21)
(-0.60546 -0.142132 5.42811e-21)
(-0.177037 0.179379 0)
(-0.357153 0.382834 0)
(-0.450559 -0.157163 0)
(-0.8716 0.224884 0)
(-0.588466 0.323131 0)
(-0.339185 0.126537 -2.45542e-20)
(-0.557327 0.125886 9.88871e-21)
(-0.858496 0.328541 1.26445e-20)
(-0.56495 -0.142099 1.99319e-21)
(-0.214827 0.221586 1.89648e-20)
(-0.235053 0.24109 1.23271e-20)
(-0.858592 0.316015 -1.75837e-20)
(-0.547144 -0.140098 -2.76639e-21)
(-0.769211 0.516802 7.0726e-21)
(-0.092196 0.0206275 9.43338e-21)
(-0.77144 -0.0709679 1.38518e-20)
(-0.683972 0.510038 0)
(-0.709319 0.0607964 4.15105e-21)
(-0.20224 0.000809074 -2.17902e-20)
(-0.661534 0.463262 0)
(-0.6741 0.0797883 1.87224e-20)
(-0.229019 0.0247134 3.00325e-23)
(-0.823194 0.34165 -1.63879e-20)
(-0.547805 -0.0899912 2.39966e-21)
(-0.236859 0.209172 -1.076e-20)
(-0.833924 0.332635 0)
(-0.543847 -0.103386 2.2533e-21)
(-0.240034 0.221062 9.89832e-21)
(-0.528887 0.329235 0)
(-0.348342 0.0801927 -2.85022e-20)
(-0.616199 0.16936 8.51747e-21)
(-0.693876 0.457079 0)
(-0.650364 0.0513265 0)
(-0.211162 0.0491134 3.25991e-21)
(-0.16037 0.217137 -1.99001e-20)
(-0.587077 -0.240809 -2.19099e-20)
(-0.899252 0.29191 0)
(-0.799461 0.333192 6.63095e-21)
(-0.0540311 0.0874135 0)
(-0.651351 -0.281034 4.78718e-21)
(-0.787448 0.310341 -1.37617e-22)
(-0.0506159 0.0849332 0)
(-0.629511 -0.288996 -1.37491e-20)
(-0.601922 0.413781 5.75276e-21)
(-0.276453 0.0420801 -3.13858e-21)
(-0.653245 0.119568 -1.29513e-22)
(-0.661992 -0.28158 1.92137e-22)
(-0.0318607 0.0555144 1.6962e-20)
(-0.732311 0.338367 0)
(-0.800483 0.453257 1.57134e-20)
(-0.134035 0.0864337 1.04869e-20)
(-0.678396 -0.0758883 0)
(-0.0321271 0.0584825 -2.51691e-21)
(-0.62201 -0.295764 -7.45378e-21)
(-0.724885 0.307189 0)
(-0.60867 0.260991 1.37175e-20)
(-0.404581 0.21296 1.47339e-20)
(-0.462523 0.103993 7.36449e-23)
(-0.744347 0.376085 -2.4265e-21)
(-0.555072 0.00198233 -2.44398e-21)
(-0.248096 0.152065 -1.1122e-20)
(-0.376363 -0.0581643 1.9687e-20)
(-0.774757 0.209714 1.54877e-20)
(-0.442439 0.378343 0)
(-0.0990394 0.144962 0)
(-0.627465 -0.261461 -4.47369e-21)
(-0.866431 0.315177 0)
(-0.509435 -0.126276 0)
(-0.85009 0.294638 0)
(-0.274279 0.274519 0)
(-0.0686941 0.0367794 0)
(-0.772368 0.480189 -5.82749e-21)
(-0.78435 -0.123952 6.23368e-21)
(-0.763932 0.381543 0)
(-0.562149 -0.0184931 1.21055e-21)
(-0.234523 0.154839 1.08814e-20)
(-0.577958 0.308643 0)
(-0.356348 0.137391 2.10677e-20)
(-0.546277 0.132199 0)
(-0.648349 -0.247831 -1.56367e-20)
(-0.85803 0.337713 5.56137e-21)
(-0.0974216 0.137167 0)
(-0.143946 0.131411 -1.14477e-20)
(-0.648786 -0.128185 5.23797e-22)
(-0.833943 0.403175 1.97613e-22)
(-0.759718 0.422798 0)
(-0.746542 0.416158 6.45935e-21)
(-0.0460549 0.0513127 -6.23326e-21)
(-0.0405867 0.0489196 -7.67008e-21)
(-0.765961 -0.203721 -4.50144e-21)
(-0.762142 -0.216247 3.70116e-21)
(-0.761471 0.296927 0)
(-0.466116 -0.0294526 3.30319e-20)
(-0.325514 0.252435 1.17329e-20)
(-0.500539 -0.0843827 2.40057e-20)
(-0.819262 0.303922 0)
(-0.28163 0.254961 -1.29862e-20)
(-0.664456 0.281248 -1.12865e-20)
(-0.459375 0.0555887 8.49998e-21)
(-0.364838 0.221817 1.80926e-20)
(-0.650456 -0.273988 1.0427e-20)
(-0.828882 0.331695 7.13699e-21)
(-0.633274 -0.279187 -4.97682e-21)
(-0.0682125 0.105744 0)
(-0.835917 0.315211 -6.89232e-21)
(-0.0733717 0.113726 0)
(-0.798849 0.393121 0)
(-0.589549 -0.0607276 0)
(-0.201483 0.15183 1.2176e-20)
(-0.846631 0.348912 9.84513e-21)
(-0.833452 0.345245 -1.83637e-20)
(-0.664769 -0.247605 6.84036e-21)
(-0.666842 -0.259913 -1.71323e-20)
(-0.0842024 0.120219 1.70865e-20)
(-0.0721993 0.106862 4.89762e-25)
(-0.811979 0.293568 0)
(-0.480639 -0.0808655 -2.21046e-20)
(-0.307588 0.278776 1.68499e-20)
(-0.731537 0.325856 1.05833e-20)
(-0.511859 -0.00264474 -1.47084e-20)
(-0.282606 0.19206 0)
(-0.759088 0.462217 0)
(-0.0532576 0.0383676 0)
(-0.792429 -0.156966 6.71273e-21)
(-0.760006 0.312204 7.77568e-21)
(-0.483872 -0.0229627 -9.17772e-21)
(-0.307052 0.23211 -1.95077e-20)
(-0.689092 0.295897 4.54207e-21)
(-0.469945 0.0360038 -9.96517e-21)
(-0.344579 0.216987 1.06155e-20)
(-0.750683 0.434665 0)
(-0.0465953 0.0445688 0)
(-0.782008 -0.190458 -9.24658e-21)
(-0.762588 0.398307 0)
(-0.585208 -0.0165592 2.60438e-21)
(-0.213594 0.133026 -1.21093e-20)
(-0.406002 -0.132108 0)
(-0.846098 0.20241 0)
(-0.417972 0.423123 -6.46003e-22)
(-0.635077 0.497252 -6.47889e-22)
(-0.721323 0.0959061 0)
(-0.238215 -0.0189386 2.30806e-20)
(-0.527275 -0.199748 1.05052e-20)
(-0.250891 0.301755 0)
(-0.89875 0.262825 0)
(-0.0051981 0.0116947 -2.40155e-20)
(-0.471809 -0.211262 7.28156e-21)
(-0.446153 0.225228 -5.1406e-21)
(-0.763805 0.34512 0)
(-0.520023 -0.0189957 9.03612e-21)
(-0.269396 0.192675 -9.99553e-21)
(-0.788117 0.452859 1.09485e-20)
(-0.0679174 0.0572121 3.24172e-20)
(-0.762134 -0.153118 0)
(-0.276619 -0.0684218 -6.1751e-21)
(-0.77331 0.122484 -9.18279e-21)
(-0.586707 0.512424 -5.78831e-21)
(-0.576023 0.359516 0)
(-0.0121698 0.0183166 -9.0103e-21)
(-0.687817 -0.223527 0)
(-0.45185 0.317114 1.1201e-20)
(-0.45954 0.338476 -1.1474e-20)
(-0.3762 0.02507 0)
(-0.686432 0.216831 9.70046e-21)
(-0.367258 0.00714256 -1.84484e-20)
(-0.705427 0.208541 -7.80801e-21)
(-0.661304 0.263747 1.06148e-20)
(-0.43808 0.0583352 1.12354e-20)
(-0.391566 0.243596 0)
(-0.507617 0.348101 9.85454e-21)
(-0.480384 0.327748 0)
(-0.342635 0.0398064 -1.02104e-20)
(-0.663331 0.182233 8.70795e-21)
(-0.360748 0.0432045 1.02861e-20)
(-0.663048 0.198816 7.36028e-23)
(-0.747997 0.341321 6.71481e-22)
(-0.491722 0.00572347 -6.38449e-21)
(-0.307945 0.20973 -1.31156e-20)
(-0.736681 0.314067 -1.81816e-20)
(-0.481554 -0.00130799 1.69454e-22)
(-0.318563 0.225391 0)
(-0.0610786 0.100912 0)
(-0.615987 -0.292039 0)
(-0.81428 0.301322 7.39149e-21)
(-0.626967 0.415027 -5.30413e-21)
(-0.638789 0.104509 0)
(-0.265302 0.05487 5.8167e-21)
(-0.844018 0.366245 -1.78082e-20)
(-0.676645 -0.230775 7.86124e-21)
(-0.0871066 0.118086 -9.75241e-21)
(-0.824118 0.359761 0)
(-0.834819 0.363946 9.12528e-21)
(-0.570891 -0.0920156 -2.98951e-21)
(-0.5863 -0.107375 9.59103e-21)
(-0.212507 0.187649 -1.34437e-20)
(-0.197832 0.182207 -1.25204e-20)
(-0.624535 0.395275 0)
(-0.61782 0.103486 0)
(-0.27634 0.0730439 2.73092e-21)
(-0.708778 0.486179 6.26423e-21)
(-0.677579 0.0398375 0)
(-0.193337 0.0319311 7.26401e-21)
(-0.797623 0.361153 -4.69536e-21)
(-0.551685 -0.0598807 0)
(-0.231554 0.18638 0)
(-0.533804 0.272215 1.0815e-20)
(-0.540921 0.162604 -5.30354e-21)
(-0.392698 0.143014 5.66188e-21)
(-0.846519 0.340106 0)
(-0.566034 -0.123535 0)
(-0.2159 0.211077 -2.01631e-20)
(-0.570534 0.330434 0)
(-0.335756 0.106989 3.11905e-21)
(-0.58054 0.139768 0)
(-0.805029 0.313585 -1.05018e-20)
(-0.499383 -0.0701777 -1.23122e-20)
(-0.286803 0.245343 -1.68116e-21)
(-0.712727 0.467798 6.32034e-21)
(-0.658603 0.0344249 0)
(-0.196309 0.0480261 1.49261e-20)
(-0.543569 0.292581 -1.07243e-20)
(-0.529627 0.29747 -4.80342e-21)
(-0.555955 0.154781 5.19255e-21)
(-0.372908 0.129677 -1.11821e-20)
(-0.577762 0.165009 0)
(-0.369209 0.113002 -1.99862e-20)
(-0.503265 0.31425 -4.88758e-21)
(-0.361824 0.0725675 1.3317e-20)
(-0.48386 0.317105 3.14801e-21)
(-0.624862 0.184454 -1.1759e-20)
(-0.369905 0.0552176 -6.38279e-21)
(-0.650362 0.200445 2.14884e-22)
(-0.667314 0.411951 5.7285e-21)
(-0.690625 0.409595 0)
(-0.609068 0.0707969 1.09846e-20)
(-0.598329 0.0540816 -8.57213e-21)
(-0.248517 0.0830405 -1.29485e-20)
(-0.242253 0.0967461 2.15482e-20)
(-0.112013 0.0637017 0)
(-0.712633 -0.0823295 -4.92933e-21)
(-0.795253 0.472115 -9.42743e-21)
(-0.442142 0.429074 7.82264e-21)
(-0.827155 0.194668 1.03529e-20)
(-0.38662 -0.113762 -2.09925e-20)
(-0.10288 0.0663711 -1.0921e-20)
(-0.108741 0.0794941 8.72434e-21)
(-0.720172 -0.102528 4.26087e-21)
(-0.704814 -0.110919 7.32174e-21)
(-0.799998 0.466307 2.41204e-20)
(-0.809584 0.451817 -1.25556e-20)
(-0.529558 0.455178 1.06082e-20)
(-0.315778 -0.0552934 -9.73468e-21)
(-0.763283 0.158393 2.29549e-21)
(-0.522697 0.237606 1.81973e-20)
(-0.43337 0.175677 0)
(-0.504742 0.169438 -1.81537e-20)
(-0.845609 0.354115 -4.38503e-21)
(-0.585232 -0.124895 -1.08284e-20)
(-0.197824 0.192481 0)
(-0.596635 0.380596 0)
(-0.292395 0.067143 -2.6034e-21)
(-0.6222 0.12397 -9.18477e-21)
(-0.725316 0.467012 0)
(-0.655331 0.02326 0)
(-0.188486 0.055779 -1.39091e-20)
(-0.780278 0.488811 -1.0146e-20)
(-0.784601 0.475176 0)
(-0.707892 -0.0508828 2.58869e-21)
(-0.126573 0.0518413 -1.33104e-20)
(-0.691466 -0.0519194 -7.06332e-21)
(-0.133737 0.0651073 1.80036e-20)
(-0.812942 0.385458 8.88576e-21)
(-0.593735 -0.0779793 1.00392e-20)