/*--------------------------------*- C++ -*----------------------------------*\
  =========                 |
  \\      /  F ield         | OpenFOAM: The Open Source CFD Toolbox
   \\    /   O peration     | Website:  https://openfoam.org
    \\  /    A nd           | Version:  6
     \\/     M anipulation  |
\*---------------------------------------------------------------------------*/
FoamFile
{
    version     2.0;
    format      ascii;
    class       volScalarField;
    location    "0";
    object      P_rec;
}
// * * * * * * * * * * * * * * * * * * * * * * * * * * * * * * * * * * * * * //

dimensions      [0 2 -2 0 0 0 0];

internalField   nonuniform List<scalar> 
918
(
3.80349
2.91612
0.376941
3.91793
0.0351881
2.36114
0.285719
2.56142
4.01878
0.932334
0.59202
3.12485
1.18482
1.19296
0.887534
0.263837
2.97531
-0.0497922
3.27276
0.269967
-0.331979
3.9239
3.6662
3.28221
3.0642
0.703175
1.48544
-0.14487
-0.213393
-0.137556
0.0680892
0.315705
0.203001
1.58625
2.2481
2.63355
3.16841
2.11671
0.573858
0.599349
0.398066
0.0268992
2.6339
2.6941
1.69339
2.48332
2.35948
3.25795
3.91486
4.03614
3.70602
3.90005
4.02617
1.20449
0.853249
0.729514
0.96133
0.849258
0.665617
0.614365
0.657199
0.624347
0.599182
2.99171
3.11471
3.12638
3.13859
3.09941
2.7883
2.98043
3.22476
1.14452
1.90603
1.32991
1.59449
1.31274
1.39217
1.27673
1.21979
0.801531
0.149624
1.25568
1.27872
-0.0107374
0.27284
0.334882
2.9838
3.00706
2.93501
2.92652
1.89004
0.137009
-0.144079
3.3359
3.3193
3.95051
3.74332
3.44936
3.25547
0.264699
0.302378
0.109591
0.299029
0.230406
0.798017
1.298
3.19501
3.27921
3.06604
3.07974
3.06853
2.64363
3.14946
3.0918
1.26777
1.24422
0.916707
1.08367
1.52191
1.47423
1.65938
1.64115
-0.190027
-0.000195647
0.295849
0.194342
0.265493
3.15658
3.12502
3.21234
3.18955
3.2113
1.95895
1.88752
2.21679
2.32349
0.987022
1.00657
0.0613331
0.143323
-0.15574
2.45114
2.7464
2.7936
1.3513
1.67247
1.37437
1.85481
1.87605
3.2129
3.2321
3.21432
3.28684
3.30177
3.30491
3.93371
3.9087
4.07588
1.20818
1.30086
1.20287
1.10793
0.437319
0.538699
0.422608
0.786943
0.85074
0.685781
0.788069
0.706696
0.594699
0.823045
0.721891
0.771466
0.52519
0.427193
2.98898
2.9426
3.00565
3.03691
3.15668
3.13537
3.15408
3.15589
1.76721
1.79099
1.67159
1.61301
-0.476048
-2.42277
1.39047
1.38753
0.0218299
-0.0465316
-0.0134886
-0.247657
-0.0373168
-0.113584
0.480075
0.373549
0.379428
0.407667
3.03526
3.08038
1.93903
2.00744
1.73092
1.69205
3.27287
3.31668
3.31981
3.31946
0.368754
0.357334
0.385154
2.22694
1.77111
1.99192
2.58731
2.43008
2.70986
2.78808
3.07477
3.07697
3.09532
1.25599
1.27212
1.98383
1.35686
1.80426
1.31912
1.6412
2.1952
1.27895
3.05597
3.10782
3.09752
3.22071
3.23773
3.24043
3.17957
3.18556
3.18362
1.68827
1.50352
2.41483
2.39261
2.38112
2.45439
2.43427
2.42115
2.88865
2.80724
2.85143
2.13606
2.11219
0.992162
0.962078
2.85319
2.88976
2.86809
1.57054
1.46744
1.55714
1.53356
1.47922
1.58072
1.40168
0.384335
0.944466
1.32151
1.37661
1.29385
0.463539
0.589274
0.521922
1.9704
2.05984
1.36537
1.58793
1.51279
0.942268
1.1769
1.4081
1.12427
1.3504
1.44263
1.32174
2.35879
2.32645
2.38722
2.32332
2.35608
2.3636
2.21164
2.19782
0.883202
0.921808
0.900113
2.06544
2.23117
2.17196
3.24114
3.22552
-0.134531
0.0642063
3.59486
3.66901
-0.203421
0.03166
1.39988
1.51366
2.23585
3.31842
3.17365
3.45959
0.788054
0.992016
0.490771
0.457339
0.199363
3.03388
2.91981
2.83114
-0.122109
0.160479
0.105887
0.518552
3.42604
3.352
3.40858
3.46546
3.51051
0.106677
0.0501045
0.141236
0.13008
0.271025
0.334868
3.17625
3.13757
0.884112
3.39163
3.48047
3.4849
3.4429
3.47671
3.4173
0.166282
0.225429
0.30092
2.48415
2.64741
1.23353
0.602317
1.5796
1.39823
1.38658
1.40316
1.13094
1.33496
1.02008
2.72111
2.52425
2.36794
2.01574
2.37736
2.37931
3.32314
3.36303
3.24076
3.28849
3.4242
3.20682
3.48436
3.34544
3.33347
3.50528
0.892299
1.04512
1.02375
0.761959
1.20559
1.36299
1.1177
1.21245
0.815092
0.446263
0.607639
0.525648
0.647293
0.474832
0.646689
0.549202
0.802495
0.406983
0.665868
0.377097
0.91327
0.546529
3.00936
3.10468
3.03961
3.15326
2.9967
3.10244
3.01006
2.98977
3.05755
2.84802
2.90027
2.9176
0.155023
0.195189
0.250802
0.223782
0.390201
0.159173
0.212144
0.186544
0.16092
0.0730698
0.140696
0.280836
0.785838
0.52951
1.81349
1.55511
1.18513
3.22011
3.42042
3.31727
3.43315
3.47933
3.58968
3.46494
3.3803
3.17883
3.25841
3.15927
3.2063
1.09348
0.995108
1.25063
1.32377
2.07296
3.03138
2.79341
2.68941
2.7049
2.82521
2.46449
2.08917
-0.0805712
-0.791509
1.5049
1.31184
1.37764
1.74654
1.81014
1.28854
1.18886
1.27009
1.28643
1.47052
1.6893
2.59138
1.70625
1.65639
2.10896
2.02832
1.59458
2.77059
2.79729
2.46271
2.33181
2.67146
2.60323
2.63301
2.64736
2.66392
2.71031
2.55372
2.55303
2.44488
2.88617
2.72903
2.74542
2.63029
3.34459
3.38174
3.29713
3.21383
3.38291
3.2392
3.20889
3.12705
3.17663
3.31945
3.28937
3.2147
1.03619
0.899311
1.07385
0.753281
1.0268
0.823489
1.04155
1.10871
0.894217
1.11574
1.45942
1.12874
0.961903
1.19364
1.00804
1.3541
1.20673
1.19969
0.896473
1.11004
1.14594
1.1027
0.997237
0.569052
0.658807
0.994892
0.60927
0.803787
0.852508
0.993847
0.588026
0.814961
0.652138
0.501161
0.702654
1.01579
0.756797
0.823001
0.30193
0.2601
0.0447335
0.189564
0.816475
0.566218
3.21745
3.13427
3.14842
3.08814
3.19497
3.12255
2.96393
3.17228
3.29443
3.18208
3.03573
3.0019
2.89473
3.01414
3.03572
3.03273
3.23917
3.20545
3.07257
3.14139
3.01539
3.04528
2.8451
2.95191
3.01619
0.00281094
0.322734
0.203484
0.185221
0.225805
0.374719
0.709437
0.339861
0.643599
0.535166
0.477115
0.369518
0.413867
1.14414
1.30282
1.13992
0.790482
0.678
1.88845
1.95527
1.80741
1.69093
1.85846
1.84264
1.94602
1.57586
1.46173
1.60433
2.22003
2.20867
3.34177
3.28509
3.34446
3.4307
3.34909
1.52378
1.83424
1.91778
2.27205
2.18539
2.23822
1.85104
1.85924
1.92026
2.01961
2.96027
2.99273
3.01483
3.08308
3.08269
2.6993
2.85969
2.83023
2.98468
2.89052
2.88101
3.00888
2.92311
2.82574
2.89442
2.90184
2.93645
2.92042
2.85321
2.9244
3.0477
3.00189
2.98053
3.00541
3.1524
2.91311
3.05242
3.19205
3.0882
2.87643
2.88924
2.93187
2.92918
2.9421
2.94979
2.89035
2.34959
2.48231
2.06488
2.06194
2.05851
1.81826
1.80822
1.97991
1.97094
1.70172
1.61902
1.20692
2.3551
2.06662
1.9053
1.08065
2.2681
2.44083
2.36058
2.00743
1.99588
2.835
2.84394
2.88117
2.64421
2.56645
2.57221
2.52855
2.68323
2.46151
2.20682
2.50915
2.29577
2.38085
2.54948
2.47175
2.4663
2.55735
2.70226
2.60124
2.56573
2.69449
2.60107
2.69881
2.74195
2.78614
2.90016
2.75091
2.55584
2.72235
2.63495
2.69429
2.76385
2.73123
3.26922
3.22516
3.27508
3.25122
3.17389
3.23785
3.11775
3.28315
3.31642
3.36571
3.34005
0.584313
0.752258
0.98447
0.7463
0.930087
0.946166
1.06729
1.06118
1.10446
1.14732
0.933327
1.04281
1.12301
0.879754
1.14638
1.134
0.944567
0.932534
1.48792
1.54389
1.47584
1.4875
1.43586
1.32542
1.48342
0.749194
1.02725
0.825428
0.813923
0.8155
0.542088
0.788871
0.495865
0.701357
0.488971
0.0279439
0.419757
0.566756
0.251239
0.376885
0.415133
3.11383
3.15094
3.10706
3.05272
3.05926
3.07947
3.15437
3.25693
3.2327
3.21522
3.2477
3.15963
3.18118
0.409298
0.77625
0.866208
0.511437
0.546672
0.22494
0.115815
1.90579
1.59169
1.62822
1.32757
1.16404
1.27603
2.0785
2.18267
2.20953
2.34719
2.24337
2.15888
2.25311
2.41074
2.07168
2.07879
2.03136
1.97562
2.09111
2.12538
2.07805
2.04432
2.14667
2.45035
1.95416
1.91693
2.02155
2.27942
2.23772
2.19146
2.31776
2.28141
2.22304
2.16853
1.95142
2.34634
2.18517
2.37872
2.388
1.79204
2.17308
2.08909
2.90717
2.93164
2.97077
2.94676
2.95524
3.03025
2.96429
3.04842
3.14345
3.14429
1.22175
1.24451
0.986676
1.902
2.07238
2.5305
2.03931
3.0845
2.85955
2.52079
2.56
2.64367
2.59236
2.67504
2.63591
2.52232
2.62867
2.49726
2.59259
2.44419
2.38451
2.79156
2.75517
2.7896
2.80079
2.75119
2.82013
3.00993
3.15804
3.07935
3.18172
3.24761
3.30729
1.16449
0.908726
1.08623
1.13473
1.07854
0.913148
0.30215
0.35579
0.865063
0.757521
0.525408
0.722692
1.67133
1.69463
1.36707
1.63723
1.63554
1.22315
1.38958
1.24269
1.3795
1.69915
2.0793
2.02214
2.1149
2.13567
1.98374
2.18702
2.23057
2.32775
2.32081
2.15536
2.10854
2.08857
1.4404
1.87285
3.12856
3.3145
2.68744
2.41038
2.05215
2.35728
2.71404
2.58738
2.58133
2.7031
2.59558
1.88108
2.02686
1.83965
1.69607
2.38583
2.03682
2.11779
1.96004
2.14296
)
;

boundaryField
{
    wall-4
    {
        type            calculated;
        value           nonuniform List<scalar> 
100
(
3.80349
2.91612
0.376941
3.91793
2.36114
0.285719
2.56142
0.932334
0.59202
3.12485
1.18482
1.19296
0.887534
2.97531
-0.0497922
3.27276
0.269967
-0.331979
3.28221
3.0642
0.703175
1.48544
-0.14487
1.58625
3.16841
0.599349
0.0268992
2.6941
1.69339
2.35948
3.25795
0.729514
0.849258
0.657199
0.599182
2.99171
3.12638
3.09941
1.90603
1.59449
1.39217
1.21979
0.149624
1.27872
3.00706
2.92652
-0.144079
3.3193
3.25547
0.302378
0.230406
1.298
3.27921
3.06853
2.64363
3.0918
1.26777
1.08367
1.47423
1.64115
3.12502
3.21234
3.2113
1.00657
-0.15574
2.7936
1.37437
1.87605
3.21432
3.30491
0.422608
0.85074
0.771466
0.427193
2.9426
3.03691
3.15668
3.15589
1.61301
1.38753
3.08038
3.27287
3.31946
0.385154
1.99192
2.43008
2.78808
3.09532
1.27212
1.31912
3.09752
3.24043
3.18362
2.85143
2.11219
2.86809
1.53356
1.29385
1.3504
2.19782
)
;
    }
    velocity-inlet-5
    {
        type            calculated;
        value           nonuniform List<scalar> 8(3.80349 3.91793 4.01878 3.9239 4.03614 4.02617 3.95051 4.07588);
    }
    velocity-inlet-6
    {
        type            calculated;
        value           nonuniform List<scalar> 4(2.91612 2.36114 2.63355 3.22476);
    }
    pressure-outlet-7
    {
        type            calculated;
        value           uniform 0;
    }
    wall-8
    {
        type            calculated;
        value           nonuniform List<scalar> 
34
(
0.0351881
0.263837
0.203001
2.11671
1.20449
0.665617
0.334882
1.89004
0.265493
1.88752
2.32349
2.45114
1.30086
1.10793
0.788069
0.594699
-2.42277
0.480075
0.407667
2.00744
1.69205
1.50352
2.41483
2.45439
2.42115
0.962078
0.944466
0.521922
2.05984
1.51279
2.38722
2.35608
0.900113
2.17196
)
;
    }
    frontAndBackPlanes
    {
        type            empty;
    }
}

