/*--------------------------------*- C++ -*----------------------------------*\
  =========                 |
  \\      /  F ield         | OpenFOAM: The Open Source CFD Toolbox
   \\    /   O peration     | Website:  https://openfoam.org
    \\  /    A nd           | Version:  6
     \\/     M anipulation  |
\*---------------------------------------------------------------------------*/
FoamFile
{
    version     2.0;
    format      ascii;
    class       volVectorField;
    location    "0";
    object      U;
}
// * * * * * * * * * * * * * * * * * * * * * * * * * * * * * * * * * * * * * //

dimensions      [0 1 -1 0 0 0 0];

internalField   nonuniform List<vector> 
10000
(
(-3.86939e-07 -1.30569e-07 0)
(5.14284e-05 -1.0499e-05 0)
(0.000163976 -1.95872e-05 0)
(0.000322715 -2.63924e-05 0)
(0.00051668 -3.11203e-05 0)
(0.000735262 -3.39257e-05 0)
(0.000968151 -3.4899e-05 0)
(0.00120549 -3.41392e-05 0)
(0.00143814 -3.18231e-05 0)
(0.00165806 -2.8215e-05 0)
(0.00185861 -2.36425e-05 0)
(0.00203469 -1.84615e-05 0)
(0.00218283 -1.30195e-05 0)
(0.00230111 -7.62954e-06 0)
(0.00238903 -2.55602e-06 0)
(0.00244733 1.98508e-06 0)
(0.00247778 5.81365e-06 0)
(0.00248298 8.90972e-06 0)
(0.00246616 1.16011e-05 0)
(0.00242944 1.38842e-05 0)
(0.00237564 1.55237e-05 0)
(0.00230767 1.65942e-05 0)
(0.00222827 1.71951e-05 0)
(0.00213997 1.74107e-05 0)
(0.00204504 1.73155e-05 0)
(0.00194549 1.69741e-05 0)
(0.00184311 1.64435e-05 0)
(0.00173941 1.57724e-05 0)
(0.00163568 1.50021e-05 0)
(0.00153301 1.41672e-05 0)
(0.00143227 1.32962e-05 0)
(0.00133418 1.24121e-05 0)
(0.00123928 1.15322e-05 0)
(0.001148 1.06702e-05 0)
(0.00106062 9.83617e-06 0)
(0.000977371 9.03647e-06 0)
(0.000898362 8.27562e-06 0)
(0.000823658 7.55593e-06 0)
(0.000753265 6.87804e-06 0)
(0.000687148 6.24187e-06 0)
(0.000625242 5.6461e-06 0)
(0.000567454 5.08932e-06 0)
(0.000513677 4.56961e-06 0)
(0.000463787 4.08448e-06 0)
(0.000417653 3.632e-06 0)
(0.000375136 3.21026e-06 0)
(0.000336097 2.81706e-06 0)
(0.000300391 2.45049e-06 0)
(0.000267875 2.10864e-06 0)
(0.000238405 1.78976e-06 0)
(0.000211842 1.49252e-06 0)
(0.000188047 1.21547e-06 0)
(0.000166888 9.56874e-07 0)
(0.000148234 7.1536e-07 0)
(0.000131961 4.8974e-07 0)
(0.000117952 2.78532e-07 0)
(0.000106098 8.02527e-08 0)
(9.62981e-05 -1.06536e-07 0)
(8.84588e-05 -2.83528e-07 0)
(8.2499e-05 -4.52507e-07 0)
(7.83495e-05 -6.1518e-07 0)
(7.5955e-05 -7.73576e-07 0)
(7.52738e-05 -9.29977e-07 0)
(7.62807e-05 -1.08249e-06 0)
(7.8951e-05 -1.23e-06 0)
(8.32677e-05 -1.37685e-06 0)
(8.92312e-05 -1.52787e-06 0)
(9.68702e-05 -1.68743e-06 0)
(0.000106245 -1.86048e-06 0)
(0.00011745 -2.05269e-06 0)
(0.000130617 -2.27018e-06 0)
(0.000145917 -2.51968e-06 0)
(0.000163573 -2.80936e-06 0)
(0.000183858 -3.14958e-06 0)
(0.000207114 -3.55306e-06 0)
(0.000233751 -4.03519e-06 0)
(0.000264266 -4.61473e-06 0)
(0.000299249 -5.31422e-06 0)
(0.000339392 -6.15961e-06 0)
(0.000385488 -7.1796e-06 0)
(0.000438428 -8.40457e-06 0)
(0.000499171 -9.86428e-06 0)
(0.000568703 -1.15833e-05 0)
(0.000647954 -1.35738e-05 0)
(0.000737679 -1.58267e-05 0)
(0.00083828 -1.82998e-05 0)
(0.000949568 -2.0904e-05 0)
(0.00107046 -2.34868e-05 0)
(0.00119862 -2.58155e-05 0)
(0.00132999 -2.75596e-05 0)
(0.0014584 -2.82681e-05 0)
(0.00157496 -2.73303e-05 0)
(0.00166753 -2.39031e-05 0)
(0.00171954 -1.68266e-05 0)
(0.00171024 -4.32884e-06 0)
(0.00161147 1.6174e-05 0)
(0.00139335 4.61477e-05 0)
(0.00103438 8.32137e-05 0)
(0.000558972 0.00011383 0)
(0.000107608 0.000101966 0)
(9.54119e-06 -5.19645e-05 0)
(0.000157137 -0.000163723 0)
(0.000434989 -0.000260732 0)
(0.000814876 -0.000337343 0)
(0.00127351 -0.000393872 0)
(0.00178847 -0.000430826 0)
(0.00233765 -0.000448889 0)
(0.00290005 -0.000449167 0)
(0.00345634 -0.000433372 0)
(0.00398943 -0.000403797 0)
(0.00448495 -0.000363151 0)
(0.00493147 -0.000314345 0)
(0.0053206 -0.000260284 0)
(0.00564687 -0.000203702 0)
(0.00590753 -0.000147049 0)
(0.00610228 -9.24435e-05 0)
(0.00623296 -4.16593e-05 0)
(0.00630298 3.9339e-06 0)
(0.00631768 4.42908e-05 0)
(0.00628366 7.98968e-05 0)
(0.00620543 0.000110414 0)
(0.00608882 0.000135713 0)
(0.0059395 0.00015608 0)
(0.00576292 0.000171904 0)
(0.00556427 0.000183616 0)
(0.00534834 0.000191669 0)
(0.00511951 0.000196514 0)
(0.00488173 0.00019859 0)
(0.00463848 0.000198315 0)
(0.00439283 0.000196077 0)
(0.00414737 0.00019223 0)
(0.00390435 0.000187094 0)
(0.00366561 0.00018095 0)
(0.00343266 0.000174041 0)
(0.00320671 0.000166579 0)
(0.00298872 0.000158738 0)
(0.00277939 0.000150666 0)
(0.00257926 0.000142482 0)
(0.00238868 0.000134283 0)
(0.00220785 0.000126146 0)
(0.00203687 0.000118131 0)
(0.00187576 0.000110283 0)
(0.00172443 0.000102637 0)
(0.00158275 9.52181e-05 0)
(0.00145053 8.80449e-05 0)
(0.00132755 8.11301e-05 0)
(0.00121356 7.44811e-05 0)
(0.00110828 6.81017e-05 0)
(0.00101141 6.19935e-05 0)
(0.00092267 5.61549e-05 0)
(0.000841731 5.05827e-05 0)
(0.000768285 4.52715e-05 0)
(0.000702021 4.02136e-05 0)
(0.000642629 3.53998e-05 0)
(0.00058981 3.08194e-05 0)
(0.000543275 2.64596e-05 0)
(0.000502747 2.23053e-05 0)
(0.000467969 1.83393e-05 0)
(0.000438703 1.45428e-05 0)
(0.000414734 1.08941e-05 0)
(0.000395875 7.36889e-06 0)
(0.000381971 3.94022e-06 0)
(0.000372903 5.79032e-07 0)
(0.000368578 -2.74012e-06 0)
(0.000368979 -6.02016e-06 0)
(0.000374055 -9.27732e-06 0)
(0.00038379 -1.2561e-05 0)
(0.000398232 -1.59278e-05 0)
(0.0004175 -1.94402e-05 0)
(0.000441791 -2.3167e-05 0)
(0.000471392 -2.71835e-05 0)
(0.000506684 -3.15743e-05 0)
(0.000548153 -3.64359e-05 0)
(0.000596405 -4.18797e-05 0)
(0.000652179 -4.80339e-05 0)
(0.000716363 -5.50452e-05 0)
(0.000790004 -6.30772e-05 0)
(0.000874321 -7.2307e-05 0)
(0.000970703 -8.29164e-05 0)
(0.00108069 -9.50768e-05 0)
(0.00120593 -0.000108925 0)
(0.00134809 -0.000124524 0)
(0.00150874 -0.000141814 0)
(0.00168912 -0.000160534 0)
(0.00188987 -0.000180139 0)
(0.0021106 -0.000199688 0)
(0.00234941 -0.000217731 0)
(0.0026022 -0.000232185 0)
(0.00286193 -0.000240235 0)
(0.00311781 -0.000238239 0)
(0.00335439 -0.000221657 0)
(0.00355066 -0.000184961 0)
(0.00367923 -0.000121437 0)
(0.00370535 -2.31321e-05 0)
(0.00358714 0.000120081 0)
(0.00327514 0.000314635 0)
(0.00272961 0.000550633 0)
(0.00193905 0.000780087 0)
(0.00098775 0.000874466 0)
(0.000145195 0.00057297 0)
(1.60486e-05 -0.000156712 0)
(0.000232636 -0.000435008 0)
(0.000623548 -0.000668015 0)
(0.00114985 -0.000853221 0)
(0.0017805 -0.000991431 0)
(0.00248648 -0.00108365 0)
(0.00323943 -0.00113155 0)
(0.00401273 -0.00113793 0)
(0.0047821 -0.00110684 0)
(0.00552619 -0.00104343 0)
(0.00622689 -0.0009536 0)
(0.00686955 -0.000843601 0)
(0.00744294 -0.000719651 0)
(0.00793917 -0.00058764 0)
(0.00835336 -0.000452915 0)
(0.00868345 -0.000320165 0)
(0.0089297 -0.000193372 0)
(0.00909472 -7.58516e-05 0)
(0.00918158 2.99986e-05 0)
(0.00919875 0.000124113 0)
(0.00915228 0.000207045 0)
(0.0090488 0.000278295 0)
(0.0088953 0.000338097 0)
(0.00869858 0.000387024 0)
(0.00846525 0.000425811 0)
(0.00820163 0.000455301 0)
(0.00791366 0.000476395 0)
(0.00760682 0.000490021 0)
(0.00728614 0.000497096 0)
(0.00695614 0.000498511 0)
(0.00662084 0.000495108 0)
(0.00628378 0.000487671 0)
(0.005948 0.000476914 0)
(0.00561613 0.000463478 0)
(0.00529036 0.000447933 0)
(0.00497252 0.000430772 0)
(0.00466409 0.000412422 0)
(0.00436626 0.000393245 0)
(0.00407995 0.000373546 0)
(0.00380584 0.000353577 0)
(0.00354443 0.000333545 0)
(0.00329603 0.000313617 0)
(0.00306083 0.00029393 0)
(0.00283889 0.000274591 0)
(0.00263016 0.000255685 0)
(0.00243452 0.000237277 0)
(0.00225177 0.000219417 0)
(0.00208166 0.000202143 0)
(0.0019239 0.00018548 0)
(0.00177815 0.000169445 0)
(0.00164406 0.000154046 0)
(0.00152124 0.000139282 0)
(0.00140931 0.000125149 0)
(0.00130786 0.000111633 0)
(0.00121651 9.87146e-05 0)
(0.00113486 8.63678e-05 0)
(0.00106252 7.45609e-05 0)
(0.000999152 6.32551e-05 0)
(0.000944399 5.24056e-05 0)
(0.000897954 4.19607e-05 0)
(0.000859538 3.18611e-05 0)
(0.000828914 2.20394e-05 0)
(0.000805886 1.24213e-05 0)
(0.000790317 2.9283e-06 0)
(0.000782094 -6.50001e-06 0)
(0.000781291 -1.58755e-05 0)
(0.00078783 -2.527e-05 0)
(0.000801732 -3.48355e-05 0)
(0.000823112 -4.47291e-05 0)
(0.000852196 -5.51198e-05 0)
(0.000889318 -6.61923e-05 0)
(0.000934936 -7.81508e-05 0)
(0.000989641 -9.12245e-05 0)
(0.00105417 -0.000105672 0)
(0.00112941 -0.000121784 0)
(0.00121641 -0.00013988 0)
(0.00131642 -0.000160307 0)
(0.00143083 -0.00018342 0)
(0.0015612 -0.00020956 0)
(0.0017092 -0.000239011 0)
(0.00187652 -0.000271937 0)
(0.00206479 -0.000308283 0)
(0.00227531 -0.000347659 0)
(0.00250885 -0.000389167 0)
(0.00276522 -0.0004312 0)
(0.00304276 -0.000471211 0)
(0.0033377 -0.000505457 0)
(0.0036434 -0.000528756 0)
(0.00394938 -0.000534277 0)
(0.00424037 -0.000513388 0)
(0.00449529 -0.000455591 0)
(0.00468628 -0.000348516 0)
(0.0047779 -0.000177938 0)
(0.0047274 7.24383e-05 0)
(0.0044831 0.000417766 0)
(0.00399827 0.000858388 0)
(0.00324316 0.00135676 0)
(0.00223172 0.00179565 0)
(0.00109093 0.00190618 0)
(0.000139767 0.00117611 0)
(1.87918e-05 -0.000291708 0)
(0.000276388 -0.000778648 0)
(0.000738241 -0.00117782 0)
(0.0013567 -0.00149421 0)
(0.002095 -0.00173089 0)
(0.00291981 -0.00189028 0)
(0.00379915 -0.00197581 0)
(0.00470355 -0.00199261 0)
(0.0056065 -0.00194767 0)
(0.0064849 -0.00184945 0)
(0.00731928 -0.00170738 0)
(0.00809385 -0.00153127 0)
(0.00879633 -0.00133077 0)
(0.00941774 -0.00111497 0)
(0.00995211 -0.000892151 0)
(0.0103961 -0.000669605 0)
(0.0107489 -0.000453548 0)
(0.0110112 -0.000249108 0)
(0.0111862 -6.07759e-05 0)
(0.0112764 0.000108931 0)
(0.0112914 0.000259857 0)
(0.0112368 0.000392142 0)
(0.0111202 0.000505823 0)
(0.0109485 0.000601538 0)
(0.0107288 0.000680209 0)
(0.010468 0.000742967 0)
(0.0101725 0.000791083 0)
(0.00984857 0.000825913 0)
(0.009502 0.000848846 0)
(0.00913815 0.000861268 0)
(0.00876189 0.000864527 0)
(0.00837764 0.000859902 0)
(0.00798931 0.000848595 0)
(0.0076004 0.000831706 0)
(0.00721392 0.000810234 0)
(0.00683249 0.000785071 0)
(0.00645833 0.000757005 0)
(0.00609331 0.00072672 0)
(0.00573898 0.000694811 0)
(0.00539659 0.000661779 0)
(0.00506715 0.000628055 0)
(0.00475142 0.000593994 0)
(0.00444998 0.000559897 0)
(0.00416324 0.00052601 0)
(0.00389144 0.000492536 0)
(0.0036347 0.000459639 0)
(0.00339303 0.000427453 0)
(0.00316635 0.000396084 0)
(0.00295449 0.000365612 0)
(0.00275722 0.000336101 0)
(0.00257425 0.000307593 0)
(0.00240525 0.000280115 0)
(0.00224985 0.000253678 0)
(0.00210767 0.00022828 0)
(0.0019783 0.000203903 0)
(0.00186131 0.000180516 0)
(0.00175631 0.000158076 0)
(0.00166288 0.000136527 0)
(0.00158064 0.000115799 0)
(0.00150923 9.58086e-05 0)
(0.00144829 7.64593e-05 0)
(0.00139755 5.76396e-05 0)
(0.00135675 3.92239e-05 0)
(0.0013257 2.10747e-05 0)
(0.00130426 3.04281e-06 0)
(0.00129234 -1.49602e-05 0)
(0.00129014 -3.29742e-05 0)
(0.00129753 -5.11828e-05 0)
(0.0013146 -6.98788e-05 0)
(0.00134151 -8.93502e-05 0)
(0.00137858 -0.000109905 0)
(0.00142623 -0.000131881 0)
(0.00148501 -0.000155651 0)
(0.00155563 -0.000181627 0)
(0.00163894 -0.00021026 0)
(0.00173593 -0.000242039 0)
(0.00184776 -0.000277471 0)
(0.00197569 -0.000317056 0)
(0.0021211 -0.000361241 0)
(0.00228541 -0.000410344 0)
(0.00246997 -0.000464441 0)
(0.00267592 -0.000523219 0)
(0.00290398 -0.000585768 0)
(0.00315414 -0.000650313 0)
(0.00342525 -0.000713898 0)
(0.00371449 -0.000772015 0)
(0.00401666 -0.00081821 0)
(0.00432341 -0.000843706 0)
(0.00462224 -0.000837077 0)
(0.00489554 -0.000784061 0)
(0.00511948 -0.000667532 0)
(0.0052632 -0.000467727 0)
(0.00528844 -0.000162681 0)
(0.00514944 0.000271088 0)
(0.00479747 0.000847516 0)
(0.0041939 0.00155266 0)
(0.0033242 0.00231206 0)
(0.00222513 0.00292991 0)
(0.00104687 0.00299586 0)
(0.000119768 0.00177395 0)
(1.93378e-05 -0.000442045 0)
(0.000298465 -0.00116363 0)
(0.00080181 -0.00174865 0)
(0.00147585 -0.00221045 0)
(0.00227959 -0.0025556 0)
(0.00317632 -0.00278897 0)
(0.00413152 -0.00291654 0)
(0.00511395 -0.00294649 0)
(0.006096 -0.00288931 0)
(0.00705399 -0.0027572 0)
(0.0079683 -0.00256338 0)
(0.00882314 -0.00232131 0)
(0.00960637 -0.00204404 0)
(0.0103091 -0.00174379 0)
(0.0109252 -0.00143157 0)
(0.0114513 -0.00111708 0)
(0.0118858 -0.000808548 0)
(0.0122289 -0.000512836 0)
(0.0124826 -0.000235499 0)
(0.0126489 1.86056e-05 0)
(0.0127327 0.000246916 0)
(0.0127412 0.000449522 0)
(0.0126807 0.000626477 0)
(0.0125582 0.000778428 0)
(0.0123804 0.000906398 0)
(0.0121541 0.0010117 0)
(0.0118856 0.00109586 0)
(0.0115812 0.00116055 0)
(0.0112468 0.00120755 0)
(0.0108879 0.00123866 0)
(0.0105099 0.00125566 0)
(0.0101174 0.00126028 0)
(0.00971483 0.00125418 0)
(0.00930613 0.0012389 0)
(0.00889487 0.00121587 0)
(0.00848418 0.00118639 0)
(0.00807683 0.00115163 0)
(0.00767525 0.00111262 0)
(0.00728151 0.00107029 0)
(0.00689739 0.00102543 0)
(0.00652439 0.000978738 0)
(0.00616375 0.000930801 0)
(0.00581647 0.00088213 0)
(0.00548336 0.000833155 0)
(0.00516505 0.000784243 0)
(0.00486197 0.000735699 0)
(0.00457445 0.000687779 0)
(0.00430267 0.000640694 0)
(0.00404669 0.000594619 0)
(0.00380648 0.00054969 0)
(0.00358193 0.000506016 0)
(0.00337286 0.000463676 0)
(0.00317902 0.000422722 0)
(0.00300011 0.000383182 0)
(0.00283581 0.00034506 0)
(0.00268575 0.000308337 0)
(0.00254957 0.000272972 0)
(0.00242688 0.000238901 0)
(0.00231731 0.000206041 0)
(0.00222047 0.000174285 0)
(0.00213604 0.000143506 0)
(0.00206367 0.000113552 0)
(0.00200311 8.42495e-05 0)
(0.00195409 5.54041e-05 0)
(0.00191646 2.68005e-05 0)
(0.00189008 -1.7937e-06 0)
(0.001875 -3.0468e-05 0)
(0.0018714 -5.9335e-05 0)
(0.00187917 -8.8751e-05 0)
(0.00189841 -0.000119145 0)
(0.00192932 -0.000150947 0)
(0.00197222 -0.000184623 0)
(0.00202755 -0.000220677 0)
(0.00209586 -0.000259656 0)
(0.00217784 -0.000302146 0)
(0.00227427 -0.000348766 0)
(0.00238604 -0.00040014 0)
(0.00251413 -0.000456853 0)
(0.00265953 -0.000519384 0)
(0.00282321 -0.000587996 0)
(0.003006 -0.000662588 0)
(0.00320843 -0.000742474 0)
(0.00343055 -0.00082611 0)
(0.00367157 -0.000910729 0)
(0.00392952 -0.00099191 0)
(0.0042007 -0.00106307 0)
(0.00447903 -0.00111495 0)
(0.00475526 -0.00113505 0)
(0.00501601 -0.00110728 0)
(0.00524282 -0.00101166 0)
(0.00541114 -0.000824466 0)
(0.00548968 -0.000518799 0)
(0.00544035 -6.56228e-05 0)
(0.00521859 0.000562169 0)
(0.00478382 0.00137207 0)
(0.00410681 0.00233132 0)
(0.00318743 0.00332354 0)
(0.00207968 0.00407381 0)
(0.000943066 0.00404271 0)
(9.65627e-05 0.0023163 0)
(1.89722e-05 -0.000599103 0)
(0.000308612 -0.00157103 0)
(0.000835612 -0.00235521 0)
(0.00154283 -0.00297202 0)
(0.00238606 -0.00343187 0)
(0.00332566 -0.00374277 0)
(0.00432492 -0.00391403 0)
(0.00535116 -0.00395764 0)
(0.00637606 -0.0038882 0)
(0.00737588 -0.00372217 0)
(0.0083313 -0.00347688 0)
(0.00922722 -0.00316962 0)
(0.0100523 -0.00281692 0)
(0.0107983 -0.00243401 0)
(0.0114602 -0.00203452 0)
(0.0120347 -0.00163029 0)
(0.0125208 -0.00123136 0)
(0.0129189 -0.000845991 0)
(0.0132304 -0.000480848 0)
(0.0134579 -0.000141601 0)
(0.0136029 0.000167426 0)
(0.0136719 0.000444058 0)
(0.0136702 0.000688563 0)
(0.0136041 0.000901564 0)
(0.0134798 0.00108411 0)
(0.0133033 0.00123763 0)
(0.0130806 0.0013638 0)
(0.0128175 0.00146454 0)
(0.0125196 0.00154189 0)
(0.0121921 0.00159797 0)
(0.0118401 0.00163491 0)
(0.0114683 0.00165482 0)
(0.0110812 0.00165972 0)
(0.0106827 0.00165153 0)
(0.0102765 0.00163207 0)
(0.00986603 0.001603 0)
(0.00945434 0.00156584 0)
(0.00904414 0.00152196 0)
(0.00863785 0.00147259 0)
(0.00823762 0.00141884 0)
(0.00784532 0.00136165 0)
(0.00746257 0.00130187 0)
(0.00709077 0.00124024 0)
(0.00673109 0.0011774 0)
(0.00638451 0.0011139 0)
(0.00605184 0.00105021 0)
(0.00573371 0.000986737 0)
(0.00543063 0.000923833 0)
(0.00514293 0.000861788 0)
(0.00487086 0.000800845 0)
(0.00461455 0.000741205 0)
(0.00437402 0.000683025 0)
(0.00414923 0.000626423 0)
(0.00394005 0.000571484 0)
(0.0037463 0.000518254 0)
(0.00356774 0.000466746 0)
(0.00340411 0.000416941 0)
(0.00325511 0.000368788 0)
(0.00312042 0.000322203 0)
(0.00299973 0.000277074 0)
(0.00289272 0.000233253 0)
(0.00279909 0.000190565 0)
(0.00271855 0.000148801 0)
(0.00265084 0.00010772 0)
(0.00259577 6.70514e-05 0)
(0.00255319 2.64815e-05 0)
(0.00252288 -1.42919e-05 0)
(0.00250528 -5.53324e-05 0)
(0.00250027 -9.6883e-05 0)
(0.00250781 -0.000139494 0)
(0.00252799 -0.000183713 0)
(0.00256097 -0.000230109 0)
(0.00260701 -0.000279292 0)
(0.00266647 -0.000331914 0)
(0.00273978 -0.00038866 0)
(0.00282744 -0.000450233 0)
(0.00293001 -0.000517319 0)
(0.00304806 -0.000590529 0)
(0.00318216 -0.000670309 0)
(0.00333275 -0.000756802 0)
(0.00350012 -0.000849659 0)
(0.00368419 -0.000947768 0)
(0.00388437 -0.00104891 0)
(0.00409924 -0.0011493 0)
(0.00432622 -0.00124307 0)
(0.00456106 -0.00132161 0)
(0.00479724 -0.0013729 0)
(0.00502522 -0.00138087 0)
(0.00523152 -0.0013249 0)
(0.00539784 -0.00117953 0)
(0.00550014 -0.000914808 0)
(0.00550837 -0.000497289 0)
(0.00538598 0.000108068 0)
(0.00509369 0.000927185 0)
(0.00459862 0.00195916 0)
(0.00388108 0.00314943 0)
(0.00295294 0.00433782 0)
(0.00188005 0.00517389 0)
(0.000822395 0.00500632 0)
(7.50027e-05 0.00278905 0)
(1.84889e-05 -0.00075893 0)
(0.000313789 -0.00199066 0)
(0.00085521 -0.00298289 0)
(0.00158315 -0.00376098 0)
(0.00245071 -0.00433897 0)
(0.00341554 -0.00472839 0)
(0.00443888 -0.0049426 0)
(0.00548675 -0.00499815 0)
(0.00653029 -0.00491446 0)
(0.00754587 -0.00471279 0)
(0.00851478 -0.004415 0)
(0.00942288 -0.00404246 0)
(0.0102599 -0.00361529 0)
(0.0110191 -0.00315176 0)
(0.0116963 -0.00266797 0)
(0.0122895 -0.00217777 0)
(0.0127986 -0.00169276 0)
(0.0132245 -0.00122239 0)
(0.0135691 -0.000774203 0)
(0.0138352 -0.000354146 0)
(0.0140251 3.26906e-05 0)
(0.0141418 0.000382335 0)
(0.0141904 0.000694131 0)
(0.0141763 0.000968699 0)
(0.0141048 0.00120709 0)
(0.0139812 0.00141078 0)
(0.0138107 0.00158157 0)
(0.0135984 0.00172152 0)
(0.0133493 0.00183289 0)
(0.013068 0.00191802 0)
(0.0127592 0.0019793 0)
(0.012427 0.00201911 0)
(0.0120757 0.00203978 0)
(0.0117089 0.00204351 0)
(0.0113303 0.00203242 0)
(0.010943 0.00200846 0)
(0.0105502 0.00197345 0)
(0.0101546 0.00192905 0)
(0.0097588 0.00187675 0)
(0.00936503 0.00181792 0)
(0.00897539 0.00175375 0)
(0.00859173 0.00168532 0)
(0.00821571 0.00161359 0)
(0.00784878 0.00153939 0)
(0.00749222 0.00146347 0)
(0.00714712 0.00138648 0)
(0.00681442 0.00130898 0)
(0.00649491 0.00123147 0)
(0.00618922 0.00115438 0)
(0.00589788 0.00107807 0)
(0.00562127 0.00100285 0)
(0.00535967 0.000928995 0)
(0.00511326 0.000856696 0)
(0.00488214 0.000786117 0)
(0.00466631 0.000717371 0)
(0.00446573 0.000650526 0)
(0.00428026 0.000585605 0)
(0.00410976 0.000522588 0)
(0.00395402 0.000461416 0)
(0.00381282 0.000401985 0)
(0.00368591 0.00034415 0)
(0.00357304 0.000287729 0)
(0.00347397 0.000232495 0)
(0.00338845 0.000178182 0)
(0.00331628 0.000124479 0)
(0.00325725 7.10362e-05 0)
(0.00321128 1.74222e-05 0)
(0.00317809 -3.6659e-05 0)
(0.00315833 -9.12756e-05 0)
(0.00315165 -0.000146859 0)
(0.00315804 -0.0002041 0)
(0.0031775 -0.000263646 0)
(0.00321011 -0.000326181 0)
(0.00325598 -0.000392422 0)
(0.00331528 -0.000463111 0)
(0.0033882 -0.000538989 0)
(0.00347495 -0.000620755 0)
(0.00357569 -0.000708995 0)
(0.00369054 -0.000804071 0)
(0.00381948 -0.000905962 0)
(0.00396225 -0.00101404 0)
(0.00411826 -0.00112674 0)
(0.00428638 -0.00124118 0)
(0.00446473 -0.00135262 0)
(0.00465031 -0.0014538 0)
(0.0048386 -0.0015342 0)
(0.00502298 -0.00157926 0)
(0.00519399 -0.00156954 0)
(0.00533859 -0.00148018 0)
(0.00543924 -0.00128065 0)
(0.00547314 -0.000935317 0)
(0.00541238 -0.000405045 0)
(0.00522304 0.00034902 0)
(0.00487265 0.00134948 0)
(0.00433495 0.00258509 0)
(0.00359912 0.00397788 0)
(0.00268643 0.00532409 0)
(0.00167025 0.00620376 0)
(0.000705412 0.00587229 0)
(5.69925e-05 0.00319214 0)
(1.82479e-05 -0.000920472 0)
(0.000317967 -0.00241834 0)
(0.000869885 -0.00362452 0)
(0.00161214 -0.00456759 0)
(0.00249525 -0.00526475 0)
(0.00347429 -0.00573144 0)
(0.00450856 -0.00598571 0)
(0.00556292 -0.00604946 0)
(0.00660815 -0.00594765 0)
(0.00762089 -0.0057069 0)
(0.00858324 -0.00535405 0)
(0.00948219 -0.00491487 0)
(0.0103089 -0.00441319 0)
(0.0110579 -0.00387035 0)
(0.0117266 -0.00330489 0)
(0.0123144 -0.00273255 0)
(0.0128222 -0.00216629 0)
(0.0132522 -0.00161655 0)
(0.013607 -0.0010915 0)
(0.0138897 -0.00059741 0)
(0.0141037 -0.000139271 0)
(0.0142514 0.000278681 0)
(0.0143363 0.000653944 0)
(0.0143631 0.000987069 0)
(0.0143365 0.00127914 0)
(0.0142607 0.00153165 0)
(0.0141403 0.00174651 0)
(0.0139796 0.0019259 0)
(0.0137826 0.00207222 0)
(0.0135534 0.002188 0)
(0.0132958 0.0022758 0)
(0.0130135 0.00233822 0)
(0.01271 0.00237777 0)
(0.0123886 0.00239689 0)
(0.0120524 0.0023979 0)
(0.0117045 0.00238299 0)
(0.0113475 0.00235417 0)
(0.0109841 0.00231332 0)
(0.0106168 0.00226215 0)
(0.0102477 0.00220221 0)
(0.0098789 0.00213492 0)
(0.00951241 0.00206152 0)
(0.00914994 0.00198317 0)
(0.00879311 0.00190088 0)
(0.00844336 0.00181555 0)
(0.00810198 0.001728 0)
(0.00777014 0.00163894 0)
(0.00744885 0.00154903 0)
(0.007139 0.00145882 0)
(0.00684135 0.00136881 0)
(0.00655653 0.00127942 0)
(0.00628506 0.00119104 0)
(0.00602737 0.00110396 0)
(0.00578376 0.00101844 0)
(0.00555447 0.000934676 0)
(0.00533963 0.000852806 0)
(0.00513931 0.000772916 0)
(0.00495351 0.00069504 0)
(0.00478219 0.000619157 0)
(0.00462523 0.000545198 0)
(0.00448251 0.000473041 0)
(0.00435387 0.000402515 0)
(0.00423911 0.000333399 0)
(0.00413805 0.000265421 0)
(0.00405049 0.000198259 0)
(0.00397622 0.000131538 0)
(0.00391511 6.48227e-05 0)
(0.0038669 -2.42091e-06 0)
(0.00383167 -7.03667e-05 0)
(0.00380974 -0.000139191 0)
(0.00380075 -0.000209551 0)
(0.00380462 -0.000282166 0)
(0.00382123 -0.000357757 0)
(0.00385048 -0.000437071 0)
(0.00389228 -0.000520866 0)
(0.00394653 -0.000609883 0)
(0.00401309 -0.00070479 0)
(0.00409178 -0.000806108 0)
(0.00418229 -0.00091408 0)
(0.00428418 -0.00102849 0)
(0.00439677 -0.00114843 0)
(0.00451901 -0.00127189 0)
(0.0046494 -0.00139538 0)
(0.0047857 -0.00151325 0)
(0.00492468 -0.00161698 0)
(0.00506173 -0.00169433 0)
(0.00519034 -0.00172838 0)
(0.00530144 -0.00169663 0)
(0.00538268 -0.00157035 0)
(0.00541764 -0.00131439 0)
(0.00538526 -0.000888101 0)
(0.00525988 -0.00024755 0)
(0.00501128 0.000647817 0)
(0.00461353 0.00181557 0)
(0.00404642 0.00323334 0)
(0.00330672 0.00479897 0)
(0.00242283 0.00626659 0)
(0.0014722 0.0071539 0)
(0.000601123 0.00664108 0)
(4.28315e-05 0.00353254 0)
(1.83529e-05 -0.00108406 0)
(0.000322908 -0.00285303 0)
(0.000884056 -0.00427696 0)
(0.00163728 -0.00538642 0)
(0.00253038 -0.0062016 0)
(0.00351595 -0.00674217 0)
(0.0045515 -0.00703167 0)
(0.00560099 -0.00709811 0)
(0.00663504 -0.00697271 0)
(0.00763078 -0.00668807 0)
(0.00857131 -0.0062764 0)
(0.00944493 -0.00576815 0)
(0.0102443 -0.00519101 0)
(0.0109655 -0.00456944 0)
(0.0116076 -0.00392439 0)
(0.0121714 -0.00327334 0)
(0.0126591 -0.00263049 0)
(0.0130741 -0.00200708 0)
(0.0134201 -0.0014117 0)
(0.0137008 -0.000850778 0)
(0.0139202 -0.00032901 0)
(0.0140819 0.000149849 0)
(0.0141876 0.000582362 0)
(0.0142421 0.000968498 0)
(0.014249 0.00130948 0)
(0.014212 0.00160688 0)
(0.0141348 0.0018627 0)
(0.0140208 0.00207924 0)
(0.0138735 0.00225904 0)
(0.0136959 0.00240476 0)
(0.0134912 0.00251912 0)
(0.0132623 0.00260485 0)
(0.013012 0.00266462 0)
(0.012743 0.00270101 0)
(0.0124579 0.00271647 0)
(0.012159 0.00271334 0)
(0.0118489 0.00269377 0)
(0.0115296 0.00265978 0)
(0.0112035 0.00261321 0)
(0.0108724 0.00255577 0)
(0.0105384 0.00248898 0)
(0.0102032 0.00241426 0)
(0.00986863 0.00233287 0)
(0.00953624 0.00224597 0)
(0.00920754 0.0021546 0)
(0.00888392 0.0020597 0)
(0.00856665 0.00196211 0)
(0.00825691 0.00186261 0)
(0.00795573 0.00176189 0)
(0.00766407 0.00166055 0)
(0.00738275 0.00155915 0)
(0.00711251 0.00145817 0)
(0.00685396 0.00135801 0)
(0.00660763 0.00125903 0)
(0.00637395 0.00116152 0)
(0.00615324 0.0010657 0)
(0.00594577 0.000971738 0)
(0.00575171 0.000879727 0)
(0.00557116 0.000789713 0)
(0.00540418 0.000701674 0)
(0.00525075 0.000615532 0)
(0.00511082 0.000531149 0)
(0.00498429 0.00044833 0)
(0.00487104 0.000366823 0)
(0.0047709 0.000286318 0)
(0.0046837 0.000206445 0)
(0.00460926 0.000126774 0)
(0.00454742 4.67705e-05 0)
(0.00449766 -3.41004e-05 0)
(0.00446075 -0.000115899 0)
(0.00443621 -0.000198978 0)
(0.00442382 -0.00028411 0)
(0.00442336 -0.000372023 0)
(0.00443451 -0.000463453 0)
(0.00445699 -0.000559137 0)
(0.00449043 -0.000659778 0)
(0.00453441 -0.000765982 0)
(0.00458844 -0.000878174 0)
(0.00465187 -0.000996457 0)
(0.00472392 -0.00112042 0)
(0.00480354 -0.00124885 0)
(0.00488937 -0.00137936 0)
(0.00497962 -0.00150786 0)
(0.00507182 -0.0016279 0)
(0.00516264 -0.00172985 0)
(0.00524752 -0.00179991 0)
(0.00532017 -0.00181905 0)
(0.00537206 -0.00176201 0)
(0.00539167 -0.00159656 0)
(0.00536386 -0.00128347 0)
(0.00526957 -0.000777692 0)
(0.00508508 -3.13004e-05 0)
(0.0047852 0.000995391 0)
(0.00434924 0.0023148 0)
(0.0037625 0.00389261 0)
(0.00302802 0.00560245 0)
(0.00217944 0.00715867 0)
(0.00129564 0.00802415 0)
(0.000512478 0.00732036 0)
(3.21406e-05 0.0038196 0)
(1.87789e-05 -0.00125046 0)
(0.000329009 -0.00329491 0)
(0.000898987 -0.00493875 0)
(0.00166092 -0.006214 0)
(0.00255966 -0.00714389 0)
(0.00354541 -0.00775301 0)
(0.00457416 -0.00807116 0)
(0.00560923 -0.00813332 0)
(0.00662139 -0.00797766 0)
(0.00758852 -0.00764332 0)
(0.00849493 -0.00716827 0)
(0.00933039 -0.00658785 0)
(0.0100892 -0.00593377 0)
(0.0107691 -0.00523361 0)
(0.0113708 -0.00451063 0)
(0.0118965 -0.00378399 0)
(0.01235 -0.00306897 0)
(0.0127357 -0.00237739 0)
(0.0130583 -0.00171812 0)
(0.0133225 -0.00109753 0)
(0.0135327 -0.000520067 0)
(0.0136933 1.13681e-05 0)
(0.0138065 0.000493584 0)
(0.0138758 0.000925715 0)
(0.0139048 0.00130922 0)
(0.0138964 0.00164582 0)
(0.0138536 0.00193766 0)
(0.0137792 0.0021872 0)
(0.0136758 0.00239711 0)
(0.0135459 0.00257022 0)
(0.0133916 0.00270936 0)
(0.0132152 0.00281738 0)
(0.0130187 0.00289704 0)
(0.0128041 0.00295102 0)
(0.0125734 0.00298186 0)
(0.0123284 0.00299195 0)
(0.012071 0.00298354 0)
(0.0118029 0.00295871 0)
(0.0115259 0.00291937 0)
(0.0112417 0.00286729 0)
(0.0109519 0.0028041 0)
(0.0106581 0.00273126 0)
(0.010362 0.00265014 0)
(0.010065 0.00256196 0)
(0.00976847 0.00246787 0)
(0.00947387 0.00236889 0)
(0.00918247 0.00226596 0)
(0.00889548 0.00215996 0)
(0.00861404 0.00205167 0)
(0.0083392 0.0019418 0)
(0.00807191 0.001831 0)
(0.00781306 0.00171984 0)
(0.00756342 0.00160886 0)
(0.00732368 0.00149848 0)
(0.00709443 0.00138909 0)
(0.00687618 0.001281 0)
(0.00666935 0.00117447 0)
(0.00647428 0.00106967 0)
(0.00629123 0.000966705 0)
(0.0061204 0.000865631 0)
(0.0059619 0.000766424 0)
(0.00581579 0.000668999 0)
(0.00568207 0.000573208 0)
(0.00556071 0.000478836 0)
(0.0054516 0.000385611 0)
(0.00535461 0.000293192 0)
(0.00526956 0.000201177 0)
(0.00519624 0.000109088 0)
(0.00513444 1.62752e-05 0)
(0.00508366 -7.75984e-05 0)
(0.00504455 -0.000172595 0)
(0.00501648 -0.000269291 0)
(0.00499914 -0.000368422 0)
(0.00499211 -0.000470683 0)
(0.0049949 -0.000576759 0)
(0.00500696 -0.000687283 0)
(0.00502763 -0.000802775 0)
(0.00505618 -0.000923542 0)
(0.00509171 -0.00104953 0)
(0.00513316 -0.00118014 0)
(0.00517922 -0.00131386 0)
(0.00522832 -0.00144796 0)
(0.00527844 -0.00157781 0)
(0.00532701 -0.00169627 0)
(0.00537067 -0.00179269 0)
(0.00540497 -0.00185189 0)
(0.00542397 -0.00185298 0)
(0.00541966 -0.00176823 0)
(0.00538144 -0.00156231 0)
(0.00529546 -0.00119238 0)
(0.00514463 -0.00060957 0)
(0.00490735 0.00023702 0)
(0.004564 0.00138367 0)
(0.00409739 0.00283882 0)
(0.00349817 0.00455528 0)
(0.00277443 0.00638288 0)
(0.00196344 0.00799908 0)
(0.00114356 0.00881935 0)
(0.000439343 0.00792081 0)
(2.43021e-05 0.00406278 0)
(1.94521e-05 -0.00142036 0)
(0.000335953 -0.00374428 0)
(0.000914199 -0.00560871 0)
(0.00168252 -0.00704719 0)
(0.00258263 -0.00808656 0)
(0.0035625 -0.00875711 0)
(0.0045769 -0.00909589 0)
(0.00558884 -0.00914563 0)
(0.00656956 -0.0089522 0)
(0.007498 -0.00856172 0)
(0.00835985 -0.0080183 0)
(0.00914656 -0.00736237 0)
(0.00985415 -0.0066297 0)
(0.0104822 -0.00585095 0)
(0.0110329 -0.00505167 0)
(0.0115101 -0.00425249 0)
(0.0119189 -0.00346961 0)
(0.0122649 -0.00271528 0)
(0.0125537 -0.00199842 0)
(0.0127908 -0.00132517 0)
(0.0129813 -0.000699548 0)
(0.0131294 -0.00012384 0)
(0.0132395 0.000399715 0)
(0.0133131 0.000870121 0)
(0.0133542 0.00128892 0)
(0.013365 0.00165804 0)
(0.0133481 0.00197984 0)
(0.0133056 0.00225701 0)
(0.0132394 0.00249241 0)
(0.0131513 0.00268902 0)
(0.0130428 0.00284982 0)
(0.0129154 0.00297775 0)
(0.0127703 0.00307565 0)
(0.012609 0.00314626 0)
(0.0124326 0.00319215 0)
(0.0122425 0.00321573 0)
(0.0120398 0.00321927 0)
(0.0118259 0.00320486 0)
(0.011602 0.00317444 0)
(0.0113694 0.00312977 0)
(0.0111295 0.0030725 0)
(0.0108835 0.00300414 0)
(0.0106328 0.00292605 0)
(0.0103786 0.00283952 0)
(0.0101222 0.00274571 0)
(0.00986494 0.00264571 0)
(0.00960794 0.00254052 0)
(0.00935244 0.00243106 0)
(0.00909956 0.00231818 0)
(0.00885038 0.00220269 0)
(0.00860593 0.0020853 0)
(0.00836714 0.00196668 0)
(0.00813491 0.00184742 0)
(0.00791002 0.00172805 0)
(0.00769319 0.00160905 0)
(0.00748507 0.00149081 0)
(0.00728621 0.00137366 0)
(0.00709709 0.00125787 0)
(0.0069181 0.00114362 0)
(0.00674956 0.00103104 0)
(0.0065917 0.000920169 0)
(0.00644471 0.000810998 0)
(0.00630869 0.000703435 0)
(0.00618366 0.000597325 0)
(0.00606962 0.000492447 0)
(0.00596647 0.000388514 0)
(0.00587406 0.000285171 0)
(0.00579219 0.000181993 0)
(0.00572065 7.84568e-05 0)
(0.00565882 -2.60781e-05 0)
(0.00560699 -0.000131723 0)
(0.00556488 -0.000238687 0)
(0.00553198 -0.00034763 0)
(0.00550782 -0.000459187 0)
(0.00549179 -0.000573959 0)
(0.0054832 -0.000692488 0)
(0.00548123 -0.000815186 0)
(0.00548496 -0.00094223 0)
(0.00549331 -0.00107341 0)
(0.00550504 -0.00120791 0)
(0.00551866 -0.001344 0)
(0.00553244 -0.00147855 0)
(0.00554424 -0.00160653 0)
(0.00555145 -0.00172013 0)
(0.00555074 -0.00180783 0)
(0.00553783 -0.00185324 0)
(0.00550709 -0.00183379 0)
(0.00545111 -0.00171957 0)
(0.00536016 -0.00147251 0)
(0.0052217 -0.00104666 0)
(0.00502027 -0.000389968 0)
(0.00473723 0.000549587 0)
(0.00435708 0.00180554 0)
(0.0038662 0.00338113 0)