/*--------------------------------*- C++ -*----------------------------------*\
  =========                 |
  \\      /  F ield         | OpenFOAM: The Open Source CFD Toolbox
   \\    /   O peration     | Website:  https://openfoam.org
    \\  /    A nd           | Version:  6
     \\/     M anipulation  |
\*---------------------------------------------------------------------------*/
FoamFile
{
    version     2.0;
    format      ascii;
    class       volVectorField;
    location    "0";
    object      U_rec;
}
// * * * * * * * * * * * * * * * * * * * * * * * * * * * * * * * * * * * * * //

dimensions      [0 1 -1 0 0 0 0];

internalField   nonuniform List<vector> 
13046
(
(-0.758106 0.457502 0)
(-0.615715 0.15516 -6.80512e-21)
(-0.331419 0.153733 -1.50544e-20)
(-0.741637 0.375784 0)
(-0.417226 0.238592 -1.34725e-20)
(-0.520805 0.141545 0)
(-0.78208 0.393412 1.92954e-21)
(-0.513528 0.113047 3.50459e-21)
(-0.394996 0.244822 -1.48524e-20)
(-0.99073 0.520943 5.61475e-21)
(-0.725002 -0.165654 0)
(-0.059116 0.0531876 9.97311e-21)
(-0.856267 0.484972 -6.05977e-21)
(-0.58724 0.0942009 -1.09774e-20)
(-0.287592 0.158296 8.26292e-21)
(-0.981952 0.608277 -7.41685e-21)
(-0.0663887 0.024413 2.40416e-20)
(-0.768101 -0.0863201 5.9848e-21)
(-0.550489 0.336595 0)
(-0.44083 0.147215 -7.3561e-21)
(-0.683781 0.287565 2.04808e-20)
(-0.987668 0.595644 -3.10787e-21)
(-0.064173 0.0321853 -3.20812e-20)
(-0.75565 -0.10253 0)
(-0.701089 0.38931 8.17876e-21)
(-0.582777 0.17818 -1.66152e-20)
(-0.397997 0.194931 0)
(-0.858493 0.512294 -1.09344e-20)
(-0.608832 0.0916061 3.20304e-21)
(-0.262792 0.1357 -1.42873e-20)
(-0.762142 0.476966 0)
(-0.6404 0.162429 0)
(-0.308615 0.128957 1.53276e-20)
(-0.660481 0.360837 -9.4946e-21)
(-0.427221 0.203572 5.07145e-21)
(-0.580584 0.201123 2.89276e-20)
(-0.649668 0.339092 -1.47247e-20)
(-0.458404 0.228549 7.71229e-21)
(-0.558749 0.203561 -1.48993e-20)
(-0.669774 0.490734 1.04335e-20)
(-0.310487 0.047547 2.84088e-21)
(-0.769182 0.227015 -1.01799e-20)
(-0.592426 0.278595 6.6872e-21)
(-0.53405 0.266473 1.14945e-20)
(-0.529728 0.224737 0)
(-0.626448 0.285683 4.19353e-21)
(-0.527933 0.284233 -1.761e-20)
(-0.500408 0.198967 -2.21743e-21)
(-0.777356 0.450685 0)
(-0.58889 0.132846 -4.91317e-22)
(-0.326971 0.168363 6.57378e-24)
(-0.331897 -0.0401182 1.78842e-20)
(-0.594207 0.513799 0)
(-0.905126 0.266299 -1.23542e-20)
(-0.354052 -0.0596867 -2.54836e-20)
(-0.941135 0.283584 -1.94614e-20)
(-0.552426 0.496058 1.63612e-20)
(-0.784209 0.0625006 -2.57828e-21)
(-0.937236 0.695393 0)
(-0.141192 -0.00986152 1.33022e-20)
(-0.983546 0.452021 -5.64323e-21)
(-0.521951 -0.0243716 6.61807e-21)
(-0.284923 0.242735 -3.44001e-20)
(-0.116846 0.0951831 1.82174e-20)
(-0.671615 -0.0885005 -4.32378e-21)
(-1.03095 0.550437 -8.89205e-21)
(-0.913383 0.706749 0)
(-0.805804 0.0891481 0)
(-0.15822 -0.0264848 0)
(-0.893586 0.693334 -4.36918e-21)
(-0.802553 0.103039 0)
(-0.170432 -0.0229695 1.06263e-20)
(-0.795502 0.0496457 0)
(-0.95108 0.704004 1.71015e-22)
(-0.128072 -0.0168868 2.94246e-24)
(-0.572664 0.361592 0)
(-0.415187 0.128662 8.00268e-21)
(-0.698991 0.272607 -1.46464e-20)
(-0.105438 -0.000190523 1.47206e-20)
(-0.971106 0.684748 -1.29876e-20)
(-0.776822 0.00432513 0)
(-0.728751 0.397619 4.25172e-21)
(-0.561049 0.159609 0)
(-0.388439 0.207347 0)
(-0.100701 0.0816504 -1.63595e-20)
(-0.689349 -0.104627 -3.39455e-21)
(-1.0298 0.552642 5.27861e-21)
(-1.06781 0.469191 -9.40123e-21)
(-0.161795 0.174037 0)
(-0.603627 -0.134597 -3.34467e-21)
(-0.208162 0.251421 0)
(-1.10418 0.381253 0)
(-0.553749 -0.1977 4.50512e-22)
(-0.97129 0.554533 0)
(-0.992628 0.548678 5.10697e-21)
(-0.627971 0.0105625 1.29794e-20)
(-0.624107 -0.0145469 -6.09869e-21)
(-0.190485 0.119151 -7.51397e-21)
(-0.180849 0.128119 1.92483e-20)
(-0.184251 0.198791 -9.11867e-22)
(-1.07333 0.451986 9.20131e-21)
(-0.583322 -0.141162 0)
(-0.662151 0.309594 -5.68234e-23)
(-0.502663 0.279793 9.24051e-21)
(-0.495909 0.177494 0)
(-0.496105 0.421572 0)
(-0.900649 0.322264 -5.94241e-21)
(-0.383206 -0.0110643 0)
(-0.599871 0.489165 1.81006e-20)
(-0.329446 -0.00112273 0)
(-0.852256 0.263162 -2.31247e-20)
(-0.890656 0.471136 0)
(-0.0259875 0.0205951 0)
(-0.721861 -0.227505 -5.07376e-21)
(-0.822891 0.464377 1.67638e-20)
(-0.578806 0.110756 4.61195e-21)
(-0.30966 0.171375 1.4914e-20)
(-0.982884 0.600319 6.50418e-21)
(-0.96659 0.583433 -1.22967e-20)
(-0.678145 0.00295533 -1.10113e-20)
(-0.149954 0.0753072 8.65447e-21)
(-0.656799 0.0187306 6.71554e-21)
(-0.171039 0.0906098 -8.08722e-21)
(-0.969454 0.520886 -4.57463e-21)
(-0.73717 -0.17707 -6.97193e-21)
(-0.0480249 0.0410775 -4.47109e-21)
(-0.921543 0.546255 0)
(-0.623076 0.0503307 -8.527e-21)
(-0.218821 0.119038 1.75131e-20)
(-0.705528 0.506419 0)
(-0.294512 0.0560326 -1.41506e-20)
(-0.74639 0.204624 6.01133e-22)
(-0.234799 0.275683 0)
(-1.1014 0.379934 0)
(-0.538665 -0.179882 0)
(-1.02849 0.526353 0)
(-0.619907 -0.0621918 -1.70908e-20)
(-0.171102 0.143678 -2.06292e-20)
(-0.794921 0.497095 0)
(-0.647589 0.144368 0)
(-0.28645 0.114847 0)
(-0.883964 0.40115 0)
(-0.472911 0.0370409 0)
(-0.383916 0.287311 0)
(-0.577254 0.482762 0)
(-0.341984 -0.0151576 0)
(-0.879866 0.277128 1.24355e-20)
(-0.500495 0.408038 -1.91921e-21)
(-0.882466 0.32513 -1.27778e-20)
(-0.390789 0.00514824 1.54732e-20)
(-0.999001 0.467181 1.31878e-20)
(-0.542936 -0.0353092 0)
(-0.25638 0.216446 4.47629e-20)
(-0.473759 0.344054 0)
(-0.823771 0.342948 1.37777e-20)
(-0.426819 0.0595176 -3.90675e-21)
(-0.405011 -0.0776328 0)
(-0.98925 0.327207 1.3637e-20)
(-0.432506 -0.0877753 0)
(-1.01204 0.350146 7.74735e-21)
(-0.458876 0.434746 0)
(-0.411572 0.397308 0)
(-0.903206 0.366717 1.74632e-21)
(-0.435088 0.00825071 8.217e-21)
(-0.421305 0.3348 -8.4101e-21)
(-1.00974 0.505978 -5.77918e-21)
(-0.0669604 0.0671067 0)
(-0.703295 -0.1769 -8.56299e-21)
(-0.920795 0.491761 -4.07343e-21)
(-0.0322158 0.0261619 -2.04521e-21)
(-0.736895 -0.20748 0)
(-1.02859 0.540256 -7.42985e-21)
(-0.637809 -0.0654568 0)
(-0.151905 0.124567 2.34655e-20)
(-0.754797 0.57769 0)
(-0.790619 0.185284 3.32208e-21)
(-0.256078 0.0111566 8.3137e-21)
(-0.881611 0.352154 1.16084e-20)
(-0.450893 0.359187 4.00797e-21)
(-0.419196 0.0203846 0)
(-0.0904334 0.104739 0)
(-0.662948 -0.181646 0)
(-1.04391 0.478602 4.8838e-21)
(-0.726102 0.551302 0)
(-0.784633 0.201299 -7.14142e-21)
(-0.274096 0.0236344 2.14687e-21)
(-0.473533 0.360406 0)
(-0.838226 0.336978 0)
(-0.410904 0.0427976 0)
(-0.855585 0.386888 5.70288e-21)
(-0.469358 0.0523817 0)
(-0.397424 0.285134 0)
(-0.569346 0.0598012 -5.19754e-23)
(-0.276535 0.174785 -1.01145e-20)
(-0.90353 0.525915 1.73086e-20)
(-0.608955 0.0638136 0)
(-0.240107 0.134015 -2.19434e-20)
(-1.05281 0.504654 -9.4598e-21)
(-0.123782 0.123782 1.47667e-20)
(-0.649785 -0.131937 -1.63906e-20)
(-0.226109 0.253389 1.33617e-20)
(-1.08536 0.412162 5.81252e-21)
(-0.549212 -0.153251 1.6639e-20)
(-1.091 0.421392 -1.59483e-20)
(-0.585508 -0.175176 0)
(-0.171994 0.204385 -1.31209e-20)
(-0.320331 -0.0782136 -9.1752e-22)
(-0.941507 0.245099 5.56207e-21)
(-0.6275 0.577003 0)
(-0.847441 0.430442 -2.56743e-20)
(-0.96141 0.697622 6.67743e-21)
(-0.110091 -0.0099542 -9.08722e-21)
(-0.793665 0.014426 0)
(-0.604049 -0.187803 0)
(-1.08033 0.432056 -1.41441e-20)
(-0.146044 0.173951 0)
(-0.675809 0.336341 -2.12001e-20)
(-0.46611 0.253243 -7.56911e-21)
(-0.522158 0.176785 2.19649e-20)
(-0.84002 0.521202 0)
(-0.633349 0.111867 -4.61054e-22)
(-0.266242 0.122306 -8.42433e-21)
(-0.240613 0.273991 1.01942e-20)
(-1.0928 0.396786 0)
(-0.537161 -0.164975 -1.91675e-20)
(-0.876463 0.446861 2.05453e-20)
(-0.550125 0.0540939 1.99121e-20)
(-0.295442 0.195328 0)
(-0.0484981 0.0518246 0)
(-0.700335 -0.213574 7.50734e-21)
(-0.976037 0.478801 0)
(-0.588155 0.548876 0)
(-0.962915 0.258421 0)
(-0.338809 -0.0879693 0)
(-1.08653 0.42934 1.39921e-20)
(-0.574466 -0.158435 0)
(-0.187492 0.213582 -3.14334e-23)
(-0.957641 0.361054 5.07652e-21)
(-0.427693 -0.0401293 -6.34861e-21)
(-0.412159 0.365772 0)
(-0.91661 0.564796 0)
(-0.642273 0.0589363 7.95703e-21)
(-0.20841 0.101088 1.38262e-20)
(-0.482485 -0.161927 -2.35503e-20)
(-1.08945 0.345763 -1.07399e-20)
(-0.335274 0.371427 7.98489e-21)
(-1.03742 0.345354 0)
(-0.443159 -0.110167 -9.18306e-21)
(-0.398189 0.398803 -2.86725e-22)
(-0.0461215 0.0536161 -1.30321e-20)
(-0.682637 -0.228971 0)
(-0.973893 0.458563 -4.68832e-21)
(-0.662204 0.534789 9.60006e-21)
(-0.300662 -0.00307548 -1.04052e-20)
(-0.838377 0.233901 1.03114e-21)
(-0.826805 0.494585 4.31253e-21)
(-0.0180588 0.00198169 -1.92419e-20)
(-0.766559 -0.19584 0)
(-0.512385 0.310212 -4.37955e-21)
(-0.700193 0.307468 -1.65519e-20)
(-0.458424 0.14395 2.20815e-20)
(-0.957557 0.400108 5.98057e-21)
(-0.941709 0.374819 1.15065e-23)
(-0.465362 -0.0234268 -1.5328e-20)
(-0.439463 -0.0218469 0)
(-0.400851 0.344326 7.64517e-21)
(-0.355243 0.305514 -7.94911e-21)
(-0.0926642 0.00382906 -1.92641e-20)
(-0.974988 0.671587 6.92007e-21)
(-0.780362 -0.0125535 -1.45129e-20)
(-0.891247 0.566058 0)
(-0.660034 0.0859943 0)
(-0.219702 0.0913614 -1.82161e-20)
(-1.05558 0.360477 -2.82262e-21)
(-0.46611 -0.125614 0)
(-0.361043 0.371346 0)
(-1.0076 0.566579 -6.25212e-21)
(-0.650144 -0.0295912 0)
(-0.153499 0.104809 8.57542e-21)
(-0.5838 0.290817 4.52716e-21)
(-0.558092 0.239088 6.61908e-21)
(-0.515349 0.244715 -2.26244e-21)
(-0.997238 0.368432 -9.90499e-21)
(-0.44528 -0.0690763 0)
(-0.385899 0.362851 -1.33008e-20)
(-0.89171 0.584716 0)
(-0.680926 0.0877023 9.94634e-21)
(-0.206921 0.0729287 -1.17844e-20)
(-0.886849 0.474011 0)
(-0.913576 0.486085 2.02564e-21)
(-0.668403 0.550368 3.46923e-21)
(-0.294768 -0.0176042 3.02058e-20)
(-0.85365 0.231875 -2.48246e-20)
(-1.01377 0.38795 -1.00621e-20)
(-0.467098 -0.0775612 1.34406e-20)
(-0.345281 0.328563 1.21355e-20)
(-1.02008 0.560532 0)
(-0.144528 0.108628 -3.02197e-20)
(-0.652104 -0.0491439 -8.56643e-21)
(-0.604942 0.471023 -2.49724e-20)
(-0.33425 0.0152718 0)
(-0.82938 0.267195 7.83953e-21)
(-0.476312 0.461916 -1.53691e-20)
(-0.99988 0.313214 -7.95168e-21)
(-0.396899 -0.0946646 0)
(-0.947789 0.623577 -6.32218e-21)
(-0.703965 0.0456638 -8.8264e-21)
(-0.156934 0.0491342 5.39805e-21)
(-0.629308 0.541425 1.26126e-21)
(-0.316261 -0.0393037 0)
(-0.895066 0.253206 1.70431e-20)
(-0.96452 0.633178 0)
(-0.977213 0.622757 0)
(-0.712104 0.0296944 -5.77186e-21)
(-0.144166 0.0454009 -1.40192e-20)
(-0.701118 0.00932613 8.16709e-21)
(-0.139093 0.0566885 1.49113e-20)
(-0.0954816 0.100001 -1.14713e-20)
(-0.671569 -0.161759 0)
(-1.04263 0.499201 -6.72579e-21)
(-0.945523 0.586128 7.31137e-21)
(-0.659925 0.0382146 0)
(-0.180401 0.0851674 4.76296e-21)
(-0.677183 -0.247123 1.47857e-20)
(-0.0115999 0.00205539 1.67806e-20)
(-0.776972 0.428123 1.04713e-20)
(-0.77487 0.318413 -7.59675e-21)
(-0.506708 0.345156 0)
(-0.421152 0.0886245 0)
(-0.954761 0.449491 1.35886e-20)
(-0.516067 -0.00173342 0)
(-0.297197 0.237477 2.63039e-20)
(-0.135939 0.126678 -9.38333e-21)
(-1.05001 0.51698 1.94115e-20)
(-0.641183 -0.109233 1.22428e-20)
(-0.356034 -0.0742351 0)
(-0.958621 0.281163 7.23906e-21)
(-0.546274 0.511198 -1.8534e-20)
(-0.501643 -0.164179 -2.89911e-20)
(-1.0927 0.363511 -6.52379e-21)
(-0.297864 0.333817 0)
(-0.534199 0.0766073 -1.98843e-20)
(-0.329365 0.213937 0)
(-0.962139 0.498473 1.47604e-20)
(-0.565312 0.0071604 7.32034e-21)
(-0.24481 0.177371 8.04463e-21)
(-0.512661 0.0646311 1.17072e-20)
(-0.34631 0.23454 7.91722e-23)
(-0.991114 0.617015 -4.58965e-22)
(-0.0770181 0.0278579 1.13044e-20)
(-0.756477 -0.0677796 -8.79008e-21)
(-0.307644 -0.091217 0)
(-0.945157 0.231858 1.79011e-21)
(-0.65781 0.60771 0)
(-0.981754 0.505505 -1.50448e-20)
(-0.575657 -0.00906247 -8.94287e-21)
(-0.228394 0.175887 -9.86846e-21)
(-0.897694 0.392223 0)
(-0.456141 0.0185068 -1.19442e-20)
(-0.391993 0.305863 0)
(-0.900263 0.301811 0)
(-0.363206 -0.0222481 0)
(-0.534664 0.450099 0)
(-0.764435 0.425743 -5.90241e-21)
(-0.569191 0.14121 -1.08643e-20)
(-0.357496 0.190882 5.90125e-23)
(-0.511846 0.49012 1.9097e-20)
(-0.986601 0.296577 1.92717e-20)
(-0.379461 -0.0897127 1.30125e-20)
(-1.06768 0.47623 -8.35743e-21)
(-0.626723 -0.149607 1.39697e-20)
(-0.135839 0.146927 -1.38845e-20)
(-0.511585 -0.152414 1.95818e-20)
(-1.08672 0.381444 6.60995e-21)
(-0.280718 0.31166 1.01572e-20)
(-0.843904 0.679556 -1.36416e-20)
(-0.201869 -0.0310554 1.60149e-20)
(-0.824441 0.137599 -1.22258e-20)
(-0.97301 0.66145 3.76251e-21)
(-0.963871 0.659467 -3.45457e-21)
(-0.740826 0.0301066 -1.84094e-21)
(-0.749437 0.0165937 0)
(-0.119624 0.0186188 -5.1706e-21)
(-0.131554 0.0216068 -4.543e-21)
(-0.0143348 0.00233806 -2.27135e-20)
(-0.708377 -0.23118 -1.62886e-20)
(-0.796843 0.444241 2.76532e-21)
(-0.849428 0.512185 -2.80135e-22)
(-0.0218176 0.003273 2.66258e-20)
(-0.780236 -0.184207 0)
(-0.983936 0.409964 -2.21921e-20)
(-0.48223 -0.0382734 -3.47235e-21)
(-0.337441 0.297981 0)
(-0.107843 0.105573 -2.84335e-20)
(-1.04584 0.510136 6.68821e-21)
(-0.666881 -0.13844 0)
(-0.905035 0.661997 1.90696e-20)
(-0.926082 0.658994 -1.42731e-20)
(-0.760502 0.0874223 9.39444e-21)
(-0.747511 0.07003 3.61269e-21)
(-0.171652 0.00827947 -9.00075e-21)
(-0.158774 0.0174202 -4.50604e-21)
(-0.118525 0.152684 0)
(-0.602593 -0.219843 0)
(-1.0741 0.403409 2.4967e-21)
(-0.770022 0.480851 -5.06383e-21)
(-0.0140453 -0.00493632 0)
(-0.763886 -0.194623 0)
(-0.632612 0.25647 -8.26577e-23)
(-0.582613 0.334237 9.62796e-21)
(-0.447272 0.178072 4.88613e-21)
(-0.841426 0.469777 -8.83032e-21)
(-0.73366 -0.222115 7.42139e-21)
(-0.0194293 0.00909581 1.24557e-21)
(-0.798967 0.585707 0)
(-0.757409 0.158271 -1.54851e-20)
(-0.237847 0.0274111 -4.55669e-24)
(-1.05149 0.468992 1.08614e-22)
(-0.650045 -0.183139 2.02325e-20)
(-0.104874 0.119425 1.27012e-23)
(-0.592801 -0.272997 4.47057e-22)
(-0.00935567 0.0022539 -9.63822e-21)
(-0.741863 0.348924 -4.01301e-21)
(-0.6371 0.458733 -9.05353e-21)
(-0.334004 0.0633024 9.03716e-21)
(-0.761088 0.2449 2.48648e-20)
(-0.73735 0.331834 0)
(-0.46393 0.12481 -2.4492e-20)
(-0.48084 0.302735 1.23792e-20)
(-0.957404 0.537282 0)
(-0.0445372 0.0325585 1.33417e-20)
(-0.752865 -0.166052 1.07693e-23)
(-0.76252 0.337556 0)
(-0.448058 0.106471 -8.66034e-21)
(-0.473859 0.315828 -1.74866e-20)
(-0.613927 0.259932 9.94099e-21)
(-0.571885 0.31451 -5.11102e-21)
(-0.471861 0.197618 2.5723e-21)
(-0.566278 0.550042 9.14374e-21)
(-0.993194 0.266459 -6.89485e-21)
(-0.357301 -0.110237 1.43631e-20)
(-0.722261 0.281553 0)
(-0.403709 0.111847 0)
(-0.557337 0.375233 1.42889e-21)
(-0.761113 0.306437 1.20307e-20)
(-0.408612 0.0963962 6.66459e-21)
(-0.536218 0.368398 2.03698e-22)
(-0.815713 0.669011 2.07453e-20)
(-0.841664 0.152385 -1.19564e-20)
(-0.218662 -0.040728 -1.58071e-20)
(-0.0685011 0.0516434 2.01699e-20)
(-0.0697253 0.0585555 -2.04196e-20)
(-0.734706 -0.129084 6.01059e-21)
(-0.721298 -0.142978 4.16556e-21)
(-1.00052 0.560386 0)
(-1.00726 0.547569 -5.7492e-21)
(-1.06991 0.465076 1.03228e-20)
(-0.630153 -0.164599 -1.25702e-20)
(-0.126691 0.146464 1.71772e-20)
(-0.18885 -0.0421139 -1.02435e-20)
(-0.863538 0.704518 4.20663e-21)
(-0.832919 0.126114 1.55907e-20)
(-0.686615 0.531642 -8.7684e-21)
(-0.291029 0.0148645 -9.4785e-21)
(-0.807798 0.219702 7.81064e-21)
(-1.0476 0.319978 0)
(-0.429026 -0.12773 9.49797e-21)
(-0.429596 0.438236 2.96768e-22)
(-0.609025 -0.275702 7.3157e-21)
(-0.0271948 0.0314648 -8.93877e-21)
(-0.882821 0.369955 -3.64799e-21)
(-0.182753 0.224058 0)
(-1.09866 0.395476 0)
(-0.568928 -0.197878 8.4447e-21)
(-0.951429 0.49297 4.78084e-21)
(-0.0415741 0.0391342 0)
(-0.725459 -0.20304 -7.36759e-21)
(-0.00570305 -0.00395446 -3.57067e-32)
(-0.569237 -0.26651 -6.9488e-21)
(-0.680086 0.331568 4.01407e-21)
(-0.616417 -0.227671 7.78058e-21)
(-0.00555899 -0.0083181 3.56232e-32)
(-0.653986 0.379853 -3.57385e-21)
(-0.520174 -0.0764746 -1.85628e-20)
(-1.03269 0.433275 0)
(-0.279248 0.262771 -2.61756e-20)
(-0.613246 -0.247419 -3.91359e-21)
(-0.0737576 0.0983407 -9.11255e-21)
(-1.02594 0.392467 0)
(-1.04113 0.51243 -9.46818e-21)
(-0.611132 -0.0811867 1.06197e-20)
(-0.172761 0.155843 1.36963e-20)
(-0.938128 0.605168 1.47933e-20)
(-0.0464199 0.00419148 8.18495e-21)
(-0.809312 -0.0998787 0)
(-0.824295 0.441112 4.55237e-21)
(-0.33567 0.203743 -5.06062e-21)
(-0.546964 0.0968976 4.78346e-21)
(-0.593407 -0.213431 4.3703e-21)
(-0.137996 0.175529 9.62098e-21)
(-1.08347 0.401117 2.82548e-21)
(-1.03151 0.309368 -7.7689e-21)
(-0.460107 0.463617 -5.2571e-21)
(-0.412095 -0.118719 0)
(-0.480019 -0.120281 0)
(-1.05499 0.376559 0)
(-0.330947 0.343137 0)
(-0.00100984 -0.0110571 0)
(-0.369343 -0.16017 -5.88063e-21)
(-0.385301 0.19429 2.72202e-21)
(-0.658081 -0.262539 7.34754e-21)
(-0.013447 0.00695924 -1.16457e-20)
(-0.799687 0.412172 -4.47742e-21)
(-0.793167 0.421649 -1.16623e-20)
(-0.35974 0.211652 1.19256e-20)
(-0.542463 0.114624 5.51996e-21)
(-0.628822 -0.208052 1.80551e-20)
(-1.06069 0.435008 -5.35743e-21)
(-0.100834 0.127642 0)
(-0.108583 0.144351 -1.0102e-20)
(-1.06891 0.392289 0)
(-0.597455 -0.234339 -1.34772e-20)
(-1.03557 0.537101 -6.11962e-21)
(-0.0966817 0.0876738 3.05367e-20)
(-0.685306 -0.124307 0)
(-0.0920373 0.0256946 -2.32514e-20)
(-0.752403 -0.0338423 9.1642e-21)
(-0.989657 0.641685 0)
(-0.795086 0.681697 -2.61874e-20)
(-0.871725 0.164134 1.52286e-20)
(-0.233574 -0.0598665 -5.02748e-21)
(-0.758667 0.0505757 2.74613e-21)
(-0.944741 0.677772 8.21027e-21)
(-0.141604 0.00756726 -1.42001e-20)
(-0.0733513 0.00515239 -2.08791e-20)
(-0.971772 0.65071 0)
(-0.789779 -0.047273 0)
(-0.830854 0.567124 -4.15728e-21)
(-0.861875 0.586772 0)
(-0.701595 0.132797 -1.61358e-20)
(-0.703366 0.114604 1.7253e-20)
(-0.235559 0.065934 2.39789e-21)
(-0.216368 0.0591736 -2.55678e-21)
(-0.801313 0.56672 3.98792e-21)
(-0.727873 0.153679 0)
(-0.245971 0.0508944 4.61653e-21)
(-0.892664 0.678247 0)
(-0.783298 0.0984554 -1.5177e-20)
(-0.174582 -0.00747456 3.24715e-21)
(-0.503307 -0.137031 -9.69428e-21)
(-1.07508 0.384987 6.84519e-21)
(-0.29238 0.312193 -2.09012e-20)
(-0.61596 -0.182754 0)
(-1.07211 0.44752 1.55046e-20)
(-0.130258 0.1571 0)
(-0.244924 0.260303 -6.76984e-21)
(-1.07463 0.416149 -4.27554e-21)
(-0.537729 -0.133561 -6.35039e-21)
(-0.65669 -0.225074 -1.07034e-21)
(-0.00692456 -0.00718241 6.22917e-21)
(-0.690738 0.408341 0)
(-0.700345 0.474036 8.1458e-21)
(-0.711355 0.463502 0)
(-0.317811 0.0932982 0)
(-0.701959 0.20589 3.06051e-20)
(-0.325804 0.114107 0)
(-0.67337 0.192418 -1.94172e-20)
(-0.851982 0.650604 0)
(-0.818297 0.630522 0)
(-0.219312 -0.000196805 3.75803e-23)
(-0.783767 0.129392 9.38378e-21)
(-0.202572 0.000191579 2.3745e-20)
(-0.789339 0.146374 -1.97689e-20)
(-0.567313 -0.281573 0)
(-0.0119211 0.0083276 1.30809e-20)
(-0.773667 0.337278 0)
(-0.63193 -0.198549 -1.06165e-20)
(-1.06453 0.446784 1.66383e-21)
(-0.105925 0.128088 6.096e-21)
(-0.702405 0.575424 -1.50564e-20)
(-0.279625 -0.0257639 -1.0901e-20)
(-0.854154 0.214808 2.58172e-20)
(-0.465893 -0.146381 2.09399e-20)
(-1.07434 0.342495 1.80189e-20)
(-0.361682 0.389315 0)
(-0.0988697 0.0210039 2.48631e-20)
(-0.754283 -0.0198338 -9.75043e-21)
(-0.985735 0.651475 8.74811e-21)
(-0.685113 -0.247959 0)
(-0.901756 0.441587 0)
(-0.026873 0.0271518 0)
(-0.675523 -0.243314 0)
(-0.935013 0.437568 4.33092e-21)
(-0.0368695 0.0420674 2.21792e-21)
(-0.929013 0.639893 -7.90633e-21)
(-0.722498 0.0624443 5.48952e-21)
(-0.163007 0.0356802 6.67001e-21)
(-0.582281 0.447886 -2.38242e-21)
(-0.350676 0.0283797 0)
(-0.822438 0.281696 -1.27621e-22)
(-1.02331 0.533981 7.1306e-21)
(-0.0837985 0.0753118 1.78186e-20)
(-0.702296 -0.137085 -4.85283e-21)
(-0.520049 -0.0964714 0)
(-1.04696 0.425616 0)
(-0.273314 0.274342 2.25478e-20)
(-0.123186 0.0891603 5.7685e-21)
(-0.675807 -0.0631875 1.46846e-20)
(-1.0207 0.573325 1.94972e-20)
(-0.795808 0.627677 0)
(-0.230823 -0.0106651 -1.58673e-20)
(-0.808282 0.160723 1.00689e-20)
(-0.940516 0.342426 1.25006e-22)
(-0.405963 -0.032751 9.31983e-21)
(-0.455944 0.397207 0)
(-0.657485 0.498214 1.59125e-22)
(-0.31031 0.028792 -3.09361e-21)
(-0.797964 0.235286 -1.02377e-20)
(-0.0825476 0.0819993 -6.42107e-24)
(-0.692791 -0.159826 1.15232e-20)
(-1.02535 0.510613 7.77232e-21)
(-0.998647 0.591419 -3.63053e-21)
(-0.67553 -0.0201785 -4.30511e-21)
(-0.140952 0.0822309 0)
(-0.648734 0.449893 -8.83453e-21)
(-0.339971 0.0843264 1.94226e-20)
(-0.730249 0.23591 -1.6386e-20)
(-0.958313 0.641116 5.8727e-21)
(-0.0617482 0.00066281 9.30517e-21)
(-0.803534 -0.0650433 -6.98389e-21)
(-0.78664 0.519457 -5.05706e-21)
(-0.676054 0.149374 0)
(-0.272273 0.0926883 0)
(-0.83108 0.36745 -2.13284e-20)
(-0.450254 0.0641869 5.38674e-21)
(-0.43334 0.311214 0)
(-0.483001 -0.0983961 0)
(-1.03962 0.388504 1.43913e-20)
(-0.325007 0.326605 0)
(-0.889682 0.548802 -3.12115e-21)
(-0.0296626 0.00515603 -2.8659e-21)
(-0.801633 -0.153693 8.1148e-21)
(-0.895403 0.568275 8.63702e-21)
(-0.0320572 0.00225011 0)
(-0.811597 -0.134674 -7.70472e-21)
(-0.113521 0.0720172 5.27602e-21)
(-0.694226 -0.0560589 -8.76296e-21)
(-1.01364 0.588966 -1.79056e-20)
(-0.958481 0.323431 -6.90248e-21)
(-0.395016 -0.0561362 -9.32347e-21)
(-0.477693 0.428842 0)
(-0.021782 -0.00122811 2.62535e-21)
(-0.801833 -0.169529 -7.58566e-21)
(-0.839843 0.526118 0)
(-0.158007 0.149344 0)
(-0.619917 -0.101291 -8.97749e-21)
(-1.05011 0.504597 -2.243e-21)
(-0.00316039 -0.00723683 1.04849e-20)
(-0.490003 -0.259562 7.76397e-21)
(-0.601998 0.27019 0)
(-0.552465 0.346421 -4.10171e-21)
(-0.567754 -0.195875 0)
(-0.00402552 -0.0120313 1.05182e-20)
(-0.0791019 0.017169 2.53773e-23)
(-0.770831 -0.0501887 0)
(-0.981121 0.64058 0)
(-0.0621421 0.0691263 0)
(-0.691841 -0.196663 0)
(-1.0066 0.486576 1.01967e-20)
(-1.00596 0.57494 -6.29818e-21)
(-1.01542 0.576952 5.09511e-21)
(-0.0766662 0.0497418 -1.0114e-20)
(-0.732882 -0.102942 -1.96712e-21)
(-0.0884658 0.0604184 -1.63941e-20)
(-0.714379 -0.09206 3.5292e-21)
(-1.05912 0.48596 4.38101e-21)
(-0.603394 -0.111931 5.91055e-21)
(-0.170755 0.169654 0)
(-0.407895 0.436108 0)
(-0.44186 -0.14752 0)
(-1.06883 0.321759 0)
(-0.705314 0.426367 0)
(-0.358666 0.151853 -2.63698e-20)
(-0.629412 0.187726 1.07115e-20)
(-1.06341 0.448017 1.26774e-20)
(-0.560959 -0.116122 2.16521e-21)
(-0.216669 0.222909 2.00006e-20)
(-0.24188 0.248319 1.29726e-20)
(-1.0624 0.433366 -1.7634e-20)
(-0.542582 -0.11598 -3.00552e-21)
(-0.968136 0.674195 6.84577e-21)
(-0.0808369 -0.00397219 9.99776e-21)
(-0.797258 -0.0250198 1.51568e-20)
(-0.860402 0.66654 0)
(-0.795493 0.124069 4.50577e-21)
(-0.193896 -0.0109691 -2.32731e-20)
(-0.824068 0.606349 0)
(-0.761886 0.144843 2.0342e-20)
(-0.222944 0.0189999 2.36262e-23)
(-1.02219 0.468261 -1.67597e-20)
(-0.551611 -0.0609171 2.61013e-21)
(-0.241641 0.216454 -1.1388e-20)
(-1.03461 0.456718 0)
(-0.544575 -0.076335 2.44648e-21)
(-0.2464 0.22927 1.04519e-20)
(-0.625372 0.422457 0)
(-0.363072 0.1018 -3.06746e-20)
(-0.717091 0.246126 9.21066e-21)
(-0.866913 0.604115 0)
(-0.718887 0.10952 0)
(-0.204807 0.0429202 3.48148e-21)
(-0.1552 0.1999 -2.07932e-20)
(-0.575231 -0.217722 -2.38193e-20)
(-1.09565 0.387868 0)
(-0.949394 0.415705 5.70776e-21)
(-0.039747 0.0491815 0)
(-0.645018 -0.256783 5.26754e-21)
(-0.930359 0.38591 -2.0379e-22)
(-0.0365582 0.0459046 0)
(-0.62261 -0.266116 -1.51315e-20)
(-0.735584 0.536734 6.04671e-21)
(-0.276109 0.0461858 -3.36576e-21)
(-0.751327 0.190423 -1.38978e-22)
(-0.660197 -0.260263 1.9534e-22)
(-0.0203892 0.0186849 1.78082e-20)
(-0.862554 0.414024 0)
(-1.00441 0.601805 1.55116e-20)
(-0.121758 0.0677621 1.11083e-20)
(-0.695518 -0.0334775 0)
(-0.0202127 0.0206583 -2.6384e-21)
(-0.618442 -0.276019 -8.24494e-21)
(-0.849346 0.376143 0)
(-0.724279 0.355845 1.47164e-20)
(-0.449219 0.262573 1.57747e-20)
(-0.504274 0.148689 7.96415e-23)
(-0.923632 0.510147 -2.52641e-21)
(-0.584066 0.0435902 -2.65745e-21)
(-0.251661 0.159715 -1.1822e-20)
(-0.373198 -0.0493107 2.12132e-20)
(-0.93844 0.305943 1.64195e-20)
(-0.517089 0.456195 0)
(-0.0855208 0.112256 0)
(-0.617021 -0.235795 -4.89535e-21)
(-1.04376 0.405935 0)
(-0.505122 -0.105549 0)
(-1.05055 0.409238 0)
(-0.291798 0.295461 0)
(-0.0566992 0.00909485 0)
(-0.959602 0.617762 -5.37587e-21)
(-0.796402 -0.0838936 6.84501e-21)
(-0.950422 0.518152 0)
(-0.585744 0.0208714 1.31436e-21)
(-0.236396 0.15987 1.15683e-20)
(-0.68879 0.407674 0)
(-0.38089 0.167456 2.26259e-20)
(-0.617031 0.19354 0)
(-0.639375 -0.220709 -1.70877e-20)
(-1.0368 0.43439 5.09094e-21)
(-0.0834162 0.105019 0)
(-0.13242 0.113923 -1.21068e-20)
(-0.651758 -0.0931263 5.7212e-22)
(-1.03769 0.537027 2.60012e-22)
(-0.92055 0.528844 0)
(-0.899442 0.516551 5.70126e-21)
(-0.0340752 0.0192668 -6.57115e-21)
(-0.0292458 0.0162238 -8.08694e-21)
(-0.768746 -0.172522 -4.97269e-21)
(-0.76478 -0.186745 4.08842e-21)
(-0.935316 0.413782 0)
(-0.475185 -0.00344974 3.57882e-20)
(-0.35291 0.286808 1.24424e-20)
(-0.501016 -0.0603474 2.60407e-20)
(-1.01396 0.422007 0)
(-0.29894 0.276782 -1.36963e-20)
(-0.801889 0.386679 -1.20321e-20)
(-0.489402 0.0927765 9.21585e-21)
(-0.399572 0.264428 1.93534e-20)
(-0.642504 -0.248623 1.14379e-20)
(-0.990816 0.418717 6.26417e-21)
(-0.624046 -0.25465 -5.46769e-21)
(-0.0534102 0.0686753 0)
(-0.997477 0.398924 -6.04678e-21)
(-0.0588154 0.0764306 0)
(-0.997338 0.532486 0)
(-0.603448 -0.0237654 0)
(-0.197476 0.148843 1.29153e-20)
(-1.0233 0.446258 8.80675e-21)
(-1.00132 0.437404 -1.63734e-20)
(-0.656949 -0.219892 7.50597e-21)
(-0.659576 -0.233136 -1.87881e-20)
(-0.0694637 0.0867769 1.79367e-20)
(-0.0572925 0.0712655 2.7778e-24)
(-1.00134 0.410055 0)
(-0.480659 -0.0595223 -2.39353e-20)
(-0.333543 0.310333 1.78157e-20)
(-0.899159 0.447791 1.11191e-20)
(-0.533641 0.0331561 -1.59817e-20)
(-0.295248 0.21116 0)
(-0.933998 0.586715 0)
(-0.0416814 0.00908652 0)
(-0.800608 -0.120728 7.40221e-21)
(-0.936629 0.432136 8.16333e-21)
(-0.495438 0.00575905 -9.94791e-21)
(-0.32858 0.260091 -2.07192e-20)
(-0.838129 0.407296 4.79927e-21)
(-0.496323 0.0716208 -1.08037e-20)
(-0.37345 0.25324 1.13219e-20)
(-0.912067 0.544671 0)
(-0.0348637 0.0134972 0)
(-0.786961 -0.157753 -1.01915e-20)
(-0.952126 0.537861 0)
(-0.611889 0.0255048 2.83626e-21)
(-0.210961 0.132466 -1.28692e-20)
(-0.398141 -0.127033 0)
(-1.03114 0.29551 0)
(-0.491405 0.499123 -6.76232e-22)
(-0.791973 0.642266 -6.70447e-22)
(-0.830056 0.165765 0)
(-0.230968 -0.0269553 2.4695e-20)
(-0.516361 -0.182298 1.1365e-20)
(-0.267719 0.314861 0)
(-1.1042 0.36264 0)
(-0.00238503 -0.0108356 -2.52484e-20)
(-0.477736 -0.205316 8.23393e-21)
(-0.513782 0.266634 -3.81014e-21)
(-0.946236 0.473082 0)
(-0.537712 0.0156473 9.81719e-21)
(-0.27938 0.208521 -1.06208e-20)
(-0.972808 0.581613 1.02355e-20)
(-0.0546529 0.0281744 3.42438e-20)
(-0.767883 -0.115944 0)
(-0.269214 -0.075629 -6.61766e-21)
(-0.909912 0.199045 -9.82899e-21)
(-0.727657 0.649021 -6.02613e-21)
(-0.674512 0.427618 0)
(-0.00776519 -0.0094752 -9.49671e-21)
(-0.69838 -0.208368 0)
(-0.521925 0.391106 1.18858e-20)
(-0.534174 0.416327 -1.21748e-20)
(-0.385732 0.0448142 0)
(-0.821216 0.310717 1.03897e-20)
(-0.372494 0.0228639 -1.98974e-20)
(-0.845548 0.301263 -8.3687e-21)
(-0.795227 0.365403 1.13137e-20)
(-0.463884 0.092423 1.21542e-20)
(-0.435685 0.294792 0)
(-0.599303 0.439052 1.04375e-20)
(-0.560338 0.410438 0)
(-0.349995 0.055311 -1.10019e-20)
(-0.782884 0.266451 9.36111e-21)
(-0.371645 0.0627356 1.10831e-20)
(-0.785788 0.286427 9.00328e-23)
(-0.92447 0.467554 7.03062e-22)
(-0.512736 0.0398452 -6.92892e-21)
(-0.327755 0.236483 -1.39794e-20)
(-0.904442 0.433724 -1.90811e-20)
(-0.498848 0.0300759 1.83736e-22)
(-0.342214 0.255722 0)
(-0.0466131 0.0618122 0)
(-0.607105 -0.269014 0)
(-0.965256 0.378345 6.29453e-21)
(-0.770425 0.542806 -5.57226e-21)
(-0.726693 0.171304 0)
(-0.264978 0.0581711 6.22835e-21)
(-1.02534 0.470567 -1.62827e-20)
(-0.670324 -0.20144 8.61448e-21)
(-0.0720747 0.086624 -1.02421e-20)
(-1.02547 0.489926 0)
(-1.0388 0.493651 9.10852e-21)
(-0.575497 -0.0607499 -3.2513e-21)
(-0.588872 -0.0760807 1.04401e-20)
(-0.211766 0.18834 -1.42304e-20)
(-0.194508 0.178664 -1.32285e-20)
(-0.763727 0.518644 0)
(-0.700319 0.168293 0)
(-0.279193 0.0801781 2.92792e-21)
(-0.891001 0.641416 6.44048e-21)
(-0.746404 0.0981746 0)
(-0.184942 0.0209669 7.74468e-21)
(-0.991504 0.493429 -4.78046e-21)
(-0.56205 -0.0270701 0)
(-0.233933 0.192827 0)
(-0.624477 0.356385 1.15592e-20)
(-0.617407 0.229063 -5.74626e-21)
(-0.425974 0.181205 6.09679e-21)
(-1.05037 0.463919 0)
(-0.564621 -0.095835 0)
(-0.217165 0.212451 -2.12657e-20)
(-0.681811 0.431907 0)
(-0.351969 0.129384 3.34892e-21)
(-0.663463 0.207302 0)
(-0.995526 0.435395 -1.08799e-20)
(-0.503356 -0.0445155 -1.33652e-20)
(-0.30401 0.268385 -1.77677e-21)
(-0.893934 0.619651 6.4859e-21)
(-0.721789 0.0905249 0)
(-0.188529 0.0389257 1.59125e-20)
(-0.639808 0.382131 -1.14652e-20)
(-0.62202 0.385061 -5.12048e-21)
(-0.635282 0.221631 5.61141e-21)
(-0.400079 0.16244 -1.20322e-20)
(-0.66654 0.236605 0)
(-0.393059 0.143044 -2.15162e-20)
(-0.58949 0.399551 -5.20367e-21)
(-0.37794 0.0955336 1.43396e-20)
(-0.563439 0.397994 3.35135e-21)
(-0.732288 0.265261 -1.2647e-20)
(-0.384444 0.077457 -6.88268e-21)
(-0.768616 0.287261 2.73803e-22)
(-0.824743 0.545948 6.00179e-21)
(-0.85658 0.546072 0)
(-0.676372 0.12903 1.19408e-20)
(-0.655727 0.108682 -9.318e-21)
(-0.248255 0.0864785 -1.38405e-20)
(-0.242002 0.0998899 2.30303e-20)
(-0.0990007 0.041389 0)
(-0.73039 -0.0391407 -5.39395e-21)
(-0.998211 0.622078 -9.15093e-21)
(-0.523432 0.512844 8.19523e-21)
(-1.00476 0.286589 1.08814e-20)
(-0.379568 -0.109854 -2.25895e-20)
(-0.0894653 0.0423333 -1.15586e-20)
(-0.0950277 0.0561272 9.21746e-21)
(-0.733099 -0.0611424 4.66206e-21)
(-0.715001 -0.0709887 8.00524e-21)
(-1.00062 0.611723 2.33247e-20)
(-1.01134 0.594585 -1.21143e-20)
(-0.642892 0.567883 1.11084e-20)
(-0.310015 -0.0557376 -1.04486e-20)
(-0.909701 0.242401 2.48451e-21)
(-0.605617 0.313933 1.95389e-20)
(-0.48134 0.225995 0)
(-0.571604 0.23144 -1.95758e-20)
(-1.05037 0.480153 -4.34554e-21)
(-0.5846 -0.0953963 -1.17876e-20)
(-0.195243 0.188776 0)
(-0.724348 0.495916 0)
(-0.296932 0.0771258 -2.79132e-21)
(-0.712279 0.193013 -9.94528e-21)
(-0.91066 0.61996 0)
(-0.711658 0.077502 0)
(-0.180247 0.0460168 -1.48287e-20)
(-0.982992 0.646199 -9.96757e-21)
(-0.987713 0.629943 0)
(-0.736413 -0.00402773 2.82785e-21)
(-0.114462 0.0315829 -1.41261e-20)
(-0.717608 -0.00600498 -7.71751e-21)
(-0.121794 0.0462343 1.91085e-20)
(-1.01454 0.521631 8.99587e-21)
(-0.602949 -0.0427794 1.09397e-20)
(-0.189067 0.153772 7.74814e-21)