/*--------------------------------*- C++ -*----------------------------------*\
  =========                 |
  \\      /  F ield         | OpenFOAM: The Open Source CFD Toolbox
   \\    /   O peration     | Website:  https://openfoam.org
    \\  /    A nd           | Version:  6
     \\/     M anipulation  |
\*---------------------------------------------------------------------------*/
FoamFile
{
    version     2.0;
    format      ascii;
    class       volScalarField;
    location    "./ITHACAoutput/Offline/1";
    object      P_rec;
}
// * * * * * * * * * * * * * * * * * * * * * * * * * * * * * * * * * * * * * //

dimensions      [0 2 -2 0 0 0 0];

internalField   nonuniform List<scalar> 
40000
(
0.0158389
0.0158399
0.0158413
0.0158422
0.0158422
0.0158412
0.015839
0.0158357
0.0158313
0.0158257
0.0158192
0.0158116
0.0158031
0.0157937
0.0157836
0.0157727
0.0157611
0.0157488
0.0157359
0.0157224
0.0157083
0.0156937
0.0156785
0.0156629
0.0156468
0.0156302
0.0156131
0.0155956
0.0155777
0.0155593
0.0155405
0.0155212
0.0155015
0.0154814
0.0154609
0.01544
0.0154187
0.015397
0.0153749
0.0153524
0.0153296
0.0153065
0.015283
0.0152593
0.0152352
0.0152109
0.0151863
0.0151615
0.0151365
0.0151114
0.0150861
0.0150607
0.0150352
0.0150098
0.0149843
0.0149588
0.0149334
0.0149082
0.0148831
0.0148583
0.0148337
0.0148095
0.0147856
0.0147622
0.0147392
0.0147168
0.014695
0.0146738
0.0146534
0.0146338
0.014615
0.0145971
0.0145801
0.0145642
0.0145494
0.0145357
0.0145232
0.014512
0.014502
0.0144934
0.0144861
0.0144803
0.0144759
0.0144731
0.0144717
0.0144718
0.0144735
0.0144767
0.0144814
0.0144876
0.0144953
0.0145045
0.0145151
0.014527
0.0145403
0.0145548
0.0145705
0.0145873
0.014605
0.0146237
0.014643
0.0146631
0.0146836
0.0147045
0.0147256
0.0147468
0.0147678
0.0147886
0.014809
0.0148287
0.0148476
0.0148656
0.0148824
0.0148979
0.0149118
0.014924
0.0149344
0.0149428
0.0149489
0.0149527
0.014954
0.0149527
0.0149487
0.0149418
0.0149319
0.0149191
0.0149031
0.014884
0.0148617
0.0148362
0.0148076
0.0147757
0.0147407
0.0147026
0.0146615
0.0146174
0.0145705
0.0145209
0.0144686
0.0144139
0.0143569
0.0142977
0.0142366
0.0141737
0.0141092
0.0140433
0.0139762
0.0139082
0.0138393
0.0137699
0.0137001
0.0136302
0.0135603
0.0134907
0.0134214
0.0133528
0.013285
0.0132181
0.0131523
0.0130878
0.0130247
0.0129631
0.0129031
0.0128449
0.0127886
0.0127341
0.0126817
0.0126314
0.0125831
0.012537
0.0124932
0.0124515
0.0124122
0.0123751
0.0123403
0.0123078
0.0122776
0.0122497
0.0122241
0.0122008
0.0121797
0.012161
0.0121445
0.0121303
0.0121183
0.0121086
0.012101
0.0120957
0.0120924
0.0120912
0.0120919
0.0120945
0.0120988
0.0121044
0.0121111
0.0121184
0.0121258
0.0121323
0.012137
0.0121391
0.0158378
0.0158389
0.0158401
0.0158407
0.0158405
0.0158393
0.0158371
0.0158339
0.0158295
0.0158241
0.0158177
0.0158103
0.0158021
0.015793
0.0157831
0.0157725
0.0157611
0.0157491
0.0157365
0.0157233
0.0157095
0.0156952
0.0156803
0.015665
0.0156491
0.0156328
0.015616
0.0155988
0.0155811
0.015563
0.0155444
0.0155255
0.0155061
0.0154862
0.015466
0.0154454
0.0154244
0.015403
0.0153812
0.0153591
0.0153366
0.0153138
0.0152907
0.0152672
0.0152435
0.0152195
0.0151953
0.0151709
0.0151462
0.0151214
0.0150965
0.0150714
0.0150463
0.0150212
0.014996
0.0149709
0.0149458
0.0149209
0.0148962
0.0148716
0.0148473
0.0148233
0.0147997
0.0147765
0.0147538
0.0147316
0.01471
0.014689
0.0146687
0.0146491
0.0146304
0.0146125
0.0145956
0.0145797
0.0145648
0.014551
0.0145384
0.0145269
0.0145167
0.0145079
0.0145003
0.0144941
0.0144894
0.014486
0.0144842
0.0144838
0.0144848
0.0144874
0.0144914
0.014497
0.0145039
0.0145122
0.014522
0.014533
0.0145454
0.0145589
0.0145736
0.0145893
0.014606
0.0146235
0.0146418
0.0146606
0.01468
0.0146997
0.0147196
0.0147396
0.0147595
0.0147791
0.0147982
0.0148168
0.0148345
0.0148513
0.014867
0.0148814
0.0148943
0.0149055
0.0149149
0.0149223
0.0149276
0.0149305
0.0149311
0.0149291
0.0149244
0.0149169
0.0149066
0.0148933
0.014877
0.0148576
0.0148351
0.0148095
0.0147808
0.014749
0.0147141
0.0146763
0.0146354
0.0145917
0.0145453
0.0144961
0.0144445
0.0143904
0.0143341
0.0142758
0.0142155
0.0141535
0.0140899
0.0140251
0.013959
0.013892
0.0138243
0.013756
0.0136873
0.0136186
0.0135498
0.0134813
0.0134133
0.0133458
0.0132792
0.0132134
0.0131488
0.0130854
0.0130233
0.0129627
0.0129038
0.0128466
0.0127912
0.0127376
0.0126861
0.0126365
0.0125891
0.0125437
0.0125005
0.0124596
0.0124208
0.0123842
0.0123499
0.0123179
0.0122881
0.0122605
0.0122352
0.0122121
0.0121912
0.0121726
0.0121562
0.012142
0.0121299
0.01212
0.0121122
0.0121065
0.0121028
0.0121011
0.0121012
0.012103
0.0121064
0.0121111
0.0121167
0.012123
0.0121293
0.0121349
0.0121391
0.0121413
0.0158364
0.0158376
0.0158389
0.0158393
0.0158389
0.0158376
0.0158354
0.0158321
0.0158278
0.0158226
0.0158164
0.0158093
0.0158013
0.0157925
0.0157829
0.0157726
0.0157616
0.01575
0.0157377
0.0157249
0.0157114
0.0156975
0.015683
0.015668
0.0156525
0.0156365
0.0156201
0.0156032
0.0155858
0.0155681
0.0155499
0.0155312
0.0155122
0.0154928
0.0154729
0.0154526
0.015432
0.015411
0.0153896
0.0153679
0.0153458
0.0153234
0.0153007
0.0152777
0.0152544
0.0152308
0.015207
0.015183
0.0151588
0.0151344
0.0151099
0.0150853
0.0150606
0.0150358
0.0150111
0.0149864
0.0149617
0.0149372
0.0149128
0.0148886
0.0148647
0.014841
0.0148177
0.0147948
0.0147723
0.0147503
0.0147288
0.014708
0.0146878
0.0146684
0.0146497
0.0146319
0.0146149
0.0145989
0.0145839
0.0145699
0.0145571
0.0145454
0.0145349
0.0145257
0.0145177
0.014511
0.0145057
0.0145018
0.0144993
0.0144982
0.0144985
0.0145003
0.0145034
0.014508
0.014514
0.0145213
0.01453
0.0145399
0.0145511
0.0145634
0.0145769
0.0145913
0.0146066
0.0146228
0.0146397
0.0146572
0.0146751
0.0146934
0.0147118
0.0147303
0.0147487
0.0147669
0.0147846
0.0148018
0.0148181
0.0148336
0.0148479
0.0148609
0.0148725
0.0148825
0.0148908
0.0148971
0.0149013
0.0149033
0.0149029
0.0149
0.0148946
0.0148864
0.0148755
0.0148617
0.014845
0.0148253
0.0148026
0.0147768
0.0147481
0.0147163
0.0146816
0.0146439
0.0146034
0.0145602
0.0145142
0.0144657
0.0144147
0.0143614
0.014306
0.0142485
0.0141892
0.0141283
0.0140658
0.0140021
0.0139373
0.0138716
0.0138051
0.0137381
0.0136709
0.0136035
0.0135361
0.013469
0.0134024
0.0133363
0.013271
0.0132067
0.0131434
0.0130813
0.0130206
0.0129613
0.0129036
0.0128476
0.0127933
0.0127409
0.0126904
0.0126419
0.0125954
0.012551
0.0125087
0.0124685
0.0124305
0.0123946
0.0123609
0.0123295
0.0123002
0.012273
0.0122481
0.0122253
0.0122047
0.0121862
0.0121699
0.0121556
0.0121435
0.0121334
0.0121253
0.0121192
0.012115
0.0121126
0.012112
0.012113
0.0121154
0.012119
0.0121236
0.0121288
0.0121341
0.0121391
0.0121433
0.012146
0.0158355
0.015837
0.0158384
0.0158388
0.0158384
0.015837
0.0158347
0.0158315
0.0158273
0.0158221
0.0158161
0.0158092
0.0158014
0.0157929
0.0157836
0.0157736
0.0157629
0.0157515
0.0157395
0.015727
0.0157139
0.0157002
0.015686
0.0156713
0.0156562
0.0156405
0.0156244
0.0156079
0.0155908
0.0155734
0.0155555
0.0155372
0.0155185
0.0154994
0.0154799
0.01546
0.0154397
0.0154191
0.015398
0.0153767
0.015355
0.0153329
0.0153106
0.0152879
0.015265
0.0152418
0.0152184
0.0151948
0.015171
0.015147
0.0151229
0.0150986
0.0150743
0.0150499
0.0150255
0.0150011
0.0149768
0.0149526
0.0149285
0.0149046
0.0148809
0.0148575
0.0148344
0.0148117
0.0147893
0.0147675
0.0147462
0.0147254
0.0147053
0.0146859
0.0146672
0.0146493
0.0146323
0.0146161
0.0146009
0.0145868
0.0145737
0.0145617
0.0145508
0.0145412
0.0145328
0.0145256
0.0145198
0.0145153
0.0145121
0.0145103
0.0145099
0.0145109
0.0145132
0.014517
0.014522
0.0145284
0.0145361
0.014545
0.0145551
0.0145664
0.0145787
0.014592
0.0146061
0.0146211
0.0146368
0.014653
0.0146698
0.0146868
0.014704
0.0147213
0.0147385
0.0147554
0.014772
0.0147879
0.0148031
0.0148174
0.0148306
0.0148426
0.0148531
0.0148621
0.0148694
0.0148748
0.0148782
0.0148793
0.0148782
0.0148747
0.0148686
0.0148599
0.0148485
0.0148342
0.0148172
0.0147972
0.0147743
0.0147484
0.0147196
0.0146879
0.0146532
0.0146157
0.0145755
0.0145325
0.0144869
0.0144389
0.0143884
0.0143357
0.0142809
0.0142242
0.0141656
0.0141055
0.014044
0.0139811
0.0139173
0.0138526
0.0137871
0.0137213
0.0136551
0.0135888
0.0135226
0.0134567
0.0133912
0.0133263
0.0132622
0.0131989
0.0131368
0.0130759
0.0130163
0.0129581
0.0129015
0.0128466
0.0127933
0.0127419
0.0126924
0.0126448
0.0125992
0.0125556
0.0125141
0.0124747
0.0124374
0.0124021
0.0123691
0.0123381
0.0123093
0.0122826
0.012258
0.0122356
0.0122152
0.0121969
0.0121806
0.0121664
0.0121542
0.012144
0.0121357
0.0121293
0.0121247
0.0121218
0.0121206
0.012121
0.0121227
0.0121256
0.0121295
0.0121341
0.0121391
0.0121441
0.012149
0.0121525
0.0158355
0.0158372
0.0158388
0.0158393
0.0158388
0.0158374
0.0158351
0.0158319
0.0158277
0.0158226
0.0158167
0.0158099
0.0158024
0.015794
0.0157849
0.0157752
0.0157647
0.0157536
0.0157419
0.0157297
0.0157168
0.0157035
0.0156896
0.0156752
0.0156603
0.015645
0.0156292
0.0156129
0.0155962
0.0155791
0.0155616
0.0155436
0.0155252
0.0155064
0.0154872
0.0154677
0.0154477
0.0154274
0.0154067
0.0153857
0.0153643
0.0153427
0.0153207
0.0152984
0.0152758
0.015253
0.01523
0.0152067
0.0151832
0.0151595
0.0151358
0.0151118
0.0150878
0.0150638
0.0150397
0.0150156
0.0149916
0.0149676
0.0149438
0.0149201
0.0148966
0.0148734
0.0148505
0.0148279
0.0148057
0.0147839
0.0147626
0.0147419
0.0147218
0.0147023
0.0146836
0.0146655
0.0146484
0.014632
0.0146166
0.0146022
0.0145887
0.0145764
0.0145651
0.014555
0.0145461
0.0145385
0.0145321
0.0145269
0.0145231
0.0145207
0.0145195
0.0145197
0.0145213
0.0145241
0.0145283
0.0145338
0.0145405
0.0145485
0.0145576
0.0145678
0.0145791
0.0145913
0.0146044
0.0146183
0.0146329
0.0146481
0.0146637
0.0146796
0.0146958
0.014712
0.0147281
0.0147439
0.0147594
0.0147743
0.0147885
0.0148018
0.0148141
0.0148252
0.0148348
0.014843
0.0148495
0.0148541
0.0148567
0.0148572
0.0148555
0.0148514
0.0148448
0.0148356
0.0148238
0.0148092
0.0147918
0.0147716
0.0147485
0.0147225
0.0146936
0.0146618
0.0146273
0.0145899
0.0145498
0.0145071
0.0144618
0.0144141
0.014364
0.0143118
0.0142575
0.0142013
0.0141434
0.014084
0.0140231
0.013961
0.013898
0.0138341
0.0137695
0.0137045
0.0136393
0.0135739
0.0135087
0.0134437
0.0133792
0.0133154
0.0132522
0.0131901
0.013129
0.013069
0.0130104
0.0129533
0.0128977
0.0128437
0.0127914
0.0127409
0.0126923
0.0126456
0.0126008
0.012558
0.0125172
0.0124785
0.0124419
0.0124073
0.0123748
0.0123444
0.0123161
0.0122898
0.0122656
0.0122435
0.0122233
0.0122052
0.0121891
0.0121749
0.0121627
0.0121524
0.0121439
0.0121373
0.0121324
0.0121292
0.0121276
0.0121275
0.0121287
0.0121312
0.0121347
0.0121391
0.0121441
0.0121494
0.0121553
0.0121599
0.0158366
0.0158384
0.0158401
0.0158406
0.0158401
0.0158387
0.0158364
0.0158331
0.015829
0.015824
0.0158182
0.0158115
0.0158041
0.0157959
0.015787
0.0157774
0.0157672
0.0157564
0.0157449
0.0157329
0.0157204
0.0157073
0.0156937
0.0156796
0.015665
0.0156499
0.0156344
0.0156185
0.0156021
0.0155852
0.015568
0.0155503
0.0155323
0.0155138
0.0154949
0.0154757
0.0154561
0.0154361
0.0154157
0.015395
0.015374
0.0153527
0.015331
0.0153091
0.0152869
0.0152644
0.0152416
0.0152187
0.0151955
0.0151722
0.0151487
0.0151251
0.0151014
0.0150776
0.0150537
0.0150299
0.0150061
0.0149824
0.0149587
0.0149352
0.0149119
0.0148888
0.014866
0.0148435
0.0148213
0.0147996
0.0147783
0.0147576
0.0147373
0.0147178
0.0146989
0.0146807
0.0146633
0.0146467
0.014631
0.0146162
0.0146024
0.0145896
0.0145779
0.0145673
0.0145579
0.0145497
0.0145426
0.0145369
0.0145324
0.0145292
0.0145273
0.0145267
0.0145275
0.0145295
0.0145328
0.0145374
0.0145432
0.0145502
0.0145584
0.0145677
0.014578
0.0145892
0.0146013
0.0146142
0.0146278
0.014642
0.0146566
0.0146716
0.0146867
0.0147019
0.0147171
0.014732
0.0147466
0.0147606
0.0147739
0.0147864
0.0147978
0.0148081
0.0148171
0.0148245
0.0148303
0.0148343
0.0148363
0.0148362
0.014834
0.0148294
0.0148223
0.0148128
0.0148006
0.0147857
0.0147681
0.0147476
0.0147243
0.0146982
0.0146693
0.0146376
0.014603
0.0145657
0.0145258
0.0144832
0.0144381
0.0143907
0.0143409
0.0142891
0.0142352
0.0141795
0.014122
0.0140631
0.0140028
0.0139414
0.0138789
0.0138157
0.0137519
0.0136876
0.0136231
0.0135586
0.0134942
0.0134301
0.0133664
0.0133034
0.0132412
0.0131799
0.0131197
0.0130607
0.013003
0.0129468
0.0128921
0.012839
0.0127876
0.012738
0.0126902
0.0126442
0.0126003
0.0125583
0.0125182
0.0124802
0.0124442
0.0124103
0.0123784
0.0123485
0.0123207
0.0122949
0.012271
0.0122492
0.0122294
0.0122115
0.0121955
0.0121814
0.0121692
0.0121589
0.0121503
0.0121435
0.0121384
0.0121349
0.012133
0.0121326
0.0121335
0.0121357
0.0121391
0.0121434
0.0121486
0.0121545
0.0121615
0.0121672
0.0158389
0.0158407
0.0158424
0.0158429
0.0158424
0.015841
0.0158386
0.0158353
0.0158312
0.0158262
0.0158204
0.0158138
0.0158065
0.0157985
0.0157897
0.0157804
0.0157703
0.0157597
0.0157485
0.0157367
0.0157244
0.0157116
0.0156982
0.0156844
0.0156701
0.0156553
0.0156401
0.0156244
0.0156083
0.0155918
0.0155748
0.0155575
0.0155397
0.0155215
0.015503
0.0154841
0.0154647
0.0154451
0.015425
0.0154047
0.0153839
0.0153629
0.0153416
0.0153199
0.015298
0.0152758
0.0152534
0.0152307
0.0152079
0.0151848
0.0151616
0.0151382
0.0151148
0.0150912
0.0150676
0.0150439
0.0150203
0.0149967
0.0149733
0.0149499
0.0149266
0.0149036
0.0148808
0.0148583
0.0148362
0.0148144
0.014793
0.0147722
0.0147518
0.014732
0.0147129
0.0146945
0.0146768
0.0146599
0.0146438
0.0146286
0.0146144
0.0146011
0.0145889
0.0145778
0.0145678
0.0145589
0.0145513
0.0145448
0.0145396
0.0145357
0.014533
0.0145317
0.0145316
0.0145328
0.0145352
0.014539
0.0145439
0.01455
0.0145573
0.0145656
0.014575
0.0145853
0.0145965
0.0146085
0.0146212
0.0146344
0.0146481
0.0146622
0.0146765
0.0146909
0.0147052
0.0147193
0.0147331
0.0147463
0.0147589
0.0147707
0.0147815
0.0147911
0.0147994
0.0148062
0.0148115
0.0148149
0.0148165
0.014816
0.0148133
0.0148083
0.0148009
0.014791
0.0147786
0.0147634
0.0147456
0.014725
0.0147016
0.0146754
0.0146464
0.0146146
0.0145801
0.0145429
0.014503
0.0144606
0.0144157
0.0143684
0.0143189
0.0142673
0.0142137
0.0141584
0.0141013
0.0140428
0.0139829
0.013922
0.0138601
0.0137974
0.0137341
0.0136705
0.0136066
0.0135428
0.013479
0.0134156
0.0133527
0.0132905
0.013229
0.0131685
0.0131091
0.0130509
0.0129941
0.0129386
0.0128847
0.0128324
0.0127818
0.012733
0.012686
0.0126409
0.0125977
0.0125564
0.012517
0.0124797
0.0124444
0.0124111
0.0123797
0.0123504
0.012323
0.0122977
0.0122743
0.0122528
0.0122332
0.0122156
0.0121998
0.0121858
0.0121737
0.0121633
0.0121547
0.0121478
0.0121425
0.0121389
0.0121368
0.0121361
0.0121369
0.012139
0.0121424
0.0121468
0.0121524
0.012159
0.012167
0.0121738
0.0158423
0.0158441
0.0158458
0.0158462
0.0158456
0.0158441
0.0158416
0.0158383
0.0158342
0.0158292
0.0158234
0.0158169
0.0158097
0.0158018
0.0157932
0.0157839
0.0157741
0.0157636
0.0157526
0.015741
0.015729
0.0157164
0.0157033
0.0156897
0.0156756
0.0156611
0.0156462
0.0156308
0.0156149
0.0155987
0.015582
0.015565
0.0155475
0.0155296
0.0155114
0.0154927
0.0154737
0.0154543
0.0154346
0.0154145
0.0153941
0.0153733
0.0153523
0.0153309
0.0153093
0.0152874
0.0152652
0.0152428
0.0152202
0.0151974
0.0151744
0.0151512
0.0151279
0.0151046
0.0150811
0.0150576
0.0150341
0.0150106
0.0149872
0.0149639
0.0149407
0.0149177
0.0148949
0.0148723
0.0148501
0.0148282
0.0148067
0.0147856
0.0147651
0.014745
0.0147256
0.0147068
0.0146888
0.0146715
0.014655
0.0146393
0.0146246
0.0146108
0.014598
0.0145863
0.0145756
0.0145661
0.0145577
0.0145506
0.0145446
0.0145399
0.0145365
0.0145343
0.0145334
0.0145337
0.0145353
0.0145382
0.0145422
0.0145475
0.0145539
0.0145614
0.0145698
0.0145793
0.0145896
0.0146008
0.0146126
0.014625
0.014638
0.0146513
0.0146648
0.0146784
0.014692
0.0147054
0.0147185
0.0147311
0.0147431
0.0147543
0.0147645
0.0147736
0.0147814
0.0147878
0.0147926
0.0147956
0.0147968
0.0147959
0.0147929
0.0147877
0.01478
0.0147699
0.0147572
0.0147419
0.0147239
0.0147032
0.0146797
0.0146535
0.0146245
0.0145927
0.0145581
0.014521
0.0144812
0.0144388
0.014394
0.0143469
0.0142976
0.0142462
0.0141929
0.0141377
0.014081
0.0140228
0.0139633
0.0139027
0.0138412
0.0137789
0.0137161
0.013653
0.0135896
0.0135263
0.0134632
0.0134003
0.013338
0.0132764
0.0132156
0.0131558
0.0130971
0.0130396
0.0129835
0.0129288
0.0128756
0.0128241
0.0127742
0.0127261
0.0126798
0.0126354
0.0125929
0.0125523
0.0125137
0.012477
0.0124423
0.0124096
0.0123788
0.01235
0.0123232
0.0122983
0.0122753
0.0122542
0.0122349
0.0122175
0.0122019
0.0121882
0.0121761
0.0121658
0.0121572
0.0121502
0.0121449
0.0121411
0.0121389
0.0121382
0.0121389
0.012141
0.0121444
0.0121492
0.0121551
0.0121624
0.0121715
0.0121792
0.015847
0.0158487
0.0158502
0.0158505
0.0158498
0.0158481
0.0158456
0.0158422
0.015838
0.015833
0.0158272
0.0158207
0.0158136
0.0158057
0.0157972
0.0157881
0.0157784
0.0157681
0.0157573
0.0157459
0.015734
0.0157216
0.0157088
0.0156954
0.0156816
0.0156674
0.0156527
0.0156375
0.015622
0.015606
0.0155896
0.0155728
0.0155556
0.015538
0.01552
0.0155016
0.0154829
0.0154638
0.0154443
0.0154245
0.0154044
0.0153839
0.0153631
0.015342
0.0153206
0.0152989
0.015277
0.0152548
0.0152324
0.0152097
0.0151869
0.015164
0.0151408
0.0151176
0.0150942
0.0150708
0.0150474
0.015024
0.0150006
0.0149772
0.014954
0.0149309
0.014908
0.0148853
0.0148629
0.0148408
0.0148191
0.0147977
0.0147769
0.0147565
0.0147367
0.0147175
0.014699
0.0146812
0.0146642
0.014648
0.0146327
0.0146183
0.0146049
0.0145924
0.0145811
0.0145709
0.0145617
0.0145538
0.0145471
0.0145416
0.0145373
0.0145343
0.0145325
0.014532
0.0145328
0.0145348
0.014538
0.0145424
0.0145479
0.0145545
0.0145622
0.0145708
0.0145803
0.0145907
0.0146018
0.0146134
0.0146256
0.0146382
0.0146511
0.014664
0.014677
0.0146899
0.0147024
0.0147145
0.0147259
0.0147366
0.0147464
0.0147551
0.0147625
0.0147685
0.014773
0.0147758
0.0147767
0.0147756
0.0147723
0.0147669
0.0147591
0.0147488
0.014736
0.0147206
0.0147026
0.0146818
0.0146583
0.014632
0.0146029
0.0145712
0.0145367
0.0144995
0.0144598
0.0144176
0.0143729
0.0143259
0.0142767
0.0142255
0.0141723
0.0141174
0.0140608
0.0140029
0.0139436
0.0138833
0.0138221
0.0137602
0.0136978
0.013635
0.013572
0.0135091
0.0134465
0.0133841
0.0133224
0.0132613
0.013201
0.0131418
0.0130837
0.0130268
0.0129713
0.0129172
0.0128647
0.0128139
0.0127647
0.0127173
0.0126717
0.0126279
0.0125861
0.0125462
0.0125082
0.0124722
0.0124381
0.012406
0.0123758
0.0123475
0.0123211
0.0122967
0.0122741
0.0122534
0.0122345
0.0122173
0.012202
0.0121884
0.0121765
0.0121663
0.0121577
0.0121508
0.0121454
0.0121417
0.0121394
0.0121387
0.0121394
0.0121415
0.0121451
0.0121501
0.0121565
0.0121645
0.0121746
0.0121832
0.0158529
0.0158544
0.0158557
0.0158558
0.0158549
0.0158531
0.0158504
0.0158469
0.0158426
0.0158375
0.0158318
0.0158253
0.0158181
0.0158103
0.0158019
0.0157929
0.0157833
0.0157732
0.0157625
0.0157513
0.0157396
0.0157274
0.0157147
0.0157016
0.015688
0.015674
0.0156596
0.0156447
0.0156294
0.0156136
0.0155975
0.0155809
0.015564
0.0155467
0.0155289
0.0155108
0.0154923
0.0154735
0.0154543
0.0154347
0.0154148
0.0153945
0.015374
0.0153531
0.0153319
0.0153104
0.0152887
0.0152667
0.0152444
0.0152219
0.0151992
0.0151764
0.0151533
0.0151302
0.0151069
0.0150835
0.0150601
0.0150366
0.0150131
0.0149897
0.0149663
0.0149431
0.01492
0.0148971
0.0148744
0.0148521
0.01483
0.0148083
0.0147871
0.0147663
0.014746
0.0147263
0.0147073
0.0146889
0.0146713
0.0146545
0.0146385
0.0146234
0.0146093
0.0145961
0.014584
0.0145729
0.014563
0.0145543
0.0145467
0.0145403
0.0145352
0.0145313
0.0145286
0.0145273
0.0145272
0.0145283
0.0145306
0.0145342
0.0145389
0.0145447
0.0145515
0.0145594
0.0145682
0.0145778
0.0145881
0.0145991
0.0146107
0.0146226
0.0146349
0.0146473
0.0146597
0.0146721
0.0146841
0.0146958
0.0147069
0.0147172
0.0147266
0.014735
0.0147422
0.014748
0.0147522
0.0147548
0.0147555
0.0147543
0.014751
0.0147454
0.0147375
0.0147272
0.0147144
0.014699
0.0146809
0.0146601
0.0146366
0.0146104
0.0145814
0.0145497
0.0145152
0.0144782
0.0144385
0.0143964
0.0143518
0.0143049
0.0142558
0.0142047
0.0141517
0.0140969
0.0140405
0.0139827
0.0139237
0.0138636
0.0138027
0.013741
0.0136788
0.0136164
0.0135538
0.0134912
0.0134289
0.0133669
0.0133056
0.013245
0.0131852
0.0131265
0.0130688
0.0130125
0.0129575
0.0129041
0.0128521
0.0128019
0.0127533
0.0127065
0.0126616
0.0126185
0.0125773
0.012538
0.0125006
0.0124652
0.0124317
0.0124001
0.0123705
0.0123428
0.0123169
0.0122929
0.0122708
0.0122504
0.0122319
0.012215
0.0122
0.0121866
0.0121749
0.0121648
0.0121563
0.0121495
0.0121441
0.0121404
0.0121382
0.0121374
0.0121382
0.0121405
0.0121443
0.0121496
0.0121564
0.012165
0.0121759
0.0121853
0.01586
0.0158612
0.0158622
0.015862
0.0158609
0.0158589
0.015856
0.0158524
0.015848
0.0158428
0.015837
0.0158305
0.0158233
0.0158156
0.0158072
0.0157983
0.0157888
0.0157788
0.0157682
0.0157572
0.0157456
0.0157336
0.0157212
0.0157082
0.0156949
0.0156811
0.0156668
0.0156522
0.0156371
0.0156216
0.0156057
0.0155894
0.0155727
0.0155556
0.0155381
0.0155202
0.0155019
0.0154833
0.0154643
0.015445
0.0154253
0.0154052
0.0153848
0.0153641
0.0153431
0.0153218
0.0153002
0.0152783
0.0152562
0.0152338
0.0152112
0.0151884
0.0151654
0.0151422
0.0151189
0.0150955
0.0150719
0.0150484
0.0150248
0.0150012
0.0149776
0.0149541
0.0149308
0.0149076
0.0148846
0.0148618
0.0148393
0.0148172
0.0147954
0.0147741
0.0147533
0.014733
0.0147134
0.0146943
0.014676
0.0146584
0.0146417
0.0146258
0.0146109
0.0145969
0.0145839
0.014572
0.0145612
0.0145515
0.0145431
0.0145358
0.0145297
0.0145249
0.0145214
0.0145191
0.0145181
0.0145183
0.0145198
0.0145225
0.0145264
0.0145313
0.0145374
0.0145445
0.0145526
0.0145615
0.0145712
0.0145815
0.0145925
0.0146039
0.0146156
0.0146275
0.0146396
0.0146515
0.0146632
0.0146745
0.0146853
0.0146953
0.0147045
0.0147127
0.0147197
0.0147254
0.0147295
0.014732
0.0147327
0.0147315
0.0147282
0.0147226
0.0147148
0.0147045
0.0146917
0.0146764
0.0146584
0.0146377
0.0146143
0.0145882
0.0145593
0.0145277
0.0144934
0.0144564
0.0144169
0.0143748
0.0143304
0.0142836
0.0142347
0.0141837
0.0141308
0.0140761
0.0140199
0.0139623
0.0139034
0.0138435
0.0137827
0.0137212
0.0136593
0.013597
0.0135347
0.0134724
0.0134104
0.0133488
0.0132877
0.0132275
0.0131681
0.0131098
0.0130526
0.0129967
0.0129423
0.0128893
0.0128379
0.0127882
0.0127402
0.012694
0.0126496
0.0126071
0.0125665
0.0125278
0.012491
0.0124562
0.0124232
0.0123922
0.0123631
0.0123359
0.0123106
0.012287
0.0122653
0.0122454
0.0122272
0.0122107
0.0121959
0.0121827
0.0121712
0.0121613
0.012153
0.0121462
0.012141
0.0121373
0.0121351
0.0121345
0.0121354
0.0121378
0.0121418
0.0121474
0.0121546
0.0121637
0.0121754
0.0121853
0.0158682
0.0158691
0.0158697
0.0158692
0.0158678
0.0158655
0.0158625
0.0158586
0.0158541
0.0158488
0.0158429
0.0158364
0.0158292
0.0158214
0.0158131
0.0158042
0.0157948
0.0157849
0.0157744
0.0157635
0.0157521
0.0157403
0.015728
0.0157153
0.0157021
0.0156885
0.0156745
0.01566
0.0156451
0.0156299
0.0156142
0.0155981
0.0155816
0.0155647
0.0155474
0.0155298
0.0155117
0.0154933
0.0154745
0.0154553
0.0154358
0.0154159
0.0153957
0.0153751
0.0153542
0.015333
0.0153115
0.0152897
0.0152676
0.0152453
0.0152227
0.0151998
0.0151768
0.0151536
0.0151301
0.0151066
0.0150829
0.0150592
0.0150353
0.0150115
0.0149876
0.0149638
0.0149401
0.0149165
0.014893
0.0148698
0.0148468
0.0148241
0.0148017
0.0147798
0.0147583
0.0147373
0.0147169
0.0146971
0.014678
0.0146596
0.014642
0.0146252
0.0146093
0.0145944
0.0145805
0.0145677
0.0145559
0.0145452
0.0145358
0.0145275
0.0145205
0.0145147
0.0145102
0.014507
0.0145051
0.0145044
0.014505
0.0145068
0.0145098
0.014514
0.0145193
0.0145257
0.014533
0.0145413
0.0145503
0.0145601
0.0145705
0.0145814
0.0145927
0.0146042
0.0146158
0.0146274
0.0146388
0.0146499
0.0146605
0.0146704
0.0146795
0.0146876
0.0146945
0.0147002
0.0147043
0.0147069
0.0147076
0.0147065
0.0147032
0.0146978
0.0146901
0.0146801
0.0146675
0.0146523
0.0146345
0.014614
0.0145908
0.0145648
0.0145361
0.0145047
0.0144706
0.0144338
0.0143944
0.0143525
0.0143083
0.0142616
0.0142128
0.014162
0.0141092
0.0140547
0.0139986
0.0139412
0.0138824
0.0138227
0.013762
0.0137007
0.013639
0.0135769
0.0135147
0.0134527
0.0133909
0.0133295
0.0132688
0.0132088
0.0131498
0.0130918
0.013035
0.0129796
0.0129255
0.012873
0.012822
0.0127728
0.0127253
0.0126796
0.0126358
0.0125938
0.0125538
0.0125156
0.0124794
0.0124451
0.0124128
0.0123823
0.0123537
0.012327
0.0123021
0.0122791
0.0122578
0.0122382
0.0122204
0.0122042
0.0121897
0.0121769
0.0121656
0.0121559
0.0121477
0.0121411
0.0121359
0.0121324
0.0121303
0.0121297
0.0121307
0.0121333
0.0121375
0.0121434
0.012151
0.0121605
0.0121727
0.0121832
0.0158775
0.015878
0.0158781
0.0158773
0.0158755
0.015873
0.0158697
0.0158656
0.0158609
0.0158555
0.0158495
0.0158429
0.0158356
0.0158278
0.0158195
0.0158107
0.0158013
0.0157915
0.0157811
0.0157704
0.0157591
0.0157474
0.0157353
0.0157227
0.0157097
0.0156963
0.0156824
0.0156682
0.0156535
0.0156384
0.0156229
0.015607
0.0155907
0.015574
0.0155569
0.0155394
0.0155216
0.0155033
0.0154847
0.0154656
0.0154463
0.0154265
0.0154064
0.0153859
0.0153651
0.015344
0.0153225
0.0153007
0.0152786
0.0152562
0.0152336
0.0152106
0.0151875
0.0151641
0.0151405
0.0151168
0.0150929
0.0150688
0.0150447
0.0150205
0.0149962
0.014972
0.0149478
0.0149236
0.0148996
0.0148758
0.0148521
0.0148287
0.0148057
0.014783
0.0147607
0.0147389
0.0147176
0.0146969
0.0146768
0.0146575
0.0146389
0.0146212
0.0146043
0.0145884
0.0145734
0.0145595
0.0145467
0.014535
0.0145244
0.0145151
0.0145071
0.0145002
0.0144947
0.0144905
0.0144876
0.014486
0.0144856
0.0144865
0.0144887
0.0144921
0.0144966
0.0145022
0.0145089
0.0145164
0.0145249
0.0145341
0.014544
0.0145545
0.0145653
0.0145765
0.0145878
0.0145992
0.0146104
0.0146213
0.0146318
0.0146416
0.0146507
0.0146588
0.0146658
0.0146715
0.0146758
0.0146785
0.0146795
0.0146785
0.0146755
0.0146704
0.014663
0.0146532
0.0146409
0.014626
0.0146085
0.0145883
0.0145654
0.0145398
0.0145114
0.0144802
0.0144464
0.0144099
0.0143707
0.0143291
0.014285
0.0142386
0.01419
0.0141394
0.0140868
0.0140325
0.0139766
0.0139192
0.0138606
0.013801
0.0137405
0.0136794
0.0136178
0.0135559
0.0134939
0.013432
0.0133704
0.0133093
0.0132488
0.0131891
0.0131303
0.0130726
0.0130161
0.012961
0.0129073
0.0128552
0.0128047
0.0127559
0.0127088
0.0126636
0.0126202
0.0125788
0.0125392
0.0125016
0.0124659
0.0124321
0.0124003
0.0123704
0.0123423
0.0123161
0.0122917
0.0122691
0.0122482
0.0122291
0.0122116
0.0121958
0.0121816
0.012169
0.012158
0.0121485
0.0121405
0.012134
0.012129
0.0121256
0.0121236
0.0121232
0.0121243
0.012127
0.0121314
0.0121375
0.0121453
0.0121553
0.012168
0.0121788
0.0158877
0.0158879
0.0158875
0.0158862
0.0158841
0.0158812
0.0158776
0.0158733
0.0158684
0.0158628
0.0158567
0.0158499
0.0158427
0.0158348
0.0158265
0.0158177
0.0158083
0.0157986
0.0157883
0.0157776
0.0157665
0.0157549
0.0157429
0.0157305
0.0157177
0.0157044
0.0156907
0.0156766
0.0156621
0.0156472
0.0156319
0.0156162
0.0156
0.0155835
0.0155666
0.0155492
0.0155315
0.0155134
0.0154948
0.0154759
0.0154566
0.0154369
0.0154169
0.0153965
0.0153757
0.0153545
0.015333
0.0153112
0.015289
0.0152666
0.0152438
0.0152207
0.0151973
0.0151737
0.0151499
0.0151258
0.0151015
0.0150771
0.0150526
0.0150279
0.0150031
0.0149783
0.0149535
0.0149287
0.0149041
0.0148795
0.0148551
0.0148309
0.014807
0.0147834
0.0147602
0.0147374
0.0147151
0.0146934
0.0146723
0.0146519
0.0146322
0.0146133
0.0145953
0.0145782
0.0145621
0.014547
0.014533
0.0145201
0.0145085
0.014498
0.0144888
0.0144809
0.0144743
0.014469
0.014465
0.0144624
0.0144611
0.0144611
0.0144623
0.0144649
0.0144686
0.0144734
0.0144794
0.0144863
0.0144942
0.0145029
0.0145123
0.0145224
0.0145329
0.0145437
0.0145548
0.014566
0.014577
0.0145879
0.0145983
0.0146082
0.0146173
0.0146256
0.0146328
0.0146387
0.0146433
0.0146463
0.0146475
0.0146469
0.0146443
0.0146396
0.0146326
0.0146232
0.0146113
0.0145969
0.0145798
0.0145601
0.0145376
0.0145124
0.0144844
0.0144537
0.0144202
0.0143841
0.0143453
0.0143041
0.0142603
0.0142142
0.0141659
0.0141155
0.0140632
0.0140091
0.0139534
0.0138962
0.0138378
0.0137784
0.0137181
0.0136571
0.0135956
0.0135339
0.0134721
0.0134103
0.0133489
0.013288
0.0132277
0.0131682
0.0131096
0.0130522
0.012996
0.0129412
0.0128878
0.012836
0.0127858
0.0127374
0.0126908
0.012646
0.0126031
0.0125621
0.012523
0.0124858
0.0124506
0.0124174
0.012386
0.0123566
0.012329
0.0123032
0.0122793
0.0122571
0.0122367
0.012218
0.0122009
0.0121854
0.0121715
0.0121592
0.0121485
0.0121392
0.0121314
0.0121251
0.0121202
0.0121169
0.0121151
0.0121147
0.012116
0.0121188
0.0121233
0.0121296
0.0121377
0.0121479
0.0121609
0.0121721
0.0158989
0.0158986
0.0158977
0.0158959
0.0158934
0.0158902
0.0158863
0.0158817
0.0158765
0.0158708
0.0158645
0.0158576
0.0158502
0.0158423
0.015834
0.0158251
0.0158159
0.0158061
0.0157959
0.0157853
0.0157743
0.0157628
0.0157509
0.0157387
0.0157259
0.0157128
0.0156993
0.0156854
0.015671
0.0156562
0.0156411
0.0156255
0.0156095
0.0155931
0.0155763
0.015559
0.0155414
0.0155234
0.0155049
0.0154861
0.0154668
0.0154472
0.0154271
0.0154067
0.0153858
0.0153646
0.015343
0.0153211
0.0152988
0.0152761
0.0152531
0.0152298
0.0152061
0.0151822
0.015158
0.0151335
0.0151088
0.0150839
0.0150588
0.0150335
0.0150081
0.0149826
0.0149571
0.0149316
0.014906
0.0148806
0.0148553
0.0148302
0.0148052
0.0147806
0.0147563
0.0147325
0.014709
0.0146862
0.0146638
0.0146422
0.0146213
0.0146011
0.0145818
0.0145635
0.0145461
0.0145297
0.0145144
0.0145003
0.0144873
0.0144756
0.0144652
0.014456
0.0144482
0.0144418
0.0144367
0.014433
0.0144306
0.0144297
0.01443
0.0144316
0.0144345
0.0144386
0.0144438
0.0144501
0.0144574
0.0144656
0.0144746
0.0144842
0.0144944
0.014505
0.0145159
0.0145269
0.014538
0.0145488
0.0145593
0.0145693
0.0145786
0.0145871
0.0145946
0.0146009
0.0146058
0.0146092
0.0146109
0.0146108
0.0146087
0.0146045
0.0145981
0.0145893
0.014578
0.0145642
0.0145477
0.0145286
0.0145067
0.0144821
0.0144547
0.0144245
0.0143916
0.014356
0.0143177
0.0142769
0.0142336
0.014188
0.0141401
0.01409
0.014038
0.0139843
0.0139288
0.0138719
0.0138138
0.0137546
0.0136945
0.0136337
0.0135724
0.0135108
0.0134492
0.0133876
0.0133264
0.0132656
0.0132055
0.0131462
0.0130879
0.0130307
0.0129747
0.0129201
0.012867
0.0128155