/*--------------------------------*- C++ -*----------------------------------*\
  =========                 |
  \\      /  F ield         | OpenFOAM: The Open Source CFD Toolbox
   \\    /   O peration     | Website:  https://openfoam.org
    \\  /    A nd           | Version:  6
     \\/     M anipulation  |
\*---------------------------------------------------------------------------*/
FoamFile
{
    version     2.0;
    format      ascii;
    class       volVectorField;
    location    "0";
    object      U_rec;
}
// * * * * * * * * * * * * * * * * * * * * * * * * * * * * * * * * * * * * * //

dimensions      [0 1 -1 0 0 0 0];

internalField   nonuniform List<vector> 
918
(
(0.994199 -0.00206365 0)
(-0.0078733 2.98624 0)
(-0.00366542 1.73404 0)
(0.98282 0.00994445 0)
(-0.019065 1.69643 5.26293e-17)
(0.00425016 2.97666 -2.56869e-17)
(1.0984 1.55813 3.48506e-18)
(0.516307 0.285944 2.32611e-19)
(1.00119 -0.00316139 0)
(0.00147576 1.7479 0)
(0.00737323 1.70901 0)
(0.928499 0.0146843 0)
(0.00700201 2.97402 0)
(-0.00676483 2.89701 0)
(-0.00683024 2.96077 1.64489e-17)
(0.0121829 1.68789 3.16143e-17)
(0.704746 0.157699 -4.80598e-19)
(0.21102 2.02404 -3.4093e-17)
(0.996313 0.0296076 0)
(0.00187028 1.71265 0)
(0.0286509 0.106136 5.34937e-18)
(0.989852 0.0140945 0)
(1.00323 0.00966354 0)
(0.993749 0.0153069 0)
(0.860316 0.00856977 0)
(0.0209511 2.89878 0)
(-0.0060522 2.9438 -8.55142e-17)
(0.000526868 1.74507 0)
(0.010392 1.76819 0)
(0.0101975 1.75703 0)
(-0.010443 1.78516 0)
(-0.00555719 1.71718 5.24052e-17)
(-0.00705173 1.68569 0)
(-0.00520122 3.00097 5.58841e-22)
(0.00356429 3.01588 -5.18508e-17)
(0.0170356 3.00473 0)
(0.973156 0.00809979 0)
(0.467222 0.701728 -1.07574e-17)
(1.04078 1.61425 -9.70172e-18)
(1.16936 1.33743 2.3006e-17)
(0.902432 1.81926 8.84551e-18)
(0.949426 1.78133 1.38296e-17)
(0.54388 0.336502 4.7795e-20)
(0.558128 0.278247 0)
(1.28717 0.669827 0)
(0.49468 0.341891 2.89294e-20)
(0.465857 0.281814 8.59264e-19)
(0.959894 0.00508354 0)
(1.0004 2.57955e-05 0)
(1.00209 0.00403733 0)
(0.980967 0.00177826 0)
(0.988908 0.00291677 0)
(1.00291 0.0102684 0)
(0.0167734 1.62463 4.06744e-18)
(0.0142411 1.80852 0)
(0.0459795 1.79375 0)
(-0.00342994 1.78697 0)
(0.00023111 1.7273 0)
(0.00314499 1.68759 0)
(0.00152243 1.7395 0)
(-0.000566395 1.70874 0)
(-0.000264735 1.74061 0)
(0.0114047 1.70748 0)
(0.992932 -7.00118e-05 0)
(0.957338 0.0122411 0)
(0.938591 0.00365309 0)
(0.939348 0.0234906 0)
(0.915302 0.0107963 0)
(-0.0151846 3.03454 2.2679e-17)
(-0.00219755 2.96556 0)
(-0.0250908 3.01089 0)
(0.0289443 3.0304 -5.68924e-23)
(0.00167047 3.02094 3.60867e-17)
(0.0221372 2.99799 0)
(0.0102249 2.94106 0)
(-0.00347461 2.96691 -1.38625e-23)
(-0.00249253 2.89902 0)
(-0.000578728 2.97428 0)
(-0.015785 2.88907 0)
(0.248672 3.21885 0)
(-0.063179 3.30928 0)
(0.0975843 3.01743 6.46167e-18)
(0.00781525 2.84158 0)
(0.00129038 1.74871 0)
(0.00681578 1.72449 3.06163e-17)
(0.0106463 1.69375 3.16927e-17)
(0.719835 0.181706 -4.02907e-18)
(0.716524 0.12851 2.3764e-18)
(0.710251 0.213395 1.97664e-17)
(0.671562 0.195548 -7.82021e-18)
(0.16969 1.39954 0)
(0.336267 2.10733 -4.13184e-17)
(0.450301 2.0725 -3.41988e-17)
(0.990402 0.0286257 0)
(0.961557 0.0280674 0)
(1.00257 -0.00682685 0)
(0.995875 0.00357591 0)
(1.0173 0.0279683 1.33316e-16)
(0.994109 0.00692517 1.0902e-16)
(-0.00367363 1.73821 0)
(-0.00534111 1.70995 0)
(0.00335045 1.75644 0)
(-0.000281463 1.74467 0)
(0.0162628 1.71476 0)
(0.031583 0.337617 -2.51536e-18)
(0.273726 0.215881 0)
(1.01775 -0.00735291 0)
(0.999697 0.00474521 0)
(0.922571 0.00974802 0)
(0.903463 0.0211598 0)
(0.911966 -0.00122864 0)
(1.12147 0.00273167 0)
(0.851822 0.0635684 0)
(0.790825 0.0499295 1.80843e-17)
(-0.0281334 2.86613 1.99578e-17)
(0.00575256 2.98863 0)
(-0.0355903 3.01919 0)
(-0.00771643 2.87396 0)
(-0.00911693 2.98948 -3.19342e-17)
(-0.0118998 2.93371 0)
(-0.00778869 2.99468 -1.08028e-17)
(-0.00277853 2.95877 2.14063e-17)
(0.006175 1.75938 0)
(0.004842 1.75402 0)
(0.00293236 1.72793 -1.21482e-21)
(-0.00613213 1.72086 0)
(-0.00568463 1.68751 0)
(0.994224 0.00883167 0)
(0.97814 0.00468723 0)
(0.957231 -0.0100408 0)
(0.987334 0.00956865 0)
(0.966419 -0.00223386 0)
(0.560051 0.972778 -3.99646e-18)
(0.48757 0.958347 0)
(0.626327 0.909349 -1.26401e-18)
(0.5184 0.659238 0)
(1.12553 1.38843 1.59589e-17)
(1.23634 1.09506 3.6568e-18)
(0.54627 2.09717 0)
(0.734553 1.99058 0)
(0.73864 1.97476 0)
(0.568527 1.17867 -5.03955e-18)
(0.60665 0.309661 0)
(0.617837 0.241673 -4.03563e-18)
(1.19422 1.15837 0)
(1.2409 0.937648 0)
(1.26787 0.883995 -3.83241e-18)
(1.27193 0.711712 0)
(1.30552 0.49463 -2.65468e-17)
(0.985941 -0.00488158 0)
(0.983388 0.00343438 0)
(0.963902 -0.00645446 0)
(0.994884 0.00218523 0)
(0.980349 -0.000637979 0)
(0.969592 0.0024996 0)
(0.993335 -0.00282515 0)
(0.993197 0.00263248 0)
(1.00158 -0.000116963 0)
(0.0307081 1.62112 2.72618e-17)
(0.0336935 1.56692 0)
(0.00424004 1.66148 -3.34859e-18)
(-0.0120735 1.64247 3.69336e-18)
(0.170336 1.99435 -3.95222e-17)
(0.0613704 1.85315 0)
(0.0770806 1.8788 0)
(0.0106235 1.76877 0)
(0.00222611 1.71619 0)
(1.06015e-05 1.70707 2.59622e-20)
(-0.000951095 1.67737 0)
(-0.00228422 1.71711 -2.97999e-17)
(-0.0102091 1.68737 -2.20012e-18)
(-0.00755136 1.75459 0)
(-0.0101229 1.7462 0)
(-0.0140437 1.71095 0)
(0.00647261 1.73825 0)
(0.00432668 1.71246 0)
(1.02154 0.00135483 0)
(0.999486 0.00534449 0)
(1.01239 0.0148683 0)
(0.982062 0.0163484 0)
(0.954919 0.00280616 0)
(0.975998 0.00351431 0)
(0.972692 0.00864494 0)
(0.957947 -0.00855889 0)
(-0.00101209 3.04344 4.76826e-20)
(0.00413843 3.03668 0)
(0.00831784 2.98259 0)
(0.00569673 2.92554 0)
(0.879178 3.67084 0)
(1.21067 2.69983 -1.07996e-18)
(0.0295321 2.92396 0)
(-0.00782934 2.80935 0)
(-0.00274632 1.73939 0)
(-0.000589248 1.74919 0)
(-0.00296273 1.74456 0)
(-0.00543492 1.77668 -7.00699e-17)
(-0.00113679 1.74667 0)
(-0.00466293 1.76543 0)
(-0.00665677 1.69698 -6.22589e-17)
(-0.0115174 1.72752 -3.1892e-17)
(-0.00107241 1.7333 3.043e-17)
(-0.00275471 1.69858 0)
(0.754804 0.137886 -1.76381e-17)
(0.742422 0.0739924 -1.00568e-17)
(0.184229 1.41698 0)
(0.259048 1.36558 7.89527e-19)
(0.12206 1.43308 -2.43111e-17)
(0.114157 1.43528 -2.94733e-17)
(0.951633 -1.84262e-05 0)
(0.978262 -0.000568311 0)
(0.980199 0.0129057 0)
(0.953981 0.00562108 0)
(0.00559109 1.73963 0)
(0.00141808 1.73711 0)
(-0.000209158 1.71048 0)
(0.411316 0.354102 -2.06583e-18)
(0.288366 0.35171 1.8603e-18)
(0.391859 0.258297 0)
(1.21006 0.0966675 -6.1427e-19)
(1.2111 0.0620987 0)
(1.12536 0.0531886 0)
(1.0603 0.0110355 0)
(0.777282 0.0960465 0)
(0.794503 0.0752209 3.36366e-17)
(0.771935 0.0370231 -2.10457e-17)
(-0.0233133 2.95687 -3.183e-17)
(-0.0301624 2.89331 -5.28664e-17)
(-0.00692469 3.02939 9.19544e-20)
(0.0196009 3.01383 -3.42287e-17)
(-0.0129649 3.00128 -1.902e-19)
(-0.00693786 2.97696 7.27473e-22)
(-0.016877 3.01366 -2.5989e-18)
(-0.00261385 2.97676 -7.97212e-18)
(0.0371488 3.00877 -2.65059e-17)
(1.00798 0.0105208 0)
(1.00717 0.00802526 0)
(0.984863 0.00926211 0)
(0.980538 -0.00709376 0)
(0.985397 -0.00481084 0)
(0.961967 -0.0157858 0)
(0.978012 0.00927323 0)
(0.978799 -0.00124971 0)
(0.956441 0.0032161 0)
(0.597435 1.18585 3.65435e-18)
(0.655961 1.26071 0)
(0.582298 0.916211 1.1953e-18)
(0.63375 1.04836 -3.30132e-18)
(0.653232 0.959964 -1.12624e-17)
(0.541049 0.755376 -1.7305e-17)
(0.496051 1.2922 -8.64717e-19)
(0.508539 1.25809 1.77481e-17)
(0.670952 0.255149 -1.17144e-17)
(0.639045 0.2761 -3.48335e-18)
(0.640446 0.228688 3.56997e-18)
(1.30571 0.523522 -2.2627e-17)
(1.31054 0.313385 4.24575e-18)
(-0.00829673 1.67517 -3.17767e-17)
(-0.00470394 1.65755 0)
(1.0695 0.029178 0)
(1.04049 0.0208467 0)
(1.03236 0.00140614 0)
(0.00761292 3.04789 0)
(0.00719825 2.96776 -3.42105e-17)
(0.00731776 2.97528 0)
(0.00151643 2.91175 -1.95866e-17)
(0.0111209 3.05761 1.36971e-17)
(0.00498351 3.05285 0)
(0.631123 1.50748 -3.4428e-18)
(1.05211 2.19011 -8.15616e-18)
(0.707895 1.63972 -1.55004e-17)
(-0.0195598 2.92846 3.14333e-17)
(-0.00530011 2.90723 0)
(-0.0162119 2.83441 0)
(-0.00472009 1.71016 6.18165e-17)
(0.00512649 1.728 1.54416e-18)
(0.00946275 1.6951 6.17233e-17)
(0.250866 1.3723 -1.54362e-17)
(0.320841 1.33854 -1.07664e-17)
(0.0380258 1.55933 -3.01787e-17)
(0.0749514 1.49272 -2.52971e-17)
(0.0484521 1.48785 -5.57616e-17)
(-0.00700746 3.06321 1.18355e-16)
(-0.000974129 3.0637 9.26146e-17)
(-0.00437937 2.99001 2.17855e-17)
(-0.024953 2.9775 -2.11644e-17)
(-0.0184411 2.92827 3.21186e-17)
(0.0172652 3.06153 -7.9611e-17)
(0.0019873 3.05644 -1.22484e-16)
(0.557373 1.22116 0)
(0.60599 1.14706 -3.49868e-18)
(0.592105 1.07696 -1.60607e-17)
(0.420128 1.3197 2.78434e-17)
(0.445773 1.29041 2.41598e-17)
(1.29271 0.19836 -2.61219e-18)
(1.30935 0.336677 0)
(1.2898 0.166794 2.14612e-18)
(-0.00211668 1.70656 2.53048e-20)
(0.0033476 1.69339 0)
(0.00602701 1.67096 0)
(0.303223 1.3469 1.20779e-18)
(0.36209 1.34361 -2.93339e-17)
(0.386342 1.31593 -2.8873e-17)
(1.00262 -0.0408013 0)
(0.989788 -0.0250238 1.08434e-17)
(0.00502816 1.75767 0)
(-0.00301506 1.77413 0)
(0.986784 -0.00652162 4.27173e-19)
(1.00548 -0.00603822 1.32185e-17)
(-0.000801956 1.76808 -6.97182e-17)
(-0.00488954 1.76809 0)
(0.0163481 3.03147 2.11401e-17)
(0.332069 3.1329 0)
(1.10609 0.688371 -2.35781e-17)
(1.0034 -0.00205675 7.79227e-17)
(1.00419 0.00702442 0)
(1.00323 -0.00851414 3.25319e-19)
(0.0274113 1.85799 0)
(0.0563046 1.63979 0)
(0.00365324 1.7792 0)
(0.00701334 1.7494 -7.01523e-17)
(0.00916546 1.73656 6.77571e-17)
(0.986516 0.0115111 7.63728e-17)
(1.03145 6.74629e-06 0)
(1.04802 0.0318275 0)
(-0.0001132 1.7494 0)
(-0.00883549 1.76766 0)
(-0.006826 1.775 0)
(0.218861 1.96977 -7.81247e-17)
(0.998058 -0.0324706 0)
(0.989571 -0.031407 0)
(1.00074 -0.000510575 -2.01177e-17)
(0.993618 -0.00674624 2.54259e-17)
(0.988362 0.00127598 0)
(-0.00106212 1.73733 0)
(0.00680512 1.74676 0)
(0.00149188 1.73892 0)
(-0.000454599 1.77553 0)
(-0.0113203 1.76662 0)
(-0.00687158 1.76815 0)
(1.01609 0.00365949 0)
(1.00767 0.00266737 7.80796e-17)
(0.762992 1.55099 -2.35337e-20)
(1.00893 -0.00572676 2.04456e-17)
(0.995637 0.00639709 -2.51684e-17)
(0.991699 0.00429569 0)
(1.00473 0.00618587 3.17557e-17)
(0.986835 -0.00142918 4.68838e-17)
(0.984942 -0.00208709 0)
(-0.00676843 1.77119 0)
(-0.00388672 1.7676 -3.57058e-17)
(-0.00516941 1.77046 -3.11713e-17)
(1.1511 0.252995 -5.84688e-17)
(1.08874 0.0704164 0)
(-0.158034 2.96665 2.89732e-17)
(-0.199315 3.18788 7.5574e-19)
(0.0601551 3.05254 4.03042e-17)
(0.018265 3.03186 3.45528e-17)
(0.0979238 3.03547 0)
(-0.0106834 3.04729 1.15034e-17)
(-0.0392265 3.1366 1.87458e-17)
(-0.0334812 3.0535 1.81134e-17)
(-0.0288325 3.09216 0)
(0.655169 0.344931 0)
(0.55431 0.387966 0)
(1.02054 0.79638 2.52466e-17)
(1.07064 0.885371 3.73567e-17)
(1.15503 0.612835 0)
(1.16696 0.55337 0)
(1.01247 -0.00593728 1.56362e-17)
(1.01607 -0.00286258 -1.68075e-17)
(1.01704 0.0130479 0)
(1.01858 0.0108222 0)
(1.0086 0.00863487 0)
(1.00683 0.00997542 0)
(1.02402 -0.00975898 0)
(1.01587 0.0134705 0)
(1.01522 0.0242029 0)
(1.01521 0.0148855 0)
(0.0338375 1.85454 0)
(0.0131312 1.85503 0)
(0.0628068 1.88413 0)
(0.0367179 1.90382 0)
(0.0621087 1.63236 0)
(0.0546245 1.62013 3.30447e-17)
(0.0527225 1.66313 0)
(0.0274198 1.66128 2.91121e-17)
(0.0268437 1.72926 -6.30167e-17)
(-0.00353123 1.78076 0)
(-0.00763388 1.77807 0)
(0.0142137 1.78498 0)
(0.00460355 1.80361 0)
(0.0112946 1.76386 -6.79885e-17)
(-0.00970253 1.74812 -4.52728e-17)
(0.00617069 1.75566 3.33746e-17)
(0.0031136 1.75925 0)
(0.0284615 1.75554 3.03789e-17)
(0.00988388 1.76186 -6.4759e-17)
(-0.0230546 1.7733 -1.06226e-16)
(-0.00506546 1.7434 -4.22617e-17)
(0.000272392 1.74627 3.6919e-17)
(0.991227 0.0217194 -1.05036e-17)
(0.995078 0.0138536 1.49221e-17)
(0.985938 0.0117174 1.47334e-17)
(0.970145 0.0087339 -1.41444e-17)
(1.03116 -0.00180489 0)
(1.03562 -0.012669 0)
(1.0405 0.0261106 0)
(1.04312 0.0174273 0)
(1.05607 0.02025 0)
(1.06526 0.0632915 0)
(1.06384 0.0495092 0)
(1.07563 0.0404014 0)
(-0.00299611 1.77182 9.14921e-18)
(-0.00689419 1.7423 0)
(-0.00904674 1.7503 0)
(-0.005856 1.77053 -1.3941e-17)
(-0.00606642 1.77458 3.19028e-20)
(0.000634918 1.73799 4.02026e-17)
(-0.00841765 1.74003 4.1205e-17)
(0.0112611 1.7549 0)
(-0.0101971 1.7516 0)
(-0.00445378 1.74469 0)
(0.00375544 1.7736 0)
(-0.000151684 1.77378 0)
(0.364476 1.97765 -4.83705e-17)
(0.370748 1.97369 3.92989e-17)
(0.257473 1.46364 3.37368e-19)
(0.100048 1.5218 2.61061e-17)
(0.270955 1.60807 3.31409e-17)
(1.00017 -0.00191026 0)
(0.988587 -0.0220852 0)
(0.99105 -0.0139971 0)
(1.02812 -0.00199635 0)
(1.00417 -0.0135251 0)
(0.992036 -0.0172256 0)
(0.981215 0.00401848 0)
(1.00292 0.0257739 0)
(1.00259 0.00775964 -1.07124e-17)
(1.00871 0.0133888 1.61911e-17)
(1.00633 -0.00372308 1.5013e-17)
(1.00813 -0.0060958 -1.57181e-17)
(0.698391 1.68609 0)
(0.651113 1.7631 -6.84051e-17)
(0.838119 1.43413 6.69559e-17)
(0.897824 1.33932 5.92482e-17)
(0.81472 1.82682 -2.71485e-17)
(0.837649 0.118918 -2.00629e-17)
(1.10909 0.122029 0)
(1.11066 0.1807 -8.36956e-17)
(1.14767 0.135849 2.52776e-19)
(0.9482 0.130761 0)
(0.0479606 2.7247 4.58611e-17)
(-0.253088 2.62379 6.75073e-17)
(-0.696153 2.59039 4.46508e-18)
(-0.524549 0.230658 -9.85164e-18)
(0.212184 3.11085 -1.4484e-17)
(0.0932994 3.06739 0)
(0.177204 3.08718 -6.77131e-18)
(0.118256 2.79518 7.64341e-17)
(0.32667 2.87272 0)
(-0.00559271 3.05746 -4.90844e-19)
(-0.0147123 3.07187 -1.971e-17)
(0.0136108 3.09835 -3.00477e-17)
(-0.0118768 3.11537 0)
(-0.0219765 3.06703 0)
(0.897879 2.03728 0)
(0.419157 0.820872 4.65106e-17)
(1.00455 1.12438 -3.30437e-17)
(0.960374 1.22021 0)
(0.7441 1.11214 -1.22504e-17)
(1.00858 1.00015 -5.67458e-17)
(0.274845 0.530308 6.32334e-19)
(0.656136 0.344351 1.1082e-17)
(0.679561 0.312818 1.05547e-17)
(0.495185 0.450683 -1.14311e-20)
(0.481179 0.403712 4.83516e-18)
(0.625093 0.38029 0)
(0.624985 0.453121 8.36097e-18)
(0.640984 0.411671 0)
(0.56305 0.396845 0)
(0.604353 0.363865 0)
(0.701703 0.653498 2.93537e-17)
(1.18144 0.343149 3.84184e-17)
(1.16439 0.46364 0)
(1.18093 0.404925 0)
(0.761783 0.237605 1.64886e-17)
(0.73488 0.572114 3.43415e-17)
(0.656007 0.517396 8.16998e-18)
(0.86255 0.437566 -7.17972e-17)
(1.00695 0.00827071 2.80116e-17)
(1.01413 -0.0027763 4.58e-17)
(1.00951 0.00424865 0)
(1.012 0.00773343 0)
(1.01515 -0.00770674 -2.74448e-17)
(1.01195 -0.00969041 -4.37487e-17)
(1.00671 -0.0139088 0)
(0.991704 -0.00196764 0)
(1.01084 -0.000202663 0)
(1.01492 -0.00776713 0)
(1.00773 0.0019978 0)
(1.00865 0.00754377 0)
(0.0227662 1.84309 0)
(0.0162604 1.83374 0)
(0.0806262 1.85186 -4.62315e-17)
(0.198794 1.96826 -3.53555e-17)
(0.088393 1.9449 7.38398e-17)
(0.101535 1.97685 2.84027e-17)
(0.1329 1.86566 0)
(0.120262 1.73079 6.82816e-17)
(0.0909049 1.75045 0)
(0.228965 1.63018 3.56623e-17)
(0.188845 1.57344 -4.31071e-17)
(0.145144 1.76301 6.33182e-17)
(0.223021 1.86175 -3.64907e-17)
(0.164803 1.86697 -3.90164e-17)
(0.238447 1.80995 -6.72608e-18)
(0.180353 1.72898 0)
(0.232024 1.72604 -4.99342e-17)
(0.0577706 1.74958 5.81356e-18)
(0.0335374 1.70987 0)
(0.0466185 1.69531 -6.847e-17)
(0.0491601 1.70897 0)
(0.0313613 1.67077 3.2357e-17)
(0.013695 1.68878 0)
(0.0129515 1.75321 5.09339e-17)
(0.0157195 1.75874 0)
(0.0176085 1.76038 0)
(0.0137305 1.75975 4.75822e-17)
(-0.0069848 1.75302 -1.08137e-16)
(0.0276369 1.74268 -6.54925e-17)
(0.00377614 1.75956 -1.66847e-20)
(-0.0135529 1.75535 7.01493e-17)
(-0.0368317 1.77555 -3.65599e-17)
(-0.0114143 1.77905 0)
(-0.00681024 1.77514 0)
(0.0178179 1.74923 2.65748e-17)
(0.0267589 1.75754 2.24373e-17)
(0.0205528 1.74935 5.71901e-17)
(0.0267277 1.74742 0)
(0.00930247 1.76063 9.52053e-17)
(0.00454038 1.7514 1.51323e-17)
(0.00809385 1.74509 -1.76633e-17)
(-0.00426936 1.75032 7.20711e-17)
(0.00857991 1.73084 -3.35325e-18)
(0.0152878 1.74008 -4.21453e-17)
(1.00497 0.00194151 4.51236e-17)
(0.994635 0.0166634 2.80047e-17)
(0.999255 0.00598616 0)
(0.973068 0.0663973 -6.51554e-17)
(0.956599 0.0347885 1.49074e-17)
(0.927697 0.0306089 -7.75424e-18)
(0.974291 0.0741847 1.62707e-18)
(1.03077 0.0141222 0)
(1.03178 -0.00543908 -4.45579e-17)
(1.0337 0.000277474 -2.80137e-17)
(1.00655 0.0357129 3.11494e-18)
(1.01819 0.0257718 -9.68117e-18)
(0.988303 0.0373556 0)
(0.981069 0.0313623 3.59556e-19)
(1.00767 0.0358778 0)
(0.993763 0.0347527 0)
(1.00859 0.0136112 0)
(1.00537 0.00544579 0)
(0.999694 0.0248512 3.50085e-18)
(0.994495 0.0184857 2.82697e-17)
(0.97014 0.0185916 -5.18351e-18)
(0.967778 0.0204701 9.75046e-18)
(0.996926 0.0758747 2.46907e-17)
(1.0487 0.0641014 0)
(1.03498 0.0943159 0)
(0.00657146 1.76022 -4.86322e-17)
(6.71208e-06 1.74431 -7.40323e-19)
(-0.00142999 1.7449 0)
(-0.000327736 1.76783 -5.00412e-17)
(0.00334468 1.77358 8.19886e-18)
(-0.00324184 1.7702 -3.58313e-18)
(0.00666583 1.75866 -7.17087e-17)
(0.000766711 1.7384 -1.23586e-19)
(-0.00500253 1.74013 -4.79518e-18)
(0.00248282 1.76562 3.17009e-17)
(0.00227133 1.75862 3.05612e-17)
(0.0175066 1.73345 -2.12646e-17)
(0.0183594 1.73369 -3.60761e-17)
(0.325197 1.83791 2.36037e-17)
(0.288928 1.79998 -8.47669e-18)
(0.621831 1.85379 -7.62982e-17)
(0.497936 1.95752 3.56342e-17)
(0.533929 1.90354 0)
(0.285612 1.45519 -3.62974e-18)
(0.298868 1.44693 -7.37219e-19)
(0.166125 1.51177 -6.79958e-18)
(0.157074 1.51632 -2.9732e-17)
(0.239066 1.51258 -2.7378e-17)
(0.240393 1.48441 0)
(0.17575 1.50428 -1.11808e-17)
(0.0883227 1.59604 -3.34729e-19)
(0.089231 1.54248 5.70612e-17)
(0.0479217 1.56468 7.47092e-18)
(0.638977 1.38405 -3.37292e-17)
(0.449507 1.41254 0)
(1.02638 -0.00452843 -2.41502e-19)
(1.02292 0.0382205 2.91518e-19)
(1.01751 0.0223477 -6.46298e-18)
(1.01236 0.00880026 -1.52043e-17)
(1.01238 0.00673582 0)
(0.545839 1.6033 0)
(0.449463 1.51209 0)
(0.6233 1.27884 0)
(0.466307 1.41616 0)
(0.778188 1.7937 2.67919e-17)
(0.850193 1.6272 0)
(0.551633 1.76815 -1.02026e-18)
(0.464512 1.54336 0)
(0.523184 1.55311 6.8625e-17)
(0.575415 1.59956 6.15293e-17)
(0.837835 0.154966 0)
(0.821557 0.166471 -1.18985e-18)
(0.904811 0.110426 7.01522e-18)
(0.842109 0.107309 -2.59642e-17)
(0.841038 0.0715728 8.87877e-19)
(0.988318 0.238496 -2.28729e-17)
(0.898075 0.293082 2.63708e-17)
(0.803359 0.287342 2.25301e-17)
(0.925088 0.24731 1.05111e-17)
(0.905409 0.151804 3.85929e-17)
(0.885402 0.162942 -1.02908e-17)
(0.850834 0.240759 1.95125e-18)
(0.873836 0.219966 0)
(0.936283 0.197835 1.93552e-17)
(0.955305 0.176539 0)
(0.950565 0.262949 0)
(1.06532 0.137772 -1.22007e-17)
(0.979044 0.165402 2.90208e-17)
(0.98626 0.192334 2.00381e-17)
(1.03092 0.218708 0)
(1.00339 0.0392033 -3.51175e-17)
(1.00747 0.0414215 2.65576e-17)
(1.00823 0.0514258 -2.27878e-17)
(1.02207 0.0588749 4.07257e-17)
(0.979189 0.067175 -4.94793e-17)
(0.935257 0.0886221 0)
(0.935776 0.0518126 0)
(0.92208 0.0719741 4.1711e-17)
(0.908682 0.07215 7.73071e-18)
(1.0026 0.10076 -3.71436e-17)
(0.992902 0.123702 -2.26018e-17)
(0.997249 0.130928 -1.00293e-17)
(0.976049 0.142943 0)
(1.00027 0.0951375 0)
(1.00947 0.0993892 3.36821e-17)
(1.00202 0.101935 -2.31761e-17)
(0.284443 1.73857 2.44572e-17)
(0.347486 2.06958 -1.87616e-17)
(0.640808 2.17269 1.86097e-17)
(0.734797 2.54331 -2.41356e-18)
(0.831207 2.0342 -2.30954e-17)
(0.868017 2.13558 4.05942e-18)
(0.909703 1.69612 7.57514e-18)
(0.741133 2.36354 -1.36669e-17)
(0.76803 2.2889 -1.45317e-17)
(0.816648 2.66114 -1.64884e-18)
(0.984245 2.45708 2.67923e-18)
(1.05824 2.38798 0)
(0.389283 0.88918 -3.0857e-18)
(0.139141 1.37163 -1.38203e-17)
(0.194685 0.631195 -6.69596e-18)
(0.17248 0.780082 -1.64606e-17)
(0.406351 0.457749 -8.51438e-18)
(0.442584 0.478991 3.25078e-18)
(0.385094 0.589048 -6.35294e-18)
(0.295456 0.480923 2.50411e-18)
(0.383813 0.43577 -7.13801e-18)
(0.744723 0.271637 2.27529e-17)
(0.706425 0.300342 0)
(0.732892 0.277635 5.67819e-18)
(0.626543 0.527561 -1.11446e-17)
(0.561164 0.488981 1.32986e-17)
(0.463327 0.547669 -5.42266e-18)
(0.536033 0.477416 0)
(0.520652 0.811608 -2.3197e-17)
(0.687713 0.884467 4.35617e-17)
(0.61347 0.942883 4.78943e-17)
(0.716553 0.888521 1.25604e-17)
(0.838234 0.945544 -3.89711e-18)
(0.828492 0.983155 -5.33837e-18)
(0.776069 0.682448 5.35928e-18)
(0.823566 0.721874 9.02254e-18)
(0.899069 0.830789 0)
(0.901915 0.723646 2.42327e-17)
(0.955837 0.334734 4.67069e-17)
(1.08114 0.324142 -1.90554e-17)
(0.998173 0.28915 -4.68003e-17)
(0.906822 0.40945 4.46408e-17)
(0.968304 0.437094 0)
(0.987305 0.419742 0)
(0.815464 0.377687 4.64938e-17)
(0.763983 0.31334 0)
(0.786018 0.305025 -1.39672e-17)
(0.820588 0.317133 6.33066e-17)
(0.817385 0.488127 -8.11219e-17)
(0.770641 0.535836 -7.62233e-19)
(0.799465 0.502612 7.76608e-18)
(0.725228 0.434612 -1.6721e-18)
(0.701576 0.451466 -5.74306e-18)
(0.654831 0.450474 -5.52132e-19)
(1.00743 0.019439 -4.45165e-17)
(1.00144 -0.0168954 0)
(1.00703 0.0130672 9.5248e-18)
(1.00795 0.0240587 -1.23386e-17)
(1.00675 0.000153509 -2.25706e-17)
(1.00511 0.0333604 3.4284e-18)
(0.995803 0.0082648 0)
(0.997112 -0.0135188 1.22522e-17)
(1.00147 0.00977677 -1.1694e-18)
(0.999178 0.00597355 -2.86288e-18)
(0.995184 -0.00172872 7.97173e-18)
(-0.00121364 1.80301 0)
(0.00305226 1.78132 0)
(0.022454 1.82122 0)
(0.00773954 1.80788 0)
(0.0567857 1.77637 -6.28739e-18)
(0.0486969 1.80338 -9.97769e-17)
(0.0607537 1.76693 -3.00443e-17)
(0.057811 1.80184 -8.00681e-17)
(0.0217784 1.76349 5.35649e-17)
(0.0317461 1.78045 5.65173e-17)
(0.0465536 1.77771 1.11432e-16)
(0.0308723 1.78692 5.37249e-17)
(0.0275253 1.78423 9.46602e-18)
(0.0104017 1.78497 1.44952e-18)
(0.0511225 1.68872 -6.36209e-17)
(0.0572874 1.68669 0)
(0.0444642 1.69688 -3.81056e-17)
(0.0722912 1.75624 -4.99457e-18)
(0.155146 1.67647 -1.64704e-17)
(0.107182 1.61586 0)
(0.116353 1.59899 5.13312e-17)
(0.138518 1.60096 4.48679e-17)
(0.11447 1.6862 -5.7299e-17)
(0.0750377 1.6904 -7.68075e-17)
(0.0662132 1.61676 0)
(0.0183546 1.75677 3.0827e-17)
(0.00537343 1.73514 -1.93749e-17)
(0.0101514 1.75348 0)
(0.0321447 1.73935 1.95202e-17)
(0.0341558 1.74701 1.58133e-17)
(-0.00117598 1.77447 8.76495e-18)
(-0.00465753 1.77714 -9.2053e-17)
(-0.0168246 1.78283 -6.16729e-17)
(-0.0240616 1.77142 4.28756e-17)
(-0.00713541 1.75472 0)
(0.00925066 1.78006 0)
(1.02243e-05 1.77511 -3.65125e-17)
(-0.00213081 1.77453 -3.32789e-18)
(0.00283876 1.77202 0)
(0.00287415 1.77465 3.06492e-17)
(-1.60312e-05 1.77218 1.17223e-18)
(0.991984 0.0292458 0)
(1.0136 0.0452799 3.01393e-19)
(1.0109 0.00801344 4.16998e-17)
(1.02212 0.00608385 0)
(1.02901 0.0333691 0)
(0.995982 -0.00720592 1.985e-17)
(0.988338 0.00859583 -5.1434e-17)
(0.999992 0.00829387 -1.69456e-17)
(1.00113 0.0134302 0)
(1.00157 0.0150338 0)
(1.00005 0.0152914 2.67574e-17)
(0.996028 0.0172689 0)
(0.995361 0.0163944 0)
(0.0177515 1.74563 0)
(0.0227731 1.7489 -3.83869e-17)
(0.0157417 1.76003 3.95628e-17)
(0.00581162 1.76527 0)
(0.0107315 1.74634 -3.63837e-17)
(0.00440782 1.74266 -1.75309e-17)
(-0.00247342 1.76486 0)
(0.371024 1.65849 0)
(0.290709 1.77301 2.29514e-17)
(0.257873 1.68014 0)
(0.366286 1.7688 7.48634e-17)
(0.426115 1.81797 0)
(0.397391 1.83682 3.22864e-17)
(0.647355 1.47319 -2.48712e-19)
(0.671811 1.36732 -2.38166e-17)
(0.726898 1.37102 -2.03581e-17)
(0.480858 1.40787 -7.69557e-18)
(0.456982 1.45727 0)
(0.521107 1.45439 0)
(0.580174 1.39338 0)
(0.541313 1.39993 -2.52142e-18)
(0.344348 1.55486 -3.53766e-17)
(0.411729 1.46369 3.69071e-18)
(0.42418 1.54787 2.28263e-18)
(0.343296 1.42338 0)
(0.402483 1.42375 0)
(0.364405 1.42635 9.40258e-19)
(0.388798 1.47613 0)
(0.389475 1.33124 0)
(0.175319 1.16568 -5.76366e-17)
(0.402365 0.962445 -5.46888e-18)
(0.192045 1.50671 0)
(0.183469 1.55461 -6.82383e-17)
(0.644292 0.953877 -8.9461e-18)
(0.650337 1.21823 0)
(0.72167 1.11841 -2.80624e-17)
(0.583027 1.08819 0)
(0.569272 1.05066 0)
(0.721265 1.8416 1.33053e-17)
(0.649781 2.06058 -9.06067e-18)
(0.50749 1.97629 -3.71395e-17)
(0.54572 1.86404 -2.682e-18)
(0.765095 1.68943 0)
(0.740133 1.63399 -4.60821e-18)
(0.808895 1.57258 -4.31639e-18)
(0.837972 1.46316 -7.09127e-18)
(0.50468 1.74309 0)
(0.358245 1.72496 2.899e-17)
(0.400455 1.69328 0)
(0.850464 0.216182 0)
(0.810604 0.184964 0)
(0.787313 0.188485 0)
(0.829917 0.255261 -6.22646e-18)
(0.769687 0.228505 4.21074e-18)
(0.905205 0.100246 1.28178e-17)
(0.913521 0.104565 0)
(0.902243 0.0806366 -9.25807e-19)
(0.856606 0.0646188 -5.28556e-18)
(0.867059 0.0664984 -4.20263e-18)
(0.889806 2.86178 -1.47389e-17)
(0.784163 2.78411 0)
(0.822827 2.89767 -5.05365e-17)
(0.509425 3.15304 -2.71992e-17)
(0.535909 2.76783 1.2116e-17)
(0.372289 1.0608 -2.46511e-17)
(0.274025 1.27853 0)
(0.472436 0.706251 6.49809e-18)
(0.435076 0.697785 3.71118e-17)
(0.366342 0.76596 9.39576e-18)
(0.423476 0.582867 4.57412e-18)
(0.530174 0.590967 -8.80731e-18)
(0.560154 0.611396 0)
(0.548781 0.68897 0)
(0.462205 0.646049 0)
(0.946764 0.661701 9.47652e-18)
(0.804936 0.557223 7.76701e-18)
(0.776291 0.60215 -3.38908e-18)
(0.846716 0.528443 1.95965e-17)
(0.973665 0.510039 0)
(1.00919 0.579636 -9.70547e-18)
(0.747821 0.411971 1.04901e-17)
(0.765438 0.375359 2.47157e-17)
(0.689378 0.394793 -4.52276e-18)
(0.700617 0.371026 2.85766e-18)
(0.738573 0.354824 -7.70961e-18)
(0.716685 0.339212 -1.60807e-17)
(1.01438 -0.0119604 -3.48854e-17)
(1.01682 -0.0138874 -3.36113e-17)
(1.005 0.0208107 3.30653e-17)
(1.00405 0.0354311 4.80008e-17)
(0.986846 0.0340132 0)
(0.983711 -0.00383712 -1.16943e-17)
(0.0648861 1.7689 2.42761e-17)
(0.0646679 1.75928 0)
(0.0630628 1.76302 -4.34502e-17)
(0.0703481 1.76287 -5.24941e-17)
(0.0532333 1.77381 -3.36356e-17)
(0.0596491 1.74955 0)
(0.0189555 1.74983 0)
(0.0122904 1.76924 -1.77742e-17)
(0.00622025 1.77607 -1.8383e-17)
(0.00255467 1.76752 -4.55542e-17)
(0.00842235 1.73926 -9.16728e-18)
(0.0171706 1.74841 -3.98766e-18)
(0.469229 1.69467 -1.02182e-16)
(0.432029 1.67773 -1.1942e-16)
(0.401627 1.74474 7.04395e-17)
(0.396414 1.70332 -4.55899e-18)
(0.521406 1.68056 0)
(0.486053 1.79768 7.05444e-17)
(0.519364 1.73524 6.19579e-17)
(0.431128 1.73806 6.18258e-17)
(0.456953 1.72549 0)
(0.461292 1.69273 0)
(0.328421 1.53724 -4.37824e-17)
(0.334477 1.461 -6.14208e-17)
(0.34615 1.47566 -5.05825e-17)
(0.291067 1.47221 -2.02974e-18)
(0.289059 1.54591 1.7558e-18)
(0.23824 1.49322 -1.74259e-17)
(0.741261 1.36277 -9.73306e-18)
(0.80681 1.4088 0)
(0.793295 1.38138 4.18357e-18)
(0.728477 1.54145 0)
(0.714367 1.50314 0)
(0.460588 2.42691 -1.67485e-18)
(0.658717 2.7125 -2.35929e-18)
(0.576871 2.76333 -1.5881e-18)
(0.428783 1.37232 0)
(0.440107 1.29612 -1.33475e-17)
(0.421896 1.24032 -3.22074e-17)
(0.457892 2.30304 0)
(0.501826 2.58199 5.65577e-18)
(0.316432 2.51465 0)
(0.580182 0.692571 -1.21714e-17)
(0.636809 0.774408 -4.55652e-17)
(0.644124 0.767973 -1.97758e-17)
(0.552863 0.679794 -1.52083e-18)
(0.600653 0.638095 1.89816e-18)
(0.55933 2.58273 -9.88294e-18)
(0.584515 2.48152 -6.76205e-18)
(0.513034 2.37851 7.62589e-18)
(0.382746 2.27658 2.78747e-17)
(0.350455 2.13766 3.67462e-17)
(0.491654 2.3564 -2.69822e-17)
(0.472813 2.2237 -1.81807e-17)
(0.378296 2.21182 5.89808e-19)
(0.339272 2.21808 2.9695e-17)
)
;

boundaryField
{
    wall-4
    {
        type            calculated;
        value           uniform (0 0 0);
    }
    velocity-inlet-5
    {
        type            calculated;
        value           uniform (1 0 0);
    }
    velocity-inlet-6
    {
        type            calculated;
        value           uniform (0 3 0);
    }
    pressure-outlet-7
    {
        type            calculated;
        value           nonuniform List<vector> 8((-0.00357256 1.73406 0) (-0.0189372 1.69678 5.26293e-17) (0.0102846 1.76823 0) (-0.0109622 1.78541 0) (0.00127529 1.74911 0) (0.00465575 1.75436 0) (-0.00295201 1.74496 0) (-0.00478997 1.76577 0));
    }
    wall-8
    {
        type            calculated;
        value           uniform (0 0 0);
    }
    frontAndBackPlanes
    {
        type            empty;
    }
}

