/*--------------------------------*- C++ -*----------------------------------*\
  =========                 |
  \\      /  F ield         | OpenFOAM: The Open Source CFD Toolbox
   \\    /   O peration     | Website:  https://openfoam.org
    \\  /    A nd           | Version:  6
     \\/     M anipulation  |
\*---------------------------------------------------------------------------*/
FoamFile
{
    version     2.0;
    format      ascii;
    class       volScalarField;
    location    "0";
    object      p;
}
// * * * * * * * * * * * * * * * * * * * * * * * * * * * * * * * * * * * * * //

dimensions      [0 2 -2 0 0 0 0];

internalField   nonuniform List<scalar> 
11644
(
0.0981857
0.098992
0.100551
0.102868
0.105958
0.109832
0.114493
0.119936
0.126137
0.133053
0.140604
0.14867
0.157078
0.165595
0.173927
0.181726
0.188612
0.1942
0.198148
0.200192
0.200192
0.198148
0.194201
0.188612
0.181726
0.173927
0.165595
0.157078
0.14867
0.140604
0.133053
0.126137
0.119936
0.114493
0.109832
0.105958
0.102867
0.100551
0.098992
0.0981857
0.0970648
0.097838
0.0993692
0.101666
0.104741
0.108609
0.11328
0.118755
0.125026
0.132061
0.139798
0.148131
0.156897
0.165867
0.174736
0.183127
0.190611
0.196739
0.201096
0.203363
0.203363
0.201096
0.196739
0.190611
0.183127
0.174736
0.165867
0.156897
0.148131
0.139798
0.132061
0.125026
0.118755
0.11328
0.108609
0.104741
0.101666
0.0993692
0.0978379
0.0970648
0.0945712
0.0953179
0.0968127
0.0990704
0.102111
0.105958
0.110635
0.116166
0.122566
0.129835
0.137946
0.146831
0.156356
0.166307
0.176359
0.186077
0.194924
0.202301
0.207623
0.210417
0.210417
0.207623
0.202301
0.194924
0.186077
0.176359
0.166307
0.156357
0.146831
0.137946
0.129835
0.122566
0.116166
0.110635
0.105958
0.102111
0.0990704
0.0968127
0.0953178
0.0945712
0.0906465
0.0913608
0.092801
0.0949898
0.0979576
0.101743
0.106393
0.111961
0.118503
0.12607
0.134698
0.144386
0.155069
0.166572
0.178573
0.190555
0.201801
0.21144
0.218549
0.222332
0.222332
0.218549
0.21144
0.201801
0.190555
0.178573
0.166573
0.155069
0.144386
0.134698
0.12607
0.118503
0.111961
0.106393
0.101743
0.0979575
0.0949897
0.0928009
0.0913607
0.0906464
0.0853175
0.085982
0.0873333
0.089401
0.0922266
0.0958674
0.100398
0.10591
0.112511
0.120326
0.129485
0.140107
0.152258
0.165877
0.180707
0.196137
0.211215
0.224658
0.234883
0.24043
0.240431
0.234883
0.224658
0.211216
0.196137
0.180707
0.165877
0.152258
0.140107
0.129485
0.120326
0.112511
0.10591
0.100398
0.0958673
0.0922265
0.0894009
0.0873332
0.0859819
0.0853174
0.0786295
0.0792212
0.0804342
0.0823022
0.0848773
0.0882346
0.0924759
0.0977332
0.104174
0.112009
0.121495
0.132938
0.146649
0.162799
0.181378
0.201892
0.222901
0.242737
0.258396
0.267128
0.267128
0.258397
0.242737
0.222901
0.201892
0.181379
0.1628
0.146649
0.132938
0.121495
0.112009
0.104174
0.0977332
0.0924758
0.0882345
0.0848772
0.0823021
0.080434
0.079221
0.0786293
0.0707036
0.0711931
0.0722013
0.0737637
0.075939
0.078814
0.0825097
0.0871899
0.0930738
0.100455
0.10973
0.121432
0.136276
0.155153
0.178244
0.205656
0.224854
0.253378
0.277655
0.293721
0.297345
0.287483
0.26688
0.240424
0.205657
0.178245
0.155153
0.136276
0.121432
0.109731
0.100455
0.0930738
0.0871898
0.0825096
0.0788139
0.0759389
0.0737635
0.0722011
0.071193
0.0707034
0.061732
0.0620815
0.0628043
0.0639346
0.0655289
0.0676718
0.0704853
0.0741417
0.078881
0.0850385
0.0931104
0.103867
0.11834
0.137606
0.162169
0.193265
0.232682
0.275958
0.317894
0.347439
0.35404
0.334966
0.297736
0.253838
0.21297
0.177669
0.150002
0.11834
0.103867
0.0931104
0.0850385
0.0788809
0.0741416
0.0704851
0.0676717
0.0655287
0.0639344
0.0628041
0.0620813
0.0617318
0.0519433
0.052112
0.0524679
0.0530366
0.0538585
0.0549957
0.056542
0.0586374
0.061484
0.0653667
0.0707136
0.0782849
0.0893912
0.111091
0.135583
0.171636
0.217707
0.280543
0.351759
0.411513
0.43182
0.400802
0.336162
0.26565
0.205957
0.151822
0.122424
0.0893914
0.0782849
0.0707135
0.0653665
0.0614838
0.0586372
0.0565418
0.0549955
0.0538583
0.0530363
0.0524676
0.0521117
0.0519431
0.0416365
0.041591
0.0415139
0.041413
0.0412972
0.041183
0.041101
0.0411046
0.0412803
0.041748
0.042662
0.0443187
0.0474888
0.0668017
0.0826273
0.115739
0.165646
0.249328
0.370714
0.504716
0.563021
0.489928
0.353724
0.237033
0.151467
0.0946507
0.073771
0.0474886
0.0443185
0.0426617
0.0417477
0.0412799
0.0411043
0.0411007
0.0411827
0.0412969
0.0414127
0.0415137
0.0415907
0.0416362
0.0311986
0.0309223
0.0303793
0.0295515
0.0284049
0.0268927
0.0249526
0.0225037
0.0194428
0.0156227
0.0107692
0.00435165
-0.00433846
0.00563366
-0.000542272
0.0120121
0.032773
0.0822896
0.235077
0.545811
0.768574
0.522982
0.226283
0.0728859
0.0185218
-0.00340187
0.00253906
-0.00433924
0.00435097
0.0107686
0.0156222
0.0194424
0.0225033
0.0249522
0.0268923
0.0284046
0.0295512
0.0303789
0.0309219
0.0311983
0.0210581
0.0205589
0.0195653
0.0180309
0.0158755
0.0129842
0.0091934
0.00427201
-0.00210154
-0.0103804
-0.0212815
-0.0361345
-0.057255
-0.0624107
-0.0985017
-0.127095
-0.183411
-0.267085
-0.298915
-0.302557
-0.275189
-0.183654
-0.123203
-0.0788391
-0.0572565
-0.0361357
-0.0212824
-0.0103811
-0.00210218
0.00427145
0.0091929
0.0129837
0.0158751
0.0180306
0.019565
0.0205585
0.0210578
0.011636
0.0109494
0.00957498
0.00744177
0.00443204
0.000375779
-0.00497091
-0.0119559
-0.0210683
-0.0329892
-0.0487202
-0.0699613
-0.099593
-0.118956
-0.175782
-0.235541
-0.339515
-0.491401
-0.677816
-0.672551
-0.479353
-0.324465
-0.213384
-0.144918
-0.0995951
-0.0699628
-0.0487214
-0.0329901
-0.0210691
-0.0119565
-0.00497147
0.000375276
0.00443159
0.00744134
0.00957458
0.010949
0.0116357
0.00331647
0.00250081
0.000860561
-0.00168934
-0.00528595
-0.0101264
-0.0164905
-0.0247723
-0.035518
-0.0494713
-0.0676712
-0.0917248
-0.124044
-0.151048
-0.210369
-0.27297
-0.358342
-0.440822
-0.485953
-0.48452
-0.43265
-0.342954
-0.246456
-0.178759
-0.124046
-0.0917264
-0.0676724
-0.0494723
-0.0355188
-0.024773
-0.0164911
-0.0101269
-0.00528642
-0.00168978
0.000860145
0.00250041
0.00331607
-0.00359259
-0.00446755
-0.00623445
-0.00897961
-0.0128383
-0.0180033
-0.0247436
-0.0334291
-0.0445601
-0.0587979
-0.077026
-0.100522
-0.130985
-0.15951
-0.210773
-0.263142
-0.320962
-0.362623
-0.375832
-0.368251
-0.361163
-0.370041
-0.375448
-0.359196
-0.309753
-0.239557
-0.18408
-0.130987
-0.100524
-0.0770271
-0.0587988
-0.0445609
-0.0334298
-0.0247442
-0.0180038
-0.0128388
-0.00898004
-0.00623486
-0.00446795
-0.00359298
-0.00890593
-0.00977207
-0.0115281
-0.0142506
-0.0180562
-0.0231095
-0.0296357
-0.0379364
-0.0484088
-0.0615634
-0.0780528
-0.0987642
-0.124847
-0.151632
-0.191994
-0.235358
-0.273195
-0.296127
-0.302669
-0.299796
-0.297569
-0.300871
-0.302261
-0.292052
-0.264699
-0.213508
-0.171539
-0.124849
-0.0987652
-0.0780536
-0.0615641
-0.0484095
-0.0379369
-0.0296362
-0.0231099
-0.0180566
-0.014251
-0.0115285
-0.00977245
-0.0089063
-0.0125871
-0.0133882
-0.0150186
-0.0175385
-0.0210369
-0.0256385
-0.0315105
-0.0388719
-0.048004
-0.0592605
-0.0730835
-0.0900822
-0.11109
-0.136066
-0.162183
-0.193289
-0.220381
-0.234814
-0.236137
-0.231443
-0.229164
-0.232696
-0.2367
-0.232654
-0.206583
-0.178243
-0.136067
-0.111091
-0.0900827
-0.073084
-0.059261
-0.0480044
-0.0388723
-0.0315109
-0.0256388
-0.0210372
-0.0175388
-0.0150189
-0.0133885
-0.0125874
-0.0147405
-0.0154374
-0.0168613
-0.0190538
-0.022074
-0.026004
-0.0309519
-0.0370542
-0.0444806
-0.0534362
-0.06416
-0.076933
-0.0920371
-0.10918
-0.130793
-0.150286
-0.168424
-0.174832
-0.171386
-0.164399
-0.161611
-0.166027
-0.172885
-0.174323
-0.158019
-0.141157
-0.10918
-0.092037
-0.076933
-0.0641602
-0.0534364
-0.0444808
-0.0370544
-0.0309522
-0.0260043
-0.0220743
-0.0190541
-0.0168616
-0.0154377
-0.0147408
-0.0155792
-0.0161506
-0.0173229
-0.0191201
-0.0215735
-0.0247263
-0.0286329
-0.0333579
-0.0389746
-0.045563
-0.0532014
-0.061954
-0.071832
-0.0825149
-0.0983013
-0.108822
-0.119443
-0.119306
-0.112115
-0.103438
-0.100279
-0.105336
-0.114328
-0.120127
-0.112288
-0.104166
-0.0825141
-0.0718315
-0.0619537
-0.0532013
-0.0455631
-0.0389747
-0.033358
-0.0286331
-0.0247265
-0.0215737
-0.0191203
-0.0173232
-0.0161509
-0.0155795
-0.0153819
-0.0158221
-0.01673
-0.0181144
-0.0199842
-0.0223508
-0.0252263
-0.0286197
-0.0325336
-0.0369594
-0.0418693
-0.0471963
-0.0527821
-0.0582431
-0.068714
-0.0723899
-0.0769213
-0.0718441
-0.0620763
-0.0524557
-0.04914
-0.0544848
-0.0647483
-0.0736458
-0.0726664
-0.0710981
-0.058242
-0.0527814
-0.0471959
-0.0418691
-0.0369593
-0.0325336
-0.0286198
-0.0252265
-0.022351
-0.0199844
-0.0181146
-0.0167302
-0.0158224
-0.0153822
-0.0144505
-0.0147664
-0.0154225
-0.0164168
-0.0177417
-0.0193863
-0.0213333
-0.0235546
-0.0260074
-0.0286282
-0.0313264
-0.0339592
-0.0362587
-0.0377531
-0.0441665
-0.0428913
-0.0429267
-0.0347098
-0.0235551
-0.0137187
-0.0104973
-0.0158646
-0.0265725
-0.0372251
-0.0405557
-0.0440355
-0.037752
-0.036258
-0.0339587
-0.0313262
-0.0286281
-0.0260073
-0.0235547
-0.0213334
-0.0193865
-0.0177418
-0.0164169
-0.0154227
-0.0147666
-0.0144507
-0.0130745
-0.0132816
-0.0137166
-0.0143708
-0.0152265
-0.0162595
-0.0174355
-0.0187063
-0.020005
-0.0212412
-0.022294
-0.022998
-0.0230932
-0.0221484
-0.0199453
-0.0213847
-0.0141785
-0.0043619
0.00693258
0.0157208
0.0177954
0.0120409
0.00147632
-0.00944553
-0.017912
-0.019944
-0.0221475
-0.0230925
-0.0229975
-0.0222937
-0.021241
-0.020005
-0.0187063
-0.0174356
-0.0162596
-0.0152266
-0.0143709
-0.0137168
-0.0132818
-0.0130747
-0.0115061
-0.0116246
-0.0118795
-0.0122585
-0.0127397
-0.0132933
-0.0138784
-0.0144401
-0.0149054
-0.0151784
-0.0151345
-0.0146104
-0.0133663
-0.0109982
-0.00715324
-0.00139182
0.00672788
0.016706
0.0263894
0.0325365
0.032537
0.0263906
0.0167075
0.00672944
-0.00139045
-0.00715216
-0.0109974
-0.0133658
-0.01461
-0.0151343
-0.0151783
-0.0149054
-0.0144401
-0.0138785
-0.0132934
-0.0127399
-0.0122587
-0.0118796
-0.0116247
-0.0115062
-0.00994497
-0.00999687
-0.0101161
-0.0102898
-0.010496
-0.0107052
-0.0108783
-0.0109639
-0.0108961
-0.0105907
-0.00994005
-0.00880654
-0.00700251
-0.00423056
-0.000165941
0.00552054
0.0131018
0.0220313
0.0305278
0.0358712
0.0358716
0.0305286
0.0220324
0.0131029
0.00552156
-0.000165124
-0.00422995
-0.00700208
-0.00880625
-0.00993987
-0.0105907
-0.0108961
-0.0109639
-0.0108784
-0.0107053
-0.0104961
-0.0102899
-0.0101162
-0.00999702
-0.00994512
-0.00853442
-0.00854092
-0.00856743
-0.00860257
-0.00862738
-0.00861703
-0.00853927
-0.00835321
-0.00800808
-0.00744072
-0.00657128
-0.00529689
-0.00347795
-0.000897603
0.00272906
0.00772229
0.0142357
0.0218212
0.0290115
0.0335287
0.0335289
0.0290122
0.0218221
0.0142366
0.00772307
0.0027297
-0.000897127
-0.00347761
-0.00529667
-0.00657115
-0.00744065
-0.00800807
-0.00835324
-0.00853933
-0.00861712
-0.00862748
-0.00860269
-0.00856756
-0.00854106
-0.00853456
-0.00736297
-0.00734286
-0.00731466
-0.00726966
-0.00719373
-0.007069
-0.00687297
-0.00657814
-0.00615155
-0.00555294
-0.00473033
-0.00361141
-0.00208887
8.91936e-06
0.00292424
0.00693171
0.0121522
0.0182195
0.0239523
0.027542
0.0275422
0.0239528
0.0182203
0.0121529
0.00693237
0.00292477
9.3201e-06
-0.00208859
-0.00361122
-0.00473022
-0.00555289
-0.00615154
-0.00657817
-0.00687303
-0.00706908
-0.00719383
-0.00726977
-0.00731478
-0.00734299
-0.00736309
-0.00647133
-0.00643998
-0.00638794
-0.00630972
-0.0061967
-0.00603866
-0.00582344
-0.00553705
-0.00516334
-0.00468222
-0.00406441
-0.00326076
-0.00218521
-0.000691144
0.00143378
0.00442464
0.00838248
0.0130084
0.0173746
0.0201004
0.0201006
0.0173751
0.013009
0.00838311
0.00442521
0.00143424
-0.000690793
-0.00218496
-0.00326059
-0.00406431
-0.00468218
-0.00516334
-0.00553708
-0.0058235
-0.00603873
-0.00619679
-0.00630982
-0.00638805
-0.00644009
-0.00647145
-0.00586194
-0.00583078
-0.00577779
-0.00570065
-0.00559606
-0.00546099
-0.00529268
-0.00508884
-0.00484718
-0.00456295
-0.00422267
-0.00379184
-0.00319653
-0.00230292
-0.000916127
0.00117208
0.00404751
0.00746686
0.0107081
0.0127301
0.0127302
0.0107085
0.00746734
0.00404802
0.00117255
-0.000915738
-0.00230262
-0.00319632
-0.0037917
-0.00422259
-0.00456292
-0.00484718
-0.00508887
-0.00529273
-0.00546106
-0.00559614
-0.00570074
-0.00577789
-0.00583088
-0.00586204
-0.00550951
-0.00548613
-0.00544723
-0.00539326
-0.00532548
-0.00524681
-0.00516194
-0.0050774
-0.00500061
-0.00493648
-0.00487998
-0.00480285
-0.00463538
-0.00424973
-0.00346424
-0.00209421
-6.94055e-05
0.00240945
0.00477998
0.00626026
0.00626035
0.00478023
0.0024098
-6.90256e-05
-0.00209385
-0.00346393
-0.00424949
-0.00463521
-0.00480274
-0.00487991
-0.00493645
-0.00500061
-0.00507743
-0.00516199
-0.00524687
-0.00532555
-0.00539334
-0.00544732
-0.00548622
-0.0055096
-0.00537151
-0.00536002
-0.00534327
-0.00532387
-0.00530653
-0.00529844
-0.00530936
-0.00535127
-0.00543685
-0.00557514
-0.00576321
-0.00597279
-0.00613384
-0.00612287
-0.00577305
-0.00492544
-0.0035281
-0.00175067
-3.22419e-05
0.0010423
0.00104236
-3.20805e-05
-0.00175044
-0.00352785
-0.00492519
-0.00577283
-0.00612269
-0.00613371
-0.00597271
-0.00576316
-0.00557512
-0.00543686
-0.0053513
-0.0053094
-0.0052985
-0.00530659
-0.00532395
-0.00534335
-0.0053601
-0.00537159
-0.00539725
-0.00539894
-0.00540682
-0.00542496
-0.00546027
-0.00552251
-0.00562405
-0.00577924
-0.00600213
-0.00630149
-0.00667224
-0.00708302
-0.00746276
-0.00769439
-0.00762943
-0.00713657
-0.00618249
-0.00491266
-0.0036706
-0.00289298
-0.00289295
-0.00367051
-0.00491253
-0.00618234
-0.00713642
-0.00762929
-0.00769428
-0.00746268
-0.00708296
-0.00667222
-0.00630149
-0.00600215
-0.00577928
-0.00562409
-0.00552256
-0.00546034
-0.00542503
-0.00540689
-0.00539901
-0.00539732
-0.00553522
-0.00554932
-0.00558032
-0.00563303
-0.00571546
-0.0058383
-0.0060146
-0.00625854
-0.00658276
-0.00699305
-0.00748016
-0.00800918
-0.00850979
-0.0088747
-0.00897674
-0.00871207
-0.00806358
-0.00715588
-0.00625742
-0.00569424
-0.00569423
-0.00625738
-0.00715583
-0.00806352
-0.008712
-0.00897667
-0.00887465
-0.00850975
-0.00800916
-0.00748016
-0.00699306
-0.00658278
-0.00625858
-0.00601464
-0.00583836
-0.00571552
-0.0056331
-0.00558038
-0.00554939
-0.00553529
-0.00573816
-0.00576263
-0.00581273
-0.00589349
-0.00601303
-0.0061818
-0.00641196
-0.00671593
-0.0071033
-0.00757569
-0.00811942
-0.00869716
-0.00924179
-0.00965858
-0.00984281
-0.0097162
-0.00927459
-0.00862372
-0.00797242
-0.0075638
-0.0075638
-0.00797242
-0.00862372
-0.00927459
-0.0097162
-0.0098428
-0.00965858
-0.0092418
-0.00869718
-0.00811945
-0.00757572
-0.00710334
-0.00671598
-0.00641202
-0.00618185
-0.00601308
-0.00589355
-0.0058128
-0.0057627
-0.00573822
-0.00596616
-0.00599831
-0.00606232
-0.00616298
-0.00630787
-0.00650636
-0.00676882
-0.00710495
-0.0075207
-0.00801349
-0.00856606
-0.00914036
-0.00967461
-0.010088
-0.0102975
-0.0102471
-0.00994238
-0.00947223
-0.00899818
-0.00870086
-0.00870087
-0.00899821
-0.00947226
-0.00994242
-0.0102472
-0.0102976
-0.0100881
-0.00967466
-0.0091404
-0.00856611
-0.00801354
-0.00752075
-0.007105
-0.00676887
-0.00650642
-0.00630793
-0.00616304
-0.00606239
-0.00599837
-0.00596622
-0.00618802
-0.00622503
-0.00629755
-0.00640985
-0.00656854
-0.00678145
-0.00705671
-0.00740108
-0.00781695
-0.00829818
-0.00882525
-0.00936119
-0.00985106
-0.010228
-0.0104284
-0.0104145
-0.0101987
-0.00985511
-0.00950795
-0.00929073
-0.00929074
-0.00950799
-0.00985516
-0.0101988
-0.0104146
-0.0104284
-0.0102281
-0.00985113
-0.00936126
-0.00882532
-0.00829825
-0.00781702
-0.00740115
-0.00705678
-0.00678151
-0.00656861
-0.00640991
-0.00629762
-0.00622509
-0.00618809
-0.00638134
-0.0064206
-0.00649669
-0.00661319
-0.00677556
-0.00698993
-0.00726213
-0.00759613
-0.0079913
-0.00843895
-0.00891869
-0.00939611
-0.0098238
-0.010148
-0.0103217
-0.0103213
-0.0101633
-0.00990885
-0.00965296
-0.00949364
-0.00949366
-0.009653
-0.00990892
-0.0101633
-0.0103214
-0.0103218
-0.0101481
-0.00982389
-0.00939619
-0.00891878
-0.00843903
-0.00799138
-0.0075962
-0.0072622
-0.00698999
-0.00677563
-0.00661325
-0.00649676
-0.00642067
-0.00638141
-0.0065317
-0.00657102
-0.00664655
-0.00676116
-0.00691913
-0.00712491
-0.00738226
-0.00769278
-0.00805352
-0.0084543
-0.0088751
-0.00928501
-0.00964433
-0.00991099
-0.0100513
-0.0100523
-0.00993222
-0.0097412
-0.00955127
-0.00943393
-0.00943394
-0.00955132
-0.00974127
-0.00993231
-0.0100525
-0.0100514
-0.0099111
-0.00964444
-0.00928511
-0.00887519
-0.00845439
-0.0080536
-0.00769285
-0.00738234
-0.00712498
-0.0069192
-0.00676123
-0.00664662
-0.00657108
-0.00653176
-0.00663135
-0.00666903
-0.00674086
-0.00684901
-0.00699668
-0.00718682
-0.00742145
-0.0077003
-0.00801891
-0.00836651
-0.00872435
-0.00906559
-0.0093578
-0.00956889
-0.00967559
-0.00967243
-0.00957753
-0.00943172
-0.00928936
-0.0092023
-0.00920231
-0.0092894
-0.00943179
-0.00957762
-0.00967254
-0.0096757
-0.009569
-0.00935792
-0.00906569
-0.00872445
-0.0083666
-0.008019
-0.00770038
-0.00742153
-0.00718689
-0.00699675
-0.00684908
-0.00674093
-0.0066691
-0.00663142
-0.00667782
-0.00671266
-0.00677859
-0.0068772
-0.0070107
-0.00718084
-0.00738827
-0.00763139
-0.00790489
-0.00819813
-0.00849427
-0.00877061
-0.00900134
-0.00916251
-0.00923875
-0.00922937
-0.00915151
-0.009038
-0.00892978
-0.00886443
-0.00886445
-0.00892983
-0.00903807
-0.0091516
-0.00922948
-0.00923886
-0.00916262
-0.00900145
-0.00877072
-0.00849437
-0.00819823
-0.00790498
-0.00763148
-0.00738835
-0.00718092
-0.00701077
-0.00687727
-0.00677866
-0.00671273
-0.00667789
-0.00667242
-0.00670367
-0.00676238
-0.00684965
-0.0069669
-0.00711493
-0.00729339
-0.00749985
-0.00772868
-0.00796992
-0.00820888
-0.00842689
-0.00860381
-0.00872224
-0.00877253
-0.0087569
-0.00869082
-0.00860052
-0.00851681
-0.00846698
-0.00846699
-0.00851686
-0.00860058
-0.00869091
-0.008757
-0.00877264
-0.00872235
-0.00860392
-0.008427
-0.00820898
-0.00797002
-0.00772877
-0.00749994
-0.00729347
-0.00711501
-0.00696698
-0.00684972
-0.00676245
-0.00670374
-0.00667249
-0.00661905
-0.00664633
-0.00669722
-0.00677242
-0.00687274
-0.00699828
-0.00714802
-0.00731911
-0.00750599
-0.00769971
-0.0078878
-0.00805523
-0.00818662
-0.00826963
-0.00829868
-0.00827756
-0.00821984
-0.00814631
-0.00808025
-0.00804151
-0.00804152
-0.00808029
-0.00814638
-0.00821992
-0.00827766
-0.00829878
-0.00826974
-0.00818672
-0.00805533
-0.0078879
-0.00769981
-0.00750608
-0.0073192
-0.0071481
-0.00699835
-0.00687281
-0.00677249
-0.00669729
-0.0066464
-0.00661912
-0.00652312
-0.00654635
-0.00658936
-0.00665256
-0.0067363
-0.00684021
-0.00696289
-0.00710133
-0.00725035
-0.00740212
-0.00754633
-0.00767108
-0.00776489
-0.00781925
-0.00783137
-0.00780576
-0.00775404
-0.00769271
-0.00763934
-0.00760855
-0.00760857
-0.00763938
-0.00769276
-0.00775411
-0.00780584
-0.00783146
-0.00781935
-0.00776499
-0.00767118
-0.00754642
-0.00740221
-0.00725044
-0.00710142
-0.00696297
-0.00684029
-0.00673637
-0.00665263
-0.00658943
-0.00654642
-0.00652319
-0.00639076
-0.00641008
-0.00644556
-0.0064974
-0.00656563
-0.00664959
-0.00674769
-0.00685703
-0.0069729
-0.00708867
-0.00719594
-0.00728551
-0.00734891
-0.00738053
-0.00737941
-0.00735026
-0.00730292
-0.00725046
-0.00720627
-0.00718118
-0.00718119
-0.0072063
-0.00725051
-0.00730299
-0.00735034
-0.0073795
-0.00738062
-0.007349
-0.00728559
-0.00719603
-0.00708875
-0.00697298
-0.0068571
-0.00674777
-0.00664966
-0.00656569
-0.00649746
-0.00644563
-0.00641015
-0.00639083
-0.00622823
-0.00624392
-0.00627248
-0.00631395
-0.00636818
-0.00643434
-0.00651083
-0.00659492
-0.00668254
-0.00676812
-0.00684499
-0.00690608
-0.00694533
-0.00695919
-0.0069479
-0.00691605
-0.00687194
-0.00682595
-0.0067884
-0.0067674
-0.00676741
-0.00678843
-0.006826
-0.00687199
-0.00691612
-0.00694798
-0.00695927
-0.00694541
-0.00690616
-0.00684506
-0.0067682
-0.00668261
-0.00659499
-0.00651089
-0.00643441
-0.00636824
-0.00631402
-0.00627254
-0.00624399
-0.00622829
-0.00604152
-0.00605396
-0.00607635
-0.00610866
-0.00615061
-0.00620134
-0.00625929
-0.00632205
-0.00638611
-0.00644694
-0.00649924
-0.00653773
-0.00655812
-0.00655833
-0.00653936
-0.00650552
-0.00646381
-0.00642257
-0.00638982
-0.00637178
-0.00637178
-0.00638985
-0.00642261
-0.00646386
-0.00650558
-0.00653942
-0.0065584
-0.00655819
-0.0065378
-0.00649931
-0.00644701
-0.00638618
-0.00632211
-0.00625936
-0.0062014
-0.00615067
-0.00610872
-0.00607641
-0.00605402
-0.00604158
-0.0058361
-0.0058457
-0.00586275
-0.00588718
-0.00591865
-0.00595633
-0.00599878
-0.00604391
-0.00608877
-0.00612969
-0.00616255
-0.0061834
-0.00618931
-0.00617923
-0.00615457
-0.00611933
-0.00607943
-0.00604166
-0.00601239
-0.00599646
-0.00599647
-0.00601241
-0.00604169
-0.00607947
-0.00611937
-0.00615462
-0.00617928
-0.00618937
-0.00618346
-0.0061626
-0.00612975
-0.00608883
-0.00604396
-0.00599884
-0.00595638
-0.00591871
-0.00588724
-0.00586281
-0.00584576
-0.00583615
-0.00561679
-0.00562398
-0.00563653
-0.00565435
-0.00567709
-0.00570399
-0.00573378
-0.00576466
-0.0057942
-0.00581945
-0.00583723
-0.00584461
-0.00583963
-0.00582193
-0.00579317
-0.00575699
-0.00571846
-0.00568322
-0.00565646
-0.00564204
-0.00564205
-0.00565647
-0.00568325
-0.00571849
-0.00575702
-0.00579321
-0.00582198
-0.00583968
-0.00584465
-0.00583727
-0.0058195
-0.00579425
-0.00576471
-0.00573383
-0.00570404
-0.00567715
-0.0056544
-0.00563658
-0.00562404
-0.00561684
-0.00538772
-0.00539291
-0.00540174
-0.00541416
-0.00542982
-0.00544803
-0.00546772
-0.00548736
-0.00550497
-0.00551818
-0.00552452
-0.00552184
-0.00550887
-0.0054857
-0.00545407
-0.0054173
-0.00537982
-0.00534642
-0.00532143
-0.00530808
-0.00530808
-0.00532144
-0.00534643
-0.00537984
-0.00541732
-0.0054541
-0.00548573
-0.00550891
-0.00552188
-0.00552455
-0.00551822
-0.00550501
-0.00548741
-0.00546777
-0.00544808
-0.00542986
-0.0054142
-0.00540179
-0.00539296
-0.00538776
-0.0051523
-0.00515588
-0.00516174
-0.00516984
-0.0051799
-0.00519131
-0.00520315
-0.00521417
-0.00522272
-0.00522693
-0.00522484
-0.00521489
-0.00519624
-0.00516926
-0.00513571
-0.00509863
-0.00506195
-0.00502985
-0.0050061
-0.00499348
-0.00499348
-0.0050061
-0.00502986
-0.00506196
-0.00509865
-0.00513573
-0.00516928
-0.00519626
-0.00521491
-0.00522487
-0.00522696
-0.00522276
-0.00521421
-0.00520319
-0.00519135
-0.00517994
-0.00516988
-0.00516178
-0.00515592
-0.00515235
-0.00491333
-0.00491563
-0.00491917
-0.00492394
-0.0049297
-0.00493594
-0.00494189
-0.0049465
-0.00494842
-0.00494613
-0.00493808
-0.00492305
-0.00490055
-0.00487106
-0.00483632
-0.00479912
-0.00476304
-0.00473183
-0.0047089
-0.00469676
-0.00469676
-0.0047089
-0.00473183
-0.00476304
-0.00479913
-0.00483633
-0.00487108
-0.00490056
-0.00492307
-0.0049381
-0.00494616
-0.00494845
-0.00494653
-0.00494192
-0.00493598
-0.00492974
-0.00492398
-0.00491921
-0.00491567
-0.00491337
-0.00467298
-0.0046743
-0.0046761
-0.0046784
-0.00468098
-0.00468344
-0.00468514
-0.0046852
-0.00468249
-0.00467574
-0.00466368
-0.00464534
-0.00462039
-0.00458939
-0.00455399
-0.0045168
-0.00448114
-0.00445051
-0.00442808
-0.00441623
-0.00441623
-0.00442808
-0.00445051
-0.00448114
-0.0045168
-0.00455399
-0.0045894
-0.0046204
-0.00464536
-0.0046637
-0.00467576
-0.00468252
-0.00468523
-0.00468517
-0.00468348
-0.00468102
-0.00467843
-0.00467614
-0.00467434
-0.00467302
-0.00443294
-0.00443355
-0.00443409
-0.00443463
-0.004435
-0.00443485
-0.00443366
-0.00443069
-0.00442497
-0.00441539
-0.00440087
-0.00438058
-0.00435426
-0.00432248
-0.0042868
-0.0042497
-0.00421432
-0.00418401
-0.00416183
-0.00415012
-0.00415012
-0.00416183
-0.004184
-0.00421431
-0.0042497
-0.0042868
-0.00432248
-0.00435426
-0.00438059
-0.00440088
-0.00441541
-0.00442499
-0.00443071
-0.00443369
-0.00443488
-0.00443503
-0.00443467
-0.00443413
-0.00443358
-0.00443298
-0.00419445
-0.00419456
-0.00419427
-0.00419365
-0.00419258
-0.00419079
-0.00418783
-0.00418305
-0.0041756
-0.00416448
-0.0041487
-0.0041275
-0.00410061
-0.00406859
-0.0040329
-0.00399591
-0.00396067
-0.00393046
-0.00390834
-0.00389665
-0.00389665
-0.00390833
-0.00393045
-0.00396066
-0.0039959
-0.00403289
-0.00406859
-0.00410061
-0.0041275
-0.00414871
-0.0041645
-0.00417562
-0.00418307
-0.00418785
-0.00419082
-0.00419261
-0.00419368
-0.0041943
-0.00419459
-0.00419448
-0.00395839
-0.00395818
-0.00395739
-0.00395611
-0.00395425
-0.00395158
-0.00394773
-0.00394212
-0.00393394
-0.00392227
-0.00390614
-0.00388479
-0.00385793
-0.00382604
-0.0037905
-0.00375361
-0.00371838
-0.0036881
-0.00366587
-0.00365411
-0.00365411
-0.00366587
-0.00368809
-0.00371836
-0.0037536
-0.00379049
-0.00382603
-0.00385793
-0.00388479
-0.00390615
-0.00392229
-0.00393396
-0.00394214
-0.00394776
-0.00395161
-0.00395428
-0.00395614
-0.00395743
-0.00395822
-0.00395842
-0.00372537
-0.00372499
-0.00372398
-0.00372242
-0.00372027
-0.00371734
-0.00371329
-0.00370757
-0.00369944
-0.00368795
-0.00367213
-0.00365118
-0.00362475
-0.00359323
-0.00355793
-0.0035211
-0.00348576
-0.00345526
-0.0034328
-0.00342089
-0.00342089
-0.0034328
-0.00345525
-0.00348575
-0.0035211
-0.00355792
-0.00359323
-0.00362476
-0.00365119
-0.00367215
-0.00368797
-0.00369946
-0.0037076
-0.00371331
-0.00371737
-0.0037203
-0.00372245
-0.00372401
-0.00372503
-0.0037254
-0.00349576
-0.00349534
-0.0034943
-0.00349277
-0.00349072
-0.00348798
-0.00348425
-0.00347899
-0.00347145
-0.00346068
-0.00344564
-0.00342546
-0.00339971
-0.0033687
-0.00333366
-0.00329684
-0.00326127
-0.00323042
-0.00320763
-0.00319551
-0.00319551
-0.00320763
-0.00323042
-0.00326126
-0.00329683
-0.00333366
-0.0033687
-0.00339972
-0.00342547
-0.00344565
-0.0034607
-0.00347148
-0.00347902
-0.00348428
-0.00348801
-0.00349075
-0.00349281
-0.00349433
-0.00349537
-0.00349579
-0.00326979
-0.0032694
-0.0032685
-0.00326723
-0.00326556
-0.00326336
-0.00326031
-0.0032559
-0.00324933
-0.00323961
-0.00322565
-0.00320647
-0.00318155
-0.00315109
-0.0031163
-0.0030794
-0.00304351
-0.00301222
-0.002989
-0.00297663
-0.00297663
-0.002989
-0.00301221
-0.00304351
-0.0030794
-0.0031163
-0.0031511
-0.00318156
-0.00320649
-0.00322567
-0.00323964
-0.00324936
-0.00325593
-0.00326034
-0.00326339
-0.0032656
-0.00326727
-0.00326854
-0.00326943
-0.00326982
-0.00304755
-0.00304726
-0.00304662
-0.00304577
-0.00304468
-0.00304323
-0.00304111
-0.00303779
-0.00303243
-0.00302397
-0.00301124
-0.00299316
-0.00296911
-0.0029392
-0.0029046
-0.00286755
-0.00283125
-0.00279942
-0.00277573
-0.00276307
-0.00276307
-0.00277573
-0.00279943
-0.00283125
-0.00286756
-0.00290461
-0.00293922
-0.00296913
-0.00299318
-0.00301126
-0.003024
-0.00303246
-0.00303782
-0.00304115
-0.00304326
-0.00304471
-0.0030458
-0.00304666
-0.0030473
-0.00304758
-0.00282909
-0.00282895
-0.00282864
-0.0028283
-0.00282791
-0.00282735
-0.0028263
-0.00282419
-0.00282014
-0.00281303
-0.00280157
-0.0027846
-0.00276138
-0.00273197
-0.00269749
-0.0026602
-0.00262342
-0.00259102
-0.00256681
-0.00255385
-0.00255385
-0.00256681
-0.00259103
-0.00262344
-0.00266022
-0.00269751
-0.002732
-0.00276141
-0.00278463
-0.0028016
-0.00281306
-0.00282018
-0.00282422
-0.00282633
-0.00282738
-0.00282794
-0.00282833
-0.00282867
-0.00282898
-0.00282912
-0.00261442
-0.00261445
-0.00261452
-0.00261474
-0.00261511
-0.00261549
-0.00261555
-0.00261468
-0.00261195
-0.00260615
-0.00259592
-0.00257998
-0.00255752
-0.00252851
-0.00249406
-0.00245648
-0.00241918
-0.00238616
-0.00236142
-0.00234816
-0.00234816
-0.00236143
-0.00238617
-0.00241919
-0.0024565
-0.00249408
-0.00252854
-0.00255755
-0.00258002
-0.00259595
-0.00260619
-0.00261199
-0.00261472
-0.00261559
-0.00261553
-0.00261515
-0.00261478
-0.00261456
-0.00261449
-0.00261446
-0.00240358
-0.0024038
-0.00240426
-0.00240506
-0.00240618
-0.00240748
-0.00240861
-0.00240892
-0.00240742
-0.00240283
-0.0023937
-0.00237866
-0.00235682
-0.00232811
-0.00229361
-0.0022557
-0.00221785
-0.00218423
-0.00215898
-0.00214542
-0.00214543
-0.00215899
-0.00218425
-0.00221787
-0.00225572
-0.00229365
-0.00232815
-0.00235686
-0.0023787
-0.00239374
-0.00240287
-0.00240746
-0.00240896
-0.00240865
-0.00240752
-0.00240621
-0.00240509
-0.0024043
-0.00240384
-0.00240361
-0.00219664
-0.00219706
-0.0021979
-0.00219925
-0.00220107
-0.00220323
-0.00220533
-0.00220669
-0.00220628
-0.00220272
-0.00219451
-0.0021802
-0.00215884
-0.00213031
-0.00209569
-0.0020574
-0.00201902
-0.00198483
-0.0019591
-0.00194527
-0.00194528
-0.00195911
-0.00198485
-0.00201905
-0.00205744
-0.00209573
-0.00213035
-0.00215888
-0.00218025
-0.00219455
-0.00220276
-0.00220632
-0.00220673
-0.00220537
-0.00220326
-0.00220111
-0.00219928
-0.00219794
-0.0021971
-0.00219667
-0.00199375
-0.00199437
-0.00199556
-0.0019974
-0.00199985
-0.00200274
-0.00200568
-0.00200792
-0.00200838
-0.00200565
-0.00199815
-0.00198438
-0.00196333
-0.00193486
-0.00190006
-0.0018614
-0.00182252
-0.0017878
-0.00176165
-0.00174758
-0.00174758
-0.00176166
-0.00178783
-0.00182255
-0.00186143
-0.0019001
-0.0019349
-0.00196337
-0.00198442
-0.00199819
-0.0020057
-0.00200842
-0.00200796
-0.00200571
-0.00200278
-0.00199988
-0.00199743
-0.0019956
-0.0019944
-0.00199378
-0.00179514
-0.00179595
-0.00179745
-0.0017997
-0.00180267
-0.00180617
-0.00180976
-0.00181268
-0.0018138
-0.00181167
-0.00180465
-0.00179121
-0.00177031
-0.0017418
-0.00170678
-0.00166774
-0.0016284
-0.00159323
-0.00156671
-0.00155243
-0.00155244
-0.00156672
-0.00159326
-0.00162843
-0.00166778
-0.00170682
-0.00174184
-0.00177036
-0.00179126
-0.00180469
-0.00181171
-0.00181384
-0.00181272
-0.0018098
-0.0018062
-0.0018027
-0.00179973
-0.00179748
-0.00179598
-0.00179517
-0.00160114
-0.00160211
-0.00160386
-0.00160645
-0.00160982
-0.00161378
-0.00161785
-0.00162124
-0.0016228
-0.00162103
-0.00161428
-0.00160098
-0.00158008
-0.00155142
-0.00151613
-0.00147672
-0.00143698
-0.00140142
-0.00137458
-0.00136014
-0.00136014
-0.00137459
-0.00140144
-0.00143701
-0.00147676
-0.00151617
-0.00155146
-0.00158012
-0.00160102
-0.00161432
-0.00162107
-0.00162284
-0.00162128
-0.00161788
-0.00161381
-0.00160985
-0.00160648
-0.00160389
-0.00160213
-0.00160117
-0.00141215
-0.00141323
-0.00141518
-0.00141801
-0.00142168
-0.00142595
-0.00143033
-0.00143401
-0.0014358
-0.00143419
-0.0014275
-0.00141417
-0.00139313
-0.00136424
-0.00132864
-0.00128887
-0.00124875
-0.00121285
-0.00118576
-0.00117118
-0.00117118
-0.00118577
-0.00121287
-0.00124878
-0.00128891
-0.00132868
-0.00136428
-0.00139317
-0.00141421
-0.00142754