/*--------------------------------*- C++ -*----------------------------------*\
  =========                 |
  \\      /  F ield         | OpenFOAM: The Open Source CFD Toolbox
   \\    /   O peration     | Website:  https://openfoam.org
    \\  /    A nd           | Version:  6
     \\/     M anipulation  |
\*---------------------------------------------------------------------------*/
FoamFile
{
    version     2.0;
    format      ascii;
    class       volVectorField;
    location    "0";
    object      U_rec;
}
// * * * * * * * * * * * * * * * * * * * * * * * * * * * * * * * * * * * * * //

dimensions      [0 1 -1 0 0 0 0];

internalField   nonuniform List<vector> 
13046
(
(-0.22841 0.123315 0)
(-0.489134 -0.164116 1.50576e-22)
(-0.13731 0.00630607 9.3728e-23)
(-0.245473 0.0631985 0)
(-0.119052 0.0521814 8.63063e-23)
(-0.403533 -0.139948 0)
(-0.262186 0.0712335 -3.46961e-23)
(-0.453845 -0.177552 -6.34752e-23)
(-0.0999829 0.0661312 4.44054e-23)
(-0.42638 0.191529 -7.01237e-22)
(-1.02581 -0.522272 0)
(0.023054 0.106128 -2.28863e-22)
(-0.277363 0.128454 8.58127e-23)
(-0.604472 -0.245912 5.15738e-22)
(-0.0795079 0.0448231 -3.00776e-23)
(-0.402463 0.227383 7.26121e-22)
(0.0139321 0.0935097 -5.41073e-22)
(-1.06641 -0.465219 -1.33822e-21)
(-0.15038 0.0840805 0)
(-0.284078 -0.0805408 5.41167e-23)
(-0.301982 -0.0138793 -2.23022e-22)
(-0.407449 0.220276 3.54357e-22)
(0.0185296 0.0980524 7.31547e-22)
(-1.05893 -0.47819 0)
(-0.215435 0.0849283 -6.88419e-23)
(-0.394158 -0.113867 1.36083e-22)
(-0.151515 0.0115005 0)
(-0.278461 0.145527 2.48896e-22)
(-0.632577 -0.254125 -1.38216e-22)
(-0.0809819 0.0357955 1.16787e-22)
(-0.22786 0.137325 0)
(-0.51223 -0.164114 0)
(-0.145809 -0.00754666 -9.52221e-23)
(-0.206044 0.0712956 7.99086e-23)
(-0.170335 0.003619 -2.92641e-23)
(-0.346 -0.0813776 -2.70494e-22)
(-0.21449 0.0542365 8.2676e-23)
(-0.171191 0.0159955 -1.64205e-23)
(-0.320516 -0.0691807 1.24075e-22)
(-0.188168 0.161738 -1.27987e-22)
(-0.279055 -0.123061 -2.11681e-23)
(-0.47655 -0.104066 2.77879e-22)
(-0.235162 0.0098056 -5.4897e-23)
(-0.195494 0.0212077 -2.35747e-23)
(-0.245946 -0.0239008 0)
(-0.250752 0.0076681 -1.25662e-23)
(-0.171487 0.0429839 4.38991e-23)
(-0.261592 -0.0443829 7.41377e-24)
(-0.239231 0.114994 0)
(-0.500587 -0.181844 1.10684e-23)
(-0.112889 0.0243611 -2.64222e-23)
(-0.450184 -0.263957 -3.95962e-22)
(-0.167972 0.186876 0)
(-0.487075 -0.0638319 6.70761e-22)
(-0.51317 -0.311646 5.66662e-22)
(-0.47169 -0.0470465 1.10047e-21)
(-0.153308 0.183672 -2.19952e-22)
(-0.937659 -0.329814 3.41727e-22)
(-0.346419 0.248666 0)
(-0.104662 -0.00944594 -2.28056e-22)
(-0.358972 0.104168 1.59036e-22)
(-0.746201 -0.387748 -3.69913e-22)
(-0.0347388 0.11554 4.57283e-22)
(0.0119498 0.102391 -3.47307e-22)
(-0.995824 -0.491317 6.7229e-22)
(-0.41195 0.1834 7.0222e-22)
(-0.332764 0.252606 0)
(-0.895214 -0.295777 0)
(-0.143604 -0.0465145 0)
(-0.319782 0.246238 1.38103e-22)
(-0.854948 -0.276488 0)
(-0.158923 -0.058362 -2.01706e-22)
(-0.978012 -0.346376 0)
(-0.358095 0.254341 2.63082e-23)
(-0.0908784 -0.00215065 -3.2469e-23)
(-0.152554 0.0971162 0)
(-0.279255 -0.0882393 -1.4866e-23)
(-0.329821 -0.0349658 2.09531e-22)
(-0.0455641 0.0386899 -2.96983e-22)
(-0.374355 0.247555 7.98548e-22)
(-1.01849 -0.388372 0)
(-0.227536 0.0850545 -4.95504e-23)
(-0.415783 -0.133072 0)
(-0.131298 0.0303594 0)
(0.0159232 0.103799 3.48098e-22)
(-1.01701 -0.501895 6.47036e-22)
(-0.41876 0.189312 -4.37134e-22)
(-0.434482 0.136143 8.49924e-22)
(-0.00182252 0.119841 0)
(-0.954597 -0.539125 4.34609e-22)
(-0.0374471 0.135905 0)
(-0.473965 0.0883185 0)
(-0.9293 -0.599717 -6.79818e-23)
(-0.349558 0.169821 0)
(-0.365387 0.168457 -2.56017e-22)
(-0.837144 -0.379112 -1.1311e-21)
(-0.870595 -0.408775 5.36063e-22)
(-0.0265107 0.0736074 1.0911e-22)
(-0.0142217 0.0866359 -2.87417e-22)
(-0.0107974 0.124119 1.66486e-23)
(-0.436844 0.12235 -8.30631e-22)
(-0.935148 -0.545051 0)
(-0.252028 0.0200241 -1.00482e-23)
(-0.153955 0.0504423 -4.99935e-23)
(-0.296431 -0.0724648 0)
(-0.116601 0.155606 0)
(-0.398952 -0.00463294 2.65923e-22)
(-0.499999 -0.272299 0)
(-0.162972 0.171877 -1.91222e-22)
(-0.392771 -0.209865 0)
(-0.458745 -0.0669834 8.71282e-22)
(-0.39478 0.182356 0)
(0.0200964 0.0948745 0)
(-0.920801 -0.491801 2.11534e-21)
(-0.260557 0.118691 -2.4541e-22)
(-0.559457 -0.215936 -1.11053e-22)
(-0.0900965 0.0431349 -1.84484e-22)
(-0.364414 0.198478 -2.81958e-22)
(-0.34954 0.187019 5.04386e-22)
(-0.912448 -0.395785 1.0542e-21)
(-0.0251364 0.0654618 -1.40141e-22)
(-0.861387 -0.372535 -7.81387e-22)
(-0.0325247 0.0619356 1.30967e-22)
(-0.419763 0.195582 7.29356e-22)
(-1.01824 -0.515843 2.17862e-21)
(0.0241879 0.104991 1.10558e-22)
(-0.316289 0.16267 0)
(-0.74369 -0.321858 6.18884e-22)
(-0.0520299 0.0509074 -1.78418e-22)
(-0.204657 0.164293 0)
(-0.240438 -0.0954374 1.18961e-22)
(-0.507098 -0.130051 -4.65762e-23)
(-0.0438329 0.140586 0)
(-0.464726 0.0809572 0)
(-0.910292 -0.581239 0)
(-0.394987 0.15977 0)
(-0.9209 -0.464612 1.86067e-21)
(-0.00102866 0.104395 3.50625e-22)
(-0.244555 0.146407 0)
(-0.557904 -0.194351 0)
(-0.13225 -0.00578026 0)
(-0.317642 0.0660097 0)
(-0.560517 -0.270199 0)
(-0.0719421 0.107835 0)
(-0.154512 0.173942 0)
(-0.43692 -0.242044 0)
(-0.453698 -0.0527985 -4.3971e-22)
(-0.116317 0.148253 2.14555e-23)
(-0.386747 -0.00479994 3.64336e-22)
(-0.486198 -0.254203 -1.5534e-22)
(-0.367524 0.114999 -6.35126e-22)
(-0.783778 -0.410387 0)
(-0.0258617 0.111152 -6.06042e-22)
(-0.105339 0.116223 0)
(-0.329462 0.0177363 -3.13122e-22)
(-0.438606 -0.202079 7.85075e-23)
(-0.625215 -0.381497 0)
(-0.434914 0.00197871 -7.37512e-22)
(-0.681213 -0.414785 0)
(-0.423778 0.024683 -4.27106e-22)
(-0.113989 0.170248 0)
(-0.0946394 0.162 0)
(-0.349251 0.0359077 -3.68125e-23)
(-0.546473 -0.285744 -2.48243e-22)
(-0.0839429 0.127727 9.33358e-23)
(-0.435841 0.18163 7.46313e-22)
(0.020684 0.107182 0)
(-1.01175 -0.535393 2.08366e-21)
(-0.405229 0.189912 6.99145e-22)
(0.0226621 0.100277 5.38913e-23)
(-0.966931 -0.501848 0)
(-0.398174 0.169672 5.06491e-22)
(-0.942513 -0.46891 0)
(0.003139 0.101544 -4.00899e-22)
(-0.236318 0.196401 0)
(-0.602425 -0.165764 -2.04008e-22)
(-0.250377 -0.116359 -8.21232e-23)
(-0.353076 0.0246636 -3.43557e-22)
(-0.0946294 0.132988 -4.15643e-23)
(-0.508226 -0.256113 0)
(0.0130644 0.111276 0)
(-0.99984 -0.560525 0)
(-0.448882 0.160885 -6.96432e-22)
(-0.218931 0.186507 0)
(-0.559735 -0.142157 3.14597e-22)
(-0.263671 -0.116737 -2.56282e-23)
(-0.103589 0.125209 0)
(-0.341798 0.0142267 0)
(-0.446875 -0.216031 0)
(-0.305461 0.0579443 -1.15163e-22)
(-0.520867 -0.245057 0)
(-0.0788971 0.101634 0)
(-0.656541 -0.288341 -7.64188e-24)
(-0.056711 0.0666232 8.25617e-23)
(-0.304195 0.152101 -3.9397e-22)
(-0.705912 -0.299719 0)
(-0.0589395 0.0520811 2.23409e-22)
(-0.433686 0.162073 8.41704e-22)
(0.0107543 0.112665 -3.19643e-22)
(-0.994846 -0.533266 2.71365e-21)
(-0.0311346 0.135363 -2.73137e-22)
(-0.445657 0.0959207 -4.92216e-22)
(-0.906968 -0.554963 -1.83734e-21)
(-0.459986 0.114535 1.73805e-21)
(-0.953711 -0.576999 0)
(-0.0155642 0.126606 2.87576e-22)
(-0.47492 -0.297133 2.24414e-23)
(-0.549776 -0.0860635 -3.52321e-22)
(-0.192737 0.21182 0)
(-0.281855 0.0924846 5.09248e-22)
(-0.369794 0.255276 -3.4785e-22)
(-0.0605282 0.0264227 1.80511e-22)
(-1.0207 -0.379105 0)
(-0.96629 -0.584462 0)
(-0.462853 0.124609 1.73095e-21)
(-0.00819557 0.121094 0)
(-0.23484 0.0430772 1.47802e-22)
(-0.149159 0.0397107 1.61567e-23)
(-0.328305 -0.0866546 -2.17185e-22)
(-0.268127 0.154581 0)
(-0.620884 -0.235274 1.95641e-23)
(-0.102708 0.018329 9.20727e-23)
(-0.0407859 0.139974 -1.97171e-22)
(-0.453431 0.0851488 0)
(-0.899105 -0.564751 2.11716e-21)
(-0.29528 0.102012 -4.32805e-22)
(-0.638395 -0.286581 -8.74051e-22)
(-0.0567443 0.0747355 0)
(0.0191968 0.102341 0)
(-0.971303 -0.53395 -2.41423e-21)
(-0.432022 0.176173 0)
(-0.176532 0.204023 0)
(-0.521583 -0.0677117 0)
(-0.515539 -0.331684 0)
(-0.448362 0.111492 -1.52571e-21)
(-0.937935 -0.560326 0)
(-0.0170389 0.127538 -1.81666e-23)
(-0.383835 0.0319079 -2.18678e-22)
(-0.612774 -0.349197 2.24727e-22)
(-0.0849238 0.145643 0)
(-0.314244 0.174383 0)
(-0.753952 -0.31535 -5.73131e-22)
(-0.0610957 0.040638 -1.33175e-22)
(-0.824325 -0.542431 1.76325e-21)
(-0.464176 0.0412088 9.12149e-22)
(-0.0816972 0.163242 -1.68734e-22)
(-0.438093 0.0256435 0)
(-0.722784 -0.451936 5.00343e-22)
(-0.0947355 0.165253 5.51236e-24)
(0.0158682 0.0995037 3.3461e-22)
(-0.948435 -0.537704 0)
(-0.434668 0.167322 1.03341e-21)
(-0.192616 0.185937 -1.25676e-22)
(-0.346707 -0.180663 1.15205e-22)
(-0.515559 -0.104064 -5.85531e-23)
(-0.358424 0.197865 -8.11919e-22)
(0.0242272 0.0948453 5.3621e-22)
(-0.918599 -0.435274 0)
(-0.13849 0.0757972 2.50811e-23)
(-0.281243 0.00663866 1.36874e-22)
(-0.313343 -0.09712 -1.41714e-22)
(-0.358663 0.0637126 -2.58258e-22)
(-0.366552 0.0420675 1.65844e-23)
(-0.65232 -0.354177 5.50362e-22)
(-0.603432 -0.332194 0)
(-0.0775451 0.136484 -8.48126e-23)
(-0.0598207 0.12773 8.56215e-23)
(-0.0282309 0.0544145 3.88845e-22)
(-0.38168 0.245925 -3.98779e-22)
(-1.04545 -0.403722 2.99986e-21)
(-0.298993 0.177951 0)
(-0.721924 -0.284719 0)
(-0.0858583 0.0216939 1.8117e-22)
(-0.438832 0.0411596 2.16384e-22)
(-0.768304 -0.487031 0)
(-0.0816938 0.160011 0)
(-0.380024 0.181543 3.13615e-22)
(-0.921795 -0.42956 0)
(-0.0067029 0.0868676 -1.57215e-22)
(-0.214422 0.0259111 5.22113e-24)
(-0.256497 -0.0195085 -6.24101e-23)
(-0.205821 0.00541606 -3.43431e-24)
(-0.400608 0.0408806 5.58044e-22)
(-0.67993 -0.400411 0)
(-0.0788671 0.150729 1.90554e-22)
(-0.302159 0.188488 0)
(-0.743435 -0.285082 -7.61414e-22)
(-0.0923543 0.0115154 1.75898e-22)
(-0.296103 0.119881 0)
(-0.310819 0.126414 -4.99351e-23)
(-0.198246 0.193398 -5.18371e-23)
(-0.358722 -0.194874 -4.38347e-22)
(-0.532105 -0.106149 1.45305e-21)
(-0.39774 0.0575933 5.85815e-22)
(-0.721739 -0.426851 -6.98076e-22)
(-0.0632643 0.143609 -1.77164e-22)
(-0.391073 0.180707 0)
(0.000676748 0.0944471 5.12714e-22)
(-0.947625 -0.451814 1.15406e-21)
(-0.162295 0.162449 2.64488e-22)
(-0.368376 -0.190372 0)
(-0.443914 -0.065573 -3.19122e-22)
(-0.126196 0.179808 2.49458e-22)
(-0.456442 -0.00896755 4.73644e-22)
(-0.627051 -0.396488 0)
(-0.341962 0.210023 2.29969e-22)
(-0.872491 -0.345973 8.8536e-22)
(-0.0610471 0.0321972 -9.63172e-23)
(-0.18416 0.195131 -1.59919e-23)
(-0.423036 -0.244535 0)
(-0.516236 -0.0830334 -8.99337e-22)
(-0.354799 0.216446 0)
(-0.36399 0.21159 0)
(-0.915064 -0.367249 6.62702e-22)
(-0.0493896 0.041223 2.29556e-22)
(-0.93237 -0.389981 -9.45075e-22)
(-0.0323658 0.0572838 -2.56955e-22)
(0.0153396 0.110956 2.5881e-22)
(-1.00787 -0.54803 0)
(-0.442138 0.168862 7.40866e-22)
(-0.334811 0.187239 -2.83302e-22)
(-0.823041 -0.347793 0)
(-0.0483684 0.0481374 -5.18225e-23)
(-0.791673 -0.430764 -7.29369e-21)
(0.0146122 0.0789278 -4.7952e-22)
(-0.340406 0.166429 -2.76646e-21)
(-0.321828 0.00175471 5.93712e-23)
(-0.11991 0.108498 0)
(-0.37619 -0.155464 0)
(-0.339865 0.101131 -4.7735e-22)
(-0.701331 -0.352043 0)
(-0.0399366 0.106959 -3.04842e-22)
(0.00879957 0.110004 1.7563e-22)
(-0.421932 0.162807 -1.65372e-21)
(-0.977655 -0.512442 -1.79745e-21)
(-0.535188 -0.332784 0)
(-0.482519 -0.0442739 -4.63638e-22)
(-0.153991 0.190523 2.49165e-22)
(-0.851695 -0.553568 2.66348e-21)
(-0.458362 0.0572106 6.01038e-22)
(-0.0659123 0.15344 0)
(-0.570658 -0.24584 5.18959e-22)
(-0.07112 0.0726798 0)
(-0.340504 0.133754 -6.22029e-22)
(-0.750245 -0.361169 -4.20845e-22)
(-0.0305371 0.0878894 -8.84497e-23)
(-0.559531 -0.253131 -3.75076e-22)
(-0.0691366 0.0828265 1.18808e-23)
(-0.399994 0.226251 3.66148e-23)
(0.00725772 0.0876817 -2.25987e-22)
(-1.05662 -0.455491 1.96687e-21)
(-0.459998 -0.301209 0)
(-0.587886 -0.105203 -1.35592e-22)
(-0.210074 0.222621 0)
(-0.353868 0.140089 6.33771e-22)
(-0.798612 -0.38644 5.13581e-22)
(-0.0220106 0.0949 1.2636e-22)
(-0.331623 0.0564531 0)
(-0.564126 -0.285996 3.60609e-22)
(-0.0731264 0.117244 0)
(-0.425796 -0.0278612 0)
(-0.478185 -0.271924 0)
(-0.135593 0.165011 0)
(-0.23779 0.0990375 6.87855e-23)
(-0.464253 -0.165398 2.33183e-22)
(-0.116513 0.0322306 1.46008e-23)
(-0.141377 0.187821 -3.02161e-22)
(-0.474343 -0.0266729 -1.2275e-21)
(-0.591705 -0.373332 -4.82418e-22)
(-0.443052 0.145847 9.65897e-22)
(-0.979252 -0.548461 -2.33226e-21)
(0.00463309 0.116696 2.96855e-22)
(-0.859782 -0.543052 -1.74498e-21)
(-0.447898 0.0690828 -6.09376e-22)
(-0.0547051 0.147697 -1.83972e-22)
(-0.292324 0.240845 3.97175e-22)
(-0.220761 -0.104907 -3.6843e-22)
(-0.778438 -0.23056 1.25515e-21)
(-0.369061 0.234943 -2.08978e-22)
(-0.359676 0.230825 1.56186e-22)
(-0.948368 -0.367067 2.17945e-22)
(-0.981906 -0.382547 0)
(-0.045994 0.0416009 1.0843e-22)
(-0.0578867 0.0311127 7.647e-23)
(0.0181363 0.084528 6.53122e-22)
(-0.832796 -0.432936 8.0328e-21)
(-0.348622 0.174904 -4.85324e-22)
(-0.367501 0.204679 4.63428e-23)
(0.0259873 0.0986105 -7.36145e-22)
(-0.956315 -0.442942 0)
(-0.371202 0.0724254 9.23654e-22)
(-0.702519 -0.384203 1.58198e-22)
(-0.0540447 0.130525 0)
(0.0144197 0.110884 6.16004e-22)
(-0.435079 0.169207 -7.36539e-22)
(-1.00779 -0.534771 0)
(-0.321058 0.229224 -6.77746e-22)
(-0.333157 0.228323 5.30576e-22)
(-0.838601 -0.295699 -9.38466e-22)
(-0.870764 -0.317149 -3.73585e-22)
(-0.126203 -0.0248127 1.38562e-22)
(-0.0992652 -0.00193018 6.93923e-23)
(-0.00823188 0.114331 0)
(-0.955568 -0.597894 0)
(-0.474772 0.120257 -3.66936e-22)
(-0.332469 0.192938 9.53419e-22)
(0.0233916 0.0901167 0)
(-0.874428 -0.403653 0)
(-0.300185 -0.030688 2.55649e-24)
(-0.172352 0.0714097 -1.91168e-23)
(-0.234643 -0.0428005 -2.5747e-23)
(-0.370269 0.18489 1.93968e-21)
(-0.899292 -0.462336 -3.09411e-21)
(0.020802 0.0920806 -3.42864e-23)
(-0.256608 0.196564 0)
(-0.644776 -0.198926 9.9924e-22)
(-0.198453 -0.0752071 -3.57142e-23)
(-0.45366 0.152769 2.49989e-23)
(-0.992935 -0.567001 -4.02957e-21)
(0.00871847 0.113247 4.99035e-24)
(-0.693571 -0.425381 -2.05638e-22)
(0.00649762 0.0653542 2.62263e-22)
(-0.328842 0.130237 1.27436e-21)
(-0.171044 0.149083 1.02069e-22)
(-0.291651 -0.122083 -7.94659e-23)
(-0.433973 -0.0795414 -6.40455e-22)
(-0.280389 0.0221942 0)
(-0.361551 -0.128456 1.60563e-22)
(-0.123024 0.0807739 -7.36224e-23)
(-0.411306 0.204851 0)
(0.0254058 0.104604 -3.34726e-22)
(-1.02615 -0.50384 -6.82497e-23)
(-0.292612 0.0241394 0)
(-0.383815 -0.147672 1.28002e-22)
(-0.113099 0.09366 1.00082e-22)
(-0.27912 -0.0201153 -9.89673e-23)
(-0.179569 0.0562309 3.57833e-24)
(-0.232001 -0.0314851 -8.60075e-24)
(-0.171352 0.207193 -1.52541e-22)
(-0.524469 -0.0582089 5.00287e-22)
(-0.568653 -0.377454 -4.82994e-22)
(-0.337385 -0.0261629 0)
(-0.304673 -0.106445 0)
(-0.141393 0.109451 -9.14338e-24)
(-0.338597 -0.0110457 -9.43092e-23)
(-0.350593 -0.136583 -6.23943e-23)
(-0.130888 0.115546 -1.47052e-24)
(-0.278497 0.237193 -5.72652e-22)
(-0.735835 -0.208089 1.03141e-21)
(-0.255825 -0.13696 3.43496e-22)
(0.0220767 0.104287 -4.64384e-22)
(0.0222618 0.105818 4.62424e-22)
(-1.04499 -0.505993 -1.52392e-21)
(-1.03543 -0.516514 -9.72306e-22)
(-0.41873 0.205362 0)
(-0.424491 0.19716 7.17941e-22)
(-0.450832 0.145392 -1.16169e-21)
(-0.98517 -0.560133 2.34687e-21)
(0.00461826 0.117027 -3.61973e-22)
(-0.208469 -0.102544 1.94047e-22)
(-0.305729 0.250887 -1.32651e-22)
(-0.820357 -0.247071 -1.60004e-21)
(-0.201364 0.181592 1.14743e-22)
(-0.302974 -0.147258 1.17888e-22)
(-0.523782 -0.118557 -2.977e-22)
(-0.463382 0.00600099 0)
(-0.713165 -0.463332 -5.1774e-22)
(-0.114162 0.177408 -5.70002e-24)
(-0.797398 -0.503297 -2.50542e-21)
(0.00593811 0.0784914 2.46585e-22)
(-0.403517 0.132435 9.9676e-22)
(-0.0266643 0.129944 0)
(-0.47189 0.100473 0)
(-0.940603 -0.59855 -1.40731e-21)
(-0.419306 0.186389 -7.61623e-22)
(0.0220632 0.102341 0)
(-0.984337 -0.519926 2.36886e-21)
(0.00590579 0.0591498 9.806e-34)
(-0.640536 -0.388822 3.7301e-21)
(-0.296045 0.123502 -1.28167e-21)
(-0.660421 -0.3451 -4.2073e-21)
(0.0108241 0.0631083 -9.78214e-34)
(-0.279012 0.145412 1.12972e-21)
(-0.804442 -0.453497 1.16377e-21)
(-0.396022 0.0941137 0)
(-0.0358374 0.129942 4.0941e-22)
(-0.917391 -0.576821 1.12681e-21)
(-0.00053986 0.0999688 2.44393e-22)
(-0.466566 0.128578 0)
(-0.404808 0.151985 6.12338e-22)
(-0.925489 -0.48359 -1.18362e-21)
(-0.000567748 0.109985 -2.34919e-22)
(-0.390436 0.235058 -1.56461e-21)
(0.0178699 0.0959802 -2.12088e-22)
(-1.07545 -0.447577 0)
(-0.267083 0.100866 -6.8617e-23)
(-0.0830923 0.0605498 4.87833e-23)
(-0.545936 -0.222427 -7.89003e-23)
(-0.955673 -0.601566 -7.78947e-22)
(-0.0135447 0.119516 -2.34601e-22)
(-0.47549 0.114363 -3.21887e-22)
(-0.470804 -0.00602323 5.27918e-22)
(-0.125514 0.183481 9.30825e-23)
(-0.678098 -0.438025 0)
(-0.785298 -0.487876 0)
(-0.428774 0.0560755 0)
(-0.0671394 0.152461 0)
(0.00222656 0.0289445 0)
(-0.360532 -0.190902 3.94567e-21)
(-0.159292 0.0716734 -1.16993e-21)
(-0.790097 -0.453402 -3.14983e-21)
(0.0122207 0.0780032 3.22565e-22)
(-0.355019 0.156984 1.04124e-21)
(-0.256132 0.0915134 1.62048e-22)
(-0.0968271 0.054109 -6.41771e-23)
(-0.492786 -0.19337 -1.38528e-22)
(-0.97177 -0.580712 -4.10363e-21)
(-0.46519 0.138906 8.75738e-22)
(0.00244768 0.111661 0)
(-0.0090482 0.110811 2.48703e-22)
(-0.47886 0.118096 0)
(-0.939954 -0.600079 2.94237e-21)
(-0.42679 0.183426 6.44416e-22)
(0.0174806 0.10752 -6.56797e-22)
(-1.01998 -0.518114 0)
(-0.00998908 0.0726473 4.92416e-22)
(-1.0365 -0.428949 -1.60878e-21)
(-0.389399 0.231469 0)
(-0.271892 0.24382 6.26391e-22)
(-0.726034 -0.195014 -1.31437e-21)
(-0.298182 -0.173615 1.07909e-22)
(-0.923894 -0.343238 -3.63774e-22)
(-0.348298 0.237659 -3.34201e-22)
(-0.0863423 0.00638044 2.43904e-22)
(-0.00490456 0.074722 4.53111e-22)
(-0.390117 0.242621 0)
(-1.07396 -0.430592 0)
(-0.267492 0.183166 7.71106e-23)
(-0.286304 0.191338 0)
(-0.655991 -0.22525 9.52641e-22)
(-0.709698 -0.254936 -1.01893e-21)
(-0.143774 -0.0241137 -2.67525e-23)
(-0.124586 -0.0140837 2.84545e-23)
(-0.253797 0.185901 -7.39525e-23)
(-0.629095 -0.200605 0)
(-0.177313 -0.0524321 -6.91514e-23)
(-0.31685 0.237406 0)
(-0.836491 -0.283235 1.53457e-21)
(-0.148188 -0.0453503 -4.56475e-23)
(-0.83521 -0.520844 8.19796e-22)
(-0.437403 0.0673338 -5.30682e-22)
(-0.0553281 0.146631 3.9101e-22)
(-0.974032 -0.578543 0)
(-0.457062 0.134952 -1.8605e-21)
(-0.00114247 0.118131 0)
(-0.0337562 0.13534 1.19497e-22)
(-0.432725 0.0927653 3.96923e-22)
(-0.879977 -0.529974 5.8701e-22)
(-0.714707 -0.359319 6.12964e-22)
(0.0141086 0.0706467 -1.82446e-22)
(-0.295697 0.159051 0)
(-0.198626 0.14546 -6.31088e-23)
(-0.204438 0.13618 0)
(-0.2136 -0.0618743 0)
(-0.472333 -0.120524 -9.61247e-22)
(-0.190287 -0.0409687 0)
(-0.468387 -0.130188 5.51442e-22)
(-0.291346 0.225542 0)
(-0.272836 0.217623 0)
(-0.208337 -0.0893125 4.02119e-23)
(-0.758442 -0.243196 -7.14124e-22)
(-0.182907 -0.0670903 -3.71348e-22)
(-0.70588 -0.216019 1.35535e-21)
(-0.687019 -0.44391 0)
(0.00476154 0.0647249 -3.66699e-22)
(-0.346775 0.122253 0)
(-0.978186 -0.575947 2.19882e-21)
(-0.461567 0.141242 -2.34006e-22)
(0.00384742 0.113056 -1.40984e-22)
(-0.216829 0.202902 2.44724e-22)
(-0.3411 -0.188668 2.18498e-22)
(-0.572527 -0.130098 -1.53675e-21)
(-0.787707 -0.513507 -1.50182e-21)
(-0.457795 0.0325718 -1.49792e-21)
(-0.0890233 0.166497 0)
(-0.0202266 0.0628363 -5.26893e-22)
(-1.02449 -0.416003 1.71129e-21)
(-0.384151 0.234194 -5.22951e-22)
(-0.889185 -0.504248 0)
(-0.404015 0.16679 0)
(0.0153452 0.0908041 0)
(-0.910509 -0.525829 0)
(-0.422048 0.161773 -8.03708e-22)
(0.0140826 0.0935501 -5.74634e-23)
(-0.332235 0.216945 2.74902e-22)
(-0.854297 -0.32551 -5.33324e-22)
(-0.0841023 0.01229 -1.02465e-22)
(-0.149504 0.154082 1.67138e-23)
(-0.377999 -0.185437 0)
(-0.417331 -0.0473247 -3.0685e-23)
(-0.428956 0.187546 -7.50876e-22)
(0.0197947 0.107489 -4.04789e-22)
(-1.03012 -0.521901 1.13192e-21)
(-0.823235 -0.478483 0)
(-0.408875 0.0916198 0)
(-0.0369933 0.135174 -3.55089e-22)
(0.00605444 0.0950442 -9.74244e-23)
(-0.982115 -0.466841 -2.08093e-21)
(-0.399847 0.191171 -1.33392e-21)
(-0.262177 0.217682 0)
(-0.240155 -0.115136 2.11475e-22)
(-0.679695 -0.19837 -6.13621e-22)
(-0.396306 0.0125248 -7.65038e-24)
(-0.569835 -0.321632 -3.29636e-22)
(-0.102617 0.153372 0)
(-0.185232 0.168022 2.74832e-23)
(-0.309659 -0.148714 2.82056e-23)
(-0.480876 -0.0986725 3.89972e-22)
(0.0188347 0.109042 2.75142e-24)
(-1.01889 -0.538418 -2.80315e-21)
(-0.436924 0.178752 -1.00403e-21)
(-0.377637 0.196108 2.05828e-22)
(-0.940731 -0.421832 5.02546e-22)
(-0.011782 0.0782514 0)
(-0.175626 0.140672 6.84045e-23)
(-0.261282 -0.0943961 -2.20163e-22)
(-0.42965 -0.0857218 4.11138e-22)
(-0.39022 0.243138 -5.32332e-22)
(0.00336866 0.0820932 -2.23001e-22)
(-1.08475 -0.435905 1.86185e-21)
(-0.241705 0.159516 8.98496e-23)
(-0.571335 -0.190701 0)
(-0.1501 -0.0244915 0)
(-0.310519 0.0414069 4.80186e-22)
(-0.469598 -0.212719 -1.08311e-22)
(-0.0912968 0.106263 0)
(-0.771807 -0.462475 0)
(-0.413202 0.0632245 -8.37221e-22)
(-0.0591231 0.146684 0)
(-0.380756 0.217318 4.34647e-22)
(0.026261 0.102091 7.64093e-23)
(-1.02068 -0.454109 -3.25363e-21)
(-0.380048 0.225006 -1.17397e-21)
(0.0249481 0.101502 0)
(-1.04046 -0.446415 2.65259e-21)
(0.00434149 0.0902294 -1.03179e-22)
(-0.996378 -0.459037 1.4865e-21)
(-0.397658 0.201286 1.19882e-21)
(-0.422552 -0.00508293 4.23563e-22)
(-0.5834 -0.346121 2.48456e-22)
(-0.117184 0.164701 0)
(0.0265274 0.0998747 -7.00331e-23)
(-0.978094 -0.434963 3.0372e-21)
(-0.3618 0.211317 0)
(0.00312735 0.112519 0)
(-0.951649 -0.506293 1.30885e-21)
(-0.417382 0.152274 1.75363e-22)
(0.00248832 0.0473819 -2.90075e-22)
(-0.536133 -0.348293 -3.78422e-21)
(-0.259506 0.0982488 0)
(-0.231787 0.130757 1.12504e-21)
(-0.573866 -0.278229 0)
(0.00956679 0.0534019 -2.91413e-22)
(-0.00247496 0.0784643 3.79385e-26)
(-1.06022 -0.439562 0)
(-0.393064 0.23539 0)
(0.018651 0.106207 0)
(-0.996069 -0.545168 0)
(-0.440144 0.173928 -1.56398e-21)
(-0.414415 0.208412 5.80771e-22)
(-0.412132 0.203995 -4.69876e-22)
(0.0186299 0.100421 2.29366e-22)
(-1.04871 -0.49065 4.62586e-22)
(0.0158645 0.0990842 3.34176e-22)
(-1.03431 -0.487238 -6.73265e-22)
(-0.42172 0.140667 -3.23075e-22)
(-0.941023 -0.515572 -7.68873e-22)
(-0.00152303 0.116785 0)
(-0.11003 0.178408 0)
(-0.749286 -0.498058 0)
(-0.472587 0.0120083 0)
(-0.205823 0.112535 0)
(-0.168542 -0.0138574 1.69315e-22)
(-0.430794 -0.121934 -2.37238e-22)
(-0.421431 0.113375 -9.01679e-22)
(-0.893452 -0.514458 -2.22583e-22)
(-0.0183001 0.126485 -3.47046e-22)
(-0.0281755 0.131676 -2.43199e-22)
(-0.42139 0.101392 1.25373e-21)
(-0.870131 -0.510515 3.0861e-22)
(-0.38385 0.250558 -4.70115e-22)
(-0.0202114 0.0603354 -2.19747e-22)
(-1.06966 -0.411111 -3.13346e-21)
(-0.298401 0.233165 0)
(-0.784551 -0.250183 -4.67515e-22)
(-0.183689 -0.0720891 3.63982e-22)
(-0.271574 0.205299 0)
(-0.685719 -0.219668 -1.31197e-21)
(-0.18635 -0.0692658 8.35829e-24)
(-0.384583 0.118061 8.06766e-22)
(-0.827793 -0.44558 -2.0862e-22)
(-0.0207091 0.116619 1.54271e-22)
(-0.394817 0.111117 0)
(-0.835893 -0.461485 -1.78311e-22)
(-0.0233791 0.122264 -1.61453e-22)
(-0.166384 0.127794 0)
(-0.264597 -0.0892485 3.94478e-22)
(-0.394439 -0.0685412 -1.57154e-22)
(-0.292128 0.19963 0)
(-0.729839 -0.259651 0)
(-0.127752 -0.0227514 -3.63908e-23)
(-0.0222185 0.123793 5.08753e-22)
(-0.943395 -0.60792 4.09868e-21)
(-0.480958 0.103325 0)
(-0.430663 0.149273 -1.30049e-21)
(0.00966326 0.0910226 0)
(-0.88267 -0.533641 -1.73723e-21)
(-0.425148 0.137479 -4.72076e-23)
(0.00637082 0.0855619 0)
(-0.846856 -0.527774 5.11054e-21)
(-0.22049 0.176321 -9.11421e-23)
(-0.231924 -0.0891723 4.02216e-23)
(-0.550919 -0.151824 -8.23401e-23)
(-0.828264 -0.481285 1.45787e-22)
(0.0122908 0.0827569 -4.8808e-22)
(-0.386382 0.155844 0)
(-0.387288 0.205207 -9.27526e-22)
(-0.00541577 0.0813933 -1.99386e-22)
(-0.978273 -0.437093 0)
(0.00755519 0.0764503 7.33487e-23)
(-0.783184 -0.485988 3.27593e-21)
(-0.384278 0.137776 0)
(-0.251857 0.0475978 -1.06725e-22)
(-0.126802 0.0593146 -1.01156e-22)
(-0.371728 -0.120934 3.49265e-23)
(-0.316915 0.140992 6.22838e-23)
(-0.715193 -0.319416 1.30733e-22)
(-0.0467079 0.0694285 1.12504e-22)
(-0.533307 -0.316664 -5.19934e-22)
(-0.438161 -0.0239343 -8.68346e-22)
(-0.13377 0.171268 0)
(-0.000658726 0.105077 0)
(-0.93858 -0.583229 1.30621e-21)
(-0.4694 0.130609 0)
(-0.807623 -0.48373 0)
(-0.415107 0.0791013 0)
(-0.0464948 0.140611 0)
(0.0129311 0.0915059 0)
(-0.395158 0.23567 5.91809e-22)
(-1.08016 -0.449882 -1.82515e-21)
(-0.333738 0.14552 0)
(-0.757004 -0.348464 -4.34019e-23)
(-0.034522 0.078387 -1.098e-22)
(-0.20279 0.101094 0)
(-0.170899 -0.00994261 -1.3612e-22)
(-0.402878 -0.107397 0)
(-0.963245 -0.576845 3.87821e-21)
(-0.461698 0.144142 -8.31458e-22)
(0.00547006 0.106846 0)
(0.00949968 0.10551 2.32493e-22)
(-0.976968 -0.497689 -8.91931e-23)
(-0.413084 0.172705 6.25583e-23)
(-0.397726 0.206742 0)
(-0.391408 0.203036 -9.73963e-22)
(0.0261172 0.103155 1.67236e-22)
(0.0255306 0.101426 2.2193e-22)
(-1.00963 -0.480662 1.8139e-21)
(-0.985717 -0.478694 -1.49196e-21)
(-0.342186 0.0719921 0)
(-0.632894 -0.331124 -1.34344e-21)
(-0.0585998 0.118038 -1.34026e-22)
(-0.760954 -0.423926 -1.59844e-21)
(-0.384323 0.0847038 0)
(-0.0418859 0.130145 1.92617e-22)
(-0.277481 0.063481 2.09788e-22)
(-0.464345 -0.193303 -2.34863e-22)
(-0.090572 0.0809684 -5.81497e-23)
(-0.916615 -0.556297 -3.3224e-21)
(-0.447998 0.146281 -1.32246e-21)
(-0.903271 -0.563336 1.68664e-21)
(0.0077871 0.0967395 0)
(-0.454512 0.135291 1.27791e-21)
(0.0032623 0.0957242 0)
(-0.367273 0.156377 0)
(-0.852055 -0.414743 0)
(-0.0138314 0.0933608 -1.66125e-22)
(-0.454004 0.15354 -1.59389e-21)
(-0.44871 0.154044 3.02241e-21)
(-0.968564 -0.56607 -2.18213e-21)
(-0.948105 -0.556546 5.14017e-21)
(0.0104302 0.104983 -4.44407e-22)
(0.0110167 0.100847 -4.58707e-24)
(-0.384236 0.0723787 0)
(-0.727447 -0.410083 1.26382e-21)
(-0.0545282 0.13709 -2.41793e-22)
(-0.309221 0.0997927 -2.8395e-22)
(-0.659741 -0.310651 6.86649e-22)
(-0.0477117 0.0874096 0)
(-0.392364 0.227907 0)
(0.0224987 0.100121 0)
(-1.06181 -0.459514 -2.54801e-21)
(-0.33461 0.0872569 -2.03125e-22)
(-0.654455 -0.329001 4.05001e-22)
(-0.0498416 0.110035 2.34068e-22)
(-0.286309 0.0751253 -8.17676e-23)
(-0.520538 -0.232824 2.7593e-22)
(-0.0772619 0.0860857 -8.55184e-23)
(-0.392337 0.213171 0)
(0.0260768 0.103088 0)
(-1.02856 -0.473175 3.37728e-21)
(-0.335494 0.159489 0)
(-0.79023 -0.353053 -2.02882e-22)
(-0.0333344 0.070431 1.87313e-22)
(-0.660868 -0.436415 0)
(-0.49445 -0.0233242 0)
(-0.141836 0.193875 1.31099e-23)
(-0.263436 0.225368 1.6067e-23)
(-0.689071 -0.192823 0)
(-0.261081 -0.135855 -4.05287e-22)
(-0.884635 -0.581174 -1.10601e-21)
(-0.0592158 0.149268 0)
(-0.46872 0.0646385 0)
(0.00442169 0.0423554 6.99078e-22)
(-0.490343 -0.267775 -5.51974e-21)
(-0.215467 0.0983426 1.63717e-21)
(-0.330919 0.116962 0)
(-0.700372 -0.338487 -4.10608e-22)
(-0.0389446 0.0937667 1.16819e-22)
(-0.406528 0.219022 -1.09177e-21)
(0.0219488 0.101134 -8.16743e-22)
(-1.06116 -0.478856 0)
(-0.378604 -0.236082 1.62587e-22)
(-0.654996 -0.1517 7.86283e-22)
(-0.241442 0.2337 1.24413e-22)
(-0.28916 0.169211 0)
(0.0176881 0.0751683 2.70869e-22)
(-0.750821 -0.352543 0)
(-0.122506 0.133508 -1.02572e-22)
(-0.129348 0.145981 1.07261e-22)
(-0.404597 -0.194133 0)
(-0.364547 -0.0124007 -3.0432e-22)
(-0.42484 -0.21655 2.00001e-22)
(-0.389875 -0.0236344 2.72698e-22)
(-0.29023 0.0443648 -1.95863e-22)
(-0.434015 -0.179167 -1.79889e-22)
(-0.0984395 0.0918836 0)
(-0.154861 0.145347 -1.17643e-22)
(-0.138251 0.134745 0)
(-0.330866 -0.147648 8.17893e-23)
(-0.409956 -0.0572709 -2.66452e-22)
(-0.350038 -0.154959 -8.2457e-23)
(-0.377247 -0.0325205 1.04752e-23)
(-0.318281 0.114011 -2.01812e-23)
(-0.613956 -0.28869 2.41993e-22)
(-0.0566515 0.0922017 9.15271e-23)
(-0.316862 0.0882306 4.83225e-22)
(-0.614028 -0.294427 -7.22613e-24)
(-0.0578049 0.101089 0)
(0.00236494 0.0884274 0)
(-0.85556 -0.546701 0)
(-0.442647 0.129573 -1.59754e-21)
(-0.236197 0.176184 8.39753e-23)
(-0.581105 -0.17474 0)
(-0.19383 -0.0608232 -8.25529e-23)
(-0.44861 0.162749 2.43868e-21)
(-0.990663 -0.560381 -2.21321e-21)
(0.0145667 0.10782 2.49495e-22)
(-0.387395 0.133778 0)
(-0.399479 0.139154 -5.89543e-22)
(-0.86276 -0.452028 2.60133e-22)
(-0.895889 -0.473785 -1.11223e-21)
(-0.0114249 0.111606 2.07071e-22)
(-0.00642169 0.113108 2.26821e-22)
(-0.230582 0.163138 0)
(-0.554593 -0.170758 0)
(-0.178333 -0.0462651 -2.80486e-23)
(-0.309943 0.218833 -1.83846e-22)
(-0.795696 -0.280894 0)
(-0.13027 -0.0251498 -1.243e-22)
(-0.361693 0.131153 2.2921e-22)
(-0.799837 -0.404653 0)
(-0.0201057 0.103407 0)
(-0.185629 0.0783601 -6.62134e-23)
(-0.331233 -0.060119 6.97269e-23)
(-0.203083 -0.0246263 -2.5478e-23)
(-0.409001 0.120301 0)
(-0.882515 -0.492098 0)
(-0.0152308 0.122146 3.67629e-22)
(-0.19249 0.121655 0)
(-0.198848 -0.040015 -3.19331e-23)
(-0.424189 -0.107075 0)
(-0.37131 0.0891716 4.60235e-22)
(-0.736781 -0.405336 7.45533e-22)
(-0.0423277 0.12418 2.16772e-23)
(-0.308488 0.207351 -2.01511e-22)
(-0.779913 -0.285405 0)
(-0.111521 -0.0103869 -2.62371e-22)
(-0.183983 0.0942314 6.56756e-23)
(-0.172343 0.101755 3.63719e-23)
(-0.359887 -0.0749071 -7.79714e-23)
(-0.203325 -0.032959 5.9981e-23)
(-0.35836 -0.0657684 0)
(-0.228938 -0.0556765 9.9742e-23)
(-0.151359 0.121344 3.28833e-23)
(-0.292145 -0.108951 -2.25903e-22)
(-0.14031 0.126786 -2.08903e-23)
(-0.368337 -0.0468169 2.60983e-22)
(-0.340303 -0.142537 6.47189e-23)
(-0.365974 -0.0320021 8.14628e-23)
(-0.262292 0.170722 -1.06591e-22)
(-0.278251 0.16888 0)
(-0.630585 -0.222234 -5.76613e-22)
(-0.662925 -0.24864 4.54258e-22)
(-0.130196 -0.0109249 1.49629e-22)
(-0.103455 0.0122146 -2.50307e-22)
(-0.00412785 0.0788981 0)
(-1.01984 -0.439165 9.85902e-22)
(-0.391542 0.220808 6.58054e-22)
(-0.151625 0.196623 -1.55662e-22)
(-0.49791 -0.0365075 -7.88963e-22)
(-0.610338 -0.397875 8.21591e-22)
(0.00569776 0.0875722 2.42275e-22)
(0.00955022 0.0925281 -2.02451e-22)
(-1.0356 -0.45864 -8.52986e-22)
(-1.02412 -0.469318 -1.35926e-21)
(-0.399339 0.219091 -1.76858e-21)
(-0.403948 0.209024 9.43017e-22)
(-0.194787 0.205286 -1.83218e-22)
(-0.432187 -0.258782 2.23976e-22)
(-0.543148 -0.0943236 -1.22954e-22)
(-0.203942 0.0447134 -1.20193e-22)
(-0.197904 0.000538958 0)
(-0.284721 -0.0379053 1.90606e-22)
(-0.410427 0.132886 3.20336e-22)
(-0.90648 -0.495289 1.2598e-21)
(-0.00765923 0.118015 0)
(-0.211207 0.155429 0)
(-0.206346 -0.0667772 2.67505e-23)
(-0.506535 -0.139244 3.48725e-22)
(-0.317956 0.206975 0)
(-0.804416 -0.303191 0)