/*--------------------------------*- C++ -*----------------------------------*\
  =========                 |
  \\      /  F ield         | OpenFOAM: The Open Source CFD Toolbox
   \\    /   O peration     | Website:  https://openfoam.org
    \\  /    A nd           | Version:  6
     \\/     M anipulation  |
\*---------------------------------------------------------------------------*/
FoamFile
{
    version     2.0;
    format      ascii;
    class       volVectorField;
    location    "0";
    object      U;
}
// * * * * * * * * * * * * * * * * * * * * * * * * * * * * * * * * * * * * * //

dimensions      [0 1 -1 0 0 0 0];

internalField   nonuniform List<vector> 
13046
(
(0.29438 0.134318 0)
(0.370924 -0.0520677 3.07625e-21)
(0.157991 0.0172499 6.83631e-21)
(0.298217 0.0890531 0)
(0.169083 0.0563439 6.16739e-21)
(0.31642 -0.0474722 0)
(0.315185 0.0963936 -9.11413e-22)
(0.337447 -0.0693199 -1.5723e-21)
(0.155321 0.0650415 6.80741e-21)
(0.424529 0.194301 -3.46219e-21)
(0.617916 -0.259987 0)
(0.0109215 0.0585564 -4.59835e-21)
(0.337272 0.142326 5.80209e-21)
(0.417039 -0.0982011 4.84493e-21)
(0.121159 0.0373638 -3.777e-21)
(0.406294 0.22612 -1.5349e-21)
(0.0186168 0.0399395 -7.35383e-21)
(0.651779 -0.21677 -2.42584e-21)
(0.213525 0.0913237 0)
(0.24788 -0.0228959 3.33478e-21)
(0.306998 0.0371766 -9.47576e-21)
(0.410814 0.220181 1.91032e-21)
(0.015512 0.0449655 1.47292e-20)
(0.644978 -0.226371 -7.91486e-22)
(0.27666 0.101692 -3.81765e-21)
(0.323183 -0.0282621 5.66248e-21)
(0.179279 0.0280778 0)
(0.337422 0.156767 -4.85041e-23)
(0.432835 -0.101112 -1.41884e-21)
(0.116007 0.0283678 1.30482e-20)
(0.293572 0.145761 0)
(0.385784 -0.049687 0)
(0.157102 0.0053174 -6.95985e-21)
(0.262932 0.0895978 1.33514e-20)
(0.194023 0.0261022 -2.30513e-21)
(0.302814 -0.0101383 -8.78311e-21)
(0.263855 0.0771874 2.40605e-23)
(0.201265 0.0369641 0)
(0.287254 -0.00493135 0)
(0.25375 0.162693 -4.94583e-21)
(0.220752 -0.065112 -6.35196e-21)
(0.395862 -0.0100083 4.68511e-21)
(0.259094 0.0448059 -3.06836e-21)
(0.228737 0.0473205 3.12699e-21)
(0.249372 0.0186429 0)
(0.272959 0.0452283 -1.94907e-21)
(0.21744 0.0608577 0)
(0.249703 0.00430525 1.00896e-21)
(0.303938 0.128651 0)
(0.370959 -0.0643593 2.21021e-22)
(0.145555 0.0290601 5.00479e-27)
(0.305328 -0.146462 -7.97573e-21)
(0.224284 0.184857 0)
(0.431105 0.0176112 5.76525e-21)
(0.337108 -0.170135 1.13613e-20)
(0.434946 0.0283217 6.24667e-21)
(0.208807 0.181107 -7.74862e-21)
(0.596372 -0.128824 1.11153e-21)
(0.368773 0.248731 0)
(0.100131 -0.0264898 -6.04206e-21)
(0.404342 0.127757 2.8009e-21)
(0.470059 -0.184102 -2.88279e-21)
(0.0983332 0.095556 1.58233e-20)
(0.0336009 0.0609319 -8.37184e-21)
(0.602186 -0.232351 1.79883e-21)
(0.429431 0.190832 5.0157e-21)
(0.356903 0.252513 0)
(0.580102 -0.10935 -5.21799e-21)
(0.123873 -0.0488786 -1.76324e-21)
(0.347836 0.246817 2.22591e-21)
(0.561743 -0.0987564 7.07127e-21)
(0.134298 -0.0536521 2.39742e-21)
(0.616753 -0.138115 1.14947e-23)
(0.375625 0.253572 -5.55227e-23)
(0.0899793 -0.0243471 1.12412e-23)
(0.219718 0.102941 0)
(0.240403 -0.0303932 -3.6338e-21)
(0.3218 0.0254999 6.7382e-21)
(0.0608486 0.00120333 -6.71038e-21)
(0.388547 0.246616 7.17433e-21)
(0.632951 -0.165319 2.43828e-21)
(0.288066 0.103374 -2.00986e-21)
(0.328656 -0.040251 2.02554e-21)
(0.167962 0.0395714 0)
(0.0271872 0.0595384 7.53614e-21)
(0.613729 -0.239697 0)
(0.431101 0.195003 -2.99704e-21)
(0.454968 0.152364 5.24166e-21)
(0.0509445 0.09078 0)
(0.568295 -0.265103 1.40136e-21)
(0.0770485 0.120751 0)
(0.486593 0.113955 0)
(0.540948 -0.306026 -1.86924e-22)
(0.390625 0.179583 5.83715e-21)
(0.402978 0.178934 -8.15214e-21)
(0.527471 -0.167265 -5.60219e-21)
(0.541986 -0.184894 2.62614e-21)
(0.0724751 0.0463055 3.43938e-21)
(0.0636976 0.0559975 -8.80685e-21)
(0.06071 0.0987359 4.22219e-22)
(0.45931 0.14163 -5.12733e-21)
(0.555715 -0.27006 0)
(0.281908 0.0557555 1.16626e-23)
(0.204053 0.0635179 0)
(0.26421 -0.0120386 0)
(0.182606 0.15006 -1.38075e-20)
(0.397802 0.0516467 2.85181e-21)
(0.33676 -0.140456 0)
(0.22576 0.170147 -2.12447e-21)
(0.277678 -0.113562 0)
(0.40768 0.0138062 1.08451e-20)
(0.384236 0.182074 0)
(0.00125121 0.0497751 6.30957e-21)
(0.560913 -0.257323 1.88922e-21)
(0.32263 0.133484 -4.02011e-21)
(0.395387 -0.0828658 -2.06131e-21)
(0.131256 0.0390548 -6.79922e-21)
(0.395421 0.204061 -3.3991e-21)
(0.38699 0.194171 3.17375e-21)
(0.569209 -0.173242 -1.54954e-21)
(0.061688 0.0327369 -3.94803e-21)
(0.542654 -0.161433 1.51098e-21)
(0.0706638 0.0337892 3.68848e-21)
(0.415398 0.196986 9.13295e-21)
(0.615782 -0.259044 2.69647e-21)
(0.00691229 0.0557084 2.0629e-21)
(0.365846 0.173058 0)
(0.484951 -0.136542 3.72295e-21)
(0.0917899 0.0330442 -1.99991e-20)
(0.268761 0.1666 0)
(0.199424 -0.0511794 6.39223e-21)
(0.403448 -0.0249153 -2.89533e-22)
(0.0865747 0.127137 0)
(0.481741 0.109192 0)
(0.532067 -0.295844 0)
(0.425527 0.171964 0)
(0.561959 -0.218242 7.25226e-21)
(0.0543114 0.0712681 8.9141e-21)
(0.307495 0.154313 0)
(0.406561 -0.0654175 0)
(0.145985 0.0032343 0)
(0.362863 0.0973995 0)
(0.379041 -0.124694 0)
(0.139528 0.0969837 0)
(0.216504 0.171146 1.96596e-21)
(0.300645 -0.130247 0)
(0.41248 0.0230775 -5.85635e-21)
(0.18451 0.142451 1.33779e-20)
(0.388406 0.0520727 6.09108e-21)
(0.330742 -0.128732 -6.94888e-21)
(0.410872 0.136333 -6.78082e-21)
(0.490152 -0.194722 0)
(0.0874597 0.0882401 -2.06065e-20)
(0.175259 0.111079 0)
(0.351855 0.0636699 -1.30543e-20)
(0.315826 -0.0935275 -1.76982e-21)
(0.395861 -0.200605 -3.18015e-21)
(0.435503 0.0581125 -6.6484e-21)
(0.424784 -0.215225 0)
(0.438389 0.0726334 -3.84583e-21)
(0.170763 0.164585 -6.69188e-21)
(0.151684 0.153888 6.4279e-21)
(0.37976 0.0777447 -8.38974e-22)
(0.366901 -0.13962 -3.63862e-21)
(0.152839 0.117471 3.89134e-21)
(0.434789 0.185985 3.55498e-21)
(0.0143803 0.0632249 -2.3895e-21)
(0.606934 -0.268166 3.39843e-21)
(0.396332 0.189812 2.75043e-21)
(0.00226391 0.0521577 9.45641e-22)
(0.588108 -0.258394 0)
(0.425266 0.180075 -5.5201e-23)
(0.574692 -0.219845 0)
(0.0473041 0.065621 -1.07718e-20)
(0.289437 0.198093 0)
(0.451445 -0.0413151 -1.50918e-21)
(0.196637 -0.0714766 -3.7579e-21)
(0.37518 0.0697572 -5.52796e-21)
(0.16425 0.124562 0)
(0.347299 -0.125255 0)
(0.0243726 0.0743798 0)
(0.593003 -0.281258 0)
(0.452013 0.169861 -3.03428e-21)
(0.276746 0.187759 0)
(0.432641 -0.029043 3.25176e-21)
(0.206719 -0.0685474 -9.68245e-22)
(0.173824 0.119472 0)
(0.360188 0.0609491 0)
(0.316952 -0.103239 0)
(0.350836 0.0903157 -2.72228e-21)
(0.360144 -0.111021 0)
(0.1461 0.09248 0)
(0.437865 -0.122952 2.64551e-23)
(0.107651 0.0525338 4.62157e-21)
(0.357713 0.163416 -8.52466e-21)
(0.465635 -0.125324 0)
(0.100306 0.0366163 2.06544e-20)
(0.447599 0.172617 6.03781e-21)
(0.0353579 0.0758186 -6.81672e-21)
(0.59399 -0.260086 6.74571e-21)
(0.0796488 0.117212 -6.22151e-21)
(0.468297 0.12146 -3.13229e-21)
(0.536363 -0.278864 -7.03582e-21)
(0.47439 0.133991 9.00712e-21)
(0.559063 -0.290138 0)
(0.0590121 0.104653 6.12072e-21)
(0.31433 -0.170683 3.26678e-21)
(0.463267 0.00664264 -2.61559e-21)
(0.238869 0.212074 -6.58734e-21)
(0.338665 0.114598 5.33071e-21)
(0.383707 0.253357 -3.61371e-21)
(0.0697485 -0.00778141 4.12914e-21)
(0.636907 -0.158516 -1.14832e-23)
(0.566728 -0.294658 0)
(0.47231 0.141763 2.74374e-21)
(0.0488886 0.0958124 0)
(0.27843 0.0715602 9.84938e-21)
(0.193308 0.0531769 0)
(0.28327 -0.0180099 -3.31194e-21)
(0.328019 0.163219 0)
(0.431659 -0.0887054 2.05311e-22)
(0.127194 0.0168062 -3.85223e-21)
(0.0870803 0.124834 -4.76831e-21)
(0.474372 0.113278 0)
(0.529601 -0.286128 8.10244e-21)
(0.351053 0.122921 0)
(0.42672 -0.124461 -8.78682e-21)
(0.112086 0.0609767 0)
(0.00912962 0.0598269 0)
(0.583493 -0.275005 -2.88405e-21)
(0.424848 0.179369 0)
(0.223697 0.20337 7.12924e-21)
(0.458136 0.016602 0)
(0.335861 -0.186719 0)
(0.468121 0.13269 -7.90764e-21)
(0.552759 -0.280843 0)
(0.0639389 0.105228 7.49191e-24)
(0.408119 0.0761414 -7.37715e-21)
(0.394646 -0.177166 -2.76778e-21)
(0.149331 0.135838 8.95608e-21)
(0.362447 0.182901 0)
(0.492371 -0.130765 -3.47776e-21)
(0.0938271 0.0240327 -2.08345e-21)
(0.489842 -0.281105 1.01577e-20)
(0.477906 0.0828879 5.59057e-21)
(0.126728 0.155693 -3.762e-21)
(0.451512 0.0732074 0)
(0.443566 -0.235226 4.00703e-21)
(0.14798 0.157716 1.34893e-22)
(0.009866 0.059998 4.857e-21)
(0.566802 -0.280079 0)
(0.425794 0.170879 3.30907e-21)
(0.251013 0.185814 -9.22653e-21)
(0.25114 -0.102582 4.68593e-21)
(0.426311 -0.00660886 4.75645e-22)
(0.349021 0.194703 -3.04083e-21)
(-0.00359939 0.0441628 5.23091e-22)
(0.569156 -0.223557 0)
(0.199598 0.0819793 -2.03547e-21)
(0.302349 0.0500464 7.65852e-21)
(0.264338 -0.0301553 -9.98542e-21)
(0.398202 0.0977457 -3.0283e-21)
(0.397383 0.0827991 -2.48524e-23)
(0.418656 -0.172585 6.7599e-21)
(0.392811 -0.165413 6.63009e-21)
(0.144229 0.125711 -7.10015e-21)
(0.126125 0.113873 3.67307e-21)
(0.0484332 0.0109514 8.78222e-21)
(0.392488 0.244512 -3.76692e-21)
(0.645955 -0.174836 0)
(0.34975 0.184721 0)
(0.480869 -0.112461 0)
(0.108673 0.0120857 8.30222e-21)
(0.457792 0.0836729 1.44881e-21)
(0.466693 -0.251616 0)
(0.133519 0.150586 0)
(0.410469 0.189731 -3.20046e-21)
(0.56865 -0.195413 0)
(0.0531461 0.0517538 -3.93626e-21)
(0.248331 0.0545267 -2.07492e-21)
(0.260175 0.0236122 -3.01474e-21)
(0.228815 0.0354913 1.03758e-21)
(0.425813 0.0828894 4.90935e-21)
(0.426991 -0.204235 0)
(0.13975 0.140026 6.19034e-21)
(0.349758 0.194125 0)
(0.493981 -0.111204 -4.3488e-21)
(0.108881 0.00289355 5.34782e-21)
(0.353031 0.136733 -8.75167e-21)
(0.365356 0.142805 7.04213e-21)
(0.253405 0.193538 7.28286e-21)
(0.25582 -0.112382 -1.35719e-20)
(0.43646 -0.00722466 1.05319e-20)
(0.42926 0.0944149 5.11615e-21)
(0.449234 -0.215491 -5.87057e-21)
(0.123662 0.130233 -5.6494e-21)
(0.418474 0.18895 1.14009e-20)
(0.0468987 0.0576891 1.38601e-20)
(0.579402 -0.208418 3.60244e-21)
(0.227397 0.160683 3.19889e-21)
(0.267189 -0.101369 0)
(0.396871 0.0145649 -3.64725e-21)
(0.178601 0.175704 7.26102e-21)
(0.446338 0.0512941 3.82294e-21)
(0.394805 -0.211385 0)
(0.375429 0.213966 1.09095e-21)
(0.554678 -0.142571 3.83487e-21)
(0.0816816 0.00869567 -2.45415e-21)
(0.238313 0.19407 -6.01276e-22)
(0.290057 -0.138605 0)
(0.439524 0.00754576 -7.92602e-21)
(0.384005 0.219468 0)
(0.392042 0.215314 0)
(0.575322 -0.15404 2.47681e-21)
(0.0726257 0.012853 6.38813e-21)
(0.581995 -0.168132 -3.50461e-21)
(0.0625719 0.024107 -6.78996e-21)
(0.0250817 0.0717021 5.30334e-21)
(0.600807 -0.271607 0)
(0.447889 0.176602 3.99579e-21)
(0.375789 0.194129 0)
(0.525632 -0.14719 1.76273e-21)
(0.0809199 0.0249149 -2.17216e-21)
(0.486194 -0.230635 -5.33761e-21)
(-0.00158727 0.0397175 -7.78995e-21)
(0.329747 0.164882 -8.03917e-21)
(0.336134 0.0515279 1.05029e-20)
(0.189588 0.1065 0)
(0.286266 -0.0673143 3.73539e-21)
(0.388923 0.124676 -6.79725e-21)
(0.449006 -0.164415 0)
(0.104059 0.0884944 -1.20807e-20)
(0.0399055 0.0733389 4.31914e-21)
(0.441397 0.173837 -1.09411e-20)
(0.587005 -0.247155 -5.09512e-21)
(0.347328 -0.182395 4.26156e-21)
(0.443695 0.0295036 0)
(0.206514 0.188788 8.78226e-21)
(0.50435 -0.284262 1.23815e-20)
(0.4767 0.093667 3.4716e-21)
(0.111166 0.143389 0)
(0.393411 -0.103652 4.45143e-21)
(0.126848 0.06317 0)
(0.388904 0.149986 -7.49174e-21)
(0.478985 -0.163731 -3.19897e-21)
(0.087527 0.0658696 -3.70718e-21)
(0.385024 -0.109886 -1.57257e-22)
(0.129767 0.0725485 -3.8165e-23)
(0.407198 0.226059 8.6181e-21)
(0.0253976 0.036569 -1.03288e-20)
(0.645904 -0.20911 3.56435e-21)
(0.304972 -0.176402 -4.25523e-21)
(0.478924 -0.00336719 -8.36428e-22)
(0.251888 0.223527 0)
(0.39898 0.155274 7.62582e-21)
(0.501985 -0.177039 3.90536e-21)
(0.0792855 0.0702419 9.05847e-21)
(0.37219 0.0915097 0)
(0.378311 -0.135875 2.65523e-21)
(0.141329 0.106088 0)
(0.407384 0.0381501 3.66511e-21)
(0.323606 -0.143626 0)
(0.198586 0.160578 0)
(0.300273 0.115726 2.78454e-21)
(0.351946 -0.056879 4.87299e-21)
(0.154204 0.0371771 -1.77458e-23)
(0.193009 0.18478 -9.00824e-21)
(0.448526 0.0407741 -9.37763e-21)
(0.376523 -0.201795 -1.15372e-20)
(0.4572 0.159187 4.86199e-21)
(0.581472 -0.271152 -5.73972e-21)
(0.0413013 0.0843746 -1.02364e-22)
(0.510114 -0.27647 -8.37585e-21)
(0.470386 0.101891 -3.51794e-21)
(0.102887 0.135215 -4.74971e-21)
(0.326264 0.241946 6.81247e-21)
(0.171804 -0.0773825 -3.57013e-21)
(0.531131 -0.0732877 0)
(0.388735 0.235312 -2.04062e-21)
(0.383326 0.232146 1.8241e-21)
(0.594577 -0.152663 7.91256e-22)
(0.611685 -0.161458 -3.43363e-21)
(0.0647644 0.00705554 2.35049e-21)
(0.0738869 0.0020895 2.06854e-21)
(-0.00213291 0.0415272 7.90725e-21)
(0.51357 -0.229085 5.87575e-21)
(0.33808 0.172853 -1.89545e-21)
(0.358775 0.201426 1.89203e-22)
(-0.00290157 0.0450958 0)
(0.592488 -0.225204 0)
(0.410049 0.104548 1.10402e-20)
(0.443109 -0.18765 1.51832e-21)
(0.119251 0.115054 0)
(0.0292198 0.071118 1.31273e-20)
(0.445029 0.178002 -4.97814e-21)
(0.602336 -0.261531 0)
(0.354286 0.230891 -9.80076e-21)
(0.36419 0.230159 7.35813e-21)
(0.547747 -0.111742 -4.14963e-21)
(0.56068 -0.124284 -1.57358e-21)
(0.118001 -0.0296651 4.08016e-21)
(0.101534 -0.0162312 2.04613e-21)
(0.0413165 0.0903698 0)
(0.555714 -0.305744 0)
(0.475166 0.135704 -1.51812e-21)
(0.323259 0.189798 3.57224e-21)
(-0.00493788 0.0408505 -4.91752e-21)
(0.545877 -0.207456 0)
(0.294839 0.0231 1.57637e-23)
(0.23048 0.0844346 -4.44075e-21)
(0.226858 6.75985e-05 -2.22139e-21)
(0.359627 0.183508 6.44311e-21)
(0.551631 -0.241163 -2.76386e-21)
(-0.00148618 0.0456301 -9.80761e-21)
(0.307989 0.199119 -8.0324e-21)
(0.463146 -0.0605726 6.9079e-21)
(0.167841 -0.0490739 1.0815e-23)
(0.457891 0.163509 -2.99459e-23)
(0.587689 -0.284421 -8.18872e-21)
(0.0304587 0.0789905 2.70184e-21)
(0.420212 -0.233482 -1.65265e-22)
(0.00164074 0.0348971 8.99534e-21)
(0.316429 0.130229 3.24726e-21)
(0.239837 0.14972 4.25173e-21)
(0.231149 -0.0607068 2.70585e-22)
(0.377079 0.00313167 -1.14382e-20)
(0.311307 0.061863 0)
(0.28633 -0.0474401 1.1068e-20)
(0.185625 0.0834447 -5.70017e-21)
(0.407304 0.204801 -9.14646e-21)
(0.00514091 0.0528733 -6.15534e-21)
(0.623756 -0.250419 -2.50266e-25)
(0.322276 0.064233 0)
(0.294072 -0.0596131 3.88276e-21)
(0.179166 0.0929279 8.05479e-21)
(0.281957 0.0280587 -4.537e-21)
(0.230975 0.0731725 4.69063e-21)
(0.23096 0.00920662 -1.1705e-21)
(0.215991 0.206921 4.3624e-21)
(0.468237 0.0230014 3.35339e-21)
(0.362004 -0.210311 -6.36435e-21)
(0.3303 0.0315977 0)
(0.249866 -0.04188 0)
(0.210927 0.112355 -6.66602e-22)
(0.339129 0.0435509 -5.60417e-21)
(0.272568 -0.0580158 -3.00426e-21)
(0.201146 0.114604 -9.44589e-23)
(0.314602 0.23817 -1.03343e-20)
(0.51576 -0.0614579 5.42727e-21)
(0.192209 -0.0942875 7.10874e-21)
(0.0144882 0.0546909 -9.27088e-21)
(0.0147232 0.0577982 9.41187e-21)
(0.632703 -0.244629 -2.39156e-21)
(0.624769 -0.252898 -1.66862e-21)
(0.421963 0.207092 -7.09014e-21)
(0.427222 0.200377 1.07454e-20)
(0.461571 0.157805 -5.95746e-21)
(0.582002 -0.278733 5.11574e-21)
(0.0385151 0.0861626 0)
(0.162822 -0.0791413 -4.61581e-21)
(0.334719 0.251781 -2.14602e-21)
(0.551521 -0.0819487 0)
(0.260971 0.181846 0)
(0.228611 -0.0838406 4.26308e-21)
(0.422457 -0.0157692 -3.60195e-21)
(0.463171 0.0609541 0)
(0.436383 -0.245252 -4.14525e-21)
(0.162355 0.172636 -1.39552e-22)
(0.474527 -0.272495 -2.79932e-21)
(0.00835456 0.0483423 0)
(0.388095 0.135461 8.08949e-21)
(0.0660269 0.111956 0)
(0.483256 0.122819 0)
(0.54846 -0.304114 -3.46861e-21)
(0.411661 0.187977 -3.12644e-21)
(0.00556852 0.0559826 0)
(0.59473 -0.265973 2.83036e-21)
(0.000514946 0.0303988 3.33322e-32)
(0.390174 -0.214032 2.50268e-21)
(0.285634 0.122884 -3.34702e-21)
(0.409609 -0.186575 -2.79454e-21)
(-0.0023417 0.0304558 -3.32549e-32)
(0.270788 0.143525 2.97672e-21)
(0.493963 -0.222987 8.04089e-21)
(0.432711 0.120908 0)
(0.0965183 0.110391 1.21194e-20)
(0.535052 -0.301061 1.53467e-21)
(0.0253747 0.073041 0)
(0.456829 0.138258 0)
(0.43382 0.165695 5.07447e-21)
(0.561535 -0.23062 -4.49617e-21)
(0.0542563 0.0779235 -6.31262e-21)
(0.388137 0.231195 -9.02427e-21)
(0.0103073 0.0374683 -3.74916e-21)
(0.662388 -0.210599 0)
(0.32683 0.120198 -2.16235e-21)
(0.134037 0.0546164 2.30849e-21)
(0.383768 -0.0893503 -2.14748e-21)
(0.555637 -0.306697 0)
(0.0487817 0.097579 -4.50749e-21)
(0.479263 0.132055 -1.63872e-21)
(0.460711 0.0536183 3.82582e-21)
(0.173814 0.18001 2.47829e-21)
(0.418766 -0.233847 0)
(0.476753 -0.249543 0)
(0.453594 0.0935217 0)
(0.120399 0.140947 -4.41757e-21)
(-0.000339657 0.0138275 0)
(0.227036 -0.108454 2.05671e-21)
(0.158103 0.0721398 -2.60475e-21)
(0.480959 -0.244821 -2.72742e-21)
(0.000455832 0.0409034 5.42343e-21)
(0.342997 0.156519 3.32721e-21)
(0.315035 0.111731 5.57389e-21)
(0.145849 0.0525455 -5.44471e-21)
(0.359704 -0.0741582 -2.47348e-21)
(0.569487 -0.295648 -7.21355e-21)
(0.465689 0.150672 3.36978e-21)
(0.0318943 0.0824082 0)
(0.0388823 0.0881457 4.74244e-21)
(0.475564 0.132526 0)
(0.545102 -0.309134 5.4156e-21)
(0.436791 0.189725 3.61223e-21)
(0.0249784 0.0643598 -1.40749e-20)
(0.612131 -0.250701 -6.8716e-21)
(0.0387043 0.026546 1.06048e-20)
(0.637135 -0.190818 -3.82651e-21)
(0.40184 0.231575 0)
(0.306613 0.244788 1.29855e-20)
(0.51774 -0.0531646 -6.9211e-21)
(0.215678 -0.115586 6.78543e-21)
(0.586553 -0.137971 -1.18445e-21)
(0.373387 0.238894 -4.29002e-21)
(0.0908253 -0.0142194 6.44987e-21)
(0.0307091 0.0232499 9.53797e-21)
(0.395484 0.240506 0)
(0.660524 -0.192845 2.76201e-21)
(0.321773 0.187736 2.02594e-21)
(0.335774 0.19598 0)
(0.458355 -0.0778676 7.17891e-21)
(0.482023 -0.0929791 -7.66931e-21)
(0.140546 -0.0162269 -4.34672e-21)
(0.127009 -0.0128192 0)
(0.309069 0.189272 1.98665e-21)
(0.451136 -0.0631425 0)
(0.159136 -0.0329562 -2.08291e-21)
(0.34843 0.238734 0)
(0.550776 -0.103396 6.69974e-21)
(0.129737 -0.0435181 -1.4738e-21)
(0.499886 -0.264835 4.15406e-21)
(0.462557 0.100999 -3.60625e-21)
(0.106525 0.133343 9.7703e-21)
(0.573244 -0.290187 0)
(0.46635 0.150065 -1.00686e-21)
(0.0414993 0.0900749 0)
(0.0860327 0.116934 3.1349e-21)
(0.459732 0.119434 2.34605e-21)
(0.52466 -0.265216 2.70965e-21)
(0.445031 -0.193388 3.76329e-22)
(-0.00325812 0.0337214 1.2855e-24)
(0.286937 0.156622 0)
(0.266431 0.149886 -3.84021e-21)
(0.272463 0.142593 0)
(0.191031 -0.0275252 9.93865e-22)
(0.380419 -0.0222785 -1.38884e-20)
(0.181329 -0.0133507 -1.25715e-21)
(0.372979 -0.0292694 8.83247e-21)
(0.330631 0.227261 0)
(0.316507 0.219254 1.31957e-21)
(0.169095 -0.0621891 -2.52275e-23)
(0.516695 -0.0821584 -4.20232e-21)
(0.153111 -0.0520653 -1.07362e-20)
(0.494361 -0.0679966 8.9179e-21)
(0.41328 -0.24471 0)
(0.00368745 0.0366981 -9.82059e-21)
(0.33308 0.123119 0)
(0.575445 -0.29207 4.27903e-21)
(0.464721 0.15343 -1.02108e-21)
(0.0329636 0.0820839 -2.83686e-21)
(0.267813 0.203109 2.41402e-21)
(0.244913 -0.11207 4.88104e-21)
(0.451837 -0.0196281 -1.18915e-20)
(0.472962 -0.267143 -9.04504e-21)
(0.470456 0.0775521 -9.3333e-21)
(0.136255 0.159414 0)
(0.0459323 0.0196679 -1.13394e-20)
(0.6323 -0.182418 4.07205e-21)
(0.398258 0.234223 0)
(0.536452 -0.267766 0)
(0.391833 0.167887 0)
(0.00381661 0.0506631 0)
(0.545015 -0.276845 0)
(0.410347 0.164642 -5.66838e-21)
(0.00761022 0.0555831 0)
(0.366506 0.2202 4.06869e-21)
(0.549644 -0.130105 -2.38051e-21)
(0.0947447 -0.0047538 -3.02876e-21)
(0.217174 0.151613 1.11762e-21)
(0.274977 -0.0958211 0)
(0.384815 0.0249762 -3.8552e-21)
(0.434408 0.192518 -4.20895e-21)
(0.0201001 0.0624152 -8.21758e-21)
(0.618697 -0.25446 9.94921e-21)
(0.50101 -0.237486 0)
(0.44242 0.11892 0)
(0.095015 0.116874 -1.04559e-20)
(0.0385034 0.0542821 -2.64803e-21)
(0.598703 -0.21652 -6.15546e-21)
(0.420964 0.197772 -1.08035e-20)
(0.306651 0.219145 -1.34414e-21)
(0.186993 -0.0764724 7.1673e-21)
(0.486542 -0.0578448 -4.57424e-21)
(0.407402 0.0640859 7.1803e-21)
(0.372273 -0.165155 -4.11352e-21)
(0.166933 0.145515 -8.74997e-21)
(0.249079 0.168044 -5.95835e-23)
(0.235202 -0.0808243 1.39522e-21)
(0.403928 -0.00551968 4.71922e-21)
(0.019885 0.0664106 3.20843e-21)
(0.609864 -0.26619 -4.57257e-21)
(0.439964 0.184467 -4.7819e-21)
(0.40539 0.201928 1.96272e-21)
(0.58135 -0.188967 1.83427e-21)
(0.0525267 0.041825 0)
(0.245143 0.143063 4.16492e-21)
(0.217783 -0.0437459 -8.74731e-21)
(0.368656 -0.00169617 7.53644e-21)
(0.392051 0.240089 -3.4899e-21)
(0.0229192 0.0269171 -4.25204e-21)
(0.667512 -0.198414 -3.77692e-23)
(0.30368 0.165637 2.45757e-21)
(0.417234 -0.0619519 0)
(0.151369 -0.0103613 0)
(0.346185 0.0788276 1.00792e-20)
(0.334462 -0.0959061 -2.40446e-21)
(0.159635 0.0994116 0)
(0.472186 -0.233875 0)
(0.442621 0.0981863 -7.30732e-21)
(0.116703 0.133176 4.62632e-21)
(0.373904 0.214011 0)
(-5.54341e-05 0.044704 1.31911e-21)
(0.63038 -0.22414 -3.05318e-21)
(0.374199 0.221224 -3.73164e-21)
(0.00156543 0.0424563 -4.21079e-21)
(0.64345 -0.216634 2.96649e-21)
(0.0368775 0.0474982 -2.41956e-21)
(0.608431 -0.211001 3.63622e-21)
(0.416485 0.206106 9.9014e-21)
(0.422269 0.0535871 3.38002e-21)
(0.375369 -0.180949 8.26353e-21)
(0.177391 0.158776 0)
(-0.00310147 0.0435333 -1.20856e-21)
(0.608036 -0.217601 2.85623e-21)
(0.353573 0.207575 0)
(0.0483989 0.0792011 0)
(0.572828 -0.243776 3.73669e-21)
(0.441196 0.165678 1.24411e-21)
(0.00117918 0.0245385 -4.90515e-21)
(0.327038 -0.194425 -2.86397e-21)
(0.251069 0.0978738 0)
(0.226365 0.129927 3.33874e-21)
(0.359552 -0.150082 0)
(-0.00274295 0.0250023 -4.90663e-21)
(0.03111 0.0282382 -5.67179e-24)
(0.651062 -0.197822 4.7302e-22)
(0.400739 0.234624 0)
(0.0136989 0.0645901 0)
(0.594962 -0.276566 0)
(0.436707 0.179072 -6.47484e-21)
(0.420194 0.210298 3.68641e-21)
(0.422237 0.20735 -2.98246e-21)
(0.0190349 0.0505328 4.64721e-21)
(0.635695 -0.232941 7.89149e-22)
(0.0238652 0.0515118 0)
(0.626608 -0.229656 0)
(0.446688 0.156248 -2.38762e-21)
(0.564237 -0.250509 -2.47708e-21)
(0.0536844 0.0865806 0)
(0.155093 0.174297 0)
(0.452815 -0.263307 0)
(0.473705 0.0646039 0)
(0.272648 0.12292 -5.13407e-21)
(0.178401 0.00709971 1.19705e-20)
(0.348544 -0.0281937 -4.84316e-21)
(0.450586 0.135177 -6.76205e-21)
(0.536397 -0.253656 -9.189e-22)
(0.0725391 0.103144 -9.24997e-21)
(0.083109 0.111133 -6.02696e-21)
(0.451318 0.126248 9.39697e-21)
(0.523423 -0.253292 1.27496e-21)
(0.390615 0.248226 -3.8666e-21)
(0.0409281 0.0125476 -4.56496e-21)
(0.660254 -0.17966 0)
(0.334072 0.234725 0)
(0.529976 -0.0852173 -1.98933e-21)
(0.151604 -0.0571106 1.05234e-20)
(0.318626 0.207561 0)
(0.481429 -0.071107 -9.0705e-21)
(0.158961 -0.0483518 -1.60652e-23)
(0.424072 0.138785 8.61062e-21)
(0.509714 -0.214086 -1.12262e-21)
(0.0809207 0.0927119 5.24738e-21)
(0.431994 0.133762 0)
(0.511671 -0.224579 -1.05519e-21)
(0.0828749 0.0993539 -4.83359e-21)
(0.236499 0.130672 0)
(0.223918 -0.0375131 1.37976e-20)
(0.351677 0.0070861 0)
(0.338009 0.203832 0)
(0.493832 -0.0953312 5.08377e-21)
(0.126006 -0.0207075 -1.58117e-21)
(0.0570525 0.105654 9.76832e-21)
(0.546818 -0.310878 7.82522e-21)
(0.486136 0.123501 0)
(0.418156 0.153242 1.25619e-22)
(0.0106372 0.0570089 -3.00216e-21)
(0.525516 -0.283501 -2.01554e-21)
(0.410729 0.141361 3.0174e-23)
(0.0111237 0.0545214 0)
(0.501529 -0.282403 5.79105e-21)
(0.281054 0.178797 -2.90018e-21)
(0.191436 -0.0506572 1.51824e-21)
(0.42254 -0.0359428 7.65925e-23)
(0.500532 -0.259299 -1.00629e-22)
(0.00309669 0.0459337 -1.24569e-20)
(0.373109 0.156295 0)
(0.409201 0.209613 -8.47695e-21)
(0.04423 0.0408424 0)
(0.601357 -0.197038 0)
(0.00523192 0.0444857 4.94128e-21)
(0.469219 -0.263926 3.0935e-21)
(0.369851 0.139366 -6.30523e-21)
(0.296486 0.0778444 -6.84381e-21)
(0.179808 0.0645157 -7.22298e-21)
(0.299231 -0.0384105 -3.84599e-23)
(0.36937 0.155044 1.25129e-21)
(0.465741 -0.138069 1.17115e-21)
(0.0972107 0.0515328 4.7449e-21)
(0.350003 -0.168553 -9.43703e-21)
(0.422236 0.0419263 -1.18406e-20)
(0.193148 0.166662 0)
(0.028825 0.0778441 0)
(0.547959 -0.301885 1.92292e-21)
(0.46323 0.141731 0)
(0.491556 -0.242621 0)
(0.446272 0.109956 0)
(0.103279 0.124382 0)
(0.016221 0.0351619 0)
(0.395674 0.232777 3.32665e-21)
(0.663141 -0.208801 -2.73799e-21)
(0.38252 0.159285 0)
(0.485488 -0.154526 -5.85601e-22)
(0.0872653 0.0568365 9.75226e-24)
(0.267962 0.11337 4.95921e-21)
(0.184158 0.0121641 -1.02781e-20)
(0.334431 -0.0215391 0)
(0.565967 -0.295821 6.82584e-21)
(0.457738 0.153996 -3.19742e-21)
(0.0254555 0.0756401 0)
(0.0388415 0.067015 5.55487e-21)
(0.590297 -0.23676 -2.3742e-22)
(0.433607 0.182259 -7.82711e-23)
(0.391031 0.204971 0)
(0.383396 0.201223 -3.84885e-21)
(0.00148435 0.0497103 -3.02339e-21)
(-3.83376e-05 0.0492563 3.73217e-21)
(0.617954 -0.241234 1.8765e-21)
(0.60411 -0.242633 -1.54289e-21)
(0.385988 0.103621 0)
(0.41198 -0.157788 -7.90324e-21)
(0.125493 0.103953 -5.74405e-21)
(0.472763 -0.208447 -1.12908e-20)
(0.422967 0.113754 0)
(0.104127 0.112445 6.35614e-21)
(0.326226 0.0917219 5.67295e-21)
(0.338043 -0.0805047 -4.10127e-21)
(0.151863 0.0767317 -8.87371e-21)
(0.541597 -0.292392 -4.44815e-21)
(0.437595 0.152363 -4.39385e-21)
(0.530554 -0.296654 2.10697e-21)
(0.0156504 0.0638464 3.18028e-21)
(0.442951 0.143038 4.11976e-21)
(0.0192269 0.0658513 0)
(0.40668 0.169213 0)
(0.530515 -0.190353 0)
(0.0675877 0.0642444 -5.92623e-21)
(0.448929 0.161409 -4.30696e-21)
(0.440263 0.160126 1.0818e-20)
(0.571963 -0.291098 -2.91561e-21)
(0.561349 -0.289512 7.35684e-21)
(0.0192703 0.0700291 -8.34914e-21)
(0.0154927 0.0652241 7.30638e-26)
(0.420541 0.105191 0)
(0.454003 -0.203113 1.04574e-20)
(0.117336 0.122296 -8.24e-21)
(0.362871 0.122393 -5.41673e-21)
(0.433068 -0.139127 7.04147e-21)
(0.107802 0.0714826 0)
(0.389068 0.224774 0)
(0.00622534 0.0420415 -5.79734e-22)
(0.652948 -0.220294 -2.84845e-21)
(0.382573 0.114597 -3.99347e-21)
(0.425345 -0.154006 0)
(0.115889 0.0941819 9.51939e-21)
(0.33875 0.10167 -2.30901e-21)
(0.36475 -0.100925 4.80782e-21)
(0.139861 0.0776139 -5.19198e-21)
(0.386148 0.21093 0)
(0.0018896 0.0472237 0)
(0.631281 -0.234136 3.9367e-21)
(0.381395 0.170786 0)
(0.504128 -0.154484 -1.23302e-21)
(0.0807582 0.0469022 5.87804e-21)
(0.408105 -0.235903 0)
(0.469125 0.0439571 0)
(0.18702 0.192376 3.20437e-22)
(0.304856 0.226798 3.30685e-22)
(0.494862 -0.0536907 0)
(0.197239 -0.0899831 -5.55751e-21)
(0.517457 -0.297381 -4.84005e-21)
(0.100891 0.139659 0)
(0.484766 0.0978886 0)
(-0.000649402 0.0205665 1.17951e-20)
(0.303145 -0.147272 -2.87954e-21)
(0.210354 0.0975782 3.6463e-21)
(0.38214 0.136465 0)
(0.452345 -0.154264 -4.32562e-21)
(0.0996823 0.0749388 0)
(0.406688 0.218334 -6.1937e-21)
(0.0107124 0.0467903 -1.57341e-20)
(0.646624 -0.22918 5.86728e-21)
(0.260417 -0.146023 0)
(0.496837 -0.0285561 4.56997e-21)
(0.279496 0.235229 0)
(0.280936 0.166733 0)
(-0.00478558 0.0345557 2.93442e-21)
(0.470383 -0.185294 0)
(0.192932 0.129428 -5.53861e-21)
(0.19818 0.141779 5.66927e-21)
(0.293277 -0.0943122 0)
(0.364245 0.044319 -4.84982e-21)
(0.299876 -0.109091 8.93668e-21)
(0.379879 0.0388151 3.90903e-21)
(0.329353 0.0790431 -5.34141e-21)
(0.320294 -0.0754315 -5.45071e-21)
(0.163716 0.0881319 0)
(0.224431 0.144452 -4.89919e-21)
(0.208958 0.133395 0)
(0.252653 -0.0731879 0)
(0.372315 0.0169783 0)
(0.265273 -0.0742662 5.02703e-21)
(0.360518 0.0306502 -2.32376e-23)
(0.371724 0.133424 -3.44124e-22)
(0.409505 -0.129798 3.07039e-21)
(0.119383 0.0786937 6.41229e-21)
(0.367564 0.114306 9.33374e-21)
(0.407362 -0.134776 0)
(0.123121 0.0875778 0)
(0.0160312 0.0599635 0)
(0.503323 -0.292426 0)
(0.428632 0.135728 -4.54045e-21)
(0.29549 0.179482 7.99722e-21)
(0.43054 -0.0495096 0)
(0.171075 -0.0350513 -2.81254e-21)
(0.446701 0.170229 8.5844e-21)
(0.587716 -0.284833 -3.40098e-21)
(0.0184412 0.0697604 4.76049e-21)
(0.424475 0.151135 0)
(0.432305 0.155363 -4.89086e-21)
(0.528938 -0.215065 1.399e-21)
(0.545001 -0.226614 -4.42572e-21)
(0.0693362 0.0843383 6.54586e-21)
(0.0625105 0.0841627 6.09457e-21)
(0.293316 0.16756 0)
(0.414194 -0.0496005 0)
(0.166455 -0.0232225 -1.32478e-21)
(0.348078 0.22129 -3.22968e-21)
(0.526931 -0.104583 0)
(0.123004 -0.0268786 -3.50955e-21)
(0.405827 0.148865 2.47236e-21)
(0.500685 -0.188913 0)
(0.0792929 0.0788449 -5.97856e-21)
(0.246039 0.0919557 -5.37933e-21)
(0.30417 0.00493247 -2.61283e-21)
(0.208428 0.00862376 -2.764e-21)
(0.441383 0.140819 0)
(0.533839 -0.239762 0)
(0.0717306 0.097336 9.83453e-21)
(0.26114 0.128706 0)
(0.191138 -0.00955552 -1.51671e-21)
(0.352232 -0.0173125 0)
(0.413089 0.117138 5.4497e-21)
(0.462524 -0.196774 5.82044e-21)
(0.10604 0.105968 8.22454e-22)
(0.349897 0.210755 -3.27222e-21)
(0.515837 -0.108951 -5.79865e-21)
(0.114428 -0.0154652 0)
(0.24894 0.104974 5.33108e-21)
(0.239602 0.109459 2.38886e-21)
(0.320035 -0.00234995 -2.55759e-21)
(0.202861 0.000894211 5.46338e-21)
(0.325893 0.00495957 0)
(0.213198 -0.0134173 9.75675e-21)
(0.221916 0.123172 2.42388e-21)
(0.239643 -0.0470043 -6.43435e-21)
(0.211122 0.126421 -1.56006e-21)
(0.344657 0.0198245 0)
(0.262465 -0.0655198 -3.20567e-21)
(0.352329 0.030804 5.54447e-21)
(0.31983 0.176813 -2.9094e-21)
(0.334043 0.175858 0)
(0.443115 -0.078287 -5.31808e-21)
(0.454118 -0.0937994 4.14906e-21)
(0.136645 -0.00534054 1.25636e-20)
(0.122288 0.00892308 -1.04458e-20)
(0.0374802 0.0336844 0)
(0.625829 -0.197108 2.23166e-21)
(0.406484 0.222495 5.15134e-21)
(0.198803 0.194886 -1.07932e-20)
(0.46223 0.0359635 -5.28443e-21)
(0.383959 -0.216973 9.98615e-21)
(0.0296236 0.0395019 5.29159e-21)
(0.0291327 0.0457733 0)
(0.632724 -0.209755 -1.929e-21)
(0.623802 -0.217658 -3.32203e-21)
(0.41094 0.220704 -1.32335e-20)
(0.417112 0.212103 6.89688e-21)
(0.244621 0.205092 0)
(0.292745 -0.148774 5.34081e-21)
(0.453452 0.00152219 -1.12738e-21)
(0.248985 0.0676786 -1.13061e-20)
(0.218174 0.0294116 0)
(0.274708 0.0143641 8.9347e-21)
(0.440659 0.150492 2.36537e-21)
(0.547856 -0.239851 4.99647e-21)
(0.0627699 0.0901116 0)
(0.276305 0.159402 0)
(0.183506 -0.0333935 1.26285e-21)
(0.396751 -0.0323068 4.48882e-21)
(0.357812 0.210814 0)
(0.525394 -0.118971 0)
(0.103791 -0.006018 8.38702e-22)
(0.395787 0.229101 0)
(0.398091 0.221204 0)
(0.614126 -0.175439 -1.19374e-21)
(0.0541227 0.0188645 6.44525e-21)
(0.603407 -0.178044 3.25211e-21)
(0.0533485 0.0255034 -8.71864e-21)
(0.416467 0.166615 -4.69886e-21)
(0.54164 -0.203811 -4.66041e-21)
(0.0621469 0.0704286 -2.84867e-21)
(0.312779 0.175922 -4.98616e-21)
(0.509385 -0.20648 0)
(-0.0041635 0.038795 3.59213e-21)
(0.275857 -0.152376 0)
(0.481723 -0.0170723 -3.71852e-21)
(0.266731 0.225457 0)
(0.2913 0.235758 -3.34885e-21)
(0.285334 0.226359 3.5911e-21)
(0.235776 -0.124953 3.47449e-21)
(0.500079 -0.0388618 0)
(0.237045 -0.119286 0)