/*--------------------------------*- C++ -*----------------------------------*\
  =========                 |
  \\      /  F ield         | OpenFOAM: The Open Source CFD Toolbox
   \\    /   O peration     | Website:  https://openfoam.org
    \\  /    A nd           | Version:  6
     \\/     M anipulation  |
\*---------------------------------------------------------------------------*/
FoamFile
{
    version     2.0;
    format      ascii;
    class       volScalarField;
    location    "0";
    object      TRec;
}
// * * * * * * * * * * * * * * * * * * * * * * * * * * * * * * * * * * * * * //

dimensions      [0 0 0 1 0 0 0];

internalField   nonuniform List<scalar> 
10000
(
298.815
298.845
298.874
298.902
298.929
298.954
298.977
298.999
299.02
299.039
299.056
299.072
299.088
299.102
299.115
299.127
299.138
299.149
299.159
299.169
299.178
299.186
299.195
299.203
299.21
299.217
299.225
299.231
299.238
299.244
299.251
299.257
299.263
299.269
299.275
299.28
299.286
299.291
299.297
299.302
299.307
299.312
299.317
299.322
299.327
299.331
299.335
299.339
299.343
299.346
299.35
299.353
299.355
299.358
299.36
299.362
299.364
299.366
299.368
299.37
299.371
299.373
299.375
299.376
299.378
299.38
299.381
299.383
299.385
299.387
299.389
299.392
299.394
299.397
299.4
299.403
299.406
299.41
299.414
299.418
299.423
299.429
299.437
299.445
299.456
299.469
299.486
299.508
299.536
299.573
299.621
299.685
299.769
299.88
300.023
300.205
300.43
300.698
301.003
301.332
298.815
298.846
298.876
298.904
298.931
298.956
298.98
299.003
299.023
299.042
299.06
299.076
299.091
299.105
299.118
299.13
299.141
299.152
299.162
299.171
299.18
299.188
299.196
299.204
299.211
299.218
299.225
299.232
299.238
299.245
299.251
299.257
299.263
299.268
299.274
299.28
299.285
299.291
299.296
299.301
299.306
299.312
299.316
299.321
299.326
299.33
299.335
299.339
299.342
299.346
299.349
299.352
299.355
299.358
299.36
299.362
299.364
299.366
299.368
299.37
299.372
299.373
299.375
299.376
299.378
299.38
299.382
299.384
299.385
299.388
299.39
299.392
299.394
299.397
299.4
299.403
299.406
299.409
299.413
299.418
299.423
299.429
299.436
299.444
299.454
299.467
299.482
299.503
299.53
299.564
299.611
299.672
299.753
299.861
300.001
300.182
300.408
300.68
300.992
301.328
298.816
298.848
298.879
298.908
298.937
298.963
298.988
299.011
299.033
299.052
299.071
299.087
299.102
299.116
299.129
299.14
299.151
299.161
299.17
299.179
299.187
299.194
299.202
299.209
299.216
299.222
299.228
299.235
299.24
299.246
299.252
299.258
299.263
299.269
299.274
299.279
299.285
299.29
299.295
299.3
299.305
299.31
299.315
299.32
299.325
299.329
299.334
299.338
299.342
299.345
299.349
299.352
299.355
299.358
299.36
299.363
299.365
299.367
299.369
299.371
299.372
299.374
299.376
299.377
299.379
299.381
299.383
299.384
299.386
299.388
299.391
299.393
299.395
299.398
299.4
299.403
299.406
299.41
299.413
299.417
299.422
299.428
299.434
299.442
299.451
299.463
299.477
299.496
299.521
299.553
299.597
299.655
299.733
299.837
299.975
300.156
300.384
300.662
300.98
301.324
298.817
298.851
298.884
298.916
298.946
298.974
299.001
299.026
299.049
299.07
299.089
299.106
299.122
299.136
299.148
299.159
299.169
299.178
299.186
299.193
299.201
299.207
299.213
299.219
299.225
299.23
299.235
299.241
299.246
299.251
299.256
299.26
299.265
299.27
299.275
299.28
299.285
299.29
299.295
299.3
299.304
299.309
299.314
299.319
299.324
299.328
299.333
299.337
299.341
299.345
299.349
299.352
299.355
299.358
299.361
299.363
299.366
299.368
299.37
299.372
299.374
299.376
299.377
299.379
299.381
299.382
299.384
299.386
299.388
299.39
299.392
299.394
299.396
299.399
299.401
299.404
299.407
299.41
299.414
299.418
299.422
299.427
299.433
299.44
299.448
299.459
299.472
299.49
299.512
299.543
299.584
299.639
299.714
299.817
299.954
300.135
300.366
300.648
300.972
301.321
298.819
298.855
298.891
298.926
298.959
298.99
299.019
299.047
299.072
299.094
299.115
299.133
299.149
299.163
299.175
299.186
299.195
299.203
299.21
299.215
299.222
299.226
299.231
299.235
299.239
299.243
299.247
299.251
299.255
299.258
299.262
299.266
299.27
299.274
299.278
299.282
299.286
299.291
299.295
299.3
299.304
299.309
299.314
299.318
299.323
299.327
299.332
299.336
299.341
299.345
299.348
299.352
299.355
299.359
299.362
299.364
299.367
299.369
299.372
299.374
299.376
299.378
299.38
299.381
299.383
299.385
299.387
299.389
299.39
299.392
299.394
299.396
299.399
299.401
299.403
299.406
299.409
299.412
299.415
299.419
299.423
299.427
299.432
299.439
299.446
299.456
299.468
299.484
299.506
299.534
299.573
299.627
299.701
299.802
299.939
300.122
300.355
300.64
300.967
301.32
298.82
298.86
298.9
298.938
298.974
299.009
299.042
299.072
299.099
299.124
299.146
299.166
299.183
299.197
299.209
299.22
299.228
299.235
299.24
299.244
299.248
299.252
299.255
299.257
299.259
299.261
299.263
299.265
299.267
299.27
299.272
299.275
299.277
299.28
299.283
299.287
299.29
299.294
299.298
299.301
299.306
299.31
299.314
299.319
299.323
299.327
299.332
299.336
299.341
299.345
299.349
299.353
299.356
299.36
299.363
299.366
299.369
299.371
299.374
299.376
299.378
299.38
299.382
299.384
299.386
299.388
299.39
299.392
299.394
299.396
299.398
299.4
299.402
299.404
299.406
299.409
299.411
299.414
299.417
299.42
299.424
299.428
299.433
299.439
299.446
299.454
299.466
299.481
299.501
299.528
299.566
299.618
299.692
299.793
299.931
300.115
300.351
300.638
300.966
301.319
298.822
298.866
298.91
298.952
298.993
299.031
299.067
299.1
299.131
299.158
299.182
299.203
299.221
299.236
299.248
299.258
299.266
299.272
299.276
299.279
299.279
299.283
299.284
299.284
299.284
299.284
299.284
299.284
299.284
299.285
299.285
299.286
299.288
299.289
299.291
299.293
299.296
299.298
299.301
299.305
299.308
299.312
299.316
299.32
299.324
299.328
299.333
299.337
299.341
299.346
299.35
299.354
299.358
299.361
299.365
299.368
299.371
299.374
299.377
299.379
299.382
299.384
299.386
299.388
299.39
299.392
299.394
299.396
299.398
299.4
299.402
299.404
299.406
299.408
299.41
299.412
299.415
299.417
299.42
299.423
299.426
299.43
299.434
299.44
299.446
299.454
299.465
299.479
299.498
299.524
299.562
299.614
299.687
299.789
299.929
300.114
300.352
300.64
300.968
301.32
298.824
298.873
298.921
298.967
299.012
299.055
299.094
299.131
299.164
299.194
299.22
299.243
299.262
299.278
299.291
299.301
299.308
299.313
299.316
299.317
299.317
299.318
299.317
299.315
299.313
299.311
299.309
299.307
299.305
299.303
299.302
299.301
299.301
299.301
299.301
299.302
299.303
299.305
299.307
299.31
299.313
299.316
299.319
299.323
299.327
299.331
299.335
299.339
299.343
299.347
299.352
299.356
299.36
299.364
299.367
299.371
299.374
299.377
299.38
299.383
299.386
299.388
299.39
299.393
299.395
299.397
299.399
299.401
299.403
299.405
299.406
299.408
299.41
299.412
299.414
299.417
299.419
299.421
299.424
299.427
299.43
299.433
299.437
299.442
299.448
299.455
299.465
299.479
299.497
299.523
299.56
299.612
299.686
299.789
299.93
300.118
300.356
300.644
300.972
301.322
298.827
298.88
298.932
298.983
299.033
299.079
299.123
299.163
299.2
299.232
299.26
299.285
299.305
299.322
299.335
299.345
299.352
299.356
299.358
299.359
299.358
299.354
299.353
299.349
299.345
299.341
299.336
299.332
299.328
299.324
299.321
299.318
299.316
299.315
299.314
299.313
299.313
299.314
299.315
299.317
299.319
299.321
299.324
299.327
299.33
299.334
299.338
299.342
299.346
299.35
299.354
299.359
299.363
299.367
299.37
299.374
299.378
299.381
299.384
299.387
299.39
299.393
299.395
299.398
299.4
299.402
299.404
299.406
299.408
299.41
299.412
299.414
299.416
299.418
299.42
299.422
299.424
299.426
299.428
299.431
299.434
299.437
299.441
299.445
299.451
299.458
299.467
299.48
299.498
299.524
299.561
299.614
299.688
299.793
299.935
300.124
300.363
300.651
300.977
301.323
298.829
298.887
298.944
299
299.053
299.104
299.152
299.195
299.235
299.27
299.301
299.327
299.349
299.366
299.38
299.39
299.397
299.401
299.402
299.401
299.399
299.393
299.392
299.386
299.379
299.373
299.366
299.36
299.354
299.348
299.343
299.338
299.334
299.331
299.328
299.326
299.325
299.325
299.325
299.325
299.327
299.328
299.33
299.333
299.336
299.339
299.343
299.346
299.35
299.354
299.358
299.362
299.366
299.371
299.374
299.378
299.382
299.386
299.389
299.392
299.395
299.398
299.401
299.403
299.406
299.408
299.41
299.412
299.414
299.416
299.418
299.42
299.422
299.424
299.426
299.428
299.43
299.432
299.434
299.436
299.439
299.442
299.445
299.449
299.455
299.461
299.471
299.483
299.501
299.527
299.564
299.618
299.693
299.799
299.943
300.133
300.372
300.659
300.982
301.326
298.831
298.894
298.956
299.016
299.074
299.129
299.18
299.228
299.27
299.308
299.341
299.369
299.392
299.41
299.425
299.435
299.442
299.445
299.446
299.444
299.44
299.433
299.429
299.422
299.414
299.405
299.397
299.389
299.381
299.373
299.366
299.36
299.354
299.349
299.345
299.342
299.339
299.337
299.336
299.336
299.336
299.337
299.338
299.34
299.343
299.345
299.349
299.352
299.356
299.359
299.363
299.367
299.371
299.375
299.379
299.383
299.387
299.391
299.394
299.398
299.401
299.404
299.407
299.41
299.412
299.414
299.417
299.419
299.421
299.423
299.425
299.427
299.429
299.431
299.433
299.434
299.436
299.438
299.44
299.442
299.445
299.448
299.451
299.455
299.459
299.466
299.475
299.487
299.505
299.531
299.569
299.623
299.7
299.807
299.952
300.143
300.383
300.669
300.989
301.328
298.834
298.901
298.967
299.032
299.094
299.153
299.209
299.259
299.305
299.345
299.38
299.41
299.434
299.454
299.468
299.479
299.485
299.489
299.489
299.486
299.481
299.473
299.465
299.458
299.449
299.439
299.429
299.419
299.409
299.4
299.391
299.383
299.375
299.369
299.363
299.358
299.355
299.352
299.349
299.348
299.347
299.347
299.348
299.349
299.351
299.353
299.356
299.359
299.362
299.366
299.369
299.373
299.377
299.381
299.385
299.389
299.393
299.397
299.401
299.404
299.407
299.41
299.413
299.416
299.419
299.421
299.424
299.426
299.428
299.43
299.432
299.435
299.436
299.438
299.44
299.442
299.444
299.445
299.447
299.449
299.451
299.454
299.457
299.461
299.465
299.471
299.48
299.493
299.511
299.537
299.575
299.63
299.708
299.816
299.963
300.154
300.394
300.678
300.995
301.33
298.836
298.908
298.979
299.048
299.114
299.177
299.236
299.29
299.338
299.381
299.418
299.449
299.475
299.495
299.511
299.521
299.528
299.53
299.53
299.527
299.521
299.513
299.503
299.494
299.484
299.472
299.461
299.449
299.438
299.427
299.416
299.407
299.398
299.39
299.383
299.377
299.372
299.367
299.364
299.362
299.36
299.359
299.359
299.36
299.361
299.362
299.365
299.367
299.37
299.373
299.377
299.381
299.384
299.388
299.392
299.396
299.4
299.404
299.407
299.411
299.414
299.418
299.421
299.424
299.426
299.429
299.431
299.434
299.436
299.438
299.44
299.442
299.444
299.446
299.448
299.449
299.451
299.453
299.455
299.457
299.459
299.461
299.464
299.467
299.472
299.478
299.486
299.499
299.517
299.543
299.582
299.638
299.717
299.826
299.974
300.167
300.406
300.688
301.002
301.332
298.838
298.915
298.99
299.063
299.134
299.2
299.263
299.32
299.371
299.416
299.455
299.487
299.514
299.535
299.551
299.562
299.568
299.57
299.569
299.566
299.559
299.551
299.54
299.53
299.518
299.505
299.492
299.479
299.466
299.454
299.442
299.431
299.421
299.412
299.403
299.396
299.39
299.384
299.38
299.377
299.374
299.373
299.372
299.371
299.372
299.373
299.375
299.377
299.379
299.382
299.385
299.389
299.392
299.396
299.4
299.404
299.407
299.411
299.415
299.418
299.422
299.425
299.428
299.431
299.434
299.437
299.439
299.442
299.444
299.446
299.448
299.45
299.452
299.454
299.456
299.458
299.459
299.461
299.463
299.465
299.466
299.469
299.471
299.474
299.479
299.485
299.493
299.506
299.524
299.551
299.59
299.647
299.727
299.837
299.986
300.179
300.418
300.698
301.009
301.335
298.84
298.921
299.001
299.078
299.152
299.223
299.288
299.348
299.402
299.449
299.49
299.524
299.551
299.573
299.589
299.6
299.606
299.608
299.606
299.602
299.595
299.586
299.574
299.563
299.55
299.536
299.522
299.507
299.494
299.48
299.467
299.455
299.444
299.434
299.424
299.416
299.409
299.403
299.397
299.393
299.39
299.387
299.385
299.385
299.384
299.385
299.386
299.388
299.39
299.392
299.395
299.398
299.401
299.405
299.408
299.412
299.416
299.419
299.423
299.427
299.43
299.433
299.437
299.44
299.443
299.445
299.448
299.45
299.452
299.455
299.457
299.459
299.461
299.463
299.465
299.466
299.468
299.47
299.471
299.473
299.475
299.477
299.479
299.482
299.486
299.492
299.501
299.513
299.532
299.559
299.599
299.656
299.737
299.849
299.999
300.192
300.43
300.708
301.015
301.337
298.843
298.927
299.011
299.092
299.171
299.245
299.313
299.376
299.432
299.481
299.523
299.558
299.587
299.609
299.625
299.635
299.641
299.643
299.641
299.635
299.628
299.618
299.605
299.593
299.579
299.564
299.55
299.535
299.52
299.506
299.492
299.479
299.467
299.456
299.446
299.437
299.429
299.421
299.415
299.41
299.406
299.403
299.4
299.399
299.398
299.398
299.398
299.399
299.401
299.403
299.405
299.408
299.411
299.414
299.418
299.421
299.425
299.428
299.432
299.435
299.439
299.442
299.445
299.448
299.451
299.454
299.457
299.459
299.461
299.463
299.465
299.467
299.469
299.472
299.474
299.475
299.477
299.479
299.48
299.482
299.483
299.485
299.488
299.491
299.495
299.5
299.509
299.521
299.54
299.568
299.608
299.666
299.748
299.861
300.012
300.205
300.442
300.718
301.022
301.339
298.845
298.934
299.021
299.106
299.188
299.266
299.337
299.403
299.461
299.512
299.555
299.591
299.62
299.642
299.658
299.668
299.674
299.675
299.672
299.666
299.658
299.647
299.634
299.621
299.606
299.591
299.575
299.56
299.545
299.53
299.516
299.503
299.49
299.478
299.467
299.457
299.449
299.441
299.434
299.428
299.423
299.419
299.416
299.414
299.412
299.412
299.411
299.412
299.413
299.415
299.417
299.419
299.422
299.425
299.428
299.431
299.434
299.438
299.441
299.445
299.448
299.451
299.454
299.457
299.46
299.463
299.466
299.468
299.471
299.473
299.475
299.477
299.479
299.481
299.483
299.485
299.487
299.488
299.49
299.491
299.493
299.495
299.497
299.5
299.504
299.509
299.518
299.53
299.549
299.577
299.618
299.677
299.76
299.873
300.025
300.218
300.454
300.728
301.028
301.342
298.847
298.939
299.031
299.12
299.206
299.286
299.361
299.428
299.489
299.541
299.585
299.622
299.651
299.673
299.689
299.699
299.704
299.704
299.7
299.694
299.684
299.673
299.66
299.645
299.63
299.615
299.599
299.584
299.568
299.553
299.539
299.525
299.512
299.5
299.488
299.478
299.468
299.46
299.453
299.446
299.44
299.436
299.432
299.429
299.427
299.426
299.425
299.425
299.426
299.427
299.429
299.431
299.433
299.436
299.439
299.442
299.445
299.448
299.451
299.454
299.458
299.461
299.464
299.467
299.47
299.473
299.476
299.478
299.48
299.483
299.485
299.487
299.489
299.49
299.493
299.495
299.497
299.498
299.5
299.501
299.503
299.504
299.506
299.509
299.513
299.519
299.527
299.54
299.559
299.587
299.628
299.688
299.771
299.886
300.038
300.231
300.466
300.737
301.034
301.344
298.848
298.945
299.04
299.133
299.222
299.306
299.383
299.453
299.515
299.569
299.614
299.651
299.68
299.702
299.717
299.727
299.731
299.73
299.726
299.718
299.708
299.696
299.682
299.667
299.652
299.637
299.621
299.605
299.59
299.575
299.56
299.546
299.533
299.52
299.509
299.498
299.488
299.479
299.471
299.464
299.458
299.453
299.449
299.445
299.443
299.441
299.44
299.439
299.44
299.44
299.441
299.443
299.445
299.447
299.45
299.453
299.455
299.458
299.462
299.465
299.468
299.471
299.474
299.477
299.48
299.483
299.486
299.488
299.491
299.493
299.495
299.497
299.499
299.501
299.503
299.505
299.507
299.509
299.51
299.512
299.513
299.515
299.517
299.519
299.523
299.529
299.537
299.549
299.569
299.597
299.639
299.699
299.784
299.899
300.051
300.244
300.478
300.747
301.04
301.346
298.85
298.951
299.05
299.146
299.238
299.325
299.405
299.477
299.54
299.595
299.641
299.678
299.707
299.729
299.743
299.752
299.755
299.753
299.748
299.74
299.729
299.717
299.702
299.687
299.671
299.656
299.64
299.624
299.609
299.594
299.58
299.566
299.552
299.54
299.528
299.517
299.507
299.498
299.49
299.482
299.476
299.47
299.465
299.462
299.459
299.456
299.455
299.454
299.454
299.454
299.455
299.456
299.457
299.459
299.462
299.464
299.467
299.47
299.472
299.476
299.479
299.482
299.485
299.488
299.491
299.493
299.496
299.499
299.501
299.504
299.506
299.508
299.51
299.512
299.513
299.516
299.518
299.52
299.521
299.523
299.524
299.526
299.528
299.53
299.534
299.539
299.547
299.56
299.579
299.608
299.65
299.711
299.796
299.912
300.064
300.257
300.49
300.756
301.046
301.348
298.852
298.956
299.059
299.158
299.254
299.343
299.425
299.499
299.564
299.62
299.666
299.704
299.732
299.753
299.767
299.774
299.776
299.774
299.768
299.758
299.747
299.734
299.719
299.704
299.688
299.673
299.657
299.642
299.626
299.612
299.597
299.583
299.57
299.558
299.546
299.535
299.525
299.516
299.507
299.5
299.493
299.487
299.482
299.478
299.474
299.472
299.47
299.468
299.468
299.468
299.468
299.469
299.47
299.472
299.474
299.476
299.479
299.481
299.484
299.487
299.49
299.493
299.496
299.499
299.502
299.505
299.507
299.51
299.513
299.515
299.518
299.52
299.522
299.524
299.525
299.527
299.529
299.532
299.534
299.535
299.536
299.538
299.54
299.542
299.545
299.551
299.558
299.571
299.59
299.619
299.662
299.723
299.809
299.925
300.078
300.27
300.501
300.765
301.052
301.35
298.854
298.961
299.067
299.17
299.269
299.361
299.445
299.521
299.587
299.643
299.69
299.727
299.755
299.775
299.788
299.795
299.795
299.792
299.784
299.774
299.762
299.749
299.734
299.718
299.703
299.688
299.672
299.657
299.642
299.627
299.613
299.6
299.587
299.575
299.563
299.552
299.542
299.533
299.524
299.516
299.509
299.503
299.498
299.494
299.49
299.487
299.485
299.483
299.482
299.482
299.482
299.482
299.483
299.485
299.487
299.489
299.491
299.493
299.496
299.499
299.502
299.505
299.508
299.51
299.513
299.516
299.519
299.522
299.525
299.527
299.53
299.532
299.534
299.537
299.539
299.54
299.542
299.544
299.546
299.548
299.549
299.551
299.552
299.555
299.557
299.562
299.57
299.583
299.602
299.631
299.674
299.735
299.821
299.938
300.091
300.283
300.513
300.774
301.058
301.352
298.856
298.966
299.076
299.182
299.283
299.378
299.464
299.541
299.608
299.665
299.712
299.749
299.776
299.796
299.807
299.812
299.812
299.807
299.798
299.788
299.775
299.762
299.746
299.73
299.715
299.701
299.686
299.67
299.655
299.641
299.627
299.614
299.602
299.59
299.578
299.568
299.558
299.548
299.54
299.532
299.525
299.519
299.514
299.509
299.505
299.502
299.5
299.498
299.497
299.496
299.496
299.496
299.497
299.498
299.5
299.502
299.504
299.506
299.509
299.511
299.514
299.517
299.52
299.523
299.526
299.529
299.532
299.535
299.538
299.541
299.543
299.546
299.548
299.551
299.553
299.554
299.555
299.557
299.559
299.561
299.562
299.564
299.565
299.567
299.569
299.575
299.583
299.595
299.614
299.643
299.686
299.748
299.835
299.952
300.105
300.296
300.524
300.783
301.063
301.354
298.857
298.971
299.084
299.193
299.297
299.394
299.482
299.561
299.629
299.686
299.732
299.768
299.795
299.814
299.824
299.828
299.826
299.82
299.811
299.799
299.786
299.772
299.757
299.741
299.727
299.712
299.697
299.682
299.667
299.653
299.64
299.628
299.615
299.603
299.592
299.582
299.572
299.563
299.555
299.547
299.54
299.534
299.529
299.524
299.52
299.517
299.514
299.512
299.511
299.51
299.51
299.51
299.511
299.512
299.513
299.515
299.517
299.519
299.522
299.525
299.527
299.53
299.533
299.536
299.54
299.543
299.546
299.549
299.552
299.555
299.558
299.561
299.564
299.566
299.568
299.57
299.571
299.572
299.573
299.575
299.576
299.577
299.578
299.58
299.583
299.588
299.596
299.608
299.627
299.656
299.699
299.761
299.848
299.966
300.118
300.309
300.535
300.792
301.069
301.356
298.859
298.976
299.091
299.204
299.31
299.41
299.5
299.579
299.647
299.705
299.751
299.787
299.813
299.83
299.839
299.842
299.838
299.831
299.821
299.809
299.796
299.781
299.766
299.751
299.736
299.722
299.707
299.692
299.678
299.664
299.652
299.639
299.628
299.615
299.605
299.595
299.586
299.577
299.569
299.561
299.555
299.549
299.543
299.539
299.535
299.532
299.529
299.527
299.525
299.525
299.524
299.524
299.525
299.526
299.527
299.529
299.531
299.533
299.536
299.539
299.542
299.545
299.548
299.551
299.554
299.557
299.561
299.564
299.567
299.571
299.574
299.577
299.58
299.583
299.585
299.586
299.588
299.589
299.59
299.591
299.592
299.592
299.593
299.595
299.599
299.603
299.611
299.622
299.641
299.67
299.713
299.775
299.862
299.98
300.132
300.322
300.546
300.801
301.074
301.357
298.86
298.98
299.099
299.214
299.323
299.424
299.516
299.596
299.665
299.722
299.768
299.803
299.828
299.845
299.853
299.853
299.849
299.841
299.83
299.819
299.806
299.791
299.775
299.76
299.745
299.73
299.716
299.701
299.687
299.674
299.661
299.65
299.639
299.628
299.617
299.608
299.598
299.59
299.582
299.575
299.568
299.562
299.557
299.553
299.549
299.546
299.543
299.541
299.54
299.539
299.539
299.539
299.54
299.541
299.542
299.544
299.546
299.548
299.551
299.554
299.557
299.56
299.563
299.567
299.57
299.574
299.577
299.581
299.584
299.588
299.592
299.595
299.598
299.601
299.603
299.604
299.606
299.607
299.608
299.609
299.609
299.61
299.611
299.612
299.615
299.619
299.626
299.637
299.656
299.684
299.727
299.789
299.877
299.994
300.146
300.334
300.558
300.809
301.08
301.359
298.862
298.985
299.106
299.224
299.335
299.439
299.532
299.613
299.682
299.739
299.784
299.817
299.843
299.859
299.864
299.863
299.858
299.85
299.84
299.827
299.814
299.799
299.783
299.768
299.753
299.738
299.723
299.709
299.696
299.683
299.671
299.66
299.649
299.638
299.628
299.619
299.611
299.602
299.595
299.587
299.582
299.576
299.571
299.567
299.563
299.56
299.558
299.556
299.555
299.554
299.554
299.554
299.555
299.556
299.558
299.56
299.562
299.564
299.567
299.57
299.573
299.577
299.58
299.584
299.587
299.591
299.595
299.599
299.603
299.607
299.611
299.615
299.618
299.62
299.622
299.624
299.626
299.627
299.628
299.628
299.629
299.629
299.629
299.63
299.632
299.636
299.642
299.653
299.671
299.699
299.742
299.804
299.891
300.008
300.16
300.347
300.569
300.818
301.085
301.361
298.863
298.989
299.113
299.233
299.347
299.452
299.546
299.628
299.698
299.754
299.798
299.833
299.857
299.87
299.874
299.873
299.868
299.859
299.848
299.835
299.821
299.806
299.79
299.775
299.76
299.745
299.731
299.717
299.704
299.691
299.68
299.669
299.658
299.648
299.638
299.63
299.622
299.614
299.607
299.601
299.595
299.589
299.584
299.581
299.577
299.575
299.573
299.571
299.57
299.57
299.57
299.57
299.571
299.573
299.574
299.576
299.579
299.582
299.584
299.588
299.591
299.595
299.598
299.602
299.606
299.61
299.615
299.619
299.624
299.628
299.633
299.636
299.638
299.64
299.642
299.645
299.647
299.648
299.649
299.65
299.65
299.649
299.649
299.65
299.651
299.653
299.659
299.669
299.687
299.715
299.757
299.819
299.906
300.023
300.174
300.36
300.58
300.826
301.091
301.363
298.864
298.993
299.12
299.243
299.359
299.465
299.56
299.643
299.712
299.768
299.813
299.847
299.869
299.879
299.883
299.882
299.876
299.867
299.855
299.842
299.828
299.813
299.797
299.782
299.767
299.752
299.738
299.724
299.712
299.7
299.688
299.677
299.667
299.658
299.649
299.64
299.633
299.625
299.619
299.613
299.608
299.603
299.599
299.595
299.592
299.59
299.588
299.587
299.586
299.586
299.586
299.587
299.588
299.59
299.592
299.594
299.597
299.6
299.603
299.607
299.61
299.614
299.618
299.623
299.627
299.631
299.636
299.641
299.646
299.651
299.655
299.657
299.66
299.662
299.665
299.668
299.67
299.672
299.673
299.673
299.672
299.671
299.67
299.67
299.67
299.672
299.677
299.686
299.703
299.731
299.773
299.835
299.921
300.038
300.188
300.374
300.591
300.835
301.096
301.365
298.866
298.997
299.126
299.252
299.37
299.478
299.574
299.657
299.726
299.78
299.828
299.859
299.877
299.889
299.893
299.891
299.885
299.875
299.863
299.85
299.835
299.82
299.804
299.789
299.774
299.759
299.745
299.732
299.72
299.708
299.697
299.687
299.677
299.668
299.659
299.651
299.644
299.638
299.631
299.626
299.621
299.617
299.613
299.61
299.608
299.606
299.604
299.603
299.603
299.603
299.604
299.605
299.607
299.609
299.611
299.613
299.616
299.62
299.623
299.627
299.631
299.635
299.64
299.644
299.649
299.654
299.66
299.665
299.671
299.675
299.677
299.68
299.682
299.686
299.689
299.693
299.695
299.697
299.697
299.697
299.696
299.694
299.693
299.691
299.69
299.691
299.695
299.704
299.72
299.747
299.789
299.851
299.937
300.053
300.203
300.387
300.602
300.844
301.101
301.367
298.867
299.001
299.133
299.26
299.38
299.49
299.587
299.67
299.738
299.796
299.839
299.867
299.887
299.899
299.902
299.9
299.893
299.883
299.871
299.858
299.843
299.828
299.812
299.796
299.781
299.767
299.753
299.741
299.728
299.717
299.706
299.696
299.687
299.678
299.671
299.663
299.656
299.65
299.645
299.64
299.635
299.632
299.628
299.626
299.624
299.622
299.621
299.621
299.621
299.622
299.622
299.624
299.626
299.628
299.631
299.634
299.637
299.641
299.645
299.649
299.653
299.658
299.663
299.668
299.673
299.679
299.685
299.691
299.695
299.697
299.7
299.703
299.707
299.712
299.716
299.719
299.722
299.723
299.723
299.723
299.721
299.719
299.716
299.713
299.712
299.712
299.715
299.723
299.738
299.764
299.806
299.867
299.953
300.069
300.218
300.4
300.614
300.852
301.107
301.368
298.868
299.005
299.139
299.269
299.391
299.502
299.599
299.681
299.751
299.807
299.849
299.878
299.898
299.908
299.912
299.909
299.902
299.892
299.879
299.866
299.852
299.835
299.82
299.805
299.79
299.776
299.762
299.75
299.738
299.727
299.717
299.707
299.699
299.69
299.683
299.676
299.67
299.664
299.659
299.655
299.651
299.648
299.645
299.643
299.641
299.64
299.64
299.64
299.64
299.641
299.643
299.644
299.646
299.649
299.652
299.656
299.659
299.663
299.668
299.672
299.677
299.682
299.688
299.693
299.699
299.705
299.711
299.715
299.717
299.721
299.724
299.729
299.735
299.74
299.744
299.747
299.749
299.75
299.75
299.749
299.747
299.744
299.74
299.737
299.734
299.733
299.735
299.742
299.756
299.782
299.823
299.884
299.969
300.085
300.232
300.414
300.625
300.861
301.112
301.37
298.87
299.008
299.145
299.277
299.401
299.513
299.611
299.692
299.765
299.818
299.858
299.889
299.908
299.918
299.921
299.918
299.911
299.9
299.889
299.876
299.861
299.844
299.829
299.814
299.799
299.786
299.773
299.76
299.749
299.739
299.729
299.72
299.711
299.704
299.697
299.69
299.685
299.68
299.675
299.671
299.668
299.665
299.663
299.661
299.66
299.659
299.659
299.66
299.66
299.662
299.664
299.666
299.669
299.672
299.675
299.679
299.683
299.687
299.692
299.697
299.702
299.708
299.714
299.72
299.726
299.731
299.734
299.737
299.741
299.746
299.752
299.758
299.763
299.768
299.772
299.775
299.777
299.778
299.778
299.777
299.774
299.77
299.765
299.761
299.757
299.755
299.756
299.762
299.775
299.8
299.84
299.901
299.986
300.1
300.247
300.427
300.637
300.87
301.118
301.372
298.871
299.012
299.151
299.285
299.411
299.524
299.622
299.704
299.775
299.828
299.87
299.9
299.918
299.928
299.93
299.927
299.92
299.91
299.899
299.885
299.87
299.854
299.839
299.824
299.81
299.797
299.784
299.772
299.762
299.751
299.742
299.734
299.726
299.719
299.712
299.706
299.701
299.696
299.692
299.689
299.686
299.684
299.682
299.681
299.68
299.68
299.68
299.681
299.682
299.684
299.686
299.689
299.692
299.695
299.699
299.703
299.707
299.712
299.717
299.723
299.729
299.735
299.741
299.746
299.751
299.753
299.757
299.761
299.767
299.774
299.781
299.787
299.792
299.796
299.8
299.803
299.805
299.805
299.805
299.804
299.801
299.797
299.791
299.785
299.78
299.777
299.777
299.782
299.795
299.819
299.858
299.918
300.003
300.117
300.263
300.441
300.648
300.878
301.123
301.373
298.872
299.016
299.157
299.293
299.421
299.535
299.631
299.718
299.784
299.84
299.881
299.91
299.929
299.938
299.94
299.937
299.93
299.92
299.909
299.896
299.88
299.865
299.85
299.836
299.822
299.809
299.797
299.786
299.775
299.766
299.757
299.749
299.742
299.735
299.729
299.724
299.719
299.715
299.712
299.709
299.706
299.704
299.703
299.702
299.702
299.702
299.702
299.704
299.705
299.707
299.71
299.713
299.716
299.72
299.724
299.728
299.733
299.738
299.744
299.749
299.756
299.761
299.766
299.769
299.772
299.776
299.782
299.788
299.795
299.803
299.809
299.814
299.819
299.823
299.827
299.829
299.831
299.832
299.832
299.831
299.828
299.824
299.818
299.811
299.804
299.8
299.799
299.803
299.815
299.838
299.877
299.936
300.02
300.133
300.278
300.455
300.66
300.887
301.127
301.375
298.873
299.019
299.163
299.302
299.431
299.546
299.642
299.73
299.794
299.851
299.893
299.921
299.939
299.948
299.95
299.947
299.94
299.932
299.921
299.906
299.891
299.876
299.862
299.848
299.835
299.823
299.811
299.801
299.791
299.782
299.774
299.767
299.76
299.754
299.748
299.744
299.739
299.736
299.733
299.73
299.728
299.726
299.725
299.725
299.725
299.725
299.726
299.727
299.729
299.732
299.734
299.737
299.741
299.745
299.749
299.754
299.759
299.765
299.771
299.776
299.78
299.783
299.786
299.79
299.795
299.802
299.809
299.817
299.824
299.83
299.835
299.84
299.845
299.849
299.852
299.855
299.857
299.858
299.858
299.857
299.855
299.85
299.844
299.837
299.829
299.823
299.821
299.824
299.835
299.857
299.896
299.954
300.038
300.15
300.294
300.469
300.672
300.897
301.131
301.377
298.874
299.023
299.169
299.31
299.441
299.555
299.655
299.739
299.807
299.863
299.904
299.932
299.95
299.959
299.961
299.958
299.951
299.943
299.932
299.918
299.903
299.889
299.875
299.862
299.849
299.838
299.827
299.817
299.808
299.8
299.792
299.785
299.779
299.774
299.769
299.765
299.761
299.758
299.755
299.753
299.751
299.75
299.749
299.749
299.749
299.75
299.751
299.753
299.755
299.757
299.76
299.763
299.767
299.771
299.776
299.781
299.786
299.791
299.795
299.798
299.8
299.804
299.809
299.815
299.822
299.829
299.837
299.843
299.849
299.854
299.859
299.865
299.87
299.874
299.877
299.88
299.882
299.883
299.884
299.883
299.881
299.877
299.87
299.862
299.854
299.847
299.844
299.846
299.856
299.877
299.915
299.973
300.055
300.167
300.31
300.483
300.684
300.905
301.136
301.379
298.876
299.027
299.175
299.319
299.451
299.564
299.669
299.75
299.819
299.875
299.916
299.944
299.961
299.97
299.972
299.969
299.963
299.955
299.944
299.93
299.916