/*--------------------------------*- C++ -*----------------------------------*\
  =========                 |
  \\      /  F ield         | OpenFOAM: The Open Source CFD Toolbox
   \\    /   O peration     | Website:  https://openfoam.org
    \\  /    A nd           | Version:  6
     \\/     M anipulation  |
\*---------------------------------------------------------------------------*/
FoamFile
{
    version     2.0;
    format      ascii;
    class       volScalarField;
    location    "0";
    object      p;
}
// * * * * * * * * * * * * * * * * * * * * * * * * * * * * * * * * * * * * * //

dimensions      [0 2 -2 0 0 0 0];

internalField   nonuniform List<scalar> 
13046
(
0.468206
0.437806
0.451952
0.481823
0.460257
0.432035
0.466307
0.434964
0.460273
0.268104
-0.0547043
0.400302
0.470262
0.380709
0.440925
0.317229
0.3956
0.0221427
0.479168
0.4561
0.46703
0.310357
0.398952
0.00998628
0.470882
0.463021
0.452387
0.45509
0.387463
0.439352
0.475966
0.41084
0.441969
0.477905
0.465029
0.456001
0.476014
0.469445
0.463425
0.458022
0.434374
0.424624
0.467757
0.481645
0.470882
0.475653
0.467328
0.464091
0.461129
0.429886
0.452776
0.388792
0.44261
0.390525
0.400235
0.380962
0.443699
0.216543
0.408237
0.400743
0.428231
0.327263
0.43374
0.408306
0.130346
0.358859
0.414507
0.236022
0.396288
0.424805
0.256944
0.39778
0.180412
0.39731
0.40036
0.478664
0.467017
0.455283
0.402968
0.377974
0.155875
0.469283
0.452671
0.450136
0.4046
0.0913517
0.336337
0.339973
0.413361
0.151753
0.409231
0.298157
0.138022
0.424606
0.413331
0.290239
0.266035
0.420086
0.421453
0.415275
0.341255
0.172652
0.48017
0.468945
0.456919
0.455647
0.40763
0.410634
0.448845
0.42251
0.413492
0.171138
0.396654
-0.215763
0.471297
0.402556
0.440126
0.41013
0.421309
0.240877
0.412431
0.279947
0.414571
0.248783
-0.0974993
0.398585
0.451933
0.31941
0.433525
0.458358
0.433538
0.417723
0.411237
0.31132
0.181593
0.393727
0.219562
0.417603
0.470875
0.39798
0.435651
0.447708
0.414147
0.447038
0.441586
0.405942
0.419284
0.455194
0.426683
0.428964
0.425522
0.299114
0.431074
0.467463
0.445491
0.43143
0.361337
0.385206
0.344834
0.383004
0.436444
0.434249
0.450708
0.381964
0.445805
0.260617
0.401297
-0.0429062
0.204585
0.397485
-0.176216
0.387036
0.191083
0.41474
0.456701
0.368631
0.423275
0.45154
0.448909
0.394876
0.404679
0.00868753
0.275839
0.456408
0.389098
0.417135
0.464507
0.433243
0.420059
0.454037
0.418354
0.448626
0.365494
0.44477
0.453769
0.347406
0.431777
0.330072
0.409228
0.104119
0.415267
0.337001
0.193629
0.300332
0.124691
0.409645
0.373728
0.361573
0.432028
0.459783
0.382606
0.395597
0.158984
0.0824272
0.296856
0.407396
0.472959
0.469485
0.458902
0.457451
0.400924
0.435686
0.415267
0.325249
0.202378
0.452977
0.375506
0.448443
0.39929
-0.119532
0.211313
0.431248
0.363687
0.361766
0.321012
0.161905
0.413241
0.409212
0.366615
0.443936
0.441078
0.332043
0.433079
0.261259
0.336457
0.414384
0.370092
0.322541
0.42676
0.400075
-0.127291
0.191338
0.457027
0.424356
0.393538
0.191323
0.393745
-0.265536
0.47096
0.474742
0.449407
0.421553
0.421949
0.363451
0.376551
0.447094
0.4385
0.394295
0.366542
0.117235
0.448226
0.352629
0.426588
0.369797
0.289337
0.424705
0.397258
0.229503
0.41452
0.47082
0.463987
0.479547
0.400089
0.345226
0.436118
0.449654
0.33247
0.424423
0.453534
0.453746
0.457413
0.413167
0.373649
0.398902
0.322808
0.432406
0.378616
0.411935
0.207705
0.463457
0.422185
0.409266
0.435132
0.369264
0.347877
0.419351
0.266156
0.408621
0.44489
0.393616
0.381323
0.405544
0.404319
0.243019
0.406639
0.227405
0.409967
0.404469
0.0349801
0.290628
0.426136
0.305042
0.418283
-0.334241
0.394391
0.116105
0.468975
0.461873
0.421289
0.438975
0.347403
0.435979
0.411712
0.347322
0.144282
0.38855
0.366996
0.440025
0.233756
0.334408
0.414346
0.407792
0.445845
0.425043
0.340204
0.432407
0.392288
0.451417
0.339174
0.39792
0.0610821
0.384602
0.339703
0.434293
0.415843
0.320657
0.426376
0.440242
0.398587
0.449878
0.41094
0.393747
0.449057
0.474867
0.42694
0.454829
0.430024
0.37501
0.357956
0.315566
0.110278
0.410176
0.24234
0.332034
0.418224
0.423332
0.39592
0.302449
0.391819
0.400402
0.220287
0.186782
0.397287
0.402144
0.395294
-0.307528
0.140812
0.209319
0.393534
-0.236972
0.416062
0.350699
0.432822
0.407226
0.321582
0.0680846
0.421119
0.421537
0.286765
0.263226
0.410501
0.40553
0.404225
0.0255717
0.248192
0.175637
0.392602
-0.304773
0.459353
0.479013
0.464998
0.169202
-0.257609
0.396389
0.45614
0.361784
0.415888
0.284301
0.0281687
0.405375
-0.316438
0.399204
0.0563561
0.461317
0.433899
0.437385
0.466847
0.461677
0.464267
0.252181
0.397564
-0.106684
0.460783
0.447352
0.4617
0.46342
0.478503
0.470329
0.434522
0.346691
0.363509
0.454082
0.458967
0.470476
0.472102
0.421118
0.463823
0.428489
0.318435
0.395064
0.398711
0.401703
0.00236347
-0.00499098
0.29774
0.292987
0.290946
0.0870697
0.408056
0.404221
0.422081
0.270744
0.451711
0.41507
0.404307
0.359734
0.312426
0.419756
-0.206737
0.398845
0.102403
0.40824
0.291876
0.111509
0.219469
0.398362
-0.135027
0.400355
-0.352623
0.0478027
-0.402395
0.397795
0.0831747
0.298212
0.394411
0.425426
-0.0654371
0.401654
0.186934
0.377679
0.211034
0.41771
0.293344
0.390103
-0.0671974
0.46551
0.445571
0.428551
0.0584625
0.405717
0.267543
0.362962
0.421991
0.324994
0.278626
0.369803
0.425866
0.402298
-0.50921
-0.0220165
-0.295649
0.396214
0.0959163
0.471532
0.455
0.428961
0.0120539
0.241597
0.405021
0.403268
0.220695
0.000237584
0.317221
0.404541
0.06948
0.397347
0.119544
0.358598
0.435586
0.312088
0.39739
0.231775
0.410689
0.407987
0.39537
0.344446
0.0448787
0.45445
0.449802
0.368251
0.347829
0.425149
0.427423
0.455172
0.378293
0.424021
0.429628
0.278078
0.411833
0.260697
0.349457
0.420733
0.0697743
0.293462
0.407267
0.418028
0.353451
0.228891
-0.393348
0.3964
0.108128
0.473372
0.471868
0.445083
0.424486
0.451545
0.431179
0.444726
0.433731
0.41189
0.311081
0.411155
0.350041
-0.29597
0.397967
0.0598098
0.0302339
0.257814
0.406088
0.442306
0.396699
0.375101
0.284821
0.345251
0.41923
0.397721
0.139943
0.368955
-0.211316
0.152777
0.39876
-0.169518
0.165577
0.399232
0.426538
0.278285
0.414775
0.464933
0.415985
0.421909
0.305988
0.402876
0.0272301
0.280379
0.379234
0.426235
0.411209
0.161838
0.372352
0.436288
0.414401
0.357897
0.416127
0.375749
0.442986
0.458076
0.42743
0.414501
0.402818
0.00848739
0.288215
0.396653
0.218635
0.410959
0.469256
0.441127
0.43666
0.325341
0.391424
0.00256824
0.457106
0.407632
0.438262
0.458234
0.414365
0.45971
0.299256
0.382287
0.427492
0.243243
0.39229
-0.171871
0.2585
0.391119
-0.149947
0.408351
0.150305
0.37106
0.400588
0.3833
0.437417
0.390391
-0.225011
0.215901
0.4144
0.17329
0.364612
0.3994
-0.384426
0.0189906
0.0618138
-0.435186
0.396469
0.39846
0.0665212
0.349584
0.401301
-0.0647304
0.240486
0.323066
0.336522
0.399568
0.0349478
0.402551
0.0783698
0.353431
0.185978
0.415499
0.425108
0.300948
0.33628
0.481136
0.451005
0.433065
0.366505
0.216507
0.419744
0.421022
0.373479
0.234668
0.355764
0.394982
0.0688142
0.439605
0.29095
0.409035
0.446975
0.346535
0.409172
0.39817
0.288675
0.427542
0.392376
0.276596
0.426464
0.471613
0.434872
0.44824
0.448252
0.333737
0.429643
0.405479
0.0729128
0.260163
0.15181
0.399422
-0.16188
0.129911
0.400827
-0.165494
0.458213
0.430861
0.401215
-0.24609
0.398958
0.118672
0.385062
0.408825
0.177399
0.398149
-0.23789
0.0933171
0.480927
0.46482
0.440546
0.447348
0.361536
0.43537
0.38501
0.399793
0.441392
0.402829
-0.039689
0.210745
0.274703
0.38279
0.425383
0.392262
0.312839
-0.0182748
0.433977
0.343125
0.433195
0.483662
0.457433
0.438136
-0.0353495
0.227339
0.402584
0.411385
0.152141
0.361877
0.237189
0.217579
0.395253
0.395011
-0.151975
-0.187572
0.43438
0.378279
0.445167
0.316577
0.404103
0.428011
0.458728
0.428208
0.460932
-0.111989
0.176683
-0.103305
0.4001
0.175444
0.400106
0.415851
0.278221
0.426209
0.224353
0.200084
-0.0587161
-0.094469
0.402664
0.401992
0.402115
0.336928
0.437126
0.448495
0.378727
0.440275
0.27918
0.392459
-0.0919353
0.448626
0.359531
0.442414
0.46189
0.404067
0.452606
0.246196
0.392639
-0.140993
0.438667
0.308316
0.424411
0.342616
0.34424
0.424051
0.439164
0.335028
0.408677
0.206297
0.409919
0.310174
0.400023
-0.468995
0.00572787
0.434185
0.354614
0.436172
0.295194
0.396039
-0.0357471
0.39191
0.324611
0.434705
0.115712
0.393337
-0.361989
0.46179
0.454403
0.420102
0.438513
0.420656
0.434437
0.465138
0.424431
0.462026
0.458864
0.465521
0.428736
0.443141
0.446501
0.436529
0.441718
0.387879
0.449557
0.452218
0.390088
0.449337
0.399449
-0.139704
0.140691
0.458274
0.394902
0.423521
0.245996
-0.0385019
0.40256
0.394821
0.383839
0.265995
0.233624
0.422859
0.419026
0.455312
0.419377
0.43192
0.430805
0.306501
0.409704
0.416409
0.305441
0.430646
0.477367
0.459053
0.455809
0.380364
0.237825
0.421473
0.473081
0.44101
0.44341
0.415873
0.33334
0.436094
0.431725
0.324774
0.410459
0.475442
0.473635
0.452714
0.460996
0.456774
0.454749
0.468018
0.430516
0.470132
0.454961
0.458447
0.443239
0.457803
0.457789
0.380704
0.372476
0.432267
0.426147
0.400256
0.129406
0.368485
0.426108
0.358329
0.355082
0.40243
0.403934
0.0976369
0.108192
0.353013
0.351619
0.440423
0.399462
0.368174
0.477478
0.467696
0.464984
0.377605
0.215894
0.419294
0.469243
0.436883
0.411031
0.429547
0.311458
0.411532
0.390922
0.394333
0.173081
0.404933
0.188587
0.406545
0.402269
0.258977
0.421071
0.139588
-0.322666
0.393853
0.386337
0.343185
0.433829
0.432703
0.436577
0.394614
0.33006
0.407677
0.345116
0.36395
0.250269
0.421122
0.431987
0.327957
0.414029
0.444394
0.39386
0.357334
0.435996
0.448079
0.403914
0.422832
0.375714
0.364838
0.434854
0.412012
0.353355
0.405415
0.273507
0.425048
0.4726
0.444003
0.45127
0.268435
0.396379
-0.0799855
0.442267
0.397362
0.343121
0.438223
0.430393
0.310188
0.29277
0.412384
0.417704
0.396953
-0.0401922
0.288722
0.2836
0.39462
-0.0752685
0.266012
0.394526
-0.102042
0.383761
0.405516
0.166815
0.437769
0.347295
0.418277
-0.00128645
0.111758
0.334904
0.00580645
0.269383
-0.201327
0.198087
0.0771139
-0.071535
0.255705
0.251455
-0.107274
-0.00347755
0.254617
0.0888178
-0.00516162
0.0267297
0.0672687
0.10761
0.209326
0.128791
0.0564969
0.272492
0.388783
0.347332
0.120957
0.286576
-0.0963123
0.155826
-0.016597
-0.0804423
0.191975
0.120513
0.110794
-0.0470035
0.13893
0.323292
0.268804
0.042347
0.15797
0.0321335
0.394908
-0.0195576
0.25228
0.295543
0.0467927
0.0579577
0.000986058
-0.098761
-0.0200872
0.350224
0.131985
-0.00158793
0.0390595
-0.0822608
0.343219
0.211379
0.12809
-0.00600476
0.241772
-0.0251131
-0.0101677
0.348436
0.0978131
0.126977
0.214968
0.146417
0.381919
0.270824
0.257504
-0.13641
-0.0865132
0.0404047
0.231208
-0.102952
0.109378
0.112314
-0.0559535
0.228855
0.30263
0.0673474
0.113683
-0.0904048
-0.0232638
0.0368396
0.241348
0.0388316
0.0193194
0.0834358
0.355374
-0.00581739
0.242239
0.346716
0.114967
-0.00334007
-0.279073
-0.0410101
0.00641681
-0.00399643
-0.140769
0.183892
0.277315
0.309347
0.385953
-0.0166098
0.00183858
-0.0995423
0.00988081
-0.0378946
0.320603
0.283562
0.208699
-0.0497133
-0.0881332
0.171992
0.276577
0.0673302
0.0199981
-0.151404
0.0589937
0.105394
0.364301
0.373795
0.235349
0.131725
0.0492396
-0.103613
0.369211
-0.0475395
0.227649
-0.147037
0.34686
-0.0882085
-0.0651836
-0.0205785
0.30053
0.0970325
-0.18921
-0.0236772
0.200368
-0.0114865
0.245866
0.180037
0.00444458
0.295448
0.038256
-0.0327859
0.312269
-0.0185946
0.0746436
-0.10399
0.143245
0.0390541
0.306342
0.240783
0.0565855
0.231077
0.247592
0.331024
0.11661
0.0363355
-0.00101465
0.248479
-0.0464984
0.15586
-0.0909854
0.385655
0.0622859
0.308522
0.366404
0.136549
0.373983
0.312509
0.328475
-0.0558075
-0.154395
-0.105886
0.334902
-0.0564864
-0.0776122
-0.0532275
-0.074037
0.0715403
0.0378338
0.141559
0.366933
0.237524
0.032419
0.238866
0.0212437
0.390526
-0.0983481
0.286118
0.00537774
-0.166405
0.352082
0.369815
-0.00365337
0.00733737
0.38486
0.160228
0.0396809
-0.0354797
0.231938
0.320413
0.219493
-0.0186369
-0.00483202
0.263464
0.129116
-0.0381116
0.174135
-0.0554788
-0.0680189
0.0500239
0.277901
-0.143422
0.0652631
0.278153
0.0319316
-0.150703
0.057895
0.00237584
0.0418414
0.180765
0.193554
-0.0234787
-0.0832085
-0.0315537
0.213018
0.210326
0.0552289
0.19796
0.0447492
-0.0552954
0.164611
0.0335509
-0.172183
0.219132
0.310818
0.144114
0.352896
0.324774
0.392998
-0.00327934
-0.197834
0.0837948
0.0559038
0.0369381
-0.133875
0.169692
0.347276
0.228204
0.160002
-0.0303712
0.0614229
0.238066
0.12612
0.201244
-0.0169859
0.0863807
0.0295033
-0.0697524
-0.0257306
0.00463751
-0.00483273
-0.0543938
0.198021
0.130561
0.0587587
0.207326
0.0116516
0.0733443
-0.0195759
0.0584972
0.023671
0.0165483
0.154463
-0.133222
-0.20671
0.0917163
-0.113709
-0.147569
0.158981
-0.0959965
-0.144601
0.307772
0.203619
-0.0251131
0.228652
-0.0729942
0.191045
0.176541
-0.048715
0.00357379
0.276019
0.0886047
0.243346
-0.207794
-0.0376377
0.311711
0.0225192
-0.0196271
-0.231735
-0.130965
-0.162339
-0.121981
0.0344033
0.205584
-0.0579564
-0.160654
-0.0383372
0.0162616
0.391182
-0.00367408
0.228644
0.165779
-0.0768993
0.0617639
-0.028224
-0.0896675
0.183702
0.0469385
0.346438
0.209407
-0.0265571
0.0392575
0.134972
0.388498
0.233944
0.324532
0.241141
0.0359525
0.14224
0.0713102
-0.0472709
-0.126847
0.00905561
0.037033
0.20653
-0.013235
-0.108668
0.00085542
0.0527386
-0.0052099
0.0247826
0.291255
0.0345238
0.0105047
0.337367
0.295906
-0.0271655
0.134352
0.321173
-0.0258594
-0.103861
0.0422492
-0.0548716
-0.0885957
0.317357
-0.0340542
0.0655402
0.327276
-0.148176
0.139183
-0.01265
0.138863
0.0447666
-0.00159911
-0.266579
0.063001
-0.106805
0.00450738
0.049146
0.0475446
0.234036
0.346131
-0.00609775
0.129587
0.0552419
-0.021969
-0.178552
0.282238
0.178372
0.0105261
-0.108324
0.156534
-0.108158
0.00982994
-0.0166352
-0.038472
0.258465
0.344181
0.0287195
0.227237
0.385493
0.287981
0.286876
0.332158
0.035286
0.0149083
-0.0853681
0.386031
0.275539
0.309006
-0.00525947
0.0347416
-0.15666
0.240449
0.0457512
-0.0110776
0.309061
0.194836
-0.0382052
0.0595264
-0.0171414
-0.00104767
-0.0149804
0.0398757
0.0597194
-0.0598515
0.0302907
-0.124206
0.0621259
-0.0592555
0.192559
0.109529
-0.143358
0.323299
0.33771
0.238037
0.019723
0.146561
-0.0967696
0.253611
0.127399
-0.108846
0.318936
-0.150198
0.348808
-0.117335
0.0718998
0.0881217
0.23542
0.25728
-0.00311072
0.364869
0.00391668
0.293506
0.0723604
0.190259
0.0187412
-0.0111859
0.0037288
0.300199
0.0847537
0.382778
0.216387
-0.130038
-0.00123685
0.192238
-0.130626
0.0236473
0.0743743
-0.0608406
0.354168
-0.0371649
-0.059253
0.26307
0.00270594
0.346017
0.376881
0.044293
0.383626
0.361257
0.296157
0.314501
0.161569
-0.0984329
-0.0247547
0.0518905
0.280343
0.0524422
-0.149258
0.362755
-0.0581539
0.0669936
-0.0335321
0.329178
0.389318
-0.0450347
0.288941
0.165038
0.345823
0.0658901
0.246902
0.0506701
0.365961
0.379686
0.21651
-0.0263841
0.264056
0.0308744
0.129327
0.115461
0.073058
0.167822
0.01787
-0.145887
-0.0828903
0.0852351
0.18739
0.135088
0.313899
-0.042303
0.0428138
0.189723
-0.0790292
0.33612
-0.0140051
0.0505868
0.328755
0.302578
0.14854
0.370787
-0.0188771
0.0346987
0.252213
0.112395
0.100825
0.0696126
0.00607109
0.194646
0.223648
0.00709133
-0.0153094
0.146363
-0.131896
-0.0636955
0.347245
0.384164
0.381903
0.0780275
0.390422
0.387273
0.358495
-0.181582
0.174004
0.167096
0.37056
0.0324699
-0.00520954
-0.100828
-0.0285804
-0.176012
0.362778
0.0849811
0.0950202
0.251597
0.216523
0.0260778
0.0485117
0.386632
0.366931
0.323752
0.213243
0.0119879
0.226368
0.196062
0.0300761
0.0894134
-0.0834746
-0.0319514
0.120921
0.0979838
0.017774
0.347442
0.346717
-0.17504
0.299676
-0.00493659
-0.0142372
0.0440903
0.342494
0.0613418
0.21572
0.0799667
0.327062
0.0396455
0.0821505
0.379286
-0.157506
-0.135089
-0.0193409
-0.0530007
-0.204148
-0.306181
-0.0402929
-0.196989
0.106883
-0.176384
-0.0722176
0.0972519
-0.00755173
-0.0379367
0.0268038
-0.0966484
-0.280328
0.362097
0.290924
0.0464829
-0.104955
0.296865
0.0191608
-0.00560049
0.378031
-0.0304776
0.376792
0.0632795
0.307424
0.076937
-0.086161
-0.0797988
0.131034
0.133578
0.108028
-0.0849585
0.0467401
-0.0679059
-0.0507457
0.0100415
-0.143155
-0.0909415
0.360129
-0.02015
0.22369
0.258983
0.034632
0.264057
0.262749
-0.100757
-0.295569
0.0727401
-0.125935
-0.197295
0.232276
0.238186
0.0481672
0.189823
0.0270613
0.380358
0.359049
0.0717546
0.0159696
0.368017
0.315113
0.180787
0.178772
0.0354314
0.383174
0.121721
-0.177334
0.330593
0.287082
0.348312
0.1368
-0.023211
0.0402031
0.240856
0.186872
-0.365974
0.396394
0.0698973
-0.0240634
0.122502
0.309883
0.377601
0.381215
0.188365
0.0964074
0.267856
0.318076
0.331828
0.224764
0.2824
-0.0671634
-0.00736718
0.154085
-0.0845663
-0.0716237
-0.143155
0.066907
0.264085
-0.125311
0.120223
0.00190065
0.279208
0.381032
0.0815711
-0.0998735
-0.15589
0.23848
0.00950836
-0.0337962
-0.151226
0.337536
0.153492
0.167055
-0.115893
0.169475
-0.0323857
-0.0123654
0.237042
0.25975
0.343836
0.388175
-0.039579
0.320629
-0.174271
0.33385
0.346598
0.347499
0.269523
-0.0609917
-0.0605904
0.0525531
-0.17821
0.115214
-0.147237
0.163111
-0.108519
0.304567
0.0354519
-0.163862
0.302553
0.245994
0.0799921
0.0899163
0.220082
0.340705
0.15491
0.107662
-0.168785
0.287513
0.129449
0.365679
-0.198318
0.100502
0.332103
0.239101
0.3711
0.245952
0.0485985
-0.222166
-0.167147
0.0896261
-0.131587
0.36213
-0.173803
0.0188754
0.0778433
-0.0331818
0.268929
-0.193636
0.329856
0.242747
0.170876
-0.142294
0.195036
-0.0191694
0.045699
0.0874062
0.0789477
0.0334996
0.0142551
0.267181
-0.0570477
0.38976
0.0253993
0.0938493
0.209096
0.236291
0.360334
0.0348221
0.062556
-0.0384776
0.0924928
0.0101124
0.355158
-0.0298733
0.115387
0.0335252
0.288915
-0.0150904
0.13326
-0.0945802
0.382055
-0.181611
-0.0621703
0.0235762
0.295415
-0.158168
-0.144034
-0.0703441
-0.108534
0.34548
0.105882
0.222344
0.307413
0.203502
0.118662
0.38245
0.111933
0.24425
0.19869
0.131526
-0.143019
0.144207
0.0867206
0.0174221
0.14601
-0.0453149
-0.13055
0.132317
0.0455795
-0.0574314
0.281937
0.0972577
0.212467
0.0812103
0.358154
0.0751934
0.0723815
0.198836
-0.112231
-0.0398701
0.0340603
0.130492
0.154173
0.187774
0.341489
0.231979
0.277933
0.137294
0.320873
0.364056
0.35985
0.140718
0.114699
0.163946
-0.0940902
0.373557
0.313644
0.292101
0.107466
-0.0618044
-0.140416
0.164509
0.238379
-0.0198712
0.290314
0.311005
0.186078
-0.0033586
0.13291
0.0166587
-0.0139806
0.109762
0.00374489
0.167257
-0.15084
0.170988
0.0884735
0.0730655
-0.191086
0.151694
0.123355
0.21535
0.0315384
0.157898
0.339346
0.353539
0.169395
0.0673779
0.27965
0.131781
-0.0345136
-0.0364142
0.0646884
-0.116707
0.340554
0.0968408
0.145395
0.242944
0.228561
0.187198
-0.0509724
0.386426
0.196143
-0.0237769
0.103659
0.117533
0.279147
0.333263
0.198519
0.174305
-0.155606
-0.0555798
0.0736604
0.182
0.117449
0.170034
-0.00313444
0.349745
0.178286
0.264454
0.319268
0.148558
-0.0193264
0.127015
0.373391
0.00195699
-0.164263
0.124241
0.381582
0.0166434
0.06554
0.268861
0.23769
0.296983
0.103526
-0.151682
0.179695
-0.100751
0.0244287
0.296779
0.09313
-0.0873624
-0.0261302
0.0128183
0.194089
0.0301194
0.00813647
0.324685
-0.0186612
0.38349
0.292642
-0.106041
-0.210995
0.0987132
0.247118
0.316193
0.100632
0.0739168
-0.0167277
0.0541998
0.0775977
0.388354
0.332259
0.246649
0.0381189
-0.139708
0.33942
0.385549
0.348612
0.279557
0.327789
0.121204
-0.0924851
-0.183649
-0.162929
0.357991
0.120893
-0.0305397
0.0505419
0.384053
0.0348674
-0.00363461
-0.120806
0.104262
-0.0423537
0.388329
0.18163
0.24099
0.327923
0.310803
0.0577046
0.202147
0.11865
0.223896
-0.0087822
0.186542
-0.0031885
0.353757
-0.0746052
0.0176121
-0.0360301
0.0510291
0.337377
0.0439187
0.294041
0.32107
0.330414
-0.0761477
0.115004
0.0738205
-0.00913222
0.346377
0.135869
0.140194
0.176338
-0.184763
0.054834
0.34842
0.208466
0.351101
-0.173532
-0.062146
0.0415712
0.359928
-0.00576625
0.0840292
-0.0563928
-0.0510766
0.0437596
0.357261
0.0677695
0.0798876
-0.117215
0.3846
0.374103
-0.183431
0.345741
0.0330242
-0.0740333
-0.0579501
0.114827
-0.123568
0.187682
0.0377517
0.0210185
0.056855
0.321687
0.102159
0.293378
0.0618477
-0.0741513
0.0555069
-0.175172
-0.141452
0.0872318
0.0380536
0.150387
-0.0591954
0.08312
0.315507
0.179554
0.0213232
-0.0945537
0.326178
0.104739
0.0865786
0.393185
0.148086
0.0149631
0.021659
-0.0421611
0.366506
0.0193016
0.0890557
0.192521
-0.114423
0.333225
-0.0657825
0.32079
0.11036
0.260887
-0.051883
0.272166
0.0795341
-0.102209
-0.037544
0.108707
0.337983
-0.216181
-0.0123102
0.0256421
0.364528
0.385369
-0.0247325
0.00574526
0.182423
0.36801
0.0725179
0.34428
0.31355
0.289587
0.260704
0.157906
0.212123
0.195309
0.34968
0.0863601
0.129638
-0.0238085
0.00147217
0.0851824
-0.0505215
0.366711
-0.0577177
0.340665
0.0765509
0.359662
0.00376394
0.373725
0.257169
0.31442
0.361341
0.33832
0.391133
0.0590994
0.32284
0.106531
0.0399182
-0.0108038
-0.0576911
0.351068
-0.0560602
0.181199
0.194708
0.0727601
0.181726
-0.0100903
0.348258
0.128058
0.269535
-0.186486
-0.0274277
0.0478225
0.392921
-0.0149926
0.214626
0.00804382
0.0490171
-0.0899989
0.0655221
0.0360355
0.285058
0.355004
-0.124677
0.173208
0.0423468
0.0114993
0.301458
-0.018619
-0.00102079
0.369112
-0.161309
0.142584
0.240613
0.334047
0.378606
0.00913397
-0.0133318
-0.109661
0.0382964
-0.00824361
0.0401193
0.25626
0.0262171
-0.0930432
0.0782765
0.115645
0.0226503
0.000495495
0.0240705
0.117056
-0.104228
0.273646
0.259682
0.0219961
0.270429
-0.0817022
-0.124553
-0.0192518
-0.159281
0.36969
0.0400053
0.0322781
-0.00642401
0.309589
0.348203
0.14796
0.262438
0.00316743
-0.024075
0.119543
0.0352658
-0.0155715
0.349114
0.159331
0.208757
0.372246
0.281514
0.0995741
0.362077
-0.129937
0.152874
0.146524
0.191294
0.0538782
0.356248
0.0245872
0.184047
0.101038
0.0220044
-0.0500657
-0.00553765
0.257363
0.3045
0.325329
0.125711
0.148048
0.360481
0.278418
0.0876957
0.146868
-0.0810004
0.0562607
0.290225
-0.127074
0.318209
0.0314248
0.331221
0.389096
0.352859
0.0194519
0.314233
0.315143
-0.11321
0.359075
0.00675138
0.357871
0.285048
0.0438106
-0.0620901
0.160271
0.0612062
0.0459432
-0.00281075
0.28193
0.0250162
0.364006
-0.066587
0.0096716
-0.0114084
-0.0679058
0.0327069
0.303555
0.379717
-0.0726578
0.263186
0.124362
0.184658
0.0762627
0.180223
0.342271
0.290407
0.0347604
0.334341
0.300202
0.377162
-0.0690665
0.00328717
-0.00353276
0.263852
0.369092
0.308055
0.0894376
0.373588
0.105239
-0.121929
-0.0641432
-0.216363
0.092244
-0.0932546
0.377508
0.384034
0.146634
0.39433
0.293063
0.14173
0.369636
-0.0844264
0.354652
0.0540925
0.348346
0.0400904
-0.0586835
0.258263
0.15249
0.357826
0.342335
0.346393
-0.0384698
-0.0405024
-0.147244
0.31812
0.288062
-0.0263204
0.118821
0.290517
-0.172553
0.00445987
-0.0423366
0.0415878
0.179958
0.0364816
0.146958
0.247007
0.130335
0.148014
0.262051
0.0359234
0.0558436
0.180017
0.134769
0.0418561
0.32367
0.35947
-0.0259083
0.284889
-0.183786
-0.00335228
0.331992
0.274805
0.0223882
0.350855
-0.0857304
0.258537
0.0638074
0.0663224
0.331391
0.0445432
0.27031
0.258251
0.225503
0.38782
0.23233
-0.109045
0.200167
0.0879907
0.272539
0.38643
0.219361
0.103259
-0.0167212
0.068747
0.333158
-0.0755526
0.30412
-0.0304628
0.167528
0.282118
0.261473
0.121193
0.326984
0.372809
0.0498355
0.0379832
0.145569
-0.0434711
-0.0943307
0.1517
0.258717
-0.0327922
-0.112045
-0.0134122
-0.113566
0.253566
0.100719
0.277341
0.00381337
0.348761
0.130148
0.31456
0.37986
-0.0182921
0.339457
0.0452387
0.14972
0.122443
0.321015
-0.00351626
0.0687132
0.12972
-0.0540443
0.0447543
-0.0618526
-0.0923214
-0.182902
0.372448
0.386105
-0.035634
0.00516266
0.266982
-0.134776
-0.0196986
0.0371174
0.240617
0.252954
-0.148409
-0.186505
0.342401
0.00499475
0.182509
0.00106748
-0.11774
-0.0629425
0.153466
0.314913
0.178992
-0.128536
0.350391
0.312442
-0.0320033
0.179775
0.0280213
0.381095
0.0487325
0.0782126
-0.0976354
0.221372
0.360646
0.193687
0.147991
-0.0130517
0.0965776
0.184309
0.370027
0.393531
-0.00570677
0.37505
-0.00356418
0.161583
0.162728
0.087183
0.0238791
0.321033
0.0565698
0.155454
-0.0310077
-0.0199595
0.066151
-0.0549969
0.226084
0.349609
-0.0338136
0.00401097
0.15327
0.0297422
-0.00487058
-0.180924
0.0302699
0.320206
-0.131196
0.0121752
0.249025
0.153364
0.0908846
0.214827
0.302943
-0.0352416
-0.0270055
0.305046
0.0787299
-0.0352304
0.110608
0.318515
0.215922
0.163411
-0.000643707
-0.0121086
-0.0128243
0.37152
0.307245
0.381293
0.0844925
0.234624
-0.0791335
0.119907
0.316187
-0.126428
-0.115072
0.259681
0.311268
-0.133284
0.0143796
-0.0026974
-0.0422937
-0.00536177
0.392274
0.0748339
0.00920872
0.147628
-0.0165015
0.256156
0.161098
-0.0880097
0.0192796
0.28103
0.0936018
0.373315
-0.0983479
0.00638172
0.205446
0.185616
0.0883224
0.185055
-0.0527488
0.377662
0.352416
0.209495
0.326222
-0.0275166
0.322223
0.213057
0.200168
0.36275
-0.134149
0.0215204
0.38357
0.21672
-0.144278
0.0132177
0.298305
0.380322
0.117417
0.268356
-0.00394124
-0.102488
-0.0349042
-0.152055
0.316229
-0.00887921
0.131042
0.3647
-0.0232074
-0.0315625
-0.00964327
0.143055
0.00891321
0.0207942
-0.013455
-0.0731846
0.0954964
0.288342
0.360312
0.241837
0.0367428
0.0194373
-0.157693
0.0131208
0.20115
0.178086
0.222382
0.253621
0.0206112
0.103438
0.299227
0.314818
0.380847
0.333016
0.365839
0.0977882
-0.0882782
-0.0361178
-0.0715389
0.370851
0.143169
-0.00327354
0.361149
-0.0799863
0.29335
0.254948
0.0211005
0.00225616
0.0217986
-0.0049943
0.312023
0.0620227
0.24177
0.108937
0.357678
0.174099
0.388202
-0.0404317
0.110926
0.00334056
-0.191783
0.0343404
0.276547
-0.0455811
-0.204937
0.162349
0.350853
0.274007
-0.00672721
-0.0972901
-0.029346
-0.0781803
0.00495
-0.0766274
0.0849448
-0.0636979
0.261743
-0.0393362
0.00575916
0.339219
0.105537
0.208351
0.303088
0.0743304
0.130213
-0.0428585
0.274894
0.0555318
0.0279731
0.0824068
-0.0556284
-0.105364
0.0010089
-0.00170285
0.271878
0.381073
0.32164
0.166225
0.248078
-0.126525
0.375275
0.170296
0.257037
0.00507465
0.251498
0.0174386
0.0409682
0.291828
0.3579
0.275626
0.169946
0.0492465
0.385425
0.0482321
0.292618
0.368791
0.230014
0.0652235
-0.132805
0.293501
0.158683
-0.0661043
0.215264
0.151124
0.354812
-0.0133454
0.36559
0.381825
0.0790006
-0.0379298
0.366873
-0.0918684
-0.0589952
0.0413595
-0.0636523
0.0302283
-0.0523332
-0.0956062
0.106497
0.00930261
-0.0331914
0.0198168
0.176636
-0.00879664
-0.020724
0.207922
0.131441
-0.114096
0.348404
0.385353
0.369711
-0.00172323
-0.125382
0.39207
-0.103276
0.093549
-0.0121374
0.0388748
0.00432767
0.258827
0.0297335
0.0274066
-0.114923
-0.12794
-0.064001
0.0329095
-0.138526
0.116412
0.155934
0.10333
0.357866
0.148894
0.219568
0.0655516
0.30808
0.0334749
0.0395892
0.399824
0.0432053
0.150075
-0.0934795
0.231522
0.382019
0.0614555
0.190822
0.152468
0.00944705
-0.00723854
-0.0270244
-0.0611064
0.264808
-0.0530212
0.0769208
0.0269634
0.0805979
-0.027946
-0.0248017
0.0932048
0.05359
0.0113145
0.383987
0.0980939
0.0650812
0.164897
0.355315
0.0416992
-0.124119
0.283323
-0.0897357
0.0599576
-0.00134016
0.103304
0.0173978
0.0563586
0.103575
0.37794
0.319171
-0.115974
0.0103057
-0.128564
-0.0108379
-0.146997
-0.0556141
0.0368504
-0.0418621
0.0430876
0.204843
0.391715
0.0330483
0.252133
0.127021
0.370762
0.0267741
0.383459
0.195638
-0.0811723
0.198264
0.262569
0.0353014
0.312249
-0.00111026
0.32709
-0.00135643
-0.190265
0.101723
0.389701
0.383362
0.264797
0.209069
0.240262
-0.118738
0.00606431
0.238836
0.388357
-0.166084
0.10562
0.00107586
0.0315848
0.0828848
-0.0275522
-0.0774974
-0.00356955
-0.0591536
0.0113489
0.0467264
0.0814688
0.386915
0.310613
-0.148386
0.286152
-0.0408707
-0.0337662
0.294182
-0.00358423
0.0585198
0.226175
-0.131211
-0.0258425
0.115229
0.320498
-0.0735596
-0.0149529
0.0541934
0.200791
-0.0721012
0.356962
-0.129392
0.0348641
0.0561408
-0.00994425
0.209038
0.204513
0.35649
-0.00662037
0.271608
0.156662
0.194846
-0.00830052
0.207494
-0.0472045
-0.0850408
-0.17007
0.167364
0.098691
0.0566852
0.335466
0.107771
0.152442
0.204205
-0.03014
-0.0550646
0.036284
0.173786
0.00297556
0.391412
-0.0912417
-0.1291
0.0397068
0.0301415
0.00489685
-0.00441479
0.251193
0.039678
0.109535
-0.0721325
0.00226299
0.104005
-0.0614071
0.385444
0.37376
-0.0658489
-0.0296746
0.314446
0.128235
-0.0201201
-0.0976155
-0.0187212
-0.0672799
0.152916
0.345397
-0.0188086
-0.119271
0.203493
0.0983433
-0.128043
-0.0703659
0.095976
0.244911
0.393601
-0.0819226
-0.130548
0.174409
0.3161
0.063478
0.157431
0.0490436
-0.00187561
0.0403332
0.200118
0.0933504
-0.000615777
0.286807
0.0524946
-0.166029
0.146585
0.00499986
0.292567
0.387459
0.0081316
0.029311
0.0315046
0.0299181
-0.0813307
0.0413672
-0.0675304
0.361293
0.297926
0.242682
0.0390661
-0.111582
0.277609
0.374655
-0.0218247
0.140791
0.0213835
-0.183526
0.123377
0.0356481
-0.184787
0.00405696
0.2013
-0.0850517
-0.12538
-0.0631163
0.293629
-0.0989999
0.286438
0.0908194
-0.0104543
0.0482464
-0.0360528
0.293349
-0.157662
0.040501
0.0706309
-0.0869442
0.157556
0.23812
0.170722
0.0992728
0.270299
-0.0703448
-0.067414
0.342786
-0.00599079
0.33712
0.175564
0.062073
0.156573
0.32214
0.0984626
-0.130972
0.355994
-0.0125404
0.0726584
0.323538
-0.0237886
0.367325
-0.0179772
0.055122
-0.121888
0.0569339
-0.0608441
0.112352
-0.0587412
-0.163974
-0.0713102
-0.0708992
-0.177453
0.345568
-0.0712003
0.0501809
0.165538
0.107655
0.376461
0.378956
0.0138461
0.106423
0.298237
0.000749062
0.346594
-0.164129
0.0479862
0.144208
-0.0182848
0.303406
0.0222528
0.031824
0.0184024
-0.0198186
-0.00621634
-0.160846
0.326426
-0.268612
0.36182
0.244417
-0.0570844
-0.124872
-0.0595676
0.394223
0.245258
0.211073
0.0931936
0.160844
0.0729101
0.323851
0.278418
-0.033193
0.191367
0.365555
0.0839786
0.136775
0.199873
-0.142319
-0.0712331
0.289105
0.0465089
0.0810926
0.367642
-0.0780926
-0.159753
-0.0071874
0.0799808
0.0835573
0.381343
-0.019812
-0.106391
-0.0233915
0.0768256
-0.0146075
0.33564
0.0990167
-0.054924
0.0209585
-0.0225109
-0.0248207
0.0308578
0.195075
0.125781
-0.042082
0.334077
0.041652
0.299521
-0.0411862
-0.0777954
0.0483503
0.327427
0.372835
0.286799
0.114638
0.0917828
0.290098
0.374728
-0.0903543
0.347845
-0.0660749
0.217756
0.196444
0.334066
0.111636
0.319488
0.350589
0.00670857
0.00741135
0.051341
0.112263
-0.0655707
-0.0311491
-0.0590863
0.258529
0.30436
-0.0951404
0.355276
0.111617
0.274283
0.0884728