/*--------------------------------*- C++ -*----------------------------------*\
  =========                 |
  \\      /  F ield         | OpenFOAM: The Open Source CFD Toolbox
   \\    /   O peration     | Website:  https://openfoam.org
    \\  /    A nd           | Version:  6
     \\/     M anipulation  |
\*---------------------------------------------------------------------------*/
FoamFile
{
    version     2.0;
    format      ascii;
    class       volVectorField;
    location    "0";
    object      U;
}
// * * * * * * * * * * * * * * * * * * * * * * * * * * * * * * * * * * * * * //

dimensions      [0 1 -1 0 0 0 0];

internalField   nonuniform List<vector> 
13046
(
(0.472377 0.107109 0)
(0.632327 -0.170892 5.0178e-21)
(0.304076 -0.10905 1.14546e-20)
(0.489346 0.0373784 0)
(0.298746 -0.0422756 1.03988e-20)
(0.555857 -0.179032 0)
(0.516072 0.0530028 -1.51594e-21)
(0.589323 -0.210164 -2.5629e-21)
(0.273535 -0.0296658 1.14564e-20)
(0.760406 0.296709 -5.33462e-21)
(0.941534 -0.3984 0)
(0.0314826 -0.00609394 -7.62143e-21)
(0.545324 0.132606 9.67812e-21)
(0.702061 -0.231015 7.74878e-21)
(0.235355 -0.0781494 -6.33533e-21)
(0.708964 0.330039 -2.48126e-21)
(0.0681305 -0.0540801 -1.2177e-20)
(0.990417 -0.332259 -3.41838e-21)
(0.351978 0.0202719 0)
(0.451725 -0.158827 5.54816e-21)
(0.519057 -0.0424313 -1.56877e-20)
(0.719803 0.323336 2.96252e-21)
(0.0583469 -0.0428818 2.43847e-20)
(0.981271 -0.346978 -1.08775e-21)
(0.450017 0.0499753 -6.40689e-21)
(0.56016 -0.144908 9.33953e-21)
(0.329434 -0.0873752 0)
(0.544033 0.156597 -1.00964e-22)
(0.722966 -0.229326 -2.27204e-21)
(0.233528 -0.093135 2.18637e-20)
(0.468134 0.125282 0)
(0.653335 -0.161217 0)
(0.307416 -0.129186 -1.1657e-20)
(0.431953 0.0283328 2.23864e-20)
(0.351927 -0.0881192 -3.85939e-21)
(0.526381 -0.121052 -1.44714e-20)
(0.438462 0.00857115 3.84567e-23)
(0.358523 -0.0693578 0)
(0.502645 -0.118276 0)
(0.392625 0.14204 -8.3359e-21)
(0.42178 -0.236652 -1.05141e-20)
(0.660485 -0.0906694 7.59759e-21)
(0.443509 -0.0445017 -5.12226e-21)
(0.395232 -0.047215 5.23215e-21)
(0.43812 -0.0895095 0)
(0.464084 -0.0396036 -3.25196e-21)
(0.37192 -0.0270992 0)
(0.444899 -0.111802 1.68216e-21)
(0.489092 0.101909 0)
(0.63501 -0.188954 3.59459e-22)
(0.2783 -0.089725 1.85353e-24)
(0.549572 -0.355562 -1.29292e-20)
(0.333921 0.173747 0)
(0.711421 -0.0324454 9.18159e-21)
(0.594451 -0.385931 1.84001e-20)
(0.718209 -0.0141697 1.00068e-20)
(0.306987 0.166298 -1.30279e-20)
(0.933261 -0.218894 1.67578e-21)
(0.60465 0.324226 0)
(0.227543 -0.188651 -1.00004e-20)
(0.671057 0.133257 4.6254e-21)
(0.773688 -0.35921 -4.53306e-21)
(0.161172 0.0220514 2.66296e-20)
(0.0760082 -0.0236334 -1.39642e-20)
(0.932784 -0.377839 2.64467e-21)
(0.73754 0.260652 8.00486e-21)
(0.578395 0.323776 0)
(0.912586 -0.190585 -7.91736e-21)
(0.268286 -0.22659 -2.91003e-21)
(0.559261 0.309852 3.68759e-21)
(0.889655 -0.180461 1.07293e-20)
(0.285181 -0.233869 3.95968e-21)
(0.957513 -0.225198 1.69427e-23)
(0.620975 0.336872 -9.89834e-23)
(0.209732 -0.184598 1.21529e-23)
(0.356045 0.0398559 0)
(0.442442 -0.172382 -6.04552e-21)
(0.543731 -0.0579384 1.11524e-20)
(0.157559 -0.137588 -1.10962e-20)
(0.652301 0.33708 1.15977e-20)
(0.97568 -0.261766 3.59866e-21)
(0.4692 0.0566182 -3.3662e-21)
(0.571857 -0.16266 3.32352e-21)
(0.307589 -0.0695608 0)
(0.0655226 -0.0224863 1.2533e-20)
(0.944196 -0.382193 0)
(0.74652 0.273073 -4.77275e-21)
(0.784436 0.20364 8.27028e-21)
(0.0778887 0.0286908 0)
(0.888108 -0.442713 2.08135e-21)
(0.0975915 0.0816175 0)
(0.845697 0.15409 0)
(0.847933 -0.514118 -2.73873e-22)
(0.645207 0.212993 9.5721e-21)
(0.67096 0.218034 -1.33527e-20)
(0.847088 -0.30691 -8.62056e-21)
(0.86474 -0.331238 4.03764e-21)
(0.154247 -0.0617163 5.7546e-21)
(0.133673 -0.043381 -1.47385e-20)
(0.0879611 0.040713 7.06755e-22)
(0.789423 0.186201 -8.09117e-21)
(0.871874 -0.456014 0)
(0.474157 -0.0202243 1.7826e-23)
(0.349548 -0.0257419 0)
(0.471672 -0.135536 0)
(0.273846 0.112918 -2.32843e-20)
(0.659392 0.00905272 4.62148e-21)
(0.594747 -0.334262 0)
(0.340935 0.150243 -3.58112e-21)
(0.510612 -0.305455 0)
(0.675268 -0.0472783 1.74884e-20)
(0.72582 0.309527 0)
(0.00909705 0.00512481 1.03859e-20)
(0.86355 -0.394478 2.30145e-21)
(0.521393 0.11491 -6.71489e-21)
(0.671847 -0.213185 -3.32565e-21)
(0.251027 -0.0746748 -1.1438e-20)
(0.657829 0.258538 -5.58148e-21)
(0.639124 0.237068 5.20966e-21)
(0.898823 -0.300205 -2.3417e-21)
(0.145594 -0.0839937 -6.58787e-21)
(0.866421 -0.290947 2.32387e-21)
(0.159329 -0.0831533 6.15502e-21)
(0.75082 0.306759 1.37872e-20)
(0.937847 -0.394319 3.57574e-21)
(0.0256352 -0.00643287 3.41132e-21)
(0.596075 0.192505 0)
(0.793485 -0.269706 5.83822e-21)
(0.19181 -0.0860663 -3.35389e-20)
(0.418125 0.15171 0)
(0.387751 -0.217192 1.05896e-20)
(0.673358 -0.112352 -4.39884e-22)
(0.112095 0.0885488 0)
(0.830396 0.141049 0)
(0.83929 -0.506052 0)
(0.718944 0.21868 0)
(0.886989 -0.376167 1.09763e-20)
(0.104466 -0.0128097 1.49099e-20)
(0.489858 0.141519 0)
(0.683298 -0.178822 0)
(0.290237 -0.134044 0)
(0.596571 0.0684934 0)
(0.652267 -0.292053 0)
(0.228323 0.0221251 0)
(0.324571 0.150274 3.31361e-21)
(0.544144 -0.32836 0)
(0.682405 -0.0311431 -9.44463e-21)
(0.280357 0.0996257 2.25614e-20)
(0.643272 0.00548486 9.95126e-21)
(0.586263 -0.316991 -1.13346e-20)
(0.683417 0.149315 -1.10283e-20)
(0.799131 -0.366797 0)
(0.146097 0.010204 -3.4651e-20)
(0.279441 0.0474151 0)
(0.582884 0.0121805 -2.15139e-20)
(0.562252 -0.260147 -2.91995e-21)
(0.675011 -0.41769 -5.08446e-21)
(0.722497 0.034041 -1.06671e-20)
(0.712745 -0.430164 0)
(0.729014 0.0583711 -6.18492e-21)
(0.246052 0.137376 -1.12582e-20)
(0.216561 0.119625 1.08122e-20)
(0.626635 0.0445993 -1.37346e-21)
(0.636676 -0.319779 -5.87817e-21)
(0.236563 0.056594 6.56969e-21)
(0.779281 0.282774 5.45702e-21)
(0.0322629 0.00182312 -3.96531e-21)
(0.924622 -0.41488 4.70099e-21)
(0.735434 0.310915 4.06971e-21)
(0.0139668 0.000782148 1.55925e-21)
(0.899837 -0.393051 0)
(0.72073 0.23424 -1.2335e-22)
(0.902334 -0.372957 0)
(0.09675 -0.0211427 -1.80129e-20)
(0.448918 0.20766 0)
(0.742279 -0.122753 -2.39382e-21)
(0.385806 -0.254712 -6.20385e-21)
(0.620271 0.0309115 -9.03119e-21)
(0.25401 0.0687249 0)
(0.609709 -0.303751 0)
(0.0391575 0.016255 0)
(0.909341 -0.443183 0)
(0.802516 0.252071 -4.61054e-21)
(0.428141 0.187958 0)
(0.715208 -0.109475 5.20416e-21)
(0.401313 -0.247587 -1.60587e-21)
(0.272498 0.0618468 0)
(0.596785 0.0119994 0)
(0.565257 -0.274653 0)
(0.576065 0.0542584 -4.50422e-21)
(0.625612 -0.27345 0)
(0.240846 0.0149701 0)
(0.731352 -0.267296 3.73281e-23)
(0.205572 -0.0528483 7.77312e-21)
(0.581302 0.173696 -1.41916e-20)
(0.768127 -0.25895 0)
(0.203596 -0.0800846 3.46422e-20)
(0.777034 0.24061 9.54301e-21)
(0.0629488 0.00702012 -1.13533e-20)
(0.918272 -0.42136 9.79625e-21)
(0.108144 0.0696495 -1.03968e-20)
(0.803 0.154069 -4.95006e-21)
(0.848365 -0.480445 -1.05384e-20)
(0.825784 0.183075 1.40308e-20)
(0.871584 -0.480551 0)
(0.0779532 0.056031 1.02158e-20)
(0.561622 -0.397494 5.29238e-21)
(0.759894 -0.0378038 -4.13305e-21)
(0.354397 0.220997 -1.10574e-20)
(0.55282 0.0895844 8.85201e-21)
(0.641339 0.34669 -5.88026e-21)
(0.174082 -0.153485 6.8183e-21)
(0.980565 -0.252224 -1.69261e-23)
(0.878338 -0.479807 0)
(0.82889 0.201175 4.20138e-21)
(0.0643631 0.0456335 0)
(0.463405 0.00403043 1.64426e-20)
(0.338371 -0.0437799 0)
(0.500829 -0.140523 -5.47289e-21)
(0.526466 0.162753 0)
(0.720095 -0.21153 3.27422e-22)
(0.2575 -0.112752 -6.45089e-21)
(0.11569 0.0822825 -7.97335e-21)
(0.813296 0.143215 0)
(0.838102 -0.494429 1.21417e-20)
(0.573283 0.105725 0)
(0.716149 -0.27393 -1.40315e-20)
(0.207198 -0.0388558 0)
(0.0189386 0.00812982 0)
(0.889796 -0.422065 -3.77893e-21)
(0.779115 0.287837 0)
(0.328172 0.204834 1.19627e-20)
(0.753507 -0.0230059 0)
(0.591577 -0.41585 0)
(0.807954 0.17493 -1.23099e-20)
(0.866756 -0.471459 0)
(0.087423 0.0532678 2.6513e-23)
(0.676046 0.0526834 -1.19465e-20)
(0.674549 -0.374705 -4.42397e-21)
(0.221242 0.088481 1.51034e-20)
(0.589713 0.20756 0)
(0.802575 -0.257864 -5.45845e-21)
(0.201321 -0.101424 -3.48106e-21)
(0.791726 -0.508906 1.56105e-20)
(0.808494 0.0915352 8.77727e-21)
(0.170765 0.127974 -6.28553e-21)
(0.753714 0.0643875 0)
(0.73641 -0.456075 6.28629e-21)
(0.208005 0.127207 2.26349e-22)
(0.0162318 0.0124239 8.03205e-21)
(0.867103 -0.430126 0)
(0.787818 0.278918 4.73713e-21)
(0.381866 0.179621 -1.55254e-20)
(0.470381 -0.295806 7.67462e-21)
(0.704359 -0.0750507 7.61124e-22)
(0.663722 0.333494 -4.40349e-21)
(0.00882244 -0.00211273 8.60779e-22)
(0.881682 -0.343061 0)
(0.332917 0.0033013 -3.43104e-21)
(0.5074 -0.0230112 1.26988e-20)
(0.477612 -0.165681 -1.65208e-20)
(0.659008 0.0833205 -4.92856e-21)
(0.657464 0.0588997 -5.84246e-23)
(0.706655 -0.357217 1.07953e-20)
(0.672081 -0.356034 1.06254e-20)
(0.218641 0.0711937 -1.19794e-20)
(0.194567 0.0520592 6.19169e-21)
(0.133364 -0.117731 1.45231e-20)
(0.665035 0.339886 -6.11664e-21)
(0.991103 -0.272637 0)
(0.565155 0.204664 0)
(0.786594 -0.232514 0)
(0.230622 -0.122079 1.38924e-20)
(0.768004 0.0844968 2.29028e-21)
(0.765173 -0.472582 0)
(0.185416 0.11653 0)
(0.688828 0.241278 -5.158e-21)
(0.896458 -0.336193 0)
(0.118611 -0.0488212 -6.56007e-21)
(0.423237 -0.0311473 -3.47111e-21)
(0.453043 -0.0792448 -5.0167e-21)
(0.400908 -0.0663218 1.73783e-21)
(0.707639 0.069924 7.88461e-21)
(0.71695 -0.409408 0)
(0.202712 0.0961917 1.04243e-20)
(0.564477 0.220677 0)
(0.803642 -0.226683 -6.79294e-21)
(0.234292 -0.137637 8.91702e-21)
(0.574645 0.127759 -1.45312e-20)
(0.597071 0.141773 1.16925e-20)
(0.384461 0.192754 1.22594e-20)
(0.477058 -0.312068 -2.22802e-20)
(0.719414 -0.0717934 1.67477e-20)
(0.715483 0.0900237 8.20737e-21)
(0.745221 -0.417371 -9.24997e-21)
(0.179362 0.0809453 -9.5119e-21)
(0.70693 0.245204 1.84723e-20)
(0.103885 -0.0362506 2.31336e-20)
(0.908841 -0.352818 5.35309e-21)
(0.346197 0.134452 5.39199e-21)
(0.493381 -0.287582 0)
(0.659301 -0.0496335 -5.88827e-21)
(0.255778 0.156302 1.22058e-20)
(0.739847 0.0280038 6.08964e-21)
(0.67284 -0.436974 0)
(0.616319 0.265166 1.79994e-21)
(0.88149 -0.254761 5.87464e-21)
(0.189428 -0.127545 -4.084e-21)
(0.357044 0.190725 -1.01184e-21)
(0.527336 -0.348387 0)
(0.724187 -0.0459031 -1.26613e-20)
(0.634786 0.279188 0)
(0.652278 0.277574 0)
(0.906898 -0.267325 3.74258e-21)
(0.173512 -0.120004 1.06427e-20)
(0.914689 -0.288585 -5.29264e-21)
(0.152329 -0.0990462 -1.12964e-20)
(0.0453776 0.00819317 8.80497e-21)
(0.920375 -0.429202 0)
(0.790107 0.258078 6.21849e-21)
(0.615925 0.231627 0)
(0.844834 -0.272569 2.71914e-21)
(0.180756 -0.0993028 -3.63084e-21)
(0.768011 -0.365925 -6.13193e-21)
(0.00169809 0.00758917 -1.28198e-20)
(0.653954 0.307372 -1.09589e-20)
(0.559732 -0.0110162 1.7299e-20)
(0.304751 0.0411134 0)
(0.517599 -0.223287 6.13342e-21)
(0.641911 0.122503 -1.11397e-20)
(0.746572 -0.333312 0)
(0.17464 0.00971921 -2.03513e-20)
(0.0744643 -0.00161718 7.21005e-21)
(0.759029 0.235221 -1.73594e-20)
(0.912359 -0.406138 -7.50222e-21)
(0.608676 -0.404085 6.83152e-21)
(0.732369 -0.00907121 0)
(0.301551 0.179451 1.47635e-20)
(0.808814 -0.505945 1.87803e-20)
(0.810564 0.110261 5.44458e-21)
(0.148211 0.109553 0)
(0.670395 -0.250278 7.17817e-21)
(0.230343 -0.0344891 0)
(0.640992 0.162121 -1.22999e-20)
(0.784821 -0.318446 -4.995e-21)
(0.163564 -0.0290085 -6.22247e-21)
(0.659675 -0.26311 -2.53074e-22)
(0.227761 -0.0186437 -5.85284e-23)
(0.704275 0.322296 1.36279e-20)
(0.082225 -0.064447 -1.71144e-20)
(0.98545 -0.3236 5.0247e-21)
(0.547345 -0.409421 -6.88734e-21)
(0.781754 -0.0487641 -1.30847e-21)
(0.375911 0.241726 0)
(0.660994 0.174844 1.25294e-20)
(0.814744 -0.333674 6.093e-21)
(0.148134 -0.0208103 1.51976e-20)
(0.613352 0.0641518 0)
(0.651363 -0.310671 4.31042e-21)
(0.225045 0.0378736 0)
(0.674365 -0.00746376 5.90071e-21)
(0.576009 -0.343722 0)
(0.296179 0.131205 0)
(0.486286 0.0798937 4.66587e-21)
(0.607393 -0.18307 7.93341e-21)
(0.286794 -0.0757679 -1.08942e-23)
(0.278628 0.171751 -1.51395e-20)
(0.741808 0.0114049 -1.49038e-20)
(0.648538 -0.427895 -1.84393e-20)
(0.795473 0.220125 7.5576e-21)
(0.900514 -0.441831 -8.3089e-21)
(0.0643799 0.0223184 -1.70664e-22)
(0.816994 -0.490698 -1.27308e-20)
(0.799591 0.120193 -5.51762e-21)
(0.13846 0.0958714 -7.96398e-21)
(0.515377 0.291538 1.13418e-20)
(0.346578 -0.270879 -5.87505e-21)
(0.85073 -0.148377 0)
(0.649319 0.312998 -3.31897e-21)
(0.635261 0.302379 2.99183e-21)
(0.930388 -0.256574 1.19019e-21)
(0.950862 -0.265005 -5.0639e-21)
(0.162252 -0.128362 3.89925e-21)
(0.179036 -0.138522 3.44219e-21)
(0.00358245 0.00536014 1.30193e-20)
(0.80534 -0.359318 6.75279e-21)
(0.661955 0.311377 -2.79421e-21)
(0.6726 0.335445 2.79805e-22)
(0.0134447 -0.00719534 0)
(0.910048 -0.342807 0)
(0.680468 0.0967684 1.79925e-20)
(0.738999 -0.374802 2.39403e-21)
(0.182719 0.0539167 0)
(0.0550644 0.0020508 2.1859e-20)
(0.777342 0.252919 -7.76642e-21)
(0.927299 -0.417808 0)
(0.57221 0.284577 -1.61956e-20)
(0.593292 0.288335 1.21498e-20)
(0.872045 -0.206518 -6.36122e-21)
(0.888792 -0.22322 -2.4099e-21)
(0.257804 -0.193684 6.76696e-21)
(0.228728 -0.170913 3.40206e-21)
(0.0494478 0.0458637 0)
(0.856993 -0.488457 0)
(0.849895 0.202013 -2.29902e-21)
(0.623931 0.334859 5.1718e-21)
(0.0059655 -0.000627783 -8.08025e-21)
(0.855067 -0.323522 0)
(0.504737 -0.0688249 1.49922e-23)
(0.382075 0.013294 -7.46424e-21)
(0.412406 -0.124789 -3.70315e-21)
(0.687812 0.318207 9.13382e-21)
(0.855812 -0.372528 -3.36688e-21)
(0.00657961 0.00329413 -1.61434e-20)
(0.4836 0.214238 -1.34745e-20)
(0.759433 -0.151148 1.0893e-20)
(0.338908 -0.22086 2.59228e-23)
(0.811034 0.24084 -7.52526e-23)
(0.902609 -0.452163 -1.15791e-20)
(0.0458038 0.0224704 4.49211e-21)
(0.674611 -0.375404 -1.91059e-22)
(0.000903973 0.00973903 1.47801e-20)
(0.646903 0.257281 4.2982e-21)
(0.372786 0.11872 7.17545e-21)
(0.436551 -0.227046 4.48567e-22)
(0.631651 -0.0760065 -1.86105e-20)
(0.517929 -0.0028921 0)
(0.513715 -0.189119 1.82744e-20)
(0.310897 0.00376227 -9.59962e-21)
(0.735568 0.319457 -1.38318e-20)
(0.0269447 -0.0120914 -1.01711e-20)
(0.947927 -0.381032 2.53431e-23)
(0.535432 0.00488235 0)
(0.527868 -0.20739 6.37241e-21)
(0.296213 0.0189524 1.35644e-20)
(0.484206 -0.0647835 -7.54081e-21)
(0.387954 -0.00462801 7.88246e-21)
(0.414954 -0.109008 -1.9515e-21)
(0.31404 0.210223 7.31466e-21)
(0.770469 -0.0100494 5.27677e-21)
(0.627345 -0.448916 -1.0163e-20)
(0.555857 -0.045546 0)
(0.460862 -0.189532 0)
(0.339229 0.0546581 -1.12432e-21)
(0.567699 -0.023609 -9.2309e-21)
(0.496862 -0.212558 -4.95708e-21)
(0.322152 0.0552986 -1.59612e-22)
(0.492302 0.281 -1.72089e-20)
(0.829723 -0.132686 8.39722e-21)
(0.379414 -0.296127 1.17211e-20)
(0.046907 -0.0218256 -1.53498e-20)
(0.0426917 -0.0148769 1.56113e-20)
(0.963516 -0.378217 -3.308e-21)
(0.952689 -0.390997 -2.3316e-21)
(0.743827 0.306757 -1.10056e-20)
(0.755084 0.297959 1.66456e-20)
(0.809249 0.22313 -9.28744e-21)
(0.898779 -0.450453 7.28899e-21)
(0.057306 0.0288657 0)
(0.332293 -0.275321 -7.59957e-21)
(0.531952 0.312152 -3.55528e-21)
(0.876605 -0.155185 0)
(0.400157 0.174682 0)
(0.435789 -0.267861 7.01903e-21)
(0.699416 -0.0904545 -5.79389e-21)
(0.772308 0.0496261 0)
(0.725996 -0.476803 -6.50466e-21)
(0.227266 0.152247 -2.34183e-22)
(0.741436 -0.425557 -3.54664e-21)
(0.00698976 0.0160202 0)
(0.76003 0.248703 1.10089e-20)
(0.083434 0.0693666 0)
(0.843946 0.170223 0)
(0.85604 -0.505796 -5.00473e-21)
(0.755198 0.302371 -4.69647e-21)
(0.0177704 0.00214078 0)
(0.907802 -0.405672 3.70858e-21)
(2.56861e-05 0.0087943 5.47115e-32)
(0.634486 -0.351605 2.70612e-21)
(0.597159 0.250661 -4.36654e-21)
(0.667215 -0.307424 -3.01729e-21)
(-0.00051936 0.00780625 -5.45835e-32)
(0.562238 0.289684 3.88617e-21)
(0.802118 -0.412617 1.25095e-20)
(0.72525 0.132855 0)
(0.145575 0.0493904 2.03498e-20)
(0.822389 -0.470111 2.02272e-21)
(0.0272671 0.0321618 0)
(0.843206 0.224025 0)
(0.736289 0.212278 8.1795e-21)
(0.88483 -0.394885 -6.78887e-21)
(0.0981184 2.96465e-06 -1.05721e-20)
(0.687458 0.350059 -1.40661e-20)
(0.0542266 -0.0507621 -6.17219e-21)
(1.0029 -0.314865 0)
(0.531504 0.0947681 -3.59091e-21)
(0.246786 -0.0485997 3.88044e-21)
(0.656395 -0.229566 -3.46181e-21)
(0.859512 -0.495612 0)
(0.059408 0.0534447 -7.49174e-21)
(0.849874 0.192441 -2.53903e-21)
(0.765832 0.0373498 6.06327e-21)
(0.245651 0.164177 4.16172e-21)
(0.70371 -0.466378 0)
(0.778206 -0.464492 0)
(0.762237 0.099011 0)
(0.16748 0.101045 -7.4175e-21)
(-0.000440532 0.0052606 0)
(0.385875 -0.189426 1.93167e-21)
(0.350088 0.162145 -3.12665e-21)
(0.758523 -0.386603 -3.25568e-21)
(0.00228839 0.00913581 8.9323e-21)
(0.679691 0.292932 4.61438e-21)
(0.512465 0.0772932 9.30012e-21)
(0.265691 -0.051204 -9.15615e-21)
(0.62117 -0.210802 -4.0294e-21)
(0.874951 -0.467822 -9.97729e-21)
(0.83384 0.226388 5.04508e-21)
(0.0410079 0.0333009 0)
(0.0444658 0.0464847 7.84789e-21)
(0.858779 0.203094 0)
(0.83912 -0.491447 7.51173e-21)
(0.761759 0.270042 5.65487e-21)
(0.0562676 -0.0104072 -2.34059e-20)
(0.940028 -0.397512 -9.71836e-21)
(0.111235 -0.0882181 1.75671e-20)
(0.978399 -0.30113 -5.56245e-21)
(0.684848 0.321579 0)
(0.47635 0.290127 2.16372e-20)
(0.832038 -0.118857 -1.07009e-20)
(0.415639 -0.329187 1.11201e-20)
(0.920468 -0.236324 -1.7841e-21)
(0.61317 0.308689 -7.05858e-21)
(0.210977 -0.167798 1.06813e-20)
(0.0982047 -0.0899747 1.5764e-20)
(0.680548 0.345265 0)
(1.00557 -0.29419 3.85564e-21)
(0.51165 0.200116 3.39474e-21)
(0.537083 0.217989 0)
(0.754644 -0.182507 1.13299e-20)
(0.787479 -0.199732 -1.21166e-20)
(0.290679 -0.168126 -7.25362e-21)
(0.268039 -0.163805 0)
(0.487347 0.198421 3.32929e-21)
(0.743414 -0.16064 0)
(0.323219 -0.194652 -3.45712e-21)
(0.560192 0.296226 0)
(0.875689 -0.192939 1.02828e-20)
(0.277918 -0.217064 -2.4411e-21)
(0.805574 -0.47615 6.36432e-21)
(0.782785 0.114643 -5.71726e-21)
(0.145997 0.0910183 1.6358e-20)
(0.886433 -0.470889 0)
(0.819513 0.214914 -1.53867e-21)
(0.0566533 0.036991 0)
(0.120119 0.0662812 5.26113e-21)
(0.782497 0.145024 3.68794e-21)
(0.836287 -0.464756 4.12833e-21)
(0.715339 -0.313812 4.00565e-22)
(0.000164217 0.00713879 -8.23141e-24)
(0.585398 0.303757 0)
(0.419481 0.124676 -6.47191e-21)
(0.431811 0.114358 0)
(0.369538 -0.179111 1.65768e-21)
(0.640911 -0.117704 -2.25417e-20)
(0.350797 -0.156878 -2.09824e-21)
(0.631317 -0.131903 1.43631e-20)
(0.524939 0.268949 0)
(0.497579 0.250536 2.20543e-21)
(0.342781 -0.243479 -1.57456e-23)
(0.831645 -0.169516 -6.55592e-21)
(0.31621 -0.229161 -1.77683e-20)
(0.801291 -0.152461 1.39443e-20)
(0.658912 -0.390768 0)
(0.00186528 0.0112264 -1.61385e-20)
(0.679873 0.244421 0)
(0.883764 -0.463473 6.02537e-21)
(0.82662 0.226073 -1.55768e-21)
(0.0447398 0.0296077 -4.7159e-21)
(0.408276 0.210441 4.05726e-21)
(0.460596 -0.314461 8.00871e-21)
(0.741111 -0.0856317 -1.88705e-20)
(0.771713 -0.494683 -1.39342e-20)
(0.791278 0.0793379 -1.46889e-20)
(0.186406 0.13243 0)
(0.12619 -0.10253 -1.87874e-20)
(0.973429 -0.29035 5.9172e-21)
(0.674473 0.321589 0)
(0.828802 -0.412122 0)
(0.747386 0.290642 0)
(0.00769349 0.0101701 0)
(0.838863 -0.426043 0)
(0.772725 0.279501 -8.20817e-21)
(0.0112388 0.0134716 0)
(0.597654 0.272275 6.72433e-21)
(0.87493 -0.236876 -3.6419e-21)
(0.215336 -0.151238 -5.03533e-21)
(0.33251 0.118409 1.88721e-21)
(0.504343 -0.277276 0)
(0.640362 -0.0372594 -6.26833e-21)
(0.764164 0.280668 -6.58858e-21)
(0.0481962 -0.00953074 -1.36371e-20)
(0.94677 -0.39823 1.4037e-20)
(0.809973 -0.433324 0)
(0.745048 0.134783 0)
(0.138994 0.0617332 -1.75539e-20)
(0.0917967 -0.0391479 -4.4218e-21)
(0.930563 -0.356934 -9.11991e-21)
(0.716875 0.266013 -1.73662e-20)
(0.478699 0.247161 -2.24666e-21)
(0.371476 -0.26557 1.18337e-20)
(0.790266 -0.137921 -7.1647e-21)
(0.675399 0.0335718 1.15949e-20)
(0.644044 -0.364554 -6.598e-21)
(0.247221 0.104643 -1.47567e-20)
(0.382492 0.149938 -1.05578e-22)
(0.445071 -0.26017 2.30543e-21)
(0.671587 -0.0807094 7.5895e-21)
(0.0415464 0.00134842 5.32132e-21)
(0.932168 -0.416777 -6.32598e-21)
(0.77987 0.273003 -7.34042e-21)
(0.679931 0.261015 3.18682e-21)
(0.912705 -0.321218 2.77228e-21)
(0.125148 -0.0662011 0)
(0.384363 0.108961 7.01786e-21)
(0.413359 -0.201242 -1.45408e-20)
(0.620159 -0.0876837 1.22766e-20)
(0.681099 0.351804 -5.49993e-21)
(0.082873 -0.0791524 -7.00538e-21)
(1.01241 -0.298544 -1.08383e-22)
(0.481266 0.159193 4.11476e-21)
(0.697011 -0.169598 0)
(0.304823 -0.155972 0)
(0.57108 0.0356285 1.66193e-20)
(0.588694 -0.25754 -3.93588e-21)
(0.259998 0.0272177 0)
(0.774603 -0.439538 0)
(0.741364 0.100567 -1.17311e-20)
(0.166079 0.0872142 7.76687e-21)
(0.682881 0.342596 0)
(0.0250162 -0.020663 2.16946e-21)
(0.960424 -0.337213 -3.81145e-21)
(0.677021 0.34909 -5.6901e-21)
(0.0320666 -0.0295496 -6.92111e-21)
(0.977733 -0.324208 3.87472e-21)
(0.0944401 -0.0509113 -4.03333e-21)
(0.94289 -0.344204 5.30884e-21)
(0.709665 0.279403 1.59406e-20)
(0.699187 0.0220301 5.39436e-21)
(0.648348 -0.391296 1.32625e-20)
(0.259237 0.12757 0)
(0.0170685 -0.0133651 -1.98727e-21)
(0.932883 -0.33061 3.56547e-21)
(0.65671 0.34255 0)
(0.0850747 0.00585623 0)
(0.89667 -0.409184 5.50254e-21)
(0.755021 0.21856 1.98396e-21)
(-5.29908e-05 0.0077605 -8.04776e-21)
(0.539628 -0.327203 -3.17667e-21)
(0.53955 0.209841 0)
(0.479317 0.273318 4.43594e-21)
(0.596826 -0.254475 0)
(-0.00106521 0.00742401 -8.04608e-21)
(0.0970201 -0.0816828 2.29484e-24)
(0.99367 -0.306109 6.70871e-22)
(0.688636 0.333794 0)
(0.0265572 0.00846738 0)
(0.907732 -0.427203 0)
(0.78951 0.276981 -9.74574e-21)
(0.733951 0.303555 5.82347e-21)
(0.731363 0.293596 -4.71097e-21)
(0.0592826 -0.0345032 7.70124e-21)
(0.970932 -0.361513 1.10427e-21)
(0.0674801 -0.0365071 0)
(0.960861 -0.362059 0)
(0.764319 0.203862 -3.80904e-21)
(0.88497 -0.423547 -3.68114e-21)
(0.0874949 0.0183367 0)
(0.214269 0.156134 0)
(0.745534 -0.499512 0)
(0.792919 0.0592769 0)
(0.437357 0.0831381 -8.62449e-21)
(0.338293 -0.122681 2.00654e-20)
(0.596384 -0.137335 -7.90323e-21)
(0.766405 0.167903 -1.07886e-20)
(0.851984 -0.441566 -1.39562e-21)
(0.107055 0.0432606 -1.55078e-20)
(0.120068 0.055287 -1.01038e-20)
(0.765953 0.152921 1.5003e-20)
(0.836201 -0.447686 1.93544e-21)
(0.666538 0.352369 -6.20997e-21)
(0.119793 -0.112346 -7.53921e-21)
(1.00703 -0.274602 0)
(0.531206 0.282877 0)
(0.84927 -0.169915 -3.06141e-21)
(0.313882 -0.238367 1.7417e-20)
(0.502724 0.231147 0)
(0.78417 -0.161582 -1.43029e-20)
(0.324991 -0.220922 -9.70315e-24)
(0.709705 0.159093 1.40058e-20)
(0.822519 -0.391748 -1.72597e-21)
(0.131741 0.0198335 8.81341e-21)
(0.725637 0.154769 0)
(0.824082 -0.407522 -1.63063e-21)
(0.129389 0.0320465 -8.11608e-21)
(0.374022 0.0874301 0)
(0.421256 -0.189304 2.29365e-20)
(0.593211 -0.0784548 0)
(0.540548 0.232262 0)
(0.802469 -0.198442 7.94077e-21)
(0.268514 -0.177058 -2.62682e-21)
(0.0690268 0.0647582 1.62315e-20)
(0.847411 -0.507073 1.12352e-20)
(0.859128 0.178715 0)
(0.791339 0.263097 1.79483e-22)
(0.012013 0.017324 -4.9594e-21)
(0.80875 -0.438161 -2.58879e-21)
(0.788133 0.249085 1.06885e-22)
(0.0105509 0.0184699 0)
(0.777019 -0.437527 7.37262e-21)
(0.437714 0.174493 -4.87722e-21)
(0.376275 -0.219156 2.51858e-21)
(0.70146 -0.124758 1.56364e-22)
(0.781578 -0.402925 -1.93172e-22)
(0.00476122 0.0110029 -2.0494e-20)
(0.728616 0.282634 0)
(0.691917 0.27939 -1.37219e-20)
(0.11216 -0.0654036 0)
(0.935898 -0.325667 0)
(0.00445499 0.0131529 8.12949e-21)
(0.737081 -0.413808 3.77201e-21)
(0.730677 0.259593 -8.54018e-21)
(0.490507 0.0192207 -1.14253e-20)
(0.311936 -0.0280798 -1.21809e-20)
(0.52998 -0.17026 -4.95067e-23)
(0.603419 0.163285 2.07375e-21)
(0.768319 -0.282465 1.84194e-21)
(0.189706 -0.054801 7.96527e-21)
(0.612785 -0.378689 -1.52188e-20)
(0.698285 0.00415419 -1.89942e-20)
(0.284128 0.141194 0)
(0.033013 0.0344265 0)
(0.841088 -0.473576 2.57265e-21)
(0.844596 0.222901 0)
(0.797695 -0.44481 0)
(0.751015 0.122216 0)
(0.147622 0.0739221 0)
(0.0666197 -0.0604577 0)
(0.693561 0.344947 5.16306e-21)
(1.00526 -0.314763 -3.77812e-21)
(0.628377 0.175681 0)
(0.793085 -0.303919 -9.27001e-22)
(0.170727 -0.0451338 1.47723e-23)
(0.432478 0.0671485 8.33254e-21)
(0.344671 -0.113406 -1.72232e-20)
(0.574667 -0.13116 0)
(0.867514 -0.463794 9.4334e-21)
(0.828469 0.239656 -4.79179e-21)
(0.0321036 0.027971 0)
(0.0795046 -0.014111 9.25995e-21)
(0.91764 -0.390605 -3.48637e-22)
(0.742695 0.246123 -1.77552e-22)
(0.715935 0.326276 0)
(0.709094 0.327635 -5.69386e-21)
(0.0217189 -0.0111065 -4.97816e-21)
(0.0163909 -0.00623451 6.15546e-21)
(0.94058 -0.36475 2.40244e-21)
(0.922503 -0.368039 -1.97571e-21)
(0.637218 0.0886831 0)
(0.697183 -0.336307 -1.25939e-20)
(0.199627 0.0349523 -9.68579e-21)
(0.775925 -0.396565 -1.7583e-20)
(0.706328 0.117934 0)
(0.15771 0.0521479 1.06978e-20)
(0.535709 0.0496846 9.41525e-21)
(0.592154 -0.22829 -6.674e-21)
(0.261013 -0.010365 -1.49407e-20)
(0.830988 -0.452601 -5.89234e-21)
(0.81412 0.252193 -6.32352e-21)
(0.815666 -0.460646 2.76953e-21)
(0.0178348 0.0211709 5.25323e-21)
(0.826028 0.237957 5.92487e-21)
(0.0202584 0.025179 0)
(0.677506 0.203035 0)
(0.849696 -0.344173 0)
(0.133286 -0.0294719 -9.94116e-21)
(0.815589 0.252498 -6.32446e-21)
(0.81058 0.257699 1.59275e-20)
(0.875385 -0.452195 -3.85357e-21)
(0.859638 -0.447214 9.87157e-21)
(0.0259693 0.0205973 -1.38273e-20)
(0.0201582 0.0186491 7.92286e-24)
(0.700323 0.103979 0)
(0.751422 -0.399044 1.64932e-20)
(0.175125 0.0671576 -1.38615e-20)
(0.594801 0.109779 -8.93643e-21)
(0.725693 -0.295055 1.11863e-20)
(0.19269 -0.020486 0)
(0.694453 0.345233 0)
(0.0427506 -0.0380149 -9.55406e-22)
(0.99016 -0.33023 -3.72232e-21)
(0.630851 0.105079 -6.57474e-21)
(0.714959 -0.325832 0)
(0.189941 0.0187686 1.60466e-20)
(0.554749 0.0696887 -3.83388e-21)
(0.631171 -0.254207 7.83306e-21)
(0.24035 -0.00996624 -8.7562e-21)
(0.702079 0.333603 0)
(0.0267347 -0.0184557 0)
(0.960353 -0.352915 5.15669e-21)
(0.626493 0.194452 0)
(0.81787 -0.294688 -1.92799e-21)
(0.166378 -0.0613961 9.85468e-21)
(0.688968 -0.475299 0)
(0.777572 0.0244804 0)
(0.265631 0.185004 5.37527e-22)
(0.474763 0.259418 5.52125e-22)
(0.801529 -0.127956 0)
(0.387348 -0.287548 -9.15407e-21)
(0.821461 -0.517795 -7.3034e-21)
(0.131321 0.106647 0)
(0.830995 0.122627 0)
(-0.000580401 0.00681922 1.9347e-20)
(0.507414 -0.252199 -2.70541e-21)
(0.456312 0.211907 4.3788e-21)
(0.629034 0.138189 0)
(0.750825 -0.313622 -6.86521e-21)
(0.177147 -0.0140608 0)
(0.719566 0.326842 -9.65435e-21)
(0.047544 -0.0345218 -2.6016e-20)
(0.982672 -0.347778 8.01163e-21)
(0.482381 -0.370655 0)
(0.804849 -0.0843602 7.12148e-21)
(0.425494 0.266803 0)
(0.564203 0.315651 0)
(0.000778414 0.00554393 4.80185e-21)
(0.755438 -0.301653 0)
(0.299461 0.0797623 -9.35504e-21)
(0.302975 0.100351 9.57565e-21)
(0.530597 -0.266934 0)
(0.605846 -0.0128791 -7.93918e-21)
(0.541747 -0.291102 1.45801e-20)
(0.630772 -0.0170497 6.3534e-21)
(0.543528 0.0306087 -8.85786e-21)
(0.566994 -0.226308 -8.94342e-21)
(0.273397 0.00914507 0)
(0.347659 0.107647 -8.26836e-21)
(0.325987 0.0879483 0)
(0.470129 -0.243371 0)
(0.622499 -0.0548472 0)
(0.488403 -0.240545 8.29193e-21)
(0.602649 -0.0370039 -5.42849e-23)
(0.609835 0.129457 -5.6832e-22)
(0.693991 -0.289541 4.90898e-21)
(0.206919 -0.00835756 1.08103e-20)
(0.603645 0.0983642 1.53764e-20)
(0.691037 -0.299999 0)
(0.207097 0.00654038 0)
(0.0150257 0.0230932 0)
(0.776853 -0.453863 0)
(0.81404 0.235354 -6.32625e-21)
(0.46404 0.178899 1.34305e-20)
(0.713802 -0.144666 0)
(0.341877 -0.195981 -4.67958e-21)
(0.803478 0.260415 1.29788e-20)
(0.898753 -0.443107 -4.63376e-21)
(0.0293497 0.0151612 7.88881e-21)
(0.712698 0.181092 0)
(0.730466 0.192652 -7.87617e-21)
(0.846488 -0.384949 2.15177e-21)
(0.865431 -0.396335 -6.70241e-21)
(0.118891 0.00719539 1.0975e-20)
(0.106946 0.00900476 1.02053e-20)
(0.462261 0.158887 0)
(0.691198 -0.150878 0)
(0.331916 -0.175909 -2.20621e-21)
(0.559927 0.265385 -5.37306e-21)
(0.845379 -0.201957 0)
(0.265532 -0.188578 -5.82488e-21)
(0.6742 0.168801 4.02895e-21)
(0.812269 -0.354251 0)
(0.140934 -0.00544262 -1.00309e-20)
(0.403345 0.0281905 -9.04469e-21)
(0.523793 -0.095581 -4.33386e-21)
(0.381472 -0.114072 -4.60995e-21)
(0.747312 0.172462 0)
(0.850187 -0.421865 0)
(0.11125 0.0318296 1.64846e-20)
(0.416086 0.0894099 0)
(0.364019 -0.148458 -2.53766e-21)
(0.599276 -0.117793 0)
(0.686992 0.119338 8.88726e-21)
(0.76313 -0.3815 9.14001e-21)
(0.165933 0.0395187 1.38507e-21)
(0.563478 0.248105 -5.43655e-21)
(0.831392 -0.213201 -9.04771e-21)
(0.249201 -0.168896 0)
(0.403562 0.0496028 8.96364e-21)
(0.386313 0.0543883 4.02742e-21)
(0.548765 -0.103218 -4.21983e-21)
(0.377156 -0.127972 9.13338e-21)
(0.555407 -0.0894472 0)
(0.397697 -0.149425 1.62512e-20)
(0.351508 0.0728732 4.09009e-21)
(0.445668 -0.200463 -1.06844e-20)
(0.332971 0.0762317 -2.63416e-21)
(0.579676 -0.0590707 0)
(0.482804 -0.227601 -5.28016e-21)
(0.589628 -0.0405403 9.09161e-21)
(0.509303 0.182117 -4.8733e-21)
(0.536252 0.18498 0)
(0.734389 -0.188696 -8.45915e-21)
(0.750465 -0.211208 6.60684e-21)
(0.28102 -0.149498 2.09786e-20)
(0.25342 -0.126597 -1.74545e-20)
(0.105014 -0.0756154 0)
(0.964723 -0.315824 3.23781e-21)
(0.69225 0.305808 8.26544e-21)
(0.286086 0.189053 -1.81088e-20)
(0.763528 0.00875505 -8.32018e-21)
(0.65756 -0.452419 1.59463e-20)
(0.0878481 -0.0618828 8.77235e-21)
(0.0820173 -0.050458 0)
(0.9707 -0.331976 -2.80053e-21)
(0.959472 -0.346549 -4.85318e-21)
(0.705707 0.309435 -2.11517e-20)
(0.71667 0.295595 1.10088e-20)
(0.366001 0.210182 0)
(0.531266 -0.365961 8.71791e-21)
(0.744362 -0.0509021 -1.81087e-21)
(0.418369 -0.0100268 -1.89423e-20)
(0.387496 -0.0783926 0)
(0.478133 -0.089505 1.48669e-20)
(0.748359 0.189471 3.77734e-21)
(0.867301 -0.416147 7.56778e-21)
(0.101494 0.0209551 0)
(0.433444 0.141797 0)
(0.359331 -0.190098 2.10192e-21)
(0.664901 -0.127038 7.30341e-21)
(0.579696 0.251637 0)
(0.844126 -0.226809 0)
(0.229946 -0.15313 1.39706e-21)
(0.665068 0.307159 0)
(0.66822 0.293073 0)
(0.953012 -0.287803 -1.77342e-21)
(0.140448 -0.106212 1.07105e-20)
(0.939943 -0.295812 4.83162e-21)
(0.136198 -0.0946808 -1.44889e-20)
(0.698016 0.203667 -7.64814e-21)
(0.862994 -0.360894 -7.08055e-21)
(0.118764 -0.01676 -4.77733e-21)
(0.615042 0.320321 -7.00705e-21)
(0.80571 -0.327154 0)
(0.00312452 0.00370747 5.89987e-21)
(0.505375 -0.376481 0)
(0.784185 -0.0707113 -5.801e-21)
(0.402828 0.247689 0)
(0.44781 0.270532 -5.58491e-21)
(0.437656 0.253441 6.01059e-21)
(0.44601 -0.340641 5.69361e-21)
(0.808654 -0.100877 0)
(0.448606 -0.330027 0)
(0.78863 -0.0993201 0)