/*--------------------------------*- C++ -*----------------------------------*\
  =========                 |
  \\      /  F ield         | OpenFOAM: The Open Source CFD Toolbox
   \\    /   O peration     | Website:  https://openfoam.org
    \\  /    A nd           | Version:  6
     \\/     M anipulation  |
\*---------------------------------------------------------------------------*/
FoamFile
{
    version     2.0;
    format      ascii;
    class       volScalarField;
    location    "0";
    object      p;
}
// * * * * * * * * * * * * * * * * * * * * * * * * * * * * * * * * * * * * * //

dimensions      [0 2 -2 0 0 0 0];

internalField   nonuniform List<scalar> 
9000
(
115.529
64.1888
49.9544
43.9395
40.8089
39.0183
37.8597
37.0214
36.3577
35.7925
35.2833
34.8053
34.3434
33.8887
33.4358
32.9819
32.5252
32.0653
31.6018
31.135
30.6654
30.1933
29.7192
29.2435
28.7668
28.2893
27.8114
27.3336
26.856
26.3791
25.903
25.4283
24.9552
24.4842
24.0158
23.5505
23.0892
22.6326
22.1819
21.7386
21.3048
20.8833
20.478
20.0949
19.7425
19.4321
19.1692
18.9248
18.9222
17.8761
87.0123
60.9359
50.5912
45.0377
41.7752
39.7505
38.3932
37.4074
36.6374
35.9956
35.4309
34.9123
34.4207
33.9443
33.4756
33.01
32.545
32.0789
31.6112
31.1414
30.6697
30.1961
29.7211
29.2449
28.7677
28.29
27.8121
27.3341
26.8565
26.3794
25.9032
25.4282
24.9547
24.4831
24.0137
23.5472
23.084
22.6249
22.1707
21.7225
21.2817
20.8499
20.4292
20.0222
19.6311
19.2557
18.8843
18.4689
17.996
16.4911
69.7428
57.29
50.462
45.6238
42.4497
40.3313
38.8503
37.7558
36.8994
36.1913
35.5764
35.0199
34.5
34.0023
33.5177
33.0404
32.5666
32.0943
31.6219
31.1489
30.6748
30.1997
29.7235
29.2465
28.7689
28.2909
27.8127
27.3346
26.8568
26.3795
25.903
25.4276
24.9535
24.4811
24.0106
23.5425
23.0772
22.6151
22.1568
21.7028
21.2538
20.8104
20.3725
19.9395
19.5079
19.0678
18.5936
18.0175
17.2611
15.8521
60.4061
53.7834
49.2765
45.4049
42.6033
40.5893
39.1088
37.9806
37.0834
36.3372
35.6899
35.1072
34.5663
34.0522
33.5549
33.068
32.5869
32.109
31.6326
31.1565
30.6802
30.2035
29.7262
29.2484
28.7703
28.2918
27.8133
27.3349
26.8568
26.3792
25.9024
25.4265
24.9517
24.4784
24.0067
23.5368
23.0692
22.604
22.1415
21.6818
21.2248
20.7701
20.3164
19.8604
19.3954
18.9072
18.367
17.7126
16.8727
15.6355
54.2246
50.6658
47.7305
44.778
42.4334
40.6201
39.2156
38.1058
37.2023
36.4406
35.7758
35.1764
34.6211
34.0949
33.5878
33.093
32.6058
32.1231
31.643
31.1642
30.6858
30.2076
29.7291
29.2505
28.7717
28.2928
27.8139
27.3351
26.8567
26.3787
25.9014
25.4249
24.9494
24.475
24.0019
23.5304
23.0604
22.5921
22.1253
21.66
21.1954
20.7303
20.2624
19.787
19.2959
18.7742
18.1955
17.5116
16.6699
15.5819
49.7856
48.0195
46.1713
43.9819
42.0774
40.4976
39.2087
38.1507
37.2659
36.5065
35.8364
35.2289
34.6647
34.1304
33.6161
33.1152
32.623
32.1363
31.653
31.1717
30.6914
30.2117
29.7321
29.2527
28.7732
28.2937
27.8143
27.3352
26.8563
26.3779
25.9001
25.4229
24.9466
24.4711
23.9967
23.5233
23.051
22.5796
22.1088
21.6382
21.1666
20.6923
20.2123
19.7215
19.2112
18.6678
18.0692
17.3811
16.5687
15.6048
46.5696
45.8328
44.7194
43.1301
41.6153
40.2704
39.1156
38.1302
37.2817
36.5384
35.8733
35.265
34.6973
34.1584
33.6395
33.1343
32.6383
32.1484
31.6624
31.1789
30.6969
30.2158
29.7352
29.2548
28.7746
28.2946
27.8148
27.3352
26.8559
26.3769
25.8985
25.4207
24.9435
24.4669
23.9911
23.516
23.0414
22.567
22.0925
21.6171
21.1394
20.6573
20.1677
19.6653
19.1421
18.5864
17.9811
17.3033
16.5326
15.6706
44.2025
44.0438
43.4186
42.2882
41.1034
39.978
38.9614
38.0591
37.2585
36.5413
35.889
35.286
34.7194
34.1792
33.658
33.1501
32.6514
32.159
31.6709
31.1856
30.7021
30.2197
29.7381
29.2569
28.7761
28.2955
27.8151
27.335
26.8552
26.3758
25.8968
25.4182
24.9401
24.4625
23.9853
23.5085
23.0318
22.5548
22.077
21.5973
21.1145
20.6262
20.1293
19.619
19.0882
18.5275
17.9244
17.2647
16.5383
15.7589
42.4203
42.5825
42.2804
41.4949
40.5814
39.6517
38.7678
37.9518
37.2053
36.5206
35.8871
35.294
34.7321
34.1934
33.6718
33.1626
32.6623
32.1683
31.6785
31.1917
30.7069
30.2234
29.7409
29.2589
28.7774
28.2962
27.8153
27.3347
26.8544
26.3745
25.8948
25.4156
24.9366
24.458
23.9796
23.5012
23.0225
22.5432
22.0625
21.5794
21.0924
20.5995
20.0976
19.5824
19.0482
18.4877
17.8924
17.2543
16.57
15.8568
41.0508
41.3877
41.2995
40.7706
40.0754
39.3146
38.553
37.8213
37.1308
36.4822
35.871
35.2913
34.7367
34.2016
33.6814
33.1722
32.6712
32.1761
31.6851
31.1972
30.7113
30.2269
29.7435
29.2608
28.7786
28.2969
27.8155
27.3344
26.8536
26.3731
25.8928
25.4129
24.9331
24.4535
23.9739
23.4941
23.0137
22.5324
22.0493
21.5634
21.0734
20.5772
20.0722
19.5547
19.0204
18.4637
17.8794
17.2637
16.6172
15.9572
39.9808
40.4092
40.4626
40.1234
39.6017
38.9837
38.3309
37.6781
37.0427
36.4313
35.8445
35.2801
34.7347
34.2049
33.6873
33.1791
32.6781
32.1825
31.6908
31.202
30.7152
30.23
29.7458
29.2625
28.7797
28.2974
27.8155
27.3339
26.8526
26.3716
25.8907
25.4101
24.9296
24.4491
23.9684
23.4874
23.0056
22.5226
22.0376
21.5497
21.0575
20.5594
20.0529
19.5352
19.003
18.4525
17.8807
17.2866
16.6732
16.056
39.1339
39.607
39.7544
39.555
39.17
38.6704
38.1123
37.5312
36.9478
36.3729
35.8108
35.2628
34.7278
34.2042
33.6901
33.1837
32.6834
32.1877
31.6955
31.2061
30.7187
30.2327
29.7479
29.264
28.7806
28.2978
27.8154
27.3334
26.8516
26.37
25.8886
25.4074
24.9262
24.4449
23.9633
23.4812
22.9982
22.5139
22.0275
21.5382
21.0447
20.5456
20.039
19.5227
18.9942
18.4513
17.8925
17.3185
16.7336
16.151
38.458
38.9501
39.16
39.0636
38.7852
38.3826
37.9053
37.3876
36.8518
36.3112
35.7733
35.2416
34.7174
34.2006
33.6906
33.1865
32.6871
32.1917
31.6994
31.2096
30.7216
30.2351
29.7497
29.2652
28.7814
28.2981
27.8152
27.3327
26.8504
26.3684
25.8865
25.4047
24.9228
24.4408
23.9585
23.4755
22.9916
22.5063
22.0189
21.5288
21.0347
20.5356
20.03
19.5161
18.9924
18.4577
17.9116
17.356
16.7954
16.241
37.9171
38.4147
38.6662
38.6454
38.4497
38.1255
37.7158
37.2529
36.7592
36.25
35.7346
35.2186
34.705
34.1951
33.6894
33.1877
32.6897
32.1948
31.7025
31.2124
30.7241
30.2371
29.7512
29.2663
28.782
28.2982
27.8149
27.332
26.8493
26.3668
25.8844
25.4021
24.9196
24.437
23.954
23.4704
22.9858
22.4998
22.0119
21.5213
21.0273
20.5289
20.0249
19.5143
18.996
18.4697
17.9357
17.3965
16.8565
16.3252
37.4862
37.9824
38.2617
38.2962
38.1641
37.9023
37.5481
37.1312
36.674
36.1924
35.6972
35.1956
34.6919
34.1886
33.6871
33.1879
32.6913
32.197
31.7049
31.2147
30.7261
30.2387
29.7524
29.267
28.7823
28.2982
27.8145
27.3311
26.848
26.3651
25.8823
25.3995
24.9166
24.4335
23.95
23.4658
22.9807
22.4943
22.0062
21.5157
21.0222
20.525
20.0233
19.5163
19.0037
18.4856
17.9629
17.4382
16.9158
16.4034
37.1475
37.6396
37.9374
38.0121
37.928
37.7149
37.4051
37.0258
36.599
36.1408
35.6631
35.1741
34.6792
34.1819
33.6842
33.1874
32.6921
32.1986
31.7067
31.2165
30.7276
30.24
29.7533
29.2676
28.7825
28.298
27.8139
27.3302
26.8467
26.3635
25.8803
25.3971
24.9138
24.4302
23.9463
23.4617
22.9763
22.4898
22.0016
21.5115
21.0189
20.5233
20.0242
19.5212
19.0143
18.504
17.9915
17.4796
16.9721
16.4754
36.8887
37.3761
37.686
37.7894
37.7407
37.5644
37.2888
36.9391
36.5365
36.0973
35.6339
35.1554
34.6679
34.1756
33.6813
33.1866
32.6925
32.1996
31.708
31.2177
30.7287
30.2408
29.7539
29.2679
28.7825
28.2976
27.8132
27.3292
26.8454
26.3618
25.8782
25.3947
24.911
24.4272
23.9429
23.4581
22.9726
22.486
21.9982
21.5087
21.0172
20.5234
20.0271
19.5281
19.0267
18.5237
18.0205
17.5197
17.0248
16.5412
36.7012
37.1843
37.502
37.625
37.6012
37.4512
37.2006
36.8728
36.4882
36.0634
35.6109
35.1404
34.6587
34.1704
33.6787
33.1857
32.6926
32.2002
31.7088
31.2185
30.7294
30.2413
29.7542
29.2679
28.7822
28.2971
27.8124
27.3281
26.844
26.3601
25.8763
25.3924
24.9085
24.4243
23.9398
23.4549
22.9693
22.4829
21.9955
21.5068
21.0167
20.5249
20.0314
19.5363
19.0402
18.5438
18.0489
17.5577
17.0735
16.6008
36.5791
37.0592
37.3815
37.5167
37.5087
37.3757
37.1413
36.8279
36.4554
36.0401
35.5951
35.13
34.6522
34.1666
33.6767
33.1849
32.6925
32.2005
31.7092
31.2189
30.7297
30.2415
29.7542
29.2676
28.7818
28.2964
27.8115
27.3269
26.8426
26.3584
25.8743
25.3902
24.906
24.4216
23.937
23.452
22.9665
22.4804
21.9935
21.5057
21.0169
20.5271
20.0364
19.5451
19.0538
18.5635
18.0759
17.593
17.1179
16.6542
36.5189
36.9974
37.3219
37.4629
37.4626
37.338
37.1116
36.8053
36.4388
36.0283
35.587
35.1247
34.6488
34.1646
33.6757
33.1844
32.6923
32.2005
31.7092
31.219
30.7297
30.2413
29.7539
29.2672
28.7811
28.2956
27.8104
27.3257
26.8411
26.3567
25.8723
25.388
24.9036
24.4191
23.9344
23.4494
22.964
22.4782
21.9919
21.505
21.0176
20.5298
20.0417
19.5539
19.067
18.5822
18.1009
17.6252
17.1576
16.7015
36.5189
36.9974
37.3218
37.4629
37.4626
37.338
37.1116
36.8053
36.4388
36.0283
35.5869
35.1246
34.6487
34.1645
33.6755
33.1842
32.6921
32.2002
31.709
31.2186
30.7292
30.2408
29.7532
29.2664
28.7802
28.2945
27.8093
27.3243
26.8395
26.3549
25.8704
25.3859
24.9013
24.4166
23.9318
23.4469
22.9616
22.4762
21.9905
21.5045
21.0185
20.5325
20.0469
19.5623
19.0794
18.5993
18.1235
17.6538
17.1927
16.7428
36.579
37.0591
37.3815
37.5167
37.5087
37.3757
37.1413
36.8279
36.4553
36.04
35.595
35.1299
34.652
34.1663
33.6764
33.1844
32.6919
32.1997
31.7083
31.2179
30.7284
30.2399
29.7523
29.2654
28.7791
28.2934
27.808
27.3228
26.8379
26.3531
25.8684
25.3837
24.899
24.4142
23.9294
23.4444
22.9594
22.4743
21.9891
21.504
21.0192
20.535
20.0516
19.5698
19.0904
18.6144
18.1433
17.6788
17.2229
16.7782
36.701
37.1842
37.5019
37.6249
37.6011
37.4512
37.2005
36.8727
36.4881
36.0632
35.6107
35.1402
34.6583
34.1699
33.6781
33.1849
32.6917
32.199
31.7073
31.2168
30.7273
30.2388
29.7511
29.2642
28.7779
28.292
27.8065
27.3213
26.8362
26.3513
25.8664
25.3816
24.8967
24.4118
23.9269
23.442
22.9571
22.4723
21.9876
21.5033
21.0196
20.5368
20.0555
19.5761
19.0996
18.6271
18.16
17.6997
17.2483
16.8077
36.8885
37.3759
37.6859
37.7893
37.7406
37.5643
37.2886
36.939
36.5363
36.097
35.6336
35.155
34.6674
34.1749
33.6804
33.1855
32.6912
32.198
31.706
31.2153
30.7257
30.2372
29.7496
29.2627
28.7764
28.2906
27.805
27.3197
26.8345
26.3494
25.8644
25.3794
24.8944
24.4094
23.9244
23.4395
22.9547
22.4701
21.9859
21.5022
21.0194
20.5379
20.0582
19.5809
19.1069
18.6373
18.1734
17.7166
17.2687
16.8316
37.1472
37.6394
37.9372
38.012
37.9279
37.7148
37.4049
37.0257
36.5987
36.1405
35.6628
35.1736
34.6786
34.181
33.6832
33.1861
32.6905
32.1965
31.7042
31.2134
30.7238
30.2354
29.7479
29.2611
28.7748
28.289
27.8034
27.318
26.8327
26.3475
25.8624
25.3772
24.892
24.4069
23.9218
23.4368
22.952
22.4676
21.9837
21.5005
21.0185
20.538
20.0596
19.584
19.112
18.6447
18.1834
17.7294
17.2843
16.8497
37.4859
37.9822
38.2615
38.2961
38.1639
37.9022
37.5479
37.131
36.6737
36.192
35.6968
35.1951
34.6912
34.1876
33.6858
33.1864
32.6893
32.1946
31.7019
31.211
30.7215
30.2333
29.7459
29.2592
28.773
28.2872
27.8017
27.3163
26.8309
26.3456
25.8603
25.375
24.8896
24.4043
23.9191
23.434
22.9491
22.4647
21.981
21.4982
21.0167
20.5369
20.0595
19.5851
19.1147
18.6492
18.1899
17.7379
17.2949
16.8623
37.9168
38.4144
38.666
38.6452
38.4495
38.1254
37.7157
37.2526
36.759
36.2497
35.7342
35.218
34.7042
34.194
33.688
33.1859
32.6874
32.192
31.6991
31.2082
30.7189
30.2308
29.7436
29.2572
28.7711
28.2854
27.7999
27.3145
26.8291
26.3437
25.8582
25.3727
24.8871
24.4016
23.9162
23.4309
22.9459
22.4614
21.9777
21.495
21.0138
20.5345
20.0577
19.5843
19.1149
18.6506
18.1927
17.7422
17.3007
16.8695
38.4577
38.9499
39.1598
39.0634
38.785
38.3824
37.9051
37.3874
36.8515
36.3108
35.7728
35.2409
34.7165
34.1995
33.6891
33.1845
32.6847
32.1886
31.6956
31.2048
30.7158
30.228
29.7412
29.255
28.7691
28.2836
27.7981
27.3127
26.8272
26.3417
25.8561
25.3703
24.8846
24.3988
23.9131
23.4275
22.9423
22.4576
21.9738
21.491
21.0098
20.5307
20.0542
19.5812
19.1125
18.649
18.1919
17.7423
17.3016
16.8712
39.1336
39.6067
39.7542
39.5548
39.1698
38.6702
38.1121
37.531
36.9475
36.3725
35.8103
35.262
34.7268
34.203
33.6885
33.1817
32.6807
32.1844
31.6914
31.2009
30.7123
30.225
29.7385
29.2526
28.767
28.2816
27.7963
27.3109
26.8254
26.3397
25.8539
25.368
24.8819
24.3958
23.9098
23.4239
22.9383
22.4533
21.9691
21.4861
21.0047
20.5254
20.0489
19.576
19.1074
18.6441
18.1874
17.7382
17.2978
16.8677
39.9804
40.4089
40.4624
40.1232
39.6016
38.9835
38.3307
37.6779
37.0424
36.4309
35.8439
35.2793
34.7337
34.2036
33.6856
33.177
32.6754
32.179
31.6864
31.1965
30.7085
30.2217
29.7357
29.2502
28.7649
28.2797
27.7945
27.3091
26.8235
26.3378
25.8518
25.3656
24.8793
24.3928
23.9063
23.42
22.934
22.4485
21.9638
21.4803
20.9984
20.5187
20.0418
19.5685
19.0996
18.6362
18.1792
17.7299
17.2893
16.8589
41.0504
41.3874
41.2993
40.7704
40.0752
39.3145
38.5528
37.8211
37.1305
36.4818
35.8705
35.2906
34.7357
34.2003
33.6797
33.17
32.6684
32.1725
31.6806
31.1915
30.7042
30.2181
29.7327
29.2477
28.7628
28.2778
27.7927
27.3074
26.8218
26.3359
25.8497
25.3632
24.8765
24.3897
23.9027
23.4159
22.9292
22.4431
21.9577
21.4735
20.9909
20.5104
20.0328
19.5588
19.0892
18.6251
18.1674
17.7174
17.2762
16.8451
42.4199
42.5823
42.2802
41.4948
40.5812
39.6515
38.7677
37.9517
37.2051
36.5203
35.8866
35.2934
34.7312
34.1921
33.6701
33.1605
32.6595
32.1646
31.6739
31.1859
30.6996
30.2143
29.7296
29.2452
28.7607
28.276
27.791
27.3058
26.8201
26.3341
25.8477
25.3609
24.8738
24.3865
23.899
23.4115
22.9241
22.4372
21.951
21.4658
20.9822
20.5007
20.022
19.5469
19.0762
18.6109
18.1521
17.7009
17.2585
16.8262
44.2022
44.0436
43.4184
42.288
41.1033
39.978
38.9613
38.0589
37.2583
36.541
35.8886
35.2855
34.7186
34.1781
33.6564
33.148
32.6486
32.1554
31.6663
31.1797
30.6947
30.2104
29.7265
29.2427
28.7586
28.2743
27.7895
27.3043
26.8186
26.3324
25.8458
25.3587
24.8712
24.3833
23.8952
23.4069
22.9188
22.4309
21.9436
21.4573
20.9724
20.4896
20.0095
19.5329
19.0606
18.5937
18.1332
17.6804
17.2364
16.8024
46.5694
45.8326
44.7193
43.13
41.6152
40.2704
39.1156
38.1301
37.2816
36.5382
35.873
35.2645
34.6966
34.1574
33.6381
33.1323
32.6357
32.1449
31.6579
31.1731
30.6895
30.2065
29.7235
29.2403
28.7567
28.2727
27.7881
27.303
26.8172
26.3309
25.844
25.3565
24.8686
24.3801
23.8913
23.4022
22.9131
22.4241
21.9356
21.448
20.9616
20.4771
19.9953
19.5167
19.0425
18.5735
18.111
17.656
17.2098
16.7737
49.7854
48.0193
46.1712
43.9818
42.0773
40.4976
39.2087
38.1507
37.2658
36.5064
35.8362
35.2285
34.6642
34.1295
33.6149
33.1135
32.6206
32.1331
31.6488
31.1661
30.6842
30.2025
29.7205
29.2381
28.7551
28.2714
27.787
27.3019
26.8161
26.3296
25.8424
25.3546
24.8661
24.377
23.8875
23.3975
22.9073
22.4171
21.9272
21.4379
20.9498
20.4634
19.9794
19.4986
19.022
18.5505
18.0854
17.6277
17.1789
16.7402
54.2244
50.6656
47.7304
44.7779
42.4334
40.6202
39.2156
38.1059
37.2023
36.4407
35.7757
35.1763
34.6207
34.0942
33.5868
33.0915
32.6037
32.1202
31.6391
31.1589
30.679
30.1987
29.7178
29.2361
28.7537
28.2703
27.7861
27.3011
26.8152
26.3286
25.8411
25.3528
24.8638
24.3741
23.8837
23.3928
22.9014
22.4099
21.9184
21.4273
20.9372
20.4486
19.9621
19.4787
18.9992
18.5248
18.0565
17.5958
17.1438
16.702
60.406
53.7833
49.2764
45.4049
42.6033
40.5894
39.109
37.9808
37.0836
36.3374
35.69
35.1072
34.5661
34.0518
33.5542
33.0668
32.5852
32.1065
31.6291
31.1517
30.6739
30.1951
29.7154
29.2345
28.7526
28.2696
27.7856
27.3006
26.8147
26.3278
25.8401
25.3514
24.8618
24.3714
23.8801
23.3881
22.8955
22.4025
21.9093
21.4163
20.9239
20.4328
19.9436
19.4571
18.9744
18.4965
18.0247
17.5603
17.1046
16.6592
69.7427
57.29
50.462
45.6238
42.4498
40.3314
38.8505
37.7561
36.8997
36.1916
35.5767
35.0202
34.5001
34.0022
33.5173
33.0396
32.5653
32.0923
31.619
31.1447
30.6691
30.192
29.7134
29.2333
28.7519
28.2693
27.7855
27.3005
26.8145
26.3275
25.8394
25.3503
24.8601
24.369
23.8768
23.3837
22.8897
22.3951
21.9
21.4048
20.9099
20.4159
19.9236
19.4336
18.9471
18.4653
17.9893
17.5206
17.0607
16.611
87.0122
60.9359
50.5912
45.0378
41.7754
39.7507
38.3935
37.4078
36.6378
35.9961
35.4314
34.9128
34.4211
33.9446
33.4756
33.0097
32.5442
32.0775
31.6089
31.138
30.6648
30.1894
29.712
29.2327
28.7519
28.2695
27.7858
27.3009
26.8148
26.3275
25.8391
25.3496
24.8588
24.3669
23.8737
23.3794
22.884
22.3875
21.8903
21.3926
20.8949
20.3976
19.9015
19.4075
18.9166
18.43
17.949
17.4752
17.0102
16.5554
115.529
64.1887
49.9544
43.9396
40.8091
39.0186
37.8601
37.0219
36.3583
35.7932
35.2841
34.806
34.344
33.8893
33.4363
32.9821
32.525
32.0645
31.6003
31.1325
30.6615
30.1876
29.7112
29.2326
28.7522
28.2701
27.7865
27.3016
26.8154
26.3279
25.8392
25.3492
24.8579
24.3653
23.8712
23.3758
22.8789
22.3808
21.8816
21.3815
20.8809
20.3804
19.8807
19.3827
18.8874
18.3962
17.9103
17.4314
16.9612
16.5014
8.28782
10.2364
10.3467
10.7327
10.9426
11.0929
11.1825
11.2317
11.2488
11.2411
11.2135
11.1695
11.1119
11.043
10.9645
10.8778
10.7841
10.6843
10.5794
10.4701
10.357
10.2406
10.1215
9.99994
9.87642
9.75121
9.62459
9.49679
9.36801
9.23843
9.1082
8.97746
8.8463
8.71484
8.58313
8.45126
8.31928
8.18723
8.05514
7.92306
7.791
7.65897
7.52701
7.39511
7.26327
7.13152
6.99984
6.86824
6.73672
6.60527
6.47389
6.34258
6.21133
6.08015
5.94902
5.81794
5.68691
5.55592
5.42496
5.29405
5.16316
5.0323
4.90147
4.77065
4.63986
4.50908
4.37832
4.24757
4.11683
3.9861
3.85538
3.72466
3.59395
3.46325
3.33255
3.20185
3.07115
2.94046
2.80977
2.67908
2.54839
2.4177
2.28702
2.15633
2.02564
1.89496
1.76427
1.63358
1.5029
1.37221
1.24153
1.11084
0.980156
0.84947
0.718784
0.588098
0.457413
0.326725
0.196047
0.0653358
10.712
11.2618
10.9681
11.1314
11.2237
11.3022
11.345
11.3608
11.353
11.3258
11.2826
11.2258
11.1577
11.0799
10.9939
10.9009
10.8019
10.6978
10.5891
10.4767
10.3611
10.2426
10.1218
9.99897
9.87442
9.74843
9.62123
9.49303
9.364
9.23429
9.10403
8.97333
8.84227
8.71096
8.57943
8.44777
8.31601
8.18418
8.05233
7.92048
7.78864
7.65683
7.52507
7.39337
7.26172
7.13013
6.99861
6.86716
6.73576
6.60443
6.47316
6.34195
6.21079
6.07968
5.94862
5.8176
5.68662
5.55568
5.42477
5.29388
5.16303
5.03219
4.90138
4.77059
4.63981
4.50905
4.3783
4.24755
4.11682
3.9861
3.85538
3.72467
3.59396
3.46326
3.33256
3.20186
3.07117
2.94048
2.80978
2.67909
2.54841
2.41772
2.28703
2.15634
2.02565
1.89497
1.76428
1.63359
1.50291
1.37222
1.24153
1.11085
0.98016
0.849474
0.718787
0.5881
0.457414
0.326726
0.196044
0.0653414
12.04
12.0066
11.5331
11.5226
11.5098
11.5184
11.5135
11.4948
11.4611
11.4137
11.3542
11.2842
11.2051
11.1181
11.0245
10.925
10.8206
10.7119
10.5994
10.4839
10.3656
10.245
10.1225
9.99825
9.87263
9.74582
9.61802
9.48939
9.36009
9.23022
9.09991
8.96923
8.83827
8.70709
8.57574
8.44427
8.31273
8.18113
8.0495
7.91788
7.78626
7.65467
7.52312
7.39161
7.26014
7.12873
6.99736
6.86605
6.73479
6.60358
6.47242
6.34131
6.21024
6.07921
5.94821
5.81726
5.68633
5.55543
5.42456
5.29372
5.16289
5.03208
4.90129
4.77052
4.63976
4.50901
4.37827
4.24754
4.11681
3.98609
3.85538
3.72467
3.59397
3.46327
3.33257
3.20188
3.07118
2.94049
2.8098
2.67911
2.54842
2.41773
2.28704
2.15635
2.02566
1.89498
1.76429
1.6336
1.50291
1.37223
1.24154
1.11085
0.980165
0.849478
0.71879
0.588102
0.457415
0.326727
0.196041
0.0653467
12.9493
12.5914
12.0346
11.8919
11.791
11.7352
11.6844
11.6315
11.5716
11.5036
11.4275
11.344
11.2537
11.1574
11.0559
10.9498
10.8399
10.7265
10.6102
10.4914
10.3704
10.2477
10.1234
9.99772
9.87099
9.74334
9.61491
9.48584
9.35624
9.22621
9.09583
8.96516
8.83428
8.70323
8.57205
8.44078
8.30944
8.17806
8.04667
7.91527
7.78387
7.6525
7.52115
7.38983
7.25855
7.12731
6.9961
6.86494
6.73381
6.60272
6.47167
6.34066
6.20967
6.07872
5.9478
5.8169
5.68603
5.55518
5.42435
5.29354
5.16275
5.03197
4.9012
4.77045
4.6397
4.50897
4.37824
4.24752
4.1168
3.98609
3.85538
3.72468
3.59398
3.46328
3.33258
3.20189
3.07119
2.9405
2.80981
2.67912
2.54843
2.41774
2.28705
2.15636
2.02568
1.89499
1.7643
1.63361
1.50292
1.37223
1.24155
1.11086
0.98017
0.849481
0.718793
0.588105
0.457416
0.326727
0.196038
0.0653519
13.6101
13.0697
12.4749
12.2339
12.0611
11.9484
11.8547
11.7688
11.6831
11.5945
11.5018
11.4046
11.303
11.1973
11.0878
10.9751
10.8595
10.7414
10.6212
10.4991
10.3755
10.2505
10.1244
9.99733
9.86947
9.74095
9.61188
9.48234
9.35244
9.22223
9.09177
8.96112
8.83031
8.69938
8.56836
8.43728
8.30615
8.17499
8.04382
7.91264
7.78147
7.65031
7.51917
7.38805
7.25695
7.12588
6.99483
6.86381
6.73282
6.60185
6.47091
6.33999
6.2091
6.07823
5.94738
5.81654
5.68573
5.55493
5.42414
5.29337
5.16261
5.03185
4.90111
4.77037
4.63965
4.50892
4.37821
4.2475
4.11679
3.98608
3.85538
3.72468
3.59398
3.46329
3.33259
3.2019
3.07121
2.94052
2.80982
2.67913
2.54844
2.41775
2.28707
2.15638
2.02569
1.895
1.76431
1.63362
1.50293
1.37224
1.24155
1.11086
0.980174
0.849485
0.718796
0.588107
0.457417
0.326728
0.196036
0.0653571
14.0957
13.4656
12.8589
12.5468
12.3167
12.1547
12.0219
11.9049
11.7943
11.6856
11.5765
11.4656
11.3527
11.2375
11.1201
11.0007
10.8794
10.7566
10.6324
10.507
10.3807
10.2534
10.1255
9.99701
9.86802
9.73862
9.60889
9.47889
9.34867
9.21827
9.08774
8.95709
8.82635
8.69554
8.56468
8.43378
8.30286
8.17192
8.04097
7.91001
7.77906
7.64812
7.51718
7.38625
7.25534
7.12443
6.99355
6.86267
6.73182
6.60097
6.47014
6.33933
6.20852
6.07773
5.94695
5.81618
5.68542
5.55467
5.42393
5.29319
5.16246
5.03173
4.90101
4.7703
4.63959
4.50888
4.37818
4.24747
4.11677
3.98608
3.85538
3.72468
3.59399
3.4633
3.3326
3.20191
3.07122
2.94053
2.80984
2.67915
2.54846
2.41777
2.28708
2.15639
2.0257
1.89501
1.76432
1.63363
1.50294
1.37225
1.24156
1.11087
0.980179
0.849489
0.718799
0.588109
0.457418
0.326729
0.196033
0.065362
14.4637
13.7976
13.1933
12.8309
12.5558
12.3518
12.1841
12.0382
11.904
11.7759
11.6507
11.5265
11.4023
11.2777
11.1523
11.0262
10.8993
10.7718
10.6436
10.515
10.3859
10.2564
10.1267
9.99672
9.86658
9.7363
9.60592
9.47545
9.34491
9.21433
9.08371
8.95306
8.82239
8.6917
8.561
8.43028
8.29957
8.16884
8.03811
7.90738
7.77665
7.64592
7.51518
7.38445
7.25372
7.12299
6.99226
6.86154
6.73081
6.60009
6.46937
6.33866
6.20794
6.07723
5.94652
5.81582
5.68511
5.55441
5.42371
5.29301
5.16231
5.03161
4.90092
4.77022
4.63953
4.50884
4.37814
4.24745
4.11676
3.98607
3.85538
3.72469
3.59399
3.4633
3.33261
3.20192
3.07123
2.94054
2.80985
2.67916
2.54847
2.41778
2.28709
2.1564
2.02571
1.89502
1.76433
1.63364
1.50295
1.37226
1.24156
1.11087
0.980184
0.849493
0.718802
0.588111
0.457419
0.32673
0.196031
0.0653667
14.7533
14.0801
13.4851
13.0877
12.7775
12.5383
12.3398
12.1676
12.0112
11.8646
11.7238
11.5865
11.4514
11.3175
11.1843
11.0515
10.9191
10.7868
10.6547
10.5228
10.391
10.2593
10.1278
9.99639
9.86512
9.73397
9.60293
9.47199
9.34115
9.21038
9.07968
8.94903
8.81843
8.68786
8.55731
8.42679
8.29627
8.16577
8.03526
7.90475
7.77424
7.64372
7.51319
7.38265
7.2521
7.12154
6.99098
6.8604
6.72981
6.59921
6.4686
6.33799
6.20736
6.07673
5.94609
5.81545
5.6848
5.55415
5.42349
5.29283
5.16216
5.03149
4.90082
4.77015
4.63947
4.50879
4.37811
4.24743
4.11675
3.98606
3.85537
3.72469
3.594
3.46331
3.33262
3.20193
3.07125
2.94056
2.80986
2.67917
2.54848
2.41779
2.2871
2.15641
2.02572
1.89503
1.76434
1.63365
1.50295
1.37226
1.24157
1.11088
0.980188
0.849497
0.718805
0.588113
0.457421
0.326731
0.196029
0.0653712
14.9888
14.3235
13.7405
13.3193
12.982
12.7135
12.4881
12.292
12.1151
11.951
11.7953
11.6454
11.4996
11.3566
11.2157
11.0764
10.9385
10.8016
10.6656
10.5304
10.396
10.2621
10.1288
9.99597
9.86358
9.73157
9.5999
9.46851
9.33736
9.20641
9.07563
8.94499
8.81446
8.68401
8.55363
8.42329
8.29298
8.16269
8.03241
7.90212
7.77183
7.64152
7.5112
7.38085
7.25049
7.1201
6.98969
6.85926
6.72881
6.59833
6.46783
6.33732
6.20678
6.07623
5.94567
5.81509
5.68449
5.55389
5.42327
5.29265
5.16201
5.03137
4.90073
4.77007
4.63941
4.50875
4.37808
4.24741
4.11673
3.98605
3.85537
3.72469
3.59401
3.46332
3.33263
3.20195
3.07126
2.94057
2.80988
2.67919
2.5485
2.41781
2.28711
2.15642
2.02573
1.89504
1.76435
1.63365
1.50296
1.37227
1.24158
1.11089
0.980193
0.849501
0.718808
0.588116
0.457422
0.326732
0.196026
0.0653754
15.1855
14.5352
13.9649
13.5279
13.1697
12.8769
12.6282
12.4108
12.215
12.0344
11.8647
11.7027
11.5465
11.3947
11.2463
11.1007
10.9573
10.8159
10.6761
10.5378
10.4007
10.2647
10.1296
9.99541
9.86193
9.72909
9.59679
9.46496
9.33352
9.20241
9.07156
8.94094
8.81048
8.68016
8.54994
8.41979
8.28969
8.15962
8.02956
7.8995
7.76943
7.63933
7.50922
7.37907
7.24888
7.11867
6.98842
6.85813
6.72781
6.59745
6.46707
6.33665
6.20621
6.07574
5.94524
5.81473
5.68419
5.55363
5.42306
5.29247
5.16187
5.03126
4.90063
4.77
4.63935
4.5087
4.37805
4.24739
4.11672
3.98605
3.85537
3.72469
3.59401
3.46333
3.33264
3.20196
3.07127
2.94058
2.80989
2.6792
2.54851
2.41782
2.28713
2.15643
2.02574
1.89505
1.76436
1.63366
1.50297
1.37228
1.24158
1.11089
0.980198
0.849504
0.718811
0.588118
0.457423
0.326733
0.196025
0.0653794
15.3535
14.7208
14.1628
13.7156
13.3413
13.0286
12.7597
12.5232
12.3103
12.1145
11.9314
11.7579
11.5918
11.4315
11.2759
11.1241
10.9755
10.8296
10.6861
10.5447
10.405
10.2669
10.1302
9.99465
9.86012
9.72648
9.59358
9.46133
9.32962
9.19836
9.06746
8.93686
8.80649
8.6763
8.54625
8.4163
8.28641
8.15656
8.02673
7.89689
7.76704
7.63716
7.50724
7.37729
7.24729
7.11724
6.98715
6.85701
6.72682
6.59659
6.46631
6.33599
6.20564
6.07525
5.94482
5.81437
5.68389
5.55338
5.42285
5.2923
5.16173
5.03114
4.90054
4.76992
4.6393
4.50866
4.37802
4.24736
4.11671
3.98604
3.85537
3.7247
3.59402
3.46334
3.33266
3.20197
3.07128
2.94059
2.80991
2.67921
2.54852
2.41783
2.28714
2.15645
2.02575
1.89506
1.76437
1.63367
1.50298
1.37228
1.24159
1.1109
0.980202
0.849508
0.718814
0.58812
0.457425
0.326734
0.196023
0.0653831
15.4993
14.8845
14.338
13.8845
13.4978
13.1686
12.8823
12.629
12.4005
12.1906
11.9951
11.8108
11.6352
11.4668
11.3041
11.1464
10.9927
10.8426
10.6955
10.5511
10.409
10.2689
10.1305
9.99365
9.85811
9.7237
9.59024
9.4576
9.32564
9.19424
9.06331
8.93275
8.80248
8.67243
8.54256
8.41281
8.28314
8.15351
8.0239
7.89429
7.76466
7.635
7.50529
7.37553
7.24571
7.11583
6.9859
6.8559
6.72585
6.59573
6.46557
6.33535
6.20508
6.07477
5.94441
5.81402
5.68359
5.55313
5.42264
5.29212
5.16159
5.03103
4.90045
4.76985
4.63924
4.50862
4.37799
4.24735
4.11669
3.98604
3.85537
3.7247
3.59403
3.46335
3.33267
3.20198
3.0713
2.94061
2.80992
2.67923
2.54854
2.41784
2.28715
2.15646
2.02576
1.89507
1.76437
1.63368
1.50299
1.37229
1.2416
1.1109
0.980207
0.849512
0.718817
0.588123
0.457426
0.326735
0.196022
0.0653864
15.6275
15.0297
14.4935
14.0362
13.64
13.2973
12.9961
12.7279
12.4853
12.2625
12.0555
11.8609
11.6764
11.5002
11.3309
11.1674
11.0089
10.8547
10.7042
10.5569
10.4124
10.2703
10.1304
9.99234
9.85585
9.72072
9.58674
9.45374
9.32156
9.19006
9.05911
8.9286
8.79844
8.66855
8.53887
8.40932
8.27987
8.15047
8.0211
7.89172
7.76231
7.63286
7.50335
7.37379
7.24415
7.11444
6.98466
6.85481
6.72489
6.59489
6.46483
6.33471
6.20453
6.07429
5.94401
5.81368
5.6833
5.55289
5.42244
5.29196
5.16145
5.03092
4.90036
4.76978
4.63919
4.50858
4.37796
4.24733
4.11668
3.98603
3.85537
3.72471
3.59403
3.46336
3.33268
3.202
3.07131
2.94062
2.80993
2.67924
2.54855
2.41786
2.28716
2.15647
2.02577
1.89508
1.76438
1.63369
1.50299
1.3723
1.2416
1.11091
0.980212
0.849516
0.718821
0.588125
0.457428
0.326736
0.196021
0.0653895
15.7412
15.1587
14.6317
14.1724
13.7689
13.415
13.1011
12.8197
12.5644
12.3299
12.1121
11.908
11.7151
11.5316
11.356
11.1871
11.0239
10.8658
10.712
10.5619
10.4152
10.2713
10.1299
9.99069
9.8533
9.71751
9.58305
9.44974
9.31737
9.18579
9.05484
8.92441
8.79438
8.66466
8.53516
8.40584
8.27661
8.14745
8.01831
7.88916
7.75997
7.63074
7.50144
7.37207
7.24261
7.11307
6.98345
6.85374
6.72394
6.59407
6.46412
6.33409
6.20399
6.07384
5.94362
5.81334
5.68302
5.55265
5.42224
5.2918
5.16132
5.03081
4.90028
4.76972
4.63914
4.50855
4.37794
4.24731
4.11668
3.98603
3.85537
3.72471
3.59404
3.46337
3.33269
3.20201
3.07132
2.94064
2.80995
2.67926
2.54856
2.41787
2.28718
2.15648
2.02578
1.89509
1.76439
1.6337
1.503
1.37231
1.24161
1.11091
0.980217
0.84952
0.718824
0.588128
0.45743
0.326737
0.19602
0.0653922
15.8424
15.2735
14.7545
14.2944
13.8853
13.5221
13.1972
12.9043
12.6376
12.3924
12.1648
11.9519
11.7511
11.5607
11.3791
11.2051
11.0376
10.8757
10.7188
10.5662
10.4173
10.2717
10.1289
9.98863
9.85043
9.71403
9.57915
9.44556
9.31305
9.18142
9.0505
8.92017
8.79028
8.66074
8.53146
8.40235
8.27337
8.14444
8.01554
7.88662
7.75767
7.62865
7.49956
7.37038
7.2411
7.11173
6.98226
6.85269
6.72303
6.59327
6.46342
6.33349
6.20347
6.07339
5.94324
5.81302
5.68275
5.55243
5.42206
5.29165
5.1612
5.03071
4.9002
4.76966
4.6391
4.50852
4.37791
4.2473
4.11667
3.98603
3.85538
3.72472
3.59405
3.46338
3.3327
3.20202
3.07134
2.94065
2.80996
2.67927
2.54858
2.41788
2.28719
2.15649
2.0258
1.8951
1.7644
1.63371
1.50301
1.37231
1.24162
1.11092
0.980222
0.849525
0.718827
0.58813
0.457431
0.326739
0.196019
0.0653947
15.9327
15.3757
14.8637
14.4035
13.9899
13.619
13.2848
12.9818
12.7049
12.45
12.2134
11.9923
11.7842
11.5874
11.4002
11.2213
11.0497
10.8844
10.7245
10.5695
10.4186
10.2715
10.1274
9.98613
9.84719
9.71025
9.57501
9.4412
9.30858
9.17693
9.04608
8.91587
8.78615
8.65681
8.52775
8.39888
8.27014
8.14146
8.0128
7.88412
7.75539
7.62659
7.4977
7.36872
7.23962
7.11042
6.9811
6.85167
6.72213
6.59249
6.46274
6.3329
6.20297
6.07296
5.94287
5.81272
5.68249
5.55221
5.42188
5.2915
5.16108
5.03062
4.90013
4.76961
4.63906
4.50849
4.3779
4.24729
4.11667
3.98603
3.85538
3.72473
3.59406
3.46339
3.33272
3.20204
3.07135
2.94067
2.80998
2.67928
2.54859
2.4179
2.2872
2.1565
2.02581
1.89511
1.76441
1.63371
1.50302
1.37232
1.24162
1.11092
0.980226
0.849529
0.718831
0.588133
0.457433
0.32674
0.196019
0.0653968
16.0132
15.4664
14.9604
14.5006
14.0834
13.7062
13.3639
13.052
12.7661
12.5024
12.2576
12.029
11.8142
11.6115
11.4191
11.2357
11.0602
10.8916
10.7291
10.5718
10.4191
10.2705
10.1253
9.98314
9.84355
9.70614
9.5706
9.43662
9.30394
9.17232
9.04157
8.91151
8.78198
8.65285
8.52403
8.39541
8.26692
8.1385
8.01008
7.88165
7.75315
7.62457
7.49589
7.36709
7.23818
7.10914
6.97997
6.85068
6.72126
6.59173
6.46209
6.33234
6.20249
6.07255
5.94253
5.81242
5.68225
5.55201
5.42172
5.29137
5.16097
5.03054
4.90006
4.76956
4.63902
4.50846
4.37788
4.24728
4.11666
3.98603
3.85539
3.72474
3.59408
3.46341
3.33273
3.20205
3.07137
2.94068
2.80999
2.6793
2.5486
2.41791
2.28721
2.15652
2.02582
1.89512
1.76442
1.63372
1.50302
1.37233
1.24163
1.11093
0.980231