/*--------------------------------*- C++ -*----------------------------------*\
  =========                 |
  \\      /  F ield         | OpenFOAM: The Open Source CFD Toolbox
   \\    /   O peration     | Website:  https://openfoam.org
    \\  /    A nd           | Version:  6
     \\/     M anipulation  |
\*---------------------------------------------------------------------------*/
FoamFile
{
    version     2.0;
    format      ascii;
    class       surfaceScalarField;
    location    "0";
    object      phi;
}
// * * * * * * * * * * * * * * * * * * * * * * * * * * * * * * * * * * * * * //

dimensions      [0 3 -1 0 0 0 0];

internalField   nonuniform List<scalar> 
17780
(
0.00146892
0.00105334
0.000887047
0.000581873
0.000603481
0.000283565
0.000449286
0.000154196
0.000360072
8.92142e-05
0.000304957
5.51148e-05
0.000269002
3.59548e-05
0.000244651
2.43506e-05
0.000227769
1.68825e-05
0.000215908
1.18611e-05
0.000207524
8.38366e-06
0.000201594
5.93075e-06
0.000197411
4.18267e-06
0.000194479
2.93151e-06
0.000192443
2.03619e-06
0.000191045
1.39796e-06
0.000190099
9.46182e-07
0.000189469
6.29649e-07
0.000189058
4.10916e-07
0.000188796
2.62519e-07
0.000188632
1.6431e-07
0.00018853
1.01544e-07
0.000188467
6.34673e-08
0.000188424
4.22735e-08
0.000188392
3.23076e-08
0.000188363
2.94693e-08
0.000188332
3.07547e-08
0.000188298
3.39027e-08
0.000188261
3.71186e-08
0.000188222
3.88502e-08
0.000188184
3.75976e-08
0.000188153
3.17378e-08
0.000188133
1.93468e-08
0.000188135
-2.0047e-09
0.000188171
-3.55087e-08
0.000188256
-8.54754e-08
0.000188414
-1.57856e-07
0.000188675
-2.61056e-07
0.000189082
-4.0727e-07
0.000189697
-6.14792e-07
0.000190609
-9.12288e-07
0.000191957
-1.34731e-06
0.000193962
-2.00481e-06
0.000197013
-3.05094e-06
0.000201858
-4.84524e-06
0.00021012
-8.26256e-06
0.000225848
-1.57275e-05
0.000259612
-3.3764e-05
0.000342537
-8.29248e-05
-0.000290963
0.0006335
0.00235276
0.00122284
0.00186488
0.00106975
0.00145972
0.000688725
0.00117876
0.000435159
0.000988315
0.000279661
0.000858171
0.000185258
0.000767786
0.00012634
0.000704068
8.80692e-05
0.000658663
6.22876e-05
0.000626105
4.44192e-05
0.000602705
3.17836e-05
0.000585903
2.27323e-05
0.000573884
1.6202e-05
0.000565337
1.14784e-05
0.000559308
8.06514e-06
0.000555097
5.60869e-06
0.000552191
3.85275e-06
0.000550211
2.60934e-06
0.000548882
1.73972e-06
0.000548003
1.1412e-06
0.00054743
7.37831e-07
0.000547058
4.7353e-07
0.000546814
3.0705e-07
0.000546648
2.0815e-07
0.000546526
1.54691e-07
0.000546425
1.30416e-07
0.000546333
1.23238e-07
0.000546243
1.23905e-07
0.000546155
1.24941e-07
0.000546074
1.19775e-07
0.000546009
1.01988e-07
0.000545977
6.46082e-08
0.000545997
-6.2798e-10
0.000546099
-1.0413e-07
0.000546323
-2.5955e-07
0.000546723
-4.85304e-07
0.000547372
-8.06824e-07
0.000548371
-1.26005e-06
0.00054986
-1.89714e-06
0.000552042
-2.79616e-06
0.000555208
-4.07857e-06
0.000559803
-5.94238e-06
0.000566527
-8.72907e-06
0.000576543
-1.3067e-05
0.000591896
-2.01982e-05
0.000616405
-3.27714e-05
0.000657533
-5.68554e-05
0.000730546
-0.000106777
0.000866267
-0.000218646
-0.000506223
0.00108153
0.00259598
0.00114913
0.00235456
0.00131117
0.00202326
0.00102003
0.0017333
0.00072512
0.00150781
0.00050515
0.0013396
0.000353464
0.00121589
0.000250048
0.00112525
0.000178716
0.00105887
0.000128667
0.00101029
9.29943e-05
0.000974814
6.7262e-05
0.000948991
4.85551e-05
0.000930291
3.49021e-05
0.000916838
2.49314e-05
0.000907237
1.76661e-05
0.000900449
1.23966e-05
0.000895701
8.60102e-06
0.000892418
5.89224e-06
0.000890176
3.98162e-06
0.000888664
2.6538e-06
0.000887653
1.74825e-06
0.000886981
1.14565e-06
0.000886531
7.57572e-07
0.00088622
5.18717e-07
0.000885994
3.80892e-07
0.000885816
3.08385e-07
0.000885665
2.74357e-07
0.000885531
2.58015e-07
0.000885413
2.42341e-07
0.000885321
2.12202e-07
0.00088527
1.52703e-07
0.000885287
4.76079e-08
0.000885409
-1.22319e-07
0.000885686
-3.81254e-07
0.000886187
-7.60816e-07
0.000887006
-1.30354e-06
0.000888267
-2.06797e-06
0.000890143
-3.13657e-06
0.000892874
-4.62834e-06
0.000896798
-6.72e-06
0.000902403
-9.68299e-06
0.000910411
-1.39508e-05
0.000921929
-2.02471e-05
0.000938702
-2.98403e-05
0.000963572
-4.50681e-05
0.00100125
-7.04515e-05
0.00105948
-0.000115085
0.00115023
-0.000197528
0.00128613
-0.000354541
-0.000661374
0.00144128
0.00266373
0.00100766
0.00258648
0.00138842
0.00237082
0.00123569
0.00213098
0.000964968
0.001917
0.000719127
0.00174261
0.000527855
0.0016064
0.000386253
0.0015023
0.000282818
0.00142371
0.000207262
0.00136486
0.000151842
0.0013211
0.000111022
0.00128877
8.08792e-05
0.00126507
5.86102e-05
0.00124781
4.2186e-05
0.00123536
3.0117e-05
0.00122646
2.12974e-05
0.00122016
1.48998e-05
0.00121575
1.0302e-05
0.0012127
7.03523e-06
0.00121061
4.7466e-06
0.00120918
3.17095e-06
0.00120822
2.10976e-06
0.00120756
1.41497e-06
0.0012071
9.7646e-07
0.00120677
7.12354e-07
0.00120652
5.61492e-07
0.00120632
4.77475e-07
0.00120615
4.23967e-07
0.00120602
3.70887e-07
0.00120594
2.91213e-07
0.00120594
1.58152e-07
0.00120604
-5.75874e-08
0.00120631
-3.9069e-07
0.00120681
-8.84636e-07
0.00120765
-1.59608e-06
0.00120895
-2.60089e-06
0.00121088
-4.00296e-06
0.00121369
-5.9476e-06
0.00121771
-8.6427e-06
0.00122338
-1.23933e-05
0.00123136
-1.76598e-05
0.00124257
-2.516e-05
0.00125837
-3.60514e-05
0.0012808
-5.22681e-05
0.00131288
-7.71513e-05
0.00135906
-0.000116628
0.00142532
-0.000181343
0.0015179
-0.000290108
0.00163645
-0.000473097
-0.000773224
0.0017483
0.00266903
0.000860891
0.00268818
0.00136927
0.00257576
0.0013481
0.00240521
0.00113553
0.00222843
0.000895902
0.00207022
0.000686066
0.0019385
0.000517977
0.00183313
0.000388188
0.00175087
0.000289523
0.00168769
0.000215016
0.00163977
0.000158941
0.0016038
0.000116849
0.00157706
8.53529e-05
0.00155736
6.18836e-05
0.00154299
4.44887e-05
0.00153261
3.16817e-05
0.00152518
2.23279e-05
0.00151992
1.55614e-05
0.00151623
1.07218e-05
0.00151367
7.30725e-06
0.00151191
4.93732e-06
0.00151069
3.32525e-06
0.00150985
2.25566e-06
0.00150926
1.56728e-06
0.00150883
1.13939e-06
0.00150851
8.81075e-07
0.00150827
7.22759e-07
0.00150808
6.09403e-07
0.00150796
4.94945e-07
0.00150791
3.37604e-07
0.00150797
9.56608e-08
0.00150819
-2.76623e-07
0.00150863
-8.33371e-07
0.00150939
-1.64222e-06
0.00151059
-2.7909e-06
0.00151238
-4.39619e-06
0.001515
-6.61688e-06
0.00151872
-9.67309e-06
0.00152396
-1.38761e-05
0.00153124
-1.96759e-05
0.00154132
-2.77381e-05
0.00155523
-3.90724e-05
0.00157443
-5.52501e-05
0.00160093
-7.87747e-05
0.00163749
-0.00011371
0.00168757
-0.00016671
0.00175477
-0.00024854
0.00184046
-0.0003758
0.0019377
-0.000570333
-0.000852986
0.00201746
0.00265281
0.000730341
0.00272437
0.00129771
0.00269091
0.00138156
0.00258864
0.0012378
0.00245945
0.00102509
0.00233057
0.00081494
0.00221537
0.000633181
0.00211847
0.000485084
0.00203998
0.000368011
0.001978
0.000277002
0.00192994
0.000206996
0.00189323
0.00015356
0.00186553
0.00011305
0.00184487
8.25439e-05
0.00182963
5.97357e-05
0.00181849
4.28169e-05
0.00181044
3.03773e-05
0.00180468
2.13221e-05
0.0018006
1.48057e-05
0.00179773
1.01786e-05
0.00179572
6.94418e-06
0.00179432
4.72529e-06
0.00179334
3.23662e-06
0.00179264
2.26317e-06
0.00179214
1.64286e-06
0.00179177
1.2527e-06
0.00179149
9.97759e-07
0.0017913
8.0217e-07
0.00179119
6.01783e-07
0.00179119
3.37837e-07
0.00179134
-4.87368e-08
0.00179168
-6.22887e-07
0.00179231
-1.4614e-06
0.00179333
-2.65989e-06
0.00179488
-4.3417e-06
0.00179715
-6.66989e-06
0.0018004
-9.86426e-06
0.00180495
-1.42263e-05
0.00181125
-2.01766e-05
0.00181989
-2.83126e-05
0.00183165
-3.94991e-05
0.00184759
-5.50107e-05
0.0018691
-7.67594e-05
0.00189798
-0.000107651
0.0019364
-0.000152131
0.00198663
-0.000216938
0.00205004
-0.000311958
0.00212479
-0.000450543
0.00220145
-0.000646993
-0.000908596
0.00225706
0.00263232
0.000620286
0.00272932
0.00120071
0.00275151
0.00135937
0.00270804
0.00128127
0.00262738
0.00110576
0.00253381
0.000908503
0.0024425
0.000724489
0.00236105
0.000566539
0.00229222
0.000436842
0.00223611
0.000333115
0.00219152
0.000251579
0.00215679
0.000188295
0.00213016
0.000139682
0.00211002
0.000102684
0.00209497
7.47806e-05
0.00208386
5.3928e-05
0.00207574
3.84957e-05
0.00206987
2.71948e-05
0.00206566
1.90156e-05
0.00206266
1.31737e-05
0.00206054
9.06421e-06
0.00205904
6.22401e-06
0.00205798
4.3003e-06
0.00205722
3.02544e-06
0.00205667
2.19629e-06
0.00205626
1.65752e-06
0.00205597
1.28819e-06
0.00205578
9.907e-07
0.0020557
6.8163e-07
0.00205576
2.83823e-07
0.00205599
-2.80815e-07
0.00205646
-1.0984e-06
0.00205727
-2.27063e-06
0.00205854
-3.92367e-06
0.00206041
-6.21923e-06
0.00206311
-9.36947e-06
0.00206691
-1.36576e-05
0.00207215
-1.94672e-05
0.0020793
-2.73259e-05
0.00208895
-3.79691e-05
0.00210189
-5.24362e-05
0.0021191
-7.22155e-05
0.00214179
-9.94576e-05
0.00217143
-0.000137284
0.00220949
-0.000190199
0.00225711
-0.00026455
0.00231395
-0.0003688
0.00237635
-0.000512942
0.00243471
-0.000705356
-0.000945654
0.00247177
0.00261373
0.00052882
0.00272073
0.00109371
0.00278004
0.00130006
0.00278366
0.00127765
0.00274745
0.00114197
0.00269026
0.000965692
0.00262643
0.000788319
0.00256477
0.000628193
0.0025098
0.000491813
0.00246322
0.000379701
0.0024251
0.000289699
0.00239471
0.000218686
0.00237097
0.000163422
0.00235273
0.000120922
0.00233892
8.85905e-05
0.00232859
6.42532e-05
0.00232096
4.61281e-05
0.00231538
3.27794e-05
0.00231132
2.30661e-05
0.00230841
1.60913e-05
0.00230631
1.1157e-05
0.00230481
7.72433e-06
0.00230373
5.38004e-06
0.00230295
3.80846e-06
0.00230238
2.76834e-06
0.00230196
2.07381e-06
0.00230167
1.57885e-06
0.0023015
1.16443e-06
0.00230145
7.27693e-07
0.00230156
1.72549e-07
0.00230188
-5.98947e-07
0.00230248
-1.69511e-06
0.00230345
-3.24375e-06
0.00230493
-5.4027e-06
0.00230708
-8.37299e-06
0.00231013
-1.24161e-05
0.00231435
-1.78772e-05
0.0023201
-2.52181e-05
0.00232784
-3.50636e-05
0.00233814
-4.82678e-05
0.00235171
-6.60089e-05
0.00236942
-8.99241e-05
0.00239226
-0.000122294
0.00242125
-0.000166281
0.00245725
-0.000226197
0.0025004
-0.000307697
0.00254924
-0.000417639
0.00259932
-0.000563026
0.00264193
-0.000747968
-0.000968099
0.00266438
0.00259858
0.000452503
0.00270736
0.000984929
0.00279037
0.00121706
0.00283003
0.00123798
0.00283209
0.00113991
0.00280935
0.000988436
0.0027738
0.000823871
0.00273411
0.000667878
0.00269563
0.000530296
0.00266114
0.000414186
0.00263177
0.000319069
0.00260764
0.000242822
0.00258833
0.000182734
0.0025732
0.00013605
0.00256155
0.000100239
0.00255271
7.30931e-05
0.00254608
5.27533e-05
0.00254117
3.76927e-05
0.00253756
2.66787e-05
0.00253492
1.87313e-05
0.00253299
1.30801e-05
0.00253159
9.12582e-06
0.00253057
6.40564e-06
0.00252981
4.56352e-06
0.00252926
3.32546e-06
0.00252885
2.47872e-06
0.00252857
1.85463e-06
0.00252842
1.31424e-06
0.00252842
7.36103e-07
0.00252858
5.56487e-09
0.00252898
-9.95107e-07
0.00252968
-2.39653e-06
0.00253079
-4.35264e-06
0.00253244
-7.05275e-06
0.0025348
-1.07363e-05
0.0025381
-1.57118e-05
0.0025426
-2.23821e-05
0.00254866
-3.12787e-05
0.00255671
-4.31088e-05
0.00256726
-5.88195e-05
0.00258094
-7.96861e-05
0.00259844
-0.000107428
0.0026205
-0.000144353
0.00264774
-0.000193524
0.00268044
-0.000258887
0.002718
-0.000345266
0.00275832
-0.000457956
0.00279681
-0.000601519
0.00282601
-0.000777169
-0.000978751
0.00283667
0.00258679
0.000387976
0.00269332
0.000878401
0.00279085
0.00111953
0.00285729
0.00117154
0.00289101
0.00110619
0.0028992
0.00098024
0.00289087
0.000832207
0.00287363
0.000685114
0.00285291
0.000551015
0.00283209
0.000435005
0.00281303
0.000338132
0.00279655
0.0002593
0.00278286
0.000196423
0.00277182
0.000147097
0.0027631
0.000108955
0.00275635
7.98488e-05
0.00275118
5.7915e-05
0.00274728
4.1592e-05
0.00274436
2.95997e-05
0.00274219
2.09077e-05
0.00274057
1.46989e-05
0.00273936
1.03321e-05
0.00273846
7.30873e-06
0.00273778
5.24261e-06
0.00273727
3.83443e-06
0.0027369
2.84989e-06
0.00273665
2.10145e-06
0.00273653
1.43284e-06
0.00273656
7.05799e-07
0.00273678
-2.11621e-07
0.00273724
-1.45602e-06
0.00273803
-3.17947e-06
0.00273923
-5.56104e-06
0.002741
-8.81996e-06
0.0027435
-1.32315e-05
0.00274693
-1.91471e-05
0.00275157
-2.70201e-05
0.00275773
-3.74404e-05
0.0027658
-5.11792e-05
0.00277623
-6.92487e-05
0.00278952
-9.2978e-05
0.0028062
-0.000124106
0.00282673
-0.000164886
0.00285138
-0.000218174
0.00287995
-0.000287457
0.00291138
-0.000376695
0.00294322
-0.000489795
0.00297114
-0.000629432
0.00298893
-0.000794965
-0.000979682
0.00298986
0.00257781
0.000332432
0.00268039
0.000775822
0.0027864
0.00101351
0.00287231
0.00108563
0.00293151
0.00104699
0.00296651
0.000945241
0.00298321
0.000815512
0.00298769
0.000680631
0.00298492
0.000553784
0.00297844
0.00044148
0.00297056
0.000346013
0.00296264
0.000267223
0.0029554
0.000203667
0.00294914
0.000153352
0.00294395
0.000114152
0.00293974
8.40501e-05
0.00293641
6.12452e-05
0.00293381
4.41948e-05
0.0029318
3.16152e-05
0.00293024
2.24614e-05
0.00292904
1.58961e-05
0.00292812
1.12576e-05
0.0029274
8.02765e-06
0.00292684
5.80194e-06
0.00292641
4.26483e-06
0.00292609
3.1671e-06
0.00292589
2.30719e-06
0.00292581
1.51507e-06
0.00292587
6.38345e-07
0.00292613
-4.70233e-07
0.00292664
-1.9644e-06
0.00292748
-4.01599e-06
0.00292874
-6.82719e-06
0.00293057
-1.06445e-05
0.00293311
-1.57751e-05
0.00293657
-2.26075e-05
0.00294119
-3.16368e-05
0.00294725
-4.34979e-05
0.00295507
-5.90067e-05
0.00296504
-7.92116e-05
0.00297751
-0.000105456
0.00299285
-0.000139447
0.00301128
-0.000183314
0.00303276
-0.000239648
0.00305673
-0.000311432
0.00308185
-0.000401812
0.00310558
-0.000513524
0.003124
-0.000647853
0.00313207
-0.000803038
-0.000972465
0.00312485
0.00257103
0.000283666
0.0026692
0.000677651
0.00277983
0.000902881
0.00287968
0.000985776
0.002959
0.000967678
0.00301661
0.000887629
0.00305557
0.000776554
0.00308024
0.000655964
0.00309478
0.000539236
0.00310259
0.00043367
0.00310616
0.000342445
0.00310721
0.000266175
0.00310687
0.000204011
0.00310584
0.000154379
0.00310455
0.000115445
0.00310322
8.53735e-05
0.00310199
6.24807e-05
0.00310089
4.52923e-05
0.00309994
3.25634e-05
0.00309913
2.32683e-05
0.00309845
1.65783e-05
0.00309788
1.1833e-05
0.00309739
8.51157e-06
0.00309699
6.2049e-06
0.00309666
4.59108e-06
0.00309642
3.41354e-06
0.00309626
2.4624e-06
0.00309622
1.55819e-06
0.00309632
5.37678e-07
0.00309661
-7.58961e-07
0.00309714
-2.5002e-06
0.003098
-4.87518e-06
0.00309928
-8.10643e-06
0.0031011
-1.24641e-05
0.00310361
-1.82824e-05
0.00310698
-2.59799e-05
0.00311143
-3.60837e-05
0.00311719
-4.92596e-05
0.00312453
-6.63485e-05
0.00313373
-8.84092e-05
0.00314504
-0.000116765
0.00315864
-0.000153047
0.00317455
-0.000199223
0.00319248
-0.000257577
0.00321164
-0.000330599
0.00323054
-0.000420705
0.0032467
-0.000529687
0.00325669
-0.000657839
0.00325643
-0.000802784
-0.000958329
0.0032423
0.00256593
0.000239996
0.00265987
0.000583718
0.00277273
0.000790016
0.00288243
0.000876075
0.00297739
0.000872721
0.00305368
0.000811333
0.00311192
0.000718323
0.00315474
0.000613135
0.00318539
0.000508593
0.00320685
0.000412211
0.00322161
0.00032768
0.00323161
0.000256175
0.00323828
0.000197345
0.00324264
0.000150016
0.00324543
0.000112655
0.00324715
8.365e-05
0.00324816
6.14723e-05
0.00324869
4.4759e-05
0.00324892
3.23416e-05
0.00324894
2.3247e-05
0.00324883
1.66819e-05
0.00324866
1.20094e-05
0.00324844
8.72366e-06
0.00324822
6.42444e-06
0.00324802
4.79412e-06
0.00324786
3.57694e-06
0.00324776
2.56091e-06
0.00324776
1.56194e-06
0.00324788
4.09785e-07
0.00324819
-1.06471e-06
0.00324873
-3.04182e-06
0.00324958
-5.72498e-06
0.00325083
-9.35363e-06
0.00325258
-1.42172e-05
0.00325497
-2.06715e-05
0.00325815
-2.91574e-05
0.00326229
-4.02238e-05
0.00326758
-5.45537e-05
0.00327423
-7.2995e-05
0.00328241
-9.65933e-05
0.00329227
-0.000126624
0.00330384
-0.000164613
0.00331695
-0.000212338
0.00333115
-0.000271773
0.00334549
-0.000344943
0.00335842
-0.000433634
0.00336764
-0.000538907
0.00337018
-0.000660375
0.00336277
-0.000795374
-0.000938266
0.00334271
0.00256211
0.000200154
0.00265226
0.000493565
0.00276594
0.000676334
0.00288253
0.000759486
0.00298949
0.000765758
0.00308094
0.000719883
0.00315547
0.000643796
0.00321418
0.000554426
0.00325929
0.000463477
0.00329332
0.000378183
0.00331861
0.000302392
0.00333717
0.000237615
0.00335064
0.000183876
0.0033603
0.000140353
0.00336715
0.000105807
0.00337194
7.88648e-05
0.00337522
5.81875e-05
0.00337742
4.25559e-05
0.00337885
3.09111e-05
0.00337974
2.2362e-05
0.00338025
1.61761e-05
0.00338049
1.17612e-05
0.00338057
8.64328e-06
0.00338055
6.44464e-06
0.00338049
4.86253e-06
0.00338041
3.65023e-06
0.00338037
2.6001e-06
0.00338041
1.52849e-06
0.00338055
2.62318e-07
0.00338086
-1.37338e-06
0.00338139
-3.56732e-06
0.0033822
-6.53381e-06
0.00338337
-1.05253e-05
0.003385
-1.58459e-05
0.00338719
-2.28667e-05
0.00339008
-3.20436e-05
0.00339379
-4.39369e-05
0.00339847
-5.9234e-05
0.00340425
-7.87738e-05
0.00341123
-0.000103569
0.00341943
-0.000134827
0.00342877
-0.00017395
0.00343894
-0.000222513
0.00344936
-0.000282188
0.003459
-0.000354583
0.00346633
-0.000440964
0.00346925
-0.000541831
0.00346523
-0.000656356
0.00345166
-0.000781797
-0.000913104
0.00342649
0.00255924
0.000163176
0.00264618
0.000406622
0.00275989
0.000562623
0.00288125
0.000638136
0.00299731
0.000649697
0.00310082
0.000616369
0.0031888
0.000555818
0.003261
0.000482222
0.00331872
0.000405758
0.00336392
0.000332985
0.00339872
0.00026759
0.00342514
0.0002112
0.00344493
0.000164087
0.00345957
0.00012571
0.00347027
9.51069e-05
0.00347798
7.11498e-05
0.00348346
5.2707e-05
0.00348729
3.873e-05
0.0034899
2.8297e-05
0.00349164
2.06247e-05
0.00349275
1.50642e-05
0.00349343
1.1087e-05
0.0034938
8.267e-06
0.00349399
6.26161e-06
0.00349406
4.79315e-06
0.00349407
3.63194e-06
0.00349409
2.58104e-06
0.00349416
1.46234e-06
0.00349432
1.04147e-07
0.00349461
-1.67057e-06
0.0034951
-4.05542e-06
0.00349584
-7.27192e-06
0.0034969
-1.15814e-05
0.00349835
-1.72976e-05
0.00350028
-2.48013e-05
0.00350279
-3.45552e-05
0.00350598
-4.71221e-05
0.00350993
-6.31821e-05
0.00351471
-8.35514e-05
0.00352033
-0.000109196
0.00352674
-0.000141239
0.00353374
-0.000180949
0.00354093
-0.000229699
0.00354762
-0.000288881
0.00355278
-0.000359738
0.00355493
-0.000443115
0.0035522
-0.000539099
0.00354243
-0.000646591
0.00352354
-0.000762901
-0.000883545
0.00349398
0.00255711
0.000128325
0.00264144
0.000322296
0.00275479
0.000449268
0.00287939
0.000513536
0.00300223
0.000526857
0.00311514
0.000503466
0.00321391
0.000457041
0.00329723
0.000398911
0.00336553
0.000337455
0.00342027
0.000278244
0.00346332
0.000224538
0.00349663
0.00017789
0.00352203
0.000138689
0.00354113
0.000106609
0.00355531
8.09311e-05
0.00356568
6.07712e-05
0.00357317
4.52166e-05
0.0035785
3.34093e-05
0.00358221
2.45858e-05
0.00358474
1.80922e-05
0.00358642
1.33828e-05
0.0035875
1.00097e-05
0.00358816
7.60854e-06
0.00358853
5.88346e-06
0.00358874
4.59105e-06
0.00358884
3.52611e-06
0.00358891
2.5083e-06
0.00358901
1.36995e-06
0.00358917
-5.51304e-08
0.00358944
-1.94231e-06
0.00358987
-4.4865e-06
0.00359051
-7.91267e-06
0.00359142
-1.24868e-05
0.00359265
-1.85276e-05
0.00359426
-2.64191e-05
0.00359633
-3.66245e-05
0.00359891
-4.96999e-05
0.00360204
-6.63087e-05
0.00360572
-8.72334e-05
0.00360991
-0.000113382
0.00361445
-0.000145785
0.00361908
-0.000185575
0.00362331
-0.000233932
0.00362642
-0.000291991
0.00362737
-0.000360689
0.00362479
-0.000440537
0.00361702
-0.000531328
0.00360224
-0.00063181
0.00357876
-0.000739423
-0.000850208
0.00354543
0.00255557
9.50202e-05
0.00263785
0.000240012
0.00275072
0.000336405
0.00287749
0.000386763
0.00300525
0.000399093
0.00312523
0.000383486
0.00323236
0.000349914
0.00332443
0.000306837
0.00340123
0.000260658
0.00346374
0.000215736
0.00351358
0.000174694
0.00355263
0.000138845
0.00358273
0.000108586
0.0036056
8.37375e-05
0.00362274
6.37966e-05
0.0036354
4.81116e-05
0.00364462
3.59956e-05
0.00365123
2.67941e-05
0.0036559
1.99192e-05
0.00365913
1.48634e-05
0.00366131
1.11996e-05
0.00366275
8.57447e-06
0.00366366
6.69769e-06
0.00366421
5.32958e-06
0.00366453
4.26907e-06
0.00366472
3.34188e-06
0.00366484
2.38956e-06
0.00366495
1.25931e-06
0.0036651
-2.05722e-07
0.00366533
-2.1757e-06
0.00366569
-4.84337e-06
0.00366621
-8.43346e-06
0.00366693
-1.32126e-05
0.00366791
-1.94995e-05
0.00366916
-2.76765e-05
0.00367074
-3.82001e-05
0.00367265
-5.1613e-05
0.0036749
-6.85534e-05
0.00367743
-8.9762e-05
0.00368013
-0.000116082
0.00368279
-0.000148448
0.00368507
-0.000187856
0.00368645
-0.000235308
0.00368617
-0.000291717
0.00368324
-0.00035776
0.0036764
-0.000433692
0.00366417
-0.000519101
0.00364503
-0.000612673
0.00361762
-0.000712014
-0.00081364
0.00358105
0.00255449
6.27922e-05
0.00263528
0.000159222
0.00274767
0.000224013
0.00287585
0.000258588
0.00300702
0.000267917
0.00313206
0.000258453
0.00324527
0.000236699
0.00334384
0.000208272
0.00342701
0.000177488
0.00349541
0.000147336
0.00355045
0.000119649
0.00359392
9.53735e-05
0.00362768
7.48255e-05
0.0036535
5.79191e-05
0.00367296
4.43367e-05
0.00368742
3.36502e-05
0.00369802
2.54009e-05
0.00370567
1.91465e-05
0.0037111
1.44867e-05
0.00371489
1.10727e-05
0.00371748
8.60852e-06
0.00371921
6.8462e-06
0.00372033
5.57828e-06
0.00372103
4.62929e-06
0.00372145
3.84681e-06
0.0037217
3.09276e-06
0.00372185
2.23503e-06
0.00372197
1.13941e-06
0.00372211
-3.38188e-07
0.00372229
-2.35953e-06
0.00372256
-5.11195e-06
0.00372294
-8.81649e-06
0.00372347
-1.37365e-05
0.00372415
-2.01867e-05
0.00372502
-2.85421e-05
0.00372607
-3.92475e-05
0.00372728
-5.28257e-05
0.00372861
-6.98837e-05
0.00372996
-9.11143e-05
0.00373117
-0.000117292
0.00373198
-0.000149254
0.00373199
-0.00018787
0.00373066
-0.000233978
0.00372724
-0.000288297
0.00372078
-0.000351296
0.00371012
-0.000423035
0.00369399
-0.000502969
0.0036711
-0.000589778
0.00364034
-0.000681257
-0.00077434
0.00360104
0.00255381
3.12451e-05
0.00263362
7.94089e-05
0.00274566
0.000111976
0.00287467
0.000129578
0.00300799
0.000134594
0.00313628
0.000130169
0.00325346
0.000119512
0.00335631
0.000105422
0.00344373
9.00714e-05
0.00351609
7.49788e-05
0.00357465
6.10872e-05
0.00362113
4.8891e-05
0.00365739
3.85649e-05
0.00368523
3.00765e-05
0.0037063
2.32724e-05
0.00372201
1.79404e-05
0.00373356
1.38498e-05
0.00374193
1.07764e-05
0.0037479
8.51456e-06
0.00375209
6.88314e-06
0.00375497
5.72514e-06
0.00375692
4.90525e-06
0.00375819
4.30541e-06
0.003759
3.81977e-06
0.0037595
3.34916e-06
0.00375979
2.7956e-06
0.00375997
2.05661e-06
0.00376009
1.0196e-06
0.0037602
-4.43992e-07
0.00376032
-2.48477e-06
0.00376049
-5.28178e-06
0.00376072
-9.04926e-06
0.00376103
-1.40439e-05
0.00376142
-2.05721e-05
0.00376187
-2.89978e-05
0.00376237
-3.9749e-05
0.00376287
-5.33237e-05
0.00376328
-7.02928e-05
0.00376347
-9.12981e-05
0.00376322
-0.000117043
0.00376224
-0.000148273
0.0037601
-0.000185736
0.00375625
-0.000230126
0.00374995
-0.000281999
0.00374031
-0.000341657
0.00372629
-0.000409015
0.00370677
-0.000483451
0.00368067
-0.000563677
0.0036471
-0.00064768
-0.000732768
0.00360552
0.00255348
2.75879e-08
0.00263281
7.84794e-08
0.00274466
1.28201e-07
0.00287406
1.79414e-07
0.00300842
2.34341e-07
0.00313829
2.95006e-07
0.00325744
3.63316e-07
0.00336242
4.41112e-07
0.00345196
5.30184e-07
0.00352631
6.32253e-07
0.00358665
7.48921e-07
0.00363466
8.81589e-07
0.00367219
1.03134e-06
0.00370107
1.19877e-06
0.00372296
1.38379e-06
0.00373931
1.58532e-06
0.00375136
1.80093e-06
0.00376011
2.02641e-06
0.00376637
2.25516e-06
0.00377078
2.47747e-06
0.00377382
2.67966e-06
0.00377588
2.84291e-06
0.00377725
2.94201e-06
0.00377812
2.94369e-06
0.00377867
2.80466e-06
0.00377899
2.46934e-06
0.00377918
1.86708e-06
0.00377929
9.08939e-07
0.00377937
-5.16019e-07
0.00377943
-2.54502e-06
0.00377949
-5.34638e-06
0.00377957
-9.12486e-06
0.00377965
-1.41274e-05
0.00377973
-2.06489e-05
0.00377977
-2.90382e-05
0.00377972
-3.97027e-05
0.00377951
-5.31121e-05
0.00377901
-6.97978e-05
0.00377807
-9.03489e-05
0.00377642
-0.000115399
0.00377375
-0.000145604
0.00376962
-0.000181604
0.00376346
-0.000223966
0.00375457
-0.00027311
0.00374212
-0.000329206
0.00372517
-0.000392068
0.00370276
-0.000461033
0.00367395
-0.000534875
0.00363804
-0.00061177
-0.000689353
0.00359463
0.00255348
-3.11904e-05
0.00263281
-7.9253e-05
0.00274466
-0.000111722
0.00287406
-0.000129222
0.00300843
-0.000134129
0.0031383
-0.000129583
0.00325746
-0.00011879
0.00336244
-0.000104545
0.00345199
-8.90171e-05
0.00352634
-7.37214e-05
0.00358669
-5.95977e-05
0.00363471
-4.71375e-05
0.00367225
-3.65134e-05
0.00370115
-2.76918e-05
0.00372305
-2.05194e-05
0.00373942
-1.47861e-05
0.00375149
-1.02663e-05
0.00376026
-6.74368e-06
0.00376654
-4.0261e-06
0.00377097
-1.95147e-06
0.00377404
-3.90063e-07
0.00377612
7.56135e-07
0.00377751
1.55505e-06
0.00377841
2.04645e-06
0.00377897
2.24348e-06
0.0037793
2.13367e-06
0.00377949
1.67907e-06
0.00377959
8.15492e-07
0.00377962
-5.49052e-07
0.00377961
-2.5368e-06
0.00377957
-5.30347e-06
0.00377949
-9.04207e-06
0.00377935
-1.39872e-05
0.00377912
-2.04196e-05
0.00377875
-2.86698e-05
0.00377817
-3.91219e-05
0.00377727
-5.22141e-05
0.00377591
-6.8437e-05
0.00377389
-8.83262e-05
0.00377093
-0.000112448
0.00376671
-0.000141375
0.00376075
-0.00017565
0.00375252
-0.000215731
0.00374133
-0.000261926
0.00372643
-0.000314305
0.00370698
-0.000372613
0.00368212
-0.000436177
0.00365109
-0.000503847
0.0036133
-0.000573978
-0.000644498
0.00356845
0.00255381
-6.27388e-05
0.00263363
-0.000159069
0.00274567
-0.000223763
0.00287469
-0.000258238
0.00300802
-0.00026746
0.00313631
-0.000257877
0.00325351
-0.00023599
0.00335638
-0.00020741
0.00344381
-0.000176452
0.00351619
-0.0001461
0.00357478
-0.000118185
0.00362129
-9.36488e-05
0.00365758
-7.28073e-05
0.00368546
-5.55726e-05
0.00370657
-4.16271e-05
0.00372233
-3.0545e-05
0.00373393
-2.18719e-05
0.00374236
-1.5174e-05
0.0037484
-1.00635e-05
0.00375266
-6.2106e-06
0.00375562
-3.34593e-06
0.00375763
-1.258e-06
0.00375897
2.11523e-07
0.00375985
1.1733e-06
0.0037604
1.69543e-06
0.00376072
1.80761e-06
0.0037609
1.50416e-06
0.00376097
7.45733e-07
0.00376096
-5.40165e-07
0.00376088
-2.45984e-06
0.00376073
-5.15502e-06
0.0037605
-8.80529e-06
0.00376014
-1.36309e-05
0.00375962
-1.98959e-05
0.00375886
-2.79107e-05
0.00375777
-3.80333e-05
0.00375622
-5.06691e-05
0.00375405
-6.62669e-05
0.00375104
-8.53098e-05
0.00374689
-0.0001083
0.00374125
-0.000135734
0.00373367
-0.000168068
0.0037236
-0.000205668
0.00371043
-0.000248751
0.00369344
-0.000297314
0.00367188
-0.000351056
0.00364502
-0.000409318
0.00361221
-0.000471034
0.00357296
-0.000534731
-0.000598592
0.00352705
0.00255449
-9.49688e-05
0.00263529
-0.000239865
0.00274769
-0.000336164
0.00287588
-0.000386425
0.00300707
-0.00039865
0.00313212
-0.000382928
0.00324535
-0.000349225
0.00334394
-0.000306
0.00342714
-0.000259652
0.00349558
-0.000214534
0.00355066
-0.000173271
0.00359418
-0.000137168
0.003628
-0.000106623
0.00365388
-8.14539e-05
0.00367341
-6.11587e-05
0.00368795
-4.5087e-05
0.00369864
-3.25567e-05
0.00370638
-2.29209e-05
0.00371192
-1.5604e-05
0.00371583
-1.01165e-05
0.00371854
-6.05709e-06
0.00372039
-3.10777e-06
0.00372163
-1.02555e-06
0.00372243
3.66545e-07
0.00372294
1.188e-06
0.00372324
1.50816e-06
0.00372339
1.35196e-06
0.00372344
7.03984e-07
0.00372338
-4.89017e-07
0.00372324
-2.31709e-06
0.00372299
-4.90718e-06
0.00372261
-8.4242e-06
0.00372205
-1.30726e-05
0.00372126
-1.90981e-05
0.00372013
-2.67889e-05
0.00371858
-3.64759e-05
0.00371644
-4.85306e-05
0.00371353
-6.33601e-05
0.00370962
-8.13968e-05
0.0037044
-0.000103083
0.00369751
-0.000128846
0.00368851
-0.000159067
0.00367688
-0.000194033
0.00366202
-0.000233892
0.00364329
-0.000278583
0.00362002
-0.000327788
0.00359157
-0.000380872
0.00355739
-0.000436856
0.00351709
-0.000494431
-0.000552005
0.00347051
0.00255557
-0.000128276
0.00263786
-0.000322157
0.00275074
-0.000449039
0.00287753
-0.000513213
0.00300531
-0.000526433
0.00312531
-0.000502931
0.00323247
-0.000456381
0.00332458
-0.000398109
0.00340141
-0.000336489
0.00346397
-0.00027709
0.00351387
-0.000223171
0.00355298
-0.000176278
0.00358316
-0.000136801
0.00360612
-0.000104412
0.00362335
-7.83917e-05
0.00363612
-5.78579e-05
0.00364547
-4.1902e-05
0.00365222
-2.96731e-05
0.00365703
-2.04197e-05
0.00366042
-1.35048e-05
0.00366277
-8.40703e-06
0.00366438
-4.71203e-06
0.00366545
-2.10083e-06
0.00366616
-3.37144e-07
0.0036666
7.44514e-07
0.00366686
1.24911e-06
0.00366698
1.22937e-06
0.00366699
6.91993e-07
0.0036669
-3.98013e-07
0.0036667
-2.11471e-06
0.00366636
-4.57e-06
0.00366585
-7.91341e-06
0.00366511
-1.23325e-05
0.00366407
-1.80535e-05
0.00366262
-2.53415e-05
0.00366064
-3.44992e-05
0.00365798
-4.58641e-05
0.00365442
-5.98023e-05
0.00364972
-7.66981e-05
0.00364357
-9.6938e-05
0.00363562
-0.000120888
0.00362541
-0.000148863
0.00361247
-0.000181087
0.00359623
-0.000217651
0.0035761
-0.00025846
0.0035515
-0.000303187
0.00352186
-0.000351234
0.00348672
-0.000401714
0.00344576
-0.000453465
-0.000505099
0.00339885
0.00255712
-0.000163131
0.00264145
-0.000406492
0.00275482
-0.000562407
0.00287944
-0.000637832
0.0030023
-0.000649297
0.00311524
-0.000615864
0.00321405
-0.000555194
0.0032974
-0.000481462
0.00336576
-0.000404843
0.00342056
-0.000331891
0.00346368
-0.000266292
0.00349707
-0.00020967
0.00352256
-0.000162294
0.00354177
-0.000123622
0.00355607
-9.26912e-05
0.00356659
-6.83763e-05
0.00357424
-4.95487e-05
0.00357973
-3.51668e-05
0.00358363
-2.43194e-05
0.00358637
-1.62391e-05
0.00358826
-1.03e-05
0.00358955
-6.0048e-06
0.00359042
-2.96998e-06
0.00359099
-9.08981e-07
0.00359135
3.82615e-07
0.00359156
1.04006e-06
0.00359165
1.14003e-06
0.00359164
7.08686e-07
0.00359151
-2.72316e-07
0.00359126
-1.8619e-06
0.00359084
-4.1571e-06
0.00359022
-7.29181e-06
0.00358933
-1.14362e-05
0.00358807
-1.67963e-05
0.00358634
-2.36133e-05
0.003584
-3.21616e-05
0.00358088
-4.27449e-05
0.00357677
-5.569e-05
0.00357141
-7.13355e-05
0.00356449
-9.00171e-05
0.00355565
-0.000112046
0.00354446
-0.00013768
0.00353047
-0.000167094
0.00351315
-0.000200334
0.00349198
-0.000237282
0.00346641
-0.000277617
0.00343596
-0.000320786
0.00340023
-0.000365991
0.00335898
-0.000412207
-0.000458228
0.00331211
0.00255924
-0.000200113
0.0026462
-0.000493445
0.00275993
-0.000676135
0.0028813
-0.000759204
0.00299739