/*--------------------------------*- C++ -*----------------------------------*\
  =========                 |
  \\      /  F ield         | OpenFOAM: The Open Source CFD Toolbox
   \\    /   O peration     | Website:  https://openfoam.org
    \\  /    A nd           | Version:  6
     \\/     M anipulation  |
\*---------------------------------------------------------------------------*/
FoamFile
{
    version     2.0;
    format      ascii;
    class       volVectorField;
    location    "0";
    object      U;
}
// * * * * * * * * * * * * * * * * * * * * * * * * * * * * * * * * * * * * * //

dimensions      [0 1 -1 0 0 0 0];

internalField   nonuniform List<vector> 
918
(
(0.986102 0.00267009 0)
(-0.00410059 2.96747 0)
(0.00657241 1.69417 0)
(0.98074 -0.00154824 0)
(-0.00977648 1.66035 -1.49613e-21)
(0.00142236 2.951 -1.407e-18)
(0.900185 1.18136 4.68993e-19)
(0.522878 0.273433 -6.07129e-21)
(1.00006 6.05883e-05 0)
(0.0716353 1.53172 0)
(-0.0136901 1.56027 0)
(0.878117 0.000906913 0)
(0.00907561 2.93412 0)
(0.00289441 2.79692 0)
(0.000648674 3.17827 7.66485e-19)
(-0.00291751 1.60497 -1.26544e-20)
(0.634162 0.125816 3.68549e-19)
(0.269418 1.76037 3.59888e-19)
(0.973744 0.0156428 0)
(0.00315577 1.59505 0)
(0.261768 0.306917 -3.25346e-19)
(1.00134 -0.00424364 0)
(1.00123 -0.00758382 0)
(0.974266 -0.00360436 0)
(0.817852 -0.0307229 0)
(0.0309485 2.63725 0)
(-0.0105652 2.91469 4.71541e-19)
(-0.00791181 1.70151 0)
(-0.0048133 1.76917 0)
(-0.0101583 1.72139 0)
(-0.00449179 1.80192 0)
(0.000228073 1.68124 1.17192e-21)
(-0.00254357 1.60334 0)
(-0.0196926 2.98955 -4.94019e-23)
(-0.0138184 3.00795 1.10809e-18)
(0.00158083 2.9997 0)
(0.913329 8.76611e-05 0)
(0.213826 0.813492 -2.74814e-20)
(0.839683 1.2403 -6.40111e-19)
(0.994417 1.02633 6.20116e-19)
(0.719133 1.38294 -1.05162e-19)
(0.782394 1.31471 5.90927e-19)
(0.571261 0.327844 5.92161e-21)
(0.573451 0.222454 0)
(1.2005 0.560361 0)
(0.513977 0.338374 2.74347e-20)
(0.496215 0.262094 -2.84766e-20)
(0.922195 -0.00207106 0)
(0.999411 0.000127584 0)
(0.999921 4.47479e-05 0)
(1.00236 -0.00707328 0)
(1.00136 -0.00202818 0)
(1.00016 -0.000652016 0)
(0.0197766 1.54152 -3.70196e-19)
(0.0514959 1.6584 0)
(0.110886 1.55536 0)
(0.014686 1.644 0)
(0.021023 1.47571 0)
(-0.00238001 1.59858 0)
(-0.0158497 1.64731 0)
(-0.00875785 1.55011 0)
(-0.0119944 1.66832 0)
(-0.00658336 1.57734 0)
(0.940743 0.0154916 0)
(0.936407 0.0058868 0)
(0.890416 -0.00620955 0)
(0.92575 0.0155396 0)
(0.855434 0.0219 0)
(0.0138431 3.00351 5.07413e-19)
(0.0117379 3.00441 0)
(0.0074285 3.00381 0)
(0.0109131 2.99792 5.67473e-24)
(0.00628956 2.9618 -7.63517e-19)
(0.0119196 2.98416 0)
(0.00841049 2.90863 0)
(0.0225248 2.9317 1.03842e-24)
(0.00517245 2.82612 0)
(0.0262373 2.91903 0)
(-0.00197623 2.74699 0)
(0.308608 3.58214 0)
(-0.128321 3.66094 0)
(0.149844 3.27274 -7.10251e-19)
(-0.00440044 3.01172 0)
(0.00158073 1.76117 0)
(-0.0028367 1.68522 1.24828e-20)
(-0.00400394 1.61295 -2.05839e-20)
(0.699759 0.167029 -1.26317e-19)
(0.666072 0.070037 -1.20245e-19)
(0.679431 0.193159 -3.8043e-19)
(0.642841 0.13631 -2.54917e-19)
(0.244176 1.2944 0)
(0.298965 1.8111 -3.82824e-19)
(0.481953 1.7189 6.39308e-19)
(0.991572 0.0126802 0)
(0.953743 0.0183882 0)
(1.00001 0.000719596 0)
(1.00318 0.00876239 0)
(1.00214 0.0148104 -6.40469e-19)
(0.991214 0.00628713 4.88295e-19)
(-0.00352226 1.67384 0)
(0.00476441 1.59814 0)
(-0.0103306 1.72731 0)
(-0.00717853 1.6848 0)
(0.00221344 1.597 0)
(0.307999 0.322758 1.00126e-19)
(0.340583 0.30455 0)
(0.991805 -0.00220756 0)
(0.963131 0.00436219 0)
(0.892643 0.0317816 0)
(0.874187 0.0150101 0)
(0.833189 0.00159019 0)
(1.06368 0.013582 0)
(0.84269 0.0100299 0)
(0.759 0.00544182 4.78813e-19)
(-0.034325 2.86604 2.73862e-19)
(0.0366566 2.91306 0)
(0.0459769 2.89029 0)
(0.00340453 2.70168 0)
(-0.00789519 2.98742 4.3887e-19)
(-0.0117962 2.8996 0)
(-0.0101689 2.99186 -1.37841e-18)
(-0.0100109 2.93227 4.74457e-19)
(-0.00323612 1.78974 0)
(0.00359804 1.77441 0)
(0.00282379 1.68589 -4.65164e-22)
(0.00792293 1.67585 0)
(-5.62237e-05 1.59495 0)
(0.960312 0.00764898 0)
(0.919246 0.011471 0)
(0.900925 -0.0137466 0)
(0.961435 -0.0047516 0)
(0.911841 -0.00821638 0)
(0.339341 1.06752 3.53721e-20)
(0.460408 1.19931 0)
(0.102042 0.616393 -5.80065e-21)
(0.210631 0.31058 0)
(0.944757 1.0825 -1.80483e-19)
(1.06701 0.855833 3.75977e-19)
(0.421269 1.71646 0)
(0.559876 1.54845 0)
(0.645907 1.52 0)
(0.365944 0.367152 -1.58127e-19)
(0.610864 0.288822 0)
(0.594137 0.212958 7.45116e-20)
(1.02878 0.91731 0)
(1.11842 0.744265 0)
(1.14106 0.686047 -3.41715e-19)
(1.20145 0.590345 0)
(1.25478 0.41341 3.69021e-20)
(0.961903 0.00174586 0)
(0.956929 -0.00277201 0)
(0.912748 0.00401895 0)
(0.988853 -0.00127166 0)
(0.967956 7.77872e-05 0)
(0.946849 0.00119884 0)
(1.00109 0.00221693 0)
(1.00012 0.000159891 0)
(0.999907 0.0004267 0)
(0.00822551 1.61259 2e-19)
(0.0560019 1.5327 0)
(0.00444482 1.62982 3.31934e-19)
(0.0152648 1.55776 -2.88425e-19)
(0.138387 1.77812 -2.99222e-19)
(0.0534542 1.70591 0)
(0.221239 1.65881 0)
(-0.0103252 1.61883 0)
(-0.00706915 1.49224 0)
(-0.00889694 1.6802 -9.2679e-22)
(-0.0124321 1.62085 0)
(-0.00359668 1.68434 -4.35576e-20)
(0.0022555 1.61415 8.38109e-20)
(-0.0218358 1.63601 0)
(-0.0105822 1.65051 0)
(-0.00550517 1.53173 0)
(-0.00830471 1.67735 0)
(0.00379728 1.5809 0)
(1.00117 0.0146379 0)
(0.963464 -0.000841027 0)
(0.982176 0.0121647 0)
(0.93735 0.00851742 0)
(0.895596 0.00261806 0)
(0.949424 0.0116988 0)
(0.945599 -0.000249161 0)
(0.893422 0.00199048 0)
(0.00805253 3.06344 -4.35014e-21)
(0.0117776 3.05727 0)
(0.0120342 2.97221 0)
(0.0071711 2.88172 0)
(0.91826 3.98835 0)
(1.22469 3.37536 7.39949e-19)
(0.0750822 3.09274 0)
(-0.0203037 2.9228 0)
(0.0095404 1.76131 0)
(0.0125029 1.74899 0)
(0.00724202 1.75203 0)
(0.000769695 1.79128 3.23382e-21)
(0.00731649 1.77285 0)
(-0.00514477 1.78443 0)
(-0.00390441 1.60233 8.93052e-22)
(-0.00097432 1.68241 2.72396e-20)
(0.000994455 1.68006 2.10514e-20)
(0.00374449 1.59639 0)
(0.722226 0.115937 1.82819e-19)
(0.675411 0.0383995 -1.77833e-19)
(0.188535 1.39263 0)
(0.308548 1.23236 -1.687e-19)
(0.150888 1.43755 -4.92813e-19)
(0.183612 1.35579 4.91718e-19)
(0.897126 0.00998035 0)
(0.970001 0.0174623 0)
(0.980428 0.0237162 0)
(0.930712 0.026507 0)
(0.00755813 1.678 0)
(0.00011849 1.67568 0)
(0.00999673 1.59057 0)
(0.46957 0.355247 2.51953e-19)
(0.420579 0.347423 -3.08509e-19)
(0.432982 0.263367 0)
(1.18449 0.0834855 -4.67113e-21)
(1.16988 0.0291572 0)
(1.0893 0.0470429 0)
(1.00514 0.00523923 0)
(0.741295 0.0976971 0)
(0.779292 0.0816825 -7.66898e-19)
(0.703695 0.050148 2.92487e-19)
(0.0102567 2.9826 3.32946e-19)
(-0.0271696 2.86734 3.41952e-20)
(0.00685557 3.0485 -9.37533e-21)
(0.0152909 3.04203 3.56018e-19)
(-0.00934609 2.99929 1.58175e-20)
(-0.00885263 2.95374 -6.4588e-23)
(-0.0153765 3.01276 -3.01671e-19)
(0.0120692 3.02417 2.12444e-19)
(0.0057843 3.03154 -3.39867e-19)
(0.98212 0.00713741 0)
(0.97699 0.0080451 0)
(0.92793 0.00582814 0)
(0.953149 0.0125467 0)
(0.953643 -0.00647605 0)
(0.89522 -0.00126329 0)
(0.954085 0.000905622 0)
(0.950357 -0.00719159 0)
(0.901903 -0.0112312 0)
(0.652455 1.45279 1.78481e-19)
(0.70123 1.5725 0)
(0.126995 -0.111576 -1.65853e-20)
(0.321728 0.358289 -3.07371e-19)
(0.219275 0.35198 1.69213e-19)
(0.152038 -0.028516 -3.48996e-19)
(0.3903 0.843621 8.65619e-19)
(0.389148 0.645044 2.29691e-19)
(0.675397 0.233354 2.76954e-19)
(0.63514 0.2765 6.80539e-20)
(0.620641 0.186978 1.42497e-19)
(1.24869 0.44741 2.22395e-19)
(1.27892 0.255372 2.32668e-19)
(0.0144107 1.65329 1.34507e-19)
(0.0221451 1.61137 0)
(1.03547 0.0217503 0)
(1.00911 0.00701657 0)
(0.97234 -0.0028834 0)
(0.0117769 3.06991 0)
(0.0183681 2.94671 6.02136e-19)
(0.0138286 2.95907 0)
(0.00588497 2.85532 -5.97699e-19)
(0.0100984 3.08942 1.41994e-19)
(0.0122113 3.08105 0)
(0.742002 1.85719 -1.54932e-19)
(1.27654 2.62317 5.19448e-19)
(0.728828 2.01996 -1.09184e-18)
(0.0219346 2.98403 -2.54349e-19)
(0.0387138 3.00809 0)
(-0.031929 2.88356 0)
(0.000594378 1.67758 -1.45922e-21)
(-0.00575921 1.6847 -6.20922e-20)
(-0.000300335 1.60502 -5.2042e-21)
(0.256346 1.33557 5.40101e-19)
(0.356072 1.18396 -3.63954e-19)
(0.0461103 1.58181 3.27226e-19)
(0.0924084 1.50921 -4.03868e-19)
(0.116448 1.45991 4.99052e-20)
(0.00686372 3.11638 -7.79813e-19)
(0.0167387 3.1168 8.62954e-19)
(-0.0044548 2.98238 3.92535e-19)
(-0.000741805 2.97825 -3.58952e-19)
(-0.0149825 2.88308 -3.99905e-19)
(0.0122373 3.09518 -1.04288e-18)
(0.0042904 3.10497 1.0457e-18)
(0.475791 0.678359 0)
(0.451884 0.480251 3.75421e-20)
(0.250166 0.0466629 1.87478e-20)
(0.402682 0.983351 6.53001e-19)
(0.410541 0.849532 -1.00109e-18)
(1.25614 0.178673 -4.34281e-20)
(1.2787 0.307853 0)
(1.25644 0.13176 9.14911e-20)
(-0.0125554 1.7031 -1.06012e-21)
(0.00557642 1.68608 0)
(0.00523641 1.63945 0)
(0.327073 1.23469 -1.86112e-19)
(0.368933 1.10015 -4.54514e-19)
(0.394667 1.03305 8.0771e-19)
(1.00524 -0.014677 0)
(1.00173 -0.00504444 1.18145e-19)
(-0.00692678 1.78994 0)
(-0.010003 1.79647 0)
(1.00184 0.00090359 -7.25732e-23)
(1.00555 0.00615018 2.39296e-19)
(0.000543648 1.79182 -4.21428e-21)
(-0.00479979 1.79329 0)
(0.0494629 3.1781 1.20627e-19)
(0.372919 3.53213 0)
(1.09751 0.710415 5.28561e-20)
(1.0037 0.00615205 -2.38696e-21)
(1.00085 -0.00841746 0)
(1.00085 -0.00352917 2.54029e-22)
(0.0402204 1.83608 0)
(0.019764 1.74237 0)
(-0.00453274 1.80049 0)
(-0.00210833 1.78183 6.18162e-20)
(0.000118045 1.78723 3.18616e-20)
(0.999665 0.017266 9.42493e-22)
(1.04256 0.00376086 0)
(1.07084 0.0289493 0)
(0.0176631 1.75474 0)
(0.00914661 1.7776 0)
(-0.00588427 1.79156 0)
(0.132707 1.8681 -1.58964e-19)
(1.01208 -0.0211879 0)
(1.00746 -0.0247482 0)
(1.00608 -0.00165132 1.48731e-19)
(0.99923 -0.00340375 -1.80003e-19)
(1.00221 -0.00260022 0)
(0.00915033 1.7614 0)
(-0.00439 1.78937 0)
(0.00664407 1.77078 0)
(-0.00336773 1.79366 0)
(-0.00391065 1.79123 0)
(-0.00368448 1.79379 0)
(1.02312 0.00205953 0)
(1.01804 0.00570457 -2.63219e-22)
(0.66557 1.17946 3.13887e-19)
(1.00051 -0.00152392 -1.48654e-19)
(1.00124 0.00284991 1.78762e-19)
(1.00107 0.00199283 0)
(1.0051 0.00658361 1.45874e-19)
(1.00749 0.00433517 -1.8061e-19)
(0.998925 -0.00202057 0)
(0.00862482 1.78416 0)
(-0.00198327 1.79276 1.15381e-20)
(-0.00296629 1.78299 -8.65305e-21)
(1.14884 0.252307 -5.51782e-20)
(1.09883 0.0853408 0)
(0.0668005 3.08755 -4.02578e-19)
(0.0535854 2.86555 -3.12838e-20)
(0.121395 3.21226 4.74721e-19)
(0.13044 3.22739 -4.33607e-20)
(0.136688 3.25105 0)
(0.0237972 3.13741 9.79682e-20)
(0.0717364 3.16526 3.96997e-19)
(0.0703348 3.18705 -1.88122e-19)
(0.0312576 3.12494 0)
(0.701697 0.347076 0)
(0.605727 0.399859 0)
(1.07272 0.717637 -1.79778e-19)
(1.02781 0.804632 2.63438e-19)
(1.10933 0.565454 0)
(1.13689 0.554792 0)
(1.00951 0.0102331 -2.74492e-19)
(1.01227 0.00907134 3.38897e-19)
(1.00866 -0.00545206 0)
(1.01229 0.000268346 0)
(1.01855 -0.00778742 0)
(1.01894 0.0110479 0)
(1.01108 -0.00275361 0)
(1.01623 0.014927 0)
(1.00781 0.00465353 0)
(1.00476 0.00317845 0)
(0.0428362 1.83409 0)
(0.0262996 1.8303 0)
(0.0477744 1.85533 0)
(0.026566 1.85886 0)
(0.0332815 1.7276 0)
(0.0471475 1.72737 -2.1754e-19)
(0.0216998 1.75422 0)
(0.0270282 1.74838 1.07169e-19)
(0.0381004 1.76985 -1.13353e-19)
(-0.00476767 1.80274 0)
(-0.00560863 1.80091 0)
(-0.00946925 1.80153 0)
(-0.0135739 1.81024 0)
(0.00304115 1.78694 -3.7397e-20)
(0.00226024 1.78782 4.50204e-20)
(0.00435334 1.78989 5.80268e-20)
(0.00675946 1.78997 0)
(-0.0035658 1.78871 -7.39049e-20)
(-0.00209913 1.78462 -4.27716e-20)
(0.00618524 1.78591 3.0496e-20)
(0.000857141 1.78391 -5.75607e-20)
(0.00735034 1.78887 -6.89202e-20)
(1.00727 0.0138163 2.56443e-19)
(1.01168 0.00494028 -3.23867e-19)
(1.00255 0.025324 -2.689e-19)
(0.987787 0.0189607 3.42079e-19)
(1.04108 0.0127207 0)
(1.04491 0.00267097 0)
(1.06036 0.0320396 0)
(1.0435 0.00189559 0)
(1.06231 0.0137096 0)
(1.08844 0.0605343 0)
(1.07622 0.0396202 0)
(1.09416 0.0403667 0)
(0.0111105 1.7783 -1.56834e-21)
(0.0186367 1.75409 0)
(0.0152824 1.76556 0)
(0.00829818 1.77958 1.41424e-20)
(0.00712885 1.7804 -5.95009e-22)
(0.00293433 1.76883 1.24948e-20)
(-0.000118513 1.77378 -1.2606e-20)
(-0.00366954 1.79059 0)
(-0.00275946 1.79023 0)
(-0.00361276 1.78922 0)
(-0.00509148 1.79203 0)
(-0.004678 1.78986 0)
(0.200512 1.82944 2.79951e-19)
(0.206421 1.76852 1.46696e-19)
(0.356674 1.61382 -1.35348e-19)
(0.167443 1.66562 3.33016e-19)
(0.202952 1.80587 8.82651e-20)
(1.00025 -0.0127836 0)
(1.00242 -0.0249785 0)
(0.991761 -0.0283801 0)
(1.02009 -0.013217 0)
(1.00469 -0.0108382 0)
(1.00002 -0.010215 0)
(1.00203 -0.0159624 0)
(0.996289 -0.0145623 0)
(1.02068 0.00249619 2.50489e-19)
(1.02526 3.94432e-06 -3.20201e-19)
(1.01675 0.00740583 -2.4835e-19)
(1.01455 0.00678368 3.13642e-19)
(0.68268 1.22227 0)
(0.538187 1.34477 3.43285e-19)
(0.775192 1.10353 2.16306e-19)
(0.81018 1.11599 -2.88897e-19)
(1.07704 2.72564 -5.10377e-19)
(0.823275 0.119266 1.83828e-19)
(1.10241 0.0875287 0)
(1.15181 0.175867 5.00617e-20)
(1.16058 0.146488 3.40664e-21)
(0.97331 0.121063 0)
(0.111121 3.03786 -3.08771e-20)
(0.116157 2.90944 -4.56935e-19)
(0.0646247 2.33941 3.20174e-19)
(0.215223 0.144416 -1.40238e-19)
(0.354689 3.42411 -2.88168e-19)
(0.192068 3.32739 0)
(0.211386 3.3824 3.752e-19)
(0.230519 3.08301 -1.65171e-19)
(0.259978 3.18455 0)
(0.00635576 3.11915 2.15329e-20)
(0.0184926 3.12816 -2.67075e-19)
(0.0163569 3.12365 3.92341e-19)
(0.0372633 3.13802 0)
(0.0357428 3.14992 0)
(1.29402 2.61084 0)
(0.583649 0.857441 -1.69278e-19)
(0.946761 0.992775 -1.36455e-19)
(0.910439 0.995139 0)
(0.826728 0.908277 4.88847e-20)
(1.02493 0.853726 2.14917e-20)
(0.440494 0.453705 -3.68272e-19)
(0.727479 0.341149 -1.41779e-20)
(0.738453 0.320974 1.43966e-19)
(0.6162 0.422594 1.18609e-20)
(0.575554 0.429483 -4.85999e-19)
(0.69385 0.36155 0)
(0.676694 0.42464 2.43822e-19)
(0.676738 0.422404 0)
(0.644672 0.418137 0)
(0.666117 0.366326 0)
(0.748944 0.585684 7.81734e-20)
(1.15179 0.264323 3.87948e-20)
(1.15208 0.40483 0)
(1.1805 0.392503 0)
(0.798761 0.22213 2.19691e-19)
(0.772538 0.547984 -1.20238e-19)
(0.709122 0.481684 1.94248e-19)
(0.882653 0.410492 -1.72614e-19)
(1.02493 -0.00152357 1.74318e-19)
(1.01893 0.00324753 -1.83616e-19)
(1.02277 0.00286208 0)
(1.02069 0.00996903 0)
(1.01166 0.00922447 -1.64749e-19)
(1.017 0.000765756 1.64255e-19)
(1.01374 0.00234654 0)
(1.01237 0.00391736 0)
(1.02092 0.0108004 0)
(1.02316 0.0059329 0)
(1.02905 0.00770279 0)
(1.02494 0.00731198 0)
(0.0184431 1.82512 0)
(-0.00222736 1.81999 0)
(0.0834738 1.84722 5.80231e-21)
(0.138754 1.87139 8.22323e-20)
(0.0684143 1.88374 1.79763e-19)
(0.0766308 1.88453 -2.92229e-19)
(0.0856194 1.86332 0)
(0.0767183 1.77805 -7.68539e-20)
(0.0770992 1.77984 0)
(0.189114 1.7858 -1.27452e-19)
(0.175015 1.74046 3.94245e-19)
(0.101064 1.80327 6.88237e-20)
(0.133899 1.83102 2.89729e-20)
(0.121694 1.84736 -2.35548e-20)
(0.146999 1.7907 -5.64854e-20)
(0.144357 1.77234 0)
(0.139494 1.77516 5.87505e-20)
(0.0159451 1.77555 -3.54731e-20)
(0.0429854 1.76835 0)
(0.0497944 1.76937 1.28588e-19)
(0.0460959 1.7682 0)
(0.0447087 1.75615 -1.23324e-19)
(0.0487712 1.76222 0)
(-0.00897841 1.76895 -3.27267e-20)
(0.000660918 1.78131 0)
(-0.0113832 1.77948 0)
(-0.0113278 1.76733 3.65737e-20)
(-0.00657122 1.77795 8.27356e-22)
(0.0131028 1.77736 1.34503e-19)
(-0.0100498 1.77016 9.0719e-22)
(-0.00687212 1.77093 2.53591e-20)
(-0.0032883 1.77163 1.55873e-20)
(-0.00675143 1.79841 0)
(-0.0056906 1.7963 0)
(0.0119717 1.78723 8.53544e-20)
(0.00267513 1.78061 5.84137e-20)
(-0.000783036 1.78315 -8.02101e-20)
(0.0304609 1.78932 0)
(-0.0019197 1.76423 -5.06148e-20)
(0.00121185 1.77409 2.28832e-20)
(0.00067421 1.77621 -7.13834e-21)
(-0.00827 1.77318 -3.10242e-20)
(-0.00635877 1.78415 -9.91271e-21)
(-0.00792178 1.78383 4.95635e-20)
(1.01241 0.00581431 -1.69315e-19)
(1.01428 0.00240183 1.75193e-19)
(1.01109 -0.000690367 0)
(0.98934 0.065753 2.56735e-19)
(0.984597 0.0234334 -2.93947e-19)
(0.95967 0.0213701 3.40768e-19)
(0.988163 0.0951099 -3.33175e-20)
(1.0296 0.000780879 0)
(1.03608 0.0138937 1.43565e-19)
(1.03888 0.00465941 -1.42437e-19)
(1.0256 0.035853 -8.1515e-21)
(1.02814 0.0144366 7.17123e-20)
(0.994175 0.0309008 0)
(0.981425 0.0256821 -2.64042e-20)
(1.00503 0.021909 0)
(1.00572 0.02403 0)
(1.0146 0.00226271 0)
(1.01514 0.00463664 0)
(1.00104 0.021279 5.54141e-20)
(1.00577 0.0197681 -1.23609e-19)
(1.00896 0.0355688 -5.72157e-20)
(0.989427 0.0256633 -6.50657e-20)
(0.992564 0.035379 1.10171e-19)
(1.04124 0.0383483 0)
(1.04589 0.0827795 0)
(-0.00306102 1.76138 -1.85631e-20)
(0.0142657 1.75691 -1.69092e-21)
(0.00225334 1.75657 0)
(0.00164685 1.77214 1.85991e-20)
(0.0144091 1.77087 3.08452e-21)
(0.00731431 1.77298 -2.38088e-21)
(-0.00185736 1.78338 3.89195e-20)
(0.00109712 1.78175 -2.39759e-21)
(-0.00512544 1.78282 1.11266e-20)
(0.0011319 1.78181 -2.12377e-20)
(0.000718539 1.78024 2.58422e-20)
(-0.00439538 1.78706 3.66505e-22)
(-0.00472669 1.77445 2.05453e-20)
(0.136463 1.76836 -1.20945e-19)
(0.125249 1.79752 3.57294e-20)
(0.486812 1.45745 -3.34777e-19)
(0.303215 1.68254 -1.40955e-19)
(0.346113 1.59273 0)
(0.438908 1.59164 1.45244e-19)
(0.483664 1.53545 1.93695e-19)
(0.205826 1.67014 3.19465e-20)
(0.214003 1.67348 -4.54573e-19)
(0.280049 1.69012 3.91536e-19)
(0.30958 1.65449 0)
(0.226408 1.66527 -2.90207e-19)
(0.0909003 1.70545 5.52271e-19)
(0.150075 1.69567 -3.22284e-20)
(0.0920289 1.7117 -7.50085e-19)
(0.855771 1.80122 2.78352e-19)
(0.610854 1.53368 0)
(1.02785 -0.0156319 5.90674e-21)
(1.00176 -0.0128956 -4.84393e-21)
(1.01313 0.0080319 -8.492e-20)
(1.02911 0.00349824 8.48218e-20)
(1.03131 -0.00759708 0)
(0.447254 1.00322 0)
(0.588307 0.838115 0)
(0.704647 1.02339 0)
(0.677527 0.734349 0)
(1.11144 2.80597 -7.12603e-20)
(0.913538 2.47124 0)
(0.504764 2.84326 -5.6117e-21)
(0.410392 2.42961 0)
(0.500003 2.61143 -2.24288e-19)
(0.539933 2.6539 1.43817e-19)
(0.842688 0.128269 0)
(0.825416 0.150687 5.32753e-20)
(0.892261 0.115929 2.63584e-19)
(0.842248 0.115209 -1.07828e-19)
(0.830414 0.0951918 -3.26138e-19)
(0.999149 0.191388 -1.49691e-19)
(0.908754 0.288357 -8.59748e-21)
(0.874336 0.274507 2.49784e-19)
(0.939137 0.177932 1.72265e-19)
(0.922199 0.152361 -3.30233e-19)
(0.908169 0.14965 4.3563e-20)
(0.939323 0.230837 -8.13075e-20)
(0.910063 0.172406 0)
(0.965858 0.138019 1.55037e-19)
(0.986956 0.147352 0)
(0.972849 0.158152 0)
(1.04533 0.10793 4.52189e-20)
(1.00027 0.145795 -8.7303e-21)
(0.999455 0.20496 -2.6316e-20)
(1.06414 0.189115 0)
(1.00783 0.0251321 1.2889e-19)
(1.00256 0.0277077 1.51312e-19)
(1.00835 0.0282853 -1.25176e-19)
(1.01816 0.0397726 -1.02847e-19)
(1.00784 0.0572397 -1.80252e-19)
(0.933855 0.103358 0)
(0.96118 0.0838736 0)
(0.952375 0.0385399 -1.21936e-19)
(0.917465 0.0560108 5.2937e-20)
(1.01961 0.0996823 1.47365e-19)
(0.999995 0.121202 -1.44174e-19)
(1.00768 0.141139 1.34118e-19)
(1.01098 0.138197 0)
(1.01648 0.091504 0)
(1.00351 0.0809403 -5.98451e-20)
(1.02124 0.0845072 -1.15527e-19)
(0.834042 1.37902 -3.96717e-19)
(0.951362 2.16604 3.90694e-19)
(1.23876 2.90285 2.30056e-19)
(1.27716 3.14772 -5.84737e-20)
(1.22869 2.86744 4.68808e-19)
(1.31877 2.76632 -1.91437e-19)
(1.21283 2.38101 8.53754e-21)
(1.26986 3.09815 2.71634e-19)
(1.23466 3.1107 -3.77464e-19)
(1.24961 3.25353 -1.84519e-19)
(1.44012 2.97517 2.00686e-19)
(1.44559 2.88316 0)
(0.584011 0.866208 -7.98079e-21)
(0.19371 1.34171 1.76029e-19)
(0.467162 0.571257 2.41128e-19)
(0.276391 0.366165 2.72374e-19)
(0.567175 0.436172 2.72457e-19)
(0.538421 0.491185 -4.49603e-19)
(0.533828 0.501342 3.69974e-19)
(0.51079 0.49889 -1.42554e-19)
(0.521529 0.421835 3.3009e-19)
(0.796527 0.244266 -1.22096e-19)
(0.762145 0.294451 0)
(0.777358 0.265917 7.64872e-21)
(0.670396 0.508983 1.26169e-19)
(0.649422 0.486881 -4.63958e-19)
(0.591424 0.51342 1.36667e-20)
(0.632635 0.455777 0)
(0.658228 0.748256 9.3693e-20)
(0.780083 0.723139 9.27217e-21)
(0.723282 0.843511 -1.94405e-20)
(0.825859 0.70016 -2.76073e-21)
(0.91373 0.814039 1.27577e-20)
(0.905363 0.784068 -1.31514e-20)
(0.778663 0.622121 -1.31884e-19)
(0.854736 0.671268 2.56699e-21)
(0.944961 0.667223 0)
(0.94393 0.664346 3.44801e-21)
(0.947025 0.308183 3.63433e-20)
(1.08362 0.280048 -3.84938e-21)
(0.987342 0.223686 6.08404e-20)
(0.93472 0.342456 -8.41801e-20)
(0.956783 0.417906 0)
(1.03146 0.394091 0)
(0.800042 0.359803 -1.50727e-21)
(0.837302 0.273686 0)
(0.840537 0.261557 1.27361e-19)
(0.821519 0.274877 1.40161e-21)
(0.880039 0.411997 4.73294e-19)
(0.829863 0.502741 1.17918e-19)
(0.824259 0.439202 -1.67176e-19)
(0.768129 0.422895 1.78979e-19)
(0.750837 0.427614 1.20688e-19)
(0.714462 0.422063 -1.17928e-19)
(1.02008 0.0218027 1.36936e-19)
(1.02375 0.00627977 0)
(1.02099 0.0132667 9.35178e-20)
(1.01613 0.0186183 -2.10323e-19)
(1.02287 0.00869119 9.89586e-20)
(1.0215 0.00877017 -2.11181e-19)
(1.01612 0.00312123 0)
(1.01554 -0.00065894 -4.37464e-20)
(1.02586 0.00252979 1.076e-19)
(1.02305 0.00134153 -5.55502e-20)
(1.02149 0.0035801 4.12583e-20)
(-0.0215505 1.8052 0)
(-0.0142262 1.78007 0)
(-0.0127804 1.81827 0)
(-0.0175164 1.81374 0)
(0.0513377 1.81815 4.1232e-20)
(0.0494015 1.8283 -1.24037e-20)
(0.054139 1.78949 -2.9503e-20)
(0.0461314 1.82979 -1.33309e-20)
(0.0174497 1.79733 -5.61574e-20)
(0.0283958 1.79718 4.05706e-20)
(0.051821 1.81799 -1.00662e-20)
(0.0293074 1.82276 -1.99242e-20)
(0.00336381 1.79943 -2.13027e-21)
(-0.0116396 1.79206 -5.63091e-21)
(0.0451404 1.76849 -1.40668e-19)
(0.0444281 1.76002 0)
(0.0485369 1.7547 8.4204e-20)
(0.0687533 1.77639 5.55778e-20)
(0.119945 1.74322 -5.88403e-20)
(0.0982273 1.69374 0)
(0.102333 1.6899 -4.09739e-19)
(0.155167 1.72131 2.86634e-19)
(0.106728 1.75298 -1.59652e-19)
(0.068622 1.73597 8.84416e-20)
(0.0333899 1.70981 0)
(0.00429435 1.78183 -1.0191e-19)
(0.000224974 1.77582 -1.19098e-19)
(0.00421181 1.78787 0)
(-0.00283628 1.77564 -2.45303e-21)
(0.00583857 1.77551 5.31604e-20)
(-0.00632488 1.77475 5.36854e-21)
(-0.00363113 1.78407 -8.74993e-20)
(-0.00378835 1.77489 2.26588e-20)
(-0.00683392 1.76225 3.09498e-20)
(-0.00460194 1.76576 0)
(-0.00321806 1.77699 0)
(-0.000349214 1.79219 2.2501e-20)
(0.000688301 1.78684 -6.82321e-21)
(-0.000341156 1.78245 0)
(-0.00285982 1.79356 1.75234e-20)
(-0.00135529 1.79062 -3.51497e-20)
(1.01051 0.0169454 0)
(1.01213 0.0222993 -1.35365e-20)
(1.00979 0.0129635 -9.83399e-20)
(1.01615 0.0243496 0)
(1.0158 0.0279861 0)
(1.011 0.00293537 -4.49063e-21)
(1.01456 0.00202251 1.62158e-19)
(1.01283 0.00393712 1.98533e-19)
(1.01815 0.00531506 0)
(1.01871 0.00409148 0)
(1.01159 0.0105451 9.97071e-20)
(1.01167 0.00896268 0)
(1.01936 0.00693909 0)
(-0.00907957 1.76767 0)
(-0.00879507 1.76373 2.4317e-21)
(-0.00654254 1.75913 1.14661e-20)
(-0.00357706 1.78794 0)
(-0.00566757 1.77738 1.53245e-20)
(-0.0050238 1.78776 -6.75572e-21)
(-0.00309343 1.79267 0)
(0.149741 2.00798 0)
(0.0862724 1.82686 -6.56437e-20)
(0.11741 1.86494 0)
(0.0812018 1.82903 -3.14248e-20)
(0.145857 1.59038 0)
(0.12862 1.73512 4.9212e-20)
(0.886823 2.64904 -4.88412e-21)
(0.867045 1.92719 -3.48945e-19)
(0.910308 1.88572 -1.13296e-19)
(0.659636 1.59691 1.54163e-19)
(0.512912 2.0984 0)
(0.557151 2.28378 0)
(0.842733 1.73821 0)
(0.775552 1.53989 -5.3127e-19)
(0.329155 2.19086 -3.32911e-19)
(0.487277 2.0605 -9.81398e-20)
(0.375595 2.35799 7.67235e-20)
(0.536721 1.53483 0)
(0.597912 1.51197 0)
(0.581022 1.48895 -2.2231e-19)
(0.533305 1.86079 0)
(0.869136 0.773468 0)
(0.720352 0.966649 1.02273e-19)
(0.682374 0.865059 3.65356e-21)
(0.834883 0.828216 0)
(0.817272 0.995153 -1.51756e-19)
(0.756627 0.882954 2.53614e-20)
(0.78029 0.948221 0)
(0.756917 0.941812 -6.34844e-20)
(0.749099 0.946252 0)
(0.719339 0.877752 0)
(1.08424 3.05202 2.08881e-19)
(1.14568 3.07379 2.86993e-19)
(0.915904 2.85304 -5.95209e-19)
(0.834184 2.82935 1.04943e-19)
(1.02444 2.96343 0)
(0.922217 2.93122 -1.27628e-19)
(0.948696 2.62809 1.99238e-19)
(0.863774 2.3669 -8.52372e-22)
(0.188959 2.35073 0)
(0.364618 1.26622 3.50095e-19)
(0.40023 1.24676 0)
(0.863887 0.191243 0)
(0.833274 0.17641 0)
(0.790716 0.190638 0)
(0.869373 0.209217 -2.00841e-19)
(0.820928 0.215371 1.25859e-19)
(0.916034 0.058287 -1.10165e-19)
(0.901841 0.103187 0)
(0.885563 0.113381 4.90469e-20)
(0.87577 0.0754031 2.04331e-19)
(0.886378 0.0564527 -1.25335e-19)
(1.13903 3.3323 -6.08158e-19)
(1.21087 3.23259 0)
(1.14155 3.41659 -1.33649e-18)
(0.691083 3.56561 1.13574e-18)
(0.988188 3.08544 1.89099e-19)
(0.557307 1.02594 2.40893e-19)
(0.586177 1.01474 0)
(0.38984 0.597002 -6.0059e-20)
(0.400243 0.762382 2.75873e-19)
(0.485904 0.543227 -7.90479e-20)
(0.49454 0.549525 9.30335e-20)
(0.615524 0.500292 1.82769e-19)
(0.6574 0.516032 0)
(0.587888 0.623555 0)
(0.550574 0.58638 0)
(0.93979 0.564776 -3.87337e-20)
(0.861148 0.518364 -1.12716e-19)
(0.87076 0.561836 3.60083e-20)
(0.898529 0.47877 -8.49286e-20)
(0.980052 0.454151 0)
(0.972345 0.534817 -9.775e-22)
(0.783589 0.384475 -2.67433e-19)
(0.79443 0.369029 -3.01387e-19)
(0.747709 0.398601 2.10121e-19)
(0.734579 0.380556 -2.33873e-19)
(0.821115 0.316103 -1.695e-19)
(0.761219 0.332026 2.0854e-19)
(1.01883 0.00722836 -1.05021e-19)
(1.01865 0.00164979 2.18757e-19)
(1.02025 0.0201818 1.29507e-19)
(1.01882 0.0231879 -1.58529e-19)
(1.00313 0.0226475 0)
(1.01454 -0.000649323 -2.55693e-19)
(0.0560848 1.78931 2.08059e-20)
(0.0435058 1.79354 0)
(0.0657485 1.77985 1.67949e-19)
(0.0660501 1.7834 -1.54552e-19)
(0.0579654 1.78882 5.5613e-20)
(0.0574081 1.7932 0)
(-0.011706 1.77169 0)
(-0.00704941 1.7731 -8.71913e-21)
(-0.0086204 1.7757 7.86673e-21)
(-0.00705033 1.77434 1.48713e-21)
(-0.0114114 1.77153 -1.45517e-20)
(-0.010993 1.77263 8.2452e-21)
(0.0881178 2.13347 1.46317e-19)
(0.035362 2.09322 -1.61006e-19)
(0.014098 1.82578 1.24772e-19)
(0.0300681 2.04397 1.08582e-21)
(0.323141 1.13543 0)
(0.166592 1.47974 2.39903e-19)
(0.229637 1.2806 -2.32667e-19)
(-0.0124424 1.57186 -1.22957e-19)
(0.040607 1.54096 0)
(0.203748 1.20308 0)
(0.36698 2.01351 5.09133e-19)
(0.49196 1.73689 9.60366e-19)
(0.541361 1.82258 -6.30645e-19)
(0.444506 1.7034 -1.22567e-19)
(0.303694 1.85111 1.96188e-19)
(0.282198 1.69289 -4.96896e-19)
(0.899086 2.12892 7.79126e-20)
(0.891987 2.40997 0)
(0.901459 2.12798 3.45968e-19)
(0.928454 2.8847 0)
(0.849346 2.77805 0)
(0.636048 2.21042 1.00162e-19)
(1.14726 3.06619 2.16478e-19)
(1.05358 2.96835 -1.99464e-19)
(0.266995 0.989827 0)
(0.314335 0.861666 -1.38569e-19)
(0.611387 0.903276 -1.14482e-19)
(0.29877 2.05197 0)
(0.371541 2.74142 -1.32869e-19)
(0.390908 2.50371 0)
(0.688764 0.697619 -1.94073e-19)
(0.740113 0.648997 2.54049e-19)
(0.749006 0.585288 -2.48863e-19)
(0.630485 0.641544 -3.02728e-20)
(0.696225 0.571467 -1.27432e-19)
(1.0677 2.74344 -1.63654e-19)
(1.13153 2.74726 2.45849e-19)
(0.610361 2.13932 7.54684e-20)
(0.734809 1.74132 -6.78699e-20)
(1.12746 2.03391 3.42226e-19)
(1.17943 2.45202 2.59314e-20)
(1.1471 2.47359 -2.60002e-19)
(0.899906 1.83896 -7.66401e-21)
(0.886757 1.35294 -2.28533e-19)
)
;

boundaryField
{
    wall-4
    {
        type            noSlip;
    }
    velocity-inlet-5
    {
        type            fixedValue;
        value           uniform (1 0 0);
    }
    velocity-inlet-6
    {
        type            fixedValue;
        value           uniform (0 3 0);
    }
    pressure-outlet-7
    {
        type            zeroGradient;
    }
    wall-8
    {
        type            noSlip;
    }
    frontAndBackPlanes
    {
        type            empty;
    }
}

