/*--------------------------------*- C++ -*----------------------------------*\
  =========                 |
  \\      /  F ield         | OpenFOAM: The Open Source CFD Toolbox
   \\    /   O peration     | Website:  https://openfoam.org
    \\  /    A nd           | Version:  6
     \\/     M anipulation  |
\*---------------------------------------------------------------------------*/
FoamFile
{
    version     2.0;
    format      ascii;
    class       volScalarField;
    location    "0";
    object      p;
}
// * * * * * * * * * * * * * * * * * * * * * * * * * * * * * * * * * * * * * //

dimensions      [0 2 -2 0 0 0 0];

internalField   nonuniform List<scalar> 
13046
(
0.416991
0.387365
0.393123
0.431867
0.403314
0.378642
0.417137
0.38138
0.402322
0.225956
-0.101251
0.339396
0.421396
0.329576
0.381449
0.271924
0.333925
-0.0237496
0.424564
0.40035
0.416897
0.265697
0.337472
-0.0362449
0.419581
0.411204
0.39474
0.405821
0.337113
0.379317
0.424563
0.361198
0.382865
0.425773
0.408497
0.403908
0.423869
0.413321
0.410578
0.403588
0.375225
0.378349
0.414826
0.427329
0.417136
0.424058
0.412529
0.40955
0.410664
0.378859
0.393901
0.329465
0.385746
0.34755
0.340985
0.338818
0.38625
0.172069
0.357704
0.338855
0.384072
0.273093
0.374101
0.347223
0.0807666
0.315173
0.362731
0.192214
0.334466
0.372689
0.213074
0.336061
0.136179
0.347008
0.338458
0.423948
0.410593
0.405926
0.341078
0.329362
0.110514
0.418704
0.400453
0.392334
0.343384
0.0423727
0.29281
0.298757
0.352971
0.0992706
0.349339
0.259662
0.0836974
0.377885
0.367564
0.2398
0.215303
0.359193
0.360532
0.355001
0.30041
0.119323
0.429269
0.413673
0.40239
0.398102
0.363712
0.352698
0.392809
0.363453
0.369462
0.129823
0.336046
-0.258528
0.422036
0.351186
0.381001
0.363064
0.373957
0.19217
0.350987
0.230628
0.353296
0.206671
-0.142812
0.337655
0.404001
0.269421
0.372912
0.404636
0.37413
0.371001
0.351488
0.272392
0.126334
0.349903
0.168197
0.356902
0.419844
0.348478
0.376102
0.401833
0.358959
0.388598
0.38502
0.347062
0.375846
0.398003
0.382273
0.371312
0.381477
0.245621
0.371422
0.41031
0.398428
0.37524
0.303136
0.343703
0.28716
0.341578
0.377993
0.375481
0.40589
0.325766
0.388172
0.2189
0.34054
-0.0906395
0.162866
0.336796
-0.219864
0.343122
0.140554
0.353762
0.402762
0.323513
0.362846
0.406544
0.391703
0.338303
0.344026
-0.0403694
0.235095
0.402231
0.343667
0.357098
0.407236
0.386808
0.363441
0.407464
0.363244
0.390621
0.313695
0.385217
0.405557
0.296881
0.371463
0.288192
0.348612
0.0534242
0.355336
0.297029
0.139035
0.260595
0.0713804
0.349772
0.313762
0.320333
0.374795
0.411988
0.333593
0.333531
0.114361
0.0303193
0.257386
0.347298
0.4217
0.413353
0.405306
0.407316
0.351201
0.375576
0.355358
0.28568
0.147067
0.405713
0.323003
0.389022
0.338695
-0.165815
0.170329
0.373624
0.322656
0.302087
0.280763
0.108065
0.353223
0.365816
0.309599
0.385517
0.392383
0.282681
0.372408
0.204143
0.297524
0.354981
0.329616
0.264883
0.367807
0.339656
-0.173729
0.150925
0.401487
0.364592
0.349314
0.148731
0.332938
-0.306157
0.415723
0.424896
0.394159
0.377664
0.377852
0.307641
0.320044
0.388629
0.379799
0.332341
0.318711
0.0721024
0.39856
0.303715
0.365891
0.329599
0.232293
0.365391
0.351622
0.179431
0.353326
0.417329
0.410824
0.425024
0.357894
0.288237
0.377399
0.399739
0.284418
0.363513
0.405689
0.406599
0.401653
0.353197
0.329829
0.356811
0.266503
0.373402
0.333605
0.350694
0.157464
0.407609
0.363393
0.363867
0.376592
0.328145
0.289348
0.370365
0.218675
0.347101
0.38832
0.33395
0.338233
0.356894
0.356713
0.195628
0.345012
0.179612
0.348356
0.343653
-0.0143472
0.249149
0.377894
0.256006
0.357016
-0.373395
0.333912
0.0753427
0.421126
0.406022
0.36497
0.394
0.293441
0.376447
0.350957
0.304619
0.0932341
0.329164
0.325647
0.382351
0.177364
0.295252
0.354711
0.354923
0.386761
0.378967
0.2878
0.372249
0.338756
0.392921
0.293462
0.336254
0.0145397
0.324235
0.298715
0.377215
0.370356
0.268263
0.365916
0.394717
0.342953
0.391572
0.367171
0.335361
0.391838
0.424517
0.375065
0.396618
0.371885
0.334061
0.299048
0.274345
0.05851
0.349794
0.186191
0.292212
0.358573
0.3698
0.334525
0.25904
0.34335
0.351366
0.173904
0.140637
0.335439
0.340376
0.334767
-0.347353
0.0994708
0.166387
0.332606
-0.278419
0.372864
0.295011
0.373959
0.346611
0.279692
0.0184344
0.369888
0.371271
0.241315
0.217449
0.348941
0.343851
0.344408
-0.0259403
0.209368
0.132969
0.331831
-0.343451
0.408175
0.425069
0.409245
0.127527
-0.298674
0.335816
0.403241
0.315919
0.35522
0.243967
-0.021861
0.344845
-0.3565
0.339168
0.0168321
0.406719
0.375308
0.390685
0.41785
0.406635
0.407846
0.209301
0.336507
-0.151546
0.412491
0.3919
0.405046
0.411566
0.424534
0.415137
0.376463
0.306379
0.303761
0.405817
0.40225
0.415174
0.424187
0.364413
0.408546
0.374278
0.275354
0.333786
0.337271
0.340517
-0.044388
-0.0521262
0.254395
0.25025
0.250113
0.035523
0.347619
0.342611
0.368713
0.227766
0.396827
0.355296
0.359312
0.319923
0.254294
0.360803
-0.251367
0.338885
0.0634382
0.348211
0.253088
0.0580081
0.177952
0.337633
-0.179963
0.340414
-0.391089
0.00830452
-0.438987
0.337573
0.0427257
0.243166
0.352107
0.365882
-0.114816
0.34186
0.148245
0.334451
0.159127
0.357095
0.248013
0.328463
-0.110862
0.416855
0.386662
0.376032
0.00615205
0.345794
0.228839
0.322967
0.363256
0.266547
0.222144
0.32918
0.366366
0.342439
-0.541396
-0.0607716
-0.336086
0.335893
0.0557535
0.422213
0.396796
0.376313
-0.0388255
0.201875
0.344918
0.34331
0.182086
-0.0509155
0.274312
0.343508
0.0202831
0.335488
0.0731853
0.311779
0.380743
0.269886
0.336069
0.186221
0.360754
0.34616
0.333528
0.297713
0.000211939
0.402962
0.398748
0.32077
0.300354
0.364596
0.366655
0.402824
0.331461
0.36354
0.377863
0.233476
0.350187
0.204445
0.309122
0.361206
0.0184628
0.253485
0.346833
0.358325
0.312807
0.173877
-0.430564
0.336071
0.0672472
0.420163
0.419288
0.386217
0.376383
0.392869
0.382255
0.392294
0.38044
0.350846
0.266374
0.349782
0.305345
-0.337644
0.337989
0.0208876
-0.0209901
0.217688
0.345868
0.386715
0.336479
0.331454
0.227312
0.305778
0.359991
0.335813
0.0937257
0.321566
-0.254839
0.112459
0.338455
-0.214571
0.125515
0.338938
0.376798
0.231533
0.353194
0.408981
0.357656
0.376133
0.263461
0.341883
-0.0209677
0.225153
0.337528
0.366424
0.349954
0.112463
0.327679
0.382342
0.353439
0.313656
0.372886
0.318241
0.385073
0.403111
0.368169
0.368935
0.341954
-0.0400291
0.246436
0.350432
0.169567
0.349509
0.415181
0.382672
0.388961
0.279032
0.329573
-0.0416179
0.405439
0.359242
0.378424
0.411048
0.358901
0.402356
0.242991
0.34104
0.368258
0.199393
0.331039
-0.213873
0.214072
0.329742
-0.192183
0.346921
0.101752
0.325898
0.358318
0.325127
0.379426
0.329198
-0.26566
0.172319
0.353852
0.121673
0.322085
0.33949
-0.422099
-0.0198091
0.0213069
-0.469352
0.336186
0.336667
0.0209606
0.303218
0.340682
-0.112263
0.199386
0.279042
0.292275
0.338217
-0.0121214
0.341194
0.0303772
0.311233
0.133379
0.355064
0.365782
0.24284
0.296914
0.429085
0.392972
0.38259
0.325103
0.162627
0.35972
0.361163
0.332382
0.180152
0.308174
0.333083
0.0245623
0.387143
0.246743
0.347537
0.394243
0.300829
0.348264
0.354756
0.234923
0.367316
0.349687
0.222444
0.366456
0.417556
0.37696
0.399813
0.397027
0.286952
0.368678
0.345487
0.019648
0.221665
0.112333
0.339261
-0.208056
0.0908289
0.34087
-0.211593
0.404691
0.370966
0.354853
-0.288793
0.338798
0.0787159
0.339114
0.347328
0.12896
0.338045
-0.280997
0.0540069
0.430829
0.408411
0.386558
0.399938
0.309862
0.375341
0.32648
0.357139
0.383776
0.342997
-0.0898478
0.171817
0.219117
0.341531
0.365864
0.330549
0.267254
-0.0628283
0.387294
0.291464
0.372732
0.43148
0.39979
0.387221
-0.0848013
0.187858
0.342393
0.350358
0.101679
0.318564
0.194314
0.175023
0.334221
0.334097
-0.195769
-0.230561
0.389563
0.322994
0.386444
0.261258
0.361404
0.368721
0.410129
0.374004
0.403024
-0.159497
0.137262
-0.151316
0.339892
0.136555
0.340137
0.370645
0.226674
0.365567
0.184401
0.160245
-0.107137
-0.142121
0.342384
0.341834
0.35929
0.281079
0.377789
0.401776
0.32548
0.380742
0.234572
0.330943
-0.135404
0.403548
0.305116
0.383572
0.414179
0.350007
0.394479
0.202785
0.331365
-0.184012
0.391709
0.257598
0.363816
0.283555
0.304454
0.365351
0.384867
0.291496
0.347634
0.150118
0.350186
0.271398
0.340028
-0.502793
-0.0334736
0.388263
0.301445
0.376417
0.250923
0.334655
-0.0812272
0.331071
0.283075
0.378616
0.0739832
0.332716
-0.398418
0.405313
0.397958
0.362804
0.392168
0.362794
0.389243
0.417026
0.369406
0.404892
0.403626
0.409709
0.370527
0.396768
0.388887
0.38996
0.395213
0.334096
0.39056
0.406117
0.335744
0.390528
0.339492
-0.187069
0.10198
0.405527
0.34786
0.363444
0.205447
-0.0867792
0.342022
0.351203
0.340732
0.212994
0.180992
0.362536
0.358663
0.402879
0.371508
0.37209
0.379514
0.260524
0.348322
0.371674
0.252613
0.370406
0.424356
0.407629
0.399278
0.338255
0.184152
0.361393
0.420409
0.38276
0.393826
0.372354
0.278348
0.376674
0.380951
0.277922
0.349084
0.422281
0.419924
0.402144
0.403888
0.406929
0.397532
0.413397
0.37302
0.414588
0.406802
0.401104
0.396048
0.406708
0.407582
0.332405
0.323525
0.371939
0.36568
0.338509
0.0822766
0.322285
0.367776
0.318009
0.29583
0.340783
0.342368
0.0504367
0.0603158
0.30746
0.306654
0.383739
0.339435
0.325992
0.424588
0.412311
0.412202
0.335268
0.162977
0.359033
0.416158
0.377531
0.363233
0.379416
0.264269
0.350131
0.343384
0.34714
0.126426
0.343161
0.141181
0.344862
0.357774
0.207113
0.360466
0.0976245
-0.360937
0.333171
0.325789
0.301632
0.377436
0.377195
0.381182
0.333581
0.287878
0.346807
0.302563
0.323318
0.194752
0.361506
0.380037
0.282242
0.352757
0.388249
0.333548
0.314637
0.380982
0.393784
0.343489
0.362252
0.331982
0.320584
0.379886
0.351209
0.310223
0.361211
0.220981
0.364615
0.419128
0.386166
0.401941
0.224982
0.335186
-0.125297
0.386212
0.336773
0.300687
0.388668
0.381628
0.262274
0.244609
0.35114
0.356338
0.335639
-0.0859278
0.245188
0.239508
0.333197
-0.119486
0.222315
0.333239
-0.146308
0.337375
0.343861
0.119137
0.385762
0.301116
0.357259
-0.0567663
0.0509981
0.273444
-0.0498735
0.207943
-0.246041
0.136734
0.0206124
-0.130665
0.194247
0.190002
-0.16655
-0.0602846
0.193152
0.0274821
-0.0632629
-0.0292958
0.00629546
0.0466564
0.14786
0.0673887
-0.00429511
0.211033
0.327167
0.285949
0.0602016
0.225151
-0.155914
0.094456
-0.0727316
-0.140185
0.130612
0.059258
0.0493553
-0.107141
0.0775687
0.261911
0.207338
-0.0148013
0.0990405
-0.0285533
0.334471
-0.0797876
0.190812
0.234612
-0.0143673
-0.00324227
-0.0596589
-0.158024
-0.0804296
0.288707
0.0705313
-0.059742
-0.0219695
-0.141886
0.281737
0.149928
0.0668208
-0.0665911
0.180351
-0.0854524
-0.070459
0.287042
0.040817
0.0656192
0.153516
0.0850376
0.320132
0.209362
0.196866
-0.196271
-0.146491
-0.0194698
0.16973
-0.162864
0.0479251
0.0521963
-0.116076
0.16756
0.24116
0.00648414
0.0523209
-0.149566
-0.0819577
-0.0244699
0.179993
-0.0224862
-0.0371373
0.0220788
0.293832
-0.0645552
0.180761
0.285333
0.053517
-0.0607423
-0.321087
-0.10094
-0.0542716
-0.061366
-0.20064
0.122573
0.21587
0.24837
0.324254
-0.075007
-0.0533685
-0.158931
-0.0489479
-0.0978738
0.259221
0.222123
0.1472
-0.109083
-0.148252
0.112764
0.215753
0.00601051
-0.0365517
-0.211072
-0.00192434
0.0440095
0.302733
0.312198
0.17388
0.0707298
-0.0105092
-0.163002
0.307517
-0.10063
0.166161
-0.206935
0.285312
-0.147385
-0.115027
-0.0755612
0.239074
0.0355841
-0.248836
-0.0834987
0.138954
-0.0693093
0.184497
0.120063
-0.0549949
0.234364
-0.0226975
-0.0914392
0.250836
-0.0785111
0.0134341
-0.163256
0.0824932
-0.0181862
0.244923
0.179308
-0.00465251
0.169608
0.186229
0.269558
0.0564543
-0.0234105
-0.060337
0.187518
-0.099519
0.0975205
-0.150402
0.324443
0.00131338
0.247218
0.304946
0.0751947
0.312275
0.251103
0.267035
-0.114575
-0.214198
-0.165246
0.273455
-0.11571
-0.136551
-0.105331
-0.132985
0.0104575
-0.0230997
0.0802279
0.305489
0.176057
-0.0283151
0.177457
-0.0395661
0.329875
-0.147591
0.225157
-0.0544899
-0.226297
0.290617
0.308438
-0.0634435
-0.0533242
0.323638
0.0988336
-0.0158525
-0.0954509
0.17047
0.258996
0.159284
-0.0775589
-0.0654449
0.202448
0.068445
-0.0985037
0.117871
-0.107407
-0.127846
-0.00981651
0.218997
-0.203077
0.00905804
0.216712
-0.029371
-0.210478
-0.00331295
-0.0559539
-0.0165203
0.11933
0.132098
-0.081757
-0.142289
-0.0862817
0.15155
0.150883
-0.0061826
0.136471
-0.0163184
-0.114488
0.103159
-0.0270855
-0.231867
0.160248
0.249378
0.0826678
0.29147
0.263346
0.332485
-0.061011
-0.25755
0.0225832
-0.00533909
-0.021126
-0.193573
0.108363
0.28581
0.166733
0.09854
-0.0892997
5.32501e-05
0.178208
0.0647092
0.140608
-0.0769907
0.0252795
-0.0312516
-0.121183
-0.0845256
-0.055082
-0.0632994
-0.114578
0.136564
0.0696285
-0.00257272
0.145857
-0.045443
0.0121743
-0.0800267
-0.00273073
-0.037581
-0.0442284
0.0930292
-0.192753
-0.266296
0.0308293
-0.173036
-0.207017
0.0975062
-0.146435
-0.204067
0.246352
0.142133
-0.0846354
0.169844
-0.132685
0.129662
0.120611
-0.100025
-0.054098
0.21503
0.027223
0.18228
-0.252799
-0.0958852
0.250295
-0.0381792
-0.0750407
-0.291398
-0.190499
-0.222263
-0.181282
-0.0266033
0.144156
-0.117591
-0.220286
-0.0986062
-0.0440823
0.330504
-0.0582319
0.167204
0.104811
-0.127078
0.00288296
-0.087042
-0.149401
0.122258
-0.014011
0.284975
0.14927
-0.0846596
-0.0215556
0.0735157
0.326778
0.173612
0.263141
0.179675
-0.0245231
0.0808372
0.01009
-0.107483
-0.186339
-0.051642
-0.0192191
0.145805
-0.0737958
-0.168535
-0.0569882
-0.00475537
-0.0629979
-0.0310822
0.229812
-0.0238775
-0.0491438
0.275858
0.234739
-0.0860635
0.0764907
0.259785
-0.0871832
-0.153844
-0.0184313
-0.114562
-0.147913
0.255955
-0.0944845
0.00553008
0.266013
-0.20814
0.0781388
-0.0718879
0.0774558
-0.0160419
-0.0619748
-0.309798
0.00491225
-0.166614
-0.0568722
-0.0120049
-0.0137014
0.173051
0.284761
-0.0635859
0.0702251
-0.00156558
-0.0753325
-0.238304
0.220811
0.118293
-0.0508471
-0.168397
0.0956413
-0.16743
-0.0459439
-0.0745779
-0.0977902
0.199762
0.282786
-0.0316881
0.166739
0.323602
0.226568
0.22583
0.270773
-0.0207733
-0.0451019
-0.144609
0.324463
0.214459
0.247731
-0.0658635
-0.0264858
-0.216466
0.179787
-0.0128485
-0.0653667
0.247748
0.134576
-0.0916031
0.00160982
-0.0763254
-0.058963
-0.0744601
-0.0210104
-0.00160026
-0.118552
-0.0295073
-0.183768
0.00309039
-0.118654
0.132607
0.0538472
-0.203085
0.261875
0.276305
0.176569
-0.0410571
0.0854412
-0.146224
0.192123
0.065956
-0.167875
0.257526
-0.19786
0.287358
-0.177312
0.0107501
0.0278032
0.173945
0.196571
-0.0605636
0.30348
-0.0534512
0.232062
0.0111885
0.131211
-0.041262
-0.0671991
-0.0566541
0.238787
0.0249178
0.321224
0.154916
-0.189502
-0.0563327
0.130812
-0.179191
-0.0371652
0.0132651
-0.119827
0.292749
-0.0900504
-0.111818
0.201725
-0.0579725
0.284568
0.31538
-0.017022
0.321785
0.299693
0.23469
0.253204
0.100173
-0.157744
-0.0850496
-0.0090076
0.218892
-0.00780176
-0.196593
0.301376
-0.118021
0.00559485
-0.0937777
0.267774
0.328502
-0.105139
0.2275
0.104409
0.284454
0.00813502
0.18544
-0.0107408
0.304452
0.318011
0.155136
-0.0865142
0.203099
-0.0271035
0.0726231
0.0544647
0.0130104
0.106989
-0.0377462
-0.194338
-0.142109
0.0250205
0.126423
0.0747116
0.252473
-0.102583
-0.0157054
0.129134
-0.138181
0.274717
-0.0705952
-0.0108302
0.267512
0.241126
0.08805
0.309381
-0.0766176
-0.0265489
0.190772
0.0533049
0.0449124
0.0084428
-0.054255
0.133181
0.162181
-0.0532188
-0.0740864
0.0855493
-0.191627
-0.12246
0.285734
0.322343
0.320114
0.0217377
0.328458
0.326256
0.297057
-0.241448
0.112698
0.106013
0.309179
-0.0284306
-0.0619577
-0.160232
-0.0886754
-0.222826
0.301138
0.0235978
0.0336242
0.190133
0.155142
-0.0345945
-0.0128767
0.325676
0.305299
0.262311
0.152297
-0.0493328
0.166013
0.134703
-0.0308575
0.0294779
-0.143634
-0.0922853
0.0607871
0.0367087
-0.0417906
0.285945
0.285283
-0.23479
0.238214
-0.0639986
-0.0728443
-0.0151466
0.280997
0.000567173
0.154737
0.0186236
0.265605
-0.0213667
0.0208229
0.317468
-0.217401
-0.194826
-0.0773986
-0.111722
-0.263808
-0.346686
-0.0992873
-0.256805
0.0456312
-0.236067
-0.132309
0.0360562
-0.0688741
-0.0967714
-0.0327815
-0.156767
-0.322458
0.300495
0.230822
-0.0147781
-0.164325
0.237063
-0.0421631
-0.0622706
0.316534
-0.0893962
0.315132
0.00302214
0.245988
0.021153
-0.137874
-0.139869
0.0708325
0.0731482
0.0467494
-0.137057
-0.0143254
-0.12814
-0.109614
-0.0467677
-0.203103
-0.151083
0.298654
-0.0764525
0.162219
0.19757
-0.0262787
0.205969
0.201337
-0.160058
-0.336121
0.0116486
-0.185512
-0.256942
0.170808
0.176725
-0.0130463
0.128585
-0.0334049
0.31863
0.297489
0.0104441
-0.0444416
0.306643
0.253703
0.119395
0.117629
-0.0256086
0.321399
0.0627687
-0.237033
0.269177
0.225721
0.286904
0.0759633
-0.0836246
-0.0191249
0.179398
0.125427
-0.403562
0.336137
0.00886321
-0.0825055
0.0611123
0.249509
0.315579
0.320001
0.127297
0.0370993
0.206558
0.256646
0.270842
0.163326
0.220957
-0.118793
-0.0657354
0.0936515
-0.143748
-0.123161
-0.202833
0.00586278
0.202601
-0.185114
0.0595588
-0.0548462
0.22024
0.319887
0.0201833
-0.159645
-0.215547
0.18098
-0.051231
-0.0936317
-0.211064
0.276521
0.0922035
0.105601
-0.175083
0.108123
-0.0922693
-0.0715324
0.176052
0.198284
0.282699
0.327354
-0.0983086
0.259193
-0.234023
0.272445
0.285111
0.286104
0.208139
-0.119933
-0.119495
-0.00871689
-0.237811
0.0564829
-0.20719
0.103937
-0.167685
0.243554
-0.0255086
-0.223447
0.241124
0.186127
0.0191872
0.0288644
0.158607
0.27934
0.0935116
0.0467542
-0.228459
0.226093
0.0731008
0.304068
-0.258006
0.0391795
0.270679
0.177658
0.309659
0.184542
-0.0124645
-0.281771
-0.226978
0.0285417
-0.191474
0.30067
-0.233188
-0.0370392
0.0171503
-0.0935833
0.209276
-0.253405
0.269001
0.181262
0.109502
-0.190733
0.135361
-0.0739132
-0.0108991
0.026178
0.0182913
-0.0278056
-0.0470229
0.205725
-0.115955
0.327936
-0.0358164
0.0382882
0.147698
0.176207
0.298628
-0.0265078
0.00111399
-0.0970944
0.0331851
-0.0511275
0.293712
-0.089949
0.0545477
-0.0275127
0.22759
-0.0763833
0.0724939
-0.154627
0.320818
-0.241229
-0.120953
-0.0303066
0.234231
-0.217739
-0.203848
-0.129438
-0.168413
0.283973
0.0452321
0.161254
0.245986
0.142457
0.0637407
0.321333
0.0547972
0.18387
0.137406
0.0717983
-0.202595
0.0839395
0.0252984
-0.0400393
0.0864163
-0.0994716
-0.190085
0.070873
-0.00920042
-0.117064
0.220601
0.0388142
0.154283
0.0198798
0.296609
0.0147291
0.0146886
0.137698
-0.172139
-0.0997754
-0.0270046
0.0702872
0.09301
0.126302
0.280045
0.172031
0.216455
0.0759176
0.259438
0.30233
0.298413
0.0853155
0.055271
0.103267
-0.153124
0.311682
0.252207
0.230761
0.0460516
-0.120791
-0.199885
0.103722
0.176923
-0.0775354
0.228995
0.249637
0.124643
-0.0615462
0.0753022
-0.0417313
-0.0696856
0.0483395
-0.0536323
0.105782
-0.210678
0.109592
0.0302741
0.0117322
-0.250797
0.0907049
0.0621041
0.154088
-0.0291147
0.0964584
0.277933
0.292041
0.107907
0.00698554
0.218154
0.070364
-0.0944566
-0.0966068
0.00358673
-0.176526
0.27909
0.0362553
0.0839604
0.181481
0.167119
0.127762
-0.104849
0.324556
0.135889
-0.0841841
0.0427344
0.0561216
0.217669
0.271832
0.138359
0.113059
-0.215098
-0.115615
0.0122741
0.120596
0.0564371
0.108535
-0.0637564
0.288347
0.117466
0.205353
0.257856
0.0872849
-0.0776675
0.0673294
0.311724
-0.0594105
-0.223848
0.0647073
0.319896
-0.0439346
0.00439781
0.207404
0.176263
0.235584
0.0421506
-0.211285
0.118251
-0.160883
-0.0362039
0.235333
0.0317229
-0.146392
-0.0840929
-0.0477538
0.132696
-0.029206
-0.0498913
0.2633
-0.0791873
0.322422
0.231263
-0.165252
-0.270708
0.0385126
0.185842
0.254779
0.0392462
0.0125226
-0.0715168
-0.00714061
0.017641
0.327482
0.27077
0.185223
-0.0198306
-0.199114
0.278636
0.323702
0.287129
0.218074
0.266314
0.0613512
-0.152579
-0.243234
-0.22254
0.296287
0.0595316
-0.0825256
-0.00840579
0.322134
-0.0261333
-0.0618394
-0.180233
0.0428567
-0.102469
0.327329
0.120159
0.180052
0.266494
0.249441
-0.00368401
0.140686
0.0582731
0.163818
-0.070144
0.125257
-0.0634459
0.292301
-0.126554
-0.0431975
-0.0867676
-0.00965903
0.275959
-0.0171536
0.232592
0.259691
0.268985
-0.136242
0.0544769
0.0124507
-0.0649907
0.284988
0.074947
0.0806315
0.114885
-0.230483
-0.00420764
0.287531
0.146995
0.289713
-0.233145
-0.121153
-0.0196174
0.298466
-0.058726
0.0244149
-0.116715
-0.10413
-0.0136368
0.296521
0.0101887
0.0184856
-0.176668
0.323672
0.312686
-0.229612
0.285289
-0.0278551
-0.134161
-0.116816
0.0537467
-0.18349
0.127351
-0.0210355
-0.0397888
-0.00375109
0.262558
0.0408912
0.231919
0.00210495
-0.133052
-0.00478298
-0.234767
-0.201206
0.02599
-0.0168398
0.0906316
-0.119151
0.0221878
0.254223
0.118797
-0.0394938
-0.145998
0.264961
0.0432838
0.026445
0.331314
0.0875243
-0.0458109
-0.0316016
-0.0939146
0.30507
-0.0391729
0.0280687
0.131052
-0.174442
0.271952
-0.117237
0.259429
0.0500292
0.199429
-0.112211
0.211865
0.0183567
-0.161655
-0.0977646
0.0485025
0.276522
-0.275961
-0.0705782
-0.0357353
0.302978
0.323475
-0.0793054
-0.0546973
0.122212
0.307569
0.0124199
0.282806
0.252101
0.228186
0.199326
0.0964437
0.152989
0.137734
0.288283
0.0267959
0.0691305
-0.0785541
-0.0563176
0.0263075
-0.109182
0.305258
-0.109869
0.279172
0.0170032
0.298185
-0.0569108
0.312351
0.195698
0.254565
0.299864
0.276922
0.329185
-0.00214257
0.261402
0.0467649
-0.0212789
-0.0692973
-0.117646
0.289659
-0.108335
0.119682
0.133257
0.0116523
0.121009
-0.0706547
0.286977
0.0666077
0.208447
-0.246175
-0.0864605
-0.0133573
0.332337
-0.0696255
0.153154
-0.0500532
-0.0120826
-0.149111
0.00484278
-0.0249406
0.22359
0.293605
-0.184113
0.111699
-0.0187586
-0.049223
0.240013
-0.0745405
-0.0587026
0.307446
-0.220795
0.0826805
0.179149
0.272635
0.317285
-0.0489278
-0.0727592
-0.169359
-0.0210957
-0.064379
-0.0209608
0.196234
-0.034574
-0.152701
0.0169104
0.0551823
-0.0370019
-0.0554116
-0.0372984
0.0562476
-0.163981
0.212189
0.198216
-0.0350608
0.209219
-0.133015
-0.184608
-0.0735256
-0.219144
0.30815
-0.0208697
-0.0287102
-0.0669846
0.248361
0.286775
0.0865052
0.201317
-0.0531971
-0.0845669
0.0595546
-0.0256831
-0.07383
0.287733
0.0989078
0.149847
0.310455
0.220092
0.0411126
0.300601
-0.189343
0.0914304
0.0850755
0.129831
-0.00130044
0.294847
-0.0362647
0.122545
0.0400117
-0.0372652
-0.108924
-0.0650149
0.195888
0.243065
0.263899
0.0653213
0.0870705
0.299002
0.217884
0.0263152
0.0875974
-0.140939
-0.00510583
0.228791
-0.186591
0.256773
-0.0298166
0.269808
0.327169
0.291442
-0.0417658
0.25399
0.253713
-0.162472
0.297501
-0.047182
0.29644
0.223599
-0.0174846
-0.122357
0.100609
-0.00014225
-0.00782907
-0.0592268
0.222422
-0.0321766
0.302349
-0.125721
-0.0490286
-0.0670891
-0.126717
-0.0282974
0.242178
0.31785
-0.131785
0.20288
0.0631329
0.123173
0.0159037
0.120191
0.28086
0.228942
-0.0264728
0.272907
0.238751
0.315665
-0.12809
-0.0580661
-0.060577
0.202597
0.307263
0.246617
0.0285208
0.312254
0.0447738
-0.181188
-0.124401
-0.276098
0.0332214
-0.152772
0.315842
0.323001
0.0857048
0.332421
0.231611
0.0802716
0.308277
-0.144411
0.29342
-0.00726996
0.286947
-0.0200725
-0.11755
0.197071
0.0912451
0.29642
0.28091
0.285008
-0.0968889
-0.0987135
-0.20655
0.256824
0.226618
-0.0807524
0.0595275
0.229071
-0.232277
-0.0560465
-0.101174
-0.0197942
0.118553
-0.0248899
0.085537
0.188101
0.0691831
0.0868588
0.200575
-0.0246151
-0.00380589
0.118566
0.0734942
-0.0188865
0.262251
0.298082
-0.0803765
0.223421
-0.243535
-0.0635697
0.270604
0.213374
-0.0388997
0.28946
-0.14525
0.197082
0.0041737
0.00805593
0.269943
-0.0156831
0.208917
0.19743
0.164214
0.326343
0.170965
-0.168825
0.138751
0.0296981
0.211088
0.325495
0.158323
0.0431483
-0.0749897
0.0105842
0.27171
-0.135175
0.243559
-0.0885951
0.107511
0.220731
0.200026
0.0597591
0.265532
0.311487
-0.00969668
-0.0224596
0.0843324
-0.102154
-0.154351
0.0902379
0.197875
-0.0932051
-0.171785
-0.06792
-0.172812
0.192094
0.0404503
0.215857
-0.0548613
0.287274
0.068959
0.253146
0.318184
-0.0786904
0.278054
-0.0132972
0.0883967
0.0631288
0.25972
-0.061038
0.00825236
0.0703056
-0.112867
-0.0157654
-0.120987
-0.151393
-0.242639
0.310957
0.324462
-0.096067
-0.0529981
0.205529
-0.194236
-0.0750714
-0.0238241
0.179182
0.191691
-0.207986
-0.246283
0.281005
-0.0525536
0.1213
-0.0567204
-0.177405
-0.123231
0.096194
0.253486
0.118096
-0.188507
0.288882
0.251021
-0.0916137
0.118388
-0.0328652
0.319361
-0.0122841
0.0182677
-0.156967
0.15988
0.299105
0.132234
0.0919588
-0.0720813
0.036813
0.123428
0.30863
0.331613
-0.0632741
0.313758
-0.0626843
0.100097
0.101311
0.0258401
-0.0363399
0.259629
0.0015408
0.0945307
-0.0890135
-0.0812977
0.00973393
-0.113891
0.164975
0.288174
-0.0935114
-0.055931
0.0919224
-0.0305673
-0.0586776
-0.240423
-0.0289964
0.259426
-0.179914
-0.0491776
0.188324
0.0919251
0.0301513
0.153448
0.241655
-0.0883848
-0.0793918
0.243632
0.0178204
-0.0893745
0.0506618
0.257271
0.154466
0.101945
-0.0576771
-0.0726468
-0.0704279
0.310102
0.245806
0.319683
0.0238696
0.173157
-0.138454
0.0587866
0.254772
-0.18587
-0.174964
0.198207
0.249822
-0.19284
-0.0444797
-0.0588392
-0.0950314
-0.0618236
0.330323
0.0154041
-0.0494483
0.0918828
-0.0747327
0.194872
0.103957
-0.147518
-0.0387861
0.219716
0.0336966
0.311803
-0.1583
-0.0542055
0.144938
0.124677
0.0269195
0.123624
-0.111363
0.316256
0.292339
0.148904
0.264827
-0.0876503
0.260838
0.151557
0.140539
0.301301
-0.193556
-0.0383945
0.322499
0.155213
-0.203914
-0.0481518
0.237529
0.319135
0.0562327
0.206902
-0.0608028
-0.161961
-0.0932382
-0.211379
0.254819
-0.0686741
0.0696025
0.30312
-0.0836287
-0.0848
-0.0682142
0.0824228
-0.0488613
-0.0404889
-0.071959
-0.133113
0.0358594
0.226872
0.298887
0.181044
-0.0209099
-0.0406986
-0.217253
-0.0475001
0.139732
0.116585
0.162398
0.192699
-0.0395825
0.0420447
0.237886
0.253372
0.319436
0.271587
0.304398
0.0375447
-0.148119
-0.0950526
-0.130575
0.309497
0.0821498
-0.0626007
0.299666
-0.139848
0.231904
0.193632
-0.0376189
-0.0548443
-0.0380464
-0.0656081
0.250578
0.000718209
0.18032
0.047915
0.296261
0.112684
0.327151
-0.100085
0.0498572
-0.0579584
-0.251539
-0.0257303
0.215236
-0.0993261
-0.250277
0.100874
0.28983
0.21255
-0.0672669
-0.156676
-0.0876553
-0.138277
-0.0522738
-0.136815
0.0235603
-0.123132
0.200265
-0.0997255
-0.0523673
0.279593
0.0461072
0.151477
0.241626
0.0129069
0.0687616
-0.101106
0.214168
-0.0058901
-0.0298509
0.0226352
-0.115696
-0.165379
-0.0573245
-0.0548182
0.210432
0.31936
0.260221
0.104782
0.186627
-0.186202
0.31396
0.109683
0.196528
-0.051057
0.190195
-0.0439185
-0.0193763
0.230389
0.296331
0.214325
0.108494
-0.011904
0.323894
-0.0104369
0.231485
0.307396
0.168566
0.00474557
-0.192387
0.232227
0.0992815
-0.125956
0.1538
0.0910961
0.293353
-0.0729673
0.303956
0.32035
0.0177253
-0.0975224
0.305519
-0.151056
-0.118807
-0.0187593
-0.123101
-0.0292279
-0.112027
-0.155466
0.0454054
-0.0484011
-0.09157
-0.0409322
0.115127
-0.0700985
-0.0808194
0.14645
0.0700036
-0.173977
0.286954
0.323617
0.30788
-0.0596889
-0.185342
0.331349
-0.162514
0.032744
-0.0676217
-0.0223354
-0.051306
0.197355
-0.0310372
-0.0336992
-0.174662
-0.187326
-0.124025
-0.0279682
-0.19844
0.0549963
0.0944807
0.041901
0.296444
0.0877564
0.158757
0.00627648
0.246657
-0.027919
-0.0213861
0.338197
-0.0159684
0.0908678
-0.153011
0.170046
0.320042
-3.55365e-06
0.130174
0.0930935
-0.0519737
-0.0645776
-0.0874869
-0.119859
0.203325
-0.112874
0.0163767
-0.0341426
0.0193363
-0.0863848
-0.0852597
0.0325153
-0.00779653
-0.0494287
0.322645
0.037106
0.00516214
0.103406
0.293627
-0.019191
-0.183482
0.222207
-0.148923
-0.000893193
-0.0579748
0.0444666
-0.0439116
0.00201503
0.0453404
0.31641
0.257724
-0.175194
-0.0504075
-0.188179
-0.066846
-0.206634
-0.114359
-0.0220088
-0.10116
-0.0160111
0.143421
0.329724
-0.0275368
0.190749
0.0664467
0.309305
-0.0340981
0.321555
0.134164
-0.14099
0.137094
0.201174
-0.0260139
0.251033
-0.0577265
0.265661
-0.0618242
-0.236985
0.0403577
0.327742
0.321698
0.203312
0.147835
0.179136
-0.178779
-0.0552254
0.178101
0.327388
-0.213558
0.0456413
-0.0551513
-0.0297939
0.0217503
-0.085581
-0.136515
-0.0634212
-0.118525
-0.0470152
-0.0146452
0.0206927
0.325599
0.249215
-0.20814
0.22472
-0.0994514
-0.0941932
0.232741
-0.0642082
-0.00235758
0.165294
-0.179604
-0.0854245
0.0540286
0.259056
-0.133043
-0.0749601
-0.00684046
0.139339
-0.131059
0.295516
-0.18923
-0.0261578
-0.00496698
-0.0704488
0.148048
0.143054
0.29482
-0.0636105
0.210436
0.0951958
0.133416
-0.0663278
0.146694
-0.107454
-0.14401
-0.22995
0.107668
0.0372688
-0.00447293
0.27403
0.0471776
0.0955469
0.143288
-0.0894144
-0.114497
-0.0245301
0.113147
-0.0550548
0.329538
-0.150919
-0.189016
-0.0197998
-0.031026
-0.0531791
-0.0593983
0.19003
-0.0207321
0.0481261
-0.131563
-0.0542497
0.042582
-0.114468
0.323466
0.312613
-0.125076
-0.0882317
0.25303
0.0693923
-0.0785297
-0.1568
-0.0757102
-0.127287
0.0914664
0.283969
-0.0772764
-0.179223
0.142055
0.037537
-0.187863
-0.129825
0.035502
0.183453
0.33181
-0.141391
-0.189874
0.112949
0.254674
0.00209924
0.0964141
-0.0120474
-0.0588659
-0.0206575
0.138646
0.0319365
-0.0581231
0.225335
-0.00854936
-0.225458
0.0851392
-0.0536162
0.231127
0.326127
-0.0498161
-0.031615
-0.0293974
-0.03092
-0.140546
-0.0197885
-0.127466
0.299853
0.236635
0.181205
-0.019763
-0.171483
0.216131
0.313312
-0.0820619
0.0793521
-0.0398735
-0.243308
0.0619332
-0.0256019
-0.244644
-0.0472759
0.143025
-0.145213
-0.18521
-0.122466
0.235244
-0.159095
0.225187
0.0328495
-0.069455
-0.0131462
-0.0945968
0.2319
-0.217399
-0.0204993
0.0094724
-0.146033
0.0964161
0.177715
0.109266
0.0378798
0.208823
-0.129943
-0.12668
0.281309
-0.0633353
0.275645
0.114126
0.000660798
0.0970743
0.260727
0.0376161
-0.190424
0.294604
-0.0697057
0.0112641
0.262156
-0.0816403
0.305748
-0.0768795
-0.00591537
-0.171463
-0.0040134
-0.119742
0.051175
-0.118932
-0.223493
-0.131545
-0.129727
-0.237272
0.284171
-0.130093
-0.010605
0.104371
0.0467979
0.315121
0.31742
-0.0474533
0.0495464
0.236805
-0.0605626
0.285166
-0.223993
-0.0133391
0.0829048
-0.0787302
0.241965
-0.038942
-0.029407
-0.040644
-0.0803223
-0.0613508
-0.220253
0.265004
-0.311344
0.300291
0.183046
-0.117115
-0.184469
-0.119831
0.332372
0.184511
0.149626
0.0321698
0.0997518
0.0115563
0.262443
0.217014
-0.0916941
0.130311
0.303859
0.0225984
0.0753414
0.139491
-0.202019
-0.130404
0.228811
-0.0146205
0.0206693
0.306064
-0.137144
-0.219631
-0.0677865
0.0198311
0.022146
0.319767
-0.0791065
-0.166424
-0.0833912
0.0164752
-0.0738562
0.274197
0.0417571
-0.115182
-0.0403708
-0.0829051
-0.0830566
-0.0268086
0.133765