/*--------------------------------*- C++ -*----------------------------------*\
  =========                 |
  \\      /  F ield         | OpenFOAM: The Open Source CFD Toolbox
   \\    /   O peration     | Website:  https://openfoam.org
    \\  /    A nd           | Version:  6
     \\/     M anipulation  |
\*---------------------------------------------------------------------------*/
FoamFile
{
    version     2.0;
    format      ascii;
    class       volScalarField;
    location    "0";
    object      p;
}
// * * * * * * * * * * * * * * * * * * * * * * * * * * * * * * * * * * * * * //

dimensions      [0 2 -2 0 0 0 0];

internalField   nonuniform List<scalar> 
13046
(
1.34247
1.25424
1.42163
1.32972
1.4154
1.30279
1.29792
1.3015
1.43235
0.762848
0.953629
1.43124
1.30809
1.22183
1.43192
0.932708
1.42701
0.952082
1.40868
1.36353
1.30084
0.902746
1.43067
0.957577
1.343
1.30356
1.40361
1.28849
1.20954
1.43353
1.36402
1.22633
1.41527
1.36175
1.40079
1.30881
1.35546
1.40218
1.32932
1.39693
1.38876
1.18357
1.34809
1.38534
1.35765
1.33843
1.3842
1.3606
1.31547
1.25694
1.42633
1.34618
1.43296
1.10304
1.34426
1.06983
1.44367
1.00209
1.23658
1.41803
1.15722
1.22484
1.45149
1.43852
1.05806
0.995551
1.27866
0.999607
1.40949
1.30617
1.01301
1.40772
0.97903
1.20878
1.41893
1.40965
1.37834
1.2718
1.42664
1.13176
0.983023
1.32882
1.30106
1.40962
1.43528
1.03544
0.946214
0.923585
1.44766
1.11459
1.44989
0.812154
1.14465
1.19032
1.14838
1.14335
1.13612
1.43802
1.44456
1.45112
0.927088
1.13662
1.33201
1.3966
1.34828
1.45085
1.12992
1.33812
1.41711
1.36714
1.13867
0.532977
1.42415
0.860975
1.31773
1.24189
1.4241
1.16738
1.19677
1.08967
1.43498
1.11996
1.4343
0.718231
0.925134
1.4296
1.25854
1.1609
1.44242
1.38491
1.39621
1.18426
1.44769
0.85388
1.17122
1.07411
1.12359
1.4456
1.35098
1.21012
1.41678
1.2156
1.29718
1.43795
1.41981
1.3518
1.13365
1.44193
1.15823
1.34262
1.14464
1.19903
1.44959
1.44712
1.23219
1.3346
1.30391
1.05797
1.28425
1.04862
1.45263
1.45518
1.20098
1.29464
1.43891
0.746678
1.43373
0.976112
0.611156
1.42532
0.881771
1.05947
1.10123
1.4448
1.39369
1.11725
1.40085
1.20888
1.43611
1.31051
1.44133
1.02014
0.765602
1.39776
1.14269
1.39158
1.44793
1.20824
1.33346
1.23694
1.30146
1.43185
1.21613
1.44441
1.27085
1.1852
1.43615
0.903119
1.44158
1.06788
1.4522
0.913323
1.1659
0.826709
1.12121
1.44379
1.34508
1.04006
1.42821
1.26579
1.1555
1.4219
0.971998
1.08955
0.801496
1.44644
1.33523
1.40727
1.33474
1.31261
1.20849
1.42805
1.45326
0.891324
1.17923
1.24582
1.23323
1.44761
1.43165
0.935578
0.625536
1.4341
1.03449
1.33254
0.882099
1.14092
1.44737
1.12021
1.29192
1.45401
1.25301
1.15232
1.43928
1.23042
0.923239
1.44822
1.01256
1.27164
1.45076
1.43088
0.940945
0.575018
1.42397
1.38262
1.12083
0.588282
1.42094
0.804621
1.40691
1.30827
1.34798
1.14231
1.1504
1.27012
1.29146
1.45486
1.44475
1.4212
1.09051
0.967724
1.29014
1.15908
1.42957
1.00145
1.24652
1.45795
1.11539
1.10631
1.43937
1.36518
1.34479
1.38589
1.08649
1.27472
1.45473
1.29833
1.13445
1.4289
1.26097
1.24994
1.43053
1.37846
1.09995
1.07721
1.25308
1.45389
1.06593
1.43959
1.09994
1.43487
1.36828
1.16345
1.45584
1.03429
1.30263
1.22478
1.08092
1.42562
1.43141
1.35638
1.09818
1.19077
1.16559
1.06649
1.4265
1.06778
1.4331
1.43877
1.02851
0.812394
1.22338
1.12865
1.43365
0.777401
1.42355
0.397046
1.26881
1.41927
1.3356
1.18746
1.23527
1.44683
1.44313
0.958291
1.08737
1.33929
1.03745
1.44362
1.20903
0.912143
1.45129
1.26419
1.43682
1.17941
1.20319
1.44421
1.26531
1.44099
0.987715
1.42748
0.972768
1.35591
1.01386
1.42982
1.15338
1.19098
1.44315
1.19666
1.29443
1.44683
1.13336
1.33711
1.44231
1.33425
1.27332
1.42265
1.44164
1.03974
1.3139
0.871388
1.08826
1.44176
1.20869
0.91685
1.45241
1.33197
1.3969
1.03344
1.15857
1.18903
1.03496
1.0164
1.4217
1.42246
1.42172
0.792278
0.45882
0.636742
1.42223
0.820381
1.11823
1.25691
1.44218
1.43906
0.880523
1.04196
1.27542
1.25592
1.05591
1.05253
1.41839
1.42051
1.43796
1.06527
0.692819
0.554772
1.41992
0.766591
1.30671
1.39214
1.37849
0.525278
0.820722
1.42262
1.37332
1.12452
1.40536
0.780561
1.03822
1.4432
0.808439
1.42196
0.255281
1.40298
1.38194
1.20819
1.28788
1.34703
1.41426
0.738058
1.42997
0.909537
1.27016
1.34138
1.42072
1.32317
1.38772
1.37738
1.45025
1.00019
1.32999
1.25562
1.3749
1.41149
1.27347
1.34515
1.41457
1.35763
1.03614
1.3911
1.43321
1.43647
0.970119
0.976304
0.853516
0.830555
0.814339
1.07966
1.44036
1.40481
1.3244
1.00462
1.4032
1.38147
1.14549
0.990355
1.27339
1.44463
0.903131
1.42617
0.360676
1.449
0.796417
1.12388
0.643406
1.42867
0.910595
1.42106
0.777476
0.225837
0.729429
1.42011
0.309107
1.21682
1.06413
1.44714
1.00888
1.43245
0.551328
1.03298
1.1293
1.44689
0.874577
1.42063
0.886844
1.29247
1.42793
1.27023
1.08548
1.4427
0.734183
1.00634
1.44464
1.2857
1.23403
1.00258
1.46008
1.41953
0.646341
0.0469186
0.814394
1.42338
0.351655
1.31179
1.42811
1.27864
1.0484
0.691105
1.43658
1.43875
0.636241
1.05498
0.893754
1.43616
1.03294
1.4265
0.9946
1.05548
1.38637
1.01478
1.39059
1.02732
1.22744
1.42493
1.42462
1.01824
0.935672
1.33733
1.32086
1.15295
1.1335
1.41773
1.42393
1.35717
1.14945
1.41083
1.30514
1.03473
1.41845
1.2177
0.959492
1.4519
1.07474
0.798569
1.4478
1.44948
0.958693
1.18467
0.733569
1.42114
0.371647
1.39359
1.37532
1.40395
1.21548
1.40925
1.23115
1.34706
1.34278
1.40385
1.0647
1.4115
1.08702
0.835373
1.42426
0.261849
1.05592
0.735789
1.43839
1.40543
1.37322
1.09547
1.24729
0.953472
1.45092
1.42556
0.99821
1.08996
0.879086
0.479583
1.42665
0.912085
0.506807
1.42852
1.25345
1.07495
1.42815
1.43991
1.35878
1.1852
0.857182
1.43489
1.00438
1.21312
1.02733
1.45565
1.44104
1.06519
1.04176
1.36177
1.40144
1.08227
1.13069
1.30697
1.44656
1.40957
1.3829
1.16529
1.43591
1.00513
0.806938
1.12348
1.08472
1.43676
1.40181
1.38917
1.22343
0.968807
1.42223
0.912973
1.33958
1.19599
1.4172
1.25385
1.31132
1.44066
1.23998
1.03343
1.45282
0.730309
1.42146
0.843066
0.776797
1.42112
0.84663
1.43837
1.0465
1.04663
1.09156
1.31579
1.44201
1.41858
0.809541
0.667563
1.44564
1.10976
0.991705
1.42157
0.758614
0.153099
0.261384
0.688106
1.41817
1.42838
0.959582
1.02304
1.43455
0.970547
0.690239
0.918108
0.954764
1.42989
0.982394
1.4328
1.01072
0.969561
1.12799
1.44664
1.46047
1.26718
0.944809
1.37565
1.40645
1.26106
0.987615
1.16399
1.45278
1.45432
1.00015
1.18157
1.05902
1.42265
0.935548
1.33809
1.04291
1.41158
1.35458
1.10908
1.40477
1.08637
1.19611
1.45243
1.06171
1.19536
1.45327
1.40492
1.37919
1.25151
1.32086
1.11087
1.42637
1.44476
1.10347
0.728784
0.476357
1.42991
0.93286
0.421628
1.4278
0.93599
1.38317
1.40156
1.1628
0.861469
1.42449
0.400936
1.0919
1.4365
1.05445
1.42511
0.872997
0.343144
1.33046
1.4142
1.32124
1.24256
1.2037
1.43922
1.32688
1.10297
1.44301
1.43521
1.02457
0.608391
1.21704
1.02727
1.45602
1.42252
0.925
0.915047
1.20635
1.19303
1.4456
1.37908
1.40692
1.27515
1.01411
0.646029
1.43744
1.44381
1.08062
0.998226
0.703247
0.653101
1.42385
1.42368
0.88072
0.860798
1.17618
1.27165
1.45029
1.23147
1.08937
1.44567
1.27681
1.30469
1.43795
0.966373
0.534739
0.977668
1.43254
0.521431
1.4329
1.14297
1.15461
1.44891
0.641863
0.588324
0.992693
0.97164
1.43566
1.432
1.08993
1.25249
1.46005
1.22891
1.24178
1.4422
0.828343
1.42404
0.88265
1.20342
1.25026
1.44873
1.2682
1.28307
1.43641
0.731937
1.42191
0.870222
1.22011
1.16095
1.43835
1.30221
0.977645
1.44637
1.37533
1.05684
1.39666
1.19159
1.44769
0.859463
1.41991
0.681382
0.115337
1.19413
1.22635
1.44524
0.858869
1.42583
0.931623
1.37397
1.01279
1.40957
0.410655
1.4168
0.731761
1.43437
1.42933
1.34578
1.21071
1.34752
1.18454
1.27465
1.31631
1.43197
1.41185
1.42345
1.36849
1.20803
1.36986
1.20674
1.21815
1.25934
1.44853
1.22376
1.26797
1.44842
1.43045
0.959663
0.448732
1.36966
1.16848
1.40412
0.697224
0.994649
1.43657
1.07998
1.04609
1.17148
1.15121
1.44703
1.44545
1.35458
1.19698
1.40829
1.29517
1.08069
1.41655
1.13707
1.19142
1.45156
1.37789
1.30681
1.38735
1.02604
1.16857
1.45152
1.3789
1.39547
1.25851
1.12026
1.23753
1.45569
1.28725
1.10616
1.41876
1.37993
1.39025
1.28518
1.39712
1.27946
1.38923
1.40835
1.36598
1.42194
1.25439
1.37476
1.22245
1.33251
1.31837
1.17423
1.17795
1.42179
1.42391
1.42964
1.012
1.06197
1.44167
1.00806
1.31415
1.43319
1.43498
0.999724
1.01892
1.01512
1.00292
1.4267
1.36233
1.06221
1.36824
1.38519
1.3355
1.01967
1.14781
1.44992
1.38787
1.40343
1.19631
1.26913
1.10419
1.42277
1.13546
1.13651
1.02031
1.43098
1.04079
1.43216
1.10541
1.14874
1.44488
0.46795
0.76636
1.4181
1.36509
1.0309
1.41438
1.39375
1.39393
1.38084
1.02822
1.38703
1.04502
0.982715
1.20293
1.45375
1.31164
1.08681
1.41491
1.42269
1.36905
1.06619
1.3825
1.38568
1.38264
1.39994
1.09589
1.09449
1.3804
1.39085
1.06131
1.10756
1.16847
1.44903
1.39054
1.38859
1.26338
0.786559
1.42667
0.921011
1.41765
1.37433
1.04638
1.27292
1.2408
1.118
1.10794
1.42458
1.43347
1.42756
0.939741
0.831984
0.829515
1.4262
0.901429
0.783472
1.42408
0.89718
1.09747
1.43359
1.03616
1.32032
1.11089
1.41547
1.14272
1.27267
1.3567
1.14989
1.33149
0.932136
1.30175
1.16803
1.20357
1.32426
1.32146
1.19522
1.16288
1.32381
1.26839
1.1945
1.15129
1.27673
1.27369
1.30242
1.27646
1.26803
1.33002
1.41769
1.37114
1.27554
1.34088
1.2072
1.28919
1.14589
1.21885
1.29692
1.28487
1.2653
1.23763
1.29374
1.36225
1.32868
1.17537
1.23595
1.2691
1.41701
1.24538
1.32107
1.31803
1.27292
1.27676
1.2769
1.19707
1.2538
1.37333
1.26989
1.19835
1.30149
1.21475
1.36996
1.30756
1.2859
1.29245
1.31803
1.25405
1.24802
1.37267
1.18104
1.28896
1.30876
1.28558
1.3918
1.32926
1.29909
1.22539
1.24142
1.24188
1.30971
1.23141
1.26059
1.26143
1.23448
1.31083
1.34268
1.27177
1.28218
1.19286
1.20528
1.26595
1.31628
1.26318
1.15279
1.2706
1.36993
1.20597
1.31862
1.36795
1.26402
1.1751
0.86044
1.23682
1.28141
1.17391
1.21981
1.30163
1.33418
1.32321
1.3904
1.1966
1.13164
1.1966
1.21651
1.24064
1.36133
1.33835
1.29484
1.2136
1.25156
1.23981
1.30747
1.27415
1.15514
1.20784
1.27132
1.27235
1.36575
1.38061
1.313
1.28277
1.24159
1.20638
1.38804
1.08929
1.3066
1.22402
1.36421
1.19583
1.02046
1.12649
1.34299
1.255
1.17958
1.23299
1.29917
1.18269
1.31754
1.26196
1.22732
1.32282
1.30384
1.19694
1.35173
1.23254
1.28045
1.1943
1.27926
1.1759
1.34905
1.31672
1.27214
1.31241
1.31771
1.35689
1.26223
1.23598
1.22475
1.30764
1.08789
1.21781
1.1996
1.41237
1.27581
1.33587
1.39092
1.28188
1.39276
1.35268
1.35767
1.19173
1.2151
1.20237
1.35735
1.20514
1.18975
1.07133
1.19098
1.2746
1.2879
1.28617
1.39055
1.31533
1.26603
1.31975
1.28895
1.41448
1.00345
1.31591
1.24312
1.22116
1.37907
1.3963
1.23858
1.2767
1.41035
1.28906
1.14089
1.23453
1.3115
1.35624
1.27744
1.20421
1.29481
1.31269
1.27661
1.2754
1.18505
1.06322
1.2254
1.24515
1.26522
1.21096
1.15687
1.33577
1.26584
1.21516
1.28289
1.20591
1.20272
1.29909
1.29948
1.19069
1.19342
1.11785
1.30413
1.2551
1.24361
1.29331
1.30095
1.20918
1.28749
1.26454
1.19389
1.24531
1.35008
1.27973
1.35506
1.35311
1.41826
1.18472
1.18599
1.27599
1.27827
1.19967
1.21878
1.29185
1.37193
1.31324
1.28343
1.19608
1.25757
1.27156
1.27857
1.28806
1.23162
1.28099
1.26871
1.05106
1.20531
1.23637
1.19977
1.25224
1.29875
1.28267
1.27362
1.30328
1.17614
1.2715
1.26497
1.27874
1.25616
1.29047
1.28713
1.19917
1.16398
1.27417
1.19389
1.18529
1.28002
1.02615
1.18768
1.34479
1.29554
1.22411
1.24768
1.22141
1.29477
1.1796
1.05085
1.18601
1.31525
1.27137
1.30873
0.929619
1.18298
1.34606
1.26722
1.13163
1.15873
1.19701
1.2133
1.1882
1.29816
1.30938
1.21923
1.19773
1.25009
1.2505
1.41524
1.11678
1.31519
1.29134
1.02705
1.2276
1.20306
1.2156
1.29726
1.29013
1.3756
1.27409
1.18265
1.27087
1.27209
1.41835
1.28224
1.36303
1.31581
1.26017
1.28773
1.27555
1.24505
1.20153
1.27474
1.1623
1.28774
1.2866
1.21774
1.18988
1.18587
1.18478
1.15408
1.3384
1.20228
1.2382
1.35443
1.32608
1.20998
1.20387
1.36007
1.22296
1.01633
1.26588
1.21831
1.20272
1.34872
1.27426
1.24973
1.34084
1.22433
1.2835
1.22665
1.28492
1.27201
1.25447
0.873922
1.20195
1.2203
1.22725
1.27341
1.26937
1.30517
1.37447
1.17625
1.23672
1.17892
1.09697
1.19669
1.33263
1.26697
1.23104
1.23743
1.28672
1.1932
1.14856
1.18151
1.21866
1.25713
1.36653
1.25589
1.28609
1.4016
1.33433
1.31811
1.36269
1.1527
1.24417
1.20289
1.41415
1.31735
1.33795
1.27389
1.26106
1.22135
1.29416
1.20962
1.10951
1.33716
1.27492
1.09779
1.19694
1.22237
1.19068
1.22866
1.27183
1.27223
1.18613
1.23721
1.20085
1.22919
1.20816
1.26634
1.15722
1.21489
1.35779
1.37029
1.31502
1.30406
1.28722
1.00997
1.31734
1.27423
1.17715
1.356
0.974425
1.37716
1.24354
1.2792
1.26113
1.31107
1.30105
1.17696
1.39286
1.17288
1.33992
1.28306
1.24306
1.24345
1.14671
1.25431
1.34262
1.24454
1.41211
1.30426
1.19767
1.12702
1.30385
0.995382
1.30306
1.28196
1.20177
1.37835
1.08394
1.07297
1.32325
1.28327
1.37588
1.40316
1.25679
1.41271
1.37799
1.33938
1.341
1.2946
1.1958
1.249
1.27491
1.33455
1.24998
0.968214
1.39263
1.22751
1.25449
1.24534
1.36238
1.41229
1.25711
1.33547
1.2812
1.37476
1.19419
1.32023
1.24191
1.3917
1.40887
1.31106
1.24393
1.31063
1.19853
1.18194
1.27775
1.25169
1.28611
1.14421
0.987817
1.2016
1.25861
1.29398
1.26823
1.35024
1.25191
1.20099
1.28589
1.2012
1.36735
1.15304
1.24179
1.33961
1.34347
1.2735
1.39687
1.17596
1.27229
1.32173
1.22614
1.16325
1.27485
1.25074
1.29858
1.3127
1.24862
1.20796
1.27901
1.21125
1.18923
1.36987
1.39192
1.41015
1.15989
1.40788
1.41138
1.38174
1.20959
1.29892
1.29046
1.39552
1.29817
1.16298
1.20659
1.24192
0.952732
1.38836
1.26664
1.26415
1.32208
1.30956
1.26876
1.24603
1.41173
1.38115
1.35876
1.2991
1.24801
1.28301
1.30272
1.29426
1.24343
1.25085
1.25669
1.26306
1.28133
1.2323
1.36083
1.37408
1.19748
1.34163
1.21989
1.19376
1.2316
1.3591
1.26866
1.29835
1.27396
1.35829
1.2847
1.27874
1.4059
1.22918
1.20552
1.18545
1.19435
1.17448
0.835541
1.20686
1.19736
1.28359
1.19273
1.25335
1.28106
1.23511
1.20143
1.2337
1.25918
0.862258
1.37634
1.29435
1.27948
1.20086
1.29298
1.25137
1.1614
1.40525
1.21181
1.40384
1.25482
1.34939
1.15303
1.05297
1.24618
1.26282
1.26978
1.28499
1.05719
1.29007
1.27508
1.19835
1.16796
1.23611
1.25286
1.38601
1.14667
1.30752
1.32302
1.30602
1.25022
1.32473
1.20054
0.840087
1.27988
1.20689
1.17845
1.31411
1.31633
1.27838
1.29894
1.25719
1.40597
1.37534
1.26724
1.25394
1.39456
1.35429
1.30012
1.29401
1.28347
1.41024
1.22983
1.19594
1.36349
1.33318
1.37533
1.28037
1.26221
1.22969
1.3173
1.2987
0.779383
1.41862
1.27906
1.19394
1.27228
1.30832
1.39698
1.40483
1.29514
1.23684
1.32371
1.35047
1.33155
1.3157
1.33757
1.05967
1.1969
1.27457
1.19965
1.05954
1.208
1.27928
1.32432
1.2189
1.27353
1.16146
1.27186
1.40624
1.26364
1.21257
1.19829
1.23225
1.28024
1.22985
1.22173
1.33855
1.28916
1.29095
1.18276
1.29641
1.23748
1.21667
1.3058
1.32284
1.34058
1.41336
1.20157
1.34738
1.20303
1.36354
1.36699
1.37473
1.3274
1.19917
1.19673
1.27178
1.18291
1.22346
1.23186
1.24095
1.18588
1.32456
1.29869
1.19208
1.34241
1.27491
1.27016
1.2792
1.30524
1.34923
1.2941
1.27525
1.19954
1.33487
1.16978
1.3688
1.18207
1.28227
1.36413
1.31708
1.39872
1.3217
1.28759
1.1594
1.20897
1.2761
1.23835
1.38547
1.16632
1.15575
1.26827
1.28101
1.27815
1.19576
1.32985
1.31309
1.29303
0.992134
1.25919
1.1243
1.17111
1.26807
1.26782
1.26156
1.24579
1.32949
1.19571
1.3993
1.27957
1.15369
1.30468
1.27777
1.3775
1.25904
1.23953
1.19262
1.23755
1.26735
1.38021
1.2346
1.27717
1.28909
1.33171
1.23789
1.27787
1.24366
1.40654
1.18516
1.19092
1.10953
1.32805
1.19357
1.22548
1.20076
1.22514
1.36843
1.26938
1.30423
1.35043
1.30017
1.1456
1.40744
1.18581
1.28676
1.30177
1.2466
1.20147
1.26681
1.25885
1.18
1.25042
1.10238
1.20123
1.27562
1.12635
1.22404
1.33104
1.21463
1.22953
1.26322
1.36462
1.26423
1.18881
1.29948
1.21797
1.22912
1.28766
1.26375
1.28955
1.29069
1.36653
1.27321
1.33017
1.28676
1.34755
1.38711
1.3869
1.15642
1.24013
1.28233
1.18567
1.3964
1.34873
1.33392
1.27212
1.19346
1.19351
1.28459
1.32038
1.17221
1.33294
1.33966
1.30174
1.19512
1.19858
1.20546
1.13712
1.2694
1.17565
1.28852
1.22829
1.29546
1.2081
1.26776
1.18979
1.28797
1.29082
1.30416
1.26524
1.28911
1.36821
1.37449
1.28111
1.2577
1.32835
1.28347
1.22796
1.24919
1.28131
1.2213
1.36216
1.2673
1.28346
1.3166
1.3165
1.25497
1.09601
1.40596
1.27276
1.26768
1.2774
1.27828
1.3296
1.3692
1.2733
1.29387
1.18355
1.23751
1.26004
1.29977
1.28197
1.27782
1.28192
1.37375
1.28863
1.26452
1.35194
1.28622
1.19425
1.25147
1.39709
1.22608
1.18961
1.25002
1.4006
1.25985
1.2784
1.32862
1.3221
1.33756
1.27755
1.19546
1.29562
1.2479
1.26257
1.34265
1.26634
1.18982
1.17606
1.26482
1.29914
1.22774
1.19537
1.34708
1.28007
1.40818
1.33479
1.19096
1.17855
1.26273
1.31825
1.35346
1.26871
1.25929
1.12361
1.26958
1.25115
1.41147
1.35859
1.32632
1.19694
1.18388
1.33254
1.41341
1.36878
1.33121
1.3508
1.25504
1.25993
1.17813
1.19055
1.37424
1.28086
1.0625
1.21656
1.41105
1.2806
1.19443
1.19717
1.27348
1.24698
1.37143
1.29177
1.30566
1.36333
1.34178
1.2522
1.30017
1.26635
1.27501
1.22028
1.29898
1.25068
1.38221
1.05964
1.29772
1.0417
1.26501
1.36782
1.30216
1.34142
1.34645
1.35917
1.23355
1.26931
1.2628
1.14416
1.37749
1.2853
1.23999
1.29123
0.944018
1.21697
1.34019
1.30182
1.37692
1.18641
1.20121
1.27544
1.38505
1.08406
1.24024
1.26795
1.08621
1.18472
1.34277
1.18951
1.26059
1.19606
1.36552
1.40199
0.948434
1.32966
1.28797
1.23391
1.19568
1.27715
1.24644
1.27725
1.21968
1.28293
1.26174
1.29501
1.26911
1.34001
1.24236
1.1884
1.25199
1.18503
1.20829
1.26771
1.1347
1.25498
1.23683
1.27767
1.33783
1.28565
1.28397
1.04562
1.33784
1.25911
1.25231
1.41946
1.27701
1.28485
1.09674
1.06287
1.39018
1.20923
1.27621
1.29964
1.24664
1.34265
1.05114
1.34299
1.26296
1.32461
1.26883
1.29291
1.27116
1.20463
1.24055
1.2622
1.36373
1.18258
1.1953
1.23701
1.38132
1.399
1.11601
1.25675
1.27265
1.34447
1.25413
1.36854
1.35091
1.33507
1.32415
1.28463
1.24837
1.21946
1.3769
1.23964
1.27151
1.12072
1.18983
1.22685
1.19022
1.39387
1.07209
1.35616
1.24505
1.38647
1.29019
1.39616
1.3232
1.29932
1.38729
1.37165
1.41769
1.27156
1.35729
1.24472
1.28436
1.20335
1.23311
1.37625
1.07452
1.27975
1.2986
1.27336
1.28744
1.27872
1.3473
1.26959
1.31611
1.19025
1.20873
1.29034
1.36019
1.1197
1.30588
1.1996
1.28839
1.19303
1.26488
1.3033
1.33356
1.38214
1.19832
1.277
1.27827
1.29199
1.344
1.13932
1.18324
1.38595
1.1827
1.25005
1.3202
1.37416
1.40568
1.19149
1.22234
1.22132
1.22115
1.14785
1.27818
1.28271
1.27812
1.2231
1.26452
1.26819
1.23635
1.14942
1.23914
1.27381
1.21291
1.33027
1.32363
1.17302
1.32211
1.05129
1.23721
1.10843
1.22503
1.39609
1.28279
1.28872
1.27884
1.3324
1.37643
1.28097
1.31693
1.1554
1.27927
1.25567
1.2876
1.19513
1.37771
1.27357
1.2443
1.3965
1.33151
1.20949
1.38823
1.18873
1.28488
1.28114
1.2952
1.13775
1.35678
1.27617
1.28662
1.2791
1.22625
1.19957
1.22469
1.32223
1.34472
1.36131
1.26743
1.28787
1.36649
1.30036
1.26996
1.24316
1.23138
1.2622
1.34197
1.20378
1.3522
1.27966
1.35981
1.40201
1.38028
1.27325
1.30828
1.35024
1.01816
1.36412
1.10515
1.38348
1.33682
1.2726
1.27604
1.25542
1.26677
1.11121
1.15173
1.27938
1.1736
1.38842
1.20117
1.2102
1.14104
1.18955
1.28991
1.3406
1.40427
1.19935
1.28867
1.28283
1.28748
1.2546
1.26413
1.37234
1.33774
1.27601
1.36613
1.34346
1.40412
1.19873
1.23126
1.16846
1.32148
1.39107
1.34745
1.27417
1.39854
1.26596
1.18377
1.27156
1.17724
1.23159
1.20401
1.40149
1.40997
1.28498
1.4079
1.34005
1.27383
1.39412
1.22477
1.35139
1.25939
1.3764
1.25388
1.19502
1.31609
1.29184
1.38524
1.3695
1.37495
1.1877
1.18055
1.17399
1.33757
1.3387
1.11693
1.24107
1.34004
1.20193
1.26063
1.20271
1.24561
1.29543
1.24804
1.28109
1.25379
1.28367
1.28886
1.32223
1.26123
1.23287
1.29323
1.28657
1.26812
1.36013
1.38049
1.11625
1.33525
1.20006
1.24373
1.36301
1.33377
1.25517
1.38215
1.20836
1.32284
1.24489
1.21363
1.36316
1.25556
1.32671
1.3053
1.31021
1.41642
1.31271
1.2239
1.30903
1.20357
1.32884
1.40985
1.3019
1.25808
1.1922
1.21231
1.36476
1.23223
1.30937
1.18386
1.2627
1.33216
1.32424
1.27425
1.35117
1.39929
1.2309
1.25565
1.29001
1.19475
1.23281
1.28091
1.30658
1.27235
1.21728
1.11561
1.1885
1.32029
1.25817
1.33022
1.2089
1.37145
1.28725
1.34774
1.38597
1.25798
1.37204
1.21438
1.28953
1.23689
1.33877
1.1781
1.262
1.24164
1.19306
1.25589
1.20898
1.18873
1.19803
1.39743
1.40496
1.2855
1.18926
1.32894
1.19328
1.12719
1.27527
1.3156
1.31567
1.19876
1.19966
1.3695
1.18258
1.29582
1.18611
1.21378
1.26897
1.19553
1.35064
1.28951
1.23147
1.37387
1.35204
1.22347
1.29618
1.27735
1.3887
1.27855
1.24824
1.20239
1.30472
1.37198
1.29945
1.17813
1.20984
1.24664
1.2897
1.39655
1.40946
1.17929
1.40133
1.21532
1.28565
1.29179
1.27027
1.24689
1.34479
1.1302
1.28694
1.17494
1.22435
1.16525
1.19845
1.30643
1.37532
1.22064
1.23229
1.28877
1.24544
1.10818
1.17152
1.22614
1.321
1.0034
1.23963
1.29829
1.28651
1.26999
1.3034
1.33515
1.07895
1.07486
1.35045
1.27399
1.10681
1.25209
1.33572
1.31154
1.28304
1.16813
1.29613
1.17733
1.39612
1.34801
1.4085
1.26453
1.31478
1.21183
1.28397
1.35484
1.19592
1.22703
1.32321
1.34947
1.20504
1.21252
1.15179
1.07674
1.15633
1.40787
1.24365
1.20732
1.17212
1.19081
1.31975
1.19817
1.21934
1.19547
1.32915
1.25317
1.39912
1.22539
1.26605
1.28553
1.29348
1.26233
1.29997
1.18812
1.4042
1.32055
1.28838
1.34475
1.23856
1.34956
1.29764
1.25772
1.38709
1.18975
1.24229
1.40586
1.29876
1.20023
1.23122
1.31254
1.40442
1.28095
1.32927
1.16364
1.20868
1.18788
1.17231
1.35214
1.23229
1.2769
1.38354
1.27007
1.0846
1.19611
1.27444
1.18799
1.26121
1.20266
1.22987
1.24141
1.33549
1.38628
1.30013
1.18408
1.25136
1.19054
1.26685
1.3106
1.2819
1.27072
1.30746
1.2527
1.27194
1.33653
1.35161
1.40769
1.36162
1.39051
1.2629
1.21885
1.20312
1.19574
1.39729
1.28472
1.22019
1.38542
1.22693
1.34045
1.32056
1.2101
1.17326
1.24237
1.28503
1.35091
1.2625
1.31515
1.27875
1.38432
1.29558
1.41603
1.22573
1.27767
1.24643
1.19401
1.24643
1.32851
1.09647
0.934686
1.27964
1.3468
1.33154
1.26573
1.20121
1.19006
1.24277
1.17727
1.26961
1.27022
1.21127
1.32377
1.28637
1.19666
1.31031
1.23882
1.207
1.34275
1.24978
1.27176
1.18067
1.30508
1.23984
1.19546
1.24741
1.24443
1.23392
1.19842
1.09022
1.33277
1.40811
1.35809
1.29153
1.32052
1.21486
1.40026
1.27916
1.29351
1.15222
1.3174
1.2385
1.25377
1.34144
1.36928
1.32753
1.28687
1.29601
1.41448
1.21739
1.32464
1.39363
1.31038
1.26271
1.20573
1.33122
1.24589
1.22988
1.30577
1.26015
1.37899
1.22108
1.3827
1.40833
1.27474
1.22509
1.39286
1.19769
1.22582
1.24662
1.21142
1.23531
1.22841
1.22403
1.27965
1.18646
1.18817
1.27452
1.28228
1.24117
1.23925
1.2991
1.27907
1.24406
1.37952
1.38842
1.38908
1.19151
1.24346
1.41623
1.1938
1.2749
1.1332
1.27622
1.14075
1.32382
1.27592
1.28477
1.21243
1.18988
1.23696
1.29645
1.23822
1.27364
1.28526
1.26457
1.38564
1.29204
1.29581
1.22858
1.34661
1.23647
1.2827
1.39952
1.21966
1.23246
1.20765
1.31339
1.40491
1.23432
1.2853
1.24854
1.21568
1.1745
1.27271
1.18877
1.32403
1.22602
1.2639
1.28297
1.27444
1.1958
1.27162
1.2707
1.25202
1.29988
1.37663
1.27614
1.24676
1.27732
1.37108
1.28099
1.18997
1.32124
1.19653
1.27311
1.16179
1.22272
1.2534
1.12258
1.20937
1.40528
1.35432
1.18403
1.28948
1.20533
1.14584
1.19557
1.19232
1.2216
1.21327
1.22256
1.30559
1.41427
1.26157
1.32132
1.2707
1.39596
1.29026
1.40831
1.29647
1.23132
1.30057
1.32745
1.26345
1.33266
1.16143
1.36075
1.26054
0.945501
1.27759
1.41507
1.38773
1.32136
1.30497
1.31116
1.24879
1.25352
1.29658
1.41389
0.969047
1.25325
1.15499
1.24084
1.28132
1.17995
1.1932
1.23034
1.21422
1.19941
1.25136
1.27187
1.41491
1.34302
1.20582
1.3379
1.19318
1.28422
1.33702
1.28773
1.27322
1.29812
0.985925
1.21595
1.28376
1.35206
1.21508
1.23594
1.28536
1.30339
1.19201
1.37864
1.2227
1.29463
1.28078
1.2628
1.29948
1.30702
1.37519
1.16606
1.31976
1.27825
1.30067
1.18874
1.29245
1.25342
1.18585
1.2135
1.25277
1.26734
1.28288
1.35064
1.26888
1.1865
1.29811
1.21904
1.21488
1.27574
1.28264
1.1947
1.41085
1.2146
1.22671
1.21975
1.28523
1.1976
1.12931
1.31523
1.25407
1.27289
1.22075
1.16163
1.26485
1.07757
1.40911
1.36468
1.21111
1.19779
1.35115
1.2278
1.19878
1.19113
1.15936
1.24288
1.28193
1.37427
1.19925
1.23941
1.30551
1.27264
1.22147
1.21381
1.26344
1.31877
1.39935
1.21111
1.18331
1.28956
1.35207
1.25903
1.28595
1.27582
1.1682
1.28799
1.30037
1.26366
1.17867
1.33348
1.28092
1.17412
1.28313
1.20802
1.34207
1.41526
1.19621
1.28839
1.2723
1.28326
1.2035
1.29397
1.24434
1.38862
1.33482
1.31564
1.21614
1.23202
1.32889
1.40164
1.24787
1.28138
1.26521
1.20369
1.27063
1.27569
1.20227
1.06375
1.22634
1.26694
1.22108
1.20636
1.26906
1.25996
1.32818
1.19933
1.20548
1.24598
1.19467
1.34028
1.20353
1.29776
1.27337
1.19088
1.29009
1.28542
1.29161
1.27049
1.32543
1.2186
1.21252
1.36492
1.17259
1.35993
1.2936
1.24862
1.25209
1.35839
1.27418
1.19644
1.38095
1.16587
1.26221
1.35013
1.17653
1.38695
1.21121
1.27976
1.01577
1.28389
1.19596
1.28539
1.24112
1.18245
1.25467
1.18655
1.21078
1.37427
1.18993
1.26926
1.29195
1.27607
1.40383
1.40596
1.25628
1.17762
1.34489
1.24483
1.37453
1.22314
1.25829
1.29099
1.26053
1.34601
1.27935
1.28319
1.22348
1.29218
1.13368
1.17244
1.35986
0.868116
1.36378
1.3143
1.22917
1.20644
1.26066
1.40614
1.29885
1.30511
1.27983
1.29106
1.27186
1.35785
1.33156
1.19443
1.29644
1.3766
1.26694
1.27902
1.27876
1.21164
1.20536
1.29757
1.2907
1.26298
1.38782
1.1949
1.22735
1.295
1.25061
1.25908
1.38051
1.21645
1.24083
1.23428
1.26101
1.21298
1.36753
1.186
1.27185
1.24811
1.25904
1.18683
1.18277
1.30084
1.18622
1.19254
1.35456
1.26792
1.28008
1.19381
1.19392
1.23953
1.35246
1.39775
1.28063
1.25909
1.26289
1.34181
1.37874
1.22466
1.37688
1.24795
1.30019
1.29773
1.36375
1.2661
1.35819
1.36855
1.18123
1.15215
1.26853
1.24492
1.26553
1.05504
1.06916
1.31909
1.34379
1.20518
1.38138
1.27475
1.32532
1.27613
1.20277
1.34306
1.33254
1.27504
1.17705
1.20238
1.40822
1.31837
1.41657
1.1883
1.26269
1.29008
1.3485
1.30243
1.31093
1.25718
1.37662
1.26142
1.25196
1.27764
1.26034
1.28502
1.03966
1.34147
1.27458
1.28519
1.3764
1.18649
1.20547
1.22872
1.22605
1.36031
1.21888
1.29655
1.04863
1.23257
1.26191
1.22108
1.20208
1.31855
1.20002
1.20956
1.27346
1.28027
1.3673
1.23533
1.26676
1.36107
1.25016
1.39259
1.26663
1.31243
1.25907
1.23578
1.40851
1.19508
1.22174
1.28645
1.3757
1.31712
1.27157
1.15466
1.41459
1.28719
1.26872
1.32569
1.4014
1.31912
1.30442
1.19469
1.1891
1.267
1.19564
1.28143
1.28157
1.19012
1.37141
1.40408
1.37874
1.30167
1.28368
1.19189
1.2558
1.30895
1.2124
1.30701
1.386
1.2569
1.28624
1.28373
1.32429
1.30114
1.28268
1.19224
1.31814
1.15778
1.03262
1.24782
1.42079
1.19177
1.34
1.25089
1.15504
1.35546
1.28043
1.39199
0.969667
1.28296
1.29314
1.37768
1.25631
1.37402
1.27912
1.18931
1.25813
1.26732
1.26538
1.18157
1.32643
1.28144
1.21016
1.18788
1.26429
1.31864
1.17214
1.29548
1.36149
1.20572
1.35046
1.20877
1.14354
1.17448
1.26652
1.2278
1.19916
1.1558
1.16756
1.26476
1.25818
1.32884
1.26238
1.36445
1.17861
1.29471
1.19982
1.22412
1.17961
1.3014
1.41624
1.22245
1.22402
1.41776
1.26761
1.29576
1.30772
1.25063
1.29147
1.28358
1.26952
1.38721
1.39993
1.40313
1.27221
1.22036
1.2427
1.25345
1.35179
1.28188
1.23007
1.14151
1.22572
1.28172
1.39381
1.27066
1.38457
1.23773
1.25329
1.25819
1.17448
1.25111
1.22908
1.36859
1.19876
1.2144
1.20766
1.41599
1.2923
1.21012
1.19431
1.16827
1.32129
1.26345
1.24045
1.21178
1.26902
1.20587
1.26708
1.25501
1.19557
1.35535
1.36306
1.26065
1.3715
1.36696
1.35804
1.27048
1.25011
1.23845
1.27335
1.38678
1.27743
1.27843
1.36144
1.40424
1.38452
1.36499
1.16223
1.31207
1.27326
1.26679
1.18741
1.26296
1.35364
1.41522
1.39353
1.18211
1.24367
1.19946
1.0638
1.25137
1.40787
1.28503
1.33132
1.33439
1.32839
1.31991
1.14991
1.24715
1.23808
1.1969
1.2054
1.26534
1.19251
1.17605
1.17217
1.36936
1.29374
1.19435
1.37636
1.17479
1.21314
1.27125
1.1897
1.29182
1.32035
1.18683
1.24057
1.40461
1.40413
1.3112
1.31225
1.22504
1.27648
1.27101
1.18409
1.28862
1.27747
1.16962
1.30836
1.29637
1.2114
0.90873
1.15553
1.38595
1.21188
1.31526
1.28867
1.34912
1.27045
1.18615
1.33847
1.30667
1.28882
1.27021
1.24304
1.19985
1.18451
1.30543
1.17373
1.3195
1.3002
1.20748
1.29308
1.2097
1.21443
1.40779
1.25811
1.31115
1.19034
1.21347
1.19636
1.25281
1.35505
1.3648
1.28231
1.39058
1.18907
1.36894
1.34303
1.30099
1.20191
1.34564
1.19237
1.31194
1.29548
1.02562
1.25282
1.19581
1.39275
1.31316
1.17488
1.20899
1.26473
1.27922
1.31723
1.27506
1.26547
1.41689
1.14894
1.39963
1.26672
1.22965
1.20405
1.3474
1.20799
1.35811
0.896864
1.21793
1.30446
1.33264
1.28024
1.28073
1.22315
1.22027
1.3237
1.30827
1.16473
1.32158
1.25723
1.35399
1.03899
1.28151
1.16698
1.20214
1.27425
1.20445
0.953733
1.15411
1.36959
1.29254
1.22222
1.36919
1.21859
1.31408
1.08546
1.21648
1.20837
1.36012
1.39251
1.31042
1.27705
1.28056
1.12438
1.30071
1.1764
1.34775
1.08088
1.26266
1.10292
1.21335
1.25573
1.37467
1.26385
1.27039
1.21825
1.22791
1.3388
1.26515
1.27439
1.41531
1.30805
1.17526
1.32097
1.35848
1.26156
1.09677
1.20552
1.27353
1.17652
1.26739
0.995468
1.29706
1.28098
1.36
1.24594
1.33035
1.35231
1.27717
1.18472
1.24186
1.16097
1.25706
1.17368
1.28031
1.28919
1.27954
1.34953
1.34853
1.09964
1.37831
1.26991
1.35307
1.31059
1.27385
1.27081
1.27942
1.19026
1.38019
1.38885
1.38259
1.2798
1.34476
1.29599
1.33578
1.33876
1.30815
1.26067
1.13219
1.27165
1.30379
1.36936
1.23512
1.25697
1.30629
1.21382
1.32976
1.28607
1.28378
1.18438
1.38212
1.31125
1.32699
1.32973
1.40331
1.23579
1.24199
1.36722
1.20156
1.37241
1.32255
1.2584
1.25019
1.39956
1.28996
1.28551
1.16708
1.19656
1.28277
1.2171
1.2704
1.38041
1.26418
1.33615
1.26461
1.18531
1.3853
1.31171
1.2712
0.990299
1.38329
0.9841
1.20014
1.25133
1.38551
1.39246
1.19697
1.39422
1.22849
1.19825
1.33566
1.21425
1.21968
1.30248
1.30206
1.18492
1.30124
1.00441
1.22074
1.28047
1.31836
1.2563
1.18284
1.19254
1.27122
1.28457
1.18005
1.27684
1.33242
1.29784
1.18154
1.19347
1.19638
1.26905
1.26777
1.30046
1.1575
1.29297
1.18923
1.19619
1.29193
1.17004
1.33029
1.33594
1.29479
1.17828
1.30449
1.10046
1.34381
1.38114
1.39759
1.37031
1.12387
1.21496
1.3552
1.17785
1.31593
1.30778
1.33146
1.21561
1.11014
1.03314
1.306
1.31344
1.18605
1.29285
1.21542
1.24985
1.39625
1.17051
1.21595
1.34869
1.2664
1.39105
1.31891
1.22691
1.21616
1.28109
1.24955
1.28179
1.22866
1.18302
1.42042
1.24666
1.35861
1.20134
1.38773
1.31257
1.31636
1.3209
1.16135
1.34189
1.32924
1.21009
1.13212
1.3593
1.36285
1.21918
1.25903
1.3167
1.39231
1.23039
1.18312
1.28105
1.3891
1.2787
1.28778
1.36839
1.35109