/*--------------------------------*- C++ -*----------------------------------*\
  =========                 |
  \\      /  F ield         | OpenFOAM: The Open Source CFD Toolbox
   \\    /   O peration     | Website:  https://openfoam.org
    \\  /    A nd           | Version:  6
     \\/     M anipulation  |
\*---------------------------------------------------------------------------*/
FoamFile
{
    version     2.0;
    format      ascii;
    class       volScalarField;
    location    "25579";
    object      k;
}
// * * * * * * * * * * * * * * * * * * * * * * * * * * * * * * * * * * * * * //

dimensions      [0 2 -2 0 0 0 0];

internalField   nonuniform List<scalar> 
115600
(
2.79208e-06
1.66972e-06
1.69205e-06
1.7277e-06
1.70972e-06
1.63681e-06
1.53446e-06
1.42373e-06
1.32065e-06
1.22533e-06
1.13908e-06
1.06221e-06
9.9433e-07
9.34746e-07
8.82608e-07
8.37074e-07
7.97366e-07
7.62796e-07
7.32762e-07
7.06742e-07
6.84286e-07
6.65003e-07
6.48557e-07
6.34656e-07
6.23044e-07
6.135e-07
6.05828e-07
5.99855e-07
5.95427e-07
5.92402e-07
5.90666e-07
5.9039e-07
5.91782e-07
5.94377e-07
5.97976e-07
6.02446e-07
6.07678e-07
6.13582e-07
6.20075e-07
6.27094e-07
6.34579e-07
6.42488e-07
6.50792e-07
6.59482e-07
6.68582e-07
6.78158e-07
6.88344e-07
6.99386e-07
7.11696e-07
7.26095e-07
7.43837e-07
7.68495e-07
8.05419e-07
8.82028e-07
1.08704e-06
1.99946e-06
2.69404e-05
2.75746e-05
2.9751e-05
3.11461e-05
3.13381e-05
3.04572e-05
2.89155e-05
2.70858e-05
2.52682e-05
2.35444e-05
2.19578e-05
2.05253e-05
1.92482e-05
1.81185e-05
1.71241e-05
1.62513e-05
1.54873e-05
1.482e-05
1.42388e-05
1.37343e-05
1.32981e-05
1.29231e-05
1.2603e-05
1.23321e-05
1.21057e-05
1.19195e-05
1.17698e-05
1.16532e-05
1.15667e-05
1.15077e-05
1.14739e-05
1.14672e-05
1.14907e-05
1.15377e-05
1.16044e-05
1.1688e-05
1.17866e-05
1.18982e-05
1.20213e-05
1.21544e-05
1.22964e-05
1.24462e-05
1.26031e-05
1.27668e-05
1.29372e-05
1.31153e-05
1.33029e-05
1.35036e-05
1.37237e-05
1.39753e-05
1.42788e-05
1.4683e-05
1.52791e-05
1.63962e-05
1.91238e-05
2.59035e-05
5.53823e-05
7.27446e-05
8.38909e-05
9.02434e-05
9.27021e-05
9.22332e-05
8.98499e-05
8.63765e-05
8.24124e-05
7.83783e-05
7.44618e-05
7.07676e-05
6.73495e-05
6.42273e-05
6.1401e-05
5.88599e-05
5.65882e-05
5.45682e-05
5.27816e-05
5.12103e-05
4.98372e-05
4.86462e-05
4.76221e-05
4.67511e-05
4.60207e-05
4.5419e-05
4.49355e-05
4.45604e-05
4.42847e-05
4.41e-05
4.39993e-05
4.39841e-05
4.40575e-05
4.42056e-05
4.44178e-05
4.46854e-05
4.50009e-05
4.53577e-05
4.57496e-05
4.61714e-05
4.66179e-05
4.70849e-05
4.75685e-05
4.80657e-05
4.85745e-05
4.90945e-05
4.96275e-05
5.01785e-05
5.07589e-05
5.13898e-05
5.21131e-05
5.30106e-05
5.4281e-05
5.63667e-05
6.10909e-05
6.79966e-05
7.08988e-05
0.000102111
0.000120687
0.000131092
0.000135914
0.000136977
0.000135649
0.000132901
0.000129393
0.00012555
0.00012166
0.000117874
0.000114281
0.000110923
0.000107817
0.00010497
0.000102377
0.000100033
9.79287e-05
9.60532e-05
9.43954e-05
9.29438e-05
9.16866e-05
9.06122e-05
8.97092e-05
8.89665e-05
8.83732e-05
8.79188e-05
8.7593e-05
8.73861e-05
8.72891e-05
8.72981e-05
8.74068e-05
8.76053e-05
8.78828e-05
8.82288e-05
8.86334e-05
8.90872e-05
8.95813e-05
9.01073e-05
9.06576e-05
9.12246e-05
9.18015e-05
9.2382e-05
9.29603e-05
9.35318e-05
9.40928e-05
9.46417e-05
9.51806e-05
9.57156e-05
9.62696e-05
9.68713e-05
9.76607e-05
9.8727e-05
0.000101333
0.000102968
7.5417e-05
0.000114022
0.000136958
0.000149829
0.000156162
0.000158293
0.000157808
0.000155767
0.000152883
0.000149588
0.000146157
0.00014277
0.000139528
0.000136484
0.00013366
0.000131067
0.000128704
0.000126568
0.000124652
0.000122947
0.000121442
0.000120129
0.000118996
0.000118032
0.000117228
0.000116572
0.000116055
0.000115667
0.000115398
0.000115239
0.000115181
0.000115216
0.000115334
0.000115528
0.00011579
0.000116111
0.000116483
0.000116896
0.000117341
0.000117811
0.000118298
0.000118793
0.000119288
0.000119777
0.00012025
0.000120701
0.000121121
0.000121503
0.00012184
0.000122123
0.000122352
0.000122511
0.000122651
0.000122636
0.000123159
0.000121691
7.35741e-05
0.000115236
0.000141064
0.00015595
0.000163659
0.000166792
0.000167079
0.000165655
0.000163274
0.000160416
0.000157362
0.00015429
0.000151319
0.000148511
0.000145896
0.00014349
0.000141298
0.000139318
0.000137544
0.00013597
0.000134585
0.000133381
0.000132346
0.000131471
0.000130745
0.000130158
0.000129701
0.000129364
0.000129137
0.000129011
0.000128978
0.000129027
0.00012915
0.00012934
0.000129588
0.000129888
0.000130231
0.000130609
0.000131014
0.000131437
0.000131871
0.000132307
0.000132736
0.000133151
0.000133542
0.000133899
0.000134213
0.000134472
0.000134664
0.000134771
0.000134781
0.000134652
0.000134384
0.000133753
0.000133137
0.000130446
6.82884e-05
0.000109393
0.000136998
0.000153855
0.000163196
0.00016761
0.000168896
0.000168255
0.000166484
0.000164107
0.000161452
0.000158704
0.000155991
0.000153392
0.00015095
0.000148688
0.000146619
0.000144745
0.000143065
0.000141574
0.000140262
0.000139123
0.000138147
0.000137323
0.000136643
0.000136096
0.000135673
0.000135365
0.000135162
0.000135056
0.000135038
0.000135098
0.000135227
0.000135417
0.000135662
0.000135955
0.000136286
0.000136649
0.000137035
0.000137437
0.000137845
0.000138251
0.000138648
0.000139024
0.000139371
0.000139679
0.000139934
0.000140125
0.000140235
0.000140245
0.000140131
0.000139845
0.000139356
0.000138416
0.000137238
0.000134177
6.15526e-05
9.89078e-05
0.000126768
0.000145351
0.000156597
0.000162692
0.000165363
0.000165831
0.000164939
0.000163251
0.00016114
0.000158834
0.000156471
0.000154148
0.000151925
0.000149841
0.000147916
0.000146162
0.000144581
0.000143172
0.000141931
0.000140851
0.000139926
0.000139146
0.000138503
0.000137988
0.000137593
0.000137309
0.000137127
0.000137039
0.000137035
0.000137107
0.000137246
0.000137444
0.000137695
0.000137991
0.000138325
0.000138688
0.000139073
0.000139471
0.000139875
0.000140275
0.000140662
0.000141027
0.00014136
0.00014165
0.000141884
0.000142047
0.000142122
0.000142088
0.000141918
0.000141559
0.000140964
0.000139882
0.000138442
0.000135353
5.46848e-05
8.60267e-05
0.000112134
0.000131606
0.000144706
0.000152768
0.000157207
0.000159167
0.000159496
0.000158792
0.000157467
0.000155794
0.00015394
0.000152026
0.000150135
0.00014832
0.000146616
0.000145043
0.000143612
0.000142328
0.000141191
0.000140199
0.000139348
0.000138631
0.000138041
0.000137573
0.000137217
0.000136968
0.000136816
0.000136754
0.000136774
0.000136867
0.000137024
0.00013724
0.000137507
0.000137817
0.000138164
0.000138539
0.000138936
0.000139345
0.000139758
0.000140167
0.000140563
0.000140935
0.000141274
0.000141568
0.000141804
0.000141966
0.000142038
0.000141996
0.000141811
0.000141429
0.000140793
0.000139659
0.000138106
0.000135114
4.83554e-05
7.28186e-05
9.51968e-05
0.000114071
0.000128385
0.000138342
0.000144756
0.000148522
0.000150405
0.000151
0.000150742
0.000149938
0.000148798
0.000147472
0.000146066
0.000144653
0.000143283
0.00014199
0.000140793
0.000139707
0.000138737
0.000137886
0.000137155
0.000136541
0.00013604
0.000135648
0.000135359
0.000135168
0.000135067
0.00013505
0.000135111
0.00013524
0.000135431
0.000135678
0.000135973
0.00013631
0.000136682
0.000137081
0.000137501
0.000137932
0.000138367
0.000138797
0.000139213
0.000139606
0.000139965
0.000140277
0.000140531
0.000140711
0.000140798
0.000140769
0.000140594
0.000140216
0.000139577
0.000138437
0.000136844
0.000133986
4.27852e-05
6.08019e-05
7.82395e-05
9.47625e-05
0.000109006
0.000120225
0.000128447
0.000134112
0.000137767
0.00013992
0.000140992
0.000141302
0.000141102
0.000140568
0.00013983
0.000138981
0.000138087
0.000137196
0.000136343
0.000135548
0.000134829
0.000134193
0.000133647
0.000133193
0.000132831
0.000132559
0.000132376
0.000132277
0.000132259
0.000132315
0.000132441
0.00013263
0.000132875
0.00013317
0.000133511
0.00013389
0.0001343
0.000134737
0.000135191
0.000135656
0.000136124
0.000136586
0.000137033
0.000137456
0.000137845
0.000138188
0.000138471
0.000138679
0.000138794
0.000138791
0.00013864
0.000138283
0.000137658
0.000136534
0.000134935
0.000132216
3.80202e-05
5.07544e-05
6.31961e-05
7.60598e-05
8.86141e-05
9.9856e-05
0.000109176
0.000116438
0.00012182
0.000125628
0.000128198
0.000129838
0.000130796
0.000131261
0.000131382
0.000131269
0.000131008
0.000130662
0.000130277
0.000129887
0.000129517
0.000129185
0.000128902
0.000128679
0.000128518
0.000128424
0.000128396
0.000128435
0.000128539
0.000128704
0.000128928
0.000129205
0.00012953
0.000129898
0.000130305
0.000130744
0.000131212
0.000131701
0.000132204
0.000132716
0.000133228
0.000133733
0.000134222
0.000134686
0.000135114
0.000135495
0.000135816
0.000136062
0.000136213
0.000136244
0.000136125
0.000135798
0.000135197
0.000134099
0.00013251
0.00012992
3.40727e-05
4.2837e-05
5.11402e-05
6.00634e-05
6.96688e-05
7.94054e-05
8.85538e-05
9.6558e-05
0.000103189
0.00010847
0.000112544
0.00011561
0.000117869
0.000119498
0.000120646
0.000121436
0.000121965
0.000122308
0.000122524
0.00012266
0.000122749
0.00012282
0.000122892
0.00012298
0.000123094
0.000123242
0.00012343
0.00012366
0.000123934
0.000124251
0.000124612
0.000125013
0.00012545
0.00012592
0.000126419
0.000126943
0.000127488
0.000128048
0.000128619
0.000129193
0.000129764
0.000130324
0.000130866
0.000131381
0.000131858
0.000132287
0.000132654
0.000132944
0.000133137
0.00013321
0.000133129
0.000132836
0.000132263
0.000131195
0.000129624
0.000127148
3.09263e-05
3.68574e-05
4.21984e-05
4.78646e-05
5.42644e-05
6.1403e-05
6.89193e-05
7.63633e-05
8.32965e-05
8.94346e-05
9.46654e-05
9.90038e-05
0.000102536
0.000105378
0.000107648
0.000109456
0.000110899
0.000112059
0.000113001
0.00011378
0.000114441
0.000115017
0.000115538
0.000116024
0.000116493
0.000116957
0.000117426
0.000117908
0.000118407
0.000118926
0.000119469
0.000120034
0.000120621
0.000121227
0.00012185
0.000122486
0.000123134
0.000123789
0.000124447
0.000125102
0.000125748
0.000126379
0.000126988
0.000127566
0.000128103
0.000128589
0.00012901
0.000129352
0.000129595
0.000129714
0.000129675
0.000129419
0.000128878
0.000127842
0.000126292
0.000123919
2.85228e-05
3.24997e-05
3.59171e-05
3.93763e-05
4.32457e-05
4.77247e-05
5.28784e-05
5.85683e-05
6.45183e-05
7.04095e-05
7.597e-05
8.1023e-05
8.54884e-05
8.93599e-05
9.26764e-05
9.54996e-05
9.78991e-05
9.99432e-05
0.000101695
0.000103209
0.000104533
0.000105708
0.000106766
0.000107735
0.000108638
0.000109492
0.000110312
0.000111109
0.000111892
0.000112668
0.000113442
0.000114217
0.000114996
0.000115776
0.000116558
0.000117339
0.000118119
0.000118895
0.000119664
0.000120422
0.000121163
0.000121883
0.000122574
0.000123229
0.000123839
0.000124393
0.000124879
0.000125282
0.000125581
0.000125752
0.00012576
0.000125546
0.000125039
0.000124038
0.000122512
0.000120231
2.67875e-05
2.94644e-05
3.17068e-05
3.38575e-05
3.61433e-05
3.87394e-05
4.18029e-05
4.54056e-05
4.95287e-05
5.40591e-05
5.88163e-05
6.35984e-05
6.82266e-05
7.25713e-05
7.65579e-05
8.01587e-05
8.3379e-05
8.62444e-05
8.8791e-05
9.10588e-05
9.30871e-05
9.4913e-05
9.65697e-05
9.80864e-05
9.94882e-05
0.000100797
0.00010203
0.000103202
0.000104327
0.000105413
0.000106468
0.0001075
0.000108513
0.00010951
0.000110488
0.000111449
0.000112393
0.00011332
0.000114227
0.000115112
0.000115971
0.0001168
0.000117592
0.000118341
0.000119039
0.000119675
0.000120237
0.00012071
0.000121075
0.000121306
0.000121367
0.0001212
0.000120731
0.000119769
0.000118272
0.000116078
2.56352e-05
2.74855e-05
2.90383e-05
3.04699e-05
3.19007e-05
3.3436e-05
3.51827e-05
3.72337e-05
3.96612e-05
4.25019e-05
4.57435e-05
4.93224e-05
5.31343e-05
5.70547e-05
6.09623e-05
6.4756e-05
6.83643e-05
7.17447e-05
7.48795e-05
7.77687e-05
8.04242e-05
8.28646e-05
8.51113e-05
8.71868e-05
8.91128e-05
9.09095e-05
9.2595e-05
9.41854e-05
9.56946e-05
9.71345e-05
9.8515e-05
9.98447e-05
0.000101131
0.000102381
0.000103593
0.000104769
0.00010591
0.000107017
0.000108091
0.000109129
0.00011013
0.00011109
0.000112003
0.000112865
0.000113667
0.000114399
0.000115051
0.000115608
0.000116049
0.000116348
0.000116471
0.000116357
0.000115934
0.000115017
0.000113559
0.000111452
2.49372e-05
2.62819e-05
2.74384e-05
2.84874e-05
2.94901e-05
3.05019e-05
3.15781e-05
3.27755e-05
3.41525e-05
3.57646e-05
3.76576e-05
3.98597e-05
4.23737e-05
4.51743e-05
4.8209e-05
5.14068e-05
5.4689e-05
5.798e-05
6.12164e-05
6.43502e-05
6.73501e-05
7.01987e-05
7.28898e-05
7.54253e-05
7.78122e-05
8.00605e-05
8.21815e-05
8.41874e-05
8.60895e-05
8.78988e-05
8.96249e-05
9.12767e-05
9.28624e-05
9.43894e-05
9.58637e-05
9.72824e-05
9.86483e-05
9.99636e-05
0.000101229
0.000102445
0.000103611
0.000104723
0.000105778
0.000106771
0.000107694
0.00010854
0.000109297
0.000109949
0.000110479
0.000110858
0.000111053
0.000111002
0.000110633
0.000109773
0.000108366
0.000106353
2.45398e-05
2.55807e-05
2.65101e-05
2.73563e-05
2.81498e-05
2.89184e-05
2.9689e-05
3.04914e-05
3.13578e-05
3.23231e-05
3.34237e-05
3.46953e-05
3.61701e-05
3.78723e-05
3.9814e-05
4.19922e-05
4.43872e-05
4.69642e-05
4.96779e-05
5.24782e-05
5.53157e-05
5.81466e-05
6.09351e-05
6.36549e-05
6.62881e-05
6.8824e-05
7.12579e-05
7.35892e-05
7.58202e-05
7.79549e-05
7.99984e-05
8.19563e-05
8.38345e-05
8.56388e-05
8.73752e-05
8.90476e-05
9.06513e-05
9.21893e-05
9.36633e-05
9.5074e-05
9.64208e-05
9.77023e-05
9.89153e-05
0.000100055
0.000101116
0.00010209
0.000102965
0.000103727
0.000104357
0.000104829
0.000105107
0.000105131
0.000104829
0.00010404
0.000102704
0.000100802
2.4321e-05
2.51803e-05
2.59792e-05
2.67174e-05
2.74089e-05
2.8067e-05
2.87052e-05
2.9339e-05
2.99858e-05
3.06642e-05
3.1395e-05
3.22004e-05
3.31039e-05
3.41293e-05
3.52997e-05
3.66348e-05
3.81494e-05
3.98504e-05
4.17358e-05
4.37933e-05
4.60017e-05
4.83328e-05
5.07543e-05
5.32328e-05
5.57371e-05
5.82396e-05
6.07174e-05
6.31531e-05
6.55337e-05
6.78504e-05
7.00979e-05
7.22732e-05
7.43755e-05
7.64055e-05
7.83651e-05
8.02574e-05
8.20808e-05
8.38301e-05
8.55063e-05
8.71099e-05
8.864e-05
9.00951e-05
9.14722e-05
9.2767e-05
9.39736e-05
9.50839e-05
9.60872e-05
9.69692e-05
9.77111e-05
9.82864e-05
9.8659e-05
9.87716e-05
9.85522e-05
9.78526e-05
9.66117e-05
9.48426e-05
2.42074e-05
2.496e-05
2.5685e-05
2.63669e-05
2.70103e-05
2.76204e-05
2.82044e-05
2.87708e-05
2.93294e-05
2.98907e-05
3.04665e-05
3.10692e-05
3.17125e-05
3.2411e-05
3.31802e-05
3.40365e-05
3.4996e-05
3.6074e-05
3.72837e-05
3.86349e-05
4.01329e-05
4.17771e-05
4.35607e-05
4.54715e-05
4.7492e-05
4.96014e-05
5.17772e-05
5.39969e-05
5.62392e-05
5.8485e-05
6.07181e-05
6.29251e-05
6.50954e-05
6.72211e-05
6.92964e-05
7.1318e-05
7.3285e-05
7.51875e-05
7.70203e-05
7.8781e-05
8.0467e-05
8.20751e-05
8.36014e-05
8.50408e-05
8.63866e-05
8.76306e-05
8.87616e-05
8.97654e-05
9.06229e-05
9.13078e-05
9.17842e-05
9.19967e-05
9.18758e-05
9.12867e-05
9.01702e-05
8.85639e-05
2.41584e-05
2.48529e-05
2.55394e-05
2.61952e-05
2.68195e-05
2.74131e-05
2.79797e-05
2.85241e-05
2.90522e-05
2.95707e-05
3.00866e-05
3.06074e-05
3.11413e-05
3.16969e-05
3.22835e-05
3.2911e-05
3.35901e-05
3.43319e-05
3.51477e-05
3.60488e-05
3.70458e-05
3.81479e-05
3.93619e-05
4.06919e-05
4.21385e-05
4.36982e-05
4.53638e-05
4.71248e-05
4.89677e-05
5.08774e-05
5.28377e-05
5.48325e-05
5.68465e-05
5.88656e-05
6.08772e-05
6.28709e-05
6.48388e-05
6.67744e-05
6.86619e-05
7.04942e-05
7.22645e-05
7.39663e-05
7.55928e-05
7.71368e-05
7.85899e-05
7.99423e-05
8.11819e-05
8.22935e-05
8.32576e-05
8.40479e-05
8.46289e-05
8.49475e-05
8.49376e-05
8.44789e-05
8.35168e-05
8.2106e-05
2.41503e-05
2.48203e-05
2.54925e-05
2.61418e-05
2.67647e-05
2.73592e-05
2.79271e-05
2.84714e-05
2.89958e-05
2.95048e-05
3.0003e-05
3.04953e-05
3.09871e-05
3.14838e-05
3.19913e-05
3.25157e-05
3.30636e-05
3.36419e-05
3.42581e-05
3.49199e-05
3.56355e-05
3.64129e-05
3.72602e-05
3.81847e-05
3.91928e-05
4.02894e-05
4.14778e-05
4.27586e-05
4.41301e-05
4.55883e-05
4.71263e-05
4.87355e-05
5.04055e-05
5.21249e-05
5.38815e-05
5.56634e-05
5.74592e-05
5.92605e-05
6.10533e-05
6.28234e-05
6.45596e-05
6.62513e-05
6.7888e-05
6.94589e-05
7.09529e-05
7.23578e-05
7.36595e-05
7.48413e-05
7.58826e-05
7.67566e-05
7.74284e-05
7.78476e-05
7.79522e-05
7.76367e-05
7.68536e-05
7.56672e-05
2.4168e-05
2.48373e-05
2.55131e-05
2.61701e-05
2.68035e-05
2.74102e-05
2.79904e-05
2.85463e-05
2.90805e-05
2.95961e-05
3.00964e-05
3.05849e-05
3.10654e-05
3.15417e-05
3.20176e-05
3.24974e-05
3.29852e-05
3.34857e-05
3.40037e-05
3.45441e-05
3.51125e-05
3.57142e-05
3.63553e-05
3.70415e-05
3.77787e-05
3.85726e-05
3.94283e-05
4.03503e-05
4.1342e-05
4.24057e-05
4.35419e-05
4.47497e-05
4.60264e-05
4.73676e-05
4.87672e-05
5.02178e-05
5.17112e-05
5.32394e-05
5.47943e-05
5.63619e-05
5.79296e-05
5.94847e-05
6.10145e-05
6.25059e-05
6.39451e-05
6.53175e-05
6.66069e-05
6.77949e-05
6.88596e-05
6.97737e-05
7.05029e-05
7.09995e-05
7.12068e-05
7.10332e-05
7.04399e-05
6.94933e-05
2.42011e-05
2.48863e-05
2.55791e-05
2.62548e-05
2.69079e-05
2.75347e-05
2.81347e-05
2.87096e-05
2.92613e-05
2.97922e-05
3.03048e-05
3.08019e-05
3.12862e-05
3.17605e-05
3.22277e-05
3.26907e-05
3.31527e-05
3.36168e-05
3.40863e-05
3.45647e-05
3.50556e-05
3.55628e-05
3.60902e-05
3.6642e-05
3.72225e-05
3.7836e-05
3.84868e-05
3.91792e-05
3.9917e-05
4.07038e-05
4.15427e-05
4.24359e-05
4.33847e-05
4.43895e-05
4.54492e-05
4.65617e-05
4.77237e-05
4.89309e-05
5.01798e-05
5.14624e-05
5.27692e-05
5.40895e-05
5.54117e-05
5.67232e-05
5.80102e-05
5.92577e-05
6.04489e-05
6.15645e-05
6.25824e-05
6.34755e-05
6.42106e-05
6.47436e-05
6.50231e-05
6.49709e-05
6.45567e-05
6.38437e-05
2.42425e-05
2.49539e-05
2.56733e-05
2.6376e-05
2.70562e-05
2.77094e-05
2.8335e-05
2.89341e-05
2.95085e-05
3.00601e-05
3.05911e-05
3.11035e-05
3.15996e-05
3.20816e-05
3.25518e-05
3.30125e-05
3.34659e-05
3.39145e-05
3.43607e-05
3.48071e-05
3.52562e-05
3.57109e-05
3.61739e-05
3.66483e-05
3.71369e-05
3.76431e-05
3.81699e-05
3.87207e-05
3.92985e-05
3.99066e-05
4.05479e-05
4.12252e-05
4.19406e-05
4.26962e-05
4.3493e-05
4.43317e-05
4.52119e-05
4.61325e-05
4.70926e-05
4.80897e-05
4.91184e-05
5.01722e-05
5.12428e-05
5.23208e-05
5.33949e-05
5.44521e-05
5.54776e-05
5.64535e-05
5.73593e-05
5.81698e-05
5.88543e-05
5.93731e-05
5.96813e-05
5.97127e-05
5.94448e-05
5.89339e-05
2.42869e-05
2.503e-05
2.57817e-05
2.65172e-05
2.72297e-05
2.79144e-05
2.85702e-05
2.91979e-05
2.9799e-05
3.03752e-05
3.09284e-05
3.14605e-05
3.19732e-05
3.24686e-05
3.29483e-05
3.34144e-05
3.38687e-05
3.4313e-05
3.47494e-05
3.51799e-05
3.56064e-05
3.60312e-05
3.64563e-05
3.68839e-05
3.73165e-05
3.77563e-05
3.82057e-05
3.86672e-05
3.91432e-05
3.96362e-05
4.01485e-05
4.06826e-05
4.12405e-05
4.18243e-05
4.24357e-05
4.30758e-05
4.37456e-05
4.44454e-05
4.51755e-05
4.59359e-05
4.67242e-05
4.7537e-05
4.83697e-05
4.92159e-05
5.0068e-05
5.09162e-05
5.17488e-05
5.25514e-05
5.33065e-05
5.39924e-05
5.45828e-05
5.50434e-05
5.53362e-05
5.54064e-05
5.52383e-05
5.48803e-05
2.4331e-05
2.51072e-05
2.58932e-05
2.66641e-05
2.74121e-05
2.81317e-05
2.88212e-05
2.94809e-05
3.01119e-05
3.07157e-05
3.12942e-05
3.1849e-05
3.23816e-05
3.28939e-05
3.33873e-05
3.38636e-05
3.43242e-05
3.47709e-05
3.52053e-05
3.56291e-05
3.60438e-05
3.64514e-05
3.68535e-05
3.7252e-05
3.76487e-05
3.80455e-05
3.84442e-05
3.88468e-05
3.92553e-05
3.96716e-05
4.00976e-05
4.05351e-05
4.09861e-05
4.14521e-05
4.19348e-05
4.24355e-05
4.29554e-05
4.34951e-05
4.40553e-05
4.46366e-05
4.52384e-05
4.58589e-05
4.64956e-05
4.71447e-05
4.78013e-05
4.84585e-05
4.91078e-05
4.97382e-05
5.03361e-05
5.08838e-05
5.13599e-05
5.1736e-05
5.19814e-05
5.20515e-05
5.1936e-05
5.16775e-05
2.4372e-05
2.51797e-05
2.5999e-05
2.68051e-05
2.75893e-05
2.83451e-05
2.90701e-05
2.97638e-05
3.0427e-05
3.10608e-05
3.16669e-05
3.22467e-05
3.28017e-05
3.33335e-05
3.38435e-05
3.4333e-05
3.48037e-05
3.5257e-05
3.56942e-05
3.61169e-05
3.65265e-05
3.69247e-05
3.73129e-05
3.76927e-05
3.80656e-05
3.84334e-05
3.87974e-05
3.91595e-05
3.95211e-05
3.9884e-05
4.02496e-05
4.06196e-05
4.09954e-05
4.13786e-05
4.17705e-05
4.21722e-05
4.25848e-05
4.30091e-05
4.34459e-05
4.38956e-05
4.43581e-05
4.48329e-05
4.53184e-05
4.58123e-05
4.63113e-05
4.68108e-05
4.73045e-05
4.77843e-05
4.82396e-05
4.86568e-05
4.90188e-05
4.93029e-05
4.94846e-05
4.95283e-05
4.94283e-05
4.92231e-05
2.4408e-05
2.52433e-05
2.60925e-05
2.69309e-05
2.77492e-05
2.85401e-05
2.93003e-05
3.00285e-05
3.07248e-05
3.139e-05
3.20251e-05
3.26316e-05
3.32107e-05
3.37639e-05
3.42924e-05
3.47976e-05
3.52809e-05
3.57435e-05
3.61869e-05
3.66124e-05
3.70214e-05
3.74153e-05
3.77955e-05
3.81633e-05
3.85204e-05
3.8868e-05
3.92075e-05
3.95406e-05
3.98685e-05
4.01926e-05
4.05144e-05
4.08352e-05
4.11563e-05
4.14791e-05
4.18045e-05
4.21339e-05
4.2468e-05
4.28075e-05
4.31531e-05
4.35053e-05
4.38641e-05
4.42293e-05
4.46001e-05
4.49748e-05
4.53512e-05
4.57259e-05
4.60943e-05
4.64502e-05
4.67855e-05
4.70895e-05
4.73486e-05
4.75449e-05
4.7659e-05
4.76625e-05
4.75534e-05
4.73677e-05
2.44377e-05
2.52952e-05
2.61687e-05
2.70342e-05
2.78822e-05
2.87046e-05
2.94974e-05
3.02585e-05
3.0987e-05
3.16832e-05
3.23476e-05
3.29814e-05
3.35855e-05
3.41611e-05
3.47096e-05
3.5232e-05
3.57297e-05
3.62039e-05
3.66559e-05
3.7087e-05
3.74985e-05
3.78917e-05
3.82681e-05
3.86288e-05
3.89753e-05
3.9309e-05
3.9631e-05
3.99429e-05
4.02458e-05
4.05412e-05
4.08302e-05
4.1114e-05
4.1394e-05
4.16712e-05
4.19467e-05
4.22215e-05
4.24963e-05
4.27717e-05
4.30483e-05
4.33266e-05
4.36067e-05
4.38885e-05
4.41714e-05
4.44543e-05
4.47354e-05
4.50123e-05
4.52813e-05
4.55376e-05
4.57747e-05
4.5984e-05
4.61547e-05
4.62722e-05
4.63214e-05
4.62795e-05
4.61469e-05
4.59588e-05
2.44606e-05
2.53334e-05
2.62241e-05
2.71099e-05
2.7981e-05
2.88291e-05
2.96494e-05
3.04393e-05
3.11969e-05
3.19219e-05
3.26142e-05
3.32743e-05
3.39031e-05
3.45014e-05
3.50702e-05
3.56106e-05
3.61238e-05
3.66109e-05
3.70732e-05
3.75119e-05
3.79283e-05
3.83237e-05
3.86994e-05
3.90566e-05
3.93968e-05
3.9721e-05
4.00308e-05
4.03273e-05
4.06117e-05
4.08854e-05
4.11495e-05
4.14052e-05
4.16536e-05
4.18958e-05
4.21328e-05
4.23654e-05
4.25942e-05
4.28199e-05
4.30431e-05
4.32641e-05
4.34831e-05
4.37e-05
4.39144e-05
4.41255e-05
4.43318e-05
4.45313e-05
4.4721e-05
4.4897e-05
4.5054e-05
4.51849e-05
4.52807e-05
4.53294e-05
4.5319e-05
4.52311e-05
4.50678e-05
4.48641e-05
2.44758e-05
2.53563e-05
2.62563e-05
2.71541e-05
2.80401e-05
2.8906e-05
2.97467e-05
3.05589e-05
3.13404e-05
3.20897e-05
3.28063e-05
3.34902e-05
3.41416e-05
3.47611e-05
3.53495e-05
3.59076e-05
3.64365e-05
3.69371e-05
3.74107e-05
3.78584e-05
3.82814e-05
3.86811e-05
3.90585e-05
3.94151e-05
3.9752e-05
4.00706e-05
4.03721e-05
4.06578e-05
4.09288e-05
4.11864e-05
4.14318e-05
4.1666e-05
4.18901e-05
4.21052e-05
4.23122e-05
4.25117e-05
4.27045e-05
4.28912e-05
4.30722e-05
4.32481e-05
4.34188e-05
4.35845e-05
4.37446e-05
4.38986e-05
4.40452e-05
4.41826e-05
4.43084e-05
4.44191e-05
4.45102e-05
4.45757e-05
4.4608e-05
4.45971e-05
4.45331e-05
4.44008e-05
4.42038e-05
4.39774e-05
2.44828e-05
2.53629e-05
2.62633e-05
2.7164e-05
2.80555e-05
2.89301e-05
2.97822e-05
3.06084e-05
3.14059e-05
3.21728e-05
3.2908e-05
3.36107e-05
3.42808e-05
3.49185e-05
3.55241e-05
3.60982e-05
3.66417e-05
3.71554e-05
3.76402e-05
3.80974e-05
3.8528e-05
3.89332e-05
3.93143e-05
3.96724e-05
4.00088e-05
4.03247e-05
4.06214e-05
4.09e-05
4.11618e-05
4.1408e-05
4.16396e-05
4.18578e-05
4.20636e-05
4.22579e-05
4.24416e-05
4.26153e-05
4.27799e-05
4.29358e-05
4.30837e-05
4.32238e-05
4.33562e-05
4.3481e-05
4.35977e-05
4.37059e-05
4.38043e-05
4.38914e-05
4.3965e-05
4.40221e-05
4.40586e-05
4.40694e-05
4.40477e-05
4.3985e-05
4.3873e-05
4.36994e-05
4.34683e-05
4.32159e-05
2.44811e-05
2.53522e-05
2.62439e-05
2.71376e-05
2.80246e-05
2.88974e-05
2.97507e-05
3.05807e-05
3.13848e-05
3.21605e-05
3.29062e-05
3.36208e-05
3.43035e-05
3.49542e-05
3.55728e-05
3.61595e-05
3.6715e-05
3.72398e-05
3.77348e-05
3.82008e-05
3.8639e-05
3.90503e-05
3.9436e-05
3.97971e-05
4.01349e-05
4.04505e-05
4.07451e-05
4.10199e-05
4.12761e-05
4.15148e-05
4.1737e-05
4.19439e-05
4.21363e-05
4.23152e-05
4.24814e-05
4.26356e-05
4.27785e-05
4.29108e-05
4.30327e-05
4.31448e-05
4.3247e-05
4.33393e-05
4.34215e-05
4.34929e-05
4.35524e-05
4.35987e-05
4.36297e-05
4.36426e-05
4.36338e-05
4.35985e-05
4.35309e-05
4.34235e-05
4.32693e-05
4.3058e-05
4.27944e-05
4.25154e-05
2.44706e-05
2.53237e-05
2.61971e-05
2.70737e-05
2.79454e-05
2.88054e-05
2.96486e-05
3.04713e-05
3.12707e-05
3.20447e-05
3.27911e-05
3.35084e-05
3.41957e-05
3.48521e-05
3.54774e-05
3.60716e-05
3.66347e-05
3.71671e-05
3.76695e-05
3.81425e-05
3.8587e-05
3.9004e-05
3.93943e-05
3.97591e-05
4.00994e-05
4.04164e-05
4.07111e-05
4.09846e-05
4.12382e-05
4.14727e-05
4.16893e-05
4.18889e-05
4.20724e-05
4.22407e-05
4.23945e-05
4.25347e-05
4.26618e-05
4.27765e-05
4.2879e-05
4.29697e-05
4.30488e-05
4.3116e-05
4.31711e-05
4.32135e-05
4.32421e-05
4.32557e-05
4.32522e-05
4.3229e-05
4.31828e-05
4.31092e-05
4.3003e-05
4.28575e-05
4.26668e-05
4.24223e-05
4.21293e-05
4.18252e-05
2.44512e-05
2.52772e-05
2.61224e-05
2.69713e-05
2.78167e-05
2.86523e-05
2.94735e-05
3.02769e-05
3.10598e-05
3.18201e-05
3.25559e-05
3.32652e-05
3.3947e-05
3.46002e-05
3.52241e-05
3.58184e-05
3.6383e-05
3.69179e-05
3.74234e-05
3.78999e-05
3.83482e-05
3.87689e-05
3.91628e-05
3.95308e-05
3.98739e-05
4.01931e-05
4.04892e-05
4.07634e-05
4.10165e-05
4.12497e-05
4.14638e-05
4.16596e-05
4.18381e-05
4.2e-05
4.21462e-05
4.22773e-05
4.23939e-05
4.24966e-05
4.25855e-05
4.26611e-05
4.27233e-05
4.2772e-05
4.28068e-05
4.28272e-05
4.28321e-05
4.28202e-05
4.27896e-05
4.27378e-05
4.26616e-05
4.2557e-05
4.24192e-05
4.22423e-05
4.20211e-05
4.17489e-05
4.14309e-05
4.11052e-05
2.44226e-05
2.52123e-05
2.60192e-05
2.68299e-05
2.76378e-05
2.84373e-05
2.92243e-05
2.9996e-05
3.07498e-05
3.14839e-05
3.21966e-05
3.28861e-05
3.35511e-05
3.41905e-05
3.48033e-05
3.5389e-05
3.59471e-05
3.64775e-05
3.69802e-05
3.74553e-05
3.79033e-05
3.83245e-05
3.87196e-05
3.90892e-05
3.94341e-05
3.97552e-05
4.00531e-05
4.03288e-05
4.05831e-05
4.08168e-05
4.10308e-05
4.12258e-05
4.14027e-05
4.15621e-05
4.17048e-05
4.18314e-05
4.19423e-05
4.2038e-05
4.21188e-05
4.21848e-05
4.22361e-05
4.22724e-05
4.22934e-05
4.22984e-05
4.22863e-05
4.22559e-05
4.22052e-05
4.21319e-05
4.20329e-05
4.19045e-05
4.17423e-05
4.1541e-05
4.12964e-05
4.10029e-05
4.06662e-05
4.03244e-05
2.43848e-05
2.51287e-05
2.58874e-05
2.66491e-05
2.74081e-05
2.81597e-05
2.89005e-05
2.96279e-05
3.034e-05
3.10353e-05
3.17121e-05
3.23694e-05
3.30056e-05
3.36196e-05
3.42105e-05
3.47775e-05
3.532e-05
3.58376e-05
3.63301e-05
3.67973e-05
3.72393e-05
3.76564e-05
3.80489e-05
3.84172e-05
3.87618e-05
3.90833e-05
3.93823e-05
3.96594e-05
3.99153e-05
4.01507e-05
4.03663e-05
4.05627e-05
4.07407e-05
4.09007e-05
4.10435e-05
4.11694e-05
4.12789e-05
4.13724e-05
4.14499e-05
4.15117e-05
4.15576e-05
4.15874e-05
4.16007e-05
4.15966e-05
4.15742e-05
4.1532e-05
4.14682e-05
4.13806e-05
4.12662e-05
4.11215e-05
4.09426e-05
4.07248e-05
4.04647e-05
4.0158e-05
3.98108e-05
3.94605e-05
2.43375e-05
2.50261e-05
2.57264e-05
2.64284e-05
2.71274e-05
2.78196e-05
2.85023e-05
2.91734e-05
2.98316e-05
3.04755e-05
3.11043e-05
3.17168e-05
3.23121e-05
3.2889e-05
3.34467e-05
3.39844e-05
3.45012e-05
3.49968e-05
3.54705e-05
3.59221e-05
3.63515e-05
3.67586e-05
3.71433e-05
3.7506e-05
3.78468e-05
3.81661e-05
3.84642e-05
3.87415e-05
3.89986e-05
3.92358e-05
3.94538e-05
3.96529e-05
3.98338e-05
3.99969e-05
4.01425e-05
4.02711e-05
4.03829e-05
4.04782e-05
4.05571e-05
4.06195e-05
4.06652e-05
4.06941e-05
4.07054e-05
4.06984e-05
4.06721e-05
4.0625e-05
4.05554e-05
4.04609e-05
4.03388e-05
4.0186e-05
3.99989e-05
3.97736e-05
3.95073e-05
3.91973e-05
3.88499e-05
3.85012e-05
2.42806e-05
2.4904e-05
2.55358e-05
2.61676e-05
2.67959e-05
2.74178e-05
2.80311e-05
2.86346e-05
2.92274e-05
2.98087e-05
3.03778e-05
3.09341e-05
3.1477e-05
3.20057e-05
3.25192e-05
3.30168e-05
3.34979e-05
3.39617e-05
3.44078e-05
3.48355e-05
3.52446e-05
3.56347e-05
3.60056e-05
3.63574e-05
3.66898e-05
3.70031e-05
3.72972e-05
3.75724e-05
3.7829e-05
3.80672e-05
3.82872e-05
3.84894e-05
3.86742e-05
3.88417e-05
3.89922e-05
3.9126e-05
3.92432e-05
3.93438e-05
3.9428e-05
3.94954e-05
3.95459e-05
3.9579e-05
3.95941e-05
3.95903e-05
3.95666e-05
3.95215e-05
3.94533e-05
3.93598e-05
3.92386e-05
3.90866e-05
3.8901e-05
3.86785e-05
3.84173e-05
3.8116e-05
3.77814e-05
3.74474e-05
2.42138e-05
2.47623e-05
2.53155e-05
2.58671e-05
2.64146e-05
2.69561e-05
2.74901e-05
2.8016e-05
2.85335e-05
2.90421e-05
2.95418e-05
3.00321e-05
3.05126e-05
3.0983e-05
3.14425e-05
3.18904e-05
3.23262e-05
3.27492e-05
3.31587e-05
3.35542e-05
3.39351e-05
3.43009e-05
3.46514e-05
3.49861e-05
3.53048e-05
3.56073e-05
3.58935e-05
3.61633e-05
3.64168e-05
3.66539e-05
3.68747e-05
3.70793e-05
3.72679e-05
3.74404e-05
3.7597e-05
3.77378e-05
3.78626e-05
3.79715e-05
3.80642e-05
3.81406e-05
3.82002e-05
3.82425e-05
3.82669e-05
3.82724e-05
3.82579e-05
3.8222e-05
3.81631e-05
3.80792e-05
3.79679e-05
3.7827e-05
3.76538e-05
3.74463e-05
3.72034e-05
3.69254e-05
3.66195e-05
3.63167e-05
2.41371e-05
2.46008e-05
2.5066e-05
2.55284e-05
2.59863e-05
2.64389e-05
2.68855e-05
2.7326e-05
2.77604e-05
2.81889e-05
2.86115e-05
2.90282e-05
2.94388e-05
2.98431e-05
3.02407e-05
3.0631e-05
3.10136e-05
3.13878e-05
3.1753e-05
3.21086e-05
3.2454e-05
3.27886e-05
3.31119e-05
3.34234e-05
3.37226e-05
3.40092e-05
3.42829e-05
3.45433e-05
3.47902e-05
3.50234e-05
3.52429e-05
3.54484e-05
3.56399e-05
3.58172e-05
3.59802e-05
3.61289e-05
3.6263e-05
3.63823e-05
3.64865e-05
3.65753e-05
3.66481e-05
3.67044e-05
3.67435e-05
3.67643e-05
3.67658e-05
3.67467e-05
3.67055e-05
3.66404e-05
3.65495e-05
3.6431e-05
3.62832e-05
3.61047e-05
3.5896e-05
3.56587e-05
3.54009e-05
3.51491e-05
2.40505e-05
2.44204e-05
2.47895e-05
2.51553e-05
2.55172e-05
2.58751e-05
2.6229e-05
2.65792e-05
2.69261e-05
2.72701e-05
2.76113e-05
2.795e-05
2.82862e-05
2.86197e-05
2.89504e-05
2.92779e-05
2.96018e-05
2.99215e-05
3.02366e-05
3.05464e-05
3.08503e-05
3.11477e-05
3.14381e-05
3.17207e-05
3.19951e-05
3.22608e-05
3.25174e-05
3.27642e-05
3.30009e-05
3.32272e-05
3.34427e-05
3.3647e-05
3.384e-05
3.40212e-05
3.41905e-05
3.43476e-05
3.4492e-05
3.46235e-05
3.47417e-05
3.4846e-05
3.4936e-05
3.50109e-05
3.507e-05
3.51125e-05
3.51372e-05
3.5143e-05
3.51286e-05
3.50927e-05
3.50339e-05
3.49509e-05
3.48429e-05
3.47101e-05
3.45539e-05
3.43777e-05
3.41904e-05
3.40128e-05