/*--------------------------------*- C++ -*----------------------------------*\
  =========                 |
  \\      /  F ield         | OpenFOAM: The Open Source CFD Toolbox
   \\    /   O peration     | Website:  https://openfoam.org
    \\  /    A nd           | Version:  6
     \\/     M anipulation  |
\*---------------------------------------------------------------------------*/
FoamFile
{
    version     2.0;
    format      ascii;
    class       surfaceScalarField;
    location    "0";
    object      Phi_rec;
}
// * * * * * * * * * * * * * * * * * * * * * * * * * * * * * * * * * * * * * //

dimensions      [0 3 -1 0 0 0 0];

internalField   nonuniform List<scalar> 
17780
(
0.00135482
0.000995284
0.000963234
0.000605504
0.000618713
0.000310102
0.000452551
0.000172031
0.000359613
0.00010353
0.000304033
6.25226e-05
0.000268505
4.74727e-05
0.000243186
2.30569e-05
0.000225545
1.44816e-05
0.000214109
6.35814e-06
0.000205959
1.71999e-05
0.000198778
1.62912e-05
0.00019468
1.43308e-05
0.000193984
1.39505e-05
0.000192218
2.71499e-06
0.000189381
-3.14349e-06
0.000187025
-5.80831e-06
0.000185755
1.20639e-06
0.000186027
7.78424e-06
0.000187197
1.40489e-05
0.000187351
1.01434e-05
0.000186503
1.09714e-05
0.000186171
6.8727e-06
0.000186096
8.28027e-06
0.000186877
9.85375e-06
0.000186264
5.6373e-06
0.000185105
-1.48933e-06
0.000186271
3.78534e-07
0.000185886
-9.12789e-06
0.000185905
-4.38279e-06
0.000186884
-2.85778e-06
0.000186153
-9.64405e-06
0.000185939
-1.19705e-05
0.000185209
-1.11321e-05
0.00018444
-6.61943e-06
0.000184983
-3.51078e-06
0.00018597
-4.58701e-07
0.000187154
-4.09048e-06
0.000188453
-4.03909e-06
0.000189643
-2.07853e-06
0.000189466
-3.9603e-06
0.000189656
-8.49394e-06
0.0001916
-5.562e-06
0.00019539
-7.19807e-06
0.000200471
-1.17983e-05
0.000207132
-2.15548e-05
0.000222876
-2.7435e-05
0.000260159
-3.62461e-05
0.000350879
-9.99658e-05
-0.000308312
0.000593514
0.00228362
0.0013408
0.00191533
0.00111433
0.00147964
0.000719533
0.00118727
0.000452916
0.000991366
0.000293048
0.000860331
0.000192313
0.00076912
0.000135136
0.000703693
8.25016e-05
0.000660257
5.93996e-05
0.000630937
3.955e-05
0.000606317
3.80823e-05
0.000585208
2.87412e-05
0.000571331
2.45193e-05
0.000564731
2.61235e-05
0.00056048
9.79233e-06
0.000556924
1.6079e-06
0.000553443
-1.76894e-06
0.000550445
1.29849e-06
0.000548705
1.19259e-05
0.000548701
1.63903e-05
0.000548703
1.8229e-05
0.000546558
1.15558e-05
0.00054604
1.02657e-05
0.000546976
1.36212e-05
0.000546634
1.53356e-05
0.00054399
3.24781e-06
0.000542843
-9.12338e-07
0.000544711
-4.81045e-06
0.000545557
-1.70783e-05
0.000546325
-6.80167e-06
0.000545482
-9.23283e-06
0.000544673
-1.21475e-05
0.000546313
-1.44942e-05
0.000545389
-1.46228e-05
0.000544385
-7.10977e-06
0.000545122
-1.02574e-06
0.000546839
-4.09572e-07
0.00055108
8.40755e-07
0.00055459
-6.17201e-06
0.000556545
-1.96734e-06
0.000558007
-8.18986e-06
0.000561793
-1.70035e-05
0.000567353
-1.88088e-05
0.000575711
-2.39229e-05
0.000591569
-3.01529e-05
0.000618042
-4.71629e-05
0.000661072
-6.9349e-05
0.000734528
-0.000120672
0.00087301
-0.000236675
-0.000512825
0.00106177
0.00257876
0.00122065
0.00238879
0.00134977
0.00204259
0.00104884
0.00174344
0.000738262
0.00151348
0.000518509
0.00134429
0.000362323
0.00121737
0.000249654
0.00112572
0.000177377
0.00106362
0.000131566
0.00102072
9.65772e-05
0.000983192
7.0365e-05
0.000950823
4.52882e-05
0.000930503
4.16256e-05
0.000918224
3.71345e-05
0.000909139
1.85569e-05
0.000903107
9.55092e-06
0.00089999
7.7452e-06
0.000897639
4.35447e-06
0.000894406
1.38594e-05
0.000892326
1.13092e-05
0.000890496
1.88611e-05
0.000888525
6.38056e-06
0.000889684
1.10309e-05
0.000888233
1.25196e-05
0.000884892
1.24537e-05
0.000884004
1.71502e-06
0.000882104
-4.82417e-06
0.000883577
-7.77155e-06
0.000887122
-1.80938e-05
0.000887316
-1.0557e-05
0.000885242
-9.29412e-06
0.000884056
-1.00641e-05
0.000887528
-8.26155e-06
0.000889429
-1.18226e-05
0.000887581
-7.90437e-06
0.000887688
2.79084e-06
0.000890574
3.97207e-07
0.000895863
3.35725e-06
0.000901004
-6.56135e-06
0.000903189
-5.99305e-06
0.000906622
-1.51141e-05
0.000915619
-2.22821e-05
0.000926986
-3.305e-05
0.000942574
-4.18449e-05
0.000966765
-5.7245e-05
0.00100557
-8.53091e-05
0.00106655
-0.000129229
0.00115792
-0.000223988
0.00129471
-0.000373879
-0.000675147
0.00143484
0.00266703
0.00104378
0.00261459
0.00142053
0.00238798
0.00126737
0.002143
0.000980506
0.00192382
0.000730611
0.00174672
0.000534984
0.00161051
0.000390416
0.00150781
0.000289786
0.00143202
0.000219227
0.00137532
0.000162956
0.00133032
0.000116278
0.00129633
7.86796e-05
0.0012698
6.72868e-05
0.00124932
4.79407e-05
0.00123896
2.9556e-05
0.00123319
1.91861e-05
0.0012278
1.15937e-05
0.00122445
6.22208e-06
0.00122085
1.47966e-05
0.00121693
1.17243e-05
0.00121313
1.40415e-05
0.00121181
2.0803e-06
0.00121346
7.5851e-06
0.0012107
5.57009e-06
0.00120548
5.9747e-06
0.00120247
1.17241e-06
0.0012006
-7.35618e-06
0.00120436
-1.59984e-06
0.00120985
-1.08345e-05
0.00121074
-1.08462e-05
0.00120907
-1.7049e-06
0.00120779
-3.29715e-06
0.00121075
-9.56196e-07
0.00121375
-6.05229e-06
0.00121337
-5.22296e-06
0.00121318
1.68022e-06
0.00121481
-4.68223e-06
0.00122053
-2.61499e-06
0.00122861
-1.3357e-05
0.001233
-1.66513e-05
0.00123743
-2.92144e-05
0.00124939
-3.35713e-05
0.00126554
-4.95506e-05
0.00128658
-6.74904e-05
0.00131925
-9.61325e-05
0.00136578
-0.000136466
0.00143339
-0.000200347
0.00152906
-0.000317197
0.00165017
-0.000493658
-0.000788612
0.0017527
0.00267934
0.000882627
0.00271408
0.00140116
0.00259382
0.00137757
0.00241779
0.00115212
0.00223506
0.000901597
0.0020753
0.000695133
0.00194691
0.000535487
0.00184214
0.000400105
0.00176049
0.000307945
0.0016994
0.000232171
0.00165101
0.000168131
0.0016141
0.000122615
0.00158389
9.40095e-05
0.00156077
6.21802e-05
0.00154832
4.52107e-05
0.00154044
3.13492e-05
0.00153536
1.72739e-05
0.0015315
1.33034e-05
0.00152617
1.85357e-05
0.00152197
1.72132e-05
0.00151837
1.21447e-05
0.0015175
3.04007e-06
0.00151854
4.06223e-06
0.00151412
-8.10403e-07
0.00150692
-1.89936e-08
0.00150538
4.99128e-06
0.00150549
-3.72484e-06
0.00150681
1.66277e-06
0.00151322
-6.40866e-07
0.00151613
-7.08936e-06
0.00151323
2.66855e-06
0.00151071
1.59301e-06
0.00151296
8.42023e-06
0.00151883
6.58274e-06
0.00152054
4.46145e-06
0.00151838
-2.08973e-06
0.00152063
-7.88644e-06
0.00152805
-9.11313e-06
0.00153625
-2.29754e-05
0.00154267
-2.96571e-05
0.00155067
-4.11233e-05
0.00156505
-5.21499e-05
0.00158459
-7.14674e-05
0.00160981
-0.000102207
0.00164534
-0.00014269
0.00169516
-0.000193794
0.00176533
-0.000267427
0.00185546
-0.000393508
0.00195464
-0.000587181
-0.000864156
0.00202815
0.00266975
0.000745715
0.00274806
0.00132796
0.0027056
0.00140663
0.00259863
0.00125452
0.00246975
0.00103709
0.0023419
0.000836414
0.00222622
0.000655991
0.0021304
0.000501804
0.00205236
0.000388522
0.0019889
0.000294281
0.00194135
0.000217871
0.00190569
0.000163955
0.00187316
0.000118874
0.00184864
8.20115e-05
0.00183619
6.29768e-05
0.00182743
4.44331e-05
0.00182342
2.77178e-05
0.00182272
2.74835e-05
0.00181568
2.4179e-05
0.00180554
1.54226e-05
0.00180039
1.22849e-05
0.00180107
5.73011e-06
0.00180305
4.85339e-07
0.00180014
-1.90057e-06
0.00179295
-4.8502e-06
0.00178985
7.3402e-06
0.00179007
3.53233e-07
0.00179096
-2.53775e-07
0.0017977
5.22476e-06
0.00180391
1.35443e-06
0.00180128
4.33939e-06
0.0017968
3.20466e-06
0.00179913
1.4581e-05
0.00180361
1.50351e-05
0.00180301
6.93372e-06
0.00180307
-4.96308e-06
0.00180726
-6.97231e-06
0.00181487
-1.47153e-05
0.00182561
-2.45052e-05
0.00183388
-3.92063e-05
0.00184335
-4.84446e-05
0.00185885
-6.86053e-05
0.00187862
-9.23543e-05
0.00190747
-0.000130827
0.00194957
-0.00017924
0.00200058
-0.000245168
0.00206441
-0.000332039
0.00214415
-0.000462121
0.00222339
-0.000659691
-0.000920886
0.0022725
0.00265088
0.000632585
0.00275007
0.0012244
0.00276404
0.0013794
0.00271996
0.00130142
0.00264267
0.00113124
0.00254745
0.000933763
0.00245466
0.000745928
0.00237514
0.00058513
0.00230591
0.000450674
0.00224852
0.00034251
0.00220426
0.00025819
0.00216825
0.000194695
0.00213793
0.000141406
0.00211704
0.000105341
0.00210363
7.66621e-05
0.00209451
5.36027e-05
0.00209181
3.48562e-05
0.00208818
3.19068e-05
0.0020792
2.28425e-05
0.00207164
1.76032e-05
0.00206759
1.07548e-05
0.00206678
6.19516e-06
0.00206754
-1.3438e-06
0.00206719
-2.01334e-06
0.00206126
-7.08874e-06
0.00205547
-4.9433e-07
0.00205688
5.57196e-06
0.00205888
-1.31116e-07
0.00206373
1.43271e-06
0.00206942
5.37387e-06
0.00206934
1.86642e-06
0.00206775
6.80057e-06
0.00206667
8.7362e-06
0.0020672
9.11136e-06
0.00206825
-9.81882e-07
0.0020702
-8.17691e-06
0.00207464
-1.15456e-05
0.00208209
-2.23216e-05
0.00209417
-2.52884e-05
0.0021049
-4.20381e-05
0.00211506
-6.14204e-05
0.00213146
-8.32864e-05
0.00215308
-0.000114467
0.00218289
-0.000156403
0.00222576
-0.000208323
0.00227739
-0.000289021
0.00233472
-0.000390678
0.00239779
-0.000529046
0.00245651
-0.000720609
-0.000959688
0.00248897
0.00263473
0.000541935
0.00274124
0.00111181
0.00279383
0.00131425
0.00279772
0.00129457
0.00276433
0.00116708
0.00270505
0.000979826
0.00263952
0.00080359
0.00257927
0.000644868
0.00252291
0.000496468
0.00247522
0.000380918
0.00243837
0.000289083
0.00240764
0.0002207
0.0023802
0.000162949
0.00236027
0.000123684
0.00234814
9.11669e-05
0.00234115
6.29598e-05
0.00234047
4.07484e-05
0.0023364
3.02283e-05
0.00232588
1.45464e-05
0.00231779
2.12058e-05
0.00231189
9.27732e-06
0.0023114
1.04135e-05
0.0023151
5.10417e-06
0.00231518
-6.60052e-06
0.00231022
-8.84946e-06
0.0023045
-1.19469e-05
0.0023043
2.64398e-06
0.00230804
-1.22248e-06
0.00231366
-4.41654e-06
0.00231805
-3.3231e-06
0.00231737
-7.08394e-06
0.00231518
1.23442e-06
0.00231425
-1.87432e-06
0.00231385
-1.48469e-07
0.00231456
-5.36527e-06
0.00231833
-1.1064e-05
0.00232402
-1.85358e-05
0.00233209
-2.87392e-05
0.0023438
-3.25692e-05
0.00235522
-4.72879e-05
0.0023674
-7.76944e-05
0.00238427
-9.9584e-05
0.00240503
-0.000138621
0.00243391
-0.000184951
0.00247448
-0.000239577
0.00252214
-0.000327712
0.00257404
-0.000434948
0.00262579
-0.000582224
0.00266629
-0.000768291
-0.00098604
0.00268299
0.00261707
0.000463867
0.00272619
0.000996482
0.00280746
0.0012263
0.00284777
0.00124767
0.00284859
0.00115566
0.00282369
0.000993591
0.0027871
0.000833766
0.00274738
0.000682176
0.0027093
0.000537557
0.00267567
0.000415814
0.00264725
0.000314487
0.00262258
0.000245262
0.00259993
0.000182398
0.00258191
0.000135387
0.00257108
0.000106903
0.00256595
7.59466e-05
0.00256581
5.24477e-05
0.00256427
3.27249e-05
0.00255556
1.32581e-05
0.00254522
1.51012e-05
0.00254067
1.45046e-05
0.00254053
1.80437e-05
0.00254119
9.56718e-06
0.00254217
-1.05385e-05
0.00254054
-1.19319e-05
0.00253649
-1.86548e-05
0.00253266
-7.8251e-06
0.00253363
-8.08507e-06
0.0025407
-4.18626e-06
0.00254733
-1.15787e-05
0.0025485
-1.37458e-05
0.00254504
-1.35289e-05
0.0025422
-1.07521e-05
0.00254271
-6.96908e-06
0.00254489
-5.35355e-06
0.00254735
-1.30387e-05
0.00255341
-1.98371e-05
0.00256421
-3.14124e-05
0.00257416
-4.38582e-05
0.00258326
-5.97518e-05
0.00259673
-8.9601e-05
0.00261429
-0.00011566
0.00263636
-0.000160301
0.00266402
-0.000210031
0.0026998
-0.000275704
0.00274288
-0.000361154
0.00278521
-0.000478211
0.00282512
-0.000619722
0.00285434
-0.000799266
-0.00100101
0.00285925
0.00260312
0.000392977
0.00270907
0.0008829
0.00280669
0.00112545
0.00287474
0.00118172
0.00290836
0.00111774
0.00291767
0.00098704
0.00290833
0.000839712
0.00288716
0.000694938
0.00286528
0.000561741
0.00284711
0.000442216
0.00283119
0.000336177
0.00281353
0.000262233
0.00279629
0.000196307
0.0027838
0.000144542
0.00277368
0.000111633
0.00276912
8.56108e-05
0.0027709
6.49783e-05
0.00277087
3.8253e-05
0.00276566
2.04356e-05
0.00275787
1.21972e-05
0.00275177
2.02295e-05
0.00274653
1.99461e-05
0.00274569
7.44482e-06
0.00274941
-4.87646e-06
0.00274874
-1.30897e-05
0.00274649
-1.78098e-05
0.00274513
-9.65119e-06
0.00274476
-6.55569e-06
0.00274951
-6.29212e-06
0.00275651
-1.03095e-05
0.00275875
-1.62227e-05
0.0027572
-2.15555e-05
0.00275699
-1.59291e-05
0.00275531
-1.39501e-05
0.00275283
-1.08782e-05
0.002756
-1.40374e-05
0.00276418
-1.82766e-05
0.00277475
-3.20888e-05
0.0027842
-5.17119e-05
0.00279403
-7.15635e-05
0.00280832
-9.67761e-05
0.00282403
-0.000133861
0.00284371
-0.00018256
0.00287007
-0.00023625
0.0029021
-0.000310247
0.00293791
-0.000396262
0.00297155
-0.000517193
0.00300014
-0.000653766
0.00301909
-0.00081976
-0.00100273
0.00301744
0.00259271
0.000336583
0.00269676
0.000781484
0.00280538
0.00101998
0.00289257
0.00109774
0.00295002
0.00105651
0.00298577
0.000955409
0.00300263
0.000819787
0.00300394
0.000684312
0.00299782
0.000559519
0.00299341
0.000445697
0.00299067
0.000346153
0.00298111
0.000269575
0.00297135
0.00020411
0.00296473
0.000146061
0.00295767
0.000105024
0.00295331
8.46094e-05
0.00295369
6.50888e-05
0.00295643
4.505e-05
0.00295591
2.67164e-05
0.00295125
1.47068e-05
0.00294326
1.7602e-05
0.00293374
1.54085e-05
0.00293217
5.85911e-06
0.00293764
2.69754e-06
0.00293974
-1.24359e-05
0.00293848
-1.41709e-05
0.00293623
-7.39533e-06
0.00293601
-1.93577e-06
0.00293957
-1.02264e-05
0.00294517
-6.20548e-06
0.00294958
-1.52186e-05
0.0029508
-1.78733e-05
0.00295016
-1.61741e-05
0.00294845
-1.99737e-05
0.00294731
-1.8633e-05
0.00294854
-1.9807e-05
0.00295328
-2.67302e-05
0.00296403
-3.62513e-05
0.00297516
-5.44105e-05
0.00298438
-8.14678e-05
0.00299618
-0.000106479
0.00301043
-0.000152608
0.00302913
-0.000201679
0.00305222
-0.00026104
0.00307956
-0.000332894
0.00310989
-0.000424772
0.00313721
-0.000537953
0.00315618
-0.000680366
0.00316462
-0.000830897
-0.000997034
0.00315611
0.00258586
0.000288403
0.00268591
0.000684526
0.00279986
0.000911555
0.00290032
0.000989075
0.0029783
0.000973021
0.00303744
0.000896967
0.00307669
0.000774414
0.00309856
0.000651936
0.00311005
0.00053406
0.00311894
0.00042658
0.00312667
0.000336466
0.0031263
0.000263179
0.00312252
0.000201497
0.00312276
0.000142552
0.0031226
0.000100412
0.00311998
7.97323e-05
0.00312028
5.95683e-05
0.00312331
4.62666e-05
0.00312495
2.80875e-05
0.00312276
1.479e-05
0.0031138
1.04744e-05
0.00310347
8.75503e-06
0.00310151
5.35996e-06
0.00310532
4.56046e-06
0.00310932
-6.4603e-06
0.00311346
-5.38838e-06
0.00311103
-8.29204e-06
0.00310672
-4.92702e-06
0.00311066
-5.61398e-06
0.00311684
-5.146e-06
0.00312143
-9.17961e-06
0.00312416
-1.15921e-05
0.00312417
-1.53061e-05
0.00312285
-2.46633e-05
0.00312104
-2.69989e-05
0.00312207
-3.21145e-05
0.0031267
-4.05445e-05
0.00313487
-4.31756e-05
0.00314515
-6.07013e-05
0.0031535
-9.1413e-05
0.003162
-0.000120234
0.00317491
-0.000164046
0.00319285
-0.000212952
0.00321376
-0.000273711
0.0032371
-0.000348938
0.00325975
-0.000441243
0.00327786
-0.000549011
0.00329023
-0.000689645
0.00329172
-0.000826455
-0.000982587
0.00327608
0.00257978
0.000241882
0.00267564
0.000588261
0.00279271
0.000798243
0.00290494
0.000874404
0.00299826
0.000872729
0.00307384
0.000813978
0.00313323
0.000704614
0.00317435
0.000597244
0.00320118
0.000489196
0.00322517
0.000395968
0.00324564
0.000314851
0.00325085
0.000243937
0.00325114
0.000190933
0.00325875
0.000141762
0.00326571
0.000101493
0.00326746
8.1005e-05
0.003269
5.61593e-05
0.00327119
4.35941e-05
0.00327295
2.52732e-05
0.00327324
1.2238e-05
0.00326626
8.52905e-07
0.00325546
-7.9796e-07
0.00325162
2.3342e-06
0.00325546
8.11781e-06
0.0032622
7.70958e-06
0.00326589
5.08236e-06
0.00326246
-6.78951e-06
0.00326124
-4.03736e-06
0.0032651
2.20794e-06
0.00326924
-1.85708e-06
0.00327423
-2.23615e-06
0.00327609
-7.31637e-06
0.00327542
-1.51482e-05
0.00327569
-2.41448e-05
0.00327462
-3.28591e-05
0.00327583
-3.82687e-05
0.0032818
-4.45824e-05
0.00328871
-4.84608e-05
0.0032949
-7.10337e-05
0.00330122
-9.83075e-05
0.00330916
-0.00012986
0.00332102
-0.000169943
0.00333707
-0.000219485
0.00335436
-0.000280705
0.00337243
-0.000359754
0.00338772
-0.00045111
0.0033982
-0.000556732
0.00340464
-0.000682264
0.00339988
-0.000811593
-0.00095754
0.00337819
0.0025774
0.00019847
0.00266871
0.000496677
0.0027845
0.000678534
0.00290634
0.000763983
0.00301198
0.000762106
0.00309998
0.00070878
0.0031761
0.000624593
0.00323419
0.000528541
0.00327732
0.00043617
0.00331398
0.000356481
0.00334362
0.000287865
0.00335857
0.000222172
0.0033659
0.000175633
0.00337869
0.000136733
0.00339019
0.000103139
0.00339366
7.83331e-05
0.00339558
4.95684e-05
0.00339894
4.01423e-05
0.00340241
2.30504e-05
0.00340421
6.9314e-06
0.00339903
-5.06123e-06
0.0033898
-1.16767e-05
0.00338662
-5.77586e-07
0.00338972
1.19895e-05
0.0033936
1.48013e-05
0.00339688
7.34015e-06
0.00339766
-2.6228e-06
0.00339595
-4.49537e-06
0.00339814
4.25149e-06
0.00340328
8.05068e-06
0.00340682
3.00745e-06
0.00340814
-2.15574e-06
0.0034085
-1.39176e-05
0.00340936
-2.11523e-05
0.00340927
-3.10077e-05
0.00341312
-3.33647e-05
0.00341855
-4.26199e-05
0.00342035
-5.51319e-05
0.00342457
-7.96695e-05
0.00343137
-0.000105604
0.00343768
-0.000139173
0.00344667
-0.000175801
0.003459
-0.000224762
0.00347198
-0.000287336
0.00348661
-0.000361672
0.00349693
-0.000452386
0.00350102
-0.000560158
0.00350117
-0.000667763
0.00348969
-0.000794645
-0.000928721
0.00346374
0.00257561
0.00015614
0.0026644
0.000405264
0.0027798
0.000556867
0.00290343
0.000639136
0.0030166
0.000639769
0.00311622
0.000593511
0.00320793
0.000540715
0.00328358
0.000456439
0.00334045
0.000376942
0.00338745
0.000307719
0.00342691
0.000251454
0.00345078
0.000195192
0.00346227
0.000150587
0.00347851
0.000121191
0.00349381
0.000101642
0.0034997
6.64344e-05
0.00350507
4.57984e-05
0.00350879
3.19013e-05
0.00351088
1.82784e-05
0.00351387
1.68406e-06
0.00351303
-3.0274e-06
0.00350891
-1.34879e-05
0.00350694
-7.82613e-07
0.00350638
9.56212e-06
0.00350604
3.472e-06
0.00350836
1.97791e-06
0.00351096
-5.58968e-06
0.00351273
-5.88627e-06
0.00351438
3.79213e-06
0.00351709
1.24436e-05
0.00352046
6.90321e-06
0.00352148
-1.68977e-06
0.00352163
-1.34293e-05
0.00352306
-2.48649e-05
0.00352489
-2.77887e-05
0.00352837
-3.46699e-05
0.00353169
-4.32278e-05
0.00353293
-6.53904e-05
0.00353628
-8.70416e-05
0.00354069
-0.00011492
0.00354538
-0.000150284
0.00355313
-0.000183438
0.00356202
-0.000230786
0.00357072
-0.000290733
0.00358015
-0.000360336
0.00358618
-0.00044942
0.00358617
-0.00055658
0.00357956
-0.000655727
0.00356311
-0.000775194
-0.000900857
0.00353317
0.00257541
0.000120866
0.00266162
0.000313726
0.00277657
0.000440091
0.00290018
0.000504364
0.00301967
0.00051115
0.00313252
0.000484135
0.00323305
0.00044295
0.00331827
0.00037785
0.00338938
0.000309735
0.00344806
0.000251034
0.00349357
0.000204457
0.00352321
0.000156326
0.0035435
0.000118831
0.00356362
9.61594e-05
0.00357761
8.58907e-05
0.003586
5.53804e-05
0.00359583
4.49438e-05
0.00359951
2.39953e-05
0.00360183
1.28327e-05
0.00360614
3.42928e-06
0.0036071
1.94638e-06
0.00360786
-6.30426e-06
0.00360648
-2.44254e-06
0.00360239
4.85124e-06
0.00360037
-7.62967e-06
0.00360221
-5.03744e-06
0.00360633
-7.86455e-06
0.00361135
-7.1476e-07
0.00361377
6.00954e-06
0.00361248
7.49675e-06
0.00361289
6.22087e-06
0.00361438
-6.43933e-07
0.00361659
-1.25417e-05
0.00362092
-2.8169e-05
0.0036226
-2.82304e-05
0.00362325
-4.31295e-05
0.00362477
-5.07673e-05
0.00362413
-7.78282e-05
0.00362567
-9.69631e-05
0.00363168
-0.000118383
0.00363756
-0.000156489
0.0036412
-0.000193987
0.00364564
-0.000238472
0.0036507
-0.000294313
0.00365382
-0.000360509
0.00365452
-0.000446771
0.00365185
-0.000544093
0.00363968
-0.000643706
0.00361579
-0.000757033
-0.000869171
0.00358332
0.00257625
9.63656e-05
0.00265864
0.000227357
0.00277084
0.00032449
0.00289643
0.000371636
0.00302341
0.000386246
0.00314455
0.000373944
0.0032514
0.000336337
0.00334531
0.000288329
0.00342651
0.000238737
0.00349344
0.000189971
0.00354584
0.000153474
0.00358232
0.000114048
0.00360946
8.61848e-05
0.00363146
6.83783e-05
0.00364491
5.20964e-05
0.00365557
3.93885e-05
0.00366545
3.1133e-05
0.00367021
1.73259e-05
0.00367603
1.35638e-05
0.00368188
9.7496e-06
0.00368372
8.70177e-06
0.00368501
-2.12543e-06
0.00368151
-4.90902e-06
0.00367606
1.88334e-06
0.00367666
-4.69493e-06
0.00367994
-5.7854e-06
0.00368494
-1.3128e-06
0.0036901
6.24569e-06
0.00369101
6.79631e-06
0.00368894
4.61101e-06
0.00368799
1.19991e-06
0.00368836
5.91594e-07
0.0036919
-1.14952e-05
0.00369703
-2.47038e-05
0.00369883
-3.5515e-05
0.00369957
-4.59723e-05
0.0036986
-6.08327e-05
0.00369821
-8.87195e-05
0.00369984
-0.000107767
0.00370247
-0.00012283
0.00370664
-0.000162209
0.00370984
-0.000201974
0.00371181
-0.000246528
0.00371142
-0.000300164
0.00370826
-0.000362852
0.00370532
-0.000440307
0.00369955
-0.000526444
0.0036824
-0.000625025
0.00365429
-0.000731024
-0.000831565
0.0036173
0.00257157
6.86995e-05
0.00265599
0.000151833
0.00276987
0.000211094
0.00289743
0.000242518
0.0030271
0.000253602
0.00315083
0.000245687
0.00326363
0.000221798
0.00336377
0.000188292
0.00345226
0.000162502
0.00352673
0.000128278
0.00358303
0.000103305
0.00362385
7.50696e-05
0.00365685
5.47883e-05
0.00368377
4.68159e-05
0.00369948
2.18771e-05
0.00370881
1.66644e-05
0.00371784
1.1856e-05
0.00372451
1.01625e-05
0.00373206
1.1948e-05
0.00373744
1.0828e-05
0.00373779
1.20736e-05
0.003741
-1.19375e-06
0.00374044
-2.18026e-06
0.00373305
-1.00704e-07
0.00373261
-5.54992e-08
0.00373892
-9.55572e-08
0.00374524
4.08942e-06
0.00374888
1.05013e-05
0.0037486
8.01974e-06
0.00374746
6.73858e-06
0.00374657
1.19178e-06
0.00374359
-5.68786e-06
0.00374579
-1.27809e-05
0.00375324
-2.03459e-05
0.00375428
-4.3819e-05
0.00375276
-4.91212e-05
0.00375217
-6.14306e-05
0.00375366
-9.03217e-05
0.00375518
-0.000110784
0.00375401
-0.000134129
0.00375618
-0.0001663
0.00375833
-0.000199843
0.00375743
-0.000247639
0.00375385
-0.000296847
0.00374624
-0.000360214
0.00373816
-0.000430697
0.003727
-0.000506351
0.0037066
-0.000597314
0.0036778
-0.000690506
-0.000789313
0.00363854
0.00256578
3.49308e-05
0.0026495
7.55225e-05
0.00276703
9.88027e-05
0.00289878
0.000117084
0.00303014
0.000113957
0.00315512
0.000109721
0.00327141
9.88676e-05
0.00337729
8.93479e-05
0.00346951
8.19299e-05
0.00354672
6.38467e-05
0.00360793
4.78158e-05
0.00365365
3.07058e-05
0.00368711
1.64005e-05
0.00371256
1.87283e-05
0.00373186
4.7463e-06
0.00374587
2.56253e-06
0.00375745
1.91476e-06
0.00376516
3.66902e-06
0.00377143
2.00806e-06
0.00377402
4.82414e-06
0.00377277
6.83195e-06
0.0037783
2.76883e-06
0.00377918
2.33858e-06
0.00377154
-4.81073e-06
0.00377192
1.65364e-06
0.00377908
4.57292e-06
0.00378494
8.01944e-06
0.00378724
1.09191e-05
0.00378642
1.39093e-05
0.00378448
8.95665e-06
0.00378355
4.25105e-06
0.00378172
-7.70419e-06
0.0037819
-1.34226e-05
0.0037874
-1.8991e-05
0.0037918
-4.31461e-05
0.00378967
-5.02243e-05
0.00378552
-5.80838e-05
0.00378907
-7.90956e-05
0.00379116
-0.00010195
0.00378743
-0.000137119
0.00378751
-0.000163078
0.00378733
-0.000191276
0.00378438
-0.00023584
0.00377855
-0.00028488
0.00376854
-0.000346497
0.00375621
-0.00041651
0.0037407
-0.000486348
0.00371664
-0.000568826
0.00368226
-0.000655915
-0.000750457
0.00364014
0.00256542
5.57605e-06
0.00264818
-5.54788e-06
0.00276451
-1.06334e-05
0.00289521
-1.22801e-05
0.00302933
-2.35064e-05
0.00315835
-2.3637e-05
0.00327828
-2.65692e-05
0.00338658
-1.0709e-05
0.00347982
-3.22601e-06
0.00355812
-7.16073e-06
0.00361901
-1.54671e-05
0.0036668
-1.56674e-05
0.00370365
-2.30114e-05
0.00372885
-1.75212e-05
0.00374852
-1.42995e-05
0.00376454
-1.09034e-05
0.00377599
-4.23046e-06
0.0037829
-5.95459e-06
0.00379028
-7.11974e-06
0.00379326
-8.42059e-07
0.00379132
-3.86839e-06
0.00379682
4.40469e-06
0.00379786
-9.83952e-07
0.00379128
-1.16549e-05
0.00379255
4.76796e-06
0.00380009
9.32764e-06
0.00380648
1.3258e-05
0.00380818
1.17264e-05
0.00380621
1.63254e-05
0.00380289
8.06378e-06
0.00380039
3.32618e-06
0.00379938
-7.83868e-06
0.00379947
-1.54927e-05
0.00380306
-1.76429e-05
0.00380951
-3.46276e-05
0.0038091
-4.04606e-05
0.00380233
-5.68947e-05
0.00380231
-6.7681e-05
0.00380419
-9.2214e-05
0.00380376
-0.000125584
0.00380316
-0.000153585
0.00379909
-0.000185021
0.00379261
-0.000222375
0.0037818
-0.00027474
0.00376956
-0.000331264
0.00375712
-0.000392889
0.00373786
-0.000468242
0.00370921
-0.000543369
0.00366997
-0.000628521
-0.000712779
0.00362469
0.00255987
-2.85343e-05
0.00264462
-8.47463e-05
0.0027649
-0.000116258
0.00289586
-0.000146112
0.00302954
-0.000161581
0.00316047
-0.000160211
0.00328227
-0.000151323
0.00338846
-0.000123648
0.00347744
-0.000100247
0.00355348
-8.51259e-05
0.00361573
-7.4235e-05
0.00366604
-5.6876e-05
0.0037058
-5.36851e-05
0.00373261
-4.72802e-05
0.00375096
-3.67623e-05
0.00376547
-2.93042e-05
0.00377584
-1.63662e-05
0.00378322
-1.81063e-05
0.00379183
-1.23173e-05
0.00379545
-6.6954e-06
0.00379308
-1.22187e-05
0.00379467
3.08365e-07
0.00379554
-3.53462e-06
0.00379419
-7.70496e-06
0.00379658
8.4595e-06
0.00380212
1.26053e-05
0.00380798
1.69627e-05
0.00380961
1.10259e-05
0.00380502
5.68963e-06
0.00380076
5.0243e-06
0.00379969
2.30573e-06
0.0037984
-1.26837e-05
0.00379737
-1.63267e-05
0.00380081
-1.58469e-05
0.00380839
-2.36939e-05
0.00380935
-3.14375e-05
0.00380314
-5.32996e-05
0.00379955
-6.71029e-05
0.00379742
-9.09318e-05
0.00379739
-0.000113288
0.00379813
-0.000141757
0.00379155
-0.000184598
0.00378084
-0.000217698
0.00376862
-0.000267929
0.0037538
-0.000321542
0.00373762
-0.000369239
0.00371573
-0.000443677
0.00368377
-0.000513856
0.00364254
-0.000592101
-0.000662446
0.00359671
0.00255967
-6.90582e-05
0.00264528
-0.000164242
0.0027618
-0.000230497
0.00289153
-0.000276784
0.00302672
-0.000294471
0.00315851
-0.00029386
0.00328266
-0.000267028
0.00338685
-0.000232715
0.00346995
-0.000196262
0.00354411
-0.000160129
0.00360522
-0.000128484
0.00365139
-0.000101076
0.00368868
-8.41467e-05
0.0037152
-7.261e-05
0.00373543
-5.35996e-05
0.00375059
-4.17895e-05
0.00375809
-3.58647e-05
0.00376508
-2.89127e-05
0.00377292
-1.46011e-05
0.00377539
-1.52451e-05
0.0037745
-1.20747e-05
0.00377591
-1.1564e-06
0.00377883
1.48759e-06
0.0037811
3.49913e-06
0.00378168
6.90965e-06
0.00378402
7.70179e-06
0.00378938
1.59135e-05
0.00379029
4.7539e-06
0.00378607
-8.5072e-06
0.00378052
-1.21932e-06
0.00377655
-1.72445e-06
0.00377867
-1.22606e-05
0.0037814
-1.29415e-05
0.003784
-1.89271e-05
0.00378878
-2.34967e-05
0.00378672
-3.56645e-05
0.00377998
-5.46085e-05
0.00377687
-7.19066e-05
0.00377502
-9.28756e-05
0.0037736
-0.000108586
0.00377188
-0.000136523
0.00376454
-0.000181154
0.00375196
-0.00021153
0.00373778
-0.000261295
0.00372086
-0.000309695
0.00370062
-0.000353399
0.00367675
-0.000414109
0.00364375
-0.000481085
0.00360225
-0.000548174
-0.000605515
0.00355605
0.00256256
-0.000105039
0.00264679
-0.000245254
0.00276155
-0.000347519
0.00289039
-0.000399687
0.00302491
-0.000420908
0.00315568
-0.00041292
0.00327529
-0.000374257
0.0033749
-0.000329818
0.00345572
-0.000279069
0.00352556
-0.000226946
0.00358039
-0.000179086
0.00362237
-0.000144187
0.00365822
-0.000110269
0.00368429
-9.24385e-05
0.00370236
-7.14189e-05
0.00371494
-5.24104e-05
0.0037227
-4.47138e-05
0.00372994
-3.23479e-05
0.00373679
-1.39957e-05
0.00373973
-1.83189e-05
0.00373992
-1.17887e-05
0.00374069
-1.60689e-06
0.00374211
3.30612e-06
0.00374335
5.95152e-06
0.00374515
-2.95522e-06
0.00374759
-5.14398e-07
0.00374795
6.77767e-06
0.00374929
8.21771e-07
0.00375014
-7.88963e-06
0.00374364
-6.44424e-06
0.00373863
-8.01968e-06
0.00374166
-6.69092e-06
0.00374387
-1.42869e-05
0.00374558
-2.21376e-05
0.00374909
-3.09176e-05
0.00374657
-4.30765e-05
0.00373946
-6.07515e-05
0.00373666
-7.44337e-05
0.00373491
-9.38575e-05
0.00372886
-0.000109966
0.00372373
-0.000132982
0.00371779
-0.000167945
0.00370463
-0.000198535
0.00369087
-0.000243587
0.00367495
-0.000286898
0.00364973
-0.000337031
0.00362096
-0.000389601
0.00358851
-0.000446736
0.00354785
-0.00050369
-0.000553728
0.00349992
0.00256672
-0.000138853
0.00265096
-0.000327443
0.00276409
-0.000463658
0.00288915
-0.000526262
0.00302021
-0.000543195
0.00314919
-0.000520198
0.00326468
-0.000472972
0.00335805
-0.000417949
0.00343099
-0.000355554
0.00349424
-0.00028541
0.00354463
-0.000223108
0.00358035
-0.000178695
0.00361179
-0.00013136
0.00363672
-0.000108548
0.00365079
-9.31828e-05
0.00366043
-6.39419e-05
0.0036712
-4.05168e-05
0.0036782
-2.89102e-05
0.00368063
-1.97788e-05
0.00368437
-1.52403e-05
0.00368588
-1.53196e-05
0.00368514
-7.23318e-06
0.00368541
-1.14861e-06
0.00368572
-5.65898e-07
0.00368868
-1.22032e-05
0.00369172
-4.98707e-06
0.00368994
-3.11873e-06
0.00369044
1.29538e-06
0.0036932
-1.85129e-06
0.00368822
-6.33191e-06
0.00368252
-1.05069e-05
0.00368376
-6.14418e-06
0.00368444
-2.14823e-05
0.00368646
-2.42251e-05
0.00369029
-3.46545e-05
0.00368685
-4.68451e-05
0.0036797
-6.13888e-05
0.0036775
-7.4904e-05
0.00367599
-9.13355e-05
0.00366921
-0.000112507
0.00366305
-0.000127605
0.00365438
-0.00015711
0.00363822
-0.000187614
0.00362355
-0.000219819
0.00360699
-0.00026332
0.00358169
-0.00031506
0.00355232
-0.000363467
0.00351904
-0.000409891
0.00347773
-0.000460574
-0.000509837
0.00342728
0.00257144
-0.000173522
0.00265726
-0.000411009
0.00276906
-0.000583567
0.00289066
-0.000658618
0.00301718
-0.000660371
0.00313801
-0.000630087
0.00324361
-0.000566075
0.00333006
-0.000495016
0.00339844
-0.000421516
0.00345333
-0.000337179
0.0034941
-0.00026882
0.00352458
-0.000210288
0.003548
-0.000159662
0.00356751
-0.000129042
0.00358533
-0.000103903
0.00359465
-7.35513e-05
0.00360016
-4.80621e-05
0.00360488
-3.18841e-05
0.00360564
-2.9604e-05
0.00360896
-1.7599e-05
0.00361218
-1.95254e-05
0.00361156
-1.46789e-05
0.00360833
-1.18811e-05
0.00360678
-1.11007e-05
0.00361254
-1.41745e-05
0.00361781
-3.71697e-06
0.00361655
-5.90731e-06
0.00361589
-2.78301e-06
0.003616
-5.82619e-06
0.00361202
-7.83143e-06
0.00360747
-6.83734e-06
0.00360698
-9.07722e-06
0.00360847
-2.41383e-05
0.00360957
-2.99412e-05
0.00361105
-3.93864e-05
0.00360791
-5.07469e-05
0.00360139
-6.05774e-05
0.00359901
-7.28781e-05
0.00359825
-8.32002e-05
0.0035917
-0.000107548
0.00358276
-0.000121762
0.00357339
-0.000147973
0.00355749
-0.000176719
0.00353962
-0.000203243
0.00352001
-0.000246679
0.00349522
-0.00029121
0.00346702
-0.000328615
0.00343363
-0.000370878
0.00339136
-0.00041964
-0.000470738
0.00333936
0.00257592
-0.000207523