/*--------------------------------*- C++ -*----------------------------------*\
  =========                 |
  \\      /  F ield         | OpenFOAM: The Open Source CFD Toolbox
   \\    /   O peration     | Website:  https://openfoam.org
    \\  /    A nd           | Version:  6
     \\/     M anipulation  |
\*---------------------------------------------------------------------------*/
FoamFile
{
    version     2.0;
    format      ascii;
    class       surfaceScalarField;
    location    "0";
    object      phib;
}
// * * * * * * * * * * * * * * * * * * * * * * * * * * * * * * * * * * * * * //

dimensions      [0 3 -1 0 0 0 0];

internalField   uniform 0;

boundaryField
{
    inlet
    {
        type            calculated;
        value           nonuniform List<scalar> 
30
(
-0.000333333333333399
-0.000333333333333203
-0.000333333333333399
-0.000333333333333399
-0.000333333333333199
-0.000333333333333403
-0.000333333333333399
-0.000333333333333199
-0.000333333333333399
-0.000333333333333403
-0.000333333333333199
-0.000333333333333399
-0.000333333333333399
-0.000333333333333203
-0.000333333333333399
-0.000333333333333399
-0.000333333333333203
-0.000333333333333399
-0.000333333333333399
-0.000333333333333199
-0.000333333333333403
-0.000333333333333399
-0.000333333333333199
-0.000333333333333399
-0.000333333333333403
-0.000333333333333199
-0.000333333333333399
-0.000333333333333399
-0.000333333333333203
-0.000333333333333399
)
;
    }
    outlet
    {
        type            calculated;
        value           nonuniform List<scalar> 
30
(
0.000333344377165583
0.000333344256144908
0.000333344015431069
0.000333343657662613
0.000333343186762058
0.000333342607892728
0.000333341927400228
0.000333341152744505
0.00033334029241814
0.000333339355850929
0.000333338353308547
0.000333337295779626
0.000333336194853512
0.000333335062594869
0.000333333911411449
0.00033333275391622
0.000333331602790931
0.000333330470647199
0.000333329369886534
0.000333328312566416
0.00033332731026822
0.000333326373968756
0.000333325513921923
0.0003333247395466
0.000333324059321801
0.00033332348069586
0.000333323010004927
0.000333322652401935
0.000333322411802172
0.000333322290840455
)
;
    }
    top
    {
        type            fixedValue;
        value           uniform 0;
    }
    bottomwall
    {
        type            fixedValue;
        value           uniform 0;
    }
    bottomsym
    {
        type            fixedValue;
        value           uniform 0;
    }
    cavitywall
    {
        type            fixedValue;
        value           uniform 0;
    }
    frontAndBack
    {
        type            empty;
        value           nonuniform 0();
    }
}

// ************************************************************************* //
