/*--------------------------------*- C++ -*----------------------------------*\
  =========                 |
  \\      /  F ield         | OpenFOAM: The Open Source CFD Toolbox
   \\    /   O peration     | Website:  https://openfoam.org
    \\  /    A nd           | Version:  6
     \\/     M anipulation  |
\*---------------------------------------------------------------------------*/
FoamFile
{
    version     2.0;
    format      ascii;
    class       volScalarField;
    location    "0";
    object      P_rec;
}
// * * * * * * * * * * * * * * * * * * * * * * * * * * * * * * * * * * * * * //

dimensions      [0 2 -2 0 0 0 0];

internalField   nonuniform List<scalar> 
918
(
0.5592
0.293369
0.106373
0.578429
-0.00280954
0.190314
-0.78802
0.518381
0.5822
-0.111851
0.0326811
0.453556
0.0461053
0.0265843
-1.23079
0.0217746
0.576865
-0.720218
0.41674
0.0245714
-0.0485348
0.582648
0.515704
0.413408
0.498522
-0.0481898
0.116792
-0.0333155
-0.0534033
-0.0407595
-0.00407723
0.0457417
0.00790425
0.184363
0.160999
0.197034
0.422729
0.211985
-0.65305
-0.705184
-0.695382
-0.862225
0.52733
0.540521
-0.286646
0.496552
0.471453
0.426135
0.561744
0.584925
0.519757
0.564802
0.591959
0.281995
-0.15228
-0.223221
-0.0723004
-0.0759458
0.0769773
0.0255255
0.0102934
0.060092
0.0470844
0.373361
0.445075
0.44
0.46421
0.464021
0.254686
0.20608
0.248681
0.0464864
0.169341
0.0170638
0.128038
0.0283944
0.0656222
0.00447923
-0.0120791
-1.50361
-2.26431
-0.757298
-0.618264
0.00640858
0.0240353
0.0331552
0.564984
0.56671
0.562849
0.572214
0.72126
-0.648232
-0.834709
0.449825
0.44886
0.56858
0.523868
0.46698
0.402431
0.0223077
0.0181628
0.0121509
0.0404564
0.0314349
0.122149
0.233201
0.391973
0.425275
0.46393
0.489246
0.476934
0.205776
0.536938
0.538184
-0.0899362
0.0798403
-0.0534462
0.0261953
0.12595
0.0923254
0.197415
0.237251
-0.0586343
-0.0107328
0.0368196
0.00179545
0.0265324
0.422006
0.412205
0.435532
0.425514
0.431398
0.113163
0.0111623
0.288455
0.32295
-0.531894
-0.571942
-0.748548
-0.773135
-0.892534
0.476942
0.544023
0.559881
-0.391339
-0.258071
-0.428146
-0.174452
-0.22065
0.429385
0.421626
0.421972
0.430197
0.433123
0.434316
0.570708
0.563638
0.597286
0.287363
0.362561
0.267023
0.218859
-0.443288
-0.309992
-0.423896
-0.0480093
-0.0130696
0.0661116
0.101501
0.111358
0.0833451
-0.0120068
0.00543766
-0.00536607
0.0178123
0.0208091
0.376773
0.361265
0.374987
0.384987
0.43937
0.43769
0.442333
0.44495
0.20435
0.192956
0.151317
0.127626
-3.06226
-5.23656
-0.420905
-0.325056
-0.00228606
-0.0120248
-0.00450652
-0.080707
-0.0145401
-0.0414018
0.0715254
0.0447704
0.0348092
0.054001
0.561792
0.573179
0.725301
0.76317
0.638619
0.638203
0.444732
0.454945
0.450898
0.452598
0.0351848
0.0188374
0.0360032
0.437393
0.333812
0.385977
0.171816
0.0782889
0.254019
0.293193
0.563223
0.546906
0.569739
-0.0909081
-0.00540089
0.337528
0.0921299
0.326406
0.158367
0.113619
0.145043
0.0884805
0.390266
0.40788
0.404207
0.433353
0.439567
0.439965
0.441021
0.433922
0.437812
-0.147887
-0.447059
0.387827
0.395942
0.361595
0.396739
0.553375
0.624019
0.565263
0.554829
0.565547
-0.0749936
-0.112947
0.169223
0.153758
0.323977
0.339914
0.329882
0.123749
0.0824217
0.121772
0.107384
0.0831944
0.133768
-0.41583
-1.7909
-1.01842
-0.121876
-0.211904
-0.177943
0.0434853
0.105656
0.0733042
0.733055
0.778399
0.403553
0.560614
0.512735
-0.11368
-0.0368405
0.0681584
-0.0542279
-0.00684958
0.0745464
0.0277283
0.381214
0.345764
0.363662
0.653662
0.723343
0.0420286
-0.0218923
-0.0622672
0.125023
0.122913
0.117353
0.762687
0.723262
0.76279
0.400059
0.390198
-0.0559177
-0.00426741
0.499206
0.524209
-0.057189
-0.0245398
-0.116994
-0.826839
0.0374909
0.451839
0.410639
0.465182
-0.134995
0.191348
0.00529862
0.0242197
-0.0237068
0.425919
0.355785
0.322932
-0.0579655
0.00949139
-0.000389085
-0.424556
0.458604
0.442999
0.450404
0.461332
0.474811
-0.00671783
-0.013745
0.0296139
-0.0347469
0.0411504
0.0380799
0.432472
0.42178
-0.442557
0.444407
0.467891
0.467142
0.479915
0.481404
0.470082
-0.0134565
0.0320623
0.0368117
0.143932
0.252114
-0.00643206
-0.0482885
0.00628289
-0.131406
-0.32433
-0.0466701
-0.0319158
-0.0470465
-0.0178881
0.529521
0.49637
0.120263
-0.0588865
0.113821
0.0763807
0.446943
0.464116
0.43817
0.448972
0.46726
0.419771
0.482383
0.452067
0.44922
0.491007
-0.0944694
-0.0372998
-0.0870901
-0.212433
0.277756
0.358942
0.175886
0.246568
0.0952415
-0.0115998
0.0435578
-0.0202768
-0.0014034
0.00356767
0.103979
0.0357759
0.136072
0.0215602
0.108666
-0.0346657
0.134453
-0.00335578
0.40981
0.429231
0.425773
0.465945
0.387965
0.405035
0.381171
0.381391
0.399985
0.331304
0.349517
0.348492
0.0132781
0.0125792
0.0428265
0.025012
0.045509
-0.0290953
-0.0277315
-0.0270798
-0.00509721
-0.0479106
-0.00647937
-0.00125671
-0.357425
-0.52022
0.676418
0.554797
0.0554809
0.420521
0.462644
0.436717
0.474304
0.484843
0.516206
0.481751
0.459132
0.428271
0.443579
0.426235
0.443941
-0.367225
-0.43646
-0.28408
-0.334664
0.131493
0.544189
0.299524
0.245205
0.237041
0.407013
0.332855
0.08616
-0.148522
-0.258841
-0.548912
-0.395968
-0.56414
-0.103687
-0.0607276
-0.084661
-0.00365159
0.0705352
0.00520352
-0.0132663
-0.113802
0.432815
-0.184775
-0.165182
0.0596698
-0.0204919
0.24145
0.529967
0.539755
0.474208
0.452368
0.513247
0.487604
0.485984
0.517443
0.523922
0.425398
0.191266
0.174721
0.110722
0.536585
0.447763
0.483166
0.372322
0.466079
0.470527
0.450146
0.44091
0.476073
0.439568
0.435063
0.413824
0.407859
0.445493
0.448998
0.419939
-0.00991725
-0.0222002
-0.0947199
-0.313749
-0.175242
-0.275087
-0.135471
0.0479315
-0.0395069
0.0851563
0.260669
0.0229498
-0.238637
-0.0805444
-0.205446
0.106739
0.0119115
0.107038
0.128541
0.128641
0.123753
0.193495
0.166521
0.0341271
0.0413129
0.0671162
-0.00647899
0.128282
0.0885417
0.148861
0.0617949
0.11196
0.0651703
0.0284708
-0.00237858
0.0959194
0.0477889
-0.00249109
0.0297757
0.0187399
-0.0668182
-0.0635356
0.175569
0.0478709
0.450977
0.435011
0.436804
0.453906
0.486879
0.479969
0.426192
0.428583
0.453473
0.425828
0.395362
0.377305
0.370192
0.400511
0.411736
0.40829
0.449194
0.440176
0.41136
0.431942
0.378549
0.398019
0.352728
0.369629
0.395098
-0.094951
0.0202808
-0.0375546
-0.0438479
0.0114308
0.0485385
0.109549
0.0334949
0.117499
0.0895008
0.0615526
0.0285446
0.0562452
-0.247379
-0.143157
-0.380838
-0.442833
-0.530752
0.653397
0.715754
0.589446
0.434287
0.49191
0.594333
0.684597
0.407098
0.436872
0.512973
0.358153
0.639281
0.447306
0.433248
0.453522
0.47274
0.449825
-0.220278
-0.0838616
-0.0344218
0.0681114
0.202055
0.2639
0.093849
0.0338371
0.144798
0.151883
0.525171
0.544961
0.511254
0.543333
0.537726
0.341726
0.431432
0.462361
0.455942
0.460832
0.482247
0.484201
0.481511
0.414092
0.408715
0.414459
0.369919
0.394083
0.367357
0.364999
0.423302
0.402167
0.404196
0.414349
0.461439
0.443197
0.469387
0.513372
0.494196
0.396362
0.37629
0.400377
0.411329
0.38894
0.387646
0.383924
0.14603
0.181198
0.0922285
-0.122262
0.012279
-0.0520408
-0.101737
-0.0825575
0.0726217
-0.430186
-0.367532
-0.88923
0.32394
0.402167
0.191541
-0.0673961
0.431858
0.46488
0.45008
0.357489
0.3683
0.521215
0.543311
0.551734
0.47545
0.472191
0.491032
0.478128
0.425961
0.301558
0.241931
0.275313
0.116427
0.17408
0.333912
0.274302
0.228713
0.257285
0.35149
0.259358
0.288018
0.359462
0.321898
0.309414
0.440521
0.485356
0.502726
0.447191
0.355761
0.41221
0.40079
0.448585
0.489479
0.493399
0.449969
0.432916
0.442225
0.433338
0.423019
0.43988
0.410559
0.455249
0.46078
0.468373
0.462059
-0.0185308
0.0045666
0.0157951
-0.0275463
-0.0348001
-0.0798107
-0.0626414
-0.0881227
0.0607895
0.0339424
-0.0529646
-0.0191289
0.0775798
0.030942
0.0959709
0.114014
0.064925
0.00648727
0.200985
0.352854
0.329464
0.289179
0.191534
0.204836
0.301027
0.0306002
0.12226
0.0756689
0.0428614
0.0369364
0.018221
0.109253
0.0491094
0.0880613
0.0404128
-0.109001
0.0463725
0.0988184
-0.0470226
0.0112652
0.044013
0.415239
0.417455
0.400904
0.381712
0.389798
0.389069
0.425448
0.449118
0.451958
0.450582
0.456208
0.439732
0.44611
0.0113938
0.126106
0.153627
0.0943794
0.0453197
-0.00384976
-0.0185225
-0.0153316
-0.113534
-0.0574152
-0.22361
-0.297726
-0.248542
0.281649
0.293514
0.291436
0.582153
0.418636
0.331767
0.419797
0.541573
0.188957
0.324118
0.183899
0.6428
0.577391
0.675631
0.417938
0.0422052
0.135098
0.273686
0.0202249
0.020931
0.123622
0.118189
0.122599
0.122658
0.207424
0.187053
0.180184
0.0822546
0.0844344
0.227651
0.199006
0.306974
0.361678
0.019903
0.07618
-0.00324656
0.500988
0.525794
0.548234
0.52184
0.541547
0.480854
0.479263
0.510924
0.535213
0.524006
-0.734852
-0.46731
-1.32699
-0.649978
-0.349265
0.416052
0.168908
0.759416
0.602096
0.472229
0.496398
0.4991
0.460676
0.514525
0.516642
0.267612
0.361161
0.305422
0.34332
0.256772
0.183784
0.482395
0.471019
0.497103
0.518262
0.473009
0.516903
0.374361
0.414255
0.396994
0.430084
0.451765
0.470774
0.0771662
0.0154308
0.0608277
0.0529942
0.0404881
0.0139177
-0.0436155
-0.0124534
0.168049
0.107102
0.0506999
0.106597
-0.0861587
-0.0945542
-0.202556
-0.14688
-0.171778
-0.300399
-0.280047
-0.276564
-0.189836
-0.0939338
0.326089
0.522076
0.403192
0.566468
0.383928
0.543086
0.305062
0.350511
0.35891
0.260771
0.290039
-0.0215878
-0.313228
-0.22667
0.821478
0.911638
0.565888
0.303078
0.060979
0.375791
0.448847
0.380808
0.401234
0.48213
0.445076
-0.117299
-0.0254466
-0.0695364
0.00844705
0.1544
0.0691981
0.0844443
0.0764871
0.0861485
)
;

boundaryField
{
    wall-4
    {
        type            calculated;
        value           nonuniform List<scalar> 
100
(
0.5592
0.293369
0.106373
0.578429
0.190314
-0.78802
0.518381
-0.111851
0.0326811
0.453556
0.0461053
0.0265843
-1.23079
0.576865
-0.720218
0.41674
0.0245714
-0.0485348
0.413408
0.498522
-0.0481898
0.116792
-0.0333155
0.184363
0.422729
-0.705184
-0.862225
0.540521
-0.286646
0.471453
0.426135
-0.223221
-0.0759458
0.0102934
0.0470844
0.373361
0.44
0.464021
0.169341
0.128038
0.0656222
-0.0120791
-2.26431
-0.618264
0.56671
0.572214
-0.834709
0.44886
0.402431
0.0181628
0.0314349
0.233201
0.425275
0.476934
0.205776
0.538184
-0.0899362
0.0261953
0.0923254
0.237251
0.412205
0.435532
0.431398
-0.571942
-0.892534
0.559881
-0.428146
-0.22065
0.421972
0.434316
-0.423896
-0.0130696
-0.00536607
0.0208091
0.361265
0.384987
0.43937
0.44495
0.127626
-0.325056
0.573179
0.444732
0.452598
0.0360032
0.385977
0.0782889
0.293193
0.569739
-0.00540089
0.158367
0.404207
0.439965
0.437812
0.565547
-0.112947
0.329882
0.107384
-0.177943
-0.00684958
-0.0622672
)
;
    }
    velocity-inlet-5
    {
        type            calculated;
        value           nonuniform List<scalar> 8(0.5592 0.578429 0.5822 0.582648 0.584925 0.591959 0.56858 0.597286);
    }
    velocity-inlet-6
    {
        type            calculated;
        value           nonuniform List<scalar> 4(0.293369 0.190314 0.197034 0.248681);
    }
    pressure-outlet-7
    {
        type            calculated;
        value           uniform 0;
    }
    wall-8
    {
        type            calculated;
        value           nonuniform List<scalar> 
34
(
-0.00280954
0.0217746
0.00790425
0.211985
0.281995
0.0769773
0.0331552
0.72126
0.0265324
0.0111623
0.32295
0.476942
0.362561
0.218859
0.101501
0.0833451
-5.23656
0.0715254
0.054001
0.76317
0.638203
-0.447059
0.387827
0.396739
0.624019
0.153758
-1.01842
0.0733042
0.778399
0.512735
0.363662
0.723343
0.117353
0.76279
)
;
    }
    frontAndBackPlanes
    {
        type            empty;
    }
}

