/*--------------------------------*- C++ -*----------------------------------*\
  =========                 |
  \\      /  F ield         | OpenFOAM: The Open Source CFD Toolbox
   \\    /   O peration     | Website:  https://openfoam.org
    \\  /    A nd           | Version:  6
     \\/     M anipulation  |
\*---------------------------------------------------------------------------*/
FoamFile
{
    version     2.0;
    format      ascii;
    class       surfaceScalarField;
    location    "20619";
    object      phi;
}
// * * * * * * * * * * * * * * * * * * * * * * * * * * * * * * * * * * * * * //

dimensions      [0 3 -1 0 0 0 0];

internalField   nonuniform List<scalar> 
230394
(
7.06731e-08
-1.85774e-08
7.74617e-08
-6.78758e-09
8.15898e-08
-4.12786e-09
8.43666e-08
-2.77764e-09
8.62914e-08
-1.92485e-09
8.73064e-08
-1.0146e-09
8.76549e-08
-3.48671e-10
8.7605e-08
4.94854e-11
8.73173e-08
2.87949e-10
8.68616e-08
4.56224e-10
8.62882e-08
5.73428e-10
8.56314e-08
6.56539e-10
8.49204e-08
7.1085e-10
8.41832e-08
7.37269e-10
8.34447e-08
7.38309e-10
8.27278e-08
7.16838e-10
8.20504e-08
6.77431e-10
8.14248e-08
6.25719e-10
8.08574e-08
5.67467e-10
8.03486e-08
5.08669e-10
7.9895e-08
4.5378e-10
7.94904e-08
4.04723e-10
7.91284e-08
3.61984e-10
7.8803e-08
3.25114e-10
7.85105e-08
2.92445e-10
7.8249e-08
2.61597e-10
7.80186e-08
2.30462e-10
7.78208e-08
1.97766e-10
7.76577e-08
1.63034e-10
7.75313e-08
1.2646e-10
7.74425e-08
8.87852e-11
7.73914e-08
5.11692e-11
7.7382e-08
9.39541e-12
7.74155e-08
-3.34837e-11
7.74853e-08
-6.97986e-11
7.75862e-08
-1.00887e-10
7.77147e-08
-1.28564e-10
7.78688e-08
-1.54112e-10
7.80473e-08
-1.78531e-10
7.825e-08
-2.02687e-10
7.84774e-08
-2.27362e-10
7.87306e-08
-2.53272e-10
7.90117e-08
-2.81071e-10
7.93232e-08
-3.11533e-10
7.96689e-08
-3.45687e-10
8.00541e-08
-3.851e-10
8.04862e-08
-4.32104e-10
8.09765e-08
-4.90328e-10
8.15415e-08
-5.65045e-10
8.22087e-08
-6.67166e-10
8.30201e-08
-8.11382e-10
8.40693e-08
-1.04928e-09
8.55216e-08
-1.45229e-09
8.80431e-08
-2.52143e-09
9.47859e-08
-6.74291e-09
-4.55821e-08
1.40368e-07
2.14745e-07
-7.21581e-08
2.3641e-07
-2.8452e-08
2.50673e-07
-1.83912e-08
2.59935e-07
-1.20398e-08
2.65776e-07
-7.76563e-09
2.68912e-07
-4.15094e-09
2.7013e-07
-1.56604e-09
2.70141e-07
3.80868e-11
2.69419e-07
1.01013e-09
2.68196e-07
1.67942e-09
2.6661e-07
2.15936e-09
2.64754e-07
2.51214e-09
2.6271e-07
2.75478e-09
2.6056e-07
2.88779e-09
2.58383e-07
2.91481e-09
2.56255e-07
2.84445e-09
2.54239e-07
2.69416e-09
2.52376e-07
2.48806e-09
2.50692e-07
2.25244e-09
2.49188e-07
2.01253e-09
2.47854e-07
1.78771e-09
2.4667e-07
1.58862e-09
2.45614e-07
1.41832e-09
2.44665e-07
1.27379e-09
2.4381e-07
1.14713e-09
2.43043e-07
1.02824e-09
2.42366e-07
9.08008e-10
2.41783e-07
7.80402e-10
2.41303e-07
6.43039e-10
2.40933e-07
4.9686e-10
2.40676e-07
3.45338e-10
2.40535e-07
1.92911e-10
2.40519e-07
2.56242e-11
2.40628e-07
-1.42749e-10
2.40843e-07
-2.84535e-10
2.41147e-07
-4.05724e-10
2.41531e-07
-5.12676e-10
2.41987e-07
-6.10181e-10
2.42511e-07
-7.02328e-10
2.43101e-07
-7.92675e-10
2.43758e-07
-8.84231e-10
2.44484e-07
-9.79528e-10
2.45284e-07
-1.08084e-09
2.46163e-07
-1.19074e-09
2.4713e-07
-1.31265e-09
2.48197e-07
-1.45178e-09
2.49381e-07
-1.61613e-09
2.50709e-07
-1.81802e-09
2.5222e-07
-2.07642e-09
2.5398e-07
-2.42676e-09
2.56097e-07
-2.92879e-09
2.58789e-07
-3.74098e-09
2.62538e-07
-5.20145e-09
2.6878e-07
-8.76323e-09
2.82567e-07
-2.053e-08
-6.68404e-08
3.03825e-07
3.47996e-07
-1.41703e-07
3.82667e-07
-6.31237e-08
4.0596e-07
-4.16841e-08
4.21494e-07
-2.75738e-08
4.3177e-07
-1.80413e-08
4.38228e-07
-1.0609e-08
4.41926e-07
-5.26399e-09
4.43669e-07
-1.7054e-09
4.44091e-07
5.88127e-10
4.43621e-07
2.14959e-09
4.42473e-07
3.30725e-09
4.40796e-07
4.18887e-09
4.38715e-07
4.83597e-09
4.36349e-07
5.25404e-09
4.33817e-07
5.44679e-09
4.31235e-07
5.42624e-09
4.28707e-07
5.22254e-09
4.26313e-07
4.88221e-09
4.24105e-07
4.45996e-09
4.22108e-07
4.00993e-09
4.20319e-07
3.57641e-09
4.1872e-07
3.18722e-09
4.17286e-07
2.85306e-09
4.15989e-07
2.56982e-09
4.14814e-07
2.32211e-09
4.13753e-07
2.08932e-09
4.12809e-07
1.85215e-09
4.11993e-07
1.59716e-09
4.11317e-07
1.3187e-09
4.10795e-07
1.01867e-09
4.10436e-07
7.04766e-10
4.10243e-07
3.86044e-10
4.10225e-07
4.37831e-11
4.10378e-07
-2.96056e-10
4.1068e-07
-5.87181e-10
4.11113e-07
-8.37979e-10
4.11659e-07
-1.05913e-09
4.12309e-07
-1.25984e-09
4.13055e-07
-1.44859e-09
4.13895e-07
-1.63292e-09
4.1483e-07
-1.81909e-09
4.15863e-07
-2.0122e-09
4.16999e-07
-2.21674e-09
4.18245e-07
-2.43765e-09
4.19614e-07
-2.68142e-09
4.2112e-07
-2.9579e-09
4.22787e-07
-3.28238e-09
4.24647e-07
-3.67821e-09
4.26752e-07
-4.18198e-09
4.29185e-07
-4.85909e-09
4.32083e-07
-5.82705e-09
4.35709e-07
-7.36674e-09
4.40647e-07
-1.01399e-08
4.48354e-07
-1.64697e-08
4.62598e-07
-3.47741e-08
-8.19572e-08
4.77714e-07
4.68642e-07
-2.06886e-07
5.05425e-07
-9.99072e-08
5.31851e-07
-6.81096e-08
5.50364e-07
-4.60866e-08
5.63424e-07
-3.11015e-08
5.72594e-07
-1.97789e-08
5.78878e-07
-1.15481e-08
5.82991e-07
-5.81839e-09
5.85463e-07
-1.88362e-09
5.86741e-07
8.70811e-10
5.87139e-07
2.90899e-09
5.86842e-07
4.48635e-09
5.85997e-07
5.68041e-09
5.84737e-07
6.5149e-09
5.8318e-07
7.00294e-09
5.81443e-07
7.16414e-09
5.79625e-07
7.04017e-09
5.77812e-07
6.69504e-09
5.76067e-07
6.20563e-09
5.74427e-07
5.64964e-09
5.7291e-07
5.09297e-09
5.71517e-07
4.57999e-09
5.7024e-07
4.13077e-09
5.69066e-07
3.74328e-09
5.6799e-07
3.39865e-09
5.67009e-07
3.06979e-09
5.66131e-07
2.73042e-09
5.65366e-07
2.36189e-09
5.64729e-07
1.9563e-09
5.64231e-07
1.51653e-09
5.63882e-07
1.05374e-09
5.63687e-07
5.80468e-10
5.6365e-07
8.14916e-11
5.63765e-07
-4.11035e-10
5.64022e-07
-8.44053e-10
5.64407e-07
-1.2238e-09
5.64911e-07
-1.5629e-09
5.65525e-07
-1.87356e-09
5.66244e-07
-2.16771e-09
5.67067e-07
-2.45628e-09
5.67997e-07
-2.7485e-09
5.69036e-07
-3.05203e-09
5.70194e-07
-3.37381e-09
5.71477e-07
-3.72147e-09
5.72901e-07
-4.10503e-09
5.74483e-07
-4.53942e-09
5.76248e-07
-5.04762e-09
5.78234e-07
-5.66439e-09
5.80496e-07
-6.44416e-09
5.83119e-07
-7.4816e-09
5.86241e-07
-8.94975e-09
5.90112e-07
-1.12375e-08
5.95253e-07
-1.52807e-08
6.02733e-07
-2.39502e-08
6.14637e-07
-4.66776e-08
-9.32763e-08
6.25956e-07
5.85355e-07
-2.57134e-07
6.16398e-07
-1.3095e-07
6.40635e-07
-9.23474e-08
6.58607e-07
-6.40584e-08
6.71959e-07
-4.44531e-08
6.81939e-07
-2.97587e-08
6.89337e-07
-1.89466e-08
6.94726e-07
-1.12076e-08
6.98521e-07
-5.67773e-09
7.01058e-07
-1.66648e-09
7.02647e-07
1.31978e-09
7.03515e-07
3.61793e-09
7.03811e-07
5.38448e-09
7.03658e-07
6.66804e-09
7.03163e-07
7.49789e-09
7.02421e-07
7.90636e-09
7.01513e-07
7.94777e-09
7.00509e-07
7.69992e-09
6.9946e-07
7.2544e-09
6.98406e-07
6.70324e-09
6.97374e-07
6.12525e-09
6.96379e-07
5.57503e-09
6.9543e-07
5.07926e-09
6.94535e-07
4.63885e-09
6.93698e-07
4.23506e-09
6.92929e-07
3.83936e-09
6.92236e-07
3.42371e-09
6.91629e-07
2.96835e-09
6.9112e-07
2.46549e-09
6.90717e-07
1.91943e-09
6.90427e-07
1.34357e-09
6.90256e-07
7.52148e-10
6.90201e-07
1.35754e-10
6.90262e-07
-4.72081e-10
6.90438e-07
-1.01963e-09
6.90724e-07
-1.51026e-09
6.91118e-07
-1.95683e-09
6.91617e-07
-2.37275e-09
6.92221e-07
-2.77177e-09
6.92932e-07
-3.16682e-09
6.93753e-07
-3.56917e-09
6.94689e-07
-3.98861e-09
6.9575e-07
-4.43442e-09
6.96946e-07
-4.91715e-09
6.98291e-07
-5.45062e-09
6.99807e-07
-6.05511e-09
7.01521e-07
-6.76139e-09
7.03472e-07
-7.61537e-09
7.05716e-07
-8.6887e-09
7.08338e-07
-1.01031e-08
7.1147e-07
-1.20825e-08
7.15338e-07
-1.51047e-08
7.20382e-07
-2.03254e-08
7.2733e-07
-3.08983e-08
7.37246e-07
-5.65938e-08
-1.02186e-07
7.46157e-07
7.04338e-07
-2.89858e-07
7.25864e-07
-1.52477e-07
7.44357e-07
-1.1084e-07
7.59108e-07
-7.88091e-08
7.70672e-07
-5.60174e-08
7.79753e-07
-3.88397e-08
7.86824e-07
-2.60172e-08
7.92266e-07
-1.66496e-08
7.96378e-07
-9.79013e-09
7.99395e-07
-4.68311e-09
8.0154e-07
-8.25462e-10
8.03025e-07
2.13257e-09
8.03995e-07
4.4153e-09
8.04546e-07
6.11686e-09
8.04763e-07
7.28088e-09
8.04717e-07
7.95175e-09
8.04471e-07
8.19461e-09
8.04073e-07
8.09719e-09
8.03568e-07
7.75994e-09
8.02989e-07
7.28244e-09
8.02364e-07
6.74987e-09
8.01717e-07
6.22199e-09
8.01067e-07
5.72931e-09
8.0043e-07
5.27552e-09
7.99821e-07
4.84389e-09
7.99253e-07
4.40753e-09
7.98737e-07
3.93996e-09
7.98282e-07
3.423e-09
7.97897e-07
2.85055e-09
7.97588e-07
2.22854e-09
7.9736e-07
1.5717e-09
7.97217e-07
8.94768e-10
7.9716e-07
1.93449e-10
7.97187e-07
-4.99588e-10
7.97305e-07
-1.13704e-09
7.97515e-07
-1.72028e-09
7.97819e-07
-2.26165e-09
7.98221e-07
-2.77476e-09
7.98724e-07
-3.27402e-09
7.9933e-07
-3.77337e-09
8.00046e-07
-4.28542e-09
8.0088e-07
-4.82164e-09
8.01839e-07
-5.39357e-09
8.02936e-07
-6.01473e-09
8.04189e-07
-6.70289e-09
8.05617e-07
-7.48375e-09
8.07252e-07
-8.39575e-09
8.09132e-07
-9.49566e-09
8.11315e-07
-1.08715e-08
8.13882e-07
-1.26701e-08
8.1696e-07
-1.51614e-08
8.20752e-07
-1.88962e-08
8.25634e-07
-2.52072e-08
8.3209e-07
-3.73547e-08
8.40622e-07
-6.5126e-08
-1.09573e-07
8.48009e-07
8.27283e-07
-3.0664e-07
8.38465e-07
-1.63659e-07
8.49254e-07
-1.21629e-07
8.58913e-07
-8.84684e-08
8.67089e-07
-6.41932e-08
8.73901e-07
-4.56524e-08
8.79459e-07
-3.15747e-08
8.8392e-07
-2.11107e-08
8.87448e-07
-1.33185e-08
8.90188e-07
-7.42322e-09
8.92265e-07
-2.90221e-09
8.93822e-07
5.75778e-10
8.94979e-07
3.25835e-09
8.95799e-07
5.29648e-09
8.96337e-07
6.74335e-09
8.96638e-07
7.6505e-09
8.96744e-07
8.08911e-09
8.96689e-07
8.15186e-09
8.96506e-07
7.94306e-09
8.96223e-07
7.56512e-09
8.95867e-07
7.10555e-09
8.95463e-07
6.62639e-09
8.95032e-07
6.16056e-09
8.94593e-07
5.71436e-09
8.94163e-07
5.27398e-09
8.93755e-07
4.8155e-09
8.9338e-07
4.31534e-09
8.93045e-07
3.7578e-09
8.92757e-07
3.13873e-09
8.9252e-07
2.46528e-09
8.92339e-07
1.75261e-09
8.92219e-07
1.0152e-09
8.92159e-07
2.52569e-10
8.92164e-07
-5.04428e-10
8.92241e-07
-1.21343e-09
8.92395e-07
-1.87436e-09
8.92632e-07
-2.49884e-09
8.92957e-07
-3.10021e-09
8.93376e-07
-3.69303e-09
8.93895e-07
-4.29175e-09
8.94519e-07
-4.90996e-09
8.95258e-07
-5.56064e-09
8.96122e-07
-6.25752e-09
8.97125e-07
-7.01712e-09
8.98283e-07
-7.86118e-09
8.9962e-07
-8.82076e-09
9.01166e-07
-9.94183e-09
9.02962e-07
-1.12915e-08
9.05064e-07
-1.29736e-08
9.07551e-07
-1.51576e-08
9.10546e-07
-1.81562e-08
9.14229e-07
-2.25795e-08
9.18926e-07
-2.99034e-08
9.2495e-07
-4.33793e-08
9.32489e-07
-7.26644e-08
-1.15939e-07
9.38855e-07
9.53315e-07
-3.10927e-07
9.55404e-07
-1.65748e-07
9.58043e-07
-1.24268e-07
9.61582e-07
-9.20078e-08
9.65264e-07
-6.78754e-08
9.68778e-07
-4.91663e-08
9.71897e-07
-3.46937e-08
9.74551e-07
-2.37639e-08
9.76754e-07
-1.55223e-08
9.78554e-07
-9.22254e-09
9.79993e-07
-4.34205e-09
9.81132e-07
-5.62664e-10
9.82027e-07
2.36312e-09
9.82709e-07
4.61471e-09
9.83196e-07
6.256e-09
9.83509e-07
7.33809e-09
9.83666e-07
7.93176e-09
9.83689e-07
8.12889e-09
9.83599e-07
8.03291e-09
9.83419e-07
7.74549e-09
9.8317e-07
7.35404e-09
9.82875e-07
6.92149e-09
9.82553e-07
6.4826e-09
9.82221e-07
6.04642e-09
9.81893e-07
5.60233e-09
9.81579e-07
5.12973e-09
9.81286e-07
4.60792e-09
9.8102e-07
4.02339e-09
9.80786e-07
3.3733e-09
9.80586e-07
2.66515e-09
9.80425e-07
1.91365e-09
9.80308e-07
1.13249e-09
9.80236e-07
3.23944e-10
9.80215e-07
-4.83488e-10
9.80254e-07
-1.25196e-09
9.80359e-07
-1.97991e-09
9.80539e-07
-2.67822e-09
9.80798e-07
-3.35987e-09
9.81145e-07
-4.0394e-09
9.81585e-07
-4.73169e-09
9.82126e-07
-5.45123e-09
9.82778e-07
-6.21252e-09
9.83552e-07
-7.03153e-09
9.84463e-07
-7.92779e-09
9.85528e-07
-8.92697e-09
9.86773e-07
-1.00654e-08
9.88228e-07
-1.13963e-08
9.89933e-07
-1.29969e-08
9.91945e-07
-1.49858e-08
9.94341e-07
-1.75538e-08
9.97237e-07
-2.10524e-08
1.0008e-06
-2.61404e-08
1.00531e-06
-3.44103e-08
1.01095e-06
-4.90282e-08
1.01774e-06
-7.94535e-08
-1.2158e-07
1.02338e-06
1.0804e-06
-3.06314e-07
1.07586e-06
-1.61214e-07
1.0713e-06
-1.19703e-07
1.06861e-06
-8.93207e-08
1.06726e-06
-6.65206e-08
1.0668e-06
-4.8711e-08
1.06681e-06
-3.47022e-08
1.06702e-06
-2.3973e-08
1.0673e-06
-1.58083e-08
1.06761e-06
-9.53107e-09
1.06791e-06
-4.64413e-09
1.06819e-06
-8.3772e-10
1.06842e-06
2.13038e-09
1.0686e-06
4.43959e-09
1.0687e-06
6.15381e-09
1.06872e-06
7.31816e-09
1.06865e-06
7.99637e-09
1.06851e-06
8.27345e-09
1.0683e-06
8.24711e-09
1.06803e-06
8.015e-09
1.06772e-06
7.66254e-09
1.06739e-06
7.25264e-09
1.06705e-06
6.82179e-09
1.06671e-06
6.38181e-09
1.06639e-06
5.92537e-09
1.06608e-06
5.43489e-09
1.0658e-06
4.89201e-09
1.06554e-06
4.28454e-09
1.0653e-06
3.6099e-09
1.06509e-06
2.87496e-09
1.06491e-06
2.09315e-09
1.06477e-06
1.27689e-09
1.06466e-06
4.30591e-10
1.0646e-06
-4.20138e-10
1.06459e-06
-1.24151e-09
1.06464e-06
-2.03008e-09
1.06476e-06
-2.79606e-09
1.06495e-06
-3.55211e-09
1.06522e-06
-4.31284e-09
1.06558e-06
-5.09363e-09
1.06604e-06
-5.90998e-09
1.06661e-06
-6.77806e-09
1.06729e-06
-7.71612e-09
1.06811e-06
-8.74674e-09
1.06908e-06
-9.89953e-09
1.07023e-06
-1.12159e-08
1.07159e-06
-1.27564e-08
1.07321e-06
-1.46075e-08
1.07512e-06
-1.69023e-08
1.07742e-06
-1.98515e-08
1.08021e-06
-2.38423e-08
1.08364e-06
-2.95732e-08
1.08796e-06
-3.87316e-08
1.09328e-06
-5.43481e-08
1.09948e-06
-8.56493e-08
-1.26674e-07
1.10457e-06
1.20621e-06
-2.95523e-07
1.19786e-06
-1.52861e-07
1.18814e-06
-1.0999e-07
1.18011e-06
-8.12862e-08
1.17385e-06
-6.02601e-08
1.16919e-06
-4.40496e-08
1.1657e-06
-3.12165e-08
1.16304e-06
-2.13051e-08
1.16096e-06
-1.37327e-08
1.15934e-06
-7.91034e-09
1.15808e-06
-3.38515e-09
1.1571e-06
1.45705e-10
1.1563e-06
2.92286e-09
1.15564e-06
5.10426e-09
1.15505e-06
6.7394e-09
1.15451e-06
7.86471e-09
1.15397e-06
8.53096e-09
1.15344e-06
8.81011e-09
1.15289e-06
8.78899e-09
1.15235e-06
8.55758e-09
1.15182e-06
8.19715e-09
1.1513e-06
7.76961e-09
1.15081e-06
7.31284e-09
1.15035e-06
6.84144e-09
1.14992e-06
6.35124e-09
1.14953e-06
5.82733e-09
1.14917e-06
5.25293e-09
1.14884e-06
4.61623e-09
1.14853e-06
3.91385e-09
1.14826e-06
3.15104e-09
1.14801e-06
2.33919e-09
1.1478e-06
1.48902e-09
1.14762e-06
6.06657e-10
1.14749e-06
-2.85703e-10
1.14741e-06
-1.15821e-09
1.14738e-06
-2.00518e-09
1.14742e-06
-2.8362e-09
1.14753e-06
-3.66368e-09
1.14772e-06
-4.50244e-09
1.148e-06
-5.36852e-09
1.14837e-06
-6.27866e-09
1.14884e-06
-7.2508e-09
1.14943e-06
-8.30561e-09
1.15015e-06
-9.46879e-09
1.15102e-06
-1.07739e-08
1.15208e-06
-1.22674e-08
1.15334e-06
-1.40166e-08
1.15485e-06
-1.61177e-08
1.15666e-06
-1.87172e-08
1.15885e-06
-2.20446e-08
1.16153e-06
-2.65202e-08
1.16483e-06
-3.28749e-08
1.16897e-06
-4.28716e-08
1.174e-06
-5.93747e-08
1.17971e-06
-9.13548e-08
-1.31335e-07
1.18437e-06
1.32862e-06
-2.80379e-07
1.31885e-06
-1.43091e-07
1.30664e-06
-9.77737e-08
1.29506e-06
-6.97108e-08
1.28482e-06
-5.0022e-08
1.27628e-06
-3.55055e-08
1.26929e-06
-2.42292e-08
1.26357e-06
-1.55864e-08
1.25888e-06
-9.03659e-09
1.25502e-06
-4.05635e-09
1.25188e-06
-2.39065e-10
1.2493e-06
2.72748e-09
1.24715e-06
5.07221e-09
1.24534e-06
6.91049e-09
1.24379e-06
8.28755e-09
1.24243e-06
9.22726e-09
1.2412e-06
9.76244e-09
1.24006e-06
9.94622e-09
1.239e-06
9.84913e-09
1.23801e-06
9.54921e-09
1.23709e-06
9.12069e-09
1.23623e-06
8.62285e-09
1.23545e-06
8.09423e-09
1.23474e-06
7.55204e-09
1.2341e-06
6.99511e-09
1.23351e-06
6.4109e-09
1.23298e-06
5.78369e-09
1.2325e-06
5.10123e-09
1.23205e-06
4.35846e-09
1.23165e-06
3.55811e-09
1.23128e-06
2.70879e-09
1.23095e-06
1.81907e-09
1.23066e-06
8.96154e-10
1.23041e-06
-4.10054e-11
1.23022e-06
-9.66962e-10
1.23009e-06
-1.87435e-09
1.23003e-06
-2.77155e-09
1.23003e-06
-3.67086e-09
1.23012e-06
-4.58747e-09
1.23029e-06
-5.53828e-09
1.23055e-06
-6.5414e-09
1.23092e-06
-7.61675e-09
1.2314e-06
-8.78754e-09
1.23201e-06
-1.00827e-08
1.23278e-06
-1.15396e-08
1.23372e-06
-1.32099e-08
1.23487e-06
-1.51678e-08
1.23627e-06
-1.75186e-08
1.23798e-06
-2.0422e-08
1.24006e-06
-2.41253e-08
1.24262e-06
-2.90792e-08
1.24578e-06
-3.6041e-08
1.24975e-06
-4.68326e-08
1.2545e-06
-6.41331e-08
1.25979e-06
-9.6639e-08
-1.35636e-07
1.26409e-06
1.44592e-06
-2.62281e-07
1.43632e-06
-1.33487e-07
1.42411e-06
-8.55677e-08
1.4114e-06
-5.69973e-08
1.39894e-06
-3.75588e-08
1.38755e-06
-2.41147e-08
1.37757e-06
-1.42575e-08
1.369e-06
-7.01392e-09
1.36169e-06
-1.72513e-09
1.35549e-06
2.14645e-09
1.35023e-06
5.01817e-09
1.34577e-06
7.18398e-09
1.342e-06
8.84601e-09
1.33879e-06
1.01178e-08
1.33604e-06
1.10422e-08
1.33363e-06
1.16313e-08
1.3315e-06
1.18983e-08
1.32957e-06
1.18734e-08
1.32781e-06
1.16059e-08
1.32621e-06
1.11572e-08
1.32474e-06
1.05909e-08
1.3234e-06
9.96091e-09
1.32219e-06
9.30531e-09
1.32109e-06
8.64326e-09
1.32011e-06
7.97651e-09
1.31923e-06
7.29483e-09
1.31843e-06
6.58333e-09
1.3177e-06
5.8289e-09
1.31704e-06
5.02412e-09
1.31643e-06
4.16849e-09
1.31587e-06
3.26715e-09
1.31536e-06
2.32595e-09
1.31491e-06
1.35153e-09
1.3145e-06
3.62279e-10
1.31416e-06
-6.22588e-10
1.31388e-06
-1.59695e-09
1.31367e-06
-2.5654e-09
1.31354e-06
-3.54059e-09
1.31349e-06
-4.53823e-09
1.31353e-06
-5.57623e-09
1.31367e-06
-6.67425e-09
1.3139e-06
-7.85432e-09
1.31426e-06
-9.14236e-09
1.31475e-06
-1.05706e-08
1.31539e-06
-1.21804e-08
1.31621e-06
-1.40285e-08
1.31723e-06
-1.6196e-08
1.31851e-06
-1.87972e-08
1.32009e-06
-2.20047e-08
1.32205e-06
-2.60825e-08
1.32448e-06
-3.15095e-08
1.32751e-06
-3.90643e-08
1.33129e-06
-5.06127e-08
1.33579e-06
-6.86388e-08
1.3407e-06
-1.01547e-07
-1.39626e-07
1.34469e-06
1.55697e-06
-2.42419e-07
1.54825e-06
-1.24768e-07
1.53776e-06
-7.50773e-08
1.52622e-06
-4.54591e-08
1.51383e-06
-2.51718e-08
1.50141e-06
-1.169e-08
1.48968e-06
-2.53391e-09
1.47901e-06
3.66003e-09
1.46945e-06
7.83156e-09
1.46099e-06
1.06109e-08
1.45357e-06
1.24337e-08
1.44713e-06
1.36239e-08
1.44157e-06
1.44079e-08
1.43677e-06
1.49159e-08
1.43262e-06
1.52001e-08
1.42898e-06
1.52694e-08
1.42575e-06
1.51215e-08
1.42286e-06
1.47641e-08
1.42025e-06
1.42224e-08
1.41787e-06
1.35371e-08
1.4157e-06
1.27567e-08
1.41374e-06
1.1927e-08
1.41196e-06
1.10829e-08
1.41036e-06
1.02449e-08
1.40892e-06
9.41722e-09
1.40762e-06
8.59219e-09
1.40645e-06
7.75595e-09
1.40538e-06
6.89448e-09
1.40441e-06
5.99779e-09
1.40351e-06
5.0616e-09
1.40269e-06
4.087e-09
1.40194e-06
3.07645e-09
1.40126e-06
2.03473e-09
1.40064e-06
9.80549e-10
1.40009e-06
-7.31157e-11
1.39962e-06
-1.12379e-09
1.39923e-06
-2.17234e-09
1.39892e-06
-3.23117e-09
1.39869e-06
-4.31656e-09
1.39857e-06
-5.4475e-09
1.39854e-06
-6.64536e-09
1.39862e-06
-7.9344e-09
1.39882e-06
-9.34338e-09
1.39916e-06
-1.09079e-08
1.39965e-06
-1.26735e-08
1.40032e-06
-1.47021e-08
1.40121e-06
-1.70817e-08
1.40235e-06
-1.99353e-08
1.40379e-06
-2.34482e-08
1.40561e-06
-2.79007e-08
1.4079e-06
-3.37972e-08
1.41076e-06
-4.19335e-08
1.41436e-06
-5.42049e-08
1.41862e-06
-7.28982e-08
1.42318e-06
-1.06108e-07
-1.43336e-07
1.42689e-06
1.66126e-06
-2.2176e-07
1.65353e-06
-1.1703e-07
1.64539e-06
-6.69367e-08
1.63646e-06
-3.6533e-08
1.62625e-06
-1.49656e-08
1.61508e-06
-5.14256e-10
1.60354e-06
9.00857e-09
1.5921e-06
1.50934e-08
1.58118e-06
1.87509e-08
1.57104e-06
2.07547e-08
1.56181e-06
2.16658e-08
1.55353e-06
2.18964e-08
1.54621e-06
2.17371e-08
1.53975e-06
2.13666e-08
1.53408e-06
2.08706e-08
1.52908e-06
2.0274e-08
1.52463e-06
1.95726e-08
1.52063e-06
1.87591e-08
1.51702e-06
1.78368e-08
1.51373e-06
1.68242e-08
1.51074e-06
1.57514e-08
1.50801e-06
1.46522e-08
1.50554e-06
1.35559e-08
1.5033e-06
1.24822e-08
1.50128e-06
1.14377e-08
1.49946e-06
1.04173e-08
1.4978e-06
9.40877e-09
1.4963e-06
8.39775e-09
1.49493e-06
7.37183e-09
1.49366e-06
6.32291e-09
1.4925e-06
5.24753e-09
1.49144e-06
4.14416e-09
1.49046e-06
3.01471e-09
1.48956e-06
1.87615e-09
1.48875e-06
7.4014e-10
1.48802e-06
-3.97436e-10
1.48739e-06
-1.53902e-09
1.48685e-06
-2.69302e-09
1.48641e-06
-3.87642e-09
1.48607e-06
-5.10946e-09
1.48584e-06
-6.41527e-09
1.48573e-06
-7.82048e-09
1.48574e-06
-9.35678e-09
1.4859e-06
-1.10633e-08
1.48621e-06
-1.29899e-08
1.48671e-06
-1.52037e-08
1.48743e-06
-1.77995e-08
1.48841e-06
-2.09095e-08
1.48969e-06
-2.4731e-08
1.49135e-06
-2.95598e-08
1.49347e-06
-3.59237e-08
1.49617e-06
-4.46322e-08
1.49957e-06
-5.75966e-08
1.50358e-06
-7.69095e-08
1.5078e-06
-1.10336e-07
-1.46782e-07
1.51125e-06
1.7589e-06
-2.009e-07
1.75195e-06
-1.10076e-07
1.74599e-06
-6.09829e-08
1.73995e-06
-3.0486e-08
1.73298e-06
-7.99973e-09
1.72475e-06
7.7206e-09
1.71535e-06
1.84048e-08
1.70514e-06
2.52983e-08
1.69457e-06
2.93274e-08
1.68404e-06
3.12815e-08
1.6739e-06
3.18022e-08
1.6644e-06
3.14036e-08
1.65566e-06
3.04758e-08
1.64774e-06
2.92851e-08
1.64062e-06
2.79868e-08
1.63424e-06
2.66532e-08
1.62851e-06
2.53041e-08
1.62334e-06
2.39354e-08
1.61863e-06
2.25392e-08
1.61434e-06
2.1116e-08
1.61042e-06
1.96775e-08
1.60683e-06
1.82432e-08
1.60355e-06
1.68341e-08
1.60056e-06
1.5467e-08
1.59785e-06
1.41497e-08
1.59539e-06
1.28798e-08
1.59315e-06
1.16477e-08
1.59111e-06
1.04395e-08
1.58924e-06
9.2414e-09
1.58752e-06
8.04169e-09
1.58593e-06
6.83242e-09
1.58447e-06
5.60763e-09
1.58312e-06
4.36554e-09
1.58188e-06
3.11971e-09
1.58074e-06
1.88098e-09
1.5797e-06
6.42172e-10
1.57876e-06
-6.05433e-10
1.57794e-06
-1.8696e-09
1.57723e-06
-3.16475e-09
1.57663e-06
-4.51239e-09
1.57615e-06
-5.93748e-09
1.5758e-06
-7.4691e-09
1.57559e-06
-9.14199e-09
1.57552e-06
-1.09989e-08
1.57563e-06
-1.30941e-08
1.57592e-06
-1.55e-08
1.57644e-06
-1.83185e-08
1.57722e-06
-2.16906e-08
1.57832e-06
-2.58257e-08
1.57979e-06
-3.10343e-08
1.58173e-06
-3.78655e-08
1.58424e-06
-4.7139e-08
1.58741e-06
-6.07699e-08
1.59117e-06
-8.06634e-08
1.59507e-06
-1.14235e-07
-1.49974e-07
1.59826e-06
1.85029e-06
-1.80292e-07
1.84392e-06
-1.0371e-07
1.83971e-06
-5.67708e-08
1.83606e-06
-2.6841e-08
1.83211e-06
-4.0419e-09
1.82722e-06
1.26026e-08
1.82118e-06
2.44532e-08
1.81395e-06
3.25285e-08
1.80569e-06
3.75877e-08
1.79668e-06
4.02893e-08
1.78727e-06
4.12093e-08
1.77782e-06
4.08596e-08
1.76861e-06
3.96808e-08
1.75987e-06
3.8021e-08
1.75173e-06
3.61273e-08
1.74423e-06
3.4153e-08
1.73736e-06
3.21772e-08
1.73107e-06
3.02298e-08
1.72529e-06
2.83149e-08
1.71998e-06
2.64292e-08
1.71508e-06
2.45736e-08
1.71057e-06
2.27552e-08
1.70642e-06
2.09861e-08
1.70261e-06
1.92785e-08
1.69912e-06
1.76403e-08
1.69592e-06
1.60719e-08
1.693e-06
1.45669e-08
1.69033e-06
1.31135e-08
1.68787e-06
1.16977e-08
1.68561e-06
1.03057e-08
1.68352e-06
8.92538e-09
1.68158e-06
7.5465e-09
1.67978e-06
6.16307e-09
1.67812e-06
4.78421e-09
1.67658e-06
3.41809e-09
1.67516e-06
2.05761e-09
1.67387e-06
6.89719e-10
1.6727e-06
-6.9945e-10
1.67166e-06
-2.12313e-09
1.67074e-06
-3.60093e-09
1.66997e-06
-5.15971e-09
1.66933e-06
-6.83099e-09
1.66884e-06
-8.65261e-09
1.66851e-06
-1.06711e-08
1.66836e-06
-1.29451e-08
1.66842e-06
-1.55525e-08
1.6687e-06
-1.86024e-08
1.66925e-06
-2.22446e-08
1.67013e-06
-2.67002e-08
1.67139e-06
-3.2294e-08
1.67312e-06
-3.95939e-08
1.6754e-06
-4.94275e-08
1.67834e-06
-6.3701e-08
1.68182e-06
-8.41433e-08
1.68538e-06
-1.17798e-07
-1.5291e-07
1.68831e-06
1.93619e-06
-1.60969e-07
1.93042e-06
-9.79414e-08
1.92756e-06
-5.39108e-08
1.92568e-06
-2.49657e-08
1.92399e-06
-2.3486e-09
1.92188e-06
1.47107e-08
1.91903e-06
2.73034e-08
1.91523e-06
3.63311e-08
1.91036e-06
4.24515e-08
1.90444e-06
4.62098e-08
1.89758e-06
4.80709e-08
1.88999e-06
4.845e-08
1.88195e-06
4.77259e-08
1.87373e-06
4.62349e-08
1.8656e-06
4.42588e-08
1.85774e-06
4.20159e-08
1.85026e-06
3.96578e-08
1.84321e-06
3.72765e-08
1.83661e-06
3.49189e-08
1.83043e-06
3.26042e-08
1.82467e-06
3.03406e-08
1.81929e-06
2.81339e-08
1.81428e-06
2.59919e-08
1.80963e-06
2.39244e-08
1.80534e-06
2.19395e-08
1.80137e-06
2.00407e-08
1.79771e-06
1.8226e-08
1.79433e-06
1.64874e-08
1.79122e-06
1.48131e-08
1.78834e-06
1.31888e-08
1.78566e-06
1.16001e-08
1.78317e-06
1.00331e-08
1.78086e-06
8.47786e-09
1.7787e-06
6.93849e-09
1.7767e-06
5.41948e-09
1.77485e-06
3.9124e-09
1.77313e-06
2.40409e-09
1.77156e-06
8.76267e-10
1.77013e-06
-6.91221e-10
1.76884e-06
-2.31721e-09
1.76771e-06
-4.0266e-09
1.76673e-06
-5.85339e-09
1.76592e-06
-7.83848e-09
1.76528e-06
-1.00322e-08
1.76483e-06
-1.24977e-08
1.7646e-06
-1.53184e-08
1.76461e-06
-1.86106e-08
1.76489e-06
-2.25331e-08
1.76551e-06
-2.73181e-08
1.76652e-06
-3.33042e-08
1.768e-06
-4.1076e-08
1.77004e-06
-5.14663e-08
1.7727e-06
-6.63612e-08
1.77589e-06
-8.73263e-08
1.7791e-06
-1.21012e-07
-1.55582e-07
1.78177e-06
2.01825e-06
-1.44288e-07
2.01321e-06
-9.2894e-08
2.0114e-06
-5.21022e-08
2.01077e-06
-2.43349e-08
2.0106e-06
-2.18553e-09
2.01041e-06
1.49038e-08
2.0099e-06
2.78173e-08
2.00884e-06
3.73875e-08
2.00707e-06
4.42272e-08
2.00444e-06
4.88337e-08
2.0009e-06
5.16168e-08
1.99642e-06
5.29223e-08
1.9911e-06
5.30507e-08
1.98507e-06
5.22657e-08
1.97853e-06
5.08e-08
1.97169e-06
4.88569e-08
1.96474e-06
4.66055e-08
1.95784e-06
4.41769e-08
1.95109e-06
4.1663e-08
1.94457e-06
3.91226e-08
1.93832e-06
3.65919e-08
1.93236e-06
3.40937e-08
1.92671e-06
3.16447e-08
1.92138e-06
2.92601e-08
1.91636e-06
2.6953e-08
1.91167e-06
2.47326e-08
1.90729e-06
2.26034e-08
1.90322e-06
2.05644e-08
1.89942e-06
1.86086e-08
1.89588e-06
1.67246e-08
1.89259e-06
1.48983e-08
1.8895e-06
1.31143e-08
1.88662e-06
1.13598e-08
1.88393e-06
9.63443e-09
1.88141e-06
7.93864e-09
1.87906e-06
6.26189e-09
1.87687e-06
4.58987e-09
1.87484e-06
2.90428e-09
1.87297e-06
1.18114e-09
1.87126e-06
-6.06908e-10
1.86972e-06
-2.48516e-09
1.86835e-06
-4.48486e-09
1.86716e-06
-6.64997e-09
1.86617e-06
-9.03458e-09
1.86537e-06
-1.17062e-08
1.86481e-06
-1.4754e-08
1.8645e-06
-1.83013e-08
1.86448e-06
-2.25158e-08
1.86481e-06
-2.76409e-08
1.86553e-06
-3.4028e-08
1.86673e-06
-4.2276e-08
1.86848e-06
-5.3221e-08
1.87084e-06
-6.8718e-08
1.8737e-06
-9.01844e-08
1.87654e-06
-1.23856e-07
-1.57979e-07
1.87894e-06
2.09883e-06
-1.30518e-07
2.09451e-06
-8.8572e-08
2.09348e-06
-5.1076e-08
2.09371e-06
-2.45607e-08
2.09454e-06
-3.01642e-09
2.09556e-06
1.38793e-08
2.09654e-06
2.68423e-08
2.09728e-06
3.66436e-08
2.09764e-06
4.38651e-08
2.09749e-06
4.89833e-08
2.09672e-06
5.23907e-08
2.09523e-06
5.44105e-08
2.09297e-06
5.53096e-08
2.08993e-06
5.53082e-08
2.08614e-06
5.45897e-08
2.08169e-06
5.33106e-08
2.07669e-06
5.16051e-08
2.07128e-06
4.9587e-08
2.06559e-06
4.73483e-08
2.05975e-06
4.49606e-08
2.05387e-06
4.24789e-08
2.04801e-06
3.9945e-08
2.04227e-06
3.73923e-08
2.03668e-06
3.48495e-08
2.03129e-06
3.23415e-08
2.02613e-06
2.98891e-08
2.02123e-06
2.75078e-08
2.01658e-06
2.52074e-08
2.0122e-06
2.29904e-08
2.00807e-06
2.08529e-08
2.00419e-06
1.87853e-08
2.00053e-06
1.67743e-08
1.99708e-06
1.4807e-08
1.99383e-06
1.28806e-08
1.99078e-06
1.09923e-08
1.98791e-06
9.12966e-09
1.98523e-06
7.27686e-09
1.98272e-06
5.41484e-09
1.98038e-06
3.51982e-09
1.97821e-06
1.56182e-09
1.97622e-06
-4.95217e-10
1.97442e-06
-2.68458e-09
1.97281e-06
-5.04608e-09
1.97142e-06
-7.63739e-09
1.97024e-06
-1.05304e-08
1.96931e-06
-1.38197e-08
1.96864e-06
-1.76359e-08
1.96828e-06
-2.21553e-08
1.96827e-06
-2.76318e-08
1.96867e-06
-3.44293e-08
1.96956e-06
-4.31583e-08
1.97099e-06
-5.46566e-08
1.97301e-06
-7.07376e-08
1.97551e-06
-9.26866e-08
1.97796e-06
-1.26305e-07
-1.60082e-07
1.98006e-06
2.17993e-06
-1.19159e-07
2.17623e-06
-8.48663e-08
2.17575e-06
-5.05955e-08
2.17655e-06
-2.53672e-08
2.17803e-06
-4.49578e-09
2.17983e-06
1.20861e-08
2.18172e-06
2.49497e-08
2.18356e-06
3.48017e-08
2.18523e-06
4.21916e-08
2.18664e-06
4.75783e-08
2.18768e-06
5.13451e-08
2.18829e-06
5.3808e-08
2.18837e-06
5.52249e-08
2.18788e-06
5.58028e-08
2.18676e-06
5.57066e-08
2.185e-06
5.50692e-08
2.18261e-06
5.39981e-08
2.17962e-06
5.25804e-08
2.17608e-06
5.08853e-08
2.17207e-06
4.89673e-08
2.16768e-06
4.68706e-08
2.16299e-06
4.46326e-08
2.1581e-06
4.22868e-08
2.15308e-06
3.98655e-08
2.14802e-06
3.74004e-08
2.14299e-06
3.49215e-08
2.13804e-06
3.2456e-08
2.13322e-06
3.00266e-08
2.12856e-06
2.76489e-08
2.12409e-06
2.53307e-08
2.1198e-06
2.30725e-08
2.11571e-06
2.08681e-08
2.1118e-06
1.87091e-08
2.10809e-06
1.65938e-08
2.10456e-06
1.45191e-08
2.10122e-06
1.24722e-08
2.09806e-06
1.04366e-08
2.09508e-06
8.39262e-09
2.09229e-06
6.31648e-09
2.08967e-06
4.17884e-09
2.08723e-06
1.94255e-09
2.08499e-06
-4.3891e-10
2.08295e-06
-3.00913e-09
2.08113e-06
-5.81993e-09
2.07955e-06
-8.94716e-09
2.07822e-06
-1.24909e-08
2.07717e-06
-1.65883e-08
2.07644e-06
-2.14244e-08
2.07607e-06
-2.72628e-08
2.07612e-06
-3.44793e-08
2.07666e-06
-4.36932e-08
2.07774e-06
-5.57422e-08
2.07939e-06
-7.23887e-08
2.08151e-06
-9.48028e-08
2.08354e-06
-1.28333e-07
-1.61873e-07
2.08533e-06
2.26296e-06
-1.09602e-07
2.25972e-06
-8.16298e-08
2.25959e-06
-5.04633e-08
2.26078e-06
-2.65525e-08
2.26268e-06
-6.40051e-09
2.26497e-06
9.79625e-09
2.26744e-06
2.24775e-08
2.26996e-06
3.22822e-08
2.27243e-06
3.97231e-08
2.27477e-06
4.52391e-08
2.27691e-06
4.92029e-08
2.2788e-06
5.19247e-08
2.28036e-06
5.3658e-08
2.28156e-06
5.46059e-08
2.28234e-06
5.49286e-08
2.28266e-06
5.47524e-08
2.28248e-06
5.41757e-08
2.28178e-06
5.32747e-08
2.28056e-06
5.21057e-08
2.27882e-06
5.07097e-08
2.27658e-06
4.91168e-08
2.27386e-06
4.73505e-08
2.27071e-06
4.54308e-08
2.2672e-06
4.33787e-08
2.26338e-06
4.12169e-08
2.25933e-06
3.89701e-08
2.25513e-06
3.6665e-08
2.25082e-06
3.4328e-08
2.24649e-06
3.19822e-08
2.24218e-06
2.96456e-08
2.23792e-06
2.7329e-08
2.23375e-06
2.50366e-08
2.22969e-06
2.27685e-08
2.22576e-06
2.05285e-08
2.22196e-06
1.83169e-08
2.21831e-06
1.61236e-08
2.21481e-06
1.39337e-08
2.21147e-06
1.17285e-08
2.20831e-06
9.48497e-09
2.20531e-06
7.1746e-09
2.20249e-06
4.76185e-09
2.19985e-06
2.20028e-09
2.19741e-06
-5.69035e-10
2.19519e-06
-3.60281e-09
2.19322e-06
-6.96956e-09
2.1915e-06
-1.0774e-08
2.19007e-06
-1.51599e-08
2.18897e-06
-2.03198e-08
2.18823e-06
-2.65266e-08
2.18792e-06
-3.41666e-08
2.18809e-06
-4.38658e-08
2.18881e-06
-5.64596e-08
2.19007e-06
-7.36504e-08
2.19178e-06
-9.65101e-08
2.19337e-06
-1.29922e-07
-1.63336e-07
2.19483e-06
2.34883e-06
-1.01351e-07
2.34593e-06
-7.87214e-08
2.34598e-06
-5.05181e-08
2.34739e-06
-2.79583e-08
2.34956e-06
-8.57174e-09
2.35217e-06
7.18638e-09
2.35501e-06
1.96307e-08
2.35797e-06
2.93294e-08
2.36093e-06
3.67552e-08
2.36385e-06
4.23235e-08
2.36666e-06
4.63942e-08
2.36931e-06
4.92691e-08
2.37178e-06
5.11971e-08
2.374e-06
5.23784e-08
2.37596e-06
5.29713e-08
2.37761e-06
5.31002e-08
2.37893e-06
5.28612e-08
2.37987e-06
5.23274e-08
2.38043e-06
5.1552e-08
2.38057e-06
5.05714e-08
2.38027e-06
4.94103e-08
2.37954e-06
4.80855e-08
2.37836e-06
4.66087e-08
2.37675e-06
4.49907e-08
2.37472e-06
4.32428e-08
2.37231e-06
4.13784e-08
2.36956e-06
3.94137e-08
2.36653e-06
3.7367e-08
2.36325e-06
3.52572e-08
2.3598e-06
3.3101e-08
2.35621e-06