/*--------------------------------*- C++ -*----------------------------------*\
  =========                 |
  \\      /  F ield         | OpenFOAM: The Open Source CFD Toolbox
   \\    /   O peration     | Website:  https://openfoam.org
    \\  /    A nd           | Version:  6
     \\/     M anipulation  |
\*---------------------------------------------------------------------------*/
FoamFile
{
    version     2.0;
    format      ascii;
    class       volVectorField;
    location    "0";
    object      U;
}
// * * * * * * * * * * * * * * * * * * * * * * * * * * * * * * * * * * * * * //

dimensions      [0 1 -1 0 0 0 0];

internalField   nonuniform List<vector> 
918
(
(0.985886 0.00386221 0)
(-0.00404101 2.96742 0)
(0.000695332 1.6603 0)
(0.980891 -0.00216358 0)
(-0.00568982 1.63166 -7.58922e-22)
(0.00137906 2.951 -1.41828e-18)
(0.838775 1.14663 5.00697e-19)
(0.508157 0.234808 -5.90586e-21)
(0.999955 -0.000376988 0)
(0.0672877 1.3731 0)
(-0.0143478 1.43164 0)
(0.843921 -0.00576732 0)
(0.00894291 2.93453 0)
(0.00360161 2.79697 0)
(-0.00204748 3.20232 7.80082e-19)
(-0.00522778 1.54456 -1.1717e-20)
(0.60368 0.102676 3.66719e-19)
(0.249416 1.36577 3.59479e-19)
(0.96669 0.00757611 0)
(0.00698999 1.53326 0)
(0.223894 0.277143 -3.1688e-19)
(1.00124 -0.00518344 0)
(1.00132 -0.00865456 0)
(0.97703 -0.00538545 0)
(0.766044 -0.0142947 0)
(0.0308783 2.63558 0)
(-0.0110441 2.91549 4.77404e-19)
(-0.00926499 1.68419 0)
(-0.0103843 1.7685 0)
(-0.0102634 1.68243 0)
(0.00225313 1.79912 0)
(0.00394816 1.64441 5.94195e-22)
(-0.00546969 1.5568 0)
(-0.0197867 2.98959 -4.9834e-23)
(-0.0137581 3.00796 1.11644e-18)
(0.00163349 2.99971 0)
(0.887443 -0.00636328 0)
(0.354387 0.887971 -1.64753e-21)
(0.841103 1.15806 -7.06642e-19)
(0.979872 1.01976 6.61558e-19)
(0.711409 1.2369 -1.15842e-19)
(0.684102 1.23715 6.50195e-19)
(0.547556 0.306305 5.75994e-21)
(0.541599 0.206044 0)
(1.21014 0.558254 0)
(0.498306 0.324121 2.64193e-20)
(0.47148 0.242787 -2.74219e-20)
(0.92415 -0.00200917 0)
(1.00043 0.000158978 0)
(0.999962 0.00031184 0)
(1.00428 -0.00704586 0)
(1.00037 -0.000448549 0)
(1.00007 4.37859e-05 0)
(0.0467105 1.57964 -3.90209e-19)
(0.0313146 1.52412 0)
(0.0942654 1.39868 0)
(0.0248773 1.54105 0)
(0.0393287 1.38571 0)
(0.00650503 1.59724 0)
(-0.0225188 1.55833 0)
(-0.0127649 1.41278 0)
(-0.0190119 1.59071 0)
(-0.014245 1.46156 0)
(0.917939 0.00456505 0)
(0.913833 0.00493037 0)
(0.85764 -0.000310766 0)
(0.908092 0.00934849 0)
(0.82916 -0.00242218 0)
(0.0137562 3.00357 5.12148e-19)
(0.011598 3.00447 0)
(0.00741421 3.00384 0)
(0.0107189 2.9981 5.734e-24)
(0.00622483 2.96187 -7.70638e-19)
(0.0118618 2.98428 0)
(0.0083982 2.90889 0)
(0.0222831 2.93294 1.05314e-24)
(0.00443672 2.82728 0)
(0.0265859 2.9189 0)
(-0.00179153 2.74555 0)
(0.309394 3.60439 0)
(-0.127886 3.68673 0)
(0.14875 3.2931 -7.22885e-19)
(0.00605484 3.02394 0)
(0.00582322 1.7718 0)
(-0.00226862 1.65017 1.15569e-20)
(-0.002785 1.55141 -1.79726e-20)
(0.672517 0.154396 -1.25852e-19)
(0.621814 0.0548254 -1.20294e-19)
(0.634176 0.193424 -3.77248e-19)
(0.594942 0.132128 -2.51913e-19)
(0.270095 1.18594 0)
(0.188582 1.3875 -3.98775e-19)
(0.395412 1.29376 6.67655e-19)
(0.989557 0.0102795 0)
(0.94854 0.01039 0)
(0.999813 0.000840301 0)
(1.00366 0.00776587 0)
(1.00321 0.00963794 -6.6091e-19)
(0.992913 0.00646741 5.06348e-19)
(-0.0028547 1.63687 0)
(0.00348431 1.53774 0)
(-0.0118703 1.69282 0)
(-0.00786191 1.65124 0)
(0.00611318 1.54141 0)
(0.256316 0.303008 9.69979e-20)
(0.310508 0.274426 0)
(0.993428 -0.00618311 0)
(0.95685 -0.00347344 0)
(0.881948 0.0265737 0)
(0.846699 0.035792 0)
(0.799859 0.00913805 0)
(1.04054 0.00464598 0)
(0.80573 0.0275724 0)
(0.692159 -0.0380036 4.7996e-19)
(-0.0335244 2.86739 2.84481e-19)
(0.0366603 2.91282 0)
(0.045884 2.88951 0)
(0.0050393 2.69916 0)
(-0.0079126 2.98757 4.4487e-19)
(-0.012461 2.89912 0)
(-0.00978976 2.99233 -1.39597e-18)
(-0.00966945 2.93204 4.80235e-19)
(-0.00570669 1.81009 0)
(-0.00352125 1.80535 0)
(0.00077829 1.65582 -2.22431e-22)
(0.00440221 1.64259 0)
(-0.00441627 1.54427 0)
(0.942977 -0.000554342 0)
(0.885029 0.00253476 0)
(0.872655 0.000964526 0)
(0.944698 -0.00229341 0)
(0.891581 -0.0028444 0)
(0.482985 1.07799 -5.01433e-21)
(0.524576 1.15395 0)
(0.313891 0.818831 6.15227e-21)
(0.24238 0.696217 0)
(0.957007 1.05243 -1.94635e-19)
(1.08958 0.866717 3.95831e-19)
(0.388856 1.3279 0)
(0.555432 1.30675 0)
(0.53532 1.27991 0)
(0.134827 -0.0828508 -5.59639e-20)
(0.580469 0.287942 0)
(0.572857 0.193847 7.32239e-20)
(1.04958 0.916797 0)
(1.1275 0.759282 0)
(1.1575 0.698248 -3.42868e-19)
(1.1965 0.609292 0)
(1.24917 0.408314 3.49692e-20)
(0.954749 -0.00308367 0)
(0.959905 -0.00441987 0)
(0.909245 -0.00435508 0)
(0.986831 -0.0046497 0)
(0.976561 -0.00317067 0)
(0.943383 -0.00211081 0)
(0.999908 0.00247819 0)
(1.0006 0.00112332 0)
(1.00012 0.000623181 0)
(0.027966 1.66684 2.12924e-19)
(0.0766447 1.54672 0)
(0.0113079 1.70123 3.38934e-19)
(0.0216166 1.59392 -2.87376e-19)
(0.0640758 1.44641 -2.99466e-19)
(0.024347 1.50421 0)
(0.123165 1.36708 0)
(0.00125819 1.55629 0)
(0.0208381 1.36836 0)
(0.00382936 1.67383 -8.27107e-22)
(0.00884141 1.5871 0)
(-0.00062278 1.69075 -4.12949e-20)
(-0.00606244 1.59935 7.9036e-20)
(0.00689492 1.54938 0)
(-0.013399 1.54682 0)
(0.006972 1.38977 0)
(-0.0177676 1.61456 0)
(-0.00879916 1.48646 0)
(0.981574 0.0176176 0)
(0.935939 0.0101972 0)
(0.965664 0.00961043 0)
(0.908812 0.00369293 0)
(0.862739 -0.00723386 0)
(0.932558 0.00190865 0)
(0.925838 0.0105831 0)
(0.860037 0.00270632 0)
(0.00953742 3.0648 -4.40106e-21)
(0.0132335 3.05714 0)
(0.0122594 2.9723 0)
(0.00747505 2.88091 0)
(0.90488 4.0078 0)
(1.20643 3.38105 7.46331e-19)
(0.0805253 3.10564 0)
(-0.0161444 2.92561 0)
(-0.00724793 1.79684 0)
(-0.00440354 1.77838 0)
(-0.000570281 1.78326 0)
(0.00268931 1.78488 2.43794e-21)
(0.00117569 1.77456 0)
(0.00784539 1.77699 0)
(-0.00269429 1.5579 2.79851e-21)
(-0.00240012 1.66899 2.41399e-20)
(-0.00292119 1.66261 1.83584e-20)
(-0.00354766 1.55467 0)
(0.693193 0.128237 1.83335e-19)
(0.664183 0.0497462 -1.78457e-19)
(0.229012 1.31054 0)
(0.321181 1.01467 -1.83361e-19)
(0.169292 1.42638 -5.42815e-19)
(0.207092 1.34068 5.42323e-19)
(0.912402 0.0138639 0)
(0.972231 0.0163374 0)
(0.977433 0.011307 0)
(0.933557 0.0115292 0)
(-0.0166863 1.62689 0)
(-0.00605567 1.63389 0)
(-0.00442879 1.50913 0)
(0.461651 0.346539 2.41712e-19)
(0.388696 0.316338 -2.93108e-19)
(0.394333 0.252528 0)
(1.15858 0.0873927 -4.01076e-21)
(1.1458 0.0377838 0)
(1.07164 0.0373038 0)
(0.986263 -0.00254395 0)
(0.717891 0.092158 0)
(0.752381 0.0367926 -7.78843e-19)
(0.672054 0.0205242 3.03839e-19)
(0.0110959 2.98241 3.40986e-19)
(-0.0273199 2.86818 3.31061e-20)
(0.00627755 3.05038 -9.46125e-21)
(0.0156762 3.04092 3.5873e-19)
(-0.00962721 3.00016 1.59652e-20)
(-0.00866516 2.95398 -6.50946e-23)
(-0.015151 3.0128 -3.04152e-19)
(0.0127574 3.02357 2.16086e-19)
(0.00608102 3.03231 -3.47047e-19)
(0.961439 0.00827236 0)
(0.954162 0.00671481 0)
(0.894157 0.00578046 0)
(0.960704 0.0148578 0)
(0.943385 0.0151328 0)
(0.882166 0.0133811 0)
(0.933821 -0.00327616 0)
(0.932084 -0.000910982 0)
(0.862684 -0.00943165 0)
(0.662651 1.39383 1.80418e-19)
(0.687538 1.512 0)
(0.211863 0.293432 1.62047e-20)
(0.152468 0.482008 1.8072e-19)
(0.19976 0.63859 -9.77614e-20)
(0.208113 0.53687 1.94098e-19)
(0.385899 0.604269 4.07892e-19)
(0.165288 0.0702665 1.9342e-19)
(0.627469 0.220661 2.72779e-19)
(0.60759 0.248934 6.71283e-20)
(0.584359 0.152459 1.38759e-19)
(1.23661 0.459717 2.16712e-19)
(1.26159 0.250048 2.26262e-19)
(-0.00302141 1.70592 1.33179e-19)
(-0.00112371 1.59039 0)
(1.02597 0.0239294 0)
(0.999218 0.0156668 0)
(0.956931 -0.00284546 0)
(0.0106988 3.07209 0)
(0.0173614 2.94603 6.11385e-19)
(0.0141672 2.95876 0)
(0.00608024 2.85402 -6.07958e-19)
(0.00873043 3.0888 1.44403e-19)
(0.0108152 3.08012 0)
(0.705101 1.81152 -1.58639e-19)
(1.2511 2.61162 5.25373e-19)
(0.689059 1.98616 -1.10124e-18)
(0.022705 2.9849 -2.63872e-19)
(0.0415965 3.0124 0)
(-0.0317104 2.88472 0)
(-0.0126342 1.67636 -5.93337e-21)
(-0.00525711 1.67379 -5.55522e-20)
(-0.00865545 1.57717 -3.57664e-21)
(0.282137 1.21514 5.95491e-19)
(0.338141 0.828334 -4.00362e-19)
(0.0431148 1.62772 3.56314e-19)
(0.0882551 1.5456 -4.32518e-19)
(0.125142 1.46884 5.37266e-20)
(0.00712628 3.11658 -8.20899e-19)
(0.0198722 3.11647 9.03653e-19)
(-0.004312 2.98194 3.98094e-19)
(0.000521979 2.97825 -3.65621e-19)
(-0.0153085 2.88376 -4.0557e-19)
(0.0124248 3.09526 -1.05978e-18)
(0.00497223 3.10523 1.05292e-18)
(0.259317 0.506766 0)
(0.0922977 0.429528 -1.54092e-19)
(0.165814 -0.0236385 6.57243e-20)
(0.38808 0.751774 5.23443e-19)
(0.317865 0.280388 -8.00305e-19)
(1.24096 0.172469 -4.47861e-20)
(1.25619 0.31014 0)
(1.23667 0.119284 8.93009e-20)
(-0.0042009 1.67521 -1.04856e-21)
(-0.0139345 1.68702 0)
(-0.00286641 1.57572 0)
(0.315991 1.05734 -2.0901e-19)
(0.355631 0.94553 -4.52041e-19)
(0.314742 0.575303 7.53647e-19)
(1.00374 -0.00866813 0)
(1.00603 -0.0074962 1.21557e-19)
(-0.00530328 1.80312 0)
(-0.00942022 1.80872 0)
(1.00211 0.00274085 8.80598e-22)
(1.00318 0.00884592 2.47427e-19)
(0.00278167 1.78768 -3.18207e-21)
(0.00230987 1.78782 0)
(0.0515006 3.18415 1.37437e-19)
(0.382137 3.55242 0)
(1.07156 0.682583 4.80169e-20)
(1.01003 0.00764748 -1.34948e-21)
(1.00889 -0.0189312 0)
(1.00114 0.000486042 1.76719e-22)
(-0.0499841 1.71398 0)
(0.0230113 1.87481 0)
(-0.0235563 1.7915 0)
(0.0140733 1.80962 5.88461e-20)
(-0.0132602 1.80264 2.84994e-20)
(1.00502 0.00897706 1.35635e-21)
(1.04618 0.0165556 0)
(1.07766 0.0281091 0)
(-0.00870341 1.78181 0)
(-0.00599216 1.79822 0)
(-0.0090672 1.79526 0)
(-0.00369274 1.44048 -2.81084e-19)
(1.01042 -0.00815528 0)
(1.01298 -0.0149039 0)
(1.00343 -0.000144092 1.53061e-19)
(1.00538 -0.00553442 -1.83017e-19)
(1.00102 -0.00122958 0)
(-0.0109493 1.78628 0)
(-0.00618653 1.79836 0)
(-0.0067928 1.79285 0)
(-0.00669229 1.79796 0)
(-0.00627186 1.79534 0)
(-0.00694451 1.79792 0)
(1.02034 0.0112216 0)
(1.02464 0.00454738 -5.07409e-22)
(0.735218 1.25497 3.55942e-19)
(1.00235 -6.85236e-05 -1.51851e-19)
(1.00283 0.00341178 1.8597e-19)
(1.00105 0.00192198 0)
(1.00947 0.00810098 1.51444e-19)
(1.00776 0.00930408 -1.83834e-19)
(1.00817 0.00858278 0)
(-0.00564351 1.79807 0)
(0.00153042 1.79105 9.89576e-21)
(-0.000328555 1.79221 -6.98633e-21)
(1.17423 0.270993 -6.72831e-20)
(1.11319 0.081101 0)
(0.062109 3.0861 -4.1871e-19)
(0.0539874 2.86387 -3.17874e-20)
(0.125925 3.20323 5.4522e-19)
(0.124766 3.21957 -5.07753e-20)
(0.156384 3.26349 0)
(0.0235782 3.13798 1.01706e-19)
(0.0755396 3.16249 4.10887e-19)
(0.0717976 3.18555 -1.95192e-19)
(0.0299247 3.12587 0)
(0.707345 0.355954 0)
(0.617938 0.396643 0)
(1.07606 0.713114 -1.78338e-19)
(1.02801 0.865761 2.68848e-19)
(1.10732 0.588858 0)
(1.13821 0.547955 0)
(1.01159 0.0067936 -2.86874e-19)
(1.00863 0.00659387 3.55782e-19)
(1.00893 -0.0199337 0)
(1.0079 -0.0195842 0)
(1.01128 -0.00364852 0)
(1.01299 0.000688006 0)
(1.00362 0.00339568 0)
(1.00868 0.00737018 0)
(1.00728 0.00501953 0)
(1.00375 0.00503236 0)
(-0.0306054 1.73178 0)
(-0.029849 1.75479 0)
(-0.0676318 1.70393 0)
(-0.0910968 1.66404 0)
(0.0267559 1.87931 0)
(0.0628683 1.86666 -2.21564e-19)
(0.0122974 1.87215 0)
(0.0030767 1.85518 1.05744e-19)
(-0.0221697 1.82428 -1.08887e-19)
(-0.0262818 1.79045 0)
(-0.0269363 1.78963 0)
(-0.0141587 1.79585 0)
(-0.00981901 1.79626 0)
(-0.00697482 1.80625 -3.03339e-20)
(-0.00586409 1.80417 3.8648e-20)
(0.0107086 1.81195 4.86859e-20)
(0.00417117 1.80741 0)
(-0.0118408 1.80724 -6.40727e-20)
(-0.010629 1.80517 -3.77808e-20)
(-0.00489568 1.806 2.41066e-20)
(-0.0106487 1.80117 -5.01863e-20)
(-0.00384872 1.80916 -6.09272e-20)
(1.01004 0.0143393 2.69372e-19)
(1.00778 0.00285522 -3.41549e-19)
(1.00715 0.0185932 -2.81636e-19)
(0.992069 0.0201825 3.6085e-19)
(1.03972 0.0167436 0)
(1.04326 0.010416 0)
(1.06393 0.0337737 0)
(1.04645 0.0192451 0)
(1.06079 0.0096616 0)
(1.10051 0.0652091 0)
(1.07635 0.0424458 0)
(1.09982 0.0429991 0)
(-0.00117345 1.7833 -1.0439e-21)
(-0.00792033 1.7762 0)
(-0.0048876 1.77726 0)
(-0.00618819 1.80093 1.02957e-20)
(-0.00384515 1.79999 -5.13133e-22)
(-0.0130153 1.78059 1.07266e-20)
(-0.0111113 1.7854 -1.08093e-20)
(-0.0092257 1.79417 0)
(-0.00844296 1.79537 0)
(-0.0104715 1.79676 0)
(-0.0104388 1.79483 0)
(-0.0109594 1.79837 0)
(0.151882 1.35412 5.83178e-19)
(0.281114 1.32306 2.13736e-19)
(0.394482 2.01231 -1.45356e-19)
(0.254209 1.85172 3.33006e-19)
(-0.145152 2.36433 2.9563e-20)
(1.01039 -0.017643 0)
(1.01487 -0.0145984 0)
(1.01232 -0.0192419 0)
(1.00997 -0.00291962 0)
(1.00473 -0.00118376 0)
(1.00555 -0.00383259 0)
(1.00874 -0.00475294 0)
(1.00787 -0.0087043 0)
(1.02511 0.00487958 2.62381e-19)
(1.02137 0.00928956 -3.37374e-19)
(1.02448 0.00388559 -2.5444e-19)
(1.02152 0.00433588 3.21663e-19)
(0.747855 1.28074 0)
(0.606653 1.34576 4.36695e-19)
(0.850079 1.17821 2.409e-19)
(0.878678 1.1672 -3.21474e-19)
(1.13075 2.59194 -2.65908e-19)
(0.811857 0.115589 1.88352e-19)
(1.117 0.091756 0)
(1.16874 0.180955 6.03004e-20)
(1.1508 0.146544 2.92436e-21)
(0.97283 0.137328 0)
(0.121291 3.02618 -2.87398e-20)
(0.110034 2.89912 -4.96733e-19)
(0.0506601 2.34074 3.3272e-19)
(0.185783 0.098339 -1.43171e-19)
(0.349882 3.46077 -3.11473e-19)
(0.202366 3.3457 0)
(0.231851 3.40988 4.05542e-19)
(0.238751 3.08331 -1.90924e-19)
(0.283137 3.2096 0)
(0.00678599 3.11945 2.20653e-20)
(0.0190063 3.12855 -2.71407e-19)
(0.0169698 3.12413 3.98709e-19)
(0.0381207 3.13796 0)
(0.0360311 3.15001 0)
(1.22192 2.58523 0)
(0.503641 0.817877 -1.45782e-19)
(0.959842 1.03959 -1.3518e-19)
(0.968761 1.06789 0)
(0.843693 0.934546 4.5641e-20)
(1.01425 0.888962 1.95075e-20)
(0.437425 0.463044 -3.51894e-19)
(0.731932 0.335108 -1.63406e-20)
(0.73803 0.287029 1.44796e-19)
(0.614286 0.432754 1.13519e-20)
(0.55385 0.43098 -4.67867e-19)
(0.706203 0.371268 0)
(0.664207 0.439022 2.42467e-19)
(0.676608 0.445642 0)
(0.66804 0.403689 0)
(0.679458 0.365528 0)
(0.71905 0.628819 8.0484e-20)
(1.16724 0.277195 3.86759e-20)
(1.16763 0.414353 0)
(1.16981 0.394378 0)
(0.790864 0.215695 2.14808e-19)
(0.779962 0.527034 -1.17405e-19)
(0.694732 0.496573 1.94506e-19)
(0.868267 0.416149 -1.74678e-19)
(1.01748 0.0124343 1.81803e-19)
(1.01148 0.0105326 -1.89002e-19)
(1.01187 0.0145247 0)
(1.01743 0.00715905 0)
(1.01114 -0.0100979 -1.67576e-19)
(1.00502 -0.00977917 1.66519e-19)
(1.02752 0.00751291 0)
(1.025 0.00528281 0)
(1.016 0.0043644 0)
(1.01814 0.0109264 0)
(1.02593 0.00263831 0)
(1.01955 -0.000879055 0)
(-0.0253605 1.76625 0)
(-0.0251546 1.7685 0)
(-0.100545 1.72688 5.33681e-20)
(-0.0350485 1.51497 1.19281e-19)
(-0.0825972 1.64707 2.34681e-19)
(-0.0805281 1.55786 -3.8984e-19)
(-0.15841 1.70734 0)
(-0.133247 1.87688 -5.84643e-20)
(-0.091611 1.86262 0)
(-0.142595 2.33767 -4.16292e-20)
(-0.00624436 2.20627 2.91133e-19)
(-0.180806 1.90535 5.18799e-20)
(-0.176422 1.59094 8.67401e-20)
(-0.181679 1.67821 -6.93145e-20)
(-0.226249 1.59057 2.25632e-19)
(-0.199391 2.00411 0)
(-0.206776 2.0486 -1.24775e-19)
(-0.0345887 1.81512 -2.78692e-20)
(-0.0211449 1.82873 0)
(-0.0242807 1.81564 1.2477e-19)
(-0.03405 1.81647 0)
(-0.00489008 1.84835 -1.178e-19)
(-0.0103108 1.83953 0)
(-0.00670025 1.79834 -2.37444e-20)
(-0.00411792 1.80011 0)
(-0.00923455 1.80152 0)
(-0.00901906 1.80105 2.66167e-20)
(0.0018058 1.8161 1.38937e-21)
(-0.0166361 1.82676 1.31649e-19)
(0.00309618 1.81843 8.54045e-22)
(-0.0124401 1.79464 2.21657e-20)
(-0.012272 1.79543 1.26122e-20)
(-0.0244579 1.79366 0)
(-0.0192014 1.79536 0)
(-0.0190401 1.79885 7.02543e-20)
(-0.0106698 1.79572 4.44219e-20)
(-0.00882648 1.79828 -6.52795e-20)
(-0.0326045 1.80846 0)
(-0.0107934 1.7911 -3.73471e-20)
(-0.00983877 1.80041 1.75681e-20)
(-0.00930918 1.80023 -5.33671e-21)
(-0.0122047 1.79538 -2.72842e-20)
(-0.00664072 1.80346 -9.26566e-21)
(-0.0108206 1.80532 4.3507e-20)
(1.02051 0.00542995 -1.73423e-19)
(1.01225 0.00963289 1.79606e-19)
(1.0135 0.00552717 0)
(0.995063 0.0472163 2.55413e-19)
(0.99009 0.0313798 -3.03283e-19)
(0.965448 0.0317543 3.51949e-19)
(0.98918 0.0920861 -3.38272e-20)
(1.02478 0.0112496 0)
(1.03581 0.0102878 1.51899e-19)
(1.03475 0.00686884 -1.51129e-19)
(1.03268 0.0402484 -8.15101e-21)
(1.03317 0.0256832 7.15614e-20)
(1.01085 0.0466989 0)
(1.00516 0.0431345 -2.72671e-20)
(1.01051 0.0209085 0)
(1.01648 0.0158721 0)
(1.02548 0.0099103 0)
(1.02234 0.00563101 0)
(1.01696 0.0208159 5.56395e-20)
(1.02325 0.014314 -1.26701e-19)
(1.02204 0.0336098 -5.63605e-20)
(1.01652 0.0383889 -6.58673e-20)
(1.01061 0.0454399 1.14998e-19)
(1.04826 0.0447238 0)
(1.04131 0.0845051 0)
(-0.0114179 1.79111 -1.5173e-20)
(-0.0100056 1.78363 -1.19326e-21)
(-0.0107968 1.7847 0)
(-0.00701454 1.7937 1.5882e-20)
(-0.00574534 1.79051 2.10495e-21)
(-0.00369699 1.7929 -2.55243e-21)
(-0.00691226 1.80592 3.37874e-20)
(-0.00546859 1.80393 -1.93885e-21)
(-0.00553134 1.80272 9.59492e-21)
(-0.00368253 1.80367 -1.70003e-20)
(-0.00471286 1.80347 2.04691e-20)
(-0.0127686 1.78374 5.15606e-22)
(-0.0141207 1.78179 1.58704e-20)
(0.0404376 1.25589 -3.09442e-19)
(-0.171831 1.6306 -4.17281e-19)
(0.612617 1.31803 -4.23753e-19)
(0.451637 1.25714 -2.0555e-19)
(0.48726 1.33923 0)
(0.429078 2.10456 1.43517e-19)
(0.63887 1.97487 2.133e-19)
(0.264281 1.86915 6.31993e-20)
(0.210162 2.16264 -3.07158e-19)
(0.197375 2.261 3.41907e-19)
(0.370912 1.9834 0)
(0.326316 1.87419 -3.2178e-19)
(0.0942178 1.86299 5.82003e-19)
(0.214853 1.849 -4.90829e-20)
(0.154107 1.82699 -7.60419e-19)
(0.915792 2.45376 -7.00525e-20)
(0.822867 2.35497 0)
(1.00939 -0.0098251 6.03954e-21)
(1.00921 -0.0115159 -5.02251e-21)
(1.0073 -0.0136689 -8.79376e-20)
(1.01664 -0.0156513 8.79795e-20)
(1.02132 -0.0134155 0)
(0.718888 1.19114 0)
(0.715098 1.15413 0)
(0.766088 1.07308 0)
(0.685722 1.16059 0)
(1.15248 2.61704 3.54892e-20)
(1.05285 2.32741 0)
(1.00655 2.18777 6.14639e-22)
(0.895978 2.61255 0)
(1.06748 2.63124 3.93562e-20)
(1.0803 2.54969 -2.58455e-20)
(0.819476 0.148047 0)
(0.800561 0.162538 5.41391e-20)
(0.880471 0.12486 2.76758e-19)
(0.851396 0.0961016 -1.13532e-19)
(0.861564 0.0725336 -3.267e-19)
(1.00915 0.219673 -1.60695e-19)
(0.923854 0.245313 -8.8022e-21)
(0.909484 0.263361 2.39804e-19)
(0.963095 0.187183 1.8002e-19)
(0.902696 0.168691 -3.44916e-19)
(0.874944 0.179502 4.51833e-20)
(0.932792 0.242559 -8.33075e-20)
(0.894766 0.191211 0)
(0.978749 0.163937 1.63479e-19)
(1.00109 0.179569 0)
(0.998693 0.193004 0)
(1.04582 0.0959134 4.83086e-20)
(1.01253 0.16205 -7.07878e-21)
(1.00097 0.227018 -2.89547e-20)
(1.03749 0.195036 0)
(1.00769 0.024359 1.34788e-19)
(1.00598 0.0372495 1.59108e-19)
(1.01016 0.02959 -1.32632e-19)
(1.00788 0.0411101 -1.06881e-19)
(0.999211 0.0523239 -1.80951e-19)
(0.95898 0.135872 0)
(0.990375 0.0920386 0)
(0.964792 0.0424159 -1.26925e-19)
(0.923538 0.0559171 5.40708e-20)
(1.003 0.082184 1.53326e-19)
(1.00767 0.0944162 -1.51393e-19)
(1.01505 0.144905 1.41052e-19)
(1.01106 0.131462 0)
(1.02161 0.0791515 0)
(1.01016 0.0704775 -6.41617e-20)
(1.01226 0.0679198 -1.21367e-19)
(0.55888 1.20593 -2.64499e-20)
(0.548611 1.52654 5.76541e-20)
(1.08358 2.76872 1.13942e-20)
(1.16938 3.14138 -5.05432e-20)
(1.2163 2.73141 3.11976e-19)
(1.2602 2.71308 -1.69094e-19)
(1.22473 2.31226 -1.87934e-20)
(1.14918 3.03507 1.30185e-19)
(1.17008 2.97986 -1.09743e-19)
(1.1669 3.28751 -1.76587e-19)
(1.37822 2.99164 2.114e-19)
(1.39633 2.92552 0)
(0.498799 0.85496 -8.24066e-21)
(0.253865 1.28417 1.91036e-19)
(0.48161 0.543658 2.27763e-19)
(0.339621 0.329601 2.70367e-19)
(0.555859 0.450799 2.60533e-19)
(0.537204 0.512197 -4.1178e-19)
(0.537377 0.513454 3.43095e-19)
(0.520852 0.464419 -1.37005e-19)
(0.501478 0.429697 3.13273e-19)
(0.78548 0.256076 -1.18229e-19)
(0.753907 0.289963 0)
(0.75582 0.261305 8.27883e-21)
(0.681994 0.522809 1.23223e-19)
(0.640731 0.487462 -4.57411e-19)
(0.611065 0.499893 1.50679e-20)
(0.62539 0.463929 0)
(0.668079 0.716778 8.55553e-20)
(0.748827 0.769392 4.73923e-20)
(0.701869 0.789415 -5.94388e-20)
(0.78093 0.804442 -1.0502e-20)
(0.877838 0.830569 1.06501e-20)
(0.881018 0.845185 -1.09256e-20)
(0.793087 0.62428 -1.37864e-19)
(0.868172 0.708041 9.78047e-21)
(0.930884 0.709624 0)
(0.934396 0.67779 -3.3259e-21)
(0.955872 0.290064 3.98199e-20)
(1.07557 0.271248 5.55196e-22)
(0.99545 0.243644 6.48031e-20)
(0.92893 0.331266 -9.12732e-20)
(0.963492 0.427535 0)
(1.05328 0.379328 0)
(0.827322 0.366932 2.66339e-21)
(0.8417 0.27777 0)
(0.839218 0.251445 1.2805e-19)
(0.888099 0.264956 3.49198e-21)
(0.8678 0.429326 4.80342e-19)
(0.819222 0.486724 1.1955e-19)
(0.820872 0.449439 -1.55505e-19)
(0.75718 0.425419 1.66191e-19)
(0.736979 0.434883 1.16449e-19)
(0.721366 0.440833 -1.1353e-19)
(1.02099 0.00794145 1.43699e-19)
(1.03003 0.000161537 0)
(1.02542 -0.00497216 9.66334e-20)
(1.01666 -0.00261042 -2.16039e-19)
(1.03446 0.00559841 1.03136e-19)
(1.03049 0.00704323 -2.219e-19)
(1.02704 0.0076262 0)
(1.02229 0.0096151 -4.5108e-20)
(1.02912 0.00480419 1.15293e-19)
(1.02376 0.0104128 -5.89548e-20)
(1.02317 0.0107838 4.25999e-20)
(-0.00385222 1.79844 0)
(-0.0119846 1.80205 0)
(-0.0139479 1.78292 0)
(-0.002236 1.78644 0)
(-0.055001 1.77561 -1.79823e-20)
(-0.0556526 1.75015 3.86602e-21)
(-0.092402 1.84519 -2.11922e-20)
(-0.107404 1.75705 -4.38317e-20)
(-0.0237298 1.79749 -3.52887e-20)
(-0.0355326 1.79451 2.52213e-20)
(-0.0442083 1.78041 -4.04093e-21)
(-0.0309014 1.80036 9.16739e-21)
(-0.0181138 1.79869 9.82332e-22)
(-0.016903 1.80002 -3.27935e-21)
(-0.0235298 1.82893 -1.32726e-19)
(-0.0143959 1.85098 0)
(-0.0413123 1.84173 7.85105e-20)
(-0.0517359 1.84264 5.04362e-20)
(-0.061058 2.02401 -4.89445e-20)
(0.061968 1.95596 0)
(0.0328046 2.00325 -3.27569e-19)
(0.0331314 2.12068 2.25352e-19)
(-0.0208108 1.93542 -1.50832e-19)
(-0.042235 1.88269 8.20781e-20)
(-0.00609937 1.89224 0)
(-0.0163905 1.80396 -8.94134e-20)
(-0.00917147 1.80902 -1.18183e-19)
(-0.00832992 1.80736 0)
(-0.0151256 1.81666 -2.76345e-21)
(-0.0295937 1.81558 4.46918e-20)
(-0.0220225 1.79448 3.3428e-21)
(-0.0249855 1.7929 -6.00852e-20)
(-0.0254989 1.78769 1.23769e-20)
(-0.0187931 1.78802 2.55318e-20)
(-0.011225 1.80069 0)
(-0.0224259 1.78547 0)
(-0.0132068 1.79789 1.98451e-20)
(-0.0136372 1.78364 -6.27458e-21)
(-0.0214338 1.78531 0)
(-0.0191178 1.79755 1.58676e-20)
(-0.0140529 1.79935 -3.02487e-20)
(1.02443 0.0195054 0)
(1.0264 0.017254 -1.37941e-20)
(1.02283 0.0131909 -1.01419e-19)
(1.0237 0.0177024 0)
(1.02429 0.0227427 0)
(1.02479 0.0086578 -3.48778e-21)
(1.02519 0.00972576 1.68734e-19)
(1.0217 0.00899279 2.07957e-19)
(1.0212 0.00824155 0)
(1.01864 0.00792067 0)
(1.02025 0.0132531 1.03768e-19)
(1.01822 0.0116853 0)
(1.01928 0.0111478 0)
(-0.0100533 1.7925 0)
(-0.0137829 1.78091 1.42347e-21)
(-0.0139997 1.78421 8.74111e-21)
(-0.0126303 1.78389 0)
(-0.0130191 1.78201 1.20673e-20)
(-0.010815 1.78326 -5.57802e-21)
(-0.0105389 1.78226 0)
(0.323235 2.38325 0)
(-0.231253 1.79454 8.45594e-19)
(-0.078397 2.27425 0)
(0.20285 1.25387 -1.10748e-18)
(0.371706 1.03237 0)
(0.228874 1.18662 4.84987e-19)
(1.10004 2.77242 1.18839e-21)
(0.940764 2.48816 8.62379e-20)
(0.787082 2.16883 1.37543e-19)
(0.894808 2.39989 8.25337e-20)
(1.00017 2.60898 0)
(1.01185 2.56365 0)
(0.885226 2.43783 0)
(0.917137 2.36385 -2.58592e-19)
(0.521708 2.71362 4.6489e-20)
(0.878539 2.67529 9.36047e-21)
(0.88523 2.64443 -7.67001e-21)
(0.577336 2.24816 0)
(0.775263 2.35255 0)
(0.735204 2.20381 -1.90799e-19)
(0.73985 2.66608 0)
(0.581343 1.10313 0)
(0.482512 0.90853 -3.27791e-20)
(0.499569 0.968145 -1.04437e-21)
(0.460038 1.08884 0)
(0.472318 1.03879 5.47477e-20)
(0.74932 0.837156 9.74076e-21)
(0.776535 0.979897 0)
(0.751367 0.947002 -5.10615e-20)
(0.600264 1.02502 0)
(0.609537 0.924727 0)
(1.13673 2.75126 -8.27154e-22)
(1.11018 2.82569 1.49002e-20)
(0.897071 2.33931 -7.27559e-20)
(0.898851 2.29712 -9.9181e-23)
(1.11339 2.73989 0)
(1.09929 2.69881 -9.20683e-22)
(1.0553 2.47049 -8.67873e-20)
(0.933244 2.15618 -1.91303e-20)
(0.786462 1.51138 0)
(0.680746 1.15885 2.32331e-20)
(0.693174 1.17913 0)
(0.841629 0.201811 0)
(0.812907 0.171618 0)
(0.785405 0.188713 0)
(0.837192 0.201526 -2.02993e-19)
(0.800516 0.206747 1.23968e-19)
(0.924469 0.0546591 -1.09157e-19)
(0.927971 0.0984604 0)
(0.897588 0.102636 5.11162e-20)
(0.884083 0.0626752 2.04094e-19)
(0.889469 0.0594462 -1.26778e-19)
(1.10052 3.37628 -6.3957e-19)
(1.16417 3.30327 0)
(1.12222 3.44989 -1.3693e-18)
(0.65704 3.59772 1.16894e-18)
(0.986453 3.09849 2.99802e-19)
(0.508093 0.833348 1.29803e-19)
(0.46502 0.826239 0)
(0.396562 0.549715 -5.12853e-20)
(0.410922 0.672824 2.3786e-19)
(0.498012 0.534843 -7.39291e-20)
(0.493252 0.549123 8.0941e-20)
(0.612162 0.53387 1.65447e-19)
(0.63045 0.572033 0)
(0.577819 0.608785 0)
(0.537263 0.554535 0)
(0.914589 0.576859 -3.20872e-20)
(0.85547 0.525484 -1.14286e-19)
(0.886349 0.568501 4.31948e-20)
(0.907995 0.483117 -8.42424e-20)
(0.991951 0.464083 0)
(0.988841 0.566702 -2.73987e-21)
(0.795977 0.374968 -2.53043e-19)
(0.80457 0.352228 -3.06647e-19)
(0.782588 0.394161 1.97205e-19)
(0.786786 0.342752 -2.29577e-19)
(0.831935 0.287914 -1.63173e-19)
(0.814678 0.289353 2.0354e-19)
(1.03337 0.00725239 -1.05929e-19)
(1.0328 0.00921993 2.19676e-19)
(1.02323 0.0131445 1.36682e-19)
(1.0275 0.0161615 -1.63966e-19)
(1.02452 0.0221216 0)
(1.02732 0.0124508 -2.68014e-19)
(-0.031162 1.81163 1.65352e-20)
(-0.0411091 1.81071 0)
(-0.0376941 1.81179 1.3928e-19)
(-0.0386336 1.83397 -1.28767e-19)
(-0.074312 1.83453 3.83667e-20)
(-0.0630276 1.82374 0)
(-0.0137827 1.79232 0)
(-0.0149705 1.78638 -6.53267e-21)
(-0.0139147 1.78228 5.80035e-21)
(-0.0129838 1.78202 1.34622e-21)
(-0.0106884 1.7908 -1.20082e-20)
(-0.0112316 1.79262 7.4903e-21)
(0.875056 1.51792 5.00661e-19)
(0.805525 1.65536 -5.19647e-19)
(0.411574 1.30521 5.8093e-19)
(0.54938 1.76412 -3.73562e-20)
(0.752496 1.11393 0)
(0.561265 1.04089 4.38708e-19)
(0.615386 1.13136 -4.2274e-19)
(0.512455 0.9356 -5.67642e-19)
(0.790335 1.02966 0)
(0.771996 1.15965 0)
(0.356554 2.68435 -7.12408e-20)
(0.494634 2.54154 5.61505e-19)
(0.605638 2.59761 -3.80271e-19)
(0.388446 2.54007 -1.20903e-19)
(0.109429 2.61115 1.33379e-19)
(0.161101 2.44565 -3.86102e-19)
(0.929364 2.35573 -8.3279e-20)
(0.971557 2.35572 0)
(0.827373 2.07347 -2.14043e-19)
(1.08645 2.68598 0)
(1.06348 2.70104 0)
(0.609433 2.34731 2.1507e-19)
(1.08519 3.10877 2.7174e-19)
(0.95122 2.9926 -3.00837e-19)
(0.353158 0.955253 0)
(0.368172 0.853814 -8.38698e-20)
(0.52506 0.756637 -4.25494e-20)
(0.393123 2.1826 0)
(0.425712 2.78805 -2.14601e-19)
(0.429447 2.53802 0)
(0.664149 0.676439 -1.79842e-19)
(0.722227 0.680565 2.56607e-19)
(0.715728 0.631566 -2.57261e-19)
(0.605669 0.64466 -2.78227e-20)
(0.660728 0.607011 -1.19777e-19)
(0.941207 2.78684 -2.05246e-19)
(0.995669 2.84635 1.66905e-19)
(0.560996 2.25341 -7.83903e-20)
(0.616261 1.83975 2.4216e-20)
(0.64294 1.9669 1.768e-21)
(0.940676 2.46569 -8.4388e-20)
(0.942007 2.4689 -2.48869e-20)
(0.652767 1.90381 -5.09426e-23)
(0.407624 1.40376 -1.71485e-20)
)
;

boundaryField
{
    wall-4
    {
        type            noSlip;
    }
    velocity-inlet-5
    {
        type            fixedValue;
        value           uniform (1 0 0);
    }
    velocity-inlet-6
    {
        type            fixedValue;
        value           uniform (0 3 0);
    }
    pressure-outlet-7
    {
        type            zeroGradient;
    }
    wall-8
    {
        type            noSlip;
    }
    frontAndBackPlanes
    {
        type            empty;
    }
}

