/*--------------------------------*- C++ -*----------------------------------*\
  =========                 |
  \\      /  F ield         | OpenFOAM: The Open Source CFD Toolbox
   \\    /   O peration     | Website:  https://openfoam.org
    \\  /    A nd           | Version:  6
     \\/     M anipulation  |
\*---------------------------------------------------------------------------*/
FoamFile
{
    version     2.0;
    format      ascii;
    class       volVectorField;
    location    "0";
    object      U;
}
// * * * * * * * * * * * * * * * * * * * * * * * * * * * * * * * * * * * * * //

dimensions      [0 1 -1 0 0 0 0];

internalField   nonuniform List<vector> 
13046
(
(-0.326945 0.096786 0)
(-0.713294 -0.335119 -3.79169e-21)
(-0.185826 -0.179774 -7.66793e-21)
(-0.326725 -0.00242814 0)
(-0.107124 -0.100804 -7.28781e-21)
(-0.59738 -0.333387 0)
(-0.370223 0.0236821 1.17705e-21)
(-0.67932 -0.383987 1.86988e-21)
(-0.0723663 -0.0846535 -7.8561e-21)
(-1.08385 0.466793 2.84662e-21)
(-1.44229 -0.714818 0)
(0.074299 -0.00306968 4.51126e-21)
(-0.472007 0.145625 -3.76139e-21)
(-0.89182 -0.440465 -5.37842e-21)
(-0.0784994 -0.126494 4.06119e-21)
(-1.00412 0.516834 -3.95204e-21)
(0.0177989 -0.0280917 1.07084e-20)
(-1.49707 -0.623089 7.46691e-22)
(-0.13855 -0.0301995 0)
(-0.41971 -0.280431 -3.99072e-21)
(-0.40388 -0.124936 1.22568e-20)
(-1.01967 0.507701 -1.58193e-21)
(0.0340654 -0.019869 -1.43164e-20)
(-1.4882 -0.643885 0)
(-0.269826 0.0144771 4.84216e-21)
(-0.569499 -0.283089 -9.44936e-21)
(-0.185886 -0.163274 0)
(-0.485699 0.180069 -6.77837e-21)
(-0.928338 -0.438911 1.60503e-21)
(-0.0972218 -0.141124 -7.11916e-21)
(-0.335568 0.121373 0)
(-0.74448 -0.322276 0)
(-0.21125 -0.201254 7.80331e-21)
(-0.243446 -0.0177565 -5.62584e-21)
(-0.21221 -0.167997 2.72982e-21)
(-0.490232 -0.242559 1.64696e-20)
(-0.255296 -0.0450458 -8.6185e-21)
(-0.203508 -0.145536 4.23227e-21)
(-0.452034 -0.235006 -8.38314e-21)
(-0.240842 0.122545 5.8534e-21)
(-0.451977 -0.365968 1.36776e-21)
(-0.675848 -0.208052 -5.93306e-21)
(-0.294577 -0.122508 3.86869e-21)
(-0.230189 -0.121556 6.48042e-21)
(-0.326402 -0.183772 0)
(-0.318788 -0.114283 2.54897e-21)
(-0.184108 -0.0919544 -9.99376e-21)
(-0.363518 -0.21614 -1.23148e-21)
(-0.351268 0.0901358 0)
(-0.736508 -0.361368 -2.65914e-22)
(-0.135646 -0.152489 -7.81323e-23)
(-0.717844 -0.560384 8.15446e-21)
(-0.196105 0.137651 0)
(-0.709405 -0.109164 -6.97169e-21)
(-0.808806 -0.620399 -1.16253e-20)
(-0.707566 -0.0775092 -1.13299e-20)
(-0.160738 0.11787 8.57248e-21)
(-1.32717 -0.444939 -9.22427e-22)
(-0.759831 0.450581 0)
(-0.20437 -0.210035 5.96866e-21)
(-0.694838 0.171583 -3.61247e-21)
(-1.1062 -0.650084 2.7849e-21)
(0.053384 -0.0268137 -1.69413e-20)
(0.0660526 -0.0317888 8.41011e-21)
(-1.41616 -0.703444 -1.04462e-21)
(-0.977516 0.398936 -5.22442e-21)
(-0.706902 0.435171 0)
(-1.26547 -0.394028 0)
(-0.269284 -0.267435 0)
(-0.65867 0.405159 -2.49649e-21)
(-1.21116 -0.37579 0)
(-0.291263 -0.285367 4.75193e-21)
(-1.37886 -0.455483 0)
(-0.806629 0.47795 4.81607e-23)
(-0.183691 -0.197417 -5.69529e-23)
(-0.142053 -0.00721396 0)
(-0.419928 -0.295803 4.27438e-21)
(-0.448733 -0.151118 -8.65799e-21)
(-0.105331 -0.129854 6.51573e-21)
(-0.873661 0.498946 -7.46333e-21)
(-1.43582 -0.513512 0)
(-0.299281 0.0251095 2.57783e-21)
(-0.60965 -0.310938 0)
(-0.1472 -0.136187 0)
(0.0673124 -0.0251728 -7.48493e-21)
(-1.43938 -0.70738 -5.7106e-22)
(-1.01349 0.423912 3.07836e-21)
(-1.01457 0.309767 -5.52995e-21)
(0.0952822 -0.0183483 0)
(-1.36948 -0.804283 -8.69206e-22)
(0.0578091 -0.00843969 0)
(-1.09465 0.233938 0)
(-1.33869 -0.910016 8.78951e-23)
(-0.731146 0.293602 0)
(-0.785484 0.308225 3.13819e-21)
(-1.21228 -0.58435 5.12062e-21)
(-1.25829 -0.624496 -2.36737e-21)
(-0.00456734 -0.0867762 -3.52096e-21)
(0.0248845 -0.0663495 9.07803e-21)
(0.0917489 -0.0157956 -4.32667e-22)
(-1.00324 0.281799 5.41072e-21)
(-1.34581 -0.822749 0)
(-0.320425 -0.0872001 -9.0428e-24)
(-0.154173 -0.0883504 5.15777e-21)
(-0.426016 -0.255303 0)
(-0.07458 0.0622876 0)
(-0.600327 -0.038351 -3.59748e-21)
(-0.780257 -0.553469 0)
(-0.181614 0.1166 9.91097e-21)
(-0.631853 -0.482794 0)
(-0.655945 -0.135163 -1.3667e-20)
(-1.05319 0.478457 0)
(0.0593411 0.0122243 0)
(-1.29751 -0.668192 1.37522e-21)
(-0.415371 0.117073 1.0379e-20)
(-0.82774 -0.405993 2.41414e-21)
(-0.0918509 -0.126985 7.47964e-21)
(-0.801729 0.370688 3.98457e-21)
(-0.743171 0.33011 -7.52877e-21)
(-1.30685 -0.577511 -4.2708e-21)
(-0.029668 -0.0960281 4.01171e-21)
(-1.2412 -0.559247 2.36634e-21)
(-0.0346332 -0.102846 -3.74735e-21)
(-1.08008 0.482475 -1.99439e-21)
(-1.43054 -0.699961 5.01283e-22)
(0.0692725 0.00263661 -2.0109e-21)
(-0.616461 0.244942 0)
(-1.08485 -0.515718 -3.7975e-21)
(-0.0524118 -0.120876 8.51501e-21)
(-0.285194 0.141114 0)
(-0.391298 -0.328966 -6.94735e-21)
(-0.722868 -0.24525 3.44896e-22)
(0.0503453 -0.00196167 0)
(-1.04384 0.209222 0)
(-1.31856 -0.896121 0)
(-0.88479 0.32252 0)
(-1.32648 -0.699386 -5.56341e-21)
(0.0688249 -0.0390371 -9.67221e-21)
(-0.386633 0.147884 0)
(-0.81188 -0.355869 0)
(-0.193139 -0.202057 0)
(-0.507949 0.056504 0)
(-0.85011 -0.518456 0)
(-0.00141169 -0.0288086 0)
(-0.161335 0.111744 0)
(-0.696301 -0.525635 0)
(-0.657488 -0.10775 7.42024e-21)
(-0.073496 0.0503426 -1.00152e-21)
(-0.573933 -0.0461704 -7.88703e-21)
(-0.75802 -0.528351 7.6364e-21)
(-0.739541 0.197954 8.27377e-21)
(-1.15389 -0.667969 0)
(0.0617794 -0.0338122 2.19767e-20)
(-0.0530068 -0.000549941 0)
(-0.473015 -0.0380145 8.44187e-21)
(-0.676092 -0.445752 -1.97897e-21)
(-0.961232 -0.699752 0)
(-0.714979 0.00814925 8.16686e-21)
(-1.03418 -0.732017 0)
(-0.73912 0.0507765 4.72265e-21)
(-0.0717302 0.0725423 0)
(-0.0315042 0.0503846 0)
(-0.549827 0.0185276 1.0985e-21)
(-0.838146 -0.551998 3.91662e-21)
(-0.0116617 0.00519235 -4.34052e-21)
(-1.10404 0.446904 -2.91828e-21)
(0.0825942 -0.00619461 0)
(-1.42023 -0.741668 -3.93297e-22)
(-1.06766 0.483849 -1.58925e-21)
(0.0631128 0.0116168 -9.20462e-22)
(-1.35948 -0.678852 0)
(-0.90718 0.348924 -4.5174e-21)
(-1.3522 -0.69553 0)
(0.0644354 -0.0403493 1.09883e-20)
(-0.381135 0.217602 0)
(-0.859753 -0.268195 1.76223e-21)
(-0.420411 -0.366759 3.94344e-21)
(-0.53482 -0.00414803 7.14869e-21)
(-0.031033 0.0192914 2.12032e-21)
(-0.785811 -0.518635 0)
(0.0933321 -0.0136009 0)
(-1.41181 -0.79392 0)
(-1.1156 0.396133 2.37364e-21)
(-0.33096 0.188509 0)
(-0.797593 -0.243568 -3.93378e-21)
(-0.436877 -0.36392 1.03581e-21)
(-0.048176 0.0140829 0)
(-0.495254 -0.0362635 0)
(-0.69314 -0.465598 0)
(-0.468897 0.0306663 3.53329e-21)
(-0.792269 -0.485627 0)
(-0.0141232 -0.034768 0)
(-0.970194 -0.501144 1.70932e-23)
(-0.0281437 -0.0958675 -5.08069e-21)
(-0.571153 0.214663 1.07181e-20)
(-1.0343 -0.494923 0)
(-0.0557263 -0.118779 -1.06671e-20)
(-1.04058 0.373325 -5.49245e-21)
(0.0922143 -0.0195863 6.83545e-21)
(-1.41475 -0.770499 -3.14512e-21)
(0.0710076 -0.00561837 6.31974e-21)
(-0.996721 0.227373 3.43796e-21)
(-1.31529 -0.858609 4.57581e-21)
(-1.08201 0.281472 -8.86987e-21)
(-1.36651 -0.860548 0)
(0.0859948 -0.0153067 -6.20189e-21)
(-0.76008 -0.614321 -4.10078e-22)
(-0.800081 -0.118298 3.0914e-21)
(-0.2628 0.190599 0)
(-0.448142 0.082634 -1.5916e-20)
(-0.858537 0.511074 3.85307e-21)
(-0.133671 -0.149061 -4.00718e-21)
(-1.43679 -0.500085 0)
(-1.37713 -0.858102 0)
(-1.11294 0.313665 -7.58152e-21)
(0.0907353 -0.0179468 0)
(-0.292281 -0.0516991 -1.27187e-20)
(-0.155798 -0.110483 -4.15714e-21)
(-0.473662 -0.266431 1.22354e-20)
(-0.458823 0.187569 0)
(-0.907725 -0.411509 -2.3616e-22)
(-0.143796 -0.168593 -4.08215e-21)
(0.0573339 -0.000808422 4.88209e-21)
(-1.00459 0.210468 0)
(-1.30504 -0.877166 -5.27476e-21)
(-0.492363 0.11091 1.27352e-20)
(-0.94724 -0.507534 9.56375e-21)
(-0.016119 -0.083613 0)
(0.078269 -0.00185984 0)
(-1.36135 -0.733592 -7.68074e-22)
(-1.11737 0.452685 0)
(-0.219451 0.162164 0)
(-0.775092 -0.0913385 0)
(-0.815487 -0.655455 0)
(-1.03481 0.264613 7.77939e-21)
(-1.35036 -0.844286 0)
(0.0859542 -0.0135394 -3.97156e-23)
(-0.637978 0.0356901 3.1156e-21)
(-0.937241 -0.640896 -2.83866e-21)
(-0.011444 0.0288887 0)
(-0.616111 0.267174 0)
(-1.09555 -0.49815 3.56649e-21)
(-0.0812493 -0.136376 6.68803e-21)
(-1.22015 -0.882096 -7.96451e-21)
(-0.934107 0.118568 -6.23208e-21)
(-0.0117277 0.0370546 3.84858e-21)
(-0.793126 0.0649617 0)
(-1.09089 -0.778824 -3.55111e-21)
(-0.0331332 0.0513925 -1.41917e-22)
(0.0768734 -0.0053683 -5.98116e-21)
(-1.3315 -0.740134 0)
(-1.12968 0.438594 -1.39013e-21)
(-0.259553 0.160848 5.33547e-21)
(-0.565356 -0.45076 -4.9229e-21)
(-0.734025 -0.184359 5.75386e-22)
(-0.973545 0.513101 1.40361e-21)
(0.0447809 0.0279673 -8.60903e-21)
(-1.3054 -0.586237 0)
(-0.119261 -0.0506852 -2.46813e-21)
(-0.370723 -0.0936793 -9.903e-21)
(-0.464989 -0.296728 1.19522e-20)
(-0.629782 0.085715 3.74118e-21)
(-0.608914 0.0445951 3.78015e-23)
(-0.985643 -0.628137 -7.03719e-21)
(-0.92126 -0.614385 0)
(0.000774269 0.0140583 3.94551e-21)
(0.0275646 -0.00398069 -4.0424e-21)
(-0.0742052 -0.101625 -8.5287e-21)
(-0.909672 0.511795 3.99983e-21)
(-1.47247 -0.531727 -2.74238e-21)
(-0.568039 0.257189 0)
(-1.04763 -0.455819 0)
(-0.130028 -0.165543 -8.77194e-21)
(-0.84023 0.100484 -1.66966e-21)
(-1.14781 -0.816015 0)
(-0.00802133 0.0378388 0)
(-0.848293 0.352228 -3.84468e-21)
(-1.32244 -0.635064 0)
(0.0267484 -0.0633227 3.94641e-21)
(-0.257338 -0.101827 2.57173e-21)
(-0.338891 -0.17055 3.76337e-21)
(-0.255151 -0.147093 -1.29088e-21)
(-0.707991 0.0688942 -6.01086e-21)
(-1.0301 -0.704962 0)
(-0.000647788 0.030918 -6.65544e-21)
(-0.583388 0.279814 0)
(-1.07443 -0.447702 4.48333e-21)
(-0.150151 -0.180541 -5.52121e-21)
(-0.516025 0.143481 0)
(-0.567534 0.169722 1.26676e-21)
(-0.275935 0.175467 1.91625e-21)
(-0.585364 -0.472541 1.42103e-20)
(-0.758793 -0.178126 -1.36743e-20)
(-0.740899 0.10357 -6.18594e-21)
(-1.08269 -0.727449 5.58415e-21)
(0.0262704 0.0157641 6.0743e-21)
(-0.887532 0.363796 0)
(0.0446037 -0.0507878 -1.4021e-20)
(-1.35751 -0.663425 -2.42235e-21)
(-0.177394 0.101397 -1.37385e-20)
(-0.589956 -0.455427 0)
(-0.632359 -0.14001 4.56508e-21)
(-0.0994018 0.0910174 -7.84858e-21)
(-0.743627 -0.00186321 -4.63107e-21)
(-0.965725 -0.725701 0)
(-0.727973 0.364663 -3.81408e-21)
(-1.24915 -0.501512 -3.5662e-21)
(-0.108935 -0.147777 2.45923e-21)
(-0.238329 0.163421 6.87425e-22)
(-0.680259 -0.539329 0)
(-0.744532 -0.133779 9.63911e-21)
(-0.775675 0.394629 0)
(-0.808618 0.399896 0)
(-1.3055 -0.525032 -2.05094e-21)
(-0.0914561 -0.13368 -6.43195e-21)
(-1.33036 -0.560222 2.90313e-21)
(-0.0553861 -0.107483 6.8053e-21)
(0.0917327 -0.0138348 -5.24603e-21)
(-1.42169 -0.775505 0)
(-1.09235 0.407271 -3.67424e-21)
(-0.691484 0.312826 4.47484e-21)
(-1.18803 -0.52675 0)
(-0.0675173 -0.12442 2.26466e-21)
(-1.13425 -0.600123 -5.90743e-21)
(0.039954 0.0181253 7.56561e-21)
(-0.948516 0.466853 1.60102e-21)
(-0.444543 -0.0752138 -4.65558e-21)
(-0.0799144 -0.00512137 0)
(-0.578669 -0.383318 0)
(-0.632062 0.149136 8.63319e-21)
(-1.04412 -0.604036 0)
(0.0408127 -0.0372226 1.3118e-20)
(0.0864339 -0.0251284 -4.34981e-21)
(-0.99316 0.360317 1.13644e-20)
(-1.39494 -0.746313 2.90624e-21)
(-0.841796 -0.650044 0)
(-0.730181 -0.0672345 4.14771e-21)
(-0.163665 0.128949 -9.71699e-21)
(-1.2511 -0.885594 -8.86448e-21)
(-0.959955 0.151518 -3.75807e-21)
(0.0167346 0.0194307 0)
(-0.851488 -0.462032 -1.01567e-20)
(-0.0345301 -0.0831094 0)
(-0.671108 0.21052 9.12924e-21)
(-1.10196 -0.590392 3.16612e-21)
(0.026213 -0.0665486 3.96316e-21)
(-0.839801 -0.480433 5.85455e-21)
(-0.0177974 -0.066607 -3.04901e-23)
(-0.982449 0.499267 -2.60068e-22)
(0.00615723 -0.0423946 5.06245e-21)
(-1.48601 -0.612286 -1.09839e-21)
(-0.740663 -0.624077 0)
(-0.849037 -0.138565 9.48124e-22)
(-0.308628 0.220135 0)
(-0.719223 0.237444 -9.30055e-21)
(-1.16869 -0.618983 -3.85701e-21)
(0.0405577 -0.0572503 -4.74723e-21)
(-0.533504 0.0499555 0)
(-0.858087 -0.54455 -5.68707e-21)
(0.00179922 -0.0139143 0)
(-0.630898 -0.0673418 0)
(-0.751816 -0.5605 0)
(-0.116622 0.0846163 0)
(-0.336334 0.0587686 -3.56753e-21)
(-0.683611 -0.349659 -5.8128e-21)
(-0.127919 -0.137534 -1.60921e-23)
(-0.134097 0.11367 9.733e-21)
(-0.745989 -0.0310662 1.12403e-20)
(-0.919198 -0.700874 5.45268e-21)
(-1.06044 0.34147 -4.51822e-21)
(-1.39416 -0.800168 2.58024e-21)
(0.0971016 -0.0180026 -6.48863e-21)
(-1.26113 -0.864836 6.11686e-21)
(-0.946295 0.167705 3.80879e-21)
(0.0371342 0.0114792 4.95203e-21)
(-0.561101 0.352855 -7.62972e-21)
(-0.387704 -0.355257 7.1109e-21)
(-1.10457 -0.318047 -5.39244e-21)
(-0.843005 0.457848 2.18899e-21)
(-0.801901 0.431517 -2.03208e-21)
(-1.34648 -0.507144 -6.53257e-22)
(-1.39041 -0.522523 0)
(-0.0973944 -0.128441 -2.31134e-21)
(-0.116597 -0.147455 -2.08028e-21)
(0.0442961 0.0220347 -1.02495e-20)
(-1.18814 -0.596295 6.50879e-21)
(-0.963137 0.473909 1.05514e-21)
(-0.987882 0.519781 -1.08965e-22)
(0.0455955 0.0265839 1.19103e-20)
(-1.35105 -0.592432 0)
(-0.679978 0.112534 -1.38012e-20)
(-1.05391 -0.663337 -1.47953e-21)
(0.0370286 -0.00327291 0)
(0.0900018 -0.0170235 -1.31534e-20)
(-1.06008 0.394982 3.65543e-21)
(-1.42839 -0.76284 0)
(-0.658289 0.374357 1.11737e-20)
(-0.702961 0.390965 -8.31385e-21)
(-1.19444 -0.41908 4.03455e-21)
(-1.24024 -0.448306 1.47135e-21)
(-0.232308 -0.235756 -4.11506e-21)
(-0.186495 -0.200134 -2.06176e-21)
(0.0844342 -0.0236834 0)
(-1.3542 -0.86377 0)
(-1.17426 0.317422 1.23455e-21)
(-0.915001 0.509964 -1.64797e-21)
(0.0396821 0.0332213 0)
(-1.25518 -0.550141 0)
(-0.404083 -0.162168 3.38952e-23)
(-0.178717 -0.0389082 5.52974e-21)
(-0.329507 -0.227843 2.66815e-21)
(-1.00197 0.487919 -2.34164e-21)
(-1.2758 -0.630326 -2.01148e-21)
(0.0510148 0.0205301 5.6043e-22)
(-0.442118 0.240101 0)
(-0.923403 -0.317374 -7.76893e-21)
(-0.336795 -0.308012 -8.10182e-23)
(-1.11955 0.379645 1.2743e-22)
(-1.40363 -0.810939 2.23852e-21)
(0.0957804 -0.0155772 6.15035e-24)
(-1.00021 -0.598253 -1.63831e-22)
(0.0340906 0.00454006 -4.39599e-21)
(-0.931574 0.393868 -1.63148e-22)
(-0.194929 0.0913158 -5.04688e-21)
(-0.465309 -0.360153 4.47807e-21)
(-0.612084 -0.181989 1.45439e-20)
(-0.374539 -0.0626339 0)
(-0.544127 -0.336724 -1.32653e-20)
(-0.0938608 -0.05076 6.70314e-21)
(-1.06177 0.502638 0)
(0.061229 0.00518015 5.99152e-21)
(-1.43952 -0.681574 -1.65263e-22)
(-0.399764 -0.0493255 0)
(-0.58444 -0.364602 -4.50238e-21)
(-0.0730834 -0.03194 -9.52151e-21)
(-0.37046 -0.154328 5.70001e-21)
(-0.193254 -0.0628867 -2.92255e-21)
(-0.316702 -0.206834 1.42869e-21)
(-0.20816 0.159307 4.70419e-21)
(-0.799081 -0.0679057 -3.8909e-21)
(-0.891354 -0.717642 6.00986e-21)
(-0.46152 -0.1289 0)
(-0.468655 -0.32138 0)
(-0.121288 0.0101144 8.07273e-22)
(-0.468366 -0.0961375 7.36913e-21)
(-0.541096 -0.36272 3.43367e-21)
(-0.100745 0.0124425 1.1345e-22)
(-0.514523 0.326693 1.15907e-20)
(-1.04289 -0.288138 -5.78694e-21)
(-0.441954 -0.401329 -7.0927e-21)
(0.0599044 -0.0117681 9.04438e-21)
(0.0698129 -0.00990983 -9.25149e-21)
(-1.46866 -0.693671 3.11042e-22)
(-1.45673 -0.710595 3.27534e-22)
(-1.04878 0.482412 0)
(-1.06365 0.469394 -2.9147e-21)
(-1.09086 0.348875 5.62351e-21)
(-1.39985 -0.812662 -1.70498e-21)
(0.0972015 -0.0176018 8.05276e-21)
(-0.372433 -0.352429 -4.57014e-21)
(-0.608401 0.390069 2.40137e-21)
(-1.1603 -0.330697 6.87198e-21)
(-0.280919 0.162647 -4.871e-21)
(-0.497225 -0.403896 -4.52414e-21)
(-0.744482 -0.209827 4.4753e-21)
(-0.81835 0.0401769 0)
(-1.07992 -0.803939 3.67578e-21)
(-0.075126 0.074284 1.4664e-22)
(-1.12802 -0.697311 -1.26786e-21)
(0.0572068 -0.0137624 -4.11734e-21)
(-1.09182 0.388388 -6.86704e-22)
(0.071485 -0.0141121 0)
(-1.11048 0.261758 0)
(-1.34914 -0.899654 1.33608e-21)
(-1.08927 0.472224 2.0848e-21)
(0.0711917 0.00434406 0)
(-1.38232 -0.708346 7.53828e-22)
(0.0265433 0.00963003 -1.63745e-32)
(-0.933666 -0.557191 3.42034e-21)
(-0.861372 0.383263 -1.44223e-23)
(-0.969585 -0.496121 -3.86741e-21)
(0.0255838 0.0220738 1.63357e-32)
(-0.814609 0.437141 -4.18894e-24)
(-1.18695 -0.73852 -7.27607e-21)
(-0.803583 0.179727 0)
(0.0637896 -0.00835685 -1.27289e-20)
(-1.29164 -0.81293 3.31921e-22)
(0.0788353 -0.0263505 -4.22755e-21)
(-1.19542 0.355288 0)
(-0.913574 0.31519 -5.78891e-21)
(-1.33261 -0.728152 3.37313e-21)
(0.0799995 -0.0316186 6.49685e-21)
(-1.00265 0.551167 7.58433e-21)
(0.0130109 -0.0105695 3.57787e-21)
(-1.50887 -0.58401 0)
(-0.415699 0.0889614 2.78974e-21)
(-0.0616216 -0.100438 -2.57081e-21)
(-0.813308 -0.429241 2.48379e-21)
(-1.35904 -0.879615 5.79037e-22)
(0.0824201 -0.0217132 4.49233e-21)
(-1.15855 0.300695 1.57233e-21)
(-0.796824 0.0172162 -4.53301e-21)
(-0.0998623 0.0910314 -2.63893e-21)
(-1.03575 -0.778267 0)
(-1.16758 -0.808989 0)
(-0.841959 0.124667 0)
(0.0186244 0.0243295 0)
(0.00705659 0.0121589 0)
(-0.548163 -0.292489 4.17537e-21)
(-0.496394 0.242089 -8.54362e-22)
(-1.12889 -0.629335 -2.2761e-21)
(0.0434596 0.0106112 -5.29824e-21)
(-0.981387 0.448274 -9.71912e-22)
(-0.375351 0.0591782 -7.17749e-21)
(-0.0814702 -0.106375 6.22637e-21)
(-0.733625 -0.394504 2.97126e-21)
(-1.37322 -0.829043 8.34223e-22)
(-1.15869 0.357989 -2.40953e-21)
(0.0911753 -0.0200992 0)
(0.0808004 -0.0268941 -4.6851e-21)
(-1.19628 0.321315 0)
(-1.32806 -0.863151 -6.83422e-22)
(-1.04196 0.421812 -3.33931e-21)
(0.0780099 -0.0183832 1.39863e-20)
(-1.44259 -0.729954 0)
(-0.0305978 -0.0727218 -1.03106e-20)
(-1.46184 -0.579792 2.13402e-21)
(-0.930898 0.488577 0)
(-0.49403 0.330136 -1.45493e-20)
(-1.02705 -0.26511 7.37219e-21)
(-0.507432 -0.45448 -2.23158e-21)
(-1.31058 -0.47331 9.81036e-22)
(-0.760572 0.429653 4.84032e-21)
(-0.169626 -0.186844 -6.3741e-21)
(-0.0313431 -0.0614277 -9.21818e-21)
(-0.959212 0.532697 0)
(-1.50881 -0.565381 0)
(-0.472608 0.232473 -2.45294e-21)
(-0.532527 0.265019 0)
(-0.946852 -0.369115 -8.00802e-21)
(-1.02442 -0.402977 8.56977e-21)
(-0.23876 -0.232683 1.14921e-21)
(-0.209548 -0.219143 -1.22427e-21)
(-0.430885 0.22229 2.35446e-21)
(-0.904406 -0.332325 0)
(-0.29694 -0.274445 2.15762e-21)
(-0.64623 0.385445 0)
(-1.18865 -0.397568 -6.53706e-21)
(-0.271211 -0.266673 1.48292e-21)
(-1.23027 -0.837349 -3.23395e-21)
(-0.905199 0.155395 4.09724e-21)
(0.0374535 0.011948 -1.00931e-20)
(-1.38512 -0.846728 0)
(-1.10718 0.335585 8.33187e-21)
(0.0943713 -0.0180929 0)
(0.0685972 -0.00438904 -3.25627e-21)
(-0.939804 0.209061 -2.48899e-21)
(-1.28372 -0.830128 -2.0362e-21)
(-1.03867 -0.509063 5.73011e-22)
(0.0299794 0.025944 2.81953e-21)
(-0.851026 0.457997 0)
(-0.263201 0.109027 4.70494e-21)
(-0.272693 0.0979961 0)
(-0.335263 -0.277795 0)
(-0.674576 -0.251491 1.71988e-20)
(-0.290332 -0.24752 0)
(-0.672144 -0.273909 -1.09966e-20)
(-0.558103 0.330256 0)
(-0.494572 0.291716 0)
(-0.361681 -0.330226 2.58155e-23)
(-1.08092 -0.354275 4.56245e-21)
(-0.322336 -0.298374 1.08641e-20)
(-1.00597 -0.32185 -9.9108e-21)
(-0.982967 -0.622168 0)
(0.0385175 -0.0048144 6.02e-21)
(-0.977686 0.379295 0)
(-1.38159 -0.823188 -1.00744e-21)
(-1.14199 0.357341 8.30791e-22)
(0.0937382 -0.0179519 2.82044e-21)
(-0.327091 0.20393 -8.24325e-21)
(-0.56122 -0.467453 -5.02357e-21)
(-0.81376 -0.203892 1.40865e-20)
(-1.17447 -0.851524 7.23805e-21)
(-0.884107 0.0948088 1.04905e-20)
(-0.0246386 0.0465562 0)
(-0.0512342 -0.0904391 1.10266e-20)
(-1.4453 -0.563117 -2.26906e-21)
(-0.907722 0.483962 5.13142e-21)
(-1.25449 -0.690256 0)
(-1.08138 0.45055 0)
(0.0613177 0.00348857 0)
(-1.28153 -0.722913 0)
(-1.11173 0.435187 1.64212e-21)
(0.0699413 -0.00461349 1.01384e-21)
(-0.695603 0.368216 -4.70444e-21)
(-1.22152 -0.471803 2.19431e-21)
(-0.154816 -0.179034 3.04854e-21)
(-0.146586 0.0820979 -1.31183e-21)
(-0.599971 -0.445121 0)
(-0.593279 -0.118844 -6.20607e-23)
(-1.06363 0.441272 3.89088e-21)
(0.0771377 -0.0134916 8.09876e-21)
(-1.45334 -0.727662 -3.81233e-22)
(-1.21207 -0.772828 0)
(-0.843269 0.18548 0)
(0.0640846 -0.00188075 1.09901e-20)
(0.0444304 -0.0450776 2.68284e-21)
(-1.39821 -0.671384 3.96373e-21)
(-0.933408 0.402384 1.16218e-20)
(-0.461891 0.27847 0)
(-0.411827 -0.367774 -7.35307e-21)
(-0.967108 -0.296558 5.19316e-21)
(-0.631099 0.00354835 6.14946e-23)
(-0.879381 -0.614745 4.16215e-21)
(-0.0457233 0.0482687 0)
(-0.235506 0.128621 3.36015e-23)
(-0.502607 -0.401736 -1.51976e-21)
(-0.682315 -0.192133 -5.86089e-21)
(0.0853988 -0.0109117 1.1719e-23)
(-1.43501 -0.754125 5.29194e-22)
(-1.09068 0.430721 3.92519e-21)
(-0.849427 0.382472 -2.19108e-21)
(-1.34483 -0.612656 -1.46924e-21)
(0.000416679 -0.075021 0)
(-0.203098 0.0825933 -5.10253e-21)
(-0.411931 -0.320535 9.83051e-21)
(-0.606284 -0.201193 -9.59422e-21)
(-0.977013 0.548485 3.14745e-21)
(-0.0182591 -0.0436016 4.06076e-21)
(-1.52232 -0.567798 -3.89253e-22)
(-0.385706 0.16841 -3.01326e-21)
(-0.826618 -0.3409 0)
(-0.236191 -0.230189 0)
(-0.455127 -0.00078294 -1.30883e-20)
(-0.71755 -0.450568 2.73046e-21)
(-0.0322225 -0.0208046 0)
(-1.15121 -0.769878 0)
(-0.802041 0.125958 8.84171e-21)
(0.0330397 0.0171297 0)
(-1.00381 0.535937 -1.4031e-21)
(0.0397012 0.0179577 -1.26611e-21)
(-1.43717 -0.600857 -1.75624e-21)
(-0.996433 0.547241 3.92729e-21)
(0.0306127 0.0131802 0)
(-1.46315 -0.585504 7.92251e-22)
(0.0284646 -0.0502727 2.39486e-21)
(-1.4152 -0.650819 -1.98166e-21)
(-0.935021 0.423091 -1.06874e-20)
(-0.670549 -0.0147703 -4.07958e-21)
(-0.904076 -0.654411 -4.21501e-21)
(-0.0771187 0.0676504 0)
(0.0390899 0.0276324 1.15993e-21)
(-1.3839 -0.579198 1.63296e-21)
(-0.967174 0.530727 0)
(0.087778 -0.0256114 0)
(-1.36508 -0.752633 -2.14257e-21)
(-0.965573 0.330675 -1.33873e-21)
(0.0189421 0.00591329 4.82799e-21)
(-0.789065 -0.510563 -3.33252e-21)
(-0.776426 0.323974 0)
(-0.691572 0.409204 -2.86218e-22)
(-0.860127 -0.412406 0)
(0.0189368 0.0245034 4.81236e-21)
(-0.0202356 -0.057987 -1.92378e-23)
(-1.49101 -0.586761 0)
(-0.958999 0.514078 0)
(0.0843706 -0.00640719 0)
(-1.39996 -0.755993 0)
(-1.12235 0.437008 4.6585e-21)
(-1.02677 0.474615 -3.51942e-21)
(-1.00379 0.455351 2.84704e-21)
(0.0489368 -0.0217993 -4.54297e-21)
(-1.47745 -0.671655 -1.72545e-22)
(0.0488504 -0.0286328 -7.42106e-21)
(-1.4606 -0.675538 5.94624e-22)
(-0.967226 0.307482 2.64569e-21)
(-1.35238 -0.773911 1.53885e-21)
(0.0915851 -0.0222997 0)
(-0.0677839 0.0715752 0)
(-1.12631 -0.846092 0)
(-0.865724 0.0597698 0)
(-0.263727 0.0592128 0)
(-0.236084 -0.203997 -1.38005e-20)
(-0.619362 -0.278344 5.97398e-21)
(-0.929659 0.245315 7.76268e-21)
(-1.29771 -0.796676 6.74053e-22)
(0.0849573 -0.0140818 9.55279e-21)
(0.0752694 -0.00781835 6.22826e-21)
(-0.911219 0.220097 -1.07979e-20)
(-1.27022 -0.803483 -9.33891e-22)
(-0.933137 0.537829 3.88276e-21)
(-0.0637666 -0.0872744 4.40301e-21)
(-1.50301 -0.534433 2.86243e-21)
(-0.581715 0.350753 0)
(-1.11614 -0.356101 1.95737e-21)
(-0.326805 -0.306713 -1.06499e-20)
(-0.489517 0.270713 0)
(-0.980607 -0.337481 1.01988e-20)
(-0.320753 -0.300215 -3.04676e-23)
(-0.799881 0.220233 -1.05081e-20)
(-1.21265 -0.712032 9.6409e-22)
(0.072998 -0.0266295 -5.54552e-21)
(-0.827619 0.215784 0)
(-1.2243 -0.735588 9.15598e-22)
(0.0752043 -0.0191703 5.07667e-21)
(-0.177112 0.0553266 0)
(-0.410483 -0.30948 -1.55258e-20)
(-0.551323 -0.184007 5.37045e-21)
(-0.553737 0.285754 0)
(-1.04965 -0.40046 0)
(-0.221277 -0.231826 1.6447e-21)
(0.0734109 -0.0205985 -9.72381e-21)
(-1.34328 -0.896985 -3.42811e-21)
(-1.15892 0.279407 0)
(-1.13629 0.41357 1.64193e-21)
(0.0699966 -0.0120333 0)
(-1.23933 -0.737893 -7.72566e-22)
(-1.13212 0.390981 -2.97771e-22)
(0.0650847 -0.0163347 0)
(-1.19318 -0.729927 2.48889e-21)
(-0.332508 0.174375 3.48952e-21)
(-0.383533 -0.323796 -1.61618e-21)
(-0.787288 -0.268841 -1.87746e-22)
(-1.17429 -0.661338 2.94867e-22)
(0.0533884 0.002583 8.11708e-21)
(-1.05347 0.436578 0)
(-0.895705 0.417457 9.30129e-21)
(0.00404785 -0.0661813 5.07805e-21)
(-1.39142 -0.621204 0)
(0.0509047 -0.00601216 -1.20946e-21)
(-1.11284 -0.674736 2.15755e-21)
(-1.05187 0.402615 0)
(-0.329328 -0.029559 8.84836e-21)
(-0.112564 -0.0860562 8.53715e-21)
(-0.550399 -0.314975 7.37027e-24)
(-0.599266 0.20404 -1.58038e-21)
(-1.0514 -0.532931 -1.22981e-21)
(-0.017209 -0.0941467 -5.79747e-21)
(-0.833299 -0.62046 9.63244e-21)
(-0.668925 -0.0464881 9.63305e-21)
(-0.114169 0.0885071 0)
(0.0832068 -0.0245407 0)
(-1.32138 -0.826004 1.93655e-22)
(-1.18967 0.353653 0)
(-1.19347 -0.787223 0)
(-0.842834 0.163906 0)
(0.0518175 0.00623913 0)
(0.0056455 -0.0256161 0)
(-0.999194 0.540703 -2.71021e-21)
(-1.51582 -0.590715 3.82259e-22)
(-0.658402 0.230217 0)
(-1.10779 -0.569168 6.44556e-22)
(0.00460607 -0.0814181 5.66317e-21)
(-0.249241 0.0367706 0)
(-0.232373 -0.195391 1.18658e-20)
(-0.576684 -0.264916 0)
(-1.35673 -0.816204 -7.87567e-22)
(-1.16506 0.379121 2.29059e-21)
(0.0885037 -0.0193928 0)
(0.0756753 -0.030389 -5.56878e-21)
(-1.39277 -0.724215 1.33424e-22)
(-0.968667 0.375814 2.6454e-22)
(-1.04317 0.511065 0)
(-1.03514 0.510997 2.2112e-21)
(0.0541099 0.0140002 -2.94719e-21)
(0.0545208 0.0175258 -3.61229e-21)
(-1.417 -0.643109 8.12259e-22)
(-1.386 -0.642445 -6.68239e-22)
(-0.591823 0.0924829 0)
(-0.954683 -0.596513 1.647e-20)
(0.0246143 -0.0175677 6.31777e-21)
(-1.1314 -0.705375 1.02454e-20)
(-0.751905 0.150572 0)
(0.055236 -0.00611571 -6.79693e-21)
(-0.399285 0.0197419 -7.35621e-21)
(-0.700875 -0.410201 4.69555e-21)
(-0.0469426 -0.0617947 1.02451e-20)
(-1.28766 -0.775219 -8.41674e-22)
(-1.16265 0.398133 2.09488e-21)
(-1.27061 -0.78848 5.45793e-22)
(0.0772026 -0.016512 0)
(-1.17815 0.376378 -2.0215e-21)
(0.0758497 -0.0218423 0)
(-0.781457 0.285536 0)
(-1.23574 -0.642905 0)
(0.0414282 -0.0575137 6.20025e-21)
(-1.15549 0.397485 3.55476e-21)
(-1.15678 0.405676 -6.44225e-21)
(-1.36247 -0.792778 -5.65832e-22)
(-1.33248 -0.774121 6.90543e-22)
(0.0866021 -0.0147337 8.251e-21)
(0.0816062 -0.0129118 -1.48843e-23)
(-0.718788 0.127141 0)
(-1.08738 -0.702087 -9.9075e-21)
(0.038252 0.0054432 8.8149e-21)
(-0.52965 0.120186 6.98945e-21)
(-0.982376 -0.54196 -7.52057e-21)
(0.0111476 -0.0654797 0)
(-1.0132 0.543417 0)
(0.0278478 -8.04588e-05 0)
(-1.49092 -0.604676 -7.61452e-22)
(-0.59406 0.118809 5.17614e-21)
(-0.980162 -0.58495 -4.58398e-21)
(0.0318692 -0.0305519 -1.03819e-20)
(-0.43891 0.0515598 2.97823e-21)
(-0.785104 -0.459787 -5.51548e-21)
(-0.0236506 -0.0590183 5.87338e-21)
(-1.02533 0.523178 0)
(0.0465571 0.0134114 0)
(-1.4457 -0.62971 9.65172e-22)
(-0.676963 0.258492 0)
(-1.15064 -0.558608 1.22413e-21)
(-0.00908227 -0.0919132 -6.14357e-21)
(-1.0147 -0.78451 0)
(-0.812252 -0.00498574 0)
(-0.137748 0.114402 -3.40068e-22)
(-0.467098 0.291965 -3.75351e-22)
(-0.978414 -0.279935 0)
(-0.446591 -0.398244 1.12876e-20)
(-1.28889 -0.912363 3.31753e-21)
(0.0253282 0.00976654 0)
(-1.02037 0.177213 0)
(0.0138395 0.0145309 -1.15892e-20)
(-0.735323 -0.401457 -5.84101e-21)
(-0.657198 0.323992 1.19561e-21)
(-0.622938 0.170065 0)
(-1.03825 -0.575613 4.58739e-21)
(0.0272628 -0.0571382 -5.23017e-21)
(-1.03114 0.514095 5.32132e-21)
(0.0400156 -0.00916975 1.52807e-20)
(-1.49102 -0.640131 0)
(-0.624787 -0.539132 -2.92766e-21)
(-0.931066 -0.204241 -5.09359e-21)
(-0.400143 0.272907 -3.23615e-21)
(-0.819739 0.473544 0)
(0.0314701 0.0330124 -4.24722e-21)
(-1.09683 -0.49988 0)
(-0.0844222 0.0359874 6.43452e-21)
(-0.100139 0.0562616 -6.5693e-21)
(-0.632489 -0.44523 0)
(-0.519967 -0.0771944 6.22355e-21)
(-0.669198 -0.48075 -9.84206e-21)
(-0.562088 -0.0836751 -4.97489e-21)
(-0.410415 -0.00988657 6.93421e-21)
(-0.659461 -0.401522 6.33308e-21)
(-0.0507315 -0.0406088 0)
(-0.155888 0.0739826 5.80761e-21)
(-0.117285 0.0480617 0)
(-0.525282 -0.392785 -5.5709e-21)
(-0.576885 -0.147264 5.55155e-21)
(-0.550088 -0.395455 5.61482e-21)
(-0.529183 -0.116228 2.90585e-23)
(-0.577606 0.152905 4.38854e-22)
(-0.919856 -0.525762 -3.35017e-21)
(0.00654871 -0.0557657 -7.16894e-21)
(-0.537581 0.10319 -1.20623e-20)
(-0.922314 -0.540024 8.66602e-23)
(0.0133014 -0.0425143 0)
(0.0681497 -0.0231698 0)
(-1.20291 -0.762191 0)
(-1.16513 0.372434 1.49658e-21)
(-0.377033 0.190082 -3.22086e-21)
(-0.833872 -0.302863 0)
(-0.319288 -0.284035 2.98699e-21)
(-1.13367 0.410464 -7.60043e-21)
(-1.39474 -0.784901 1.3078e-23)
(0.0891145 -0.0111212 -4.70199e-21)
(-0.830533 0.257685 0)
(-0.880434 0.281253 5.57113e-21)
(-1.25587 -0.706113 -1.20285e-21)
(-1.29774 -0.727691 3.30068e-21)
(0.0752854 -0.0321399 -6.82339e-21)
(0.0816078 -0.029451 -6.26945e-21)
(-0.355188 0.164107 0)
(-0.798108 -0.310093 0)
(-0.286588 -0.26171 1.44513e-21)
(-0.618086 0.341424 3.71777e-21)
(-1.13704 -0.40971 0)
(-0.234329 -0.236349 3.54475e-21)
(-0.737106 0.22893 -2.98372e-21)
(-1.17151 -0.651605 0)
(0.0558213 -0.0445085 0)
(-0.203638 -0.0176895 6.743e-21)
(-0.459101 -0.204774 -3.23773e-21)
(-0.276991 -0.207106 3.23174e-21)
(-0.892756 0.250188 0)
(-1.28317 -0.765469 0)
(0.0845801 -0.0191142 -1.0162e-20)
(-0.236403 0.0641174 0)
(-0.296275 -0.24225 1.71984e-21)
(-0.603912 -0.248314 0)
(-0.712729 0.148406 -6.82943e-21)
(-1.09598 -0.682009 -5.60592e-21)
(0.0508962 -0.0143924 -8.83531e-22)
(-0.608931 0.318571 3.81817e-21)
(-1.11906 -0.427095 0)
(-0.19705 -0.213927 7.31227e-21)
(-0.204293 0.0100967 -6.68095e-21)
(-0.182343 0.0143886 -2.95305e-21)
(-0.50388 -0.218826 3.22396e-21)
(-0.288332 -0.223466 -6.43236e-21)
(-0.497882 -0.19823 0)
(-0.337975 -0.255622 -1.1364e-20)
(-0.143034 0.0350787 -2.92161e-21)
(-0.451973 -0.331842 7.24578e-21)
(-0.120387 0.0348941 1.87705e-21)
(-0.509926 -0.151109 -7.53008e-21)
(-0.530177 -0.378454 -3.54965e-21)
(-0.509783 -0.123126 1.45023e-22)
(-0.451402 0.207487 3.56827e-21)
(-0.499211 0.221164 0)
(-0.914362 -0.376766 6.07473e-21)
(-0.964207 -0.415178 -4.74832e-21)
(-0.2075 -0.211942 -6.70492e-21)
(-0.156099 -0.178201 1.11448e-20)
(-0.0097224 -0.0645456 0)
(-1.44226 -0.605601 -1.1381e-21)
(-0.929925 0.463942 -5.3112e-21)
(-0.159633 0.129054 4.15267e-21)
(-0.784792 -0.034729 6.13501e-21)
(-0.946706 -0.738112 -9.49229e-21)
(0.011514 -0.0473952 -5.17422e-21)
(0.0300336 -0.0413199 4.15263e-21)
(-1.46127 -0.63067 9.8545e-22)
(-1.44793 -0.65203 1.81345e-21)
(-0.963955 0.475473 1.34627e-20)
(-0.971376 0.454727 -6.98205e-21)
(-0.267594 0.185341 5.98571e-21)
(-0.697741 -0.562447 -4.74119e-21)
(-0.782548 -0.142373 1.38222e-21)
(-0.236074 -0.070302 1.14256e-20)
(-0.248868 -0.161486 0)
(-0.387296 -0.190021 -1.11951e-20)
(-0.915165 0.279189 -2.62512e-21)
(-1.31134 -0.759609 -3.72945e-21)
(0.0873617 -0.0229122 0)
(-0.299949 0.133269 0)
(-0.329585 -0.288018 -1.37645e-21)
(-0.725064 -0.268378 -5.52732e-21)
(-0.641843 0.329941 0)
(-1.15459 -0.451453 0)
(-0.166237 -0.190083 -6.80498e-21)
(-0.869976 0.454178 -5.84854e-21)
(-0.860551 0.431989 0)