/*--------------------------------*- C++ -*----------------------------------*\
  =========                 |
  \\      /  F ield         | OpenFOAM: The Open Source CFD Toolbox
   \\    /   O peration     | Website:  https://openfoam.org
    \\  /    A nd           | Version:  6
     \\/     M anipulation  |
\*---------------------------------------------------------------------------*/
FoamFile
{
    version     2.0;
    format      ascii;
    class       volScalarField;
    location    "0";
    object      T;
}
// * * * * * * * * * * * * * * * * * * * * * * * * * * * * * * * * * * * * * //

dimensions      [0 0 0 1 0 0 0];

internalField   nonuniform List<scalar> 
10000
(
298.914
298.942
298.969
298.996
299.02
299.044
299.066
299.086
299.105
299.123
299.14
299.156
299.171
299.184
299.197
299.209
299.221
299.231
299.241
299.251
299.259
299.268
299.276
299.283
299.29
299.297
299.303
299.309
299.315
299.32
299.325
299.329
299.334
299.338
299.341
299.345
299.348
299.351
299.354
299.356
299.359
299.361
299.363
299.365
299.367
299.369
299.37
299.372
299.374
299.375
299.377
299.378
299.38
299.382
299.383
299.385
299.386
299.388
299.389
299.391
299.392
299.394
299.395
299.397
299.398
299.4
299.401
299.403
299.405
299.407
299.408
299.41
299.413
299.415
299.417
299.42
299.423
299.427
299.431
299.435
299.441
299.447
299.455
299.464
299.475
299.489
299.506
299.527
299.554
299.587
299.63
299.685
299.755
299.845
299.958
300.099
300.272
300.477
300.712
300.968
298.914
298.943
298.971
298.997
299.023
299.046
299.068
299.089
299.109
299.127
299.144
299.159
299.174
299.188
299.201
299.213
299.224
299.234
299.244
299.253
299.262
299.27
299.278
299.285
299.292
299.299
299.305
299.311
299.316
299.321
299.326
299.331
299.335
299.339
299.342
299.346
299.349
299.352
299.355
299.357
299.36
299.362
299.364
299.366
299.368
299.37
299.371
299.373
299.374
299.376
299.377
299.379
299.38
299.382
299.383
299.385
299.386
299.388
299.389
299.391
299.392
299.394
299.395
299.397
299.398
299.4
299.402
299.403
299.405
299.407
299.409
299.411
299.413
299.415
299.417
299.42
299.423
299.427
299.431
299.435
299.44
299.447
299.454
299.463
299.474
299.487
299.503
299.523
299.549
299.581
299.623
299.676
299.744
299.831
299.942
300.083
300.256
300.464
300.704
300.965
298.915
298.945
298.974
299.002
299.028
299.053
299.076
299.097
299.118
299.136
299.154
299.17
299.184
299.198
299.211
299.222
299.233
299.243
299.253
299.262
299.27
299.278
299.285
299.292
299.298
299.304
299.31
299.316
299.321
299.326
299.33
299.335
299.339
299.342
299.346
299.349
299.352
299.355
299.357
299.36
299.362
299.364
299.366
299.368
299.37
299.371
299.373
299.374
299.376
299.377
299.379
299.38
299.382
299.383
299.385
299.386
299.387
299.389
299.39
299.392
299.393
299.395
299.396
299.398
299.399
299.401
299.402
299.404
299.406
299.407
299.409
299.411
299.413
299.415
299.418
299.42
299.423
299.427
299.43
299.435
299.44
299.446
299.453
299.461
299.471
299.484
299.499
299.518
299.542
299.573
299.613
299.664
299.73
299.815
299.926
300.066
300.241
300.452
300.696
300.962
298.916
298.948
298.979
299.009
299.037
299.064
299.089
299.112
299.133
299.153
299.171
299.187
299.203
299.216
299.229
299.24
299.251
299.26
299.269
299.277
299.284
299.291
299.298
299.304
299.31
299.315
299.321
299.325
299.33
299.334
299.338
299.342
299.346
299.349
299.352
299.355
299.357
299.36
299.362
299.364
299.366
299.368
299.37
299.372
299.373
299.374
299.376
299.377
299.379
299.38
299.381
299.382
299.384
299.385
299.386
299.388
299.389
299.39
299.392
299.393
299.394
299.396
299.397
299.399
299.4
299.402
299.403
299.405
299.406
299.408
299.41
299.412
299.414
299.416
299.418
299.421
299.424
299.427
299.43
299.434
299.439
299.445
299.451
299.459
299.469
299.48
299.495
299.513
299.536
299.566
299.604
299.654
299.718
299.803
299.913
300.053
300.23
300.444
300.691
300.961
298.918
298.952
298.986
299.019
299.05
299.079
299.106
299.131
299.155
299.176
299.195
299.213
299.229
299.243
299.255
299.267
299.277
299.285
299.293
299.3
299.307
299.313
299.318
299.323
299.328
299.332
299.336
299.34
299.344
299.347
299.35
299.353
299.356
299.359
299.361
299.363
299.366
299.367
299.369
299.371
299.373
299.374
299.375
299.377
299.378
299.379
299.38
299.381
299.382
299.383
299.385
299.386
299.387
299.388
299.389
299.39
299.391
299.393
299.394
299.395
299.396
299.398
299.399
299.4
299.402
299.403
299.405
299.406
299.408
299.409
299.411
299.413
299.415
299.417
299.419
299.422
299.424
299.427
299.431
299.435
299.439
299.444
299.45
299.458
299.467
299.478
299.492
299.509
299.531
299.56
299.597
299.646
299.71
299.795
299.905
300.047
300.225
300.441
300.69
300.961
298.919
298.958
298.995
299.031
299.065
299.097
299.128
299.156
299.181
299.204
299.226
299.244
299.261
299.276
299.289
299.3
299.31
299.318
299.325
299.331
299.336
299.341
299.345
299.349
299.352
299.355
299.358
299.36
299.363
299.365
299.367
299.369
299.371
299.372
299.374
299.375
299.377
299.378
299.379
299.38
299.381
299.382
299.383
299.384
299.384
299.385
299.386
299.387
299.387
299.388
299.389
299.39
299.391
299.392
299.392
299.393
299.394
299.395
299.397
299.398
299.399
299.4
299.401
299.403
299.404
299.405
299.407
299.408
299.41
299.411
299.413
299.415
299.416
299.418
299.421
299.423
299.425
299.428
299.431
299.435
299.439
299.444
299.45
299.457
299.466
299.476
299.489
299.506
299.528
299.556
299.593
299.642
299.706
299.791
299.902
300.045
300.225
300.442
300.691
300.961
298.921
298.963
299.005
299.045
299.083
299.119
299.152
299.183
299.211
299.237
299.26
299.28
299.298
299.314
299.327
299.339
299.348
299.356
299.362
299.368
299.372
299.375
299.378
299.38
299.382
299.383
299.384
299.386
299.386
299.387
299.388
299.388
299.389
299.39
299.39
299.39
299.391
299.391
299.391
299.392
299.392
299.392
299.392
299.393
299.393
299.393
299.393
299.394
299.394
299.394
299.395
299.395
299.396
299.396
299.397
299.398
299.398
299.399
299.4
299.401
299.402
299.403
299.404
299.405
299.407
299.408
299.409
299.411
299.412
299.413
299.415
299.417
299.419
299.42
299.422
299.425
299.427
299.43
299.433
299.436
299.44
299.445
299.45
299.457
299.465
299.475
299.488
299.505
299.526
299.554
299.591
299.64
299.705
299.791
299.903
300.048
300.229
300.446
300.695
300.963
298.923
298.97
299.015
299.059
299.101
299.141
299.178
299.212
299.244
299.272
299.297
299.319
299.338
299.355
299.369
299.381
299.39
299.398
299.404
299.409
299.412
299.414
299.415
299.416
299.416
299.416
299.416
299.415
299.414
299.414
299.413
299.412
299.411
299.41
299.409
299.408
299.408
299.407
299.406
299.406
299.405
299.404
299.404
299.403
299.403
299.403
299.402
299.402
299.402
299.402
299.402
299.402
299.402
299.402
299.403
299.403
299.403
299.404
299.405
299.405
299.406
299.407
299.408
299.409
299.41
299.411
299.412
299.414
299.415
299.416
299.418
299.419
299.421
299.423
299.425
299.427
299.429
299.432
299.435
299.438
299.442
299.446
299.452
299.458
299.466
299.476
299.488
299.505
299.526
299.554
299.592
299.641
299.707
299.794
299.908
300.054
300.235
300.452
300.699
300.965
298.926
298.976
299.026
299.075
299.121
299.165
299.205
299.243
299.277
299.308
299.335
299.359
299.38
299.398
299.413
299.425
299.435
299.442
299.448
299.452
299.454
299.455
299.455
299.455
299.454
299.452
299.45
299.448
299.446
299.443
299.441
299.438
299.436
299.434
299.431
299.429
299.427
299.425
299.424
299.422
299.42
299.419
299.417
299.416
299.415
299.414
299.413
299.412
299.411
299.411
299.41
299.41
299.409
299.409
299.409
299.409
299.409
299.41
299.41
299.41
299.411
299.412
299.412
299.413
299.414
299.415
299.416
299.417
299.419
299.42
299.421
299.423
299.424
299.426
299.428
299.43
299.432
299.435
299.437
299.441
299.444
299.448
299.453
299.46
299.467
299.477
299.489
299.506
299.527
299.556
299.594
299.644
299.711
299.8
299.915
300.062
300.244
300.46
300.705
300.967
298.928
298.983
299.037
299.09
299.141
299.188
299.232
299.273
299.31
299.344
299.373
299.399
299.422
299.441
299.456
299.469
299.479
299.487
299.492
299.496
299.498
299.498
299.497
299.495
299.493
299.49
299.487
299.483
299.479
299.475
299.471
299.467
299.463
299.46
299.456
299.452
299.449
299.446
299.443
299.44
299.437
299.435
299.433
299.43
299.428
299.427
299.425
299.423
299.422
299.421
299.42
299.419
299.418
299.417
299.417
299.416
299.416
299.416
299.416
299.416
299.417
299.417
299.418
299.418
299.419
299.42
299.421
299.422
299.423
299.424
299.425
299.427
299.428
299.43
299.432
299.434
299.436
299.438
299.441
299.444
299.447
299.451
299.456
299.462
299.469
299.479
299.491
299.508
299.529
299.558
299.597
299.648
299.717
299.806
299.923
300.071
300.253
300.469
300.711
300.969
298.93
298.99
299.049
299.106
299.16
299.211
299.259
299.303
299.343
299.379
299.411
299.439
299.463
299.483
299.499
299.513
299.523
299.531
299.536
299.54
299.541
299.541
299.539
299.536
299.533
299.529
299.524
299.519
299.514
299.508
299.503
299.497
299.492
299.487
299.482
299.477
299.472
299.468
299.464
299.46
299.456
299.453
299.449
299.446
299.443
299.441
299.438
299.436
299.434
299.432
299.43
299.429
299.428
299.426
299.425
299.425
299.424
299.424
299.423
299.423
299.423
299.423
299.424
299.424
299.425
299.425
299.426
299.427
299.428
299.429
299.43
299.431
299.433
299.434
299.436
299.438
299.44
299.442
299.445
299.447
299.451
299.455
299.459
299.465
299.472
299.482
299.494
299.511
299.532
299.562
299.601
299.654
299.723
299.814
299.932
300.081
300.264
300.478
300.717
300.971
298.932
298.996
299.06
299.121
299.179
299.234
299.286
299.333
299.376
299.414
299.448
299.477
299.502
299.524
299.541
299.555
299.566
299.574
299.579
299.582
299.583
299.582
299.58
299.576
299.572
299.567
299.561
299.555
299.548
299.541
299.535
299.528
299.521
299.515
299.509
299.502
299.497
299.491
299.486
299.481
299.476
299.471
299.467
299.463
299.459
299.456
299.453
299.45
299.447
299.444
299.442
299.44
299.438
299.437
299.435
299.434
299.433
299.432
299.431
299.431
299.431
299.43
299.43
299.431
299.431
299.431
299.432
299.433
299.434
299.434
299.436
299.437
299.438
299.439
299.441
299.443
299.445
299.447
299.449
299.452
299.455
299.459
299.463
299.469
299.476
299.485
299.498
299.514
299.536
299.566
299.606
299.66
299.73
299.823
299.942
300.092
300.274
300.487
300.723
300.973
298.934
299.003
299.07
299.136
299.198
299.257
299.311
299.362
299.407
299.448
299.483
299.514
299.541
299.563
299.581
299.595
299.606
299.614
299.619
299.622
299.623
299.622
299.619
299.615
299.609
299.603
299.597
299.589
299.582
299.574
299.566
299.558
299.55
299.543
299.535
299.528
299.521
299.515
299.508
299.502
299.496
299.491
299.486
299.481
299.476
299.472
299.468
299.464
299.461
299.458
299.455
299.452
299.45
299.447
299.446
299.444
299.442
299.441
299.44
299.439
299.439
299.438
299.438
299.438
299.438
299.438
299.439
299.439
299.44
299.441
299.442
299.443
299.444
299.445
299.447
299.448
299.45
299.452
299.454
299.457
299.46
299.463
299.468
299.473
299.48
299.49
299.502
299.519
299.541
299.571
299.612
299.666
299.738
299.832
299.952
300.103
300.284
300.495
300.729
300.975
298.937
299.009
299.081
299.15
299.216
299.279
299.336
299.39
299.438
299.48
299.518
299.55
299.577
299.6
299.619
299.633
299.644
299.652
299.657
299.66
299.66
299.658
299.655
299.65
299.645
299.638
299.63
299.622
299.614
299.605
299.596
299.587
299.579
299.57
299.562
299.553
299.545
299.538
299.53
299.523
299.517
299.51
299.504
299.499
299.493
299.488
299.484
299.479
299.475
299.471
299.468
299.465
299.462
299.459
299.457
299.454
299.453
299.451
299.45
299.448
299.448
299.447
299.446
299.446
299.446
299.446
299.446
299.446
299.447
299.448
299.448
299.449
299.45
299.452
299.453
299.454
299.456
299.458
299.46
299.463
299.465
299.469
299.473
299.478
299.485
299.494
299.507
299.523
299.546
299.577
299.618
299.673
299.746
299.841
299.962
300.113
300.294
300.504
300.735
300.977
298.939
299.015
299.091
299.164
299.234
299.3
299.361
299.417
299.467
299.512
299.551
299.584
299.612
299.636
299.655
299.669
299.68
299.688
299.692
299.695
299.694
299.692
299.689
299.683
299.677
299.669
299.661
299.653
299.643
299.634
299.624
299.615
299.605
299.596
299.587
299.578
299.569
299.56
299.552
299.544
299.537
299.53
299.523
299.517
299.511
299.505
299.499
299.494
299.49
299.485
299.481
299.478
299.474
299.471
299.468
299.466
299.463
299.461
299.46
299.458
299.457
299.456
299.455
299.455
299.454
299.454
299.454
299.454
299.455
299.455
299.456
299.457
299.457
299.459
299.46
299.461
299.463
299.464
299.466
299.469
299.471
299.475
299.479
299.484
299.491
299.5
299.512
299.529
299.552
299.583
299.625
299.681
299.755
299.851
299.973
300.124
300.304
300.512
300.74
300.979
298.941
299.022
299.101
299.178
299.251
299.32
299.384
299.443
299.495
299.542
299.582
299.617
299.646
299.669
299.688
299.703
299.713
299.72
299.725
299.726
299.726
299.723
299.719
299.713
299.706
299.698
299.689
299.68
299.67
299.66
299.65
299.64
299.63
299.62
299.61
299.6
299.591
299.582
299.573
299.565
299.556
299.549
299.541
299.534
299.528
299.521
299.515
299.51
299.504
299.5
299.495
299.491
299.487
299.483
299.48
299.477
299.475
299.472
299.47
299.468
299.467
299.466
299.465
299.464
299.463
299.463
299.463
299.463
299.463
299.463
299.464
299.464
299.465
299.466
299.467
299.468
299.47
299.471
299.473
299.475
299.478
299.481
299.485
299.49
299.497
299.506
299.518
299.535
299.558
299.589
299.632
299.688
299.763
299.86
299.983
300.134
300.314
300.52
300.745
300.981
298.943
299.027
299.111
299.191
299.268
299.341
299.407
299.468
299.523
299.571
299.612
299.648
299.677
299.701
299.719
299.734
299.744
299.75
299.754
299.755
299.754
299.75
299.746
299.739
299.732
299.723
299.714
299.705
299.695
299.684
299.674
299.663
299.652
299.642
299.632
299.621
299.612
299.602
299.593
299.584
299.575
299.567
299.559
299.551
299.544
299.537
299.531
299.525
299.519
299.514
299.509
299.504
299.5
299.496
299.492
299.489
299.486
299.483
299.481
299.479
299.477
299.476
299.474
299.473
299.473
299.472
299.472
299.472
299.472
299.472
299.472
299.473
299.473
299.474
299.475
299.476
299.477
299.479
299.481
299.483
299.485
299.488
299.492
299.497
299.503
299.512
299.524
299.541
299.564
299.596
299.639
299.696
299.772
299.869
299.993
300.144
300.323
300.528
300.75
300.983
298.944
299.033
299.12
299.204
299.285
299.36
299.43
299.493
299.549
299.598
299.641
299.677
299.706
299.73
299.748
299.762
299.771
299.777
299.78
299.78
299.778
299.775
299.769
299.762
299.755
299.746
299.736
299.726
299.716
299.705
299.694
299.683
299.672
299.662
299.651
299.641
299.63
299.62
299.611
299.601
299.592
299.584
299.575
299.567
299.56
299.553
299.546
299.539
299.533
299.528
299.522
299.517
299.513
299.509
299.505
299.501
299.498
299.495
299.492
299.49
299.488
299.486
299.485
299.483
299.482
299.482
299.481
299.481
299.481
299.481
299.481
299.481
299.482
299.483
299.484
299.485
299.486
299.487
299.488
299.49
299.493
299.495
299.499
299.504
299.51
299.519
299.531
299.548
299.571
299.603
299.646
299.704
299.781
299.879
300.002
300.154
300.332
300.535
300.755
300.984
298.946
299.039
299.129
299.217
299.301
299.379
299.451
299.516
299.574
299.625
299.668
299.704
299.734
299.757
299.775
299.788
299.797
299.802
299.804
299.803
299.8
299.796
299.79
299.782
299.774
299.765
299.755
299.745
299.734
299.723
299.712
299.701
299.69
299.679
299.668
299.658
299.647
299.637
299.627
299.618
299.608
299.599
299.591
299.583
299.575
299.567
299.56
299.554
299.547
299.541
299.536
299.53
299.526
299.521
299.517
299.513
299.51
299.506
299.504
299.501
299.499
299.497
299.495
299.494
299.493
299.492
299.491
299.491
299.49
299.49
299.49
299.491
299.491
299.492
299.492
299.493
299.494
299.495
299.497
299.498
299.5
299.503
299.506
299.511
299.517
299.526
299.538
299.555
299.578
299.611
299.654
299.713
299.789
299.888
300.012
300.163
300.341
300.542
300.76
300.986
298.948
299.044
299.138
299.229
299.316
299.397
299.472
299.539
299.599
299.65
299.694
299.73
299.759
299.782
299.799
299.811
299.819
299.823
299.824
299.823
299.819
299.814
299.807
299.799
299.79
299.781
299.771
299.76
299.749
299.738
299.727
299.716
299.705
299.694
299.683
299.673
299.662
299.652
299.642
299.632
299.623
299.614
299.605
299.597
299.589
299.581
299.574
299.567
299.56
299.554
299.548
299.543
299.538
299.533
299.529
299.525
299.521
299.518
299.515
299.512
299.51
299.508
299.506
299.505
299.503
299.502
299.501
299.501
299.5
299.5
299.5
299.5
299.501
299.501
299.502
299.502
299.503
299.504
299.505
299.507
299.509
299.511
299.514
299.519
299.525
299.533
299.546
299.563
299.586
299.618
299.662
299.721
299.798
299.898
300.022
300.172
300.349
300.548
300.764
300.987
298.95
299.049
299.147
299.241
299.331
299.415
299.492
299.561
299.622
299.674
299.718
299.754
299.783
299.805
299.821
299.832
299.839
299.842
299.842
299.839
299.835
299.829
299.822
299.813
299.804
299.794
299.784
299.773
299.762
299.751
299.74
299.729
299.718
299.707
299.696
299.686
299.675
299.665
299.655
299.646
299.636
299.627
299.618
299.61
299.602
299.594
299.587
299.58
299.573
299.567
299.561
299.555
299.55
299.545
299.541
299.537
299.533
299.53
299.527
299.524
299.521
299.519
299.517
299.515
299.514
299.513
299.512
299.511
299.511
299.51
299.51
299.51
299.511
299.511
299.511
299.512
299.513
299.513
299.514
299.516
299.517
299.52
299.523
299.527
299.533
299.541
299.553
299.57
299.594
299.627
299.671
299.73
299.808
299.907
300.031
300.182
300.357
300.555
300.768
300.989
298.952
299.054
299.155
299.253
299.345
299.432
299.511
299.581
299.643
299.696
299.741
299.777
299.805
299.826
299.841
299.851
299.857
299.858
299.857
299.854
299.848
299.842
299.834
299.825
299.815
299.805
299.795
299.784
299.773
299.762
299.751
299.74
299.729
299.718
299.708
299.697
299.687
299.677
299.667
299.657
299.648
299.639
299.63
299.622
299.614
299.606
299.599
299.592
299.585
299.579
299.573
299.567
299.562
299.557
299.553
299.549
299.545
299.541
299.538
299.535
299.533
299.53
299.528
299.527
299.525
299.524
299.523
299.522
299.521
299.521
299.521
299.521
299.521
299.521
299.521
299.522
299.522
299.523
299.524
299.525
299.526
299.528
299.531
299.535
299.541
299.55
299.562
299.579
299.602
299.635
299.679
299.739
299.817
299.916
300.041
300.191
300.365
300.561
300.772
300.99
298.953
299.059
299.163
299.264
299.359
299.448
299.529
299.601
299.664
299.718
299.762
299.798
299.825
299.845
299.859
299.868
299.872
299.873
299.87
299.866
299.86
299.852
299.844
299.834
299.825
299.814
299.804
299.793
299.782
299.771
299.76
299.749
299.739
299.728
299.718
299.707
299.697
299.687
299.678
299.668
299.659
299.65
299.642
299.633
299.625
299.618
299.61
299.603
299.597
299.591
299.585
299.579
299.574
299.569
299.564
299.56
299.556
299.553
299.55
299.547
299.544
299.542
299.54
299.538
299.536
299.535
299.534
299.533
299.532
299.532
299.532
299.531
299.531
299.531
299.532
299.532
299.532
299.533
299.533
299.534
299.536
299.537
299.54
299.544
299.55
299.558
299.57
299.587
299.611
299.644
299.688
299.748
299.826
299.926
300.05
300.199
300.373
300.567
300.776
300.991
298.955
299.064
299.171
299.274
299.372
299.463
299.546
299.62
299.684
299.738
299.782
299.817
299.844
299.863
299.875
299.883
299.886
299.885
299.882
299.876
299.869
299.861
299.852
299.842
299.832
299.822
299.811
299.8
299.79
299.779
299.768
299.757
299.747
299.736
299.726
299.716
299.706
299.696
299.687
299.678
299.669
299.66
299.652
299.644
299.636
299.628
299.621
299.614
299.608
299.602
299.596
299.59
299.585
299.58
299.576
299.572
299.568
299.564
299.561
299.558
299.556
299.553
299.551
299.549
299.548
299.547
299.545
299.544
299.544
299.543
299.543
299.542
299.542
299.542
299.542
299.542
299.542
299.543
299.543
299.544
299.545
299.547
299.549
299.553
299.559
299.567
299.579
299.596
299.62
299.653
299.697
299.757
299.836
299.936
300.059
300.208
300.381
300.573
300.78
300.993
298.956
299.068
299.178
299.284
299.385
299.478
299.562
299.637
299.702
299.756
299.8
299.835
299.86
299.878
299.89
299.896
299.898
299.896
299.891
299.885
299.877
299.869
299.859
299.849
299.839
299.828
299.817
299.807
299.796
299.785
299.775
299.764
299.754
299.744
299.734
299.724
299.714
299.705
299.696
299.687
299.678
299.67
299.662
299.654
299.646
299.639
299.632
299.625
299.619
299.613
299.607
299.602
299.597
299.592
299.587
299.583
299.58
299.576
299.573
299.57
299.567
299.565
299.563
299.561
299.56
299.558
299.557
299.556
299.555
299.555
299.554
299.554
299.553
299.553
299.553
299.553
299.553
299.553
299.553
299.554
299.555
299.556
299.559
299.562
299.568
299.576
299.588
299.605
299.629
299.662
299.707
299.767
299.845
299.945
300.069
300.217
300.388
300.579
300.783
300.994
298.958
299.072
299.185
299.294
299.396
299.492
299.578
299.654
299.719
299.774
299.817
299.851
299.876
299.893
299.903
299.908
299.908
299.905
299.9
299.893
299.884
299.875
299.865
299.855
299.844
299.834
299.823
299.812
299.802
299.791
299.781
299.771
299.761
299.751
299.741
299.731
299.722
299.713
299.704
299.695
299.687
299.679
299.671
299.663
299.656
299.649
299.642
299.636
299.629
299.624
299.618
299.613
299.608
299.603
299.599
299.595
299.591
299.588
299.585
299.582
299.579
299.577
299.575
299.573
299.572
299.57
299.569
299.568
299.567
299.566
299.566
299.565
299.565
299.564
299.564
299.564
299.564
299.564
299.564
299.564
299.565
299.566
299.568
299.572
299.577
299.585
299.597
299.614
299.638
299.671
299.716
299.777
299.855
299.955
300.078
300.226
300.396
300.585
300.787
300.995
298.959
299.076
299.191
299.303
299.408
299.505
299.593
299.67
299.735
299.79
299.833
299.866
299.89
299.906
299.915
299.918
299.918
299.914
299.908
299.9
299.891
299.881
299.871
299.86
299.849
299.839
299.828
299.818
299.807
299.797
299.787
299.777
299.767
299.757
299.748
299.739
299.73
299.721
299.712
299.704
299.696
299.688
299.68
299.673
299.666
299.659
299.652
299.646
299.64
299.634
299.629
299.624
299.619
299.615
299.611
299.607
299.603
299.6
299.597
299.594
299.592
299.589
299.587
299.585
299.584
299.582
299.581
299.58
299.579
299.578
299.577
299.577
299.576
299.576
299.575
299.575
299.575
299.574
299.574
299.574
299.575
299.576
299.578
299.581
299.587
299.595
299.606
299.623
299.647
299.681
299.726
299.786
299.865
299.965
300.088
300.234
300.404
300.591
300.791
300.997
298.96
299.08
299.198
299.311
299.419
299.518
299.607
299.684
299.751
299.805
299.848
299.88
299.903
299.918
299.926
299.928
299.926
299.921
299.914
299.906
299.896
299.886
299.876
299.865
299.854
299.844
299.833
299.823
299.813
299.802
299.793
299.783
299.773
299.764
299.755
299.746
299.737
299.729
299.72
299.712
299.704
299.697
299.689
299.682
299.675
299.669
299.663
299.657
299.651
299.645
299.64
299.635
299.631
299.627
299.622
299.619
299.615
299.612
299.609
299.606
299.604
299.602
299.6
299.598
299.596
299.595
299.594
299.592
299.591
299.59
299.59
299.589
299.588
299.587
299.587
299.586
299.586
299.585
299.585
299.585
299.585
299.586
299.588
299.591
299.596
299.604
299.616
299.633
299.657
299.69
299.736
299.796
299.875
299.975
300.097
300.243
300.411
300.597
300.794
300.998
298.961
299.084
299.204
299.319
299.429
299.529
299.62
299.698
299.765
299.819
299.862
299.893
299.915
299.929
299.936
299.937
299.934
299.929
299.921
299.912
299.902
299.892
299.881
299.87
299.86
299.849
299.838
299.828
299.818
299.808
299.798
299.789
299.78
299.771
299.762
299.753
299.745
299.737
299.729
299.721
299.713
299.706
299.699
299.692
299.685
299.679
299.673
299.667
299.662
299.657
299.652
299.647
299.643
299.638
299.635
299.631
299.628
299.625
299.622
299.619
299.617
299.615
299.613
299.611
299.609
299.608
299.606
299.605
299.604
299.603
299.602
299.601
299.6
299.599
299.599
299.598
299.597
299.596
299.596
299.596
299.596
299.597
299.598
299.601
299.606
299.614
299.626
299.643
299.667
299.7
299.746
299.806
299.885
299.985
300.107
300.252
300.418
300.602
300.798
300.999
298.963
299.087
299.209
299.327
299.438
299.541
299.632
299.711
299.778
299.833
299.875
299.906
299.926
299.939
299.945
299.945
299.942
299.936
299.928
299.918
299.908
299.897
299.887
299.876
299.865
299.854
299.844
299.834
299.824
299.814
299.805
299.796
299.787
299.778
299.769
299.761
299.753
299.745
299.737
299.73
299.723
299.716
299.709
299.702
299.696
299.69
299.684
299.679
299.673
299.668
299.664
299.659
299.655
299.651
299.647
299.644
299.64
299.637
299.635
299.632
299.63
299.628
299.626
299.624
299.622
299.621
299.619
299.618
299.617
299.616
299.615
299.614
299.613
299.612
299.611
299.61
299.609
299.608
299.607
299.607
299.607
299.607
299.608
299.611
299.616
299.624
299.635
299.652
299.677
299.71
299.756
299.817
299.895
299.995
300.116
300.26
300.426
300.608
300.801
301
298.964
299.09
299.215
299.335
299.447
299.551
299.644
299.724
299.791
299.845
299.887
299.917
299.937
299.949
299.954
299.954
299.95
299.943
299.934
299.925
299.914
299.903
299.892
299.882
299.871
299.86
299.85
299.84
299.83
299.821
299.812
299.803
299.794
299.786
299.777
299.769
299.761
299.754
299.747
299.739
299.732
299.726
299.719
299.713
299.707
299.701
299.696
299.69
299.685
299.68
299.676
299.672
299.667
299.664
299.66
299.657
299.654
299.651
299.648
299.646
299.643
299.641
299.639
299.637
299.636
299.634
299.633
299.631
299.63
299.629
299.628
299.626
299.625
299.624
299.623
299.622
299.621
299.619
299.619
299.618
299.617
299.618
299.619
299.622
299.626
299.634
299.646
299.663
299.687
299.721
299.766
299.827
299.906
300.005
300.126
300.269
300.433
300.613
300.805
301.001
298.965
299.093
299.22
299.342
299.456
299.561
299.655
299.735
299.803
299.857
299.898
299.927
299.947
299.958
299.962
299.962
299.957
299.95
299.941
299.931
299.921
299.91
299.899
299.888
299.877
299.867
299.857
299.847
299.837
299.828
299.819
299.81
299.802
299.794
299.786
299.778
299.771
299.763
299.756
299.75
299.743
299.736
299.73
299.724
299.718
299.713
299.708
299.703
299.698
299.693
299.689
299.685
299.681
299.677
299.673
299.67
299.667
299.664
299.662
299.659
299.657
299.655
299.653
299.651
299.65
299.648
299.646
299.645
299.644
299.642
299.641
299.64
299.638
299.637
299.635
299.634
299.633
299.631
299.63
299.629
299.629
299.629
299.63
299.632
299.637
299.644
299.656
299.673
299.697
299.731
299.777
299.838
299.916
300.015
300.135
300.278
300.44
300.619
300.808
301.002
298.966
299.096
299.225
299.348
299.464
299.57
299.665
299.746
299.814
299.868
299.909
299.937
299.956
299.967
299.971
299.97
299.965
299.958
299.949
299.938
299.928
299.917
299.906
299.895
299.884
299.874
299.864
299.854
299.845
299.836
299.827
299.819
299.811
299.803
299.795
299.788
299.781
299.774
299.767
299.76
299.754
299.748
299.742
299.736
299.731
299.725
299.72
299.715
299.711
299.706
299.702
299.698
299.694
299.691
299.687
299.684
299.681
299.679
299.676
299.674
299.671
299.669
299.667
299.665
299.664
299.662
299.66
299.659
299.657
299.656
299.654
299.653
299.651
299.65
299.648
299.647
299.645
299.643
299.642
299.641
299.64
299.64
299.641
299.643
299.647
299.655
299.666
299.683
299.708
299.741
299.787
299.848
299.926
300.025
300.145
300.286
300.448
300.624
300.812
301.004
298.967
299.099
299.229
299.354
299.472
299.579
299.675
299.757
299.824
299.878
299.919
299.947
299.966
299.976
299.979
299.978
299.973
299.966
299.956
299.946
299.935
299.924
299.913
299.903
299.892
299.882
299.872
299.863
299.854
299.845
299.836
299.828
299.82
299.813
299.805
299.798
299.791
299.785
299.778
299.772
299.766
299.76
299.754
299.749
299.743
299.738
299.733
299.729
299.724
299.72
299.716
299.712
299.709
299.705
299.702
299.699
299.696
299.693
299.691
299.688
299.686
299.684
299.682
299.68
299.678
299.677
299.675
299.673
299.672
299.67
299.668
299.667
299.665
299.663
299.661
299.659
299.658
299.656
299.654
299.653
299.652
299.651
299.652
299.654
299.658
299.665
299.677
299.694
299.718
299.752
299.798
299.859
299.937
300.035
300.154
300.295
300.455
300.63
300.815
301.005
298.967
299.102
299.234
299.36
299.479
299.588
299.684
299.767
299.835
299.888
299.928
299.956
299.975
299.985
299.988
299.986
299.981
299.974
299.964
299.954
299.943
299.932
299.922
299.911
299.901
299.891
299.881
299.872
299.863
299.854
299.846
299.838
299.831
299.823
299.816
299.809
299.803
299.796
299.79
299.784
299.778
299.773
299.767
299.762
299.757
299.752
299.747
299.743
299.739
299.734
299.731
299.727
299.723
299.72
299.717
299.714
299.711
299.708
299.706
299.703
299.701
299.699
299.697
299.695
299.693
299.691
299.689
299.688
299.686
299.684
299.682
299.681
299.679
299.677
299.675
299.673
299.67
299.668
299.666
299.665
299.663
299.663
299.663
299.665
299.669
299.676
299.688
299.704
299.729
299.763
299.809
299.869
299.947
300.045
300.164
300.303
300.462
300.635
300.818
301.006
298.968
299.104
299.238
299.366
299.486
299.596
299.693
299.776
299.844
299.897
299.937
299.965
299.984
299.993
299.997
299.995
299.99
299.982
299.973
299.963
299.952
299.941
299.93
299.92
299.91
299.9
299.89
299.881
299.873
299.865
299.857
299.849
299.842
299.835
299.828
299.821
299.815
299.809
299.803
299.797
299.791
299.786
299.781
299.776
299.771
299.766
299.762
299.757
299.753
299.749
299.746
299.742
299.739
299.735
299.732
299.729
299.726
299.724
299.721
299.719
299.717
299.714
299.712
299.71
299.708
299.706
299.704
299.703
299.701
299.699
299.697
299.695
299.693
299.691
299.688
299.686
299.684
299.681
299.679
299.677
299.675
299.674
299.675
299.676
299.68
299.687
299.698
299.715
299.74
299.773
299.819
299.88
299.958
300.055
300.173
300.312
300.469
300.64
300.822
301.007
298.969
299.107
299.242
299.372
299.493
299.604
299.702
299.785
299.853
299.906
299.946
299.975
299.993
300.002
300.006
300.004
299.999
299.991
299.982
299.972
299.961
299.951
299.94
299.93
299.92
299.91
299.901
299.892
299.883
299.875
299.868
299.86
299.853
299.847
299.84
299.834
299.828
299.822
299.816
299.811
299.805
299.8
299.795
299.79
299.786
299.781
299.777
299.773
299.769
299.765
299.761
299.758
299.754
299.751
299.748
299.745
299.742
299.74
299.737
299.735
299.732
299.73
299.728
299.726
299.724
299.722
299.72
299.718
299.716
299.714
299.712
299.709
299.707
299.705
299.702
299.7
299.697
299.694
299.692
299.69
299.688
299.686
299.686
299.688
299.691
299.698
299.709
299.726
299.75
299.784
299.83
299.891
299.968
300.065
300.183
300.32
300.476
300.646
300.825
301.008
298.97
299.109
299.246
299.377
299.5
299.611
299.71
299.794
299.862
299.915
299.955
299.983
300.002