/*--------------------------------*- C++ -*----------------------------------*\
  =========                 |
  \\      /  F ield         | OpenFOAM: The Open Source CFD Toolbox
   \\    /   O peration     | Website:  https://openfoam.org
    \\  /    A nd           | Version:  6
     \\/     M anipulation  |
\*---------------------------------------------------------------------------*/
FoamFile
{
    version     2.0;
    format      ascii;
    class       volVectorField;
    location    "0";
    object      U;
}
// * * * * * * * * * * * * * * * * * * * * * * * * * * * * * * * * * * * * * //

dimensions      [0 1 -1 0 0 0 0];

internalField   nonuniform List<vector> 
10000
(
(-5.41236e-07 -1.25091e-07 0)
(5.17457e-05 -1.04644e-05 0)
(0.000166345 -1.97847e-05 0)
(0.000329539 -2.70581e-05 0)
(0.000531304 -3.24263e-05 0)
(0.000761538 -3.59507e-05 0)
(0.00101 -3.76138e-05 0)
(0.00126649 -3.74202e-05 0)
(0.00152117 -3.5479e-05 0)
(0.00176507 -3.20197e-05 0)
(0.00199049 -2.73668e-05 0)
(0.00219133 -2.18974e-05 0)
(0.00236313 -1.59978e-05 0)
(0.00250315 -1.00283e-05 0)
(0.00261026 -4.30221e-06 0)
(0.00268469 9.20532e-07 0)
(0.00272795 5.42384e-06 0)
(0.00274238 9.01466e-06 0)
(0.00273172 1.21087e-05 0)
(0.00269826 1.48861e-05 0)
(0.00264476 1.69655e-05 0)
(0.00257436 1.8369e-05 0)
(0.00249012 1.92102e-05 0)
(0.00239489 1.95868e-05 0)
(0.00229126 1.95856e-05 0)
(0.00218156 1.92815e-05 0)
(0.00206786 1.87392e-05 0)
(0.00195198 1.80168e-05 0)
(0.00183546 1.71632e-05 0)
(0.00171962 1.62182e-05 0)
(0.00160558 1.52176e-05 0)
(0.00149422 1.41906e-05 0)
(0.00138628 1.31584e-05 0)
(0.00128232 1.21377e-05 0)
(0.00118276 1.11436e-05 0)
(0.00108791 1.01861e-05 0)
(0.000997983 9.27042e-06 0)
(0.000913092 8.40064e-06 0)
(0.000833287 7.58061e-06 0)
(0.000758559 6.81148e-06 0)
(0.000688851 6.09184e-06 0)
(0.000624065 5.42027e-06 0)
(0.000564075 4.7962e-06 0)
(0.000508732 4.21837e-06 0)
(0.00045787 3.68397e-06 0)
(0.000411308 3.18992e-06 0)
(0.000368853 2.73426e-06 0)
(0.000330312 2.31554e-06 0)
(0.000295485 1.9316e-06 0)
(0.000264174 1.57956e-06 0)
(0.000236179 1.25682e-06 0)
(0.000211305 9.61618e-07 0)
(0.000189365 6.92407e-07 0)
(0.000170177 4.47125e-07 0)
(0.000153567 2.23267e-07 0)
(0.000139371 1.84504e-08 0)
(0.000127436 -1.69308e-07 0)
(0.000117623 -3.41836e-07 0)
(0.000109805 -5.01191e-07 0)
(0.000103872 -6.49823e-07 0)
(9.97289e-05 -7.90483e-07 0)
(9.72977e-05 -9.26049e-07 0)
(9.65197e-05 -1.05936e-06 0)
(9.73598e-05 -1.18982e-06 0)
(9.97903e-05 -1.31674e-06 0)
(0.000103799 -1.44358e-06 0)
(0.000109385 -1.57472e-06 0)
(0.000116576 -1.71477e-06 0)
(0.000125429 -1.86902e-06 0)
(0.000136043 -2.04312e-06 0)
(0.000148552 -2.24329e-06 0)
(0.000163135 -2.47678e-06 0)
(0.000180021 -2.75217e-06 0)
(0.000199494 -3.07984e-06 0)
(0.000221898 -3.47233e-06 0)
(0.000247654 -3.9447e-06 0)
(0.00027726 -4.5148e-06 0)
(0.000311303 -5.20362e-06 0)
(0.000350458 -6.03495e-06 0)
(0.000395492 -7.03456e-06 0)
(0.000447244 -8.22843e-06 0)
(0.000506595 -9.63981e-06 0)
(0.00057442 -1.12847e-05 0)
(0.000651496 -1.31652e-05 0)
(0.000738379 -1.52613e-05 0)
(0.000835231 -1.75197e-05 0)
(0.000941593 -1.98426e-05 0)
(0.00105611 -2.20753e-05 0)
(0.0011762 -2.39936e-05 0)
(0.00129769 -2.52907e-05 0)
(0.00141445 -2.55565e-05 0)
(0.00151793 -2.42433e-05 0)
(0.00159665 -2.05788e-05 0)
(0.00163521 -1.35932e-05 0)
(0.00161474 -1.60025e-06 0)
(0.00150953 1.7657e-05 0)
(0.00129395 4.50783e-05 0)
(0.000951229 7.808e-05 0)
(0.000507779 0.000104039 0)
(9.57492e-05 9.0904e-05 0)
(9.49616e-06 -5.25922e-05 0)
(0.000159291 -0.000166393 0)
(0.000443475 -0.000267176 0)
(0.000835482 -0.000349274 0)
(0.00131354 -0.000412539 0)
(0.00185603 -0.00045675 0)
(0.00244088 -0.000481801 0)
(0.00304639 -0.0004881 0)
(0.00365194 -0.000476844 0)
(0.00423877 -0.000450021 0)
(0.00479064 -0.000410233 0)
(0.0052942 -0.000360452 0)
(0.00573922 -0.000303767 0)
(0.00611858 -0.00024317 0)
(0.00642811 -0.000181414 0)
(0.00666632 -0.000120929 0)
(0.0068341 -6.37935e-05 0)
(0.00693462 -1.17666e-05 0)
(0.00697161 3.43526e-05 0)
(0.00695384 7.53022e-05 0)
(0.0068852 0.000111212 0)
(0.00677176 0.00014147 0)
(0.00661961 0.000166236 0)
(0.00643471 0.000185875 0)
(0.00622276 0.000200818 0)
(0.00598914 0.000211531 0)
(0.00573885 0.000218486 0)
(0.00547643 0.000222151 0)
(0.00520596 0.000222976 0)
(0.0049311 0.000221388 0)
(0.00465502 0.000217782 0)
(0.00438046 0.000212519 0)
(0.00410977 0.000205927 0)
(0.00384491 0.000198294 0)
(0.00358749 0.000189873 0)
(0.00333881 0.000180883 0)
(0.00309987 0.000171512 0)
(0.00287145 0.000161917 0)
(0.00265411 0.000152232 0)
(0.00244819 0.000142566 0)
(0.00225392 0.000133006 0)
(0.00207136 0.000123626 0)
(0.00190045 0.000114484 0)
(0.00174106 0.000105623 0)
(0.00159297 9.70789e-05 0)
(0.00145589 8.88763e-05 0)
(0.00132948 8.10336e-05 0)
(0.00121337 7.3563e-05 0)
(0.00110715 6.64704e-05 0)
(0.00101039 5.97563e-05 0)
(0.00092265 5.34176e-05 0)
(0.000843484 4.74476e-05 0)
(0.000772446 4.1836e-05 0)
(0.000709096 3.65688e-05 0)
(0.000653004 3.16287e-05 0)
(0.000603759 2.69956e-05 0)
(0.000560972 2.26476e-05 0)
(0.000524281 1.856e-05 0)
(0.000493353 1.47053e-05 0)
(0.00046789 1.10535e-05 0)
(0.00044763 7.57161e-06 0)
(0.000432352 4.22406e-06 0)
(0.000421884 9.72682e-07 0)
(0.000416097 -2.21893e-06 0)
(0.000414936 -5.37325e-06 0)
(0.000418362 -8.50886e-06 0)
(0.000426356 -1.16661e-05 0)
(0.000438956 -1.49045e-05 0)
(0.000456277 -1.82896e-05 0)
(0.000478517 -2.18935e-05 0)
(0.000505969 -2.57956e-05 0)
(0.000539023 -3.00842e-05 0)
(0.000578181 -3.48584e-05 0)
(0.000624064 -4.02301e-05 0)
(0.000677427 -4.63255e-05 0)
(0.000739168 -5.32857e-05 0)
(0.00081034 -6.12642e-05 0)
(0.00089215 -7.0422e-05 0)
(0.000985953 -8.09175e-05 0)
(0.00109322 -9.28892e-05 0)
(0.0012155 -0.000106429 0)
(0.00135429 -0.000121542 0)
(0.00151093 -0.000138099 0)
(0.00168638 -0.000155762 0)
(0.00188087 -0.000173908 0)
(0.0020936 -0.000191535 0)
(0.00232216 -0.000207166 0)
(0.00256201 -0.00021876 0)
(0.00280578 -0.000223642 0)
(0.00304255 -0.000218448 0)
(0.00325716 -0.00019907 0)
(0.0034295 -0.000160585 0)
(0.00353367 -9.70434e-05 0)
(0.00353787 -1.34736e-06 0)
(0.00340278 0.000135124 0)
(0.00308549 0.000316711 0)
(0.00255244 0.000532159 0)
(0.00179841 0.000735355 0)
(0.000907226 0.000808397 0)
(0.000131076 0.000519726 0)
(1.6039e-05 -0.000158772 0)
(0.000236347 -0.000443431 0)
(0.000637107 -0.000686347 0)
(0.00118117 -0.000884952 0)
(0.00183903 -0.00103901 0)
(0.00258238 -0.001148 0)
(0.0033827 -0.00121198 0)
(0.00421249 -0.00123236 0)
(0.00504599 -0.00121216 0)
(0.00586 -0.00115592 0)
(0.0066344 -0.00106929 0)
(0.00735244 -0.000958577 0)
(0.00800091 -0.000830298 0)
(0.00857002 -0.000690783 0)
(0.00905322 -0.000545918 0)
(0.00944697 -0.000400971 0)
(0.00975034 -0.00026052 0)
(0.00996478 -0.000128406 0)
(0.0100935 -7.9914e-06 0)
(0.0101415 9.98504e-05 0)
(0.0101182 0.000195866 0)
(0.0100292 0.000279637 0)
(0.00988204 0.000351021 0)
(0.00968389 0.000410444 0)
(0.00944181 0.000458555 0)
(0.00916272 0.000496147 0)
(0.00885316 0.000524106 0)
(0.00851934 0.000543366 0)
(0.00816699 0.000554872 0)
(0.00780137 0.000559563 0)
(0.00742724 0.000558343 0)
(0.00704888 0.000552069 0)
(0.00667005 0.000541544 0)
(0.00629404 0.000527503 0)
(0.00592367 0.000510611 0)
(0.00556136 0.000491466 0)
(0.00520911 0.000470596 0)
(0.00486856 0.000448463 0)
(0.00454103 0.000425468 0)
(0.00422752 0.000401955 0)
(0.0039288 0.000378218 0)
(0.00364539 0.000354504 0)
(0.00337759 0.000331019 0)
(0.00312555 0.000307933 0)
(0.00288926 0.000285388 0)
(0.00266857 0.000263495 0)
(0.00246324 0.000242344 0)
(0.00227291 0.000222 0)
(0.00209717 0.000202513 0)
(0.00193555 0.000183915 0)
(0.00178752 0.000166222 0)
(0.00165254 0.00014944 0)
(0.00153003 0.000133557 0)
(0.00141941 0.000118555 0)
(0.00132012 0.000104401 0)
(0.00123157 9.1056e-05 0)
(0.00115322 7.8471e-05 0)
(0.00108455 6.65882e-05 0)
(0.00102509 5.53418e-05 0)
(0.000974372 4.46585e-05 0)
(0.000932015 3.44578e-05 0)
(0.000897672 2.46511e-05 0)
(0.000871062 1.51423e-05 0)
(0.00085197 5.82738e-06 0)
(0.000840236 -3.39097e-06 0)
(0.00083585 -1.25669e-05 0)
(0.0008388 -2.17623e-05 0)
(0.000849081 -3.11095e-05 0)
(0.000866797 -4.07802e-05 0)
(0.000892164 -5.09533e-05 0)
(0.000925519 -6.18242e-05 0)
(0.000967328 -7.36072e-05 0)
(0.0010182 -8.65379e-05 0)
(0.00107888 -0.000100876 0)
(0.00115028 -0.000116906 0)
(0.00123347 -0.000134937 0)
(0.00132968 -0.00015529 0)
(0.00144031 -0.000178284 0)
(0.00156687 -0.000204206 0)
(0.00171094 -0.000233264 0)
(0.00187411 -0.00026552 0)
(0.0020578 -0.000300798 0)
(0.00226307 -0.000338558 0)
(0.00249033 -0.000377745 0)
(0.00273898 -0.0004166 0)
(0.00300688 -0.000452466 0)
(0.00328977 -0.000481577 0)
(0.0035805 -0.000498879 0)
(0.0038683 -0.000497889 0)
(0.00413784 -0.000470619 0)
(0.00436847 -0.000407562 0)
(0.00453346 -0.000297717 0)
(0.00459935 -0.000128588 0)
(0.00452641 0.000114178 0)
(0.004268 0.000442432 0)
(0.00378332 0.000853206 0)
(0.00304889 0.00130814 0)
(0.00208333 0.00169595 0)
(0.00101017 0.00177043 0)
(0.000127583 0.00107483 0)
(1.87721e-05 -0.000295873 0)
(0.000281199 -0.000794982 0)
(0.000755505 -0.00121183 0)
(0.00139572 -0.00155112 0)
(0.0021664 -0.00181416 0)
(0.00303461 -0.00200101 0)
(0.00396797 -0.00211267 0)
(0.00493589 -0.00215227 0)
(0.0059103 -0.00212532 0)
(0.00686627 -0.00203944 0)
(0.00778238 -0.00190371 0)
(0.00864088 -0.00172801 0)
(0.00942762 -0.00152237 0)
(0.0101319 -0.00129649 0)
(0.0107462 -0.00105934 0)
(0.0112657 -0.000818996 0)
(0.0116883 -0.000582463 0)
(0.0120137 -0.000355663 0)
(0.012244 -0.000143597 0)
(0.0123808 4.9693e-05 0)
(0.0124325 0.00022298 0)
(0.0124056 0.000376861 0)
(0.0123072 0.000510942 0)
(0.0121448 0.000625586 0)
(0.0119259 0.000721543 0)
(0.0116575 0.000799806 0)
(0.0113469 0.000861551 0)
(0.0110007 0.000908078 0)
(0.0106254 0.000940758 0)
(0.0102272 0.000960993 0)
(0.00981163 0.000970176 0)
(0.0093839 0.000969668 0)
(0.00894875 0.000960767 0)
(0.00851044 0.000944699 0)
(0.00807276 0.000922604 0)
(0.00763907 0.000895526 0)
(0.00721227 0.000864414 0)
(0.00679488 0.00083012 0)
(0.006389 0.000793403 0)
(0.00599641 0.000754933 0)
(0.00561854 0.000715294 0)
(0.00525652 0.000674996 0)
(0.0049112 0.000634477 0)
(0.00458321 0.00059411 0)
(0.00427293 0.000554215 0)
(0.00398057 0.000515055 0)
(0.00370615 0.000476849 0)
(0.00344957 0.000439774 0)
(0.00321057 0.000403968 0)
(0.00298883 0.000369537 0)
(0.0027839 0.000336552 0)
(0.00259527 0.000305059 0)
(0.0024224 0.000275073 0)
(0.00226471 0.000246589 0)
(0.00212157 0.000219576 0)
(0.00199236 0.000193986 0)
(0.00187648 0.000169747 0)
(0.00177333 0.000146774 0)
(0.00168233 0.000124963 0)
(0.00160295 0.000104194 0)
(0.0015347 8.43349e-05 0)
(0.00147715 6.52354e-05 0)
(0.00142992 4.67325e-05 0)
(0.00139272 2.86484e-05 0)
(0.00136533 1.07908e-05 0)
(0.00134757 -7.01687e-06 0)
(0.00133956 -2.48562e-05 0)
(0.00134128 -4.28705e-05 0)
(0.00135277 -6.13433e-05 0)
(0.00137417 -8.05884e-05 0)
(0.00140579 -0.000100935 0)
(0.00144804 -0.000122739 0)
(0.0015015 -0.000146384 0)
(0.00156688 -0.000172286 0)
(0.00164506 -0.00020089 0)
(0.00173703 -0.000232664 0)
(0.00184395 -0.000268076 0)
(0.00196708 -0.000307569 0)
(0.00210775 -0.000351503 0)
(0.00226732 -0.000400075 0)
(0.002447 -0.00045321 0)
(0.00264777 -0.000510404 0)
(0.00287011 -0.000570522 0)
(0.0031137 -0.000631555 0)
(0.00337699 -0.000690327 0)
(0.00365672 -0.000742177 0)
(0.00394724 -0.000780639 0)
(0.00423976 -0.000797157 0)
(0.00452151 -0.000780875 0)
(0.00477487 -0.000718561 0)
(0.00497648 -0.000594673 0)
(0.00509666 -0.000391635 0)
(0.00509921 -9.02442e-05 0)
(0.00494155 0.000329439 0)
(0.00458044 0.000876696 0)
(0.00398252 0.00153404 0)
(0.00313856 0.00222737 0)
(0.00208809 0.00277188 0)
(0.000975777 0.00279194 0)
(0.000110401 0.00162944 0)
(1.9291e-05 -0.000448737 0)
(0.000304135 -0.00118948 0)
(0.000822052 -0.00180115 0)
(0.00152099 -0.00229632 0)
(0.00236096 -0.00267901 0)
(0.00330525 -0.00295083 0)
(0.00431858 -0.00311462 0)
(0.00536834 -0.00317604 0)
(0.00642521 -0.00314381 0)
(0.00746372 -0.00302913 0)
(0.00846237 -0.00284487 0)
(0.00940362 -0.00260462 0)
(0.0102737 -0.00232197 0)
(0.0110623 -0.00200982 0)
(0.0117619 -0.00168007 0)
(0.012368 -0.0013433 0)
(0.0128779 -0.00100869 0)
(0.013291 -0.000683965 0)
(0.013608 -0.000375494 0)
(0.0138314 -8.90756e-05 0)
(0.0139623 0.000171503 0)
(0.0140093 0.000405099 0)
(0.0139782 0.000611779 0)
(0.013876 0.000791796 0)
(0.0137095 0.000945905 0)
(0.0134858 0.00107519 0)
(0.0132115 0.00118098 0)
(0.0128932 0.00126481 0)
(0.0125375 0.00132837 0)
(0.0121505 0.00137339 0)
(0.011738 0.00140166 0)
(0.0113055 0.00141496 0)
(0.0108581 0.00141502 0)
(0.0104007 0.0014035 0)
(0.00993737 0.00138199 0)
(0.00947224 0.00135197 0)
(0.00900881 0.0013148 0)
(0.00855022 0.00127174 0)
(0.00809926 0.00122394 0)
(0.00765835 0.00117243 0)
(0.00722955 0.00111813 0)
(0.00681461 0.00106186 0)
(0.00641497 0.00100434 0)
(0.0060318 0.000946223 0)
(0.00566599 0.000888044 0)
(0.00531821 0.000830285 0)
(0.00498888 0.00077335 0)
(0.00467828 0.000717579 0)
(0.00438647 0.000663253 0)
(0.00411338 0.000610594 0)
(0.00385881 0.000559776 0)
(0.00362245 0.000510922 0)
(0.00340388 0.000464111 0)
(0.00320265 0.000419381 0)
(0.00301821 0.000376731 0)
(0.00285001 0.000336123 0)
(0.00269747 0.000297487 0)
(0.00255998 0.000260721 0)
(0.00243698 0.000225698 0)
(0.0023279 0.00019226 0)
(0.00223222 0.000160228 0)
(0.00214945 0.000129396 0)
(0.00207917 9.95365e-05 0)
(0.002021 7.03981e-05 0)
(0.00197466 4.17088e-05 0)
(0.00193996 1.3168e-05 0)
(0.00191667 -1.54864e-05 0)
(0.00190516 -4.43568e-05 0)
(0.00190531 -7.37083e-05 0)
(0.00191716 -0.00010401 0)
(0.0019409 -0.000135731 0)
(0.00197685 -0.000169364 0)
(0.00202543 -0.00020543 0)
(0.00208721 -0.000244484 0)
(0.00216287 -0.000287107 0)
(0.00225322 -0.00033389 0)
(0.00235915 -0.000385409 0)
(0.00248162 -0.00044217 0)
(0.00262159 -0.000504539 0)
(0.00277998 -0.000572623 0)
(0.00295752 -0.000646118 0)
(0.00315459 -0.000724091 0)
(0.00337103 -0.000804711 0)
(0.0036058 -0.000884908 0)
(0.00385661 -0.000959981 0)
(0.00411938 -0.00102316 0)
(0.00438764 -0.00106517 0)
(0.00465175 -0.00107383 0)
(0.00489811 -0.00103382 0)
(0.00510825 -0.000926553 0)
(0.00525808 -0.000730466 0)
(0.00531748 -0.000421639 0)
(0.00525028 2.5302e-05 0)
(0.00501531 0.0006318 0)
(0.00457678 0.00140038 0)
(0.00391011 0.00229476 0)
(0.00301937 0.00320064 0)
(0.00195965 0.00385945 0)
(0.000883801 0.00377754 0)
(8.98254e-05 0.00213591 0)
(1.89108e-05 -0.0006087 0)
(0.000315183 -0.00160782 0)
(0.000858834 -0.00242866 0)
(0.00159391 -0.00309005 0)
(0.00247678 -0.00359896 0)
(0.00346738 -0.00395923 0)
(0.00452779 -0.0041764 0)
(0.00562369 -0.00425952 0)
(0.00672491 -0.00422127 0)
(0.00780582 -0.00407708 0)
(0.00884536 -0.00384403 0)
(0.00982682 -0.0035397 0)
(0.0107374 -0.00318129 0)
(0.011568 -0.00278494 0)
(0.012312 -0.00236526 0)
(0.0129658 -0.00193513 0)
(0.0135273 -0.0015056 0)
(0.0139962 -0.00108593 0)
(0.0143734 -0.000683689 0)
(0.0146608 -0.00030505 0)
(0.0148598 4.44308e-05 0)
(0.0149743 0.00036091 0)
(0.01501 0.000644023 0)
(0.0149729 0.000893976 0)
(0.0148691 0.00111148 0)
(0.0147046 0.00129763 0)
(0.0144857 0.00145383 0)
(0.0142181 0.00158175 0)
(0.0139079 0.00168326 0)
(0.0135607 0.00176031 0)
(0.013182 0.00181498 0)
(0.012777 0.00184934 0)
(0.0123509 0.00186545 0)
(0.0119083 0.00186531 0)
(0.0114537 0.00185086 0)
(0.0109911 0.00182395 0)
(0.0105243 0.00178631 0)
(0.010057 0.00173956 0)
(0.00959216 0.00168518 0)
(0.0091327 0.00162457 0)
(0.00868115 0.00155896 0)
(0.00823975 0.00148951 0)
(0.00781042 0.00141723 0)
(0.00739483 0.00134305 0)
(0.00699436 0.00126778 0)
(0.00661015 0.00119214 0)
(0.0062431 0.00111675 0)
(0.00589386 0.00104217 0)
(0.00556293 0.000968854 0)
(0.00525058 0.000897186 0)
(0.00495693 0.00082748 0)
(0.00468197 0.000759981 0)
(0.00442554 0.000694866 0)
(0.00418739 0.000632255 0)
(0.00396717 0.000572207 0)
(0.00376448 0.000514728 0)
(0.00357884 0.000459774 0)
(0.00340977 0.000407256 0)
(0.00325675 0.00035704 0)
(0.00311926 0.000308952 0)
(0.00299681 0.000262782 0)
(0.00288891 0.000218284 0)
(0.00279511 0.000175178 0)
(0.00271503 0.000133151 0)
(0.00264831 9.18586e-05 0)
(0.0025947 5.09263e-05 0)
(0.00255401 9.92367e-06 0)
(0.00252604 -3.14524e-05 0)
(0.0025113 -7.33428e-05 0)
(0.00250956 -0.000116184 0)
(0.00252085 -0.000160617 0)
(0.00254534 -0.000207255 0)
(0.00258327 -0.000256737 0)
(0.00263498 -0.000309725 0)
(0.0027009 -0.000366899 0)
(0.00278155 -0.000428935 0)
(0.00287747 -0.000496461 0)
(0.00298924 -0.000569996 0)
(0.00311739 -0.00064985 0)
(0.00326233 -0.000735984 0)
(0.00342426 -0.000827807 0)
(0.00360301 -0.000923915 0)
(0.00379781 -0.00102175 0)
(0.00400707 -0.00111716 0)
(0.00422792 -0.00120396 0)
(0.00445584 -0.00127328 0)
(0.00468396 -0.00131313 0)
(0.00490242 -0.00130781 0)
(0.00509755 -0.00123763 0)
(0.00525106 -0.00107887 0)
(0.00533928 -0.000804266 0)
(0.00533328 -0.000384135 0)
(0.00519827 0.000211649 0)
(0.00489849 0.00100249 0)
(0.00440473 0.00198176 0)
(0.00370145 0.00309173 0)
(0.0028036 0.0041764 0)
(0.00177691 0.00490701 0)
(0.000774009 0.00468771 0)
(7.03632e-05 0.00257974 0)
(1.84468e-05 -0.000771908 0)
(0.000321498 -0.00203998 0)
(0.000881869 -0.00307984 0)
(0.00164075 -0.00391436 0)
(0.00255134 -0.00455304 0)
(0.00357036 -0.00500244 0)
(0.0046574 -0.00527156 0)
(0.00577654 -0.00537374 0)
(0.0068969 -0.00532643 0)
(0.00799292 -0.00514999 0)
(0.00904423 -0.00486619 0)
(0.0100352 -0.00449695 0)
(0.0109544 -0.00406327 0)
(0.0117942 -0.00358451 0)
(0.0125495 -0.00307795 0)
(0.0132179 -0.0025586 0)
(0.0137987 -0.00203917 0)
(0.0142924 -0.00153015 0)
(0.0147007 -0.00104 0)
(0.0150257 -0.000575426 0)
(0.01527 -0.000142213 0)
(0.015435 0.000254907 0)
(0.0155251 0.000613126 0)
(0.0155453 0.0009326 0)
(0.0155007 0.00121403 0)
(0.0153964 0.00145848 0)
(0.0152375 0.00166738 0)
(0.0150292 0.00184247 0)
(0.0147764 0.0019857 0)
(0.0144842 0.00209919 0)
(0.0141572 0.00218516 0)
(0.0138001 0.00224588 0)
(0.0134176 0.00228363 0)
(0.0130138 0.00230066 0)
(0.0125929 0.00229914 0)
(0.0121588 0.00228118 0)
(0.0117153 0.00224878 0)
(0.0112659 0.00220385 0)
(0.0108137 0.00214816 0)
(0.0103618 0.00208338 0)
(0.00991298 0.00201103 0)
(0.00946972 0.00193255 0)
(0.00903428 0.00184922 0)
(0.00860869 0.00176225 0)
(0.00819471 0.00167269 0)
(0.00779387 0.00158153 0)
(0.00740747 0.00148962 0)
(0.00703659 0.00139773 0)
(0.0066821 0.00130653 0)
(0.00634465 0.00121658 0)
(0.00602474 0.00112838 0)
(0.00572267 0.00104231 0)
(0.00543861 0.000958691 0)
(0.00517259 0.00087775 0)
(0.00492452 0.000799644 0)
(0.0046942 0.000724454 0)
(0.00448138 0.000652195 0)
(0.00428572 0.000582815 0)
(0.00410684 0.000516206 0)
(0.00394433 0.000452201 0)
(0.00379778 0.000390585 0)
(0.00366676 0.000331093 0)
(0.00355085 0.000273415 0)
(0.00344967 0.000217195 0)
(0.00336286 0.000162039 0)
(0.00329011 0.000107508 0)
(0.00323117 5.31172e-05 0)
(0.00318581 -1.68353e-06 0)
(0.00315404 -5.71622e-05 0)
(0.00313621 -0.000113557 0)
(0.00313203 -0.000171513 0)
(0.00314151 -0.000231773 0)
(0.00316469 -0.000295059 0)
(0.00320166 -0.000362112 0)
(0.00325259 -0.000433673 0)
(0.00331765 -0.000510455 0)
(0.00339704 -0.000593096 0)
(0.00349093 -0.000682081 0)
(0.0035994 -0.000777623 0)
(0.00372241 -0.000879497 0)
(0.00385966 -0.000986803 0)
(0.00401046 -0.00109766 0)
(0.00417359 -0.0012088 0)
(0.004347 -0.00131507 0)
(0.00452752 -0.00140882 0)
(0.00471038 -0.0014793 0)
(0.0048887 -0.00151191 0)
(0.00505276 -0.00148764 0)
(0.00518935 -0.00138272 0)
(0.00528094 -0.00116864 0)
(0.00530511 -0.00081295 0)
(0.00523487 -0.000280973 0)
(0.00503805 0.000460001 0)
(0.00468529 0.00142534 0)
(0.00415345 0.00259778 0)
(0.00343514 0.00389663 0)
(0.0025538 0.00512457 0)
(0.00158166 0.00588845 0)
(0.000665952 0.00550743 0)
(5.38736e-05 0.00295974 0)
(1.82664e-05 -0.000937474 0)
(0.000327114 -0.00248206 0)
(0.000900564 -0.0037478 0)
(0.00167703 -0.00475961 0)
(0.00260656 -0.00552908 0)
(0.00364276 -0.00606582 0)
(0.00474288 -0.00638311 0)
(0.00586955 -0.00649948 0)
(0.00699138 -0.00643803 0)
(0.00808308 -0.00622469 0)
(0.00912515 -0.0058865 0)
(0.0101033 -0.00545005 0)
(0.0110076 -0.00494033 0)
(0.0118319 -0.00438 0)
(0.0125732 -0.00378898 0)
(0.0132304 -0.00318429 0)
(0.0138043 -0.0025801 0)
(0.0142967 -0.00198794 0)
(0.0147103 -0.00141692 0)
(0.0150481 -0.000874112 0)
(0.0153132 -0.000365018 0)
(0.0155083 0.000105771 0)
(0.0156351 0.000533747 0)
(0.0156981 0.000918342 0)
(0.0157016 0.00126031 0)
(0.0156497 0.00156069 0)
(0.0155465 0.00182091 0)
(0.0153962 0.00204274 0)
(0.0152028 0.0022282 0)
(0.0149703 0.00237948 0)
(0.0147026 0.00249891 0)
(0.0144036 0.00258886 0)
(0.014077 0.00265173 0)
(0.0137265 0.00268991 0)
(0.0133557 0.00270571 0)
(0.012968 0.00270141 0)
(0.0125666 0.00267919 0)
(0.0121549 0.00264112 0)
(0.0117359 0.00258918 0)
(0.0113125 0.00252523 0)
(0.0108874 0.00245101 0)
(0.0104632 0.00236817 0)
(0.0100422 0.00227823 0)
(0.00962679 0.0021826 0)
(0.00921881 0.00208258 0)
(0.00882009 0.00197936 0)
(0.00843224 0.00187402 0)
(0.00805664 0.00176754 0)
(0.00769449 0.00166079 0)
(0.00734681 0.00155455 0)
(0.00701441 0.00144946 0)
(0.00669794 0.00134611 0)
(0.00639787 0.00124495 0)
(0.00611455 0.00114636 0)
(0.00584817 0.0010506 0)
(0.00559881 0.000957873 0)
(0.00536642 0.000868268 0)
(0.0051509 0.000781807 0)
(0.00495206 0.000698434 0)
(0.00476963 0.000618019 0)
(0.00460333 0.000540368 0)
(0.00445283 0.000465225 0)
(0.0043178 0.000392274 0)
(0.0041979 0.000321148 0)
(0.00409279 0.000251424 0)
(0.00400216 0.000182631 0)
(0.00392569 0.000114243 0)
(0.00386318 4.56562e-05 0)
(0.00381416 -2.37424e-05 0)
(0.00377919 -9.41333e-05 0)
(0.00375806 -0.000165915 0)
(0.00375052 -0.000239898 0)
(0.00375645 -0.00031687 0)
(0.00377571 -0.000397605 0)
(0.0038082 -0.000482866 0)
(0.00385378 -0.000573369 0)
(0.00391233 -0.000669724 0)
(0.00398363 -0.000772345 0)
(0.00406737 -0.00088132 0)
(0.00416308 -0.000996221 0)
(0.00427004 -0.00111584 0)
(0.00438717 -0.00123784 0)
(0.00451287 -0.00135829 0)
(0.00464481 -0.00147112 0)
(0.00477963 -0.00156737 0)
(0.00491255 -0.00163452 0)
(0.00503684 -0.00165561 0)
(0.00514323 -0.00160862 0)
(0.00521923 -0.00146601 0)
(0.00524844 -0.00119493 0)
(0.00521019 -0.000758348 0)
(0.0050795 -0.000117426 0)
(0.00482799 0.000761235 0)
(0.00443243 0.0018874 0)
(0.00387516 0.0032325 0)
(0.00315572 0.00469225 0)
(0.00230392 0.00602962 0)
(0.00139532 0.0067939 0)
(0.000568531 0.00623601 0)
(4.07418e-05 0.00328154 0)
(1.84703e-05 -0.00110589 0)
(0.000333754 -0.00293329 0)
(0.000919218 -0.00442958 0)
(0.00170997 -0.00562044 0)
(0.00265273 -0.00651928 0)
(0.00369807 -0.00713927 0)
(0.00480107 -0.00749883 0)
(0.00592323 -0.00762265 0)
(0.00703291 -0.00754028 0)
(0.00810536 -0.00728398 0)
(0.00912215 -0.0068865 0)
(0.0100704 -0.00637943 0)
(0.0109421 -0.00579196 0)
(0.0117327 -0.00515009 0)
(0.0124409 -0.00447634 0)
(0.0130674 -0.00378962 0)
(0.0136145 -0.00310545 0)
(0.0140856 -0.00243617 0)
(0.0144842 -0.00179136 0)
(0.0148145 -0.00117821 0)
(0.0150802 -0.000602071 0)
(0.0152848 -6.69536e-05 0)
(0.0154309 0.000423136 0)
(0.0155208 0.000865978 0)
(0.0155585 0.00126243 0)
(0.0155473 0.00161356 0)
(0.0154905 0.00192087 0)
(0.0153913 0.00218617 0)
(0.0152528 0.00241156 0)
(0.0150781 0.0025993 0)
(0.0148702 0.00275176 0)
(0.0146319 0.00287139 0)
(0.0143662 0.00296063 0)
(0.0140759 0.00302192 0)
(0.0137638 0.00305767 0)
(0.0134328 0.00307019 0)
(0.0130856 0.00306176 0)
(0.0127249 0.00303452 0)
(0.0123533 0.00299057 0)
(0.0119735 0.00293187 0)
(0.0115879 0.00286031 0)
(0.0111991 0.00277765 0)
(0.0108092 0.00268558 0)
(0.0104205 0.00258567 0)
(0.0100351 0.00247938 0)
(0.00965483 0.0023681 0)
(0.00928149 0.00225307 0)
(0.00891667 0.00213548 0)
(0.00856179 0.00201636 0)
(0.00821813 0.00189667 0)
(0.00788677 0.00177726 0)
(0.00756864 0.00165886 0)
(0.00726451 0.00154208 0)
(0.00697501 0.00142746 0)
(0.0067006 0.0013154 0)
(0.00644163 0.00120622 0)
(0.00619831 0.00110011 0)
(0.00597075 0.000997198 0)
(0.00575897 0.000897497 0)
(0.00556291 0.000800946 0)
(0.00538243 0.000707397 0)
(0.00521735 0.000616631 0)
(0.00506744 0.000528358 0)
(0.00493243 0.00044222 0)
(0.00481205 0.0003578 0)
(0.00470601 0.000274623 0)
(0.00461399 0.00019215 0)
(0.0045357 0.000109786 0)
(0.0044709 2.67969e-05 0)
(0.00441901 -5.73571e-05 0)
(0.00438079 -0.00014281 0)
(0.00435564 -0.000230145 0)
(0.00434329 -0.00032023 0)
(0.00434341 -0.000413841 0)
(0.00435567 -0.000511727 0)
(0.00437968 -0.00061457 0)
(0.00441499 -0.000722921 0)
(0.00446108 -0.000837099 0)
(0.00451731 -0.000957052 0)
(0.00458287 -0.00108214 0)
(0.00465668 -0.00121087 0)
(0.00473737 -0.00134047 0)
(0.00482308 -0.00146644 0)
(0.0049113 -0.00158184 0)
(0.00499861 -0.00167659 0)
(0.0050803 -0.00173655 0)
(0.00514997 -0.00174266 0)
(0.0051989 -0.00167015 0)
(0.00521548 -0.0014881 0)
(0.00518459 -0.00115978 0)
(0.00508754 -0.000644105 0)
(0.00490112 0.000101275 0)
(0.00460269 0.001107 0)
(0.00417274 0.00237864 0)
(0.0035992 0.00387515 0)
(0.00288725 0.00546871 0)
(0.00207131 0.00688489 0)
(0.0012278 0.00762262 0)
(0.000484964 0.00687987 0)
(3.07092e-05 0.0035533 0)
(1.90257e-05 -0.00127805 0)
(0.000341722 -0.00339401 0)
(0.000938856 -0.0051238 0)
(0.0017415 -0.00649321 0)
(0.00269277 -0.00751767 0)
(0.00374033 -0.00821465 0)
(0.00483741 -0.00860872 0)
(0.0059447 -0.00873169 0)
(0.0070307 -0.00862043 0)
(0.00807148 -0.0083141 0)
(0.00904995 -0.00785167 0)
(0.00995492 -0.00726999 0)
(0.01078 -0.00660255 0)
(0.0115229 -0.00587875 0)
(0.0121837 -0.00512362 0)
(0.0127652 -0.00435787 0)
(0.013271 -0.00359818 0)
(0.0137058 -0.00285755 0)
(0.0140746 -0.00214578 0)
(0.0143821 -0.00147001 0)
(0.0146332 -0.000835266 0)
(0.0148317 -0.000244917 0)
(0.0149817 0.00029786 0)
(0.0150838 0.000790564 0)
(0.0151424 0.00123379 0)
(0.0151597 0.00162871 0)
(0.0151386 0.00197693 0)
(0.0150814 0.00228042 0)
(0.0149904 0.00254136 0)
(0.0148678 0.00276211 0)
(0.0147156 0.0029451 0)
(0.0145359 0.0030928 0)
(0.0143307 0.00320769 0)
(0.014102 0.00329221 0)
(0.0138518 0.00334874 0)
(0.0135821 0.00337963 0)
(0.0132951 0.00338713 0)
(0.0129928 0.0033734 0)
(0.0126774 0.00334055 0)
(0.0123509 0.00329058 0)
(0.0120157 0.00322541 0)
(0.0116737 0.00314689 0)
(0.011327 0.00305675 0)
(0.0109777 0.00295668 0)
(0.0106278 0.00284825 0)
(0.0102792 0.00273295 0)
(0.00993355 0.00261218 0)
(0.00959262 0.00248724 0)
(0.00925795 0.00235934 0)
(0.00893096 0.00222958 0)
(0.00861291 0.00209896 0)
(0.00830496 0.00196838 0)
(0.00800809 0.00183859 0)
(0.00772315 0.00171029 0)
(0.00745086 0.001584 0)
(0.0071918 0.00146019 0)
(0.0069464 0.00133917 0)
(0.00671502 0.00122116 0)
(0.00649787 0.00110629 0)
(0.00629509 0.00099458 0)
(0.0061067 0.000885949 0)
(0.00593269 0.000780241 0)
(0.00577294 0.000677214 0)
(0.00562731 0.000576552 0)
(0.00549558 0.00047787 0)
(0.00537753 0.000380714 0)
(0.00527286 0.000284568 0)
(0.00518127 0.000188849 0)
(0.00510245 9.28969e-05 0)
(0.00503591 -4.09386e-06 0)
(0.00498149 -0.000102443 0)
(0.00493943 -0.000202369 0)
(0.00490906 -0.000304619 0)
(0.00488998 -0.000409961 0)
(0.00488166 -0.000519101 0)
(0.00488349 -0.00063266 0)
(0.00489481 -0.000751106 0)
(0.00491484 -0.000874647 0)
(0.00494266 -0.00100308 0)
(0.0049772 -0.00113557 0)
(0.00501716 -0.00127033 0)
(0.00506092 -0.00140423 0)
(0.00510644 -0.00153222 0)
(0.00515114 -0.00164664 0)
(0.0051916 -0.00173639 0)
(0.0052233 -0.00178592 0)
(0.00524017 -0.00177427 0)
(0.00523415 -0.00167423 0)
(0.00519454 -0.00145187 0)
(0.00510759 -0.00106704 0)
(0.00495647 -0.000475231 0)
(0.00472058 0.000367701 0)
(0.00438177 0.00148979 0)
(0.00392429 0.0028914 0)
(0.00334096 0.00451867 0)
(0.00264157 0.00622089 0)
(0.00186363 0.00768908 0)
(0.00108255 0.00837887 0)
(0.000415495 0.00744859 0)
(2.32702e-05 0.00378354 0)
(1.98491e-05 -0.00145471 0)
(0.000350593 -0.00386455 0)
(0.000958731 -0.00582913 0)
(0.00177063 -0.00737446 0)
(0.00272558 -0.00851861 0)
(0.00376857 -0.00928439 0)
(0.00485134 -0.00970364 0)
(0.00593419 -0.00981628 0)
(0.00698611 -0.0096673 0)
(0.00798432 -0.00930335 0)
(0.00891333 -0.00876998 0)
(0.00976377 -0.00810951 0)
(0.0105313 -0.00735983 0)
(0.0112153 -0.00655369 0)
(0.011818 -0.00571855 0)
(0.0123437 -0.00487677 0)
(0.0127976 -0.00404598 0)
(0.0131857 -0.00323964 0)
(0.013514 -0.00246761 0)
(0.0137882 -0.00173678 0)
(0.0140138 -0.00105169 0)
(0.0141952 -0.000415093 0)
(0.0143372 0.000171243 0)
(0.0144403 0.000705057 0)
(0.0145084 0.00118658 0)
(0.0145438 0.00161735 0)
(0.0145485 0.00199922 0)
(0.0145243 0.00233437 0)
(0.0144726 0.00262516 0)
(0.014395 0.00287407 0)
(0.0142927 0.0030836 0)
(0.0141669 0.00325626 0)
(0.0140187 0.00339454 0)
(0.0138494 0.00350084 0)
(0.0136602 0.00357753 0)
(0.0134524 0.00362687 0)
(0.0132273 0.00365107 0)
(0.0129864 0.00365223 0)
(0.0127312 0.00363241 0)
(0.0124634 0.00359356 0)
(0.0121847 0.00353758 0)
(0.0118967 0.00346631 0)
(0.0116012 0.0033815 0)
(0.0113 0.00328483 0)
(0.0109949 0.00317794 0)
(0.0106875 0.00306238 0)
(0.0103796 0.00293963 0)
(0.0100729 0.00281107 0)
(0.00976883 0.00267803 0)
(0.00946894 0.00254173 0)
(0.00917457 0.00240327 0)
(0.00888699 0.0022637 0)
(0.00860734 0.00212391 0)
(0.00833664 0.00198471 0)
(0.00807578 0.00184678 0)
(0.00782552 0.0017107 0)
(0.00758652 0.00157691 0)
(0.00735929 0.00144575 0)
(0.00714425 0.00131746 0)
(0.00694172 0.00119214 0)
(0.00675189 0.00106982 0)
(0.00657489 0.000950417 0)
(0.00641075 0.000833762 0)
(0.00625942 0.000719601 0)
(0.0061208 0.000607603 0)
(0.00599472 0.000497367 0)
(0.00588095 0.000388423 0)
(0.00577919 0.000280236 0)
(0.00568909 0.000172202 0)
(0.00561031 6.3593e-05 0)
(0.005542 -4.63286e-05 0)
(0.00548471 -0.00015766 0)
(0.00543775 -0.000270775 0)
(0.00540058 -0.000386413 0)
(0.00537254 -0.00050521 0)
(0.00535292 -0.000627698 0)
(0.00534085 -0.000754242 0)
(0.00533539 -0.000884928 0)
(0.00533543 -0.0010194 0)
(0.00533971 -0.00115662 0)
(0.00534675 -0.00129456 0)
(0.00535479 -0.00142974 0)
(0.00536171 -0.00155665 0)
(0.00536487 -0.00166699 0)
(0.00536093 -0.00174875 0)
(0.00534558 -0.00178516 0)
(0.00531314 -0.00175357 0)
(0.00525617 -0.00162461 0)
(0.00516491 -0.0013617 0)
(0.005027 -0.000921753 0)
(0.00482713 -0.000257438 0)
(0.00454774 0.00067599 0)
(0.00417464 0.00190347 0)
(0.00369547 0.00341987 0)
(0.00310716 0.00515848 0)
(0.00242317 0.00694666 0)
(0.0016829 0.00844392 0)