/*--------------------------------*- C++ -*----------------------------------*\
  =========                 |
  \\      /  F ield         | OpenFOAM: The Open Source CFD Toolbox
   \\    /   O peration     | Website:  https://openfoam.org
    \\  /    A nd           | Version:  6
     \\/     M anipulation  |
\*---------------------------------------------------------------------------*/
FoamFile
{
    version     2.0;
    format      ascii;
    class       volScalarField;
    location    "0";
    object      P_rec;
}
// * * * * * * * * * * * * * * * * * * * * * * * * * * * * * * * * * * * * * //

dimensions      [0 2 -2 0 0 0 0];

internalField   nonuniform List<scalar> 
918
(
0.58212
0.475932
0.103025
0.600057
-0.00145578
0.369853
-0.701591
0.549414
0.604294
-0.0758264
0.0481084
0.475384
0.208668
0.174666
-1.20923
0.0307652
0.594068
-0.747274
0.439058
0.033527
0.0621258
0.605635
0.541763
0.444037
0.51729
0.104873
0.27503
-0.0305106
-0.0509725
-0.0375543
-0.00434995
0.0450893
0.00883514
0.347147
0.336956
0.377443
0.44957
0.0362131
-0.549611
-0.618934
-0.589486
-0.795464
0.55453
0.567703
-0.256177
0.533079
0.516194
0.453088
0.583588
0.605614
0.545051
0.585975
0.613344
0.294641
-0.113034
-0.183119
-0.0300241
-0.0298233
0.0896499
0.045049
0.0398198
0.0719243
0.0641388
0.398417
0.466071
0.463305
0.4848
0.483244
0.433803
0.391521
0.435364
0.205905
0.335423
0.183405
0.288467
0.181711
0.218053
0.154964
0.13603
-1.52399
-2.32666
-0.711176
-0.546666
0.00621291
0.0325006
0.0345172
0.584944
0.588497
0.58262
0.594161
0.703251
-0.649386
-0.858205
0.476001
0.473213
0.590006
0.547423
0.487028
0.431166
0.0312981
0.0284732
0.0180995
0.0459894
0.0396668
0.225516
0.322207
0.419035
0.447915
0.485277
0.503995
0.49284
0.229944
0.549025
0.556567
0.0448967
0.220424
0.0947924
0.170937
0.278716
0.246782
0.348053
0.384925
-0.0555
-0.010031
0.0410548
0.0051265
0.0332785
0.445374
0.436847
0.461685
0.454921
0.456211
-0.0242568
-0.0839738
0.100537
0.160845
-0.44026
-0.501266
-0.725072
-0.691113
-0.876177
0.73249
0.564927
0.580151
-0.330638
-0.212683
-0.379516
-0.143743
-0.198937
0.45417
0.44826
0.448656
0.453128
0.459771
0.461794
0.590957
0.583399
0.617703
0.300341
0.369193
0.281183
0.239997
-0.421324
-0.252798
-0.397337
-0.0150668
0.0174571
0.0858431
0.122607
0.119799
0.0972047
0.0189315
0.0327959
0.0217432
0.0361655
0.0330729
0.398007
0.384261
0.400445
0.412424
0.461568
0.462561
0.463809
0.466509
0.354922
0.349981
0.311607
0.284895
-3.15987
-5.33581
-0.316084
-0.213068
-0.00244486
-0.011976
-0.00389782
-0.0766674
-0.0125419
-0.0387993
0.0821932
0.0540872
0.0415003
0.060224
0.579722
0.592783
0.702937
0.748064
0.624874
0.622269
0.471628
0.479632
0.474937
0.472993
0.0447829
0.0305676
0.0429195
0.488422
0.408848
0.450251
0.193117
0.0999679
0.278424
0.315539
0.579355
0.564683
0.579865
0.054336
0.138374
0.486137
0.250821
0.474133
0.31264
0.283042
0.322252
0.248551
0.416959
0.431245
0.427629
0.460201
0.463397
0.464212
0.463563
0.458409
0.46329
-0.211505
-0.457966
0.545379
0.465126
0.250328
0.378538
0.756802
0.790683
0.585377
0.575884
0.587195
-0.0491606
-0.0965647
0.191441
0.171586
0.344995
0.365187
0.351737
0.278144
0.238592
0.279073
0.262683
0.238991
0.285032
-0.394416
-1.77594
-0.961033
0.013088
-0.0896339
-0.0546956
0.057998
0.111009
0.0805874
0.722983
0.780425
0.403646
0.545403
0.507823
0.0382484
0.117859
0.217909
0.0942687
0.146322
0.226725
0.183354
0.650057
0.572228
0.636155
0.771607
0.818518
0.0680967
-0.00255719
-0.0401979
0.144993
0.144557
0.135497
0.771589
0.780508
0.793502
0.425644
0.419484
-0.0507502
0.00177609
0.523088
0.543798
-0.0526085
-0.0222886
0.0064453
-0.862982
0.0671664
0.47688
0.438227
0.492116
-0.0814306
0.210767
0.0250857
0.0393722
-0.0078556
0.446741
0.382262
0.350715
-0.0552367
0.0138312
0.00736235
-0.346462
0.480548
0.464839
0.478345
0.48744
0.500124
-0.00271304
-0.00926471
0.0288835
-0.0236058
0.0478901
0.0439725
0.455349
0.4459
-0.305578
0.470579
0.493673
0.491843
0.5035
0.506604
0.496828
-0.00654317
0.0329349
0.0368368
0.178895
0.280727
0.143933
0.102671
0.169019
-0.00321288
-0.207738
0.0932889
0.105594
0.0833415
0.120054
0.547403
0.529504
0.16696
-0.00459612
0.128688
0.100794
0.47119
0.486937
0.461548
0.47278
0.48946
0.449886
0.501893
0.478133
0.47316
0.510802
-0.0400869
0.00568071
-0.0354133
-0.151925
0.296996
0.361762
0.201713
0.262475
0.119649
0.0129386
0.0590636
0.00423425
0.0242021
0.0254987
0.112241
0.0513987
0.142193
0.0331541
0.115016
-0.00971914
0.145853
0.0205166
0.434034
0.451459
0.448017
0.485407
0.41116
0.430118
0.404769
0.406028
0.41829
0.356358
0.370294
0.369599
0.0148339
0.0127845
0.041984
0.0252716
0.0518898
-0.0132752
-0.0147521
-0.014811
0.00344753
-0.0371862
0.00481719
0.0114338
-0.259395
-0.423346
0.645482
0.541394
0.214013
0.45053
0.488823
0.462382
0.49164
0.506696
0.541083
0.508208
0.483391
0.453499
0.467371
0.451645
0.467397
-0.195962
-0.300865
-0.150868
-0.220015
0.00798116
0.558598
0.319296
0.28013
0.257949
0.427757
0.556373
0.292828
0.00399173
-0.123581
-0.550301
-0.298893
-0.51754
0.00508351
-0.0567935
0.0652201
0.14012
0.207386
0.143054
0.13077
-0.120696
0.346443
-0.114198
-0.0815396
0.0957962
0.0268104
0.340379
0.546549
0.558663
0.509093
0.498368
0.533096
0.503296
0.504485
0.543062
0.548396
0.420597
0.207653
0.200101
0.128716
0.560841
0.455399
0.490962
0.391727
0.489019
0.493111
0.475772
0.466124
0.499289
0.468656
0.459022
0.439706
0.438124
0.469153
0.47441
0.449748
0.0291158
0.00962871
-0.0338401
-0.228384
-0.122769
-0.222306
-0.0764861
0.106116
0.0126923
0.178711
0.34113
0.0801238
-0.125138
-0.00146756
-0.0432245
0.176363
0.116831
0.146914
0.153238
0.164951
0.159668
0.216501
0.191163
0.0511365
0.0627942
0.0943192
0.0160036
0.14152
0.113078
0.167198
0.0725023
0.124347
0.0811552
0.0469982
0.0310863
0.121775
0.0735255
0.0401576
0.0360583
0.0235808
-0.0506912
-0.0469116
0.173748
0.0558096
0.47328
0.457144
0.462115
0.474583
0.502927
0.500405
0.44886
0.450774
0.474591
0.448321
0.41975
0.408621
0.395438
0.427472
0.433618
0.433428
0.471548
0.464114
0.438069
0.453277
0.41201
0.430784
0.375413
0.386611
0.414227
-0.0798546
0.0289497
-0.0211544
-0.0306799
0.0168454
0.0525626
0.116899
0.0431575
0.121754
0.0943273
0.0708662
0.0411967
0.0651483
-0.0928385
0.0379894
-0.228783
-0.321572
-0.406676
0.644487
0.710887
0.5868
0.480084
0.530434
0.596488
0.66136
0.41815
0.452389
0.508249
0.625295
0.716308
0.466666
0.45597
0.477353
0.494605
0.473081
-0.0329769
0.084749
0.0633569
0.150592
0.115967
0.105953
0.347791
0.365659
0.398243
0.350513
0.537311
0.559318
0.522084
0.558098
0.556553
0.359862
0.446499
0.481618
0.468217
0.474122
0.494285
0.497941
0.496055
0.435519
0.431198
0.434169
0.390281
0.411044
0.384963
0.385041
0.444488
0.425465
0.424087
0.434157
0.481713
0.466614
0.488105
0.528022
0.511326
0.418043
0.402404
0.421528
0.430642
0.411346
0.406887
0.403535
0.108024
0.13932
0.031471
-0.251352
-0.117049
-0.110655
-0.193757
-0.199933
-0.0628991
-0.564065
-0.407779
-0.915163
0.149915
0.58573
0.317194
0.109852
0.482394
0.507012
0.494706
0.432196
0.435332
0.544285
0.558781
0.570531
0.481667
0.485596
0.522492
0.503546
0.376812
0.310028
0.230242
0.292678
0.142693
0.195238
0.348934
0.301529
0.260584
0.288231
0.371276
0.271232
0.303289
0.378953
0.354805
0.335869
0.453941
0.506931
0.517966
0.467616
0.377299
0.428928
0.422368
0.469622
0.50497
0.512823
0.470537
0.457735
0.468778
0.458162
0.44627
0.46346
0.436417
0.47852
0.483275
0.492119
0.487686
0.0105016
0.0350511
0.0489602
0.00714725
0.0251451
-0.0217274
-0.00636795
-0.0251996
0.0944889
0.0792127
0.00477832
0.0256153
0.108398
0.0615395
0.142315
0.156573
0.113336
0.0576609
0.255657
0.379323
0.37189
0.33913
0.239427
0.25175
0.33498
0.0591965
0.143703
0.0968451
0.0717451
0.0678387
0.0404859
0.123914
0.0632281
0.0990836
0.0546644
-0.0858322
0.0564179
0.105989
-0.0282859
0.0286946
0.056372
0.439111
0.439958
0.418914
0.400845
0.408467
0.41396
0.447231
0.470418
0.473157
0.472409
0.476995
0.463333
0.468238
0.027172
0.130446
0.157192
0.0998012
0.0552823
0.0120417
-0.00528212
0.27748
0.128074
0.205204
0.0341824
-0.140481
-0.0611733
0.484962
0.587518
0.56238
0.69888
0.599483
0.527367
0.604538
0.717778
0.433591
0.533059
0.45515
0.67131
0.65705
0.719498
0.567038
0.0608447
-0.1088
0.106013
-0.0584872
-0.199031
0.12042
0.147077
0.139662
0.120526
0.142264
0.2237
0.230796
0.241248
0.331374
0.293586
0.37508
0.221509
0.286365
0.254117
0.194235
0.196587
0.520664
0.545341
0.568537
0.539865
0.563963
0.499759
0.500667
0.526655
0.55169
0.53659
-0.807581
-0.657621
-1.38597
-0.716312
-0.457326
0.160688
-0.132717
0.705609
0.54424
0.514389
0.521167
0.514486
0.464503
0.492396
0.517423
0.290907
0.382265
0.330863
0.364109
0.287636
0.207294
0.501697
0.486083
0.519155
0.537023
0.49721
0.536493
0.399705
0.436163
0.422519
0.452727
0.468082
0.483687
0.122906
0.0621772
0.106031
0.0940029
0.0784724
0.0553243
-0.0212853
0.0088708
0.171556
0.113196
0.0622666
0.114006
0.2284
0.240384
0.0891549
0.180724
0.0193497
-0.107872
-0.105615
-0.010584
0.0791481
0.136232
0.491324
0.590942
0.538208
0.609491
0.491553
0.593958
0.512339
0.396566
0.470682
0.423898
0.483837
-0.267506
-0.505955
-0.389251
0.855531
0.809169
0.33776
0.0734323
-0.0916861
0.324906
0.422945
0.371265
0.393755
0.464533
0.437076
-0.321705
-0.192073
-0.39404
-0.36386
-0.0229075
-0.121384
-0.0479283
-0.244135
-0.187383
)
;

boundaryField
{
    wall-4
    {
        type            calculated;
        value           nonuniform List<scalar> 
100
(
0.58212
0.475932
0.103025
0.600057
0.369853
-0.701591
0.549414
-0.0758264
0.0481084
0.475384
0.208668
0.174666
-1.20923
0.594068
-0.747274
0.439058
0.033527
0.0621258
0.444037
0.51729
0.104873
0.27503
-0.0305106
0.347147
0.44957
-0.618934
-0.795464
0.567703
-0.256177
0.516194
0.453088
-0.183119
-0.0298233
0.0398198
0.0641388
0.398417
0.463305
0.483244
0.335423
0.288467
0.218053
0.13603
-2.32666
-0.546666
0.588497
0.594161
-0.858205
0.473213
0.431166
0.0284732
0.0396668
0.322207
0.447915
0.49284
0.229944
0.556567
0.0448967
0.170937
0.246782
0.384925
0.436847
0.461685
0.456211
-0.501266
-0.876177
0.580151
-0.379516
-0.198937
0.448656
0.461794
-0.397337
0.0174571
0.0217432
0.0330729
0.384261
0.412424
0.461568
0.466509
0.284895
-0.213068
0.592783
0.471628
0.472993
0.0429195
0.450251
0.0999679
0.315539
0.579865
0.138374
0.31264
0.427629
0.464212
0.46329
0.587195
-0.0965647
0.351737
0.262683
-0.0546956
0.146322
-0.0401979
)
;
    }
    velocity-inlet-5
    {
        type            calculated;
        value           nonuniform List<scalar> 8(0.58212 0.600057 0.604294 0.605635 0.605614 0.613344 0.590006 0.617703);
    }
    velocity-inlet-6
    {
        type            calculated;
        value           nonuniform List<scalar> 4(0.475932 0.369853 0.377443 0.435364);
    }
    pressure-outlet-7
    {
        type            calculated;
        value           uniform 0;
    }
    wall-8
    {
        type            calculated;
        value           nonuniform List<scalar> 
34
(
-0.00145578
0.0307652
0.00883514
0.0362131
0.294641
0.0896499
0.0345172
0.703251
0.0332785
-0.0839738
0.160845
0.73249
0.369193
0.239997
0.122607
0.0972047
-5.33581
0.0821932
0.060224
0.748064
0.622269
-0.457966
0.545379
0.378538
0.790683
0.171586
-0.961033
0.0805874
0.780425
0.507823
0.636155
0.818518
0.135497
0.793502
)
;
    }
    frontAndBackPlanes
    {
        type            empty;
    }
}

