/*--------------------------------*- C++ -*----------------------------------*\
  =========                 |
  \\      /  F ield         | OpenFOAM: The Open Source CFD Toolbox
   \\    /   O peration     | Website:  https://openfoam.org
    \\  /    A nd           | Version:  6
     \\/     M anipulation  |
\*---------------------------------------------------------------------------*/
FoamFile
{
    version     2.0;
    format      ascii;
    class       volVectorField;
    location    "0";
    object      U_rec;
}
// * * * * * * * * * * * * * * * * * * * * * * * * * * * * * * * * * * * * * //

dimensions      [0 1 -1 0 0 0 0];

internalField   nonuniform List<vector> 
918
(
(0.983575 -0.0053966 0)
(-0.0041994 2.98831 0)
(-0.0151712 1.67925 0)
(0.977446 0.00657612 0)
(-0.00318922 1.63974 6.84328e-17)
(-0.000727533 2.97843 -4.49619e-17)
(0.954212 1.48625 1.91879e-18)
(0.438537 0.218123 2.27995e-19)
(0.993178 0.000542068 0)
(0.0188899 1.29792 0)
(-0.00412078 1.48889 0)
(0.870403 -0.00468402 0)
(-0.000350433 2.99758 0)
(0.00541739 2.90982 0)
(0.000689811 2.85156 1.74622e-17)
(-0.0073378 1.60929 4.07758e-17)
(0.631632 0.128053 4.91415e-18)
(0.157765 1.58426 -4.66313e-17)
(0.984282 0.00296543 0)
(-0.000429493 1.5595 0)
(-0.0811606 -0.0522676 3.74079e-18)
(0.984998 0.0113296 0)
(1.00805 0.0145056 0)
(1.02141 -0.000786304 0)
(0.783089 -0.00902044 0)
(0.0152959 2.98331 0)
(-0.00568592 2.94782 -1.07148e-16)
(-0.0226871 1.70458 0)
(-0.0013518 1.75641 0)
(-0.0146376 1.70022 0)
(-0.0167767 1.80124 0)
(-0.0150255 1.6562 6.83194e-17)
(-0.00817727 1.6103 0)
(-0.00278285 3.01614 2.85853e-22)
(0.00798201 3.02479 -5.82849e-17)
(0.0246323 3.00709 0)
(0.935154 -0.00393237 0)
(0.631982 1.16546 -1.19037e-17)
(0.98378 1.48966 -7.7659e-18)
(1.10025 1.31205 2.59144e-17)
(0.834562 1.62167 1.2109e-17)
(0.79382 1.61014 1.48609e-17)
(0.457041 0.292029 1.35418e-19)
(0.493402 0.211044 0)
(1.26893 0.686181 0)
(0.384239 0.308143 3.64601e-19)
(0.362344 0.205707 7.80399e-19)
(0.959434 -0.00425903 0)
(0.998731 0.00282921 0)
(0.993211 0.00386356 0)
(0.99346 0.0052405 0)
(0.981713 0.00943805 0)
(0.993903 0.0152308 0)
(0.0214233 1.66274 2.11544e-18)
(0.0395955 1.36273 0)
(0.0460699 1.33096 0)
(0.00145558 1.35066 0)
(-0.0113364 1.31514 0)
(0.000648773 1.65121 0)
(-0.00893518 1.55794 0)
(-0.0141711 1.46519 0)
(-0.0123738 1.59111 0)
(-0.00598064 1.50562 0)
(0.943536 0.00178436 0)
(0.91842 0.0133006 0)
(0.883894 -0.00126594 0)
(0.90928 0.0151529 0)
(0.854328 -0.00302415 0)
(-0.0307216 3.04711 3.37231e-17)
(0.00305064 2.96307 0)
(-0.0347544 3.01205 0)
(0.0368797 3.05104 -2.45287e-23)
(-0.00494489 3.04337 4.05503e-17)
(0.0199944 3.01487 0)
(0.00399377 2.9643 0)
(0.00196857 2.97279 -7.46521e-24)
(0.00439549 2.9119 0)
(-0.000297105 2.98299 0)
(0.00586283 2.90516 0)
(0.266709 3.11602 0)
(-0.05663 3.20116 0)
(0.0816054 2.90448 1.20551e-17)
(0.00104601 2.7667 0)
(-0.00719454 1.77713 0)
(-0.00179556 1.68211 4.02559e-17)
(-0.00308313 1.61448 4.07774e-17)
(0.658589 0.163713 -7.18207e-18)
(0.655244 0.0914926 1.19877e-18)
(0.628735 0.201364 2.00148e-17)
(0.599317 0.15897 -1.38403e-17)
(0.20465 1.19091 0)
(0.305168 1.70605 -5.17553e-17)
(0.374164 1.67925 -4.7864e-17)
(0.99572 0.00340237 0)
(0.972382 0.000840792 0)
(0.992026 -0.00681867 0)
(1.00367 1.68816e-05 0)
(1.00413 0.011474 1.49262e-16)
(1.00712 0.0150084 1.60784e-16)
(-0.0110396 1.6329 0)
(-0.00414585 1.54864 0)
(-0.0153695 1.70077 0)
(-0.0202312 1.65623 0)
(-0.00609891 1.58851 0)
(-0.107692 0.224228 -2.26481e-18)
(0.130309 0.126005 0)
(1.01725 -0.0179233 0)
(0.987626 -0.00360129 0)
(0.883426 0.0282152 0)
(0.844944 0.0454348 0)
(0.824934 -0.00648379 0)
(1.08598 -0.000375024 0)
(0.798203 0.0456028 0)
(0.728214 0.00375625 3.26992e-17)
(-0.0180179 2.87703 3.05348e-17)
(0.00178182 2.99834 0)
(-0.0693329 3.05159 0)
(0.00484813 2.90234 0)
(-0.00376524 2.98478 -3.74778e-17)
(-0.00118864 2.93884 0)
(-0.00973106 2.988 -2.66053e-17)
(-0.0112775 2.95755 3.21467e-17)
(-0.00208875 1.77663 0)
(-0.00420433 1.77672 0)
(0.00213221 1.68092 -1.16904e-20)
(-0.00565079 1.66761 0)
(-0.00194835 1.61405 0)
(0.965923 -0.000231377 0)
(0.929386 -0.00424647 0)
(0.930221 0.00503317 0)
(0.973077 -0.00288387 0)
(0.943402 -0.00293167 0)
(0.674762 1.28094 -7.79775e-18)
(0.778717 1.32076 0)
(0.555838 1.11311 -1.35615e-18)
(0.5318 1.03966 0)
(1.09343 1.31803 2.20444e-17)
(1.18757 1.10017 1.99004e-18)
(0.510015 1.75779 0)
(0.664439 1.72542 0)
(0.613297 1.66521 0)
(0.300852 0.714768 -7.58163e-18)
(0.508124 0.274071 0)
(0.529886 0.203683 -4.25519e-18)
(1.16665 1.12065 0)
(1.22186 0.911489 0)
(1.23861 0.88481 -2.06123e-18)
(1.26758 0.715871 0)
(1.28816 0.509621 -3.45546e-17)
(0.976696 0.00227866 0)
(0.978124 -0.00510695 0)
(0.948733 -0.00126007 0)
(0.999542 -0.00894127 0)
(0.989185 -0.0100976 0)
(0.973137 -0.00256563 0)
(0.99022 -0.0044696 0)
(0.988131 -9.83889e-05 0)
(0.993926 -0.00240368 0)
(-8.63211e-05 1.77412 3.71552e-17)
(0.0499262 1.61126 0)
(0.0163478 1.78022 -1.29441e-18)
(0.0172897 1.67799 1.95172e-18)
(0.118874 1.58013 -4.95971e-17)
(0.071767 1.44902 0)
(0.0728658 1.44742 0)
(-0.0218565 1.39998 0)
(-0.0162886 1.36341 0)
(0.0147381 1.72831 1.79379e-20)
(0.00336307 1.64911 0)
(0.00468603 1.72408 -3.96851e-17)
(0.000610026 1.6447 -1.1478e-18)
(-0.0130347 1.45909 0)
(-0.0161844 1.5147 0)
(-0.0117067 1.41996 0)
(-0.0084328 1.61566 0)
(-0.0048034 1.52542 0)
(0.989486 0.0178377 0)
(0.963024 0.00127728 0)
(0.971623 0.00961434 0)
(0.933223 -0.00140257 0)
(0.899823 0.00104936 0)
(0.941955 0.0079486 0)
(0.931103 0.00824358 0)
(0.887895 -0.00103837 0)
(0.00901044 3.03467 2.31215e-20)
(0.0149837 3.03007 0)
(0.00694773 2.99551 0)
(0.00388119 2.94855 0)
(0.998526 3.66132 0)
(1.39834 2.65674 -2.57258e-18)
(-0.00537465 2.8388 0)
(-0.00996326 2.77837 0)
(-0.00961268 1.76895 0)
(-0.0110331 1.7748 0)
(-0.0121792 1.77166 0)
(-0.0100278 1.79316 -9.11324e-17)
(-0.0118251 1.78168 0)
(-0.00996702 1.78825 0)
(0.00321187 1.62015 -8.10171e-17)
(0.00672862 1.69845 -4.09111e-17)
(-0.00241824 1.68831 4.01348e-17)
(-0.00181121 1.61517 0)
(0.684208 0.127059 -1.99269e-17)
(0.66637 0.0573569 -1.6071e-17)
(0.202258 1.45932 0)
(0.255143 1.03374 3.78528e-19)
(0.140056 1.54265 -3.38557e-17)
(0.135295 1.33705 -3.61834e-17)
(0.950008 0.00404587 0)
(0.979849 0.00381587 0)
(0.98568 0.00807854 0)
(0.958383 0.00449909 0)
(-0.00770659 1.62719 0)
(-0.00390336 1.62681 0)
(-0.00380972 1.53726 0)
(0.287768 0.297404 2.95552e-19)
(0.154191 0.263636 -1.03068e-18)
(0.27471 0.182552 0)
(1.1748 0.103091 -4.05025e-19)
(1.18187 0.0603131 0)
(1.08511 0.0510749 0)
(1.02277 0.00633924 0)
(0.705948 0.0936232 0)
(0.742705 0.0630464 2.92147e-17)
(0.683733 0.0276033 -2.19914e-17)
(-0.0234096 2.95048 -3.72694e-17)
(-0.00798392 2.91264 -6.87826e-17)
(0.00592713 3.02613 3.88428e-20)
(0.0357248 3.01658 -4.14821e-17)
(-0.0165614 3.00164 -1.05199e-19)
(-0.0121123 2.98606 3.72497e-22)
(-0.0107537 3.0302 -5.89148e-18)
(0.00344084 2.98423 -8.6356e-18)
(0.0549792 3.02316 -3.75292e-17)
(0.970155 0.00215318 0)
(0.968067 0.00789611 0)
(0.931741 -0.00160688 0)
(0.974065 0.007187 0)
(0.96533 0.00668576 0)
(0.93809 0.00584444 0)
(0.951741 0.00577684 0)
(0.958821 0.00917251 0)
(0.914302 0.00430735 0)
(0.822458 1.47671 1.75117e-18)
(0.91965 1.52855 0)
(0.416707 0.850031 1.89781e-18)
(0.398117 0.932156 -1.36196e-18)
(0.471934 1.01094 -1.65085e-17)
(0.453912 0.946584 -1.8863e-17)
(0.375891 0.98835 3.95051e-18)
(0.289467 0.734278 2.40349e-17)
(0.590616 0.232275 -1.13924e-17)
(0.553388 0.257636 -3.52848e-18)
(0.567017 0.186644 6.52628e-18)
(1.29157 0.527598 -3.24936e-17)
(1.28664 0.338905 2.23228e-18)
(0.013833 1.76862 -4.00112e-17)
(0.00392043 1.66104 0)
(1.03513 0.0332076 0)
(1.00423 0.0215701 0)
(0.98526 0.00215813 0)
(0.0129069 3.04151 0)
(0.0138423 2.97574 -3.87724e-17)
(0.0103341 2.98695 0)
(0.00385722 2.93086 -3.12681e-17)
(0.00941182 3.05212 1.92291e-17)
(0.00886508 3.04624 0)
(0.889698 1.75472 -3.63495e-18)
(1.20447 2.29678 -1.35039e-17)
(0.997313 1.82377 -1.73596e-17)
(-0.0396079 2.90514 3.67067e-17)
(-0.0398722 2.85419 0)
(-0.0194501 2.82881 0)
(-0.0045076 1.7054 8.04527e-17)
(0.00917874 1.69826 5.94233e-19)
(-0.00718416 1.62048 8.03283e-17)
(0.242671 1.3312 -1.79568e-17)
(0.271316 0.8949 -1.544e-17)
(0.0187035 1.73513 -3.74003e-17)
(0.0772141 1.66476 -3.5045e-17)
(0.0819023 1.51263 -7.25465e-17)
(-0.028083 3.06075 1.45033e-16)
(-0.0156277 3.05721 1.31358e-16)
(0.0091508 2.98766 3.24081e-17)
(-0.0177911 2.98139 -3.16736e-17)
(0.00253586 2.9448 3.7724e-17)
(0.0155142 3.05622 -1.14117e-16)
(-0.0110505 3.0476 -1.4873e-16)
(0.353465 0.935269 0)
(0.351559 0.915304 -1.01253e-17)
(0.337663 0.735018 -1.85073e-17)
(0.358432 1.05109 3.89952e-17)
(0.284852 0.763468 2.72056e-17)
(1.26566 0.205461 -1.83998e-18)
(1.29434 0.365322 0)
(1.26169 0.185135 1.12617e-18)
(0.00992104 1.73581 1.53836e-20)
(0.014152 1.75001 0)
(0.00682384 1.65734 0)
(0.282878 1.26972 7.90926e-19)
(0.335328 1.16996 -3.98861e-17)
(0.274729 0.829369 -3.44296e-17)
(1.00138 -0.0234281 0)
(1.00207 -0.0115927 1.86971e-17)
(-0.00438956 1.773 0)
(-0.0192399 1.79123 0)
(1.00366 -0.00186702 5.53629e-19)
(1.00295 0.00146308 2.63086e-17)
(-0.0022003 1.79301 -9.09419e-17)
(-0.00270434 1.78964 0)
(-0.0380211 2.92798 3.16034e-17)
(0.286297 2.90014 0)
(1.11016 0.696873 -3.21553e-17)
(1.00419 0.00914643 1.01433e-16)
(1.01396 -0.0026413 0)
(1.00701 -0.00150024 4.25865e-19)
(0.00807788 1.45575 0)
(0.0308698 2.18105 0)
(-0.0673289 1.67695 0)
(-0.0383945 1.90087 -9.02233e-17)
(-0.0351753 1.8221 8.89578e-17)
(0.9873 0.014606 9.94178e-17)
(1.03235 0.0203275 0)
(1.055 0.0296818 0)
(-0.00607082 1.78196 0)
(0.00204397 1.78403 0)
(-0.0211549 1.77238 0)
(0.287861 1.67089 -9.97987e-17)
(1.00651 -0.0126533 0)
(1.00664 -0.0145324 0)
(0.995144 0.00631736 -2.03965e-17)
(0.994304 -0.0047431 2.61541e-17)
(0.996767 -0.00493389 0)
(-0.00555217 1.77227 0)
(-0.00838374 1.76734 0)
(-0.00742024 1.76612 0)
(-0.0149107 1.77305 0)
(-0.0367934 1.77417 0)
(-0.0220621 1.76538 0)
(1.01316 -0.00429363 0)
(1.00566 0.00831748 1.01638e-16)
(0.853057 1.43888 -2.42519e-18)
(1.00166 -0.00806264 2.08224e-17)
(0.997983 0.0041104 -2.58061e-17)
(1.00466 0.00359158 0)
(1.00045 0.0118264 4.69823e-17)
(1.00829 0.0150834 5.41493e-17)
(1.0051 0.0121849 0)
(0.00351601 1.78682 0)
(0.00456926 1.78545 -4.61073e-17)
(-0.00185021 1.78124 -4.08754e-17)
(1.1609 0.251433 -6.80481e-17)
(1.09881 0.0856623 0)
(-0.300558 2.94218 3.2211e-17)
(-0.315354 3.28912 6.35625e-19)
(-0.0701881 2.97345 6.03067e-17)
(-0.0718188 2.92092 4.26007e-17)
(0.0274798 2.88846 0)
(-0.0385028 3.00313 1.67851e-17)
(-0.136144 3.11892 2.96614e-17)
(-0.114439 2.97667 2.01984e-17)
(-0.0819818 3.08982 0)
(0.613794 0.332519 0)
(0.507323 0.370672 0)
(1.08378 0.835385 3.72677e-17)
(1.08014 0.901311 4.29054e-17)
(1.15195 0.641154 0)
(1.16278 0.551567 0)
(1.00586 0.00649935 9.68318e-18)
(1.00244 0.00688218 -8.61215e-18)
(1.0161 -0.00365468 0)
(1.01189 -0.00860509 0)
(1.0001 0.0117349 0)
(1.00561 0.00556762 0)
(1.00576 0.00697514 0)
(1.00108 0.00691403 0)
(1.00375 0.00456851 0)
(0.992194 0.00525595 0)
(0.0169537 1.46128 0)
(-0.0398296 1.39988 0)
(0.119227 1.47777 0)
(0.104752 1.51948 0)
(0.0407372 2.18119 0)
(0.06867 2.18437 4.15509e-17)
(-0.00080322 2.19501 0)
(-0.0302821 2.15848 3.90737e-17)
(-0.0618343 2.04096 -8.37791e-17)
(-0.0594873 1.6909 0)
(-0.0386067 1.70674 0)
(-0.0697305 1.65406 0)
(-0.0726793 1.61594 0)
(-0.117732 1.85696 -8.9467e-17)
(-0.0645537 1.83671 -5.79001e-17)
(-0.0341589 1.89666 4.47007e-17)
(-0.0338607 1.87416 0)
(-0.00540642 1.82482 3.77907e-17)
(-0.0119754 1.81975 -8.53761e-17)
(-0.149846 1.86553 -1.37576e-16)
(-0.0884833 1.80262 -5.63522e-17)
(-0.0672686 1.84917 4.65425e-17)
(0.992396 0.0223172 -4.13904e-18)
(0.995751 0.00653841 7.36408e-18)
(0.984832 0.0287556 9.83869e-18)
(0.972119 0.0169244 -6.83373e-18)
(1.03181 0.0102622 0)
(1.02457 0.00276301 0)
(1.04517 0.0352999 0)
(1.03587 0.0295216 0)
(1.03692 0.015121 0)
(1.08675 0.0731026 0)
(1.06377 0.0641622 0)
(1.07595 0.0402856 0)
(-0.01509 1.79449 1.18757e-17)
(-0.00638466 1.77206 0)
(-0.0197158 1.77926 0)
(-0.00537874 1.78775 -1.78013e-17)
(-0.00234467 1.79225 2.68818e-20)
(-0.0188796 1.80214 5.27392e-17)
(-0.034272 1.78377 5.32686e-17)
(-0.0131202 1.76843 0)
(-0.0410163 1.77659 0)
(-0.0224498 1.76727 0)
(-0.0118281 1.77293 0)
(-0.0116998 1.77081 0)
(0.411056 1.71174 -6.69494e-17)
(0.424653 1.70705 4.97827e-17)
(0.422095 1.93698 -1.09718e-19)
(0.271798 2.05572 3.57813e-17)
(0.34008 1.85609 4.39207e-17)
(1.01395 -0.0106943 0)
(1.01054 -0.00534384 0)
(1.01461 -0.00870568 0)
(1.00441 0.00450109 0)
(0.997453 -0.00423515 0)
(0.990087 -0.00112269 0)
(1.00371 -0.00393282 0)
(1.00348 -0.00336147 0)
(1.00464 0.006681 -3.76701e-18)
(1.00189 0.00373314 8.1916e-18)
(1.00655 0.0137207 9.54659e-18)
(1.00066 0.0120941 -7.99356e-18)
(0.762006 1.55053 0)
(0.742468 1.56643 -9.20916e-17)
(0.900775 1.39356 8.46996e-17)
(0.954312 1.29854 8.04842e-17)
(1.00518 2.05047 -2.72182e-17)
(0.825516 0.123744 -2.25358e-17)
(1.11196 0.140129 0)
(1.15966 0.192585 -1.15614e-16)
(1.13579 0.139655 4.33656e-20)
(0.953262 0.132954 0)
(-0.135838 2.6245 6.43311e-17)
(-0.481976 2.54457 8.07156e-17)
(-0.996226 2.73556 9.89304e-18)
(-0.833307 0.19684 -1.46325e-17)
(0.169075 2.9045 -1.62803e-17)
(0.015967 2.91225 0)
(0.12244 2.88066 -1.22306e-17)
(-0.02153 2.61947 8.88564e-17)
(0.176944 2.63524 0)
(-0.0305427 3.03997 -3.42145e-19)
(-0.0462454 3.05959 -2.89682e-17)
(-0.0114252 3.08952 -3.43018e-17)
(-0.0594862 3.10449 0)
(-0.0670803 3.0304 0)
(1.14054 2.11513 0)
(0.495593 1.09972 5.76839e-17)
(1.03484 1.10045 -4.09259e-17)
(0.993822 1.2365 0)
(0.824457 1.09824 -1.75327e-17)
(1.05489 1.05143 -7.38544e-17)
(0.123345 0.403544 -3.67652e-18)
(0.631629 0.338783 1.44243e-17)
(0.65442 0.294058 1.59359e-17)
(0.440613 0.446155 1.33554e-19)
(0.408397 0.375517 4.24383e-19)
(0.579501 0.382565 0)
(0.5916 0.476153 1.4595e-17)
(0.611563 0.420588 0)
(0.519861 0.395077 0)
(0.555839 0.340852 0)
(0.678168 0.685998 4.11963e-17)
(1.17674 0.34419 4.34163e-17)
(1.18251 0.466878 0)
(1.18068 0.378383 0)
(0.737144 0.229248 2.48541e-17)
(0.733545 0.634307 4.24941e-17)
(0.617524 0.568722 1.47903e-17)
(0.883558 0.429734 -9.86966e-17)
(1.00206 0.00269566 4.33748e-17)
(1.00235 0.0175055 5.25556e-17)
(0.998551 0.01014 0)
(1.01068 0.00249213 0)
(1.00866 -0.0127447 -4.23803e-17)
(1.00404 -0.00655993 -5.03695e-17)
(1.01155 -0.00101784 0)
(1.00171 0.00756791 0)
(1.00726 0.000483007 0)
(1.0015 0.00265102 0)
(1.00701 0.00147956 0)
(1.00408 -0.00391098 0)
(-0.0626113 1.45317 0)
(-0.0822363 1.45574 0)
(0.129354 1.44129 -6.20118e-17)
(0.24992 1.6803 -4.71515e-17)
(0.189392 1.58307 9.37304e-17)
(0.176068 1.61172 4.09059e-17)
(0.211521 1.51132 0)
(0.200929 1.76788 8.70576e-17)
(0.107504 1.74519 0)
(0.300698 1.87604 4.53303e-17)
(0.296979 2.01221 -5.36433e-17)
(0.285283 1.60177 8.40897e-17)
(0.313787 1.57664 -4.8548e-17)
(0.241511 1.51279 -4.99873e-17)
(0.317253 1.55973 -1.13849e-17)
(0.281692 1.71553 0)
(0.335953 1.69049 -6.30704e-17)
(-0.141664 2.01 6.94929e-18)
(-0.068694 2.08474 0)
(-0.0970042 2.08828 -8.74766e-17)
(-0.12674 2.058 0)
(-0.0475885 2.15176 4.08491e-17)
(-0.061871 2.10532 0)
(-0.101939 1.7225 6.51177e-17)
(-0.134434 1.76564 0)
(-0.117003 1.66965 0)
(-0.105788 1.68566 6.33324e-17)
(-0.0797521 1.94224 -1.40777e-16)
(-0.0461788 2.02751 -8.31894e-17)
(-0.0520597 1.98158 -6.8573e-21)
(-0.0731556 1.79303 9.20275e-17)
(-0.12148 1.81308 -4.72115e-17)
(-0.0382821 1.72489 0)
(-0.0273044 1.74491 0)
(-0.201808 1.80661 3.64363e-17)
(-0.165955 1.68914 3.09944e-17)
(-0.156614 1.76661 7.22131e-17)
(-0.198974 1.7822 0)
(-0.00580589 1.78989 1.22705e-16)
(-0.0196375 1.78712 2.02568e-17)
(-0.00977264 1.79651 -2.317e-17)
(-0.0505885 1.79602 9.30263e-17)
(-0.00942216 1.77206 -4.64509e-18)
(-0.0299366 1.78566 -5.36106e-17)
(1.00003 0.0188265 5.21032e-17)
(0.998822 0.00618232 4.29296e-17)
(0.996067 0.0117582 0)
(0.991624 0.0486831 -7.63848e-17)
(0.963851 0.0508187 1.02592e-17)
(0.94906 0.032497 -8.15662e-20)
(0.988406 0.0909165 9.80437e-19)
(1.01803 0.00105038 0)
(1.02013 0.00861889 -5.16553e-17)
(1.01555 -0.00171853 -4.28454e-17)
(1.03377 0.0360097 3.684e-18)
(1.03306 0.0395918 -9.4371e-18)
(1.03191 0.0471349 0)
(1.02045 0.0434171 -6.22864e-19)
(1.008 0.029872 0)
(1.00184 0.0289015 0)
(1.01507 0.0224206 0)
(1.00298 0.0115444 0)
(1.01481 0.03101 6.83164e-18)
(1.01642 0.0234946 3.17842e-17)
(1.03497 0.034311 -9.22003e-18)
(1.02433 0.0280908 1.00313e-17)
(1.02902 0.0681105 3.73936e-17)
(1.04321 0.0627633 0)
(1.03631 0.0952185 0)
(-0.00296628 1.79937 -6.38681e-17)
(0.0169669 1.7728 -1.01047e-18)
(-0.00969578 1.78407 0)
(0.0068497 1.79426 -6.46164e-17)
(-0.000595957 1.79937 1.0757e-17)
(0.0015186 1.78949 -4.75777e-18)
(-0.0195026 1.81489 -9.24574e-17)
(-0.0113743 1.79307 -2.18005e-19)
(-0.0109783 1.79121 -5.97388e-18)
(-0.0120447 1.79792 4.08078e-17)
(-0.0127368 1.80582 4.03703e-17)
(-0.00691869 1.77044 -2.76744e-17)
(-0.0116313 1.79084 -4.63652e-17)
(0.397325 1.59934 3.28441e-17)
(0.388013 1.58149 -8.26003e-18)
(0.676704 1.64979 -9.64735e-17)
(0.54018 1.71687 4.77412e-17)
(0.594087 1.66926 0)
(0.420592 1.916 -4.03766e-18)
(0.478976 1.89869 -1.54513e-19)
(0.316155 2.00727 -8.83124e-18)
(0.309554 2.0737 -4.17965e-17)
(0.41421 2.04255 -3.33924e-17)
(0.386286 1.95268 0)
(0.351752 1.98586 -1.59571e-17)
(0.164391 2.12597 3.26164e-18)
(0.231059 2.07287 7.42643e-17)
(0.159252 2.12878 5.1103e-18)
(0.744321 1.88637 -4.04255e-17)
(0.627569 1.88906 0)
(1.01014 0.0117477 -8.49243e-20)
(1.00709 -0.00753388 1.86917e-19)
(1.00476 -0.0179774 -1.18522e-17)
(1.01657 -0.0032551 -1.63176e-17)
(1.01077 0.00452142 0)
(0.68945 1.44159 0)
(0.640915 1.37192 0)
(0.765481 1.26222 0)
(0.692707 1.29819 0)
(0.977579 2.07085 3.4758e-17)
(0.931568 1.91242 0)
(0.705918 1.88019 -1.28929e-18)
(0.655676 1.99879 0)
(0.690601 2.03724 8.61081e-17)
(0.771668 1.99324 8.21927e-17)
(0.807838 0.154827 0)
(0.790485 0.152934 -6.33485e-19)
(0.89358 0.139553 1.51895e-17)
(0.83823 0.114964 -3.59352e-17)
(0.845149 0.0842063 -5.55356e-18)
(1.02333 0.251741 -3.79103e-17)
(0.894292 0.309507 3.43199e-17)
(0.851132 0.297325 3.48301e-17)
(0.946026 0.229793 1.87307e-17)
(0.888144 0.16683 4.19355e-17)
(0.873566 0.191609 -1.23915e-17)
(0.866672 0.266587 2.74284e-19)
(0.851714 0.223301 0)
(0.944061 0.199472 2.94049e-17)
(0.991987 0.183246 0)
(0.981645 0.251561 0)
(1.05773 0.131115 -1.33577e-17)
(1.00187 0.185337 3.77664e-17)
(0.998354 0.209823 2.47337e-17)
(1.0511 0.203091 0)
(0.994782 0.0283191 -4.0775e-17)
(1.01066 0.0365236 4.08126e-17)
(1.01077 0.0369027 -3.44847e-17)
(1.0112 0.0570273 4.88577e-17)
(0.986133 0.0502583 -7.04136e-17)
(0.942092 0.143726 0)
(0.949767 0.0684883 0)
(0.943799 0.0534393 5.08233e-17)
(0.923978 0.0518605 1.13674e-17)
(0.995266 0.0991221 -4.27567e-17)
(1.02128 0.136518 -3.65195e-17)
(1.01383 0.154319 -6.92464e-18)
(0.973774 0.149663 0)
(1.02488 0.102397 0)
(1.01597 0.0889755 4.09428e-17)
(0.995224 0.0877554 -3.48196e-17)
(0.59973 1.33103 3.3665e-17)
(0.609152 1.50202 -2.62228e-17)
(0.922932 2.14821 2.1214e-17)
(0.971909 2.39278 -2.3276e-18)
(1.03216 2.13465 -3.83071e-17)
(1.09291 2.18797 8.189e-18)
(1.09464 1.94801 9.8721e-18)
(1.00628 2.29554 -2.12796e-17)
(1.00889 2.27941 -1.38231e-17)
(1.04721 2.49144 -5.0737e-19)
(1.16135 2.39397 1.78752e-18)
(1.23491 2.34983 0)
(0.471228 1.15614 -4.36069e-18)
(-0.24925 1.40944 -1.5907e-17)
(-0.0556577 0.607576 -5.84629e-18)
(-0.177577 0.888882 -1.81719e-17)
(0.315694 0.44821 -7.73831e-18)
(0.339139 0.505954 -1.4932e-18)
(0.276668 0.611647 -3.56385e-18)
(0.167699 0.464364 1.57229e-18)
(0.281675 0.364568 -5.56372e-18)
(0.718403 0.280019 2.76469e-17)
(0.672614 0.304262 0)
(0.690795 0.264473 7.38717e-18)
(0.602805 0.563494 -1.253e-17)
(0.51119 0.533166 1.01192e-17)
(0.412876 0.590687 -7.06605e-18)
(0.487375 0.484294 0)
(0.562045 0.961924 -2.77518e-17)
(0.74562 0.904609 6.00466e-17)
(0.680198 1.07004 5.85938e-17)
(0.791893 0.937495 1.4919e-17)
(0.902 0.929995 -5.62665e-18)
(0.904774 1.00289 -6.3809e-18)
(0.781695 0.773404 2.02872e-18)
(0.843222 0.81305 1.30881e-17)
(0.935725 0.864554 0)
(0.930127 0.730568 2.95536e-17)
(0.953369 0.328272 6.25904e-17)
(1.06663 0.326181 -2.13192e-17)
(0.999859 0.310818 -5.77676e-17)
(0.908223 0.409551 5.47389e-17)
(1.0051 0.45929 0)
(1.03085 0.431134 0)
(0.815379 0.40345 6.05021e-17)
(0.770119 0.299135 0)
(0.775684 0.29943 -1.58088e-17)
(0.856409 0.336706 8.23993e-17)
(0.835062 0.509539 -9.0926e-17)
(0.763356 0.557731 2.81419e-18)
(0.802213 0.509859 6.48588e-18)
(0.723099 0.474404 1.69808e-18)
(0.718164 0.486246 -5.36415e-18)
(0.667183 0.452219 -2.74711e-18)
(1.02012 -0.00316433 -5.24228e-17)
(1.00766 -0.00648078 0)
(1.01785 0.00319672 1.60977e-17)
(1.01003 0.0104867 -2.43922e-17)
(1.01485 0.00513975 -2.53397e-17)
(1.00538 0.0144843 -4.08365e-18)
(1.00382 0.0108619 0)
(1.00712 0.00403167 1.42053e-17)
(1.00731 0.00881665 2.86252e-18)
(1.00404 0.00737899 -5.96589e-18)
(1.00648 0.00299613 1.20166e-17)
(-0.112005 1.58778 0)
(-0.145514 1.66721 0)
(-0.0873436 1.5092 0)
(-0.0829056 1.52425 0)
(-0.0806075 1.60746 -5.02151e-18)
(-0.00547682 1.51564 -1.3087e-16)
(0.0284394 1.73937 -3.99939e-17)
(0.0313056 1.60319 -1.03252e-16)
(-0.194492 1.68171 6.76396e-17)
(-0.171491 1.69165 7.51782e-17)
(-0.121665 1.57092 1.45123e-16)
(-0.124954 1.56769 6.79969e-17)
(-0.128774 1.57575 1.20489e-17)
(-0.160652 1.64625 1.638e-18)
(-0.0664561 2.09755 -8.46504e-17)
(-0.0101122 2.14872 0)
(0.00654947 2.01361 -4.87884e-17)
(-0.000886541 1.82425 -5.70845e-18)
(0.253662 1.91197 -2.21305e-17)
(0.153267 2.07819 0)
(0.171831 2.05319 6.39217e-17)
(0.237935 2.03257 6.04657e-17)
(0.196458 1.92429 -7.64418e-17)
(0.0913311 2.03664 -9.90445e-17)
(0.0282378 2.06984 0)
(-0.171791 1.8955 3.81034e-17)
(-0.136391 1.89575 -2.75223e-17)
(-0.158084 1.87949 0)
(-0.11911 1.98046 2.54053e-17)
(-0.173197 1.98484 2.15922e-17)
(-0.0856045 1.73025 1.15987e-17)
(-0.0608487 1.73412 -1.22757e-16)
(-0.0755067 1.75947 -7.94951e-17)
(-0.116438 1.74722 5.6803e-17)
(-0.11775 1.73324 0)
(-0.0283299 1.76532 0)
(-0.0126205 1.76457 -4.67497e-17)
(-0.0217684 1.75963 -4.58113e-18)
(-0.0282665 1.76172 0)
(-0.0181259 1.75603 4.05436e-17)
(-0.00790707 1.75561 3.01701e-19)
(1.01912 0.0273736 0)
(1.02878 0.0187508 -1.94578e-19)
(1.01262 0.0245519 5.01712e-17)
(1.0265 0.0155082 0)
(1.02049 0.00329311 0)
(1.02197 0.00271795 2.58391e-17)
(1.01783 0.00912823 -6.02807e-17)
(1.01133 0.00776664 -1.39371e-17)
(1.00502 0.00945726 0)
(1.00881 0.0135127 0)
(1.01139 0.0175345 3.89068e-17)
(1.00345 0.0181474 0)
(1.00729 0.0168286 0)
(-0.0279889 1.79167 0)
(-0.01212 1.78649 -4.99468e-17)
(-0.0133236 1.78087 5.17957e-17)
(-0.0164088 1.75888 0)
(-0.00726172 1.79127 -4.69483e-17)
(-0.0181299 1.77423 -2.30442e-17)
(-0.0207457 1.76215 0)
(0.386728 1.69393 0)
(0.335209 1.5413 2.52325e-17)
(0.309596 1.49107 0)
(0.395022 1.5059 1.0322e-16)
(0.488331 1.59632 0)
(0.457298 1.60992 3.94958e-17)
(0.804039 2.06682 -4.08564e-19)
(0.760317 1.88241 -3.52707e-17)
(0.732369 1.75378 -2.11432e-17)
(0.645202 1.87333 -9.06528e-18)
(0.645102 1.98693 0)
(0.711001 1.97846 0)
(0.700735 1.88221 0)
(0.691828 1.86974 -6.62531e-18)
(0.528718 2.04974 -4.85671e-17)
(0.606762 1.97505 4.22347e-18)
(0.600842 2.0271 3.44758e-18)
(0.50254 1.8857 0)
(0.575167 1.88584 0)
(0.556081 1.88774 2.88602e-19)
(0.56758 1.98798 0)
(0.642461 1.25556 0)
(0.584523 1.18075 -7.95753e-17)
(0.561769 1.16037 -7.39661e-18)
(0.612718 1.26364 0)
(0.585968 1.21636 -8.19594e-17)
(0.722334 1.08724 -1.30085e-17)
(0.779048 1.21809 0)
(0.791951 1.12466 -3.4138e-17)
(0.688349 1.23061 0)
(0.617807 1.17796 0)
(0.909993 2.12875 1.4668e-17)
(0.900932 2.19982 -1.36835e-17)
(0.763819 1.95737 -4.51398e-17)
(0.752787 1.92726 -4.43554e-18)
(0.893721 2.1035 0)
(0.840253 2.09189 -4.77325e-18)
(0.877927 1.97662 -7.68008e-18)
(0.841416 1.81313 -9.22806e-18)
(0.550846 1.47185 0)
(0.559672 1.3203 3.61807e-17)
(0.585115 1.3677 0)
(0.824475 0.204069 0)
(0.779159 0.184491 0)
(0.754872 0.184143 0)
(0.811373 0.251002 -1.18955e-17)
(0.750533 0.226931 7.5749e-18)
(0.932822 0.0797358 1.39519e-17)
(0.922824 0.119545 0)
(0.896609 0.0945851 -7.9124e-20)
(0.856243 0.0795728 -2.40354e-18)
(0.863024 0.0503016 -8.32296e-18)
(1.04325 2.6648 -1.64289e-17)
(0.961817 2.5629 0)
(0.914188 2.73595 -6.0981e-17)
(0.580752 2.94411 -3.98743e-17)
(0.69336 2.46457 1.27566e-17)
(0.456089 1.23055 -2.80966e-17)
(0.541259 1.12862 0)
(0.219941 0.877688 7.7426e-18)
(0.249867 0.980803 5.31133e-17)
(0.138969 0.8568 1.11727e-17)
(0.222467 0.65489 7.11299e-18)
(0.482284 0.650002 -8.88996e-18)
(0.507796 0.698052 0)
(0.458555 0.814631 0)
(0.333612 0.77217 0)
(0.914246 0.698859 1.3957e-17)
(0.837381 0.608845 6.46318e-18)
(0.848955 0.64351 -1.05527e-18)
(0.875488 0.527577 2.25205e-17)
(0.974716 0.566984 0)
(0.974815 0.624509 -1.36704e-17)
(0.768544 0.429045 8.66284e-18)
(0.770307 0.378734 2.57134e-17)
(0.696181 0.400477 -2.07676e-18)
(0.699251 0.381669 1.17081e-19)
(0.751814 0.346645 -1.30265e-17)
(0.726598 0.321735 -1.72614e-17)
(1.02178 7.12862e-05 -4.97151e-17)
(1.02042 -0.00509761 -3.48316e-17)
(1.02625 -0.00221833 4.83781e-17)
(1.0231 -0.0052044 5.60169e-17)
(1.01848 0.0127581 0)
(0.999872 0.0108023 -2.57582e-17)
(-0.169644 1.85415 3.19991e-17)
(-0.165787 1.79392 0)
(-0.105953 1.82283 -5.34019e-17)
(-0.0622983 1.81356 -7.12718e-17)
(-0.0442191 1.73666 -4.21587e-17)
(-0.109536 1.75704 0)
(-0.0236936 1.80419 0)
(-0.0237009 1.76745 -2.33981e-17)
(-0.0257782 1.75976 -2.3712e-17)
(-0.023807 1.77909 -5.92848e-17)
(-0.0433787 1.7947 -1.23378e-17)
(-0.0132901 1.79658 -4.96857e-18)
(0.523584 1.48293 -1.37738e-16)
(0.495759 1.51832 -1.50564e-16)
(0.458508 1.50225 8.84645e-17)
(0.429175 1.48765 -5.71292e-18)
(0.640046 1.49412 0)
(0.561107 1.58687 8.85993e-17)
(0.60544 1.53356 8.38381e-17)
(0.491062 1.47317 8.36348e-17)
(0.53376 1.45685 0)
(0.598783 1.39216 0)
(0.512451 2.04166 -5.3188e-17)
(0.479285 1.97471 -7.49777e-17)
(0.506883 1.97922 -6.92666e-17)
(0.42177 1.97493 -3.22885e-18)
(0.436171 2.116 3.50604e-18)
(0.409078 2.02998 -2.56224e-17)
(0.772052 1.86805 -1.57436e-17)
(0.824576 1.89147 0)
(0.771992 1.75131 1.92959e-18)
(0.842964 2.05764 0)
(0.818384 2.06455 0)
(0.565286 1.95387 -5.65308e-18)
(0.913286 2.40105 -6.46338e-18)
(0.784756 2.40557 1.44043e-18)
(0.150141 1.25758 0)
(0.192128 1.22548 -1.91307e-17)
(0.442397 1.14148 -4.45283e-17)
(0.383185 1.90244 0)
(0.378748 2.24657 9.53265e-18)
(0.175229 2.23858 0)
(0.595871 0.872817 -2.112e-17)
(0.62379 0.858081 -5.17484e-17)
(0.647624 0.808294 -3.32316e-17)
(0.48832 0.845338 -2.61561e-18)
(0.558424 0.728206 -2.08205e-19)
(0.830383 2.21834 -1.03008e-17)
(0.890585 2.20173 -1.301e-17)
(0.660006 1.92301 1.56141e-17)
(0.640788 1.6585 3.26735e-17)
(0.691505 1.70979 4.31332e-17)
(0.840377 1.99958 -3.5434e-17)
(0.846877 2.00263 -1.96069e-17)
(0.710827 1.66225 1.0632e-18)
(0.572248 1.4238 4.05228e-17)
)
;

boundaryField
{
    wall-4
    {
        type            calculated;
        value           uniform (0 0 0);
    }
    velocity-inlet-5
    {
        type            calculated;
        value           uniform (1 0 0);
    }
    velocity-inlet-6
    {
        type            calculated;
        value           uniform (0 3 0);
    }
    pressure-outlet-7
    {
        type            calculated;
        value           nonuniform List<vector> 8((-0.0153978 1.67948 0) (-0.00334796 1.63931 6.84328e-17) (-0.000971518 1.75678 0) (-0.0157403 1.80129 0) (-0.00706126 1.77679 0) (-0.00374344 1.77639 0) (-0.01211 1.7713 0) (-0.00970127 1.788 0));
    }
    wall-8
    {
        type            calculated;
        value           uniform (0 0 0);
    }
    frontAndBackPlanes
    {
        type            empty;
    }
}

