/*--------------------------------*- C++ -*----------------------------------*\
  =========                 |
  \\      /  F ield         | OpenFOAM: The Open Source CFD Toolbox
   \\    /   O peration     | Website:  https://openfoam.org
    \\  /    A nd           | Version:  6
     \\/     M anipulation  |
\*---------------------------------------------------------------------------*/
FoamFile
{
    version     2.0;
    format      ascii;
    class       volScalarField;
    location    "0";
    object      p;
}
// * * * * * * * * * * * * * * * * * * * * * * * * * * * * * * * * * * * * * //

dimensions      [0 2 -2 0 0 0 0];

internalField   nonuniform List<scalar> 
918
(
0.209144
0.980033
0.00605981
0.208346
0.000876077
0.948921
-0.83777
0.393418
0.187081
-0.135987
0.0223341
0.181455
0.80014
0.565939
-1.50089
0.0159513
0.347496
-0.671136
0.186331
0.00476764
0.465766
0.193628
0.19692
0.189132
0.241279
0.543473
0.672787
0.000994793
-0.00354801
-0.00138054
0.00336539
0.000840119
0.00638675
0.822022
0.868309
0.886911
0.158248
0.01823
-0.700908
-0.767668
-0.757446
-0.868164
0.380579
0.382415
-0.508607
0.391997
0.403016
0.175828
0.186355
0.187115
0.188805
0.187559
0.188829
0.291036
-0.163816
-0.232462
-0.0759674
-0.0611784
0.0794139
0.0195055
0.00981197
0.0232182
0.0250062
0.116881
0.176449
0.171495
0.186733
0.196645
0.90556
0.877415
0.900147
0.825621
0.8428
0.77422
0.746786
0.586836
0.609432
0.550065
0.541003
-1.96865
-2.94055
-0.906704
-0.624085
0.00142269
0.0217232
0.02506
0.331408
0.334212
0.341766
0.353102
0.791288
-0.64328
-0.776408
0.185014
0.183898
0.19233
0.19405
0.190352
0.189966
0.012315
0.0219162
-0.00017033
0.0066312
0.00592991
0.439731
0.436197
0.18873
0.185948
0.204435
0.227733
0.217987
-0.0474324
0.257326
0.277283
0.367983
0.537557
0.529877
0.540141
0.646562
0.613757
0.70549
0.729243
0.00626258
0.00177813
0.0105207
0.00855775
0.0095469
0.154115
0.148609
0.165779
0.159846
0.161411
-0.0742354
-0.215195
0.0926939
0.118387
-0.622265
-0.677023
-0.744909
-0.789226
-0.856267
0.17631
0.369949
0.374158
-0.520787
-0.443649
-0.582419
-0.38111
-0.446066
0.163637
0.17292
0.168459
0.182833
0.177504
0.17911
0.1901
0.187444
0.18899
0.317733
0.389343
0.24756
0.221831
-0.467141
-0.292587
-0.416698
-0.0321018
-0.021601
0.0895703
0.101124
0.0690547
0.0669641
0.00518729
0.0112438
0.00550377
0.0260042
0.0281492
0.11141
0.101149
0.124723
0.131605
0.167967
0.167583
0.170561
0.17172
0.695619
0.717995
0.72637
0.703098
-3.93726
-6.63235
-0.26472
-0.0993077
0.00267726
0.00299849
0.00161798
0.00352497
0.00339095
0.000803832
0.0405162
0.0389609
0.0292863
0.0357309
0.319317
0.321529
0.790414
0.842647
0.713404
0.694821
0.17267
0.175677
0.181676
0.178188
0.0287232
0.0249107
0.0303658
0.402962
0.41915
0.418568
-0.0831466
-0.170549
0.00166324
0.0288972
0.311722
0.290736
0.31642
0.430195
0.470916
0.741579
0.766453
0.753605
0.770131
0.818003
0.837937
0.803199
0.137098
0.146857
0.141876
0.172688
0.169818
0.170886
0.167286
0.167735
0.166595
-0.346682
-0.714426
0.196425
0.191428
0.151966
0.163217
0.242806
0.338373
0.349924
0.360095
0.361126
-0.327944
-0.381334
0.187254
0.17478
0.0541239
0.0865731
0.0699681
0.670779
0.634176
0.681381
0.65701
0.620718
0.642772
-0.645655
-2.4245
-1.37402
0.306118
0.101818
0.197941
0.0569877
0.0455079
0.048584
0.838663
0.82707
0.44427
0.589981
0.548141
0.50303
0.533623
0.586405
0.517158
0.551858
0.586762
0.567123
0.151055
0.201307
0.161899
0.426645
0.502096
-0.203254
-0.267939
-0.305466
0.112826
0.144287
0.127278
0.722366
0.581733
0.665839
0.186861
0.186517
0.0115563
0.0193753
0.188949
0.188923
0.00688539
0.00891928
0.198363
-1.26635
-0.191229
0.179785
0.170517
0.185117
-0.122095
0.280629
0.0185293
0.0865752
0.0596349
0.175949
0.126878
0.0886693
0.00753277
0.0192573
0.0165261
-0.459025
0.183686
0.18143
0.18451
0.185858
0.186561
0.00943507
0.0106702
0.00759446
0.0136687
0.0110361
0.0104319
0.155862
0.165544
-0.484584
0.18486
0.186813
0.186485
0.181415
0.185187
0.183337
0.0150785
0.0110081
0.0100336
-0.0989815
0.0271668
0.41995
0.523619
0.349637
0.165534
-0.120203
0.337563
0.400387
0.306723
0.463624
0.350974
0.368432
-0.141355
-0.281663
-0.122985
-0.185568
0.177356
0.175506
0.16789
0.164293
0.179807
0.178032
0.182678
0.180739
0.183423
0.18435
-0.0704796
-0.0578282
-0.16928
-0.241651
0.317052
0.409226
0.202569
0.232102
0.138361
0.0237575
0.0241065
0.0182086
0.0147096
0.0521523
0.0631047
0.0773324
0.0686942
0.0484094
0.0470594
0.0515572
0.0554041
0.0609844
0.17113
0.170572
0.174641
0.182985
0.134549
0.137471
0.107028
0.125313
0.11593
0.0621158
0.0899894
0.0673817
0.00831
0.00979383
0.00828976
0.0234752
0.0277162
0.0149831
0.0134607
0.0131015
0.0109721
0.0117977
0.0196737
0.0228215
-0.488858
-0.568926
0.763465
0.665582
-0.465049
0.173717
0.17757
0.175584
0.179472
0.182207
0.182519
0.180768
0.178926
0.166405
0.169
0.164057
0.164758
-0.439017
-0.585263
-0.385404
-0.458206
-0.162115
0.295686
0.0358225
-0.0206941
-0.0293379
0.182941
0.376717
0.334723
0.457691
0.448606
-0.719003
-0.287459
-0.636259
-0.08906
-0.136197
0.436409
0.485147
0.508075
0.458803
0.408065
-0.346213
0.178707
-0.367704
-0.344053
-0.175513
-0.243467
0.395782
0.335148
0.34235
0.356833
0.382741
0.338872
0.326361
0.321487
0.350346
0.357176
0.166655
-0.0542875
-0.102007
-0.141055
0.316784
0.202869
0.252653
0.170194
0.170788
0.17398
0.173394
0.160231
0.162024
0.159332
0.164566
0.166966
0.175489
0.176097
0.171788
0.173133
-0.0325387
-0.0157352
-0.150619
-0.384496
-0.271459
-0.373099
-0.239186
0.0461405
0.079537
-0.115805
0.18296
-0.117898
-0.427405
-0.308595
-0.502222
-0.156258
-0.272755
0.0960517
0.149274
0.163467
0.139088
0.198908
0.180397
0.0376732
0.0448032
0.0301981
0.0287836
0.091925
0.110553
0.108983
0.0461988
0.0495532
0.0269688
0.0282515
0.0657688
0.0409495
0.0513059
0.0629788
0.0208505
0.0236908
0.028296
0.0373018
0.0384731
0.0400273
0.165209
0.167984
0.16547
0.17952
0.188446
0.201847
0.176419
0.152713
0.143034
0.147444
0.126183
0.130372
0.13347
0.140667
0.157745
0.163955
0.162574
0.163747
0.149973
0.151625
0.137431
0.142457
0.127713
0.110701
0.0980455
0.0180534
0.0110607
0.0147536
0.0155514
0.0101643
0.0125167
0.0406696
0.0338258
0.0375868
0.0321642
0.0359151
0.0163256
0.018039
-0.60816
-0.672926
-0.547514
-0.595917
-0.613676
0.667521
0.711476
0.610898
0.338037
0.335003
0.588169
0.714535
0.397695
0.470368
0.498704
0.115674
0.425641
0.177644
0.177739
0.17485
0.174514
0.175093
-0.352235
-0.250737
-0.236003
-0.19536
-0.0375932
0.0677677
0.112467
-0.181831
-0.0354588
0.0350548
0.29207
0.304239
0.250665
0.272433
0.269809
0.106447
0.181891
0.220949
0.183788
0.229856
0.254662
0.209991
0.241282
0.185606
0.148173
0.147511
0.0904888
0.118261
0.101164
0.0786049
0.166779
0.148149
0.157017
0.149277
0.167502
0.200305
0.194114
0.213083
0.230983
0.157104
0.114384
0.127995
0.155483
0.112054
0.124944
0.142365
-0.153035
-0.224525
-0.114005
-0.465426
-0.313265
-0.294375
-0.330589
-0.401874
-0.0919221
-0.750658
-0.664401
-1.34997
0.126513
0.51828
0.353555
0.365141
0.379519
0.355842
0.35932
0.386351
0.394889
0.309184
0.326309
0.329518
0.279574
0.312595
0.327311
0.328926
0.143898
0.0775045
0.0640227
0.019305
-0.116985
-0.0895569
0.0995909
0.0390994
-0.0331825
-0.0349297
0.139806
0.0328652
0.0947254
0.132908
0.0814756
0.0189199
0.224707
0.280506
0.272108
0.24023
0.156998
0.174907
0.191205
0.227236
0.257495
0.289561
0.164438
0.169603
0.172412
0.168847
0.164614
0.167936
0.168397
0.169562
0.170267
0.172052
0.17068
0.0137326
0.0184035
0.00143091
0.00999445
-0.016223
-0.0455637
0.0283588
-0.0501208
0.0307582
0.0249958
-0.00872401
-0.0117392
-0.000533707
0.0141168
0.127136
0.140057
0.133583
0.0914575
0.040331
0.325231
0.27761
0.203054
0.0999214
0.186851
0.290978
0.0741037
0.0833135
0.0708722
0.0909558
0.0876695
0.0324716
0.028716
0.032192
0.040874
0.0372277
0.0310884
0.0256941
0.0261898
0.0280668
0.0282394
0.0285733
0.152004
0.147151
0.149284
0.142716
0.141869
0.154759
0.15783
0.158765
0.163158
0.164837
0.157079
0.161064
0.164284
0.0269836
0.0215598
0.0233142
0.0237871
0.0232567
0.0203615
0.0208764
-0.48993
-0.777936
-0.791248
-0.601992
-0.56483
-0.584386
0.180677
0.0499259
0.168998
0.293189
0.191124
0.0930525
0.13521
0.212944
-0.145936
0.0812926
-0.0866688
0.551195
0.403591
0.545848
0.137364
-0.115724
0.0219488
0.0511971
-0.108819
-0.0167879
-0.00364733
-0.132559
-0.102828
-0.0671826
0.0167948
-0.0597931
-0.087954
-0.269594
-0.0554999
-0.0344763
-0.0601117
0.0832606
0.142774
0.0244693
-0.118811
-0.193461
0.274262
0.294088
0.309185
0.283671
0.302997
0.236086
0.225243
0.243904
0.253003
0.248195
-1.01
-0.62502
-1.78577
-1.18822
-0.746145
0.146012
0.124278
0.364527
0.283893
0.358275
0.346775
0.298531
0.263181
0.275418
0.311346
0.0216935
0.125725
0.0880406
0.110866
0.0442005
-0.028283
0.239027
0.24577
0.271043
0.298991
0.270818
0.301766
0.161834
0.161624
0.163507
0.161517
0.155865
0.158043
0.0800545
0.0610544
0.0771148
0.0621249
0.0459028
0.048055
0.0310715
0.0288998
0.0253422
0.0260557
0.0292086
0.033882
-0.180364
-0.3371
-0.495714
-0.478937
-0.357763
-0.474856
-0.461432
-0.403944
-0.265226
-0.281281
-0.0961414
0.283517
0.0443011
0.294549
-0.119305
0.16016
0.189543
0.155791
0.191023
0.0724874
0.1714
-0.327642
-0.525907
-0.556068
0.423218
0.383197
0.179355
-0.0745376
-0.198198
0.0976887
0.177039
0.141306
0.179688
0.229976
0.225225
-0.363956
-0.289687
-0.19365
0.0884507
-0.111746
-0.116992
-0.101478
0.0138783
-0.0113933
)
;

boundaryField
{
    wall-4
    {
        type            zeroGradient;
    }
    velocity-inlet-5
    {
        type            zeroGradient;
    }
    velocity-inlet-6
    {
        type            zeroGradient;
    }
    pressure-outlet-7
    {
        type            fixedValue;
        value           uniform 0;
    }
    wall-8
    {
        type            zeroGradient;
    }
    frontAndBackPlanes
    {
        type            empty;
    }
}

