/*--------------------------------*- C++ -*----------------------------------*\
  =========                 |
  \\      /  F ield         | OpenFOAM: The Open Source CFD Toolbox
   \\    /   O peration     | Website:  https://openfoam.org
    \\  /    A nd           | Version:  6
     \\/     M anipulation  |
\*---------------------------------------------------------------------------*/
FoamFile
{
    version     2.0;
    format      ascii;
    class       volVectorField;
    location    "0";
    object      U;
}
// * * * * * * * * * * * * * * * * * * * * * * * * * * * * * * * * * * * * * //

dimensions      [0 1 -1 0 0 0 0];

internalField   nonuniform List<vector> 
918
(
(0.985857 0.00395274 0)
(-0.00398496 2.96738 0)
(0.00139372 1.64971 0)
(0.980833 -0.00211791 0)
(-0.00512967 1.61699 -9.21822e-22)
(0.00136227 2.95101 -1.39697e-18)
(0.854055 1.14368 4.96075e-19)
(0.499355 0.224637 -5.75617e-21)
(0.999952 -0.000425309 0)
(0.0475828 1.3023 0)
(-0.0144258 1.37907 0)
(0.829661 -0.00613728 0)
(0.00876686 2.93498 0)
(0.00299748 2.79792 0)
(-0.000771329 3.20203 7.91824e-19)
(-0.00578594 1.52606 -1.17398e-20)
(0.595321 0.0945016 3.57464e-19)
(0.242196 1.21848 3.85702e-19)
(0.966368 0.00554236 0)
(0.00518701 1.51158 0)
(0.216552 0.270414 -3.07422e-19)
(1.00129 -0.00534662 0)
(1.00143 -0.008571 0)
(0.977193 -0.0052369 0)
(0.752993 -0.0125309 0)
(0.0310519 2.6364 0)
(-0.0108987 2.91577 4.68141e-19)
(-0.0108521 1.67539 0)
(-0.0110828 1.76719 0)
(-0.0128027 1.67274 0)
(0.00206477 1.80111 0)
(0.00437594 1.62863 7.21744e-22)
(-0.00595595 1.53807 0)
(-0.0198056 2.98956 -4.90049e-23)
(-0.0137603 3.00795 1.09974e-18)
(0.00162076 2.99973 0)
(0.879783 -0.00613383 0)
(0.35047 0.882477 -1.84611e-20)
(0.854294 1.1606 -7.04267e-19)
(0.975507 1.04386 6.57784e-19)
(0.719376 1.24354 -1.16344e-19)
(0.737188 1.19203 6.57434e-19)
(0.536029 0.305919 5.61414e-21)
(0.532864 0.202187 0)
(1.21046 0.554011 0)
(0.49108 0.318419 2.59873e-20)
(0.458831 0.233678 -2.6975e-20)
(0.925118 -0.00286177 0)
(1.00038 -0.000126124 0)
(0.999932 0.000284763 0)
(1.0039 -0.00698627 0)
(1.00047 -0.000812311 0)
(1.00003 3.47157e-06 0)
(0.0463157 1.5775 -3.72894e-19)
(0.0139784 1.42199 0)
(0.0607654 1.26315 0)
(0.0116014 1.47625 0)
(0.042491 1.32174 0)
(0.00450123 1.57079 0)
(-0.01818 1.53063 0)
(-0.00304155 1.36911 0)
(-0.0198783 1.55843 0)
(-0.013673 1.4108 0)
(0.906838 0.00265953 0)
(0.907633 0.00758394 0)
(0.847215 0.00130909 0)
(0.899046 0.0118696 0)
(0.816669 -0.00691939 0)
(0.0137126 3.00357 5.0397e-19)
(0.0114992 3.00436 0)
(0.00741526 3.00385 0)
(0.0105697 2.99806 5.6328e-24)
(0.00614825 2.96201 -7.58331e-19)
(0.0117089 2.9848 0)
(0.00843844 2.90906 0)
(0.0212672 2.93309 1.02859e-24)
(0.0044594 2.82791 0)
(0.0264079 2.91985 0)
(-0.000217688 2.74613 0)
(0.310202 3.60545 0)
(-0.128035 3.68675 0)
(0.150342 3.29308 -7.33765e-19)
(0.00506972 3.02371 0)
(-0.00497627 1.78178 0)
(-0.0018184 1.64485 1.15794e-20)
(-0.00424585 1.53867 -1.65138e-20)
(0.660857 0.155709 -1.22986e-19)
(0.613908 0.0573756 -1.17542e-19)
(0.622773 0.189748 -3.67696e-19)
(0.580166 0.129602 -2.46143e-19)
(0.288994 1.1229 0)
(0.233311 1.26366 -3.90144e-19)
(0.361089 1.24886 6.576e-19)
(0.989502 0.00914922 0)
(0.947522 0.00949909 0)
(0.999806 0.000845521 0)
(1.0037 0.00768652 0)
(1.00328 0.00906102 -6.41017e-19)
(0.992891 0.00684317 4.91085e-19)
(-0.00617755 1.61803 0)
(-0.000628734 1.50608 0)
(-0.0110207 1.68358 0)
(-0.0101801 1.63896 0)
(0.00574707 1.52165 0)
(0.24681 0.295099 9.42858e-20)
(0.300987 0.267553 0)
(0.993935 -0.00627853 0)
(0.955675 -0.00489262 0)
(0.875474 0.0214302 0)
(0.840122 0.0385072 0)
(0.790498 0.00459275 0)
(1.03497 -0.00043275 0)
(0.796421 0.0391659 0)
(0.674905 -0.0323221 4.67126e-19)
(-0.0342353 2.86609 2.72694e-19)
(0.0359551 2.91344 0)
(0.0455216 2.89017 0)
(0.00450841 2.70045 0)
(-0.00769611 2.98796 4.35069e-19)
(-0.0124776 2.89911 0)
(-0.00961615 2.99234 -1.3672e-18)
(-0.0095716 2.93237 4.70609e-19)
(-0.00694074 1.81324 0)
(-0.00593142 1.80866 0)
(-0.000818994 1.64782 -2.04664e-22)
(0.00387721 1.62781 0)
(-0.00833586 1.5271 0)
(0.938436 -0.00203103 0)
(0.875201 -0.000880918 0)
(0.868982 0.00802574 0)
(0.942288 -0.00163939 0)
(0.891548 -0.00427923 0)
(0.474619 1.08275 1.59502e-20)
(0.523867 1.16318 0)
(0.314779 0.803344 3.34461e-21)
(0.247605 0.675277 0)
(0.965469 1.05769 -1.93024e-19)
(1.09042 0.875779 3.94931e-19)
(0.409869 1.3004 0)
(0.579769 1.2964 0)
(0.501564 1.27021 0)
(0.145294 0.00675895 -6.48649e-20)
(0.571308 0.280105 0)
(0.558692 0.180075 7.13652e-20)
(1.05076 0.921803 0)
(1.12694 0.766787 0)
(1.1571 0.701395 -3.44813e-19)
(1.18893 0.612734 0)
(1.24298 0.400081 3.45251e-20)
(0.955702 -0.00430877 0)
(0.961661 -0.00379355 0)
(0.908508 -0.00420384 0)
(0.986007 -0.00573531 0)
(0.977104 -0.00425325 0)
(0.94182 -0.00303155 0)
(0.999837 0.00245248 0)
(1.00083 0.00111053 0)
(1.00008 0.000612162 0)
(0.0257905 1.70077 2.02027e-19)
(0.0839999 1.55333 0)
(0.015637 1.72437 3.27646e-19)
(0.0275085 1.59702 -2.76338e-19)
(0.0501389 1.27354 -3.19598e-19)
(-0.00425348 1.35202 0)
(0.10652 1.20424 0)
(0.00500229 1.50871 0)
(0.0137479 1.33714 0)
(-0.00150089 1.67169 -8.06838e-22)
(-0.00510777 1.57729 0)
(0.00386631 1.67944 -3.94772e-20)
(0.00326708 1.58655 7.52872e-20)
(0.000982216 1.52008 0)
(-0.0011263 1.52761 0)
(0.01272 1.35504 0)
(-0.0219917 1.58383 0)
(-0.0115577 1.44328 0)
(0.975519 0.0165209 0)
(0.925495 0.00945097 0)
(0.95901 0.00967533 0)
(0.898023 0.00332047 0)
(0.849162 -0.0076401 0)
(0.925738 1.0741e-05 0)
(0.918426 0.00986953 0)
(0.847352 -0.000827375 0)
(0.00941255 3.06408 -4.31466e-21)
(0.0144983 3.05771 0)
(0.0124655 2.9726 0)
(0.00762438 2.88054 0)
(0.909172 4.01012 0)
(1.21149 3.38542 7.52381e-19)
(0.079925 3.10522 0)
(-0.0157297 2.92649 0)
(-0.00966667 1.79476 0)
(-0.0106075 1.78544 0)
(-0.00765244 1.78863 0)
(0.000624883 1.7899 3.07962e-21)
(-0.00689793 1.7838 0)
(0.000775285 1.78225 0)
(-0.00652537 1.55384 1.90946e-21)
(-0.00548896 1.6679 2.31099e-20)
(-0.00429027 1.65743 1.68759e-20)
(-0.00398593 1.54007 0)
(0.691392 0.128466 1.79842e-19)
(0.656527 0.041514 -1.7512e-19)
(0.228861 1.34348 0)
(0.339543 0.951534 -1.7771e-19)
(0.172137 1.43637 -5.23441e-19)
(0.23465 1.28283 5.23077e-19)
(0.913654 0.0127167 0)
(0.970887 0.0133406 0)
(0.976539 0.01111 0)
(0.930975 0.00922937 0)
(-0.0181294 1.60268 0)
(-0.0124975 1.61115 0)
(-0.00915959 1.47245 0)
(0.459985 0.339163 2.37253e-19)
(0.37919 0.311016 -2.87802e-19)
(0.392358 0.252175 0)
(1.15131 0.0869698 -4.21237e-21)
(1.13887 0.0397825 0)
(1.06678 0.0348746 0)
(0.982145 0.000659103 0)
(0.703731 0.081885 0)
(0.733369 0.0318129 -7.60556e-19)
(0.651994 0.0074222 2.97761e-19)
(0.0109634 2.98137 3.28819e-19)
(-0.0284688 2.86708 3.21356e-20)
(0.006547 3.05 -9.27689e-21)
(0.0153941 3.04147 3.5374e-19)
(-0.00984234 3.00002 1.56506e-20)
(-0.00860634 2.95401 -6.39839e-23)
(-0.0149769 3.01289 -2.99286e-19)
(0.012279 3.02412 2.1118e-19)
(0.00608498 3.03155 -3.38759e-19)
(0.954225 0.00898951 0)
(0.947049 0.00535665 0)
(0.882272 0.00429238 0)
(0.961577 0.0136051 0)
(0.944942 0.0174447 0)
(0.887218 0.0118778 0)
(0.927393 -0.00157828 0)
(0.929974 0.00494934 0)
(0.851629 -0.0056777 0)
(0.667031 1.40451 2.00559e-19)
(0.693099 1.522 0)
(0.182314 0.377437 1.86468e-20)
(0.164273 0.490436 1.45015e-19)
(0.208211 0.6234 -7.42947e-20)
(0.187612 0.519587 1.39428e-19)
(0.330242 0.622605 3.77559e-19)
(0.151322 0.0912527 1.36107e-19)
(0.612232 0.221306 2.65652e-19)
(0.592812 0.241191 6.50503e-20)
(0.569764 0.14925 1.33223e-19)
(1.23199 0.45708 2.20897e-19)
(1.25445 0.249915 2.29645e-19)
(0.00686031 1.73092 1.26981e-19)
(0.00957987 1.6047 0)
(1.02181 0.0262092 0)
(0.99218 0.0177203 0)
(0.950939 -0.000903232 0)
(0.0105679 3.07274 0)
(0.0171126 2.94534 5.98339e-19)
(0.0143471 2.95871 0)
(0.0062136 2.8538 -5.95132e-19)
(0.0080165 3.08733 1.40951e-19)
(0.0110259 3.08083 0)
(0.712607 1.81982 -1.64571e-19)
(1.25545 2.61747 5.4509e-19)
(0.695849 1.99342 -1.12019e-18)
(0.0229712 2.98392 -2.52703e-19)
(0.0416196 3.01168 0)
(-0.0312748 2.88614 0)
(-0.00379784 1.67284 -5.16323e-21)
(-0.00805589 1.67815 -5.25553e-20)
(-0.00675731 1.57715 -3.30986e-21)
(0.290722 1.23152 5.56405e-19)
(0.307894 0.667642 -3.76678e-19)
(0.0545091 1.64632 3.45589e-19)
(0.100332 1.53984 -4.24429e-19)
(0.139789 1.43991 5.31922e-20)
(0.00387933 3.11759 -8.33556e-19)
(0.0206452 3.11607 9.18038e-19)
(-0.00457254 2.98268 3.86431e-19)
(1.91608e-05 2.9781 -3.52602e-19)
(-0.0147743 2.88289 -3.93691e-19)
(0.0116287 3.09717 -1.03467e-18)
(0.00529561 3.1041 1.02418e-18)
(0.198355 0.520359 0)
(0.0980475 0.420571 -2.87142e-19)
(0.169843 0.127699 1.25085e-19)
(0.324693 0.736408 4.10092e-19)
(0.270897 0.186705 -6.26046e-19)
(1.23543 0.170775 -4.74239e-20)
(1.24838 0.309336 0)
(1.22966 0.115813 9.12531e-20)
(-0.0159048 1.69626 -1.02879e-21)
(-0.0106126 1.71318 0)
(-0.00466086 1.59446 0)
(0.338608 1.10537 -1.73089e-19)
(0.36441 0.967836 -3.57996e-19)
(0.270675 0.393381 6.06059e-19)
(1.00444 -0.0102067 0)
(1.00649 -0.00771888 1.18592e-19)
(-0.00610831 1.80332 0)
(-0.0104625 1.8098 0)
(1.00189 0.00286659 9.58183e-22)
(1.00298 0.00858124 2.40219e-19)
(-4.89211e-05 1.79397 -4.1465e-21)
(-0.000779615 1.7928 0)
(0.0504378 3.18108 1.27356e-19)
(0.380796 3.55331 0)
(1.06546 0.687921 4.81892e-20)
(1.01033 0.0092823 -1.44278e-21)
(1.01352 -0.0173933 0)
(1.00151 0.000503841 1.24498e-22)
(-0.129135 1.61094 0)
(0.0148424 1.95995 0)
(-0.0152172 1.79382 0)
(-0.0143482 1.8302 5.61044e-20)
(-6.12995e-05 1.81206 2.8819e-20)
(1.00426 0.00982876 1.23651e-21)
(1.04729 0.014987 0)
(1.07857 0.0336077 0)
(-0.0108984 1.78572 0)
(-0.0064241 1.80534 0)
(-0.014513 1.79561 0)
(0.110773 1.2328 -2.78502e-19)
(1.00895 -0.00807793 0)
(1.01193 -0.0131933 0)
(1.00268 0.000158537 1.48358e-19)
(1.00576 -0.00573152 -1.78142e-19)
(1.00094 -0.000762473 0)
(-0.0127144 1.78717 0)
(-0.00926702 1.79691 0)
(-0.00878095 1.79446 0)
(-0.0114387 1.79854 0)
(-0.00803055 1.79493 0)
(-0.0104492 1.79808 0)
(1.01971 0.00573986 0)
(1.02498 0.00738789 -8.28155e-22)
(0.754892 1.26445 3.54346e-19)
(1.00259 0.000419657 -1.47346e-19)
(1.00302 0.00357618 1.80135e-19)
(1.00116 0.00197373 0)
(1.01009 0.00877337 1.46343e-19)
(1.00773 0.0099139 -1.81073e-19)
(1.0086 0.010362 0)
(-0.00634804 1.80561 0)
(-0.00374664 1.80032 9.06472e-21)
(-0.00456753 1.80001 -6.18689e-21)
(1.18059 0.27051 -7.95689e-20)
(1.11688 0.0817005 0)
(0.060885 3.08528 -4.0414e-19)
(0.0536798 2.8642 -3.07787e-20)
(0.123352 3.20458 5.2176e-19)
(0.12656 3.22181 -4.52669e-20)
(0.154082 3.26258 0)
(0.0254267 3.13764 9.81975e-20)
(0.0742406 3.16261 3.96921e-19)
(0.0712849 3.18515 -1.88289e-19)
(0.0312439 3.1258 0)
(0.708495 0.346882 0)
(0.629625 0.396308 0)
(1.07005 0.713147 -1.81458e-19)
(1.03293 0.862587 2.76735e-19)
(1.11408 0.591892 0)
(1.14614 0.545322 0)
(1.01342 0.00838987 -2.75194e-19)
(1.01095 0.00548331 3.41236e-19)
(1.01411 -0.0186763 0)
(1.00885 -0.0229493 0)
(1.0089 -0.00050355 0)
(1.01115 0.00117127 0)
(1.0036 0.00337154 0)
(1.00875 0.00754212 0)
(1.0069 0.00519658 0)
(1.00344 0.00502508 0)
(-0.0956553 1.63474 0)
(-0.0726526 1.67846 0)
(-0.143525 1.58311 0)
(-0.13407 1.52103 0)
(0.0235137 1.96753 0)
(0.0853421 1.94915 -2.19269e-19)
(0.00513707 1.95287 0)
(-0.00432223 1.91989 1.02834e-19)
(-0.024429 1.86621 -1.00384e-19)
(-0.0178109 1.7922 0)
(-0.0237652 1.78876 0)
(-0.0145333 1.7945 0)
(-0.0105315 1.78158 0)
(-0.0281566 1.81771 -2.91004e-20)
(-0.00153957 1.81677 3.95277e-20)
(-0.00473719 1.83088 5.13124e-20)
(0.0050843 1.82253 0)
(-0.00843415 1.81595 -6.44996e-20)
(-0.0126245 1.81129 -3.80345e-20)
(-0.01911 1.81373 2.26144e-20)
(-0.0112949 1.81536 -4.99928e-20)
(-0.00637191 1.82327 -6.11325e-20)
(1.00984 0.0153849 2.65121e-19)
(1.0079 0.00257106 -3.30527e-19)
(1.00719 0.0173927 -2.74888e-19)
(0.994489 0.0177549 3.51689e-19)
(1.04052 0.0175566 0)
(1.04302 0.0112713 0)
(1.06401 0.03406 0)
(1.04869 0.0239829 0)
(1.05989 0.0104627 0)
(1.10179 0.070692 0)
(1.07709 0.0429524 0)
(1.09943 0.0408413 0)
(-0.00650419 1.7954 -1.03743e-21)
(-0.0105185 1.78551 0)
(-0.00895472 1.78715 0)
(-0.00584027 1.8075 1.01876e-20)
(-0.00474966 1.80665 -4.8069e-22)
(-0.013862 1.78465 1.07951e-20)
(-0.0129715 1.78771 -1.11535e-20)
(-0.0124109 1.7935 0)
(-0.0101839 1.79431 0)
(-0.0112941 1.79506 0)
(-0.0133153 1.79564 0)
(-0.0146822 1.7992 0)
(0.325374 1.21533 6.14042e-19)
(0.374987 1.31093 2.28407e-19)
(0.512878 2.3344 -1.39964e-19)
(0.189759 2.11096 3.23337e-19)
(0.0806928 2.47402 -6.68876e-20)
(1.01432 -0.014766 0)
(1.01638 -0.011321 0)
(1.01527 -0.0164891 0)
(1.00965 -0.00118599 0)
(1.00462 -0.000795724 0)
(1.00664 -0.00399248 0)
(1.00956 -0.00455539 0)
(1.00972 -0.00602739 0)
(1.02433 0.00903333 2.5866e-19)
(1.01654 0.0145924 -3.29123e-19)
(1.02574 0.00543605 -2.52379e-19)
(1.02301 0.00539688 3.12998e-19)
(0.746524 1.29333 0)
(0.640499 1.37752 4.38807e-19)
(0.857794 1.1954 2.44672e-19)
(0.876877 1.19087 -3.26241e-19)
(1.123 2.61399 -3.38342e-19)
(0.820343 0.104422 1.83103e-19)
(1.12269 0.0962155 0)
(1.16767 0.174143 6.89102e-20)
(1.14956 0.149471 3.07122e-21)
(0.972471 0.137365 0)
(0.111615 3.02551 -3.9036e-20)
(0.10967 2.90102 -4.74367e-19)
(0.0505024 2.34255 3.19342e-19)
(0.183095 0.0848928 -1.38901e-19)
(0.348775 3.45797 -3.1642e-19)
(0.199768 3.34534 0)
(0.231308 3.40744 4.11983e-19)
(0.24097 3.08286 -1.70194e-19)
(0.281375 3.20813 0)
(0.00724337 3.11951 2.13099e-20)
(0.0179061 3.12871 -2.64834e-19)
(0.0167917 3.12441 3.89051e-19)
(0.0384416 3.13835 0)
(0.0367104 3.14968 0)
(1.2353 2.59519 0)
(0.510653 0.806446 -1.40184e-19)
(0.951282 1.03634 -1.38311e-19)
(0.962106 1.07681 0)
(0.826349 0.956115 4.80704e-20)
(1.0168 0.892998 1.82491e-20)
(0.432829 0.456824 -3.43019e-19)
(0.732148 0.323062 -1.61901e-20)
(0.728596 0.287118 1.39735e-19)
(0.625962 0.428839 1.10482e-20)
(0.558665 0.426186 -4.57941e-19)
(0.705629 0.365061 0)
(0.673171 0.44253 2.35353e-19)
(0.684054 0.44599 0)
(0.674004 0.406652 0)
(0.684019 0.366632 0)
(0.723047 0.623079 7.19154e-20)
(1.17512 0.283559 5.14692e-20)
(1.17272 0.418394 0)
(1.16919 0.399171 0)
(0.782302 0.211494 2.08883e-19)
(0.77188 0.522353 -1.147e-19)
(0.69006 0.498213 1.87358e-19)
(0.876899 0.409966 -1.62947e-19)
(1.01609 0.0136469 1.77475e-19)
(1.01193 0.00800883 -1.82902e-19)
(1.00939 0.0122866 0)
(1.01676 0.000828464 0)
(1.01502 -0.0143767 -1.61067e-19)
(1.00385 -0.0177382 1.5956e-19)
(1.03154 0.0073386 0)
(1.02731 0.00777346 0)
(1.01448 0.00408868 0)
(1.01566 0.00890379 0)
(1.0215 0.000169384 0)
(1.01729 -0.00300833 0)
(-0.0514766 1.70914 0)
(-0.0459205 1.71921 0)
(-0.221917 1.6011 7.21166e-20)
(0.034347 1.34558 1.36484e-19)
(-0.117576 1.47913 2.64508e-19)
(-0.0656614 1.3719 -4.4465e-19)
(-0.242481 1.56923 0)
(-0.282226 1.94213 2.16226e-20)
(-0.241826 1.92897 0)
(-0.113228 2.45914 9.56465e-20)
(-0.0991445 2.43785 2.31829e-19)
(-0.324746 1.95655 -1.91013e-20)
(-0.148203 1.37799 1.30664e-19)
(-0.248672 1.54227 -1.04158e-19)
(-0.16809 1.35841 3.90037e-19)
(-0.298305 2.04037 0)
(-0.258782 2.06448 -2.40685e-19)
(-0.0636909 1.84037 -2.61148e-20)
(-0.0213336 1.8771 0)
(-0.0422825 1.86305 1.09636e-19)
(-0.0544451 1.85342 0)
(-0.00861973 1.91005 -1.12993e-19)
(-0.0107504 1.89642 0)
(-0.0192897 1.79998 -2.28738e-20)
(-0.0247554 1.80169 0)
(-0.0331361 1.7921 0)
(-0.0235289 1.79872 2.55951e-20)
(-0.0298494 1.83832 -1.94783e-21)
(-0.0302372 1.85926 1.18926e-19)
(-0.0261286 1.84747 8.19804e-22)
(-0.0143185 1.80306 2.07895e-20)
(-0.0166429 1.80196 1.26608e-20)
(-0.0269049 1.78895 0)
(-0.0260473 1.78953 0)
(-0.0586806 1.8142 6.26303e-20)
(-0.0479545 1.7866 4.18079e-20)
(-0.0458379 1.79883 -5.9935e-20)
(-0.079019 1.82965 0)
(-0.0109065 1.79956 -3.50905e-20)
(-0.00919428 1.80846 1.58939e-20)
(-0.00899425 1.8079 -5.20769e-21)
(-0.012506 1.80389 -2.51842e-20)
(-0.0136275 1.8099 -8.25886e-21)
(-0.0145089 1.81053 4.12614e-20)
(1.02246 0.00505051 -1.67362e-19)
(1.01526 0.0109825 1.73405e-19)
(1.01684 0.00559384 0)
(0.99623 0.0459691 2.47598e-19)
(0.993486 0.0312366 -2.94219e-19)
(0.966381 0.0298807 3.42574e-19)
(0.989033 0.0876282 -3.26716e-20)
(1.0222 0.00923551 0)
(1.03535 0.0108108 1.46173e-19)
(1.03158 0.00723012 -1.44791e-19)
(1.03362 0.042871 -7.81768e-21)
(1.0364 0.0263492 6.88245e-20)
(1.01703 0.0518734 0)
(1.01219 0.0459879 -2.64411e-20)
(1.01528 0.0202015 0)
(1.01705 0.0185223 0)
(1.03024 0.0103063 0)
(1.02587 0.00673389 0)
(1.02313 0.0205181 5.38132e-20)
(1.02609 0.0162881 -1.23202e-19)
(1.02547 0.0301794 -5.4193e-20)
(1.02364 0.0360384 -6.3689e-20)
(1.01529 0.0510728 1.1068e-19)
(1.05185 0.0458764 0)
(1.04344 0.0852294 0)
(-0.0119675 1.79939 -1.48417e-20)
(-0.0114217 1.79171 -1.16582e-21)
(-0.0131387 1.7902 0)
(-0.0089402 1.80141 1.52712e-20)
(-0.0082612 1.79799 2.09983e-21)
(-0.00798743 1.79992 -2.42158e-21)
(-0.0126781 1.81226 3.3443e-20)
(-0.00888857 1.80954 -1.94715e-21)
(-0.0122081 1.80879 9.2176e-21)
(-0.00825824 1.81113 -1.62441e-20)
(-0.0127199 1.80947 1.91998e-20)
(-0.013789 1.78519 3.18318e-22)
(-0.0146333 1.78539 1.54832e-20)
(0.290356 1.0788 -3.43942e-19)
(0.111423 1.45761 -6.02499e-19)
(0.642887 1.38362 -4.26148e-19)
(0.50162 1.32996 -2.15817e-19)
(0.494465 1.39307 0)
(0.611579 2.35674 1.01063e-19)
(0.664234 2.35335 1.68417e-19)
(0.23633 2.19516 6.96548e-20)
(0.13169 2.48963 -2.18987e-19)
(0.159842 2.50416 1.93315e-19)
(0.448187 2.33911 0)
(0.337928 2.21031 -2.89208e-19)
(0.0691546 2.01414 5.63396e-19)
(0.169485 2.1078 -5.40844e-20)
(0.177428 1.97704 -7.55307e-19)
(0.909031 2.37273 7.27284e-20)
(0.871701 2.40371 0)
(1.00892 -0.00361943 5.80256e-21)
(1.01095 -0.00709554 -4.87084e-21)
(1.01072 -0.0111686 -8.5746e-20)
(1.01439 -0.0135996 8.62955e-20)
(1.01631 -0.00915296 0)
(0.67781 1.26379 0)
(0.662469 1.18914 0)
(0.763731 1.05487 0)
(0.64143 1.14829 0)
(1.15659 2.63363 3.37783e-20)
(1.0348 2.34779 0)
(0.795164 2.17284 1.60931e-22)
(0.926983 2.50193 0)
(0.996966 2.5639 6.88935e-21)
(0.992844 2.4913 -4.59284e-21)
(0.818836 0.138993 0)
(0.798997 0.163401 5.30514e-20)
(0.88732 0.122425 2.69364e-19)
(0.859908 0.097284 -1.10389e-19)
(0.863482 0.0752253 -3.20809e-19)
(1.01477 0.223478 -1.47893e-19)
(0.934914 0.248123 -8.89168e-21)
(0.908152 0.262808 2.30086e-19)
(0.969079 0.202669 1.76663e-19)
(0.912519 0.165197 -3.344e-19)
(0.874584 0.183568 4.39486e-20)
(0.917875 0.254733 -8.15782e-20)
(0.887993 0.197766 0)
(0.980251 0.167974 1.5831e-19)
(1.00256 0.173914 0)
(1.0009 0.1999 0)
(1.05456 0.0928776 4.49512e-20)
(1.01282 0.157556 -6.4613e-21)
(1.00309 0.2263 -2.78761e-20)
(1.03329 0.189846 0)
(1.01082 0.0220808 1.31656e-19)
(1.01015 0.0395374 1.54531e-19)
(1.01349 0.027043 -1.29799e-19)
(1.00805 0.044811 -1.04009e-19)
(0.998891 0.0503516 -1.75176e-19)
(0.969863 0.137815 0)
(0.989512 0.0868625 0)
(0.966843 0.0461047 -1.24195e-19)
(0.925881 0.0574364 5.28328e-20)
(0.997501 0.0798899 1.47648e-19)
(1.01276 0.0905094 -1.4094e-19)
(1.01483 0.137851 1.32185e-19)
(1.00671 0.12485 0)
(1.02536 0.0834503 0)
(1.01287 0.0717696 -6.14648e-20)
(1.01199 0.0699953 -1.17543e-19)
(0.511748 1.14827 -6.29297e-20)
(0.550218 1.56578 1.13292e-19)
(1.11232 2.77507 6.6635e-20)
(1.18455 3.13569 -5.5025e-20)
(1.22114 2.74764 3.71552e-19)
(1.27128 2.72274 -1.92115e-19)
(1.23095 2.32922 -1.63134e-20)
(1.16589 3.03808 1.62929e-19)
(1.17934 2.99291 -1.7274e-19)
(1.17638 3.28591 -1.84627e-19)
(1.38694 2.99546 2.21362e-19)
(1.40443 2.92747 0)
(0.513945 0.835693 -6.51457e-21)
(0.247624 1.27615 1.88847e-19)
(0.478418 0.543459 2.22073e-19)
(0.331433 0.324368 2.62661e-19)
(0.554501 0.450078 2.56207e-19)
(0.536681 0.513726 -3.96037e-19)
(0.539157 0.518443 3.27822e-19)
(0.518296 0.47239 -1.33766e-19)
(0.492474 0.435592 3.07917e-19)
(0.782908 0.24987 -1.15418e-19)
(0.746907 0.296693 0)
(0.750543 0.258379 8.07412e-21)
(0.683591 0.523487 1.18786e-19)
(0.638927 0.497798 -4.43157e-19)
(0.611961 0.495538 1.52155e-20)
(0.625645 0.46977 0)
(0.664953 0.728133 8.11028e-20)
(0.740832 0.788704 4.54705e-20)
(0.695257 0.816016 -5.69283e-20)
(0.785496 0.802838 -8.59056e-21)
(0.872826 0.832207 1.19612e-20)
(0.873324 0.851294 -1.23208e-20)
(0.794237 0.629437 -1.2451e-19)
(0.876433 0.695461 7.99536e-21)
(0.933584 0.705345 0)
(0.932897 0.681549 1.76173e-23)
(0.961917 0.294005 3.62506e-20)
(1.07464 0.28398 -6.07908e-21)
(0.998261 0.257776 5.94499e-20)
(0.934142 0.329072 -8.64902e-20)
(0.967726 0.423426 0)
(1.05621 0.380102 0)
(0.851891 0.355757 5.14171e-21)
(0.839146 0.274863 0)
(0.838956 0.251633 1.24086e-19)
(0.897791 0.262899 2.13358e-21)
(0.871917 0.423408 4.47502e-19)
(0.810933 0.489078 1.13889e-19)
(0.821726 0.449417 -1.48569e-19)
(0.769189 0.420881 1.58756e-19)
(0.743683 0.426629 1.12867e-19)
(0.739768 0.431521 -1.09893e-19)
(1.02057 -0.000419399 1.39167e-19)
(1.02752 -0.00524459 0)
(1.0215 -0.0101762 9.35675e-20)
(1.0172 -0.00976476 -2.09532e-19)
(1.03536 0.00317858 1.01397e-19)
(1.03086 0.00745633 -2.1431e-19)
(1.02741 0.0099999 0)
(1.02242 0.0120417 -4.36614e-20)
(1.0272 0.00362543 1.11745e-19)
(1.02264 0.0109913 -5.71857e-20)
(1.02329 0.0115792 4.12338e-20)
(-0.0180883 1.77546 0)
(-0.0373708 1.78807 0)
(-0.0417934 1.74313 0)
(-0.0238025 1.75035 0)
(-0.130796 1.73714 -3.26099e-20)
(-0.13614 1.67169 7.76582e-21)
(-0.202142 1.89877 -1.50307e-20)
(-0.251097 1.71606 -5.77525e-20)
(-0.0734684 1.78433 -3.06479e-20)
(-0.0805506 1.7819 2.17017e-20)
(-0.0986445 1.73702 1.48304e-21)
(-0.0824959 1.75872 1.00641e-20)
(-0.0524408 1.77137 8.04948e-22)
(-0.0517778 1.77781 -2.82094e-21)
(-0.0574317 1.89745 -1.16306e-19)
(-0.0523862 1.93897 0)
(-0.139119 1.95007 6.5216e-20)
(-0.168106 1.91001 3.78923e-20)
(-0.225302 2.21757 -1.72993e-20)
(-0.0660659 2.18529 0)
(-0.0950376 2.23965 -2.4466e-19)
(-0.0940719 2.3574 1.75269e-19)
(-0.17029 2.10697 -1.12618e-19)
(-0.151665 2.0221 4.47445e-20)
(-0.0769235 2.05929 0)
(-0.0499605 1.81289 -7.93734e-20)
(-0.0391979 1.82129 -1.07551e-19)
(-0.039121 1.81965 0)
(-0.0504618 1.83536 -3.25498e-21)
(-0.0570186 1.83351 4.16257e-20)
(-0.0159479 1.79907 3.71898e-21)
(-0.0224067 1.7956 -5.89511e-20)
(-0.0247561 1.79565 1.34376e-20)
(-0.016733 1.79726 2.41517e-20)
(-0.0137732 1.80088 0)
(-0.0257338 1.79183 0)
(-0.0196708 1.7958 2.013e-20)
(-0.0236068 1.78819 -5.94478e-21)
(-0.0274214 1.79012 0)
(-0.026744 1.79074 1.56932e-20)
(-0.019931 1.79561 -3.08802e-20)
(1.02777 0.0207822 0)
(1.03002 0.0195653 -1.32679e-20)
(1.02758 0.015345 -9.90734e-20)
(1.0281 0.0184302 0)
(1.02833 0.0228651 0)
(1.02928 0.0117999 -3.24704e-21)
(1.02969 0.0121205 1.64564e-19)
(1.02534 0.0104228 2.01747e-19)
(1.02495 0.00899617 0)
(1.02053 0.00796307 0)
(1.02298 0.0157568 1.00059e-19)
(1.01943 0.0132586 0)
(1.02055 0.0115801 0)
(-0.0116758 1.80027 0)
(-0.0144772 1.78591 1.21227e-21)
(-0.0136397 1.79251 8.03693e-21)
(-0.0195076 1.78895 0)
(-0.0150497 1.78689 1.12071e-20)
(-0.0135033 1.78627 -5.10189e-21)
(-0.0147428 1.7854 0)
(0.730688 1.95184 0)
(0.158958 1.60887 1.02977e-18)
(0.222136 2.16621 0)
(0.583907 1.12118 -1.09974e-18)
(0.529256 1.12981 0)
(0.498612 1.10395 4.49155e-19)
(1.03721 2.68723 -2.12131e-21)
(0.934242 2.38297 -8.84109e-20)
(0.825609 2.07548 2.60706e-19)
(0.875775 2.39152 6.40031e-20)
(0.948347 2.53638 0)
(0.975641 2.50146 0)
(0.900453 2.36648 0)
(0.865707 2.36325 -2.3069e-19)
(0.724481 2.63278 8.70201e-20)
(0.93562 2.52208 -9.92825e-22)
(0.950962 2.50172 8.27796e-22)
(0.696319 2.41597 0)
(0.822203 2.41226 0)
(0.787413 2.40094 -1.52806e-19)
(0.902306 2.5717 0)
(0.548604 1.08815 0)
(0.494128 0.904875 2.61054e-21)
(0.503995 0.961054 1.2362e-21)
(0.459843 1.06826 0)
(0.481168 1.01202 -1.61406e-21)
(0.732021 0.843554 1.19206e-20)
(0.762283 0.980248 0)
(0.745269 0.965658 -5.46482e-20)
(0.620852 0.994907 0)
(0.615022 0.922442 0)
(1.1276 2.78689 2.79436e-20)
(1.10153 2.8525 6.7961e-20)
(0.86085 2.39612 -1.65286e-19)
(0.8164 2.37808 1.25969e-20)
(1.09284 2.75209 0)
(1.05666 2.71207 -1.67631e-20)
(1.05663 2.4774 -5.44951e-20)
(0.931805 2.18591 -1.66479e-20)
(0.572045 1.44411 0)
(0.501843 1.1297 5.47789e-20)
(0.57644 1.22955 0)
(0.836118 0.21323 0)
(0.806631 0.176006 0)
(0.781537 0.193188 0)
(0.831852 0.211199 -1.96424e-19)
(0.791924 0.211837 1.21398e-19)
(0.92648 0.0553484 -1.06634e-19)
(0.93422 0.102726 0)
(0.911386 0.104658 4.98058e-20)
(0.886125 0.0668065 2.00138e-19)
(0.887488 0.0636798 -1.23749e-19)
(1.10553 3.37771 -6.51233e-19)
(1.16937 3.30138 0)
(1.12771 3.45183 -1.38613e-18)
(0.664315 3.59867 1.1851e-18)
(1.00017 3.08909 2.93227e-19)
(0.504008 0.831332 1.19464e-19)
(0.489169 0.813216 0)
(0.397325 0.553283 -5.01767e-20)
(0.408146 0.676357 2.29118e-19)
(0.497412 0.541472 -7.17766e-20)
(0.49404 0.5555 7.91007e-20)
(0.623262 0.544532 1.62263e-19)
(0.642768 0.570332 0)
(0.572689 0.618134 0)
(0.544835 0.563993 0)
(0.913446 0.585038 -3.5296e-20)
(0.8534 0.525911 -1.08821e-19)
(0.88413 0.574388 3.72544e-20)
(0.909898 0.486895 -7.80213e-20)
(0.993341 0.458802 0)
(1.00315 0.567319 -4.80277e-22)
(0.814755 0.369279 -2.43573e-19)
(0.815068 0.352435 -2.95949e-19)
(0.807722 0.374748 1.89788e-19)
(0.801214 0.332754 -2.21953e-19)
(0.82807 0.290439 -1.63513e-19)
(0.810312 0.292996 2.00739e-19)
(1.03592 0.00513579 -1.05909e-19)
(1.03582 0.00679276 2.17147e-19)
(1.02218 0.0068273 1.32307e-19)
(1.0281 0.0101419 -1.58989e-19)
(1.02841 0.0211473 0)
(1.03162 0.0142501 -2.59406e-19)
(-0.0727791 1.83268 1.78869e-20)
(-0.0887502 1.83512 0)
(-0.100715 1.85901 1.0187e-19)
(-0.121164 1.9001 -8.94156e-20)
(-0.173465 1.88208 2.73375e-20)
(-0.144351 1.86501 0)
(-0.0146629 1.8008 0)
(-0.0219353 1.79407 -5.96864e-21)
(-0.0196528 1.78912 5.41854e-21)
(-0.0172517 1.78822 1.21282e-21)
(-0.016333 1.79938 -1.07397e-20)
(-0.0155366 1.80027 6.8711e-21)
(0.710374 1.40984 3.4948e-19)
(0.798489 1.52415 -3.68324e-19)
(0.649164 1.22063 4.13441e-19)
(0.844804 1.42116 -2.78423e-20)
(0.679358 1.2498 0)
(0.645437 1.20231 4.09756e-19)
(0.65488 1.27736 -3.92662e-19)
(0.630879 1.11904 -4.03812e-19)
(0.733852 1.18057 0)
(0.655092 1.26622 0)
(0.727865 2.62304 -1.30989e-19)
(0.701018 2.55846 2.82236e-19)
(0.809573 2.61023 -1.91739e-19)
(0.651279 2.6005 -8.86905e-20)
(0.36888 2.75963 1.26314e-20)
(0.301468 2.70052 -1.40792e-19)
(0.959046 2.30852 -1.46664e-19)
(0.988177 2.35289 0)
(0.851052 2.08184 -1.71615e-19)
(1.03393 2.68933 0)
(1.0147 2.66705 0)
(0.615471 2.33354 2.31728e-19)
(1.08662 3.08451 2.94845e-19)
(0.96747 2.9788 -3.22925e-19)
(0.345153 0.941171 0)
(0.378139 0.846923 -8.24393e-20)
(0.541976 0.751505 -3.28215e-20)
(0.404762 2.17518 0)
(0.418147 2.77115 -2.06798e-19)
(0.43963 2.52952 0)
(0.654671 0.691775 -1.69137e-19)
(0.718517 0.673896 2.40217e-19)
(0.708474 0.635403 -2.40685e-19)
(0.598772 0.656666 -2.64636e-20)
(0.668733 0.610443 -1.12725e-19)
(0.961107 2.78868 -2.22733e-19)
(0.993937 2.7996 2.0422e-19)
(0.591377 2.28608 -1.13201e-19)
(0.586754 1.78827 4.73866e-20)
(0.696242 1.95042 6.57752e-20)
(0.956073 2.46159 -5.98795e-20)
(0.962151 2.43854 -9.59756e-20)
(0.683438 1.93173 -3.91771e-21)
(0.456117 1.40828 -5.10168e-20)
)
;

boundaryField
{
    wall-4
    {
        type            noSlip;
    }
    velocity-inlet-5
    {
        type            fixedValue;
        value           uniform (1 0 0);
    }
    velocity-inlet-6
    {
        type            fixedValue;
        value           uniform (0 3 0);
    }
    pressure-outlet-7
    {
        type            zeroGradient;
    }
    wall-8
    {
        type            noSlip;
    }
    frontAndBackPlanes
    {
        type            empty;
    }
}

