/*--------------------------------*- C++ -*----------------------------------*\
  =========                 |
  \\      /  F ield         | OpenFOAM: The Open Source CFD Toolbox
   \\    /   O peration     | Website:  https://openfoam.org
    \\  /    A nd           | Version:  6
     \\/     M anipulation  |
\*---------------------------------------------------------------------------*/
FoamFile
{
    version     2.0;
    format      ascii;
    class       volVectorField;
    location    "0";
    object      U;
}
// * * * * * * * * * * * * * * * * * * * * * * * * * * * * * * * * * * * * * //

dimensions      [0 1 -1 0 0 0 0];

internalField   nonuniform List<vector> 
13046
(
(-0.388603 0.137005 0)
(-0.703042 -0.304399 -4.73167e-21)
(-0.174944 -0.164317 -9.67737e-21)
(-0.370279 0.0336948 0)
(-0.108265 -0.0832551 -9.10164e-21)
(-0.58511 -0.306045 0)
(-0.42207 0.0622616 1.44548e-21)
(-0.666841 -0.356944 2.35067e-21)
(-0.0744815 -0.0681418 -9.8428e-21)
(-1.19617 0.530672 3.49472e-21)
(-1.47166 -0.706991 0)
(0.0778773 -0.00713237 5.80504e-21)
(-0.551408 0.192841 -4.60161e-21)
(-0.881767 -0.410852 -6.89485e-21)
(-0.0703741 -0.114963 5.13806e-21)
(-1.11612 0.587832 -4.8742e-21)
(0.0250886 -0.0290174 1.38205e-20)
(-1.5225 -0.607542 1.56808e-21)
(-0.1609 -0.00551692 0)
(-0.40714 -0.257791 -4.99285e-21)
(-0.415311 -0.091759 1.50787e-20)
(-1.13235 0.57839 -1.94691e-21)
(0.0407592 -0.0214264 -1.84729e-20)
(-1.51398 -0.629715 0)
(-0.313058 0.048687 5.96154e-21)
(-0.559416 -0.253859 -1.17281e-20)
(-0.178752 -0.144845 0)
(-0.56702 0.229428 -8.2975e-21)
(-0.918946 -0.40888 2.04741e-21)
(-0.0870539 -0.13011 -9.01173e-21)
(-0.401123 0.162537 0)
(-0.734988 -0.290218 0)
(-0.199016 -0.186307 9.84861e-21)
(-0.276194 0.0134189 -6.92604e-21)
(-0.205744 -0.147936 3.41622e-21)
(-0.482666 -0.213672 2.04425e-20)
(-0.280878 -0.0143507 -1.06357e-20)
(-0.200335 -0.12441 5.27376e-21)
(-0.444209 -0.207154 -1.04274e-20)
(-0.298131 0.158817 7.27047e-21)
(-0.438531 -0.348721 1.74216e-21)
(-0.678565 -0.172823 -7.32755e-21)
(-0.301568 -0.0942862 4.78838e-21)
(-0.234102 -0.0968099 8.0443e-21)
(-0.322266 -0.1584 0)
(-0.328889 -0.0848965 3.12208e-21)
(-0.192635 -0.0680902 -1.23936e-20)
(-0.355156 -0.191335 -1.53281e-21)
(-0.414708 0.130664 0)
(-0.725254 -0.331476 -3.33605e-22)
(-0.126576 -0.137749 -7.74674e-23)
(-0.708027 -0.54294 1.05322e-20)
(-0.24726 0.17148 0)
(-0.738096 -0.0698048 -8.66137e-21)
(-0.800116 -0.602594 -1.50177e-20)
(-0.750064 -0.0362772 -1.39731e-20)
(-0.207414 0.148467 1.07647e-20)
(-1.3307 -0.415368 -1.27903e-21)
(-0.860332 0.521225 0)
(-0.194244 -0.203138 7.68726e-21)
(-0.791811 0.223722 -4.39947e-21)
(-1.10223 -0.626655 3.6893e-21)
(0.0456054 -0.0183397 -2.14675e-20)
(0.0709074 -0.0319933 1.07839e-20)
(-1.43013 -0.685321 -1.63874e-21)
(-1.09253 0.464351 -6.38151e-21)
(-0.802904 0.504453 0)
(-1.26609 -0.362402 0)
(-0.259323 -0.259237 0)
(-0.751174 0.471489 -3.10353e-21)
(-1.21001 -0.343237 0)
(-0.281028 -0.276276 6.1303e-21)
(-1.38573 -0.427201 0)
(-0.909834 0.55075 7.3022e-23)
(-0.173986 -0.191466 -5.69447e-23)
(-0.171719 0.0189681 0)
(-0.406537 -0.27422 5.3532e-21)
(-0.458509 -0.117531 -1.06798e-20)
(-0.0958013 -0.125847 8.41328e-21)
(-0.981056 0.573361 -9.21409e-21)
(-1.4481 -0.488728 0)
(-0.346888 0.0610408 3.16521e-21)
(-0.598147 -0.28213 0)
(-0.141784 -0.118866 0)
(0.0723022 -0.026282 -9.62057e-21)
(-1.45689 -0.691189 -1.03357e-21)
(-1.12929 0.490125 3.76131e-21)
(-1.13271 0.368992 -6.74019e-21)
(0.0909889 -0.017442 0)
(-1.38074 -0.789242 -1.32509e-21)
(0.0437327 -0.00329506 0)
(-1.21529 0.286697 0)
(-1.35015 -0.899806 1.47895e-22)
(-0.83294 0.3533 0)
(-0.891002 0.368968 3.836e-21)
(-1.21148 -0.557914 6.91626e-21)
(-1.25994 -0.599792 -3.20959e-21)
(0.00348001 -0.0811338 -4.50068e-21)
(0.0313193 -0.0619356 1.16017e-20)
(0.0843616 -0.0136441 -5.51583e-22)
(-1.12069 0.33999 6.59526e-21)
(-1.35561 -0.808021 0)
(-0.338111 -0.0558403 -1.23047e-23)
(-0.162243 -0.0661633 6.40834e-21)
(-0.415314 -0.229948 0)
(-0.111752 0.0864641 0)
(-0.64729 0.00252358 -4.41715e-21)
(-0.770136 -0.533086 0)
(-0.232195 0.149323 1.23524e-20)
(-0.620125 -0.464451 0)
(-0.676282 -0.0974393 -1.68205e-20)
(-1.15398 0.53586 0)
(0.0616359 0.00618682 0)
(-1.33659 -0.670736 7.37365e-22)
(-0.487332 0.16136 1.27002e-20)
(-0.816623 -0.376256 3.04573e-21)
(-0.0842425 -0.11412 9.47237e-21)
(-0.907538 0.435841 4.88036e-21)
(-0.845548 0.392325 -9.22635e-21)
(-1.31055 -0.551565 -5.79469e-21)
(-0.019872 -0.0915535 5.14406e-21)
(-1.24126 -0.53202 3.29752e-21)
(-0.0248499 -0.0972782 -4.80503e-21)
(-1.19058 0.546283 -2.46707e-21)
(-1.4629 -0.694114 -4.19913e-22)
(0.0729321 -0.00182757 -2.59085e-21)
(-0.709638 0.300653 0)
(-1.07933 -0.487014 -4.9807e-21)
(-0.0427367 -0.112649 1.08223e-20)
(-0.347332 0.180415 0)
(-0.377723 -0.312788 -8.81269e-21)
(-0.720609 -0.210414 4.25358e-22)
(0.0341468 0.00499792 0)
(-1.16297 0.261539 0)
(-1.32751 -0.88393 0)
(-0.996352 0.384204 0)
(-1.33274 -0.67832 -7.91086e-21)
(0.0712438 -0.0366073 -1.23645e-20)
(-0.45857 0.191615 0)
(-0.802256 -0.323749 0)
(-0.180734 -0.188315 0)
(-0.576272 0.100508 0)
(-0.839538 -0.493762 0)
(-0.014693 -0.0143049 0)
(-0.209517 0.142883 0)
(-0.685505 -0.507156 0)
(-0.685686 -0.0687588 9.10991e-21)
(-0.109334 0.0738624 -1.25603e-21)
(-0.618109 -0.00495241 -9.63696e-21)
(-0.74695 -0.507554 9.7115e-21)
(-0.841157 0.25182 1.00795e-20)
(-1.15163 -0.644815 0)
(0.0565771 -0.026779 2.78618e-20)
(-0.0772491 0.0197172 0)
(-0.514708 0.00159982 1.03591e-20)
(-0.663402 -0.422667 -2.51173e-21)
(-0.955104 -0.681164 0)
(-0.785203 0.0525905 1.00177e-20)
(-1.02968 -0.713351 0)
(-0.822412 0.0971562 5.78253e-21)
(-0.108161 0.0956692 0)
(-0.0627603 0.0695142 0)
(-0.61334 0.0615337 1.33858e-21)
(-0.828011 -0.529287 5.03691e-21)
(-0.0354259 0.0221609 -5.45311e-21)
(-1.21821 0.509828 -3.58258e-21)
(0.0850687 -0.0103227 0)
(-1.44781 -0.734701 -1.53492e-21)
(-1.17265 0.543762 -1.98567e-21)
(0.0659775 0.00606307 -1.18663e-21)
(-1.3969 -0.678049 0)
(-1.0198 0.412248 -5.50322e-21)
(-1.36033 -0.674794 0)
(0.0683488 -0.0386135 1.40496e-20)
(-0.451999 0.264387 0)
(-0.857142 -0.232294 2.21873e-21)
(-0.408011 -0.352431 5.034e-21)
(-0.588669 0.0374032 8.73803e-21)
(-0.058074 0.0387191 2.654e-21)
(-0.774962 -0.496221 0)
(0.0930927 -0.0167596 0)
(-1.43431 -0.785382 0)
(-1.23285 0.456788 2.91507e-21)
(-0.397772 0.231927 0)
(-0.796171 -0.207706 -4.9156e-21)
(-0.42422 -0.348642 1.32021e-21)
(-0.0754122 0.0347585 0)
(-0.537702 0.00261407 0)
(-0.680855 -0.443007 0)
(-0.530755 0.0719936 4.32161e-21)
(-0.780564 -0.460647 0)
(-0.0270191 -0.0195755 0)
(-0.961694 -0.472968 7.47958e-24)
(-0.022911 -0.0859169 -6.4197e-21)
(-0.66058 0.267559 1.31237e-20)
(-1.02713 -0.465773 0)
(-0.0467267 -0.109766 -1.35581e-20)
(-1.15796 0.436019 -6.69896e-21)
(0.0926218 -0.0207145 8.76004e-21)
(-1.43086 -0.756132 -5.36945e-21)
(0.0574672 -0.000115266 8.0659e-21)
(-1.11403 0.281971 4.1985e-21)
(-1.32294 -0.844331 6.80941e-21)
(-1.20223 0.337098 -1.08652e-20)
(-1.38002 -0.849027 0)
(0.0769909 -0.0133007 -7.9208e-21)
(-0.751818 -0.598456 -5.31233e-22)
(-0.82749 -0.0787048 3.84315e-21)
(-0.318352 0.230465 0)
(-0.518008 0.125866 -1.94638e-20)
(-0.964582 0.585927 4.76763e-21)
(-0.124442 -0.144629 -5.1754e-21)
(-1.44886 -0.474996 0)
(-1.39352 -0.848485 0)
(-1.23272 0.3712 -9.24846e-21)
(0.0839167 -0.0178386 0)
(-0.318413 -0.0195523 -1.56396e-20)
(-0.157818 -0.0898213 -5.17991e-21)
(-0.462975 -0.239759 1.52466e-20)
(-0.538101 0.236333 0)
(-0.898327 -0.380625 -2.99801e-22)
(-0.132156 -0.156733 -5.19616e-21)
(0.041413 0.00611749 6.21814e-21)
(-1.12183 0.264329 0)
(-1.31256 -0.863748 -7.85002e-21)
(-0.568616 0.156658 1.55697e-20)
(-0.938379 -0.480156 1.23137e-20)
(-0.013573 -0.0731192 0)
(0.0799928 -0.00722072 0)
(-1.39327 -0.731622 2.09254e-22)
(-1.22733 0.51269 0)
(-0.270375 0.197998 0)
(-0.813599 -0.0513973 0)
(-0.807855 -0.639187 0)
(-1.15406 0.321038 9.52823e-21)
(-1.3611 -0.830761 0)
(0.0764409 -0.0108874 -4.23114e-23)
(-0.711321 0.0799937 3.81966e-21)
(-0.929709 -0.620007 -3.69633e-21)
(-0.0394363 0.0464465 0)
(-0.709142 0.324138 0)
(-1.09021 -0.468768 4.67235e-21)
(-0.0703537 -0.128051 8.50472e-21)
(-1.22265 -0.867615 -1.11083e-20)
(-1.04231 0.167327 -7.64323e-21)
(-0.037469 0.052305 4.90195e-21)
(-0.88355 0.111917 0)
(-1.08813 -0.761104 -4.77756e-21)
(-0.0639222 0.0701269 -1.79938e-22)
(0.077851 -0.0110289 -7.68338e-21)
(-1.36356 -0.739782 0)
(-1.23921 0.496611 -1.77501e-21)
(-0.318513 0.19957 6.64059e-21)
(-0.55358 -0.434039 -6.29668e-21)
(-0.743787 -0.147228 7.16943e-22)
(-1.06948 0.572408 1.77776e-21)
(0.0476794 0.0227257 -1.11123e-20)
(-1.35061 -0.588327 0)
(-0.135525 -0.028479 -3.06174e-21)
(-0.390091 -0.0603904 -1.21797e-20)
(-0.452133 -0.272714 1.49549e-20)
(-0.713091 0.132746 4.5472e-21)
(-0.682239 0.0895798 3.61225e-23)
(-0.978462 -0.605462 -9.12773e-21)
(-0.913038 -0.592586 0)
(-0.0235855 0.030318 4.95693e-21)
(0.00955126 0.00889467 -5.09356e-21)
(-0.065178 -0.0987921 -1.10123e-20)
(-1.01876 0.585985 4.94383e-21)
(-1.48855 -0.508457 -4.73868e-21)
(-0.657323 0.312091 0)
(-1.04099 -0.425184 0)
(-0.118133 -0.155983 -1.11621e-20)
(-0.939935 0.149396 -2.04605e-21)
(-1.14703 -0.799155 0)
(-0.0351725 0.0537794 0)
(-0.957628 0.416072 -4.6984e-21)
(-1.32783 -0.611476 0)
(0.0339361 -0.0601755 5.06832e-21)
(-0.266874 -0.0740076 3.18868e-21)
(-0.337126 -0.143791 4.67279e-21)
(-0.254251 -0.122951 -1.59768e-21)
(-0.79322 0.115414 -7.36298e-21)
(-1.02501 -0.685005 0)
(-0.0275794 0.0473902 -8.40707e-21)
(-0.673558 0.336342 0)
(-1.06859 -0.416669 5.85835e-21)
(-0.138002 -0.171106 -7.06849e-21)
(-0.598091 0.191259 0)
(-0.655275 0.220068 1.54728e-21)
(-0.336099 0.215582 2.38924e-21)
(-0.574174 -0.456177 1.82042e-20)
(-0.769416 -0.14047 -1.70759e-20)
(-0.834609 0.15219 -7.55319e-21)
(-1.07903 -0.707467 7.4143e-21)
(0.00391498 0.0289923 7.67238e-21)
(-0.998778 0.427977 0)
(0.0507268 -0.0486852 -1.79717e-20)
(-1.36545 -0.641497 -3.60102e-21)
(-0.227476 0.133011 -1.71106e-20)
(-0.577499 -0.43691 0)
(-0.650272 -0.101776 5.6418e-21)
(-0.13827 0.116586 -9.90901e-21)
(-0.811808 0.0417249 -5.70976e-21)
(-0.960191 -0.708098 0)
(-0.828331 0.428773 -4.68865e-21)
(-1.24913 -0.472523 -4.78974e-21)
(-0.0977078 -0.141193 3.16317e-21)
(-0.293707 0.20087 8.58197e-22)
(-0.67023 -0.522575 0)
(-0.765866 -0.0942231 1.19769e-20)
(-0.87905 0.461021 0)
(-0.914323 0.466966 0)
(-1.30847 -0.497262 -2.85023e-21)
(-0.0806116 -0.128134 -8.25881e-21)
(-1.33527 -0.534015 4.03425e-21)
(-0.0451102 -0.102938 8.74817e-21)
(0.0926712 -0.0166384 -6.73961e-21)
(-1.4432 -0.765001 0)
(-1.2096 0.469972 -4.48634e-21)
(-0.790091 0.373477 5.4866e-21)
(-1.18575 -0.498437 0)
(-0.0567922 -0.117596 2.88754e-21)
(-1.17726 -0.609978 -4.0942e-21)
(0.0414066 0.0120384 9.75311e-21)
(-1.03886 0.519823 2.23038e-21)
(-0.472882 -0.0384463 -5.69826e-21)
(-0.105317 0.0167201 0)
(-0.565235 -0.360504 0)
(-0.723402 0.199333 1.05155e-20)
(-1.038 -0.579384 0)
(0.0343388 -0.0281734 1.65834e-20)
(0.087691 -0.0253004 -5.57388e-21)
(-1.10959 0.423454 1.38639e-20)
(-1.40792 -0.729607 4.57509e-21)
(-0.834016 -0.632566 0)
(-0.775954 -0.0265565 5.12539e-21)
(-0.210009 0.160798 -1.2201e-20)
(-1.25532 -0.871534 -1.27514e-20)
(-1.07267 0.201994 -4.60703e-21)
(-0.00528228 0.0312601 0)
(-0.840718 -0.434408 -1.28855e-20)
(-0.0333306 -0.0706643 0)
(-0.768133 0.264599 1.11662e-20)
(-1.09718 -0.564539 4.17274e-21)
(0.0285024 -0.0592964 5.02458e-21)
(-0.82897 -0.453667 7.46382e-21)
(-0.0206878 -0.0537622 -2.91314e-23)
(-1.09484 0.570544 -3.19432e-22)
(0.0141074 -0.042373 6.52411e-21)
(-1.50749 -0.594285 -2.30699e-21)
(-0.732551 -0.609101 0)
(-0.871827 -0.099019 1.18874e-21)
(-0.367652 0.263707 0)
(-0.820105 0.293361 -1.13785e-20)
(-1.16636 -0.593905 -5.08378e-21)
(0.0425041 -0.0509859 -6.04361e-21)
(-0.601948 0.0941664 0)
(-0.848143 -0.520788 -7.31409e-21)
(-0.0156387 0.000903113 0)
(-0.671017 -0.0269006 0)
(-0.741607 -0.541285 0)
(-0.159454 0.111588 0)
(-0.394057 0.097641 -4.37989e-21)
(-0.672161 -0.320407 -7.30562e-21)
(-0.12127 -0.121844 -1.21033e-23)
(-0.1767 0.14256 1.22759e-20)
(-0.804158 0.011502 1.38511e-20)
(-0.912797 -0.683545 7.17911e-21)
(-1.17944 0.401885 -5.54117e-21)
(-1.40928 -0.786982 4.46569e-21)
(0.0945383 -0.0187068 -8.29848e-21)
(-1.26545 -0.849927 8.74192e-21)
(-1.059 0.219206 4.66974e-21)
(0.0173451 0.0215947 6.2881e-21)
(-0.645127 0.413364 -9.52035e-21)
(-0.377426 -0.34425 9.19546e-21)
(-1.10159 -0.283624 -7.05259e-21)
(-0.949621 0.52892 2.70192e-21)
(-0.90618 0.500919 -2.50853e-21)
(-1.35149 -0.47961 -9.07436e-22)
(-1.39856 -0.496226 0)
(-0.0872298 -0.124052 -2.98371e-21)
(-0.10598 -0.14209 -2.67327e-21)
(0.0462042 0.0161381 -1.32119e-20)
(-1.23179 -0.603714 4.51126e-21)
(-1.05542 0.527819 1.30733e-21)
(-1.08613 0.580895 -1.36192e-22)
(0.0490532 0.021752 1.53731e-20)
(-1.3947 -0.59234 0)
(-0.77025 0.161612 -1.68256e-20)
(-1.04858 -0.641149 -1.95001e-21)
(0.0199225 0.00880591 0)
(0.0913892 -0.0189854 -1.68605e-20)
(-1.17763 0.45829 4.46411e-21)
(-1.447 -0.749441 0)
(-0.751834 0.438528 1.38141e-20)
(-0.800449 0.456929 -1.02903e-20)
(-1.19234 -0.387659 5.33188e-21)
(-1.23973 -0.417831 1.97108e-21)
(-0.220957 -0.227007 -5.2852e-21)
(-0.175255 -0.192449 -2.64714e-21)
(0.0783921 -0.0251948 0)
(-1.37414 -0.85837 0)
(-1.29381 0.371692 1.51441e-21)
(-1.00481 0.567816 -2.08702e-21)
(0.0422085 0.0282023 0)
(-1.30349 -0.554695 0)
(-0.407 -0.131639 2.33603e-23)
(-0.201042 -0.0125492 6.83843e-21)
(-0.319235 -0.205573 3.33346e-21)
(-1.09827 0.544787 -3.01655e-21)
(-1.31815 -0.634399 -1.07854e-21)
(0.0533339 0.0146742 7.22645e-22)
(-0.519036 0.290188 0)
(-0.91747 -0.282743 -9.89049e-21)
(-0.324099 -0.295058 -8.26179e-23)
(-1.23699 0.440095 1.50749e-22)
(-1.42466 -0.802376 4.93873e-21)
(0.0941401 -0.0181076 7.74201e-24)
(-1.03955 -0.611381 -1.10065e-22)
(0.0349818 -0.00164631 -5.65427e-21)
(-1.01781 0.44001 -3.42118e-22)
(-0.246051 0.124189 -6.271e-21)
(-0.451657 -0.341658 5.68066e-21)
(-0.617954 -0.146722 1.79614e-20)
(-0.404141 -0.0273858 0)
(-0.530616 -0.312081 -1.6595e-20)
(-0.107899 -0.0301665 8.37723e-21)
(-1.17144 0.567831 0)
(0.0654801 0.000965823 7.7228e-21)
(-1.47289 -0.67529 -1.73584e-22)
(-0.433217 -0.0131902 0)
(-0.571031 -0.340261 -5.6823e-21)
(-0.0897741 -0.0118084 -1.18867e-20)
(-0.373514 -0.12478 7.06773e-21)
(-0.209767 -0.0369463 -3.61621e-21)
(-0.308474 -0.183779 1.77827e-21)
(-0.256957 0.194363 5.93427e-21)
(-0.847468 -0.0263644 -4.81263e-21)
(-0.885053 -0.70177 7.90555e-21)
(-0.474581 -0.0948806 0)
(-0.454945 -0.2997 0)
(-0.151926 0.0362363 1.00126e-21)
(-0.489276 -0.0594726 9.01914e-21)
(-0.527649 -0.340669 4.33537e-21)
(-0.130199 0.0368285 1.40941e-22)
(-0.594396 0.384378 1.44642e-20)
(-1.04062 -0.253103 -7.40427e-21)
(-0.43171 -0.38937 -9.15719e-21)
(0.0652592 -0.0144334 1.1663e-20)
(0.0742944 -0.0129246 -1.1902e-20)
(-1.49455 -0.6818 1.12248e-21)
(-1.4822 -0.69958 8.87639e-22)
(-1.1625 0.549734 0)
(-1.17793 0.536349 -3.57841e-21)
(-1.21024 0.408017 6.90003e-21)
(-1.41707 -0.801514 -3.38496e-21)
(0.0943642 -0.0187062 1.02898e-20)
(-0.362666 -0.342125 -5.89503e-21)
(-0.695935 0.454736 2.98496e-21)
(-1.15872 -0.296792 8.98748e-21)
(-0.342338 0.202321 -6.0627e-21)
(-0.484767 -0.38762 -5.77917e-21)
(-0.748215 -0.17341 5.54599e-21)
(-0.905133 0.0856753 0)
(-1.0774 -0.787472 4.94516e-21)
(-0.109625 0.0964459 1.85853e-22)
(-1.16199 -0.705245 -3.52671e-22)
(0.0573265 -0.0202063 -5.28874e-21)
(-1.19037 0.437241 -9.27169e-22)
(0.0600748 -0.0109513 0)
(-1.23137 0.315773 0)
(-1.36226 -0.890178 2.45589e-21)
(-1.19692 0.53276 2.57969e-21)
(0.0738529 -0.000960159 0)
(-1.41678 -0.705965 -2.0537e-22)
(0.027393 0.00382414 -2.10498e-32)
(-0.973746 -0.572632 2.60952e-21)
(-0.943235 0.428198 1.21581e-22)
(-1.01471 -0.509665 -2.95782e-21)
(0.0265026 0.0166569 2.09997e-32)
(-0.893926 0.486641 -1.26698e-22)
(-1.18657 -0.718203 -9.79683e-21)
(-0.908305 0.232903 0)
(0.0506157 -0.000135403 -1.61636e-20)
(-1.31772 -0.812896 -1.64122e-22)
(0.075845 -0.0306217 -5.42133e-21)
(-1.30916 0.407679 0)
(-1.02686 0.376552 -7.05807e-21)
(-1.33979 -0.708622 4.82852e-21)
(0.0802814 -0.0294924 8.29341e-21)
(-1.11123 0.622193 9.37756e-21)
(0.0194239 -0.0121916 4.63448e-21)
(-1.54261 -0.57194 0)
(-0.483483 0.132379 3.41621e-21)
(-0.0582772 -0.0871332 -3.24767e-21)
(-0.801871 -0.400915 3.1398e-21)
(-1.37687 -0.872917 1.15695e-21)
(0.0747231 -0.0217142 5.75163e-21)
(-1.2787 0.355007 1.91371e-21)
(-0.874604 0.0617124 -5.58357e-21)
(-0.137508 0.116005 -3.34161e-21)
(-1.03205 -0.761581 0)
(-1.16746 -0.791707 0)
(-0.944725 0.174344 0)
(-0.00495555 0.0378226 0)
(0.00732132 0.00900087 0)
(-0.579763 -0.306671 3.52864e-21)
(-0.547082 0.271237 -8.97116e-22)
(-1.16968 -0.639145 -1.37634e-21)
(0.0447306 0.00427875 -6.81886e-21)
(-1.07298 0.500572 -1.27989e-21)
(-0.435015 0.0995552 -8.78282e-21)
(-0.0786315 -0.0914497 7.82069e-21)
(-0.721571 -0.366159 3.73211e-21)
(-1.3952 -0.822953 3.20771e-21)
(-1.27717 0.415205 -2.97907e-21)
(0.0878317 -0.0228599 0)
(0.0750152 -0.0288287 -6.00638e-21)
(-1.31496 0.374555 0)
(-1.34945 -0.859953 -2.43706e-21)
(-1.15849 0.487161 -4.08965e-21)
(0.0816704 -0.0203496 1.7973e-20)
(-1.46215 -0.715747 0)
(-0.0216619 -0.0709241 -1.33175e-20)
(-1.47809 -0.55819 3.3999e-21)
(-1.04171 0.560846 0)
(-0.571164 0.388054 -1.81717e-20)
(-1.02738 -0.229363 9.43198e-21)
(-0.497854 -0.442116 -2.8844e-21)
(-1.31367 -0.444453 1.36027e-21)
(-0.8616 0.499312 5.97519e-21)
(-0.15894 -0.180259 -8.20836e-21)
(-0.0231894 -0.0604132 -1.19101e-20)
(-1.06955 0.606846 0)
(-1.53179 -0.546296 0)
(-0.553416 0.283289 -3.02689e-21)
(-0.617965 0.319297 0)
(-0.938921 -0.336228 -1.0235e-20)
(-1.0176 -0.370508 1.09528e-20)
(-0.225775 -0.220715 1.46507e-21)
(-0.196889 -0.208437 -1.56085e-21)
(-0.507477 0.271212 2.90493e-21)
(-0.897277 -0.29856 0)
(-0.283864 -0.261428 2.76443e-21)
(-0.738254 0.450522 0)
(-1.18688 -0.365587 -8.62885e-21)
(-0.260331 -0.257451 1.90388e-21)
(-1.23287 -0.82124 -4.54524e-21)
(-1.0151 0.206653 5.00716e-21)
(0.0172447 0.0224133 -1.28356e-20)
(-1.40225 -0.83712 0)
(-1.22661 0.394187 1.01655e-20)
(0.0896601 -0.019021 0)
(0.0543231 0.00203352 -4.14064e-21)
(-1.05374 0.263234 -3.03955e-21)
(-1.28894 -0.814088 -2.89501e-21)
(-1.08433 -0.520852 4.46236e-22)
(0.0311711 0.0204567 3.63296e-21)
(-0.933745 0.509199 0)
(-0.321776 0.146461 5.81391e-21)
(-0.330637 0.135435 0)
(-0.321565 -0.261056 0)
(-0.6703 -0.217733 2.14298e-20)
(-0.276872 -0.230919 0)
(-0.665664 -0.240996 -1.36835e-20)
(-0.643491 0.389445 0)
(-0.574479 0.346432 0)
(-0.349997 -0.318197 2.24751e-23)
(-1.07677 -0.32052 5.84583e-21)
(-0.310922 -0.287565 1.39577e-20)
(-1.00116 -0.287407 -1.26138e-20)
(-1.01867 -0.635006 0)
(0.0391977 -0.0111236 7.735e-21)
(-1.0672 0.42536 0)
(-1.40236 -0.816038 -2.42214e-21)
(-1.26107 0.41585 1.02109e-21)
(0.0906193 -0.0204878 3.61848e-21)
(-0.391449 0.247237 -1.02954e-20)
(-0.550189 -0.452121 -6.46471e-21)
(-0.820108 -0.16628 1.76088e-20)
(-1.17499 -0.835929 1.00348e-20)
(-0.986159 0.14281 1.28686e-20)
(-0.0527247 0.0637673 0)
(-0.0419108 -0.0878066 1.42421e-20)
(-1.45946 -0.54029 -3.61497e-21)
(-1.01751 0.556381 6.3144e-21)
(-1.29157 -0.694365 0)
(-1.18314 0.505515 0)
(0.062738 -0.00288914 0)
(-1.31587 -0.725299 0)
(-1.21582 0.490161 2.05579e-21)
(0.0708422 -0.0107967 1.30328e-21)
(-0.793054 0.432876 -5.80013e-21)
(-1.22058 -0.441832 2.95478e-21)
(-0.143292 -0.171455 3.91429e-21)
(-0.192622 0.111359 -1.6309e-21)
(-0.587414 -0.425761 0)
(-0.613932 -0.0805047 -8.01012e-23)
(-1.17932 0.506721 4.76517e-21)
(0.0809405 -0.0161632 1.04153e-20)
(-1.47594 -0.715247 -1.0332e-21)
(-1.21324 -0.753937 0)
(-0.950414 0.238743 0)
(0.0495801 0.00650113 1.39534e-20)
(0.0510569 -0.0440787 3.43723e-21)
(-1.40982 -0.651073 5.98661e-21)
(-1.04646 0.469219 1.42017e-20)
(-0.538762 0.331663 0)
(-0.400377 -0.35498 -9.42431e-21)
(-0.963596 -0.261559 6.56799e-21)
(-0.694154 0.0471397 8.66215e-23)
(-0.870845 -0.594358 5.41987e-21)
(-0.0790425 0.0690813 0)
(-0.292298 0.164675 4.88995e-23)
(-0.489592 -0.384412 -1.93111e-21)
(-0.689162 -0.15574 -7.2636e-21)
(0.0877296 -0.0141719 1.02637e-23)
(-1.45873 -0.744008 2.0644e-21)
(-1.20639 0.494168 4.81844e-21)
(-0.957997 0.448297 -2.6818e-21)
(-1.35126 -0.588557 -2.06521e-21)
(0.00917476 -0.0717712 0)
(-0.253682 0.115866 -6.30515e-21)
(-0.39808 -0.302138 1.24407e-20)
(-0.608249 -0.166681 -1.18499e-20)
(-1.08666 0.622555 3.89021e-21)
(-0.0107363 -0.043417 5.25766e-21)
(-1.54972 -0.551207 -1.33925e-21)
(-0.458118 0.213323 -3.71066e-21)
(-0.817739 -0.308379 0)
(-0.22302 -0.216357 0)
(-0.505803 0.0392911 -1.60534e-20)
(-0.705257 -0.426232 3.46542e-21)
(-0.0493528 -0.00309636 0)
(-1.14991 -0.75105 0)
(-0.902295 0.175549 1.07983e-20)
(0.0114746 0.0296858 0)
(-1.1068 0.601459 -1.7427e-21)
(0.0443376 0.014198 -1.63715e-21)
(-1.47798 -0.596102 -7.08596e-22)
(-1.10019 0.614649 4.87976e-21)
(0.0357429 0.0101117 0)
(-1.50282 -0.578666 -2.27396e-22)
(0.0361347 -0.0492101 3.07858e-21)
(-1.42788 -0.630086 -3.18916e-21)
(-1.0477 0.49092 -1.30675e-20)
(-0.731834 0.0287881 -5.00611e-21)
(-0.896269 -0.635152 -5.46304e-21)
(-0.114639 0.0908002 0)
(0.0429792 0.0234351 1.49984e-21)
(-1.42849 -0.578122 6.53828e-22)
(-1.06421 0.593282 0)
(0.0874096 -0.0247145 0)
(-1.37507 -0.734926 -3.36461e-21)
(-1.08135 0.392457 -1.63185e-21)
(0.0196783 0.000753661 6.20283e-21)
(-0.825539 -0.528443 -2.43535e-21)
(-0.851597 0.363388 0)
(-0.760364 0.456437 -4.56686e-22)
(-0.905482 -0.426977 0)
(0.0195224 0.0199454 6.18924e-21)
(-0.0118285 -0.057077 -2.05599e-23)
(-1.5117 -0.567413 0)
(-1.06982 0.587515 0)
(0.085898 -0.0110196 0)
(-1.42838 -0.750937 0)
(-1.23594 0.498188 5.74591e-21)
(-1.14108 0.542848 -4.31054e-21)
(-1.11823 0.523511 3.48698e-21)
(0.0552647 -0.0234123 -5.85666e-21)
(-1.50016 -0.65645 -4.38817e-22)
(0.0552919 -0.0295807 -9.5517e-21)
(-1.47985 -0.658661 1.07623e-21)
(-1.08327 0.367665 3.22337e-21)
(-1.36186 -0.757041 2.34589e-21)
(0.0886388 -0.0208766 0)
(-0.100622 0.0932096 0)
(-1.12541 -0.830657 0)
(-0.959726 0.106171 0)
(-0.315289 0.0947619 0)
(-0.224691 -0.18667 -1.73494e-20)
(-0.611145 -0.247029 7.45446e-21)
(-1.04365 0.301789 9.44945e-21)
(-1.30351 -0.779459 9.68174e-22)
(0.0757687 -0.0097527 1.21641e-20)
(0.0629799 -0.00181523 7.92646e-21)
(-1.02383 0.275496 -1.31466e-20)
(-1.27441 -0.786141 -1.34146e-21)
(-1.04267 0.613458 4.79048e-21)
(-0.0553391 -0.0851562 5.6914e-21)
(-1.52347 -0.513047 4.94555e-21)
(-0.668394 0.411757 0)
(-1.11293 -0.322565 2.57721e-21)
(-0.315847 -0.296205 -1.36826e-20)
(-0.570081 0.324049 0)
(-0.97484 -0.303101 1.29845e-20)
(-0.308381 -0.288197 -3.49873e-23)
(-0.905778 0.275607 -1.2803e-20)
(-1.21301 -0.690624 1.32135e-21)
(0.0669845 -0.0206393 -7.04052e-21)
(-0.935358 0.271086 0)
(-1.22555 -0.715212 1.24918e-21)
(0.0665652 -0.0131157 6.44767e-21)
(-0.221406 0.0862176 0)
(-0.396705 -0.290014 -1.9658e-20)
(-0.555012 -0.149876 6.63855e-21)
(-0.64046 0.342113 0)
(-1.04367 -0.36797 0)
(-0.208745 -0.2213 2.09963e-21)
(0.0636666 -0.0190614 -1.24504e-20)
(-1.35931 -0.890288 -6.57692e-21)
(-1.27988 0.33299 0)
(-1.24199 0.467206 2.10214e-21)
(0.0700605 -0.0181767 0)
(-1.27146 -0.741655 -1.07283e-22)
(-1.23555 0.441239 -3.50755e-22)
(0.0648653 -0.0225955 0)
(-1.22554 -0.735034 5.88712e-22)
(-0.399729 0.217357 4.31814e-21)
(-0.370277 -0.308556 -2.05889e-21)
(-0.783328 -0.234016 -2.06115e-22)
(-1.21274 -0.668548 3.2479e-22)
(0.0545669 -0.00393561 1.0443e-20)
(-1.15148 0.48885 0)
(-1.00656 0.485454 1.13846e-20)
(0.0127841 -0.0640125 6.52203e-21)
(-1.40155 -0.598555 0)
(0.0515408 -0.0125492 -1.55481e-21)
(-1.14906 -0.684034 1.14225e-21)
(-1.14792 0.451684 0)
(-0.364267 0.00566016 1.08779e-20)
(-0.117472 -0.0669043 1.06616e-20)
(-0.53797 -0.288485 1.238e-23)
(-0.690276 0.256901 -1.93023e-21)
(-1.04481 -0.505117 -1.59692e-21)
(-0.0112737 -0.0855191 -7.35676e-21)
(-0.824512 -0.601646 1.24662e-20)
(-0.718819 -0.00423681 1.18684e-20)
(-0.156213 0.114994 0)
(0.0797078 -0.0281592 0)
(-1.34574 -0.824041 -4.37652e-22)
(-1.3057 0.407897 0)
(-1.19401 -0.768904 0)
(-0.948921 0.216172 0)
(0.0340673 0.0161234 0)
(0.0127343 -0.026511 0)
(-1.10949 0.612724 -3.35113e-21)
(-1.5454 -0.575915 1.31419e-21)
(-0.754612 0.285656 0)
(-1.10321 -0.542482 8.26536e-22)
(0.00977988 -0.0739456 7.18672e-21)
(-0.295139 0.0710319 0)
(-0.222031 -0.177137 1.49118e-20)
(-0.568898 -0.234244 0)
(-1.38147 -0.812517 -3.02825e-21)
(-1.28051 0.43609 2.83291e-21)
(0.0862389 -0.0232807 0)
(0.0789453 -0.0302533 -7.14681e-21)
(-1.405 -0.706317 2.11813e-22)
(-1.08365 0.440449 3.14103e-22)
(-1.14924 0.574571 0)
(-1.13791 0.573241 2.76947e-21)
(0.0582442 0.00945108 -3.80052e-21)
(0.0581276 0.0125081 -4.66334e-21)
(-1.45449 -0.638967 1.64306e-22)
(-1.42532 -0.640452 -1.35174e-22)
(-0.672396 0.139988 0)
(-0.94665 -0.572904 2.13627e-20)
(0.00990273 -0.00523653 7.96114e-21)
(-1.12888 -0.684081 1.37732e-20)
(-0.851649 0.201686 0)
(0.0406651 0.00328599 -8.60342e-21)
(-0.451877 0.0585108 -9.02823e-21)
(-0.688325 -0.383968 5.9571e-21)
(-0.0533633 -0.0455054 1.28352e-20)
(-1.31726 -0.776579 6.26114e-22)
(-1.27311 0.452482 2.64367e-21)
(-1.29901 -0.790143 -1.56936e-22)
(0.0764249 -0.0220077 0)
(-1.28884 0.429164 -2.55017e-21)
(0.0740925 -0.0270697 0)
(-0.886918 0.34549 0)
(-1.23662 -0.618898 0)
(0.0455139 -0.0528237 7.89504e-21)
(-1.27023 0.454767 4.41886e-21)
(-1.269 0.461667 -8.02859e-21)
(-1.38948 -0.78955 3.98114e-22)
(-1.36174 -0.773297 -1.74239e-21)
(0.0857956 -0.0193225 1.05911e-20)
(0.0812406 -0.0181589 -1.40989e-23)
(-0.812319 0.177507 0)
(-1.08373 -0.681112 -1.31686e-20)
(0.0194017 0.0175422 1.11548e-20)
(-0.609548 0.167587 8.53423e-21)
(-0.974105 -0.515407 -9.71704e-21)
(0.0103661 -0.0555857 0)
(-1.12124 0.61285 0)
(0.0337224 -0.00253264 0)
(-1.52597 -0.594779 2.1858e-22)
(-0.678989 0.167534 6.30696e-21)
(-0.972558 -0.560355 -5.94624e-21)
(0.0217197 -0.0197688 -1.31129e-20)
(-0.502511 0.0930088 3.64554e-21)
(-0.773327 -0.4334 -6.99662e-21)
(-0.0295523 -0.0447469 7.37933e-21)
(-1.12989 0.588568 0)
(0.0513116 0.0094784 0)
(-1.48365 -0.624181 -3.80266e-22)
(-0.774932 0.315393 0)
(-1.14716 -0.531217 1.61609e-21)
(-0.00150627 -0.0852127 -7.83902e-21)
(-1.01079 -0.768576 0)
(-0.882943 0.0394505 0)
(-0.178718 0.142901 -4.3039e-22)
(-0.543707 0.346309 -4.67941e-22)
(-0.976398 -0.244379 0)
(-0.435746 -0.385444 1.45155e-20)
(-1.29583 -0.9002 4.83834e-21)
(0.00561863 0.0198507 0)
(-1.1372 0.228224 0)
(0.0143299 0.01024 -1.48972e-20)
(-0.773884 -0.417798 -4.93621e-21)
(-0.722884 0.3627 1.25543e-21)
(-0.715163 0.221255 0)
(-1.03165 -0.549738 5.93488e-21)
(0.0260126 -0.0484388 -6.63092e-21)
(-1.1425 0.583403 6.55451e-21)
(0.0461577 -0.0115279 1.97237e-20)
(-1.52035 -0.627835 0)
(-0.615838 -0.525223 -3.79601e-21)
(-0.939739 -0.166285 -6.41677e-21)
(-0.468058 0.323685 -4.05981e-21)
(-0.89923 0.526136 0)
(0.0329425 0.027909 -5.48323e-21)
(-1.14592 -0.51064 0)
(-0.119073 0.0597249 8.02826e-21)
(-0.139326 0.0815224 -8.19944e-21)
(-0.619738 -0.423917 0)
(-0.551455 -0.0392012 7.66357e-21)
(-0.656917 -0.460221 -1.25141e-20)
(-0.594378 -0.0450689 -6.12795e-21)
(-0.455583 0.0283378 8.50713e-21)
(-0.646638 -0.376431 7.98963e-21)
(-0.0634553 -0.0225401 0)
(-0.201711 0.103828 7.21204e-21)
(-0.156007 0.0749706 0)
(-0.51192 -0.373344 -7.04715e-21)
(-0.589666 -0.111072 6.84224e-21)
(-0.536712 -0.374852 7.10255e-21)
(-0.548445 -0.080203 3.43052e-23)
(-0.665191 0.202425 5.36642e-22)
(-0.910486 -0.499714 -4.30307e-21)
(0.00231756 -0.0443006 -9.01807e-21)
(-0.615819 0.150209 -1.47095e-20)
(-0.913183 -0.514734 1.11937e-22)
(0.00532954 -0.0304843 0)
(0.0668999 -0.0289169 0)
(-1.23251 -0.76679 0)
(-1.27208 0.422832 1.95782e-21)
(-0.448872 0.235554 -3.98466e-21)
(-0.827191 -0.268695 0)
(-0.305963 -0.269893 3.81149e-21)
(-1.24895 0.470396 -9.35963e-21)
(-1.42082 -0.779484 1.13782e-21)
(0.0893279 -0.015319 -6.03657e-21)
(-0.939049 0.315455 0)
(-0.992049 0.340373 6.79008e-21)
(-1.25816 -0.684626 -1.64849e-21)
(-1.30252 -0.707425 4.7273e-21)
(0.0728686 -0.027737 -8.68841e-21)
(0.0795664 -0.0261597 -8.00311e-21)
(-0.424648 0.207593 0)
(-0.790513 -0.276847 0)
(-0.273128 -0.247133 1.83453e-21)
(-0.709222 0.402705 4.60966e-21)
(-1.13319 -0.377606 0)
(-0.222469 -0.226903 4.55362e-21)
(-0.838877 0.284915 -3.63803e-21)
(-1.16996 -0.627791 0)
(0.0547614 -0.0383708 0)
(-0.233777 0.0111396 8.32341e-21)
(-0.45632 -0.174443 -4.02795e-21)
(-0.267397 -0.1862 4.05396e-21)
(-1.00484 0.307496 0)
(-1.28768 -0.746691 0)
(0.077442 -0.0148625 -1.29389e-20)
(-0.286981 0.0983118 0)
(-0.283407 -0.224254 2.17254e-21)
(-0.598501 -0.215638 0)
(-0.809215 0.19987 -8.32683e-21)
(-1.09208 -0.660037 -7.42683e-21)
(0.038291 -0.0047412 -1.11789e-21)
(-0.699937 0.378051 4.71861e-21)
(-1.11447 -0.39554 0)
(-0.184931 -0.20454 9.39113e-21)
(-0.241263 0.0403099 -8.24752e-21)
(-0.219486 0.0434836 -3.65019e-21)
(-0.500646 -0.1879 3.99785e-21)
(-0.276963 -0.203483 -8.05883e-21)
(-0.498518 -0.166265 0)
(-0.325213 -0.235365 -1.42677e-20)
(-0.181682 0.0631651 -3.6247e-21)
(-0.438303 -0.311409 9.18453e-21)
(-0.157026 0.0614913 2.32896e-21)
(-0.519817 -0.116851 -9.27e-21)
(-0.516403 -0.35754 -4.48152e-21)
(-0.527445 -0.087066 1.76815e-22)
(-0.530305 0.256569 4.39566e-21)
(-0.582764 0.27237 0)
(-0.905755 -0.344527 7.72157e-21)
(-0.955731 -0.383773 -6.0355e-21)
(-0.194661 -0.199709 -8.53535e-21)
(-0.143972 -0.167223 1.41895e-20)
(-0.000900511 -0.0629326 0)
(-1.45675 -0.584016 -1.88215e-21)
(-1.04155 0.534436 -6.5168e-21)
(-0.203782 0.159726 5.24816e-21)
(-0.843869 0.00836185 7.58964e-21)
(-0.941203 -0.721744 -1.24947e-20)
(0.0196138 -0.0469093 -6.67121e-21)
(0.0375557 -0.0411547 5.35148e-21)
(-1.47885 -0.611313 1.62971e-21)
(-1.46455 -0.63305 2.91848e-21)
(-1.07648 0.546017 1.65096e-20)
(-1.08492 0.524051 -8.56135e-21)
(-0.32491 0.225356 7.4942e-21)
(-0.68826 -0.546256 -6.12113e-21)
(-0.803184 -0.103232 1.72955e-21)
(-0.25328 -0.0421283 1.41044e-20)
(-0.245003 -0.13887 0)
(-0.38365 -0.162039 -1.3889e-20)
(-1.02879 0.338027 -3.19913e-21)
(-1.31757 -0.740963 -5.34224e-21)
(0.0831109 -0.0199414 0)
(-0.363508 0.172925 0)
(-0.315934 -0.272136 -1.74745e-21)
(-0.720044 -0.234776 -6.91249e-21)
(-0.735656 0.390798 0)
(-1.151 -0.420598 0)
(-0.154299 -0.181508 -8.73857e-21)
(-0.97837 0.525078 -7.19668e-21)
(-0.969084 0.501193 0)
(-1.41342 -0.536957 1.2214e-21)
(-0.0503178 -0.0988956 -8.2197e-21)
(-1.39241 -0.548758 -3.3066e-21)