/*--------------------------------*- C++ -*----------------------------------*\
  =========                 |
  \\      /  F ield         | OpenFOAM: The Open Source CFD Toolbox
   \\    /   O peration     | Website:  https://openfoam.org
    \\  /    A nd           | Version:  6
     \\/     M anipulation  |
\*---------------------------------------------------------------------------*/
FoamFile
{
    version     2.0;
    format      ascii;
    class       volVectorField;
    location    "0";
    object      U;
}
// * * * * * * * * * * * * * * * * * * * * * * * * * * * * * * * * * * * * * //

dimensions      [0 1 -1 0 0 0 0];

internalField   nonuniform List<vector> 
13046
(
(-0.442198 -0.199127 0)
(-0.585326 -0.293769 -4.31635e-21)
(-0.429167 -0.376928 -9.66876e-21)
(-0.485441 -0.216493 0)
(-0.416411 -0.327389 -9.03813e-21)
(-0.549487 -0.32747 0)
(-0.491497 -0.203314 1.38986e-21)
(-0.561462 -0.33987 2.1529e-21)
(-0.401058 -0.33028 -9.93811e-21)
(-0.487279 0.0362528 6.38443e-21)
(-0.824538 -0.421792 0)
(-0.202041 -0.489313 6.63644e-21)
(-0.455706 -0.166789 -4.56958e-21)
(-0.611765 -0.319257 -6.59181e-21)
(-0.38746 -0.38444 5.39962e-21)
(-0.417077 0.00749995 -8.07865e-21)
(-0.26983 -0.521938 1.55255e-20)
(-0.808112 -0.329103 3.11556e-21)
(-0.425283 -0.272588 0)
(-0.50183 -0.351981 -4.67138e-21)
(-0.529311 -0.246692 1.3862e-20)
(-0.430082 0.0115186 -3.55062e-21)
(-0.256306 -0.512983 -2.07711e-20)
(-0.808066 -0.34635 0)
(-0.459465 -0.227766 5.76028e-21)
(-0.553454 -0.299255 -1.06257e-20)
(-0.441142 -0.346806 0)
(-0.441841 -0.157829 -8.63911e-21)
(-0.621613 -0.310207 1.93888e-21)
(-0.388953 -0.397342 -9.31932e-21)
(-0.42714 -0.19171 0)
(-0.596365 -0.280688 0)
(-0.429979 -0.392615 9.83364e-21)
(-0.462312 -0.24073 -6.69201e-21)
(-0.451938 -0.336678 3.28178e-21)
(-0.538747 -0.294748 1.85754e-20)
(-0.474849 -0.249012 -1.00604e-20)
(-0.454012 -0.322039 5.08513e-21)
(-0.527482 -0.301933 -9.54569e-21)
(-0.371758 -0.212261 7.73172e-21)
(-0.477709 -0.43017 1.7585e-21)
(-0.600284 -0.226621 -6.77324e-21)
(-0.492507 -0.275735 4.46401e-21)
(-0.46876 -0.292918 7.68425e-21)
(-0.495137 -0.305044 0)
(-0.501029 -0.263906 2.87697e-21)
(-0.452629 -0.289563 -1.17681e-20)
(-0.500452 -0.317317 -1.42967e-21)
(-0.450726 -0.192904 0)
(-0.585174 -0.305408 -3.05897e-22)
(-0.413772 -0.369498 3.50289e-24)
(-0.518414 -0.478917 1.04211e-20)
(-0.309062 -0.219057 0)
(-0.6164 -0.172987 -8.54122e-21)
(-0.533852 -0.484769 -1.48246e-20)
(-0.61271 -0.162714 -1.41648e-20)
(-0.296402 -0.230286 1.21059e-20)
(-0.726441 -0.239918 -1.52549e-21)
(-0.348283 -0.0801158 0)
(-0.377898 -0.525304 8.26984e-21)
(-0.520624 -0.121576 -4.48144e-21)
(-0.630218 -0.404001 3.74719e-21)
(-0.310593 -0.349262 -2.36345e-20)
(-0.262885 -0.44948 1.22207e-20)
(-0.742128 -0.385268 -2.29957e-21)
(-0.472167 -0.0358421 -8.8291e-21)
(-0.332093 -0.0937072 0)
(-0.715104 -0.221797 0)
(-0.396888 -0.532377 0)
(-0.332855 -0.104419 -3.72199e-21)
(-0.704174 -0.220489 0)
(-0.40525 -0.523498 6.46018e-21)
(-0.740936 -0.239097 0)
(-0.345922 -0.0683703 5.28599e-23)
(-0.36722 -0.537868 5.31861e-23)
(-0.417301 -0.262265 0)
(-0.495775 -0.365104 5.05022e-21)
(-0.541679 -0.247472 -9.82463e-21)
(-0.339404 -0.530724 9.25441e-21)
(-0.3663 -0.0487957 -1.26197e-20)
(-0.755774 -0.264111 0)
(-0.466807 -0.217311 3.0784e-21)
(-0.558285 -0.308463 0)
(-0.428051 -0.342696 0)
(-0.252894 -0.461922 -1.09108e-20)
(-0.760288 -0.389184 -1.75056e-21)
(-0.471063 -0.0219987 5.30147e-21)
(-0.533838 -0.046921 -9.0149e-21)
(-0.227572 -0.388212 0)
(-0.708161 -0.452836 -1.75786e-21)
(-0.178818 -0.329891 0)
(-0.594484 -0.0487153 0)
(-0.683679 -0.528426 2.26818e-22)
(-0.450647 -0.104444 0)
(-0.462858 -0.091347 4.543e-21)
(-0.676987 -0.341091 7.40441e-21)
(-0.685608 -0.357451 -3.45797e-21)
(-0.335921 -0.423879 -4.97671e-21)
(-0.318257 -0.420426 1.27229e-20)
(-0.226335 -0.370896 -6.36875e-22)
(-0.546975 -0.0558403 8.81866e-21)
(-0.693629 -0.46698 0)
(-0.500985 -0.249675 2.34551e-23)
(-0.439967 -0.297262 6.27745e-21)
(-0.51293 -0.325131 0)
(-0.325261 -0.257759 0)
(-0.580508 -0.17196 -4.37398e-21)
(-0.543744 -0.441335 0)
(-0.335414 -0.224178 1.32748e-20)
(-0.508894 -0.451385 0)
(-0.601651 -0.193501 -1.60891e-20)
(-0.511826 0.108941 0)
(-0.14527 -0.515001 0)
(-0.901296 -0.473551 -1.81789e-21)
(-0.458181 -0.178165 1.25859e-20)
(-0.599858 -0.315301 2.8026e-21)
(-0.396775 -0.374252 9.84834e-21)
(-0.426614 -0.0819823 5.73623e-21)
(-0.431197 -0.0975072 -1.06995e-20)
(-0.708276 -0.322042 -6.31238e-21)
(-0.33239 -0.459239 5.6209e-21)
(-0.688835 -0.322137 3.81894e-21)
(-0.341821 -0.443701 -5.25146e-21)
(-0.483313 0.0521101 -5.6788e-21)
(-0.845368 -0.424116 -3.14828e-21)
(-0.194421 -0.503031 -2.94202e-21)
(-0.440405 -0.128625 0)
(-0.652432 -0.322997 -5.03384e-21)
(-0.361561 -0.41704 1.14744e-20)
(-0.378251 -0.200524 0)
(-0.463542 -0.429668 -8.70205e-21)
(-0.606915 -0.23671 4.29654e-22)
(-0.193924 -0.318743 0)
(-0.59116 -0.0612892 0)
(-0.668841 -0.517207 0)
(-0.489241 -0.0707984 0)
(-0.69997 -0.392093 -9.32534e-21)
(-0.284676 -0.412563 -1.38985e-20)
(-0.422397 -0.181474 0)
(-0.608977 -0.283707 0)
(-0.42021 -0.404666 0)
(-0.521373 -0.170949 0)
(-0.578665 -0.385971 0)
(-0.354494 -0.318963 0)
(-0.325237 -0.23003 0)
(-0.52093 -0.457841 0)
(-0.601874 -0.182439 8.70217e-21)
(-0.338811 -0.264717 -1.35061e-21)
(-0.572825 -0.180269 -9.25101e-21)
(-0.542639 -0.430744 9.21566e-21)
(-0.512643 -0.11169 1.11139e-20)
(-0.644253 -0.403159 0)
(-0.302527 -0.364949 3.07076e-20)
(-0.371626 -0.286457 0)
(-0.542154 -0.198432 9.83278e-21)
(-0.541255 -0.390916 -2.36135e-21)
(-0.568165 -0.48135 0)
(-0.597368 -0.139437 1.03163e-20)
(-0.585905 -0.479569 0)
(-0.588154 -0.128241 6.06966e-21)
(-0.279556 -0.258071 0)
(-0.271565 -0.275238 0)
(-0.546405 -0.166889 1.27772e-21)
(-0.567644 -0.413135 4.83437e-21)
(-0.33514 -0.297681 -5.91251e-21)
(-0.507059 0.0271191 -6.50849e-21)
(-0.195019 -0.473465 0)
(-0.809083 -0.444986 -4.09488e-21)
(-0.49604 0.0878925 -5.27158e-21)
(-0.165293 -0.51726 -1.32977e-21)
(-0.886073 -0.447442 0)
(-0.479278 -0.0613191 -7.0344e-21)
(-0.712114 -0.385857 0)
(-0.281285 -0.426167 1.57927e-20)
(-0.3524 -0.174699 0)
(-0.638686 -0.222544 2.17114e-21)
(-0.455795 -0.468371 5.04913e-21)
(-0.553189 -0.173789 8.39706e-21)
(-0.342187 -0.285927 2.84258e-21)
(-0.557139 -0.41157 0)
(-0.186541 -0.435735 0)
(-0.773583 -0.46742 0)
(-0.529702 0.00614629 5.54922e-21)
(-0.358033 -0.186567 0)
(-0.626533 -0.221737 -4.64548e-21)
(-0.464892 -0.455389 1.32002e-21)
(-0.358927 -0.279103 0)
(-0.549322 -0.190939 0)
(-0.54063 -0.40072 0)
(-0.516717 -0.180688 4.18143e-21)
(-0.56933 -0.378469 0)
(-0.36374 -0.317354 0)
(-0.620959 -0.339942 1.42697e-24)
(-0.366254 -0.379493 -6.68649e-21)
(-0.447053 -0.139878 1.36537e-20)
(-0.640624 -0.322632 0)
(-0.368507 -0.405872 -1.43777e-20)
(-0.510543 -0.0270535 -9.4334e-21)
(-0.230307 -0.425981 1.00341e-20)
(-0.74274 -0.43264 -8.36761e-21)
(-0.216891 -0.337219 9.46272e-21)
(-0.571181 -0.0659976 5.2509e-21)
(-0.67174 -0.490714 8.73131e-21)
(-0.569272 -0.041065 -1.56095e-20)
(-0.706693 -0.496072 0)
(-0.193815 -0.361509 -9.26389e-21)
(-0.516305 -0.512573 -5.3433e-22)
(-0.639935 -0.158847 3.89682e-21)
(-0.283775 -0.197044 0)
(-0.48838 -0.174825 -1.93079e-20)
(-0.355219 -0.0498531 6.2769e-21)
(-0.350373 -0.538958 -5.64029e-21)
(-0.756832 -0.254238 0)
(-0.724455 -0.500459 0)
(-0.565322 -0.026646 -1.4731e-20)
(-0.18237 -0.379155 0)
(-0.488519 -0.24175 -1.46178e-20)
(-0.439237 -0.311905 -4.99723e-21)
(-0.526129 -0.317903 1.39916e-20)
(-0.431179 -0.164205 0)
(-0.622122 -0.298111 -2.81864e-22)
(-0.403997 -0.405134 -5.388e-21)
(-0.209355 -0.323603 7.31369e-21)
(-0.582408 -0.0680274 0)
(-0.6639 -0.505156 -1.0054e-20)
(-0.489789 -0.164009 1.55907e-20)
(-0.612544 -0.349966 1.17966e-20)
(-0.363935 -0.368148 0)
(-0.161118 -0.484381 0)
(-0.840034 -0.47796 3.22884e-21)
(-0.526324 0.0582584 0)
(-0.275975 -0.21001 0)
(-0.631897 -0.152165 0)
(-0.528238 -0.512466 0)
(-0.560537 -0.0541461 1.3695e-20)
(-0.692144 -0.483027 0)
(-0.209673 -0.358489 -4.86448e-23)
(-0.566875 -0.146569 3.83456e-21)
(-0.57584 -0.44498 -3.66267e-21)
(-0.303046 -0.28555 0)
(-0.42858 -0.126268 0)
(-0.657386 -0.31034 4.70868e-21)
(-0.369424 -0.427759 8.91247e-21)
(-0.624539 -0.523836 -1.2666e-20)
(-0.605234 -0.0902455 -9.08308e-21)
(-0.216233 -0.281019 5.86533e-21)
(-0.595333 -0.118294 0)
(-0.595003 -0.493955 -5.07651e-21)
(-0.255122 -0.273983 -2.10654e-22)
(-0.141653 -0.475425 -8.79214e-21)
(-0.839952 -0.497754 0)
(-0.542993 0.0615681 -6.37952e-21)
(-0.337905 -0.20312 7.19636e-21)
(-0.490426 -0.463761 -6.1969e-21)
(-0.619174 -0.201777 7.00014e-22)
(-0.458551 0.132997 5.90726e-21)
(-0.169516 -0.545517 -1.2286e-20)
(-0.944116 -0.400805 0)
(-0.420648 -0.286983 -2.96301e-21)
(-0.517773 -0.238528 -1.11999e-20)
(-0.513787 -0.346435 1.38317e-20)
(-0.541445 -0.141278 4.91024e-21)
(-0.555232 -0.151612 8.3981e-23)
(-0.595089 -0.420021 -8.86267e-21)
(-0.577934 -0.430009 0)
(-0.316651 -0.295349 5.37688e-21)
(-0.313252 -0.314205 -5.5146e-21)
(-0.323526 -0.532122 -1.21179e-20)
(-0.372479 -0.0330047 6.56708e-21)
(-0.772449 -0.27056 -7.96337e-21)
(-0.418822 -0.137973 0)
(-0.652369 -0.295256 0)
(-0.387231 -0.431997 -1.17452e-20)
(-0.591973 -0.105967 -2.33287e-21)
(-0.610553 -0.499129 0)
(-0.244208 -0.285572 0)
(-0.454894 -0.0749878 -5.57274e-21)
(-0.706566 -0.354509 0)
(-0.308033 -0.439692 5.66567e-21)
(-0.480396 -0.274655 2.97954e-21)
(-0.501919 -0.29425 4.31859e-21)
(-0.475213 -0.303505 -1.49566e-21)
(-0.572404 -0.129835 -7.73319e-21)
(-0.591967 -0.46053 0)
(-0.282812 -0.29027 -9.49782e-21)
(-0.406288 -0.131891 0)
(-0.661212 -0.285711 5.93971e-21)
(-0.388383 -0.445132 -7.50253e-21)
(-0.473417 -0.158378 0)
(-0.47655 -0.14657 1.6075e-21)
(-0.327817 -0.196895 2.64913e-21)
(-0.490547 -0.475206 1.80675e-20)
(-0.626638 -0.194551 -1.67992e-20)
(-0.564057 -0.120012 -8.21331e-21)
(-0.606712 -0.457701 7.56932e-21)
(-0.276661 -0.304992 8.66567e-21)
(-0.463857 -0.0639662 0)
(-0.294006 -0.43789 -2.00014e-20)
(-0.715917 -0.366739 -4.6426e-21)
(-0.348912 -0.229211 -1.83489e-20)
(-0.503945 -0.441663 0)
(-0.59546 -0.202156 5.39198e-21)
(-0.267992 -0.246552 -1.14162e-20)
(-0.608696 -0.134853 -5.83946e-21)
(-0.564299 -0.497545 0)
(-0.396936 -0.0963068 -5.45764e-21)
(-0.699097 -0.285757 -5.20432e-21)
(-0.360428 -0.473278 3.43612e-21)
(-0.31167 -0.207182 9.50876e-22)
(-0.508765 -0.484409 0)
(-0.625657 -0.177242 1.17247e-20)
(-0.398448 -0.0842025 0)
(-0.411497 -0.0760903 0)
(-0.713237 -0.29036 -3.2992e-21)
(-0.351294 -0.480949 -9.01962e-21)
(-0.71788 -0.306984 4.67489e-21)
(-0.338022 -0.474276 9.51851e-21)
(-0.207797 -0.442929 -7.75171e-21)
(-0.770862 -0.446843 0)
(-0.515525 -0.00176147 -7.17679e-21)
(-0.422802 -0.109103 6.28071e-21)
(-0.678247 -0.310887 0)
(-0.356307 -0.443469 3.07532e-21)
(-0.918076 -0.484488 4.39948e-21)
(-0.109556 -0.494513 1.07905e-20)
(-0.510571 0.16172 1.55814e-20)
(-0.539298 -0.214387 -5.1947e-21)
(-0.387741 -0.279397 0)
(-0.525893 -0.378483 0)
(-0.510552 -0.134725 1.08761e-20)
(-0.618808 -0.389788 0)
(-0.325595 -0.348874 1.80103e-20)
(-0.248653 -0.42346 -6.33967e-21)
(-0.499952 -0.0422862 1.91183e-20)
(-0.727524 -0.415903 6.40687e-21)
(-0.537777 -0.494859 0)
(-0.618381 -0.154587 5.29189e-21)
(-0.284421 -0.224979 -1.37178e-20)
(-0.638196 -0.518161 -1.53747e-20)
(-0.596791 -0.0814226 -5.74828e-21)
(-0.211743 -0.295654 0)
(-0.593916 -0.344801 -1.19763e-20)
(-0.378393 -0.35311 0)
(-0.481975 -0.124403 1.22975e-20)
(-0.641174 -0.365661 4.19616e-21)
(-0.333539 -0.383703 5.4078e-21)
(-0.587417 -0.35792 7.02242e-21)
(-0.370355 -0.342331 3.82453e-23)
(-0.413165 -0.00979333 -4.71244e-22)
(-0.281896 -0.514905 7.28801e-21)
(-0.789221 -0.321594 -4.57943e-21)
(-0.508119 -0.527304 0)
(-0.651706 -0.159217 1.24026e-21)
(-0.278838 -0.185864 0)
(-0.486288 -0.113141 -1.2524e-20)
(-0.656034 -0.372436 -5.11835e-21)
(-0.322019 -0.387987 -6.6181e-21)
(-0.532773 -0.164859 0)
(-0.575322 -0.400291 -7.02187e-21)
(-0.342661 -0.309648 0)
(-0.592417 -0.172953 0)
(-0.533657 -0.455517 0)
(-0.319518 -0.24495 0)
(-0.462151 -0.202288 -4.26246e-21)
(-0.573446 -0.311638 -6.70721e-21)
(-0.416197 -0.356288 -4.60969e-23)
(-0.272563 -0.23541 1.41206e-20)
(-0.616108 -0.141628 1.44672e-20)
(-0.553959 -0.500276 7.34826e-21)
(-0.531217 -0.0328649 -8.62741e-21)
(-0.730016 -0.456119 7.09399e-21)
(-0.216633 -0.4064 -9.56566e-21)
(-0.644192 -0.50382 1.04228e-20)
(-0.586455 -0.0823197 5.82306e-21)
(-0.220383 -0.307748 7.29621e-21)
(-0.323622 -0.127151 -1.12897e-20)
(-0.43179 -0.517635 9.62301e-21)
(-0.686968 -0.206797 -7.70894e-21)
(-0.38123 -0.0631688 3.55336e-21)
(-0.380243 -0.0754849 -3.12269e-21)
(-0.726217 -0.273293 -1.05949e-21)
(-0.739707 -0.275782 0)
(-0.342884 -0.510295 -3.26753e-21)
(-0.352959 -0.502913 -2.89041e-21)
(-0.129636 -0.514961 -1.44921e-20)
(-0.9307 -0.459091 -4.84567e-21)
(-0.498202 0.150467 3.66239e-21)
(-0.448251 0.113339 -3.62039e-22)
(-0.184887 -0.550798 1.70403e-20)
(-0.928204 -0.386209 0)
(-0.544176 -0.132383 -1.76291e-20)
(-0.609609 -0.42681 -1.95986e-21)
(-0.304306 -0.321537 0)
(-0.224073 -0.440271 -1.92902e-20)
(-0.50421 -0.0157104 7.13546e-21)
(-0.758125 -0.429647 0)
(-0.360928 -0.110389 1.64395e-20)
(-0.369946 -0.0992375 -1.23918e-20)
(-0.694999 -0.247188 5.75875e-21)
(-0.703823 -0.256986 2.15254e-21)
(-0.395306 -0.498333 -5.58277e-21)
(-0.380991 -0.496414 -2.8383e-21)
(-0.146529 -0.381804 0)
(-0.740565 -0.526705 0)
(-0.580886 -0.00895081 2.7205e-21)
(-0.444989 0.156124 -6.94073e-21)
(-0.162298 -0.546027 0)
(-0.959483 -0.390216 0)
(-0.526197 -0.267309 3.71452e-23)
(-0.444219 -0.264233 6.55439e-21)
(-0.483829 -0.339415 3.1246e-21)
(-0.49296 0.130381 -1.25485e-20)
(-0.925797 -0.452961 2.65916e-21)
(-0.145175 -0.525888 7.98602e-22)
(-0.365813 -0.161808 0)
(-0.645799 -0.238142 -9.72961e-21)
(-0.436867 -0.463681 -2.91351e-23)
(-0.541163 -0.0028 3.4382e-23)
(-0.761629 -0.47835 9.868e-21)
(-0.187863 -0.423948 4.59893e-24)
(-0.861972 -0.537755 1.23489e-22)
(-0.049787 -0.431485 -6.17583e-21)
(-0.549109 0.146224 -6.36695e-21)
(-0.379205 -0.225618 -6.57554e-21)
(-0.486401 -0.415551 5.5321e-21)
(-0.586115 -0.226968 1.65489e-20)
(-0.515499 -0.226844 0)
(-0.527855 -0.350899 -1.52928e-20)
(-0.410493 -0.295602 8.42451e-21)
(-0.466589 0.0572382 0)
(-0.205615 -0.514277 8.7188e-21)
(-0.85183 -0.402745 -1.04128e-22)
(-0.522731 -0.215714 0)
(-0.532435 -0.360934 -5.30335e-21)
(-0.397304 -0.291352 -1.18976e-20)
(-0.515979 -0.272434 6.52426e-21)
(-0.454349 -0.271403 -3.49396e-21)
(-0.484819 -0.327101 1.65865e-21)
(-0.262978 -0.212485 6.9311e-21)
(-0.635982 -0.142311 -5.15509e-21)
(-0.540143 -0.525461 8.11835e-21)
(-0.546364 -0.23536 0)
(-0.50349 -0.372557 0)
(-0.404721 -0.259295 1.00961e-21)
(-0.548828 -0.220125 8.21763e-21)
(-0.51786 -0.380089 4.09733e-21)
(-0.393677 -0.268426 1.42929e-22)
(-0.316494 -0.139914 1.7053e-20)
(-0.677152 -0.19989 -7.79783e-21)
(-0.44521 -0.518695 -9.53421e-21)
(-0.236824 -0.492287 1.32341e-20)
(-0.224963 -0.484089 -1.36083e-20)
(-0.807607 -0.386005 2.94222e-21)
(-0.802672 -0.403929 2.04555e-21)
(-0.461939 0.0172669 0)
(-0.474932 0.0167838 -6.53623e-21)
(-0.542312 -0.0224876 1.05417e-20)
(-0.740231 -0.46842 -6.20057e-21)
(-0.202676 -0.403871 1.18267e-20)
(-0.423957 -0.531966 -6.21688e-21)
(-0.316552 -0.115034 3.5942e-21)
(-0.698479 -0.204359 9.83489e-21)
(-0.350027 -0.199767 -6.56518e-21)
(-0.479014 -0.454701 -5.7109e-21)
(-0.617985 -0.212769 5.22656e-21)
(-0.610498 -0.116367 0)
(-0.586429 -0.513736 5.2533e-21)
(-0.243627 -0.257253 2.17915e-22)
(-0.847367 -0.571563 2.72933e-21)
(-0.0662638 -0.447281 -5.99088e-21)
(-0.594078 0.0934036 -5.23622e-21)
(-0.176654 -0.34435 0)
(-0.586739 -0.0396944 0)
(-0.696634 -0.522952 4.18533e-21)
(-0.504108 0.0711335 5.92563e-21)
(-0.169386 -0.501917 0)
(-0.861315 -0.454272 -3.16891e-21)
(-0.0458162 -0.406568 -2.2276e-32)
(-0.836111 -0.513322 -1.37013e-21)
(-0.52432 0.157459 6.53128e-21)
(-0.881491 -0.434069 1.54185e-21)
(-0.0841753 -0.435048 2.22174e-32)
(-0.475974 0.192352 -5.80186e-21)
(-0.640156 -0.44073 -1.03103e-20)
(-0.544218 -0.105067 0)
(-0.277335 -0.339949 -1.83019e-20)
(-0.783141 -0.548189 -1.59493e-21)
(-0.1083 -0.412357 -6.36566e-21)
(-0.591516 0.0261483 0)
(-0.502651 -0.0670343 -8.60577e-21)
(-0.698946 -0.40869 5.76848e-21)
(-0.27186 -0.403882 9.34826e-21)
(-0.396991 0.0395752 1.67639e-20)
(-0.257431 -0.551425 5.17474e-21)
(-0.851331 -0.310867 0)
(-0.475861 -0.182685 3.29909e-21)
(-0.391079 -0.35631 -3.33367e-21)
(-0.589774 -0.332974 2.87916e-21)
(-0.72674 -0.525796 2.12974e-21)
(-0.155588 -0.36914 6.86302e-21)
(-0.58269 -0.0188432 2.86669e-21)
(-0.615651 -0.12214 -5.95601e-21)
(-0.249947 -0.24661 -3.89141e-21)
(-0.575531 -0.512559 0)
(-0.619317 -0.488981 0)
(-0.581844 -0.101133 0)
(-0.245663 -0.29745 0)
(-0.0187253 -0.205318 0)
(-0.535271 -0.278965 -1.92166e-22)
(-0.331844 0.130997 4.98402e-21)
(-0.900471 -0.520911 2.34881e-21)
(-0.0919458 -0.483395 -7.64971e-21)
(-0.537009 0.146227 -6.38771e-21)
(-0.476052 -0.194985 -8.61424e-21)
(-0.400968 -0.34885 7.84973e-21)
(-0.576455 -0.329029 3.43105e-21)
(-0.760085 -0.504958 8.42114e-21)
(-0.563927 0.00122083 -6.16849e-21)
(-0.158395 -0.407402 0)
(-0.130861 -0.380587 -7.14488e-21)
(-0.591733 -0.00148919 0)
(-0.746874 -0.542692 -6.23358e-21)
(-0.485328 -0.0131275 -6.52255e-21)
(-0.236977 -0.455602 2.0415e-20)
(-0.766835 -0.406912 0)
(-0.307695 -0.511671 -1.48047e-20)
(-0.768756 -0.300287 5.0446e-21)
(-0.399111 -0.0311671 0)
(-0.303545 -0.143338 -2.12631e-20)
(-0.677962 -0.189297 9.94238e-21)
(-0.458281 -0.530514 -3.0144e-21)
(-0.720112 -0.258124 1.62501e-21)
(-0.365789 -0.083727 7.28136e-21)
(-0.370211 -0.510528 -8.84186e-21)
(-0.298065 -0.538777 -1.32657e-20)
(-0.381993 -0.0070206 0)
(-0.798649 -0.286569 0)
(-0.393748 -0.15634 -3.25184e-21)
(-0.393418 -0.142656 0)
(-0.641896 -0.2642 -9.9403e-21)
(-0.655773 -0.268495 1.06257e-20)
(-0.41785 -0.441192 1.51357e-21)
(-0.405331 -0.450491 -1.61071e-21)
(-0.382015 -0.165807 3.12117e-21)
(-0.637756 -0.250922 0)
(-0.432634 -0.447448 2.85227e-21)
(-0.347026 -0.109739 0)
(-0.697127 -0.234703 -9.33374e-21)
(-0.403675 -0.509616 2.00761e-21)
(-0.636682 -0.493126 -5.22795e-21)
(-0.580555 -0.090515 5.94015e-21)
(-0.232952 -0.309578 -1.49769e-20)
(-0.7317 -0.489545 0)
(-0.554063 -0.0195595 1.61219e-20)
(-0.18565 -0.391891 0)
(-0.233865 -0.335766 -4.76536e-21)
(-0.564875 -0.0786201 -3.97987e-21)
(-0.660583 -0.477938 -3.40597e-21)
(-0.911455 -0.426974 -2.1928e-22)
(-0.104471 -0.473706 3.96037e-21)
(-0.476786 0.18592 0)
(-0.401998 -0.208312 5.92253e-21)
(-0.415383 -0.208372 0)
(-0.458907 -0.40556 0)
(-0.591837 -0.252829 1.97501e-20)
(-0.451401 -0.394372 0)
(-0.586999 -0.26574 -1.25539e-20)
(-0.350291 -0.131657 0)
(-0.346842 -0.146684 0)
(-0.435508 -0.48727 -4.8249e-23)
(-0.678158 -0.230821 5.92359e-21)
(-0.422503 -0.494369 1.4583e-20)
(-0.664349 -0.225195 -1.25947e-20)
(-0.833727 -0.561754 0)
(-0.0423367 -0.421731 8.55654e-21)
(-0.577847 0.128099 0)
(-0.753229 -0.494939 -5.14423e-21)
(-0.55481 -0.00713825 1.85654e-21)
(-0.170973 -0.411008 4.2185e-21)
(-0.323959 -0.186768 -1.15544e-20)
(-0.482522 -0.486346 -6.50025e-21)
(-0.637012 -0.195116 1.73874e-20)
(-0.612167 -0.515886 1.1302e-20)
(-0.603561 -0.100483 1.51397e-20)
(-0.228301 -0.275587 0)
(-0.318628 -0.513895 1.58406e-20)
(-0.760706 -0.291393 -5.36774e-21)
(-0.391169 -0.0405518 8.38415e-21)
(-0.882701 -0.509864 0)
(-0.543447 0.101873 0)
(-0.117157 -0.495902 0)
(-0.859531 -0.516387 0)
(-0.553904 0.0831687 5.50434e-21)
(-0.120355 -0.479265 1.48969e-21)
(-0.384609 -0.102492 -6.81317e-21)
(-0.696103 -0.272269 3.20281e-21)
(-0.375118 -0.480966 4.20061e-21)
(-0.355487 -0.238868 -1.72686e-21)
(-0.510733 -0.430261 0)
(-0.585448 -0.201154 1.15169e-23)
(-0.485791 0.00238421 7.59852e-21)
(-0.226421 -0.468122 1.19385e-20)
(-0.786088 -0.411478 -2.38178e-21)
(-0.643571 -0.455743 0)
(-0.554999 -0.0965519 0)
(-0.262951 -0.332681 1.58247e-20)
(-0.284305 -0.454507 3.83501e-21)
(-0.734979 -0.365898 7.9165e-21)
(-0.457953 -0.0467614 1.88224e-20)
(-0.338511 -0.154324 0)
(-0.446474 -0.491139 -9.63575e-21)
(-0.659477 -0.216909 6.46916e-21)
(-0.577217 -0.154837 3.00163e-23)
(-0.562359 -0.448883 5.37303e-21)
(-0.308533 -0.271404 0)
(-0.359126 -0.213243 6.06189e-23)
(-0.485141 -0.440626 -1.88758e-21)
(-0.604368 -0.216641 -6.84466e-21)
(-0.208858 -0.460717 5.90577e-23)
(-0.789117 -0.436229 5.50968e-21)
(-0.504773 0.00935193 8.75645e-21)
(-0.437882 -0.0703655 -3.38162e-21)
(-0.717415 -0.337082 -2.41902e-21)
(-0.316502 -0.456934 0)
(-0.39338 -0.225417 -6.41943e-21)
(-0.478448 -0.403971 1.20794e-20)
(-0.581413 -0.239401 -1.09009e-20)
(-0.381026 0.00991785 6.39204e-21)
(-0.285666 -0.549021 5.87161e-21)
(-0.81829 -0.289355 -3.58209e-21)
(-0.407102 -0.178305 -3.91108e-21)
(-0.615536 -0.271284 0)
(-0.427576 -0.416688 0)
(-0.527247 -0.189241 -1.5251e-20)
(-0.554556 -0.379854 3.25773e-21)
(-0.370521 -0.303006 0)
(-0.620448 -0.469584 0)
(-0.570055 -0.108849 1.17363e-20)
(-0.261559 -0.306857 0)
(-0.425678 0.0852383 -3.85303e-21)
(-0.213328 -0.553211 -1.82832e-21)
(-0.899488 -0.355687 3.41372e-21)
(-0.408836 0.0754934 1.0631e-20)
(-0.228437 -0.558295 0)
(-0.888766 -0.33249 -3.58544e-21)
(-0.289738 -0.468866 3.49212e-21)
(-0.74359 -0.350771 -4.68832e-21)
(-0.443819 -0.0426829 -1.72322e-20)
(-0.590822 -0.15199 -5.26768e-21)
(-0.559053 -0.468656 -5.38214e-21)
(-0.295784 -0.258763 0)
(-0.198331 -0.560857 1.67205e-21)
(-0.928408 -0.363743 -3.19302e-21)
(-0.425101 0.110993 0)
(-0.25455 -0.407714 0)
(-0.710737 -0.420048 -4.70018e-21)
(-0.508474 -0.0537993 -2.15157e-21)
(-0.0224015 -0.337971 6.47805e-21)
(-0.742039 -0.490568 1.58218e-21)
(-0.499574 0.143003 0)
(-0.419902 0.200633 -6.51633e-21)
(-0.814848 -0.368714 0)
(-0.0750691 -0.378158 6.43435e-21)
(-0.296253 -0.524735 -3.4676e-23)
(-0.788421 -0.302217 0)
(-0.396402 -0.013544 0)
(-0.17534 -0.468579 0)
(-0.81242 -0.465931 0)
(-0.522863 0.0348386 1.1963e-20)
(-0.447885 0.000332382 -6.66529e-21)
(-0.449683 -0.0139122 5.39154e-21)
(-0.253012 -0.493977 -6.6505e-21)
(-0.793397 -0.364954 -9.82145e-22)
(-0.261975 -0.481407 -1.07453e-20)
(-0.773654 -0.365152 1.82069e-21)
(-0.522127 -0.0582199 4.05835e-21)
(-0.701731 -0.435259 3.10861e-21)
(-0.247819 -0.392614 0)
(-0.230086 -0.257161 0)
(-0.594991 -0.525863 0)
(-0.615562 -0.107554 0)
(-0.436764 -0.217415 0)
(-0.446494 -0.371502 -1.69776e-20)
(-0.571231 -0.281862 6.79997e-21)
(-0.544572 -0.0738284 1.12633e-20)
(-0.673597 -0.455329 1.1609e-21)
(-0.245405 -0.35892 1.39479e-20)
(-0.246997 -0.344948 9.18365e-21)
(-0.554194 -0.0810089 -1.56603e-20)
(-0.661075 -0.462903 -1.60985e-21)
(-0.36613 -0.0173179 6.89765e-21)
(-0.314363 -0.5451 6.32348e-21)
(-0.789389 -0.26789 8.32183e-21)
(-0.341653 -0.123966 0)
(-0.686269 -0.225212 2.79455e-21)
(-0.419705 -0.505093 -1.4296e-20)
(-0.361995 -0.151567 0)
(-0.656629 -0.237997 1.27735e-20)
(-0.429422 -0.47354 -3.13637e-23)
(-0.520396 -0.100027 -1.41074e-20)
(-0.655068 -0.41792 1.44345e-21)
(-0.287416 -0.364985 -7.80747e-21)
(-0.531377 -0.0958868 0)
(-0.654587 -0.431211 1.35079e-21)
(-0.276255 -0.357399 7.26329e-21)
(-0.401862 -0.236705 0)
(-0.484156 -0.390708 -1.90791e-20)
(-0.568715 -0.242165 6.04102e-21)
(-0.382632 -0.13649 0)
(-0.662593 -0.262076 0)
(-0.404187 -0.462573 2.16963e-21)
(-0.155502 -0.350849 -1.48999e-20)
(-0.710352 -0.537373 -1.17061e-20)
(-0.593957 -0.0268032 0)
(-0.573807 0.0722538 7.69384e-21)
(-0.103882 -0.461083 0)
(-0.838273 -0.541351 2.07715e-21)
(-0.588488 0.0754978 3.63632e-23)
(-0.0826339 -0.448327 0)
(-0.83748 -0.556481 -5.75724e-21)
(-0.373702 -0.187383 4.59643e-21)
(-0.45663 -0.44074 -2.07082e-21)
(-0.619815 -0.236599 -9.55431e-23)
(-0.890713 -0.528455 1.75604e-22)
(-0.0940074 -0.484616 1.15714e-20)
(-0.556784 0.117751 0)
(-0.433001 -0.0540643 1.46991e-20)
(-0.306554 -0.47073 7.27119e-21)
(-0.735318 -0.335332 0)
(-0.0664324 -0.455237 -1.72711e-21)
(-0.863606 -0.560522 -2.74804e-21)
(-0.579973 0.111422 0)
(-0.496214 -0.224768 1.01819e-20)
(-0.42082 -0.314421 1.05922e-20)
(-0.538219 -0.331423 -6.38968e-24)
(-0.465684 -0.137479 -2.00569e-21)
(-0.637084 -0.342062 -1.55382e-21)
(-0.35721 -0.391854 -7.83663e-21)
(-0.544568 -0.471143 1.22684e-20)
(-0.598542 -0.159354 1.19275e-20)
(-0.301332 -0.246176 0)
(-0.125469 -0.407575 0)
(-0.77124 -0.535188 -2.12172e-21)
(-0.583023 0.0150568 0)
(-0.634841 -0.467436 0)
(-0.564099 -0.0980911 0)
(-0.256785 -0.3215 0)
(-0.26926 -0.541868 0)
(-0.39808 0.0207025 -6.22707e-21)
(-0.828947 -0.308316 3.51074e-21)
(-0.469175 -0.124849 0)
(-0.647009 -0.352715 7.77052e-22)
(-0.344472 -0.394587 7.65524e-21)
(-0.444216 -0.22515 0)
(-0.449977 -0.361231 1.45721e-20)
(-0.561269 -0.285398 0)
(-0.779383 -0.514149 -7.96235e-21)
(-0.565224 0.0191411 5.85459e-21)
(-0.144627 -0.422994 0)
(-0.262063 -0.433756 -8.07004e-21)
(-0.728685 -0.399599 3.01706e-22)
(-0.485416 -0.0437916 6.86284e-23)
(-0.459589 0.0760746 0)
(-0.466875 0.0923885 7.37562e-21)
(-0.197709 -0.531995 -4.28106e-21)
(-0.185244 -0.534385 -5.18291e-21)
(-0.882366 -0.394116 -2.11745e-21)
(-0.897966 -0.408917 1.74141e-21)
(-0.530585 -0.14794 0)
(-0.593392 -0.405852 2.07456e-20)
(-0.327577 -0.321507 8.63222e-21)
(-0.625993 -0.433706 1.44866e-20)
(-0.543742 -0.114481 0)
(-0.285592 -0.330439 -9.63349e-21)
(-0.503678 -0.196531 -8.60113e-21)
(-0.560367 -0.35324 5.57528e-21)
(-0.387857 -0.321491 1.29759e-20)
(-0.814561 -0.53615 4.83471e-21)
(-0.573687 0.0501703 7.99935e-21)
(-0.802909 -0.550104 -2.28336e-21)
(-0.113911 -0.4463 0)
(-0.586901 0.0432747 -7.73478e-21)
(-0.101527 -0.431863 0)
(-0.477274 -0.0962726 0)
(-0.675752 -0.371754 0)
(-0.313667 -0.406694 8.66297e-21)
(-0.552256 0.0296031 1.08018e-20)
(-0.558137 0.0441824 -2.0261e-20)
(-0.796914 -0.502955 3.19407e-21)
(-0.814418 -0.514152 -8.27208e-21)
(-0.145578 -0.441628 1.22398e-20)
(-0.132462 -0.453216 -7.27476e-23)
(-0.553671 -0.121478 0)
(-0.61175 -0.442592 -1.34944e-20)
(-0.290414 -0.314693 1.24549e-20)
(-0.500374 -0.15522 8.45488e-21)
(-0.613548 -0.363631 -9.36501e-21)
(-0.349213 -0.360887 0)
(-0.411899 0.0509586 0)
(-0.242107 -0.545697 0)
(-0.86052 -0.331384 3.44442e-21)
(-0.518016 -0.143204 6.23921e-21)
(-0.603623 -0.39315 -5.77919e-21)
(-0.330601 -0.335274 -1.421e-20)
(-0.501319 -0.18084 3.57405e-21)
(-0.575545 -0.360598 -6.5445e-21)
(-0.374228 -0.331589 7.65576e-21)
(-0.441472 0.072997 0)
(-0.211593 -0.541247 0)
(-0.882885 -0.373597 -4.62101e-21)
(-0.453663 -0.116755 0)
(-0.662049 -0.338846 1.64599e-21)
(-0.343391 -0.412721 -8.49996e-21)
(-0.565986 -0.524756 0)
(-0.627357 -0.125412 0)
(-0.247315 -0.232846 -5.05978e-22)
(-0.326359 -0.150902 -5.40079e-22)
(-0.665118 -0.206059 0)
(-0.450404 -0.503699 1.4837e-20)
(-0.650995 -0.528121 5.98418e-21)
(-0.195344 -0.298671 0)
(-0.600838 -0.0693892 0)
(-0.0366721 -0.303726 -1.552e-20)
(-0.704706 -0.381151 2.68891e-22)
(-0.420581 0.160067 -6.98844e-21)
(-0.493859 -0.134921 0)
(-0.62372 -0.371764 5.72993e-21)
(-0.337158 -0.36494 -7.14195e-21)
(-0.433379 0.0286381 1.14112e-20)
(-0.242636 -0.520111 2.21951e-20)
(-0.830493 -0.350959 0)
(-0.482634 -0.528825 -3.87716e-21)
(-0.665244 -0.173709 -6.73191e-21)
(-0.28926 -0.163701 -4.70938e-21)
(-0.446128 0.189628 0)
(-0.123737 -0.494258 -5.88568e-21)
(-0.940652 -0.404033 0)
(-0.361822 -0.263273 8.47042e-21)
(-0.349047 -0.255161 -8.66724e-21)
(-0.525506 -0.408323 0)
(-0.561621 -0.199341 7.21344e-21)
(-0.52653 -0.4248 -1.18562e-20)
(-0.573718 -0.192506 -5.7997e-21)
(-0.516383 -0.201115 8.09092e-21)
(-0.548893 -0.362243 7.44351e-21)
(-0.387148 -0.306339 0)
(-0.372196 -0.237243 7.57342e-21)
(-0.374929 -0.250434 0)
(-0.500213 -0.414919 -6.71093e-21)
(-0.579406 -0.2166 6.37977e-21)
(-0.509344 -0.403517 6.76393e-21)
(-0.566868 -0.214309 7.42511e-24)
(-0.49123 -0.144511 5.43521e-22)
(-0.598823 -0.369377 -4.08934e-21)
(-0.354165 -0.345039 -9.44288e-21)
(-0.510257 -0.156763 -1.45866e-20)
(-0.595582 -0.380105 1.07662e-22)
(-0.348395 -0.335741 0)
(-0.0805365 -0.431427 0)
(-0.811841 -0.567804 0)
(-0.59778 0.056667 8.65146e-21)
(-0.384018 -0.178434 -4.24281e-21)
(-0.624899 -0.24794 0)
(-0.442378 -0.437864 3.87858e-21)
(-0.534357 0.0233425 -1.89073e-20)
(-0.793142 -0.479889 3.92424e-21)
(-0.168472 -0.44912 -6.99485e-21)
(-0.508245 -0.0889691 0)
(-0.510568 -0.0773803 8.29314e-21)
(-0.67119 -0.407282 -1.79968e-21)
(-0.684026 -0.413759 5.63404e-21)
(-0.285507 -0.381778 -9.65301e-21)
(-0.274173 -0.388432 -9.01582e-21)
(-0.397863 -0.185732 0)
(-0.613675 -0.259601 0)
(-0.44054 -0.422019 1.83242e-21)
(-0.369239 -0.12088 5.33482e-21)
(-0.682839 -0.251854 0)
(-0.400506 -0.485024 4.8152e-21)
(-0.49829 -0.107848 -4.08133e-21)
(-0.652662 -0.389068 0)
(-0.309888 -0.377704 0)
(-0.447466 -0.250488 8.07586e-21)
(-0.537056 -0.277493 -3.64535e-21)
(-0.468683 -0.34401 3.87358e-21)
(-0.532707 -0.079618 0)
(-0.672131 -0.438545 0)
(-0.260914 -0.366125 -1.47998e-20)
(-0.421623 -0.222118 0)
(-0.459044 -0.381328 2.13875e-21)
(-0.572857 -0.265861 0)
(-0.535131 -0.122537 -8.73109e-21)
(-0.621513 -0.42334 -7.55861e-21)
(-0.300759 -0.336263 -1.23796e-21)
(-0.382247 -0.124819 5.42645e-21)
(-0.67551 -0.26501 0)
(-0.394377 -0.470442 9.99503e-21)
(-0.438188 -0.241047 -7.99935e-21)
(-0.4258 -0.245117 -3.63226e-21)
(-0.548793 -0.273592 3.65494e-21)
(-0.466603 -0.356524 -7.72522e-21)
(-0.551034 -0.261554 0)
(-0.476107 -0.364895 -1.35996e-20)
(-0.396495 -0.249054 -3.67286e-21)
(-0.494975 -0.38778 8.90218e-21)
(-0.386648 -0.25531 2.36826e-21)
(-0.559451 -0.233596 -8.58174e-21)
(-0.508317 -0.395324 -4.23525e-21)
(-0.560921 -0.222408 4.73024e-23)
(-0.40625 -0.16171 4.62521e-21)
(-0.418571 -0.152903 0)
(-0.631744 -0.27537 7.34175e-21)
(-0.637306 -0.28913 -5.7362e-21)
(-0.414602 -0.426288 -8.81469e-21)
(-0.400551 -0.422169 1.46856e-20)
(-0.30207 -0.496019 0)
(-0.758785 -0.317512 -2.89916e-21)
(-0.413889 -0.0358336 -9.12116e-21)
(-0.260745 -0.227466 6.12515e-21)
(-0.626695 -0.136201 8.12392e-21)
(-0.554322 -0.517442 -1.27764e-20)
(-0.287002 -0.497728 -7.4652e-21)
(-0.279302 -0.484349 6.04011e-21)
(-0.769799 -0.331429 2.50684e-21)
(-0.762893 -0.349005 4.28466e-21)
(-0.422643 -0.0219603 2.34879e-20)
(-0.437767 -0.0260055 -1.22496e-20)
(-0.301254 -0.198176 8.48162e-21)
(-0.50703 -0.498314 -6.1591e-21)
(-0.634779 -0.17298 1.63269e-21)
(-0.470941 -0.264295 1.33162e-20)
(-0.46971 -0.31703 0)
(-0.515416 -0.290643 -1.28478e-20)
(-0.522905 -0.0710769 -4.02357e-21)
(-0.685518 -0.430589 -6.36387e-21)