/*--------------------------------*- C++ -*----------------------------------*\
  =========                 |
  \\      /  F ield         | OpenFOAM: The Open Source CFD Toolbox
   \\    /   O peration     | Website:  https://openfoam.org
    \\  /    A nd           | Version:  6
     \\/     M anipulation  |
\*---------------------------------------------------------------------------*/
FoamFile
{
    version     2.0;
    format      ascii;
    class       volVectorField;
    location    "0";
    object      U_rec;
}
// * * * * * * * * * * * * * * * * * * * * * * * * * * * * * * * * * * * * * //

dimensions      [0 1 -1 0 0 0 0];

internalField   nonuniform List<vector> 
40000
(
(5.0725e-07 -5.07277e-07 0)
(2.29655e-06 -7.24992e-07 0)
(4.04093e-06 -5.88988e-07 0)
(4.9956e-06 -2.63293e-07 0)
(4.6e-06 1.38412e-07 0)
(2.6272e-06 5.67497e-07 0)
(-9.95386e-07 9.9594e-07 0)
(-6.25626e-06 1.40755e-06 0)
(-1.30912e-05 1.79347e-06 0)
(-2.1405e-05 2.14924e-06 0)
(-3.10854e-05 2.47306e-06 0)
(-4.2014e-05 2.76488e-06 0)
(-5.40709e-05 3.02573e-06 0)
(-6.71399e-05 3.25733e-06 0)
(-8.11105e-05 3.46175e-06 0)
(-9.5881e-05 3.64127e-06 0)
(-0.000111354 3.79814e-06 0)
(-0.000127446 3.93454e-06 0)
(-0.000144076 4.05256e-06 0)
(-0.000161174 4.15414e-06 0)
(-0.000178676 4.24108e-06 0)
(-0.000196524 4.31499e-06 0)
(-0.000214669 4.37735e-06 0)
(-0.000233064 4.4295e-06 0)
(-0.00025167 4.47262e-06 0)
(-0.000270449 4.50779e-06 0)
(-0.000289372 4.53593e-06 0)
(-0.000308409 4.55789e-06 0)
(-0.000327536 4.57439e-06 0)
(-0.000346731 4.5861e-06 0)
(-0.000365974 4.59357e-06 0)
(-0.000385249 4.5973e-06 0)
(-0.000404537 4.59771e-06 0)
(-0.000423828 4.59518e-06 0)
(-0.000443109 4.59001e-06 0)
(-0.000462368 4.58248e-06 0)
(-0.000481595 4.57282e-06 0)
(-0.000500782 4.56123e-06 0)
(-0.00051992 4.54785e-06 0)
(-0.000539002 4.53283e-06 0)
(-0.000558018 4.51627e-06 0)
(-0.000576966 4.49827e-06 0)
(-0.000595837 4.4789e-06 0)
(-0.000614623 4.45823e-06 0)
(-0.000633323 4.43627e-06 0)
(-0.000651927 4.41307e-06 0)
(-0.000670432 4.38864e-06 0)
(-0.000688831 4.36301e-06 0)
(-0.000707119 4.33616e-06 0)
(-0.000725291 4.30807e-06 0)
(-0.000743341 4.27876e-06 0)
(-0.000761265 4.24819e-06 0)
(-0.000779055 4.21634e-06 0)
(-0.000796706 4.18316e-06 0)
(-0.000814213 4.14864e-06 0)
(-0.00083157 4.11271e-06 0)
(-0.00084877 4.07533e-06 0)
(-0.000865807 4.03645e-06 0)
(-0.000882674 3.99602e-06 0)
(-0.000899365 3.95397e-06 0)
(-0.000915873 3.91025e-06 0)
(-0.000932189 3.86479e-06 0)
(-0.000948307 3.8175e-06 0)
(-0.000964218 3.76835e-06 0)
(-0.000979916 3.71725e-06 0)
(-0.000995391 3.6641e-06 0)
(-0.00101063 3.60889e-06 0)
(-0.00102564 3.55149e-06 0)
(-0.00104039 3.49184e-06 0)
(-0.00105489 3.42992e-06 0)
(-0.00106911 3.36559e-06 0)
(-0.00108306 3.29881e-06 0)
(-0.00109672 3.22951e-06 0)
(-0.00111008 3.15764e-06 0)
(-0.00112312 3.08317e-06 0)
(-0.00113585 3.006e-06 0)
(-0.00114824 2.92606e-06 0)
(-0.00116029 2.84337e-06 0)
(-0.00117199 2.7578e-06 0)
(-0.00118331 2.66937e-06 0)
(-0.00119426 2.57805e-06 0)
(-0.00120482 2.4838e-06 0)
(-0.00121497 2.38661e-06 0)
(-0.00122471 2.28643e-06 0)
(-0.00123402 2.1833e-06 0)
(-0.00124289 2.07717e-06 0)
(-0.00125131 1.9681e-06 0)
(-0.00125927 1.85603e-06 0)
(-0.00126675 1.74099e-06 0)
(-0.00127375 1.62301e-06 0)
(-0.00128025 1.50214e-06 0)
(-0.00128623 1.37839e-06 0)
(-0.00129169 1.25182e-06 0)
(-0.00129662 1.12246e-06 0)
(-0.001301 9.90362e-07 0)
(-0.00130483 8.55605e-07 0)
(-0.00130808 7.18254e-07 0)
(-0.00131077 5.78376e-07 0)
(-0.00131286 4.36067e-07 0)
(-0.00131435 2.91411e-07 0)
(-0.00131525 1.44519e-07 0)
(-0.00131553 -4.52096e-09 0)
(-0.00131518 -1.55583e-07 0)
(-0.0013142 -3.0854e-07 0)
(-0.00131258 -4.63261e-07 0)
(-0.00131033 -6.19629e-07 0)
(-0.00130741 -7.77466e-07 0)
(-0.00130384 -9.36635e-07 0)
(-0.00129961 -1.09698e-06 0)
(-0.00129471 -1.2583e-06 0)
(-0.00128915 -1.42046e-06 0)
(-0.00128291 -1.58323e-06 0)
(-0.00127599 -1.74643e-06 0)
(-0.0012684 -1.90986e-06 0)
(-0.00126014 -2.0733e-06 0)
(-0.00125119 -2.23653e-06 0)
(-0.00124157 -2.39932e-06 0)
(-0.00123128 -2.56146e-06 0)
(-0.00122033 -2.72267e-06 0)
(-0.0012087 -2.88266e-06 0)
(-0.00119642 -3.04127e-06 0)
(-0.00118348 -3.19824e-06 0)
(-0.0011699 -3.35326e-06 0)
(-0.00115568 -3.50601e-06 0)
(-0.00114084 -3.65627e-06 0)
(-0.00112538 -3.80376e-06 0)
(-0.00110931 -3.9482e-06 0)
(-0.00109265 -4.08917e-06 0)
(-0.00107541 -4.22664e-06 0)
(-0.00105762 -4.36025e-06 0)
(-0.00103928 -4.48962e-06 0)
(-0.0010204 -4.61441e-06 0)
(-0.00100102 -4.73467e-06 0)
(-0.000981155 -4.84972e-06 0)
(-0.000960815 -4.95967e-06 0)
(-0.00094003 -5.06407e-06 0)
(-0.000918821 -5.16271e-06 0)
(-0.000897211 -5.25535e-06 0)
(-0.000875225 -5.34179e-06 0)
(-0.000852891 -5.42189e-06 0)
(-0.000830231 -5.49527e-06 0)
(-0.000807276 -5.56188e-06 0)
(-0.000784052 -5.62156e-06 0)
(-0.00076059 -5.67414e-06 0)
(-0.000736917 -5.71941e-06 0)
(-0.000713063 -5.75731e-06 0)
(-0.000689059 -5.78773e-06 0)
(-0.000664937 -5.81057e-06 0)
(-0.00064073 -5.82571e-06 0)
(-0.000616461 -5.83313e-06 0)
(-0.000592163 -5.83276e-06 0)
(-0.000567883 -5.82454e-06 0)
(-0.000543639 -5.80847e-06 0)
(-0.000519461 -5.7845e-06 0)
(-0.000495393 -5.75261e-06 0)
(-0.000471471 -5.71283e-06 0)
(-0.000447704 -5.66515e-06 0)
(-0.000424147 -5.60956e-06 0)
(-0.000400821 -5.54609e-06 0)
(-0.000377765 -5.47475e-06 0)
(-0.000355014 -5.39555e-06 0)
(-0.000332591 -5.3085e-06 0)
(-0.000310538 -5.21363e-06 0)
(-0.00028888 -5.11095e-06 0)
(-0.000267655 -5.00045e-06 0)
(-0.000246893 -4.88215e-06 0)
(-0.000226628 -4.75605e-06 0)
(-0.000206893 -4.62215e-06 0)
(-0.00018772 -4.48045e-06 0)
(-0.000169142 -4.33092e-06 0)
(-0.000151192 -4.17357e-06 0)
(-0.000133902 -4.00837e-06 0)
(-0.000117306 -3.83532e-06 0)
(-0.000101437 -3.6544e-06 0)
(-8.63269e-05 -3.46563e-06 0)
(-7.20097e-05 -3.269e-06 0)
(-5.85185e-05 -3.06455e-06 0)
(-4.58839e-05 -2.85232e-06 0)
(-3.41396e-05 -2.63241e-06 0)
(-2.33171e-05 -2.40491e-06 0)
(-1.34466e-05 -2.17004e-06 0)
(-4.55782e-06 -1.92802e-06 0)
(3.32069e-06 -1.67924e-06 0)
(1.0164e-05 -1.42418e-06 0)
(1.59485e-05 -1.16354e-06 0)
(2.06538e-05 -8.9827e-07 0)
(2.42672e-05 -6.29703e-07 0)
(2.67818e-05 -3.59664e-07 0)
(2.81991e-05 -9.07268e-08 0)
(2.8535e-05 1.73535e-07 0)
(2.78246e-05 4.28146e-07 0)
(2.61238e-05 6.66203e-07 0)
(2.35242e-05 8.78169e-07 0)
(2.01594e-05 1.05113e-06 0)
(1.62199e-05 1.16768e-06 0)
(1.19678e-05 1.20501e-06 0)
(7.74927e-06 1.13477e-06 0)
(4.01455e-06 9.22568e-07 0)
(1.34175e-06 5.24887e-07 0)
(6.01994e-08 6.00627e-08 0)
(7.26933e-07 -2.29835e-06 0)
(3.4217e-06 -3.41578e-06 0)
(5.25876e-06 -2.25222e-06 0)
(4.80236e-06 2.24147e-07 0)
(9.34268e-07 3.38901e-06 0)
(-6.89785e-06 6.86355e-06 0)
(-1.89282e-05 1.04148e-05 0)
(-3.51884e-05 1.38974e-05 0)
(-5.55743e-05 1.72214e-05 0)
(-7.98899e-05 2.03333e-05 0)
(-0.000107884 2.32048e-05 0)
(-0.000139278 2.58246e-05 0)
(-0.000173779 2.81933e-05 0)
(-0.000211096 3.03191e-05 0)
(-0.000250948 3.22147e-05 0)
(-0.000293064 3.38955e-05 0)
(-0.000337195 3.53782e-05 0)
(-0.000383108 3.66797e-05 0)
(-0.000430589 3.78162e-05 0)
(-0.000479442 3.8804e-05 0)
(-0.000529492 3.96578e-05 0)
(-0.000580579 4.03914e-05 0)
(-0.00063256 4.10175e-05 0)
(-0.000685303 4.15476e-05 0)
(-0.000738696 4.19923e-05 0)
(-0.000792633 4.23609e-05 0)
(-0.000847021 4.26619e-05 0)
(-0.00090178 4.2903e-05 0)
(-0.000956834 4.30907e-05 0)
(-0.00101212 4.32312e-05 0)
(-0.00106758 4.33296e-05 0)
(-0.00112316 4.33905e-05 0)
(-0.00117881 4.34179e-05 0)
(-0.00123449 4.34153e-05 0)
(-0.00129017 4.33858e-05 0)
(-0.0013458 4.33319e-05 0)
(-0.00140136 4.32559e-05 0)
(-0.00145682 4.31596e-05 0)
(-0.00151215 4.30448e-05 0)
(-0.00156733 4.29126e-05 0)
(-0.00162234 4.27643e-05 0)
(-0.00167715 4.26007e-05 0)
(-0.00173175 4.24225e-05 0)
(-0.00178611 4.22305e-05 0)
(-0.00184022 4.20249e-05 0)
(-0.00189405 4.18063e-05 0)
(-0.0019476 4.15748e-05 0)
(-0.00200085 4.13305e-05 0)
(-0.00205376 4.10736e-05 0)
(-0.00210633 4.08038e-05 0)
(-0.00215855 4.05215e-05 0)
(-0.0022104 4.02261e-05 0)
(-0.00226185 3.99177e-05 0)
(-0.00231288 3.95958e-05 0)
(-0.00236349 3.92603e-05 0)
(-0.00241366 3.89108e-05 0)
(-0.00246335 3.85467e-05 0)
(-0.00251257 3.81678e-05 0)
(-0.00256127 3.77736e-05 0)
(-0.00260946 3.73638e-05 0)
(-0.0026571 3.69374e-05 0)
(-0.00270416 3.64941e-05 0)
(-0.00275064 3.60335e-05 0)
(-0.00279651 3.55547e-05 0)
(-0.00284173 3.50573e-05 0)
(-0.0028863 3.45408e-05 0)
(-0.00293018 3.40041e-05 0)
(-0.00297335 3.34473e-05 0)
(-0.00301577 3.28695e-05 0)
(-0.00305744 3.22699e-05 0)
(-0.00309831 3.16483e-05 0)
(-0.00313836 3.10039e-05 0)
(-0.00317755 3.03361e-05 0)
(-0.00321586 2.96449e-05 0)
(-0.00325326 2.89292e-05 0)
(-0.00328973 2.81889e-05 0)
(-0.00332521 2.74232e-05 0)
(-0.00335968 2.66321e-05 0)
(-0.00339313 2.58156e-05 0)
(-0.0034255 2.49725e-05 0)
(-0.00345675 2.41032e-05 0)
(-0.00348689 2.32075e-05 0)
(-0.00351584 2.22849e-05 0)
(-0.0035436 2.13356e-05 0)
(-0.00357011 2.03596e-05 0)
(-0.00359536 1.93568e-05 0)
(-0.0036193 1.8327e-05 0)
(-0.00364191 1.72706e-05 0)
(-0.00366314 1.61877e-05 0)
(-0.00368297 1.50786e-05 0)
(-0.00370136 1.39435e-05 0)
(-0.0037183 1.27827e-05 0)
(-0.00373373 1.15967e-05 0)
(-0.00374763 1.03859e-05 0)
(-0.00375996 9.15092e-06 0)
(-0.00377071 7.89217e-06 0)
(-0.00377984 6.61043e-06 0)
(-0.00378733 5.30637e-06 0)
(-0.00379313 3.98069e-06 0)
(-0.00379723 2.63441e-06 0)
(-0.00379963 1.26821e-06 0)
(-0.00380027 -1.16742e-07 0)
(-0.00379913 -1.51945e-06 0)
(-0.00379621 -2.93889e-06 0)
(-0.00379147 -4.37376e-06 0)
(-0.00378489 -5.82291e-06 0)
(-0.00377648 -7.28499e-06 0)
(-0.00376621 -8.75854e-06 0)
(-0.00375406 -1.02423e-05 0)
(-0.00374002 -1.17344e-05 0)
(-0.00372409 -1.32334e-05 0)
(-0.00370626 -1.47377e-05 0)
(-0.00368653 -1.62454e-05 0)
(-0.00366487 -1.77548e-05 0)
(-0.00364131 -1.92639e-05 0)
(-0.00361584 -2.07707e-05 0)
(-0.00358848 -2.22734e-05 0)
(-0.00355921 -2.37694e-05 0)
(-0.00352805 -2.52568e-05 0)
(-0.00349502 -2.67338e-05 0)
(-0.00346014 -2.81976e-05 0)
(-0.0034234 -2.96461e-05 0)
(-0.00338485 -3.1076e-05 0)
(-0.0033445 -3.24871e-05 0)
(-0.00330238 -3.38746e-05 0)
(-0.00325853 -3.52374e-05 0)
(-0.00321296 -3.65725e-05 0)
(-0.00316572 -3.7877e-05 0)
(-0.00311685 -3.91499e-05 0)
(-0.0030664 -4.03867e-05 0)
(-0.00301439 -4.15863e-05 0)
(-0.00296089 -4.27456e-05 0)
(-0.00290595 -4.38638e-05 0)
(-0.00284962 -4.49354e-05 0)
(-0.00279195 -4.59608e-05 0)
(-0.00273301 -4.69371e-05 0)
(-0.00267287 -4.78614e-05 0)
(-0.00261157 -4.87321e-05 0)
(-0.00254919 -4.95472e-05 0)
(-0.00248582 -5.03046e-05 0)
(-0.0024215 -5.10029e-05 0)
(-0.00235634 -5.16402e-05 0)
(-0.00229038 -5.22148e-05 0)
(-0.00222373 -5.27253e-05 0)
(-0.00215646 -5.31702e-05 0)
(-0.00208864 -5.35488e-05 0)
(-0.00202037 -5.38593e-05 0)
(-0.00195173 -5.41012e-05 0)
(-0.00188281 -5.42738e-05 0)
(-0.00181369 -5.4376e-05 0)
(-0.00174446 -5.44074e-05 0)
(-0.00167522 -5.43673e-05 0)
(-0.00160605 -5.42551e-05 0)
(-0.00153704 -5.40708e-05 0)
(-0.00146828 -5.38139e-05 0)
(-0.00139987 -5.34844e-05 0)
(-0.0013319 -5.30819e-05 0)
(-0.00126446 -5.26066e-05 0)
(-0.00119765 -5.20579e-05 0)
(-0.00113154 -5.14364e-05 0)
(-0.00106624 -5.07417e-05 0)
(-0.00100185 -4.99738e-05 0)
(-0.000938454 -4.91327e-05 0)
(-0.000876135 -4.82183e-05 0)
(-0.000815008 -4.72308e-05 0)
(-0.000755141 -4.61699e-05 0)
(-0.000696656 -4.50356e-05 0)
(-0.000639628 -4.38276e-05 0)
(-0.000584154 -4.2546e-05 0)
(-0.000530338 -4.11907e-05 0)
(-0.000478264 -3.97614e-05 0)
(-0.000428027 -3.8258e-05 0)
(-0.000379718 -3.66807e-05 0)
(-0.000333447 -3.50293e-05 0)
(-0.0002893 -3.33042e-05 0)
(-0.000247363 -3.15053e-05 0)
(-0.000207744 -2.96337e-05 0)
(-0.000170523 -2.76898e-05 0)
(-0.000135797 -2.56752e-05 0)
(-0.000103641 -2.35912e-05 0)
(-7.41602e-05 -2.14407e-05 0)
(-4.74226e-05 -1.92266e-05 0)
(-2.35097e-05 -1.69537e-05 0)
(-2.47855e-06 -1.46277e-05 0)
(1.56024e-05 -1.22564e-05 0)
(3.06907e-05 -9.85059e-06 0)
(4.27562e-05 -7.42436e-06 0)
(5.17932e-05 -4.99653e-06 0)
(5.78233e-05 -2.59275e-06 0)
(6.09035e-05 -2.47184e-07 0)
(6.11458e-05 1.99433e-06 0)
(5.8722e-05 4.07105e-06 0)
(5.3887e-05 5.90263e-06 0)
(4.70032e-05 7.38587e-06 0)
(3.85588e-05 8.39122e-06 0)
(2.9193e-05 8.76312e-06 0)
(1.97025e-05 8.32672e-06 0)
(1.10523e-05 6.9091e-06 0)
(4.42474e-06 4.43255e-06 0)
(5.23172e-07 1.33968e-06 0)
(5.93792e-07 -4.05092e-06 0)
(2.26648e-06 -5.25634e-06 0)
(1.8043e-06 -1.79219e-06 0)
(-2.48636e-06 4.43265e-06 0)
(-1.19136e-05 1.22073e-05 0)
(-2.72028e-05 2.07486e-05 0)
(-4.87055e-05 2.95376e-05 0)
(-7.65073e-05 3.82286e-05 0)
(-0.000110501 4.65931e-05 0)
(-0.000150444 5.44865e-05 0)
(-0.000196007 6.18246e-05 0)
(-0.000246803 6.8567e-05 0)
(-0.000302421 7.47033e-05 0)
(-0.00036244 8.02446e-05 0)
(-0.000426451 8.52153e-05 0)
(-0.000494052 8.96478e-05 0)
(-0.000564869 9.35794e-05 0)
(-0.000638547 9.70491e-05 0)
(-0.000714761 0.000100096 0)
(-0.000793208 0.000102758 0)
(-0.000873613 0.000105072 0)
(-0.000955728 0.000107072 0)
(-0.00103932 0.000108789 0)
(-0.0011242 0.000110253 0)
(-0.00121016 0.00011149 0)
(-0.00129705 0.000112523 0)
(-0.00138471 0.000113376 0)
(-0.00147302 0.000114067 0)
(-0.00156184 0.000114614 0)
(-0.00165108 0.000115032 0)
(-0.00174064 0.000115336 0)
(-0.00183042 0.000115536 0)
(-0.00192036 0.000115644 0)
(-0.00201037 0.000115669 0)
(-0.0021004 0.000115619 0)
(-0.00219039 0.000115501 0)
(-0.00228028 0.000115321 0)
(-0.00237003 0.000115085 0)
(-0.00245959 0.000114795 0)
(-0.00254892 0.000114457 0)
(-0.00263798 0.000114073 0)
(-0.00272672 0.000113646 0)
(-0.00281513 0.000113178 0)
(-0.00290316 0.00011267 0)
(-0.00299078 0.000112124 0)
(-0.00307796 0.000111541 0)
(-0.00316468 0.000110921 0)
(-0.00325089 0.000110266 0)
(-0.00333657 0.000109574 0)
(-0.00342169 0.000108848 0)
(-0.00350623 0.000108085 0)
(-0.00359014 0.000107286 0)
(-0.00367341 0.000106451 0)
(-0.003756 0.000105578 0)
(-0.00383788 0.000104668 0)
(-0.00391902 0.000103719 0)
(-0.00399938 0.00010273 0)
(-0.00407895 0.0001017 0)
(-0.00415767 0.000100629 0)
(-0.00423553 9.95145e-05 0)
(-0.00431248 9.83551e-05 0)
(-0.00438849 9.71509e-05 0)
(-0.00446352 9.58995e-05 0)
(-0.00453753 9.45985e-05 0)
(-0.00461049 9.32486e-05 0)
(-0.00468236 9.18472e-05 0)
(-0.00475309 9.03926e-05 0)
(-0.00482264 8.88842e-05 0)
(-0.00489097 8.73192e-05 0)
(-0.00495805 8.56972e-05 0)
(-0.00502381 8.40161e-05 0)
(-0.00508821 8.22757e-05 0)
(-0.00515122 8.04746e-05 0)
(-0.00521278 7.86098e-05 0)
(-0.00527284 7.66811e-05 0)
(-0.00533136 7.46881e-05 0)
(-0.00538829 7.26312e-05 0)
(-0.00544356 7.05055e-05 0)
(-0.00549715 6.83136e-05 0)
(-0.00554899 6.60537e-05 0)
(-0.00559903 6.37244e-05 0)
(-0.00564722 6.13282e-05 0)
(-0.00569348 5.88612e-05 0)
(-0.00573782 5.63254e-05 0)
(-0.00578016 5.37202e-05 0)
(-0.00582042 5.10462e-05 0)
(-0.00585857 4.83018e-05 0)
(-0.00589459 4.54897e-05 0)
(-0.00592837 4.26092e-05 0)
(-0.00595989 3.96608e-05 0)
(-0.00598906 3.6646e-05 0)
(-0.00601592 3.35654e-05 0)
(-0.00604036 3.042e-05 0)
(-0.00606232 2.72106e-05 0)
(-0.00608179 2.39396e-05 0)
(-0.00609869 2.06078e-05 0)
(-0.00611302 1.72173e-05 0)
(-0.0061247 1.37695e-05 0)
(-0.00613371 1.0267e-05 0)
(-0.00613998 6.71177e-06 0)
(-0.00614349 3.10627e-06 0)
(-0.00614422 -5.47103e-07 0)
(-0.00614215 -4.24569e-06 0)
(-0.00613719 -7.98644e-06 0)
(-0.00612935 -1.17664e-05 0)
(-0.00611857 -1.55828e-05 0)
(-0.00610488 -1.94308e-05 0)
(-0.00608823 -2.33082e-05 0)
(-0.00606858 -2.72104e-05 0)
(-0.00604592 -3.11335e-05 0)
(-0.00602026 -3.50742e-05 0)
(-0.00599158 -3.90266e-05 0)
(-0.00595989 -4.29875e-05 0)
(-0.00592515 -4.69518e-05 0)
(-0.00588736 -5.09148e-05 0)
(-0.00584657 -5.48706e-05 0)
(-0.00580275 -5.88152e-05 0)
(-0.00575592 -6.27417e-05 0)
(-0.00570609 -6.66455e-05 0)
(-0.00565328 -7.05201e-05 0)
(-0.00559753 -7.4362e-05 0)
(-0.00553887 -7.81621e-05 0)
(-0.00547729 -8.19161e-05 0)
(-0.0054129 -8.56178e-05 0)
(-0.0053457 -8.92597e-05 0)
(-0.00527573 -9.28378e-05 0)
(-0.00520304 -9.63425e-05 0)
(-0.00512771 -9.97708e-05 0)
(-0.00504978 -0.000103113 0)
(-0.00496933 -0.000106365 0)
(-0.00488643 -0.000109521 0)
(-0.00480116 -0.000112573 0)
(-0.00471358 -0.000115514 0)
(-0.00462378 -0.000118341 0)
(-0.00453186 -0.000121046 0)
(-0.00443791 -0.000123623 0)
(-0.00434203 -0.000126068 0)
(-0.00424431 -0.000128374 0)
(-0.00414487 -0.000130537 0)
(-0.0040438 -0.00013255 0)
(-0.00394124 -0.00013441 0)
(-0.00383729 -0.000136113 0)
(-0.00373206 -0.000137654 0)
(-0.00362569 -0.000139029 0)
(-0.0035183 -0.000140235 0)
(-0.00341004 -0.000141268 0)
(-0.00330101 -0.000142126 0)
(-0.00319134 -0.000142806 0)
(-0.00308119 -0.000143304 0)
(-0.00297069 -0.000143621 0)
(-0.00285997 -0.000143752 0)
(-0.00274918 -0.000143698 0)
(-0.00263846 -0.000143456 0)
(-0.00252795 -0.000143025 0)
(-0.00241778 -0.000142404 0)
(-0.00230813 -0.000141593 0)
(-0.00219912 -0.000140591 0)
(-0.0020909 -0.000139397 0)
(-0.00198362 -0.000138011 0)
(-0.00187743 -0.000136432 0)
(-0.00177246 -0.000134661 0)
(-0.00166889 -0.000132696 0)
(-0.00156684 -0.000130538 0)
(-0.00146647 -0.000128186 0)
(-0.00136793 -0.000125641 0)
(-0.00127137 -0.000122901 0)
(-0.00117695 -0.000119966 0)
(-0.0010848 -0.000116835 0)
(-0.000995089 -0.00011351 0)
(-0.000907958 -0.000109989 0)
(-0.000823561 -0.000106271 0)
(-0.000742051 -0.000102357 0)
(-0.000663589 -9.82467e-05 0)
(-0.000588307 -9.39402e-05 0)
(-0.000516372 -8.9439e-05 0)
(-0.000447921 -8.47435e-05 0)
(-0.00038312 -7.98562e-05 0)
(-0.000322094 -7.478e-05 0)
(-0.000264997 -6.95181e-05 0)
(-0.000211964 -6.4078e-05 0)
(-0.000163138 -5.84656e-05 0)
(-0.000118617 -5.26912e-05 0)
(-7.85393e-05 -4.6768e-05 0)
(-4.30005e-05 -4.07136e-05 0)
(-1.20788e-05 -3.45518e-05 0)
(1.41698e-05 -2.831e-05 0)
(3.56871e-05 -2.20304e-05 0)
(5.25017e-05 -1.57634e-05 0)
(6.46443e-05 -9.57701e-06 0)
(7.22252e-05 -3.56137e-06 0)
(7.54288e-05 2.16965e-06 0)
(7.45298e-05 7.4628e-06 0)
(6.99225e-05 1.21265e-05 0)
(6.21448e-05 1.59218e-05 0)
(5.19005e-05 1.85614e-05 0)
(4.00788e-05 1.97149e-05 0)
(2.77473e-05 1.90348e-05 0)
(1.61587e-05 1.62006e-05 0)
(6.87686e-06 1.10506e-05 0)
(9.16147e-07 4.00026e-06 0)
(2.69414e-07 -5.0166e-06 0)
(-2.20058e-07 -4.79629e-06 0)
(-4.46343e-06 2.51104e-06 0)
(-1.41987e-05 1.41371e-05 0)
(-3.0677e-05 2.82981e-05 0)
(-5.466e-05 4.37842e-05 0)
(-8.65422e-05 5.9752e-05 0)
(-0.000126431 7.56112e-05 0)
(-0.000174219 9.09551e-05 0)
(-0.000229636 0.000105514 0)
(-0.000292297 0.00011912 0)
(-0.000361749 0.000131687 0)
(-0.000437495 0.000143183 0)
(-0.000519025 0.000153613 0)
(-0.000605826 0.000163013 0)
(-0.000697401 0.000171432 0)
(-0.000793274 0.000178933 0)
(-0.000892994 0.000185581 0)
(-0.000996139 0.000191444 0)
(-0.00110232 0.000196588 0)
(-0.00121118 0.00020108 0)
(-0.00132238 0.000204979 0)
(-0.00143564 0.000208342 0)
(-0.00155067 0.000211224 0)
(-0.00166722 0.000213672 0)
(-0.00178508 0.000215731 0)
(-0.00190404 0.000217442 0)
(-0.00202392 0.00021884 0)
(-0.00214456 0.000219959 0)
(-0.0022658 0.000220827 0)
(-0.0023875 0.00022147 0)
(-0.00250957 0.000221911 0)
(-0.00263187 0.00022217 0)
(-0.00275431 0.000222266 0)
(-0.00287681 0.000222212 0)
(-0.00299928 0.000222024 0)
(-0.00312164 0.000221711 0)
(-0.00324382 0.000221285 0)
(-0.00336577 0.000220754 0)
(-0.00348741 0.000220124 0)
(-0.0036087 0.000219402 0)
(-0.00372958 0.000218593 0)
(-0.00385 0.000217701 0)
(-0.00396991 0.000216729 0)
(-0.00408926 0.000215681 0)
(-0.00420801 0.000214557 0)
(-0.00432612 0.000213361 0)
(-0.00444353 0.000212091 0)
(-0.00456022 0.000210749 0)
(-0.00467613 0.000209337 0)
(-0.00479123 0.000207853 0)
(-0.00490546 0.000206297 0)
(-0.0050188 0.000204667 0)
(-0.00513119 0.000202964 0)
(-0.00524259 0.000201187 0)
(-0.00535297 0.000199332 0)
(-0.00546227 0.000197399 0)
(-0.00557044 0.000195386 0)
(-0.00567745 0.000193291 0)
(-0.00578325 0.000191111 0)
(-0.00588778 0.000188845 0)
(-0.00599099 0.00018649 0)
(-0.00609285 0.000184044 0)
(-0.00619329 0.000181504 0)
(-0.00629227 0.000178867 0)
(-0.0063897 0.000176131 0)
(-0.00648557 0.000173292 0)
(-0.00657981 0.000170351 0)
(-0.00667235 0.000167301 0)
(-0.00676314 0.000164143 0)
(-0.00685211 0.000160873 0)
(-0.00693922 0.000157488 0)
(-0.00702438 0.000153986 0)
(-0.00710756 0.000150366 0)
(-0.00718863 0.000146626 0)
(-0.00726761 0.000142763 0)
(-0.0073444 0.000138776 0)
(-0.0074189 0.000134663 0)
(-0.00749109 0.000130424 0)
(-0.00756086 0.000126057 0)
(-0.00762819 0.000121561 0)
(-0.00769298 0.000116936 0)
(-0.00775515 0.000112181 0)
(-0.00781468 0.000107296 0)
(-0.00787148 0.000102282 0)
(-0.00792543 9.71378e-05 0)
(-0.00797654 9.18635e-05 0)
(-0.00802468 8.64622e-05 0)
(-0.00806985 8.09338e-05 0)
(-0.0081119 7.52787e-05 0)
(-0.00815086 6.94995e-05 0)
(-0.00818659 6.35987e-05 0)
(-0.00821907 5.75774e-05 0)
(-0.00824821 5.14376e-05 0)
(-0.00827398 4.51832e-05 0)
(-0.00829627 3.88163e-05 0)
(-0.00831508 3.23402e-05 0)
(-0.00833035 2.57591e-05 0)
(-0.00834199 1.90768e-05 0)
(-0.00834996 1.22969e-05 0)
(-0.00835425 5.42371e-06 0)
(-0.00835478 -1.53705e-06 0)
(-0.0083515 -8.58107e-06 0)
(-0.00834438 -1.57028e-05 0)
(-0.00833339 -2.28951e-05 0)
(-0.00831847 -3.01545e-05 0)
(-0.00829963 -3.74721e-05 0)
(-0.00827683 -4.48421e-05 0)
(-0.00824999 -5.2258e-05 0)
(-0.00821919 -5.97118e-05 0)
(-0.00818432 -6.71951e-05 0)
(-0.00814541 -7.4701e-05 0)
(-0.00810248 -8.22197e-05 0)
(-0.00805545 -8.97444e-05 0)
(-0.00800441 -9.72641e-05 0)
(-0.00794931 -0.000104768 0)
(-0.00789017 -0.00011225 0)
(-0.00782701 -0.000119697 0)
(-0.00775984 -0.0001271 0)
(-0.00768874 -0.00013445 0)
(-0.0076137 -0.000141733 0)
(-0.00753473 -0.000148939 0)
(-0.00745194 -0.000156058 0)
(-0.00736533 -0.000163076 0)
(-0.00727497 -0.000169983 0)
(-0.00718094 -0.000176768 0)
(-0.00708328 -0.000183417 0)
(-0.0069821 -0.000189921 0)
(-0.00687745 -0.000196266 0)
(-0.00676941 -0.00020244 0)
(-0.00665812 -0.000208433 0)
(-0.00654365 -0.000214232 0)
(-0.00642609 -0.000219824 0)
(-0.00630554 -0.000225202 0)
(-0.00618219 -0.000230351 0)
(-0.00605607 -0.000235262 0)
(-0.00592739 -0.000239924 0)
(-0.00579622 -0.000244327 0)
(-0.00566272 -0.000248462 0)
(-0.00552705 -0.000252319 0)
(-0.00538934 -0.000255888 0)
(-0.00524975 -0.000259163 0)
(-0.00510843 -0.000262135 0)
(-0.00496555 -0.000264795 0)
(-0.00482128 -0.000267138 0)
(-0.00467576 -0.000269158 0)
(-0.0045292 -0.000270848 0)
(-0.00438175 -0.000272204 0)
(-0.00423361 -0.000273219 0)
(-0.00408495 -0.000273891 0)
(-0.00393594 -0.000274216 0)
(-0.00378678 -0.00027419 0)
(-0.00363767 -0.000273808 0)
(-0.00348877 -0.000273071 0)
(-0.00334029 -0.000271975 0)
(-0.00319241 -0.000270519 0)
(-0.00304535 -0.0002687 0)
(-0.00289928 -0.000266518 0)
(-0.0027544 -0.00026397 0)
(-0.00261092 -0.000261057 0)
(-0.00246903 -0.000257777 0)
(-0.00232892 -0.000254129 0)
(-0.00219081 -0.000250113 0)
(-0.00205487 -0.000245726 0)
(-0.00192133 -0.00024097 0)
(-0.00179038 -0.000235841 0)
(-0.00166224 -0.000230341 0)
(-0.00153708 -0.000224466 0)
(-0.00141513 -0.000218219 0)
(-0.00129659 -0.000211597 0)
(-0.00118165 -0.000204599 0)
(-0.00107052 -0.000197227 0)
(-0.000963423 -0.000189479 0)
(-0.00086054 -0.000181358 0)
(-0.000762089 -0.000172865 0)
(-0.000668257 -0.000164003 0)
(-0.000579242 -0.000154777 0)
(-0.000495252 -0.000145193 0)
(-0.000416467 -0.000135262 0)
(-0.00034306 -0.000124993 0)
(-0.000275222 -0.000114404 0)
(-0.000213099 -0.000103516 0)
(-0.000156832 -9.23559e-05 0)
(-0.000106567 -8.09586e-05 0)
(-6.23942e-05 -6.93708e-05 0)
(-2.4384e-05 -5.76524e-05 0)
(7.41738e-06 -4.58811e-05 0)
(3.3034e-05 -3.41539e-05 0)
(5.25395e-05 -2.26012e-05 0)
(6.60797e-05 -1.13885e-05 0)
(7.39006e-05 -7.27399e-07 0)
(7.63628e-05 9.11462e-06 0)
(7.39661e-05 1.78005e-05 0)
(6.73712e-05 2.49254e-05 0)
(5.74274e-05 3.00132e-05 0)
(4.51846e-05 3.25382e-05 0)
(3.18782e-05 3.19586e-05 0)
(1.89529e-05 2.77809e-05 0)
(8.26681e-06 1.967e-05 0)
(1.12189e-06 7.70697e-06 0)
(-1.35469e-07 -4.62213e-06 0)
(-3.43459e-06 -8.80053e-07 0)
(-1.23839e-05 1.20265e-05 0)
(-2.86409e-05 3.06728e-05 0)
(-5.32264e-05 5.27916e-05 0)
(-8.68316e-05 7.67877e-05 0)
(-0.000129819 0.000101502 0)
(-0.000182277 0.000126096 0)
(-0.000244078 0.000149967 0)
(-0.00031492 0.000172703 0)
(-0.000394382 0.000194039 0)
(-0.000481958 0.000213828 0)
(-0.000577088 0.000232002 0)
(-0.000679196 0.00024856 0)
(-0.000787694 0.000263541 0)
(-0.000902008 0.000277012 0)
(-0.00102158 0.000289059 0)
(-0.00114589 0.000299776 0)
(-0.00127444 0.000309263 0)
(-0.00140675 0.000317619 0)
(-0.00154241 0.000324941 0)
(-0.00168101 0.000331323 0)
(-0.0018222 0.000336851 0)
(-0.00196563 0.000341608 0)
(-0.00211101 0.000345667 0)
(-0.00225807 0.0003491 0)
(-0.00240654 0.000351967 0)
(-0.00255621 0.000354327 0)
(-0.00270686 0.000356232 0)
(-0.00285832 0.000357726 0)
(-0.00301041 0.00035885 0)
(-0.00316297 0.000359642 0)
(-0.00331588 0.000360134 0)
(-0.003469 0.000360353 0)
(-0.00362222 0.000360325 0)
(-0.00377543 0.000360072 0)
(-0.00392853 0.000359611 0)
(-0.00408142 0.000358958 0)
(-0.00423404 0.000358129 0)
(-0.0043863 0.000357134 0)
(-0.00453811 0.000355984 0)
(-0.00468942 0.000354685 0)
(-0.00484016 0.000353248 0)
(-0.00499026 0.000351675 0)
(-0.00513967 0.000349972 0)
(-0.00528831 0.000348143 0)
(-0.00543614 0.000346188 0)
(-0.00558309 0.000344113 0)
(-0.00572911 0.000341915 0)
(-0.00587415 0.000339598 0)
(-0.00601815 0.00033716 0)
(-0.00616105 0.000334601 0)
(-0.00630279 0.00033192 0)
(-0.00644333 0.000329115 0)
(-0.0065826 0.000326186 0)
(-0.00672056 0.000323129 0)
(-0.00685712 0.000319942 0)
(-0.00699225 0.000316623 0)
(-0.00712589 0.000313168 0)
(-0.00725797 0.000309574 0)
(-0.00738842 0.000305838 0)
(-0.0075172 0.000301956 0)
(-0.00764423 0.000297926 0)
(-0.00776944 0.00029374 0)
(-0.00789279 0.000289397 0)
(-0.00801416 0.000284894 0)
(-0.00813355 0.000280225 0)
(-0.00825079 0.000275388 0)
(-0.00836593 0.000270377 0)
(-0.00847881 0.000265189 0)
(-0.00858939 0.000259824 0)
(-0.00869758 0.000254272 0)
(-0.00880332 0.000248535 0)
(-0.00890649 0.000242606 0)
(-0.00900707 0.000236486 0)
(-0.00910494 0.000230169 0)
(-0.00920005 0.000223657 0)
(-0.00929227 0.00021694 0)
(-0.00938158 0.000210026 0)
(-0.00946782 0.000202907 0)
(-0.00955099 0.000195583 0)
(-0.00963098 0.000188057 0)
(-0.0097077 0.000180324 0)
(-0.00978103 0.000172385 0)
(-0.00985095 0.00016424 0)
(-0.00991737 0.000155892 0)
(-0.00998015 0.00014734 0)
(-0.0100393 0.000138589 0)
(-0.0100946 0.000129634 0)
(-0.0101462 0.000120483 0)
(-0.0101938 0.000111135 0)
(-0.0102375 0.000101597 0)
(-0.010277 9.18692e-05 0)
(-0.0103125 8.19569e-05 0)
(-0.0103437 7.18653e-05 0)
(-0.0103707 6.15972e-05 0)
(-0.0103933 5.11591e-05 0)
(-0.0104115 4.05568e-05 0)
(-0.0104252 2.97963e-05 0)
(-0.0104345 1.88844e-05 0)
(-0.0104391 7.82801e-06 0)
(-0.010439 -3.3664e-06 0)
(-0.0104343 -1.4688e-05 0)
(-0.0104249 -2.6131e-05 0)
(-0.0104106 -3.76833e-05 0)
(-0.0103916 -4.93382e-05 0)
(-0.0103677 -6.10841e-05 0)
(-0.0103389 -7.29101e-05 0)
(-0.0103052 -8.48047e-05 0)
(-0.0102665 -9.67576e-05 0)
(-0.0102229 -0.000108755 0)
(-0.0101743 -0.000120783 0)
(-0.0101207 -0.000132832 0)
(-0.0100622 -0.000144885 0)
(-0.0099987 -0.000156929 0)
(-0.00993017 -0.000168948 0)
(-0.00985671 -0.000180927 0)
(-0.00977835 -0.000192849 0)
(-0.00969507 -0.0002047 0)
(-0.00960691 -0.000216462 0)
(-0.00951394 -0.000228121 0)
(-0.00941622 -0.000239653 0)
(-0.00931372 -0.000251046 0)
(-0.00920659 -0.000262278 0)
(-0.00909484 -0.000273333 0)
(-0.00897856 -0.000284194 0)
(-0.00885791 -0.000294839 0)
(-0.00873286 -0.000305253 0)
(-0.00860361 -0.000315417 0)
(-0.00847018 -0.000325307 0)
(-0.00833272 -0.000334911 0)
(-0.00819135 -0.000344207 0)
(-0.00804621 -0.000353179 0)
(-0.00789743 -0.000361807 0)
(-0.00774516 -0.000370077 0)
(-0.00758948 -0.000377971 0)
(-0.00743063 -0.000385469 0)
(-0.00726873 -0.000392557 0)
(-0.00710395 -0.000399226 0)
(-0.00693647 -0.00040545 0)
(-0.00676645 -0.00041122 0)
(-0.0065941 -0.000416524 0)
(-0.0064196 -0.00042135 0)
(-0.00624315 -0.000425684 0)
(-0.00606493 -0.000429512 0)
(-0.00588516 -0.00043283 0)
(-0.00570405 -0.000435625 0)
(-0.00552181 -0.00043789 0)
(-0.00533866 -0.000439614 0)
(-0.0051548 -0.000440793 0)
(-0.00497048 -0.000441418 0)
(-0.00478592 -0.000441485 0)
(-0.00460133 -0.000440988 0)
(-0.00441696 -0.000439922 0)
(-0.00423303 -0.000438283 0)
(-0.00404978 -0.000436069 0)
(-0.00386746 -0.000433275 0)
(-0.00368629 -0.000429899 0)
(-0.00350653 -0.00042594 0)
(-0.0033284 -0.000421393 0)
(-0.00315216 -0.000416256 0)
(-0.00297805 -0.000410528 0)
(-0.00280632 -0.000404209 0)
(-0.0026372 -0.000397294 0)
(-0.00247097 -0.000389784 0)
(-0.00230785 -0.000381674 0)
(-0.0021481 -0.000372965 0)
(-0.00199198 -0.000363655 0)
(-0.00183973 -0.000353741 0)
(-0.00169161 -0.000343224 0)
(-0.00154787 -0.000332103 0)
(-0.00140876 -0.000320378 0)
(-0.00127453 -0.000308051 0)
(-0.00114544 -0.000295121 0)
(-0.00102173 -0.000281595 0)
(-0.000903659 -0.000267478 0)
(-0.000791452 -0.000252779 0)
(-0.000685349 -0.000237508 0)
(-0.000585592 -0.000221686 0)
(-0.000492394 -0.000205329 0)
(-0.000405944 -0.000188468 0)
(-0.000326459 -0.00017114 0)
(-0.000254086 -0.000153389 0)
(-0.000188997 -0.000135277 0)
(-0.0001313 -0.00011688 0)
(-8.10752e-05 -9.8296e-05 0)
(-3.83443e-05 -7.96511e-05 0)
(-3.08809e-06 -6.11023e-05 0)
(2.47886e-05 -4.28545e-05 0)
(4.54775e-05 -2.51634e-05 0)
(5.92641e-05 -8.35353e-06 0)
(6.65792e-05 7.17334e-06 0)
(6.79912e-05 2.09221e-05 0)
(6.42477e-05 3.23078e-05 0)
(5.62914e-05 4.06544e-05 0)
(4.52688e-05 4.52302e-05 0)
(3.25286e-05 4.52852e-05 0)
(1.96486e-05 4.01156e-05 0)
(8.69324e-06 2.9122e-05 0)
(1.18678e-06 1.18831e-05 0)
(-5.74555e-07 -2.6182e-06 0)
(-7.0164e-06 7.10471e-06 0)
(-2.12163e-05 2.75731e-05 0)
(-4.46782e-05 5.49263e-05 0)
(-7.80811e-05 8.65327e-05 0)
(-0.00012196 0.000120478 0)
(-0.000176586 0.000155329 0)
(-0.000241986 0.00019001 0)
(-0.000317983 0.000223728 0)
(-0.000404237 0.000255926 0)
(-0.000500285 0.000286235 0)
(-0.000605576 0.000314437 0)
(-0.000719505 0.000340425 0)
(-0.00084144 0.000364186 0)
(-0.000970737 0.000385755 0)
(-0.00110676 0.000405217 0)
(-0.0012489 0.00042268 0)
(-0.00139656 0.000438266 0)
(-0.00154918 0.00045211 0)
(-0.00170624 0.000464345 0)
(-0.00186725 0.000475104 0)
(-0.00203175 0.000484512 0)
(-0.00219933 0.000492692 0)
(-0.00236961 0.000499756 0)
(-0.00254223 0.00050581 0)
(-0.00271687 0.000510951 0)
(-0.00289324 0.000515268 0)
(-0.00307106 0.000518841 0)
(-0.0032501 0.000521743 0)