/*--------------------------------*- C++ -*----------------------------------*\
  =========                 |
  \\      /  F ield         | OpenFOAM: The Open Source CFD Toolbox
   \\    /   O peration     | Website:  https://openfoam.org
    \\  /    A nd           | Version:  6
     \\/     M anipulation  |
\*---------------------------------------------------------------------------*/
FoamFile
{
    version     2.0;
    format      ascii;
    class       volScalarField;
    location    "0";
    object      P_rec;
}
// * * * * * * * * * * * * * * * * * * * * * * * * * * * * * * * * * * * * * //

dimensions      [0 2 -2 0 0 0 0];

internalField   nonuniform List<scalar> 
13046
(
0.300973
0.300092
0.323709
0.304806
0.318046
0.305792
0.297432
0.307598
0.321202
0.226893
0.187726
0.324357
0.294566
0.290266
0.321776
0.243527
0.326805
0.196666
0.316192
0.315876
0.303653
0.241108
0.326656
0.195929
0.304053
0.310139
0.318538
0.290734
0.289342
0.324792
0.303275
0.292434
0.321324
0.30887
0.319089
0.307101
0.308265
0.318937
0.310311
0.306039
0.323468
0.286818
0.309335
0.317463
0.313417
0.308799
0.312953
0.315477
0.296919
0.300016
0.323893
0.316579
0.308396
0.269695
0.321208
0.263955
0.311351
0.233748
0.276777
0.328527
0.273519
0.289041
0.320634
0.323705
0.233578
0.251171
0.281043
0.236816
0.327465
0.284854
0.241886
0.326697
0.224723
0.27315
0.329077
0.315611
0.321436
0.298665
0.329824
0.264693
0.221397
0.301368
0.309041
0.318363
0.323848
0.223874
0.245161
0.243212
0.321389
0.24946
0.317626
0.229323
0.256734
0.275276
0.270207
0.269634
0.264926
0.323087
0.32436
0.320966
0.243106
0.256949
0.308052
0.314995
0.31369
0.316354
0.272301
0.317639
0.308138
0.323218
0.277935
0.203779
0.324144
0.146635
0.29694
0.296309
0.3198
0.270892
0.274796
0.253115
0.324974
0.26371
0.323986
0.222526
0.175738
0.32489
0.285817
0.273145
0.32534
0.303695
0.323409
0.286597
0.316652
0.233307
0.26839
0.261297
0.257963
0.32291
0.300486
0.289905
0.320965
0.285729
0.310604
0.318421
0.308183
0.319365
0.277932
0.315673
0.279581
0.321068
0.272582
0.281028
0.320959
0.319859
0.288398
0.314007
0.310225
0.261635
0.305444
0.259877
0.31431
0.315846
0.286007
0.305186
0.315724
0.224456
0.323309
0.194087
0.211824
0.324492
0.156018
0.25932
0.249103
0.323959
0.301829
0.27069
0.325512
0.287229
0.314488
0.309018
0.323007
0.211022
0.226757
0.302997
0.276704
0.322154
0.31878
0.28365
0.313107
0.28957
0.310737
0.317216
0.288154
0.323942
0.287492
0.281593
0.323016
0.241591
0.322309
0.233316
0.318624
0.241496
0.266671
0.231594
0.249709
0.318394
0.31777
0.258752
0.305121
0.291906
0.266199
0.329566
0.219848
0.236894
0.230257
0.319771
0.305372
0.318519
0.311813
0.293532
0.291065
0.324196
0.318179
0.237926
0.27149
0.288818
0.292222
0.324202
0.323182
0.175574
0.212125
0.306875
0.258091
0.314768
0.237241
0.257707
0.319184
0.270243
0.305518
0.317299
0.284418
0.274298
0.326501
0.290073
0.242013
0.313812
0.254568
0.302131
0.314391
0.322533
0.176315
0.206745
0.30793
0.32509
0.273266
0.211389
0.325236
0.126721
0.315557
0.305075
0.313825
0.274113
0.274675
0.302256
0.305844
0.318665
0.317278
0.327617
0.26006
0.213402
0.28854
0.278625
0.324164
0.252529
0.292699
0.315946
0.265026
0.255357
0.324086
0.311515
0.309236
0.317993
0.265261
0.3024
0.316598
0.288954
0.271086
0.325164
0.288861
0.28661
0.308189
0.323183
0.266954
0.263945
0.295718
0.31734
0.259102
0.323968
0.251815
0.312098
0.31993
0.278688
0.313479
0.256562
0.308337
0.277161
0.254862
0.324712
0.307474
0.318497
0.267527
0.272609
0.270242
0.249469
0.325281
0.246907
0.326255
0.323108
0.216019
0.231026
0.27825
0.268038
0.325032
0.112824
0.323514
0.192852
0.299221
0.314291
0.310902
0.278514
0.292334
0.320565
0.322939
0.247159
0.242032
0.320164
0.258611
0.3108
0.281513
0.241021
0.315383
0.301312
0.321565
0.275887
0.286419
0.322686
0.298554
0.32112
0.249487
0.326444
0.206261
0.322381
0.25271
0.304823
0.271716
0.282891
0.322155
0.282663
0.307223
0.319386
0.274339
0.314411
0.31295
0.301485
0.301353
0.321224
0.310083
0.25941
0.312022
0.236829
0.239107
0.321113
0.282474
0.241297
0.317111
0.288925
0.325421
0.251621
0.267793
0.27137
0.240739
0.232637
0.325633
0.326072
0.32416
0.119184
0.198317
0.215806
0.325705
0.133237
0.271525
0.300297
0.316738
0.322572
0.239541
0.222913
0.282635
0.280141
0.253118
0.248872
0.327692
0.326406
0.318441
0.225795
0.216995
0.20799
0.325911
0.114344
0.304222
0.314254
0.31772
0.204645
0.132321
0.324746
0.298234
0.271937
0.323498
0.227985
0.217646
0.322231
0.123456
0.322954
0.17693
0.308005
0.321409
0.290346
0.299624
0.318274
0.316529
0.225006
0.325596
0.170585
0.296088
0.31608
0.31635
0.306446
0.314471
0.317367
0.309714
0.251331
0.317111
0.295495
0.32181
0.313968
0.300816
0.311628
0.312752
0.292402
0.254482
0.325025
0.325839
0.325538
0.198118
0.198461
0.235572
0.233812
0.230212
0.23502
0.321029
0.32938
0.287627
0.242386
0.304325
0.321613
0.279229
0.251989
0.301906
0.311445
0.159435
0.321021
0.185281
0.318401
0.22799
0.24843
0.214806
0.324251
0.168088
0.323
0.111955
0.176443
0.0933311
0.323474
0.186033
0.287824
0.261909
0.318416
0.201906
0.319081
0.202807
0.256343
0.258513
0.322682
0.238064
0.327382
0.170685
0.295128
0.32055
0.305605
0.234429
0.318574
0.221353
0.25327
0.310482
0.304946
0.288243
0.252833
0.317506
0.323094
0.0616255
0.162884
0.127096
0.323438
0.186515
0.299098
0.320924
0.304669
0.219492
0.216556
0.320058
0.319008
0.210242
0.220549
0.239798
0.323438
0.220857
0.326809
0.218673
0.256215
0.295919
0.250104
0.327171
0.240173
0.276255
0.328695
0.32848
0.252588
0.196545
0.29468
0.292068
0.277617
0.272865
0.324249
0.325617
0.297338
0.278158
0.324171
0.285915
0.247915
0.329351
0.285526
0.246664
0.316964
0.231321
0.230232
0.321278
0.317986
0.247409
0.274589
0.0946547
0.323507
0.191949
0.307295
0.305563
0.323235
0.290325
0.324078
0.294331
0.292276
0.292287
0.326247
0.256661
0.326682
0.266322
0.132036
0.321165
0.17782
0.222777
0.220738
0.320493
0.30263
0.320189
0.268645
0.295259
0.245655
0.313828
0.327005
0.222277
0.259807
0.151883
0.198533
0.323031
0.165087
0.200798
0.322475
0.280737
0.254627
0.327458
0.313418
0.316424
0.282691
0.236423
0.323776
0.209322
0.284747
0.255961
0.31992
0.32516
0.238613
0.256578
0.295025
0.327309
0.266352
0.272923
0.308892
0.314736
0.307259
0.322778
0.281888
0.323447
0.207187
0.230819
0.265627
0.249403
0.324953
0.309076
0.321521
0.292079
0.247186
0.328359
0.185853
0.297599
0.289013
0.324617
0.292157
0.308513
0.318631
0.292013
0.257714
0.317179
0.22425
0.327061
0.147407
0.228711
0.327546
0.150903
0.32572
0.233133
0.256951
0.268272
0.314312
0.312966
0.327072
0.133332
0.217499
0.32218
0.250241
0.25153
0.321999
0.103499
0.171264
0.181682
0.0815532
0.32429
0.327988
0.204349
0.25321
0.323032
0.190539
0.219156
0.242823
0.246586
0.324778
0.205215
0.324832
0.21689
0.248539
0.256316
0.32167
0.314747
0.300491
0.243984
0.307927
0.319948
0.298586
0.251128
0.267113
0.320421
0.319635
0.252868
0.273017
0.25711
0.328821
0.200428
0.290705
0.250269
0.32762
0.294791
0.268437
0.322852
0.263259
0.280779
0.322136
0.260704
0.27952
0.321219
0.310392
0.317306
0.297006
0.291628
0.266922
0.328023
0.317893
0.240469
0.219394
0.196478
0.321346
0.170593
0.190556
0.321084
0.171688
0.302325
0.324552
0.281465
0.14374
0.322585
0.190733
0.261935
0.325609
0.238179
0.321972
0.14847
0.184005
0.30543
0.317219
0.309098
0.285051
0.288538
0.322968
0.314547
0.269389
0.311978
0.319007
0.20812
0.208484
0.284379
0.256839
0.31852
0.327415
0.242984
0.183303
0.278891
0.284262
0.324673
0.309217
0.320322
0.300259
0.205513
0.213411
0.320681
0.323996
0.240943
0.25149
0.221386
0.21666
0.32523
0.325088
0.157916
0.14922
0.278881
0.302466
0.319964
0.291911
0.265682
0.317383
0.293815
0.307698
0.321281
0.185027
0.201879
0.189439
0.321159
0.20114
0.320032
0.270381
0.27003
0.324393
0.213432
0.20761
0.197335
0.188192
0.321613
0.321455
0.265554
0.296864
0.320148
0.28489
0.29701
0.321468
0.233724
0.327539
0.166296
0.282482
0.295307
0.320105
0.292714
0.303067
0.319293
0.223779
0.326359
0.157717
0.280084
0.274155
0.322499
0.311864
0.248322
0.310419
0.296318
0.259012
0.326658
0.276595
0.315047
0.233483
0.323126
0.07468
0.169091
0.278926
0.291716
0.321442
0.236761
0.325839
0.184684
0.325021
0.250757
0.300466
0.192949
0.325612
0.100622
0.315006
0.312529
0.315104
0.286399
0.318125
0.284738
0.295983
0.308934
0.31869
0.30989
0.313726
0.319178
0.290632
0.32224
0.28747
0.282171
0.29888
0.322632
0.285647
0.301361
0.32187
0.319948
0.180547
0.192852
0.299923
0.282788
0.322177
0.21931
0.199749
0.322565
0.262132
0.258253
0.273639
0.266087
0.321586
0.321209
0.29917
0.290723
0.323196
0.285658
0.259521
0.325704
0.270734
0.279928
0.323372
0.310613
0.305817
0.316948
0.256008
0.270307
0.320887
0.306988
0.318701
0.299495
0.270021
0.292909
0.320757
0.285047
0.266431
0.324887
0.309533
0.310371
0.302187
0.320886
0.301432
0.320079
0.311406
0.315471
0.314717
0.297929
0.324106
0.290663
0.295399
0.292811
0.282371
0.283167
0.324573
0.32269
0.325903
0.223408
0.257696
0.309156
0.254271
0.313845
0.326847
0.326063
0.216625
0.222089
0.252818
0.251403
0.306065
0.322801
0.262326
0.311608
0.316343
0.310091
0.255233
0.263069
0.321485
0.305303
0.322375
0.28702
0.282862
0.264314
0.325129
0.266038
0.266401
0.230695
0.327404
0.236967
0.326319
0.265137
0.267749
0.322676
0.197955
0.112285
0.32562
0.322398
0.255513
0.301911
0.297776
0.299448
0.325193
0.254537
0.32755
0.258143
0.250354
0.280132
0.317969
0.288013
0.263499
0.326741
0.304476
0.321201
0.261372
0.29894
0.300246
0.32302
0.32763
0.269419
0.267186
0.297893
0.327551
0.262046
0.266001
0.272756
0.322849
0.309276
0.318705
0.300079
0.229104
0.325256
0.176466
0.303201
0.323567
0.257165
0.284259
0.280187
0.266283
0.262294
0.323476
0.326128
0.325462
0.185971
0.233819
0.233751
0.326863
0.172889
0.228734
0.326069
0.16826
0.262136
0.32618
0.233114
0.290604
0.269172
0.326163
0.252856
0.31481
0.341933
0.255672
0.344496
0.169928
0.334858
0.263938
0.271218
0.340268
0.338892
0.266851
0.259802
0.342959
0.321758
0.270453
0.255964
0.316963
0.317
0.334542
0.326582
0.311173
0.338955
0.328754
0.344469
0.316424
0.348024
0.272031
0.330957
0.252746
0.277169
0.332757
0.32708
0.323856
0.287585
0.332836
0.342296
0.340085
0.265186
0.292286
0.30844
0.324362
0.293196
0.341098
0.321423
0.316922
0.319906
0.306327
0.267905
0.296074
0.340204
0.325309
0.272307
0.320584
0.275322
0.338786
0.336421
0.328154
0.307629
0.34028
0.295606
0.295065
0.343752
0.269532
0.33063
0.336503
0.329696
0.332325
0.339957
0.319006
0.274279
0.283745
0.293403
0.336931
0.279324
0.322544
0.304366
0.285904
0.335268
0.340265
0.314185
0.328063
0.267163
0.273771
0.318646
0.338445
0.318406
0.255286
0.323109
0.34015
0.275389
0.341283
0.345396
0.323724
0.263768
0.141503
0.286717
0.308448
0.263582
0.27257
0.335377
0.33951
0.323966
0.330359
0.27096
0.24759
0.267742
0.279909
0.288188
0.34189
0.339537
0.333225
0.276028
0.286129
0.295105
0.322784
0.322625
0.256588
0.268675
0.31407
0.324656
0.334781
0.326391
0.337063
0.322477
0.293193
0.270678
0.338485
0.231125
0.336529
0.273122
0.337355
0.268112
0.205211
0.245701
0.339657
0.320609
0.25843
0.28625
0.333286
0.266137
0.338364
0.304684
0.284621
0.328513
0.319998
0.270234
0.340807
0.287381
0.322789
0.267016
0.318607
0.265722
0.344665
0.340035
0.319075
0.337922
0.338225
0.340979
0.305879
0.290893
0.282735
0.32698
0.230854
0.285299
0.269623
0.328601
0.316445
0.336109
0.338039
0.32792
0.338396
0.345441
0.340886
0.267945
0.269994
0.269313
0.34059
0.2729
0.266226
0.224168
0.267007
0.318094
0.316638
0.329419
0.339121
0.338985
0.307875
0.342269
0.313121
0.325579
0.197224
0.324801
0.292032
0.270988
0.336127
0.334499
0.289245
0.307322
0.329467
0.331222
0.252204
0.286982
0.336404
0.342995
0.311591
0.273887
0.308398
0.329825
0.315728
0.298792
0.270818
0.22111
0.2805
0.294931
0.302211
0.270051
0.259213
0.339061
0.318295
0.270529
0.321868
0.275039
0.276548
0.334193
0.334914
0.268798
0.267088
0.241813
0.334909
0.29997
0.315507
0.332817
0.322007
0.27376
0.330985
0.306582
0.263395
0.29529
0.340236
0.328505
0.330747
0.344208
0.324209
0.267227
0.259868
0.321717
0.321319
0.274528
0.273
0.331033
0.337494
0.340625
0.330104
0.270313
0.31845
0.306845
0.328282
0.320354
0.287128
0.321365
0.308938
0.2157
0.273857
0.288243
0.272784
0.290671
0.334674
0.321613
0.322473
0.33675
0.265489
0.31883
0.299689
0.321196
0.312886
0.312359
0.330388
0.267298
0.253036
0.316429
0.26629
0.261826
0.329173
0.205322
0.263053
0.34218
0.333408
0.281843
0.29628
0.27806
0.331075
0.270093
0.21684
0.268203
0.32765
0.324174
0.331391
0.167986
0.265434
0.343372
0.307174
0.247821
0.250306
0.266647
0.269032
0.263914
0.31894
0.335894
0.278657
0.265257
0.292892
0.298466
0.325703
0.241667
0.336654
0.325206
0.207243
0.286744
0.272672
0.275735
0.333911
0.318465
0.336637
0.309329
0.265847
0.31063
0.326225
0.329835
0.314407
0.34162
0.337561
0.30394
0.331209
0.320798
0.290308
0.268223
0.307379
0.261709
0.321263
0.305567
0.275216
0.269737
0.270576
0.267397
0.257871
0.342402
0.275739
0.289092
0.331981
0.332389
0.275267
0.279397
0.343622
0.304698
0.201333
0.308132
0.279008
0.270197
0.343464
0.299384
0.29856
0.330149
0.272803
0.323646
0.282088
0.330377
0.311409
0.298182
0.146466
0.276019
0.275856
0.308676
0.317182
0.317949
0.329587
0.340961
0.264537
0.294455
0.267527
0.234757
0.263581
0.341815
0.307833
0.309572
0.280538
0.321799
0.266349
0.255237
0.265641
0.278051
0.298345
0.34566
0.301423
0.31716
0.333882
0.339676
0.328039
0.343884
0.256606
0.293195
0.27036
0.328678
0.330348
0.337137
0.304767
0.31449
0.271684
0.320044
0.279433
0.238354
0.334738
0.311865
0.23482
0.274359
0.280858
0.269831
0.283529
0.311806
0.321512
0.265925
0.291497
0.268298
0.287549
0.27431
0.306546
0.261338
0.271186
0.340973
0.339384
0.338023
0.315372
0.326106
0.199723
0.337726
0.327257
0.260904
0.342377
0.186635
0.336709
0.280712
0.320768
0.305413
0.33618
0.320107
0.264707
0.333955
0.26337
0.344345
0.322482
0.293957
0.293484
0.253251
0.298877
0.34547
0.297169
0.330445
0.334955
0.266569
0.245714
0.335476
0.193958
0.316205
0.321164
0.270897
0.341306
0.229189
0.223811
0.338438
0.308129
0.336867
0.332745
0.31614
0.330338
0.34009
0.339744
0.338407
0.333932
0.267351
0.294231
0.314239
0.341733
0.29992
0.18359
0.334135
0.282294
0.318824
0.291955
0.341709
0.327445
0.292614
0.340586
0.317475
0.342015
0.274128
0.339563
0.315024
0.336269
0.330144
0.338914
0.29131
0.32754
0.273884
0.270658
0.319388
0.299744
0.3213
0.253385
0.190745
0.269955
0.303845
0.326649
0.310773
0.346132
0.292781
0.276379
0.318081
0.269973
0.340159
0.255759
0.31485
0.329598
0.343213
0.313188
0.333752
0.263808
0.318063
0.341276
0.289156
0.262045
0.319693
0.297576
0.335053
0.339898
0.296983
0.275028
0.318896
0.270857
0.26638
0.338748
0.334783
0.330434
0.260646
0.3323
0.328093
0.339955
0.266717
0.333863
0.326553
0.332015
0.317587
0.259555
0.270931
0.290161
0.17645
0.335411
0.322538
0.321694
0.339747
0.337912
0.30759
0.315365
0.32745
0.339275
0.339126
0.327429
0.313071
0.314244
0.335433
0.316688
0.297753
0.286871
0.295543
0.305914
0.325275
0.287385
0.335192
0.339227
0.264151
0.340597
0.280534
0.270513
0.287087
0.336942
0.311683
0.327288
0.323809
0.338849
0.316742
0.325092
0.332778
0.274394
0.269398
0.267281
0.268497
0.256252
0.132565
0.274019
0.26319
0.326167
0.263196
0.288377
0.323654
0.308677
0.271922
0.288617
0.286348
0.142344
0.339506
0.312742
0.321361
0.268663
0.310454
0.314184
0.258805
0.331692
0.276015
0.333883
0.30195
0.340324
0.258198
0.21611
0.285828
0.306848
0.311269
0.326872
0.217482
0.319865
0.293667
0.270502
0.261557
0.276263
0.286096
0.336806
0.252696
0.335688
0.339645
0.319324
0.294774
0.340088
0.269008
0.135114
0.32006
0.269935
0.257483
0.340347
0.337963
0.319922
0.332002
0.302433
0.334385
0.340862
0.320264
0.300254
0.334731
0.343395
0.335636
0.329076
0.316433
0.332113
0.289775
0.263486
0.340093
0.343118
0.340886
0.319655
0.298305
0.28688
0.337928
0.333681
0.111909
0.323452
0.318634
0.269623
0.324974
0.316491
0.331124
0.329658
0.327681
0.292363
0.336434
0.342461
0.325835
0.339298
0.343149
0.219939
0.271259
0.313711
0.269292
0.219652
0.269141
0.318627
0.339934
0.273606
0.314013
0.25855
0.300487
0.32939
0.321218
0.274057
0.265654
0.287552
0.309088
0.284557
0.27259
0.323765
0.329266
0.332748
0.262607
0.333593
0.287313
0.27925
0.328256
0.338738
0.328023
0.325721
0.271588
0.338958
0.265473
0.343446
0.337986
0.339716
0.341373
0.269888
0.2693
0.319949
0.260093
0.287352
0.274807
0.294521
0.263917
0.323713
0.318566
0.263273
0.342024
0.307198
0.313431
0.320817
0.336616
0.3333
0.333881
0.317652
0.264913
0.342209
0.266436
0.334392
0.258882
0.326786
0.339589
0.339996
0.333852
0.343188
0.319468
0.250709
0.267397
0.320154
0.278084
0.339776
0.254758
0.257887
0.311299
0.300555
0.306346
0.262535
0.320872
0.33706
0.331817
0.192545
0.303167
0.245163
0.264821
0.318962
0.310797
0.317096
0.309988
0.341159
0.268255
0.33406
0.318109
0.258573
0.33576
0.309163
0.331111
0.31681
0.315233
0.268285
0.292092
0.315609
0.336298
0.288261
0.318055
0.317497
0.339265
0.308205
0.317539
0.283498
0.329665
0.260457
0.267086
0.240696
0.332784
0.263942
0.274476
0.270431
0.277023
0.341101
0.312515
0.331414
0.339995
0.330302
0.257157
0.32832
0.27145
0.314484
0.333934
0.299552
0.267198
0.309001
0.321123
0.266876
0.299975
0.235783
0.26775
0.32739
0.247517
0.280018
0.342607
0.283236
0.288885
0.319501
0.336602
0.307167
0.27226
0.330296
0.275076
0.284321
0.317622
0.307458
0.327414
0.331817
0.345074
0.307131
0.339323
0.330284
0.337726
0.334872
0.334857
0.261612
0.294417
0.318375
0.264325
0.333032
0.342493
0.340156
0.32547
0.267824
0.264682
0.319939
0.341979
0.262596
0.340106
0.334687
0.336315
0.271053
0.277221
0.275814
0.249107
0.324839
0.263983
0.332595
0.273928
0.33405
0.280085
0.321127
0.261346
0.3242
0.330082
0.331245
0.306688
0.332392
0.339971
0.341773
0.329963
0.304469
0.33943
0.329643
0.285087
0.292155
0.32009
0.275096
0.344516
0.311183
0.330395
0.337202
0.339452
0.30002
0.233217
0.334822
0.310561
0.299264
0.318503
0.327373
0.339149
0.337753
0.309672
0.329717
0.261366
0.286282
0.31997
0.336237
0.322218
0.328666
0.306692
0.342865
0.322798
0.301574
0.341006
0.327707
0.270302
0.299755
0.337522
0.30716
0.2624
0.298249
0.338153
0.303536
0.31984
0.339206
0.343139
0.340357
0.326565
0.264783
0.334315
0.283818
0.30557
0.341785
0.323253
0.265751
0.262553
0.304266
0.333968
0.285948
0.271422
0.336961
0.303236
0.32772
0.338172
0.265589
0.257086
0.305534
0.338898
0.343002
0.323632
0.320151
0.244483
0.321137
0.299196
0.326974
0.340108
0.344471
0.273638
0.262038
0.321635
0.331478
0.340556
0.34079
0.334766
0.30185
0.287043
0.258367
0.26268
0.330469
0.328067
0.221152
0.282813
0.330756
0.314957
0.270414
0.267054
0.325767
0.290502
0.326398
0.333057
0.325437
0.338817
0.342435
0.317496
0.333632
0.309061
0.308876
0.304549
0.332966
0.296079
0.335544
0.219085
0.313911
0.214066
0.308944
0.33994
0.322179
0.340234
0.34399
0.339563
0.28353
0.311708
0.320559
0.252828
0.338733
0.322163
0.296819
0.332692
0.174579
0.2832
0.322405
0.33576
0.341616
0.261143
0.270956
0.317965
0.334701
0.229444
0.294513
0.294412
0.229564
0.269152
0.322738
0.27195
0.320883
0.266946
0.32629
0.333505
0.175069
0.319085
0.315462
0.283627
0.268995
0.320455
0.2806
0.312794
0.282264
0.311595
0.307119
0.308613
0.320736
0.342544
0.294474
0.265929
0.301472
0.260432
0.269315
0.31885
0.250254
0.301993
0.285018
0.317983
0.33414
0.320622
0.311979
0.212458
0.325814
0.322013
0.301761
0.330007
0.315079
0.310839
0.235804
0.221379
0.333514
0.277176
0.31812
0.336291
0.281533
0.328597
0.215805
0.335081
0.307806
0.341589
0.29519
0.313149
0.318435
0.270357
0.290106
0.305605
0.345424
0.25735
0.270962
0.3118
0.340699
0.329686
0.241142
0.300319
0.310782
0.321757
0.30093
0.341513
0.339812
0.340489
0.34082
0.330995
0.297142
0.283192
0.338543
0.294076
0.312504
0.243139
0.269435
0.287189
0.267615
0.332092
0.225063
0.335409
0.294784
0.334115
0.309649
0.331627
0.340472
0.313444
0.335296
0.339276
0.330292
0.319152
0.339506
0.297943
0.320164
0.273933
0.284343
0.341777
0.226094
0.329915
0.335118
0.318374
0.319783
0.304542
0.330365
0.32519
0.330894
0.261667
0.275162
0.322035
0.327288
0.243089
0.336833
0.273187
0.320335
0.266866
0.309703
0.319777
0.339633
0.338704
0.267245
0.328972
0.317094
0.311548
0.341636
0.250481
0.267274
0.338504
0.260514
0.301889
0.341614
0.337239
0.331194
0.270619
0.281827
0.275318
0.284935
0.254144
0.316452
0.30827
0.311098
0.276886
0.32086
0.310845
0.289509
0.255197
0.312168
0.31599
0.273619
0.340079
0.3405
0.263836
0.334672
0.216351
0.278532
0.238181
0.272809
0.333691
0.31499
0.316473
0.305077
0.331822
0.337193
0.329587
0.333831
0.256907
0.302173
0.302496
0.316234
0.270592
0.340067
0.312401
0.294718
0.332972
0.339806
0.281313
0.333605
0.264204
0.330629
0.329368
0.332584
0.251944
0.329666
0.311183
0.332104
0.320458
0.284553
0.270788
0.283254
0.339738
0.34178
0.33906
0.31025
0.324291
0.335903
0.317106
0.323693
0.295659
0.281541
0.320071
0.340015
0.268786
0.343696
0.319627
0.345466
0.331828
0.338227
0.316239
0.315777
0.341017
0.203193
0.334756
0.237697
0.337046
0.341765
0.320243
0.294787
0.301954
0.32102
0.242065
0.254688
0.307171
0.264186
0.335161
0.270637
0.277033
0.251448
0.266426
0.316929
0.339661
0.334681
0.269542
0.3129
0.325916
0.331204
0.303622
0.307534
0.338524
0.340967
0.318551
0.338752
0.3396
0.334938
0.269633
0.30848
0.261829
0.337042
0.333167
0.341196
0.316731
0.331412
0.310036
0.262827
0.29366
0.25635
0.289659
0.271206
0.337263
0.327383
0.322091
0.334349
0.339802
0.326728
0.333016
0.279797
0.32807
0.31879
0.338938
0.299087
0.268749
0.333025
0.329343
0.336628
0.341734
0.340405
0.266877
0.263797
0.258522
0.332582
0.34117
0.241933
0.294344
0.342098
0.265617
0.301745
0.271793
0.314999
0.333284
0.315269
0.328857
0.298531
0.324772
0.327722
0.338061
0.305016
0.290948
0.332078
0.327953
0.30967
0.340288
0.3445
0.241587
0.341251
0.264571
0.294067
0.344921
0.343546
0.313672
0.337726
0.272576
0.339632
0.294367
0.280626
0.338523
0.300632
0.339494
0.322103
0.335813
0.328213
0.336828
0.276321
0.335325
0.279147
0.340645
0.327255
0.328145
0.303668
0.269591
0.28041
0.338289
0.280783
0.318701
0.26576
0.306444
0.341719
0.340463
0.327088
0.335071
0.332097
0.289775
0.302865
0.328571
0.269457
0.281068
0.329236
0.322865
0.2992
0.273893
0.241196
0.26433
0.338594
0.30486
0.340858
0.276593
0.33902
0.327003
0.345288
0.334471
0.297753
0.338835
0.280216
0.330349
0.293518
0.330803
0.264771
0.30629
0.29616
0.268082
0.304321
0.273438
0.265117
0.264062
0.337445
0.338106
0.301173
0.269481
0.33942
0.264813
0.244498
0.31321
0.338324
0.332342
0.266243
0.26379
0.342435
0.266794
0.329652
0.268498
0.272759
0.293614
0.276353
0.343846
0.321108
0.276683
0.337962
0.344121
0.282087
0.333382
0.312143
0.338291
0.316325
0.29858
0.269767
0.336561
0.343299
0.335402
0.267667
0.276612
0.298114
0.323512
0.332337
0.329558
0.265379
0.331363
0.279126
0.331199
0.333192
0.322869
0.297049
0.333637
0.248918
0.323292
0.261873
0.305758
0.26267
0.270334
0.331033
0.33957
0.281428
0.289322
0.330302
0.298191
0.239346
0.25613
0.285307
0.321768
0.197017
0.311415
0.320742
0.33115
0.313186
0.333293
0.336935
0.225854
0.226091
0.342758
0.315666
0.237594
0.301169
0.329172
0.339483
0.329824
0.261107
0.307202
0.264263
0.332813
0.34076
0.33403
0.310188
0.338834
0.273688
0.324318
0.34396
0.266034
0.276812
0.339362
0.340119
0.268762
0.278748
0.255622
0.226126
0.257308
0.330765
0.293555
0.27581
0.265913
0.269437
0.337811
0.27571
0.275812
0.271812
0.340885
0.300498
0.332363
0.278699
0.304129
0.316749
0.323298
0.321205
0.335847
0.26661
0.331484
0.319941
0.318491
0.334182
0.28967
0.342858
0.334175
0.302232
0.334272
0.263845
0.292842
0.328974
0.334424
0.266567
0.309531
0.321189
0.329357
0.324108
0.340883
0.259284
0.271762
0.266973
0.257631
0.344039
0.286911
0.327705
0.339379
0.299885
0.228621
0.270853
0.315775
0.268543
0.315496
0.27339
0.281993
0.295528
0.339802
0.336449
0.32353
0.268513
0.296827
0.263263
0.305336
0.336528
0.329804
0.307638
0.326125
0.297721
0.324117
0.341071
0.339555
0.330099
0.341959
0.333197
0.305955
0.277158
0.272347
0.268807
0.33193
0.323434
0.281175
0.334754
0.280169
0.344188
0.340187
0.278209
0.263647
0.292385
0.306853
0.33951
0.31812
0.338365
0.32064
0.338334
0.334041
0.327676
0.281795
0.320787
0.310639
0.262721
0.296003
0.342271
0.233373
0.170102
0.329005
0.3232
0.340765
0.302138
0.269252
0.267767
0.285438
0.265216
0.291296
0.323748
0.274951
0.339878
0.300524
0.271633
0.313771
0.294148
0.279987
0.339344
0.317892
0.326415
0.263784
0.320885
0.314707
0.272771
0.297334
0.28798
0.280041
0.272377
0.231964
0.343902
0.331213
0.340781
0.333003
0.341282
0.272196
0.33056
0.317184
0.316295
0.255097
0.335442
0.311467
0.30133
0.33982
0.337581
0.340663
0.330894
0.322871
0.330091
0.281838
0.329974
0.333746
0.337454
0.306501
0.268994
0.336263
0.297674
0.281966
0.335559
0.30527
0.340395
0.282975
0.338801
0.330345
0.322293
0.281758
0.33581
0.268274
0.281343
0.297083
0.27426
0.288998
0.282039
0.277805
0.321646
0.268369
0.267553
0.309002
0.330914
0.309467
0.290105
0.333751
0.32866
0.281044
0.336108
0.332265
0.332914
0.269814
0.279506
0.325946
0.266718
0.315864
0.247619
0.318442
0.251011
0.340448
0.311147
0.316746
0.272383
0.264543
0.285211
0.317144
0.277383
0.32618
0.331121
0.323225
0.335548
0.328858
0.323445
0.288047
0.343341
0.312417
0.316064
0.330173
0.284014
0.293002
0.27212
0.33971
0.330948
0.314348
0.319111
0.297624
0.306518
0.263242
0.300302
0.266667
0.339458
0.282221
0.308793
0.316437
0.321932
0.270012
0.300454
0.312793
0.317368
0.31282
0.328895
0.3188
0.297115
0.328567
0.335296
0.314802
0.26476
0.331014
0.268298
0.313957
0.259379
0.287415
0.313753
0.246025
0.28088
0.333882
0.339371
0.263114
0.310643
0.269281
0.253317
0.265149
0.267992
0.282749
0.27679
0.284527
0.337372
0.333494
0.305163
0.340568
0.313149
0.332918
0.31462
0.33449
0.334048
0.28092
0.3312
0.34365
0.318256
0.329889
0.259358
0.339934
0.300886
0.173073
0.326112
0.331159
0.340395
0.3379
0.333989
0.332094
0.281506
0.313279
0.321985
0.327653
0.183213
0.301633
0.256757
0.313208
0.322193
0.264063
0.267502
0.287527
0.276016
0.273246
0.316408
0.313396
0.329215
0.340871
0.268107
0.344274
0.268485
0.301258
0.341175
0.307568
0.314302
0.324784
0.190234
0.279953
0.325358
0.340663
0.274913
0.289268
0.319215
0.33675
0.267499
0.339339
0.274365
0.318498
0.319237
0.300765
0.328317
0.338214
0.335603
0.260376
0.33536
0.328094
0.335759
0.268966
0.323308
0.292336
0.264873
0.268298
0.30233
0.323725
0.320669
0.334992
0.311791
0.272224
0.32596
0.278717
0.275813
0.312514
0.317221
0.271609
0.33511
0.275236
0.275584
0.285058
0.318444
0.27257
0.2469
0.333712
0.301747
0.325787
0.276997
0.259524
0.322823
0.224972
0.328523
0.325989
0.27402
0.270661
0.347332
0.289129
0.271358
0.265747
0.257668
0.286311
0.328963
0.337895
0.272101
0.279576
0.337693
0.31535
0.274126
0.275236
0.308373
0.340844
0.331482
0.2741
0.26162
0.331705
0.345202
0.319564
0.323438
0.316696
0.261706
0.317538
0.335676
0.322398
0.265658
0.339116
0.317906
0.257837
0.330032
0.276591
0.341365
0.32804
0.272317
0.315199
0.311398
0.313404
0.270809
0.321518
0.286085
0.334667
0.336277
0.339211
0.281488
0.27837
0.33895
0.332229
0.293472
0.329345
0.315747
0.265763
0.325721
0.319352
0.264266
0.223574
0.288315
0.289507
0.274216
0.273459
0.300636
0.286225
0.333192
0.277049
0.275336
0.315435
0.269424
0.340825
0.266958
0.319732
0.318948
0.266568
0.327247
0.314081
0.333073
0.323596
0.338281
0.277229
0.274326
0.341611
0.263215
0.340011
0.331857
0.317094
0.29995
0.34021
0.316392
0.266347
0.34173
0.260249
0.321153
0.342451
0.263819
0.341788
0.276138
0.317434
0.201668
0.318213
0.269095
0.325451
0.287927
0.260512
0.289522
0.265642
0.267988
0.339737
0.266739
0.311202
0.328491
0.317164
0.331096
0.331665
0.314489
0.268484
0.342997
0.311215
0.337936
0.272213
0.317042
0.33093
0.298828
0.340359
0.31703
0.320129
0.282867
0.305021
0.248724
0.257654
0.340805
0.143699
0.330453
0.335849
0.283923
0.269339
0.292493
0.329015
0.32205
0.336476
0.320835
0.327695
0.323317
0.342897
0.3418
0.269385
0.327987
0.330089
0.322567
0.328504
0.314289
0.270073
0.271798
0.314184
0.321122
0.306842
0.340787
0.267715
0.2733
0.308226
0.30099
0.320694
0.329578
0.278947
0.281384
0.288043
0.305095
0.278128
0.338168
0.271482
0.295185
0.313551
0.297434
0.267589
0.267946
0.333427
0.271928
0.268546
0.340359
0.3185
0.303681
0.268861
0.268023
0.292207
0.340916
0.334768
0.302601
0.322763
0.321532
0.344667
0.331726
0.27824
0.338248
0.288367
0.326045
0.333099
0.33946
0.323579
0.339032
0.333103
0.266891
0.256647
0.310696
0.297564
0.292209
0.218181
0.224035
0.337959
0.340004
0.270657
0.338681
0.32329
0.338407
0.31842
0.272022
0.343302
0.341233
0.318647
0.265102
0.270941
0.330376
0.338387
0.326323
0.26547
0.291468
0.32661
0.341118
0.333415
0.316503
0.304119
0.330234
0.300199
0.301203
0.328208
0.302394
0.33046
0.211772
0.341057
0.316203
0.325888
0.338716
0.264397
0.270993
0.273428
0.288381
0.341118
0.280832
0.32346
0.214963
0.279132
0.306725
0.281278
0.272957
0.318143
0.277494
0.275911
0.314908
0.315778
0.33555
0.291993
0.320614
0.34023
0.29964
0.332871
0.324699
0.336595
0.318908
0.281016
0.328951
0.268997
0.286589
0.329793
0.338025
0.338368
0.321757
0.257116
0.329921
0.321338
0.295481
0.338557
0.330818
0.338038
0.336154
0.26709
0.261714
0.325512
0.269986
0.322566
0.325285
0.267959
0.338962
0.32939
0.335996
0.31234
0.319481
0.269788
0.300771
0.335191
0.275907
0.330078
0.334435
0.287051
0.318637
0.30533
0.327466
0.332429
0.319533
0.26876
0.338671
0.257027
0.209019
0.287663
0.329551
0.26354
0.340825
0.298987
0.25668
0.320889
0.328717
0.330837
0.184187
0.32062
0.330102
0.33706
0.301172
0.341313
0.328288
0.262817
0.321234
0.304021
0.307345
0.260059
0.334335
0.318399
0.275256
0.263344
0.32311
0.316728
0.254308
0.313593
0.339567
0.279126
0.34206
0.267852
0.251907
0.263873
0.321352
0.307982
0.268408
0.256045
0.253789
0.319929
0.318029
0.339438
0.3059
0.339483
0.26424
0.320557
0.268809
0.287218
0.257257
0.32369
0.327589
0.286706
0.285789
0.3329
0.296176
0.334426
0.338301
0.282239
0.310794
0.324344
0.310938
0.336717
0.330558
0.330612
0.312882
0.283639
0.315808
0.290234
0.349145
0.31515
0.285308
0.252392
0.284193
0.323595
0.329667
0.313547
0.330367
0.311793
0.301251
0.292186
0.263697
0.282796
0.285836
0.338605
0.27415
0.273821
0.273152
0.329248
0.3128
0.274682
0.26879
0.260951
0.341386
0.306315
0.294952
0.282275
0.30319
0.269113
0.310728
0.320773
0.273235