/*--------------------------------*- C++ -*----------------------------------*\
  =========                 |
  \\      /  F ield         | OpenFOAM: The Open Source CFD Toolbox
   \\    /   O peration     | Website:  https://openfoam.org
    \\  /    A nd           | Version:  6
     \\/     M anipulation  |
\*---------------------------------------------------------------------------*/
FoamFile
{
    version     2.0;
    format      ascii;
    class       volScalarField;
    location    "0";
    object      P_rec;
}
// * * * * * * * * * * * * * * * * * * * * * * * * * * * * * * * * * * * * * //

dimensions      [0 2 -2 0 0 0 0];

internalField   nonuniform List<scalar> 
13046
(
1.46244
1.33802
1.49738
1.44649
1.50776
1.38412
1.41845
1.37547
1.51669
0.868633
0.849283
1.47401
1.43009
1.28335
1.5044
1.03596
1.46329
0.873561
1.51536
1.45001
1.40828
1.00606
1.46962
0.874175
1.46365
1.394
1.48674
1.41372
1.26673
1.50026
1.48016
1.30834
1.48767
1.47525
1.49137
1.40432
1.46651
1.49502
1.42519
1.5071
1.44834
1.27968
1.4518
1.4875
1.45933
1.44731
1.48554
1.45278
1.43813
1.33375
1.50327
1.3827
1.52544
1.19979
1.37165
1.17688
1.53211
1.01171
1.34403
1.45253
1.28471
1.24455
1.52157
1.48736
1.0092
1.11797
1.38226
1.01875
1.44202
1.41038
1.04454
1.44181
0.973009
1.31318
1.45146
1.51567
1.46153
1.38136
1.46188
1.24001
0.955073
1.45027
1.38526
1.49299
1.48148
0.970259
1.06431
1.05065
1.50215
1.05926
1.50396
0.93745
1.07551
1.31739
1.27688
1.15701
1.13738
1.49528
1.50067
1.50693
1.05613
1.08351
1.44464
1.49837
1.43691
1.53824
1.24609
1.37548
1.5189
1.4152
1.24322
0.609541
1.46492
0.720531
1.4405
1.31136
1.4998
1.29064
1.32212
1.08964
1.48358
1.13235
1.4864
0.817054
0.813126
1.47057
1.3833
1.20066
1.50337
1.49808
1.45739
1.27311
1.50668
0.979831
1.10865
1.20306
1.10625
1.50188
1.47011
1.28223
1.48524
1.34528
1.34714
1.52133
1.51938
1.39587
1.23982
1.53508
1.27946
1.39003
1.27446
1.21095
1.51895
1.53729
1.34754
1.3969
1.31836
1.17438
1.29038
1.16907
1.53284
1.53207
1.32067
1.34308
1.5291
0.849872
1.47889
0.867101
0.696788
1.4663
0.749961
1.18723
1.07619
1.49707
1.50049
1.19385
1.44992
1.32628
1.5297
1.36421
1.48758
0.92477
0.881451
1.50501
1.22446
1.44441
1.53662
1.32115
1.38884
1.36387
1.35998
1.5188
1.26785
1.51676
1.3966
1.23219
1.50041
1.02602
1.4928
1.0028
1.51106
1.04093
1.11593
0.950374
1.04343
1.50066
1.37098
1.12987
1.51678
1.39021
1.26375
1.45307
0.947903
1.00755
0.925415
1.49857
1.44745
1.50206
1.42604
1.43686
1.2718
1.49295
1.51189
1.01831
1.12473
1.37503
1.28487
1.52171
1.47541
0.810516
0.716173
1.51986
1.12923
1.35231
1.0082
1.07559
1.50521
1.23804
1.31691
1.53463
1.37875
1.18797
1.49928
1.19877
1.04576
1.51504
1.13375
1.26815
1.52522
1.47588
0.807159
0.661536
1.52486
1.4285
1.21807
0.650636
1.4574
0.665154
1.51058
1.42046
1.43241
1.26896
1.27039
1.299
1.32495
1.53516
1.52477
1.45416
1.19612
0.933071
1.41393
1.20559
1.48804
1.1211
1.23648
1.52647
1.24133
1.0926
1.49124
1.46712
1.44717
1.48463
1.2082
1.28858
1.5321
1.41923
1.18174
1.48358
1.38953
1.37688
1.52682
1.41947
1.19066
1.20116
1.26058
1.52849
1.19175
1.49025
1.07137
1.53277
1.42121
1.26114
1.53281
1.14293
1.31265
1.34272
1.09572
1.47189
1.52431
1.39531
1.1873
1.30869
1.28677
1.06648
1.47067
1.06329
1.47817
1.48538
0.940284
0.928791
1.34852
1.14968
1.48652
0.625867
1.4621
0.439175
1.38089
1.52132
1.40523
1.31494
1.26581
1.51945
1.49577
1.08328
1.03215
1.35851
1.14562
1.52979
1.16945
1.03581
1.51449
1.32264
1.5134
1.31095
1.22732
1.51129
1.32402
1.52289
1.09456
1.46525
0.907799
1.37848
1.09787
1.51607
1.28556
1.20452
1.50629
1.32014
1.34
1.53018
1.23909
1.37654
1.53313
1.45328
1.35226
1.50499
1.5244
1.14683
1.32963
0.99318
1.01492
1.49548
1.16644
1.04371
1.51591
1.43512
1.43301
1.07791
1.26975
1.30237
1.03129
1.0029
1.45927
1.4628
1.46064
0.641869
0.511663
0.705498
1.45841
0.687642
1.2494
1.27751
1.52104
1.48887
0.999858
0.970035
1.38835
1.36918
1.08384
1.07522
1.46076
1.46224
1.49039
0.957559
0.807353
0.61435
1.45469
0.62258
1.4107
1.49845
1.46834
0.594075
0.679568
1.46185
1.48339
1.19329
1.45541
0.900519
0.947467
1.49066
0.640837
1.46654
0.29445
1.51192
1.44621
1.30883
1.40799
1.42744
1.51043
0.830478
1.46955
0.796362
1.38981
1.415
1.51523
1.42744
1.49211
1.47127
1.52966
1.09908
1.33965
1.36857
1.45208
1.51447
1.38142
1.41757
1.52101
1.45875
1.08997
1.42574
1.47265
1.47853
0.885337
0.888018
0.963404
0.940546
0.933322
0.992192
1.49206
1.43725
1.42584
1.04489
1.50923
1.43279
1.23506
1.10577
1.26826
1.51958
0.748709
1.47184
0.423446
1.50193
0.920083
1.04544
0.737186
1.47019
0.787982
1.46554
0.604653
0.251377
0.560678
1.46055
0.332595
1.21293
1.19539
1.51692
0.873867
1.48227
0.647966
1.16195
1.10118
1.50356
0.965973
1.45221
0.791819
1.41856
1.50691
1.33612
0.988462
1.49454
0.855485
1.11616
1.52095
1.2889
1.22017
1.12426
1.52674
1.46344
0.459719
0.0315416
0.656946
1.46485
0.40092
1.4357
1.51237
1.35372
0.934232
0.800204
1.48752
1.48831
0.743532
0.93592
1.0097
1.48317
0.954788
1.4637
0.949278
1.16684
1.48289
1.07473
1.42042
1.03635
1.33927
1.46371
1.45709
1.12137
0.879155
1.4548
1.43926
1.2158
1.18712
1.47456
1.47904
1.47259
1.21867
1.46574
1.41444
1.06963
1.45666
1.18685
1.08604
1.51788
0.991008
0.92034
1.49699
1.51321
1.08628
1.14862
0.575664
1.45978
0.403187
1.50546
1.49084
1.47305
1.3087
1.48286
1.32277
1.45458
1.45424
1.44893
1.11861
1.45283
1.14653
0.674493
1.46835
0.294477
0.947189
0.847905
1.48995
1.50538
1.41357
1.17504
1.22546
1.07433
1.52006
1.46225
0.962644
1.201
0.734564
0.551885
1.47003
0.772047
0.588383
1.47263
1.37081
1.09972
1.47353
1.53709
1.41481
1.28654
0.970608
1.47992
0.922131
1.199
1.15636
1.52032
1.48964
1.02899
1.16488
1.47074
1.4445
1.14791
1.24493
1.33917
1.53242
1.51519
1.43793
1.26172
1.48119
0.913249
0.920061
1.24731
1.07238
1.4848
1.51143
1.45807
1.32159
1.06791
1.45258
0.841943
1.46107
1.27059
1.48212
1.37061
1.37606
1.53082
1.23508
1.15938
1.52424
0.813817
1.4553
0.7243
0.862048
1.45351
0.73457
1.48407
1.01039
1.16755
1.20805
1.34186
1.52874
1.45143
0.680513
0.744858
1.50084
1.06979
1.11948
1.46545
0.58321
0.153851
0.279217
0.5095
1.45732
1.46375
0.906884
1.13053
1.47947
0.855755
0.789875
1.02781
1.06925
1.47108
0.910228
1.47637
0.947127
1.09738
1.08244
1.50337
1.52794
1.24896
1.06163
1.48994
1.48611
1.35056
1.11651
1.13054
1.51318
1.51646
1.12894
1.15658
1.15987
1.45353
0.891289
1.44418
1.08975
1.44987
1.4652
1.16767
1.45205
1.21821
1.19015
1.51532
1.19299
1.18445
1.51747
1.51427
1.45166
1.34961
1.43806
1.16392
1.47794
1.4963
1.00311
0.848041
0.554351
1.47533
0.788509
0.497726
1.47492
0.783371
1.49528
1.45907
1.24627
0.706051
1.46866
0.458792
1.21247
1.48223
1.03015
1.46928
0.71675
0.399526
1.44402
1.51024
1.40571
1.3715
1.24151
1.50769
1.35855
1.21116
1.5313
1.48595
0.896356
0.710721
1.20614
1.15334
1.52312
1.45525
1.02307
0.833499
1.33646
1.21983
1.50964
1.49081
1.48928
1.36889
0.896419
0.752431
1.48505
1.49406
1.03479
1.12441
0.786895
0.731299
1.46219
1.462
0.758158
0.731412
1.30263
1.30887
1.53015
1.23795
1.21804
1.51887
1.39462
1.37393
1.52294
0.83024
0.622501
0.842005
1.47828
0.611734
1.48008
1.27354
1.15855
1.50883
0.744614
0.682316
0.870454
0.840021
1.48278
1.47938
1.21645
1.26283
1.53131
1.35444
1.28314
1.51612
0.920086
1.45723
0.782573
1.32811
1.29074
1.52763
1.38911
1.34752
1.52122
0.823102
1.45702
0.755843
1.34601
1.18893
1.49922
1.29964
1.08589
1.52263
1.47827
1.12237
1.43465
1.1315
1.50843
0.983918
1.46264
0.498346
0.112336
1.32429
1.26026
1.51632
0.958138
1.46375
0.839571
1.40138
1.086
1.50143
0.457512
1.45331
0.568569
1.52995
1.52782
1.40519
1.31918
1.40282
1.29677
1.39241
1.38624
1.52391
1.5181
1.52443
1.43069
1.31352
1.43398
1.31987
1.34598
1.30685
1.52642
1.35001
1.31381
1.5284
1.47733
0.812556
0.526726
1.48409
1.24496
1.46233
0.803905
0.88389
1.48244
1.2108
1.17622
1.16044
1.13031
1.50881
1.50531
1.47412
1.27596
1.47098
1.40908
1.11767
1.46152
1.26858
1.2
1.51567
1.4887
1.40373
1.47402
1.1569
1.14556
1.51306
1.49452
1.47132
1.34957
1.24857
1.2524
1.52766
1.40533
1.14401
1.46595
1.4902
1.50005
1.38462
1.48044
1.38126
1.46934
1.51591
1.4371
1.52474
1.35722
1.44531
1.33711
1.45243
1.43931
1.23988
1.23752
1.48242
1.48408
1.46911
0.974031
1.17671
1.5221
1.11384
1.32226
1.47327
1.47747
0.947934
0.96742
1.12923
1.11976
1.51967
1.39503
1.15318
1.47655
1.48024
1.43459
1.1493
1.12047
1.50916
1.50061
1.46774
1.28152
1.38867
1.13626
1.47065
1.25048
1.25439
1.0028
1.47076
1.02558
1.47445
1.23489
1.14143
1.50418
0.525008
0.610287
1.45517
1.39337
1.10975
1.50636
1.49001
1.49345
1.41172
1.09608
1.42032
1.12139
1.10978
1.1776
1.51847
1.4251
1.1322
1.46083
1.51685
1.40275
1.14943
1.4877
1.49261
1.42594
1.44479
1.17105
1.17173
1.48342
1.42866
1.13534
1.23848
1.16557
1.51032
1.50264
1.46472
1.36076
0.881207
1.46585
0.811668
1.51104
1.40483
1.126
1.39306
1.36318
1.15242
1.13211
1.47451
1.48351
1.46627
0.846334
0.934953
0.926399
1.46164
0.80643
0.877638
1.46086
0.788066
1.21616
1.47599
1.01093
1.43632
1.16275
1.46501
0.950255
1.08143
1.31093
0.955105
1.22402
0.738902
1.15392
1.03094
0.933704
1.22281
1.22135
0.909388
0.962825
1.20718
1.05949
0.974446
0.985077
1.03904
1.07902
1.17781
1.09478
1.0339
1.24875
1.44649
1.33461
1.08584
1.23827
0.919742
1.11538
0.953956
0.931721
1.15305
1.07918
1.08075
0.956678
1.09298
1.31204
1.2406
1.00738
1.11492
1.01171
1.44995
0.97596
1.20983
1.27105
1.02441
1.03025
0.990201
0.915527
0.975544
1.35024
1.10298
0.976983
1.01604
0.929395
1.3457
1.17665
1.08625
0.986051
1.19789
0.971662
0.983378
1.33914
1.04975
1.08327
1.18102
1.10687
1.40608
1.24375
1.21964
0.88791
0.92308
1.02401
1.1993
0.912557
1.08133
1.08176
0.950645
1.18642
1.2847
1.04062
1.07485
0.919826
0.967003
1.0097
1.19514
1.01147
0.986409
1.0502
1.34587
0.980238
1.20051
1.32695
1.08554
0.97041
0.678848
0.959535
0.99344
0.968423
0.885105
1.13399
1.25456
1.27968
1.40908
0.969974
0.963779
0.919009
0.990486
0.961341
1.30941
1.26308
1.17832
0.954667
0.924845
1.12555
1.23848
1.03359
0.986051
0.872403
1.03538
1.07247
1.35235
1.39705
1.2047
1.09276
1.02978
0.90926
1.38222
0.906995
1.19486
0.878937
1.33902
0.920834
0.881468
0.937774
1.28415
1.07059
0.847969
0.974374
1.16087
0.971094
1.20283
1.14026
0.993906
1.26111
1.01514
0.961842
1.29838
0.978932
1.04047
0.909691
1.10353
1.00404
1.27746
1.2017
1.02919
1.1968
1.2037
1.31214
1.08655
1.01944
0.990392
1.20749
0.905277
1.10787
0.923722
1.43872
1.03505
1.27238
1.38634
1.09968
1.39075
1.2841
1.31551
0.94296
0.874825
0.908298
1.31566
0.94783
0.930155
0.897399
0.931511
1.04356
1.01296
1.10032
1.38382
1.20225
1.01581
1.18661
1.00344
1.44387
0.854492
1.25471
0.994077
0.862469
1.36647
1.40084
0.988954
0.99382
1.43463
1.12016
0.994999
0.964204
1.20211
1.30268
1.17256
0.976186
0.986733
1.21998
1.09355
0.961968
1.11855
0.902328
0.941017
1.03116
1.22368
0.878296
1.01823
1.25692
1.00485
0.875262
1.02584
0.980657
1.01229
1.14426
1.15692
0.961741
0.928045
0.932591
1.18152
1.16912
1.03244
1.16625
1.01775
0.949553
1.13062
1.01586
0.860233
1.16786
1.29766
1.11113
1.33964
1.29435
1.45067
0.973685
0.839815
1.05301
1.02599
1.00743
0.884982
1.12922
1.35571
1.17934
1.1264
0.968232
1.03582
1.19217
1.08807
1.152
0.979951
1.05265
1.01166
0.890133
0.965572
0.996013
0.980288
0.948289
1.16019
1.0907
1.02683
1.16712
0.969941
1.04655
0.975178
1.02766
1.0069
0.99988
1.12041
0.885893
0.836952
1.06145
0.903789
0.881695
1.1266
0.866899
0.88082
1.27924
1.17212
0.972569
1.17762
0.937537
1.15681
1.11053
0.899788
0.975208
1.24037
1.05483
1.19408
0.744198
0.955351
1.27829
1.007
0.943252
0.817839
0.892317
0.869866
0.899799
1.01348
1.17205
0.947899
0.866676
0.961711
1.00345
1.44635
0.957351
1.19886
1.12212
0.876082
1.03352
0.966988
0.923295
1.1477
1.0184
1.35716
1.17262
0.959918
1.02014
1.10449
1.44554
1.18442
1.31522
1.21098
1.01815
1.10187
1.04169
0.955808
0.892474
0.996491
0.989416
1.15938
0.980385
0.910066
0.972605
1.01521
0.969123
0.980381
1.25943
1.00927
0.998983
1.33169
1.25521
0.965167
1.08674
1.30418
0.962105
0.857326
1.02279
0.950946
0.923962
1.28453
0.965172
1.04322
1.30656
0.88194
1.10058
0.97861
1.09812
1.02348
0.990243
0.704424
1.02997
0.910225
0.987581
1.02478
1.02342
1.18473
1.34733
0.967697
1.08805
1.01133
0.93139
0.856457
1.24461
1.13924
0.993224
0.910985
1.11934
0.907479
0.965659
0.967178
0.962269
1.20576
1.32144
1.01417
1.1839
1.41458
1.25853
1.24858
1.31598
0.995028
1.00466
0.925974
1.44094
1.23373
1.27588
0.98504
1.0144
0.869661
1.19804
1.01816
0.951062
1.27861
1.15454
0.914518
1.02446
0.974656
0.972968
0.979862
1.02019
1.0269
0.940746
1.0143
0.896916
1.03437
0.946006
1.1506
1.05148
0.878817
1.31311
1.33934
1.20545
1.00322
1.10593
0.857787
1.22569
1.09262
0.911404
1.30332
0.806762
1.36085
0.900711
1.04054
1.06238
1.20668
1.21945
0.968155
1.39229
0.977151
1.25577
1.03882
1.15054
1.0065
0.954544
0.99293
1.25829
1.05573
1.43385
1.18555
0.892092
0.959454
1.15582
0.824181
1.00546
1.04157
0.94182
1.35653
0.918818
0.903656
1.22373
0.991184
1.35646
1.41616
1.02008
1.43498
1.36087
1.27743
1.28338
1.1161
0.918609
0.971885
1.02785
1.25117
1.03221
0.804385
1.38944
0.94808
1.03985
0.965709
1.32021
1.44233
0.954935
1.25803
1.12643
1.34422
1.02651
1.21339
1.02798
1.39097
1.42873
1.16477
0.971513
1.22161
0.999759
1.0756
1.08571
1.04804
1.13
0.975384
0.813275
0.928058
1.05987
1.14155
1.09832
1.27924
0.959029
1.01494
1.14534
0.928779
1.33459
0.956723
1.02794
1.30474
1.27322
1.11189
1.40345
0.962789
1.00984
1.20867
1.07278
1.05095
1.03984
0.996374
1.15687
1.18062
0.996004
0.974946
1.11025
0.891492
0.940723
1.34639
1.40092
1.42974
1.03086
1.42915
1.43848
1.36742
0.853018
1.12458
1.12576
1.40262
1.01014
0.963486
0.91317
0.970012
0.78538
1.38658
1.05351
1.06455
1.21897
1.1681
1.00759
1.02576
1.4375
1.36932
1.31876
1.16628
0.990731
1.18741
1.14836
1.01012
1.05902
0.928585
0.965736
1.08684
1.06017
1.00558
1.33986
1.35219
0.858214
1.27974
0.982867
0.975317
1.02473
1.32933
1.03579
1.17333
1.04524
1.32326
1.01781
1.04509
1.42073
0.864293
0.888822
0.963639
0.947327
0.836429
0.641139
0.954997
0.838748
1.06767
0.853865
0.93529
1.06279
0.976178
0.95816
1.01131
0.919621
0.680722
1.35972
1.25223
1.01682
0.9131
1.25735
0.997039
0.961928
1.42071
0.960976
1.4155
1.04087
1.29311
1.02632
0.878489
0.93072
1.09539
1.09901
1.06892
0.884234
1.02061
0.940159
0.944698
0.977257
0.881524
0.922985
1.37951
0.954107
1.1931
1.22198
1.01332
1.21832
1.22701
0.912648
0.647481
1.0414
0.893594
0.84299
1.18637
1.20647
1.02085
1.14603
1.01195
1.41811
1.35431
1.04215
1.00274
1.39662
1.2952
1.1328
1.135
1.01446
1.42877
1.08313
0.857016
1.32663
1.23879
1.35013
1.0983
0.97258
1.02188
1.21019
1.15261
0.576733
1.45426
1.04017
0.966008
1.0891
1.27359
1.4091
1.42502
1.14789
1.06365
1.23313
1.29281
1.3027
1.18653
1.25026
0.88712
0.978868
1.11467
0.925768
0.878329
0.880814
1.03678
1.23274
0.895844
1.09022
0.97119
1.24608
1.42504
1.05356
0.917376
0.872262
1.19461
0.996134
0.967046
0.871403
1.32355
1.11437
1.12869
0.904188
1.12333
0.966224
0.978397
1.19495
1.23216
1.32002
1.43864
0.953928
1.29245
0.859349
1.31961
1.35235
1.35249
1.22388
0.942072
0.941174
1.02527
0.85554
1.0749
0.879628
1.1216
0.908967
1.28474
1.0138
0.866486
1.27299
1.20256
1.05377
1.05417
1.18125
1.32101
1.10787
1.07518
0.862895
1.24716
1.07278
1.36107
0.839328
1.062
1.32979
1.19859
1.40534
1.19446
1.02116
0.826577
0.866056
1.0571
0.88799
1.37375
0.864441
0.974308
1.05051
0.96532
1.22951
0.843411
1.31036
1.21338
1.13012
0.813592
1.1525
0.935366
1.00236
1.0598
1.05141
1.00817
0.999684
1.23536
0.949289
1.41596
1.0029
1.04033
1.16873
1.19762
1.37989
1.00936
1.04032
0.95791
1.06246
0.988155
1.37086
0.968392
1.08013
1.01335
1.2462
0.969888
1.09986
0.919087
1.42774
0.853054
0.940401
0.972316
1.25983
0.870475
0.874651
0.932209
0.909629
1.3384
1.07446
1.1738
1.29444
1.15206
1.05243
1.42758
1.06396
1.20215
1.15307
1.09193
0.880706
1.10719
1.05798
0.985845
1.10813
0.920998
0.892018
1.09858
0.991694
0.947428
1.23138
1.0589
1.16282
1.05432
1.34461
1.04975
1.03327
1.15561
0.908438
0.96335
1.01401
1.09786
1.11247
1.15234
1.32273
1.19084
1.25383
1.09397
1.2965
1.38703
1.38175
1.07363
1.0802
1.12447
0.919673
1.40531
1.28745
1.25469
1.07422
0.945478
0.885518
1.12598
1.19536
0.962008
1.24923
1.28701
1.14314
0.977483
1.08345
0.994624
0.953984
1.07752
0.978897
1.12793
0.873192
1.12816
1.05096
1.04262
0.844253
1.11048
1.07906
1.17722
1.01504
1.11698
1.33922
1.34915
1.13683
1.04423
1.255
1.0943
0.966337
0.96254
1.03441
0.90247
1.31513
1.06509
1.10558
1.21453
1.19087
1.14744
0.915656
1.42041
1.15232
0.97212
1.07051
1.0826
1.25596
1.3363
1.15863
1.13366
0.872536
0.948809
1.04666
1.13661
1.07825
1.14025
0.986798
1.34375
1.1337
1.21332
1.30036
1.11012
0.963214
1.09344
1.39796
0.987729
0.867826
1.09133
1.40534
1.00254
1.03675
1.24346
1.18931
1.26191
1.06623
0.87749
1.1399
0.916673
1.00818
1.2738
1.06188
0.924854
0.963933
1.00026
1.15351
1.01379
0.985044
1.29948
0.97639
1.42869
1.26175
0.911027
0.830539
1.07104
1.19579
1.29658
1.06903
1.04612
0.944411
1.02277
1.05364
1.43779
1.31878
1.19833
1.00736
0.886356
1.31911
1.43508
1.34128
1.24956
1.31343
1.08877
0.921298
0.852093
0.869536
1.37519
1.08168
0.917603
1.02453
1.43204
1.01541
0.979222
0.89822
1.06864
0.95828
1.3925
1.14534
1.20663
1.32596
1.26662
1.03247
1.17125
1.08856
1.18388
0.981331
1.14172
0.988381
1.3708
0.888092
1.00407
0.909843
1.02935
1.33662
1.01802
1.27461
1.278
1.32106
0.935065
1.08256
1.04442
0.951394
1.35429
1.0958
1.09775
1.13978
0.761153
1.02951
1.33542
1.17155
1.35203
0.860275
0.938657
1.01724
1.38117
0.945843
1.05702
0.949366
0.905943
1.00837
1.34215
1.02924
1.05148
0.903014
1.38021
1.41098
0.770232
1.32587
1.00978
0.936821
0.943059
1.08577
0.893947
1.14857
1.01433
1.00437
1.03722
1.28388
1.07354
1.26438
1.0399
0.932491
1.03488
0.860235
0.885079
1.06189
0.990419
1.11325
0.946282
1.04983
1.285
1.13785
1.00506
0.874961
1.31103
1.07617
1.05895
1.44832
1.11179
1.00075
0.96899
0.908934
1.39361
0.997011
1.05817
1.15054
0.905035
1.31703
0.891
1.29542
1.07782
1.22176
0.952461
1.2375
1.05122
0.913848
0.963088
1.07889
1.31576
0.828723
0.967305
1.00641
1.36641
1.41974
0.938037
0.994837
1.1431
1.35486
1.04915
1.3365
1.30208
1.25624
1.21458
1.12128
1.166
1.14987
1.35909
1.05703
1.09606
0.937909
0.975119
1.05352
0.946053
1.3965
0.889648
1.32759
1.05068
1.38237
0.991986
1.40721
1.22265
1.26989
1.38368
1.34103
1.44452
1.03119
1.31649
1.0749
1.01362
0.966568
0.947721
1.35067
0.892174
1.15022
1.15478
1.04619
1.14533
0.982412
1.32652
1.09859
1.22994
0.848547
0.968374
1.01909
1.37485
0.945372
1.17753
0.981998
1.02168
0.921258
1.04211
1.01431
1.26316
1.36723
0.895884
1.14302
1.01984
0.99603
1.27851
0.949995
0.970974
1.37918
0.870547
1.10217
1.19902
1.33985
1.42235
0.984899
0.98084
0.90587
1.01848
0.954613
1.018
1.22371
1.00866
0.9189
1.04844
1.08271
1.00904
0.954976
1.00428
1.08759
0.914311
1.24681
1.22551
0.989323
1.23218
0.872229
0.898567
0.942802
0.865451
1.40222
1.01441
1.01205
0.983906
1.27797
1.35949
1.11076
1.21268
0.967654
0.972068
1.08622
1.0138
0.967015
1.35449
1.12213
1.16344
1.40594
1.24545
1.05981
1.38637
0.890956
1.1166
1.11116
1.15991
1.00432
1.34601
1.00876
1.14938
1.06648
1.00704
0.945657
0.987132
1.22576
1.2818
1.32156
1.08941
1.10366
1.35284
1.24341
1.05506
1.1073
0.930906
1.02686
1.27087
0.891661
1.29209
1.00528
1.30608
1.41934
1.36442
0.99889
1.27898
1.2974
0.832307
1.34599
0.960748
1.37456
1.25744
1.01506
0.944635
1.12153
1.03083
0.990567
0.96714
1.23689
0.992412
1.38794
0.940335
0.993603
0.950283
0.937316
1.0129
1.27412
1.41452
0.936313
1.22549
1.08679
1.15355
1.05103
1.13562
1.34773
1.26651
1.01014
1.33506
1.28439
1.41346
0.934911
0.988017
0.964617
1.21763
1.39693
1.28903
1.05954
1.40893
1.07261
0.898834
0.94305
0.826816
1.05988
0.921656
1.40535
1.4314
1.10808
1.42743
1.27427
1.11158
1.40039
0.929369
1.34091
1.02618
1.35605
1.02528
0.942859
1.21869
1.10997
1.37621
1.33734
1.34943
0.954392
0.955666
0.882326
1.28946
1.26387
0.930949
1.08309
1.26425
0.858191
0.994648
0.95588
1.01867
1.1393
1.01279
1.11149
1.1935
1.09401
1.10408
1.23645
1.01884
1.03299
1.14752
1.09488
1.02016
1.3164
1.35342
0.933137
1.25829
0.848609
0.989181
1.31288
1.23753
1.00333
1.3637
0.92865
1.2247
1.04136
1.03461
1.33074
1.02823
1.23153
1.22398
1.17889
1.44551
1.18958
0.907329
1.16719
1.04693
1.241
1.43411
1.18023
1.07488
0.96562
1.03509
1.33397
0.930936
1.26945
0.959288
1.12662
1.23971
1.22455
1.08528
1.31432
1.40862
1.02746
1.01958
1.10239
0.949789
0.919491
1.1156
1.22711
0.96511
0.907794
0.947902
0.905915
1.22428
1.06993
1.24644
0.986282
1.34989
1.08764
1.27461
1.39238
0.976319
1.34339
1.0191
1.10775
1.08463
1.29787
0.972333
1.04363
1.0926
0.947776
1.02414
0.937772
0.921719
0.849708
1.39853
1.41333
0.964563
0.984118
1.24069
0.891051
0.949911
1.0187
1.20417
1.22171
0.875799
0.848995
1.33525
0.977787
1.1414
0.971734
0.900101
0.943755
1.09587
1.28777
1.14743
0.894784
1.35626
1.28831
0.966156
1.1375
1.01158
1.38824
1.02401
1.05175
0.914004
1.18596
1.34213
1.15363
1.09481
0.978619
1.06611
1.14151
1.40309
1.4367
0.968582
1.41317
0.985916
1.1227
1.11983
1.05445
1.00908
1.30173
1.00228
1.11276
0.962545
0.966488
1.02
0.942471
1.18165
1.35522
0.96601
0.995209
1.11272
1.01384
0.945516
0.857462
1.01236
1.28859
0.81997
0.992893
1.20786
1.11525
1.06091
1.18145
1.26652
0.92676
0.924721
1.28395
1.05127
0.926262
1.07771
1.2954
1.17331
1.13109
0.97106
0.981188
0.965862
1.40476
1.29132
1.42289
1.05729
1.19872
0.928606
1.08116
1.29448
0.896934
0.904345
1.22976
1.29845
0.888064
0.997582
0.960335
0.914687
0.958526
1.43194
1.05023
0.99416
1.09045
0.96486
1.21028
1.10966
0.921609
0.995727
1.22999
1.06533
1.41001
0.916943
0.993656
1.16614
1.15268
1.06103
1.1392
0.945999
1.41949
1.31043
1.16938
1.3026
0.971362
1.28832
1.18162
1.15806
1.3862
0.891287
1.0086
1.42765
1.18515
0.884041
0.996448
1.26472
1.42208
1.08156
1.23791
0.967806
0.912025
0.957499
0.879875
1.29102
0.986097
1.09689
1.37227
0.972953
0.927712
0.979966
1.10322
0.984766
0.998424
0.971639
0.935454
1.06403
1.26696
1.38036
1.19969
1.00644
1.00735
0.870958
0.998714
1.16569
1.14749
1.17896
1.21335
1.00794
1.07361
1.25493
1.30471
1.42725
1.32122
1.39286
1.07128
0.925391
0.962134
0.93173
1.4044
1.10543
0.989512
1.3831
0.930548
1.25874
1.20474
1.00114
0.968597
1.00847
0.98551
1.30099
1.03636
1.2059
1.07449
1.37191
1.1294
1.44475
0.96051
1.07883
0.986922
0.841673
1.01831
1.21986
0.917977
0.749953
1.13117
1.34733
1.24582
0.984295
0.91989
0.960023
0.932468
0.970639
0.933698
1.05185
0.943007
1.22967
0.96148
0.984873
1.30601
1.07207
1.15187
1.28825
1.05003
1.09731
0.955089
1.23792
1.0338
0.99679
1.0575
0.947548
0.912151
0.983554
0.95029
1.23273
1.42704
1.3121
1.12595
1.20454
0.893903
1.41248
1.12687
1.21826
0.971442
1.21416
0.998348
1.02296
1.27327
1.35174
1.22573
1.13644
1.02031
1.43837
1.02184
1.25853
1.39836
1.19221
1.04332
0.888798
1.25453
1.11733
0.941833
1.18297
1.11319
1.36005
0.980606
1.37272
1.42939
1.04631
0.96104
1.3931
0.919749
0.94715
1.0238
0.946687
1.01275
0.950276
0.919717
1.0717
0.98218
0.956403
1.00485
1.14247
0.974657
0.975783
1.17423
1.09455
0.900345
1.36197
1.40212
1.39528
0.975154
0.895871
1.44929
0.911547
1.0602
0.952181
1.01397
0.967789
1.22539
1.00814
1.0097
0.906255
0.892891
0.94184
1.01005
0.883208
1.08174
1.11823
1.0726
1.37772
1.10069
1.17789
1.039
1.27896
1.01354
1.01677
1.42815
1.02223
1.10375
0.921883
1.19011
1.42367
1.03989
1.15173
1.11541
0.995469
0.968323
0.969918
0.939963
1.23337
0.951724
1.05026
1.00803
1.04884
0.961522
0.970817
1.06446
1.02796
0.998671
1.39304
1.06619
1.04192
1.13453
1.3569
1.01735
0.895649
1.24372
0.920843
1.03327
0.963325
1.06364
0.996419
1.0026
1.06285
1.4165
1.31119
0.903335
0.996349
0.892716
0.952379
0.882447
0.943548
1.01504
0.957113
1.02063
1.15987
1.43463
1.01536
1.20995
1.09144
1.40434
1.00927
1.42102
1.1609
0.927692
1.15297
1.21362
1.00819
1.28571
0.962195
1.32162
0.988482
0.78099
1.06492
1.4382
1.38411
1.23983
1.16103
1.19508
0.902256
0.985226
1.19517
1.44349
0.795322
1.07504
0.963633
1.01061
1.04836
0.961791
0.929905
0.989617
0.944666
0.992115
1.02253
1.05337
1.44154
1.27754
0.87997
1.24918
0.954328
0.964953
1.25837
0.987815
1.03215
1.18685
0.826863
0.972773
1.07673
1.30177
0.937113
0.980525
1.02498
1.1601
0.932186
1.3638
0.892361
1.01317
1.02844
0.982032
1.16409
1.1618
1.36371
0.965291
1.22239
1.12663
1.15039
0.967375
1.16323
0.95416
0.925037
0.864252
1.12258
1.06577
1.02711
1.31564
1.07784
1.09797
1.15933
0.967538
0.952019
1.01213
1.13887
0.972261
1.42829
0.921134
0.892992
1.02023
1.00888
0.978912
0.953943
1.20693
1.02166
1.07511
0.934018
0.962015
1.07561
0.906712
1.43612
1.37702
0.938211
0.962082
1.27565
1.08804
0.965648
0.917873
0.958973
0.937958
1.12091
1.35347
0.963224
0.898863
1.15916
1.06676
0.892998
0.937119
1.06926
1.20411
1.42184
0.926826
0.895988
1.1407
1.28757
1.03471
1.1208
1.02488
0.96483
1.01668
1.1611
1.06384
0.969125
1.26655
1.02609
0.86749
1.11042
0.986306
1.27015
1.44401
0.976046
1.01062
1.0155
1.00907
0.92447
1.01505
0.937844
1.38555
1.26881
1.2048
1.01632
0.906608
1.2481
1.41305
0.97474
1.10508
0.999607
0.847532
1.09173
1.00901
0.853235
0.943493
1.14844
0.927881
0.895898
0.942
1.24503
0.916875
1.25869
1.04987
0.980652
1.02464
0.956546
1.27189
0.870956
1.01611
1.04282
0.922708
1.11589
1.19898
1.13256
1.06967
1.24656
0.937761
0.937884
1.32948
0.965848
1.32289
1.1431
1.03722
1.11795
1.3144
1.06582
0.890086
1.35945
0.96295
1.04271
1.29412
0.961031
1.37176
0.973559
1.0285
0.836621
1.02576
0.9396
1.0724
0.947374
0.867151
0.937861
0.933982
0.851561
1.34973
0.933572
1.02706
1.12366
1.07468
1.41719
1.4228
0.991548
1.05651
1.2725
0.981854
1.35501
0.860442
1.02332
1.09949
0.976123
1.2873
1.00236
1.00593
1.00139
0.976281
0.951529
0.87158
1.31842
0.696405
1.35849
1.20883
0.949254
0.898291
0.945104
1.43476
1.20423
1.17017
1.05699
1.11667
1.03989
1.30757
1.23802
0.957845
1.14858
1.37928
1.05164
1.10115
1.15604
0.881728
0.933241
1.25176
1.01878
1.05594
1.37583
0.932234
0.865102
0.984259
1.05411
1.05579
1.39398
0.975444
0.91127
0.974304
1.05275
0.978675
1.33799
1.05366
0.948028
0.999677
0.97299
0.960747
1.00168
1.15175
1.07604
0.952142
1.31073
1.01559
1.26
0.95334
0.928043
1.02896
1.30092
1.40434
1.26184
1.08627
1.06434
1.25602
1.38206
0.92197
1.35711
0.940691
1.18096
1.16532
1.33262
1.08284
1.31351
1.35429
0.972029
0.956198
1.02866
1.07898
0.941352
0.918569
0.883579
1.23162
1.28614
0.918802
1.367
1.08122
1.25097
1.05866
0.951832
1.27026
1.24584
0.999202
0.992771
0.941338
1.42751
1.20037
1.44765
0.918515
0.940718
1.03452
1.29391
1.16139
1.2935
1.10357
1.38607
0.984937
1.0431
1.1015
0.996782
1.14861
0.861078
1.26777
1.06929
1.10532
1.35775
0.911054
0.921086
0.872113
1.12526
1.31921
1.0005
1.17447
0.869749
0.907804
1.05895
0.990459
0.969335
1.30115
1.07414
0.967122
1.03823
1.1331
1.35569
1.1318
1.02597
1.31969
1.08536
1.39568
1.09536
1.21153
1.02997
0.916627
1.43658
0.951408
1.11032
1.13338
1.35096
1.19536
1.06611
0.967543
1.43913
1.03502
0.953333
1.2384
1.41555
1.21505
1.1748
0.907248
0.861702
1.1131
0.953194
1.01947
1.09325
0.950819
1.35134
1.42317
1.36774
0.99607
1.01661
0.965486
1.01611
1.17636
0.932184
1.1926
1.38258
0.921368
1.00747
0.980951
1.27005
1.17701
1.01646
0.956658
1.21935
0.960287
0.849113
0.937607
1.44904
0.866445
1.26295
1.14824
0.961437
1.36636
1.11972
1.41161
0.818679
1.00502
1.0984
1.36581
1.01715
1.34604
1.12255
0.866721
1.06917
0.989777
1.02292
0.860901
1.24475
1.00848
0.958596
0.893734
1.07094
1.30775
0.817572
0.999574
1.32251
1.03179
1.2937
0.85816
0.959378
0.966095
1.03945
0.983256
0.906855
0.96061
0.828475
1.02204
1.02818
1.25106
1.10808
1.32711
0.960555
1.01704
0.909589
1.08433
0.825825
1.01836
1.44684
1.05228
1.00717
1.44125
0.957693
1.11304
1.15254
0.901459
0.998424
1.06128
1.12079
1.38063
1.41248
1.41714
1.12826
1.0388
1.04074
0.944458
1.27217
1.17703
0.980645
0.990309
1.00504
1.05608
1.41957
1.03976
1.40396
0.999873
1.15174
0.947005
0.964744
0.906426
0.992669
1.3441
1.00049
0.919677
0.939896
1.44226
0.999441
0.955223
0.948701
0.963744
1.20073
1.10252
1.10956
1.03404
1.20835
0.900588
1.06558
1.07467
1.01106
1.30729
1.31975
0.951699
1.33186
1.36762
1.30867
1.0881
1.0183
0.995124
1.03927
1.38653
1.05874
1.1317
1.32918
1.42066
1.3718
1.31156
0.963074
1.16185
1.07489
0.958089
0.886043
1.0425
1.3078
1.44206
1.38895
0.994025
0.941205
0.93093
0.88727
1.18189
1.43137
1.15182
1.22701
1.24687
1.24162
1.21968
0.955045
1.01215
0.986248
0.938467
0.979012
1.02778
0.920967
0.997877
0.971782
1.33853
1.13722
0.890365
1.39809
0.981512
0.981067
1.04996
0.943729
1.21915
1.21558
0.982264
1.14781
1.41533
1.42218
1.17687
1.20064
1.0639
1.08189
1.03927
0.907577
1.11635
1.11367
0.992086
1.17294
1.14513
0.920175
0.748019
0.980382
1.38555
1.0004
1.19806
1.01756
1.3556
1.04387
0.950344
1.26012
1.17772
1.18161
1.12767
0.93189
1.01644
0.911788
1.177
0.957566
1.2912
1.01918
0.981568
1.13353
0.909181
1.02839
1.43076
0.918624
1.20328
0.990145
0.94954
1.01876
1.02494
1.30649
1.32781
1.01982
1.38857
0.890376
1.33301
1.26693
1.23802
0.973882
1.29012
0.934915
1.21752
1.16415
0.850162
1.02832
0.927386
1.3925
1.19847
0.901328
0.94221
1.06059
0.960915
1.1919
0.955455
1.11955
1.44045
0.972863
1.40325
1.12489
1.18629
0.898374
1.29514
0.974019
1.31724
0.729868
0.94516
1.16822
1.24586
1.08827
1.20542
0.950153
1.03628
1.21841
1.1733
0.979647
1.22455
1.20088
1.31277
0.868328
1.02364
0.846016
1.12801
1.22688
1.12725
0.795052
1.00501
1.3595
1.13461
1.00815
1.33508
1.05625
1.21059
0.907772
1.04766
0.957518
1.32555
1.39331
1.19273
1.05618
1.02173
0.938304
1.17941
0.968886
1.28323
0.902621
1.05521
0.916565
0.878919
1.13635
1.34518
1.05631
1.0516
0.973819
0.95964
1.27683
1.04459
1.05991
1.44549
1.1774
0.979994
1.22439
1.30483
1.02915
0.924525
0.935911
1.07891
0.966893
0.998029
0.818256
1.16432
1.03733
1.31354
0.925392
1.21965
1.30284
1.0502
0.947679
1.03026
0.978494
1.02572
0.857902
1.11687
1.11548
1.07488
1.28906
1.29036
0.919586
1.37553
1.06569
1.30407
1.2001
1.00398
1.17241
1.1023
0.95356
1.36767
1.38156
1.37301
1.00907
1.27559
1.00669
1.25648
1.27204
1.18149
1.14813
0.944648
1.03841
1.18833
1.34098
0.991695
1.01965
1.18745
1.00037
1.23496
1.04657
1.17147
0.975361
1.36749
1.20638
1.23578
1.32853
1.41666
1.04228
1.03246
1.34058
0.890994
1.34302
1.22473
1.10243
1.05981
1.40887
0.999322
1.00397
1.01463
0.894241
1.123
0.951184
1.0999
1.36643
1.02681
1.24541
0.964875
0.945282
1.39404
1.17986
0.981745
0.7955
1.36543
0.799143
0.992137
0.978881