/*--------------------------------*- C++ -*----------------------------------*\
  =========                 |
  \\      /  F ield         | OpenFOAM: The Open Source CFD Toolbox
   \\    /   O peration     | Website:  https://openfoam.org
    \\  /    A nd           | Version:  6
     \\/     M anipulation  |
\*---------------------------------------------------------------------------*/
FoamFile
{
    version     2.0;
    format      ascii;
    class       volVectorField;
    location    "0";
    object      U;
}
// * * * * * * * * * * * * * * * * * * * * * * * * * * * * * * * * * * * * * //

dimensions      [0 1 -1 0 0 0 0];

internalField   nonuniform List<vector> 
10000
(
(-3.93673e-07 -2.52577e-07 0)
(5.74053e-05 -1.15894e-05 0)
(0.00018398 -2.19685e-05 0)
(0.000365221 -3.03069e-05 0)
(0.000590718 -3.66632e-05 0)
(0.000849546 -4.09769e-05 0)
(0.00113017 -4.31203e-05 0)
(0.00142076 -4.30301e-05 0)
(0.00170971 -4.08047e-05 0)
(0.00198636 -3.67144e-05 0)
(0.00224155 -3.11615e-05 0)
(0.00246799 -2.46201e-05 0)
(0.00266044 -1.75763e-05 0)
(0.00281574 -1.04821e-05 0)
(0.00293262 -3.72823e-06 0)
(0.00301156 2.36109e-06 0)
(0.0030545 7.51224e-06 0)
(0.00306446 1.15868e-05 0)
(0.00304591 1.51273e-05 0)
(0.00300124 1.82548e-05 0)
(0.00293395 2.05194e-05 0)
(0.00284779 2.19807e-05 0)
(0.00274632 2.27858e-05 0)
(0.00263288 2.30537e-05 0)
(0.00251044 2.28896e-05 0)
(0.00238172 2.23835e-05 0)
(0.00224908 2.16125e-05 0)
(0.00211459 2.06453e-05 0)
(0.00198002 1.95395e-05 0)
(0.00184687 1.83422e-05 0)
(0.00171636 1.7094e-05 0)
(0.00158951 1.58281e-05 0)
(0.00146713 1.45687e-05 0)
(0.00134981 1.33348e-05 0)
(0.00123801 1.21428e-05 0)
(0.00113204 1.10032e-05 0)
(0.00103212 9.92124e-06 0)
(0.00093832 8.90055e-06 0)
(0.000850668 7.94466e-06 0)
(0.000769113 7.05417e-06 0)
(0.000693552 6.22672e-06 0)
(0.000623831 5.46005e-06 0)
(0.000559769 4.75273e-06 0)
(0.000501158 4.10245e-06 0)
(0.000447771 3.50558e-06 0)
(0.000399365 2.95834e-06 0)
(0.000355687 2.45791e-06 0)
(0.000316483 2.00201e-06 0)
(0.000281495 1.58783e-06 0)
(0.000250466 1.21201e-06 0)
(0.000223142 8.71337e-07 0)
(0.000199275 5.634e-07 0)
(0.000178626 2.86111e-07 0)
(0.000160967 3.70364e-08 0)
(0.00014608 -1.86713e-07 0)
(0.000133759 -3.88004e-07 0)
(0.000123814 -5.69302e-07 0)
(0.000116071 -7.3284e-07 0)
(0.000110373 -8.81081e-07 0)
(0.000106584 -1.01699e-06 0)
(0.000104585 -1.14397e-06 0)
(0.000104279 -1.26512e-06 0)
(0.000105593 -1.37978e-06 0)
(0.000108467 -1.48822e-06 0)
(0.000112858 -1.59438e-06 0)
(0.000118738 -1.70178e-06 0)
(0.000126105 -1.81438e-06 0)
(0.000134985 -1.93675e-06 0)
(0.000145438 -2.07396e-06 0)
(0.00015756 -2.23142e-06 0)
(0.000171489 -2.41524e-06 0)
(0.000187405 -2.63261e-06 0)
(0.000205537 -2.89206e-06 0)
(0.000226169 -3.2038e-06 0)
(0.000249648 -3.5802e-06 0)
(0.000276393 -4.03618e-06 0)
(0.000306902 -4.58947e-06 0)
(0.000341756 -5.26059e-06 0)
(0.000381628 -6.07276e-06 0)
(0.000427273 -7.05106e-06 0)
(0.000479515 -8.22078e-06 0)
(0.00053922 -9.6043e-06 0)
(0.000607236 -1.12167e-05 0)
(0.000684311 -1.30599e-05 0)
(0.000770974 -1.51139e-05 0)
(0.000867357 -1.73275e-05 0)
(0.000972984 -1.96069e-05 0)
(0.0010865 -2.18038e-05 0)
(0.00120535 -2.37033e-05 0)
(0.00132544 -2.50096e-05 0)
(0.00144073 -2.53218e-05 0)
(0.00154282 -2.40957e-05 0)
(0.00162034 -2.05444e-05 0)
(0.00165791 -1.36793e-05 0)
(0.00163656 -1.75214e-06 0)
(0.00153015 1.75893e-05 0)
(0.00131243 4.53244e-05 0)
(0.000965807 7.89138e-05 0)
(0.000516317 0.000105565 0)
(9.75772e-05 9.25743e-05 0)
(1.04504e-05 -5.81948e-05 0)
(0.000175039 -0.000183636 0)
(0.000488184 -0.000295904 0)
(0.000922146 -0.000388963 0)
(0.00145395 -0.000462018 0)
(0.00206006 -0.000514021 0)
(0.00271572 -0.000544164 0)
(0.00339611 -0.000552458 0)
(0.00407735 -0.000540047 0)
(0.00473758 -0.000509176 0)
(0.00535781 -0.000462922 0)
(0.00592248 -0.000404856 0)
(0.00641965 -0.000338707 0)
(0.00684108 -0.000268093 0)
(0.00718202 -0.000196334 0)
(0.00744089 -0.000126359 0)
(0.00761893 -6.06765e-05 0)
(0.0077198 -1.35826e-06 0)
(0.00774888 5.11729e-05 0)
(0.0077155 9.77851e-05 0)
(0.0076245 0.0001382 0)
(0.00748305 0.000171926 0)
(0.00729825 0.00019925 0)
(0.00707696 0.000220626 0)
(0.00682579 0.000236577 0)
(0.00655095 0.000247654 0)
(0.00625818 0.000254415 0)
(0.00595271 0.000257411 0)
(0.00563926 0.000257173 0)
(0.00532198 0.000254199 0)
(0.00500454 0.000248952 0)
(0.00469006 0.000241856 0)
(0.00438122 0.000233289 0)
(0.00408023 0.000223588 0)
(0.00378891 0.000213049 0)
(0.00350869 0.000201926 0)
(0.00324069 0.000190437 0)
(0.00298573 0.000178764 0)
(0.00274437 0.000167062 0)
(0.00251696 0.000155455 0)
(0.00230366 0.000144045 0)
(0.00210446 0.000132916 0)
(0.00191921 0.000122132 0)
(0.00174767 0.000111743 0)
(0.0015895 0.000101786 0)
(0.00144426 9.22879e-05 0)
(0.00131149 8.32674e-05 0)
(0.00119067 7.47349e-05 0)
(0.00108124 6.6694e-05 0)
(0.000982623 5.9142e-05 0)
(0.000894239 5.20717e-05 0)
(0.000815496 4.54716e-05 0)
(0.000745813 3.93264e-05 0)
(0.000684619 3.36162e-05 0)
(0.000631362 2.83176e-05 0)
(0.000585513 2.34042e-05 0)
(0.000546574 1.88472e-05 0)
(0.000514086 1.4615e-05 0)
(0.000487624 1.06732e-05 0)
(0.000466809 6.98409e-06 0)
(0.00045131 3.50712e-06 0)
(0.000440846 1.99184e-07 0)
(0.000435186 -2.98094e-06 0)
(0.00043419 -6.06036e-06 0)
(0.000437721 -9.0626e-06 0)
(0.000445687 -1.20297e-05 0)
(0.000458048 -1.50172e-05 0)
(0.000474831 -1.80851e-05 0)
(0.000496147 -2.13001e-05 0)
(0.000522193 -2.47354e-05 0)
(0.000553261 -2.84705e-05 0)
(0.000589742 -3.25941e-05 0)
(0.00063214 -3.72052e-05 0)
(0.000681077 -4.24152e-05 0)
(0.000737309 -4.83494e-05 0)
(0.000801733 -5.51467e-05 0)
(0.0008754 -6.2958e-05 0)
(0.00095951 -7.194e-05 0)
(0.0010554 -8.22451e-05 0)
(0.00116454 -9.40041e-05 0)
(0.00128842 -0.0001073 0)
(0.00142851 -0.00012213 0)
(0.00158611 -0.000138354 0)
(0.0017621 -0.000155629 0)
(0.00195666 -0.000173331 0)
(0.00216891 -0.00019047 0)
(0.00239641 -0.000205593 0)
(0.00263458 -0.000216703 0)
(0.00287606 -0.000221184 0)
(0.00311004 -0.000215738 0)
(0.00332148 -0.000196317 0)
(0.00349044 -0.000158003 0)
(0.00359114 -9.4758e-05 0)
(0.00359184 7.52843e-07 0)
(0.00345277 0.000137511 0)
(0.00313049 0.000320299 0)
(0.00259045 0.000538198 0)
(0.0018264 0.000744841 0)
(0.000922289 0.000820471 0)
(0.000133482 0.000528677 0)
(1.73783e-05 -0.000174565 0)
(0.000258314 -0.000488076 0)
(0.000698467 -0.000758355 0)
(0.00129863 -0.000982521 0)
(0.0020273 -0.001159 0)
(0.00285346 -0.00128566 0)
(0.00374521 -0.00136129 0)
(0.00467133 -0.00138665 0)
(0.00560238 -0.00136475 0)
(0.00651172 -0.00130069 0)
(0.00737621 -0.00120105 0)
(0.00817667 -0.00107329 0)
(0.00889791 -0.00092512 0)
(0.00952877 -0.000764047 0)
(0.0100618 -0.00059704 0)
(0.010493 -0.000430326 0)
(0.0108212 -0.000269302 0)
(0.0110484 -0.00011855 0)
(0.0111774 1.8213e-05 0)
(0.0112165 0.000140438 0)
(0.0111745 0.000248934 0)
(0.0110585 0.000342963 0)
(0.0108771 0.000422596 0)
(0.0106385 0.000488393 0)
(0.0103509 0.000541135 0)
(0.010022 0.000581757 0)
(0.00965961 0.000611298 0)
(0.00927065 0.000630841 0)
(0.00886177 0.00064149 0)
(0.00843902 0.000644334 0)
(0.00800788 0.000640428 0)
(0.00757327 0.000630769 0)
(0.00713953 0.000616293 0)
(0.00671045 0.000597858 0)
(0.00628928 0.000576244 0)
(0.00587878 0.000552149 0)
(0.00548123 0.000526196 0)
(0.00509848 0.000498928 0)
(0.004732 0.000470817 0)
(0.00438289 0.000442268 0)
(0.00405194 0.000413627 0)
(0.00373967 0.000385187 0)
(0.00344633 0.000357188 0)
(0.00317198 0.000329829 0)
(0.00291649 0.000303273 0)
(0.00267957 0.000277648 0)
(0.0024608 0.000253053 0)
(0.00225965 0.000229561 0)
(0.00207553 0.000207221 0)
(0.00190774 0.000186063 0)
(0.00175557 0.0001661 0)
(0.00161826 0.000147326 0)
(0.00149503 0.000129722 0)
(0.00138512 0.000113253 0)
(0.00128774 9.78739e-05 0)
(0.00120217 8.35292e-05 0)
(0.00112767 7.01522e-05 0)
(0.00106356 5.76669e-05 0)
(0.00100923 4.59888e-05 0)
(0.000964091 3.50249e-05 0)
(0.00092763 2.46747e-05 0)
(0.000899399 1.48296e-05 0)
(0.000879031 5.37254e-06 0)
(0.000866215 -3.80574e-06 0)
(0.000860807 -1.27769e-05 0)
(0.000862672 -2.16098e-05 0)
(0.000871693 -3.04278e-05 0)
(0.000887848 -3.93934e-05 0)
(0.000911225 -4.86762e-05 0)
(0.000942031 -5.84596e-05 0)
(0.000980599 -6.89416e-05 0)
(0.00102739 -8.03378e-05 0)
(0.00108302 -9.28847e-05 0)
(0.00114822 -0.000106842 0)
(0.00122391 -0.000122492 0)
(0.00131116 -0.000140139 0)
(0.00141121 -0.000160098 0)
(0.00152542 -0.000182677 0)
(0.00165529 -0.00020815 0)
(0.0018024 -0.000236708 0)
(0.00196828 -0.000268392 0)
(0.00215431 -0.000303004 0)
(0.00236147 -0.000339983 0)
(0.00259013 -0.000378257 0)
(0.00283958 -0.000416066 0)
(0.00310759 -0.000450768 0)
(0.00338983 -0.000478643 0)
(0.00367909 -0.000494714 0)
(0.00396458 -0.000492608 0)
(0.004231 -0.000464461 0)
(0.00445776 -0.000400864 0)
(0.00461824 -0.000290824 0)
(0.00467903 -0.000121662 0)
(0.00460033 0.000121476 0)
(0.00433511 0.000451082 0)
(0.00384198 0.000864913 0)
(0.00309663 0.00132504 0)
(0.00211699 0.0017193 0)
(0.00102733 0.00179746 0)
(0.000129947 0.00109321 0)
(2.01465e-05 -0.000323961 0)
(0.000306102 -0.0008729 0)
(0.000825594 -0.00133603 0)
(0.00152979 -0.00171775 0)
(0.00238054 -0.00201738 0)
(0.00334151 -0.00223269 0)
(0.00437644 -0.00236301 0)
(0.00545076 -0.00241075 0)
(0.0065326 -0.00238166 0)
(0.00759366 -0.0022843 0)
(0.00860968 -0.00212918 0)
(0.0095606 -0.00192787 0)
(0.0104305 -0.0016921 0)
(0.0112075 -0.00143322 0)
(0.011883 -0.00116173 0)
(0.0124518 -0.000886972 0)
(0.0129114 -0.000617085 0)
(0.0132615 -0.000358892 0)
(0.0135045 -0.000118413 0)
(0.0136415 0.000100023 0)
(0.0136838 0.000295445 0)
(0.0136375 0.000468394 0)
(0.0135111 0.000618493 0)
(0.0133129 0.000746236 0)
(0.0130514 0.000852506 0)
(0.0127346 0.000938456 0)
(0.0123706 0.00100544 0)
(0.0119672 0.00105496 0)
(0.0115317 0.00108859 0)
(0.0110711 0.00110793 0)
(0.0105918 0.0011146 0)
(0.0100998 0.00111016 0)
(0.00960071 0.00109611 0)
(0.00909932 0.00107388 0)
(0.00860006 0.0010448 0)
(0.00810683 0.00101009 0)
(0.00762301 0.000970871 0)
(0.0071515 0.000928148 0)
(0.00669472 0.000882823 0)
(0.0062547 0.000835691 0)
(0.00583304 0.000787454 0)
(0.005431 0.000738718 0)
(0.00504947 0.000690008 0)
(0.00468908 0.000641772 0)
(0.00435017 0.000594386 0)
(0.00403284 0.000548164 0)
(0.00373699 0.00050336 0)
(0.00346234 0.000460177 0)
(0.00320846 0.000418771 0)
(0.00297478 0.000379254 0)
(0.00276065 0.000341699 0)
(0.00256534 0.000306144 0)
(0.00238805 0.000272593 0)
(0.00222795 0.000241022 0)
(0.0020842 0.000211377 0)
(0.00195594 0.000183584 0)
(0.00184236 0.000157544 0)
(0.00174263 0.000133137 0)
(0.00165601 0.000110228 0)
(0.00158177 8.86609e-05 0)
(0.00151927 6.82675e-05 0)
(0.00146793 4.88634e-05 0)
(0.00142725 3.02497e-05 0)
(0.00139681 1.22117e-05 0)
(0.00137628 -5.45309e-06 0)
(0.00136557 -2.28654e-05 0)
(0.00136457 -4.01584e-05 0)
(0.00137315 -5.75842e-05 0)
(0.00139131 -7.54537e-05 0)
(0.0014192 -9.4083e-05 0)
(0.00145709 -0.000113807 0)
(0.0015054 -0.000134987 0)
(0.0015647 -0.000158009 0)
(0.00163569 -0.000183289 0)
(0.00171924 -0.000211271 0)
(0.00181634 -0.000242414 0)
(0.00192815 -0.000277178 0)
(0.00205592 -0.000315989 0)
(0.00220096 -0.000359185 0)
(0.00236459 -0.000406936 0)
(0.002548 -0.000459134 0)
(0.00275212 -0.000515237 0)
(0.00297735 -0.000574077 0)
(0.0032233 -0.000633616 0)
(0.00348833 -0.000690665 0)
(0.00376907 -0.000740581 0)
(0.00405977 -0.000776952 0)
(0.00435154 -0.000791321 0)
(0.00463155 -0.000772979 0)
(0.00488212 -0.000708857 0)
(0.00507989 -0.000583542 0)
(0.00519518 -0.000379457 0)
(0.00519173 -7.71158e-05 0)
(0.00502677 0.000344102 0)
(0.00465683 0.000894311 0)
(0.00404801 0.00155698 0)
(0.00319049 0.00225834 0)
(0.00212353 0.00281188 0)
(0.000993075 0.00283567 0)
(0.000112521 0.00165756 0)
(2.05668e-05 -0.000489923 0)
(0.000330359 -0.00130363 0)
(0.000896851 -0.00198235 0)
(0.0016645 -0.00253804 0)
(0.00258989 -0.00297201 0)
(0.00363227 -0.00328305 0)
(0.00475198 -0.00347215 0)
(0.00591218 -0.0035444 0)
(0.00707976 -0.00350914 0)
(0.00822598 -0.0033791 0)
(0.0093268 -0.00316913 0)
(0.0103627 -0.00289507 0)
(0.0113185 -0.0025727 0)
(0.0121829 -0.00221701 0)
(0.0129479 -0.00184172 0)
(0.0136084 -0.00145897 0)
(0.0141618 -0.00107924 0)
(0.0146072 -0.000711325 0)
(0.0149457 -0.000362483 0)
(0.0151792 -3.95298e-05 0)
(0.0153098 0.000253472 0)
(0.0153466 0.00051577 0)
(0.0152963 0.000747183 0)
(0.0151667 0.000948134 0)
(0.0149653 0.0011195 0)
(0.0146999 0.00126252 0)
(0.0143779 0.0013787 0)
(0.014007 0.00146977 0)
(0.0135942 0.00153762 0)
(0.0131467 0.00158423 0)
(0.012671 0.00161162 0)
(0.0121735 0.00162182 0)
(0.01166 0.0016168 0)
(0.011136 0.00159849 0)
(0.0106066 0.00156871 0)
(0.0100763 0.00152919 0)
(0.00954939 0.00148153 0)
(0.00902943 0.00142722 0)
(0.00851971 0.00136761 0)
(0.00802304 0.00130395 0)
(0.00754182 0.00123734 0)
(0.00707807 0.00116876 0)
(0.0066334 0.00109911 0)
(0.0062091 0.00102914 0)
(0.00580613 0.000959521 0)
(0.00542515 0.000890832 0)
(0.00506654 0.000823557 0)
(0.00473046 0.000758097 0)
(0.00441683 0.00069478 0)
(0.00412541 0.000633861 0)
(0.00385578 0.000575531 0)
(0.00360742 0.000519918 0)
(0.00337966 0.000467095 0)
(0.0031718 0.000417083 0)
(0.00298305 0.000369855 0)
(0.00281259 0.000325342 0)
(0.0026596 0.000283434 0)
(0.00252323 0.000243986 0)
(0.00240269 0.00020682 0)
(0.00229721 0.00017173 0)
(0.00220607 0.000138483 0)
(0.00212859 0.00010682 0)
(0.00206419 7.64614e-05 0)
(0.00201237 4.71038e-05 0)
(0.00197271 1.84167e-05 0)
(0.00194483 -9.91051e-06 0)
(0.0019288 -3.80328e-05 0)
(0.00192449 -6.61778e-05 0)
(0.00193176 -9.47714e-05 0)
(0.00195062 -0.000124284 0)
(0.00198124 -0.000155189 0)
(0.00202389 -0.000187991 0)
(0.00207901 -0.000223219 0)
(0.00214713 -0.000261429 0)
(0.00222894 -0.000303201 0)
(0.00232522 -0.000349119 0)
(0.00243686 -0.000399745 0)
(0.0025648 -0.000455564 0)
(0.00271 -0.000516914 0)
(0.00287333 -0.000583864 0)
(0.00305549 -0.000656065 0)
(0.00325683 -0.000732534 0)
(0.00347711 -0.00081139 0)
(0.00371522 -0.000889519 0)
(0.00396876 -0.000962193 0)
(0.00423355 -0.00102265 0)
(0.00450299 -0.00106167 0)
(0.00476732 -0.00106717 0)
(0.00501281 -0.001024 0)
(0.00522088 -0.000913762 0)
(0.00536734 -0.000715027 0)
(0.00542196 -0.000403855 0)
(0.00534846 4.55409e-05 0)
(0.00510543 0.000655192 0)
(0.0046569 0.00142873 0)
(0.00397786 0.00233089 0)
(0.00307203 0.00324754 0)
(0.00199465 0.00391741 0)
(0.000900229 0.0038383 0)
(9.16246e-05 0.00217334 0)
(2.01058e-05 -0.000663367 0)
(0.000342412 -0.00176009 0)
(0.000937273 -0.00267011 0)
(0.00174463 -0.00341087 0)
(0.0027167 -0.00398579 0)
(0.00380865 -0.00439551 0)
(0.00497771 -0.0046437 0)
(0.00618505 -0.00473927 0)
(0.00739667 -0.00469613 0)
(0.00858388 -0.00453191 0)
(0.00972336 -0.00426638 0)
(0.0107968 -0.00391997 0)
(0.0117904 -0.0035126 0)
(0.0126944 -0.00306284 0)
(0.0135021 -0.00258743 0)
(0.0142097 -0.00210102 0)
(0.0148154 -0.00161607 0)
(0.015319 -0.00114295 0)
(0.0157214 -0.000690103 0)
(0.0160248 -0.000264577 0)
(0.0162299 0.000127467 0)
(0.0163422 0.000481684 0)
(0.016367 0.000798077 0)
(0.0163113 0.00107692 0)
(0.0161814 0.001319 0)
(0.0159841 0.00152551 0)
(0.015726 0.00169802 0)
(0.0154137 0.00183836 0)
(0.0150537 0.00194859 0)
(0.0146523 0.0020309 0)
(0.0142159 0.00208758 0)
(0.0137502 0.00212096 0)
(0.0132611 0.00213336 0)
(0.0127539 0.00212706 0)
(0.0122339 0.00210427 0)
(0.0117058 0.00206712 0)
(0.011174 0.00201763 0)
(0.0106427 0.0019577 0)
(0.0101156 0.00188911 0)
(0.00959604 0.00181348 0)
(0.009087 0.00173235 0)
(0.00859112 0.00164707 0)
(0.00811063 0.00155892 0)
(0.00764746 0.00146899 0)
(0.00720316 0.0013783 0)
(0.00677898 0.00128773 0)
(0.00637587 0.00119803 0)
(0.00599449 0.00110988 0)
(0.00563526 0.00102381 0)
(0.00529834 0.000940293 0)
(0.00498372 0.000859685 0)
(0.00469119 0.000782258 0)
(0.00442038 0.000708203 0)
(0.00417082 0.000637633 0)
(0.00394192 0.000570587 0)
(0.00373301 0.00050704 0)
(0.00354338 0.000446903 0)
(0.0033723 0.000390035 0)
(0.00321899 0.000336242 0)
(0.00308272 0.000285287 0)
(0.00296276 0.000236889 0)
(0.00285843 0.000190733 0)
(0.0027691 0.000146468 0)
(0.00269419 0.000103711 0)
(0.00263323 6.205e-05 0)
(0.00258582 2.10233e-05 0)
(0.00255153 -1.97842e-05 0)
(0.00253068 -6.05349e-05 0)
(0.002523 -0.000101588 0)
(0.00252833 -0.000143563 0)
(0.00254668 -0.000187074 0)
(0.00257816 -0.000232749 0)
(0.00262297 -0.000281237 0)
(0.00268145 -0.000333211 0)
(0.00275401 -0.000389352 0)
(0.00284113 -0.000450327 0)
(0.00294336 -0.00051675 0)
(0.00306124 -0.000589117 0)
(0.00319529 -0.000667703 0)
(0.00334589 -0.000752423 0)
(0.00351321 -0.00084263 0)
(0.00369703 -0.000936858 0)
(0.00389652 -0.00103248 0)
(0.00411 -0.00112529 0)
(0.00433453 -0.00120905 0)
(0.00456545 -0.00127489 0)
(0.00479576 -0.00131085 0)
(0.00501545 -0.00130133 0)
(0.00521067 -0.00122679 0)
(0.00536296 -0.00106372 0)
(0.00544849 -0.000784993 0)
(0.00543816 -0.000360883 0)
(0.00529693 0.000239155 0)
(0.00498892 0.0010352 0)
(0.00448467 0.00202174 0)
(0.00376832 0.0031421 0)
(0.00285475 0.00424007 0)
(0.0018101 0.00498322 0)
(0.000789016 0.00476503 0)
(7.18231e-05 0.00262574 0)
(1.9649e-05 -0.000840556 0)
(0.000350099 -0.00223224 0)
(0.000964425 -0.0033845 0)
(0.00179895 -0.00431762 0)
(0.00280192 -0.00503671 0)
(0.00392453 -0.00554479 0)
(0.00512103 -0.00584929 0)
(0.00635077 -0.00596404 0)
(0.00757906 -0.00590856 0)
(0.00877749 -0.00570625 0)
(0.00992371 -0.00538239 0)
(0.0110009 -0.00496238 0)
(0.0119971 -0.00447045 0)
(0.0129043 -0.00392882 0)
(0.0137179 -0.00335713 0)
(0.0144355 -0.0027723 0)
(0.015057 -0.00218851 0)
(0.0155834 -0.00161737 0)
(0.0160165 -0.00106816 0)
(0.0163589 -0.000548221 0)
(0.0166131 -6.41038e-05 0)
(0.0167805 0.000378793 0)
(0.0168658 0.000777958 0)
(0.0168745 0.00113362 0)
(0.0168118 0.00144652 0)
(0.0166832 0.00171779 0)
(0.0164942 0.00194898 0)
(0.0162501 0.00214196 0)
(0.0159565 0.00229884 0)
(0.0156187 0.00242192 0)
(0.015242 0.00251363 0)
(0.0148317 0.00257645 0)
(0.0143927 0.00261291 0)
(0.01393 0.00262552 0)
(0.0134485 0.00261673 0)
(0.0129525 0.00258895 0)
(0.0124465 0.00254448 0)
(0.0119345 0.00248553 0)
(0.0114205 0.00241421 0)
(0.0109079 0.00233248 0)
(0.0104001 0.00224219 0)
(0.00989995 0.00214508 0)
(0.00941024 0.00204272 0)
(0.0089333 0.00193657 0)
(0.00847119 0.00182797 0)
(0.00802567 0.0017181 0)
(0.00759819 0.00160803 0)
(0.00718992 0.0014987 0)
(0.00680177 0.00139092 0)
(0.00643438 0.00128539 0)
(0.00608817 0.00118268 0)
(0.00576333 0.00108326 0)
(0.00545987 0.000987462 0)
(0.00517765 0.000895548 0)
(0.00491637 0.000807667 0)
(0.00467562 0.000723875 0)
(0.0044549 0.000644148 0)
(0.00425364 0.00056838 0)
(0.00407122 0.000496398 0)
(0.00390701 0.000427961 0)
(0.00376035 0.000362772 0)
(0.0036306 0.000300483 0)
(0.00351716 0.000240694 0)
(0.00341944 0.000182966 0)
(0.00333693 0.000126816 0)
(0.00326915 7.17218e-05 0)
(0.00321576 1.70804e-05 0)
(0.00317624 -3.75742e-05 0)
(0.00315117 -9.24182e-05 0)
(0.00314005 -0.00014797 0)
(0.00314274 -0.000205011 0)
(0.00315914 -0.000264278 0)
(0.00318925 -0.00032651 0)
(0.00323314 -0.000392461 0)
(0.00329093 -0.000462876 0)
(0.00336278 -0.000538464 0)
(0.00344885 -0.00061985 0)
(0.00354929 -0.000707492 0)
(0.00366416 -0.000801566 0)
(0.00379338 -0.000901793 0)
(0.00393661 -0.00100721 0)
(0.00409314 -0.00111586 0)
(0.00426166 -0.0012244 0)
(0.00444006 -0.00132758 0)
(0.00462507 -0.00141771 0)
(0.00481179 -0.00148399 0)
(0.0049932 -0.00151182 0)
(0.00515941 -0.0014823 0)
(0.005297 -0.00137179 0)
(0.00538822 -0.00115195 0)
(0.00541046 -0.000790487 0)
(0.00533645 -0.000252648 0)
(0.00513376 0.000494652 0)
(0.00477293 0.00146746 0)
(0.00423055 0.00264969 0)
(0.00349904 0.00396156 0)
(0.00260194 0.00520513 0)
(0.00161221 0.0059825 0)
(0.00067925 0.0056003 0)
(5.50085e-05 0.00301333 0)
(1.95745e-05 -0.00102093 0)
(0.000357634 -0.00271659 0)
(0.00098811 -0.00411881 0)
(0.00184357 -0.00524849 0)
(0.00286819 -0.00611199 0)
(0.00400935 -0.00671526 0)
(0.00521849 -0.00707057 0)
(0.00645339 -0.00719784 0)
(0.00767895 -0.00712328 0)
(0.00886729 -0.00687688 0)
(0.00999729 -0.00649002 0)
(0.0110538 -0.0059935 0)
(0.0120269 -0.00541607 0)
(0.0129106 -0.0047836 0)
(0.0137023 -0.00411862 0)
(0.0144017 -0.00344015 0)
(0.0150102 -0.00276388 0)
(0.0155305 -0.00210239 0)
(0.0159657 -0.00146553 0)
(0.0163193 -0.000860857 0)
(0.0165945 -0.000294293 0)
(0.0167941 0.000228844 0)
(0.0169197 0.000703974 0)
(0.0169763 0.00113083 0)
(0.016968 0.00151016 0)
(0.0168991 0.00184304 0)
(0.0167739 0.00213101 0)
(0.0165966 0.00237591 0)
(0.0163714 0.00257989 0)
(0.0161027 0.00274526 0)
(0.0157945 0.00287451 0)
(0.0154511 0.00297018 0)
(0.0150767 0.00303487 0)
(0.0146753 0.00307119 0)
(0.0142509 0.00308171 0)
(0.0138077 0.00306899 0)
(0.0133493 0.0030355 0)
(0.0128796 0.00298362 0)
(0.0124023 0.00291567 0)
(0.0119207 0.00283384 0)
(0.0114381 0.00274024 0)
(0.0109577 0.00263685 0)
(0.0104823 0.00252552 0)
(0.0100144 0.002408 0)
(0.00955653 0.00228591 0)
(0.00911069 0.00216071 0)
(0.00867877 0.00203377 0)
(0.00826235 0.00190629 0)
(0.00786275 0.00177935 0)
(0.00748106 0.0016539 0)
(0.00711812 0.00153075 0)
(0.00677453 0.00141056 0)
(0.00645072 0.00129389 0)
(0.00614688 0.00118114 0)
(0.00586308 0.00107263 0)
(0.00559921 0.00096852 0)
(0.00535505 0.000868895 0)
(0.00513027 0.000773723 0)
(0.00492447 0.000682884 0)
(0.00473717 0.000596172 0)
(0.00456786 0.000513305 0)
(0.00441602 0.000433931 0)
(0.0042811 0.000357636 0)
(0.00416256 0.00028395 0)
(0.00405991 0.00021235 0)
(0.00397264 0.000142262 0)
(0.00390034 7.30575e-05 0)
(0.00384256 4.00478e-06 0)
(0.00379901 -6.53081e-05 0)
(0.00377009 -0.000135123 0)
(0.00375524 -0.000206151 0)
(0.00375423 -0.000279252 0)
(0.00376685 -0.000355227 0)
(0.00379292 -0.000434876 0)
(0.00383225 -0.000518972 0)
(0.00388471 -0.000608231 0)
(0.00395011 -0.000703249 0)
(0.00402819 -0.000804417 0)
(0.00411864 -0.000911783 0)
(0.00422092 -0.00102486 0)
(0.00433428 -0.00114237 0)
(0.0044576 -0.0012619 0)
(0.00458922 -0.00137941 0)
(0.00472674 -0.00148872 0)
(0.00486668 -0.00158082 0)
(0.00500414 -0.00164309 0)
(0.00513225 -0.00165857 0)
(0.00524153 -0.00160528 0)
(0.00531929 -0.00145581 0)
(0.00534888 -0.00117747 0)
(0.00530937 -0.000733362 0)
(0.00517544 -8.45086e-05 0)
(0.00491856 0.000802655 0)
(0.00451528 0.00193872 0)
(0.00394771 0.00329621 0)
(0.0032153 0.00477159 0)
(0.00234813 0.00612665 0)
(0.00142274 0.0069049 0)
(0.000580008 0.00634308 0)
(4.15843e-05 0.00334168 0)
(1.99659e-05 -0.00120528 0)
(0.000366626 -0.00321275 0)
(0.00101235 -0.00487022 0)
(0.00188523 -0.00619784 0)
(0.00292509 -0.0072031 0)
(0.00407563 -0.0078957 0)
(0.00528582 -0.00829391 0)
(0.00651226 -0.00842498 0)
(0.00771982 -0.00832283 0)
(0.00888149 -0.00802484 0)
(0.00997762 -0.00756909 0)
(0.010995 -0.00699206 0)
(0.0119258 -0.00632723 0)
(0.0127661 -0.00560415 0)
(0.0135156 -0.00484813 0)
(0.0141759 -0.00408017 0)
(0.0147503 -0.00331728 0)
(0.0152428 -0.00257278 0)
(0.0156582 -0.00185683 0)
(0.0160008 -0.00117697 0)
(0.0162749 -0.00053871 0)
(0.0164846 5.38092e-05 0)
(0.0166308 0.000595656 0)
(0.0167174 0.00108529 0)
(0.016748 0.00152366 0)
(0.0167258 0.00191188 0)
(0.0166539 0.00225149 0)
(0.0165355 0.00254438 0)
(0.0163739 0.00279269 0)
(0.0161719 0.00299877 0)
(0.0159328 0.00316509 0)
(0.0156595 0.0032942 0)
(0.0153552 0.0033887 0)
(0.015023 0.0034512 0)
(0.0146661 0.00348428 0)
(0.0142876 0.00349052 0)
(0.0138907 0.00347245 0)
(0.0134786 0.00343251 0)
(0.0130545 0.0033731 0)
(0.0126214 0.00329656 0)
(0.0121824 0.00320511 0)
(0.0117404 0.0031009 0)
(0.0112983 0.00298599 0)
(0.0108585 0.0028623 0)
(0.0104237 0.00273168 0)
(0.00999611 0.00259584 0)
(0.00957779 0.00245637 0)
(0.00917061 0.00231472 0)
(0.00877622 0.00217221 0)
(0.00839604 0.00203004 0)
(0.00803126 0.00188922 0)
(0.00768286 0.00175067 0)
(0.00735162 0.00161513 0)
(0.00703811 0.0014832 0)
(0.00674272 0.00135535 0)
(0.00646568 0.00123192 0)
(0.00620707 0.0011131 0)
(0.00596684 0.000998981 0)
(0.00574482 0.00088952 0)
(0.00554077 0.000784584 0)
(0.00535436 0.000683938 0)
(0.0051852 0.000587263 0)
(0.00503289 0.000494162 0)
(0.00489696 0.000404168 0)
(0.00477697 0.000316748 0)
(0.00467246 0.000231314 0)
(0.00458295 0.000147215 0)
(0.00450805 6.37158e-05 0)
(0.00444709 -1.99721e-05 0)
(0.00440033 -0.000104127 0)
(0.00436756 -0.000189142 0)
(0.00434827 -0.000275876 0)
(0.0043421 -0.000365172 0)
(0.00434865 -0.000457841 0)
(0.00436751 -0.000554653 0)
(0.00439823 -0.000656296 0)
(0.00444034 -0.000763313 0)
(0.00449325 -0.000876003 0)
(0.00455629 -0.00099427 0)
(0.00462858 -0.00111742 0)
(0.00470902 -0.00124388 0)
(0.00479618 -0.00137079 0)
(0.00488814 -0.00149353 0)
(0.0049823 -0.00160505 0)
(0.00507515 -0.00169515 0)
(0.00516186 -0.0017496 0)
(0.00523585 -0.0017493 0)
(0.00528821 -0.00166946 0)
(0.00530711 -0.00147929 0)
(0.00527714 -0.00114218 0)
(0.00517937 -0.000617149 0)
(0.0049902 0.000138245 0)
(0.00468691 0.00115474 0)
(0.00424965 0.00243879 0)
(0.00366618 0.00395033 0)
(0.00294172 0.00556199 0)
(0.00211109 0.00699762 0)
(0.00125187 0.00774936 0)
(0.000494633 0.00699961 0)
(3.13002e-05 0.00361895 0)
(2.07645e-05 -0.00139469 0)
(0.000377143 -0.00372121 0)
(0.00103763 -0.00563715 0)
(0.00192493 -0.00716139 0)
(0.00297428 -0.008303 0)
(0.00412591 -0.00907658 0)
(0.00532675 -0.00950774 0)
(0.00653273 -0.00963228 0)
(0.00770912 -0.00949281 0)
(0.00883015 -0.00913486 0)
(0.00987796 -0.00860364 0)
(0.0108414 -0.00794165 0)
(0.0117149 -0.00718714 0)
(0.012497 -0.00637335 0)
(0.0131891 -0.00552826 0)
(0.0137952 -0.0046747 0)
(0.0143201 -0.00383073 0)
(0.0147696 -0.00301021 0)
(0.0151494 -0.0022234 0)
(0.0154651 -0.00147755 0)
(0.0157219 -0.00077768 0)
(0.0159239 -0.000126983 0)
(0.016075 0.00047089 0)
(0.016176 0.00101347 0)
(0.016231 0.00150182 0)
(0.0162421 0.00193719 0)
(0.0162118 0.00232122 0)
(0.0161423 0.00265591 0)
(0.0160359 0.00294348 0)
(0.0158944 0.00318631 0)
(0.01572 0.00338687 0)
(0.0155145 0.00354769 0)
(0.0152801 0.00367131 0)
(0.0150188 0.00376028 0)
(0.0147329 0.00381713 0)
(0.0144246 0.00384436 0)
(0.0140963 0.00384444 0)
(0.0137506 0.00381981 0)
(0.0133898 0.00377284 0)
(0.0130166 0.00370588 0)
(0.0126337 0.00362118 0)
(0.0122435 0.00352098 0)
(0.0118486 0.00340741 0)
(0.0114516 0.00328253 0)
(0.0110548 0.00314831 0)
(0.0106605 0.00300664 0)
(0.0102708 0.00285927 0)
(0.00988782 0.00270786 0)
(0.00951327 0.00255393 0)
(0.00914883 0.00239888 0)
(0.00879595 0.00224394 0)
(0.00845588 0.00209021 0)
(0.00812971 0.00193866 0)
(0.0078183 0.00179006 0)
(0.00752236 0.00164507 0)
(0.00724242 0.00150419 0)
(0.00697885 0.00136776 0)
(0.00673187 0.001236 0)
(0.00650159 0.00110898 0)
(0.00628797 0.00098666 0)
(0.00609092 0.000868895 0)
(0.00591022 0.000755423 0)
(0.0057456 0.000645896 0)
(0.00559675 0.000539881 0)
(0.00546329 0.000436874 0)
(0.00534482 0.000336299 0)
(0.0052409 0.00023752 0)
(0.00515109 0.000139834 0)
(0.00507494 4.23979e-05 0)
(0.00501162 -5.55145e-05 0)
(0.00496179 -0.000154056 0)
(0.00492466 -0.000253783 0)
(0.00489975 -0.000355587 0)
(0.00488649 -0.00046026 0)
(0.00488429 -0.000568533 0)
(0.00489248 -0.00068104 0)
(0.00491032 -0.000798246 0)
(0.00493699 -0.000920341 0)
(0.0049715 -0.00104708 0)
(0.00501274 -0.00117757 0)
(0.00505934 -0.00130996 0)
(0.00510963 -0.001441 0)
(0.00516151 -0.00156552 0)
(0.00521231 -0.00167574 0)
(0.00525851 -0.00176039 0)
(0.00529545 -0.00180383 0)
(0.00531694 -0.001785 0)
(0.00531466 -0.00167665 0)
(0.00527773 -0.00144491 0)
(0.00519207 -0.00104976 0)
(0.00504059 -0.000446761 0)
(0.00480238 0.000408205 0)
(0.0044591 0.0015434 0)
(0.00399469 0.00295996 0)
(0.00340188 0.00460483 0)
(0.00269055 0.00632744 0)
(0.00189878 0.00781651 0)
(0.00110327 0.00851993 0)
(0.000423451 0.0075794 0)
(2.36527e-05 0.00385371 0)
(2.18628e-05 -0.00158998 0)
(0.000388512 -0.00424215 0)
(0.00106261 -0.00641773 0)
(0.00196076 -0.00813467 0)
(0.00301346 -0.0094047 0)
(0.00415782 -0.0102488 0)
(0.00533925 -0.0107012 0)
(0.00651352 -0.0108077 0)
(0.00764679 -0.0106205 0)
(0.00871488 -0.0101938 0)
(0.00970201 -0.00958042 0)
(0.0105994 -0.008829 0)
(0.0114036 -0.00798265 0)
(0.0121157 -0.00707823 0)
(0.0127393 -0.0061462 0)
(0.01328 -0.005211 0)
(0.0137447 -0.00429154 0)
(0.0141404 -0.00340195 0)
(0.0144741 -0.00255231 0)
(0.0147522 -0.00174942 0)
(0.0149807 -0.000997539 0)
(0.0151641 -0.000299056 0)
(0.0153074 0.000343799 0)
(0.0154108 0.000929088 0)
(0.0154783 0.0014577 0)
(0.0155114 0.00193111 0)
(0.015512 0.00235123 0)
(0.0154816 0.00272026 0)
(0.0154216 0.00304058 0)
(0.0153329 0.00331465 0)
(0.0152166 0.00354498 0)
(0.0150738 0.00373406 0)
(0.0149055 0.00388438 0)
(0.0147128 0.00399838 0)
(0.0144971 0.00407849 0)
(0.0142597 0.00412707 0)
(0.0140022 0.00414648 0)
(0.0137263 0.00413903 0)
(0.0134338 0.00410701 0)
(0.0131268 0.00405267 0)
(0.0128072 0.00397825 0)
(0.0124772 0.00388593 0)
(0.012139 0.00377786 0)
(0.0117948 0.00365614 0)
(0.0114468 0.0035228 0)
(0.011097 0.00337981 0)
(0.0107476 0.00322904 0)
(0.0104006 0.00307229 0)
(0.0100578 0.00291122 0)
(0.009721 0.00274738 0)
(0.00939177 0.00258219 0)
(0.00907154 0.00241693 0)
(0.00876161 0.00225273 0)
(0.00846307 0.00209057 0)
(0.00817689 0.00193126 0)
(0.00790383 0.00177546 0)
(0.00764452 0.00162368 0)
(0.00739944 0.00147627 0)
(0.00716893 0.00133344 0)
(0.00695319 0.00119528 0)
(0.00675232 0.00106172 0)
(0.00656629 0.000932605 0)
(0.00639502 0.000807655 0)
(0.00623831 0.000686505 0)
(0.0060959 0.000568703 0)
(0.00596749 0.000453722 0)
(0.00585269 0.000340967 0)
(0.00575108 0.000229777 0)
(0.00566218 0.000119413 0)
(0.00558541 8.9618e-06 0)
(0.00552014 -0.000102054 0)
(0.0054667 -0.0002138 0)
(0.0054242 -0.000326976 0)
(0.00539202 -0.000442359 0)
(0.00536942 -0.000560616 0)
(0.00535557 -0.000682305 0)
(0.00534955 -0.000807796 0)
(0.00535033 -0.000937159 0)
(0.00535674 -0.00107 0)
(0.00536747 -0.00120524 0)
(0.00538095 -0.00134075 0)
(0.00539538 -0.00147295 0)
(0.00540855 -0.0015962 0)
(0.00541774 -0.00170204 0)
(0.00541952 -0.00177831 0)
(0.00540944 -0.00180807 0)
(0.00538167 -0.00176857 0)
(0.00532855 -0.00163035 0)
(0.0052401 -0.00135686 0)
(0.00510366 -0.000905097 0)
(0.00490364 -0.000227794 0)
(0.00462217 0.000719725 0)
(0.00424489 0.00196262 0)
(0.00375914 0.00349643 0)
(0.00316182 0.00525507 0)
(0.00246656 0.0070657 0)
(0.00171344 0.00858492 0)
(0.000976963 0.00922318 0)
(0.000365282 0.00809291 0)