/*--------------------------------*- C++ -*----------------------------------*\
  =========                 |
  \\      /  F ield         | OpenFOAM: The Open Source CFD Toolbox
   \\    /   O peration     | Website:  https://openfoam.org
    \\  /    A nd           | Version:  6
     \\/     M anipulation  |
\*---------------------------------------------------------------------------*/
FoamFile
{
    version     2.0;
    format      ascii;
    class       volScalarField;
    location    "0";
    object      p;
}
// * * * * * * * * * * * * * * * * * * * * * * * * * * * * * * * * * * * * * //

dimensions      [0 2 -2 0 0 0 0];

internalField   nonuniform List<scalar> 
11644
(
0.121502
0.122453
0.124256
0.126915
0.130454
0.134886
0.140215
0.146436
0.153524
0.161428
0.170061
0.179288
0.188915
0.198677
0.208242
0.217212
0.225147
0.2316
0.236165
0.238532
0.238532
0.236165
0.2316
0.225147
0.217212
0.208242
0.198677
0.188915
0.179289
0.170061
0.161428
0.153524
0.146436
0.140216
0.134886
0.130454
0.126915
0.124256
0.122454
0.121502
0.120401
0.121296
0.123058
0.125691
0.129213
0.133639
0.138978
0.145233
0.152392
0.160418
0.169241
0.178738
0.188729
0.198952
0.209064
0.21864
0.227189
0.234199
0.23919
0.241789
0.24179
0.239191
0.234199
0.227189
0.21864
0.209064
0.198952
0.188729
0.178739
0.169241
0.160419
0.152392
0.145233
0.138978
0.133639
0.129213
0.125691
0.123058
0.121297
0.120401
0.117727
0.118585
0.120302
0.122892
0.126376
0.13078
0.136129
0.142447
0.149748
0.158029
0.167256
0.177349
0.188155
0.19943
0.210813
0.221816
0.231838
0.2402
0.246239
0.249412
0.249412
0.246239
0.2402
0.231838
0.221816
0.210813
0.19943
0.188155
0.177349
0.167257
0.158029
0.149748
0.142447
0.136129
0.13078
0.126377
0.122892
0.120302
0.118585
0.117727
0.113371
0.114192
0.11585
0.118365
0.121772
0.126112
0.131437
0.137802
0.145268
0.153885
0.163688
0.174671
0.186754
0.199738
0.213257
0.226738
0.239391
0.250237
0.25824
0.262502
0.262502
0.25824
0.250237
0.239392
0.226738
0.213258
0.199738
0.186754
0.174671
0.163689
0.153886
0.145268
0.137803
0.131437
0.126112
0.121772
0.118365
0.11585
0.114192
0.113371
0.107392
0.10816
0.109719
0.112103
0.115355
0.119541
0.124741
0.131056
0.138602
0.14751
0.157918
0.169951
0.183675
0.199012
0.215653
0.232928
0.249802
0.264829
0.276251
0.282448
0.282448
0.276251
0.264829
0.249802
0.232928
0.215653
0.199013
0.183675
0.169951
0.157919
0.147511
0.138602
0.131056
0.124741
0.119541
0.115355
0.112103
0.10972
0.10816
0.107392
0.0998645
0.100551
0.101955
0.104117
0.107094
0.11097
0.115859
0.121905
0.129293
0.138249
0.149051
0.162026
0.17752
0.195729
0.216561
0.23945
0.262736
0.284819
0.302155
0.3118
0.3118
0.302155
0.284819
0.262737
0.239451
0.216561
0.195729
0.17752
0.162026
0.149051
0.138249
0.129293
0.121905
0.115859
0.110971
0.107094
0.104117
0.101955
0.100551
0.0998646
0.0908879
0.0914558
0.0926291
0.09445
0.0969843
0.100329
0.104618
0.110035
0.116823
0.125305
0.135906
0.149202
0.166009
0.187298
0.213202
0.243856
0.264294
0.296313
0.323019
0.34067
0.344702
0.333974
0.31142
0.282236
0.243857
0.213203
0.187299
0.166009
0.149203
0.135906
0.125305
0.116823
0.110035
0.104618
0.100329
0.0969843
0.09445
0.0926291
0.0914558
0.0908879
0.0806292
0.0810363
0.0818893
0.0832277
0.0851142
0.0876431
0.0909508
0.0952305
0.100751
0.107885
0.117168
0.129422
0.145802
0.167076
0.194988
0.229469
0.273349
0.320852
0.366811
0.399067
0.406264
0.385459
0.344753
0.296521
0.251813
0.212555
0.181675
0.145803
0.129422
0.117169
0.107886
0.100751
0.0952306
0.0909509
0.0876431
0.0851142
0.0832277
0.0818892
0.0810363
0.0806292
0.069345
0.069547
0.0699882
0.0706968
0.0717168
0.0731175
0.0750039
0.077532
0.0809299
0.0855224
0.0917855
0.100527
0.113162
0.137292
0.165103
0.205201
0.255781
0.324531
0.401853
0.46639
0.488508
0.455573
0.38602
0.30931
0.243573
0.183195
0.150373
0.113162
0.100528
0.0917857
0.0855225
0.0809299
0.077532
0.0750038
0.0731174
0.0717167
0.0706967
0.0699881
0.0695469
0.0693449
0.057383
0.0573429
0.0572961
0.0572498
0.0572124
0.0572022
0.0572525
0.0574212
0.0578047
0.0585483
0.059847
0.0620138
0.0657844
0.0875024
0.105652
0.141822
0.196422
0.289036
0.419786
0.562228
0.623676
0.546602
0.401604
0.275704
0.18203
0.119039
0.0956665
0.0657845
0.0620138
0.0598469
0.0585482
0.0578046
0.0574211
0.0572524
0.057202
0.0572123
0.0572497
0.0572959
0.0573427
0.0573828
0.0451705
0.0448694
0.044295
0.0434254
0.0422203
0.0406261
0.0385719
0.0359633
0.0326795
0.0285607
0.0233335
0.0164169
0.00685092
0.018542
0.0120046
0.0264689
0.0510597
0.110589
0.286035
0.621714
0.855016
0.597569
0.278791
0.0993262
0.0347741
0.00889619
0.0152641
0.00685045
0.0164165
0.0233331
0.0285603
0.0326792
0.035963
0.0385717
0.0406259
0.04222
0.0434252
0.0442948
0.0448692
0.0451703
0.0331899
0.0326361
0.0315487
0.0298739
0.0275193
0.0243542
0.0201934
0.014774
0.00772705
-0.00146297
-0.0135858
-0.0301054
-0.0536694
-0.0583225
-0.0984613
-0.126176
-0.177734
-0.237579
-0.231064
-0.235686
-0.253181
-0.183317
-0.125066
-0.0768545
-0.0536707
-0.0301063
-0.0135865
-0.00146358
0.00772654
0.0147736
0.0201931
0.0243539
0.0275189
0.0298736
0.0315484
0.0326358
0.0331896
0.0219384
0.0211708
0.0196454
0.0172817
0.0139452
0.0094427
0.00349856
-0.00428019
-0.0144493
-0.0277885
-0.0454426
-0.0693066
-0.102423
-0.122284
-0.185053
-0.244203
-0.343704
-0.488721
-0.698209
-0.691749
-0.476204
-0.333344
-0.224645
-0.151503
-0.102424
-0.069308
-0.0454437
-0.0277894
-0.01445
-0.00428078
0.00349805
0.00944225
0.0139448
0.0172813
0.019645
0.0211704
0.0219381
0.011877
0.0109592
0.00912183
0.0062692
0.0022451
-0.00317445
-0.0103062
-0.0195943
-0.0316558
-0.0473405
-0.0678499
-0.0949779
-0.131048
-0.15898
-0.223243
-0.285052
-0.368514
-0.456624
-0.519329
-0.516582
-0.447044
-0.354801
-0.260149
-0.18969
-0.13105
-0.0949795
-0.0678512
-0.0473415
-0.0316566
-0.019595
-0.0103068
-0.00317497
0.00224462
0.00626877
0.00912142
0.0109588
0.0118767
0.00337241
0.00238096
0.000384624
-0.0027138
-0.00706912
-0.0129016
-0.0205178
-0.0303374
-0.0429269
-0.0590403
-0.079693
-0.106264
-0.140169
-0.169579
-0.223547
-0.27395
-0.329146
-0.372211
-0.390919
-0.387897
-0.383097
-0.38927
-0.389819
-0.368317
-0.318744
-0.251745
-0.196163
-0.140171
-0.106265
-0.0796943
-0.0590413
-0.0429277
-0.0303382
-0.0205184
-0.0129022
-0.00706963
-0.00271427
0.000384182
0.00238054
0.003372
-0.00334924
-0.00433911
-0.00634302
-0.00944812
-0.0137896
-0.0195582
-0.0270144
-0.0365053
-0.0484846
-0.0635327
-0.0823772
-0.105862
-0.134629
-0.162543
-0.203775
-0.243273
-0.277664
-0.298098
-0.305998
-0.306025
-0.305077
-0.306389
-0.304999
-0.294214
-0.270382
-0.223746
-0.183746
-0.13463
-0.105863
-0.0823784
-0.0635337
-0.0484855
-0.036506
-0.027015
-0.0195588
-0.0137902
-0.0094486
-0.00634347
-0.00433955
-0.00334967
-0.00822401
-0.0091497
-0.0110341
-0.0139474
-0.0179957
-0.0233273
-0.0301416
-0.0386985
-0.0493279
-0.0624331
-0.078492
-0.0980814
-0.121831
-0.149012
-0.172853
-0.201265
-0.224002
-0.235705
-0.237628
-0.235516
-0.234405
-0.236118
-0.237747
-0.233949
-0.212274
-0.187987
-0.149014
-0.121832
-0.0980827
-0.0784931
-0.0624341
-0.0493287
-0.0386992
-0.0301422
-0.0233278
-0.0179962
-0.0139479
-0.0110345
-0.00915013
-0.00822444
-0.0113424
-0.0121595
-0.013833
-0.0164139
-0.0199761
-0.024623
-0.0304911
-0.0377535
-0.0466228
-0.057347
-0.0701882
-0.085366
-0.10285
-0.121627
-0.14249
-0.160171
-0.174824
-0.179453
-0.176998
-0.172686
-0.171053
-0.17366
-0.177991
-0.179176
-0.166299
-0.152332
-0.121629
-0.102851
-0.0853671
-0.0701891
-0.0573478
-0.0466236
-0.0377541
-0.0304917
-0.0246236
-0.0199766
-0.0164144
-0.0138335
-0.01216
-0.0113429
-0.0129189
-0.013602
-0.0150111
-0.0171784
-0.0201481
-0.0239819
-0.0287592
-0.0345772
-0.0415487
-0.0497948
-0.0594184
-0.0704281
-0.0825643
-0.0950124
-0.110983
-0.121145
-0.129822
-0.129369
-0.123887
-0.118039
-0.116022
-0.119277
-0.125481
-0.13013
-0.123903
-0.116979
-0.0950135
-0.0825653
-0.070429
-0.0594192
-0.0497955
-0.0415493
-0.0345777
-0.0287597
-0.0239823
-0.0201486
-0.0171789
-0.0150115
-0.0136024
-0.0129193
-0.0132493
-0.0137901
-0.0149156
-0.0166422
-0.0189891
-0.0219835
-0.0256593
-0.0300541
-0.0352056
-0.0411441
-0.0478711
-0.0552887
-0.0630356
-0.0703629
-0.0817731
-0.0862479
-0.090357
-0.0862677
-0.0788209
-0.0720847
-0.069865
-0.0734687
-0.0807877
-0.0877421
-0.0865585
-0.0847786
-0.0703638
-0.0630364
-0.0552895
-0.0478718
-0.0411447
-0.0352061
-0.0300546
-0.0256598
-0.0219839
-0.0189894
-0.0166426
-0.014916
-0.0137905
-0.0132496
-0.0126661
-0.0130702
-0.013921
-0.0152229
-0.0169764
-0.0191835
-0.0218447
-0.0249554
-0.0285008
-0.0324488
-0.0367339
-0.0411965
-0.0454052
-0.0485074
-0.0566194
-0.0567513
-0.057199
-0.0508197
-0.0422911
-0.0352722
-0.0331013
-0.0368895
-0.0447392
-0.0530582
-0.0545631
-0.0574666
-0.0485081
-0.0454059
-0.0411971
-0.0367344
-0.0324493
-0.0285012
-0.0249558
-0.0218451
-0.0191839
-0.0169767
-0.0152233
-0.0139213
-0.0130705
-0.0126664
-0.0114981
-0.0117808
-0.0123861
-0.0133101
-0.0145413
-0.0160653
-0.0178613
-0.0198983
-0.0221299
-0.0244864
-0.0268605
-0.0290706
-0.0307707
-0.0313997
-0.0306835
-0.0336766
-0.0277364
-0.0197346
-0.0109733
-0.00453672
-0.00308089
-0.00724644
-0.0152149
-0.0239201
-0.0308931
-0.0306842
-0.0314003
-0.0307712
-0.0290711
-0.0268609
-0.0244868
-0.0221303
-0.0198986
-0.0178616
-0.0160656
-0.0145416
-0.0133104
-0.0123863
-0.011781
-0.0114984
-0.0100397
-0.0102219
-0.010623
-0.0112345
-0.0120386
-0.0130123
-0.0141241
-0.0153307
-0.0165713
-0.0177608
-0.0187768
-0.0194344
-0.0194278
-0.0182628
-0.0155354
-0.0108772
-0.00392276
0.00447192
0.0122619
0.0170192
0.0170191
0.0122616
0.00447149
-0.00392324
-0.0108777
-0.0155359
-0.0182632
-0.0194282
-0.0194348
-0.0187771
-0.0177611
-0.0165716
-0.0153309
-0.0141244
-0.0130125
-0.0120388
-0.0112348
-0.0106232
-0.0102221
-0.0100399
-0.00853046
-0.00863577
-0.00887936
-0.0092512
-0.00973187
-0.0102965
-0.0109115
-0.0115317
-0.012096
-0.0125206
-0.0126878
-0.0124284
-0.0114885
-0.00949578
-0.00609312
-0.00101171
0.00575582
0.0133959
0.0202673
0.0243975
0.0243974
0.020267
0.0133956
0.00575546
-0.00101208
-0.00609347
-0.00949611
-0.0114888
-0.0124287
-0.0126881
-0.0125208
-0.0120962
-0.0115319
-0.0109117
-0.0102967
-0.00973206
-0.00925139
-0.00887954
-0.00863594
-0.00853064
-0.00714685
-0.00719834
-0.00733059
-0.00753423
-0.00779173
-0.00808087
-0.00837201
-0.00862557
-0.00878845
-0.00878801
-0.00852226
-0.00784585
-0.00655117
-0.00435318
-0.000953518
0.00386168
0.0099707
0.0166617
0.0225802
0.0261071
0.0261071
0.02258
0.0166615
0.00997044
0.00386141
-0.000953777
-0.00435342
-0.0065514
-0.00784606
-0.00852245
-0.00878819
-0.00878863
-0.00862573
-0.00837217
-0.00808102
-0.00779188
-0.00753437
-0.00733073
-0.00719849
-0.007147
-0.00600166
-0.00602008
-0.00608244
-0.00618146
-0.0063036
-0.00643198
-0.00654413
-0.00660973
-0.00658745
-0.00641915
-0.00602078
-0.00527011
-0.00399374
-0.0019633
0.00105899
0.0052223
0.0103913
0.015962
0.0208332
0.0237152
0.0237151
0.0208331
0.0159619
0.0103911
0.0052221
0.00105879
-0.00196349
-0.00399392
-0.00527027
-0.00602093
-0.00641929
-0.00658758
-0.00660986
-0.00654425
-0.0064321
-0.00630372
-0.00618157
-0.00608255
-0.00602019
-0.00600178
-0.00515062
-0.00515304
-0.00517959
-0.00522572
-0.00528274
-0.0053401
-0.00538345
-0.00539255
-0.00533799
-0.00517549
-0.00483707
-0.00421997
-0.00317718
-0.00151992
0.000942756
0.00431627
0.00847288
0.0129144
0.0167682
0.0190358
0.0190357
0.0167681
0.0129143
0.00847272
0.0043161
0.000942581
-0.00152009
-0.00317734
-0.00422011
-0.0048372
-0.00517561
-0.0053381
-0.00539265
-0.00538355
-0.0053402
-0.00528283
-0.00522582
-0.00517969
-0.00515313
-0.00515072
-0.00460296
-0.0046022
-0.00461845
-0.00464989
-0.00469263
-0.00474214
-0.00479154
-0.00482941
-0.00483633
-0.00477902
-0.00460179
-0.00421672
-0.00349682
-0.00228197
-0.000414759
0.00218379
0.00540072
0.00883351
0.0118015
0.0135422
0.0135422
0.0118014
0.00883339
0.00540057
0.00218363
-0.000414923
-0.00228213
-0.00349697
-0.00421686
-0.00460192
-0.00477913
-0.00483643
-0.0048295
-0.00479163
-0.00474223
-0.00469271
-0.00464997
-0.00461853
-0.00460228
-0.00460304
-0.00433386
-0.00433846
-0.00436132
-0.00440302
-0.00446368
-0.00454368
-0.00464188
-0.00475335
-0.00486558
-0.00495252
-0.00496646
-0.00482968
-0.00443008
-0.00362957
-0.0022969
-0.000371562
0.00204943
0.00464458
0.00688761
0.0082012
0.00820118
0.00688754
0.00464448
0.0020493
-0.000371708
-0.00229705
-0.00362973
-0.00443023
-0.00482981
-0.00496658
-0.00495262
-0.00486568
-0.00475344
-0.00464196
-0.00454376
-0.00446375
-0.00440309
-0.0043614
-0.00433853
-0.00433393
-0.00429705
-0.00431166
-0.00435039
-0.00441559
-0.00451034
-0.00463831
-0.004802
-0.00500026
-0.00522427
-0.00545163
-0.00563904
-0.0057156
-0.00558106
-0.00511602
-0.00421197
-0.0028241
-0.00103604
0.000896303
0.0025686
0.00354717
0.00354715
0.00256855
0.000896221
-0.00103615
-0.00282423
-0.00421211
-0.00511616
-0.0055812
-0.00571573
-0.00563916
-0.00545173
-0.00522436
-0.00500034
-0.00480208
-0.00463838
-0.00451041
-0.00441566
-0.00435046
-0.00431173
-0.00429712
-0.00443591
-0.00446203
-0.00451975
-0.00461251
-0.00474516
-0.00492305
-0.00515029
-0.0054271
-0.00574569
-0.00608474
-0.00640317
-0.00663532
-0.0066916
-0.00646988
-0.00588251
-0.00489881
-0.00359208
-0.0021661
-0.000930037
-0.000207319
-0.000207331
-0.000930074
-0.00216616
-0.00359217
-0.00489892
-0.00588263
-0.00647001
-0.00669173
-0.00663544
-0.00640328
-0.00608485
-0.00574578
-0.00542718
-0.00515037
-0.00492312
-0.00474523
-0.00461258
-0.00451982
-0.00446209
-0.00443597
-0.00469245
-0.0047293
-0.00480478
-0.00492277
-0.00508881
-0.00530859
-0.00558621
-0.00592147
-0.00630595
-0.00671806
-0.0071181
-0.00744546
-0.0076211
-0.00755942
-0.00719181
-0.0064999
-0.00554854
-0.00450012
-0.00359026
-0.00305887
-0.00305888
-0.00359028
-0.00450016
-0.00554861
-0.00649998
-0.00719191
-0.00755953
-0.00762121
-0.00744557
-0.00711821
-0.00671816
-0.00630604
-0.00592156
-0.00558629
-0.00530867
-0.00508888
-0.00492284
-0.00480484
-0.00472936
-0.00469251
-0.00501359
-0.00505898
-0.00514835
-0.00528549
-0.00547581
-0.00572434
-0.00603412
-0.00640353
-0.00682275
-0.00726959
-0.00770594
-0.00807667
-0.00831349
-0.00834642
-0.00812366
-0.00763684
-0.00694332
-0.00617231
-0.00550296
-0.00511265
-0.00511265
-0.00550298
-0.00617233
-0.00694336
-0.0076369
-0.00812373
-0.0083465
-0.00831358
-0.00807676
-0.00770603
-0.00726967
-0.00682283
-0.00640361
-0.00603419
-0.00572441
-0.00547587
-0.00528556
-0.00514841
-0.00505904
-0.00501365
-0.0053549
-0.00540601
-0.00550419
-0.00565282
-0.00585659
-0.00611935
-0.00644251
-0.00682271
-0.00724866
-0.00769793
-0.00813463
-0.0085097
-0.00876549
-0.00884634
-0.00871466
-0.00836962
-0.00786146
-0.00729275
-0.0067994
-0.0065123
-0.0065123
-0.00679941
-0.00729276
-0.00786148
-0.00836966
-0.00871472
-0.0088464
-0.00876556
-0.00850977
-0.00813471
-0.00769801
-0.00724873
-0.00682278
-0.00644257
-0.00611941
-0.00585665
-0.00565287
-0.00550424
-0.00540606
-0.00535495
-0.00568214
-0.00573605
-0.00583784
-0.00599027
-0.00619705
-0.00646058
-0.00678058
-0.00715203
-0.00756259
-0.00799021
-0.00840194
-0.00875512
-0.00900227
-0.00910028
-0.00902311
-0.00877511
-0.00839978
-0.00797822
-0.00761329
-0.00740148
-0.00740148
-0.00761329
-0.00797822
-0.00839979
-0.00877513
-0.00902315
-0.00910033
-0.00900233
-0.00875518
-0.008402
-0.00799027
-0.00756265
-0.00715209
-0.00678064
-0.00646064
-0.00619711
-0.00599033
-0.0058379
-0.0057361
-0.00568219
-0.00597126
-0.00602535
-0.00612611
-0.00627562
-0.00647651
-0.00672978
-0.00703365
-0.0073818
-0.00776143
-0.00815155
-0.00852267
-0.00883858
-0.00906106
-0.0091576
-0.00911116
-0.00892932
-0.00864926
-0.00833481
-0.00806362
-0.00790674
-0.00790673
-0.00806362
-0.0083348
-0.00864926
-0.00892932
-0.00911117
-0.00915763
-0.0090611
-0.00883863
-0.00852272
-0.0081516
-0.00776148
-0.00738186
-0.0070337
-0.00672983
-0.00647656
-0.00627567
-0.00612616
-0.0060254
-0.0059713
-0.00620733
-0.00625946
-0.00635547
-0.00649677
-0.00668499
-0.00691993
-0.0071986
-0.00751393
-0.00785318
-0.00819703
-0.00851972
-0.0087912
-0.00898136
-0.00906636
-0.00903587
-0.0088992
-0.00868773
-0.00845145
-0.00824884
-0.00813211
-0.0081321
-0.00824883
-0.00845144
-0.00868772
-0.00889919
-0.00903587
-0.00906637
-0.00898138
-0.00879123
-0.00851976
-0.00819706
-0.00785322
-0.00751397
-0.00719865
-0.00691997
-0.00668504
-0.00649681
-0.00635551
-0.0062595
-0.00620737
-0.00638295
-0.00643155
-0.00652011
-0.00664949
-0.00682047
-0.00703188
-0.00727996
-0.0075573
-0.00785179
-0.00814609
-0.00841828
-0.00864388
-0.00879969
-0.00886872
-0.00884548
-0.00873988
-0.00857807
-0.00839904
-0.00824671
-0.00815937
-0.00815937
-0.0082467
-0.00839902
-0.00857806
-0.00873986
-0.00884547
-0.00886872
-0.0087997
-0.0086439
-0.0084183
-0.00814612
-0.00785182
-0.00755733
-0.00727999
-0.00703191
-0.00682051
-0.00664953
-0.00652015
-0.00643158
-0.00638298
-0.0064965
-0.00654052
-0.00661996
-0.00673519
-0.00688633
-0.00707156
-0.00728667
-0.00752437
-0.0077735
-0.00801894
-0.00824238
-0.00842432
-0.00854721
-0.00859934
-0.00857853
-0.00849454
-0.00836894
-0.00823198
-0.00811658
-0.00805081
-0.00805081
-0.00811657
-0.00823196
-0.00836892
-0.00849452
-0.00857852
-0.00859933
-0.00854721
-0.00842432
-0.00824239
-0.00801895
-0.00777352
-0.00752439
-0.0072867
-0.00707158
-0.00688636
-0.00673522
-0.00661999
-0.00654055
-0.00649653
-0.00655047
-0.00658936
-0.00665883
-0.00675894
-0.0068893
-0.0070477
-0.00722984
-0.00742878
-0.0076346
-0.00783439
-0.00801317
-0.00815569
-0.00824897
-0.00828521
-0.00826443
-0.00819571
-0.00809667
-0.00799073
-0.00790251
-0.00785256
-0.00785256
-0.0079025
-0.00799071
-0.00809665
-0.00819569
-0.00826441
-0.0082852
-0.00824896
-0.00815569
-0.00801318
-0.0078344
-0.00763461
-0.0074288
-0.00722985
-0.00704772
-0.00688933
-0.00675896
-0.00665886
-0.00658939
-0.0065505
-0.00655001
-0.00658359
-0.00664296
-0.00672795
-0.00683784
-0.00697027
-0.00712104
-0.00728384
-0.00745002
-0.00760882
-0.00774823
-0.0078565
-0.00792424
-0.00794655
-0.00792474
-0.007867
-0.0077876
-0.00770459
-0.00763639
-0.00759807
-0.00759807
-0.00763638
-0.00770457
-0.00778758
-0.00786698
-0.00792472
-0.00794654
-0.00792424
-0.0078565
-0.00774823
-0.00760883
-0.00745003
-0.00728385
-0.00712105
-0.00697028
-0.00683786
-0.00672796
-0.00664298
-0.00658361
-0.00655003
-0.00650175
-0.00653014
-0.00657978
-0.00665035
-0.00674097
-0.00684927
-0.00697134
-0.0071016
-0.0072327
-0.00735583
-0.0074615
-0.00754087
-0.00758729
-0.00759791
-0.00757478
-0.00752507
-0.00746025
-0.00739424
-0.00734083
-0.00731105
-0.00731105
-0.00734082
-0.00739423
-0.00746024
-0.00752505
-0.00757476
-0.0075979
-0.00758728
-0.00754086
-0.0074615
-0.00735583
-0.00723271
-0.00710161
-0.00697135
-0.00684928
-0.00674098
-0.00665036
-0.00657979
-0.00653016
-0.00650176
-0.00641294
-0.00643646
-0.00647707
-0.0065344
-0.0066075
-0.00669412
-0.00679073
-0.00689253
-0.00699338
-0.00708621
-0.00716368
-0.00721922
-0.00724828
-0.00724942
-0.00722503
-0.00718128
-0.00712738
-0.00707401
-0.00703152
-0.00700804
-0.00700803
-0.00703151
-0.007074
-0.00712737
-0.00718127
-0.00722501
-0.00724941
-0.00724826
-0.00721921
-0.00716367
-0.00708621
-0.00699338
-0.00689253
-0.00679073
-0.00669412
-0.00660751
-0.0065344
-0.00647707
-0.00643647
-0.00641294
-0.00629079
-0.0063099
-0.00634239
-0.00638792
-0.00644555
-0.0065132
-0.0065878
-0.00666529
-0.00674067
-0.00680833
-0.00686267
-0.00689895
-0.00691416
-0.00690783
-0.00688241
-0.00684318
-0.00679747
-0.00675353
-0.00671913
-0.00670029
-0.00670029
-0.00671912
-0.00675352
-0.00679746
-0.00684317
-0.0068824
-0.00690782
-0.00691415
-0.00689895
-0.00686267
-0.00680832
-0.00674066
-0.00666529
-0.0065878
-0.0065132
-0.00644555
-0.00638793
-0.00634239
-0.0063099
-0.00629079
-0.00614212
-0.00615731
-0.00618272
-0.006218
-0.00626228
-0.00631373
-0.00636973
-0.00642691
-0.00648125
-0.00652839
-0.00656414
-0.00658514
-0.00658952
-0.00657743
-0.00655128
-0.0065155
-0.00647598
-0.00643908
-0.00641069
-0.00639529
-0.00639529
-0.00641069
-0.00643908
-0.00647597
-0.0065155
-0.00655127
-0.00657742
-0.00658951
-0.00658514
-0.00656414
-0.00652838
-0.00648124
-0.0064269
-0.00636973
-0.00631373
-0.00626228
-0.00621799
-0.00618271
-0.00615731
-0.00614212
-0.00597304
-0.00598487
-0.0060042
-0.00603079
-0.00606382
-0.00610174
-0.00614234
-0.00618287
-0.00622017
-0.0062509
-0.00627196
-0.00628106
-0.00627713
-0.00626072
-0.00623411
-0.00620104
-0.00616621
-0.00613459
-0.00611067
-0.00609781
-0.00609781
-0.00611067
-0.00613459
-0.0061662
-0.00620103
-0.00623411
-0.00626072
-0.00627712
-0.00628105
-0.00627195
-0.00625089
-0.00622016
-0.00618286
-0.00614233
-0.00610173
-0.00606382
-0.00603078
-0.0060042
-0.00598486
-0.00597303
-0.00578891
-0.00579788
-0.00581215
-0.00583151
-0.00585527
-0.0058821
-0.00591021
-0.00593738
-0.00596114
-0.00597897
-0.00598865
-0.00598866
-0.00597849
-0.00595895
-0.00593213
-0.00590119
-0.00586994
-0.00584228
-0.00582169
-0.00581071
-0.00581071
-0.00582169
-0.00584228
-0.00586993
-0.00590119
-0.00593213
-0.00595895
-0.00597848
-0.00598865
-0.00598864
-0.00597896
-0.00596113
-0.00593736
-0.00591019
-0.00588209
-0.00585526
-0.00583149
-0.00581214
-0.00579787
-0.0057889
-0.00559425
-0.00560086
-0.00561098
-0.00562446
-0.00564074
-0.00565869
-0.00567687
-0.00569353
-0.00570675
-0.00571467
-0.00571571
-0.00570892
-0.0056942
-0.00567248
-0.00564565
-0.00561642
-0.00558791
-0.00556322
-0.0055451
-0.00553551
-0.00553551
-0.00554509
-0.00556322
-0.0055879
-0.00561642
-0.00564565
-0.00567247
-0.00569419
-0.00570891
-0.0057157
-0.00571465
-0.00570674
-0.00569351
-0.00567686
-0.00565868
-0.00564072
-0.00562445
-0.00561096
-0.00560084
-0.00559423
-0.00539279
-0.00539749
-0.00540429
-0.00541311
-0.00542348
-0.00543449
-0.00544496
-0.00545353
-0.00545875
-0.00545923
-0.00545388
-0.00544216
-0.00542423
-0.00540106
-0.0053744
-0.00534656
-0.00532013
-0.00529767
-0.00528137
-0.0052728
-0.0052728
-0.00528137
-0.00529767
-0.00532013
-0.00534655
-0.00537439
-0.00540105
-0.00542422
-0.00544214
-0.00545386
-0.00545921
-0.00545873
-0.00545351
-0.00544494
-0.00543447
-0.00542346
-0.00541309
-0.00540427
-0.00539747
-0.00539277
-0.00518756
-0.00519074
-0.00519495
-0.00520016
-0.00520599
-0.00521171
-0.00521637
-0.0052189
-0.00521821
-0.00521327
-0.00520335
-0.00518819
-0.0051681
-0.00514408
-0.0051177
-0.00509099
-0.00506616
-0.00504535
-0.00503038
-0.00502255
-0.00502255
-0.00503038
-0.00504535
-0.00506615
-0.00509098
-0.00511769
-0.00514407
-0.00516809
-0.00518817
-0.00520333
-0.00521325
-0.00521818
-0.00521888
-0.00521634
-0.00521168
-0.00520597
-0.00520014
-0.00519493
-0.00519072
-0.00518753
-0.0049809
-0.00498292
-0.00498517
-0.00498768
-0.00499014
-0.00499196
-0.00499238
-0.00499057
-0.00498568
-0.00497697
-0.00496394
-0.00494651
-0.00492509
-0.00490065
-0.00487463
-0.00484884
-0.00482522
-0.00480562
-0.0047916
-0.0047843
-0.0047843
-0.0047916
-0.00480561
-0.00482521
-0.00484883
-0.00487462
-0.00490063
-0.00492507
-0.00494649
-0.00496392
-0.00497694
-0.00498566
-0.00499054
-0.00499235
-0.00499193
-0.00499011
-0.00498765
-0.00498514
-0.00498289
-0.00498087
-0.00477463
-0.00477576
-0.00477659
-0.00477717
-0.00477724
-0.00477632
-0.00477382
-0.00476905
-0.00476136
-0.00475018
-0.00473519
-0.0047164
-0.00469427
-0.00466974
-0.00464413
-0.00461909
-0.00459637
-0.00457762
-0.00456427
-0.00455733
-0.00455733
-0.00456427
-0.00457761
-0.00459635
-0.00461908
-0.00464411
-0.00466972
-0.00469425
-0.00471637
-0.00473516
-0.00475015
-0.00476133
-0.00476902
-0.00477378
-0.00477629
-0.00477721
-0.00477713
-0.00477656
-0.00477573
-0.0047746
-0.00457005
-0.00457056
-0.00457041
-0.00456969
-0.00456818
-0.00456549
-0.00456112
-0.00455451
-0.00454513
-0.00453252
-0.00451646
-0.00449702
-0.00447465
-0.00445026
-0.00442507
-0.00440063
-0.00437854
-0.00436038
-0.00434747
-0.00434076
-0.00434075
-0.00434746
-0.00436037
-0.00437853
-0.00440061
-0.00442505
-0.00445023
-0.00447462
-0.00449698
-0.00451642
-0.00453249
-0.00454509
-0.00455447
-0.00456108
-0.00456546
-0.00456815
-0.00456965
-0.00457037
-0.00457052
-0.00457002
-0.00436811
-0.00436819
-0.00436743
-0.00436593
-0.00436352
-0.00435983
-0.00435444
-0.00434688
-0.00433668
-0.00432345
-0.00430701
-0.00428743
-0.00426518
-0.00424107
-0.0042163
-0.00419231
-0.00417066
-0.00415286
-0.00414019
-0.00413361
-0.00413361
-0.00414018
-0.00415284
-0.00417064
-0.00419229
-0.00421627
-0.00424104
-0.00426514
-0.00428739
-0.00430697
-0.00432341
-0.00433664
-0.00434684
-0.0043544
-0.00435979
-0.00436348
-0.0043659
-0.00436739
-0.00436815
-0.00436807
-0.00416939
-0.00416921
-0.00416815
-0.0041663
-0.0041635
-0.00415944
-0.00415372
-0.0041459
-0.00413556
-0.00412233
-0.00410602
-0.0040867
-0.00406479
-0.00404107
-0.00401668
-0.00399302
-0.00397162
-0.00395399
-0.00394143
-0.00393489
-0.00393488
-0.00394141
-0.00395397
-0.00397159
-0.00399298
-0.00401664
-0.00404103
-0.00406474
-0.00408665
-0.00410597
-0.00412228
-0.00413551
-0.00414585
-0.00415367
-0.00415939
-0.00416346
-0.00416626
-0.00416811
-0.00416917
-0.00416935
-0.00397424
-0.00397394
-0.00397282
-0.00397096
-0.0039682
-0.00396425
-0.00395872
-0.00395119
-0.00394122
-0.00392845
-0.00391265
-0.00389386
-0.00387245
-0.00384916
-0.0038251
-0.00380165
-0.00378035
-0.00376274
-0.00375016
-0.0037436
-0.00374359
-0.00375014
-0.00376272
-0.00378032
-0.00380161
-0.00382505
-0.00384911
-0.0038724
-0.0038938
-0.00391259
-0.00392839
-0.00394117
-0.00395114
-0.00395867
-0.0039642
-0.00396816
-0.00397092
-0.00397278
-0.0039739
-0.0039742
-0.00378281
-0.0037825
-0.00378151
-0.0037799
-0.00377751
-0.00377404
-0.0037691
-0.00376226
-0.00375305
-0.00374107
-0.00372605
-0.00370797
-0.00368715
-0.00366431
-0.00364051
-0.00361716
-0.00359584
-0.00357812
-0.00356542
-0.00355878
-0.00355878
-0.0035654
-0.00357809
-0.0035958
-0.00361712
-0.00364046
-0.00366425
-0.0036871
-0.00370791
-0.00372599
-0.00374101
-0.003753
-0.00376221
-0.00376905
-0.00377399
-0.00377747
-0.00377986
-0.00378146
-0.00378246
-0.00378277
-0.00359509
-0.00359485
-0.00359414
-0.00359299
-0.00359122
-0.00358851
-0.00358446
-0.0035786
-0.00357042
-0.00355945
-0.00354538
-0.00352812
-0.00350794
-0.00348552
-0.00346192
-0.00343858
-0.00341711
-0.00339918
-0.00338628
-0.00337953
-0.00337952
-0.00338626
-0.00339915
-0.00341707
-0.00343853
-0.00346187
-0.00348546
-0.00350788
-0.00352806
-0.00354532
-0.00355939
-0.00357036
-0.00357854
-0.00358441
-0.00358846
-0.00359117
-0.00359295
-0.0035941
-0.00359481
-0.00359505
-0.00341098
-0.00341088
-0.00341055
-0.00341001
-0.00340903
-0.00340728
-0.00340433
-0.00339964
-0.00339267
-0.00338287
-0.00336984
-0.00335346
-0.00333392
-0.00331188
-0.00328841
-0.00326498
-0.00324328
-0.00322505
-0.00321189
-0.00320499
-0.00320498
-0.00321187
-0.00322502
-0.00324323
-0.00326493
-0.00328836
-0.00331182
-0.00333386
-0.0033534
-0.00336978
-0.00338281
-0.00339261
-0.00339959
-0.00340428
-0.00340723
-0.00340899
-0.00340997
-0.00341051
-0.00341084
-0.00341095
-0.00323031
-0.00323039
-0.00323053
-0.00323069
-0.00323062
-0.00322997
-0.00322823
-0.00322485
-0.00321918
-0.00321061
-0.00319868
-0.00318318
-0.00316426
-0.00314255
-0.00311914
-0.00309554
-0.00307353
-0.00305496
-0.00304149
-0.00303441
-0.0030344
-0.00304147
-0.00305492
-0.00307349
-0.00309549
-0.00311909
-0.00314249
-0.0031642
-0.00318311
-0.00319862
-0.00321056
-0.00321913
-0.0032248
-0.00322819
-0.00322992
-0.00323059
-0.00323065
-0.0032305
-0.00323036
-0.00323027
-0.00305286
-0.00305317
-0.00305383
-0.00305475
-0.00305567
-0.00305617
-0.00305572
-0.00305369
-0.00304936
-0.00304204
-0.0030312
-0.00301654
-0.0029982
-0.00297676
-0.00295336
-0.00292954
-0.00290717
-0.00288819
-0.00287439
-0.00286712
-0.00286712
-0.00287437
-0.00288816
-0.00290712
-0.00292949
-0.0029533
-0.00297671
-0.00299814
-0.00301648
-0.00303114
-0.00304199
-0.00304931
-0.00305364
-0.00305568
-0.00305613
-0.00305563
-0.00305472
-0.0030538
-0.00305315
-0.00305284
-0.00287846
-0.00287901
-0.0028802
-0.00288192
-0.00288384
-0.00288552
-0.00288637
-0.00288568
-0.00288267
-0.00287657
-0.00286676
-0.0028529
-0.00283507
-0.00281386
-0.00279041
-0.00276633
-0.00274357
-0.00272418
-0.00271003
-0.00270257
-0.00270257
-0.00271002
-0.00272415
-0.00274353
-0.00276628
-0.00279036
-0.00281381
-0.00283502
-0.00285285
-0.00286671
-0.00287652
-0.00288263
-0.00288564
-0.00288633
-0.00288549
-0.00288381
-0.00288189
-0.00288018
-0.00287899
-0.00287843
-0.00270691
-0.00270772
-0.00270946
-0.00271196
-0.00271487
-0.0027177
-0.0027198
-0.0027204
-0.00271865
-0.00271369
-0.00270485
-0.00269172
-0.00267434
-0.0026533
-0.00262976
-0.0026054
-0.00258225
-0.00256245
-0.00254797
-0.00254032
-0.00254031
-0.00254795
-0.00256242
-0.00258222
-0.00260536
-0.00262972
-0.00265325
-0.00267429
-0.00269167
-0.00270481
-0.00271365
-0.00271861
-0.00272037
-0.00271977
-0.00271768
-0.00271485
-0.00271194
-0.00270945
-0.00270771
-0.00270689
-0.00253811
-0.00253918
-0.00254145
-0.00254471
-0.00254856
-0.00255246
-0.00255573
-0.00255753
-0.00255693
-0.00255301
-0.00254504
-0.00253254
-0.00251555
-0.00249465
-0.00247101
-0.00244637
-0.00242285
-0.00240266
-0.00238787
-0.00238005
-0.00238004
-0.00238786
-0.00240264
-0.00242282
-0.00244634
-0.00247098
-0.00249461
-0.00251552
-0.00253251
-0.002545
-0.00255299
-0.0025569
-0.00255751
-0.00255572
-0.00255245
-0.00254854
-0.0025447
-0.00254144
-0.00253917
-0.0025381
-0.002372
-0.00237333
-0.0023761
-0.00238005
-0.00238476
-0.00238965
-0.00239398
-0.00239684
-0.00239726
-0.00239426
-0.00238703
-0.00237509
-0.00235842
-0.00233762
-0.00231389
-0.00228901
-0.00226515
-0.00224463
-0.00222957
-0.00222159
-0.00222159
-0.00222956
-0.00224462
-0.00226513
-0.00228898
-0.00231386
-0.00233759
-0.0023584
-0.00237507
-0.00238701
-0.00239424
-0.00239724
-0.00239683
-0.00239397
-0.00238964
-0.00238476
-0.00238005
-0.0023761
-0.00237333
-0.002372
-0.00220863
-0.00221021
-0.00221343
-0.002218
-0.00222347
-0.00222921
-0.00223444
-0.00223822
-0.0022395
-0.00223727
-0.00223067
-0.00221919
-0.0022028
-0.00218208
-0.00215828
-0.0021332
-0.00210909
-0.00208831
-0.00207303
-0.00206493
-0.00206493
-0.00207302
-0.0020883
-0.00210908
-0.00213319
-0.00215826
-0.00218207
-0.00220279
-0.00221918
-0.00223067
-0.00223727
-0.0022395
-0.00223822