/*--------------------------------*- C++ -*----------------------------------*\
  =========                 |
  \\      /  F ield         | OpenFOAM: The Open Source CFD Toolbox
   \\    /   O peration     | Website:  https://openfoam.org
    \\  /    A nd           | Version:  6
     \\/     M anipulation  |
\*---------------------------------------------------------------------------*/
FoamFile
{
    version     2.0;
    format      ascii;
    class       volVectorField;
    location    "0";
    object      U_rec;
}
// * * * * * * * * * * * * * * * * * * * * * * * * * * * * * * * * * * * * * //

dimensions      [0 1 -1 0 0 0 0];

internalField   nonuniform List<vector> 
40000
(
(4.46587e-07 -4.46697e-07 0)
(2.75489e-06 -9.36404e-07 0)
(5.96173e-06 -1.09195e-06 0)
(9.23566e-06 -9.66844e-07 0)
(1.17378e-05 -6.87725e-07 0)
(1.3004e-05 -3.21563e-07 0)
(1.27773e-05 8.75762e-08 0)
(1.09307e-05 5.10755e-07 0)
(7.42788e-06 9.29685e-07 0)
(2.29302e-06 1.33289e-06 0)
(-4.41044e-06 1.71336e-06 0)
(-1.25947e-05 2.06711e-06 0)
(-2.2158e-05 2.39222e-06 0)
(-3.29905e-05 2.68816e-06 0)
(-4.49807e-05 2.95534e-06 0)
(-5.8019e-05 3.19481e-06 0)
(-7.19987e-05 3.40802e-06 0)
(-8.68191e-05 3.59668e-06 0)
(-0.000102385 3.76265e-06 0)
(-0.00011861 3.90785e-06 0)
(-0.000135412 4.03419e-06 0)
(-0.000152719 4.14355e-06 0)
(-0.000170464 4.23774e-06 0)
(-0.000188588 4.31845e-06 0)
(-0.000207038 4.38729e-06 0)
(-0.000225767 4.44576e-06 0)
(-0.000244735 4.4952e-06 0)
(-0.000263906 4.53685e-06 0)
(-0.000283248 4.57182e-06 0)
(-0.000302735 4.60111e-06 0)
(-0.000322344 4.62557e-06 0)
(-0.000342056 4.64598e-06 0)
(-0.000361853 4.66298e-06 0)
(-0.000381721 4.67713e-06 0)
(-0.000401648 4.68888e-06 0)
(-0.000421624 4.69861e-06 0)
(-0.000441639 4.70663e-06 0)
(-0.000461686 4.71317e-06 0)
(-0.000481759 4.71838e-06 0)
(-0.00050185 4.72238e-06 0)
(-0.000521954 4.72523e-06 0)
(-0.000542064 4.72695e-06 0)
(-0.000562176 4.7275e-06 0)
(-0.000582283 4.72686e-06 0)
(-0.000602379 4.72492e-06 0)
(-0.000622459 4.72157e-06 0)
(-0.000642514 4.71669e-06 0)
(-0.000662537 4.71012e-06 0)
(-0.000682521 4.70171e-06 0)
(-0.000702456 4.69126e-06 0)
(-0.000722333 4.67861e-06 0)
(-0.000742141 4.66354e-06 0)
(-0.00076187 4.64586e-06 0)
(-0.000781508 4.62536e-06 0)
(-0.000801042 4.60182e-06 0)
(-0.000820457 4.57502e-06 0)
(-0.000839741 4.54475e-06 0)
(-0.000858877 4.51078e-06 0)
(-0.000877848 4.47289e-06 0)
(-0.000896639 4.43086e-06 0)
(-0.00091523 4.3845e-06 0)
(-0.000933603 4.33356e-06 0)
(-0.000951738 4.27783e-06 0)
(-0.000969615 4.21712e-06 0)
(-0.000987211 4.15122e-06 0)
(-0.00100451 4.07992e-06 0)
(-0.00102147 4.00306e-06 0)
(-0.0010381 3.92044e-06 0)
(-0.00105434 3.83188e-06 0)
(-0.00107019 3.73725e-06 0)
(-0.00108561 3.63634e-06 0)
(-0.00110059 3.52906e-06 0)
(-0.00111509 3.41526e-06 0)
(-0.00112908 3.29482e-06 0)
(-0.00114254 3.16768e-06 0)
(-0.00115544 3.03372e-06 0)
(-0.00116775 2.89285e-06 0)
(-0.00117945 2.74506e-06 0)
(-0.0011905 2.59029e-06 0)
(-0.00120088 2.42853e-06 0)
(-0.00121055 2.25981e-06 0)
(-0.0012195 2.08414e-06 0)
(-0.00122768 1.90157e-06 0)
(-0.00123508 1.71217e-06 0)
(-0.00124167 1.51604e-06 0)
(-0.00124742 1.3133e-06 0)
(-0.00125229 1.10412e-06 0)
(-0.00125628 8.88605e-07 0)
(-0.00125934 6.67008e-07 0)
(-0.00126146 4.3954e-07 0)
(-0.00126262 2.06447e-07 0)
(-0.00126279 -3.19737e-08 0)
(-0.00126195 -2.75433e-07 0)
(-0.00126009 -5.23582e-07 0)
(-0.00125718 -7.76056e-07 0)
(-0.00125321 -1.03247e-06 0)
(-0.00124816 -1.29237e-06 0)
(-0.00124203 -1.55534e-06 0)
(-0.0012348 -1.82089e-06 0)
(-0.00122645 -2.0885e-06 0)
(-0.001217 -2.35765e-06 0)
(-0.00120643 -2.62777e-06 0)
(-0.00119473 -2.89829e-06 0)
(-0.00118191 -3.16858e-06 0)
(-0.00116798 -3.43804e-06 0)
(-0.00115294 -3.706e-06 0)
(-0.00113679 -3.97179e-06 0)
(-0.00111955 -4.23474e-06 0)
(-0.00110123 -4.49414e-06 0)
(-0.00108185 -4.74928e-06 0)
(-0.00106143 -4.99944e-06 0)
(-0.00103999 -5.2439e-06 0)
(-0.00101755 -5.48193e-06 0)
(-0.000994147 -5.7128e-06 0)
(-0.000969814 -5.93577e-06 0)
(-0.000944577 -6.15013e-06 0)
(-0.000918473 -6.35516e-06 0)
(-0.000891549 -6.55019e-06 0)
(-0.000863849 -6.7345e-06 0)
(-0.000835409 -6.90745e-06 0)
(-0.000806283 -7.0684e-06 0)
(-0.00077652 -7.21674e-06 0)
(-0.000746174 -7.35193e-06 0)
(-0.000715303 -7.47339e-06 0)
(-0.000683956 -7.58065e-06 0)
(-0.000652201 -7.67322e-06 0)
(-0.000620093 -7.75073e-06 0)
(-0.000587697 -7.81275e-06 0)
(-0.000555077 -7.85903e-06 0)
(-0.000522296 -7.88931e-06 0)
(-0.000489421 -7.90337e-06 0)
(-0.000456518 -7.90104e-06 0)
(-0.000423656 -7.88229e-06 0)
(-0.000390902 -7.84706e-06 0)
(-0.000358321 -7.79544e-06 0)
(-0.00032598 -7.72749e-06 0)
(-0.000293948 -7.64335e-06 0)
(-0.000262288 -7.54332e-06 0)
(-0.000231066 -7.42759e-06 0)
(-0.000200345 -7.29658e-06 0)
(-0.000170187 -7.15063e-06 0)
(-0.000140652 -6.99019e-06 0)
(-0.000111798 -6.81585e-06 0)
(-8.36823e-05 -6.62812e-06 0)
(-5.6358e-05 -6.42755e-06 0)
(-2.98766e-05 -6.21484e-06 0)
(-4.28654e-06 -5.99066e-06 0)
(2.03653e-05 -5.75572e-06 0)
(4.40366e-05 -5.51076e-06 0)
(6.6688e-05 -5.25657e-06 0)
(8.82822e-05 -4.99394e-06 0)
(0.000108784 -4.72365e-06 0)
(0.000128165 -4.44654e-06 0)
(0.000146398 -4.16343e-06 0)
(0.000163459 -3.87515e-06 0)
(0.000179327 -3.58254e-06 0)
(0.000193986 -3.28641e-06 0)
(0.000207422 -2.98758e-06 0)
(0.000219624 -2.68685e-06 0)
(0.000230586 -2.38501e-06 0)
(0.000240303 -2.08283e-06 0)
(0.000248776 -1.78106e-06 0)
(0.000256005 -1.48044e-06 0)
(0.000261997 -1.18169e-06 0)
(0.00026676 -8.85497e-07 0)
(0.000270304 -5.92541e-07 0)
(0.000272644 -3.03482e-07 0)
(0.000273797 -1.89652e-08 0)
(0.000273782 2.60368e-07 0)
(0.000272621 5.33893e-07 0)
(0.000270338 8.00975e-07 0)
(0.000266962 1.06098e-06 0)
(0.000262523 1.31324e-06 0)
(0.000257054 1.55708e-06 0)
(0.000250592 1.79178e-06 0)
(0.000243175 2.01657e-06 0)
(0.000234847 2.23062e-06 0)
(0.000225655 2.43299e-06 0)
(0.000215649 2.62268e-06 0)
(0.000204886 2.79852e-06 0)
(0.000193425 2.95919e-06 0)
(0.000181334 3.10322e-06 0)
(0.000168685 3.22886e-06 0)
(0.00015556 3.33415e-06 0)
(0.000142049 3.41673e-06 0)
(0.000128251 3.47391e-06 0)
(0.000114278 3.50248e-06 0)
(0.000100256 3.49868e-06 0)
(8.6325e-05 3.45799e-06 0)
(7.26461e-05 3.37508e-06 0)
(5.94012e-05 3.24354e-06 0)
(4.67965e-05 3.05583e-06 0)
(3.50672e-05 2.80315e-06 0)
(2.44785e-05 2.47575e-06 0)
(1.53241e-05 2.06391e-06 0)
(7.91606e-06 1.56095e-06 0)
(2.55874e-06 9.69403e-07 0)
(-5.20439e-07 3.11717e-07 0)
(-1.3735e-06 -3.17065e-07 0)
(-5.73057e-07 -5.73157e-07 0)
(9.39689e-07 -2.75818e-06 0)
(5.76745e-06 -5.75489e-06 0)
(1.17391e-05 -6.47256e-06 0)
(1.72119e-05 -5.41025e-06 0)
(2.05064e-05 -3.16246e-06 0)
(2.05895e-05 -1.85029e-07 0)
(1.68268e-05 3.19776e-06 0)
(8.86604e-06 6.75918e-06 0)
(-3.43251e-06 1.03428e-05 0)
(-2.00558e-05 1.38425e-05 0)
(-4.08827e-05 1.71884e-05 0)
(-6.57213e-05 2.03366e-05 0)
(-9.43321e-05 2.32618e-05 0)
(-0.000126449 2.59519e-05 0)
(-0.000161795 2.84043e-05 0)
(-0.000200087 3.06229e-05 0)
(-0.000241049 3.26166e-05 0)
(-0.000284415 3.43969e-05 0)
(-0.000329931 3.59773e-05 0)
(-0.000377361 3.73728e-05 0)
(-0.000426484 3.85985e-05 0)
(-0.000477099 3.96698e-05 0)
(-0.000529021 4.06016e-05 0)
(-0.000582083 4.14083e-05 0)
(-0.000636135 4.21037e-05 0)
(-0.000691044 4.27005e-05 0)
(-0.000746689 4.32107e-05 0)
(-0.000802967 4.36451e-05 0)
(-0.000859784 4.40137e-05 0)
(-0.000917062 4.43253e-05 0)
(-0.000974728 4.45878e-05 0)
(-0.00103272 4.48081e-05 0)
(-0.001091 4.49922e-05 0)
(-0.0011495 4.51452e-05 0)
(-0.00120819 4.52714e-05 0)
(-0.00126704 4.53746e-05 0)
(-0.00132601 4.54574e-05 0)
(-0.00138508 4.55222e-05 0)
(-0.00144422 4.55707e-05 0)
(-0.00150341 4.56041e-05 0)
(-0.00156264 4.5623e-05 0)
(-0.00162186 4.56277e-05 0)
(-0.00168108 4.56182e-05 0)
(-0.00174026 4.55941e-05 0)
(-0.00179939 4.55547e-05 0)
(-0.00185844 4.54992e-05 0)
(-0.00191739 4.54265e-05 0)
(-0.00197621 4.53353e-05 0)
(-0.00203488 4.52242e-05 0)
(-0.00209337 4.50916e-05 0)
(-0.00215165 4.4936e-05 0)
(-0.00220968 4.47556e-05 0)
(-0.00226744 4.45485e-05 0)
(-0.00232488 4.43131e-05 0)
(-0.00238198 4.40472e-05 0)
(-0.00243867 4.37491e-05 0)
(-0.00249493 4.34167e-05 0)
(-0.00255071 4.30483e-05 0)
(-0.00260595 4.26417e-05 0)
(-0.00266061 4.21952e-05 0)
(-0.00271463 4.17068e-05 0)
(-0.00276796 4.11744e-05 0)
(-0.00282054 4.05965e-05 0)
(-0.00287231 3.99711e-05 0)
(-0.00292321 3.92964e-05 0)
(-0.00297317 3.85711e-05 0)
(-0.00302213 3.7793e-05 0)
(-0.00307002 3.6961e-05 0)
(-0.00311676 3.60736e-05 0)
(-0.0031623 3.51292e-05 0)
(-0.00320655 3.4127e-05 0)
(-0.00324944 3.30653e-05 0)
(-0.0032909 3.19434e-05 0)
(-0.00333084 3.07605e-05 0)
(-0.00336919 2.95157e-05 0)
(-0.00340588 2.82085e-05 0)
(-0.00344081 2.68381e-05 0)
(-0.00347392 2.54045e-05 0)
(-0.00350513 2.39078e-05 0)
(-0.00353435 2.23475e-05 0)
(-0.0035615 2.07243e-05 0)
(-0.00358651 1.90386e-05 0)
(-0.00360931 1.72905e-05 0)
(-0.0036298 1.54817e-05 0)
(-0.00364793 1.36125e-05 0)
(-0.0036636 1.16847e-05 0)
(-0.00367676 9.69941e-06 0)
(-0.00368733 7.65844e-06 0)
(-0.00369525 5.56395e-06 0)
(-0.00370045 3.41794e-06 0)
(-0.00370286 1.223e-06 0)
(-0.00370244 -1.01837e-06 0)
(-0.00369913 -3.30308e-06 0)
(-0.00369287 -5.62792e-06 0)
(-0.00368362 -7.98954e-06 0)
(-0.00367134 -1.03842e-05 0)
(-0.00365599 -1.28081e-05 0)
(-0.00363754 -1.52568e-05 0)
(-0.00361597 -1.77262e-05 0)
(-0.00359124 -2.02114e-05 0)
(-0.00356335 -2.27076e-05 0)
(-0.0035323 -2.52098e-05 0)
(-0.00349806 -2.77126e-05 0)
(-0.00346067 -3.02106e-05 0)
(-0.00342012 -3.26979e-05 0)
(-0.00337642 -3.51689e-05 0)
(-0.00332962 -3.76174e-05 0)
(-0.00327975 -4.00373e-05 0)
(-0.00322683 -4.24225e-05 0)
(-0.00317094 -4.47665e-05 0)
(-0.00311211 -4.70629e-05 0)
(-0.00305043 -4.93053e-05 0)
(-0.00298595 -5.1487e-05 0)
(-0.00291877 -5.36019e-05 0)
(-0.00284897 -5.56432e-05 0)
(-0.00277665 -5.76048e-05 0)
(-0.00270191 -5.94803e-05 0)
(-0.00262487 -6.12634e-05 0)
(-0.00254565 -6.29482e-05 0)
(-0.00246438 -6.4529e-05 0)
(-0.00238119 -6.60002e-05 0)
(-0.00229621 -6.73564e-05 0)
(-0.00220961 -6.85924e-05 0)
(-0.00212153 -6.97036e-05 0)
(-0.00203213 -7.06861e-05 0)
(-0.00194159 -7.15347e-05 0)
(-0.00185005 -7.22471e-05 0)
(-0.00175771 -7.28191e-05 0)
(-0.00166473 -7.32489e-05 0)
(-0.0015713 -7.35336e-05 0)
(-0.0014776 -7.36717e-05 0)
(-0.00138381 -7.36613e-05 0)
(-0.00129012 -7.35029e-05 0)
(-0.00119672 -7.31951e-05 0)
(-0.00110378 -7.27391e-05 0)
(-0.0010115 -7.21351e-05 0)
(-0.00092007 -7.13849e-05 0)
(-0.000829656 -7.04903e-05 0)
(-0.000740444 -6.94535e-05 0)
(-0.000652611 -6.82779e-05 0)
(-0.000566328 -6.69669e-05 0)
(-0.000481763 -6.55244e-05 0)
(-0.000399076 -6.39546e-05 0)
(-0.000318429 -6.22625e-05 0)
(-0.000239968 -6.04531e-05 0)
(-0.000163838 -5.85325e-05 0)
(-9.01761e-05 -5.65062e-05 0)
(-1.91126e-05 -5.43806e-05 0)
(4.92316e-05 -5.21626e-05 0)
(0.000114743 -4.98585e-05 0)
(0.000177317 -4.74755e-05 0)
(0.000236857 -4.50207e-05 0)
(0.000293277 -4.25011e-05 0)
(0.000346498 -3.99243e-05 0)
(0.000396448 -3.72977e-05 0)
(0.000443074 -3.46286e-05 0)
(0.00048632 -3.19244e-05 0)
(0.00052614 -2.91925e-05 0)
(0.00056251 -2.644e-05 0)
(0.000595402 -2.36742e-05 0)
(0.000624804 -2.0902e-05 0)
(0.000650708 -1.81304e-05 0)
(0.000673117 -1.53663e-05 0)
(0.000692045 -1.26161e-05 0)
(0.000707506 -9.88652e-06 0)
(0.000719535 -7.18387e-06 0)
(0.00072816 -4.51445e-06 0)
(0.000733435 -1.88443e-06 0)
(0.000735402 7.00006e-07 0)
(0.000734129 3.23277e-06 0)
(0.000729678 5.70757e-06 0)
(0.000722129 8.1182e-06 0)
(0.000711568 1.04581e-05 0)
(0.000698085 1.27206e-05 0)
(0.000681783 1.48984e-05 0)
(0.000662774 1.69841e-05 0)
(0.000641182 1.89693e-05 0)
(0.000617139 2.08451e-05 0)
(0.000590792 2.26015e-05 0)
(0.0005623 2.42276e-05 0)
(0.000531836 2.57108e-05 0)
(0.000499593 2.70372e-05 0)
(0.000465779 2.81909e-05 0)
(0.000430627 2.91537e-05 0)
(0.00039439 2.9905e-05 0)
(0.000357352 3.0421e-05 0)
(0.000319824 3.06742e-05 0)
(0.000282154 3.0633e-05 0)
(0.000244731 3.0261e-05 0)
(0.000207986 2.95162e-05 0)
(0.000172402 2.83511e-05 0)
(0.000138513 2.67125e-05 0)
(0.00010691 2.45436e-05 0)
(7.8237e-05 2.17895e-05 0)
(5.31767e-05 1.84094e-05 0)
(3.24141e-05 1.4403e-05 0)
(1.65649e-05 9.86364e-06 0)
(6.03278e-06 5.07686e-06 0)
(7.47002e-07 7.51894e-07 0)
(-3.17954e-07 -1.37467e-06 0)
(1.10214e-06 -5.98366e-06 0)
(6.51671e-06 -1.17393e-05 0)
(1.24509e-05 -1.2398e-05 0)
(1.6852e-05 -9.26883e-06 0)
(1.76516e-05 -3.52542e-06 0)
(1.35185e-05 3.90834e-06 0)
(3.58589e-06 1.23364e-05 0)
(-1.26597e-05 2.12456e-05 0)
(-3.54502e-05 3.02646e-05 0)
(-6.48024e-05 3.91303e-05 0)
(-0.000100576 4.76616e-05 0)
(-0.000142518 5.57393e-05 0)
(-0.0001903 6.32895e-05 0)
(-0.000243547 7.02727e-05 0)
(-0.000301857 7.66739e-05 0)
(-0.000364818 8.24961e-05 0)
(-0.000432019 8.77552e-05 0)
(-0.00050306 9.24757e-05 0)
(-0.000577559 9.66882e-05 0)
(-0.000655152 0.000100427 0)
(-0.000735498 0.000103728 0)
(-0.000818286 0.000106628 0)
(-0.000903227 0.000109165 0)
(-0.000990054 0.000111373 0)
(-0.00107853 0.000113288 0)
(-0.00116845 0.00011494 0)
(-0.00125961 0.00011636 0)
(-0.00135184 0.000117576 0)
(-0.001445 0.000118613 0)
(-0.00153894 0.000119494 0)
(-0.00163356 0.000120239 0)
(-0.00172874 0.000120866 0)
(-0.0018244 0.00012139 0)
(-0.00192047 0.000121826 0)
(-0.00201686 0.000122185 0)
(-0.00211352 0.000122475 0)
(-0.00221038 0.000122705 0)
(-0.00230742 0.000122881 0)
(-0.00240457 0.000123008 0)
(-0.00250179 0.000123088 0)
(-0.00259905 0.000123124 0)
(-0.00269629 0.000123116 0)
(-0.00279351 0.000123066 0)
(-0.00289063 0.000122971 0)
(-0.00298763 0.000122831 0)
(-0.00308447 0.000122643 0)
(-0.00318111 0.000122405 0)
(-0.0032775 0.000122114 0)
(-0.00337359 0.000121765 0)
(-0.00346934 0.000121355 0)
(-0.00356469 0.000120881 0)
(-0.00365958 0.000120337 0)
(-0.00375397 0.000119719 0)
(-0.00384778 0.000119022 0)
(-0.00394095 0.000118241 0)
(-0.00403341 0.000117372 0)
(-0.00412509 0.00011641 0)
(-0.00421591 0.000115349 0)
(-0.00430579 0.000114185 0)
(-0.00439465 0.000112913 0)
(-0.0044824 0.000111528 0)
(-0.00456895 0.000110026 0)
(-0.0046542 0.0001084 0)
(-0.00473806 0.000106648 0)
(-0.00482043 0.000104764 0)
(-0.00490119 0.000102745 0)
(-0.00498026 0.000100586 0)
(-0.00505751 9.82847e-05 0)
(-0.00513283 9.58362e-05 0)
(-0.00520611 9.32373e-05 0)
(-0.00527723 9.04848e-05 0)
(-0.00534608 8.75769e-05 0)
(-0.00541253 8.4511e-05 0)
(-0.00547647 8.12842e-05 0)
(-0.00553775 7.78956e-05 0)
(-0.00559628 7.43436e-05 0)
(-0.00565192 7.06284e-05 0)
(-0.00570454 6.67474e-05 0)
(-0.00575402 6.2702e-05 0)
(-0.00580024 5.84927e-05 0)
(-0.00584307 5.41197e-05 0)
(-0.0058824 4.95857e-05 0)
(-0.00591809 4.48912e-05 0)
(-0.00595005 4.00394e-05 0)
(-0.00597814 3.50332e-05 0)
(-0.00600225 2.98766e-05 0)
(-0.00602226 2.45726e-05 0)
(-0.00603811 1.91278e-05 0)
(-0.00604964 1.3546e-05 0)
(-0.00605678 7.83369e-06 0)
(-0.00605942 1.99798e-06 0)
(-0.00605751 -3.95479e-06 0)
(-0.00605095 -1.00161e-05 0)
(-0.00603963 -1.61779e-05 0)
(-0.00602354 -2.24309e-05 0)
(-0.00600256 -2.87652e-05 0)
(-0.00597669 -3.51705e-05 0)
(-0.00594585 -4.16364e-05 0)
(-0.00591003 -4.81505e-05 0)
(-0.00586917 -5.4701e-05 0)
(-0.00582326 -6.12753e-05 0)
(-0.00577231 -6.78599e-05 0)
(-0.00571633 -7.44413e-05 0)
(-0.0056553 -8.1005e-05 0)
(-0.00558926 -8.75365e-05 0)
(-0.00551824 -9.40206e-05 0)
(-0.00544229 -0.000100442 0)
(-0.00536147 -0.000106784 0)
(-0.00527584 -0.000113031 0)
(-0.00518548 -0.000119168 0)
(-0.0050905 -0.000125176 0)
(-0.004991 -0.00013104 0)
(-0.0048871 -0.000136744 0)
(-0.00477893 -0.00014227 0)
(-0.00466662 -0.000147601 0)
(-0.00455035 -0.000152723 0)
(-0.00443027 -0.000157618 0)
(-0.00430656 -0.000162271 0)
(-0.00417942 -0.000166667 0)
(-0.00404903 -0.00017079 0)
(-0.00391564 -0.000174628 0)
(-0.00377944 -0.000178164 0)
(-0.00364066 -0.000181389 0)
(-0.00349958 -0.000184289 0)
(-0.00335642 -0.000186852 0)
(-0.00321144 -0.000189069 0)
(-0.0030649 -0.000190931 0)
(-0.0029171 -0.00019243 0)
(-0.00276828 -0.000193558 0)
(-0.00261875 -0.00019431 0)
(-0.00246878 -0.000194681 0)
(-0.00231866 -0.000194668 0)
(-0.00216869 -0.00019427 0)
(-0.00201915 -0.000193486 0)
(-0.00187033 -0.000192316 0)
(-0.00172254 -0.000190763 0)
(-0.00157604 -0.00018883 0)
(-0.00143114 -0.000186522 0)
(-0.0012881 -0.000183846 0)
(-0.0011472 -0.000180808 0)
(-0.00100873 -0.000177418 0)
(-0.000872925 -0.000173686 0)
(-0.000740055 -0.000169622 0)
(-0.000610366 -0.000165239 0)
(-0.000484091 -0.00016055 0)
(-0.000361463 -0.00015557 0)
(-0.000242695 -0.000150314 0)
(-0.000127991 -0.000144797 0)
(-1.75439e-05 -0.000139037 0)
(8.8464e-05 -0.00013305 0)
(0.000189866 -0.000126854 0)
(0.00028651 -0.000120468 0)
(0.000378248 -0.00011391 0)
(0.000464966 -0.000107199 0)
(0.000546542 -0.000100353 0)
(0.000622876 -9.33928e-05 0)
(0.000693895 -8.6336e-05 0)
(0.000759519 -7.9202e-05 0)
(0.000819693 -7.20098e-05 0)
(0.000874377 -6.47778e-05 0)
(0.000923551 -5.75244e-05 0)
(0.000967186 -5.02677e-05 0)
(0.00100529 -4.30256e-05 0)
(0.00103789 -3.58154e-05 0)
(0.00106499 -2.86547e-05 0)
(0.00108664 -2.15603e-05 0)
(0.00110289 -1.45489e-05 0)
(0.00111382 -7.63709e-06 0)
(0.00111949 -8.41695e-07 0)
(0.00112 5.82092e-06 0)
(0.00111547 1.23338e-05 0)
(0.001106 1.86799e-05 0)
(0.00109172 2.48415e-05 0)
(0.0010728 3.08001e-05 0)
(0.00104938 3.65366e-05 0)
(0.00102165 4.20299e-05 0)
(0.000989795 4.72579e-05 0)
(0.000954041 5.21966e-05 0)
(0.000914614 5.6819e-05 0)
(0.000871773 6.10958e-05 0)
(0.000825789 6.49943e-05 0)
(0.000776978 6.84775e-05 0)
(0.000725667 7.15047e-05 0)
(0.000672227 7.40291e-05 0)
(0.00061706 7.59975e-05 0)
(0.000560612 7.73511e-05 0)
(0.000503371 7.80213e-05 0)
(0.00044588 7.79318e-05 0)
(0.000388733 7.69959e-05 0)
(0.000332585 7.51164e-05 0)
(0.000278159 7.21869e-05 0)
(0.00022624 6.8093e-05 0)
(0.000177679 6.27208e-05 0)
(0.000133379 5.5971e-05 0)
(9.42677e-05 4.77899e-05 0)
(6.12464e-05 3.82265e-05 0)
(3.50925e-05 2.75355e-05 0)
(1.63188e-05 1.635e-05 0)
(5.05419e-06 6.03083e-06 0)
(3.07748e-07 -5.2947e-07 0)
(9.84776e-07 -9.29503e-06 0)
(5.47717e-06 -1.72426e-05 0)
(9.33628e-06 -1.67993e-05 0)
(1.02885e-05 -1.02428e-05 0)
(6.13274e-06 6.10889e-07 0)
(-4.59021e-06 1.43238e-05 0)
(-2.2858e-05 2.9777e-05 0)
(-4.9269e-05 4.61171e-05 0)
(-8.41083e-05 6.27051e-05 0)
(-0.000127413 7.90744e-05 0)
(-0.000179029 9.48931e-05 0)
(-0.000238665 0.000109936 0)
(-0.000305933 0.000124057 0)
(-0.000380376 0.000137174 0)
(-0.0004615 0.000149247 0)
(-0.000548792 0.000160274 0)
(-0.000641739 0.000170274 0)
(-0.000739831 0.000179286 0)
(-0.000842578 0.00018736 0)
(-0.000949513 0.000194556 0)
(-0.00106019 0.000200935 0)
(-0.00117421 0.000206563 0)
(-0.00129119 0.000211505 0)
(-0.00141078 0.000215826 0)
(-0.00153266 0.000219587 0)
(-0.00165654 0.000222847 0)
(-0.00178217 0.000225661 0)
(-0.00190931 0.00022808 0)
(-0.00203776 0.00023015 0)
(-0.00216732 0.000231915 0)
(-0.00229785 0.000233412 0)
(-0.0024292 0.000234674 0)
(-0.00256122 0.000235731 0)
(-0.00269382 0.000236608 0)
(-0.00282688 0.000237328 0)
(-0.00296033 0.000237906 0)
(-0.00309407 0.00023836 0)
(-0.00322803 0.0002387 0)
(-0.00336216 0.000238935 0)
(-0.00349636 0.000239072 0)
(-0.00363059 0.000239115 0)
(-0.00376479 0.000239067 0)
(-0.0038989 0.000238926 0)
(-0.00403286 0.000238693 0)
(-0.00416661 0.000238365 0)
(-0.00430009 0.000237938 0)
(-0.00443323 0.000237406 0)
(-0.00456598 0.000236765 0)
(-0.00469825 0.000236008 0)
(-0.00482999 0.000235128 0)
(-0.00496111 0.000234116 0)
(-0.00509153 0.000232966 0)
(-0.00522118 0.000231669 0)
(-0.00534995 0.000230215 0)
(-0.00547777 0.000228596 0)
(-0.00560452 0.000226803 0)
(-0.00573011 0.000224827 0)
(-0.00585444 0.000222659 0)
(-0.00597738 0.000220289 0)
(-0.00609883 0.000217709 0)
(-0.00621866 0.000214909 0)
(-0.00633675 0.000211881 0)
(-0.00645296 0.000208618 0)
(-0.00656718 0.000205109 0)
(-0.00667925 0.000201348 0)
(-0.00678903 0.000197326 0)
(-0.00689639 0.000193037 0)
(-0.00700117 0.000188474 0)
(-0.00710321 0.00018363 0)
(-0.00720239 0.0001785 0)
(-0.00729851 0.000173079 0)
(-0.00739145 0.000167361 0)
(-0.00748101 0.000161342 0)
(-0.00756707 0.00015502 0)
(-0.00764942 0.000148392 0)
(-0.00772794 0.000141455 0)
(-0.00780244 0.000134209 0)
(-0.00787276 0.000126652 0)
(-0.00793874 0.000118786 0)
(-0.0080002 0.000110613 0)
(-0.00805701 0.000102133 0)
(-0.00810899 9.33507e-05 0)
(-0.00815597 8.42699e-05 0)
(-0.00819783 7.4896e-05 0)
(-0.00823441 6.52353e-05 0)
(-0.00826552 5.52944e-05 0)
(-0.00829108 4.5082e-05 0)
(-0.0083109 3.46079e-05 0)
(-0.00832491 2.38825e-05 0)
(-0.00833291 1.29165e-05 0)
(-0.00833484 1.72407e-06 0)
(-0.00833057 -9.68163e-06 0)
(-0.00832001 -2.12849e-05 0)
(-0.00830304 -3.30705e-05 0)
(-0.0082796 -4.50202e-05 0)
(-0.00824958 -5.71153e-05 0)
(-0.00821296 -6.9337e-05 0)
(-0.00816969 -8.16635e-05 0)
(-0.00811967 -9.40735e-05 0)
(-0.0080629 -0.000106544 0)
(-0.0079994 -0.000119051 0)
(-0.00792911 -0.00013157 0)
(-0.00785206 -0.000144074 0)
(-0.00776827 -0.000156536 0)
(-0.0076778 -0.000168931 0)
(-0.00758066 -0.000181228 0)
(-0.00747695 -0.000193399 0)
(-0.00736675 -0.000205415 0)
(-0.00725012 -0.000217245 0)
(-0.00712724 -0.000228859 0)
(-0.00699817 -0.000240226 0)
(-0.00686309 -0.000251316 0)
(-0.00672217 -0.000262097 0)
(-0.00657555 -0.000272539 0)
(-0.00642346 -0.000282611 0)
(-0.00626611 -0.000292282 0)
(-0.00610371 -0.000301524 0)
(-0.00593647 -0.000310307 0)
(-0.00576469 -0.000318602 0)
(-0.00558863 -0.000326383 0)
(-0.00540856 -0.000333623 0)
(-0.00522478 -0.000340296 0)
(-0.0050376 -0.000346379 0)
(-0.00484734 -0.000351851 0)
(-0.00465433 -0.000356689 0)
(-0.00445891 -0.000360876 0)
(-0.00426143 -0.000364394 0)
(-0.00406226 -0.000367229 0)
(-0.00386174 -0.000369368 0)
(-0.00366026 -0.0003708 0)
(-0.00345819 -0.000371517 0)
(-0.00325593 -0.000371513 0)
(-0.00305384 -0.000370784 0)
(-0.0028523 -0.00036933 0)
(-0.00265171 -0.000367152 0)
(-0.00245244 -0.000364253 0)
(-0.00225488 -0.000360641 0)
(-0.0020594 -0.000356324 0)
(-0.00186636 -0.000351314 0)
(-0.00167615 -0.000345624 0)
(-0.0014891 -0.000339271 0)
(-0.00130558 -0.000332273 0)
(-0.00112591 -0.00032465 0)
(-0.000950421 -0.000316425 0)
(-0.000779434 -0.000307623 0)
(-0.000613245 -0.00029827 0)
(-0.000452146 -0.000288393 0)
(-0.000296406 -0.000278023 0)
(-0.000146289 -0.000267189 0)
(-2.03178e-06 -0.000255925 0)
(0.00013614 -0.000244263 0)
(0.000268018 -0.000232236 0)
(0.000393413 -0.000219879 0)
(0.000512154 -0.000207228 0)
(0.000624083 -0.000194317 0)
(0.000729071 -0.000181182 0)
(0.000826996 -0.000167859 0)
(0.000917766 -0.000154382 0)
(0.00100129 -0.000140788 0)
(0.00107752 -0.000127111 0)
(0.00114641 -0.000113387 0)
(0.00120794 -9.96485e-05 0)
(0.00126209 -8.59302e-05 0)
(0.00130889 -7.22653e-05 0)
(0.00134836 -5.86869e-05 0)
(0.00138055 -4.52275e-05 0)
(0.00140553 -3.19191e-05 0)
(0.00142338 -1.87939e-05 0)
(0.00143421 -5.88404e-06 0)
(0.00143813 6.77834e-06 0)
(0.00143529 1.91606e-05 0)
(0.00142583 3.12294e-05 0)
(0.00140993 4.29498e-05 0)
(0.0013878 5.42868e-05 0)
(0.00135964 6.52021e-05 0)
(0.00132569 7.56553e-05 0)
(0.00128622 8.56031e-05 0)
(0.0012415 9.49997e-05 0)
(0.00119186 0.000103793 0)
(0.00113763 0.000111927 0)
(0.00107918 0.00011934 0)
(0.00101694 0.000125962 0)
(0.000951333 0.000131717 0)
(0.000882863 0.000136519 0)
(0.00081206 0.00014027 0)
(0.000739511 0.000142862 0)
(0.000665855 0.000144174 0)
(0.000591797 0.000144071 0)
(0.000518102 0.000142402 0)
(0.000445608 0.000139005 0)
(0.000375218 0.000133702 0)
(0.00030791 0.000126313 0)
(0.00024472 0.000116666 0)
(0.00018673 0.000104626 0)
(0.000135034 9.01454e-05 0)
(9.06854e-05 7.33495e-05 0)
(5.45987e-05 5.46806e-05 0)
(2.74603e-05 3.51137e-05 0)
(9.81561e-06 1.65369e-05 0)
(9.60498e-07 2.52969e-06 0)
(7.09214e-07 -1.18434e-05 0)
(3.20695e-06 -2.05466e-05 0)
(3.47957e-06 -1.75374e-05 0)
(-8.27052e-07 -6.02753e-06 0)
(-1.18515e-05 1.15229e-05 0)
(-3.10608e-05 3.31625e-05 0)
(-5.94505e-05 5.73436e-05 0)
(-9.76364e-05 8.2858e-05 0)
(-0.000145913 0.000108779 0)
(-0.000204313 0.000134414 0)
(-0.000272667 0.000159257 0)
(-0.000350648 0.000182958 0)
(-0.000437816 0.000205282 0)
(-0.000533658 0.000226088 0)
(-0.000637605 0.000245305 0)
(-0.000749068 0.000262916 0)
(-0.000867445 0.000278943 0)
(-0.000992142 0.000293435 0)
(-0.00112259 0.000306465 0)
(-0.00125822 0.000318116 0)
(-0.00139852 0.000328481 0)
(-0.00154299 0.000337659 0)
(-0.00169117 0.000345747 0)
(-0.00184264 0.000352843 0)
(-0.00199702 0.000359042 0)
(-0.00215395 0.000364434 0)
(-0.00231311 0.000369105 0)
(-0.00247421 0.000373134 0)
(-0.00263698 0.000376593 0)
(-0.00280121 0.000379549 0)
(-0.00296668 0.000382061 0)
(-0.00313321 0.000384183 0)
(-0.00330062 0.00038596 0)
(-0.00346878 0.000387433 0)
(-0.00363753 0.000388637 0)
(-0.00380678 0.0003896 0)
(-0.0039764 0.000390346 0)
(-0.0041463 0.000390894 0)
(-0.00431637 0.000391259 0)
(-0.00448654 0.000391451 0)
(-0.00465672 0.000391477 0)
(-0.00482681 0.000391341 0)
(-0.00499676 0.000391044 0)
(-0.00516646 0.000390585 0)
(-0.00533585 0.000389959 0)
(-0.00550483 0.000389161 0)
(-0.00567332 0.000388184 0)
(-0.00584124 0.000387018 0)
(-0.00600849 0.000385655 0)
(-0.00617497 0.000384082 0)
(-0.00634059 0.000382287 0)
(-0.00650524 0.000380259 0)
(-0.00666881 0.000377984 0)
(-0.00683118 0.000375449 0)
(-0.00699223 0.00037264 0)
(-0.00715184 0.000369541 0)
(-0.00730988 0.00036614 0)
(-0.0074662 0.000362423 0)
(-0.00762068 0.000358374 0)
(-0.00777315 0.000353981 0)
(-0.00792346 0.000349228 0)
(-0.00807147 0.000344104 0)
(-0.008217 0.000338595 0)
(-0.00835988 0.000332688 0)
(-0.00849996 0.000326371 0)
(-0.00863703 0.000319633 0)
(-0.00877094 0.000312461 0)
(-0.00890148 0.000304848 0)
(-0.00902849 0.000296783 0)
(-0.00915176 0.000288256 0)
(-0.00927111 0.000279262 0)
(-0.00938632 0.000269791 0)
(-0.00949722 0.000259842 0)
(-0.00960358 0.000249405 0)
(-0.00970524 0.00023848 0)
(-0.00980197 0.000227063 0)
(-0.00989359 0.000215155 0)
(-0.00997987 0.000202752 0)
(-0.0100607 0.000189861 0)
(-0.0101357 0.000176481 0)
(-0.0102049 0.000162617 0)
(-0.0102679 0.000148277 0)
(-0.0103247 0.000133467 0)
(-0.0103749 0.000118194 0)
(-0.0104186 0.000102472 0)
(-0.0104554 8.6311e-05 0)
(-0.0104852 6.9726e-05 0)
(-0.0105079 5.27332e-05 0)
(-0.0105232 3.53481e-05 0)
(-0.0105312 1.75913e-05 0)
(-0.0105315 -5.17462e-07 0)
(-0.010524 -1.89538e-05 0)
(-0.0105088 -3.76948e-05 0)
(-0.0104856 -5.67133e-05 0)
(-0.0104544 -7.59815e-05 0)
(-0.010415 -9.54698e-05 0)
(-0.0103675 -0.000115147 0)
(-0.0103116 -0.000134979 0)
(-0.0102475 -0.00015493 0)
(-0.0101751 -0.000174966 0)
(-0.0100944 -0.000195047 0)
(-0.0100053 -0.000215135 0)
(-0.00990784 -0.000235186 0)
(-0.00980213 -0.000255161 0)
(-0.00968819 -0.000275014 0)
(-0.0095661 -0.000294701 0)
(-0.00943593 -0.000314177 0)
(-0.00929778 -0.000333394 0)
(-0.00915179 -0.000352306 0)
(-0.0089981 -0.000370864 0)
(-0.00883687 -0.000389021 0)
(-0.00866828 -0.000406727 0)
(-0.00849258 -0.000423935 0)
(-0.0083099 -0.000440595 0)
(-0.00812057 -0.00045666 0)
(-0.00792474 -0.000472083 0)
(-0.00772277 -0.000486817 0)
(-0.00751495 -0.000500815 0)
(-0.00730156 -0.000514034 0)
(-0.00708296 -0.000526431 0)
(-0.00685947 -0.000537967 0)
(-0.00663146 -0.000548598 0)
(-0.00639929 -0.000558291 0)
(-0.00616338 -0.000567008 0)
(-0.0059241 -0.000574719 0)
(-0.00568189 -0.000581394 0)
(-0.00543719 -0.000587007 0)
(-0.00519037 -0.000591534 0)
(-0.00494196 -0.000594959 0)
(-0.00469234 -0.000597256 0)
(-0.004442 -0.000598423 0)
(-0.00419138 -0.000598442 0)
(-0.00394098 -0.000597313 0)
(-0.00369123 -0.000595031 0)
(-0.00344262 -0.000591601 0)
(-0.00319559 -0.000587028 0)
(-0.00295062 -0.000581321 0)
(-0.00270816 -0.000574494 0)
(-0.00246865 -0.000566569 0)
(-0.00223255 -0.00055756 0)
(-0.00200028 -0.000547497 0)
(-0.00177226 -0.000536408 0)
(-0.00154892 -0.000524324 0)
(-0.00133064 -0.000511281 0)
(-0.00111781 -0.000497316 0)
(-0.000910806 -0.000482472 0)
(-0.000709969 -0.000466793 0)
(-0.000515641 -0.000450322 0)
(-0.000328138 -0.000433108 0)
(-0.000147754 -0.000415204 0)
(2.52291e-05 -0.000396658 0)
(0.000190557 -0.000377525 0)
(0.000347996 -0.000357859 0)
(0.000497328 -0.000337714 0)
(0.000638355 -0.000317146 0)
(0.000770919 -0.000296211 0)
(0.000894864 -0.000274966 0)
(0.00101007 -0.000253466 0)
(0.00111643 -0.000231768 0)
(0.00121386 -0.000209928 0)
(0.00130231 -0.000188 0)
(0.00138174 -0.000166038 0)
(0.00145215 -0.000144099 0)
(0.00151353 -0.000122234 0)
(0.00156592 -0.000100497 0)
(0.00160937 -7.89411e-05 0)
(0.00164397 -5.76175e-05 0)
(0.0016698 -3.65783e-05 0)
(0.00168699 -1.58762e-05 0)
(0.00169569 4.43648e-06 0)
(0.00169604 2.43065e-05 0)
(0.00168825 4.36787e-05 0)
(0.00167254 6.24971e-05 0)
(0.00164912 8.07028e-05 0)
(0.00161828 9.82343e-05 0)
(0.00158029 0.000115026 0)
(0.00153549 0.000131007 0)
(0.00148421 0.000146102 0)
(0.00142685 0.000160229 0)
(0.00136382 0.000173298 0)
(0.00129559 0.000185208 0)
(0.00122265 0.000195852 0)
(0.00114555 0.000205107 0)
(0.00106488 0.00021284 0)
(0.000981297 0.000218902 0)
(0.000895502 0.000223126 0)
(0.000808267 0.000225331 0)
(0.000720428 0.000225314 0)
(0.000632889 0.000222856 0)
(0.000546629 0.000217722 0)
(0.000462698 0.000209664 0)
(0.000382213 0.000198438 0)
(0.00030635 0.000183818 0)
(0.000236322 0.000165642 0)
(0.000173357 0.000143876 0)
(0.000118642 0.000118719 0)
(7.32552e-05 9.07695e-05 0)
(3.81266e-05 6.12479e-05 0)
(1.43337e-05 3.23421e-05 0)
(1.5468e-06 7.85254e-06 0)
(3.37493e-07 -1.31363e-05 0)
(1.2446e-07 -2.05349e-05 0)
(-4.28466e-06 -1.3144e-05 0)
(-1.52167e-05 5.0249e-06 0)
(-3.45967e-05 3.09169e-05 0)
(-6.38028e-05 6.20939e-05 0)
(-0.000103776 9.65966e-05 0)
(-0.000155091 0.000132867 0)
(-0.000218009 0.000169691 0)
(-0.000292536 0.000206139 0)
(-0.000378467 0.000241527 0)
(-0.000475438 0.000275363 0)
(-0.000582965 0.000307316 0)
(-0.000700479 0.000337179 0)
(-0.000827354 0.00036484 0)
(-0.000962938 0.000390262 0)
(-0.00110656 0.000413466 0)
(-0.00125756 0.00043451 0)
(-0.00141528 0.000453488 0)
(-0.0015791 0.000470509 0)
(-0.00174843 0.000485699 0)
(-0.00192269 0.000499189 0)
(-0.00210136 0.000511116 0)
(-0.00228397 0.000521612 0)
(-0.00247005 0.00053081 0)
(-0.00265919 0.000538835 0)
(-0.00285102 0.000545808 0)
(-0.00304521 0.000551839 0)
(-0.00324143 0.00055703 0)
(-0.00343941 0.000561476 0)
(-0.00363892 0.000565261 0)
(-0.0038397 0.00056846 0)
(-0.00404157 0.00057114 0)
(-0.00424434 0.000573359 0)
(-0.00444785 0.000575164 0)