/*--------------------------------*- C++ -*----------------------------------*\
  =========                 |
  \\      /  F ield         | OpenFOAM: The Open Source CFD Toolbox
   \\    /   O peration     | Website:  https://openfoam.org
    \\  /    A nd           | Version:  6
     \\/     M anipulation  |
\*---------------------------------------------------------------------------*/
FoamFile
{
    version     2.0;
    format      ascii;
    class       volScalarField;
    location    "0";
    object      p;
}
// * * * * * * * * * * * * * * * * * * * * * * * * * * * * * * * * * * * * * //

dimensions      [0 2 -2 0 0 0 0];

internalField   nonuniform List<scalar> 
13046
(
0.231144
0.185257
0.186702
0.239578
0.201555
0.17184
0.22859
0.172738
0.200931
0.143681
-0.260689
0.146575
0.240214
0.127919
0.177953
0.168707
0.131728
-0.18658
0.227944
0.190835
0.218716
0.165409
0.137482
-0.19981
0.229178
0.206832
0.18909
0.230552
0.136333
0.175408
0.239597
0.162993
0.174612
0.230714
0.202467
0.199844
0.225673
0.208186
0.204715
0.224089
0.162261
0.191197
0.212692
0.224329
0.212063
0.223811
0.210585
0.203239
0.226494
0.175092
0.189482
0.111962
0.213247
0.177971
0.122655
0.175286
0.213452
0.00177458
0.214216
0.125953
0.219831
0.0659983
0.183448
0.152243
-0.101722
0.190628
0.215384
0.0243938
0.119278
0.220361
0.0438334
0.120682
-0.0309218
0.208904
0.125242
0.22915
0.200164
0.209774
0.13177
0.199536
-0.0592843
0.229194
0.194849
0.188356
0.148465
-0.135908
0.177729
0.177163
0.168479
-0.0938339
0.178906
0.151104
-0.115772
0.221906
0.216138
0.0447115
0.0203841
0.158864
0.162433
0.17309
0.175818
-0.0778151
0.231097
0.212659
0.194918
0.214618
0.190844
0.136478
0.216264
0.147935
0.193078
0.0903732
0.14481
-0.394013
0.239417
0.148528
0.177368
0.215688
0.219965
0.00517061
0.148227
0.0393317
0.150919
0.133551
-0.295048
0.144176
0.235595
0.0731554
0.169655
0.226601
0.161929
0.181953
0.180969
0.155949
-0.0778136
0.208037
-0.0255159
0.163469
0.239493
0.151312
0.167933
0.226104
0.147867
0.195291
0.210408
0.131132
0.201918
0.213849
0.207042
0.156373
0.222149
0.0416293
0.180679
0.216698
0.211565
0.161794
0.0861744
0.185662
0.0713222
0.187073
0.203752
0.200474
0.229195
0.113893
0.201982
0.137189
0.150797
-0.256098
0.10968
0.144009
-0.361057
0.205214
-0.0491678
0.159221
0.230527
0.142382
0.148243
0.227343
0.205592
0.125935
0.158736
-0.213215
0.14556
0.227455
0.160493
0.143127
0.215809
0.202622
0.149362
0.22858
0.152742
0.196327
0.110687
0.184566
0.234307
0.0981986
0.16855
0.174558
0.159983
-0.131012
0.179085
0.171503
-0.0631165
0.153097
-0.123162
0.173432
0.0943173
0.160247
0.209649
0.231888
0.202087
0.122482
-0.0526422
-0.15797
0.155018
0.170009
0.224551
0.210628
0.197952
0.23143
0.152059
0.169776
0.181992
0.162438
-0.0580722
0.23083
0.117685
0.189762
0.151009
-0.321357
0.110091
0.207534
0.164988
0.0828434
0.162929
-0.0902078
0.175039
0.198279
0.0952125
0.203598
0.228298
0.0878757
0.168128
-0.00848809
0.166974
0.188041
0.182011
0.0496038
0.195999
0.15438
-0.329446
0.0985557
0.225491
0.148489
0.171856
0.104771
0.135422
-0.43073
0.218049
0.229188
0.185305
0.213007
0.206769
0.0966124
0.106735
0.202664
0.193228
0.123696
0.19485
-0.0939185
0.230876
0.109813
0.159713
0.182519
0.019004
0.193175
0.208214
-0.0111081
0.154728
0.215279
0.206407
0.22012
0.197922
0.074284
0.198673
0.233157
0.0939608
0.155849
0.231735
0.234068
0.226973
0.135856
0.15501
0.200138
0.054605
0.193896
0.19751
0.154028
-0.0321709
0.225862
0.148007
0.181275
0.205241
0.17194
0.0713398
0.218546
0.0344694
0.140198
0.217026
0.116201
0.166898
0.211234
0.212595
0.0131559
0.13866
-0.00368338
0.143935
0.155714
-0.189913
0.152638
0.220779
0.0639059
0.153266
-0.488716
0.14282
0.061798
0.230626
0.214508
0.153771
0.225634
0.0860824
0.183942
0.160744
0.182121
-0.0952151
0.110117
0.16775
0.211819
-0.0323691
0.166308
0.185589
0.147858
0.187268
0.218191
0.0845984
0.175927
0.13087
0.195266
0.180938
0.13322
-0.15305
0.103327
0.141523
0.213964
0.214136
0.0662424
0.170312
0.218221
0.130776
0.201239
0.192989
0.118989
0.21322
0.235519
0.170369
0.192442
0.203493
0.177472
0.0808075
0.163507
-0.129848
0.164964
-0.022786
0.164184
0.186068
0.215021
0.11811
0.0894091
0.2061
0.209148
-0.00353561
-0.0336078
0.127306
0.132075
0.141541
-0.466498
0.0758758
0.114244
0.134197
-0.408434
0.214267
0.0848431
0.188796
0.157
0.171741
-0.160057
0.217139
0.21965
0.0632775
0.0391828
0.137463
0.133441
0.169762
-0.209176
0.127021
0.0963585
0.132973
-0.456803
0.20773
0.227214
0.200997
0.0920015
-0.424659
0.141822
0.231719
0.132188
0.142208
0.149767
-0.199446
0.161475
-0.475712
0.153259
0.0265756
0.223217
0.162842
0.201287
0.226131
0.196813
0.20933
0.135031
0.14094
-0.30211
0.222661
0.181054
0.208544
0.209797
0.224274
0.20781
0.21065
0.154666
0.0832283
0.212278
0.191195
0.221262
0.231293
0.153441
0.217953
0.216453
0.106877
0.116511
0.141201
0.146656
-0.209055
-0.217727
0.158431
0.156309
0.14877
-0.150901
0.16452
0.125261
0.21705
0.0617715
0.221932
0.140884
0.177921
0.176455
0.0378257
0.194091
-0.395459
0.158811
0.0492609
0.175695
0.148334
-0.137418
0.117172
0.146404
-0.32851
0.152752
-0.501835
0.0244164
-0.540523
0.145132
0.0464011
0.0358905
0.203642
0.182184
-0.285412
0.166458
0.0937179
0.197685
-0.0357227
0.166264
0.158213
0.123669
-0.259085
0.235099
0.185445
0.169773
-0.181696
0.171819
0.137456
0.174496
0.196767
0.0492284
0.0106887
0.18295
0.191371
0.151514
-0.620425
-0.012027
-0.457856
0.147945
0.0482483
0.237093
0.194789
0.170096
-0.219116
0.122002
0.16584
0.169946
0.109844
-0.232053
0.166719
0.151215
-0.157144
0.130807
-0.0979471
0.189438
0.221383
0.106037
0.116909
0.0105331
0.215146
0.135644
0.126257
0.185009
-0.159375
0.231258
0.231349
0.130406
0.111326
0.15494
0.157114
0.230636
0.143163
0.15236
0.223045
0.0592449
0.136552
-0.00533126
0.173799
0.18696
-0.166457
0.153031
0.166872
0.180628
0.180154
-0.0308382
-0.535436
0.142286
0.0604654
0.234609
0.233705
0.175108
0.181913
0.183636
0.185167
0.229432
0.21903
0.137142
0.0898273
0.135695
0.12705
-0.465637
0.155557
0.0275901
-0.203607
0.130209
0.165381
0.218056
0.11959
0.15783
0.0129767
0.16955
0.191722
0.129808
-0.0782185
0.194707
-0.393836
0.0800157
0.15133
-0.361812
0.0859813
0.153963
0.222588
0.0486194
0.144575
0.224662
0.142955
0.191879
0.16306
0.149144
-0.191914
0.01753
0.191912
0.18445
0.152699
-0.0715381
0.197215
0.21932
0.138686
0.137044
0.202504
0.103292
0.205282
0.224202
0.154056
0.184683
0.15191
-0.211186
0.15297
0.208599
-0.0172165
0.148724
0.228937
0.170907
0.195929
0.175016
0.122492
-0.195917
0.22936
0.164204
0.169658
0.225118
0.147635
0.208024
0.032078
0.192846
0.190404
0.132148
0.129803
-0.348874
0.140415
0.126596
-0.32963
0.1477
-0.0787271
0.197048
0.195702
0.108685
0.204052
0.128035
-0.391849
0.116861
0.164484
-0.0698828
0.192067
0.15338
-0.529071
0.00859884
0.0344124
-0.558009
0.142257
0.131285
-0.143541
0.187149
0.153259
-0.27544
0.126464
0.173159
0.179115
0.13974
-0.179531
0.143371
-0.143376
0.183337
-0.0620728
0.16822
0.198366
0.0259604
0.160219
0.238858
0.184629
0.182072
0.188909
-0.0383675
0.177141
0.180302
0.192425
-0.0235028
0.190826
0.123539
-0.134712
0.227686
0.0732122
0.132618
0.227596
0.118823
0.135299
0.204127
0.0306662
0.177951
0.201616
0.0177064
0.18017
0.228591
0.165723
0.20455
0.231655
0.100756
0.15816
0.174233
-0.173265
0.12964
0.0762332
0.157855
-0.361261
0.0639939
0.16108
-0.363953
0.228586
0.15839
0.16726
-0.422825
0.152768
0.0605375
0.20407
0.146198
-0.053094
0.155457
-0.416925
0.0448918
0.235752
0.207208
0.178942
0.231825
0.107795
0.175216
0.109722
0.190056
0.208723
0.167019
-0.265028
0.10651
0.0106594
0.194511
0.186962
0.125739
0.168421
-0.217346
0.223869
0.0897494
0.174074
0.237814
0.191721
0.185669
-0.257198
0.117199
0.162908
0.157423
-0.085291
0.190992
0.128137
0.117451
0.137193
0.137918
-0.339715
-0.369035
0.218837
0.111974
0.197004
0.0527323
0.20725
0.184579
0.221894
0.163838
0.204307
-0.320495
0.0891053
-0.314652
0.159764
0.0893495
0.162747
0.217492
0.028658
0.16964
0.116719
0.10327
-0.274246
-0.304165
0.160183
0.159472
0.200425
0.0697483
0.193868
0.224366
0.118882
0.184039
0.150915
0.128363
-0.281692
0.2305
0.0964753
0.19233
0.229953
0.141343
0.19691
0.132968
0.13194
-0.324546
0.22908
0.0607806
0.163051
0.0641518
0.159024
0.20082
0.222076
0.119675
0.131079
-0.0581068
0.182779
0.152402
0.149551
-0.589885
0.00340056
0.222006
0.0958858
0.180853
0.158566
0.134593
-0.238282
0.110835
0.122595
0.21733
0.0619525
0.136203
-0.498883
0.217152
0.214548
0.149418
0.205843
0.148861
0.209022
0.22796
0.158912
0.208325
0.220147
0.221351
0.157484
0.20951
0.175636
0.203287
0.224209
0.125457
0.194605
0.229061
0.125962
0.196837
0.162658
-0.346536
0.068578
0.230228
0.158467
0.1521
0.1289
-0.254218
0.157002
0.204314
0.20032
0.0121997
-0.0168125
0.172011
0.168934
0.226727
0.17805
0.162204
0.221659
0.0792974
0.137371
0.214893
0.0495124
0.177375
0.228381
0.205153
0.191754
0.197353
-0.0171587
0.176082
0.232582
0.173797
0.195231
0.211413
0.0689219
0.189811
0.221326
0.0922472
0.139982
0.2278
0.226498
0.201213
0.195615
0.207881
0.188262
0.224005
0.161583
0.224168
0.213437
0.188947
0.207135
0.232794
0.23406
0.138755
0.128491
0.163374
0.15853
0.135253
-0.0922107
0.196037
0.202512
0.167469
0.0764444
0.139007
0.142826
-0.121998
-0.115112
0.188245
0.186733
0.215779
0.120716
0.160283
0.225092
0.206636
0.208142
0.197259
-0.0350037
0.171947
0.234545
0.165952
0.170625
0.221384
0.0780291
0.141991
0.207608
0.208817
-0.0493352
0.137053
-0.0380382
0.140218
0.210067
0.00976451
0.166422
0.0746683
-0.471762
0.136991
0.106071
0.140233
0.214553
0.21659
0.218609
0.114567
0.123693
0.128627
0.134857
0.184429
-0.012397
0.184574
0.22064
0.100884
0.141157
0.220083
0.115159
0.146473
0.215569
0.225471
0.127472
0.146767
0.157067
0.143101
0.217341
0.134137
0.139337
0.210715
0.0207749
0.172089
0.229419
0.176267
0.20426
0.143317
0.137843
-0.279352
0.220495
0.117625
0.134613
0.227326
0.22434
0.0737275
0.056011
0.143905
0.150664
0.137698
-0.24376
0.155364
0.153385
0.132404
-0.269293
0.143229
0.133938
-0.294802
0.203838
0.140938
-0.0596779
0.223005
0.116724
0.146116
-0.277089
-0.261918
0.014791
-0.272644
-0.0892504
-0.390169
-0.176158
-0.196632
-0.436143
-0.10243
-0.105972
-0.481579
-0.298708
-0.108318
-0.316887
-0.328888
-0.248508
-0.338933
-0.275109
-0.160452
-0.265626
-0.341569
-0.0742612
0.119379
0.0280565
-0.250617
-0.0709106
-0.481079
-0.233502
-0.302853
-0.469586
-0.182251
-0.277832
-0.285779
-0.446
-0.262446
-0.00465365
-0.0817923
-0.246837
-0.138502
-0.373499
0.134008
-0.416059
-0.108074
-0.00552767
-0.374665
-0.362807
-0.422959
-0.4713
-0.425758
0.0407389
-0.25704
-0.327185
-0.40228
-0.466549
0.0323632
-0.161389
-0.268645
-0.441838
-0.122342
-0.432918
-0.4059
0.0307867
-0.179022
-0.276258
-0.156351
-0.244927
0.0948928
-0.0784235
-0.0515838
-0.552645
-0.497819
-0.319551
-0.131759
-0.512442
-0.284882
-0.234522
-0.456653
-0.130725
-0.030433
-0.331674
-0.291346
-0.455787
-0.366095
-0.388887
-0.11792
-0.38445
-0.260348
-0.326958
0.046797
-0.343271
-0.124676
0.0254453
-0.278967
-0.309067
-0.451133
-0.431415
-0.420253
-0.30922
-0.555502
-0.197976
-0.0682529
0.00989018
0.101059
-0.348255
-0.267
-0.474569
-0.329177
-0.430322
-0.00826397
-0.0591786
-0.157753
-0.41656
-0.512093
-0.124479
-0.0316255
-0.351048
-0.261564
-0.554695
-0.345564
-0.297742
0.0674351
0.0889796
-0.126274
-0.248752
-0.304105
-0.484949
0.0714387
-0.299127
-0.136216
-0.567209
0.0396949
-0.454406
-0.288182
-0.290782
-0.0330298
-0.299173
-0.589031
-0.402814
-0.170324
-0.328444
-0.111502
-0.132676
-0.352612
-0.0160238
-0.402385
-0.373314
-0.0177042
-0.398396
-0.34123
-0.476352
-0.22028
-0.252289
-0.0341895
-0.123968
-0.362356
-0.134438
-0.107835
0.0104564
-0.231417
-0.319028
-0.356248
-0.0802756
-0.296436
-0.1291
-0.465137
0.116837
-0.345914
-0.0112757
0.0687987
-0.256517
0.0783127
-0.0266429
0.00693393
-0.40266
-0.568561
-0.485398
0.0171013
-0.418542
-0.433499
-0.294563
-0.429355
-0.335716
-0.389104
-0.250745
0.0677136
-0.12684
-0.372601
-0.129628
-0.409224
0.126739
-0.317144
-0.0228439
-0.370133
-0.5904
0.0505411
0.0810933
-0.377762
-0.414309
0.113871
-0.227209
-0.226711
-0.42386
-0.130123
-0.00978061
-0.0893661
-0.36204
-0.442992
-0.0636439
-0.235776
-0.468314
-0.0908624
-0.295352
-0.458933
-0.307858
-0.00125082
-0.545734
-0.204979
-0.0666324
-0.395716
-0.561951
-0.366789
-0.327569
-0.272459
-0.203317
-0.185071
-0.352848
-0.445478
-0.299588
-0.155768
-0.0826724
-0.351467
-0.173534
-0.394789
-0.419091
-0.220283
-0.366404
-0.576205
-0.0643549
-0.018707
-0.245802
0.0576589
-0.00491429
0.133092
-0.317569
-0.60583
-0.324923
-0.368274
-0.274646
-0.538699
-0.211988
0.0418298
-0.142991
-0.225121
-0.371925
-0.34911
-0.0563411
-0.272481
-0.134132
-0.395783
-0.319163
-0.38062
-0.305726
-0.370521
-0.362361
-0.33546
-0.466963
-0.177848
-0.248107
-0.363322
-0.167804
-0.287232
-0.33485
-0.43684
-0.36391
-0.400505
-0.41547
-0.234667
-0.522481
-0.602984
-0.297943
-0.490479
-0.534186
-0.224577
-0.324156
-0.530841
-0.0267869
-0.166133
-0.392432
-0.053341
-0.459613
-0.180959
-0.086506
-0.281596
-0.308502
-0.042078
-0.320854
-0.0960036
-0.398758
-0.367655
-0.0225234
-0.387322
-0.294785
-0.634814
-0.519991
-0.582765
-0.497892
-0.405696
-0.169897
-0.437103
-0.560685
-0.446951
-0.371861
0.128741
-0.264508
-0.136436
-0.201896
-0.302546
-0.266451
-0.372792
-0.479891
-0.197962
-0.377964
0.0407502
-0.101168
-0.350655
-0.369174
-0.254445
0.117256
-0.0737265
-0.00155985
-0.118608
-0.354585
-0.25478
-0.342902
-0.454396
-0.515419
-0.412
-0.242986
-0.128578
-0.44762
-0.511039
-0.315855
-0.241881
-0.32024
-0.252662
-0.0528733
-0.282363
-0.354355
0.0342494
-0.0218878
-0.376373
-0.147977
-0.0104047
-0.450512
-0.328506
-0.356342
-0.433565
-0.46186
-0.014135
-0.463224
-0.292652
0.0244198
-0.57247
-0.240613
-0.372214
-0.25767
-0.36145
-0.400888
-0.446294
-0.240282
-0.508289
-0.412814
-0.370549
-0.37423
-0.106026
0.0326677
-0.314621
-0.182992
-0.230228
-0.273164
-0.588468
-0.0640326
-0.14189
-0.40617
-0.529405
-0.209037
-0.48158
-0.267829
-0.335453
-0.403476
-0.0204755
0.0213902
-0.359833
-0.0896799
0.0986958
-0.0509924
-0.0265036
0.00624414
-0.239151
-0.359534
-0.456775
0.116051
-0.0470371
-0.0131935
-0.428854
-0.386024
-0.574295
-0.0767715
-0.273814
-0.269066
-0.00858584
-0.126466
-0.292992
-0.241176
-0.375394
-0.319473
-0.380487
-0.371622
-0.36051
-0.403889
-0.330047
-0.513586
-0.268249
-0.427052
-0.118303
-0.153029
-0.549998
-0.00135701
0.0228303
-0.124184
-0.422184
-0.234953
-0.317463
-0.0994917
-0.268167
-0.470442
-0.0107463
-0.359239
0.0444913
-0.541767
-0.34134
-0.274966
-0.12429
-0.0543479
-0.310478
0.0735609
-0.298001
-0.0524786
-0.344496
-0.100105
-0.353918
-0.295372
-0.393505
-0.0438309
-0.258425
0.108167
-0.150579
-0.516966
-0.267789
-0.188663
-0.345717
-0.4171
-0.338246
-0.418671
0.0444167
-0.284544
-0.304747
-0.0859318
-0.426431
0.039661
0.0950603
-0.372267
0.109137
0.0560656
-0.0394453
-0.00783679
-0.230039
-0.470874
-0.428043
-0.357419
-0.0676445
-0.317426
-0.355418
0.0694689
-0.447896
-0.34117
-0.436274
0.00617496
0.124422
-0.454896
-0.0520589
-0.18458
0.0303157
-0.230325
-0.113924
-0.356983
0.0713877
0.103717
-0.156232
-0.421727
-0.0581313
-0.281387
-0.140937
-0.269043
-0.283612
-0.190097
-0.254731
-0.360546
-0.452364
-0.275446
-0.171401
-0.213887
-0.0252003
-0.453841
-0.271237
-0.147319
-0.44515
0.019384
-0.305597
-0.357567
0.0271391
-0.0363141
-0.199539
0.0842944
-0.333584
-0.394969
-0.108853
-0.197084
-0.164624
-0.342167
-0.386179
-0.183422
-0.149695
-0.382582
-0.357668
-0.217392
-0.533943
-0.412208
0.0380426
0.0946957
0.105523
-0.191418
0.109022
0.11929
0.0536173
-0.603637
-0.20954
-0.204135
0.0854336
-0.403837
-0.30107
-0.482017
-0.421979
-0.37852
0.0682658
-0.322826
-0.30608
-0.107386
-0.154647
-0.381472
-0.361427
0.118265
0.0651303
0.0025106
-0.133012
-0.412423
-0.0862827
-0.179901
-0.405748
-0.252656
-0.507221
-0.444435
-0.224216
-0.309887
-0.33951
0.0432124
0.0375193
-0.583886
-0.0358425
-0.355115
-0.345517
-0.296513
0.0341138
-0.334248
-0.130256
-0.333922
0.00850202
-0.387359
-0.333156
0.0972365
-0.580797
-0.536079
-0.342225
-0.400183
-0.606327
-0.468399
-0.39352
-0.613884
-0.297225
-0.579397
-0.489865
-0.307448
-0.432106
-0.385284
-0.328115
-0.529205
-0.452928
0.0583577
0.00191092
-0.38292
-0.48458
0.0121623
-0.404455
-0.299812
0.0986603
-0.382631
0.0927671
-0.305172
-0.0243156
-0.188008
-0.326064
-0.495328
-0.210873
-0.217902
-0.297956
-0.328074
-0.383644
-0.50427
-0.400566
-0.283663
-0.570858
-0.51756
0.0617148
-0.308921
-0.141071
-0.094694
-0.407461
-0.0108457
-0.0904226
-0.476598
-0.458251
-0.337948
-0.519106
-0.599903
-0.137144
-0.124044
-0.378503
-0.182097
-0.365492
0.0961415
0.0516633
-0.339499
-0.37762
0.0778814
-0.0186345
-0.204517
-0.191867
-0.393721
0.103844
-0.185098
-0.584633
0.011291
-0.0575349
0.0367688
-0.233734
-0.438509
-0.302303
-0.119999
-0.192941
-0.510548
0.139171
-0.339087
-0.357496
-0.270923
0.0206913
0.0918522
0.106898
-0.174253
-0.228545
-0.0741293
-0.0117229
0.0370481
-0.147014
-0.0675365
-0.305018
-0.335908
-0.191315
-0.452651
-0.309346
-0.544881
-0.343785
-0.08809
-0.531468
-0.246896
-0.289564
-0.00025134
0.106039
-0.324895
-0.492989
-0.556308
-0.0334423
-0.417238
-0.4149
-0.567593
0.0455923
-0.233351
-0.22015
-0.485095
-0.217341
-0.418847
-0.364251
-0.10021
-0.0927024
0.0493834
0.120881
-0.3859
-0.000480797
-0.586478
0.00973534
0.0411171
0.0379809
-0.0816206
-0.41663
-0.413971
-0.369877
-0.575497
-0.188685
-0.574422
-0.136196
-0.476487
0.00273305
-0.402354
-0.561417
-0.0342961
-0.0470564
-0.309322
-0.311104
-0.147778
0.0380044
-0.240417
-0.275506
-0.574343
-0.0562973
-0.134892
0.0699066
-0.603192
-0.308807
0.0145749
-0.126439
0.0840329
-0.12138
-0.378472
-0.621536
-0.583386
-0.311096
-0.553859
0.0593296
-0.556997
-0.260399
-0.306428
-0.465571
-0.0181226
-0.607867
0.0392276
-0.114648
-0.21245
-0.356662
-0.108306
-0.286884
-0.237892
-0.312703
-0.303244
-0.390528
-0.407213
-0.0866117
-0.408143
0.104586
-0.412408
-0.168827
-0.162957
-0.063636
0.067304
-0.388111
-0.339787
-0.377478
-0.234194
-0.424486
0.0554874
-0.418972
-0.263728
-0.401378
-0.0466582
-0.443872
-0.235169
-0.513119
0.108441
-0.581602
-0.4111
-0.227978
-0.0239916
-0.55423
-0.558737
-0.43178
-0.51538
0.0320328
-0.264764
-0.128597
-0.0240353
-0.154258
-0.137381
0.109289
-0.164361
-0.0607761
-0.172706
-0.19185
-0.538475
-0.195906
-0.316509
-0.284862
-0.171607
-0.307194
-0.521559
-0.261692
-0.211678
-0.439051
-0.0637567
-0.205588
-0.0651213
-0.323392
0.05703
-0.299877
-0.218802
-0.163839
-0.517407
-0.424798
-0.400754
-0.213354
-0.226139
-0.186506
0.018221
-0.0656811
-0.0662059
-0.259392
0.00180593
0.0699123
0.0643631
-0.117989
-0.206306
-0.188175
-0.455064
0.0856148
-0.0183995
-0.0452011
-0.294599
-0.41468
-0.528861
-0.191446
-0.131738
-0.332154
-0.0470948
-0.00643765
-0.199026
-0.327452
-0.146223
-0.308825
-0.291954
-0.289832
-0.299994
-0.219187
-0.571132
-0.21673
-0.211712
-0.339042
-0.59848
-0.221461
-0.278128
-0.142519
-0.370326
-0.23393
0.0248717
0.0426152
-0.210322
-0.305384
-0.0630194
-0.267053
-0.418056
-0.440757
-0.35196
-0.522015
0.017855
-0.275104
-0.247729
-0.115262
-0.142089
-0.113627
-0.309787
0.10098
-0.120974
-0.442764
-0.283894
-0.283619
-0.0637253
0.017841
-0.116337
-0.201657
-0.54339
-0.455356
-0.333908
-0.204309
-0.270357
-0.206672
-0.432166
0.0346124
-0.175525
-0.017334
-0.00781056
-0.236859
-0.349722
-0.200291
0.080573
-0.414979
-0.561108
-0.200832
0.0899501
-0.386025
-0.35009
-0.0801428
-0.134749
-0.0386023
-0.302802
-0.548314
-0.204513
-0.528089
-0.37882
-0.0427298
-0.311848
-0.448163
-0.343709
-0.394888
-0.182013
-0.315498
-0.310531
0.00941438
-0.448956
0.111018
-0.0407212
-0.476884
-0.619098
-0.258185
-0.108294
-0.0162171
-0.301664
-0.333656
-0.284701
-0.367246
-0.275371
0.120489
0.0138971
-0.124791
-0.270738
-0.521328
0.0507137
0.108406
0.0370907
-0.066383
0.0167868
-0.213703
-0.522576
-0.579718
-0.560754
0.065539
-0.279449
-0.267721
-0.275352
0.105943
-0.39038
-0.327137
-0.503278
-0.300891
-0.445292
0.10612
-0.198905
-0.0896538
0.00878994
-0.0198413
-0.352259
-0.169657
-0.236316
-0.0796157
-0.426791
-0.189654
-0.396632
0.0536078
-0.316435
-0.421158
-0.265204
-0.344023
0.0219407
-0.397217
-0.0441081
-0.00834084
0.0117321
-0.483367
-0.248107
-0.336188
-0.290064
0.0371352
-0.2408
-0.172524
-0.206257
-0.379975
-0.270216
0.0607644
-0.163804
0.039252
-0.572197
-0.420027
-0.38501
0.0650685
-0.250104
-0.253078
-0.486616
-0.301606
-0.251934
0.0713893
-0.224363
-0.326504
-0.499106
0.10141
0.0891651
-0.381749
0.0604467
-0.394426
-0.480889
-0.409265
-0.273503
-0.54888
-0.139111
-0.292689
-0.404372
-0.330223
0.04263
-0.293647
-0.0493317
-0.288056
-0.427334
-0.316479
-0.573323
-0.545892
-0.313805
-0.223218
-0.170068
-0.456975
-0.315018
0.00177242
-0.16958
-0.40564
-0.332143
0.0281229
-0.29135
-0.267545
0.119939
-0.204885
-0.41355
-0.224318
-0.278958
0.0776247
-0.307947
-0.306643
-0.189051
-0.541707
0.0334535
-0.300766
0.00724225
-0.245231
-0.0965337
-0.480599
-0.0229555
-0.324111
-0.483543
-0.43759
-0.243062
0.0127668
-0.631497
-0.340346
-0.388159
0.06003
0.102915
-0.289647
-0.394825
-0.142136
0.0851789
-0.287708
0.0289246
-0.0136791
-0.0499027
-0.0931063
-0.230397
-0.0757931
-0.0787663
0.0432986
-0.248344
-0.227409
-0.291645
-0.315068
-0.232914
-0.393112
0.0786312
-0.300314
0.0337411
-0.264988
0.0652125
-0.4308
0.0912714
-0.10035
0.0301337
0.0666272
0.0238454
0.116144
-0.358022
0.000707722
-0.226787
-0.3942
-0.344418
-0.453004
0.0389139
-0.299745
-0.191865
-0.183297
-0.334643
-0.165396
-0.437366
0.052412
-0.262703
-0.0576212
-0.592537
-0.378131
-0.386534
0.110218
-0.279704
-0.156703
-0.314173
-0.380508
-0.454593
-0.322623
-0.406023
-0.0559144
0.050633
-0.5099
-0.202003
-0.382748
-0.422321
-0.0355307
-0.300482
-0.312958
0.0704365
-0.550959
-0.180588
-0.127962
0.0187356
0.100875
-0.30736
-0.373805
-0.508432
-0.301023
-0.292312
-0.384773
-0.0370788
-0.393217
-0.486375
-0.330649
-0.244721
-0.336924
-0.280672
-0.39165
-0.257017
-0.498748
-0.074535
-0.0964338
-0.272033
-0.0654054
-0.317468
-0.55088
-0.278707
-0.581043
0.0823474
-0.379213
-0.400312
-0.431627
-0.00214677
0.0428743
-0.242244
-0.0728047
-0.282759
-0.454989
-0.21796
-0.393729
-0.344812
0.0388844
-0.181026
-0.0769698
0.0845218
-0.0603749
-0.198741
0.069621
-0.510453
-0.237129
-0.244008
-0.183673
-0.206955
0.0630464
-0.396925
-0.192368
-0.292898
-0.324808
-0.400414
-0.365306
-0.0981103
-0.0310527
0.00456285
-0.227033
-0.226389
0.0614932
-0.0201598
-0.321129
-0.161271
-0.483551
-0.36113
-0.0501343
-0.516972
-0.0137638
-0.404384
0.0018198
0.104911
0.0484975
-0.417249
0.0268373
-0.0135562
-0.333737
0.0604362
-0.245842
0.0583793
-0.0605454
-0.38345
-0.497942
-0.155331
-0.355408
-0.203464
-0.288397
-0.00180216
-0.268657
0.0694523
-0.428501
-0.32398
-0.290798
-0.418696
-0.401382
-0.0276853
0.0935563
-0.435526
-0.0336438
-0.270233
-0.190105
-0.288862
-0.137307
0.031562
-0.0505938
-0.397397
0.0191493
-0.0335619
0.0915901
-0.427996
-0.416007
-0.303321
-0.079139
0.0788298
-0.0249488
-0.302471
0.091156
-0.258858
-0.494626
-0.497266
-0.62624
-0.228082
-0.473725
0.0867856
0.112705
-0.224718
0.111434
-0.0446945
-0.245423
0.0831057
-0.485733
0.0630016
-0.362172
0.0406583
-0.334765
-0.409698
-0.0794234
-0.233993
0.058525
0.0260694
0.0344532
-0.372538
-0.369095
-0.52405
0.0081477
-0.0550034
-0.291073
-0.199548
-0.0530464
-0.581432
-0.401771
-0.39239
-0.37132
-0.201876
-0.379996
-0.243011
-0.034053
-0.258346
-0.235861
-0.0876597
-0.357922
-0.288288
-0.199863
-0.258752
-0.361057
0.000102407
0.0459527
-0.290675
-0.0595047
-0.595428
-0.391965
0.00374829
-0.0797564
-0.402487
0.044914
-0.465335
-0.0962264
-0.284246
-0.245153
0.0151442
-0.331928
-0.0771169
-0.0571197
-0.135872
0.120769
-0.128703
-0.512033
-0.177186
-0.210428
-0.0769774
0.116973
-0.12795
-0.246519
-0.343907
-0.240739
0.0181151
-0.467499
0.0109301
-0.356974
-0.154113
-0.0632845
-0.0935733
-0.27728
0.0143943
0.0893182
-0.29435
-0.348398
-0.242429
-0.386292
-0.504643
-0.236503
-0.0585835
-0.459415
-0.511221
-0.275498
-0.486274
-0.101602
-0.253206
-0.0701717
-0.331058
0.0398247
-0.262295
-0.021673
0.0894034
-0.427991
0.0263407
-0.276343
-0.24074
-0.192111
0.0146632
-0.312279
-0.308092
-0.187223
-0.401804
-0.341579
-0.425888
-0.454994
-0.593041
0.0795521
0.0964462
-0.473853
-0.311472
-0.0835809
-0.521332
-0.291653
-0.381365
-0.120561
-0.0877349
-0.543844
-0.601002
0.0244297
-0.303609
-0.188187
-0.312789
-0.514573
-0.495465
-0.119549
-0.0193437
-0.174628
-0.549629
0.0441735
-0.0237458
-0.40409
-0.201727
-0.394156
0.0861063
-0.369245
-0.272502
-0.473058
-0.145777
0.0497704
-0.185922
-0.115951
-0.359117
-0.242174
-0.168586
0.0843905
0.114486
-0.316113
0.0938508
-0.350501
-0.225235
-0.227174
-0.321027
-0.355829
0.00957954
-0.201593
-0.213277
-0.350367
-0.44392
-0.208316
-0.406928
-0.122918
0.0411862
-0.406255
-0.366989
-0.235628
-0.348978
-0.258647
-0.571321
-0.313308
0.0271261
-0.347591
-0.408892
-0.0661887
-0.237733
-0.290432
-0.149684
-0.0212202
-0.282153
-0.268413
-0.0329588
-0.317258
-0.296361
-0.228354
0.013862
-0.160511
-0.219424
-0.298888
-0.452548
-0.324941
0.0867179
-0.0249327
0.099319
-0.293111
-0.130887
-0.454518
-0.272455
-0.0181149
-0.511236
-0.525597
-0.0939305
-0.0175772
-0.527228
-0.321312
-0.287671
-0.287335
-0.295032
0.111893
-0.264715
-0.322154
-0.114716
-0.342714
-0.0927299
-0.110465
-0.474321
-0.295608
-0.0605584
-0.25306
0.0905077
-0.503925
-0.405377
-0.121634
-0.16993
-0.314552
-0.198724
-0.394568
0.0986244
0.0688726
-0.119482
0.0165076
-0.419548
-0.00498282
-0.153029
-0.0997285
0.0703147
-0.517709
-0.347624
0.110768
-0.148184
-0.542309
-0.401899
-1.41198e-05
0.104431
-0.276848
-0.08411
-0.29963
-0.487157
-0.367195
-0.530327
-0.0179487
-0.381047
-0.263832
0.062479
-0.444078
-0.279673
-0.339463
-0.21366
-0.30289
-0.408185
-0.349121
-0.471556
-0.237738
-0.0513114
0.0630616
-0.0821894
-0.262217
-0.361958
-0.551808
-0.397363
-0.177887
-0.196959
-0.0788663
-0.0708836
-0.362398
-0.298237
-0.0345274
-0.0113708
0.105525
0.0114071
0.0764244
-0.260999
-0.482673
-0.384692
-0.429641
0.0859664
-0.234149
-0.356471
0.0673459
-0.477078
-0.0525751
-0.0996077
-0.308895
-0.298764
-0.345558
-0.436687
-0.0157808
-0.35054
-0.119004
-0.281137
0.0554586
-0.211462
0.122098
-0.41675
-0.279414
-0.424842
-0.602326
-0.335764
-0.0703147
-0.302949
-0.398615
-0.219063
0.0628567
-0.0754304
-0.422191
-0.474322
-0.360384
-0.491989
-0.298208
-0.510956
-0.325078
-0.435798
-0.0919168
-0.478085
-0.315143
0.0579281
-0.218976
-0.0600954
-0.0283511
-0.327983
-0.262306
-0.37302
-0.0308291
-0.348985
-0.282753
-0.262764
-0.459515
-0.521138
-0.325068
-0.24786
-0.0849625
0.102441
-0.00368306
-0.222125
-0.114866
-0.52715
0.0947749
-0.174415
-0.0471202
-0.277331
-0.0962234
-0.400036
-0.33907
-0.0470791
0.0546575
-0.06973
-0.21214
-0.387413
0.11312
-0.275727
-0.0230244
0.0806655
-0.1345
-0.314169
-0.527616
-0.0336922
-0.148165
-0.45945
-0.153573
-0.17636
0.0473452
-0.376989
0.0647797
0.107394
-0.332914
-0.412034
0.0747157
-0.460896
-0.446364
-0.327579
-0.435344
-0.322054
-0.435661
-0.496483
-0.287591
-0.300952
-0.365324
-0.398051
-0.201207
-0.43779
-0.409013
-0.161013
-0.265462
-0.533044
0.0440677
0.0983917
0.0795463
-0.32091
-0.552115
0.13092
-0.475039
-0.29223
-0.28587
-0.390528
-0.270079
-0.0975404
-0.385707
-0.409753
-0.512364
-0.508228
-0.465809
-0.401304
-0.564056
-0.283163
-0.233607
-0.29625
0.060176
-0.236087
-0.115361
-0.265538
-0.0285828
-0.377367
-0.384792
0.119271
-0.290354
-0.150584
-0.476447
-0.136978
0.100253
-0.338661
-0.149242
-0.157987
-0.399925
-0.314319
-0.453142
-0.407801
-0.0862849
-0.439397
-0.30105
-0.40874
-0.33008
-0.363516
-0.449031
-0.28592
-0.358225
-0.429402
0.098879
-0.29393
-0.289257
-0.214072
0.0537663
-0.376073
-0.502775
-0.0376027
-0.457508
-0.342718
-0.294167
-0.205765
-0.409083
-0.197116
-0.192162
0.094477
-0.00454421
-0.48623
-0.421352
-0.522732
-0.293947
-0.543417
-0.402351
-0.295692
-0.40471
-0.291288
-0.172277
0.111747
-0.362875
-0.107351
-0.232664
0.0856307
-0.405089
0.0991483
-0.17971
-0.479468
-0.166427
-0.0971785
-0.38908
0.00427254
-0.293242
0.00637063
-0.408524
-0.393161
-0.304958
0.112434
0.0868283
-0.0828904
-0.156141
-0.103882
-0.550059
-0.423508
-0.0830369
0.123121
-0.374056
-0.237098
-0.284556
-0.382401
-0.326556
-0.348914
-0.436534
-0.374424
-0.430244
-0.311808
-0.366827
-0.306229
0.1175
-0.0188398
-0.553855
-0.0637623
-0.380772
-0.469844
-0.0442411
-0.437341
-0.346081
-0.109075
-0.344655
-0.390045
-0.282923
-0.00474736
-0.451259
-0.39724
-0.36748
-0.177975
-0.427305
0.0514755
-0.540613
-0.402468
-0.364298
-0.423465
-0.142497
-0.175513
0.0561139
-0.305636
-0.062628
-0.225986
-0.183903
-0.328286
-0.132776
-0.460419
-0.441731
-0.592175
-0.144891
-0.305062
-0.367145
0.0277855
-0.260254
-0.115903
-0.143906
-0.391589
-0.425334
-0.378214
-0.171473
-0.316494
0.108319
-0.480238
-0.545208
-0.299304
-0.408772
-0.317646
-0.272248
-0.0912319
-0.342732
-0.29212
-0.452548
-0.288016
-0.294091
-0.311034
0.108792
0.0878084
-0.434555
-0.368542
-0.026362
-0.174185
-0.354219
-0.465093
-0.318299
-0.473558
-0.233693
0.0373963
-0.352959
-0.540615
-0.175084
-0.283988
-0.537138
-0.445929
-0.27046
-0.119199
0.110829
-0.461194
-0.507566
-0.207102
-0.0202869
-0.348862
-0.212391
-0.370038
-0.300328
-0.388421
-0.176617
-0.309502
-0.308585
-0.0522552
-0.367116
-0.551299
-0.245324
-0.328709
-0.0485651
0.120306
-0.310235
-0.401963
-0.385833
-0.39342
-0.450132
-0.397726
-0.472183
0.0670912
-0.0290111
-0.119401
-0.289483
-0.524221
-0.0648165
0.092295
-0.420672
-0.252741
-0.409876
-0.597649
-0.270994
-0.396057
-0.604491
-0.229625
-0.0774348
-0.519929
-0.533761
-0.430355
0.0170752
-0.532057
-0.0396078
-0.20203
-0.351942
-0.362755
-0.37507
-0.0460789
-0.563667
-0.395991
-0.339349
-0.44892
-0.220521
-0.0690704
-0.215103
-0.303253
-0.0756219
-0.452161
-0.438027
0.0267566
-0.31112
0.0212495
-0.206264
-0.344611
-0.156644
-0.00203112
-0.286322
-0.517189
0.0464204
-0.315116
-0.33823
-0.00289612
-0.341277
0.0631383
-0.364841
-0.361306
-0.344779
-0.358458
-0.413458
-0.287145
-0.467062
-0.554776
-0.495239
-0.420897
-0.594748
0.034468
-0.424169
-0.351708
-0.211301
-0.273971
0.0964179
0.100263
-0.415129
-0.166768
-0.0432677
-0.426677
0.039654
-0.585468
-0.368999
-0.249693
-0.431792
-0.0301599
-0.416875
-0.405607
-0.324579
-0.458774
-0.277596
-0.543295
0.00394582