/*--------------------------------*- C++ -*----------------------------------*\
  =========                 |
  \\      /  F ield         | OpenFOAM: The Open Source CFD Toolbox
   \\    /   O peration     | Website:  https://openfoam.org
    \\  /    A nd           | Version:  6
     \\/     M anipulation  |
\*---------------------------------------------------------------------------*/
FoamFile
{
    version     2.0;
    format      ascii;
    class       volVectorField;
    location    "0";
    object      U_rec;
}
// * * * * * * * * * * * * * * * * * * * * * * * * * * * * * * * * * * * * * //

dimensions      [0 1 -1 0 0 0 0];

internalField   nonuniform List<vector> 
918
(
(0.984964 -0.00431485 0)
(-0.00738487 2.98762 0)
(-0.0141533 1.70057 0)
(0.977141 0.00718186 0)
(-0.00634969 1.66172 5.75101e-17)
(0.0028902 2.97858 -3.45113e-17)
(0.943118 1.42748 2.40466e-18)
(0.474317 0.241741 2.11841e-19)
(0.995388 -3.47077e-05 0)
(0.0273128 1.56484 0)
(-0.00331018 1.57072 0)
(0.890628 -0.00287781 0)
(-0.00165015 2.98684 0)
(0.00484703 2.89242 0)
(-0.000205383 2.90235 1.58367e-17)
(-0.00671737 1.62704 3.43596e-17)
(0.644703 0.13444 2.61534e-18)
(0.186139 1.61941 -3.85439e-17)
(0.981943 0.00727872 0)
(0.0062337 1.63246 0)
(-0.00418681 0.0142993 4.04834e-18)
(0.985319 0.0087293 0)
(1.00252 0.0100638 0)
(1.01519 0.000158604 0)
(0.806007 -0.00156916 0)
(0.017578 2.92969 0)
(-0.00844912 2.9415 -9.11911e-17)
(-0.0108124 1.7256 0)
(0.00167748 1.7652 0)
(-0.0103992 1.72217 0)
(-0.00825311 1.78822 0)
(-0.00992209 1.6739 5.73656e-17)
(-0.00674527 1.6319 0)
(0.0011711 3.0097 3.65038e-22)
(0.00500594 3.02175 -5.15537e-17)
(0.0202825 3.00693 0)
(0.931775 -0.00426115 0)
(0.593812 1.11156 -1.05528e-17)
(0.964149 1.43414 -7.99956e-18)
(1.0804 1.26998 2.29861e-17)
(0.81822 1.55874 9.99152e-18)
(0.782198 1.54239 1.34341e-17)
(0.495558 0.309938 9.38714e-20)
(0.526905 0.230656 0)
(1.27542 0.68154 0)
(0.422397 0.321615 2.17228e-19)
(0.406163 0.228696 7.476e-19)
(0.956006 -0.00235226 0)
(0.996098 0.00254025 0)
(0.995518 0.00346598 0)
(0.989981 0.00200847 0)
(0.981085 0.00905081 0)
(0.99645 0.0133007 0)
(0.0308581 1.58339 2.56865e-18)
(0.0172066 1.64656 0)
(0.0338681 1.56373 0)
(0.0103938 1.66775 0)
(0.0136339 1.58762 0)
(-0.00801125 1.65442 0)
(-0.00544676 1.65935 0)
(-0.00105654 1.57459 0)
(-0.0136628 1.66824 0)
(-0.00750657 1.5829 0)
(0.962277 0.00302274 0)
(0.93404 0.010212 0)
(0.905889 0.00110475 0)
(0.924696 0.0114552 0)
(0.877879 -0.00152259 0)
(-0.0206069 3.04275 2.715e-17)
(-0.000852775 2.97242 0)
(-0.0277333 3.01612 0)
(0.0299606 3.03904 -3.47782e-23)
(-0.00157053 3.02736 3.58782e-17)
(0.0163579 3.01039 0)
(0.00242123 2.95744 0)
(0.00404753 2.96726 -9.29232e-24)
(0.00421477 2.89961 0)
(0.00582248 2.974 0)
(0.00810155 2.88024 0)
(0.271062 3.18275 0)
(-0.0657285 3.26317 0)
(0.0915912 2.96183 9.05051e-18)
(0.000851289 2.80563 0)
(0.000415538 1.76169 0)
(-0.00332687 1.68907 3.37067e-17)
(-0.00203569 1.63246 3.43863e-17)
(0.684178 0.169668 -5.50395e-18)
(0.673104 0.0974172 1.52651e-18)
(0.64239 0.206624 1.83738e-17)
(0.618506 0.166347 -1.06289e-17)
(0.221695 1.28948 0)
(0.246564 1.67483 -4.40568e-17)
(0.374118 1.62565 -3.92555e-17)
(0.993768 0.00614341 0)
(0.969444 0.00358399 0)
(0.994561 -0.00630406 0)
(1.00079 0.000525171 0)
(1.00485 0.0147934 1.32095e-16)
(1.00621 0.0150274 1.29848e-16)
(-0.00331396 1.68888 0)
(0.000120054 1.63039 0)
(-0.00520911 1.72638 0)
(-0.0106967 1.7005 0)
(-0.000177284 1.64463 0)
(-0.0252735 0.249789 -2.18485e-18)
(0.177938 0.167293 0)
(1.01443 -0.0153362 0)
(0.983349 -0.00328327 0)
(0.901612 0.02682 0)
(0.862596 0.045653 0)
(0.847472 0.00751252 0)
(1.09048 0.000473919 0)
(0.818069 0.0389629 0)
(0.750821 -0.00930831 2.49614e-17)
(-0.0172956 2.87562 2.43334e-17)
(0.00776915 2.98419 0)
(-0.0495438 3.025 0)
(0.00557748 2.87054 0)
(-0.00704481 2.98413 -3.26462e-17)
(-0.00338591 2.93013 0)
(-0.0130972 2.98785 -1.8803e-17)
(-0.014356 2.95156 2.57986e-17)
(0.00467224 1.77925 0)
(0.000433863 1.77915 0)
(0.0011065 1.69115 -7.09677e-21)
(-0.00366855 1.68338 0)
(-0.000447455 1.62908 0)
(0.964999 0.000555316 0)
(0.93191 -0.000259769 0)
(0.921747 0.00309407 0)
(0.966733 -0.00128288 0)
(0.93785 -0.00139038 0)
(0.648504 1.23008 -5.86719e-18)
(0.733595 1.27196 0)
(0.527943 1.06695 -1.21525e-18)
(0.485018 0.996074 0)
(1.07943 1.27556 1.81361e-17)
(1.18697 1.07107 2.50018e-18)
(0.452774 1.67601 0)
(0.6565 1.64607 0)
(0.575427 1.61321 0)
(0.296078 0.541146 -6.0413e-18)
(0.54668 0.292797 0)
(0.567256 0.216456 -3.84625e-18)
(1.1589 1.09433 0)
(1.22174 0.894682 0)
(1.24284 0.86462 -2.59221e-18)
(1.27179 0.709699 0)
(1.29721 0.503838 -2.90254e-17)
(0.972585 0.00264754 0)
(0.975585 -0.00438318 0)
(0.9461 -0.00201836 0)
(0.997988 -0.00748581 0)
(0.988043 -0.00746786 0)
(0.970146 -0.00136783 0)
(0.987893 -0.00384646 0)
(0.986565 -0.000260373 0)
(0.996424 -0.0016927 0)
(0.0324216 1.63432 3.07977e-17)
(0.0388431 1.54788 0)
(0.0309922 1.66817 -1.85097e-18)
(0.0205069 1.61186 2.34965e-18)
(0.0834586 1.6473 -4.21833e-17)
(0.0252248 1.63581 0)
(0.0555992 1.57166 0)
(0.00454317 1.68822 0)
(0.0146203 1.57878 0)
(-0.0066286 1.70204 1.91912e-20)
(0.00517234 1.6535 0)
(-0.00737243 1.70325 -3.31088e-17)
(0.00277869 1.65528 -1.4139e-18)
(0.0118906 1.67943 0)
(0.00282399 1.66621 0)
(0.0112063 1.57339 0)
(-0.0123003 1.67892 0)
(-0.00703941 1.60208 0)
(1.00261 0.0187999 0)
(0.97974 0.00694452 0)
(0.986896 0.00897284 0)
(0.952424 0.00259309 0)
(0.911182 -0.00517189 0)
(0.950581 0.00222909 0)
(0.943617 0.00984036 0)
(0.907044 0.000739979 0)
(0.0110849 3.03881 3.05495e-20)
(0.0161776 3.03373 0)
(0.00649256 2.99372 0)
(0.0036972 2.93994 0)
(0.979078 3.69436 0)
(1.35252 2.7483 -1.76761e-18)
(0.008829 2.8812 0)
(-0.0110966 2.80265 0)
(-0.00526045 1.7711 0)
(-0.00509074 1.76406 0)
(-0.00528308 1.76605 0)
(-0.00399916 1.77777 -7.65818e-17)
(-0.00699846 1.76361 0)
(0.000946835 1.76995 0)
(0.00300694 1.63812 -6.80651e-17)
(0.00339115 1.69926 -3.45316e-17)
(-0.0054844 1.69518 3.35732e-17)
(-0.0012297 1.63636 0)
(0.713702 0.137898 -1.75723e-17)
(0.709174 0.0724104 -1.26861e-17)
(0.201602 1.35414 0)
(0.274132 1.16131 4.69779e-19)
(0.136426 1.44471 -2.78914e-17)
(0.143011 1.40504 -3.09395e-17)
(0.948967 0.00733865 0)
(0.980239 0.00691632 0)
(0.984991 0.00862313 0)
(0.95705 0.00672057 0)
(-0.0111652 1.68603 0)
(-0.000875357 1.68653 0)
(-0.00475782 1.61818 0)
(0.345214 0.322676 -5.66093e-19)
(0.212441 0.288013 8.20549e-20)
(0.310823 0.20861 0)
(1.18151 0.102726 -4.50308e-19)
(1.18662 0.0571375 0)
(1.09472 0.0474967 0)
(1.03305 0.00138895 0)
(0.73582 0.0973962 0)
(0.767728 0.0485568 2.85283e-17)
(0.721718 0.0367851 -1.99526e-17)
(-0.014583 2.95607 -3.25154e-17)
(-0.00694417 2.90468 -5.77917e-17)
(0.00764556 3.0283 5.56829e-20)
(0.0331693 3.01642 -3.57279e-17)
(-0.0173999 3.00101 -1.28988e-19)
(-0.0137571 2.97999 4.76866e-22)
(-0.0124409 3.02692 -4.23665e-18)
(-0.000918496 2.98692 -7.74274e-18)
(0.0481672 3.01983 -3.06723e-17)
(0.981831 0.00561158 0)
(0.973097 0.010881 0)
(0.942524 0.00481563 0)
(0.974309 0.00882664 0)
(0.962291 0.0100183 0)
(0.929725 0.00828225 0)
(0.952322 -0.00239167 0)
(0.9551 0.00414472 0)
(0.910589 -0.00367933 0)
(0.789795 1.43935 2.30775e-18)
(0.868972 1.50301 0)
(0.398189 0.771183 1.4914e-18)
(0.361201 0.85216 -1.98125e-18)
(0.423196 0.95849 -1.33561e-17)
(0.426633 0.89936 -1.68478e-17)
(0.405187 0.90173 1.72116e-18)
(0.289289 0.605507 1.99302e-17)
(0.62002 0.233158 -1.06243e-17)
(0.588249 0.260458 -3.23902e-18)
(0.597637 0.189248 4.97011e-18)
(1.29462 0.525651 -2.6427e-17)
(1.29494 0.330607 2.81343e-18)
(0.00990449 1.68877 -3.3946e-17)
(0.00374068 1.62677 0)
(1.04767 0.0299044 0)
(1.02078 0.0190519 0)
(1.00101 -0.000227849 0)
(0.0146984 3.04637 0)
(0.0132726 2.97257 -3.42158e-17)
(0.00994433 2.98435 0)
(0.00372895 2.92053 -2.4621e-17)
(0.0119189 3.05891 1.57528e-17)
(0.011531 3.05217 0)
(0.84499 1.73748 -3.30739e-18)
(1.19474 2.31989 -1.04607e-17)
(0.930457 1.82515 -1.54894e-17)
(-0.0275077 2.91944 3.20563e-17)
(-0.0253209 2.88174 0)
(-0.0199576 2.8386 0)
(-0.0140439 1.69735 6.75882e-17)
(0.0021396 1.69017 8.74565e-19)
(-0.0125216 1.63802 6.74887e-17)
(0.256339 1.28128 -1.55945e-17)
(0.301134 1.00683 -1.26292e-17)
(0.0383198 1.59373 -3.18906e-17)
(0.0760903 1.52674 -2.89105e-17)
(0.064312 1.48763 -6.09513e-17)
(-0.0223646 3.07061 1.2444e-16)
(-0.0092597 3.06776 1.07224e-16)
(0.00579142 2.98548 2.60683e-17)
(-0.0118725 2.97957 -2.54278e-17)
(7.67467e-05 2.93287 3.28576e-17)
(0.0172143 3.06411 -9.28707e-17)
(-0.00558005 3.0578 -1.28014e-16)
(0.354977 0.851452 0)
(0.296853 0.807214 -6.74967e-18)
(0.345793 0.586102 -1.63098e-17)
(0.378793 0.991147 3.1993e-17)
(0.336502 0.707104 2.40414e-17)
(1.27057 0.201526 -1.98465e-18)
(1.29802 0.362691 0)
(1.26616 0.177542 1.41975e-18)
(-0.00798101 1.69886 1.72612e-20)
(0.00195015 1.69506 0)
(-0.00200136 1.63819 0)
(0.300027 1.19168 8.57443e-19)
(0.349848 1.11392 -3.30737e-17)
(0.308212 0.854063 -2.97524e-17)
(1.00185 -0.022774 0)
(1.00291 -0.0139007 1.44393e-17)
(0.00269355 1.77679 0)
(-0.00888966 1.793 0)
(1.0024 -0.00125199 4.67055e-19)
(1.00169 0.00160567 1.95892e-17)
(0.00128818 1.77709 -7.63445e-17)
(0.00217782 1.77607 0)
(-0.0202701 2.97221 2.53738e-17)
(0.301239 2.99891 0)
(1.09682 0.698619 -2.65957e-17)
(1.00469 0.00688754 8.52114e-17)
(1.01023 -0.00765229 0)
(1.00598 -0.000930892 3.5766e-19)
(-0.0804222 1.7317 0)
(-0.0139693 1.79905 0)
(-0.00157308 1.80304 0)
(0.0246515 1.74016 -7.60792e-17)
(-0.0015431 1.75565 7.45191e-17)
(0.98901 0.0108303 8.35191e-17)
(1.03658 0.0226184 0)
(1.06111 0.0324914 0)
(-0.00158847 1.77134 0)
(0.00338022 1.76856 0)
(-0.0136065 1.77708 0)
(0.142155 1.56125 -8.44151e-17)
(1.00521 -0.0122204 0)
(1.00826 -0.015162 0)
(0.996518 0.00511309 -1.87386e-17)
(0.997528 -0.00543944 2.38969e-17)
(0.996801 -0.00370313 0)
(-0.00410332 1.7658 0)
(0.000970144 1.77003 0)
(-0.000980186 1.76407 0)
(-0.00632976 1.78029 0)
(-0.0208638 1.77738 0)
(-0.0109104 1.77338 0)
(1.0118 0.00726324 0)
(1.01199 0.00466517 8.53841e-17)
(0.828455 1.40717 -1.31139e-18)
(1.00169 -0.00673784 1.90975e-17)
(0.999613 0.00445073 -2.3609e-17)
(1.00378 0.00353597 0)
(1.00042 0.0104627 3.79068e-17)
(1.00636 0.0129528 4.73999e-17)
(1.00576 0.0105623 0)
(0.00487192 1.772 0)
(0.00577311 1.76919 -3.88354e-17)
(0.000995123 1.76866 -3.42575e-17)
(1.15872 0.263997 -5.94287e-17)
(1.0974 0.0817383 0)
(-0.232211 2.97288 2.86446e-17)
(-0.251734 3.22063 6.35105e-19)
(-0.0335514 3.01844 4.83579e-17)
(-0.0393401 2.97151 3.64697e-17)
(0.048373 2.95008 0)
(-0.0271739 3.02642 1.35756e-17)
(-0.0966004 3.1279 2.34321e-17)
(-0.0823342 3.01243 1.79503e-17)
(-0.0593859 3.09693 0)
(0.646652 0.34325 0)
(0.519122 0.385107 0)
(1.08004 0.824609 3.00438e-17)
(1.07051 0.907283 3.77018e-17)
(1.13363 0.635659 0)
(1.15001 0.561132 0)
(1.00688 0.00418399 1.10969e-17)
(1.00259 0.00340121 -1.09092e-17)
(1.01084 -0.00883648 0)
(1.00575 -0.0158602 0)
(1.00142 0.00824889 0)
(1.0063 0.00387792 0)
(1.00445 0.00582537 0)
(1.00253 0.00523659 0)
(1.00386 0.00449138 0)
(0.993734 0.00656183 0)
(-0.0595486 1.74491 0)
(-0.0628893 1.77926 0)
(-0.0552539 1.71225 0)
(-0.0485401 1.69573 0)
(-0.0124703 1.80716 0)
(0.0161593 1.79881 3.52685e-17)
(-0.000183524 1.78776 0)
(-0.0140135 1.76292 3.25386e-17)
(0.00409668 1.72346 -6.99494e-17)
(-0.0110453 1.80329 0)
(-0.00360857 1.79751 0)
(0.0102601 1.81041 0)
(0.00351426 1.81972 0)
(0.0290246 1.76714 -7.49095e-17)
(-0.014584 1.7416 -4.89224e-17)
(0.0247509 1.74516 3.72121e-17)
(0.00536682 1.7545 0)
(0.0215622 1.76173 3.22362e-17)
(0.00650832 1.76729 -7.14296e-17)
(-0.000939921 1.78562 -1.15754e-16)
(-0.00460592 1.73202 -4.6977e-17)
(0.0223629 1.73894 3.95114e-17)
(0.992116 0.0169078 -6.12615e-18)
(0.994888 0.00102116 9.52866e-18)
(0.988333 0.0244912 1.08538e-17)
(0.975031 0.0191577 -8.93448e-18)
(1.03028 0.0113676 0)
(1.03315 0.0106563 0)
(1.04479 0.0325412 0)
(1.03685 0.0299009 0)
(1.04299 0.0130107 0)
(1.08549 0.0695218 0)
(1.06377 0.0598073 0)
(1.08248 0.041076 0)
(-0.0105249 1.77664 9.98602e-18)
(0.0014909 1.75601 0)
(-0.0161544 1.76173 0)
(-0.00268688 1.76745 -1.50496e-17)
(9.37048e-05 1.77016 2.6599e-20)
(-0.010089 1.7876 4.41883e-17)
(-0.0214399 1.77597 4.48565e-17)
(-0.00264287 1.77031 0)
(-0.0292537 1.77557 0)
(-0.0123997 1.76942 0)
(-0.00351269 1.77997 0)
(-0.00735818 1.78888 0)
(0.320678 1.55216 -5.49977e-17)
(0.382421 1.57429 4.22444e-17)
(0.356266 1.85325 3.95789e-20)
(0.185981 1.81253 2.95949e-17)
(0.124375 2.07748 3.66492e-17)
(1.00976 -0.015139 0)
(1.01178 -0.00804533 0)
(1.01461 -0.00981669 0)
(1.00554 0.00225497 0)
(0.997513 -0.00319684 0)
(0.989867 -0.000981202 0)
(1.00285 -0.00147467 0)
(1.00409 -0.000841382 0)
(1.00925 0.00323685 -5.99043e-18)
(1.00708 0.00507146 1.04572e-17)
(1.01187 0.00629961 1.07997e-17)
(1.00688 0.00603839 -1.01797e-17)
(0.763416 1.49958 0)
(0.711983 1.52693 -7.64105e-17)
(0.89766 1.36037 7.1901e-17)
(0.952087 1.28297 6.65909e-17)
(1.00877 2.09329 -2.50907e-17)
(0.816033 0.116604 -1.99152e-17)
(1.10882 0.133358 0)
(1.15971 0.191543 -9.52446e-17)
(1.13717 0.13795 1.16678e-19)
(0.951428 0.144379 0)
(-0.0875713 2.70318 5.27401e-17)
(-0.374111 2.6166 6.98738e-17)
(-0.811029 2.68487 7.11669e-18)
(-0.644331 0.217107 -1.17684e-17)
(0.195801 2.99264 -1.4414e-17)
(0.0473388 2.9807 0)
(0.143387 2.9633 -9.28502e-18)
(0.0184035 2.70377 7.7675e-17)
(0.192033 2.73539 0)
(-0.0224692 3.05526 -3.73608e-19)
(-0.0346371 3.07013 -2.33788e-17)
(-0.00628243 3.09655 -3.02076e-17)
(-0.0399014 3.11111 0)
(-0.0491277 3.05144 0)
(1.13546 2.16069 0)
(0.490063 1.05452 4.92033e-17)
(1.02124 1.0963 -3.49924e-17)
(0.996802 1.22444 0)
(0.840301 1.08433 -1.42716e-17)
(1.04116 1.03637 -6.20444e-17)
(0.174361 0.412544 -1.83211e-18)
(0.656386 0.33897 1.21161e-17)
(0.681285 0.297546 1.27898e-17)
(0.458604 0.457134 7.16363e-20)
(0.420789 0.395582 1.95792e-18)
(0.609152 0.389214 0)
(0.584531 0.48214 1.12535e-17)
(0.60863 0.439445 0)
(0.54204 0.413052 0)
(0.589498 0.358695 0)
(0.676787 0.696596 3.37852e-17)
(1.16681 0.339126 3.83098e-17)
(1.18018 0.461302 0)
(1.17271 0.387012 0)
(0.752763 0.229064 1.99513e-17)
(0.725925 0.629112 3.63035e-17)
(0.607413 0.571728 1.12888e-17)
(0.862819 0.432161 -8.14673e-17)
(1.00315 0.00615171 3.45248e-17)
(1.00182 0.0154903 4.6107e-17)
(0.998694 0.0129588 0)
(1.00745 0.00971606 0)
(1.00362 -0.0149239 -3.37565e-17)
(0.996534 -0.00739199 -4.41404e-17)
(1.01506 0.00159954 0)
(1.00557 0.00347564 0)
(1.01034 0.000514213 0)
(1.00552 0.0046514 0)
(1.0123 -0.00124721 0)
(1.00816 -0.00616628 0)
(-0.0354623 1.79663 0)
(-0.0210784 1.80016 0)
(-0.128666 1.68639 -5.1644e-17)
(0.0796138 1.61996 -3.9287e-17)
(-0.00970075 1.6722 7.94031e-17)
(0.00460637 1.62475 3.32607e-17)
(-0.0972141 1.66606 0)
(-0.120499 1.8715 7.35892e-17)
(-0.146619 1.84719 0)
(0.029237 2.09391 3.8431e-17)
(0.0697765 2.01344 -4.57321e-17)
(-0.121404 1.85255 7.02257e-17)
(0.0141171 1.5741 -4.04676e-17)
(-0.0948654 1.64739 -4.22353e-17)
(-0.0150078 1.56695 -8.68475e-18)
(-0.0847273 1.89809 0)
(-0.0147589 1.9026 -5.36175e-17)
(-0.0190716 1.73449 5.9659e-18)
(-0.00303452 1.72473 0)
(-0.0537799 1.74378 -7.3842e-17)
(-0.0487675 1.72286 0)
(-0.00499361 1.74893 3.46233e-17)
(-0.00594725 1.734 0)
(0.0358992 1.78185 5.50048e-17)
(0.0485261 1.78322 0)
(0.0250447 1.80193 0)
(0.0203266 1.80732 5.28475e-17)
(0.000987355 1.72477 -1.18247e-16)
(0.0175423 1.72632 -7.03925e-17)
(0.00761748 1.73238 -9.46155e-21)
(0.0105093 1.75849 7.71163e-17)
(-0.00808031 1.78394 -3.97613e-17)
(-0.00921852 1.79328 0)
(-0.0140594 1.79944 0)
(0.000288969 1.78093 3.01893e-17)
(0.00157306 1.80541 2.56207e-17)
(0.0184347 1.78989 6.11833e-17)
(-0.0439637 1.79157 0)
(0.00085967 1.77013 1.03421e-16)
(-0.00937341 1.7684 1.68623e-17)
(0.00412429 1.77392 -1.94154e-17)
(0.015982 1.77781 7.8366e-17)
(0.0169717 1.73547 -3.82535e-18)
(0.00522282 1.744 -4.53847e-17)
(1.00327 0.0120376 4.56137e-17)
(0.996812 0.00541203 3.42727e-17)
(0.998129 0.00819827 0)
(0.989091 0.0485559 -6.64967e-17)
(0.96571 0.0501685 1.11412e-17)
(0.948395 0.0354991 -2.83661e-18)
(0.983705 0.0937064 1.1385e-18)
(1.01726 0.0119428 0)
(1.02393 0.013059 -4.51507e-17)
(1.02303 0.00832685 -3.42216e-17)
(1.02437 0.0395585 3.19808e-18)
(1.02619 0.0348836 -8.80916e-18)
(1.01259 0.0473196 0)
(1.0051 0.0439938 -2.2136e-19)
(1.00032 0.0257241 0)
(0.999717 0.0259723 0)
(1.01446 0.0234187 0)
(1.00408 0.00942707 0)
(1.00842 0.027574 5.10611e-18)
(1.0094 0.020645 2.80925e-17)
(1.02255 0.0329091 -7.05939e-18)
(1.01445 0.0324405 9.1674e-18)
(1.01161 0.0633827 2.99593e-17)
(1.03582 0.0586246 0)
(1.02688 0.0908884 0)
(0.00363641 1.7799 -5.3492e-17)
(0.0163114 1.7576 -8.35647e-19)
(-0.00498546 1.77039 0)
(0.00976885 1.77906 -5.44343e-17)
(0.00191817 1.78328 9.01315e-18)
(0.00618705 1.7735 -3.97122e-18)
(-0.00145228 1.7677 -7.7912e-17)
(0.00890333 1.76486 -1.67404e-19)
(0.012274 1.75676 -5.09245e-18)
(-0.00593538 1.76672 3.44067e-17)
(-0.00334894 1.77047 3.37539e-17)
(0.00487151 1.76391 -2.32511e-17)
(-0.00305001 1.7728 -3.91174e-17)
(0.249681 1.41588 2.69066e-17)
(0.15804 1.60528 -7.9587e-18)
(0.672398 1.56953 -8.19354e-17)
(0.518544 1.56718 3.96925e-17)
(0.568286 1.57533 0)
(0.388656 1.87234 -3.56814e-18)
(0.485224 1.82643 -3.29665e-19)
(0.23641 1.8154 -7.4066e-18)
(0.18615 1.99839 -3.42616e-17)
(0.234545 2.01903 -2.8661e-17)
(0.335476 1.84897 0)
(0.284026 1.80334 -1.30606e-17)
(0.0559098 1.81631 1.81003e-18)
(0.143137 1.82236 6.23865e-17)
(0.0960196 1.78004 5.48419e-18)
(0.753209 1.98072 -3.51399e-17)
(0.655298 1.95677 0)
(1.00839 0.00496629 -1.34656e-19)
(1.00671 -0.00786436 2.10156e-19)
(1.00154 -0.0229748 -9.00266e-18)
(1.01526 -0.0119148 -1.46731e-17)
(1.01385 -0.000913673 0)
(0.737358 1.40565 0)
(0.671222 1.36308 0)
(0.776684 1.23145 0)
(0.698055 1.30942 0)
(0.987655 2.11329 2.92122e-17)
(0.938466 1.93188 0)
(0.777631 1.88259 -1.09457e-18)
(0.712728 2.10326 0)
(0.786984 2.11333 7.33684e-17)
(0.844345 2.05841 6.8382e-17)
(0.801208 0.156436 0)
(0.786787 0.159299 -7.81981e-19)
(0.873268 0.134106 1.10952e-17)
(0.83633 0.110201 -2.96055e-17)
(0.853271 0.0825913 -2.82195e-18)
(1.0122 0.254944 -2.95897e-17)
(0.892212 0.292851 2.88315e-17)
(0.862007 0.282 2.77423e-17)
(0.944273 0.22276 1.43521e-17)
(0.882083 0.168131 3.75097e-17)
(0.863329 0.195678 -1.06858e-17)
(0.874515 0.256255 8.51228e-19)
(0.85539 0.225015 0)
(0.952109 0.199023 2.35425e-17)
(0.988748 0.189569 0)
(0.981242 0.254283 0)
(1.04068 0.122892 -1.19222e-17)
(1.00092 0.188475 3.17294e-17)
(0.989578 0.220626 2.11522e-17)
(1.0313 0.20693 0)
(0.993121 0.0272236 -3.56228e-17)
(1.00035 0.0337982 3.25554e-17)
(1.00331 0.0351524 -2.76369e-17)
(1.00237 0.0529376 4.21962e-17)
(0.981162 0.0519714 -5.74964e-17)
(0.940082 0.150129 0)
(0.961861 0.0772184 0)
(0.944779 0.0536182 4.36533e-17)
(0.918384 0.0526189 9.18968e-18)
(0.989823 0.0971755 -3.7467e-17)
(1.01065 0.124251 -2.87071e-17)
(1.00941 0.154373 -7.51299e-18)
(0.980852 0.152265 0)
(1.01294 0.0936212 0)
(1.00794 0.0823441 3.51987e-17)
(0.991091 0.0830379 -2.79652e-17)
(0.574562 1.34589 2.77441e-17)
(0.56879 1.52139 -2.15e-17)
(0.913756 2.21791 1.8664e-17)
(0.984234 2.48366 -2.18073e-18)
(1.04302 2.19262 -2.98935e-17)
(1.10126 2.24099 6.08543e-18)
(1.10203 1.97659 8.29256e-18)
(1.00803 2.38042 -1.69022e-17)
(1.01379 2.35358 -1.30371e-17)
(1.0507 2.59292 -8.97566e-19)
(1.17796 2.4603 1.99156e-18)
(1.24558 2.4116 0)
(0.464863 1.11616 -3.57389e-18)
(-0.181673 1.41912 -1.39533e-17)
(0.0327459 0.592915 -5.70919e-18)
(-0.10243 0.81482 -1.61967e-17)
(0.341737 0.45828 -7.41535e-18)
(0.358483 0.511574 3.05276e-19)
(0.306888 0.596099 -4.27985e-18)
(0.219424 0.46531 1.78752e-18)
(0.309819 0.385782 -5.6982e-18)
(0.732647 0.273789 2.37657e-17)
(0.687551 0.304332 0)
(0.709319 0.264688 6.20843e-18)
(0.593871 0.571235 -1.10641e-17)
(0.507082 0.540202 1.04564e-17)
(0.424718 0.577559 -5.93627e-18)
(0.488931 0.488448 0)
(0.579026 0.930992 -2.39773e-17)
(0.743393 0.902008 4.95079e-17)
(0.684657 1.02308 5.02712e-17)
(0.770144 0.93493 1.29359e-17)
(0.8965 0.921393 -4.56844e-18)
(0.896795 0.988428 -5.52338e-18)
(0.780263 0.75411 3.06931e-18)
(0.840056 0.810584 1.06176e-17)
(0.927258 0.855161 0)
(0.927402 0.736548 2.53864e-17)
(0.943408 0.32013 5.20842e-17)
(1.05678 0.316695 -1.88763e-17)
(0.994426 0.306953 -4.94004e-17)
(0.900251 0.395196 4.6918e-17)
(0.99008 0.45306 0)
(1.03136 0.419418 0)
(0.800794 0.398205 5.08326e-17)
(0.788674 0.290029 0)
(0.781013 0.285122 -1.39307e-17)
(0.872626 0.310238 6.92266e-17)
(0.822331 0.503585 -8.04491e-17)
(0.752033 0.553717 1.30846e-18)
(0.787531 0.513538 6.45248e-18)
(0.71015 0.469118 3.5519e-19)
(0.693176 0.487717 -5.08526e-18)
(0.653801 0.472003 -1.75483e-18)
(1.01704 0.00437531 -4.55669e-17)
(1.01478 -0.00705595 0)
(1.02196 -0.000864821 1.25012e-17)
(1.00794 0.00742735 -1.81853e-17)
(1.02336 0.00557015 -2.24097e-17)
(1.01381 0.0144496 -1.05849e-18)
(1.0092 0.0102648 0)
(1.0096 0.00290637 1.24182e-17)
(1.01548 0.00855759 1.19028e-18)
(1.00813 0.00874277 -4.39314e-18)
(1.01077 0.00448383 9.64075e-18)
(-0.00412272 1.81647 0)
(0.00604135 1.82531 0)
(0.000806691 1.80449 0)
(-0.00163383 1.81125 0)
(-0.0880155 1.79745 -4.89637e-18)
(-0.0987308 1.76492 -1.09738e-16)
(-0.138022 1.84058 -3.34161e-17)
(-0.163296 1.8024 -8.69943e-17)
(-0.0342762 1.80222 5.72893e-17)
(-0.0288427 1.81644 6.27958e-17)
(-0.0673306 1.80799 1.21881e-16)
(-0.0456996 1.81478 5.75512e-17)
(-0.0218049 1.81566 1.01842e-17)
(-0.0143366 1.83041 1.43303e-18)
(-0.0599688 1.76784 -7.07154e-17)
(-0.0393465 1.8088 0)
(-0.103008 1.85087 -4.11838e-17)
(-0.137318 1.84887 -4.97257e-18)
(-0.0430653 1.93693 -1.84101e-17)
(0.00931054 1.90298 0)
(0.00918814 1.92527 5.44747e-17)
(0.0176012 1.97975 5.02472e-17)
(-0.0614018 1.90243 -6.3756e-17)
(-0.0766121 1.88206 -8.34534e-17)
(-0.0492658 1.84824 0)
(0.00688793 1.74623 3.24707e-17)
(0.00885312 1.71357 -2.25462e-17)
(0.0134753 1.73822 0)
(0.0143783 1.72772 2.13425e-17)
(-0.0178274 1.7378 1.7908e-17)
(0.00397585 1.79418 9.69246e-18)
(-0.00655595 1.78406 -1.02335e-16)
(-0.0177264 1.7854 -6.69958e-17)
(-0.0157421 1.78313 4.74551e-17)
(0.00957236 1.78369 0)
(0.0118236 1.78954 0)
(-0.00274618 1.7832 -3.94883e-17)
(-0.00346119 1.76967 -3.77998e-18)
(-0.00167208 1.78119 0)
(-0.0108534 1.79335 3.38809e-17)
(-0.00647726 1.78838 5.91941e-19)
(1.01748 0.0340734 0)
(1.02509 0.0279863 -9.30653e-22)
(1.00738 0.0200487 4.32837e-17)
(1.01638 0.0141528 0)
(1.01504 0.00821917 0)
(1.01727 0.00312446 2.17083e-17)
(1.0129 0.0112138 -5.24826e-17)
(1.00699 0.00732016 -1.39599e-17)
(1.00278 0.00647866 0)
(1.00624 0.00956247 0)
(1.00457 0.0146467 3.15558e-17)
(1.00092 0.0166997 0)
(1.00502 0.0143544 0)
(-0.00334152 1.7762 0)
(0.00225852 1.77349 -4.19646e-17)
(0.00286173 1.7651 4.34311e-17)
(-0.0014117 1.76458 0)
(0.0102048 1.77761 -3.95547e-17)
(-0.000384343 1.7685 -1.92956e-17)
(-0.00573677 1.76307 0)
(0.442449 1.94484 0)
(0.127538 1.68755 2.2955e-17)
(0.179798 1.92285 0)
(0.369758 1.41136 8.458e-17)
(0.460039 1.36407 0)
(0.402038 1.41956 3.40971e-17)
(0.857935 2.16325 -3.1527e-19)
(0.77475 1.9847 -2.81779e-17)
(0.704419 1.80343 -1.94308e-17)
(0.682483 1.95988 -7.90896e-18)
(0.738571 2.09353 0)
(0.781712 2.05841 0)
(0.710539 1.97171 0)
(0.714465 1.94755 -4.52517e-18)
(0.485893 2.18987 -3.99678e-17)
(0.664176 2.11226 3.74136e-18)
(0.667286 2.13551 2.73785e-18)
(0.48648 1.91522 0)
(0.595429 1.95456 0)
(0.572703 1.902 4.95295e-19)
(0.587729 2.11961 0)
(0.613498 1.26795 0)
(0.555957 1.15183 -6.56385e-17)
(0.551349 1.14774 -6.14009e-18)
(0.566814 1.2579 0)
(0.555061 1.21677 -7.06912e-17)
(0.727817 1.04588 -1.05409e-17)
(0.780228 1.18232 0)
(0.790174 1.10111 -2.93656e-17)
(0.672263 1.2097 0)
(0.614251 1.14621 0)
(0.928135 2.18481 1.30702e-17)
(0.908136 2.2564 -1.09422e-17)
(0.762496 1.96839 -3.88647e-17)
(0.769375 1.95282 -3.44233e-18)
(0.914137 2.16181 0)
(0.881768 2.1471 -4.37911e-18)
(0.892794 2.01012 -5.891e-18)
(0.8304 1.81432 -7.75686e-18)
(0.664026 1.498 0)
(0.611883 1.33327 3.08499e-17)
(0.635603 1.37078 0)
(0.814663 0.212892 0)
(0.780556 0.19003 0)
(0.763211 0.20142 0)
(0.802556 0.244879 -8.95216e-18)
(0.7532 0.226022 5.78723e-18)
(0.924993 0.074922 1.2481e-17)
(0.918662 0.115989 0)
(0.888124 0.0926629 -3.76918e-19)
(0.859526 0.0740428 -3.25611e-18)
(0.869998 0.055258 -6.20572e-18)
(1.03655 2.75344 -1.46518e-17)
(0.978116 2.66013 0)
(0.937634 2.83215 -5.26738e-17)
(0.583777 3.03634 -3.21897e-17)
(0.725987 2.55361 1.15277e-17)
(0.45644 1.17616 -2.45724e-17)
(0.515718 1.09721 0)
(0.233928 0.828887 6.69352e-18)
(0.257262 0.930085 4.336e-17)
(0.184874 0.792518 9.67983e-18)
(0.258256 0.635763 5.66405e-18)
(0.482711 0.630613 -8.16507e-18)
(0.508181 0.685027 0)
(0.454599 0.778316 0)
(0.34372 0.731718 0)
(0.899005 0.685143 1.12677e-17)
(0.827246 0.605179 6.43901e-18)
(0.844403 0.642379 -1.82512e-18)
(0.862098 0.529878 1.97485e-17)
(0.975686 0.555032 0)
(0.968238 0.618991 -1.11942e-17)
(0.762523 0.419496 8.65452e-18)
(0.766756 0.368585 2.33756e-17)
(0.710698 0.408511 -2.79206e-18)
(0.717381 0.375473 1.08336e-18)
(0.766717 0.329826 -1.01184e-17)
(0.750989 0.311719 -1.55118e-17)
(1.02776 0.00339667 -4.05681e-17)
(1.02611 0.00200082 -3.17414e-17)
(1.02424 0.0093063 3.91701e-17)
(1.02423 0.00776118 4.88498e-17)
(1.01529 0.0232296 0)
(1.00015 0.016021 -1.87362e-17)
(-0.0462716 1.78881 2.67985e-17)
(-0.0493777 1.80734 0)
(-0.110869 1.82288 -4.5526e-17)
(-0.125242 1.83178 -5.92478e-17)
(-0.143714 1.83007 -3.57537e-17)
(-0.111991 1.83472 0)
(0.0327416 1.7876 0)
(0.0171492 1.78038 -1.95847e-17)
(0.0037514 1.76223 -1.99797e-17)
(0.000386157 1.76965 -4.9808e-17)
(-0.00574255 1.77504 -1.02534e-17)
(0.0277576 1.77721 -4.23472e-18)
(0.695435 1.5175 -1.14093e-16)
(0.65868 1.60684 -1.28168e-16)
(0.497264 1.45137 7.54751e-17)
(0.560836 1.63155 -4.88126e-18)
(0.704661 1.40149 0)
(0.5866 1.40416 7.54811e-17)
(0.640483 1.41683 6.93991e-17)
(0.557331 1.30062 6.91362e-17)
(0.692628 1.35711 0)
(0.692916 1.37774 0)
(0.442171 2.19891 -4.59467e-17)
(0.435621 2.08302 -6.44498e-17)
(0.504738 2.10851 -5.71857e-17)
(0.371787 2.08341 -2.56041e-18)
(0.264134 2.22969 2.58534e-18)
(0.250316 2.11622 -2.06941e-17)
(0.783492 1.92039 -1.22784e-17)
(0.83348 1.92302 0)
(0.745369 1.76354 2.61713e-18)
(0.874175 2.12355 0)
(0.848428 2.13542 0)
(0.560656 2.02532 -3.83875e-18)
(0.917085 2.48867 -4.5127e-18)
(0.792667 2.48642 2.51485e-19)
(0.171942 1.2373 0)
(0.200328 1.18977 -1.56477e-17)
(0.434126 1.09484 -3.67808e-17)
(0.385062 1.96466 0)
(0.375723 2.34041 7.42865e-18)
(0.200986 2.30495 0)
(0.605384 0.846277 -1.63047e-17)
(0.644452 0.84427 -4.55534e-17)
(0.654461 0.792956 -2.58597e-17)
(0.483907 0.814011 -2.0256e-18)
(0.557988 0.715733 5.51608e-19)
(0.82153 2.29774 -9.34835e-18)
(0.885746 2.28485 -9.77445e-18)
(0.640748 1.98632 1.1657e-17)
(0.624223 1.70517 2.83718e-17)
(0.649074 1.75764 3.75496e-17)
(0.826592 2.06666 -2.96744e-17)
(0.834681 2.07591 -1.75971e-17)
(0.689086 1.73311 8.13605e-19)
(0.523294 1.46626 3.35126e-17)
)
;

boundaryField
{
    wall-4
    {
        type            calculated;
        value           uniform (0 0 0);
    }
    velocity-inlet-5
    {
        type            calculated;
        value           uniform (1 0 0);
    }
    velocity-inlet-6
    {
        type            calculated;
        value           uniform (0 3 0);
    }
    pressure-outlet-7
    {
        type            calculated;
        value           nonuniform List<vector> 8((-0.0142834 1.7007 0) (-0.00641658 1.6615 5.75101e-17) (0.00189977 1.76541 0) (-0.00772854 1.78822 0) (0.000504978 1.76148 0) (0.000695712 1.77894 0) (-0.00522452 1.76582 0) (0.0010905 1.76979 0));
    }
    wall-8
    {
        type            calculated;
        value           uniform (0 0 0);
    }
    frontAndBackPlanes
    {
        type            empty;
    }
}

