/*--------------------------------*- C++ -*----------------------------------*\
  =========                 |
  \\      /  F ield         | OpenFOAM: The Open Source CFD Toolbox
   \\    /   O peration     | Website:  https://openfoam.org
    \\  /    A nd           | Version:  6
     \\/     M anipulation  |
\*---------------------------------------------------------------------------*/
FoamFile
{
    version     2.0;
    format      ascii;
    class       volScalarField;
    location    "0";
    object      TRec;
}
// * * * * * * * * * * * * * * * * * * * * * * * * * * * * * * * * * * * * * //

dimensions      [0 0 0 1 0 0 0];

internalField   nonuniform List<scalar> 
10000
(
298.616
298.649
298.681
298.711
298.74
298.767
298.793
298.816
298.838
298.859
298.878
298.895
298.911
298.926
298.94
298.953
298.966
298.977
298.988
298.998
299.008
299.017
299.026
299.034
299.042
299.05
299.058
299.065
299.072
299.079
299.085
299.092
299.098
299.105
299.111
299.117
299.123
299.128
299.134
299.14
299.145
299.151
299.156
299.161
299.166
299.17
299.175
299.179
299.183
299.187
299.19
299.193
299.196
299.199
299.201
299.204
299.206
299.208
299.21
299.211
299.213
299.215
299.217
299.218
299.22
299.222
299.224
299.226
299.228
299.23
299.232
299.235
299.237
299.24
299.243
299.246
299.25
299.253
299.257
299.262
299.267
299.274
299.281
299.29
299.301
299.314
299.331
299.354
299.383
299.42
299.471
299.537
299.626
299.742
299.894
300.088
300.33
300.621
300.954
301.315
298.617
298.65
298.682
298.713
298.743
298.77
298.796
298.82
298.842
298.863
298.882
298.899
298.916
298.931
298.944
298.957
298.969
298.98
298.991
299.001
299.01
299.019
299.028
299.036
299.044
299.051
299.058
299.066
299.072
299.079
299.086
299.092
299.098
299.104
299.11
299.116
299.122
299.128
299.133
299.139
299.144
299.15
299.155
299.16
299.165
299.17
299.174
299.178
299.182
299.186
299.19
299.193
299.196
299.199
299.201
299.204
299.206
299.208
299.21
299.212
299.213
299.215
299.217
299.219
299.22
299.222
299.224
299.226
299.228
299.23
299.233
299.235
299.238
299.24
299.243
299.246
299.25
299.253
299.257
299.262
299.267
299.273
299.28
299.288
299.299
299.311
299.328
299.349
299.376
299.412
299.46
299.523
299.608
299.721
299.87
300.063
300.306
300.602
300.942
301.31
298.618
298.652
298.686
298.719
298.749
298.778
298.805
298.83
298.853
298.875
298.894
298.912
298.928
298.943
298.956
298.969
298.98
298.99
299
299.009
299.018
299.026
299.034
299.041
299.048
299.055
299.062
299.069
299.075
299.081
299.087
299.093
299.099
299.105
299.11
299.116
299.121
299.127
299.132
299.138
299.143
299.149
299.154
299.159
299.164
299.169
299.173
299.178
299.182
299.186
299.189
299.193
299.196
299.199
299.201
299.204
299.206
299.208
299.21
299.212
299.214
299.216
299.218
299.22
299.221
299.223
299.225
299.227
299.229
299.231
299.233
299.236
299.238
299.241
299.244
299.247
299.25
299.253
299.257
299.262
299.266
299.272
299.278
299.286
299.296
299.308
299.322
299.342
299.367
299.4
299.445
299.505
299.586
299.696
299.843
300.035
300.281
300.581
300.928
301.306
298.619
298.656
298.692
298.727
298.76
298.791
298.82
298.847
298.872
298.895
298.915
298.934
298.95
298.965
298.978
298.99
299
299.01
299.018
299.026
299.033
299.04
299.047
299.053
299.059
299.064
299.07
299.075
299.081
299.086
299.091
299.096
299.101
299.106
299.112
299.117
299.122
299.127
299.132
299.137
299.142
299.148
299.153
299.158
299.163
299.167
299.172
299.177
299.181
299.185
299.189
299.193
299.196
299.199
299.202
299.205
299.207
299.21
299.212
299.214
299.216
299.218
299.219
299.221
299.223
299.225
299.227
299.229
299.231
299.233
299.235
299.237
299.24
299.242
299.245
299.248
299.251
299.254
299.258
299.262
299.266
299.271
299.277
299.284
299.293
299.304
299.317
299.335
299.358
299.389
299.431
299.489
299.567
299.675
299.82
300.013
300.261
300.566
300.919
301.303
298.62
298.661
298.7
298.738
298.774
298.809
298.841
298.871
298.898
298.922
298.944
298.964
298.981
298.996
299.009
299.02
299.03
299.038
299.045
299.05
299.057
299.062
299.067
299.071
299.075
299.079
299.083
299.087
299.091
299.095
299.099
299.103
299.107
299.111
299.115
299.119
299.124
299.128
299.133
299.138
299.143
299.147
299.152
299.157
299.162
299.167
299.171
299.176
299.18
299.185
299.189
299.193
299.196
299.2
299.203
299.206
299.209
299.211
299.213
299.216
299.218
299.22
299.222
299.224
299.226
299.228
299.23
299.232
299.234
299.236
299.238
299.24
299.242
299.245
299.247
299.25
299.253
299.256
299.259
299.263
299.267
299.272
299.277
299.283
299.291
299.301
299.313
299.33
299.351
299.38
299.42
299.476
299.553
299.659
299.805
299.999
300.25
300.558
300.915
301.302
298.622
298.667
298.71
298.752
298.792
298.83
298.866
298.899
298.929
298.956
298.98
299.001
299.019
299.034
299.047
299.058
299.066
299.073
299.079
299.083
299.087
299.09
299.093
299.095
299.098
299.099
299.101
299.103
299.105
299.107
299.11
299.112
299.115
299.118
299.121
299.124
299.128
299.132
299.136
299.14
299.144
299.148
299.153
299.158
299.162
299.167
299.171
299.176
299.181
299.185
299.189
299.193
299.197
299.201
299.204
299.207
299.21
299.213
299.216
299.218
299.221
299.223
299.225
299.227
299.229
299.231
299.233
299.235
299.237
299.239
299.241
299.243
299.246
299.248
299.25
299.253
299.255
299.258
299.261
299.265
299.269
299.273
299.278
299.283
299.291
299.299
299.311
299.326
299.346
299.374
299.413
299.467
299.544
299.65
299.796
299.992
300.246
300.556
300.915
301.302
298.625
298.673
298.721
298.768
298.813
298.855
298.894
298.931
298.964
298.993
299.019
299.042
299.061
299.077
299.09
299.101
299.109
299.115
299.119
299.121
299.121
299.126
299.126
299.126
299.125
299.125
299.125
299.124
299.124
299.124
299.125
299.125
299.127
299.128
299.13
299.132
299.134
299.137
299.14
299.144
299.147
299.151
299.155
299.159
299.164
299.168
299.173
299.177
299.182
299.186
299.19
299.195
299.199
299.202
299.206
299.21
299.213
299.216
299.219
299.222
299.224
299.227
299.229
299.231
299.233
299.235
299.237
299.239
299.241
299.243
299.246
299.248
299.25
299.252
299.254
299.257
299.259
299.262
299.265
299.268
299.271
299.275
299.279
299.285
299.291
299.299
299.31
299.324
299.343
299.37
299.409
299.463
299.539
299.646
299.794
299.992
300.247
300.559
300.917
301.303
298.627
298.681
298.734
298.785
298.834
298.881
298.925
298.965
299.001
299.033
299.062
299.086
299.107
299.124
299.137
299.147
299.155
299.16
299.163
299.164
299.163
299.164
299.162
299.16
299.157
299.155
299.152
299.149
299.147
299.145
299.143
299.142
299.141
299.141
299.141
299.142
299.143
299.145
299.147
299.149
299.152
299.155
299.159
299.162
299.166
299.171
299.175
299.179
299.184
299.188
299.192
299.197
299.201
299.205
299.209
299.213
299.216
299.219
299.223
299.226
299.228
299.231
299.233
299.236
299.238
299.24
299.242
299.245
299.247
299.249
299.251
299.253
299.255
299.257
299.259
299.261
299.264
299.266
299.269
299.272
299.275
299.278
299.282
299.287
299.293
299.301
299.311
299.324
299.343
299.369
299.407
299.461
299.538
299.647
299.796
299.996
300.252
300.565
300.921
301.304
298.63
298.688
298.746
298.803
298.857
298.908
298.956
299
299.04
299.075
299.106
299.132
299.154
299.172
299.186
299.196
299.203
299.208
299.21
299.21
299.208
299.203
299.202
299.198
299.193
299.188
299.182
299.177
299.173
299.168
299.165
299.161
299.159
299.157
299.155
299.154
299.154
299.155
299.156
299.157
299.159
299.161
299.164
299.167
299.171
299.175
299.179
299.183
299.187
299.191
299.196
299.2
299.204
299.208
299.212
299.216
299.22
299.224
299.227
299.23
299.233
299.236
299.239
299.241
299.244
299.246
299.248
299.25
299.253
299.255
299.257
299.259
299.261
299.263
299.265
299.267
299.269
299.272
299.274
299.277
299.28
299.283
299.286
299.291
299.296
299.303
299.313
299.326
299.344
299.371
299.408
299.463
299.541
299.651
299.802
300.003
300.261
300.572
300.927
301.307
298.632
298.696
298.759
298.821
298.88
298.936
298.988
299.036
299.079
299.117
299.15
299.178
299.201
299.22
299.235
299.245
299.252
299.256
299.257
299.256
299.252
299.246
299.245
299.238
299.23
299.223
299.215
299.208
299.201
299.194
299.188
299.183
299.179
299.175
299.172
299.169
299.168
299.167
299.166
299.167
299.168
299.169
299.171
299.174
299.177
299.18
299.184
299.187
299.191
299.196
299.2
299.204
299.208
299.213
299.217
299.221
299.225
299.229
299.232
299.236
299.239
299.242
299.245
299.247
299.25
299.252
299.255
299.257
299.259
299.261
299.264
299.266
299.268
299.27
299.272
299.274
299.276
299.278
299.28
299.283
299.285
299.288
299.292
299.296
299.301
299.307
299.316
299.329
299.347
299.374
299.412
299.467
299.546
299.657
299.81
300.013
300.271
300.582
300.934
301.309
298.635
298.704
298.772
298.839
298.902
298.963
299.019
299.071
299.117
299.158
299.194
299.224
299.248
299.268
299.283
299.294
299.301
299.304
299.305
299.302
299.297
299.29
299.285
299.277
299.268
299.259
299.249
299.24
299.231
299.222
299.214
299.207
299.2
299.195
299.19
299.186
299.183
299.181
299.179
299.178
299.178
299.179
299.18
299.182
299.184
299.187
299.19
299.194
299.197
299.201
299.205
299.21
299.214
299.218
299.222
299.226
299.23
299.234
299.238
299.242
299.245
299.248
299.251
299.254
299.257
299.259
299.262
299.264
299.266
299.269
299.271
299.273
299.275
299.277
299.279
299.281
299.283
299.285
299.287
299.289
299.292
299.294
299.297
299.301
299.306
299.312
299.321
299.334
299.352
299.378
299.417
299.473
299.553
299.666
299.82
300.024
300.282
300.592
300.941
301.312
298.637
298.712
298.785
298.856
298.925
298.99
299.05
299.105
299.155
299.198
299.236
299.268
299.294
299.315
299.33
299.341
299.348
299.351
299.351
299.348
299.342
299.333
299.324
299.316
299.306
299.295
299.284
299.272
299.261
299.251
299.241
299.232
299.224
299.216
299.21
299.204
299.2
299.196
299.194
299.192
299.191
299.191
299.191
299.192
299.194
299.196
299.198
299.201
299.205
299.208
299.212
299.216
299.22
299.225
299.229
299.233
299.237
299.241
299.245
299.248
299.252
299.255
299.259
299.262
299.264
299.267
299.27
299.272
299.274
299.276
299.279
299.281
299.283
299.285
299.287
299.289
299.291
299.293
299.295
299.297
299.299
299.301
299.304
299.308
299.312
299.318
299.327
299.339
299.357
299.384
299.423
299.48
299.562
299.676
299.832
300.037
300.295
300.603
300.948
301.314
298.64
298.719
298.797
298.873
298.947
299.016
299.08
299.138
299.191
299.237
299.277
299.311
299.338
299.36
299.376
299.387
299.393
299.396
299.395
299.391
299.385
299.376
299.365
299.355
299.343
299.331
299.318
299.305
299.292
299.28
299.269
299.258
299.248
299.239
299.231
299.224
299.219
299.214
299.21
299.207
299.205
299.204
299.203
299.204
299.204
299.206
299.208
299.211
299.214
299.217
299.22
299.224
299.228
299.232
299.236
299.24
299.244
299.248
299.252
299.256
299.26
299.263
299.266
299.269
299.272
299.275
299.278
299.28
299.283
299.285
299.287
299.289
299.292
299.294
299.295
299.297
299.299
299.301
299.303
299.305
299.307
299.309
299.312
299.315
299.319
299.325
299.334
299.346
299.364
299.391
299.431
299.489
299.571
299.687
299.844
300.05
300.308
300.614
300.956
301.317
298.642
298.726
298.809
298.89
298.968
299.041
299.109
299.171
299.226
299.275
299.317
299.352
299.38
299.402
299.419
299.43
299.436
299.439
299.437
299.433
299.425
299.416
299.404
299.393
299.38
299.365
299.351
299.337
299.323
299.309
299.296
299.284
299.273
299.263
299.254
299.245
299.238
299.232
299.227
299.223
299.22
299.218
299.217
299.216
299.217
299.218
299.219
299.221
299.224
299.226
299.23
299.233
299.237
299.241
299.245
299.249
299.253
299.256
299.26
299.264
299.268
299.271
299.275
299.278
299.281
299.284
299.287
299.289
299.291
299.293
299.296
299.298
299.301
299.303
299.304
299.306
299.308
299.31
299.311
299.313
299.315
299.317
299.32
299.323
299.327
299.333
299.341
299.353
299.372
299.399
299.439
299.498
299.582
299.699
299.857
300.063
300.321
300.625
300.963
301.319
298.645
298.734
298.821
298.906
298.988
299.065
299.137
299.202
299.26
299.311
299.354
299.391
299.42
299.443
299.459
299.47
299.477
299.478
299.476
299.471
299.463
299.453
299.44
299.428
299.413
299.398
299.383
299.367
299.352
299.338
299.324
299.31
299.298
299.287
299.276
299.267
299.259
299.252
299.246
299.241
299.237
299.234
299.232
299.231
299.23
299.23
299.231
299.233
299.235
299.237
299.24
299.243
299.247
299.25
299.254
299.258
299.262
299.265
299.269
299.273
299.277
299.28
299.284
299.287
299.29
299.293
299.296
299.298
299.301
299.303
299.305
299.307
299.31
299.312
299.314
299.316
299.317
299.319
299.321
299.322
299.324
299.326
299.329
299.331
299.335
299.341
299.349
299.361
299.38
299.407
299.448
299.508
299.593
299.711
299.87
300.077
300.334
300.636
300.97
301.322
298.647
298.74
298.833
298.922
299.008
299.089
299.164
299.232
299.292
299.345
299.39
299.427
299.457
299.481
299.497
299.508
299.514
299.515
299.512
299.506
299.497
299.487
299.473
299.46
299.444
299.428
299.412
299.396
299.38
299.365
299.35
299.336
299.323
299.311
299.299
299.289
299.28
299.272
299.265
299.259
299.255
299.251
299.248
299.246
299.245
299.244
299.245
299.246
299.247
299.249
299.251
299.254
299.257
299.261
299.264
299.268
299.271
299.275
299.279
299.282
299.286
299.29
299.293
299.296
299.299
299.302
299.305
299.308
299.31
299.313
299.315
299.317
299.319
299.322
299.324
299.326
299.327
299.329
299.33
299.332
299.334
299.336
299.338
299.341
299.344
299.35
299.358
299.37
299.389
299.417
299.458
299.519
299.605
299.724
299.884
300.091
300.347
300.646
300.977
301.324
298.649
298.747
298.843
298.937
299.027
299.111
299.19
299.26
299.323
299.378
299.424
299.462
299.493
299.516
299.532
299.543
299.548
299.548
299.545
299.538
299.528
299.517
299.503
299.488
299.472
299.456
299.439
299.423
299.406
299.391
299.375
299.361
299.347
299.334
299.322
299.311
299.301
299.293
299.285
299.279
299.273
299.268
299.265
299.262
299.26
299.259
299.259
299.259
299.26
299.262
299.264
299.266
299.269
299.272
299.275
299.278
299.282
299.285
299.289
299.293
299.296
299.3
299.303
299.306
299.309
299.312
299.315
299.318
299.321
299.323
299.325
299.327
299.329
299.331
299.334
299.336
299.338
299.339
299.341
299.342
299.344
299.346
299.348
299.35
299.354
299.359
299.367
299.38
299.398
299.427
299.469
299.53
299.617
299.737
299.898
300.105
300.36
300.657
300.984
301.327
298.651
298.753
298.854
298.952
299.045
299.133
299.215
299.288
299.353
299.409
299.456
299.495
299.526
299.549
299.565
299.574
299.579
299.578
299.574
299.567
299.556
299.544
299.529
299.514
299.498
299.481
299.464
299.447
299.431
299.415
299.399
299.384
299.37
299.357
299.344
299.333
299.323
299.313
299.305
299.298
299.292
299.286
299.282
299.279
299.277
299.275
299.274
299.274
299.274
299.275
299.277
299.279
299.281
299.284
299.287
299.29
299.293
299.296
299.3
299.303
299.307
299.31
299.313
299.317
299.32
299.323
299.326
299.329
299.331
299.334
299.336
299.338
299.34
299.342
299.344
299.347
299.349
299.35
299.352
299.353
299.355
299.356
299.358
299.361
299.364
299.369
299.377
299.39
299.409
299.437
299.48
299.541
299.629
299.75
299.912
300.119
300.373
300.667
300.991
301.329
298.653
298.76
298.864
298.966
299.063
299.155
299.239
299.314
299.381
299.438
299.486
299.526
299.556
299.579
299.594
299.603
299.607
299.605
299.6
299.592
299.581
299.568
299.553
299.536
299.52
299.503
299.486
299.47
299.453
299.437
299.421
299.406
299.392
299.378
299.366
299.354
299.343
299.334
299.325
299.317
299.31
299.305
299.3
299.296
299.293
299.291
299.29
299.289
299.289
299.289
299.29
299.292
299.294
299.296
299.299
299.302
299.305
299.308
299.311
299.314
299.318
299.321
299.324
299.328
299.331
299.334
299.337
299.34
299.342
299.345
299.347
299.349
299.351
299.353
299.355
299.358
299.36
299.362
299.363
299.365
299.366
299.368
299.369
299.372
299.375
299.38
299.388
299.4
299.419
299.448
299.491
299.553
299.642
299.764
299.926
300.133
300.386
300.678
300.997
301.331
298.655
298.766
298.874
298.98
299.081
299.175
299.262
299.34
299.408
299.466
299.515
299.554
299.584
299.606
299.621
299.629
299.632
299.629
299.623
299.614
299.602
299.589
299.573
299.556
299.54
299.523
299.506
299.489
299.473
299.457
299.441
299.426
299.412
299.399
299.386
299.374
299.363
299.353
299.344
299.336
299.329
299.323
299.318
299.313
299.31
299.307
299.305
299.304
299.304
299.304
299.305
299.306
299.307
299.309
299.312
299.314
299.317
299.32
299.323
299.326
299.329
299.333
299.336
299.339
299.342
299.345
299.348
299.351
299.354
299.357
299.359
299.361
299.363
299.366
299.367
299.369
299.372
299.374
299.376
299.377
299.378
299.38
299.381
299.384
299.387
299.392
299.399
299.412
299.431
299.46
299.503
299.566
299.655
299.778
299.94
300.147
300.398
300.688
301.004
301.334
298.657
298.772
298.884
298.993
299.097
299.195
299.284
299.364
299.433
299.492
299.541
299.581
299.61
299.632
299.645
299.652
299.654
299.65
299.643
299.633
299.62
299.606
299.59
299.573
299.557
299.54
299.524
299.507
299.491
299.475
299.46
299.445
299.431
299.417
299.405
299.393
299.382
299.372
299.363
299.355
299.347
299.341
299.335
299.331
299.327
299.324
299.321
299.32
299.319
299.319
299.319
299.32
299.321
299.323
299.325
299.327
299.33
299.332
299.335
299.338
299.342
299.345
299.348
299.351
299.354
299.357
299.361
299.363
299.366
299.369
299.372
299.374
299.376
299.378
299.38
299.382
299.384
299.387
299.389
299.39
299.391
299.393
299.394
299.396
299.399
299.404
299.411
299.424
299.443
299.472
299.515
299.579
299.668
299.792
299.954
300.161
300.411
300.697
301.01
301.336
298.659
298.777
298.893
299.006
299.113
299.214
299.305
299.386
299.457
299.517
299.566
299.605
299.634
299.655
299.667
299.673
299.673
299.668
299.66
299.649
299.636
299.621
299.605
299.588
299.572
299.555
299.539
299.522
299.506
299.491
299.476
299.462
299.448
299.435
299.422
299.411
299.4
299.39
299.381
299.372
299.365
299.358
299.352
299.347
299.343
299.34
299.337
299.335
299.334
299.334
299.334
299.334
299.335
299.337
299.338
299.341
299.343
299.346
299.348
299.351
299.354
299.358
299.361
299.364
299.367
299.37
299.373
299.377
299.38
299.382
299.385
299.388
299.39
299.392
299.395
299.396
299.398
299.4
299.402
299.404
299.406
299.407
299.408
299.41
299.412
299.416
299.424
299.436
299.455
299.484
299.528
299.592
299.682
299.806
299.969
300.175
300.423
300.707
301.016
301.338
298.661
298.783
298.902
299.018
299.129
299.232
299.325
299.408
299.48
299.54
299.589
299.627
299.656
299.675
299.686
299.691
299.69
299.684
299.674
299.662
299.649
299.634
299.617
299.6
299.584
299.568
299.552
299.536
299.52
299.505
299.491
299.477
299.463
299.45
299.438
299.427
299.416
299.406
299.397
299.389
299.381
299.375
299.369
299.364
299.359
299.356
299.353
299.351
299.35
299.349
299.349
299.349
299.35
299.351
299.353
299.355
299.357
299.359
299.362
299.365
299.368
299.371
299.374
299.378
299.381
299.384
299.387
299.391
299.394
299.397
299.4
299.403
299.405
299.408
299.41
299.412
299.413
299.415
299.416
299.418
299.42
299.421
299.422
299.423
299.425
299.43
299.438
299.45
299.468
299.498
299.541
299.606
299.696
299.82
299.983
300.188
300.435
300.717
301.023
301.34
298.663
298.788
298.911
299.03
299.144
299.249
299.344
299.429
299.501
299.562
299.61
299.648
299.676
299.694
299.704
299.707
299.705
299.697
299.686
299.673
299.659
299.643
299.627
299.611
299.595
299.579
299.563
299.547
299.532
299.516
299.503
299.49
299.477
299.464
299.453
299.442
299.431
299.422
299.413
299.405
299.397
299.391
299.385
299.38
299.375
299.372
299.369
299.367
299.365
299.364
299.364
299.364
299.365
299.366
299.367
299.369
299.371
299.374
299.376
299.379
299.382
299.386
299.389
299.392
299.396
299.399
299.402
299.406
299.409
299.412
299.416
299.419
299.422
299.424
299.427
299.428
299.43
299.431
299.432
299.434
299.435
299.436
299.436
299.438
299.44
299.445
299.452
299.464
299.482
299.511
299.555
299.62
299.711
299.835
299.998
300.202
300.447
300.726
301.029
301.342
298.664
298.793
298.919
299.042
299.158
299.266
299.363
299.448
299.521
299.582
299.63
299.667
299.693
299.71
299.719
299.721
299.717
299.708
299.696
299.683
299.669
299.653
299.637
299.621
299.605
299.589
299.574
299.558
299.543
299.528
299.515
299.502
299.49
299.477
299.466
299.456
299.445
299.436
299.427
299.419
299.412
299.406
299.4
299.395
299.391
299.387
299.384
299.382
299.381
299.38
299.379
299.379
299.38
299.381
299.383
299.384
299.387
299.389
299.392
299.395
299.398
299.401
299.404
299.408
299.411
299.415
299.419
299.422
299.426
299.43
299.433
299.437
299.44
299.443
299.445
299.447
299.448
299.449
299.45
299.451
299.452
299.452
299.453
299.455
299.457
299.461
299.468
299.479
299.497
299.526
299.57
299.634
299.726
299.85
300.012
300.216
300.459
300.736
301.035
301.344
298.666
298.798
298.927
299.053
299.172
299.281
299.38
299.466
299.54
299.6
299.648
299.684
299.709
299.726
299.733
299.733
299.727
299.717
299.706
299.693
299.679
299.662
299.646
299.629
299.613
299.598
299.582
299.567
299.552
299.538
299.525
299.513
299.502
299.49
299.479
299.468
299.458
299.45
299.441
299.433
299.427
299.42
299.415
299.41
299.406
299.403
299.4
299.398
299.396
299.395
299.395
299.395
299.396
299.397
299.399
299.4
299.403
299.405
299.408
299.411
299.414
299.418
299.421
299.425
299.429
299.433
299.437
299.44
299.444
299.448
299.452
299.457
299.46
299.462
299.464
299.466
299.468
299.469
299.47
299.471
299.471
299.471
299.472
299.473
299.475
299.478
299.484
299.495
299.513
299.541
299.585
299.65
299.741
299.865
300.027
300.23
300.472
300.745
301.04
301.346
298.668
298.802
298.935
299.063
299.185
299.296
299.397
299.484
299.557
299.617
299.664
299.698
299.725
299.741
299.745
299.743
299.737
299.727
299.715
299.701
299.687
299.67
299.654
299.637
299.621
299.605
299.59
299.575
299.561
299.547
299.535
299.523
299.512
299.5
299.489
299.48
299.471
299.463
299.454
299.446
299.441
299.435
299.429
299.425
299.421
299.418
299.416
299.414
299.412
299.412
299.411
299.412
299.413
299.414
299.415
299.418
299.42
299.423
299.426
299.429
299.432
299.436
299.44
299.444
299.448
299.452
299.456
299.46
299.465
299.469
299.474
299.478
299.481
299.483
299.485
299.488
299.489
299.491
299.492
299.492
299.492
299.492
299.492
299.492
299.494
299.496
299.502
299.512
299.529
299.557
299.601
299.665
299.756
299.881
300.042
300.244
300.484
300.755
301.046
301.348
298.669
298.807
298.942
299.073
299.197
299.311
299.412
299.5
299.574
299.632
299.678
299.715
299.74
299.752
299.755
299.752
299.746
299.736
299.723
299.709
299.694
299.678
299.661
299.644
299.628
299.613
299.597
299.583
299.569
299.556
299.544
299.532
299.521
299.511
299.501
299.491
299.483
299.475
299.467
299.461
299.455
299.449
299.444
299.44
299.436
299.434
299.431
299.43
299.429
299.428
299.429
299.429
299.43
299.432
299.433
299.436
299.438
299.441
299.444
299.448
299.452
299.456
299.46
299.464
299.468
299.473
299.477
299.482
299.487
299.492
299.497
299.501
299.503
299.506
299.508
299.51
299.513
299.514
299.515
299.515
299.515
299.514
299.514
299.513
299.514
299.515
299.52
299.529
299.546
299.574
299.617
299.681
299.772
299.896
300.058
300.258
300.496
300.764
301.052
301.35
298.67
298.811
298.95
299.083
299.209
299.325
299.427
299.516
299.589
299.646
299.694
299.731
299.752
299.761
299.764
299.762
299.755
299.744
299.731
299.717
299.701
299.685
299.668
299.651
299.635
299.62
299.605
299.591
299.577
299.565
299.553
299.542
299.531
299.521
299.511
299.503
299.495
299.487
299.48
299.474
299.468
299.463
299.459
299.456
299.452
299.45
299.448
299.447
299.446
299.446
299.446
299.447
299.449
299.45
299.453
299.455
299.458
299.461
299.465
299.469
299.473
299.477
299.481
299.486
299.491
299.496
299.501
299.506
299.512
299.517
299.522
299.524
299.527
299.529
299.532
299.535
299.538
299.539
299.54
299.54
299.539
299.538
299.537
299.535
299.535
299.535
299.539
299.548
299.564
299.591
299.634
299.698
299.789
299.912
300.073
300.272
300.508
300.773
301.058
301.352
298.672
298.815
298.957
299.093
299.221
299.338
299.441
299.53
299.603
299.66
299.711
299.742
299.76
299.771
299.774
299.771
299.764
299.753
299.739
299.725
299.709
299.692
299.675
299.659
299.643
299.627
299.613
299.599
299.586
299.574
299.562
299.551
299.541
299.532
299.523
299.515
299.507
299.5
299.494
299.488
299.483
299.479
299.475
299.471
299.469
299.467
299.466
299.464
299.464
299.465
299.465
299.467
299.468
299.47
299.473
299.476
299.479
299.483
299.487
299.491
299.495
299.5
299.505
299.51
299.515
299.521
299.526
299.532
299.538
299.543
299.545
299.548
299.551
299.555
299.559
299.562
299.565
299.566
299.567
299.566
299.565
299.563
299.561
299.558
299.557
299.557
299.559
299.567
299.582
299.609
299.651
299.715
299.806
299.929
300.089
300.287
300.52
300.783
301.064
301.354
298.673
298.819
298.963
299.102
299.232
299.351
299.455
299.543
299.615
299.678
299.723
299.751
299.771
299.782
299.784
299.781
299.772
299.761
299.748
299.733
299.717
299.7
299.683
299.667
299.651
299.636
299.621
299.608
299.595
299.583
299.572
299.562
299.552
299.543
299.535
299.527
299.52
299.514
299.508
299.503
299.498
299.495
299.491
299.488
299.486
299.485
299.484
299.484
299.484
299.484
299.485
299.487
299.489
299.492
299.495
299.498
299.502
299.506
299.51
299.515
299.519
299.525
299.53
299.535
299.541
299.547
299.554
299.56
299.565
299.567
299.57
299.574
299.579
299.583
299.588
299.591
299.594
299.595
299.595
299.594
299.592
299.589
299.586
299.582
299.58
299.579
299.58
299.587
299.601
299.627
299.669
299.732
299.823
299.945
300.104
300.301
300.532
300.792
301.07
301.356
298.675
298.823
298.97
299.111
299.243
299.363
299.468
299.555
299.63
299.69
299.732
299.762
299.782
299.792
299.794
299.79
299.781
299.77
299.757
299.742
299.726
299.709
299.692
299.676
299.66
299.645
299.631
299.618
299.606
299.594
299.584
299.574
299.564
299.556
299.548
299.541
299.535
299.529
299.524
299.519
299.515
299.512
299.509
299.507
299.505
299.504
299.504
299.504
299.504
299.506
299.507
299.509
299.512
299.515
299.518
299.522
299.526
299.53
299.535
299.54
299.545
299.551
299.557
299.563
299.569
299.576
299.582
299.586
299.589
299.593
299.597
299.603
299.608
299.614
299.618
299.621
299.624
299.625
299.625
299.623
299.621
299.617
299.612
299.608
299.604
299.601
299.602
299.608
299.621
299.646
299.688
299.75
299.84
299.962
300.12
300.315
300.545
300.801
301.076
301.358
298.676
298.827
298.977
299.12
299.254
299.376
299.481
299.566
299.645
299.701
299.742
299.773
299.793
299.802
299.804
299.799
299.791
299.779
299.766
299.752
299.736
299.718
299.702
299.686
299.67
299.656
299.642
299.63
299.618
299.607
299.596
299.587
299.578
299.57
299.563
299.557
299.551
299.546
299.541
299.537
299.533
299.531
299.528
299.527
299.526
299.525
299.525
299.525
299.526
299.528
299.53
299.533
299.536
299.539
299.543
299.547
299.551
299.556
299.561
299.567
299.572
299.579
299.585
299.592
299.599
299.604
299.607
299.611
299.615
299.62
299.627
299.633
299.639
299.644
299.648
299.652
299.654
299.655
299.655
299.653
299.65
299.645
299.639
299.634
299.629
299.625
299.624
299.629
299.641
299.666
299.707
299.769
299.858
299.979
300.136
300.33
300.557
300.811
301.082
301.36
298.677
298.831
298.983
299.129
299.265
299.388
299.492
299.581
299.656
299.711
299.755
299.785
299.803
299.812
299.814
299.809
299.801
299.789
299.777
299.762
299.746
299.729
299.712
299.697
299.682
299.668
299.655
299.643
299.631
299.621
299.611
299.602
299.594
299.587
299.58
299.574
299.569
299.564
299.56
299.556
299.553
299.551
299.549
299.548
299.547
299.547
299.548
299.549
299.55
299.552
299.554
299.557
299.561
299.565
299.569
299.573
299.578
299.583
299.589
299.595
299.601
299.608
299.614
299.62
299.625
299.628
299.632
299.637
299.643
299.65
299.658
299.664
299.67
299.674
299.679
299.682
299.684
299.685
299.685
299.683
299.68
299.674
299.667
299.661
299.654
299.649
299.647
299.651
299.662
299.686
299.726
299.787
299.876
299.997
300.153
300.345
300.57
300.82
301.087
301.362
298.679
298.835
298.99
299.138
299.276
299.399
299.502
299.596
299.665
299.723
299.767
299.796
299.814
299.823
299.824
299.82
299.811
299.801
299.788
299.774
299.756
299.74
299.724
299.709
299.695
299.681
299.669
299.657
299.646
299.637
299.627
299.619
299.612
299.605
299.599
299.593
299.588
299.584
299.581
299.578
299.575
299.573
299.572
299.571
299.571
299.571
299.572
299.573
299.575
299.577
299.58
299.583
299.587
299.591
299.595
299.601
299.606
299.611
299.617
299.623
299.63
299.636
299.641
299.645
299.648
299.652
299.659
299.666
299.674
299.682
299.688
299.694
299.699
299.704
299.708
299.711
299.712
299.714
299.713
299.712
299.709
299.704
299.696
299.688
299.68
299.674
299.671
299.673
299.684
299.706
299.746
299.807
299.895
300.015
300.169
300.36
300.582
300.83
301.092
301.364
298.68
298.839
298.996
299.147
299.287
299.411
299.514
299.609
299.676
299.736
299.779
299.808
299.826
299.834
299.835
299.831
299.823
299.813
299.801
299.785
299.768
299.753
299.738
299.723
299.709
299.696
299.684
299.673
299.663
299.654
299.646
299.638
299.631
299.625
299.619
299.614
299.61
299.606
299.603
299.601
299.599
299.597
299.596
299.596
299.596
299.596
299.598
299.599
299.601
299.604
299.607
299.61
299.614
299.618
299.623
299.628
299.634
299.64
299.646
299.652
299.657
299.66
299.663
299.667
299.673
299.68
299.688
299.697
299.704
299.711
299.716
299.722
299.728
299.732
299.735
299.738
299.74
299.741
299.742
299.741
299.738
299.732
299.725
299.716
299.707
299.699
299.695
299.696
299.706
299.727
299.766
299.826
299.914
300.033
300.186
300.375
300.595
300.84
301.097
301.365
298.681
298.843
299.003
299.156
299.298
299.421
299.528
299.618
299.69
299.748
299.791
299.82
299.837
299.845
299.846
299.842
299.834
299.825
299.813
299.797
299.782
299.766
299.752
299.738
299.725
299.713
299.701
299.691
299.682
299.673
299.666
299.659
299.652
299.647
299.642
299.638
299.634
299.63
299.628
299.626
299.624
299.623
299.622
299.622
299.622
299.623
299.624
299.626
299.628
299.631
299.634
299.638
299.642
299.647
299.652
299.657
299.663
299.668
299.673
299.676
299.678
299.682
299.688
299.694
299.702
299.71
299.718
299.726
299.732
299.737
299.743
299.749
299.754
299.759
299.762
299.765
299.768
299.769
299.769
299.768
299.766
299.761
299.753
299.743
299.733
299.725
299.719
299.719
299.728
299.749
299.786
299.846
299.933
300.051
300.203
300.391
300.609
300.849
301.102
301.367
298.683
298.847
299.01
299.166
299.309
299.43
299.544
299.629
299.703
299.761
299.803
299.832
299.849
299.857