/*--------------------------------*- C++ -*----------------------------------*\
  =========                 |
  \\      /  F ield         | OpenFOAM: The Open Source CFD Toolbox
   \\    /   O peration     | Website:  https://openfoam.org
    \\  /    A nd           | Version:  6
     \\/     M anipulation  |
\*---------------------------------------------------------------------------*/
FoamFile
{
    version     2.0;
    format      ascii;
    class       volScalarField;
    location    "0";
    object      p;
}
// * * * * * * * * * * * * * * * * * * * * * * * * * * * * * * * * * * * * * //

dimensions      [0 2 -2 0 0 0 0];

internalField   nonuniform List<scalar> 
13046
(
-0.0458384
-0.0466935
-0.0324298
-0.0394471
-0.0371233
-0.0484856
-0.0481258
-0.0438645
-0.0332232
-0.1081
-0.209558
-0.0524342
-0.0481953
-0.0667314
-0.0382713
-0.0943782
-0.0512887
-0.182303
-0.0343729
-0.0372505
-0.0424557
-0.0958426
-0.050703
-0.187305
-0.0447591
-0.0354143
-0.0358084
-0.0534819
-0.0611401
-0.0350877
-0.0425095
-0.0599955
-0.0374557
-0.0388152
-0.0337656
-0.0420134
-0.0395574
-0.0327602
-0.0387378
-0.0447732
-0.0355237
-0.0569543
-0.0396894
-0.0307721
-0.0367303
-0.0390017
-0.0381347
-0.0354341
-0.0496418
-0.047796
-0.0321704
-0.052688
-0.0461452
-0.0714143
-0.0412611
-0.0778354
-0.043415
-0.122485
-0.0666266
-0.0466643
-0.0656924
-0.0751603
-0.0416387
-0.0481129
-0.142725
-0.0858423
-0.0637594
-0.115924
-0.0489425
-0.0602929
-0.110939
-0.0483889
-0.133256
-0.069498
-0.0471566
-0.0337692
-0.0287447
-0.0486641
-0.0458769
-0.0766746
-0.136869
-0.0464189
-0.0386484
-0.0372207
-0.0491338
-0.155417
-0.0918254
-0.0921807
-0.0479213
-0.131371
-0.0504966
-0.10276
-0.135583
-0.0655791
-0.0697147
-0.0898355
-0.0974368
-0.04308
-0.0421329
-0.0472491
-0.0923712
-0.122573
-0.0378681
-0.0370467
-0.0375768
-0.0376459
-0.0718587
-0.0398984
-0.0451832
-0.0370126
-0.0644032
-0.128644
-0.0552644
-0.273489
-0.0473804
-0.0582364
-0.0396697
-0.0697956
-0.0666984
-0.108352
-0.0440995
-0.0942891
-0.043693
-0.112307
-0.226777
-0.0531128
-0.0552124
-0.0885628
-0.037433
-0.0461385
-0.0368407
-0.0579787
-0.0504535
-0.0999265
-0.116023
-0.0764642
-0.112565
-0.0453418
-0.0450681
-0.0617891
-0.0394129
-0.0579598
-0.0417817
-0.038868
-0.0472111
-0.0449657
-0.0613452
-0.0390012
-0.0639515
-0.0324235
-0.0657361
-0.0859263
-0.0431122
-0.0332107
-0.0567469
-0.0408814
-0.056955
-0.0776085
-0.061772
-0.0786816
-0.0438136
-0.0436551
-0.0534959
-0.0593941
-0.043021
-0.10945
-0.0527742
-0.204087
-0.121418
-0.0547141
-0.257375
-0.0783545
-0.123856
-0.0452186
-0.0462231
-0.0774582
-0.0385742
-0.0533459
-0.043121
-0.0543221
-0.0507461
-0.184641
-0.107426
-0.0464244
-0.069827
-0.0430827
-0.034262
-0.061574
-0.0438418
-0.0544468
-0.0432525
-0.039849
-0.0696735
-0.0363076
-0.0549788
-0.0766249
-0.0394231
-0.0939934
-0.04941
-0.149561
-0.0483623
-0.092996
-0.114496
-0.102164
-0.136372
-0.0513377
-0.0571272
-0.0798463
-0.049708
-0.051533
-0.076258
-0.0486
-0.136594
-0.155438
-0.10259
-0.0514684
-0.0416723
-0.0332821
-0.0386869
-0.0520008
-0.0564504
-0.0362553
-0.048024
-0.0965747
-0.108858
-0.0546234
-0.0648777
-0.0346984
-0.0542574
-0.235195
-0.120362
-0.0490297
-0.0796261
-0.0605583
-0.0974486
-0.123421
-0.0491239
-0.0698422
-0.0583181
-0.0405747
-0.0581887
-0.0788635
-0.0367553
-0.0892906
-0.0917055
-0.0503593
-0.0825163
-0.0692464
-0.0464312
-0.0542172
-0.235895
-0.125038
-0.0428189
-0.0359769
-0.0719512
-0.119986
-0.0569211
-0.297813
-0.0368377
-0.0401687
-0.0396902
-0.0666513
-0.0662712
-0.0591812
-0.0562417
-0.039076
-0.0426892
-0.0502798
-0.080492
-0.152034
-0.0554939
-0.0727486
-0.0396895
-0.0825837
-0.0847496
-0.0462272
-0.0746246
-0.108617
-0.0443492
-0.0376829
-0.0415707
-0.0311826
-0.0733754
-0.064367
-0.0433901
-0.0545622
-0.0835242
-0.0397214
-0.0545532
-0.0551663
-0.0419637
-0.0413179
-0.0797438
-0.0736681
-0.0734897
-0.044168
-0.0803846
-0.0451756
-0.113087
-0.0391346
-0.041021
-0.0667132
-0.0441656
-0.0818744
-0.0637792
-0.0652719
-0.101272
-0.0451959
-0.0457051
-0.0515999
-0.0743041
-0.0697368
-0.0709652
-0.106344
-0.0456916
-0.11294
-0.0441902
-0.0503873
-0.174111
-0.104101
-0.0644319
-0.0857788
-0.0413168
-0.328228
-0.0578276
-0.135667
-0.0431176
-0.040381
-0.0481873
-0.0614887
-0.0696329
-0.0406664
-0.047537
-0.0895052
-0.134267
-0.0444096
-0.0828329
-0.0443868
-0.100198
-0.0925099
-0.0496328
-0.0505925
-0.036475
-0.0660682
-0.0697671
-0.0396855
-0.0595151
-0.0369525
-0.0885851
-0.0503566
-0.168509
-0.0508529
-0.0872471
-0.0483641
-0.0698866
-0.0744024
-0.0414646
-0.0594135
-0.0494504
-0.0379171
-0.0665564
-0.0510409
-0.0419614
-0.0437587
-0.050494
-0.0347439
-0.0477548
-0.0780578
-0.0601008
-0.09824
-0.144377
-0.0496304
-0.0933187
-0.0944478
-0.0475849
-0.0590066
-0.0498452
-0.0937027
-0.0736658
-0.0708271
-0.115461
-0.12751
-0.04954
-0.0472747
-0.0570463
-0.314957
-0.131561
-0.116421
-0.0565723
-0.287127
-0.0685879
-0.0615661
-0.0449143
-0.0505019
-0.0954948
-0.163979
-0.0623435
-0.0634003
-0.0958343
-0.106291
-0.0427089
-0.0455994
-0.0537618
-0.173157
-0.114322
-0.1238
-0.0576963
-0.312677
-0.0444879
-0.0347429
-0.0338449
-0.127216
-0.292436
-0.0559796
-0.0487215
-0.077846
-0.0429007
-0.105971
-0.177319
-0.0509758
-0.31291
-0.055638
-0.151647
-0.04334
-0.0378104
-0.0538852
-0.0470569
-0.0305915
-0.0360287
-0.10958
-0.0534877
-0.231428
-0.0499803
-0.0355345
-0.036918
-0.0426518
-0.0344392
-0.0331311
-0.0458933
-0.087339
-0.0555487
-0.0515156
-0.029901
-0.0365376
-0.041086
-0.0492168
-0.0415232
-0.0564488
-0.0888269
-0.0494208
-0.0505835
-0.0504115
-0.190272
-0.193225
-0.101295
-0.102119
-0.104776
-0.150448
-0.0499507
-0.0443033
-0.0589947
-0.107268
-0.0469428
-0.0429981
-0.0641299
-0.0828804
-0.0749726
-0.0498655
-0.265887
-0.0559102
-0.143959
-0.0507653
-0.104312
-0.144797
-0.118928
-0.053995
-0.241304
-0.0558898
-0.328668
-0.150968
-0.355786
-0.0571994
-0.14054
-0.0788477
-0.0762916
-0.0456161
-0.206328
-0.0550949
-0.127393
-0.0812311
-0.112589
-0.045327
-0.0991172
-0.0542798
-0.217239
-0.0495659
-0.0371247
-0.0418344
-0.161665
-0.0525672
-0.110389
-0.0821512
-0.049658
-0.0723184
-0.0882736
-0.0828332
-0.0451426
-0.0560009
-0.404489
-0.163111
-0.305892
-0.0564501
-0.143437
-0.0459027
-0.0354367
-0.0463613
-0.177032
-0.116129
-0.0524777
-0.053236
-0.120551
-0.181868
-0.0965437
-0.0497951
-0.161083
-0.0493358
-0.147856
-0.0838678
-0.0528876
-0.0935879
-0.0467326
-0.115696
-0.0664994
-0.0434816
-0.0504711
-0.0865055
-0.178321
-0.0511541
-0.0528339
-0.0724698
-0.0778617
-0.0396668
-0.0382515
-0.0497471
-0.0696746
-0.0394708
-0.0588568
-0.102613
-0.0411066
-0.0885156
-0.0894399
-0.0471821
-0.161006
-0.10325
-0.0501757
-0.0482008
-0.088037
-0.101786
-0.355236
-0.0580738
-0.134851
-0.0406113
-0.0420673
-0.0342686
-0.0581701
-0.0318645
-0.0533554
-0.0532635
-0.0561123
-0.0424292
-0.0956403
-0.0426598
-0.077061
-0.307463
-0.0570463
-0.149004
-0.170679
-0.112511
-0.0518694
-0.0489668
-0.0502187
-0.0728645
-0.0813881
-0.0893279
-0.0489464
-0.0488137
-0.141896
-0.0807178
-0.270779
-0.132449
-0.0553837
-0.252231
-0.130781
-0.0549102
-0.0622243
-0.0999297
-0.0412917
-0.0387217
-0.0456998
-0.0624648
-0.0992815
-0.0509122
-0.179156
-0.0848207
-0.0815748
-0.0437114
-0.0458057
-0.1325
-0.0815867
-0.0540369
-0.0402025
-0.0751808
-0.06655
-0.0564997
-0.0428362
-0.0436649
-0.0377201
-0.0624253
-0.0512521
-0.185198
-0.104086
-0.0744172
-0.114325
-0.0447606
-0.0407209
-0.0361084
-0.0540888
-0.0916721
-0.0523295
-0.192473
-0.0497337
-0.0570239
-0.0351767
-0.0511472
-0.049883
-0.0369978
-0.0796267
-0.0794426
-0.0455
-0.111078
-0.0550634
-0.258501
-0.107215
-0.0551883
-0.250332
-0.0463484
-0.137829
-0.0815012
-0.0711978
-0.0491575
-0.0448474
-0.0560803
-0.279634
-0.117772
-0.0472799
-0.126013
-0.08491
-0.056887
-0.345353
-0.154131
-0.145952
-0.3663
-0.0571662
-0.0492893
-0.169964
-0.085741
-0.053046
-0.212166
-0.11401
-0.0939346
-0.0907295
-0.0511825
-0.178541
-0.04959
-0.161388
-0.0882286
-0.117896
-0.0468766
-0.0457862
-0.0761464
-0.0919124
-0.0386037
-0.0363301
-0.0519874
-0.0846894
-0.108913
-0.0463337
-0.0462902
-0.082715
-0.103631
-0.0825967
-0.0503359
-0.170858
-0.0546424
-0.102482
-0.0431742
-0.0520976
-0.080585
-0.0458539
-0.0760589
-0.0834945
-0.0416665
-0.0773919
-0.0879
-0.0430961
-0.0401809
-0.0418781
-0.0488896
-0.0528111
-0.0846226
-0.0356702
-0.0522815
-0.155352
-0.1124
-0.133488
-0.0553465
-0.249147
-0.139332
-0.0548596
-0.247341
-0.0464971
-0.036824
-0.0644263
-0.283998
-0.055792
-0.138864
-0.0772339
-0.0458181
-0.129438
-0.0557088
-0.27944
-0.145527
-0.0393928
-0.0367776
-0.0452317
-0.0568853
-0.0637923
-0.0388417
-0.0515704
-0.0705871
-0.0444572
-0.0547678
-0.19729
-0.121986
-0.0899362
-0.0791184
-0.0454341
-0.0527599
-0.0948373
-0.199179
-0.0628793
-0.0695352
-0.0375546
-0.037199
-0.0340507
-0.0513739
-0.198328
-0.118633
-0.0533811
-0.0465726
-0.134082
-0.0856864
-0.112245
-0.116412
-0.0547856
-0.0554845
-0.249784
-0.264185
-0.0621339
-0.0561259
-0.0390977
-0.074101
-0.0728697
-0.0456738
-0.0510557
-0.0454288
-0.0331185
-0.228265
-0.128828
-0.224133
-0.0545108
-0.128788
-0.0553565
-0.0692078
-0.0929021
-0.0410288
-0.118836
-0.123913
-0.207124
-0.220729
-0.0531977
-0.054094
-0.0737798
-0.0669706
-0.0405154
-0.0572327
-0.0571465
-0.0383808
-0.102821
-0.0536918
-0.22778
-0.0569167
-0.067932
-0.040502
-0.0505186
-0.0553331
-0.0378395
-0.112233
-0.0544665
-0.244899
-0.0606392
-0.0871881
-0.0423403
-0.060455
-0.0888374
-0.0483147
-0.0521928
-0.0861527
-0.0425896
-0.105143
-0.0512367
-0.0999397
-0.0565346
-0.384295
-0.156819
-0.0629176
-0.0668743
-0.0398274
-0.0995657
-0.0526858
-0.204426
-0.0488129
-0.0918172
-0.0507039
-0.138345
-0.0569052
-0.332666
-0.0381392
-0.0419375
-0.0443373
-0.0573387
-0.0408145
-0.0581895
-0.0478319
-0.0468358
-0.0359428
-0.0428951
-0.037815
-0.0399919
-0.0520733
-0.030849
-0.0584728
-0.0601635
-0.0563756
-0.0357314
-0.0556145
-0.0541924
-0.0364333
-0.055664
-0.238452
-0.136226
-0.0481039
-0.0644053
-0.041184
-0.114095
-0.201248
-0.0523199
-0.0766472
-0.0796396
-0.0920231
-0.103883
-0.0439314
-0.0458169
-0.0496636
-0.052498
-0.0376934
-0.0594297
-0.0906228
-0.0439967
-0.0691432
-0.0816108
-0.0401555
-0.0381969
-0.0419869
-0.0371231
-0.0807773
-0.101986
-0.0454587
-0.0419025
-0.0392744
-0.0474209
-0.069061
-0.0706275
-0.040912
-0.0602416
-0.0823552
-0.0436844
-0.0388257
-0.039105
-0.046314
-0.0319955
-0.0454179
-0.0339185
-0.0405038
-0.0434529
-0.0362716
-0.0467909
-0.0261718
-0.0558223
-0.0502377
-0.0518464
-0.067436
-0.0688655
-0.0369991
-0.0403966
-0.0487152
-0.146416
-0.0816156
-0.0488011
-0.0827891
-0.058462
-0.0481277
-0.0477307
-0.156339
-0.151812
-0.0857313
-0.0868784
-0.0470647
-0.0451622
-0.0788561
-0.0372284
-0.0350821
-0.0390814
-0.0812936
-0.110965
-0.0459361
-0.0425057
-0.0369953
-0.0610394
-0.0615772
-0.0865604
-0.0435773
-0.0742488
-0.0738204
-0.133548
-0.0460896
-0.126977
-0.045814
-0.073833
-0.0969107
-0.043842
-0.134018
-0.317452
-0.0564114
-0.0517535
-0.0853841
-0.0505885
-0.0528575
-0.0510385
-0.0480682
-0.0874353
-0.0409634
-0.0843351
-0.0850937
-0.0960157
-0.046979
-0.0581702
-0.0829219
-0.0416687
-0.0470476
-0.049413
-0.0824242
-0.05253
-0.0486276
-0.046779
-0.0366681
-0.0705794
-0.0779181
-0.0524448
-0.0401057
-0.0797492
-0.0730257
-0.0921617
-0.0423943
-0.0403563
-0.0380594
-0.0460753
-0.105959
-0.0534618
-0.219922
-0.047652
-0.0465798
-0.0871282
-0.0591914
-0.0622228
-0.0888872
-0.0931632
-0.0443862
-0.0411272
-0.0523658
-0.206197
-0.102195
-0.102618
-0.0531291
-0.221448
-0.106905
-0.0537466
-0.229486
-0.0774255
-0.0465298
-0.133748
-0.055988
-0.0769249
-0.0407693
-0.178149
-0.198703
-0.0825327
-0.175438
-0.128126
-0.246948
-0.165855
-0.15374
-0.26249
-0.138027
-0.140254
-0.285023
-0.190787
-0.136244
-0.235344
-0.208701
-0.172196
-0.238799
-0.208467
-0.165081
-0.211394
-0.23804
-0.126875
-0.0550354
-0.0804268
-0.191708
-0.119632
-0.289856
-0.194393
-0.194992
-0.286002
-0.171175
-0.211092
-0.221789
-0.280578
-0.206035
-0.0969722
-0.129152
-0.173568
-0.130774
-0.251293
-0.0590843
-0.266607
-0.137234
-0.0866069
-0.262787
-0.255913
-0.278802
-0.28057
-0.27367
-0.0762879
-0.209288
-0.207584
-0.277257
-0.282377
-0.0813445
-0.164864
-0.207524
-0.289943
-0.143199
-0.277247
-0.262456
-0.080043
-0.146115
-0.212479
-0.162787
-0.199549
-0.0547841
-0.127844
-0.10153
-0.326709
-0.301207
-0.216666
-0.151569
-0.307993
-0.221747
-0.178873
-0.286281
-0.145334
-0.106935
-0.233676
-0.221271
-0.271822
-0.228234
-0.268672
-0.138682
-0.266108
-0.179789
-0.238604
-0.0709699
-0.218076
-0.146334
-0.0799084
-0.218877
-0.197743
-0.291337
-0.269225
-0.278307
-0.197137
-0.32823
-0.173287
-0.12437
-0.0782001
-0.0523603
-0.218804
-0.18193
-0.285343
-0.210736
-0.268943
-0.0988999
-0.120723
-0.163824
-0.257539
-0.313914
-0.124508
-0.0936501
-0.248969
-0.179912
-0.32027
-0.242591
-0.226705
-0.0583785
-0.0577996
-0.149472
-0.193633
-0.2075
-0.286323
-0.0634727
-0.192918
-0.15333
-0.333509
-0.0735997
-0.27077
-0.205854
-0.186519
-0.108818
-0.228435
-0.337356
-0.25546
-0.165044
-0.209253
-0.137342
-0.131396
-0.227769
-0.0893244
-0.275971
-0.232704
-0.102269
-0.255164
-0.242934
-0.281701
-0.176518
-0.175371
-0.106526
-0.146311
-0.255611
-0.152397
-0.13457
-0.0860738
-0.178709
-0.214769
-0.228945
-0.115718
-0.190585
-0.12673
-0.280009
-0.0588933
-0.242443
-0.0885102
-0.0682944
-0.205687
-0.0611531
-0.103287
-0.0898475
-0.244903
-0.332691
-0.28673
-0.0826145
-0.25676
-0.261228
-0.193384
-0.258629
-0.239673
-0.26467
-0.200312
-0.0679544
-0.148651
-0.253425
-0.14329
-0.275201
-0.060115
-0.218674
-0.0927567
-0.238897
-0.342494
-0.0770331
-0.0669906
-0.242507
-0.273821
-0.0590619
-0.191729
-0.166789
-0.266426
-0.151482
-0.0976438
-0.111717
-0.230513
-0.291422
-0.108417
-0.18353
-0.298588
-0.121356
-0.199706
-0.282336
-0.210814
-0.0797914
-0.316174
-0.157257
-0.124167
-0.271529
-0.327241
-0.255924
-0.207823
-0.184984
-0.183726
-0.175249
-0.219344
-0.268452
-0.192943
-0.162961
-0.111722
-0.252386
-0.170818
-0.272217
-0.257597
-0.191701
-0.247919
-0.332568
-0.102246
-0.102887
-0.203413
-0.0621014
-0.091538
-0.0597486
-0.202789
-0.345232
-0.236748
-0.258369
-0.185274
-0.313318
-0.183498
-0.0792229
-0.151259
-0.193944
-0.235158
-0.250809
-0.0990783
-0.213341
-0.133244
-0.253969
-0.230152
-0.257687
-0.206055
-0.230642
-0.23499
-0.214381
-0.29073
-0.171178
-0.192122
-0.256266
-0.16608
-0.182651
-0.241606
-0.281806
-0.255216
-0.277224
-0.277758
-0.198376
-0.303589
-0.34416
-0.217227
-0.289303
-0.312673
-0.193882
-0.217504
-0.308924
-0.102612
-0.167506
-0.246996
-0.0987871
-0.280693
-0.172207
-0.118163
-0.195552
-0.196965
-0.101008
-0.236387
-0.121403
-0.25461
-0.228167
-0.0987877
-0.260331
-0.189228
-0.359199
-0.305885
-0.342495
-0.293453
-0.278898
-0.169312
-0.269482
-0.323079
-0.283041
-0.24612
-0.0591992
-0.182873
-0.154808
-0.17075
-0.208488
-0.184745
-0.233499
-0.289843
-0.181314
-0.25827
-0.0808645
-0.121518
-0.218635
-0.253124
-0.207758
-0.0545043
-0.104837
-0.0959642
-0.146014
-0.239577
-0.205305
-0.245837
-0.286066
-0.301419
-0.273981
-0.167441
-0.132859
-0.292161
-0.3076
-0.199705
-0.170312
-0.202177
-0.172318
-0.114952
-0.190548
-0.229991
-0.0760711
-0.0906378
-0.233604
-0.134514
-0.0984387
-0.297661
-0.220544
-0.243706
-0.268482
-0.277011
-0.0947252
-0.296756
-0.204926
-0.0754238
-0.340451
-0.19152
-0.234966
-0.205802
-0.248258
-0.261713
-0.290917
-0.171382
-0.304508
-0.280411
-0.259059
-0.262922
-0.125011
-0.0817879
-0.199805
-0.149237
-0.163266
-0.184656
-0.340255
-0.117505
-0.136867
-0.277551
-0.321511
-0.175321
-0.28468
-0.176923
-0.212292
-0.250902
-0.0874454
-0.0808235
-0.241658
-0.115721
-0.0541569
-0.11294
-0.0921644
-0.090261
-0.170488
-0.236889
-0.274335
-0.0565718
-0.10102
-0.0916054
-0.281015
-0.268217
-0.333226
-0.111011
-0.18702
-0.186163
-0.0887802
-0.131364
-0.18939
-0.170881
-0.235362
-0.202058
-0.241177
-0.255404
-0.25321
-0.245558
-0.220154
-0.302909
-0.185987
-0.261846
-0.125348
-0.139854
-0.319478
-0.095303
-0.0868873
-0.147987
-0.284127
-0.189623
-0.217591
-0.137357
-0.212756
-0.280879
-0.0985744
-0.23628
-0.0793472
-0.3236
-0.24265
-0.199558
-0.149004
-0.103184
-0.197225
-0.0703433
-0.194123
-0.112719
-0.244097
-0.119073
-0.233643
-0.190504
-0.25737
-0.10697
-0.186562
-0.0586787
-0.160709
-0.30293
-0.181902
-0.177178
-0.226207
-0.281704
-0.240144
-0.254218
-0.075789
-0.191566
-0.201623
-0.126487
-0.281943
-0.0813238
-0.0619026
-0.260837
-0.0559965
-0.0683481
-0.111061
-0.090616
-0.191315
-0.281983
-0.273742
-0.247535
-0.122367
-0.218703
-0.235772
-0.0722799
-0.277379
-0.246769
-0.277238
-0.0920219
-0.0587207
-0.283052
-0.113792
-0.160368
-0.0823093
-0.165006
-0.143068
-0.25477
-0.0680363
-0.0594559
-0.154707
-0.26825
-0.105037
-0.186527
-0.133238
-0.207076
-0.200198
-0.165759
-0.174434
-0.233517
-0.272562
-0.199136
-0.156132
-0.170495
-0.100751
-0.287034
-0.185451
-0.140184
-0.267207
-0.0875396
-0.194981
-0.255223
-0.0731524
-0.107063
-0.16556
-0.0659282
-0.210116
-0.27249
-0.13757
-0.154762
-0.144853
-0.243489
-0.253387
-0.174015
-0.157362
-0.250685
-0.225596
-0.178074
-0.314952
-0.251194
-0.0770075
-0.0530432
-0.0573876
-0.153387
-0.0508387
-0.0591147
-0.0726983
-0.34901
-0.177843
-0.17448
-0.0667568
-0.274238
-0.193142
-0.28595
-0.267866
-0.247671
-0.0684448
-0.237595
-0.229628
-0.140278
-0.155404
-0.255455
-0.256756
-0.0604827
-0.0645393
-0.0949326
-0.137706
-0.279482
-0.115672
-0.165998
-0.276614
-0.184243
-0.312461
-0.282789
-0.173446
-0.227987
-0.22362
-0.0722776
-0.0801195
-0.337292
-0.109159
-0.225143
-0.220226
-0.201346
-0.0747824
-0.232975
-0.139495
-0.241374
-0.0921467
-0.267099
-0.239919
-0.0583008
-0.334251
-0.316777
-0.214062
-0.244994
-0.345101
-0.299721
-0.241478
-0.34986
-0.221159
-0.331246
-0.301069
-0.227072
-0.288998
-0.238127
-0.217951
-0.323775
-0.291442
-0.0661746
-0.0800743
-0.265674
-0.289316
-0.0761304
-0.276075
-0.192051
-0.0614554
-0.235681
-0.0607172
-0.212878
-0.105419
-0.151877
-0.211528
-0.303913
-0.167597
-0.173376
-0.222641
-0.213051
-0.265479
-0.314372
-0.24305
-0.186705
-0.336512
-0.317197
-0.0716788
-0.198608
-0.156384
-0.13173
-0.278499
-0.0908155
-0.130676
-0.282486
-0.294038
-0.239647
-0.304117
-0.343347
-0.150315
-0.148264
-0.263812
-0.166807
-0.245441
-0.0583582
-0.0695321
-0.244475
-0.250378
-0.0680133
-0.101405
-0.178724
-0.169385
-0.270845
-0.056802
-0.150432
-0.337151
-0.0907989
-0.110215
-0.0796486
-0.184703
-0.281721
-0.204415
-0.146682
-0.179499
-0.326946
-0.0587944
-0.239525
-0.22415
-0.212728
-0.0725195
-0.0565046
-0.061208
-0.161799
-0.170507
-0.121286
-0.095966
-0.0671755
-0.157358
-0.121648
-0.199694
-0.214822
-0.160264
-0.271644
-0.199015
-0.317352
-0.241559
-0.131068
-0.314731
-0.191272
-0.189436
-0.0879339
-0.0624792
-0.239751
-0.297522
-0.322966
-0.101759
-0.277932
-0.261466
-0.328795
-0.0685567
-0.193423
-0.190329
-0.287149
-0.184323
-0.262642
-0.230183
-0.125641
-0.134527
-0.0638332
-0.0613033
-0.236687
-0.0874103
-0.339292
-0.0889854
-0.0783376
-0.0800587
-0.122715
-0.253407
-0.251285
-0.260547
-0.330455
-0.150754
-0.338994
-0.131049
-0.282725
-0.085552
-0.275632
-0.32425
-0.105882
-0.0967011
-0.22243
-0.224231
-0.156619
-0.0703429
-0.195906
-0.206357
-0.331719
-0.112463
-0.132376
-0.0594573
-0.343221
-0.228481
-0.0896053
-0.146881
-0.065916
-0.140815
-0.261501
-0.353539
-0.340686
-0.226662
-0.325595
-0.0705285
-0.323136
-0.174133
-0.218244
-0.297558
-0.0891448
-0.347942
-0.0695318
-0.14417
-0.184565
-0.229221
-0.121166
-0.184098
-0.166538
-0.230791
-0.215974
-0.269317
-0.279678
-0.130746
-0.251561
-0.0502232
-0.28239
-0.146582
-0.162702
-0.105377
-0.0669312
-0.268248
-0.2474
-0.23404
-0.17367
-0.285643
-0.0748766
-0.265568
-0.199286
-0.276293
-0.104862
-0.294837
-0.186815
-0.31167
-0.0606924
-0.333522
-0.249939
-0.170162
-0.0937613
-0.320652
-0.322571
-0.259146
-0.309603
-0.0786882
-0.197512
-0.137499
-0.105806
-0.147442
-0.136294
-0.0620577
-0.141348
-0.102574
-0.162751
-0.155187
-0.312914
-0.161604
-0.235761
-0.187214
-0.147417
-0.197828
-0.306125
-0.210466
-0.161706
-0.269512
-0.111757
-0.157476
-0.107111
-0.23811
-0.0629939
-0.212571
-0.162237
-0.156945
-0.311957
-0.267787
-0.276604
-0.170229
-0.185615
-0.174635
-0.0837343
-0.104773
-0.122655
-0.204383
-0.0872898
-0.0668318
-0.0728488
-0.1295
-0.161666
-0.161913
-0.272374
-0.0605637
-0.0988764
-0.107719
-0.225077
-0.254856
-0.309083
-0.164765
-0.149104
-0.209528
-0.106751
-0.0903129
-0.1795
-0.208524
-0.133764
-0.201386
-0.191112
-0.223033
-0.195822
-0.189328
-0.33172
-0.186808
-0.160001
-0.244615
-0.341368
-0.18064
-0.211144
-0.150485
-0.250705
-0.19624
-0.0851355
-0.0743886
-0.187388
-0.214602
-0.120721
-0.211936
-0.264502
-0.278037
-0.247704
-0.310786
-0.0816448
-0.200869
-0.20176
-0.14498
-0.155485
-0.123694
-0.199323
-0.0538179
-0.126545
-0.28414
-0.210554
-0.219897
-0.121597
-0.0902046
-0.125755
-0.176739
-0.314585
-0.282896
-0.243862
-0.180753
-0.203422
-0.186275
-0.284026
-0.0786752
-0.155623
-0.086005
-0.0959014
-0.194077
-0.217058
-0.161035
-0.0622355
-0.28201
-0.325348
-0.160689
-0.0573465
-0.256932
-0.248028
-0.12921
-0.148547
-0.10514
-0.226549
-0.320125
-0.182848
-0.322857
-0.254272
-0.111916
-0.233293
-0.269221
-0.21732
-0.26213
-0.171335
-0.210536
-0.200277
-0.0828284
-0.291359
-0.0620141
-0.106819
-0.28327
-0.351354
-0.190881
-0.130879
-0.100246
-0.22814
-0.24347
-0.187648
-0.257335
-0.196782
-0.0599837
-0.0856919
-0.144912
-0.183554
-0.305092
-0.0648564
-0.0550357
-0.0761021
-0.121099
-0.0821445
-0.167668
-0.319004
-0.33243
-0.326134
-0.0660404
-0.214993
-0.190188
-0.18949
-0.0554083
-0.268514
-0.209227
-0.295479
-0.227141
-0.278975
-0.0479189
-0.181431
-0.122964
-0.0929319
-0.0920218
-0.252217
-0.169567
-0.182646
-0.110935
-0.289008
-0.170912
-0.257006
-0.0766181
-0.20766
-0.284732
-0.195195
-0.237401
-0.0863476
-0.27443
-0.113534
-0.0882668
-0.0882819
-0.298873
-0.188534
-0.24405
-0.185954
-0.0817533
-0.188271
-0.145375
-0.184714
-0.243526
-0.187998
-0.0627954
-0.164945
-0.0782477
-0.33033
-0.253662
-0.267253
-0.0721896
-0.183025
-0.183951
-0.306972
-0.194646
-0.174461
-0.0582946
-0.164154
-0.240379
-0.295458
-0.0474495
-0.064513
-0.24602
-0.0631051
-0.266926
-0.298232
-0.249089
-0.211381
-0.324172
-0.13731
-0.196007
-0.272007
-0.230603
-0.0693507
-0.222961
-0.113449
-0.200872
-0.258069
-0.219138
-0.331285
-0.321328
-0.233055
-0.165488
-0.147804
-0.282318
-0.224785
-0.0839998
-0.15414
-0.273586
-0.217004
-0.0754402
-0.224536
-0.193534
-0.0511992
-0.168918
-0.277304
-0.172056
-0.19275
-0.0679963
-0.2008
-0.222743
-0.175483
-0.326305
-0.0736425
-0.202846
-0.0833383
-0.184739
-0.133249
-0.303665
-0.0907767
-0.23489
-0.287799
-0.277399
-0.183507
-0.0852224
-0.360269
-0.212451
-0.269231
-0.0673009
-0.0528649
-0.190252
-0.259472
-0.137757
-0.0547897
-0.203439
-0.08054
-0.10084
-0.111107
-0.127205
-0.195673
-0.108287
-0.114585
-0.078687
-0.180867
-0.179054
-0.189821
-0.200748
-0.170979
-0.239837
-0.0691456
-0.192966
-0.0749033
-0.188371
-0.0725857
-0.285395
-0.0644268
-0.13653
-0.0681029
-0.0709647
-0.0867995
-0.0517033
-0.253032
-0.0953449
-0.172648
-0.272215
-0.212963
-0.280735
-0.0779257
-0.192706
-0.179066
-0.172868
-0.240707
-0.154325
-0.28578
-0.0624729
-0.211684
-0.107963
-0.339048
-0.23696
-0.268117
-0.0424278
-0.185868
-0.161665
-0.20041
-0.263924
-0.271605
-0.227082
-0.278847
-0.118317
-0.0757407
-0.299374
-0.184
-0.265772
-0.280868
-0.108451
-0.193194
-0.19831
-0.063372
-0.319527
-0.15112
-0.147999
-0.0910255
-0.0623544
-0.198917
-0.238098
-0.300816
-0.204269
-0.1873
-0.266168
-0.0975718
-0.265527
-0.290517
-0.241433
-0.186142
-0.222463
-0.18012
-0.270765
-0.197907
-0.300283
-0.126132
-0.134691
-0.182955
-0.114329
-0.204259
-0.331492
-0.18864
-0.335696
-0.0656224
-0.256998
-0.274098
-0.281619
-0.0845639
-0.0797892
-0.200259
-0.11119
-0.185117
-0.293779
-0.169619
-0.269306
-0.21554
-0.0799429
-0.156394
-0.109067
-0.0620775
-0.11496
-0.154319
-0.0712133
-0.298525
-0.198678
-0.201822
-0.175786
-0.159686
-0.0606372
-0.269392
-0.178504
-0.215889
-0.214508
-0.243309
-0.234486
-0.135906
-0.106394
-0.0944265
-0.175965
-0.180703
-0.062755
-0.0894124
-0.236903
-0.141571
-0.295885
-0.255748
-0.11672
-0.301841
-0.0967876
-0.277214
-0.0901849
-0.0510841
-0.0767711
-0.284832
-0.0711526
-0.098865
-0.212786
-0.0610386
-0.177578
-0.0733928
-0.119324
-0.26607
-0.311918
-0.141275
-0.252345
-0.162887
-0.189495
-0.0807946
-0.181308
-0.0677147
-0.260937
-0.210308
-0.187385
-0.254127
-0.275529
-0.101524
-0.0575061
-0.264522
-0.0937126
-0.20922
-0.178562
-0.205537
-0.13249
-0.0836614
-0.115301
-0.274278
-0.0884023
-0.109396
-0.0618446
-0.257959
-0.282739
-0.193072
-0.118117
-0.0629375
-0.104415
-0.220098
-0.0653338
-0.192267
-0.29132
-0.310897
-0.355197
-0.169374
-0.285662
-0.0602127
-0.0621116
-0.18216
-0.0481476
-0.113961
-0.203846
-0.0670398
-0.298233
-0.0601023
-0.256201
-0.0795384
-0.227202
-0.249223
-0.119117
-0.191012
-0.0741612
-0.0829728
-0.081414
-0.22995
-0.230023
-0.306242
-0.0809594
-0.117563
-0.187722
-0.158007
-0.116165
-0.334368
-0.264979
-0.242294
-0.261176
-0.180389
-0.264957
-0.201206
-0.0912932
-0.202721
-0.189358
-0.132522
-0.242567
-0.199511
-0.182978
-0.204032
-0.246189
-0.0955229
-0.0734468
-0.188659
-0.118895
-0.340043
-0.254758
-0.0910579
-0.126216
-0.277139
-0.0795786
-0.281853
-0.134276
-0.198093
-0.174143
-0.0899478
-0.22621
-0.122547
-0.106228
-0.14539
-0.055998
-0.144701
-0.305022
-0.17291
-0.158232
-0.125859
-0.0607486
-0.140813
-0.184717
-0.214525
-0.17194
-0.0889778
-0.28088
-0.0768748
-0.22263
-0.140709
-0.114951
-0.132377
-0.216421
-0.0847191
-0.0659323
-0.201481
-0.235923
-0.193748
-0.235985
-0.306411
-0.198057
-0.108868
-0.293544
-0.305483
-0.186115
-0.288305
-0.138123
-0.187369
-0.122894
-0.212007
-0.0770855
-0.202146
-0.0966079
-0.0546792
-0.27573
-0.0859548
-0.188144
-0.195811
-0.154069
-0.0793934
-0.200192
-0.216337
-0.153381
-0.246642
-0.23356
-0.256454
-0.273013
-0.338998
-0.0644219
-0.0555638
-0.30405
-0.201669
-0.1307
-0.306485
-0.192107
-0.262966
-0.144735
-0.126852
-0.31477
-0.34522
-0.0834715
-0.195742
-0.169563
-0.197918
-0.303604
-0.310536
-0.123491
-0.099609
-0.162294
-0.328257
-0.0757875
-0.102705
-0.253
-0.179006
-0.268842
-0.0553939
-0.255933
-0.19447
-0.279784
-0.157092
-0.0669557
-0.174486
-0.129669
-0.228013
-0.179073
-0.15413
-0.0670356
-0.0498146
-0.200568
-0.0648578
-0.224275
-0.191972
-0.191408
-0.235935
-0.236595
-0.0835242
-0.15865
-0.175293
-0.222045
-0.294605
-0.157312
-0.246575
-0.136702
-0.0783943
-0.255481
-0.239558
-0.19451
-0.234547
-0.177501
-0.329785
-0.208496
-0.0708437
-0.221827
-0.278799
-0.106752
-0.198367
-0.211011
-0.158553
-0.0938136
-0.19528
-0.188285
-0.108022
-0.227669
-0.192452
-0.173826
-0.0794674
-0.162459
-0.191652
-0.193415
-0.29558
-0.205721
-0.0653616
-0.105078
-0.0587477
-0.211693
-0.150337
-0.272459
-0.207118
-0.100708
-0.301527
-0.314564
-0.13439
-0.102335
-0.307695
-0.210041
-0.186372
-0.194051
-0.188376
-0.0497982
-0.18828
-0.210063
-0.129388
-0.213519
-0.125211
-0.123988
-0.283024
-0.195139
-0.108543
-0.185558
-0.0635991
-0.304878
-0.267165
-0.131203
-0.161155
-0.235243
-0.177214
-0.241299
-0.0621933
-0.054068
-0.13063
-0.078902
-0.267597
-0.0891055
-0.161281
-0.117874
-0.0703752
-0.304346
-0.229736
-0.0609183
-0.158992
-0.318751
-0.275703
-0.0813514
-0.062557
-0.211709
-0.129816
-0.193739
-0.289217
-0.227861
-0.310172
-0.0997791
-0.245136
-0.211154
-0.0672665
-0.28544
-0.191987
-0.21761
-0.172108
-0.197093
-0.27868
-0.218853
-0.288843
-0.17634
-0.116193
-0.0720495
-0.11485
-0.180474
-0.239116
-0.31945
-0.263572
-0.17257
-0.181654
-0.109183
-0.111435
-0.239855
-0.227557
-0.098875
-0.10015
-0.0605622
-0.0885409
-0.0689258
-0.193234
-0.293201
-0.239501
-0.25813
-0.0670265
-0.188512
-0.229942
-0.0708262
-0.290482
-0.11381
-0.128302
-0.203317
-0.19091
-0.227821
-0.286708
-0.102103
-0.251157
-0.144397
-0.210773
-0.0739275
-0.182933
-0.0588641
-0.259228
-0.212252
-0.287627
-0.342348
-0.225632
-0.11183
-0.196812
-0.254697
-0.191789
-0.0645242
-0.126285
-0.275479
-0.284794
-0.224068
-0.302931
-0.190387
-0.316302
-0.238481
-0.266489
-0.132893
-0.305216
-0.203078
-0.0638492
-0.167062
-0.108417
-0.107014
-0.241716
-0.210513
-0.232355
-0.0933858
-0.251458
-0.186824
-0.189801
-0.284524
-0.315454
-0.209067
-0.18113
-0.128299
-0.0583917
-0.0966643
-0.190651
-0.14006
-0.30995
-0.0646353
-0.153184
-0.0986211
-0.184937
-0.130036
-0.274469
-0.230403
-0.115409
-0.0670106
-0.114671
-0.188047
-0.26864
-0.057212
-0.188188
-0.0931572
-0.0672473
-0.150785
-0.220226
-0.308372
-0.0985687
-0.136197
-0.282327
-0.161696
-0.151221
-0.0748945
-0.240718
-0.0655945
-0.059216
-0.240295
-0.255761
-0.0685709
-0.274828
-0.275705
-0.222381
-0.268235
-0.212714
-0.267344
-0.300372
-0.214665
-0.194746
-0.225734
-0.267509
-0.182657
-0.29214
-0.261068
-0.164318
-0.211222
-0.315091
-0.0803536
-0.0516727
-0.0618335
-0.203711
-0.329124
-0.0580767
-0.281813
-0.211527
-0.187596
-0.270225
-0.182175
-0.135352
-0.259075
-0.282389
-0.306437
-0.297707
-0.287249
-0.272127
-0.331255
-0.219365
-0.196668
-0.226149
-0.0742126
-0.187007
-0.130362
-0.186776
-0.103468
-0.264288
-0.264202
-0.0453522
-0.198196
-0.134786
-0.287235
-0.151404
-0.0554566
-0.246794
-0.145168
-0.141897
-0.275225
-0.201085
-0.291545
-0.247557
-0.130189
-0.272807
-0.213885
-0.280645
-0.239348
-0.225605
-0.288714
-0.209049
-0.254764
-0.287523
-0.0512314
-0.216867
-0.201867
-0.189548
-0.0692866
-0.256419
-0.295002
-0.0980058
-0.273024
-0.238429
-0.188685
-0.157512
-0.279072
-0.159682
-0.151689
-0.0612394
-0.0974004
-0.287353
-0.280234
-0.306994
-0.188192
-0.319419
-0.244837
-0.198037
-0.249739
-0.197802
-0.165835
-0.0501323
-0.244749
-0.136922
-0.181233
-0.0654279
-0.275408
-0.055426
-0.173045
-0.289644
-0.157368
-0.130175
-0.268221
-0.0831411
-0.18748
-0.092754
-0.266963
-0.258245
-0.227534
-0.0521549
-0.0532521
-0.130342
-0.152952
-0.127631
-0.331316
-0.284896
-0.113987
-0.0586414
-0.242534
-0.178519
-0.184779
-0.266431
-0.234385
-0.219041
-0.262719
-0.242588
-0.262316
-0.203782
-0.258959
-0.219394
-0.0577287
-0.0960079
-0.325197
-0.118614
-0.234712
-0.300995
-0.107566
-0.28821
-0.240766
-0.129797
-0.230634
-0.247665
-0.213946
-0.0939362
-0.274097
-0.254614
-0.254386
-0.170851
-0.257275
-0.0730583
-0.319692
-0.276342
-0.254767
-0.275427
-0.144141
-0.169541
-0.069245
-0.195712
-0.107773
-0.195251