/*--------------------------------*- C++ -*----------------------------------*\
  =========                 |
  \\      /  F ield         | OpenFOAM: The Open Source CFD Toolbox
   \\    /   O peration     | Website:  https://openfoam.org
    \\  /    A nd           | Version:  6
     \\/     M anipulation  |
\*---------------------------------------------------------------------------*/
FoamFile
{
    version     2.0;
    format      ascii;
    class       volVectorField;
    location    "0";
    object      U_rec;
}
// * * * * * * * * * * * * * * * * * * * * * * * * * * * * * * * * * * * * * //

dimensions      [0 1 -1 0 0 0 0];

internalField   nonuniform List<vector> 
9000
(
(0.624893 0.16036 0)
(0.49672 0.0692361 0)
(0.300744 0.0234719 0)
(0.211528 0.0104135 0)
(0.163187 0.00602055 0)
(0.134588 0.00313662 0)
(0.117169 0.00281155 0)
(0.105168 0.000763292 0)
(0.0961992 -3.08616e-05 0)
(0.0905542 -0.000470727 0)
(0.0867225 0.00208241 0)
(0.0837989 0.00206375 0)
(0.08077 0.00239797 0)
(0.0804004 0.00197383 0)
(0.0801882 -0.000111744 0)
(0.0789347 -0.00113617 0)
(0.077837 -0.00109551 0)
(0.0769821 0.000486145 0)
(0.0767844 0.0013272 0)
(0.0772067 0.00266366 0)
(0.0777521 0.00139768 0)
(0.0773342 0.00213577 0)
(0.0770506 0.00116621 0)
(0.0770607 0.00110079 0)
(0.0769899 0.00124432 0)
(0.0777084 0.00164987 0)
(0.076484 -0.000591701 0)
(0.0767503 0.000146003 0)
(0.0774513 -0.00113137 0)
(0.0764344 -0.00110993 0)
(0.0774691 -9.95976e-06 0)
(0.0772472 -0.00180369 0)
(0.0768671 -0.00190561 0)
(0.0770733 -0.00168294 0)
(0.0762668 -0.00130916 0)
(0.076441 -0.000903475 0)
(0.0767205 0.00022385 0)
(0.077262 -0.00124706 0)
(0.0777049 -0.000549299 0)
(0.0783426 -0.000546383 0)
(0.0786941 -0.000347561 0)
(0.078201 -0.000734903 0)
(0.0788554 -5.06721e-05 0)
(0.0798131 1.7169e-05 0)
(0.0819944 -0.00141504 0)
(0.0840188 -0.00286651 0)
(0.0875033 -0.00261101 0)
(0.0970387 -0.00104201 0)
(0.118332 -0.00881349 0)
(0.172027 -0.0506 0)
(0.989609 0.354469 0)
(0.900856 0.244022 0)
(0.684849 0.136967 0)
(0.540244 0.078593 0)
(0.44282 0.0475479 0)
(0.378066 0.029217 0)
(0.334327 0.0217562 0)
(0.302536 0.0111728 0)
(0.280139 0.00753065 0)
(0.266552 0.00376703 0)
(0.255841 0.00682193 0)
(0.246147 0.00637036 0)
(0.238347 0.00502069 0)
(0.234642 0.00524712 0)
(0.23287 0.00151906 0)
(0.231111 -0.000488255 0)
(0.229916 -0.00190813 0)
(0.228222 0.000139071 0)
(0.227431 0.00270152 0)
(0.226781 0.00460521 0)
(0.227427 0.00385024 0)
(0.226782 0.00353975 0)
(0.225652 0.0023884 0)
(0.226356 0.00318224 0)
(0.22643 0.00385259 0)
(0.226077 0.00126482 0)
(0.224246 -0.000181136 0)
(0.225131 4.84438e-05 0)
(0.225797 -0.00359219 0)
(0.225838 -0.00115984 0)
(0.22644 -0.00147053 0)
(0.225146 -0.00318789 0)
(0.225779 -0.00428975 0)
(0.226512 -0.00407879 0)
(0.225023 -0.00211756 0)
(0.225693 -0.000915821 0)
(0.225644 -0.000464066 0)
(0.227126 -0.000872184 0)
(0.229167 -0.00154332 0)
(0.230042 -0.000531929 0)
(0.230796 -0.00170468 0)
(0.231263 -0.00366221 0)
(0.233938 -0.00282945 0)
(0.23587 -0.0037419 0)
(0.240857 -0.00468816 0)
(0.248989 -0.00828242 0)
(0.262748 -0.0115749 0)
(0.284566 -0.0176892 0)
(0.323468 -0.042851 0)
(0.399019 -0.108707 0)
(1.07119 0.339027 0)
(1.06357 0.332426 0)
(0.914093 0.235277 0)
(0.777084 0.155734 0)
(0.666482 0.10408 0)
(0.586721 0.0702998 0)
(0.526395 0.0481818 0)
(0.481628 0.0315355 0)
(0.450486 0.0232253 0)
(0.430177 0.0167176 0)
(0.414938 0.0129007 0)
(0.399073 0.00851787 0)
(0.388112 0.00768004 0)
(0.382226 0.00828103 0)
(0.377925 0.00355692 0)
(0.374687 0.00132741 0)
(0.372917 0.000997856 0)
(0.372097 0.00053609 0)
(0.370964 0.00347165 0)
(0.369416 0.0038754 0)
(0.369241 0.00558066 0)
(0.367902 0.00243771 0)
(0.36761 0.00292087 0)
(0.368865 0.00386234 0)
(0.366414 0.00407835 0)
(0.366104 0.000411383 0)
(0.365684 -0.000296111 0)
(0.364538 -0.00254222 0)
(0.366912 -0.00524833 0)
(0.367481 -0.00236534 0)
(0.367083 -0.00331294 0)
(0.365778 -0.00310367 0)
(0.366114 -0.00321683 0)
(0.368664 -0.0034942 0)
(0.367702 -0.00156839 0)
(0.367151 0.000376182 0)
(0.367805 0.000242774 0)
(0.369555 0.00129755 0)
(0.3722 -0.00165956 0)
(0.373828 -0.000495728 0)
(0.374025 -0.00254208 0)
(0.376682 -0.00514289 0)
(0.381481 -0.0069071 0)
(0.386094 -0.00863579 0)
(0.394378 -0.0109062 0)
(0.406101 -0.0161023 0)
(0.426462 -0.0242699 0)
(0.456508 -0.0446701 0)
(0.501979 -0.0794439 0)
(0.569548 -0.156251 0)
(1.08361 0.292228 0)
(1.12418 0.36573 0)
(1.04038 0.307283 0)
(0.93672 0.226206 0)
(0.837651 0.164199 0)
(0.755294 0.117191 0)
(0.691028 0.0810272 0)
(0.642505 0.0602838 0)
(0.605967 0.0448927 0)
(0.579711 0.0332958 0)
(0.558985 0.0235469 0)
(0.542412 0.0149507 0)
(0.530815 0.0138875 0)
(0.520416 0.0109578 0)
(0.513828 0.006065 0)
(0.511818 0.00362961 0)
(0.509033 0.00301986 0)
(0.507344 0.00172431 0)
(0.506251 0.00370393 0)
(0.50436 0.00197718 0)
(0.502998 0.00417683 0)
(0.50122 0.000861129 0)
(0.501905 0.0027824 0)
(0.502592 0.00260979 0)
(0.499624 0.00235834 0)
(0.498281 0.000468279 0)
(0.497137 -0.00220899 0)
(0.496743 -0.00148862 0)
(0.500258 -0.00412322 0)
(0.501298 -0.00310869 0)
(0.501006 -0.0015091 0)
(0.499937 -0.00211739 0)
(0.499963 -0.00107323 0)
(0.502402 -0.00263821 0)
(0.502467 -0.00253747 0)
(0.502101 0.00104954 0)
(0.50233 -5.64993e-05 0)
(0.503474 0.000419719 0)
(0.50708 -0.00175487 0)
(0.510186 -0.00262433 0)
(0.510729 -0.00529514 0)
(0.513867 -0.00639931 0)
(0.520634 -0.0101994 0)
(0.527241 -0.0130116 0)
(0.538039 -0.018694 0)
(0.554249 -0.0279939 0)
(0.576505 -0.0425119 0)
(0.610128 -0.07107 0)
(0.655567 -0.113722 0)
(0.71021 -0.192546 0)
(1.07866 0.247458 0)
(1.13931 0.368921 0)
(1.10757 0.348262 0)
(1.03989 0.281027 0)
(0.96194 0.213811 0)
(0.888673 0.159643 0)
(0.829678 0.121031 0)
(0.782359 0.089722 0)
(0.742903 0.0686095 0)
(0.714723 0.0510903 0)
(0.692277 0.036683 0)
(0.674613 0.0258183 0)
(0.661682 0.0209776 0)
(0.649566 0.0138893 0)
(0.642507 0.00926152 0)
(0.639237 0.00632328 0)
(0.635958 0.00299683 0)
(0.635017 0.00150758 0)
(0.632757 0.00395921 0)
(0.630593 0.00409214 0)
(0.629281 0.0030873 0)
(0.627609 0.00021137 0)
(0.628565 0.00113555 0)
(0.628471 0.00026335 0)
(0.624915 0.00072208 0)
(0.622521 0.000125165 0)
(0.623643 -0.00161156 0)
(0.622627 0.000644417 0)
(0.624752 -0.00149995 0)
(0.627943 -0.00252288 0)
(0.627175 0.000604775 0)
(0.625562 0.000387322 0)
(0.625102 0.00055263 0)
(0.627451 -0.000520058 0)
(0.629979 -0.00019304 0)
(0.628889 -0.000210582 0)
(0.628215 -0.00239794 0)
(0.630772 -0.00180522 0)
(0.634376 -0.00518757 0)
(0.637577 -0.0060207 0)
(0.639709 -0.00984582 0)
(0.644211 -0.0109888 0)
(0.651622 -0.0154443 0)
(0.660377 -0.0218973 0)
(0.672481 -0.0310082 0)
(0.689752 -0.0425372 0)
(0.713661 -0.0610106 0)
(0.747746 -0.0928132 0)
(0.788142 -0.141305 0)
(0.82969 -0.214842 0)
(1.07295 0.208812 0)
(1.13704 0.3556 0)
(1.13791 0.364202 0)
(1.10204 0.314942 0)
(1.04946 0.252642 0)
(0.995407 0.200052 0)
(0.943633 0.156104 0)
(0.899626 0.117389 0)
(0.864273 0.0908257 0)
(0.834974 0.0691384 0)
(0.811684 0.0504053 0)
(0.795564 0.0377094 0)
(0.782117 0.0277378 0)
(0.768595 0.0183453 0)
(0.761783 0.0141802 0)
(0.758259 0.00993523 0)
(0.754511 0.00596809 0)
(0.754923 0.0053941 0)
(0.753924 0.00564205 0)
(0.749087 0.00481933 0)
(0.745526 0.00319618 0)
(0.744816 0.00135701 0)
(0.746098 0.000957289 0)
(0.746456 -0.000695497 0)
(0.743699 -0.000747997 0)
(0.740506 0.00243798 0)
(0.741146 -0.000336837 0)
(0.7407 0.000191753 0)
(0.741894 0.00114216 0)
(0.7463 -0.00117442 0)
(0.74705 0.000743235 0)
(0.744143 0.000401168 0)
(0.743361 0.00376602 0)
(0.746091 0.00388552 0)
(0.747096 0.0024592 0)
(0.745617 -0.000914979 0)
(0.747162 -0.00172849 0)
(0.749107 -0.00295608 0)
(0.753491 -0.00674365 0)
(0.758013 -0.00936381 0)
(0.76035 -0.0114642 0)
(0.765868 -0.0160146 0)
(0.773182 -0.0215364 0)
(0.782228 -0.0309619 0)
(0.797039 -0.0427588 0)
(0.817036 -0.0576161 0)
(0.839198 -0.07716 0)
(0.869776 -0.110471 0)
(0.905097 -0.162013 0)
(0.935241 -0.231543 0)
(1.06673 0.176599 0)
(1.12761 0.330963 0)
(1.14894 0.363207 0)
(1.13931 0.333938 0)
(1.11256 0.283878 0)
(1.07539 0.232734 0)
(1.03377 0.183392 0)
(0.998561 0.142364 0)
(0.967915 0.110329 0)
(0.941208 0.0832568 0)
(0.920359 0.0624482 0)
(0.904516 0.0472351 0)
(0.890511 0.0338679 0)
(0.879374 0.0241709 0)
(0.873182 0.0184704 0)
(0.868249 0.0131062 0)
(0.865605 0.00841075 0)
(0.865995 0.00885112 0)
(0.862591 0.00688308 0)
(0.858555 0.00316784 0)
(0.856329 0.00316019 0)
(0.855204 0.00160205 0)
(0.855661 -0.00071803 0)
(0.85584 -0.000304822 0)
(0.855373 -0.00178316 0)
(0.850946 0.0013346 0)
(0.850591 0.000490949 0)
(0.852123 -0.000355543 0)
(0.852261 0.00152504 0)
(0.856155 0.00183529 0)
(0.856988 0.001458 0)
(0.856106 0.00120915 0)
(0.855692 0.00372705 0)
(0.855233 0.00383879 0)
(0.856157 0.00107133 0)
(0.856123 -0.00171206 0)
(0.857795 -0.00193955 0)
(0.859818 -0.00471723 0)
(0.863987 -0.00599155 0)
(0.869839 -0.0109713 0)
(0.872882 -0.01364 0)
(0.87826 -0.0195034 0)
(0.886457 -0.0262454 0)
(0.896145 -0.0366902 0)
(0.911105 -0.0498923 0)
(0.931583 -0.0690761 0)
(0.953779 -0.0943823 0)
(0.978953 -0.12824 0)
(1.00589 -0.178741 0)
(1.02746 -0.244127 0)
(1.06288 0.150271 0)
(1.11808 0.301954 0)
(1.15112 0.350029 0)
(1.16172 0.339141 0)
(1.15444 0.301311 0)
(1.13415 0.250406 0)
(1.1054 0.202642 0)
(1.0799 0.16052 0)
(1.05551 0.123008 0)
(1.03322 0.0941209 0)
(1.01599 0.0712948 0)
(1.00266 0.0536414 0)
(0.990511 0.0394195 0)
(0.979904 0.0304361 0)
(0.973985 0.0212779 0)
(0.969839 0.0146929 0)
(0.968185 0.00967218 0)
(0.969257 0.00768992 0)
(0.9648 0.00495464 0)
(0.960548 0.00594917 0)
(0.958097 0.00240444 0)
(0.955662 0.00159562 0)
(0.957687 8.10399e-06 0)
(0.958733 -0.000757732 0)
(0.957767 -0.0019113 0)
(0.954632 -0.00162169 0)
(0.95305 0.00235524 0)
(0.954472 0.000246279 0)
(0.956158 -0.000830345 0)
(0.959148 0.000894112 0)
(0.959805 -0.000547623 0)
(0.958607 0.00224908 0)
(0.958012 0.00072837 0)
(0.957856 0.000806445 0)
(0.957706 -0.0016516 0)
(0.958472 -0.0025926 0)
(0.960845 -0.00410867 0)
(0.963208 -0.00690448 0)
(0.967542 -0.00716066 0)
(0.972917 -0.0108376 0)
(0.977017 -0.0181823 0)
(0.983001 -0.0236095 0)
(0.990973 -0.0329692 0)
(1.00018 -0.0441776 0)
(1.01485 -0.0577774 0)
(1.03372 -0.0802639 0)
(1.05424 -0.107445 0)
(1.0766 -0.145036 0)
(1.097 -0.193467 0)
(1.11006 -0.251572 0)
(1.05868 0.1297 0)
(1.10764 0.272666 0)
(1.14904 0.329434 0)
(1.17499 0.330327 0)
(1.18249 0.302381 0)
(1.17575 0.256545 0)
(1.16193 0.213223 0)
(1.14546 0.173283 0)
(1.12904 0.134041 0)
(1.11392 0.103153 0)
(1.10117 0.0784575 0)
(1.09037 0.0607146 0)
(1.08071 0.0450354 0)
(1.07159 0.0336797 0)
(1.06576 0.0259911 0)
(1.06259 0.01796 0)
(1.0615 0.011469 0)
(1.06247 0.0079894 0)
(1.06023 0.00259507 0)
(1.05525 0.00503291 0)
(1.05165 0.00239518 0)
(1.05148 0.00378225 0)
(1.05154 0.00261501 0)
(1.05204 -0.00268239 0)
(1.05236 -0.00269921 0)
(1.05071 -0.00459756 0)
(1.04901 -0.00103243 0)
(1.04755 -0.000929331 0)
(1.04983 -0.0015114 0)
(1.05342 -0.00267564 0)
(1.05534 -0.00318479 0)
(1.0544 -0.00168336 0)
(1.05251 -0.00177641 0)
(1.05206 -0.000966007 0)
(1.05294 -0.00121147 0)
(1.05389 -0.00322026 0)
(1.05501 -0.00556953 0)
(1.05893 -0.0080498 0)
(1.06396 -0.00976851 0)
(1.06718 -0.0136945 0)
(1.07151 -0.0220629 0)
(1.07833 -0.0279335 0)
(1.08603 -0.0387323 0)
(1.09659 -0.0514421 0)
(1.1089 -0.0660348 0)
(1.12616 -0.0890566 0)
(1.14451 -0.117239 0)
(1.16114 -0.155702 0)
(1.17748 -0.203364 0)
(1.18527 -0.25773 0)
(1.0558 0.109893 0)
(1.09896 0.242266 0)
(1.14351 0.304479 0)
(1.17982 0.314823 0)
(1.1999 0.295358 0)
(1.20771 0.257502 0)
(1.20765 0.218245 0)
(1.19999 0.179828 0)
(1.19013 0.144282 0)
(1.18187 0.112194 0)
(1.17508 0.0844591 0)
(1.16867 0.0663687 0)
(1.16042 0.0494999 0)
(1.15439 0.0365074 0)
(1.15006 0.0294335 0)
(1.14599 0.0214229 0)
(1.14628 0.0157331 0)
(1.14745 0.00898749 0)
(1.14625 0.00429185 0)
(1.14313 0.00279175 0)
(1.1398 0.0051077 0)
(1.13808 0.00554067 0)
(1.13547 0.0023128 0)
(1.13738 -0.00280032 0)
(1.13856 -0.00351203 0)
(1.13685 -0.00509971 0)
(1.13671 -0.00306974 0)
(1.13573 -0.00331349 0)
(1.13642 -0.000720944 0)
(1.13967 -0.00338839 0)
(1.14224 -0.00400689 0)
(1.14155 -0.00540193 0)
(1.14098 -0.00387834 0)
(1.14137 -0.00273637 0)
(1.13961 -0.00165916 0)
(1.13935 -0.00362796 0)
(1.14226 -0.00479481 0)
(1.14614 -0.00829901 0)
(1.15102 -0.0130102 0)
(1.15397 -0.0172923 0)
(1.15916 -0.0243441 0)
(1.1658 -0.0319241 0)
(1.17216 -0.0441763 0)
(1.18208 -0.0571359 0)
(1.19395 -0.0764434 0)
(1.20856 -0.0975326 0)
(1.22355 -0.12979 0)
(1.23635 -0.164396 0)
(1.24717 -0.209461 0)
(1.25201 -0.259301 0)
(1.05349 0.0930417 0)
(1.09264 0.213899 0)
(1.1396 0.277229 0)
(1.18256 0.296172 0)
(1.21182 0.282729 0)
(1.23016 0.25313 0)
(1.24145 0.216287 0)
(1.24415 0.179884 0)
(1.24255 0.14656 0)
(1.23909 0.116823 0)
(1.23888 0.0896935 0)
(1.23681 0.0695094 0)
(1.23097 0.0522453 0)
(1.22871 0.0384285 0)
(1.22547 0.0284482 0)
(1.22286 0.0229679 0)
(1.22186 0.017958 0)
(1.22318 0.0108538 0)
(1.22412 0.00631109 0)
(1.22275 0.00353088 0)
(1.22025 0.0053556 0)
(1.21613 0.00476344 0)
(1.21238 0.00151245 0)
(1.21484 0.00024142 0)
(1.21692 -0.00330471 0)
(1.2166 -0.00416785 0)
(1.21587 -0.00198489 0)
(1.21475 -0.000147318 0)
(1.21572 -0.0026108 0)
(1.2177 -0.00203004 0)
(1.22037 -0.0044781 0)
(1.22136 -0.005849 0)
(1.22139 -0.00446799 0)
(1.22086 -0.00459144 0)
(1.22 -0.00408249 0)
(1.21993 -0.00374954 0)
(1.22104 -0.00477381 0)
(1.22388 -0.00840991 0)
(1.22994 -0.0138398 0)
(1.23311 -0.0198105 0)
(1.23757 -0.0257757 0)
(1.24288 -0.0373456 0)
(1.24937 -0.0502385 0)
(1.25834 -0.0649911 0)
(1.26845 -0.0838843 0)
(1.28094 -0.107192 0)
(1.29352 -0.137377 0)
(1.30353 -0.173285 0)
(1.30919 -0.213946 0)
(1.3105 -0.25861 0)
(1.05252 0.0807387 0)
(1.08793 0.189812 0)
(1.1353 0.249902 0)
(1.18223 0.271349 0)
(1.21847 0.263651 0)
(1.24682 0.241113 0)
(1.26746 0.207922 0)
(1.27933 0.174322 0)
(1.28559 0.143131 0)
(1.28885 0.113999 0)
(1.29296 0.0896262 0)
(1.29525 0.0701752 0)
(1.29264 0.053544 0)
(1.29212 0.0373 0)
(1.29284 0.0260196 0)
(1.29199 0.020909 0)
(1.29067 0.0157933 0)
(1.29223 0.0125064 0)
(1.29319 0.00754256 0)
(1.29359 0.00408978 0)
(1.29137 0.00374661 0)
(1.28619 0.00318996 0)
(1.28283 0.00148873 0)
(1.28458 0.00111309 0)
(1.28597 -0.00317985 0)
(1.2879 -0.00322421 0)
(1.28942 -0.00190984 0)
(1.28589 -0.000931993 0)
(1.28587 -0.00276644 0)
(1.28917 -0.00127545 0)
(1.29099 -0.00349839 0)
(1.29298 -0.0035089 0)
(1.29327 -0.00401738 0)
(1.29301 -0.00586508 0)
(1.2922 -0.00568323 0)
(1.29153 -0.00662424 0)
(1.29306 -0.00917888 0)
(1.29538 -0.0104609 0)
(1.29984 -0.0144129 0)
(1.30389 -0.02242 0)
(1.30676 -0.0293641 0)
(1.31093 -0.0416185 0)
(1.31744 -0.0540587 0)
(1.32576 -0.069947 0)
(1.33474 -0.0881414 0)
(1.34505 -0.11226 0)
(1.35346 -0.140507 0)
(1.36002 -0.178139 0)
(1.36367 -0.215212 0)
(1.36125 -0.256356 0)
(1.0515 0.0681433 0)
(1.08391 0.163766 0)
(1.1308 0.221145 0)
(1.18077 0.239946 0)
(1.22368 0.239519 0)
(1.25803 0.222876 0)
(1.28626 0.192794 0)
(1.30721 0.16312 0)
(1.32034 0.133379 0)
(1.32944 0.106928 0)
(1.34021 0.0846797 0)
(1.3464 0.0661995 0)
(1.34455 0.0508945 0)
(1.34666 0.0366143 0)
(1.35085 0.0260634 0)
(1.35242 0.0204451 0)
(1.3523 0.0151019 0)
(1.35371 0.0114831 0)
(1.35411 0.00701968 0)
(1.35517 0.00357251 0)
(1.35435 0.00166584 0)
(1.34941 0.00131798 0)
(1.34542 0.0012501 0)
(1.34623 0.00120041 0)
(1.3486 -0.000219253 0)
(1.35183 0.000368985 0)
(1.35166 -0.00245629 0)
(1.34901 -0.00170324 0)
(1.35065 -0.000233975 0)
(1.3522 -0.00149163 0)
(1.3541 -0.00136395 0)
(1.35635 -0.00261013 0)
(1.35565 -0.00403016 0)
(1.35583 -0.00702859 0)
(1.3559 -0.00842169 0)
(1.35495 -0.010127 0)
(1.35691 -0.0119299 0)
(1.35989 -0.0119993 0)
(1.36264 -0.0170994 0)
(1.36502 -0.0249582 0)
(1.36787 -0.0328915 0)
(1.3716 -0.0432589 0)
(1.37769 -0.0560625 0)
(1.38487 -0.0715345 0)
(1.39198 -0.0921694 0)
(1.39981 -0.115698 0)
(1.40463 -0.143082 0)
(1.40849 -0.178076 0)
(1.40995 -0.211646 0)
(1.40456 -0.251147 0)
(1.05112 0.0567027 0)
(1.08231 0.14005 0)
(1.12662 0.191307 0)
(1.1781 0.212031 0)
(1.22744 0.211758 0)
(1.26554 0.198163 0)
(1.3003 0.171793 0)
(1.32856 0.146008 0)
(1.34841 0.119904 0)
(1.3643 0.0981489 0)
(1.37879 0.0784332 0)
(1.38886 0.0602124 0)
(1.39119 0.0480724 0)
(1.39495 0.0368861 0)
(1.40179 0.0265743 0)
(1.4045 0.0215643 0)
(1.40467 0.0140267 0)
(1.40611 0.0111206 0)
(1.40746 0.00608329 0)
(1.40898 0.0027666 0)
(1.40895 -0.00123413 0)
(1.4047 -0.00175565 0)
(1.40132 -8.10846e-05 0)
(1.40207 0.00294857 0)
(1.4039 0.00414539 0)
(1.40528 0.00218699 0)
(1.40663 -0.00113979 0)
(1.40595 -0.000479476 0)
(1.40521 0.00127199 0)
(1.40777 0.000417083 0)
(1.40948 8.47255e-05 0)
(1.41071 -0.00130609 0)
(1.41059 -0.00394514 0)
(1.41102 -0.00560629 0)
(1.41131 -0.00872449 0)
(1.41096 -0.0098171 0)
(1.41451 -0.0112747 0)
(1.41546 -0.0132011 0)
(1.41601 -0.0197623 0)
(1.41894 -0.0259885 0)
(1.42165 -0.0343435 0)
(1.42418 -0.0446652 0)
(1.42909 -0.0574318 0)
(1.43437 -0.0735563 0)
(1.43982 -0.0937257 0)
(1.44647 -0.117355 0)
(1.44836 -0.144494 0)
(1.44987 -0.174318 0)
(1.4485 -0.20753 0)
(1.44037 -0.243415 0)
(1.0513 0.0457201 0)
(1.08065 0.116439 0)
(1.1247 0.159257 0)
(1.17607 0.182844 0)
(1.22699 0.182293 0)
(1.26971 0.168443 0)
(1.30946 0.15138 0)
(1.34565 0.127556 0)
(1.37211 0.105926 0)
(1.39277 0.0864792 0)
(1.41105 0.0707001 0)
(1.42548 0.0549237 0)
(1.43084 0.0429661 0)
(1.43503 0.0340011 0)
(1.44431 0.0269056 0)
(1.44771 0.0190553 0)
(1.44921 0.0116855 0)
(1.45217 0.00969099 0)
(1.45229 0.00586419 0)
(1.45392 0.000822659 0)
(1.45477 -0.00139795 0)
(1.45323 -0.00431363 0)
(1.45138 -0.000260224 0)
(1.45161 0.00319876 0)
(1.45093 0.003445 0)
(1.45133 0.00153167 0)
(1.45286 -0.000307168 0)
(1.45349 -0.00194695 0)
(1.45432 0.000816038 0)
(1.45486 0.00362673 0)
(1.45657 0.00134109 0)
(1.45767 5.1989e-05 0)
(1.45743 -0.00340127 0)
(1.45782 -0.00548806 0)
(1.45863 -0.00747162 0)
(1.45933 -0.00759721 0)
(1.46152 -0.0109202 0)
(1.46209 -0.015456 0)
(1.46255 -0.0215708 0)
(1.46486 -0.0287346 0)
(1.4662 -0.037709 0)
(1.46874 -0.046287 0)
(1.4726 -0.0587878 0)
(1.47611 -0.0749591 0)
(1.4798 -0.0931554 0)
(1.48391 -0.116354 0)
(1.48479 -0.144855 0)
(1.48391 -0.17058 0)
(1.47934 -0.202892 0)
(1.47032 -0.23626 0)
(1.05192 0.0348413 0)
(1.07985 0.0928212 0)
(1.12317 0.12842 0)
(1.1749 0.147481 0)
(1.2254 0.148484 0)
(1.27378 0.138528 0)
(1.31881 0.128384 0)
(1.35701 0.108685 0)
(1.38939 0.0892366 0)
(1.4159 0.0728948 0)
(1.43801 0.0595702 0)
(1.45363 0.0462311 0)
(1.4626 0.0350935 0)
(1.47046 0.0288283 0)
(1.47929 0.0257848 0)
(1.48207 0.0153959 0)
(1.48627 0.0120659 0)
(1.49022 0.00684812 0)
(1.48933 0.00360704 0)
(1.49216 4.58534e-05 0)
(1.49291 -0.000187199 0)
(1.49296 -0.00269754 0)
(1.49355 -0.000191393 0)
(1.49182 0.00168859 0)
(1.49016 -0.00172064 0)
(1.49016 -0.000592512 0)
(1.49169 -0.0026802 0)
(1.49359 -0.00120473 0)
(1.49585 0.00102861 0)
(1.4956 0.00268397 0)
(1.49479 0.00209376 0)
(1.49594 -0.00107154 0)
(1.49604 -0.00369917 0)
(1.49778 -0.00753361 0)
(1.49963 -0.00706549 0)
(1.49917 -0.0104979 0)
(1.50019 -0.0115948 0)
(1.50043 -0.0185132 0)
(1.49965 -0.0235797 0)
(1.50172 -0.0308096 0)
(1.50463 -0.0400914 0)
(1.50657 -0.0486144 0)
(1.50765 -0.0605455 0)
(1.51025 -0.0753107 0)
(1.51183 -0.0930336 0)
(1.51283 -0.11582 0)
(1.51242 -0.142647 0)
(1.51065 -0.168103 0)
(1.50237 -0.197486 0)
(1.49091 -0.229029 0)
(1.05285 0.0275119 0)
(1.07963 0.0691531 0)
(1.12093 0.0989129 0)
(1.17238 0.11317 0)
(1.22479 0.115779 0)
(1.27743 0.111864 0)
(1.32504 0.100789 0)
(1.3659 0.0868765 0)
(1.40281 0.0711274 0)
(1.43316 0.0571223 0)
(1.45827 0.0463551 0)
(1.47659 0.0347863 0)
(1.48853 0.0265106 0)
(1.4991 0.0210275 0)
(1.50677 0.0187372 0)
(1.51027 0.0133198 0)
(1.51563 0.0112296 0)
(1.51847 0.0055897 0)
(1.5196 0.00303778 0)
(1.5233 0.00171796 0)
(1.52445 0.00116907 0)
(1.52483 -0.000603089 0)
(1.52554 -0.001124 0)
(1.52195 0.000757397 0)
(1.52102 -0.00230333 0)
(1.52244 -0.0021021 0)
(1.52375 -0.0014882 0)
(1.5266 0.000724409 0)
(1.52802 0.00195889 0)
(1.52735 0.00106303 0)
(1.52631 0.00098322 0)
(1.52657 0.000588208 0)
(1.52662 -0.00294681 0)
(1.5295 -0.00720268 0)
(1.53087 -0.00770475 0)
(1.531 -0.011978 0)
(1.53149 -0.0148254 0)
(1.5302 -0.0218936 0)
(1.53117 -0.0267059 0)
(1.53155 -0.030527 0)
(1.53335 -0.0409194 0)
(1.535 -0.0517449 0)
(1.536 -0.0627637 0)
(1.53663 -0.0768111 0)
(1.53568 -0.093247 0)
(1.53403 -0.114988 0)
(1.53326 -0.138405 0)
(1.52928 -0.164377 0)
(1.5191 -0.193521 0)
(1.50606 -0.219901 0)
(1.05085 0.0222086 0)
(1.07775 0.0482153 0)
(1.1206 0.0686929 0)
(1.17188 0.078875 0)
(1.22608 0.0839012 0)
(1.27914 0.081533 0)
(1.32847 0.0732209 0)
(1.37252 0.0623488 0)
(1.41139 0.0524756 0)
(1.44582 0.0412694 0)
(1.4731 0.0331577 0)
(1.4925 0.0243232 0)
(1.50695 0.0181731 0)
(1.51987 0.0144284 0)
(1.52928 0.00827778 0)
(1.53291 0.00710252 0)
(1.53704 0.00490468 0)
(1.54042 0.00338464 0)
(1.5426 0.00397515 0)
(1.54667 0.00330727 0)
(1.54706 0.00330121 0)
(1.54698 -0.000540888 0)
(1.54974 -0.001472 0)
(1.54651 0.000149101 0)
(1.54362 -0.000205826 0)
(1.54616 -0.000982396 0)
(1.54885 0.00070625 0)
(1.55138 0.00239342 0)
(1.55187 0.00143264 0)
(1.55116 0.00118794 0)
(1.55093 -0.000507027 0)
(1.55042 -0.000435543 0)
(1.54846 -0.00316088 0)
(1.55225 -0.00574431 0)
(1.55463 -0.0108372 0)
(1.55312 -0.0119713 0)
(1.55337 -0.016805 0)
(1.55262 -0.0241491 0)
(1.55461 -0.0291698 0)
(1.55389 -0.0331102 0)
(1.55364 -0.0430503 0)
(1.55569 -0.0527461 0)
(1.55542 -0.0647142 0)
(1.55496 -0.0783404 0)
(1.55246 -0.0942514 0)
(1.54868 -0.112487 0)
(1.54579 -0.133533 0)
(1.53945 -0.158461 0)
(1.52895 -0.184061 0)
(1.51567 -0.20961 0)
(1.04906 0.0132426 0)
(1.07475 0.030162 0)
(1.11824 0.0403327 0)
(1.17189 0.0464389 0)
(1.22717 0.0471989 0)
(1.28055 0.0455267 0)
(1.33058 0.0415278 0)
(1.3768 0.0351009 0)
(1.41826 0.0316549 0)
(1.45321 0.0251668 0)
(1.48224 0.0203608 0)
(1.50394 0.0145829 0)
(1.52015 0.0102323 0)
(1.5317 0.00984181 0)
(1.54127 0.0030764 0)
(1.54772 0.00154128 0)
(1.55291 0.00123851 0)
(1.55732 0.00186906 0)
(1.55931 0.00219033 0)
(1.56254 0.00226726 0)
(1.56147 0.00290666 0)
(1.56151 -0.000126176 0)
(1.56604 0.000283728 0)
(1.56225 -0.000272541 0)
(1.55974 9.47094e-05 0)
(1.56258 0.000839667 0)
(1.56566 0.00130462 0)
(1.56742 0.0029241 0)
(1.56757 0.00259006 0)
(1.56675 0.00216137 0)
(1.56597 0.000976506 0)
(1.56598 -0.00266319 0)
(1.56444 -0.0036144 0)
(1.56614 -0.00495007 0)
(1.56899 -0.0120026 0)
(1.56979 -0.0136084 0)
(1.56722 -0.0151356 0)
(1.56636 -0.022723 0)
(1.57015 -0.0282666 0)
(1.56809 -0.0363726 0)
(1.56706 -0.0430364 0)
(1.56816 -0.0506433 0)
(1.56692 -0.0633412 0)
(1.56572 -0.0751005 0)
(1.5621 -0.0918907 0)
(1.55746 -0.110031 0)
(1.55192 -0.128028 0)
(1.54466 -0.150067 0)
(1.53205 -0.172591 0)
(1.51625 -0.198082 0)
(1.04931 0.00478335 0)
(1.0742 0.00882147 0)
(1.11768 0.0106882 0)
(1.17035 0.014055 0)
(1.22574 0.011703 0)
(1.28129 0.0112112 0)
(1.3325 0.00961885 0)
(1.38055 0.0111385 0)
(1.42218 0.0107581 0)
(1.4578 0.00789587 0)
(1.48706 0.00440922 0)
(1.50827 0.00133152 0)
(1.52668 -0.0017245 0)
(1.53883 -0.000136142 0)
(1.5476 -0.000613208 0)
(1.55517 -0.000216323 0)
(1.56091 -0.000257749 0)
(1.56467 9.98603e-06 0)
(1.56665 -0.00117973 0)
(1.5708 0.000192212 0)
(1.56914 0.000582348 0)
(1.5692 0.0015037 0)
(1.57369 0.000861647 0)
(1.57007 -0.0022909 0)
(1.56824 0.000676484 0)
(1.57113 0.00143151 0)
(1.57448 0.00273869 0)
(1.57643 0.00260867 0)
(1.57589 0.0044788 0)
(1.57481 0.00233391 0)
(1.57313 0.00107422 0)
(1.57272 -0.00148028 0)
(1.5723 -0.00349408 0)
(1.5728 -0.00504393 0)
(1.57527 -0.0104892 0)
(1.57813 -0.012542 0)
(1.57493 -0.015073 0)
(1.57252 -0.0183411 0)
(1.57491 -0.0245985 0)
(1.57408 -0.034657 0)
(1.57455 -0.0413841 0)
(1.57358 -0.0483161 0)
(1.57119 -0.058614 0)
(1.56823 -0.0721563 0)
(1.56226 -0.0871655 0)
(1.55811 -0.105163 0)
(1.55199 -0.123206 0)
(1.54221 -0.143752 0)
(1.52832 -0.1662 0)
(1.50978 -0.189549 0)
(1.04748 -0.00189841 0)
(1.07143 -0.0116926 0)
(1.1175 -0.0161919 0)
(1.17085 -0.0204109 0)
(1.22578 -0.023868 0)
(1.28142 -0.023444 0)
(1.33412 -0.0233703 0)
(1.38225 -0.0166851 0)
(1.42205 -0.0124347 0)
(1.45595 -0.0116098 0)
(1.48506 -0.012422 0)
(1.50756 -0.00944993 0)
(1.52677 -0.0101958 0)
(1.54053 -0.00894662 0)
(1.54901 -0.00680621 0)
(1.55578 -0.00544964 0)
(1.56106 -0.00196042 0)
(1.56439 -0.00312479 0)
(1.5672 -0.0025434 0)
(1.57153 -0.000673198 0)
(1.57021 -0.00263596 0)
(1.56958 0.000715408 0)
(1.57153 -0.00143854 0)
(1.57031 -0.00381597 0)
(1.57041 0.00170439 0)
(1.57229 0.0032989 0)
(1.575 0.00401474 0)
(1.57714 0.00334201 0)
(1.57634 0.00384047 0)
(1.57333 0.00169984 0)
(1.57282 0.000498536 0)
(1.57244 -0.00273184 0)
(1.57175 -0.00468487 0)
(1.57159 -0.0042513 0)
(1.57459 -0.00759391 0)
(1.57786 -0.00855559 0)
(1.57538 -0.0145188 0)
(1.57271 -0.0168166 0)
(1.57242 -0.023229 0)
(1.57094 -0.0304051 0)
(1.57237 -0.0381264 0)
(1.57156 -0.0474105 0)
(1.56693 -0.0563803 0)
(1.5627 -0.069863 0)
(1.55684 -0.0840234 0)
(1.55047 -0.0978281 0)
(1.54346 -0.118685 0)
(1.53239 -0.136926 0)
(1.51706 -0.158455 0)
(1.49833 -0.178632 0)
(1.04672 -0.0128184 0)
(1.07203 -0.0320647 0)
(1.11745 -0.0438639 0)
(1.16833 -0.055106 0)
(1.22471 -0.0596797 0)
(1.28017 -0.0594237 0)
(1.33378 -0.0549257 0)
(1.38294 -0.0473123 0)
(1.42004 -0.0394696 0)
(1.45179 -0.0324808 0)
(1.48151 -0.0260386 0)
(1.50244 -0.0200304 0)
(1.51978 -0.0176325 0)
(1.53336 -0.0155666 0)
(1.54179 -0.0122638 0)
(1.55015 -0.00976041 0)
(1.55438 -0.00655564 0)
(1.55638 -0.00629176 0)
(1.56018 -0.0038794 0)
(1.5629 -0.0028445 0)
(1.56223 -0.00374354 0)
(1.56217 -0.000619175 0)
(1.56339 -0.000460072 0)
(1.56459 -0.000248513 0)
(1.56528 0.0025862 0)
(1.56507 0.00312768 0)
(1.56723 0.00465616 0)
(1.5695 0.0022471 0)
(1.56797 -0.00102237 0)
(1.566 0.00076368 0)
(1.56337 0.0005487 0)
(1.56271 -0.00398394 0)
(1.56512 -0.00392298 0)
(1.56497 -0.00411179 0)
(1.56726 -0.00482941 0)
(1.56893 -0.00787081 0)
(1.56556 -0.0132104 0)
(1.56333 -0.0180398 0)
(1.56297 -0.0239336 0)
(1.5618 -0.0282956 0)
(1.5618 -0.035266 0)
(1.56037 -0.0481006 0)
(1.55573 -0.0562007 0)
(1.54998 -0.0686425 0)
(1.54401 -0.0821504 0)
(1.536 -0.0929473 0)
(1.52727 -0.110524 0)
(1.51628 -0.128515 0)
(1.50002 -0.147397 0)
(1.482 -0.163553 0)
(1.04776 -0.0228188 0)
(1.07338 -0.0527348 0)
(1.11736 -0.0752025 0)
(1.16824 -0.0879401 0)
(1.2239 -0.0925705 0)
(1.27951 -0.0925668 0)
(1.33213 -0.0832334 0)
(1.37853 -0.0731325 0)
(1.41461 -0.062142 0)
(1.44548 -0.0504525 0)
(1.47248 -0.0405299 0)
(1.49094 -0.0323577 0)
(1.50727 -0.0259928 0)
(1.52067 -0.0220842 0)
(1.52891 -0.0155448 0)
(1.53567 -0.0119321 0)
(1.53934 -0.0120667 0)
(1.54213 -0.00872982 0)
(1.54537 -0.00373561 0)
(1.54781 -0.00510395 0)
(1.54781 -0.00256621 0)
(1.54798 -4.51419e-05 0)
(1.54844 0.00115822 0)
(1.54915 0.00198075 0)
(1.54947 0.000903494 0)
(1.55064 0.000763395 0)
(1.55148 0.00347381 0)
(1.55093 9.91092e-05 0)
(1.55259 -0.00350202 0)
(1.55163 -0.00152704 0)
(1.5472 -0.00158256 0)
(1.54746 -0.00250899 0)
(1.5497 -0.00292887 0)
(1.54929 -0.00584078 0)
(1.5511 -0.00748772 0)
(1.55219 -0.0107386 0)
(1.54901 -0.0151922 0)
(1.54629 -0.0192985 0)
(1.5467 -0.0242327 0)
(1.54485 -0.0279714 0)
(1.54168 -0.0354195 0)
(1.5406 -0.0456331 0)
(1.53677 -0.0531966 0)
(1.52971 -0.0664421 0)
(1.52539 -0.0779096 0)
(1.51656 -0.0896548 0)
(1.50458 -0.103417 0)
(1.49278 -0.120007 0)
(1.47776 -0.13577 0)
(1.45919 -0.149223 0)
(1.04918 -0.0313895 0)
(1.0754 -0.0738944 0)
(1.11879 -0.10432 0)
(1.16892 -0.118621 0)
(1.22222 -0.125048 0)
(1.27735 -0.121002 0)
(1.32897 -0.110405 0)
(1.37296 -0.0975696 0)
(1.40627 -0.0823421 0)
(1.43339 -0.067086 0)
(1.45869 -0.0522558 0)
(1.47515 -0.0423715 0)
(1.48831 -0.0311813 0)
(1.50123 -0.0258551 0)
(1.50899 -0.0215077 0)
(1.51291 -0.0152762 0)
(1.517 -0.0111507 0)
(1.52185 -0.00808159 0)
(1.52281 -0.00357556 0)
(1.52388 -0.00444107 0)
(1.52591 -0.00359945 0)
(1.52512 -0.000854558 0)
(1.5253 0.0004799 0)
(1.52535 0.00102117 0)
(1.52556 -0.00251605 0)
(1.52779 -0.00112081 0)
(1.52807 -6.75587e-05 0)
(1.52632 0.00021637 0)
(1.52847 -0.000698784 0)
(1.5286 -0.00193498 0)
(1.52435 -0.00270337 0)
(1.52387 -0.00109734 0)
(1.52535 -0.00461337 0)
(1.52443 -0.00576745 0)
(1.52703 -0.0086642 0)
(1.52758 -0.011701 0)
(1.52416 -0.0163837 0)
(1.52165 -0.0193431 0)
(1.52233 -0.0244391 0)
(1.52039 -0.0290086 0)
(1.51671 -0.0334347 0)
(1.5153 -0.0412702 0)
(1.50954 -0.0494855 0)
(1.50194 -0.0594936 0)
(1.49741 -0.0703729 0)
(1.48825 -0.0845011 0)
(1.4765 -0.0978733 0)
(1.46399 -0.110778 0)
(1.44901 -0.124423 0)
(1.42986 -0.136805 0)
(1.05057 -0.04027 0)
(1.07792 -0.0951774 0)
(1.12151 -0.135208 0)
(1.17035 -0.153362 0)
(1.22207 -0.155799 0)
(1.27503 -0.148055 0)
(1.32209 -0.134309 0)
(1.36246 -0.118748 0)
(1.39369 -0.101741 0)
(1.4191 -0.0807324 0)
(1.43917 -0.0633392 0)
(1.4529 -0.0502426 0)
(1.46444 -0.0369337 0)
(1.47233 -0.0304439 0)
(1.48064 -0.0268263 0)
(1.4871 -0.0179156 0)
(1.48837 -0.00990883 0)
(1.49169 -0.00696176 0)
(1.49228 -0.00673502 0)
(1.49233 -0.00351623 0)
(1.49503 -0.004396 0)
(1.49502 -0.00295767 0)
(1.49451 -0.00114633 0)
(1.49232 -0.00138977 0)
(1.49323 -0.00387901 0)
(1.49709 -0.00154752 0)
(1.49759 -0.00164234 0)
(1.49604 0.000348602 0)
(1.49703 -0.00037285 0)
(1.49612 -0.00146318 0)
(1.49373 -0.00286362 0)
(1.49233 -0.00221972 0)
(1.49331 -0.00664515 0)
(1.49356 -0.00691408 0)
(1.49422 -0.00941497 0)
(1.49477 -0.0126824 0)
(1.49161 -0.0155163 0)
(1.48936 -0.0195371 0)
(1.48962 -0.0229245 0)
(1.48872 -0.0292843 0)
(1.48419 -0.0326386 0)
(1.48132 -0.0400307 0)
(1.47643 -0.0475535 0)
(1.46818 -0.0541572 0)
(1.46167 -0.0657289 0)
(1.45198 -0.07831 0)
(1.44118 -0.0899235 0)
(1.42867 -0.100978 0)
(1.41359 -0.113502 0)
(1.39375 -0.126559 0)
(1.05236 -0.0492848 0)
(1.07986 -0.117056 0)
(1.12254 -0.166285 0)
(1.17354 -0.187044 0)
(1.22321 -0.185641 0)
(1.27123 -0.177846 0)
(1.31391 -0.158581 0)
(1.34864 -0.137462 0)
(1.37704 -0.116495 0)
(1.39866 -0.0938985 0)
(1.41407 -0.0759344 0)
(1.42498 -0.0587436 0)
(1.43202 -0.0458481 0)
(1.43777 -0.0364787 0)
(1.44613 -0.0270717 0)
(1.45239 -0.0202616 0)
(1.45258 -0.0150643 0)
(1.45251 -0.00962807 0)
(1.45355 -0.00866468 0)
(1.45416 -0.00566467 0)
(1.45524 -0.00577719 0)
(1.45578 -0.00470656 0)
(1.4552 -0.00507116 0)