/*--------------------------------*- C++ -*----------------------------------*\
  =========                 |
  \\      /  F ield         | OpenFOAM: The Open Source CFD Toolbox
   \\    /   O peration     | Website:  https://openfoam.org
    \\  /    A nd           | Version:  6
     \\/     M anipulation  |
\*---------------------------------------------------------------------------*/
FoamFile
{
    version     2.0;
    format      ascii;
    class       volVectorField;
    location    "0";
    object      uRec;
}
// * * * * * * * * * * * * * * * * * * * * * * * * * * * * * * * * * * * * * //

dimensions      [0 1 -1 0 0 0 0];

internalField   nonuniform List<vector> 
10000
(
(7.09488e-06 8.51792e-06 0)
(6.92715e-05 -5.07667e-06 0)
(0.000188972 -1.95563e-05 0)
(0.000369211 -3.08532e-05 0)
(0.000601696 -3.92572e-05 0)
(0.000872359 -4.47978e-05 0)
(0.00116584 -4.70474e-05 0)
(0.00146553 -4.57398e-05 0)
(0.00175613 -4.12064e-05 0)
(0.00202494 -3.42141e-05 0)
(0.00226246 -2.58382e-05 0)
(0.00246243 -1.7146e-05 0)
(0.00262186 -8.97596e-06 0)
(0.00274078 -1.96634e-06 0)
(0.00282165 3.38036e-06 0)
(0.00286997 6.45946e-06 0)
(0.00288679 6.87482e-06 0)
(0.00289716 1.6396e-05 0)
(0.0028524 2.21013e-05 0)
(0.0027998 1.71593e-05 0)
(0.00273509 1.6806e-05 0)
(0.00266003 1.67957e-05 0)
(0.00257653 1.65291e-05 0)
(0.00248677 1.60869e-05 0)
(0.00239321 1.52793e-05 0)
(0.00229743 1.43424e-05 0)
(0.00220142 1.33891e-05 0)
(0.00210679 1.22609e-05 0)
(0.00201401 1.11946e-05 0)
(0.00192415 1.03391e-05 0)
(0.00183816 9.41631e-06 0)
(0.00175567 8.463e-06 0)
(0.00167675 7.8082e-06 0)
(0.00160218 7.28778e-06 0)
(0.00153168 6.61388e-06 0)
(0.00146449 5.98434e-06 0)
(0.00140081 5.64171e-06 0)
(0.00134094 5.38766e-06 0)
(0.00128437 4.95399e-06 0)
(0.00123045 4.51582e-06 0)
(0.0011793 4.3118e-06 0)
(0.0011312 4.19326e-06 0)
(0.00108572 3.94121e-06 0)
(0.00104237 3.62372e-06 0)
(0.00100119 3.41734e-06 0)
(0.000962398 3.32662e-06 0)
(0.000925898 3.19096e-06 0)
(0.000891329 2.9528e-06 0)
(0.000858579 2.73699e-06 0)
(0.000827868 2.61879e-06 0)
(0.000799307 2.52582e-06 0)
(0.00077273 2.37169e-06 0)
(0.000747946 2.14769e-06 0)
(0.000724972 1.92521e-06 0)
(0.000704006 1.7653e-06 0)
(0.000685169 1.62706e-06 0)
(0.000668417 1.44408e-06 0)
(0.000653563 1.22434e-06 0)
(0.000640566 9.39939e-07 0)
(0.000629814 8.87568e-07 0)
(0.000620139 1.0827e-06 0)
(0.00061173 1.04111e-06 0)
(0.000604192 9.08708e-07 0)
(0.000597056 8.39317e-07 0)
(0.000590692 6.28698e-07 0)
(0.000585548 3.48246e-07 0)
(0.000582163 1.39566e-07 0)
(0.000580403 -2.06367e-09 0)
(0.000579931 -8.71397e-08 0)
(0.00058041 -1.51445e-07 0)
(0.000581578 -2.05668e-07 0)
(0.000583282 -2.28756e-07 0)
(0.000585468 -2.0657e-07 0)
(0.00058814 -1.78573e-07 0)
(0.000591303 -2.03335e-07 0)
(0.000595026 -2.84746e-07 0)
(0.00059957 -4.13477e-07 0)
(0.000605403 -6.37305e-07 0)
(0.00061314 -1.01055e-06 0)
(0.000623574 -1.5521e-06 0)
(0.000637777 -2.30539e-06 0)
(0.000657101 -3.3644e-06 0)
(0.000683137 -4.82275e-06 0)
(0.000717752 -6.74782e-06 0)
(0.000763093 -9.21635e-06 0)
(0.000821375 -1.22899e-05 0)
(0.000894576 -1.59458e-05 0)
(0.000984109 -2.00729e-05 0)
(0.00109034 -2.44797e-05 0)
(0.00121184 -2.88353e-05 0)
(0.00134447 -3.25742e-05 0)
(0.00148055 -3.48469e-05 0)
(0.00160796 -3.45382e-05 0)
(0.00170818 -2.96157e-05 0)
(0.00175536 -1.81684e-05 0)
(0.0017141 3.47768e-06 0)
(0.00153907 3.91104e-05 0)
(0.00118904 8.76039e-05 0)
(0.000672681 0.000133709 0)
(0.000139011 0.000130746 0)
(1.43456e-05 -3.67048e-05 0)
(0.000176571 -0.000163645 0)
(0.000482474 -0.000288381 0)
(0.000915023 -0.000394282 0)
(0.00145338 -0.000477242 0)
(0.00206958 -0.000533341 0)
(0.00273348 -0.0005605 0)
(0.00341402 -0.000559069 0)
(0.00408271 -0.000532015 0)
(0.00471563 -0.000484181 0)
(0.00529405 -0.000421542 0)
(0.00580445 -0.000350116 0)
(0.00623824 -0.000275346 0)
(0.00659129 -0.000202 0)
(0.00686332 -0.000134131 0)
(0.00705671 -7.4939e-05 0)
(0.00718198 -2.76159e-05 0)
(0.00722015 1.77194e-05 0)
(0.00726972 7.01199e-05 0)
(0.00719437 0.000107879 0)
(0.00710613 0.00012863 0)
(0.00697986 0.0001477 0)
(0.00682264 0.000162771 0)
(0.00664023 0.000173836 0)
(0.00643884 0.000180837 0)
(0.00622373 0.000183968 0)
(0.00599974 0.000184082 0)
(0.0057715 0.000181763 0)
(0.00554222 0.000177439 0)
(0.00531471 0.000171744 0)
(0.00509164 0.000165201 0)
(0.00487455 0.000158056 0)
(0.00466438 0.000150629 0)
(0.00446229 0.000143185 0)
(0.00426887 0.000135827 0)
(0.00408407 0.00012868 0)
(0.00390796 0.000121861 0)
(0.00374056 0.000115413 0)
(0.00358155 0.000109251 0)
(0.00343054 0.000103421 0)
(0.00328727 9.80096e-05 0)
(0.00315153 9.29017e-05 0)
(0.0030228 8.79745e-05 0)
(0.00290067 8.32928e-05 0)
(0.00278504 7.88827e-05 0)
(0.00267578 7.46574e-05 0)
(0.00257255 7.05085e-05 0)
(0.00247505 6.64045e-05 0)
(0.00238321 6.24373e-05 0)
(0.00229711 5.86237e-05 0)
(0.00221671 5.48194e-05 0)
(0.00214177 5.09433e-05 0)
(0.00207214 4.70473e-05 0)
(0.00200789 4.32023e-05 0)
(0.00194919 3.94016e-05 0)
(0.00189605 3.55545e-05 0)
(0.00184826 3.15753e-05 0)
(0.00180571 2.74691e-05 0)
(0.00176905 2.3543e-05 0)
(0.00173684 2.00439e-05 0)
(0.00171125 1.7204e-05 0)
(0.00169002 1.59476e-05 0)
(0.00166908 1.48772e-05 0)
(0.00165096 1.31782e-05 0)
(0.0016341 1.12792e-05 0)
(0.0016193 8.4198e-06 0)
(0.00160866 5.23769e-06 0)
(0.0016021 2.47883e-06 0)
(0.00159902 2.31153e-07 0)
(0.00159872 -1.52367e-06 0)
(0.00160068 -2.86883e-06 0)
(0.00160449 -3.90465e-06 0)
(0.00160987 -4.7459e-06 0)
(0.00161667 -5.57999e-06 0)
(0.00162495 -6.65097e-06 0)
(0.00163495 -8.16736e-06 0)
(0.00164716 -1.0318e-05 0)
(0.00166248 -1.33995e-05 0)
(0.00168223 -1.78115e-05 0)
(0.00170808 -2.39639e-05 0)
(0.00174214 -3.23083e-05 0)
(0.00178701 -4.33836e-05 0)
(0.00184577 -5.77268e-05 0)
(0.0019218 -7.57306e-05 0)
(0.00201873 -9.75696e-05 0)
(0.00214002 -0.000123066 0)
(0.00228832 -0.000151402 0)
(0.00246456 -0.00018089 0)
(0.00266703 -0.00020877 0)
(0.00288996 -0.000230934 0)
(0.00312191 -0.000241578 0)
(0.00334393 -0.000232978 0)
(0.00352857 -0.000195401 0)
(0.00363452 -0.000117674 0)
(0.00361709 1.69616e-05 0)
(0.00340297 0.000224595 0)
(0.00292892 0.000504104 0)
(0.00215258 0.000808241 0)
(0.00113912 0.00098451 0)
(0.000178223 0.000692029 0)
(1.76666e-05 -0.000149612 0)
(0.00024947 -0.000457231 0)
(0.000679766 -0.000743218 0)
(0.00127536 -0.000987644 0)
(0.00200443 -0.0011791 0)
(0.00283007 -0.00130888 0)
(0.00371466 -0.00137415 0)
(0.00462196 -0.00137773 0)
(0.00551962 -0.00132676 0)
(0.00638037 -0.00123114 0)
(0.00718247 -0.00110204 0)
(0.00790959 -0.000950567 0)
(0.0085502 -0.000786955 0)
(0.009097 -0.000620225 0)
(0.00954648 -0.000458051 0)
(0.00989783 -0.000306538 0)
(0.0101537 -0.000170349 0)
(0.0103223 -5.57829e-05 0)
(0.0103971 6.34918e-05 0)
(0.0104273 0.000164953 0)
(0.0103794 0.000228656 0)
(0.0102773 0.000293757 0)
(0.0101205 0.000349628 0)
(0.00991966 0.00039325 0)
(0.00968281 0.0004255 0)
(0.00941741 0.000447082 0)
(0.00913083 0.000459198 0)
(0.00882916 0.00046367 0)
(0.00851749 0.000461888 0)
(0.00820122 0.000454923 0)
(0.00788475 0.00044409 0)
(0.00757072 0.000430479 0)
(0.0072619 0.000414806 0)
(0.00696123 0.00039787 0)
(0.00667009 0.000380366 0)
(0.00638895 0.000362662 0)
(0.00611893 0.000344988 0)
(0.00586093 0.00032776 0)
(0.00561476 0.000311235 0)
(0.00537997 0.000295351 0)
(0.00515659 0.000280053 0)
(0.00494469 0.000265465 0)
(0.00474377 0.000251623 0)
(0.0045531 0.000238432 0)
(0.0043724 0.000225714 0)
(0.00420162 0.000213352 0)
(0.00404046 0.000201392 0)
(0.00388845 0.000189819 0)
(0.00374534 0.000178496 0)
(0.00361108 0.000167308 0)
(0.0034856 0.000156196 0)
(0.00336875 0.000145165 0)
(0.00326033 0.000134247 0)
(0.00316024 0.000123426 0)
(0.00306851 0.000112614 0)
(0.00298514 0.000101737 0)
(0.00290991 9.07662e-05 0)
(0.00284269 7.96966e-05 0)
(0.00278294 6.87875e-05 0)
(0.0027325 5.83764e-05 0)
(0.00268891 4.89815e-05 0)
(0.00265212 4.16961e-05 0)
(0.0026285 3.82931e-05 0)
(0.00260098 3.58381e-05 0)
(0.0025778 3.18147e-05 0)
(0.00255423 2.57065e-05 0)
(0.00253427 1.74984e-05 0)
(0.00252094 9.63049e-06 0)
(0.00251304 3.18129e-06 0)
(0.00250966 -1.97138e-06 0)
(0.00250998 -6.00388e-06 0)
(0.00251338 -9.25685e-06 0)
(0.00251941 -1.20919e-05 0)
(0.00252777 -1.48653e-05 0)
(0.00253843 -1.80254e-05 0)
(0.00255167 -2.21152e-05 0)
(0.00256809 -2.76959e-05 0)
(0.00258866 -3.54062e-05 0)
(0.00261485 -4.60628e-05 0)
(0.0026486 -6.06179e-05 0)
(0.00269232 -8.00689e-05 0)
(0.00274884 -0.00010543 0)
(0.00282148 -0.000137636 0)
(0.00291377 -0.000177286 0)
(0.00302924 -0.000224364 0)
(0.00317095 -0.00027793 0)
(0.00334069 -0.000335632 0)
(0.00353792 -0.000393129 0)
(0.00375855 -0.000443578 0)
(0.0039934 -0.000477146 0)
(0.00422638 -0.000480512 0)
(0.00443247 -0.000436456 0)
(0.00457582 -0.000323992 0)
(0.0046099 -0.00011935 0)
(0.00446868 0.000208218 0)
(0.00408688 0.00067708 0)
(0.00340737 0.00126331 0)
(0.00241411 0.00184634 0)
(0.00121895 0.00210614 0)
(0.000164766 0.00138157 0)
(1.91477e-05 -0.000293253 0)
(0.000294172 -0.000831041 0)
(0.000802921 -0.00131195 0)
(0.00150039 -0.0017178 0)
(0.002346 -0.00203268 0)
(0.00329624 -0.00224546 0)
(0.00430879 -0.00235423 0)
(0.00534532 -0.00236547 0)
(0.00637277 -0.00229166 0)
(0.0073639 -0.00214847 0)
(0.00829716 -0.00195239 0)
(0.00915626 -0.00171945 0)
(0.00992942 -0.00146427 0)
(0.0106086 -0.0011996 0)
(0.0111892 -0.000936309 0)
(0.0116688 -0.000683408 0)
(0.0120489 -0.000448018 0)
(0.0123314 -0.000236061 0)
(0.0125024 -5.50475e-05 0)
(0.0126889 0.000118321 0)
(0.0126677 0.000286128 0)
(0.0126205 0.000412034 0)
(0.0125039 0.000522115 0)
(0.0123308 0.000612262 0)
(0.0121102 0.000683029 0)
(0.0118485 0.000735995 0)
(0.0115534 0.000772615 0)
(0.0112323 0.000794859 0)
(0.0108909 0.000804958 0)
(0.0105351 0.000804782 0)
(0.0101709 0.000796077 0)
(0.00980268 0.000780654 0)
(0.00943422 0.000760061 0)
(0.00906952 0.000735599 0)
(0.00871139 0.000708443 0)
(0.00836167 0.000679639 0)
(0.00802243 0.000650001 0)
(0.00769535 0.000620139 0)
(0.00738097 0.000590519 0)
(0.00707959 0.000561495 0)
(0.00679183 0.000533296 0)
(0.00651804 0.000506103 0)
(0.00625781 0.000479929 0)
(0.00601061 0.000454665 0)
(0.00577631 0.00043026 0)
(0.00555495 0.000406692 0)
(0.00534615 0.000383881 0)
(0.00514928 0.000361668 0)
(0.00496399 0.000339878 0)
(0.00479027 0.000318411 0)
(0.00462803 0.000297248 0)
(0.00447697 0.000276368 0)
(0.00433675 0.000255697 0)
(0.00420719 0.000235151 0)
(0.00408827 0.000214695 0)
(0.00397993 0.000194368 0)
(0.00388189 0.000174208 0)
(0.00379378 0.000154204 0)
(0.00371537 0.000134205 0)
(0.00364584 0.000114487 0)
(0.00358712 9.5863e-05 0)
(0.00353969 7.91143e-05 0)
(0.00349605 6.64678e-05 0)
(0.00347428 6.11535e-05 0)
(0.00344722 5.86875e-05 0)
(0.00342073 5.20685e-05 0)
(0.00339137 3.8827e-05 0)
(0.00336862 2.38286e-05 0)
(0.00335371 1.13414e-05 0)
(0.00334466 1.33025e-06 0)
(0.0033405 -6.70214e-06 0)
(0.00334039 -1.32711e-05 0)
(0.00334378 -1.89884e-05 0)
(0.00335027 -2.44867e-05 0)
(0.00335963 -3.04669e-05 0)
(0.003372 -3.77719e-05 0)
(0.00338793 -4.7362e-05 0)
(0.0034083 -6.02995e-05 0)
(0.00343439 -7.78259e-05 0)
(0.00346795 -0.000101381 0)
(0.00351115 -0.000132464 0)
(0.00356655 -0.000172483 0)
(0.00363699 -0.00022262 0)
(0.00372543 -0.000283514 0)
(0.00383462 -0.000354774 0)
(0.00396663 -0.000434386 0)
(0.00412207 -0.000518043 0)
(0.004299 -0.000598305 0)
(0.00449159 -0.000663755 0)
(0.00468867 -0.00069822 0)
(0.00487188 -0.000680146 0)
(0.00501367 -0.000582152 0)
(0.00507534 -0.000372278 0)
(0.00500822 -1.10321e-05 0)
(0.0047482 0.000537387 0)
(0.0042388 0.00128326 0)
(0.00343991 0.00217029 0)
(0.00236164 0.00299367 0)
(0.00114238 0.00326564 0)
(0.00013675 0.00204509 0)
(1.92501e-05 -0.000451789 0)
(0.000320044 -0.00125112 0)
(0.000878877 -0.00195002 0)
(0.0016409 -0.00253106 0)
(0.00255794 -0.00297583 0)
(0.0035811 -0.00327353 0)
(0.00466474 -0.00342547 0)
(0.00576933 -0.00344361 0)
(0.0068622 -0.00334669 0)
(0.00791739 -0.00315648 0)
(0.00891493 -0.0028951 0)
(0.00983995 -0.00258326 0)
(0.0106819 -0.00223965 0)
(0.0114337 -0.00188023 0)
(0.0120908 -0.00151839 0)
(0.0126508 -0.00116539 0)
(0.0131128 -0.000829747 0)
(0.0134758 -0.000520453 0)
(0.0137493 -0.000249858 0)
(0.0138724 2.02174e-05 0)
(0.0140398 0.000258807 0)
(0.0140719 0.000457693 0)
(0.0140376 0.00063523 0)
(0.0139295 0.000784886 0)
(0.0137618 0.000906672 0)
(0.0135424 0.00100268 0)
(0.0132792 0.00107512 0)
(0.0129796 0.00112629 0)
(0.0126499 0.00115861 0)
(0.0122967 0.00117458 0)
(0.0119263 0.00117664 0)
(0.0115437 0.00116702 0)
(0.0111534 0.00114779 0)
(0.0107606 0.00112091 0)
(0.010369 0.00108824 0)
(0.00998138 0.00105132 0)
(0.00960069 0.0010114 0)
(0.00922971 0.000969612 0)
(0.00887001 0.000926928 0)
(0.00852265 0.00088412 0)
(0.00818889 0.000841685 0)
(0.00786973 0.000799945 0)
(0.0075653 0.000759172 0)
(0.0072755 0.00071954 0)
(0.00700051 0.000681069 0)
(0.00674049 0.000643714 0)
(0.00649514 0.000607384 0)
(0.0062639 0.000571929 0)
(0.00604646 0.000537213 0)
(0.00584276 0.000503158 0)
(0.00565263 0.000469695 0)
(0.00547568 0.000436695 0)
(0.00531142 0.000404055 0)
(0.00515957 0.00037175 0)
(0.0050201 0.000339796 0)
(0.00489287 0.00030824 0)
(0.00477744 0.000277136 0)
(0.00467327 0.000246513 0)
(0.00457998 0.00021635 0)
(0.00449715 0.000186498 0)
(0.00442419 0.000157123 0)
(0.00436121 0.000129739 0)
(0.00431352 0.000105672 0)
(0.00426765 8.75449e-05 0)
(0.00424886 8.18367e-05 0)
(0.00422857 8.07543e-05 0)
(0.00419904 6.98e-05 0)
(0.00416475 4.8005e-05 0)
(0.00414099 2.71333e-05 0)
(0.00412409 1.10789e-05 0)
(0.00411285 -1.89096e-06 0)
(0.00410639 -1.25875e-05 0)
(0.00410396 -2.18218e-05 0)
(0.00410502 -3.05372e-05 0)
(0.00410921 -3.97063e-05 0)
(0.00411647 -5.04232e-05 0)
(0.00412715 -6.39918e-05 0)
(0.00414186 -8.18979e-05 0)
(0.00416153 -0.000105782 0)
(0.00418751 -0.000137438 0)
(0.00422151 -0.000178721 0)
(0.00426549 -0.000231352 0)
(0.00432152 -0.000296664 0)
(0.00439172 -0.00037517 0)
(0.00447794 -0.000465939 0)
(0.00458124 -0.000565789 0)
(0.00470117 -0.00066837 0)
(0.00483478 -0.000763082 0)
(0.00497533 -0.000833911 0)
(0.00511087 -0.000858405 0)
(0.0052226 -0.000806913 0)
(0.00528239 -0.000642221 0)
(0.00525398 -0.000320529 0)
(0.0050849 0.000206718 0)
(0.00472504 0.000976196 0)
(0.00412732 0.00198515 0)
(0.00326878 0.003138 0)
(0.00218037 0.00414421 0)
(0.00101245 0.00436345 0)
(0.000107537 0.0026341 0)
(1.88441e-05 -0.00061981 0)
(0.000336466 -0.00170107 0)
(0.000929377 -0.00263342 0)
(0.0017339 -0.00339749 0)
(0.00269463 -0.00397337 0)
(0.00375816 -0.00435292 0)
(0.00487639 -0.00454332 0)
(0.00600933 -0.00456383 0)
(0.00712527 -0.00444048 0)
(0.00819996 -0.00420167 0)
(0.00921553 -0.00387528 0)
(0.0101592 -0.00348671 0)
(0.0110225 -0.00305827 0)
(0.0118001 -0.00260896 0)
(0.0124889 -0.00215415 0)
(0.0130877 -0.00170649 0)
(0.0135966 -0.00127579 0)
(0.0140158 -0.000869851 0)
(0.0143499 -0.000496046 0)
(0.0145915 -0.000178368 0)
(0.0147862 0.000112594 0)
(0.0148651 0.000414211 0)
(0.0148936 0.000671357 0)
(0.0148492 0.000889404 0)
(0.0147436 0.00107082 0)
(0.0145824 0.00121854 0)
(0.014372 0.0013353 0)
(0.014119 0.00142396 0)
(0.0138289 0.00148732 0)
(0.013508 0.00152814 0)
(0.0131625 0.00154916 0)
(0.0127974 0.00155312 0)
(0.0124175 0.00154266 0)
(0.0120282 0.00152013 0)
(0.0116337 0.00148777 0)
(0.0112374 0.00144762 0)
(0.010843 0.00140147 0)
(0.0104542 0.001351 0)
(0.0100731 0.0012976 0)
(0.00970177 0.00124236 0)
(0.00934208 0.00118624 0)
(0.00899581 0.00112998 0)
(0.00866386 0.00107414 0)
(0.00834664 0.00101911 0)
(0.00804469 0.000965157 0)
(0.00775859 0.00091234 0)
(0.00748836 0.000860667 0)
(0.00723362 0.000810146 0)
(0.00699418 0.000760709 0)
(0.00677004 0.000712231 0)
(0.00656097 0.000664624 0)
(0.00636646 0.000617787 0)
(0.00618602 0.00057163 0)
(0.00601934 0.000526136 0)
(0.0058662 0.000481341 0)
(0.00572633 0.000437302 0)
(0.00559921 0.000394089 0)
(0.0054842 0.000351765 0)
(0.00538075 0.000310391 0)
(0.00528838 0.000270031 0)
(0.0052065 0.000230744 0)
(0.00513477 0.000192369 0)
(0.0050711 0.000156706 0)
(0.00502611 0.00012594 0)
(0.00497964 0.000102605 0)
(0.00497166 0.000100188 0)
(0.00495431 0.000100053 0)
(0.00492081 8.15774e-05 0)
(0.00488348 5.35079e-05 0)
(0.00485796 2.93878e-05 0)
(0.0048378 1.08543e-05 0)
(0.00482272 -4.42684e-06 0)
(0.00481188 -1.75103e-05 0)
(0.00480456 -2.95573e-05 0)
(0.00480029 -4.18168e-05 0)
(0.00479877 -5.56608e-05 0)
(0.00480002 -7.26813e-05 0)
(0.00480435 -9.46774e-05 0)
(0.00481234 -0.000123589 0)
(0.00482485 -0.000161479 0)
(0.00484298 -0.000210461 0)
(0.00486799 -0.000272486 0)
(0.0049012 -0.000348935 0)
(0.00494388 -0.000440097 0)
(0.00499703 -0.000544457 0)
(0.00506087 -0.000657724 0)
(0.00513421 -0.000771621 0)
(0.00521352 -0.000872504 0)
(0.0052918 -0.000939931 0)
(0.00535708 -0.000945483 0)
(0.00539102 -0.000851886 0)
(0.00536666 -0.0006128 0)
(0.00524828 -0.000175177 0)
(0.00499267 0.000516369 0)
(0.00455519 0.00149439 0)
(0.00390056 0.00274032 0)
(0.00302022 0.00411647 0)
(0.00196064 0.00524958 0)
(0.000875276 0.00536621 0)
(8.21257e-05 0.00314054 0)
(1.88643e-05 -0.000794651 0)
(0.000349692 -0.00217221 0)
(0.00096759 -0.00334755 0)
(0.00180071 -0.0042974 0)
(0.00278681 -0.00500125 0)
(0.00386855 -0.00545608 0)
(0.00499635 -0.00567732 0)
(0.00613046 -0.00569313 0)
(0.00724054 -0.00553787 0)
(0.00830425 -0.00524709 0)
(0.009306 -0.00485456 0)
(0.0102355 -0.00439046 0)
(0.0110862 -0.00388052 0)
(0.0118552 -0.00334642 0)
(0.0125411 -0.00280565 0)
(0.0131439 -0.00227197 0)
(0.0136648 -0.0017564 0)
(0.014105 -0.00126795 0)
(0.0144666 -0.000813834 0)
(0.0147487 -0.000406193 0)
(0.0149431 -2.29811e-05 0)
(0.0151012 0.000331674 0)
(0.0151909 0.00065286 0)
(0.0152114 0.000932709 0)
(0.0151702 0.00117223 0)
(0.0150724 0.00137339 0)
(0.0149235 0.00153815 0)
(0.0147291 0.00166908 0)
(0.014494 0.00176896 0)
(0.0142235 0.00184072 0)
(0.0139233 0.00188731 0)
(0.0135979 0.00191166 0)
(0.0132518 0.00191662 0)
(0.0128902 0.0019049 0)
(0.0125175 0.00187905 0)
(0.0121372 0.00184148 0)
(0.0117533 0.00179439 0)
(0.01137 0.00173975 0)
(0.0109899 0.0016794 0)
(0.0106156 0.00161487 0)
(0.0102498 0.00154745 0)
(0.00989483 0.00147836 0)
(0.00955216 0.00140851 0)
(0.00922287 0.00133854 0)
(0.00890809 0.00126895 0)
(0.00860878 0.00120017 0)
(0.00832543 0.00113245 0)
(0.00805803 0.00106591 0)
(0.00780655 0.00100059 0)
(0.00757109 0.000936458 0)
(0.00735158 0.000873503 0)
(0.00714755 0.000811681 0)
(0.00695845 0.000750947 0)
(0.00678387 0.000691303 0)
(0.00662357 0.000632801 0)
(0.00647718 0.000575514 0)
(0.00634399 0.000519526 0)
(0.00622323 0.000464952 0)
(0.00611432 0.000411944 0)
(0.00601675 0.000360665 0)
(0.00592982 0.000311244 0)
(0.00585273 0.000263702 0)
(0.00578494 0.000217402 0)
(0.00572331 0.000174605 0)
(0.00568311 0.000137654 0)
(0.00563147 0.000110991 0)
(0.00564668 0.000116993 0)
(0.00561931 0.000117677 0)
(0.00558089 8.95368e-05 0)
(0.00554506 5.7942e-05 0)
(0.00551675 3.31914e-05 0)
(0.00549212 1.3235e-05 0)
(0.00547142 -3.64895e-06 0)
(0.00545386 -1.87829e-05 0)
(0.00543878 -3.36925e-05 0)
(0.00542573 -5.00259e-05 0)
(0.00541446 -6.95703e-05 0)
(0.00540499 -9.43027e-05 0)
(0.00539752 -0.000126402 0)
(0.0053924 -0.000168173 0)
(0.00539014 -0.000221895 0)
(0.00539138 -0.000289594 0)
(0.00539674 -0.000372641 0)
(0.00540678 -0.000471148 0)
(0.00542175 -0.000583076 0)
(0.00544125 -0.000703103 0)
(0.00546367 -0.000821189 0)
(0.00548532 -0.000920937 0)
(0.00549932 -0.000977908 0)
(0.00549418 -0.000958289 0)
(0.00545264 -0.000817918 0)
(0.00534865 -0.000502228 0)
(0.00515148 5.2459e-05 0)
(0.00482275 0.000899441 0)
(0.00432671 0.00206815 0)
(0.00363726 0.00352111 0)
(0.00275753 0.00507802 0)
(0.00174479 0.00628858 0)
(0.000750213 0.00626662 0)
(6.19564e-05 0.00356999 0)
(1.95844e-05 -0.000975986 0)
(0.000362543 -0.00266084 0)
(0.000999614 -0.00408391 0)
(0.00185122 -0.00521743 0)
(0.00284892 -0.00604239 0)
(0.00393236 -0.00656333 0)
(0.00505138 -0.0068059 0)
(0.00616707 -0.00680849 0)
(0.00725071 -0.00661459 0)
(0.00828205 -0.00626736 0)
(0.00924771 -0.0058065 0)
(0.0101399 -0.00526699 0)
(0.0109547 -0.00467809 0)
(0.0116909 -0.0040637 0)
(0.0123494 -0.00344298 0)
(0.0129318 -0.00283059 0)
(0.0134406 -0.00223766 0)
(0.0138776 -0.00167297 0)
(0.014243 -0.00114348 0)
(0.0145433 -0.000657645 0)
(0.014753 -0.000228187 0)
(0.0149321 0.000168184 0)
(0.0150747 0.000563421 0)
(0.0151477 0.000911025 0)
(0.0151625 0.00121008 0)
(0.0151236 0.00146518 0)
(0.0150351 0.00167878 0)
(0.0149019 0.00185354 0)
(0.0147274 0.00199246 0)
(0.0145159 0.00209856 0)
(0.0142721 0.00217491 0)
(0.0139995 0.00222444 0)
(0.0137021 0.00225002 0)
(0.0133847 0.00225457 0)
(0.0130512 0.00224083 0)
(0.0127051 0.00221131 0)
(0.0123505 0.00216851 0)
(0.0119914 0.00211469 0)
(0.0116309 0.00205192 0)
(0.0112719 0.0019821 0)
(0.0109174 0.00190694 0)
(0.0105704 0.00182789 0)
(0.0102327 0.00174623 0)
(0.00990583 0.00166301 0)
(0.00959159 0.00157906 0)
(0.00929153 0.00149506 0)
(0.00900644 0.00141157 0)
(0.00873664 0.00132897 0)
(0.00848248 0.00124746 0)
(0.00824439 0.00116722 0)
(0.00802239 0.00108836 0)
(0.0078161 0.00101096 0)
(0.00762506 0.000935081 0)
(0.00744893 0.000860784 0)
(0.00728732 0.000788128 0)
(0.00713977 0.000717217 0)
(0.00700554 0.000648208 0)
(0.00688381 0.000581284 0)
(0.00677387 0.000516635 0)
(0.00667506 0.000454452 0)
(0.00658665 0.000394924 0)
(0.00650781 0.000338191 0)
(0.00643751 0.000284183 0)
(0.00637454 0.000231932 0)
(0.00631721 0.000184624 0)
(0.0062798 0.000142377 0)
(0.00622699 0.000122023 0)
(0.00625985 0.000135671 0)
(0.0062225 0.000129031 0)
(0.00617876 9.48625e-05 0)
(0.00614366 6.37775e-05 0)
(0.00611051 4.03781e-05 0)
(0.00607988 2.0711e-05 0)
(0.00605146 3.26849e-06 0)
(0.0060245 -1.34579e-05 0)
(0.00599846 -3.1238e-05 0)
(0.00597296 -5.19952e-05 0)
(0.00594771 -7.78427e-05 0)
(0.00592254 -0.000111101 0)
(0.00589741 -0.00015421 0)
(0.00587238 -0.000209541 0)
(0.0058475 -0.000279142 0)
(0.00582279 -0.000364356 0)
(0.0057982 -0.000465143 0)
(0.00577346 -0.00057904 0)
(0.00574775 -0.000699793 0)
(0.00571921 -0.000815771 0)
(0.00568415 -0.000908063 0)
(0.00563598 -0.000948457 0)
(0.00556378 -0.000897802 0)
(0.0054512 -0.000704468 0)
(0.00527612 -0.000306259 0)
(0.00501672 0.000350984 0)
(0.00462753 0.0013412 0)
(0.00408688 0.0026804 0)
(0.00337729 0.0043105 0)
(0.00251054 0.0060092 0)
(0.00155086 0.00725578 0)
(0.000643868 0.00707071 0)
(4.67537e-05 0.00393372 0)
(2.07762e-05 -0.00116388 0)
(0.000375339 -0.00316434 0)
(0.00102697 -0.00483583 0)
(0.00188835 -0.00614706 0)
(0.00288612 -0.0070834 0)
(0.00395798 -0.00765942 0)
(0.00505395 -0.0079127 0)
(0.00613636 -0.00789287 0)
(0.00717823 -0.00765302 0)
(0.00816157 -0.00724426 0)
(0.00907529 -0.00671248 0)
(0.00991392 -0.00609722 0)
(0.010676 -0.00543134 0)
(0.0113627 -0.004741 0)
(0.0119769 -0.00404647 0)
(0.0125221 -0.00336308 0)
(0.0130023 -0.00270192 0)
(0.0134206 -0.00207092 0)
(0.0137792 -0.00147588 0)
(0.0140822 -0.00092063 0)
(0.0143253 -0.000418053 0)
(0.0144985 7.24078e-06 0)
(0.0146682 0.000436874 0)
(0.0147749 0.000843043 0)
(0.0148284 0.00119541 0)
(0.0148374 0.00150009 0)
(0.0148028 0.00175965 0)
(0.0147274 0.00197676 0)
(0.0146131 0.00215452 0)
(0.0144626 0.00229589 0)
(0.0142791 0.00240386 0)
(0.0140654 0.00248136 0)
(0.0138246 0.00253114 0)
(0.0135607 0.00255597 0)
(0.0132772 0.00255867 0)
(0.0129773 0.00254184 0)
(0.0126647 0.00250796 0)
(0.0123433 0.00245953 0)
(0.0120163 0.00239887 0)
(0.0116866 0.00232803 0)
(0.0113575 0.00224897 0)
(0.0110319 0.00216347 0)
(0.0107124 0.0020731 0)
(0.0104007 0.00197923 0)
(0.010099 0.00188306 0)
(0.00980917 0.00178555 0)
(0.00953255 0.00168755 0)
(0.00926984 0.00158975 0)
(0.00902165 0.00149264 0)
(0.00878867 0.0013966 0)
(0.00857127 0.00130196 0)
(0.00836929 0.00120901 0)
(0.00818232 0.00111795 0)
(0.00800999 0.0010289 0)
(0.00785203 0.000942016 0)
(0.007708 0.000857518 0)
(0.00757712 0.000775636 0)
(0.00745843 0.000696557 0)
(0.00735114 0.000620493 0)
(0.00725458 0.000547724 0)
(0.007168 0.000478525 0)
(0.00709048 0.000413066 0)
(0.00702093 0.000351364 0)
(0.00695834 0.000293087 0)
(0.00689982 0.000237137 0)
(0.00685271 0.000188002 0)
(0.00680712 0.000141743 0)
(0.00679049 0.000137327 0)
(0.00680013 0.000155667 0)
(0.00675798 0.000138318 0)
(0.00671106 0.000104758 0)
(0.00667118 7.71696e-05 0)
(0.00663097 5.55367e-05 0)
(0.00659188 3.68349e-05 0)
(0.00655312 1.94801e-05 0)
(0.00651394 1.61833e-06 0)
(0.00647378 -1.88087e-05 0)
(0.00643217 -4.40018e-05 0)
(0.00638866 -7.63001e-05 0)
(0.00634289 -0.000118165 0)
(0.00629454 -0.000172035 0)
(0.00624323 -0.000240002 0)
(0.00618847 -0.000323349 0)
(0.00612972 -0.000421872 0)
(0.00606638 -0.000532774 0)
(0.00599741 -0.000649098 0)
(0.00592087 -0.000757895 0)
(0.00583341 -0.000838123 0)
(0.00572926 -0.00085839 0)
(0.00559947 -0.000775336 0)
(0.0054276 -0.000534356 0)
(0.00520314 -7.72945e-05 0)
(0.00486883 0.000704866 0)
(0.00443186 0.00182928 0)
(0.00385809 0.00331918 0)
(0.0031385 0.00509848 0)
(0.00229123 0.00690476 0)
(0.00138455 0.00815375 0)
(0.000556824 0.00778981 0)
(3.56654e-05 0.00424386 0)
(2.22112e-05 -0.00135833 0)
(0.000387265 -0.00367977 0)
(0.00104867 -0.0055969 0)
(0.0019116 -0.00707693 0)
(0.00289918 -0.00811293 0)
(0.00394825 -0.00873197 0)
(0.00500954 -0.00898482 0)
(0.00604691 -0.00893311 0)
(0.00703531 -0.00863991 0)
(0.00795887 -0.00816437 0)
(0.00880895 -0.00755886 0)
(0.00958241 -0.00686757 0)
(0.0102801 -0.00612662 0)
(0.0109056 -0.00536439 0)
(0.0114637 -0.00460225 0)
(0.01196 -0.00385583 0)
(0.0123998 -0.00313606 0)
(0.0127878 -0.00245042 0)
(0.0131282 -0.00180416 0)
(0.0134249 -0.0011999 0)
(0.013677 -0.000650737 0)
(0.0138938 -0.000172853 0)
(0.0140348 0.000293875 0)
(0.0141691 0.000753016 0)
(0.0142468 0.00114748 0)
(0.0142953 0.00149145 0)
(0.0143083 0.00178924 0)
(0.014286 0.00204358 0)
(0.0142283 0.00225722 0)
(0.0141366 0.00243263 0)
(0.014013 0.00257227 0)
(0.0138591 0.00267871 0)
(0.013677 0.00275453 0)
(0.0134705 0.00280221 0)
(0.0132423 0.00282433 0)
(0.0129949 0.00282355 0)
(0.0127317 0.00280237 0)
(0.0124566 0.00276324 0)
(0.0121724 0.00270859 0)
(0.0118816 0.00264066 0)
(0.0115878 0.00256155 0)
(0.0112941 0.00247324 0)
(0.0110029 0.00237754 0)
(0.0107163 0.00227609 0)
(0.0104367 0.00217038 0)
(0.0101664 0.0020617 0)
(0.00990697 0.00195119 0)
(0.00965935 0.00183981 0)
(0.00942451 0.00172836 0)
(0.00920352 0.00161756 0)
(0.00899697 0.00150798 0)
(0.00880485 0.00140008 0)
(0.00862695 0.00129424 0)
(0.00846306 0.00119082 0)
(0.00831298 0.00109012 0)
(0.00817633 0.000992413 0)
(0.00805227 0.000898009 0)
(0.00793985 0.000807185 0)
(0.00783828 0.000720239 0)
(0.00774686 0.000637478 0)
(0.0076647 0.000559186 0)
(0.00759084 0.000485588 0)
(0.00752416 0.000416792 0)
(0.00746332 0.000352676 0)
(0.00740745 0.000292342 0)
(0.00735022 0.000235231 0)
(0.00731242 0.000184372 0)
(0.00724153 0.000146462 0)
(0.00727603 0.00016324 0)
(0.00724912 0.000175637 0)
(0.00720506 0.000149682 0)
(0.00716025 0.000121122 0)
(0.00711463 9.93739e-05 0)
(0.0070669 8.11552e-05 0)
(0.00701778 6.46738e-05 0)
(0.00696651 4.82294e-05 0)
(0.00691252 2.97793e-05 0)
(0.00685529 7.11309e-06 0)
(0.00679422 -2.20945e-05 0)
(0.00672868 -6.02716e-05 0)
(0.00665803 -0.000109858 0)
(0.00658159 -0.00017298 0)
(0.00649853 -0.000250876 0)
(0.00640792 -0.000343179 0)
(0.00630885 -0.000446816 0)
(0.00620012 -0.000554338 0)
(0.00607975 -0.00065177 0)
(0.00594451 -0.000716263 0)
(0.00578909 -0.000713609 0)
(0.00560477 -0.000596046 0)
(0.00537898 -0.000301176 0)
(0.00508259 0.000254845 0)
(0.00471419 0.00111449 0)
(0.00424217 0.0023522 0)
(0.00364795 0.00397351 0)
(0.00292658 0.00587791 0)
(0.00210211 0.0077633 0)
(0.00124541 0.00898838 0)
(0.000487012 0.0084364 0)
(2.77262e-05 0.00451133 0)
(2.37594e-05 -0.00155887 0)
(0.000397198 -0.00420367 0)
(0.00106291 -0.00636045 0)
(0.00191939 -0.00799813 0)
(0.00288739 -0.00912087 0)
(0.00390397 -0.00977046 0)
(0.00492094 -0.0100118 0)
(0.00590386 -0.00991887 0)
(0.00682971 -0.00956505 0)
(0.00768474 -0.00901774 0)
(0.00846261 -0.00833577 0)
(0.0091626 -0.00756819 0)
(0.00978787 -0.00675429 0)
(0.0103442 -0.00592434 0)
(0.0108385 -0.00510064 0)
(0.0112779 -0.00429891 0)
(0.0116692 -0.00352953 0)
(0.0120179 -0.00279931 0)
(0.0123297 -0.0021131 0)
(0.0126047 -0.00147507 0)
(0.0128544 -0.000891182 0)
(0.0130999 -0.000344126 0)
(0.0131824 0.000161375 0)
(0.0133554 0.000642004 0)
(0.013464 0.00106372 0)
(0.0135556 0.00143842 0)
(0.0136156 0.00176883 0)
(0.0136434 0.00205662 0)
(0.0136386 0.00230346 0)
(0.0136017 0.00251119 0)
(0.0135345 0.00268172 0)
(0.0134379 0.00281705 0)
(0.0133135 0.00291939 0)
(0.0131641 0.00299109 0)
(0.0129921 0.00303447 0)
(0.0127994 0.00305198 0)
(0.0125891 0.00304612 0)
(0.0123643 0.00301929 0)
(0.0121277 0.00297388 0)
(0.0118818 0.0029122 0)
(0.0116296 0.00283644 0)
(0.0113744 0.0027487 0)
(0.0111185 0.00265097 0)
(0.0108643 0.00254509 0)
(0.0106141 0.00243279 0)
(0.0103702 0.00231559 0)
(0.0101346 0.00219493 0)
(0.00990857 0.00207208 0)
(0.00969321 0.00194818 0)
(0.00948979 0.00182419 0)
(0.00929913 0.00170096 0)
(0.00912151 0.00157921 0)
(0.00895693 0.00145959 0)
(0.00880527 0.00134264 0)
(0.00866646 0.00122882 0)
(0.0085402 0.00111856 0)
(0.00842577 0.00101229 0)
(0.00832223 0.000910424 0)
(0.00822877 0.000813307 0)
(0.00814463 0.000721262 0)
(0.00806898 0.000634626 0)
(0.00800081 0.000553727 0)
(0.007939 0.000478792 0)
(0.00788227 0.000409854 0)
(0.00782931 0.000346644 0)
(0.00777919 0.000287542 0)
(0.00772614 0.000233354 0)
(0.00768834 0.000181552 0)
(0.00763076 0.000164024 0)
(0.00766915 0.000194546 0)
(0.00762441 0.000195927 0)
(0.0075726 0.000171236 0)
(0.00752298 0.00014955 0)
(0.00746861 0.00013378 0)
(0.00741099 0.000120147 0)
(0.00734958 0.000106943 0)
(0.00728368 9.23081e-05 0)
(0.00721271 7.41126e-05 0)
(0.00713601 5.00745e-05 0)
(0.00705277 1.7835e-05 0)
(0.00696212 -2.49599e-05 0)
(0.00686316 -8.03909e-05 0)
(0.00675485 -0.000149684 0)
(0.006636 -0.000232364 0)
(0.0065054 -0.000325129 0)
(0.0063617 -0.000420116 0)
(0.00620296 -0.000502509 0)
(0.00602609 -0.000547835 0)
(0.00582616 -0.000519242 0)
(0.00559521 -0.000365006 0)
(0.00531991 -1.85542e-05 0)
(0.00498619 0.000595647 0)
(0.00457973 0.00154961 0)
(0.00407685 0.00289737 0)
(0.00346519 0.00463623 0)
(0.00274451 0.00664546 0)
(0.00194256 0.00858636 0)