/*--------------------------------*- C++ -*----------------------------------*\
  =========                 |
  \\      /  F ield         | OpenFOAM: The Open Source CFD Toolbox
   \\    /   O peration     | Website:  https://openfoam.org
    \\  /    A nd           | Version:  6
     \\/     M anipulation  |
\*---------------------------------------------------------------------------*/
FoamFile
{
    version     2.0;
    format      ascii;
    class       volVectorField;
    location    "0";
    object      U_rec;
}
// * * * * * * * * * * * * * * * * * * * * * * * * * * * * * * * * * * * * * //

dimensions      [0 1 -1 0 0 0 0];

internalField   nonuniform List<vector> 
918
(
(0.984874 -0.00436905 0)
(-0.00692984 2.98708 0)
(-0.0142974 1.70003 0)
(0.977047 0.0072448 0)
(-0.00609136 1.66112 5.75402e-17)
(0.00259834 2.97794 -3.55852e-17)
(0.943428 1.42843 2.18737e-18)
(0.473943 0.241329 2.05434e-19)
(0.995243 -7.41488e-05 0)
(0.0264326 1.56073 0)
(-0.00315758 1.56879 0)
(0.890072 -0.00286283 0)
(-0.00146305 2.9866 0)
(0.00487057 2.89254 0)
(-9.37127e-05 2.902 1.55287e-17)
(-0.00676469 1.62633 3.4348e-17)
(0.644494 0.13413 3.10148e-18)
(0.185183 1.61434 -3.87509e-17)
(0.981958 0.00726032 0)
(0.00618751 1.63148 0)
(-0.00492461 0.0139645 3.75618e-18)
(0.985184 0.00872781 0)
(1.00253 0.0101025 0)
(1.01518 0.000184821 0)
(0.805487 -0.00144121 0)
(0.0175836 2.92992 0)
(-0.00856274 2.94162 -9.08695e-17)
(-0.0109016 1.72529 0)
(0.00171043 1.76519 0)
(-0.0100547 1.72187 0)
(-0.00834958 1.78827 0)
(-0.010062 1.67321 5.74108e-17)
(-0.00681571 1.63127 0)
(0.000292256 3.00955 3.25056e-22)
(0.00477055 3.02157 -5.07475e-17)
(0.0202111 3.00643 0)
(0.93156 -0.00423905 0)
(0.594111 1.11046 -1.03892e-17)
(0.964766 1.43481 -7.5838e-18)
(1.0809 1.27096 2.26583e-17)
(0.818824 1.5595 1.00477e-17)
(0.783101 1.54285 1.31833e-17)
(0.495028 0.309815 1.00334e-19)
(0.526452 0.230526 0)
(1.27551 0.681633 0)
(0.422118 0.321431 2.46e-19)
(0.405546 0.228345 7.18468e-19)
(0.95608 -0.0023712 0)
(0.996123 0.00251935 0)
(0.995375 0.00348837 0)
(0.98994 0.00196169 0)
(0.981137 0.00901276 0)
(0.996315 0.0133187 0)
(0.0312078 1.58326 2.28182e-18)
(0.0164389 1.64129 0)
(0.0326086 1.55753 0)
(0.00970751 1.66375 0)
(0.0131425 1.58464 0)
(-0.00813322 1.65397 0)
(-0.00529538 1.65823 0)
(-0.000783914 1.57295 0)
(-0.0135944 1.66706 0)
(-0.00743596 1.58091 0)
(0.961802 0.00287501 0)
(0.933771 0.0103213 0)
(0.905457 0.00116086 0)
(0.924333 0.0115582 0)
(0.877408 -0.00171004 0)
(-0.0208483 3.0424 2.755e-17)
(-0.000488907 2.97209 0)
(-0.0275503 3.01512 0)
(0.0304373 3.03883 -3.02707e-23)
(-0.00133696 3.02752 3.53157e-17)
(0.0162713 3.01016 0)
(0.00227668 2.95742 0)
(0.00418387 2.96737 -8.33696e-24)
(0.00417988 2.89982 0)
(0.00549291 2.97408 0)
(0.00802559 2.88043 0)
(0.270973 3.18224 0)
(-0.0656551 3.26284 0)
(0.0915466 2.96143 9.34969e-18)
(0.000890375 2.80547 0)
(-3.74765e-05 1.76211 0)
(-0.0033142 1.6889 3.37637e-17)
(-0.00215675 1.63205 3.43664e-17)
(0.683744 0.169749 -5.67693e-18)
(0.672847 0.0975423 1.36141e-18)
(0.642004 0.206539 1.78857e-17)
(0.617879 0.166295 -1.0956e-17)
(0.222153 1.28614 0)
(0.247341 1.67093 -4.3922e-17)
(0.373415 1.62384 -3.95476e-17)
(0.993728 0.00616984 0)
(0.969379 0.00353733 0)
(0.994439 -0.00631132 0)
(1.00078 0.000527591 0)
(1.00486 0.0147768 1.30073e-16)
(1.00616 0.0150681 1.31568e-16)
(-0.00351114 1.68805 0)
(-5.0336e-05 1.62906 0)
(-0.00537438 1.72591 0)
(-0.0107019 1.6999 0)
(-0.000204873 1.64381 0)
(-0.0266211 0.249777 -2.09471e-18)
(0.177508 0.166841 0)
(1.01448 -0.0153404 0)
(0.983366 -0.0033177 0)
(0.901354 0.0266038 0)
(0.862347 0.0457531 0)
(0.847135 0.00724966 0)
(1.09033 0.000222707 0)
(0.817654 0.0395366 0)
(0.750123 -0.0089794 2.57763e-17)
(-0.0170692 2.87545 2.47567e-17)
(0.00802877 2.98435 0)
(-0.0493646 3.02506 0)
(0.00566572 2.87067 0)
(-0.0070994 2.98418 -3.22943e-17)
(-0.00358069 2.93015 0)
(-0.0131723 2.98794 -1.99563e-17)
(-0.0142984 2.95171 2.62041e-17)
(0.00467253 1.77931 0)
(0.000417962 1.77922 0)
(0.00104286 1.69083 -7.96733e-21)
(-0.00364106 1.68283 0)
(-0.000546543 1.62845 0)
(0.964869 0.000495713 0)
(0.931617 -0.000419319 0)
(0.921704 0.00333362 0)
(0.966735 -0.00125918 0)
(0.937925 -0.0014319 0)
(0.648033 1.22934 -6.0818e-18)
(0.733329 1.27151 0)
(0.529254 1.06593 -1.1924e-18)
(0.485847 0.995093 0)
(1.08004 1.27625 1.8256e-17)
(1.18737 1.07172 2.26634e-18)
(0.454391 1.67499 0)
(0.657851 1.6466 0)
(0.575513 1.61347 0)
(0.295994 0.545332 -6.14693e-18)
(0.546202 0.292431 0)
(0.566626 0.215911 -3.76139e-18)
(1.15913 1.09488 0)
(1.22183 0.895129 0)
(1.24293 0.864961 -2.34545e-18)
(1.27151 0.709933 0)
(1.29703 0.50351 -2.90429e-17)
(0.972676 0.00258884 0)
(0.975692 -0.00435852 0)
(0.946121 -0.00206005 0)
(0.997963 -0.0075222 0)
(0.988078 -0.00753203 0)
(0.9701 -0.00140512 0)
(0.987916 -0.00386402 0)
(0.986612 -0.00024619 0)
(0.996275 -0.00169046 0)
(0.032909 1.6357 3.09684e-17)
(0.0390812 1.54758 0)
(0.0313274 1.66923 -1.57325e-18)
(0.0208415 1.61205 2.09075e-18)
(0.0841253 1.64136 -4.20604e-17)
(0.0245151 1.62897 0)
(0.0551706 1.56487 0)
(0.00432108 1.68595 0)
(0.014404 1.57736 0)
(-0.00671984 1.70219 1.77979e-20)
(0.00493283 1.65328 0)
(-0.00743873 1.70312 -3.32088e-17)
(0.00288869 1.65485 -1.26284e-18)
(0.0117932 1.67818 0)
(0.00317304 1.66512 0)
(0.0114146 1.57202 0)
(-0.0123125 1.67767 0)
(-0.0070437 1.6001 0)
(1.00236 0.0187529 0)
(0.97934 0.00691542 0)
(0.986635 0.00897359 0)
(0.951981 0.00259883 0)
(0.910665 -0.0051764 0)
(0.95033 0.0021569 0)
(0.943315 0.00980458 0)
(0.906584 0.000578392 0)
(0.0110509 3.03866 2.70185e-20)
(0.016087 3.03369 0)
(0.00629968 2.99373 0)
(0.00358331 2.94011 0)
(0.978949 3.6937 0)
(1.35314 2.74747 -1.85502e-18)
(0.00876019 2.88095 0)
(-0.0110202 2.80256 0)
(-0.00535537 1.77085 0)
(-0.00538993 1.76439 0)
(-0.00559225 1.76628 0)
(-0.00416892 1.77798 -7.66232e-17)
(-0.0074719 1.76394 0)
(0.00050441 1.7702 0)
(0.00292569 1.63781 -6.81064e-17)
(0.00341564 1.69922 -3.44999e-17)
(-0.00558746 1.69518 3.36403e-17)
(-0.0011417 1.63606 0)
(0.713559 0.137814 -1.73181e-17)
(0.708738 0.0720644 -1.29544e-17)
(0.200951 1.35541 0)
(0.274368 1.15712 4.11068e-19)
(0.135958 1.44546 -2.8106e-17)
(0.143614 1.40327 -3.07647e-17)
(0.949078 0.00726306 0)
(0.980186 0.00677153 0)
(0.984951 0.00858098 0)
(0.956985 0.00660867 0)
(-0.0112659 1.6848 0)
(-0.0011406 1.68549 0)
(-0.00504133 1.6166 0)
(0.344982 0.322343 -3.0499e-19)
(0.211865 0.287804 -2.2239e-19)
(0.310709 0.208576 0)
(1.18126 0.10269 -4.16613e-19)
(1.18637 0.057289 0)
(1.0946 0.0474268 0)
(1.03293 0.00154608 0)
(0.735243 0.0969817 0)
(0.766962 0.0483945 2.72756e-17)
(0.720856 0.0361878 -1.94938e-17)
(-0.0145692 2.95596 -3.21591e-17)
(-0.00693011 2.90453 -5.7824e-17)
(0.00749029 3.02823 4.83445e-20)
(0.0328579 3.01644 -3.54697e-17)
(-0.0173735 3.00115 -1.16105e-19)
(-0.0135254 2.98005 4.24733e-22)
(-0.012291 3.02653 -4.46873e-18)
(-0.000920894 2.98661 -7.58858e-18)
(0.0475383 3.01964 -3.09678e-17)
(0.981539 0.00563202 0)
(0.972851 0.0108026 0)
(0.94208 0.00474461 0)
(0.974373 0.0087354 0)
(0.962401 0.0100793 0)
(0.930046 0.00819971 0)
(0.952098 -0.00225682 0)
(0.955109 0.00440661 0)
(0.910245 -0.00343957 0)
(0.789372 1.43942 2.06235e-18)
(0.868615 1.50316 0)
(0.398796 0.776909 1.52539e-18)
(0.362644 0.854394 -1.70882e-18)
(0.424959 0.959337 -1.35293e-17)
(0.426424 0.900759 -1.6535e-17)
(0.403331 0.903306 2.22179e-18)
(0.288762 0.606825 2.00323e-17)
(0.619335 0.233162 -1.02931e-17)
(0.58763 0.260196 -3.15315e-18)
(0.597042 0.189171 5.13792e-18)
(1.29442 0.525573 -2.6702e-17)
(1.29464 0.330773 2.53606e-18)
(0.0104302 1.68996 -3.38439e-17)
(0.00410629 1.62751 0)
(1.04751 0.0300096 0)
(1.02052 0.0191446 0)
(1.00078 -0.00015346 0)
(0.0146771 3.04629 0)
(0.0133547 2.97271 -3.37133e-17)
(0.00990817 2.98446 0)
(0.00366238 2.92078 -2.51618e-17)
(0.0119473 3.05887 1.58902e-17)
(0.0115321 3.05202 0)
(0.844939 1.73764 -3.23883e-18)
(1.19493 2.31963 -1.0713e-17)
(0.930759 1.8251 -1.52722e-17)
(-0.0274533 2.91932 3.16996e-17)
(-0.0253709 2.88158 0)
(-0.019813 2.83845 0)
(-0.0138079 1.69722 6.76295e-17)
(0.0019759 1.69017 7.50666e-19)
(-0.0124769 1.63785 6.75296e-17)
(0.255771 1.28249 -1.54111e-17)
(0.300608 1.00086 -1.27667e-17)
(0.0384739 1.5949 -3.1743e-17)
(0.0762385 1.52778 -2.91169e-17)
(0.0644927 1.48686 -6.09872e-17)
(-0.0220917 3.07052 1.23698e-16)
(-0.00900342 3.06768 1.08271e-16)
(0.00584246 2.98545 2.64529e-17)
(-0.0121955 2.97945 -2.58175e-17)
(-0.000137141 2.93278 3.25071e-17)
(0.0172275 3.06397 -9.38833e-17)
(-0.00552537 3.05784 -1.27121e-16)
(0.352723 0.853877 0)
(0.296545 0.809164 -7.30222e-18)
(0.346826 0.592578 -1.60828e-17)
(0.377115 0.991668 3.22737e-17)
(0.334781 0.704121 2.36538e-17)
(1.27041 0.201452 -1.85204e-18)
(1.29769 0.362643 0)
(1.26594 0.17737 1.27841e-18)
(-0.00838837 1.69963 1.56909e-20)
(0.00205197 1.69638 0)
(-0.00220509 1.6386 0)
(0.300115 1.19364 7.87364e-19)
(0.349925 1.11535 -3.32518e-17)
(0.306628 0.848453 -2.94784e-17)
(1.0019 -0.0228957 0)
(1.00283 -0.0139586 1.48467e-17)
(0.00274686 1.77669 0)
(-0.00886599 1.79285 0)
(1.00222 -0.00129703 4.66848e-19)
(1.00163 0.00157824 2.03905e-17)
(0.00128826 1.77739 -7.64099e-17)
(0.00207061 1.77618 0)
(-0.0201249 2.97213 2.57485e-17)
(0.30141 2.99853 0)
(1.09662 0.698773 -2.67392e-17)
(1.00469 0.00694797 8.52655e-17)
(1.01043 -0.00757254 0)
(1.00588 -0.000952352 3.5787e-19)
(-0.0831506 1.72583 0)
(-0.0159566 1.80478 0)
(-0.0015502 1.80281 0)
(0.02379 1.741 -7.6031e-17)
(-0.00172125 1.75599 7.46327e-17)
(0.988984 0.0108467 8.35722e-17)
(1.0366 0.0225084 0)
(1.06114 0.0325482 0)
(-0.00172763 1.77135 0)
(0.00312259 1.76891 0)
(-0.0137648 1.77713 0)
(0.146923 1.5555 -8.43028e-17)
(1.00512 -0.0122699 0)
(1.00814 -0.0151097 0)
(0.996435 0.00514149 -1.82471e-17)
(0.997529 -0.00542713 2.33087e-17)
(0.996627 -0.00364275 0)
(-0.00396389 1.76573 0)
(0.000821423 1.76982 0)
(-0.00105994 1.76398 0)
(-0.00646628 1.7802 0)
(-0.0211079 1.77743 0)
(-0.0110585 1.77329 0)
(1.01182 0.00700564 0)
(1.01199 0.00478924 8.54383e-17)
(0.829205 1.40807 -1.51918e-18)
(1.00169 -0.00674785 1.86063e-17)
(0.999588 0.00449765 -2.30193e-17)
(1.00361 0.0035202 0)
(1.0005 0.010471 3.8421e-17)
(1.0063 0.012962 4.6832e-17)
(1.00568 0.0105863 0)
(0.0046487 1.7723 0)
(0.00571538 1.76954 -3.8828e-17)
(0.000788633 1.76892 -3.43049e-17)
(1.15904 0.263985 -5.87693e-17)
(1.0976 0.081724 0)
(-0.232412 2.97283 2.81659e-17)
(-0.251996 3.22114 6.03634e-19)
(-0.0338697 3.01833 4.90986e-17)
(-0.0394692 2.97131 3.62866e-17)
(0.0483062 2.94959 0)
(-0.0270823 3.02647 1.37458e-17)
(-0.0970011 3.12787 2.39201e-17)
(-0.082325 3.01232 1.7659e-17)
(-0.0594277 3.09695 0)
(0.646542 0.342886 0)
(0.519608 0.385078 0)
(1.07986 0.824293 3.04444e-17)
(1.07078 0.907146 3.72289e-17)
(1.13392 0.636017 0)
(1.15042 0.561083 0)
(1.00696 0.00424737 1.0176e-17)
(1.0027 0.00337282 -9.76362e-18)
(1.0111 -0.00874253 0)
(1.00584 -0.0158961 0)
(1.00123 0.00841379 0)
(1.00624 0.00382876 0)
(1.00446 0.00584341 0)
(1.0025 0.00524232 0)
(1.00384 0.00454782 0)
(0.993708 0.00655534 0)
(-0.0621187 1.73945 0)
(-0.0651656 1.77457 0)
(-0.0576859 1.70577 0)
(-0.0491365 1.68911 0)
(-0.0144843 1.81418 0)
(0.0155032 1.80582 3.51578e-17)
(-0.00167402 1.79316 0)
(-0.0148025 1.76714 3.2668e-17)
(0.00320913 1.72536 -7.01517e-17)
(-0.0109747 1.80297 0)
(-0.00367792 1.79731 0)
(0.0101074 1.80993 0)
(0.00343579 1.81869 0)
(0.0282696 1.76734 -7.50431e-17)
(-0.0147538 1.74216 -4.88631e-17)
(0.0240578 1.7459 3.73464e-17)
(0.00516567 1.75506 0)
(0.0212901 1.76207 3.21036e-17)
(0.00640025 1.76757 -7.15692e-17)
(-0.00168571 1.78577 -1.15764e-16)
(-0.00505803 1.7324 -4.71239e-17)
(0.0216991 1.73928 3.94029e-17)
(0.992109 0.016899 -5.30074e-18)
(0.994909 0.00107124 8.48644e-18)
(0.988336 0.0244108 1.00486e-17)
(0.975093 0.019008 -7.9348e-18)
(1.03033 0.0114027 0)
(1.03308 0.0106167 0)
(1.04475 0.0325874 0)
(1.03699 0.0300466 0)
(1.04295 0.0131051 0)
(1.08556 0.0697183 0)
(1.06383 0.0598417 0)
(1.08242 0.0410514 0)
(-0.0108129 1.77702 9.98938e-18)
(0.00127855 1.75613 0)
(-0.0161985 1.76208 0)
(-0.0028669 1.76776 -1.50291e-17)
(-0.000114668 1.77041 2.53347e-20)
(-0.0102153 1.78754 4.42527e-17)
(-0.0215795 1.77594 4.48519e-17)
(-0.00272234 1.77021 0)
(-0.0291302 1.77547 0)
(-0.0125538 1.76924 0)
(-0.00369489 1.78001 0)
(-0.00751604 1.78869 0)
(0.32697 1.54951 -5.53834e-17)
(0.386126 1.57441 4.21515e-17)
(0.358633 1.86316 -1.02257e-20)
(0.186974 1.82315 2.97754e-17)
(0.133543 2.07839 3.6744e-17)
(1.00991 -0.0149912 0)
(1.01178 -0.0079342 0)
(1.01468 -0.00967911 0)
(1.00551 0.00236887 0)
(0.997495 -0.00324465 0)
(0.989871 -0.000990832 0)
(1.00277 -0.00136278 0)
(1.00419 -0.000718514 0)
(1.00922 0.00336002 -5.10971e-18)
(1.00687 0.00526812 9.34407e-18)
(1.0119 0.00639792 9.93757e-18)
(1.00695 0.00609077 -9.10285e-18)
(0.763542 1.50118 0)
(0.712976 1.52945 -7.67285e-17)
(0.898176 1.36134 7.17289e-17)
(0.952216 1.28408 6.69309e-17)
(1.00794 2.0933 -2.4428e-17)
(0.816415 0.116354 -1.96156e-17)
(1.1091 0.133474 0)
(1.15964 0.191284 -9.58825e-17)
(1.13709 0.138024 9.21026e-20)
(0.951438 0.144288 0)
(-0.0874635 2.70319 5.3169e-17)
(-0.374164 2.61686 6.92719e-17)
(-0.811925 2.68446 7.49616e-18)
(-0.644673 0.215366 -1.19398e-17)
(0.195782 2.99202 -1.42145e-17)
(0.0467262 2.98025 0)
(0.143214 2.96238 -9.56963e-18)
(0.0186808 2.70319 7.68051e-17)
(0.192033 2.73481 0)
(-0.0224824 3.05511 -3.47016e-19)
(-0.0345178 3.07036 -2.3693e-17)
(-0.00618891 3.09637 -2.97916e-17)
(-0.0401681 3.11112 0)
(-0.0488776 3.05148 0)
(1.13535 2.16047 0)
(0.489909 1.05435 4.89981e-17)
(1.02105 1.09651 -3.48327e-17)
(0.996564 1.22499 0)
(0.83955 1.08521 -1.4419e-17)
(1.04111 1.03699 -6.20829e-17)
(0.174315 0.413032 -2.2301e-18)
(0.656225 0.338606 1.21234e-17)
(0.680801 0.297534 1.29893e-17)
(0.459006 0.456971 8.46515e-20)
(0.421044 0.395386 1.44545e-18)
(0.609107 0.388879 0)
(0.584986 0.482148 1.15828e-17)
(0.609007 0.439253 0)
(0.542282 0.412983 0)
(0.58952 0.358538 0)
(0.676797 0.696442 3.40649e-17)
(1.16719 0.339486 3.77666e-17)
(1.18041 0.461329 0)
(1.17274 0.387066 0)
(0.752346 0.229054 2.02605e-17)
(0.725585 0.628779 3.61345e-17)
(0.607336 0.571644 1.16562e-17)
(0.863255 0.43191 -8.19741e-17)
(1.00308 0.00620392 3.51472e-17)
(1.00188 0.0154235 4.55227e-17)
(0.998581 0.012856 0)
(1.00745 0.00939332 0)
(1.00377 -0.0151461 -3.43567e-17)
(0.996539 -0.00773709 -4.35962e-17)
(1.01524 0.00155178 0)
(1.00563 0.00359305 0)
(1.01025 0.000493318 0)
(1.00542 0.00451862 0)
(1.01213 -0.00135203 0)
(1.00802 -0.00620261 0)
(-0.0375246 1.793 0)
(-0.0229665 1.79715 0)
(-0.131798 1.67877 -5.18483e-17)
(0.0841034 1.61383 -3.94111e-17)
(-0.00916963 1.66462 7.9244e-17)
(0.00729939 1.61722 3.36266e-17)
(-0.0979349 1.65885 0)
(-0.125351 1.87392 7.34618e-17)
(-0.1522 1.84851 0)
(0.0353803 2.09681 3.83551e-17)
(0.0713738 2.0208 -4.55321e-17)
(-0.123898 1.85226 7.04287e-17)
(0.0192219 1.56544 -4.05871e-17)
(-0.0944767 1.64012 -4.21902e-17)
(-0.00770921 1.55871 -8.92819e-18)
(-0.082887 1.8974 0)
(-0.00967297 1.90196 -5.34771e-17)
(-0.021203 1.73591 5.91079e-18)
(-0.00348195 1.7273 0)
(-0.0560108 1.74709 -7.37297e-17)
(-0.0509315 1.72489 0)
(-0.00543533 1.75285 3.4528e-17)
(-0.0061637 1.73695 0)
(0.0351968 1.78178 5.49346e-17)
(0.0472278 1.78309 0)
(0.0238299 1.80117 0)
(0.0196584 1.8068 5.30047e-17)
(0.000259133 1.72591 -1.18322e-16)
(0.0165487 1.72789 -7.02506e-17)
(0.00672642 1.73372 -8.13146e-21)
(0.0102604 1.7588 7.72277e-17)
(-0.00861629 1.78406 -3.97528e-17)
(-0.0093689 1.7931 0)
(-0.0138851 1.7992 0)
(-0.00172379 1.78168 3.03782e-17)
(-0.000335569 1.80458 2.58005e-17)
(0.0166116 1.79002 6.10172e-17)
(-0.0469877 1.79277 0)
(0.000712021 1.77059 1.03381e-16)
(-0.00947786 1.76866 1.69219e-17)
(0.00410361 1.77407 -1.94433e-17)
(0.0157079 1.77799 7.83464e-17)
(0.0167992 1.7358 -3.8521e-18)
(0.00505346 1.74422 -4.5305e-17)
(1.00337 0.0120463 4.50663e-17)
(0.996942 0.00550396 3.4857e-17)
(0.998237 0.00821042 0)
(0.989136 0.0484358 -6.5807e-17)
(0.965774 0.0501968 1.0354e-17)
(0.948422 0.035436 -1.96749e-18)
(0.983692 0.09339 1.04041e-18)
(1.01724 0.0117877 0)
(1.0239 0.012995 -4.46285e-17)
(1.02288 0.00825561 -3.47975e-17)
(1.02438 0.0395462 3.16786e-18)
(1.02631 0.0349408 -8.53933e-18)
(1.01291 0.0475321 0)
(1.00545 0.0440742 -3.16281e-19)
(1.00058 0.0257432 0)
(0.999748 0.0261393 0)
(1.01472 0.0234346 0)
(1.00423 0.00949908 0)
(1.00868 0.0276475 5.30734e-18)
(1.00953 0.0207047 2.76749e-17)
(1.02265 0.0327318 -7.27892e-18)
(1.01471 0.0323087 8.94158e-18)
(1.0119 0.0636467 3.04336e-17)
(1.036 0.0587881 0)
(1.02696 0.0908943 0)
(0.00334723 1.78019 -5.35765e-17)
(0.0163014 1.75801 -8.40267e-19)
(-0.00504219 1.77058 0)
(0.00961224 1.77924 -5.44218e-17)
(0.00190605 1.7835 9.02624e-18)
(0.00600652 1.7738 -3.98185e-18)
(-0.00151089 1.76801 -7.7884e-17)
(0.00870551 1.76501 -1.72507e-19)
(0.0121463 1.75691 -5.07221e-18)
(-0.00592238 1.76702 3.43882e-17)
(-0.00333981 1.77071 3.3827e-17)
(0.00481787 1.76389 -2.32651e-17)
(-0.00295784 1.77307 -3.90903e-17)
(0.259313 1.41213 2.71115e-17)
(0.169328 1.59952 -7.70881e-18)
(0.67332 1.57294 -8.1736e-17)
(0.52164 1.56977 3.98358e-17)
(0.569668 1.57792 0)
(0.391316 1.88087 -3.50791e-18)
(0.486811 1.83721 -2.56495e-19)
(0.237666 1.82684 -7.41071e-18)
(0.186487 2.00915 -3.45714e-17)
(0.236702 2.02772 -2.84755e-17)
(0.336972 1.8595 0)
(0.286225 1.81404 -1.31949e-17)
(0.05504 1.8254 2.14468e-18)
(0.143531 1.833 6.24243e-17)
(0.0971072 1.7894 5.07335e-18)
(0.753111 1.97835 -3.48176e-17)
(0.656543 1.96005 0)
(1.00836 0.00521311 -1.14886e-19)
(1.00689 -0.00749553 1.93618e-19)
(1.00166 -0.0228551 -9.30692e-18)
(1.01512 -0.0118147 -1.43808e-17)
(1.01357 -0.000761802 0)
(0.73523 1.41004 0)
(0.667893 1.36567 0)
(0.776369 1.23105 0)
(0.696308 1.3095 0)
(0.987108 2.11265 2.92301e-17)
(0.938067 1.9316 0)
(0.77194 1.87987 -1.0915e-18)
(0.715386 2.09839 0)
(0.785452 2.10952 7.31017e-17)
(0.842043 2.05498 6.86287e-17)
(0.801291 0.156074 0)
(0.786794 0.159242 -7.02649e-19)
(0.873637 0.134037 1.16289e-17)
(0.836704 0.110176 -2.98101e-17)
(0.853309 0.0826491 -3.40855e-18)
(1.01246 0.25509 -3.03133e-17)
(0.892616 0.292997 2.8849e-17)
(0.861726 0.282034 2.82398e-17)
(0.944515 0.223471 1.47991e-17)
(0.882499 0.167962 3.68126e-17)
(0.863407 0.19584 -1.06054e-17)
(0.873888 0.256715 6.55278e-19)
(0.855062 0.225317 0)
(0.952104 0.199282 2.39234e-17)
(0.988801 0.189314 0)
(0.981308 0.254556 0)
(1.04114 0.122876 -1.17108e-17)
(1.00091 0.188259 3.17486e-17)
(0.989673 0.22047 2.10485e-17)
(1.03117 0.206672 0)
(0.993242 0.0271513 -3.52167e-17)
(1.00057 0.0338844 3.31182e-17)
(1.00348 0.0351067 -2.80727e-17)
(1.00245 0.0530997 4.18621e-17)
(0.981144 0.0518836 -5.80543e-17)
(0.940547 0.150084 0)
(0.961762 0.0769255 0)
(0.944849 0.0537808 4.3379e-17)
(0.918468 0.052691 9.30907e-18)
(0.989643 0.0970745 -3.70056e-17)
(1.01085 0.124085 -2.93413e-17)
(1.00941 0.154078 -6.98621e-18)
(0.980581 0.152018 0)
(1.01311 0.0938208 0)
(1.00805 0.082426 3.49695e-17)
(0.991088 0.0831059 -2.83861e-17)
(0.569447 1.34539 2.79325e-17)
(0.565383 1.52452 -2.16846e-17)
(0.913148 2.21809 1.84178e-17)
(0.984205 2.4833 -2.11533e-18)
(1.04259 2.19252 -3.05972e-17)
(1.1008 2.24082 6.32769e-18)
(1.10131 1.97626 8.29714e-18)
(1.00796 2.38042 -1.72054e-17)
(1.01327 2.35344 -1.26142e-17)
(1.05049 2.59239 -7.62756e-19)
(1.17787 2.45973 1.85397e-18)
(1.24539 2.41104 0)
(0.46497 1.11604 -3.60431e-18)
(-0.181776 1.41964 -1.37782e-17)
(0.0331577 0.592952 -5.4601e-18)
(-0.102383 0.814803 -1.59128e-17)
(0.341726 0.458255 -7.12735e-18)
(0.358526 0.511544 -1.90922e-19)
(0.306931 0.596294 -3.87524e-18)
(0.219305 0.465593 1.64009e-18)
(0.309516 0.386079 -5.3731e-18)
(0.732443 0.273709 2.36085e-17)
(0.687175 0.304495 0)
(0.709042 0.264509 6.21211e-18)
(0.594042 0.57115 -1.09e-17)
(0.507155 0.540449 9.83989e-18)
(0.424722 0.577446 -5.93967e-18)
(0.489064 0.488694 0)
(0.578753 0.931242 -2.3784e-17)
(0.742947 0.902817 4.98316e-17)
(0.684525 1.02425 4.99754e-17)
(0.770173 0.935144 1.2819e-17)
(0.896206 0.921778 -4.61965e-18)
(0.896417 0.98875 -5.47729e-18)
(0.780443 0.754181 2.64241e-18)
(0.840334 0.810269 1.07417e-17)
(0.927401 0.855208 0)
(0.92733 0.73655 2.52292e-17)
(0.943748 0.320379 5.22726e-17)
(1.05677 0.31722 -1.85884e-17)
(0.994593 0.307505 -4.9159e-17)
(0.900463 0.395285 4.66552e-17)
(0.990318 0.452864 0)
(1.03137 0.419468 0)
(0.801926 0.397687 5.08632e-17)
(0.788405 0.290064 0)
(0.780877 0.285349 -1.37327e-17)
(0.872928 0.310436 6.92692e-17)
(0.822578 0.503377 -7.92244e-17)
(0.751883 0.55376 1.64074e-18)
(0.787653 0.513492 6.14099e-18)
(0.710682 0.468967 6.92784e-19)
(0.693657 0.487289 -4.90456e-18)
(0.654664 0.471494 -1.93233e-18)
(1.01702 0.00398047 -4.5116e-17)
(1.01458 -0.0073141 0)
(1.02177 -0.00103611 1.28304e-17)
(1.00793 0.00722686 -1.89205e-17)
(1.02336 0.00545707 -2.20727e-17)
(1.01376 0.0145023 -1.80202e-18)
(1.00921 0.0103324 0)
(1.00958 0.00299191 1.22745e-17)
(1.01532 0.00856477 1.57216e-18)
(1.00798 0.00876619 -4.59048e-18)
(1.0107 0.00444417 9.78943e-18)
(-0.00484075 1.8151 0)
(0.00464366 1.82433 0)
(-0.000810742 1.80209 0)
(-0.00247416 1.80917 0)
(-0.0920926 1.79568 -4.59137e-18)
(-0.102943 1.76092 -1.09905e-16)
(-0.143008 1.84204 -3.35232e-17)
(-0.169551 1.80086 -8.69602e-17)
(-0.0371395 1.80173 5.71327e-17)
(-0.0316695 1.81574 6.29841e-17)
(-0.0707995 1.80583 1.21959e-16)
(-0.0489581 1.81244 5.74053e-17)
(-0.0239862 1.81384 1.01655e-17)
(-0.0164027 1.82891 1.41114e-18)
(-0.062812 1.77227 -7.09363e-17)
(-0.0425539 1.81425 0)
(-0.108197 1.85674 -4.11328e-17)
(-0.142754 1.85138 -4.89866e-18)
(-0.0446838 1.94217 -1.84861e-17)
(0.00685669 1.91286 0)
(0.00816889 1.93452 5.42429e-17)
(0.0171982 1.98842 5.04686e-17)
(-0.0651084 1.90851 -6.39712e-17)
(-0.0813404 1.88811 -8.34196e-17)
(-0.0527738 1.85666 0)
(0.00536934 1.74671 3.23055e-17)
(0.0077147 1.71406 -2.27655e-17)
(0.0123206 1.73872 0)
(0.0128916 1.72867 2.13554e-17)
(-0.0198833 1.739 1.80118e-17)
(0.00377592 1.79404 9.7152e-18)
(-0.00653257 1.7841 -1.02656e-16)
(-0.0178662 1.78576 -6.69699e-17)
(-0.0160342 1.78314 4.75721e-17)
(0.009187 1.78376 0)
(0.0118025 1.78971 0)
(-0.00318729 1.78309 -3.94452e-17)
(-0.00359589 1.76988 -3.8041e-18)
(-0.00179628 1.78129 0)
(-0.0108165 1.79311 3.39593e-17)
(-0.00684298 1.78816 4.84838e-19)
(1.01759 0.0341685 0)
(1.02535 0.0280096 -5.18246e-20)
(1.00764 0.0201184 4.29554e-17)
(1.01656 0.0141423 0)
(1.01525 0.00821182 0)
(1.01756 0.00324092 2.17214e-17)
(1.01306 0.0112783 -5.19379e-17)
(1.00716 0.00738822 -1.32639e-17)
(1.00299 0.00656406 0)
(1.0063 0.0095825 0)
(1.0047 0.0147255 3.19297e-17)
(1.00099 0.0167681 0)
(1.00508 0.0144083 0)
(-0.00323707 1.77648 0)
(0.00217057 1.77355 -4.19898e-17)
(0.00263314 1.76541 4.34843e-17)
(-0.00170167 1.76466 0)
(0.0101191 1.77771 -3.95438e-17)
(-0.000513554 1.76853 -1.93276e-17)
(-0.00582987 1.76304 0)
(0.451609 1.93225 0)
(0.141105 1.68042 2.25372e-17)
(0.190789 1.91345 0)
(0.38136 1.40882 8.51712e-17)
(0.466171 1.3686 0)
(0.411501 1.41893 3.38838e-17)
(0.856329 2.15832 -3.23778e-19)
(0.774893 1.98001 -2.86169e-17)
(0.704613 1.79908 -1.89233e-17)
(0.683083 1.961 -7.82248e-18)
(0.739126 2.08962 0)
(0.781338 2.0547 0)
(0.710521 1.97015 0)
(0.714265 1.94835 -4.85197e-18)
(0.492893 2.1853 -4.02348e-17)
(0.667956 2.1066 3.68704e-18)
(0.6708 2.13032 2.78611e-18)
(0.488746 1.92225 0)
(0.596758 1.95865 0)
(0.574314 1.90948 4.08841e-19)
(0.592739 2.11757 0)
(0.612131 1.26748 0)
(0.556391 1.15171 -6.6053e-17)
(0.551674 1.14767 -6.16665e-18)
(0.564835 1.25705 0)
(0.555539 1.2145 -7.01717e-17)
(0.727587 1.04623 -1.0667e-17)
(0.779702 1.18259 0)
(0.789929 1.10195 -2.91753e-17)
(0.672364 1.20886 0)
(0.614428 1.14612 0)
(0.926795 2.18417 1.28452e-17)
(0.906802 2.25613 -1.11257e-17)
(0.75846 1.96977 -3.85867e-17)
(0.763987 1.95263 -3.53488e-18)
(0.912634 2.16006 0)
(0.879595 2.1445 -4.26484e-18)
(0.892818 2.0085 -6.0748e-18)
(0.831031 1.81345 -7.76113e-18)
(0.656857 1.49415 0)
(0.605305 1.33404 3.07241e-17)
(0.630168 1.37366 0)
(0.814673 0.213226 0)
(0.780324 0.190038 0)
(0.763075 0.201433 0)
(0.80237 0.245319 -9.28858e-18)
(0.752859 0.226276 5.97415e-18)
(0.925111 0.0750059 1.22505e-17)
(0.918901 0.116049 0)
(0.888765 0.0926443 -2.79143e-19)
(0.859558 0.0742254 -2.86801e-18)
(0.869832 0.0553548 -6.45798e-18)
(1.03651 2.75287 -1.44323e-17)
(0.977973 2.6593 0)
(0.937645 2.83144 -5.23293e-17)
(0.583805 3.03577 -3.25573e-17)
(0.725619 2.55239 1.13019e-17)
(0.455597 1.17722 -2.42837e-17)
(0.516918 1.09665 0)
(0.23347 0.829052 6.63805e-18)
(0.256901 0.929916 4.37858e-17)
(0.184982 0.792347 9.59332e-18)
(0.258544 0.635836 5.7657e-18)
(0.483205 0.63103 -7.94799e-18)
(0.508454 0.685192 0)
(0.454306 0.778498 0)
(0.344053 0.731889 0)
(0.898982 0.68546 1.14149e-17)
(0.827091 0.605199 6.1256e-18)
(0.844175 0.64253 -1.53331e-18)
(0.862188 0.529883 1.95011e-17)
(0.97592 0.554867 0)
(0.96891 0.619103 -1.12914e-17)
(0.76327 0.419274 8.22459e-18)
(0.767185 0.368465 2.28283e-17)
(0.711437 0.407819 -2.46171e-18)
(0.717854 0.375127 7.69657e-19)
(0.766488 0.32993 -1.03863e-17)
(0.750764 0.311692 -1.52009e-17)
(1.02783 0.00319889 -4.09678e-17)
(1.02624 0.00180744 -3.09869e-17)
(1.02417 0.00900412 3.96583e-17)
(1.02422 0.00754236 4.83189e-17)
(1.01542 0.0231744 0)
(1.00029 0.0160178 -1.96605e-17)
(-0.0495742 1.7901 2.68527e-17)
(-0.0528831 1.80844 0)
(-0.115588 1.82543 -4.52486e-17)
(-0.130291 1.83432 -5.95698e-17)
(-0.148754 1.83162 -3.56181e-17)
(-0.116432 1.83612 0)
(0.0323986 1.78773 0)
(0.0171527 1.78067 -1.96198e-17)
(0.00369515 1.76262 -1.99735e-17)
(0.000443489 1.76983 -4.98386e-17)
(-0.00563387 1.77535 -1.0295e-17)
(0.0276128 1.77757 -4.21812e-18)
(0.692307 1.5118 -1.14627e-16)
(0.661126 1.60008 -1.2777e-16)
(0.505772 1.44957 7.5217e-17)
(0.570387 1.62119 -4.86257e-18)
(0.703352 1.40725 0)
(0.590419 1.41029 7.52363e-17)
(0.642655 1.4233 6.97315e-17)
(0.562453 1.3071 6.94784e-17)
(0.69177 1.36193 0)
(0.689306 1.38343 0)
(0.451917 2.19538 -4.56097e-17)
(0.441507 2.08434 -6.4027e-17)
(0.510235 2.10802 -5.75409e-17)
(0.376927 2.08627 -2.61516e-18)
(0.27218 2.23258 2.69761e-18)
(0.254344 2.12376 -2.09737e-17)
(0.784176 1.9161 -1.2583e-17)
(0.833898 1.92024 0)
(0.74631 1.76052 2.29326e-18)
(0.872842 2.12022 0)
(0.846492 2.13172 0)
(0.560774 2.0248 -4.10944e-18)
(0.91699 2.48687 -4.78366e-18)
(0.792921 2.48543 5.28354e-19)
(0.171435 1.23782 0)
(0.200332 1.19044 -1.57916e-17)
(0.434009 1.09545 -3.70013e-17)
(0.384973 1.96445 0)
(0.374744 2.33913 7.60029e-18)
(0.201047 2.30455 0)
(0.604848 0.846693 -1.67662e-17)
(0.643937 0.844424 -4.49304e-17)
(0.654136 0.793293 -2.65219e-17)
(0.483551 0.814489 -2.08119e-18)
(0.558092 0.715913 3.22197e-19)
(0.822071 2.29665 -9.15156e-18)
(0.885497 2.28391 -1.01254e-17)
(0.641745 1.98746 1.21059e-17)
(0.624975 1.70401 2.81088e-17)
(0.649972 1.75886 3.71742e-17)
(0.827325 2.06567 -2.97246e-17)
(0.834429 2.07588 -1.7265e-17)
(0.691693 1.73348 8.38232e-19)
(0.524666 1.46696 3.36959e-17)
)
;

boundaryField
{
    wall-4
    {
        type            calculated;
        value           uniform (0 0 0);
    }
    velocity-inlet-5
    {
        type            calculated;
        value           uniform (1 0 0);
    }
    velocity-inlet-6
    {
        type            calculated;
        value           uniform (0 3 0);
    }
    pressure-outlet-7
    {
        type            calculated;
        value           nonuniform List<vector> 8((-0.0144183 1.70016 0) (-0.00615639 1.66091 5.75402e-17) (0.00193054 1.76539 0) (-0.00784733 1.78827 0) (5.12083e-05 1.76192 0) (0.000670928 1.77903 0) (-0.00553447 1.76607 0) (0.000645855 1.77005 0));
    }
    wall-8
    {
        type            calculated;
        value           uniform (0 0 0);
    }
    frontAndBackPlanes
    {
        type            empty;
    }
}

