/*--------------------------------*- C++ -*----------------------------------*\
  =========                 |
  \\      /  F ield         | OpenFOAM: The Open Source CFD Toolbox
   \\    /   O peration     | Website:  https://openfoam.org
    \\  /    A nd           | Version:  6
     \\/     M anipulation  |
\*---------------------------------------------------------------------------*/
FoamFile
{
    version     2.0;
    format      ascii;
    class       volScalarField;
    location    "23278";
    object      p_rgh;
}
// * * * * * * * * * * * * * * * * * * * * * * * * * * * * * * * * * * * * * //

dimensions      [0 2 -2 0 0 0 0];

internalField   nonuniform List<scalar> 
115600
(
0.00675599
0.00672429
0.0067088
0.00670408
0.00670072
0.00669368
0.00668441
0.00667401
0.00666309
0.00665202
0.00664101
0.00663017
0.00661954
0.00660917
0.00659904
0.00658915
0.00657949
0.00657005
0.00656082
0.0065518
0.00654296
0.00653432
0.00652584
0.00651752
0.00650935
0.00650131
0.00649339
0.00648556
0.00647781
0.00647012
0.00646244
0.00645476
0.00644706
0.00643931
0.00643145
0.00642341
0.00641513
0.00640653
0.00639753
0.00638803
0.00637792
0.00636706
0.00635529
0.00634241
0.00632819
0.00631232
0.00629445
0.00627413
0.00625077
0.00622371
0.00619168
0.0061542
0.00610653
0.00605405
0.00596193
0.00589821
0.00670735
0.00672332
0.00670854
0.00670392
0.00670062
0.00669362
0.00668439
0.00667401
0.0066631
0.00665204
0.00664104
0.00663019
0.00661957
0.0066092
0.00659907
0.00658917
0.00657951
0.00657007
0.00656084
0.00655181
0.00654298
0.00653433
0.00652585
0.00651753
0.00650936
0.00650132
0.0064934
0.00648557
0.00647782
0.00647012
0.00646244
0.00645476
0.00644706
0.00643931
0.00643145
0.00642341
0.00641512
0.00640652
0.00639752
0.00638802
0.00637791
0.00636705
0.00635528
0.0063424
0.00632817
0.0063123
0.00629443
0.00627411
0.00625074
0.00622367
0.00619164
0.00615414
0.00610645
0.00605393
0.00596187
0.00589956
0.00666472
0.00672221
0.00670799
0.00670353
0.00670034
0.00669341
0.00668423
0.0066739
0.00666303
0.006652
0.00664101
0.00663018
0.00661957
0.0066092
0.00659907
0.00658918
0.00657952
0.00657008
0.00656085
0.00655183
0.00654299
0.00653434
0.00652586
0.00651754
0.00650937
0.00650133
0.0064934
0.00648557
0.00647782
0.00647012
0.00646245
0.00645476
0.00644706
0.00643931
0.00643145
0.0064234
0.00641512
0.00640652
0.00639751
0.00638801
0.0063779
0.00636704
0.00635526
0.00634238
0.00632815
0.00631228
0.0062944
0.00627408
0.00625071
0.00622363
0.00619159
0.00615409
0.00610638
0.0060539
0.00596208
0.00590241
0.0066324
0.00672082
0.00670711
0.00670286
0.00669982
0.00669297
0.00668387
0.00667362
0.00666281
0.00665183
0.00664088
0.00663008
0.00661949
0.00660914
0.00659903
0.00658915
0.0065795
0.00657006
0.00656084
0.00655182
0.00654299
0.00653434
0.00652587
0.00651755
0.00650937
0.00650133
0.00649341
0.00648558
0.00647783
0.00647013
0.00646245
0.00645477
0.00644706
0.00643932
0.00643145
0.00642341
0.00641512
0.00640652
0.00639751
0.00638801
0.00637789
0.00636703
0.00635525
0.00634237
0.00632813
0.00631225
0.00629437
0.00627405
0.00625067
0.00622359
0.00619154
0.00615404
0.00610635
0.006054
0.00596265
0.00590625
0.0066064
0.00671909
0.00670619
0.00670207
0.00669915
0.0066924
0.00668339
0.00667322
0.0066625
0.00665158
0.00664068
0.00662992
0.00661936
0.00660904
0.00659895
0.00658908
0.00657945
0.00657002
0.00656081
0.0065518
0.00654297
0.00653433
0.00652586
0.00651755
0.00650938
0.00650134
0.00649342
0.00648559
0.00647784
0.00647014
0.00646246
0.00645478
0.00644708
0.00643933
0.00643146
0.00642342
0.00641513
0.00640652
0.00639752
0.00638801
0.00637789
0.00636702
0.00635524
0.00634235
0.00632811
0.00631223
0.00629434
0.00627401
0.00625062
0.00622354
0.00619148
0.00615399
0.00610634
0.00605419
0.00596354
0.00591077
0.00658438
0.00671717
0.00670556
0.0067014
0.00669855
0.00669184
0.0066829
0.00667281
0.00666215
0.0066513
0.00664045
0.00662973
0.00661921
0.00660891
0.00659884
0.006589
0.00657938
0.00656997
0.00656077
0.00655177
0.00654295
0.00653432
0.00652585
0.00651754
0.00650938
0.00650134
0.00649342
0.0064856
0.00647785
0.00647015
0.00646248
0.00645479
0.00644709
0.00643934
0.00643148
0.00642343
0.00641514
0.00640653
0.00639752
0.00638802
0.0063779
0.00636702
0.00635524
0.00634234
0.0063281
0.00631221
0.00629432
0.00627398
0.00625059
0.00622351
0.00619145
0.00615399
0.0061064
0.00605453
0.00596479
0.0059158
0.00656573
0.00671492
0.00670524
0.00670097
0.00669812
0.0066914
0.00668249
0.00667245
0.00666184
0.00665104
0.00664023
0.00662955
0.00661906
0.00660879
0.00659874
0.00658892
0.00657931
0.00656992
0.00656073
0.00655173
0.00654293
0.0065343
0.00652584
0.00651754
0.00650938
0.00650135
0.00649343
0.00648561
0.00647787
0.00647017
0.0064625
0.00645482
0.00644712
0.00643937
0.0064315
0.00642345
0.00641516
0.00640655
0.00639754
0.00638803
0.00637791
0.00636704
0.00635525
0.00634235
0.0063281
0.00631221
0.00629432
0.00627398
0.00625059
0.00622352
0.00619148
0.00615407
0.00610659
0.00605507
0.00596644
0.00592119
0.00655042
0.00671204
0.00670503
0.00670069
0.00669783
0.0066911
0.00668219
0.00667217
0.0066616
0.00665083
0.00664006
0.0066294
0.00661894
0.00660868
0.00659866
0.00658885
0.00657925
0.00656987
0.00656069
0.00655171
0.00654291
0.00653429
0.00652584
0.00651754
0.00650939
0.00650136
0.00649345
0.00648563
0.00647789
0.0064702
0.00646252
0.00645485
0.00644715
0.0064394
0.00643153
0.00642348
0.00641519
0.00640658
0.00639757
0.00638806
0.00637794
0.00636707
0.00635528
0.00634238
0.00632813
0.00631224
0.00629435
0.00627402
0.00625064
0.00622358
0.00619158
0.00615424
0.00610692
0.00605582
0.00596848
0.00592685
0.00653855
0.00670828
0.00670466
0.00670043
0.00669762
0.00669089
0.00668198
0.00667199
0.00666144
0.00665069
0.00663994
0.00662931
0.00661886
0.00660862
0.0065986
0.00658881
0.00657922
0.00656985
0.00656067
0.0065517
0.00654291
0.00653429
0.00652584
0.00651755
0.0065094
0.00650138
0.00649347
0.00648566
0.00647792
0.00647023
0.00646256
0.00645488
0.00644719
0.00643944
0.00643157
0.00642353
0.00641524
0.00640663
0.00639762
0.00638811
0.00637799
0.00636711
0.00635533
0.00634243
0.00632819
0.00631231
0.00629443
0.0062741
0.00625075
0.00622372
0.00619178
0.00615453
0.00610742
0.00605679
0.00597092
0.00593269
0.00653015
0.00670359
0.0067039
0.00670005
0.00669739
0.00669071
0.00668183
0.00667186
0.00666134
0.00665062
0.00663988
0.00662927
0.00661883
0.0066086
0.00659859
0.0065888
0.00657922
0.00656985
0.00656068
0.00655171
0.00654292
0.00653431
0.00652587
0.00651758
0.00650943
0.00650141
0.00649351
0.0064857
0.00647796
0.00647027
0.00646261
0.00645494
0.00644724
0.00643949
0.00643163
0.00642358
0.00641529
0.00640669
0.00639768
0.00638817
0.00637805
0.00636718
0.0063554
0.00634252
0.00632828
0.00631241
0.00629454
0.00627424
0.00625092
0.00622393
0.00619206
0.00615495
0.00610809
0.006058
0.00597376
0.00593867
0.00652511
0.00669806
0.0067026
0.0066994
0.00669705
0.0066905
0.00668169
0.00667177
0.00666128
0.00665058
0.00663987
0.00662927
0.00661885
0.00660862
0.00659862
0.00658883
0.00657926
0.00656989
0.00656072
0.00655175
0.00654297
0.00653436
0.00652592
0.00651763
0.00650948
0.00650147
0.00649356
0.00648575
0.00647802
0.00647033
0.00646267
0.006455
0.00644731
0.00643956
0.0064317
0.00642365
0.00641537
0.00640676
0.00639776
0.00638826
0.00637814
0.00636728
0.00635551
0.00634263
0.00632841
0.00631255
0.00629471
0.00627444
0.00625115
0.00622423
0.00619246
0.0061555
0.00610896
0.00605944
0.00597699
0.00594476
0.00652318
0.00669193
0.00670072
0.00669841
0.00669648
0.00669019
0.00668151
0.00667167
0.00666124
0.00665058
0.0066399
0.00662931
0.0066189
0.00660868
0.00659868
0.0065889
0.00657933
0.00656996
0.0065608
0.00655182
0.00654304
0.00653443
0.00652599
0.0065177
0.00650956
0.00650154
0.00649364
0.00648583
0.0064781
0.00647041
0.00646275
0.00645508
0.0064474
0.00643965
0.00643179
0.00642374
0.00641546
0.00640686
0.00639786
0.00638836
0.00637825
0.0063674
0.00635564
0.00634277
0.00632857
0.00631274
0.00629492
0.00627469
0.00625146
0.00622462
0.00619297
0.00615619
0.00611003
0.00606113
0.00598061
0.00595095
0.00652397
0.00668552
0.00669833
0.00669705
0.00669563
0.0066897
0.00668123
0.00667153
0.00666119
0.00665059
0.00663994
0.00662938
0.00661898
0.00660878
0.00659878
0.006589
0.00657943
0.00657006
0.0065609
0.00655193
0.00654314
0.00653453
0.00652609
0.0065178
0.00650965
0.00650164
0.00649374
0.00648593
0.00647819
0.00647051
0.00646285
0.00645519
0.0064475
0.00643976
0.00643189
0.00642385
0.00641557
0.00640697
0.00639798
0.00638849
0.00637839
0.00636755
0.0063558
0.00634296
0.00632877
0.00631297
0.00629519
0.00627501
0.00625185
0.0062251
0.00619359
0.00615704
0.0061113
0.00606308
0.00598462
0.00595722
0.00652704
0.00667916
0.00669557
0.0066954
0.00669451
0.00668898
0.0066808
0.00667131
0.00666111
0.00665059
0.00663999
0.00662946
0.00661908
0.00660889
0.0065989
0.00658913
0.00657956
0.00657019
0.00656103
0.00655206
0.00654327
0.00653466
0.00652621
0.00651792
0.00650978
0.00650176
0.00649386
0.00648605
0.00647832
0.00647063
0.00646297
0.00645531
0.00644763
0.00643988
0.00643202
0.00642398
0.00641571
0.00640712
0.00639813
0.00638865
0.00637856
0.00636773
0.006356
0.00634318
0.00632902
0.00631326
0.00629552
0.0062754
0.00625232
0.00622569
0.00619435
0.00615805
0.0061128
0.00606528
0.00598901
0.00596359
0.00653199
0.00667313
0.00669261
0.00669355
0.00669316
0.00668806
0.00668021
0.00667096
0.00666093
0.00665053
0.00664002
0.00662954
0.00661919
0.00660902
0.00659905
0.00658928
0.00657971
0.00657035
0.00656118
0.00655221
0.00654342
0.00653481
0.00652636
0.00651807
0.00650993
0.00650191
0.006494
0.0064862
0.00647846
0.00647078
0.00646312
0.00645546
0.00644778
0.00644003
0.00643218
0.00642414
0.00641587
0.00640728
0.0063983
0.00638883
0.00637876
0.00636795
0.00635624
0.00634344
0.00632932
0.00631359
0.00629592
0.00627587
0.00625288
0.00622638
0.00619524
0.00615923
0.00611452
0.00606775
0.00599378
0.00597006
0.00653839
0.00666766
0.00668957
0.0066916
0.00669168
0.00668698
0.00667945
0.00667045
0.00666062
0.00665038
0.00663998
0.00662958
0.00661929
0.00660915
0.0065992
0.00658944
0.00657989
0.00657053
0.00656136
0.00655239
0.0065436
0.00653499
0.00652654
0.00651825
0.0065101
0.00650208
0.00649418
0.00648637
0.00647863
0.00647095
0.00646329
0.00645563
0.00644795
0.00644021
0.00643235
0.00642432
0.00641606
0.00640748
0.00639851
0.00638905
0.00637899
0.0063682
0.00635652
0.00634375
0.00632967
0.00631399
0.00629638
0.00627641
0.00625354
0.00622719
0.00619628
0.00616059
0.00611649
0.00607051
0.00599894
0.00597665
0.00654563
0.0066629
0.00668656
0.00668961
0.00669011
0.0066858
0.00667857
0.00666982
0.0066602
0.00665011
0.00663984
0.00662955
0.00661933
0.00660925
0.00659934
0.00658961
0.00658007
0.00657072
0.00656156
0.00655259
0.0065438
0.00653519
0.00652674
0.00651845
0.0065103
0.00650228
0.00649437
0.00648656
0.00647882
0.00647114
0.00646348
0.00645582
0.00644815
0.00644041
0.00643256
0.00642453
0.00641627
0.0064077
0.00639874
0.0063893
0.00637926
0.00636849
0.00635684
0.00634411
0.00633007
0.00631445
0.00629692
0.00627705
0.0062543
0.00622813
0.00619748
0.00616215
0.00611871
0.00607356
0.00600448
0.00598338
0.00655299
0.00665887
0.00668361
0.00668759
0.00668849
0.00668453
0.0066776
0.00666909
0.00665966
0.00664974
0.0066396
0.00662942
0.00661929
0.00660928
0.00659942
0.00658973
0.00658023
0.0065709
0.00656176
0.0065528
0.00654402
0.00653541
0.00652696
0.00651867
0.00651052
0.0065025
0.00649459
0.00648678
0.00647904
0.00647136
0.0064637
0.00645604
0.00644837
0.00644063
0.00643279
0.00642477
0.00641652
0.00640796
0.00639901
0.00638958
0.00637957
0.00636883
0.0063572
0.00634452
0.00633053
0.00631498
0.00629753
0.00627777
0.00625518
0.0062292
0.00619884
0.0061639
0.00612119
0.00607692
0.0060104
0.00599027
0.00655998
0.00665547
0.00668076
0.00668556
0.00668681
0.00668318
0.00667654
0.00666827
0.00665904
0.00664928
0.00663927
0.0066292
0.00661916
0.00660922
0.00659942
0.00658979
0.00658032
0.00657103
0.00656192
0.00655298
0.00654422
0.00653562
0.00652718
0.00651889
0.00651075
0.00650273
0.00649482
0.00648701
0.00647927
0.00647159
0.00646394
0.00645629
0.00644861
0.00644088
0.00643304
0.00642503
0.00641679
0.00640824
0.00639931
0.0063899
0.00637991
0.0063692
0.00635762
0.00634498
0.00633105
0.00631558
0.00629822
0.00627859
0.00625616
0.00623041
0.00620037
0.00616588
0.00612395
0.0060806
0.00601672
0.00599736
0.00656644
0.00665259
0.00667804
0.00668354
0.0066851
0.00668178
0.00667542
0.00666738
0.00665834
0.00664874
0.00663886
0.00662889
0.00661894
0.00660907
0.00659934
0.00658976
0.00658034
0.00657109
0.00656202
0.00655311
0.00654437
0.0065358
0.00652738
0.0065191
0.00651097
0.00650296
0.00649506
0.00648725
0.00647952
0.00647184
0.00646419
0.00645654
0.00644887
0.00644115
0.00643331
0.00642531
0.00641708
0.00640855
0.00639964
0.00639026
0.00638029
0.00636962
0.00635808
0.00634549
0.00633164
0.00631625
0.006299
0.00627951
0.00625727
0.00623176
0.00620208
0.00616808
0.006127
0.00608462
0.00602342
0.00600467
0.00657248
0.00665014
0.00667547
0.00668155
0.00668338
0.00668035
0.00667426
0.00666644
0.00665759
0.00664813
0.00663838
0.00662851
0.00661864
0.00660885
0.00659918
0.00658965
0.00658028
0.00657107
0.00656203
0.00655316
0.00654445
0.00653591
0.00652751
0.00651926
0.00651115
0.00650315
0.00649527
0.00648747
0.00647975
0.00647208
0.00646444
0.00645681
0.00644915
0.00644143
0.0064336
0.00642561
0.0064174
0.00640889
0.0064
0.00639064
0.00638071
0.00637007
0.00635859
0.00634606
0.00633229
0.00631699
0.00629987
0.00628054
0.0062585
0.00623327
0.00620399
0.00617051
0.00613034
0.00608898
0.00603052
0.00601223
0.00657818
0.00664807
0.00667308
0.00667963
0.00668169
0.00667893
0.00667309
0.00666549
0.0066568
0.00664749
0.00663786
0.00662808
0.00661829
0.00660856
0.00659895
0.00658947
0.00658014
0.00657097
0.00656197
0.00655313
0.00654446
0.00653594
0.00652757
0.00651935
0.00651126
0.00650329
0.00649542
0.00648765
0.00647995
0.0064723
0.00646467
0.00645705
0.0064494
0.0064417
0.00643389
0.00642592
0.00641772
0.00640923
0.00640037
0.00639105
0.00638115
0.00637057
0.00635914
0.00634668
0.00633299
0.00631781
0.00630083
0.00628167
0.00625987
0.00623494
0.00620609
0.00617319
0.00613398
0.00609371
0.00603799
0.00602007
0.00658361
0.00664635
0.00667088
0.00667779
0.00668005
0.00667754
0.00667193
0.00666454
0.00665602
0.00664685
0.00663732
0.00662763
0.00661791
0.00660825
0.00659868
0.00658924
0.00657995
0.00657082
0.00656185
0.00655304
0.00654439
0.0065359
0.00652756
0.00651936
0.0065113
0.00650335
0.00649551
0.00648776
0.00648008
0.00647245
0.00646485
0.00645725
0.00644962
0.00644194
0.00643415
0.0064262
0.00641803
0.00640957
0.00640075
0.00639146
0.00638162
0.00637108
0.00635972
0.00634735
0.00633376
0.0063187
0.00630187
0.0062829
0.00626136
0.00623677
0.00620839
0.00617612
0.00613793
0.00609879
0.00604584
0.00602822
0.00658879
0.00664496
0.00666887
0.00667606
0.00667847
0.00667619
0.00667081
0.00666361
0.00665526
0.00664622
0.00663679
0.00662719
0.00661754
0.00660792
0.0065984
0.006589
0.00657974
0.00657063
0.00656169
0.0065529
0.00654428
0.00653581
0.00652749
0.00651932
0.00651127
0.00650335
0.00649553
0.00648781
0.00648015
0.00647254
0.00646497
0.00645739
0.00644979
0.00644214
0.00643437
0.00642645
0.00641831
0.00640989
0.00640111
0.00639187
0.00638208
0.00637161
0.00636032
0.00634804
0.00633456
0.00631964
0.00630298
0.00628424
0.00626298
0.00623876
0.00621089
0.00617929
0.00614218
0.00610424
0.00605405
0.00603671
0.00659373
0.00664387
0.00666704
0.00667443
0.00667697
0.00667489
0.00666973
0.00666271
0.00665452
0.00664561
0.00663629
0.00662677
0.00661718
0.00660761
0.00659813
0.00658876
0.00657953
0.00657044
0.00656152
0.00655275
0.00654414
0.00653569
0.00652739
0.00651923
0.00651121
0.0065033
0.0064955
0.0064878
0.00648016
0.00647258
0.00646503
0.00645748
0.00644991
0.00644228
0.00643454
0.00642666
0.00641855
0.00641017
0.00640144
0.00639226
0.00638253
0.00637213
0.00636093
0.00634875
0.0063354
0.00632063
0.00630416
0.00628566
0.00626471
0.00624089
0.00621357
0.00618271
0.00614672
0.00611005
0.00606259
0.00604555
0.00659842
0.00664304
0.00666538
0.0066729
0.00667553
0.00667364
0.00666869
0.00666186
0.00665382
0.00664503
0.00663581
0.00662637
0.00661684
0.00660733
0.00659788
0.00658854
0.00657933
0.00657026
0.00656135
0.0065526
0.00654401
0.00653557
0.00652728
0.00651913
0.00651112
0.00650323
0.00649545
0.00648776
0.00648014
0.00647258
0.00646504
0.00645752
0.00644997
0.00644237
0.00643467
0.00642682
0.00641875
0.00641041
0.00640173
0.00639261
0.00638295
0.00637264
0.00636153
0.00634947
0.00633626
0.00632166
0.0063054
0.00628715
0.00626654
0.00624316
0.00621644
0.00618635
0.00615155
0.00611619
0.00607146
0.00605475
0.00660289
0.00664245
0.00666388
0.00667146
0.00667415
0.00667245
0.00666769
0.00666104
0.00665315
0.00664449
0.00663537
0.006626
0.00661654
0.00660707
0.00659766
0.00658834
0.00657915
0.0065701
0.00656121
0.00655247
0.00654388
0.00653545
0.00652717
0.00651903
0.00651103
0.00650315
0.00649538
0.0064877
0.0064801
0.00647255
0.00646504
0.00645753
0.00645001
0.00644244
0.00643476
0.00642694
0.00641892
0.00641063
0.006402
0.00639294
0.00638336
0.00637313
0.00636213
0.00635019
0.00633713
0.00632271
0.00630668
0.00628872
0.00626847
0.00624556
0.00621947
0.00619021
0.00615664
0.00612267
0.00608063
0.00606433
0.00660713
0.00664208
0.00666252
0.00667011
0.00667284
0.0066713
0.00666673
0.00666025
0.00665252
0.00664398
0.00663496
0.00662567
0.00661627
0.00660684
0.00659746
0.00658817
0.006579
0.00656997
0.00656109
0.00655235
0.00654378
0.00653535
0.00652708
0.00651895
0.00651095
0.00650308
0.00649532
0.00648765
0.00648006
0.00647253
0.00646503
0.00645754
0.00645004
0.00644249
0.00643485
0.00642706
0.00641907
0.00641083
0.00640225
0.00639326
0.00638375
0.00637362
0.00636273
0.00635092
0.00633802
0.0063238
0.00630801
0.00629036
0.0062705
0.00624809
0.00622268
0.00619429
0.00616199
0.00612946
0.00609007
0.00607429
0.00661117
0.00664191
0.00666129
0.00666884
0.00667158
0.00667019
0.00666581
0.0066595
0.00665192
0.0066435
0.00663458
0.00662537
0.00661602
0.00660664
0.0065973
0.00658804
0.00657889
0.00656987
0.00656099
0.00655227
0.0065437
0.00653528
0.00652701
0.00651889
0.0065109
0.00650303
0.00649527
0.00648761
0.00648003
0.00647251
0.00646503
0.00645756
0.00645008
0.00644255
0.00643493
0.00642718
0.00641923
0.00641103
0.00640251
0.00639358
0.00638416
0.00637412
0.00636335
0.00635168
0.00633895
0.00632494
0.00630941
0.00629208
0.00627263
0.00625076
0.00622606
0.00619859
0.00616761
0.00613655
0.00609979
0.00608463
0.00661502
0.00664192
0.0066602
0.00666764
0.00667038
0.00666912
0.00666492
0.00665878
0.00665134
0.00664305
0.00663423
0.00662509
0.00661581
0.00660647
0.00659717
0.00658793
0.0065788
0.00656979
0.00656093
0.00655221
0.00654365
0.00653524
0.00652697
0.00651885
0.00651087
0.006503
0.00649525
0.0064876
0.00648003
0.00647252
0.00646505
0.00645759
0.00645013
0.00644262
0.00643503
0.00642731
0.0064194
0.00641125
0.00640279
0.00639393
0.00638459
0.00637465
0.006364
0.00635248
0.00633993
0.00632614
0.00631088
0.0062939
0.0062749
0.00625359
0.00622963
0.00620313
0.00617349
0.00614396
0.00610978
0.00609535
0.00661867
0.00664209
0.00665922
0.00666652
0.00666922
0.00666808
0.00666405
0.00665808
0.00665079
0.00664262
0.0066339
0.00662484
0.00661562
0.00660633
0.00659706
0.00658785
0.00657874
0.00656975
0.00656089
0.00655219
0.00654363
0.00653522
0.00652696
0.00651884
0.00651086
0.006503
0.00649526
0.00648761
0.00648004
0.00647254
0.00646509
0.00645765
0.0064502
0.00644272
0.00643516
0.00642747
0.0064196
0.0064115
0.00640309
0.00639431
0.00638506
0.00637523
0.0063647
0.00635334
0.00634098
0.00632742
0.00631246
0.00629585
0.00627731
0.00625659
0.00623341
0.00620791
0.00617965
0.00615168
0.00612006
0.00610644
0.00662214
0.0066424
0.00665837
0.00666547
0.00666812
0.00666708
0.00666321
0.0066574
0.00665026
0.00664221
0.00663359
0.00662462
0.00661545
0.00660621
0.00659697
0.00658779
0.0065787
0.00656972
0.00656088
0.00655218
0.00654363
0.00653523
0.00652697
0.00651886
0.00651088
0.00650302
0.00649528
0.00648764
0.00648009
0.0064726
0.00646515
0.00645773
0.00645031
0.00644285
0.00643531
0.00642766
0.00641983
0.00641178
0.00640344
0.00639474
0.00638557
0.00637586
0.00636546
0.00635427
0.00634211
0.00632881
0.00631415
0.00629793
0.00627988
0.00625979
0.00623742
0.00621296
0.00618611
0.00615973
0.00613062
0.00611789
0.00662545
0.00664285
0.00665763
0.0066645
0.00666707
0.00666611
0.00666239
0.00665674
0.00664974
0.00664182
0.0066333
0.0066244
0.00661531
0.00660611
0.00659691
0.00658775
0.00657868
0.00656972
0.00656089
0.0065522
0.00654365
0.00653526
0.006527
0.00651889
0.00651092
0.00650307
0.00649534
0.0064877
0.00648016
0.00647268
0.00646525
0.00645784
0.00645044
0.006443
0.0064355
0.00642788
0.0064201
0.00641211
0.00640383
0.00639521
0.00638614
0.00637654
0.0063663
0.00635528
0.00634334
0.0063303
0.00631598
0.00630016
0.00628263
0.0062632
0.00624168
0.00621829
0.00619288
0.0061681
0.00614148
0.00612971
0.00662861
0.0066434
0.00665699
0.0066636
0.00666608
0.00666518
0.00666159
0.00665609
0.00664923
0.00664144
0.00663302
0.00662421
0.00661517
0.00660603
0.00659687
0.00658774
0.00657869
0.00656974
0.00656092
0.00655224
0.0065437
0.00653531
0.00652706
0.00651895
0.00651098
0.00650314
0.00649541
0.00648779
0.00648025
0.00647278
0.00646537
0.00645798
0.0064506
0.00644319
0.00643572
0.00642814
0.00642041
0.00641247
0.00640427
0.00639573
0.00638677
0.0063773
0.00636721
0.00635638
0.00634466
0.00633191
0.00631793
0.00630255
0.00628556
0.00626682
0.00624618
0.0062239
0.00619996
0.00617681
0.00615264
0.00614187
0.00663162
0.00664405
0.00665645
0.00666276
0.00666513
0.00666427
0.00666082
0.00665546
0.00664874
0.00664107
0.00663275
0.00662402
0.00661505
0.00660596
0.00659683
0.00658773
0.0065787
0.00656977
0.00656097
0.00655229
0.00654376
0.00653537
0.00652713
0.00651903
0.00651106
0.00650323
0.00649551
0.00648789
0.00648036
0.00647291
0.00646551
0.00645815
0.00645079
0.00644341
0.00643597
0.00642843
0.00642076
0.00641289
0.00640476
0.00639631
0.00638746
0.00637813
0.0063682
0.00635757
0.0063461
0.00633364
0.00632004
0.00630512
0.0062887
0.00627068
0.00625096
0.00622982
0.00620737
0.00618586
0.00616411
0.00615438
0.00663448
0.00664478
0.00665601
0.00666199
0.00666423
0.0066634
0.00666006
0.00665484
0.00664825
0.0066407
0.00663249
0.00662384
0.00661494
0.0066059
0.00659681
0.00658774
0.00657873
0.00656982
0.00656103
0.00655236
0.00654384
0.00653546
0.00652722
0.00651912
0.00651116
0.00650333
0.00649562
0.00648801
0.0064805
0.00647306
0.00646568
0.00645833
0.006451
0.00644365
0.00643625
0.00642877
0.00642115
0.00641334
0.0064053
0.00639695
0.00638822
0.00637903
0.00636928
0.00635886
0.00634765
0.00633551
0.0063223
0.00630786
0.00629205
0.00627477
0.006256
0.00623604
0.0062151
0.00619526
0.00617587
0.00616721
0.00663723
0.00664557
0.00665565
0.00666128
0.00666338
0.00666257
0.00665932
0.00665423
0.00664777
0.00664034
0.00663223
0.00662367
0.00661483
0.00660584
0.00659679
0.00658775
0.00657877
0.00656987
0.00656109
0.00655244
0.00654392
0.00653555
0.00652732
0.00651923
0.00651128
0.00650345
0.00649575
0.00648815
0.00648065
0.00647323
0.00646587
0.00645855
0.00645124
0.00644393
0.00643657
0.00642913
0.00642157
0.00641384
0.00640589
0.00639764
0.00638904
0.00638001
0.00637044
0.00636025
0.00634932
0.00633752
0.00632472
0.00631078
0.0062956
0.00627912
0.00626133
0.00624257
0.00622315
0.00620499
0.00618794
0.00618036
0.00663985
0.0066464
0.00665536
0.00666064
0.00666258
0.00666176
0.0066586
0.00665363
0.0066473
0.00663998
0.00663197
0.00662349
0.00661472
0.00660578
0.00659677
0.00658777
0.00657881
0.00656993
0.00656117
0.00655252
0.00654402
0.00653565
0.00652743
0.00651935
0.0065114
0.00650359
0.00649589
0.00648831
0.00648082
0.00647342
0.00646608
0.00645878
0.00645151
0.00644423
0.00643692
0.00642954
0.00642204
0.00641439
0.00640652
0.0063984
0.00638993
0.00638106
0.0063717
0.00636175
0.0063511
0.00633966
0.0063273
0.0063139
0.00629938
0.00628371
0.00626694
0.00624942
0.00623154
0.00621506
0.0062003
0.00619382
0.00664236
0.00664726
0.00665514
0.00666005
0.00666183
0.00666099
0.00665791
0.00665304
0.00664683
0.00663962
0.00663171
0.00662331
0.0066146
0.00660572
0.00659676
0.00658778
0.00657885
0.00656999
0.00656124
0.00655261
0.00654412
0.00653576
0.00652754
0.00651947
0.00651153
0.00650373
0.00649605
0.00648848
0.00648101
0.00647362
0.0064663
0.00645904
0.0064518
0.00644456
0.0064373
0.00642997
0.00642254
0.00641498
0.00640721
0.00639921
0.00639089
0.00638219
0.00637304
0.00636335
0.00635302
0.00634195
0.00633004
0.00631721
0.00630338
0.00628856
0.00627283
0.00625658
0.00624026
0.00622548
0.00621296
0.00620757
0.00664477
0.00664813
0.00665498
0.00665952
0.00666112
0.00666025
0.00665723
0.00665247
0.00664636
0.00663926
0.00663144
0.00662312
0.00661448
0.00660565
0.00659673
0.00658779
0.00657889
0.00657005
0.00656132
0.0065527
0.00654422
0.00653587
0.00652766
0.0065196
0.00651167
0.00650388
0.00649621
0.00648865
0.0064812
0.00647384
0.00646655
0.00645931
0.00645211
0.00644491
0.0064377
0.00643044
0.00642309
0.00641561
0.00640796
0.00640008
0.00639192
0.00638341
0.00637448
0.00636506
0.00635505
0.00634438
0.00633296
0.00632072
0.00630761
0.00629367
0.00627902
0.00626405
0.00624931
0.00623623
0.00622591
0.00622162
0.00664708
0.00664899
0.00665486
0.00665903
0.00666046
0.00665954
0.00665657
0.0066519
0.0066459
0.00663889
0.00663117
0.00662293
0.00661435
0.00660558
0.0065967
0.00658779
0.00657891
0.0065701
0.00656138
0.00655278
0.00654431
0.00653598
0.00652778
0.00651973
0.00651181
0.00650403
0.00649638
0.00648884
0.00648141
0.00647407
0.0064668
0.0064596
0.00645244
0.00644529
0.00643814
0.00643094
0.00642367
0.00641629
0.00640875
0.00640101
0.00639301
0.0063847
0.00637601
0.00636688
0.00635722
0.00634697
0.00633606
0.00632443
0.00631207
0.00629904
0.00628549
0.00627185
0.00625868
0.00624731
0.00623915
0.00623594
0.0066493
0.00664982
0.00665478
0.00665859
0.00665984
0.00665886
0.00665592
0.00665134
0.00664543
0.00663852
0.00663088
0.00662272
0.00661421
0.00660549
0.00659665
0.00658778
0.00657893
0.00657014
0.00656144
0.00655286
0.0065444
0.00653608
0.00652789
0.00651985
0.00651195
0.00650419
0.00649655
0.00648903
0.00648162
0.0064743
0.00646707
0.0064599
0.00645278
0.00644569
0.00643859
0.00643147
0.00642429
0.00641701
0.00640959
0.006402
0.00639418
0.00638608
0.00637764
0.00636881
0.00635952
0.00634971
0.00633933
0.00632834
0.00631676
0.00630467
0.00629226
0.00627996
0.00626839
0.00625873
0.00625266
0.00625053
0.00665144
0.00665062
0.00665472
0.00665819
0.00665926
0.00665821
0.0066553
0.00665079
0.00664497
0.00663815
0.00663059
0.0066225
0.00661405
0.00660538
0.00659659
0.00658775
0.00657893
0.00657016
0.00656149
0.00655292
0.00654448
0.00653617
0.006528
0.00651997
0.00651209
0.00650434
0.00649672
0.00648922
0.00648183
0.00647455
0.00646735
0.00646022
0.00645315
0.00644611
0.00643908
0.00643203
0.00642494
0.00641777
0.00641048
0.00640305
0.00639541
0.00638754
0.00637937
0.00637086
0.00636195
0.0063526
0.00634278
0.00633246
0.00632169
0.00631057
0.00629932
0.00628838
0.0062784
0.00627046
0.00626645
0.00626537
0.00665348
0.00665134
0.00665467
0.00665782
0.00665872
0.0066576
0.0066547
0.00665025
0.00664451
0.00663777
0.00663028
0.00662226
0.00661388
0.00660526
0.00659651
0.0065877
0.00657891
0.00657017
0.00656151
0.00655296
0.00654454
0.00653625
0.00652809
0.00652008
0.00651221
0.00650448
0.00649688
0.00648941
0.00648205
0.0064748
0.00646763
0.00646055
0.00645353
0.00644654
0.00643958
0.00643262
0.00642563
0.00641857
0.00641143
0.00640416
0.00639672
0.00638908
0.0063812
0.00637302
0.00636452
0.00635565
0.00634641
0.00633679
0.00632685
0.00631673
0.00630667
0.00629711
0.00628873
0.0062825
0.00628049
0.00628046
0.00665541
0.00665198
0.00665462
0.00665748
0.00665822
0.00665702
0.00665413
0.00664972
0.00664405
0.00663739
0.00662997
0.00662202
0.00661368
0.00660511
0.0065964
0.00658764
0.00657887
0.00657016
0.00656152
0.00655299
0.00654458
0.00653631
0.00652817
0.00652018
0.00651233
0.00650462
0.00649704
0.00648959
0.00648226
0.00647504
0.00646792
0.00646088
0.00645392
0.006447
0.00644011
0.00643324
0.00642635
0.00641942
0.00641242
0.00640533
0.0063981
0.00639071
0.00638312
0.0063753
0.00636722
0.00635886
0.00635022
0.00634132
0.00633225
0.00632315
0.00631429
0.00630613
0.00629936
0.00629484
0.00629478
0.00629577
0.00665721
0.00665253
0.00665458
0.00665719
0.00665776
0.00665648
0.00665359
0.00664922
0.00664361
0.00663701
0.00662966
0.00662176
0.00661348
0.00660495
0.00659628
0.00658755
0.00657881
0.00657012
0.00656151
0.006553
0.00654461
0.00653636
0.00652824
0.00652027
0.00651243
0.00650474
0.00649719
0.00648977
0.00648248
0.00647529
0.00646821
0.00646123
0.00645431
0.00644747
0.00644066
0.00643388
0.0064271
0.00642031
0.00641346
0.00640655
0.00639955
0.00639242
0.00638514
0.00637769
0.00637005
0.00636222
0.00635421
0.00634606
0.00633787
0.00632981
0.00632219
0.00631544
0.00631027
0.00630745
0.00630929
0.00631128
0.00665879
0.00665298
0.00665453
0.00665693
0.00665736
0.00665601
0.0066531
0.00664876
0.00664319
0.00663664
0.00662935
0.0066215
0.00661327
0.00660478
0.00659614
0.00658744
0.00657873
0.00657007
0.00656148
0.00655299
0.00654462
0.00653638
0.00652829
0.00652033
0.00651253
0.00650486
0.00649733
0.00648994
0.00648268
0.00647554
0.00646851
0.00646157
0.00645472
0.00644795
0.00644123
0.00643454
0.00642789
0.00642123
0.00641455
0.00640784
0.00640106
0.0063942
0.00638725
0.00638019
0.00637301
0.00636572
0.00635836
0.00635098
0.0063437
0.00633672
0.00633033
0.006325
0.00632143
0.0063203
0.00632401
0.00632699
0.00666006
0.00665333
0.0066545
0.00665672
0.00665703
0.0066556
0.00665268
0.00664835
0.00664281
0.0066363
0.00662905
0.00662124
0.00661305
0.0066046
0.006596
0.00658732
0.00657864
0.00657
0.00656143
0.00655296
0.00654461
0.0065364
0.00652832
0.00652039
0.0065126
0.00650496
0.00649747
0.00649011
0.00648288
0.00647578
0.0064688
0.00646192
0.00645514
0.00644844
0.00644181
0.00643523
0.0064287
0.00642219
0.00641568
0.00640917
0.00640263
0.00639606
0.00638945
0.00638279
0.00637608
0.00636936
0.00636267
0.00635608
0.00634973
0.00634383
0.0063387
0.00633479
0.00633282
0.00633336
0.0063389
0.00634286
0.00666085
0.00665361
0.00665452