/*--------------------------------*- C++ -*----------------------------------*\
  =========                 |
  \\      /  F ield         | OpenFOAM: The Open Source CFD Toolbox
   \\    /   O peration     | Website:  https://openfoam.org
    \\  /    A nd           | Version:  6
     \\/     M anipulation  |
\*---------------------------------------------------------------------------*/
FoamFile
{
    version     2.0;
    format      ascii;
    class       volScalarField;
    location    "0";
    object      P_rec;
}
// * * * * * * * * * * * * * * * * * * * * * * * * * * * * * * * * * * * * * //

dimensions      [0 2 -2 0 0 0 0];

internalField   nonuniform List<scalar> 
918
(
2.14709
0.663896
0.157319
2.15164
-0.00113054
0.574916
-0.0614512
1.46266
2.17518
0.413987
0.308941
1.74337
0.549933
0.493142
-0.319569
0.127293
1.70347
-0.341711
1.84929
0.14758
0.629144
2.19987
2.0746
1.87353
1.72012
0.36404
0.624476
0.00142427
-0.0578753
-0.0391888
-0.0056362
0.0735219
0.0351704
0.784011
0.591634
0.585111
1.81353
1.09666
0.139065
0.114395
0.0491743
-0.253585
1.50581
1.53677
0.757235
1.41055
1.34738
1.8543
2.14055
2.17647
2.08671
2.15844
2.19948
0.761092
0.378255
0.323499
0.425941
0.397081
0.401612
0.318034
0.318215
0.335069
0.279571
1.68032
1.74113
1.74361
1.75055
1.72845
0.655664
0.527961
0.562498
0.571037
0.68028
0.458183
0.643137
0.466224
0.533355
0.417896
0.388404
-0.392089
-0.880545
0.0222624
0.0444366
0.0313278
0.138081
0.166699
1.70628
1.7137
1.67341
1.67712
1.175
-0.165132
-0.389582
1.93231
1.91172
2.15288
2.07357
1.94704
1.86117
0.1476
0.145277
0.0832959
0.159367
0.121432
0.759906
0.921891
1.80295
1.87118
1.71094
1.71346
1.71371
1.4204
1.76063
1.7396
0.32019
0.561385
0.332455
0.46912
0.646601
0.581919
0.781757
0.881732
-0.0724787
-0.00937988
0.134656
0.0349494
0.0926605
1.80293
1.77909
1.82708
1.82359
1.84744
1.0004
0.913816
1.17517
1.2554
0.343869
0.331149
-0.220756
-0.165173
-0.401593
1.53989
1.5595
1.60105
0.562049
0.73913
0.542204
0.889262
0.864828
1.86017
1.8423
1.84464
1.88042
1.87023
1.88406
2.15952
2.15086
2.19413
0.743953
0.816943
0.76358
0.680956
0.0775781
0.228171
0.0577547
0.402964
0.406864
0.381205
0.458712
0.45921
0.375484
0.362195
0.336568
0.359397
0.204455
0.205675
1.68838
1.65238
1.67754
1.70328
1.79415
1.77944
1.75529
1.77612
0.78593
0.750088
0.668106
0.632398
-1.41487
-2.93465
0.0774568
0.148896
0.0210733
0.00951591
0.00503978
-0.105376
-0.00164828
-0.0592451
0.302997
0.25158
0.171729
0.229747
1.71714
1.74418
1.21674
1.27136
1.0632
1.08262
1.87509
1.89974
1.90782
1.90387
0.225389
0.147508
0.19696
1.2758
1.07484
1.16985
1.38411
1.26765
1.4778
1.54241
1.73851
1.74773
1.76039
0.289464
0.449887
1.0315
0.629385
1.03329
0.777596
0.600388
0.546359
0.631082
1.71628
1.76564
1.75011
1.84785
1.83505
1.84865
1.81075
1.81082
1.81055
0.749961
0.532308
1.44698
1.41691
1.30161
1.39843
1.54117
1.53184
1.65942
1.61172
1.63911
1.03845
1.03886
0.607978
0.567987
1.5937
1.60991
1.59789
0.641547
0.546418
0.619447
0.593892
0.558857
0.66265
0.562622
-0.307229
0.135895
0.2681
0.203441
0.237159
0.289222
0.381216
0.337311
1.2294
1.30947
0.854795
1.02837
0.969465
0.29195
0.374185
0.558751
0.373582
0.41065
0.562676
0.470803
1.44515
1.41282
1.46845
1.45464
1.48902
1.20464
1.13872
1.09967
0.520018
0.514809
0.509109
1.33048
1.40452
1.3929
1.81731
1.83916
-0.0506037
0.0348917
2.03831
2.05771
-0.0408071
0.00920977
0.268784
0.201199
1.13638
1.91206
1.83383
1.97841
0.397304
0.683016
0.297404
0.30821
0.17494
1.71229
1.64962
1.58123
-0.0509342
0.127031
0.119085
0.189841
1.93791
1.90327
1.94753
1.96544
2.00849
0.021628
0.0164074
0.0889072
0.0152609
0.131828
0.144197
1.82494
1.79125
0.402692
1.92957
1.97016
1.98957
1.96061
1.98665
1.96913
0.0540366
0.117698
0.132477
1.29951
1.46345
0.384667
0.3866
0.306568
0.231061
0.10671
0.365879
0.393793
0.371026
0.436764
1.54688
1.42741
1.23096
0.993834
1.20756
1.19933
1.88718
1.91231
1.8669
1.89023
1.94583
1.86991
1.98122
1.91789
1.92712
2.00011
0.44824
0.46412
0.513693
0.369012
0.84392
0.843766
0.709794
0.761384
0.499255
0.230813
0.304258
0.275008
0.332228
0.322329
0.403656
0.272297
0.483989
0.208324
0.364273
0.216067
0.421197
0.212885
1.69562
1.73506
1.69591
1.75411
1.72017
1.7424
1.67955
1.68174
1.72551
1.59571
1.61039
1.62889
0.0612436
0.0534191
0.0953275
0.17543
0.193776
0.00637433
-0.0289752
-0.000527394
0.0434432
-0.043807
0.121646
0.122344
0.344139
0.121028
1.14731
0.981349
0.870836
1.86205
1.93475
1.88176
1.95231
1.99686
2.05855
1.99456
1.92586
1.81322
1.84261
1.78485
1.81192
0.474785
0.406537
0.643453
0.581621
1.179
1.71496
1.51361
1.464
1.46337
1.58863
0.572547
0.309557
0.353811
0.254852
0.201295
0.116423
0.117131
0.401872
0.567702
0.284744
0.455755
0.559592
0.447117
0.394472
0.856859
1.50687
0.818642
0.832756
1.12695
1.04854
0.836022
1.58033
1.60383
1.38162
1.3113
1.51321
1.47029
1.48187
1.49397
1.51395
1.50876
1.3344
1.34644
1.27603
1.64537
1.53421
1.54648
1.45748
1.89731
1.91716
1.87671
1.85449
1.92131
1.85202
1.82522
1.79715
1.8289
1.88647
1.88413
1.84495
0.478648
0.437844
0.474765
0.297314
0.451801
0.352727
0.481039
0.688657
0.519053
0.716651
0.917885
0.728652
0.401861
0.624184
0.529609
0.802246
0.682216
0.617514
0.576281
0.656659
0.61683
0.696919
0.632536
0.377281
0.410705
0.459297
0.301508
0.519338
0.470355
0.564384
0.322846
0.419873
0.31711
0.237571
0.40883
0.57112
0.483883
0.466097
0.149704
0.147607
0.018959
0.0810405
0.485808
0.249798
1.80906
1.76585
1.77836
1.71297
1.7667
1.74175
1.64899
1.80286
1.82537
1.79154
1.68612
1.65947
1.63642
1.68524
1.70434
1.69916
1.83844
1.81175
1.71687
1.76558
1.65761
1.68735
1.58577
1.61952
1.67308
-0.083249
0.0573897
-0.025174
-0.0198534
0.0641224
0.132105
0.335402
0.208057
0.373828
0.286096
0.269394
0.109191
0.172082
0.575239
0.728653
0.451975
0.300733
0.197381
1.19366
1.25631
1.10499
1.04831
1.14945
1.13185
1.17883
0.92295
0.905968
0.994939
1.41879
1.39636
1.88285
1.86068
1.90701
1.91802
1.88835
0.655265
0.878927
0.986851
1.12423
1.20276
1.17536
1.0309
1.04077
1.12256
1.11926
1.68007
1.69793
1.70727
1.74034
1.74788
1.50702
1.59589
1.62607
1.64614
1.62121
1.62895
1.65281
1.61537
1.59024
1.6166
1.61708
1.59217
1.6083
1.57523
1.60199
1.69336
1.67509
1.68431
1.67824
1.75297
1.65355
1.7106
1.77598
1.71387
1.60863
1.59281
1.61623
1.61958
1.6422
1.62898
1.61064
1.19331
1.36528
1.07935
0.965107
1.08296
0.90576
0.840186
0.995872
1.00128
0.68998
0.702842
0.393261
1.40194
0.526149
0.578078
0.0707227
1.26007
1.31821
1.25101
1.06611
1.12661
1.61546
1.6327
1.64958
1.47681
1.44133
1.41712
1.41861
1.53953
1.41541
1.34815
1.40526
1.21191
1.2888
1.43631
1.37811
1.33995
1.40047
1.46605
1.38867
1.389
1.48033
1.47621
1.5175
1.54052
1.58404
1.61806
1.55493
1.43583
1.50479
1.47031
1.52841
1.56754
1.54117
1.87542
1.84812
1.86042
1.84429
1.82675
1.85432
1.79804
1.88224
1.90648
1.93192
1.90595
0.362425
0.408263
0.463788
0.347086
0.606144
0.526279
0.435656
0.427877
0.537012
0.520741
0.471562
0.462252
0.604484
0.516254
0.657385
0.705731
0.647477
0.579068
0.849833
0.911063
0.891177
0.916389
0.819009
0.789112
0.867802
0.436381
0.49444
0.438009
0.399197
0.454623
0.254868
0.381067
0.296511
0.38802
0.353789
0.000525331
0.224737
0.320148
0.0787997
0.193463
0.238391
1.77708
1.75129
1.68915
1.64951
1.6861
1.68661
1.78892
1.79965
1.82268
1.80953
1.80588
1.77153
1.79301
0.112866
0.281924
0.318136
0.313908
0.173333
0.0982946
0.110793
1.0333
0.837742
0.917293
0.715064
0.542926
0.615739
1.26989
1.41406
1.36779
1.43563
1.30636
1.27308
1.40502
1.48796
1.20679
1.23067
1.17168
1.27034
1.30967
1.33113
1.25659
1.04599
1.15878
1.40223
1.00281
0.939255
1.17611
1.16971
1.17277
1.16578
1.30792
1.20533
1.20351
1.29332
1.15864
1.2611
1.28977
1.25827
1.32398
0.961624
1.06957
0.968653
1.6251
1.66439
1.69162
1.65306
1.67308
1.68191
1.69646
1.71926
1.75522
1.74342
0.37378
0.544883
-0.144518
0.433104
0.679202
1.47829
1.10666
1.65031
1.59866
1.14621
1.30569
1.45875
1.45046
1.51355
1.45581
1.39937
1.48109
1.42606
1.45628
1.3523
1.26181
1.58995
1.58675
1.57596
1.59863
1.56773
1.60058
1.72844
1.79041
1.76915
1.82589
1.84745
1.87577
0.65885
0.579298
0.663823
0.667516
0.681828
0.65547
0.0643229
0.118041
0.414199
0.298314
0.212098
0.327676
0.951418
0.97366
0.818718
0.912294
0.753166
0.562023
0.588141
0.649945
0.798163
0.918172
1.22037
1.235
1.22091
1.25406
1.19236
1.303
1.34362
1.34348
1.37734
1.31486
1.31067
1.11113
0.774237
0.894815
1.40755
1.82099
1.62866
1.40949
0.970682
1.10639
1.53272
1.45888
1.44687
1.52125
1.46813
0.974674
1.03984
0.995931
0.924543
1.20975
1.08253
1.07672
1.02975
1.05085
)
;

boundaryField
{
    wall-4
    {
        type            calculated;
        value           nonuniform List<scalar> 
100
(
2.14709
0.663896
0.157319
2.15164
0.574916
-0.0614512
1.46266
0.413987
0.308941
1.74337
0.549933
0.493142
-0.319569
1.70347
-0.341711
1.84929
0.14758
0.629144
1.87353
1.72012
0.36404
0.624476
0.00142427
0.784011
1.81353
0.114395
-0.253585
1.53677
0.757235
1.34738
1.8543
0.323499
0.397081
0.318215
0.279571
1.68032
1.74361
1.72845
0.68028
0.643137
0.533355
0.388404
-0.880545
0.0444366
1.7137
1.67712
-0.389582
1.91172
1.86117
0.145277
0.121432
0.921891
1.87118
1.71371
1.4204
1.7396
0.32019
0.46912
0.581919
0.881732
1.77909
1.82708
1.84744
0.331149
-0.401593
1.60105
0.542204
0.864828
1.84464
1.88406
0.0577547
0.406864
0.359397
0.205675
1.65238
1.70328
1.79415
1.77612
0.632398
0.148896
1.74418
1.87509
1.90387
0.19696
1.16985
1.26765
1.54241
1.76039
0.449887
0.777596
1.75011
1.84865
1.81055
1.63911
1.03886
1.59789
0.593892
0.237159
0.41065
1.09967
)
;
    }
    velocity-inlet-5
    {
        type            calculated;
        value           nonuniform List<scalar> 8(2.14709 2.15164 2.17518 2.19987 2.17647 2.19948 2.15288 2.19413);
    }
    velocity-inlet-6
    {
        type            calculated;
        value           nonuniform List<scalar> 4(0.663896 0.574916 0.585111 0.562498);
    }
    pressure-outlet-7
    {
        type            calculated;
        value           uniform 0;
    }
    wall-8
    {
        type            calculated;
        value           nonuniform List<scalar> 
34
(
-0.00113054
0.127293
0.0351704
1.09666
0.761092
0.401612
0.166699
1.175
0.0926605
0.913816
1.2554
1.53989
0.816943
0.680956
0.458712
0.375484
-2.93465
0.302997
0.229747
1.27136
1.08262
0.532308
1.44698
1.39843
1.53184
0.567987
0.135895
0.337311
1.30947
0.969465
1.46845
1.48902
0.509109
1.3929
)
;
    }
    frontAndBackPlanes
    {
        type            empty;
    }
}

