/*--------------------------------*- C++ -*----------------------------------*\
  =========                 |
  \\      /  F ield         | OpenFOAM: The Open Source CFD Toolbox
   \\    /   O peration     | Website:  https://openfoam.org
    \\  /    A nd           | Version:  6
     \\/     M anipulation  |
\*---------------------------------------------------------------------------*/
FoamFile
{
    version     2.0;
    format      ascii;
    class       volScalarField;
    location    "0";
    object      p;
}
// * * * * * * * * * * * * * * * * * * * * * * * * * * * * * * * * * * * * * //

dimensions      [0 2 -2 0 0 0 0];

internalField   nonuniform List<scalar> 
13046
(
0.514389
0.491683
0.549124
0.520838
0.544076
0.505357
0.502481
0.508808
0.55151
0.266252
0.221929
0.516557
0.502384
0.460993
0.543312
0.329016
0.516977
0.249638
0.546491
0.533651
0.511228
0.319486
0.51875
0.247013
0.517839
0.517477
0.542626
0.488568
0.461147
0.545326
0.523874
0.470318
0.542492
0.530393
0.545815
0.514084
0.52914
0.548063
0.5242
0.525041
0.535393
0.457049
0.527511
0.545965
0.533269
0.525751
0.537409
0.534539
0.50286
0.490635
0.549612
0.504135
0.527865
0.414493
0.511309
0.397542
0.532366
0.32951
0.447324
0.522599
0.437706
0.446983
0.539101
0.524792
0.322265
0.361549
0.461928
0.334023
0.518646
0.474564
0.344342
0.519575
0.310168
0.435182
0.521836
0.546315
0.544448
0.496172
0.523879
0.405658
0.306218
0.512205
0.51351
0.542046
0.522043
0.301582
0.339561
0.334927
0.525849
0.348486
0.519742
0.289477
0.350744
0.443755
0.426748
0.40631
0.39608
0.533988
0.535834
0.527029
0.335946
0.363221
0.524582
0.541163
0.529089
0.544589
0.426404
0.514983
0.526514
0.525685
0.433823
0.174447
0.511439
0.132582
0.506356
0.475242
0.540618
0.429926
0.443128
0.370608
0.530512
0.394645
0.531693
0.248037
0.197096
0.515167
0.476964
0.419236
0.543661
0.520601
0.535921
0.456376
0.519598
0.305302
0.376255
0.397597
0.374872
0.530972
0.516357
0.461782
0.539656
0.465437
0.503379
0.541961
0.523743
0.513748
0.434314
0.541424
0.442105
0.523076
0.432966
0.427666
0.53642
0.553848
0.475199
0.519471
0.484123
0.394098
0.472499
0.38957
0.533212
0.533698
0.465537
0.4868
0.536462
0.259878
0.516709
0.233285
0.205788
0.51264
0.154276
0.390537
0.357628
0.530329
0.520163
0.41593
0.533272
0.468831
0.536343
0.496217
0.519952
0.266262
0.26915
0.522058
0.431436
0.527674
0.551822
0.463031
0.514821
0.475873
0.504475
0.540462
0.455014
0.54734
0.481538
0.437714
0.540705
0.326074
0.523051
0.316094
0.524976
0.331494
0.379285
0.294447
0.340937
0.518902
0.496779
0.383448
0.519166
0.487444
0.411955
0.519241
0.303541
0.314321
0.286565
0.519356
0.521303
0.547735
0.52495
0.496473
0.465293
0.543404
0.524722
0.320653
0.387077
0.476992
0.465149
0.549821
0.514145
0.191343
0.211162
0.521238
0.381821
0.489027
0.316458
0.361048
0.523038
0.423131
0.48277
0.540518
0.470224
0.422918
0.543095
0.422775
0.334404
0.519676
0.373212
0.459533
0.527629
0.513634
0.191117
0.191547
0.53153
0.53093
0.422637
0.200039
0.510403
0.0947137
0.542811
0.514776
0.526336
0.433056
0.437034
0.474623
0.486356
0.543815
0.536251
0.517402
0.389774
0.286751
0.484113
0.431238
0.538346
0.370666
0.437957
0.529634
0.41024
0.373598
0.530821
0.53438
0.525747
0.546486
0.407816
0.469302
0.535435
0.486479
0.414213
0.537677
0.480437
0.476715
0.533713
0.524529
0.408698
0.404222
0.454112
0.533982
0.388962
0.528988
0.365182
0.540984
0.525328
0.442757
0.532924
0.382468
0.477208
0.45033
0.375078
0.527884
0.528073
0.508528
0.410947
0.434607
0.42655
0.363841
0.526568
0.359014
0.529366
0.520079
0.27881
0.286689
0.453127
0.406418
0.534537
0.0588187
0.509424
0.12575
0.499007
0.539357
0.513181
0.451725
0.457212
0.539934
0.525951
0.347333
0.337762
0.505398
0.381769
0.529913
0.406265
0.33119
0.521803
0.488106
0.545911
0.442231
0.445148
0.540055
0.481029
0.546915
0.352037
0.51881
0.270134
0.504412
0.367485
0.520304
0.430088
0.434837
0.536696
0.458649
0.495883
0.544844
0.431378
0.505083
0.536716
0.515987
0.494249
0.547612
0.524518
0.386224
0.483715
0.311954
0.325451
0.522145
0.411633
0.330714
0.525086
0.482969
0.516577
0.366623
0.419148
0.431278
0.344505
0.326574
0.519982
0.523174
0.510054
0.0749432
0.149008
0.217621
0.510968
0.110227
0.422705
0.465693
0.531753
0.521173
0.317259
0.294491
0.465472
0.459571
0.372446
0.362496
0.528471
0.525904
0.513948
0.286584
0.239848
0.185074
0.509295
0.0676678
0.511092
0.542634
0.540767
0.17394
0.103376
0.511169
0.512645
0.417189
0.529885
0.275423
0.278504
0.519926
0.0805647
0.510087
0.0660745
0.52966
0.533
0.46939
0.50134
0.53354
0.544379
0.256139
0.515337
0.188216
0.493171
0.526874
0.544231
0.518147
0.542603
0.541898
0.527934
0.363724
0.490727
0.488227
0.541365
0.542604
0.50302
0.515242
0.537211
0.493065
0.372073
0.515504
0.518679
0.519917
0.247764
0.24687
0.299931
0.292913
0.28763
0.314867
0.520503
0.522671
0.479704
0.345372
0.522176
0.52455
0.43675
0.363637
0.454101
0.520773
0.150009
0.509581
0.105767
0.519747
0.283057
0.335257
0.218227
0.513903
0.178132
0.510643
0.0582514
0.0597082
0.0207201
0.510503
0.097096
0.43433
0.396568
0.530197
0.236165
0.511202
0.182296
0.38002
0.374748
0.530518
0.305702
0.511915
0.195681
0.496779
0.543608
0.4976
0.304402
0.516332
0.257
0.370431
0.521523
0.461826
0.431051
0.371131
0.532102
0.512032
-0.043148
-0.00161022
0.0880425
0.509527
0.103681
0.506612
0.547277
0.498195
0.27746
0.237468
0.515898
0.514095
0.215187
0.274197
0.318959
0.521092
0.293692
0.519616
0.298306
0.376871
0.504097
0.361456
0.517494
0.344409
0.446399
0.527962
0.517588
0.361442
0.250905
0.501571
0.494073
0.431651
0.418887
0.536443
0.538704
0.507991
0.433195
0.535065
0.476831
0.360537
0.529976
0.420843
0.349351
0.526443
0.305377
0.284816
0.521541
0.52533
0.350845
0.398345
0.0232193
0.510295
0.120149
0.532298
0.526301
0.543042
0.469449
0.546536
0.478288
0.497048
0.492291
0.527098
0.379323
0.528761
0.401597
0.0939162
0.50915
0.070093
0.28651
0.254345
0.517478
0.517524
0.513712
0.409911
0.436979
0.3464
0.522982
0.520197
0.305948
0.390293
0.140267
0.154682
0.511798
0.166267
0.164945
0.512129
0.461333
0.376355
0.532571
0.543839
0.519659
0.454519
0.30489
0.519432
0.267959
0.427019
0.380175
0.533705
0.528418
0.335972
0.379672
0.499144
0.528622
0.402231
0.429358
0.489775
0.535937
0.528764
0.531323
0.44633
0.518801
0.261422
0.284708
0.411859
0.361986
0.529448
0.533969
0.537629
0.475231
0.340744
0.514374
0.228933
0.505386
0.460518
0.542399
0.486551
0.504101
0.547698
0.441354
0.384021
0.530693
0.250935
0.511451
0.142651
0.267963
0.511269
0.151657
0.527026
0.32542
0.380296
0.410116
0.496098
0.530347
0.509306
0.111788
0.224455
0.527415
0.354447
0.363327
0.509871
0.0378188
0.0346367
0.076332
-0.00453742
0.509471
0.520092
0.266463
0.364682
0.516216
0.223484
0.238513
0.327735
0.3423
0.518403
0.263158
0.521141
0.28857
0.352989
0.366043
0.527505
0.529019
0.44905
0.340946
0.532815
0.543244
0.489705
0.363677
0.387573
0.52954
0.529825
0.370074
0.398907
0.377488
0.517566
0.258707
0.491717
0.365318
0.52742
0.502816
0.407819
0.525818
0.403616
0.425656
0.537022
0.394677
0.420471
0.534955
0.536896
0.531043
0.489356
0.492793
0.405682
0.540968
0.516453
0.314943
0.252565
0.151872
0.511641
0.175477
0.129912
0.511227
0.176793
0.518976
0.536293
0.443659
0.122317
0.510848
0.124136
0.398442
0.527696
0.337037
0.509858
0.128874
0.0987544
0.522262
0.545091
0.514292
0.470941
0.452113
0.541398
0.498861
0.415512
0.531982
0.512703
0.250181
0.205314
0.424465
0.382711
0.531562
0.514165
0.325322
0.222552
0.453268
0.443156
0.543014
0.536386
0.546446
0.495639
0.247943
0.220728
0.515066
0.527619
0.337799
0.363107
0.242602
0.223262
0.512714
0.511951
0.162566
0.142529
0.448579
0.48083
0.543166
0.444752
0.408933
0.530806
0.493637
0.507721
0.552101
0.204869
0.175089
0.211661
0.512641
0.171471
0.5114
0.426724
0.40641
0.538173
0.219246
0.197227
0.23339
0.213705
0.515462
0.513692
0.409134
0.459968
0.540885
0.470162
0.471329
0.542888
0.288453
0.513322
0.184993
0.46236
0.465147
0.541692
0.490447
0.490773
0.545453
0.250631
0.511692
0.163115
0.459286
0.416883
0.536257
0.475272
0.354444
0.522502
0.504305
0.383928
0.524798
0.39155
0.51798
0.306613
0.510895
-0.017378
0.0234885
0.451421
0.456999
0.541249
0.302488
0.515465
0.221604
0.511516
0.363169
0.512214
0.126771
0.508432
0.0370341
0.543509
0.536035
0.517456
0.467602
0.518933
0.456134
0.496424
0.509446
0.547641
0.531841
0.541389
0.527284
0.470444
0.53662
0.464939
0.462377
0.479952
0.548617
0.470312
0.483951
0.547083
0.510412
0.192487
0.140547
0.514287
0.444638
0.532867
0.241021
0.241054
0.516913
0.400265
0.386474
0.40883
0.38995
0.533008
0.529832
0.509045
0.464761
0.537798
0.476023
0.386869
0.527976
0.426397
0.429233
0.54001
0.535225
0.513858
0.539411
0.379481
0.396905
0.531034
0.528813
0.537053
0.492519
0.423306
0.45346
0.540059
0.474007
0.40312
0.528859
0.534191
0.535984
0.503076
0.546085
0.502157
0.542133
0.536957
0.525486
0.543843
0.491394
0.542978
0.472822
0.502498
0.497483
0.443898
0.443026
0.54079
0.537383
0.521694
0.306339
0.382959
0.521768
0.369669
0.482862
0.522922
0.52368
0.291643
0.30194
0.364162
0.3603
0.523316
0.513699
0.393284
0.535057
0.541717
0.525065
0.376652
0.382032
0.530242
0.527571
0.53909
0.45902
0.46754
0.398266
0.529752
0.41218
0.414027
0.323311
0.52583
0.335871
0.526781
0.410312
0.398082
0.533153
0.148696
0.0626894
0.509225
0.506881
0.374995
0.51424
0.505949
0.509101
0.514165
0.371362
0.523041
0.382084
0.361859
0.411407
0.528076
0.481625
0.396106
0.530222
0.523225
0.512213
0.392059
0.506612
0.513134
0.518925
0.533324
0.411177
0.406534
0.504576
0.525443
0.391052
0.41251
0.409995
0.535973
0.53368
0.537184
0.495485
0.274172
0.514684
0.202359
0.520129
0.515234
0.38084
0.473142
0.459725
0.401874
0.393758
0.530315
0.534928
0.515941
0.222511
0.292076
0.289689
0.514629
0.196571
0.27159
0.513488
0.186444
0.398859
0.525835
0.327181
0.487942
0.411103
0.532648
0.29686
0.348551
0.469322
0.301381
0.428773
0.170088
0.388235
0.331056
0.268183
0.418882
0.41599
0.250137
0.296391
0.419276
0.327397
0.29847
0.307241
0.325535
0.343825
0.390789
0.347203
0.320968
0.428445
0.510476
0.477602
0.354055
0.439232
0.253066
0.363891
0.287095
0.261424
0.382729
0.348641
0.335786
0.27548
0.358707
0.462441
0.426653
0.316033
0.376478
0.311783
0.509968
0.288599
0.417459
0.449881
0.310692
0.317083
0.298638
0.25302
0.288757
0.480258
0.34625
0.30107
0.314088
0.261507
0.474946
0.393556
0.352021
0.299141
0.411967
0.286479
0.292796
0.478222
0.342251
0.351577
0.395404
0.358912
0.505442
0.427746
0.427957
0.239039
0.262705
0.317941
0.403272
0.253839
0.333537
0.353187
0.270278
0.405694
0.446943
0.325966
0.342661
0.256444
0.290759
0.304759
0.413001
0.305087
0.30218
0.325965
0.483253
0.298599
0.410996
0.476985
0.337069
0.297135
0.111625
0.281846
0.30147
0.296866
0.235319
0.38261
0.431927
0.458425
0.508975
0.292872
0.292423
0.251435
0.308382
0.283849
0.460706
0.436042
0.388169
0.276614
0.26096
0.382616
0.437859
0.321053
0.302605
0.233415
0.320573
0.334085
0.492063
0.502097
0.406039
0.357575
0.32369
0.253842
0.494507
0.266716
0.400684
0.234731
0.478641
0.258941
0.239756
0.285111
0.445671
0.326442
0.208755
0.288251
0.387848
0.29304
0.414566
0.386967
0.302767
0.448239
0.315195
0.283786
0.454106
0.288328
0.326601
0.251019
0.365643
0.314442
0.451199
0.410109
0.314776
0.404025
0.415842
0.466915
0.354599
0.316177
0.300627
0.421304
0.267637
0.373383
0.255888
0.505653
0.322641
0.454745
0.491712
0.352758
0.498106
0.45505
0.464771
0.273286
0.229703
0.252093
0.469549
0.272795
0.262089
0.260489
0.264199
0.324774
0.314199
0.357888
0.492212
0.407943
0.310016
0.41238
0.307138
0.507337
0.222209
0.443048
0.304691
0.226306
0.48099
0.494244
0.300068
0.301515
0.504949
0.365653
0.309929
0.282684
0.403914
0.459555
0.408374
0.288653
0.299487
0.429023
0.359279
0.283998
0.375731
0.254719
0.267381
0.323565
0.438537
0.23685
0.323772
0.432593
0.302724
0.232724
0.319066
0.303912
0.318392
0.376682
0.382942
0.289399
0.259155
0.277627
0.393
0.402397
0.305058
0.382777
0.317057
0.274357
0.366412
0.311824
0.218835
0.407429
0.452846
0.354854
0.485361
0.462186
0.508872
0.298143
0.207198
0.327916
0.315568
0.317308
0.243154
0.371588
0.476879
0.404441
0.362976
0.283785
0.312602
0.418385
0.346903
0.397325
0.289507
0.333623
0.308488
0.245787
0.289217
0.303177
0.297344
0.276982
0.384933
0.357505
0.315381
0.390808
0.306987
0.322779
0.28969
0.318229
0.292852
0.306084
0.361562
0.239366
0.196657
0.337753
0.246454
0.227097
0.361398
0.228624
0.230732
0.451092
0.386077
0.289076
0.412295
0.265878
0.381333
0.37603
0.255376
0.302308
0.436304
0.328412
0.417753
0.164495
0.280558
0.454067
0.30583
0.285021
0.184915
0.237254
0.22388
0.241402
0.311151
0.391185
0.27237
0.226303
0.280361
0.304594
0.50773
0.286687
0.403418
0.375731
0.237282
0.331607
0.286736
0.257151
0.377768
0.318973
0.477049
0.401419
0.286295
0.312861
0.348339
0.510936
0.41572
0.463128
0.409502
0.314215
0.356262
0.322686
0.275778
0.241784
0.300823
0.314239
0.398344
0.294601
0.24746
0.301889
0.322654
0.298054
0.308123
0.440302
0.315006
0.307277
0.473341
0.44809
0.289714
0.361338
0.460974
0.265143
0.222946
0.315671
0.272938
0.258076
0.457967
0.284783
0.330103
0.467913
0.230536
0.360185
0.297535
0.354712
0.316449
0.29706
0.117694
0.328957
0.250531
0.278763
0.312666
0.309559
0.413227
0.477033
0.295986
0.360779
0.325384
0.277852
0.215458
0.4356
0.385311
0.282373
0.248843
0.37138
0.248504
0.301049
0.28992
0.282987
0.428559
0.475725
0.310655
0.410431
0.508241
0.439297
0.443411
0.467417
0.310147
0.306355
0.25993
0.507798
0.436363
0.454102
0.295496
0.303457
0.231228
0.417762
0.320935
0.282336
0.45542
0.393475
0.272496
0.326869
0.294809
0.30081
0.295053
0.312192
0.317251
0.270227
0.31324
0.241061
0.331324
0.27106
0.39367
0.342515
0.23731
0.461206
0.471419
0.40806
0.309414
0.36362
0.224631
0.415986
0.345868
0.243706
0.458794
0.19399
0.478729
0.250219
0.32528
0.340392
0.405264
0.427415
0.297858
0.490839
0.299033
0.442567
0.326716
0.392043
0.308048
0.290333
0.299509
0.447431
0.338731
0.50538
0.394541
0.239475
0.29041
0.383623
0.209192
0.310388
0.327781
0.27243
0.482596
0.267648
0.255935
0.424737
0.29985
0.476924
0.500089
0.305175
0.507436
0.488085
0.442639
0.456576
0.368943
0.251789
0.286287
0.31872
0.433945
0.321717
0.194991
0.489549
0.27179
0.313706
0.282009
0.465581
0.506479
0.282819
0.439453
0.377199
0.477093
0.330142
0.41385
0.302741
0.491819
0.503361
0.399641
0.286598
0.43018
0.315423
0.356501
0.347364
0.333698
0.376884
0.30269
0.200387
0.260235
0.339059
0.387007
0.36271
0.455451
0.279024
0.316907
0.391752
0.263969
0.469954
0.289545
0.302186
0.469225
0.447843
0.368911
0.494941
0.288945
0.304523
0.41743
0.351818
0.340512
0.322939
0.300384
0.383272
0.400619
0.300611
0.294249
0.365694
0.238824
0.268446
0.478157
0.506288
0.505766
0.32927
0.513053
0.505939
0.485587
0.216397
0.377923
0.374961
0.494622
0.313295
0.295234
0.254522
0.285471
0.180947
0.489836
0.325412
0.331296
0.416413
0.398724
0.308966
0.303262
0.505531
0.492289
0.46131
0.402219
0.289155
0.409909
0.389049
0.310259
0.33971
0.262272
0.284417
0.357346
0.337142
0.308355
0.478947
0.477259
0.21748
0.445125
0.300316
0.290076
0.322719
0.475725
0.324034
0.401665
0.325768
0.462864
0.311934
0.328833
0.503727
0.23522
0.235705
0.290806
0.274894
0.201384
0.0964362
0.282879
0.209886
0.342239
0.21886
0.270081
0.336289
0.276695
0.282696
0.312891
0.258672
0.112415
0.488944
0.447277
0.312477
0.249027
0.451784
0.293022
0.295135
0.50111
0.289127
0.500858
0.327893
0.450859
0.328516
0.240469
0.264792
0.361522
0.361811
0.342666
0.241105
0.316025
0.273089
0.277349
0.302462
0.237878
0.259964
0.486969
0.285023
0.398911
0.422029
0.314433
0.427843
0.423815
0.25365
0.1009
0.327048
0.24334
0.204699
0.405663
0.408425
0.311942
0.385259
0.309063
0.503912
0.486164
0.319701
0.304171
0.492974
0.456482
0.379074
0.380426
0.3092
0.506717
0.357585
0.216988
0.466255
0.439581
0.478514
0.361181
0.28823
0.319701
0.409855
0.379669
0.0558967
0.510122
0.326219
0.287991
0.345028
0.459429
0.505098
0.501923
0.385323
0.345687
0.427947
0.457886
0.471725
0.402553
0.435979
0.251989
0.295855
0.372985
0.260198
0.25141
0.23546
0.32498
0.423722
0.243112
0.353386
0.297733
0.438518
0.501988
0.322713
0.250971
0.227134
0.412566
0.301708
0.282999
0.237208
0.475614
0.364031
0.368911
0.242391
0.373581
0.286383
0.295409
0.414014
0.420454
0.478598
0.506709
0.283339
0.461339
0.219906
0.468345
0.475535
0.477815
0.429455
0.271738
0.271759
0.311772
0.214397
0.354407
0.234438
0.378574
0.246782
0.454126
0.313172
0.22321
0.447856
0.422618
0.332233
0.336998
0.397366
0.47542
0.364962
0.345545
0.222294
0.439427
0.354288
0.492415
0.206308
0.337204
0.467118
0.409678
0.495632
0.41527
0.317044
0.188868
0.222246
0.334802
0.246378
0.48838
0.213152
0.306793
0.332897
0.28762
0.434105
0.210247
0.471577
0.409644
0.371696
0.205119
0.394387
0.285867
0.31976
0.328645
0.334015
0.301807
0.287569
0.426195
0.271648
0.511532
0.301817
0.335342
0.392775
0.416414
0.489557
0.301199
0.306538
0.282025
0.344192
0.293936
0.482946
0.283445
0.350255
0.308835
0.441832
0.273898
0.359086
0.258176
0.502769
0.213794
0.269881
0.297574
0.447425
0.226288
0.242686
0.268235
0.249908
0.47654
0.34665
0.405286
0.450977
0.395875
0.345055
0.503011
0.349001
0.421215
0.389537
0.361267
0.234975
0.367764
0.323194
0.306893
0.369734
0.268702
0.239308
0.348062
0.310055
0.274699
0.437183
0.3455
0.400621
0.322731
0.487075
0.33313
0.330494
0.39097
0.245004
0.278974
0.308148
0.361028
0.367498
0.378952
0.473374
0.414725
0.431307
0.355811
0.461649
0.491045
0.486895
0.355991
0.353818
0.3765
0.25303
0.499691
0.455212
0.442116
0.336752
0.268113
0.23372
0.376188
0.410146
0.287516
0.441836
0.455799
0.380759
0.299198
0.360278
0.309041
0.286596
0.336597
0.299316
0.368364
0.236067
0.372295
0.340815
0.320545
0.211325
0.368119
0.351466
0.399668
0.31086
0.36368
0.471997
0.482284
0.366346
0.329268
0.432027
0.350729
0.280575
0.283079
0.3238
0.246964
0.472683
0.343022
0.357134
0.410529
0.403914
0.3914
0.265397
0.509069
0.395222
0.28936
0.343733
0.343195
0.431691
0.468466
0.396756
0.376705
0.225075
0.273664
0.318374
0.378223
0.350847
0.365296
0.297538
0.47941
0.384051
0.431765
0.458534
0.361795
0.292478
0.360442
0.498041
0.27737
0.221524
0.359998
0.503971
0.303625
0.321804
0.42639
0.410847
0.445285
0.337614
0.227755
0.375896
0.254025
0.307031
0.444336
0.328311
0.257039
0.284946
0.302842
0.38392
0.314261
0.304801
0.464456
0.291599
0.503774
0.442739
0.248631
0.200059
0.346451
0.418729
0.456751
0.332712
0.318361
0.284234
0.313354
0.33624
0.506516
0.467616
0.415467
0.317586
0.23189
0.477191
0.50916
0.478658
0.432957
0.46659
0.357871
0.26224
0.210921
0.221566
0.489341
0.348029
0.264799
0.322555
0.508378
0.309016
0.298404
0.244039
0.334907
0.281214
0.509334
0.375088
0.416226
0.464459
0.455384
0.309205
0.386718
0.354468
0.409953
0.269689
0.383406
0.297582
0.482519
0.245558
0.306048
0.256246
0.319248
0.470878
0.316675
0.442269
0.4606
0.466422
0.261646
0.351907
0.318926
0.292467
0.4777
0.361531
0.365373
0.372367
0.177685
0.323994
0.482649
0.390606
0.480525
0.216059
0.27217
0.3083
0.486603
0.278763
0.339095
0.274597
0.264291
0.318977
0.48858
0.329234
0.321042
0.243781
0.507382
0.497942
0.17903
0.480259
0.31336
0.262992
0.272657
0.344932
0.250769
0.390136
0.319505
0.306395
0.321895
0.463917
0.336104
0.442259
0.328593
0.263392
0.322965
0.215278
0.233536
0.327742
0.309274
0.371709
0.273299
0.334514
0.459263
0.383913
0.306924
0.236162
0.468086
0.330818
0.339054
0.51545
0.368943
0.304567
0.293638
0.261355
0.491322
0.311173
0.33574
0.382719
0.249548
0.471282
0.248374
0.462195
0.350459
0.422128
0.277172
0.43656
0.329331
0.252346
0.279282
0.350808
0.471026
0.19654
0.295577
0.290664
0.490097
0.510436
0.279315
0.299997
0.387641
0.494263
0.333476
0.47549
0.454377
0.440672
0.424532
0.362327
0.402807
0.392295
0.479268
0.34012
0.359474
0.281097
0.301623
0.341096
0.275819
0.492246
0.260188
0.474546
0.338141
0.48674
0.301261
0.496637
0.419455
0.461421
0.487865
0.472137
0.514388
0.315916
0.460578
0.349049
0.310096
0.29887
0.272448
0.480441
0.261333
0.371181
0.383557
0.324315
0.385264
0.294521
0.481708
0.3445
0.43155
0.212887
0.287173
0.315336
0.510338
0.284271
0.394979
0.306298
0.316345
0.257079
0.325869
0.313487
0.435693
0.483375
0.242042
0.366585
0.31045
0.304872
0.447017
0.285337
0.299873
0.494395
0.221608
0.366157
0.410715
0.469879
0.500762
0.303863
0.293798
0.252754
0.314945
0.292264
0.309776
0.427885
0.308306
0.260641
0.321475
0.35277
0.311217
0.297647
0.290663
0.350492
0.249596
0.429246
0.42087
0.307348
0.430844
0.245065
0.244204
0.27859
0.23266
0.494609
0.31579
0.30941
0.297182
0.456234
0.478221
0.357878
0.428568
0.297252
0.289403
0.35612
0.311665
0.293812
0.479296
0.374983
0.40147
0.498279
0.435939
0.345316
0.488485
0.237597
0.360383
0.35641
0.380287
0.316052
0.487944
0.305352
0.374846
0.341686
0.310854
0.277895
0.297396
0.419376
0.448663
0.46271
0.358425
0.367426
0.48872
0.439746
0.327466
0.370567
0.261775
0.311633
0.440356
0.242821
0.458437
0.305451
0.46626
0.512572
0.481809
0.296808
0.461756
0.455813
0.226025
0.488994
0.289118
0.485178
0.436978
0.308773
0.275272
0.376897
0.316027
0.306859
0.293335
0.441931
0.308742
0.490953
0.267882
0.3054
0.290081
0.266678
0.309286
0.449295
0.504256
0.264621
0.431205
0.350077
0.374943
0.333089
0.386609
0.474252
0.43975
0.305011
0.468598
0.445624
0.500606
0.26831
0.278946
0.297261
0.427422
0.496055
0.450953
0.336101
0.496834
0.347464
0.239938
0.273495
0.197018
0.344521
0.254324
0.501262
0.504184
0.365552
0.515831
0.44132
0.35175
0.49369
0.257504
0.486846
0.309517
0.478585
0.318522
0.272265
0.424428
0.365362
0.485435
0.474164
0.477342
0.281188
0.27843
0.226402
0.46136
0.438789
0.280827
0.356906
0.440458
0.221348
0.298679
0.280786
0.300138
0.37657
0.298849
0.356293
0.421924
0.353489
0.364622
0.421258
0.313301
0.324097
0.374615
0.355424
0.315316
0.461814
0.486105
0.280092
0.436411
0.217983
0.295509
0.467277
0.431521
0.293488
0.48101
0.258875
0.420547
0.331534
0.332705
0.46626
0.320323
0.428927
0.427514
0.404552
0.508748
0.40747
0.25185
0.388625
0.339137
0.428928
0.505303
0.403048
0.348057
0.293667
0.33379
0.467522
0.269235
0.454982
0.285374
0.380045
0.43639
0.422341
0.343457
0.465203
0.496344
0.321865
0.314238
0.362379
0.280302
0.257369
0.358362
0.42678
0.28576
0.248256
0.283119
0.244178
0.416898
0.345776
0.431353
0.303558
0.478724
0.355712
0.456351
0.503273
0.289649
0.472706
0.322659
0.362486
0.357654
0.463577
0.296979
0.329549
0.361026
0.273175
0.31617
0.273982
0.25417
0.217749
0.496648
0.507018
0.285849
0.300929
0.425646
0.235221
0.282212
0.310034
0.410151
0.419793
0.232341
0.217069
0.47424
0.301967
0.38138
0.300711
0.247314
0.272945
0.369695
0.455983
0.382159
0.242169
0.480222
0.454851
0.284935
0.377376
0.306501
0.502352
0.316089
0.335711
0.257554
0.397269
0.486816
0.382989
0.363964
0.293318
0.345484
0.386255
0.494475
0.516431
0.296874
0.497996
0.298638
0.36471
0.367696
0.327523
0.308432
0.462834
0.314894
0.370654
0.281206
0.267981
0.326165
0.275277
0.407681
0.479176
0.281991
0.298624
0.363247
0.309863
0.287828
0.209761
0.314755
0.464988
0.214669
0.285666
0.422946
0.36092
0.338585
0.394649
0.450807
0.264693
0.269268
0.450175
0.331137
0.273913
0.351427
0.46239
0.397116
0.364165
0.297344
0.297271
0.292858
0.495263
0.45065
0.504248
0.335213
0.406466
0.265601
0.350503
0.457269
0.239747
0.247589
0.42079
0.452845
0.240056
0.306575
0.295262
0.263404
0.295262
0.515279
0.337782
0.303962
0.362495
0.293815
0.424684
0.373368
0.262878
0.30868
0.43775
0.344594
0.497139
0.25315
0.299973
0.399076
0.385408
0.325189
0.38101
0.274091
0.500309
0.483326
0.400881
0.46614
0.28429
0.461777
0.391229
0.39705
0.488607
0.235214
0.30996
0.503265
0.393183
0.231211
0.283585
0.451397
0.501511
0.347159
0.426768
0.295218
0.253725
0.28286
0.222528
0.456467
0.294702
0.348202
0.490761
0.289932
0.268548
0.293324
0.365442
0.303612
0.295732
0.29583
0.265678
0.344005
0.437907
0.487049
0.418003
0.314273
0.309214
0.225491
0.302808
0.389645
0.370318
0.409139
0.424267
0.309431
0.334736
0.448211
0.455089
0.502904
0.467485
0.491059
0.345482
0.256972
0.282708
0.266483
0.495016
0.362889
0.297649
0.487362
0.26297
0.442465
0.421121
0.309835
0.300862
0.311115
0.29733
0.453428
0.313376
0.410317
0.344961
0.485297
0.374704
0.507261
0.281921
0.344158
0.282675
0.212987
0.314843
0.43486
0.267035
0.165938
0.362633
0.483981
0.42986
0.294624
0.254494
0.286061
0.264054
0.302769
0.268985
0.326531
0.269706
0.422049
0.285377
0.303498
0.474311
0.349481
0.395049
0.446815
0.315034
0.346109
0.277075
0.437429
0.303899
0.313879
0.338933
0.276182
0.250874
0.300505
0.282094
0.42965
0.504716
0.460374
0.368864
0.415451
0.243723
0.498109
0.380171
0.427924
0.297723
0.419277
0.287912
0.31672
0.440931
0.486065
0.432953
0.368161
0.317694
0.507301
0.32406
0.446179
0.493223
0.4037
0.328172
0.240038
0.445375
0.37585
0.269635
0.394659
0.371494
0.483054
0.292003
0.491652
0.503743
0.325982
0.283705
0.491938
0.257309
0.271893
0.317261
0.268835
0.316446
0.277948
0.255119
0.343284
0.304324
0.284105
0.305099
0.370017
0.277667
0.288484
0.389384
0.349007
0.255786
0.47894
0.507786
0.496557
0.300322
0.246804
0.508464
0.25061
0.340805
0.287349
0.306928
0.295385
0.420543
0.310794
0.303557
0.245343
0.238779
0.270657
0.31355
0.241714
0.340972
0.361817
0.332058
0.485546
0.367174
0.405363
0.330256
0.451649
0.293705
0.312407
0.519105
0.31851
0.370359
0.25493
0.405107
0.507462
0.30483
0.389917
0.373538
0.276685
0.294782
0.287502
0.270212
0.423748
0.273832
0.332882
0.303889
0.32614
0.288087
0.288671
0.340224
0.307519
0.305168
0.506741
0.339609
0.330326
0.362963
0.484701
0.31555
0.240536
0.440645
0.257554
0.323204
0.297483
0.348462
0.291478
0.313402
0.347833
0.501372
0.457891
0.242654
0.304052
0.240872
0.291482
0.228487
0.273699
0.319097
0.281239
0.319562
0.391101
0.514748
0.312252
0.417873
0.357404
0.494854
0.308615
0.507435
0.38303
0.265314
0.391051
0.425009
0.303918
0.457995
0.298045
0.463775
0.296869
0.170708
0.336939
0.513124
0.503762
0.422296
0.396653
0.415466
0.248184
0.288226
0.416567
0.506561
0.18811
0.349307
0.297862
0.294347
0.3316
0.285279
0.262614
0.295445
0.273669
0.304553
0.304199
0.334354
0.507348
0.453869
0.229839
0.438264
0.280862
0.287059
0.443566
0.298228
0.322058
0.40769
0.204862
0.284387
0.346394
0.459675
0.266854
0.290854
0.319806
0.38749
0.265421
0.484171
0.241953
0.311076
0.318542
0.292855
0.398381
0.390232
0.486127
0.294748
0.432607
0.359585
0.385216
0.297229
0.398593
0.278537
0.257572
0.220023
0.379471
0.331613
0.318625
0.471748
0.347685
0.367695
0.397904
0.287971
0.273785
0.313049
0.381275
0.304261
0.513073
0.257268
0.241539
0.314696
0.304233
0.30294
0.291046
0.420465
0.315072
0.338386
0.268776
0.300346
0.332641
0.25533
0.509985
0.499099
0.272248
0.286817
0.456472
0.360714
0.292511
0.253441
0.287435
0.271167
0.359258
0.476372
0.293831
0.249743
0.390038
0.341931
0.242634
0.268809
0.341977
0.412872
0.514981
0.26285
0.236037
0.370946
0.456283
0.313587
0.369527
0.314973
0.298404
0.313608
0.386363
0.327205
0.299448
0.436375
0.317443
0.217888
0.357071
0.303046
0.441992
0.507753
0.306755
0.30884
0.307043
0.310474
0.263695
0.312631
0.27291
0.487974
0.446566
0.410705
0.318411
0.250511
0.43341
0.497909
0.288347
0.353904
0.296402
0.218748
0.342765
0.306096
0.213679
0.278626
0.395397
0.264826
0.243189
0.26978
0.446245
0.258659
0.440214
0.340741
0.294564
0.302659
0.283604
0.441759
0.226786
0.315162
0.322591
0.257743
0.36951
0.417046
0.370786
0.332765
0.426059
0.268127
0.270949
0.474759
0.295826
0.471086
0.372835
0.309816
0.375057
0.460523
0.341931
0.239381
0.483861
0.291065
0.318307
0.461692
0.286564
0.492248
0.293257
0.319412
0.220249
0.323484
0.271806
0.346447
0.270107
0.220672
0.266756
0.264799
0.222666
0.476697
0.265375
0.318432
0.373025
0.346375
0.499415
0.501936
0.291785
0.345095
0.445657
0.282941
0.477129
0.231099
0.306344
0.361243
0.28941
0.448012
0.299317
0.306276
0.311384
0.293627
0.291508
0.219324
0.463373
0.117274
0.491431
0.414368
0.270127
0.242388
0.273861
0.516549
0.419947
0.393836
0.338474
0.371818
0.32217
0.461732
0.434103
0.285135
0.387822
0.494665
0.325458
0.351339
0.396346
0.236445
0.269596
0.446409
0.315257
0.336506
0.492809
0.26189
0.232782
0.298152
0.335197
0.321925
0.505635
0.290804
0.251687
0.287113
0.334239
0.292135
0.469532
0.342973
0.278922
0.292974
0.28818
0.287871
0.31094
0.386722
0.35505
0.280346
0.469011
0.305764
0.450713
0.280881
0.262886
0.323141
0.465258
0.497495
0.442473
0.33529
0.326843
0.440594
0.500946
0.259635
0.47822
0.269878
0.402685
0.383409
0.468094
0.336336
0.458824
0.483342
0.303833
0.301823
0.319372
0.352447
0.2733
0.261088
0.260237
0.418787
0.448664
0.256947
0.483355
0.339833
0.428029
0.33454
0.273536
0.446324
0.434195
0.302731
0.308721
0.271261
0.502372
0.419708
0.507728
0.254105
0.2723
0.324449
0.45259
0.392209
0.473241
0.367263
0.502776
0.294664
0.328773
0.351052
0.301203
0.371747
0.238076
0.440391
0.34128
0.359436
0.479102
0.248567
0.258825
0.231659
0.382551
0.464952
0.310194
0.398911
0.245017
0.249855
0.338219
0.302273
0.294333
0.469348
0.355423
0.285072
0.325683
0.380669
0.48842
0.384274
0.312805
0.46313
0.355761
0.492037
0.34226
0.408169
0.310989
0.254131
0.512147
0.27728
0.372992
0.36556
0.475543
0.404616
0.330788
0.300419
0.506627
0.329571
0.279891
0.423195
0.499053
0.418034
0.392175
0.250064
0.216282
0.34953
0.282969
0.316529
0.350507
0.2798
0.486711
0.502043
0.481414
0.304625
0.310865
0.29444
0.312846
0.408855
0.259956
0.405931
0.487176
0.264152
0.304065
0.294758
0.452105
0.393532
0.309897
0.283957
0.414628
0.290997
0.234597
0.264631
0.513658
0.224496
0.437891
0.392122
0.295758
0.492361
0.358166
0.51635
0.197906
0.307147
0.363531
0.481427
0.314765
0.477267
0.35844
0.223524
0.327082
0.29752
0.31621
0.217669
0.4389
0.304292
0.28407
0.236412
0.331584
0.470858
0.189906
0.30766
0.463729
0.329756
0.459756
0.2276
0.291037
0.294608
0.318813
0.276911
0.251527
0.290007
0.194986
0.311165
0.309107
0.429982
0.368618
0.465778
0.285643
0.313837
0.252978
0.359025
0.198376
0.317719
0.508438
0.338804
0.307357
0.517564
0.280489
0.365667
0.391855
0.252018
0.301497
0.339697
0.377712
0.487685
0.498208
0.499244
0.382674
0.335078
0.308141
0.272949
0.458231
0.4077
0.295438
0.307228
0.308351
0.335605
0.516334
0.322076
0.514413
0.288377
0.398534
0.274067
0.292293
0.251704
0.301495
0.472762
0.311104
0.258782
0.274172
0.510998
0.305335
0.279245
0.276023
0.290848
0.417712
0.364662