/*--------------------------------*- C++ -*----------------------------------*\
  =========                 |
  \\      /  F ield         | OpenFOAM: The Open Source CFD Toolbox
   \\    /   O peration     | Website:  https://openfoam.org
    \\  /    A nd           | Version:  6
     \\/     M anipulation  |
\*---------------------------------------------------------------------------*/
FoamFile
{
    version     2.0;
    format      ascii;
    class       volVectorField;
    location    "25708";
    object      U;
}
// * * * * * * * * * * * * * * * * * * * * * * * * * * * * * * * * * * * * * //

dimensions      [0 1 -1 0 0 0 0];

internalField   nonuniform List<vector> 
115600
(
(0.00653181 -0.00184551 0)
(0.00745843 -3.61215e-05 0)
(0.00796524 1.46132e-06 0)
(0.00828599 1.33412e-06 0)
(0.00852966 6.48074e-07 0)
(0.00868722 1.00226e-06 0)
(0.00875888 1.18635e-06 0)
(0.00877086 1.12405e-06 0)
(0.0087502 1.01631e-06 0)
(0.00870561 9.72286e-07 0)
(0.0086461 9.16044e-07 0)
(0.0085781 8.50847e-07 0)
(0.00850616 7.82048e-07 0)
(0.00843347 7.13938e-07 0)
(0.00836208 6.50389e-07 0)
(0.00829325 5.9145e-07 0)
(0.00822778 5.36785e-07 0)
(0.00816618 4.85942e-07 0)
(0.00810876 4.38428e-07 0)
(0.00805572 3.93784e-07 0)
(0.00800714 3.51627e-07 0)
(0.00796307 3.11598e-07 0)
(0.0079235 2.73361e-07 0)
(0.0078884 2.36659e-07 0)
(0.00785773 2.01246e-07 0)
(0.00783142 1.66871e-07 0)
(0.00780942 1.33287e-07 0)
(0.00779167 1.00229e-07 0)
(0.00777814 6.73961e-08 0)
(0.0077688 3.44971e-08 0)
(0.0077636 -1.94366e-09 0)
(0.00776315 -4.80825e-08 0)
(0.00776828 -9.5261e-08 0)
(0.00777838 -1.35651e-07 0)
(0.0077933 -1.74729e-07 0)
(0.007813 -2.15278e-07 0)
(0.00783759 -2.58703e-07 0)
(0.00786733 -3.05946e-07 0)
(0.00790259 -3.58527e-07 0)
(0.00794392 -4.18359e-07 0)
(0.00799203 -4.87271e-07 0)
(0.00804784 -5.67694e-07 0)
(0.00811255 -6.62915e-07 0)
(0.00818771 -7.77346e-07 0)
(0.00827529 -9.16676e-07 0)
(0.00837792 -1.08984e-06 0)
(0.00849899 -1.30649e-06 0)
(0.00864341 -1.59125e-06 0)
(0.00881691 -1.951e-06 0)
(0.00903123 -2.49991e-06 0)
(0.00929335 -3.1191e-06 0)
(0.00964942 -4.6456e-06 0)
(0.0100712 -5.54565e-06 0)
(0.0108786 -1.42663e-05 0)
(0.011602 -2.28799e-05 0)
(0.0165346 -0.000358859 0)
(0.0197127 -0.000382165 0)
(0.0218173 -7.11527e-05 0)
(0.023591 -4.57859e-05 0)
(0.0246875 -3.06982e-05 0)
(0.0254286 -2.04602e-05 0)
(0.0258899 -9.60487e-06 0)
(0.0261143 -1.2523e-06 0)
(0.0261684 3.82474e-06 0)
(0.0261202 6.70166e-06 0)
(0.0260029 8.55153e-06 0)
(0.0258415 9.56831e-06 0)
(0.025654 9.97705e-06 0)
(0.0254537 9.96761e-06 0)
(0.0252495 9.6898e-06 0)
(0.0250477 9.25532e-06 0)
(0.0248521 8.73048e-06 0)
(0.0246654 8.15559e-06 0)
(0.0244893 7.55564e-06 0)
(0.0243248 6.94627e-06 0)
(0.0241726 6.33729e-06 0)
(0.024033 5.73495e-06 0)
(0.0239064 5.14299e-06 0)
(0.0237926 4.56352e-06 0)
(0.0236916 3.99758e-06 0)
(0.0236034 3.44542e-06 0)
(0.0235276 2.90659e-06 0)
(0.0234642 2.38013e-06 0)
(0.0234129 1.86448e-06 0)
(0.0233736 1.35719e-06 0)
(0.023346 8.55496e-07 0)
(0.0233302 3.23567e-07 0)
(0.0233276 -2.92368e-07 0)
(0.02334 -9.20491e-07 0)
(0.0233659 -1.49241e-06 0)
(0.0234048 -2.0433e-06 0)
(0.0234563 -2.59533e-06 0)
(0.0235207 -3.16477e-06 0)
(0.0235985 -3.76502e-06 0)
(0.0236903 -4.41226e-06 0)
(0.0237975 -5.12583e-06 0)
(0.0239214 -5.92683e-06 0)
(0.0240643 -6.84138e-06 0)
(0.0242288 -7.90339e-06 0)
(0.0244184 -9.15725e-06 0)
(0.0246377 -1.0662e-05 0)
(0.0248927 -1.24995e-05 0)
(0.0251913 -1.47826e-05 0)
(0.0255445 -1.76874e-05 0)
(0.0259659 -2.1457e-05 0)
(0.0264806 -2.65944e-05 0)
(0.0271096 -3.36954e-05 0)
(0.0279408 -4.50514e-05 0)
(0.0289621 -6.28503e-05 0)
(0.030725 -0.000106529 0)
(0.0326818 -0.000227865 0)
(0.0405419 -0.000730095 0)
(0.0310013 -0.000463724 0)
(0.0342343 -0.00024002 0)
(0.0369923 -0.000164159 0)
(0.0387472 -0.000110892 0)
(0.0399412 -7.44139e-05 0)
(0.0407428 -4.31551e-05 0)
(0.0412318 -1.91443e-05 0)
(0.0414861 -2.76649e-06 0)
(0.0415685 7.73379e-06 0)
(0.0415409 1.46191e-05 0)
(0.0414357 1.90191e-05 0)
(0.0412777 2.15814e-05 0)
(0.0410857 2.27998e-05 0)
(0.0408736 2.3083e-05 0)
(0.0406517 2.27447e-05 0)
(0.0404273 2.19908e-05 0)
(0.0402057 2.09579e-05 0)
(0.0399909 1.97386e-05 0)
(0.0397858 1.83968e-05 0)
(0.0395926 1.69775e-05 0)
(0.0394128 1.55128e-05 0)
(0.0392475 1.40257e-05 0)
(0.0390975 1.25328e-05 0)
(0.0389634 1.10455e-05 0)
(0.0388453 9.57163e-06 0)
(0.0387434 8.11612e-06 0)
(0.0386579 6.68126e-06 0)
(0.0385886 5.26703e-06 0)
(0.0385355 3.87022e-06 0)
(0.0384985 2.48302e-06 0)
(0.0384778 1.02599e-06 0)
(0.0384748 -6.08994e-07 0)
(0.038491 -2.27467e-06 0)
(0.0385253 -3.82562e-06 0)
(0.0385772 -5.3252e-06 0)
(0.0386465 -6.82233e-06 0)
(0.0387335 -8.35566e-06 0)
(0.0388386 -9.95984e-06 0)
(0.038963 -1.16755e-05 0)
(0.039108 -1.3551e-05 0)
(0.0392756 -1.56403e-05 0)
(0.0394685 -1.80095e-05 0)
(0.0396903 -2.07431e-05 0)
(0.0399453 -2.39509e-05 0)
(0.0402394 -2.77779e-05 0)
(0.0405803 -3.2422e-05 0)
(0.0409778 -3.8158e-05 0)
(0.0414458 -4.53971e-05 0)
(0.0420016 -5.47379e-05 0)
(0.0426746 -6.72756e-05 0)
(0.0434934 -8.46182e-05 0)
(0.0445523 -0.000111254 0)
(0.0458635 -0.000154016 0)
(0.0479608 -0.000246573 0)
(0.0503815 -0.000477816 0)
(0.0576998 -0.00109442 0)
(0.0409267 -0.000925106 0)
(0.0441068 -0.00046016 0)
(0.0470784 -0.000312464 0)
(0.0490548 -0.00021382 0)
(0.0504515 -0.000146207 0)
(0.0514578 -9.19524e-05 0)
(0.0521597 -5.04465e-05 0)
(0.0526277 -2.07328e-05 0)
(0.0529119 -4.46359e-07 0)
(0.0530618 1.31958e-05 0)
(0.0531186 2.23537e-05 0)
(0.053106 2.82965e-05 0)
(0.053043 3.18301e-05 0)
(0.0529439 3.36135e-05 0)
(0.05282 3.41649e-05 0)
(0.05268 3.38395e-05 0)
(0.0525305 3.28839e-05 0)
(0.0523771 3.14725e-05 0)
(0.0522238 2.97316e-05 0)
(0.052074 2.77544e-05 0)
(0.0519304 2.56106e-05 0)
(0.0517951 2.33528e-05 0)
(0.0516698 2.10206e-05 0)
(0.0515557 1.86439e-05 0)
(0.0514538 1.62447e-05 0)
(0.0513649 1.38387e-05 0)
(0.0512896 1.14362e-05 0)
(0.0512283 9.04253e-06 0)
(0.0511815 6.65647e-06 0)
(0.0511494 4.26514e-06 0)
(0.0511326 1.75433e-06 0)
(0.0511323 -1.00666e-06 0)
(0.051149 -3.81917e-06 0)
(0.0511827 -6.49821e-06 0)
(0.0512338 -9.12177e-06 0)
(0.0513025 -1.17589e-05 0)
(0.0513895 -1.44691e-05 0)
(0.0514957 -1.73099e-05 0)
(0.0516225 -2.03496e-05 0)
(0.0517716 -2.36703e-05 0)
(0.0519456 -2.73652e-05 0)
(0.0521474 -3.15479e-05 0)
(0.052381 -3.63629e-05 0)
(0.0526514 -4.19965e-05 0)
(0.0529651 -4.86937e-05 0)
(0.0533303 -5.67862e-05 0)
(0.0537576 -6.67324e-05 0)
(0.0542615 -7.92053e-05 0)
(0.05486 -9.5199e-05 0)
(0.0555824 -0.000116431 0)
(0.0564586 -0.000145617 0)
(0.057575 -0.000189323 0)
(0.0589516 -0.000259168 0)
(0.0610368 -0.000399184 0)
(0.0633982 -0.000722508 0)
(0.0694868 -0.00139868 0)
(0.0502168 -0.00129849 0)
(0.0525605 -0.000652456 0)
(0.0551581 -0.000455766 0)
(0.0569751 -0.000318306 0)
(0.0583124 -0.0002227 0)
(0.0593244 -0.000147948 0)
(0.0600797 -9.07099e-05 0)
(0.0606337 -4.86768e-05 0)
(0.0610274 -1.86971e-05 0)
(0.0612919 2.22491e-06 0)
(0.0614615 1.66632e-05 0)
(0.0615614 2.65559e-05 0)
(0.0616072 3.30756e-05 0)
(0.0616116 3.7077e-05 0)
(0.0615845 3.92393e-05 0)
(0.061534 4.00396e-05 0)
(0.0614665 3.98184e-05 0)
(0.0613874 3.88243e-05 0)
(0.0613012 3.72429e-05 0)
(0.0612114 3.52154e-05 0)
(0.0611211 3.28509e-05 0)
(0.0610326 3.02339e-05 0)
(0.060948 2.74305e-05 0)
(0.0608689 2.44919e-05 0)
(0.0607969 2.14576e-05 0)
(0.0607331 1.83573e-05 0)
(0.0606783 1.5212e-05 0)
(0.0606336 1.20348e-05 0)
(0.0605996 8.82871e-06 0)
(0.060577 5.57769e-06 0)
(0.0605667 2.14949e-06 0)
(0.0605699 -1.57233e-06 0)
(0.0605866 -5.36966e-06 0)
(0.0606177 -9.06637e-06 0)
(0.060664 -1.27447e-05 0)
(0.0607264 -1.64846e-05 0)
(0.0608061 -2.03614e-05 0)
(0.0609043 -2.44526e-05 0)
(0.0610227 -2.8853e-05 0)
(0.0611636 -3.36776e-05 0)
(0.0613297 -3.90591e-05 0)
(0.0615244 -4.51594e-05 0)
(0.061752 -5.21839e-05 0)
(0.0620176 -6.03963e-05 0)
(0.0623281 -7.01422e-05 0)
(0.0626919 -8.18856e-05 0)
(0.0631197 -9.62662e-05 0)
(0.0636258 -0.000114209 0)
(0.0642281 -0.000137088 0)
(0.0649545 -0.00016719 0)
(0.0658341 -0.000208257 0)
(0.0669442 -0.000268555 0)
(0.0683045 -0.000363773 0)
(0.0702908 -0.000543842 0)
(0.0724793 -0.000938475 0)
(0.0775787 -0.00165158 0)
(0.0592111 -0.00154305 0)
(0.060458 -0.000799375 0)
(0.0623606 -0.00057647 0)
(0.0637679 -0.000411374 0)
(0.064855 -0.000293906 0)
(0.0657179 -0.000202697 0)
(0.0663942 -0.000132484 0)
(0.0669186 -8.00794e-05 0)
(0.0673189 -4.16744e-05 0)
(0.0676165 -1.39948e-05 0)
(0.0678293 5.57842e-06 0)
(0.0679804 1.93287e-05 0)
(0.068083 2.88799e-05 0)
(0.0681465 3.52694e-05 0)
(0.0681788 3.92938e-05 0)
(0.0681864 4.15223e-05 0)
(0.0681749 4.23689e-05 0)
(0.0681487 4.21425e-05 0)
(0.0681119 4.10778e-05 0)
(0.0680677 3.93568e-05 0)
(0.0680188 3.7122e-05 0)
(0.0679678 3.4486e-05 0)
(0.0679166 3.15377e-05 0)
(0.067867 2.83476e-05 0)
(0.0678205 2.49709e-05 0)
(0.0677784 2.14498e-05 0)
(0.0677419 1.78155e-05 0)
(0.0677121 1.40882e-05 0)
(0.0676898 1.02746e-05 0)
(0.0676761 6.35677e-06 0)
(0.0676719 2.19404e-06 0)
(0.0676785 -2.30206e-06 0)
(0.0676959 -6.91018e-06 0)
(0.0677253 -1.14844e-05 0)
(0.0677679 -1.61099e-05 0)
(0.0678248 -2.08751e-05 0)
(0.0678975 -2.58689e-05 0)
(0.0679877 -3.11875e-05 0)
(0.0680973 -3.69504e-05 0)
(0.0682287 -4.33049e-05 0)
(0.0683848 -5.04228e-05 0)
(0.0685692 -5.85144e-05 0)
(0.0687863 -6.78457e-05 0)
(0.0690416 -7.87576e-05 0)
(0.0693416 -9.16953e-05 0)
(0.069695 -0.000107254 0)
(0.0701121 -0.000126249 0)
(0.0706071 -0.000149851 0)
(0.0711971 -0.000179794 0)
(0.0719084 -0.000218886 0)
(0.0727686 -0.00027183 0)
(0.0738474 -0.00034824 0)
(0.0751616 -0.000467461 0)
(0.0770338 -0.000681891 0)
(0.0790435 -0.00113502 0)
(0.0834233 -0.00187244 0)
(0.0678917 -0.00168026 0)
(0.0681175 -0.000890715 0)
(0.0692126 -0.000659312 0)
(0.0700717 -0.00048071 0)
(0.0707826 -0.000350067 0)
(0.0713869 -0.000248107 0)
(0.0718872 -0.000168823 0)
(0.0722949 -0.000108815 0)
(0.0726224 -6.40289e-05 0)
(0.0728802 -3.09646e-05 0)
(0.0730784 -7.00784e-06 0)
(0.0732261 1.01143e-05 0)
(0.0733373 2.2316e-05 0)
(0.0734174 3.08849e-05 0)
(0.0734716 3.66838e-05 0)
(0.0735045 4.0339e-05 0)
(0.0735202 4.23154e-05 0)
(0.0735222 4.29648e-05 0)
(0.0735133 4.25586e-05 0)
(0.0734964 4.13091e-05 0)
(0.0734735 3.93846e-05 0)
(0.0734469 3.6919e-05 0)
(0.0734181 3.40194e-05 0)
(0.0733887 3.07711e-05 0)
(0.0733603 2.72416e-05 0)
(0.073334 2.34834e-05 0)
(0.0733109 1.95354e-05 0)
(0.0732922 1.54232e-05 0)
(0.0732788 1.11563e-05 0)
(0.0732718 6.71534e-06 0)
(0.0732723 1.95497e-06 0)
(0.0732814 -3.18456e-06 0)
(0.0732994 -8.4845e-06 0)
(0.0733275 -1.38336e-05 0)
(0.073367 -1.9321e-05 0)
(0.0734194 -2.50443e-05 0)
(0.0734861 -3.11059e-05 0)
(0.0735691 -3.76202e-05 0)
(0.0736703 -4.47312e-05 0)
(0.0737923 -5.26177e-05 0)
(0.0739382 -6.14901e-05 0)
(0.0741116 -7.16067e-05 0)
(0.0743169 -8.32936e-05 0)
(0.0745595 -9.69681e-05 0)
(0.0748461 -0.000113174 0)
(0.0751849 -0.000132633 0)
(0.0755863 -0.000156336 0)
(0.0760636 -0.000185683 0)
(0.0766334 -0.000222758 0)
(0.0773205 -0.000270846 0)
(0.0781507 -0.000335555 0)
(0.0791878 -0.000427563 0)
(0.0804445 -0.000569562 0)
(0.0822054 -0.000813985 0)
(0.0840537 -0.00131664 0)
(0.0879046 -0.00207053 0)
(0.0760948 -0.0017345 0)
(0.0755555 -0.0009268 0)
(0.0758962 -0.000696432 0)
(0.0761704 -0.000517504 0)
(0.0764407 -0.000383268 0)
(0.0767179 -0.000277341 0)
(0.0769762 -0.000193819 0)
(0.0772053 -0.000129711 0)
(0.0774021 -8.11518e-05 0)
(0.0775664 -4.46886e-05 0)
(0.0776994 -1.77015e-05 0)
(0.0778028 1.895e-06 0)
(0.0778838 1.6047e-05 0)
(0.0779449 2.62829e-05 0)
(0.0779889 3.34891e-05 0)
(0.0780182 3.83153e-05 0)
(0.0780353 4.12527e-05 0)
(0.0780422 4.26778e-05 0)
(0.0780409 4.28842e-05 0)
(0.0780332 4.2103e-05 0)
(0.0780206 4.05188e-05 0)
(0.0780045 3.82792e-05 0)
(0.0779862 3.55027e-05 0)
(0.077967 3.22844e-05 0)
(0.077948 2.86999e-05 0)
(0.0779301 2.48077e-05 0)
(0.0779144 2.06517e-05 0)
(0.0779019 1.62606e-05 0)
(0.0778935 1.16446e-05 0)
(0.0778901 6.78223e-06 0)
(0.0778927 1.52566e-06 0)
(0.0779025 -4.16161e-06 0)
(0.0779199 -1.0067e-05 0)
(0.0779461 -1.61113e-05 0)
(0.0779824 -2.23893e-05 0)
(0.0780303 -2.90089e-05 0)
(0.0780914 -3.60872e-05 0)
(0.0781675 -4.37566e-05 0)
(0.0782608 -5.2186e-05 0)
(0.0783738 -6.15854e-05 0)
(0.0785097 -7.22037e-05 0)
(0.078672 -8.43466e-05 0)
(0.0788652 -9.83996e-05 0)
(0.0790945 -0.000114855 0)
(0.0793664 -0.000134354 0)
(0.0796891 -0.000157743 0)
(0.0800726 -0.00018618 0)
(0.0805296 -0.00022129 0)
(0.0810761 -0.000265492 0)
(0.0817354 -0.00032251 0)
(0.0825319 -0.000398814 0)
(0.0835243 -0.000505916 0)
(0.0847221 -0.000669625 0)
(0.086381 -0.000940723 0)
(0.0880904 -0.00148654 0)
(0.0915387 -0.00225202 0)
(0.0836429 -0.00172886 0)
(0.0826445 -0.000918367 0)
(0.0824029 -0.000689238 0)
(0.0821497 -0.000518314 0)
(0.0819769 -0.000388608 0)
(0.0818987 -0.000285399 0)
(0.0818775 -0.000202815 0)
(0.0818881 -0.000138536 0)
(0.0819145 -8.9208e-05 0)
(0.0819464 -5.16738e-05 0)
(0.0819774 -2.34679e-05 0)
(0.0820037 -2.7054e-06 0)
(0.0820239 1.24637e-05 0)
(0.0820377 2.36197e-05 0)
(0.0820452 3.1644e-05 0)
(0.0820469 3.71798e-05 0)
(0.0820435 4.07206e-05 0)
(0.0820355 4.26484e-05 0)
(0.0820237 4.32632e-05 0)
(0.082009 4.28026e-05 0)
(0.0819921 4.14568e-05 0)
(0.0819737 3.93788e-05 0)
(0.0819545 3.66914e-05 0)
(0.0819353 3.34935e-05 0)
(0.0819169 2.98634e-05 0)
(0.0818999 2.5862e-05 0)
(0.081885 2.15342e-05 0)
(0.081873 1.69087e-05 0)
(0.0818648 1.19942e-05 0)
(0.081861 6.76605e-06 0)
(0.0818626 1.0751e-06 0)
(0.0818705 -5.10051e-06 0)
(0.0818852 -1.15584e-05 0)
(0.0819079 -1.82459e-05 0)
(0.0819399 -2.52647e-05 0)
(0.0819826 -3.27342e-05 0)
(0.0820376 -4.07871e-05 0)
(0.0821067 -4.95754e-05 0)
(0.082192 -5.92927e-05 0)
(0.0822961 -7.01809e-05 0)
(0.082422 -8.25274e-05 0)
(0.0825733 -9.66848e-05 0)
(0.0827543 -0.000113098 0)
(0.0829701 -0.000132334 0)
(0.0832273 -0.000155128 0)
(0.0835335 -0.00018245 0)
(0.0838985 -0.000215623 0)
(0.0843345 -0.000256487 0)
(0.084857 -0.000307788 0)
(0.085488 -0.000373658 0)
(0.0862504 -0.000461391 0)
(0.087199 -0.000583167 0)
(0.0883405 -0.000767701 0)
(0.089908 -0.00106301 0)
(0.0914996 -0.00164716 0)
(0.0946284 -0.00242113 0)
(0.0904081 -0.00168238 0)
(0.0892097 -0.000880956 0)
(0.0886185 -0.000646864 0)
(0.0879764 -0.000485577 0)
(0.0874211 -0.000364922 0)
(0.087003 -0.00026959 0)
(0.0866946 -0.000192655 0)
(0.0864681 -0.000132107 0)
(0.0863007 -8.51565e-05 0)
(0.0861751 -4.90727e-05 0)
(0.0860785 -2.17025e-05 0)
(0.0860023 -1.34188e-06 0)
(0.0859382 1.36987e-05 0)
(0.0858823 2.48438e-05 0)
(0.0858325 3.29202e-05 0)
(0.0857871 3.85391e-05 0)
(0.0857449 4.21727e-05 0)
(0.0857053 4.41886e-05 0)
(0.0856678 4.48768e-05 0)
(0.085632 4.44679e-05 0)
(0.0855979 4.31468e-05 0)
(0.0855654 4.10626e-05 0)
(0.0855348 3.83351e-05 0)
(0.0855061 3.50603e-05 0)
(0.0854798 3.13143e-05 0)
(0.085456 2.71554e-05 0)
(0.0854353 2.26258e-05 0)
(0.085418 1.77509e-05 0)
(0.0854048 1.25352e-05 0)
(0.0853962 6.9489e-06 0)
(0.085393 8.43916e-07 0)
(0.0853957 -5.79803e-06 0)
(0.085405 -1.27903e-05 0)
(0.085422 -2.00991e-05 0)
(0.0854479 -2.78347e-05 0)
(0.085484 -3.61292e-05 0)
(0.0855318 -4.51321e-05 0)
(0.085593 -5.50157e-05 0)
(0.0856698 -6.59995e-05 0)
(0.0857645 -7.8358e-05 0)
(0.0858802 -9.24171e-05 0)
(0.0860203 -0.000108577 0)
(0.0861891 -0.000127342 0)
(0.0863915 -0.000149352 0)
(0.0866339 -0.000175438 0)
(0.0869237 -0.00020669 0)
(0.0872703 -0.000244593 0)
(0.0876856 -0.0002912 0)
(0.0881844 -0.00034957 0)
(0.0887877 -0.000424228 0)
(0.0895173 -0.000523253 0)
(0.0904245 -0.000659369 0)
(0.0915136 -0.000863998 0)
(0.0929993 -0.0011817 0)
(0.0944903 -0.00180023 0)
(0.0973564 -0.00258063 0)
(0.0963203 -0.00160777 0)
(0.0950903 -0.000829395 0)
(0.0943757 -0.000583255 0)
(0.0935364 -0.000427393 0)
(0.0927208 -0.000315384 0)
(0.0920266 -0.000230091 0)
(0.0914581 -0.000162046 0)
(0.0910006 -0.000108505 0)
(0.090634 -6.68599e-05 0)
(0.0903394 -3.47244e-05 0)
(0.0901002 -1.0283e-05 0)
(0.0899043 8.02198e-06 0)
(0.0897377 2.16467e-05 0)
(0.0895949 3.17031e-05 0)
(0.0894712 3.89256e-05 0)
(0.089363 4.38691e-05 0)
(0.0892674 4.69615e-05 0)
(0.0891823 4.85358e-05 0)
(0.0891059 4.88548e-05 0)
(0.0890369 4.81281e-05 0)
(0.0889743 4.65241e-05 0)
(0.0889175 4.41782e-05 0)
(0.0888658 4.11994e-05 0)
(0.088819 3.76746e-05 0)
(0.0887767 3.36716e-05 0)
(0.088739 2.92416e-05 0)
(0.0887059 2.442e-05 0)
(0.0886775 1.92252e-05 0)
(0.0886541 1.36548e-05 0)
(0.0886361 7.67202e-06 0)
(0.0886239 1.13272e-06 0)
(0.0886177 -5.9905e-06 0)
(0.0886185 -1.35335e-05 0)
(0.0886271 -2.14728e-05 0)
(0.0886446 -2.99289e-05 0)
(0.0886721 -3.90478e-05 0)
(0.088711 -4.89971e-05 0)
(0.088763 -5.99704e-05 0)
(0.0888301 -7.22143e-05 0)
(0.0889147 -8.60365e-05 0)
(0.0890194 -0.000101803 0)
(0.0891479 -0.000119961 0)
(0.0893041 -0.000141074 0)
(0.0894929 -0.000165857 0)
(0.0897204 -0.000195235 0)
(0.0899939 -0.000230418 0)
(0.0903224 -0.00027305 0)
(0.0907175 -0.000325394 0)
(0.0911933 -0.000390816 0)
(0.09177 -0.000474218 0)
(0.0924683 -0.000584431 0)
(0.0933367 -0.000734631 0)
(0.0943775 -0.000958737 0)
(0.0957894 -0.00129746 0)
(0.0971933 -0.00194694 0)
(0.0998367 -0.00273236 0)
(0.101353 -0.00151352 0)
(0.100178 -0.000774636 0)
(0.099502 -0.000513409 0)
(0.0986616 -0.000356319 0)
(0.097754 -0.000247984 0)
(0.0968989 -0.000170798 0)
(0.0961393 -0.000112247 0)
(0.0954881 -6.75391e-05 0)
(0.0949396 -3.33888e-05 0)
(0.094481 -7.31322e-06 0)
(0.0940965 1.24045e-05 0)
(0.0937694 2.71115e-05 0)
(0.0934892 3.79465e-05 0)
(0.0932476 4.57329e-05 0)
(0.0930381 5.10978e-05 0)
(0.0928551 5.45125e-05 0)
(0.0926944 5.63368e-05 0)
(0.0925525 5.68496e-05 0)
(0.0924264 5.62704e-05 0)
(0.092314 5.47743e-05 0)
(0.0922133 5.25014e-05 0)
(0.092123 4.95646e-05 0)
(0.0920418 4.60539e-05 0)
(0.0919688 4.204e-05 0)
(0.0919033 3.75773e-05 0)
(0.0918449 3.27048e-05 0)
(0.0917931 2.74468e-05 0)
(0.0917479 2.18115e-05 0)
(0.0917091 1.57863e-05 0)
(0.0916769 9.32527e-06 0)
(0.0916514 2.29249e-06 0)
(0.0916326 -5.36247e-06 0)
(0.0916214 -1.35059e-05 0)
(0.0916185 -2.21151e-05 0)
(0.0916248 -3.13231e-05 0)
(0.0916413 -4.12916e-05 0)
(0.0916693 -5.22068e-05 0)
(0.0917103 -6.4285e-05 0)
(0.0917662 -7.78008e-05 0)
(0.0918392 -9.30964e-05 0)
(0.0919321 -0.000110578 0)
(0.092048 -0.000130742 0)
(0.092191 -0.000154212 0)
(0.0923658 -0.000181778 0)
(0.0925781 -0.000214456 0)
(0.0928352 -0.000253581 0)
(0.0931457 -0.000300953 0)
(0.0935209 -0.000359041 0)
(0.0939743 -0.000431515 0)
(0.0945255 -0.000523641 0)
(0.095194 -0.000644968 0)
(0.0960259 -0.000809061 0)
(0.0970218 -0.0010521 0)
(0.0983663 -0.00141079 0)
(0.0996932 -0.00208814 0)
(0.102143 -0.00287761 0)
(0.105516 -0.00140659 0)
(0.10443 -0.00072295 0)
(0.103869 -0.000449312 0)
(0.103169 -0.000286336 0)
(0.102343 -0.000174916 0)
(0.101482 -0.000100155 0)
(0.100648 -4.82051e-05 0)
(0.099882 -1.16321e-05 0)
(0.0991998 1.45592e-05 0)
(0.0986 3.35515e-05 0)
(0.0980771 4.7301e-05 0)
(0.0976225 5.70865e-05 0)
(0.0972269 6.38134e-05 0)
(0.0968818 6.81643e-05 0)
(0.0965797 7.0651e-05 0)
(0.0963144 7.16452e-05 0)
(0.0960803 7.14239e-05 0)
(0.0958731 7.01978e-05 0)
(0.095689 6.81307e-05 0)
(0.0955248 6.53516e-05 0)
(0.095378 6.1963e-05 0)
(0.0952464 5.80461e-05 0)
(0.0951282 5.36647e-05 0)
(0.095022 4.88673e-05 0)
(0.0949266 4.36891e-05 0)
(0.0948412 3.81521e-05 0)
(0.0947649 3.22657e-05 0)
(0.0946973 2.6024e-05 0)
(0.0946381 1.94014e-05 0)
(0.094587 1.23403e-05 0)
(0.094544 4.71675e-06 0)
(0.0945087 -3.55336e-06 0)
(0.0944819 -1.23766e-05 0)
(0.0944641 -2.17251e-05 0)
(0.0944562 -3.17444e-05 0)
(0.094459 -4.26132e-05 0)
(0.0944736 -5.4538e-05 0)
(0.0945015 -6.77584e-05 0)
(0.0945443 -8.25784e-05 0)
(0.0946041 -9.93758e-05 0)
(0.0946836 -0.000118598 0)
(0.0947858 -0.000140793 0)
(0.0949146 -0.000166642 0)
(0.0950745 -0.000197013 0)
(0.0952712 -0.000233016 0)
(0.0955115 -0.000276105 0)
(0.0958039 -0.000328241 0)
(0.0961592 -0.000392097 0)
(0.0965907 -0.000471641 0)
(0.097117 -0.000572494 0)
(0.0977569 -0.00070489 0)
(0.098554 -0.000882736 0)
(0.0995079 -0.00114423 0)
(0.10079 -0.00152206 0)
(0.102047 -0.00222445 0)
(0.104325 -0.00301726 0)
(0.108854 -0.00129315 0)
(0.107866 -0.00067666 0)
(0.10743 -0.000397295 0)
(0.106924 -0.000228284 0)
(0.106294 -0.000109482 0)
(0.105581 -3.07072e-05 0)
(0.104825 2.06505e-05 0)
(0.10406 5.33242e-05 0)
(0.103323 7.37807e-05 0)
(0.102637 8.64425e-05 0)
(0.102013 9.39876e-05 0)
(0.101453 9.80783e-05 0)
(0.100954 9.97648e-05 0)
(0.100511 9.97355e-05 0)
(0.100118 9.84424e-05 0)
(0.0997681 9.61816e-05 0)
(0.0994571 9.31555e-05 0)
(0.0991799 8.95068e-05 0)
(0.0989322 8.53397e-05 0)
(0.0987103 8.07322e-05 0)
(0.0985111 7.57427e-05 0)
(0.098332 7.04153e-05 0)
(0.0981707 6.47817e-05 0)
(0.0980253 5.8863e-05 0)
(0.0978942 5.26704e-05 0)
(0.0977762 4.62051e-05 0)
(0.0976701 3.94572e-05 0)
(0.0975751 3.24039e-05 0)
(0.0974906 2.50034e-05 0)
(0.0974161 1.71845e-05 0)
(0.0973513 8.83222e-06 0)
(0.0972958 -1.64283e-07 0)
(0.0972496 -9.76829e-06 0)
(0.0972135 -1.99564e-05 0)
(0.0971882 -3.08737e-05 0)
(0.0971744 -4.27194e-05 0)
(0.097173 -5.57216e-05 0)
(0.0971853 -7.01444e-05 0)
(0.0972128 -8.63223e-05 0)
(0.0972575 -0.00010467 0)
(0.0973219 -0.000125678 0)
(0.0974089 -0.000149944 0)
(0.0975221 -0.000178213 0)
(0.0976661 -0.000211427 0)
(0.0978461 -0.000250794 0)
(0.0980689 -0.000297888 0)
(0.0983428 -0.000354828 0)
(0.0986781 -0.000424492 0)
(0.0990876 -0.000511141 0)
(0.0995893 -0.000620747 0)
(0.100201 -0.000764189 0)
(0.100965 -0.000955688 0)
(0.101879 -0.00123518 0)
(0.103101 -0.00163151 0)
(0.104295 -0.00235627 0)
(0.106418 -0.00315196 0)
(0.111442 -0.00117696 0)
(0.110549 -0.000635257 0)
(0.110215 -0.000358178 0)
(0.109885 -0.00018656 0)
(0.109477 -6.08932e-05 0)
(0.108997 2.53526e-05 0)
(0.108433 8.19808e-05 0)
(0.107802 0.000117028 0)
(0.107136 0.000136792 0)
(0.106464 0.000146366 0)
(0.105814 0.00014942 0)
(0.105201 0.00014846 0)
(0.104633 0.000145096 0)
(0.104115 0.000140317 0)
(0.103644 0.0001347 0)
(0.103218 0.000128573 0)
(0.102834 0.00012212 0)
(0.102488 0.000115445 0)
(0.102175 0.00010861 0)
(0.101893 0.000101646 0)
(0.101639 9.45713e-05 0)
(0.101408 8.73915e-05 0)
(0.101199 8.01048e-05 0)
(0.10101 7.27023e-05 0)
(0.100839 6.51686e-05 0)
(0.100684 5.74809e-05 0)
(0.100543 4.96077e-05 0)
(0.100416 4.15061e-05 0)
(0.100302 3.31161e-05 0)
(0.1002 2.43505e-05 0)
(0.10011 1.50937e-05 0)
(0.10003 5.23256e-06 0)
(0.0999612 -5.26864e-06 0)
(0.0999034 -1.64215e-05 0)
(0.0998575 -2.83511e-05 0)
(0.099824 -4.12752e-05 0)
(0.0998038 -5.54464e-05 0)
(0.0997979 -7.11545e-05 0)
(0.0998077 -8.87656e-05 0)
(0.0998351 -0.000108733 0)
(0.0998824 -0.000131591 0)
(0.0999524 -0.000157988 0)
(0.100049 -0.000188735 0)
(0.100175 -0.000224849 0)
(0.100337 -0.000267635 0)
(0.100542 -0.00031879 0)
(0.100796 -0.000380591 0)
(0.101111 -0.000456121 0)
(0.101498 -0.00054993 0)
(0.101975 -0.000668333 0)
(0.10256 -0.000822817 0)
(0.103291 -0.0010279 0)
(0.104165 -0.00132496 0)
(0.105331 -0.00173924 0)
(0.106464 -0.00248385 0)
(0.108446 -0.00328211 0)
(0.113364 -0.00106005 0)
(0.112564 -0.000597214 0)
(0.112308 -0.000329847 0)
(0.11211 -0.000159931 0)
(0.111883 -3.09043e-05 0)
(0.111618 6.18988e-05 0)
(0.111285 0.000125997 0)
(0.110877 0.000167611 0)
(0.110397 0.000191908 0)
(0.109864 0.000203516 0)
(0.109299 0.000206275 0)
(0.108724 0.000203224 0)
(0.108159 0.000196615 0)
(0.107616 0.000188006 0)
(0.107105 0.000178391 0)
(0.106628 0.000168359 0)
(0.106188 0.000158234 0)
(0.105784 0.000148181 0)
(0.105415 0.000138273 0)
(0.105076 0.000128535 0)
(0.104768 0.000118959 0)
(0.104486 0.000109527 0)
(0.104229 0.000100209 0)
(0.103994 9.09686e-05 0)
(0.10378 8.17652e-05 0)
(0.103584 7.25522e-05 0)
(0.103406 6.32755e-05 0)
(0.103244 5.38713e-05 0)
(0.103097 4.42599e-05 0)
(0.102964 3.4337e-05 0)
(0.102844 2.39769e-05 0)
(0.102738 1.30746e-05 0)
(0.102643 1.54407e-06 0)
(0.10256 -1.07014e-05 0)
(0.102491 -2.37828e-05 0)
(0.102434 -3.79116e-05 0)
(0.102393 -5.33656e-05 0)
(0.102366 -7.04633e-05 0)
(0.102356 -8.9604e-05 0)
(0.102363 -0.00011128 0)
(0.102392 -0.000136072 0)
(0.102443 -0.000164681 0)
(0.10252 -0.00019798 0)
(0.102628 -0.000237068 0)
(0.102771 -0.000283348 0)
(0.102956 -0.000338637 0)
(0.10319 -0.000405374 0)
(0.103483 -0.000486845 0)
(0.103847 -0.000587882 0)
(0.104299 -0.000715144 0)
(0.104856 -0.000880678 0)
(0.105554 -0.00109929 0)
(0.10639 -0.0014135 0)
(0.1075 -0.00184527 0)
(0.108576 -0.00260733 0)
(0.110425 -0.00340797 0)
(0.114716 -0.000947537 0)
(0.114015 -0.000562437 0)
(0.113821 -0.000310088 0)
(0.113716 -0.000145007 0)
(0.113616 -1.60309e-05 0)
(0.113509 8.03408e-05 0)
(0.113367 0.000150002 0)
(0.113173 0.000198166 0)
(0.112917 0.000229075 0)
(0.112596 0.000246437 0)
(0.112217 0.00025342 0)
(0.111789 0.000252759 0)
(0.111328 0.000246756 0)
(0.11085 0.000237265 0)
(0.110369 0.000225689 0)
(0.109897 0.000213018 0)
(0.109444 0.000199912 0)
(0.109013 0.000186778 0)
(0.108608 0.000173843 0)
(0.108229 0.000161219 0)
(0.107878 0.000148942 0)
(0.107552 0.000137008 0)
(0.107252 0.000125383 0)
(0.106974 0.000114023 0)
(0.106718 0.000102869 0)
(0.106483 9.18584e-05 0)
(0.106267 8.09177e-05 0)
(0.106068 6.99644e-05 0)
(0.105886 5.89003e-05 0)
(0.10572 4.76044e-05 0)
(0.10557 3.59378e-05 0)
(0.105433 2.37917e-05 0)
(0.10531 1.10736e-05 0)
(0.1052 -2.38533e-06 0)
(0.105105 -1.67616e-05 0)
(0.105023 -3.22424e-05 0)
(0.104957 -4.91123e-05 0)
(0.104908 -6.77224e-05 0)
(0.104875 -8.85074e-05 0)
(0.104861 -0.000112001 0)
(0.104868 -0.000138828 0)
(0.104898 -0.000169745 0)
(0.104955 -0.000205692 0)
(0.105042 -0.000247845 0)
(0.105164 -0.000297707 0)
(0.105328 -0.00035722 0)
(0.105541 -0.000428982 0)
(0.105812 -0.000516483 0)
(0.106152 -0.000624834 0)
(0.106579 -0.000761027 0)
(0.107107 -0.000937629 0)
(0.107771 -0.00116973 0)
(0.108569 -0.00150065 0)
(0.109623 -0.00194952 0)
(0.110644 -0.00272668 0)
(0.112367 -0.00352966 0)
(0.11564 -0.000847593 0)
(0.115044 -0.000532115 0)
(0.114902 -0.000297233 0)
(0.114861 -0.000138485 0)
(0.114843 -1.16946e-05 0)
(0.114837 8.5552e-05 0)
(0.114822 0.000157939 0)
(0.114781 0.000210252 0)
(0.114703 0.000246364 0)
(0.114578 0.000269493 0)
(0.114403 0.000282254 0)
(0.114174 0.000286819 0)
(0.113894 0.000285029 0)
(0.113571 0.000278464 0)
(0.113213 0.000268459 0)
(0.112831 0.00025612 0)
(0.112437 0.00024233 0)
(0.11204 0.000227761 0)
(0.111648 0.000212896 0)
(0.111267 0.00019806 0)
(0.110902 0.000183451 0)
(0.110555 0.000169173 0)
(0.110227 0.000155263 0)
(0.109919 0.000141713 0)
(0.109631 0.000128485 0)
(0.109362 0.000115517 0)
(0.109112 0.000102735 0)
(0.10888 9.00455e-05 0)
(0.108666 7.73396e-05 0)
(0.108468 6.44835e-05 0)
(0.108286 5.13272e-05 0)
(0.108119 3.77503e-05 0)
(0.107967 2.36609e-05 0)
(0.10783 8.86556e-06 0)
(0.107707 -6.91805e-06 0)
(0.107599 -2.38996e-05 0)
(0.107507 -4.23305e-05 0)
(0.107432 -6.25875e-05 0)
(0.107376 -8.51441e-05 0)
(0.107338 -0.000110576 0)
(0.107322 -0.000139554 0)
(0.10733 -0.000172892 0)
(0.107365 -0.000211593 0)
(0.10743 -0.000256917 0)
(0.10753 -0.000310465 0)
(0.107672 -0.000374306 0)
(0.107861 -0.000451195 0)
(0.108109 -0.000544827 0)
(0.108424 -0.000660584 0)
(0.108824 -0.000805789 0)
(0.109323 -0.000993475 0)
(0.109953 -0.00123902 0)
(0.110712 -0.00158621 0)
(0.11171 -0.00205178 0)
(0.112675 -0.00284179 0)
(0.114279 -0.00364718 0)
(0.116308 -0.000763969 0)
(0.115807 -0.000506433 0)
(0.115707 -0.000289587 0)
(0.115709 -0.000137711 0)
(0.115742 -1.41535e-05 0)
(0.115797 8.23318e-05 0)
(0.115856 0.000155463 0)
(0.115907 0.000209711 0)
(0.115941 0.000248754 0)
(0.115949 0.000275639 0)
(0.115925 0.000292802 0)
(0.115863 0.000302176 0)
(0.115761 0.000305302 0)
(0.115616 0.000303416 0)
(0.115429 0.000297531 0)
(0.115202 0.000288501 0)
(0.114941 0.000277071 0)
(0.114653 0.000263892 0)
(0.114346 0.000249522 0)
(0.114026 0.000234426 0)
(0.113701 0.000218968 0)
(0.113377 0.000203417 0)
(0.113058 0.000187955 0)
(0.112749 0.000172692 0)
(0.112451 0.000157673 0)
(0.112168 0.000142898 0)
(0.111898 0.000128328 0)
(0.111644 0.000113891 0)
(0.111405 9.94868e-05 0)
(0.111181 8.49843e-05 0)
(0.110973 7.02319e-05 0)
(0.11078 5.51016e-05 0)
(0.110602 3.94921e-05 0)
(0.110438 2.3223e-05 0)
(0.11029 5.96367e-06 0)
(0.110156 -1.26073e-05 0)
(0.110039 -3.27363e-05 0)
(0.109939 -5.47748e-05 0)
(0.109858 -7.92303e-05 0)
(0.109796 -0.000106724 0)
(0.109757 -0.000137974 0)
(0.109741 -0.000173848 0)
(0.109753 -0.000215418 0)
(0.109795 -0.000264025 0)
(0.109872 -0.000321371 0)
(0.10999 -0.00038965 0)
(0.110156 -0.000471775 0)
(0.110379 -0.000571646 0)
(0.110669 -0.000694905 0)
(0.111041 -0.000849203 0)
(0.11151 -0.00104798 0)
(0.112105 -0.00130692 0)
(0.112823 -0.0016699 0)
(0.113765 -0.00215177 0)
(0.114673 -0.00295242 0)
(0.11616 -0.00376037 0)
(0.116851 -0.000694891 0)
(0.116427 -0.000484526 0)
(0.116355 -0.000285585 0)
(0.116385 -0.00014081 0)
(0.116449 -2.09706e-05 0)
(0.11654 7.38963e-05 0)
(0.116643 0.000146702 0)
(0.116746 0.000201579 0)
(0.116842 0.00024201 0)
(0.116926 0.00027092 0)
(0.116993 0.000290674 0)
(0.117038 0.000303149 0)
(0.117058 0.000309809 0)
(0.117048 0.000311784 0)
(0.117006 0.000309936 0)
(0.116931 0.000304929 0)
(0.116822 0.000297299 0)
(0.116679 0.000287496 0)
(0.116505 0.000275925 0)
(0.116304 0.000262954 0)
(0.116079 0.000248923 0)
(0.115837 0.000234132 0)
(0.115582 0.00021884 0)
(0.11532 0.000203253 0)
(0.115055 0.000187524 0)
(0.114791 0.00017175 0)
(0.114532 0.000155978 0)
(0.11428 0.000140203 0)
(0.114037 0.000124374 0)
(0.113804 0.000108397 0)
(0.113583 9.21452e-05 0)
(0.113374 7.55002e-05 0)
(0.113178 5.83606e-05 0)
(0.112996 4.05529e-05 0)
(0.112828 2.17757e-05 0)
(0.112673 1.62561e-06 0)
(0.112534 -2.02517e-05 0)
(0.112412 -4.41707e-05 0)
(0.112308 -7.06262e-05 0)
(0.112224 -0.000100283 0)
(0.112162 -0.000133908 0)
(0.112124 -0.000172424 0)
(0.112113 -0.000216969 0)
(0.112132 -0.000268965 0)
(0.112187 -0.000330215 0)
(0.112281 -0.000403038 0)
(0.112423 -0.000490506 0)
(0.112621 -0.000596717 0)
(0.112884 -0.000727566 0)
(0.113228 -0.000891022 0)
(0.113665 -0.00110088 0)
(0.114224 -0.00137311 0)
(0.1149 -0.00175136 0)
(0.115785 -0.0022491 0)
(0.116636 -0.00305822 0)
(0.118007 -0.00386898 0)
(0.117346 -0.000637149 0)
(0.11698 -0.000465477 0)
(0.116926 -0.000284004 0)
(0.116973 -0.000146506 0)
(0.117056 -3.06644e-05 0)
(0.117168 6.21181e-05 0)
(0.117295 0.000134038 0)