/*--------------------------------*- C++ -*----------------------------------*\
  =========                 |
  \\      /  F ield         | OpenFOAM: The Open Source CFD Toolbox
   \\    /   O peration     | Website:  https://openfoam.org
    \\  /    A nd           | Version:  6
     \\/     M anipulation  |
\*---------------------------------------------------------------------------*/
FoamFile
{
    version     2.0;
    format      ascii;
    class       volScalarField;
    location    "0";
    object      p;
}
// * * * * * * * * * * * * * * * * * * * * * * * * * * * * * * * * * * * * * //

dimensions      [0 2 -2 0 0 0 0];

internalField   nonuniform List<scalar> 
918
(
0.18588
0.959129
0.00627898
0.18517
0.00091533
0.927979
-0.851041
0.372136
0.163846
-0.156957
0.0183207
0.157919
0.778873
0.543387
-1.52724
0.0151549
0.325027
-0.699061
0.163002
0.00564233
0.444379
0.170393
0.173646
0.165757
0.219393
0.518902
0.651657
0.00161824
-0.00391889
-0.00155868
0.00323902
0.000627865
0.00509639
0.801031
0.847335
0.866011
0.13597
-0.029684
-0.717172
-0.788338
-0.763691
-0.876387
0.360539
0.362409
-0.528392
0.372942
0.38519
0.15193
0.163101
0.163871
0.165627
0.164335
0.165682
0.278256
-0.197665
-0.276936
-0.090046
-0.0648465
0.0705881
0.0190646
0.00768868
0.0228349
0.0243355
0.0942035
0.153252
0.14955
0.164236
0.173387
0.884613
0.856685
0.879425
0.804133
0.821561
0.753097
0.725092
0.56446
0.587507
0.527967
0.515129
-1.99808
-2.97126
-0.932771
-0.649461
0.00207123
0.021072
0.025527
0.311367
0.313408
0.319905
0.332713
0.794834
-0.682164
-0.789175
0.161852
0.161017
0.169191
0.170888
0.167219
0.166782
0.0140587
0.023485
0.000416721
0.0055781
0.00585123
0.418904
0.417147
0.165278
0.162707
0.181683
0.204518
0.195509
-0.0696285
0.233721
0.252344
0.345199
0.51036
0.505131
0.514841
0.626276
0.593621
0.682638
0.707417
0.00611131
0.00169103
0.0109966
0.00835869
0.0105574
0.130555
0.124804
0.143787
0.137006
0.138103
-0.118356
-0.259572
0.0397088
0.0612715
-0.643471
-0.695729
-0.753701
-0.798813
-0.865631
0.148409
0.348887
0.353186
-0.540032
-0.463741
-0.601661
-0.401985
-0.468305
0.141306
0.14939
0.145634
0.159497
0.154027
0.155771
0.16693
0.164206
0.165767
0.299485
0.363173
0.23256
0.209764
-0.518313
-0.349294
-0.465523
-0.0340414
-0.0280701
0.0839265
0.0928611
0.0599067
0.0583343
0.00177588
0.0105114
0.0078638
0.0239889
0.0262045
0.0884781
0.0771133
0.101686
0.108507
0.145225
0.144749
0.147283
0.148148
0.672772
0.69645
0.704206
0.680607
-3.9711
-6.67996
-0.291548
-0.126504
0.00202196
0.00324191
0.00129411
0.00299996
0.00400329
0.00138259
0.038516
0.0387671
0.029433
0.0349506
0.298278
0.301491
0.774763
0.778299
0.72056
0.671113
0.150881
0.152785
0.158416
0.154742
0.026038
0.0254155
0.0279446
0.384117
0.401469
0.399317
-0.104825
-0.193848
-0.0212663
0.00646213
0.289273
0.267786
0.291774
0.41009
0.450208
0.720833
0.744898
0.732525
0.74859
0.796916
0.817056
0.781707
0.113824
0.12285
0.117938
0.150003
0.14688
0.147716
0.145209
0.144701
0.143144
-0.390641
-0.75951
0.11564
0.113223
0.0895961
0.0946313
0.228557
0.305312
0.327263
0.338325
0.337019
-0.351367
-0.403761
0.175005
0.160646
0.0315078
0.0630477
0.0471348
0.649533
0.611492
0.659271
0.635094
0.597729
0.621867
-0.690544
-2.46934
-1.41954
0.282516
0.0764243
0.173705
0.0533526
0.0408943
0.0471968
0.725088
0.721991
0.415324
0.556475
0.5232
0.478084
0.507495
0.567831
0.496096
0.532919
0.567862
0.544786
0.11368
0.122362
0.105858
0.375628
0.440845
-0.228188
-0.291334
-0.329357
0.101571
0.136688
0.124276
0.663703
0.519853
0.617315
0.163393
0.163094
0.0117487
0.0210014
0.165802
0.165949
0.00633309
0.00848969
0.177821
-1.30084
-0.210709
0.156332
0.146914
0.161815
-0.167919
0.296556
0.0173345
0.0790402
0.0571038
0.154311
0.103453
0.0666975
0.00737554
0.0201999
0.0162789
-0.474325
0.160677
0.158298
0.161348
0.162537
0.163423
0.00895635
0.0109538
0.00706808
0.0133287
0.0114983
0.0102803
0.131693
0.142804
-0.500159
0.161514
0.163543
0.16323
0.15791
0.162019
0.160088
0.0149672
0.0106448
0.0095017
-0.123517
0.00312459
0.395471
0.500008
0.32425
0.142621
-0.147739
0.315171
0.376754
0.286265
0.439911
0.32988
0.349317
-0.157534
-0.300263
-0.149601
-0.210978
0.153679
0.152136
0.144007
0.141107
0.156739
0.154681
0.159397
0.157249
0.159929
0.160935
-0.0974184
-0.0718503
-0.226646
-0.305108
0.311158
0.398121
0.19287
0.22685
0.128519
0.0217191
0.0215803
0.016705
0.0158506
0.0502359
0.0611576
0.07383
0.0586835
0.0483235
0.0447179
0.0524162
0.0584261
0.0617408
0.149376
0.147876
0.152552
0.160567
0.11161
0.113987
0.0853903
0.101879
0.0931648
0.0388875
0.0672312
0.044983
0.00798781
0.00841585
0.00672724
0.0241172
0.0263521
0.0147467
0.0121992
0.0139559
0.0110692
0.0111238
0.020145
0.0229655
-0.509204
-0.576307
0.648681
0.586019
-0.630679
0.150374
0.154171
0.152089
0.156509
0.159249
0.159648
0.157881
0.155447
0.144116
0.146473
0.141129
0.142564
-0.451937
-0.584639
-0.403422
-0.479682
-0.20373
0.272998
0.0116011
-0.0422753
-0.0514011
0.160949
0.354463
0.309872
0.43379
0.426813
-0.741431
-0.315625
-0.660796
-0.113327
-0.145206
0.415686
0.461988
0.481538
0.435341
0.385407
-0.393976
0.157434
-0.384407
-0.359992
-0.187672
-0.263188
0.375193
0.311574
0.320427
0.337016
0.363342
0.321627
0.308218
0.304398
0.331614
0.338366
0.140366
-0.0811248
-0.124362
-0.164635
0.295708
0.179735
0.232471
0.14394
0.14804
0.15117
0.150732
0.136782
0.139031
0.135925
0.141549
0.144554
0.152043
0.152691
0.148481
0.150144
-0.0415177
-0.0229274
-0.200992
-0.453428
-0.330888
-0.424503
-0.309299
-0.105158
-0.0111787
-0.386902
0.0403855
-0.310023
-0.567883
-0.421833
-0.655496
-0.28182
-0.464183
0.0825659
0.141531
0.149359
0.137158
0.188854
0.173175
0.035657
0.0426793
0.0259303
0.0259582
0.0793322
0.0995703
0.0998695
0.0441491
0.0487307
0.0247293
0.0248388
0.0546772
0.0353092
0.0449236
0.054056
0.0195333
0.0233409
0.0276358
0.0334136
0.0369953
0.038114
0.142656
0.145451
0.142751
0.156869
0.165324
0.178938
0.153358
0.129787
0.119659
0.124046
0.103225
0.108425
0.108437
0.117176
0.134435
0.140857
0.139478
0.140804
0.128253
0.129571
0.115132
0.119834
0.102336
0.0856111
0.0748034
0.017279
0.011475
0.0149886
0.0143842
0.0104028
0.0119675
0.0400966
0.0309611
0.0341849
0.0307362
0.0381112
0.0174065
0.0182416
-0.595258
-0.670368
-0.551749
-0.569484
-0.619851
0.553246
0.622788
0.473983
0.262023
0.235848
0.442368
0.607261
0.365555
0.437407
0.470759
0.101508
0.371307
0.154618
0.154339
0.151799
0.1512
0.152325
-0.371112
-0.274085
-0.251837
-0.209163
-0.0888582
0.0124584
-0.00610441
-0.161515
-0.0233736
0.0367469
0.271981
0.284744
0.227268
0.249669
0.248107
0.0800045
0.158207
0.198799
0.156589
0.206936
0.234565
0.19003
0.223152
0.163319
0.124891
0.121538
0.0658214
0.0956947
0.0772568
0.0550964
0.144153
0.125365
0.134297
0.126168
0.14463
0.176829
0.170898
0.190085
0.207521
0.133934
0.0898087
0.104193
0.131688
0.0890352
0.102326
0.119256
-0.192434
-0.2728
-0.18128
-0.499139
-0.35622
-0.34127
-0.374993
-0.448108
-0.149372
-0.787007
-0.7099
-1.38829
0.0935947
0.50069
0.33509
0.345977
0.360771
0.336212
0.340411
0.36642
0.377322
0.286755
0.304002
0.306652
0.261463
0.294495
0.307657
0.310577
0.122819
0.0538114
0.0345133
-0.00438799
-0.140365
-0.11043
0.0721861
0.0127149
-0.0565006
-0.0547235
0.115531
0.00540519
0.0679575
0.107444
0.056446
-0.00481729
0.200347
0.258391
0.246889
0.216979
0.13332
0.151885
0.169486
0.206031
0.2354
0.270557
0.14181
0.145389
0.147178
0.145407
0.140943
0.144545
0.145478
0.146403
0.147043
0.149504
0.14845
0.0142638
0.0130566
-0.00398662
0.00863888
-0.0458305
-0.0734224
-0.0317706
-0.087487
0.0220821
0.0156072
-0.0250761
-0.0206094
-0.00761608
0.00308051
0.0858945
0.0951541
0.0651076
0.0303877
-0.0644824
0.213305
0.194503
0.0598991
-0.0246746
0.0643612
0.174538
0.0646948
0.0737043
0.0671751
0.0789075
0.0736636
0.0331248
0.0283451
0.03093
0.0410403
0.0368438
0.0269162
0.0234348
0.0246431
0.0265737
0.0267218
0.0265731
0.128828
0.122796
0.126248
0.120102
0.119132
0.131824
0.134994
0.136117
0.140306
0.14232
0.134641
0.138548
0.141827
0.0273146
0.021498
0.0232041
0.0229376
0.0220772
0.0194571
0.0202469
-0.254338
-0.644083
-0.642254
-0.504903
-0.532865
-0.507358
0.146351
0.0619276
0.114062
0.244824
0.14527
0.032877
0.0839131
0.197208
-0.0810757
0.0932286
-0.0650549
0.464309
0.335907
0.475788
0.146948
-0.132603
-0.00556461
0.020476
-0.132746
-0.0466762
-0.0305321
-0.152175
-0.119386
-0.0931013
-0.0175127
-0.122252
-0.153617
-0.358363
-0.173489
-0.088058
-0.101043
0.0220424
0.073457
-0.0704376
-0.189858
-0.243067
0.254708
0.2757
0.290333
0.262404
0.282979
0.212821
0.202294
0.220551
0.230526
0.225036
-1.03818
-0.653632
-1.81361
-1.22196
-0.762961
0.121897
0.0971817
0.35113
0.264918
0.341618
0.328972
0.276512
0.242084
0.255936
0.291139
-0.00223199
0.10232
0.0641006
0.0872823
0.0178926
-0.0564579
0.218866
0.223687
0.248912
0.275586
0.250127
0.278863
0.138063
0.138231
0.140346
0.138243
0.133978
0.135813
0.0568156
0.0467899
0.0234706
0.0127245
0.0159155
0.0200503
0.031419
0.0286006
0.0253314
0.0248808
0.0283186
0.0330733
-0.174089
-0.268356
-0.427862
-0.32064
-0.375982
-0.474911
-0.475959
-0.390184
-0.260122
-0.281571
-0.0789474
0.236931
0.054003
0.226767
-0.174222
0.0578817
0.117593
0.080644
0.110351
0.0180635
0.118142
-0.36816
-0.569055
-0.608753
0.413493
0.373274
0.166457
-0.0933698
-0.192976
0.101341
0.155449
0.121414
0.157488
0.208439
0.202944
-0.3961
-0.324142
-0.224294
0.0704234
-0.169426
-0.168575
-0.184413
-0.0126303
-0.0579773
)
;

boundaryField
{
    wall-4
    {
        type            zeroGradient;
    }
    velocity-inlet-5
    {
        type            zeroGradient;
    }
    velocity-inlet-6
    {
        type            zeroGradient;
    }
    pressure-outlet-7
    {
        type            fixedValue;
        value           uniform 0;
    }
    wall-8
    {
        type            zeroGradient;
    }
    frontAndBackPlanes
    {
        type            empty;
    }
}

