/*--------------------------------*- C++ -*----------------------------------*\
  =========                 |
  \\      /  F ield         | OpenFOAM: The Open Source CFD Toolbox
   \\    /   O peration     | Website:  https://openfoam.org
    \\  /    A nd           | Version:  6
     \\/     M anipulation  |
\*---------------------------------------------------------------------------*/
FoamFile
{
    version     2.0;
    format      ascii;
    class       volScalarField;
    location    "17152";
    object      k;
}
// * * * * * * * * * * * * * * * * * * * * * * * * * * * * * * * * * * * * * //

dimensions      [0 2 -2 0 0 0 0];

internalField   nonuniform List<scalar> 
115600
(
2.77698e-06
1.64966e-06
1.6806e-06
1.72934e-06
1.72086e-06
1.65003e-06
1.54385e-06
1.42719e-06
1.31863e-06
1.2205e-06
1.13428e-06
1.05938e-06
9.94252e-07
9.37143e-07
8.86559e-07
8.41458e-07
8.01217e-07
7.65507e-07
7.34136e-07
7.06926e-07
6.83643e-07
6.63967e-07
6.47509e-07
6.33846e-07
6.2257e-07
6.13323e-07
6.0583e-07
5.99903e-07
5.95424e-07
5.9233e-07
5.90574e-07
5.90106e-07
5.90865e-07
5.93052e-07
5.96539e-07
6.01006e-07
6.06264e-07
6.12167e-07
6.18602e-07
6.25479e-07
6.32727e-07
6.40282e-07
6.48084e-07
6.56066e-07
6.64165e-07
6.7232e-07
6.80487e-07
6.88648e-07
6.96828e-07
7.05126e-07
7.13802e-07
7.23462e-07
7.35937e-07
7.57118e-07
8.2051e-07
1.16257e-06
2.67328e-05
2.71666e-05
2.94328e-05
3.10901e-05
3.15274e-05
3.075e-05
2.91628e-05
2.72086e-05
2.52551e-05
2.34419e-05
2.18313e-05
2.04293e-05
1.92122e-05
1.81459e-05
1.71988e-05
1.63482e-05
1.55813e-05
1.48929e-05
1.42819e-05
1.37478e-05
1.3289e-05
1.29012e-05
1.2578e-05
1.23114e-05
1.20928e-05
1.19144e-05
1.17699e-05
1.1655e-05
1.15671e-05
1.15051e-05
1.14685e-05
1.1457e-05
1.14698e-05
1.151e-05
1.1575e-05
1.16599e-05
1.17607e-05
1.18745e-05
1.19988e-05
1.21317e-05
1.22721e-05
1.24186e-05
1.25703e-05
1.27259e-05
1.28842e-05
1.30437e-05
1.32036e-05
1.3363e-05
1.35221e-05
1.36823e-05
1.38477e-05
1.40279e-05
1.42515e-05
1.46086e-05
1.55394e-05
1.87437e-05
5.49874e-05
7.17927e-05
8.2986e-05
8.98856e-05
9.29893e-05
9.29186e-05
9.05651e-05
8.68275e-05
8.24921e-05
7.8142e-05
7.40694e-05
7.03969e-05
6.71322e-05
6.42189e-05
6.15829e-05
5.9163e-05
5.69253e-05
5.48618e-05
5.29821e-05
5.13021e-05
4.98339e-05
4.85798e-05
4.75305e-05
4.66667e-05
4.59632e-05
4.53938e-05
4.49356e-05
4.45719e-05
4.42934e-05
4.40962e-05
4.39801e-05
4.39457e-05
4.3993e-05
4.41265e-05
4.43405e-05
4.46217e-05
4.49576e-05
4.53369e-05
4.57507e-05
4.61923e-05
4.6657e-05
4.71412e-05
4.76414e-05
4.81537e-05
4.86739e-05
4.91972e-05
4.97192e-05
5.02366e-05
5.07482e-05
5.1256e-05
5.1768e-05
5.23055e-05
5.29288e-05
5.38219e-05
5.57749e-05
6.07235e-05
7.04667e-05
0.000101036
0.000119602
0.000130568
0.000136116
0.000137686
0.000136476
0.000133497
0.000129573
0.000125331
0.000121194
0.00011737
0.000113921
0.000110813
0.000107972
0.000105326
0.000102829
0.000100469
9.82627e-05
9.62413e-05
9.44386e-05
9.28773e-05
9.15632e-05
9.04842e-05
8.96143e-05
8.89207e-05
8.83719e-05
8.79429e-05
8.76189e-05
8.73943e-05
8.72704e-05
8.72505e-05
8.73373e-05
8.75302e-05
8.78245e-05
8.82069e-05
8.86614e-05
8.91724e-05
8.97267e-05
9.03144e-05
9.0929e-05
9.15657e-05
9.22203e-05
9.28881e-05
9.35634e-05
9.42397e-05
9.49103e-05
9.55695e-05
9.62136e-05
9.68416e-05
9.74574e-05
9.80744e-05
9.87295e-05
9.95319e-05
0.00010095
0.000103837
7.50205e-05
0.000112969
0.000135858
0.000149257
0.000156308
0.000158964
0.000158625
0.00015638
0.000153097
0.000149397
0.000145701
0.000142251
0.000139133
0.000136329
0.000133775
0.000131399
0.000129153
0.000127022
0.000125017
0.000123171
0.000121518
0.000120086
0.000118885
0.000117908
0.000117132
0.000116526
0.000116057
0.0001157
0.000115438
0.000115264
0.000115179
0.000115189
0.000115295
0.000115497
0.00011579
0.000116163
0.000116602
0.000117093
0.000117623
0.000118184
0.000118768
0.000119372
0.000119992
0.000120624
0.000121262
0.0001219
0.000122531
0.000123148
0.000123747
0.000124323
0.000124877
0.00012541
0.000125932
0.000126469
0.000127202
0.000128449
7.32515e-05
0.000114268
0.000140009
0.000155374
0.000163767
0.000167415
0.000167858
0.000166253
0.000163496
0.000160248
0.000156932
0.00015379
0.000150928
0.000148346
0.000145989
0.000143797
0.000141725
0.000139758
0.000137907
0.000136202
0.000134676
0.000133356
0.000132253
0.000131362
0.000130661
0.00013012
0.00012971
0.000129404
0.000129186
0.00012905
0.000128996
0.000129027
0.000129148
0.000129356
0.000129645
0.000130007
0.00013043
0.000130899
0.000131405
0.000131937
0.000132492
0.000133064
0.000133652
0.000134249
0.000134852
0.000135454
0.000136047
0.000136626
0.000137184
0.000137717
0.000138221
0.000138692
0.000139123
0.000139499
0.00013987
0.000140384
6.80588e-05
0.000108563
0.000136034
0.000153297
0.000163264
0.000168171
0.000169623
0.000168828
0.000166713
0.00016397
0.00016106
0.000158236
0.000155618
0.000153226
0.000151025
0.000148967
0.000147017
0.000145162
0.000143415
0.000141805
0.000140363
0.000139115
0.000138072
0.000137231
0.000136571
0.000136066
0.000135687
0.00013541
0.000135219
0.000135107
0.000135074
0.000135123
0.000135257
0.000135473
0.000135767
0.000136128
0.000136546
0.000137009
0.000137505
0.000138028
0.000138572
0.000139134
0.000139709
0.000140294
0.000140883
0.000141471
0.000142049
0.000142612
0.000143153
0.000143666
0.000144148
0.000144589
0.000144976
0.000145274
0.000145482
0.0001457
6.14135e-05
9.82539e-05
0.000125935
0.000144828
0.00015662
0.000163175
0.000166025
0.000166378
0.000165183
0.000163157
0.000160799
0.000158407
0.000156117
0.000153977
0.000151976
0.000150085
0.000148278
0.000146549
0.000144914
0.0001434
0.00014204
0.00014086
0.000139871
0.000139071
0.000138444
0.000137966
0.000137611
0.000137357
0.000137188
0.000137098
0.000137086
0.000137154
0.000137303
0.000137533
0.000137836
0.000138205
0.000138628
0.000139094
0.000139595
0.000140121
0.000140669
0.000141235
0.000141813
0.000142402
0.000142994
0.000143583
0.000144164
0.000144728
0.00014527
0.000145784
0.000146264
0.0001467
0.000147075
0.000147346
0.000147494
0.000147606
5.46153e-05
8.55626e-05
0.000111463
0.000131137
0.000144685
0.000153162
0.000157794
0.000159685
0.000159761
0.000158751
0.000157186
0.000155412
0.000153604
0.000151845
0.000150153
0.00014852
0.000146934
0.000145397
0.000143928
0.000142555
0.000141312
0.000140227
0.000139314
0.000138574
0.000137995
0.000137558
0.000137238
0.000137017
0.00013688
0.00013682
0.000136837
0.000136931
0.000137104
0.000137354
0.000137675
0.000138059
0.000138495
0.000138975
0.000139488
0.000140028
0.00014059
0.000141169
0.000141762
0.000142364
0.00014297
0.000143574
0.000144168
0.000144746
0.000145302
0.00014583
0.000146323
0.00014677
0.000147152
0.000147427
0.000147567
0.000147658
4.83287e-05
7.25265e-05
9.47008e-05
0.000113675
0.000128329
0.000138646
0.000145259
0.000149003
0.000150689
0.000151016
0.000150529
0.000149607
0.000148481
0.000147276
0.000146045
0.000144802
0.000143554
0.000142309
0.000141092
0.000139935
0.000138873
0.000137936
0.000137145
0.000136504
0.000136008
0.00013564
0.000135383
0.000135218
0.000135134
0.000135123
0.000135185
0.00013532
0.000135529
0.000135811
0.000136161
0.00013657
0.00013703
0.000137532
0.000138068
0.00013863
0.000139214
0.000139816
0.000140431
0.000141056
0.000141684
0.00014231
0.000142927
0.000143529
0.000144108
0.000144659
0.000145176
0.000145645
0.000146049
0.000146344
0.000146505
0.000146614
4.27791e-05
6.06408e-05
7.79109e-05
9.44554e-05
0.00010893
0.000120442
0.000128861
0.000134547
0.000138062
0.000139991
0.000140848
0.000141027
0.000140809
0.00014036
0.000139768
0.000139075
0.000138304
0.000137477
0.000136622
0.000135777
0.000134981
0.000134268
0.000133663
0.000133178
0.000132814
0.00013256
0.000132403
0.000132329
0.000132328
0.000132394
0.000132526
0.000132723
0.000132988
0.000133318
0.000133712
0.000134161
0.000134658
0.000135194
0.000135763
0.000136357
0.000136973
0.000137607
0.000138253
0.000138908
0.000139567
0.000140223
0.000140871
0.000141503
0.000142113
0.000142696
0.000143243
0.000143744
0.000144177
0.000144504
0.000144702
0.000144849
3.80214e-05
5.06765e-05
6.30041e-05
7.58459e-05
8.8534e-05
9.99959e-05
0.000109497
0.000116813
0.00012211
0.000125741
0.000128121
0.000129623
0.000130534
0.000131047
0.000131283
0.000131309
0.00013117
0.000130899
0.000130533
0.000130114
0.000129685
0.000129285
0.000128947
0.000128689
0.000128519
0.000128435
0.000128429
0.00012849
0.000128612
0.00012879
0.000129022
0.00012931
0.000129655
0.000130058
0.000130516
0.000131024
0.000131574
0.00013216
0.000132776
0.000133415
0.000134075
0.00013475
0.000135437
0.000136132
0.000136829
0.000137524
0.000138209
0.000138879
0.000139528
0.000140149
0.000140734
0.000141272
0.000141744
0.000142111
0.000142356
0.000142551
3.40752e-05
4.28037e-05
5.10416e-05
5.99324e-05
6.95994e-05
7.94814e-05
8.87808e-05
9.68592e-05
0.000103454
0.000108611
0.000112526
0.000115457
0.000117648
0.00011929
0.00012052
0.000121427
0.00012207
0.000122497
0.000122751
0.00012288
0.000122929
0.000122946
0.000122966
0.000123017
0.000123116
0.000123267
0.00012347
0.00012372
0.000124012
0.000124343
0.000124715
0.000125129
0.000125587
0.00012609
0.000126638
0.000127228
0.000127853
0.000128508
0.000129188
0.000129889
0.000130605
0.000131335
0.000132074
0.000132819
0.000133566
0.000134308
0.00013504
0.000135756
0.00013645
0.000137117
0.000137747
0.000138329
0.000138845
0.00013926
0.000139558
0.000139808
3.09281e-05
3.68446e-05
4.21533e-05
4.77944e-05
5.42143e-05
6.14333e-05
6.90586e-05
7.65813e-05
8.35186e-05
8.95823e-05
9.46918e-05
9.89091e-05
0.000102363
0.00010519
0.000107508
0.000109407
0.000110952
0.000112198
0.000113193
0.000113986
0.000114626
0.000115163
0.00011564
0.000116091
0.000116539
0.000116999
0.000117477
0.000117974
0.00011849
0.000119026
0.000119582
0.000120162
0.00012077
0.000121408
0.000122077
0.000122776
0.000123502
0.00012425
0.000125015
0.000125795
0.000126587
0.000127387
0.000128193
0.000129001
0.000129808
0.000130608
0.000131397
0.000132169
0.000132917
0.000133637
0.000134319
0.000134954
0.000135521
0.000135989
0.000136347
0.000136657
2.85237e-05
3.24951e-05
3.58982e-05
3.93428e-05
4.32152e-05
4.77301e-05
5.2948e-05
5.87019e-05
6.46789e-05
7.05399e-05
7.60218e-05
8.09783e-05
8.53655e-05
8.92031e-05
9.25385e-05
9.5424e-05
9.79081e-05
0.000100035
0.000101848
0.000103392
0.000104716
0.000105868
0.000106892
0.000107829
0.00010871
0.000109554
0.000110377
0.000111185
0.000111983
0.000112775
0.000113565
0.000114358
0.000115157
0.000115968
0.000116793
0.000117634
0.000118489
0.000119357
0.000120233
0.000121116
0.000122002
0.000122891
0.000123781
0.000124668
0.000125549
0.000126421
0.000127279
0.000128116
0.00012893
0.000129712
0.000130455
0.000131149
0.000131776
0.000132306
0.000132729
0.000133104
2.67879e-05
2.94628e-05
3.16994e-05
3.38427e-05
3.61271e-05
3.87363e-05
4.18303e-05
4.54723e-05
4.9624e-05
5.41527e-05
5.88712e-05
6.35892e-05
6.81519e-05
7.24545e-05
7.64374e-05
8.00736e-05
8.33567e-05
8.62942e-05
8.8904e-05
9.12137e-05
9.32581e-05
9.50775e-05
9.67133e-05
9.82046e-05
9.9585e-05
0.000100881
0.000102112
0.000103291
0.000104428
0.00010553
0.000106603
0.000107654
0.00010869
0.000109715
0.000110735
0.000111752
0.000112769
0.000113785
0.000114799
0.00011581
0.000116815
0.000117815
0.000118807
0.000119791
0.000120763
0.000121722
0.000122661
0.000123578
0.000124468
0.000125323
0.000126138
0.000126901
0.000127595
0.000128195
0.000128692
0.000129138
2.56353e-05
2.7485e-05
2.90355e-05
3.04636e-05
3.18927e-05
3.34322e-05
3.51915e-05
3.72617e-05
3.9708e-05
4.2556e-05
4.57848e-05
4.93305e-05
5.30986e-05
5.69811e-05
6.0872e-05
6.46785e-05
6.83264e-05
7.17626e-05
7.49551e-05
7.78911e-05
8.05749e-05
8.30237e-05
8.5263e-05
8.73224e-05
8.92311e-05
9.10151e-05
9.26955e-05
9.4289e-05
9.58081e-05
9.72628e-05
9.86619e-05
0.000100013
0.000101325
0.000102603
0.000103854
0.000105083
0.000106294
0.000107488
0.000108668
0.000109832
0.000110982
0.000112115
0.000113232
0.000114332
0.000115414
0.000116475
0.000117513
0.000118523
0.000119502
0.000120444
0.000121341
0.000122184
0.000122956
0.000123635
0.000124214
0.000124738
2.49372e-05
2.62818e-05
2.74373e-05
2.84847e-05
2.94863e-05
3.04993e-05
3.15805e-05
3.27866e-05
3.41733e-05
3.57915e-05
3.76822e-05
3.98706e-05
4.23617e-05
4.51368e-05
4.81537e-05
5.13503e-05
5.46515e-05
5.7979e-05
6.12609e-05
6.4439e-05
6.74731e-05
7.03415e-05
7.3038e-05
7.55682e-05
7.79447e-05
8.01831e-05
8.22988e-05
8.43057e-05
8.62157e-05
8.80389e-05
8.9784e-05
9.14592e-05
9.30725e-05
9.46313e-05
9.61424e-05
9.76117e-05
9.90442e-05
0.000100444
0.000101813
0.000103155
0.00010447
0.000105759
0.000107022
0.000108259
0.000109469
0.00011065
0.000111802
0.000112921
0.000114003
0.000115044
0.000116037
0.000116971
0.000117833
0.000118601
0.00011927
0.000119881
2.45398e-05
2.55807e-05
2.65097e-05
2.73551e-05
2.81479e-05
2.89169e-05
2.96897e-05
3.04961e-05
3.13672e-05
3.23361e-05
3.34367e-05
3.47033e-05
3.61676e-05
3.78562e-05
3.97859e-05
4.19589e-05
4.43602e-05
4.69567e-05
4.97005e-05
5.25357e-05
5.54061e-05
5.82624e-05
6.1066e-05
6.3791e-05
6.64226e-05
6.89543e-05
7.13854e-05
7.37181e-05
7.59564e-05
7.81045e-05
8.01673e-05
8.21501e-05
8.40584e-05
8.5898e-05
8.76747e-05
8.93942e-05
9.10613e-05
9.26805e-05
9.42556e-05
9.57899e-05
9.72859e-05
9.87457e-05
0.000100171
0.000101561
0.000102915
0.000104233
0.000105513
0.000106754
0.000107953
0.000109106
0.000110205
0.000111243
0.000112204
0.000113072
0.000113842
0.000114549
2.4321e-05
2.51803e-05
2.59791e-05
2.67168e-05
2.74079e-05
2.80661e-05
2.87055e-05
2.93414e-05
2.99904e-05
3.06707e-05
3.14018e-05
3.22051e-05
3.31038e-05
3.41227e-05
3.52863e-05
3.66175e-05
3.81335e-05
3.98436e-05
4.17458e-05
4.38263e-05
4.60601e-05
4.84151e-05
5.08555e-05
5.33466e-05
5.58575e-05
5.83628e-05
6.08428e-05
6.32826e-05
6.56716e-05
6.80024e-05
7.02699e-05
7.24714e-05
7.4606e-05
7.66744e-05
7.86784e-05
8.06204e-05
8.25035e-05
8.43307e-05
8.61049e-05
8.78292e-05
8.95063e-05
9.11385e-05
9.27279e-05
9.42759e-05
9.57822e-05
9.72449e-05
9.86633e-05
0.000100036
0.000101361
0.000102634
0.00010385
0.000104999
0.000106071
0.000107047
0.000107926
0.000108737
2.42074e-05
2.49601e-05
2.56851e-05
2.63666e-05
2.70097e-05
2.76199e-05
2.82046e-05
2.87721e-05
2.9332e-05
2.98942e-05
3.04701e-05
3.10717e-05
3.17126e-05
3.24078e-05
3.31736e-05
3.40277e-05
3.49875e-05
3.60697e-05
3.72883e-05
3.86528e-05
4.01671e-05
4.18287e-05
4.3629e-05
4.55536e-05
4.75847e-05
4.9702e-05
5.18847e-05
5.41121e-05
5.63652e-05
5.86263e-05
6.08805e-05
6.31148e-05
6.5319e-05
6.74854e-05
6.96085e-05
7.16846e-05
7.37116e-05
7.56886e-05
7.76156e-05
7.94931e-05
8.1322e-05
8.31036e-05
8.48392e-05
8.65298e-05
8.81759e-05
8.97775e-05
9.13304e-05
9.28333e-05
9.4284e-05
9.56791e-05
9.70133e-05
9.82786e-05
9.94632e-05
0.000100553
0.000101545
0.000102465
2.41584e-05
2.4853e-05
2.55395e-05
2.61951e-05
2.68192e-05
2.74129e-05
2.79798e-05
2.85249e-05
2.90537e-05
2.95727e-05
3.00886e-05
3.06088e-05
3.11413e-05
3.16951e-05
3.228e-05
3.29064e-05
3.35858e-05
3.43299e-05
3.51505e-05
3.60591e-05
3.70657e-05
3.81787e-05
3.94041e-05
4.07449e-05
4.22011e-05
4.37694e-05
4.54434e-05
4.72136e-05
4.90683e-05
5.09938e-05
5.2975e-05
5.4997e-05
5.70449e-05
5.91051e-05
6.11658e-05
6.32165e-05
6.5249e-05
6.72566e-05
6.9234e-05
7.11776e-05
7.30847e-05
7.49532e-05
7.67822e-05
7.85706e-05
8.03176e-05
8.20224e-05
8.3684e-05
8.52963e-05
8.68561e-05
8.83596e-05
8.98016e-05
9.11742e-05
9.24664e-05
9.36654e-05
9.47685e-05
9.57963e-05
2.41503e-05
2.48204e-05
2.54926e-05
2.61418e-05
2.67645e-05
2.73591e-05
2.79272e-05
2.84719e-05
2.89968e-05
2.9506e-05
3.00041e-05
3.0496e-05
3.09871e-05
3.14828e-05
3.19894e-05
3.25134e-05
3.30616e-05
3.36415e-05
3.42607e-05
3.49269e-05
3.5648e-05
3.6432e-05
3.72861e-05
3.82175e-05
3.92324e-05
4.03356e-05
4.15308e-05
4.28196e-05
4.42014e-05
4.56732e-05
4.72296e-05
4.88629e-05
5.05636e-05
5.23211e-05
5.4124e-05
5.59611e-05
5.78215e-05
5.96951e-05
6.15728e-05
6.3447e-05
6.53107e-05
6.71584e-05
6.89855e-05
7.07878e-05
7.2562e-05
7.43049e-05
7.60137e-05
7.76855e-05
7.9312e-05
8.08877e-05
8.24064e-05
8.386e-05
8.52377e-05
8.65277e-05
8.77264e-05
8.88497e-05
2.4168e-05
2.48374e-05
2.55132e-05
2.61701e-05
2.68034e-05
2.74101e-05
2.79905e-05
2.85467e-05
2.90811e-05
2.95969e-05
3.00971e-05
3.05854e-05
3.10655e-05
3.15412e-05
3.20167e-05
3.24964e-05
3.29847e-05
3.34864e-05
3.40063e-05
3.45495e-05
3.51212e-05
3.57269e-05
3.63721e-05
3.70625e-05
3.78039e-05
3.8602e-05
3.94625e-05
4.03902e-05
4.13895e-05
4.24634e-05
4.36137e-05
4.48403e-05
4.61417e-05
4.75142e-05
4.8953e-05
5.04517e-05
5.20031e-05
5.35992e-05
5.52321e-05
5.68935e-05
5.85757e-05
6.02713e-05
6.19733e-05
6.36755e-05
6.53719e-05
6.7057e-05
6.87257e-05
7.03731e-05
7.19943e-05
7.35782e-05
7.51171e-05
7.6602e-05
7.80217e-05
7.93646e-05
8.06258e-05
8.18163e-05
2.42011e-05
2.48863e-05
2.55792e-05
2.62549e-05
2.69079e-05
2.75346e-05
2.81348e-05
2.87098e-05
2.92617e-05
2.97927e-05
3.03054e-05
3.08023e-05
3.12863e-05
3.17604e-05
3.22274e-05
3.26906e-05
3.31531e-05
3.36181e-05
3.4089e-05
3.45692e-05
3.50623e-05
3.55719e-05
3.61019e-05
3.66563e-05
3.72394e-05
3.78556e-05
3.85095e-05
3.92057e-05
3.99487e-05
4.07428e-05
4.15917e-05
4.24985e-05
4.34655e-05
4.44938e-05
4.55836e-05
4.6734e-05
4.79429e-05
4.92072e-05
5.0523e-05
5.18857e-05
5.32899e-05
5.47301e-05
5.62003e-05
5.76945e-05
5.92066e-05
6.07302e-05
6.22592e-05
6.37875e-05
6.53092e-05
6.68165e-05
6.82975e-05
6.97422e-05
7.11389e-05
7.24761e-05
7.3747e-05
7.49583e-05
2.42425e-05
2.49539e-05
2.56734e-05
2.63761e-05
2.70561e-05
2.77094e-05
2.8335e-05
2.89343e-05
2.95089e-05
3.00606e-05
3.05916e-05
3.11039e-05
3.15999e-05
3.20819e-05
3.25521e-05
3.30129e-05
3.34668e-05
3.39161e-05
3.43633e-05
3.4811e-05
3.52617e-05
3.5718e-05
3.61826e-05
3.66586e-05
3.7149e-05
3.7657e-05
3.8186e-05
3.87394e-05
3.9321e-05
3.99343e-05
4.05828e-05
4.12698e-05
4.19982e-05
4.27708e-05
4.35897e-05
4.44565e-05
4.53721e-05
4.63368e-05
4.73504e-05
4.84116e-05
4.95188e-05
5.06695e-05
5.18607e-05
5.30889e-05
5.43497e-05
5.56386e-05
5.69504e-05
5.82794e-05
5.96199e-05
6.09665e-05
6.23078e-05
6.36338e-05
6.49328e-05
6.61937e-05
6.74083e-05
6.85796e-05
2.42869e-05
2.50301e-05
2.57818e-05
2.65172e-05
2.72297e-05
2.79144e-05
2.85703e-05
2.91981e-05
2.97993e-05
3.03757e-05
3.09289e-05
3.1461e-05
3.19737e-05
3.24691e-05
3.29489e-05
3.34152e-05
3.38699e-05
3.43149e-05
3.47521e-05
3.51835e-05
3.56111e-05
3.60369e-05
3.64632e-05
3.68921e-05
3.73259e-05
3.7767e-05
3.8218e-05
3.86816e-05
3.91605e-05
3.96574e-05
4.01752e-05
4.07165e-05
4.12841e-05
4.18804e-05
4.25079e-05
4.31687e-05
4.38647e-05
4.45975e-05
4.53685e-05
4.61784e-05
4.70276e-05
4.79162e-05
4.88436e-05
4.98086e-05
5.08095e-05
5.18439e-05
5.29089e-05
5.40007e-05
5.5115e-05
5.62476e-05
5.73916e-05
5.85377e-05
5.96759e-05
6.07966e-05
6.18913e-05
6.29614e-05
2.4331e-05
2.51073e-05
2.58933e-05
2.66642e-05
2.74121e-05
2.81317e-05
2.88213e-05
2.94811e-05
3.01122e-05
3.07162e-05
3.12948e-05
3.18496e-05
3.23823e-05
3.28946e-05
3.33882e-05
3.38647e-05
3.43257e-05
3.47729e-05
3.52079e-05
3.56324e-05
3.6048e-05
3.64565e-05
3.68595e-05
3.72589e-05
3.76566e-05
3.80545e-05
3.84547e-05
3.88591e-05
3.927e-05
3.96895e-05
4.01199e-05
4.05631e-05
4.10216e-05
4.14972e-05
4.19923e-05
4.25086e-05
4.30483e-05
4.36129e-05
4.42043e-05
4.48239e-05
4.54729e-05
4.61523e-05
4.68629e-05
4.76049e-05
4.83782e-05
4.91822e-05
5.00158e-05
5.08772e-05
5.17637e-05
5.26727e-05
5.36004e-05
5.45404e-05
5.54851e-05
5.64273e-05
5.73597e-05
5.82834e-05
2.4372e-05
2.51798e-05
2.59992e-05
2.68052e-05
2.75893e-05
2.83451e-05
2.90702e-05
2.9764e-05
3.04273e-05
3.10613e-05
3.16676e-05
3.22475e-05
3.28026e-05
3.33345e-05
3.38446e-05
3.43344e-05
3.48054e-05
3.52591e-05
3.56968e-05
3.61201e-05
3.65305e-05
3.69294e-05
3.73184e-05
3.7699e-05
3.80729e-05
3.84417e-05
3.88071e-05
3.91709e-05
3.95348e-05
3.99005e-05
4.02699e-05
4.06447e-05
4.10268e-05
4.14179e-05
4.18196e-05
4.22338e-05
4.26621e-05
4.31061e-05
4.35674e-05
4.40475e-05
4.45478e-05
4.50696e-05
4.56139e-05
4.61816e-05
4.67733e-05
4.73894e-05
4.80297e-05
4.86937e-05
4.93801e-05
5.00873e-05
5.08134e-05
5.15547e-05
5.23062e-05
5.3063e-05
5.38198e-05
5.45787e-05
2.4408e-05
2.52434e-05
2.60926e-05
2.6931e-05
2.77492e-05
2.85401e-05
2.93004e-05
3.00288e-05
3.07252e-05
3.13905e-05
3.20258e-05
3.26325e-05
3.32117e-05
3.3765e-05
3.42937e-05
3.47991e-05
3.52827e-05
3.57458e-05
3.61896e-05
3.66157e-05
3.70253e-05
3.74199e-05
3.78009e-05
3.81696e-05
3.85276e-05
3.88763e-05
3.92173e-05
3.9552e-05
3.9882e-05
4.02089e-05
4.05342e-05
4.08595e-05
4.11861e-05
4.15157e-05
4.18497e-05
4.21896e-05
4.25368e-05
4.28927e-05
4.32588e-05
4.36364e-05
4.40268e-05
4.44312e-05
4.48508e-05
4.52864e-05
4.5739e-05
4.62092e-05
4.66973e-05
4.72033e-05
4.77268e-05
4.8267e-05
4.88228e-05
4.93922e-05
4.99722e-05
5.05599e-05
5.11517e-05
5.1751e-05
2.44378e-05
2.52953e-05
2.61688e-05
2.70344e-05
2.78823e-05
2.87047e-05
2.94976e-05
3.02588e-05
3.09874e-05
3.16838e-05
3.23484e-05
3.29824e-05
3.35866e-05
3.41625e-05
3.47111e-05
3.52337e-05
3.57317e-05
3.62063e-05
3.66587e-05
3.70904e-05
3.75025e-05
3.78965e-05
3.82736e-05
3.86353e-05
3.89829e-05
3.93177e-05
3.96413e-05
3.99549e-05
4.02601e-05
4.05582e-05
4.08507e-05
4.11388e-05
4.1424e-05
4.17075e-05
4.19908e-05
4.2275e-05
4.25616e-05
4.28517e-05
4.31466e-05
4.34474e-05
4.37554e-05
4.40716e-05
4.43971e-05
4.47328e-05
4.50795e-05
4.5438e-05
4.58087e-05
4.6192e-05
4.65876e-05
4.69952e-05
4.74142e-05
4.78436e-05
4.82815e-05
4.87264e-05
4.91761e-05
4.96349e-05
2.44606e-05
2.53334e-05
2.62243e-05
2.71101e-05
2.79811e-05
2.88292e-05
2.96496e-05
3.04396e-05
3.11974e-05
3.19225e-05
3.26151e-05
3.32754e-05
3.39044e-05
3.45029e-05
3.50719e-05
3.56125e-05
3.6126e-05
3.66135e-05
3.70763e-05
3.75156e-05
3.79327e-05
3.83288e-05
3.87054e-05
3.90636e-05
3.94049e-05
3.97306e-05
4.0042e-05
4.03404e-05
4.06272e-05
4.09038e-05
4.11715e-05
4.14314e-05
4.1685e-05
4.19334e-05
4.21779e-05
4.24196e-05
4.26597e-05
4.28995e-05
4.31399e-05
4.3382e-05
4.3627e-05
4.38759e-05
4.41294e-05
4.43886e-05
4.46543e-05
4.49269e-05
4.52072e-05
4.54954e-05
4.57917e-05
4.60956e-05
4.64071e-05
4.67253e-05
4.70493e-05
4.73784e-05
4.77114e-05
4.80533e-05
2.44758e-05
2.53564e-05
2.62565e-05
2.71543e-05
2.80402e-05
2.89062e-05
2.9747e-05
3.05593e-05
3.13409e-05
3.20904e-05
3.28073e-05
3.34914e-05
3.4143e-05
3.47628e-05
3.53514e-05
3.59098e-05
3.6439e-05
3.694e-05
3.74141e-05
3.78624e-05
3.82862e-05
3.86867e-05
3.90651e-05
3.94228e-05
3.97611e-05
4.00812e-05
4.03846e-05
4.06724e-05
4.09461e-05
4.12068e-05
4.14559e-05
4.16945e-05
4.1924e-05
4.21454e-05
4.236e-05
4.25689e-05
4.27732e-05
4.29739e-05
4.31722e-05
4.33689e-05
4.35651e-05
4.37617e-05
4.39596e-05
4.41595e-05
4.43622e-05
4.45684e-05
4.47784e-05
4.49928e-05
4.52115e-05
4.54345e-05
4.56616e-05
4.58924e-05
4.61262e-05
4.63631e-05
4.66024e-05
4.68495e-05
2.44828e-05
2.53629e-05
2.62635e-05
2.71642e-05
2.80557e-05
2.89303e-05
2.97825e-05
3.06088e-05
3.14065e-05
3.21736e-05
3.2909e-05
3.3612e-05
3.42824e-05
3.49203e-05
3.55262e-05
3.61007e-05
3.66445e-05
3.71586e-05
3.7644e-05
3.81018e-05
3.85332e-05
3.89394e-05
3.93216e-05
3.9681e-05
4.00189e-05
4.03366e-05
4.06353e-05
4.09164e-05
4.11811e-05
4.14306e-05
4.16663e-05
4.18893e-05
4.21007e-05
4.23019e-05
4.24937e-05
4.26775e-05
4.28542e-05
4.30248e-05
4.31904e-05
4.33519e-05
4.35101e-05
4.36661e-05
4.38206e-05
4.39743e-05
4.4128e-05
4.42822e-05
4.44374e-05
4.4594e-05
4.47521e-05
4.49116e-05
4.50725e-05
4.52345e-05
4.53973e-05
4.55611e-05
4.57258e-05
4.58973e-05
2.44811e-05
2.53522e-05
2.6244e-05
2.71378e-05
2.80248e-05
2.88976e-05
2.9751e-05
3.05812e-05
3.13854e-05
3.21614e-05
3.29073e-05
3.36222e-05
3.43052e-05
3.49562e-05
3.55751e-05
3.61622e-05
3.6718e-05
3.72433e-05
3.77389e-05
3.82057e-05
3.86448e-05
3.90572e-05
3.94441e-05
3.98067e-05
4.01462e-05
4.04638e-05
4.07607e-05
4.10383e-05
4.12976e-05
4.15401e-05
4.17668e-05
4.19789e-05
4.21776e-05
4.2364e-05
4.25392e-05
4.27043e-05
4.28603e-05
4.30082e-05
4.3149e-05
4.32835e-05
4.34128e-05
4.35374e-05
4.36584e-05
4.37764e-05
4.3892e-05
4.40058e-05
4.41183e-05
4.42298e-05
4.43404e-05
4.44502e-05
4.45592e-05
4.46672e-05
4.47741e-05
4.48803e-05
4.49862e-05
4.50976e-05
2.44707e-05
2.53238e-05
2.61972e-05
2.70739e-05
2.79456e-05
2.88056e-05
2.96489e-05
3.04718e-05
3.12714e-05
3.20456e-05
3.27923e-05
3.35099e-05
3.41975e-05
3.48543e-05
3.548e-05
3.60745e-05
3.6638e-05
3.7171e-05
3.76741e-05
3.81479e-05
3.85935e-05
3.90116e-05
3.94033e-05
3.97698e-05
4.0112e-05
4.04312e-05
4.07285e-05
4.10051e-05
4.12622e-05
4.1501e-05
4.17225e-05
4.1928e-05
4.21185e-05
4.22952e-05
4.24591e-05
4.26113e-05
4.27527e-05
4.28843e-05
4.3007e-05
4.31218e-05
4.32295e-05
4.33308e-05
4.34266e-05
4.35176e-05
4.36043e-05
4.36873e-05
4.37671e-05
4.38438e-05
4.39178e-05
4.39892e-05
4.4058e-05
4.41241e-05
4.41875e-05
4.42488e-05
4.43088e-05
4.43731e-05
2.44512e-05
2.52773e-05
2.61225e-05
2.69715e-05
2.78169e-05
2.86526e-05
2.94739e-05
3.02774e-05
3.10606e-05
3.18211e-05
3.25571e-05
3.32668e-05
3.39489e-05
3.46025e-05
3.52268e-05
3.58216e-05
3.63867e-05
3.69222e-05
3.74284e-05
3.79059e-05
3.83553e-05
3.87773e-05
3.91727e-05
3.95426e-05
3.98878e-05
4.02094e-05
4.05085e-05
4.0786e-05
4.10432e-05
4.1281e-05
4.15007e-05
4.17031e-05
4.18895e-05
4.20609e-05
4.22182e-05
4.23625e-05
4.24948e-05
4.26159e-05
4.27267e-05
4.28281e-05
4.2921e-05
4.30061e-05
4.30841e-05
4.31558e-05
4.32216e-05
4.32821e-05
4.33377e-05
4.33887e-05
4.34355e-05
4.34781e-05
4.35166e-05
4.3551e-05
4.35815e-05
4.36087e-05
4.36336e-05
4.36618e-05
2.44226e-05
2.52124e-05
2.60194e-05
2.68301e-05
2.7638e-05
2.84376e-05
2.92247e-05
2.99965e-05
3.07506e-05
3.14849e-05
3.21979e-05
3.28878e-05
3.35531e-05
3.41929e-05
3.48062e-05
3.53924e-05
3.59511e-05
3.64822e-05
3.69857e-05
3.74618e-05
3.79109e-05
3.83336e-05
3.87304e-05
3.91021e-05
3.94493e-05
3.97731e-05
4.00742e-05
4.03537e-05
4.06124e-05
4.08514e-05
4.10717e-05
4.12741e-05
4.14598e-05
4.16296e-05
4.17846e-05
4.19256e-05
4.20535e-05
4.21693e-05
4.22737e-05
4.23677e-05
4.24519e-05
4.25271e-05
4.25941e-05
4.26533e-05
4.27055e-05
4.2751e-05
4.27903e-05
4.28237e-05
4.28516e-05
4.28741e-05
4.28912e-05
4.2903e-05
4.29099e-05
4.29124e-05
4.2912e-05
4.29138e-05
2.43848e-05
2.51288e-05
2.58875e-05
2.66492e-05
2.74083e-05
2.816e-05
2.89009e-05
2.96285e-05
3.03408e-05
3.10363e-05
3.17135e-05
3.23711e-05
3.30077e-05
3.36221e-05
3.42135e-05
3.47811e-05
3.53243e-05
3.58426e-05
3.6336e-05
3.68042e-05
3.72476e-05
3.76662e-05
3.80606e-05
3.8431e-05
3.87782e-05
3.91026e-05
3.94051e-05
3.96864e-05
3.99473e-05
4.01886e-05
4.04111e-05
4.06157e-05
4.08033e-05
4.09747e-05
4.11308e-05
4.12724e-05
4.14003e-05
4.15154e-05
4.16185e-05
4.17102e-05
4.17914e-05
4.18626e-05
4.19247e-05
4.19779e-05
4.20231e-05
4.20606e-05
4.20908e-05
4.21142e-05
4.21309e-05
4.21412e-05
4.21451e-05
4.21428e-05
4.21346e-05
4.21213e-05
4.21044e-05
4.20886e-05
2.43376e-05
2.50262e-05
2.57265e-05
2.64285e-05
2.71276e-05
2.78199e-05
2.85027e-05
2.9174e-05
2.98323e-05
3.04765e-05
3.11056e-05
3.17185e-05
3.23142e-05
3.28916e-05
3.34499e-05
3.39881e-05
3.45057e-05
3.5002e-05
3.54767e-05
3.59295e-05
3.63602e-05
3.67689e-05
3.71557e-05
3.75206e-05
3.78642e-05
3.81867e-05
3.84886e-05
3.87705e-05
3.9033e-05
3.92766e-05
3.9502e-05
3.971e-05
3.99013e-05
4.00765e-05
4.02365e-05
4.03819e-05
4.05134e-05
4.06318e-05
4.07378e-05
4.08321e-05
4.09152e-05
4.09879e-05
4.10506e-05
4.11039e-05
4.11484e-05
4.11844e-05
4.12124e-05
4.12327e-05
4.12455e-05
4.12511e-05
4.12495e-05
4.1241e-05
4.12259e-05
4.12051e-05
4.11801e-05
4.11552e-05
2.42806e-05
2.49041e-05
2.55359e-05
2.61678e-05
2.67961e-05
2.74181e-05
2.80315e-05
2.86352e-05
2.92281e-05
2.98097e-05
3.03791e-05
3.09358e-05
3.14792e-05
3.20083e-05
3.25224e-05
3.30206e-05
3.35024e-05
3.39671e-05
3.44142e-05
3.48431e-05
3.52536e-05
3.56455e-05
3.60185e-05
3.63726e-05
3.6708e-05
3.70246e-05
3.73229e-05
3.76029e-05
3.78652e-05
3.81101e-05
3.83381e-05
3.85497e-05
3.87454e-05
3.89258e-05
3.90914e-05
3.92429e-05
3.93809e-05
3.95059e-05
3.96185e-05
3.97193e-05
3.98088e-05
3.98876e-05
3.99562e-05
4.0015e-05
4.00646e-05
4.01053e-05
4.01374e-05
4.01613e-05
4.01772e-05
4.01852e-05
4.01856e-05
4.01786e-05
4.01645e-05
4.01441e-05
4.01191e-05
4.00933e-05
2.42139e-05
2.47624e-05
2.53156e-05
2.58673e-05
2.64149e-05
2.69564e-05
2.74905e-05
2.80166e-05
2.85342e-05
2.90431e-05
2.95431e-05
3.00337e-05
3.05148e-05
3.09856e-05
3.14456e-05
3.18943e-05
3.23308e-05
3.27546e-05
3.31652e-05
3.35619e-05
3.39443e-05
3.43119e-05
3.46645e-05
3.50017e-05
3.53234e-05
3.56294e-05
3.59198e-05
3.61946e-05
3.6454e-05
3.66981e-05
3.69271e-05
3.71414e-05
3.73412e-05
3.75271e-05
3.76993e-05
3.78583e-05
3.80046e-05
3.81385e-05
3.82606e-05
3.83713e-05
3.8471e-05
3.85602e-05
3.86392e-05
3.87085e-05
3.87685e-05
3.88194e-05
3.88617e-05
3.88955e-05
3.8921e-05
3.89384e-05
3.89479e-05
3.89498e-05
3.89443e-05
3.89322e-05
3.89153e-05
3.88965e-05
2.41371e-05
2.46009e-05
2.50661e-05
2.55285e-05
2.59865e-05
2.64392e-05
2.68859e-05
2.73265e-05
2.77611e-05
2.81898e-05
2.86127e-05
2.90298e-05
2.94408e-05
2.98456e-05
3.02437e-05
3.06347e-05
3.10181e-05
3.13932e-05
3.17594e-05
3.21163e-05
3.24632e-05
3.27995e-05
3.31249e-05
3.34389e-05
3.37411e-05
3.40313e-05
3.43091e-05
3.45745e-05
3.48273e-05
3.50676e-05
3.52953e-05
3.55105e-05
3.57133e-05
3.5904e-05
3.60827e-05
3.62498e-05
3.64054e-05
3.65498e-05
3.66835e-05
3.68066e-05
3.69196e-05
3.70226e-05
3.71161e-05
3.72002e-05
3.72754e-05
3.73419e-05
3.73998e-05
3.74494e-05
3.74908e-05
3.75242e-05
3.75497e-05
3.75676e-05
3.75782e-05
3.75823e-05
3.75814e-05
3.75776e-05
2.40506e-05
2.44204e-05
2.47896e-05
2.51554e-05
2.55174e-05
2.58754e-05
2.62294e-05
2.65797e-05
2.69268e-05
2.72709e-05
2.76124e-05
2.79514e-05
2.8288e-05
2.8622e-05
2.89532e-05
2.92813e-05
2.9606e-05
2.99266e-05
3.02427e-05
3.05537e-05
3.08591e-05
3.11583e-05
3.14506e-05
3.17357e-05
3.20131e-05
3.22822e-05
3.25428e-05
3.27944e-05
3.30368e-05
3.32698e-05
3.34932e-05
3.3707e-05
3.3911e-05
3.41052e-05
3.42897e-05
3.44645e-05
3.46298e-05
3.47857e-05
3.49323e-05
3.50697e-05
3.51983e-05
3.53182e-05
3.54295e-05
3.55323e-05
3.5627e-05
3.57136e-05
3.57923e-05
3.58632e-05
3.59265e-05
3.59821e-05
3.60303e-05
3.60712e-05
3.61052e-05
3.61328e-05
3.61556e-05