/*--------------------------------*- C++ -*----------------------------------*\
  =========                 |
  \\      /  F ield         | OpenFOAM: The Open Source CFD Toolbox
   \\    /   O peration     | Website:  https://openfoam.org
    \\  /    A nd           | Version:  6
     \\/     M anipulation  |
\*---------------------------------------------------------------------------*/
FoamFile
{
    version     2.0;
    format      ascii;
    class       volScalarField;
    location    "0";
    object      p;
}
// * * * * * * * * * * * * * * * * * * * * * * * * * * * * * * * * * * * * * //

dimensions      [0 2 -2 0 0 0 0];

internalField   nonuniform List<scalar> 
13046
(
0.594578
0.571829
0.643036
0.600766
0.634833
0.590861
0.580076
0.594432
0.643894
0.298732
0.28337
0.609648
0.577658
0.541292
0.637284
0.37233
0.612376
0.310948
0.634196
0.623094
0.591875
0.360996
0.613667
0.308879
0.599373
0.600874
0.634699
0.562673
0.539704
0.640359
0.604446
0.548858
0.636457
0.614012
0.636474
0.597778
0.612887
0.638372
0.609324
0.609332
0.629811
0.529323
0.612639
0.633611
0.619735
0.60893
0.62517
0.622591
0.581151
0.571458
0.643447
0.598043
0.614528
0.479136
0.605189
0.459346
0.620185
0.392178
0.512849
0.620122
0.501332
0.530844
0.632093
0.618987
0.393236
0.410533
0.530817
0.395877
0.616224
0.545821
0.406912
0.617052
0.371457
0.4983
0.619241
0.63387
0.635033
0.574938
0.620935
0.463181
0.368748
0.592232
0.5974
0.634245
0.616187
0.370697
0.38503
0.380363
0.618307
0.425167
0.609791
0.328507
0.430607
0.508204
0.488096
0.482565
0.472229
0.62908
0.630887
0.619228
0.382183
0.442058
0.606506
0.629629
0.616916
0.634407
0.492339
0.606974
0.612646
0.619761
0.501129
0.191219
0.603388
0.183856
0.583089
0.556475
0.634101
0.491622
0.507602
0.442304
0.626433
0.468431
0.627509
0.277265
0.255489
0.608257
0.546874
0.495648
0.63904
0.603389
0.630632
0.529373
0.609473
0.347527
0.458672
0.453096
0.451128
0.624968
0.595394
0.539762
0.634036
0.535758
0.591023
0.633845
0.610478
0.607303
0.500377
0.631028
0.50991
0.614981
0.495158
0.509727
0.629292
0.644851
0.548953
0.609207
0.575477
0.453452
0.562563
0.447771
0.622832
0.623906
0.534608
0.575565
0.626729
0.291708
0.609294
0.297555
0.227614
0.604981
0.208053
0.444598
0.431754
0.624787
0.60164
0.484604
0.629381
0.538916
0.625977
0.585881
0.612358
0.334092
0.303011
0.604645
0.501414
0.623107
0.642489
0.535076
0.60497
0.548177
0.592212
0.631802
0.535764
0.641401
0.553094
0.51577
0.635586
0.369324
0.61591
0.388517
0.616143
0.377497
0.46082
0.334106
0.418883
0.609428
0.591436
0.443133
0.604472
0.561136
0.470716
0.616771
0.364674
0.389206
0.32384
0.610395
0.60345
0.637843
0.611197
0.572538
0.543193
0.638724
0.615489
0.365668
0.470017
0.548865
0.547306
0.643743
0.606063
0.25144
0.234781
0.607417
0.440705
0.582996
0.359988
0.440643
0.614216
0.486881
0.572294
0.631267
0.540184
0.498147
0.63874
0.510082
0.382375
0.608956
0.42837
0.549088
0.617316
0.604925
0.251462
0.212031
0.616891
0.626145
0.489856
0.219179
0.603046
0.140527
0.631211
0.595015
0.615047
0.497335
0.502745
0.562102
0.575335
0.635242
0.627561
0.614133
0.443808
0.348275
0.557004
0.506417
0.634107
0.424277
0.525783
0.620022
0.468608
0.44763
0.625919
0.620626
0.611154
0.634621
0.46829
0.558255
0.626086
0.559272
0.487258
0.633813
0.552888
0.54737
0.618916
0.619858
0.474715
0.463366
0.541512
0.625003
0.444027
0.623902
0.439028
0.628107
0.618946
0.513052
0.622021
0.440474
0.568837
0.516372
0.445028
0.624337
0.613963
0.603071
0.475755
0.498064
0.487897
0.432977
0.623085
0.428558
0.625761
0.612917
0.34769
0.323542
0.520105
0.480267
0.630664
0.100458
0.600886
0.132643
0.575466
0.627943
0.602996
0.517851
0.541228
0.633033
0.619384
0.394664
0.411749
0.599259
0.441045
0.617462
0.491794
0.378141
0.611684
0.571734
0.639427
0.507708
0.526095
0.634199
0.565562
0.63948
0.399114
0.614339
0.333319
0.599894
0.425988
0.604862
0.493245
0.515282
0.630917
0.527903
0.583856
0.636608
0.497578
0.597583
0.625302
0.595445
0.576922
0.640349
0.612356
0.444642
0.576209
0.353594
0.4002
0.614209
0.496908
0.378285
0.615507
0.557779
0.61371
0.429467
0.478954
0.493876
0.41093
0.391782
0.616698
0.619952
0.601779
0.118504
0.159915
0.240011
0.604026
0.158293
0.48475
0.552638
0.622937
0.613979
0.358456
0.364432
0.535655
0.527498
0.438726
0.429108
0.625676
0.623046
0.603676
0.359367
0.269665
0.201867
0.602005
0.108421
0.593276
0.629378
0.630325
0.18962
0.150256
0.603239
0.591937
0.487217
0.626095
0.310476
0.348297
0.612039
0.124522
0.600372
0.0642218
0.61497
0.626603
0.54296
0.579424
0.622162
0.634282
0.28651
0.608862
0.24552
0.569713
0.615796
0.634249
0.601558
0.62955
0.630718
0.615065
0.420098
0.584739
0.564854
0.632421
0.630481
0.579967
0.60573
0.62486
0.570194
0.434642
0.612535
0.61321
0.613905
0.310733
0.310468
0.338509
0.330111
0.325729
0.388862
0.61229
0.620282
0.553055
0.406472
0.60606
0.619623
0.506041
0.417331
0.544284
0.609411
0.205272
0.599239
0.112024
0.610161
0.320747
0.413289
0.242624
0.606341
0.23511
0.600843
0.0982783
0.0553852
0.0557603
0.601406
0.0977296
0.518895
0.453663
0.621994
0.303367
0.6005
0.20236
0.433108
0.451853
0.624131
0.344046
0.60715
0.250688
0.572495
0.636829
0.581095
0.379135
0.606362
0.289828
0.425517
0.609795
0.552804
0.517737
0.424723
0.623137
0.602142
-0.0193902
-0.0184003
0.133067
0.600569
0.108271
0.584285
0.639766
0.582085
0.348828
0.267079
0.606409
0.603754
0.241457
0.345961
0.361186
0.614695
0.362813
0.615904
0.362545
0.429142
0.582931
0.421953
0.614766
0.409582
0.511724
0.625294
0.613861
0.40994
0.31003
0.578487
0.569184
0.504683
0.491204
0.632391
0.634815
0.586726
0.505299
0.631033
0.548619
0.424861
0.627509
0.506699
0.399776
0.616983
0.378675
0.321799
0.613369
0.616405
0.400219
0.481357
0.0597651
0.601518
0.124747
0.615942
0.608827
0.637038
0.545357
0.640359
0.555727
0.572629
0.569289
0.62388
0.445321
0.625914
0.468223
0.141561
0.598814
0.0686486
0.358802
0.286879
0.608434
0.600771
0.609169
0.475544
0.525448
0.39694
0.612331
0.616747
0.370285
0.444947
0.193303
0.168248
0.602895
0.222971
0.18085
0.603097
0.529468
0.445128
0.629527
0.631783
0.612473
0.525976
0.344071
0.612878
0.334337
0.511509
0.43484
0.625836
0.623334
0.407114
0.432116
0.577915
0.625435
0.468025
0.493874
0.580372
0.625668
0.613727
0.625796
0.516951
0.611774
0.328168
0.320677
0.470375
0.433794
0.625133
0.619046
0.631028
0.550744
0.385564
0.610472
0.286074
0.584109
0.536133
0.637476
0.560812
0.592394
0.638734
0.528161
0.439674
0.621617
0.279713
0.605511
0.192734
0.299652
0.605779
0.202472
0.622348
0.394683
0.43273
0.472107
0.587876
0.619454
0.603128
0.158056
0.248964
0.620646
0.430197
0.413091
0.599671
0.0752611
0.024873
0.07347
0.0241458
0.600651
0.616216
0.327919
0.413949
0.608347
0.287
0.266736
0.37037
0.387941
0.612846
0.327234
0.615757
0.355262
0.401936
0.443708
0.620358
0.618492
0.538887
0.391728
0.615625
0.635825
0.570359
0.41444
0.468378
0.621734
0.62174
0.421902
0.481169
0.428753
0.614184
0.317647
0.566188
0.429693
0.624794
0.580371
0.477073
0.62224
0.462013
0.507827
0.630461
0.451265
0.503027
0.627804
0.622583
0.623557
0.566876
0.567469
0.476095
0.63744
0.606224
0.391786
0.285687
0.165918
0.601951
0.234805
0.140533
0.600947
0.235875
0.600859
0.631674
0.515441
0.17314
0.60139
0.132278
0.454088
0.623324
0.40666
0.600003
0.180485
0.103483
0.602892
0.635161
0.601014
0.540864
0.532291
0.63569
0.591327
0.478939
0.620501
0.602287
0.319353
0.229216
0.509532
0.43733
0.623057
0.609686
0.367334
0.280211
0.520233
0.522766
0.637948
0.619923
0.638599
0.577169
0.315727
0.246965
0.605787
0.621813
0.41085
0.412801
0.269966
0.247345
0.605968
0.604886
0.21696
0.194652
0.515455
0.567655
0.635247
0.530202
0.468195
0.622323
0.56993
0.594074
0.644302
0.267692
0.193445
0.275555
0.603063
0.189163
0.601204
0.488046
0.484304
0.632785
0.244821
0.218955
0.298904
0.277079
0.606519
0.604323
0.469453
0.546763
0.633097
0.540774
0.554733
0.636368
0.323894
0.608211
0.239419
0.530083
0.550206
0.634057
0.564937
0.576568
0.637365
0.279907
0.605664
0.215791
0.526181
0.494229
0.631076
0.567572
0.408437
0.610396
0.58338
0.447941
0.621662
0.476087
0.607468
0.349903
0.601252
0.0105283
0.01118
0.518422
0.539766
0.634871
0.340647
0.609922
0.281045
0.607954
0.422612
0.594091
0.134147
0.600571
0.0718696
0.632477
0.624307
0.608765
0.540009
0.611112
0.526368
0.572496
0.597181
0.638467
0.618332
0.62938
0.620177
0.543384
0.628773
0.537734
0.531407
0.564497
0.641791
0.540435
0.56946
0.639833
0.599865
0.254547
0.153222
0.594645
0.517726
0.628249
0.270092
0.306637
0.60879
0.457532
0.440892
0.489099
0.468875
0.62638
0.622966
0.589246
0.539788
0.63293
0.548014
0.455001
0.624919
0.488376
0.5101
0.634044
0.620133
0.596603
0.630054
0.432863
0.477744
0.623631
0.612083
0.629949
0.571877
0.485152
0.538737
0.632608
0.54587
0.473414
0.625683
0.618982
0.621533
0.584059
0.63774
0.582046
0.633948
0.623494
0.617298
0.631894
0.568453
0.634908
0.547015
0.579514
0.572879
0.518743
0.518977
0.636387
0.632914
0.617647
0.372232
0.435721
0.609204
0.426041
0.575806
0.618599
0.619023
0.356939
0.369015
0.413638
0.409268
0.608545
0.608894
0.455326
0.620307
0.630813
0.610163
0.429096
0.461044
0.623142
0.610203
0.633564
0.534035
0.537763
0.468868
0.626487
0.470257
0.472549
0.389287
0.622388
0.403721
0.62306
0.468768
0.47608
0.627216
0.160086
0.102399
0.601498
0.602728
0.435099
0.597315
0.586512
0.590332
0.610832
0.432356
0.619692
0.444114
0.413204
0.495758
0.619194
0.555491
0.464131
0.627157
0.607278
0.607766
0.455275
0.588015
0.594106
0.614828
0.629697
0.476823
0.472871
0.585045
0.62206
0.454532
0.471626
0.489552
0.629891
0.618522
0.629634
0.574516
0.307596
0.608461
0.260987
0.603311
0.611242
0.442952
0.543507
0.527456
0.474096
0.465693
0.626661
0.631416
0.610103
0.282649
0.328575
0.325462
0.609236
0.252795
0.304392
0.607551
0.242411
0.454531
0.621845
0.395013
0.563171
0.480748
0.629247
0.375533
0.435138
0.564792
0.380474
0.52062
0.225797
0.47756
0.413151
0.348574
0.510526
0.50756
0.329714
0.376723
0.510596
0.413099
0.379982
0.387423
0.410292
0.430339
0.48087
0.434296
0.405554
0.520965
0.605869
0.573083
0.440847
0.53144
0.333135
0.451709
0.366182
0.341883
0.472029
0.435041
0.422366
0.356991
0.445527
0.556703
0.518911
0.39805
0.463963
0.39545
0.601652
0.37085
0.508915
0.544144
0.394904
0.401499
0.381254
0.332804
0.370929
0.576478
0.433675
0.38261
0.397544
0.341867
0.570905
0.483529
0.438676
0.381359
0.502916
0.368498
0.375348
0.573828
0.425566
0.438054
0.485538
0.446446
0.603253
0.520092
0.520372
0.317824
0.342737
0.402094
0.494118
0.333517
0.420198
0.439738
0.351584
0.496419
0.540684
0.410807
0.428821
0.336491
0.372145
0.388505
0.50405
0.388935
0.382887
0.411304
0.579858
0.380663
0.501905
0.572417
0.423858
0.378094
0.160049
0.363301
0.384185
0.377772
0.314076
0.471104
0.524592
0.553046
0.606686
0.374294
0.370857
0.331442
0.39075
0.365377
0.554946
0.528972
0.478369
0.357803
0.341054
0.470869
0.531078
0.405725
0.383442
0.311761
0.405176
0.420251
0.589129
0.599475
0.497064
0.4446
0.407979
0.333417
0.59174
0.340786
0.491411
0.313296
0.575138
0.339058
0.307881
0.362717
0.539343
0.412729
0.286348
0.370326
0.477618
0.374112
0.5059
0.47614
0.3855
0.542332
0.398549
0.365046
0.548102
0.37069
0.411397
0.330721
0.453207
0.396533
0.544757
0.501105
0.399256
0.494764
0.50725
0.562353
0.44134
0.400143
0.383126
0.513316
0.341637
0.46006
0.336079
0.599787
0.407237
0.549226
0.588007
0.439987
0.595447
0.548769
0.559957
0.354071
0.308029
0.331659
0.565175
0.353765
0.342389
0.332698
0.344602
0.409754
0.397749
0.445129
0.588553
0.49886
0.393832
0.502887
0.390196
0.599656
0.288761
0.536815
0.387417
0.304255
0.576198
0.589612
0.382563
0.384293
0.599219
0.453688
0.3897
0.364407
0.494852
0.553902
0.499078
0.370593
0.381726
0.521494
0.446401
0.365403
0.459644
0.326573
0.348189
0.407903
0.52914
0.315342
0.405253
0.525348
0.386277
0.311075
0.403261
0.385664
0.401581
0.465427
0.472234
0.370637
0.339343
0.354527
0.48322
0.491961
0.389942
0.472514
0.400635
0.355257
0.454767
0.395655
0.296776
0.496597
0.546815
0.442506
0.581925
0.556876
0.600695
0.379358
0.284508
0.413206
0.399768
0.399966
0.321849
0.459951
0.571982
0.494754
0.451207
0.365666
0.397462
0.509368
0.43366
0.487164
0.372003
0.4189
0.392107
0.316632
0.370683
0.386027
0.379189
0.358012
0.474472
0.444465
0.39967
0.480569
0.388061
0.407883
0.371754
0.402555
0.376509
0.388996
0.449488
0.318314
0.273909
0.423472
0.325911
0.305735
0.449689
0.297246
0.309458
0.545163
0.476016
0.370966
0.501537
0.346488
0.470871
0.459437
0.326429
0.383648
0.529506
0.413899
0.509199
0.220864
0.361402
0.548167
0.389254
0.363217
0.26155
0.316289
0.302213
0.320689
0.394534
0.480935
0.353431
0.304478
0.361964
0.387997
0.600121
0.364066
0.494176
0.463984
0.305739
0.415538
0.368225
0.337336
0.466697
0.402721
0.572204
0.491745
0.367384
0.396838
0.435807
0.606846
0.506978
0.557514
0.500738
0.398103
0.443434
0.407593
0.357171
0.320795
0.383721
0.394571
0.488481
0.376662
0.327201
0.383286
0.40527
0.379363
0.387718
0.533521
0.398056
0.390166
0.56972
0.542061
0.371153
0.446833
0.555169
0.34744
0.290593
0.399782
0.354162
0.338157
0.552312
0.366346
0.415064
0.563463
0.309198
0.447511
0.379407
0.441838
0.400555
0.379814
0.168734
0.412526
0.330194
0.362044
0.396912
0.393792
0.504261
0.572398
0.376911
0.447741
0.407033
0.352779
0.293258
0.528419
0.474389
0.365833
0.32853
0.459506
0.32809
0.380253
0.371072
0.364369
0.518407
0.571089
0.394363
0.501499
0.606092
0.532652
0.537132
0.562222
0.390584
0.389668
0.339989
0.602954
0.529467
0.548491
0.377928
0.387512
0.309291
0.509452
0.404451
0.359242
0.550088
0.483182
0.347189
0.410169
0.376578
0.382215
0.377165
0.396202
0.40171
0.35092
0.396989
0.320263
0.415448
0.352075
0.483179
0.424411
0.31583
0.555696
0.566395
0.499123
0.392254
0.451146
0.291568
0.507785
0.432849
0.3233
0.553058
0.256304
0.573889
0.329414
0.410101
0.426111
0.496388
0.519887
0.37893
0.58594
0.380229
0.535641
0.411409
0.480546
0.391464
0.369407
0.382419
0.54066
0.424399
0.600892
0.484913
0.318472
0.368688
0.47277
0.273623
0.393351
0.412608
0.353041
0.578606
0.341525
0.328853
0.516893
0.382453
0.572067
0.59567
0.389471
0.603713
0.584952
0.53616
0.551131
0.456716
0.331699
0.368332
0.40299
0.526571
0.406349
0.256804
0.584687
0.352884
0.398771
0.363841
0.560234
0.5994
0.363946
0.532815
0.465694
0.572361
0.413411
0.505147
0.387468
0.588206
0.599179
0.489412
0.368588
0.522769
0.397769
0.44019
0.434036
0.418929
0.465463
0.38199
0.264069
0.34039
0.424718
0.476103
0.450138
0.549279
0.360518
0.400428
0.481275
0.344216
0.564822
0.369415
0.386926
0.564784
0.541497
0.456887
0.590259
0.369865
0.388179
0.508793
0.438062
0.422315
0.407794
0.383428
0.472602
0.490779
0.38373
0.375973
0.453505
0.317811
0.348986
0.574522
0.604196
0.601905
0.411187
0.61083
0.599476
0.581844
0.294027
0.466128
0.463293
0.589403
0.39655
0.375316
0.334177
0.367442
0.241368
0.586464
0.410905
0.417462
0.507911
0.488654
0.392458
0.387851
0.59884
0.589511
0.555786
0.492456
0.372334
0.500892
0.478273
0.393559
0.425681
0.342542
0.366146
0.444186
0.422795
0.391602
0.575449
0.572819
0.295336
0.538747
0.382415
0.371984
0.406534
0.571981
0.408741
0.492104
0.41087
0.557473
0.395684
0.413881
0.600593
0.313266
0.31468
0.372009
0.355609
0.278629
0.140999
0.364045
0.287132
0.428165
0.296684
0.350502
0.421978
0.359428
0.363897
0.396398
0.338482
0.160836
0.585915
0.540078
0.396338
0.32862
0.544352
0.376418
0.375177
0.59654
0.370389
0.597362
0.412809
0.544694
0.409549
0.311334
0.345112
0.448847
0.449217
0.42861
0.312673
0.399829
0.353583
0.358306
0.383008
0.316418
0.340004
0.583049
0.364282
0.489545
0.513896
0.397666
0.516839
0.515808
0.333342
0.145738
0.411891
0.322375
0.282091
0.496216
0.499493
0.39593
0.474335
0.392769
0.600717
0.582935
0.404749
0.387504
0.588247
0.550461
0.467545
0.469129
0.392841
0.603334
0.443826
0.294764
0.560926
0.532332
0.574003
0.44848
0.370207
0.403507
0.501042
0.468787
0.0929613
0.601241
0.411
0.369338
0.432028
0.55317
0.60297
0.596088
0.47455
0.431361
0.520508
0.552443
0.566943
0.492827
0.528557
0.323293
0.377584
0.461057
0.340305
0.322387
0.314052
0.409658
0.515858
0.322238
0.440288
0.378135
0.529344
0.59599
0.408209
0.330966
0.305473
0.500091
0.38457
0.364836
0.315619
0.571205
0.451817
0.457185
0.321856
0.461686
0.368059
0.377511
0.505383
0.512418
0.57439
0.599442
0.364372
0.556439
0.297756
0.563299
0.570592
0.573012
0.521639
0.352368
0.352413
0.39599
0.292232
0.440226
0.312931
0.466446
0.326401
0.548753
0.396558
0.301339
0.541687
0.513872
0.41762
0.422425
0.487767
0.571446
0.452424
0.431871
0.300264
0.532482
0.437491
0.589622
0.283625
0.422842
0.561874
0.500566
0.59126
0.506012
0.400941
0.265747
0.300364
0.420353
0.32511
0.584757
0.291336
0.386321
0.418229
0.369086
0.525668
0.28758
0.566682
0.501014
0.460135
0.268999
0.483743
0.363112
0.400913
0.414434
0.419377
0.385537
0.371159
0.518291
0.352521
0.609402
0.385101
0.416619
0.482626
0.507624
0.586913
0.385028
0.391791
0.363262
0.429712
0.376769
0.578158
0.365465
0.436752
0.392325
0.535121
0.356325
0.446339
0.338084
0.597042
0.291509
0.350477
0.374473
0.541393
0.304575
0.321177
0.348736
0.329526
0.572586
0.433005
0.495742
0.544831
0.485452
0.425603
0.596782
0.432907
0.512979
0.478885
0.448473
0.313593
0.455516
0.408938
0.388468
0.457269
0.344555
0.31828
0.435272
0.38901
0.355638
0.52967
0.430428
0.488421
0.408324
0.583924
0.418377
0.414075
0.480521
0.324688
0.360712
0.391681
0.448333
0.455308
0.468374
0.568748
0.505647
0.52406
0.442831
0.556869
0.588076
0.582099
0.437638
0.440224
0.464948
0.332956
0.597207
0.549552
0.535476
0.423005
0.348954
0.312463
0.464709
0.500761
0.368354
0.535062
0.550703
0.469487
0.380823
0.445363
0.391358
0.365281
0.423007
0.380458
0.456679
0.314278
0.460519
0.425235
0.405604
0.288774
0.455888
0.437756
0.490202
0.394628
0.451528
0.567156
0.578549
0.455043
0.414298
0.524856
0.437652
0.362492
0.364696
0.408331
0.326317
0.568176
0.429011
0.4446
0.501889
0.494343
0.480258
0.340744
0.606819
0.485102
0.371247
0.429817
0.42972
0.52447
0.563343
0.486596
0.465343
0.30355
0.354774
0.403638
0.466743
0.437268
0.454168
0.379937
0.575199
0.472935
0.522363
0.55326
0.449522
0.373895
0.447279
0.595036
0.360704
0.299706
0.446605
0.601298
0.386919
0.406455
0.518716
0.501229
0.539021
0.423501
0.306251
0.464558
0.333882
0.390545
0.537671
0.41412
0.337096
0.366042
0.385952
0.473255
0.39777
0.386543
0.559768
0.373575
0.597321
0.536504
0.328266
0.277079
0.43247
0.509837
0.550904
0.418801
0.403622
0.361465
0.397607
0.421531
0.599529
0.563208
0.506125
0.400218
0.31079
0.572371
0.605944
0.574893
0.525795
0.562436
0.444583
0.342112
0.288661
0.299813
0.586663
0.434573
0.337486
0.406584
0.605382
0.392724
0.380079
0.323298
0.420934
0.36261
0.605911
0.464019
0.508039
0.559105
0.549433
0.394001
0.476563
0.441279
0.500768
0.352806
0.472303
0.38026
0.57773
0.317046
0.388991
0.326371
0.403646
0.565938
0.400241
0.53559
0.554994
0.561839
0.342327
0.438583
0.404107
0.371548
0.57278
0.448695
0.452914
0.461059
0.235551
0.408304
0.578233
0.480514
0.576197
0.293997
0.352785
0.392181
0.581781
0.353696
0.424528
0.355576
0.338248
0.401169
0.584107
0.412474
0.406502
0.323213
0.603742
0.593444
0.23804
0.575035
0.396756
0.343783
0.353387
0.431596
0.329656
0.479607
0.402729
0.389582
0.406599
0.555965
0.4225
0.535512
0.413306
0.343793
0.407629
0.293192
0.312304
0.413565
0.387992
0.459487
0.354258
0.419755
0.554168
0.47296
0.39012
0.306759
0.563688
0.417321
0.424766
0.612159
0.456818
0.387559
0.369509
0.333308
0.586401
0.39359
0.421338
0.471799
0.328846
0.5671
0.319462
0.55745
0.43696
0.513904
0.358254
0.529169
0.414844
0.332026
0.361075
0.437214
0.566238
0.273444
0.37705
0.374577
0.586943
0.60821
0.356148
0.382941
0.476869
0.589504
0.41861
0.571369
0.548494
0.533972
0.516296
0.450355
0.492184
0.478824
0.574621
0.425642
0.44662
0.358147
0.382908
0.425988
0.356682
0.58723
0.332592
0.570801
0.423078
0.582
0.383783
0.591294
0.511179
0.554363
0.583432
0.567035
0.611481
0.400483
0.555002
0.435382
0.393753
0.380622
0.353535
0.576214
0.333938
0.460451
0.472851
0.409381
0.474457
0.376751
0.577817
0.431753
0.524353
0.290437
0.368819
0.399133
0.606241
0.361382
0.485078
0.388025
0.40023
0.337099
0.410785
0.396827
0.528674
0.579043
0.321131
0.455576
0.39437
0.38759
0.540726
0.364196
0.381165
0.591644
0.299889
0.453911
0.501495
0.564812
0.595587
0.385792
0.37603
0.332158
0.399037
0.371729
0.39363
0.519732
0.391685
0.340523
0.40683
0.439458
0.39458
0.376941
0.37447
0.437279
0.32947
0.521727
0.512699
0.388624
0.523553
0.315487
0.323497
0.355198
0.310715
0.590463
0.399465
0.392876
0.379484
0.550948
0.573442
0.445609
0.520749
0.377269
0.371207
0.442997
0.395194
0.375115
0.574637
0.463388
0.490347
0.595541
0.529029
0.430581
0.583632
0.316715
0.448199
0.44407
0.469731
0.39575
0.584553
0.388748
0.46401
0.427609
0.394058
0.358823
0.379896
0.511147
0.542478
0.557257
0.445501
0.454989
0.585569
0.532809
0.412957
0.45792
0.342186
0.396108
0.533526
0.321844
0.552835
0.388855
0.560959
0.610509
0.57725
0.379985
0.5554
0.550292
0.29212
0.58597
0.365798
0.5807
0.529826
0.392643
0.355942
0.46497
0.400621
0.383935
0.373329
0.533606
0.390347
0.587819
0.348497
0.387818
0.368706
0.347125
0.392759
0.543381
0.601654
0.345091
0.523555
0.436783
0.464226
0.418509
0.475695
0.569283
0.532903
0.388626
0.563407
0.539228
0.596625
0.348787
0.362192
0.377849
0.519587
0.593552
0.545009
0.421739
0.59147
0.433764
0.31925
0.354154
0.273928
0.429694
0.334453
0.598281
0.597654
0.453214
0.61376
0.534628
0.439482
0.588571
0.337986
0.583156
0.394006
0.573842
0.402596
0.352978
0.516685
0.453004
0.580846
0.569651
0.572662
0.362212
0.359263
0.305143
0.55649
0.531802
0.357374
0.443253
0.533513
0.299178
0.381595
0.361831
0.384454
0.465304
0.382916
0.443985
0.511785
0.440449
0.45207
0.513396
0.397232
0.408762
0.463574
0.442478
0.399351
0.556258
0.582072
0.356695
0.529293
0.295564
0.378308
0.561963
0.523694
0.377074
0.576311
0.33917
0.512454
0.41616
0.416293
0.561021
0.404511
0.521402
0.520126
0.495014
0.603523
0.498304
0.331336
0.478185
0.423864
0.521363
0.598461
0.493697
0.434327
0.375153
0.417346
0.562337
0.349323
0.548819
0.366351
0.468675
0.529153
0.514308
0.430169
0.560955
0.591149
0.406206
0.39826
0.449767
0.361344
0.337482
0.446284
0.519392
0.367334
0.327776
0.360161
0.323655
0.508598
0.432017
0.52407
0.385786
0.57502
0.44248
0.550361
0.600936
0.371832
0.567655
0.405955
0.449999
0.444298
0.558953
0.378027
0.414637
0.447911
0.354064
0.400493
0.354624
0.334165
0.295379
0.593042
0.604317
0.367266
0.382994
0.517871
0.314149
0.360472
0.393896
0.501309
0.51205
0.310836
0.294774
0.569635
0.383215
0.470383
0.382131
0.326553
0.353688
0.45491
0.550156
0.47146
0.321271
0.576647
0.548717
0.366677
0.466055
0.390002
0.600062
0.400224
0.421085
0.337411
0.48771
0.583375
0.472221
0.447046
0.37541
0.431367
0.475458
0.589481
0.614187
0.377884
0.592641
0.381036
0.452893
0.455632
0.413012
0.39206
0.558326
0.394545
0.458561
0.362274
0.35045
0.407854
0.356097
0.498463
0.57487
0.36387
0.381716
0.450982
0.393796
0.363894
0.28765
0.398208
0.559602
0.279509
0.369025
0.515013
0.448684
0.424344
0.48508
0.544974
0.339287
0.342497
0.543737
0.416424
0.349873
0.438013
0.55766
0.486951
0.452584
0.37795
0.379249
0.37375
0.590386
0.544447
0.600576
0.42081
0.497275
0.34575
0.436999
0.551307
0.318881
0.327011
0.512719
0.546817
0.318888
0.389316
0.374721
0.337062
0.375156
0.613176
0.422561
0.386405
0.445008
0.375256
0.516491
0.458436
0.342806
0.39088
0.530399
0.430347
0.592618
0.333124
0.382866
0.489278
0.474849
0.411002
0.469698
0.35485
0.595384
0.577468
0.491234
0.561707
0.366405
0.556399
0.481533
0.486623
0.583731
0.31418
0.393395
0.596939
0.483639
0.309913
0.367159
0.545384
0.595539
0.433682
0.518921
0.375558
0.333357
0.363813
0.301141
0.550599
0.377279
0.435315
0.58774
0.371809
0.343382
0.37532
0.453097
0.385212
0.379066
0.377364
0.346292
0.429897
0.53103
0.58262
0.509696
0.396737
0.39255
0.30382
0.385914
0.479115
0.459454
0.499803
0.516508
0.392819
0.420937
0.541815
0.549254
0.597793
0.562664
0.58607
0.431567
0.337273
0.364096
0.346992
0.589807
0.45039
0.380231
0.582706
0.343367
0.535521
0.512511
0.392654
0.381581
0.394487
0.379662
0.547494
0.398218
0.501534
0.431204
0.58099
0.463076
0.6009
0.363411
0.430567
0.365716
0.290388
0.398811
0.527055
0.342164
0.222649
0.451099
0.57992
0.522276
0.377099
0.334467
0.367133
0.344505
0.38367
0.349259
0.411908
0.35054
0.514079
0.366637
0.385278
0.5675
0.435568
0.480737
0.540565
0.40055
0.433315
0.35785
0.530535
0.388875
0.39594
0.424321
0.357192
0.330605
0.382412
0.357311
0.521662
0.60096
0.5547
0.457048
0.506642
0.322722
0.592594
0.468916
0.520275
0.377326
0.51118
0.371489
0.400913
0.534185
0.582904
0.525298
0.456751
0.401464
0.602622
0.407526
0.540175
0.588345
0.494461
0.413105
0.318905
0.539138
0.463747
0.350419
0.484912
0.459558
0.579176
0.374442
0.58879
0.598848
0.411114
0.365203
0.587255
0.33727
0.352948
0.401485
0.34977
0.399855
0.358985
0.33513
0.429439
0.38587
0.365232
0.388359
0.458965
0.36028
0.370752
0.479544
0.436031
0.334913
0.574114
0.605525
0.594082
0.381746
0.325796
0.600975
0.330292
0.426525
0.365902
0.390673
0.374409
0.512332
0.394245
0.386991
0.324874
0.317913
0.351498
0.396815
0.320262
0.427548
0.449726
0.418343
0.580753
0.454485
0.496078
0.41497
0.545558
0.377907
0.396132
0.616713
0.402509
0.457954
0.334991
0.495686
0.605035
0.390139
0.479435
0.461056
0.360396
0.375545
0.369294
0.350862
0.516018
0.355114
0.418183
0.38732
0.411358
0.369233
0.37051
0.426064
0.392148
0.387851
0.603912
0.425523
0.415214
0.451599
0.581844
0.399345
0.31977
0.534103
0.337547
0.407743
0.377577
0.434018
0.374834
0.391675
0.432795
0.597295
0.552215
0.322122
0.386787
0.319926
0.370708
0.307184
0.354434
0.402343
0.362574
0.4034
0.480576
0.612377
0.396116
0.509221
0.44451
0.590203
0.391876
0.604898
0.472526
0.345532
0.480512
0.516514
0.387629
0.552938
0.378191
0.5584
0.379543
0.230667
0.422787
0.6103
0.601293
0.514577
0.486401
0.506839
0.327408
0.371123
0.508164
0.599929
0.249825
0.435658
0.377553
0.378388
0.416711
0.366327
0.342914
0.378273
0.354478
0.386839
0.388601
0.419784
0.601899
0.548208
0.308446
0.530914
0.36187
0.368507
0.537115
0.380584
0.406534
0.498706
0.26896
0.366555
0.432686
0.554603
0.347376
0.373287
0.403887
0.476904
0.345885
0.580521
0.320919
0.394523
0.402814
0.375269
0.488373
0.479674
0.58332
0.375145
0.525132
0.447879
0.47442
0.378725
0.488721
0.359823
0.337735
0.298012
0.467934
0.417679
0.402857
0.567696
0.43409
0.451984
0.487868
0.369543
0.354896
0.396687
0.470247
0.386017
0.610759
0.33733
0.320563
0.399023
0.387614
0.384534
0.36888
0.512235
0.399242
0.424689
0.349013
0.380477
0.419012
0.329197
0.607312
0.595751
0.352787
0.368011
0.55018
0.447035
0.373826
0.333403
0.367619
0.351764
0.447274
0.571437
0.375316
0.328934
0.479443
0.427912
0.321651
0.34939
0.428031
0.503951
0.612857
0.343073
0.315269
0.459675
0.550265
0.398415
0.457686
0.399201
0.379018
0.397267
0.475902
0.413108
0.380628
0.529485
0.401607
0.29613
0.444666
0.385139
0.535157
0.602134
0.388427
0.39222
0.390789
0.393858
0.343908
0.396176
0.353413
0.583376
0.540591
0.501917
0.401849
0.329947
0.526505
0.592902
0.370502
0.441295
0.379709
0.296276
0.42973
0.389672
0.291462
0.350687
0.483127
0.344892
0.322308
0.350633
0.536386
0.338352
0.533962
0.425082
0.376864
0.387224
0.364657
0.535003
0.305092
0.398674
0.407565
0.337877
0.457455
0.508638
0.45919
0.418837
0.518547
0.348743
0.351427
0.570675
0.376701
0.566894
0.461608
0.394854
0.462896
0.554959
0.427874
0.318359
0.579689
0.371556
0.403406
0.556413
0.367475
0.589108
0.374962
0.403731
0.2868
0.40762
0.352492
0.43256
0.351247
0.298913
0.347391
0.345256
0.30032
0.571905
0.345827
0.402737
0.461251
0.432681
0.594221
0.597509
0.374909
0.428567
0.53896
0.365804
0.572256
0.309015
0.390713
0.448398
0.371576
0.541678
0.382549
0.389644
0.394216
0.375431
0.36944
0.297751
0.557896
0.167709
0.588408
0.50599
0.351389
0.321567
0.354723
0.6143
0.511826
0.483789
0.423986
0.459755
0.407038
0.556243
0.526686
0.366261
0.47713
0.592137
0.410888
0.438607
0.486293
0.315033
0.350049
0.539467
0.399019
0.421977
0.589714
0.342168
0.310807
0.380314
0.420757
0.40757
0.603144
0.372842
0.331317
0.369287
0.419611
0.374391
0.564419
0.426717
0.359752
0.3765
0.370227
0.369101
0.393309
0.476026
0.439318
0.361295
0.564581
0.389656
0.541789
0.361857
0.34324
0.407356
0.560463
0.59415
0.533844
0.422175
0.412783
0.533368
0.598538
0.339656
0.573632
0.350641
0.493358
0.473042
0.56287
0.422986
0.553195
0.580484
0.385077
0.381175
0.403742
0.438891
0.353897
0.333213
0.33206
0.510778
0.542783
0.336824
0.579172
0.426386
0.520675
0.420129
0.354652
0.539865
0.52694
0.385961
0.390042
0.351884
0.596957
0.511105
0.600657
0.334098
0.352901
0.40881
0.546562
0.481931
0.56676
0.454932
0.600187
0.377171
0.413792
0.438377
0.384251
0.460857
0.307268
0.533454
0.42734
0.446903
0.574657
0.328302
0.338829
0.309858
0.470004
0.559994
0.392856
0.489405
0.315075
0.329409
0.423903
0.384767
0.375935
0.563711
0.440307
0.366829
0.410454
0.469412
0.585296
0.472153
0.397179
0.557613
0.442451
0.587045
0.429426
0.499495
0.395632
0.334007
0.609513
0.358184
0.459888
0.454026
0.570593
0.495212
0.416714
0.379887
0.601565
0.414005
0.360968
0.515374
0.593529
0.509792
0.482151
0.329736
0.294275
0.437406
0.364079
0.400538
0.437548
0.360823
0.583516
0.595981
0.576609
0.387182
0.394612
0.375899
0.396642
0.499327
0.340595
0.497068
0.582315
0.344043
0.387415
0.376888
0.546507
0.483914
0.393647
0.365045
0.50618
0.371051
0.30257
0.345325
0.609852
0.302707
0.530793
0.481188
0.375334
0.58849
0.446147
0.614026
0.260869
0.390495
0.450662
0.577572
0.398655
0.572729
0.44655
0.301751
0.413272
0.380227
0.400323
0.295735
0.532343
0.387752
0.365405
0.315478
0.417792
0.565049
0.266503
0.390477
0.55831
0.413729
0.554529
0.305581
0.369936
0.375556
0.403747
0.360007
0.331125
0.369801
0.271971
0.39543
0.393685
0.522601
0.456253
0.560421
0.366571
0.397457
0.332655
0.444979
0.275252
0.401329
0.602386
0.424018
0.390959
0.615061
0.36178
0.453187
0.481035
0.331179
0.384313
0.425311
0.466257
0.58339
0.59264
0.593848
0.471604
0.419232
0.393365
0.353813
0.55184
0.498555
0.377696
0.38707
0.391509
0.421066
0.613905
0.406916
0.611804
0.372037
0.488028
0.355017
0.373232
0.331051
0.384226
0.567851
0.393814
0.338663
0.354818
0.607486
0.388186
0.360381
0.356924
0.371399
0.508855
0.452096
0.460351
0.414942