/*--------------------------------*- C++ -*----------------------------------*\
  =========                 |
  \\      /  F ield         | OpenFOAM: The Open Source CFD Toolbox
   \\    /   O peration     | Website:  https://openfoam.org
    \\  /    A nd           | Version:  6
     \\/     M anipulation  |
\*---------------------------------------------------------------------------*/
FoamFile
{
    version     2.0;
    format      ascii;
    class       volVectorField;
    location    "0";
    object      U;
}
// * * * * * * * * * * * * * * * * * * * * * * * * * * * * * * * * * * * * * //

dimensions      [0 1 -1 0 0 0 0];

internalField   nonuniform List<vector> 
13046
(
(-0.626881 0.290677 0)
(-0.694745 -0.198072 -6.96329e-21)
(-0.159809 -0.0979454 -1.45838e-20)
(-0.566359 0.170179 0)
(-0.149988 -0.0055932 -1.34155e-20)
(-0.565087 -0.207429 0)
(-0.641082 0.205922 2.04888e-21)
(-0.641839 -0.260284 3.51608e-21)
(-0.118761 0.00720419 -1.45872e-20)
(-1.51893 0.712749 4.08243e-21)
(-1.57465 -0.684894 0)
(0.0831266 -0.0122849 8.83461e-21)
(-0.834125 0.364695 -6.45019e-21)
(-0.86338 -0.309883 -1.05503e-20)
(-0.066034 -0.0604065 7.74525e-21)
(-1.44634 0.797936 -5.98261e-21)
(0.0456461 -0.0248171 2.12724e-20)
(-1.61309 -0.562457 3.49513e-21)
(-0.283216 0.100219 0)
(-0.386408 -0.171156 -7.42491e-21)
(-0.508663 0.0299858 2.16208e-20)
(-1.4633 0.787338 -2.29678e-21)
(0.0586828 -0.0190915 -2.83953e-20)
(-1.60574 -0.588603 0)
(-0.504022 0.182028 8.54034e-21)
(-0.556215 -0.149419 -1.71658e-20)
(-0.184964 -0.0673452 0)
(-0.852198 0.407643 -1.15142e-20)
(-0.903192 -0.30811 3.10914e-21)
(-0.0714325 -0.0787329 -1.35939e-20)
(-0.648142 0.3197 0)
(-0.730444 -0.180537 0)
(-0.175148 -0.12252 1.48439e-20)
(-0.436659 0.136527 -9.91959e-21)
(-0.216771 -0.0654842 5.07615e-21)
(-0.49276 -0.108714 2.99104e-20)
(-0.420083 0.105479 -1.53494e-20)
(-0.22733 -0.037401 7.77309e-21)
(-0.452973 -0.104351 -1.53317e-20)
(-0.515034 0.30779 1.04724e-20)
(-0.401057 -0.280283 2.67107e-21)
(-0.738184 -0.0534857 -1.05119e-20)
(-0.374284 0.0143688 6.95692e-21)
(-0.293813 0.00237482 1.17528e-20)
(-0.347909 -0.0607856 0)
(-0.414874 0.0268399 4.44641e-21)
(-0.268402 0.030295 -1.80856e-20)
(-0.359724 -0.0968819 -2.25891e-21)
(-0.658132 0.284704 0)
(-0.709427 -0.228442 -4.95801e-22)
(-0.120208 -0.0730202 -7.536e-23)
(-0.678215 -0.475772 1.65111e-20)
(-0.438852 0.317279 0)
(-0.897094 0.0596633 -1.23762e-20)
(-0.773967 -0.535119 -2.3544e-20)
(-0.952343 0.0994488 -1.9591e-20)
(-0.383693 0.285153 1.56921e-20)
(-1.35605 -0.325146 -2.09631e-21)
(-1.18247 0.757407 0)
(-0.162473 -0.170956 1.19323e-20)
(-1.11909 0.396444 -6.04023e-21)
(-1.09542 -0.545593 5.93243e-21)
(-0.00919038 0.0349571 -3.20697e-20)
(0.0755976 -0.019472 1.63797e-20)
(-1.48314 -0.628509 -3.07443e-21)
(-1.44167 0.66366 -8.13226e-21)
(-1.11516 0.742202 0)
(-1.28613 -0.265644 0)
(-0.227362 -0.222647 0)
(-1.05617 0.702425 -4.32072e-21)
(-1.2266 -0.243054 0)
(-0.248569 -0.236282 9.56638e-21)
(-1.42053 -0.341531 0)
(-1.23638 0.790969 1.6524e-22)
(-0.143231 -0.162896 -6.62532e-23)
(-0.316328 0.13103 0)
(-0.38013 -0.191191 7.9908e-21)
(-0.545488 0.00397249 -1.53849e-20)
(-0.0663387 -0.104318 1.30538e-20)
(-1.31328 0.811038 -1.20891e-20)
(-1.49847 -0.415045 0)
(-0.551302 0.19946 4.49175e-21)
(-0.584805 -0.179622 0)
(-0.154986 -0.0439876 0)
(0.07915 -0.017993 -1.46397e-20)
(-1.52176 -0.64165 -2.1444e-21)
(-1.47627 0.68899 4.7689e-21)
(-1.49159 0.547555 -8.58887e-21)
(0.059021 0.00610892 0)
(-1.42408 -0.739677 -2.44916e-21)
(-0.0187501 0.0407679 0)
(-1.57856 0.441974 0)
(-1.39317 -0.864994 2.97456e-22)
(-1.16411 0.5526 0)
(-1.22939 0.56719 5.12605e-21)
(-1.21779 -0.471328 1.1244e-20)
(-1.27329 -0.518938 -5.24736e-21)
(0.0150771 -0.0474903 -6.84437e-21)
(0.0368009 -0.0316898 1.76503e-20)
(0.0406566 0.0161121 -8.24631e-22)
(-1.47945 0.51621 8.40576e-21)
(-1.39402 -0.75906 0)
(-0.452257 0.0629972 -3.43113e-23)
(-0.235115 0.0277571 9.35841e-21)
(-0.407393 -0.134814 0)
(-0.265997 0.199818 0)
(-0.860776 0.141502 -6.17253e-21)
(-0.741232 -0.457241 0)
(-0.425006 0.290363 1.78999e-20)
(-0.585404 -0.393843 0)
(-0.805692 0.0296491 -2.37766e-20)
(-1.43371 0.692197 0)
(0.0658378 -0.0119012 0)
(-1.4734 -0.684109 -6.88076e-22)
(-0.753672 0.324265 1.78164e-20)
(-0.796321 -0.274182 4.57022e-21)
(-0.0834564 -0.0546753 1.42658e-20)
(-1.24452 0.648728 6.57791e-21)
(-1.17667 0.599392 -1.24989e-20)
(-1.33181 -0.469065 -9.43304e-21)
(0.00343224 -0.0644916 7.8848e-21)
(-1.25105 -0.444304 5.50651e-21)
(-0.00345128 -0.06574 -7.36509e-21)
(-1.50555 0.726537 -2.64016e-21)
(-1.57608 -0.679242 -2.56575e-21)
(0.0797094 -0.00993148 -3.94741e-21)
(-1.02193 0.494379 0)
(-1.07268 -0.392041 -7.81081e-21)
(-0.026269 -0.0709552 1.64172e-20)
(-0.577685 0.337844 0)
(-0.34048 -0.247552 -1.34622e-20)
(-0.757003 -0.0939799 5.83142e-22)
(-0.0367071 0.056828 0)
(-1.52827 0.418047 0)
(-1.3618 -0.841843 0)
(-1.34573 0.578489 0)
(-1.36005 -0.609287 -1.36559e-20)
(0.0616343 -0.0112441 -1.87228e-20)
(-0.720384 0.356156 0)
(-0.794366 -0.214903 0)
(-0.15489 -0.128723 0)
(-0.840805 0.254419 0)
(-0.81293 -0.405557 0)
(-0.0957998 0.0599017 0)
(-0.394522 0.279185 0)
(-0.653377 -0.436395 0)
(-0.842274 0.0621211 1.28159e-20)
(-0.261139 0.184175 -1.84595e-21)
(-0.823292 0.135605 -1.34688e-20)
(-0.71582 -0.430216 1.48859e-20)
(-1.1765 0.429332 1.35683e-20)
(-1.15065 -0.565493 0)
(0.0126979 0.0196744 4.1635e-20)
(-0.198524 0.114642 0)
(-0.710461 0.141989 1.46497e-20)
(-0.631014 -0.337579 -3.82407e-21)
(-0.937806 -0.612517 0)
(-1.06121 0.197997 1.38511e-20)
(-1.01814 -0.645379 0)
(-1.12774 0.248175 7.92625e-21)
(-0.252902 0.207941 0)
(-0.191056 0.167513 0)
(-0.869354 0.210059 1.86162e-21)
(-0.800907 -0.446687 7.81332e-21)
(-0.149632 0.10816 -8.02995e-21)
(-1.54706 0.689196 -4.18207e-21)
(0.0854932 -0.0144124 0)
(-1.54468 -0.715256 -4.26748e-21)
(-1.46543 0.708395 -1.99969e-21)
(0.0715356 -0.00853264 -1.80771e-21)
(-1.52788 -0.680463 0)
(-1.36974 0.610555 -7.12214e-21)
(-1.39395 -0.607633 0)
(0.0661924 -0.0172528 2.12802e-20)
(-0.702369 0.445852 0)
(-0.88945 -0.115159 3.24598e-21)
(-0.370992 -0.294005 7.75705e-21)
(-0.820609 0.18174 1.22197e-20)
(-0.183966 0.133697 3.8868e-21)
(-0.745493 -0.413913 0)
(0.0814249 -0.0135771 0)
(-1.51608 -0.760959 0)
(-1.57451 0.631237 3.33716e-21)
(-0.638314 0.403119 0)
(-0.836127 -0.089504 -7.15786e-21)
(-0.387146 -0.286937 2.02653e-21)
(-0.204647 0.1326 0)
(-0.736019 0.139976 0)
(-0.648267 -0.359779 0)
(-0.778858 0.219373 6.06623e-21)
(-0.751268 -0.371089 0)
(-0.108001 0.0561281 0)
(-0.944918 -0.377021 -3.04496e-23)
(-0.0302179 -0.0349832 -9.63924e-21)
(-0.965433 0.453491 1.82279e-20)
(-1.01553 -0.368408 0)
(-0.0350036 -0.0644321 -2.05735e-20)
(-1.50958 0.622904 -8.44912e-21)
(0.0799974 -0.00864238 1.32298e-20)
(-1.49059 -0.710846 -1.08183e-20)
(-0.00735554 0.0452155 1.2023e-20)
(-1.4762 0.447525 5.46852e-21)
(-1.35327 -0.79538 1.2398e-20)
(-1.56334 0.501376 -1.36903e-20)
(-1.43026 -0.810994 0)
(0.0304897 0.0168017 -1.18042e-20)
(-0.725631 -0.536913 -8.36309e-22)
(-0.984036 0.0478331 5.4547e-21)
(-0.5201 0.397133 0)
(-0.782756 0.282535 -2.7214e-20)
(-1.29357 0.825312 6.36754e-21)
(-0.0953133 -0.121781 -8.05116e-21)
(-1.49905 -0.400582 0)
(-1.45364 -0.817509 0)
(-1.58696 0.539147 -1.11404e-20)
(0.0460738 0.00310848 0)
(-0.46043 0.103663 -2.23998e-20)
(-0.206196 -0.00237983 -7.63333e-21)
(-0.455701 -0.141494 2.24885e-20)
(-0.817972 0.413434 0)
(-0.885474 -0.276904 -4.50811e-22)
(-0.109159 -0.103018 -7.92446e-21)
(-0.0304192 0.0575313 9.22268e-21)
(-1.48475 0.427838 0)
(-1.34226 -0.817376 -1.4296e-20)
(-0.848508 0.319411 2.17278e-20)
(-0.919871 -0.386097 1.90063e-20)
(-0.0330341 -0.0189667 0)
(0.0796303 -0.0178667 0)
(-1.50631 -0.729418 2.4996e-21)
(-1.53744 0.679086 0)
(-0.457829 0.352575 0)
(-1.00605 0.0769692 0)
(-0.783901 -0.576719 0)
(-1.51686 0.491045 1.20012e-20)
(-1.40209 -0.785709 0)
(0.0267056 0.0220309 -5.82522e-23)
(-0.992126 0.229247 5.30547e-21)
(-0.909312 -0.544118 -5.84185e-21)
(-0.16275 0.137161 0)
(-1.02029 0.521599 0)
(-1.08507 -0.372524 7.3148e-21)
(-0.046933 -0.0871444 1.29343e-20)
(-1.23433 -0.815495 -1.90457e-20)
(-1.39484 0.317037 -1.01829e-20)
(-0.140954 0.136659 7.24323e-21)
(-1.2035 0.26212 0)
(-1.0821 -0.696699 -7.87184e-21)
(-0.188415 0.167247 -2.65259e-22)
(0.0752747 -0.0227167 -1.15581e-20)
(-1.4773 -0.742743 0)
(-1.54698 0.65748 -1.46985e-21)
(-0.535108 0.359097 9.57042e-21)
(-0.518302 -0.36828 -9.74507e-21)
(-0.833397 -0.0239968 1.03135e-21)
(-1.33466 0.733723 1.56716e-21)
(0.0554354 0.00448412 -1.69797e-20)
(-1.5071 -0.600445 0)
(-0.236175 0.0684562 -4.46249e-21)
(-0.511896 0.0628615 -1.74722e-20)
(-0.430012 -0.182457 2.2265e-20)
(-1.01453 0.292092 6.15056e-21)
(-0.961769 0.242788 2.12094e-23)
(-0.960321 -0.524994 -1.43147e-20)
(-0.891227 -0.513786 0)
(-0.137512 0.11531 7.30015e-21)
(-0.0822189 0.0810092 -7.543e-21)
(-0.0374129 -0.0813671 -1.70847e-20)
(-1.3521 0.818308 6.56259e-21)
(-1.54998 -0.43991 -9.34565e-21)
(-0.95966 0.505703 0)
(-1.03417 -0.324565 0)
(-0.0898082 -0.111212 -1.69861e-20)
(-1.27726 0.304301 -2.74642e-21)
(-1.14791 -0.738296 0)
(-0.147462 0.140585 0)
(-1.30243 0.620916 -6.27333e-21)
(-1.35332 -0.535633 0)
(0.0449783 -0.0357293 7.73942e-21)
(-0.348928 0.0345826 4.66188e-21)
(-0.373703 -0.0417145 6.83885e-21)
(-0.29368 -0.0269868 -2.32904e-21)
(-1.10087 0.268278 -1.00984e-20)
(-1.01219 -0.61296 0)
(-0.144562 0.135152 -1.24199e-20)
(-0.976592 0.535363 0)
(-1.06499 -0.315742 9.09799e-21)
(-0.106668 -0.127509 -1.08626e-20)
(-0.88962 0.361683 0)
(-0.959349 0.396466 2.13738e-21)
(-0.555344 0.379816 3.43743e-21)
(-0.540028 -0.391796 2.82101e-20)
(-0.862502 -0.0171317 -2.46235e-20)
(-1.15926 0.311353 -1.0206e-20)
(-1.07126 -0.636292 1.19859e-20)
(-0.0975295 0.104486 1.13304e-20)
(-1.34613 0.630849 0)
(0.0582204 -0.0274334 -2.73918e-20)
(-1.39884 -0.571256 -6.4509e-21)
(-0.42131 0.269445 -2.47659e-20)
(-0.541668 -0.365347 0)
(-0.770211 0.0279602 8.04443e-21)
(-0.288987 0.237465 -1.45157e-20)
(-1.08337 0.183465 -7.96425e-21)
(-0.944403 -0.642599 0)
(-1.15368 0.644669 -6.40022e-21)
(-1.26081 -0.380997 -7.6503e-21)
(-0.0666661 -0.108061 4.88624e-21)
(-0.497555 0.358033 1.2401e-21)
(-0.639441 -0.457397 0)
(-0.900157 0.0349497 1.71515e-20)
(-1.21022 0.680843 0)
(-1.24955 0.685664 0)
(-1.32885 -0.410236 -4.74046e-21)
(-0.0503496 -0.0986981 -1.27027e-20)
(-1.36086 -0.451695 6.70326e-21)
(-0.0178571 -0.0766421 1.34876e-20)
(0.0846692 -0.0126848 -1.02048e-20)
(-1.52136 -0.733869 0)
(-1.55334 0.652383 -5.43595e-21)
(-1.11317 0.57948 7.46868e-21)
(-1.18928 -0.407111 0)
(-0.0314298 -0.0822821 4.40212e-21)
(-1.32774 -0.647337 -2.01118e-22)
(0.0445314 -0.0120482 1.48031e-20)
(-1.28472 0.661451 4.26185e-22)
(-0.62731 0.093032 -8.0886e-21)
(-0.232681 0.115799 0)
(-0.532756 -0.275413 0)
(-1.03889 0.369529 1.43618e-20)
(-1.02485 -0.494027 0)
(-0.0171237 0.02605 2.47333e-20)
(0.0770712 -0.00996892 -8.43968e-21)
(-1.46355 0.615569 1.75988e-20)
(-1.45733 -0.676137 8.66312e-21)
(-0.810305 -0.566403 0)
(-0.988054 0.106527 7.18481e-21)
(-0.384235 0.302209 -1.77811e-20)
(-1.27316 -0.821475 -2.25366e-20)
(-1.43165 0.356531 -6.04692e-21)
(-0.096936 0.102684 0)
(-0.817277 -0.338395 -1.95239e-20)
(-0.0601599 -0.00951901 0)
(-1.09186 0.447995 1.5234e-20)
(-1.08978 -0.477316 6.63274e-21)
(0.0122756 -0.016183 7.54617e-21)
(-0.804273 -0.359641 1.13878e-20)
(-0.0643386 0.01038 -2.14516e-23)
(-1.43054 0.785817 -4.04542e-22)
(0.0364238 -0.0342207 1.00533e-20)
(-1.58595 -0.541393 -5.14146e-21)
(-0.706483 -0.550594 0)
(-1.01141 0.02663 1.70389e-21)
(-0.579265 0.442164 0)
(-1.15194 0.47912 -1.55362e-20)
(-1.16614 -0.509768 -8.08346e-21)
(0.0264424 -0.0108288 -9.12324e-21)
(-0.867757 0.24789 0)
(-0.822586 -0.435477 -1.13474e-20)
(-0.109708 0.0779031 0)
(-0.865172 0.109585 0)
(-0.711811 -0.468727 0)
(-0.329297 0.234722 0)
(-0.625274 0.245864 -6.2177e-21)
(-0.655925 -0.217518 -1.09063e-20)
(-0.127664 -0.0528394 2.20804e-23)
(-0.338771 0.274193 1.79975e-20)
(-1.0506 0.149437 1.92059e-20)
(-0.893753 -0.61838 1.15401e-20)
(-1.53568 0.581704 -6.83167e-21)
(-1.46595 -0.745246 9.08922e-21)
(0.0709386 -0.00298186 -1.24741e-20)
(-1.2839 -0.797428 1.5348e-20)
(-1.41723 0.377911 6.13137e-21)
(-0.0683204 0.0860433 9.29799e-21)
(-0.929127 0.633342 -1.3446e-20)
(-0.344534 -0.297412 1.44084e-20)
(-1.1208 -0.176607 -1.07504e-20)
(-1.28405 0.758696 3.58752e-21)
(-1.23745 0.729552 -3.39332e-21)
(-1.37879 -0.394765 -1.50248e-21)
(-1.43527 -0.415834 0)
(-0.0569853 -0.099959 -4.62979e-21)
(-0.0745455 -0.114277 -4.12289e-21)
(0.0506431 -0.00627991 -2.00512e-20)
(-1.38388 -0.633188 2.21686e-22)
(-1.30739 0.672397 1.25049e-21)
(-1.3588 0.748326 -1.37347e-22)
(0.0586221 0.00611041 2.34919e-20)
(-1.54576 -0.597486 0)
(-1.08678 0.324609 -2.30077e-20)
(-1.03627 -0.56276 -3.12391e-21)
(-0.0674832 0.0780085 0)
(0.0836866 -0.0113247 -2.54793e-20)
(-1.52673 0.645245 5.41157e-21)
(-1.51515 -0.707852 0)
(-1.06 0.6616 1.90192e-20)
(-1.11807 0.681556 -1.41573e-20)
(-1.20279 -0.289574 8.28555e-21)
(-1.25256 -0.322887 3.13021e-21)
(-0.186502 -0.187523 -8.17058e-21)
(-0.141585 -0.156536 -4.08704e-21)
(0.0464875 -0.0116067 0)
(-1.44651 -0.842081 0)
(-1.64031 0.525786 1.76563e-21)
(-1.25066 0.723252 -1.83923e-21)
(0.0488239 0.0084485 0)
(-1.4701 -0.574847 0)
(-0.465161 -0.0192241 -2.50082e-23)
(-0.325574 0.0963845 9.9194e-21)
(-0.31242 -0.118587 4.94496e-21)
(-1.36361 0.698637 -2.1631e-21)
(-1.46568 -0.652799 1.00654e-21)
(0.0583704 -0.00507987 1.10075e-21)
(-0.786665 0.478543 0)
(-0.929448 -0.17021 -1.47679e-20)
(-0.286937 -0.24087 -8.12316e-23)
(-1.57899 0.614173 2.2635e-22)
(-1.50058 -0.776494 1.15164e-20)
(0.076348 -0.0113518 1.9152e-23)
(-1.17853 -0.659841 6.43464e-24)
(0.0365561 -0.0273972 -8.5244e-21)
(-1.25106 0.563738 6.55572e-22)
(-0.447979 0.262078 -9.06853e-21)
(-0.414922 -0.268974 8.66537e-21)
(-0.691308 -0.0253814 2.57922e-20)
(-0.560134 0.103149 0)
(-0.503145 -0.22109 -2.47021e-20)
(-0.199019 0.061689 1.23322e-20)
(-1.4842 0.752124 0)
(0.0751094 -0.00722148 1.17829e-20)
(-1.58924 -0.659546 -1.95928e-22)
(-0.602071 0.119121 0)
(-0.540628 -0.250526 -8.58013e-21)
(-0.189033 0.0800698 -1.74708e-20)
(-0.431807 -0.0144536 1.03116e-20)
(-0.315353 0.0689867 -5.24837e-21)
(-0.312724 -0.0937935 2.6206e-21)
(-0.436259 0.347187 8.65267e-21)
(-1.06793 0.10585 -6.68966e-21)
(-0.865452 -0.641201 1.27056e-20)
(-0.57448 0.0269046 0)
(-0.423958 -0.217144 0)
(-0.298027 0.149631 1.4506e-21)
(-0.619143 0.0713345 1.28027e-20)
(-0.495121 -0.257208 6.5556e-21)
(-0.271357 0.144942 2.04919e-22)
(-0.867298 0.598758 2.04569e-20)
(-1.06873 -0.143848 -1.09614e-20)
(-0.398758 -0.338944 -1.42226e-20)
(0.0768091 -0.0145546 1.78631e-20)
(0.0820958 -0.013735 -1.81067e-20)
(-1.5876 -0.647482 3.03953e-21)
(-1.57364 -0.66771 2.22801e-21)
(-1.49493 0.745692 0)
(-1.51114 0.73122 -4.18055e-21)
(-1.56481 0.581576 8.57121e-21)
(-1.48144 -0.765765 -7.4902e-21)
(0.070736 -0.00438133 1.54731e-20)
(-0.330756 -0.298356 -9.2032e-21)
(-0.988183 0.685907 4.16035e-21)
(-1.17983 -0.192173 1.36982e-20)
(-0.567061 0.363349 -8.73893e-21)
(-0.44802 -0.322866 -8.91541e-21)
(-0.813063 -0.0526679 7.96104e-21)
(-1.2192 0.229239 0)
(-1.07163 -0.726833 8.14729e-21)
(-0.243645 0.20634 2.74092e-22)
(-1.28249 -0.736006 1.78402e-21)
(0.054281 -0.0399847 -7.90835e-21)
(-1.46128 0.569245 -4.13025e-22)
(0.00662958 0.0244491 0)
(-1.59226 0.473951 0)
(-1.41114 -0.858344 5.24236e-21)
(-1.4998 0.700487 2.76305e-21)
(0.0774223 -0.0127366 0)
(-1.53778 -0.702951 -2.45518e-21)
(0.0295294 -0.0225686 -3.17559e-32)
(-1.11543 -0.62916 9.56407e-22)
(-1.16419 0.549011 -1.04886e-21)
(-1.17363 -0.559656 -1.10462e-21)
(0.028593 -0.00913199 3.16796e-32)
(-1.10727 0.618536 9.05925e-22)
(-1.19042 -0.647646 -1.60753e-20)
(-1.25195 0.403677 0)
(-0.0197162 0.0542387 -2.40835e-20)
(-1.41124 -0.81575 -1.35314e-21)
(0.0577657 -0.0323736 -8.07189e-21)
(-1.63094 0.552778 0)
(-1.37956 0.568545 -9.2752e-21)
(-1.36986 -0.644393 8.39463e-21)
(0.0627692 -0.0040071 1.24871e-20)
(-1.42511 0.827977 1.12308e-20)
(0.0388216 -0.0126449 7.17703e-21)
(-1.66034 -0.539041 0)
(-0.741402 0.291201 4.82028e-21)
(-0.0771499 -0.0243096 -4.87691e-21)
(-0.778428 -0.302388 4.74074e-21)
(-1.44183 -0.851655 2.59091e-21)
(0.0359132 -0.00105189 8.55899e-21)
(-1.62945 0.510351 2.33908e-21)
(-1.16965 0.20272 -7.69691e-21)
(-0.281877 0.235657 -4.91138e-21)
(-1.02205 -0.699664 0)
(-1.17088 -0.72992 0)
(-1.28697 0.331599 0)
(-0.106519 0.115185 0)
(0.00804644 -0.0107453 0)
(-0.692079 -0.358389 2.38749e-21)
(-0.681646 0.350387 -2.3054e-21)
(-1.31301 -0.676413 6.20073e-22)
(0.0469849 -0.0197033 -1.02952e-20)
(-1.32218 0.641034 -7.03722e-22)
(-0.672727 0.249836 -1.23548e-20)
(-0.101283 -0.0232597 1.16566e-20)
(-0.698561 -0.266423 5.55604e-21)
(-1.47415 -0.80505 8.95662e-21)
(-1.62025 0.578371 -3.3335e-21)
(0.0655131 -0.0159811 0)
(0.045145 -0.0179056 -8.94197e-21)
(-1.65608 0.524308 0)
(-1.42697 -0.85128 -6.74265e-21)
(-1.50533 0.681549 -5.00271e-21)
(0.083794 -0.0145312 2.7324e-20)
(-1.53379 -0.672575 0)
(0.00428017 -0.0562982 -2.06208e-20)
(-1.53975 -0.493519 6.36485e-21)
(-1.379 0.785428 0)
(-0.835757 0.605275 -2.57909e-20)
(-1.06978 -0.117679 1.39589e-20)
(-0.466697 -0.391289 -4.52059e-21)
(-1.3366 -0.355691 2.22927e-21)
(-1.18565 0.732632 8.13207e-21)
(-0.126404 -0.148609 -1.27357e-20)
(0.00154688 -0.0500445 -1.84464e-20)
(-1.39962 0.832028 0)
(-1.6149 -0.490585 0)
(-0.833307 0.470375 -4.27192e-21)
(-0.908715 0.514983 0)
(-0.935855 -0.228385 -1.54353e-20)
(-1.01478 -0.264863 1.65183e-20)
(-0.190644 -0.168858 2.24311e-21)
(-0.162346 -0.160988 -2.39029e-21)
(-0.775493 0.454728 4.0977e-21)
(-0.902403 -0.187828 0)
(-0.247255 -0.206471 4.27295e-21)
(-1.04219 0.677999 0)
(-1.2006 -0.266281 -1.3383e-20)
(-0.226669 -0.216682 2.94756e-21)
(-1.24562 -0.76445 -7.83402e-21)
(-1.36941 0.366715 6.62343e-21)
(-0.0712268 0.0879623 -1.90065e-20)
(-1.46478 -0.806209 0)
(-1.57938 0.564733 1.22699e-20)
(0.0596514 -0.00311174 0)
(-0.0147547 0.0508923 -6.17033e-21)
(-1.41202 0.430546 -3.9088e-21)
(-1.31107 -0.758805 -5.04345e-21)
(-1.24451 -0.56495 1.89491e-22)
(0.034155 -0.00449524 5.50903e-21)
(-1.15674 0.645319 0)
(-0.546941 0.296057 8.34042e-21)
(-0.555623 0.283746 0)
(-0.287976 -0.193031 0)
(-0.696517 -0.101808 3.12768e-20)
(-0.247195 -0.162681 0)
(-0.680365 -0.12773 -1.99436e-20)
(-0.931347 0.602978 0)
(-0.848297 0.549636 0)
(-0.313965 -0.26785 2.65931e-23)
(-1.08826 -0.21376 8.75057e-21)
(-0.275773 -0.241012 2.16573e-20)
(-1.01589 -0.178087 -1.87097e-20)
(-1.14517 -0.682642 0)
(0.040156 -0.0361656 1.15888e-20)
(-1.31047 0.549627 0)
(-1.47771 -0.794759 -5.87514e-21)
(-1.60791 0.584201 1.19299e-21)
(0.0684042 -0.012808 5.43141e-21)
(-0.621849 0.421042 -1.48315e-20)
(-0.515988 -0.391107 -1.00776e-20)
(-0.89588 -0.0447231 2.54341e-20)
(-1.17989 -0.779527 1.70942e-20)
(-1.32856 0.292328 1.71926e-20)
(-0.165047 0.155445 0)
(-0.0144395 -0.070295 2.20504e-20)
(-1.51465 -0.471716 -6.76686e-21)
(-1.35434 0.783895 8.29801e-21)
(-1.42211 -0.712569 0)
(-1.46474 0.654959 0)
(0.0637739 -0.0216286 0)
(-1.43705 -0.737628 0)
(-1.50491 0.639913 2.06242e-21)
(0.0688027 -0.0263863 1.96372e-21)
(-1.11093 0.653561 -7.95058e-21)
(-1.23108 -0.34749 4.74629e-21)
(-0.110079 -0.135412 6.04497e-21)
(-0.376901 0.239778 -2.36111e-21)
(-0.552074 -0.351384 0)
(-0.744044 0.0505262 -1.44966e-22)
(-1.51914 0.698282 5.82902e-21)
(0.0846675 -0.0139306 1.58219e-20)
(-1.55825 -0.678764 -2.59357e-21)
(-1.22196 -0.688227 0)
(-1.2981 0.407755 0)
(-0.02377 0.0623853 2.07684e-20)
(0.0623284 -0.0280879 5.22946e-21)
(-1.45547 -0.587161 1.08753e-20)
(-1.39366 0.676847 1.83581e-20)
(-0.804319 0.532342 0)
(-0.364629 -0.302315 -1.45982e-20)
(-0.987868 -0.150193 9.65857e-21)
(-0.95195 0.193226 1.65572e-22)
(-0.846797 -0.519232 8.56682e-21)
(-0.219319 0.171446 0)
(-0.505699 0.314132 9.85244e-23)
(-0.452263 -0.316182 -2.95388e-21)
(-0.766433 -0.0330987 -1.0429e-20)
(0.0860274 -0.0134986 -1.37997e-23)
(-1.54524 -0.715601 5.73581e-21)
(-1.54328 0.677561 5.62219e-21)
(-1.2992 0.659467 -3.53545e-21)
(-1.38059 -0.512105 -3.49023e-21)
(0.0283883 -0.0484941 0)
(-0.456229 0.253448 -9.04488e-21)
(-0.363052 -0.229243 1.88758e-20)
(-0.664188 -0.0470987 -1.70276e-20)
(-1.40991 0.843514 4.8057e-21)
(0.0123623 -0.0367241 8.16067e-21)
(-1.64693 -0.503762 -3.52165e-21)
(-0.718365 0.383542 -5.23024e-21)
(-0.815032 -0.199501 0)
(-0.190887 -0.157574 0)
(-0.726123 0.182806 -2.26779e-20)
(-0.674542 -0.337692 5.27546e-21)
(-0.146607 0.0819968 0)
(-1.14965 -0.684253 0)
(-1.2395 0.334482 1.46022e-20)
(-0.0852769 0.10291 0)
(-1.39719 0.784569 -1.92234e-21)
(0.0575556 0.00421508 -2.5165e-21)
(-1.61868 -0.586379 1.62143e-21)
(-1.39384 0.804482 5.42681e-21)
(0.0508996 0.00284183 0)
(-1.64004 -0.562613 -2.53795e-21)
(0.052836 -0.0342544 4.70059e-21)
(-1.47725 -0.565595 -6.0741e-21)
(-1.39287 0.701216 -1.69403e-20)
(-0.98495 0.172983 -6.88801e-21)
(-0.873788 -0.563831 -8.59644e-21)
(-0.264887 0.202584 0)
(0.0542294 0.00990194 2.30536e-21)
(-1.58196 -0.580446 -1.52351e-21)
(-1.33391 0.765169 0)
(0.0687741 -0.00368463 0)
(-1.41423 -0.67703 -6.35959e-21)
(-1.43643 0.582038 -2.09453e-21)
(0.022152 -0.0251111 9.33533e-21)
(-0.955332 -0.593627 -5.6871e-22)
(-1.05446 0.470919 0)
(-0.944113 0.582184 5.75728e-22)
(-1.06536 -0.480649 0)
(0.0203299 -0.00463802 9.35316e-21)
(0.0128277 -0.0463802 -7.57555e-24)
(-1.58757 -0.510504 0)
(-1.4022 0.81138 0)
(0.0833282 -0.0167247 0)
(-1.52827 -0.737673 0)
(-1.56064 0.670868 6.38577e-21)
(-1.47894 0.744943 -5.34131e-21)
(-1.46063 0.728279 4.32067e-21)
(0.0699066 -0.0194995 -8.96917e-21)
(-1.58238 -0.611104 -1.07096e-21)
(0.0692622 -0.0224935 -1.46321e-20)
(-1.55063 -0.607827 2.23302e-21)
(-1.44029 0.552634 4.18504e-21)
(-1.39934 -0.70124 4.33565e-21)
(0.0601939 0.0037154 0)
(-0.227375 0.201259 0)
(-1.12514 -0.774013 0)
(-1.28774 0.250576 0)
(-0.526607 0.234572 0)
(-0.208316 -0.114783 -2.59847e-20)
(-0.617137 -0.137162 1.0968e-20)
(-1.40026 0.476862 1.23792e-20)
(-1.32818 -0.720946 1.69995e-21)
(0.023291 0.0290933 1.81852e-20)
(-0.000877394 0.044578 1.18e-20)
(-1.37951 0.448041 -1.7233e-20)
(-1.29335 -0.726462 -2.35576e-21)
(-1.37338 0.84681 6.1759e-21)
(-0.029121 -0.0709889 8.82552e-21)
(-1.59875 -0.450762 9.74991e-21)
(-0.959266 0.630485 0)
(-1.1267 -0.217447 3.97959e-21)
(-0.28175 -0.250723 -2.12302e-20)
(-0.846861 0.52102 0)
(-0.984304 -0.192345 1.93908e-20)
(-0.271539 -0.237409 -3.89604e-23)
(-1.24874 0.454547 -1.72419e-20)
(-1.22025 -0.617666 2.20375e-21)
(0.0217929 0.022375 -1.05363e-20)
(-1.28249 0.448142 0)
(-1.23531 -0.645428 2.07865e-21)
(0.012732 0.031445 9.62029e-21)
(-0.40787 0.215662 0)
(-0.364033 -0.213312 -2.9838e-20)
(-0.618573 -0.0303775 9.59933e-21)
(-0.933658 0.544329 0)
(-1.04382 -0.263452 0)
(-0.173265 -0.175082 3.22476e-21)
(0.0180752 0.00853952 -1.85117e-20)
(-1.41823 -0.868532 -1.44076e-20)
(-1.63479 0.48706 0)
(-1.53571 0.613672 1.69984e-21)
(0.0652713 -0.032933 0)
(-1.38547 -0.758321 1.45897e-21)
(-1.52168 0.577653 -5.26731e-22)
(0.0595908 -0.0386411 0)
(-1.34059 -0.756233 -3.86143e-21)
(-0.642765 0.386163 6.15921e-21)
(-0.332638 -0.246336 -3.16358e-21)
(-0.810127 -0.11864 -2.59819e-22)
(-1.34812 -0.697153 4.30193e-22)
(0.05573 -0.0255528 1.57534e-20)
(-1.42088 0.630132 0)
(-1.3501 0.699818 1.49048e-20)
(0.0335799 -0.0454327 9.98637e-21)
(-1.44291 -0.527802 0)
(0.0510192 -0.0347632 -2.3344e-21)
(-1.27722 -0.719573 -1.15369e-21)
(-1.41125 0.584055 0)
(-0.536048 0.138366 1.55688e-20)
(-0.175417 0.0174601 1.57132e-20)
(-0.518033 -0.191532 4.18396e-23)
(-0.999537 0.440286 -2.66581e-21)
(-1.03334 -0.411445 -2.48772e-21)
(-0.0136476 -0.0396028 -1.10971e-20)
(-0.798601 -0.531095 1.95826e-20)
(-0.942133 0.136109 1.66423e-20)
(-0.32055 0.237726 0)
(0.058723 -0.0259629 0)
(-1.43345 -0.820203 -1.96418e-21)
(-1.63588 0.55885 0)
(-1.20026 -0.704574 0)
(-1.29593 0.382239 0)
(-0.049582 0.078443 0)
(0.0338556 -0.0233888 0)
(-1.43199 0.824863 -3.95223e-21)
(-1.64944 -0.534161 3.46306e-21)
(-1.07509 0.474383 0)
(-1.09729 -0.453063 1.26873e-21)
(0.00562841 -0.0315736 1.0846e-20)
(-0.4921 0.206225 0)
(-0.212324 -0.101654 2.23209e-20)
(-0.577498 -0.125436 0)
(-1.47031 -0.803089 -8.45731e-21)
(-1.61044 0.595945 3.17282e-21)
(0.068878 -0.0226982 0)
(0.0760747 -0.0151783 -1.08846e-20)
(-1.45223 -0.649343 4.02231e-22)
(-1.43427 0.638188 4.79713e-22)
(-1.44797 0.752008 0)
(-1.42575 0.745162 2.79658e-21)
(0.0688721 -0.00174501 -5.80429e-21)
(0.0671465 -0.00129215 -7.1319e-21)
(-1.58475 -0.63083 -1.31923e-21)
(-1.56209 -0.639391 1.08535e-21)
(-0.966142 0.302418 0)
(-0.926826 -0.489376 3.34812e-20)
(-0.0723699 0.0630811 1.17937e-20)
(-1.12556 -0.60971 2.25612e-20)
(-1.18688 0.368224 0)
(-0.0355963 0.0627133 -1.27701e-20)
(-0.674586 0.201471 -1.27911e-20)
(-0.660249 -0.290048 9.04142e-21)
(-0.113392 0.0308353 1.90178e-20)
(-1.42268 -0.784481 4.13892e-21)
(-1.58334 0.602266 2.44742e-21)
(-1.40036 -0.798861 -1.82824e-21)
(0.0673275 -0.0315677 0)
(-1.59942 0.574243 -2.35854e-21)
(0.0612769 -0.0348553 0)
(-1.22631 0.541875 0)
(-1.24709 -0.539473 0)
(0.0400346 -0.0200318 1.19236e-20)
(-1.59753 0.615167 4.59433e-21)
(-1.58594 0.616889 -8.23491e-21)
(-1.48584 -0.782117 2.70635e-21)
(-1.46592 -0.773913 -7.59463e-21)
(0.0745507 -0.0230122 1.5916e-20)
(0.072898 -0.0260488 -3.37485e-24)
(-1.13541 0.342391 0)
(-1.0766 -0.606898 -2.13148e-20)
(-0.0724456 0.087982 1.65683e-20)
(-0.898947 0.33376 1.18368e-20)
(-0.955948 -0.424047 -1.50816e-20)
(-0.0213857 -0.0016642 0)
(-1.43181 0.812023 0)
(0.0509362 -0.00610908 0)
(-1.64805 -0.568259 2.44071e-21)
(-0.982035 0.333625 8.7097e-21)
(-0.954681 -0.4742 -9.31251e-21)
(-0.0446629 0.0415837 -1.95351e-20)
(-0.753476 0.243807 5.11082e-21)
(-0.745748 -0.339676 -1.0616e-20)
(-0.0859501 0.0252709 1.09513e-20)
(-1.42501 0.771944 0)
(0.0642427 8.00966e-05 0)
(-1.61502 -0.611663 -3.47073e-21)
(-1.09858 0.508058 0)
(-1.14509 -0.440628 2.56233e-21)
(0.00627504 -0.0472284 -1.19175e-20)
(-0.999742 -0.708945 0)
(-1.16105 0.179328 0)
(-0.332528 0.274888 -6.31675e-22)
(-0.808171 0.55093 -6.64492e-22)
(-1.008 -0.131957 0)
(-0.401047 -0.333395 2.23874e-20)
(-1.32307 -0.857358 8.66819e-21)
(-0.0764354 0.0841545 0)
(-1.50062 0.381631 0)
(0.015586 -0.0135224 -2.24664e-20)
(-0.910635 -0.477577 -3.33965e-21)
(-0.898552 0.467379 3.22586e-21)
(-1.03083 0.396809 0)
(-1.01807 -0.46099 9.23336e-21)
(-0.00622816 0.00190961 -9.95908e-21)
(-1.46624 0.785165 7.88255e-21)
(0.0626519 -0.0125632 3.02936e-20)
(-1.62522 -0.59336 0)
(-0.586762 -0.469731 -5.98261e-21)
(-1.02335 -0.0461705 -9.26218e-21)
(-0.70609 0.522593 -5.84998e-21)
(-1.11315 0.665271 0)
(0.0364898 0.0042924 -8.37333e-21)
(-1.31657 -0.551431 0)
(-0.27153 0.168668 1.17098e-20)
(-0.302685 0.197086 -1.19665e-20)
(-0.585363 -0.343832 0)
(-0.716857 0.0942601 1.0901e-20)
(-0.622406 -0.382832 -1.91685e-20)
(-0.762904 0.0876605 -8.71084e-21)
(-0.658983 0.168089 1.20411e-20)
(-0.616873 -0.285095 1.20497e-20)
(-0.147296 0.0616716 0)
(-0.387773 0.232382 1.04178e-20)
(-0.3224 0.193459 0)
(-0.475702 -0.298042 -1.07046e-20)
(-0.690928 0.0140078 9.7612e-21)
(-0.501445 -0.296292 1.07878e-20)
(-0.672634 0.0463954 5.98425e-23)
(-0.971098 0.374726 7.44351e-22)
(-0.888904 -0.408768 -6.63667e-21)
(-0.0445619 0.0162248 -1.3408e-20)
(-0.902434 0.314139 -2.03372e-20)
(-0.891538 -0.425835 1.74155e-22)
(-0.0553455 0.033653 0)
(0.0573344 -0.0409779 0)
(-1.33801 -0.785489 0)
(-1.56973 0.560335 1.31589e-21)
(-0.705496 0.409642 -5.6782e-21)
(-0.838247 -0.155531 0)
(-0.269391 -0.210931 5.85244e-21)
(-1.57974 0.640017 -1.05074e-20)
(-1.51282 -0.764376 3.84456e-21)
(0.0811707 -0.0175986 -9.08245e-21)
(-1.2858 0.500624 0)
(-1.34363 0.526847 8.91291e-21)
(-1.27197 -0.612454 -2.74886e-21)
(-1.32442 -0.639776 8.24741e-21)
(0.0425264 0.00777113 -1.3071e-20)
(0.0519642 0.00512548 -1.20506e-20)
(-0.676597 0.374686 0)
(-0.797224 -0.165381 0)
(-0.238449 -0.186164 2.79571e-21)
(-1.01257 0.618297 6.45413e-21)
(-1.13909 -0.276096 0)
(-0.187166 -0.184792 7.03643e-21)
(-1.17237 0.469838 -4.88954e-21)
(-1.17186 -0.547266 0)
(0.027319 0.00281126 0)
(-0.384033 0.128263 1.19849e-20)
(-0.490008 -0.0642335 -5.91767e-21)
(-0.263242 -0.102567 6.06202e-21)
(-1.35842 0.487211 0)
(-1.30825 -0.683083 0)
(0.0310557 0.0226562 -1.93431e-20)
(-0.493338 0.236117 0)
(-0.257722 -0.151377 3.27696e-21)
(-0.620179 -0.10162 0)
(-1.13663 0.370971 -1.13447e-20)
(-1.08497 -0.583282 -1.19443e-20)
(-0.0330878 0.0544662 -1.66288e-21)
(-1.00366 0.5875 6.55963e-21)
(-1.11661 -0.295071 0)
(-0.150169 -0.162173 1.45141e-20)
(-0.411109 0.163373 -1.188e-20)
(-0.388196 0.164721 -5.26005e-21)
(-0.532201 -0.0770687 5.82608e-21)
(-0.262797 -0.123358 -1.20101e-20)
(-0.548172 -0.0520875 0)
(-0.30248 -0.155219 -2.13703e-20)
(-0.350704 0.183408 -5.24912e-21)
(-0.405659 -0.232361 1.39571e-20)
(-0.319401 0.177965 3.37381e-21)
(-0.608138 0.0038874 -1.32553e-20)
(-0.48167 -0.277554 -6.77521e-21)
(-0.645121 0.0405912 3.01307e-22)
(-0.806475 0.43778 6.20371e-21)
(-0.871929 0.456951 0)
(-0.8994 -0.237726 1.16043e-20)
(-0.945495 -0.279587 -9.06766e-21)
(-0.162487 -0.146346 -1.30261e-20)
(-0.115781 -0.117289 2.16572e-20)
(0.0230669 -0.0479984 0)
(-1.51246 -0.518341 -3.6411e-21)
(-1.38251 0.753399 -8.37174e-21)
(-0.368973 0.298058 7.69527e-21)
(-1.09284 0.145642 1.05569e-20)
(-0.924761 -0.659981 -2.00799e-20)
(0.0409733 -0.0361326 -1.02708e-20)
(0.0555867 -0.0305478 8.20064e-21)
(-1.54453 -0.553019 3.15284e-21)
(-1.52693 -0.575317 5.55875e-21)
(-1.41592 0.761161 2.10745e-20)
(-1.4278 0.735628 -1.09032e-20)
(-0.532958 0.391364 1.08385e-20)
(-0.658592 -0.483279 -9.58971e-21)
(-0.9348 0.0233779 2.52787e-21)
(-0.363008 0.0690432 2.0371e-20)
(-0.26969 -0.0482007 0)
(-0.412672 -0.0574181 -2.02845e-20)
(-1.38377 0.521401 -4.15684e-21)
(-1.34407 -0.678436 -9.32041e-21)
(0.0480205 0.0113638 0)
(-0.600362 0.329734 0)
(-0.280733 -0.207184 -2.66351e-21)
(-0.74135 -0.120102 -1.01428e-20)
(-1.04604 0.60231 0)
(-1.15428 -0.322369 0)
(-0.120593 -0.141719 -1.35023e-20)
(-1.31527 0.751484 -9.45675e-21)
(-1.30812 0.722678 0)
(-1.45589 -0.461416 2.14377e-21)
(-0.0220133 -0.0776361 -1.26729e-20)
(-1.42985 -0.471965 -5.83615e-21)
(-0.00648755 -0.0692316 1.71655e-20)
(-1.27859 0.544394 9.12011e-21)
(-1.29341 -0.572635 8.90655e-21)
(0.0512634 -0.0118343 7.10774e-21)
(-1.21633 0.685452 1.24695e-21)
(-1.39164 -0.584368 0)