/*--------------------------------*- C++ -*----------------------------------*\
  =========                 |
  \\      /  F ield         | OpenFOAM: The Open Source CFD Toolbox
   \\    /   O peration     | Website:  https://openfoam.org
    \\  /    A nd           | Version:  6
     \\/     M anipulation  |
\*---------------------------------------------------------------------------*/
FoamFile
{
    version     2.0;
    format      ascii;
    class       volVectorField;
    location    "0";
    object      U;
}
// * * * * * * * * * * * * * * * * * * * * * * * * * * * * * * * * * * * * * //

dimensions      [0 1 -1 0 0 0 0];

internalField   nonuniform List<vector> 
40000
(
(0.000545727 -0.00054572 0)
(-0.00204283 0.00102414 0)
(-0.0102575 0.00277852 0)
(-0.0236503 0.00400485 0)
(-0.0406207 0.00478111 0)
(-0.0598474 0.0052358 0)
(-0.080399 0.00548005 0)
(-0.10166 0.00559546 0)
(-0.123244 0.00563438 0)
(-0.144912 0.00562774 0)
(-0.166512 0.00559253 0)
(-0.187941 0.00553695 0)
(-0.209114 0.00546413 0)
(-0.229958 0.00537441 0)
(-0.250398 0.00526701 0)
(-0.270359 0.00514078 0)
(-0.289754 0.00499474 0)
(-0.308503 0.00482829 0)
(-0.326517 0.0046413 0)
(-0.343713 0.00443413 0)
(-0.360004 0.0042076 0)
(-0.375316 0.00396282 0)
(-0.389569 0.00370111 0)
(-0.402696 0.0034239 0)
(-0.414634 0.00313267 0)
(-0.425323 0.00282881 0)
(-0.434715 0.00251373 0)
(-0.442761 0.00218869 0)
(-0.44942 0.00185482 0)
(-0.454653 0.00151313 0)
(-0.45843 0.00116449 0)
(-0.46072 0.000809672 0)
(-0.461495 0.000449317 0)
(-0.460733 8.39697e-05 0)
(-0.458412 -0.000285901 0)
(-0.454513 -0.000659864 0)
(-0.449018 -0.0010376 0)
(-0.441909 -0.0014188 0)
(-0.433173 -0.00180318 0)
(-0.422796 -0.00219048 0)
(-0.410767 -0.00258048 0)
(-0.397074 -0.00297291 0)
(-0.381709 -0.00336756 0)
(-0.364662 -0.00376414 0)
(-0.345928 -0.00416242 0)
(-0.325501 -0.00456211 0)
(-0.303377 -0.00496287 0)
(-0.279555 -0.0053644 0)
(-0.254033 -0.00576633 0)
(-0.226815 -0.00616822 0)
(-0.197903 -0.00656967 0)
(-0.167305 -0.00697013 0)
(-0.135027 -0.00736911 0)
(-0.101083 -0.00776599 0)
(-0.0654836 -0.00816013 0)
(-0.0282496 -0.0085508 0)
(0.0106019 -0.00893729 0)
(0.0510429 -0.00931872 0)
(0.0930477 -0.00969421 0)
(0.136586 -0.0100628 0)
(0.181618 -0.0104235 0)
(0.228104 -0.0107753 0)
(0.276001 -0.011117 0)
(0.325256 -0.0114473 0)
(0.375809 -0.0117651 0)
(0.427611 -0.0120691 0)
(0.480584 -0.012358 0)
(0.53466 -0.0126305 0)
(0.589765 -0.012885 0)
(0.64581 -0.0131203 0)
(0.702709 -0.0133349 0)
(0.760365 -0.0135274 0)
(0.818689 -0.0136966 0)
(0.877548 -0.0138408 0)
(0.936864 -0.0139588 0)
(0.996498 -0.0140493 0)
(1.05633 -0.014111 0)
(1.11625 -0.0141426 0)
(1.17611 -0.0141431 0)
(1.23578 -0.0141112 0)
(1.29512 -0.0140461 0)
(1.354 -0.0139468 0)
(1.41225 -0.0138124 0)
(1.46975 -0.0136423 0)
(1.52631 -0.0134358 0)
(1.58183 -0.0131926 0)
(1.63611 -0.0129122 0)
(1.68902 -0.0125943 0)
(1.7404 -0.012239 0)
(1.7901 -0.0118464 0)
(1.83797 -0.0114165 0)
(1.88386 -0.0109498 0)
(1.92761 -0.0104467 0)
(1.96909 -0.00990805 0)
(2.00815 -0.00933457 0)
(2.04466 -0.00872728 0)
(2.07848 -0.00808732 0)
(2.1095 -0.00741601 0)
(2.13759 -0.00671482 0)
(2.16262 -0.00598538 0)
(2.18451 -0.0052295 0)
(2.20315 -0.0044491 0)
(2.21846 -0.00364627 0)
(2.23034 -0.00282327 0)
(2.23874 -0.00198247 0)
(2.2436 -0.00112639 0)
(2.24485 -0.000257662 0)
(2.24247 0.000620942 0)
(2.23642 0.00150654 0)
(2.22669 0.00239613 0)
(2.21329 0.00328669 0)
(2.19621 0.00417504 0)
(2.17548 0.00505792 0)
(2.15113 0.00593211 0)
(2.12322 0.00679424 0)
(2.0918 0.00764097 0)
(2.05695 0.00846901 0)
(2.01876 0.0092749 0)
(1.97731 0.0100554 0)
(1.93275 0.0108073 0)
(1.88518 0.0115273 0)
(1.83474 0.0122123 0)
(1.78159 0.0128594 0)
(1.72589 0.0134658 0)
(1.6678 0.0140286 0)
(1.60752 0.0145454 0)
(1.54523 0.0150138 0)
(1.48114 0.0154318 0)
(1.41545 0.0157975 0)
(1.34836 0.0161093 0)
(1.28012 0.016366 0)
(1.21094 0.0165664 0)
(1.14104 0.0167098 0)
(1.07067 0.0167958 0)
(1.00005 0.0168245 0)
(0.92941 0.016796 0)
(0.858981 0.0167108 0)
(0.78899 0.01657 0)
(0.719659 0.0163747 0)
(0.651205 0.0161266 0)
(0.583836 0.0158276 0)
(0.517757 0.0154796 0)
(0.453159 0.0150855 0)
(0.390225 0.0146476 0)
(0.329129 0.0141692 0)
(0.270029 0.0136533 0)
(0.213073 0.0131033 0)
(0.158394 0.0125227 0)
(0.106111 0.0119152 0)
(0.0563302 0.0112846 0)
(0.00913889 0.0106347 0)
(-0.0353855 0.00996922 0)
(-0.0771842 0.00929208 0)
(-0.116214 0.00860708 0)
(-0.152446 0.00791792 0)
(-0.185867 0.00722825 0)
(-0.21647 0.00654153 0)
(-0.244278 0.00586116 0)
(-0.269315 0.00519026 0)
(-0.291618 0.0045318 0)
(-0.311237 0.00388853 0)
(-0.328241 0.00326293 0)
(-0.342694 0.0026573 0)
(-0.354681 0.00207361 0)
(-0.364292 0.00151365 0)
(-0.371621 0.000978864 0)
(-0.376766 0.000470507 0)
(-0.379842 -1.0444e-05 0)
(-0.380956 -0.000463281 0)
(-0.380219 -0.000887452 0)
(-0.377747 -0.0012827 0)
(-0.37366 -0.00164895 0)
(-0.368073 -0.00198628 0)
(-0.361103 -0.00229502 0)
(-0.352867 -0.00257561 0)
(-0.343478 -0.00282869 0)
(-0.333051 -0.00305513 0)
(-0.321689 -0.00325589 0)
(-0.309499 -0.00343223 0)
(-0.296581 -0.00358563 0)
(-0.283026 -0.00371788 0)
(-0.26892 -0.00383116 0)
(-0.254336 -0.00392802 0)
(-0.239345 -0.00401143 0)
(-0.223996 -0.00408479 0)
(-0.208329 -0.00415189 0)
(-0.192369 -0.00421673 0)
(-0.176123 -0.00428314 0)
(-0.159593 -0.00435433 0)
(-0.142762 -0.00443163 0)
(-0.125625 -0.00451339 0)
(-0.108187 -0.00459226 0)
(-0.0905039 -0.00465192 0)
(-0.0727166 -0.00466153 0)
(-0.0551163 -0.00456823 0)
(-0.03823 -0.00428881 0)
(-0.0229143 -0.0037083 0)
(-0.0104466 -0.00268946 0)
(-0.00247113 -0.00112528 0)
(0.000371576 0.000371312 0)
(-0.00102348 0.00204229 0)
(-0.0130308 0.0130328 0)
(-0.0371045 0.0243986 0)
(-0.0721246 0.0330695 0)
(-0.114899 0.0389149 0)
(-0.162828 0.0425464 0)
(-0.213954 0.0446324 0)
(-0.266895 0.0457057 0)
(-0.320723 0.0461343 0)
(-0.374823 0.0461498 0)
(-0.428775 0.0458868 0)
(-0.482272 0.0454157 0)
(-0.535065 0.0447677 0)
(-0.586929 0.0439501 0)
(-0.637642 0.0429596 0)
(-0.686975 0.0417885 0)
(-0.73469 0.0404296 0)
(-0.780545 0.0388788 0)
(-0.824295 0.0371349 0)
(-0.865694 0.0352013 0)
(-0.904504 0.0330841 0)
(-0.940496 0.0307931 0)
(-0.973449 0.028339 0)
(-1.00316 0.0257341 0)
(-1.02945 0.0229912 0)
(-1.05213 0.0201228 0)
(-1.07105 0.0171414 0)
(-1.08608 0.0140581 0)
(-1.09707 0.0108838 0)
(-1.10392 0.00762778 0)
(-1.10652 0.00429855 0)
(-1.10477 0.000903914 0)
(-1.09859 -0.00255013 0)
(-1.08792 -0.00605722 0)
(-1.07267 -0.00961252 0)
(-1.05277 -0.0132112 0)
(-1.02819 -0.0168495 0)
(-0.998862 -0.0205234 0)
(-0.964745 -0.0242294 0)
(-0.925807 -0.0279643 0)
(-0.88202 -0.0317244 0)
(-0.833319 -0.0355068 0)
(-0.779705 -0.039308 0)
(-0.721167 -0.0431245 0)
(-0.657677 -0.0469528 0)
(-0.589222 -0.050789 0)
(-0.515805 -0.0546291 0)
(-0.437446 -0.0584689 0)
(-0.354125 -0.0623038 0)
(-0.265861 -0.0661285 0)
(-0.172705 -0.069938 0)
(-0.0746621 -0.0737265 0)
(0.0281966 -0.0774877 0)
(0.135861 -0.0812152 0)
(0.248226 -0.0849016 0)
(0.365248 -0.0885394 0)
(0.486871 -0.0921204 0)
(0.612958 -0.0956363 0)
(0.743435 -0.0990778 0)
(0.878164 -0.102435 0)
(1.01704 -0.105698 0)
(1.15991 -0.108856 0)
(1.3066 -0.111898 0)
(1.45698 -0.114813 0)
(1.61082 -0.117589 0)
(1.76796 -0.120214 0)
(1.92814 -0.122676 0)
(2.09115 -0.124961 0)
(2.25673 -0.127059 0)
(2.42464 -0.128955 0)
(2.59457 -0.130638 0)
(2.76625 -0.132095 0)
(2.93936 -0.133313 0)
(3.11357 -0.134282 0)
(3.28855 -0.134989 0)
(3.46394 -0.135423 0)
(3.63936 -0.135574 0)
(3.81447 -0.135432 0)
(3.98888 -0.134988 0)
(4.16215 -0.134233 0)
(4.33391 -0.13316 0)
(4.50374 -0.131763 0)
(4.67122 -0.130035 0)
(4.83592 -0.127973 0)
(4.99742 -0.125573 0)
(5.15529 -0.122833 0)
(5.3091 -0.119752 0)
(5.45841 -0.116329 0)
(5.60283 -0.112568 0)
(5.74189 -0.108469 0)
(5.87522 -0.104039 0)
(6.00239 -0.0992816 0)
(6.123 -0.0942046 0)
(6.23669 -0.0888163 0)
(6.34306 -0.0831259 0)
(6.44178 -0.0771448 0)
(6.53247 -0.0708851 0)
(6.61484 -0.0643607 0)
(6.68856 -0.0575864 0)
(6.75337 -0.0505787 0)
(6.80899 -0.0433549 0)
(6.85518 -0.0359338 0)
(6.89175 -0.0283353 0)
(6.91849 -0.0205803 0)
(6.93524 -0.0126909 0)
(6.94187 -0.00469014 0)
(6.93829 0.00339791 0)
(6.92442 0.0115485 0)
(6.90021 0.0197361 0)
(6.86566 0.0279342 0)
(6.82077 0.0361159 0)
(6.76565 0.0442538 0)
(6.70035 0.0523199 0)
(6.62499 0.060286 0)
(6.53974 0.0681242 0)
(6.44479 0.0758054 0)
(6.34037 0.0833015 0)
(6.22673 0.0905845 0)
(6.10417 0.0976266 0)
(5.973 0.1044 0)
(5.83361 0.110879 0)
(5.68635 0.117038 0)
(5.53166 0.122851 0)
(5.36997 0.128295 0)
(5.20175 0.133348 0)
(5.02753 0.137989 0)
(4.8478 0.142199 0)
(4.66312 0.14596 0)
(4.47404 0.149259 0)
(4.28113 0.15208 0)
(4.08502 0.154414 0)
(3.88626 0.156252 0)
(3.6855 0.157588 0)
(3.48335 0.158419 0)
(3.28042 0.158743 0)
(3.07734 0.158564 0)
(2.87473 0.157886 0)
(2.67318 0.156715 0)
(2.4733 0.155064 0)
(2.27567 0.152943 0)
(2.08088 0.15037 0)
(1.88945 0.147361 0)
(1.70193 0.143938 0)
(1.51879 0.140124 0)
(1.34053 0.135942 0)
(1.16758 0.131419 0)
(1.00036 0.126585 0)
(0.839219 0.121469 0)
(0.68454 0.116101 0)
(0.536578 0.110514 0)
(0.395623 0.10474 0)
(0.261887 0.0988126 0)
(0.13556 0.0927644 0)
(0.016773 0.0866285 0)
(-0.0943489 0.0804377 0)
(-0.197781 0.0742234 0)
(-0.293465 0.068017 0)
(-0.38143 0.0618481 0)
(-0.461713 0.0557451 0)
(-0.534409 0.0497346 0)
(-0.59963 0.0438418 0)
(-0.657509 0.0380899 0)
(-0.708234 0.0325001 0)
(-0.75201 0.0270914 0)
(-0.789051 0.0218806 0)
(-0.819609 0.0168826 0)
(-0.843934 0.0121099 0)
(-0.862314 0.00757298 0)
(-0.875034 0.00328011 0)
(-0.882395 -0.000762538 0)
(-0.884713 -0.00455039 0)
(-0.882289 -0.00808106 0)
(-0.875457 -0.0113535 0)
(-0.864528 -0.0143688 0)
(-0.849823 -0.0171294 0)
(-0.831657 -0.0196395 0)
(-0.810345 -0.0219048 0)
(-0.78619 -0.0239332 0)
(-0.759479 -0.0257341 0)
(-0.7305 -0.02732 0)
(-0.699517 -0.0287056 0)
(-0.666779 -0.0299084 0)
(-0.632507 -0.0309496 0)
(-0.596902 -0.0318545 0)
(-0.56012 -0.03265 0)
(-0.5223 -0.0333677 0)
(-0.483532 -0.0340385 0)
(-0.443878 -0.0346918 0)
(-0.403368 -0.0353495 0)
(-0.362014 -0.0360187 0)
(-0.31984 -0.036679 0)
(-0.276919 -0.0372658 0)
(-0.233432 -0.0376454 0)
(-0.189761 -0.0375821 0)
(-0.146617 -0.0366962 0)
(-0.105184 -0.0344303 0)
(-0.0672687 -0.030068 0)
(-0.0354046 -0.0229008 0)
(-0.0128655 -0.0128472 0)
(-0.00112768 -0.00247446 0)
(-0.00277681 0.0102541 0)
(-0.0243935 0.0371054 0)
(-0.0621401 0.0621442 0)
(-0.114078 0.0813086 0)
(-0.175956 0.0945177 0)
(-0.244598 0.102953 0)
(-0.317562 0.107947 0)
(-0.393049 0.110602 0)
(-0.469795 0.111706 0)
(-0.546916 0.111771 0)
(-0.623782 0.111107 0)
(-0.699909 0.109883 0)
(-0.774891 0.108174 0)
(-0.848363 0.106005 0)
(-0.91996 0.10337 0)
(-0.989311 0.100253 0)
(-1.05604 0.0966369 0)
(-1.11974 0.0925128 0)
(-1.18004 0.0878778 0)
(-1.23654 0.08274 0)
(-1.28885 0.0771148 0)
(-1.3366 0.0710246 0)
(-1.37944 0.064496 0)
(-1.41704 0.0575607 0)
(-1.44908 0.0502503 0)
(-1.47528 0.0425969 0)
(-1.49537 0.034632 0)
(-1.50913 0.0263849 0)
(-1.51632 0.0178839 0)
(-1.51677 0.00915346 0)
(-1.51024 0.000217711 0)
(-1.49664 -0.00890403 0)
(-1.47579 -0.0181936 0)
(-1.44756 -0.0276337 0)
(-1.41184 -0.0372097 0)
(-1.36849 -0.0469087 0)
(-1.31747 -0.0567167 0)
(-1.25864 -0.0666248 0)
(-1.19197 -0.0766202 0)
(-1.11737 -0.0866932 0)
(-1.03478 -0.096831 0)
(-0.94419 -0.107026 0)
(-0.845518 -0.117268 0)
(-0.738761 -0.127542 0)
(-0.62392 -0.137841 0)
(-0.500951 -0.14815 0)
(-0.369894 -0.158459 0)
(-0.23076 -0.168752 0)
(-0.0835585 -0.179016 0)
(0.0716168 -0.189235 0)
(0.234761 -0.199395 0)
(0.405771 -0.209478 0)
(0.584564 -0.219465 0)
(0.771047 -0.229337 0)
(0.965081 -0.239073 0)
(1.16654 -0.248652 0)
(1.37528 -0.258052 0)
(1.59109 -0.267246 0)
(1.81379 -0.27621 0)
(2.04316 -0.284918 0)
(2.27895 -0.293341 0)
(2.52092 -0.301451 0)
(2.76875 -0.309217 0)
(3.02215 -0.31661 0)
(3.28077 -0.323596 0)
(3.54426 -0.330146 0)
(3.81225 -0.336227 0)
(4.08429 -0.341805 0)
(4.35998 -0.346848 0)
(4.63887 -0.351324 0)
(4.92042 -0.355202 0)
(5.20419 -0.358448 0)
(5.48963 -0.361033 0)
(5.77617 -0.362928 0)
(6.06326 -0.364104 0)
(6.35032 -0.364533 0)
(6.63672 -0.364192 0)
(6.92186 -0.363056 0)
(7.20508 -0.361106 0)
(7.48576 -0.358321 0)
(7.76319 -0.354686 0)
(8.03677 -0.350187 0)
(8.3058 -0.344812 0)
(8.56959 -0.338555 0)
(8.82745 -0.331409 0)
(9.07873 -0.323373 0)
(9.32272 -0.314449 0)
(9.55882 -0.304642 0)
(9.78632 -0.293959 0)
(10.0046 -0.282411 0)
(10.2129 -0.270015 0)
(10.4108 -0.256789 0)
(10.5977 -0.242753 0)
(10.7728 -0.227934 0)
(10.9358 -0.21236 0)
(11.0859 -0.196063 0)
(11.2229 -0.179079 0)
(11.3461 -0.161445 0)
(11.4552 -0.143203 0)
(11.5497 -0.124399 0)
(11.6293 -0.105078 0)
(11.6937 -0.0852922 0)
(11.7426 -0.0650931 0)
(11.7757 -0.0445365 0)
(11.7928 -0.0236801 0)
(11.7938 -0.00258289 0)
(11.7786 0.0186924 0)
(11.747 0.0400828 0)
(11.6991 0.0615222 0)
(11.6349 0.0829447 0)
(11.5545 0.104282 0)
(11.458 0.125467 0)
(11.3456 0.146427 0)
(11.2176 0.167095 0)
(11.0741 0.187399 0)
(10.9155 0.207269 0)
(10.7423 0.226637 0)
(10.5547 0.245432 0)
(10.3534 0.263587 0)
(10.1387 0.281036 0)
(9.91135 0.297714 0)
(9.67186 0.313558 0)
(9.42089 0.328509 0)
(9.15915 0.342508 0)
(8.88735 0.355504 0)
(8.60626 0.367444 0)
(8.31668 0.378283 0)
(8.01944 0.38798 0)
(7.71538 0.396496 0)
(7.4054 0.403802 0)
(7.09036 0.40987 0)
(6.7712 0.414679 0)
(6.44886 0.418215 0)
(6.12425 0.42047 0)
(5.79831 0.421439 0)
(5.47199 0.421132 0)
(5.14622 0.419556 0)
(4.82191 0.41673 0)
(4.49999 0.412679 0)
(4.18134 0.407433 0)
(3.86685 0.401029 0)
(3.5573 0.393513 0)
(3.25356 0.384932 0)
(2.95638 0.375342 0)
(2.66648 0.364805 0)
(2.38458 0.353383 0)
(2.11126 0.341148 0)
(1.84719 0.328173 0)
(1.59286 0.314533 0)
(1.34876 0.30031 0)
(1.11532 0.285581 0)
(0.892924 0.27043 0)
(0.681853 0.254942 0)
(0.482379 0.239198 0)
(0.294694 0.223278 0)
(0.118898 0.207267 0)
(-0.0449188 0.19124 0)
(-0.196724 0.175275 0)
(-0.336579 0.159446 0)
(-0.464572 0.14382 0)
(-0.580843 0.128464 0)
(-0.685592 0.113437 0)
(-0.779062 0.0987983 0)
(-0.861512 0.0845953 0)
(-0.933271 0.0708757 0)
(-0.9947 0.0576791 0)
(-1.04616 0.045041 0)
(-1.08809 0.0329903 0)
(-1.12087 0.021553 0)
(-1.14499 0.0107464 0)
(-1.16092 0.000586614 0)
(-1.16912 -0.00891722 0)
(-1.1701 -0.0177602 0)
(-1.16431 -0.0259413 0)
(-1.15229 -0.0334633 0)
(-1.13451 -0.0403345 0)
(-1.11145 -0.0465683 0)
(-1.0836 -0.0521816 0)
(-1.05143 -0.0571968 0)
(-1.01537 -0.0616431 0)
(-0.975867 -0.0655564 0)
(-0.93331 -0.0689804 0)
(-0.888061 -0.071967 0)
(-0.840458 -0.0745779 0)
(-0.790773 -0.0768789 0)
(-0.739232 -0.0789451 0)
(-0.686026 -0.0808526 0)
(-0.631275 -0.0826691 0)
(-0.57507 -0.0844443 0)
(-0.517484 -0.08619 0)
(-0.458593 -0.0878533 0)
(-0.39855 -0.089278 0)
(-0.337654 -0.0901535 0)
(-0.276462 -0.0899496 0)
(-0.215938 -0.0878419 0)
(-0.157624 -0.0826606 0)
(-0.103767 -0.0729508 0)
(-0.0574586 -0.0573138 0)
(-0.023 -0.0354173 0)
(-0.00270403 -0.0104802 0)
(-0.00400243 0.023643 0)
(-0.033068 0.0721273 0)
(-0.0813211 0.114087 0)
(-0.145916 0.145891 0)
(-0.221618 0.167984 0)
(-0.304856 0.182287 0)
(-0.39294 0.190886 0)
(-0.483853 0.195515 0)
(-0.576144 0.197437 0)
(-0.668759 0.19749 0)
(-0.76092 0.196188 0)
(-0.852001 0.193819 0)
(-0.94147 0.190516 0)
(-1.02883 0.186322 0)
(-1.11359 0.181231 0)
(-1.19524 0.175215 0)
(-1.27328 0.168246 0)
(-1.34717 0.160304 0)
(-1.4164 0.151387 0)
(-1.48041 0.141508 0)
(-1.53871 0.130694 0)
(-1.59077 0.118986 0)
(-1.63613 0.106431 0)
(-1.67431 0.0930864 0)
(-1.70489 0.0790097 0)
(-1.72749 0.0642605 0)
(-1.74172 0.0488979 0)
(-1.74725 0.0329788 0)
(-1.74376 0.016551 0)
(-1.731 -0.000332025 0)
(-1.70869 -0.0176285 0)
(-1.67658 -0.0352982 0)
(-1.63452 -0.0533025 0)
(-1.58226 -0.0716112 0)
(-1.51966 -0.090194 0)
(-1.44657 -0.10902 0)
(-1.36284 -0.128065 0)
(-1.26836 -0.147306 0)
(-1.16302 -0.166716 0)
(-1.04674 -0.186275 0)
(-0.919447 -0.205958 0)
(-0.781076 -0.225743 0)
(-0.631604 -0.245606 0)
(-0.470976 -0.265524 0)
(-0.299205 -0.285471 0)
(-0.116292 -0.305421 0)
(0.0777267 -0.325346 0)
(0.28282 -0.34522 0)
(0.498922 -0.365011 0)
(0.725943 -0.384685 0)
(0.963775 -0.404211 0)
(1.21231 -0.423551 0)
(1.47138 -0.44267 0)
(1.7408 -0.461526 0)
(2.0204 -0.480075 0)
(2.30993 -0.498276 0)
(2.60915 -0.51608 0)
(2.91776 -0.53344 0)
(3.23546 -0.550304 0)
(3.56191 -0.566619 0)
(3.89675 -0.582333 0)
(4.23954 -0.597386 0)
(4.58987 -0.611722 0)
(4.94728 -0.625281 0)
(5.31123 -0.638003 0)
(5.68123 -0.649827 0)
(6.05668 -0.660693 0)
(6.43698 -0.670537 0)
(6.82151 -0.679301 0)
(7.20962 -0.686924 0)
(7.60059 -0.693346 0)
(7.99369 -0.69851 0)
(8.38818 -0.702361 0)
(8.78329 -0.704847 0)
(9.17821 -0.705916 0)
(9.57212 -0.705523 0)
(9.96416 -0.703623 0)
(10.3535 -0.700178 0)
(10.7393 -0.695152 0)
(11.1205 -0.688516 0)
(11.4964 -0.680244 0)
(11.866 -0.670316 0)
(12.2284 -0.658718 0)
(12.5828 -0.645441 0)
(12.9281 -0.630483 0)
(13.2635 -0.613847 0)
(13.5882 -0.595543 0)
(13.9012 -0.575586 0)
(14.2017 -0.553999 0)
(14.4889 -0.530809 0)
(14.7619 -0.506054 0)
(15.02 -0.479772 0)
(15.2625 -0.452013 0)
(15.4885 -0.422829 0)
(15.6975 -0.392281 0)
(15.8886 -0.360433 0)
(16.0616 -0.327357 0)
(16.2156 -0.29313 0)
(16.3501 -0.257834 0)
(16.4649 -0.221556 0)
(16.5593 -0.184387 0)
(16.633 -0.146424 0)
(16.6858 -0.107768 0)
(16.7174 -0.0685237 0)
(16.7276 -0.0287984 0)
(16.7162 0.0112951 0)
(16.6832 0.0516429 0)
(16.6285 0.0921261 0)
(16.5522 0.132626 0)
(16.4544 0.173021 0)
(16.3351 0.213186 0)
(16.1947 0.252998 0)
(16.0335 0.292332 0)
(15.8517 0.33106 0)
(15.6498 0.369059 0)
(15.4283 0.406201 0)
(15.1876 0.442364 0)
(14.9284 0.477425 0)
(14.6512 0.511265 0)
(14.3568 0.543765 0)
(14.0459 0.574812 0)
(13.7193 0.604293 0)
(13.3778 0.632104 0)
(13.0224 0.658146 0)
(12.654 0.682322 0)
(12.2736 0.704548 0)
(11.8821 0.724738 0)
(11.4807 0.74282 0)
(11.0704 0.758732 0)
(10.6524 0.772414 0)
(10.2277 0.783818 0)
(9.79762 0.79291 0)
(9.36325 0.799667 0)
(8.9258 0.804069 0)
(8.48645 0.806112 0)
(8.0464 0.805803 0)
(7.60683 0.803162 0)
(7.16892 0.798221 0)
(6.73382 0.791019 0)
(6.30268 0.781615 0)
(5.87661 0.770067 0)
(5.4567 0.756456 0)
(5.04397 0.740868 0)
(4.63943 0.723401 0)
(4.24404 0.704161 0)
(3.8587 0.683265 0)
(3.48424 0.660835 0)
(3.12147 0.637002 0)
(2.77107 0.611902 0)
(2.43374 0.585679 0)
(2.11003 0.558478 0)
(1.80047 0.530447 0)
(1.50548 0.501737 0)
(1.22543 0.472499 0)
(0.960626 0.442883 0)
(0.71128 0.413038 0)
(0.477505 0.383107 0)
(0.259373 0.353232 0)
(0.0569109 0.32355 0)
(-0.130005 0.294192 0)
(-0.301479 0.265277 0)
(-0.457735 0.236923 0)
(-0.599035 0.209235 0)
(-0.725671 0.182313 0)
(-0.838066 0.156244 0)
(-0.936602 0.131108 0)
(-1.02178 0.106975 0)
(-1.09406 0.0839067 0)
(-1.154 0.0619503 0)
(-1.20216 0.0411489 0)
(-1.23914 0.0215354 0)
(-1.26552 0.00313158 0)
(-1.28198 -0.0140456 0)
(-1.28909 -0.0299914 0)
(-1.28753 -0.0447055 0)
(-1.27793 -0.0582007 0)
(-1.26094 -0.0704909 0)
(-1.23719 -0.0816091 0)
(-1.20731 -0.0915925 0)
(-1.17187 -0.100491 0)
(-1.13148 -0.108369 0)
(-1.08666 -0.115304 0)
(-1.03791 -0.12139 0)
(-0.985696 -0.126732 0)
(-0.930402 -0.131455 0)
(-0.87237 -0.13569 0)
(-0.811862 -0.139569 0)
(-0.749098 -0.143212 0)
(-0.684233 -0.146707 0)
(-0.617405 -0.150072 0)
(-0.548758 -0.153211 0)
(-0.47851 -0.15586 0)
(-0.407046 -0.157495 0)
(-0.335023 -0.157244 0)
(-0.263539 -0.153769 0)
(-0.194297 -0.145212 0)
(-0.129761 -0.129273 0)
(-0.0733689 -0.103687 0)
(-0.0303074 -0.0674189 0)
(-0.00374627 -0.023037 0)
(-0.00477961 0.0406127 0)
(-0.0389324 0.114921 0)
(-0.0945878 0.176001 0)
(-0.168122 0.221615 0)
(-0.253439 0.253263 0)
(-0.34662 0.273834 0)
(-0.44479 0.286256 0)
(-0.5458 0.292932 0)
(-0.648089 0.295606 0)
(-0.750499 0.295454 0)
(-0.852144 0.293201 0)
(-0.952295 0.289251 0)
(-1.05031 0.2838 0)
(-1.14558 0.276909 0)
(-1.23749 0.268564 0)
(-1.32544 0.258725 0)
(-1.40876 0.247348 0)
(-1.48683 0.234405 0)
(-1.55897 0.21989 0)
(-1.62454 0.203821 0)
(-1.68287 0.186237 0)
(-1.73334 0.167203 0)
(-1.77535 0.14679 0)
(-1.80833 0.125085 0)
(-1.8317 0.102179 0)
(-1.845 0.0781648 0)
(-1.84773 0.0531341 0)
(-1.83946 0.0271766 0)
(-1.81981 0.000374638 0)
(-1.78839 -0.0271929 0)
(-1.74487 -0.0554549 0)
(-1.68897 -0.0843425 0)
(-1.62041 -0.113796 0)
(-1.53892 -0.143761 0)
(-1.4443 -0.174183 0)
(-1.33635 -0.205014 0)
(-1.21489 -0.23621 0)
(-1.07976 -0.267727 0)
(-0.930863 -0.299522 0)
(-0.768074 -0.331552 0)
(-0.591275 -0.36378 0)
(-0.400451 -0.396159 0)
(-0.195542 -0.428649 0)
(0.0234661 -0.461207 0)
(0.256578 -0.493787 0)
(0.503752 -0.526341 0)
(0.764948 -0.558821 0)
(1.04007 -0.591175 0)
(1.32902 -0.623351 0)
(1.63166 -0.655289 0)
(1.94781 -0.686931 0)
(2.27729 -0.718215 0)
(2.61986 -0.749072 0)
(2.97526 -0.779438 0)
(3.3432 -0.809236 0)
(3.72334 -0.838393 0)
(4.11533 -0.866829 0)
(4.51875 -0.894461 0)
(4.93316 -0.921208 0)
(5.35807 -0.946976 0)
(5.79298 -0.971679 0)
(6.23731 -0.995223 0)
(6.69046 -1.01751 0)
(7.15177 -1.03845 0)
(7.62059 -1.05795 0)
(8.09618 -1.07589 0)
(8.57774 -1.0922 0)
(9.06452 -1.10677 0)
(9.55565 -1.1195 0)
(10.0503 -1.1303 0)
(10.5474 -1.13908 0)
(11.0462 -1.14575 0)
(11.5456 -1.15024 0)
(12.0446 -1.15245 0)
(12.5422 -1.15231 0)
(13.0374 -1.14976 0)
(13.529 -1.14474 0)
(14.016 -1.13718 0)
(14.4973 -1.12705 0)
(14.9717 -1.1143 0)
(15.4381 -1.0989 0)
(15.8955 -1.08083 0)
(16.3427 -1.06008 0)
(16.7786 -1.03664 0)
(17.2021 -1.01052 0)
(17.6122 -0.981744 0)
(18.0076 -0.950326 0)
(18.3876 -0.916307 0)
(18.7509 -0.879734 0)
(19.0967 -0.840661 0)
(19.4239 -0.799156 0)
(19.7318 -0.755295 0)
(20.0194 -0.709162 0)
(20.2859 -0.660852 0)
(20.5306 -0.610469 0)
(20.7527 -0.558124 0)
(20.9517 -0.503938 0)
(21.1268 -0.448038 0)
(21.2775 -0.390562 0)
(21.4034 -0.331651 0)
(21.504 -0.271454 0)
(21.579 -0.210127 0)
(21.6281 -0.147832 0)
(21.6511 -0.0847355 0)
(21.6477 -0.0210079 0)
(21.618 0.043175 0)
(21.5619 0.107634 0)
(21.4794 0.172186 0)
(21.3708 0.236647 0)
(21.2361 0.300829 0)
(21.0756 0.364542 0)
(20.8897 0.427599 0)
(20.6787 0.489806 0)
(20.443 0.550977 0)
(20.1834 0.610919 0)
(19.9002 0.669449 0)
(19.5942 0.726374 0)
(19.2662 0.781516 0)
(18.9168 0.834696 0)
(18.5469 0.885738 0)
(18.1575 0.934475 0)
(17.7495 0.980738 0)
(17.3238 1.02437 0)
(16.8816 1.06523 0)
(16.424 1.10318 0)
(15.9521 1.13807 0)
(15.4671 1.1698 0)
(14.9702 1.19825 0)
(14.4628 1.22332 0)
(13.9461 1.24494 0)
(13.4214 1.26303 0)
(12.8901 1.27754 0)
(12.3536 1.28842 0)
(11.8132 1.29566 0)
(11.2703 1.29924 0)
(10.7263 1.29918 0)
(10.1826 1.2955 0)
(9.64061 1.28825 0)
(9.10159 1.27748 0)
(8.5669 1.26327 0)
(8.0379 1.24572 0)
(7.5158 1.22495 0)
(7.00188 1.20107 0)
(6.49729 1.17424 0)
(6.00319 1.14462 0)
(5.52065 1.11237 0)
(5.05071 1.07769 0)
(4.59431 1.04076 0)
(4.15233 1.00179 0)
(3.72559 0.96101 0)
(3.31481 0.91863 0)
(2.92064 0.874876 0)
(2.54366 0.829981 0)
(2.18434 0.784174 0)
(1.84309 0.737689 0)
(1.5202 0.690754 0)
(1.2159 0.643598 0)
(0.930336 0.596438 0)
(0.66355 0.549488 0)
(0.415513 0.502953 0)
(0.186107 0.457027 0)
(-0.0248415 0.411896 0)
(-0.217597 0.367732 0)
(-0.392484 0.324691 0)
(-0.549921 0.28292 0)
(-0.690345 0.242551 0)
(-0.81426 0.203698 0)
(-0.922236 0.166463 0)
(-1.01489 0.130937 0)
(-1.09285 0.0971888 0)
(-1.15681 0.0652802 0)
(-1.20746 0.0352561 0)
(-1.24556 0.00714797 0)
(-1.27185 -0.019025 0)
(-1.28707 -0.0432588 0)
(-1.29204 -0.0655598 0)
(-1.28748 -0.0859521 0)
(-1.2742 -0.104474 0)
(-1.25293 -0.12118 0)
(-1.22442 -0.136143 0)
(-1.18938 -0.149459 0)
(-1.14847 -0.161243 0)
(-1.10233 -0.171635 0)
(-1.05153 -0.180801 0)
(-0.996561 -0.188927 0)
(-0.937893 -0.196212 0)
(-0.875876 -0.202854 0)
(-0.810814 -0.20904 0)
(-0.74294 -0.214896 0)
(-0.672449 -0.220457 0)
(-0.599559 -0.225588 0)
(-0.524541 -0.229912 0)
(-0.447831 -0.232688 0)
(-0.370141 -0.232689 0)
(-0.292628 -0.228051 0)
(-0.217078 -0.216185 0)
(-0.146083 -0.193866 0)
(-0.0833637 -0.157747 0)
(-0.0348294 -0.105612 0)
(-0.00435608 -0.0385255 0)
(-0.00523797 0.0598508 0)
(-0.0426073 0.162912 0)
(-0.103143 0.244748 0)
(-0.182651 0.304964 0)
(-0.27436 0.346499 0)
(-0.374032 0.373431 0)
(-0.478621 0.389635 0)
(-0.585877 0.398212 0)
(-0.694151 0.401413 0)
(-0.802213 0.400738 0)
(-0.909097 0.397122 0)
(-1.01399 0.391089 0)
(-1.11615 0.382883 0)
(-1.21488 0.372577 0)
(-1.30946 0.360152 0)
(-1.39917 0.345547 0)
(-1.48324 0.3287 0)
(-1.56092 0.309571 0)
(-1.63142 0.288148 0)
(-1.69397 0.264454 0)
(-1.74779 0.238549 0)
(-1.79215 0.210509 0)
(-1.8263 0.180443 0)
(-1.84956 0.148469 0)
(-1.86129 0.114714 0)
(-1.86086 0.0793115 0)
(-1.84771 0.042389 0)
(-1.82132 0.00407938 0)
(-1.78119 -0.035501 0)
(-1.72686 -0.0762338 0)
(-1.65794 -0.118016 0)
(-1.57405 -0.160746 0)
(-1.47485 -0.204332 0)
(-1.36005 -0.24869 0)
(-1.22936 -0.293737 0)
(-1.08255 -0.3394 0)
(-0.919413 -0.385609 0)
(-0.739743 -0.43229 0)
(-0.543419 -0.479378 0)
(-0.330311 -0.526805 0)
(-0.100313 -0.574506 0)
(0.146626 -0.622411 0)
(0.41055 -0.670452 0)
(0.691457 -0.718558 0)
(0.989321 -0.766656 0)
(1.30406 -0.81467 0)
(1.63562 -0.86252 0)
(1.98384 -0.910126 0)
(2.34856 -0.957399 0)
(2.72958 -1.00425 0)
(3.12665 -1.05059 0)
(3.5395 -1.09631 0)
(3.96779 -1.14132 0)
(4.41118 -1.1855 0)
(4.86926 -1.22874 0)
(5.34155 -1.27094 0)
(5.82757 -1.31196 0)
(6.32678 -1.35168 0)
(6.83859 -1.38998 0)
(7.36231 -1.42672 0)
(7.89732 -1.46177 0)
(8.44284 -1.49499 0)
(8.99812 -1.52625 0)
(9.56234 -1.55539 0)
(10.1345 -1.58227 0)
(10.7137 -1.60677 0)
(11.2992 -1.62874 0)
(11.8897 -1.64803 0)
(12.4841 -1.66452 0)
(13.0816 -1.67807 0)
(13.6809 -1.68856 0)
(14.2807 -1.69586 0)
(14.88 -1.69987 0)
(15.4774 -1.70046 0)
(16.0719 -1.69756 0)
(16.6619 -1.69106 0)
(17.2463 -1.6809 0)
(17.8236 -1.667 0)
(18.3928 -1.6493 0)
(18.9522 -1.62777 0)
(19.5009 -1.60237 0)
(20.0373 -1.57308 0)
(20.5602 -1.53992 0)
(21.0683 -1.50287 0)
(21.5603 -1.46198 0)
(22.0351 -1.41727 0)
(22.4913 -1.36881 0)
(22.928 -1.31666 0)
(23.344 -1.2609 0)
(23.7379 -1.20163 0)
(24.1091 -1.13896 0)
(24.4564 -1.07301 0)
(24.7789 -1.00392 0)
(25.0759 -0.931834 0)
(25.3464 -0.856917 0)
(25.5897 -0.779339 0)
(25.8052 -0.699282 0)
(25.9922 -0.616937 0)
(26.1503 -0.532509 0)
(26.279 -0.446206 0)
(26.3779 -0.358246 0)
(26.4466 -0.268856 0)
(26.4852 -0.178269 0)
(26.4931 -0.0867212 0)
(26.4706 0.00554217 0)
(26.4174 0.0982739 0)
(26.3338 0.191221 0)
(26.2198 0.284129 0)
(26.0757 0.376741 0)
(25.9017 0.468798 0)
(25.6983 0.560038 0)
(25.4659 0.650205 0)
(25.2049 0.739031 0)
(24.9161 0.826264 0)
(24.6 0.91165 0)
(24.2573 0.994926 0)
(23.8889 1.07585 0)
(23.4955 1.15417 0)
(23.0782 1.22965 0)
(22.6377 1.30205 0)
(22.1753 1.37114 0)
(21.6919 1.43672 0)
(21.1887 1.49856 0)
(20.667 1.55648 0)
(20.128 1.61027 0)
(19.5727 1.65978 0)
(19.0028 1.70482 0)
(18.4195 1.74527 0)
(17.8242 1.78099 0)
(17.2183 1.81186 0)
(16.6034 1.8378 0)
(15.9807 1.85872 0)
(15.3521 1.87457 0)
(14.7188 1.88532 0)
(14.0824 1.89095 0)
(13.4445 1.89148 0)
(12.8065 1.88693 0)
(12.1701 1.87735 0)
(11.5366 1.86284 0)
(10.9077 1.8435 0)
(10.2846 1.81944 0)
(9.66891 1.79082 0)
(9.06197 1.75781 0)
(8.46509 1.7206 0)
(7.8796 1.67941 0)
(7.30671 1.63446 0)
(6.74759 1.58601 0)
(6.20335 1.53433 0)
(5.67501 1.47968 0)
(5.16352 1.42239 0)
(4.66975 1.36272 0)
(4.19448 1.30102 0)
(3.73842 1.23758 0)
(3.30215 1.17273 0)
(2.88619 1.1068 0)
(2.49095 1.04011 0)
(2.11676 0.97297 0)
(1.76383 0.905692 0)
(1.43229 0.838584 0)
(1.12218 0.771929 0)
(0.833457 0.706016 0)
(0.565953 0.641104 0)
(0.319465 0.577445 0)
(0.0936536 0.51527 0)
(-0.111857 0.454793 0)
(-0.297507 0.396209 0)
(-0.463844 0.339694 0)
(-0.611464 0.285402 0)
(-0.740986 0.23347 0)
(-0.853129 0.184013 0)
(-0.948628 0.137127 0)
(-1.02825 0.0928874 0)
(-1.09283 0.0513538 0)
(-1.14319 0.0125625 0)
(-1.1802 -0.0234666 0)
(-1.20474 -0.0567366 0)
(-1.21769 -0.0872658 0)
(-1.21993 -0.115101 0)
(-1.21234 -0.14031 0)
(-1.19578 -0.162993 0)
(-1.17105 -0.183272 0)
(-1.13897 -0.201308 0)
(-1.10028 -0.217292 0)
(-1.05568 -0.231448 0)
(-1.00577 -0.244036 0)
(-0.951106 -0.255333 0)
(-0.892145 -0.265604 0)
(-0.829269 -0.27512 0)
(-0.762789 -0.284058 0)
(-0.692968 -0.292465 0)
(-0.620076 -0.300188 0)
(-0.544435 -0.306739 0)
(-0.466512 -0.311169 0)
(-0.38705 -0.311895 0)
(-0.307234 -0.30652 0)
(-0.228897 -0.291694 0)
(-0.154734 -0.263172 0)
(-0.088696 -0.216331 0)
(-0.0372141 -0.147436 0)
(-0.0046626 -0.0556683 0)
(-0.00548982 0.0804395 0)
(-0.0447696 0.214175 0)
(-0.108337 0.317937 0)
(-0.19162 0.393308 0)
(-0.287351 0.44489 0)
(-0.391018 0.478119 0)
(-0.499409 0.497905 0)
(-0.610171 0.508104 0)
(-0.721582 0.511476 0)
(-0.832344 0.509857 0)
(-0.941424 0.50438 0)
(-1.04793 0.49568 0)
(-1.15105 0.484046 0)
(-1.24998 0.469559 0)
(-1.34391 0.452182 0)
(-1.43203 0.431834 0)
(-1.51346 0.408428 0)
(-1.58733 0.381907 0)
(-1.65274 0.352255 0)
(-1.70883 0.319501 0)
(-1.75467 0.283714 0)
(-1.78944 0.245001 0)
(-1.81227 0.203498 0)
(-1.82239 0.15936 0)
(-1.81902 0.112759 0)
(-1.80146 0.0638644 0)
(-1.76902 0.0128555 0)
(-1.7211 -0.0400983 0)
(-1.65713 -0.0948294 0)
(-1.57657 -0.151182 0)
(-1.47892 -0.209011 0)
(-1.36375 -0.268175 0)
(-1.23069 -0.328546 0)
(-1.07933 -0.390002 0)
(-0.909379 -0.452427 0)
(-0.720557 -0.515712 0)
(-0.51261 -0.579751 0)
(-0.285332 -0.644445 0)
(-0.0385566 -0.709687 0)
(0.227847 -0.775385 0)
(0.513973 -0.841432 0)
(0.819884 -0.907726 0)
(1.14558 -0.974165 0)
(1.49109 -1.04064 0)
(1.85629 -1.10706 0)
(2.24111 -1.17328 0)
(2.64539 -1.23921 0)
(3.06895 -1.3047 0)
(3.51155 -1.36965 0)
(3.9729 -1.43391 0)
(4.45267 -1.49735 0)
(4.95049 -1.55982 0)
(5.46592 -1.62118 0)
(5.99846 -1.68126 0)
(6.54761 -1.73992 0)
(7.11269 -1.79697 0)
(7.69318 -1.85226 0)
(8.28831 -1.90561 0)
(8.89732 -1.95682 0)
(9.51937 -2.00573 0)
(10.1536 -2.05214 0)
(10.7992 -2.09587 0)
(11.455 -2.13671 0)
(12.12 -2.17449 0)
(12.7932 -2.209 0)
(13.4734 -2.24006 0)
(14.1595 -2.26748 0)
(14.85 -2.29108 0)
(15.5439 -2.31067 0)
(16.2397 -2.3261 0)
(16.9362 -2.33719 0)
(17.6317 -2.3438 0)
(18.325 -2.34577 0)
(19.0147 -2.34298 0)
(19.6992 -2.3353 0)
(20.377 -2.32264 0)
(21.0466 -2.3049 0)
(21.7065 -2.28202 0)
(22.3553 -2.25392 0)
(22.9915 -2.22058 0)
(23.6133 -2.18198 0)
(24.2196 -2.13811 0)
(24.8086 -2.08898 0)
(25.3793 -2.03464 0)
(25.93 -1.97515 0)
(26.4594 -1.91056 0)
(26.9665 -1.84099 0)
(27.4495 -1.76654 0)
(27.9076 -1.68734 0)
(28.3397 -1.60355 0)
(28.7446 -1.51533 0)
(29.1212 -1.42287 0)
(29.4687 -1.32637 0)
(29.7863 -1.22603 0)
(30.073 -1.1221 0)
(30.3282 -1.01482 0)
(30.5513 -0.904444 0)
(30.7418 -0.791239 0)
(30.899 -0.675483 0)