/*--------------------------------*- C++ -*----------------------------------*\
  =========                 |
  \\      /  F ield         | OpenFOAM: The Open Source CFD Toolbox
   \\    /   O peration     | Website:  https://openfoam.org
    \\  /    A nd           | Version:  6
     \\/     M anipulation  |
\*---------------------------------------------------------------------------*/
FoamFile
{
    version     2.0;
    format      ascii;
    class       volScalarField;
    location    "0";
    object      P_rec;
}
// * * * * * * * * * * * * * * * * * * * * * * * * * * * * * * * * * * * * * //

dimensions      [0 2 -2 0 0 0 0];

internalField   nonuniform List<scalar> 
918
(
0.554388
0.279804
0.105849
0.573203
-0.00299958
0.178241
-0.787826
0.513664
0.576964
-0.116986
0.030612
0.449732
0.0375984
0.0184185
-1.23219
0.0211549
0.572454
-0.723385
0.41211
0.0238464
-0.0506875
0.577845
0.510978
0.408736
0.494941
-0.0558894
0.107536
-0.0329228
-0.0530331
-0.0406049
-0.0041316
0.045081
0.00710807
0.174729
0.149228
0.18413
0.418831
0.20496
-0.653464
-0.705261
-0.696256
-0.863308
0.522857
0.536004
-0.287804
0.491926
0.466905
0.421617
0.556646
0.579638
0.515053
0.559911
0.586779
0.277855
-0.158841
-0.228997
-0.0763835
-0.0796027
0.0744423
0.023294
0.00779387
0.0582828
0.0451429
0.369676
0.441194
0.435995
0.460508
0.460119
0.24155
0.192008
0.234068
0.0386002
0.15908
0.00779427
0.118626
0.0197323
0.0568685
-0.00402662
-0.0202338
-1.5036
-2.26142
-0.760189
-0.622322
0.00663166
0.0232078
0.0317937
0.560873
0.562489
0.558496
0.567993
0.71537
-0.652734
-0.83773
0.445444
0.444536
0.563435
0.518878
0.462233
0.397689
0.0215488
0.0174639
0.0119406
0.0397689
0.0308568
0.11798
0.228781
0.387206
0.420792
0.460098
0.485426
0.473315
0.202815
0.532929
0.533614
-0.0971537
0.0721619
-0.061196
0.0183037
0.117116
0.0834966
0.18859
0.228831
-0.0583641
-0.0107454
0.0359526
0.000801628
0.0255263
0.417878
0.408142
0.431476
0.42149
0.427318
0.105937
0.00500868
0.281449
0.318831
-0.532734
-0.572314
-0.753294
-0.776942
-0.894457
0.468958
0.539568
0.555429
-0.392253
-0.260268
-0.428915
-0.175646
-0.222093
0.425479
0.417406
0.417968
0.425845
0.428584
0.429884
0.565689
0.558682
0.591929
0.282595
0.357515
0.262902
0.214583
-0.449986
-0.316617
-0.430011
-0.0519433
-0.0167358
0.0633005
0.0985385
0.109056
0.0813029
-0.0149536
0.00321183
-0.00782854
0.0159244
0.0191448
0.373341
0.357814
0.371119
0.381072
0.435393
0.433812
0.438283
0.441135
0.195208
0.183268
0.141551
0.118227
-3.05685
-5.22444
-0.42624
-0.331028
-0.00225569
-0.0118527
-0.00443913
-0.0804343
-0.0144668
-0.0413922
0.0699476
0.0435596
0.0332699
0.0528645
0.557603
0.569175
0.71799
0.754018
0.633625
0.633363
0.440618
0.450713
0.44659
0.448405
0.0339762
0.0177485
0.0347932
0.432734
0.329064
0.381136
0.169396
0.0759464
0.25084
0.29009
0.559194
0.542892
0.565699
-0.0989993
-0.0132921
0.328449
0.0834805
0.317671
0.150213
0.103282
0.132877
0.0798462
0.38628
0.403987
0.400242
0.429096
0.43541
0.435773
0.437164
0.429855
0.433711
-0.153508
-0.451279
0.400402
0.406278
0.361076
0.400575
0.541685
0.609113
0.560908
0.550276
0.560794
-0.077116
-0.114395
0.165144
0.15018
0.320608
0.336508
0.326459
0.11451
0.0732585
0.112398
0.0981521
0.0739895
0.124735
-0.419127
-1.78989
-1.01983
-0.129226
-0.218419
-0.184566
0.0415668
0.10412
0.0717078
0.723645
0.768057
0.399126
0.555993
0.508391
-0.121299
-0.0452858
0.0597529
-0.0620319
-0.0154294
0.0657773
0.0189488
0.380901
0.35864
0.37061
0.637362
0.705886
0.0392628
-0.0236671
-0.0643169
0.121862
0.119246
0.113946
0.750803
0.707692
0.748182
0.395335
0.385584
-0.0557491
-0.00431822
0.494504
0.51945
-0.0571646
-0.0250647
-0.123649
-0.828298
0.0360951
0.447413
0.406511
0.460525
-0.142926
0.187401
0.00300408
0.0219837
-0.0247756
0.422258
0.351974
0.319526
-0.0580849
0.00883681
-0.00103191
-0.430316
0.454174
0.438652
0.445791
0.45666
0.470287
-0.00719407
-0.0139986
0.0295246
-0.0357687
0.0405453
0.0372883
0.42842
0.417819
-0.442577
0.439705
0.463174
0.462569
0.475367
0.476843
0.465618
-0.0143973
0.0315984
0.0359186
0.140323
0.248649
-0.014545
-0.0556077
-0.00210535
-0.137801
-0.329735
-0.0544623
-0.0391514
-0.0541786
-0.0249773
0.52531
0.491615
0.119016
-0.0612779
0.110609
0.0735087
0.442467
0.459702
0.434007
0.445016
0.462923
0.415574
0.477858
0.447616
0.444829
0.486532
-0.101278
-0.0424108
-0.0963368
-0.221457
0.272856
0.354948
0.170103
0.242448
0.0919501
-0.0137398
0.0415989
-0.0229526
-0.00378009
0.0007076
0.10242
0.0336585
0.133896
0.0202524
0.107133
-0.0374359
0.131962
-0.00614655
0.406007
0.425222
0.422037
0.46219
0.384359
0.401087
0.377624
0.377587
0.396584
0.328079
0.346115
0.345208
0.0128843
0.0119911
0.0424934
0.0243181
0.0441866
-0.030162
-0.0289811
-0.0282622
-0.00597164
-0.0488137
-0.00737352
-0.00254683
-0.365516
-0.525776
0.666947
0.549255
0.0184535
0.416299
0.458058
0.432258
0.46988
0.480423
0.511757
0.477417
0.454644
0.424231
0.439419
0.422086
0.439981
-0.36593
-0.438369
-0.284772
-0.336207
0.125251
0.540199
0.295998
0.242374
0.234471
0.403551
0.322919
0.0753944
-0.153652
-0.261979
-0.551403
-0.399844
-0.567309
-0.107787
-0.0620871
-0.093134
-0.0113683
0.063194
-0.00253421
-0.0217193
-0.118065
0.429615
-0.185958
-0.166495
0.0578279
-0.0227259
0.235561
0.525673
0.535413
0.469394
0.44776
0.509152
0.48364
0.48212
0.513031
0.519591
0.421753
0.187761
0.172321
0.108437
0.532322
0.44446
0.479423
0.368607
0.461966
0.466258
0.445973
0.436981
0.471819
0.435463
0.431001
0.409831
0.403465
0.441205
0.444769
0.415559
-0.014566
-0.0261882
-0.10526
-0.323329
-0.183752
-0.283331
-0.14694
0.0328212
-0.0508267
0.0547139
0.243097
0.0040117
-0.256692
-0.0968499
-0.227911
0.0850596
-0.0133173
0.101289
0.12514
0.122679
0.1188
0.189192
0.162956
0.0318249
0.0382327
0.0632713
-0.00943955
0.12542
0.0846207
0.145164
0.0598558
0.109776
0.0631465
0.0267185
-0.00703447
0.0920031
0.0439712
-0.00751221
0.0286368
0.0176489
-0.0680438
-0.065434
0.174126
0.0460524
0.446948
0.431091
0.432828
0.449984
0.482815
0.476027
0.422386
0.424683
0.449426
0.421927
0.391546
0.373328
0.366357
0.396603
0.407915
0.404351
0.445143
0.436076
0.407511
0.42811
0.3745
0.394083
0.349137
0.366128
0.391889
-0.0959521
0.0190059
-0.038899
-0.045024
0.0107349
0.0478387
0.107799
0.0322807
0.116042
0.0881656
0.060155
0.0271618
0.0549727
-0.262108
-0.164819
-0.383668
-0.44963
-0.535459
0.641743
0.704829
0.580168
0.420399
0.475403
0.582279
0.676089
0.399924
0.428495
0.507266
0.354785
0.619808
0.44278
0.428869
0.449339
0.468325
0.445352
-0.218755
-0.0815677
-0.0357452
0.0656435
0.197368
0.257958
0.113828
0.0337533
0.143089
0.15598
0.521526
0.5412
0.507414
0.539265
0.533838
0.338145
0.428323
0.458851
0.452493
0.456924
0.478483
0.48065
0.477658
0.410575
0.405492
0.411144
0.366357
0.390688
0.364245
0.36219
0.419629
0.398473
0.40062
0.410737
0.457761
0.439664
0.465804
0.509764
0.49033
0.39278
0.372549
0.396687
0.407784
0.385546
0.384183
0.380431
0.144422
0.176689
0.086985
-0.128076
0.0062994
-0.0570263
-0.107305
-0.0885394
0.0654094
-0.435627
-0.371991
-0.89152
0.320523
0.392816
0.18329
-0.0764153
0.427126
0.459942
0.444872
0.351919
0.363276
0.516943
0.538937
0.547377
0.471499
0.468109
0.486484
0.473694
0.422639
0.299721
0.240095
0.273337
0.113766
0.171828
0.330656
0.271659
0.225832
0.255121
0.348282
0.255832
0.284105
0.356111
0.318781
0.306742
0.436738
0.481547
0.498338
0.442769
0.352208
0.408845
0.396939
0.444429
0.485389
0.489427
0.445978
0.428623
0.437818
0.429047
0.418909
0.435744
0.406459
0.451134
0.45668
0.464327
0.457885
-0.0209365
0.00105463
0.0122689
-0.0302899
-0.0422541
-0.0874501
-0.0730223
-0.0979015
0.0558983
0.0280244
-0.0594884
-0.0241943
0.0735158
0.0268321
0.0873365
0.105005
0.0551002
-0.00302793
0.184081
0.340403
0.315674
0.273104
0.176738
0.192825
0.290287
0.0260315
0.118334
0.072044
0.0385187
0.0321351
0.015933
0.106639
0.0469912
0.0861133
0.0385758
-0.11075
0.045107
0.0974424
-0.048775
0.00968035
0.042714
0.411229
0.41325
0.396756
0.377501
0.385828
0.384804
0.421546
0.444928
0.447924
0.446614
0.452209
0.435791
0.442233
0.00954084
0.124081
0.151474
0.0931939
0.0433798
-0.00514243
-0.0193376
-0.0231669
-0.13668
-0.0851706
-0.234289
-0.305296
-0.259806
0.287954
0.296692
0.306248
0.563833
0.406796
0.323159
0.409258
0.527175
0.180201
0.309975
0.172828
0.627937
0.560104
0.659576
0.400144
0.0379602
0.128561
0.268571
0.0145806
0.0129888
0.121458
0.115898
0.120192
0.119991
0.204059
0.187236
0.179588
0.0875229
0.101707
0.229338
0.205418
0.305251
0.36378
0.0415956
0.0860913
0.00552266
0.496956
0.522007
0.544273
0.517729
0.537418
0.476931
0.475444
0.506896
0.531339
0.520143
-0.737561
-0.470615
-1.32668
-0.650837
-0.351597
0.412972
0.162159
0.756178
0.599366
0.46603
0.491127
0.494657
0.456549
0.510922
0.512243
0.264996
0.358189
0.30264
0.339936
0.253484
0.180315
0.478323
0.467593
0.49285
0.513934
0.469706
0.51278
0.370303
0.410169
0.393053
0.426233
0.447919
0.466948
0.0705321
0.00973541
0.0519318
0.0440552
0.0329487
0.00793891
-0.0458983
-0.0145683
0.166035
0.105049
0.0490869
0.104748
-0.0690357
-0.0890366
-0.2041
-0.1476
-0.168896
-0.302061
-0.281473
-0.271825
-0.177189
-0.0849207
0.306873
0.502062
0.381645
0.544213
0.358071
0.520437
0.320801
0.359811
0.373173
0.268976
0.29881
-0.0278352
-0.316405
-0.230398
0.817993
0.910164
0.565113
0.302059
0.0599961
0.375639
0.445424
0.377978
0.397891
0.478482
0.441374
-0.122869
-0.0304467
-0.0789471
-0.00298101
0.14387
0.0625372
0.0765065
0.0658324
0.0744218
)
;

boundaryField
{
    wall-4
    {
        type            calculated;
        value           nonuniform List<scalar> 
100
(
0.554388
0.279804
0.105849
0.573203
0.178241
-0.787826
0.513664
-0.116986
0.030612
0.449732
0.0375984
0.0184185
-1.23219
0.572454
-0.723385
0.41211
0.0238464
-0.0506875
0.408736
0.494941
-0.0558894
0.107536
-0.0329228
0.174729
0.418831
-0.705261
-0.863308
0.536004
-0.287804
0.466905
0.421617
-0.228997
-0.0796027
0.00779387
0.0451429
0.369676
0.435995
0.460119
0.15908
0.118626
0.0568685
-0.0202338
-2.26142
-0.622322
0.562489
0.567993
-0.83773
0.444536
0.397689
0.0174639
0.0308568
0.228781
0.420792
0.473315
0.202815
0.533614
-0.0971537
0.0183037
0.0834966
0.228831
0.408142
0.431476
0.427318
-0.572314
-0.894457
0.555429
-0.428915
-0.222093
0.417968
0.429884
-0.430011
-0.0167358
-0.00782854
0.0191448
0.357814
0.381072
0.435393
0.441135
0.118227
-0.331028
0.569175
0.440618
0.448405
0.0347932
0.381136
0.0759464
0.29009
0.565699
-0.0132921
0.150213
0.400242
0.435773
0.433711
0.560794
-0.114395
0.326459
0.0981521
-0.184566
-0.0154294
-0.0643169
)
;
    }
    velocity-inlet-5
    {
        type            calculated;
        value           nonuniform List<scalar> 8(0.554388 0.573203 0.576964 0.577845 0.579638 0.586779 0.563435 0.591929);
    }
    velocity-inlet-6
    {
        type            calculated;
        value           nonuniform List<scalar> 4(0.279804 0.178241 0.18413 0.234068);
    }
    pressure-outlet-7
    {
        type            calculated;
        value           uniform 0;
    }
    wall-8
    {
        type            calculated;
        value           nonuniform List<scalar> 
34
(
-0.00299958
0.0211549
0.00710807
0.20496
0.277855
0.0744423
0.0317937
0.71537
0.0255263
0.00500868
0.318831
0.468958
0.357515
0.214583
0.0985385
0.0813029
-5.22444
0.0699476
0.0528645
0.754018
0.633363
-0.451279
0.400402
0.400575
0.609113
0.15018
-1.01983
0.0717078
0.768057
0.508391
0.37061
0.705886
0.113946
0.748182
)
;
    }
    frontAndBackPlanes
    {
        type            empty;
    }
}

