/*--------------------------------*- C++ -*----------------------------------*\
  =========                 |
  \\      /  F ield         | OpenFOAM: The Open Source CFD Toolbox
   \\    /   O peration     | Website:  https://openfoam.org
    \\  /    A nd           | Version:  6
     \\/     M anipulation  |
\*---------------------------------------------------------------------------*/
FoamFile
{
    version     2.0;
    format      ascii;
    class       volVectorField;
    location    "0";
    object      U_rec;
}
// * * * * * * * * * * * * * * * * * * * * * * * * * * * * * * * * * * * * * //

dimensions      [0 1 -1 0 0 0 0];

internalField   nonuniform List<vector> 
918
(
(0.985281 -0.00410437 0)
(-0.00918525 2.98984 0)
(-0.0134258 1.70273 0)
(0.977521 0.00688357 0)
(-0.00731895 1.66417 5.74175e-17)
(0.00398093 2.9811 -3.00555e-17)
(0.94202 1.42375 3.31169e-18)
(0.47577 0.243493 2.38683e-19)
(0.995915 0.000140312 0)
(0.0306573 1.58029 0)
(-0.00388458 1.57867 0)
(0.892925 -0.00292993 0)
(-0.00230197 2.98794 0)
(0.0047385 2.89207 0)
(-0.000628529 2.90372 1.7129e-17)
(-0.00650209 1.63004 3.44276e-17)
(0.645582 0.135764 5.89463e-19)
(0.189687 1.64162 -3.77026e-17)
(0.981905 0.00732008 0)
(0.00629846 1.63625 0)
(-0.00182 0.0155717 5.26924e-18)
(0.98587 0.00874035 0)
(1.00258 0.00993682 0)
(1.01519 1.40365e-05 0)
(0.808205 -0.00223676 0)
(0.0177157 2.92889 0)
(-0.00789725 2.94106 -9.25836e-17)
(-0.0106597 1.72678 0)
(0.00157975 1.76529 0)
(-0.0118565 1.72345 0)
(-0.00796388 1.78816 0)
(-0.00939297 1.67676 5.72098e-17)
(-0.00639781 1.63447 0)
(0.00462696 3.01045 5.31887e-22)
(0.00599439 3.02255 -5.49434e-17)
(0.0206259 3.00903 0)
(0.932728 -0.00433542 0)
(0.592086 1.11675 -1.12406e-17)
(0.961526 1.4318 -9.73723e-18)
(1.07836 1.26596 2.43656e-17)
(0.815584 1.5563 9.76323e-18)
(0.778859 1.54078 1.4487e-17)
(0.497656 0.310419 6.69739e-20)
(0.528725 0.231097 0)
(1.27487 0.681054 0)
(0.423449 0.322412 9.73661e-20)
(0.408543 0.230045 8.69516e-19)
(0.955668 -0.00228596 0)
(0.996062 0.00261886 0)
(0.996039 0.00337027 0)
(0.990257 0.00223399 0)
(0.980949 0.00916435 0)
(0.996922 0.0132127 0)
(0.029546 1.58392 3.76717e-18)
(0.0203059 1.66623 0)
(0.0390909 1.58735 0)
(0.0128727 1.68256 0)
(0.0153106 1.59854 0)
(-0.00759598 1.65628 0)
(-0.00593157 1.66397 0)
(-0.00209623 1.58146 0)
(-0.0139034 1.67303 0)
(-0.00774627 1.59091 0)
(0.964172 0.00366332 0)
(0.935118 0.00976122 0)
(0.907576 0.000822465 0)
(0.92615 0.0110973 0)
(0.879707 -0.000647225 0)
(-0.0197115 3.04414 2.54981e-17)
(-0.00216576 2.97365 0)
(-0.0285499 3.02014 0)
(0.0280669 3.04013 -5.35777e-23)
(-0.00265308 3.02687 3.82431e-17)
(0.0168725 3.01143 0)
(0.00316291 2.95746 0)
(0.00347011 2.96684 -1.32791e-23)
(0.00433357 2.89879 0)
(0.00713343 2.97375 0)
(0.00825712 2.87962 0)
(0.271408 3.18468 0)
(-0.0659643 3.26439 0)
(0.0917615 2.96341 7.8091e-18)
(0.000695722 2.80625 0)
(0.00229042 1.75998 0)
(-0.00339503 1.68983 3.34884e-17)
(-0.0015689 1.63425 3.44891e-17)
(0.685939 0.169383 -4.78569e-18)
(0.674272 0.0968854 2.21587e-18)
(0.644051 0.206943 2.04201e-17)
(0.62109 0.166473 -9.27072e-18)
(0.219528 1.30289 0)
(0.244118 1.69276 -4.46435e-17)
(0.377103 1.63492 -3.80604e-17)
(0.993955 0.00604928 0)
(0.969739 0.0037937 0)
(0.994993 -0.00625556 0)
(1.00089 0.000550578 0)
(1.00476 0.0148218 1.406e-16)
(1.00637 0.0148382 1.22747e-16)
(-0.00258804 1.69205 0)
(0.000764479 1.63554 0)
(-0.00463205 1.72832 0)
(-0.0107604 1.70285 0)
(-9.73129e-05 1.64782 0)
(-0.0200981 0.249992 -2.56208e-18)
(0.179607 0.169039 0)
(1.01421 -0.0153442 0)
(0.983299 -0.00310908 0)
(0.902575 0.0277573 0)
(0.863596 0.045165 0)
(0.848801 0.00846132 0)
(1.09109 0.00156679 0)
(0.819788 0.0365394 0)
(0.753821 -0.0104001 2.15769e-17)
(-0.0183478 2.87634 2.25836e-17)
(0.00664606 2.98372 0)
(-0.0503393 3.02498 0)
(0.00522091 2.87017 0)
(-0.00672484 2.98399 -3.41315e-17)
(-0.00256571 2.93016 0)
(-0.0126311 2.98752 -1.40066e-17)
(-0.0144511 2.95103 2.4123e-17)
(0.00458964 1.77893 0)
(0.00050799 1.77871 0)
(0.00139182 1.69251 -3.47138e-21)
(-0.00379577 1.68557 0)
(-9.36254e-05 1.6317 0)
(0.965562 0.000816961 0)
(0.933166 0.000416748 0)
(0.922044 0.00206245 0)
(0.966819 -0.00142027 0)
(0.937632 -0.00124052 0)
(0.65025 1.23401 -4.97597e-18)
(0.734786 1.27471 0)
(0.521198 1.07096 -1.31117e-18)
(0.481664 0.999282 0)
(1.07677 1.27286 1.76466e-17)
(1.18501 1.06826 3.47634e-18)
(0.446373 1.68205 0)
(0.650762 1.64498 0)
(0.575916 1.61278 0)
(0.297337 0.526191 -5.60478e-18)
(0.548517 0.294133 0)
(0.569654 0.218639 -4.20235e-18)
(1.15778 1.092 0)
(1.22122 0.892777 0)
(1.24225 0.863073 -3.62243e-18)
(1.27285 0.708552 0)
(1.29786 0.50517 -2.89689e-17)
(0.972229 0.00289217 0)
(0.975138 -0.00448162 0)
(0.945993 -0.00181904 0)
(0.99809 -0.00734327 0)
(0.987849 -0.00720701 0)
(0.970345 -0.00121999 0)
(0.987894 -0.00375858 0)
(0.986444 -0.000309654 0)
(0.996959 -0.00171227 0)
(0.0305478 1.62907 3.01032e-17)
(0.0378506 1.549 0)
(0.0296087 1.66398 -3.01114e-18)
(0.019003 1.61067 3.43139e-18)
(0.0813556 1.67229 -4.27202e-17)
(0.0287455 1.66277 0)
(0.0584315 1.59917 0)
(0.00530111 1.69615 0)
(0.0152772 1.58399 0)
(-0.00638739 1.70177 2.50128e-20)
(0.00595168 1.65486 0)
(-0.00723263 1.70383 -3.27105e-17)
(0.00218277 1.65681 -2.04463e-18)
(0.0118858 1.6839 0)
(0.00130706 1.67062 0)
(0.0100495 1.57891 0)
(-0.0122001 1.68396 0)
(-0.00697868 1.60996 0)
(1.00361 0.0189585 0)
(0.981372 0.00700589 0)
(0.987921 0.00901143 0)
(0.954176 0.00257438 0)
(0.913269 -0.00507568 0)
(0.951587 0.00259056 0)
(0.94483 0.00991076 0)
(0.908907 0.00138394 0)
(0.011161 3.03949 4.52789e-20)
(0.0165087 3.03393 0)
(0.00738513 2.99359 0)
(0.00420916 2.93917 0)
(0.979705 3.69702 0)
(1.35022 2.75142 -1.40476e-18)
(0.00909638 2.88219 0)
(-0.0113712 2.80294 0)
(-0.00479462 1.77198 0)
(-0.00372311 1.76268 0)
(-0.00395177 1.76496 0)
(-0.00327989 1.77707 -7.6453e-17)
(-0.00487498 1.76231 0)
(0.0026227 1.76912 0)
(0.00328998 1.63942 -6.79319e-17)
(0.003237 1.69946 -3.46836e-17)
(-0.00497822 1.69517 3.33124e-17)
(-0.00157025 1.63756 0)
(0.714189 0.138034 -1.86422e-17)
(0.710625 0.0736344 -1.1574e-17)
(0.203615 1.35048 0)
(0.273145 1.1785 7.15178e-19)
(0.137678 1.44253 -2.70119e-17)
(0.140344 1.41172 -3.16868e-17)
(0.948379 0.00762933 0)
(0.980426 0.00753327 0)
(0.985157 0.00883578 0)
(0.957312 0.00723847 0)
(-0.0106106 1.69081 0)
(0.000159071 1.6905 0)
(-0.00350191 1.62435 0)
(0.34592 0.323962 -1.6553e-18)
(0.214681 0.288918 1.35174e-18)
(0.311323 0.208632 0)
(1.18262 0.102834 -5.91094e-19)
(1.18768 0.0564816 0)
(1.09518 0.0478469 0)
(1.03352 0.00081966 0)
(0.738041 0.0991208 0)
(0.770807 0.0495222 3.37691e-17)
(0.725109 0.039298 -2.1877e-17)
(-0.0148029 2.95657 -3.40182e-17)
(-0.00719669 2.90537 -5.76899e-17)
(0.00827211 3.02873 8.62913e-20)
(0.0344979 3.01658 -3.68241e-17)
(-0.0174338 3.00047 -1.82738e-19)
(-0.0146562 2.97981 6.94365e-22)
(-0.0130535 3.02864 -3.27191e-18)
(-0.000622486 2.98835 -8.38983e-18)
(0.0508867 3.02084 -2.94582e-17)
(0.982992 0.00550017 0)
(0.974134 0.0111745 0)
(0.944335 0.00505611 0)
(0.973955 0.0091935 0)
(0.961896 0.00964633 0)
(0.928466 0.00853898 0)
(0.953287 -0.00286873 0)
(0.95513 0.00308856 0)
(0.912133 -0.00461276 0)
(0.791923 1.43989 3.33146e-18)
(0.870945 1.50295 0)
(0.394944 0.744486 1.35018e-18)
(0.355555 0.841952 -3.1217e-18)
(0.415563 0.953439 -1.26408e-17)
(0.427413 0.890858 -1.81635e-17)
(0.412588 0.896506 -3.62611e-19)
(0.292216 0.602981 1.95159e-17)
(0.622846 0.233143 -1.20115e-17)
(0.590697 0.261671 -3.59892e-18)
(0.600061 0.189669 4.27308e-18)
(1.2954 0.525918 -2.52952e-17)
(1.29618 0.329965 3.97156e-18)
(0.00792494 1.68368 -3.43912e-17)
(0.00257782 1.62364 0)
(1.04823 0.0294605 0)
(1.02181 0.0186631 0)
(1.00186 -0.00053049 0)
(0.0147121 3.04673 0)
(0.0129363 2.97193 -3.63293e-17)
(0.0101199 2.98382 0)
(0.00400026 2.91946 -2.23813e-17)
(0.0117151 3.05903 1.51892e-17)
(0.0114495 3.05277 0)
(0.845879 1.73717 -3.59495e-18)
(1.1942 2.32086 -9.41578e-18)
(0.929865 1.82552 -1.64025e-17)
(-0.0278008 2.91994 3.35605e-17)
(-0.0251354 2.88232 0)
(-0.020546 2.83916 0)
(-0.0148793 1.69772 6.74548e-17)
(0.00291372 1.69017 1.39182e-18)
(-0.012444 1.63857 6.73568e-17)
(0.258228 1.27737 -1.63692e-17)
(0.303375 1.03169 -1.20622e-17)
(0.0377465 1.58936 -3.25245e-17)
(0.0754258 1.52315 -2.80661e-17)
(0.0635964 1.49041 -6.08364e-17)
(-0.023488 3.07094 1.27601e-16)
(-0.0103877 3.06802 1.02921e-16)
(0.0055868 2.98568 2.44803e-17)
(-0.0106655 2.98013 -2.38179e-17)
(0.000952182 2.93333 3.4337e-17)
(0.0170958 3.06461 -8.87034e-17)
(-0.00590191 3.05755 -1.31806e-16)
(0.365277 0.841948 0)
(0.300097 0.799375 -4.44648e-18)
(0.34115 0.559185 -1.72669e-17)
(0.385579 0.990045 3.08414e-17)
(0.343519 0.722066 2.56706e-17)
(1.27124 0.201879 -2.53881e-18)
(1.29941 0.362826 0)
(1.26707 0.178292 2.00992e-18)
(-0.00624679 1.69628 2.38199e-20)
(0.00197856 1.68991 0)
(-0.000885688 1.63695 0)
(0.299477 1.18484 1.15049e-18)
(0.349514 1.10885 -3.23498e-17)
(0.3148 0.87859 -3.09119e-17)
(1.00163 -0.0222556 0)
(1.00318 -0.0136062 1.27489e-17)
(0.00239856 1.77712 0)
(-0.00906168 1.79355 0)
(1.00313 -0.00108913 4.68175e-19)
(1.00196 0.00172842 1.62588e-17)
(0.00130711 1.77597 -7.61155e-17)
(0.00255081 1.77569 0)
(-0.0209695 2.97258 2.38268e-17)
(0.300478 3.00033 0)
(1.09774 0.698137 -2.60125e-17)
(1.00464 0.00664263 8.50343e-17)
(1.00936 -0.00796445 0)
(1.00632 -0.000865042 3.56994e-19)
(-0.0691964 1.75374 0)
(-0.00680869 1.77781 0)
(-0.00182667 1.8037 0)
(0.0277144 1.73716 -7.63238e-17)
(-0.000879269 1.75448 7.40876e-17)
(0.989086 0.0107812 8.33456e-17)
(1.03639 0.0229782 0)
(1.06096 0.0322094 0)
(-0.000888969 1.7712 0)
(0.00445875 1.76713 0)
(-0.0130129 1.77686 0)
(0.124513 1.58771 -8.49309e-17)
(1.00564 -0.0121023 0)
(1.00869 -0.0154179 0)
(0.996849 0.00499843 -2.07987e-17)
(0.997425 -0.00547606 2.63631e-17)
(0.997514 -0.00399287 0)
(-0.00455966 1.76608 0)
(0.00145879 1.77086 0)
(-0.000661712 1.76448 0)
(-0.00583795 1.78058 0)
(-0.0200134 1.77719 0)
(-0.0103894 1.77364 0)
(1.01172 0.00818751 0)
(1.01193 0.00420909 8.52067e-17)
(0.825215 1.40314 -4.45968e-19)
(1.00168 -0.00673042 2.11568e-17)
(0.999667 0.00423337 -2.60815e-17)
(1.00444 0.00358647 0)
(1.00011 0.0104257 3.57841e-17)
(1.00663 0.0129532 4.97947e-17)
(1.00607 0.0104287 0)
(0.00582474 1.77075 0)
(0.00603759 1.76785 -3.88881e-17)
(0.00182428 1.76759 -3.40792e-17)
(1.15731 0.263765 -6.22121e-17)
(1.09651 0.0818084 0)
(-0.231634 2.97292 3.06559e-17)
(-0.250814 3.21895 7.6659e-19)
(-0.0322712 3.01894 4.53002e-17)
(-0.0386932 2.97252 3.72535e-17)
(0.0486124 2.95221 0)
(-0.0275552 3.02624 1.28741e-17)
(-0.0950468 3.12815 2.14106e-17)
(-0.0823872 3.013 1.91739e-17)
(-0.0592773 3.09682 0)
(0.646953 0.344626 0)
(0.517096 0.385307 0)
(1.08071 0.826153 2.83905e-17)
(1.06941 0.907448 3.96951e-17)
(1.1326 0.633951 0)
(1.14841 0.561226 0)
(1.0065 0.00397271 1.49432e-17)
(1.00212 0.00360793 -1.56926e-17)
(1.00983 -0.00919215 0)
(1.00543 -0.015558 0)
(1.00227 0.00754864 0)
(1.00661 0.00413089 0)
(1.00445 0.00576942 0)
(1.00267 0.00529484 0)
(1.00391 0.00424517 0)
(0.993838 0.00655115 0)
(-0.0492034 1.76526 0)
(-0.05395 1.79621 0)
(-0.0445644 1.73687 0)
(-0.0445074 1.72172 0)
(-0.00505879 1.7813 0)
(0.0184393 1.77336 3.57503e-17)
(0.00485049 1.76793 0)
(-0.0115808 1.74737 3.20172e-17)
(0.00813461 1.7167 -6.91452e-17)
(-0.0113541 1.80438 0)
(-0.00324713 1.79823 0)
(0.010473 1.81181 0)
(0.00341331 1.82312 0)
(0.0315875 1.7666 -7.43948e-17)
(-0.0141068 1.73975 -4.91972e-17)
(0.0270706 1.74255 3.66733e-17)
(0.00581401 1.75256 0)
(0.0226168 1.76055 3.28074e-17)
(0.00695957 1.76627 -7.08886e-17)
(0.00166258 1.78526 -1.15776e-16)
(-0.00313246 1.73076 -4.63913e-17)
(0.024559 1.73777 3.99861e-17)
(0.992157 0.016971 -9.57135e-18)
(0.994819 0.000931447 1.38801e-17)
(0.988267 0.0248881 1.42177e-17)
(0.974767 0.0197844 -1.31088e-17)
(1.03011 0.0112911 0)
(1.03335 0.010759 0)
(1.04494 0.0324054 0)
(1.03625 0.029162 0)
(1.04315 0.0126653 0)
(1.0852 0.0687042 0)
(1.06354 0.059722 0)
(1.08263 0.0411682 0)
(-0.00921305 1.77512 9.97765e-18)
(0.00234955 1.75558 0)
(-0.0157411 1.76037 0)
(-0.00186834 1.76619 -1.51436e-17)
(0.000993145 1.76913 3.1884e-20)
(-0.00962428 1.78783 4.3945e-17)
(-0.0209909 1.77607 4.4901e-17)
(-0.00242375 1.77068 0)
(-0.0297658 1.77598 0)
(-0.0117861 1.7701 0)
(-0.00284154 1.77979 0)
(-0.00679771 1.78951 0)
(0.295575 1.56691 -5.34226e-17)
(0.366551 1.57681 4.26553e-17)
(0.347885 1.81119 2.47555e-19)
(0.18234 1.77132 2.88587e-17)
(0.0923174 2.06924 3.6275e-17)
(1.00915 -0.0157109 0)
(1.0117 -0.00853324 0)
(1.01421 -0.0104513 0)
(1.00565 0.00175314 0)
(0.99761 -0.00305532 0)
(0.989893 -0.00100494 0)
(1.00316 -0.00204155 0)
(1.00364 -0.00149276 0)
(1.00934 0.0027636 -9.66639e-18)
(1.00788 0.00422417 1.51046e-17)
(1.01166 0.00596378 1.44007e-17)
(1.00655 0.00588455 -1.46758e-17)
(0.762634 1.49239 0)
(0.707731 1.51596 -7.51289e-17)
(0.895162 1.35612 7.26595e-17)
(0.951088 1.27811 6.52111e-17)
(1.01263 2.09385 -2.78676e-17)
(0.814556 0.117816 -2.11756e-17)
(1.10761 0.132838 0)
(1.15992 0.192605 -9.26387e-17)
(1.13753 0.137744 2.19217e-19)
(0.951403 0.144623 0)
(-0.0881365 2.70293 5.09813e-17)
(-0.374375 2.61516 7.2422e-17)
(-0.808014 2.68643 5.53942e-18)
(-0.644053 0.224171 -1.10606e-17)
(0.195888 2.995 -1.52534e-17)
(0.0498548 2.98267 0)
(0.143857 2.96714 -8.10479e-18)
(0.0172862 2.70613 8.13452e-17)
(0.192217 2.73752 0)
(-0.0224466 3.05583 -4.84599e-19)
(-0.0351444 3.06921 -2.20831e-17)
(-0.00661074 3.09729 -3.19579e-17)
(-0.0388428 3.11112 0)
(-0.0501931 3.0513 0)
(1.13659 2.16159 0)
(0.490904 1.05527 5.00871e-17)
(1.02205 1.0952 -3.56779e-17)
(0.99751 1.22157 0)
(0.843274 1.08032 -1.36652e-17)
(1.04154 1.03347 -6.1919e-17)
(0.174431 0.411027 -1.7385e-19)
(0.656923 0.340593 1.20926e-17)
(0.68311 0.297828 1.1965e-17)
(0.456994 0.457747 1.74042e-20)
(0.420019 0.396322 4.09624e-18)
(0.609173 0.390408 0)
(0.582891 0.481953 9.88675e-18)
(0.607217 0.439961 0)
(0.541012 0.413281 0)
(0.589289 0.359103 0)
(0.676827 0.696902 3.26379e-17)
(1.1652 0.337552 4.05969e-17)
(1.17915 0.461273 0)
(1.17261 0.38682 0)
(0.754382 0.229245 1.86732e-17)
(0.727298 0.630561 3.70287e-17)
(0.60794 0.571898 9.76296e-18)
(0.861265 0.433115 -7.93997e-17)
(1.00348 0.00581412 3.19492e-17)
(1.00162 0.0157376 4.85695e-17)
(0.999198 0.0132632 0)
(1.00748 0.0109953 0)
(1.00302 -0.0138929 -3.12728e-17)
(0.996609 -0.00593724 -4.64348e-17)
(1.01428 0.0017571 0)
(1.00527 0.00304017 0)
(1.0107 0.000641757 0)
(1.00593 0.00516557 0)
(1.01301 -0.00075304 0)
(1.00872 -0.00592117 0)
(-0.027532 1.80966 0)
(-0.0138919 1.8109 0)
(-0.114102 1.71479 -5.08211e-17)
(0.0639845 1.64673 -3.8792e-17)
(-0.00937814 1.7024 8.01123e-17)
(-0.00363814 1.65637 3.17531e-17)
(-0.0904854 1.694 0)
(-0.0989346 1.86096 7.41655e-17)
(-0.123439 1.84053 0)
(0.0104854 2.0781 3.87692e-17)
(0.06746 1.98135 -4.65923e-17)
(-0.107055 1.85153 6.94163e-17)
(-0.00154674 1.60955 -3.9992e-17)
(-0.0919511 1.67586 -4.24477e-17)
(-0.038694 1.60127 -7.67555e-18)
(-0.0860123 1.89818 0)
(-0.0287719 1.90238 -5.42332e-17)
(-0.0108735 1.7296 6.19918e-18)
(-0.000853836 1.71548 0)
(-0.0455864 1.73193 -7.43527e-17)
(-0.0402988 1.71583 0)
(-0.00361208 1.7345 3.50408e-17)
(-0.00502407 1.72304 0)
(0.0380328 1.78192 5.53288e-17)
(0.0529671 1.78381 0)
(0.02917 1.80447 0)
(0.0223306 1.8089 5.22219e-17)
(0.00372391 1.7207 -1.18001e-16)
(0.0217611 1.72079 -7.10245e-17)
(0.011123 1.72758 -1.5014e-20)
(0.0112306 1.75737 7.66957e-17)
(-0.00628037 1.78348 -3.98195e-17)
(-0.00865659 1.79397 0)
(-0.0147128 1.80038 0)
(0.0077216 1.77823 2.94188e-17)
(0.0085292 1.80844 2.48855e-17)
(0.0251036 1.78947 6.19108e-17)
(-0.0325624 1.78686 0)
(0.0015271 1.76827 1.03649e-16)
(-0.00890456 1.76724 1.66237e-17)
(0.00416438 1.77319 -1.931e-17)
(0.0168811 1.77713 7.84923e-17)
(0.0176516 1.73428 -3.71601e-18)
(0.00591561 1.74317 -4.57428e-17)
(1.00279 0.0120446 4.79226e-17)
(0.996314 0.00497132 3.18556e-17)
(0.997661 0.00810288 0)
(0.988903 0.0491682 -6.94111e-17)
(0.965456 0.0500037 1.44307e-17)
(0.948307 0.0356625 -6.46248e-18)
(0.983786 0.0950579 1.54821e-18)
(1.01735 0.0124185 0)
(1.02399 0.0133332 -4.73541e-17)
(1.02357 0.00855282 -3.18396e-17)
(1.02438 0.0395025 3.32592e-18)
(1.02575 0.0346256 -9.93932e-18)
(1.01136 0.0463843 0)
(1.00368 0.0435744 1.74376e-19)
(0.99928 0.0257008 0)
(0.999543 0.0253582 0)
(1.01339 0.0232649 0)
(1.00343 0.00913748 0)
(1.00728 0.0273124 4.26993e-18)
(1.00883 0.0204172 2.98496e-17)
(1.02219 0.0336805 -6.14789e-18)
(1.01335 0.03289 1.01143e-17)
(1.01044 0.0622745 2.79984e-17)
(1.03507 0.0579803 0)
(1.02665 0.0908499 0)
(0.00478128 1.77874 -5.31703e-17)
(0.0163849 1.75597 -8.16875e-19)
(-0.0047744 1.76951 0)
(0.0103754 1.77827 -5.45176e-17)
(0.00202424 1.78229 8.96374e-18)
(0.00684951 1.77232 -3.92917e-18)
(-0.00123958 1.76652 -7.80729e-17)
(0.00956596 1.76421 -1.46224e-19)
(0.0126805 1.75623 -5.17968e-18)
(-0.005857 1.76548 3.45032e-17)
(-0.00333708 1.76947 3.34684e-17)
(0.00497158 1.76403 -2.32058e-17)
(-0.00345184 1.77177 -3.92522e-17)
(0.211863 1.43595 2.60694e-17)
(0.116071 1.62976 -9.00075e-18)
(0.667843 1.55586 -8.28133e-17)
(0.50463 1.55949 3.91182e-17)
(0.561816 1.56604 0)
(0.378533 1.83496 -3.82147e-18)
(0.478246 1.77984 -6.35225e-19)
(0.232016 1.77012 -7.39388e-18)
(0.18652 1.9527 -3.29888e-17)
(0.228998 1.98095 -2.94513e-17)
(0.329931 1.80501 0)
(0.275944 1.76033 -1.25071e-17)
(0.0596789 1.78241 4.1471e-19)
(0.141609 1.78144 6.22646e-17)
(0.0914561 1.74551 7.20122e-18)
(0.753713 1.98792 -3.65012e-17)
(0.648751 1.93835 0)
(1.00863 0.00395218 -2.17174e-19)
(1.00591 -0.00945134 2.79243e-19)
(1.0011 -0.023293 -7.7391e-18)
(1.0159 -0.0121542 -1.59004e-17)
(1.01501 -0.00150328 0)
(0.745154 1.38567 0)
(0.685473 1.34969 0)
(0.777756 1.23309 0)
(0.705994 1.30665 0)
(0.990335 2.11696 2.91532e-17)
(0.93971 1.93401 0)
(0.799227 1.89824 -1.10809e-18)
(0.698013 2.12334 0)
(0.789614 2.12999 7.45212e-17)
(0.850806 2.07389 6.73929e-17)
(0.801001 0.157738 0)
(0.786899 0.159308 -1.11329e-18)
(0.871891 0.134496 8.87604e-18)
(0.834719 0.110528 -2.87692e-17)
(0.852905 0.0824557 -3.7718e-19)
(1.01115 0.254176 -2.65893e-17)
(0.89047 0.292635 2.87746e-17)
(0.862962 0.282055 2.56838e-17)
(0.943155 0.219781 1.24959e-17)
(0.880502 0.16876 4.04385e-17)
(0.863272 0.194755 -1.10273e-17)
(0.877068 0.254381 1.66898e-18)
(0.856754 0.223605 0)
(0.951992 0.19791 2.19676e-17)
(0.988494 0.190417 0)
(0.980881 0.252817 0)
(1.0389 0.123095 -1.28106e-17)
(1.00094 0.189255 3.16676e-17)
(0.989232 0.221098 2.15963e-17)
(1.0321 0.207907 0)
(0.992607 0.0275144 -3.73363e-17)
(0.99948 0.0333867 3.0227e-17)
(1.00268 0.0353343 -2.58348e-17)
(1.00214 0.0522676 4.36135e-17)
(0.981358 0.0522953 -5.52025e-17)
(0.93806 0.150105 0)
(0.96208 0.0783683 0)
(0.944464 0.0529302 4.48219e-17)
(0.918067 0.0523227 8.69706e-18)
(0.990666 0.0977109 -3.94125e-17)
(1.0098 0.125121 -2.60788e-17)
(1.00939 0.155578 -9.71418e-18)
(0.981921 0.153304 0)
(1.01234 0.0929342 0)
(1.00748 0.0820948 3.61745e-17)
(0.991182 0.0828602 -2.62258e-17)
(0.59986 1.34722 2.69727e-17)
(0.587363 1.5086 -2.07405e-17)
(0.918093 2.21694 1.97017e-17)
(0.985003 2.4848 -2.45446e-18)
(1.04533 2.19341 -2.69788e-17)
(1.10376 2.24167 5.07875e-18)
(1.10552 1.9782 8.27832e-18)
(1.00912 2.38027 -1.5648e-17)
(1.01672 2.35427 -1.48073e-17)
(1.05197 2.59459 -1.45963e-18)
(1.17868 2.46232 2.56565e-18)
(1.24665 2.4138 0)
(0.464534 1.11648 -3.44907e-18)
(-0.180635 1.41694 -1.46913e-17)
(0.0310409 0.593089 -6.75096e-18)
(-0.102198 0.814916 -1.73895e-17)
(0.341955 0.458294 -8.62057e-18)
(0.358378 0.511631 2.37454e-18)
(0.306752 0.595403 -5.96918e-18)
(0.219788 0.464467 2.4033e-18)
(0.311163 0.384454 -7.05717e-18)
(0.733415 0.274094 2.44348e-17)
(0.689143 0.303564 0)
(0.710533 0.265314 6.19662e-18)
(0.593164 0.571501 -1.17547e-17)
(0.50703 0.539103 1.30331e-17)
(0.424748 0.578173 -5.92546e-18)
(0.488598 0.487433 0)
(0.579866 0.930164 -2.47969e-17)
(0.745401 0.898031 4.81858e-17)
(0.685226 1.01877 5.15335e-17)
(0.77042 0.933348 1.3431e-17)
(0.89786 0.919638 -4.35751e-18)
(0.898612 0.986771 -5.71866e-18)
(0.77942 0.753952 4.8514e-18)
(0.838846 0.8118 1.01057e-17)
(0.926701 0.854808 0)
(0.92768 0.736491 2.60566e-17)
(0.942045 0.319261 5.13281e-17)
(1.05689 0.314637 -2.00875e-17)
(0.993645 0.304589 -5.04357e-17)
(0.899469 0.394968 4.80406e-17)
(0.989079 0.453877 0)
(1.03122 0.419439 0)
(0.796164 0.400224 5.07341e-17)
(0.789748 0.289787 0)
(0.781555 0.284324 -1.47647e-17)
(0.870907 0.309677 6.90881e-17)
(0.821509 0.504271 -8.56019e-17)
(0.752864 0.553545 -7.64237e-20)
(0.787237 0.513444 7.75496e-18)
(0.708215 0.469728 -1.05234e-18)
(0.691621 0.489309 -5.84168e-18)
(0.650538 0.473744 -1.01551e-18)
(1.01715 0.005939 -4.74732e-17)
(1.01549 -0.0059689 0)
(1.02268 -7.49198e-05 1.11355e-17)
(1.00799 0.00835314 -1.513e-17)
(1.02326 0.00604669 -2.38278e-17)
(1.01391 0.0142079 2.04138e-18)
(1.00909 0.00997487 0)
(1.00967 0.00256084 1.30248e-17)
(1.01606 0.00848089 -4.0162e-19)
(1.00871 0.0085957 -3.57261e-18)
(1.01102 0.00461302 9.02619e-18)
(-0.00195325 1.82107 0)
(0.010852 1.82856 0)
(0.00669925 1.81307 0)
(0.0011308 1.81862 0)
(-0.0721375 1.80392 -6.17228e-18)
(-0.0821815 1.77992 -1.09102e-16)
(-0.117826 1.83379 -3.29879e-17)
(-0.137973 1.80832 -8.71861e-17)
(-0.0235529 1.80403 5.79748e-17)
(-0.0181123 1.81889 6.20463e-17)
(-0.0539022 1.81584 1.21625e-16)
(-0.0332754 1.82322 5.81926e-17)
(-0.0137228 1.82205 1.02676e-17)
(-0.00677106 1.83571 1.52516e-18)
(-0.0495348 1.75138 -6.98338e-17)
(-0.0276809 1.78829 0)
(-0.0828718 1.8282 -4.14209e-17)
(-0.116015 1.83835 -5.28424e-18)
(-0.0329304 1.91398 -1.81029e-17)
(0.0204154 1.8641 0)
(0.0154156 1.88795 5.54732e-17)
(0.0221924 1.94362 4.93519e-17)
(-0.0447275 1.87764 -6.28932e-17)
(-0.0573071 1.85815 -8.36429e-17)
(-0.0355382 1.8159 0)
(0.0124258 1.74474 3.31782e-17)
(0.0129239 1.71189 -2.16444e-17)
(0.0176063 1.73654 0)
(0.0200066 1.72453 2.13009e-17)
(-0.0100164 1.73374 1.74855e-17)
(0.00454795 1.79454 9.60323e-18)
(-0.00669099 1.78377 -1.01055e-16)
(-0.0172028 1.78389 -6.71419e-17)
(-0.014862 1.78283 4.69942e-17)
(0.0105899 1.78322 0)
(0.0119541 1.7888 0)
(-0.000996147 1.78359 -3.96904e-17)
(-0.00280846 1.76889 -3.68157e-18)
(-0.00109405 1.78074 0)
(-0.0107988 1.79426 3.35733e-17)
(-0.00486678 1.78919 1.0388e-18)
(1.017 0.0336063 0)
(1.02403 0.0277984 2.11305e-19)
(1.00625 0.0198365 4.46777e-17)
(1.0157 0.0142629 0)
(1.01417 0.00827593 0)
(1.01604 0.00268928 2.1666e-17)
(1.01226 0.0109322 -5.47837e-17)
(1.00631 0.00704585 -1.68704e-17)
(1.00195 0.0061607 0)
(1.00601 0.00949559 0)
(1.00406 0.0143242 3.00147e-17)
(1.00064 0.0163705 0)
(1.0048 0.0141295 0)
(-0.00375222 1.77504 0)
(0.00256889 1.77321 -4.18834e-17)
(0.0037779 1.76382 4.32341e-17)
(-0.000255336 1.76432 0)
(0.0105612 1.77734 -3.96226e-17)
(1.15921e-05 1.76842 -1.91733e-17)
(-0.00543515 1.76327 0)
(0.401675 1.99296 0)
(0.0759573 1.71572 2.47016e-17)
(0.137284 1.95451 0)
(0.320371 1.42721 8.21734e-17)
(0.432992 1.3501 0)
(0.362441 1.42726 3.50016e-17)
(0.863379 2.18417 -2.80009e-19)
(0.774123 2.00252 -2.63671e-17)
(0.704973 1.82147 -2.15612e-17)
(0.678454 1.95085 -8.27348e-18)
(0.732392 2.10801 0)
(0.779986 2.07367 0)
(0.710728 1.97521 0)
(0.714786 1.9399 -3.16714e-18)
(0.455826 2.20625 -3.88802e-17)
(0.645176 2.13349 3.9692e-18)
(0.648654 2.15646 2.5388e-18)
(0.477386 1.88171 0)
(0.588871 1.93246 0)
(0.565166 1.86673 8.56041e-19)
(0.565073 2.12384 0)
(0.621645 1.26835 0)
(0.555171 1.15359 -6.39484e-17)
(0.550453 1.14783 -6.03293e-18)
(0.578885 1.2606 0)
(0.554948 1.22669 -7.28951e-17)
(0.72871 1.04496 -1.00214e-17)
(0.78259 1.18153 0)
(0.791381 1.09772 -3.01757e-17)
(0.672867 1.21351 0)
(0.613705 1.14696 0)
(0.934412 2.18862 1.40163e-17)
(0.914885 2.25819 -1.01818e-17)
(0.781516 1.96438 -4.00486e-17)
(0.793525 1.95586 -3.05747e-18)
(0.920772 2.17053 0)
(0.890293 2.15971 -4.85915e-18)
(0.892531 2.01818 -5.12696e-18)
(0.82761 1.81974 -7.74337e-18)
(0.690664 1.5179 0)
(0.638803 1.32869 3.13939e-17)
(0.657592 1.35688 0)
(0.8148 0.211388 0)
(0.781611 0.18991 0)
(0.763712 0.201296 0)
(0.80349 0.243218 -7.55436e-18)
(0.75466 0.225125 5.01107e-18)
(0.924532 0.0746484 1.34488e-17)
(0.917548 0.115784 0)
(0.885534 0.0929021 -7.84841e-19)
(0.859378 0.0733863 -4.87623e-18)
(0.870623 0.0548168 -5.15734e-18)
(1.03713 2.75553 -1.5574e-17)
(0.979013 2.66305 0)
(0.937761 2.83476 -5.41393e-17)
(0.583918 3.0385 -3.06762e-17)
(0.727538 2.55918 1.24747e-17)
(0.459765 1.1723 -2.57898e-17)
(0.510501 1.10099 0)
(0.236068 0.828168 6.92862e-18)
(0.258805 0.930951 4.1609e-17)
(0.184764 0.793566 1.00459e-17)
(0.257261 0.635504 5.24348e-18)
(0.480782 0.628768 -9.07504e-18)
(0.507204 0.684154 0)
(0.456324 0.777531 0)
(0.342796 0.731074 0)
(0.89937 0.683678 1.066e-17)
(0.827977 0.604992 7.74973e-18)
(0.845364 0.641646 -3.04312e-18)
(0.861756 0.529649 2.07918e-17)
(0.974568 0.555649 0)
(0.965489 0.618312 -1.07955e-17)
(0.759488 0.420471 1.04522e-17)
(0.764992 0.369191 2.56713e-17)
(0.707512 0.411291 -4.17135e-18)
(0.715073 0.377157 2.39216e-18)
(0.767613 0.329546 -9.00721e-18)
(0.751562 0.312034 -1.68173e-17)
(1.02739 0.00420506 -3.89246e-17)
(1.02547 0.00272494 -3.49051e-17)
(1.02451 0.0104417 3.71563e-17)
(1.02424 0.00858096 5.10913e-17)
(1.01471 0.0234147 0)
(0.999584 0.0159514 -1.48917e-17)
(-0.0339029 1.78386 2.65877e-17)
(-0.0360781 1.80281 0)
(-0.092896 1.81278 -4.671e-17)
(-0.105829 1.82114 -5.79372e-17)
(-0.12368 1.82319 -3.63403e-17)
(-0.09459 1.8287 0)
(0.033885 1.78707 0)
(0.0171085 1.7791 -1.94494e-17)
(0.00389985 1.76082 -2.0017e-17)
(0.000141647 1.76907 -4.9709e-17)
(-0.00635791 1.77382 -1.00858e-17)
(0.0280703 1.77575 -4.30632e-18)
(0.701888 1.54471 -1.11932e-16)
(0.641034 1.63684 -1.29898e-16)
(0.458079 1.46284 7.65906e-17)
(0.5154 1.67607 -4.96165e-18)
(0.707507 1.37731 0)
(0.567643 1.38213 7.65432e-17)
(0.628788 1.39076 6.80541e-17)
(0.531753 1.27816 6.7752e-17)
(0.690056 1.33987 0)
(0.704298 1.35233 0)
(0.402498 2.2103 -4.73736e-17)
(0.411904 2.07306 -6.62463e-17)
(0.481507 2.1062 -5.57387e-17)
(0.351906 2.06641 -2.33349e-18)
(0.234386 2.21369 2.11903e-18)
(0.236667 2.08063 -1.95407e-17)
(0.780516 1.93892 -1.10134e-17)
(0.831421 1.93619 0)
(0.742135 1.77794 3.9731e-18)
(0.879249 2.13923 0)
(0.855968 2.1522 0)
(0.559503 2.02725 -2.71338e-18)
(0.918006 2.49613 -3.38653e-18)
(0.792084 2.49074 -9.01578e-19)
(0.17403 1.23543 0)
(0.200259 1.18678 -1.50567e-17)
(0.434698 1.09291 -3.58822e-17)
(0.384134 1.96553 0)
(0.379793 2.34577 6.71769e-18)
(0.200866 2.30655 0)
(0.60776 0.844382 -1.43899e-17)
(0.646506 0.843244 -4.81765e-17)
(0.655959 0.791275 -2.31134e-17)
(0.485818 0.811816 -1.79493e-18)
(0.557905 0.714705 1.50864e-18)
(0.82016 2.30198 -1.01733e-17)
(0.887584 2.2879 -8.31755e-18)
(0.63573 1.98067 9.79507e-18)
(0.620541 1.70889 2.94826e-17)
(0.648256 1.7515 3.91349e-17)
(0.824845 2.07043 -2.94815e-17)
(0.837495 2.07455 -1.89915e-17)
(0.678064 1.73044 7.11481e-19)
(0.519894 1.46176 3.27674e-17)
)
;

boundaryField
{
    wall-4
    {
        type            calculated;
        value           uniform (0 0 0);
    }
    velocity-inlet-5
    {
        type            calculated;
        value           uniform (1 0 0);
    }
    velocity-inlet-6
    {
        type            calculated;
        value           uniform (0 3 0);
    }
    pressure-outlet-7
    {
        type            calculated;
        value           nonuniform List<vector> 8((-0.0135806 1.70286 0) (-0.00739505 1.66391 5.74175e-17) (0.00182293 1.76551 0) (-0.00734667 1.78813 0) (0.00238629 1.75971 0) (0.000808321 1.77846 0) (-0.00388931 1.76467 0) (0.00278276 1.76891 0));
    }
    wall-8
    {
        type            calculated;
        value           uniform (0 0 0);
    }
    frontAndBackPlanes
    {
        type            empty;
    }
}

