/*--------------------------------*- C++ -*----------------------------------*\
  =========                 |
  \\      /  F ield         | OpenFOAM: The Open Source CFD Toolbox
   \\    /   O peration     | Website:  https://openfoam.org
    \\  /    A nd           | Version:  6
     \\/     M anipulation  |
\*---------------------------------------------------------------------------*/
FoamFile
{
    version     2.0;
    format      ascii;
    class       volScalarField;
    location    "0";
    object      T;
}
// * * * * * * * * * * * * * * * * * * * * * * * * * * * * * * * * * * * * * //

dimensions      [0 0 0 1 0 0 0];

internalField   nonuniform List<scalar> 
10000
(
-2.55084
-7.60768
-11.9506
-14.8279
-16.1515
-16.1431
-15.1446
-13.4747
-11.3721
-8.99717
-6.45981
-3.84414
-1.22818
1.31129
3.69639
5.85481
7.72317
9.25206
10.3986
11.1259
11.4032
11.2085
10.5266
9.35103
7.68073
5.52204
2.88588
-0.210754
-3.74696
-7.69655
-12.0298
-16.7123
-21.7063
-26.97
-32.4585
-38.1237
-43.9151
-49.78
-55.6643
-61.5134
-67.2728
-72.8888
-78.3097
-83.4863
-88.3728
-92.9271
-97.1115
-100.893
-104.244
-107.139
-109.561
-111.495
-112.93
-113.86
-114.281
-114.191
-113.593
-112.489
-110.886
-108.789
-106.205
-103.144
-99.6133
-95.6232
-91.1831
-86.3036
-80.9949
-75.2683
-69.135
-62.6071
-55.6975
-48.4203
-40.7908
-32.8264
-24.5467
-15.9742
-7.13492
1.94034
11.2156
20.648
30.1863
39.7688
49.3215
58.7542
67.9572
76.7966
85.1078
92.6885
99.2899
104.608
108.278
109.871
108.909
104.899
97.4116
86.1714
71.2204
53.0444
32.5727
10.9398
-2.59601
-7.57487
-11.592
-14.072
-14.9886
-14.6101
-13.2977
-11.3776
-9.08496
-6.5797
-3.96575
-1.32681
1.26627
3.7388
6.02198
8.04685
9.75951
11.123
12.1119
12.6864
12.8177
12.4818
11.6665
10.363
8.57313
6.3011
3.55969
0.364003
-3.26388
-7.29959
-11.7128
-16.4708
-21.5356
-26.8667
-32.4194
-38.1465
-43.9977
-49.9205
-55.8614
-61.7652
-67.5779
-73.2448
-78.7147
-83.9371
-88.8666
-93.4598
-97.6797
-101.492
-104.869
-107.786
-110.225
-112.172
-113.615
-114.549
-114.97
-114.877
-114.273
-113.16
-111.545
-109.433
-106.835
-103.755
-100.206
-96.1958
-91.7353
-86.834
-81.5037
-75.7543
-69.5984
-63.0469
-56.1137
-48.8116
-41.1569
-33.1657
-24.8579
-16.2549
-7.38273
1.72942
11.0459
20.5257
30.1186
39.7652
49.3933
58.9153
68.2243
77.1893
85.6485
93.4019
100.202
105.743
109.653
111.488
110.744
106.891
99.4545
88.1043
72.8618
54.2452
33.2742
11.1703
-2.16424
-6.22361
-9.31394
-10.884
-10.9298
-9.73648
-7.69103
-5.13628
-2.32992
0.560231
3.41894
6.16796
8.73771
11.0699
13.1054
14.7965
16.1004
16.9942
17.5015
17.6146
17.2969
16.5299
15.2993
13.6017
11.4369
8.81321
5.74152
2.23946
-1.67306
-5.97054
-10.625
-15.6037
-20.871
-26.3877
-32.1108
-37.9949
-43.9912
-50.0492
-56.1157
-62.1378
-68.0606
-73.8317
-79.3981
-84.7113
-89.7233
-94.3929
-98.6802
-102.553
-105.981
-108.941
-111.414
-113.387
-114.847
-115.791
-116.212
-116.115
-115.498
-114.368
-112.729
-110.591
-107.959
-104.846
-101.258
-97.2076
-92.7038
-87.759
-82.3831
-76.5884
-70.3853
-63.7871
-56.8053
-49.4547
-41.7493
-33.7063
-25.3436
-16.683
-7.74812
1.43201
10.8246
20.3895
30.0797
39.8378
49.5946
59.2652
68.7453
77.9057
86.5856
94.5841
101.65
107.469
111.654
113.742
113.196
109.449
101.964
90.3881
74.7421
55.5981
34.0636
11.4274
-1.46669
-4.10544
-5.75093
-5.87491
-4.50502
-1.96896
1.30984
4.95174
8.67536
12.2918
15.679
18.7542
21.456
23.7344
25.5485
26.8665
27.6671
27.9419
27.7144
27.0691
26.0125
24.5168
22.5754
20.188
17.3605
14.1034
10.4317
6.36384
1.92189
-2.86894
-7.9803
-13.3808
-19.0359
-24.9083
-30.9574
-37.1399
-43.4099
-49.7191
-56.0173
-62.2528
-68.3738
-74.3281
-80.065
-85.5354
-90.6932
-95.4957
-99.9044
-103.885
-107.41
-110.453
-112.997
-115.026
-116.531
-117.507
-117.949
-117.86
-117.242
-116.1
-114.441
-112.275
-109.609
-106.453
-102.818
-98.7155
-94.1553
-89.1502
-83.712
-77.8524
-71.5833
-64.9167
-57.8654
-50.4429
-42.6637
-34.5437
-26.1006
-17.3546
-8.32855
0.950724
10.4518
20.1373
29.9621
39.8716
49.7988
59.6607
69.3541
78.7495
87.6836
95.9501
103.288
109.37
113.791
116.059
115.611
111.847
104.198
92.3049
76.2277
56.6088
34.6317
11.6113
-0.594961
-1.4513
-1.27345
0.434673
3.59676
7.83444
12.6814
17.7232
22.6544
27.269
31.437
35.072
38.1167
40.5275
42.2757
43.3421
43.7213
43.4162
42.4322
40.9068
38.9425
36.5237
33.6556
30.3493
26.6209
22.4887
17.9744
13.1015
7.89594
2.38543
-3.40005
-9.42866
-15.6663
-22.0766
-28.621
-35.2584
-41.9457
-48.6374
-55.2867
-61.8447
-68.2625
-74.4902
-80.4796
-86.1829
-91.5557
-96.5555
-101.145
-105.29
-108.961
-112.135
-114.793
-116.919
-118.505
-119.545
-120.036
-119.979
-119.38
-118.243
-116.577
-114.391
-111.695
-108.5
-104.818
-100.66
-96.0382
-90.9642
-85.4526
-79.5153
-73.1655
-66.4148
-59.2767
-51.7639
-43.8912
-35.6734
-27.128
-18.2734
-9.13171
0.272315
9.90883
19.7427
29.7309
39.8209
49.947
60.0273
69.9576
79.6058
88.803
97.3338
104.924
111.228
115.819
118.181
117.725
113.835
105.927
93.6719
77.1877
57.195
34.9333
11.7065
0.377026
1.50594
3.70318
7.42208
12.5314
18.607
25.145
31.7073
37.9702
43.7195
48.8183
53.1808
56.7497
59.4873
61.3696
62.3866
62.5405
61.846
60.3269
58.027
55.1366
51.7627
47.8985
43.5736
38.8195
33.6689
28.1547
22.3102
16.1687
9.76397
3.13003
-3.69827
-10.6852
-17.7941
-24.9867
-32.2234
-39.463
-46.6629
-53.779
-60.7659
-67.5775
-74.1677
-80.4904
-86.5009
-92.1563
-97.4166
-102.245
-106.608
-110.477
-113.829
-116.645
-118.91
-120.614
-121.754
-122.325
-122.331
-121.776
-120.666
-119.011
-116.822
-114.108
-110.884
-107.161
-102.951
-98.2689
-93.1253
-87.5353
-81.5136
-75.0736
-68.2284
-60.9907
-53.3742
-45.3926
-37.0611
-28.3957
-19.4145
-10.1379
-0.589543
9.20277
19.2054
29.3772
39.6669
50.0097
60.3232
70.501
80.4064
89.8626
98.6423
106.456
112.937
117.637
120.019
119.479
115.377
107.156
94.5301
77.6883
57.4263
35.0183
11.7307
1.38535
4.55995
8.80875
14.5367
21.566
29.4365
37.6211
45.6669
53.243
60.1312
66.195
71.3496
75.5413
78.7356
80.9129
82.0669
82.204
81.3414
79.5004
76.6805
73.0973
68.9085
64.1395
58.8442
53.0773
46.8906
40.334
33.4545
26.2974
18.9058
11.3216
3.58542
-4.26282
-12.1835
-20.137
-28.0833
-35.9819
-43.7917
-51.4706
-58.9761
-66.2652
-73.2945
-80.0214
-86.404
-92.4021
-97.9776
-103.095
-107.724
-111.836
-115.408
-118.422
-120.864
-122.723
-123.996
-124.68
-124.777
-124.294
-123.236
-121.615
-119.441
-116.727
-113.487
-109.734
-105.483
-100.747
-95.539
-89.8728
-83.7654
-77.2316
-70.2858
-62.9415
-55.2121
-47.1117
-38.6548
-29.8572
-20.7362
-11.3111
-1.60423
8.35779
18.5428
28.9109
39.4116
49.9803
60.5329
70.9602
81.1192
90.824
99.8339
107.842
114.462
119.222
121.569
120.887
116.531
107.977
94.9966
77.8541
57.4119
34.9599
11.7087
2.38115
7.55741
13.7776
21.4023
30.2188
39.7444
49.4394
58.844
67.625
75.5655
82.5327
88.4473
93.262
96.9486
99.4932
100.894
101.16
100.31
98.3695
95.3618
91.3412
86.5254
81.0421
74.9378
68.2875
61.1633
53.6335
45.7621
37.609
29.2303
20.6784
12.0028
3.2504
-5.53376
-14.3062
-23.0244
-31.6468
-40.1318
-48.4383
-56.5254
-64.352
-71.8775
-79.062
-85.8664
-92.2532
-98.1869
-103.635
-108.566
-112.957
-116.783
-120.027
-122.676
-124.721
-126.156
-126.98
-127.197
-126.81
-125.83
-124.265
-122.128
-119.433
-116.193
-112.425
-108.144
-103.365
-98.102
-92.369
-86.1805
-79.5551
-72.5082
-65.0547
-57.2084
-48.9836
-40.3948
-31.4575
-22.1884
-12.6061
-2.73207
7.40807
17.7832
28.3542
39.0709
49.868
60.6596
71.3324
81.7369
91.677
100.898
109.076
115.804
120.592
122.868
122.01
117.383
108.501
95.1968
77.8084
57.2544
34.8238
11.6628
3.33434
10.409
18.4681
27.8349
38.2738
49.2896
60.3343
70.9438
80.7841
89.6413
97.3895
103.959
109.314
113.438
116.326
117.985
118.429
117.68
115.764
112.702
108.499
103.321
97.3687
90.6793
83.3469
75.4625
67.1123
58.3775
49.3334
40.0503
30.5929
21.0214
11.3921
1.75746
-7.83294
-17.332
-26.6948
-35.8778
-44.8389
-53.5372
-61.9326
-69.9859
-77.6592
-84.9156
-91.72
-98.0394
-103.843
-109.103
-113.795
-117.898
-121.395
-124.274
-126.526
-128.146
-129.133
-129.49
-129.223
-128.34
-126.853
-124.773
-122.115
-118.894
-115.128
-110.831
-106.021
-100.714
-94.9243
-88.6657
-81.9557
-74.8122
-67.2516
-59.2889
-50.9387
-42.2159
-33.1357
-23.7147
-13.9711
-3.92599
6.39593
16.964
27.7394
38.6719
49.6952
60.7209
71.6313
82.27
92.4305
101.845
110.171
116.985
121.777
123.968
122.919
118.023
108.831
95.2385
77.6521
57.0342
34.6604
11.6094
4.23232
13.0828
22.8405
33.8
45.7114
58.0695
70.3174
81.9839
92.7326
102.353
110.729
117.804
123.559
127.996
131.126
132.969
133.551
132.898
131.039
127.989
123.729
118.415
112.192
105.13
97.3277
88.8886
79.9123
70.4933
60.7203
50.676
40.4374
30.0757
19.6571
9.24289
-1.10976
-11.3475
-21.4203
-31.2809
-40.8847
-50.1889
-59.1529
-67.7377
-75.9063
-83.6232
-90.8549
-97.5701
-103.74
-109.339
-114.344
-118.735
-122.497
-125.618
-128.09
-129.908
-131.073
-131.586
-131.453
-130.685
-129.29
-127.284
-124.68
-121.494
-117.744
-113.446
-108.619
-103.28
-97.4453
-91.1279
-84.3444
-77.113
-69.4511
-61.3762
-52.9036
-44.0483
-34.8261
-25.2535
-15.3487
-5.13234
5.37086
16.1305
27.1078
38.2519
49.495
60.7461
71.8829
82.7419
93.1068
102.696
111.153
118.034
122.816
124.91
123.675
118.523
109.049
95.2048
77.4599
56.8087
34.504
11.5599
5.07474
15.5832
26.9168
39.3477
52.6145
66.1989
79.5294
92.1228
103.637
113.866
122.703
130.112
136.096
140.68
143.9
145.794
146.405
145.772
143.927
140.894
136.657
131.291
124.921
117.646
109.554
100.753
91.3482
81.4401
71.1259
60.4971
49.6403
38.636
27.5597
16.4815
5.46634
-5.42514
-16.1368
-26.6162
-36.8147
-46.6865
-56.1889
-65.2819
-73.9278
-82.0915
-89.7403
-96.8441
-103.375
-109.31
-114.625
-119.304
-123.331
-126.696
-129.391
-131.412
-132.759
-133.435
-133.447
-132.801
-131.512
-129.59
-127.052
-123.914
-120.193
-115.907
-111.075
-105.715
-99.8446
-93.4799
-86.6341
-79.3259
-71.5726
-63.3926
-54.8032
-45.8204
-36.4602
-26.7395
-16.6768
-6.29274
4.38779
15.3342
26.5073
37.8551
49.3083
60.7729
72.122
83.1851
93.7366
103.483
112.052
118.987
123.75
125.745
124.333
118.946
109.217
95.1564
77.2836
56.6157
34.3766
11.5208
5.86694
17.9318
30.7432
44.555
59.0915
73.8142
88.1292
101.535
113.682
124.367
133.498
141.062
147.089
151.636
154.767
156.549
157.044
156.307
154.385
151.306
147.081
141.693
135.234
127.848
119.602
110.6
100.942
90.7296
80.0616
69.0335
57.7369
46.2589
34.6818
23.0832
11.5355
0.10609
-11.1422
-22.1513
-32.8674
-43.2408
-53.2254
-62.7787
-71.8618
-80.4385
-88.4759
-95.9441
-102.816
-109.068
-114.68
-119.634
-123.917
-127.517
-130.429
-132.649
-134.176
-135.015
-135.17
-134.652
-133.47
-131.64
-129.175
-126.092
-122.409
-118.145
-113.317
-107.945
-102.048
-95.6444
-88.7465
-81.3723
-73.5384
-65.2625
-56.5642
-47.4609
-37.9692
-28.1066
-17.892
-7.34661
3.50434
14.6297
25.9893
37.5302
49.1809
60.8443
72.3888
83.6376
94.3561
104.24
112.904
119.88
124.624
126.518
124.939
119.336
109.382
95.1345
77.1567
56.478
34.2903
11.4963
6.61562
20.1511
34.3639
49.4895
65.2313
81.0214
96.2352
110.348
123
133.992
143.25
150.789
156.673
160.995
163.854
165.348
165.568
164.588
162.468
159.247
154.936
149.507
143.002
135.568
127.264
118.182
108.416
98.0596
87.2084
75.9563
64.3953
52.6152
40.7024
28.7394
16.8043
4.97079
-6.69251
-18.1216
-29.2575
-40.0455
-50.4358
-60.3827
-69.8444
-78.7832
-87.1648
-94.9588
-102.138
-108.679
-114.561
-119.768
-124.285
-128.105
-131.219
-133.624
-135.322
-136.315
-136.609
-136.213
-135.138
-133.398
-131.008
-127.984
-124.343
-120.104
-115.287
-109.91
-103.993
-97.5547
-90.6139
-83.18
-75.2763
-66.9157
-58.1176
-48.9022
-39.2871
-29.2907
-18.9324
-8.23421
2.77786
14.0718
25.6064
37.3269
49.1598
61.0048
72.7257
84.1394
95.0034
105.004
113.744
120.747
125.462
127.261
125.527
119.729
109.576
95.1666
77.0996
56.4083
34.2515
11.4878
7.32556
22.2581
37.8089
54.1938
71.0864
87.8792
103.909
118.624
131.654
142.806
152.027
159.365
164.924
168.838
171.246
172.285
172.074
170.712
168.274
164.809
160.33
154.804
148.256
140.801
132.499
123.427
113.664
103.295
92.4065
81.0852
69.42
57.4993
45.41
33.2372
21.0627
8.96442
-2.98379
-14.7129
-26.1587
-37.2619
-47.9682
-58.2282
-67.9969
-77.2339
-85.9033
-93.9729
-101.415
-108.205
-114.322
-119.75
-124.475
-128.488
-131.783
-134.355
-136.206
-137.339
-137.759
-137.476
-136.501
-134.845
-132.525
-129.557
-125.958
-121.747
-116.942
-111.563
-105.63
-99.162
-92.1791
-84.6949
-76.726
-68.2899
-59.4019
-50.0832
-40.3537
-30.2326
-19.7402
-8.89952
2.26253
13.7127
25.4085
37.2933
49.2911
61.2982
73.1743
84.7305
95.717
105.812
114.61
121.626
126.302
128.008
126.128
120.153
109.822
95.2705
77.1237
56.4124
34.2621
11.4965
7.99934
24.2599
41.0914
58.6848
76.674
94.4026
111.163
126.373
139.652
150.817
159.841
166.809
171.869
175.203
176.997
177.426
176.644
174.775
171.912
168.112
163.394
157.725
151.116
143.653
135.391
126.391
116.718
106.441
95.633
84.3728
72.7414
60.8226
48.7012
36.4619
24.1879
11.96
-0.144416
-12.0522
-23.6948
-35.0085
-45.9347
-56.4201
-66.4162
-75.8797
-84.7719
-93.0589
-100.711
-107.703
-114.013
-119.625
-124.523
-128.7
-132.147
-134.861
-136.844
-138.097
-138.627
-138.441
-137.552
-135.971
-133.713
-130.794
-127.232
-123.045
-118.251
-112.87
-106.921
-100.425
-93.401
-85.8688
-77.8368
-69.3324
-60.3645
-50.9516
-41.1168
-30.8806
-20.2646
-9.29278
2.00681
13.5995
25.4411
37.4731
49.6167
61.7651
73.7737
85.4483
96.5332
106.699
115.537
122.559
127.182
128.789
126.768
120.629
110.136
95.4575
77.2349
56.492
34.3227
11.5218
8.63681
26.1573
44.211
62.959
81.9855
100.577
117.976
133.569
146.968
158.001
166.672
173.108
177.509
180.108
181.141
180.828
179.357
176.879
173.506
169.303
164.293
158.447
151.762
144.3
136.108
127.23
117.713
107.608
96.9761
85.8819
74.3976
62.6002
50.57
38.3894
26.1411
13.9066
1.76556
-10.2061
-21.9362
-33.3574
-44.4074
-55.0289
-65.1702
-74.7847
-83.831
-92.2727
-100.078
-107.221
-113.677
-119.429
-124.463
-128.767
-132.335
-135.163
-137.251
-138.601
-139.219
-139.113
-138.294
-136.773
-134.565
-131.685
-128.151
-123.98
-119.192
-113.805
-107.84
-101.314
-94.25
-86.6659
-78.5787
-70.0042
-60.9624
-51.465
-41.5338
-31.1924
-20.4635
-9.37239
2.05149
13.772
25.743
37.9038
50.1731
62.4408
74.5582
86.3266
97.485
107.699
116.555
123.562
128.126
129.629
127.469
121.174
110.532
95.7352
77.4361
56.647
34.4318
11.5639
9.23666
27.945
47.1586
67.001
86.9977
106.371
124.31
140.173
153.561
164.321
172.492
178.249
181.847
183.576
183.727
182.564
180.314
177.155
173.214
168.565
163.235
157.194
150.433
142.987
134.894
126.178
116.868
106.997
96.6118
85.7637
74.5144
62.9328
51.0934
39.0746
26.9571
14.8219
2.74916
-9.18341
-20.9014
-32.3345
-43.4173
-54.0894
-64.2957
-73.9866
-83.118
-91.6508
-99.5512
-106.79
-113.344
-119.192
-124.32
-128.715
-132.369
-135.279
-137.444
-138.865
-139.548
-139.5
-138.731
-137.252
-135.079
-132.225
-128.708
-124.545
-119.755
-114.356
-108.368
-101.811
-94.7044
-87.0682
-78.923
-70.2791
-61.1662
-51.5918
-41.5732
-31.1357
-20.3046
-9.10624
2.42835
14.2614
26.3448
38.6157
50.9899
63.3543
75.5565
87.3939
98.6014
108.842
117.699
124.667
129.157
130.549
128.25
121.803
111.02
96.1086
77.7284
56.8763
34.5885
11.6218
9.79641
29.6167
49.921
70.79
91.6818
111.749
130.127
146.142
159.394
169.748
177.285
182.232
184.905
185.656
184.831
182.744
179.658
175.778
171.242
166.134
160.479
154.249
147.423
140.017
132.051
123.53
114.464
104.872
94.7829
84.2369
73.2852
61.9882
50.4139
38.6361
26.7323
14.7817
2.86391
-8.94278
-20.5627
-31.9237
-42.9579
-53.6024
-63.7994
-73.4966
-82.6471
-91.2095
-99.1477
-106.431
-113.032
-118.931
-124.111
-128.558
-132.264
-135.223
-137.435
-138.899
-139.622
-139.608
-138.869
-137.414
-135.258
-132.416
-128.902
-124.735
-119.933
-114.514
-108.498
-101.904
-94.7521
-87.0619
-78.8537
-70.1464
-60.9571
-51.3097
-41.2131
-30.6892
-19.766
-8.47233
3.15942
15.0897
27.2684
39.6303
52.0888
64.5275
76.791
88.6732
99.9064
110.151
118.996
125.902
130.299
131.568
129.126
122.529
111.608
96.5819
78.1123
57.1785
34.7912
11.6956
10.314
31.1647
52.4852
74.3056
96.0101
116.678
135.391
151.446
164.442
174.271
181.057
185.086
186.739
186.433
184.573
181.523
177.582
172.975
167.855
162.303
156.344
149.948
143.083
135.744
127.931
119.63
110.833
101.544
91.7801
81.5691
70.9529
59.9839
48.7239
37.2416
25.6106
13.908
2.21158
-9.40076
-20.8531
-32.0723
-42.989
-53.5385
-63.6609
-73.3015
-82.4113
-90.9465
-98.8689
-106.145
-112.748
-118.654
-123.845
-128.306
-132.028
-135.005
-137.233
-138.713
-139.449
-139.446
-138.715
-137.265
-135.108
-132.26
-128.736
-124.552
-119.728
-114.28
-108.228
-101.591
-94.389
-86.6423
-78.3709
-69.5965
-60.3331
-50.6116
-40.442
-29.8413
-18.8365
-7.45893
4.25678
16.2693
28.5266
40.961
53.4835
65.9749
78.2771
90.1815
101.419
111.65
120.444
127.277
131.567
132.703
130.111
123.363
112.302
97.158
78.5878
57.5524
35.0389
11.7843
10.7875
32.584
54.8403
77.531
99.9611
121.135
140.079
156.068
168.702
177.903
183.844
186.874
187.444
186.037
183.121
179.108
174.329
169.029
163.365
157.417
151.198
144.676
137.806
130.562
122.922
114.854
106.335
97.3567
87.9253
78.0596
67.7927
57.1707
46.2496
35.0932
23.7711
12.3573
0.927705
-10.4413
-21.6743
-32.6982
-43.4429
-53.8425
-63.8359
-73.3666
-82.3837
-90.8418
-98.7005
-105.925
-112.486
-118.358
-123.521
-127.961
-131.665
-134.627
-136.842
-138.311
-139.035
-139.02
-138.275
-136.809
-134.634
-131.764
-128.215
-124.002
-119.143
-113.656
-107.56
-100.874
-93.618
-85.8117
-77.4757
-68.6308
-59.2988
-49.4992
-39.2598
-28.5906
-17.5146
-6.06442
5.72271
17.8032
30.123
42.6124
55.1797
67.7036
80.0235
91.9294
103.151
113.357
122.074
128.807
132.973
133.963
131.215
124.312
113.108
97.8391
79.1549
57.9968
35.3302
11.8881
11.2161
33.8707
56.9796
80.4554
103.521
125.106
144.185
160.01
172.191
180.682
185.71
187.692
187.149
184.636
180.681
175.743
170.183
164.258
158.125
151.851
145.438
138.84
132.005
124.883
117.429
109.593
101.343
92.6649
83.555
74.0236
64.0974
53.8184
43.238
32.415
21.4154
10.3098
-0.828399
-11.9247
-22.9049
-33.6967
-44.23
-54.4389
-64.2611
-73.6394
-82.5215
-90.8605
-98.6147
-105.748
-112.228
-118.03
-123.132
-127.517
-131.172
-134.09
-136.264
-137.695
-138.383
-138.334
-137.554
-136.053
-133.842
-130.935
-127.346
-123.091
-118.187
-112.652
-106.504
-99.763
-92.4483
-84.5798
-76.1782
-67.2647
-57.8625
-47.9904
-37.679
-26.945
-15.8076
-4.29614
7.55021
19.6854
32.0529
44.5809
57.1755
69.7134
82.0324
93.9223
105.122
115.251
123.882
130.499
134.524
135.358
132.446
125.382
114.03
98.6267
79.8132
58.5103
35.6644
12.0059
11.5997
35.0251
58.9008
83.0749
106.686
128.59
147.714
163.292
174.947
182.671
186.748
187.665
186.016
182.428
177.489
171.702
165.45
158.997
152.496
145.991
139.463
132.849
126.092
119.113
111.849
104.235
96.2254
87.8209
79.0052
69.7793
60.1633
50.2027
39.9447
29.442
18.7574
7.95911
-2.88251
-13.6954
-24.4072
-34.9467
-45.245
-55.236
-64.8579
-74.0529
-82.768
-90.9554
-98.5723
-105.581
-111.949
-117.65
-122.659
-126.961
-130.539
-133.386
-135.496
-136.865
-137.495
-137.39
-136.557
-135.003
-132.74
-129.781
-126.139
-121.83
-116.871
-111.28
-105.074
-98.2723
-90.8952
-82.9625
-74.495
-65.514
-56.0421
-46.1039
-35.7213
-24.9252
-13.7318
-2.16924
9.72474
21.902
34.3039
46.8559
59.4622
71.9977
84.2997
96.1619
107.306
117.349
125.87
132.353
136.225
136.892
133.808
126.577
115.069
99.5211
80.5616
59.0915
36.0398
12.1379
11.9395
36.0492
60.6069
85.393
109.463
131.6
150.689
165.952
177.028
183.953
187.071
186.94
184.227
179.627
173.792
167.26
160.447
153.604
146.853
140.213
133.641
127.061
120.403
113.573
106.49
99.0854
91.3143
83.1565
74.5997
65.638
56.2779
46.5941
36.6245
26.4108
16.0146
5.50472
-5.05307
-15.5895
-26.0339
-36.317
-46.3712
-56.1316
-65.5369
-74.5294
-83.0562
-91.069
-98.5245
-105.384
-111.615
-117.189
-122.082
-126.275
-129.754
-132.508
-134.53
-135.817
-136.37
-136.192
-135.288
-133.666
-131.337
-128.313
-124.607
-120.235
-115.213
-109.557
-103.288
-96.4219
-88.98
-80.9822
-72.4494
-63.4034
-53.8667
-43.865
-33.4186
-22.5598
-11.3142
0.293163
12.2251
24.4335
36.8575
49.4207
62.0256
74.5461
86.8223
98.6476
109.699
119.639
128.033
134.369
138.075
138.566
135.304
127.899
116.227
100.522
81.3987
59.7385
36.4555
12.2828
12.2372
36.9489
62.1057
87.4199
111.865
134.158
153.146
168.041
178.509
184.628
186.808
185.676
181.973
176.445
169.828
162.71
155.488
148.392
141.514
134.837
128.287
121.772
115.217
108.519
101.595
94.3737
86.8076
78.8668
70.5342
61.8023
52.6871
43.2471
33.5271
23.5534
13.3994
3.14523
-7.15716
-17.4403
-27.6333
-37.6706
-47.4861
-57.0162
-66.2009
-74.9834
-83.3112
-91.1362
-98.4152
-105.109
-111.185
-116.614
-121.372
-125.438
-128.798
-131.441
-133.358
-134.547
-135.007
-134.74
-133.752
-132.05
-129.643
-126.544
-122.765
-118.322
-113.23
-107.507
-101.169
-94.2372
-86.7297
-78.6674
-70.0712
-60.9635
-51.3667
-41.305
-30.8024
-19.8862
-8.58988
3.05922
15.0236
27.2549
39.6919
52.2565
64.8503
77.348
89.5875
101.331
112.288
122.111
130.365
136.541
140.072
140.38
136.932
129.347
117.503
101.627
82.3223
60.4493
36.9093
12.4408
12.496
37.7314
63.409
89.1725
113.917
136.299
155.129
169.624
179.473
184.805
186.093
184.035
179.39
173.071
165.849
158.314
150.86
143.67
136.777
130.128
123.63
117.186
110.719
104.125
97.3183
90.2294
82.8106
75.0323
66.8808
58.3573
49.4792
40.2783
30.7891
21.0433
11.1088
1.07557
-9.01441
-19.0842
-29.0541
-38.8699
-48.4649
-57.7772
-66.7493
-75.3254
-83.4539
-91.0877
-98.1839
-104.704
-110.615
-115.888
-120.497
-124.424
-127.652
-130.171
-131.971
-133.049
-133.404
-133.038
-131.956
-130.163
-127.671
-124.49
-120.633
-116.114
-110.949
-105.154
-98.7483
-91.7496
-84.1776
-76.0528
-67.3968
-58.2316
-48.5798
-38.4643
-27.9103
-16.9432
-5.59799
6.09062
18.0852
30.3358
42.7802
55.3399
67.9156
80.3805
92.5604
104.209
115.059
124.752
132.856
138.862
142.212
142.329
138.691
130.92
118.893
102.835
83.3295
61.2211
37.3998
12.6103
12.7189
38.4071
64.5325
90.6727
115.649
138.062
156.696
170.771
180.011
184.595
185.059
182.081
176.649
169.701
162.049
154.308
146.795
139.62
132.775
126.189
119.762
113.397
107.016
100.511
93.7961
86.8067
79.4965
71.8379
63.8196
55.4453
46.7325
37.7105
28.4147
18.8908
9.1964
-0.612664
-10.4907
-20.3685
-30.1461
-39.7803
-49.185
-58.3025
-67.0814
-75.4649
-83.4038
-90.8523
-97.7684
-104.115
-109.858
-114.97
-119.427
-123.208
-126.298
-128.684
-130.36
-131.32
-131.563
-131.091
-129.908
-128.021
-125.439
-122.172
-118.234
-113.637
-108.398
-102.533
-96.0596
-88.9962
-81.3626
-73.1793
-64.468
-55.2506
-45.549
-35.3851
-24.7826
-13.7691
-2.3793
9.3477
21.3712
33.6395
46.0884
58.6381
71.1872
83.6034
95.7026
107.258
117.993
127.549
135.494
141.325
144.487
144.41
140.576
132.613
120.396
104.14
84.4169
62.051
37.9244
12.7913
12.9102
38.9869
65.4946
91.9468
117.097
139.495
157.905
171.558
180.215
184.106
183.721
179.968
173.872
166.468
158.63
150.867
143.406
136.312
129.557
123.062
116.724
110.452
104.159
97.7339
91.0963
84.1842
76.9552
69.3847
61.4641
53.1991
44.6079
35.7195
26.5712
17.2086
7.68557
-1.94156
-11.617
-21.2728
-30.8457
-40.2897
-49.5301
-58.4817
-67.1004
-75.3142
-83.0824
-90.3606
-97.1079
-103.289
-108.87
-113.825
-118.13
-121.765
-124.716
-126.969
-128.519
-129.359
-129.488
-128.909
-127.624
-125.641
-122.969
-119.617
-115.597
-110.925
-105.614
-99.6813
-93.1437
-86.0199
-78.3294
-70.093
-61.3318
-52.0673
-42.3203
-32.1108
-21.4615
-10.4036
1.02798
12.7926
24.8444
37.1292
49.5804
62.1158
74.6319
86.9876
99.0036
110.462
121.075
130.488
138.27
143.921
146.891
146.617
142.584
134.423
122.006
105.54
85.5803
62.9354
38.4813
12.9821
13.0738
39.4836
66.3154
93.0236
118.299
140.648
158.821
172.06
180.175
183.342
182.207
177.758
171.158
163.571
155.747
148.072
140.725
133.754
127.122
120.744
114.514
108.351
102.149
95.801
89.2312
82.3821
75.2152
67.7094
59.8591
51.6726
43.1699
34.3808
25.344
16.1051
6.71589
-2.76804
-12.2886
-21.7832
-31.1884
-40.4461
-49.4892
-58.2613
-66.7205
-74.7907
-82.4165
-89.5488
-96.1461
-102.177
-107.61
-112.419
-116.581
-120.077
-122.894
-125.019
-126.446
-127.169
-127.188
-126.504
-125.122
-123.046
-120.287
-116.854
-112.759
-108.015
-102.637
-96.6422
-90.0465
-82.8685
-75.1277
-66.8444
-58.039
-48.7316
-38.9407
-28.6849
-17.9879
-6.88481
4.58907
16.3915
28.4721
40.773
53.2249
65.7427
78.2195
90.5126
102.447
113.802
124.291
133.557
141.172
146.641
149.417
148.943
144.708
136.344
123.719
107.03
86.8154
63.8707
39.0674
13.1826
13.2144
39.9093
67.0161
93.9334
119.296
141.574
159.505
172.35
179.92
182.38
180.551
175.521
168.712
161.16
153.452
145.923
138.732
131.915
125.432
119.193
113.094
107.05
100.942
94.6708
88.1651
81.3715
74.2553
66.799
59.0004
50.8703
42.4311
33.7144
24.7601
15.6144
6.32888
-3.04123
-12.4378
-21.8004
-31.0679
-40.18
-49.0752
-57.6944
-65.9844
-73.8861
-81.3593
-88.3627
-94.8336
-100.741
-106.045
-110.724
-114.759
-118.13
-120.825
-122.832
-124.146
-124.762
-124.679
-123.899
-122.426
-120.266
-117.427
-113.92
-109.757
-104.95
-99.5136
-93.4641
-86.8181
-79.5939
-71.8102
-63.4863
-54.641
-45.2915
-35.4541
-25.1467
-14.3996
-3.24779
8.27213
20.115
32.2257
44.5432
56.9957
69.4949
81.9307
94.1618
106.013
117.263
127.625
136.742
144.19
149.475
152.057
151.382
146.943
138.37
125.529
108.603
88.1172
64.853
39.6806
13.391
13.3358
40.2772
67.6178
94.7064
120.129
142.322
160.019
172.495
179.447
181.274
178.781
173.469
166.689
159.269
151.73
144.381
137.371
130.733
124.419
118.335
112.386
106.469
100.458
94.2667
87.8256
81.0854
74.0149
66.6002
58.8421
50.7545
42.3621
33.6988
24.8058
15.7303
6.52452
-2.7563
-12.0542
-21.3097
-30.4628
-39.4536
-48.2231
-56.7139
-64.8714
-72.642
-79.9774
-86.8336
-93.1675
-98.9535
-104.151
-108.725
-112.654
-115.919
-118.509
-120.415
-121.631
-122.153
-121.982
-121.118
-119.566
-117.333
-114.427
-110.858
-106.637
-101.777
-96.2919
-90.198
-83.5116
-76.2497
-68.43
-60.0699
-51.1848
-41.7893
-31.8994
-21.5332
-10.7305
0.477061
12.0497
23.9362
36.0789
48.4152
60.8698
73.3513
85.7472
97.9177
109.685
120.83
131.064
140.033
147.313
152.415
154.803
153.926
149.281
140.496
127.43
110.255
89.4807
65.8783
40.318
13.6069
13.4424
40.5985
68.1404
95.3716
120.834
142.94
160.421
172.465
178.869
180
177.097
171.766
165.117
157.875
150.528
143.379
136.57
130.128
123.999
118.086
112.294
106.503
100.595
94.4871
88.114
81.4289
74.4041
67.0286
59.3064
51.2543
42.8993
34.2775
25.4319
16.411
7.26765
-1.94241
-11.1612
-20.3296
-29.3884
-38.2784
-46.942
-55.3228
-63.3674
-71.0244
-78.2463
-84.989
-91.2112
-96.8789
-101.959
-106.427
-110.268
-113.448
-115.957
-117.784
-118.921
-119.368
-119.124
-118.193
-116.579
-114.288
-111.329
-107.71
-103.445
-98.5446
-93.0234
-86.8968
-80.1796
-72.8875
-65.0361
-56.6393
-47.7091
-38.2596
-28.3046
-17.8761
-7.00835
4.26379
15.8945
27.8273
40.0058
52.3642
64.8243
77.2917
89.6501
101.762
113.446
124.486
134.594
143.415
150.529
155.451
157.646
156.568
151.716
142.714
129.415
111.979
90.9008
66.943
40.9786
13.8276
13.5374
40.8846
68.6024
95.9553
121.449
143.469
160.728
172.33
178.132
178.708
175.674
170.452
163.972
156.92
149.778
142.84
136.243
130.009
124.077
118.338
112.705
107.039
101.236
95.217
88.9163
82.2903
75.314
67.9793
60.2932
52.2747
43.9535
35.3677
26.562
17.5862
8.49416
-0.657767
-9.81142
-18.9079
-27.8881
-36.6938
-45.2682
-53.556
-61.5046
-69.0643
-76.1885
-82.8342
-88.9621
-94.5374
-99.5285
-103.909
-107.657
-110.755
-113.193
-114.96
-116.04
-116.434
-116.141
-115.162
-113.503
-111.172
-108.176
-104.524
-100.23
-95.3033
-89.7588
-83.6097
-76.8696
-69.5516
-61.6673
-53.2271
-44.243
-34.7278
-24.6995
-14.1989
-3.25635
8.08733
19.777
31.7607
43.9795
56.3647
68.8351
81.2931
93.6184
105.674
117.278
128.216
138.2
146.877
153.828
158.572
160.577
159.301
154.24
145.018
131.478
113.769
92.3725
68.0447
41.6653
14.0482
13.6243
41.1443
69.0199
96.4807
122.001
143.954
160.93
172.115
177.289
177.568
174.584
169.506
163.199
156.341
149.407
142.684
136.305
130.286
124.535
118.981
113.498
107.957
102.264
96.3365
90.1124
83.55
76.6265
69.3365
61.6892
53.7062
45.4193
36.8684
28.1
19.165
10.1184
1.01706
-8.08047
-17.1152
-26.0285
-34.7625
-43.261
-51.4697
-59.3369
-66.814
-73.8553
-80.419
-86.467
-91.9651
-96.883
-101.195
-104.878
-107.915
-110.293
-112.001
-113.035
-113.392
-113.068
-112.062
-110.379
-108.027
-105.012
-101.345
-97.0372
-92.099
-86.542
-80.3783
-73.6188
-66.2722
-58.3477
-49.8553
-40.8058
-31.2087
-21.1046
-10.522
0.502333
11.9153
23.6679
35.7066
47.9705
60.3884
72.8754
85.33
97.6299
109.634
121.162
132.003
141.867
150.405
157.198
161.768
163.588
162.114
156.845
147.399
133.611
115.618
93.8907
69.1803
42.3777
14.2665
13.7053
41.3859
69.406
96.9666
122.516
144.392
161.104
171.771
176.488
176.687
173.811
168.875
162.737
156.07
149.341
142.831
136.668
130.852
125.285
119.902
114.561
109.147
103.563
97.729
91.5843
85.0891
78.2225
70.9814
63.377
55.4331
47.1833
38.6693
29.9388
21.0441
12.0408
2.98665
-6.05967
-15.0391
-23.8931
-32.5642
-40.9968
-49.1373
-56.9349
-64.3416
-71.313
-77.808
-83.7896
-89.2243
-94.0828
-98.3398
-101.974
-104.967
-107.306
-108.979
-109.981
-110.308
-109.961
-108.941
-107.251
-104.897
-101.881
-98.2152
-93.9077
-88.9685
-83.4065
-77.2302
-70.4472
-63.0652
-55.0925
-46.5368
-37.4042
-27.7271
-17.5374
-6.86711
4.23348
15.7171
27.5348
39.6325
51.9474
64.4051
76.9167
89.3767
101.66
113.618
125.078
135.828
145.58
153.984
160.625
165.028
166.667
165
159.523
149.85
135.808
117.521
95.451
70.3478
43.1078
14.4823
13.7827
41.6152
69.7714
97.4278
123.018
144.781
161.223
171.382
175.842
176.083
173.309
168.506
162.529
156.043
149.511
143.207
137.256
131.614
126.233
121.004
115.798
110.504
105.027
99.286
93.2214
86.7951
79.9882
72.7994
65.2418
57.3408
49.1319
40.6579
31.9679
23.1151
14.1558
5.14822
-3.84875
-12.776
-21.5751
-30.1891
-38.5626
-46.6429
-54.3796
-61.7259
-68.6378
-75.0753
-81.002
-86.3854
-91.1967
-95.4114
-99.0084
-101.97
-104.284
-105.938
-106.926
-107.244
-106.89
-105.866
-104.177
-101.828
-98.8228
-95.1682
-90.8702
-85.9347
-80.3677
-74.175
-67.3633
-59.9395
-51.9081
-43.2733
-34.0572
-24.2962
-14.0178
-3.26811
7.90687
19.4618
31.3479
43.5092
55.8805
68.3843
80.929
93.4038
105.681
117.605
129.01
139.673
149.319
157.598
164.097
168.34
169.804
167.947
162.264
152.362
138.059
119.47
97.0506
71.5552
43.8306
14.695
13.8577
41.8369
70.1232
97.8725
123.505
145.172
161.255
171.045
175.404
175.71
173.028
168.346
162.517
156.201
149.852
143.741
137.98
132.505
127.287