/*--------------------------------*- C++ -*----------------------------------*\
  =========                 |
  \\      /  F ield         | OpenFOAM: The Open Source CFD Toolbox
   \\    /   O peration     | Website:  https://openfoam.org
    \\  /    A nd           | Version:  6
     \\/     M anipulation  |
\*---------------------------------------------------------------------------*/
FoamFile
{
    version     2.0;
    format      ascii;
    class       volScalarField;
    location    "0";
    object      p;
}
// * * * * * * * * * * * * * * * * * * * * * * * * * * * * * * * * * * * * * //

dimensions      [0 2 -2 0 0 0 0];

internalField   nonuniform List<scalar> 
40000
(
0.0110636
0.0110633
0.0110621
0.0110598
0.0110568
0.0110532
0.0110491
0.0110449
0.0110407
0.0110365
0.0110325
0.0110287
0.0110252
0.0110222
0.0110195
0.0110172
0.0110154
0.0110141
0.0110133
0.0110129
0.011013
0.0110136
0.0110147
0.0110163
0.0110183
0.0110208
0.0110238
0.0110272
0.011031
0.0110353
0.0110399
0.011045
0.0110506
0.0110565
0.0110628
0.0110695
0.0110766
0.0110841
0.0110919
0.0111002
0.0111088
0.0111178
0.0111271
0.0111368
0.0111469
0.0111573
0.0111681
0.0111793
0.0111908
0.0112027
0.0112149
0.0112276
0.0112405
0.0112538
0.0112675
0.0112816
0.011296
0.0113108
0.0113259
0.0113414
0.0113572
0.0113734
0.01139
0.0114069
0.0114242
0.0114418
0.0114598
0.0114782
0.0114968
0.0115159
0.0115352
0.0115549
0.011575
0.0115953
0.011616
0.011637
0.0116583
0.0116799
0.0117018
0.011724
0.0117465
0.0117692
0.0117922
0.0118154
0.0118389
0.0118626
0.0118865
0.0119106
0.0119349
0.0119594
0.011984
0.0120087
0.0120336
0.0120585
0.0120835
0.0121086
0.0121338
0.012159
0.0121841
0.0122093
0.0122344
0.0122594
0.0122844
0.0123093
0.012334
0.0123585
0.0123829
0.0124071
0.012431
0.0124547
0.0124781
0.0125012
0.012524
0.0125464
0.0125684
0.01259
0.0126112
0.012632
0.0126522
0.012672
0.0126912
0.0127099
0.0127281
0.0127457
0.0127626
0.012779
0.0127947
0.0128097
0.0128241
0.0128378
0.0128508
0.0128632
0.0128748
0.0128856
0.0128958
0.0129052
0.0129139
0.0129218
0.012929
0.0129355
0.0129412
0.0129461
0.0129504
0.0129539
0.0129566
0.0129587
0.0129601
0.0129607
0.0129607
0.0129601
0.0129587
0.0129568
0.0129542
0.0129511
0.0129473
0.012943
0.0129382
0.0129329
0.012927
0.0129207
0.012914
0.0129069
0.0128994
0.0128915
0.0128834
0.0128749
0.0128661
0.0128572
0.012848
0.0128386
0.0128291
0.0128195
0.0128098
0.0128001
0.0127904
0.0127806
0.012771
0.0127614
0.012752
0.0127428
0.0127337
0.0127249
0.0127164
0.0127082
0.0127004
0.012693
0.0126861
0.0126796
0.0126737
0.0126684
0.0126637
0.0126597
0.0126564
0.0126539
0.0126521
0.0126511
0.0126508
0.0126511
0.0126518
0.0126525
0.0110639
0.0110636
0.0110625
0.0110605
0.0110577
0.0110545
0.0110508
0.011047
0.0110432
0.0110394
0.0110357
0.0110323
0.0110291
0.0110263
0.0110239
0.0110219
0.0110203
0.0110192
0.0110185
0.0110182
0.0110185
0.0110192
0.0110204
0.011022
0.0110241
0.0110266
0.0110296
0.011033
0.0110369
0.0110412
0.0110459
0.011051
0.0110565
0.0110624
0.0110687
0.0110754
0.0110825
0.0110899
0.0110978
0.011106
0.0111146
0.0111235
0.0111329
0.0111425
0.0111526
0.011163
0.0111738
0.0111849
0.0111964
0.0112082
0.0112204
0.011233
0.0112459
0.0112592
0.0112728
0.0112868
0.0113012
0.0113159
0.011331
0.0113464
0.0113622
0.0113784
0.0113949
0.0114117
0.0114289
0.0114465
0.0114644
0.0114826
0.0115012
0.0115202
0.0115395
0.0115591
0.011579
0.0115992
0.0116198
0.0116407
0.0116619
0.0116834
0.0117052
0.0117272
0.0117495
0.0117721
0.011795
0.0118181
0.0118414
0.0118649
0.0118887
0.0119126
0.0119367
0.011961
0.0119854
0.01201
0.0120347
0.0120594
0.0120843
0.0121092
0.0121341
0.0121591
0.0121841
0.012209
0.0122339
0.0122587
0.0122835
0.0123081
0.0123326
0.012357
0.0123811
0.0124051
0.0124288
0.0124523
0.0124755
0.0124983
0.0125209
0.0125431
0.0125649
0.0125863
0.0126073
0.0126278
0.0126479
0.0126675
0.0126865
0.0127051
0.012723
0.0127404
0.0127572
0.0127734
0.0127889
0.0128038
0.0128181
0.0128316
0.0128445
0.0128567
0.0128682
0.012879
0.012889
0.0128984
0.012907
0.0129148
0.0129219
0.0129283
0.012934
0.0129389
0.0129431
0.0129466
0.0129494
0.0129514
0.0129528
0.0129535
0.0129535
0.0129529
0.0129516
0.0129497
0.0129472
0.0129441
0.0129405
0.0129363
0.0129316
0.0129263
0.0129206
0.0129145
0.0129079
0.0129009
0.0128936
0.0128859
0.0128779
0.0128696
0.012861
0.0128522
0.0128432
0.0128341
0.0128248
0.0128154
0.012806
0.0127965
0.012787
0.0127775
0.0127681
0.0127588
0.0127497
0.0127407
0.0127319
0.0127234
0.0127152
0.0127073
0.0126997
0.0126926
0.0126859
0.0126797
0.012674
0.0126689
0.0126644
0.0126605
0.0126573
0.0126549
0.0126531
0.0126521
0.0126517
0.0126518
0.0126525
0.0126531
0.0110651
0.0110647
0.0110636
0.0110617
0.0110593
0.0110564
0.0110532
0.0110498
0.0110464
0.011043
0.0110398
0.0110367
0.011034
0.0110315
0.0110294
0.0110276
0.0110263
0.0110254
0.0110249
0.0110248
0.0110252
0.011026
0.0110273
0.011029
0.0110312
0.0110338
0.0110368
0.0110403
0.0110442
0.0110485
0.0110532
0.0110583
0.0110638
0.0110698
0.0110761
0.0110827
0.0110898
0.0110973
0.0111051
0.0111133
0.0111218
0.0111307
0.01114
0.0111497
0.0111597
0.0111701
0.0111808
0.0111919
0.0112033
0.0112151
0.0112273
0.0112398
0.0112527
0.0112659
0.0112795
0.0112934
0.0113077
0.0113224
0.0113374
0.0113527
0.0113684
0.0113845
0.0114009
0.0114177
0.0114348
0.0114523
0.0114701
0.0114882
0.0115067
0.0115255
0.0115447
0.0115642
0.011584
0.0116041
0.0116245
0.0116453
0.0116663
0.0116877
0.0117093
0.0117312
0.0117533
0.0117758
0.0117984
0.0118213
0.0118445
0.0118678
0.0118914
0.0119151
0.011939
0.0119631
0.0119873
0.0120116
0.012036
0.0120606
0.0120852
0.0121099
0.0121346
0.0121593
0.012184
0.0122087
0.0122333
0.0122579
0.0122824
0.0123068
0.012331
0.0123551
0.012379
0.0124027
0.0124261
0.0124493
0.0124722
0.0124948
0.0125171
0.0125391
0.0125606
0.0125818
0.0126025
0.0126228
0.0126426
0.012662
0.0126808
0.0126991
0.0127168
0.012734
0.0127506
0.0127665
0.0127819
0.0127966
0.0128107
0.0128241
0.0128368
0.0128489
0.0128602
0.0128708
0.0128808
0.01289
0.0128985
0.0129062
0.0129133
0.0129196
0.0129252
0.0129301
0.0129342
0.0129377
0.0129404
0.0129425
0.0129439
0.0129446
0.0129446
0.012944
0.0129428
0.012941
0.0129386
0.0129356
0.012932
0.0129279
0.0129233
0.0129182
0.0129126
0.0129066
0.0129002
0.0128934
0.0128862
0.0128787
0.0128709
0.0128628
0.0128545
0.012846
0.0128372
0.0128283
0.0128193
0.0128102
0.012801
0.0127918
0.0127826
0.0127735
0.0127644
0.0127554
0.0127466
0.0127379
0.0127295
0.0127213
0.0127134
0.0127058
0.0126985
0.0126917
0.0126853
0.0126794
0.012674
0.0126691
0.0126648
0.0126611
0.0126581
0.0126557
0.0126539
0.0126529
0.0126524
0.0126525
0.0126531
0.0126538
0.0110673
0.0110667
0.0110654
0.0110636
0.0110612
0.0110585
0.0110556
0.0110525
0.0110494
0.0110464
0.0110434
0.0110407
0.0110382
0.011036
0.0110342
0.0110327
0.0110316
0.0110308
0.0110305
0.0110306
0.0110311
0.0110321
0.0110335
0.0110353
0.0110375
0.0110402
0.0110433
0.0110468
0.0110507
0.0110551
0.0110598
0.0110649
0.0110705
0.0110764
0.0110827
0.0110894
0.0110964
0.0111038
0.0111116
0.0111198
0.0111283
0.0111372
0.0111465
0.0111561
0.0111661
0.0111764
0.0111871
0.0111982
0.0112096
0.0112213
0.0112334
0.0112459
0.0112587
0.0112719
0.0112854
0.0112993
0.0113135
0.0113281
0.0113431
0.0113583
0.011374
0.01139
0.0114063
0.011423
0.01144
0.0114574
0.0114751
0.0114932
0.0115116
0.0115303
0.0115493
0.0115687
0.0115884
0.0116084
0.0116287
0.0116493
0.0116702
0.0116914
0.0117129
0.0117346
0.0117567
0.0117789
0.0118014
0.0118242
0.0118471
0.0118703
0.0118937
0.0119172
0.011941
0.0119648
0.0119889
0.012013
0.0120372
0.0120616
0.012086
0.0121104
0.0121349
0.0121594
0.0121839
0.0122084
0.0122328
0.0122572
0.0122814
0.0123056
0.0123296
0.0123534
0.0123771
0.0124006
0.0124238
0.0124467
0.0124694
0.0124918
0.0125139
0.0125356
0.0125569
0.0125779
0.0125984
0.0126185
0.0126381
0.0126572
0.0126758
0.0126939
0.0127115
0.0127285
0.0127449
0.0127607
0.0127758
0.0127904
0.0128043
0.0128175
0.0128301
0.012842
0.0128532
0.0128638
0.0128736
0.0128827
0.0128911
0.0128988
0.0129057
0.012912
0.0129175
0.0129223
0.0129264
0.0129299
0.0129326
0.0129346
0.012936
0.0129367
0.0129368
0.0129362
0.012935
0.0129332
0.0129309
0.0129279
0.0129244
0.0129204
0.0129159
0.0129109
0.0129055
0.0128996
0.0128933
0.0128866
0.0128796
0.0128722
0.0128646
0.0128567
0.0128485
0.0128402
0.0128316
0.0128229
0.0128141
0.0128052
0.0127963
0.0127873
0.0127784
0.0127695
0.0127607
0.0127519
0.0127434
0.012735
0.0127268
0.0127189
0.0127113
0.0127039
0.012697
0.0126904
0.0126842
0.0126786
0.0126734
0.0126687
0.0126646
0.012661
0.0126581
0.0126557
0.012654
0.012653
0.0126525
0.0126526
0.0126533
0.0126541
0.0110704
0.0110695
0.0110679
0.0110659
0.0110635
0.0110609
0.0110581
0.0110552
0.0110524
0.0110496
0.0110469
0.0110444
0.0110422
0.0110402
0.0110386
0.0110373
0.0110364
0.0110358
0.0110357
0.0110359
0.0110366
0.0110377
0.0110392
0.0110411
0.0110434
0.0110461
0.0110493
0.0110528
0.0110568
0.0110612
0.0110659
0.0110711
0.0110766
0.0110825
0.0110888
0.0110955
0.0111026
0.01111
0.0111178
0.0111259
0.0111344
0.0111433
0.0111525
0.0111621
0.0111721
0.0111824
0.011193
0.011204
0.0112154
0.0112271
0.0112392
0.0112516
0.0112643
0.0112775
0.0112909
0.0113048
0.0113189
0.0113335
0.0113483
0.0113635
0.0113791
0.011395
0.0114113
0.0114279
0.0114448
0.0114621
0.0114798
0.0114977
0.011516
0.0115346
0.0115536
0.0115728
0.0115924
0.0116123
0.0116325
0.011653
0.0116738
0.0116948
0.0117162
0.0117378
0.0117597
0.0117818
0.0118042
0.0118268
0.0118496
0.0118726
0.0118958
0.0119192
0.0119427
0.0119664
0.0119903
0.0120142
0.0120383
0.0120625
0.0120867
0.0121109
0.0121352
0.0121595
0.0121839
0.0122081
0.0122323
0.0122565
0.0122806
0.0123045
0.0123283
0.0123519
0.0123754
0.0123987
0.0124217
0.0124444
0.0124669
0.0124891
0.012511
0.0125325
0.0125536
0.0125744
0.0125947
0.0126146
0.012634
0.012653
0.0126714
0.0126893
0.0127067
0.0127235
0.0127397
0.0127554
0.0127704
0.0127848
0.0127986
0.0128117
0.0128241
0.0128359
0.012847
0.0128574
0.0128671
0.0128761
0.0128844
0.012892
0.0128989
0.0129051
0.0129105
0.0129153
0.0129194
0.0129228
0.0129255
0.0129275
0.0129288
0.0129295
0.0129296
0.012929
0.0129279
0.0129261
0.0129238
0.0129209
0.0129174
0.0129135
0.012909
0.0129041
0.0128987
0.0128929
0.0128867
0.0128802
0.0128733
0.012866
0.0128585
0.0128508
0.0128428
0.0128346
0.0128262
0.0128177
0.0128091
0.0128004
0.0127916
0.0127829
0.0127741
0.0127654
0.0127568
0.0127483
0.01274
0.0127319
0.0127239
0.0127162
0.0127088
0.0127018
0.012695
0.0126887
0.0126827
0.0126772
0.0126722
0.0126677
0.0126637
0.0126603
0.0126574
0.0126552
0.0126535
0.0126524
0.012652
0.0126521
0.0126529
0.0126539
0.0110741
0.0110727
0.0110708
0.0110686
0.0110661
0.0110635
0.0110607
0.011058
0.0110552
0.0110526
0.0110501
0.0110479
0.0110458
0.0110441
0.0110427
0.0110415
0.0110408
0.0110404
0.0110404
0.0110408
0.0110416
0.0110428
0.0110444
0.0110464
0.0110488
0.0110516
0.0110548
0.0110584
0.0110624
0.0110668
0.0110716
0.0110768
0.0110823
0.0110883
0.0110946
0.0111013
0.0111083
0.0111157
0.0111235
0.0111316
0.0111401
0.011149
0.0111582
0.0111677
0.0111776
0.0111879
0.0111985
0.0112095
0.0112208
0.0112325
0.0112445
0.0112569
0.0112696
0.0112827
0.0112961
0.0113098
0.011324
0.0113384
0.0113532
0.0113684
0.0113839
0.0113997
0.0114159
0.0114324
0.0114493
0.0114665
0.011484
0.0115019
0.0115201
0.0115386
0.0115575
0.0115766
0.0115961
0.0116159
0.011636
0.0116564
0.011677
0.011698
0.0117192
0.0117407
0.0117624
0.0117844
0.0118066
0.0118291
0.0118518
0.0118746
0.0118977
0.0119209
0.0119443
0.0119679
0.0119915
0.0120153
0.0120392
0.0120632
0.0120873
0.0121114
0.0121355
0.0121596
0.0121838
0.0122078
0.0122319
0.0122559
0.0122797
0.0123035
0.0123271
0.0123506
0.0123739
0.0123969
0.0124198
0.0124423
0.0124647
0.0124867
0.0125083
0.0125297
0.0125506
0.0125712
0.0125914
0.0126111
0.0126303
0.0126491
0.0126674
0.0126851
0.0127024
0.012719
0.0127351
0.0127506
0.0127655
0.0127798
0.0127934
0.0128064
0.0128187
0.0128304
0.0128413
0.0128516
0.0128612
0.0128701
0.0128784
0.0128859
0.0128927
0.0128988
0.0129042
0.0129089
0.0129129
0.0129162
0.0129189
0.0129209
0.0129222
0.0129229
0.0129229
0.0129224
0.0129212
0.0129194
0.0129171
0.0129142
0.0129108
0.0129069
0.0129025
0.0128976
0.0128923
0.0128866
0.0128805
0.012874
0.0128672
0.0128601
0.0128527
0.012845
0.0128372
0.0128291
0.0128209
0.0128125
0.012804
0.0127955
0.0127869
0.0127783
0.0127698
0.0127613
0.0127529
0.0127446
0.0127365
0.0127285
0.0127208
0.0127133
0.0127061
0.0126992
0.0126927
0.0126865
0.0126808
0.0126754
0.0126706
0.0126662
0.0126623
0.012659
0.0126562
0.012654
0.0126524
0.0126513
0.0126509
0.012651
0.0126519
0.0126529
0.0110782
0.0110764
0.011074
0.0110715
0.0110688
0.0110661
0.0110634
0.0110607
0.011058
0.0110555
0.0110532
0.0110511
0.0110492
0.0110476
0.0110464
0.0110454
0.0110448
0.0110446
0.0110447
0.0110453
0.0110462
0.0110475
0.0110492
0.0110513
0.0110537
0.0110566
0.0110599
0.0110636
0.0110676
0.0110721
0.0110769
0.0110821
0.0110876
0.0110936
0.0110999
0.0111066
0.0111136
0.011121
0.0111288
0.0111369
0.0111454
0.0111542
0.0111634
0.0111729
0.0111828
0.011193
0.0112036
0.0112145
0.0112258
0.0112375
0.0112494
0.0112618
0.0112744
0.0112874
0.0113008
0.0113145
0.0113286
0.011343
0.0113577
0.0113728
0.0113882
0.011404
0.0114201
0.0114366
0.0114533
0.0114705
0.0114879
0.0115057
0.0115238
0.0115423
0.011561
0.0115801
0.0115994
0.0116191
0.0116391
0.0116594
0.0116799
0.0117008
0.0117219
0.0117432
0.0117649
0.0117867
0.0118088
0.0118311
0.0118537
0.0118764
0.0118993
0.0119224
0.0119457
0.0119691
0.0119926
0.0120163
0.01204
0.0120639
0.0120878
0.0121117
0.0121357
0.0121596
0.0121836
0.0122075
0.0122314
0.0122552
0.012279
0.0123026
0.012326
0.0123493
0.0123724
0.0123953
0.012418
0.0124404
0.0124626
0.0124844
0.012506
0.0125271
0.0125479
0.0125684
0.0125884
0.0126079
0.012627
0.0126457
0.0126638
0.0126814
0.0126985
0.012715
0.012731
0.0127463
0.0127611
0.0127752
0.0127887
0.0128016
0.0128138
0.0128254
0.0128362
0.0128464
0.0128559
0.0128648
0.0128729
0.0128803
0.012887
0.0128931
0.0128984
0.012903
0.012907
0.0129103
0.0129129
0.0129148
0.0129161
0.0129168
0.0129168
0.0129162
0.012915
0.0129133
0.0129109
0.0129081
0.0129047
0.0129008
0.0128964
0.0128916
0.0128863
0.0128806
0.0128746
0.0128681
0.0128614
0.0128544
0.012847
0.0128395
0.0128317
0.0128237
0.0128156
0.0128074
0.012799
0.0127906
0.0127822
0.0127738
0.0127654
0.012757
0.0127488
0.0127407
0.0127327
0.0127249
0.0127174
0.0127101
0.012703
0.0126963
0.01269
0.012684
0.0126784
0.0126732
0.0126684
0.0126642
0.0126604
0.0126572
0.0126544
0.0126523
0.0126507
0.0126496
0.0126492
0.0126493
0.0126502
0.0126512
0.0110825
0.0110803
0.0110774
0.0110745
0.0110717
0.0110688
0.011066
0.0110633
0.0110607
0.0110582
0.011056
0.011054
0.0110523
0.0110508
0.0110497
0.0110489
0.0110484
0.0110483
0.0110486
0.0110492
0.0110503
0.0110517
0.0110535
0.0110557
0.0110582
0.0110612
0.0110645
0.0110682
0.0110723
0.0110768
0.0110817
0.0110869
0.0110925
0.0110984
0.0111047
0.0111114
0.0111185
0.0111259
0.0111336
0.0111417
0.0111502
0.011159
0.0111682
0.0111777
0.0111875
0.0111977
0.0112083
0.0112192
0.0112304
0.011242
0.0112539
0.0112662
0.0112788
0.0112918
0.0113051
0.0113187
0.0113327
0.0113471
0.0113618
0.0113768
0.0113921
0.0114078
0.0114239
0.0114403
0.011457
0.011474
0.0114914
0.0115091
0.0115271
0.0115455
0.0115641
0.0115831
0.0116024
0.011622
0.0116418
0.011662
0.0116825
0.0117032
0.0117242
0.0117454
0.011767
0.0117887
0.0118107
0.0118329
0.0118553
0.0118779
0.0119007
0.0119237
0.0119468
0.0119701
0.0119935
0.012017
0.0120406
0.0120643
0.0120881
0.0121119
0.0121357
0.0121596
0.0121834
0.0122072
0.0122309
0.0122546
0.0122782
0.0123017
0.012325
0.0123481
0.0123711
0.0123939
0.0124164
0.0124387
0.0124607
0.0124824
0.0125038
0.0125248
0.0125455
0.0125658
0.0125857
0.0126051
0.0126241
0.0126426
0.0126606
0.0126781
0.012695
0.0127114
0.0127273
0.0127425
0.0127572
0.0127712
0.0127846
0.0127974
0.0128095
0.0128209
0.0128317
0.0128418
0.0128512
0.0128599
0.012868
0.0128753
0.012882
0.0128879
0.0128932
0.0128978
0.0129016
0.0129049
0.0129074
0.0129093
0.0129106
0.0129112
0.0129112
0.0129105
0.0129093
0.0129075
0.0129052
0.0129023
0.0128989
0.012895
0.0128906
0.0128858
0.0128806
0.0128749
0.0128689
0.0128625
0.0128558
0.0128488
0.0128416
0.0128341
0.0128264
0.0128185
0.0128105
0.0128023
0.0127941
0.0127858
0.0127775
0.0127692
0.0127609
0.0127527
0.0127446
0.0127366
0.0127288
0.0127211
0.0127137
0.0127066
0.0126997
0.0126931
0.0126869
0.012681
0.0126755
0.0126705
0.0126658
0.0126617
0.012658
0.0126548
0.0126521
0.01265
0.0126484
0.0126473
0.0126468
0.012647
0.0126478
0.0126488
0.0110869
0.0110842
0.0110808
0.0110776
0.0110745
0.0110714
0.0110685
0.0110657
0.0110631
0.0110607
0.0110585
0.0110566
0.011055
0.0110536
0.0110526
0.0110519
0.0110516
0.0110516
0.011052
0.0110528
0.0110539
0.0110554
0.0110573
0.0110596
0.0110622
0.0110652
0.0110686
0.0110724
0.0110765
0.0110811
0.0110859
0.0110912
0.0110968
0.0111028
0.0111091
0.0111158
0.0111228
0.0111302
0.011138
0.0111461
0.0111545
0.0111633
0.0111725
0.0111819
0.0111918
0.0112019
0.0112125
0.0112233
0.0112345
0.0112461
0.011258
0.0112702
0.0112828
0.0112957
0.0113089
0.0113225
0.0113365
0.0113507
0.0113654
0.0113803
0.0113956
0.0114113
0.0114272
0.0114435
0.0114602
0.0114771
0.0114944
0.0115121
0.01153
0.0115483
0.0115668
0.0115857
0.0116049
0.0116244
0.0116442
0.0116643
0.0116846
0.0117052
0.0117261
0.0117473
0.0117687
0.0117904
0.0118122
0.0118343
0.0118566
0.0118791
0.0119018
0.0119247
0.0119477
0.0119709
0.0119941
0.0120176
0.0120411
0.0120646
0.0120883
0.012112
0.0121357
0.0121594
0.0121831
0.0122068
0.0122304
0.012254
0.0122774
0.0123008
0.012324
0.012347
0.0123699
0.0123925
0.0124149
0.0124371
0.012459
0.0124806
0.0125019
0.0125228
0.0125433
0.0125635
0.0125833
0.0126026
0.0126215
0.0126399
0.0126578
0.0126751
0.012692
0.0127083
0.012724
0.0127392
0.0127537
0.0127676
0.0127809
0.0127936
0.0128056
0.012817
0.0128276
0.0128377
0.012847
0.0128556
0.0128636
0.0128708
0.0128774
0.0128833
0.0128885
0.012893
0.0128968
0.0128999
0.0129024
0.0129043
0.0129055
0.012906
0.012906
0.0129053
0.012904
0.0129022
0.0128998
0.0128969
0.0128935
0.0128896
0.0128852
0.0128804
0.0128751
0.0128695
0.0128635
0.0128571
0.0128504
0.0128435
0.0128363
0.0128288
0.0128212
0.0128133
0.0128054
0.0127973
0.0127891
0.0127809
0.0127727
0.0127645
0.0127563
0.0127482
0.0127402
0.0127323
0.0127246
0.0127171
0.0127098
0.0127028
0.012696
0.0126896
0.0126834
0.0126777
0.0126723
0.0126673
0.0126628
0.0126587
0.0126551
0.0126519
0.0126493
0.0126471
0.0126455
0.0126445
0.0126439
0.012644
0.0126448
0.0126457
0.0110912
0.0110881
0.0110842
0.0110806
0.0110772
0.0110739
0.0110708
0.011068
0.0110653
0.0110629
0.0110608
0.0110589
0.0110573
0.0110561
0.0110552
0.0110546
0.0110544
0.0110545
0.011055
0.0110558
0.0110571
0.0110587
0.0110606
0.011063
0.0110657
0.0110688
0.0110722
0.0110761
0.0110803
0.0110848
0.0110897
0.011095
0.0111007
0.0111066
0.011113
0.0111197
0.0111267
0.0111341
0.0111419
0.01115
0.0111584
0.0111672
0.0111763
0.0111857
0.0111955
0.0112057
0.0112162
0.011227
0.0112381
0.0112497
0.0112615
0.0112737
0.0112862
0.0112991
0.0113123
0.0113258
0.0113397
0.0113539
0.0113685
0.0113834
0.0113986
0.0114142
0.0114301
0.0114463
0.0114629
0.0114798
0.011497
0.0115146
0.0115324
0.0115506
0.0115691
0.0115879
0.011607
0.0116264
0.0116461
0.0116661
0.0116864
0.0117069
0.0117277
0.0117488
0.0117701
0.0117916
0.0118134
0.0118354
0.0118576
0.01188
0.0119026
0.0119254
0.0119483
0.0119714
0.0119946
0.0120179
0.0120413
0.0120647
0.0120883
0.0121119
0.0121355
0.0121591
0.0121827
0.0122063
0.0122298
0.0122533
0.0122766
0.0122999
0.012323
0.0123459
0.0123687
0.0123912
0.0124135
0.0124356
0.0124574
0.0124789
0.0125001
0.0125209
0.0125414
0.0125614
0.0125811
0.0126003
0.0126191
0.0126374
0.0126552
0.0126725
0.0126893
0.0127055
0.0127211
0.0127362
0.0127506
0.0127645
0.0127777
0.0127903
0.0128022
0.0128135
0.0128241
0.012834
0.0128432
0.0128518
0.0128597
0.0128668
0.0128733
0.0128791
0.0128842
0.0128887
0.0128924
0.0128955
0.0128979
0.0128997
0.0129008
0.0129013
0.0129012
0.0129005
0.0128992
0.0128973
0.0128949
0.0128919
0.0128885
0.0128845
0.0128801
0.0128752
0.01287
0.0128643
0.0128583
0.0128519
0.0128453
0.0128383
0.0128311
0.0128237
0.012816
0.0128082
0.0128003
0.0127923
0.0127842
0.012776
0.0127678
0.0127597
0.0127516
0.0127436
0.0127356
0.0127279
0.0127202
0.0127128
0.0127056
0.0126987
0.012692
0.0126857
0.0126796
0.012674
0.0126687
0.0126638
0.0126593
0.0126552
0.0126516
0.0126485
0.0126459
0.0126438
0.0126421
0.012641
0.0126405
0.0126405
0.0126411
0.0126419
0.0110954
0.0110918
0.0110874
0.0110834
0.0110797
0.0110762
0.011073
0.01107
0.0110673
0.0110648
0.0110627
0.0110608
0.0110593
0.0110581
0.0110573
0.0110568
0.0110567
0.0110569
0.0110575
0.0110584
0.0110597
0.0110614
0.0110635
0.0110659
0.0110687
0.0110718
0.0110753
0.0110792
0.0110834
0.011088
0.011093
0.0110983
0.011104
0.01111
0.0111163
0.011123
0.0111301
0.0111375
0.0111452
0.0111533
0.0111617
0.0111705
0.0111796
0.011189
0.0111988
0.0112089
0.0112194
0.0112301
0.0112413
0.0112527
0.0112645
0.0112767
0.0112892
0.011302
0.0113151
0.0113286
0.0113424
0.0113566
0.0113711
0.011386
0.0114011
0.0114166
0.0114325
0.0114486
0.0114651
0.011482
0.0114991
0.0115166
0.0115344
0.0115525
0.0115709
0.0115896
0.0116087
0.011628
0.0116476
0.0116675
0.0116877
0.0117082
0.0117289
0.0117499
0.0117711
0.0117926
0.0118143
0.0118362
0.0118583
0.0118806
0.0119031
0.0119258
0.0119486
0.0119716
0.0119947
0.0120179
0.0120412
0.0120646
0.0120881
0.0121116
0.0121351
0.0121587
0.0121822
0.0122057
0.0122291
0.0122525
0.0122758
0.0122989
0.012322
0.0123448
0.0123675
0.01239
0.0124122
0.0124342
0.0124559
0.0124773
0.0124984
0.0125192
0.0125396
0.0125596
0.0125792
0.0125983
0.012617
0.0126353
0.012653
0.0126702
0.0126869
0.012703
0.0127186
0.0127336
0.0127479
0.0127617
0.0127749
0.0127873
0.0127992
0.0128104
0.0128209
0.0128307
0.0128399
0.0128484
0.0128562
0.0128633
0.0128697
0.0128754
0.0128804
0.0128848
0.0128885
0.0128915
0.0128938
0.0128955
0.0128966
0.012897
0.0128968
0.012896
0.0128946
0.0128927
0.0128902
0.0128872
0.0128837
0.0128797
0.0128752
0.0128703
0.012865
0.0128593
0.0128533
0.0128469
0.0128402
0.0128333
0.012826
0.0128186
0.012811
0.0128032
0.0127953
0.0127873
0.0127792
0.0127711
0.0127629
0.0127548
0.0127468
0.0127388
0.0127309
0.0127232
0.0127157
0.0127083
0.0127012
0.0126943
0.0126877
0.0126814
0.0126755
0.0126699
0.0126646
0.0126598
0.0126553
0.0126513
0.0126478
0.0126447
0.012642
0.0126399
0.0126382
0.0126371
0.0126364
0.0126363
0.0126369
0.0126375
0.0110993
0.0110953
0.0110904
0.011086
0.011082
0.0110783
0.0110748
0.0110717
0.0110689
0.0110664
0.0110642
0.0110624
0.0110609
0.0110598
0.011059
0.0110586
0.0110585
0.0110588
0.0110594
0.0110605
0.0110619
0.0110636
0.0110657
0.0110682
0.0110711
0.0110743
0.0110779
0.0110818
0.0110861
0.0110907
0.0110957
0.011101
0.0111067
0.0111128
0.0111191
0.0111258
0.0111329
0.0111403
0.011148
0.0111561
0.0111645
0.0111733
0.0111823
0.0111917
0.0112015
0.0112116
0.011222
0.0112328
0.0112439
0.0112553
0.011267
0.0112791
0.0112916
0.0113043
0.0113174
0.0113309
0.0113447
0.0113588
0.0113732
0.011388
0.0114031
0.0114186
0.0114343
0.0114505
0.0114669
0.0114836
0.0115007
0.0115181
0.0115359
0.0115539
0.0115722
0.0115909
0.0116099
0.0116291
0.0116487
0.0116685
0.0116886
0.011709
0.0117296
0.0117505
0.0117717
0.0117931
0.0118147
0.0118365
0.0118586
0.0118808
0.0119033
0.0119259
0.0119486
0.0119715
0.0119946
0.0120177
0.012041
0.0120643
0.0120877
0.0121111
0.0121346
0.012158
0.0121815
0.0122049
0.0122283
0.0122516
0.0122748
0.0122979
0.0123209
0.0123437
0.0123663
0.0123887
0.0124109
0.0124329
0.0124545
0.0124759
0.0124969
0.0125176
0.012538
0.0125579
0.0125774
0.0125965
0.0126152
0.0126333
0.012651
0.0126682
0.0126848
0.0127009
0.0127164
0.0127313
0.0127456
0.0127593
0.0127724
0.0127848
0.0127966
0.0128077
0.0128181
0.0128279
0.012837
0.0128454
0.0128531
0.0128601
0.0128665
0.0128721
0.0128771
0.0128813
0.0128849
0.0128878
0.0128901
0.0128917
0.0128927
0.012893
0.0128928
0.0128919
0.0128904
0.0128884
0.0128859
0.0128828
0.0128792
0.0128751
0.0128706
0.0128657
0.0128603
0.0128546
0.0128485
0.012842
0.0128353
0.0128283
0.0128211
0.0128136
0.012806
0.0127982
0.0127902
0.0127822
0.0127742
0.012766
0.0127579
0.0127498
0.0127418
0.0127339
0.0127261
0.0127184
0.0127109
0.0127036
0.0126965
0.0126897
0.0126831
0.0126769
0.012671
0.0126654
0.0126602
0.0126554
0.012651
0.012647
0.0126434
0.0126403
0.0126377
0.0126355
0.0126338
0.0126326
0.0126319
0.0126317
0.012632
0.0126326
0.0111028
0.0110984
0.011093
0.0110883
0.0110839
0.01108
0.0110763
0.0110731
0.0110702
0.0110676
0.0110654
0.0110635
0.0110621
0.011061
0.0110602
0.0110598
0.0110598
0.0110602
0.0110609
0.011062
0.0110635
0.0110653
0.0110675
0.01107
0.011073
0.0110762
0.0110799
0.0110838
0.0110882
0.0110928
0.0110979
0.0111032
0.0111089
0.011115
0.0111214
0.0111281
0.0111351
0.0111425
0.0111503
0.0111583
0.0111667
0.0111755
0.0111845
0.0111939
0.0112036
0.0112137
0.0112241
0.0112348
0.0112459
0.0112573
0.011269
0.011281
0.0112934
0.0113062
0.0113192
0.0113326
0.0113463
0.0113604
0.0113748
0.0113895
0.0114046
0.01142
0.0114357
0.0114517
0.0114681
0.0114848
0.0115018
0.0115192
0.0115368
0.0115548
0.0115731
0.0115917
0.0116106
0.0116297
0.0116492
0.011669
0.011689
0.0117093
0.0117299
0.0117508
0.0117719
0.0117932
0.0118147
0.0118365
0.0118585
0.0118807
0.0119031
0.0119256
0.0119483
0.0119711
0.0119941
0.0120172
0.0120404
0.0120637
0.012087
0.0121104
0.0121338
0.0121572
0.0121806
0.012204
0.0122274
0.0122506
0.0122738
0.0122969
0.0123198
0.0123425
0.0123651
0.0123875
0.0124097
0.0124315
0.0124532
0.0124745
0.0124955
0.0125162
0.0125365
0.0125564
0.0125759
0.0125949
0.0126135
0.0126316
0.0126493
0.0126664
0.012683
0.012699
0.0127144
0.0127293
0.0127436
0.0127572
0.0127702
0.0127826
0.0127943
0.0128054
0.0128157
0.0128254
0.0128345
0.0128428
0.0128504
0.0128574
0.0128636
0.0128692
0.012874
0.0128782
0.0128817
0.0128846
0.0128867
0.0128883
0.0128891
0.0128894
0.012889
0.0128881
0.0128865
0.0128844
0.0128818
0.0128786
0.012875
0.0128708
0.0128662
0.0128612
0.0128558
0.0128499
0.0128438
0.0128373
0.0128305
0.0128235
0.0128162
0.0128087
0.012801
0.0127932
0.0127852
0.0127772
0.0127691
0.012761
0.0127528
0.0127448
0.0127367
0.0127288
0.012721
0.0127133
0.0127058
0.0126986
0.0126915
0.0126847
0.0126782
0.012672
0.0126661
0.0126606
0.0126554
0.0126506
0.0126462
0.0126422
0.0126386
0.0126355
0.0126328
0.0126306
0.0126289
0.0126276
0.0126268
0.0126265
0.0126267
0.0126271
0.0111059
0.0111011
0.0110953
0.0110902
0.0110855
0.0110813
0.0110775
0.011074
0.011071
0.0110684
0.0110661
0.0110642
0.0110628
0.0110617
0.0110609
0.0110606
0.0110606
0.0110611
0.0110618
0.011063
0.0110645
0.0110664
0.0110687
0.0110713
0.0110743
0.0110776
0.0110812
0.0110853
0.0110896
0.0110944
0.0110994
0.0111048
0.0111105
0.0111166
0.011123
0.0111297
0.0111368
0.0111442
0.0111519
0.01116
0.0111684
0.0111771
0.0111861
0.0111955
0.0112052
0.0112152
0.0112256
0.0112363
0.0112473
0.0112587
0.0112704
0.0112824
0.0112947
0.0113074
0.0113204
0.0113338
0.0113474
0.0113614
0.0113758
0.0113905
0.0114055
0.0114208
0.0114365
0.0114524
0.0114688
0.0114854
0.0115024
0.0115196
0.0115372
0.0115552
0.0115734
0.0115919
0.0116107
0.0116299
0.0116493
0.011669
0.011689
0.0117092
0.0117298
0.0117505
0.0117716
0.0117929
0.0118144
0.0118361
0.011858
0.0118802
0.0119025
0.011925
0.0119476
0.0119704
0.0119934
0.0120164
0.0120396
0.0120628
0.0120861
0.0121094
0.0121328
0.0121562
0.0121796
0.012203
0.0122263
0.0122495
0.0122726
0.0122957
0.0123186
0.0123413
0.0123639
0.0123862
0.0124084
0.0124302
0.0124519
0.0124732
0.0124941
0.0125148
0.0125351
0.0125549
0.0125744
0.0125934
0.012612
0.0126301
0.0126477
0.0126648
0.0126814
0.0126973
0.0127128
0.0127276
0.0127418
0.0127554
0.0127684
0.0127807
0.0127923
0.0128033
0.0128137
0.0128233
0.0128322
0.0128405
0.0128481
0.0128549
0.0128611
0.0128666
0.0128714
0.0128755
0.0128789
0.0128816
0.0128837
0.0128851
0.0128859
0.0128861
0.0128856
0.0128845
0.0128829
0.0128807
0.012878
0.0128747
0.0128709
0.0128667
0.012862
0.0128569
0.0128514
0.0128455
0.0128392
0.0128326
0.0128258
0.0128187
0.0128113
0.0128037
0.012796
0.0127881
0.0127801
0.012772
0.0127639
0.0127558
0.0127476
0.0127395
0.0127315
0.0127235
0.0127157
0.0127081
0.0127006
0.0126933
0.0126863
0.0126795
0.012673
0.0126668
0.0126609
0.0126554
0.0126502
0.0126454
0.012641
0.012637
0.0126334
0.0126303
0.0126276
0.0126253
0.0126235
0.0126221
0.0126212
0.0126208
0.0126209
0.0126211
0.0111085
0.0111033
0.0110971
0.0110916
0.0110867
0.0110822
0.0110781
0.0110745
0.0110714
0.0110687
0.0110663
0.0110644
0.0110629
0.0110618
0.0110611
0.0110608
0.0110609
0.0110614
0.0110622
0.0110634
0.011065
0.0110669
0.0110693
0.0110719
0.0110749
0.0110783
0.011082
0.0110861
0.0110905
0.0110953
0.0111003
0.0111058
0.0111115
0.0111176
0.011124
0.0111308
0.0111378
0.0111452
0.011153
0.011161
0.0111694
0.0111781
0.0111871
0.0111965
0.0112061
0.0112162
0.0112265
0.0112372
0.0112481
0.0112595
0.0112711
0.0112831
0.0112954
0.011308
0.011321
0.0113343
0.0113479
0.0113619
0.0113762
0.0113908
0.0114058
0.011421
0.0114366
0.0114526
0.0114688
0.0114854
0.0115023
0.0115196
0.0115371
0.011555
0.0115731
0.0115916
0.0116104
0.0116295
0.0116488
0.0116685
0.0116884
0.0117086
0.0117291
0.0117498
0.0117708
0.0117921
0.0118135
0.0118352
0.0118571
0.0118792
0.0119015
0.0119239
0.0119466
0.0119693
0.0119922
0.0120153
0.0120384
0.0120616
0.0120849
0.0121082
0.0121316
0.012155
0.0121783
0.0122017
0.012225
0.0122482
0.0122714
0.0122944
0.0123173
0.01234
0.0123626
0.0123849
0.0124071
0.0124289
0.0124505
0.0124718
0.0124928
0.0125135
0.0125337
0.0125536
0.0125731
0.0125921
0.0126107
0.0126288
0.0126464
0.0126634
0.01268
0.0126959
0.0127113
0.0127261
0.0127403
0.0127539
0.0127668
0.0127791
0.0127907
0.0128016
0.0128119
0.0128215
0.0128303
0.0128385
0.012846
0.0128528
0.0128589
0.0128643
0.012869
0.012873
0.0128763
0.012879
0.0128809
0.0128823
0.0128829
0.012883
0.0128824
0.0128812
0.0128795
0.0128772
0.0128743
0.012871
0.0128671
0.0128627
0.0128579
0.0128527
0.0128471
0.0128411
0.0128347
0.0128281
0.0128211
0.0128139