/*--------------------------------*- C++ -*----------------------------------*\
  =========                 |
  \\      /  F ield         | OpenFOAM: The Open Source CFD Toolbox
   \\    /   O peration     | Website:  https://openfoam.org
    \\  /    A nd           | Version:  6
     \\/     M anipulation  |
\*---------------------------------------------------------------------------*/
FoamFile
{
    version     2.0;
    format      ascii;
    class       volScalarField;
    location    "0";
    object      p;
}
// * * * * * * * * * * * * * * * * * * * * * * * * * * * * * * * * * * * * * //

dimensions      [0 2 -2 0 0 0 0];

internalField   nonuniform List<scalar> 
145945
(
3.78837e-06
3.78722e-06
3.78624e-06
3.78527e-06
3.7845e-06
3.78389e-06
3.78346e-06
3.78319e-06
3.78308e-06
3.78312e-06
3.78333e-06
3.7837e-06
3.78424e-06
3.78494e-06
3.78587e-06
3.78689e-06
3.78812e-06
3.78722e-06
3.7863e-06
3.78537e-06
3.78444e-06
3.78369e-06
3.7831e-06
3.78268e-06
3.78241e-06
3.7823e-06
3.78234e-06
3.78255e-06
3.78291e-06
3.78343e-06
3.78411e-06
3.78499e-06
3.78598e-06
3.78697e-06
3.78624e-06
3.78537e-06
3.78444e-06
3.78356e-06
3.78283e-06
3.78227e-06
3.78186e-06
3.78161e-06
3.7815e-06
3.78154e-06
3.78173e-06
3.78208e-06
3.78257e-06
3.78323e-06
3.78407e-06
3.78505e-06
3.78599e-06
3.78527e-06
3.78444e-06
3.78356e-06
3.78272e-06
3.78202e-06
3.78148e-06
3.78109e-06
3.78084e-06
3.78074e-06
3.78077e-06
3.78096e-06
3.78129e-06
3.78176e-06
3.7824e-06
3.78319e-06
3.78413e-06
3.78501e-06
3.7845e-06
3.78369e-06
3.78283e-06
3.78202e-06
3.78134e-06
3.78082e-06
3.78044e-06
3.78021e-06
3.7801e-06
3.78014e-06
3.78032e-06
3.78063e-06
3.78109e-06
3.7817e-06
3.78247e-06
3.78338e-06
3.78424e-06
3.78389e-06
3.7831e-06
3.78227e-06
3.78148e-06
3.78082e-06
3.78031e-06
3.77995e-06
3.77971e-06
3.77961e-06
3.77965e-06
3.77982e-06
3.78013e-06
3.78057e-06
3.78116e-06
3.78191e-06
3.78279e-06
3.78363e-06
3.78346e-06
3.78268e-06
3.78186e-06
3.78109e-06
3.78044e-06
3.77995e-06
3.77959e-06
3.77936e-06
3.77926e-06
3.7793e-06
3.77946e-06
3.77976e-06
3.7802e-06
3.78078e-06
3.7815e-06
3.78237e-06
3.7832e-06
3.78319e-06
3.78241e-06
3.78161e-06
3.78084e-06
3.78021e-06
3.77971e-06
3.77936e-06
3.77914e-06
3.77904e-06
3.77907e-06
3.77924e-06
3.77953e-06
3.77996e-06
3.78053e-06
3.78125e-06
3.7821e-06
3.78293e-06
3.78308e-06
3.7823e-06
3.7815e-06
3.78074e-06
3.7801e-06
3.77961e-06
3.77926e-06
3.77904e-06
3.77894e-06
3.77898e-06
3.77914e-06
3.77943e-06
3.77986e-06
3.78043e-06
3.78114e-06
3.78199e-06
3.78282e-06
3.78312e-06
3.78234e-06
3.78154e-06
3.78078e-06
3.78014e-06
3.77965e-06
3.7793e-06
3.77907e-06
3.77898e-06
3.77901e-06
3.77917e-06
3.77947e-06
3.77989e-06
3.78047e-06
3.78118e-06
3.78204e-06
3.78286e-06
3.78333e-06
3.78255e-06
3.78174e-06
3.78096e-06
3.78032e-06
3.77982e-06
3.77946e-06
3.77924e-06
3.77914e-06
3.77917e-06
3.77934e-06
3.77964e-06
3.78007e-06
3.78065e-06
3.78138e-06
3.78224e-06
3.78307e-06
3.7837e-06
3.7829e-06
3.78208e-06
3.78129e-06
3.78063e-06
3.78013e-06
3.77976e-06
3.77953e-06
3.77943e-06
3.77947e-06
3.77964e-06
3.77994e-06
3.78038e-06
3.78098e-06
3.78172e-06
3.7826e-06
3.78344e-06
3.78424e-06
3.78343e-06
3.78257e-06
3.78176e-06
3.78109e-06
3.78057e-06
3.7802e-06
3.77996e-06
3.77986e-06
3.77989e-06
3.78007e-06
3.78038e-06
3.78084e-06
3.78145e-06
3.78221e-06
3.78312e-06
3.78398e-06
3.78493e-06
3.78411e-06
3.78323e-06
3.7824e-06
3.7817e-06
3.78116e-06
3.78078e-06
3.78053e-06
3.78043e-06
3.78047e-06
3.78065e-06
3.78098e-06
3.78145e-06
3.78208e-06
3.78287e-06
3.7838e-06
3.78468e-06
3.78587e-06
3.78499e-06
3.78407e-06
3.78319e-06
3.78247e-06
3.78191e-06
3.7815e-06
3.78125e-06
3.78114e-06
3.78118e-06
3.78138e-06
3.78172e-06
3.78221e-06
3.78287e-06
3.7837e-06
3.78467e-06
3.78561e-06
3.78689e-06
3.78598e-06
3.78505e-06
3.78413e-06
3.78338e-06
3.78279e-06
3.78237e-06
3.7821e-06
3.78199e-06
3.78204e-06
3.78224e-06
3.7826e-06
3.78312e-06
3.7838e-06
3.78467e-06
3.78565e-06
3.78663e-06
3.78812e-06
3.78697e-06
3.78599e-06
3.78501e-06
3.78424e-06
3.78363e-06
3.7832e-06
3.78293e-06
3.78282e-06
3.78286e-06
3.78307e-06
3.78344e-06
3.78398e-06
3.78468e-06
3.78561e-06
3.78663e-06
3.78786e-06
3.74148e-06
3.74068e-06
3.73991e-06
3.73915e-06
3.73853e-06
3.73805e-06
3.7377e-06
3.73748e-06
3.73739e-06
3.73742e-06
3.73758e-06
3.73787e-06
3.73828e-06
3.73883e-06
3.73954e-06
3.74033e-06
3.74119e-06
3.74068e-06
3.74002e-06
3.73931e-06
3.73858e-06
3.73799e-06
3.73752e-06
3.73719e-06
3.73697e-06
3.73688e-06
3.73691e-06
3.73707e-06
3.73734e-06
3.73774e-06
3.73826e-06
3.73893e-06
3.73968e-06
3.74039e-06
3.73991e-06
3.73931e-06
3.73863e-06
3.73794e-06
3.73737e-06
3.73692e-06
3.7366e-06
3.7364e-06
3.73631e-06
3.73634e-06
3.73649e-06
3.73675e-06
3.73712e-06
3.73762e-06
3.73825e-06
3.73898e-06
3.73963e-06
3.73915e-06
3.73858e-06
3.73794e-06
3.73729e-06
3.73674e-06
3.73631e-06
3.73601e-06
3.73581e-06
3.73573e-06
3.73575e-06
3.73589e-06
3.73614e-06
3.7365e-06
3.73697e-06
3.73757e-06
3.73826e-06
3.73886e-06
3.73853e-06
3.73799e-06
3.73737e-06
3.73674e-06
3.73621e-06
3.7358e-06
3.73551e-06
3.73532e-06
3.73523e-06
3.73526e-06
3.73539e-06
3.73563e-06
3.73597e-06
3.73643e-06
3.737e-06
3.73766e-06
3.73824e-06
3.73805e-06
3.73752e-06
3.73692e-06
3.73631e-06
3.7358e-06
3.7354e-06
3.73512e-06
3.73493e-06
3.73485e-06
3.73487e-06
3.735e-06
3.73523e-06
3.73556e-06
3.73601e-06
3.73656e-06
3.73719e-06
3.73775e-06
3.7377e-06
3.73719e-06
3.7366e-06
3.73601e-06
3.73551e-06
3.73512e-06
3.73484e-06
3.73465e-06
3.73457e-06
3.73459e-06
3.73472e-06
3.73495e-06
3.73527e-06
3.7357e-06
3.73624e-06
3.73686e-06
3.73741e-06
3.73748e-06
3.73697e-06
3.7364e-06
3.73581e-06
3.73532e-06
3.73493e-06
3.73465e-06
3.73447e-06
3.73439e-06
3.73442e-06
3.73454e-06
3.73476e-06
3.73508e-06
3.73551e-06
3.73604e-06
3.73665e-06
3.73719e-06
3.73739e-06
3.73688e-06
3.73631e-06
3.73573e-06
3.73523e-06
3.73485e-06
3.73457e-06
3.73439e-06
3.73431e-06
3.73434e-06
3.73446e-06
3.73468e-06
3.735e-06
3.73542e-06
3.73595e-06
3.73656e-06
3.73709e-06
3.73742e-06
3.73691e-06
3.73634e-06
3.73575e-06
3.73526e-06
3.73487e-06
3.73459e-06
3.73442e-06
3.73434e-06
3.73436e-06
3.73448e-06
3.7347e-06
3.73502e-06
3.73545e-06
3.73598e-06
3.73659e-06
3.73713e-06
3.73758e-06
3.73707e-06
3.73649e-06
3.73589e-06
3.73539e-06
3.735e-06
3.73472e-06
3.73454e-06
3.73446e-06
3.73448e-06
3.73461e-06
3.73483e-06
3.73515e-06
3.73559e-06
3.73612e-06
3.73674e-06
3.73729e-06
3.73787e-06
3.73734e-06
3.73675e-06
3.73614e-06
3.73563e-06
3.73523e-06
3.73495e-06
3.73476e-06
3.73468e-06
3.7347e-06
3.73483e-06
3.73506e-06
3.73539e-06
3.73583e-06
3.73638e-06
3.73702e-06
3.73758e-06
3.73829e-06
3.73774e-06
3.73712e-06
3.7365e-06
3.73597e-06
3.73556e-06
3.73527e-06
3.73508e-06
3.735e-06
3.73502e-06
3.73515e-06
3.73539e-06
3.73573e-06
3.73619e-06
3.73676e-06
3.73741e-06
3.73799e-06
3.73883e-06
3.73826e-06
3.73762e-06
3.73697e-06
3.73643e-06
3.73601e-06
3.7357e-06
3.73551e-06
3.73542e-06
3.73545e-06
3.73559e-06
3.73583e-06
3.73619e-06
3.73666e-06
3.73726e-06
3.73794e-06
3.73854e-06
3.73954e-06
3.73893e-06
3.73825e-06
3.73757e-06
3.737e-06
3.73656e-06
3.73624e-06
3.73604e-06
3.73595e-06
3.73598e-06
3.73612e-06
3.73638e-06
3.73676e-06
3.73725e-06
3.73788e-06
3.7386e-06
3.73925e-06
3.74033e-06
3.73968e-06
3.73898e-06
3.73825e-06
3.73766e-06
3.73719e-06
3.73686e-06
3.73665e-06
3.73656e-06
3.73659e-06
3.73674e-06
3.73702e-06
3.73741e-06
3.73794e-06
3.7386e-06
3.73934e-06
3.74004e-06
3.74119e-06
3.74039e-06
3.73963e-06
3.73886e-06
3.73824e-06
3.73775e-06
3.73741e-06
3.73719e-06
3.73709e-06
3.73713e-06
3.73729e-06
3.73758e-06
3.73799e-06
3.73854e-06
3.73925e-06
3.74004e-06
3.7409e-06
3.70666e-06
3.7063e-06
3.70598e-06
3.70564e-06
3.70535e-06
3.70511e-06
3.70493e-06
3.70482e-06
3.70476e-06
3.70478e-06
3.70486e-06
3.705e-06
3.70521e-06
3.70546e-06
3.70576e-06
3.70609e-06
3.70645e-06
3.7063e-06
3.70598e-06
3.70565e-06
3.70531e-06
3.70502e-06
3.70478e-06
3.70459e-06
3.70447e-06
3.70442e-06
3.70443e-06
3.70452e-06
3.70466e-06
3.70487e-06
3.70513e-06
3.70544e-06
3.70577e-06
3.7061e-06
3.70598e-06
3.70565e-06
3.7053e-06
3.70495e-06
3.70465e-06
3.70441e-06
3.70422e-06
3.7041e-06
3.70405e-06
3.70406e-06
3.70415e-06
3.70429e-06
3.7045e-06
3.70476e-06
3.70508e-06
3.70543e-06
3.70577e-06
3.70564e-06
3.70531e-06
3.70495e-06
3.7046e-06
3.70429e-06
3.70405e-06
3.70386e-06
3.70374e-06
3.70368e-06
3.7037e-06
3.70378e-06
3.70393e-06
3.70414e-06
3.70441e-06
3.70472e-06
3.70509e-06
3.70543e-06
3.70535e-06
3.70502e-06
3.70465e-06
3.70429e-06
3.70399e-06
3.70374e-06
3.70355e-06
3.70343e-06
3.70337e-06
3.70339e-06
3.70347e-06
3.70362e-06
3.70383e-06
3.7041e-06
3.70442e-06
3.7048e-06
3.70515e-06
3.70511e-06
3.70478e-06
3.70441e-06
3.70405e-06
3.70374e-06
3.70349e-06
3.7033e-06
3.70318e-06
3.70312e-06
3.70314e-06
3.70322e-06
3.70337e-06
3.70358e-06
3.70385e-06
3.70418e-06
3.70455e-06
3.70491e-06
3.70494e-06
3.70459e-06
3.70422e-06
3.70386e-06
3.70355e-06
3.7033e-06
3.70312e-06
3.70299e-06
3.70294e-06
3.70295e-06
3.70303e-06
3.70318e-06
3.70339e-06
3.70367e-06
3.70399e-06
3.70437e-06
3.70473e-06
3.70482e-06
3.70447e-06
3.7041e-06
3.70374e-06
3.70343e-06
3.70318e-06
3.70299e-06
3.70287e-06
3.70282e-06
3.70283e-06
3.70291e-06
3.70306e-06
3.70327e-06
3.70354e-06
3.70387e-06
3.70425e-06
3.70461e-06
3.70476e-06
3.70442e-06
3.70405e-06
3.70368e-06
3.70337e-06
3.70312e-06
3.70294e-06
3.70282e-06
3.70276e-06
3.70277e-06
3.70286e-06
3.70301e-06
3.70322e-06
3.70349e-06
3.70382e-06
3.7042e-06
3.70456e-06
3.70478e-06
3.70443e-06
3.70406e-06
3.7037e-06
3.70339e-06
3.70314e-06
3.70295e-06
3.70283e-06
3.70277e-06
3.70279e-06
3.70287e-06
3.70302e-06
3.70323e-06
3.7035e-06
3.70383e-06
3.70421e-06
3.70457e-06
3.70486e-06
3.70452e-06
3.70415e-06
3.70378e-06
3.70347e-06
3.70322e-06
3.70303e-06
3.70291e-06
3.70286e-06
3.70287e-06
3.70295e-06
3.7031e-06
3.70331e-06
3.70359e-06
3.70391e-06
3.70429e-06
3.70465e-06
3.705e-06
3.70466e-06
3.70429e-06
3.70393e-06
3.70362e-06
3.70337e-06
3.70318e-06
3.70306e-06
3.70301e-06
3.70302e-06
3.7031e-06
3.70325e-06
3.70346e-06
3.70374e-06
3.70406e-06
3.70444e-06
3.7048e-06
3.70521e-06
3.70487e-06
3.7045e-06
3.70414e-06
3.70383e-06
3.70358e-06
3.70339e-06
3.70327e-06
3.70322e-06
3.70323e-06
3.70331e-06
3.70346e-06
3.70367e-06
3.70395e-06
3.70427e-06
3.70465e-06
3.705e-06
3.70546e-06
3.70513e-06
3.70476e-06
3.70441e-06
3.7041e-06
3.70385e-06
3.70367e-06
3.70354e-06
3.70349e-06
3.7035e-06
3.70359e-06
3.70374e-06
3.70395e-06
3.70422e-06
3.70454e-06
3.70491e-06
3.70525e-06
3.70576e-06
3.70544e-06
3.70508e-06
3.70473e-06
3.70442e-06
3.70418e-06
3.70399e-06
3.70387e-06
3.70382e-06
3.70383e-06
3.70391e-06
3.70406e-06
3.70427e-06
3.70454e-06
3.70486e-06
3.70522e-06
3.70556e-06
3.70609e-06
3.70577e-06
3.70543e-06
3.70509e-06
3.7048e-06
3.70456e-06
3.70437e-06
3.70425e-06
3.7042e-06
3.70421e-06
3.7043e-06
3.70444e-06
3.70465e-06
3.70491e-06
3.70522e-06
3.70555e-06
3.70588e-06
3.70646e-06
3.7061e-06
3.70577e-06
3.70543e-06
3.70515e-06
3.70491e-06
3.70473e-06
3.70461e-06
3.70456e-06
3.70457e-06
3.70465e-06
3.7048e-06
3.705e-06
3.70525e-06
3.70556e-06
3.70588e-06
3.70625e-06
3.66569e-06
3.66554e-06
3.66543e-06
3.66531e-06
3.66521e-06
3.66512e-06
3.66504e-06
3.66498e-06
3.66496e-06
3.66496e-06
3.66499e-06
3.66505e-06
3.66513e-06
3.66522e-06
3.66531e-06
3.6654e-06
3.66553e-06
3.66554e-06
3.66538e-06
3.66526e-06
3.66514e-06
3.66502e-06
3.66491e-06
3.66483e-06
3.66477e-06
3.66474e-06
3.66475e-06
3.66478e-06
3.66484e-06
3.66493e-06
3.66503e-06
3.66514e-06
3.66525e-06
3.66538e-06
3.66543e-06
3.66526e-06
3.66512e-06
3.66497e-06
3.66484e-06
3.66473e-06
3.66463e-06
3.66457e-06
3.66454e-06
3.66455e-06
3.66459e-06
3.66465e-06
3.66475e-06
3.66487e-06
3.665e-06
3.66513e-06
3.66527e-06
3.66531e-06
3.66514e-06
3.66497e-06
3.66482e-06
3.66467e-06
3.66454e-06
3.66445e-06
3.66438e-06
3.66435e-06
3.66435e-06
3.6644e-06
3.66447e-06
3.66457e-06
3.6647e-06
3.66485e-06
3.665e-06
3.66516e-06
3.66521e-06
3.66502e-06
3.66484e-06
3.66467e-06
3.66451e-06
3.66438e-06
3.66428e-06
3.66421e-06
3.66417e-06
3.66418e-06
3.66422e-06
3.6643e-06
3.66442e-06
3.66456e-06
3.66472e-06
3.66489e-06
3.66506e-06
3.66512e-06
3.66491e-06
3.66473e-06
3.66454e-06
3.66438e-06
3.66424e-06
3.66413e-06
3.66406e-06
3.66403e-06
3.66403e-06
3.66408e-06
3.66416e-06
3.66428e-06
3.66443e-06
3.6646e-06
3.66478e-06
3.66496e-06
3.66504e-06
3.66483e-06
3.66463e-06
3.66445e-06
3.66428e-06
3.66413e-06
3.66402e-06
3.66395e-06
3.66391e-06
3.66392e-06
3.66397e-06
3.66405e-06
3.66417e-06
3.66433e-06
3.6645e-06
3.66469e-06
3.66489e-06
3.66498e-06
3.66477e-06
3.66457e-06
3.66438e-06
3.66421e-06
3.66406e-06
3.66395e-06
3.66387e-06
3.66384e-06
3.66385e-06
3.66389e-06
3.66398e-06
3.6641e-06
3.66426e-06
3.66444e-06
3.66464e-06
3.66483e-06
3.66496e-06
3.66474e-06
3.66454e-06
3.66435e-06
3.66417e-06
3.66403e-06
3.66391e-06
3.66384e-06
3.66381e-06
3.66381e-06
3.66386e-06
3.66395e-06
3.66407e-06
3.66423e-06
3.66441e-06
3.66461e-06
3.66481e-06
3.66496e-06
3.66475e-06
3.66455e-06
3.66435e-06
3.66418e-06
3.66403e-06
3.66392e-06
3.66385e-06
3.66381e-06
3.66382e-06
3.66387e-06
3.66395e-06
3.66408e-06
3.66424e-06
3.66442e-06
3.66461e-06
3.66481e-06
3.66499e-06
3.66478e-06
3.66459e-06
3.6644e-06
3.66422e-06
3.66408e-06
3.66397e-06
3.66389e-06
3.66386e-06
3.66387e-06
3.66391e-06
3.664e-06
3.66412e-06
3.66428e-06
3.66445e-06
3.66465e-06
3.66484e-06
3.66505e-06
3.66484e-06
3.66465e-06
3.66447e-06
3.6643e-06
3.66416e-06
3.66405e-06
3.66398e-06
3.66395e-06
3.66395e-06
3.664e-06
3.66408e-06
3.6642e-06
3.66435e-06
3.66452e-06
3.66471e-06
3.6649e-06
3.66513e-06
3.66493e-06
3.66475e-06
3.66457e-06
3.66442e-06
3.66428e-06
3.66417e-06
3.6641e-06
3.66407e-06
3.66408e-06
3.66412e-06
3.6642e-06
3.66432e-06
3.66446e-06
3.66462e-06
3.66479e-06
3.66497e-06
3.66522e-06
3.66503e-06
3.66487e-06
3.6647e-06
3.66456e-06
3.66443e-06
3.66433e-06
3.66426e-06
3.66423e-06
3.66424e-06
3.66428e-06
3.66435e-06
3.66446e-06
3.66459e-06
3.66474e-06
3.6649e-06
3.66506e-06
3.66531e-06
3.66514e-06
3.665e-06
3.66485e-06
3.66472e-06
3.6646e-06
3.6645e-06
3.66444e-06
3.66441e-06
3.66442e-06
3.66446e-06
3.66452e-06
3.66462e-06
3.66474e-06
3.66487e-06
3.66501e-06
3.66516e-06
3.66541e-06
3.66525e-06
3.66513e-06
3.665e-06
3.66489e-06
3.66478e-06
3.6647e-06
3.66464e-06
3.66461e-06
3.66461e-06
3.66465e-06
3.66471e-06
3.6648e-06
3.6649e-06
3.66501e-06
3.66512e-06
3.66525e-06
3.66553e-06
3.66538e-06
3.66527e-06
3.66516e-06
3.66506e-06
3.66497e-06
3.66489e-06
3.66484e-06
3.66481e-06
3.66481e-06
3.66484e-06
3.6649e-06
3.66497e-06
3.66506e-06
3.66516e-06
3.66525e-06
3.66537e-06
3.62712e-06
3.62708e-06
3.62705e-06
3.62703e-06
3.62702e-06
3.62699e-06
3.62697e-06
3.62695e-06
3.62693e-06
3.62693e-06
3.62694e-06
3.62695e-06
3.62696e-06
3.62697e-06
3.62697e-06
3.62697e-06
3.62698e-06
3.62708e-06
3.62703e-06
3.62699e-06
3.62696e-06
3.62694e-06
3.6269e-06
3.62687e-06
3.62685e-06
3.62684e-06
3.62683e-06
3.62684e-06
3.62686e-06
3.62687e-06
3.62689e-06
3.6269e-06
3.62691e-06
3.62694e-06
3.62705e-06
3.62699e-06
3.62694e-06
3.6269e-06
3.62685e-06
3.62681e-06
3.62678e-06
3.62675e-06
3.62673e-06
3.62673e-06
3.62674e-06
3.62676e-06
3.62679e-06
3.62682e-06
3.62685e-06
3.62688e-06
3.62692e-06
3.62703e-06
3.62696e-06
3.6269e-06
3.62683e-06
3.62678e-06
3.62672e-06
3.62668e-06
3.62665e-06
3.62663e-06
3.62663e-06
3.62664e-06
3.62667e-06
3.62671e-06
3.62675e-06
3.62679e-06
3.62684e-06
3.6269e-06
3.62702e-06
3.62694e-06
3.62685e-06
3.62678e-06
3.62671e-06
3.62664e-06
3.6266e-06
3.62656e-06
3.62654e-06
3.62654e-06
3.62656e-06
3.62659e-06
3.62664e-06
3.62669e-06
3.62675e-06
3.62681e-06
3.62688e-06
3.62699e-06
3.6269e-06
3.62681e-06
3.62672e-06
3.62664e-06
3.62658e-06
3.62652e-06
3.62648e-06
3.62646e-06
3.62646e-06
3.62648e-06
3.62652e-06
3.62657e-06
3.62664e-06
3.62671e-06
3.62678e-06
3.62686e-06
3.62697e-06
3.62687e-06
3.62678e-06
3.62668e-06
3.6266e-06
3.62652e-06
3.62646e-06
3.62642e-06
3.6264e-06
3.6264e-06
3.62642e-06
3.62647e-06
3.62652e-06
3.62659e-06
3.62667e-06
3.62675e-06
3.62683e-06
3.62695e-06
3.62685e-06
3.62675e-06
3.62665e-06
3.62656e-06
3.62648e-06
3.62642e-06
3.62638e-06
3.62636e-06
3.62636e-06
3.62638e-06
3.62643e-06
3.62649e-06
3.62656e-06
3.62664e-06
3.62673e-06
3.62681e-06
3.62693e-06
3.62684e-06
3.62673e-06
3.62663e-06
3.62654e-06
3.62646e-06
3.6264e-06
3.62636e-06
3.62634e-06
3.62634e-06
3.62636e-06
3.62641e-06
3.62647e-06
3.62654e-06
3.62662e-06
3.62672e-06
3.6268e-06
3.62693e-06
3.62683e-06
3.62673e-06
3.62663e-06
3.62654e-06
3.62646e-06
3.6264e-06
3.62636e-06
3.62634e-06
3.62634e-06
3.62636e-06
3.62641e-06
3.62647e-06
3.62654e-06
3.62662e-06
3.62671e-06
3.6268e-06
3.62694e-06
3.62684e-06
3.62674e-06
3.62664e-06
3.62656e-06
3.62648e-06
3.62642e-06
3.62638e-06
3.62636e-06
3.62636e-06
3.62639e-06
3.62643e-06
3.62648e-06
3.62655e-06
3.62663e-06
3.62672e-06
3.6268e-06
3.62695e-06
3.62686e-06
3.62676e-06
3.62667e-06
3.62659e-06
3.62652e-06
3.62647e-06
3.62643e-06
3.62641e-06
3.62641e-06
3.62643e-06
3.62647e-06
3.62652e-06
3.62658e-06
3.62666e-06
3.62673e-06
3.62681e-06
3.62696e-06
3.62687e-06
3.62679e-06
3.62671e-06
3.62664e-06
3.62657e-06
3.62652e-06
3.62649e-06
3.62647e-06
3.62647e-06
3.62648e-06
3.62652e-06
3.62657e-06
3.62662e-06
3.62669e-06
3.62675e-06
3.62683e-06
3.62697e-06
3.62689e-06
3.62682e-06
3.62675e-06
3.62669e-06
3.62664e-06
3.62659e-06
3.62656e-06
3.62654e-06
3.62654e-06
3.62656e-06
3.62658e-06
3.62662e-06
3.62667e-06
3.62672e-06
3.62677e-06
3.62683e-06
3.62697e-06
3.6269e-06
3.62685e-06
3.6268e-06
3.62675e-06
3.62671e-06
3.62667e-06
3.62664e-06
3.62663e-06
3.62662e-06
3.62663e-06
3.62666e-06
3.62669e-06
3.62672e-06
3.62675e-06
3.62678e-06
3.62683e-06
3.62697e-06
3.62691e-06
3.62688e-06
3.62684e-06
3.62681e-06
3.62678e-06
3.62675e-06
3.62673e-06
3.62672e-06
3.62671e-06
3.62672e-06
3.62674e-06
3.62675e-06
3.62677e-06
3.62678e-06
3.6268e-06
3.62683e-06
3.62698e-06
3.62694e-06
3.62692e-06
3.6269e-06
3.62688e-06
3.62686e-06
3.62683e-06
3.62681e-06
3.6268e-06
3.6268e-06
3.6268e-06
3.62681e-06
3.62683e-06
3.62683e-06
3.62683e-06
3.62683e-06
3.62685e-06
3.58839e-06
3.58841e-06
3.58844e-06
3.58849e-06
3.58853e-06
3.58855e-06
3.58857e-06
3.58857e-06
3.58857e-06
3.58856e-06
3.58855e-06
3.58853e-06
3.5885e-06
3.58846e-06
3.5884e-06
3.58833e-06
3.58829e-06
3.58841e-06
3.58841e-06
3.58844e-06
3.58848e-06
3.58851e-06
3.58853e-06
3.58854e-06
3.58854e-06
3.58854e-06
3.58853e-06
3.58852e-06
3.5885e-06
3.58848e-06
3.58844e-06
3.58839e-06
3.58834e-06
3.58831e-06
3.58844e-06
3.58844e-06
3.58846e-06
3.58848e-06
3.5885e-06
3.58851e-06
3.58851e-06
3.58851e-06
3.58851e-06
3.5885e-06
3.58849e-06
3.58848e-06
3.58847e-06
3.58844e-06
3.5884e-06
3.58836e-06
3.58834e-06
3.58849e-06
3.58848e-06
3.58848e-06
3.58849e-06
3.58849e-06
3.58849e-06
3.58849e-06
3.58848e-06
3.58848e-06
3.58847e-06
3.58847e-06
3.58846e-06
3.58846e-06
3.58844e-06
3.58842e-06
3.5884e-06
3.58839e-06
3.58853e-06
3.58851e-06
3.5885e-06
3.58849e-06
3.58849e-06
3.58848e-06
3.58847e-06
3.58846e-06
3.58845e-06
3.58845e-06
3.58845e-06
3.58845e-06
3.58845e-06
3.58845e-06
3.58844e-06
3.58843e-06
3.58843e-06
3.58855e-06
3.58853e-06
3.58851e-06
3.58849e-06
3.58848e-06
3.58846e-06
3.58844e-06
3.58843e-06
3.58842e-06
3.58842e-06
3.58842e-06
3.58843e-06
3.58844e-06
3.58844e-06
3.58845e-06
3.58845e-06
3.58846e-06
3.58857e-06
3.58854e-06
3.58851e-06
3.58849e-06
3.58847e-06
3.58844e-06
3.58842e-06
3.58841e-06
3.5884e-06
3.5884e-06
3.5884e-06
3.58841e-06
3.58842e-06
3.58844e-06
3.58845e-06
3.58846e-06
3.58847e-06
3.58857e-06
3.58854e-06
3.58851e-06
3.58848e-06
3.58846e-06
3.58843e-06
3.58841e-06
3.58839e-06
3.58838e-06
3.58838e-06
3.58839e-06
3.5884e-06
3.58841e-06
3.58843e-06
3.58844e-06
3.58846e-06
3.58848e-06
3.58857e-06
3.58854e-06
3.58851e-06
3.58848e-06
3.58845e-06
3.58842e-06
3.5884e-06
3.58838e-06
3.58837e-06
3.58837e-06
3.58838e-06
3.58839e-06
3.5884e-06
3.58842e-06
3.58844e-06
3.58846e-06
3.58847e-06
3.58856e-06
3.58853e-06
3.5885e-06
3.58847e-06
3.58845e-06
3.58842e-06
3.5884e-06
3.58838e-06
3.58837e-06
3.58837e-06
3.58837e-06
3.58838e-06
3.5884e-06
3.58842e-06
3.58843e-06
3.58845e-06
3.58847e-06
3.58855e-06
3.58852e-06
3.58849e-06
3.58847e-06
3.58845e-06
3.58842e-06
3.5884e-06
3.58839e-06
3.58838e-06
3.58837e-06
3.58838e-06
3.58839e-06
3.5884e-06
3.58842e-06
3.58843e-06
3.58844e-06
3.58845e-06
3.58853e-06
3.5885e-06
3.58848e-06
3.58846e-06
3.58845e-06
3.58843e-06
3.58841e-06
3.5884e-06
3.58839e-06
3.58838e-06
3.58839e-06
3.58839e-06
3.5884e-06
3.58841e-06
3.58842e-06
3.58842e-06
3.58843e-06
3.5885e-06
3.58848e-06
3.58847e-06
3.58846e-06
3.58845e-06
3.58844e-06
3.58842e-06
3.58841e-06
3.5884e-06
3.5884e-06
3.5884e-06
3.5884e-06
3.58841e-06
3.58841e-06
3.5884e-06
3.5884e-06
3.5884e-06
3.58846e-06
3.58844e-06
3.58844e-06
3.58844e-06
3.58845e-06
3.58844e-06
3.58844e-06
3.58843e-06
3.58842e-06
3.58842e-06
3.58842e-06
3.58841e-06
3.58841e-06
3.5884e-06
3.58838e-06
3.58836e-06
3.58836e-06
3.5884e-06
3.58839e-06
3.5884e-06
3.58842e-06
3.58844e-06
3.58845e-06
3.58845e-06
3.58844e-06
3.58844e-06
3.58843e-06
3.58843e-06
3.58842e-06
3.5884e-06
3.58838e-06
3.58835e-06
3.58831e-06
3.5883e-06
3.58833e-06
3.58834e-06
3.58836e-06
3.5884e-06
3.58843e-06
3.58845e-06
3.58846e-06
3.58846e-06
3.58846e-06
3.58845e-06
3.58844e-06
3.58842e-06
3.5884e-06
3.58836e-06
3.58831e-06
3.58826e-06
3.58823e-06
3.58829e-06
3.58831e-06
3.58834e-06
3.58839e-06
3.58843e-06
3.58846e-06
3.58847e-06
3.58848e-06
3.58848e-06
3.58847e-06
3.58846e-06
3.58844e-06
3.5884e-06
3.58836e-06
3.5883e-06
3.58823e-06
3.58819e-06
3.55011e-06
3.55014e-06
3.55019e-06
3.55025e-06
3.5503e-06
3.55034e-06
3.55036e-06
3.55038e-06
3.55038e-06
3.55037e-06
3.55035e-06
3.55033e-06
3.55029e-06
3.55023e-06
3.55016e-06
3.55009e-06
3.55003e-06
3.55014e-06
3.55017e-06
3.55022e-06
3.55027e-06
3.55032e-06
3.55035e-06
3.55037e-06
3.55038e-06
3.55039e-06
3.55038e-06
3.55036e-06
3.55033e-06
3.5503e-06
3.55025e-06
3.55018e-06
3.55011e-06
3.55007e-06
3.55019e-06
3.55022e-06
3.55025e-06
3.5503e-06
3.55034e-06
3.55036e-06
3.55038e-06
3.55039e-06
3.55039e-06
3.55038e-06
3.55037e-06
3.55035e-06
3.55031e-06
3.55027e-06
3.55022e-06
3.55016e-06
3.55011e-06
3.55025e-06
3.55027e-06
3.5503e-06
3.55033e-06
3.55036e-06
3.55038e-06
3.55039e-06
3.5504e-06
3.5504e-06
3.55039e-06
3.55038e-06
3.55036e-06
3.55034e-06
3.5503e-06
3.55025e-06
3.55021e-06
3.55017e-06
3.5503e-06
3.55032e-06
3.55034e-06
3.55036e-06
3.55038e-06
3.55039e-06
3.5504e-06
3.5504e-06
3.5504e-06
3.5504e-06
3.55039e-06
3.55037e-06
3.55035e-06
3.55033e-06
3.55029e-06
3.55025e-06
3.55023e-06
3.55034e-06
3.55035e-06
3.55036e-06
3.55038e-06
3.55039e-06
3.5504e-06
3.55041e-06
3.5504e-06
3.5504e-06
3.5504e-06
3.55039e-06
3.55038e-06
3.55037e-06
3.55035e-06
3.55032e-06
3.55029e-06
3.55026e-06
3.55036e-06
3.55037e-06
3.55038e-06
3.55039e-06
3.5504e-06
3.55041e-06
3.55041e-06
3.5504e-06
3.5504e-06
3.55039e-06
3.55039e-06
3.55038e-06
3.55037e-06
3.55036e-06
3.55033e-06
3.55031e-06
3.55029e-06
3.55038e-06
3.55038e-06
3.55039e-06
3.5504e-06
3.5504e-06
3.5504e-06
3.5504e-06
3.5504e-06
3.5504e-06
3.55039e-06
3.55039e-06
3.55038e-06
3.55037e-06
3.55036e-06
3.55034e-06
3.55032e-06
3.5503e-06
3.55038e-06
3.55039e-06
3.55039e-06
3.5504e-06
3.5504e-06
3.5504e-06
3.5504e-06
3.5504e-06
3.55039e-06
3.55039e-06
3.55038e-06
3.55038e-06
3.55037e-06
3.55036e-06
3.55034e-06
3.55032e-06
3.5503e-06
3.55037e-06
3.55038e-06
3.55038e-06
3.55039e-06
3.5504e-06
3.5504e-06
3.55039e-06
3.55039e-06
3.55039e-06
3.55038e-06
3.55038e-06
3.55037e-06
3.55036e-06
3.55035e-06
3.55034e-06
3.55032e-06
3.5503e-06
3.55035e-06
3.55036e-06
3.55037e-06
3.55038e-06
3.55039e-06
3.55039e-06
3.55039e-06
3.55039e-06
3.55038e-06
3.55038e-06
3.55037e-06
3.55037e-06
3.55036e-06
3.55034e-06
3.55032e-06
3.5503e-06
3.55028e-06
3.55033e-06
3.55033e-06
3.55035e-06
3.55036e-06
3.55037e-06
3.55038e-06
3.55038e-06
3.55038e-06
3.55038e-06
3.55037e-06
3.55037e-06
3.55036e-06
3.55034e-06
3.55033e-06
3.5503e-06
3.55027e-06
3.55025e-06
3.55029e-06
3.5503e-06
3.55031e-06
3.55034e-06
3.55035e-06
3.55037e-06
3.55037e-06
3.55037e-06
3.55037e-06
3.55037e-06
3.55036e-06
3.55034e-06
3.55033e-06
3.5503e-06
3.55027e-06
3.55023e-06
3.55021e-06
3.55023e-06
3.55025e-06
3.55027e-06
3.5503e-06
3.55033e-06
3.55035e-06
3.55036e-06
3.55036e-06
3.55036e-06
3.55035e-06
3.55034e-06
3.55033e-06
3.5503e-06
3.55027e-06
3.55023e-06
3.55018e-06
3.55015e-06
3.55016e-06
3.55018e-06
3.55022e-06
3.55026e-06
3.55029e-06
3.55032e-06
3.55033e-06
3.55034e-06
3.55034e-06
3.55034e-06
3.55032e-06
3.5503e-06
3.55027e-06
3.55023e-06
3.55018e-06
3.55012e-06
3.55008e-06
3.55009e-06
3.55011e-06
3.55016e-06
3.55021e-06
3.55025e-06
3.55029e-06
3.55031e-06
3.55032e-06
3.55032e-06
3.55032e-06
3.5503e-06
3.55027e-06
3.55023e-06
3.55018e-06
3.55012e-06
3.55006e-06
3.55001e-06
3.55003e-06
3.55007e-06
3.55012e-06
3.55017e-06
3.55023e-06
3.55026e-06
3.55029e-06
3.5503e-06
3.5503e-06
3.5503e-06
3.55028e-06
3.55025e-06
3.55021e-06
3.55015e-06
3.55008e-06
3.55001e-06
3.54996e-06
3.51202e-06
3.51206e-06
3.51211e-06
3.51216e-06
3.51222e-06
3.51225e-06
3.51228e-06
3.51229e-06
3.5123e-06
3.51229e-06
3.51227e-06
3.51225e-06
3.51221e-06
3.51215e-06
3.51209e-06
3.51202e-06
3.51197e-06
3.51206e-06
3.5121e-06
3.51214e-06
3.51219e-06
3.51224e-06
3.51228e-06
3.5123e-06
3.51232e-06
3.51232e-06
3.51231e-06
3.5123e-06
3.51227e-06
3.51223e-06
3.51218e-06
3.51212e-06
3.51205e-06
3.512e-06
3.51211e-06
3.51214e-06
3.51218e-06
3.51223e-06
3.51227e-06
3.51231e-06
3.51233e-06
3.51234e-06
3.51234e-06
3.51234e-06
3.51232e-06
3.5123e-06
3.51226e-06
3.51221e-06
3.51216e-06
3.5121e-06
3.51205e-06
3.51216e-06
3.51219e-06
3.51223e-06
3.51227e-06
3.51231e-06
3.51234e-06
3.51235e-06
3.51236e-06
3.51237e-06
3.51236e-06
3.51235e-06
3.51232e-06
3.51229e-06
3.51225e-06
3.5122e-06
3.51215e-06
3.51211e-06
3.51222e-06
3.51224e-06
3.51227e-06
3.51231e-06
3.51234e-06
3.51236e-06
3.51238e-06
3.51239e-06
3.51239e-06
3.51238e-06
3.51237e-06
3.51235e-06
3.51232e-06
3.51229e-06
3.51224e-06
3.5122e-06
3.51216e-06
3.51225e-06
3.51228e-06
3.51231e-06
3.51234e-06
3.51236e-06
3.51238e-06
3.51239e-06
3.5124e-06
3.5124e-06
3.51239e-06
3.51238e-06
3.51237e-06
3.51234e-06
3.51231e-06
3.51227e-06
3.51223e-06
3.5122e-06
3.51228e-06
3.5123e-06
3.51233e-06
3.51235e-06
3.51238e-06
3.51239e-06
3.5124e-06
3.51241e-06
3.51241e-06
3.5124e-06
3.51239e-06
3.51238e-06
3.51236e-06
3.51233e-06
3.5123e-06
3.51226e-06
3.51222e-06
3.51229e-06
3.51232e-06
3.51234e-06
3.51236e-06
3.51239e-06
3.5124e-06
3.51241e-06
3.51241e-06
3.51241e-06
3.51241e-06
3.5124e-06
3.51238e-06
3.51236e-06
3.51234e-06
3.51231e-06
3.51227e-06
3.51224e-06
3.5123e-06
3.51232e-06
3.51234e-06
3.51237e-06
3.51239e-06
3.5124e-06
3.51241e-06
3.51241e-06
3.51241e-06
3.5124e-06
3.5124e-06
3.51238e-06
3.51236e-06
3.51234e-06
3.51231e-06
3.51227e-06
3.51224e-06
3.51229e-06
3.51231e-06
3.51234e-06
3.51236e-06
3.51238e-06
3.51239e-06
3.5124e-06
3.51241e-06
3.5124e-06
3.5124e-06
3.51239e-06
3.51238e-06
3.51236e-06
3.51233e-06
3.5123e-06
3.51227e-06
3.51223e-06
3.51227e-06
3.5123e-06
3.51232e-06
3.51235e-06
3.51237e-06
3.51238e-06
3.51239e-06
3.5124e-06
3.5124e-06
3.51239e-06
3.51238e-06
3.51237e-06
3.51235e-06
3.51232e-06
3.51229e-06
3.51225e-06
3.51222e-06
3.51225e-06
3.51227e-06
3.5123e-06
3.51232e-06
3.51235e-06
3.51237e-06
3.51238e-06
3.51238e-06
3.51238e-06
3.51238e-06
3.51237e-06
3.51235e-06
3.51233e-06
3.5123e-06
3.51226e-06
3.51222e-06
3.51219e-06
3.51221e-06
3.51223e-06
3.51226e-06
3.51229e-06
3.51232e-06
3.51234e-06
3.51236e-06
3.51236e-06
3.51237e-06
3.51236e-06
3.51235e-06
3.51233e-06
3.5123e-06
3.51227e-06
3.51223e-06
3.51218e-06
3.51215e-06
3.51215e-06
3.51218e-06
3.51221e-06
3.51225e-06
3.51229e-06
3.51231e-06
3.51233e-06
3.51234e-06
3.51234e-06
3.51233e-06
3.51232e-06
3.5123e-06
3.51227e-06
3.51223e-06
3.51218e-06
3.51213e-06
3.51209e-06
3.51209e-06
3.51212e-06
3.51216e-06
3.5122e-06
3.51224e-06
3.51228e-06
3.5123e-06
3.51231e-06
3.51231e-06
3.5123e-06
3.51229e-06
3.51226e-06
3.51223e-06
3.51218e-06
3.51213e-06
3.51207e-06
3.51203e-06
3.51202e-06
3.51205e-06
3.5121e-06
3.51215e-06
3.5122e-06
3.51223e-06
3.51226e-06
3.51227e-06
3.51228e-06
3.51227e-06
3.51225e-06
3.51222e-06
3.51218e-06
3.51213e-06
3.51207e-06
3.51201e-06
3.51197e-06
3.51197e-06
3.51201e-06
3.51205e-06
3.51211e-06
3.51216e-06
3.5122e-06
3.51222e-06
3.51224e-06
3.51224e-06
3.51224e-06
3.51222e-06
3.51219e-06
3.51215e-06
3.5121e-06
3.51203e-06
3.51197e-06
3.51191e-06
3.47409e-06
3.47413e-06
3.47417e-06
3.47421e-06
3.47425e-06
3.47429e-06
3.47431e-06
3.47432e-06
3.47432e-06
3.47432e-06
3.4743e-06
3.47428e-06
3.47425e-06
3.4742e-06
3.47415e-06
3.4741e-06
3.47405e-06
3.47413e-06
3.47416e-06
3.4742e-06
3.47424e-06
3.47428e-06
3.47431e-06
3.47434e-06
3.47435e-06
3.47435e-06
3.47435e-06
3.47433e-06
3.47431e-06
3.47427e-06
3.47423e-06
3.47418e-06
3.47413e-06
3.47408e-06
3.47417e-06
3.4742e-06
3.47424e-06
3.47428e-06
3.47431e-06
3.47434e-06
3.47436e-06
3.47437e-06
3.47438e-06
3.47437e-06
3.47436e-06
3.47433e-06
3.4743e-06
3.47426e-06
3.47421e-06
3.47416e-06
3.47412e-06
3.47421e-06
3.47424e-06
3.47428e-06
3.47431e-06
3.47435e-06
3.47437e-06
3.47439e-06
3.4744e-06
3.4744e-06
3.4744e-06
3.47439e-06
3.47436e-06
3.47434e-06
3.4743e-06
3.47425e-06
3.47421e-06
3.47417e-06
3.47425e-06
3.47428e-06
3.47431e-06
3.47435e-06
3.47438e-06
3.4744e-06
3.47442e-06
3.47443e-06
3.47443e-06
3.47442e-06
3.47441e-06
3.47439e-06
3.47436e-06
3.47433e-06
3.47429e-06
3.47425e-06
3.47421e-06
3.47429e-06
3.47431e-06
3.47434e-06
3.47437e-06
3.4744e-06
3.47442e-06
3.47444e-06
3.47444e-06
3.47445e-06
3.47444e-06
3.47443e-06
3.47441e-06
3.47439e-06
3.47436e-06
3.47432e-06
3.47428e-06
3.47424e-06
3.47431e-06
3.47434e-06
3.47436e-06
3.47439e-06
3.47442e-06
3.47444e-06
3.47445e-06
3.47446e-06
3.47446e-06
3.47445e-06
3.47444e-06
3.47442e-06
3.4744e-06
3.47437e-06
3.47434e-06
3.4743e-06
3.47426e-06
3.47432e-06
3.47435e-06
3.47437e-06
3.4744e-06
3.47443e-06
3.47444e-06
3.47446e-06
3.47446e-06
3.47446e-06
3.47446e-06
3.47445e-06
3.47443e-06
3.47441e-06
3.47438e-06
3.47435e-06
3.47431e-06
3.47428e-06
3.47432e-06
3.47435e-06
3.47438e-06
3.4744e-06
3.47443e-06
3.47445e-06
3.47446e-06
3.47446e-06
3.47446e-06
3.47446e-06
3.47445e-06
3.47443e-06
3.47441e-06
3.47438e-06
3.47435e-06
3.47431e-06
3.47428e-06
3.47432e-06
3.47435e-06