/*--------------------------------*- C++ -*----------------------------------*\
  =========                 |
  \\      /  F ield         | OpenFOAM: The Open Source CFD Toolbox
   \\    /   O peration     | Website:  https://openfoam.org
    \\  /    A nd           | Version:  6
     \\/     M anipulation  |
\*---------------------------------------------------------------------------*/
FoamFile
{
    version     2.0;
    format      ascii;
    class       volVectorField;
    location    "0";
    object      U_rec;
}
// * * * * * * * * * * * * * * * * * * * * * * * * * * * * * * * * * * * * * //

dimensions      [0 1 -1 0 0 0 0];

internalField   nonuniform List<vector> 
40000
(
(5.61907e-07 -5.61927e-07 0)
(2.25667e-06 -6.81234e-07 0)
(3.50072e-06 -4.09479e-07 0)
(3.52439e-06 2.79598e-08 0)
(1.85855e-06 5.05697e-07 0)
(-1.59612e-06 9.7349e-07 0)
(-6.7821e-06 1.40701e-06 0)
(-1.35736e-05 1.79697e-06 0)
(-2.18174e-05 2.14219e-06 0)
(-3.1356e-05 2.44501e-06 0)
(-4.20386e-05 2.70903e-06 0)
(-5.37245e-05 2.93807e-06 0)
(-6.62851e-05 3.13577e-06 0)
(-7.96045e-05 3.30542e-06 0)
(-9.35775e-05 3.44997e-06 0)
(-0.000108108 3.57208e-06 0)
(-0.00012311 3.67411e-06 0)
(-0.000138507 3.75821e-06 0)
(-0.000154229 3.82631e-06 0)
(-0.000170215 3.88022e-06 0)
(-0.000186408 3.92155e-06 0)
(-0.000202759 3.95179e-06 0)
(-0.000219225 3.97229e-06 0)
(-0.000235768 3.9843e-06 0)
(-0.000252353 3.98896e-06 0)
(-0.000268954 3.98727e-06 0)
(-0.000285542 3.98015e-06 0)
(-0.000302097 3.96844e-06 0)
(-0.000318601 3.95287e-06 0)
(-0.000335039 3.93407e-06 0)
(-0.000351397 3.91263e-06 0)
(-0.000367664 3.88905e-06 0)
(-0.000383832 3.86374e-06 0)
(-0.000399894 3.83709e-06 0)
(-0.000415844 3.8094e-06 0)
(-0.000431678 3.78094e-06 0)
(-0.000447391 3.7519e-06 0)
(-0.000462985 3.72244e-06 0)
(-0.000478453 3.69271e-06 0)
(-0.000493795 3.66279e-06 0)
(-0.000509011 3.63274e-06 0)
(-0.0005241 3.60259e-06 0)
(-0.000539061 3.57237e-06 0)
(-0.000553894 3.54203e-06 0)
(-0.000568599 3.51158e-06 0)
(-0.000583171 3.48096e-06 0)
(-0.000597615 3.45012e-06 0)
(-0.000611926 3.419e-06 0)
(-0.000626104 3.38752e-06 0)
(-0.000640148 3.35565e-06 0)
(-0.000654055 3.32326e-06 0)
(-0.000667824 3.29032e-06 0)
(-0.000681452 3.25674e-06 0)
(-0.000694936 3.22245e-06 0)
(-0.000708274 3.18738e-06 0)
(-0.000721464 3.15147e-06 0)
(-0.000734499 3.11467e-06 0)
(-0.000747378 3.07691e-06 0)
(-0.000760097 3.03815e-06 0)
(-0.000772652 2.99837e-06 0)
(-0.000785038 2.95748e-06 0)
(-0.000797252 2.91549e-06 0)
(-0.00080929 2.87238e-06 0)
(-0.000821145 2.82809e-06 0)
(-0.000832815 2.78264e-06 0)
(-0.000844293 2.73602e-06 0)
(-0.000855578 2.68819e-06 0)
(-0.000866658 2.63917e-06 0)
(-0.000877539 2.58897e-06 0)
(-0.000888208 2.53754e-06 0)
(-0.000898663 2.48497e-06 0)
(-0.000908899 2.43121e-06 0)
(-0.000918912 2.37628e-06 0)
(-0.000928698 2.3202e-06 0)
(-0.000938252 2.26292e-06 0)
(-0.000947567 2.20451e-06 0)
(-0.000956641 2.14503e-06 0)
(-0.000965469 2.08438e-06 0)
(-0.000974047 2.02268e-06 0)
(-0.00098237 1.9599e-06 0)
(-0.000990429 1.896e-06 0)
(-0.000998231 1.83107e-06 0)
(-0.00100576 1.76504e-06 0)
(-0.00101302 1.69802e-06 0)
(-0.00102 1.62992e-06 0)
(-0.0010267 1.56083e-06 0)
(-0.00103312 1.49067e-06 0)
(-0.00103924 1.41956e-06 0)
(-0.00104507 1.34743e-06 0)
(-0.00105061 1.27433e-06 0)
(-0.00105583 1.20026e-06 0)
(-0.00106076 1.12519e-06 0)
(-0.00106538 1.04917e-06 0)
(-0.00106967 9.72205e-07 0)
(-0.00107365 8.94309e-07 0)
(-0.00107731 8.15498e-07 0)
(-0.00108064 7.35765e-07 0)
(-0.00108364 6.55147e-07 0)
(-0.0010863 5.73647e-07 0)
(-0.00108863 4.91285e-07 0)
(-0.00109062 4.08095e-07 0)
(-0.00109225 3.24078e-07 0)
(-0.00109354 2.39261e-07 0)
(-0.00109448 1.53666e-07 0)
(-0.00109506 6.73235e-08 0)
(-0.00109528 -1.97477e-08 0)
(-0.00109514 -1.07519e-07 0)
(-0.00109462 -1.95971e-07 0)
(-0.00109374 -2.85068e-07 0)
(-0.00109249 -3.74799e-07 0)
(-0.00109086 -4.65117e-07 0)
(-0.00108885 -5.55993e-07 0)
(-0.00108647 -6.4743e-07 0)
(-0.0010837 -7.39365e-07 0)
(-0.00108054 -8.31795e-07 0)
(-0.00107699 -9.24691e-07 0)
(-0.00107307 -1.01802e-06 0)
(-0.00106875 -1.11175e-06 0)
(-0.00106402 -1.20589e-06 0)
(-0.00105891 -1.30039e-06 0)
(-0.0010534 -1.39523e-06 0)
(-0.0010475 -1.49043e-06 0)
(-0.00104119 -1.58592e-06 0)
(-0.00103448 -1.68166e-06 0)
(-0.00102737 -1.77766e-06 0)
(-0.00101985 -1.8739e-06 0)
(-0.00101194 -1.97034e-06 0)
(-0.00100362 -2.06699e-06 0)
(-0.000994887 -2.16381e-06 0)
(-0.000985752 -2.26073e-06 0)
(-0.000976212 -2.35774e-06 0)
(-0.000966263 -2.45484e-06 0)
(-0.000955907 -2.55196e-06 0)
(-0.000945143 -2.64897e-06 0)
(-0.000933976 -2.74591e-06 0)
(-0.000922401 -2.84267e-06 0)
(-0.000910422 -2.93922e-06 0)
(-0.000898039 -3.03541e-06 0)
(-0.000885254 -3.13122e-06 0)
(-0.000872068 -3.22646e-06 0)
(-0.000858488 -3.32118e-06 0)
(-0.000844511 -3.41515e-06 0)
(-0.000830144 -3.50816e-06 0)
(-0.00081539 -3.60018e-06 0)
(-0.000800254 -3.69106e-06 0)
(-0.00078474 -3.78062e-06 0)
(-0.000768855 -3.86864e-06 0)
(-0.000752603 -3.95495e-06 0)
(-0.000735997 -4.03939e-06 0)
(-0.000719041 -4.12171e-06 0)
(-0.000701742 -4.2017e-06 0)
(-0.000684117 -4.27912e-06 0)
(-0.000666172 -4.35375e-06 0)
(-0.000647918 -4.42532e-06 0)
(-0.000629371 -4.49358e-06 0)
(-0.000610548 -4.55822e-06 0)
(-0.000591456 -4.61898e-06 0)
(-0.00057212 -4.67556e-06 0)
(-0.00055255 -4.72764e-06 0)
(-0.000532772 -4.7749e-06 0)
(-0.000512802 -4.817e-06 0)
(-0.000492666 -4.85359e-06 0)
(-0.000472383 -4.88431e-06 0)
(-0.00045198 -4.90878e-06 0)
(-0.000431483 -4.92659e-06 0)
(-0.000410923 -4.93734e-06 0)
(-0.000390326 -4.94059e-06 0)
(-0.000369727 -4.93589e-06 0)
(-0.000349158 -4.92275e-06 0)
(-0.000328657 -4.90071e-06 0)
(-0.000308259 -4.86923e-06 0)
(-0.000288008 -4.82779e-06 0)
(-0.000267943 -4.77582e-06 0)
(-0.000248111 -4.71273e-06 0)
(-0.000228558 -4.63792e-06 0)
(-0.000209335 -4.5508e-06 0)
(-0.000190494 -4.45068e-06 0)
(-0.000172088 -4.33695e-06 0)
(-0.000154178 -4.20894e-06 0)
(-0.000136823 -4.06599e-06 0)
(-0.000120084 -3.90743e-06 0)
(-0.000104029 -3.73265e-06 0)
(-8.87242e-05 -3.541e-06 0)
(-7.42397e-05 -3.33192e-06 0)
(-6.06478e-05 -3.10487e-06 0)
(-4.80223e-05 -2.85939e-06 0)
(-3.64372e-05 -2.5951e-06 0)
(-2.59677e-05 -2.31175e-06 0)
(-1.66883e-05 -2.00921e-06 0)
(-8.67346e-06 -1.68764e-06 0)
(-1.99247e-06 -1.3476e-06 0)
(3.28994e-06 -9.90438e-07 0)
(7.12098e-06 -6.18994e-07 0)
(9.4676e-06 -2.39042e-07 0)
(1.03336e-05 1.3805e-07 0)
(9.78747e-06 4.90564e-07 0)
(8.00481e-06 7.8057e-07 0)
(5.35364e-06 9.45291e-07 0)
(2.571e-06 8.60119e-07 0)
(4.45197e-07 4.44896e-07 0)
(6.82544e-07 -2.25791e-06 0)
(2.67885e-06 -2.67523e-06 0)
(2.90533e-06 -6.1774e-07 0)
(-9.37701e-08 2.64576e-06 0)
(-7.23087e-06 6.36997e-06 0)
(-1.87833e-05 1.01361e-05 0)
(-3.46919e-05 1.37226e-05 0)
(-5.47214e-05 1.70266e-05 0)
(-7.85504e-05 2.00118e-05 0)
(-0.000105824 2.26761e-05 0)
(-0.000136186 2.50339e-05 0)
(-0.000169293 2.71062e-05 0)
(-0.000204822 2.89159e-05 0)
(-0.000242474 3.04859e-05 0)
(-0.000281971 3.18376e-05 0)
(-0.000323058 3.29912e-05 0)
(-0.000365505 3.39655e-05 0)
(-0.000409099 3.47782e-05 0)
(-0.00045365 3.54453e-05 0)
(-0.000498984 3.59817e-05 0)
(-0.000544946 3.64015e-05 0)
(-0.000591397 3.67178e-05 0)
(-0.000638212 3.69421e-05 0)
(-0.000685281 3.70859e-05 0)
(-0.000732506 3.71589e-05 0)
(-0.000779803 3.71704e-05 0)
(-0.000827097 3.71289e-05 0)
(-0.000874324 3.70417e-05 0)
(-0.000921432 3.69157e-05 0)
(-0.000968365 3.67571e-05 0)
(-0.00101509 3.65711e-05 0)
(-0.00106158 3.63624e-05 0)
(-0.00110779 3.61351e-05 0)
(-0.0011537 3.5893e-05 0)
(-0.00119931 3.56388e-05 0)
(-0.00124459 3.53752e-05 0)
(-0.00128952 3.51043e-05 0)
(-0.00133412 3.48279e-05 0)
(-0.00137835 3.45473e-05 0)
(-0.00142222 3.42634e-05 0)
(-0.00146572 3.39772e-05 0)
(-0.00150886 3.3689e-05 0)
(-0.00155161 3.33992e-05 0)
(-0.001594 3.31077e-05 0)
(-0.001636 3.28146e-05 0)
(-0.00167764 3.25196e-05 0)
(-0.00171887 3.22223e-05 0)
(-0.00175973 3.19225e-05 0)
(-0.0018002 3.16195e-05 0)
(-0.00184027 3.13128e-05 0)
(-0.00187994 3.10019e-05 0)
(-0.00191921 3.06863e-05 0)
(-0.00195807 3.03652e-05 0)
(-0.00199651 3.00382e-05 0)
(-0.00203453 2.97046e-05 0)
(-0.00207211 2.93642e-05 0)
(-0.00210925 2.90162e-05 0)
(-0.00214594 2.86603e-05 0)
(-0.00218217 2.82961e-05 0)
(-0.00221793 2.7923e-05 0)
(-0.00225321 2.75411e-05 0)
(-0.00228799 2.71498e-05 0)
(-0.00232228 2.67489e-05 0)
(-0.00235605 2.63384e-05 0)
(-0.0023893 2.5918e-05 0)
(-0.002422 2.54875e-05 0)
(-0.00245415 2.50471e-05 0)
(-0.00248575 2.45965e-05 0)
(-0.00251677 2.41356e-05 0)
(-0.00254719 2.36647e-05 0)
(-0.00257703 2.31835e-05 0)
(-0.00260624 2.26923e-05 0)
(-0.00263484 2.21909e-05 0)
(-0.00266281 2.16793e-05 0)
(-0.00269012 2.11578e-05 0)
(-0.00271677 2.06262e-05 0)
(-0.00274275 2.0085e-05 0)
(-0.00276804 1.95338e-05 0)
(-0.00279264 1.89724e-05 0)
(-0.00281652 1.84018e-05 0)
(-0.00283969 1.78211e-05 0)
(-0.00286212 1.72308e-05 0)
(-0.00288381 1.6631e-05 0)
(-0.00290473 1.60212e-05 0)
(-0.00292488 1.54019e-05 0)
(-0.00294425 1.47726e-05 0)
(-0.00296282 1.41341e-05 0)
(-0.00298058 1.34859e-05 0)
(-0.00299753 1.2828e-05 0)
(-0.00301365 1.21606e-05 0)
(-0.00302891 1.14836e-05 0)
(-0.00304331 1.07972e-05 0)
(-0.00305684 1.01011e-05 0)
(-0.0030695 9.39556e-06 0)
(-0.00308125 8.68061e-06 0)
(-0.00309209 7.95638e-06 0)
(-0.00310201 7.22292e-06 0)
(-0.003111 6.4802e-06 0)
(-0.00311905 5.72847e-06 0)
(-0.00312613 4.96786e-06 0)
(-0.00313224 4.1983e-06 0)
(-0.00313736 3.42025e-06 0)
(-0.0031415 2.63376e-06 0)
(-0.00314463 1.83896e-06 0)
(-0.00314673 1.03607e-06 0)
(-0.00314783 2.25474e-07 0)
(-0.00314788 -5.92818e-07 0)
(-0.00314686 -1.41836e-06 0)
(-0.00314481 -2.25101e-06 0)
(-0.00314167 -3.09045e-06 0)
(-0.00313747 -3.93641e-06 0)
(-0.00313216 -4.78857e-06 0)
(-0.00312578 -5.64674e-06 0)
(-0.00311829 -6.51039e-06 0)
(-0.00310969 -7.37952e-06 0)
(-0.00309997 -8.25376e-06 0)
(-0.00308913 -9.13247e-06 0)
(-0.00307716 -1.00159e-05 0)
(-0.00306405 -1.09037e-05 0)
(-0.0030498 -1.17951e-05 0)
(-0.0030344 -1.269e-05 0)
(-0.00301785 -1.35886e-05 0)
(-0.00300015 -1.44899e-05 0)
(-0.00298129 -1.53947e-05 0)
(-0.00296126 -1.63005e-05 0)
(-0.00294007 -1.72103e-05 0)
(-0.00291771 -1.81207e-05 0)
(-0.00289419 -1.90333e-05 0)
(-0.0028695 -1.99468e-05 0)
(-0.00284363 -2.08609e-05 0)
(-0.00281658 -2.17754e-05 0)
(-0.00278838 -2.26911e-05 0)
(-0.00275899 -2.36055e-05 0)
(-0.00272844 -2.4519e-05 0)
(-0.00269672 -2.54308e-05 0)
(-0.00266384 -2.63412e-05 0)
(-0.00262979 -2.72485e-05 0)
(-0.00259458 -2.8152e-05 0)
(-0.00255824 -2.90518e-05 0)
(-0.00252073 -2.99462e-05 0)
(-0.0024821 -3.0834e-05 0)
(-0.00244234 -3.17144e-05 0)
(-0.00240146 -3.25866e-05 0)
(-0.00235948 -3.34489e-05 0)
(-0.00231641 -3.43005e-05 0)
(-0.00227225 -3.51393e-05 0)
(-0.00222705 -3.59642e-05 0)
(-0.00218079 -3.67734e-05 0)
(-0.00213353 -3.75648e-05 0)
(-0.00208526 -3.8337e-05 0)
(-0.00203603 -3.90879e-05 0)
(-0.00198585 -3.98153e-05 0)
(-0.00193476 -4.05173e-05 0)
(-0.0018828 -4.11915e-05 0)
(-0.00182998 -4.18354e-05 0)
(-0.00177639 -4.24464e-05 0)
(-0.00172202 -4.30221e-05 0)
(-0.00166694 -4.35595e-05 0)
(-0.0016112 -4.40561e-05 0)
(-0.00155485 -4.45085e-05 0)
(-0.00149795 -4.49139e-05 0)
(-0.00144056 -4.52688e-05 0)
(-0.00138274 -4.55699e-05 0)
(-0.00132458 -4.58135e-05 0)
(-0.00126612 -4.59961e-05 0)
(-0.00120747 -4.61135e-05 0)
(-0.0011487 -4.61618e-05 0)
(-0.00108992 -4.61369e-05 0)
(-0.00103119 -4.6034e-05 0)
(-0.000972638 -4.58489e-05 0)
(-0.000914367 -4.55764e-05 0)
(-0.000856482 -4.52119e-05 0)
(-0.000799112 -4.47498e-05 0)
(-0.00074238 -4.41851e-05 0)
(-0.000686423 -4.35121e-05 0)
(-0.000631371 -4.27253e-05 0)
(-0.000577381 -4.18189e-05 0)
(-0.000524604 -4.07871e-05 0)
(-0.000473201 -3.96242e-05 0)
(-0.000423339 -3.83247e-05 0)
(-0.000375198 -3.6883e-05 0)
(-0.000328955 -3.52938e-05 0)
(-0.000284798 -3.35525e-05 0)
(-0.000242917 -3.1655e-05 0)
(-0.000203509 -2.95978e-05 0)
(-0.000166771 -2.73789e-05 0)
(-0.000132902 -2.49969e-05 0)
(-0.000102097 -2.24529e-05 0)
(-7.45473e-05 -1.97499e-05 0)
(-5.04361e-05 -1.68949e-05 0)
(-2.99307e-05 -1.39e-05 0)
(-1.31726e-05 -1.07859e-05 0)
(-2.65185e-07 -7.58838e-06 0)
(8.74876e-06 -4.36839e-06 0)
(1.3927e-05 -1.23055e-06 0)
(1.54829e-05 1.64853e-06 0)
(1.38665e-05 3.98144e-06 0)
(9.90264e-06 5.32503e-06 0)
(5.05331e-06 5.0598e-06 0)
(8.58181e-07 2.56827e-06 0)
(4.12447e-07 -3.50695e-06 0)
(6.24755e-07 -2.90333e-06 0)
(-2.56347e-06 2.56746e-06 0)
(-1.07942e-05 1.05272e-05 0)
(-2.50582e-05 1.95256e-05 0)
(-4.57142e-05 2.86848e-05 0)
(-7.27222e-05 3.75015e-05 0)
(-0.000105807 4.57167e-05 0)
(-0.000144559 5.32192e-05 0)
(-0.00018851 5.99802e-05 0)
(-0.000237171 6.60151e-05 0)
(-0.000290059 7.13596e-05 0)
(-0.000346709 7.60593e-05 0)
(-0.000406679 8.01624e-05 0)
(-0.000469558 8.37165e-05 0)
(-0.000534964 8.67681e-05 0)
(-0.000602544 8.93614e-05 0)
(-0.000671973 9.15382e-05 0)
(-0.000742952 9.33379e-05 0)
(-0.000815215 9.47974e-05 0)
(-0.00088852 9.59517e-05 0)
(-0.00096264 9.6833e-05 0)
(-0.00103738 9.74716e-05 0)
(-0.00111256 9.78956e-05 0)
(-0.00118804 9.81306e-05 0)
(-0.00126365 9.82001e-05 0)
(-0.00133931 9.81262e-05 0)
(-0.00141488 9.79284e-05 0)
(-0.00149028 9.76241e-05 0)
(-0.00156544 9.72294e-05 0)
(-0.00164028 9.67587e-05 0)
(-0.00171475 9.62243e-05 0)
(-0.00178879 9.56372e-05 0)
(-0.00186238 9.50068e-05 0)
(-0.00193548 9.43415e-05 0)
(-0.00200805 9.36483e-05 0)
(-0.00208009 9.29328e-05 0)
(-0.00215155 9.21997e-05 0)
(-0.00222245 9.14533e-05 0)
(-0.00229277 9.06965e-05 0)
(-0.00236249 8.99316e-05 0)
(-0.00243162 8.91596e-05 0)
(-0.00250012 8.83823e-05 0)
(-0.00256803 8.75994e-05 0)
(-0.00263532 8.68117e-05 0)
(-0.00270199 8.60183e-05 0)
(-0.00276802 8.52189e-05 0)
(-0.00283344 8.44121e-05 0)
(-0.0028982 8.3598e-05 0)
(-0.00296233 8.27742e-05 0)
(-0.00302581 8.19401e-05 0)
(-0.00308863 8.10934e-05 0)
(-0.00315079 8.02341e-05 0)
(-0.00321227 7.93598e-05 0)
(-0.00327306 7.84696e-05 0)
(-0.00333315 7.75625e-05 0)
(-0.00339254 7.66368e-05 0)
(-0.00345119 7.56916e-05 0)
(-0.00350911 7.47264e-05 0)
(-0.00356627 7.37392e-05 0)
(-0.00362266 7.27302e-05 0)
(-0.00367827 7.16977e-05 0)
(-0.00373309 7.06425e-05 0)
(-0.00378708 6.95628e-05 0)
(-0.00384023 6.84586e-05 0)
(-0.00389254 6.73296e-05 0)
(-0.00394397 6.61765e-05 0)
(-0.00399452 6.49973e-05 0)
(-0.00404417 6.37922e-05 0)
(-0.00409288 6.25624e-05 0)
(-0.00414066 6.13079e-05 0)
(-0.00418747 6.00271e-05 0)
(-0.0042333 5.87205e-05 0)
(-0.00427814 5.73891e-05 0)
(-0.00432196 5.60319e-05 0)
(-0.00436475 5.46497e-05 0)
(-0.00440647 5.32403e-05 0)
(-0.00444713 5.18068e-05 0)
(-0.00448668 5.03485e-05 0)
(-0.00452512 4.8863e-05 0)
(-0.00456245 4.73535e-05 0)
(-0.00459861 4.5817e-05 0)
(-0.00463361 4.42555e-05 0)
(-0.00466742 4.26689e-05 0)
(-0.0047 4.10568e-05 0)
(-0.00473136 3.94175e-05 0)
(-0.00476148 3.77536e-05 0)
(-0.0047903 3.60621e-05 0)
(-0.00481784 3.43451e-05 0)
(-0.00484408 3.26027e-05 0)
(-0.00486898 3.08324e-05 0)
(-0.00489251 2.90373e-05 0)
(-0.00491465 2.7215e-05 0)
(-0.00493542 2.53667e-05 0)
(-0.00495475 2.3492e-05 0)
(-0.00497266 2.1591e-05 0)
(-0.00498907 1.96639e-05 0)
(-0.00500401 1.77116e-05 0)
(-0.00501743 1.5733e-05 0)
(-0.00502932 1.37292e-05 0)
(-0.00503969 1.17004e-05 0)
(-0.00504846 9.64697e-06 0)
(-0.00505563 7.56947e-06 0)
(-0.00506121 5.46825e-06 0)
(-0.00506515 3.34407e-06 0)
(-0.00506744 1.19736e-06 0)
(-0.00506806 -9.71008e-07 0)
(-0.00506698 -3.16057e-06 0)
(-0.00506422 -5.37059e-06 0)
(-0.00505972 -7.59945e-06 0)
(-0.0050535 -9.84809e-06 0)
(-0.00504551 -1.21144e-05 0)
(-0.00503574 -1.43968e-05 0)
(-0.0050242 -1.66961e-05 0)
(-0.00501088 -1.90109e-05 0)
(-0.00499572 -2.13398e-05 0)
(-0.00497876 -2.36823e-05 0)
(-0.00495996 -2.60369e-05 0)
(-0.00493932 -2.84031e-05 0)
(-0.00491685 -3.07804e-05 0)
(-0.00489252 -3.31672e-05 0)
(-0.00486631 -3.5564e-05 0)
(-0.00483825 -3.79677e-05 0)
(-0.0048083 -4.03785e-05 0)
(-0.00477645 -4.27959e-05 0)
(-0.00474273 -4.52183e-05 0)
(-0.00470714 -4.76458e-05 0)
(-0.00466964 -5.00754e-05 0)
(-0.00463027 -5.25077e-05 0)
(-0.00458899 -5.49416e-05 0)
(-0.00454583 -5.73746e-05 0)
(-0.00450076 -5.98076e-05 0)
(-0.00445382 -6.2238e-05 0)
(-0.004405 -6.4665e-05 0)
(-0.00435429 -6.70861e-05 0)
(-0.00430171 -6.95002e-05 0)
(-0.00424728 -7.19064e-05 0)
(-0.00419098 -7.43007e-05 0)
(-0.00413284 -7.66824e-05 0)
(-0.00407287 -7.90502e-05 0)
(-0.00401108 -8.13987e-05 0)
(-0.00394748 -8.37279e-05 0)
(-0.0038821 -8.6033e-05 0)
(-0.00381496 -8.83114e-05 0)
(-0.00374607 -9.05613e-05 0)
(-0.00367547 -9.27765e-05 0)
(-0.00360317 -9.49543e-05 0)
(-0.00352922 -9.70901e-05 0)
(-0.00345364 -9.918e-05 0)
(-0.00337648 -0.000101219 0)
(-0.00329776 -0.000103203 0)
(-0.00321755 -0.000105124 0)
(-0.00313588 -0.000106979 0)
(-0.00305282 -0.000108761 0)
(-0.00296841 -0.000110464 0)
(-0.00288272 -0.000112082 0)
(-0.00279583 -0.000113607 0)
(-0.00270779 -0.000115033 0)
(-0.00261868 -0.000116353 0)
(-0.0025286 -0.000117557 0)
(-0.00243764 -0.000118638 0)
(-0.00234589 -0.000119588 0)
(-0.00225344 -0.000120397 0)
(-0.00216043 -0.000121055 0)
(-0.00206695 -0.000121555 0)
(-0.00197314 -0.000121884 0)
(-0.00187913 -0.00012203 0)
(-0.00178506 -0.000121986 0)
(-0.00169108 -0.000121738 0)
(-0.00159737 -0.000121274 0)
(-0.00150407 -0.00012058 0)
(-0.00141137 -0.000119645 0)
(-0.00131948 -0.000118454 0)
(-0.00122857 -0.000116994 0)
(-0.00113886 -0.000115251 0)
(-0.00105058 -0.000113209 0)
(-0.000963953 -0.000110855 0)
(-0.000879228 -0.000108173 0)
(-0.000796658 -0.000105149 0)
(-0.000716502 -0.000101771 0)
(-0.000639037 -9.80223e-05 0)
(-0.000564549 -9.38927e-05 0)
(-0.000493321 -8.93718e-05 0)
(-0.000425653 -8.44496e-05 0)
(-0.00036184 -7.91204e-05 0)
(-0.000302182 -7.33803e-05 0)
(-0.000246983 -6.72323e-05 0)
(-0.000196528 -6.0682e-05 0)
(-0.0001511 -5.3744e-05 0)
(-0.000110959 -4.64431e-05 0)
(-7.63344e-05 -3.88185e-05 0)
(-4.74113e-05 -3.09342e-05 0)
(-2.43109e-05 -2.28898e-05 0)
(-7.05675e-06 -1.48445e-05 0)
(4.47027e-06 -7.0531e-06 0)
(1.06007e-05 8.12661e-08 0)
(1.19599e-05 5.93974e-06 0)
(9.60709e-06 9.62071e-06 0)
(5.30859e-06 9.9058e-06 0)
(9.39695e-07 5.34131e-06 0)
(-2.4838e-08 -3.53569e-06 0)
(-2.65063e-06 1.02696e-07 0)
(-1.05629e-05 1.08093e-05 0)
(-2.53415e-05 2.52813e-05 0)
(-4.77961e-05 4.14022e-05 0)
(-7.82467e-05 5.7817e-05 0)
(-0.000116632 7.37052e-05 0)
(-0.000162639 8.86155e-05 0)
(-0.000215805 0.000102332 0)
(-0.00027559 0.000114778 0)
(-0.000341418 0.000125961 0)
(-0.00041271 0.000135922 0)
(-0.000488899 0.000144729 0)
(-0.00056944 0.000152455 0)
(-0.000653821 0.000159181 0)
(-0.000741554 0.000164984 0)
(-0.000832187 0.000169937 0)
(-0.000925305 0.000174116 0)
(-0.00102052 0.00017759 0)
(-0.00111749 0.000180426 0)
(-0.00121588 0.000182684 0)
(-0.0013154 0.000184426 0)
(-0.0014158 0.000185706 0)
(-0.00151682 0.000186575 0)
(-0.00161828 0.000187082 0)
(-0.00171997 0.00018727 0)
(-0.00182173 0.00018718 0)
(-0.00192342 0.000186849 0)
(-0.00202491 0.00018631 0)
(-0.00212609 0.000185592 0)
(-0.00222687 0.000184725 0)
(-0.00232717 0.00018373 0)
(-0.00242692 0.000182629 0)
(-0.00252605 0.000181441 0)
(-0.00262454 0.00018018 0)
(-0.00272232 0.000178862 0)
(-0.00281938 0.000177498 0)
(-0.00291569 0.000176096 0)
(-0.00301121 0.000174666 0)
(-0.00310595 0.000173211 0)
(-0.00319988 0.000171739 0)
(-0.00329299 0.000170251 0)
(-0.00338527 0.000168751 0)
(-0.00347673 0.00016724 0)
(-0.00356733 0.000165717 0)
(-0.00365709 0.000164184 0)
(-0.00374599 0.000162638 0)
(-0.00383403 0.00016108 0)
(-0.0039212 0.000159506 0)
(-0.00400749 0.000157915 0)
(-0.00409289 0.000156306 0)
(-0.00417741 0.000154674 0)
(-0.004261 0.000153019 0)
(-0.00434369 0.000151338 0)
(-0.00442544 0.000149629 0)
(-0.00450625 0.000147889 0)
(-0.00458609 0.000146117 0)
(-0.00466496 0.000144309 0)
(-0.00474283 0.000142465 0)
(-0.00481969 0.000140583 0)
(-0.00489553 0.000138661 0)
(-0.0049703 0.000136699 0)
(-0.00504402 0.000134694 0)
(-0.00511664 0.000132645 0)
(-0.00518815 0.000130554 0)
(-0.00525853 0.000128418 0)
(-0.00532776 0.000126236 0)
(-0.0053958 0.000124008 0)
(-0.00546265 0.000121735 0)
(-0.00552827 0.000119415 0)
(-0.00559267 0.00011705 0)
(-0.00565577 0.000114637 0)
(-0.00571759 0.000112178 0)
(-0.00577809 0.000109671 0)
(-0.00583727 0.000107117 0)
(-0.00589506 0.000104516 0)
(-0.00595146 0.000101867 0)
(-0.00600646 9.91706e-05 0)
(-0.00606002 9.64257e-05 0)
(-0.00611212 9.36332e-05 0)
(-0.0061627 9.07922e-05 0)
(-0.00621178 8.79022e-05 0)
(-0.00625932 8.49632e-05 0)
(-0.00630527 8.19747e-05 0)
(-0.00634961 7.89357e-05 0)
(-0.00639235 7.58468e-05 0)
(-0.00643341 7.27073e-05 0)
(-0.0064728 6.95162e-05 0)
(-0.00651046 6.62736e-05 0)
(-0.00654639 6.29799e-05 0)
(-0.00658052 5.96339e-05 0)
(-0.00661286 5.62351e-05 0)
(-0.00664334 5.27828e-05 0)
(-0.00667198 4.92788e-05 0)
(-0.00669869 4.57222e-05 0)
(-0.0067235 4.2112e-05 0)
(-0.00674633 3.84501e-05 0)
(-0.00676712 3.47358e-05 0)
(-0.00678593 3.09692e-05 0)
(-0.00680269 2.71517e-05 0)
(-0.00681733 2.32832e-05 0)
(-0.00682985 1.93654e-05 0)
(-0.00684025 1.53971e-05 0)
(-0.00684844 1.13813e-05 0)
(-0.00685442 7.31881e-06 0)
(-0.0068582 3.21017e-06 0)
(-0.00685969 -9.43232e-07 0)
(-0.00685887 -5.13918e-06 0)
(-0.00685579 -9.37571e-06 0)
(-0.00685031 -1.36534e-05 0)
(-0.00684249 -1.79691e-05 0)
(-0.0068323 -2.23206e-05 0)
(-0.00681965 -2.67071e-05 0)
(-0.00680465 -3.11258e-05 0)
(-0.00678715 -3.55748e-05 0)
(-0.00676719 -4.00541e-05 0)
(-0.00674476 -4.45587e-05 0)
(-0.00671985 -4.90884e-05 0)
(-0.00669242 -5.36408e-05 0)
(-0.00666245 -5.82136e-05 0)
(-0.00662996 -6.28062e-05 0)
(-0.00659494 -6.74152e-05 0)
(-0.00655735 -7.20392e-05 0)
(-0.00651722 -7.66759e-05 0)
(-0.00647454 -8.13231e-05 0)
(-0.00642928 -8.59788e-05 0)
(-0.00638145 -9.06426e-05 0)
(-0.00633105 -9.53108e-05 0)
(-0.00627809 -9.99796e-05 0)
(-0.00622257 -0.000104651 0)
(-0.00616447 -0.000109319 0)
(-0.0061038 -0.000113983 0)
(-0.00604059 -0.000118639 0)
(-0.00597484 -0.000123286 0)
(-0.00590654 -0.000127919 0)
(-0.00583572 -0.000132538 0)
(-0.00576237 -0.000137137 0)
(-0.00568653 -0.000141712 0)
(-0.00560822 -0.00014626 0)
(-0.00552743 -0.000150777 0)
(-0.00544419 -0.000155259 0)
(-0.00535854 -0.000159698 0)
(-0.00527048 -0.000164092 0)
(-0.00518006 -0.000168434 0)
(-0.00508731 -0.000172716 0)
(-0.00499225 -0.000176933 0)
(-0.00489494 -0.000181079 0)
(-0.00479541 -0.000185143 0)
(-0.0046937 -0.00018912 0)
(-0.00458986 -0.000192999 0)
(-0.00448397 -0.000196772 0)
(-0.00437606 -0.000200429 0)
(-0.00426622 -0.000203959 0)
(-0.0041545 -0.000207352 0)
(-0.00404098 -0.000210596 0)
(-0.00392576 -0.000213678 0)
(-0.00380891 -0.000216586 0)
(-0.00369054 -0.000219308 0)
(-0.00357073 -0.000221827 0)
(-0.00344963 -0.00022413 0)
(-0.00332733 -0.000226201 0)
(-0.00320395 -0.000228023 0)
(-0.00307967 -0.000229579 0)
(-0.00295459 -0.000230853 0)
(-0.00282888 -0.000231824 0)
(-0.00270273 -0.000232473 0)
(-0.00257629 -0.00023278 0)
(-0.00244975 -0.000232723 0)
(-0.00232333 -0.00023228 0)
(-0.00219722 -0.000231429 0)
(-0.00207166 -0.000230144 0)
(-0.0019469 -0.000228402 0)
(-0.00182316 -0.000226176 0)
(-0.00170073 -0.000223441 0)
(-0.00157987 -0.000220169 0)
(-0.00146089 -0.000216334 0)
(-0.0013441 -0.000211908 0)
(-0.0012298 -0.000206867 0)
(-0.00111835 -0.000201181 0)
(-0.00101008 -0.000194827 0)
(-0.000905358 -0.000187781 0)
(-0.000804541 -0.000180022 0)
(-0.000708017 -0.000171533 0)
(-0.000616164 -0.000162299 0)
(-0.000529371 -0.000152313 0)
(-0.000448019 -0.000141573 0)
(-0.000372486 -0.000130087 0)
(-0.000303137 -0.000117876 0)
(-0.000240318 -0.000104973 0)
(-0.000184343 -9.14322e-05 0)
(-0.000135486 -7.73405e-05 0)
(-9.39545e-05 -6.28241e-05 0)
(-5.98748e-05 -4.8073e-05 0)
(-3.32494e-05 -3.33789e-05 0)
(-1.39159e-05 -1.91863e-05 0)
(-1.47916e-06 -6.16604e-06 0)
(4.77168e-06 4.6904e-06 0)
(5.98209e-06 1.19893e-05 0)
(3.9788e-06 1.38757e-05 0)
(7.73401e-07 7.98002e-06 0)
(-5.05873e-07 -1.86503e-06 0)
(-6.41599e-06 7.28322e-06 0)
(-1.96756e-05 2.51432e-05 0)
(-4.16766e-05 4.77791e-05 0)
(-7.28849e-05 7.2543e-05 0)
(-0.000113481 9.76659e-05 0)
(-0.000163328 0.000122032 0)
(-0.000222054 0.000144997 0)
(-0.000289147 0.000166232 0)
(-0.000364011 0.000185605 0)
(-0.000446008 0.000203098 0)
(-0.000534493 0.000218756 0)
(-0.000628826 0.000232662 0)
(-0.000728383 0.000244917 0)
(-0.000832574 0.000255627 0)
(-0.000940834 0.000264904 0)
(-0.00105264 0.000272858 0)
(-0.00116749 0.000279598 0)
(-0.00128492 0.000285225 0)
(-0.00140452 0.000289841 0)
(-0.0015259 0.000293542 0)
(-0.00164871 0.000296417 0)
(-0.00177263 0.000298552 0)
(-0.00189735 0.000300028 0)
(-0.00202264 0.000300919 0)
(-0.00214826 0.000301293 0)
(-0.00227399 0.000301215 0)
(-0.00239967 0.000300743 0)
(-0.00252513 0.00029993 0)
(-0.00265022 0.000298823 0)
(-0.00277484 0.000297466 0)
(-0.0028989 0.000295899 0)
(-0.00302228 0.000294152 0)
(-0.00314492 0.000292259 0)
(-0.00326676 0.000290243 0)
(-0.00338773 0.000288127 0)
(-0.00350782 0.000285931 0)
(-0.00362696 0.00028367 0)
(-0.00374515 0.000281357 0)
(-0.00386235 0.000279003 0)
(-0.00397854 0.000276615 0)
(-0.00409371 0.0002742 0)
(-0.00420785 0.000271762 0)
(-0.00432094 0.000269304 0)
(-0.00443298 0.000266827 0)
(-0.00454394 0.000264332 0)
(-0.00465385 0.000261817 0)
(-0.00476267 0.000259281 0)
(-0.00487042 0.000256722 0)
(-0.00497705 0.000254137 0)
(-0.00508258 0.000251524 0)
(-0.00518699 0.000248877 0)
(-0.00529028 0.000246196 0)
(-0.00539242 0.000243474 0)
(-0.00549341 0.00024071 0)
(-0.00559322 0.000237901 0)
(-0.00569185 0.000235041 0)
(-0.00578927 0.00023213 0)
(-0.00588547 0.000229164 0)
(-0.00598042 0.000226141 0)
(-0.0060741 0.000223059 0)
(-0.00616651 0.000219913 0)
(-0.00625759 0.000216704 0)
(-0.00634736 0.000213429 0)
(-0.00643576 0.00021009 0)
(-0.0065228 0.000206681 0)
(-0.00660842 0.000203204 0)
(-0.00669264 0.000199656 0)
(-0.00677537 0.000196038 0)
(-0.00685663 0.000192351 0)
(-0.00693637 0.000188588 0)
(-0.0070146 0.000184756 0)
(-0.00709125 0.000180848 0)
(-0.00716633 0.00017687 0)
(-0.00723977 0.000172816 0)
(-0.00731156 0.000168688 0)
(-0.00738167 0.000164483 0)
(-0.00745009 0.000160206 0)
(-0.00751672 0.000155849 0)
(-0.00758164 0.000151415 0)
(-0.0076447 0.000146905 0)
(-0.00770594 0.000142312 0)
(-0.00776529 0.00013764 0)
(-0.00782277 0.000132888 0)
(-0.00787827 0.000128054 0)
(-0.00793178 0.000123138 0)
(-0.00798331 0.000118135 0)
(-0.00803271 0.000113048 0)
(-0.0080801 0.000107876 0)
(-0.0081253 0.000102616 0)
(-0.00816832 9.72702e-05 0)
(-0.00820916 9.1835e-05 0)
(-0.00824775 8.63116e-05 0)
(-0.00828395 8.0699e-05 0)
(-0.00831787 7.49964e-05 0)
(-0.00834941 6.92048e-05 0)
(-0.00837847 6.33245e-05 0)
(-0.0084052 5.73546e-05 0)
(-0.00842931 5.12965e-05 0)
(-0.00845086 4.51503e-05 0)
(-0.00846982 3.89174e-05 0)
(-0.00848621 3.26001e-05 0)
(-0.00849987 2.61976e-05 0)
(-0.00851083 1.97137e-05 0)
(-0.00851904 1.31491e-05 0)
(-0.00852445 6.5065e-06 0)
(-0.00852702 -2.12153e-07 0)
(-0.00852674 -7.00442e-06 0)
(-0.00852358 -1.3866e-05 0)
(-0.00851751 -2.07964e-05 0)
(-0.00850845 -2.7791e-05 0)
(-0.00849643 -3.48483e-05 0)
(-0.00848133 -4.19624e-05 0)
(-0.00846323 -4.91322e-05 0)
(-0.00844201 -5.63533e-05 0)
(-0.00841778 -6.36215e-05 0)
(-0.00839042 -7.09355e-05 0)
(-0.00835991 -7.82893e-05 0)
(-0.00832628 -8.56801e-05 0)
(-0.00828946 -9.31053e-05 0)
(-0.00824949 -0.000100558 0)
(-0.00820629 -0.00010804 0)
(-0.00815996 -0.000115542 0)
(-0.0081104 -0.000123065 0)
(-0.00805765 -0.000130603 0)
(-0.00800172 -0.000138152 0)
(-0.00794251 -0.000145709 0)
(-0.00788014 -0.00015327 0)
(-0.00781454 -0.000160829 0)
(-0.00774578 -0.00016839 0)
(-0.0076738 -0.000175941 0)
(-0.00759865 -0.000183481 0)
(-0.00752032 -0.000191004 0)
(-0.00743881 -0.000198509 0)
(-0.00735415 -0.000205986 0)
(-0.00726639 -0.000213433 0)
(-0.00717547 -0.000220845 0)
(-0.00708148 -0.000228216 0)
(-0.00698442 -0.000235535 0)
(-0.00688432 -0.000242804 0)
(-0.0067812 -0.000250011 0)
(-0.00667509 -0.000257147 0)
(-0.00656605 -0.000264204 0)
(-0.00645408 -0.000271174 0)
(-0.00633925 -0.00027805 0)
(-0.00622158 -0.000284817 0)
(-0.00610116 -0.000291466 0)
(-0.005978 -0.000297982 0)
(-0.00585217 -0.000304359 0)
(-0.00572375 -0.000310576 0)
(-0.00559279 -0.000316625 0)
(-0.00545938 -0.000322486 0)
(-0.00532358 -0.000328145 0)
(-0.0051855 -0.000333585 0)
(-0.00504521 -0.000338787 0)
(-0.00490283 -0.000343732 0)
(-0.00475846 -0.0003484 0)
(-0.00461222 -0.000352769 0)
(-0.00446424 -0.000356818 0)
(-0.00431465 -0.000360521 0)
(-0.00416359 -0.000363855 0)
(-0.00401121 -0.000366794 0)
(-0.0038577 -0.00036931 0)
(-0.00370324 -0.000371373 0)
(-0.00354798 -0.000372956 0)
(-0.00339216 -0.000374025 0)
(-0.00323598 -0.000374549 0)
(-0.00307967 -0.000374491 0)
(-0.00292349 -0.000373818 0)
(-0.00276768 -0.000372493 0)
(-0.00261252 -0.000370476 0)
(-0.00245831 -0.000367729 0)
(-0.00230535 -0.000364211 0)
(-0.00215396 -0.000359878 0)
(-0.00200447 -0.000354693 0)
(-0.00185726 -0.000348611 0)
(-0.00171269 -0.000341588 0)
(-0.00157115 -0.000333585 0)
(-0.00143305 -0.000324561 0)
(-0.00129879 -0.000314478 0)
(-0.00116883 -0.0003033 0)
(-0.00104359 -0.000290999 0)
(-0.000923527 -0.000277547 0)
(-0.000809102 -0.000262929 0)
(-0.000700772 -0.000247136 0)
(-0.000598969 -0.000230175 0)
(-0.000504154 -0.000212062 0)
(-0.000416743 -0.000192837 0)
(-0.000337131 -0.000172566 0)
(-0.000265673 -0.000151344 0)
(-0.000202669 -0.000129314 0)
(-0.000148345 -0.000106684 0)
(-0.000102827 -8.37541e-05 0)
(-6.61117e-05 -6.09603e-05 0)
(-3.80195e-05 -3.8953e-05 0)
(-1.81348e-05 -1.86768e-05 0)
(-5.73749e-06 -1.48919e-06 0)
(3.04985e-07 1.07398e-05 0)
(1.70847e-06 1.55537e-05 0)
(4.87495e-07 9.7631e-06 0)
(-9.81897e-07 1.6206e-06 0)
(-1.02635e-05 1.89581e-05 0)
(-2.90492e-05 4.59923e-05 0)
(-5.84903e-05 7.84255e-05 0)
(-9.86225e-05 0.000113236 0)
(-0.000149417 0.000148332 0)
(-0.000210613 0.000182354 0)
(-0.000281751 0.000214491 0)
(-0.000362256 0.00024431 0)
(-0.000451479 0.00027162 0)
(-0.000548732 0.000296379 0)
(-0.000653316 0.000318631 0)
(-0.000764536 0.000338469 0)
(-0.000881715 0.000356015 0)
(-0.0010042 0.000371406 0)
(-0.00113136 0.000384785 0)
(-0.0012626 0.000396296 0)
(-0.00139739 0.000406086 0)
(-0.00153519 0.000414293 0)
(-0.00167553 0.000421054 0)
(-0.00181796 0.000426501 0)
(-0.00196209 0.000430762 0)
(-0.00210752 0.000433952 0)
(-0.00225394 0.000436187 0)
(-0.00240105 0.000437569 0)
(-0.00254857 0.000438199 0)
(-0.00269626 0.000438165 0)