/*--------------------------------*- C++ -*----------------------------------*\
  =========                 |
  \\      /  F ield         | OpenFOAM: The Open Source CFD Toolbox
   \\    /   O peration     | Website:  https://openfoam.org
    \\  /    A nd           | Version:  6
     \\/     M anipulation  |
\*---------------------------------------------------------------------------*/
FoamFile
{
    version     2.0;
    format      ascii;
    class       volScalarField;
    location    "0";
    object      P_rec;
}
// * * * * * * * * * * * * * * * * * * * * * * * * * * * * * * * * * * * * * //

dimensions      [0 2 -2 0 0 0 0];

internalField   nonuniform List<scalar> 
918
(
0.620586
0.278569
0.12502
0.646711
-0.00219231
0.150817
-0.772827
0.549464
0.655626
-0.147974
0.0335283
0.504815
-0.0365697
-0.0263776
-1.16218
0.0235951
0.620488
-0.733876
0.461524
0.0275183
-0.164747
0.649895
0.571983
0.455629
0.550268
-0.122649
0.0650934
-0.0424656
-0.0648062
-0.0490985
-0.00114591
0.0585526
0.0120654
0.116937
0.121655
0.174971
0.470192
0.232734
-0.639955
-0.68731
-0.683452
-0.858374
0.561539
0.576686
-0.243953
0.526607
0.497413
0.471361
0.630806
0.659295
0.578277
0.632369
0.664972
0.251188
-0.19869
-0.265104
-0.100883
-0.0996899
0.0696216
0.0264085
0.011735
0.0662428
0.0534252
0.420032
0.49566
0.49145
0.51695
0.514817
0.239413
0.202525
0.255199
-0.0412682
0.116461
-0.0558391
0.0720214
-0.02067
0.0176251
-0.0416643
-0.0591061
-1.41654
-2.163
-0.700713
-0.579051
0.00490723
0.0244959
0.0336103
0.610662
0.612341
0.606591
0.616113
0.71207
-0.665861
-0.84454
0.495445
0.495878
0.638403
0.584703
0.518585
0.442625
0.024294
0.0207708
0.0125978
0.0450284
0.0353916
0.0700931
0.207319
0.433379
0.470435
0.514321
0.541165
0.528103
0.253399
0.590305
0.586324
-0.118372
0.0360791
-0.114794
-0.0273023
0.0789539
0.047232
0.149821
0.185345
-0.0693459
-0.0118685
0.0424067
0.00429865
0.0318071
0.469065
0.45885
0.484807
0.473263
0.478481
0.134614
0.0427765
0.302731
0.336713
-0.508535
-0.544447
-0.759562
-0.773762
-0.890189
0.517271
0.58264
0.598239
-0.362002
-0.221828
-0.393319
-0.133142
-0.176726
0.475745
0.467353
0.467965
0.475792
0.480155
0.480882
0.640017
0.631992
0.673417
0.261139
0.344003
0.238357
0.191793
-0.477156
-0.362871
-0.460628
-0.0703316
-0.0241765
0.0568662
0.0913672
0.107172
0.0779712
-0.0184078
0.0073955
-0.00834836
0.0223765
0.0213561
0.423648
0.407866
0.421773
0.431461
0.488171
0.486948
0.493966
0.495536
0.162442
0.149614
0.101919
0.078186
-2.94681
-5.09119
-0.395286
-0.311833
-0.00317722
-0.0161339
-0.00594416
-0.09401
-0.0181375
-0.0474648
0.0697704
0.0402339
0.0362646
0.0559014
0.609505
0.623364
0.70225
0.726797
0.634412
0.63123
0.493902
0.504539
0.498593
0.501324
0.0344995
0.0222005
0.037211
0.458201
0.333643
0.394561
0.22001
0.124677
0.300784
0.341349
0.612559
0.595671
0.617281
-0.127484
-0.0446457
0.301491
0.0210842
0.280349
0.0855428
0.0503269
0.107033
0.00924722
0.436686
0.454176
0.45113
0.479683
0.48887
0.488107
0.490397
0.481949
0.4859
-0.118042
-0.409005
0.438525
0.432293
0.374224
0.419625
0.578615
0.625478
0.606884
0.593697
0.604385
-0.0283233
-0.0640132
0.14124
0.131042
0.371634
0.387005
0.37708
0.0752308
0.0354596
0.0729667
0.0604288
0.0371866
0.0890911
-0.385948
-1.72955
-0.98024
-0.141317
-0.210888
-0.189867
0.0361601
0.106859
0.0712186
0.695742
0.746559
0.392754
0.557143
0.508697
-0.174897
-0.0877919
0.0220533
-0.106993
-0.0515452
0.0298083
-0.0193092
0.442287
0.412929
0.436101
0.641241
0.702179
0.087155
0.0222775
-0.0175445
0.11301
0.103378
0.10294
0.732825
0.698667
0.730066
0.443674
0.429582
-0.0662213
-0.00524774
0.553988
0.584462
-0.0710779
-0.0301728
-0.116205
-0.734337
0.0835267
0.49896
0.45322
0.514562
-0.200509
0.141544
-0.00221206
0.011871
-0.0396491
0.473745
0.398018
0.367436
-0.0687385
0.0056255
-0.00689846
-0.444916
0.509588
0.491644
0.497998
0.511182
0.525224
-0.00677464
-0.0161378
0.0326294
-0.0379214
0.0473059
0.0445479
0.479621
0.46859
-0.431964
0.491723
0.518997
0.516976
0.532348
0.533254
0.519108
-0.0155827
0.0348781
0.0422615
0.187934
0.292636
-0.0382378
-0.126032
0.00672934
-0.125262
-0.302976
-0.0633612
-0.0672108
-0.0610525
-0.0671147
0.569307
0.529331
0.173377
-0.0174736
0.156301
0.123578
0.495494
0.515263
0.485405
0.498872
0.51942
0.461739
0.535933
0.499884
0.495579
0.545038
-0.157879
-0.0680084
-0.143715
-0.271688
0.21912
0.337569
0.121628
0.20976
0.0750618
-0.0178034
0.0476025
-0.0301623
-0.00385547
-0.014243
0.105888
0.0338312
0.139289
0.0211785
0.11562
-0.0535334
0.149027
-0.010585
0.455784
0.478077
0.474951
0.519695
0.43248
0.453731
0.431515
0.428032
0.450089
0.378785
0.397691
0.398486
0.0156894
0.0162226
0.0505802
0.0215818
0.0483104
-0.0303622
-0.0244815
-0.024824
-0.00378786
-0.0512174
-0.0138346
-0.00332945
-0.360518
-0.525855
0.62476
0.533283
-0.0153834
0.46362
0.514048
0.484502
0.527221
0.537264
0.572964
0.533702
0.509392
0.475834
0.493851
0.474647
0.4951
-0.342923
-0.411463
-0.266483
-0.308453
0.150513
0.592188
0.348231
0.293944
0.286834
0.450504
0.395437
0.11489
-0.256381
-0.398581
-0.478396
-0.365093
-0.510417
-0.0541163
0.00854152
-0.120268
-0.0483448
0.0309852
-0.0305559
-0.0350164
-0.0862422
0.478875
-0.149453
-0.130495
0.103086
0.0147474
0.239128
0.569452
0.579227
0.506322
0.479352
0.554541
0.526055
0.52591
0.556724
0.562461
0.472416
0.235537
0.226064
0.157321
0.580547
0.494521
0.52936
0.411449
0.518884
0.523543
0.499799
0.48844
0.530715
0.488762
0.48328
0.457994
0.4497
0.494412
0.498001
0.464262
-0.0306907
-0.0422603
-0.154755
-0.351386
-0.218271
-0.31299
-0.193902
-0.110204
-0.196491
-0.0328323
0.186873
-0.11606
-0.284635
-0.14695
-0.241418
0.00746738
-0.0636327
0.0843017
0.108028
0.0811662
0.100466
0.161716
0.138291
0.0238612
0.0276564
0.0648232
-0.016075
0.123173
0.0726202
0.143879
0.0617711
0.120004
0.0725023
0.0302844
-0.0394695
0.0827579
0.0230204
-0.041905
0.0318925
0.0174551
-0.0806628
-0.0782199
0.192308
0.0531497
0.503143
0.483889
0.486222
0.50623
0.542916
0.532822
0.474624
0.478159
0.510728
0.476272
0.444714
0.424651
0.411965
0.447824
0.459216
0.454816
0.499843
0.490058
0.460708
0.483318
0.426093
0.446704
0.39565
0.419041
0.44952
-0.106017
0.0291025
-0.0364394
-0.0446448
0.0158415
0.0592414
0.122303
0.0319019
0.126986
0.0975898
0.0628216
0.0369878
0.0650421
-0.224031
-0.119487
-0.344365
-0.432507
-0.526899
0.598237
0.681538
0.557146
0.396301
0.450637
0.554701
0.659413
0.37988
0.41114
0.509581
0.424205
0.617757
0.497963
0.481484
0.503764
0.528242
0.500572
-0.183752
-0.0419587
-0.000357395
0.114356
0.213707
0.274246
0.133511
0.097625
0.186679
0.208477
0.571991
0.593189
0.560093
0.594348
0.589249
0.383744
0.479664
0.506621
0.507221
0.506164
0.528362
0.540499
0.533253
0.458035
0.456945
0.462858
0.422092
0.446088
0.417178
0.418116
0.47356
0.450457
0.450729
0.464326
0.516438
0.488722
0.521715
0.57054
0.546078
0.442574
0.42475
0.45114
0.460637
0.439741
0.438687
0.430952
0.135951
0.158673
0.0903061
-0.0801985
0.0414472
-0.0230266
-0.0714752
-0.0551822
0.0792094
-0.388363
-0.331437
-0.841542
0.356697
0.454707
0.216814
-0.0802387
0.45769
0.501464
0.486006
0.374138
0.381419
0.563367
0.584433
0.594167
0.519911
0.510873
0.533174
0.515524
0.475119
0.339698
0.264848
0.31782
0.155484
0.218887
0.373818
0.314658
0.274304
0.308681
0.396174
0.301583
0.326396
0.40284
0.362047
0.357554
0.481399
0.526987
0.546413
0.485379
0.393802
0.458949
0.443031
0.491298
0.533633
0.535756
0.500075
0.479387
0.490744
0.481574
0.468459
0.487956
0.45362
0.505284
0.51127
0.519957
0.513736
-0.0320692
-0.0106499
0.00563699
-0.0380507
-0.12052
-0.166076
-0.175432
-0.172406
0.0456066
0.0101667
-0.11102
-0.0449954
0.0674989
0.00992786
0.0181803
0.0254965
-0.0475291
-0.109792
0.115715
0.278608
0.275756
0.216309
0.0865796
0.108233
0.219234
0.00138738
0.122533
0.0683528
0.0221167
0.00867674
0.018547
0.122426
0.0466849
0.0911741
0.0319025
-0.130474
0.0494614
0.108297
-0.0553293
0.0087201
0.0452223
0.462452
0.468375
0.452322
0.431961
0.439273
0.43671
0.474066
0.503779
0.503824
0.502628
0.511364
0.491164
0.497359
0.0160708
0.150093
0.182889
0.101983
0.0554503
-0.00646027
-0.0278668
0.108532
-0.0354242
0.0143753
-0.143489
-0.259444
-0.19659
0.340977
0.382317
0.374539
0.578621
0.436627
0.34095
0.438015
0.564574
0.269142
0.358898
0.245679
0.60463
0.552017
0.650824
0.422057
0.0536559
0.150056
0.300352
0.00713081
0.0160109
0.139812
0.160187
0.163459
0.14974
0.229862
0.207407
0.178627
0.0701659
0.10663
0.260911
0.241224
0.321295
0.37358
0.0744691
0.1005
0.0450156
0.548102
0.573388
0.595838
0.568407
0.588738
0.530142
0.525865
0.560738
0.589994
0.578406
-0.700039
-0.447479
-1.24809
-0.539128
-0.252591
0.47354
0.186279
0.856092
0.672223
0.528183
0.545819
0.545565
0.504128
0.565124
0.564503
0.308923
0.403909
0.342465
0.384623
0.294099
0.221224
0.528173
0.513142
0.541271
0.560119
0.515814
0.559235
0.413731
0.460291
0.439955
0.477845
0.504904
0.526701
0.0247831
-0.0410653
-0.0229966
-0.0365185
-0.0500119
-0.0707496
-0.0484421
-0.0139434
0.191883
0.125452
0.058881
0.120995
0.0143986
0.00881137
-0.0999817
-0.0229415
-0.116593
-0.249194
-0.22872
-0.196031
-0.104033
-0.0239426
0.350171
0.492941
0.404845
0.533506
0.3773
0.516948
0.370973
0.377947
0.401938
0.298867
0.339273
0.0271211
-0.289373
-0.173013
0.946656
1.0363
0.653938
0.387636
0.145996
0.474584
0.499312
0.426847
0.444915
0.531663
0.488993
-0.0872457
0.00835572
-0.0599255
-0.00895359
0.147055
0.0816124
0.0859672
0.0742734
0.0828084
)
;

boundaryField
{
    wall-4
    {
        type            calculated;
        value           nonuniform List<scalar> 
100
(
0.620586
0.278569
0.12502
0.646711
0.150817
-0.772827
0.549464
-0.147974
0.0335283
0.504815
-0.0365697
-0.0263776
-1.16218
0.620488
-0.733876
0.461524
0.0275183
-0.164747
0.455629
0.550268
-0.122649
0.0650934
-0.0424656
0.116937
0.470192
-0.68731
-0.858374
0.576686
-0.243953
0.497413
0.471361
-0.265104
-0.0996899
0.011735
0.0534252
0.420032
0.49145
0.514817
0.116461
0.0720214
0.0176251
-0.0591061
-2.163
-0.579051
0.612341
0.616113
-0.84454
0.495878
0.442625
0.0207708
0.0353916
0.207319
0.470435
0.528103
0.253399
0.586324
-0.118372
-0.0273023
0.047232
0.185345
0.45885
0.484807
0.478481
-0.544447
-0.890189
0.598239
-0.393319
-0.176726
0.467965
0.480882
-0.460628
-0.0241765
-0.00834836
0.0213561
0.407866
0.431461
0.488171
0.495536
0.078186
-0.311833
0.623364
0.493902
0.501324
0.037211
0.394561
0.124677
0.341349
0.617281
-0.0446457
0.0855428
0.45113
0.488107
0.4859
0.604385
-0.0640132
0.37708
0.0604288
-0.189867
-0.0515452
-0.0175445
)
;
    }
    velocity-inlet-5
    {
        type            calculated;
        value           nonuniform List<scalar> 8(0.620586 0.646711 0.655626 0.649895 0.659295 0.664972 0.638403 0.673417);
    }
    velocity-inlet-6
    {
        type            calculated;
        value           nonuniform List<scalar> 4(0.278569 0.150817 0.174971 0.255199);
    }
    pressure-outlet-7
    {
        type            calculated;
        value           uniform 0;
    }
    wall-8
    {
        type            calculated;
        value           nonuniform List<scalar> 
34
(
-0.00219231
0.0235951
0.0120654
0.232734
0.251188
0.0696216
0.0336103
0.71207
0.0318071
0.0427765
0.336713
0.517271
0.344003
0.191793
0.0913672
0.0779712
-5.09119
0.0697704
0.0559014
0.726797
0.63123
-0.409005
0.438525
0.419625
0.625478
0.131042
-0.98024
0.0712186
0.746559
0.508697
0.436101
0.702179
0.10294
0.730066
)
;
    }
    frontAndBackPlanes
    {
        type            empty;
    }
}

