/*--------------------------------*- C++ -*----------------------------------*\
  =========                 |
  \\      /  F ield         | OpenFOAM: The Open Source CFD Toolbox
   \\    /   O peration     | Website:  https://openfoam.org
    \\  /    A nd           | Version:  6
     \\/     M anipulation  |
\*---------------------------------------------------------------------------*/
FoamFile
{
    version     2.0;
    format      ascii;
    class       volVectorField;
    location    "0";
    object      U_rec;
}
// * * * * * * * * * * * * * * * * * * * * * * * * * * * * * * * * * * * * * //

dimensions      [0 1 -1 0 0 0 0];

internalField   nonuniform List<vector> 
918
(
(0.983151 -0.00544675 0)
(-0.00166466 2.9846 0)
(-0.0150705 1.6806 0)
(0.97699 0.00667798 0)
(-0.00178889 1.6406 6.64766e-17)
(-0.00223428 2.97406 -4.98226e-17)
(0.953714 1.47876 6.16611e-19)
(0.44322 0.220897 1.83606e-19)
(0.992526 0.000312826 0)
(0.01415 1.3109 0)
(-0.00184069 1.49839 0)
(0.871596 -0.00439131 0)
(0.000765578 2.99431 0)
(0.00544725 2.90679 0)
(0.00125091 2.86045 1.5159e-17)
(-0.00765473 1.61023 3.94388e-17)
(0.633727 0.128242 7.58751e-18)
(0.156096 1.57456 -4.63717e-17)
(0.983945 0.00345583 0)
(-0.000321021 1.56631 0)
(-0.0730162 -0.0411064 1.92123e-18)
(0.984596 0.010794 0)
(1.00775 0.0139428 0)
(1.01989 -0.000784201 0)
(0.785142 -0.00801017 0)
(0.0157827 2.97399 0)
(-0.00648114 2.94745 -1.01936e-16)
(-0.0214444 1.707 0)
(-0.000460068 1.75825 0)
(-0.0119277 1.70311 0)
(-0.0161405 1.79968 0)
(-0.0150003 1.65611 6.64545e-17)
(-0.0082648 1.61097 0)
(-0.00808112 3.01437 4.39427e-23)
(0.00592392 3.02317 -5.17683e-17)
(0.0234616 3.00398 0)
(0.933786 -0.00383525 0)
(0.624013 1.15222 -1.05831e-17)
(0.981617 1.48323 -5.14059e-18)
(1.09913 1.30677 2.32311e-17)
(0.832761 1.61452 1.20536e-17)
(0.795189 1.60164 1.29648e-17)
(0.461526 0.294066 1.6881e-19)
(0.497074 0.213077 0)
(1.26872 0.684355 0)
(0.38997 0.310707 5.20698e-19)
(0.366734 0.207805 5.86541e-19)
(0.958631 -0.00408742 0)
(0.998728 0.00266891 0)
(0.992566 0.00386851 0)
(0.993348 0.00459804 0)
(0.982351 0.00897585 0)
(0.993291 0.014851 0)
(0.0291968 1.64833 3.72041e-19)
(0.0320519 1.36989 0)
(0.0419093 1.32647 0)
(-0.00325219 1.37288 0)
(-0.0142337 1.34048 0)
(-0.00321973 1.65351 0)
(-0.00613519 1.57574 0)
(-0.0103787 1.48232 0)
(-0.0110704 1.6031 0)
(-0.0051728 1.51046 0)
(0.944465 0.00173735 0)
(0.919595 0.0131659 0)
(0.885102 -0.000912789 0)
(0.910347 0.0152063 0)
(0.855643 -0.00282225 0)
(-0.0306141 3.04386 3.50051e-17)
(0.00514268 2.96262 0)
(-0.0323687 3.00624 0)
(0.0386864 3.04805 2.49756e-24)
(-0.00320021 3.04158 3.60076e-17)
(0.0190673 3.01272 0)
(0.00317232 2.96268 0)
(0.00344066 2.97201 -1.66863e-24)
(0.0042819 2.91025 0)
(-0.00123389 2.98137 0)
(0.00531195 2.90121 0)
(0.267751 3.12782 0)
(-0.057926 3.2136 0)
(0.0836029 2.91452 1.33901e-17)
(0.0015521 2.77398 0)
(-0.00725767 1.77636 0)
(-0.0023486 1.68314 3.93332e-17)
(-0.00352801 1.61658 3.9391e-17)
(0.661531 0.165234 -7.96403e-18)
(0.658046 0.0924857 2.0173e-19)
(0.630258 0.202272 1.65533e-17)
(0.599518 0.159493 -1.53114e-17)
(0.209116 1.19138 0)
(0.300829 1.69292 -4.9374e-17)
(0.372333 1.6679 -4.80489e-17)
(0.995313 0.00402037 0)
(0.971562 0.00124706 0)
(0.991543 -0.00660161 0)
(1.00344 0.000300182 0)
(1.0041 0.0116379 1.32891e-16)
(1.00634 0.0149966 1.65756e-16)
(-0.0113876 1.63751 0)
(-0.00449981 1.55487 0)
(-0.0150515 1.7033 0)
(-0.0190793 1.661 0)
(-0.00548097 1.59408 0)
(-0.100164 0.229952 -1.66891e-18)
(0.137054 0.13149 0)
(1.01668 -0.0175479 0)
(0.986936 -0.0035256 0)
(0.884944 0.0274432 0)
(0.846762 0.0453689 0)
(0.826937 -0.0059538 0)
(1.08612 -0.00106809 0)
(0.800054 0.0464244 0)
(0.72984 0.00427963 3.64153e-17)
(-0.0171394 2.87633 3.20429e-17)
(0.00450181 2.99647 0)
(-0.0643813 3.04697 0)
(0.00523984 2.8968 0)
(-0.00415488 2.98512 -3.42597e-17)
(-0.00249343 2.93771 0)
(-0.0102864 2.98859 -3.24985e-17)
(-0.0111026 2.95749 3.35091e-17)
(-0.00117249 1.77708 0)
(-0.00328473 1.77682 0)
(0.00165605 1.68173 -1.63892e-20)
(-0.0054011 1.66785 0)
(-0.00214269 1.614 0)
(0.965148 -0.000278461 0)
(0.928475 -0.00415837 0)
(0.929163 0.00523632 0)
(0.972422 -0.00272569 0)
(0.942771 -0.00295257 0)
(0.667507 1.27069 -8.80143e-18)
(0.769087 1.31198 0)
(0.551823 1.1013 -1.18102e-18)
(0.525147 1.0256 0)
(1.09193 1.31319 2.20462e-17)
(1.187 1.09605 5.87047e-19)
(0.509207 1.74582 0)
(0.664726 1.71743 0)
(0.614015 1.65702 0)
(0.299939 0.703853 -7.96013e-18)
(0.512047 0.274736 0)
(0.532856 0.203392 -3.62899e-18)
(1.16478 1.1172 0)
(1.22064 0.909221 0)
(1.23806 0.881318 -5.79392e-19)
(1.26611 0.714446 0)
(1.28814 0.506769 -3.35791e-17)
(0.976369 0.00214095 0)
(0.977846 -0.00486964 0)
(0.94811 -0.00134343 0)
(0.999097 -0.0088366 0)
(0.988834 -0.00996387 0)
(0.972307 -0.00257089 0)
(0.990501 -0.00430884 0)
(0.988524 -1.08244e-05 0)
(0.993244 -0.00229518 0)
(0.00702545 1.7568 3.69966e-17)
(0.0465907 1.59545 0)
(0.0250633 1.7639 3.69558e-19)
(0.0201023 1.6597 3.74537e-19)
(0.117628 1.57065 -4.73467e-17)
(0.0694356 1.44237 0)
(0.0744153 1.43699 0)
(-0.023158 1.43333 0)
(-0.013461 1.39426 0)
(0.00978363 1.72896 9.19162e-21)
(0.00435595 1.65356 0)
(-0.000822617 1.72277 -3.90354e-17)
(-0.000819497 1.64522 -2.26468e-19)
(-0.0104867 1.49289 0)
(-0.0126525 1.54087 0)
(-0.0084277 1.44533 0)
(-0.00802207 1.62275 0)
(-0.00459613 1.5285 0)
(0.990504 0.0177159 0)
(0.964 0.00182608 0)
(0.972614 0.00983127 0)
(0.933946 -0.00059821 0)
(0.898722 0.000430704 0)
(0.941944 0.00699818 0)
(0.93179 0.00775317 0)
(0.888658 -0.00165204 0)
(0.0089112 3.03477 1.82676e-21)
(0.0146097 3.03071 0)
(0.00603733 2.99505 0)
(0.00345684 2.94746 0)
(0.994857 3.66638 0)
(1.39492 2.67205 -2.97613e-18)
(-0.00274735 2.84632 0)
(-0.00964334 2.78288 0)
(-0.00876693 1.76788 0)
(-0.0104038 1.77418 0)
(-0.0117205 1.77121 0)
(-0.00969689 1.79199 -8.85351e-17)
(-0.0119978 1.78012 0)
(-0.0103419 1.78693 0)
(0.00322969 1.62039 -7.87332e-17)
(0.0065811 1.69751 -3.94518e-17)
(-0.00299617 1.68963 3.92757e-17)
(-0.00108263 1.6175 0)
(0.687766 0.126858 -1.78294e-17)
(0.669401 0.057442 -1.71302e-17)
(0.196629 1.45609 0)
(0.259709 1.03529 1.86801e-20)
(0.13143 1.53846 -3.40646e-17)
(0.134169 1.33828 -3.40244e-17)
(0.949372 0.00426208 0)
(0.979541 0.0039579 0)
(0.985403 0.00820738 0)
(0.957708 0.00473702 0)
(-0.00816171 1.63101 0)
(-0.00462586 1.63101 0)
(-0.00472517 1.54246 0)
(0.295834 0.300376 1.80593e-18)
(0.162343 0.267292 -2.77116e-18)
(0.281126 0.186363 0)
(1.1752 0.102617 -1.97467e-19)
(1.18168 0.06019 0)
(1.08631 0.0505783 0)
(1.02374 0.00656739 0)
(0.707986 0.0927903 0)
(0.743481 0.0613687 2.10273e-17)
(0.685724 0.0267144 -1.86414e-17)
(-0.0220171 2.95117 -3.40367e-17)
(-0.00824944 2.91076 -6.68276e-17)
(0.00522741 3.02649 -5.13761e-21)
(0.0334841 3.01739 -3.86851e-17)
(-0.0163267 3.0024 -2.68617e-20)
(-0.0108346 2.98537 5.71336e-23)
(-0.0100679 3.02741 -7.06094e-18)
(0.00340471 2.98354 -7.46739e-18)
(0.04989 3.02227 -3.80823e-17)
(0.97039 0.00274324 0)
(0.967778 0.00784495 0)
(0.93113 -0.00110838 0)
(0.97385 0.00724285 0)
(0.965324 0.00677387 0)
(0.937774 0.00566383 0)
(0.951005 0.00550143 0)
(0.958578 0.00953194 0)
(0.912577 0.00442455 0)
(0.815411 1.47186 2.79075e-19)
(0.910018 1.52608 0)
(0.413761 0.842547 2.03418e-18)
(0.395128 0.921905 2.53183e-19)
(0.467964 1.00081 -1.70006e-17)
(0.447652 0.934659 -1.64568e-17)
(0.374429 0.981826 6.7518e-18)
(0.288403 0.723377 2.38906e-17)
(0.592514 0.23216 -9.11167e-18)
(0.556514 0.257966 -2.91933e-18)
(0.569663 0.18698 7.29945e-18)
(1.29077 0.526379 -3.30676e-17)
(1.2863 0.337561 5.64181e-19)
(0.0175798 1.75286 -3.81656e-17)
(0.00746175 1.64908 0)
(1.03611 0.0329981 0)
(1.0055 0.0214741 0)
(0.986365 0.00211113 0)
(0.0128133 3.04207 0)
(0.0145374 2.97558 -3.46373e-17)
(0.0103812 2.98676 0)
(0.0037072 2.92976 -3.34446e-17)
(0.00954022 3.05318 1.94305e-17)
(0.00893752 3.04657 0)
(0.882475 1.75416 -3.12924e-18)
(1.2055 2.30168 -1.45291e-17)
(0.987835 1.82563 -1.55944e-17)
(-0.0372355 2.90753 3.34918e-17)
(-0.0373424 2.85904 0)
(-0.0189278 2.83042 0)
(-0.00710903 1.70309 7.81858e-17)
(0.0073313 1.695 -1.47685e-19)
(-0.00799644 1.62098 7.80642e-17)
(0.240082 1.33036 -1.63099e-17)
(0.276356 0.889206 -1.57735e-17)
(0.0201143 1.7203 -3.53652e-17)
(0.0736881 1.65623 -3.5168e-17)
(0.076679 1.50149 -7.04946e-17)
(-0.0254296 3.06228 1.36199e-16)
(-0.0131852 3.05889 1.33358e-16)
(0.00920738 2.98738 3.36382e-17)
(-0.0187828 2.98085 -3.29555e-17)
(0.000923578 2.9426 3.45079e-17)
(0.0154809 3.05693 -1.1646e-16)
(-0.0102228 3.04973 -1.389e-16)
(0.349447 0.928722 0)
(0.346227 0.904291 -1.29759e-17)
(0.338766 0.725456 -1.663e-17)
(0.357233 1.04541 3.944e-17)
(0.286153 0.75292 2.40637e-17)
(1.26578 0.204602 -1.01609e-18)
(1.29333 0.364369 0)
(1.26158 0.182829 2.75622e-19)
(0.00793319 1.73369 5.62689e-21)
(0.0186578 1.7427 0)
(0.00849331 1.65338 0)
(0.28058 1.26673 3.50353e-19)
(0.336451 1.16733 -3.96989e-17)
(0.275181 0.819911 -3.17299e-17)
(1.00153 -0.0235506 0)
(1.00154 -0.0117835 2.04771e-17)
(-0.00290141 1.77317 0)
(-0.0174021 1.79046 0)
(1.00256 -0.00198537 5.35227e-19)
(1.00253 0.00153675 3.01366e-17)
(-0.00140978 1.79216 -8.84894e-17)
(-0.00288922 1.78796 0)
(-0.0340411 2.93659 3.27926e-17)
(0.291221 2.91894 0)
(1.10784 0.697569 -3.19833e-17)
(1.00414 0.00912966 9.85885e-17)
(1.01403 -0.00299922 0)
(1.00609 -0.00156699 4.13847e-19)
(-0.0205944 1.4534 0)
(0.0038479 2.17124 0)
(-0.055417 1.70211 0)
(-0.0281308 1.86992 -8.71265e-17)
(-0.0315001 1.81062 8.68469e-17)
(0.987504 0.0140586 9.66301e-17)
(1.03287 0.020312 0)
(1.0557 0.0296362 0)
(-0.00535383 1.77987 0)
(0.00148583 1.78249 0)
(-0.0206041 1.77417 0)
(0.290382 1.65321 -9.60474e-17)
(1.00622 -0.0130493 0)
(1.00624 -0.0146024 0)
(0.994943 0.00622611 -1.69116e-17)
(0.994379 -0.00471501 2.19292e-17)
(0.995845 -0.00462703 0)
(-0.00373823 1.77103 0)
(-0.00762342 1.76687 0)
(-0.00652434 1.76569 0)
(-0.0144299 1.7742 0)
(-0.0360449 1.77545 0)
(-0.0214005 1.76645 0)
(1.01307 -0.00415805 0)
(1.00636 0.00866062 9.87883e-17)
(0.850555 1.43634 -3.54166e-18)
(1.00142 -0.0079683 1.73257e-17)
(0.997762 0.0042623 -2.1583e-17)
(1.00348 0.00344556 0)
(1.00085 0.0117129 4.85015e-17)
(1.00783 0.014917 4.91708e-17)
(1.0046 0.0118308 0)
(0.00290991 1.78501 0)
(0.00461495 1.78439 -4.46289e-17)
(-0.00244419 1.77983 -3.98782e-17)
(1.16121 0.252163 -6.21136e-17)
(1.09931 0.0853163 0)
(-0.289313 2.94731 2.84236e-17)
(-0.304544 3.27933 4.32646e-19)
(-0.0641362 2.98128 6.27338e-17)
(-0.0648372 2.9301 4.02133e-17)
(0.0315544 2.89875 0)
(-0.0355696 3.00792 1.72509e-17)
(-0.13076 3.12085 3.15779e-17)
(-0.107727 2.98329 1.78778e-17)
(-0.0782154 3.09146 0)
(0.618092 0.333185 0)
(0.512249 0.373883 0)
(1.08202 0.831931 3.84208e-17)
(1.07834 0.900706 3.88408e-17)
(1.15051 0.64114 0)
(1.16289 0.553284 0)
(1.00612 0.00657907 4.0414e-18)
(1.00283 0.00668194 -1.70037e-18)
(1.01633 -0.00388866 0)
(1.01167 -0.00915512 0)
(0.999701 0.0116024 0)
(1.00575 0.00523903 0)
(1.00564 0.00701209 0)
(1.00104 0.00706026 0)
(1.00356 0.00480618 0)
(0.992362 0.00527276 0)
(-0.0137499 1.46265 0)
(-0.0633012 1.42268 0)
(0.0890211 1.46585 0)
(0.0929354 1.50677 0)
(0.0184336 2.18147 0)
(0.0526478 2.18383 3.96066e-17)
(-0.0222295 2.17724 0)
(-0.047796 2.13229 3.86154e-17)
(-0.0525489 1.99202 -8.23618e-17)
(-0.0500023 1.71315 0)
(-0.0306361 1.72614 0)
(-0.0574553 1.68191 0)
(-0.0614853 1.64951 0)
(-0.0929304 1.83962 -8.74638e-17)
(-0.0565557 1.82001 -5.57521e-17)
(-0.0252871 1.86729 4.40917e-17)
(-0.0291289 1.85182 0)
(-0.00317048 1.8137 3.58453e-17)
(-0.00930565 1.81002 -8.35287e-17)
(-0.122263 1.84918 -1.33346e-16)
(-0.0744773 1.78893 -5.54519e-17)
(-0.0527761 1.82611 4.44598e-17)
(0.99251 0.0216444 7.76034e-19)
(0.995961 0.00651742 1.09063e-18)
(0.985252 0.0278436 4.86263e-18)
(0.972809 0.0165692 -8.22153e-19)
(1.03207 0.0112106 0)
(1.02525 0.0037152 0)
(1.04504 0.0354884 0)
(1.03656 0.0297431 0)
(1.03786 0.0153791 0)
(1.08704 0.0735251 0)
(1.06435 0.06395 0)
(1.07655 0.0406301 0)
(-0.0148283 1.79281 1.15255e-17)
(-0.00621725 1.76959 0)
(-0.0180342 1.77797 0)
(-0.00454451 1.78474 -1.71281e-17)
(-0.00162316 1.78824 1.86875e-20)
(-0.0176341 1.79929 5.14708e-17)
(-0.0328214 1.78241 5.15836e-17)
(-0.0120163 1.76905 0)
(-0.0381072 1.7765 0)
(-0.021503 1.76704 0)
(-0.0110575 1.77545 0)
(-0.0113717 1.77377 0)
(0.419173 1.69978 -6.70907e-17)
(0.426179 1.69878 4.7699e-17)
(0.426535 1.94714 -4.01182e-19)
(0.272842 2.06623 3.57277e-17)
(0.356046 1.86427 4.31141e-17)
(1.01384 -0.0105141 0)
(1.01043 -0.00557891 0)
(1.01447 -0.00875072 0)
(1.00448 0.00448694 0)
(0.997495 -0.00452943 0)
(0.990229 -0.00131634 0)
(1.00317 -0.00365112 0)
(1.0037 -0.00329193 0)
(1.00519 0.0066694 1.45665e-18)
(1.00186 0.00429342 1.48244e-18)
(1.00728 0.0134641 4.25124e-18)
(1.00175 0.0117852 -1.50127e-18)
(0.761065 1.54622 0)
(0.739573 1.56479 -9.10523e-17)
(0.900419 1.38945 8.10746e-17)
(0.951535 1.29804 7.99369e-17)
(1.00586 2.06295 -2.25295e-17)
(0.82573 0.123861 -2.00943e-17)
(1.1122 0.138606 0)
(1.15914 0.191951 -1.15707e-16)
(1.13599 0.140143 -1.00139e-19)
(0.953192 0.133555 0)
(-0.12431 2.6387 6.48126e-17)
(-0.461951 2.55848 7.47014e-17)
(-0.967611 2.72199 1.17934e-17)
(-0.801942 0.189746 -1.51742e-17)
(0.175498 2.91932 -1.46284e-17)
(0.0194195 2.9243 0)
(0.12583 2.89348 -1.34842e-17)
(-0.010226 2.63245 8.10476e-17)
(0.183057 2.65233 0)
(-0.0291613 3.04184 -1.7692e-19)
(-0.0433519 3.06325 -2.98936e-17)
(-0.00985458 3.08979 -3.08138e-17)
(-0.0574421 3.1059 0)
(-0.0619605 3.0347 0)
(1.14095 2.12497 0)
(0.494935 1.09137 5.46961e-17)
(1.03157 1.09976 -3.87321e-17)
(0.991774 1.23309 0)
(0.823183 1.09612 -1.78387e-17)
(1.05249 1.05002 -7.17779e-17)
(0.132045 0.411212 -5.87814e-18)
(0.634404 0.339224 1.4017e-17)
(0.656715 0.295261 1.65997e-17)
(0.446547 0.447661 2.05121e-19)
(0.414062 0.378904 -2.57124e-18)
(0.584397 0.381232 0)
(0.594222 0.475951 1.60549e-17)
(0.613998 0.421547 0)
(0.525845 0.396634 0)
(0.561427 0.341359 0)
(0.677562 0.685588 4.15362e-17)
(1.17655 0.343867 3.89197e-17)
(1.18227 0.466115 0)
(1.17935 0.379778 0)
(0.73751 0.23129 2.58773e-17)
(0.730595 0.632014 4.01895e-17)
(0.617551 0.567126 1.64633e-17)
(0.883099 0.428853 -9.85649e-17)
(1.0024 0.00279203 4.56333e-17)
(1.00289 0.0169948 4.75316e-17)
(0.998573 0.00964881 0)
(1.01033 0.00192322 0)
(1.00865 -0.0133575 -4.45412e-17)
(1.00343 -0.00787557 -4.56461e-17)
(1.01271 -0.000889826 0)
(1.00244 0.00782007 0)
(1.00732 0.000696234 0)
(1.00187 0.00237097 0)
(1.00741 0.00117086 0)
(1.00422 -0.00376707 0)
(-0.0808004 1.48368 0)
(-0.0914369 1.49149 0)
(0.0909415 1.41492 -6.12738e-17)
(0.25312 1.65846 -4.64018e-17)
(0.182579 1.55495 8.98905e-17)
(0.175594 1.58686 4.17517e-17)
(0.19502 1.487 0)
(0.157774 1.79611 8.36064e-17)
(0.0513439 1.75751 0)
(0.317998 1.89929 4.34629e-17)
(0.301067 2.02737 -5.07911e-17)
(0.264619 1.61604 8.26515e-17)
(0.321532 1.54908 -4.77317e-17)
(0.230453 1.48789 -4.81678e-17)
(0.336154 1.54269 -1.24509e-17)
(0.29265 1.7321 0)
(0.350799 1.70701 -6.02859e-17)
(-0.146196 1.96797 6.40113e-18)
(-0.063769 2.03948 0)
(-0.124061 2.05808 -8.40779e-17)
(-0.143833 2.01474 0)
(-0.054917 2.11691 3.90159e-17)
(-0.0586069 2.06201 0)
(-0.0809015 1.73605 6.26735e-17)
(-0.109132 1.77245 0)
(-0.10118 1.69185 0)
(-0.0885877 1.7067 6.22835e-17)
(-0.0643552 1.9023 -1.36827e-16)
(-0.0363939 1.97837 -7.97553e-17)
(-0.0405269 1.93583 1.20661e-21)
(-0.0571162 1.78725 8.98097e-17)
(-0.100066 1.80703 -4.56902e-17)
(-0.0318922 1.74099 0)
(-0.0213969 1.75801 0)
(-0.183594 1.81145 3.6425e-17)
(-0.152873 1.71031 3.10959e-17)
(-0.137561 1.77699 6.89709e-17)
(-0.206867 1.79093 0)
(-0.00383802 1.78854 1.18649e-16)
(-0.0170812 1.78398 1.99722e-17)
(-0.00618367 1.7922 -2.26107e-17)
(-0.0381975 1.79264 9.00148e-17)
(-0.00453681 1.76717 -4.65589e-18)
(-0.0237708 1.77803 -5.14788e-17)
(1.00113 0.0180096 4.7307e-17)
(0.999536 0.00592623 4.49819e-17)
(0.997018 0.0108044 0)
(0.991438 0.048512 -7.00057e-17)
(0.964607 0.0506651 5.37269e-18)
(0.949512 0.0322156 4.96273e-18)
(0.987534 0.090397 3.80969e-19)
(1.01778 0.00118662 0)
(1.02038 0.0093215 -4.70197e-17)
(1.01586 -0.000775922 -4.48501e-17)
(1.03283 0.0355842 3.39412e-18)
(1.03266 0.039014 -7.5791e-18)
(1.03057 0.0476217 0)
(1.01942 0.0432445 -1.15389e-18)
(1.00798 0.0296666 0)
(1.0016 0.0292836 0)
(1.01625 0.0220941 0)
(1.00401 0.0115059 0)
(1.01432 0.0310598 7.78563e-18)
(1.01589 0.0233964 2.83739e-17)
(1.03355 0.0338429 -1.02058e-17)
(1.02345 0.0280097 8.4098e-18)
(1.02748 0.068225 3.89791e-17)
(1.04276 0.0631322 0)
(1.03524 0.0947813 0)
(-0.00232419 1.79686 -6.23698e-17)
(0.0171405 1.77226 -1.00581e-18)
(-0.00846579 1.78202 0)
(0.00697418 1.7918 -6.25316e-17)
(-2.84008e-05 1.79722 1.0498e-17)
(0.00125063 1.78801 -4.67128e-18)
(-0.0163137 1.80641 -8.94152e-17)
(-0.00783701 1.78802 -2.40877e-19)
(-0.00631301 1.78537 -5.67026e-18)
(-0.00847569 1.79195 3.94296e-17)
(-0.00930519 1.79882 3.95381e-17)
(-0.00498869 1.77057 -2.68942e-17)
(-0.00863522 1.79013 -4.47646e-17)
(0.411281 1.58565 3.30051e-17)
(0.405805 1.57721 -6.54744e-18)
(0.675884 1.6471 -9.23284e-17)
(0.540443 1.71051 4.70807e-17)
(0.592026 1.66524 0)
(0.424401 1.92724 -3.55375e-18)
(0.485365 1.90728 2.85255e-19)
(0.31739 2.02073 -8.57862e-18)
(0.308101 2.08853 -4.232e-17)
(0.415771 2.05574 -3.12472e-17)
(0.385362 1.96486 0)
(0.358369 1.9934 -1.62543e-17)
(0.150525 2.13941 5.12461e-18)
(0.226634 2.08791 7.21706e-17)
(0.153754 2.13765 2.53688e-18)
(0.746303 1.89104 -3.73187e-17)
(0.631492 1.89583 0)
(1.01024 0.0113783 3.23689e-20)
(1.00746 -0.00635061 8.51987e-20)
(1.00467 -0.0174999 -1.32473e-17)
(1.01625 -0.00336805 -1.41147e-17)
(1.01044 0.00418325 0)
(0.686352 1.44277 0)
(0.636398 1.36851 0)
(0.763643 1.25686 0)
(0.689668 1.29345 0)
(0.979469 2.08203 3.37797e-17)
(0.932035 1.91947 0)
(0.702704 1.89034 -1.23155e-18)
(0.657685 2.00338 0)
(0.691825 2.0444 8.18948e-17)
(0.77028 2.00167 8.10555e-17)
(0.807885 0.153271 0)
(0.790722 0.152141 -1.52744e-19)
(0.892735 0.139311 1.7815e-17)
(0.838954 0.115122 -3.60046e-17)
(0.845834 0.0845208 -8.78689e-18)
(1.02251 0.251802 -4.09252e-17)
(0.895433 0.309298 3.33529e-17)
(0.850212 0.296666 3.66337e-17)
(0.946263 0.231003 2.07415e-17)
(0.889329 0.166641 3.65829e-17)
(0.873977 0.191838 -1.15388e-17)
(0.865741 0.266542 -8.71493e-19)
(0.851406 0.223625 0)
(0.944742 0.200459 3.06999e-17)
(0.991411 0.182631 0)
(0.981646 0.251083 0)
(1.05752 0.130267 -1.17162e-17)
(1.00129 0.184196 3.67014e-17)
(0.997468 0.210388 2.33631e-17)
(1.04867 0.202132 0)
(0.994975 0.0278419 -3.71512e-17)
(1.01006 0.0360956 4.28052e-17)
(1.01036 0.0365423 -3.59386e-17)
(1.01057 0.056739 4.53995e-17)
(0.985709 0.0498978 -7.14575e-17)
(0.943197 0.143558 0)
(0.950693 0.0686766 0)
(0.944363 0.0539024 4.76498e-17)
(0.9236 0.0522736 1.17063e-17)
(0.994071 0.0988726 -3.87499e-17)
(1.01996 0.134894 -3.90596e-17)
(1.01284 0.153261 -3.65433e-18)
(0.973469 0.149477 0)
(1.02386 0.102409 0)
(1.01505 0.0885016 3.83395e-17)
(0.994981 0.0876194 -3.61763e-17)
(0.591587 1.33129 3.37102e-17)
(0.604072 1.51264 -2.64799e-17)
(0.925285 2.16458 1.91214e-17)
(0.976751 2.41117 -1.87725e-18)
(1.03563 2.14898 -4.11879e-17)
(1.09484 2.19962 9.33516e-18)
(1.09493 1.95388 9.59046e-18)
(1.0095 2.31482 -2.23738e-17)
(1.01058 2.29691 -1.09395e-17)
(1.0484 2.51085 2.84335e-19)
(1.16654 2.40616 9.41064e-19)
(1.23774 2.36105 0)
(0.471308 1.14757 -4.40145e-18)
(-0.232834 1.41182 -1.43918e-17)
(-0.0369892 0.607775 -4.21462e-18)
(-0.160987 0.875556 -1.59533e-17)
(0.322642 0.449837 -5.82163e-18)
(0.343532 0.506969 -4.33314e-18)
(0.28279 0.610682 -1.09943e-18)
(0.176988 0.467431 6.65189e-19)
(0.287469 0.369265 -3.49781e-18)
(0.719246 0.280246 2.58725e-17)
(0.674211 0.303156 0)
(0.69315 0.263352 7.17882e-18)
(0.602436 0.564425 -1.1186e-17)
(0.51341 0.534256 6.22051e-18)
(0.416268 0.589772 -6.86533e-18)
(0.490498 0.486984 0)
(0.564055 0.95623 -2.57662e-17)
(0.743812 0.902945 6.00526e-17)
(0.68146 1.06668 5.50562e-17)
(0.790144 0.93463 1.37773e-17)
(0.899952 0.9294 -5.74766e-18)
(0.902601 1.00008 -5.91584e-18)
(0.781054 0.770256 -5.10842e-19)
(0.843493 0.811691 1.33998e-17)
(0.935123 0.862013 0)
(0.929045 0.730124 2.77232e-17)
(0.953487 0.329427 6.17341e-17)
(1.06553 0.327127 -1.89882e-17)
(0.999149 0.311363 -5.45687e-17)
(0.908459 0.408524 5.15109e-17)
(1.00366 0.458114 0)
(1.03031 0.43124 0)
(0.817839 0.399984 5.87955e-17)
(0.771809 0.298354 0)
(0.775682 0.299857 -1.4166e-17)
(0.858193 0.335105 8.00813e-17)
(0.835276 0.506501 -8.09897e-17)
(0.763031 0.556596 4.65388e-18)
(0.801882 0.508059 4.47576e-18)
(0.724645 0.472909 3.60506e-18)
(0.71901 0.483569 -4.14733e-18)
(0.670871 0.451565 -3.69306e-18)
(1.01972 -0.0039171 -4.81759e-17)
(1.00772 -0.00742596 0)
(1.0175 0.00242698 1.75056e-17)
(1.00996 0.009679 -2.78957e-17)
(1.01576 0.00462998 -2.25969e-17)
(1.00615 0.014383 -8.26756e-18)
(1.00464 0.0108664 0)
(1.00758 0.00426728 1.29295e-17)
(1.00757 0.00857175 4.98772e-18)
(1.00412 0.00741797 -6.92458e-18)
(1.00676 0.00280037 1.25046e-17)
(-0.101349 1.62202 0)
(-0.132765 1.69107 0)
(-0.0895188 1.54465 0)
(-0.0785843 1.56408 0)
(-0.125904 1.6267 -3.05519e-18)
(-0.0581818 1.53017 -1.27781e-16)
(-0.0293294 1.7541 -3.93778e-17)
(-0.0370848 1.62975 -9.98377e-17)
(-0.194211 1.7047 6.45904e-17)
(-0.175242 1.71085 7.39564e-17)
(-0.149409 1.59897 1.41057e-16)
(-0.144888 1.59696 6.50056e-17)
(-0.134514 1.60829 1.15621e-17)
(-0.156352 1.67264 1.45633e-18)
(-0.10339 2.0758 -8.3322e-17)
(-0.0481072 2.13641 0)
(-0.0459259 2.02526 -4.69698e-17)
(-0.0604423 1.83743 -5.09659e-18)
(0.246677 1.92562 -2.1885e-17)
(0.14167 2.10117 0)
(0.164562 2.07311 6.05629e-17)
(0.235367 2.05211 5.98841e-17)
(0.169674 1.9474 -7.53145e-17)
(0.0543813 2.04505 -9.57651e-17)
(0.00406723 2.09253 0)
(-0.153069 1.87114 3.59272e-17)
(-0.115272 1.86023 -2.79594e-17)
(-0.132428 1.85276 0)
(-0.105775 1.93842 2.46888e-17)
(-0.167534 1.94743 2.15377e-17)
(-0.069667 1.74329 1.137e-17)
(-0.049452 1.74591 -1.20808e-16)
(-0.0633129 1.76827 -7.68668e-17)
(-0.097801 1.75541 5.57166e-17)
(-0.0962629 1.74667 0)
(-0.0179648 1.77261 0)
(-0.0116918 1.76947 -4.50437e-17)
(-0.0161013 1.76471 -4.5787e-18)
(-0.0211144 1.76765 0)
(-0.0136381 1.76545 3.97367e-17)
(-0.00800501 1.76308 -3.29971e-19)
(1.01911 0.0284383 0)
(1.02934 0.0198087 -4.83603e-19)
(1.01282 0.0246331 4.67054e-17)
(1.02596 0.0158356 0)
(1.02049 0.00453788 0)
(1.0225 0.00365684 2.51106e-17)
(1.01818 0.00963343 -5.52461e-17)
(1.01155 0.00814936 -9.46736e-18)
(1.00608 0.00949926 0)
(1.0089 0.0129647 0)
(1.01117 0.0174375 3.98635e-17)
(1.00346 0.017841 0)
(1.00743 0.0165666 0)
(-0.0209496 1.78981 0)
(-0.00875835 1.78518 -4.85379e-17)
(-0.00986431 1.7794 5.04917e-17)
(-0.013394 1.76245 0)
(-0.00267628 1.79145 -4.54229e-17)
(-0.0148344 1.77521 -2.25124e-17)
(-0.0173839 1.76369 0)
(0.392488 1.68598 0)
(0.35387 1.54185 2.20265e-17)
(0.33011 1.49131 0)
(0.407503 1.50965 1.03408e-16)
(0.491119 1.59254 0)
(0.468452 1.60574 3.70433e-17)
(0.805066 2.07109 -4.44633e-19)
(0.764152 1.88505 -3.66925e-17)
(0.733346 1.75343 -1.75821e-17)
(0.649303 1.8794 -8.2757e-18)
(0.649379 1.9914 0)
(0.71268 1.98324 0)
(0.703121 1.88695 0)
(0.695141 1.87504 -8.32882e-18)
(0.532842 2.05062 -4.86111e-17)
(0.612576 1.97863 3.77696e-18)
(0.605799 2.0298 3.62003e-18)
(0.505046 1.89558 0)
(0.578846 1.89351 0)
(0.559126 1.89654 -2.32489e-19)
(0.571882 1.9941 0)
(0.641321 1.24969 0)
(0.582058 1.17452 -7.95031e-17)
(0.562249 1.15398 -7.32032e-18)
(0.606828 1.2581 0)
(0.584825 1.21127 -7.63933e-17)
(0.72282 1.08287 -1.33328e-17)
(0.778308 1.21397 0)
(0.790387 1.12251 -3.19757e-17)
(0.687464 1.22348 0)
(0.616798 1.17149 0)
(0.91202 2.14243 1.29054e-17)
(0.902237 2.21517 -1.43232e-17)
(0.760512 1.97 -4.21192e-17)
(0.747743 1.93777 -4.83008e-18)
(0.895233 2.11508 0)
(0.840986 2.10062 -3.96732e-18)
(0.881609 1.98287 -8.51051e-18)
(0.842396 1.81644 -8.96584e-18)
(0.543209 1.47346 0)
(0.550974 1.31944 3.43235e-17)
(0.575042 1.36622 0)
(0.825009 0.205281 0)
(0.779012 0.183573 0)
(0.755749 0.186088 0)
(0.810457 0.252286 -1.34792e-17)
(0.750003 0.22896 8.42508e-18)
(0.932185 0.0796802 1.21808e-17)
(0.92229 0.119171 0)
(0.898157 0.0950842 4.90913e-19)
(0.856801 0.080205 -7.62043e-20)
(0.863337 0.0511151 -9.52799e-18)
(1.04394 2.68185 -1.46663e-17)
(0.965902 2.58001 0)
(0.920626 2.75263 -5.71292e-17)
(0.583743 2.96045 -4.07265e-17)
(0.699634 2.48227 1.10631e-17)
(0.454352 1.22252 -2.55482e-17)
(0.541185 1.12243 0)
(0.223662 0.868563 7.1789e-18)
(0.251409 0.970938 5.3932e-17)
(0.150255 0.846436 1.03218e-17)
(0.231298 0.652455 7.48254e-18)
(0.484408 0.648623 -7.35092e-18)
(0.508962 0.696612 0)
(0.459989 0.808859 0)
(0.338871 0.766164 0)
(0.912722 0.696003 1.43743e-17)
(0.834996 0.607197 4.44396e-18)
(0.847344 0.642747 6.68564e-19)
(0.873856 0.526146 2.03838e-17)
(0.974662 0.563725 0)
(0.976141 0.623186 -1.38074e-17)
(0.770492 0.426483 5.89618e-18)
(0.77184 0.376648 2.17351e-17)
(0.700661 0.399302 -9.30493e-20)
(0.702266 0.380412 -1.71023e-18)
(0.753554 0.344578 -1.41764e-17)
(0.728921 0.31987 -1.4918e-17)
(1.02266 -0.000542933 -5.04846e-17)
(1.02158 -0.00517852 -2.93735e-17)
(1.0256 -0.0024057 4.97031e-17)
(1.02288 -0.00469605 5.11952e-17)
(1.01858 0.0139505 0)
(1.00093 0.0112581 -3.03167e-17)
(-0.194229 1.85167 3.13261e-17)
(-0.188072 1.79915 0)
(-0.164318 1.83596 -5.00902e-17)
(-0.123377 1.82335 -7.09543e-17)
(-0.10692 1.74944 -4.00454e-17)
(-0.160256 1.77085 0)
(-0.0143954 1.80082 0)
(-0.0129897 1.77201 -2.28738e-17)
(-0.0182641 1.76438 -2.29373e-17)
(-0.0167901 1.78037 -5.76164e-17)
(-0.034762 1.79265 -1.21954e-17)
(-0.00585375 1.79509 -4.71737e-18)
(0.520308 1.48387 -1.36492e-16)
(0.49587 1.51619 -1.4363e-16)
(0.465834 1.50535 8.42483e-17)
(0.438357 1.48867 -5.42912e-18)
(0.640596 1.49322 0)
(0.562841 1.58867 8.44419e-17)
(0.608349 1.53402 8.31356e-17)
(0.495704 1.47773 8.29825e-17)
(0.532665 1.45915 0)
(0.591653 1.39486 0)
(0.519763 2.04508 -4.95663e-17)
(0.486022 1.98228 -7.01392e-17)
(0.513119 1.98454 -6.92043e-17)
(0.427296 1.98193 -3.45273e-18)
(0.4431 2.12489 4.06463e-18)
(0.411698 2.04344 -2.64856e-17)
(0.776082 1.86937 -1.69965e-17)
(0.826934 1.89475 0)
(0.77324 1.7509 -9.21551e-22)
(0.844114 2.06594 0)
(0.817548 2.07237 0)
(0.565297 1.96585 -7.03814e-18)
(0.918315 2.41827 -7.8227e-18)
(0.790495 2.42193 2.98995e-18)
(0.154949 1.25433 0)
(0.196013 1.21891 -1.93699e-17)
(0.442792 1.13376 -4.44198e-17)
(0.381482 1.91144 0)
(0.378416 2.26099 1.02219e-17)
(0.183485 2.24832 0)
(0.596285 0.867877 -2.31398e-17)
(0.624611 0.855158 -4.65241e-17)
(0.647747 0.805761 -3.60378e-17)
(0.488878 0.84088 -2.85694e-18)
(0.559631 0.7268 -1.5338e-18)
(0.834911 2.2334 -8.8472e-18)
(0.892587 2.21747 -1.46371e-17)
(0.657987 1.9344 1.77283e-17)
(0.642139 1.66298 3.01312e-17)
(0.690826 1.72185 3.96039e-17)
(0.844005 2.01102 -3.46277e-17)
(0.848145 2.01542 -1.7066e-17)
(0.71361 1.66987 1.17317e-18)
(0.571812 1.43023 4.0331e-17)
)
;

boundaryField
{
    wall-4
    {
        type            calculated;
        value           uniform (0 0 0);
    }
    velocity-inlet-5
    {
        type            calculated;
        value           uniform (1 0 0);
    }
    velocity-inlet-6
    {
        type            calculated;
        value           uniform (0 3 0);
    }
    pressure-outlet-7
    {
        type            calculated;
        value           nonuniform List<vector> 8((-0.0152154 1.68082 0) (-0.00192426 1.64024 6.64766e-17) (-0.000103551 1.75854 0) (-0.0153057 1.79971 0) (-0.00713641 1.77608 0) (-0.00290295 1.77653 0) (-0.0116611 1.77091 0) (-0.0100995 1.78672 0));
    }
    wall-8
    {
        type            calculated;
        value           uniform (0 0 0);
    }
    frontAndBackPlanes
    {
        type            empty;
    }
}

