/*--------------------------------*- C++ -*----------------------------------*\
  =========                 |
  \\      /  F ield         | OpenFOAM: The Open Source CFD Toolbox
   \\    /   O peration     | Website:  https://openfoam.org
    \\  /    A nd           | Version:  6
     \\/     M anipulation  |
\*---------------------------------------------------------------------------*/
FoamFile
{
    version     2.0;
    format      ascii;
    class       volScalarField;
    location    "0";
    object      P_rec;
}
// * * * * * * * * * * * * * * * * * * * * * * * * * * * * * * * * * * * * * //

dimensions      [0 2 -2 0 0 0 0];

internalField   nonuniform List<scalar> 
918
(
0.584382
0.266367
0.11762
0.60766
-0.00251079
0.149761
-0.781414
0.528441
0.614303
-0.131372
0.035
0.474989
-0.0152577
-0.014432
-1.19993
0.0220322
0.593403
-0.741411
0.433038
0.0261695
-0.122041
0.611322
0.538137
0.428035
0.520979
-0.100495
0.0758582
-0.0381031
-0.0602881
-0.0455646
-0.00254408
0.0527122
0.00897055
0.132287
0.122118
0.166364
0.441891
0.209223
-0.648152
-0.697973
-0.691995
-0.866429
0.539609
0.553914
-0.26733
0.506888
0.479942
0.442663
0.591404
0.617507
0.543473
0.5936
0.623839
0.255836
-0.18554
-0.257169
-0.0793281
-0.0752334
0.076269
0.030465
0.0180645
0.0656813
0.0518796
0.392193
0.465987
0.461686
0.487065
0.485308
0.229025
0.186456
0.234231
-0.0186874
0.123899
-0.0392115
0.0827811
-0.0109919
0.026826
-0.032994
-0.0502544
-1.46214
-2.21438
-0.733676
-0.604927
0.00567322
0.0236665
0.0324109
0.583785
0.585492
0.579881
0.589903
0.712637
-0.673522
-0.847331
0.466774
0.46677
0.598569
0.548909
0.487146
0.415923
0.0234353
0.0199572
0.0130626
0.0428146
0.0341744
0.0851634
0.211703
0.4062
0.441892
0.485189
0.51126
0.499046
0.226321
0.559641
0.556924
-0.116834
0.0449531
-0.0992753
-0.0144958
0.0876123
0.0554471
0.158122
0.195519
-0.0654398
-0.0117122
0.0394644
0.00224801
0.0291991
0.44037
0.430334
0.455331
0.44456
0.449645
0.111207
0.0160208
0.282114
0.318377
-0.521781
-0.559503
-0.764438
-0.781874
-0.896427
0.494294
0.558324
0.574237
-0.378175
-0.243196
-0.412428
-0.155562
-0.201228
0.447422
0.438886
0.439728
0.447148
0.450745
0.451783
0.600491
0.592785
0.630922
0.267584
0.346101
0.240013
0.200327
-0.483971
-0.356965
-0.462609
-0.0438756
-0.00448854
0.0647706
0.100499
0.112396
0.0814337
-0.000165571
0.0166823
0.00566332
0.0202682
0.0207915
0.395983
0.380232
0.3937
0.403554
0.459202
0.457949
0.463731
0.465958
0.168062
0.155821
0.11067
0.0867332
-3.00414
-5.15826
-0.41631
-0.327431
-0.00305132
-0.0144049
-0.00543493
-0.0886526
-0.0166495
-0.0450013
0.0698527
0.0415846
0.0347111
0.0544348
0.581481
0.594901
0.703691
0.725332
0.632373
0.626531
0.464534
0.474593
0.469232
0.471599
0.034241
0.0204499
0.0360154
0.442621
0.327594
0.384266
0.193368
0.0982383
0.273826
0.31397
0.583697
0.567225
0.588889
-0.12271
-0.037919
0.30561
0.0376776
0.288953
0.104035
0.0628099
0.10729
0.0289638
0.408665
0.42594
0.42265
0.451234
0.459083
0.458837
0.461365
0.45291
0.456732
-0.143014
-0.436232
0.423927
0.418143
0.358204
0.40439
0.556508
0.605806
0.580599
0.569149
0.578724
-0.0548007
-0.0907307
0.151207
0.141078
0.344037
0.359313
0.349506
0.0839512
0.0439964
0.0819987
0.0687785
0.0456261
0.0967047
-0.408934
-1.76317
-1.00552
-0.143066
-0.220977
-0.194835
0.0392351
0.105921
0.0719263
0.690907
0.740541
0.396801
0.55679
0.509554
-0.160024
-0.0770944
0.0305736
-0.0955251
-0.0438856
0.0379633
-0.00998997
0.421383
0.398301
0.417647
0.622517
0.682722
0.0605587
-0.0023367
-0.0430859
0.124021
0.114895
0.116041
0.7246
0.682614
0.719105
0.415569
0.403037
-0.0622022
-0.00420111
0.520989
0.549293
-0.0652317
-0.0287195
-0.125056
-0.78231
0.0595752
0.469576
0.426215
0.483931
-0.186156
0.173354
0.00527355
0.0179684
-0.0373984
0.445806
0.372103
0.340965
-0.0643499
0.00629477
-0.00357224
-0.450385
0.478586
0.461768
0.468224
0.48023
0.493984
-0.00701712
-0.0153221
0.0313335
-0.0367503
0.0453423
0.0418859
0.45082
0.440205
-0.438373
0.461985
0.487643
0.485933
0.500613
0.501772
0.488764
-0.0158718
0.0328065
0.0386502
0.16132
0.267593
-0.0333941
-0.102198
-0.00120622
-0.136324
-0.322233
-0.0652573
-0.0609051
-0.0635054
-0.0557278
0.544495
0.507775
0.147267
-0.0406752
0.129873
0.0956539
0.465632
0.484335
0.456453
0.469125
0.488071
0.434885
0.503705
0.470281
0.466399
0.512526
-0.131691
-0.0473327
-0.142425
-0.2695
0.242966
0.346648
0.153198
0.219823
0.0938466
-0.0127314
0.0473277
-0.0183856
0.00783758
0.000422397
0.102457
0.0331337
0.139301
0.0177849
0.111377
-0.040946
0.142074
-0.00610432
0.428619
0.44919
0.446308
0.489111
0.405741
0.424903
0.402656
0.400232
0.421272
0.351309
0.36981
0.370169
0.0141988
0.0139758
0.0466653
0.0215883
0.0458075
-0.0303904
-0.026738
-0.0264637
-0.00437936
-0.0504468
-0.0105203
-0.00313786
-0.374576
-0.532885
0.618856
0.526435
-0.0634735
0.436248
0.482816
0.454829
0.495419
0.505587
0.539457
0.502354
0.478749
0.447101
0.463783
0.445529
0.465178
-0.351895
-0.424981
-0.276228
-0.323121
0.130029
0.563833
0.319825
0.26704
0.259349
0.425136
0.365477
0.0963026
-0.219085
-0.346983
-0.517864
-0.388717
-0.542926
-0.0838637
-0.0293445
-0.115683
-0.0394551
0.0379579
-0.0254389
-0.0355337
-0.10815
0.448152
-0.167688
-0.147687
0.0810846
-0.0059839
0.233118
0.544248
0.554457
0.484844
0.460985
0.530312
0.502709
0.502223
0.532682
0.539075
0.443982
0.208555
0.197936
0.131194
0.553779
0.467431
0.502596
0.386001
0.487715
0.492084
0.469994
0.459597
0.498759
0.459237
0.454136
0.430675
0.422893
0.464625
0.468412
0.436358
-0.00704579
-0.0159622
-0.149267
-0.364221
-0.227428
-0.321696
-0.205169
-0.117769
-0.170181
-0.079129
0.174054
-0.148364
-0.316665
-0.179081
-0.285556
-0.0373696
-0.12245
0.124894
0.128092
0.120303
0.140841
0.181992
0.155051
0.0359188
0.0437608
0.0805524
-0.00253064
0.129476
0.0886247
0.15681
0.0606167
0.117049
0.0702546
0.029222
-0.00652117
0.105117
0.0479404
0.0033919
0.0302153
0.0169037
-0.0758575
-0.0742319
0.183996
0.0490588
0.472516
0.454902
0.45689
0.476052
0.51071
0.502229
0.446437
0.448872
0.47824
0.446502
0.41568
0.3965
0.385945
0.419523
0.430884
0.426958
0.469723
0.460354
0.432011
0.453547
0.397897
0.417993
0.369602
0.39046
0.419309
-0.102479
0.0246268
-0.0378783
-0.0450717
0.0133182
0.0540641
0.115181
0.031439
0.12163
0.0927933
0.0615406
0.0329216
0.0608556
-0.253238
-0.160728
-0.362749
-0.445072
-0.537187
0.58825
0.670638
0.54623
0.384177
0.433353
0.543004
0.653279
0.377718
0.402015
0.501872
0.402447
0.599341
0.467232
0.451792
0.47346
0.495758
0.469822
-0.198602
-0.0567181
-0.0163903
0.0933967
0.197399
0.256211
0.12868
0.082441
0.174869
0.200133
0.544938
0.565731
0.531241
0.564652
0.559811
0.358131
0.452553
0.480785
0.477886
0.478772
0.501226
0.510268
0.504261
0.432335
0.429792
0.43517
0.392508
0.417036
0.389031
0.389001
0.444373
0.422171
0.423051
0.435234
0.485317
0.462145
0.492055
0.538646
0.516252
0.41556
0.39645
0.422065
0.432406
0.410802
0.409474
0.403283
0.131051
0.151649
0.0745882
-0.107247
0.0167713
-0.0464013
-0.0965842
-0.0786322
0.061437
-0.417393
-0.35708
-0.871158
0.328578
0.430688
0.199569
-0.0802033
0.439996
0.478628
0.463352
0.36028
0.369502
0.537073
0.5586
0.567578
0.493796
0.487095
0.507883
0.492138
0.445033
0.317992
0.247735
0.293881
0.132396
0.194246
0.348832
0.290726
0.248977
0.281652
0.370146
0.275369
0.301712
0.376285
0.337563
0.330107
0.455006
0.501469
0.518602
0.459797
0.369897
0.431906
0.417316
0.465026
0.506843
0.510134
0.470269
0.450696
0.461182
0.45233
0.44021
0.458726
0.426606
0.475164
0.481041
0.489364
0.483128
-0.0113711
0.0119656
0.0285924
-0.0164417
-0.0742192
-0.127412
-0.146795
-0.148331
0.0741176
0.0455378
-0.0693438
-0.0123819
0.092187
0.0378139
0.0566387
0.0618991
-0.0245718
-0.0804347
0.0901419
0.262693
0.261425
0.200671
0.0650323
0.0968519
0.208155
0.0305049
0.130859
0.0813156
0.0398761
0.0402301
0.0214512
0.119136
0.0497965
0.0905905
0.0394978
-0.120515
0.0476581
0.104537
-0.0519806
0.00948973
0.0441758
0.433964
0.438226
0.422281
0.402671
0.410192
0.408199
0.445151
0.472185
0.47334
0.472251
0.479676
0.461125
0.467369
0.0126171
0.138804
0.16925
0.0988158
0.0500113
-0.00579078
-0.0241212
0.0893318
-0.0806458
-0.0306018
-0.172519
-0.281116
-0.222826
0.332534
0.362749
0.360734
0.555184
0.415624
0.320162
0.414839
0.539822
0.254896
0.340565
0.22891
0.591416
0.53351
0.633706
0.400686
0.0445822
0.12902
0.275659
0.00539502
0.00585204
0.126504
0.137544
0.141041
0.132965
0.211113
0.191852
0.165248
0.0615981
0.098557
0.243447
0.226272
0.304516
0.359187
0.0691101
0.0926396
0.03144
0.520221
0.546308
0.568549
0.540546
0.561145
0.501484
0.498232
0.531224
0.558997
0.547534
-0.727133
-0.471442
-1.29246
-0.595105
-0.303162
0.432838
0.16216
0.805802
0.632144
0.497091
0.51695
0.517756
0.477406
0.53482
0.535768
0.284675
0.378911
0.319994
0.359838
0.270287
0.196407
0.500608
0.487307
0.514151
0.533971
0.49056
0.532922
0.388039
0.43172
0.413567
0.449289
0.47406
0.494623
0.0705205
0.0118248
0.0154347
-0.00189579
-0.00873162
-0.0211551
-0.0481415
-0.01338
0.181556
0.116658
0.0534319
0.112937
0.00568525
-0.00525471
-0.120375
-0.0387648
-0.13481
-0.267697
-0.24948
-0.211478
-0.113931
-0.0369126
0.324303
0.47354
0.380231
0.507757
0.336187
0.482526
0.359413
0.365249
0.389982
0.287959
0.33163
-0.0151944
-0.317303
-0.213409
0.888837
0.973875
0.602285
0.335924
0.100864
0.426323
0.469661
0.400686
0.418533
0.502063
0.461627
-0.113962
-0.0155619
-0.0851157
-0.0204672
0.133489
0.0627958
0.0689379
0.0599792
0.0696305
)
;

boundaryField
{
    wall-4
    {
        type            calculated;
        value           nonuniform List<scalar> 
100
(
0.584382
0.266367
0.11762
0.60766
0.149761
-0.781414
0.528441
-0.131372
0.035
0.474989
-0.0152577
-0.014432
-1.19993
0.593403
-0.741411
0.433038
0.0261695
-0.122041
0.428035
0.520979
-0.100495
0.0758582
-0.0381031
0.132287
0.441891
-0.697973
-0.866429
0.553914
-0.26733
0.479942
0.442663
-0.257169
-0.0752334
0.0180645
0.0518796
0.392193
0.461686
0.485308
0.123899
0.0827811
0.026826
-0.0502544
-2.21438
-0.604927
0.585492
0.589903
-0.847331
0.46677
0.415923
0.0199572
0.0341744
0.211703
0.441892
0.499046
0.226321
0.556924
-0.116834
-0.0144958
0.0554471
0.195519
0.430334
0.455331
0.449645
-0.559503
-0.896427
0.574237
-0.412428
-0.201228
0.439728
0.451783
-0.462609
-0.00448854
0.00566332
0.0207915
0.380232
0.403554
0.459202
0.465958
0.0867332
-0.327431
0.594901
0.464534
0.471599
0.0360154
0.384266
0.0982383
0.31397
0.588889
-0.037919
0.104035
0.42265
0.458837
0.456732
0.578724
-0.0907307
0.349506
0.0687785
-0.194835
-0.0438856
-0.0430859
)
;
    }
    velocity-inlet-5
    {
        type            calculated;
        value           nonuniform List<scalar> 8(0.584382 0.60766 0.614303 0.611322 0.617507 0.623839 0.598569 0.630922);
    }
    velocity-inlet-6
    {
        type            calculated;
        value           nonuniform List<scalar> 4(0.266367 0.149761 0.166364 0.234231);
    }
    pressure-outlet-7
    {
        type            calculated;
        value           uniform 0;
    }
    wall-8
    {
        type            calculated;
        value           nonuniform List<scalar> 
34
(
-0.00251079
0.0220322
0.00897055
0.209223
0.255836
0.076269
0.0324109
0.712637
0.0291991
0.0160208
0.318377
0.494294
0.346101
0.200327
0.100499
0.0814337
-5.15826
0.0698527
0.0544348
0.725332
0.626531
-0.436232
0.423927
0.40439
0.605806
0.141078
-1.00552
0.0719263
0.740541
0.509554
0.417647
0.682722
0.116041
0.719105
)
;
    }
    frontAndBackPlanes
    {
        type            empty;
    }
}

