/*--------------------------------*- C++ -*----------------------------------*\
  =========                 |
  \\      /  F ield         | OpenFOAM: The Open Source CFD Toolbox
   \\    /   O peration     | Website:  https://openfoam.org
    \\  /    A nd           | Version:  6
     \\/     M anipulation  |
\*---------------------------------------------------------------------------*/
FoamFile
{
    version     2.0;
    format      ascii;
    class       volScalarField;
    location    "23327";
    object      nut;
}
// * * * * * * * * * * * * * * * * * * * * * * * * * * * * * * * * * * * * * //

dimensions      [0 2 -1 0 0 0 0];

internalField   nonuniform List<scalar> 
115600
(
8.15676e-10
2.33406e-10
2.03969e-10
1.94114e-10
1.84082e-10
1.70958e-10
1.5669e-10
1.42987e-10
1.31163e-10
1.20721e-10
1.11604e-10
1.0372e-10
9.69381e-11
9.11109e-11
8.60904e-11
8.17452e-11
7.79673e-11
7.46725e-11
7.17983e-11
6.92981e-11
6.71367e-11
6.52852e-11
6.37173e-11
6.2407e-11
6.13282e-11
6.04551e-11
5.97628e-11
5.92292e-11
5.88358e-11
5.85683e-11
5.84161e-11
5.83718e-11
5.84467e-11
5.86849e-11
5.90319e-11
5.94677e-11
5.99774e-11
6.05482e-11
6.11686e-11
6.18285e-11
6.25198e-11
6.32365e-11
6.39739e-11
6.47293e-11
6.55008e-11
6.62886e-11
6.70945e-11
6.79257e-11
6.87963e-11
6.97406e-11
7.08179e-11
7.22011e-11
7.42115e-11
7.83393e-11
9.0757e-11
1.64576e-10
5.20116e-08
2.85173e-08
2.52628e-08
2.39895e-08
2.25138e-08
2.05409e-08
1.83637e-08
1.62644e-08
1.44512e-08
1.28991e-08
1.15872e-08
1.04896e-08
9.57624e-09
8.8165e-09
8.18185e-09
7.64783e-09
7.19475e-09
6.80749e-09
6.47495e-09
6.18914e-09
5.94434e-09
5.73623e-09
5.56128e-09
5.41625e-09
5.29799e-09
5.20333e-09
5.12922e-09
5.07285e-09
5.03178e-09
5.0041e-09
4.9884e-09
4.9838e-09
4.99113e-09
5.01411e-09
5.04884e-09
5.09337e-09
5.14623e-09
5.20611e-09
5.27173e-09
5.34193e-09
5.41573e-09
5.49238e-09
5.57131e-09
5.65215e-09
5.7347e-09
5.81884e-09
5.90468e-09
5.99265e-09
6.08392e-09
6.18125e-09
6.29016e-09
6.42513e-09
6.61862e-09
6.99097e-09
8.04817e-09
1.19873e-08
2.70475e-07
2.63088e-07
2.64544e-07
2.61695e-07
2.52114e-07
2.36772e-07
2.18274e-07
1.98886e-07
1.80284e-07
1.63343e-07
1.48229e-07
1.34996e-07
1.23576e-07
1.1381e-07
1.05484e-07
9.83757e-08
9.22768e-08
8.70139e-08
8.24529e-08
7.84971e-08
7.50793e-08
7.21529e-08
6.96811e-08
6.76302e-08
6.59642e-08
6.46437e-08
6.36264e-08
6.28704e-08
6.23372e-08
6.1995e-08
6.18201e-08
6.17977e-08
6.19325e-08
6.22553e-08
6.27384e-08
6.33614e-08
6.41058e-08
6.49527e-08
6.58827e-08
6.68767e-08
6.79174e-08
6.89907e-08
7.00855e-08
7.11938e-08
7.23097e-08
7.34283e-08
7.45456e-08
7.56598e-08
7.67749e-08
7.79074e-08
7.91023e-08
8.04721e-08
8.23238e-08
8.55492e-08
9.40516e-08
1.15714e-07
5.4219e-07
6.57193e-07
7.07381e-07
7.18142e-07
7.05849e-07
6.79308e-07
6.44965e-07
6.07431e-07
5.6997e-07
5.34402e-07
5.01625e-07
4.7202e-07
4.45738e-07
4.22679e-07
4.02578e-07
3.85076e-07
3.69789e-07
3.56366e-07
3.44519e-07
3.34045e-07
3.24819e-07
3.16775e-07
3.0988e-07
3.04106e-07
2.99411e-07
2.95725e-07
2.92953e-07
2.90979e-07
2.89688e-07
2.88975e-07
2.88756e-07
2.88978e-07
2.89634e-07
2.90768e-07
2.92342e-07
2.94313e-07
2.9663e-07
2.99234e-07
3.02059e-07
3.05036e-07
3.08103e-07
3.11206e-07
3.14304e-07
3.17366e-07
3.20367e-07
3.23286e-07
3.26097e-07
3.28778e-07
3.3131e-07
3.3369e-07
3.35963e-07
3.38271e-07
3.41095e-07
3.45727e-07
3.58339e-07
3.89398e-07
7.50071e-07
1.01452e-06
1.15526e-06
1.21016e-06
1.21603e-06
1.19341e-06
1.15448e-06
1.10705e-06
1.05655e-06
1.00646e-06
9.58876e-07
9.14924e-07
8.75231e-07
8.39953e-07
8.08918e-07
7.81747e-07
7.57953e-07
7.37042e-07
7.18587e-07
7.02271e-07
6.87894e-07
6.75358e-07
6.64619e-07
6.55653e-07
6.48411e-07
6.428e-07
6.38677e-07
6.35863e-07
6.34162e-07
6.33395e-07
6.33417e-07
6.34129e-07
6.35499e-07
6.37554e-07
6.40263e-07
6.43577e-07
6.47425e-07
6.51718e-07
6.5635e-07
6.61212e-07
6.66197e-07
6.71218e-07
6.76202e-07
6.81098e-07
6.85863e-07
6.90457e-07
6.94838e-07
6.98958e-07
7.02771e-07
7.06247e-07
7.09404e-07
7.12382e-07
7.15663e-07
7.20758e-07
7.34565e-07
7.71224e-07
8.93846e-07
1.25801e-06
1.49419e-06
1.61516e-06
1.66321e-06
1.66681e-06
1.64325e-06
1.60339e-06
1.55453e-06
1.50197e-06
1.44904e-06
1.39818e-06
1.35078e-06
1.30754e-06
1.2687e-06
1.2341e-06
1.2034e-06
1.17613e-06
1.15186e-06
1.13026e-06
1.11112e-06
1.09436e-06
1.07997e-06
1.06794e-06
1.05824e-06
1.05076e-06
1.04534e-06
1.04175e-06
1.03972e-06
1.03901e-06
1.03942e-06
1.04081e-06
1.04313e-06
1.04635e-06
1.05047e-06
1.05542e-06
1.06113e-06
1.06748e-06
1.07432e-06
1.08151e-06
1.08889e-06
1.09636e-06
1.10381e-06
1.11116e-06
1.11837e-06
1.12537e-06
1.1321e-06
1.13851e-06
1.14452e-06
1.15011e-06
1.15527e-06
1.16018e-06
1.16539e-06
1.1726e-06
1.18942e-06
1.23061e-06
1.00352e-06
1.38847e-06
1.69179e-06
1.87807e-06
1.97897e-06
2.02355e-06
2.03138e-06
2.01519e-06
1.98361e-06
1.94294e-06
1.89787e-06
1.85147e-06
1.80621e-06
1.76342e-06
1.7239e-06
1.68791e-06
1.65536e-06
1.62601e-06
1.59952e-06
1.57568e-06
1.55435e-06
1.53554e-06
1.5193e-06
1.50572e-06
1.49481e-06
1.4865e-06
1.48065e-06
1.477e-06
1.47528e-06
1.47519e-06
1.47653e-06
1.47911e-06
1.48286e-06
1.48772e-06
1.49369e-06
1.50071e-06
1.5087e-06
1.51752e-06
1.52701e-06
1.53699e-06
1.54727e-06
1.55773e-06
1.56823e-06
1.57869e-06
1.58903e-06
1.5992e-06
1.60912e-06
1.61872e-06
1.62792e-06
1.6367e-06
1.64508e-06
1.65325e-06
1.66187e-06
1.67269e-06
1.69383e-06
1.73793e-06
1.11134e-06
1.43567e-06
1.76179e-06
1.99681e-06
2.14867e-06
2.23927e-06
2.28683e-06
2.30431e-06
2.30085e-06
2.28327e-06
2.2568e-06
2.22536e-06
2.19181e-06
2.15824e-06
2.126e-06
2.09582e-06
2.06794e-06
2.04234e-06
2.0189e-06
1.9975e-06
1.97815e-06
1.96096e-06
1.94611e-06
1.93378e-06
1.9241e-06
1.91708e-06
1.91262e-06
1.91052e-06
1.9105e-06
1.9123e-06
1.91568e-06
1.92047e-06
1.92659e-06
1.93394e-06
1.94253e-06
1.95232e-06
1.96323e-06
1.97513e-06
1.98784e-06
2.00117e-06
2.01493e-06
2.02895e-06
2.0431e-06
2.05729e-06
2.07144e-06
2.08546e-06
2.09929e-06
2.11286e-06
2.12609e-06
2.13895e-06
2.1515e-06
2.16393e-06
2.177e-06
2.19232e-06
2.21815e-06
2.26397e-06
1.24454e-06
1.43679e-06
1.73308e-06
1.98906e-06
2.1808e-06
2.31513e-06
2.40467e-06
2.46051e-06
2.49128e-06
2.50374e-06
2.50328e-06
2.49422e-06
2.47972e-06
2.46248e-06
2.44435e-06
2.42645e-06
2.40936e-06
2.39329e-06
2.37828e-06
2.36437e-06
2.35165e-06
2.34037e-06
2.33079e-06
2.32324e-06
2.31795e-06
2.31505e-06
2.31453e-06
2.31626e-06
2.32001e-06
2.32555e-06
2.33266e-06
2.34119e-06
2.35105e-06
2.36216e-06
2.37451e-06
2.38811e-06
2.40288e-06
2.41871e-06
2.43544e-06
2.45285e-06
2.47078e-06
2.48904e-06
2.5075e-06
2.52606e-06
2.54463e-06
2.56314e-06
2.58152e-06
2.59969e-06
2.61758e-06
2.63518e-06
2.65254e-06
2.66985e-06
2.68791e-06
2.70802e-06
2.73826e-06
2.78506e-06
1.42074e-06
1.42976e-06
1.6434e-06
1.88254e-06
2.09372e-06
2.26273e-06
2.39148e-06
2.48634e-06
2.55391e-06
2.60011e-06
2.63006e-06
2.64813e-06
2.65778e-06
2.66207e-06
2.66322e-06
2.6627e-06
2.66137e-06
2.65966e-06
2.65778e-06
2.65586e-06
2.65411e-06
2.65283e-06
2.6524e-06
2.65323e-06
2.65567e-06
2.65997e-06
2.66623e-06
2.67439e-06
2.68431e-06
2.6958e-06
2.70867e-06
2.72281e-06
2.73815e-06
2.75459e-06
2.77217e-06
2.7909e-06
2.81076e-06
2.83163e-06
2.85338e-06
2.87582e-06
2.89878e-06
2.92208e-06
2.9456e-06
2.96924e-06
2.99291e-06
3.01654e-06
3.04006e-06
3.0634e-06
3.0865e-06
3.10933e-06
3.13195e-06
3.15452e-06
3.17778e-06
3.20269e-06
3.23682e-06
3.28417e-06
1.64904e-06
1.44763e-06
1.53772e-06
1.71655e-06
1.91587e-06
2.10146e-06
2.2604e-06
2.39052e-06
2.49415e-06
2.57508e-06
2.63754e-06
2.68554e-06
2.7227e-06
2.75214e-06
2.77631e-06
2.79694e-06
2.81514e-06
2.83155e-06
2.84652e-06
2.8603e-06
2.87315e-06
2.88543e-06
2.89759e-06
2.9101e-06
2.92341e-06
2.93787e-06
2.95369e-06
2.97089e-06
2.98944e-06
3.00918e-06
3.02998e-06
3.05175e-06
3.07445e-06
3.09799e-06
3.12244e-06
3.14784e-06
3.17418e-06
3.2014e-06
3.22937e-06
3.25794e-06
3.28695e-06
3.31625e-06
3.3457e-06
3.37522e-06
3.40473e-06
3.43417e-06
3.46346e-06
3.49255e-06
3.52138e-06
3.54989e-06
3.57814e-06
3.60623e-06
3.63482e-06
3.66444e-06
3.702e-06
3.74975e-06
1.93928e-06
1.51681e-06
1.46298e-06
1.54338e-06
1.69112e-06
1.86345e-06
2.03376e-06
2.18836e-06
2.32242e-06
2.43573e-06
2.53045e-06
2.60954e-06
2.6761e-06
2.73304e-06
2.7828e-06
2.82726e-06
2.86773e-06
2.90505e-06
2.9397e-06
2.97204e-06
3.00238e-06
3.03113e-06
3.05875e-06
3.08576e-06
3.11269e-06
3.13995e-06
3.16785e-06
3.19653e-06
3.22599e-06
3.25618e-06
3.28701e-06
3.3184e-06
3.35035e-06
3.38281e-06
3.41585e-06
3.44952e-06
3.48386e-06
3.51882e-06
3.55432e-06
3.59024e-06
3.62644e-06
3.66277e-06
3.69912e-06
3.73542e-06
3.7716e-06
3.8076e-06
3.84336e-06
3.87882e-06
3.91391e-06
3.94858e-06
3.98284e-06
4.01673e-06
4.05076e-06
4.08507e-06
4.12576e-06
4.17396e-06
2.31243e-06
1.66129e-06
1.46101e-06
1.42226e-06
1.48152e-06
1.60133e-06
1.75098e-06
1.90781e-06
2.05836e-06
2.19624e-06
2.31932e-06
2.42798e-06
2.52386e-06
2.60907e-06
2.68571e-06
2.75561e-06
2.82014e-06
2.88026e-06
2.93661e-06
2.98961e-06
3.03963e-06
3.08708e-06
3.13245e-06
3.17626e-06
3.21907e-06
3.26137e-06
3.30353e-06
3.34577e-06
3.3882e-06
3.43081e-06
3.47357e-06
3.51644e-06
3.55943e-06
3.60254e-06
3.64582e-06
3.68934e-06
3.73317e-06
3.7773e-06
3.82167e-06
3.8662e-06
3.91075e-06
3.95522e-06
3.9995e-06
4.04354e-06
4.08728e-06
4.13065e-06
4.17363e-06
4.21612e-06
4.25808e-06
4.29942e-06
4.34012e-06
4.38011e-06
4.41978e-06
4.45885e-06
4.50261e-06
4.55152e-06
2.80198e-06
1.91062e-06
1.56802e-06
1.40781e-06
1.35859e-06
1.39023e-06
1.47848e-06
1.60203e-06
1.74265e-06
1.88696e-06
2.02671e-06
2.15778e-06
2.27884e-06
2.39019e-06
2.49287e-06
2.58817e-06
2.67724e-06
2.761e-06
2.84011e-06
2.91502e-06
2.98614e-06
3.05385e-06
3.11861e-06
3.18095e-06
3.24141e-06
3.30051e-06
3.35869e-06
3.41623e-06
3.47332e-06
3.53001e-06
3.58634e-06
3.64229e-06
3.6979e-06
3.75321e-06
3.80824e-06
3.86309e-06
3.91782e-06
3.97246e-06
4.02699e-06
4.08134e-06
4.13541e-06
4.18911e-06
4.24237e-06
4.29511e-06
4.34731e-06
4.39891e-06
4.44986e-06
4.50011e-06
4.54956e-06
4.59812e-06
4.64573e-06
4.69223e-06
4.7378e-06
4.78183e-06
4.82881e-06
4.87884e-06
3.45783e-06
2.31533e-06
1.82967e-06
1.55133e-06
1.38987e-06
1.31513e-06
1.31011e-06
1.36071e-06
1.45196e-06
1.56923e-06
1.70005e-06
1.83523e-06
1.96894e-06
2.09809e-06
2.2214e-06
2.33869e-06
2.45023e-06
2.55647e-06
2.65781e-06
2.75459e-06
2.84711e-06
2.93567e-06
3.02065e-06
3.10251e-06
3.18174e-06
3.25885e-06
3.33429e-06
3.40841e-06
3.48143e-06
3.55351e-06
3.62468e-06
3.69501e-06
3.76452e-06
3.83328e-06
3.90135e-06
3.96878e-06
4.03566e-06
4.10201e-06
4.16786e-06
4.23314e-06
4.2978e-06
4.36176e-06
4.42496e-06
4.48735e-06
4.54888e-06
4.60952e-06
4.66922e-06
4.72791e-06
4.78551e-06
4.84188e-06
4.8969e-06
4.95032e-06
5.00215e-06
5.05147e-06
5.102e-06
5.15372e-06
4.38404e-06
2.97814e-06
2.33194e-06
1.92709e-06
1.64844e-06
1.45925e-06
1.34436e-06
1.29388e-06
1.29806e-06
1.34649e-06
1.42839e-06
1.5334e-06
1.65261e-06
1.7791e-06
1.90812e-06
2.03667e-06
2.16305e-06
2.28636e-06
2.40612e-06
2.5221e-06
2.63422e-06
2.74249e-06
2.84708e-06
2.94824e-06
3.04634e-06
3.14179e-06
3.23498e-06
3.32628e-06
3.41593e-06
3.50413e-06
3.59096e-06
3.67648e-06
3.76077e-06
3.84388e-06
3.9259e-06
4.00687e-06
4.08685e-06
4.16588e-06
4.24398e-06
4.32112e-06
4.39727e-06
4.47236e-06
4.54635e-06
4.61918e-06
4.69083e-06
4.76125e-06
4.8304e-06
4.8982e-06
4.96454e-06
5.02928e-06
5.09222e-06
5.15302e-06
5.21152e-06
5.26653e-06
5.32107e-06
5.37517e-06
5.73269e-06
4.05249e-06
3.208e-06
2.6498e-06
2.23648e-06
1.91911e-06
1.67897e-06
1.50778e-06
1.39881e-06
1.34493e-06
1.33839e-06
1.37115e-06
1.43518e-06
1.52286e-06
1.6274e-06
1.74314e-06
1.86568e-06
1.99177e-06
2.1191e-06
2.24606e-06
2.37155e-06
2.49484e-06
2.61551e-06
2.73339e-06
2.84848e-06
2.96094e-06
3.07101e-06
3.17892e-06
3.28488e-06
3.38905e-06
3.49154e-06
3.59241e-06
3.69171e-06
3.78949e-06
3.88583e-06
3.98079e-06
4.0744e-06
4.16667e-06
4.25762e-06
4.34724e-06
4.43549e-06
4.52233e-06
4.60771e-06
4.6916e-06
4.77395e-06
4.85474e-06
4.93389e-06
5.01133e-06
5.08693e-06
5.1605e-06
5.23181e-06
5.30042e-06
5.36598e-06
5.42713e-06
5.48625e-06
5.54352e-06
7.47806e-06
5.60012e-06
4.54248e-06
3.81096e-06
3.24878e-06
2.79185e-06
2.41488e-06
2.10791e-06
1.86602e-06
1.68515e-06
1.56045e-06
1.48617e-06
1.45601e-06
1.46362e-06
1.50278e-06
1.56762e-06
1.65268e-06
1.75307e-06
1.86454e-06
1.98357e-06
2.10735e-06
2.23369e-06
2.36099e-06
2.48811e-06
2.61431e-06
2.73917e-06
2.86246e-06
2.9841e-06
3.1041e-06
3.22245e-06
3.33917e-06
3.45425e-06
3.56769e-06
3.67948e-06
3.78966e-06
3.89824e-06
4.00526e-06
4.1107e-06
4.21452e-06
4.3167e-06
4.41719e-06
4.51597e-06
4.61298e-06
4.70817e-06
4.80151e-06
4.89294e-06
4.9824e-06
5.06979e-06
5.15496e-06
5.23768e-06
5.31768e-06
5.39441e-06
5.4674e-06
5.53511e-06
5.59941e-06
5.66067e-06
9.2233e-06
7.4067e-06
6.2206e-06
5.35101e-06
4.66147e-06
4.08264e-06
3.5842e-06
3.15198e-06
2.7799e-06
2.4655e-06
2.20733e-06
2.00341e-06
1.85068e-06
1.74514e-06
1.68214e-06
1.65684e-06
1.66439e-06
1.70005e-06
1.75927e-06
1.83772e-06
1.93138e-06
2.03666e-06
2.15045e-06
2.2702e-06
2.39388e-06
2.51998e-06
2.64738e-06
2.77531e-06
2.90321e-06
3.03067e-06
3.15741e-06
3.28318e-06
3.40781e-06
3.53114e-06
3.65307e-06
3.77353e-06
3.89247e-06
4.00984e-06
4.12554e-06
4.23948e-06
4.35157e-06
4.46174e-06
4.56994e-06
4.67611e-06
4.78017e-06
4.88206e-06
4.9817e-06
5.07896e-06
5.17366e-06
5.26555e-06
5.35429e-06
5.43926e-06
5.51986e-06
5.59446e-06
5.6645e-06
5.73054e-06
1.05506e-05
9.09173e-06
7.95316e-06
7.04662e-06
6.29628e-06
5.64803e-06
5.07463e-06
4.56044e-06
4.09715e-06
3.68102e-06
3.31096e-06
2.98713e-06
2.70982e-06
2.47884e-06
2.29312e-06
2.15074e-06
2.049e-06
1.98471e-06
1.95432e-06
1.95413e-06
1.98036e-06
2.02924e-06
2.09711e-06
2.18053e-06
2.27638e-06
2.38193e-06
2.49489e-06
2.61339e-06
2.73592e-06
2.8613e-06
2.98859e-06
3.11701e-06
3.24598e-06
3.375e-06
3.50367e-06
3.6317e-06
3.75883e-06
3.88487e-06
4.00963e-06
4.13293e-06
4.25455e-06
4.37434e-06
4.49218e-06
4.60797e-06
4.72159e-06
4.83294e-06
4.94189e-06
5.04828e-06
5.1519e-06
5.25246e-06
5.34953e-06
5.44247e-06
5.53056e-06
5.61214e-06
5.68829e-06
5.75977e-06
1.1376e-05
1.03991e-05
9.47053e-06
8.6485e-06
7.92573e-06
7.27768e-06
6.6889e-06
6.14813e-06
5.64782e-06
5.18348e-06
4.75296e-06
4.35576e-06
3.99247e-06
3.66422e-06
3.3723e-06
3.11775e-06
2.90117e-06
2.72247e-06
2.58085e-06
2.47485e-06
2.4024e-06
2.36099e-06
2.34778e-06
2.35974e-06
2.39377e-06
2.44682e-06
2.51601e-06
2.59867e-06
2.6924e-06
2.79511e-06
2.90497e-06
3.02044e-06
3.14021e-06
3.26317e-06
3.3884e-06
3.51514e-06
3.64275e-06
3.77072e-06
3.8986e-06
4.02605e-06
4.15265e-06
4.27808e-06
4.40207e-06
4.52439e-06
4.64486e-06
4.76328e-06
4.87945e-06
4.99314e-06
5.10408e-06
5.21192e-06
5.31618e-06
5.41615e-06
5.51104e-06
5.5992e-06
5.6815e-06
5.75881e-06
1.18298e-05
1.12869e-05
1.06427e-05
9.99439e-06
9.37757e-06
8.7959e-06
8.24856e-06
7.73247e-06
7.24416e-06
6.7808e-06
6.34046e-06
5.92219e-06
5.52586e-06
5.15204e-06
4.80186e-06
4.47681e-06
4.17857e-06
3.90883e-06
3.66908e-06
3.46042e-06
3.28346e-06
3.13818e-06
3.02395e-06
2.93959e-06
2.88342e-06
2.85343e-06
2.84733e-06
2.86276e-06
2.89728e-06
2.94853e-06
3.01424e-06
3.09229e-06
3.18072e-06
3.27775e-06
3.38183e-06
3.49155e-06
3.60573e-06
3.72332e-06
3.84342e-06
3.96529e-06
4.08829e-06
4.21175e-06
4.33517e-06
4.4581e-06
4.58015e-06
4.70097e-06
4.82022e-06
4.93756e-06
5.05261e-06
5.16491e-06
5.27393e-06
5.37888e-06
5.47894e-06
5.5725e-06
5.6603e-06
5.74327e-06
1.20641e-05
1.18382e-05
1.14685e-05
1.1029e-05
1.05657e-05
1.00983e-05
9.6368e-06
9.18631e-06
8.74848e-06
8.32362e-06
7.9115e-06
7.51187e-06
7.12465e-06
6.7501e-06
6.38881e-06
6.04173e-06
5.71013e-06
5.39556e-06
5.09977e-06
4.82456e-06
4.57173e-06
4.34289e-06
4.13936e-06
3.96205e-06
3.81142e-06
3.68744e-06
3.58961e-06
3.51701e-06
3.4684e-06
3.44224e-06
3.43682e-06
3.4503e-06
3.48076e-06
3.52631e-06
3.58508e-06
3.6553e-06
3.7353e-06
3.82356e-06
3.91868e-06
4.01942e-06
4.12469e-06
4.2335e-06
4.34494e-06
4.45828e-06
4.57281e-06
4.68791e-06
4.803e-06
4.91753e-06
5.03095e-06
5.14267e-06
5.25203e-06
5.35818e-06
5.46024e-06
5.55669e-06
5.64822e-06
5.73573e-06
1.21844e-05
1.21638e-05
1.20147e-05
1.17736e-05
1.14768e-05
1.11465e-05
1.07977e-05
1.04402e-05
1.00798e-05
9.71985e-06
9.36234e-06
9.00834e-06
8.65859e-06
8.31362e-06
7.97404e-06
7.64051e-06
7.31392e-06
6.99531e-06
6.68596e-06
6.38732e-06
6.10101e-06
5.82873e-06
5.57223e-06
5.33319e-06
5.11318e-06
4.91352e-06
4.73531e-06
4.57927e-06
4.4458e-06
4.33493e-06
4.24633e-06
4.17935e-06
4.13307e-06
4.10632e-06
4.09775e-06
4.10588e-06
4.12918e-06
4.16609e-06
4.21507e-06
4.27464e-06
4.34337e-06
4.41997e-06
4.50313e-06
4.5919e-06
4.68524e-06
4.78219e-06
4.88186e-06
4.98344e-06
5.08614e-06
5.18915e-06
5.29165e-06
5.39269e-06
5.49136e-06
5.58621e-06
5.67796e-06
5.76738e-06
1.22499e-05
1.2354e-05
1.23634e-05
1.22861e-05
1.21425e-05
1.19501e-05
1.17224e-05
1.14706e-05
1.12025e-05
1.09235e-05
1.06372e-05
1.0346e-05
1.00517e-05
9.75532e-06
9.45793e-06
9.16032e-06
8.86327e-06
8.56762e-06
8.27431e-06
7.98438e-06
7.69902e-06
7.41954e-06
7.14737e-06
6.88401e-06
6.63105e-06
6.39007e-06
6.16262e-06
5.95016e-06
5.75401e-06
5.57531e-06
5.41496e-06
5.27358e-06
5.15153e-06
5.04885e-06
4.96529e-06
4.90035e-06
4.85329e-06
4.82321e-06
4.80904e-06
4.8096e-06
4.82367e-06
4.84996e-06
4.88713e-06
4.93409e-06
4.98973e-06
5.05293e-06
5.1226e-06
5.19768e-06
5.27717e-06
5.36008e-06
5.44543e-06
5.53216e-06
5.61933e-06
5.70559e-06
5.79174e-06
5.87834e-06
1.22901e-05
1.24687e-05
1.25848e-05
1.26308e-05
1.26141e-05
1.25446e-05
1.24319e-05
1.22858e-05
1.21139e-05
1.19221e-05
1.1715e-05
1.14957e-05
1.12667e-05
1.10299e-05
1.07866e-05
1.05379e-05
1.02848e-05
1.00282e-05
9.76878e-06
9.50751e-06
9.24525e-06
8.98299e-06
8.7218e-06
8.46282e-06
8.20733e-06
7.95663e-06
7.71213e-06
7.47527e-06
7.24749e-06
7.03021e-06
6.82478e-06
6.63248e-06
6.45439e-06
6.29145e-06
6.14436e-06
6.01361e-06
5.89947e-06
5.80194e-06
5.72086e-06
5.65582e-06
5.60627e-06
5.57148e-06
5.55057e-06
5.54249e-06
5.54651e-06
5.56169e-06
5.58706e-06
5.62162e-06
5.66435e-06
5.71424e-06
5.77028e-06
5.83142e-06
5.89681e-06
5.96525e-06
6.03765e-06
6.11444e-06
1.23185e-05
1.25425e-05
1.27283e-05
1.28621e-05
1.2943e-05
1.29746e-05
1.29622e-05
1.29125e-05
1.28319e-05
1.27256e-05
1.25982e-05
1.24531e-05
1.22931e-05
1.21204e-05
1.19368e-05
1.17435e-05
1.15419e-05
1.13328e-05
1.11171e-05
1.08957e-05
1.06693e-05
1.04387e-05
1.02047e-05
9.96829e-06
9.73038e-06
9.49201e-06
9.25427e-06
9.01833e-06
8.78545e-06
8.55688e-06
8.33396e-06
8.11797e-06
7.91021e-06
7.71189e-06
7.52415e-06
7.348e-06
7.18432e-06
7.03384e-06
6.89711e-06
6.77455e-06
6.66634e-06
6.57252e-06
6.49295e-06
6.42705e-06
6.37447e-06
6.33485e-06
6.3077e-06
6.29243e-06
6.28837e-06
6.29477e-06
6.31088e-06
6.33591e-06
6.36928e-06
6.41013e-06
6.45961e-06
6.51818e-06
1.23408e-05
1.25942e-05
1.28254e-05
1.30196e-05
1.31723e-05
1.32824e-05
1.33519e-05
1.33846e-05
1.33848e-05
1.33567e-05
1.3304e-05
1.32301e-05
1.31375e-05
1.30287e-05
1.29055e-05
1.27694e-05
1.26217e-05
1.24636e-05
1.22959e-05
1.21196e-05
1.19353e-05
1.17438e-05
1.15459e-05
1.13423e-05
1.11337e-05
1.09209e-05
1.07049e-05
1.04865e-05
1.02667e-05
1.00466e-05
9.82719e-06
9.6097e-06
9.39524e-06
9.18498e-06
8.98009e-06
8.78167e-06
8.59082e-06
8.40855e-06
8.2358e-06
8.0734e-06
7.92211e-06
7.78252e-06
7.65516e-06
7.53994e-06
7.43688e-06
7.34624e-06
7.26816e-06
7.20263e-06
7.14955e-06
7.10873e-06
7.07992e-06
7.06283e-06
7.05743e-06
7.06338e-06
7.08227e-06
7.11491e-06
1.23593e-05
1.26329e-05
1.28941e-05
1.31295e-05
1.33332e-05
1.3502e-05
1.36356e-05
1.37352e-05
1.38033e-05
1.38427e-05
1.38564e-05
1.3847e-05
1.38168e-05
1.3768e-05
1.37025e-05
1.36216e-05
1.35269e-05
1.34194e-05
1.33002e-05
1.31701e-05
1.303e-05
1.28805e-05
1.27223e-05
1.25562e-05
1.23827e-05
1.22025e-05
1.20164e-05
1.18251e-05
1.16293e-05
1.14299e-05
1.12278e-05
1.10239e-05
1.0819e-05
1.06143e-05
1.04107e-05
1.02093e-05
1.0011e-05
9.81696e-06
9.62812e-06
9.44549e-06
9.27002e-06
9.10261e-06
8.9443e-06
8.79492e-06
8.65508e-06
8.52542e-06
8.40655e-06
8.29899e-06
8.20318e-06
8.1195e-06
8.04831e-06
7.98995e-06
7.945e-06
7.91381e-06
7.89852e-06
7.90067e-06
1.23746e-05
1.26627e-05
1.29441e-05
1.32075e-05
1.3447e-05
1.36585e-05
1.38403e-05
1.39921e-05
1.4115e-05
1.42105e-05
1.42805e-05
1.43271e-05
1.4352e-05
1.43571e-05
1.4344e-05
1.43142e-05
1.42688e-05
1.42092e-05
1.41362e-05
1.40508e-05
1.39539e-05
1.3846e-05
1.3728e-05
1.36004e-05
1.34638e-05
1.3319e-05
1.31664e-05
1.30066e-05
1.28404e-05
1.26684e-05
1.24913e-05
1.23098e-05
1.21247e-05
1.19368e-05
1.17469e-05
1.15559e-05
1.13647e-05
1.11742e-05
1.09853e-05
1.0799e-05
1.06162e-05
1.04379e-05
1.02652e-05
1.0098e-05
9.93729e-06
9.78376e-06
9.63831e-06
9.50175e-06
9.37491e-06
9.25859e-06
9.15363e-06
9.06088e-06
8.9815e-06
8.91647e-06
8.86844e-06
8.83995e-06
1.23868e-05
1.26852e-05
1.29805e-05
1.32627e-05
1.35268e-05
1.37685e-05
1.39856e-05
1.4177e-05
1.43425e-05
1.44829e-05
1.45991e-05
1.46924e-05
1.47642e-05
1.48159e-05
1.48488e-05
1.48642e-05
1.48632e-05
1.4847e-05
1.48164e-05
1.47724e-05
1.47157e-05
1.46472e-05
1.45674e-05
1.4477e-05
1.43766e-05
1.42669e-05
1.41482e-05
1.40212e-05
1.38864e-05
1.37444e-05
1.35959e-05
1.34412e-05
1.32812e-05
1.31164e-05
1.29475e-05
1.27753e-05
1.26004e-05
1.24236e-05
1.22457e-05
1.20675e-05
1.189e-05
1.17141e-05
1.15405e-05
1.13694e-05
1.12019e-05
1.10386e-05
1.08805e-05
1.07286e-05
1.05838e-05
1.04471e-05
1.03197e-05
1.02027e-05
1.00976e-05
1.00059e-05
9.93059e-06
9.87521e-06
1.23959e-05
1.27013e-05
1.30055e-05
1.33001e-05
1.35804e-05
1.38429e-05
1.4085e-05
1.43053e-05
1.4503e-05
1.4678e-05
1.48307e-05
1.49618e-05
1.50722e-05
1.51629e-05
1.52348e-05
1.52891e-05
1.53266e-05
1.53484e-05
1.53554e-05
1.53483e-05
1.5328e-05
1.52952e-05
1.52505e-05
1.51946e-05
1.5128e-05
1.50513e-05
1.49651e-05
1.48698e-05
1.47659e-05
1.46541e-05
1.45346e-05
1.44082e-05
1.42752e-05
1.41362e-05
1.39918e-05
1.38425e-05
1.3689e-05
1.35318e-05
1.33717e-05
1.32092e-05
1.30452e-05
1.28806e-05
1.27156e-05
1.25509e-05
1.23872e-05
1.22253e-05
1.2066e-05
1.19103e-05
1.17592e-05
1.16136e-05
1.14748e-05
1.1344e-05
1.12229e-05
1.11132e-05
1.1018e-05
1.09418e-05
1.24019e-05
1.2711e-05
1.30202e-05
1.33219e-05
1.36123e-05
1.38882e-05
1.41471e-05
1.43875e-05
1.46083e-05
1.48091e-05
1.49896e-05
1.51502e-05
1.52912e-05
1.54134e-05
1.55174e-05
1.56041e-05
1.56741e-05
1.57284e-05
1.57676e-05
1.57927e-05
1.58042e-05
1.58029e-05
1.57894e-05
1.57644e-05
1.57283e-05
1.56818e-05
1.56253e-05
1.55594e-05
1.54846e-05
1.54012e-05
1.53098e-05
1.52108e-05
1.51046e-05
1.49917e-05
1.48727e-05
1.47478e-05
1.46177e-05
1.44828e-05
1.43438e-05
1.4201e-05
1.40555e-05
1.39072e-05
1.37569e-05
1.36051e-05
1.34525e-05
1.32997e-05
1.31474e-05
1.29966e-05
1.28479e-05
1.27025e-05
1.25615e-05
1.2426e-05
1.22977e-05
1.21781e-05
1.20706e-05
1.19803e-05
1.24048e-05
1.27143e-05
1.30248e-05
1.33293e-05
1.36247e-05
1.39079e-05
1.41769e-05
1.44302e-05
1.46666e-05
1.48853e-05
1.50859e-05
1.52684e-05
1.54328e-05
1.55795e-05
1.5709e-05
1.58217e-05
1.59183e-05
1.59994e-05
1.60657e-05
1.61179e-05
1.61566e-05
1.61824e-05
1.6196e-05
1.61979e-05
1.61887e-05
1.6169e-05
1.61391e-05
1.60997e-05
1.60511e-05
1.59938e-05
1.59282e-05
1.58548e-05
1.57739e-05
1.5686e-05
1.55914e-05
1.54906e-05
1.5384e-05
1.5272e-05
1.5155e-05
1.50336e-05
1.49082e-05
1.4779e-05
1.46466e-05
1.45114e-05
1.43741e-05
1.42351e-05
1.40951e-05
1.39547e-05
1.38148e-05
1.3676e-05
1.35394e-05
1.34061e-05
1.32775e-05
1.3155e-05
1.30418e-05
1.29437e-05
1.24044e-05
1.27112e-05
1.30194e-05
1.33228e-05
1.36185e-05
1.3904e-05
1.41774e-05
1.44373e-05
1.46827e-05
1.49126e-05
1.51264e-05
1.5324e-05
1.55051e-05
1.56699e-05
1.58186e-05
1.59514e-05
1.60689e-05
1.61715e-05
1.62598e-05
1.63343e-05
1.63956e-05
1.64442e-05
1.64807e-05
1.65057e-05
1.65197e-05
1.65231e-05
1.65165e-05
1.65004e-05
1.64751e-05
1.6441e-05
1.63987e-05
1.63484e-05
1.62907e-05
1.62257e-05
1.6154e-05
1.60758e-05
1.59915e-05
1.59015e-05
1.58061e-05
1.57058e-05
1.56008e-05
1.54914e-05
1.5378e-05
1.52611e-05
1.51411e-05
1.50184e-05
1.48935e-05
1.47669e-05
1.46393e-05
1.45113e-05
1.43836e-05
1.42572e-05
1.41332e-05
1.4013e-05
1.38994e-05
1.37987e-05
1.24007e-05
1.27015e-05
1.30039e-05
1.33024e-05
1.35943e-05
1.38774e-05
1.41501e-05
1.44111e-05
1.46596e-05
1.48946e-05
1.51155e-05
1.5322e-05
1.55136e-05
1.56905e-05
1.58525e-05
1.59999e-05
1.6133e-05
1.6252e-05
1.63573e-05
1.64496e-05
1.65291e-05
1.65963e-05
1.66519e-05
1.66962e-05
1.67297e-05
1.6753e-05
1.67663e-05
1.67703e-05
1.67653e-05
1.67517e-05
1.67299e-05
1.67002e-05
1.66631e-05
1.66189e-05
1.65678e-05
1.65103e-05
1.64466e-05
1.63771e-05
1.6302e-05
1.62217e-05
1.61363e-05
1.60463e-05
1.59519e-05
1.58534e-05
1.57511e-05
1.56455e-05
1.55369e-05
1.54257e-05
1.53123e-05
1.51973e-05
1.50812e-05
1.49646e-05
1.48487e-05
1.47344e-05
1.46242e-05
1.45248e-05
1.23937e-05
1.26852e-05
1.29783e-05
1.32679e-05
1.35519e-05
1.38282e-05
1.40954e-05
1.43525e-05
1.45987e-05
1.48332e-05
1.50555e-05
1.52651e-05
1.54616e-05
1.5645e-05
1.58149e-05
1.59716e-05
1.61152e-05
1.62457e-05
1.63637e-05
1.64692e-05
1.65628e-05
1.66448e-05
1.67156e-05
1.67757e-05
1.68254e-05
1.68652e-05
1.68955e-05
1.69167e-05
1.69292e-05
1.69332e-05
1.69294e-05
1.69178e-05
1.6899e-05
1.68731e-05
1.68406e-05
1.68017e-05
1.67567e-05
1.67058e-05
1.66494e-05
1.65876e-05
1.65207e-05
1.64489e-05
1.63726e-05
1.62918e-05
1.6207e-05
1.61184e-05
1.60262e-05
1.59307e-05
1.58323e-05
1.57313e-05
1.5628e-05
1.5523e-05
1.54171e-05
1.5311e-05
1.52071e-05
1.51119e-05
1.23833e-05
1.26621e-05
1.29421e-05
1.3219e-05
1.34909e-05
1.3756e-05
1.40132e-05
1.42615e-05
1.45004e-05
1.47292e-05
1.49476e-05
1.51549e-05
1.53509e-05
1.55354e-05
1.57082e-05
1.58692e-05
1.60185e-05
1.6156e-05
1.62821e-05
1.63969e-05
1.65007e-05
1.65937e-05
1.66763e-05
1.67488e-05
1.68115e-05
1.68649e-05
1.69093e-05
1.69449e-05
1.69723e-05
1.69916e-05
1.70032e-05
1.70075e-05
1.70047e-05
1.69952e-05
1.69791e-05
1.69569e-05
1.69286e-05
1.68947e-05
1.68552e-05
1.68104e-05
1.67605e-05
1.67058e-05
1.66464e-05
1.65825e-05
1.65143e-05
1.6442e-05
1.63658e-05
1.62858e-05
1.62023e-05
1.61155e-05
1.60257e-05
1.59331e-05
1.58384e-05
1.57421e-05
1.56463e-05
1.55576e-05
1.23695e-05
1.26319e-05
1.2895e-05
1.31552e-05
1.34107e-05
1.36602e-05
1.39028e-05
1.41376e-05
1.43644e-05
1.45825e-05
1.47918e-05
1.49918e-05
1.51823e-05
1.53629e-05
1.55336e-05
1.56942e-05
1.58446e-05
1.59848e-05
1.61149e-05
1.62349e-05
1.63451e-05
1.64456e-05
1.65367e-05
1.66185e-05
1.66914e-05
1.67555e-05
1.68113e-05
1.6859e-05
1.68988e-05
1.69311e-05
1.69561e-05
1.69742e-05
1.69855e-05
1.69904e-05
1.69891e-05
1.69817e-05
1.69686e-05
1.695e-05
1.6926e-05
1.68968e-05
1.68627e-05
1.68237e-05
1.67801e-05
1.6732e-05
1.66795e-05
1.66228e-05
1.65619e-05
1.6497e-05
1.64282e-05
1.63556e-05
1.62794e-05
1.61996e-05
1.61168e-05
1.60314e-05
1.59453e-05
1.58647e-05
1.23519e-05
1.25941e-05
1.28363e-05
1.30755e-05
1.33103e-05
1.35398e-05
1.37631e-05
1.39798e-05
1.41896e-05
1.43924e-05
1.45878e-05
1.47756e-05
1.49557e-05
1.51279e-05
1.52918e-05
1.54475e-05
1.55947e-05
1.57333e-05
1.58635e-05
1.5985e-05
1.60981e-05
1.62027e-05
1.6299e-05
1.63872e-05
1.64674e-05
1.65398e-05
1.66045e-05
1.66619e-05
1.67121e-05
1.67554e-05
1.67919e-05
1.68219e-05
1.68457e-05
1.68633e-05
1.68752e-05
1.68813e-05
1.6882e-05
1.68774e-05
1.68677e-05
1.6853e-05
1.68335e-05
1.68093e-05
1.67806e-05
1.67474e-05
1.67099e-05
1.6668e-05
1.6622e-05
1.65718e-05
1.65174e-05
1.64589e-05
1.63964e-05
1.63298e-05
1.62596e-05
1.61861e-05
1.61109e-05
1.604e-05
1.23303e-05
1.25481e-05
1.2765e-05
1.29788e-05
1.31884e-05
1.33931e-05
1.35926e-05
1.37866e-05
1.3975e-05
1.41578e-05
1.43348e-05
1.45061e-05
1.46714e-05
1.48306e-05
1.49835e-05
1.513e-05
1.527e-05
1.54032e-05
1.55295e-05
1.5649e-05
1.57615e-05
1.58671e-05
1.59657e-05
1.60574e-05
1.61422e-05
1.62203e-05
1.62918e-05
1.63568e-05
1.64154e-05
1.64678e-05
1.65141e-05
1.65545e-05
1.65892e-05
1.66184e-05
1.66421e-05
1.66605e-05
1.66739e-05
1.66824e-05
1.6686e-05
1.66849e-05
1.66793e-05
1.66692e-05
1.66547e-05
1.66359e-05
1.66128e-05
1.65856e-05
1.65541e-05
1.65183e-05
1.64784e-05
1.64341e-05
1.63856e-05
1.63329e-05
1.6276e-05
1.62155e-05
1.61526e-05
1.60931e-05
1.23042e-05
1.24929e-05
1.26798e-05
1.28633e-05
1.3043e-05
1.32184e-05
1.33896e-05
1.35565e-05
1.37192e-05
1.38779e-05
1.40325e-05
1.41831e-05
1.43296e-05
1.4472e-05
1.461e-05
1.47436e-05
1.48726e-05
1.49967e-05
1.51159e-05
1.52299e-05
1.53387e-05
1.54422e-05
1.55402e-05
1.56327e-05
1.57198e-05
1.58013e-05
1.58773e-05
1.59478e-05
1.6013e-05
1.60728e-05
1.61274e-05
1.61769e-05
1.62213e-05
1.62607e-05
1.62954e-05
1.63253e-05
1.63505e-05
1.63713e-05
1.63877e-05
1.63997e-05
1.64075e-05
1.64111e-05
1.64105e-05
1.64059e-05
1.63972e-05
1.63845e-05
1.63676e-05
1.63466e-05
1.63214e-05
1.6292e-05
1.62582e-05
1.62201e-05
1.61779e-05
1.61317e-05
1.6083e-05
1.60368e-05
1.22729e-05
1.24271e-05
1.25788e-05
1.27272e-05
1.28722e-05
1.30139e-05
1.31526e-05
1.32885e-05
1.34218e-05
1.35527e-05
1.36814e-05
1.3808e-05
1.39324e-05
1.40547e-05
1.41746e-05
1.4292e-05
1.44068e-05
1.45188e-05
1.46277e-05
1.47333e-05
1.48355e-05
1.49341e-05
1.50289e-05
1.51198e-05
1.52066e-05
1.52894e-05
1.53679e-05
1.54422e-05
1.55122e-05
1.55779e-05
1.56394e-05
1.56967e-05
1.57497e-05
1.57985e-05
1.58432e-05
1.58839e-05
1.59205e-05
1.59532e-05
1.59819e-05
1.60068e-05
1.60279e-05
1.60452e-05
1.60588e-05
1.60685e-05
1.60745e-05
1.60767e-05
1.60751e-05
1.60695e-05
1.60599e-05
1.60462e-05
1.60284e-05
1.60064e-05
1.59804e-05
1.59506e-05
1.59182e-05
1.58876e-05
1.22353e-05
1.23491e-05
1.24602e-05
1.25684e-05
1.26744e-05
1.27786e-05
1.28813e-05
1.29831e-05
1.30841e-05
1.31847e-05
1.32851e-05
1.33853e-05
1.34852e-05
1.35849e-05
1.36843e-05
1.37831e-05
1.38813e-05
1.39785e-05
1.40747e-05
1.41695e-05
1.42626e-05
1.43539e-05
1.44432e-05
1.45302e-05
1.46148e-05
1.46967e-05
1.47759e-05
1.48522e-05
1.49256e-05
1.49958e-05
1.50629e-05
1.51269e-05
1.51876e-05
1.52451e-05
1.52993e-05
1.53502e-05
1.53978e-05
1.54422e-05
1.54834e-05
1.55213e-05
1.55559e-05
1.55873e-05
1.56154e-05
1.56401e-05
1.56616e-05
1.56796e-05
1.56942e-05
1.57052e-05
1.57125e-05
1.57161e-05
1.5716e-05
1.5712e-05
1.57045e-05
1.56935e-05
1.56803e-05
1.56683e-05