/*--------------------------------*- C++ -*----------------------------------*\
  =========                 |
  \\      /  F ield         | OpenFOAM: The Open Source CFD Toolbox
   \\    /   O peration     | Website:  https://openfoam.org
    \\  /    A nd           | Version:  6
     \\/     M anipulation  |
\*---------------------------------------------------------------------------*/
FoamFile
{
    version     2.0;
    format      ascii;
    class       volVectorField;
    location    "0";
    object      Usup;
}
// * * * * * * * * * * * * * * * * * * * * * * * * * * * * * * * * * * * * * //

dimensions      [0 1 -1 0 0 0 0];

internalField   nonuniform List<vector> 
10000
(
(0.00292168 0.00331372 0)
(0.0100971 0.00908646 0)
(0.0145576 0.0109728 0)
(0.0148988 0.0123649 0)
(0.0155302 0.0136125 0)
(0.016759 0.0147669 0)
(0.0183882 0.0158496 0)
(0.0201657 0.0168663 0)
(0.0218253 0.017779 0)
(0.023042 0.0185102 0)
(0.0234761 0.0189888 0)
(0.0228544 0.0191586 0)
(0.0210061 0.0189819 0)
(0.0178761 0.0184423 0)
(0.0134968 0.0175435 0)
(0.00853453 0.0163176 0)
(0.00344971 0.0133428 0)
(-0.00279791 0.0105887 0)
(-0.0099383 0.00885666 0)
(-0.0162434 0.00632155 0)
(-0.0215685 0.00370282 0)
(-0.0261723 0.000970159 0)
(-0.0298362 -0.00178166 0)
(-0.0325488 -0.0044618 0)
(-0.0342298 -0.0070124 0)
(-0.0348716 -0.009401 0)
(-0.0346145 -0.0115674 0)
(-0.0334627 -0.0134881 0)
(-0.0314387 -0.0152033 0)
(-0.0287581 -0.016695 0)
(-0.0255436 -0.0179047 0)
(-0.021778 -0.018865 0)
(-0.0176327 -0.0196015 0)
(-0.0133 -0.0200913 0)
(-0.00880377 -0.0203439 0)
(-0.00423787 -0.020401 0)
(0.000207223 -0.0202893 0)
(0.0044049 -0.0199933 0)
(0.00834678 -0.0195196 0)
(0.0120173 -0.0189263 0)
(0.0153026 -0.0182319 0)
(0.0181741 -0.0174225 0)
(0.0206803 -0.0165042 0)
(0.0228151 -0.0155042 0)
(0.0245512 -0.014457 0)
(0.0258771 -0.0133666 0)
(0.0268284 -0.0122266 0)
(0.0274539 -0.011063 0)
(0.0277547 -0.00990511 0)
(0.0277298 -0.00875523 0)
(0.0274384 -0.00761063 0)
(0.0269299 -0.00647747 0)
(0.0262069 -0.00536742 0)
(0.0252785 -0.00430249 0)
(0.0241694 -0.00329678 0)
(0.0229257 -0.00233897 0)
(0.0216201 -0.00142701 0)
(0.0203011 -0.000583658 0)
(0.0189585 0.000178476 0)
(0.0175564 0.000869562 0)
(0.0161023 0.00150666 0)
(0.0146252 0.00210132 0)
(0.0131497 0.00263078 0)
(0.0117481 0.00306717 0)
(0.0104705 0.00343374 0)
(0.0092697 0.00374745 0)
(0.00810002 0.00399356 0)
(0.00699248 0.00416723 0)
(0.00600533 0.00427572 0)
(0.00518205 0.0043413 0)
(0.00455738 0.00438192 0)
(0.00414695 0.00438749 0)
(0.00393081 0.00434097 0)
(0.00388084 0.00425135 0)
(0.00400781 0.00414553 0)
(0.00435405 0.004036 0)
(0.00493945 0.0039198 0)
(0.00573573 0.00380147 0)
(0.00668941 0.00369194 0)
(0.00775149 0.00359039 0)
(0.00888476 0.00349267 0)
(0.0100698 0.00341192 0)
(0.0113184 0.003366 0)
(0.0126482 0.00335568 0)
(0.0140358 0.00337452 0)
(0.0154307 0.00342511 0)
(0.0167923 0.00351221 0)
(0.0180697 0.00363235 0)
(0.0191588 0.00376896 0)
(0.0199111 0.00389526 0)
(0.0201826 0.00398312 0)
(0.0198632 0.00401174 0)
(0.018863 0.00396042 0)
(0.0171283 0.00377897 0)
(0.0146349 0.00342824 0)
(0.0114081 0.00293895 0)
(0.0076442 0.00232511 0)
(0.00382598 0.00161986 0)
(0.000769428 0.000816821 0)
(-0.00040162 1.38298e-05 0)
(0.00807306 0.0112706 0)
(0.022378 0.0253626 0)
(0.031399 0.0314519 0)
(0.0361146 0.0358822 0)
(0.0401702 0.0398088 0)
(0.0446014 0.0434425 0)
(0.0493793 0.0468477 0)
(0.0540543 0.0500322 0)
(0.0579772 0.0529041 0)
(0.0603945 0.0552615 0)
(0.0605728 0.0568877 0)
(0.0579296 0.0575854 0)
(0.0521254 0.0571992 0)
(0.0431129 0.0556612 0)
(0.0311495 0.0529792 0)
(0.0160115 0.0492631 0)
(0.00045207 0.0437039 0)
(-0.0146225 0.0355558 0)
(-0.0322587 0.0261183 0)
(-0.049543 0.0180213 0)
(-0.0640123 0.0110511 0)
(-0.0764357 0.00326755 0)
(-0.0862605 -0.00481184 0)
(-0.0934001 -0.0128223 0)
(-0.0977435 -0.0205206 0)
(-0.0992738 -0.0277356 0)
(-0.0982351 -0.0343608 0)
(-0.0947995 -0.0403086 0)
(-0.0891004 -0.0455482 0)
(-0.0814695 -0.0500897 0)
(-0.0722629 -0.0538821 0)
(-0.061674 -0.0569158 0)
(-0.0500365 -0.0592012 0)
(-0.0377593 -0.0607556 0)
(-0.0250866 -0.0616357 0)
(-0.0123123 -0.0618859 0)
(0.000202933 -0.0615547 0)
(0.0121724 -0.0606912 0)
(0.0234178 -0.0593296 0)
(0.0338299 -0.0575475 0)
(0.0432559 -0.0554005 0)
(0.0516238 -0.0529097 0)
(0.0589421 -0.0501269 0)
(0.0651631 -0.0470906 0)
(0.0702619 -0.0438537 0)
(0.0742646 -0.0404735 0)
(0.0772179 -0.0369884 0)
(0.0791803 -0.0334444 0)
(0.0802025 -0.0298882 0)
(0.0803452 -0.026339 0)
(0.0797263 -0.0228165 0)
(0.078441 -0.0193614 0)
(0.0765108 -0.0160054 0)
(0.073978 -0.0127701 0)
(0.0709508 -0.00968092 0)
(0.0675612 -0.00674923 0)
(0.0639309 -0.00398505 0)
(0.0601542 -0.00142421 0)
(0.0562692 0.00086434 0)
(0.052265 0.0028977 0)
(0.0481691 0.00475808 0)
(0.0440112 0.00646272 0)
(0.0398275 0.00810708 0)
(0.0358088 0.00953377 0)
(0.0320986 0.0105693 0)
(0.0286004 0.011419 0)
(0.0252327 0.0121355 0)
(0.0220831 0.0126493 0)
(0.0192994 0.0129858 0)
(0.0169945 0.0131788 0)
(0.0152163 0.0132577 0)
(0.0139681 0.013226 0)
(0.0132426 0.0130714 0)
(0.0130423 0.0128031 0)
(0.0133915 0.0124643 0)
(0.0143296 0.0120974 0)
(0.0158754 0.0117169 0)
(0.0179802 0.0113236 0)
(0.0205235 0.0109266 0)
(0.0233763 0.0105392 0)
(0.0264609 0.0101772 0)
(0.0297445 0.00987166 0)
(0.0332131 0.00965201 0)
(0.0368459 0.00952481 0)
(0.0405756 0.00949556 0)
(0.0442883 0.00958879 0)
(0.04785 0.00981926 0)
(0.0510761 0.0101718 0)
(0.0536791 0.010607 0)
(0.0553011 0.0110684 0)
(0.055609 0.0114772 0)
(0.0543392 0.0117379 0)
(0.0512553 0.0117561 0)
(0.0462281 0.0114714 0)
(0.0393342 0.0106775 0)
(0.0307895 0.00929668 0)
(0.0211394 0.0073764 0)
(0.0114556 0.00503064 0)
(0.00340317 0.00244449 0)
(-0.00053764 0.000117875 0)
(0.0093926 0.0164316 0)
(0.0268789 0.0361201 0)
(0.0405788 0.0476897 0)
(0.0505377 0.0562481 0)
(0.0590388 0.0635807 0)
(0.0671762 0.0702444 0)
(0.0750958 0.0764322 0)
(0.0822866 0.0821559 0)
(0.0878424 0.0872756 0)
(0.0906987 0.091505 0)
(0.0898645 0.0944834 0)
(0.0845832 0.0958537 0)
(0.074491 0.0953036 0)
(0.0596669 0.0926412 0)
(0.0406395 0.087752 0)
(0.0180696 0.0805749 0)
(-0.00784003 0.0717696 0)
(-0.0361581 0.0591276 0)
(-0.0623781 0.0465295 0)
(-0.0844067 0.0346186 0)
(-0.105723 0.0204398 0)
(-0.1255 0.00667483 0)
(-0.140816 -0.00715574 0)
(-0.151696 -0.0206519 0)
(-0.158088 -0.0335866 0)
(-0.160097 -0.0457125 0)
(-0.158078 -0.0568714 0)
(-0.152241 -0.0669785 0)
(-0.142906 -0.0759055 0)
(-0.130622 -0.0836223 0)
(-0.11582 -0.0901226 0)
(-0.0988106 -0.0953792 0)
(-0.080178 -0.0993823 0)
(-0.0605685 -0.102158 0)
(-0.0403464 -0.103789 0)
(-0.0199409 -0.104342 0)
(5.88336e-05 -0.103879 0)
(0.0192173 -0.102511 0)
(0.0372941 -0.100311 0)
(0.0540833 -0.097341 0)
(0.0693356 -0.0937107 0)
(0.082917 -0.0894925 0)
(0.0948333 -0.0847694 0)
(0.105046 -0.0796075 0)
(0.113473 -0.0740768 0)
(0.120115 -0.0682895 0)
(0.125068 -0.0623524 0)
(0.128445 -0.0563146 0)
(0.130325 -0.0502202 0)
(0.130796 -0.0441357 0)
(0.130001 -0.0381275 0)
(0.128082 -0.0322585 0)
(0.125132 -0.0265734 0)
(0.121243 -0.0210902 0)
(0.116546 -0.0158345 0)
(0.111225 -0.0108576 0)
(0.105469 -0.00620611 0)
(0.0993732 -0.00190605 0)
(0.0930229 0.00199387 0)
(0.0865468 0.00542875 0)
(0.0799956 0.00844243 0)
(0.0734867 0.0111401 0)
(0.0669619 0.0136214 0)
(0.0603427 0.0161197 0)
(0.054125 0.0181704 0)
(0.04849 0.0194229 0)
(0.0431154 0.0204177 0)
(0.0380673 0.0212731 0)
(0.0336095 0.0218359 0)
(0.0298882 0.0221363 0)
(0.0269853 0.0222126 0)
(0.0249166 0.0220901 0)
(0.0236666 0.0217859 0)
(0.0232494 0.0213185 0)
(0.0237236 0.0207279 0)
(0.0251358 0.0200625 0)
(0.0274656 0.0193475 0)
(0.0306201 0.0185868 0)
(0.0344557 0.0177964 0)
(0.0388197 0.017014 0)
(0.0435955 0.0162765 0)
(0.0487067 0.0156182 0)
(0.0540988 0.0150808 0)
(0.0597198 0.0147022 0)
(0.0654711 0.0145154 0)
(0.0711716 0.0145631 0)
(0.0765731 0.01488 0)
(0.0813587 0.015467 0)
(0.0850994 0.0162836 0)
(0.087271 0.0172467 0)
(0.0873618 0.0182197 0)
(0.0849747 0.0190158 0)
(0.0798649 0.0194612 0)
(0.0717889 0.0193702 0)
(0.0607702 0.0184515 0)
(0.0473598 0.0164435 0)
(0.0325387 0.0132768 0)
(0.0178778 0.00910292 0)
(0.00568411 0.00448528 0)
(-0.000667974 0.000545379 0)
(0.0102848 0.0172942 0)
(0.0298826 0.0422441 0)
(0.0469731 0.0597763 0)
(0.0613099 0.0733416 0)
(0.074001 0.0848049 0)
(0.0857767 0.0950571 0)
(0.0966517 0.104465 0)
(0.105959 0.113056 0)
(0.112581 0.120626 0)
(0.115216 0.126796 0)
(0.112688 0.131074 0)
(0.104154 0.132973 0)
(0.0892738 0.132079 0)
(0.0682269 0.128112 0)
(0.0416546 0.120934 0)
(0.010565 0.11047 0)
(-0.0239914 0.0970531 0)
(-0.0575386 0.0818263 0)
(-0.0895884 0.0657723 0)
(-0.123079 0.0477443 0)
(-0.152768 0.0282118 0)
(-0.176478 0.00896453 0)
(-0.195578 -0.0105163 0)
(-0.209031 -0.0294092 0)
(-0.216727 -0.0474029 0)
(-0.218672 -0.0642896 0)
(-0.215325 -0.0798392 0)
(-0.206993 -0.0939426 0)
(-0.194035 -0.106473 0)
(-0.177144 -0.117334 0)
(-0.15694 -0.126487 0)
(-0.133877 -0.133918 0)
(-0.108647 -0.139649 0)
(-0.0820676 -0.143693 0)
(-0.0547218 -0.146111 0)
(-0.0271781 -0.14702 0)
(-0.000143656 -0.146506 0)
(0.0258202 -0.144681 0)
(0.050381 -0.141673 0)
(0.07322 -0.137569 0)
(0.0940238 -0.132502 0)
(0.112643 -0.126579 0)
(0.129032 -0.119895 0)
(0.143115 -0.112581 0)
(0.154793 -0.104774 0)
(0.164053 -0.0965902 0)
(0.171029 -0.0881525 0)
(0.175887 -0.0795583 0)
(0.178707 -0.0708873 0)
(0.179586 -0.06224 0)
(0.178722 -0.0537196 0)
(0.17631 -0.0453985 0)
(0.172492 -0.0373223 0)
(0.167403 -0.0295419 0)
(0.161206 -0.0221185 0)
(0.154108 -0.0151097 0)
(0.146357 -0.00856577 0)
(0.138129 -0.00252321 0)
(0.12948 0.00301481 0)
(0.120536 0.00798952 0)
(0.111545 0.0123206 0)
(0.102659 0.0160165 0)
(0.0941159 0.0191834 0)
(0.0856231 0.0221387 0)
(0.076803 0.0252441 0)
(0.0685994 0.0275598 0)
(0.0614316 0.028703 0)
(0.0547463 0.0296595 0)
(0.0486722 0.0304725 0)
(0.0435821 0.0308779 0)
(0.0395755 0.0309432 0)
(0.0366698 0.0307124 0)
(0.0348644 0.0302357 0)
(0.0341885 0.0295567 0)
(0.0347021 0.0287053 0)
(0.0364349 0.0277083 0)
(0.0393464 0.0266003 0)
(0.0433328 0.0254158 0)
(0.0482372 0.0241858 0)
(0.0538708 0.022949 0)
(0.0600744 0.0217553 0)
(0.0667509 0.020664 0)
(0.0738282 0.0197441 0)
(0.0812083 0.0190571 0)
(0.0887346 0.0186565 0)
(0.0961712 0.0186115 0)
(0.103192 0.0190007 0)
(0.109354 0.0198581 0)
(0.114069 0.0211363 0)
(0.116645 0.0227134 0)
(0.116419 0.0244063 0)
(0.112908 0.0259565 0)
(0.105761 0.0270457 0)
(0.0947082 0.0272234 0)
(0.0798463 0.0262726 0)
(0.0618548 0.0238161 0)
(0.0421019 0.0196321 0)
(0.0228211 0.0138433 0)
(0.00709716 0.00724105 0)
(-0.00102143 0.00141602 0)
(0.0111462 0.0181623 0)
(0.0326408 0.0471088 0)
(0.0524081 0.069718 0)
(0.0702206 0.0880825 0)
(0.0865161 0.103783 0)
(0.101558 0.117776 0)
(0.115035 0.130496 0)
(0.126013 0.141976 0)
(0.133139 0.151937 0)
(0.134907 0.159892 0)
(0.130025 0.165233 0)
(0.117662 0.167375 0)
(0.0975946 0.165864 0)
(0.0702406 0.1604 0)
(0.0365405 0.150988 0)
(-0.00205254 0.137853 0)
(-0.0437455 0.121509 0)
(-0.0865516 0.103013 0)
(-0.127716 0.0804149 0)
(-0.165023 0.0562521 0)
(-0.198456 0.031967 0)
(-0.227748 0.00638949 0)
(-0.250618 -0.0176506 0)
(-0.26603 -0.0411556 0)
(-0.274402 -0.0635858 0)
(-0.275855 -0.0846505 0)
(-0.270862 -0.104111 0)
(-0.259808 -0.121793 0)
(-0.243157 -0.13754 0)
(-0.221725 -0.151227 0)
(-0.196233 -0.162804 0)
(-0.16728 -0.172221 0)
(-0.135729 -0.179501 0)
(-0.102523 -0.1847 0)
(-0.068385 -0.187865 0)
(-0.0340262 -0.189099 0)
(-0.000275565 -0.188533 0)
(0.032169 -0.186287 0)
(0.0629049 -0.182521 0)
(0.0915628 -0.177355 0)
(0.117741 -0.170904 0)
(0.141242 -0.16333 0)
(0.161981 -0.154787 0)
(0.179828 -0.145416 0)
(0.194689 -0.1354 0)
(0.20657 -0.124889 0)
(0.215597 -0.114015 0)
(0.221955 -0.102918 0)
(0.225758 -0.0917413 0)
(0.227119 -0.0806014 0)
(0.226268 -0.0696025 0)
(0.223469 -0.0588499 0)
(0.218903 -0.0484246 0)
(0.212716 -0.0383931 0)
(0.205107 -0.0288379 0)
(0.196351 -0.0198363 0)
(0.186737 -0.0114377 0)
(0.176479 -0.00367257 0)
(0.1657 0.00344605 0)
(0.154503 0.00992002 0)
(0.143062 0.0156777 0)
(0.131738 0.0206159 0)
(0.120844 0.024708 0)
(0.110622 0.0280382 0)
(0.100364 0.0311676 0)
(0.0895517 0.0345753 0)
(0.0798285 0.0367264 0)
(0.0717342 0.0376076 0)
(0.0643354 0.0385162 0)
(0.0578534 0.0390481 0)
(0.0527213 0.0391041 0)
(0.0489678 0.0387852 0)
(0.0465937 0.0381539 0)
(0.0455998 0.0372523 0)
(0.0460304 0.0361132 0)
(0.0479312 0.0347688 0)
(0.05127 0.0332624 0)
(0.0559128 0.0316392 0)
(0.0616662 0.0299372 0)
(0.0683335 0.0282084 0)
(0.0757526 0.0265317 0)
(0.0838009 0.0249929 0)
(0.0923595 0.0236689 0)
(0.101286 0.022634 0)
(0.1104 0.0219834 0)
(0.119436 0.021839 0)
(0.127981 0.0223131 0)
(0.135442 0.0234472 0)
(0.141068 0.0251882 0)
(0.144031 0.0274026 0)
(0.143525 0.029871 0)
(0.138898 0.0322281 0)
(0.12965 0.0340373 0)
(0.115646 0.0347106 0)
(0.0970785 0.0338215 0)
(0.0746844 0.0309578 0)
(0.0502208 0.0258941 0)
(0.0265765 0.0187514 0)
(0.00773179 0.0103817 0)
(-0.00160223 0.00256121 0)
(0.0120091 0.0193144 0)
(0.0353639 0.0515915 0)
(0.0574939 0.0783184 0)
(0.0781947 0.100873 0)
(0.0975312 0.120489 0)
(0.115351 0.138009 0)
(0.130964 0.153834 0)
(0.143104 0.167955 0)
(0.150145 0.179996 0)
(0.150396 0.189357 0)
(0.142507 0.195347 0)
(0.125727 0.19729 0)
(0.100003 0.194713 0)
(0.0660552 0.187329 0)
(0.0252301 0.175166 0)
(-0.0206966 0.1586 0)
(-0.069529 0.138165 0)
(-0.11889 0.114654 0)
(-0.166383 0.0889379 0)
(-0.211094 0.0611569 0)
(-0.251056 0.0309122 0)
(-0.282345 0.000106941 0)
(-0.305878 -0.0281944 0)
(-0.322696 -0.0560588 0)
(-0.331261 -0.0825536 0)
(-0.33181 -0.107312 0)
(-0.324912 -0.130118 0)
(-0.311006 -0.150811 0)
(-0.290595 -0.169247 0)
(-0.264617 -0.18527 0)
(-0.233933 -0.198823 0)
(-0.199258 -0.20987 0)
(-0.161597 -0.218409 0)
(-0.122008 -0.224508 0)
(-0.0813357 -0.228233 0)
(-0.0404483 -0.229673 0)
(-0.000275253 -0.228999 0)
(0.038403 -0.226344 0)
(0.0750893 -0.221839 0)
(0.109366 -0.21565 0)
(0.140761 -0.207926 0)
(0.168992 -0.198832 0)
(0.19396 -0.188571 0)
(0.215513 -0.177312 0)
(0.233514 -0.165232 0)
(0.247984 -0.15253 0)
(0.259073 -0.139396 0)
(0.266953 -0.125986 0)
(0.271757 -0.112454 0)
(0.273658 -0.0989561 0)
(0.272912 -0.0856189 0)
(0.269792 -0.0725616 0)
(0.264535 -0.0599024 0)
(0.257337 -0.0477442 0)
(0.248413 -0.0361776 0)
(0.238072 -0.0252753 0)
(0.226674 -0.0150903 0)
(0.214494 -0.00566323 0)
(0.201678 0.00297856 0)
(0.188346 0.0108248 0)
(0.174694 0.0178659 0)
(0.160973 0.0240779 0)
(0.147664 0.0293175 0)
(0.135114 0.0334914 0)
(0.123391 0.036707 0)
(0.111386 0.0398509 0)
(0.0990686 0.0433151 0)
(0.0887598 0.0451473 0)
(0.0802407 0.0456566 0)
(0.0725279 0.0463031 0)
(0.0662602 0.0463877 0)
(0.061642 0.0460017 0)
(0.0586295 0.0452241 0)
(0.0572293 0.0441003 0)
(0.0574914 0.0426876 0)
(0.0594476 0.0410236 0)
(0.0630503 0.0391327 0)
(0.0681583 0.0370601 0)
(0.0745778 0.0348798 0)
(0.0821088 0.0326776 0)
(0.0905686 0.0305365 0)
(0.0997979 0.0285391 0)
(0.109649 0.0267831 0)
(0.119969 0.0253895 0)
(0.130567 0.0245001 0)
(0.141129 0.0242619 0)
(0.151138 0.0247966 0)
(0.159869 0.0261637 0)
(0.166432 0.0283361 0)
(0.169846 0.0311829 0)
(0.169109 0.0344264 0)
(0.163446 0.037553 0)
(0.152251 0.040096 0)
(0.13529 0.0414336 0)
(0.112921 0.0407574 0)
(0.0861771 0.0376144 0)
(0.0571574 0.031778 0)
(0.0293811 0.0234342 0)
(0.00774247 0.01349 0)
(-0.00237487 0.00374825 0)
(0.0128739 0.0205246 0)
(0.0380667 0.0556719 0)
(0.0624016 0.085716 0)
(0.0856313 0.111721 0)
(0.107557 0.134669 0)
(0.127676 0.155248 0)
(0.144926 0.173756 0)
(0.157666 0.190087 0)
(0.163985 0.203738 0)
(0.162053 0.213993 0)
(0.150491 0.220088 0)
(0.128683 0.221298 0)
(0.0968356 0.217126 0)
(0.0559655 0.207384 0)
(0.00783789 0.192139 0)
(-0.0453688 0.171841 0)
(-0.10118 0.147188 0)
(-0.156962 0.119008 0)
(-0.21027 0.0881355 0)
(-0.259801 0.0551349 0)
(-0.303438 0.0207672 0)
(-0.337153 -0.0113913 0)
(-0.362393 -0.0437377 0)
(-0.380068 -0.0755366 0)
(-0.388036 -0.105303 0)
(-0.387064 -0.132905 0)
(-0.377812 -0.158242 0)
(-0.360768 -0.181164 0)
(-0.336468 -0.20155 0)
(-0.305923 -0.21926 0)
(-0.270106 -0.234208 0)
(-0.229826 -0.24636 0)
(-0.186218 -0.25571 0)
(-0.140473 -0.262333 0)
(-0.0935193 -0.266344 0)
(-0.0463512 -0.267819 0)
(-1.84064e-05 -0.266895 0)
(0.0446592 -0.263761 0)
(0.0871041 -0.258547 0)
(0.126798 -0.251398 0)
(0.163235 -0.242517 0)
(0.196077 -0.232082 0)
(0.225163 -0.220279 0)
(0.250344 -0.207323 0)
(0.271461 -0.193426 0)
(0.28849 -0.178795 0)
(0.301599 -0.163642 0)
(0.311017 -0.148165 0)
(0.31688 -0.132537 0)
(0.319357 -0.116919 0)
(0.318754 -0.101465 0)
(0.315386 -0.0863286 0)
(0.309501 -0.0716529 0)
(0.301324 -0.0575648 0)
(0.291138 -0.0441643 0)
(0.279316 -0.0315208 0)
(0.266234 -0.0196908 0)
(0.252189 -0.00872754 0)
(0.237385 0.00133384 0)
(0.221995 0.0104784 0)
(0.206227 0.0186917 0)
(0.190359 0.0259588 0)
(0.174684 0.0323017 0)
(0.159742 0.0375086 0)
(0.145849 0.0415052 0)
(0.132813 0.0445 0)
(0.119479 0.0479835 0)
(0.10634 0.0510565 0)
(0.0959142 0.0519403 0)
(0.0874461 0.0521556 0)
(0.0800286 0.0524136 0)
(0.0744895 0.0520189 0)
(0.0707973 0.0511366 0)
(0.0689375 0.0498501 0)
(0.068945 0.0482066 0)
(0.0708233 0.0462413 0)
(0.0745295 0.0439908 0)
(0.0799509 0.0415172 0)
(0.086898 0.0389111 0)
(0.0951385 0.0362671 0)
(0.104457 0.033671 0)
(0.114692 0.0312206 0)
(0.125703 0.0290507 0)
(0.137327 0.0273236 0)
(0.149334 0.0262018 0)
(0.161358 0.0258425 0)
(0.172807 0.0263948 0)
(0.182849 0.0279632 0)
(0.190446 0.0305536 0)
(0.194431 0.0340394 0)
(0.193543 0.0381309 0)
(0.186898 0.0422402 0)
(0.173875 0.0453164 0)
(0.154031 0.047136 0)
(0.127808 0.0467256 0)
(0.0966493 0.0434272 0)
(0.0631114 0.0369463 0)
(0.0313907 0.0275519 0)
(0.0072511 0.0162447 0)
(-0.00330613 0.00480855 0)
(0.0137678 0.0215658 0)
(0.040784 0.0590806 0)
(0.0671817 0.0917352 0)
(0.0926704 0.120435 0)
(0.116828 0.146018 0)
(0.138818 0.169045 0)
(0.157202 0.189662 0)
(0.16996 0.207612 0)
(0.174891 0.22228 0)
(0.17007 0.232819 0)
(0.154156 0.238379 0)
(0.126707 0.238245 0)
(0.088266 0.231929 0)
(0.0402244 0.219331 0)
(-0.0152845 0.200666 0)
(-0.0756668 0.176479 0)
(-0.13812 0.147596 0)
(-0.199872 0.115007 0)
(-0.258514 0.0797086 0)
(-0.312918 0.0426439 0)
(-0.357835 0.00681758 0)
(-0.392254 -0.026614 0)
(-0.419728 -0.064395 0)
(-0.437257 -0.100032 0)
(-0.44379 -0.132047 0)
(-0.440881 -0.161395 0)
(-0.429056 -0.188301 0)
(-0.408748 -0.212614 0)
(-0.380522 -0.234154 0)
(-0.34543 -0.252795 0)
(-0.304545 -0.268436 0)
(-0.25879 -0.281052 0)
(-0.209416 -0.290675 0)
(-0.157751 -0.29738 0)
(-0.104796 -0.301295 0)
(-0.0515933 -0.302544 0)
(0.000665943 -0.301219 0)
(0.0510715 -0.297495 0)
(0.0990423 -0.291566 0)
(0.143976 -0.28356 0)
(0.185269 -0.27364 0)
(0.222576 -0.262026 0)
(0.255698 -0.248922 0)
(0.28441 -0.234542 0)
(0.308547 -0.219112 0)
(0.328113 -0.202875 0)
(0.343257 -0.186041 0)
(0.354195 -0.168815 0)
(0.361114 -0.151401 0)
(0.364226 -0.133982 0)
(0.363825 -0.116739 0)
(0.360232 -0.0998451 0)
(0.353751 -0.0834507 0)
(0.344665 -0.067693 0)
(0.333296 -0.0526931 0)
(0.320044 -0.038537 0)
(0.305337 -0.0252781 0)
(0.289518 -0.0129588 0)
(0.272821 -0.00162114 0)
(0.255432 0.00869856 0)
(0.237594 0.0179842 0)
(0.219639 0.026245 0)
(0.201894 0.0335012 0)
(0.184655 0.0397631 0)
(0.168449 0.0446797 0)
(0.15377 0.0482703 0)
(0.139517 0.0508431 0)
(0.124775 0.0544718 0)
(0.111777 0.0568701 0)
(0.102058 0.0566928 0)
(0.0940636 0.0568512 0)
(0.0874698 0.0565577 0)
(0.0830235 0.055646 0)
(0.0806182 0.0542593 0)
(0.0802538 0.0524337 0)
(0.0819424 0.0502205 0)
(0.0856465 0.0476878 0)
(0.0912547 0.0449006 0)
(0.0985738 0.0419304 0)
(0.107361 0.038876 0)
(0.117393 0.0358601 0)
(0.128511 0.0330155 0)
(0.140578 0.0304878 0)
(0.153413 0.0284446 0)
(0.166755 0.0270704 0)
(0.180206 0.0265571 0)
(0.193128 0.0270909 0)
(0.204575 0.0287965 0)
(0.213358 0.0316653 0)
(0.218136 0.0355213 0)
(0.2174 0.0400242 0)
(0.209587 0.0449756 0)
(0.194462 0.0491278 0)
(0.171903 0.0514671 0)
(0.141911 0.051367 0)
(0.106306 0.0480326 0)
(0.0682565 0.0410939 0)
(0.0327398 0.0308787 0)
(0.00634822 0.0184778 0)
(-0.0043751 0.00566307 0)
(0.0146978 0.0223331 0)
(0.0435281 0.0615803 0)
(0.0718475 0.0961344 0)
(0.0993552 0.126791 0)
(0.125441 0.154284 0)
(0.148903 0.179055 0)
(0.167891 0.201095 0)
(0.180047 0.219958 0)
(0.182912 0.234904 0)
(0.174464 0.244991 0)
(0.153498 0.249293 0)
(0.119822 0.247117 0)
(0.074331 0.23806 0)
(0.0188528 0.222119 0)
(-0.0440661 0.199683 0)
(-0.11147 0.171497 0)
(-0.180245 0.138574 0)
(-0.247371 0.102147 0)
(-0.310221 0.0635492 0)
(-0.365253 0.0239322 0)
(-0.409914 -0.0139829 0)
(-0.449725 -0.0558229 0)
(-0.480623 -0.0980203 0)
(-0.495157 -0.132137 0)
(-0.498533 -0.163183 0)
(-0.493157 -0.192564 0)
(-0.478553 -0.219938 0)
(-0.454812 -0.244769 0)
(-0.42253 -0.266638 0)
(-0.382859 -0.285375 0)
(-0.336956 -0.300932 0)
(-0.285865 -0.313302 0)
(-0.230938 -0.322565 0)
(-0.173584 -0.328846 0)
(-0.11491 -0.332246 0)
(-0.0560026 -0.332917 0)
(0.00191175 -0.331001 0)
(0.0577919 -0.326617 0)
(0.110995 -0.319931 0)
(0.160936 -0.311116 0)
(0.206932 -0.300323 0)
(0.248528 -0.287741 0)
(0.285514 -0.273588 0)
(0.317669 -0.258094 0)
(0.344772 -0.241481 0)
(0.366795 -0.223996 0)
(0.383934 -0.20586 0)
(0.396424 -0.187274 0)
(0.404431 -0.168461 0)
(0.408166 -0.149632 0)
(0.407966 -0.130991 0)
(0.40421 -0.112715 0)
(0.397213 -0.0949584 0)
(0.387267 -0.0778719 0)
(0.37475 -0.0615882 0)
(0.360142 -0.0461939 0)
(0.343908 -0.0317469 0)
(0.326397 -0.0183043 0)
(0.307866 -0.00591389 0)
(0.288554 0.00540148 0)
(0.268756 0.0156389 0)
(0.248829 0.024804 0)
(0.229106 0.0329058 0)
(0.209793 0.0399632 0)
(0.191253 0.0459133 0)
(0.173989 0.0502904 0)
(0.15893 0.0530115 0)
(0.144008 0.0552427 0)
(0.128347 0.0585227 0)
(0.116416 0.0603406 0)
(0.107883 0.059662 0)
(0.100515 0.0594645 0)
(0.0952213 0.0585623 0)
(0.0921927 0.0571176 0)
(0.0913702 0.0552001 0)
(0.0927811 0.052851 0)
(0.0963814 0.0501309 0)
(0.10204 0.0471027 0)
(0.109575 0.0438398 0)
(0.118771 0.040457 0)
(0.129411 0.0371071 0)
(0.14131 0.0339413 0)
(0.154319 0.0311002 0)
(0.168262 0.0287574 0)
(0.182882 0.0271386 0)
(0.197754 0.0264828 0)
(0.212165 0.0269957 0)
(0.225026 0.0287994 0)
(0.23495 0.0318779 0)
(0.240392 0.0360346 0)
(0.240041 0.0408652 0)
(0.232091 0.0458258 0)
(0.215121 0.0508766 0)
(0.189349 0.0540705 0)
(0.155507 0.054458 0)
(0.115393 0.0512438 0)
(0.0728154 0.0440696 0)
(0.0335899 0.0333067 0)
(0.00511333 0.0201105 0)
(-0.00556923 0.00627206 0)
(0.015634 0.0227767 0)
(0.0462551 0.0630144 0)
(0.0763873 0.0987046 0)
(0.105697 0.130568 0)
(0.133391 0.159219 0)
(0.157907 0.18495 0)
(0.176954 0.207608 0)
(0.18783 0.226575 0)
(0.18789 0.240936 0)
(0.175079 0.249692 0)
(0.148365 0.251911 0)
(0.107895 0.246935 0)
(0.05499 0.234481 0)
(-0.00806564 0.214702 0)
(-0.0782628 0.188169 0)
(-0.152236 0.155843 0)
(-0.226531 0.118966 0)
(-0.297871 0.0789963 0)
(-0.36374 0.0374926 0)
(-0.421431 -0.00441049 0)
(-0.47229 -0.0466008 0)
(-0.514295 -0.0971177 0)
(-0.536787 -0.136281 0)
(-0.545226 -0.165055 0)
(-0.548316 -0.195212 0)
(-0.542202 -0.224836 0)
(-0.525437 -0.252447 0)
(-0.498376 -0.277186 0)
(-0.461977 -0.298602 0)
(-0.41771 -0.31656 0)
(-0.366877 -0.331157 0)
(-0.310611 -0.342512 0)
(-0.250391 -0.350728 0)
(-0.187669 -0.355982 0)
(-0.12358 -0.358434 0)
(-0.0593162 -0.358206 0)
(0.00385578 -0.355442 0)
(0.0648991 -0.350282 0)
(0.123084 -0.342847 0)
(0.177735 -0.333287 0)
(0.228158 -0.321757 0)
(0.273871 -0.308439 0)
(0.314583 -0.29353 0)
(0.350019 -0.277256 0)
(0.379966 -0.259832 0)
(0.404407 -0.241488 0)
(0.423525 -0.222451 0)
(0.43753 -0.202945 0)
(0.446605 -0.183191 0)
(0.450993 -0.163398 0)
(0.451041 -0.143776 0)
(0.447144 -0.124534 0)
(0.439659 -0.105838 0)
(0.428925 -0.0878173 0)
(0.415361 -0.070591 0)
(0.399479 -0.0542709 0)
(0.381774 -0.0389441 0)
(0.362639 -0.0246659 0)
(0.342379 -0.0114611 0)
(0.321264 0.000656028 0)
(0.299603 0.0116625 0)
(0.277776 0.0215403 0)
(0.256161 0.0303012 0)
(0.235015 0.037979 0)
(0.214414 0.0446252 0)
(0.194864 0.0500178 0)
(0.176924 0.0537895 0)
(0.161328 0.0554158 0)
(0.146657 0.0581337 0)
(0.131893 0.0607954 0)
(0.120987 0.0607156 0)
(0.113478 0.060195 0)
(0.107305 0.059565 0)
(0.10362 0.0582441 0)
(0.102301 0.0563788 0)
(0.103342 0.0540238 0)
(0.106714 0.0512176 0)
(0.112302 0.0480401 0)
(0.119939 0.0445987 0)
(0.129434 0.0410157 0)
(0.140567 0.0374337 0)
(0.153131 0.0340073 0)
(0.166972 0.0308968 0)
(0.181949 0.0283042 0)
(0.197823 0.0264889 0)
(0.214131 0.0257179 0)
(0.230068 0.0262053 0)
(0.244425 0.0280861 0)
(0.255655 0.0313907 0)
(0.261998 0.0359916 0)
(0.261581 0.0415398 0)
(0.253203 0.0471192 0)
(0.235242 0.0521808 0)
(0.20671 0.0557374 0)
(0.168823 0.0563919 0)
(0.124084 0.0532626 0)
(0.0769448 0.0459606 0)
(0.0340461 0.0348495 0)
(0.00358278 0.0211217 0)
(-0.00688927 0.00661863 0)
(0.0165421 0.0228491 0)
(0.0488957 0.0632839 0)
(0.0807411 0.0992913 0)
(0.111642 0.131539 0)
(0.140593 0.160519 0)
(0.165672 0.186355 0)
(0.184174 0.208709 0)
(0.19304 0.226817 0)
(0.189493 0.239626 0)
(0.171561 0.246084 0)
(0.138447 0.245303 0)
(0.090684 0.236728 0)
(0.0300668 0.220222 0)
(-0.0406264 0.196118 0)
(-0.117924 0.165179 0)
(-0.198069 0.128531 0)
(-0.277307 0.0875564 0)
(-0.352148 0.0437702 0)
(-0.420129 -0.00121332 0)
(-0.478997 -0.0458045 0)
(-0.535221 -0.0889862 0)
(-0.574614 -0.129556 0)
(-0.585917 -0.159435 0)
(-0.593032 -0.190719 0)
(-0.598206 -0.225633 0)
(-0.590541 -0.257699 0)
(-0.570589 -0.285881 0)
(-0.539464 -0.309903 0)
(-0.498506 -0.329886 0)
(-0.44945 -0.346062 0)
(-0.393759 -0.358717 0)
(-0.332551 -0.368161 0)
(-0.267315 -0.374617 0)
(-0.199602 -0.378257 0)
(-0.130553 -0.379272 0)
(-0.0613335 -0.377815 0)
(0.00672291 -0.373999 0)
(0.0725088 -0.367936 0)
(0.135289 -0.359735 0)
(0.194367 -0.349513 0)
(0.248959 -0.337405 0)
(0.298512 -0.323578 0)
(0.342718 -0.308216 0)
(0.381302 -0.291503 0)
(0.414006 -0.273638 0)
(0.440768 -0.254849 0)
(0.461776 -0.235365 0)
(0.477266 -0.215393 0)
(0.487422 -0.195151 0)
(0.492475 -0.174863 0)
(0.492775 -0.154749 0)
(0.488764 -0.135003 0)
(0.480862 -0.115781 0)
(0.469434 -0.0972187 0)
(0.454904 -0.0794469 0)
(0.437817 -0.0625839 0)
(0.418727 -0.0467099 0)
(0.39808 -0.0318729 0)
(0.376206 -0.0181068 0)
(0.353382 -0.00544205 0)
(0.329933 0.00609282 0)
(0.306283 0.0164821 0)
(0.282849 0.0257314 0)
(0.259908 0.033855 0)
(0.237598 0.0408727 0)
(0.21603 0.0468837 0)
(0.195858 0.0515825 0)
(0.178642 0.0547684 0)
(0.162904 0.0558197 0)
(0.147209 0.0578453 0)
(0.134688 0.0600745 0)
(0.126137 0.0591448 0)
(0.11959 0.0587169 0)
(0.115054 0.0576203 0)
(0.113107 0.0558829 0)
(0.11366 0.0536216 0)
(0.116684 0.0508597 0)
(0.1221 0.0476804 0)
(0.129749 0.0442054 0)
(0.139425 0.040549 0)
(0.150916 0.0368344 0)
(0.164025 0.0332278 0)
(0.178614 0.0299308 0)
(0.194572 0.0271728 0)
(0.211668 0.0252166 0)
(0.229397 0.0243359 0)
(0.246874 0.0247656 0)
(0.262795 0.0266703 0)
(0.275481 0.0301109 0)
(0.282988 0.0349707 0)
(0.283206 0.0409433 0)
(0.274133 0.0473505 0)
(0.254298 0.052769 0)
(0.223109 0.0564416 0)
(0.181461 0.0572341 0)
(0.132244 0.054183 0)
(0.0806149 0.046834 0)
(0.0341023 0.0355313 0)
(0.00174781 0.0215127 0)
(-0.00834098 0.00670493 0)
(0.0174095 0.0224901 0)
(0.0513932 0.062275 0)
(0.0847955 0.0977233 0)
(0.117028 0.12946 0)
(0.146837 0.157846 0)
(0.17191 0.182821 0)
(0.189152 0.203841 0)
(0.195222 0.22 0)
(0.187261 0.230186 0)
(0.163453 0.233329 0)
(0.123336 0.228615 0)
(0.0678896 0.215652 0)
(-0.000593567 0.194509 0)
(-0.0788345 0.165729 0)
(-0.162925 0.130287 0)
(-0.248768 0.0894752 0)
(-0.332393 0.0448074 0)
(-0.410164 -0.00214599 0)
(-0.479355 -0.0497289 0)
(-0.537725 -0.0958571 0)
(-0.58688 -0.138602 0)
(-0.61762 -0.167356 0)
(-0.632483 -0.191843 0)
(-0.647146 -0.226999 0)
(-0.651672 -0.264558 0)
(-0.638901 -0.296376 0)
(-0.613561 -0.322682 0)
(-0.577155 -0.343933 0)
(-0.531162 -0.360733 0)
(-0.477245 -0.373699 0)
(-0.416825 -0.383304 0)
(-0.351027 -0.38992 0)
(-0.281258 -0.393853 0)
(-0.209008 -0.395314 0)
(-0.135468 -0.394467 0)
(-0.0618325 -0.391458 0)
(0.0105944 -0.386389 0)
(0.0807068 -0.379329 0)
(0.147697 -0.370346 0)
(0.210798 -0.359542 0)
(0.2692 -0.347029 0)
(0.322325 -0.33292 0)
(0.369817 -0.317369 0)
(0.411348 -0.300546 0)
(0.446635 -0.282641 0)
(0.475609 -0.263839 0)
(0.498455 -0.244339 0)
(0.515394 -0.224353 0)
(0.526588 -0.204105 0)
(0.532283 -0.18382 0)
(0.532871 -0.163689 0)
(0.528821 -0.143885 0)
(0.520571 -0.124572 0)
(0.508508 -0.105902 0)
(0.493092 -0.0880018 0)
(0.474913 -0.0709681 0)
(0.454566 -0.0548757 0)
(0.43252 -0.0397883 0)
(0.409126 -0.0257592 0)
(0.384693 -0.0128215 0)
(0.359571 -0.000990925 0)
(0.334207 0.00971989 0)
(0.309036 0.0192962 0)
(0.284358 0.0277351 0)
(0.260361 0.0350603 0)
(0.23725 0.0413367 0)
(0.215309 0.0466657 0)
(0.194976 0.0506456 0)
(0.178161 0.0522288 0)
(0.163713 0.0538443 0)
(0.149125 0.0561191 0)
(0.138378 0.0568372 0)
(0.131608 0.0558937 0)
(0.126337 0.0551016 0)
(0.123729 0.0536081 0)
(0.123769 0.0515655 0)
(0.126383 0.0490152 0)
(0.131541 0.0460096 0)
(0.13909 0.0426463 0)
(0.148821 0.0390364 0)
(0.16054 0.0353101 0)
(0.174094 0.0316488 0)
(0.189363 0.0282803 0)
(0.206237 0.0254455 0)
(0.224491 0.0233983 0)
(0.243603 0.0224186 0)
(0.262632 0.0227789 0)
(0.28017 0.0246835 0)
(0.294365 0.0282022 0)
(0.303079 0.0331731 0)
(0.303872 0.0393262 0)
(0.294433 0.0458656 0)
(0.273082 0.0517729 0)
(0.239155 0.0558453 0)
(0.193713 0.0569289 0)
(0.140006 0.0540541 0)
(0.0838842 0.0467599 0)
(0.0337869 0.0354185 0)
(-0.000371371 0.0213439 0)
(-0.00991234 0.00656813 0)
(0.018225 0.0216367 0)
(0.0536767 0.0598428 0)
(0.088401 0.0937935 0)
(0.121621 0.12406 0)
(0.151782 0.150841 0)
(0.176177 0.17388 0)
(0.191353 0.192443 0)
(0.19378 0.2055 0)
(0.180602 0.211923 0)
(0.150223 0.210702 0)
(0.102602 0.201161 0)
(0.0392335 0.1831 0)
(-0.0370688 0.156847 0)
(-0.122534 0.123196 0)
(-0.212847 0.0833731 0)
(-0.303612 0.0388604 0)
(-0.390688 -0.0086777 0)
(-0.470332 -0.0575725 0)
(-0.539456 -0.106171 0)
(-0.595424 -0.152425 0)
(-0.636077 -0.194297 0)
(-0.65878 -0.224667 0)
(-0.677734 -0.251109 0)
(-0.698779 -0.28451 0)
(-0.701025 -0.317104 0)
(-0.682026 -0.342896 0)
(-0.650913 -0.363265 0)
(-0.609169 -0.378973 0)
(-0.558296 -0.390678 0)
(-0.499924 -0.399005 0)
(-0.435303 -0.404475 0)
(-0.36543 -0.407465 0)
(-0.291685 -0.408247 0)
(-0.215538 -0.407032 0)
(-0.138128 -0.403974 0)
(-0.0606228 -0.399163 0)