/*--------------------------------*- C++ -*----------------------------------*\
  =========                 |
  \\      /  F ield         | OpenFOAM: The Open Source CFD Toolbox
   \\    /   O peration     | Website:  https://openfoam.org
    \\  /    A nd           | Version:  6
     \\/     M anipulation  |
\*---------------------------------------------------------------------------*/
FoamFile
{
    version     2.0;
    format      ascii;
    class       volVectorField;
    location    "0";
    object      U;
}
// * * * * * * * * * * * * * * * * * * * * * * * * * * * * * * * * * * * * * //

dimensions      [0 1 -1 0 0 0 0];

internalField   nonuniform List<vector> 
13046
(
(0.378067 0.170626 0)
(0.409238 -0.015361 3.63912e-21)
(0.206676 0.0352618 8.14383e-21)
(0.379936 0.123582 0)
(0.231182 0.0781672 7.32212e-21)
(0.35376 -0.0143228 0)
(0.398993 0.131832 -1.07066e-21)
(0.367712 -0.0351869 -1.86529e-21)
(0.217318 0.0860726 8.08786e-21)
(0.514253 0.241148 -3.95311e-21)
(0.627232 -0.234103 0)
(0.0399682 0.054779 -5.51229e-21)
(0.424311 0.180986 6.79455e-21)
(0.438783 -0.0592302 5.7749e-21)
(0.172364 0.051349 -4.50573e-21)
(0.491168 0.27603 -1.77703e-21)
(0.0483412 0.0299467 -8.82111e-21)
(0.65882 -0.18317 -2.97859e-21)
(0.28647 0.119715 0)
(0.290621 0.00435142 3.95668e-21)
(0.376312 0.0712514 -1.11504e-20)
(0.496734 0.269585 2.18544e-21)
(0.0454638 0.0360921 1.76637e-20)
(0.651636 -0.193955 -9.79154e-22)
(0.357475 0.135187 -4.49866e-21)
(0.369099 0.00561762 6.68971e-21)
(0.234574 0.0500149 0)
(0.423825 0.196585 -6.40089e-23)
(0.454103 -0.061842 -1.68827e-21)
(0.163587 0.040813 1.55668e-20)
(0.376904 0.182607 0)
(0.424226 -0.0121796 0)
(0.201557 0.0220848 -8.29086e-21)
(0.340931 0.121741 1.57363e-20)
(0.250322 0.0497673 -2.73725e-21)
(0.354567 0.022594 -1.03767e-20)
(0.33992 0.108987 3.64335e-23)
(0.261199 0.0618219 0)
(0.339628 0.02674 0)
(0.331334 0.198461 -5.84029e-21)
(0.247031 -0.043849 -7.57554e-21)
(0.453745 0.0274691 5.50941e-21)
(0.32646 0.0754215 -3.62485e-21)
(0.294472 0.0754528 3.69592e-21)
(0.307997 0.0474543 0)
(0.342153 0.0767273 -2.29169e-21)
(0.285544 0.0883906 0)
(0.302654 0.0327774 1.19512e-21)
(0.388513 0.165265 0)
(0.404748 -0.0280781 2.61844e-22)
(0.197153 0.046565 -6.04261e-24)
(0.311923 -0.11944 -9.54681e-21)
(0.294379 0.221403 0)
(0.50329 0.0548004 6.76966e-21)
(0.33898 -0.140412 1.35967e-20)
(0.512965 0.0654863 7.30627e-21)
(0.276451 0.216782 -9.18469e-21)
(0.608057 -0.086663 1.33357e-21)
(0.447847 0.298 0)
(0.125236 -0.0282179 -7.24585e-21)
(0.496446 0.166679 3.26565e-21)
(0.46893 -0.144088 -3.45913e-21)
(0.155154 0.112385 1.88893e-20)
(0.0726507 0.0617485 -1.00297e-20)
(0.599489 -0.194347 2.18903e-21)
(0.518659 0.235456 5.7811e-21)
(0.434431 0.301671 0)
(0.597459 -0.0672487 -6.23497e-21)
(0.145832 -0.0479552 -2.11725e-21)
(0.425161 0.295011 2.60784e-21)
(0.582399 -0.0569166 8.44948e-21)
(0.156052 -0.0504568 2.87882e-21)
(0.626766 -0.0962526 1.38565e-23)
(0.454695 0.303697 -7.04947e-23)
(0.114814 -0.0283548 3.73033e-24)
(0.294539 0.132521 0)
(0.280538 -0.00424083 -4.31221e-21)
(0.38944 0.0603144 7.94041e-21)
(0.0887891 -0.0059726 -8.05203e-21)
(0.469475 0.296965 8.32045e-21)
(0.639008 -0.125292 2.94302e-21)
(0.370242 0.137708 -2.36278e-21)
(0.369225 -0.00616849 2.39288e-21)
(0.224835 0.0606241 0)
(0.0639781 0.0585098 9.02763e-21)
(0.612652 -0.203681 0)
(0.520166 0.240304 -3.45202e-21)
(0.548261 0.192559 6.03261e-21)
(0.0945673 0.102176 0)
(0.559703 -0.227789 1.7047e-21)
(0.120388 0.143424 0)
(0.582061 0.149242 0)
(0.527588 -0.27103 -2.28888e-22)
(0.478731 0.222285 6.78764e-21)
(0.491964 0.22183 -9.47544e-21)
(0.530681 -0.125345 -6.72372e-21)
(0.541892 -0.14331 3.15497e-21)
(0.117748 0.0525822 4.11715e-21)
(0.10929 0.0620672 -1.05374e-20)
(0.106271 0.113038 5.05076e-22)
(0.553287 0.180932 -5.90131e-21)
(0.545803 -0.23248 0)
(0.354884 0.0882988 1.59959e-23)
(0.271519 0.0898087 0)
(0.312103 0.0173819 0)
(0.251281 0.180708 -1.63749e-20)
(0.479442 0.0882309 3.33578e-21)
(0.344594 -0.109482 0)
(0.298488 0.205331 -2.51601e-21)
(0.291515 -0.0880044 0)
(0.477203 0.0509589 1.27086e-20)
(0.475536 0.231051 0)
(0.02019 0.0443238 7.54939e-21)
(0.589697 -0.24923 2.38493e-21)
(0.408884 0.171072 -4.71421e-21)
(0.421156 -0.0451773 -2.44594e-21)
(0.183857 0.0547027 -8.11146e-21)
(0.481533 0.249242 -3.95401e-21)
(0.473565 0.238189 3.69152e-21)
(0.571908 -0.131349 -1.86757e-21)
(0.10085 0.0340455 -4.72812e-21)
(0.547046 -0.119457 1.8163e-21)
(0.112044 0.0376095 4.41759e-21)
(0.504943 0.244907 1.03727e-20)
(0.62944 -0.236549 3.36671e-21)
(0.0334785 0.0501493 2.47297e-21)
(0.452899 0.214962 0)
(0.496434 -0.0952082 4.45098e-21)
(0.137438 0.0417329 -2.38853e-20)
(0.347708 0.203584 0)
(0.228739 -0.032193 7.62363e-21)
(0.455027 0.0129802 -3.34405e-22)
(0.132637 0.151134 0)
(0.577201 0.144555 0)
(0.517608 -0.258943 0)
(0.51625 0.21454 0)
(0.557576 -0.177626 8.76817e-21)
(0.100284 0.0780965 1.06726e-20)
(0.391463 0.192179 0)
(0.440606 -0.0266539 0)
(0.189433 0.0182258 0)
(0.450777 0.134395 0)
(0.39167 -0.0889045 0)
(0.203582 0.118495 0)
(0.28779 0.205769 2.32821e-21)
(0.310548 -0.102713 0)
(0.485674 0.060143 -6.85394e-21)
(0.254255 0.172203 1.58689e-20)
(0.469461 0.0889746 7.12455e-21)
(0.341582 -0.0978397 -8.27582e-21)
(0.503059 0.175866 -7.87271e-21)
(0.488031 -0.154146 0)
(0.141884 0.10266 -2.46012e-20)
(0.244896 0.137138 0)
(0.433045 0.0998663 -1.53195e-20)
(0.337132 -0.0622796 -2.10875e-21)
(0.391501 -0.166064 -3.80802e-21)
(0.522479 0.0946848 -7.7542e-21)
(0.417959 -0.178874 0)
(0.528674 0.109257 -4.47729e-21)
(0.234185 0.196523 -7.96132e-21)
(0.212812 0.183324 7.64632e-21)
(0.466677 0.114555 -9.7977e-22)
(0.376296 -0.104986 -4.34631e-21)
(0.21891 0.14197 4.62992e-21)
(0.5261 0.23138 4.0556e-21)
(0.0447123 0.062333 -2.86331e-21)
(0.613955 -0.242728 4.21112e-21)
(0.486862 0.238586 3.10565e-21)
(0.0238705 0.0458135 1.13235e-21)
(0.611635 -0.244375 0)
(0.515245 0.223502 -7.34513e-23)
(0.570939 -0.17965 0)
(0.0909074 0.0702243 -1.28968e-20)
(0.366902 0.238955 0)
(0.497108 -0.00162912 -1.78181e-21)
(0.218995 -0.0555857 -4.48966e-21)
(0.459622 0.106285 -6.46738e-21)
(0.232108 0.15082 0)
(0.358981 -0.0922973 0)
(0.0578622 0.0793663 0)
(0.593235 -0.252487 0)
(0.544716 0.212282 -3.45437e-21)
(0.354331 0.227001 0)
(0.482476 0.0098668 3.83542e-21)
(0.229877 -0.0509619 -1.15691e-21)
(0.243293 0.146398 0)
(0.441551 0.0969406 0)
(0.335143 -0.0723383 0)
(0.437364 0.126674 -3.18908e-21)
(0.377014 -0.0761142 0)
(0.21093 0.11423 0)
(0.451864 -0.0834782 3.18897e-23)
(0.16064 0.0660493 5.51011e-21)
(0.445087 0.204185 -9.97133e-21)
(0.479272 -0.0845551 0)
(0.147974 0.0469688 2.46671e-20)
(0.539206 0.215316 6.9432e-21)
(0.0750394 0.0811232 -8.16253e-21)
(0.589501 -0.224353 8.25631e-21)
(0.127387 0.137486 -7.4406e-21)
(0.563237 0.158664 -3.61505e-21)
(0.523607 -0.240743 -8.55332e-21)
(0.569384 0.171453 1.03486e-20)
(0.548751 -0.255152 0)
(0.101239 0.121625 7.31765e-21)
(0.315489 -0.144675 3.92191e-21)
(0.532349 0.0441233 -3.06603e-21)
(0.306982 0.252774 -7.80664e-21)
(0.426038 0.151666 6.24533e-21)
(0.463442 0.304267 -4.20234e-21)
(0.0960947 -0.0148597 4.9573e-21)
(0.644315 -0.118224 -1.38412e-23)
(0.559082 -0.262078 0)
(0.566771 0.180143 3.13467e-21)
(0.0882463 0.110051 0)
(0.354895 0.104326 1.15962e-20)
(0.257133 0.0779359 0)
(0.330229 0.0128477 -3.92906e-21)
(0.413434 0.202787 0)
(0.456974 -0.0492832 2.43628e-22)
(0.172063 0.0298074 -4.59197e-21)
(0.134937 0.14754 -5.69518e-21)
(0.569612 0.149735 0)
(0.515725 -0.248435 9.85055e-21)
(0.439512 0.160711 0)
(0.440353 -0.0856843 -1.04795e-20)
(0.167578 0.0759503 0)
(0.0345568 0.0589426 0)
(0.598187 -0.257701 -3.61219e-21)
(0.517458 0.225167 0)
(0.290189 0.24252 8.44741e-21)
(0.532889 0.0534472 0)
(0.334609 -0.158136 0)
(0.562877 0.170586 -9.08436e-21)
(0.541477 -0.244157 0)
(0.108546 0.121959 8.57908e-24)
(0.496994 0.112976 -8.61339e-21)
(0.395354 -0.141711 -3.31158e-21)
(0.213136 0.162564 1.0652e-20)
(0.448644 0.225458 0)
(0.505045 -0.0893381 -4.1562e-21)
(0.136597 0.0317021 -2.48941e-21)
(0.474354 -0.242696 1.22863e-20)
(0.572001 0.117826 6.46953e-21)
(0.179463 0.185732 -4.48679e-21)
(0.54296 0.109354 0)
(0.433451 -0.198027 4.82687e-21)
(0.207017 0.187786 1.60626e-22)
(0.0338279 0.0610335 5.81104e-21)
(0.582307 -0.265507 0)
(0.519589 0.215285 3.7104e-21)
(0.325318 0.223828 -1.08938e-20)
(0.266829 -0.0806299 5.59474e-21)
(0.487602 0.0315259 5.60122e-22)
(0.436038 0.247732 -3.41342e-21)
(0.0134175 0.0324499 6.25916e-22)
(0.607159 -0.216082 0)
(0.269963 0.108623 -2.41193e-21)
(0.375912 0.0838637 9.0133e-21)
(0.30544 -0.00142351 -1.18445e-20)
(0.488969 0.135227 -3.51881e-21)
(0.486286 0.119914 -2.67392e-23)
(0.420076 -0.135174 8.08105e-21)
(0.396187 -0.129658 7.9375e-21)
(0.208334 0.15085 -8.44778e-21)
(0.187713 0.136058 4.3739e-21)
(0.0766991 0.00220875 1.05377e-20)
(0.473871 0.295039 -4.37485e-21)
(0.651483 -0.135771 0)
(0.435014 0.226677 0)
(0.498632 -0.0710962 0)
(0.14942 0.0208692 9.91908e-21)
(0.550818 0.119966 1.67942e-21)
(0.454949 -0.213353 0)
(0.190175 0.178969 0)
(0.498902 0.233782 -3.70341e-21)
(0.567628 -0.154254 0)
(0.0956602 0.0548175 -4.71433e-21)
(0.317258 0.0846032 -2.453e-21)
(0.320778 0.0533962 -3.56674e-21)
(0.290927 0.0631121 1.22634e-21)
(0.516774 0.119738 5.71634e-21)
(0.422356 -0.16715 0)
(0.20091 0.166652 7.37583e-21)
(0.433902 0.236944 0)
(0.511943 -0.069733 -5.1908e-21)
(0.146744 0.0105466 6.40176e-21)
(0.44152 0.175374 -1.02336e-20)
(0.454584 0.182151 8.23455e-21)
(0.326885 0.232506 8.59969e-21)
(0.268992 -0.0906063 -1.62243e-20)
(0.497541 0.0309257 1.23991e-20)
(0.521795 0.13161 5.93891e-21)
(0.443065 -0.17721 -7.04768e-21)
(0.182524 0.154356 -6.73067e-21)
(0.507561 0.233082 1.32078e-20)
(0.0890306 0.0606756 1.6595e-20)
(0.576873 -0.167945 4.36568e-21)
(0.301357 0.194774 3.77916e-21)
(0.284952 -0.0761551 0)
(0.465568 0.0520457 -4.2841e-21)
(0.241369 0.209661 8.625e-21)
(0.532233 0.0875687 4.46692e-21)
(0.388865 -0.177303 0)
(0.459074 0.259479 1.27245e-21)
(0.563255 -0.100356 4.58851e-21)
(0.116448 0.0104236 -2.9414e-21)
(0.309413 0.232288 -7.10852e-22)
(0.297817 -0.11367 0)
(0.507188 0.0454285 -9.3151e-21)
(0.467773 0.265788 0)
(0.476799 0.261613 0)
(0.581311 -0.111879 2.97666e-21)
(0.107061 0.0128848 7.65438e-21)
(0.585617 -0.126282 -4.21128e-21)
(0.0987998 0.0236985 -8.13708e-21)
(0.0602025 0.0749845 6.3547e-21)
(0.600631 -0.240527 0)
(0.539747 0.220009 4.57461e-21)
(0.461685 0.237912 0)
(0.533775 -0.105298 2.10911e-21)
(0.121392 0.0296535 -2.59694e-21)
(0.527535 -0.23528 -6.8108e-21)
(0.010171 0.0337176 -9.32456e-21)
(0.418633 0.214363 -8.89538e-21)
(0.413014 0.0869539 1.23276e-20)
(0.261159 0.133312 0)
(0.314633 -0.0379053 4.45005e-21)
(0.48013 0.163299 -7.91454e-21)
(0.451804 -0.125199 0)
(0.161878 0.105272 -1.4412e-20)
(0.0815281 0.078433 5.17363e-21)
(0.532676 0.216667 -1.25966e-20)
(0.58186 -0.209518 -6.20765e-21)
(0.34651 -0.1522 5.10967e-21)
(0.522421 0.0661154 0)
(0.272765 0.22564 1.04087e-20)
(0.489237 -0.245921 1.50158e-20)
(0.571629 0.129004 4.01077e-21)
(0.161944 0.170813 0)
(0.412572 -0.0664786 5.27966e-21)
(0.184698 0.0803375 0)
(0.479205 0.190272 -8.72735e-21)
(0.482854 -0.123214 -3.8261e-21)
(0.139977 0.0777113 -4.42662e-21)
(0.402888 -0.0730558 -1.87485e-22)
(0.189969 0.0908641 -4.87538e-23)
(0.491943 0.27525 9.92028e-21)
(0.0563659 0.0277635 -1.23898e-20)
(0.650535 -0.173281 4.3761e-21)
(0.305976 -0.15163 -5.10874e-21)
(0.544085 0.0347443 -9.8211e-22)
(0.320029 0.266059 0)
(0.489711 0.195955 8.8856e-21)
(0.502456 -0.136195 4.67169e-21)
(0.130638 0.0813579 1.08228e-20)
(0.460209 0.128671 0)
(0.388425 -0.100468 3.17544e-21)
(0.20585 0.128674 0)
(0.486003 0.0751207 4.2887e-21)
(0.331336 -0.11382 0)
(0.268166 0.193064 0)
(0.384245 0.15141 3.27478e-21)
(0.387652 -0.021297 5.78059e-21)
(0.209254 0.0561952 -2.29917e-23)
(0.257267 0.220379 -1.0704e-20)
(0.531123 0.077199 -1.0941e-20)
(0.37216 -0.169287 -1.38459e-20)
(0.550279 0.200035 5.57396e-21)
(0.575064 -0.236306 -7.03107e-21)
(0.0818432 0.0932307 -1.2251e-22)
(0.495844 -0.237961 -1.0151e-20)
(0.565512 0.137911 -4.06464e-21)
(0.153763 0.160374 -5.66507e-21)
(0.402175 0.288789 8.00644e-21)
(0.189492 -0.0688484 -4.29094e-21)
(0.561616 -0.0322127 0)
(0.470957 0.283736 -2.37085e-21)
(0.465445 0.279967 2.1248e-21)
(0.601048 -0.11075 9.50183e-22)
(0.616848 -0.120021 -4.14464e-21)
(0.0953747 0.00273682 2.8203e-21)
(0.10477 -0.000227487 2.47807e-21)
(0.0117279 0.0337051 9.46404e-21)
(0.554349 -0.2298 7.49792e-21)
(0.426979 0.2233 -2.13844e-21)
(0.445366 0.25414 2.13593e-22)
(0.016083 0.0323505 0)
(0.626162 -0.214099 0)
(0.501958 0.142237 1.28578e-20)
(0.441375 -0.149122 1.82078e-21)
(0.179414 0.13651 0)
(0.066648 0.0741499 1.57182e-20)
(0.536211 0.221399 -5.7025e-21)
(0.599974 -0.227261 0)
(0.434301 0.277557 -1.14524e-20)
(0.445166 0.277105 8.59815e-21)
(0.565411 -0.0697747 -4.93962e-21)
(0.573995 -0.0822021 -1.8813e-21)
(0.145169 -0.0262587 4.88875e-21)
(0.130657 -0.0146198 2.45211e-21)
(0.0755506 0.105134 0)
(0.551381 -0.278884 0)
(0.570544 0.172436 -1.72967e-21)
(0.407894 0.244075 4.00954e-21)
(0.00999373 0.0279862 -5.89106e-21)
(0.590571 -0.203937 0)
(0.358613 0.0558783 2.48509e-23)
(0.304326 0.113929 -5.2476e-21)
(0.276946 0.0262643 -2.63397e-21)
(0.448991 0.234171 7.19117e-21)
(0.58674 -0.236048 -3.48922e-21)
(0.0151662 0.0375062 -1.17344e-20)
(0.387434 0.240756 -9.44063e-21)
(0.500179 -0.0202295 8.19357e-21)
(0.194842 -0.0362538 5.86185e-24)
(0.551033 0.205096 -4.02219e-23)
(0.586047 -0.254844 -1.00913e-20)
(0.0659736 0.086126 3.23529e-21)
(0.459888 -0.245159 -2.08812e-22)
(0.0107439 0.0335063 1.07427e-20)
(0.405578 0.17128 3.56722e-21)
(0.317033 0.183619 5.02752e-21)
(0.258931 -0.0377681 3.2254e-22)
(0.439083 0.0398924 -1.34572e-20)
(0.388974 0.0963953 0)
(0.321971 -0.0172763 1.31262e-20)
(0.254451 0.108871 -6.76174e-21)
(0.495695 0.254107 -1.03934e-20)
(0.0310611 0.0451262 -7.37754e-21)
(0.638962 -0.227424 4.10284e-25)
(0.401158 0.0991142 0)
(0.324822 -0.0292801 4.61641e-21)
(0.248295 0.118346 9.55116e-21)
(0.346203 0.0600393 -5.36334e-21)
(0.302871 0.102292 5.54206e-21)
(0.284411 0.0361109 -1.38645e-21)
(0.28045 0.246519 5.17705e-21)
(0.546079 0.0596756 3.91199e-21)
(0.356688 -0.179731 -7.64288e-21)
(0.399701 0.0662559 0)
(0.285122 -0.0155294 0)
(0.285267 0.142078 -7.88042e-22)
(0.412518 0.0791495 -6.57619e-21)
(0.302471 -0.029787 -3.57348e-21)
(0.274435 0.142971 -1.1185e-22)
(0.389484 0.284161 -1.21479e-20)
(0.552645 -0.0210372 6.41084e-21)
(0.20756 -0.0828784 8.53076e-21)
(0.0457512 0.0493983 -1.11176e-20)
(0.046248 0.0539125 1.12826e-20)
(0.638769 -0.213613 -2.95516e-21)
(0.630083 -0.222992 -2.05872e-21)
(0.510005 0.254992 -8.11348e-21)
(0.516223 0.247548 1.22892e-20)
(0.555233 0.198207 -6.83538e-21)
(0.576516 -0.245598 6.28979e-21)
(0.0772313 0.0960228 0)
(0.180061 -0.0727567 -5.53713e-21)
(0.41013 0.300188 -2.51396e-21)
(0.5787 -0.0404504 0)
(0.337049 0.219759 0)
(0.248856 -0.0635823 5.09336e-21)
(0.479215 0.0224837 -4.23539e-21)
(0.553219 0.0965411 0)
(0.424937 -0.20878 -4.99313e-21)
(0.221185 0.205818 -1.6619e-22)
(0.501129 -0.274167 -3.51309e-21)
(0.0245438 0.0525819 0)
(0.483374 0.174866 8.9667e-21)
(0.107611 0.132114 0)
(0.578587 0.158873 0)
(0.536913 -0.270304 -4.26358e-21)
(0.502513 0.235524 -3.54573e-21)
(0.0297401 0.0519388 0)
(0.612694 -0.248511 3.54488e-21)
(0.00753261 0.0277581 3.97424e-32)
(0.432673 -0.228921 3.18627e-21)
(0.370828 0.163352 -3.6546e-21)
(0.458279 -0.197746 -3.56161e-21)
(0.0049547 0.0241003 -3.96505e-32)
(0.352569 0.191372 3.25019e-21)
(0.486634 -0.182969 9.67409e-21)
(0.526362 0.159285 0)
(0.151827 0.129107 1.44724e-20)
(0.541298 -0.28469 1.91311e-21)
(0.0521064 0.0842078 0)
(0.553048 0.175471 0)
(0.5255 0.207761 5.87127e-21)
(0.555765 -0.190752 -5.44102e-21)
(0.100431 0.0861456 -7.55052e-21)
(0.471322 0.283372 -1.03505e-20)
(0.0358476 0.0229749 -4.49902e-21)
(0.678092 -0.18206 0)
(0.413323 0.157288 -2.53593e-21)
(0.191052 0.071972 2.75103e-21)
(0.407364 -0.052441 -2.54567e-21)
(0.548588 -0.277263 0)
(0.0854352 0.11422 -5.39179e-21)
(0.574436 0.168442 -1.87804e-21)
(0.54837 0.0893601 4.45711e-21)
(0.234237 0.214651 2.9476e-21)
(0.40877 -0.198511 0)
(0.46535 -0.210969 0)
(0.547337 0.130067 0)
(0.175966 0.167132 -5.26981e-21)
(0.0014332 0.0109081 0)
(0.263398 -0.1226 2.63262e-21)
(0.212166 0.0987211 -2.78254e-21)
(0.518831 -0.250113 -3.44809e-21)
(0.0127616 0.0372952 6.48831e-21)
(0.433961 0.203325 3.6985e-21)
(0.400051 0.147835 6.53736e-21)
(0.203979 0.0713954 -6.47602e-21)
(0.388891 -0.0383037 -2.93402e-21)
(0.568108 -0.269268 -8.93816e-21)
(0.560523 0.189924 3.82735e-21)
(0.0650665 0.0930137 0)
(0.0710073 0.103604 5.67174e-21)
(0.571474 0.168607 0)
(0.542939 -0.285479 6.70481e-21)
(0.526859 0.234594 4.14267e-21)
(0.0611107 0.0645253 -1.6859e-20)
(0.611253 -0.216334 -8.45229e-21)
(0.069951 0.0191845 1.27281e-20)
(0.640667 -0.152133 -4.64603e-21)
(0.485511 0.280778 0)
(0.37971 0.291408 1.52743e-20)
(0.559087 -0.0128771 -8.17405e-21)
(0.227189 -0.102214 8.14345e-21)
(0.596696 -0.0959103 -1.421e-21)
(0.453998 0.287322 -5.00274e-21)
(0.119008 -0.0153397 7.73526e-21)
(0.0588599 0.0117401 1.1447e-20)
(0.477532 0.291704 0)
(0.667638 -0.156687 3.39238e-21)
(0.404265 0.228932 2.37938e-21)
(0.418547 0.238432 0)
(0.487712 -0.0374189 8.52231e-21)
(0.505975 -0.0515954 -9.10553e-21)
(0.175108 -0.00495209 -5.19276e-21)
(0.161547 -0.00368729 0)
(0.390088 0.230013 2.33414e-21)
(0.486507 -0.0230846 0)
(0.190389 -0.0199864 -2.49378e-21)
(0.426898 0.286191 0)
(0.571128 -0.0614788 7.97728e-21)
(0.15396 -0.0397118 -1.76533e-21)
(0.486923 -0.226062 5.02608e-21)
(0.557388 0.137468 -4.17073e-21)
(0.15918 0.157808 1.1662e-20)
(0.56678 -0.257952 0)
(0.560335 0.189548 -1.14938e-21)
(0.0795499 0.101991 0)
(0.136283 0.136961 3.74731e-21)
(0.55455 0.156969 2.70274e-21)
(0.512705 -0.226227 3.28217e-21)
(0.49338 -0.201834 4.83802e-22)
(0.00572028 0.0258068 -4.31239e-25)
(0.370868 0.206699 0)
(0.346778 0.185552 -4.52915e-21)
(0.353746 0.178157 0)
(0.227223 -0.00832378 1.18288e-21)
(0.430939 0.0149639 -1.64039e-20)
(0.2219 0.00575491 -1.49642e-21)
(0.420647 0.00762052 1.04263e-20)
(0.409025 0.272686 0)
(0.394355 0.263317 1.55168e-21)
(0.191711 -0.0512355 -2.46347e-23)
(0.544667 -0.0406512 -4.97857e-21)
(0.176778 -0.0440735 -1.2864e-20)
(0.528474 -0.0273853 1.05398e-20)
(0.44841 -0.255914 0)
(0.0139495 0.0380572 -1.17223e-20)
(0.424519 0.16193 0)
(0.572888 -0.264186 5.28314e-21)
(0.559201 0.193203 -1.16388e-21)
(0.0676123 0.0914982 -3.39707e-21)
(0.341647 0.243455 2.85025e-21)
(0.258139 -0.0919985 5.84579e-21)
(0.508307 0.0193421 -1.40016e-20)
(0.458857 -0.229012 -1.09335e-20)
(0.563632 0.112881 -1.08079e-20)
(0.191204 0.190016 0)
(0.0768397 0.0128186 -1.36103e-20)
(0.636205 -0.142944 4.94406e-21)
(0.481283 0.283378 0)
(0.563317 -0.262423 0)
(0.485431 0.213888 0)
(0.0219976 0.0488101 0)
(0.566196 -0.267552 0)
(0.504289 0.208999 -6.37375e-21)
(0.0285175 0.0565869 0)
(0.448827 0.266267 4.75031e-21)
(0.561798 -0.0880096 -2.85054e-21)
(0.126999 -0.00236531 -3.6296e-21)
(0.290983 0.184221 1.32258e-21)
(0.293719 -0.0696744 0)
(0.455806 0.0620663 -4.52665e-21)
(0.524267 0.23806 -4.82701e-21)
(0.0540481 0.0610749 -9.84959e-21)
(0.620693 -0.22251 1.22449e-20)
(0.491824 -0.197764 0)
(0.536546 0.157019 0)
(0.149045 0.13693 -1.2482e-20)
(0.0778768 0.0545529 -3.17028e-21)
(0.59689 -0.177128 -7.46897e-21)
(0.509234 0.24317 -1.24806e-20)
(0.383375 0.262855 -1.58059e-21)
(0.206781 -0.063619 8.57771e-21)
(0.525652 -0.0175516 -5.39361e-21)
(0.493342 0.100988 8.37504e-21)
(0.374874 -0.131486 -4.92795e-21)
(0.232954 0.174392 -1.04042e-20)
(0.325264 0.204022 -7.5542e-23)
(0.257333 -0.0587458 1.66411e-21)
(0.464653 0.0322043 5.5495e-21)
(0.0531902 0.0669625 3.84447e-21)
(0.612625 -0.236549 -5.66617e-21)
(0.531011 0.229082 -5.45519e-21)
(0.49233 0.247177 2.27474e-21)
(0.581783 -0.147667 2.21074e-21)
(0.0922412 0.0426458 0)
(0.323429 0.176872 4.91195e-21)
(0.250455 -0.0216923 -1.04283e-20)
(0.427664 0.0348631 8.86879e-21)
(0.474004 0.292062 -4.01775e-21)
(0.0498504 0.0134094 -5.10571e-21)
(0.677432 -0.164845 -3.16379e-23)
(0.386518 0.20437 2.88488e-21)
(0.453088 -0.0232517 0)
(0.190268 0.00429581 0)
(0.429945 0.114988 1.18238e-20)
(0.354923 -0.0630434 -2.8647e-21)
(0.226798 0.12315 0)
(0.46285 -0.195028 0)
(0.536155 0.135096 -8.4844e-21)
(0.173416 0.157544 5.51785e-21)
(0.458988 0.266755 0)
(0.021982 0.0306341 1.58149e-21)
(0.656571 -0.205383 -3.84437e-21)
(0.458024 0.274414 -4.25353e-21)
(0.0242442 0.0271934 -5.05145e-21)
(0.66752 -0.195021 3.70838e-21)
(0.0743338 0.0456433 -2.89921e-21)
(0.607836 -0.171607 4.42631e-21)
(0.503656 0.252368 1.14448e-20)
(0.507387 0.090467 3.93995e-21)
(0.374816 -0.14746 9.89232e-21)
(0.243022 0.190118 0)
(0.0162357 0.0286379 -1.44888e-21)
(0.641992 -0.204654 3.59568e-21)
(0.438011 0.261242 0)
(0.0926801 0.086881 0)
(0.566436 -0.20492 4.55248e-21)
(0.53303 0.207661 1.43441e-21)
(0.00601382 0.0230802 -5.84465e-21)
(0.367347 -0.212903 -3.6208e-21)
(0.329809 0.131845 0)
(0.298694 0.175693 3.66237e-21)
(0.409761 -0.162285 0)
(0.00260757 0.0182375 -5.84919e-21)
(0.0609649 0.0185553 -9.18028e-24)
(0.656405 -0.161029 5.78964e-22)
(0.48389 0.284897 0)
(0.0424165 0.0652225 0)
(0.603061 -0.253907 0)
(0.529126 0.223654 -7.35255e-21)
(0.507421 0.257875 4.23786e-21)
(0.509696 0.254286 -3.42857e-21)
(0.0515855 0.0447033 5.57327e-21)
(0.639316 -0.198775 9.72361e-22)
(0.0583821 0.0473734 0)
(0.627636 -0.193564 0)
(0.539556 0.197151 -2.75537e-21)
(0.556501 -0.212012 -3.01306e-21)
(0.0990803 0.0968304 0)
(0.211675 0.208057 0)
(0.439004 -0.226203 0)
(0.564995 0.0997651 0)
(0.354107 0.15723 -6.04351e-21)
(0.226283 0.0272277 1.42401e-20)
(0.39554 0.00747837 -5.72915e-21)
(0.544693 0.174176 -7.81361e-21)
(0.526633 -0.214446 -1.11397e-21)
(0.121766 0.119014 -1.10618e-20)
(0.134175 0.129378 -7.20281e-21)
(0.545659 0.164676 1.08601e-20)
(0.513063 -0.213788 1.54578e-21)
(0.471383 0.299873 -4.47536e-21)
(0.0680381 0.00135442 -5.47888e-21)
(0.667198 -0.142051 0)
(0.411709 0.281143 0)
(0.556653 -0.0436611 -2.36929e-21)
(0.173668 -0.0501106 1.26088e-20)
(0.39807 0.250376 0)
(0.514504 -0.0301497 -1.07595e-20)
(0.185445 -0.0374048 -1.9584e-23)
(0.516899 0.178468 9.99821e-21)
(0.504489 -0.173662 -1.35192e-21)
(0.133902 0.107136 6.26719e-21)
(0.525416 0.173081 0)
(0.504751 -0.184435 -1.27092e-21)
(0.135852 0.115058 -5.77277e-21)
(0.31414 0.16305 0)
(0.25922 -0.0140599 1.64537e-20)
(0.413405 0.0428398 0)
(0.419818 0.247251 0)
(0.517463 -0.0540999 6.04343e-21)
(0.158338 -0.01265 -1.88998e-21)
(0.0949726 0.12529 1.16838e-20)
(0.53746 -0.280864 9.62806e-21)
(0.581706 0.159017 0)
(0.513578 0.1951 1.40932e-22)
(0.0314213 0.0608715 -3.59221e-21)
(0.544659 -0.27595 -2.53201e-21)
(0.506489 0.180956 4.93105e-23)
(0.0301845 0.0598355 0)
(0.522631 -0.278046 7.26997e-21)
(0.360211 0.217544 -3.41552e-21)
(0.219388 -0.0336954 1.81405e-21)
(0.469571 0.00281468 8.43194e-23)
(0.532666 -0.260158 -1.18191e-22)
(0.0183026 0.0446818 -1.48891e-20)
(0.466974 0.201223 0)
(0.495606 0.255959 -9.81547e-21)
(0.081665 0.0392188 0)
(0.601687 -0.156486 0)
(0.0193815 0.046177 5.90404e-21)
(0.500183 -0.268007 3.89994e-21)
(0.463987 0.180528 -6.98182e-21)
(0.375869 0.112058 -8.05623e-21)
(0.244609 0.0880194 -8.5752e-21)
(0.338461 -0.00656664 -4.47937e-23)
(0.458116 0.195415 1.46121e-21)
(0.475496 -0.0975643 1.39598e-21)
(0.148319 0.0631293 5.66357e-21)
(0.352267 -0.137132 -1.1292e-20)
(0.503624 0.0789909 -1.385e-20)
(0.260498 0.199642 0)
(0.0581089 0.0893191 0)
(0.550703 -0.281612 2.39798e-21)
(0.559005 0.179441 0)
(0.481733 -0.203162 0)
(0.540429 0.147589 0)
(0.157926 0.146334 0)
(0.0435047 0.0222541 0)
(0.478986 0.284143 3.81064e-21)
(0.67415 -0.176868 -3.37585e-21)
(0.471782 0.200288 0)
(0.491121 -0.113901 -6.95524e-22)
(0.137907 0.0675527 1.34846e-23)
(0.348557 0.146999 5.83744e-21)
(0.234559 0.0335376 -1.22234e-20)
(0.383363 0.0132002 0)
(0.568974 -0.273314 8.45822e-21)
(0.552375 0.194048 -3.63251e-21)
(0.055675 0.0843194 0)
(0.080166 0.0703094 6.65588e-21)
(0.586295 -0.198347 -2.89292e-22)
(0.523764 0.2261 -9.88437e-23)
(0.478976 0.255316 0)
(0.471648 0.252092 -4.3457e-21)
(0.0246244 0.0396014 -3.61912e-21)
(0.0213627 0.0394093 4.4705e-21)
(0.639781 -0.222698 2.36416e-21)
(0.629781 -0.227495 -1.94382e-21)
(0.47614 0.141505 0)
(0.416901 -0.120594 -9.45253e-21)
(0.187345 0.124814 -6.84176e-21)
(0.467095 -0.168919 -1.35809e-20)
(0.516098 0.151755 0)
(0.161091 0.132325 7.58272e-21)
(0.410494 0.127371 6.66204e-21)
(0.364114 -0.0468199 -4.88348e-21)
(0.215562 0.0982464 -1.05428e-20)
(0.554241 -0.279483 -5.55904e-21)
(0.533189 0.192941 -4.94134e-21)
(0.54168 -0.284064 2.64017e-21)
(0.0395704 0.0697844 3.80526e-21)
(0.539092 0.181679 4.63216e-21)
(0.0433853 0.0740948 0)
(0.496671 0.211457 0)
(0.52958 -0.149042 0)
(0.115726 0.0722851 -7.08363e-21)
(0.543192 0.20274 -4.86051e-21)
(0.535051 0.201783 1.22155e-20)
(0.578056 -0.270132 -3.64656e-21)
(0.572027 -0.273043 9.1704e-21)
(0.0475801 0.0756342 -9.99231e-21)
(0.041131 0.0697011 -3.34071e-25)
(0.512951 0.143055 0)
(0.449248 -0.164663 1.25546e-20)
(0.17646 0.144828 -9.82885e-21)
(0.452202 0.160639 -6.32883e-21)
(0.442385 -0.100175 8.4016e-21)
(0.164513 0.0870299 0)
(0.473327 0.276806 0)
(0.0313258 0.0283773 -6.95582e-22)
(0.670269 -0.194183 -3.56123e-21)
(0.473093 0.152846 -4.66028e-21)
(0.43047 -0.116028 0)
(0.176151 0.112945 1.13533e-20)
(0.4253 0.138227 -2.7049e-21)
(0.38503 -0.0652971 5.72482e-21)
(0.202259 0.0975156 -6.17879e-21)
(0.472361 0.262275 0)
(0.0254736 0.0351753 0)
(0.653231 -0.213768 4.91442e-21)
(0.469628 0.212589 0)
(0.509702 -0.112985 -1.47665e-21)
(0.127983 0.0551372 7.0297e-21)
(0.397888 -0.201709 0)
(0.554343 0.0800135 0)
(0.247881 0.229479 3.80832e-22)
(0.380275 0.271294 3.89006e-22)
(0.535422 -0.0134349 0)
(0.21394 -0.0767759 -6.6618e-21)
(0.501632 -0.259926 -5.87763e-21)
(0.148536 0.166992 0)
(0.580134 0.132696 0)
(0.00299694 0.016838 1.40575e-20)
(0.346333 -0.162733 -3.68618e-21)
(0.279336 0.13263 3.89564e-21)
(0.472791 0.175749 0)
(0.457845 -0.114554 -5.16177e-21)
(0.155504 0.0896504 0)
(0.492772 0.268129 -7.09805e-21)
(0.0389647 0.0370406 -1.88648e-20)
(0.656945 -0.199487 7.26895e-21)
(0.26634 -0.126974 0)
(0.550419 0.0109724 5.37297e-21)
(0.349983 0.280114 0)
(0.361951 0.219167 0)
(0.00542089 0.0240434 3.51015e-21)
(0.521533 -0.191372 0)
(0.264869 0.158492 -6.56584e-21)
(0.269946 0.172338 6.72219e-21)
(0.313393 -0.0654998 0)
(0.441203 0.0804684 -5.69783e-21)
(0.315763 -0.0802168 1.0643e-20)
(0.456591 0.075288 4.58956e-21)
(0.411714 0.114592 -6.2705e-21)
(0.346836 -0.0431782 -6.48037e-21)
(0.230453 0.111584 0)
(0.299954 0.176895 -5.79365e-21)
(0.283046 0.164114 0)
(0.277435 -0.0482127 0)
(0.43973 0.0535049 0)
(0.290434 -0.0477291 5.96364e-21)
(0.432149 0.066497 -3.0871e-23)
(0.461806 0.1723 -4.02164e-22)
(0.421242 -0.0921274 3.65821e-21)
(0.178889 0.0964118 7.63531e-21)
(0.456938 0.152352 1.08959e-20)
(0.417349 -0.0975302 0)
(0.184144 0.106536 0)
(0.0369381 0.0681065 0)
(0.519199 -0.285603 0)
(0.525054 0.173485 -5.06417e-21)
(0.376226 0.218779 9.40862e-21)
(0.471147 -0.0102384 0)
(0.202726 -0.0201143 -3.36264e-21)
(0.539776 0.21303 9.75911e-21)
(0.592094 -0.260673 -4.22512e-21)
(0.0484451 0.0733932 5.69983e-21)
(0.5167 0.191783 0)
(0.524663 0.196341 -5.65718e-21)
(0.52369 -0.174572 1.68458e-21)
(0.53867 -0.186445 -5.35894e-21)
(0.119618 0.0959649 7.82448e-21)
(0.110983 0.0948491 7.29033e-21)
(0.375048 0.205764 0)
(0.454847 -0.0110652 0)
(0.202298 -0.0073517 -1.58073e-21)
(0.428812 0.266707 -3.7866e-21)
(0.547081 -0.0627201 0)
(0.151783 -0.0215533 -4.20532e-21)
(0.497237 0.189413 2.87115e-21)
(0.499418 -0.148361 0)
(0.131598 0.0911997 -7.14132e-21)
(0.322647 0.122879 -6.34738e-21)
(0.36218 0.0381243 -3.08691e-21)
(0.260116 0.0331602 -3.28391e-21)
(0.53491 0.180534 0)
(0.525472 -0.199958 0)
(0.121801 0.111766 1.17596e-20)
(0.341508 0.162609 0)
(0.233921 0.0111778 -1.80642e-21)
(0.404045 0.0186608 0)
(0.505596 0.155777 6.34351e-21)
(0.459902 -0.157222 6.98461e-21)
(0.163972 0.124943 9.81268e-22)
(0.431978 0.255126 -3.83035e-21)
(0.53481 -0.0674193 -6.89265e-21)
(0.146631 -0.00952111 0)
(0.327053 0.13683 6.29122e-21)
(0.317043 0.140847 2.82074e-21)
(0.376574 0.0316725 -3.02094e-21)
(0.25124 0.0244041 6.48917e-21)
(0.386221 0.0394419 0)
(0.257184 0.010644 1.15919e-20)
(0.297883 0.154011 2.86671e-21)
(0.273229 -0.0220443 -7.67689e-21)
(0.285676 0.156645 -1.84554e-21)
(0.411281 0.055115 0)
(0.290698 -0.0387505 -3.79242e-21)
(0.423431 0.0667225 6.51693e-21)
(0.403215 0.21714 -3.41644e-21)
(0.418871 0.216516 0)
(0.472353 -0.0385255 -6.31202e-21)
(0.477408 -0.0534266 4.92461e-21)
(0.175008 0.00685066 1.50096e-20)
(0.163638 0.0199047 -1.2481e-20)
(0.070997 0.0281878 0)
(0.627801 -0.157814 2.71833e-21)
(0.491333 0.270515 5.95162e-21)
(0.262034 0.232251 -1.28158e-20)
(0.544258 0.072452 -6.16605e-21)
(0.377119 -0.184403 1.1993e-20)
(0.0628506 0.0332126 6.34637e-21)
(0.0640309 0.0413006 0)
(0.63486 -0.171983 -2.34958e-21)
(0.624597 -0.179938 -4.0437e-21)
(0.496333 0.269004 -1.52707e-20)
(0.503762 0.259384 7.95524e-21)
(0.314823 0.245084 0)
(0.298235 -0.124355 6.39875e-21)
(0.519713 0.0394996 -1.33217e-21)
(0.321596 0.0979702 -1.33459e-20)
(0.277323 0.0557066 0)
(0.333248 0.0454337 1.0565e-20)
(0.533643 0.190975 2.73029e-21)
(0.540176 -0.20023 6.04972e-21)
(0.110913 0.102056 0)
(0.356813 0.196193 0)
(0.217902 -0.0154679 1.50684e-21)
(0.444408 0.00558389 5.31282e-21)
(0.440616 0.255508 0)
(0.540887 -0.0771464 0)
(0.137309 -0.00117024 1.0051e-21)
(0.479184 0.277275 0)
(0.482581 0.268415 0)
(0.617733 -0.134458 -1.44328e-21)
(0.0866957 0.0144707 7.72756e-21)
(0.606077 -0.136748 3.93411e-21)
(0.0880494 0.0226845 -1.04515e-20)
(0.507184 0.208596 -5.45309e-21)
(0.538411 -0.162784 -5.62582e-21)
(0.109949 0.0785918 -3.40606e-21)
(0.397734 0.228403 -5.54995e-21)
(0.555944 -0.207924 0)
(0.00874086 0.0282565 4.29623e-21)
(0.28089 -0.130839 0)
(0.540722 0.021755 -4.37624e-21)
(0.336869 0.268616 0)
(0.363653 0.280809 -3.94172e-21)
(0.358345 0.270147 4.23114e-21)
(0.245598 -0.108591 4.16846e-21)
(0.547838 0.00105045 0)
(0.248083 -0.101887 0)
(0.535522 0.00531185 0)
(0.552112 0.148171 9.5208e-21)
(0.496028 -0.221099 -1.14172e-20)
(0.149798 0.146301 -5.37178e-22)
(0.418497 0.265748 7.78101e-21)