/*--------------------------------*- C++ -*----------------------------------*\
  =========                 |
  \\      /  F ield         | OpenFOAM: The Open Source CFD Toolbox
   \\    /   O peration     | Website:  https://openfoam.org
    \\  /    A nd           | Version:  6
     \\/     M anipulation  |
\*---------------------------------------------------------------------------*/
FoamFile
{
    version     2.0;
    format      ascii;
    class       volScalarField;
    location    "0";
    object      p;
}
// * * * * * * * * * * * * * * * * * * * * * * * * * * * * * * * * * * * * * //

dimensions      [0 2 -2 0 0 0 0];

internalField   nonuniform List<scalar> 
918
(
0.190315
0.961861
0.00877708
0.189957
-0.000610132
0.930492
-0.851313
0.369145
0.168772
-0.481688
-0.0493379
0.160049
0.781555
0.547316
-1.52334
0.00865451
0.328363
-0.730678
0.16781
-0.0023218
0.444957
0.174834
0.178062
0.169988
0.22697
0.522789
0.65346
0.000852763
-0.00207562
-0.00393543
0.00407453
-0.00262957
0.00225784
0.80352
0.849851
0.868574
0.137855
-0.0133121
-0.728792
-0.788874
-0.759263
-0.897025
0.355504
0.358484
-0.519079
0.368388
0.38335
0.155296
0.168065
0.168858
0.170104
0.169094
0.170419
0.161988
-0.486762
-0.514847
-0.461086
-0.434878
-0.0616303
-0.0808289
-0.122973
-0.0265897
-0.0166689
0.0940192
0.157674
0.15612
0.16495
0.175532
0.887363
0.859325
0.882131
0.806997
0.824375
0.75566
0.72785
0.568258
0.590383
0.530951
0.521585
-1.99223
-2.97178
-0.928276
-0.64424
0.000625058
0.010263
0.0114149
0.31328
0.314192
0.324772
0.336345
0.700294
-0.708417
-0.866773
0.167224
0.166278
0.174183
0.175683
0.17202
0.171438
0.00424999
0.0115042
-0.00963637
-0.00392752
-0.0070318
0.421961
0.417277
0.169223
0.166847
0.185309
0.209746
0.197042
-0.0696098
0.23721
0.255457
0.350111
0.518558
0.51003
0.520857
0.627624
0.594735
0.685936
0.710305
0.0137121
0.00388091
0.0011402
0.00298971
0.00077493
0.134053
0.128501
0.151435
0.141263
0.144137
-0.111242
-0.258021
0.0666812
0.0924044
-0.638778
-0.688321
-0.811108
-0.800904
-0.888668
0.192419
0.350763
0.349424
-0.539036
-0.455759
-0.592503
-0.395191
-0.458663
0.147774
0.153173
0.150021
0.164074
0.157684
0.160629
0.171954
0.169268
0.170735
0.17127
0.2871
0.0946746
0.0280611
-0.609399
-0.538108
-0.592782
-0.407413
-0.350404
-0.0649113
-0.0725592
-0.0624675
-0.0257868
-0.299182
-0.168316
-0.233576
-0.00148074
-0.00010733
0.0860426
0.0757083
0.103398
0.109477
0.148447
0.150339
0.153039
0.151223
0.676088
0.699384
0.70721
0.683775
-3.97778
-6.69817
-0.28705
-0.121477
0.00261058
0.00271588
0.00186907
0.00382508
0.00277283
0.00085365
0.0021257
0.00642718
0.0117719
0.0116152
0.301659
0.303939
0.641887
0.671075
0.668987
0.653111
0.156216
0.158217
0.163175
0.160165
0.00739237
0.0148758
0.0100631
0.385568
0.401183
0.396973
-0.107685
-0.194114
-0.0225028
0.00639642
0.293202
0.269224
0.28901
0.412326
0.452556
0.723387
0.748014
0.734882
0.751179
0.799421
0.819617
0.784757
0.114212
0.123869
0.118352
0.154955
0.152977
0.153932
0.148174
0.149759
0.147472
-0.390927
-0.7652
0.155002
0.161381
0.129931
0.138153
0.267929
0.348349
0.33389
0.339466
0.343438
-0.347713
-0.401011
0.0211058
3.3381e-05
0.032362
0.064945
0.0483658
0.65128
0.61477
0.662066
0.637868
0.600926
0.623573
-0.698982
-2.48208
-1.43316
0.287983
0.0822394
0.178455
-0.00107733
-0.00914349
0.000985592
0.676018
0.709696
0.337897
0.52053
0.484975
0.48436
0.515038
0.567428
0.498558
0.533555
0.567457
0.549082
0.165516
0.153051
0.14708
0.432572
0.49642
-0.227816
-0.294947
-0.328459
-0.0824581
-0.0393542
-0.0696769
0.674665
0.561896
0.630397
0.166899
0.167366
0.0115265
0.0184319
0.170919
0.171144
0.00564067
0.00617011
0.185082
-1.2828
-0.210647
0.159821
0.1505
0.166734
-0.458443
-0.0239888
-0.0886869
-0.013838
0.0730843
0.157641
0.104403
0.0706822
0.00470419
0.0144254
-0.00400929
-0.524683
0.164496
0.162963
0.166313
0.167324
0.167976
0.00557838
0.00747356
0.00531341
0.000296561
0.00113709
-0.00162535
0.133225
0.149241
-0.519821
0.166318
0.168504
0.16823
0.161755
0.167272
0.165529
0.0121309
0.00704618
0.00450682
-0.122988
0.00202648
0.401296
0.502983
0.332241
0.149959
-0.143007
0.321422
0.38314
0.293036
0.445139
0.337252
0.349091
-0.14995
-0.291297
-0.152021
-0.20789
0.157669
0.156608
0.148424
0.14604
0.162123
0.160191
0.164382
0.161592
0.164273
0.165577
-0.498389
-0.450148
-0.445318
-0.492759
-0.0115915
0.243332
-0.157459
0.00962472
-0.0965995
-0.0531368
-0.030114
-0.144991
-0.171645
-0.130733
0.0426687
0.0514056
-0.0284434
0.070246
0.0113683
-0.0864314
0.0130835
-0.0195748
0.151791
0.149408
0.15803
0.165003
0.112262
0.114241
0.086642
0.102724
0.0902394
0.0396991
0.067304
0.044779
0.00628951
0.0065533
0.00535697
0.0188491
0.0157256
0.0074976
0.00822007
0.0114685
0.00528146
0.0064868
-9.36488e-05
0.00826831
-0.494703
-0.617929
0.62926
0.596049
-0.177568
0.153705
0.159941
0.156621
0.161609
0.164425
0.164943
0.162939
0.159537
0.149584
0.151658
0.147871
0.14806
-0.46534
-0.571893
-0.401271
-0.468429
-0.202721
0.276555
0.00836005
-0.0404724
-0.0544986
0.157851
0.367425
0.318243
0.434608
0.428607
-0.736309
-0.31176
-0.658707
-0.109432
-0.153846
0.418593
0.466796
0.489482
0.440762
0.390763
-0.393572
0.168984
-0.387067
-0.345792
-0.164255
-0.261338
0.38354
0.317303
0.322588
0.341389
0.365212
0.328471
0.308962
0.305133
0.334471
0.339329
0.152291
-0.0913819
-0.12179
-0.170664
0.306062
0.184731
0.235829
0.156019
0.152668
0.155458
0.15373
0.138156
0.143876
0.140423
0.144603
0.148006
0.157356
0.157437
0.152998
0.154963
-0.442183
-0.419136
-0.464166
-0.480345
-0.478544
-0.541491
-0.437315
-0.292268
-0.415575
-0.0600975
0.0263532
-0.283392
-0.430891
-0.392619
-0.353012
-0.128278
-0.113559
-0.472407
-0.100368
-0.369
-0.39229
-0.10651
-0.0244285
-0.136284
-0.191481
-0.281664
-0.176853
-0.0795355
-0.149846
-0.147633
0.00682249
-0.0199704
-0.0213354
-0.00255938
-0.370494
-0.335316
-0.299317
-0.527769
0.0128136
0.0158754
0.0172484
0.0166035
0.0228945
0.0251588
0.147356
0.146543
0.148399
0.160078
0.172128
0.186771
0.156075
0.131584
0.123867
0.125996
0.101146
0.109424
0.104416
0.118171
0.137391
0.144514
0.142243
0.144733
0.130008
0.130705
0.118781
0.123147
0.0995715
0.0835856
0.0764378
0.00945376
0.00723554
0.00859892
0.00794588
0.00850124
0.00922802
0.0279141
0.0220028
0.0251397
0.0204854
0.0124668
0.0127624
0.00981256
-0.419082
-0.354857
-0.529368
-0.569813
-0.630559
0.543685
0.655198
0.479272
0.262774
0.260135
0.479329
0.56838
0.264694
0.437268
0.457775
0.174379
0.444735
0.158416
0.157611
0.155828
0.154787
0.155913
-0.367201
-0.272343
-0.2471
-0.200768
-0.0774854
0.0349239
-0.0559738
-0.18332
-0.0479545
-0.0188609
0.271939
0.285333
0.229789
0.255833
0.257047
0.0776834
0.153517
0.199255
0.148699
0.21237
0.243451
0.191404
0.23519
0.161797
0.118135
0.112662
0.0612439
0.0964809
0.0768202
0.0510167
0.148228
0.128627
0.137729
0.131863
0.147869
0.178705
0.175723
0.193597
0.209946
0.135325
0.0911797
0.105566
0.130168
0.0929513
0.10692
0.124264
-0.172494
-0.261893
-0.120432
-0.473592
-0.347505
-0.329306
-0.367229
-0.413257
-0.100473
-0.774194
-0.707144
-1.3941
0.107292
0.51304
0.342002
0.354564
0.361802
0.339671
0.34987
0.374002
0.380434
0.296716
0.306439
0.31317
0.268896
0.301195
0.30971
0.315064
0.140128
0.0627881
0.0521216
0.00173234
-0.130288
-0.0952292
0.0808677
0.021313
-0.0436607
-0.0441225
0.115164
-0.00146524
0.0664295
0.114219
0.061489
-0.00174545
0.205124
0.265894
0.251198
0.221811
0.140205
0.157572
0.182042
0.221162
0.241911
0.272377
0.14525
0.150776
0.15149
0.148938
0.147458
0.149659
0.149286
0.152228
0.153004
0.155565
0.154891
-0.25136
-0.310055
-0.385152
-0.310784
-0.626951
-0.585559
-0.481448
-0.499366
-0.437594
-0.545878
-0.594587
-0.513179
-0.42348
-0.391768
-0.401239
-0.32595
-0.281631
-0.376526
-0.0604351
0.128723
0.164515
0.0238366
-0.10622
-0.0784813
0.0032261
-0.323002
-0.149909
-0.173626
-0.184243
-0.345159
-0.045818
-0.0389711
-0.042991
-0.0319669
-0.0731705
-0.0282485
0.00734973
0.00208196
-0.0074217
0.00128607
0.00748988
0.134698
0.128484
0.125929
0.121086
0.121007
0.131586
0.136715
0.138674
0.143539
0.145225
0.137248
0.142388
0.144698
0.020541
0.0130659
0.0179531
0.00505744
0.00910174
0.0118915
0.00755876
-0.255968
-0.308198
-0.273069
-0.34745
-0.471683
-0.411296
0.113776
0.105306
0.135473
0.318761
0.167104
0.0832695
0.169866
0.274665
-0.109299
0.0978667
-0.0713441
0.518951
0.405868
0.546338
0.184776
-0.119404
0.026109
0.046093
-0.110709
-0.00414566
-0.0179741
-0.135645
-0.0974045
-0.0806401
-0.00234085
-0.100775
-0.124653
-0.364829
-0.19232
-0.0698755
-0.0910699
0.0461759
0.107957
-0.109407
-0.187093
-0.24232
0.265546
0.282103
0.295068
0.265608
0.288937
0.216603
0.210182
0.227753
0.238088
0.229009
-1.0443
-0.657714
-1.81231
-1.19706
-0.757198
0.132921
0.116191
0.366751
0.278943
0.351903
0.337117
0.281292
0.248497
0.26188
0.296146
-0.00338372
0.106175
0.0670623
0.089174
0.0215862
-0.0567939
0.233984
0.230168
0.25913
0.280979
0.257059
0.282971
0.14361
0.142471
0.143055
0.140163
0.138344
0.139985
-0.550792
-0.604174
-0.506993
-0.488043
-0.518248
-0.564827
0.0252841
0.00179516
0.00287981
0.00702781
0.0287937
0.0275551
-0.212484
-0.268483
-0.338749
-0.322614
-0.366893
-0.423442
-0.4382
-0.347446
-0.264607
-0.28454
0.0266799
0.303432
0.127911
0.306641
0.102997
0.203996
0.129229
0.108925
0.146315
0.0143987
0.0912381
-0.342299
-0.569338
-0.601388
0.417071
0.379979
0.174765
-0.0775698
-0.203898
0.0899525
0.166598
0.13259
0.16867
0.21321
0.209373
-0.382933
-0.29137
-0.204783
0.0896438
-0.103383
-0.101661
-0.0971718
0.0406986
0.0147959
)
;

boundaryField
{
    wall-4
    {
        type            zeroGradient;
    }
    velocity-inlet-5
    {
        type            zeroGradient;
    }
    velocity-inlet-6
    {
        type            zeroGradient;
    }
    pressure-outlet-7
    {
        type            fixedValue;
        value           uniform 0;
    }
    wall-8
    {
        type            zeroGradient;
    }
    frontAndBackPlanes
    {
        type            empty;
    }
}

