/*--------------------------------*- C++ -*----------------------------------*\
  =========                 |
  \\      /  F ield         | OpenFOAM: The Open Source CFD Toolbox
   \\    /   O peration     | Website:  https://openfoam.org
    \\  /    A nd           | Version:  6
     \\/     M anipulation  |
\*---------------------------------------------------------------------------*/
FoamFile
{
    version     2.0;
    format      ascii;
    class       volVectorField;
    location    "0";
    object      U_rec;
}
// * * * * * * * * * * * * * * * * * * * * * * * * * * * * * * * * * * * * * //

dimensions      [0 1 -1 0 0 0 0];

internalField   nonuniform List<vector> 
9000
(
(0.570344 0.146455 0)
(0.453342 0.0632034 0)
(0.274418 0.0214242 0)
(0.192988 0.00950596 0)
(0.148864 0.00549497 0)
(0.122765 0.00286218 0)
(0.106874 0.00256551 0)
(0.095932 0.000695585 0)
(0.0877568 -2.97874e-05 0)
(0.0826157 -0.000431155 0)
(0.0791294 0.00190016 0)
(0.0764704 0.00188297 0)
(0.0737135 0.00218846 0)
(0.0733832 0.00180168 0)
(0.0731947 -0.000102525 0)
(0.0720542 -0.00103729 0)
(0.0710556 -0.00100027 0)
(0.0702776 0.000443339 0)
(0.0700979 0.00121088 0)
(0.0704838 0.00243149 0)
(0.070982 0.00127587 0)
(0.0706002 0.00195043 0)
(0.0703404 0.00106559 0)
(0.0703483 0.00100524 0)
(0.0702823 0.00113642 0)
(0.0709365 0.00150721 0)
(0.0698173 -0.000539009 0)
(0.0700585 0.000133309 0)
(0.0706951 -0.0010331 0)
(0.0697637 -0.00101242 0)
(0.0707056 -8.86377e-06 0)
(0.0704994 -0.00164633 0)
(0.0701491 -0.00173946 0)
(0.070333 -0.00153594 0)
(0.0695917 -0.00119507 0)
(0.069746 -0.000824006 0)
(0.0699966 0.000204891 0)
(0.0704856 -0.00113795 0)
(0.0708841 -0.000500946 0)
(0.0714605 -0.000498332 0)
(0.0717763 -0.000316463 0)
(0.0713212 -0.000670518 0)
(0.0719141 -4.52178e-05 0)
(0.0727857 1.59197e-05 0)
(0.0747758 -0.00129159 0)
(0.0766259 -0.00261621 0)
(0.0798163 -0.00238359 0)
(0.0885417 -0.000954077 0)
(0.10804 -0.00806001 0)
(0.157258 -0.0463394 0)
(0.903384 0.323776 0)
(0.822194 0.2228 0)
(0.624906 0.125039 0)
(0.492887 0.0717416 0)
(0.403957 0.0433955 0)
(0.344867 0.0266588 0)
(0.304967 0.0198464 0)
(0.275977 0.0101841 0)
(0.255565 0.00685879 0)
(0.243194 0.0034243 0)
(0.233447 0.00621538 0)
(0.224624 0.00580348 0)
(0.217525 0.00457384 0)
(0.214162 0.00478243 0)
(0.212558 0.00138099 0)
(0.210965 -0.000450196 0)
(0.209886 -0.00174509 0)
(0.208346 0.000124922 0)
(0.207625 0.00246373 0)
(0.207033 0.00420341 0)
(0.207623 0.00351495 0)
(0.207036 0.00323268 0)
(0.206002 0.00218214 0)
(0.206639 0.00290703 0)
(0.206704 0.00351924 0)
(0.206376 0.00115808 0)
(0.204699 -0.000161095 0)
(0.205504 4.74953e-05 0)
(0.206104 -0.00327658 0)
(0.206133 -0.00105439 0)
(0.206674 -0.00133806 0)
(0.205486 -0.0029057 0)
(0.206052 -0.00391119 0)
(0.206713 -0.0037185 0)
(0.205339 -0.00192839 0)
(0.205937 -0.000829928 0)
(0.205881 -0.000417308 0)
(0.207219 -0.000789739 0)
(0.209068 -0.00140252 0)
(0.209854 -0.000479084 0)
(0.210529 -0.00154924 0)
(0.210945 -0.00333749 0)
(0.213379 -0.00257814 0)
(0.21514 -0.00341468 0)
(0.219694 -0.00428219 0)
(0.227136 -0.00756862 0)
(0.239732 -0.0105862 0)
(0.259717 -0.0161965 0)
(0.295367 -0.0392347 0)
(0.364632 -0.0995763 0)
(0.977917 0.309783 0)
(0.970734 0.303617 0)
(0.834117 0.214836 0)
(0.708982 0.142173 0)
(0.608006 0.0949944 0)
(0.535214 0.064144 0)
(0.480183 0.0439466 0)
(0.439361 0.0287468 0)
(0.410982 0.0211608 0)
(0.392491 0.0152228 0)
(0.378624 0.0117424 0)
(0.364181 0.00774457 0)
(0.354208 0.00698489 0)
(0.348864 0.00753768 0)
(0.344961 0.00322995 0)
(0.342024 0.00119908 0)
(0.340424 0.000902471 0)
(0.339683 0.000483524 0)
(0.338657 0.0031646 0)
(0.337247 0.00353682 0)
(0.337087 0.00509524 0)
(0.335864 0.00222697 0)
(0.335596 0.00266934 0)
(0.336735 0.00353023 0)
(0.334493 0.00372868 0)
(0.334204 0.000381888 0)
(0.333813 -0.000262219 0)
(0.332758 -0.00231227 0)
(0.334914 -0.00478285 0)
(0.335423 -0.00214912 0)
(0.335046 -0.003013 0)
(0.333837 -0.00282181 0)
(0.334131 -0.00292333 0)
(0.336443 -0.00317703 0)
(0.335545 -0.00141861 0)
(0.335022 0.000358486 0)
(0.335604 0.000237543 0)
(0.337182 0.00120084 0)
(0.339577 -0.00149853 0)
(0.341043 -0.000435812 0)
(0.341205 -0.00230501 0)
(0.343619 -0.00468185 0)
(0.347992 -0.00629754 0)
(0.352205 -0.00788336 0)
(0.35978 -0.00996783 0)
(0.370513 -0.0147301 0)
(0.38916 -0.0222181 0)
(0.416697 -0.0409037 0)
(0.458381 -0.072773 0)
(0.520349 -0.143164 0)
(0.989292 0.267144 0)
(1.02612 0.334156 0)
(0.949407 0.280655 0)
(0.854669 0.206538 0)
(0.764191 0.149876 0)
(0.689018 0.106932 0)
(0.630391 0.0739021 0)
(0.586144 0.0549577 0)
(0.552849 0.0409067 0)
(0.528938 0.0303231 0)
(0.510074 0.0214296 0)
(0.494996 0.0135906 0)
(0.484451 0.0126292 0)
(0.474995 0.00996274 0)
(0.469012 0.00550408 0)
(0.467202 0.00328922 0)
(0.464675 0.00274035 0)
(0.463148 0.00156225 0)
(0.462159 0.00337395 0)
(0.460437 0.0018024 0)
(0.459197 0.0038141 0)
(0.45757 0.000790018 0)
(0.458194 0.00254628 0)
(0.458814 0.00239037 0)
(0.456097 0.00216284 0)
(0.454864 0.00043926 0)
(0.45381 -0.00200287 0)
(0.453437 -0.00134365 0)
(0.456633 -0.00374793 0)
(0.457567 -0.00281938 0)
(0.457286 -0.00135701 0)
(0.456291 -0.00191097 0)
(0.456296 -0.000955717 0)
(0.458499 -0.00238401 0)
(0.458539 -0.00229088 0)
(0.458181 0.00098613 0)
(0.458366 -2.19487e-05 0)
(0.459387 0.000413469 0)
(0.462657 -0.00157169 0)
(0.465471 -0.00236647 0)
(0.465951 -0.00480786 0)
(0.4688 -0.0058217 0)
(0.474973 -0.00930165 0)
(0.481007 -0.0118833 0)
(0.490891 -0.0170938 0)
(0.505735 -0.0256207 0)
(0.526132 -0.038931 0)
(0.556954 -0.0650986 0)
(0.598616 -0.104204 0)
(0.64874 -0.176449 0)
(0.984774 0.226331 0)
(1.03996 0.337202 0)
(1.0108 0.31817 0)
(0.948883 0.256642 0)
(0.877639 0.195181 0)
(0.810746 0.145675 0)
(0.756918 0.110396 0)
(0.713772 0.081796 0)
(0.677811 0.0625191 0)
(0.652149 0.04653 0)
(0.631721 0.0333859 0)
(0.615652 0.0234798 0)
(0.603899 0.0190742 0)
(0.592881 0.0126162 0)
(0.58647 0.00840454 0)
(0.583514 0.00573398 0)
(0.580542 0.00270873 0)
(0.579696 0.00135801 0)
(0.577647 0.00360343 0)
(0.575677 0.00373013 0)
(0.574481 0.00281872 0)
(0.572952 0.000198112 0)
(0.573821 0.00104555 0)
(0.573728 0.000253086 0)
(0.570474 0.000674713 0)
(0.568281 0.000133603 0)
(0.569293 -0.00145014 0)
(0.568351 0.000612054 0)
(0.570275 -0.00134351 0)
(0.573169 -0.00227419 0)
(0.57245 0.000584174 0)
(0.570959 0.000388933 0)
(0.570514 0.000541788 0)
(0.572635 -0.000435252 0)
(0.574916 -0.00013478 0)
(0.573899 -0.000148355 0)
(0.573255 -0.00214295 0)
(0.575564 -0.00160112 0)
(0.578828 -0.00469049 0)
(0.58173 -0.00545424 0)
(0.583659 -0.00895216 0)
(0.587756 -0.0100063 0)
(0.594521 -0.0140905 0)
(0.602528 -0.0200059 0)
(0.613608 -0.02836 0)
(0.629431 -0.0389392 0)
(0.651351 -0.055886 0)
(0.682596 -0.0850452 0)
(0.719645 -0.129506 0)
(0.757769 -0.196919 0)
(0.979586 0.19109 0)
(1.03796 0.325158 0)
(1.03855 0.332835 0)
(1.00567 0.287675 0)
(0.957573 0.230664 0)
(0.908197 0.182565 0)
(0.860945 0.14239 0)
(0.820813 0.107021 0)
(0.788595 0.0827618 0)
(0.761911 0.0629668 0)
(0.740714 0.0458756 0)
(0.726057 0.0343013 0)
(0.713832 0.0252146 0)
(0.701534 0.0166585 0)
(0.695352 0.0128747 0)
(0.692165 0.00901549 0)
(0.688766 0.00540934 0)
(0.689156 0.004898 0)
(0.688258 0.00513469 0)
(0.68385 0.00439138 0)
(0.680602 0.00291721 0)
(0.679951 0.00124432 0)
(0.681117 0.000886007 0)
(0.681438 -0.000617072 0)
(0.678914 -0.000660224 0)
(0.675986 0.00225179 0)
(0.676555 -0.000278136 0)
(0.676134 0.000208407 0)
(0.67721 0.00107903 0)
(0.68121 -0.00103124 0)
(0.681873 0.000723702 0)
(0.679198 0.000415427 0)
(0.678458 0.00349011 0)
(0.680926 0.00360298 0)
(0.681815 0.00230323 0)
(0.680441 -0.000773991 0)
(0.681824 -0.00151461 0)
(0.683572 -0.00263549 0)
(0.687547 -0.00609633 0)
(0.691655 -0.00849374 0)
(0.693773 -0.0104212 0)
(0.698802 -0.0145918 0)
(0.70548 -0.0196563 0)
(0.713759 -0.0282959 0)
(0.727317 -0.0391165 0)
(0.745635 -0.0527516 0)
(0.76596 -0.0706971 0)
(0.794001 -0.101257 0)
(0.826394 -0.148514 0)
(0.854067 -0.212256 0)
(0.973907 0.161701 0)
(1.02941 0.302759 0)
(1.04872 0.332032 0)
(1.03977 0.305097 0)
(1.01525 0.259222 0)
(0.981271 0.212409 0)
(0.943265 0.167288 0)
(0.911157 0.129791 0)
(0.883227 0.100531 0)
(0.858902 0.0758175 0)
(0.839929 0.056833 0)
(0.825524 0.0429632 0)
(0.812787 0.0307803 0)
(0.802666 0.0219515 0)
(0.797049 0.0167706 0)
(0.792576 0.0118937 0)
(0.790186 0.00762625 0)
(0.790559 0.0080449 0)
(0.78746 0.00626272 0)
(0.783784 0.00288143 0)
(0.781756 0.00288435 0)
(0.780728 0.0014702 0)
(0.781138 -0.00063948 0)
(0.781294 -0.000255754 0)
(0.780857 -0.00159879 0)
(0.776804 0.00125154 0)
(0.776468 0.000486703 0)
(0.77785 -0.000280922 0)
(0.777958 0.00144102 0)
(0.781493 0.00172903 0)
(0.782231 0.00138969 0)
(0.781401 0.00116762 0)
(0.781 0.00347045 0)
(0.780553 0.00357745 0)
(0.781369 0.00105431 0)
(0.781314 -0.00148378 0)
(0.782811 -0.00169 0)
(0.784631 -0.00422731 0)
(0.788412 -0.00539486 0)
(0.793734 -0.00994968 0)
(0.796497 -0.0124009 0)
(0.801404 -0.0177768 0)
(0.808893 -0.0239631 0)
(0.817759 -0.0335441 0)
(0.831457 -0.045661 0)
(0.850219 -0.0632629 0)
(0.87057 -0.0864854 0)
(0.893672 -0.117555 0)
(0.918378 -0.163867 0)
(0.938189 -0.223809 0)
(0.970386 0.137673 0)
(1.02075 0.276342 0)
(1.05078 0.320091 0)
(1.06033 0.309927 0)
(1.05356 0.27519 0)
(1.035 0.228562 0)
(1.00873 0.184858 0)
(0.985481 0.146347 0)
(0.963228 0.112078 0)
(0.942932 0.0857016 0)
(0.927249 0.0648757 0)
(0.915146 0.0487794 0)
(0.904096 0.0358207 0)
(0.894458 0.0276473 0)
(0.889081 0.0193133 0)
(0.885322 0.0133266 0)
(0.88383 0.00876503 0)
(0.884832 0.00697656 0)
(0.880768 0.00449748 0)
(0.876894 0.00541886 0)
(0.874665 0.00219479 0)
(0.872442 0.00146687 0)
(0.874286 2.62315e-05 0)
(0.875226 -0.000664661 0)
(0.874339 -0.00171 0)
(0.871457 -0.00143934 0)
(0.870007 0.00219829 0)
(0.871286 0.000279334 0)
(0.872811 -0.000696539 0)
(0.875515 0.000883196 0)
(0.876096 -0.000427657 0)
(0.874977 0.00213203 0)
(0.874409 0.000749584 0)
(0.87424 0.000825996 0)
(0.87407 -0.00141283 0)
(0.874745 -0.00227027 0)
(0.876886 -0.00365408 0)
(0.879019 -0.00620892 0)
(0.882954 -0.00644911 0)
(0.887841 -0.00981866 0)
(0.891567 -0.0165428 0)
(0.897036 -0.0215269 0)
(0.904321 -0.0301118 0)
(0.912746 -0.0404006 0)
(0.926187 -0.0528924 0)
(0.943468 -0.0735227 0)
(0.962289 -0.0984705 0)
(0.982805 -0.132955 0)
(1.00151 -0.177377 0)
(1.01352 -0.23065 0)
(0.966563 0.118885 0)
(1.01125 0.249642 0)
(1.04897 0.30136 0)
(1.07256 0.301952 0)
(1.07932 0.276215 0)
(1.07307 0.234195 0)
(1.06043 0.194524 0)
(1.04541 0.157988 0)
(1.03044 0.12213 0)
(1.01665 0.093921 0)
(1.00506 0.071386 0)
(0.995232 0.0552095 0)
(0.986462 0.0409237 0)
(0.978168 0.0305871 0)
(0.972882 0.0235977 0)
(0.970017 0.0162947 0)
(0.969037 0.0103949 0)
(0.969929 0.00724236 0)
(0.967872 0.00233833 0)
(0.963357 0.00458116 0)
(0.960077 0.00218736 0)
(0.959917 0.00346581 0)
(0.959967 0.00241027 0)
(0.960401 -0.00241606 0)
(0.960686 -0.00242295 0)
(0.959162 -0.00414748 0)
(0.957611 -0.00088383 0)
(0.956255 -0.000783081 0)
(0.95832 -0.00130679 0)
(0.961567 -0.00236208 0)
(0.96331 -0.00282 0)
(0.96242 -0.00144279 0)
(0.960664 -0.00152079 0)
(0.960242 -0.000775615 0)
(0.961028 -0.000994212 0)
(0.961862 -0.00282628 0)
(0.962841 -0.00497198 0)
(0.966408 -0.00724048 0)
(0.970987 -0.0088189 0)
(0.973903 -0.0124188 0)
(0.977848 -0.0200826 0)
(0.984081 -0.0254769 0)
(0.991128 -0.0353849 0)
(1.00079 -0.047054 0)
(1.01207 -0.0604628 0)
(1.02788 -0.0815913 0)
(1.0447 -0.107463 0)
(1.05996 -0.142746 0)
(1.07497 -0.186456 0)
(1.08213 -0.2363 0)
(0.963931 0.100785 0)
(1.00336 0.221906 0)
(1.04399 0.278624 0)
(1.07706 0.287853 0)
(1.09532 0.269852 0)
(1.10238 0.235099 0)
(1.10229 0.199124 0)
(1.09531 0.16396 0)
(1.08629 0.131464 0)
(1.07879 0.102157 0)
(1.07258 0.0768438 0)
(1.06678 0.0603507 0)
(1.05928 0.0449802 0)
(1.05378 0.0331512 0)
(1.04988 0.0267255 0)
(1.04615 0.0194444 0)
(1.04645 0.0142791 0)
(1.04752 0.00814721 0)
(1.04643 0.00388359 0)
(1.04359 0.00253427 0)
(1.04055 0.00466538 0)
(1.03898 0.00507453 0)
(1.03659 0.00214046 0)
(1.03833 -0.00251704 0)
(1.0394 -0.00315719 0)
(1.03779 -0.0045966 0)
(1.03767 -0.00273388 0)
(1.03676 -0.00294846 0)
(1.03737 -0.000573619 0)
(1.04033 -0.00299953 0)
(1.04263 -0.00355581 0)
(1.04198 -0.00482204 0)
(1.04144 -0.00342367 0)
(1.0418 -0.00237502 0)
(1.04015 -0.00138746 0)
(1.03987 -0.00318293 0)
(1.04251 -0.00424996 0)
(1.04604 -0.00745481 0)
(1.05048 -0.0117681 0)
(1.05316 -0.0156964 0)
(1.05791 -0.022164 0)
(1.06396 -0.029124 0)
(1.06978 -0.0403661 0)
(1.07886 -0.0522711 0)
(1.08974 -0.0699927 0)
(1.10312 -0.0893658 0)
(1.11687 -0.118959 0)
(1.12861 -0.150723 0)
(1.13854 -0.192054 0)
(1.14298 -0.237748 0)
(0.961828 0.0853767 0)
(0.997612 0.196002 0)
(1.0405 0.253768 0)
(1.07968 0.270862 0)
(1.10633 0.258362 0)
(1.12302 0.231139 0)
(1.13329 0.197351 0)
(1.13573 0.164018 0)
(1.13426 0.133541 0)
(1.1311 0.106376 0)
(1.13095 0.0816101 0)
(1.12904 0.0632038 0)
(1.12372 0.0474736 0)
(1.1217 0.0348936 0)
(1.11874 0.0258169 0)
(1.11637 0.0208475 0)
(1.11545 0.0163045 0)
(1.11666 0.00984698 0)
(1.11753 0.00572454 0)
(1.11628 0.00320899 0)
(1.11401 0.00489343 0)
(1.11023 0.00436868 0)
(1.10681 0.0014144 0)
(1.10905 0.000266246 0)
(1.11092 -0.00296042 0)
(1.11061 -0.00373751 0)
(1.10996 -0.0017351 0)
(1.10889 -4.72667e-05 0)
(1.10977 -0.00228702 0)
(1.11157 -0.00174665 0)
(1.11397 -0.0039726 0)
(1.11488 -0.00521514 0)
(1.11488 -0.00394686 0)
(1.11437 -0.00405298 0)
(1.11356 -0.00358502 0)
(1.11346 -0.00327968 0)
(1.11445 -0.00421799 0)
(1.11702 -0.00754514 0)
(1.12256 -0.0125167 0)
(1.12542 -0.0179905 0)
(1.12953 -0.0234706 0)
(1.13435 -0.0340794 0)
(1.14028 -0.0459116 0)
(1.14851 -0.0594603 0)
(1.15776 -0.0768096 0)
(1.16921 -0.0982142 0)
(1.18074 -0.125918 0)
(1.18991 -0.15887 0)
(1.19512 -0.196166 0)
(1.19633 -0.237121 0)
(0.960944 0.0741152 0)
(0.993337 0.173984 0)
(1.0366 0.228818 0)
(1.07949 0.248219 0)
(1.11252 0.240971 0)
(1.13836 0.220194 0)
(1.15716 0.189734 0)
(1.16798 0.158953 0)
(1.17366 0.130416 0)
(1.17664 0.103796 0)
(1.18038 0.0815463 0)
(1.18248 0.0638076 0)
(1.18011 0.0486546 0)
(1.17963 0.0338585 0)
(1.18028 0.0235958 0)
(1.17951 0.0189653 0)
(1.1783 0.0143268 0)
(1.17975 0.0113541 0)
(1.1806 0.00684829 0)
(1.18097 0.00372014 0)
(1.17893 0.00342685 0)
(1.1742 0.00293585 0)
(1.17112 0.00139686 0)
(1.1727 0.00106773 0)
(1.174 -0.00283948 0)
(1.17572 -0.00286749 0)
(1.1771 -0.00165787 0)
(1.17387 -0.000753735 0)
(1.17383 -0.0024172 0)
(1.17681 -0.001046 0)
(1.17849 -0.00306559 0)
(1.18027 -0.00306529 0)
(1.18051 -0.00352147 0)
(1.18023 -0.0052021 0)
(1.17949 -0.00503272 0)
(1.17885 -0.00589159 0)
(1.18024 -0.00822756 0)
(1.18234 -0.00940872 0)
(1.1864 -0.0130331 0)
(1.1901 -0.0203692 0)
(1.1927 -0.0267466 0)
(1.1965 -0.037986 0)
(1.20248 -0.0494102 0)
(1.21008 -0.0640009 0)
(1.2183 -0.0807167 0)
(1.22776 -0.102864 0)
(1.23546 -0.128798 0)
(1.24147 -0.163315 0)
(1.24484 -0.197329 0)
(1.2426 -0.235055 0)
(0.960008 0.0625803 0)
(0.989673 0.150163 0)
(1.03254 0.202541 0)
(1.07821 0.219549 0)
(1.1174 0.218952 0)
(1.14872 0.203564 0)
(1.17449 0.175947 0)
(1.19356 0.148746 0)
(1.20551 0.12153 0)
(1.2138 0.0973521 0)
(1.22362 0.0770382 0)
(1.22925 0.0601832 0)
(1.22753 0.0462388 0)
(1.22946 0.033235 0)
(1.23327 0.0236374 0)
(1.23471 0.0185433 0)
(1.23458 0.013697 0)
(1.23586 0.0104218 0)
(1.23623 0.00637331 0)
(1.23719 0.00325037 0)
(1.23645 0.00153015 0)
(1.2319 0.00123085 0)
(1.22826 0.00118465 0)
(1.22901 0.00115314 0)
(1.23115 -0.00012915 0)
(1.23409 0.000420707 0)
(1.23392 -0.00214777 0)
(1.23148 -0.00144794 0)
(1.23299 -9.47167e-05 0)
(1.23438 -0.00123208 0)
(1.23609 -0.00110538 0)
(1.23813 -0.00223274 0)
(1.23748 -0.00352045 0)
(1.2376 -0.00625206 0)
(1.23765 -0.00752046 0)
(1.23677 -0.00907824 0)
(1.23855 -0.0107296 0)
(1.24126 -0.0108054 0)
(1.24377 -0.0154807 0)
(1.24594 -0.0226843 0)
(1.24853 -0.0299683 0)
(1.25194 -0.0394883 0)
(1.25751 -0.0512484 0)
(1.26409 -0.0654627 0)
(1.2706 -0.0844099 0)
(1.27777 -0.106018 0)
(1.28216 -0.131165 0)
(1.28569 -0.163266 0)
(1.28704 -0.194071 0)
(1.28209 -0.230281 0)
(0.95966 0.0520945 0)
(0.98824 0.128454 0)
(1.02879 0.175256 0)
(1.07584 0.194044 0)
(1.12092 0.193608 0)
(1.15568 0.181018 0)
(1.18742 0.156791 0)
(1.21319 0.133146 0)
(1.23127 0.109249 0)
(1.24574 0.0893552 0)
(1.25892 0.0713523 0)
(1.2681 0.0547315 0)
(1.27018 0.0436731 0)
(1.27361 0.0334926 0)
(1.27981 0.0241121 0)
(1.28228 0.019571 0)
(1.28242 0.012721 0)
(1.28369 0.0100964 0)
(1.28495 0.00552377 0)
(1.28632 0.00251895 0)
(1.2863 -0.00111333 0)
(1.2824 -0.00157149 0)
(1.27931 -2.58644e-05 0)
(1.27998 0.00275516 0)
(1.28164 0.00386159 0)
(1.28292 0.00208676 0)
(1.2841 -0.00093756 0)
(1.28348 -0.000322239 0)
(1.28281 0.00128941 0)
(1.28512 0.000520552 0)
(1.28668 0.000227309 0)
(1.28778 -0.00103221 0)
(1.28765 -0.00343315 0)
(1.28803 -0.00494351 0)
(1.28829 -0.00778698 0)
(1.28793 -0.00878539 0)
(1.2912 -0.0101248 0)
(1.29202 -0.0118965 0)
(1.29254 -0.0179078 0)
(1.29521 -0.0236232 0)
(1.29768 -0.0312949 0)
(1.29996 -0.0407763 0)
(1.30447 -0.0525057 0)
(1.30931 -0.0673176 0)
(1.3143 -0.0858418 0)
(1.32037 -0.107539 0)
(1.32211 -0.132457 0)
(1.32346 -0.159833 0)
(1.3222 -0.1903 0)
(1.31476 -0.2232 0)
(0.959819 0.0420236 0)
(0.986723 0.106827 0)
(1.02708 0.145934 0)
(1.07408 0.167356 0)
(1.12061 0.166692 0)
(1.15964 0.153887 0)
(1.19588 0.138172 0)
(1.2289 0.116325 0)
(1.25301 0.0965144 0)
(1.27184 0.0787303 0)
(1.28846 0.0643182 0)
(1.3016 0.0499254 0)
(1.30644 0.0390315 0)
(1.31024 0.0308757 0)
(1.31868 0.0244288 0)
(1.32177 0.0172923 0)
(1.32309 0.0105934 0)
(1.32581 0.00880058 0)
(1.3259 0.00533147 0)
(1.32738 0.000750328 0)
(1.32816 -0.00125734 0)
(1.32672 -0.00390248 0)
(1.32502 -0.000185009 0)
(1.32521 0.00298875 0)
(1.32459 0.00322725 0)
(1.32493 0.00149498 0)
(1.32632 -0.000170162 0)
(1.3269 -0.00165443 0)
(1.32767 0.000881042 0)
(1.32814 0.00345857 0)
(1.32969 0.00138265 0)
(1.33067 0.000216093 0)
(1.33043 -0.00292791 0)
(1.33076 -0.0048274 0)
(1.3315 -0.00663468 0)
(1.33214 -0.00675132 0)
(1.33411 -0.00979441 0)
(1.33464 -0.0139486 0)
(1.33504 -0.0195545 0)
(1.33717 -0.0261279 0)
(1.33837 -0.0343679 0)
(1.34072 -0.04226 0)
(1.34424 -0.053748 0)
(1.34744 -0.0686034 0)
(1.35082 -0.0853251 0)
(1.35458 -0.106627 0)
(1.35537 -0.132782 0)
(1.35456 -0.156408 0)
(1.35035 -0.186045 0)
(1.34208 -0.216635 0)
(0.96039 0.0320445 0)
(0.986019 0.0851833 0)
(1.02571 0.117704 0)
(1.07305 0.135018 0)
(1.11924 0.135799 0)
(1.16342 0.126572 0)
(1.20453 0.117193 0)
(1.23937 0.0991205 0)
(1.26889 0.0813102 0)
(1.29305 0.0663621 0)
(1.31317 0.0541908 0)
(1.32737 0.0420213 0)
(1.33549 0.0318731 0)
(1.34264 0.0261774 0)
(1.35065 0.0234265 0)
(1.35317 0.0139691 0)
(1.35696 0.0109554 0)
(1.36056 0.00621686 0)
(1.35971 0.00328061 0)
(1.3623 4.92404e-05 0)
(1.36295 -0.000144975 0)
(1.36301 -0.00241994 0)
(1.36353 -0.00011653 0)
(1.36196 0.00161468 0)
(1.36043 -0.00148261 0)
(1.36042 -0.000438242 0)
(1.3618 -0.00233094 0)
(1.36352 -0.000970947 0)
(1.36558 0.00108079 0)
(1.36535 0.00260395 0)
(1.36459 0.00207679 0)
(1.36564 -0.000802625 0)
(1.36571 -0.00319284 0)
(1.36729 -0.00668753 0)
(1.36898 -0.00625721 0)
(1.36855 -0.00939373 0)
(1.36946 -0.0104038 0)
(1.3697 -0.016735 0)
(1.36897 -0.0213849 0)
(1.37084 -0.0280215 0)
(1.37351 -0.0365433 0)
(1.3753 -0.0443852 0)
(1.37626 -0.0553542 0)
(1.37865 -0.0689267 0)
(1.38008 -0.085213 0)
(1.38102 -0.106137 0)
(1.3806 -0.13076 0)
(1.37896 -0.154131 0)
(1.37137 -0.181084 0)
(1.36086 -0.209997 0)
(0.961241 0.0253029 0)
(0.985807 0.063486 0)
(1.02368 0.0906749 0)
(1.0708 0.103625 0)
(1.11873 0.105901 0)
(1.16684 0.102214 0)
(1.21031 0.0920111 0)
(1.24757 0.0792361 0)
(1.28123 0.0648116 0)
(1.30887 0.0520004 0)
(1.33173 0.0421656 0)
(1.34838 0.0316115 0)
(1.35921 0.024071 0)
(1.36883 0.0190859 0)
(1.37579 0.0170175 0)
(1.37893 0.0120955 0)
(1.3838 0.0102098 0)
(1.38637 0.00508247 0)
(1.38737 0.00277247 0)
(1.39074 0.00158572 0)
(1.39177 0.00110096 0)
(1.39212 -0.000500771 0)
(1.39273 -0.000961773 0)
(1.38944 0.000769713 0)
(1.38861 -0.0020094 0)
(1.3899 -0.00181229 0)
(1.39107 -0.00123866 0)
(1.39365 0.000794313 0)
(1.39497 0.00193473 0)
(1.39435 0.00112845 0)
(1.39339 0.00106742 0)
(1.39362 0.000717119 0)
(1.39368 -0.00250181 0)
(1.3963 -0.00638042 0)
(1.39753 -0.00683656 0)
(1.39765 -0.0107411 0)
(1.39808 -0.013349 0)
(1.39691 -0.0198193 0)
(1.39778 -0.0242376 0)
(1.39813 -0.0277633 0)
(1.39979 -0.0372989 0)
(1.40128 -0.0472434 0)
(1.4022 -0.0573798 0)
(1.40277 -0.0702951 0)
(1.4019 -0.0854034 0)
(1.40037 -0.105369 0)
(1.39966 -0.12687 0)
(1.39596 -0.150705 0)
(1.38665 -0.177431 0)
(1.37466 -0.201619 0)
(0.959411 0.0204099 0)
(0.984099 0.0442755 0)
(1.0234 0.0629863 0)
(1.07036 0.0722361 0)
(1.11996 0.0767481 0)
(1.16847 0.0745059 0)
(1.21351 0.0668462 0)
(1.25371 0.0568684 0)
(1.28914 0.0478194 0)
(1.32051 0.0375707 0)
(1.34532 0.0301614 0)
(1.36296 0.0221023 0)
(1.37607 0.0164981 0)
(1.38782 0.013095 0)
(1.39636 0.0074984 0)
(1.39964 0.00644452 0)
(1.40336 0.00445551 0)
(1.4064 0.00308571 0)
(1.40836 0.00364068 0)
(1.41209 0.00304679 0)
(1.41242 0.00305532 0)
(1.41233 -0.000438464 0)
(1.41482 -0.00127492 0)
(1.4119 0.000218726 0)
(1.40924 -9.13388e-05 0)
(1.41156 -0.000787268 0)
(1.414 0.000768233 0)
(1.41633 0.00232091 0)
(1.41675 0.00145681 0)
(1.41611 0.00124542 0)
(1.41588 -0.00029015 0)
(1.41543 -0.000214377 0)
(1.41364 -0.00269394 0)
(1.41709 -0.00504587 0)
(1.41927 -0.00969356 0)
(1.41787 -0.0107326 0)
(1.41812 -0.015154 0)
(1.41743 -0.0218776 0)
(1.41922 -0.026487 0)
(1.41856 -0.0301217 0)
(1.41835 -0.0392447 0)
(1.42021 -0.0481576 0)
(1.41995 -0.0591584 0)
(1.41953 -0.0716863 0)
(1.41724 -0.086312 0)
(1.41375 -0.103069 0)
(1.41111 -0.1224 0)
(1.40529 -0.145275 0)
(1.39563 -0.168755 0)
(1.38343 -0.19218 0)
(0.95777 0.0121713 0)
(0.98137 0.0276936 0)
(1.02123 0.0369899 0)
(1.0704 0.0425379 0)
(1.12098 0.0431856 0)
(1.16979 0.0416097 0)
(1.21549 0.0379157 0)
(1.25767 0.0320166 0)
(1.29544 0.0288492 0)
(1.32728 0.0229159 0)
(1.3537 0.018526 0)
(1.37345 0.013256 0)
(1.38817 0.0092924 0)
(1.39864 0.0089454 0)
(1.40733 0.00278265 0)
(1.41316 0.00139412 0)
(1.41785 0.00113082 0)
(1.42187 0.00172015 0)
(1.42365 0.00202599 0)
(1.42658 0.00210758 0)
(1.42558 0.00270352 0)
(1.42562 -5.32842e-05 0)
(1.42977 0.000332957 0)
(1.42627 -0.00016235 0)
(1.42396 0.000185169 0)
(1.42655 0.000878012 0)
(1.42936 0.00131597 0)
(1.43099 0.00280731 0)
(1.4311 0.0025152 0)
(1.43037 0.00213683 0)
(1.42963 0.00106723 0)
(1.42966 -0.00224495 0)
(1.42825 -0.0031056 0)
(1.4298 -0.00431911 0)
(1.43241 -0.0107564 0)
(1.43312 -0.0122265 0)
(1.43079 -0.01363 0)
(1.42999 -0.0205754 0)
(1.43348 -0.025663 0)
(1.43157 -0.0331004 0)
(1.43065 -0.0392313 0)
(1.43164 -0.046236 0)
(1.4305 -0.0579003 0)
(1.42941 -0.0687206 0)
(1.42608 -0.0841448 0)
(1.42182 -0.100809 0)
(1.41671 -0.117351 0)
(1.41005 -0.137578 0)
(1.39846 -0.158245 0)
(1.38397 -0.181606 0)
(0.958008 0.00439407 0)
(0.980868 0.008107 0)
(1.02073 0.00981644 0)
(1.069 0.0128818 0)
(1.11969 0.0107198 0)
(1.17048 0.0102539 0)
(1.21726 0.00878724 0)
(1.26113 0.010164 0)
(1.29906 0.00981102 0)
(1.33149 0.00719557 0)
(1.35813 0.00401202 0)
(1.37742 0.00120574 0)
(1.39415 -0.00157926 0)
(1.40517 -0.000123344 0)
(1.41311 -0.000551924 0)
(1.41996 -0.000182548 0)
(1.42516 -0.000211984 0)
(1.42857 4.07648e-05 0)
(1.43036 -0.00103629 0)
(1.43412 0.000223967 0)
(1.43258 0.000589815 0)
(1.43264 0.00144116 0)
(1.43673 0.000865608 0)
(1.43343 -0.00200126 0)
(1.43175 0.000718735 0)
(1.43439 0.00141981 0)
(1.43744 0.00262565 0)
(1.43921 0.00251952 0)
(1.43871 0.00423992 0)
(1.43772 0.00229535 0)
(1.43622 0.00115701 0)
(1.43585 -0.00116447 0)
(1.43545 -0.00299535 0)
(1.43592 -0.00440518 0)
(1.43817 -0.00937562 0)
(1.44079 -0.0112536 0)
(1.43786 -0.013574 0)
(1.43567 -0.0165753 0)
(1.43786 -0.0223151 0)
(1.43709 -0.0315335 0)
(1.43753 -0.037721 0)
(1.43664 -0.0441076 0)
(1.43445 -0.0535791 0)
(1.43172 -0.0660231 0)
(1.42626 -0.0798164 0)
(1.42246 -0.0963453 0)
(1.41681 -0.112921 0)
(1.40783 -0.131777 0)
(1.39511 -0.152367 0)
(1.3781 -0.173767 0)
(0.956338 -0.00176053 0)
(0.978343 -0.0107261 0)
(1.02057 -0.0148355 0)
(1.06946 -0.018678 0)
(1.11973 -0.0218169 0)
(1.17061 -0.0214126 0)
(1.21872 -0.0213284 0)
(1.26265 -0.0152132 0)
(1.29894 -0.0113237 0)
(1.32982 -0.0105643 0)
(1.35631 -0.011302 0)
(1.37676 -0.00858728 0)
(1.39422 -0.0092676 0)
(1.40673 -0.00812614 0)
(1.41441 -0.00617091 0)
(1.42052 -0.00493103 0)
(1.42532 -0.00174319 0)
(1.42831 -0.00280355 0)
(1.43085 -0.00226878 0)
(1.4348 -0.000555646 0)
(1.43358 -0.0023408 0)
(1.43299 0.000726284 0)
(1.43476 -0.00123152 0)
(1.43364 -0.00339132 0)
(1.43374 0.00165838 0)
(1.43544 0.00312476 0)
(1.43792 0.00379046 0)
(1.43988 0.00318828 0)
(1.43917 0.00365571 0)
(1.43641 0.0017145 0)
(1.43596 0.00062965 0)
(1.43561 -0.00230982 0)
(1.43497 -0.00408407 0)
(1.43484 -0.00368417 0)
(1.43759 -0.0067351 0)
(1.44055 -0.007617 0)
(1.43832 -0.0130707 0)
(1.43589 -0.0151852 0)
(1.4356 -0.021066 0)
(1.43429 -0.0276518 0)
(1.43559 -0.0347458 0)
(1.43484 -0.0432769 0)
(1.43061 -0.051533 0)
(1.42673 -0.0639187 0)
(1.42134 -0.0769309 0)
(1.41549 -0.0896256 0)
(1.40909 -0.108763 0)
(1.3989 -0.125509 0)
(1.38484 -0.145252 0)
(1.36764 -0.163746 0)
(0.955633 -0.0117836 0)
(0.97889 -0.0294285 0)
(1.02054 -0.0402098 0)
(1.06716 -0.0504445 0)
(1.11876 -0.054572 0)
(1.16942 -0.0542874 0)
(1.21839 -0.0501349 0)
(1.26325 -0.0431497 0)
(1.29709 -0.0359664 0)
(1.32597 -0.0295704 0)
(1.35302 -0.0236821 0)
(1.37206 -0.0181968 0)
(1.38784 -0.0160109 0)
(1.40016 -0.0141294 0)
(1.40779 -0.0111191 0)
(1.41538 -0.00883849 0)
(1.4192 -0.00591595 0)
(1.42101 -0.00567707 0)
(1.42445 -0.00347567 0)
(1.42691 -0.00252846 0)
(1.4263 -0.00334582 0)
(1.42624 -0.000488412 0)
(1.42737 -0.000336083 0)
(1.42844 -0.000133976 0)
(1.42906 0.00246254 0)
(1.42887 0.00296724 0)
(1.43083 0.00437432 0)
(1.43293 0.00218742 0)
(1.43153 -0.000785611 0)
(1.42975 0.000856438 0)
(1.42735 0.00067151 0)
(1.42674 -0.00345722 0)
(1.42896 -0.00339302 0)
(1.42882 -0.00356122 0)
(1.43094 -0.004216 0)
(1.43245 -0.00699618 0)
(1.42938 -0.0118798 0)
(1.42737 -0.0163054 0)
(1.42705 -0.0217116 0)
(1.42596 -0.0257265 0)
(1.42597 -0.0321327 0)
(1.42468 -0.0439024 0)
(1.42041 -0.0513606 0)
(1.41515 -0.0627918 0)
(1.40967 -0.0752033 0)
(1.40233 -0.0851452 0)
(1.39432 -0.101279 0)
(1.38423 -0.117791 0)
(1.3693 -0.135108 0)
(1.35277 -0.149928 0)
(0.956597 -0.0209666 0)
(0.980112 -0.0483991 0)
(1.02044 -0.0689275 0)
(1.06704 -0.080507 0)
(1.11797 -0.0846557 0)
(1.1688 -0.0845695 0)
(1.21684 -0.0759752 0)
(1.25918 -0.0666983 0)
(1.29207 -0.0566266 0)
(1.3202 -0.0459329 0)
(1.34476 -0.0368649 0)
(1.36153 -0.0294048 0)
(1.3764 -0.023601 0)
(1.38856 -0.0200422 0)
(1.39602 -0.0140834 0)
(1.40216 -0.0107946 0)
(1.40548 -0.0109259 0)
(1.40797 -0.00788697 0)
(1.4109 -0.00333205 0)
(1.41315 -0.00458306 0)
(1.41312 -0.00226593 0)
(1.41328 3.8403e-05 0)
(1.41371 0.00114283 0)
(1.41435 0.00190043 0)
(1.41464 0.000924983 0)
(1.41572 0.000806728 0)
(1.41648 0.00329211 0)
(1.41599 0.000222926 0)
(1.41751 -0.0030533 0)
(1.41664 -0.00123936 0)
(1.41261 -0.00127967 0)
(1.41287 -0.00211572 0)
(1.41491 -0.0024918 0)
(1.41454 -0.00514499 0)
(1.41622 -0.00664792 0)
(1.41722 -0.00961912 0)
(1.41434 -0.0136945 0)
(1.41186 -0.0174591 0)
(1.41221 -0.021987 0)
(1.41053 -0.0254319 0)
(1.40765 -0.0322718 0)
(1.40665 -0.041645 0)
(1.40316 -0.0486087 0)
(1.3967 -0.0607683 0)
(1.39274 -0.0713121 0)
(1.38462 -0.0821132 0)
(1.37361 -0.0947556 0)
(1.36281 -0.109981 0)
(1.34903 -0.124445 0)
(1.33199 -0.136791 0)
(0.957892 -0.0288425 0)
(0.981964 -0.0678127 0)
(1.02173 -0.0956083 0)
(1.06764 -0.108597 0)
(1.11638 -0.114357 0)
(1.16678 -0.11055 0)
(1.21389 -0.100777 0)
(1.25402 -0.0889848 0)
(1.28442 -0.0750326 0)
(1.30908 -0.0610773 0)
(1.33213 -0.0475274 0)
(1.34708 -0.038506 0)
(1.35904 -0.0283 0)
(1.37078 -0.0234513 0)
(1.37782 -0.0194994 0)
(1.38136 -0.0138246 0)
(1.38506 -0.0100712 0)
(1.38947 -0.00728127 0)
(1.39032 -0.00317613 0)
(1.39128 -0.00397113 0)
(1.39314 -0.00320508 0)
(1.39243 -0.000697825 0)
(1.39259 0.000524094 0)
(1.39262 0.00102304 0)
(1.39282 -0.00219898 0)
(1.39488 -0.000916749 0)
(1.39512 5.51415e-05 0)
(1.39352 0.000324929 0)
(1.39551 -0.000499847 0)
(1.39564 -0.001618 0)
(1.39174 -0.00230896 0)
(1.39133 -0.000833852 0)
(1.39272 -0.00403675 0)
(1.39185 -0.00508532 0)
(1.39425 -0.00772764 0)
(1.39478 -0.0105036 0)
(1.39167 -0.0147884 0)
(1.38938 -0.0175051 0)
(1.39002 -0.022179 0)
(1.38827 -0.0263803 0)
(1.3849 -0.0304592 0)
(1.3836 -0.0376582 0)
(1.37833 -0.0452118 0)
(1.37137 -0.0544105 0)
(1.36721 -0.0644112 0)
(1.35883 -0.0773818 0)
(1.34805 -0.0896623 0)
(1.33657 -0.101517 0)
(1.3228 -0.114038 0)
(1.30526 -0.125402 0)
(0.959157 -0.0370001 0)
(0.984245 -0.0873338 0)
(1.02417 -0.123898 0)
(1.06891 -0.140383 0)
(1.11621 -0.142471 0)
(1.16458 -0.13526 0)
(1.20754 -0.122594 0)
(1.24435 -0.108295 0)
(1.27282 -0.0927099 0)
(1.29597 -0.0734984 0)
(1.31424 -0.0576088 0)
(1.32671 -0.0456567 0)
(1.33721 -0.0335197 0)
(1.34436 -0.0276136 0)
(1.35188 -0.0243315 0)
(1.3578 -0.0162157 0)
(1.35889 -0.00892375 0)
(1.36192 -0.00624803 0)
(1.36244 -0.00605258 0)
(1.36248 -0.00312154 0)
(1.36495 -0.00392931 0)
(1.36489 -0.00261654 0)
(1.36449 -0.000961496 0)
(1.36248 -0.00117985 0)
(1.36332 -0.00344597 0)
(1.36685 -0.00131029 0)
(1.3673 -0.00138781 0)
(1.3659 0.000440128 0)
(1.36683 -0.00020877 0)
(1.366 -0.00119466 0)
(1.36383 -0.00246278 0)
(1.36257 -0.00186683 0)
(1.36348 -0.00589966 0)
(1.36372 -0.00614073 0)
(1.36432 -0.00842177 0)
(1.36485 -0.0114078 0)
(1.36196 -0.0140035 0)
(1.35995 -0.0176881 0)
(1.3602 -0.0208008 0)
(1.35938 -0.0266343 0)
(1.35525 -0.0297315 0)
(1.35263 -0.0365227 0)
(1.34816 -0.04344 0)
(1.34059 -0.0495248 0)
(1.33461 -0.060151 0)
(1.32574 -0.0717031 0)
(1.31584 -0.0823715 0)
(1.30436 -0.0925291 0)
(1.29052 -0.104023 0)
(1.27232 -0.115997 0)
(0.96078 -0.0452773 0)
(0.986015 -0.107388 0)
(1.02509 -0.152348 0)
(1.07175 -0.171189 0)
(1.11716 -0.169745 0)
(1.16102 -0.162464 0)
(1.19998 -0.14474 0)
(1.23162 -0.125356 0)
(1.25752 -0.106149 0)
(1.27722 -0.0854867 0)
(1.29123 -0.0690758 0)
(1.30114 -0.0533885 0)
(1.30755 -0.0416325 0)
(1.31278 -0.0331019 0)
(1.32037 -0.0245374 0)
(1.32606 -0.0183431 0)