/*--------------------------------*- C++ -*----------------------------------*\
  =========                 |
  \\      /  F ield         | OpenFOAM: The Open Source CFD Toolbox
   \\    /   O peration     | Website:  https://openfoam.org
    \\  /    A nd           | Version:  6
     \\/     M anipulation  |
\*---------------------------------------------------------------------------*/
FoamFile
{
    version     2.0;
    format      ascii;
    class       volVectorField;
    location    "0";
    object      U;
}
// * * * * * * * * * * * * * * * * * * * * * * * * * * * * * * * * * * * * * //

dimensions      [0 1 -1 0 0 0 0];

internalField   nonuniform List<vector> 
13046
(
(0.503992 0.186695 0)
(0.587204 -0.146782 3.71988e-21)
(0.215583 -0.0924849 8.34161e-21)
(0.48707 0.102661 0)
(0.21466 -0.018878 7.60263e-21)
(0.497231 -0.158783 0)
(0.531438 0.125492 -1.107e-21)
(0.540589 -0.194281 -1.90267e-21)
(0.189126 -0.00854984 8.35524e-21)
(0.993694 0.439147 -2.58359e-21)
(1.04814 -0.43991 0)
(-0.0207376 -0.0246785 -5.18697e-21)
(0.626755 0.230118 6.93093e-21)
(0.678566 -0.219777 5.62571e-21)
(0.144465 -0.0651446 -4.52903e-21)
(0.945128 0.494105 -1.51068e-21)
(0.0126803 -0.0519937 -8.31756e-21)
(1.09147 -0.359844 -1.94892e-21)
(0.299468 0.0605613 0)
(0.377202 -0.139096 4.11737e-21)
(0.474748 0.0058145 -1.16458e-20)
(0.956458 0.48527 1.46648e-21)
(0.00272706 -0.0444034 1.66544e-20)
(1.08306 -0.377483 -5.73673e-22)
(0.441613 0.113055 -4.70865e-21)
(0.500998 -0.117505 6.97602e-21)
(0.241497 -0.0664242 0)
(0.634496 0.260009 -1.65795e-22)
(0.704046 -0.21745 -1.65515e-21)
(0.144277 -0.0809616 1.57141e-20)
(0.510675 0.20795 0)
(0.612194 -0.134799 0)
(0.221589 -0.113057 -8.49e-21)
(0.404316 0.0828681 1.65298e-20)
(0.266201 -0.0643357 -2.84962e-21)
(0.462401 -0.0903162 -1.08148e-20)
(0.400479 0.0602332 5.11233e-23)
(0.275669 -0.0426088 0)
(0.43487 -0.0879073 0)
(0.416943 0.209691 -5.94835e-21)
(0.361611 -0.226625 -7.64917e-21)
(0.631664 -0.048134 5.54199e-21)
(0.381397 -0.00415059 -3.80928e-21)
(0.323778 -0.0123722 3.89669e-21)
(0.363803 -0.0581996 0)
(0.409011 0.00443765 -2.42301e-21)
(0.302467 0.00835187 0)
(0.368816 -0.0844518 1.25296e-21)
(0.525807 0.18197 0)
(0.591532 -0.168491 2.66375e-22)
(0.187931 -0.0732269 3.10659e-23)
(0.529621 -0.358948 -9.30658e-21)
(0.354643 0.22753 0)
(0.728236 0.0263025 6.44039e-21)
(0.587128 -0.394745 1.3253e-20)
(0.75531 0.0513135 6.91517e-21)
(0.317144 0.208865 -9.11485e-21)
(0.97545 -0.21368 1.09569e-21)
(0.799326 0.485303 0)
(0.172752 -0.171603 -6.97896e-21)
(0.804512 0.2433 3.25599e-21)
(0.794902 -0.373864 -3.2304e-21)
(0.0844918 0.0220957 1.87289e-20)
(0.00496381 -0.0322395 -9.62082e-21)
(1.01368 -0.408273 1.67881e-21)
(0.96334 0.409572 4.67751e-21)
(0.760135 0.479962 0)
(0.942868 -0.177809 -5.19303e-21)
(0.218386 -0.209737 -2.03355e-21)
(0.726855 0.457536 2.46761e-21)
(0.91109 -0.164028 7.0375e-21)
(0.234999 -0.217794 2.76671e-21)
(1.01058 -0.223557 1.06174e-23)
(0.828502 0.504225 -1.01679e-22)
(0.156461 -0.167207 3.40293e-23)
(0.315397 0.0834603 0)
(0.368582 -0.15492 -4.48258e-21)
(0.500993 -0.0115199 8.26521e-21)
(0.100465 -0.122152 -7.6533e-21)
(0.872703 0.509587 7.02556e-21)
(1.04551 -0.269956 2.28744e-21)
(0.470696 0.123811 -2.46114e-21)
(0.514991 -0.138439 2.48853e-21)
(0.219077 -0.0487242 0)
(-0.0018857 -0.0322451 8.58534e-21)
(1.03319 -0.415236 0)
(0.979478 0.424512 -2.7536e-21)
(1.00577 0.334421 4.80893e-21)
(0.0112088 0.00598181 0)
(0.967887 -0.483515 1.3547e-21)
(0.0503505 0.0472445 0)
(1.06868 0.266062 0)
(0.933517 -0.567545 -1.70302e-22)
(0.811993 0.346015 6.3659e-21)
(0.850386 0.353942 -8.80778e-21)
(0.877699 -0.315551 -5.98545e-21)
(0.906163 -0.345382 2.80099e-21)
(0.0694085 -0.0576218 4.01713e-21)
(0.0505149 -0.0428344 -1.03241e-20)
(0.0233103 0.0169867 4.85742e-22)
(1.00426 0.312933 -4.70531e-21)
(0.948502 -0.498111 0)
(0.430752 0.0293672 2.31901e-23)
(0.277249 0.00682268 0)
(0.398462 -0.110804 0)
(0.249745 0.145173 -1.66296e-20)
(0.690579 0.0798195 3.23802e-21)
(0.575501 -0.337026 0)
(0.352331 0.204877 -2.52126e-21)
(0.474947 -0.302756 0)
(0.672422 0.00705149 1.24539e-20)
(0.928254 0.4299 0)
(-0.0243301 -0.0206972 7.02193e-21)
(0.968776 -0.439004 7.04273e-22)
(0.581079 0.205012 -4.85938e-21)
(0.639569 -0.19807 -2.45606e-21)
(0.159932 -0.0598402 -8.20777e-21)
(0.850001 0.406818 -3.67218e-21)
(0.813866 0.376916 3.42709e-21)
(0.945285 -0.310309 -1.57025e-21)
(0.068289 -0.0776182 -4.61001e-21)
(0.899939 -0.296999 1.60902e-21)
(0.0782926 -0.0764016 4.3066e-21)
(0.980174 0.44784 5.97462e-21)
(1.04641 -0.43623 1.64896e-21)
(-0.0220533 -0.0244154 2.31471e-21)
(0.730272 0.312701 0)
(0.799314 -0.268266 4.13209e-21)
(0.104687 -0.077005 -2.38843e-20)
(0.456543 0.227641 0)
(0.321876 -0.205555 7.70193e-21)
(0.641512 -0.0750235 -2.91401e-22)
(0.0658434 0.0591597 0)
(1.04228 0.2514 0)
(0.918835 -0.555652 0)
(0.919098 0.35688 0)
(0.946997 -0.4017 7.39593e-21)
(0.0256056 -0.0205107 1.03416e-20)
(0.55229 0.231481 0)
(0.64929 -0.156523 0)
(0.204419 -0.11935 0)
(0.653763 0.154608 0)
(0.631577 -0.291022 0)
(0.156345 0.0373403 0)
(0.330859 0.199503 2.33299e-21)
(0.517324 -0.329573 0)
(0.692351 0.0282926 -6.71828e-21)
(0.251521 0.132015 1.61139e-20)
(0.66754 0.0757574 7.13133e-21)
(0.561214 -0.317905 -8.32054e-21)
(0.834452 0.264195 -7.34512e-21)
(0.827788 -0.384542 0)
(0.0674095 0.00833234 -2.43319e-20)
(0.22598 0.0765522 0)
(0.591996 0.0803959 -1.57444e-20)
(0.519301 -0.252503 -2.15096e-21)
(0.687598 -0.435565 -3.65323e-21)
(0.803169 0.114317 -7.25723e-21)
(0.735551 -0.452271 0)
(0.834184 0.146286 -4.17459e-21)
(0.229085 0.158487 -7.84637e-21)
(0.187166 0.130635 7.53616e-21)
(0.679842 0.124504 -9.91996e-22)
(0.618548 -0.323018 -4.28639e-21)
(0.182193 0.0758253 4.66226e-21)
(1.01447 0.423166 2.63399e-21)
(-0.0217751 -0.021577 -2.69551e-21)
(1.02889 -0.458809 2.54152e-21)
(0.949646 0.439526 1.56107e-21)
(-0.0242655 -0.02118 1.05606e-21)
(1.00825 -0.436688 0)
(0.929002 0.376883 -1.51046e-22)
(0.967172 -0.398787 0)
(0.0196308 -0.0280278 -1.2492e-20)
(0.525305 0.301249 0)
(0.72435 -0.0874419 -1.68532e-21)
(0.331654 -0.244374 -4.46254e-21)
(0.656082 0.106236 -6.46384e-21)
(0.205775 0.093964 0)
(0.584966 -0.303676 0)
(-0.017627 -0.0128724 0)
(1.0094 -0.490217 0)
(1.04014 0.386842 -2.12785e-21)
(0.487358 0.273297 0)
(0.692887 -0.0709989 3.748e-21)
(0.345787 -0.237178 -1.15919e-21)
(0.224536 0.0914124 0)
(0.609413 0.0796452 0)
(0.526741 -0.268808 0)
(0.618247 0.132992 -3.2602e-21)
(0.595599 -0.269122 0)
(0.168032 0.0329725 0)
(0.721347 -0.263143 3.03658e-23)
(0.115647 -0.0431506 5.57893e-21)
(0.69928 0.287064 -1.00143e-20)
(0.76594 -0.254631 0)
(0.114787 -0.0703305 2.46773e-20)
(1.0081 0.38118 5.4215e-21)
(-0.00416885 -0.0130622 -7.76593e-21)
(1.00704 -0.461183 6.06156e-21)
(0.052458 0.0452243 -7.08729e-21)
(1.00931 0.270258 -2.98602e-21)
(0.921749 -0.524988 -6.9458e-21)
(1.05309 0.304698 7.73115e-21)
(0.959429 -0.529563 0)
(0.0210984 0.0233814 6.9443e-21)
(0.553918 -0.404489 3.75261e-21)
(0.785463 0.0193195 -2.83311e-21)
(0.400283 0.285589 -7.64898e-21)
(0.608538 0.17567 6.39732e-21)
(0.859577 0.520786 -3.67404e-21)
(0.120146 -0.136758 4.71962e-21)
(1.04927 -0.258477 -1.06064e-23)
(0.970509 -0.530982 0)
(1.06211 0.326266 2.10838e-21)
(0.00773782 0.010985 0)
(0.429734 0.057943 1.2215e-20)
(0.258519 -0.015763 0)
(0.431831 -0.114606 -4.07148e-21)
(0.611294 0.26576 0)
(0.697972 -0.195765 2.38236e-22)
(0.170394 -0.100083 -4.64845e-21)
(0.0654579 0.0570814 -5.43931e-21)
(1.01763 0.256455 0)
(0.912227 -0.540744 8.00353e-21)
(0.646092 0.199052 0)
(0.704116 -0.270727 -1.01981e-20)
(0.118361 -0.0289023 0)
(-0.0262405 -0.0212432 0)
(0.99525 -0.468569 -1.67956e-21)
(1.00421 0.418095 0)
(0.360041 0.25767 8.27476e-21)
(0.793277 0.0382611 0)
(0.590451 -0.42722 0)
(1.02733 0.297192 -6.78159e-21)
(0.947686 -0.516595 0)
(0.0279033 0.0255593 4.30566e-23)
(0.753922 0.136299 -8.3424e-21)
(0.676625 -0.386868 -3.2066e-21)
(0.178435 0.103318 1.06644e-20)
(0.726618 0.331667 0)
(0.808988 -0.25425 -3.86609e-21)
(0.116799 -0.091508 -2.4917e-21)
(0.851461 -0.551771 1.06474e-20)
(0.979926 0.188586 5.43103e-21)
(0.140753 0.117289 -4.2668e-21)
(0.876756 0.154601 0)
(0.770295 -0.483948 4.39465e-21)
(0.181253 0.133257 1.55446e-22)
(-0.0262965 -0.0214549 5.41705e-21)
(0.971433 -0.478063 0)
(1.01028 0.404203 1.44456e-21)
(0.420175 0.249631 -1.10402e-20)
(0.429914 -0.290332 5.55918e-21)
(0.693419 -0.0275472 5.35694e-22)
(0.854723 0.455661 -1.492e-21)
(-0.0189785 -0.0167119 5.82536e-22)
(0.990874 -0.382419 0)
(0.269853 0.0378358 -2.5119e-21)
(0.471858 0.0289388 9.44738e-21)
(0.406615 -0.14573 -1.22902e-20)
(0.755128 0.176653 -3.31098e-21)
(0.732473 0.144524 -3.23188e-23)
(0.711709 -0.368335 7.82346e-21)
(0.669068 -0.365223 7.67746e-21)
(0.166938 0.0852793 -8.49296e-21)
(0.131634 0.0595468 4.38538e-21)
(0.0772014 -0.103962 1.00178e-20)
(0.892606 0.51257 -3.77394e-21)
(1.07142 -0.284531 0)
(0.689583 0.324489 0)
(0.784385 -0.223307 0)
(0.147841 -0.110598 9.88484e-21)
(0.913641 0.18041 1.45666e-21)
(0.808247 -0.506077 0)
(0.151693 0.114869 0)
(0.887541 0.385972 -3.13874e-21)
(0.950843 -0.353624 0)
(0.0390795 -0.0488023 -4.53638e-21)
(0.361603 0.0101958 -2.59227e-21)
(0.382753 -0.0445705 -3.73824e-21)
(0.325017 -0.0342124 1.2969e-21)
(0.81345 0.160271 5.31508e-21)
(0.735436 -0.428998 0)
(0.160585 0.104652 7.27329e-21)
(0.696425 0.34452 0)
(0.804899 -0.216393 -4.77213e-21)
(0.155547 -0.125312 6.31492e-21)
(0.664231 0.226964 -1.02948e-20)
(0.703964 0.247873 8.29136e-21)
(0.430169 0.264909 8.73772e-21)
(0.441552 -0.307674 -1.60815e-20)
(0.712563 -0.0233138 1.17502e-20)
(0.841504 0.187128 5.42893e-21)
(0.771513 -0.44035 -6.57868e-21)
(0.128565 0.082484 -6.63348e-21)
(0.913462 0.39131 1.15776e-20)
(0.026347 -0.0398595 1.60581e-20)
(0.972486 -0.374773 3.49804e-21)
(0.353334 0.188294 3.8511e-21)
(0.449973 -0.282629 0)
(0.64963 0.00452611 -4.20939e-21)
(0.249484 0.180937 8.47325e-21)
(0.820532 0.105125 4.14995e-21)
(0.688901 -0.457008 0)
(0.793754 0.41012 1.19936e-21)
(0.91273 -0.254219 4.00892e-21)
(0.116827 -0.115616 -2.85614e-21)
(0.391865 0.253904 -7.14633e-22)
(0.504154 -0.349578 0)
(0.733529 0.00979418 -8.92785e-21)
(0.82534 0.431196 0)
(0.849166 0.43123 0)
(0.949605 -0.270883 2.51397e-21)
(0.102428 -0.109042 7.43562e-21)
(0.964376 -0.296981 -3.54845e-21)
(0.0794764 -0.0903713 -7.88769e-21)
(-0.015166 -0.0161285 5.99337e-21)
(1.01849 -0.473092 0)
(1.02742 0.398695 3.25657e-21)
(0.777256 0.366828 0)
(0.867351 -0.273833 1.89653e-21)
(0.0997396 -0.0902361 -2.56914e-21)
(0.862612 -0.409679 -1.07979e-21)
(-0.0184081 -0.0183906 -8.64044e-21)
(0.821953 0.410229 -2.29617e-21)
(0.545964 0.0487555 1.27613e-20)
(0.25372 0.0753407 0)
(0.461227 -0.21143 4.52023e-21)
(0.757815 0.227558 -7.72761e-21)
(0.755672 -0.34187 0)
(0.0951873 0.0131711 -1.44026e-20)
(0.00329449 -0.0168415 4.9618e-21)
(0.982957 0.377228 -1.00449e-20)
(0.992868 -0.441077 -4.78934e-21)
(0.608108 -0.415435 4.87359e-21)
(0.776794 0.0568288 0)
(0.314418 0.222468 1.03291e-20)
(0.873594 -0.550682 1.26042e-20)
(0.995503 0.212729 3.26687e-21)
(0.110201 0.0922138 0)
(0.644239 -0.241868 5.31697e-21)
(0.141887 -0.0210737 0)
(0.78022 0.278784 -8.29427e-21)
(0.799517 -0.326217 -3.56754e-21)
(0.0768865 -0.0258635 -4.40585e-21)
(0.633174 -0.257195 -1.85127e-22)
(0.14276 -0.00443227 -2.08422e-23)
(0.939285 0.487372 7.50626e-21)
(0.0231383 -0.0601739 -1.17508e-20)
(1.0794 -0.348046 2.86501e-21)
(0.539767 -0.416606 -4.88363e-21)
(0.80558 0.00534451 -8.83161e-22)
(0.436764 0.315307 0)
(0.814084 0.297713 8.45187e-21)
(0.841939 -0.345454 4.3515e-21)
(0.0631202 -0.0206508 1.06801e-20)
(0.672874 0.149406 0)
(0.634242 -0.312232 3.13935e-21)
(0.15997 0.0530048 0)
(0.699229 0.0584268 4.14437e-21)
(0.5551 -0.347545 0)
(0.288136 0.169936 0)
(0.509397 0.154767 3.41245e-21)
(0.558028 -0.162312 5.8788e-21)
(0.196735 -0.0569139 -1.7231e-23)
(0.282924 0.205469 -1.05177e-20)
(0.807553 0.0837085 -1.00309e-20)
(0.658613 -0.445213 -1.31053e-20)
(1.02697 0.354749 3.99318e-21)
(0.988773 -0.484875 -5.11911e-21)
(-0.000652966 -0.00276305 -1.16729e-22)
(0.881571 -0.533246 -8.57988e-21)
(0.984939 0.226669 -3.31143e-21)
(0.093292 0.0779304 -5.46888e-21)
(0.653876 0.421417 7.67721e-21)
(0.30277 -0.258204 -4.13372e-21)
(0.858203 -0.122825 0)
(0.86055 0.477718 -2.06236e-21)
(0.836069 0.461882 1.93009e-21)
(0.979789 -0.259711 7.93031e-22)
(1.01034 -0.271554 -3.21842e-21)
(0.0991143 -0.115123 2.70577e-21)
(0.114273 -0.125001 2.4082e-21)
(-0.0198942 -0.0173465 8.77378e-21)
(0.904563 -0.401742 1.18928e-21)
(0.837731 0.418338 -1.03337e-21)
(0.871977 0.464719 1.08532e-22)
(-0.0181438 -0.018515 0)
(1.02159 -0.381235 0)
(0.794944 0.19643 1.23077e-20)
(0.755213 -0.390598 1.71177e-21)
(0.119116 0.0579005 0)
(-0.00960237 -0.0175462 1.49531e-20)
(1.01301 0.395356 -4.10636e-21)
(1.02037 -0.45829 0)
(0.734898 0.427931 -1.07817e-20)
(0.768118 0.437142 8.03873e-21)
(0.891003 -0.195166 -4.30812e-21)
(0.915941 -0.21614 -1.63716e-21)
(0.196953 -0.178763 4.76512e-21)
(0.165158 -0.156083 2.38865e-21)
(-0.000916369 0.00286146 0)
(0.954802 -0.54361 0)
(1.08868 0.320112 -1.08085e-21)
(0.798448 0.449153 1.75192e-21)
(-0.0172032 -0.0136719 -5.46319e-21)
(0.962154 -0.362202 0)
(0.447284 -0.028027 2.04883e-23)
(0.332545 0.056823 -5.53214e-21)
(0.331776 -0.1017 -2.74988e-21)
(0.877927 0.43455 2.63471e-21)
(0.961074 -0.415868 -1.03031e-21)
(-0.0218444 -0.0183202 -1.09161e-20)
(0.577905 0.318413 -9.51175e-21)
(0.742738 -0.122921 7.69658e-21)
(0.276272 -0.208452 4.4615e-23)
(1.04742 0.37419 -1.05195e-22)
(1.00053 -0.500571 -6.72513e-21)
(-0.0127001 -0.00846249 3.04333e-21)
(0.757463 -0.419363 -4.2301e-23)
(-0.0166829 -0.0228839 9.93916e-21)
(0.800571 0.343623 5.51844e-22)
(0.37838 0.178298 5.14802e-21)
(0.374892 -0.216017 3.28191e-22)
(0.600877 -0.0300128 -1.36291e-20)
(0.497886 0.0559305 0)
(0.450665 -0.171504 1.36084e-20)
(0.242988 0.0338983 -6.99856e-21)
(0.963876 0.463959 -6.11141e-21)
(-0.019175 -0.0260218 -6.90116e-21)
(1.05749 -0.421223 6.46425e-23)
(0.523956 0.0667757 0)
(0.470495 -0.19224 4.72105e-21)
(0.231225 0.0487759 9.90088e-21)
(0.423702 -0.0246664 -5.61746e-21)
(0.330931 0.0365985 5.84253e-21)
(0.335094 -0.0830975 -1.45358e-21)
(0.34318 0.257002 5.04379e-21)
(0.827333 0.0561259 3.48818e-21)
(0.638055 -0.466337 -7.18559e-21)
(0.519702 0.00453792 0)
(0.392984 -0.173612 0)
(0.299027 0.0981402 -8.19119e-22)
(0.545376 0.0336602 -6.86739e-21)
(0.437065 -0.200021 -3.6584e-21)
(0.278886 0.09544 -1.16008e-22)
(0.616666 0.401678 -1.16904e-20)
(0.832443 -0.102692 5.67289e-21)
(0.339677 -0.285839 8.26161e-21)
(-0.0101638 -0.0324441 -1.04738e-20)
(-0.0146095 -0.0287473 1.06354e-20)
(1.06633 -0.414639 -1.77081e-21)
(1.05493 -0.429561 -1.29331e-21)
(0.980028 0.460013 -5.55693e-21)
(0.991614 0.448836 8.29607e-21)
(1.04365 0.355679 -4.97459e-21)
(0.992221 -0.49631 4.3271e-21)
(-0.00445845 -0.000914802 0)
(0.290309 -0.26138 -5.34204e-21)
(0.686135 0.452608 -2.37801e-21)
(0.891688 -0.132272 0)
(0.443199 0.249542 0)
(0.385942 -0.259889 5.07786e-21)
(0.680299 -0.0470972 -4.17076e-21)
(0.891638 0.134204 0)
(0.761401 -0.506738 -4.54745e-21)
(0.214978 0.163299 -1.60821e-22)
(0.832426 -0.473753 -1.42153e-21)
(-0.0231185 -0.0273321 0)
(0.949381 0.347721 2.12893e-21)
(0.032734 0.0332607 0)
(1.0725 0.286111 0)
(0.944015 -0.559418 -3.03371e-21)
(0.976752 0.43361 -1.95066e-21)
(-0.0252142 -0.0220578 0)
(1.01586 -0.450498 1.64829e-21)
(-0.0136384 -0.0199145 3.69706e-32)
(0.712836 -0.394358 2.10993e-22)
(0.736533 0.331642 -4.80076e-22)
(0.75038 -0.346319 -2.14764e-22)
(-0.0122251 -0.0144711 -3.68826e-32)
(0.698978 0.377902 4.42878e-22)
(0.842906 -0.439042 8.79064e-21)
(0.884441 0.245417 0)
(0.0792354 0.0424812 1.41271e-20)
(0.922074 -0.524485 9.45229e-22)
(-0.0163877 -0.0153675 0)
(1.07329 0.337266 0)
(0.940619 0.348935 5.12341e-21)
(0.948983 -0.424253 -4.55718e-21)
(0.0216002 -0.0113024 -7.32429e-21)
(0.919888 0.511893 -7.13389e-21)
(0.00884776 -0.0461298 -4.19782e-21)
(1.11499 -0.34337 0)
(0.580915 0.181548 -2.6056e-21)
(0.156919 -0.0337336 2.79803e-21)
(0.623666 -0.217552 -2.57165e-21)
(0.95515 -0.550925 0)
(0.00838799 0.0120594 -5.0437e-21)
(1.08678 0.310023 -1.35162e-21)
(0.867912 0.117536 4.02961e-21)
(0.241064 0.183034 2.87463e-21)
(0.732501 -0.492645 0)
(0.823228 -0.497595 0)
(0.915191 0.198743 0)
(0.125135 0.0955598 -5.13199e-21)
(-0.00370662 -0.00943961 0)
(0.432488 -0.214285 -4.72762e-22)
(0.423137 0.206048 2.26449e-22)
(0.851857 -0.431673 -9.01425e-22)
(-0.0199524 -0.0211815 6.01315e-21)
(0.85075 0.394882 1.19166e-21)
(0.543461 0.155748 6.74907e-21)
(0.176612 -0.0331953 -6.66363e-21)
(0.577944 -0.195354 -2.97913e-21)
(0.974784 -0.519527 -5.46213e-21)
(1.07216 0.352207 2.17913e-21)
(-0.0117995 -0.00572807 0)
(-0.00321939 -0.000445534 5.26423e-21)
(1.09698 0.3187 0)
(0.937633 -0.547885 4.13942e-21)
(0.997138 0.418778 2.99761e-21)
(-0.00865445 -0.0253492 -1.60239e-20)
(1.03406 -0.434463 -5.63253e-21)
(0.049967 -0.0796506 1.20932e-20)
(1.06033 -0.318414 -3.43628e-21)
(0.912791 0.489357 0)
(0.595577 0.408637 1.47984e-20)
(0.837678 -0.0852015 -7.2285e-21)
(0.384108 -0.321495 7.83484e-21)
(0.961132 -0.234384 -1.16638e-21)
(0.805014 0.466931 -4.61761e-21)
(0.150193 -0.152345 7.45319e-21)
(0.0446947 -0.0788783 1.08191e-20)
(0.915287 0.517204 0)
(1.10115 -0.313908 2.08985e-21)
(0.610971 0.307957 2.39502e-21)
(0.655435 0.335239 0)
(0.737578 -0.161448 8.08813e-21)
(0.780741 -0.183449 -8.64931e-21)
(0.21593 -0.154667 -5.20522e-21)
(0.193525 -0.150658 0)
(0.575001 0.30067 2.33491e-21)
(0.72279 -0.134643 0)
(0.253622 -0.18172 -2.46769e-21)
(0.721606 0.440479 0)
(0.893683 -0.178736 6.95278e-21)
(0.222696 -0.201521 -1.71868e-21)
(0.862654 -0.514671 4.33923e-21)
(0.958089 0.219912 -3.56599e-21)
(0.098802 0.0771371 1.1197e-20)
(0.979281 -0.52084 0)
(1.05378 0.343363 -7.59942e-22)
(-0.00116911 0.00378302 0)
(0.0622521 0.0471199 3.63022e-21)
(0.975135 0.260054 2.15838e-21)
(0.901058 -0.50464 2.79292e-21)
(0.80417 -0.352793 5.2286e-24)
(-0.0140454 -0.0137699 -1.20499e-24)
(0.732279 0.398448 0)
(0.443796 0.196794 -4.69666e-21)
(0.453935 0.186872 0)
(0.2943 -0.164386 1.21309e-21)
(0.600228 -0.0814008 -1.65279e-20)
(0.270277 -0.141297 -1.53506e-21)
(0.587041 -0.099078 1.05612e-20)
(0.658736 0.397107 0)
(0.611211 0.366916 1.51755e-21)
(0.2886 -0.231502 -1.95155e-23)
(0.834221 -0.147878 -4.54552e-21)
(0.260766 -0.215335 -1.25741e-20)
(0.795489 -0.126106 9.72106e-21)
(0.739073 -0.435054 0)
(-0.018557 -0.0263541 -1.08338e-20)
(0.840003 0.331388 0)
(0.981856 -0.513575 3.45131e-21)
(1.06533 0.355206 -7.37486e-22)
(-0.0108312 -0.0056505 -3.19463e-21)
(0.470851 0.291569 2.85824e-21)
(0.424358 -0.310039 5.74605e-21)
(0.734181 -0.0410761 -1.32098e-20)
(0.822558 -0.532481 -9.54312e-21)
(0.945299 0.173293 -9.14622e-21)
(0.159471 0.128846 0)
(0.0646578 -0.0918433 -1.29324e-20)
(1.04945 -0.30457 3.65512e-21)
(0.898904 0.489878 0)
(0.930235 -0.458645 0)
(0.949053 0.405419 0)
(-0.0250651 -0.0224537 0)
(0.941101 -0.474186 0)
(0.982109 0.395749 -2.75596e-21)
(-0.0260697 -0.0228445 0)
(0.767558 0.4172 4.49126e-21)
(0.900019 -0.232075 -2.49589e-21)
(0.14627 -0.137623 -3.53558e-21)
(0.327177 0.167416 1.35813e-21)
(0.459859 -0.271167 0)
(0.630791 0.0197764 -4.52833e-21)
(1.00117 0.428737 -3.49265e-21)
(-0.0130763 -0.0255302 -9.29193e-21)
(1.04604 -0.437102 8.06766e-21)
(0.85784 -0.463971 0)
(0.912174 0.247364 0)
(0.0768779 0.0516812 -1.21824e-20)
(0.0183471 -0.0427892 -3.06663e-21)
(1.00392 -0.382035 -5.90506e-21)
(0.935657 0.418126 -1.0479e-20)
(0.583155 0.357258 -1.54588e-21)
(0.32242 -0.254946 8.42813e-21)
(0.782601 -0.107745 -5.02162e-21)
(0.735385 0.112552 8.06468e-21)
(0.638795 -0.374021 -4.75267e-21)
(0.215918 0.127283 -1.04035e-20)
(0.407826 0.215919 -9.32771e-23)
(0.392292 -0.252134 1.67847e-21)
(0.650108 -0.0348519 5.46386e-21)
(-0.0173476 -0.0204431 3.6272e-21)
(1.03333 -0.459724 -3.42018e-21)
(1.01666 0.415547 -3.54279e-21)
(0.882138 0.41132 1.99946e-21)
(0.969326 -0.336657 1.85904e-21)
(0.048391 -0.0631144 0)
(0.387979 0.17036 5.0932e-21)
(0.344472 -0.187797 -1.06478e-20)
(0.582308 -0.0448273 9.00809e-21)
(0.916671 0.522485 -2.95365e-21)
(0.0330281 -0.0688013 -4.78235e-21)
(1.11593 -0.321316 -1.40842e-22)
(0.54747 0.251391 2.91768e-21)
(0.665561 -0.145108 0)
(0.224318 -0.142038 0)
(0.593244 0.10842 1.21132e-20)
(0.54938 -0.249852 -2.90086e-21)
(0.194238 0.051528 0)
(0.813806 -0.468189 0)
(0.886545 0.201666 -7.76178e-21)
(0.116071 0.0836535 5.37453e-21)
(0.89831 0.485243 0)
(-0.0124048 -0.0255249 1.46994e-21)
(1.07547 -0.373119 -1.30216e-21)
(0.896447 0.497627 -2.54353e-21)
(-0.00636098 -0.0301126 -4.69399e-21)
(1.09322 -0.357469 1.65472e-21)
(0.0232043 -0.0515479 -2.78783e-21)
(1.01832 -0.367496 3.30996e-21)
(0.931449 0.434898 9.66282e-21)
(0.761484 0.0986271 3.61065e-21)
(0.650156 -0.404544 9.5427e-21)
(0.241326 0.152153 0)
(-0.0145438 -0.0196449 -1.34648e-21)
(1.04724 -0.367658 1.22116e-21)
(0.85607 0.474923 0)
(0.0120892 -0.009273 0)
(0.96997 -0.443168 3.51679e-21)
(0.970906 0.356112 1.18029e-21)
(-0.0106736 -0.0194885 -5.43336e-21)
(0.605504 -0.367578 -4.97805e-22)
(0.659265 0.276604 0)
(0.591973 0.351811 7.22092e-22)
(0.671714 -0.288555 0)
(-0.00855341 -0.0105347 -5.44072e-21)
(0.0396327 -0.0731824 2.4404e-24)
(1.08514 -0.327053 3.81734e-22)
(0.921514 0.503343 0)
(-0.0242228 -0.01967 0)
(1.01257 -0.473774 0)
(1.02267 0.411889 -4.25916e-21)
(0.971256 0.46017 3.19331e-21)
(0.965493 0.450022 -2.58325e-21)
(-0.00126272 -0.0400185 5.26036e-21)
(1.06887 -0.39352 6.13258e-22)
(0.00306136 -0.0414552 0)
(1.05247 -0.39227 0)
(0.977256 0.33725 -2.32436e-21)
(0.958102 -0.459535 -2.39627e-21)
(0.0163991 0.000477193 0)
(0.200722 0.161809 0)
(0.79028 -0.534468 0)
(0.929118 0.147112 0)
(0.444559 0.151093 -6.36098e-21)
(0.251775 -0.104318 1.47212e-20)
(0.544034 -0.107213 -5.85841e-21)
(0.963057 0.28998 -6.74411e-21)
(0.915949 -0.477965 -9.38075e-22)
(0.040756 0.0256498 -1.0701e-20)
(0.0571585 0.0391962 -6.94411e-21)
(0.954224 0.270867 9.38124e-21)
(0.895691 -0.483934 1.30079e-21)
(0.899449 0.528096 -3.64399e-21)
(0.0673755 -0.0977026 -5.17478e-21)
(1.0969 -0.28949 0)
(0.673701 0.415554 0)
(0.856804 -0.149117 -2.06323e-21)
(0.26191 -0.224156 1.23258e-20)
(0.61273 0.344156 0)
(0.773884 -0.136551 -1.01062e-20)
(0.263329 -0.2082 1.27449e-23)
(0.876382 0.278782 9.33036e-21)
(0.864061 -0.415271 -1.19917e-21)
(0.055859 0.0131022 6.169e-21)
(0.897193 0.273584 0)
(0.870015 -0.434235 -1.13662e-21)
(0.0578005 0.0229415 -5.64084e-21)
(0.362461 0.143452 0)
(0.34975 -0.174517 1.67939e-20)
(0.552345 -0.0343257 0)
(0.66744 0.354086 0)
(0.799309 -0.182187 5.57866e-21)
(0.19757 -0.163297 -1.87208e-21)
(0.0201143 0.0223923 1.09125e-20)
(0.940833 -0.563314 6.75334e-21)
(1.09428 0.293862 0)
(1.00261 0.37653 5.61183e-23)
(-0.0251185 -0.0238015 -3.33244e-21)
(0.907168 -0.487807 -1.08975e-21)
(0.992366 0.354465 2.16196e-22)
(-0.0238879 -0.0257246 0)
(0.872535 -0.487237 3.00544e-21)
(0.494112 0.25956 -3.46953e-21)
(0.312419 -0.207192 1.81797e-21)
(0.673556 -0.0900525 1.56676e-22)
(0.877722 -0.448437 -2.11778e-22)
(-0.0231685 -0.0234968 -1.37903e-20)
(0.91713 0.388897 0)
(0.906889 0.435432 -8.48746e-21)
(0.0395793 -0.0625926 0)
(1.00331 -0.344286 0)
(-0.0221912 -0.0261438 5.46643e-21)
(0.827569 -0.460899 1.22111e-21)
(0.912051 0.357597 -1.52983e-21)
(0.474736 0.0804335 -8.48694e-21)
(0.232794 -0.00105874 -8.90505e-21)
(0.466803 -0.149149 -4.22459e-23)
(0.724377 0.276508 1.45667e-21)
(0.771265 -0.282708 1.32951e-21)
(0.100377 -0.0475602 5.65428e-21)
(0.605495 -0.388093 -1.09707e-20)
(0.742802 0.0746559 -1.31982e-20)
(0.278099 0.175223 0)
(-0.0138028 -0.010753 0)
(0.941062 -0.527924 1.27962e-21)
(1.0795 0.340782 0)
(0.843799 -0.476787 0)
(0.913952 0.230402 0)
(0.091571 0.0652037 0)
(0.0166848 -0.0547627 0)
(0.929436 0.510561 2.55937e-21)
(1.11236 -0.341158 -1.98129e-21)
(0.767433 0.295975 0)
(0.807041 -0.308542 -6.78801e-22)
(0.0829399 -0.0404877 -7.23771e-24)
(0.427618 0.131101 6.14468e-21)
(0.257792 -0.0934839 -1.26443e-20)
(0.518722 -0.100318 0)
(0.96883 -0.516229 5.16304e-21)
(1.06278 0.363836 -2.07104e-21)
(-0.0174984 -0.0122751 0)
(0.00657192 -0.0251099 6.38833e-21)
(0.99476 -0.422399 -2.20794e-22)
(0.963756 0.391944 -2.41127e-22)
(0.935589 0.465797 0)
(0.921007 0.461846 -2.18529e-21)
(-0.0189129 -0.0236542 -3.37347e-21)
(-0.0207082 -0.0213519 4.17539e-21)
(1.05232 -0.403728 9.46827e-22)
(1.0337 -0.408582 -7.78699e-22)
(0.72489 0.183214 0)
(0.694924 -0.343444 -9.10405e-21)
(0.13088 0.0436115 -6.85823e-21)
(0.806968 -0.418102 -1.23685e-20)
(0.848739 0.224355 0)
(0.092386 0.0488669 7.4806e-21)
(0.554862 0.122396 6.8902e-21)
(0.547318 -0.215411 -4.92062e-21)
(0.180836 0.0108801 -1.08945e-20)
(0.931625 -0.504222 -2.78292e-21)
(1.03708 0.369253 -2.10089e-21)
(0.914707 -0.513785 1.25623e-21)
(-0.0236871 -0.0209412 3.52978e-21)
(1.04925 0.350853 1.97062e-21)
(-0.0207611 -0.0203539 0)
(0.852115 0.335682 0)
(0.888827 -0.360311 0)
(0.0494597 -0.0304961 -6.97789e-21)
(1.0495 0.378003 -2.37533e-21)
(1.03879 0.379565 6.06983e-21)
(0.9785 -0.502969 -1.82086e-21)
(0.962768 -0.497761 4.89587e-21)
(-0.0222323 -0.0164422 -9.33918e-21)
(-0.0243725 -0.0194593 7.71398e-24)
(0.824507 0.206648 0)
(0.776042 -0.418625 1.17224e-20)
(0.116716 0.0683727 -9.69796e-21)
(0.677108 0.206743 -6.36997e-21)
(0.72093 -0.296146 8.1171e-21)
(0.106415 -0.0128951 0)
(0.924087 0.50181 0)
(-0.00149702 -0.0376237 -6.4884e-22)
(1.10296 -0.362181 -1.58994e-21)
(0.728451 0.204111 -4.68103e-21)
(0.714609 -0.331705 0)
(0.114679 0.0256507 1.13694e-20)
(0.597123 0.149756 -2.77649e-21)
(0.597569 -0.246481 5.7742e-21)
(0.158528 0.00721121 -6.30888e-21)
(0.921314 0.476982 0)
(-0.0145383 -0.0262077 0)
(1.07387 -0.390189 2.26658e-21)
(0.776263 0.319305 0)
(0.837102 -0.299066 -1.36363e-21)
(0.0795659 -0.0560439 6.94522e-21)
(0.716881 -0.501286 0)
(0.869698 0.101952 0)
(0.273312 0.211043 3.69068e-22)
(0.582883 0.370717 3.79263e-22)
(0.797492 -0.0957556 0)
(0.344522 -0.277718 -6.48501e-21)
(0.896231 -0.567653 -4.85903e-21)
(0.0924683 0.0812209 0)
(1.03214 0.227892 0)
(-0.00709926 -0.0130135 1.30722e-20)
(0.569953 -0.284934 6.62194e-22)
(0.557766 0.273492 -3.17181e-22)
(0.748627 0.24627 0)
(0.756121 -0.319022 -4.9809e-21)
(0.0920215 -0.00921596 0)
(0.95465 0.484376 -4.93101e-21)
(-0.00409076 -0.0381765 -1.77416e-20)
(1.09007 -0.380171 4.12663e-21)
(0.462761 -0.369491 0)
(0.814846 -0.0402851 4.80091e-21)
(0.515373 0.362201 0)
(0.708421 0.412256 0)
(-0.0143319 -0.0108792 3.24656e-21)
(0.850618 -0.340172 0)
(0.266433 0.116784 -6.71563e-21)
(0.280957 0.139028 6.86654e-21)
(0.485903 -0.260509 0)
(0.604717 0.0489307 -5.76321e-21)
(0.504393 -0.288159 1.07028e-20)
(0.635769 0.0449394 4.59004e-21)
(0.551999 0.0995344 -6.48419e-21)
(0.518238 -0.213824 -6.62616e-21)
(0.201739 0.0346741 0)
(0.340341 0.15947 -5.93261e-21)
(0.3017 0.132681 0)
(0.414461 -0.234053 0)
(0.598992 -0.00369027 0)
(0.43377 -0.230584 6.15111e-21)
(0.583408 0.0176651 -3.8231e-23)
(0.714557 0.233142 -4.01525e-22)
(0.680616 -0.288528 3.58779e-21)
(0.123771 0.00201947 7.76328e-21)
(0.682864 0.193123 1.09465e-20)
(0.679759 -0.300804 0)
(0.128442 0.0170474 0)
(-0.0216716 -0.0244558 0)
(0.87188 -0.505776 0)
(1.02697 0.341701 -1.63154e-21)
(0.533585 0.271882 9.53046e-21)
(0.686588 -0.114782 0)
(0.271724 -0.182898 -3.36274e-21)
(1.03902 0.392391 5.82517e-21)
(1.00172 -0.491616 -2.40167e-21)
(-0.0225915 -0.0162386 5.33361e-21)
(0.892577 0.307749 0)
(0.923868 0.323246 -4.93017e-21)
(0.894813 -0.408882 1.49508e-21)
(0.922929 -0.42415 -4.50868e-21)
(0.0407904 -0.000575507 7.65858e-21)
(0.030523 -0.00184961 7.06924e-21)
(0.520423 0.247405 0)
(0.65885 -0.122163 0)
(0.255708 -0.162579 -1.599e-21)
(0.709288 0.400717 -3.65604e-21)
(0.855268 -0.188174 0)
(0.201121 -0.174245 -4.10261e-21)
(0.828835 0.290041 2.66643e-21)
(0.842565 -0.36974 0)
(0.0589036 -0.007184 -7.05425e-21)
(0.367904 0.0783978 -6.66415e-21)
(0.463674 -0.059298 -3.22763e-21)
(0.2974 -0.0915511 -3.40864e-21)
(0.937493 0.296898 0)
(0.908613 -0.453912 0)
(0.0405202 0.017583 1.13794e-20)
(0.419876 0.154267 0)
(0.282091 -0.13138 -1.85612e-21)
(0.549865 -0.0827166 0)
(0.819474 0.22571 6.07855e-21)
(0.78553 -0.399942 6.51276e-21)
(0.0961093 0.0394727 9.73892e-22)
(0.707482 0.379501 -3.69281e-21)
(0.838744 -0.201102 -6.35644e-21)
(0.178904 -0.155378 0)
(0.379304 0.103749 6.60496e-21)
(0.360816 0.106079 2.94501e-21)
(0.492224 -0.0673417 -3.14235e-21)
(0.293247 -0.107752 6.74774e-21)
(0.5041 -0.0498925 0)
(0.31729 -0.130924 1.20082e-20)
(0.32714 0.12197 2.97394e-21)
(0.377738 -0.186382 -7.82295e-21)
(0.304057 0.120325 -1.91336e-21)
(0.543942 -0.0111069 0)
(0.423982 -0.216363 -3.93763e-21)
(0.565751 0.013396 6.59809e-21)
(0.59848 0.285517 -3.45741e-21)
(0.638665 0.294919 0)
(0.712957 -0.168684 -6.11519e-21)
(0.735622 -0.196266 4.77353e-21)
(0.201069 -0.135936 1.50487e-20)
(0.16974 -0.11382 -1.25139e-20)
(0.0397099 -0.0698145 0)
(1.04309 -0.334972 1.98015e-21)
(0.918217 0.468903 4.86878e-21)
(0.299743 0.224265 -1.24842e-20)
(0.835138 0.0809949 -5.50133e-21)
(0.674312 -0.473114 1.12892e-20)
(0.0242344 -0.0590094 6.02625e-21)
(0.0157064 -0.0509704 0)
(1.05694 -0.355843 -1.71299e-21)
(1.04432 -0.372287 -3.02633e-21)
(0.936476 0.472225 -1.2301e-20)
(0.946829 0.455 6.36755e-21)
(0.411704 0.277906 0)
(0.513243 -0.368549 6.23205e-21)
(0.756792 0.00324889 -1.31332e-21)
(0.36609 0.035127 -1.40633e-20)
(0.306969 -0.0500637 0)
(0.409969 -0.0551194 1.10725e-20)
(0.947791 0.318737 2.30605e-21)
(0.930299 -0.448367 5.09045e-21)
(0.0288007 0.00644118 0)
(0.473552 0.219693 0)
(0.28561 -0.176433 1.52356e-21)
(0.628281 -0.0931628 5.35579e-21)
(0.732597 0.386916 0)
(0.857604 -0.218227 0)
(0.157987 -0.140079 9.84703e-22)
(0.880163 0.470806 0)
(0.879191 0.452576 0)
(1.01805 -0.299391 -1.14016e-21)
(0.0747855 -0.0956756 7.43297e-21)
(1.00168 -0.307966 3.109e-21)
(0.0668346 -0.0862914 -1.00647e-20)
(0.882853 0.336851 -4.9951e-21)
(0.911427 -0.381172 -4.81083e-21)
(0.0373593 -0.0214665 -3.33566e-21)
(0.777944 0.42539 -1.85635e-21)
(0.906501 -0.36685 0)
(-0.0172944 -0.0136952 3.98564e-21)
(0.487687 -0.377993 0)
(0.796094 -0.0226106 -3.91016e-21)
(0.476294 0.33204 0)
(0.547567 0.375365 -3.8236e-21)
(0.52646 0.351815 4.15209e-21)
(0.417787 -0.335717 4.02484e-21)
(0.812613 -0.0617104 0)
(0.417561 -0.325216 0)