/*--------------------------------*- C++ -*----------------------------------*\
  =========                 |
  \\      /  F ield         | OpenFOAM: The Open Source CFD Toolbox
   \\    /   O peration     | Website:  https://openfoam.org
    \\  /    A nd           | Version:  6
     \\/     M anipulation  |
\*---------------------------------------------------------------------------*/
FoamFile
{
    version     2.0;
    format      ascii;
    class       volScalarField;
    location    "0";
    object      p;
}
// * * * * * * * * * * * * * * * * * * * * * * * * * * * * * * * * * * * * * //

dimensions      [0 2 -2 0 0 0 0];

internalField   nonuniform List<scalar> 
13046
(
0.751634
0.737426
0.820608
0.748463
0.804064
0.764172
0.73375
0.766324
0.815178
0.590731
0.635057
0.842047
0.731946
0.732885
0.823005
0.640106
0.844603
0.627244
0.790939
0.789059
0.744427
0.631462
0.844482
0.631298
0.754867
0.7596
0.806609
0.727768
0.72605
0.830559
0.75877
0.725574
0.817335
0.76606
0.800822
0.757891
0.764216
0.799386
0.766251
0.779523
0.818488
0.697701
0.767948
0.786908
0.776359
0.760279
0.784143
0.784519
0.740742
0.741572
0.821924
0.809894
0.800391
0.657999
0.814903
0.643999
0.808474
0.632296
0.722917
0.842719
0.674306
0.752353
0.8294
0.839689
0.68087
0.640892
0.736547
0.62979
0.8399
0.743659
0.633823
0.837898
0.624539
0.717105
0.843339
0.791096
0.799161
0.732348
0.846344
0.69372
0.631969
0.747215
0.760942
0.808509
0.840498
0.672604
0.630031
0.61145
0.838944
0.716255
0.838369
0.572083
0.738417
0.693776
0.68051
0.709876
0.70865
0.834344
0.838292
0.839364
0.608646
0.728451
0.755562
0.790229
0.780873
0.813639
0.666838
0.804259
0.792524
0.816457
0.673407
0.542242
0.841605
0.589363
0.736835
0.740728
0.817592
0.690875
0.697436
0.683615
0.839276
0.696356
0.837056
0.582679
0.619763
0.843075
0.71624
0.70812
0.834907
0.772506
0.820119
0.700415
0.83439
0.580863
0.753234
0.656455
0.708837
0.83757
0.753183
0.722275
0.819658
0.698461
0.779595
0.816658
0.795922
0.811169
0.670048
0.809527
0.678696
0.804569
0.672588
0.741217
0.829941
0.813395
0.707699
0.788696
0.798522
0.637995
0.791172
0.634893
0.818994
0.823526
0.692824
0.779158
0.81155
0.583708
0.841274
0.650157
0.560335
0.841307
0.59948
0.654289
0.697183
0.840507
0.774254
0.672003
0.828231
0.695544
0.80719
0.785069
0.844086
0.671805
0.580727
0.7761
0.681656
0.821979
0.813165
0.697963
0.790863
0.70751
0.77879
0.811712
0.733381
0.828375
0.719185
0.719545
0.829706
0.613481
0.839148
0.691949
0.836391
0.600606
0.744975
0.582655
0.728627
0.835461
0.815253
0.632394
0.799069
0.719711
0.69943
0.84742
0.624405
0.709932
0.579298
0.840288
0.75471
0.799879
0.772381
0.73692
0.723413
0.829538
0.836906
0.591927
0.754508
0.712452
0.742129
0.828872
0.842235
0.63075
0.55657
0.803721
0.630001
0.811264
0.595043
0.735914
0.836116
0.661788
0.785781
0.821088
0.717526
0.704771
0.83609
0.777859
0.59451
0.827678
0.621971
0.789014
0.823273
0.841283
0.636629
0.542819
0.790986
0.823112
0.668252
0.566033
0.840762
0.554823
0.792548
0.745681
0.784271
0.671005
0.672657
0.775215
0.782625
0.821919
0.819471
0.843825
0.682989
0.625237
0.729162
0.705925
0.832035
0.618768
0.776341
0.829319
0.672604
0.697624
0.838548
0.77528
0.767981
0.788684
0.64829
0.782808
0.823348
0.732606
0.692036
0.834017
0.716349
0.71084
0.794158
0.821849
0.65917
0.646009
0.773406
0.825723
0.659259
0.839917
0.69854
0.79845
0.810822
0.684075
0.819976
0.629081
0.798459
0.711536
0.674783
0.83683
0.798261
0.813625
0.656288
0.702761
0.693342
0.671172
0.838949
0.671902
0.841754
0.842629
0.675335
0.593148
0.706609
0.69786
0.837788
0.541108
0.841495
0.519181
0.726388
0.79721
0.786494
0.685715
0.753749
0.827125
0.839687
0.626907
0.70009
0.81565
0.631906
0.809541
0.767188
0.594394
0.831489
0.755219
0.822898
0.68768
0.738518
0.831604
0.755939
0.820063
0.652536
0.842843
0.635995
0.822482
0.622924
0.799716
0.678862
0.736277
0.832822
0.691917
0.777958
0.81979
0.66865
0.802908
0.807777
0.747244
0.749443
0.814649
0.811934
0.631315
0.803762
0.600937
0.707441
0.837418
0.767953
0.597919
0.83293
0.755519
0.833671
0.640185
0.697169
0.704632
0.655122
0.647337
0.840329
0.839846
0.840376
0.550019
0.532888
0.576983
0.841664
0.562314
0.663394
0.772973
0.820035
0.839094
0.610737
0.678533
0.732325
0.72444
0.657194
0.655986
0.839389
0.839305
0.836899
0.704871
0.552363
0.560046
0.841854
0.533196
0.750597
0.783654
0.79269
0.546158
0.565173
0.841034
0.763293
0.678565
0.828027
0.580878
0.681107
0.843582
0.565794
0.839621
0.478773
0.782659
0.812961
0.705617
0.733289
0.787676
0.799947
0.592047
0.843964
0.610877
0.724858
0.787413
0.802492
0.757375
0.783241
0.789456
0.81257
0.616341
0.814765
0.722195
0.802072
0.792056
0.728733
0.790072
0.791937
0.764168
0.640153
0.832085
0.846159
0.845653
0.638767
0.643235
0.613505
0.606323
0.586862
0.706773
0.83881
0.839722
0.753916
0.627284
0.780994
0.819521
0.681344
0.613941
0.791105
0.819651
0.620522
0.839827
0.493009
0.839497
0.571336
0.728936
0.564439
0.842536
0.614479
0.83798
0.548232
0.477351
0.516583
0.837732
0.502922
0.759354
0.645002
0.82815
0.679392
0.837784
0.525469
0.644088
0.715763
0.838089
0.632683
0.844187
0.592896
0.729074
0.818538
0.757089
0.713416
0.838474
0.559468
0.617887
0.817085
0.794433
0.769935
0.621706
0.831834
0.835451
0.469671
0.444417
0.56598
0.841787
0.502263
0.737826
0.814927
0.756538
0.696599
0.556618
0.838115
0.840036
0.539055
0.701764
0.616674
0.840662
0.675072
0.84414
0.642664
0.669095
0.774291
0.628348
0.835003
0.646492
0.71749
0.843306
0.845484
0.665344
0.611825
0.748521
0.743155
0.695317
0.689626
0.829651
0.832283
0.757368
0.691358
0.828395
0.741821
0.644126
0.841717
0.769075
0.609421
0.830765
0.701014
0.581943
0.84338
0.832305
0.613344
0.751963
0.515924
0.838181
0.51788
0.774291
0.767208
0.817352
0.713319
0.81785
0.722593
0.754723
0.756055
0.833207
0.653628
0.836056
0.663521
0.58038
0.838965
0.479121
0.69917
0.566618
0.838425
0.784361
0.820036
0.660156
0.783408
0.602899
0.826058
0.843942
0.642464
0.678357
0.601903
0.526426
0.840808
0.620773
0.529095
0.841237
0.721336
0.667533
0.840636
0.800601
0.804099
0.692293
0.609632
0.841265
0.659017
0.759212
0.632685
0.834058
0.841947
0.680684
0.654906
0.763713
0.833952
0.659685
0.66477
0.791626
0.81453
0.785276
0.817908
0.687777
0.842015
0.662241
0.595267
0.677749
0.684386
0.840486
0.78106
0.812273
0.713887
0.654425
0.845952
0.602168
0.751345
0.712743
0.826023
0.715046
0.777916
0.811744
0.771587
0.632143
0.8274
0.597914
0.843976
0.572305
0.610373
0.844423
0.572892
0.842831
0.669656
0.658986
0.651039
0.801262
0.812635
0.844012
0.554878
0.583831
0.838077
0.708434
0.63309
0.837433
0.536953
0.464346
0.493985
0.494301
0.838939
0.845365
0.624522
0.663302
0.84206
0.648709
0.569773
0.630741
0.637265
0.841033
0.643242
0.841295
0.657518
0.62505
0.721311
0.837774
0.82867
0.79171
0.599511
0.767227
0.809498
0.738318
0.624578
0.737566
0.836373
0.835245
0.625585
0.744949
0.67821
0.845148
0.609621
0.753231
0.644295
0.838007
0.757554
0.674446
0.828784
0.653877
0.745892
0.835805
0.645911
0.747264
0.834947
0.782604
0.804368
0.725607
0.744176
0.677923
0.836246
0.839175
0.72513
0.554793
0.518176
0.840638
0.634736
0.503486
0.839375
0.639775
0.770216
0.824465
0.692056
0.594631
0.839475
0.509423
0.671557
0.841628
0.671011
0.840899
0.602276
0.492312
0.749624
0.800207
0.771536
0.710016
0.734051
0.828926
0.803265
0.655538
0.809573
0.837313
0.6867
0.537575
0.760163
0.631662
0.831874
0.844376
0.642322
0.606083
0.696609
0.730789
0.835377
0.76918
0.80781
0.74298
0.676027
0.549598
0.841035
0.841768
0.692581
0.638302
0.586643
0.575739
0.841327
0.841475
0.596277
0.586161
0.683302
0.77051
0.82353
0.763449
0.652888
0.824364
0.725116
0.769678
0.816616
0.652871
0.528081
0.659973
0.841504
0.523348
0.840142
0.676818
0.718243
0.838105
0.552095
0.541096
0.664509
0.655004
0.841049
0.839534
0.652678
0.77096
0.830862
0.703437
0.753131
0.825716
0.619981
0.845468
0.591008
0.691905
0.757577
0.823716
0.719611
0.764069
0.814968
0.594016
0.843778
0.587342
0.702299
0.714614
0.831373
0.806137
0.608596
0.817409
0.769657
0.647401
0.832879
0.765199
0.832706
0.579914
0.837075
0.490456
0.460381
0.691158
0.747843
0.828049
0.622266
0.84216
0.618692
0.828739
0.624376
0.787245
0.524036
0.841465
0.517326
0.803582
0.800443
0.796962
0.700405
0.80278
0.690824
0.725011
0.776317
0.809141
0.789111
0.796913
0.80742
0.704262
0.806722
0.701542
0.699077
0.757413
0.826035
0.700785
0.76338
0.824824
0.839878
0.652342
0.507099
0.762688
0.698129
0.823128
0.566575
0.661677
0.842454
0.654222
0.64592
0.734464
0.726691
0.834231
0.834454
0.75784
0.711304
0.823872
0.736619
0.667079
0.836087
0.673079
0.736319
0.836013
0.773788
0.753713
0.797566
0.636258
0.736959
0.83569
0.769464
0.808722
0.734639
0.66374
0.761072
0.830583
0.731556
0.680191
0.836082
0.773525
0.77832
0.743383
0.805539
0.738456
0.804635
0.786584
0.799433
0.796254
0.725629
0.806671
0.709022
0.746554
0.738243
0.705331
0.710678
0.829045
0.828337
0.842719
0.650484
0.667775
0.812476
0.619821
0.808006
0.844629
0.84391
0.647229
0.65836
0.655984
0.649493
0.796846
0.82095
0.642634
0.772953
0.790664
0.767052
0.636965
0.72618
0.836665
0.771596
0.818798
0.708006
0.725061
0.680659
0.836945
0.688785
0.686555
0.649488
0.843735
0.660682
0.842035
0.665021
0.71996
0.835624
0.535208
0.536098
0.841678
0.823986
0.630393
0.790306
0.779203
0.780011
0.830078
0.633075
0.832538
0.638901
0.618015
0.758046
0.832432
0.743153
0.667941
0.836153
0.79179
0.821504
0.645459
0.775106
0.773665
0.824808
0.831636
0.661106
0.661163
0.774547
0.832133
0.647359
0.663859
0.728728
0.836197
0.776603
0.806079
0.733712
0.603431
0.841962
0.617186
0.790264
0.825753
0.63817
0.724223
0.713649
0.687938
0.685256
0.834217
0.839327
0.842734
0.623631
0.612388
0.616643
0.844673
0.600821
0.604867
0.842846
0.602386
0.67519
0.84276
0.660617
0.746233
0.677132
0.834268
0.773001
0.825187
0.848493
0.777088
0.846524
0.651834
0.836527
0.772965
0.800614
0.840603
0.8388
0.796935
0.78247
0.844298
0.823523
0.796319
0.77064
0.827692
0.825271
0.833106
0.826518
0.823552
0.839762
0.844726
0.851336
0.827259
0.849949
0.800367
0.832028
0.771764
0.804803
0.833235
0.832228
0.822435
0.811335
0.836127
0.847573
0.8409
0.781966
0.804744
0.824748
0.836985
0.814823
0.842282
0.828849
0.824338
0.827022
0.825277
0.797588
0.817659
0.848841
0.822861
0.798057
0.834055
0.803789
0.846713
0.83609
0.832329
0.829819
0.841413
0.817717
0.815918
0.850963
0.778859
0.834079
0.836118
0.830877
0.843674
0.840665
0.827774
0.80744
0.814318
0.813351
0.835343
0.809866
0.819998
0.820297
0.809596
0.838238
0.842724
0.825344
0.830701
0.796444
0.800639
0.825237
0.841325
0.824238
0.770551
0.826073
0.848371
0.800624
0.84099
0.851664
0.82145
0.787303
0.602379
0.812296
0.827026
0.787334
0.804996
0.838427
0.840934
0.831527
0.840528
0.796926
0.759819
0.79569
0.805589
0.813983
0.847156
0.841733
0.829652
0.802738
0.81558
0.806687
0.830585
0.828332
0.772673
0.804157
0.824465
0.825326
0.843936
0.835373
0.836142
0.830487
0.813462
0.802711
0.850227
0.741511
0.834481
0.806984
0.845839
0.79807
0.687245
0.763381
0.842072
0.817942
0.791361
0.810156
0.834477
0.789698
0.840855
0.817417
0.808254
0.836221
0.834995
0.796507
0.844662
0.809654
0.829931
0.797464
0.828933
0.783549
0.848214
0.839877
0.825548
0.837138
0.841291
0.847701
0.820336
0.811436
0.806945
0.835444
0.74159
0.794195
0.797514
0.843775
0.827057
0.843314
0.848807
0.828875
0.850659
0.849158
0.846777
0.795847
0.803708
0.800707
0.84746
0.79985
0.794301
0.728688
0.795361
0.826279
0.831057
0.831813
0.849801
0.838331
0.822168
0.844388
0.829972
0.839097
0.680332
0.832292
0.814958
0.807135
0.844737
0.846344
0.812587
0.82579
0.844171
0.831883
0.759896
0.81096
0.835398
0.847702
0.823224
0.79832
0.830409
0.837299
0.827653
0.823805
0.761262
0.719477
0.807211
0.814653
0.801108
0.805338
0.767711
0.841032
0.825287
0.805124
0.830856
0.801654
0.798079
0.834317
0.834009
0.795544
0.795216
0.757118
0.833711
0.807195
0.814515
0.829798
0.835185
0.801084
0.829797
0.822348
0.796796
0.800283
0.843688
0.827363
0.839101
0.849419
0.838575
0.791571
0.794612
0.826754
0.828598
0.796284
0.808307
0.832431
0.844217
0.84156
0.828186
0.795006
0.821045
0.815159
0.828727
0.831777
0.809334
0.829805
0.823171
0.712345
0.800858
0.811567
0.797335
0.817428
0.833664
0.830877
0.828499
0.835865
0.791197
0.824474
0.821261
0.828969
0.817452
0.830412
0.830164
0.800865
0.784404
0.826423
0.796771
0.79198
0.826514
0.697201
0.794566
0.846214
0.830433
0.806953
0.799648
0.805921
0.831276
0.759456
0.710068
0.793203
0.834917
0.826663
0.838983
0.647556
0.790589
0.8478
0.822488
0.765765
0.782629
0.797364
0.80151
0.79365
0.832506
0.836646
0.805053
0.799736
0.81606
0.817152
0.839923
0.749439
0.837109
0.833654
0.694947
0.807634
0.79863
0.80414
0.833298
0.832694
0.84459
0.819008
0.79143
0.824219
0.82401
0.846553
0.825251
0.847314
0.836861
0.820986
0.83221
0.826827
0.813905
0.800642
0.824505
0.77803
0.830898
0.827538
0.803962
0.795861
0.788487
0.793284
0.773025
0.844985
0.79723
0.812756
0.83994
0.840339
0.802827
0.788119
0.848696
0.808021
0.691
0.822802
0.804753
0.799441
0.84846
0.823316
0.816729
0.837793
0.80463
0.830035
0.808864
0.831277
0.82523
0.818076
0.607458
0.794719
0.805693
0.809095
0.8253
0.823867
0.837762
0.848272
0.788531
0.810083
0.784062
0.740855
0.797137
0.844497
0.820019
0.810426
0.809891
0.830496
0.796658
0.772842
0.789885
0.804959
0.798399
0.852282
0.818818
0.826734
0.847124
0.84298
0.836368
0.849323
0.768858
0.814496
0.799462
0.844381
0.838397
0.843294
0.824043
0.820304
0.807934
0.829413
0.800656
0.745372
0.842114
0.822727
0.746218
0.793066
0.807335
0.795802
0.808812
0.824473
0.827619
0.79317
0.812058
0.799052
0.808464
0.801181
0.818351
0.760146
0.806272
0.845784
0.84653
0.837576
0.83393
0.831819
0.68512
0.836568
0.826204
0.787542
0.846945
0.669073
0.844851
0.814108
0.828849
0.820724
0.834664
0.828883
0.789478
0.845264
0.785212
0.84725
0.830892
0.80141
0.81448
0.772675
0.818549
0.849121
0.815031
0.845845
0.833366
0.798316
0.757979
0.835634
0.682668
0.833985
0.830205
0.799393
0.849962
0.733112
0.72788
0.841367
0.827276
0.844966
0.846287
0.820022
0.847021
0.849586
0.841756
0.843933
0.83557
0.795914
0.815764
0.826362
0.843095
0.817021
0.663949
0.845266
0.808046
0.819501
0.814225
0.847331
0.841545
0.820149
0.843718
0.82803
0.849588
0.792207
0.839563
0.814148
0.847524
0.845404
0.841579
0.814196
0.835765
0.796938
0.773278
0.826407
0.817808
0.829776
0.76726
0.679233
0.79876
0.819697
0.834421
0.824067
0.849894
0.81648
0.797126
0.830305
0.799544
0.846417
0.776963
0.813749
0.837489
0.846537
0.82523
0.846202
0.787957
0.825757
0.842276
0.805629
0.762987
0.826968
0.816805
0.833849
0.8398
0.816544
0.801035
0.827554
0.802734
0.793311
0.847111
0.846441
0.846077
0.76687
0.846413
0.842219
0.849244
0.80184
0.837924
0.83242
0.843468
0.833397
0.781322
0.801836
0.813641
0.655822
0.847009
0.824305
0.822438
0.839945
0.840123
0.824326
0.81612
0.84122
0.849422
0.843926
0.835774
0.818458
0.822971
0.838246
0.831308
0.814844
0.815216
0.818559
0.821528
0.830577
0.809718
0.842876
0.847422
0.797849
0.842902
0.806311
0.794719
0.808745
0.844933
0.824612
0.833811
0.82794
0.843225
0.828707
0.830448
0.847725
0.813244
0.800024
0.793009
0.795749
0.789758
0.591278
0.802215
0.79936
0.831593
0.798444
0.817658
0.829496
0.812981
0.798877
0.810613
0.817414
0.604448
0.849158
0.816688
0.829759
0.798068
0.813827
0.819602
0.780959
0.845704
0.804326
0.848323
0.818885
0.843714
0.762182
0.718169
0.814504
0.82153
0.824287
0.831882
0.720135
0.831361
0.823196
0.799751
0.781919
0.811333
0.81577
0.847006
0.771818
0.834352
0.841191
0.835291
0.787847
0.84129
0.799659
0.593199
0.829268
0.802421
0.790384
0.840718
0.837781
0.827952
0.835469
0.819505
0.848994
0.850099
0.824071
0.818111
0.846426
0.847489
0.837403
0.833929
0.828044
0.847138
0.805029
0.797321
0.845804
0.846942
0.849069
0.829158
0.820394
0.808155
0.837667
0.833473
0.557822
0.836716
0.828681
0.795353
0.825228
0.821433
0.844624
0.842823
0.832981
0.8105
0.840177
0.847356
0.832335
0.839712
0.845084
0.722242
0.795693
0.826242
0.798422
0.7248
0.802801
0.829082
0.84038
0.805602
0.82497
0.779131
0.797011
0.842362
0.822777
0.802101
0.798542
0.779144
0.826271
0.808913
0.809067
0.829582
0.831551
0.832143
0.79119
0.835883
0.81257
0.804955
0.835571
0.83844
0.834341
0.838886
0.800069
0.846157
0.799669
0.849308
0.843427
0.847463
0.844631
0.798114
0.797577
0.82585
0.793026
0.802899
0.809044
0.806578
0.7927
0.830146
0.833036
0.79639
0.845734
0.814475
0.824378
0.829731
0.835945
0.84082
0.835827
0.826932
0.799106
0.846026
0.765817
0.84334
0.793387
0.831257
0.845525
0.840269
0.846398
0.844397
0.8311
0.782108
0.800731
0.827352
0.813876
0.84988
0.783802
0.775517
0.824456
0.82601
0.808962
0.797716
0.826464
0.835605
0.833001
0.683786
0.81357
0.762451
0.780928
0.823223
0.82433
0.823111
0.813786
0.842229
0.794863
0.846438
0.827723
0.75862
0.836071
0.817126
0.841019
0.821708
0.812026
0.79473
0.810275
0.825969
0.844913
0.81089
0.828
0.82938
0.844845
0.813824
0.826645
0.81362
0.843324
0.793916
0.794733
0.740408
0.840019
0.797135
0.811794
0.800576
0.807087
0.849123
0.824742
0.837743
0.84352
0.837829
0.749007
0.84152
0.779102
0.824052
0.836721
0.814807
0.800641
0.822541
0.820499
0.788837
0.814073
0.748231
0.799403
0.826149
0.750335
0.807373
0.8469
0.79948
0.787695
0.82132
0.845652
0.822712
0.787761
0.835226
0.803371
0.808132
0.82874
0.821048
0.832849
0.830655
0.851958
0.815574
0.840032
0.83292
0.84488
0.846223
0.844916
0.752071
0.810695
0.828841
0.792167
0.846334
0.847181
0.844064
0.826115
0.794195
0.796146
0.829827
0.842348
0.786105
0.84462
0.84156
0.836641
0.796193
0.784845
0.799733
0.765853
0.824518
0.785683
0.831363
0.810868
0.834709
0.796264
0.824569
0.796518
0.832518
0.835439
0.835485
0.822277
0.832024
0.846708
0.850388
0.826436
0.81977
0.839672
0.830494
0.807918
0.816362
0.829416
0.806306
0.851292
0.824544
0.830311
0.836631
0.839547
0.810638
0.74473
0.849202
0.822774
0.822348
0.827974
0.828654
0.839253
0.844906
0.82118
0.833262
0.79319
0.811849
0.821593
0.836685
0.830813
0.824145
0.826625
0.85053
0.832468
0.802822
0.845822
0.830826
0.797886
0.814673
0.850933
0.80768
0.794535
0.813784
0.851143
0.820121
0.827873
0.83981
0.844199
0.845176
0.829394
0.796516
0.833622
0.813166
0.821229
0.844354
0.823842
0.793797
0.786607
0.82175
0.834474
0.80784
0.795742
0.844293
0.825548
0.840641
0.843077
0.794733
0.791521
0.821315
0.843289
0.8471
0.824182
0.821374
0.758052
0.826853
0.816641
0.840067
0.846907
0.845193
0.794995
0.792112
0.826352
0.847554
0.848554
0.842602
0.842663
0.817345
0.818749
0.790925
0.794438
0.840324
0.830232
0.715444
0.803593
0.846246
0.826919
0.795137
0.798439
0.826869
0.81565
0.831418
0.831249
0.832952
0.84455
0.84877
0.818741
0.832304
0.822188
0.818399
0.804322
0.835899
0.81732
0.844788
0.720717
0.831221
0.697264
0.822539
0.846814
0.835216
0.842625
0.849624
0.845797
0.809034
0.82448
0.822424
0.772988
0.846961
0.831895
0.811612
0.831215
0.65573
0.803227
0.826832
0.834479
0.849678
0.793587
0.800236
0.826137
0.844257
0.725557
0.812121
0.820478
0.739267
0.787872
0.826536
0.788126
0.821609
0.796805
0.831498
0.8466
0.65667
0.820767
0.830684
0.809242
0.797027
0.825702
0.816751
0.824331
0.804986
0.827938
0.820616
0.805028
0.823311
0.845164
0.813268
0.79375
0.817549
0.79253
0.801053
0.822176
0.75565
0.81564
0.811988
0.82894
0.841408
0.830066
0.827829
0.712604
0.832936
0.819501
0.817794
0.845887
0.82669
0.827938
0.730279
0.717707
0.844289
0.801428
0.827494
0.835422
0.813932
0.835331
0.713092
0.842475
0.822113
0.842228
0.821274
0.819123
0.824957
0.800354
0.812471
0.820637
0.85218
0.791405
0.798274
0.812679
0.850322
0.842009
0.754106
0.819002
0.822709
0.82328
0.818062
0.849151
0.843507
0.843974
0.844035
0.829405
0.803461
0.781242
0.846753
0.812218
0.824612
0.757766
0.794502
0.805699
0.795287
0.843549
0.732957
0.843222
0.814092
0.844284
0.829105
0.842955
0.840692
0.815402
0.845906
0.846565
0.846571
0.825547
0.843901
0.813932
0.829874
0.803534
0.810267
0.849889
0.734217
0.824904
0.834326
0.825172
0.828851
0.825474
0.837749
0.823078
0.837514
0.796163
0.801109
0.832299
0.829782
0.755272
0.836013
0.798965
0.831054
0.796009
0.822331
0.834388
0.840269
0.847897
0.798533
0.823748
0.826403
0.830654
0.844777
0.768932
0.792654
0.849532
0.791743
0.816176
0.841768
0.845708
0.845141
0.794465
0.80628
0.807911
0.805577
0.774902
0.826393
0.814085
0.826414
0.808132
0.822816
0.824077
0.811422
0.776538
0.813697
0.824906
0.802206
0.840888
0.840677
0.783439
0.840027
0.71975
0.809642
0.746671
0.810233
0.846215
0.83011
0.829598
0.826367
0.839421
0.845126
0.828527
0.841485
0.776682
0.825195
0.818395
0.829666
0.797295
0.848079
0.824871
0.799931
0.845948
0.844056
0.797334
0.844009
0.795296
0.82976
0.82831
0.830845
0.755954
0.837783
0.824823
0.828784
0.829048
0.807393
0.799975
0.807078
0.839512
0.844762
0.844523
0.824282
0.833718
0.844262
0.823841
0.825914
0.80975
0.809262
0.82344
0.842714
0.802014
0.84866
0.829075
0.850442
0.84483
0.847369
0.824893
0.819508
0.845332
0.701559
0.844375
0.739418
0.846644
0.84357
0.827125
0.82349
0.81488
0.825623
0.736111
0.77355
0.809298
0.78384
0.846526
0.798242
0.801162
0.770293
0.793754
0.829711
0.844347
0.849725
0.797383
0.819837
0.829906
0.827844
0.818759
0.820154
0.845777
0.842803
0.826696
0.844816
0.841859
0.848735
0.798832
0.810065
0.785411
0.84269
0.845677
0.844703
0.826369
0.843355
0.823759
0.792226
0.822001
0.790778
0.807602
0.799216
0.851201
0.840821
0.830733
0.848337
0.84176
0.824243
0.844273
0.805987
0.835347
0.821793
0.847399
0.817909
0.796678
0.838706
0.833822
0.846312
0.849041
0.848169
0.793563
0.788695
0.787494
0.840241
0.843082
0.757183
0.810736
0.844292
0.800888
0.819934
0.79898
0.816144
0.833599
0.817499
0.827872
0.800662
0.829533
0.833379
0.837452
0.821075
0.810347
0.830872
0.831692
0.824093
0.845552
0.852873
0.755836
0.842736
0.800848
0.814125
0.850293
0.845022
0.818398
0.846645
0.800616
0.840398
0.814245
0.799786
0.844059
0.818538
0.842692
0.830596
0.839438
0.844831
0.839364
0.807866
0.836711
0.795938
0.841655
0.840166
0.834012
0.819055
0.796669
0.799343
0.84408
0.812215
0.824105
0.791128
0.819707
0.845402
0.841563
0.826774
0.842167
0.844419
0.809751
0.819103
0.833752
0.797817
0.809908
0.827888
0.830313
0.823251
0.804381
0.751293
0.793521
0.838166
0.820212
0.842307
0.801941
0.847124
0.833126
0.850159
0.844989
0.819172
0.846175
0.801975
0.832871
0.809374
0.838498
0.788142
0.822198
0.811065
0.795002
0.819378
0.804167
0.793188
0.799756
0.849884
0.851369
0.826466
0.793205
0.840357
0.795349
0.759611
0.824744
0.838684
0.836711
0.800104
0.799005
0.849299
0.790344
0.83402
0.794449
0.804669
0.821048
0.779961
0.848169
0.828925
0.808519
0.846557
0.848142
0.807123
0.834431
0.825102
0.849434
0.827526
0.816284
0.801012
0.834778
0.85203
0.834658
0.762274
0.801515
0.815195
0.832142
0.844379
0.843122
0.789985
0.844032
0.803784
0.830254
0.833607
0.82544
0.81584
0.841503
0.750589
0.832164
0.785499
0.808475
0.773436
0.799473
0.837491
0.847738
0.805596
0.809848
0.832036
0.8151
0.746838
0.786681
0.807513
0.827673
0.692277
0.814001
0.830095
0.830726
0.825066
0.833501
0.843638
0.726414
0.723071
0.846469
0.826209
0.750173
0.817542
0.836834
0.839526
0.827474
0.783003
0.830541
0.788474
0.844804
0.843989
0.848889
0.822383
0.838442
0.803969
0.831174
0.848307
0.796514
0.807887
0.839368
0.843148
0.801916
0.80228
0.775483
0.728745
0.779484
0.844777
0.812982
0.79948
0.758322
0.796278
0.842298
0.775853
0.807272
0.794398
0.846589
0.817466
0.845551
0.806997
0.822385
0.827059
0.830304
0.821728
0.836699
0.793594
0.845195
0.820365
0.828361
0.842061
0.811993
0.84874
0.831074
0.811936
0.844329
0.793945
0.813877
0.841416
0.831392
0.797784
0.810422
0.82811
0.841893
0.829119
0.841652
0.780697
0.802549
0.792969
0.786208
0.848151
0.809761
0.827092
0.849611
0.822977
0.731666
0.795067
0.827041
0.791753
0.822289
0.799898
0.809193
0.812892
0.840985
0.846504
0.83238
0.787648
0.81734
0.79581
0.822877
0.837927
0.825784
0.817263
0.834552
0.817868
0.825599
0.846933
0.843112
0.844208
0.847834
0.843812
0.820973
0.80471
0.798691
0.798253
0.843946
0.830103
0.804811
0.844791
0.808174
0.846817
0.843407
0.801363
0.787562
0.814114
0.827535
0.843091
0.821374
0.838279
0.828407
0.848075
0.835183
0.843088
0.808028
0.827045
0.815121
0.799129
0.815697
0.847571
0.743883
0.650237
0.825785
0.827849
0.841797
0.821712
0.797841
0.794347
0.81284
0.78979
0.821427
0.826473
0.802367
0.840262
0.826911
0.796056
0.810857
0.811148
0.771186
0.841125
0.816374
0.824561
0.788309
0.8287
0.812682
0.795395
0.814837
0.815266
0.809472
0.796717
0.729212
0.845221
0.845492
0.845513
0.832715
0.842327
0.805004
0.84285
0.828565
0.82493
0.772249
0.839334
0.813751
0.81844
0.842095
0.84633
0.845096
0.828983
0.834158
0.846177
0.803334
0.837657
0.844981
0.837278
0.821769
0.80194
0.843104
0.810729
0.80918
0.834558
0.819021
0.849559
0.806217
0.849285
0.845149
0.82743
0.808237
0.847097
0.79818
0.807594
0.815604
0.801
0.811561
0.809797
0.806689
0.829034
0.792092
0.794302
0.824837
0.827063
0.814858
0.812818
0.832497
0.828456
0.81661
0.844993
0.842463
0.844729
0.795362
0.813593
0.840746
0.796546
0.827981
0.764265
0.826687
0.765446
0.840741
0.826966
0.827177
0.802146
0.795502
0.811993
0.833009
0.813398
0.826243
0.830044
0.822363
0.845387
0.835908
0.832071
0.807998
0.847279
0.812232
0.828344
0.840241
0.804799
0.806376
0.800494
0.839517
0.845392
0.809918
0.82811
0.810703
0.803362
0.78651
0.823283
0.794349
0.840193
0.807652
0.822776
0.82716
0.826793
0.796973
0.823336
0.825001
0.818929
0.831897
0.836138
0.827205
0.815651
0.824385
0.84509
0.829035
0.795505
0.838739
0.797766
0.826313
0.781524
0.804504
0.818841
0.742082
0.795603
0.848065
0.843267
0.792145
0.829684
0.801257
0.773684
0.79569
0.795917
0.805333
0.803777
0.806036
0.837969
0.849723
0.821438
0.84155
0.825121
0.845193
0.829639
0.850214
0.832217
0.81101
0.836351
0.845505
0.824788
0.837274
0.782059
0.845457
0.820419
0.649632
0.829254
0.846991
0.850999
0.836769
0.838418
0.838942
0.814094
0.820508
0.831335
0.842824
0.667596
0.817632
0.777046
0.81429
0.830139
0.78908
0.795957
0.809011
0.804168
0.796556
0.818736
0.825972
0.844876
0.846222
0.80004
0.846198
0.795621
0.826669
0.845546
0.827866
0.826144
0.832036
0.672958
0.803353
0.831
0.84624
0.803659
0.811344
0.830875
0.836127
0.796152
0.847746
0.806941
0.831746
0.828622
0.820662
0.835144
0.838007
0.84584
0.782825
0.841907
0.825217
0.836339
0.796061
0.832028
0.817435
0.792669
0.801777
0.815454
0.824015
0.829838
0.842843
0.8238
0.770547
0.83531
0.805351
0.802642
0.827165
0.826997
0.799795
0.849993
0.804153
0.80779
0.805152
0.828253
0.798326
0.760698
0.839717
0.818487
0.826475
0.807393
0.782742
0.822221
0.731235
0.843157
0.831294
0.803607
0.797354
0.851479
0.803179
0.798721
0.794395
0.779191
0.814721
0.827565
0.845321
0.800668
0.813049
0.837876
0.82618
0.806838
0.80401
0.82134
0.84092
0.843001
0.803431
0.790541
0.829919
0.848971
0.821602
0.829736
0.826087
0.785519
0.830189
0.834643
0.822305
0.790703
0.839577
0.828554
0.788165
0.829393
0.801645
0.843878
0.843778
0.799779
0.829248
0.823341
0.828862
0.801818
0.83268
0.81582
0.845131
0.841559
0.839114
0.803221
0.809881
0.84177
0.845085
0.815715
0.828768
0.822957
0.80283
0.824242
0.827707
0.797587
0.706538
0.790556
0.820222
0.806234
0.800869
0.794392
0.818165
0.838859
0.791958
0.799611
0.81578
0.796535
0.842789
0.80036
0.833407
0.825701
0.795329
0.832893
0.823217
0.832226
0.825295
0.837874
0.805423
0.803926
0.849165
0.787267
0.847141
0.831333
0.816812
0.813042
0.84493
0.827041
0.798417
0.850596
0.782716
0.822824
0.847551
0.788096
0.853156
0.802443
0.828394
0.698263
0.831494
0.797923
0.832258
0.812112
0.792309
0.816106
0.793173
0.805581
0.847377
0.794789
0.824402
0.833235
0.827481
0.844315
0.845908
0.821125
0.77514
0.845869
0.816619
0.845835
0.810529
0.820359
0.834546
0.819682
0.843001
0.826371
0.830394
0.807044
0.829035
0.764436
0.787236
0.845975
0.60392
0.838983
0.837911
0.808165
0.800394
0.819195
0.841582
0.830829
0.836747
0.829821
0.833504
0.827696
0.847854
0.844888
0.796657
0.834093
0.840139
0.824824
0.827873
0.825569
0.803983
0.801824
0.819341
0.832152
0.821676
0.852104
0.795532
0.811065
0.830111
0.817126
0.820561
0.838774
0.804124
0.811875
0.810734
0.82095
0.802838
0.844759
0.781667
0.823399
0.818392
0.819498
0.793791
0.787643
0.835869
0.776751
0.795854
0.847116
0.824527
0.799669
0.796171
0.797131
0.812499
0.8477
0.847372
0.798572
0.819037
0.821839
0.846936
0.841949
0.807915
0.846389
0.815071
0.83266
0.831624
0.845046
0.822446
0.843961
0.843358
0.792276
0.779014
0.824136
0.813673
0.820757
0.707376
0.732401
0.836744
0.843661
0.800562
0.847857
0.825159
0.837584
0.82696
0.798325
0.846386
0.843471
0.828764
0.784484
0.799468
0.844704
0.843355
0.841551
0.794147
0.819888
0.834695
0.844668
0.836157
0.817471
0.818683
0.839188
0.820496
0.817712
0.827317
0.820519
0.826988
0.712417
0.843505
0.826294
0.830063
0.847119
0.793307
0.800808
0.808951
0.796297
0.847058
0.804778
0.831244
0.717746
0.809538
0.821645
0.805948
0.800011
0.82096
0.787675
0.801522
0.826535
0.826936
0.843973
0.800804
0.825504
0.845348
0.815441
0.84403
0.822013
0.835238
0.821454
0.810474
0.842337
0.796039
0.795898
0.828532
0.845967
0.839051
0.824048
0.775684
0.845667
0.833129
0.822139
0.838854
0.843267
0.839887
0.835073
0.798067
0.793869
0.820897
0.798117
0.831125
0.828742
0.795378
0.848037
0.841684
0.844357
0.832457
0.829096
0.797037
0.818989
0.840652
0.802014
0.834881
0.844283
0.818785
0.828745
0.826832
0.835139
0.833468
0.828673
0.795709
0.837878
0.778695
0.709864
0.813622
0.846613
0.797204
0.843244
0.808767
0.777096
0.825661
0.826917
0.840758
0.659959
0.831291
0.835807
0.846376
0.819818
0.848718
0.825965
0.795927
0.819365
0.822433
0.82267
0.792547
0.841373
0.827731
0.80289
0.793372
0.822511
0.817876
0.788704
0.831838
0.845044
0.798023
0.847673
0.804553
0.768859
0.787874
0.824491
0.809643
0.799966
0.776643
0.787005
0.824849
0.820689
0.839647
0.819596
0.845349
0.788869
0.832519
0.800121
0.801073
0.792561
0.836065
0.843679
0.804922
0.806802
0.848875
0.821309
0.835667
0.840129
0.816386
0.828429
0.831638
0.824322
0.846917
0.842622
0.843401
0.825651
0.803546
0.813671
0.817093
0.852956
0.82515
0.8099
0.761997
0.80683
0.830639
0.83932
0.82415
0.838169
0.813189
0.811753
0.818257
0.787744
0.815392
0.809112
0.845375
0.796642
0.80443
0.803138
0.845402
0.830062
0.802033
0.796245
0.783669
0.843802
0.820532
0.808368
0.80179
0.807646