/*--------------------------------*- C++ -*----------------------------------*\
  =========                 |
  \\      /  F ield         | OpenFOAM: The Open Source CFD Toolbox
   \\    /   O peration     | Website:  https://openfoam.org
    \\  /    A nd           | Version:  6
     \\/     M anipulation  |
\*---------------------------------------------------------------------------*/
FoamFile
{
    version     2.0;
    format      ascii;
    class       volVectorField;
    location    "0";
    object      U;
}
// * * * * * * * * * * * * * * * * * * * * * * * * * * * * * * * * * * * * * //

dimensions      [0 1 -1 0 0 0 0];

internalField   nonuniform List<vector> 
10000
(
(2.06765e-07 -7.07485e-08 0)
(6.0185e-05 -1.20273e-05 0)
(0.000189417 -2.26582e-05 0)
(0.000373059 -3.08756e-05 0)
(0.000599327 -3.68519e-05 0)
(0.000856366 -4.06225e-05 0)
(0.00113215 -4.21572e-05 0)
(0.00141474 -4.14836e-05 0)
(0.00169281 -3.87744e-05 0)
(0.00195621 -3.43504e-05 0)
(0.00219648 -2.86384e-05 0)
(0.00240709 -2.21128e-05 0)
(0.00258358 -1.52414e-05 0)
(0.00272349 -8.44671e-06 0)
(0.00282616 -2.08655e-06 0)
(0.00289258 3.54477e-06 0)
(0.00292499 8.19465e-06 0)
(0.00292691 1.19645e-05 0)
(0.00290209 1.5283e-05 0)
(0.00285319 1.80199e-05 0)
(0.00278376 1.99212e-05 0)
(0.00269744 2.11094e-05 0)
(0.00259758 2.17115e-05 0)
(0.0024873 2.18374e-05 0)
(0.00236936 2.15816e-05 0)
(0.00224624 2.10269e-05 0)
(0.0021201 2.02469e-05 0)
(0.00199278 1.93026e-05 0)
(0.00186587 1.82446e-05 0)
(0.00174066 1.71174e-05 0)
(0.00161823 1.59568e-05 0)
(0.00149942 1.47885e-05 0)
(0.00138491 1.36344e-05 0)
(0.00127518 1.25122e-05 0)
(0.00117061 1.1433e-05 0)
(0.00107142 1.04028e-05 0)
(0.000977752 9.42702e-06 0)
(0.000889671 8.5098e-06 0)
(0.000807167 7.65098e-06 0)
(0.000730179 6.84824e-06 0)
(0.0006586 6.1004e-06 0)
(0.000592298 5.40664e-06 0)
(0.000531112 4.7643e-06 0)
(0.000474864 4.16942e-06 0)
(0.00042336 3.61871e-06 0)
(0.000376396 3.11028e-06 0)
(0.000333765 2.64223e-06 0)
(0.000295257 2.21149e-06 0)
(0.000260658 1.81488e-06 0)
(0.000229753 1.45013e-06 0)
(0.000202334 1.11564e-06 0)
(0.000178195 8.09732e-07 0)
(0.000157137 5.30135e-07 0)
(0.000138966 2.74185e-07 0)
(0.000123499 3.97925e-08 0)
(0.00011056 -1.74559e-07 0)
(9.99876e-05 -3.70648e-07 0)
(9.16327e-05 -5.50713e-07 0)
(8.53592e-05 -7.17232e-07 0)
(8.10462e-05 -8.72862e-07 0)
(7.859e-05 -1.02026e-06 0)
(7.79055e-05 -1.16197e-06 0)
(7.89308e-05 -1.29708e-06 0)
(8.161e-05 -1.42528e-06 0)
(8.59014e-05 -1.55019e-06 0)
(9.17756e-05 -1.6755e-06 0)
(9.92268e-05 -1.80512e-06 0)
(0.000108279 -1.94382e-06 0)
(0.000118991 -2.09661e-06 0)
(0.000131458 -2.26877e-06 0)
(0.000145811 -2.46648e-06 0)
(0.000162227 -2.69705e-06 0)
(0.000180932 -2.96903e-06 0)
(0.000202208 -3.29278e-06 0)
(0.000226404 -3.68109e-06 0)
(0.000253942 -4.14966e-06 0)
(0.000285332 -4.7174e-06 0)
(0.000321176 -5.40683e-06 0)
(0.000362182 -6.24418e-06 0)
(0.000409156 -7.2587e-06 0)
(0.000463003 -8.48104e-06 0)
(0.000524696 -9.94069e-06 0)
(0.00059523 -1.16616e-05 0)
(0.000675542 -1.36558e-05 0)
(0.000766384 -1.59142e-05 0)
(0.000868152 -1.83945e-05 0)
(0.000980643 -2.10079e-05 0)
(0.00110276 -2.36037e-05 0)
(0.00123213 -2.59536e-05 0)
(0.00136471 -2.77336e-05 0)
(0.00149432 -2.84988e-05 0)
(0.00161208 -2.7641e-05 0)
(0.00170582 -2.43069e-05 0)
(0.00175887 -1.72997e-05 0)
(0.00175016 -4.77514e-06 0)
(0.00165078 1.59991e-05 0)
(0.00142965 4.66735e-05 0)
(0.00106369 8.49732e-05 0)
(0.000576558 0.000117057 0)
(0.000111535 0.000105569 0)
(1.11491e-05 -5.96768e-05 0)
(0.000179968 -0.000187964 0)
(0.000498255 -0.000300655 0)
(0.000935851 -0.000391686 0)
(0.00146753 -0.000460776 0)
(0.00206817 -0.000507554 0)
(0.0027122 -0.000531947 0)
(0.00337463 -0.000534645 0)
(0.00403204 -0.000517345 0)
(0.0046635 -0.000482682 0)
(0.0052512 -0.000433959 0)
(0.00578091 -0.00037482 0)
(0.00624212 -0.000308948 0)
(0.0066279 -0.000239831 0)
(0.00693473 -0.000170605 0)
(0.00716208 -0.00010399 0)
(0.00731216 -4.22837e-05 0)
(0.0073888 1.28222e-05 0)
(0.00739946 6.15734e-05 0)
(0.00735139 0.000104544 0)
(0.00725022 0.000141123 0)
(0.00710307 0.000171279 0)
(0.00691675 0.000195387 0)
(0.00669788 0.000213935 0)
(0.00645272 0.000227458 0)
(0.0061871 0.000236513 0)
(0.00590633 0.000241657 0)
(0.00561521 0.000243429 0)
(0.005318 0.000242339 0)
(0.00501843 0.000238862 0)
(0.00471971 0.00023343 0)
(0.00442457 0.000226434 0)
(0.00413531 0.000218217 0)
(0.0038538 0.00020908 0)
(0.00358155 0.000199279 0)
(0.00331973 0.000189034 0)
(0.00306925 0.000178526 0)
(0.00283075 0.000167908 0)
(0.00260467 0.000157302 0)
(0.00239125 0.000146807 0)
(0.00219059 0.000136502 0)
(0.00200266 0.000126449 0)
(0.00182735 0.000116696 0)
(0.00166441 0.000107279 0)
(0.00151356 9.82245e-05 0)
(0.00137446 8.95528e-05 0)
(0.0012467 8.12767e-05 0)
(0.00112988 7.3403e-05 0)
(0.00102353 6.59343e-05 0)
(0.000927181 5.88698e-05 0)
(0.00084036 5.22051e-05 0)
(0.000762582 4.5932e-05 0)
(0.000693365 4.0039e-05 0)
(0.000632236 3.45112e-05 0)
(0.000578733 2.93313e-05 0)
(0.000532414 2.44797e-05 0)
(0.00049286 1.9934e-05 0)
(0.000459678 1.56682e-05 0)
(0.000432508 1.16537e-05 0)
(0.000411021 7.85888e-06 0)
(0.000394932 4.24973e-06 0)
(0.000383999 7.89265e-07 0)
(0.000378024 -2.55778e-06 0)
(0.000376883 -5.81212e-06 0)
(0.000380458 -8.9909e-06 0)
(0.000388658 -1.2132e-05 0)
(0.000401441 -1.52894e-05 0)
(0.000418834 -1.85228e-05 0)
(0.000440946 -2.18985e-05 0)
(0.000467969 -2.54885e-05 0)
(0.000500188 -2.93721e-05 0)
(0.000537989 -3.36381e-05 0)
(0.000581868 -3.83869e-05 0)
(0.000632446 -4.37337e-05 0)
(0.000690483 -4.98101e-05 0)
(0.00075689 -5.67654e-05 0)
(0.000832746 -6.47656e-05 0)
(0.000919298 -7.399e-05 0)
(0.00101797 -8.46218e-05 0)
(0.00113033 -9.68325e-05 0)
(0.00125805 -0.000110756 0)
(0.00140284 -0.000126453 0)
(0.00156627 -0.000143852 0)
(0.00174959 -0.000162684 0)
(0.00195342 -0.00018239 0)
(0.00217735 -0.000202015 0)
(0.00241941 -0.000220096 0)
(0.00267542 -0.000234546 0)
(0.00293827 -0.000242553 0)
(0.00319705 -0.000240488 0)
(0.00343619 -0.000223819 0)
(0.00363457 -0.000186993 0)
(0.00376458 -0.000123187 0)
(0.00379108 -2.4177e-05 0)
(0.00367145 0.000120721 0)
(0.00335477 0.000318714 0)
(0.00279948 0.000560524 0)
(0.00199214 0.000797728 0)
(0.00101719 0.00089825 0)
(0.000150151 0.000591353 0)
(1.81045e-05 -0.000179228 0)
(0.000263934 -0.000497753 0)
(0.000709579 -0.000767757 0)
(0.00131278 -0.000986581 0)
(0.00203954 -0.00115372 0)
(0.00285716 -0.00126846 0)
(0.0037329 -0.00133114 0)
(0.00463548 -0.00134388 0)
(0.00553598 -0.00131081 0)
(0.00640874 -0.0012378 0)
(0.00723188 -0.00113191 0)
(0.00798763 -0.00100077 0)
(0.0086623 -0.000852065 0)
(0.00924613 -0.00069311 0)
(0.00973306 -0.000530565 0)
(0.0101203 -0.00037028 0)
(0.0104079 -0.000217226 0)
(0.0105987 -7.56537e-05 0)
(0.0106957 5.15432e-05 0)
(0.0107104 0.000164513 0)
(0.0106488 0.000263975 0)
(0.010519 0.000349259 0)
(0.0103295 0.000420668 0)
(0.0100882 0.0004789 0)
(0.00980299 0.000524841 0)
(0.00948143 0.000559504 0)
(0.00913063 0.000583969 0)
(0.00875719 0.000599343 0)
(0.00836719 0.000606727 0)
(0.00796613 0.000607189 0)
(0.00755894 0.00060174 0)
(0.00714996 0.000591326 0)
(0.00674299 0.000576812 0)
(0.0063413 0.00055898 0)
(0.00594766 0.000538527 0)
(0.0055644 0.000516067 0)
(0.0051934 0.000492133 0)
(0.00483619 0.000467182 0)
(0.00449396 0.000441606 0)
(0.00416759 0.000415735 0)
(0.00385772 0.000389843 0)
(0.00356473 0.000364159 0)
(0.00328884 0.000338869 0)
(0.00303008 0.000314127 0)
(0.00278833 0.000290057 0)
(0.00256336 0.000266755 0)
(0.00235485 0.000244298 0)
(0.00216236 0.000222742 0)
(0.00198542 0.000202129 0)
(0.00182349 0.000182483 0)
(0.00167597 0.000163817 0)
(0.00154226 0.000146131 0)
(0.00142174 0.000129412 0)
(0.00131376 0.000113639 0)
(0.0012177 9.87796e-05 0)
(0.00113294 8.47913e-05 0)
(0.00105889 7.16232e-05 0)
(0.000994968 5.92152e-05 0)
(0.000940651 4.74991e-05 0)
(0.00089545 3.63984e-05 0)
(0.000858925 2.58284e-05 0)
(0.000830697 1.56962e-05 0)
(0.000810451 5.90018e-06 0)
(0.000797923 -3.65353e-06 0)
(0.000793001 -1.30152e-05 0)
(0.000795565 -2.22391e-05 0)
(0.000805501 -3.14452e-05 0)
(0.000822791 -4.07937e-05 0)
(0.000847523 -5.04516e-05 0)
(0.000879904 -6.05988e-05 0)
(0.000920259 -7.14319e-05 0)
(0.000969048 -8.31671e-05 0)
(0.00102687 -9.60445e-05 0)
(0.00109447 -0.000110332 0)
(0.00117277 -0.000126329 0)
(0.00126285 -0.000144365 0)
(0.00136598 -0.00016479 0)
(0.0014836 -0.000187965 0)
(0.00161731 -0.000214235 0)
(0.00176881 -0.00024388 0)
(0.00193983 -0.000277055 0)
(0.00213202 -0.000313696 0)
(0.00234671 -0.000353388 0)
(0.00258466 -0.000395201 0)
(0.00284564 -0.000437494 0)
(0.00312795 -0.000477677 0)
(0.00342773 -0.000511966 0)
(0.00373819 -0.000535147 0)
(0.0040487 -0.000540366 0)
(0.00434379 -0.00051898 0)
(0.00460213 -0.000460467 0)
(0.00479559 -0.000352365 0)
(0.00488828 -0.000180189 0)
(0.00483685 7.29543e-05 0)
(0.00458853 0.000423265 0)
(0.00409516 0.000872305 0)
(0.00332532 0.0013832 0)
(0.00229162 0.00183705 0)
(0.00112245 0.00195735 0)
(0.000144336 0.00121253 0)
(2.08705e-05 -0.000331755 0)
(0.000311565 -0.000887835 0)
(0.000835863 -0.00134939 0)
(0.0015417 -0.00172163 0)
(0.00238844 -0.0020057 0)
(0.00333825 -0.00220167 0)
(0.0043542 -0.00231122 0)
(0.00540177 -0.0023388 0)
(0.00644973 -0.00229176 0)
(0.00747076 -0.00217979 0)
(0.0084418 -0.00201408 0)
(0.00934411 -0.00180645 0)
(0.0101631 -0.00156864 0)
(0.0108882 -0.00131176 0)
(0.0115121 -0.00104589 0)
(0.0120308 -0.000779942 0)
(0.0124428 -0.000521481 0)
(0.012749 -0.000276783 0)
(0.0129523 -5.15683e-05 0)
(0.0130551 0.000151271 0)
(0.0130691 0.000331742 0)
(0.0130008 0.000489813 0)
(0.0128586 0.000625612 0)
(0.0126509 0.000739897 0)
(0.0123858 0.000833748 0)
(0.0120713 0.000908482 0)
(0.0117149 0.000965577 0)
(0.0113242 0.00100661 0)
(0.0109059 0.0010332 0)
(0.0104664 0.00104698 0)
(0.0100118 0.00104952 0)
(0.00954725 0.00104235 0)
(0.00907777 0.00102688 0)
(0.00860763 0.00100444 0)
(0.00814064 0.000976251 0)
(0.00768014 0.000943394 0)
(0.00722898 0.000906849 0)
(0.00678958 0.00086748 0)
(0.00636399 0.000826047 0)
(0.00595386 0.000783205 0)
(0.0055605 0.000739524 0)
(0.00518494 0.00069549 0)
(0.00482792 0.000651518 0)
(0.00448996 0.000607956 0)
(0.00417134 0.000565099 0)
(0.00387216 0.00052319 0)
(0.00359237 0.000482427 0)
(0.00333176 0.000442973 0)
(0.00309 0.000404953 0)
(0.00286666 0.00036846 0)
(0.00266124 0.000333558 0)
(0.00247316 0.000300285 0)
(0.00230179 0.000268652 0)
(0.00214648 0.000238651 0)
(0.00200654 0.000210247 0)
(0.00188129 0.000183386 0)
(0.00177005 0.000157996 0)
(0.00167215 0.000133986 0)
(0.00158697 0.000111246 0)
(0.00151391 8.96532e-05 0)
(0.00145242 6.90649e-05 0)
(0.00140203 4.93245e-05 0)
(0.0013623 3.02604e-05 0)
(0.0013329 1.16853e-05 0)
(0.00131354 -6.57236e-06 0)
(0.00130418 -2.4589e-05 0)
(0.00130472 -4.24837e-05 0)
(0.00131504 -6.0515e-05 0)
(0.00133514 -7.89844e-05 0)
(0.00136518 -9.81999e-05 0)
(0.00140542 -0.000118494 0)
(0.00145629 -0.000140226 0)
(0.00151834 -0.000163789 0)
(0.00159229 -0.000189614 0)
(0.001679 -0.000218168 0)
(0.00177949 -0.000249953 0)
(0.00189495 -0.000285488 0)
(0.00202668 -0.00032528 0)
(0.0021761 -0.000369779 0)
(0.00234466 -0.000419297 0)
(0.00253373 -0.000473899 0)
(0.00274449 -0.000533246 0)
(0.00297768 -0.000596386 0)
(0.00323326 -0.000661494 0)
(0.00351005 -0.000725544 0)
(0.00380515 -0.000783952 0)
(0.00411325 -0.000830181 0)
(0.00442584 -0.000855373 0)
(0.0047302 -0.000848037 0)
(0.00500843 -0.000793846 0)
(0.00523637 -0.000675584 0)
(0.00538271 -0.000473295 0)
(0.00540863 -0.000164581 0)
(0.00526755 0.000274971 0)
(0.00490962 0.000860659 0)
(0.00429494 0.00157995 0)
(0.00340769 0.00235877 0)
(0.00228404 0.00299808 0)
(0.00107646 0.00307562 0)
(0.000123543 0.00182776 0)
(2.12661e-05 -0.000500588 0)
(0.000335238 -0.00132306 0)
(0.000905305 -0.00199828 0)
(0.00167273 -0.00253978 0)
(0.0025918 -0.00295159 0)
(0.0036205 -0.0032357 0)
(0.00471877 -0.00339624 0)
(0.00585003 -0.00344095 0)
(0.0069819 -0.00338121 0)
(0.00808668 -0.00323111 0)
(0.00914146 -0.0030063 0)
(0.010128 -0.00272295 0)
(0.0110322 -0.0023968 0)
(0.0118439 -0.00204256 0)
(0.0125562 -0.00167348 0)
(0.013165 -0.00130115 0)
(0.0136685 -0.000935442 0)
(0.0140667 -0.000584508 0)
(0.0143616 -0.000255029 0)
(0.0145545 4.71035e-05 0)
(0.0146517 0.000318609 0)
(0.0146604 0.000559718 0)
(0.0145881 0.000770511 0)
(0.0144426 0.00095173 0)
(0.0142315 0.00110454 0)
(0.0139625 0.00123041 0)
(0.0136428 0.00133107 0)
(0.0132797 0.00140843 0)
(0.01288 0.00146449 0)
(0.0124504 0.00150129 0)
(0.0119969 0.0015209 0)
(0.0115253 0.00152531 0)
(0.011041 0.00151644 0)
(0.0105487 0.00149611 0)
(0.010053 0.00146602 0)
(0.00955771 0.00142774 0)
(0.00906651 0.00138269 0)
(0.00858249 0.00133217 0)
(0.00810839 0.00127734 0)
(0.00764657 0.00121924 0)
(0.00719902 0.00115877 0)
(0.00676742 0.00109674 0)
(0.00635313 0.00103386 0)
(0.0059572 0.00097072 0)
(0.00558046 0.000907861 0)
(0.00522347 0.000845729 0)
(0.0048866 0.000784709 0)
(0.00457 0.000725119 0)
(0.00427368 0.000667224 0)
(0.00399746 0.000611234 0)
(0.00374108 0.000557309 0)
(0.00350413 0.000505566 0)
(0.00328614 0.000456077 0)
(0.00308655 0.000408874 0)
(0.00290476 0.00036395 0)
(0.00274013 0.000321264 0)
(0.002592 0.000280738 0)
(0.0024597 0.000242267 0)
(0.00234259 0.000205713 0)
(0.00224003 0.000170913 0)
(0.00215143 0.000137675 0)
(0.00207624 0.000105783 0)
(0.00201398 7.49964e-05 0)
(0.00196422 4.50528e-05 0)
(0.00192663 1.56597e-05 0)
(0.00190088 -1.34423e-05 0)
(0.00188715 -4.23389e-05 0)
(0.00188526 -7.12567e-05 0)
(0.00189508 -0.000100635 0)
(0.00191665 -0.000130924 0)
(0.00195013 -0.000162591 0)
(0.0019958 -0.000196136 0)
(0.0020541 -0.000232094 0)
(0.00212557 -0.000271042 0)
(0.0022109 -0.000313592 0)
(0.00231088 -0.000360382 0)
(0.00242644 -0.000412053 0)
(0.00255857 -0.0004692 0)
(0.0027083 -0.000532306 0)
(0.00287661 -0.000601628 0)
(0.00306437 -0.000677041 0)
(0.00327212 -0.000757826 0)
(0.00349991 -0.000842382 0)
(0.00374693 -0.000927864 0)
(0.00401118 -0.00100975 0)
(0.00428887 -0.00108134 0)
(0.0045738 -0.00113324 0)
(0.00485652 -0.00115282 0)
(0.00512342 -0.00112384 0)
(0.00535568 -0.0010262 0)
(0.00552835 -0.000835977 0)
(0.0056096 -0.000525967 0)
(0.00556068 -6.65065e-05 0)
(0.00533608 0.000570678 0)
(0.00489421 0.00139459 0)
(0.00420471 0.00237387 0)
(0.00326661 0.00339202 0)
(0.00213396 0.00416907 0)
(0.00096914 0.00414968 0)
(9.94691e-05 0.00238551 0)
(2.07694e-05 -0.000676543 0)
(0.000346476 -0.00178295 0)
(0.000943349 -0.00268688 0)
(0.0017483 -0.00340822 0)
(0.0027115 -0.00395413 0)
(0.00378717 -0.00432937 0)
(0.00493242 -0.00454151 0)
(0.00610893 -0.00460264 0)
(0.00728356 -0.00452903 0)
(0.00842872 -0.00433988 0)
(0.0095222 -0.00405579 0)
(0.0105468 -0.0036975 0)
(0.0114899 -0.00328483 0)
(0.0123425 -0.00283599 0)
(0.013099 -0.00236719 0)
(0.0137562 -0.00189243 0)
(0.014313 -0.00142346 0)
(0.0147699 -0.000969962 0)
(0.0151284 -0.000539649 0)
(0.0153912 -0.000139327 0)
(0.0155594 0.000225827 0)
(0.0156398 0.000553223 0)
(0.0156385 0.000843092 0)
(0.0155623 0.00109616 0)
(0.0154178 0.0013136 0)
(0.0152117 0.00149695 0)
(0.0149506 0.00164809 0)
(0.014641 0.0017691 0)
(0.0142892 0.00186224 0)
(0.0139013 0.00192987 0)
(0.013483 0.00197435 0)
(0.0130399 0.00199807 0)
(0.0125772 0.00200331 0)
(0.0120999 0.00199229 0)
(0.0116124 0.0019671 0)
(0.0111189 0.00192971 0)
(0.0106234 0.00188195 0)
(0.0101293 0.00182549 0)
(0.00963984 0.00176187 0)
(0.00915782 0.00169249 0)
(0.00868574 0.0016186 0)
(0.00822582 0.00154133 0)
(0.00777994 0.00146169 0)
(0.00734969 0.00138058 0)
(0.00693642 0.00129879 0)
(0.00654117 0.00121702 0)
(0.00616479 0.00113588 0)
(0.00580788 0.00105588 0)
(0.00547084 0.000977481 0)
(0.00515388 0.000901046 0)
(0.00485706 0.000826879 0)
(0.00458027 0.000755215 0)
(0.0043233 0.000686227 0)
(0.0040858 0.000620025 0)
(0.00386737 0.000556666 0)
(0.0036675 0.000496149 0)
(0.00348567 0.000438425 0)
(0.0033213 0.000383395 0)
(0.00317379 0.000330918 0)
(0.00304257 0.000280809 0)
(0.00292705 0.000232846 0)
(0.00282667 0.000186767 0)
(0.00274094 0.000142277 0)
(0.00266938 9.90486e-05 0)
(0.0026116 5.67191e-05 0)
(0.00256729 1.4873e-05 0)
(0.00253607 -2.6816e-05 0)
(0.00251841 -6.84439e-05 0)
(0.00251392 -0.00011038 0)
(0.00252251 -0.000153247 0)
(0.00254419 -0.000197647 0)
(0.00257908 -0.000244196 0)
(0.00262741 -0.000293552 0)
(0.0026895 -0.000346404 0)
(0.00276577 -0.000403473 0)
(0.00285672 -0.00046549 0)
(0.00296292 -0.000533163 0)
(0.00308495 -0.000607118 0)
(0.00322337 -0.000687805 0)
(0.00337867 -0.000775358 0)
(0.00355112 -0.000869403 0)
(0.00374066 -0.000968782 0)
(0.00394669 -0.0010712 0)
(0.00416776 -0.00117279 0)
(0.00440126 -0.00126753 0)
(0.00464285 -0.00134665 0)
(0.00488588 -0.00139796 0)
(0.00512061 -0.00140519 0)
(0.00533331 -0.00134747 0)
(0.00550531 -0.00119914 0)
(0.00561208 -0.000929933 0)
(0.00562303 -0.000505973 0)
(0.00550083 0.000108595 0)
(0.00520527 0.000940994 0)
(0.00470255 0.00199188 0)
(0.00397203 0.00320795 0)
(0.00302507 0.00442814 0)
(0.00192814 0.00529512 0)
(0.00084446 0.00513803 0)
(7.71098e-05 0.0028713 0)
(2.02709e-05 -0.000855791 0)
(0.000353195 -0.00225723 0)
(0.000967731 -0.00340009 0)
(0.00179743 -0.0043081 0)
(0.00278879 -0.00499115 0)
(0.00389244 -0.00545735 0)
(0.00506278 -0.00571872 0)
(0.00625992 -0.00579274 0)
(0.00745016 -0.00570154 0)
(0.00860625 -0.00547017 0)
(0.00970696 -0.00512472 0)
(0.0107366 -0.00469086 0)
(0.011684 -0.00419261 0)
(0.0125422 -0.00365172 0)
(0.013307 -0.00308718 0)
(0.013977 -0.00251518 0)
(0.0145524 -0.00194913 0)
(0.0150346 -0.00139987 0)
(0.0154259 -0.000875961 0)
(0.0157292 -0.000384159 0)
(0.015947 6.96939e-05 0)
(0.016082 0.000480619 0)
(0.0161396 0.000847937 0)
(0.0161254 0.00117236 0)
(0.016045 0.00145501 0)
(0.015904 0.00169745 0)
(0.0157079 0.0019016 0)
(0.0154622 0.00206968 0)
(0.0151723 0.00220409 0)
(0.0148434 0.00230737 0)
(0.0144805 0.00238212 0)
(0.0140886 0.00243092 0)
(0.0136723 0.00245634 0)
(0.0132361 0.00246086 0)
(0.0127843 0.00244686 0)
(0.0123209 0.0024166 0)
(0.0118497 0.0023722 0)
(0.0113743 0.00231565 0)
(0.0108979 0.00224877 0)
(0.0104235 0.00217327 0)
(0.00995396 0.00209071 0)
(0.00949177 0.0020025 0)
(0.00903916 0.00190995 0)
(0.00859814 0.00181421 0)
(0.00817044 0.00171636 0)
(0.00775757 0.00161733 0)
(0.00736078 0.00151799 0)
(0.0069811 0.00141906 0)
(0.00661936 0.00132122 0)
(0.00627616 0.00122501 0)
(0.00595194 0.00113092 0)
(0.00564694 0.00103933 0)
(0.00536128 0.000950548 0)
(0.00509491 0.000864806 0)
(0.00484768 0.00078225 0)
(0.00461933 0.000702961 0)
(0.00440951 0.000626945 0)
(0.00421784 0.000554145 0)
(0.00404384 0.000484442 0)
(0.00388705 0.00041766 0)
(0.00374696 0.000353568 0)
(0.00362308 0.000291886 0)
(0.00351492 0.000232285 0)
(0.00342203 0.000174391 0)
(0.00334398 0.000117787 0)
(0.00328041 6.20099e-05 0)
(0.00323099 6.50886e-06 0)
(0.00319546 -4.90251e-05 0)
(0.00317427 -0.000104738 0)
(0.00316697 -0.000161199 0)
(0.00317344 -0.000219165 0)
(0.00319361 -0.000279354 0)
(0.00322749 -0.000342507 0)
(0.00327516 -0.000409397 0)
(0.00333674 -0.00048081 0)
(0.0034124 -0.000557525 0)
(0.00350233 -0.000640269 0)
(0.0036067 -0.000729646 0)
(0.0037256 -0.000826025 0)
(0.00385901 -0.000929376 0)
(0.00400667 -0.00103904 0)
(0.00416797 -0.00115341 0)
(0.00434179 -0.00126951 0)
(0.0045262 -0.00138248 0)
(0.00471815 -0.00148491 0)
(0.00491305 -0.00156607 0)
(0.00510414 -0.00161116 0)
(0.0052818 -0.00160047 0)
(0.00543269 -0.00150883 0)
(0.00553891 -0.00130536 0)
(0.00557718 -0.000954026 0)
(0.00551897 -0.000415116 0)
(0.00532961 0.000351198 0)
(0.00497571 0.0013689 0)
(0.00443015 0.00262826 0)
(0.00368137 0.00405228 0)
(0.00275042 0.00543545 0)
(0.00171173 0.00634904 0)
(0.000723546 0.00602577 0)
(5.84295e-05 0.00328506 0)
(2.01466e-05 -0.0010377 0)
(0.000359638 -0.00274225 0)
(0.000988357 -0.00413101 0)
(0.00183643 -0.00522943 0)
(0.00284666 -0.00604977 0)
(0.00396618 -0.00660399 0)
(0.00514693 -0.00690959 0)
(0.00634762 -0.00699053 0)
(0.0075343 -0.00687577 0)
(0.00868026 -0.00659697 0)
(0.00976552 -0.00618629 0)
(0.010776 -0.00567464 0)
(0.0117024 -0.00509047 0)
(0.0125398 -0.00445902 0)
(0.0132859 -0.00380204 0)
(0.013941 -0.00313774 0)
(0.0145069 -0.00248095 0)
(0.0149865 -0.00184342 0)
(0.0153832 -0.00123423 0)
(0.0157006 -0.000660258 0)
(0.0159424 -0.00012701 0)
(0.0161109 0.000360593 0)
(0.0162093 0.000799597 0)
(0.0162426 0.00119067 0)
(0.0162154 0.00153493 0)
(0.0161322 0.00183396 0)
(0.0159973 0.00208975 0)
(0.0158152 0.00230458 0)
(0.0155902 0.00248097 0)
(0.0153264 0.00262155 0)
(0.015028 0.00272904 0)
(0.014699 0.00280618 0)
(0.0143432 0.00285568 0)
(0.0139644 0.00288017 0)
(0.0135663 0.0028822 0)
(0.0131525 0.00286421 0)
(0.0127263 0.00282851 0)
(0.012291 0.00277729 0)
(0.0118497 0.0027126 0)
(0.0114055 0.00263633 0)
(0.010961 0.00255028 0)
(0.0105188 0.00245609 0)
(0.0100813 0.00235529 0)
(0.00965087 0.00224927 0)
(0.00922933 0.00213934 0)
(0.00881853 0.00202668 0)
(0.00842005 0.00191234 0)
(0.00803527 0.0017973 0)
(0.00766538 0.00168242 0)
(0.00731134 0.00156847 0)
(0.00697394 0.0014561 0)
(0.00665379 0.00134588 0)
(0.00635134 0.00123827 0)
(0.00606686 0.00113364 0)
(0.00580051 0.00103226 0)
(0.0055523 0.000934326 0)
(0.00532213 0.000839927 0)
(0.00510984 0.000749079 0)
(0.00491515 0.000661716 0)
(0.00473776 0.000577701 0)
(0.00457729 0.000496823 0)
(0.00443336 0.000418812 0)
(0.00430556 0.000343333 0)
(0.00419347 0.000269996 0)
(0.00409671 0.000198355 0)
(0.00401486 0.000127909 0)
(0.00394762 5.8087e-05 0)
(0.00389448 -1.17507e-05 0)
(0.00385565 -8.18199e-05 0)
(0.00383115 -0.000152407 0)
(0.00382055 -0.000224279 0)
(0.00382366 -0.00029824 0)
(0.00384028 -0.000375087 0)
(0.00387023 -0.000455636 0)
(0.00391337 -0.000540701 0)
(0.00396955 -0.000631067 0)
(0.0040386 -0.000727441 0)
(0.00412029 -0.000830365 0)
(0.0042143 -0.000940094 0)
(0.00432016 -0.00105641 0)
(0.00443715 -0.00117836 0)
(0.00456423 -0.0013039 0)
(0.00469984 -0.00142943 0)
(0.00484172 -0.00154917 0)
(0.00498659 -0.00165442 0)
(0.00512977 -0.00173271 0)
(0.00526462 -0.00176681 0)
(0.00538189 -0.00173388 0)
(0.00546897 -0.00160479 0)
(0.00550909 -0.00134394 0)
(0.00548068 -0.000910141 0)
(0.00535754 -0.000258751 0)
(0.00510859 0.000651881 0)
(0.00470713 0.00184075 0)
(0.00413211 0.0032869 0)
(0.00337978 0.00488874 0)
(0.00247856 0.00639771 0)
(0.00150727 0.00732093 0)
(0.00061568 0.00681328 0)
(4.37411e-05 0.00363397 0)
(2.04771e-05 -0.001223 0)
(0.00036744 -0.00323749 0)
(0.00100936 -0.00487672 0)
(0.00187225 -0.00616655 0)
(0.00289501 -0.00712151 0)
(0.00402143 -0.00775821 0)
(0.00520123 -0.00810071 0)
(0.00639216 -0.00818056 0)
(0.00756031 -0.00803452 0)
(0.00867986 -0.00770161 0)
(0.00973228 -0.00722055 0)
(0.0107053 -0.00662782 0)
(0.0115918 -0.0059564 0)
(0.0123887 -0.0052351 0)
(0.0130958 -0.00448832 0)
(0.0137154 -0.00373612 0)
(0.0142509 -0.00299456 0)
(0.0147067 -0.00227608 0)
(0.0150873 -0.00159003 0)
(0.0153975 -0.000943222 0)
(0.0156414 -0.000340561 0)
(0.0158232 0.000213813 0)
(0.0159439 0.000716045 0)
(0.0160084 0.00116617 0)
(0.0160204 0.00156546 0)
(0.0159832 0.00191555 0)
(0.0159005 0.00221852 0)
(0.0157755 0.00247675 0)
(0.0156114 0.00269283 0)
(0.0154115 0.00286949 0)
(0.0151788 0.00300952 0)
(0.0149162 0.00311572 0)
(0.0146267 0.00319086 0)
(0.0143134 0.00323766 0)
(0.0139789 0.00325873 0)
(0.0136263 0.00325658 0)
(0.0132582 0.00323362 0)
(0.0128776 0.00319213 0)
(0.012487 0.00313425 0)
(0.0120892 0.00306203 0)
(0.0116868 0.00297738 0)
(0.0112821 0.00288208 0)
(0.0108775 0.00277784 0)
(0.0104752 0.00266622 0)
(0.0100774 0.00254868 0)
(0.00968596 0.0024266 0)
(0.00930263 0.00230124 0)
(0.00892903 0.00217374 0)
(0.00856661 0.00204516 0)
(0.0082166 0.00191646 0)
(0.00788011 0.00178847 0)
(0.00755804 0.00166194 0)
(0.00725115 0.00153749 0)
(0.00696003 0.00141565 0)
(0.0066851 0.00129684 0)
(0.00642669 0.00118136 0)
(0.00618495 0.00106942 0)
(0.00595996 0.000961145 0)
(0.00575168 0.000856543 0)
(0.00555999 0.000755541 0)
(0.00538468 0.000657983 0)
(0.00522553 0.000563633 0)
(0.00508223 0.000472183 0)
(0.00495445 0.000383256 0)
(0.00484186 0.00029641 0)
(0.00474408 0.000211139 0)
(0.00466075 0.000126875 0)
(0.00459156 4.29241e-05 0)
(0.00453578 -4.13537e-05 0)
(0.0044942 -0.000126064 0)
(0.00446618 -0.000211673 0)
(0.00445137 -0.000299063 0)
(0.00444943 -0.000389058 0)
(0.00445999 -0.000482472 0)
(0.00448265 -0.000580111 0)
(0.00451698 -0.000682731 0)
(0.00456251 -0.000790983 0)
(0.00461867 -0.000905323 0)
(0.0046848 -0.00102587 0)
(0.00476004 -0.0011522 0)
(0.00484331 -0.00128309 0)
(0.00493323 -0.00141608 0)
(0.00502794 -0.001547 0)
(0.00512496 -0.00166925 0)
(0.00522089 -0.00177299 0)
(0.0053111 -0.00184415 0)
(0.0053892 -0.00186336 0)
(0.00544646 -0.00180495 0)
(0.00547116 -0.0016362 0)
(0.0054478 -0.00131732 0)
(0.00535685 -0.000802605 0)
(0.00517407 -4.32814e-05 0)
(0.00487336 0.00100164 0)
(0.00443342 0.00234586 0)
(0.00383879 0.00395636 0)
(0.00309212 0.00570686 0)
(0.0022273 0.00730805 0)
(0.00132483 0.00821053 0)
(0.000523936 0.00750838 0)
(3.2656e-05 0.00392765 0)
(2.12033e-05 -0.00141275 0)
(0.000376705 -0.00374341 0)
(0.00103131 -0.00563562 0)
(0.00190613 -0.00711526 0)
(0.00293585 -0.00819955 0)
(0.00406116 -0.00891079 0)
(0.00523 -0.00928084 0)
(0.00639954 -0.00935001 0)
(0.00753636 -0.00916374 0)
(0.00861587 -0.0087691 0)
(0.00962128 -0.0082118 0)
(0.0105424 -0.00753415 0)
(0.0113741 -0.00677376 0)
(0.0121156 -0.00596297 0)
(0.0127689 -0.0051287 0)
(0.0133379 -0.00429272 0)
(0.0138277 -0.00347208 0)
(0.0142442 -0.00267968 0)
(0.0145931 -0.00192493 0)
(0.0148802 -0.00121437 0)
(0.0151103 -0.000552391 0)
(0.0152885 5.83356e-05 0)
(0.0154161 0.000614138 0)
(0.015497 0.00111419 0)
(0.0155346 0.00156014 0)
(0.0155314 0.00195382 0)
(0.0154901 0.00229746 0)
(0.0154132 0.00259358 0)
(0.0153029 0.00284489 0)
(0.0151614 0.00305419 0)
(0.0149908 0.00322434 0)
(0.014793 0.00335818 0)
(0.0145701 0.00345849 0)
(0.0143241 0.00352798 0)
(0.014057 0.00356927 0)
(0.0137709 0.00358486 0)
(0.0134679 0.00357716 0)
(0.0131502 0.00354845 0)
(0.0128199 0.0035009 0)
(0.0124793 0.00343658 0)
(0.0121305 0.00335745 0)
(0.0117756 0.00326537 0)
(0.0114169 0.0031621 0)
(0.0110564 0.00304933 0)
(0.0106961 0.00292862 0)
(0.0103379 0.00280147 0)
(0.00998365 0.00266927 0)
(0.00963507 0.00253334 0)
(0.00929373 0.00239487 0)
(0.00896104 0.00225498 0)
(0.0086383 0.00211468 0)
(0.00832666 0.00197485 0)
(0.00802711 0.00183631 0)
(0.0077405 0.00169971 0)
(0.00746751 0.00156562 0)
(0.00720872 0.0014345 0)
(0.00696454 0.00130668 0)
(0.00673528 0.00118238 0)
(0.00652112 0.00106172 0)
(0.00632216 0.000944723 0)
(0.00613837 0.000831304 0)
(0.00596969 0.000721291 0)
(0.00581596 0.000614429 0)
(0.00567695 0.000510383 0)
(0.00555242 0.000408744 0)
(0.00544205 0.000309033 0)
(0.00534551 0.000210701 0)
(0.00526242 0.000113122 0)
(0.00519238 1.54868e-05 0)
(0.00513478 -8.26554e-05 0)
(0.00509024 -0.000181418 0)
(0.00505797 -0.000281475 0)
(0.00503755 -0.000383681 0)
(0.00502845 -0.000488824 0)
(0.00503008 -0.000597665 0)
(0.00504179 -0.000710903 0)
(0.00506286 -0.000829109 0)
(0.00509247 -0.000952627 0)
(0.00512965 -0.00108143 0)
(0.00517328 -0.0012149 0)
(0.00522201 -0.00135153 0)
(0.00527419 -0.00148851 0)
(0.00532777 -0.00162114 0)
(0.00538012 -0.00174211 0)
(0.00542784 -0.00184057 0)
(0.00546642 -0.00190104 0)
(0.00548978 -0.00190223 0)
(0.00548979 -0.00181595 0)
(0.00545563 -0.00160628 0)
(0.00537313 -0.00122973 0)
(0.00522478 -0.000636636 0)
(0.0049884 0.000224939 0)
(0.00464367 0.00139253 0)
(0.00417275 0.00287589 0)
(0.00356564 0.00462896 0)
(0.00283021 0.00650111 0)
(0.00200415 0.00816514 0)
(0.00116756 0.00902272 0)
(0.000448209 0.00812199 0)
(2.45358e-05 0.00417591 0)
(2.22195e-05 -0.00160771 0)
(0.000386796 -0.00426015 0)
(0.001053 -0.00640593 0)
(0.00193633 -0.00807128 0)
(0.00296716 -0.00927717 0)
(0.00408338 -0.0100529 0)
(0.00523159 -0.0104396 0)
(0.00636892 -0.0104873 0)
(0.00746285 -0.0102511 0)
(0.00849037 -0.00978665 0)
(0.00943669 -0.00914705 0)
(0.0102938 -0.0083806 0)
(0.011059 -0.00752957 0)
(0.0117336 -0.00662973 0)
(0.0123217 -0.00571039 0)
(0.012829 -0.0047948 0)
(0.0132624 -0.00390076 0)
(0.0136289 -0.00304141 0)
(0.0139354 -0.00222593 0)
(0.0141885 -0.00146037 0)
(0.0143937 -0.000748438 0)
(0.0145558 -9.18229e-05 0)
(0.0146793 0.000507218 0)
(0.0147651 0.00104757 0)
(0.0148172 0.00153112 0)
(0.0148373 0.00196 0)
(0.0148276 0.00233669 0)
(0.0147897 0.00266392 0)
(0.0147251 0.00294459 0)
(0.014635 0.00318161 0)
(0.0145206 0.00337793 0)
(0.0143831 0.00353639 0)
(0.0142235 0.00365978 0)
(0.0140429 0.00375076 0)
(0.0138427 0.0038119 0)
(0.013624 0.00384564 0)
(0.0133882 0.0038543 0)
(0.0131368 0.0038401 0)
(0.0128714 0.00380516 0)
(0.0125937 0.0037515 0)
(0.0123053 0.00368104 0)
(0.0120081 0.00359565 0)
(0.0117038 0.00349709 0)
(0.0113942 0.00338705 0)
(0.0110813 0.00326718 0)
(0.0107667 0.00313902 0)
(0.0104522 0.00300405 0)
(0.0101395 0.00286368 0)
(0.00983021 0.00271922 0)
(0.00952581 0.0025719 0)
(0.0092277 0.00242287 0)
(0.00893717 0.00227315 0)
(0.00865538 0.00212368 0)
(0.00838336 0.00197528 0)
(0.008122 0.00182864 0)
(0.00787206 0.00168436 0)
(0.0076342 0.00154289 0)
(0.00740891 0.00140459 0)
(0.00719659 0.00126969 0)
(0.00699751 0.00113831 0)
(0.00681187 0.00101047 0)
(0.00663973 0.000886076 0)
(0.00648108 0.000764948 0)
(0.00633584 0.000646818 0)
(0.00620385 0.000531337 0)
(0.00608488 0.000418079 0)
(0.00597864 0.000306545 0)
(0.00588478 0.000196161 0)
(0.00580292 8.62486e-05 0)
(0.00573231 -2.39943e-05 0)
(0.0056731 -0.000134776 0)
(0.005625 -0.000246361 0)
(0.00558735 -0.000359512 0)
(0.00555955 -0.00047497 0)
(0.00554089 -0.000593424 0)
(0.00553056 -0.000715489 0)
(0.00552766 -0.000841635 0)
(0.00553118 -0.000972084 0)
(0.00553995 -0.00110665 0)
(0.00555265 -0.00124454 0)
(0.00556773 -0.00138398 0)
(0.00558338 -0.00152182 0)
(0.00559742 -0.00165292 0)
(0.00560717 -0.00176932 0)
(0.00560927 -0.00185929 0)
(0.00559935 -0.00190611 0)
(0.0055717 -0.00188679 0)
(0.00551878 -0.00177089 0)
(0.00543066 -0.0015197 0)
(0.00529451 -0.00108647 0)
(0.00509454 -0.000418256 0)
(0.00481148 0.000538113 0)
(0.00442925 0.00181749 0)
(0.00393362 0.00342441 0)
(0.00331927 0.00529961 0)
(0.00259825 0.00726909 0)
(0.00181073 0.00897083 0)
(0.0010349 0.00976482 0)