/*--------------------------------*- C++ -*----------------------------------*\
  =========                 |
  \\      /  F ield         | OpenFOAM: The Open Source CFD Toolbox
   \\    /   O peration     | Website:  https://openfoam.org
    \\  /    A nd           | Version:  6
     \\/     M anipulation  |
\*---------------------------------------------------------------------------*/
FoamFile
{
    version     2.0;
    format      ascii;
    class       volScalarField;
    location    "0";
    object      p;
}
// * * * * * * * * * * * * * * * * * * * * * * * * * * * * * * * * * * * * * //

dimensions      [0 2 -2 0 0 0 0];

internalField   nonuniform List<scalar> 
13046
(
0.0998567
0.0917925
0.11892
0.103668
0.113524
0.0954112
0.0948116
0.0985315
0.118358
0.0308622
-0.0250139
0.107067
0.0959753
0.0765047
0.115388
0.0481405
0.108135
-0.0124409
0.11467
0.108676
0.0988719
0.0457523
0.108955
-0.0144071
0.100838
0.104171
0.113537
0.0910133
0.0788402
0.118659
0.104477
0.0809669
0.114263
0.106747
0.114695
0.0999978
0.105402
0.11555
0.104126
0.105659
0.113562
0.0793111
0.104792
0.114996
0.108063
0.104619
0.109065
0.109624
0.0950481
0.0914637
0.119429
0.0977861
0.10815
0.0641528
0.104912
0.0576723
0.111307
0.0246864
0.0814357
0.110423
0.0739705
0.0720104
0.114758
0.110421
0.018532
0.0551767
0.0856357
0.0282175
0.107663
0.089461
0.0320908
0.107636
0.016741
0.0784829
0.11012
0.115109
0.116063
0.0920868
0.112362
0.069278
0.0146289
0.0984267
0.101903
0.113143
0.109488
0.00991119
0.0488773
0.0454505
0.110965
0.0303589
0.10875
0.0314768
0.0314299
0.0778774
0.0725398
0.0555417
0.0505488
0.113494
0.11526
0.111856
0.0444797
0.0368214
0.10497
0.111382
0.106903
0.116117
0.0660786
0.10544
0.107186
0.110468
0.0713116
0.00761225
0.104354
-0.0645252
0.0972912
0.083736
0.113121
0.0744483
0.0776048
0.0401637
0.113143
0.0510033
0.113068
0.0262818
-0.0361205
0.106609
0.0887983
0.0577203
0.118115
0.103765
0.113356
0.078807
0.108393
0.0347259
0.0441248
0.0642922
0.0407278
0.112801
0.102016
0.0783473
0.113091
0.0823559
0.0998537
0.11455
0.106039
0.103806
0.073261
0.114509
0.0734453
0.109864
0.0740686
0.0630435
0.113821
0.119385
0.0833141
0.103839
0.0910288
0.05794
0.0859057
0.0569177
0.112235
0.113052
0.0844545
0.0881808
0.111535
0.0283605
0.107021
-0.0211812
0.0161317
0.104816
-0.0549647
0.0625182
0.0328965
0.113144
0.104583
0.060795
0.113215
0.0848737
0.110836
0.0926645
0.109308
-0.00583063
0.0293636
0.104505
0.0678563
0.109067
0.118521
0.0783275
0.10174
0.0861401
0.0990201
0.112961
0.0738887
0.118545
0.0893152
0.0671236
0.115516
0.0448169
0.109586
0.0161285
0.110631
0.0427317
0.0441684
0.033533
0.0284591
0.10771
0.0952636
0.0541741
0.104927
0.0907857
0.0702329
0.110078
0.0142946
0.0152081
0.0328183
0.108544
0.102085
0.115504
0.104708
0.0936318
0.0815757
0.117405
0.111054
0.0383868
0.048405
0.0876249
0.0785343
0.120015
0.105938
-0.0403333
0.0157604
0.105987
0.0541551
0.0917895
0.0386316
0.0370354
0.10974
0.0672391
0.0886531
0.11522
0.086602
0.0626583
0.11873
0.0643125
0.0422627
0.107763
0.0524749
0.0804247
0.110551
0.10566
-0.0392803
0.0101775
0.109251
0.113056
0.0648182
0.0183128
0.102953
-0.0835783
0.112508
0.101344
0.105555
0.0720093
0.0717822
0.0859058
0.0899825
0.116255
0.112493
0.108061
0.06521
0.00534315
0.0905804
0.0669586
0.115227
0.0523085
0.0684536
0.111846
0.0679162
0.0415636
0.113147
0.107829
0.103268
0.114888
0.0631852
0.0833251
0.113329
0.0920437
0.0584046
0.115295
0.0885211
0.0876672
0.110655
0.108974
0.0582348
0.0629314
0.0760338
0.11292
0.0613889
0.112725
0.0388032
0.113392
0.107556
0.0712865
0.112373
0.053402
0.0865463
0.0809652
0.0433355
0.111244
0.108431
0.0996356
0.0617276
0.0761559
0.0737719
0.0393774
0.111298
0.0358167
0.113326
0.109143
-0.000235209
0.0337241
0.0803456
0.0566309
0.114929
-0.10015
0.102672
-0.00151121
0.0960051
0.111288
0.098874
0.07868
0.0763937
0.114926
0.111304
0.0498233
0.0258762
0.102731
0.0524884
0.110537
0.0560904
0.0416997
0.108982
0.0907506
0.117019
0.0757316
0.0730251
0.116192
0.0849028
0.116918
0.0546953
0.108486
-0.00341726
0.100161
0.0473226
0.106319
0.0718049
0.0692848
0.114722
0.0797896
0.0944275
0.116523
0.0697337
0.0981385
0.112179
0.100745
0.0913248
0.116637
0.108243
0.0561779
0.0900517
0.0393793
0.0207966
0.109139
0.0602263
0.0406193
0.110724
0.0918038
0.105558
0.0441974
0.0725694
0.0756943
0.0313163
0.0229713
0.108241
0.109891
0.102818
-0.0918933
0.00412415
0.0224606
0.103536
-0.0776417
0.0697795
0.082861
0.110756
0.108599
0.0434688
0.00638096
0.085904
0.0842034
0.044596
0.0382007
0.11292
0.111008
0.105577
0.00480067
0.0201928
0.01421
0.102537
-0.0932135
0.0978897
0.112571
0.11235
0.00969217
-0.0778482
0.103707
0.101101
0.0610835
0.110592
0.0304993
-0.000906825
0.109203
-0.0851539
0.103594
-0.0200451
0.106996
0.111347
0.0835455
0.0947025
0.111655
0.113752
0.0294741
0.106794
-0.0414225
0.091312
0.107953
0.113795
0.100572
0.112369
0.11271
0.109874
0.0470195
0.0947312
0.0887801
0.11537
0.11281
0.0976833
0.0992726
0.109793
0.0950016
0.0472991
0.105078
0.109268
0.109707
-0.0143176
-0.0151773
0.038813
0.037154
0.0321831
0.0171559
0.108875
0.110355
0.0916673
0.0337499
0.104517
0.107969
0.0718248
0.0507299
0.0768723
0.107341
-0.0551275
0.103658
-0.0120921
0.108804
0.0301141
0.0244247
0.0184954
0.105802
-0.044686
0.103115
-0.0946506
-0.0191977
-0.115267
0.102166
-0.00658252
0.0689277
0.0616589
0.111428
-0.0168066
0.104376
0.00596595
0.0585086
0.0415471
0.112955
0.0436514
0.105253
-0.036218
0.0937958
0.115463
0.0966584
0.0122421
0.106974
0.0241797
0.0518755
0.107279
0.0796563
0.0653491
0.0526436
0.11302
0.102598
-0.143624
-0.0331359
-0.0831614
0.103542
-0.0104244
0.0977558
0.116534
0.0944588
0.000783602
0.0191719
0.10666
0.106404
0.0129793
-0.000760612
0.0431421
0.109175
0.0068752
0.109352
0.0101836
0.0603148
0.0992406
0.0428573
0.107215
0.0304469
0.0807368
0.11338
0.108568
0.0580349
-0.0114849
0.0967006
0.0949453
0.0668696
0.0616369
0.114064
0.115848
0.0991561
0.0682955
0.113549
0.0900597
0.0386098
0.114324
0.0635546
0.0460368
0.110831
0.0109295
0.032466
0.110032
0.11013
0.0482784
0.0528557
-0.116759
0.101784
-8.59157e-05
0.108082
0.105638
0.11587
0.0812411
0.117833
0.0855808
0.0965438
0.0939497
0.111296
0.0452407
0.112013
0.0585652
-0.0824382
0.102685
-0.0182156
0.00409826
0.0232252
0.107432
0.103654
0.102406
0.0621354
0.070442
0.0449823
0.108853
0.109616
0.0135585
0.0640939
-0.0610748
0.00229564
0.104382
-0.0490173
0.00389546
0.104869
0.0845356
0.0435152
0.11489
0.114014
0.103505
0.0760827
0.0403123
0.108299
-0.0050966
0.0652456
0.055605
0.113954
0.112873
0.0244944
0.0601327
0.0965089
0.112764
0.0592989
0.0700104
0.0915117
0.112458
0.107562
0.111652
0.0743494
0.108198
-0.00824346
0.0343847
0.0689043
0.0364507
0.112923
0.108854
0.112974
0.0845628
0.0523626
0.107064
-0.0208992
0.0976328
0.0801052
0.11691
0.0893275
0.0955309
0.115945
0.0711869
0.0569405
0.111719
0.0295106
0.104784
-0.0604146
0.0341725
0.10479
-0.0565988
0.11238
0.0199548
0.0608563
0.0641375
0.0969061
0.110445
0.103743
-0.0736379
0.0220767
0.111376
0.0325028
0.0543731
0.102389
-0.105644
-0.0240368
-0.0125936
-0.12266
0.102175
0.109811
-0.00516177
0.0582636
0.106947
-0.0252716
0.0227638
0.0477064
0.050917
0.107667
-0.0071051
0.109174
0.00432177
0.0502056
0.0386478
0.111711
0.111914
0.0756305
0.0421047
0.108187
0.113809
0.0890309
0.0526182
0.0469617
0.112313
0.112257
0.0541784
0.0514548
0.062945
0.108436
-0.00756661
0.0951973
0.0395399
0.111808
0.0977567
0.0581941
0.108474
0.0630766
0.0647128
0.115541
0.060893
0.0619914
0.114614
0.109541
0.107784
0.0903567
0.0950661
0.0557039
0.118284
0.107514
0.0161406
0.0213475
-0.000162387
0.104596
-0.0462527
-0.00663143
0.104454
-0.0430641
0.103269
0.114179
0.0729206
-0.0685873
0.103667
-0.00529498
0.0660185
0.11241
0.0250994
0.103916
-0.0644233
-0.0135214
0.10359
0.113455
0.0992217
0.0863346
0.0762787
0.116216
0.096615
0.0650681
0.110588
0.104879
-0.011728
0.0118883
0.0624851
0.0572785
0.112634
0.106509
0.0484095
-0.0243366
0.0795626
0.0722158
0.118378
0.109248
0.115357
0.0907465
-0.0134344
0.0161561
0.10659
0.112361
0.0250477
0.0544285
0.0271895
0.0222663
0.104727
0.104285
-0.0528338
-0.0617609
0.0769712
0.0877002
0.116339
0.0729164
0.0653028
0.110861
0.0908936
0.0977316
0.119026
-0.0325962
0.00486848
-0.0288801
0.105458
0.0044218
0.104662
0.0721842
0.0546187
0.11653
0.016549
0.0110659
-0.0195653
-0.0279767
0.106615
0.105431
0.0636921
0.0792085
0.11654
0.0836877
0.0844043
0.116243
0.0388404
0.106273
-0.0418618
0.0828558
0.0785029
0.115179
0.0910355
0.0894525
0.115252
0.0280518
0.105043
-0.0503567
0.0829276
0.058682
0.113603
0.08847
0.0451123
0.108433
0.0992015
0.0505564
0.110394
0.0511716
0.107843
0.0340874
0.102507
-0.130738
-0.0260633
0.0784296
0.0770974
0.11564
0.0420644
0.106529
-0.0253777
0.103814
0.0440596
0.102653
-0.00261441
0.102571
-0.10279
0.114142
0.110927
0.102698
0.0814657
0.105284
0.0791834
0.0932625
0.0979805
0.116001
0.108408
0.113155
0.108279
0.084899
0.114259
0.0803989
0.0815305
0.0863992
0.118996
0.0845693
0.0886769
0.118382
0.104214
-0.0377889
-0.00404976
0.101147
0.0732407
0.111315
0.0222202
-0.0167048
0.107536
0.0631992
0.0599982
0.0573252
0.0487454
0.11334
0.111863
0.0986671
0.0830199
0.114263
0.0889123
0.0497505
0.11151
0.071178
0.0649951
0.116932
0.108592
0.0998106
0.111096
0.0572902
0.0511829
0.112884
0.106142
0.110875
0.0919889
0.0692266
0.0754403
0.116102
0.0872696
0.056832
0.111863
0.108098
0.108933
0.0948652
0.116003
0.0950155
0.114019
0.109722
0.105117
0.114264
0.092137
0.117612
0.0833858
0.0969198
0.0946256
0.0717241
0.0711713
0.11625
0.113731
0.109743
0.0123659
0.0621986
0.107452
0.0507922
0.0909786
0.110944
0.111204
0.00559217
0.0100428
0.0571752
0.0553163
0.106907
0.104696
0.0561246
0.108501
0.111868
0.104391
0.0572879
0.0442831
0.112493
0.106598
0.113799
0.0777325
0.0853602
0.054128
0.112366
0.070792
0.070857
0.0197376
0.112118
0.0252303
0.112106
0.0672255
0.0519755
0.113595
0.00247443
-0.0934281
0.103085
0.100865
0.0496064
0.103088
0.0998278
0.101248
0.105007
0.0477788
0.110676
0.0511376
0.0509442
0.0578242
0.111348
0.0906267
0.0547318
0.113062
0.106427
0.102682
0.054053
0.0993056
0.102285
0.106011
0.114836
0.0635499
0.0586939
0.0993706
0.111469
0.0550342
0.0672903
0.0567587
0.115051
0.108202
0.111124
0.0931137
0.0342085
0.106069
-0.0344857
0.105789
0.105121
0.0495664
0.0873599
0.0832361
0.0539607
0.0503486
0.111518
0.115355
0.106862
-0.0251756
0.038609
0.038682
0.106689
-0.0367861
0.0338185
0.105707
-0.0410296
0.0664399
0.111764
0.0211646
0.0926327
0.0605832
0.113703
0.0100884
0.00110195
0.079424
0.0121853
0.047731
-0.035688
0.0211392
0.0234658
-0.0355883
0.0401316
0.038291
-0.0492438
0.00269785
0.0413013
-0.0234145
-0.00581238
0.0124163
-0.0217427
-0.00531834
0.0207574
-0.0091979
-0.0216264
0.0474012
0.104611
0.0830977
0.00556924
0.0541594
-0.0520639
0.00262247
-0.000869246
-0.0488386
0.0168672
-0.00669479
-0.0166867
-0.0454001
-0.0023241
0.0710896
0.0461213
0.0122886
0.0408072
-0.028007
0.100489
-0.0372926
0.0403392
0.0735349
-0.0371493
-0.032605
-0.0419653
-0.0471619
-0.0404749
0.0858111
-0.00936874
-0.004604
-0.0404518
-0.0466627
0.0817375
0.0221393
-0.00465501
-0.0454026
0.036542
-0.0424053
-0.034803
0.0833768
0.0284416
-0.0068972
0.0233952
-0.000712255
0.102237
0.0469436
0.0623579
-0.069505
-0.0541695
-0.0092556
0.02973
-0.05904
-0.0177784
0.0136972
-0.0493411
0.0345792
0.0614527
-0.019108
-0.0132325
-0.042816
-0.0161656
-0.0407909
0.0393071
-0.0398814
0.00703855
-0.0246243
0.0886394
-0.0106272
0.0343499
0.0829928
-0.015536
-0.000841749
-0.0686156
-0.0374829
-0.0412778
-0.000571781
-0.0714203
0.0172571
0.0496363
0.0793199
0.103614
-0.0116121
0.00547916
-0.0502962
-0.00481942
-0.036858
0.0696589
0.0524653
0.0197877
-0.0328762
-0.0610789
0.0439054
0.0676028
-0.0289548
0.00695525
-0.0666298
-0.0245985
-0.0189218
0.0966687
0.0988988
0.0314848
0.00428416
-0.00329019
-0.0485055
0.0961658
-0.00106929
0.0281142
-0.0731505
0.0864422
-0.0414645
-0.0150824
0.00411659
0.0601906
-0.0223803
-0.0808208
-0.0311614
0.0208237
-0.00736488
0.0399565
0.0414542
-0.0153084
0.0717942
-0.0390533
-0.0201384
0.0659012
-0.0321139
-0.0245912
-0.0478785
0.0146468
0.0110933
0.0635139
0.0342357
-0.0334753
0.0298647
0.0416524
0.0772623
0.0135846
-0.00825155
-0.0158845
0.0537732
0.000522153
0.0416694
-0.0469618
0.101192
-0.0241627
0.0733288
0.0931616
-0.00515292
0.0983186
0.0659976
0.0748785
-0.0274155
-0.0739404
-0.0492421
0.0796412
-0.033351
-0.0370438
-0.00226746
-0.0354084
-0.023479
-0.0343416
-0.000778123
0.0935899
0.032564
-0.0299405
0.0371587
-0.0397065
0.0998226
-0.0233274
0.0692167
-0.0198258
-0.0782415
0.0851018
0.094301
-0.0222722
-0.0393218
0.100899
0.00396391
0.0142182
-0.0370139
0.0299936
0.0697177
0.0540919
-0.019344
-0.0461107
0.0584372
0.0108181
-0.0513489
0.0418916
-0.00780972
-0.0463513
-0.00523826
0.0728442
-0.0642636
0.0202686
0.049927
-0.0423138
-0.0703203
-0.0314219
-0.00408589
0.00706246
0.0101033
0.0148524
-0.0124536
-0.0409738
-0.000425763
0.0222708
0.0533061
-0.0370062
0.0156765
-0.037553
-0.0330223
0.00365532
-0.0265563
-0.0762726
0.0578957
0.0651166
-0.00413449
0.0931332
0.0731633
0.10041
-0.00308376
-0.0838399
-0.0228613
-0.0340052
0.00761929
-0.0613494
0.00925907
0.0827302
0.0310382
0.00155713
-0.021998
-0.0329208
0.0618537
-0.00968961
0.0412098
-0.0310149
-0.017071
-0.0324081
-0.0123756
-0.017784
-0.0185612
-0.00939813
-0.0477535
0.0168356
0.00524388
-0.0333407
0.0206838
0.0089203
-0.0258527
-0.043973
-0.0317232
-0.0491753
-0.040586
9.56653e-06
-0.0590101
-0.0871947
-0.00972808
-0.0520427
-0.0669883
0.000815561
-0.0206796
-0.0639835
0.065012
0.017963
-0.0260597
0.0605781
-0.0453685
0.01575
0.043059
-0.00626721
0.000614065
0.0637603
-0.0230277
0.049781
-0.0420121
-0.0185751
0.0676672
-0.0336492
0.00213612
-0.0959967
-0.0615445
-0.0803549
-0.0551696
-0.0418934
0.0199655
-0.0394819
-0.0699898
-0.0458211
-0.0260291
0.100639
0.00346883
0.02896
0.018428
-0.0152081
0.0100567
-0.019914
-0.0511662
0.0111121
-0.0305743
0.0821201
0.0481217
-0.0130582
-0.0296609
-0.00807229
0.105439
0.0584515
0.0716981
0.033912
-0.0214978
-0.00375077
-0.027468
-0.0479967
-0.057772
-0.0401477
0.0167973
0.0409991
-0.0476225
-0.0612769
-0.000609472
0.0152334
-0.00266759
0.0135212
0.0562049
0.00397665
-0.0151167
0.0837418
0.070917
-0.0186019
0.0360867
0.0699976
-0.0639285
-0.0230183
-0.0242201
-0.0392231
-0.0448045
0.0707546
-0.0508943
-0.00213697
0.0829059
-0.0785537
0.00518499
-0.017595
-0.0044353
-0.0264383
-0.0338634
-0.069619
0.0154156
-0.0585117
-0.0546149
-0.0347699
-0.0378981
0.0474191
0.0822728
-0.00204074
0.0288671
0.0202455
0.00364835
-0.0805801
0.0540598
0.0382028
-0.0524001
-0.0673347
0.015906
-0.0497985
0.0102947
-0.00970508
-0.0284429
0.0679222
0.0823673
-0.022974
0.0521068
0.103681
0.0573436
0.0695003
0.0755203
0.0129785
-0.0199498
-0.0430074
0.103016
0.0636528
0.0716116
-0.0435756
-0.0413994
-0.0727028
0.0556747
0.00653794
0.00159032
0.0735496
0.0419819
0.00152733
0.0152728
-0.0188808
-0.00194201
-0.0220665
-0.0313516
-0.031607
-0.0285737
-0.0114304
-0.0593539
0.00916962
-0.0362252
0.0454261
0.0297824
-0.0656144
0.0710916
0.0781196
0.0328417
-0.0424687
0.00649606
-0.0219623
0.0390873
-0.0102566
-0.0503077
0.0691335
-0.0330503
0.083385
-0.0657367
-0.024717
0.00145303
0.0311453
0.0612033
-0.000397678
0.0913614
0.000559994
0.058081
-0.0245671
0.0483371
-0.0183085
0.00203204
-0.0316117
0.0622634
0.00740987
0.101735
0.0234712
-0.0591233
0.0051808
0.0147119
-0.0251825
-0.0416117
-0.0226451
-0.0313258
0.0868862
-0.00181678
-0.00794633
0.0474619
-0.0431621
0.0819806
0.0984942
-0.0387063
0.103635
0.0916866
0.058333
0.0725257
0.0058041
-0.0485726
-0.0409508
-0.0265063
0.0511982
-0.0109007
-0.0322261
0.0900979
-0.0435678
-0.0317915
-0.0431881
0.0741253
0.100934
-0.0429817
0.0567077
0.024801
0.082194
0.0190237
0.0366994
-0.0384839
0.0933037
0.100613
0.0290255
-0.037693
0.0605769
0.00713699
0.0358238
-0.00430369
0.000462946
0.0212747
0.0111262
-0.0300273
-0.042403
0.00146105
0.0273765
0.0179331
0.0670425
-0.0475917
0.00566384
0.0373082
-0.0386677
0.0773103
-0.000680574
-0.0390966
0.0841474
0.0620375
0.0209843
0.0949885
-0.008581
-0.0424464
0.0401402
0.0249864
0.028121
-0.0259306
-0.0297438
0.0153288
0.02716
-0.0285556
-0.0145781
0.0134263
-0.0648214
-0.0313757
0.0848059
0.103258
0.102164
0.0223315
0.106681
0.100671
0.0892602
-0.0836961
0.0144539
0.0160079
0.0937139
-0.0382603
0.00144145
-0.0485245
-0.0376665
-0.0391742
0.0923883
-0.0246087
-0.0201752
0.038534
0.0282229
-0.0303083
-0.0385163
0.0996385
0.0945031
0.0710682
0.0394708
-0.0495085
0.0521827
0.0218557
-0.0405538
0.00811769
-0.0606485
-0.0447253
0.0166647
-0.0164638
-0.0129467
0.0869056
0.0830685
-0.0786419
0.0599514
-0.013304
-0.0145126
0.000439857
0.085004
-0.0185766
0.0379583
-0.0252808
0.0725659
-0.0370104
-0.0232785
0.101525
-0.0712894
-0.0667221
-0.00985231
-0.0269567
-0.0856621
-0.0719923
-0.0236539
-0.0847932
-0.0122283
-0.0749747
-0.05291
-0.0163468
-0.0570595
-0.0224941
-0.00944586
-0.0654059
-0.0675222
0.0929132
0.0755326
-0.037135
-0.0521352
0.0785278
-0.0471888
0.00203973
0.0989384
-0.019369
0.0997623
-0.00682492
0.0634296
0.0234528
-0.0145101
-0.0557402
0.0196672
0.016366
-0.0128039
-0.0156927
-0.035398
-0.0587662
-0.0254204
0.00540735
-0.0736573
-0.062638
0.0899284
-0.00323503
0.0265134
0.0442838
-0.0399329
0.0655833
0.0450613
-0.0474061
-0.0693465
-0.0224506
-0.0583884
-0.084289
0.0314155
0.0329033
-0.0370342
0.0207127
-0.0254812
0.101668
0.0905247
-0.0285408
-0.0283128
0.0934191
0.0672061
0.0132767
0.0190195
-0.0394289
0.103015
0.0285961
-0.0785422
0.0746983
0.0586172
0.0837998
0.00957976
-0.0439247
-0.00194376
0.0338952
0.0124386
-0.0897513
0.100791
-0.0222836
-0.0154361
-0.00995393
0.0815519
0.101632
0.0985129
0.0235122
0.0171907
0.0510069
0.07
0.0871262
0.0281002
0.0523427
-0.00652219
-0.00979877
0.0246401
-0.0417153
-0.00528846
-0.0655747
-0.0233359
0.0444249
-0.063644
0.00583289
0.00322762
0.0691514
0.0977989
-0.0262591
-0.0561918
-0.0703198
0.0578824
-0.0417035
-0.0347801
-0.0688772
0.0872788
0.00354335
0.00516993
-0.0527909
0.00992945
-0.0336194
-0.0169895
0.0471919
0.0418004
0.0900705
0.0988415
-0.0211023
0.0752484
-0.0785772
0.0763087
0.0825513
0.0832727
0.0504538
-0.0312474
-0.0303457
-0.0362062
-0.0765479
0.0282342
-0.0758571
0.0408842
-0.0497283
0.074887
-0.0395227
-0.0715806
0.062613
0.0635698
-0.0127497
-0.0132123
0.0262054
0.086918
0.00256791
-0.00342209
-0.0747133
0.0575109
0.0350259
0.0961665
-0.0832608
-0.0168988
0.0754485
0.0340878
0.0953197
0.038545
-0.0333834
-0.0929339
-0.079381
-0.0154793
-0.0659622
0.0911315
-0.0747164
0.0131822
-0.00993171
-0.0497603
0.0685014
-0.0841792
0.0857422
0.0344534
0.0084932
-0.0260409
0.0475345
0.00572681
0.017758
-0.0203964
-0.00842369
-0.0421416
-0.0514187
0.0454738
-0.0309174
0.106437
-0.0466986
0.0257832
0.0230168
0.0583525
0.0923002
-0.0424784
-0.0355662
-0.0207649
0.0157031
-0.0490238
0.0867377
-0.0374339
0.000968462
-0.0418136
0.0621486
-0.0597371
0.00835751
-0.0601435
0.0992047
-0.0777068
-0.0303515
0.0107427
0.069416
-0.0693002
-0.0644348
-0.0342866
-0.0608338
0.0835716
0.00189251
0.0392234
0.0632754
0.033048
0.0313836
0.0980505
0.0312296
0.0608008
0.023164
0.0256739
-0.0638267
0.0233971
-0.0254198
0.00532621
0.0314778
-0.00421136
-0.0605973
-0.00894956
0.0158283
-0.0382626
0.0576202
0.0240782
0.0537225
-0.025889
0.0934829
-0.00623686
0.0190221
0.0268225
-0.0640325
-0.0388205
-0.0424478
0.0181891
0.00900342
0.0138067
0.0801557
0.0585041
0.0499389
-0.00285527
0.0754451
0.0932755
0.0888869
0.0354843
0.0222544
0.0236699
-0.0440962
0.0987476
0.0679593
0.0605311
-0.0169263
-0.0337857
-0.0631371
0.0219906
0.0335162
-0.00877638
0.0610839
0.0727372
0.0131303
-0.00560818
0.0363438
-0.000981375
0.000580295
-0.0165819
-7.17129e-05
0.00511225
-0.0707193
0.00790442
0.0222073
-0.0283433
-0.0810501
0.0123807
-0.00595577
0.0316997
-0.0279057
0.00126675
0.0790514
0.0872946
0.00445276
-0.00778356
0.0509024
-0.00781911
-0.0374768
-0.0422155
-0.0263236
-0.0613541
0.0806963
1.05352e-05
-0.00246764
0.0345961
0.0289528
0.0465262
-0.00527413
0.1049
0.0447821
-0.0443166
-0.00564005
-0.0128586
0.0503499
0.0754498
0.0457839
0.0143704
-0.0676393
-0.0457512
-0.0290074
0.0118072
-0.00126198
0.00409856
-0.0442052
0.0845274
0.0276844
0.0689894
0.0701514
0.00294105
-0.010627
0.0236032
0.098289
-0.0557446
-0.0729007
0.0242219
0.102062
-0.0319824
-0.0278906
0.0458795
0.0343326
0.0625429
-0.0163296
-0.069404
0.0100373
-0.0668
-0.0304301
0.0588575
-0.0225861
-0.0416764
-0.0130337
-0.0340234
0.0169913
-0.00584806
-0.000804811
0.0784759
-0.0477024
0.098022
0.061295
-0.0494307
-0.0881027
0.00694114
0.0450771
0.0676993
-0.0194304
-0.0289688
0.0027252
-0.0343451
0.00287974
0.0997198
0.0775847
0.0367888
0.00842743
-0.0624307
0.089093
0.104705
0.0853374
0.0514279
0.0792858
0.0201092
-0.0619035
-0.0783425
-0.0734657
0.0927613
-0.00893765
-0.00361263
0.0049244
0.103849
-0.0383072
-0.00627971
-0.0549313
-0.0184062
-0.0424301
0.104187
0.00983937
0.0492298
0.0729802
0.071625
-0.0349174
0.0178061
0.01107
0.0548122
-0.0612304
0.0183778
-0.0309048
0.0857733
-0.012708
-0.0441095
-0.00803011
-0.021181
0.0782152
-0.0386286
0.057359
0.0742758
0.0761509
-0.0560868
0.0072862
-0.0291363
0.00499558
0.0824405
0.00814786
0.0310765
0.00787653
-0.0347782
0.00559001
0.0910208
0.0209309
0.0850765
-0.0764155
-0.031043
-0.0394221
0.0889302
0.000722507
0.00961568
-0.0568633
-0.00243739
0.0130412
0.0944732
0.0183685
-0.027273
-0.0557375
0.104214
0.0967185
-0.0365844
0.0897278
-0.0348196
-0.0550126
-0.0293105
-0.00760134
-0.0644256
0.038635
0.00284323
-0.0385849
-0.0174931
0.0827315
-0.0155654
0.0575985
-0.000138219
-0.0354869
-0.0110282
-0.0769709
-0.0688428
-0.0218961
0.0155371
0.0314347
-0.0448304
-0.0134262
0.0765999
0.0284053
-0.0390846
-0.0175095
0.0826356
-0.0197718
0.00386225
0.10772
0.0194636
-0.040779
0.00865609
-0.00351537
0.0923463
-6.48484e-05
-0.0129219
0.0147478
-0.0679011
0.0839648
-0.0103273
0.0776485
0.00935159
0.0431336
-0.0546268
0.0689077
-0.0203222
-0.0503025
-0.0438797
0.0107153
0.0788197
-0.0932137
-0.00799205
-0.0468362
0.0927882
0.104277
0.000609377
-0.0327634
0.038182
0.0969134
-0.000958515
0.0822751
0.0664115
0.0585669
0.0473783
0.000783146
0.0545098
0.0498594
0.0842703
0.0110045
0.0132466
0.00143357
-0.00118513
0.0171739
-0.024605
0.091871
-0.00129129
0.0844919
0.00846377
0.0888142
-0.0443049
0.0952718
0.0408424
0.0835166
0.0902938
0.0784228
0.107327
-0.0321201
0.070663
0.0157499
-0.0403559
-0.00709051
-0.0450251
0.0851792
-0.00106479
0.00851676
0.015978
-0.0245228
0.0288194
-0.0451542
0.0918271
-0.0106477
0.0589412
-0.0799386
-0.0216065
-0.0371734
0.106185
0.00337705
0.0236922
-0.00038318
-0.0349687
-0.0423862
-0.015485
-0.0409131
0.0530322
0.0870462
-0.0571192
0.00519165
-0.0377834
-0.0417168
0.0610864
-0.000402858
-0.000490169
0.0959747
-0.0706453
0.0280918
0.0338784
0.0756813
0.0983263
-0.000802833
-0.0216161
-0.0547703
-0.0043099
0.00376684
-0.0379367
0.0644002
-0.0354818
-0.0489027
-0.027439
0.00883218
-0.0118641
0.008749
-0.0472151
0.0014442
-0.0574558
0.0480593
0.0420176
0.0072543
0.0553646
-0.00886367
-0.0715719
-2.35071e-05
-0.0730077
0.0950467
-0.0302032
-0.0402457
-0.0424023
0.0757475
0.0831144
-0.00196975
0.0568286
0.00510544
-0.0489953
0.0182281
-0.0373523
-0.00966876
0.0838002
0.026769
0.0540769
0.0977629
0.0556942
0.0248844
0.0898798
-0.0581641
-0.000579756
-0.00306309
0.0134347
0.0183045
0.0943293
-0.0386991
0.0104593
-0.00886586
-0.00791448
-0.0253306
-0.0194409
0.0410451
0.0624169
0.0718263
0.0147511
0.0125199
0.0941475
0.0702196
-0.023554
0.0346434
-0.0533926
-0.034957
0.0555179
-0.0574024
0.0699371
-0.0434285
0.0749694
0.105798
0.0860022
-0.0495224
0.0825885
0.0680101
-0.0140238
0.0947829
0.00583541
0.0884789
0.0534743
-0.03902
-0.0575806
0.0354218
-0.0317745
0.014592
0.00206838
0.074112
0.0080882
0.0929692
-0.0359042
-0.00601525
0.00384663
-0.0329479
-0.0410707
0.0653075
0.10215
-0.0381807
0.0664535
-0.00577154
0.0103204
-0.00330417
0.0404766
0.0803022
0.0558244
-0.0431182
0.0762723
0.0599046
0.0991857
-0.033816
-0.0552791
0.0018123
0.0527705
0.0965708
0.0639281
-0.0115494
0.0950593
0.00500795
-0.0549626
-0.0577165
-0.0905828
0.0183913
-0.0499929
0.100202
0.0982046
0.0113264
0.109021
0.0567578
-0.00571733
0.0935614
-0.0560864
0.0940777
-0.0360128
0.0837961
-0.013862
-0.02945
0.051811
0.00559528
0.0881674
0.0808746
0.0825796
-0.0191585
-0.0199812
-0.0645152
0.0785366
0.0546886
0.0031651
0.0249761
0.055854
-0.0757711
-0.0359275
-0.0246037
-0.0409933
0.0114635
-0.042452
-0.00300828
0.0651997
-0.00205238
0.0068707
0.0426684
-0.0236354
-0.000543773
0.00923533
-0.00250234
-0.0256195
0.0712439
0.0889329
0.00218844
0.0533237
-0.0783253
-0.0311226
0.0750301
0.0491702
-0.0485285
0.0843227
-0.047098
0.042287
0.00259334
0.015378
0.0747207
-0.0133596
0.0502661
0.0598851
0.0344059
0.103683
0.0351906
-0.0574191
0.0180146
0.0219423
0.0482509
0.0990208
0.0373979
0.00977235
-0.00927175
0.0165737
0.0755273
-0.0429554
0.0787959
-0.0146792
0.0356319
0.0556717
0.0436203
-0.0120833
0.0774501
0.0949783
-0.00148603
-0.0204145
0.00398356
-0.0217511
-0.0583042
-0.00140478
0.0582305
-0.0490449
-0.0589998
0.0023216
-0.0527416
0.0393377
0.00746267
0.0500333
-0.00672861
0.0848653
-0.000543091
0.0693832
0.101791
-0.0413245
0.078881
0.0070717
0.00234415
0.0263506
0.0798601
-0.00217652
-0.0087919
0.0272106
-0.0285375
-0.0197708
-0.0315028
-0.0440961
-0.0781312
0.0967911
0.103772
-0.0534975
-0.00301726
0.0451767
-0.0621399
-0.000778893
-0.0355757
0.0350451
0.0467337
-0.0651311
-0.0809734
0.0806451
0.000960578
0.0186752
-0.000355815
-0.0575008
-0.0580815
0.0418693
0.0678423
0.0239598
-0.0701919
0.0859691
0.06624
-0.0300026
0.012567
-0.0385457
0.101346
-0.0313032
0.0034307
-0.0447011
0.0257236
0.0915656
0.0150989
0.037714
-0.016889
0.0127899
0.0284886
0.0938481
0.10742
-0.00210876
0.0958886
-0.014152
0.00303081
0.00474658
-0.0232097
-0.0209878
0.0778007
0.0169912
0.0155142
-0.0161047
-0.0622183
0.0214322
-0.0273699
0.0403518
0.0844224
-0.032431
-0.0234959
0.00266668
-0.0205465
0.00844794
-0.0781759
-0.00459292
0.0837111
-0.020139
-0.0514549
0.0587947
-0.000244508
-0.00605543
0.0250089
0.069852
-0.00660817
-0.00100812
0.0624708
-0.0155964
-0.000741819
0.0153637
0.0796025
0.0243801
0.00257453
0.00126952
-0.0479578
-0.00537971
0.0949833
0.063607
0.1018
-0.00689242
0.0315482
-0.040299
-0.00365568
0.067781
-0.0589377
-0.063199
0.0420865
0.0652332
-0.0604401
-0.00633903
0.00490728
-0.00419311
0.00397178
0.107411
0.0087725
-0.00658625
0.0372388
-0.00873461
0.0492824
0.0421285
-0.0450859
0.00164895
0.0595196
0.00973588
0.0966305
-0.0590176
-0.0368065
0.0429164
0.0249453
-0.024224
0.0143769
-0.0257159
0.0982088
0.0939822
0.0432499
0.0806713
-0.0384255
0.0745991
0.021889
0.0494101
0.0904064
-0.0613144
-0.0159765
0.0986393
0.0233021
-0.068309
-0.0512931
0.076287
0.0974105
-0.00712118
0.0459789
0.000766679
-0.0501898
-0.0177824
-0.0674474
0.0678823
-0.0256066
-0.00882544
0.0931007
-0.0446548
-0.00363331
-0.0121975
0.0168054
0.00028599
-0.0473605
-0.0108167
-0.0493283
0.013434
0.0546871
0.0896892
0.0536981
0.00870637
-0.0204675
-0.0692533
-0.03489
0.0185606
0.0075084
0.0554283
0.0564578
-0.020897
-0.018197
0.066545
0.0668341
0.0995429
0.0761282
0.0916928
0.00529405
-0.0532105
-0.0234848
-0.0345099
0.0938931
0.00740042
-0.0175927
0.0899268
-0.0502128
0.0576088
0.0459067
-0.0025663
0.00362116
-0.0143929
-0.0452345
0.0654974
-0.0332135
0.0350324
-0.00621772
0.088467
0.0103141
0.101554
-0.0327515
-0.00772813
-0.05562
-0.0805575
-0.0140934
0.0570641
-0.0040255
-0.0418777
0.00177242
0.0906547
0.0482846
-0.0409572
-0.0487441
-0.015274
-0.0560732
0.00423836
-0.0601657
-0.0242301
-0.0382452
0.0430885
-0.0535215
-0.00234636
0.0871735
0.019158
0.0514096
0.0610729
-0.0303258
-0.00968376
-0.0214237
0.0678965
-0.0373331
0.00682889
0.00688365
-0.0448549
-0.063893
-0.00614543
0.00247588
0.0476454
0.101412
0.0702894
0.00516542
0.0386284
-0.0608527
0.0956315
0.0285734
0.0637244
0.00555285
0.0450821
-0.0490856
-0.0169105
0.0560839
0.0914883
0.0550674
0.00523886
-0.0364115
0.102991
0.00714898
0.0694591
0.0934895
0.0307246
-0.0106527
-0.0608542
0.0662894
0.0376623
-0.0454798
0.0233941
0.0291736
0.0873989
-0.0239093
0.0941159
0.100688
-0.0245659
-0.0306911
0.0929907
-0.0434548
-0.042498
-0.0127006
-0.0394733
-0.00601279
-0.0364728
-0.0561227
-0.00852992
0.00171657
-0.0166003
-0.0368747
0.00719883
-0.0578392
-0.0342853
0.02053
-0.00855892
-0.0591081
0.0830282
0.103688
0.0969741
-0.00281414
-0.0686455
0.101656
-0.0482052
-0.00565371
0.00245228
-0.0410029
0.00602179
0.0417328
-0.0318871
-0.0463914
-0.0604752
-0.0574867
-0.0475986
-0.0372637
-0.069907
-0.0139238
0.000462963
-0.0193954
0.0879666
0.00915372
0.0437697
0.00720967
0.0648796
-0.0444417
-0.0354731
0.109204
-0.000161364
0.0369863
-0.0503306
0.0308458
0.10322
-0.0361479
0.0339302
0.0351508
-0.0545085
-0.00284509
-0.0483554
-0.0292905
0.0447208
-0.0413207
-0.00761271
-0.0453076
-0.0244064
-0.0152809
-0.0468006
-0.0044941
-0.0362625
-0.0446475
0.102757
-0.0098756
-0.000362142
0.00236272
0.0898258
-0.0303841
-0.0559959
0.0659142
-0.0429036
-0.0214021
0.00412444
0.0240151
-0.0494604
0.0167064
0.0269117
0.0995406
0.0688345
-0.0527499
-0.0415376
-0.0605743
0.00356631
-0.0695421
-0.0271418
0.00179091
-0.0283685
0.000610458
0.0214829
0.108479
-0.0247673
0.04078
0.0113523
0.0949839
-0.0401887
0.104091
0.015403
-0.048173
0.0266947
0.0458276
-0.0406578
0.0768071
0.00492208
0.0730516
-0.0366354
-0.0467893
-0.0168313
0.106663
0.102985
0.0436717
0.0297391
0.0461644
-0.0704035
-0.051323
0.0538603
0.101389
-0.0355114
0.0130457
0.00629532
-0.0446605
-0.0195594
-0.0134325
-0.0375402
-0.0251685
-0.0349478
-0.00344066
-0.0385657
-0.0103683
0.102526
0.0690327
-0.0713652
0.0543021
-0.0211496
-0.0516837
0.0609144
-0.0457578
-0.0228273
0.0441083
-0.029708
-0.028938
-0.00822145
0.0715446
-0.0414249
-0.0311255
-0.0297201
0.0179534
-0.034508
0.0884183
-0.0658434
-0.0408723
-0.0309196
-0.0412301
0.0350613
0.0194097
0.0906246
-5.60162e-05
0.0588235
-0.000374702
0.0176877
-0.00435568
0.0389727
-0.0477862
-0.0400064
-0.0827856
0.038345
-0.0205356
-0.0319017
0.0837325
0.003067
0.0397899
0.0365032
-0.0242107
-0.0359045
-0.0304234
0.0272937
0.000533013
0.107435
-0.0502368
-0.0682038
-0.00455852
-0.0461384