/*--------------------------------*- C++ -*----------------------------------*\
  =========                 |
  \\      /  F ield         | OpenFOAM: The Open Source CFD Toolbox
   \\    /   O peration     | Website:  https://openfoam.org
    \\  /    A nd           | Version:  6
     \\/     M anipulation  |
\*---------------------------------------------------------------------------*/
FoamFile
{
    version     2.0;
    format      ascii;
    class       volScalarField;
    location    "0";
    object      p;
}
// * * * * * * * * * * * * * * * * * * * * * * * * * * * * * * * * * * * * * //

dimensions      [0 2 -2 0 0 0 0];

internalField   nonuniform List<scalar> 
40000
(
0.0154489
0.0154491
0.0154485
0.0154469
0.0154441
0.0154405
0.0154361
0.015431
0.0154255
0.0154196
0.0154135
0.0154072
0.0154009
0.0153946
0.0153884
0.0153823
0.0153763
0.0153704
0.0153648
0.0153594
0.0153542
0.0153491
0.0153444
0.0153398
0.0153354
0.0153313
0.0153273
0.0153235
0.01532
0.0153166
0.0153134
0.0153103
0.0153075
0.0153048
0.0153023
0.0152999
0.0152977
0.0152956
0.0152937
0.015292
0.0152905
0.0152891
0.0152879
0.0152869
0.0152861
0.0152854
0.015285
0.0152848
0.0152849
0.0152851
0.0152856
0.0152864
0.0152874
0.0152887
0.0152903
0.0152922
0.0152944
0.015297
0.0152998
0.015303
0.0153065
0.0153104
0.0153147
0.0153193
0.0153244
0.0153298
0.0153356
0.0153418
0.0153484
0.0153555
0.0153629
0.0153708
0.0153791
0.0153878
0.0153969
0.0154064
0.0154164
0.0154267
0.0154375
0.0154487
0.0154602
0.0154721
0.0154844
0.0154971
0.01551
0.0155233
0.0155369
0.0155508
0.0155649
0.0155792
0.0155938
0.0156085
0.0156233
0.0156383
0.0156534
0.0156685
0.0156836
0.0156987
0.0157137
0.0157286
0.0157433
0.0157579
0.0157722
0.0157862
0.0157998
0.0158131
0.015826
0.0158383
0.0158502
0.0158614
0.0158721
0.015882
0.0158913
0.0158998
0.0159075
0.0159143
0.0159202
0.0159252
0.0159293
0.0159323
0.0159343
0.0159353
0.0159352
0.015934
0.0159316
0.0159281
0.0159235
0.0159177
0.0159108
0.0159027
0.0158934
0.015883
0.0158715
0.0158589
0.0158452
0.0158304
0.0158145
0.0157977
0.0157799
0.0157612
0.0157416
0.0157211
0.0156998
0.0156778
0.0156552
0.0156318
0.0156079
0.0155835
0.0155586
0.0155334
0.0155078
0.0154819
0.0154558
0.0154295
0.0154032
0.0153768
0.0153505
0.0153242
0.0152981
0.0152723
0.0152466
0.0152213
0.0151964
0.0151719
0.0151478
0.0151243
0.0151013
0.0150789
0.0150572
0.0150361
0.0150158
0.0149962
0.0149774
0.0149595
0.0149424
0.0149261
0.0149108
0.0148964
0.014883
0.0148706
0.0148592
0.0148488
0.0148394
0.0148312
0.0148239
0.0148178
0.0148128
0.0148088
0.0148059
0.0148041
0.0148033
0.0148034
0.0148044
0.0148063
0.0148088
0.0148117
0.0148147
0.0148176
0.0148198
0.0148208
0.0154488
0.0154489
0.0154484
0.0154469
0.0154443
0.015441
0.0154369
0.0154322
0.015427
0.0154215
0.0154158
0.0154099
0.015404
0.015398
0.0153921
0.0153862
0.0153805
0.0153749
0.0153695
0.0153642
0.0153591
0.0153543
0.0153496
0.0153452
0.0153409
0.0153368
0.0153329
0.0153292
0.0153257
0.0153224
0.0153192
0.0153162
0.0153134
0.0153107
0.0153082
0.0153058
0.0153036
0.0153016
0.0152997
0.015298
0.0152965
0.0152951
0.0152939
0.0152929
0.0152921
0.0152914
0.015291
0.0152908
0.0152908
0.0152911
0.0152916
0.0152923
0.0152933
0.0152946
0.0152962
0.015298
0.0153002
0.0153026
0.0153054
0.0153086
0.015312
0.0153159
0.01532
0.0153246
0.0153295
0.0153348
0.0153405
0.0153466
0.0153531
0.01536
0.0153673
0.015375
0.0153832
0.0153917
0.0154007
0.01541
0.0154198
0.0154299
0.0154405
0.0154514
0.0154627
0.0154744
0.0154865
0.0154988
0.0155115
0.0155246
0.0155379
0.0155514
0.0155652
0.0155793
0.0155935
0.0156079
0.0156224
0.0156371
0.0156518
0.0156666
0.0156813
0.0156961
0.0157107
0.0157253
0.0157396
0.0157538
0.0157678
0.0157814
0.0157947
0.0158077
0.0158202
0.0158322
0.0158437
0.0158546
0.0158649
0.0158746
0.0158835
0.0158917
0.0158991
0.0159057
0.0159114
0.0159161
0.01592
0.0159228
0.0159246
0.0159254
0.0159251
0.0159238
0.0159213
0.0159178
0.0159131
0.0159072
0.0159003
0.0158922
0.0158829
0.0158726
0.0158611
0.0158486
0.015835
0.0158203
0.0158046
0.015788
0.0157704
0.0157519
0.0157325
0.0157123
0.0156913
0.0156696
0.0156472
0.0156242
0.0156006
0.0155766
0.015552
0.0155271
0.0155019
0.0154764
0.0154507
0.0154249
0.0153989
0.015373
0.015347
0.0153212
0.0152955
0.01527
0.0152448
0.0152199
0.0151954
0.0151712
0.0151476
0.0151244
0.0151018
0.0150798
0.0150584
0.0150377
0.0150177
0.0149984
0.01498
0.0149623
0.0149455
0.0149295
0.0149144
0.0149003
0.0148871
0.0148748
0.0148636
0.0148533
0.0148441
0.0148359
0.0148287
0.0148226
0.0148175
0.0148134
0.0148104
0.0148084
0.0148073
0.0148072
0.0148079
0.0148093
0.0148114
0.0148138
0.0148164
0.0148189
0.0148208
0.0148218
0.0154493
0.0154494
0.0154489
0.0154474
0.0154451
0.015442
0.0154382
0.0154339
0.0154292
0.0154242
0.0154189
0.0154134
0.0154079
0.0154023
0.0153967
0.0153912
0.0153858
0.0153805
0.0153753
0.0153703
0.0153655
0.0153608
0.0153563
0.015352
0.0153478
0.0153439
0.0153401
0.0153365
0.015333
0.0153297
0.0153266
0.0153237
0.0153209
0.0153182
0.0153157
0.0153134
0.0153112
0.0153092
0.0153073
0.0153056
0.0153041
0.0153027
0.0153015
0.0153005
0.0152997
0.015299
0.0152986
0.0152984
0.0152984
0.0152986
0.015299
0.0152998
0.0153007
0.015302
0.0153035
0.0153053
0.0153074
0.0153098
0.0153125
0.0153155
0.0153189
0.0153226
0.0153267
0.0153311
0.0153359
0.0153411
0.0153467
0.0153526
0.0153589
0.0153657
0.0153728
0.0153803
0.0153882
0.0153965
0.0154053
0.0154144
0.0154239
0.0154338
0.0154441
0.0154547
0.0154658
0.0154771
0.0154889
0.0155009
0.0155133
0.015526
0.0155389
0.0155521
0.0155656
0.0155792
0.0155931
0.0156071
0.0156212
0.0156355
0.0156498
0.0156641
0.0156784
0.0156927
0.015707
0.0157211
0.015735
0.0157488
0.0157623
0.0157755
0.0157884
0.0158009
0.015813
0.0158246
0.0158357
0.0158462
0.0158561
0.0158654
0.015874
0.0158818
0.0158889
0.0158951
0.0159005
0.015905
0.0159085
0.0159111
0.0159127
0.0159133
0.0159128
0.0159113
0.0159087
0.015905
0.0159003
0.0158944
0.0158874
0.0158793
0.0158701
0.0158598
0.0158484
0.0158359
0.0158224
0.0158079
0.0157924
0.015776
0.0157586
0.0157404
0.0157212
0.0157013
0.0156807
0.0156593
0.0156373
0.0156147
0.0155915
0.0155679
0.0155438
0.0155193
0.0154945
0.0154695
0.0154443
0.0154189
0.0153934
0.015368
0.0153425
0.0153172
0.015292
0.015267
0.0152423
0.0152179
0.0151938
0.0151702
0.015147
0.0151243
0.0151021
0.0150805
0.0150596
0.0150393
0.0150197
0.0150009
0.0149828
0.0149654
0.014949
0.0149333
0.0149185
0.0149047
0.0148917
0.0148797
0.0148686
0.0148585
0.0148494
0.0148413
0.0148342
0.014828
0.0148229
0.0148188
0.0148156
0.0148134
0.0148121
0.0148116
0.0148119
0.0148129
0.0148145
0.0148165
0.0148186
0.0148208
0.0148227
0.014824
0.015451
0.015451
0.0154504
0.0154489
0.0154466
0.0154437
0.0154401
0.0154361
0.0154317
0.015427
0.015422
0.0154169
0.0154117
0.0154064
0.0154012
0.0153959
0.0153908
0.0153857
0.0153808
0.015376
0.0153713
0.0153668
0.0153625
0.0153583
0.0153543
0.0153504
0.0153467
0.0153432
0.0153398
0.0153366
0.0153335
0.0153306
0.0153279
0.0153252
0.0153228
0.0153205
0.0153183
0.0153163
0.0153144
0.0153127
0.0153112
0.0153098
0.0153086
0.0153076
0.0153067
0.0153061
0.0153056
0.0153053
0.0153053
0.0153055
0.0153059
0.0153066
0.0153075
0.0153087
0.0153101
0.0153119
0.0153139
0.0153162
0.0153188
0.0153218
0.0153251
0.0153287
0.0153327
0.015337
0.0153416
0.0153467
0.0153521
0.0153579
0.015364
0.0153706
0.0153775
0.0153849
0.0153926
0.0154007
0.0154092
0.0154181
0.0154274
0.0154371
0.0154471
0.0154575
0.0154682
0.0154794
0.0154908
0.0155026
0.0155146
0.015527
0.0155396
0.0155525
0.0155656
0.0155789
0.0155924
0.0156061
0.0156199
0.0156338
0.0156477
0.0156617
0.0156757
0.0156896
0.0157035
0.0157172
0.0157308
0.0157441
0.0157573
0.0157701
0.0157827
0.0157948
0.0158065
0.0158178
0.0158285
0.0158387
0.0158483
0.0158573
0.0158656
0.0158731
0.0158799
0.0158858
0.015891
0.0158952
0.0158985
0.0159009
0.0159023
0.0159027
0.0159021
0.0159005
0.0158978
0.015894
0.0158891
0.0158832
0.0158762
0.015868
0.0158588
0.0158486
0.0158372
0.0158249
0.0158115
0.0157971
0.0157818
0.0157655
0.0157483
0.0157302
0.0157113
0.0156917
0.0156713
0.0156502
0.0156284
0.0156061
0.0155833
0.01556
0.0155362
0.0155121
0.0154877
0.015463
0.0154382
0.0154132
0.0153882
0.0153631
0.0153381
0.0153132
0.0152884
0.0152638
0.0152395
0.0152155
0.0151919
0.0151686
0.0151458
0.0151235
0.0151018
0.0150806
0.01506
0.0150401
0.0150208
0.0150023
0.0149846
0.0149676
0.0149514
0.014936
0.0149215
0.0149079
0.0148951
0.0148833
0.0148724
0.0148624
0.0148534
0.0148454
0.0148383
0.0148322
0.014827
0.0148228
0.0148195
0.0148172
0.0148157
0.014815
0.014815
0.0148157
0.014817
0.0148188
0.0148208
0.014823
0.0148252
0.0148269
0.0154538
0.0154536
0.0154528
0.0154512
0.0154489
0.015446
0.0154425
0.0154387
0.0154345
0.01543
0.0154253
0.0154204
0.0154155
0.0154105
0.0154055
0.0154005
0.0153956
0.0153908
0.0153861
0.0153815
0.015377
0.0153726
0.0153684
0.0153644
0.0153605
0.0153567
0.0153531
0.0153497
0.0153464
0.0153432
0.0153402
0.0153373
0.0153346
0.015332
0.0153296
0.0153273
0.0153251
0.0153231
0.0153213
0.0153196
0.015318
0.0153166
0.0153154
0.0153144
0.0153135
0.0153128
0.0153123
0.015312
0.015312
0.0153121
0.0153125
0.0153131
0.0153139
0.0153151
0.0153164
0.0153181
0.01532
0.0153223
0.0153248
0.0153277
0.0153308
0.0153343
0.0153382
0.0153424
0.0153469
0.0153518
0.0153571
0.0153627
0.0153687
0.0153751
0.0153818
0.015389
0.0153965
0.0154044
0.0154127
0.0154214
0.0154305
0.0154399
0.0154497
0.0154598
0.0154703
0.0154812
0.0154923
0.0155038
0.0155156
0.0155277
0.01554
0.0155526
0.0155654
0.0155784
0.0155916
0.015605
0.0156184
0.015632
0.0156456
0.0156593
0.0156729
0.0156865
0.0157
0.0157134
0.0157267
0.0157397
0.0157525
0.0157651
0.0157773
0.0157891
0.0158005
0.0158115
0.0158219
0.0158318
0.0158412
0.0158498
0.0158579
0.0158651
0.0158717
0.0158774
0.0158823
0.0158864
0.0158895
0.0158917
0.0158929
0.0158932
0.0158925
0.0158907
0.0158879
0.015884
0.0158791
0.0158731
0.015866
0.0158579
0.0158487
0.0158385
0.0158272
0.0158149
0.0158015
0.0157872
0.015772
0.0157558
0.0157388
0.0157209
0.0157022
0.0156827
0.0156625
0.0156417
0.0156202
0.0155981
0.0155755
0.0155525
0.015529
0.0155052
0.0154811
0.0154568
0.0154323
0.0154076
0.0153829
0.0153582
0.0153336
0.015309
0.0152846
0.0152604
0.0152364
0.0152128
0.0151895
0.0151666
0.0151442
0.0151222
0.0151008
0.01508
0.0150597
0.0150401
0.0150212
0.015003
0.0149855
0.0149688
0.0149529
0.0149378
0.0149235
0.0149101
0.0148976
0.0148859
0.0148752
0.0148653
0.0148564
0.0148485
0.0148414
0.0148353
0.0148301
0.0148259
0.0148225
0.01482
0.0148184
0.0148175
0.0148174
0.014818
0.0148191
0.0148208
0.0148228
0.0148251
0.0148278
0.01483
0.0154575
0.015457
0.0154559
0.0154541
0.0154517
0.0154487
0.0154454
0.0154416
0.0154375
0.0154332
0.0154287
0.0154241
0.0154194
0.0154146
0.0154098
0.0154051
0.0154004
0.0153957
0.0153912
0.0153868
0.0153825
0.0153783
0.0153742
0.0153703
0.0153665
0.0153629
0.0153594
0.015356
0.0153528
0.0153497
0.0153467
0.0153439
0.0153412
0.0153387
0.0153362
0.015334
0.0153318
0.0153298
0.015328
0.0153262
0.0153247
0.0153233
0.015322
0.015321
0.0153201
0.0153193
0.0153188
0.0153185
0.0153184
0.0153185
0.0153188
0.0153193
0.0153201
0.0153211
0.0153224
0.015324
0.0153259
0.015328
0.0153304
0.0153332
0.0153362
0.0153396
0.0153433
0.0153474
0.0153518
0.0153565
0.0153616
0.0153671
0.0153729
0.0153791
0.0153857
0.0153927
0.0154
0.0154077
0.0154158
0.0154243
0.0154331
0.0154423
0.0154518
0.0154617
0.015472
0.0154826
0.0154935
0.0155047
0.0155162
0.015528
0.0155401
0.0155524
0.0155649
0.0155777
0.0155906
0.0156036
0.0156168
0.01563
0.0156434
0.0156567
0.0156701
0.0156834
0.0156966
0.0157097
0.0157227
0.0157354
0.0157479
0.0157602
0.0157721
0.0157837
0.0157948
0.0158055
0.0158157
0.0158254
0.0158345
0.0158429
0.0158507
0.0158578
0.0158641
0.0158696
0.0158743
0.0158782
0.0158812
0.0158832
0.0158843
0.0158845
0.0158836
0.0158817
0.0158788
0.0158749
0.0158699
0.0158639
0.0158568
0.0158486
0.0158394
0.0158292
0.0158179
0.0158056
0.0157924
0.0157782
0.015763
0.0157469
0.01573
0.0157122
0.0156937
0.0156744
0.0156543
0.0156337
0.0156124
0.0155905
0.0155681
0.0155453
0.0155221
0.0154986
0.0154747
0.0154507
0.0154264
0.0154021
0.0153777
0.0153532
0.0153289
0.0153046
0.0152805
0.0152566
0.015233
0.0152097
0.0151867
0.0151641
0.015142
0.0151204
0.0150993
0.0150788
0.0150588
0.0150395
0.0150209
0.0150029
0.0149857
0.0149693
0.0149536
0.0149387
0.0149247
0.0149115
0.0148991
0.0148876
0.014877
0.0148673
0.0148585
0.0148506
0.0148436
0.0148375
0.0148323
0.014828
0.0148246
0.014822
0.0148203
0.0148194
0.0148191
0.0148196
0.0148207
0.0148224
0.0148245
0.0148271
0.0148303
0.0148329
0.0154621
0.0154612
0.0154597
0.0154576
0.015455
0.015452
0.0154486
0.0154448
0.0154409
0.0154366
0.0154323
0.0154278
0.0154233
0.0154187
0.0154141
0.0154095
0.015405
0.0154006
0.0153962
0.015392
0.0153878
0.0153838
0.0153799
0.0153761
0.0153724
0.0153688
0.0153654
0.0153621
0.015359
0.015356
0.015353
0.0153503
0.0153476
0.0153451
0.0153427
0.0153404
0.0153383
0.0153363
0.0153344
0.0153327
0.0153311
0.0153297
0.0153284
0.0153273
0.0153264
0.0153256
0.015325
0.0153247
0.0153245
0.0153245
0.0153248
0.0153252
0.0153259
0.0153269
0.0153281
0.0153296
0.0153313
0.0153334
0.0153357
0.0153383
0.0153412
0.0153445
0.0153481
0.015352
0.0153562
0.0153608
0.0153657
0.015371
0.0153767
0.0153827
0.0153891
0.0153959
0.015403
0.0154105
0.0154184
0.0154266
0.0154353
0.0154442
0.0154535
0.0154632
0.0154732
0.0154836
0.0154942
0.0155052
0.0155165
0.015528
0.0155398
0.0155519
0.0155641
0.0155766
0.0155892
0.015602
0.0156149
0.0156279
0.015641
0.015654
0.0156671
0.0156802
0.0156931
0.015706
0.0157187
0.0157312
0.0157435
0.0157555
0.0157672
0.0157785
0.0157894
0.0157999
0.0158099
0.0158193
0.0158282
0.0158364
0.015844
0.0158509
0.0158571
0.0158624
0.015867
0.0158707
0.0158735
0.0158755
0.0158765
0.0158765
0.0158755
0.0158736
0.0158706
0.0158666
0.0158616
0.0158555
0.0158483
0.0158402
0.015831
0.0158207
0.0158095
0.0157972
0.015784
0.0157698
0.0157547
0.0157388
0.0157219
0.0157042
0.0156858
0.0156666
0.0156467
0.0156261
0.015605
0.0155833
0.0155611
0.0155385
0.0155155
0.0154921
0.0154685
0.0154446
0.0154206
0.0153965
0.0153723
0.0153482
0.015324
0.0153
0.0152762
0.0152526
0.0152292
0.0152062
0.0151835
0.0151612
0.0151394
0.015118
0.0150972
0.0150769
0.0150572
0.0150382
0.0150198
0.0150021
0.0149852
0.0149689
0.0149535
0.0149388
0.014925
0.0149119
0.0148997
0.0148884
0.0148779
0.0148683
0.0148596
0.0148518
0.0148448
0.0148388
0.0148336
0.0148293
0.0148258
0.0148232
0.0148214
0.0148204
0.0148202
0.0148206
0.0148217
0.0148235
0.0148258
0.0148287
0.0148323
0.0148354
0.0154673
0.015466
0.015464
0.0154616
0.0154588
0.0154556
0.0154521
0.0154483
0.0154444
0.0154402
0.0154359
0.0154316
0.0154272
0.0154227
0.0154183
0.0154139
0.0154096
0.0154053
0.0154011
0.015397
0.015393
0.0153891
0.0153853
0.0153816
0.015378
0.0153746
0.0153713
0.0153681
0.015365
0.015362
0.0153591
0.0153564
0.0153538
0.0153513
0.0153489
0.0153466
0.0153445
0.0153425
0.0153406
0.0153389
0.0153373
0.0153358
0.0153345
0.0153334
0.0153324
0.0153316
0.015331
0.0153305
0.0153303
0.0153302
0.0153304
0.0153308
0.0153314
0.0153323
0.0153334
0.0153348
0.0153364
0.0153383
0.0153405
0.015343
0.0153458
0.0153489
0.0153523
0.0153561
0.0153602
0.0153646
0.0153694
0.0153745
0.01538
0.0153858
0.015392
0.0153986
0.0154056
0.0154129
0.0154205
0.0154285
0.0154369
0.0154457
0.0154548
0.0154642
0.015474
0.0154841
0.0154946
0.0155053
0.0155163
0.0155276
0.0155392
0.015551
0.015563
0.0155752
0.0155876
0.0156001
0.0156128
0.0156255
0.0156384
0.0156512
0.0156641
0.0156769
0.0156896
0.0157022
0.0157147
0.015727
0.0157391
0.0157509
0.0157623
0.0157735
0.0157842
0.0157945
0.0158043
0.0158136
0.0158223
0.0158304
0.0158378
0.0158445
0.0158506
0.0158558
0.0158602
0.0158638
0.0158666
0.0158684
0.0158693
0.0158692
0.0158682
0.0158661
0.0158631
0.015859
0.015854
0.0158478
0.0158407
0.0158325
0.0158233
0.015813
0.0158018
0.0157896
0.0157764
0.0157622
0.0157471
0.0157312
0.0157144
0.0156968
0.0156784
0.0156593
0.0156395
0.0156191
0.015598
0.0155764
0.0155544
0.0155319
0.015509
0.0154858
0.0154624
0.0154387
0.0154148
0.0153909
0.0153669
0.015343
0.0153191
0.0152953
0.0152716
0.0152482
0.0152251
0.0152023
0.0151798
0.0151578
0.0151362
0.0151151
0.0150945
0.0150744
0.015055
0.0150362
0.015018
0.0150006
0.0149838
0.0149678
0.0149525
0.0149381
0.0149244
0.0149115
0.0148995
0.0148883
0.0148779
0.0148684
0.0148598
0.014852
0.0148451
0.0148391
0.0148339
0.0148296
0.0148262
0.0148235
0.0148217
0.0148207
0.0148204
0.0148209
0.0148221
0.014824
0.0148265
0.0148297
0.0148338
0.0148373
0.0154731
0.0154714
0.0154689
0.0154661
0.015463
0.0154596
0.0154559
0.0154521
0.015448
0.0154439
0.0154397
0.0154354
0.0154311
0.0154268
0.0154225
0.0154182
0.015414
0.0154098
0.0154058
0.0154018
0.0153979
0.0153942
0.0153905
0.0153869
0.0153835
0.0153801
0.0153769
0.0153737
0.0153707
0.0153678
0.015365
0.0153623
0.0153597
0.0153572
0.0153549
0.0153526
0.0153505
0.0153485
0.0153466
0.0153448
0.0153432
0.0153417
0.0153403
0.0153392
0.0153381
0.0153372
0.0153366
0.015336
0.0153357
0.0153356
0.0153357
0.015336
0.0153365
0.0153373
0.0153383
0.0153395
0.015341
0.0153428
0.0153449
0.0153473
0.0153499
0.0153529
0.0153562
0.0153598
0.0153637
0.0153679
0.0153725
0.0153775
0.0153828
0.0153884
0.0153945
0.0154008
0.0154076
0.0154147
0.0154221
0.0154299
0.0154381
0.0154466
0.0154555
0.0154647
0.0154743
0.0154842
0.0154944
0.0155049
0.0155157
0.0155268
0.0155381
0.0155497
0.0155615
0.0155734
0.0155856
0.0155979
0.0156104
0.0156229
0.0156355
0.0156481
0.0156608
0.0156734
0.0156859
0.0156984
0.0157107
0.0157228
0.0157347
0.0157463
0.0157576
0.0157686
0.0157791
0.0157893
0.0157989
0.0158081
0.0158166
0.0158246
0.0158319
0.0158386
0.0158445
0.0158496
0.0158539
0.0158575
0.0158601
0.0158618
0.0158627
0.0158625
0.0158614
0.0158594
0.0158563
0.0158522
0.015847
0.0158409
0.0158337
0.0158255
0.0158163
0.015806
0.0157948
0.0157825
0.0157693
0.0157552
0.0157402
0.0157242
0.0157075
0.0156899
0.0156716
0.0156525
0.0156327
0.0156124
0.0155914
0.0155699
0.0155479
0.0155255
0.0155028
0.0154797
0.0154563
0.0154328
0.0154091
0.0153853
0.0153614
0.0153376
0.0153139
0.0152903
0.0152668
0.0152436
0.0152206
0.015198
0.0151758
0.0151539
0.0151325
0.0151116
0.0150912
0.0150714
0.0150521
0.0150335
0.0150156
0.0149983
0.0149817
0.0149659
0.0149508
0.0149365
0.0149229
0.0149102
0.0148983
0.0148872
0.014877
0.0148676
0.014859
0.0148513
0.0148445
0.0148385
0.0148334
0.0148291
0.0148256
0.014823
0.0148212
0.0148202
0.01482
0.0148205
0.0148218
0.0148238
0.0148266
0.0148301
0.0148346
0.0148385
0.0154794
0.0154771
0.0154741
0.0154708
0.0154674
0.0154637
0.0154599
0.0154559
0.0154518
0.0154477
0.0154434
0.0154392
0.0154349
0.0154307
0.0154265
0.0154224
0.0154183
0.0154143
0.0154103
0.0154065
0.0154027
0.0153991
0.0153955
0.015392
0.0153887
0.0153854
0.0153822
0.0153792
0.0153762
0.0153733
0.0153706
0.0153679
0.0153654
0.0153629
0.0153605
0.0153583
0.0153561
0.0153541
0.0153522
0.0153504
0.0153488
0.0153472
0.0153458
0.0153446
0.0153435
0.0153426
0.0153418
0.0153412
0.0153408
0.0153406
0.0153406
0.0153408
0.0153412
0.0153418
0.0153427
0.0153439
0.0153452
0.0153469
0.0153488
0.015351
0.0153536
0.0153564
0.0153595
0.0153629
0.0153667
0.0153708
0.0153752
0.0153799
0.015385
0.0153905
0.0153963
0.0154025
0.015409
0.0154159
0.0154232
0.0154308
0.0154387
0.0154471
0.0154557
0.0154647
0.0154741
0.0154837
0.0154937
0.015504
0.0155146
0.0155254
0.0155366
0.0155479
0.0155595
0.0155713
0.0155832
0.0155954
0.0156076
0.0156199
0.0156324
0.0156448
0.0156573
0.0156697
0.0156821
0.0156944
0.0157065
0.0157184
0.0157302
0.0157417
0.0157528
0.0157637
0.0157741
0.0157842
0.0157937
0.0158027
0.0158112
0.0158191
0.0158263
0.0158329
0.0158387
0.0158438
0.0158481
0.0158515
0.0158541
0.0158558
0.0158566
0.0158564
0.0158553
0.0158531
0.01585
0.0158459
0.0158407
0.0158346
0.0158273
0.0158191
0.0158099
0.0157996
0.0157883
0.0157761
0.0157629
0.0157487
0.0157337
0.0157178
0.015701
0.0156835
0.0156651
0.0156461
0.0156264
0.015606
0.0155851
0.0155637
0.0155417
0.0155194
0.0154967
0.0154737
0.0154504
0.0154269
0.0154033
0.0153796
0.0153559
0.0153322
0.0153085
0.015285
0.0152617
0.0152386
0.0152158
0.0151933
0.0151712
0.0151495
0.0151283
0.0151075
0.0150873
0.0150676
0.0150486
0.0150301
0.0150124
0.0149952
0.0149788
0.0149632
0.0149482
0.0149341
0.0149207
0.0149081
0.0148963
0.0148853
0.0148752
0.0148659
0.0148574
0.0148498
0.014843
0.014837
0.0148319
0.0148277
0.0148242
0.0148216
0.0148199
0.0148189
0.0148187
0.0148193
0.0148207
0.0148229
0.0148258
0.0148296
0.0148346
0.0148388
0.0154859
0.0154832
0.0154795
0.0154758
0.015472
0.0154681
0.015464
0.0154599
0.0154557
0.0154514
0.0154472
0.015443
0.0154388
0.0154346
0.0154305
0.0154264
0.0154224
0.0154185
0.0154147
0.0154109
0.0154073
0.0154037
0.0154003
0.0153969
0.0153936
0.0153904
0.0153873
0.0153843
0.0153814
0.0153786
0.0153759
0.0153733
0.0153707
0.0153683
0.0153659
0.0153637
0.0153615
0.0153595
0.0153575
0.0153557
0.015354
0.0153524
0.015351
0.0153497
0.0153485
0.0153475
0.0153467
0.015346
0.0153455
0.0153452
0.015345
0.0153451
0.0153454
0.015346
0.0153467
0.0153477
0.015349
0.0153505
0.0153523
0.0153543
0.0153567
0.0153593
0.0153623
0.0153655
0.0153691
0.015373
0.0153772
0.0153818
0.0153867
0.015392
0.0153976
0.0154036
0.0154099
0.0154166
0.0154236
0.015431
0.0154388
0.0154469
0.0154553
0.0154641
0.0154733
0.0154827
0.0154925
0.0155026
0.0155129
0.0155236
0.0155345
0.0155457
0.0155571
0.0155686
0.0155804
0.0155924
0.0156044
0.0156166
0.0156289
0.0156411
0.0156535
0.0156657
0.015678
0.0156901
0.0157021
0.015714
0.0157256
0.015737
0.015748
0.0157588
0.0157692
0.0157791
0.0157886
0.0157975
0.015806
0.0158138
0.015821
0.0158275
0.0158332
0.0158383
0.0158425
0.0158459
0.0158485
0.0158502
0.0158509
0.0158507
0.0158495
0.0158474
0.0158443
0.0158401
0.0158349
0.0158287
0.0158215
0.0158133
0.015804
0.0157937
0.0157824
0.0157702
0.0157569
0.0157428
0.0157277
0.0157118
0.015695
0.0156775
0.0156591
0.0156401
0.0156203
0.0156
0.0155791
0.0155576
0.0155357
0.0155134
0.0154907
0.0154677
0.0154445
0.015421
0.0153975
0.0153738
0.0153502
0.0153265
0.015303
0.0152796
0.0152563
0.0152333
0.0152106
0.0151883
0.0151663
0.0151447
0.0151236
0.0151029
0.0150829
0.0150633
0.0150444
0.0150261
0.0150085
0.0149915
0.0149752
0.0149597
0.0149449
0.0149308
0.0149176
0.0149051
0.0148934
0.0148825
0.0148725
0.0148632
0.0148548
0.0148473
0.0148405
0.0148346
0.0148296
0.0148253
0.0148219
0.0148194
0.0148176
0.0148167
0.0148166
0.0148173
0.0148188
0.0148212
0.0148243
0.0148284
0.0148336
0.0148381
0.0154926
0.0154894
0.0154851
0.015481
0.0154768
0.0154725
0.0154682
0.0154639
0.0154595
0.0154552
0.0154509
0.0154467
0.0154425
0.0154383
0.0154342
0.0154303
0.0154263
0.0154225
0.0154188
0.0154151
0.0154116
0.0154081
0.0154048
0.0154015
0.0153983
0.0153952
0.0153921
0.0153892
0.0153863
0.0153836
0.0153809
0.0153783
0.0153757
0.0153733
0.015371
0.0153687
0.0153665
0.0153645
0.0153625
0.0153606
0.0153589
0.0153572
0.0153557
0.0153544
0.0153531
0.015352
0.0153511
0.0153503
0.0153497
0.0153493
0.0153491
0.015349
0.0153492
0.0153496
0.0153502
0.0153511
0.0153522
0.0153535
0.0153552
0.0153571
0.0153592
0.0153617
0.0153645
0.0153676
0.0153709
0.0153747
0.0153787
0.0153831
0.0153878
0.0153929
0.0153983
0.015404
0.0154102
0.0154166
0.0154235
0.0154307
0.0154382
0.0154461
0.0154543
0.0154629
0.0154718
0.0154811
0.0154907
0.0155005
0.0155107
0.0155212
0.0155319
0.0155429
0.0155541
0.0155655
0.0155771
0.0155889
0.0156008
0.0156128
0.0156249
0.0156371
0.0156493
0.0156614
0.0156736
0.0156856
0.0156975
0.0157092
0.0157208
0.0157321
0.0157431
0.0157538
0.0157641
0.015774
0.0157834
0.0157923
0.0158007
0.0158085
0.0158157
0.0158222
0.0158279
0.015833
0.0158372
0.0158406
0.0158432
0.0158448
0.0158456
0.0158454
0.0158442
0.0158421
0.0158389
0.0158348
0.0158296
0.0158234
0.0158161
0.0158079
0.0157986
0.0157883
0.015777
0.0157647
0.0157514
0.0157373
0.0157222
0.0157062
0.0156894
0.0156718
0.0156534
0.0156344
0.0156146
0.0155942
0.0155733
0.0155518
0.0155299
0.0155075
0.0154848
0.0154618
0.0154386
0.0154151
0.0153916
0.015368
0.0153443
0.0153207
0.0152972
0.0152738
0.0152506
0.0152277
0.0152051
0.0151828
0.0151609
0.0151394
0.0151183
0.0150978
0.0150778
0.0150584
0.0150396
0.0150214
0.0150038
0.014987
0.0149708
0.0149554
0.0149407
0.0149268
0.0149136
0.0149012
0.0148896
0.0148788
0.0148689
0.0148597
0.0148514
0.0148439
0.0148372
0.0148313
0.0148263
0.0148221
0.0148188
0.0148162
0.0148145
0.0148137
0.0148136
0.0148144
0.0148161
0.0148186
0.0148219
0.0148262
0.0148318
0.0148365
0.0154995
0.0154957
0.0154908
0.0154862
0.0154816
0.015477
0.0154724
0.0154679
0.0154634
0.0154589
0.0154545
0.0154503
0.015446
0.0154419
0.0154379
0.0154339
0.0154301
0.0154263
0.0154227
0.0154191
0.0154156
0.0154123
0.015409
0.0154058
0.0154026
0.0153996
0.0153966
0.0153937
0.0153909
0.0153882
0.0153855
0.0153829
0.0153804
0.015378
0.0153756
0.0153734
0.0153712
0.0153691
0.0153671
0.0153651
0.0153633
0.0153616
0.0153601
0.0153586
0.0153573
0.0153561
0.0153551
0.0153542
0.0153535
0.0153529
0.0153526
0.0153524
0.0153525
0.0153527
0.0153532
0.0153539
0.0153548
0.015356
0.0153575
0.0153592
0.0153612
0.0153635
0.0153661
0.015369
0.0153722
0.0153757
0.0153795
0.0153837
0.0153882
0.0153931
0.0153983
0.0154038
0.0154098
0.015416
0.0154226
0.0154296
0.0154369
0.0154446
0.0154527
0.015461
0.0154698
0.0154788
0.0154882
0.0154979
0.0155079
0.0155181
0.0155287
0.0155395
0.0155505
0.0155618
0.0155733
0.0155849
0.0155967
0.0156085
0.0156205
0.0156326
0.0156447
0.0156567
0.0156688
0.0156807
0.0156925
0.0157042
0.0157157
0.015727
0.0157379
0.0157486
0.0157589
0.0157688
0.0157782
0.0157871
0.0157955
0.0158033
0.0158105
0.015817
0.0158227
0.0158278
0.015832
0.0158355
0.015838
0.0158397
0.0158405
0.0158403
0.0158392
0.015837
0.0158339
0.0158298
0.0158246
0.0158184
0.0158111
0.0158029
0.0157935
0.0157832
0.0157719
0.0157596
0.0157463
0.0157321
0.015717
0.015701
0.0156841
0.0156665
0.015648
0.0156289
0.0156091
0.0155887
0.0155677
0.0155461
0.0155242
0.0155018
0.015479
0.015456
0.0154327
0.0154092
0.0153856
0.015362
0.0153383
0.0153147
0.0152912
0.0152678
0.0152447
0.0152217
0.0151991
0.0151769
0.015155
0.0151336
0.0151126
0.0150921
0.0150722
0.0150529
0.0150341
0.015016
0.0149985
0.0149818
0.0149657
0.0149504
0.0149358
0.0149219
0.0149088
0.0148965
0.014885
0.0148743
0.0148644
0.0148553
0.014847
0.0148396
0.0148329
0.0148271
0.0148221
0.014818
0.0148147
0.0148122
0.0148106
0.0148097
0.0148098
0.0148107
0.0148124
0.0148151
0.0148186
0.0148231
0.0148289
0.0148339
0.0155063
0.015502
0.0154965
0.0154914
0.0154864
0.0154814
0.0154765
0.0154717
0.0154671
0.0154625
0.015458
0.0154537
0.0154494
0.0154453
0.0154413
0.0154374
0.0154336
0.0154299
0.0154263
0.0154228
0.0154194
0.0154161
0.0154129
0.0154097
0.0154067
0.0154037
0.0154008
0.0153979
0.0153951
0.0153924
0.0153898
0.0153872
0.0153847
0.0153823
0.0153799
0.0153776
0.0153754
0.0153732
0.0153712
0.0153692
0.0153674
0.0153656
0.0153639
0.0153624
0.015361
0.0153597
0.0153586
0.0153576
0.0153567
0.0153561
0.0153556
0.0153553
0.0153552
0.0153553
0.0153556
0.0153561
0.0153569
0.0153579
0.0153592
0.0153607
0.0153626
0.0153647
0.0153671
0.0153697
0.0153727
0.0153761
0.0153797
0.0153837
0.015388
0.0153926
0.0153976
0.015403
0.0154086
0.0154147
0.0154211
0.0154279
0.015435
0.0154425
0.0154503
0.0154585
0.015467
0.0154759
0.015485
0.0154945
0.0155043
0.0155144
0.0155248
0.0155355
0.0155464
0.0155575
0.0155688
0.0155803
0.0155919
0.0156037
0.0156156
0.0156275
0.0156395
0.0156515
0.0156635
0.0156754
0.0156872
0.0156988
0.0157103
0.0157215
0.0157325
0.0157431
0.0157534
0.0157633
0.0157728
0.0157817
0.0157901
0.015798
0.0158052
0.0158117
0.0158175
0.0158226
0.0158269
0.0158304
0.015833
0.0158348
0.0158356
0.0158354
0.0158343
0.0158322
0.0158291
0.015825
0.0158199
0.0158137
0.0158064
0.0157981
0.0157888
0.0157785
0.0157672
0.0157548
0.0157415
0.0157272
0.0157121
0.015696
0.0156791
0.0156614
0.0156429
0.0156237
0.0156038
0.0155833
0.0155622
0.0155406
0.0155185
0.015496
0.0154732
0.0154501
0.0154267
0.0154032
0.0153796
0.0153559
0.0153321
0.0153085
0.0152849
0.0152615
0.0152384
0.0152154
0.0151928
0.0151706
0.0151487
0.0151273
0.0151063
0.0150859
0.015066
0.0150467
0.015028
0.0150099
0.0149926
0.0149758
0.0149598
0.0149446
0.01493
0.0149162
0.0149032
0.014891
0.0148795
0.0148689
0.014859
0.01485
0.0148418
0.0148344
0.0148278
0.014822
0.0148171
0.014813
0.0148097
0.0148073
0.0148057
0.0148049
0.014805
0.014806
0.0148079
0.0148107
0.0148143
0.014819
0.014825
0.0148301
0.015513
0.0155082
0.0155021
0.0154965
0.015491
0.0154857
0.0154805
0.0154755
0.0154706
0.0154659
0.0154613
0.0154569
0.0154526
0.0154485
0.0154444
0.0154406
0.0154368
0.0154331
0.0154296
0.0154262
0.0154228
0.0154196
0.0154164
0.0154133
0.0154103
0.0154074
0.0154045
0.0154017
0.015399
0.0153963
0.0153936
0.0153911
0.0153886
0.0153861
0.0153837
0.0153814
0.0153791
0.015377
0.0153749
0.0153728
0.0153709
0.015369
0.0153673
0.0153657
0.0153641
0.0153628
0.0153615
0.0153604
0.0153594
0.0153586
0.015358
0.0153575
0.0153573
0.0153572
0.0153574
0.0153577
0.0153583
0.0153592
0.0153603
0.0153616
0.0153632
0.0153652
0.0153673
0.0153698
0.0153726
0.0153757
0.0153792
0.0153829
0.015387
0.0153914
0.0153962
0.0154013
0.0154068
0.0154126
0.0154188
0.0154254
0.0154323
0.0154396
0.0154472
0.0154552
0.0154635
0.0154721
0.0154811
0.0154905
0.0155001
0.01551
0.0155202
0.0155307
0.0155415
0.0155524
0.0155636
0.015575
0.0155866
0.0155982
0.01561
0.0156219
0.0156338
0.0156458
0.0156577
0.0156696
0.0156813
0.015693
0.0157044
0.0157157
0.0157266
0.0157373
0.0157476
0.0157576
0.0157671
0.0157761
0.0157845
0.0157924
0.0157997
0.0158063
0.0158123
0.0158174
0.0158218
0.0158254
0.0158281
0.0158299
0.0158307
0.0158307
0.0158296
0.0158276
0.0158245
0.0158204
0.0158153
0.0158092
0.0158019
0.0157937
0.0157844
0.015774
0.0157626
0.0157503
0.0157369
0.0157226
0.0157074
0.0156913
0.0156743
0.0156565
0.0156379
0.0156186
0.0155986
0.015578
0.0155568
0.0155351
0.015513
0.0154904
0.0154674
0.0154442
0.0154208
0.0153971
0.0153734
0.0153496
0.0153258
0.015302
0.0152784
0.015255
0.0152317
0.0152088
0.0151861
0.0151638
0.0151419