/*--------------------------------*- C++ -*----------------------------------*\
  =========                 |
  \\      /  F ield         | OpenFOAM: The Open Source CFD Toolbox
   \\    /   O peration     | Website:  https://openfoam.org
    \\  /    A nd           | Version:  6
     \\/     M anipulation  |
\*---------------------------------------------------------------------------*/
FoamFile
{
    version     2.0;
    format      ascii;
    class       volVectorField;
    location    "0";
    object      U;
}
// * * * * * * * * * * * * * * * * * * * * * * * * * * * * * * * * * * * * * //

dimensions      [0 1 -1 0 0 0 0];

internalField   nonuniform List<vector> 
13046
(
(-0.817591 0.509938 0)
(-0.628846 0.18157 -7.22104e-21)
(-0.324831 0.158309 -1.59001e-20)
(-0.792595 0.422445 0)
(-0.421596 0.251873 -1.42494e-20)
(-0.524768 0.161573 0)
(-0.839761 0.443918 2.04094e-21)
(-0.515404 0.131497 3.71572e-21)
(-0.398219 0.256306 -1.57033e-20)
(-1.07903 0.580227 5.57123e-21)
(-0.721837 -0.152212 0)
(-0.0495349 0.0311711 1.04594e-20)
(-0.932437 0.546508 -6.3977e-21)
(-0.592831 0.115808 -1.16456e-20)
(-0.279673 0.158124 8.70516e-21)
(-1.07792 0.679343 -7.45869e-21)
(-0.0568322 0.00607943 2.52059e-20)
(-0.768719 -0.0698287 6.36392e-21)
(-0.574652 0.365179 0)
(-0.439793 0.161338 -7.78825e-21)
(-0.717319 0.325771 2.1715e-20)
(-1.0831 0.665933 -3.09267e-21)
(-0.0544985 0.0131697 -3.36362e-20)
(-0.755193 -0.0867689 0)
(-0.747312 0.433244 8.65906e-21)
(-0.595061 0.203731 -1.76245e-20)
(-0.397475 0.206057 0)
(-0.936025 0.575712 -1.14929e-20)
(-0.616011 0.114149 3.39896e-21)
(-0.253003 0.133598 -1.50691e-20)
(-0.824252 0.530613 0)
(-0.656218 0.190716 0)
(-0.300074 0.131557 1.61884e-20)
(-0.699109 0.400169 -1.00516e-20)
(-0.429209 0.217818 5.36742e-21)
(-0.594476 0.227542 3.06867e-20)
(-0.684746 0.376611 -1.56044e-20)
(-0.464501 0.245976 8.16574e-21)
(-0.570755 0.228706 -1.58005e-20)
(-0.720051 0.536021 1.10196e-20)
(-0.300847 0.0495109 2.99106e-21)
(-0.807407 0.265578 -1.07963e-20)
(-0.614651 0.309128 7.0891e-21)
(-0.549774 0.291683 1.21723e-20)
(-0.541251 0.248068 0)
(-0.653466 0.319223 4.44517e-21)
(-0.544832 0.309425 -1.86547e-20)
(-0.507264 0.219561 -2.34929e-21)
(-0.839025 0.504154 0)
(-0.598109 0.156613 -5.21215e-22)
(-0.320909 0.172985 1.58053e-24)
(-0.323352 -0.0389767 1.88433e-20)
(-0.636823 0.55147 0)
(-0.968838 0.313194 -1.30728e-20)
(-0.345716 -0.0575314 -2.68535e-20)
(-1.01259 0.33332 -2.05085e-20)
(-0.589281 0.528137 1.72663e-20)
(-0.801524 0.0878014 -2.74034e-21)
(-1.03533 0.77631 0)
(-0.131593 -0.0213886 1.39634e-20)
(-1.07611 0.516885 -5.92691e-21)
(-0.517356 -0.0114232 7.00162e-21)
(-0.282952 0.240698 -3.62502e-20)
(-0.105381 0.0774116 1.91353e-20)
(-0.669068 -0.0731297 -4.58827e-21)
(-1.13271 0.621182 -9.05951e-21)
(-1.00839 0.787119 0)
(-0.82957 0.116882 0)
(-0.149228 -0.0368324 0)
(-0.985543 0.771141 -4.57266e-21)
(-0.828095 0.131793 0)
(-0.161192 -0.03237 1.11583e-20)
(-0.811624 0.07428 0)
(-1.05094 0.786405 1.95151e-22)
(-0.118846 -0.0293287 1.88063e-24)
(-0.601523 0.392844 0)
(-0.411787 0.140214 8.46646e-21)
(-0.733049 0.310463 -1.55325e-20)
(-0.0957411 -0.0142595 1.54364e-20)
(-1.07221 0.766764 -1.33405e-20)
(-0.786252 0.0254522 0)
(-0.779535 0.44442 4.49696e-21)
(-0.569766 0.183305 0)
(-0.388052 0.218106 0)
(-0.0893966 0.0626085 -1.71747e-20)
(-0.686758 -0.0894816 -3.60418e-21)
(-1.13033 0.622342 5.36817e-21)
(-1.17005 0.533544 -9.57797e-21)
(-0.15366 0.157489 0)
(-0.597815 -0.122483 -3.5402e-21)
(-0.206107 0.237121 0)
(-1.20464 0.436842 0)
(-0.546161 -0.188951 4.75387e-22)
(-1.06806 0.627167 0)
(-1.09171 0.621115 5.29289e-21)
(-0.629687 0.0293134 1.37738e-20)
(-0.623907 0.00282948 -6.47062e-21)
(-0.178894 0.109041 -7.90036e-21)
(-0.169539 0.116824 2.0249e-20)
(-0.177809 0.183779 -9.58995e-22)
(-1.17539 0.515761 9.37626e-21)
(-0.576969 -0.129857 0)
(-0.695637 0.347083 -6.22832e-23)
(-0.517072 0.302309 9.77984e-21)
(-0.500648 0.197037 0)
(-0.52241 0.446396 0)
(-0.969125 0.373892 -6.26229e-21)
(-0.375455 -0.00522368 0)
(-0.641438 0.527226 1.912e-20)
(-0.3205 0.00123262 0)
(-0.907107 0.308137 -2.4464e-20)
(-0.959467 0.51638 0)
(-0.0195375 -0.00137218 0)
(-0.71991 -0.217003 -5.40391e-21)
(-0.892944 0.522384 1.76993e-20)
(-0.584863 0.132903 4.89158e-21)
(-0.303171 0.173636 1.57361e-20)
(-1.08313 0.676699 6.75836e-21)
(-1.06408 0.658073 -1.27984e-20)
(-0.681779 0.0226651 -1.16931e-20)
(-0.137585 0.0624837 9.09999e-21)
(-0.66064 0.0387794 7.1341e-21)
(-0.158745 0.0795417 -8.50325e-21)
(-1.05412 0.578182 -4.45777e-21)
(-0.734479 -0.164046 -7.4149e-21)
(-0.0392166 0.0191165 -4.68668e-21)
(-1.0107 0.616013 0)
(-0.627917 0.0710215 -9.04982e-21)
(-0.207432 0.112458 1.84528e-20)
(-0.76136 0.556159 0)
(-0.284426 0.0568337 -1.49294e-20)
(-0.779194 0.240517 6.35485e-22)
(-0.234952 0.264631 0)
(-1.20333 0.436963 0)
(-0.531024 -0.17131 0)
(-1.13045 0.597279 0)
(-0.616903 -0.0471364 -1.81129e-20)
(-0.160736 0.129919 -2.16878e-20)
(-0.862934 0.554089 0)
(-0.662585 0.171795 0)
(-0.276674 0.114979 0)
(-0.957326 0.458099 0)
(-0.468843 0.0499104 0)
(-0.390644 0.296733 0)
(-0.615877 0.51755 0)
(-0.333415 -0.0125581 0)
(-0.940551 0.324407 1.315e-20)
(-0.526145 0.432467 -2.0265e-21)
(-0.948147 0.37632 -1.34941e-20)
(-0.383193 0.0116192 1.63415e-20)
(-1.09464 0.533637 1.37288e-20)
(-0.538751 -0.0219927 0)
(-0.251687 0.211218 4.71488e-20)
(-0.491954 0.364588 0)
(-0.882458 0.392767 1.45761e-20)
(-0.421481 0.0701923 -4.13529e-21)
(-0.397195 -0.072993 0)
(-1.07307 0.382075 1.4325e-20)
(-0.424905 -0.0819198 0)
(-1.10128 0.407514 8.11254e-21)
(-0.48277 0.454192 0)
(-0.429154 0.410105 0)
(-0.976954 0.421944 1.84371e-21)
(-0.428823 0.0176355 8.69195e-21)
(-0.434865 0.348625 -8.87862e-21)
(-1.09935 0.564864 -5.73715e-21)
(-0.0571611 0.0444779 0)
(-0.6994 -0.163991 -9.08557e-21)
(-0.995344 0.541227 -3.93747e-21)
(-0.0250059 0.0041191 -2.14377e-21)
(-0.734686 -0.195895 0)
(-1.13106 0.612004 -7.61674e-21)
(-0.635287 -0.0500414 0)
(-0.140776 0.109584 2.4668e-20)
(-0.821466 0.635612 0)
(-0.82658 0.221406 3.52273e-21)
(-0.245673 0.00823616 8.75304e-21)
(-0.950598 0.40547 1.22595e-20)
(-0.468305 0.37735 4.23281e-21)
(-0.412691 0.0292486 0)
(-0.0806075 0.0823056 0)
(-0.657736 -0.169393 0)
(-1.1379 0.537397 4.82563e-21)
(-0.787643 0.605171 0)
(-0.821669 0.23859 -7.57596e-21)
(-0.263877 0.0221596 2.26323e-21)
(-0.493035 0.381835 0)
(-0.898661 0.386951 0)
(-0.404603 0.0522629 0)
(-0.923999 0.441133 6.02462e-21)
(-0.465673 0.0657111 0)
(-0.40482 0.296068 0)
(-0.571327 0.0787256 -5.11112e-23)
(-0.269234 0.173271 -1.06687e-20)
(-0.989035 0.59305 1.81981e-20)
(-0.613594 0.0848633 0)
(-0.229714 0.129208 -2.31216e-20)
(-1.15328 0.570437 -9.60266e-21)
(-0.113488 0.104434 1.55074e-20)
(-0.645139 -0.11857 -1.73623e-20)
(-0.224049 0.242255 1.40507e-20)
(-1.18759 0.472854 5.97004e-21)
(-0.542051 -0.143622 1.7559e-20)
(-1.192 0.48018 -1.61691e-20)
(-0.578653 -0.164744 0)
(-0.166127 0.187208 -1.37923e-20)
(-0.312397 -0.0791088 -9.65578e-22)
(-1.00905 0.290753 5.8744e-21)
(-0.677421 0.620543 0)
(-0.918379 0.487552 -2.70707e-20)
(-1.06181 0.779697 6.89716e-21)
(-0.101028 -0.0236238 -9.52834e-21)
(-0.805502 0.0364973 0)
(-0.597392 -0.177139 0)
(-1.17834 0.49045 -1.41605e-20)
(-0.138589 0.154232 0)
(-0.713683 0.375995 -2.24717e-20)
(-0.47508 0.271839 -8.01399e-21)
(-0.528915 0.198273 2.32903e-20)
(-0.915441 0.583671 0)
(-0.644141 0.136687 -4.89566e-22)
(-0.256128 0.120389 -8.88096e-21)
(-0.240551 0.264146 1.07269e-20)
(-1.19497 0.456604 0)
(-0.529699 -0.156109 -2.02283e-20)
(-0.952514 0.506725 2.16454e-20)
(-0.550695 0.0718474 2.1109e-20)
(-0.290206 0.195494 0)
(-0.0398128 0.0281902 0)
(-0.69649 -0.201941 7.97617e-21)
(-1.05638 0.530506 0)
(-0.632012 0.586518 0)
(-1.03615 0.305847 0)
(-0.330933 -0.0877482 0)
(-1.18907 0.490913 1.41855e-20)
(-0.567658 -0.147868 0)
(-0.182199 0.19844 -3.95064e-23)
(-1.0393 0.417797 5.33999e-21)
(-0.420439 -0.0326268 -6.70346e-21)
(-0.427404 0.379115 0)
(-1.00584 0.635479 0)
(-0.648997 0.0808466 8.44537e-21)
(-0.196485 0.0938642 1.45617e-20)
(-0.474742 -0.155735 -2.47999e-20)
(-1.18962 0.401931 -1.11099e-20)
(-0.345908 0.373317 8.40978e-21)
(-1.13023 0.402408 0)
(-0.435503 -0.104459 -9.67361e-21)
(-0.415002 0.409433 -3.02179e-22)
(-0.0377238 0.0294107 -1.36713e-20)
(-0.678494 -0.217919 0)
(-1.05195 0.507806 -4.45186e-21)
(-0.714351 0.581277 1.0139e-20)
(-0.291249 -0.00303802 -1.09626e-20)
(-0.887368 0.275844 1.09165e-21)
(-0.891991 0.539938 4.12272e-21)
(-0.0134574 -0.0170521 -2.01654e-20)
(-0.766966 -0.185567 0)
(-0.53073 0.334318 -4.63644e-21)
(-0.738476 0.347543 -1.75505e-20)
(-0.458293 0.159532 2.33843e-20)
(-1.0428 0.460321 6.24171e-21)
(-1.02191 0.432403 5.61287e-24)
(-0.459271 -0.0131372 -1.62132e-20)
(-0.432762 -0.0130912 0)
(-0.413468 0.356353 8.07102e-21)
(-0.361821 0.311801 -8.38492e-21)
(-0.0831287 -0.0112074 -2.02018e-20)
(-1.07573 0.751616 7.13348e-21)
(-0.787506 0.00751121 -1.544e-20)
(-0.977024 0.634907 0)
(-0.670458 0.110312 0)
(-0.207861 0.0851586 -1.91809e-20)
(-1.15209 0.418945 -2.93083e-21)
(-0.45849 -0.119261 0)
(-0.373354 0.377057 0)
(-1.10931 0.640708 -6.47769e-21)
(-0.650072 -0.0122123 0)
(-0.141532 0.0911528 9.00871e-21)
(-0.60646 0.321373 4.79761e-21)
(-0.573272 0.26528 7.01845e-21)
(-0.527435 0.267753 -2.3975e-21)
(-1.08572 0.426779 -1.03733e-20)
(-0.437982 -0.0618045 0)
(-0.399018 0.372649 -1.40221e-20)
(-0.978502 0.655019 0)
(-0.693213 0.112647 1.05663e-20)
(-0.194894 0.0659224 -1.24038e-20)
(-0.966424 0.53615 0)
(-0.997817 0.550751 2.1274e-21)
(-0.722437 0.597929 3.66158e-21)
(-0.285517 -0.018185 3.18257e-20)
(-0.904667 0.274161 -2.62886e-20)
(-1.10644 0.448509 -1.04852e-20)
(-0.460035 -0.069237 1.42016e-20)
(-0.353372 0.333062 1.27936e-20)
(-1.12251 0.633973 0)
(-0.132785 0.0937439 -3.17581e-20)
(-0.650886 -0.0325536 -9.09028e-21)
(-0.646277 0.5086 -2.63797e-20)
(-0.325188 0.0182922 0)
(-0.880674 0.311843 8.30058e-21)
(-0.503619 0.484019 -1.62134e-20)
(-1.08409 0.366939 -8.37038e-21)
(-0.389042 -0.0910632 0)
(-1.04473 0.700072 -6.59252e-21)
(-0.713303 0.0685368 -9.3757e-21)
(-0.144837 0.0381118 5.67276e-21)
(-0.677563 0.584115 1.33171e-21)
(-0.307582 -0.0393131 0)
(-0.955294 0.298882 1.80423e-20)
(-1.06386 0.711158 0)
(-1.07751 0.700537 0)
(-0.720132 0.0517077 -6.13152e-21)
(-0.132242 0.0330733 -1.47331e-20)
(-0.706483 0.0298593 8.67719e-21)
(-0.127008 0.0435784 1.56681e-20)
(-0.0852782 0.0783356 -1.20352e-20)
(-0.666873 -0.148785 0)
(-1.13858 0.561212 -6.74613e-21)
(-1.04024 0.660045 7.62162e-21)
(-0.665946 0.0595836 0)
(-0.167997 0.0754224 5.01219e-21)
(-0.677101 -0.239758 1.5771e-20)
(-0.00780469 -0.0169222 1.75888e-20)
(-0.832602 0.46512 9.70386e-21)
(-0.824286 0.363752 -8.05612e-21)
(-0.527998 0.368883 0)
(-0.416372 0.0997213 0)
(-1.04324 0.513378 1.4238e-20)
(-0.512155 0.0119492 0)
(-0.295438 0.236957 2.77359e-20)
(-0.125459 0.108968 -9.85647e-21)
(-1.15247 0.585691 1.97509e-20)
(-0.637006 -0.0952652 1.2972e-20)
(-0.348014 -0.072303 0)
(-1.03274 0.330863 7.62179e-21)
(-0.583231 0.54376 -1.95583e-20)
(-0.493922 -0.15705 -3.05577e-20)
(-1.19405 0.421088 -6.70995e-21)
(-0.304169 0.330961 0)
(-0.535124 0.0948128 -2.10804e-20)
(-0.32672 0.217923 0)
(-1.0543 0.566396 1.54103e-20)
(-0.564056 0.0235261 7.75869e-21)
(-0.236997 0.171872 8.47749e-21)
(-0.51174 0.0809755 1.24097e-20)
(-0.346224 0.24017 7.70092e-23)
(-1.08992 0.690952 -4.6602e-22)
(-0.0667883 0.0102985 1.18583e-20)
(-0.757875 -0.0505409 -9.34674e-21)
(-0.299864 -0.0931217 0)
(-1.01119 0.276439 1.89117e-21)
(-0.712768 0.655847 0)
(-1.07697 0.574541 -1.57114e-20)
(-0.573816 0.00689924 -9.47808e-21)
(-0.220111 0.168606 -1.03873e-20)
(-0.972198 0.449475 0)
(-0.450838 0.0298085 -1.26345e-20)
(-0.401001 0.316449 0)
(-0.966889 0.351995 0)
(-0.354881 -0.0182855 0)
(-0.567065 0.478977 0)
(-0.82293 0.477002 -6.24262e-21)
(-0.577139 0.164409 -1.15221e-20)
(-0.354355 0.198357 6.14532e-23)
(-0.544036 0.517168 2.01455e-20)
(-1.0671 0.348442 2.02383e-20)
(-0.371606 -0.0871524 1.36965e-20)
(-1.16858 0.53987 -8.413e-21)
(-0.621174 -0.137249 1.47937e-20)
(-0.126575 0.127738 -1.45858e-20)
(-0.504062 -0.144382 2.06427e-20)
(-1.18824 0.440817 6.79729e-21)
(-0.284619 0.307028 1.06965e-20)
(-0.92786 0.751632 -1.43214e-20)
(-0.192987 -0.0385805 1.68272e-20)
(-0.85828 0.170024 -1.29741e-20)
(-1.0742 0.741691 3.88093e-21)
(-1.06402 0.739488 -3.58568e-21)
(-0.750823 0.0526024 -1.95615e-21)
(-0.758164 0.038416 0)
(-0.108764 0.00492598 -5.42922e-21)
(-0.120412 0.00881284 -4.77452e-21)
(-0.010098 -0.0167899 -2.38088e-20)
(-0.708491 -0.222843 -1.7376e-20)
(-0.855292 0.483088 2.65509e-21)
(-0.918356 0.560887 -2.71217e-22)
(-0.0166279 -0.0158519 2.7903e-20)
(-0.780393 -0.173077 0)
(-1.07368 0.471637 -2.32394e-20)
(-0.476262 -0.0279886 -3.66994e-21)
(-0.342475 0.301625 0)
(-0.0973169 0.0852657 -2.98596e-20)
(-1.14493 0.575193 6.70954e-21)
(-0.662516 -0.124949 0)
(-0.997131 0.738651 1.99044e-20)
(-1.02132 0.736885 -1.48902e-20)
(-0.780034 0.114369 9.97305e-21)
(-0.763239 0.0953945 3.83759e-21)
(-0.160878 -0.00123065 -9.45864e-21)
(-0.147735 0.00695379 -4.73551e-21)
(-0.110602 0.129861 0)
(-0.595793 -0.20964 0)
(-1.16664 0.455529 2.47591e-21)
(-0.828806 0.522787 -4.84007e-21)
(-0.0104451 -0.0223822 0)
(-0.76563 -0.185532 0)
(-0.657088 0.289198 -9.01916e-23)
(-0.609819 0.365701 1.02006e-20)
(-0.44862 0.193742 5.17296e-21)
(-0.905327 0.512831 -8.33099e-21)
(-0.732889 -0.212361 7.90399e-21)
(-0.0142037 -0.0112193 1.30551e-21)
(-0.872433 0.648151 0)
(-0.785765 0.191022 -1.64468e-20)
(-0.226873 0.0231925 -9.42012e-24)
(-1.14545 0.527896 1.25165e-22)
(-0.644463 -0.1712 2.14147e-20)
(-0.095219 0.0973796 1.43891e-23)
(-0.592179 -0.26706 4.75892e-22)
(-0.00522369 -0.0162628 -1.01045e-20)
(-0.791543 0.379812 -3.64121e-21)
(-0.681307 0.499568 -9.56763e-21)
(-0.325212 0.0674631 9.53811e-21)
(-0.800254 0.284497 2.63723e-20)
(-0.782844 0.375718 0)
(-0.463175 0.140309 -2.59421e-20)
(-0.495636 0.323497 1.30928e-20)
(-1.04204 0.595684 0)
(-0.0362364 0.0113109 1.39835e-20)
(-0.750719 -0.152748 8.74484e-24)
(-0.812066 0.383518 0)
(-0.4455 0.120559 -9.17234e-21)
(-0.489234 0.336502 -1.84963e-20)
(-0.63671 0.291524 1.05424e-20)
(-0.596007 0.344512 -5.41334e-21)
(-0.476323 0.215845 2.72526e-21)
(-0.607665 0.584992 9.64677e-21)
(-1.07174 0.315335 -7.23647e-21)
(-0.349604 -0.109598 1.51043e-20)
(-0.760097 0.321423 0)
(-0.399058 0.122562 0)
(-0.585355 0.406315 1.51161e-21)
(-0.806853 0.350668 1.27594e-20)
(-0.403488 0.106748 7.04791e-21)
(-0.561776 0.396112 2.15461e-22)
(-0.895173 0.737725 2.17908e-20)
(-0.880634 0.18647 -1.26721e-20)
(-0.209901 -0.0471661 -1.66127e-20)
(-0.0583967 0.0311328 2.11527e-20)
(-0.0594928 0.0375663 -2.14185e-20)
(-0.732594 -0.114311 6.39e-21)
(-0.718468 -0.128778 4.42281e-21)
(-1.09473 0.626197 0)
(-1.101 0.612655 -5.70481e-21)
(-1.16913 0.52596 1.04164e-20)
(-0.624391 -0.15253 -1.33048e-20)
(-0.117593 0.126123 1.80485e-20)
(-0.180436 -0.0504353 -1.07562e-20)
(-0.951252 0.780602 4.4018e-21)
(-0.865733 0.157667 1.65414e-20)
(-0.741614 0.58039 -9.26107e-21)
(-0.281187 0.0145809 -9.99049e-21)
(-0.850816 0.259281 8.27861e-21)
(-1.14044 0.374435 0)
(-0.421286 -0.123491 1.00055e-20)
(-0.451465 0.452983 3.12766e-22)
(-0.605527 -0.267333 7.75453e-21)
(-0.0202496 0.00797481 -9.37732e-21)
(-0.943889 0.40638 -3.39776e-21)
(-0.178449 0.207425 0)
(-1.19828 0.451463 0)
(-0.561545 -0.188533 8.91219e-21)
(-1.03003 0.544651 4.66029e-21)
(-0.033351 0.0163479 0)
(-0.72246 -0.191059 -7.82689e-21)
(-0.00257445 -0.0202364 -3.74498e-32)
(-0.56967 -0.26193 -7.41433e-21)
(-0.725746 0.360496 3.61116e-21)
(-0.618694 -0.223124 8.30352e-21)
(-0.0035559 -0.023321 3.73574e-32)
(-0.699477 0.411342 -3.21772e-21)
(-0.514081 -0.0657141 -1.96215e-20)
(-1.1308 0.497682 0)
(-0.279199 0.258722 -2.75606e-20)
(-0.607198 -0.237439 -4.13728e-21)
(-0.065159 0.0728484 -9.56574e-21)
(-1.10689 0.438157 0)
(-1.1436 0.582438 -9.75792e-21)
(-0.60719 -0.067076 1.12532e-20)
(-0.163177 0.141693 1.4404e-20)
(-1.02727 0.672007 1.47907e-20)
(-0.0389322 -0.0137314 8.57325e-21)
(-0.810732 -0.0842284 0)
(-0.892244 0.497918 4.81039e-21)
(-0.332544 0.208253 -5.34206e-21)
(-0.54983 0.116664 5.07015e-21)
(-0.586378 -0.203436 4.61369e-21)
(-0.130954 0.154355 1.01088e-20)
(-1.17829 0.454492 2.84155e-21)
(-1.12103 0.362669 -8.13901e-21)
(-0.486093 0.482955 -5.54474e-21)
(-0.404341 -0.115234 0)
(-0.472586 -0.112968 0)
(-1.15254 0.436058 0)
(-0.339393 0.345533 0)
(-0.000345779 -0.0182654 0)
(-0.371781 -0.159555 -6.2962e-21)
(-0.411143 0.21067 2.31437e-21)
(-0.657126 -0.254969 7.8165e-21)
(-0.00881719 -0.0130951 -1.22103e-20)
(-0.855643 0.448985 -4.20017e-21)
(-0.854933 0.474701 -1.23149e-20)
(-0.35832 0.219017 1.25999e-20)
(-0.546312 0.13488 5.85705e-21)
(-0.622643 -0.19696 1.91021e-20)
(-1.15284 0.489551 -5.26454e-21)
(-0.0919469 0.104274 0)
(-0.100629 0.120493 -1.0609e-20)
(-1.15845 0.442077 0)
(-0.590626 -0.224398 -1.42346e-20)
(-1.13508 0.604716 -6.14984e-21)
(-0.0857391 0.0675784 3.20589e-20)
(-0.681848 -0.109917 0)
(-0.081485 0.00967979 -2.43893e-20)
(-0.756173 -0.014989 9.74253e-21)
(-1.09068 0.719651 0)
(-0.871871 0.749549 -2.75356e-20)
(-0.916581 0.200121 1.61368e-20)
(-0.22547 -0.0658508 -5.2804e-21)
(-0.772759 0.0747342 2.91841e-21)
(-1.04297 0.758487 8.54168e-21)
(-0.130989 -0.00416632 -1.49064e-20)
(-0.0642936 -0.0111701 -2.18869e-20)
(-1.07003 0.727246 0)
(-0.793892 -0.0290272 0)
(-0.908053 0.631371 -4.37946e-21)
(-0.944287 0.65481 0)
(-0.720655 0.16176 -1.71324e-20)
(-0.720418 0.142344 1.83212e-20)
(-0.224061 0.0617067 2.52577e-21)
(-0.204536 0.0531617 -2.69305e-21)
(-0.873945 0.628453 4.2004e-21)
(-0.752075 0.185073 0)
(-0.234827 0.047374 4.86072e-21)
(-0.983691 0.755314 0)
(-0.806448 0.126633 -1.61115e-20)
(-0.16455 -0.0166574 3.41127e-21)
(-0.495889 -0.12891 -1.02317e-20)
(-1.17575 0.445022 7.06849e-21)
(-0.29679 0.309085 -2.20015e-20)
(-0.609534 -0.171559 0)
(-1.16994 0.506653 1.55386e-20)
(-0.121815 0.136697 0)
(-0.24386 0.251458 -7.12451e-21)
(-1.17652 0.478286 -4.36947e-21)
(-0.530752 -0.123822 -6.7049e-21)
(-0.658783 -0.219664 -1.14395e-21)
(-0.00468307 -0.0231099 6.53134e-21)
(-0.739571 0.442123 0)
(-0.753733 0.522081 8.6145e-21)
(-0.765049 0.512022 0)
(-0.308843 0.0964556 0)
(-0.728883 0.240041 3.24754e-20)
(-0.317561 0.118092 0)
(-0.695833 0.224076 -2.05995e-20)
(-0.93608 0.72218 0)
(-0.896268 0.697626 0)
(-0.209062 -0.00616236 3.3076e-23)
(-0.81117 0.160414 9.95924e-21)
(-0.192275 -0.00712625 2.49639e-20)
(-0.820306 0.178867 -2.09757e-20)
(-0.56559 -0.275252 0)
(-0.00697467 -0.0114674 1.37225e-20)
(-0.825139 0.368518 0)
(-0.625863 -0.187214 -1.12374e-20)
(-1.15901 0.503891 1.6502e-21)
(-0.0968438 0.10545 6.39633e-21)
(-0.761993 0.627057 -1.58867e-20)
(-0.270318 -0.0278618 -1.14818e-20)
(-0.903377 0.255559 2.73459e-20)
(-0.458197 -0.140581 2.20537e-20)
(-1.17245 0.398907 1.86625e-20)
(-0.375137 0.395002 0)
(-0.0882938 0.00570533 2.60803e-20)
(-0.759612 -0.000226471 -1.03653e-20)
(-1.08713 0.730601 8.99144e-21)
(-0.682337 -0.238159 0)
(-0.969219 0.484509 0)
(-0.0201158 0.00420849 0)
(-0.671798 -0.233007 0)
(-1.00568 0.481782 4.18521e-21)
(-0.0291369 0.0180001 2.326e-21)
(-1.02368 0.717021 -8.25053e-21)
(-0.735296 0.086829 5.83002e-21)
(-0.151286 0.0254153 7.00944e-21)
(-0.619717 0.48244 -2.5185e-21)
(-0.342122 0.0328091 0)
(-0.874283 0.327161 -1.42392e-22)
(-1.11937 0.599131 7.16585e-21)
(-0.0731186 0.0544329 1.86949e-20)
(-0.698957 -0.122864 -5.15229e-21)
(-0.513559 -0.0863472 0)
(-1.1461 0.489249 0)
(-0.27366 0.270044 2.37437e-20)
(-0.111331 0.0727286 6.06221e-21)
(-0.674664 -0.0467229 1.55834e-20)
(-1.12293 0.647197 1.99586e-20)
(-0.870592 0.692501 0)
(-0.220928 -0.0158781 -1.66887e-20)
(-0.843772 0.195107 1.06806e-20)
(-1.01803 0.397471 1.39804e-22)
(-0.398353 -0.0265003 9.84045e-21)
(-0.477048 0.415789 0)
(-0.706746 0.542511 1.72742e-22)
(-0.300689 0.0303527 -3.26378e-21)
(-0.841193 0.275797 -1.08516e-20)
(-0.0722449 0.0601346 -6.21492e-24)
(-0.688708 -0.1465 1.22263e-20)
(-1.1188 0.572208 7.7156e-21)
(-1.1 0.66718 -3.74185e-21)
(-0.677203 -0.00171401 -4.57166e-21)
(-0.12868 0.0681896 0)
(-0.693632 0.491784 -9.34288e-21)
(-0.331699 0.0892091 2.05246e-20)
(-0.764039 0.273324 -1.73797e-20)
(-1.05342 0.714983 5.91977e-21)
(-0.053448 -0.0160683 9.74671e-21)
(-0.806848 -0.047659 -7.4338e-21)
(-0.854373 0.577453 -5.32706e-21)
(-0.694647 0.178317 0)
(-0.261736 0.0918193 0)
(-0.893757 0.419504 -2.25607e-20)
(-0.446113 0.0766473 5.7019e-21)
(-0.44543 0.327139 0)
(-0.475915 -0.0901222 0)
(-1.13594 0.44902 1.50001e-20)
(-0.331643 0.328609 0)
(-0.967063 0.604578 -3.06305e-21)
(-0.0234034 -0.0137764 -3.00177e-21)
(-0.801883 -0.14068 8.65368e-21)
(-0.975326 0.627046 8.4885e-21)
(-0.0257662 -0.0160788 0)
(-0.812337 -0.120908 -8.20919e-21)
(-0.101636 0.0554758 5.53579e-21)
(-0.694123 -0.0389493 -9.3072e-21)
(-1.11566 0.663485 -1.83466e-20)
(-1.03699 0.37726 -7.23905e-21)
(-0.387001 -0.0513159 -9.83129e-21)
(-0.503057 0.449871 0)
(-0.0167235 -0.0194775 2.7497e-21)
(-0.802731 -0.157886 -8.08894e-21)
(-0.909248 0.576366 0)
(-0.148331 0.133343 0)
(-0.615394 -0.0876309 -9.51175e-21)
(-1.15263 0.572968 -2.29201e-21)
(-0.000505049 -0.0210643 1.09981e-20)
(-0.490716 -0.256519 8.26085e-21)
(-0.641924 0.294384 0)
(-0.590598 0.37489 -3.73489e-21)
(-0.571415 -0.193026 0)
(-0.00299392 -0.0239583 1.103e-20)
(-0.0692122 0.000520676 2.25391e-23)
(-0.773992 -0.0320294 0)
(-1.08 0.717133 0)
(-0.0526784 0.0457602 0)
(-0.687484 -0.184425 0)
(-1.09324 0.542376 1.00146e-20)
(-1.10327 0.644059 -6.35459e-21)
(-1.11523 0.648069 5.14087e-21)
(-0.0660729 0.0302954 -1.06084e-20)
(-0.731581 -0.0872208 -2.09062e-21)
(-0.0773526 0.0416158 -1.72048e-20)
(-0.712964 -0.076165 3.7473e-21)
(-1.16193 0.553138 4.49394e-21)
(-0.598165 -0.0990879 6.25628e-21)
(-0.162298 0.15431 0)
(-0.427712 0.44859 0)
(-0.434104 -0.143014 0)
(-1.16457 0.376361 0)
(-0.755637 0.472577 0)
(-0.353346 0.158927 -2.78804e-20)
(-0.64672 0.216559 1.13661e-20)
(-1.16546 0.512705 1.30648e-20)
(-0.554746 -0.104959 2.28872e-21)
(-0.212073 0.211826 2.10401e-20)
(-0.23964 0.239713 1.36502e-20)
(-1.16374 0.497291 -1.81766e-20)
(-0.536011 -0.105565 -3.17687e-21)
(-1.06765 0.753671 6.99368e-21)
(-0.0721018 -0.0193455 1.04796e-20)
(-0.80367 -0.00562192 1.61234e-20)
(-0.946377 0.739671 0)
(-0.823524 0.154797 4.78257e-21)
(-0.184063 -0.0188049 -2.44682e-20)
(-0.902111 0.672297 0)
(-0.78915 0.176664 2.16064e-20)
(-0.21195 0.0134605 1.56049e-23)
(-1.12063 0.535199 -1.745e-20)
(-0.546799 -0.0481696 2.76339e-21)
(-0.23689 0.209053 -1.19891e-20)
(-1.13403 0.52294 0)
(-0.539047 -0.0645145 2.5871e-21)
(-0.242884 0.221876 1.1003e-20)
(-0.665259 0.461213 0)
(-0.356088 0.108847 -3.24209e-20)
(-0.750608 0.283486 9.7761e-21)
(-0.950967 0.67393 0)
(-0.737169 0.13716 0)
(-0.193037 0.0362184 3.66335e-21)
(-0.149516 0.180116 -2.18358e-20)
(-0.567831 -0.208296 -2.51344e-20)
(-1.19193 0.441054 0)
(-1.02038 0.458834 5.4159e-21)
(-0.0318659 0.0245116 0)
(-0.640722 -0.247002 5.58287e-21)
(-0.997423 0.425281 -2.40678e-22)
(-0.0289034 0.0212609 0)
(-0.618374 -0.256874 -1.60397e-20)
(-0.797424 0.591006 6.38241e-21)
(-0.265612 0.0452777 -3.54851e-21)
(-0.782843 0.225506 -1.46994e-22)
(-0.658071 -0.251596 1.97427e-22)
(-0.0144305 -0.00339194 1.86719e-20)
(-0.924462 0.452905 0)
(-1.10662 0.677965 1.59467e-20)
(-0.109684 0.0523425 1.16651e-20)
(-0.696955 -0.0152818 0)
(-0.0140695 -0.00157608 -2.76716e-21)
(-0.615811 -0.26807 -8.75907e-21)
(-0.908093 0.411814 0)
(-0.770697 0.400492 1.56001e-20)
(-0.457799 0.279538 1.66842e-20)
(-0.507423 0.16789 7.99777e-23)
(-1.01055 0.577225 -2.65313e-21)
(-0.585705 0.0624062 -2.81804e-21)
(-0.242859 0.155284 -1.24507e-20)
(-0.364954 -0.045688 2.23635e-20)
(-1.01185 0.357777 1.73101e-20)
(-0.547998 0.482783 0)
(-0.0768515 0.0874361 0)
(-0.61079 -0.225525 -5.17834e-21)
(-1.12924 0.454928 0)
(-0.498215 -0.0964504 0)
(-1.1494 0.471738 0)
(-0.29458 0.293157 0)
(-0.0482833 -0.00867667 0)
(-1.05296 0.688227 -5.35466e-21)
(-0.798062 -0.0674273 7.2857e-21)
(-1.04179 0.587357 0)
(-0.586141 0.0385555 1.3934e-21)
(-0.227476 0.153829 1.21832e-20)
(-0.735217 0.451896 0)
(-0.37763 0.176741 2.39233e-20)
(-0.633723 0.221851 0)
(-0.633495 -0.20978 -1.80777e-20)
(-1.12347 0.486286 5.00437e-21)
(-0.0743302 0.0805932 0)
(-0.12131 0.096681 -1.2717e-20)
(-0.648469 -0.0783524 6.06873e-22)
(-1.1397 0.607544 3.00783e-22)
(-0.999234 0.583496 0)
(-0.973925 0.568183 5.50877e-21)
(-0.0269441 -0.00138058 -6.88773e-21)
(-0.022698 -0.00452222 -8.47424e-21)
(-0.767407 -0.159817 -5.29518e-21)
(-0.763483 -0.174729 4.35359e-21)
(-1.0176 0.474521 0)
(-0.46985 0.00807698 3.78617e-20)
(-0.357956 0.292675 1.31245e-20)
(-0.494822 -0.0497092 2.75235e-20)
(-1.10933 0.485095 0)
(-0.300625 0.27547 -1.44181e-20)
(-0.861879 0.437923 -1.27313e-20)
(-0.488705 0.109062 9.76524e-21)
(-0.404848 0.276727 2.04621e-20)
(-0.63741 -0.238372 1.21106e-20)
(-1.06818 0.46461 6.00609e-21)
(-0.618535 -0.244777 -5.79533e-21)
(-0.0448782 0.0435229 0)
(-1.07421 0.443404 -5.7955e-21)
(-0.0502862 0.0509625 0)
(-1.09609 0.604513 0)
(-0.60197 -0.00753311 0)
(-0.187282 0.138519 1.35934e-20)
(-1.10913 0.49805 8.54914e-21)
(-1.0821 0.486044 -1.58681e-20)
(-0.6516 -0.208688 7.95118e-21)
(-0.654604 -0.222287 -1.99057e-20)
(-0.0602906 0.0623395 1.88216e-20)
(-0.0484871 0.0464988 8.60529e-26)
(-1.09314 0.472445 0)
(-0.474117 -0.0500992 -2.52907e-20)
(-0.339524 0.313678 1.87765e-20)
(-0.978427 0.509295 1.17058e-20)
(-0.532246 0.0492827 -1.69368e-20)
(-0.291206 0.211056 0)
(-1.02082 0.650634 0)
(-0.0342314 -0.00954635 0)
(-0.801081 -0.105936 7.88725e-21)
(-1.02112 0.494176 8.59034e-21)
(-0.491028 0.0185479 -1.05274e-20)
(-0.330239 0.263109 -2.185e-20)
(-0.905615 0.462364 5.06438e-21)
(-0.494864 0.0873934 -1.14482e-20)
(-0.376359 0.261872 1.19561e-20)
(-0.991212 0.601398 0)
(-0.0276908 -0.00629289 0)
(-0.786367 -0.144437 -1.0851e-20)
(-1.04547 0.608221 0)
(-0.613809 0.0443776 3.00905e-21)
(-0.200136 0.124394 -1.35478e-20)
(-0.390414 -0.124517 0)
(-1.11861 0.34776 0)
(-0.522383 0.523279 -7.1312e-22)
(-0.867011 0.707492 -7.05256e-22)
(-0.868956 0.201088 0)
(-0.22165 -0.0323184 2.59624e-20)
(-0.50846 -0.174752 1.19751e-20)
(-0.271511 0.307973 0)
(-1.20601 0.41896 0)
(-0.00106199 -0.0216111 -2.64775e-20)
(-0.480068 -0.203404 8.8164e-21)
(-0.548634 0.289395 -3.23949e-21)
(-1.03471 0.538394 0)
(-0.535564 0.0311732 1.04018e-20)
(-0.274634 0.206512 -1.11922e-20)
(-1.06469 0.64831 1.02331e-20)
(-0.0456093 0.00867386 3.59029e-20)
(-0.767205 -0.10068 0)
(-0.261349 -0.0795352 -6.95663e-21)
(-0.965589 0.239671 -1.03871e-20)
(-0.793853 0.707422 -6.3541e-21)
(-0.722477 0.462479 0)
(-0.00560858 -0.0248247 -9.94899e-21)
(-0.70141 -0.202381 0)
(-0.548597 0.417816 1.25619e-20)
(-0.563924 0.444521 -1.28669e-20)
(-0.378492 0.0525031 0)
(-0.876637 0.358312 1.09981e-20)
(-0.364463 0.0288814 -2.10137e-20)
(-0.903809 0.348887 -8.85993e-21)
(-0.852244 0.415193 1.19691e-20)
(-0.461545 0.106975 1.28716e-20)
(-0.446272 0.311124 0)
(-0.637606 0.475164 1.10275e-20)
(-0.592081 0.442304 0)
(-0.341645 0.0604401 -1.16241e-20)
(-0.827511 0.308722 9.91936e-21)
(-0.364294 0.0698916 1.171e-20)
(-0.833004 0.330118 9.5514e-23)
(-1.00932 0.531388 7.39518e-22)
(-0.51058 0.0550431 -7.34118e-21)
(-0.327109 0.239917 -1.47547e-20)
(-0.983439 0.494519 -2.00764e-20)
(-0.495583 0.0439838 1.94549e-22)
(-0.344 0.260492 0)
(-0.0385412 0.0363999 0)
(-0.601971 -0.259728 0)
(-1.03626 0.418982 5.92149e-21)
(-0.837633 0.600596 -5.88013e-21)
(-0.752817 0.203972 0)
(-0.254188 0.0563102 6.56471e-21)
(-1.11409 0.526129 -1.60239e-20)
(-0.665305 -0.189516 9.12828e-21)
(-0.0624946 0.0631051 -1.07472e-20)
(-1.12562 0.558594 0)
(-1.1406 0.562385 9.38335e-21)
(-0.571285 -0.0470721 -3.44227e-21)
(-0.584475 -0.0625121 1.10527e-20)
(-0.204353 0.178229 -1.4975e-20)
(-0.186364 0.166499 -1.39111e-20)
(-0.828245 0.574455 0)
(-0.723395 0.199616 0)
(-0.268801 0.07967 3.08896e-21)
(-0.980345 0.715588 6.75354e-21)
(-0.765889 0.125753 0)
(-0.173705 0.0124393 8.14054e-21)
(-1.08705 0.562153 -4.97019e-21)
(-0.558889 -0.0124853 0)
(-0.226868 0.185988 0)
(-0.658428 0.392384 1.22399e-20)
(-0.637709 0.259501 -6.09749e-21)
(-0.426159 0.195027 6.45114e-21)
(-1.15193 0.53041 0)
(-0.558955 -0.0838703 0)
(-0.211764 0.201759 -2.2371e-20)
(-0.729446 0.476228 0)
(-0.345303 0.135776 3.53968e-21)
(-0.686448 0.239485 0)
(-1.08834 0.49975 -1.13839e-20)
(-0.497782 -0.0332379 -1.41386e-20)
(-0.304919 0.268198 -1.87057e-21)
(-0.982655 0.692528 6.79339e-21)
(-0.738328 0.11687 0)
(-0.176763 0.0307303 1.67354e-20)
(-0.677779 0.420571 -1.21415e-20)
(-0.658373 0.421827 -5.41963e-21)
(-0.656809 0.252629 5.95344e-21)
(-0.397524 0.17373 -1.27329e-20)
(-0.693389 0.270324 0)
(-0.389026 0.153511 -2.27591e-20)
(-0.623664 0.433851 -5.5043e-21)
(-0.371525 0.103634 1.51606e-20)
(-0.594479 0.429319 3.54506e-21)
(-0.7701 0.304683 -1.34028e-20)
(-0.377813 0.0856277 -7.2789e-21)
(-0.813198 0.330168 3.05789e-22)
(-0.899683 0.608754 6.32478e-21)
(-0.936406 0.611275 0)
(-0.692685 0.156671 1.26774e-20)
(-0.667955 0.134232 -9.89358e-21)
(-0.237054 0.0834155 -1.45889e-20)
(-0.230782 0.0959229 2.42765e-20)
(-0.0877686 0.0252137 0)
(-0.732754 -0.0207564 -5.73309e-21)
(-1.09993 0.698723 -9.34063e-21)
(-0.558272 0.541357 8.64286e-21)
(-1.08711 0.337722 1.14237e-20)
(-0.371792 -0.107998 -2.37749e-20)
(-0.0784737 0.0250781 -1.21242e-20)
(-0.0836434 0.0385152 9.67054e-21)
(-0.734049 -0.0438131 4.95543e-21)
(-0.714817 -0.0542003 8.5028e-21)
(-1.10104 0.686484 2.37542e-20)
(-1.11238 0.668495 -1.23271e-20)
(-0.694249 0.613114 1.17231e-20)
(-0.301573 -0.0565373 -1.09981e-20)
(-0.971005 0.287297 2.63987e-21)
(-0.633284 0.346823 2.0709e-20)
(-0.488878 0.245457 0)
(-0.587264 0.258668 -2.07569e-20)
(-1.15264 0.547541 -4.4588e-21)
(-0.579423 -0.0827241 -1.24805e-20)
(-0.18798 0.176097 0)
(-0.782438 0.546919 0)
(-0.286979 0.0783527 -2.94477e-21)
(-0.739271 0.226629 -1.05557e-20)
(-1.0018 0.694084 0)
(-0.725549 0.102703 0)
(-0.168311 0.0370868 -1.55945e-20)
(-1.08442 0.725585 -1.02435e-20)
(-1.0894 0.708255 0)
(-0.742297 0.0163017 3.00518e-21)
(-0.103179 0.0171303 -1.48313e-20)
(-0.72225 0.0139455 -8.20139e-21)
(-0.110036 0.0318557 2.00647e-20)
(-1.11506 0.592534 9.33343e-21)
(-0.600321 -0.0273793 1.15949e-20)
(-0.179154 0.142165 8.1522e-21)
(-0.797496 0.486971 6.29588e-21)
(-0.72806 -0.203781 0)