/*--------------------------------*- C++ -*----------------------------------*\
  =========                 |
  \\      /  F ield         | OpenFOAM: The Open Source CFD Toolbox
   \\    /   O peration     | Website:  https://openfoam.org
    \\  /    A nd           | Version:  6
     \\/     M anipulation  |
\*---------------------------------------------------------------------------*/
FoamFile
{
    version     2.0;
    format      ascii;
    class       volScalarField;
    location    "./ITHACAoutput/Offline/1";
    object      p;
}
// * * * * * * * * * * * * * * * * * * * * * * * * * * * * * * * * * * * * * //

dimensions      [0 2 -2 0 0 0 0];

internalField   nonuniform List<scalar> 
40000
(
-37.2913
-37.3264
-37.3917
-37.4662
-37.537
-37.5904
-37.6208
-37.6228
-37.5981
-37.5429
-37.4563
-37.3433
-37.1999
-37.0299
-36.8304
-36.6063
-36.3552
-36.0787
-35.7817
-35.4601
-35.1147
-34.7499
-34.3642
-33.9571
-33.5351
-33.0928
-32.6333
-32.1579
-31.6655
-31.1605
-30.6385
-30.1034
-29.5492
-28.9891
-28.4083
-27.8166
-27.2136
-26.5952
-25.9659
-25.3244
-24.6696
-24.003
-23.3256
-22.6377
-21.9367
-21.2221
-20.5016
-19.7662
-19.022
-18.2696
-17.5052
-16.7355
-15.9529
-15.1617
-14.3695
-13.565
-12.7584
-11.945
-11.1282
-10.3068
-9.48869
-8.66603
-7.84753
-7.03074
-6.22035
-5.41491
-4.61787
-3.82965
-3.05354
-2.29155
-1.54539
-0.8187
-0.111521
0.573296
1.23215
1.86517
2.46944
3.03858
3.57797
4.07896
4.5415
4.9593
5.33951
5.67295
5.96218
6.20025
6.389
6.52668
6.61008
6.64058
6.61505
6.53261
6.39471
6.20255
5.94898
5.64303
5.27844
4.85741
4.38079
3.85237
3.27116
2.63712
1.95448
1.22827
0.455345
-0.357012
-1.21078
-2.09877
-3.0188
-3.97036
-4.94502
-5.94115
-6.95394
-7.98029
-9.01714
-10.0581
-11.0988
-12.1354
-13.1635
-14.1787
-15.1795
-16.1571
-17.1099
-18.0325
-18.9243
-19.7761
-20.5922
-21.3615
-22.0866
-22.763
-23.388
-23.9629
-24.4816
-24.9424
-25.3516
-25.6988
-25.9913
-26.2268
-26.4029
-26.5222
-26.5875
-26.6
-26.5574
-26.4634
-26.3245
-26.1381
-25.9094
-25.6401
-25.3297
-24.9873
-24.6132
-24.2114
-23.7853
-23.3374
-22.8671
-22.3865
-21.8929
-21.3869
-20.8786
-20.3633
-19.8499
-19.3417
-18.8321
-18.33
-17.8378
-17.3547
-16.8864
-16.4301
-15.9858
-15.5613
-15.1533
-14.7621
-14.3884
-14.0362
-13.701
-13.3858
-13.0881
-12.8152
-12.5547
-12.3203
-12.1021
-11.9019
-11.725
-11.5678
-11.4224
-11.3029
-11.1972
-11.1132
-11.0459
-10.9998
-10.9707
-10.9581
-10.9676
-10.994
-11.037
-11.0906
-11.1533
-11.2189
-11.2649
-11.2933
-37.257
-37.2914
-37.3487
-37.4111
-37.4701
-37.5119
-37.5344
-37.5314
-37.5009
-37.4442
-37.3585
-37.2473
-37.1038
-36.939
-36.745
-36.5262
-36.2791
-36.0119
-35.7201
-35.4058
-35.07
-34.7158
-34.3403
-33.9438
-33.5292
-33.1003
-32.6516
-32.1863
-31.7079
-31.213
-30.7016
-30.1764
-29.6399
-29.0862
-28.521
-27.9415
-27.348
-26.7443
-26.1252
-25.4961
-24.854
-24.2
-23.5335
-22.8553
-22.1658
-21.465
-20.7534
-20.0311
-19.299
-18.5555
-17.8024
-17.0405
-16.2676
-15.49
-14.703
-13.9079
-13.1097
-12.3042
-11.4957
-10.6836
-9.8715
-9.05602
-8.24487
-7.43294
-6.62499
-5.82273
-5.02964
-4.24323
-3.47125
-2.71018
-1.96561
-1.23764
-0.529128
0.156953
0.818146
1.45494
2.05916
2.63733
3.18022
3.68838
4.15742
4.58463
4.97599
5.31809
5.6161
5.86532
6.06513
6.21666
6.31472
6.35728
6.34874
6.28544
6.16538
5.99168
5.75489
5.46668
5.12271
4.72364
4.26786
3.7587
3.19749
2.58766
1.92638
1.22127
0.471018
-0.319378
-1.15048
-2.01552
-2.91404
-3.84234
-4.79228
-5.76904
-6.76024
-7.7645
-8.78121
-9.80124
-10.8203
-11.8392
-12.8489
-13.8457
-14.825
-15.7879
-16.7245
-17.6338
-18.511
-19.3502
-20.1539
-20.9153
-21.6295
-22.2972
-22.9149
-23.4827
-23.9971
-24.4551
-24.8607
-25.2078
-25.4995
-25.7349
-25.9177
-26.042
-26.1104
-26.129
-26.0946
-26.0103
-25.8828
-25.709
-25.4898
-25.2304
-24.9376
-24.6113
-24.2498
-23.8639
-23.454
-23.022
-22.571
-22.1065
-21.6291
-21.141
-20.6482
-20.1545
-19.6571
-19.1627
-18.6727
-18.1885
-17.711
-17.2444
-16.7894
-16.3493
-15.9229
-15.5096
-15.1159
-14.7348
-14.3727
-14.0293
-13.7072
-13.4015
-13.1132
-12.8473
-12.5958
-12.3662
-12.1553
-11.9634
-11.7885
-11.6332
-11.4962
-11.3771
-11.2758
-11.193
-11.1267
-11.0785
-11.0486
-11.0334
-11.0385
-11.0595
-11.0954
-11.1404
-11.1938
-11.2461
-11.2918
-11.3162
-37.1922
-37.2348
-37.291
-37.3459
-37.3915
-37.425
-37.4374
-37.4259
-37.393
-37.3336
-37.2499
-37.1357
-36.9993
-36.8356
-36.6481
-36.435
-36.1974
-35.9367
-35.6551
-35.3522
-35.0268
-34.6823
-34.3198
-33.9354
-33.5366
-33.1196
-32.6851
-32.2361
-31.7681
-31.2901
-30.7928
-30.2847
-29.7588
-29.2227
-28.6722
-28.108
-27.5322
-26.9424
-26.3409
-25.7261
-25.0981
-24.4605
-23.8077
-23.1471
-22.4704
-21.7855
-21.0872
-20.3791
-19.6588
-18.9304
-18.1903
-17.4415
-16.6809
-15.9142
-15.1394
-14.3556
-13.5674
-12.7718
-11.9721
-11.1691
-10.3632
-9.55409
-8.7492
-7.94488
-7.14005
-6.34484
-5.55404
-4.77158
-3.99868
-3.24017
-2.49454
-1.76562
-1.05431
-0.365112
0.30126
0.941198
1.55602
2.13876
2.69067
3.20925
3.68778
4.13158
4.52968
4.88925
5.20282
5.46884
5.68528
5.85546
5.97018
6.03775
6.04643
6.00275
5.90611
5.7518
5.54439
5.27828
4.96016
4.58347
4.15308
3.6706
3.13866
2.55355
1.9241
1.24462
0.522539
-0.243958
-1.04696
-1.88351
-2.7566
-3.65789
-4.58287
-5.53183
-6.49735
-7.47809
-8.4657
-9.46374
-10.4612
-11.4552
-12.4437
-13.4182
-14.3813
-15.3216
-16.2414
-17.1351
-17.9939
-18.8183
-19.6076
-20.3576
-21.0624
-21.7218
-22.3324
-22.8932
-23.4014
-23.8553
-24.2582
-24.6045
-24.8975
-25.1365
-25.3188
-25.449
-25.5255
-25.5513
-25.5268
-25.4533
-25.3345
-25.1718
-24.9683
-24.7265
-24.4488
-24.1392
-23.7982
-23.4307
-23.0379
-22.626
-22.1951
-21.751
-21.2941
-20.8314
-20.3585
-19.8832
-19.4082
-18.9352
-18.4649
-17.9992
-17.5443
-17.0971
-16.6619
-16.2379
-15.8277
-15.4316
-15.0534
-14.6893
-14.3423
-14.0134
-13.7014
-13.4089
-13.1335
-12.8769
-12.6363
-12.4157
-12.2111
-12.0272
-11.8597
-11.709
-11.5786
-11.4623
-11.3655
-11.283
-11.2177
-11.1705
-11.1397
-11.1232
-11.1211
-11.1367
-11.1637
-11.2015
-11.2454
-11.294
-11.3373
-11.3656
-37.1168
-37.1709
-37.2365
-37.2914
-37.3346
-37.3602
-37.3674
-37.3545
-37.317
-37.2577
-37.1719
-37.0608
-36.9237
-36.7642
-36.5819
-36.3732
-36.1442
-35.8912
-35.6173
-35.3211
-35.0078
-34.6724
-34.3193
-33.9486
-33.5609
-33.1525
-32.7324
-32.2994
-31.8451
-31.3785
-30.8954
-30.3998
-29.8913
-29.3661
-28.8291
-28.2813
-27.7178
-27.1455
-26.5564
-25.9575
-25.3463
-24.7213
-24.0835
-23.4352
-22.7737
-22.1017
-21.4172
-20.7215
-20.0153
-19.2978
-18.5695
-17.8341
-17.0839
-16.3278
-15.5621
-14.7898
-14.0072
-13.2211
-12.4276
-11.6314
-10.8331
-10.0318
-9.22896
-8.42808
-7.62708
-6.83255
-6.04301
-5.2612
-4.48782
-3.72572
-2.97615
-2.2464
-1.52992
-0.834879
-0.160106
0.489921
1.1103
1.70306
2.26904
2.79606
3.2891
3.74391
4.16048
4.53515
4.86176
5.14552
5.38265
5.57049
5.70639
5.79167
5.82393
5.8023
5.72506
5.59351
5.40623
5.16518
4.86997
4.51828
4.11208
3.65476
3.14446
2.58309
1.97728
1.32052
0.620841
-0.118363
-0.897318
-1.7119
-2.56365
-3.44082
-4.34548
-5.273
-6.21738
-7.177
-8.15076
-9.1265
-10.1054
-11.0824
-12.0534
-13.0145
-13.9605
-14.887
-15.7936
-16.673
-17.5218
-18.3389
-19.1199
-19.8585
-20.5563
-21.207
-21.8128
-22.3696
-22.8757
-23.3283
-23.729
-24.075
-24.3693
-24.6084
-24.7964
-24.93
-25.0117
-25.0448
-25.0269
-24.9604
-24.8532
-24.7014
-24.5085
-24.2794
-24.0142
-23.7155
-23.3877
-23.0369
-22.6586
-22.2602
-21.8515
-21.4218
-20.982
-20.5348
-20.0808
-19.6237
-19.1673
-18.7087
-18.2571
-17.8083
-17.3698
-16.9392
-16.5229
-16.1148
-15.7197
-15.3397
-14.9745
-14.6263
-14.2929
-13.9789
-13.678
-13.3985
-13.1312
-12.8863
-12.6565
-12.443
-12.248
-12.0705
-11.9107
-11.7653
-11.6376
-11.5271
-11.43
-11.3491
-11.288
-11.2382
-11.2074
-11.1881
-11.1854
-11.1983
-11.218
-11.2502
-11.2921
-11.3388
-11.3917
-11.4327
-37.0482
-37.1137
-37.1905
-37.2495
-37.2938
-37.3162
-37.3206
-37.3063
-37.2668
-37.2022
-37.1191
-37.0091
-36.8738
-36.7187
-36.539
-36.3358
-36.1118
-35.8665
-35.6006
-35.3128
-35.0073
-34.6826
-34.3384
-33.9791
-33.5996
-33.2079
-32.7986
-32.3734
-31.9341
-31.4803
-31.0123
-30.5298
-30.0333
-29.5255
-29.0034
-28.4677
-27.918
-27.3579
-26.7835
-26.2007
-25.6011
-24.9903
-24.3651
-23.7316
-23.0854
-22.4252
-21.7548
-21.0709
-20.3776
-19.669
-18.9551
-18.2267
-17.4873
-16.7431
-15.9857
-15.2192
-14.447
-13.666
-12.8803
-12.0897
-11.2928
-10.4955
-9.69674
-8.89584
-8.09683
-7.30232
-6.51295
-5.7275
-4.95049
-4.18401
-3.43038
-2.68942
-1.96916
-1.26455
-0.583239
0.0764025
0.7098
1.3163
1.89101
2.43645
2.9456
3.41611
3.84985
4.23927
4.5891
4.89141
5.14709
5.35432
5.51082
5.61704
5.67107
5.66984
5.61731
5.50779
5.34456
5.12514
4.85227
4.52235
4.1381
3.70651
3.21869
2.68208
2.09384
1.46211
0.783886
0.061144
-0.695277
-1.49197
-2.32231
-3.1804
-4.07066
-4.97807
-5.90692
-6.85031
-7.80379
-8.76623
-9.73378
-10.6962
-11.6562
-12.6067
-13.5392
-14.4581
-15.3532
-16.2233
-17.065
-17.8748
-18.6462
-19.3819
-20.0743
-20.7216
-21.3266
-21.8782
-22.3829
-22.8375
-23.2368
-23.5863
-23.8781
-24.123
-24.3129
-24.448
-24.5365
-24.5729
-24.5622
-24.5068
-24.4057
-24.2612
-24.0792
-23.8562
-23.6013
-23.3168
-23.0017
-22.6623
-22.2979
-21.9151
-21.5168
-21.1033
-20.676
-20.2458
-19.8058
-19.3633
-18.9231
-18.4817
-18.0436
-17.6152
-17.1902
-16.7744
-16.3688
-15.9786
-15.5962
-15.233
-14.8801
-14.5451
-14.2276
-13.9206
-13.6358
-13.3667
-13.1111
-12.8739
-12.6555
-12.4521
-12.2668
-12.0937
-11.94
-11.8001
-11.6765
-11.569
-11.4783
-11.4011
-11.3396
-11.2908
-11.2622
-11.2388
-11.2354
-11.2422
-11.2622
-11.2935
-11.3348
-11.3823
-11.4431
-11.4947
-36.9917
-37.0702
-37.1598
-37.2223
-37.2666
-37.2912
-37.2948
-37.2771
-37.2395
-37.1755
-37.09
-36.9802
-36.8502
-36.6949
-36.5201
-36.3204
-36.1013
-35.8615
-35.6028
-35.3226
-35.0252
-34.7095
-34.3748
-34.0259
-33.6574
-33.2754
-32.8778
-32.4654
-32.0378
-31.5942
-31.1398
-30.6723
-30.1885
-29.6944
-29.1848
-28.662
-28.1301
-27.5848
-27.0232
-26.4518
-25.8652
-25.27
-24.6605
-24.0389
-23.4054
-22.7595
-22.0976
-21.4279
-20.7463
-20.05
-19.3437
-18.6268
-17.8965
-17.1589
-16.4074
-15.6498
-14.8857
-14.1095
-13.3273
-12.5393
-11.7478
-10.9518
-10.1518
-9.35054
-8.55108
-7.75386
-6.95707
-6.17037
-5.38866
-4.61475
-3.85329
-3.10408
-2.37422
-1.65783
-0.963084
-0.289677
0.357813
0.979139
1.57172
2.13003
2.65515
3.14867
3.60034
4.01085
4.3782
4.70282
4.97914
5.21079
5.38793
5.51765
5.59346
5.61622
5.58604
5.50158
5.36086
5.16259
4.91077
4.60709
4.24581
3.83414
3.36645
2.84822
2.28352
1.66999
1.01194
0.309986
-0.430178
-1.2108
-2.02252
-2.8661
-3.73855
-4.63214
-5.54556
-6.48064
-7.41958
-8.37228
-9.32714
-10.2822
-11.2315
-12.1705
-13.0982
-14.0101
-14.8993
-15.7648
-16.6029
-17.4064
-18.1775
-18.9089
-19.598
-20.2455
-20.8481
-21.402
-21.9061
-22.3587
-22.7629
-23.1137
-23.4131
-23.6578
-23.8507
-23.9929
-24.0839
-24.1282
-24.1223
-24.0732
-23.9788
-23.8423
-23.6678
-23.4548
-23.2086
-22.9339
-22.6295
-22.299
-21.9467
-21.5776
-21.1858
-20.7853
-20.3734
-19.9553
-19.5301
-19.1009
-18.675
-18.2466
-17.8225
-17.408
-16.9957
-16.5955
-16.2061
-15.8274
-15.4608
-15.1097
-14.7716
-14.4502
-14.1433
-13.8505
-13.5743
-13.3177
-13.0741
-12.8478
-12.6368
-12.4408
-12.2628
-12.0993
-11.9525
-11.8182
-11.7005
-11.5991
-11.5087
-11.4352
-11.3755
-11.3275
-11.2972
-11.2778
-11.2724
-11.2761
-11.294
-11.3273
-11.367
-11.4213
-11.4892
-11.5475
-36.9645
-37.051
-37.1462
-37.2153
-37.2614
-37.2868
-37.2886
-37.2727
-37.232
-37.1672
-37.0841
-36.9755
-36.8455
-36.6936
-36.5204
-36.3249
-36.1108
-35.8775
-35.6235
-35.353
-35.0602
-34.755
-34.4295
-34.0859
-33.7316
-33.3571
-32.9712
-32.5687
-32.1558
-31.7248
-31.2815
-30.8249
-30.3575
-29.8754
-29.3788
-28.8715
-28.3504
-27.818
-27.2721
-26.7153
-26.1432
-25.5607
-24.9637
-24.351
-23.7305
-23.0951
-22.4487
-21.7892
-21.1156
-20.4325
-19.7346
-19.0245
-18.3052
-17.5738
-16.8321
-16.0782
-15.3172
-14.5453
-13.767
-12.9812
-12.1885
-11.3915
-10.592
-9.7868
-8.98367
-8.17973
-7.38131
-6.58426
-5.79554
-5.0119
-4.23947
-3.47862
-2.73231
-2.00311
-1.29386
-0.604932
0.06045
0.699443
1.30923
1.8905
2.43824
2.9496
3.42279
3.85477
4.24845
4.59254
4.89394
5.1465
5.35285
5.50593
5.60438
5.65123
5.64532
5.58351
5.46605
5.29363
5.06239
4.7794
4.44091
4.04747
3.60313
3.10648
2.55656
1.96202
1.3245
0.638314
-0.086697
-0.852183
-1.65229
-2.47891
-3.33736
-4.2239
-5.12665
-6.05049
-6.98465
-7.92542
-8.87388
-9.82321
-10.7671
-11.7019
-12.626
-13.5332
-14.4219
-15.2859
-16.1219
-16.9252
-17.6955
-18.4285
-19.1197
-19.7689
-20.3712
-20.9275
-21.4346
-21.892
-22.2961
-22.6528
-22.9554
-23.2043
-23.4034
-23.551
-23.6474
-23.6972
-23.6969
-23.6547
-23.5689
-23.4405
-23.2707
-23.0677
-22.8321
-22.5625
-22.2694
-21.9452
-21.6045
-21.2433
-20.8659
-20.4754
-20.075
-19.6654
-19.2519
-18.8367
-18.4202
-18.0074
-17.5963
-17.1927
-16.797
-16.4069
-16.0296
-15.6636
-15.3146
-14.9707
-14.6467
-14.3369
-14.0427
-13.7619
-13.4977
-13.2491
-13.0163
-12.8001
-12.5997
-12.4136
-12.2423
-12.0877
-11.9445
-11.8197
-11.7064
-11.6081
-11.5237
-11.4511
-11.3936
-11.3476
-11.3165
-11.2974
-11.2918
-11.2972
-11.3153
-11.3473
-11.3919
-11.4453
-11.5205
-11.5851
-36.9611
-37.0517
-37.1554
-37.2276
-37.2767
-37.3026
-37.3057
-37.2886
-37.2473
-37.1833
-37.0979
-36.9906
-36.8621
-36.7134
-36.5421
-36.3517
-36.1424
-35.9119
-35.663
-35.3975
-35.1155
-34.8128
-34.4976
-34.166
-33.817
-33.4579
-33.0807
-32.6906
-32.286
-31.8681
-31.4366
-30.993
-30.5351
-30.0655
-29.5842
-29.0882
-28.5805
-28.0589
-27.5292
-26.9814
-26.4233
-25.853
-25.2678
-24.6723
-24.0623
-23.4377
-22.8024
-22.1518
-21.488
-20.8136
-20.1253
-19.4254
-18.7088
-17.9828
-17.2452
-16.4961
-15.7371
-14.9692
-14.1892
-13.4028
-12.6102
-11.8099
-11.0042
-10.1993
-9.38784
-8.5751
-7.76684
-6.96291
-6.15856
-5.36143
-4.57825
-3.80157
-3.03876
-2.29484
-1.56418
-0.856746
-0.169225
0.48813
1.12464
1.72485
2.29734
2.82944
3.3289
3.78529
4.20227
4.57432
4.90146
5.17936
5.41095
5.58974
5.71395
5.78654
5.8036
5.76818
5.67252
5.5241
5.31685
5.05508
4.73873
4.36627
3.93954
3.45944
2.93098
2.35373
1.72932
1.05759
0.345726
-0.402928
-1.19273
-2.01304
-2.86047
-3.73707
-4.63163
-5.54644
-6.47541
-7.41333
-8.35947
-9.30346
-10.2468
-11.1821
-12.1076
-13.0157
-13.9034
-14.7672
-15.6069
-16.4133
-17.1874
-17.9218
-18.6201
-19.271
-19.881
-20.4435
-20.9555
-21.4196
-21.8321
-22.1916
-22.4995
-22.7529
-22.9593
-23.1168
-23.2184
-23.2733
-23.2834
-23.2462
-23.1681
-23.0453
-22.8833
-22.6901
-22.4602
-22.1973
-21.9123
-21.6014
-21.2665
-20.9148
-20.5465
-20.1681
-19.776
-19.379
-18.9742
-18.5674
-18.166
-17.761
-17.3623
-16.9696
-16.5836
-16.2086
-15.8427
-15.4922
-15.1491
-14.8221
-14.5087
-14.21
-13.9275
-13.656
-13.404
-13.1652
-12.9442
-12.7358
-12.5461
-12.3687
-12.2065
-12.0582
-11.9234
-11.8024
-11.6948
-11.602
-11.5212
-11.4518
-11.3978
-11.3528
-11.3241
-11.3043
-11.2987
-11.3036
-11.3239
-11.3522
-11.3964
-11.4561
-11.5337
-11.6044
-36.9852
-37.0837
-37.1904
-37.2636
-37.3132
-37.3429
-37.3431
-37.3264
-37.2854
-37.2196
-37.1355
-37.0295
-36.9012
-36.7531
-36.5844
-36.3975
-36.1883
-35.965
-35.7221
-35.4612
-35.1844
-34.8926
-34.5813
-34.259
-33.9214
-33.5689
-33.2019
-32.8215
-32.4272
-32.019
-31.6
-31.1689
-30.7251
-30.2656
-29.7973
-29.3161
-28.819
-28.3133
-27.7915
-27.2588
-26.7116
-26.1527
-25.5791
-24.9959
-24.3943
-23.7816
-23.1545
-22.5136
-21.8601
-21.1929
-20.5094
-19.8148
-19.1057
-18.3843
-17.651
-16.9004
-16.1443
-15.3742
-14.5953
-13.8067
-13.0065
-12.201
-11.3893
-10.5744
-9.75356
-8.93348
-8.11096
-7.28966
-6.47446
-5.66381
-4.86045
-4.06567
-3.28445
-2.51669
-1.76827
-1.03681
-0.326024
0.358187
1.01504
1.64473
2.24052
2.80253
3.32886
3.81435
4.25891
4.65805
5.01235
5.31951
5.577
5.78415
5.9365
6.03342
6.07473
6.06474
5.99687
5.8682
5.68696
5.44616
5.15102
4.79755
4.39041
3.93175
3.41791
2.85553
2.2447
1.58888
0.886698
0.14685
-0.629113
-1.44058
-2.28381
-3.15346
-4.04406
-4.95793
-5.8837
-6.82095
-7.76475
-8.71263
-9.65276
-10.5925
-11.5202
-12.4318
-13.3241
-14.1977
-15.0391
-15.8541
-16.6339
-17.3763
-18.0815
-18.7419
-19.361
-19.93
-20.4507
-20.9242
-21.3436
-21.7146
-22.0309
-22.299
-22.5114
-22.6745
-22.7847
-22.8497
-22.8679
-22.8382
-22.7646
-22.6508
-22.5018
-22.3116
-22.0924
-21.8401
-21.5616
-21.259
-20.9345
-20.5892
-20.2295
-19.8576
-19.4749
-19.0908
-18.6945
-18.2973
-17.9027
-17.5086
-17.1209
-16.7382
-16.3664
-16.0009
-15.647
-15.3035
-14.9751
-14.6591
-14.3558
-14.0672
-13.7961
-13.5365
-13.2961
-13.0658
-12.8542
-12.6579
-12.4752
-12.3082
-12.1535
-12.0094
-11.8838
-11.7705
-11.6693
-11.5793
-11.5052
-11.439
-11.3862
-11.3451
-11.3141
-11.2977
-11.2903
-11.2992
-11.3153
-11.3461
-11.3893
-11.4502
-11.5346
-11.6053
-37.0427
-37.1396
-37.2498
-37.3256
-37.3741
-37.4015
-37.404
-37.3865
-37.3441
-37.279
-37.1944
-37.0867
-36.9608
-36.8123
-36.646
-36.4628
-36.2578
-36.0376
-35.798
-35.5411
-35.2717
-34.986
-34.6849
-34.3682
-34.0377
-33.6931
-33.3376
-32.9671
-32.582
-32.185
-31.7783
-31.3552
-30.9241
-30.4767
-30.0201
-29.5474
-29.0648
-28.57
-28.06
-27.5394
-27.0039
-26.4564
-25.8956
-25.3166
-24.7261
-24.1243
-23.5042
-22.8725
-22.2249
-21.5642
-20.8858
-20.1961
-19.4925
-18.7711
-18.0362
-17.2895
-16.5293
-15.7553
-14.9735
-14.1772
-13.3733
-12.5585
-11.7352
-10.9092
-10.0762
-9.2416
-8.40246
-7.56644
-6.73137
-5.9015
-5.07904
-4.25862
-3.45478
-2.66226
-1.88878
-1.13
-0.393755
0.320162
1.0051
1.66306
2.29025
2.88021
3.43506
3.95322
4.42776
4.85837
5.24382
5.58032
5.86749
6.10144
6.28256
6.4102
6.47862
6.49044
6.4514
6.34885
6.18928
5.97016
5.69468
5.36212
4.97323
4.53209
4.03314
3.4863
2.88836
2.2421
1.55306
0.819514
0.0517566
-0.755767
-1.59307
-2.45723
-3.3502
-4.26009
-5.18709
-6.12698
-7.0729
-8.02279
-8.97037
-9.91589
-10.8514
-11.7702
-12.6728
-13.5518
-14.4062
-15.2318
-16.0224
-16.7783
-17.4929
-18.1656
-18.7969
-19.3777
-19.9103
-20.3949
-20.8284
-21.2127
-21.5409
-21.8172
-22.0414
-22.2175
-22.3411
-22.415
-22.4411
-22.4233
-22.3624
-22.2598
-22.1156
-21.9374
-21.7243
-21.481
-21.2112
-20.915
-20.6009
-20.2641
-19.914
-19.5512
-19.1747
-18.7969
-18.4107
-18.0237
-17.6387
-17.2571
-16.8782
-16.5036
-16.1398
-15.7844
-15.4421
-15.1094
-14.7892
-14.4829
-14.1926
-13.9146
-13.6515
-13.4055
-13.1727
-12.955
-12.753
-12.5638
-12.3895
-12.2291
-12.0849
-11.9517
-11.8312
-11.7244
-11.6296
-11.5421
-11.4712
-11.4106
-11.359
-11.3214
-11.2928
-11.2754
-11.2693
-11.2749
-11.2921
-11.3239
-11.3699
-11.4274
-11.5138
-11.5822
-37.1265
-37.2252
-37.3386
-37.4109
-37.4594
-37.4874
-37.4884
-37.4678
-37.4234
-37.3574
-37.273
-37.1682
-37.0382
-36.8938
-36.7281
-36.5462
-36.3435
-36.1279
-35.8914
-35.6409
-35.3753
-35.0937
-34.801
-34.4927
-34.1689
-33.835
-33.4839
-33.1244
-32.7485
-32.3641
-31.9643
-31.5562
-31.1322
-30.698
-30.2472
-29.7903
-29.3167
-28.8343
-28.3353
-27.8225
-27.2986
-26.7608
-26.2088
-25.6395
-25.0608
-24.4624
-23.8511
-23.2253
-22.5823
-21.9229
-21.2517
-20.5616
-19.858
-19.1351
-18.4007
-17.6499
-16.8872
-16.1087
-15.3158
-14.5154
-13.6986
-12.872
-12.0368
-11.1924
-10.3457
-9.49352
-8.63579
-7.77679
-6.92003
-6.0654
-5.21619
-4.37205
-3.54088
-2.72061
-1.91469
-1.12842
-0.359426
0.385633
1.10386
1.79381
2.45199
3.07988
3.6696
4.21736
4.72489
5.19053
5.60778
5.97493
6.29349
6.55971
6.77083
6.92862
7.02622
7.06585
7.04932
6.97278
6.83799
6.64119
6.38853
6.07642
5.70268
5.27618
4.79323
4.26016
3.6745
3.03696
2.35682
1.63221
0.866159
0.0651993
-0.771612
-1.6355
-2.52663
-3.44016
-4.3699
-5.31258
-6.26781
-7.22597
-8.18168
-9.13616
-10.083
-11.0124
-11.9277
-12.8218
-13.6896
-14.5279
-15.335
-16.1052
-16.8397
-17.527
-18.1731
-18.7708
-19.3232
-19.8231
-20.2712
-20.6682
-21.0129
-21.3052
-21.5491
-21.7348
-21.8722
-21.9601
-21.9993
-21.9957
-21.9451
-21.8536
-21.7223
-21.5547
-21.3505
-21.1205
-20.858
-20.5727
-20.2662
-19.9386
-19.5967
-19.2397
-18.874
-18.5044
-18.1275
-17.7503
-17.3721
-16.9994
-16.6276
-16.266
-15.9106
-15.564
-15.2301
-14.9037
-14.5981
-14.2997
-14.019
-13.7494
-13.497
-13.261
-13.0389
-12.8293
-12.6365
-12.4568
-12.2914
-12.1394
-12.0035
-11.8749
-11.7642
-11.6629
-11.5709
-11.493
-11.4248
-11.3664
-11.3203
-11.2833
-11.2548
-11.24
-11.2356
-11.2391
-11.2566
-11.2879
-11.3293
-11.3888
-11.4689
-11.5404
-37.2425
-37.3416
-37.4485
-37.5211
-37.5716
-37.594
-37.5934
-37.57
-37.5257
-37.4592
-37.3707
-37.2642
-37.1358
-36.9915
-36.8273
-36.6437
-36.4495
-36.2321
-36.0034
-35.7549
-35.4932
-35.2185
-34.9335
-34.6288
-34.3138
-33.9864
-33.6452
-33.293
-32.9278
-32.5509
-32.1611
-31.7615
-31.3465
-30.9226
-30.4853
-30.0348
-29.5723
-29.0979
-28.6093
-28.1085
-27.5917
-27.0619
-26.5186
-25.9596
-25.3833
-24.7914
-24.1863
-23.563
-22.9244
-22.27
-21.5963
-20.908
-20.2023
-19.4784
-18.7408
-17.9821
-17.209
-16.4226
-15.6213
-14.8054
-13.9747
-13.1337
-12.2847
-11.421
-10.5524
-9.67485
-8.79544
-7.91211
-7.02556
-6.14847
-5.2667
-4.39561
-3.53203
-2.6768
-1.83796
-1.0141
-0.212095
0.569702
1.32345
2.05157
2.7452
3.41056
4.03565
4.62182
5.16935
5.66433
6.12113
6.52388
6.87601
7.17354
7.4183
7.60463
7.73373
7.80664
7.8131
7.76209
7.65075
7.47772
7.24286
6.95135
6.59775
6.1878
5.72004
5.19739
4.61983
3.99471
3.31871
2.60149
1.84068
1.03928
0.204403
-0.664832
-1.55655
-2.47881
-3.41131
-4.36452
-5.329
-6.29749
-7.26683
-8.23531
-9.19536
-10.1423
-11.0755
-11.987
-12.8708
-13.73
-14.5542
-15.346
-16.0985
-16.8106
-17.4752
-18.0958
-18.6668
-19.1874
-19.6579
-20.0762
-20.4412
-20.7523
-21.0136
-21.2184
-21.3745
-21.4797
-21.5379
-21.5444
-21.5107
-21.431
-21.3143
-21.1604
-20.97
-20.7499
-20.4999
-20.225
-19.927
-19.6109
-19.2745
-18.9313
-18.5753
-18.2111
-17.8436
-17.4746
-17.1063
-16.7386
-16.3778
-16.0227
-15.6774
-15.3388
-15.012
-14.6956
-14.3981
-14.1105
-13.8381
-13.5789
-13.3372
-13.1067
-12.892
-12.6947
-12.5099
-12.338
-12.1821
-12.0361
-11.9089
-11.7888
-11.6818
-11.5867
-11.5019
-11.4267
-11.365
-11.3097
-11.2647
-11.231
-11.2059
-11.1898
-11.1872
-11.1888
-11.2055
-11.2352
-11.2753
-11.3326
-11.4101
-11.4788
-37.3919
-37.4843
-37.5892
-37.66
-37.7057
-37.7248
-37.7213
-37.6957
-37.6487
-37.5803
-37.4919
-37.385
-37.2556
-37.1082
-36.9465
-36.7678
-36.5685
-36.3567
-36.1294
-35.8868
-35.6294
-35.3588
-35.0767
-34.7801
-34.471
-34.1505
-33.8164
-33.4719
-33.1143
-32.7469
-32.3656
-31.9739
-31.5701
-31.1547
-30.7262
-30.2861
-29.8321
-29.3646
-28.8874
-28.3932
-27.8853
-27.3604
-26.8228
-26.2696
-25.6993
-25.1143
-24.5097
-23.8892
-23.2515
-22.5936
-21.9219
-21.2291
-20.5177
-19.7878
-19.0392
-18.2745
-17.4928
-16.693
-15.8763
-15.0436
-14.196
-13.3367
-12.4634
-11.5766
-10.6823
-9.78109
-8.87186
-7.95867
-7.04333
-6.12871
-5.21363
-4.30685
-3.40713
-2.51959
-1.64043
-0.779043
0.063825
0.884907
1.68242
2.44874
3.18436
3.88793
4.55531
5.18089
5.76755
6.30533
6.79669
7.23827
7.62862
7.96183
8.23955
8.4577
8.61879
8.71771
8.75838
8.7333
8.64541
8.49646
8.28381
8.01055
7.67271
7.27957
6.82468
6.31502
5.74991
5.13038
4.45932
3.74411
2.98564
2.18574
1.3465
0.473832
-0.426528
-1.35161
-2.29956
-3.26267
-4.23732
-5.22232
-6.20808
-7.19313
-8.16982
-9.14056
-10.0919
-11.0271
-11.9335
-12.8168
-13.6673
-14.4839
-15.2627
-15.9978
-16.6882
-17.3377
-17.9345
-18.4828
-18.9768
-19.4184
-19.8081
-20.1448
-20.4261
-20.6553
-20.8342
-20.9589
-21.0367
-21.0682
-21.0469
-20.9901
-20.8913
-20.7493
-20.5739
-20.3671
-20.1302
-19.8699
-19.5822
-19.2748
-18.9521
-18.6186
-18.2737
-17.9192
-17.5599
-17.1985
-16.8364
-16.4794
-16.1261
-15.7798
-15.441
-15.1126
-14.794
-14.4887
-14.195
-13.9169
-13.6518
-13.4021
-13.1662
-12.9447
-12.7408
-12.5486
-12.3723
-12.211
-12.0623
-11.9255
-11.8019
-11.69
-11.5888
-11.5005
-11.4221
-11.3522
-11.2935
-11.2391
-11.1987
-11.1677
-11.1418
-11.1271
-11.1213
-11.1271
-11.1416
-11.1686
-11.2065
-11.2585
-11.3308
-11.3956
-37.5656
-37.6553
-37.7556
-37.8214
-37.8623
-37.8804
-37.8719
-37.8425
-37.7935
-37.7218
-37.6306
-37.5214
-37.3923
-37.2448
-37.0838
-36.9042
-36.7069
-36.4963
-36.2708
-36.031
-35.7789
-35.5154
-35.2341
-34.9438
-34.642
-34.3264
-34.002
-33.6606
-33.3124
-32.9507
-32.579
-32.1955
-31.7962
-31.3899
-30.9699
-30.5375
-30.0916
-29.6312
-29.1605
-28.674
-28.1706
-27.6532
-27.1192
-26.5678
-26.0031
-25.4175
-24.8169
-24.1936
-23.5544
-22.8954
-22.2162
-21.5176
-20.7981
-20.0596
-19.301
-18.522
-17.7258
-16.9075
-16.0724
-15.2198
-14.3503
-13.4663
-12.5653
-11.6539
-10.7295
-9.79497
-8.85365
-7.90563
-6.95254
-6.00066
-5.04702
-4.10309
-3.15767
-2.22698
-1.30677
-0.402761
0.486365
1.35191
2.19169
3.00463
3.78706
4.53512
5.24504
5.91828
6.54187
7.12387
7.65709
8.13812
8.5659
8.936
9.25222
9.50636
9.69829
9.8305
9.89731
9.90018
9.84108
9.71397
9.5229
9.26748
8.95228
8.56975
8.13075
7.63042
7.07447
6.46092
5.79647
5.08069
4.32295
3.51793
2.67612
1.79818
0.887415
-0.049933
-1.00628
-1.9865
-2.97889
-3.98145
-4.98862
-5.9949
-6.99555
-7.99085
-8.96738
-9.92628
-10.8639
-11.776
-12.6573
-13.5019
-14.3113
-15.0808
-15.8015
-16.4804
-17.1082
-17.6865
-18.2137
-18.6874
-19.1087
-19.4727
-19.7845
-20.0421
-20.2451
-20.3985
-20.4973
-20.5503
-20.5574
-20.5192
-20.4373
-20.3178
-20.1599
-19.9719
-19.751
-19.5006
-19.2297
-18.9381
-18.6289
-18.3042
-17.9692
-17.6228
-17.276
-16.9235
-16.5709
-16.22
-15.8775
-15.5382
-15.2049
-14.8867
-14.5768
-14.2755
-13.9914
-13.7193
-13.4629
-13.2189
-12.9954
-12.7828
-12.5809
-12.4009
-12.2318
-12.0762
-11.9347
-11.8047
-11.6861
-11.5803
-11.4895
-11.4031
-11.3307
-11.2626
-11.2076
-11.1575
-11.1196
-11.0895
-11.0685
-11.0523
-11.047
-11.0507
-11.0644
-11.0878
-11.1228
-11.1706
-11.2357
-11.2959
-37.7701
-37.8549
-37.9499
-38.0074
-38.0433
-38.0562
-38.0442
-38.0128
-37.9575
-37.8833
-37.7908
-37.6782
-37.5478
-37.3986
-37.236
-37.0582
-36.8623
-36.6537
-36.4293
-36.1947
-35.9451
-35.6813
-35.4079
-35.1215
-34.8233
-34.5128
-34.1936
-33.8623
-33.5183
-33.1643
-32.7989
-32.4208
-32.0321
-31.6304
-31.2187
-30.7911
-30.3514
-29.8979
-29.4317
-28.9475
-28.4478
-27.9338
-27.4018
-26.8539
-26.2867
-25.7027
-25.0971
-24.4722
-23.8298
-23.1621
-22.4746
-21.7665
-21.0389
-20.2859
-19.5108
-18.7149
-17.8992
-17.0611
-16.2022
-15.3248
-14.4269
-13.513
-12.5825
-11.6368
-10.6781
-9.70638
-8.72642
-7.73791
-6.74588
-5.74928
-4.75172
-3.75685
-2.77027
-1.7918
-0.823577
0.131879
1.06648
1.98202
2.87215
3.73341
4.56533
5.36067
6.11859
6.83573
7.51045
8.13766
8.71535
9.23771
9.70777
10.119
10.4732
10.7624
10.9896
11.1547
11.2529
11.2856
11.2502
11.1479
10.9814
10.7473
10.444
10.0789
9.65165
9.16074
8.61209
8.00643
7.34279
6.62973
5.86722
5.05897
4.20913
3.32242
2.39928
1.45085
0.473273
-0.523763
-1.53708
-2.5602
-3.59044
-4.62139
-5.65288
-6.6737
-7.68131
-8.67512
-9.64589
-10.5918
-11.5068
-12.3895
-13.2322
-14.0368
-14.7973
-15.5137
-16.1807
-16.7952
-17.3572
-17.8692
-18.3232
-18.7249
-19.0691
-19.3593
-19.5941
-19.7816
-19.9122
-19.9931
-20.0253
-20.0107
-19.9561
-19.8602
-19.7244
-19.5559
-19.3539
-19.1214
-18.8671
-18.5922
-18.2965
-17.9841
-17.662
-17.3285
-16.9892
-16.6499
-16.3083
-15.965
-15.6309
-15.301
-14.9744
-14.6619
-14.3584
-14.0676
-13.7913
-13.5256
-13.2755
-13.0401
-12.8224
-12.616
-12.4238
-12.2473
-12.0856
-11.9366
-11.7995
-11.6785
-11.565
-11.4648
-11.3778
-11.2978
-11.2264
-11.1664
-11.1156
-11.0699
-11.0354
-11.003
-10.9811
-10.9661
-10.9622
-10.9608
-10.9717
-10.9931
-11.0227
-11.0659
-11.1245
-11.1776
-38.0032
-38.0838
-38.1671
-38.2222
-38.2495
-38.2571
-38.24
-38.2005
-38.1451
-38.067
-37.9696
-37.8543
-37.721
-37.5723
-37.4097
-37.227
-37.0347
-36.8272
-36.6062
-36.3703
-36.1226
-35.8649
-35.5925
-35.3112
-35.0184
-34.7129
-34.3977
-34.0692
-33.7343
-33.3834
-33.0231
-32.6508
-32.2678
-31.8735
-31.4636
-31.042
-30.6072
-30.1567
-29.6908
-29.2112
-28.7169
-28.2037
-27.6709
-27.1217
-26.5509
-25.9634
-25.3526
-24.7208
-24.07
-23.3953
-22.6943
-21.9721
-21.2267
-20.4549
-19.6609
-18.8453
-18.0061
-17.1409
-16.2552
-15.3454
-14.4182
-13.468
-12.4982
-11.5147
-10.5182
-9.50243
-8.47878
-7.44544
-6.40457
-5.35927
-4.3138
-3.26811
-2.22852
-1.1959
-0.17322
0.832872
1.82156
2.79431
3.73697
4.65309
5.53514
6.38567
7.19522
7.96395
8.6886
9.36227
9.98908
10.5564
11.0708
11.5257
11.917
12.2461
12.513
12.7093
12.8402
12.9006
12.8953
12.8169
12.6717
12.4578
12.1734
11.8222
11.4067
10.9245
10.383
9.7753
9.11906
8.40342
7.63686
6.82185
5.96222
5.06557
4.12833
3.1607
2.16606
1.14707
0.108678
-0.941132
-1.99636
-3.06125
-4.12329
-5.17545
-6.22232
-7.25249
-8.26275
-9.24412
-10.2019
-11.1253
-12.0141
-12.8581
-13.6655
-14.4206
-15.1331
-15.7914
-16.3973
-16.9507
-17.4452
-17.8906
-18.2743
-18.6068
-18.8785
-19.101
-19.2674
-19.3853
-19.4488
-19.4678
-19.4393
-19.3702
-19.261
-19.1157
-18.9374
-18.7293
-18.4935
-18.2339
-17.9582
-17.6621
-17.3528
-17.035
-16.7084
-16.3757
-16.0445
-15.714
-15.3853
-15.0622
-14.7486
-14.4444
-14.1469
-13.8619
-13.5904
-13.3363
-13.0916
-12.8651
-12.6474
-12.447
-12.2638
-12.092
-11.9382
-11.7933
-11.6648
-11.5463
-11.4403
-11.3456
-11.2613
-11.1854
-11.1208
-11.0622
-11.014
-10.9707
-10.9362
-10.9076
-10.8859
-10.8731
-10.8655
-10.8632
-10.8714
-10.8882
-10.911
-10.9468
-10.998
-11.0441
-38.2653
-38.3361
-38.4116
-38.4581
-38.4793
-38.4801
-38.4559
-38.4124
-38.349
-38.2664
-38.1657
-38.0498
-37.9137
-37.7638
-37.5964
-37.4155
-37.222
-37.0162
-36.7959
-36.563
-36.316
-36.06
-35.7923
-35.5119
-35.2221
-34.921
-34.6088
-34.2863
-33.9533
-33.6076
-33.2522
-32.8851
-32.5062
-32.1141
-31.7089
-31.2896
-30.8573
-30.4099
-29.9461
-29.4654
-28.9696
-28.4538
-27.9179
-27.366
-26.7916
-26.1927
-25.5748
-24.935
-24.2682
-23.5784
-22.8617
-22.1241
-21.3592
-20.5645
-19.748
-18.9041
-18.034
-17.137
-16.2183
-15.275
-14.306
-13.3165
-12.3061
-11.2774
-10.231
-9.1701
-8.09386
-7.011
-5.91485
-4.81632
-3.71398
-2.61227
-1.51378
-0.423958
0.656046
1.72313
2.77114
3.79832
4.80337
5.77685
6.71789
7.62443
8.49213
9.3146
10.092
10.8184
11.4933
12.1116
12.6721
13.1687
13.604
13.9734
14.2762
14.5119
14.6741
14.7649
14.7883
14.7345
14.6134
14.4156
14.149
13.8136
13.4079
12.9355
12.3972
11.7974
11.1371
10.4198
9.64555
8.82239
7.95336
7.03724
6.08588
5.0998
4.07962
3.03638
1.97309
0.893092
-0.199016
-1.29486
-2.39248
-3.4892
-4.5743
-5.64472
-6.6969
-7.72871
-8.73188
-9.70219
-10.6388
-11.5345
-12.387
-13.1968
-13.9554
-14.6659
-15.3215
-15.9198
-16.4701
-16.958
-17.3909
-17.768
-18.0867
-18.3492
-18.5592
-18.7148
-18.8185
-18.8738
-18.8819
-18.845
-18.7669
-18.6528
-18.499
-18.3152
-18.1024