/*--------------------------------*- C++ -*----------------------------------*\
  =========                 |
  \\      /  F ield         | OpenFOAM: The Open Source CFD Toolbox
   \\    /   O peration     | Website:  https://openfoam.org
    \\  /    A nd           | Version:  6
     \\/     M anipulation  |
\*---------------------------------------------------------------------------*/
FoamFile
{
    version     2.0;
    format      ascii;
    class       volScalarField;
    location    "0";
    object      p_rgh;
}
// * * * * * * * * * * * * * * * * * * * * * * * * * * * * * * * * * * * * * //

dimensions      [0 2 -2 0 0 0 0];

internalField   nonuniform List<scalar> 
10000
(
0.0049161
0.00489659
0.00488691
0.00488151
0.00487773
0.00487477
0.00487236
0.00487031
0.00486854
0.00486696
0.00486556
0.00486428
0.00486311
0.00486203
0.00486103
0.0048601
0.00485923
0.00485841
0.00485763
0.00485689
0.00485619
0.00485552
0.00485488
0.00485427
0.00485368
0.00485311
0.00485256
0.00485203
0.00485152
0.00485102
0.00485054
0.00485007
0.00484961
0.00484917
0.00484873
0.0048483
0.00484788
0.00484747
0.00484707
0.00484667
0.00484628
0.0048459
0.00484552
0.00484514
0.00484477
0.0048444
0.00484404
0.00484367
0.00484331
0.00484295
0.00484259
0.00484223
0.00484186
0.0048415
0.00484113
0.00484076
0.00484039
0.00484002
0.00483964
0.00483925
0.00483886
0.00483847
0.00483807
0.00483766
0.00483724
0.00483681
0.00483638
0.00483593
0.00483548
0.00483501
0.00483453
0.00483403
0.00483352
0.00483299
0.00483245
0.00483188
0.0048313
0.00483069
0.00483005
0.00482938
0.00482868
0.00482795
0.00482718
0.00482636
0.00482549
0.00482456
0.00482356
0.00482249
0.00482132
0.00482005
0.00481864
0.00481707
0.00481529
0.00481324
0.00481082
0.00480786
0.00480406
0.00479858
0.00478881
0.00476929
0.00492621
0.00489489
0.00488499
0.00488034
0.00487703
0.00487434
0.00487206
0.0048701
0.00486837
0.00486684
0.00486545
0.00486419
0.00486304
0.00486197
0.00486098
0.00486006
0.00485919
0.00485837
0.0048576
0.00485686
0.00485616
0.0048555
0.00485486
0.00485425
0.00485366
0.00485309
0.00485255
0.00485202
0.00485151
0.00485101
0.00485053
0.00485006
0.0048496
0.00484916
0.00484872
0.00484829
0.00484788
0.00484746
0.00484706
0.00484667
0.00484628
0.00484589
0.00484551
0.00484514
0.00484477
0.0048444
0.00484403
0.00484367
0.00484331
0.00484295
0.00484259
0.00484223
0.00484186
0.0048415
0.00484113
0.00484077
0.0048404
0.00484002
0.00483964
0.00483926
0.00483887
0.00483847
0.00483807
0.00483766
0.00483725
0.00483682
0.00483638
0.00483594
0.00483548
0.00483502
0.00483454
0.00483404
0.00483353
0.00483301
0.00483246
0.0048319
0.00483132
0.00483071
0.00483007
0.00482941
0.00482871
0.00482798
0.00482721
0.0048264
0.00482553
0.00482461
0.00482362
0.00482256
0.00482141
0.00482015
0.00481877
0.00481724
0.00481551
0.00481355
0.00481127
0.00480858
0.00480525
0.00480056
0.00479056
0.00475918
0.00494128
0.00489415
0.00488258
0.00487856
0.00487583
0.00487351
0.00487146
0.00486965
0.00486802
0.00486656
0.00486523
0.00486401
0.00486288
0.00486184
0.00486086
0.00485995
0.0048591
0.00485829
0.00485753
0.0048568
0.00485611
0.00485544
0.00485481
0.0048542
0.00485362
0.00485306
0.00485251
0.00485199
0.00485148
0.00485099
0.00485051
0.00485004
0.00484958
0.00484914
0.00484871
0.00484828
0.00484786
0.00484745
0.00484705
0.00484665
0.00484627
0.00484588
0.0048455
0.00484513
0.00484476
0.00484439
0.00484403
0.00484367
0.00484331
0.00484295
0.00484259
0.00484223
0.00484187
0.0048415
0.00484114
0.00484077
0.0048404
0.00484003
0.00483965
0.00483927
0.00483888
0.00483848
0.00483808
0.00483768
0.00483726
0.00483683
0.0048364
0.00483596
0.0048355
0.00483504
0.00483456
0.00483407
0.00483356
0.00483304
0.0048325
0.00483194
0.00483136
0.00483075
0.00483012
0.00482946
0.00482877
0.00482805
0.00482729
0.00482648
0.00482563
0.00482472
0.00482375
0.00482271
0.00482159
0.00482038
0.00481905
0.00481758
0.00481596
0.00481415
0.00481211
0.00480979
0.00480706
0.00480302
0.00479139
0.0047442
0.00495864
0.00489437
0.00488026
0.00487655
0.00487434
0.00487241
0.00487063
0.00486901
0.00486751
0.00486615
0.00486489
0.00486372
0.00486264
0.00486163
0.00486069
0.0048598
0.00485896
0.00485817
0.00485742
0.0048567
0.00485602
0.00485536
0.00485474
0.00485414
0.00485356
0.004853
0.00485246
0.00485194
0.00485144
0.00485095
0.00485047
0.00485001
0.00484955
0.00484911
0.00484868
0.00484826
0.00484784
0.00484743
0.00484703
0.00484664
0.00484625
0.00484587
0.00484549
0.00484512
0.00484475
0.00484439
0.00484403
0.00484366
0.0048433
0.00484295
0.00484259
0.00484223
0.00484187
0.00484151
0.00484114
0.00484078
0.00484041
0.00484004
0.00483966
0.00483928
0.00483889
0.0048385
0.0048381
0.0048377
0.00483728
0.00483686
0.00483643
0.00483599
0.00483554
0.00483507
0.0048346
0.00483411
0.00483361
0.00483309
0.00483255
0.004832
0.00483142
0.00483082
0.0048302
0.00482955
0.00482887
0.00482816
0.00482741
0.00482662
0.00482579
0.0048249
0.00482396
0.00482295
0.00482187
0.00482071
0.00481946
0.00481809
0.0048166
0.00481498
0.00481321
0.00481128
0.00480907
0.00480536
0.00479123
0.00472691
0.0049772
0.00489529
0.0048782
0.00487457
0.00487276
0.00487117
0.00486966
0.00486823
0.00486688
0.00486563
0.00486445
0.00486335
0.00486233
0.00486136
0.00486045
0.00485959
0.00485878
0.00485801
0.00485727
0.00485657
0.0048559
0.00485526
0.00485464
0.00485405
0.00485348
0.00485293
0.0048524
0.00485188
0.00485138
0.00485089
0.00485042
0.00484996
0.00484951
0.00484908
0.00484865
0.00484822
0.00484781
0.00484741
0.00484701
0.00484662
0.00484623
0.00484585
0.00484548
0.00484511
0.00484474
0.00484438
0.00484402
0.00484366
0.0048433
0.00484294
0.00484259
0.00484223
0.00484187
0.00484151
0.00484115
0.00484079
0.00484042
0.00484005
0.00483968
0.0048393
0.00483891
0.00483852
0.00483813
0.00483772
0.00483731
0.00483689
0.00483646
0.00483603
0.00483558
0.00483512
0.00483465
0.00483417
0.00483367
0.00483316
0.00483262
0.00483208
0.00483151
0.00483092
0.00483031
0.00482967
0.004829
0.0048283
0.00482757
0.0048268
0.00482599
0.00482513
0.00482423
0.00482327
0.00482224
0.00482115
0.00481998
0.00481872
0.00481738
0.00481595
0.00481444
0.00481286
0.00481105
0.00480742
0.00479032
0.00470837
0.00499651
0.00489674
0.00487644
0.00487271
0.00487119
0.00486989
0.00486861
0.00486736
0.00486616
0.00486502
0.00486394
0.00486292
0.00486195
0.00486103
0.00486016
0.00485934
0.00485855
0.00485781
0.00485709
0.00485641
0.00485575
0.00485513
0.00485452
0.00485394
0.00485338
0.00485284
0.00485231
0.0048518
0.00485131
0.00485083
0.00485036
0.00484991
0.00484946
0.00484903
0.0048486
0.00484819
0.00484778
0.00484737
0.00484698
0.00484659
0.00484621
0.00484583
0.00484546
0.00484509
0.00484473
0.00484437
0.00484401
0.00484365
0.0048433
0.00484294
0.00484259
0.00484223
0.00484188
0.00484152
0.00484116
0.0048408
0.00484044
0.00484007
0.0048397
0.00483932
0.00483894
0.00483855
0.00483816
0.00483776
0.00483735
0.00483694
0.00483651
0.00483608
0.00483563
0.00483518
0.00483472
0.00483424
0.00483375
0.00483324
0.00483272
0.00483218
0.00483162
0.00483104
0.00483044
0.00482981
0.00482916
0.00482848
0.00482777
0.00482702
0.00482624
0.00482542
0.00482455
0.00482364
0.00482268
0.00482166
0.00482058
0.00481944
0.00481825
0.00481701
0.00481573
0.00481442
0.00481291
0.00480917
0.00478888
0.00468907
0.00501634
0.0048986
0.00487496
0.00487099
0.00486968
0.00486861
0.00486753
0.00486645
0.00486539
0.00486436
0.00486337
0.00486243
0.00486152
0.00486066
0.00485983
0.00485904
0.00485829
0.00485757
0.00485688
0.00485622
0.00485558
0.00485497
0.00485438
0.00485381
0.00485326
0.00485273
0.00485221
0.00485171
0.00485122
0.00485075
0.00485029
0.00484984
0.0048494
0.00484897
0.00484855
0.00484814
0.00484773
0.00484733
0.00484694
0.00484656
0.00484618
0.00484581
0.00484544
0.00484507
0.00484471
0.00484435
0.004844
0.00484365
0.00484329
0.00484294
0.00484259
0.00484224
0.00484189
0.00484153
0.00484118
0.00484082
0.00484046
0.00484009
0.00483972
0.00483935
0.00483897
0.00483859
0.0048382
0.0048378
0.0048374
0.00483699
0.00483657
0.00483614
0.0048357
0.00483525
0.00483479
0.00483432
0.00483384
0.00483334
0.00483282
0.00483229
0.00483175
0.00483118
0.00483059
0.00482998
0.00482935
0.00482869
0.004828
0.00482728
0.00482653
0.00482575
0.00482493
0.00482407
0.00482317
0.00482222
0.00482124
0.00482022
0.00481916
0.00481808
0.00481701
0.00481593
0.00481462
0.00481066
0.00478703
0.00466925
0.00503651
0.00490076
0.0048737
0.00486943
0.00486826
0.00486736
0.00486645
0.00486551
0.00486458
0.00486366
0.00486276
0.00486189
0.00486105
0.00486024
0.00485946
0.00485872
0.004858
0.00485731
0.00485664
0.004856
0.00485539
0.00485479
0.00485422
0.00485366
0.00485312
0.0048526
0.0048521
0.0048516
0.00485113
0.00485066
0.00485021
0.00484976
0.00484933
0.00484891
0.00484849
0.00484808
0.00484768
0.00484729
0.0048469
0.00484652
0.00484615
0.00484578
0.00484541
0.00484505
0.00484469
0.00484434
0.00484399
0.00484364
0.00484329
0.00484294
0.00484259
0.00484224
0.00484189
0.00484154
0.00484119
0.00484084
0.00484048
0.00484012
0.00483975
0.00483938
0.00483901
0.00483863
0.00483824
0.00483785
0.00483745
0.00483704
0.00483663
0.00483621
0.00483578
0.00483533
0.00483488
0.00483442
0.00483394
0.00483345
0.00483295
0.00483243
0.00483189
0.00483134
0.00483077
0.00483018
0.00482956
0.00482893
0.00482826
0.00482758
0.00482686
0.00482612
0.00482534
0.00482454
0.0048237
0.00482283
0.00482194
0.00482102
0.00482009
0.00481916
0.00481825
0.00481735
0.00481618
0.00481192
0.00478487
0.00464907
0.00505696
0.00490316
0.00487263
0.00486801
0.00486692
0.00486617
0.00486539
0.00486458
0.00486376
0.00486294
0.00486213
0.00486133
0.00486055
0.0048598
0.00485907
0.00485836
0.00485768
0.00485702
0.00485638
0.00485576
0.00485517
0.00485459
0.00485403
0.00485349
0.00485297
0.00485246
0.00485197
0.00485148
0.00485101
0.00485056
0.00485011
0.00484968
0.00484925
0.00484884
0.00484843
0.00484802
0.00484763
0.00484724
0.00484686
0.00484648
0.00484611
0.00484574
0.00484538
0.00484503
0.00484467
0.00484432
0.00484397
0.00484363
0.00484328
0.00484294
0.00484259
0.00484225
0.0048419
0.00484156
0.00484121
0.00484086
0.0048405
0.00484015
0.00483978
0.00483942
0.00483905
0.00483867
0.00483829
0.00483791
0.00483751
0.00483711
0.0048367
0.00483629
0.00483586
0.00483543
0.00483498
0.00483453
0.00483406
0.00483358
0.00483309
0.00483258
0.00483206
0.00483152
0.00483097
0.00483039
0.0048298
0.00482919
0.00482855
0.0048279
0.00482722
0.00482651
0.00482579
0.00482503
0.00482426
0.00482347
0.00482266
0.00482184
0.00482102
0.00482021
0.00481944
0.00481868
0.0048176
0.00481299
0.00478248
0.00462863
0.0050776
0.00490574
0.00487172
0.00486671
0.00486568
0.00486503
0.00486437
0.00486367
0.00486294
0.00486221
0.00486147
0.00486075
0.00486003
0.00485933
0.00485864
0.00485798
0.00485733
0.0048567
0.00485609
0.0048555
0.00485493
0.00485437
0.00485383
0.00485331
0.0048528
0.00485231
0.00485182
0.00485135
0.00485089
0.00485045
0.00485001
0.00484958
0.00484916
0.00484875
0.00484835
0.00484796
0.00484757
0.00484718
0.0048468
0.00484643
0.00484607
0.00484571
0.00484535
0.004845
0.00484465
0.0048443
0.00484396
0.00484362
0.00484327
0.00484293
0.00484259
0.00484225
0.00484191
0.00484157
0.00484123
0.00484088
0.00484053
0.00484018
0.00483982
0.00483946
0.0048391
0.00483873
0.00483835
0.00483797
0.00483758
0.00483718
0.00483678
0.00483637
0.00483596
0.00483553
0.0048351
0.00483465
0.00483419
0.00483373
0.00483324
0.00483275
0.00483224
0.00483172
0.00483118
0.00483063
0.00483006
0.00482947
0.00482887
0.00482824
0.0048276
0.00482693
0.00482625
0.00482556
0.00482484
0.00482412
0.00482339
0.00482265
0.00482193
0.00482124
0.00482057
0.00481992
0.0048189
0.0048139
0.0047799
0.00460799
0.0050984
0.00490847
0.00487094
0.00486551
0.00486452
0.00486396
0.00486338
0.00486277
0.00486213
0.00486148
0.00486081
0.00486015
0.00485949
0.00485884
0.0048582
0.00485758
0.00485697
0.00485637
0.00485579
0.00485523
0.00485468
0.00485414
0.00485362
0.00485311
0.00485262
0.00485214
0.00485167
0.00485121
0.00485076
0.00485032
0.0048499
0.00484948
0.00484907
0.00484867
0.00484827
0.00484788
0.0048475
0.00484712
0.00484675
0.00484638
0.00484602
0.00484567
0.00484531
0.00484497
0.00484462
0.00484428
0.00484394
0.0048436
0.00484327
0.00484293
0.0048426
0.00484226
0.00484192
0.00484159
0.00484125
0.0048409
0.00484056
0.00484021
0.00483986
0.00483951
0.00483915
0.00483878
0.00483841
0.00483804
0.00483765
0.00483727
0.00483687
0.00483647
0.00483606
0.00483564
0.00483522
0.00483478
0.00483434
0.00483388
0.00483341
0.00483293
0.00483244
0.00483194
0.00483142
0.00483089
0.00483034
0.00482978
0.0048292
0.0048286
0.004828
0.00482737
0.00482674
0.00482609
0.00482544
0.00482477
0.00482411
0.00482346
0.00482282
0.00482222
0.00482164
0.00482108
0.00482009
0.00481468
0.00477716
0.00458718
0.00511933
0.00491133
0.00487027
0.00486442
0.00486343
0.00486294
0.00486244
0.00486191
0.00486134
0.00486075
0.00486016
0.00485955
0.00485895
0.00485834
0.00485775
0.00485716
0.00485659
0.00485602
0.00485547
0.00485493
0.00485441
0.00485389
0.00485339
0.0048529
0.00485242
0.00485196
0.0048515
0.00485105
0.00485062
0.00485019
0.00484977
0.00484937
0.00484896
0.00484857
0.00484818
0.0048478
0.00484742
0.00484705
0.00484669
0.00484633
0.00484597
0.00484562
0.00484528
0.00484493
0.00484459
0.00484426
0.00484392
0.00484359
0.00484326
0.00484293
0.0048426
0.00484227
0.00484194
0.0048416
0.00484127
0.00484093
0.00484059
0.00484025
0.0048399
0.00483956
0.0048392
0.00483884
0.00483848
0.00483811
0.00483773
0.00483735
0.00483697
0.00483657
0.00483617
0.00483577
0.00483535
0.00483492
0.00483449
0.00483405
0.00483359
0.00483313
0.00483265
0.00483216
0.00483167
0.00483115
0.00483063
0.00483009
0.00482954
0.00482898
0.00482841
0.00482783
0.00482724
0.00482664
0.00482603
0.00482543
0.00482483
0.00482425
0.00482369
0.00482315
0.00482266
0.00482216
0.00482119
0.00481534
0.00477431
0.00456625
0.00514038
0.00491429
0.0048697
0.0048634
0.00486242
0.00486198
0.00486154
0.00486107
0.00486057
0.00486004
0.0048595
0.00485895
0.0048584
0.00485784
0.00485729
0.00485674
0.0048562
0.00485566
0.00485514
0.00485463
0.00485412
0.00485363
0.00485315
0.00485268
0.00485222
0.00485177
0.00485132
0.00485089
0.00485047
0.00485005
0.00484964
0.00484925
0.00484885
0.00484847
0.00484809
0.00484771
0.00484734
0.00484698
0.00484662
0.00484627
0.00484592
0.00484557
0.00484523
0.0048449
0.00484456
0.00484423
0.0048439
0.00484358
0.00484325
0.00484293
0.0048426
0.00484228
0.00484195
0.00484162
0.00484129
0.00484096
0.00484063
0.00484029
0.00483995
0.00483961
0.00483926
0.00483891
0.00483855
0.00483819
0.00483782
0.00483745
0.00483707
0.00483669
0.00483629
0.0048359
0.00483549
0.00483508
0.00483465
0.00483422
0.00483378
0.00483333
0.00483287
0.0048324
0.00483192
0.00483143
0.00483093
0.00483042
0.0048299
0.00482937
0.00482883
0.00482829
0.00482774
0.00482718
0.00482663
0.00482608
0.00482554
0.00482502
0.00482452
0.00482405
0.00482362
0.00482318
0.0048222
0.00481592
0.00477135
0.0045452
0.00516151
0.00491734
0.00486921
0.00486246
0.00486147
0.00486107
0.00486069
0.00486027
0.00485982
0.00485935
0.00485886
0.00485836
0.00485785
0.00485733
0.00485682
0.0048563
0.0048558
0.0048553
0.0048548
0.00485431
0.00485383
0.00485336
0.0048529
0.00485245
0.004852
0.00485157
0.00485114
0.00485072
0.0048503
0.0048499
0.00484951
0.00484912
0.00484874
0.00484836
0.00484799
0.00484762
0.00484726
0.0048469
0.00484655
0.0048462
0.00484586
0.00484552
0.00484519
0.00484486
0.00484453
0.00484421
0.00484388
0.00484356
0.00484324
0.00484292
0.0048426
0.00484228
0.00484196
0.00484164
0.00484132
0.00484099
0.00484067
0.00484034
0.00484
0.00483966
0.00483932
0.00483898
0.00483863
0.00483827
0.00483791
0.00483755
0.00483718
0.0048368
0.00483642
0.00483603
0.00483564
0.00483524
0.00483483
0.00483441
0.00483398
0.00483355
0.00483311
0.00483266
0.0048322
0.00483173
0.00483125
0.00483076
0.00483027
0.00482977
0.00482927
0.00482876
0.00482824
0.00482773
0.00482723
0.00482672
0.00482624
0.00482577
0.00482532
0.0048249
0.00482452
0.00482413
0.00482314
0.00481641
0.0047683
0.00452407
0.00518272
0.00492047
0.00486879
0.00486159
0.00486057
0.00486021
0.00485987
0.0048595
0.0048591
0.00485867
0.00485823
0.00485777
0.0048573
0.00485683
0.00485635
0.00485587
0.00485539
0.00485492
0.00485445
0.00485399
0.00485353
0.00485308
0.00485264
0.00485221
0.00485178
0.00485136
0.00485094
0.00485054
0.00485014
0.00484975
0.00484936
0.00484898
0.00484861
0.00484824
0.00484788
0.00484752
0.00484717
0.00484682
0.00484648
0.00484614
0.0048458
0.00484547
0.00484514
0.00484482
0.0048445
0.00484418
0.00484386
0.00484355
0.00484323
0.00484292
0.00484261
0.00484229
0.00484198
0.00484166
0.00484135
0.00484103
0.00484071
0.00484038
0.00484005
0.00483972
0.00483939
0.00483905
0.00483871
0.00483836
0.00483801
0.00483765
0.00483729
0.00483693
0.00483656
0.00483618
0.00483579
0.0048354
0.00483501
0.0048346
0.00483419
0.00483377
0.00483335
0.00483291
0.00483247
0.00483203
0.00483157
0.00483111
0.00483065
0.00483018
0.0048297
0.00482923
0.00482875
0.00482828
0.00482781
0.00482735
0.00482691
0.00482649
0.00482609
0.00482572
0.00482538
0.00482502
0.00482401
0.00481682
0.00476518
0.00450285
0.00520399
0.00492366
0.00486843
0.00486077
0.00485973
0.0048594
0.00485909
0.00485876
0.0048584
0.00485802
0.00485761
0.00485719
0.00485676
0.00485632
0.00485588
0.00485543
0.00485498
0.00485454
0.0048541
0.00485366
0.00485322
0.00485279
0.00485237
0.00485196
0.00485155
0.00485114
0.00485074
0.00485035
0.00484996
0.00484958
0.00484921
0.00484884
0.00484848
0.00484813
0.00484777
0.00484742
0.00484708
0.00484674
0.0048464
0.00484607
0.00484574
0.00484541
0.00484509
0.00484478
0.00484446
0.00484415
0.00484384
0.00484353
0.00484322
0.00484292
0.00484261
0.0048423
0.00484199
0.00484168
0.00484137
0.00484106
0.00484075
0.00484043
0.00484011
0.00483979
0.00483946
0.00483913
0.00483879
0.00483845
0.00483811
0.00483776
0.00483741
0.00483706
0.0048367
0.00483633
0.00483596
0.00483558
0.0048352
0.0048348
0.00483441
0.004834
0.0048336
0.00483318
0.00483276
0.00483233
0.0048319
0.00483147
0.00483103
0.00483058
0.00483014
0.00482969
0.00482925
0.00482882
0.00482839
0.00482797
0.00482757
0.00482718
0.00482682
0.0048265
0.00482619
0.00482586
0.00482483
0.00481718
0.00476199
0.00448157
0.00522533
0.0049269
0.00486813
0.00486
0.00485893
0.00485862
0.00485835
0.00485805
0.00485773
0.00485738
0.00485701
0.00485662
0.00485623
0.00485582
0.00485541
0.00485499
0.00485457
0.00485416
0.00485374
0.00485332
0.00485291
0.0048525
0.0048521
0.0048517
0.00485131
0.00485092
0.00485053
0.00485015
0.00484978
0.00484941
0.00484905
0.0048487
0.00484835
0.004848
0.00484766
0.00484732
0.00484698
0.00484665
0.00484632
0.00484599
0.00484567
0.00484536
0.00484504
0.00484473
0.00484442
0.00484412
0.00484382
0.00484351
0.00484321
0.00484291
0.00484261
0.00484231
0.00484201
0.00484171
0.0048414
0.0048411
0.00484079
0.00484048
0.00484017
0.00483985
0.00483953
0.00483921
0.00483888
0.00483855
0.00483822
0.00483788
0.00483754
0.00483719
0.00483684
0.00483649
0.00483613
0.00483576
0.00483539
0.00483501
0.00483463
0.00483424
0.00483385
0.00483345
0.00483305
0.00483265
0.00483224
0.00483182
0.00483141
0.00483099
0.00483058
0.00483016
0.00482975
0.00482935
0.00482895
0.00482857
0.0048282
0.00482786
0.00482753
0.00482724
0.00482697
0.00482666
0.0048256
0.00481748
0.00475874
0.00446023
0.00524672
0.0049302
0.00486788
0.00485927
0.00485817
0.00485788
0.00485764
0.00485737
0.00485708
0.00485676
0.00485642
0.00485607
0.0048557
0.00485533
0.00485495
0.00485456
0.00485416
0.00485377
0.00485338
0.00485299
0.00485259
0.00485221
0.00485182
0.00485144
0.00485106
0.00485069
0.00485032
0.00484996
0.0048496
0.00484924
0.00484889
0.00484855
0.00484821
0.00484787
0.00484754
0.00484721
0.00484688
0.00484656
0.00484623
0.00484592
0.0048456
0.00484529
0.00484499
0.00484469
0.00484439
0.00484409
0.00484379
0.0048435
0.0048432
0.00484291
0.00484262
0.00484232
0.00484203
0.00484173
0.00484144
0.00484114
0.00484084
0.00484054
0.00484023
0.00483992
0.00483961
0.00483929
0.00483898
0.00483865
0.00483833
0.004838
0.00483767
0.00483733
0.00483699
0.00483665
0.0048363
0.00483595
0.00483559
0.00483523
0.00483486
0.00483449
0.00483411
0.00483373
0.00483335
0.00483296
0.00483257
0.00483218
0.00483179
0.0048314
0.00483101
0.00483063
0.00483024
0.00482987
0.00482951
0.00482916
0.00482882
0.00482851
0.00482821
0.00482795
0.0048277
0.00482742
0.00482632
0.00481774
0.00475545
0.00443884
0.00526815
0.00493355
0.00486767
0.00485859
0.00485746
0.00485718
0.00485696
0.00485672
0.00485645
0.00485616
0.00485585
0.00485553
0.00485519
0.00485484
0.00485449
0.00485412
0.00485376
0.00485339
0.00485302
0.00485265
0.00485228
0.00485191
0.00485154
0.00485118
0.00485082
0.00485046
0.0048501
0.00484975
0.00484941
0.00484906
0.00484873
0.00484839
0.00484807
0.00484774
0.00484742
0.00484709
0.00484678
0.00484646
0.00484615
0.00484584
0.00484553
0.00484523
0.00484493
0.00484464
0.00484434
0.00484405
0.00484377
0.00484348
0.00484319
0.00484291
0.00484262
0.00484233
0.00484205
0.00484176
0.00484147
0.00484118
0.00484089
0.00484059
0.00484029
0.00483999
0.00483969
0.00483938
0.00483907
0.00483876
0.00483844
0.00483812
0.0048378
0.00483747
0.00483715
0.00483681
0.00483648
0.00483614
0.00483579
0.00483544
0.00483509
0.00483473
0.00483438
0.00483401
0.00483365
0.00483328
0.00483291
0.00483254
0.00483218
0.00483181
0.00483144
0.00483108
0.00483073
0.00483038
0.00483005
0.00482973
0.00482942
0.00482913
0.00482887
0.00482863
0.00482841
0.00482813
0.004827
0.00481795
0.00475211
0.00441741
0.00528962
0.00493693
0.00486749
0.00485795
0.00485677
0.00485651
0.00485631
0.00485609
0.00485584
0.00485558
0.0048553
0.004855
0.00485469
0.00485437
0.00485403
0.0048537
0.00485335
0.00485301
0.00485266
0.00485231
0.00485195
0.0048516
0.00485126
0.00485091
0.00485057
0.00485022
0.00484988
0.00484954
0.00484921
0.00484888
0.00484856
0.00484824
0.00484792
0.0048476
0.00484729
0.00484698
0.00484667
0.00484636
0.00484606
0.00484576
0.00484546
0.00484517
0.00484488
0.00484459
0.0048443
0.00484402
0.00484374
0.00484346
0.00484318
0.0048429
0.00484262
0.00484234
0.00484206
0.00484178
0.0048415
0.00484122
0.00484094
0.00484065
0.00484036
0.00484007
0.00483977
0.00483947
0.00483917
0.00483887
0.00483856
0.00483825
0.00483794
0.00483762
0.0048373
0.00483698
0.00483666
0.00483633
0.004836
0.00483566
0.00483533
0.00483499
0.00483464
0.0048343
0.00483395
0.0048336
0.00483325
0.00483291
0.00483256
0.00483221
0.00483187
0.00483154
0.00483121
0.00483089
0.00483058
0.00483028
0.00483
0.00482974
0.0048295
0.00482928
0.00482908
0.00482882
0.00482765
0.00481812
0.00474873
0.00439593
0.00531113
0.00494035
0.00486736
0.00485733
0.00485612
0.00485587
0.00485568
0.00485548
0.00485526
0.00485502
0.00485476
0.00485448
0.00485419
0.0048539
0.00485359
0.00485327
0.00485295
0.00485263
0.0048523
0.00485197
0.00485163
0.0048513
0.00485097
0.00485064
0.00485031
0.00484998
0.00484966
0.00484933
0.00484901
0.0048487
0.00484838
0.00484808
0.00484777
0.00484746
0.00484716
0.00484686
0.00484656
0.00484626
0.00484597
0.00484567
0.00484538
0.0048451
0.00484482
0.00484454
0.00484426
0.00484398
0.00484371
0.00484344
0.00484317
0.0048429
0.00484263
0.00484236
0.00484208
0.00484181
0.00484154
0.00484126
0.00484099
0.00484071
0.00484043
0.00484014
0.00483985
0.00483956
0.00483927
0.00483898
0.00483868
0.00483838
0.00483808
0.00483777
0.00483747
0.00483716
0.00483684
0.00483653
0.00483621
0.00483589
0.00483557
0.00483524
0.00483491
0.00483458
0.00483425
0.00483392
0.00483359
0.00483327
0.00483294
0.00483261
0.0048323
0.00483198
0.00483168
0.00483138
0.00483109
0.00483082
0.00483056
0.00483032
0.0048301
0.0048299
0.00482972
0.00482947
0.00482826
0.00481826
0.00474531
0.00437442
0.00533267
0.0049438
0.00486725
0.00485675
0.00485549
0.00485525
0.00485508
0.0048549
0.00485469
0.00485447
0.00485423
0.00485398
0.00485371
0.00485344
0.00485315
0.00485285
0.00485255
0.00485225
0.00485194
0.00485163
0.00485131
0.004851
0.00485068
0.00485037
0.00485006
0.00484974
0.00484943
0.00484912
0.00484881
0.00484851
0.00484821
0.00484791
0.00484762
0.00484732
0.00484703
0.00484674
0.00484644
0.00484616
0.00484587
0.00484559
0.00484531
0.00484503
0.00484476
0.00484448
0.00484422
0.00484395
0.00484368
0.00484342
0.00484316
0.00484289
0.00484263
0.00484237
0.0048421
0.00484184
0.00484157
0.00484131
0.00484104
0.00484077
0.00484049
0.00484022
0.00483994
0.00483966
0.00483937
0.00483909
0.0048388
0.00483851
0.00483822
0.00483793
0.00483763
0.00483733
0.00483703
0.00483673
0.00483642
0.00483612
0.00483581
0.0048355
0.00483518
0.00483487
0.00483456
0.00483425
0.00483393
0.00483362
0.00483332
0.00483301
0.00483271
0.00483242
0.00483214
0.00483186
0.00483159
0.00483134
0.00483111
0.00483088
0.00483068
0.0048305
0.00483033
0.00483009
0.00482884
0.00481837
0.00474186
0.00435288
0.00535424
0.00494728
0.00486717
0.0048562
0.0048549
0.00485466
0.0048545
0.00485434
0.00485415
0.00485394
0.00485372
0.00485349
0.00485324
0.00485299
0.00485272
0.00485244
0.00485216
0.00485188
0.00485158
0.00485129
0.00485099
0.00485069
0.0048504
0.0048501
0.0048498
0.0048495
0.0048492
0.00484891
0.00484861
0.00484832
0.00484803
0.00484775
0.00484746
0.00484718
0.00484689
0.00484661
0.00484633
0.00484605
0.00484577
0.0048455
0.00484523
0.00484496
0.00484469
0.00484443
0.00484417
0.00484391
0.00484366
0.0048434
0.00484314
0.00484289
0.00484263
0.00484238
0.00484212
0.00484187
0.00484161
0.00484135
0.00484109
0.00484083
0.00484056
0.0048403
0.00484003
0.00483976
0.00483948
0.0048392
0.00483893
0.00483865
0.00483836
0.00483808
0.0048378
0.00483751
0.00483722
0.00483693
0.00483664
0.00483635
0.00483605
0.00483575
0.00483546
0.00483516
0.00483486
0.00483457
0.00483427
0.00483398
0.00483369
0.0048334
0.00483312
0.00483285
0.00483259
0.00483233
0.00483208
0.00483185
0.00483163
0.00483143
0.00483125
0.00483108
0.00483093
0.00483069
0.0048294
0.00481845
0.00473838
0.0043313
0.00537584
0.00495078
0.00486712
0.00485567
0.00485432
0.00485409
0.00485395
0.00485379
0.00485362
0.00485343
0.00485323
0.00485301
0.00485278
0.00485254
0.00485229
0.00485204
0.00485177
0.00485151
0.00485123
0.00485095
0.00485067
0.00485039
0.00485011
0.00484983
0.00484954
0.00484926
0.00484897
0.00484869
0.00484841
0.00484813
0.00484785
0.00484758
0.0048473
0.00484703
0.00484676
0.00484648
0.00484621
0.00484594
0.00484568
0.00484541
0.00484515
0.00484489
0.00484463
0.00484438
0.00484412
0.00484387
0.00484363
0.00484338
0.00484313
0.00484289
0.00484264
0.00484239
0.00484215
0.0048419
0.00484165
0.0048414
0.00484115
0.00484089
0.00484064
0.00484038
0.00484012
0.00483985
0.00483959
0.00483932
0.00483905
0.00483878
0.00483851
0.00483824
0.00483797
0.00483769
0.00483742
0.00483714
0.00483686
0.00483658
0.00483629
0.00483601
0.00483573
0.00483545
0.00483517
0.00483489
0.00483461
0.00483433
0.00483406
0.00483379
0.00483353
0.00483327
0.00483303
0.00483279
0.00483256
0.00483235
0.00483214
0.00483196
0.00483179
0.00483164
0.00483149
0.00483126
0.00482993
0.0048185
0.00473488
0.0043097
0.00539746
0.00495431
0.00486709
0.00485516
0.00485377
0.00485354
0.00485341
0.00485327
0.00485311
0.00485294
0.00485275
0.00485255
0.00485233
0.00485211
0.00485188
0.00485164
0.00485139
0.00485114
0.00485088
0.00485062
0.00485036
0.00485009
0.00484982
0.00484955
0.00484928
0.00484901
0.00484874
0.00484847
0.0048482
0.00484793
0.00484767
0.00484741
0.00484714
0.00484688
0.00484662
0.00484636
0.00484609
0.00484583
0.00484558
0.00484532
0.00484507
0.00484481
0.00484457
0.00484432
0.00484408
0.00484384
0.0048436
0.00484336
0.00484312
0.00484288
0.00484264
0.0048424
0.00484217
0.00484193
0.00484169
0.00484144
0.0048412
0.00484096
0.00484071
0.00484046
0.00484021
0.00483995
0.0048397
0.00483944
0.00483918
0.00483892
0.00483866
0.0048384
0.00483814
0.00483788
0.00483761
0.00483735
0.00483708
0.00483681
0.00483654
0.00483627
0.004836
0.00483573
0.00483547
0.0048352
0.00483494
0.00483468
0.00483443
0.00483417
0.00483393
0.00483369
0.00483346
0.00483324
0.00483303
0.00483283
0.00483264
0.00483247
0.00483231
0.00483217
0.00483204
0.00483182
0.00483043
0.00481853
0.00473135
0.00428808
0.0054191
0.00495786
0.00486708
0.00485467
0.00485324
0.00485301
0.00485289
0.00485276
0.00485261
0.00485245
0.00485228
0.00485209
0.0048519
0.00485169
0.00485147
0.00485125
0.00485102
0.00485078
0.00485054
0.00485029
0.00485004
0.00484979
0.00484954
0.00484928
0.00484903
0.00484877
0.00484851
0.00484825
0.00484799
0.00484774
0.00484749
0.00484723
0.00484698
0.00484673
0.00484648
0.00484623
0.00484597
0.00484572
0.00484547
0.00484523
0.00484498
0.00484474
0.0048445
0.00484426
0.00484403
0.0048438
0.00484357
0.00484334
0.00484311
0.00484288
0.00484265
0.00484242
0.00484219
0.00484196
0.00484173
0.00484149
0.00484126
0.00484102
0.00484078
0.00484054
0.0048403
0.00484006
0.00483981
0.00483956
0.00483931
0.00483906
0.00483881
0.00483856
0.00483831
0.00483806
0.00483781
0.00483755
0.0048373
0.00483704
0.00483678
0.00483653
0.00483627
0.00483602
0.00483577
0.00483552
0.00483527
0.00483503
0.00483479
0.00483455
0.00483432
0.0048341
0.00483388
0.00483368
0.00483348
0.0048333
0.00483313
0.00483297
0.00483282
0.00483269
0.00483257
0.00483235
0.00483092
0.00481854
0.0047278
0.00426643
0.00544077
0.00496144
0.0048671
0.0048542
0.00485272
0.0048525
0.00485239
0.00485227
0.00485213
0.00485198
0.00485182
0.00485165
0.00485147
0.00485127
0.00485107
0.00485086
0.00485065
0.00485042
0.0048502
0.00484997
0.00484973
0.00484949
0.00484925
0.00484901
0.00484877
0.00484853
0.00484828
0.00484803
0.00484779
0.00484754
0.0048473
0.00484706
0.00484682
0.00484658
0.00484634
0.0048461
0.00484585
0.00484561
0.00484537
0.00484513
0.0048449
0.00484467
0.00484443
0.00484421
0.00484398
0.00484376
0.00484353
0.00484331
0.00484309
0.00484287
0.00484265
0.00484243
0.00484221
0.00484199
0.00484176
0.00484154
0.00484132
0.00484109
0.00484086
0.00484063
0.00484039
0.00484016
0.00483992
0.00483968
0.00483944
0.0048392
0.00483896
0.00483872
0.00483848
0.00483824
0.004838
0.00483776
0.00483752
0.00483727
0.00483703
0.00483679
0.00483655
0.00483631
0.00483607
0.00483583
0.0048356
0.00483537
0.00483514
0.00483492
0.00483471
0.0048345
0.0048343
0.00483411
0.00483393
0.00483375