/*--------------------------------*- C++ -*----------------------------------*\
  =========                 |
  \\      /  F ield         | OpenFOAM: The Open Source CFD Toolbox
   \\    /   O peration     | Website:  https://openfoam.org
    \\  /    A nd           | Version:  6
     \\/     M anipulation  |
\*---------------------------------------------------------------------------*/
FoamFile
{
    version     2.0;
    format      ascii;
    class       volScalarField;
    location    "0";
    object      p;
}
// * * * * * * * * * * * * * * * * * * * * * * * * * * * * * * * * * * * * * //

dimensions      [0 2 -2 0 0 0 0];

internalField   nonuniform List<scalar> 
40000
(
0.0159738
0.015974
0.0159737
0.0159722
0.0159697
0.0159663
0.015962
0.0159571
0.0159516
0.0159457
0.0159394
0.015933
0.0159264
0.0159198
0.0159131
0.0159065
0.0159
0.0158935
0.0158872
0.015881
0.015875
0.0158691
0.0158634
0.0158578
0.0158524
0.0158472
0.0158421
0.0158372
0.0158324
0.0158277
0.0158232
0.0158188
0.0158145
0.0158104
0.0158063
0.0158024
0.0157986
0.015795
0.0157914
0.015788
0.0157848
0.0157816
0.0157787
0.0157758
0.0157731
0.0157706
0.0157683
0.0157662
0.0157643
0.0157625
0.0157611
0.0157598
0.0157588
0.015758
0.0157576
0.0157574
0.0157575
0.0157579
0.0157587
0.0157598
0.0157612
0.015763
0.0157652
0.0157678
0.0157708
0.0157742
0.015778
0.0157822
0.0157869
0.015792
0.0157975
0.0158036
0.01581
0.015817
0.0158244
0.0158323
0.0158406
0.0158495
0.0158587
0.0158685
0.0158787
0.0158893
0.0159003
0.0159118
0.0159237
0.015936
0.0159486
0.0159615
0.0159748
0.0159884
0.0160023
0.0160163
0.0160306
0.016045
0.0160596
0.0160742
0.0160889
0.0161036
0.0161182
0.0161327
0.0161471
0.0161613
0.0161752
0.0161888
0.016202
0.0162148
0.0162271
0.0162389
0.01625
0.0162605
0.0162703
0.0162793
0.0162875
0.0162948
0.0163012
0.0163065
0.0163109
0.0163141
0.0163162
0.0163171
0.0163169
0.0163154
0.0163126
0.0163085
0.0163031
0.0162964
0.0162884
0.0162789
0.0162682
0.0162561
0.0162427
0.0162279
0.0162119
0.0161946
0.016176
0.0161562
0.0161353
0.0161132
0.01609
0.0160658
0.0160407
0.0160146
0.0159877
0.0159599
0.0159315
0.0159024
0.0158728
0.0158426
0.015812
0.0157811
0.0157498
0.0157184
0.0156868
0.0156552
0.0156236
0.0155921
0.0155607
0.0155296
0.0154988
0.0154683
0.0154382
0.0154087
0.0153797
0.0153512
0.0153234
0.0152964
0.01527
0.0152445
0.0152198
0.0151959
0.015173
0.015151
0.01513
0.0151099
0.015091
0.0150731
0.0150562
0.0150405
0.0150259
0.0150125
0.0150002
0.0149892
0.0149793
0.0149706
0.0149632
0.014957
0.014952
0.0149482
0.0149457
0.0149443
0.014944
0.0149448
0.0149465
0.0149491
0.0149523
0.014956
0.0149597
0.0149631
0.0149656
0.0149667
0.0159735
0.0159738
0.0159734
0.0159721
0.0159697
0.0159665
0.0159625
0.0159579
0.0159528
0.0159473
0.0159414
0.0159353
0.0159291
0.0159228
0.0159164
0.0159101
0.0159038
0.0158976
0.0158915
0.0158855
0.0158797
0.0158739
0.0158684
0.0158629
0.0158576
0.0158525
0.0158475
0.0158426
0.0158379
0.0158333
0.0158288
0.0158244
0.0158202
0.0158161
0.0158121
0.0158082
0.0158044
0.0158008
0.0157973
0.0157939
0.0157906
0.0157875
0.0157845
0.0157817
0.015779
0.0157765
0.0157742
0.0157721
0.0157702
0.0157684
0.0157669
0.0157657
0.0157647
0.0157639
0.0157634
0.0157632
0.0157633
0.0157637
0.0157644
0.0157654
0.0157668
0.0157686
0.0157707
0.0157732
0.0157761
0.0157794
0.0157831
0.0157872
0.0157918
0.0157968
0.0158022
0.0158081
0.0158145
0.0158212
0.0158285
0.0158362
0.0158444
0.015853
0.0158621
0.0158716
0.0158816
0.0158919
0.0159027
0.015914
0.0159256
0.0159375
0.0159499
0.0159625
0.0159755
0.0159888
0.0160023
0.016016
0.0160299
0.016044
0.0160582
0.0160724
0.0160867
0.016101
0.0161152
0.0161293
0.0161433
0.0161571
0.0161706
0.0161837
0.0161966
0.0162089
0.0162208
0.0162322
0.016243
0.0162531
0.0162625
0.0162712
0.016279
0.0162859
0.016292
0.016297
0.016301
0.016304
0.0163058
0.0163065
0.016306
0.0163043
0.0163014
0.0162971
0.0162916
0.0162848
0.0162767
0.0162672
0.0162565
0.0162444
0.016231
0.0162163
0.0162004
0.0161832
0.0161647
0.0161451
0.0161244
0.0161025
0.0160796
0.0160557
0.0160309
0.0160051
0.0159785
0.0159512
0.0159231
0.0158944
0.0158652
0.0158354
0.0158053
0.0157748
0.015744
0.015713
0.0156819
0.0156508
0.0156197
0.0155886
0.0155578
0.0155271
0.0154968
0.0154668
0.0154372
0.0154081
0.0153795
0.0153515
0.0153242
0.0152975
0.0152716
0.0152465
0.0152221
0.0151986
0.0151761
0.0151544
0.0151337
0.015114
0.0150953
0.0150777
0.0150611
0.0150456
0.0150312
0.0150179
0.0150058
0.0149949
0.0149851
0.0149764
0.014969
0.0149628
0.0149577
0.0149538
0.014951
0.0149494
0.0149488
0.0149492
0.0149505
0.0149526
0.0149553
0.0149584
0.0149616
0.0149645
0.0149667
0.0149679
0.0159739
0.0159741
0.0159738
0.0159724
0.0159703
0.0159673
0.0159636
0.0159594
0.0159547
0.0159495
0.0159441
0.0159385
0.0159326
0.0159267
0.0159207
0.0159147
0.0159088
0.0159028
0.015897
0.0158912
0.0158856
0.0158801
0.0158747
0.0158694
0.0158642
0.0158592
0.0158543
0.0158495
0.0158449
0.0158403
0.0158359
0.0158316
0.0158274
0.0158234
0.0158194
0.0158155
0.0158118
0.0158082
0.0158047
0.0158013
0.0157981
0.015795
0.015792
0.0157892
0.0157865
0.015784
0.0157817
0.0157796
0.0157777
0.0157759
0.0157744
0.0157731
0.0157721
0.0157713
0.0157708
0.0157705
0.0157705
0.0157709
0.0157715
0.0157725
0.0157738
0.0157755
0.0157775
0.0157799
0.0157827
0.0157859
0.0157895
0.0157935
0.0157979
0.0158027
0.015808
0.0158137
0.0158199
0.0158265
0.0158335
0.015841
0.0158489
0.0158573
0.0158661
0.0158753
0.015885
0.0158951
0.0159056
0.0159165
0.0159277
0.0159393
0.0159513
0.0159636
0.0159762
0.015989
0.0160021
0.0160154
0.0160289
0.0160425
0.0160562
0.01607
0.0160839
0.0160977
0.0161114
0.016125
0.0161385
0.0161518
0.0161648
0.0161775
0.0161898
0.0162017
0.0162131
0.016224
0.0162343
0.0162439
0.0162529
0.0162611
0.0162685
0.016275
0.0162806
0.0162853
0.016289
0.0162916
0.0162931
0.0162935
0.0162928
0.0162908
0.0162877
0.0162833
0.0162776
0.0162707
0.0162624
0.0162529
0.0162421
0.0162301
0.0162167
0.0162021
0.0161863
0.0161692
0.016151
0.0161316
0.016111
0.0160895
0.0160668
0.0160433
0.0160187
0.0159934
0.0159672
0.0159403
0.0159127
0.0158844
0.0158557
0.0158264
0.0157968
0.0157668
0.0157366
0.0157062
0.0156757
0.0156451
0.0156146
0.0155841
0.0155538
0.0155237
0.015494
0.0154645
0.0154355
0.015407
0.015379
0.0153515
0.0153247
0.0152986
0.0152732
0.0152485
0.0152246
0.0152016
0.0151795
0.0151582
0.0151379
0.0151186
0.0151003
0.015083
0.0150667
0.0150514
0.0150373
0.0150242
0.0150123
0.0150015
0.0149918
0.0149832
0.0149758
0.0149695
0.0149643
0.0149603
0.0149573
0.0149553
0.0149544
0.0149544
0.0149552
0.0149568
0.0149589
0.0149614
0.0149641
0.0149667
0.0149689
0.0149704
0.0159753
0.0159755
0.0159751
0.0159737
0.0159716
0.0159688
0.0159653
0.0159613
0.0159569
0.0159521
0.015947
0.0159416
0.0159361
0.0159305
0.0159248
0.0159191
0.0159134
0.0159078
0.0159021
0.0158966
0.0158912
0.0158858
0.0158806
0.0158754
0.0158704
0.0158655
0.0158607
0.015856
0.0158515
0.015847
0.0158426
0.0158384
0.0158342
0.0158302
0.0158263
0.0158225
0.0158187
0.0158152
0.0158117
0.0158083
0.0158051
0.015802
0.015799
0.0157962
0.0157935
0.015791
0.0157887
0.0157865
0.0157846
0.0157828
0.0157813
0.01578
0.0157789
0.0157781
0.0157775
0.0157772
0.0157772
0.0157774
0.015778
0.0157789
0.0157802
0.0157817
0.0157837
0.015786
0.0157886
0.0157917
0.0157951
0.015799
0.0158033
0.0158079
0.015813
0.0158186
0.0158245
0.0158309
0.0158378
0.015845
0.0158527
0.0158609
0.0158694
0.0158784
0.0158878
0.0158976
0.0159078
0.0159184
0.0159294
0.0159407
0.0159523
0.0159643
0.0159765
0.015989
0.0160017
0.0160146
0.0160277
0.016041
0.0160543
0.0160677
0.0160811
0.0160945
0.0161078
0.0161211
0.0161341
0.016147
0.0161595
0.0161718
0.0161837
0.0161952
0.0162062
0.0162167
0.0162266
0.0162358
0.0162444
0.0162523
0.0162593
0.0162655
0.0162708
0.0162751
0.0162785
0.0162808
0.0162821
0.0162823
0.0162813
0.0162791
0.0162758
0.0162712
0.0162654
0.0162584
0.0162501
0.0162405
0.0162297
0.0162176
0.0162043
0.0161898
0.016174
0.016157
0.0161389
0.0161197
0.0160994
0.016078
0.0160556
0.0160323
0.016008
0.015983
0.0159571
0.0159305
0.0159033
0.0158754
0.0158471
0.0158182
0.015789
0.0157595
0.0157297
0.0156998
0.0156697
0.0156396
0.0156095
0.0155796
0.0155497
0.0155202
0.0154909
0.0154619
0.0154334
0.0154053
0.0153778
0.0153508
0.0153245
0.0152988
0.0152738
0.0152496
0.0152261
0.0152035
0.0151818
0.0151609
0.0151409
0.0151219
0.0151039
0.0150869
0.0150709
0.0150559
0.0150419
0.0150291
0.0150173
0.0150066
0.014997
0.0149884
0.014981
0.0149747
0.0149694
0.0149653
0.0149621
0.01496
0.0149588
0.0149585
0.014959
0.0149602
0.014962
0.0149642
0.0149667
0.0149693
0.0149719
0.0149738
0.0159779
0.0159779
0.0159773
0.0159758
0.0159737
0.0159709
0.0159676
0.0159637
0.0159595
0.0159549
0.01595
0.0159449
0.0159397
0.0159343
0.0159289
0.0159235
0.015918
0.0159126
0.0159072
0.0159019
0.0158966
0.0158914
0.0158863
0.0158813
0.0158764
0.0158716
0.0158669
0.0158623
0.0158579
0.0158535
0.0158492
0.015845
0.0158409
0.0158369
0.015833
0.0158292
0.0158255
0.0158219
0.0158184
0.0158151
0.0158119
0.0158088
0.0158058
0.015803
0.0158003
0.0157978
0.0157954
0.0157932
0.0157912
0.0157894
0.0157879
0.0157865
0.0157854
0.0157845
0.0157838
0.0157835
0.0157834
0.0157836
0.0157841
0.0157849
0.015786
0.0157875
0.0157893
0.0157915
0.0157941
0.015797
0.0158003
0.015804
0.0158081
0.0158126
0.0158176
0.0158229
0.0158287
0.0158349
0.0158415
0.0158486
0.0158561
0.015864
0.0158723
0.015881
0.0158902
0.0158997
0.0159097
0.01592
0.0159306
0.0159416
0.015953
0.0159646
0.0159765
0.0159887
0.0160011
0.0160136
0.0160264
0.0160393
0.0160523
0.0160653
0.0160783
0.0160914
0.0161043
0.0161172
0.0161299
0.0161423
0.0161546
0.0161665
0.016178
0.0161891
0.0161998
0.0162099
0.0162195
0.0162284
0.0162367
0.0162442
0.0162509
0.0162568
0.0162618
0.0162659
0.016269
0.0162711
0.0162721
0.0162721
0.0162709
0.0162686
0.0162651
0.0162604
0.0162545
0.0162474
0.016239
0.0162294
0.0162185
0.0162065
0.0161931
0.0161786
0.0161629
0.016146
0.016128
0.0161089
0.0160887
0.0160675
0.0160453
0.0160222
0.0159982
0.0159733
0.0159477
0.0159214
0.0158945
0.0158669
0.0158389
0.0158104
0.0157816
0.0157524
0.015723
0.0156934
0.0156638
0.0156341
0.0156044
0.0155748
0.0155454
0.0155163
0.0154874
0.0154589
0.0154308
0.0154032
0.015376
0.0153495
0.0153235
0.0152982
0.0152736
0.0152498
0.0152267
0.0152045
0.0151831
0.0151625
0.0151429
0.0151242
0.0151065
0.0150897
0.0150739
0.0150592
0.0150454
0.0150327
0.0150211
0.0150105
0.0150009
0.0149925
0.0149851
0.0149787
0.0149734
0.0149691
0.0149659
0.0149635
0.0149622
0.0149616
0.0149619
0.0149629
0.0149645
0.0149667
0.0149692
0.014972
0.0149751
0.0149775
0.0159814
0.0159811
0.0159803
0.0159787
0.0159764
0.0159736
0.0159703
0.0159665
0.0159624
0.015958
0.0159533
0.0159484
0.0159434
0.0159383
0.0159331
0.0159278
0.0159226
0.0159174
0.0159122
0.015907
0.0159019
0.0158969
0.015892
0.0158871
0.0158823
0.0158776
0.0158731
0.0158685
0.0158641
0.0158598
0.0158556
0.0158514
0.0158474
0.0158434
0.0158395
0.0158358
0.0158321
0.0158285
0.0158251
0.0158217
0.0158185
0.0158154
0.0158124
0.0158095
0.0158068
0.0158043
0.0158019
0.0157997
0.0157977
0.0157958
0.0157942
0.0157928
0.0157916
0.0157906
0.0157899
0.0157895
0.0157893
0.0157894
0.0157898
0.0157905
0.0157916
0.0157929
0.0157946
0.0157967
0.0157991
0.0158019
0.015805
0.0158086
0.0158125
0.0158169
0.0158216
0.0158268
0.0158324
0.0158384
0.0158448
0.0158517
0.0158589
0.0158666
0.0158747
0.0158832
0.0158921
0.0159014
0.015911
0.0159211
0.0159315
0.0159422
0.0159532
0.0159646
0.0159762
0.015988
0.0160001
0.0160124
0.0160248
0.0160374
0.01605
0.0160628
0.0160755
0.0160882
0.0161008
0.0161133
0.0161257
0.0161379
0.0161497
0.0161613
0.0161726
0.0161834
0.0161937
0.0162036
0.0162128
0.0162215
0.0162294
0.0162367
0.0162431
0.0162488
0.0162536
0.0162574
0.0162603
0.0162622
0.0162631
0.0162628
0.0162615
0.016259
0.0162554
0.0162506
0.0162446
0.0162374
0.0162289
0.0162193
0.0162084
0.0161963
0.016183
0.0161684
0.0161528
0.0161359
0.016118
0.016099
0.0160789
0.0160578
0.0160357
0.0160128
0.0159889
0.0159643
0.0159389
0.0159128
0.0158861
0.0158588
0.0158311
0.0158029
0.0157743
0.0157454
0.0157163
0.0156871
0.0156578
0.0156284
0.0155991
0.0155699
0.0155409
0.0155121
0.0154836
0.0154554
0.0154277
0.0154004
0.0153737
0.0153475
0.0153219
0.015297
0.0152727
0.0152492
0.0152265
0.0152046
0.0151835
0.0151633
0.0151439
0.0151255
0.015108
0.0150915
0.015076
0.0150614
0.0150479
0.0150353
0.0150238
0.0150133
0.0150039
0.0149954
0.0149881
0.0149817
0.0149764
0.014972
0.0149686
0.0149662
0.0149647
0.014964
0.0149642
0.0149651
0.0149666
0.0149688
0.0149714
0.0149745
0.0149782
0.0149812
0.0159858
0.0159852
0.015984
0.0159821
0.0159797
0.0159768
0.0159734
0.0159697
0.0159656
0.0159613
0.0159568
0.015952
0.0159472
0.0159422
0.0159372
0.0159322
0.0159271
0.0159221
0.015917
0.0159121
0.0159071
0.0159023
0.0158975
0.0158927
0.0158881
0.0158835
0.015879
0.0158746
0.0158703
0.015866
0.0158618
0.0158577
0.0158537
0.0158498
0.015846
0.0158422
0.0158386
0.015835
0.0158315
0.0158282
0.0158249
0.0158218
0.0158188
0.0158159
0.0158132
0.0158106
0.0158082
0.0158059
0.0158038
0.0158019
0.0158002
0.0157988
0.0157975
0.0157964
0.0157957
0.0157951
0.0157949
0.0157949
0.0157952
0.0157958
0.0157967
0.0157979
0.0157995
0.0158014
0.0158037
0.0158063
0.0158093
0.0158127
0.0158165
0.0158206
0.0158252
0.0158302
0.0158356
0.0158414
0.0158476
0.0158542
0.0158613
0.0158687
0.0158766
0.0158848
0.0158935
0.0159025
0.0159119
0.0159217
0.0159318
0.0159423
0.0159531
0.0159641
0.0159755
0.015987
0.0159988
0.0160108
0.016023
0.0160353
0.0160476
0.0160601
0.0160725
0.0160849
0.0160973
0.0161095
0.0161216
0.0161334
0.0161451
0.0161564
0.0161673
0.0161779
0.016188
0.0161975
0.0162066
0.016215
0.0162227
0.0162297
0.016236
0.0162414
0.016246
0.0162496
0.0162524
0.0162541
0.0162548
0.0162544
0.0162529
0.0162503
0.0162466
0.0162417
0.0162356
0.0162283
0.0162198
0.0162101
0.0161991
0.016187
0.0161737
0.0161592
0.0161435
0.0161267
0.0161088
0.0160899
0.0160699
0.0160489
0.0160269
0.0160041
0.0159803
0.0159558
0.0159306
0.0159047
0.0158782
0.0158511
0.0158235
0.0157956
0.0157672
0.0157386
0.0157098
0.0156808
0.0156517
0.0156227
0.0155936
0.0155647
0.015536
0.0155075
0.0154793
0.0154515
0.0154241
0.0153971
0.0153707
0.0153448
0.0153196
0.015295
0.0152711
0.0152479
0.0152255
0.0152038
0.015183
0.0151631
0.015144
0.0151259
0.0151086
0.0150923
0.015077
0.0150626
0.0150492
0.0150368
0.0150254
0.0150151
0.0150057
0.0149973
0.01499
0.0149836
0.0149783
0.0149739
0.0149704
0.0149679
0.0149663
0.0149656
0.0149657
0.0149665
0.0149681
0.0149703
0.0149732
0.0149766
0.0149809
0.0149845
0.015991
0.01599
0.0159883
0.0159861
0.0159835
0.0159804
0.0159769
0.0159732
0.0159691
0.0159649
0.0159604
0.0159558
0.015951
0.0159462
0.0159414
0.0159365
0.0159316
0.0159267
0.0159219
0.015917
0.0159122
0.0159075
0.0159029
0.0158982
0.0158937
0.0158892
0.0158848
0.0158805
0.0158762
0.015872
0.0158679
0.0158639
0.0158599
0.015856
0.0158522
0.0158485
0.0158448
0.0158412
0.0158378
0.0158344
0.0158311
0.015828
0.015825
0.015822
0.0158193
0.0158166
0.0158142
0.0158118
0.0158097
0.0158077
0.015806
0.0158044
0.015803
0.0158019
0.015801
0.0158004
0.0158
0.0157999
0.0158001
0.0158006
0.0158014
0.0158025
0.0158039
0.0158057
0.0158078
0.0158102
0.0158131
0.0158163
0.0158199
0.0158239
0.0158283
0.015833
0.0158382
0.0158438
0.0158498
0.0158562
0.0158631
0.0158703
0.0158779
0.0158859
0.0158944
0.0159032
0.0159123
0.0159219
0.0159317
0.0159419
0.0159525
0.0159633
0.0159743
0.0159857
0.0159972
0.0160089
0.0160208
0.0160329
0.016045
0.0160571
0.0160693
0.0160815
0.0160936
0.0161056
0.0161174
0.016129
0.0161404
0.0161515
0.0161622
0.0161726
0.0161824
0.0161918
0.0162006
0.0162088
0.0162164
0.0162232
0.0162293
0.0162346
0.016239
0.0162425
0.016245
0.0162466
0.0162472
0.0162467
0.0162451
0.0162424
0.0162386
0.0162336
0.0162274
0.0162201
0.0162115
0.0162017
0.0161908
0.0161786
0.0161653
0.0161508
0.0161351
0.0161183
0.0161005
0.0160815
0.0160616
0.0160406
0.0160187
0.0159959
0.0159723
0.0159479
0.0159228
0.015897
0.0158706
0.0158437
0.0158163
0.0157885
0.0157603
0.0157319
0.0157032
0.0156745
0.0156456
0.0156168
0.015588
0.0155593
0.0155308
0.0155026
0.0154747
0.0154471
0.01542
0.0153933
0.0153672
0.0153416
0.0153166
0.0152923
0.0152686
0.0152457
0.0152236
0.0152022
0.0151817
0.015162
0.0151431
0.0151252
0.0151082
0.0150921
0.015077
0.0150628
0.0150495
0.0150373
0.015026
0.0150157
0.0150064
0.0149981
0.0149908
0.0149845
0.0149791
0.0149747
0.0149712
0.0149687
0.0149671
0.0149663
0.0149663
0.0149672
0.0149689
0.0149713
0.0149744
0.0149782
0.014983
0.0149871
0.0159968
0.0159953
0.0159931
0.0159906
0.0159877
0.0159844
0.0159808
0.0159769
0.0159729
0.0159686
0.0159642
0.0159596
0.015955
0.0159503
0.0159455
0.0159408
0.015936
0.0159313
0.0159266
0.0159219
0.0159172
0.0159126
0.0159081
0.0159036
0.0158992
0.0158948
0.0158905
0.0158862
0.015882
0.0158779
0.0158738
0.0158698
0.0158659
0.015862
0.0158582
0.0158545
0.0158508
0.0158473
0.0158438
0.0158404
0.0158371
0.0158339
0.0158309
0.0158279
0.0158251
0.0158224
0.0158199
0.0158175
0.0158153
0.0158132
0.0158114
0.0158097
0.0158082
0.015807
0.015806
0.0158053
0.0158048
0.0158045
0.0158046
0.0158049
0.0158056
0.0158065
0.0158078
0.0158094
0.0158114
0.0158137
0.0158163
0.0158194
0.0158228
0.0158266
0.0158308
0.0158353
0.0158403
0.0158457
0.0158515
0.0158577
0.0158643
0.0158713
0.0158787
0.0158865
0.0158947
0.0159033
0.0159122
0.0159215
0.0159311
0.0159411
0.0159514
0.0159619
0.0159728
0.0159839
0.0159952
0.0160067
0.0160183
0.0160301
0.016042
0.016054
0.0160659
0.0160779
0.0160897
0.0161015
0.0161132
0.0161246
0.0161358
0.0161467
0.0161572
0.0161674
0.0161771
0.0161863
0.0161949
0.016203
0.0162104
0.0162171
0.016223
0.0162282
0.0162324
0.0162358
0.0162383
0.0162398
0.0162402
0.0162397
0.016238
0.0162352
0.0162313
0.0162262
0.01622
0.0162126
0.016204
0.0161942
0.0161832
0.016171
0.0161576
0.0161431
0.0161274
0.0161106
0.0160928
0.0160738
0.0160539
0.016033
0.0160111
0.0159884
0.0159648
0.0159405
0.0159154
0.0158897
0.0158634
0.0158365
0.0158092
0.0157815
0.0157535
0.0157252
0.0156967
0.0156681
0.0156394
0.0156107
0.0155821
0.0155536
0.0155254
0.0154973
0.0154696
0.0154423
0.0154154
0.0153889
0.015363
0.0153376
0.0153129
0.0152888
0.0152654
0.0152427
0.0152208
0.0151997
0.0151794
0.0151599
0.0151413
0.0151236
0.0151068
0.0150909
0.0150759
0.0150619
0.0150488
0.0150367
0.0150255
0.0150153
0.0150061
0.0149979
0.0149906
0.0149843
0.0149789
0.0149745
0.0149711
0.0149685
0.0149669
0.0149661
0.0149662
0.0149671
0.0149689
0.0149715
0.0149748
0.014979
0.0149844
0.0149889
0.016003
0.0160011
0.0159984
0.0159955
0.0159922
0.0159887
0.0159849
0.0159809
0.0159768
0.0159725
0.015968
0.0159635
0.0159589
0.0159543
0.0159497
0.015945
0.0159404
0.0159358
0.0159312
0.0159266
0.0159221
0.0159176
0.0159132
0.0159088
0.0159044
0.0159001
0.0158959
0.0158917
0.0158876
0.0158835
0.0158795
0.0158755
0.0158716
0.0158678
0.015864
0.0158603
0.0158566
0.0158531
0.0158496
0.0158462
0.0158428
0.0158396
0.0158365
0.0158335
0.0158306
0.0158278
0.0158252
0.0158228
0.0158205
0.0158183
0.0158164
0.0158146
0.0158131
0.0158117
0.0158106
0.0158097
0.0158091
0.0158087
0.0158086
0.0158088
0.0158093
0.0158101
0.0158112
0.0158126
0.0158144
0.0158165
0.015819
0.0158219
0.0158251
0.0158287
0.0158327
0.0158371
0.0158418
0.015847
0.0158526
0.0158586
0.0158649
0.0158717
0.0158789
0.0158865
0.0158944
0.0159028
0.0159115
0.0159205
0.01593
0.0159397
0.0159498
0.0159601
0.0159707
0.0159816
0.0159927
0.016004
0.0160154
0.016027
0.0160387
0.0160504
0.0160622
0.016074
0.0160857
0.0160973
0.0161087
0.01612
0.016131
0.0161418
0.0161522
0.0161622
0.0161718
0.0161808
0.0161894
0.0161973
0.0162046
0.0162112
0.016217
0.0162221
0.0162263
0.0162296
0.016232
0.0162334
0.0162338
0.0162331
0.0162314
0.0162286
0.0162246
0.0162195
0.0162132
0.0162058
0.0161971
0.0161873
0.0161762
0.016164
0.0161506
0.0161361
0.0161204
0.0161036
0.0160857
0.0160668
0.0160468
0.0160259
0.016004
0.0159813
0.0159577
0.0159334
0.0159084
0.0158827
0.0158564
0.0158296
0.0158024
0.0157747
0.0157468
0.0157186
0.0156902
0.0156616
0.0156331
0.0156045
0.015576
0.0155477
0.0155196
0.0154917
0.0154641
0.015437
0.0154102
0.015384
0.0153582
0.0153331
0.0153085
0.0152846
0.0152614
0.015239
0.0152173
0.0151963
0.0151762
0.015157
0.0151386
0.015121
0.0151044
0.0150886
0.0150738
0.0150599
0.015047
0.015035
0.015024
0.0150139
0.0150047
0.0149966
0.0149893
0.0149831
0.0149777
0.0149733
0.0149699
0.0149673
0.0149657
0.014965
0.0149651
0.0149662
0.0149681
0.0149708
0.0149745
0.014979
0.0149848
0.0149898
0.0160097
0.0160073
0.0160041
0.0160007
0.015997
0.0159932
0.0159892
0.0159851
0.0159808
0.0159764
0.015972
0.0159675
0.0159629
0.0159584
0.0159538
0.0159492
0.0159447
0.0159401
0.0159357
0.0159312
0.0159268
0.0159224
0.0159181
0.0159138
0.0159095
0.0159053
0.0159012
0.015897
0.015893
0.0158889
0.015885
0.015881
0.0158772
0.0158733
0.0158695
0.0158658
0.0158622
0.0158586
0.0158551
0.0158516
0.0158482
0.015845
0.0158418
0.0158387
0.0158358
0.015833
0.0158303
0.0158277
0.0158253
0.0158231
0.015821
0.0158191
0.0158174
0.015816
0.0158147
0.0158137
0.0158129
0.0158124
0.0158122
0.0158122
0.0158125
0.0158131
0.0158141
0.0158153
0.0158169
0.0158189
0.0158211
0.0158238
0.0158268
0.0158302
0.015834
0.0158381
0.0158427
0.0158477
0.015853
0.0158588
0.0158649
0.0158715
0.0158784
0.0158858
0.0158935
0.0159016
0.0159101
0.015919
0.0159282
0.0159377
0.0159475
0.0159577
0.0159681
0.0159788
0.0159897
0.0160008
0.016012
0.0160234
0.0160349
0.0160465
0.0160581
0.0160697
0.0160813
0.0160927
0.0161041
0.0161152
0.0161261
0.0161367
0.016147
0.016157
0.0161664
0.0161754
0.0161839
0.0161917
0.016199
0.0162055
0.0162113
0.0162163
0.0162204
0.0162237
0.016226
0.0162274
0.0162278
0.0162271
0.0162253
0.0162225
0.0162185
0.0162133
0.016207
0.0161995
0.0161908
0.016181
0.0161699
0.0161576
0.0161442
0.0161296
0.0161139
0.0160971
0.0160791
0.0160602
0.0160402
0.0160192
0.0159974
0.0159746
0.015951
0.0159267
0.0159017
0.015876
0.0158497
0.0158229
0.0157957
0.015768
0.0157401
0.0157119
0.0156836
0.0156551
0.0156266
0.0155981
0.0155697
0.0155414
0.0155134
0.0154856
0.0154582
0.0154312
0.0154046
0.0153784
0.0153528
0.0153278
0.0153035
0.0152797
0.0152567
0.0152344
0.0152129
0.0151921
0.0151722
0.0151531
0.0151349
0.0151175
0.015101
0.0150854
0.0150707
0.015057
0.0150442
0.0150323
0.0150214
0.0150114
0.0150023
0.0149942
0.014987
0.0149808
0.0149755
0.0149711
0.0149677
0.0149652
0.0149636
0.0149629
0.0149632
0.0149643
0.0149663
0.0149693
0.0149732
0.0149781
0.0149843
0.0149896
0.0160167
0.0160138
0.01601
0.0160061
0.0160021
0.0159979
0.0159937
0.0159893
0.0159849
0.0159804
0.0159759
0.0159714
0.0159669
0.0159623
0.0159578
0.0159533
0.0159488
0.0159444
0.01594
0.0159356
0.0159313
0.015927
0.0159228
0.0159186
0.0159144
0.0159103
0.0159062
0.0159021
0.0158981
0.0158941
0.0158902
0.0158863
0.0158824
0.0158786
0.0158748
0.0158711
0.0158674
0.0158638
0.0158602
0.0158567
0.0158533
0.01585
0.0158468
0.0158436
0.0158406
0.0158377
0.0158349
0.0158322
0.0158297
0.0158274
0.0158252
0.0158232
0.0158214
0.0158198
0.0158184
0.0158172
0.0158163
0.0158156
0.0158152
0.015815
0.0158152
0.0158156
0.0158164
0.0158174
0.0158188
0.0158205
0.0158226
0.0158251
0.0158279
0.015831
0.0158346
0.0158386
0.0158429
0.0158476
0.0158528
0.0158583
0.0158642
0.0158706
0.0158773
0.0158844
0.0158919
0.0158998
0.0159081
0.0159167
0.0159257
0.015935
0.0159447
0.0159546
0.0159649
0.0159753
0.015986
0.015997
0.0160081
0.0160193
0.0160307
0.0160421
0.0160536
0.0160651
0.0160765
0.0160878
0.0160991
0.0161101
0.0161209
0.0161315
0.0161417
0.0161516
0.016161
0.0161699
0.0161783
0.0161862
0.0161933
0.0161998
0.0162056
0.0162106
0.0162147
0.016218
0.0162203
0.0162217
0.016222
0.0162213
0.0162196
0.0162167
0.0162127
0.0162075
0.0162012
0.0161937
0.016185
0.0161751
0.016164
0.0161517
0.0161383
0.0161237
0.0161079
0.016091
0.0160731
0.016054
0.016034
0.016013
0.0159911
0.0159683
0.0159447
0.0159203
0.0158952
0.0158694
0.0158431
0.0158163
0.015789
0.0157614
0.0157335
0.0157053
0.0156769
0.0156484
0.0156199
0.0155915
0.0155631
0.0155349
0.0155069
0.0154792
0.0154518
0.0154249
0.0153984
0.0153723
0.0153469
0.015322
0.0152977
0.0152741
0.0152512
0.0152291
0.0152077
0.0151871
0.0151673
0.0151483
0.0151302
0.015113
0.0150967
0.0150812
0.0150667
0.015053
0.0150403
0.0150285
0.0150177
0.0150078
0.0149988
0.0149908
0.0149836
0.0149775
0.0149722
0.0149679
0.0149645
0.014962
0.0149605
0.0149599
0.0149602
0.0149615
0.0149637
0.0149668
0.0149709
0.0149761
0.0149827
0.0149884
0.0160239
0.0160205
0.016016
0.0160116
0.0160072
0.0160027
0.0159982
0.0159936
0.0159891
0.0159845
0.0159799
0.0159753
0.0159707
0.0159662
0.0159617
0.0159573
0.0159528
0.0159485
0.0159441
0.0159399
0.0159356
0.0159314
0.0159272
0.0159231
0.015919
0.015915
0.0159109
0.0159069
0.015903
0.015899
0.0158951
0.0158912
0.0158874
0.0158835
0.0158798
0.015876
0.0158723
0.0158687
0.0158651
0.0158615
0.0158581
0.0158547
0.0158514
0.0158481
0.015845
0.015842
0.0158391
0.0158363
0.0158337
0.0158312
0.0158289
0.0158268
0.0158248
0.0158231
0.0158215
0.0158202
0.0158191
0.0158182
0.0158176
0.0158173
0.0158172
0.0158175
0.015818
0.0158189
0.0158201
0.0158216
0.0158235
0.0158257
0.0158283
0.0158312
0.0158345
0.0158383
0.0158424
0.0158469
0.0158518
0.0158571
0.0158628
0.0158689
0.0158754
0.0158823
0.0158896
0.0158973
0.0159053
0.0159138
0.0159226
0.0159317
0.0159411
0.0159509
0.0159609
0.0159712
0.0159818
0.0159925
0.0160035
0.0160146
0.0160258
0.0160371
0.0160485
0.0160599
0.0160712
0.0160825
0.0160936
0.0161046
0.0161154
0.0161259
0.0161361
0.0161459
0.0161553
0.0161642
0.0161726
0.0161804
0.0161876
0.0161942
0.0161999
0.0162049
0.0162091
0.0162123
0.0162147
0.0162161
0.0162165
0.0162158
0.016214
0.0162112
0.0162072
0.016202
0.0161957
0.0161882
0.0161795
0.0161696
0.0161585
0.0161462
0.0161327
0.0161181
0.0161023
0.0160853
0.0160673
0.0160482
0.0160282
0.0160071
0.0159851
0.0159622
0.0159385
0.0159141
0.0158889
0.0158631
0.0158367
0.0158098
0.0157825
0.0157548
0.0157268
0.0156985
0.0156701
0.0156416
0.0156131
0.0155846
0.0155562
0.015528
0.0155
0.0154724
0.015445
0.0154181
0.0153916
0.0153657
0.0153403
0.0153154
0.0152913
0.0152678
0.015245
0.0152229
0.0152017
0.0151812
0.0151615
0.0151427
0.0151247
0.0151076
0.0150913
0.015076
0.0150616
0.0150481
0.0150355
0.0150238
0.015013
0.0150032
0.0149943
0.0149863
0.0149792
0.0149731
0.0149679
0.0149636
0.0149603
0.0149579
0.0149564
0.0149559
0.0149563
0.0149576
0.01496
0.0149633
0.0149676
0.014973
0.01498
0.0149859
0.0160311
0.0160272
0.0160221
0.0160173
0.0160124
0.0160076
0.0160027
0.0159979
0.0159932
0.0159884
0.0159837
0.0159791
0.0159745
0.01597
0.0159655
0.0159611
0.0159567
0.0159524
0.0159481
0.0159439
0.0159397
0.0159356
0.0159315
0.0159274
0.0159234
0.0159194
0.0159154
0.0159114
0.0159075
0.0159036
0.0158997
0.0158958
0.015892
0.0158881
0.0158843
0.0158806
0.0158769
0.0158732
0.0158695
0.0158659
0.0158624
0.0158589
0.0158555
0.0158522
0.015849
0.0158459
0.0158428
0.01584
0.0158372
0.0158346
0.0158321
0.0158298
0.0158277
0.0158258
0.0158241
0.0158226
0.0158213
0.0158202
0.0158195
0.0158189
0.0158187
0.0158187
0.015819
0.0158197
0.0158206
0.0158219
0.0158236
0.0158256
0.0158279
0.0158306
0.0158337
0.0158372
0.0158411
0.0158454
0.01585
0.0158551
0.0158606
0.0158664
0.0158727
0.0158794
0.0158865
0.0158939
0.0159018
0.01591
0.0159186
0.0159275
0.0159368
0.0159464
0.0159562
0.0159664
0.0159768
0.0159874
0.0159982
0.0160092
0.0160203
0.0160315
0.0160428
0.0160541
0.0160654
0.0160766
0.0160877
0.0160986
0.0161094
0.0161199
0.01613
0.0161399
0.0161493
0.0161582
0.0161666
0.0161745
0.0161817
0.0161883
0.0161941
0.0161991
0.0162034
0.0162067
0.0162091
0.0162105
0.016211
0.0162103
0.0162086
0.0162058
0.0162019
0.0161968
0.0161905
0.016183
0.0161743
0.0161644
0.0161533
0.0161409
0.0161274
0.0161128
0.0160969
0.0160799
0.0160619
0.0160427
0.0160226
0.0160014
0.0159793
0.0159564
0.0159326
0.015908
0.0158828
0.0158569
0.0158304
0.0158034
0.015776
0.0157481
0.01572
0.0156917
0.0156632
0.0156346
0.015606
0.0155775
0.0155491
0.0155208
0.0154928
0.0154651
0.0154378
0.0154108
0.0153844
0.0153584
0.0153331
0.0153083
0.0152842
0.0152607
0.015238
0.015216
0.0151948
0.0151744
0.0151548
0.0151361
0.0151182
0.0151012
0.0150851
0.0150699
0.0150555
0.0150421
0.0150296
0.015018
0.0150073
0.0149975
0.0149887
0.0149808
0.0149738
0.0149677
0.0149625
0.0149583
0.014955
0.0149527
0.0149513
0.0149508
0.0149513
0.0149527
0.0149552
0.0149587
0.0149632
0.0149689
0.0149761
0.0149822
0.0160384
0.0160339
0.0160282
0.0160229
0.0160176
0.0160124
0.0160072
0.0160022
0.0159972
0.0159923
0.0159875
0.0159828
0.0159781
0.0159736
0.0159691
0.0159647
0.0159603
0.015956
0.0159518
0.0159477
0.0159435
0.0159395
0.0159354
0.0159314
0.0159274
0.0159235
0.0159195
0.0159156
0.0159117
0.0159078
0.0159039
0.0159001
0.0158962
0.0158924
0.0158886
0.0158848
0.015881
0.0158772
0.0158735
0.0158699
0.0158663
0.0158627
0.0158592
0.0158558
0.0158525
0.0158492
0.0158461
0.0158431
0.0158402
0.0158374
0.0158348
0.0158323
0.0158301
0.015828
0.0158261
0.0158244
0.0158229
0.0158216
0.0158206
0.0158199
0.0158194
0.0158192
0.0158193
0.0158198
0.0158205
0.0158215
0.0158229
0.0158247
0.0158268
0.0158293
0.0158321
0.0158354
0.015839
0.015843
0.0158474
0.0158523
0.0158575
0.0158631
0.0158692
0.0158756
0.0158825
0.0158897
0.0158974
0.0159054
0.0159138
0.0159225
0.0159316
0.015941
0.0159507
0.0159607
0.015971
0.0159815
0.0159921
0.016003
0.016014
0.0160252
0.0160364
0.0160476
0.0160588
0.01607
0.0160811
0.016092
0.0161028
0.0161133
0.0161235
0.0161333
0.0161428
0.0161518
0.0161603
0.0161682
0.0161755
0.0161821
0.016188
0.0161931
0.0161974
0.0162009
0.0162034
0.0162049
0.0162054
0.0162048
0.0162032
0.0162005
0.0161966
0.0161915
0.0161853
0.0161778
0.0161692
0.0161593
0.0161482
0.0161359
0.0161224
0.0161076
0.0160918
0.0160748
0.0160566
0.0160374
0.0160172
0.0159959
0.0159738
0.0159507
0.0159268
0.0159021
0.0158767
0.0158507
0.0158241
0.015797
0.0157694
0.0157415
0.0157132
0.0156848
0.0156562
0.0156275
0.0155988
0.0155701
0.0155416
0.0155133
0.0154852
0.0154574
0.01543
0.0154031
0.0153766
0.0153506
0.0153252
0.0153005
0.0152764
0.015253
0.0152303