/*--------------------------------*- C++ -*----------------------------------*\
  =========                 |
  \\      /  F ield         | OpenFOAM: The Open Source CFD Toolbox
   \\    /   O peration     | Website:  https://openfoam.org
    \\  /    A nd           | Version:  6
     \\/     M anipulation  |
\*---------------------------------------------------------------------------*/
FoamFile
{
    version     2.0;
    format      ascii;
    class       volScalarField;
    location    "0";
    object      T;
}
// * * * * * * * * * * * * * * * * * * * * * * * * * * * * * * * * * * * * * //

dimensions      [0 0 0 1 0 0 0];

internalField   nonuniform List<scalar> 
10000
(
3.26964
9.75782
15.9482
21.4919
26.4017
30.808
34.8684
38.7107
42.4151
46.0214
49.5472
53.0023
56.399
59.756
63.0988
66.4548
69.8433
73.2292
76.2282
79.2367
82.2262
85.1529
87.9943
90.7455
93.4069
95.9728
98.4288
100.749
102.898
104.833
106.505
107.857
108.834
109.375
109.425
108.931
107.848
106.141
103.789
100.786
97.1438
92.8907
88.0735
82.7547
77.0098
70.9238
64.5872
58.0911
51.523
44.9625
38.4778
32.1235
25.9389
19.948
14.1593
8.56803
3.15737
-2.09881
-7.23328
-12.2825
-17.2839
-22.2727
-27.2868
-32.3639
-37.538
-42.8368
-48.2812
-53.8847
-59.6544
-65.5902
-71.686
-77.9301
-84.3055
-90.7906
-97.3599
-103.984
-110.633
-117.271
-123.863
-130.373
-136.761
-142.986
-149.003
-154.757
-160.178
-165.175
-169.616
-173.317
-176.022
-177.386
-176.976
-174.295
-168.833
-160.083
-147.031
-130.082
-109.307
-84.403
-54.5465
-19.3175
3.20013
9.46032
15.2511
20.3033
24.6416
28.4289
31.8622
35.112
38.2952
41.483
44.7111
47.9991
51.3563
54.7924
58.316
61.9428
65.7182
69.8958
72.72
76.1286
79.5265
82.8287
86.0134
89.0857
92.052
94.9119
97.6521
100.249
102.667
104.864
106.79
108.391
109.606
110.378
110.646
110.356
109.46
107.92
105.71
102.821
99.2608
95.0563
90.2527
84.912
79.1113
72.9378
66.4861
59.8517
53.1279
46.3995
39.7411
33.212
26.8571
20.7036
14.7642
9.03546
3.50304
-1.85848
-7.08196
-12.2085
-17.2723
-22.3018
-27.3416
-32.4311
-37.6113
-42.9079
-48.3429
-53.9316
-59.6815
-65.5941
-71.6637
-77.8797
-84.2254
-90.6805
-97.2195
-103.814
-110.434
-117.044
-123.611
-130.096
-136.461
-142.665
-148.664
-154.404
-159.82
-164.825
-169.297
-173.066
-175.889
-177.434
-177.27
-174.889
-169.832
-162.141
-148.729
-131.878
-111.23
-86.3227
-56.1086
-19.9685
2.82823
8.26161
13.1063
17.0682
20.1694
22.6097
24.6556
26.5542
28.5
30.6262
33.0187
35.7245
38.7681
42.154
45.8731
49.8855
54.05
57.7444
63.1846
67.4242
71.9437
76.2104
80.2876
84.2045
87.9782
91.6098
95.0877
98.3866
101.473
104.303
106.828
108.993
110.741
112.012
112.746
112.886
112.382
111.192
109.286
106.651
103.288
99.2195
94.4876
89.1525
83.2905
76.9921
70.3555
63.4842
56.4788
49.4352
42.4373
35.5566
28.8467
22.3458
16.0732
10.0338
4.21703
-1.39775
-6.84144
-12.1473
-17.3694
-22.5452
-27.6611
-32.7786
-37.9721
-43.2859
-48.7058
-54.2622
-59.9665
-65.8217
-71.8254
-77.968
-84.2361
-90.61
-97.0669
-103.579
-110.117
-116.647
-123.134
-129.539
-135.823
-141.943
-147.85
-153.49
-158.798
-163.692
-168.062
-171.758
-174.565
-176.182
-176.193
-174.031
-168.951
-159.929
-148.722
-132.947
-112.85
-88.0227
-57.3664
-20.3968
2.33936
6.70209
10.3345
12.9232
14.4978
15.302
15.6646
15.9032
16.2773
16.9793
18.1418
19.8508
22.157
25.0843
28.6337
32.7854
37.5041
42.8446
47.9231
54.4934
60.0212
65.4843
70.813
75.98
80.9773
85.7936
90.4076
94.7879
98.8956
102.686
106.109
109.111
111.635
113.623
115.016
115.759
115.801
115.1
113.622
111.351
108.285
104.441
99.8548
94.5839
88.7027
82.3014
75.4817
68.352
61.0221
53.5978
46.1763
38.8415
31.662
24.6884
17.9532
11.4716
5.24283
-0.74731
-6.52386
-12.1198
-17.5652
-22.931
-28.2646
-33.4767
-38.6364
-43.9435
-49.3798
-54.8918
-60.5303
-66.3011
-72.2046
-78.2354
-84.3828
-90.6309
-96.959
-103.342
-109.751
-116.153
-122.51
-128.784
-134.929
-140.896
-146.631
-152.072
-157.148
-161.776
-165.857
-169.263
-171.823
-173.292
-173.317
-171.373
-166.614
-159.142
-148.122
-133.026
-113.524
-88.9064
-57.9831
-20.5318
1.86853
5.2116
7.73244
9.12159
9.42122
8.89707
7.90487
6.79077
5.84076
5.27251
5.2424
5.8613
7.20493
9.32476
12.2523
16.0122
20.6561
26.4132
34.1996
44.8697
45.7784
52.5794
59.2674
65.8094
72.1846
78.3645
84.3086
89.9699
95.2973
100.238
104.736
108.736
112.18
115.01
117.171
118.609
119.276
119.132
118.145
116.296
113.582
110.015
105.629
100.475
94.6244
88.1653
81.1997
73.8382
66.1968
58.3899
50.5261
42.7027
35.003
27.4927
20.2198
13.2131
6.4847
0.0307231
-6.16511
-12.1299
-17.8972
-23.4952
-29.0085
-34.5109
-39.7736
-44.9088
-50.3328
-55.8375
-61.4005
-67.0688
-72.8468
-78.7345
-84.7259
-90.8097
-96.9688
-103.181
-109.42
-115.651
-121.838
-127.935
-133.893
-139.652
-145.146
-150.3
-155.032
-159.253
-162.864
-165.762
-167.82
-168.874
-168.684
-166.928
-163.385
-155.942
-145.516
-131.303
-112.638
-88.5305
-57.7306
-20.3358
1.5053
4.08858
5.85759
6.52267
6.12743
4.92642
3.26303
1.47045
-0.176014
-1.46887
-2.25699
-2.43053
-1.90633
-0.618454
1.48854
4.46383
8.35091
13.1289
18.2241
19.9872
33.112
40.9954
48.6301
56.1951
63.6923
71.0641
78.2321
85.1152
91.6365
97.7231
103.306
108.318
112.696
116.38
119.313
121.446
122.732
123.135
122.627
121.19
118.821
115.532
111.354
106.335
100.542
94.0591
86.9856
79.4326
71.5179
63.3613
55.0795
46.7811
38.5622
30.5037
22.6685
15.1013
7.82829
0.859062
-5.81198
-12.2026
-18.3402
-24.2588
-29.9864
-35.6198
-41.2677
-46.352
-51.5047
-57.0831
-62.5832
-68.1414
-73.7781
-79.5004
-85.3089
-91.1977
-97.155
-103.162
-109.195
-115.222
-121.203
-127.089
-132.822
-138.332
-143.537
-148.344
-152.653
-156.357
-159.356
-161.559
-162.884
-163.243
-162.498
-160.39
-156.379
-149.978
-140.546
-127.467
-109.913
-86.6752
-56.4883
-19.7888
1.27607
3.41621
4.84963
5.30492
4.80558
3.57224
1.91426
0.133932
-1.52366
-2.88062
-3.81454
-4.23982
-4.09104
-3.31015
-1.83825
0.39209
3.47474
7.59634
13.3083
22.7979
38.8646
35.5376
42.3158
49.8389
57.7615
65.8187
73.8176
81.6115
89.0794
96.1155
102.624
108.517
113.717
118.155
121.77
124.509
126.331
127.2
127.093
125.996
123.908
120.844
116.833
111.921
106.172
99.6663
92.5007
84.7829
76.6302
68.1641
59.5056
50.7706
42.0653
33.4828
25.0999
16.9758
9.15165
1.65092
-5.51922
-12.3658
-18.9077
-25.1727
-31.1948
-36.9991
-42.7222
-48.5465
-53.0726
-58.414
-64.0785
-69.5106
-74.9978
-80.5421
-86.1497
-91.8212
-97.5508
-103.326
-109.125
-114.918
-120.665
-126.313
-131.797
-137.032
-141.921
-146.347
-150.186
-153.308
-155.6
-156.974
-157.382
-156.809
-155.238
-152.565
-148.31
-142.181
-133.561
-121.65
-105.383
-83.3392
-54.2611
-18.9028
1.15122
3.08933
4.48888
5.0825
4.85891
4.00155
2.79044
1.50185
0.351674
-0.51731
-1.02297
-1.12158
-0.786809
0.00695168
1.29573
3.13482
5.61404
8.91227
13.53
21.4274
38.7399
34.0675
40.2408
47.6674
55.6803
63.9533
72.2965
80.5552
88.5834
96.2405
103.396
109.932
115.748
120.757
124.889
128.086
130.303
131.509
131.681
130.81
128.9
125.967
122.041
117.17
111.415
104.855
97.5822
89.7015
81.3275
72.5807
63.5833
54.4548
45.3077
36.2438
27.3508
18.7004
10.3471
2.32778
-5.33752
-12.6442
-19.6014
-26.2293
-32.5573
-38.6218
-44.4304
-50.2253
-56.1636
-60.102
-65.6279
-71.1193
-76.4693
-81.8341
-87.232
-92.672
-98.1559
-103.677
-109.219
-114.756
-120.248
-125.639
-130.856
-135.804
-140.365
-144.401
-147.755
-150.271
-151.809
-152.275
-151.641
-149.951
-147.309
-143.962
-139.005
-132.927
-124.956
-114.161
-99.2715
-78.681
-51.1566
-17.7214
1.07034
2.90486
4.38043
5.22163
5.38258
5.0266
4.4266
3.85103
3.49701
3.47437
3.81999
4.52475
5.56026
6.9006
8.53713
10.4874
12.7951
15.4921
18.3054
18.8302
1.68191
32.3026
41.9799
50.2221
58.0957
66.0595
74.2078
82.4502
90.6201
98.5333
106.015
112.91
119.09
124.446
128.895
132.369
134.819
136.21
136.522
135.749
133.895
130.982
127.043
122.126
116.293
109.623
102.204
94.1383
85.5384
76.522
67.2101
57.7231
48.1764
38.6772
29.3208
20.1883
11.345
2.83962
-5.29609
-13.0462
-20.4096
-27.3982
-34.0349
-40.3522
-46.3913
-52.1087
-57.9028
-62.8121
-67.1994
-72.9259
-78.1324
-83.3172
-88.503
-93.7051
-98.9324
-104.185
-109.455
-114.718
-119.937
-125.057
-129.997
-134.653
-138.889
-142.54
-145.421
-147.339
-148.122
-147.657
-145.917
-142.97
-138.861
-133.066
-128.624
-122.67
-115.199
-105.405
-91.9042
-72.9499
-47.3426
-16.3066
0.969781
2.65511
4.13913
5.13452
5.57804
5.64225
5.62069
5.79322
6.34773
7.36263
8.82539
10.6659
12.7902
15.1083
17.5542
20.098
22.7573
25.6198
28.9413
33.6772
44.8435
65.3346
54.4347
59.4038
65.1458
71.8213
79.2351
87.0897
95.0869
102.961
110.486
117.475
123.772
129.254
133.821
137.394
139.917
141.351
141.672
140.874
138.965
135.968
131.919
126.87
120.883
114.038
106.423
98.1385
89.2933
80.0032
70.3872
60.5648
50.652
40.7586
30.9845
21.4172
12.1302
3.18135
-5.38745
-13.5503
-21.2963
-28.6289
-35.5639
-42.129
-48.364
-54.326
-59.9817
-66.2004
-69.0196
-74.2421
-79.891
-84.8916
-89.8729
-94.839
-99.8064
-104.784
-109.77
-114.747
-119.683
-124.521
-129.18
-133.546
-137.466
-140.753
-143.189
-144.544
-144.608
-143.239
-140.418
-136.296
-131.241
-126.069
-119.075
-112.241
-104.831
-95.8148
-83.6404
-66.4296
-43.01
-14.7268
0.80143
2.18851
3.4975
4.4361
4.95264
5.26169
5.70155
6.57624
8.06744
10.2183
12.9593
16.15
19.622
23.2135
26.7939
30.2786
33.6418
36.9566
40.5805
45.9757
58.9272
82.6398
69.4811
69.9604
73.6285
79.3055
86.1838
93.6994
101.448
109.126
116.496
123.367
129.578
134.996
139.511
143.035
145.5
146.86
147.087
146.171
144.12
140.958
136.725
131.473
125.271
118.196
110.339
101.8
92.6864
83.1117
73.1934
63.0493
52.795
42.5409
32.3892
22.4316
12.747
3.40026
-5.55897
-14.0963
-22.1925
-29.8429
-37.0563
-43.8547
-50.2732
-56.3622
-62.1883
-67.8291
-73.724
-75.8188
-81.4221
-86.4136
-91.223
-95.9622
-100.672
-105.374
-110.072
-114.758
-119.404
-123.957
-128.334
-132.415
-136.036
-138.986
-141.018
-141.862
-141.266
-139.051
-135.184
-129.841
-123.421
-116.322
-108.795
-101.43
-94.0267
-85.6767
-74.7789
-59.3809
-38.3388
-13.0452
0.539548
1.4271
2.32935
2.96414
3.32524
3.69904
4.48561
6.01756
8.46576
11.8279
15.9645
20.6529
25.6403
30.687
35.5947
40.2219
44.4869
48.3661
51.9258
55.5156
60.4161
69.6726
72.9622
75.5693
80.5476
86.9242
94.056
101.533
109.076
116.474
123.552
130.149
136.121
141.336
145.678
149.048
151.368
152.58
152.648
151.558
149.314
145.942
141.48
135.986
129.529
122.19
114.061
105.243
95.844
85.9764
75.7563
65.3006
54.7239
44.1365
33.6418
23.3335
13.2942
3.59356
-5.71289
-14.5842
-22.9941
-30.9309
-38.397
-45.4085
-51.9952
-58.2009
-64.0765
-69.6375
-75.3173
-78.3305
-82.2801
-87.9299
-92.4453
-96.9415
-101.397
-105.827
-110.242
-114.638
-118.995
-123.264
-127.364
-131.171
-134.512
-137.159
-138.834
-139.231
-138.051
-135.071
-130.233
-123.715
-115.958
-107.345
-98.753
-90.6983
-83.1596
-75.3392
-65.6362
-52.0643
-33.5029
-11.3221
0.177926
0.355805
0.62015
0.721074
0.730956
1.03218
2.09659
4.28307
7.74102
12.4073
18.0554
24.3647
30.9861
37.5946
43.9238
49.7806
55.0402
59.605
63.2992
65.6071
65.0878
58.1126
74.0162
80.3086
87.6583
95.2495
102.794
110.208
117.445
124.438
131.098
137.308
142.943
147.873
151.975
155.139
157.272
158.307
158.195
156.915
154.468
150.875
146.177
140.432
133.712
126.1
117.692
108.59
98.9019
88.7424
78.2272
67.4724
56.5922
45.6968
34.8899
24.2666
13.9118
3.89834
-5.71398
-14.8792
-23.5656
-31.7556
-39.4459
-46.6472
-53.3843
-59.6974
-65.643
-71.3087
-76.679
-82.4754
-82.6734
-88.1355
-93.2559
-97.5858
-101.819
-105.995
-110.137
-114.253
-118.329
-122.322
-126.156
-129.706
-132.792
-135.172
-136.544
-136.563
-134.885
-131.236
-125.514
-117.899
-108.842
-98.9308
-89.1925
-80.3351
-72.5259
-65.0966
-56.486
-44.707
-28.6523
-9.60798
-0.27666
-1.00185
-1.57983
-2.20298
-2.69003
-2.54412
-1.21699
1.6701
6.23093
12.3229
19.6129
27.6637
36.0151
44.2485
52.0276
59.1159
65.3713
70.6945
74.8839
77.2131
75.3045
62.2869
78.7424
87.4627
96.8709
104.997
112.379
119.332
126.007
132.437
138.58
144.342
149.6
154.222
158.071
161.025
162.977
163.845
163.57
162.121
159.494
155.706
150.796
144.823
137.861
129.995
121.324
111.952
101.991
91.5551
80.7618
69.7276
58.567
47.3905
36.3021
25.398
14.7645
4.47682
-5.40221
-14.823
-23.7494
-32.1593
-40.0446
-47.4111
-54.2792
-60.6852
-66.6847
-72.3634
-77.854
-83.1741
-86.4932
-88.4015
-93.653
-97.7767
-101.788
-105.722
-109.607
-113.458
-117.268
-121.002
-124.588
-127.902
-130.763
-132.917
-134.041
-133.757
-131.676
-127.462
-120.946
-112.371
-102.034
-91.0247
-80.217
-70.5272
-62.3498
-55.1843
-47.552
-37.4945
-23.9075
-7.94278
-0.811796
-2.60555
-4.19656
-5.69194
-6.77546
-6.82216
-5.20609
-1.53688
4.24844
11.9082
20.981
30.8928
41.0559
50.9476
60.159
68.4166
75.5818
81.6125
86.4664
89.8162
90.2531
83.1004
94.6037
100.982
109.014
115.878
122.181
128.221
134.124
139.906
145.511
150.834
155.74
160.082
163.712
166.492
168.301
169.043
168.651
167.082
164.324
160.391
155.32
149.168
142.009
133.932
125.036
115.431
105.229
94.5479
83.5063
72.2225
60.812
49.3861
38.0497
26.8999
16.0245
5.50032
-4.60752
-14.2465
-23.3775
-31.9745
-40.0255
-47.5324
-54.5113
-60.9945
-67.0335
-72.7053
-78.1171
-83.3851
-88.3216
-87.3362
-91.9995
-97.4024
-101.148
-104.843
-108.489
-112.096
-115.664
-119.163
-122.526
-125.635
-128.306
-130.28
-131.216
-130.711
-128.331
-123.668
-116.326
-105.352
-95.523
-83.7555
-71.9487
-61.4074
-52.784
-45.7688
-38.9968
-30.5626
-19.3555
-6.35389
-1.4141
-4.41449
-7.15781
-9.6395
-11.386
-11.6344
-9.68154
-5.13374
2.0063
11.3783
22.3709
34.2516
46.2876
57.8406
68.4267
77.739
85.6546
92.2057
97.5466
101.871
105.201
106.875
113.531
115.923
121.055
126.026
130.998
136.055
141.207
146.405
151.552
156.516
161.145
165.277
168.751
171.416
173.142
173.82
173.371
171.746
168.924
164.914
159.747
153.481
146.189
137.96
128.897
119.11
108.716
97.8348
86.5875
75.0946
63.4735
51.8369
40.291
28.9343
17.8558
7.13398
-3.16432
-12.9844
-22.2845
-31.0359
-39.2234
-46.8454
-53.9146
-60.4594
-66.5267
-72.1881
-77.5515
-82.7991
-87.7726
-91.0327
-90.4685
-95.3732
-99.6547
-103.16
-106.607
-110.007
-113.365
-116.663
-119.838
-122.779
-125.302
-127.145
-127.959
-127.318
-124.774
-119.951
-112.838
-104.241
-90.8804
-77.421
-64.4307
-52.9999
-43.8825
-36.9324
-30.9145
-23.9946
-15.0484
-4.85714
-2.07222
-6.39387
-10.4044
-13.9629
-16.4204
-16.8688
-14.5288
-9.01098
-0.397378
10.8147
23.8422
37.7724
51.7092
64.8877
76.7467
86.9515
95.4063
102.213
107.671
112.295
116.876
122.683
125.964
127.356
130.464
134.034
138.008
142.334
146.94
151.726
156.56
161.288
165.742
169.751
173.146
175.768
177.478
178.159
177.723
176.112
173.298
169.282
164.095
157.788
150.434
142.124
132.961
123.056
112.53
101.505
90.1057
78.4544
66.671
54.8702
43.16
31.6403
20.4016
9.5238
-0.924482
-10.8869
-20.3196
-29.1917
-37.4856
-45.1968
-52.3351
-58.9253
-65.0104
-70.6569
-75.965
-81.0831
-86.1484
-89.882
-88.8419
-91.8221
-97.0033
-100.487
-103.792
-107.027
-110.22
-113.359
-116.39
-119.207
-121.632
-123.4
-124.154
-123.454
-120.816
-115.772
-107.607
-97.952
-85.1958
-71.1799
-57.3741
-45.1909
-35.6097
-28.6853
-23.3388
-17.8265
-11.0094
-3.458
-2.7771
-8.51726
-13.8915
-18.6026
-21.8125
-22.4623
-19.6974
-13.1395
-2.96145
10.1853
25.3252
41.3441
57.1643
71.8832
84.8634
95.7517
104.5
111.28
116.498
120.822
125.267
131.468
133.125
134.748
136.833
139.657
143.074
146.985
151.292
155.867
160.555
165.179
169.566
173.543
176.938
179.59
181.353
182.103
181.746
180.216
177.478
173.529
168.393
162.118
154.777
146.458
137.266
127.314
116.723
105.619
94.1296
82.3792
70.4902
58.5795
46.757
35.1244
23.7737
12.7863
2.23225
-7.83065
-17.357
-26.314
-34.6822
-42.455
-49.6394
-56.2575
-62.3481
-67.972
-73.222
-78.2473
-83.3542
-87.7052
-90.1443
-87.2338
-91.607
-96.8082
-99.9295
-103.023
-106.088
-109.115
-112.053
-114.799
-117.178
-118.928
-119.687
-119.001
-116.393
-111.718
-104.27
-93.0422
-79.7573
-65.1852
-50.7185
-37.9026
-27.9104
-21
-16.2631
-12.0606
-7.23879
-2.15548
-3.5219
-10.7637
-17.5848
-23.5161
-27.5209
-28.3859
-25.1817
-17.5457
-5.75244
9.37813
26.6595
44.7557
62.3897
78.5111
92.4087
103.728
112.501
118.981
123.678
127.371
131.102
136.318
136.889
139.075
140.738
143.24
146.41
150.147
154.368
158.93
163.637
168.286
172.707
176.738
180.213
182.965
184.845
185.725
185.506
184.116
181.516
177.695
172.674
166.5
159.239
150.982
141.832
131.903
121.319
110.206
98.6932
86.9094
74.9784
63.0191
51.1434
39.4546
28.0463
17.0012
6.39039
-3.72687
-13.3039
-22.3067
-30.7141
-38.5178
-45.7229
-52.3485
-58.4296
-64.0214
-69.2051
-74.096
-78.8304
-83.2836
-85.9763
-85.2445
-86.1647
-90.5901
-94.9914
-97.8988
-100.854
-103.812
-106.707
-109.438
-111.829
-113.617
-114.432
-113.778
-110.95
-103.791
-97.9164
-87.5139
-74.2088
-59.2979
-44.3397
-31.0218
-20.6949
-13.814
-9.64795
-6.6721
-3.72063
-0.942516
-4.30055
-13.1152
-21.455
-28.6691
-33.5166
-34.6279
-30.9989
-22.2865
-8.87445
8.23666
27.6344
47.7439
67.0731
84.4136
98.9802
110.444
118.971
124.894
128.84
131.73
134.537
138.259
138.444
141.19
142.723
145.133
148.226
151.924
156.244
161.005
165.919
170.712
175.251
179.421
183.055
185.976
188.034
189.101
189.071
187.871
185.456
181.815
176.963
170.945
163.826
155.695
146.653
136.816
126.308
115.257
103.793
92.0457
80.1418
68.2014
56.338
44.6563
33.2509
22.2058
11.5931
1.47285
-8.10723
-17.1121
-25.5194
-33.3194
-40.5152
-47.1236
-53.1759
-58.7217
-63.8346
-68.6223
-73.24
-77.9063
-81.4394
-83.1956
-79.1028
-82.313
-87.2931
-91.4902
-94.3855
-97.3364
-100.248
-103.025
-105.488
-107.364
-108.294
-107.833
-105.976
-102.862
-93.5607
-82.3064
-68.6773
-53.4659
-38.1381
-24.4406
-13.8651
-7.04827
-3.43504
-1.61984
-0.428129
0.190649
-5.10718
-15.5528
-25.4724
-34.027
-39.7715
-41.1795
-37.1713
-27.4261
-12.443
6.58987
28.0249
50.0363
70.9081
89.264
104.221
115.532
123.573
128.702
131.683
133.715
135.673
138.267
138.437
141.43
142.979
145.494
148.593
152.231
156.849
162.124
167.512
172.524
177.223
181.624
185.515
188.674
190.97
192.276
192.48
191.509
189.319
185.896
181.256
175.44
168.514
160.563
151.691
142.011
131.647
120.728
109.385
97.7477
85.944
74.0949
62.3148
50.7092
39.3735
28.3923
17.8383
7.77221
-1.75762
-10.7154
-19.0778
-26.8339
-33.9849
-40.5449
-46.5413
-52.0172
-57.0359
-61.6889
-66.1086
-70.4878
-74.3112
-75.7347
-74.9028
-73.3036
-77.0241
-82.2266
-86.5695
-89.5979
-92.5945
-95.4921
-98.092
-100.098
-101.134
-100.314
-95.9718
-94.2107
-87.0822
-76.3611
-62.8229
-47.515
-31.9766
-18.035
-7.31124
-0.611715
2.44627
3.14743
2.67114
1.25615
-5.93481
-18.0552
-29.602
-39.549
-46.2497
-48.0222
-43.7107
-33.0179
-16.5631
4.27763
27.6216
51.3858
73.6371
92.8411
107.883
118.75
126.181
130.279
132.02
133.281
134.535
135.883
136.665
139.659
141.379
144.427
147.578
150.62
155.863
162.249
168.627
173.724
178.489
183.281
187.588
191.038
193.63
195.238
195.716
195.007
193.074
189.9
185.505
179.928
173.237
165.516
156.867
147.405
137.25
126.533
115.384
103.932
92.3046
80.6231
69.0019
57.5466
46.3528
35.505
25.0763
15.1274
5.70719
-3.14812
-11.4143
-19.079
-26.1417
-32.613
-38.5155
-43.8841
-48.7684
-53.2357
-57.3747
-61.2891
-64.8635
-66.9482
-68.662
-65.36
-66.6698
-70.3255
-75.4481
-80.1863
-83.7365
-86.8066
-89.6191
-91.8691
-92.0655
-89.6671
-93.318
-88.2646
-80.7623
-70.1385
-56.6937
-41.3882
-25.7637
-11.7014
-0.931413
5.58633
8.06985
7.68452
5.61213
2.26591
-6.77526
-20.5958
-33.8009
-45.1829
-52.9006
-55.1194
-50.6065
-39.0893
-21.3121
1.1706
26.255
51.5917
75.063
95.1249
109.854
119.952
125.747
126.564
127.035
129.376
131.929
134.37
136.468
140.035
142.87
146.499
147.122
145.655
152.5
161.263
170.024
174.133
178.504
184.205
189.264
192.917
195.881
197.9
198.676
198.262
196.622
193.725
189.604
184.3
177.881
170.434
162.06
152.872
142.992
132.545
121.662
110.471
99.0982
87.6633
76.2802
65.0537
54.0786
43.4391
33.2078
23.4453
14.2005
5.51016
-2.60045
-10.1174
-17.0374
-23.367
-29.1218
-34.326
-39.0112
-43.215
-46.977
-50.327
-53.684
-56.4653
-58.1797
-57.289
-55.2695
-58.2875
-61.8962
-66.6781
-71.2101
-75.0468
-77.7843
-78.978
-80.4266
-85.9985
-85.401
-81.2936
-74.0212
-63.5526
-50.238
-35.0124
-19.4084
-5.34109
5.3717
11.6336
13.5086
12.0462
8.42895
3.23202
-7.6183
-23.1434
-38.017
-50.8623
-59.6543
-62.4097
-57.8173
-45.6302
-26.7262
-2.81459
23.8239
50.5106
74.9496
96.8799
110.186
115.858
119.54
124.273
131.826
134.204
133.264
132.488
132.213
132.788
133.242
134.547
135.118
139.608
154.062
167.85
175.523
172.823
175.515
184.243
190.841
193.819
197.406
200.141
201.135
201.065
199.785
197.187
193.376
188.38
182.27
175.142
167.093
158.238
148.694
138.588
128.045
117.192
106.152
95.0453
83.9822
73.0662
62.3908
52.039
42.0824
32.5814
23.5849
15.1303
7.24415
-0.0571181
-6.76623
-12.8835
-18.415
-23.3696
-27.7546
-31.5697
-34.8033
-37.4801
-40.5061
-43.5054
-45.5397
-47.099
-45.4919
-45.5743
-48.9902
-52.1248
-55.8816
-59.3694
-62.4004
-65.694
-70.5583
-78.4023
-77.6846
-73.8524
-66.7894
-56.5099
-43.3784
-28.3116
-12.8293
1.13258
11.6844
17.6095
18.8291
16.2834
11.154
4.16506
-8.45194
-25.6598
-42.1878
-56.5054
-66.4192
-69.8036
-65.2651
-52.5837
-32.7931
-7.70835
20.3442
48.1178
77.184
99.9872
103.936
110.734
120.75
124.571
124.562
125.186
125.269
124.541
124.585
125.102
126.156
128.585
132.558
140.188
151.676
162.587
166.088
165.616
173.224
189.002
194.197
191.862
197.664
202.102
202.573
203.064
202.326
199.991
196.561
191.918
186.156
179.4
171.733
163.271
154.132
144.436
134.308
123.87
113.246
102.549
91.8901
81.369
71.0775
61.0967
51.4974
42.3393
33.6714
25.5325
17.9512
10.9479
4.53589
-1.27593
-6.47935
-11.0611
-14.9936
-18.2195
-20.6128
-22.7251
-25.3413
-28.1052
-31.2465
-34.3003
-34.7181
-34.5471
-36.3232
-39.7402
-42.9978
-46.356
-49.7062
-55.1281
-67.8058
-70.297
-69.5848
-65.8514
-58.9733
-48.9273
-36.0485
-21.2257
-5.96328
7.78762
18.0768
23.5803
24.0886
20.4397
13.8145
5.07471
-9.26215
-28.1022
-46.2411
-62.0155
-73.0826
-77.1832
-72.8344
-59.8391
-39.4527
-13.5122
16.0356
52.5472
80.3524
83.1108
95.2993
110.215
116.315
118.564
117.375
114.813
114.508
113.206
114.431
116.013
118.851
123.165
129.187
137.358
147.227
157.17
163.613
167.049
173.737
184.529
187.597
187.468
200.719
205.566
201.283
203.806
204.127
201.618
198.838
194.59
189.2
182.905
175.679
167.683
159.022
149.811
140.175
130.233
120.105
109.903
99.7334
89.6938
79.873
70.3504
61.1955
52.4679
44.2174
36.4845
29.302
22.6961
16.6893
11.3043
6.57003
2.53165
-0.732676
-3.09002
-4.37246
-6.32372
-8.49462
-11.7032
-15.799
-19.9112
-22.7723
-24.2852
-25.5747
-27.9781
-30.9728
-34.2081
-39.7113
-51.7282
-60.628
-61.6829
-60.7098
-57.0911
-50.4758
-40.7531
-28.2149
-13.724
1.22603
14.6687
24.5992
29.5966
29.3322
24.5505
16.4332
5.96827
-10.0339
-30.4234
-50.0976
-67.2835
-79.513
-84.4056
-80.3766
-67.2231
-46.6017
-20.3216
21.0053
54.0397
52.8571
75.3817
96.2123
105.162
108.868
108.443
107.563
106.117
105.939
101.774
103.829
106.417
110.492
116.082
123.181
131.667
140.993
150.142
157.91
164.692
172.329
180.699
187.258
190.491
196.967
200.51
197.399
205.652
205.933
200.67
200.021
195.991
190.904
185.309
178.55
171.117
163.026
154.376
145.313
135.948
126.399
116.779
107.186
97.7162
88.4555
79.4814
70.8628
62.6596
54.9234
47.6984
41.0233
34.9334
29.4648
24.6604
20.578
17.3074
14.9983
13.9098
12.8788
11.1544
9.29322
4.4195
-0.760221
-5.85599
-11.0641
-14.8059
-17.4584
-19.5651
-22.2015
-26.3933
-34.0561
-45.6741
-49.9092
-51.4659
-50.7814
-47.5143
-41.3066
-32.0123
-19.8988
-5.81582
8.74406
21.7951
31.2807
35.6919
34.5918
28.6415
19.0259
6.85161
-10.7511
-32.5745
-53.6741
-72.1929
-85.5653
-91.31
-87.7257
-74.4755
-54.0733
-20.0146
24.1022
18.0197
49.8237
76.0385
90.6128
97.5391
99.1744
98.8565
97.6923
96.1789
94.3659
89.86
92.9651
96.273
101.152
107.538
115.267
124.039
133.373
142.655
151.381
159.644
167.889
175.888
182.753
188.188
193.656
197.803
199.488
201.608
201.655
197.341
201.513
195.492
190.347
186.403
179.814
173.158
165.758
157.724
149.333
140.622
131.739
122.79
113.863
105.053
96.4435
88.111
80.1243
72.545
65.428
58.8234
52.7789
47.3428
42.5707
38.5339
35.3301
33.1077
32.1071
31.6245
30.1943
28.5144
25.104
18.6758
11.6592
5.20967
-1.96513
-7.64474
-11.4194
-14.0712
-16.6018
-20.2042
-27.3007
-35.6617
-38.8179
-40.4339
-40.1033
-37.3059
-31.6013
-22.8052
-11.1706
2.45417
16.5685
29.1626
38.1306
41.8831
39.8864
32.7291
21.604
7.72811
-11.3979
-34.5066
-56.8878
-76.6258
-91.088
-97.7273
-94.7404
-81.1953
-56.6017
-12.6834
-16.5597
14.324
49.5378
71.7529
82.0316
87.0502
88.9079
88.7566
87.7328
86.8225
82.9218
78.7549
82.1556
85.639
90.9053
97.7195
105.801
114.8
124.303
133.888
143.237
152.263
160.968
169.142
176.419
182.669
188.154
192.465
195.331
197.409
198.26
197.131
196.421
191.661
187.641
187.177
178.317
173.414
166.83
159.334
151.799
143.794
135.666
127.489
119.316
111.257
103.392
95.7954
88.5386
81.6864
75.2991
69.4354
64.1557
59.5259
55.627
52.5732
50.5132
49.6696
49.3417
47.9107
46.0432
43.397
36.1104
28.1478
19.5938
10.6099
1.94201
-4.39891
-8.24609
-10.7122
-12.5637
-14.7459
-19.0143
-24.7886
-27.3481
-29.0222
-29.0624
-26.7559
-21.5691
-13.2804
-2.13423
11.0162
24.656
36.7489
45.1415
48.1726
45.2232
36.8212
24.173
8.60019
-11.9594
-36.1755
-59.6626
-80.4716
-95.9325
-103.484
-101.418
-88.3206
-45.796
-44.0489
-30.0681
16.6445
46.3008
61.178
70.7513
76.1007
78.2074
78.2052
77.2213
76.4017
69.3811
68.0361
70.9622
74.3387
79.7119
86.6755
94.8834
103.978
113.592
123.383
133.077
142.502
151.52
159.94
167.551
174.237
179.986
184.639
188.103
190.509
191.731
191.655
190.795
188.565
184.716
181.894
173.917
172.268
165.98
158.334
152.341
144.886
137.641
130.377
123.03
115.815
108.789
102.02
95.5906
89.5684
84.0212
79.02
74.643
70.975
68.1212
66.274
65.6373
65.0713
63.3493
61.0228
58.1729
49.9894
40.3045
29.1389
19.2006
8.7777
0.382861
-4.86781
-7.72401
-9.57274
-10.4171
-10.6673
-10.9457
-14.2765
-16.1886
-17.817
-18.1134
-16.1969
-11.4479
-3.60713
7.09056
19.7863
32.9499
44.518
52.2933
54.5507
50.599
40.9182
26.7358
9.46678
-12.4232
-37.5436
-61.9343
-83.6354
-99.9598
-108.344
-107.551
-88.5897
-55.4072
-71.8615
-20.8089
13.7127
34.495
49.1708
59.1038
64.7845
67.1288
67.1967
65.8525
62.7805
53.114
55.2883
58.3011
62.0459
67.4479
74.3527
82.4709
91.4736
101.029
110.831
120.62
130.187
139.351
147.934
155.769
162.74
168.773
173.776
177.692
180.529
182.251
182.847
182.441
180.922
178.348
175.305
171.021
166.746
160.632
154.405
151.381
142.953
137.038
130.961
124.393
118.142
112.057
106.194
100.683
95.5877
90.9813
86.9526
83.6079
81.0459
79.3323
78.8791
77.6404
75.2932
72.2751
68.4418
58.7968
47.1329
33.9996
21.9891
10.6829
1.38574
-4.27298
-6.82963
-8.58448
-9.47577
-9.77903
-8.34575
-4.69286
-4.80398
-5.99671
-7.35987
-7.6743
-5.94063
-1.4662
6.04778
16.3818
28.6756
41.3861
52.425
59.5557
60.9981
56.0012
45.0132
29.2977
10.3167
-12.7798
-38.5838
-63.6556
-86.0475
-103.067
-112.002
-110.336
-83.6372
-94.7621
-59.6156
-23.2132
3.29555
22.1162
36.9147
47.1478
53.131
55.7079
56.0188
55.5992
47.8059
41.5844
43.3709
45.3369
48.9014
54.0638
60.6703
68.465
77.1509
86.4267
96.0101
105.65
115.131
124.26
132.867
140.8
147.944
154.21
159.522
163.83
167.112
169.353
170.556
170.764
169.984
168.287
165.857
162.622
158.9
154.582
149.12
144.771
137.205
134.266
129.005
122.557
117.602
112.57
107.631
103.133
99.0459
95.4551
92.474
90.2697
88.9882
88.1901
85.8032
82.5221
78.6505
72.8588
61.1557
47.307
32.2834
18.3252
7.2037
-1.71382
-6.33458
-7.5506
-7.57756
-7.45785
-8.00687
-8.60273
-6.70462
-0.981168
3.86645
3.00179
2.02827
1.95423
3.76356
8.17955
15.5331
25.6238
37.596
49.8979
60.4204
66.8927
67.4879
61.4062
49.0811
31.8998
11.0766
-13.0244
-39.2822
-64.8027
-87.6756
-105.258
-114.979
-104.095
-99.3219
-103.088
-59.6566
-29.8125
-9.3241
9.44381
24.4185
34.9132
41.1207
43.7457
43.6118
44.2056
28.5529
28.3999
30.7391
31.8588
34.8651
39.4986
45.5488
52.771
60.8956
69.6489
78.7705
88.0229
97.1939
106.096
114.563
122.452
129.648
136.058
141.61
146.252
149.952
152.695
154.483
155.339
155.292
154.399
152.753
150.403
147.47
143.982
139.956
135.997
130.786
127.234
121.265
117.035
114.306
109.723
105.49
102.175
99.1545
96.6054
94.6652
93.6175
91.5622
88.0845
83.7223
78.843
70.2763
56.2403
39.9575
23.4249
8.51746
-1.25806
-8.48098
-10.6479
-9.12505
-6.78045
-6.00714
-6.14735
-6.38336
-6.64721
-6.613
-0.219514
10.651
10.3452
10.0504
10.5371
12.7203
17.3282
24.7179
34.7117
46.464
58.4196
68.4536
74.2665
73.991
66.778
52.9988
33.9265
12.1584
-13.1576
-39.6424
-65.3764
-88.5113
-106.442
-115.781
-99.5059
-119.628
-92.7514
-64.8517
-43.492
-22.2662
-3.31916
11.8048
22.4829
28.8617
31.6649
32.699
24.8658
15.2617
15.5421
16.5294
17.396
19.784
23.6788
28.9316
35.3341
42.6489
50.6319
59.0469
67.6738
76.3127
84.7847
92.9316
100.617
107.725
114.164
119.858
124.753
128.81
132.009
134.346
135.833
136.497
136.383
135.553
134.069
132.008
129.436
126.431
123.172
119.54
116.23
112.077
109.047
104.943
101.336
99.3708
97.6041
95.0913
93.5142
91.7688
88.1904
83.5734
78.0586
71.727
59.6978
43.3244
25.0393
8.00049
-6.2811
-13.5875
-17.7557
-16.3899
-10.8915
-6.06347
-4.42424
-4.54061
-5.42037
-6.0885
-5.71252
-5.38491
-0.875461
13.2576
14.933
16.2187
17.8194
20.7595
25.8463
33.4916
43.5531
55.2031
66.8892
76.4766
81.6448
80.4956
72.1378
56.834
35.1587
13.3907
-13.1865
-39.6861
-65.4045
-88.5984
-106.959
-110.826
-108.099
-113.47
-94.0116
-76.6579
-55.7269
-34.6524
-15.8346
-0.761585
9.93267
16.3028
18.929
25.2719
4.67548
2.24684
3.03408
1.9612
2.11807
3.66132
6.59739
10.8218
16.1664
22.4302
29.4011
36.8699
44.6382
52.5222
60.3556
67.9896
75.2932
82.1541
88.4783
94.1889
99.2257
103.546
107.121
109.941
112.007
113.339
113.967
113.938
113.305
112.129
110.479
108.428
106.079
103.488
100.847
98.0433
95.5754
92.7011
90.8068
88.1413
86.2553
84.9551
81.6659
77.4675
71.3931
64.9831
55.5031
40.0938
21.3922
2.86645
-13.3051
-24.8916
-28.594
-28.2289
-22.1818
-12.0971
-5.18798
-2.07234
-0.866492
-0.96382
-2.27417
-4.1732
-5.24798
-3.62495
-0.588796
12.868
15.9139
20.2248
23.6392
27.7663
33.6366
41.7672
52.0704
63.746
75.2508
84.447
89.0041
87.0157
77.6288
61.4894
35.165
14.4783
-13.1254
-39.4558
-64.9351
-87.9205
-106.917
-103.384
-110.05
-108.158
-103.138
-87.167
-66.8948
-46.3258
-27.9242
-13.1432
-2.6352
3.46393
4.79759
3.01429
-10.6305
-11.7723
-10.9336
-13.0842
-13.9165
-13.4449
-11.6809
-8.70065
-4.63484
0.352875
6.08432
12.3796
19.0645
25.9746
32.9585
39.8779
46.609