/*--------------------------------*- C++ -*----------------------------------*\
  =========                 |
  \\      /  F ield         | OpenFOAM: The Open Source CFD Toolbox
   \\    /   O peration     | Website:  https://openfoam.org
    \\  /    A nd           | Version:  6
     \\/     M anipulation  |
\*---------------------------------------------------------------------------*/
FoamFile
{
    version     2.0;
    format      ascii;
    class       volScalarField;
    location    "0";
    object      P_rec;
}
// * * * * * * * * * * * * * * * * * * * * * * * * * * * * * * * * * * * * * //

dimensions      [0 2 -2 0 0 0 0];

internalField   nonuniform List<scalar> 
13046
(
0.454909
0.450273
0.499405
0.456324
0.489478
0.465333
0.445865
0.466694
0.495436
0.32674
0.351485
0.508382
0.441441
0.444336
0.499853
0.357618
0.512616
0.349769
0.482165
0.481455
0.454929
0.352558
0.512224
0.3517
0.459313
0.464884
0.490197
0.436991
0.439704
0.504439
0.458486
0.442103
0.49709
0.466761
0.488303
0.463058
0.465803
0.487361
0.468349
0.469424
0.498306
0.426227
0.468258
0.480912
0.474694
0.464692
0.477452
0.478964
0.44788
0.451948
0.499946
0.492325
0.478424
0.399719
0.49567
0.390505
0.483662
0.371267
0.418301
0.513711
0.404398
0.452476
0.501185
0.507745
0.393189
0.369046
0.427124
0.371535
0.512029
0.433536
0.376432
0.510624
0.362904
0.412213
0.514147
0.481351
0.488389
0.44735
0.515819
0.396348
0.362743
0.454255
0.465044
0.491067
0.508001
0.384369
0.359274
0.354913
0.504367
0.417318
0.49877
0.332391
0.432563
0.410305
0.401349
0.423244
0.420196
0.505573
0.507787
0.503828
0.354982
0.426058
0.46205
0.4815
0.476486
0.490231
0.404205
0.488486
0.476037
0.497555
0.410985
0.284919
0.507196
0.31341
0.445585
0.450795
0.496413
0.404218
0.410758
0.403415
0.508955
0.414107
0.507349
0.318776
0.33951
0.509202
0.427441
0.425361
0.506997
0.464657
0.499286
0.427288
0.496955
0.339744
0.443455
0.385204
0.417914
0.50638
0.453994
0.438938
0.497892
0.424041
0.473879
0.494494
0.477755
0.493886
0.409157
0.488907
0.41354
0.490258
0.402289
0.443886
0.50194
0.493339
0.430212
0.47981
0.483466
0.385616
0.477585
0.382621
0.490497
0.493487
0.421836
0.472981
0.490733
0.322705
0.506989
0.361028
0.299387
0.507799
0.321742
0.382134
0.408419
0.508203
0.462208
0.407239
0.504146
0.424121
0.488104
0.477634
0.507108
0.379395
0.326338
0.464545
0.414312
0.500009
0.49213
0.423285
0.480548
0.430231
0.474203
0.491875
0.443453
0.503422
0.430596
0.434324
0.503446
0.351927
0.50566
0.398578
0.500296
0.352342
0.438694
0.335996
0.4228
0.499612
0.496369
0.383123
0.474259
0.435596
0.399801
0.516599
0.358616
0.409342
0.332465
0.502445
0.45998
0.48728
0.471965
0.442771
0.439192
0.503761
0.49947
0.347331
0.444868
0.43054
0.449021
0.503507
0.506613
0.344773
0.300692
0.47753
0.381341
0.493111
0.345715
0.429362
0.500739
0.399603
0.474924
0.494136
0.426788
0.422753
0.508286
0.465506
0.353946
0.492477
0.374007
0.475721
0.492019
0.505137
0.347656
0.291214
0.474257
0.501303
0.406773
0.29681
0.508686
0.288929
0.48279
0.456089
0.478218
0.4048
0.406543
0.469006
0.473755
0.495862
0.494582
0.513481
0.387748
0.357317
0.434723
0.425676
0.50516
0.370555
0.466255
0.495365
0.39331
0.410385
0.507755
0.472428
0.46877
0.482126
0.390916
0.472589
0.494556
0.435719
0.416618
0.506751
0.431716
0.427331
0.474868
0.500189
0.399532
0.388385
0.465276
0.496217
0.383456
0.507992
0.408438
0.480668
0.493238
0.4157
0.489352
0.37908
0.483115
0.41664
0.40017
0.508149
0.476347
0.495135
0.397921
0.40928
0.40399
0.39501
0.509305
0.394592
0.510974
0.507111
0.382676
0.334417
0.417285
0.416259
0.508205
0.278454
0.506474
0.261977
0.444237
0.483888
0.478069
0.412395
0.454608
0.500309
0.50662
0.361983
0.40536
0.495691
0.382519
0.483269
0.45643
0.352126
0.495145
0.458641
0.499186
0.410368
0.443629
0.503665
0.458431
0.497994
0.367945
0.511731
0.358472
0.501376
0.376094
0.473262
0.403638
0.440885
0.503758
0.419313
0.471807
0.496044
0.406059
0.487589
0.485411
0.453521
0.456538
0.495585
0.483925
0.382132
0.487708
0.344576
0.407721
0.503491
0.455934
0.353202
0.497366
0.442398
0.508327
0.383083
0.401293
0.407884
0.383664
0.376615
0.510597
0.510516
0.506881
0.2843
0.272756
0.305386
0.509767
0.294894
0.399822
0.467137
0.494698
0.505986
0.348038
0.387972
0.428718
0.423265
0.390809
0.389209
0.511142
0.5106
0.499201
0.40162
0.310852
0.290693
0.509785
0.273767
0.45816
0.477484
0.483875
0.285052
0.296538
0.50779
0.454952
0.411001
0.50342
0.328614
0.387019
0.506161
0.292925
0.504235
0.234321
0.472571
0.495138
0.431463
0.447992
0.481437
0.486221
0.323031
0.510517
0.332493
0.442252
0.48043
0.48702
0.462365
0.477559
0.482247
0.482433
0.371948
0.495092
0.441418
0.490044
0.480773
0.446213
0.480418
0.480867
0.448883
0.38442
0.507297
0.511647
0.511019
0.357372
0.359907
0.342767
0.33897
0.333782
0.405052
0.503361
0.51264
0.439807
0.373527
0.468011
0.498592
0.415117
0.369637
0.477488
0.487896
0.333694
0.501869
0.252335
0.500121
0.329907
0.423684
0.305048
0.507945
0.334124
0.503817
0.279903
0.231151
0.258161
0.504861
0.247224
0.454896
0.384956
0.498644
0.378774
0.499441
0.285776
0.377068
0.420648
0.505982
0.347632
0.513155
0.32291
0.44182
0.496975
0.461213
0.409694
0.499813
0.318464
0.372479
0.486011
0.480842
0.460681
0.37117
0.497729
0.503243
0.223288
0.20151
0.294886
0.505995
0.252221
0.448253
0.495749
0.461294
0.393688
0.310449
0.501352
0.500077
0.29987
0.397639
0.34983
0.507375
0.383655
0.512698
0.366949
0.380671
0.455245
0.377524
0.509609
0.380165
0.416636
0.513473
0.514664
0.373972
0.343772
0.446955
0.442306
0.42082
0.415918
0.504285
0.506087
0.452611
0.419218
0.503564
0.434534
0.383303
0.513064
0.45809
0.361604
0.496844
0.402304
0.332349
0.504923
0.498853
0.361844
0.445463
0.25938
0.505383
0.258579
0.467962
0.46411
0.497898
0.435241
0.498437
0.441222
0.445371
0.447204
0.507591
0.392867
0.508933
0.400618
0.304598
0.501905
0.236136
0.395949
0.317882
0.502256
0.466905
0.498805
0.400142
0.47027
0.36018
0.492018
0.512832
0.36872
0.387184
0.321891
0.275149
0.505359
0.336067
0.279985
0.504746
0.423282
0.396967
0.511254
0.482946
0.488765
0.421259
0.343473
0.507884
0.372335
0.453234
0.376178
0.501223
0.509886
0.394982
0.378655
0.452476
0.50828
0.398724
0.402983
0.479863
0.489926
0.472197
0.497923
0.419412
0.507435
0.37289
0.333826
0.394946
0.401689
0.509311
0.472411
0.494744
0.435924
0.364486
0.514813
0.334055
0.451569
0.433852
0.5025
0.4349
0.473313
0.492608
0.463001
0.3784
0.496561
0.321881
0.512143
0.304591
0.330288
0.513071
0.305984
0.510817
0.387399
0.379772
0.395057
0.486483
0.48762
0.512021
0.290741
0.310006
0.505515
0.41402
0.368704
0.502467
0.27187
0.219829
0.238786
0.241749
0.506167
0.514056
0.353275
0.374774
0.506527
0.359307
0.312945
0.355098
0.361814
0.509288
0.36297
0.509401
0.374198
0.364164
0.421921
0.504605
0.492847
0.476503
0.358604
0.465722
0.49277
0.450272
0.367763
0.435258
0.50269
0.501559
0.370284
0.442133
0.38221
0.514892
0.344773
0.442949
0.385347
0.510544
0.449637
0.40699
0.503556
0.388492
0.444446
0.504286
0.383704
0.444823
0.503126
0.474338
0.48921
0.443454
0.441903
0.40802
0.509122
0.498945
0.417272
0.316316
0.272981
0.503026
0.344969
0.262643
0.501798
0.347154
0.462122
0.501914
0.421033
0.314897
0.504084
0.260679
0.388586
0.510387
0.390467
0.503423
0.320721
0.249308
0.457466
0.487282
0.470397
0.425508
0.442694
0.503079
0.487932
0.397846
0.485325
0.499622
0.384735
0.295812
0.454465
0.376749
0.499303
0.513237
0.356515
0.334632
0.415667
0.438741
0.50656
0.467521
0.492046
0.453401
0.379071
0.303835
0.502893
0.508483
0.401724
0.36947
0.316523
0.307714
0.509157
0.508905
0.320341
0.312357
0.412842
0.466441
0.498105
0.458951
0.390982
0.496521
0.439986
0.468463
0.495879
0.35946
0.28327
0.365039
0.503103
0.281617
0.501356
0.400785
0.427091
0.507639
0.303438
0.293247
0.369782
0.36139
0.504031
0.503172
0.391723
0.463847
0.500337
0.424382
0.455601
0.500411
0.339453
0.513489
0.320812
0.417874
0.458252
0.498814
0.436566
0.464681
0.494662
0.321539
0.511263
0.316132
0.417612
0.42858
0.50402
0.488253
0.366234
0.485411
0.454867
0.390423
0.507548
0.452179
0.494845
0.340716
0.503938
0.238009
0.213746
0.414575
0.451258
0.501446
0.3447
0.510601
0.341622
0.505757
0.376097
0.464476
0.263209
0.508731
0.260047
0.485908
0.483173
0.484898
0.426187
0.488909
0.421595
0.441498
0.472417
0.491519
0.476722
0.482324
0.491418
0.430737
0.492012
0.428137
0.420155
0.458409
0.501148
0.424045
0.462365
0.500118
0.500749
0.357484
0.267332
0.457132
0.424606
0.500278
0.313582
0.369725
0.505899
0.386766
0.379999
0.436148
0.429538
0.503614
0.503465
0.455534
0.433826
0.500794
0.433412
0.398898
0.508514
0.400822
0.439645
0.50566
0.471152
0.460167
0.485642
0.37577
0.436353
0.503208
0.46651
0.491699
0.448742
0.398343
0.457685
0.501288
0.431792
0.407716
0.507793
0.470068
0.472763
0.454171
0.491044
0.451459
0.490245
0.476902
0.486021
0.482866
0.443736
0.492774
0.433164
0.44719
0.441856
0.427506
0.430624
0.50392
0.50271
0.511302
0.374067
0.382109
0.482833
0.374673
0.490342
0.512591
0.511489
0.368976
0.37676
0.373392
0.370699
0.474357
0.500217
0.389458
0.47162
0.482217
0.468429
0.374485
0.428206
0.504219
0.465059
0.49801
0.430881
0.427414
0.407092
0.508327
0.397089
0.397342
0.377046
0.51289
0.385178
0.511251
0.39209
0.426807
0.505363
0.273207
0.273721
0.508857
0.502446
0.380969
0.467525
0.459439
0.461696
0.506341
0.381713
0.507903
0.386116
0.366691
0.451248
0.498727
0.438218
0.40094
0.508964
0.470615
0.499915
0.390633
0.460607
0.460685
0.5025
0.506955
0.400879
0.40052
0.458674
0.507591
0.391516
0.393108
0.433201
0.505453
0.471133
0.49035
0.448624
0.33097
0.509672
0.33725
0.468447
0.502787
0.385432
0.428325
0.42089
0.412057
0.408483
0.506086
0.50975
0.510187
0.345148
0.339274
0.33936
0.512469
0.328987
0.33055
0.510798
0.327057
0.389489
0.511404
0.38328
0.44216
0.407785
0.507677
0.445319
0.511887
0.52955
0.44823
0.534335
0.34939
0.527752
0.451969
0.476561
0.53075
0.529548
0.474597
0.45518
0.533263
0.520753
0.469132
0.446883
0.517808
0.514608
0.526921
0.523058
0.512148
0.528746
0.514701
0.532282
0.512874
0.537194
0.479932
0.526148
0.44727
0.48476
0.525823
0.524512
0.521132
0.494118
0.529681
0.530929
0.529985
0.457726
0.481606
0.511254
0.506003
0.498119
0.531454
0.508016
0.519286
0.521698
0.512088
0.475074
0.501737
0.528196
0.521291
0.470982
0.525331
0.482683
0.527006
0.529019
0.525104
0.514979
0.531168
0.501681
0.499538
0.531638
0.457305
0.528016
0.528902
0.525362
0.51828
0.529764
0.507032
0.486849
0.493535
0.493238
0.528194
0.48969
0.51958
0.500306
0.492857
0.526627
0.528786
0.51457
0.526099
0.473246
0.475064
0.521757
0.529214
0.521172
0.447381
0.522672
0.527322
0.475368
0.532171
0.532937
0.520581
0.460427
0.316607
0.492618
0.514115
0.46019
0.48506
0.529201
0.529289
0.509705
0.515116
0.470907
0.438265
0.475044
0.479452
0.494134
0.530702
0.529168
0.525079
0.480577
0.4968
0.483695
0.510072
0.523662
0.449067
0.481125
0.515174
0.522592
0.52018
0.511018
0.528272
0.518741
0.492225
0.478977
0.526185
0.420694
0.527784
0.486391
0.524775
0.474236
0.384262
0.438119
0.528383
0.518234
0.471866
0.490411
0.525915
0.464299
0.528994
0.495423
0.485854
0.515927
0.524857
0.471727
0.529358
0.491153
0.5235
0.474372
0.513606
0.458811
0.533456
0.530974
0.520647
0.529362
0.528728
0.529024
0.501528
0.490489
0.484181
0.51677
0.420225
0.472394
0.47644
0.51378
0.517583
0.523804
0.525865
0.524083
0.526039
0.533996
0.529163
0.470945
0.483266
0.477486
0.528401
0.47721
0.470964
0.411113
0.471536
0.518548
0.520387
0.525458
0.526977
0.530137
0.510567
0.533333
0.518193
0.508304
0.377552
0.512285
0.494618
0.485617
0.523212
0.52148
0.492224
0.512572
0.514731
0.526107
0.440144
0.49224
0.527767
0.531424
0.50039
0.474979
0.515845
0.518805
0.511659
0.507314
0.449365
0.406948
0.487648
0.494208
0.481758
0.482072
0.44699
0.528897
0.521775
0.483507
0.524067
0.47405
0.472292
0.528459
0.528218
0.468817
0.472634
0.434117
0.527128
0.486755
0.515603
0.525326
0.526294
0.478301
0.525676
0.509005
0.476511
0.479249
0.528754
0.524222
0.515824
0.532151
0.506534
0.464784
0.474525
0.521465
0.523506
0.470195
0.484859
0.525362
0.524594
0.532047
0.524834
0.471792
0.519137
0.49305
0.525114
0.511607
0.490753
0.5211
0.511976
0.40125
0.475416
0.490408
0.472068
0.49882
0.527483
0.517921
0.524396
0.529151
0.460853
0.519052
0.506122
0.5231
0.516022
0.517848
0.525857
0.477487
0.466747
0.515143
0.474458
0.472198
0.523716
0.389705
0.473336
0.530692
0.525683
0.485271
0.479519
0.48521
0.524154
0.447145
0.399784
0.465254
0.515985
0.523531
0.52143
0.348042
0.466067
0.53163
0.510652
0.441039
0.465723
0.476567
0.482737
0.472363
0.523793
0.529081
0.484392
0.477692
0.499673
0.50102
0.508664
0.430607
0.528605
0.519547
0.389099
0.483108
0.474342
0.483791
0.527836
0.521706
0.524025
0.498791
0.465471
0.513195
0.522111
0.516516
0.502487
0.530208
0.528534
0.505825
0.527474
0.521465
0.497404
0.478112
0.512416
0.452879
0.512227
0.512995
0.485001
0.467409
0.463483
0.465189
0.448884
0.531468
0.472085
0.490847
0.51916
0.520109
0.477344
0.466736
0.532262
0.509844
0.384758
0.510033
0.484535
0.476961
0.531534
0.507536
0.497069
0.516511
0.48617
0.519435
0.484501
0.526633
0.51361
0.502526
0.323045
0.46977
0.485654
0.511642
0.519345
0.520168
0.519945
0.529023
0.461593
0.486613
0.458823
0.422443
0.477426
0.531032
0.499118
0.512322
0.491738
0.516626
0.473976
0.447201
0.464268
0.48204
0.47887
0.533318
0.503536
0.506395
0.520306
0.528833
0.515684
0.532066
0.446813
0.495347
0.476883
0.514426
0.51886
0.525004
0.510726
0.517068
0.485606
0.509079
0.47556
0.427149
0.522622
0.502617
0.424502
0.467872
0.483237
0.467751
0.486449
0.514414
0.522956
0.46884
0.491635
0.477974
0.484109
0.47917
0.496542
0.444014
0.483521
0.52924
0.52751
0.529157
0.52154
0.521653
0.381019
0.527901
0.523783
0.467357
0.530898
0.36792
0.524041
0.493033
0.521543
0.503225
0.527248
0.508425
0.461564
0.520652
0.459249
0.533237
0.523536
0.480985
0.495207
0.447243
0.502745
0.534046
0.493642
0.51708
0.526947
0.476446
0.436178
0.529268
0.376642
0.522015
0.521881
0.475175
0.529349
0.416535
0.412042
0.528327
0.514195
0.524382
0.519409
0.517798
0.517282
0.527646
0.528509
0.526091
0.529111
0.474428
0.499854
0.516111
0.531247
0.499542
0.363383
0.521137
0.488829
0.518744
0.49797
0.529966
0.511208
0.500418
0.529698
0.51111
0.530116
0.466822
0.530396
0.515377
0.524145
0.516854
0.530957
0.496651
0.51624
0.469817
0.454914
0.516747
0.4978
0.515185
0.444052
0.374164
0.476164
0.501608
0.51952
0.505479
0.534386
0.500009
0.472101
0.510198
0.475767
0.528164
0.45119
0.515089
0.515571
0.53189
0.507426
0.520513
0.4621
0.521514
0.531665
0.481655
0.446351
0.520377
0.500971
0.528169
0.531766
0.500084
0.47596
0.513795
0.481977
0.46987
0.526807
0.520668
0.517054
0.447451
0.518611
0.512366
0.527961
0.481749
0.528203
0.520797
0.517675
0.522454
0.45491
0.479066
0.495521
0.357013
0.523325
0.521829
0.51985
0.530367
0.529921
0.510853
0.516213
0.511447
0.526553
0.52728
0.518845
0.516992
0.503239
0.528446
0.521533
0.493823
0.497037
0.502301
0.501261
0.524251
0.488062
0.522045
0.527173
0.477772
0.529288
0.481676
0.470291
0.485454
0.524201
0.512235
0.518581
0.52388
0.52668
0.520324
0.525325
0.520197
0.488929
0.48042
0.466474
0.471458
0.470547
0.306312
0.477009
0.478629
0.524619
0.476555
0.497971
0.522693
0.513222
0.474222
0.488669
0.498156
0.318243
0.526752
0.495926
0.524484
0.476711
0.492383
0.51775
0.454042
0.518196
0.478486
0.521506
0.50115
0.529042
0.443801
0.404279
0.49549
0.501416
0.506249
0.525375
0.406412
0.523289
0.504358
0.473589
0.456
0.490084
0.497051
0.524569
0.447749
0.527376
0.529831
0.524585
0.473324
0.530113
0.476604
0.307966
0.52077
0.480207
0.471527
0.531571
0.5292
0.522646
0.52523
0.504734
0.52186
0.528424
0.520394
0.503105
0.521636
0.531966
0.529619
0.522689
0.520278
0.519178
0.481654
0.477205
0.528183
0.531834
0.528821
0.51529
0.504828
0.485432
0.529058
0.527493
0.281655
0.504713
0.519475
0.470036
0.521607
0.499405
0.517774
0.514475
0.52077
0.487115
0.52619
0.530751
0.510029
0.531476
0.532683
0.406878
0.470495
0.507488
0.475453
0.407049
0.480957
0.519689
0.529821
0.484815
0.510552
0.453182
0.480621
0.514174
0.520705
0.482746
0.47776
0.466257
0.514431
0.489319
0.486056
0.507995
0.524601
0.527417
0.470087
0.528167
0.492559
0.480826
0.518692
0.528901
0.512104
0.508603
0.473943
0.526942
0.479474
0.531582
0.524754
0.527409
0.530958
0.473967
0.473132
0.522059
0.472865
0.479081
0.488651
0.484204
0.471015
0.510313
0.523333
0.475583
0.530708
0.492926
0.512774
0.520031
0.528226
0.519346
0.529432
0.515225
0.4782
0.531222
0.448803
0.520014
0.473286
0.5258
0.527591
0.531074
0.52101
0.533857
0.522532
0.465382
0.481222
0.519253
0.491213
0.527777
0.46589
0.449698
0.510561
0.509095
0.489479
0.477588
0.504545
0.527715
0.526127
0.37645
0.492027
0.436994
0.456191
0.517855
0.509903
0.520107
0.513123
0.531224
0.471809
0.520005
0.522784
0.44224
0.528131
0.496427
0.518124
0.519431
0.514386
0.46988
0.487244
0.521017
0.523246
0.493102
0.515083
0.521874
0.527979
0.513521
0.513366
0.49408
0.514733
0.473705
0.470565
0.425261
0.520766
0.475876
0.48766
0.475398
0.487381
0.529099
0.509647
0.522515
0.528829
0.522378
0.436213
0.512578
0.458392
0.502263
0.52669
0.492547
0.478464
0.502913
0.519771
0.46222
0.492103
0.427569
0.477972
0.523614
0.432624
0.486091
0.531461
0.475509
0.470786
0.518678
0.522792
0.506281
0.463893
0.522911
0.485174
0.489534
0.521888
0.502157
0.522577
0.524824
0.532966
0.494129
0.528675
0.526661
0.525739
0.522603
0.521697
0.439845
0.488082
0.512162
0.470169
0.520515
0.530945
0.528832
0.523472
0.471637
0.475122
0.513932
0.533325
0.460692
0.528774
0.522749
0.53025
0.46968
0.463851
0.473741
0.442246
0.522429
0.460092
0.526988
0.487883
0.528604
0.472362
0.521278
0.475734
0.519403
0.527842
0.523205
0.509375
0.527469
0.52795
0.529624
0.523771
0.503616
0.528503
0.526533
0.48976
0.498676
0.521533
0.485802
0.53211
0.508749
0.526056
0.528147
0.531337
0.489025
0.424736
0.522064
0.501127
0.506214
0.516551
0.525049
0.528359
0.525942
0.499986
0.523795
0.472257
0.493382
0.51984
0.530206
0.519467
0.522175
0.513071
0.530855
0.51591
0.482775
0.529388
0.523182
0.470268
0.493499
0.52555
0.510111
0.474542
0.492025
0.525644
0.506847
0.5211
0.529149
0.534576
0.5291
0.525167
0.47633
0.528305
0.495145
0.508509
0.530767
0.521929
0.471351
0.461603
0.508284
0.52701
0.485171
0.469025
0.524538
0.510661
0.511523
0.52713
0.472884
0.472291
0.502612
0.52922
0.531485
0.521809
0.519925
0.435778
0.523041
0.496886
0.510238
0.52827
0.535517
0.468936
0.47164
0.504456
0.518685
0.528341
0.530126
0.522593
0.496429
0.498616
0.471224
0.474785
0.517344
0.525457
0.404155
0.479345
0.517707
0.518641
0.469053
0.476114
0.523915
0.497315
0.50759
0.52665
0.515777
0.527021
0.530284
0.518047
0.526401
0.504967
0.497036
0.507877
0.526435
0.500192
0.522667
0.406873
0.519942
0.393196
0.510023
0.527985
0.526667
0.529319
0.531451
0.52789
0.491961
0.508096
0.520348
0.446476
0.526598
0.518297
0.488593
0.526669
0.354234
0.479518
0.505009
0.528075
0.529618
0.473791
0.475272
0.520947
0.521274
0.41319
0.49068
0.503784
0.419103
0.462565
0.504468
0.463922
0.520243
0.47565
0.507223
0.520528
0.355669
0.500155
0.519549
0.492042
0.47251
0.51788
0.493666
0.504369
0.479885
0.516344
0.507557
0.486807
0.518632
0.531594
0.492519
0.470259
0.501008
0.473134
0.48102
0.517797
0.437076
0.494275
0.492374
0.517551
0.521463
0.513508
0.516775
0.400501
0.511656
0.519195
0.498821
0.516326
0.509601
0.516148
0.418335
0.405584
0.519618
0.475205
0.517251
0.52955
0.493857
0.514392
0.401125
0.522599
0.503961
0.531611
0.504328
0.498591
0.518074
0.478524
0.496106
0.501825
0.533336
0.473253
0.470373
0.5138
0.528198
0.515202
0.432353
0.504222
0.502271
0.501861
0.499332
0.529533
0.52817
0.529506
0.530786
0.525879
0.482632
0.465291
0.526259
0.489941
0.507986
0.434866
0.466971
0.481743
0.470025
0.518088
0.413203
0.522476
0.491803
0.520811
0.516044
0.516826
0.53072
0.494007
0.52239
0.527396
0.517044
0.520494
0.52766
0.492792
0.52391
0.473918
0.491235
0.529795
0.414404
0.522692
0.52815
0.518722
0.512848
0.511253
0.514893
0.521447
0.519824
0.475715
0.477321
0.525545
0.506278
0.433714
0.529003
0.471065
0.523485
0.47293
0.509681
0.524798
0.528751
0.52658
0.476734
0.522187
0.520123
0.517485
0.530461
0.444611
0.464543
0.525968
0.471865
0.494452
0.532757
0.525761
0.517354
0.467912
0.484126
0.485398
0.483017
0.448315
0.5196
0.493947
0.515115
0.485765
0.520347
0.507065
0.490136
0.448458
0.514438
0.512796
0.482676
0.529789
0.530614
0.45794
0.524077
0.403822
0.490963
0.427641
0.487186
0.520793
0.518196
0.520845
0.511514
0.519049
0.524709
0.524949
0.523113
0.450719
0.509909
0.497362
0.520258
0.470248
0.527978
0.505842
0.479772
0.520533
0.529179
0.473107
0.519972
0.473316
0.525988
0.524929
0.525798
0.437888
0.514317
0.515237
0.525144
0.518861
0.484257
0.473904
0.485147
0.529933
0.530458
0.52732
0.505543
0.519618
0.521994
0.503113
0.523064
0.486909
0.490208
0.521371
0.529451
0.478861
0.53205
0.523909
0.533378
0.517424
0.525887
0.520874
0.498013
0.529515
0.38797
0.520634
0.423603
0.524389
0.531135
0.523123
0.50512
0.493403
0.522299
0.42391
0.448749
0.488922
0.458217
0.522983
0.475438
0.476099
0.444757
0.470304
0.521381
0.528215
0.522447
0.474707
0.49884
0.522956
0.524334
0.501788
0.49833
0.526305
0.529988
0.522185
0.526642
0.528382
0.522397
0.474357
0.511764
0.457813
0.526667
0.520745
0.529881
0.515656
0.516909
0.506827
0.470896
0.503863
0.471888
0.484079
0.478591
0.525168
0.511304
0.517467
0.520593
0.528863
0.52222
0.519059
0.48823
0.5121
0.519951
0.52669
0.500079
0.472283
0.522764
0.524866
0.524031
0.529851
0.528411
0.468004
0.464472
0.467996
0.519612
0.53049
0.43335
0.487651
0.531319
0.479383
0.5061
0.474566
0.516326
0.527144
0.517156
0.524258
0.480336
0.521393
0.523233
0.52801
0.50697
0.488713
0.526012
0.52448
0.511678
0.528654
0.532196
0.43288
0.530451
0.479145
0.497615
0.533052
0.533305
0.516948
0.525612
0.479744
0.529844
0.492446
0.475078
0.526383
0.501405
0.529162
0.510929
0.527226
0.513889
0.528078
0.48661
0.52894
0.47121
0.530295
0.510676
0.519589
0.499964
0.469168
0.474505
0.526125
0.48894
0.502834
0.465786
0.49817
0.53084
0.530478
0.524045
0.522979
0.518168
0.487737
0.504114
0.524424
0.471616
0.490871
0.52423
0.511816
0.507111
0.483917
0.431135
0.472061
0.528988
0.501376
0.530231
0.475957
0.527007
0.523786
0.533344
0.520236
0.503601
0.526851
0.476689
0.525984
0.486249
0.517692
0.461721
0.505685
0.488741
0.471086
0.50502
0.478334
0.471055
0.478404
0.525289
0.52541
0.510189
0.467077
0.529524
0.474778
0.437017
0.516332
0.529266
0.522663
0.477727
0.478516
0.53049
0.463383
0.523248
0.465897
0.482942
0.503477
0.460145
0.532256
0.51471
0.489043
0.526039
0.532717
0.485993
0.52728
0.516057
0.524628
0.518735
0.495933
0.477244
0.528101
0.530163
0.528554
0.448339
0.477676
0.493832
0.516375
0.518512
0.515047
0.462649
0.517126
0.479906
0.525774
0.528119
0.522091
0.4986
0.521385
0.433404
0.517999
0.46132
0.510501
0.451474
0.473797
0.522248
0.52745
0.485352
0.49125
0.525646
0.499247
0.426955
0.468255
0.484308
0.505661
0.381601
0.514605
0.509458
0.526512
0.51156
0.525298
0.525043
0.412449
0.410407
0.53175
0.51545
0.428618
0.496381
0.515876
0.531886
0.524272
0.456691
0.515157
0.462017
0.519002
0.529384
0.521528
0.508598
0.530162
0.480421
0.521661
0.532513
0.4755
0.487814
0.529499
0.528528
0.479495
0.477715
0.449391
0.413146
0.452101
0.516667
0.490569
0.474738
0.445502
0.468869
0.527747
0.458604
0.483907
0.468587
0.529753
0.497041
0.518865
0.488252
0.508656
0.50779
0.516715
0.520064
0.529626
0.469039
0.517679
0.498791
0.509439
0.521323
0.494702
0.53067
0.525891
0.490422
0.520626
0.473456
0.494183
0.513068
0.525896
0.477894
0.51212
0.506736
0.513862
0.52153
0.530854
0.454687
0.480219
0.467763
0.467374
0.53247
0.489841
0.524189
0.527123
0.507003
0.415875
0.470427
0.510374
0.465369
0.519451
0.47356
0.489877
0.490864
0.528807
0.523797
0.513056
0.462749
0.499166
0.474907
0.50943
0.530154
0.522981
0.495406
0.515507
0.500138
0.52251
0.529376
0.527884
0.515848
0.530121
0.519253
0.503124
0.485415
0.474732
0.473487
0.517839
0.519037
0.482491
0.521388
0.488365
0.533133
0.53017
0.476401
0.459461
0.493687
0.513568
0.527965
0.518702
0.529172
0.518419
0.526071
0.528304
0.512506
0.486678
0.518431
0.514773
0.477483
0.49674
0.531171
0.424031
0.350623
0.523304
0.506534
0.530505
0.507654
0.476749
0.468214
0.494717
0.461184
0.502285
0.523376
0.480439
0.529884
0.509824
0.469591
0.492235
0.488435
0.458222
0.527847
0.516916
0.522525
0.464683
0.508034
0.514518
0.468591
0.494282
0.495681
0.490758
0.471019
0.416157
0.533743
0.51789
0.529133
0.527712
0.53188
0.483161
0.515724
0.510183
0.503693
0.448056
0.525834
0.514252
0.502201
0.529106
0.524397
0.529753
0.525086
0.52664
0.516508
0.478342
0.517903
0.520122
0.52878
0.506282
0.47975
0.524736
0.488281
0.489303
0.527744
0.498087
0.528442
0.485273
0.526372
0.516342
0.522358
0.486282
0.522933
0.474879
0.487812
0.49729
0.479893
0.488779
0.488003
0.487054
0.51972
0.465002
0.468264
0.513256
0.524155
0.514443
0.494652
0.525892
0.525172
0.493215
0.523585
0.51705
0.520116
0.467882
0.492478
0.509182
0.473986
0.514386
0.440148
0.521703
0.44259
0.530647
0.514601
0.521397
0.482275
0.473587
0.492953
0.521832
0.49102
0.523433
0.526193
0.520915
0.522617
0.524396
0.51426
0.484546
0.531915
0.51376
0.51945
0.513686
0.481568
0.483036
0.479808
0.531056
0.517893
0.513241
0.51115
0.488975
0.508244
0.460108
0.507827
0.469887
0.529288
0.488201
0.507665
0.520958
0.521829
0.470836
0.507736
0.511112
0.518213
0.519387
0.512125
0.517225
0.495365
0.522462
0.522632
0.517821
0.473485
0.519334
0.474635
0.514991
0.454259
0.48014
0.517336
0.428583
0.471979
0.521071
0.527547
0.470694
0.516567
0.479662
0.447388
0.476341
0.471011
0.4806
0.480547
0.482196
0.530055
0.52064
0.507389
0.530939
0.508734
0.519409
0.519483
0.522149
0.52697
0.489529
0.523881
0.5336
0.521403
0.516912
0.454277
0.528101
0.505631
0.354012
0.524823
0.517838
0.526452
0.527579
0.52615
0.522631
0.494281
0.518022
0.511396
0.512107
0.365541
0.497307
0.450536
0.515001
0.522233
0.463516
0.472511
0.489859
0.481293
0.471174
0.51777
0.512723
0.514921
0.529074
0.480184
0.533524
0.470281
0.510024
0.530032
0.514383
0.515471
0.515385
0.371221
0.482828
0.523107
0.52907
0.481567
0.493051
0.521653
0.529675
0.471941
0.527166
0.486176
0.52308
0.521341
0.506314
0.520082
0.531102
0.52332
0.456318
0.524196
0.522751
0.528803
0.467503
0.514663
0.500008
0.469952
0.482655
0.49303
0.52185
0.522884
0.521924
0.508789
0.45412
0.518074
0.482035
0.480969
0.515443
0.510483
0.469619
0.52213
0.483298
0.487644
0.483051
0.522961
0.470608
0.437706
0.523828
0.502793
0.523623
0.483879
0.454082
0.520633
0.414608
0.514924
0.508609
0.479526
0.471857
0.535546
0.480208
0.471735
0.472338
0.454207
0.494709
0.524175
0.525452
0.472438
0.491764
0.530524
0.51338
0.485729
0.481463
0.505824
0.531601
0.51633
0.481029
0.470427
0.525758
0.533531
0.519999
0.518137
0.518961
0.457492
0.521216
0.528426
0.520892
0.462481
0.528111
0.520219
0.46891
0.525751
0.47575
0.530624
0.513299
0.469916
0.519743
0.514734
0.517451
0.476934
0.525759
0.494664
0.521719
0.524826
0.529917
0.478814
0.489479
0.528452
0.518589
0.498815
0.525381
0.519821
0.480587
0.522368
0.523029
0.478987
0.401565
0.471355
0.500952
0.485592
0.478437
0.478011
0.498252
0.522125
0.468211
0.475872
0.516139
0.470904
0.529876
0.479608
0.524059
0.519461
0.4722
0.522192
0.502304
0.52753
0.52222
0.527872
0.48391
0.480106
0.529513
0.459942
0.527915
0.526194
0.51699
0.491319
0.528609
0.514524
0.476182
0.529699
0.456855
0.52116
0.530248
0.462642
0.529668
0.4776
0.519473
0.387492
0.520217
0.472869
0.523484
0.495571
0.472039
0.499085
0.469552
0.48282
0.527597
0.470939
0.512707
0.523005
0.514776
0.517055
0.518259
0.518714
0.454898
0.532028
0.51571
0.525423
0.486861
0.518539
0.527052
0.504823
0.529118
0.52182
0.524662
0.482448
0.513324
0.440243
0.468141
0.528947
0.319194
0.515345
0.526497
0.490586
0.479536
0.501582
0.514018
0.511188
0.528751
0.519806
0.522357
0.524047
0.531247
0.531164
0.470586
0.52088
0.516099
0.521937
0.524637
0.504965
0.482105
0.47726
0.498175
0.524673
0.505383
0.528679
0.472951
0.48788
0.515743
0.498433
0.519642
0.513786
0.481241
0.49265
0.492403
0.503826
0.479708
0.526004
0.459948
0.504697
0.516807
0.503669
0.467453
0.462653
0.526451
0.457458
0.470384
0.5279
0.521184
0.482369
0.470725
0.473105
0.491083
0.528767
0.522272
0.483192
0.519261
0.520165
0.5339
0.516878
0.487055
0.526133
0.497088
0.517533
0.526122
0.527236
0.520878
0.527518
0.52048
0.463204
0.44952
0.51208
0.491893
0.502104
0.399607
0.411761
0.527926
0.52873
0.478223
0.526547
0.520886
0.527684
0.517645
0.475856
0.532055
0.530627
0.52333
0.459399
0.475427
0.516261
0.528505
0.510214
0.471457
0.50124
0.528417
0.529574
0.525858
0.496252
0.497311
0.514552
0.50549
0.499828
0.524169
0.50632
0.523836
0.398373
0.530426
0.514502
0.521733
0.526548
0.471191
0.478284
0.487732
0.474773
0.529488
0.47998
0.515306
0.401915
0.490093
0.50471
0.482098
0.473441
0.500129
0.465597
0.478512
0.515502
0.50899
0.521678
0.479497
0.522341
0.528484
0.494065
0.518969
0.520936
0.527369
0.519751
0.491416
0.514703
0.471564
0.474344
0.524486
0.525936
0.53035
0.520404
0.45001
0.5162
0.522641
0.504389
0.528631
0.516112
0.528416
0.528487
0.474664
0.474552
0.520476
0.471733
0.525232
0.52202
0.469658
0.525914
0.513696
0.52293
0.519262
0.522943
0.469108
0.502646
0.526019
0.482932
0.521669
0.520933
0.498157
0.523304
0.51245
0.514454
0.524506
0.523011
0.46991
0.529098
0.452601
0.395028
0.496905
0.516181
0.475591
0.530431
0.487139
0.450832
0.50335
0.523902
0.514257
0.362674
0.525211
0.526176
0.524975
0.502779
0.529355
0.523279
0.474708
0.519102
0.509035
0.509251
0.472111
0.523287
0.522579
0.47833
0.472498
0.521096
0.498186
0.470504
0.519324
0.527735
0.47315
0.530244
0.48188
0.444981
0.461025
0.521685
0.511474
0.476382
0.451376
0.468508
0.521749
0.519002
0.528855
0.499298
0.527686
0.463419
0.524668
0.476511
0.478122
0.472929
0.527848
0.512472
0.480963
0.485421
0.519492
0.50466
0.530138
0.531211
0.494996
0.517174
0.523189
0.50352
0.524172
0.51561
0.516202
0.504848
0.478688
0.515206
0.498988
0.537011
0.504307
0.488166
0.44131
0.484233
0.522978
0.513213
0.514399
0.513055
0.514262
0.48866
0.500959
0.461258
0.495258
0.487454
0.526156
0.470871
0.48202
0.477775
0.515765
0.518518
0.478486
0.471496
0.457867
0.53189
0.500562
0.485538
0.476828
0.487347
0.47908
0.508878
0.518097
0.468448
0.529929
0.530575
0.502202