/*--------------------------------*- C++ -*----------------------------------*\
  =========                 |
  \\      /  F ield         | OpenFOAM: The Open Source CFD Toolbox
   \\    /   O peration     | Website:  https://openfoam.org
    \\  /    A nd           | Version:  6
     \\/     M anipulation  |
\*---------------------------------------------------------------------------*/
FoamFile
{
    version     2.0;
    format      ascii;
    class       volVectorField;
    location    "0";
    object      U;
}
// * * * * * * * * * * * * * * * * * * * * * * * * * * * * * * * * * * * * * //

dimensions      [0 1 -1 0 0 0 0];

internalField   nonuniform List<vector> 
13046
(
(-0.492346 0.257278 0)
(-0.466421 0.0504816 -5.56118e-21)
(-0.257531 0.102325 -1.23605e-20)
(-0.489638 0.202996 0)
(-0.305529 0.150862 -1.10964e-20)
(-0.402396 0.0531948 0)
(-0.512456 0.211664 1.62057e-21)
(-0.408529 0.030449 2.85348e-21)
(-0.291272 0.159525 -1.22357e-20)
(-0.642793 0.321106 5.932e-21)
(-0.718947 -0.23602 0)
(-0.06657 0.0930396 8.39168e-21)
(-0.54536 0.267238 -5.15484e-21)
(-0.479285 0.00252526 -8.91515e-21)
(-0.22646 0.116673 6.8217e-21)
(-0.618212 0.366913 -7.58956e-21)
(-0.0675322 0.0648354 2.01431e-20)
(-0.742675 -0.168681 4.78652e-21)
(-0.380395 0.199787 0)
(-0.339421 0.0729971 -6.01739e-21)
(-0.469141 0.145271 1.69096e-20)
(-0.624366 0.358685 -3.26762e-21)
(-0.0667316 0.0717184 -2.6898e-20)
(-0.735473 -0.182297 0)
(-0.465562 0.216918 6.80229e-21)
(-0.431265 0.0740187 -1.3576e-20)
(-0.297812 0.120623 0)
(-0.545053 0.285317 -9.49932e-21)
(-0.496546 -0.00217366 2.60221e-21)
(-0.210912 0.103946 -1.17879e-20)
(-0.491698 0.27066 0)
(-0.483352 0.0534111 0)
(-0.24513 0.0870568 1.25845e-20)
(-0.444014 0.201814 -7.89954e-21)
(-0.316143 0.120913 4.15522e-21)
(-0.422726 0.0926491 2.36437e-20)
(-0.439882 0.187564 -1.21515e-20)
(-0.333265 0.134605 6.32477e-21)
(-0.407134 0.0974871 -1.2167e-20)
(-0.439334 0.291152 8.81727e-21)
(-0.266018 0.0189301 2.34428e-21)
(-0.539913 0.0935614 -8.40346e-21)
(-0.413351 0.150649 5.49829e-21)
(-0.377145 0.150348 9.45435e-21)
(-0.381322 0.119496 0)
(-0.432588 0.15128 3.46305e-21)
(-0.371376 0.164394 -1.44794e-20)
(-0.367426 0.103465 -1.81341e-21)
(-0.504181 0.250647 0)
(-0.455437 0.0361004 -4.00539e-22)
(-0.25261 0.113953 1.72712e-23)
(-0.313334 -0.0606391 1.46584e-20)
(-0.394627 0.319719 0)
(-0.609905 0.118538 -1.03581e-20)
(-0.339945 -0.083394 -2.08804e-20)
(-0.626594 0.129624 -1.66076e-20)
(-0.372842 0.315142 1.38781e-20)
(-0.668436 -0.0416179 -2.09469e-21)
(-0.570643 0.402295 0)
(-0.131165 0.0181266 1.10384e-20)
(-0.624854 0.244173 -4.92066e-21)
(-0.490066 -0.092062 5.37114e-21)
(-0.223584 0.185228 -2.86568e-20)
(-0.110545 0.111671 1.52529e-20)
(-0.656149 -0.168555 -3.47497e-21)
(-0.648768 0.319324 -8.68214e-21)
(-0.555644 0.40851 0)
(-0.660855 -0.019028 0)
(-0.14787 6.2756e-05 0)
(-0.545138 0.401203 -3.92163e-21)
(-0.646194 -0.00640821 0)
(-0.158557 -0.000708754 8.79521e-21)
(-0.690222 -0.0544967 0)
(-0.578353 0.408263 1.03483e-22)
(-0.119995 0.0157764 4.36243e-24)
(-0.392199 0.214739 0)
(-0.324507 0.0632721 6.54632e-21)
(-0.481357 0.133165 -1.2068e-20)
(-0.0992313 0.0348897 1.22691e-20)
(-0.594841 0.398227 -1.24843e-20)
(-0.704161 -0.0913662 0)
(-0.480588 0.219285 3.56826e-21)
(-0.424125 0.0612438 0)
(-0.290176 0.131434 0)
(-0.0986817 0.105294 -1.37382e-20)
(-0.676986 -0.183844 -2.7163e-21)
(-0.650347 0.324054 5.18446e-21)
(-0.680957 0.266501 -9.09752e-21)
(-0.145751 0.165765 0)
(-0.606506 -0.20373 -2.69644e-21)
(-0.17767 0.220912 0)
(-0.716241 0.211708 0)
(-0.57207 -0.25434 3.63582e-22)
(-0.605829 0.31048 0)
(-0.620239 0.308417 4.69946e-21)
(-0.567868 -0.0767329 1.05009e-20)
(-0.57912 -0.09842 -4.93119e-21)
(-0.161532 0.110738 -6.25472e-21)
(-0.154811 0.120272 1.60095e-20)
(-0.161593 0.180828 -7.67194e-22)
(-0.686326 0.253288 8.90011e-21)
(-0.588348 -0.207312 0)
(-0.451201 0.164152 -2.6205e-23)
(-0.355859 0.165778 7.62196e-21)
(-0.370583 0.0871591 0)
(-0.344359 0.27101 0)
(-0.594353 0.157099 -5.07522e-21)
(-0.352453 -0.0499246 0)
(-0.400297 0.300343 1.52532e-20)
(-0.298691 -0.0271449 0)
(-0.578814 0.116667 -1.93729e-20)
(-0.599257 0.306293 0)
(-0.0367661 0.0713297 0)
(-0.707196 -0.277892 -3.94052e-21)
(-0.527609 0.256064 1.42439e-20)
(-0.463888 0.0181471 3.75028e-21)
(-0.24053 0.121477 1.23225e-20)
(-0.608619 0.341419 5.94336e-21)
(-0.600058 0.329414 -1.11643e-20)
(-0.617803 -0.0882175 -8.9039e-21)
(-0.132899 0.0857337 7.19136e-21)
(-0.588553 -0.0720564 5.42515e-21)
(-0.148015 0.0922701 -6.71974e-21)
(-0.632618 0.32512 -5.08954e-21)
(-0.728549 -0.244305 -5.49811e-21)
(-0.0567107 0.0847511 -3.76673e-21)
(-0.577403 0.304842 0)
(-0.534944 -0.0405706 -6.91797e-21)
(-0.181273 0.101874 1.44834e-20)
(-0.458289 0.296719 0)
(-0.250266 0.0302219 -1.16122e-20)
(-0.534019 0.0779587 5.11367e-22)
(-0.193898 0.231593 0)
(-0.71131 0.207478 0)
(-0.555313 -0.235368 0)
(-0.646494 0.297114 0)
(-0.598116 -0.140396 -1.37909e-20)
(-0.149426 0.1372 -1.72291e-20)
(-0.50862 0.281337 0)
(-0.496704 0.0374568 0)
(-0.230648 0.0818536 0)
(-0.571577 0.21127 0)
(-0.413173 -0.0276733 0)
(-0.283125 0.196012 0)
(-0.38763 0.300836 0)
(-0.315475 -0.0422407 0)
(-0.591819 0.125909 1.0437e-20)
(-0.347818 0.261158 -1.59943e-21)
(-0.58312 0.159383 -1.08058e-20)
(-0.35268 -0.0369036 1.26505e-20)
(-0.632454 0.254366 1.18723e-20)
(-0.512501 -0.105104 0)
(-0.206217 0.172315 3.73271e-20)
(-0.334636 0.21917 0)
(-0.544577 0.174216 1.15659e-20)
(-0.361421 0.00174891 -3.18176e-21)
(-0.39602 -0.112303 0)
(-0.64562 0.160258 1.18016e-20)
(-0.425838 -0.127989 0)
(-0.655599 0.175944 6.79713e-21)
(-0.322433 0.290612 0)
(-0.296667 0.274229 0)
(-0.586786 0.187652 1.48047e-21)
(-0.391316 -0.0446445 6.68865e-21)
(-0.304505 0.223943 -7.01257e-21)
(-0.656261 0.309295 -6.09042e-21)
(-0.0744264 0.104191 0)
(-0.701421 -0.245578 -6.80667e-21)
(-0.612311 0.315867 -4.64104e-21)
(-0.042424 0.0748872 -1.72563e-21)
(-0.724274 -0.264913 0)
(-0.645425 0.307243 -7.085e-21)
(-0.615764 -0.14495 0)
(-0.135759 0.126142 1.95998e-20)
(-0.479576 0.338477 0)
(-0.574618 0.060067 2.74335e-21)
(-0.228785 0.00345625 6.84025e-21)
(-0.576364 0.178593 9.81403e-21)
(-0.320766 0.23477 3.34725e-21)
(-0.373685 -0.03054 0)
(-0.0945 0.130118 0)
(-0.668295 -0.249803 0)
(-0.676567 0.286374 5.19617e-21)
(-0.465473 0.324399 0)
(-0.56278 0.0730971 -5.88057e-21)
(-0.241997 0.00936441 1.76333e-21)
(-0.3338 0.229918 0)
(-0.553828 0.169579 0)
(-0.35478 -0.00975606 0)
(-0.555804 0.203184 4.82321e-21)
(-0.401536 -0.0136662 0)
(-0.291498 0.191274 0)
(-0.485132 -0.0245541 -4.81804e-23)
(-0.218152 0.132335 -8.35331e-21)
(-0.56878 0.292485 1.50222e-20)
(-0.517002 -0.0274204 0)
(-0.195469 0.109002 -1.81487e-20)
(-0.67089 0.293335 -9.29445e-21)
(-0.118073 0.135769 1.24201e-20)
(-0.648697 -0.205708 -1.31562e-20)
(-0.188703 0.213794 1.13043e-20)
(-0.696736 0.226388 5.46781e-21)
(-0.559195 -0.212865 1.34832e-20)
(-0.703445 0.238619 -1.56417e-20)
(-0.598952 -0.238336 0)
(-0.154011 0.191156 -1.11217e-20)
(-0.312123 -0.0883167 -7.53447e-22)
(-0.638579 0.104033 4.69665e-21)
(-0.408201 0.357947 0)
(-0.545701 0.232483 -2.1902e-20)
(-0.587768 0.407241 6.30716e-21)
(-0.103438 0.0261056 -7.55879e-21)
(-0.711256 -0.0834783 0)
(-0.617127 -0.251867 0)
(-0.700091 0.248543 -1.43896e-20)
(-0.136499 0.174606 0)
(-0.456058 0.182083 -1.75416e-20)
(-0.335105 0.152119 -6.20885e-21)
(-0.389353 0.0821192 1.79303e-20)
(-0.533454 0.292891 0)
(-0.50475 0.0118596 -3.75088e-22)
(-0.214715 0.0929574 -6.94244e-21)
(-0.19777 0.227102 8.64375e-21)
(-0.70348 0.215578 0)
(-0.550101 -0.221435 -1.55311e-20)
(-0.561406 0.242115 1.75815e-20)
(-0.471276 -0.026585 1.61777e-20)
(-0.229899 0.144378 0)
(-0.0597151 0.0965254 0)
(-0.697708 -0.273896 5.9085e-21)
(-0.646449 0.30024 0)
(-0.38838 0.34607 0)
(-0.644883 0.11352 0)
(-0.332182 -0.102804 0)
(-0.696815 0.23949 1.3729e-20)
(-0.584793 -0.221739 0)
(-0.164139 0.192454 -6.32117e-24)
(-0.62081 0.1831 4.37687e-21)
(-0.404508 -0.0859859 -5.17738e-21)
(-0.298035 0.248701 0)
(-0.572758 0.317282 0)
(-0.546351 -0.0350854 6.45793e-21)
(-0.174743 0.090137 1.14256e-20)
(-0.494516 -0.206514 -1.9207e-20)
(-0.704434 0.17927 -9.8236e-21)
(-0.252921 0.277156 6.8071e-21)
(-0.671657 0.17407 0)
(-0.443111 -0.150333 -7.49808e-21)
(-0.288776 0.279759 -2.43481e-22)
(-0.0585067 0.0993445 -1.10601e-20)
(-0.682229 -0.285789 0)
(-0.648898 0.287375 -5.56372e-21)
(-0.43142 0.322066 8.14364e-21)
(-0.272995 -0.0204057 -8.53658e-21)
(-0.581347 0.09552 8.59561e-22)
(-0.554503 0.327193 5.08144e-21)
(-0.0247964 0.0514234 -1.62227e-20)
(-0.737602 -0.243022 0)
(-0.35931 0.186794 -3.60766e-21)
(-0.474298 0.158675 -1.36562e-20)
(-0.353537 0.0668018 1.80297e-20)
(-0.614765 0.208919 5.31195e-21)
(-0.609627 0.19216 3.1887e-23)
(-0.434219 -0.0799109 -1.24695e-20)
(-0.408114 -0.0725889 0)
(-0.291947 0.234648 6.37463e-21)
(-0.266063 0.215857 -6.62689e-21)
(-0.0883615 0.0409889 -1.60551e-20)
(-0.599399 0.39409 6.57201e-21)
(-0.721149 -0.105489 -1.16728e-20)
(-0.557632 0.319433 0)
(-0.544353 -0.0141377 0)
(-0.183972 0.0798414 -1.50606e-20)
(-0.68131 0.185354 -2.55037e-21)
(-0.469179 -0.169797 0)
(-0.267956 0.268566 0)
(-0.627877 0.32135 -5.75845e-21)
(-0.610967 -0.114387 0)
(-0.135893 0.109008 7.1712e-21)
(-0.405814 0.160698 3.71082e-21)
(-0.397876 0.126061 5.4202e-21)
(-0.368006 0.136624 -1.8544e-21)
(-0.643738 0.188713 -8.68229e-21)
(-0.432209 -0.11501 0)
(-0.282775 0.253406 -1.11747e-20)
(-0.556069 0.331541 0)
(-0.560163 -0.0137431 8.06763e-21)
(-0.176001 0.067785 -9.74267e-21)
(-0.564543 0.259374 0)
(-0.579189 0.266312 1.76395e-21)
(-0.433001 0.332331 2.96306e-21)
(-0.272142 -0.0313113 2.47865e-20)
(-0.592045 0.0938349 -2.06946e-20)
(-0.650832 0.201671 -8.9906e-21)
(-0.456046 -0.128022 1.09335e-20)
(-0.259972 0.237517 1.01991e-20)
(-0.637376 0.31923 0)
(-0.129774 0.114624 -2.52261e-20)
(-0.622839 -0.13198 -6.89897e-21)
(-0.403888 0.287582 -2.1052e-20)
(-0.296743 -0.0144067 0)
(-0.565165 0.119693 6.54225e-21)
(-0.330465 0.306777 -1.30437e-20)
(-0.654898 0.151193 -6.81795e-21)
(-0.392219 -0.124718 0)
(-0.583802 0.355543 -5.71336e-21)
(-0.611672 -0.0524526 -7.16757e-21)
(-0.139468 0.0616468 4.48013e-21)
(-0.412193 0.332639 1.07171e-21)
(-0.298435 -0.0548888 0)
(-0.609493 0.108673 1.42562e-20)
(-0.59337 0.36207 0)
(-0.603191 0.356196 0)
(-0.631396 -0.0670891 -4.66958e-21)
(-0.12939 0.0625315 -1.16458e-20)
(-0.635155 -0.0840658 6.60787e-21)
(-0.124892 0.0730815 1.23874e-20)
(-0.0974322 0.124713 -9.67313e-21)
(-0.673351 -0.233124 0)
(-0.671246 0.296969 -6.85906e-21)
(-0.587115 0.330459 6.59708e-21)
(-0.576029 -0.0554606 0)
(-0.155289 0.0849027 3.94419e-21)
(-0.652337 -0.278053 1.13683e-20)
(-0.0198576 0.0524341 1.4205e-20)
(-0.533349 0.28491 1.32606e-20)
(-0.518014 0.160472 -6.28711e-21)
(-0.353737 0.214547 0)
(-0.345511 0.0279424 0)
(-0.606977 0.241711 1.19362e-20)
(-0.47314 -0.0704231 0)
(-0.230995 0.177486 2.18616e-20)
(-0.12613 0.133844 -7.86608e-21)
(-0.664361 0.296564 1.89476e-20)
(-0.63435 -0.184698 9.8476e-21)
(-0.346171 -0.0963985 0)
(-0.637506 0.128662 6.19444e-21)
(-0.368108 0.326025 -1.57253e-20)
(-0.514421 -0.213092 -2.35803e-20)
(-0.704968 0.191867 -6.08545e-21)
(-0.231362 0.257944 0)
(-0.445589 -0.00467344 -1.61679e-20)
(-0.251042 0.150677 0)
(-0.60662 0.273534 1.31676e-20)
(-0.511008 -0.0709074 5.93584e-21)
(-0.197917 0.143188 6.68029e-21)
(-0.432778 -0.0111213 9.51358e-21)
(-0.261146 0.16297 6.94024e-23)
(-0.619277 0.367064 -4.54143e-22)
(-0.0764234 0.0650386 9.43831e-21)
(-0.726369 -0.153174 -7.03203e-21)
(-0.301235 -0.0963722 0)
(-0.647593 0.093634 1.50928e-21)
(-0.423031 0.373995 0)
(-0.618125 0.27877 -1.34104e-20)
(-0.531403 -0.0866481 -7.24893e-21)
(-0.187125 0.146362 -8.21487e-21)
(-0.581404 0.204265 0)
(-0.406431 -0.0405768 -9.72153e-21)
(-0.287413 0.207904 0)
(-0.598063 0.14245 0)
(-0.337126 -0.0542596 0)
(-0.36455 0.285729 0)
(-0.498136 0.234825 -4.94883e-21)
(-0.438459 0.0448203 -8.8484e-21)
(-0.271056 0.125404 3.53731e-23)
(-0.349486 0.319605 1.61884e-20)
(-0.650439 0.139884 1.66832e-20)
(-0.373468 -0.115273 1.06609e-20)
(-0.683172 0.274258 -8.40539e-21)
(-0.631249 -0.219532 1.12084e-20)
(-0.128201 0.152234 -1.17354e-20)
(-0.521913 -0.204619 1.5925e-20)
(-0.699092 0.202888 6.16806e-21)
(-0.221806 0.244374 8.59502e-21)
(-0.519016 0.395921 -1.20612e-20)
(-0.189044 -0.0156506 1.32255e-20)
(-0.631855 0.0217417 -1.0045e-20)
(-0.596538 0.382349 3.56016e-21)
(-0.590526 0.379059 -3.19202e-21)
(-0.655906 -0.0683968 -1.49105e-21)
(-0.674855 -0.0808637 0)
(-0.110722 0.0471021 -4.29967e-21)
(-0.12051 0.0463752 -3.77238e-21)
(-0.0225667 0.0525187 -1.92219e-20)
(-0.681599 -0.267606 -1.25193e-20)
(-0.543537 0.296146 3.18983e-21)
(-0.565372 0.335452 -3.18686e-22)
(-0.0284629 0.0524898 2.24455e-20)
(-0.753101 -0.236424 0)
(-0.629739 0.2158 -1.94482e-20)
(-0.456741 -0.0959482 -2.82176e-21)
(-0.255692 0.215864 0)
(-0.106091 0.125047 -2.39148e-20)
(-0.667662 0.299736 6.81788e-21)
(-0.665461 -0.212332 0)
(-0.555737 0.379979 1.72193e-20)
(-0.567914 0.378049 -1.29308e-20)
(-0.623117 -0.0191175 7.69175e-21)
(-0.628903 -0.0334088 2.93768e-21)
(-0.155607 0.0250097 -7.44879e-21)
(-0.143686 0.0355442 -3.73264e-21)
(-0.117942 0.166905 0)
(-0.619224 -0.280765 0)
(-0.704168 0.236156 2.60987e-21)
(-0.521146 0.322966 -5.96796e-21)
(-0.0192174 0.0431351 0)
(-0.727096 -0.234768 0)
(-0.442912 0.1285 -4.45487e-23)
(-0.399916 0.193137 7.93322e-21)
(-0.33534 0.0962593 4.00018e-21)
(-0.568792 0.309962 -1.07154e-20)
(-0.711607 -0.267439 5.76515e-21)
(-0.028374 0.0595165 1.05143e-21)
(-0.503225 0.339293 0)
(-0.568276 0.0401463 -1.26583e-20)
(-0.209184 0.0220822 2.41046e-24)
(-0.683019 0.278304 6.08244e-23)
(-0.657089 -0.250804 1.61871e-20)
(-0.106116 0.14006 1.75134e-24)
(-0.574059 -0.295612 3.44944e-22)
(-0.0199275 0.0527049 -8.18832e-21)
(-0.516008 0.229023 -5.32659e-21)
(-0.422723 0.273691 -7.5988e-21)
(-0.281632 0.0261989 7.40319e-21)
(-0.52848 0.107713 2.05143e-20)
(-0.493553 0.17235 0)
(-0.364333 0.0497947 -1.99853e-20)
(-0.340937 0.186955 1.02381e-20)
(-0.62253 0.336666 0)
(-0.0519797 0.0773196 1.12397e-20)
(-0.740881 -0.234076 -1.93534e-25)
(-0.50791 0.174339 0)
(-0.360422 0.0367488 -7.05378e-21)
(-0.335665 0.197295 -1.44593e-20)
(-0.430151 0.133329 8.14945e-21)
(-0.39522 0.180079 -4.21665e-21)
(-0.348374 0.107064 2.10368e-21)
(-0.376106 0.351768 7.82899e-21)
(-0.662119 0.119343 -5.97616e-21)
(-0.355123 -0.126666 1.17896e-20)
(-0.494454 0.138066 0)
(-0.322144 0.0508511 0)
(-0.382398 0.225562 1.19007e-21)
(-0.513004 0.152275 9.9517e-21)
(-0.33376 0.0369277 5.44754e-21)
(-0.370013 0.225918 1.69172e-22)
(-0.504511 0.391596 1.82977e-20)
(-0.628393 0.033921 -9.91401e-21)
(-0.205817 -0.0285731 -1.305e-20)
(-0.0721622 0.0884883 1.69336e-20)
(-0.0745379 0.0943044 -1.71746e-20)
(-0.722888 -0.205864 4.77553e-21)
(-0.712979 -0.217407 3.31668e-21)
(-0.638603 0.339837 0)
(-0.645487 0.330775 -6.07347e-21)
(-0.688438 0.270508 1.0311e-20)
(-0.637919 -0.233397 -1.0066e-20)
(-0.121872 0.155189 1.45166e-20)
(-0.178053 -0.0215471 -8.47866e-21)
(-0.527855 0.409396 3.77923e-21)
(-0.648368 0.0117423 1.28147e-20)
(-0.445413 0.316485 -7.43628e-21)
(-0.259078 -0.002811 -7.77631e-21)
(-0.567009 0.0863665 6.4727e-21)
(-0.681081 0.158249 0)
(-0.43293 -0.16168 7.75582e-21)
(-0.304951 0.302381 2.51953e-22)
(-0.606157 -0.314897 5.74466e-21)
(-0.0425612 0.0847826 -7.63283e-21)
(-0.606495 0.235046 -4.52484e-21)
(-0.16137 0.20542 0)
(-0.712776 0.222749 0)
(-0.586218 -0.256896 6.80419e-21)
(-0.629424 0.312608 5.31455e-21)
(-0.0519355 0.0855844 0)
(-0.717902 -0.264368 -5.79826e-21)
(-0.0142907 0.0429327 -3.02639e-32)
(-0.545613 -0.281558 -5.29589e-21)
(-0.474702 0.21874 5.42052e-21)
(-0.581522 -0.243223 5.92672e-21)
(-0.0104087 0.0360027 3.01946e-32)
(-0.453789 0.255438 -4.8178e-21)
(-0.508271 -0.137933 -1.50634e-20)
(-0.657477 0.232801 0)
(-0.221017 0.20484 -2.19651e-20)
(-0.626314 -0.303211 -3.10452e-21)
(-0.0842527 0.135214 -7.78918e-21)
(-0.685098 0.237718 0)
(-0.656691 0.288348 -8.84593e-21)
(-0.59645 -0.156465 8.5652e-21)
(-0.151371 0.146924 1.14699e-20)
(-0.595768 0.37449 1.54887e-20)
(-0.0489921 0.0504719 6.86224e-21)
(-0.780826 -0.177101 0)
(-0.531685 0.240102 3.83471e-21)
(-0.255654 0.141705 -4.17709e-21)
(-0.445302 0.0108824 3.89425e-21)
(-0.610665 -0.274275 3.51663e-21)
(-0.131534 0.180009 8.19767e-21)
(-0.708032 0.232187 2.83378e-21)
(-0.673578 0.150828 -6.79035e-21)
(-0.320924 0.313176 -4.46232e-21)
(-0.413963 -0.14892 0)
(-0.481921 -0.168379 0)
(-0.678566 0.196798 0)
(-0.250785 0.25342 0)
(-0.00295112 0.0156153 0)
(-0.342572 -0.158062 -4.40019e-21)
(-0.274564 0.131746 4.10175e-21)
(-0.638912 -0.294606 5.69439e-21)
(-0.0240473 0.0587255 -9.88464e-21)
(-0.550731 0.271079 -5.50805e-21)
(-0.51565 0.229928 -9.86618e-21)
(-0.270859 0.141987 9.81724e-21)
(-0.431296 0.0268338 4.49481e-21)
(-0.641227 -0.27144 1.44107e-20)
(-0.693836 0.257869 -5.76814e-21)
(-0.104186 0.14942 0)
(-0.111042 0.164345 -8.62603e-21)
(-0.705251 0.230715 0)
(-0.615044 -0.293313 -1.07858e-20)
(-0.657666 0.316169 -6.22316e-21)
(-0.096533 0.111931 2.56542e-20)
(-0.679191 -0.200934 0)
(-0.0881845 0.0593447 -1.93978e-20)
(-0.707855 -0.123782 7.38129e-21)
(-0.61248 0.375939 0)
(-0.492713 0.401545 -2.29923e-20)
(-0.64045 0.0422863 1.2637e-20)
(-0.222766 -0.0479188 -4.15231e-21)
(-0.653519 -0.0512448 2.23164e-21)
(-0.577602 0.389605 7.5171e-21)
(-0.130027 0.0321727 -1.17828e-20)
(-0.0720022 0.0462205 -1.74386e-20)
(-0.603146 0.388032 0)
(-0.748178 -0.135333 0)
(-0.522883 0.324076 -3.58455e-21)
(-0.538801 0.334536 0)
(-0.545012 0.0226566 -1.31647e-20)
(-0.559934 0.00663468 1.40688e-20)
(-0.200151 0.0542823 1.9778e-21)
(-0.185686 0.0539981 -2.10884e-21)
(-0.506667 0.326291 3.44033e-21)
(-0.55076 0.0380627 0)
(-0.211089 0.0395838 3.80186e-21)
(-0.547077 0.390983 0)
(-0.632673 -0.0104486 -1.24258e-20)
(-0.160081 0.0112181 2.68819e-21)
(-0.509527 -0.189218 -7.87414e-21)
(-0.690385 0.203826 6.3143e-21)
(-0.229183 0.241173 -1.77001e-20)
(-0.627262 -0.248335 0)
(-0.693405 0.259834 1.57332e-20)
(-0.124917 0.163343 0)
(-0.200561 0.213599 -5.69065e-21)
(-0.6877 0.226098 -4.08555e-21)
(-0.542888 -0.193081 -5.15086e-21)
(-0.620874 -0.244986 -8.12255e-22)
(-0.0120117 0.0385931 5.26934e-21)
(-0.476874 0.275114 0)
(-0.457223 0.275363 6.83217e-21)
(-0.464939 0.266693 0)
(-0.259438 0.0557478 0)
(-0.505894 0.0819825 2.51017e-20)
(-0.260687 0.071016 0)
(-0.490955 0.0745173 -1.59358e-20)
(-0.526944 0.376157 0)
(-0.510553 0.365967 0)
(-0.198643 0.00477917 3.17454e-23)
(-0.609535 0.0149074 7.70252e-21)
(-0.183952 0.0101417 1.96088e-20)
(-0.597542 0.0297073 -1.62667e-20)
(-0.555278 -0.306672 0)
(-0.0250143 0.0606697 1.11549e-20)
(-0.538026 0.217756 0)
(-0.642884 -0.263332 -8.49039e-21)
(-0.69276 0.262852 1.74991e-21)
(-0.107967 0.14758 5.16741e-21)
(-0.449961 0.344975 -1.28834e-20)
(-0.259915 -0.0332777 -8.94853e-21)
(-0.599077 0.0809021 2.14987e-20)
(-0.474312 -0.188426 1.70785e-20)
(-0.694894 0.175102 1.64194e-20)
(-0.26791 0.282662 0)
(-0.093705 0.053905 2.07419e-20)
(-0.700864 -0.111737 -7.85407e-21)
(-0.607854 0.379988 8.35824e-21)
(-0.675977 -0.294758 0)
(-0.610596 0.284639 0)
(-0.0396638 0.0785284 0)
(-0.672343 -0.294913 0)
(-0.630951 0.278828 4.91074e-21)
(-0.0501025 0.0915438 1.8813e-21)
(-0.572144 0.365119 -7.14083e-21)
(-0.613336 -0.0387639 4.45341e-21)
(-0.145462 0.0490727 5.52495e-21)
(-0.391825 0.274907 -1.99485e-21)
(-0.308002 -0.0070923 0)
(-0.557028 0.13097 -7.08278e-23)
(-0.654327 0.319347 7.25126e-21)
(-0.0865424 0.105452 1.49919e-20)
(-0.69655 -0.212551 -3.86311e-21)
(-0.514745 -0.156003 0)
(-0.668358 0.228919 0)
(-0.217476 0.214438 1.89365e-20)
(-0.114125 0.104511 4.81952e-21)
(-0.650318 -0.146394 1.18203e-20)
(-0.63864 0.330421 1.87427e-20)
(-0.497985 0.366325 0)
(-0.211145 -0.0070873 -1.30839e-20)
(-0.599868 0.0402415 8.30453e-21)
(-0.613598 0.17023 7.51861e-23)
(-0.382232 -0.0738899 7.5998e-21)
(-0.322201 0.263171 0)
(-0.43192 0.298088 1.06125e-22)
(-0.271485 0.00327282 -2.53634e-21)
(-0.555265 0.0981109 -8.48191e-21)
(-0.086701 0.11257 8.57513e-24)
(-0.691426 -0.231763 9.1591e-21)
(-0.66147 0.307426 8.19187e-21)
(-0.620362 0.337579 -3.41659e-21)
(-0.629175 -0.108446 -3.47489e-21)
(-0.126363 0.0938511 0)
(-0.429947 0.265679 -7.40967e-21)
(-0.279614 0.0428964 1.58922e-20)
(-0.512491 0.103235 -1.35159e-20)
(-0.599091 0.387409 6.01532e-21)
(-0.061949 0.0446596 7.78487e-21)
(-0.766674 -0.149649 -5.56693e-21)
(-0.503009 0.296145 -4.34705e-21)
(-0.513175 0.0394511 0)
(-0.223721 0.0666328 0)
(-0.544419 0.190759 -1.79171e-20)
(-0.380537 0.000751932 4.38745e-21)
(-0.311581 0.202157 0)
(-0.478687 -0.149747 0)
(-0.666903 0.203691 1.28481e-20)
(-0.2482 0.24128 0)
(-0.580997 0.352094 -3.43989e-21)
(-0.0353603 0.0534738 -2.41167e-21)
(-0.775882 -0.217093 6.34082e-21)
(-0.580071 0.362079 9.49573e-21)
(-0.0365985 0.0501866 0)
(-0.784107 -0.202007 -6.07145e-21)
(-0.106277 0.0927993 4.4194e-21)
(-0.664503 -0.141302 -7.03939e-21)
(-0.63247 0.341381 -1.71896e-20)
(-0.627653 0.157231 -6.00379e-21)
(-0.379415 -0.0913166 -7.62592e-21)
(-0.333702 0.282816 0)
(-0.0273915 0.0475097 2.20958e-21)
(-0.770802 -0.224511 -5.92857e-21)
(-0.556487 0.344602 0)
(-0.141797 0.146275 0)
(-0.612203 -0.175634 -7.22112e-21)
(-0.664562 0.286622 -2.15857e-21)
(-0.0111442 0.0355651 8.89474e-21)
(-0.467745 -0.26679 5.96248e-21)
(-0.423613 0.177429 0)
(-0.386397 0.234994 -5.40519e-21)
(-0.527816 -0.204142 0)
(-0.00611582 0.026176 8.90925e-21)
(-0.0774404 0.0553177 1.52975e-23)
(-0.73205 -0.138339 0)
(-0.61012 0.380004 0)
(-0.0715349 0.107495 0)
(-0.692695 -0.261772 0)
(-0.659511 0.299083 1.1048e-20)
(-0.63603 0.344229 -6.34857e-21)
(-0.638783 0.341079 5.13967e-21)
(-0.0781221 0.0844976 -8.48761e-21)
(-0.716298 -0.183667 -1.56631e-21)
(-0.0876464 0.090144 -1.37206e-20)
(-0.696708 -0.173638 2.82434e-21)
(-0.67195 0.273795 4.1504e-21)
(-0.599871 -0.183169 4.76589e-21)
(-0.151262 0.159674 0)
(-0.292573 0.30561 0)
(-0.450038 -0.182976 0)
(-0.69472 0.160449 0)
(-0.463997 0.242144 0)
(-0.277122 0.0946725 -2.16206e-20)
(-0.462134 0.0755923 8.75443e-21)
(-0.677401 0.247096 1.17962e-20)
(-0.560227 -0.180919 1.75159e-21)
(-0.182186 0.189999 1.67973e-20)
(-0.198314 0.203872 1.09362e-20)
(-0.67816 0.236418 -1.63989e-20)
(-0.542458 -0.177844 -2.43081e-21)
(-0.596471 0.399208 6.70759e-21)
(-0.0780126 0.0368572 8.34835e-21)
(-0.74444 -0.116371 1.21944e-20)
(-0.529844 0.386021 0)
(-0.622119 0.0104193 3.69171e-21)
(-0.178136 0.00293726 -1.9219e-20)
(-0.515207 0.350175 0)
(-0.58027 0.0285878 1.66243e-20)
(-0.198032 0.0194863 3.10749e-23)
(-0.647664 0.255867 -1.50804e-20)
(-0.531202 -0.12945 2.11227e-21)
(-0.196941 0.176906 -9.50925e-21)
(-0.656823 0.248782 0)
(-0.531098 -0.141969 1.9836e-21)
(-0.200214 0.186506 8.76232e-21)
(-0.418387 0.249606 0)
(-0.293338 0.0519493 -2.50917e-20)
(-0.500044 0.112343 7.55862e-21)
(-0.540001 0.345093 0)
(-0.573034 0.00233884 0)
(-0.178441 0.043401 2.87437e-21)
(-0.143708 0.19558 -1.77598e-20)
(-0.594779 -0.276515 -1.91874e-20)
(-0.715934 0.221284 0)
(-0.641741 0.261561 6.77243e-21)
(-0.0541202 0.0984276 0)
(-0.645827 -0.305988 4.14048e-21)
(-0.6331 0.242954 -8.14339e-23)
(-0.0516788 0.0967192 0)
(-0.623909 -0.311777 -1.18885e-20)
(-0.472488 0.313046 5.152e-21)
(-0.237737 0.0274072 -2.76474e-21)
(-0.545094 0.0663406 -1.11417e-22)
(-0.648033 -0.299602 1.76075e-22)
(-0.033275 0.0713661 1.51218e-20)
(-0.589455 0.268342 0)
(-0.62373 0.346934 1.47341e-20)
(-0.112021 0.0870175 9.26808e-21)
(-0.655257 -0.12182 0)
(-0.0344791 0.0741026 -2.24701e-21)
(-0.610175 -0.311708 -6.41743e-21)
(-0.584759 0.241902 0)
(-0.48197 0.190343 1.21842e-20)
(-0.323802 0.162669 1.29941e-20)
(-0.387762 0.0618365 6.36772e-23)
(-0.583086 0.281585 -2.20054e-21)
(-0.508289 -0.0413524 -2.15921e-21)
(-0.202401 0.127599 -9.80963e-21)
(-0.355711 -0.0795936 1.73602e-20)
(-0.619782 0.145181 1.39942e-20)
(-0.354626 0.294119 0)
(-0.0932465 0.143027 0)
(-0.630851 -0.29438 -3.88986e-21)
(-0.691786 0.243497 0)
(-0.502247 -0.161169 0)
(-0.67216 0.217906 0)
(-0.228696 0.226484 0)
(-0.0581779 0.053153 0)
(-0.604478 0.376434 -5.69584e-21)
(-0.767092 -0.16536 5.45503e-21)
(-0.59824 0.286073 0)
(-0.522553 -0.0609866 1.0711e-21)
(-0.191672 0.131433 9.59589e-21)
(-0.456411 0.230688 0)
(-0.289956 0.10229 1.85532e-20)
(-0.450987 0.0820734 0)
(-0.650107 -0.282269 -1.36353e-20)
(-0.684345 0.262258 5.47645e-21)
(-0.0907914 0.136108 0)
(-0.122606 0.123708 -1.0124e-20)
(-0.638607 -0.171271 4.59576e-22)
(-0.65444 0.308757 1.44699e-22)
(-0.603749 0.337215 0)
(-0.595137 0.332961 6.49318e-21)
(-0.0417271 0.0668406 -5.53434e-21)
(-0.0373731 0.0650661 -6.81523e-21)
(-0.751804 -0.235456 -3.89184e-21)
(-0.746719 -0.245475 3.20003e-21)
(-0.600788 0.21771 0)
(-0.434167 -0.06381 2.9117e-20)
(-0.264637 0.202404 1.03691e-20)
(-0.484999 -0.120274 2.11341e-20)
(-0.645985 0.224906 0)
(-0.232749 0.209343 -1.14934e-20)
(-0.52491 0.205771 -1.0087e-20)
(-0.398666 0.0175189 7.49198e-21)
(-0.292935 0.173078 1.5947e-20)
(-0.648488 -0.30259 9.04696e-21)
(-0.663739 0.25922 7.21125e-21)
(-0.632994 -0.307583 -4.31164e-21)
(-0.0666427 0.112902 0)
(-0.669856 0.245189 -6.96754e-21)
(-0.0716883 0.119578 0)
(-0.625405 0.296528 0)
(-0.563656 -0.103922 0)
(-0.166556 0.133237 1.07491e-20)
(-0.674798 0.272409 9.82623e-21)
(-0.665919 0.270482 -1.83629e-20)
(-0.664527 -0.281277 5.93391e-21)
(-0.664805 -0.29086 -1.48834e-20)
(-0.0792018 0.122834 1.52089e-20)
(-0.0693592 0.113078 1.8761e-24)
(-0.641589 0.215793 0)
(-0.464268 -0.114098 -1.94741e-20)
(-0.252466 0.225861 1.49084e-20)
(-0.575494 0.24133 9.55991e-21)
(-0.468673 -0.0425614 -1.29753e-20)
(-0.229857 0.156801 0)
(-0.597799 0.365847 0)
(-0.0458262 0.0555087 0)
(-0.775947 -0.194107 5.83216e-21)
(-0.598326 0.230538 7.03306e-21)
(-0.450255 -0.0590635 -8.08984e-21)
(-0.249743 0.18753 -1.72167e-20)
(-0.543365 0.217312 4.0812e-21)
(-0.415122 -0.00216308 -8.78243e-21)
(-0.277576 0.171389 9.36029e-21)
(-0.595836 0.346602 0)
(-0.0414672 0.0611236 0)
(-0.766219 -0.22365 -8.0288e-21)
(-0.595786 0.300001 0)
(-0.544597 -0.0609191 2.29685e-21)
(-0.175175 0.11555 -1.06823e-20)
(-0.401224 -0.152287 0)
(-0.677778 0.140508 0)
(-0.33677 0.331776 -5.7677e-22)
(-0.494079 0.376658 -5.8613e-22)
(-0.612521 0.0439261 0)
(-0.214741 -0.020901 2.03624e-20)
(-0.53362 -0.233407 9.24637e-21)
(-0.213451 0.252892 0)
(-0.714208 0.194188 0)
(-0.00608087 0.024832 -2.14086e-20)
(-0.447712 -0.208598 6.15792e-21)
(-0.361679 0.178798 -5.74194e-21)
(-0.599441 0.257107 0)
(-0.482846 -0.0590827 7.97046e-21)
(-0.219821 0.158839 -8.81865e-21)
(-0.619764 0.355736 1.06156e-20)
(-0.058819 0.0702366 2.87374e-20)
(-0.749419 -0.193025 0)
(-0.260783 -0.071667 -5.44766e-21)
(-0.643118 0.0684027 -8.26739e-21)
(-0.457992 0.389736 -5.205e-21)
(-0.465304 0.291201 0)
(-0.0117006 0.0353805 -8.01496e-21)
(-0.656361 -0.231689 0)
(-0.360464 0.244297 9.92504e-21)
(-0.366747 0.261022 -1.01652e-20)
(-0.332452 -0.00241914 0)
(-0.548197 0.151521 8.67226e-21)
(-0.329439 -0.0179699 -1.6268e-20)
(-0.564374 0.144636 -6.98828e-21)
(-0.523545 0.191335 9.49065e-21)
(-0.379497 0.0219519 9.90131e-21)
(-0.313605 0.188896 0)
(-0.402495 0.265884 8.75836e-21)
(-0.381992 0.250984 0)
(-0.298048 0.0157293 -8.99658e-21)
(-0.5355 0.122276 7.77663e-21)
(-0.313302 0.01631 9.06348e-21)
(-0.532268 0.13671 5.40272e-23)
(-0.587198 0.253936 6.07602e-22)
(-0.446719 -0.0326205 -5.63436e-21)
(-0.249409 0.168785 -1.15616e-20)
(-0.580175 0.231664 -1.64438e-20)
(-0.440149 -0.0382292 1.49394e-22)
(-0.257956 0.180867 0)
(-0.0614797 0.110047 0)
(-0.613993 -0.316527 0)
(-0.653966 0.234185 7.60927e-21)
(-0.491037 0.313532 -4.75265e-21)
(-0.539385 0.0527097 0)
(-0.225211 0.0406953 5.12366e-21)
(-0.671092 0.286092 -1.75379e-20)
(-0.675423 -0.266472 6.84007e-21)
(-0.0806758 0.120103 -8.67534e-21)
(-0.647408 0.270933 0)
(-0.655976 0.275095 8.51976e-21)
(-0.554907 -0.132823 -2.63174e-21)
(-0.573914 -0.148662 8.42847e-21)
(-0.177342 0.161737 -1.18811e-20)
(-0.166271 0.159155 -1.10773e-20)
(-0.489946 0.298181 0)
(-0.520979 0.0525308 0)
(-0.23154 0.055095 2.4054e-21)
(-0.549748 0.367538 5.70019e-21)
(-0.603958 -0.00946934 0)
(-0.165377 0.0317403 6.40824e-21)
(-0.626196 0.270703 -4.32789e-21)
(-0.526787 -0.10032 0)
(-0.19105 0.157995 0)
(-0.423199 0.203176 9.59119e-21)
(-0.439309 0.109286 -4.68596e-21)
(-0.319533 0.10324 4.98638e-21)
(-0.666932 0.255856 0)
(-0.557706 -0.163104 0)
(-0.181958 0.181092 -1.78576e-20)
(-0.450078 0.248674 0)
(-0.27727 0.0776844 2.74682e-21)
(-0.477632 0.0870292 0)
(-0.634541 0.231704 -9.59033e-21)
(-0.47837 -0.106651 -1.08455e-20)
(-0.235872 0.200973 -1.48591e-21)
(-0.553708 0.35336 5.76486e-21)
(-0.588322 -0.0139413 0)
(-0.16578 0.0449521 1.31608e-20)
(-0.430415 0.219257 -9.50861e-21)
(-0.419511 0.224002 -4.26168e-21)
(-0.453186 0.101813 4.59673e-21)
(-0.304782 0.0933508 -9.85085e-21)
(-0.468604 0.109871 0)
(-0.304506 0.0787525 -1.7609e-20)
(-0.399005 0.239045 -4.33113e-21)
(-0.306414 0.0434982 1.17236e-20)
(-0.384545 0.242479 2.78885e-21)
(-0.503717 0.125321 -1.04742e-20)
(-0.318188 0.02643 -5.6243e-21)
(-0.522171 0.138148 1.65982e-22)
(-0.521814 0.310247 5.15124e-21)
(-0.539546 0.308334 0)
(-0.527229 0.0221525 9.7282e-21)
(-0.525874 0.00636247 -7.59082e-21)
(-0.2065 0.067555 -1.1406e-20)
(-0.199748 0.0806203 1.89778e-20)
(-0.0940646 0.0706586 0)
(-0.690519 -0.127977 -4.33081e-21)
(-0.618901 0.363324 -8.92985e-21)
(-0.354356 0.334501 6.98146e-21)
(-0.663974 0.13351 9.42282e-21)
(-0.378096 -0.132154 -1.85173e-20)
(-0.0867784 0.0741444 -9.66352e-21)
(-0.0920629 0.0844572 7.72719e-21)
(-0.702469 -0.147222 3.74359e-21)
(-0.689177 -0.155261 6.43138e-21)
(-0.624151 0.360416 2.29076e-20)
(-0.632527 0.348647 -1.1936e-20)
(-0.417923 0.348432 9.49415e-21)
(-0.29649 -0.0666825 -8.5853e-21)
(-0.621933 0.100943 2.04385e-21)
(-0.415746 0.175094 1.6116e-20)
(-0.349176 0.128245 0)
(-0.408526 0.117567 -1.60499e-20)
(-0.665525 0.267726 -4.11374e-21)
(-0.576793 -0.165463 -9.51594e-21)
(-0.167197 0.167807 0)
(-0.468991 0.287553 0)
(-0.246385 0.0474231 -2.29313e-21)
(-0.517552 0.0710671 -8.14331e-21)
(-0.563371 0.35301 0)
(-0.59173 -0.0248562 0)
(-0.158374 0.052766 -1.22633e-20)
(-0.605486 0.373822 -9.52618e-21)
(-0.609427 0.363079 0)
(-0.675898 -0.0979033 2.28187e-21)
(-0.106181 0.0588181 -1.1758e-20)
(-0.660663 -0.0987912 -6.22215e-21)
(-0.111722 0.0690426 1.59029e-20)