/*--------------------------------*- C++ -*----------------------------------*\
  =========                 |
  \\      /  F ield         | OpenFOAM: The Open Source CFD Toolbox
   \\    /   O peration     | Website:  https://openfoam.org
    \\  /    A nd           | Version:  6
     \\/     M anipulation  |
\*---------------------------------------------------------------------------*/
FoamFile
{
    version     2.0;
    format      ascii;
    class       volVectorField;
    location    "0";
    object      U;
}
// * * * * * * * * * * * * * * * * * * * * * * * * * * * * * * * * * * * * * //

dimensions      [0 1 -1 0 0 0 0];

internalField   nonuniform List<vector> 
13046
(
(0.485353 0.181639 0)
(0.57629 -0.146956 3.7787e-21)
(0.209019 -0.0903008 8.42394e-21)
(0.469679 0.0990143 0)
(0.205569 -0.0184112 7.69838e-21)
(0.487895 -0.158321 0)
(0.512893 0.121318 -1.12954e-21)
(0.531154 -0.193331 -1.92757e-21)
(0.180324 -0.00797466 8.45778e-21)
(0.9675 0.429425 -2.81562e-21)
(1.02448 -0.432082 0)
(-0.0221405 -0.016859 -5.27063e-21)
(0.605467 0.223882 7.09524e-21)
(0.667451 -0.219019 5.71885e-21)
(0.138374 -0.0624918 -4.57648e-21)
(0.9195 0.48338 -1.5856e-21)
(0.0109476 -0.0439985 -8.43061e-21)
(1.06875 -0.354589 -2.0497e-21)
(0.286607 0.0587845 0)
(0.369059 -0.137935 4.16309e-21)
(0.460796 0.00357142 -1.18455e-20)
(0.930641 0.474564 1.59189e-21)
(0.00106981 -0.0364967 1.68841e-20)
(1.06025 -0.371763 -6.10257e-22)
(0.424963 0.10951 -4.78857e-21)
(0.490632 -0.117788 7.07371e-21)
(0.233532 -0.0653945 0)
(0.613133 0.253213 -1.55507e-22)
(0.692493 -0.216752 -1.68289e-21)
(0.138814 -0.0777877 1.58779e-20)
(0.491758 0.202588 0)
(0.600901 -0.13535 0)
(0.215534 -0.110419 -8.5739e-21)
(0.388991 0.0800482 1.67996e-20)
(0.257686 -0.0636412 -2.8815e-21)
(0.451821 -0.0908732 -1.09649e-20)
(0.385821 0.0577477 4.45635e-23)
(0.266353 -0.0424222 0)
(0.424602 -0.088294 0)
(0.400403 0.204446 -6.06456e-21)
(0.355234 -0.222939 -7.71382e-21)
(0.61738 -0.0501258 5.65882e-21)
(0.369159 -0.00555471 -3.86424e-21)
(0.312624 -0.013142 3.94976e-21)
(0.353532 -0.0585049 0)
(0.395988 0.00276134 -2.46255e-21)
(0.291036 0.00737489 0)
(0.359444 -0.0843297 1.26771e-21)
(0.50675 0.176845 0)
(0.580981 -0.168289 2.70308e-22)
(0.181276 -0.0711926 3.10388e-23)
(0.521275 -0.353577 -9.38394e-21)
(0.340308 0.221849 0)
(0.709534 0.0229936 6.62616e-21)
(0.577834 -0.389008 1.33646e-20)
(0.734943 0.0475094 7.13032e-21)
(0.303995 0.203671 -9.30375e-21)
(0.95879 -0.212832 1.13401e-21)
(0.77566 0.473872 0)
(0.169323 -0.164461 -7.04114e-21)
(0.779893 0.236723 3.34746e-21)
(0.781939 -0.370114 -3.2771e-21)
(0.0775504 0.0235525 1.90045e-20)
(0.0021743 -0.0264207 -9.7623e-21)
(0.994271 -0.40299 1.73392e-21)
(0.936584 0.400152 4.94163e-21)
(0.737284 0.468383 0)
(0.926907 -0.177765 -5.37891e-21)
(0.214438 -0.202468 -2.05016e-21)
(0.704577 0.44645 2.54912e-21)
(0.895676 -0.164272 7.2894e-21)
(0.230805 -0.210849 2.78923e-21)
(0.992972 -0.222411 1.10565e-23)
(0.804359 0.492482 -9.84453e-23)
(0.153299 -0.159657 3.17873e-23)
(0.301737 0.0811708 0)
(0.360876 -0.153324 -4.52763e-21)
(0.486999 -0.0136458 8.40538e-21)
(0.0978747 -0.114551 -7.73313e-21)
(0.847941 0.497874 7.37913e-21)
(1.02643 -0.267593 2.37412e-21)
(0.45329 0.119906 -2.50807e-21)
(0.505038 -0.138421 2.52222e-21)
(0.211108 -0.0477469 0)
(-0.00426227 -0.0258997 8.71855e-21)
(1.01272 -0.409455 0)
(0.952637 0.414851 -2.91484e-21)
(0.977978 0.326212 5.08938e-21)
(0.00743868 0.00976729 0)
(0.9494 -0.476657 1.38978e-21)
(0.0462628 0.0487772 0)
(1.03977 0.258905 0)
(0.915203 -0.558471 -1.75036e-22)
(0.787423 0.337599 6.59357e-21)
(0.825171 0.345431 -9.13386e-21)
(0.863088 -0.313047 -6.11888e-21)
(0.890752 -0.342187 2.86248e-21)
(0.0651489 -0.0533 4.06753e-21)
(0.0463487 -0.0384766 -1.04513e-20)
(0.019049 0.020088 4.94418e-22)
(0.976478 0.304987 -4.97965e-21)
(0.930568 -0.490994 0)
(0.416539 0.0271393 2.02924e-23)
(0.266212 0.00610388 0)
(0.389389 -0.110464 0)
(0.237573 0.141956 -1.69113e-20)
(0.670524 0.0758045 3.33137e-21)
(0.566426 -0.332806 0)
(0.337691 0.199783 -2.57146e-21)
(0.467351 -0.29835 0)
(0.655252 0.00411019 1.27761e-20)
(0.904493 0.420479 0)
(-0.024825 -0.011181 7.1497e-21)
(0.943222 -0.428783 8.39957e-22)
(0.560713 0.199372 -4.96478e-21)
(0.628882 -0.197539 -2.49174e-21)
(0.153428 -0.0576408 -8.30205e-21)
(0.824988 0.397259 -3.80831e-21)
(0.789361 0.367889 3.55423e-21)
(0.929018 -0.307741 -1.61349e-21)
(0.0649316 -0.0721024 -4.6621e-21)
(0.884869 -0.294832 1.64464e-21)
(0.0745312 -0.0714523 4.35525e-21)
(0.954488 0.438005 6.64612e-21)
(1.02202 -0.428 1.7924e-21)
(-0.0232087 -0.0160914 2.35262e-21)
(0.707144 0.304827 0)
(0.786335 -0.266795 4.21743e-21)
(0.0999771 -0.0730589 -2.41419e-20)
(0.439097 0.221908 0)
(0.315889 -0.201856 7.76724e-21)
(0.628049 -0.076617 -3.0453e-22)
(0.0610021 0.059946 0)
(1.01365 0.24446 0)
(0.901336 -0.547162 0)
(0.892744 0.348332 0)
(0.93009 -0.397123 7.56945e-21)
(0.0214887 -0.0162135 1.04886e-20)
(0.532531 0.225602 0)
(0.637805 -0.15688 0)
(0.198748 -0.116284 0)
(0.632548 0.149674 0)
(0.621569 -0.288471 0)
(0.147076 0.0373958 0)
(0.316798 0.194611 2.37946e-21)
(0.509157 -0.324918 0)
(0.674084 0.0250152 -6.89418e-21)
(0.239203 0.129142 1.63862e-20)
(0.64798 0.0718309 7.31034e-21)
(0.552321 -0.314013 -8.39535e-21)
(0.809294 0.257242 -7.6134e-21)
(0.814092 -0.380655 0)
(0.0611736 0.0104943 -2.46942e-20)
(0.214401 0.0751321 0)
(0.573502 0.0766139 -1.60751e-20)
(0.510726 -0.250025 -2.1726e-21)
(0.676507 -0.429683 -3.68873e-21)
(0.780043 0.109573 -7.50202e-21)
(0.723522 -0.446324 0)
(0.809839 0.141024 -4.32166e-21)
(0.218187 0.154903 -7.99818e-21)
(0.177422 0.128069 7.68213e-21)
(0.658589 0.119937 -1.01631e-21)
(0.608795 -0.319745 -4.33487e-21)
(0.171771 0.0747688 4.73676e-21)
(0.987728 0.413631 2.87256e-21)
(-0.0232271 -0.0141101 -2.74218e-21)
(1.00587 -0.450512 2.68115e-21)
(0.925127 0.429973 1.77983e-21)
(-0.0249988 -0.012043 1.07425e-21)
(0.982824 -0.427299 0)
(0.902573 0.367955 -1.44758e-22)
(0.949642 -0.394172 0)
(0.0159966 -0.0231877 -1.26698e-20)
(0.506776 0.293676 0)
(0.710229 -0.0891096 -1.72988e-21)
(0.325949 -0.23935 -4.4962e-21)
(0.635786 0.102002 -6.62661e-21)
(0.194626 0.0922583 0)
(0.575724 -0.300511 0)
(-0.0195326 -0.0066719 0)
(0.987605 -0.481831 0)
(1.01256 0.377828 -2.34019e-21)
(0.469463 0.266449 0)
(0.678765 -0.0728161 3.83344e-21)
(0.339826 -0.232648 -1.16871e-21)
(0.212883 0.0896352 0)
(0.590655 0.0758902 0)
(0.518196 -0.266019 0)
(0.5979 0.128501 -3.33378e-21)
(0.586059 -0.266899 0)
(0.158515 0.032983 0)
(0.709773 -0.2616 2.77611e-23)
(0.109487 -0.0405415 5.64223e-21)
(0.676649 0.279753 -1.02741e-20)
(0.753569 -0.253371 0)
(0.109637 -0.0668281 2.4946e-20)
(0.980606 0.372213 5.75407e-21)
(-0.00709635 -0.00777483 -7.89662e-21)
(0.987026 -0.45445 6.26296e-21)
(0.0473834 0.0467339 -7.22842e-21)
(0.981257 0.263026 -3.14356e-21)
(0.904591 -0.517379 -7.09143e-21)
(1.02451 0.296967 8.25104e-21)
(0.940383 -0.521327 0)
(0.0174682 0.0263335 7.08597e-21)
(0.545133 -0.397843 3.78215e-21)
(0.766227 0.0160415 -2.92513e-21)
(0.385482 0.278066 -7.82571e-21)
(0.587822 0.170508 6.54134e-21)
(0.835149 0.508878 -3.84033e-21)
(0.117387 -0.129019 4.76332e-21)
(1.03022 -0.256267 -1.10451e-23)
(0.950626 -0.522314 0)
(1.03369 0.318095 2.28644e-21)
(0.00471053 0.0149298 0)
(0.41465 0.0552653 1.24167e-20)
(0.248578 -0.0158982 0)
(0.422371 -0.114455 -4.1219e-21)
(0.590367 0.259013 0)
(0.686288 -0.195428 2.42645e-22)
(0.164995 -0.0967892 -4.69686e-21)
(0.0602391 0.0579907 -5.5528e-21)
(0.989443 0.249351 0)
(0.895206 -0.532723 8.17105e-21)
(0.624554 0.193465 0)
(0.69284 -0.26895 -1.03537e-20)
(0.111659 -0.0267121 0)
(-0.0270899 -0.012959 0)
(0.971292 -0.459023 -1.83389e-21)
(0.978212 0.408676 0)
(0.346318 0.250911 8.46627e-21)
(0.772807 0.0347206 0)
(0.581087 -0.420529 0)
(0.99907 0.289482 -7.23795e-21)
(0.929487 -0.508988 0)
(0.0237796 0.028214 4.05268e-23)
(0.731162 0.131373 -8.59094e-21)
(0.665834 -0.38232 -3.24343e-21)
(0.168317 0.10159 1.08469e-20)
(0.703587 0.323466 0)
(0.795805 -0.253001 -3.94597e-21)
(0.112347 -0.0872067 -2.51387e-21)
(0.836374 -0.543681 1.08034e-20)
(0.952462 0.182669 5.6985e-21)
(0.133515 0.115341 -4.36517e-21)
(0.851495 0.149211 0)
(0.757467 -0.477382 4.44695e-21)
(0.172032 0.130589 1.5877e-22)
(-0.0268782 -0.013162 5.52738e-21)
(0.947539 -0.468029 0)
(0.984203 0.394897 1.73725e-21)
(0.404016 0.24333 -1.12658e-20)
(0.422958 -0.285511 5.5995e-21)
(0.677409 -0.0300436 5.50223e-22)
(0.83279 0.446033 -1.75004e-21)
(-0.0197641 -0.00676416 5.92707e-22)
(0.963712 -0.373088 0)
(0.258059 0.0366688 -2.54648e-21)
(0.456954 0.02644 9.60457e-21)
(0.398265 -0.144756 -1.24263e-20)
(0.73174 0.171125 -3.42575e-21)
(0.709973 0.139493 -3.3406e-23)
(0.700358 -0.364456 7.91952e-21)
(0.658428 -0.361152 7.76188e-21)
(0.157034 0.084103 -8.63047e-21)
(0.122893 0.0593312 4.45281e-21)
(0.0748937 -0.0962561 1.01222e-20)
(0.867531 0.501036 -3.952e-21)
(1.05124 -0.281683 0)
(0.667237 0.316532 0)
(0.771559 -0.222628 0)
(0.143288 -0.10633 9.98448e-21)
(0.887457 0.174572 1.52237e-21)
(0.794501 -0.499127 0)
(0.143373 0.11298 0)
(0.861776 0.376861 -3.29351e-21)
(0.934153 -0.350115 0)
(0.0355361 -0.0437197 -4.5983e-21)
(0.349266 0.00871624 -2.62458e-21)
(0.37186 -0.0452708 -3.78883e-21)
(0.314607 -0.0346165 1.31321e-21)
(0.789259 0.154927 5.50326e-21)
(0.723478 -0.423728 0)
(0.151217 0.103005 7.40384e-21)
(0.674071 0.336142 0)
(0.791703 -0.215839 -4.8834e-21)
(0.151223 -0.12065 6.37582e-21)
(0.64223 0.220822 -1.05588e-20)
(0.681169 0.241318 8.50267e-21)
(0.413899 0.258199 8.91292e-21)
(0.434488 -0.30247 -1.62041e-20)
(0.69626 -0.0259086 1.20797e-20)
(0.816495 0.181301 5.63769e-21)
(0.758822 -0.435023 -6.6646e-21)
(0.120184 0.0817509 -6.75367e-21)
(0.887312 0.382137 1.2098e-20)
(0.0229687 -0.0346872 1.62707e-20)
(0.95495 -0.370659 3.60068e-21)
(0.33846 0.183704 3.92532e-21)
(0.442646 -0.278567 0)
(0.633036 0.00156368 -4.3142e-21)
(0.238346 0.176602 8.65109e-21)
(0.797368 0.100506 4.29064e-21)
(0.677697 -0.450546 0)
(0.769774 0.400423 1.24076e-21)
(0.897463 -0.252837 4.11998e-21)
(0.113406 -0.109921 -2.88533e-21)
(0.376676 0.247464 -7.29557e-22)
(0.496189 -0.344019 0)
(0.715584 0.00664591 -9.176e-21)
(0.800851 0.421121 0)
(0.824286 0.421173 0)
(0.933406 -0.269058 2.58626e-21)
(0.0992297 -0.103035 7.51516e-21)
(0.947672 -0.294577 -3.65221e-21)
(0.076348 -0.0844191 -7.97024e-21)
(-0.0173189 -0.00988289 6.09683e-21)
(0.996984 -0.465366 0)
(0.999965 0.389467 3.50255e-21)
(0.753423 0.357935 0)
(0.853025 -0.272145 1.9403e-21)
(0.0958649 -0.0853711 -2.59598e-21)
(0.837206 -0.398186 -1.54074e-21)
(-0.018624 -0.00834498 -8.80344e-21)
(0.801123 0.400946 -3.08617e-21)
(0.529203 0.0456436 1.30132e-20)
(0.241443 0.0737145 0)
(0.45317 -0.209452 4.56731e-21)
(0.73404 0.221271 -7.96356e-21)
(0.743545 -0.338745 0)
(0.0880297 0.0146374 -1.46084e-20)
(5.1131e-05 -0.0117737 5.03781e-21)
(0.95573 0.368272 -1.06311e-20)
(0.973819 -0.43513 -4.9318e-21)
(0.598422 -0.4093 4.91726e-21)
(0.755901 0.0529987 0)
(0.301564 0.216795 1.05434e-20)
(0.85783 -0.542582 1.28243e-20)
(0.967657 0.206381 3.44307e-21)
(0.103769 0.0913486 0)
(0.633802 -0.240437 5.38948e-21)
(0.134494 -0.0194877 0)
(0.75605 0.271582 -8.57014e-21)
(0.786584 -0.323517 -3.62866e-21)
(0.0712048 -0.0229541 -4.4602e-21)
(0.622946 -0.255474 -1.87626e-22)
(0.134735 -0.00326959 -2.0459e-23)
(0.913494 0.476643 8.00425e-21)
(0.0212113 -0.0525228 -1.18971e-20)
(1.05774 -0.343418 3.0131e-21)
(0.531181 -0.409392 -4.92222e-21)
(0.78672 0.00217824 -9.13882e-22)
(0.421293 0.306933 0)
(0.789313 0.290223 8.73241e-21)
(0.82806 -0.342347 4.42614e-21)
(0.0577671 -0.0175678 1.08233e-20)
(0.651421 0.144433 0)
(0.624203 -0.30924 3.1735e-21)
(0.150363 0.0527052 0)
(0.679696 0.0546355 4.26356e-21)
(0.546361 -0.342905 0)
(0.275082 0.165966 0)
(0.490841 0.150171 3.47725e-21)
(0.547877 -0.162126 5.96078e-21)
(0.189356 -0.0553934 -1.34607e-23)
(0.270965 0.200359 -1.07357e-20)
(0.785285 0.0794435 -1.0392e-20)
(0.647997 -0.438749 -1.32262e-20)
(0.999023 0.346188 4.2883e-21)
(0.969123 -0.477568 -5.29078e-21)
(-0.00371376 0.00189741 -1.18775e-22)
(0.86568 -0.525589 -8.72685e-21)
(0.957259 0.220108 -3.48997e-21)
(0.0870866 0.0777314 -5.57977e-21)
(0.633108 0.410921 7.90677e-21)
(0.297719 -0.251482 -4.16641e-21)
(0.843196 -0.12383 0)
(0.8357 0.466739 -2.15733e-21)
(0.811561 0.451091 2.00658e-21)
(0.962852 -0.257981 8.17512e-22)
(0.992469 -0.26944 -3.34049e-21)
(0.0963467 -0.108206 2.73343e-21)
(0.111273 -0.118368 2.43274e-21)
(-0.0202866 -0.00729721 8.9411e-21)
(0.878585 -0.390937 1.69691e-21)
(0.816447 0.40924 -1.18703e-21)
(0.849535 0.454973 1.23502e-22)
(-0.019015 -0.00872404 0)
(0.994645 -0.372429 0)
(0.770696 0.190605 1.27028e-20)
(0.742995 -0.386363 1.73404e-21)
(0.110813 0.0579108 0)
(-0.0121508 -0.0116838 1.52037e-20)
(0.985557 0.386184 -4.4095e-21)
(0.999608 -0.451402 0)
(0.712291 0.417587 -1.11487e-20)
(0.744818 0.426724 8.32022e-21)
(0.876098 -0.194865 -4.44113e-21)
(0.900642 -0.215435 -1.68456e-21)
(0.19303 -0.172497 4.8058e-21)
(0.161571 -0.149833 2.4105e-21)
(-0.00285007 0.00751614 0)
(0.934052 -0.533802 0)
(1.06001 0.312114 -1.18556e-21)
(0.778199 0.439798 2.05495e-21)
(-0.0180891 -0.00357754 -5.55282e-21)
(0.934558 -0.352593 0)
(0.434894 -0.0295198 1.65622e-23)
(0.31918 0.0548977 -5.61036e-21)
(0.323338 -0.10092 -2.78033e-21)
(0.855531 0.425171 3.21549e-21)
(0.934772 -0.405587 -1.2288e-21)
(-0.0224097 -0.00847907 -1.11142e-20)
(0.558147 0.310515 -9.73681e-21)
(0.72934 -0.123998 7.88797e-21)
(0.27116 -0.203536 4.5453e-23)
(1.0197 0.365334 -1.01209e-22)
(0.979247 -0.492046 -7.00139e-21)
(-0.0149134 -0.00271917 3.10299e-21)
(0.734162 -0.407042 -5.56213e-23)
(-0.0162134 -0.0131605 1.01495e-20)
(0.780184 0.335057 8.96962e-22)
(0.362615 0.173859 5.24095e-21)
(0.368226 -0.212833 3.31115e-22)
(0.58638 -0.0321824 -1.39055e-20)
(0.481588 0.0528603 0)
(0.442188 -0.170296 1.3761e-20)
(0.231889 0.0330236 -7.09498e-21)
(0.938531 0.453897 -6.77328e-21)
(-0.0203723 -0.017462 -7.01377e-21)
(1.03282 -0.413248 6.07034e-23)
(0.506988 0.0634847 0)
(0.46212 -0.190732 4.77352e-21)
(0.220062 0.0477525 1.00375e-20)
(0.411538 -0.0260484 -5.69731e-21)
(0.318171 0.035003 5.92528e-21)
(0.32609 -0.0826952 -1.47069e-21)
(0.330156 0.250206 5.15852e-21)
(0.805674 0.0522385 3.62301e-21)
(0.627746 -0.458972 -7.24794e-21)
(0.505064 0.00223462 0)
(0.385376 -0.171745 0)
(0.285577 0.0956148 -8.32173e-22)
(0.529418 0.030727 -6.99465e-21)
(0.429275 -0.198016 -3.69412e-21)
(0.265854 0.0932212 -1.17799e-22)
(0.596744 0.391494 -1.20338e-20)
(0.817318 -0.104046 5.86256e-21)
(0.334133 -0.279098 8.32652e-21)
(-0.0118877 -0.0248691 -1.06291e-20)
(-0.0163086 -0.0212988 1.08056e-20)
(1.04348 -0.407938 -1.87719e-21)
(1.03222 -0.422514 -1.36108e-21)
(0.953753 0.449892 -6.01267e-21)
(0.965148 0.438766 8.99673e-21)
(1.01549 0.34716 -5.32997e-21)
(0.971898 -0.488456 4.49199e-21)
(-0.00719782 0.00385778 0)
(0.28542 -0.254146 -5.38297e-21)
(0.664834 0.441318 -2.45662e-21)
(0.876295 -0.133141 0)
(0.426368 0.243266 0)
(0.379521 -0.255416 5.11776e-21)
(0.665312 -0.0492549 -4.26907e-21)
(0.86638 0.12917 0)
(0.748668 -0.499495 -4.60154e-21)
(0.205279 0.159509 -1.64258e-22)
(0.809323 -0.461768 -1.58074e-21)
(-0.0226111 -0.0181074 0)
(0.925124 0.339062 2.93805e-21)
(0.0291385 0.0356514 0)
(1.04363 0.278618 0)
(0.925174 -0.550285 -3.12887e-21)
(0.951456 0.424083 -2.18771e-21)
(-0.0261268 -0.0134181 0)
(0.991093 -0.441275 1.79975e-21)
(-0.0132023 -0.010471 3.77119e-32)
(0.690069 -0.38191 4.52968e-22)
(0.717646 0.323209 -8.394e-22)
(0.726096 -0.335183 -4.87018e-22)
(-0.0124761 -0.00495809 -3.76225e-32)
(0.681203 0.36887 7.61057e-22)
(0.828635 -0.433848 8.92474e-21)
(0.858419 0.238702 0)
(0.0724333 0.0435837 1.43689e-20)
(0.900001 -0.513679 1.01717e-21)
(-0.017008 -0.00871418 0)
(1.04551 0.328922 0)
(0.913878 0.340439 5.35755e-21)
(0.93182 -0.41909 -4.66522e-21)
(0.0174351 -0.00721807 -7.43758e-21)
(0.895269 0.501022 -7.71708e-21)
(0.00742306 -0.0373143 -4.25299e-21)
(1.09003 -0.33762 0)
(0.560719 0.17626 -2.66058e-21)
(0.149586 -0.0320993 2.83034e-21)
(0.613336 -0.21651 -2.6045e-21)
(0.934944 -0.541309 0)
(0.00591143 0.0159758 -5.15738e-21)
(1.05802 0.302188 -1.45166e-21)
(0.843501 0.112765 4.18356e-21)
(0.230567 0.178541 2.9359e-21)
(0.720379 -0.485537 0)
(0.809145 -0.490903 0)
(0.888828 0.192675 0)
(0.117415 0.0944689 -5.22949e-21)
(-0.00365509 -0.00339432 0)
(0.417009 -0.206212 -2.12573e-22)
(0.412433 0.200536 -9.21563e-23)
(0.827038 -0.419844 -1.10332e-21)
(-0.0198735 -0.0112187 6.13413e-21)
(0.829234 0.38563 1.50194e-21)
(0.524246 0.151063 6.89109e-21)
(0.168815 -0.0318991 -6.73965e-21)
(0.568 -0.194611 -3.0234e-21)
(0.953383 -0.5102 -5.73085e-21)
(1.04392 0.343643 2.42648e-21)
(-0.0135289 -0.000196103 0)
(-0.00471723 0.00458047 5.38758e-21)
(1.06829 0.310652 0)
(0.916643 -0.537484 4.33131e-21)
(0.970033 0.409164 3.21643e-21)
(-0.0109188 -0.0189982 -1.62763e-20)
(1.013 -0.428024 -5.88625e-21)
(0.0477418 -0.0723092 1.22309e-20)
(1.04015 -0.314848 -3.57666e-21)
(0.887271 0.478338 0)
(0.576322 0.398103 1.52165e-20)
(0.821937 -0.0868708 -7.47051e-21)
(0.377897 -0.314319 7.8913e-21)
(0.944763 -0.233166 -1.20723e-21)
(0.781176 0.455864 -4.79022e-21)
(0.146878 -0.14557 7.51943e-21)
(0.0427475 -0.0707672 1.09429e-20)
(0.890106 0.505819 0)
(1.07907 -0.30992 2.21996e-21)
(0.590272 0.300333 2.4526e-21)
(0.633944 0.327042 0)
(0.724979 -0.161829 8.26821e-21)
(0.767694 -0.183506 -8.84147e-21)
(0.211103 -0.15034 -5.25238e-21)
(0.18901 -0.145945 0)
(0.555129 0.293208 2.39368e-21)
(0.709913 -0.135446 0)
(0.248522 -0.177276 -2.48758e-21)
(0.699375 0.429771 0)
(0.878614 -0.178695 7.16961e-21)
(0.21855 -0.194951 -1.7329e-21)
(0.847427 -0.507555 4.41211e-21)
(0.930859 0.213473 -3.73583e-21)
(0.0921534 0.0769228 1.1427e-20)
(0.959153 -0.512291 0)
(1.02554 0.334932 -8.25977e-22)
(-0.00389809 0.0082752 0)
(0.056579 0.0483867 3.69479e-21)
(0.947623 0.253003 2.28254e-21)
(0.884749 -0.497694 2.84376e-21)
(0.779064 -0.341948 4.41516e-23)
(-0.0144221 -0.00395895 -3.0558e-24)
(0.713748 0.389374 0)
(0.426439 0.191795 -4.78154e-21)
(0.43638 0.182033 0)
(0.288134 -0.161417 1.22417e-21)
(0.58761 -0.0827959 -1.68396e-20)
(0.263991 -0.138642 -1.54904e-21)
(0.575034 -0.10012 1.07548e-20)
(0.637655 0.387359 0)
(0.591094 0.357782 1.55828e-21)
(0.283557 -0.225784 -1.7435e-23)
(0.819913 -0.148514 -4.67373e-21)
(0.256071 -0.209337 -1.2672e-20)
(0.781383 -0.127077 9.99126e-21)
(0.716869 -0.422643 0)
(-0.0177729 -0.0167074 -1.1075e-20)
(0.818466 0.322799 0)
(0.960773 -0.504602 3.59917e-21)
(1.03714 0.346588 -8.07165e-22)
(-0.0127899 -0.000182831 -3.25731e-21)
(0.453796 0.284159 2.92069e-21)
(0.417585 -0.304461 5.79067e-21)
(0.718257 -0.0434565 -1.35841e-20)
(0.808318 -0.524853 -9.67961e-21)
(0.918566 0.167601 -9.58791e-21)
(0.151462 0.126387 0)
(0.0623007 -0.0845557 -1.30795e-20)
(1.02991 -0.301404 3.80453e-21)
(0.873583 0.478779 0)
(0.905444 -0.447829 0)
(0.924786 0.396179 0)
(-0.025227 -0.0130954 0)
(0.916843 -0.463525 0)
(0.956998 0.386659 -3.23808e-21)
(-0.0263779 -0.0140382 0)
(0.744192 0.407193 4.64435e-21)
(0.885021 -0.231095 -2.5622e-21)
(0.142664 -0.13176 -3.56793e-21)
(0.312776 0.163421 1.38185e-21)
(0.452351 -0.267503 0)
(0.614036 0.0167013 -4.63411e-21)
(0.974277 0.419044 -3.74763e-21)
(-0.0150486 -0.018684 -9.44359e-21)
(1.02406 -0.430222 8.4422e-21)
(0.843027 -0.458138 0)
(0.885711 0.240569 0)
(0.0702881 0.0525513 -1.23943e-20)
(0.0154108 -0.0369625 -3.10871e-21)
(0.985236 -0.3775 -6.08491e-21)
(0.909338 0.408463 -1.10154e-20)
(0.563675 0.348248 -1.58737e-21)
(0.316997 -0.249119 8.49347e-21)
(0.768193 -0.10902 -5.15926e-21)
(0.713543 0.107939 8.31181e-21)
(0.6287 -0.369431 -4.80291e-21)
(0.204754 0.124713 -1.05854e-20)
(0.391641 0.210535 -9.03816e-23)
(0.385678 -0.248116 1.69239e-21)
(0.634996 -0.03714 5.59263e-21)
(-0.0192203 -0.0136215 3.68553e-21)
(1.01111 -0.452014 -3.60805e-21)
(0.989612 0.406111 -3.86368e-21)
(0.856619 0.401723 2.08892e-21)
(0.952222 -0.333416 1.91021e-21)
(0.0451726 -0.0575207 0)
(0.371969 0.166075 5.18531e-21)
(0.337879 -0.184955 -1.07469e-20)
(0.568657 -0.0467193 9.18736e-21)
(0.89178 0.511154 -3.16522e-21)
(0.0313001 -0.0603394 -4.83908e-21)
(1.09264 -0.316745 -1.36532e-22)
(0.527926 0.245008 2.98563e-21)
(0.65363 -0.145605 0)
(0.218909 -0.138558 0)
(0.573988 0.104283 1.23764e-20)
(0.540423 -0.247717 -2.93193e-21)
(0.183781 0.0508748 0)
(0.800069 -0.462249 0)
(0.860661 0.195638 -8.05975e-21)
(0.108316 0.0829919 5.47677e-21)
(0.874841 0.475066 0)
(-0.0135021 -0.0161173 1.49242e-21)
(1.0489 -0.365433 -1.51549e-21)
(0.872909 0.487238 -2.81495e-21)
(-0.00756279 -0.0208023 -4.76065e-21)
(1.06688 -0.350434 1.83248e-21)
(0.0204949 -0.0453077 -2.82452e-21)
(0.999262 -0.363217 3.43196e-21)
(0.905281 0.42498 1.01503e-20)
(0.739483 0.0941545 3.74142e-21)
(0.6398 -0.39919 9.63332e-21)
(0.229833 0.148724 0)
(-0.0155325 -0.00986784 -1.36711e-21)
(1.01991 -0.359197 1.42035e-21)
(0.83406 0.465122 0)
(0.0082782 -0.00490387 0)
(0.951878 -0.437397 3.62077e-21)
(0.943728 0.347519 1.24402e-21)
(-0.00999345 -0.0107882 -5.54625e-21)
(0.585399 -0.355125 -7.49539e-22)
(0.64221 0.26912 0)
(0.577064 0.343215 1.06397e-21)
(0.648853 -0.278464 0)
(-0.00904952 -0.00186792 -5.54768e-21)
(0.0376118 -0.0653957 5.99822e-24)
(1.0637 -0.32292 4.0218e-22)
(0.896132 0.492194 0)
(-0.0254332 -0.0121432 0)
(0.989372 -0.464844 0)
(0.995897 0.402518 -4.73171e-21)
(0.944897 0.450026 3.40714e-21)
(0.939022 0.43995 -2.75625e-21)
(-0.0031677 -0.0326932 5.33749e-21)
(1.04683 -0.387802 6.46278e-22)
(0.000900287 -0.0345623 0)
(1.03145 -0.386898 0)
(0.9499 0.328957 -2.44096e-21)
(0.940225 -0.453381 -2.45826e-21)
(0.012325 0.0043308 0)
(0.191764 0.158081 0)
(0.776797 -0.526617 0)
(0.903016 0.141831 0)
(0.427378 0.146986 -6.46998e-21)
(0.244814 -0.102441 1.48722e-20)
(0.532848 -0.107964 -5.951e-21)
(0.935803 0.282473 -7.06295e-21)
(0.899364 -0.471649 -9.56956e-22)
(0.0355878 0.0279906 -1.08847e-20)
(0.0513956 0.0408158 -7.07375e-21)
(0.927072 0.263633 9.82423e-21)
(0.879717 -0.477544 1.327e-21)
(0.874456 0.516348 -3.8478e-21)
(0.0652321 -0.0895902 -5.23276e-21)
(1.07551 -0.28622 0)
(0.652428 0.405349 0)
(0.842143 -0.149698 -2.12889e-21)
(0.257284 -0.2178 1.24217e-20)
(0.592342 0.335653 0)
(0.760303 -0.137435 -1.03574e-20)
(0.258459 -0.202933 1.36001e-23)
(0.850558 0.271522 9.67095e-21)
(0.84936 -0.410595 -1.22133e-21)
(0.0500016 0.0154266 6.26209e-21)
(0.870982 0.266367 0)
(0.85506 -0.429138 -1.15552e-21)
(0.0518061 0.0249852 -5.73461e-21)
(0.347119 0.139803 0)
(0.342835 -0.172163 1.69528e-20)
(0.538715 -0.0362429 0)
(0.64585 0.345403 0)
(0.785947 -0.182252 5.71624e-21)
(0.193195 -0.158192 -1.88804e-21)
(0.0174214 0.0255819 1.11637e-20)
(0.921239 -0.553502 6.97155e-21)
(1.06527 0.286201 0)
(0.976914 0.367527 6.71341e-23)
(-0.0251556 -0.015227 -3.40419e-21)
(0.883816 -0.47665 -1.19892e-21)
(0.966915 0.345782 2.04728e-22)
(-0.0236466 -0.0170459 0)
(0.849377 -0.475744 3.32958e-21)
(0.475941 0.253015 -3.54453e-21)
(0.306659 -0.203086 1.83289e-21)
(0.660176 -0.0914877 1.52803e-22)
(0.853119 -0.437057 -2.0189e-22)
(-0.0230203 -0.0138287 -1.40755e-20)
(0.89369 0.379771 0)
(0.881069 0.425438 -8.8869e-21)
(0.0367348 -0.0564568 0)
(0.985038 -0.340665 0)
(-0.0216978 -0.0165782 5.58266e-21)
(0.804002 -0.448815 1.43062e-21)
(0.888775 0.34881 -2.17088e-21)
(0.458203 0.0771434 -8.62883e-21)
(0.222859 -0.00115722 -9.01718e-21)
(0.457737 -0.148619 -3.90148e-23)
(0.701276 0.269405 1.49621e-21)
(0.758845 -0.280843 1.35218e-21)
(0.0947527 -0.0444794 5.72211e-21)
(0.595932 -0.382811 -1.10692e-20)
(0.721919 0.0705279 -1.35985e-20)
(0.265616 0.171085 0)
(-0.0148566 -0.00463742 0)
(0.919314 -0.517549 1.36266e-21)
(1.05142 0.332379 0)
(0.829305 -0.470675 0)
(0.887476 0.223827 0)
(0.0845802 0.0654652 0)
(0.015084 -0.0463103 0)
(0.904339 0.499575 2.77994e-21)
(1.0885 -0.335995 -2.11489e-21)
(0.743569 0.288432 0)
(0.793967 -0.306149 -6.89221e-22)
(0.077581 -0.0372201 -4.7471e-24)
(0.411014 0.12737 6.24996e-21)
(0.250362 -0.0919907 -1.27746e-20)
(0.507676 -0.101049 0)
(0.94676 -0.506397 5.41733e-21)
(1.03512 0.355102 -2.30595e-21)
(-0.0188043 -0.00590434 0)
(0.00339211 -0.0197683 6.47859e-21)
(0.975935 -0.416896 -2.27927e-22)
(0.936927 0.38274 -2.32613e-22)
(0.911171 0.455862 0)
(0.897167 0.451988 -2.49127e-21)
(-0.0198879 -0.0145598 -3.43033e-21)
(-0.0215861 -0.0119987 4.24347e-21)
(1.02667 -0.395536 1.06264e-21)
(1.00768 -0.399804 -8.73931e-22)
(0.702074 0.177576 0)
(0.683858 -0.340017 -9.2176e-21)
(0.122208 0.0438715 -6.96344e-21)
(0.793594 -0.413388 -1.25551e-20)
(0.82332 0.218016 0)
(0.0850718 0.0494939 7.60513e-21)
(0.535948 0.118201 7.0307e-21)
(0.538066 -0.214053 -4.98168e-21)
(0.171641 0.0111656 -1.10281e-20)
(0.908645 -0.49341 -2.99315e-21)
(1.01036 0.360391 -2.47666e-21)
(0.892144 -0.50275 1.36204e-21)
(-0.0240314 -0.0131434 3.60584e-21)
(1.02223 0.342253 2.32225e-21)
(-0.0210842 -0.0128442 0)
(0.826815 0.327394 0)
(0.873786 -0.356823 0)
(0.0448167 -0.026601 -7.06941e-21)
(1.02214 0.369127 -2.72122e-21)
(1.01188 0.37067 6.93231e-21)
(0.955795 -0.49325 -1.95924e-21)
(0.93961 -0.487567 5.22675e-21)
(-0.02329 -0.00946307 -9.52678e-21)
(-0.0250243 -0.0118588 8.99536e-24)
(0.799729 0.200518 0)
(0.7633 -0.413731 1.18751e-20)
(0.108517 0.0681693 -9.85993e-21)
(0.654978 0.200876 -6.53379e-21)
(0.709442 -0.293924 8.23949e-21)
(0.0995488 -0.0109794 0)
(0.899524 0.491124 0)
(-0.002812 -0.0287288 -6.58027e-22)
(1.07768 -0.355743 -1.76066e-21)
(0.70533 0.198206 -4.80453e-21)
(0.703245 -0.328657 0)
(0.106652 0.0265211 1.15312e-20)
(0.576924 0.145016 -2.83872e-21)
(0.587864 -0.244825 5.84566e-21)
(0.149822 0.00786831 -6.39033e-21)
(0.897295 0.466898 0)
(-0.0156296 -0.0170656 0)
(1.04797 -0.382439 2.49199e-21)
(0.752251 0.311427 0)
(0.823447 -0.296967 -1.39041e-21)
(0.0748694 -0.0521951 7.02772e-21)
(0.705002 -0.493707 0)
(0.845801 0.0973257 0)
(0.262248 0.205601 3.77459e-22)
(0.563532 0.36134 3.8964e-22)
(0.782641 -0.097252 0)
(0.338857 -0.271493 -6.53367e-21)
(0.879481 -0.558905 -4.94753e-21)
(0.086952 0.0809016 0)
(1.0037 0.221283 0)
(-0.00702672 -0.00520375 1.33365e-20)
(0.550286 -0.274768 2.9774e-22)
(0.543517 0.266365 1.29078e-22)
(0.724958 0.239665 0)
(0.744031 -0.316425 -5.05444e-21)
(0.0854476 -0.00712129 0)
(0.929077 0.473841 -5.32433e-21)
(-0.00556257 -0.0299769 -1.79962e-20)
(1.06618 -0.373998 4.40557e-21)
(0.455403 -0.362339 0)
(0.797809 -0.0427741 4.96773e-21)
(0.498044 0.352646 0)
(0.690769 0.403381 0)
(-0.0150306 -0.00100305 3.30057e-21)
(0.824136 -0.329595 0)
(0.253576 0.114208 -6.82667e-21)
(0.267785 0.135851 6.98057e-21)
(0.477957 -0.257501 0)
(0.587052 0.0455776 -5.89028e-21)
(0.496299 -0.284592 1.0799e-20)
(0.6177 0.0416066 4.69736e-21)
(0.533693 0.0956687 -6.61679e-21)
(0.509426 -0.212266 -6.69987e-21)
(0.191485 0.0342514 0)
(0.325527 0.155597 -6.03962e-21)
(0.287898 0.129544 0)
(0.40736 -0.2309 0)
(0.583491 -0.00623889 0)
(0.42634 -0.227763 6.20626e-21)
(0.567284 0.0148694 -3.52234e-23)
(0.691546 0.22681 -4.12249e-22)
(0.669752 -0.286292 3.63734e-21)
(0.116038 0.00331952 7.86267e-21)
(0.660738 0.187439 1.12327e-20)
(0.668944 -0.298264 0)
(0.120232 0.0179356 0)
(-0.0214928 -0.0163416 0)
(0.849437 -0.494187 0)
(1.00059 0.33315 -2.05447e-21)
(0.514465 0.2651 9.74363e-21)
(0.673792 -0.115865 0)
(0.266316 -0.178852 -3.39172e-21)
(1.01179 0.383298 6.43911e-21)
(0.97918 -0.482551 -2.54639e-21)
(-0.0239175 -0.00934347 5.43819e-21)
(0.866494 0.299995 0)
(0.897299 0.315231 -5.15591e-21)
(0.879341 -0.404303 1.5227e-21)
(0.906583 -0.419138 -4.60812e-21)
(0.0356836 0.00249535 7.77103e-21)
(0.0258291 0.00155737 7.17862e-21)
(0.501475 0.241177 0)
(0.646514 -0.123015 0)
(0.250169 -0.159019 -1.6132e-21)
(0.68704 0.390985 -3.76451e-21)
(0.84101 -0.188085 0)
(0.197009 -0.168438 -4.13814e-21)
(0.803842 0.282574 2.76528e-21)
(0.82856 -0.366094 0)
(0.0532984 -0.00439673 -7.15038e-21)
(0.353344 0.0759051 -6.77004e-21)
(0.452071 -0.0604071 -3.27571e-21)
(0.289237 -0.0906606 -3.44342e-21)
(0.910657 0.28928 0)
(0.892448 -0.448227 0)
(0.0352612 0.0201645 1.15745e-20)
(0.403179 0.150195 0)
(0.275392 -0.129231 -1.8748e-21)
(0.537905 -0.0838976 0)
(0.794643 0.219241 6.27847e-21)
(0.772679 -0.395577 6.60726e-21)
(0.0886403 0.0403422 9.88778e-22)
(0.685165 0.370273 -3.80558e-21)
(0.824842 -0.200769 -6.5135e-21)
(0.174857 -0.149981 0)
(0.364066 0.100757 6.70979e-21)
(0.345871 0.103145 2.99346e-21)
(0.480426 -0.0684671 -3.19017e-21)
(0.285625 -0.106424 6.81984e-21)
(0.491453 -0.0513529 0)
(0.309926 -0.129359 1.21282e-20)
(0.312735 0.118918 3.02161e-21)
(0.370567 -0.184108 -7.89939e-21)
(0.290237 0.117437 -1.9441e-21)
(0.529503 -0.0132988 0)
(0.416494 -0.213783 -3.97009e-21)
(0.550035 0.010665 6.73906e-21)
(0.577949 0.278384 -3.53768e-21)
(0.617242 0.287608 0)
(0.700774 -0.16887 -6.23641e-21)
(0.723461 -0.196036 4.86839e-21)
(0.196046 -0.132054 1.51878e-20)
(0.164822 -0.109998 -1.26341e-20)
(0.0373419 -0.0628916 0)
(1.02345 -0.331217 2.06115e-21)
(0.892444 0.458341 5.13674e-21)
(0.287722 0.218511 -1.27655e-20)
(0.812508 0.0767226 -5.71369e-21)
(0.663321 -0.465939 1.13939e-20)
(0.0220265 -0.0518573 6.10244e-21)
(0.0134069 -0.0441397 0)
(1.03641 -0.351386 -1.78299e-21)
(1.02408 -0.367593 -3.13776e-21)
(0.910552 0.4617 -1.30037e-20)
(0.920633 0.444751 6.7372e-21)
(0.396357 0.27069 0)
(0.50512 -0.36244 6.27979e-21)
(0.7387 0.000194066 -1.34347e-21)
(0.352768 0.0332958 -1.42733e-20)
(0.297389 -0.0500437 0)
(0.399089 -0.0558889 1.12268e-20)
(0.920823 0.310776 2.42154e-21)
(0.913516 -0.442726 5.20317e-21)
(0.0240806 0.00967922 0)
(0.455589 0.214157 0)
(0.279746 -0.173045 1.53712e-21)
(0.615613 -0.0944736 5.45428e-21)
(0.70977 0.377567 0)
(0.84345 -0.217581 0)
(0.154117 -0.134677 9.9412e-22)
(0.854992 0.460028 0)
(0.853896 0.442193 0)
(0.99971 -0.296626 -1.17979e-21)
(0.0721075 -0.0888668 7.51389e-21)
(0.983785 -0.305155 3.21535e-21)
(0.0640279 -0.0798699 -1.01746e-20)
(0.857007 0.328619 -5.1903e-21)
(0.89566 -0.377203 -4.92009e-21)
(0.0328516 -0.0175823 -3.38285e-21)
(0.758391 0.416316 -2.31876e-21)
(0.879637 -0.356504 0)
(-0.017935 -0.0036215 4.05786e-21)
(0.479989 -0.371119 0)
(0.778528 -0.0253251 -4.04539e-21)
(0.459778 0.323287 0)
(0.529338 0.365675 -3.93161e-21)
(0.508562 0.342745 4.25699e-21)
(0.411087 -0.328824 4.05401e-21)
(0.796505 -0.0638073 0)