/*--------------------------------*- C++ -*----------------------------------*\
  =========                 |
  \\      /  F ield         | OpenFOAM: The Open Source CFD Toolbox
   \\    /   O peration     | Website:  https://openfoam.org
    \\  /    A nd           | Version:  6
     \\/     M anipulation  |
\*---------------------------------------------------------------------------*/
FoamFile
{
    version     2.0;
    format      ascii;
    class       volScalarField;
    location    "0";
    object      p;
}
// * * * * * * * * * * * * * * * * * * * * * * * * * * * * * * * * * * * * * //

dimensions      [0 2 -2 0 0 0 0];

internalField   nonuniform List<scalar> 
918
(
0.280111
0.982719
-0.000519777
0.2699
0.00232954
0.951128
-0.734744
0.340715
0.260194
-0.111723
0.0182363
0.23207
0.804229
0.576236
-1.49323
0.0197631
0.358605
-0.859266
0.213081
0.0146506
0.540792
0.284123
0.271469
0.236492
0.27619
0.620974
0.682254
0.00034622
-0.00165767
-0.00489492
-0.00647137
-0.00341876
0.00471388
0.824309
0.870607
0.889294
0.222651
-0.132325
-0.530478
-0.607499
-0.579944
-0.863234
0.3397
0.352103
-0.392654
0.334529
0.343497
0.227817
0.255404
0.256284
0.267602
0.26273
0.266265
0.262099
-0.1377
-0.22684
-0.0920682
-0.056635
0.0695445
0.0195911
0.0196984
0.0250222
0.0324389
0.182393
0.226478
0.230479
0.240949
0.242017
0.908354
0.879549
0.902217
0.830287
0.846619
0.776981
0.751559
0.599032
0.605377
0.552003
0.550582
-1.91032
-2.71738
-0.988066
-0.681593
0.00205217
0.0193412
0.0300973
0.355173
0.366072
0.356861
0.369438
0.656913
-0.722033
-0.947033
0.256015
0.237501
0.262441
0.259576
0.220646
0.242714
0.00850213
0.0155527
0.00855054
0.010762
0.0053193
0.437963
0.408404
0.200938
0.211738
0.248566
0.250204
0.249027
0.0257685
0.282755
0.307383
0.324629
0.528798
0.570988
0.575867
0.654996
0.626137
0.714816
0.735863
0.00876895
0.00626539
0.00114073
0.0101836
0.00716389
0.214891
0.211765
0.231658
0.225693
0.225757
-0.221133
-0.368117
0.0121412
0.15052
-0.41127
-0.502126
-0.78337
-0.698713
-0.966404
0.754602
0.340272
0.357134
-0.3346
-0.304178
-0.432188
-0.259243
-0.338883
0.231774
0.22525
0.227366
0.220135
0.225679
0.231837
0.262038
0.255924
0.258327
0.282827
0.351953
0.221472
0.206615
-0.482718
-0.234343
-0.432098
-0.0310109
-0.0359545
0.0826294
0.0860418
0.0536564
0.061809
-0.00867977
0.00170611
0.0061198
0.0295482
0.0140896
0.179586
0.163634
0.181678
0.199622
0.227945
0.231312
0.222397
0.226011
0.69867
0.725048
0.731205
0.703968
-3.50382
-5.56959
-0.368517
-0.179384
0.00325491
0.00459633
8.13669e-05
-0.00473815
0.00517511
-0.00177209
0.051838
0.0469609
0.0297873
0.0109823
0.342771
0.348926
0.643444
0.69637
0.590729
0.569776
0.235003
0.235263
0.238692
0.232108
0.0246059
0.0174589
0.0212106
0.340132
0.367576
0.362433
-0.00699725
-0.0948451
0.0667477
0.0961006
0.331038
0.322019
0.329365
0.425781
0.475633
0.743262
0.769544
0.755745
0.773233
0.820548
0.840536
0.808835
0.201567
0.207331
0.2013
0.24032
0.225152
0.234854
0.231519
0.228044
0.231125
-0.426703
-0.660762
0.625175
0.528921
0.294337
0.447373
0.736101
0.772252
0.358788
0.356176
0.365497
-0.226167
-0.282007
0.177729
0.134948
0.126774
0.148799
0.136101
0.666754
0.641129
0.678151
0.652439
0.633964
0.654252
-0.568912
-1.87651
-1.03567
0.263384
0.0186856
0.120886
0.0614793
0.0359162
0.0425345
0.678289
0.732013
0.387285
0.467411
0.467433
0.557098
0.554567
0.585095
0.545683
0.565213
0.581759
0.570555
0.717415
0.66007
0.717096
0.733627
0.744835
-0.122416
-0.173217
-0.206558
0.0920003
0.128997
0.116415
0.715937
0.719034
0.756729
0.199609
0.232012
0.0115608
0.0230008
0.260969
0.244924
0.00947627
0.0148564
0.0759416
-1.39081
-0.0585336
0.236144
0.232335
0.249545
-0.0838202
0.248743
0.0203339
0.0779735
0.0687007
0.221654
0.189486
0.157298
0.0153681
0.0123201
0.00491667
-0.333121
0.225968
0.222433
0.249802
0.248786
0.258377
0.0122375
0.0109753
0.00894362
-0.0032208
0.0153745
0.0136978
0.217037
0.221943
-0.231787
0.239202
0.244545
0.249496
0.234848
0.251639
0.259686
0.0108734
0.0107934
-0.00354894
-0.016823
0.0983068
0.446002
0.633309
0.302708
0.0159867
-0.297995
0.313532
0.392067
0.237916
0.480319
0.315954
0.312398
0.0105471
-0.0975393
-0.0449811
-0.0920941
0.232152
0.232125
0.221102
0.234011
0.229563
0.245466
0.225401
0.238382
0.229938
0.227184
-0.0404254
-0.0702528
-0.101156
-0.138025
0.282676
0.351301
0.188942
0.207314
0.114655
0.0266145
0.025994
0.0187382
0.00829278
0.0570683
0.0630199
0.0598025
0.0507861
0.0368085
0.0343931
0.0552443
0.0456919
0.0522677
0.224074
0.221492
0.220744
0.237996
0.198866
0.200382
0.174941
0.18472
0.179963
0.141419
0.144546
0.143626
0.0121839
0.00624307
0.00712735
0.0160717
0.0214178
0.0244468
0.0180068
-0.0106197
0.00144177
0.0141009
0.0168498
0.0185248
-0.262712
-0.389909
0.601103
0.526198
0.317156
0.242448
0.242972
0.23011
0.21519
0.240461
0.257454
0.249885
0.226564
0.227589
0.225886
0.22549
0.230458
-0.114003
-0.274999
-0.061311
-0.166889
-0.1177
0.308945
0.0829039
0.0971345
0.0497835
0.226061
0.276099
0.393891
0.613974
0.565458
-1.00919
-0.543319
-0.859623
-0.397127
-0.729121
0.452742
0.502482
0.487342
0.460991
0.412015
-0.316987
-0.00818074
-0.155821
-0.0793455
0.0419959
-0.0236868
0.319377
0.321725
0.340393
0.292632
0.314232
0.299809
0.273646
0.281803
0.304612
0.320692
0.173661
-0.0155144
-0.00629393
-0.0656849
0.340796
0.216623
0.246368
0.212583
0.235911
0.233258
0.237297
0.233489
0.233552
0.233924
0.228036
0.230115
0.238238
0.234041
0.231519
0.232183
-0.0342316
-0.016759
-0.0598905
-0.217463
-0.179943
-0.272701
-0.106395
0.105818
0.0500279
0.258844
0.356931
0.0676581
-0.10582
-0.0642986
0.0025236
0.122948
0.0913451
0.105847
0.128789
0.165412
0.13244
0.194935
0.17448
0.0278421
0.0483742
0.0244113
0.017819
0.0819701
0.0919046
0.092424
0.0395108
0.0533342
0.0288026
0.0406338
0.0664636
0.0471207
0.0638738
0.0661261
0.0172592
0.0202177
0.0341438
0.0293685
0.0523444
0.0239972
0.220153
0.226934
0.228667
0.222474
0.234871
0.253982
0.216746
0.208027
0.206782
0.207514
0.184015
0.196944
0.191814
0.207365
0.208575
0.22034
0.224449
0.22618
0.215365
0.20583
0.208617
0.21387
0.167686
0.150795
0.159794
0.0230583
0.00711051
0.0181853
0.0235463
0.0110217
0.0130342
0.0493583
0.0385726
0.0598861
0.0241881
0.0503414
0.0136429
0.0236366
-0.0949799
0.0234591
-0.228833
-0.302637
-0.367898
0.593812
0.651072
0.514077
0.441297
0.454914
0.534868
0.567504
0.356826
0.452913
0.413208
0.66567
0.674496
0.200245
0.201388
0.225946
0.219419
0.21793
0.0483063
0.193166
0.142388
0.235448
0.124241
0.0919725
0.429959
0.431413
0.488194
0.440989
0.297243
0.314992
0.265211
0.297366
0.310419
0.151609
0.218873
0.266744
0.214694
0.247929
0.266637
0.230405
0.252581
0.231389
0.212529
0.204332
0.142718
0.174945
0.159849
0.156913
0.206834
0.203042
0.200929
0.196268
0.219523
0.252121
0.236981
0.24709
0.258792
0.196321
0.170683
0.177891
0.194677
0.169621
0.16254
0.177524
0.463651
0.467185
0.222358
-0.366655
-0.279981
-0.297256
-0.389125
-0.235856
0.0298269
-0.697199
-0.529318
-1.0705
-0.132146
0.169132
0.22895
0.290387
0.29951
0.251925
0.227263
0.307226
0.329529
0.325876
0.328206
0.338949
0.224226
0.256457
0.23756
0.260979
0.108764
0.229189
0.228041
0.185149
0.0959426
0.105392
0.185906
0.174824
0.134774
0.109607
0.171212
0.0643623
0.109658
0.183594
0.192573
0.124616
0.238662
0.305813
0.29043
0.267778
0.202662
0.215579
0.225005
0.259255
0.269079
0.283677
0.21878
0.23091
0.231675
0.225581
0.223062
0.227164
0.224827
0.231347
0.233082
0.249652
0.243683
0.0129652
0.0225435
-0.00555185
-0.00318881
0.0595001
0.0135743
-0.000553607
-0.0109783
0.0340102
0.0359536
0.0268075
-0.0118744
0.0029267
0.024826
0.165669
0.172029
0.173936
0.113742
0.216205
0.321739
0.365075
0.310504
0.195799
0.228327
0.276425
0.0638026
0.0751465
0.0643602
0.083963
0.0843431
0.0274008
0.01898
0.0202974
0.0334026
0.0227315
0.0243465
0.0229718
0.026928
0.0261559
0.0343671
0.027275
0.211594
0.19756
0.164256
0.166016
0.171171
0.192273
0.212034
0.212529
0.223618
0.221927
0.213449
0.220657
0.225265
0.0164336
0.0228102
0.0105171
0.0227486
0.0375997
0.037264
0.0294474
0.287358
0.134366
0.249441
0.0699
-0.149114
-0.0588452
0.53135
0.617561
0.635352
0.642926
0.57683
0.572831
0.628769
0.676958
0.415363
0.530843
0.470674
0.631975
0.631644
0.662715
0.545724
0.351056
-0.0101079
0.0664862
0.383555
0.162729
0.21962
0.131571
0.11309
0.232647
0.221842
0.278699
0.341444
0.384482
0.39173
0.309151
0.391368
0.247163
0.336674
0.35744
0.416845
0.331105
0.295489
0.314583
0.33812
0.305466
0.332931
0.271752
0.272698
0.273443
0.289202
0.275808
-0.925147
-0.889501
-1.68894
-1.35758
-1.04366
-0.440034
-0.231613
-0.2748
-0.119835
0.087341
0.140298
0.188181
0.17598
0.0939634
0.145666
0.141485
0.206421
0.204794
0.175914
0.120632
0.0388004
0.274905
0.270211
0.28957
0.308885
0.296334
0.308295
0.208637
0.216309
0.21672
0.21662
0.201965
0.197846
0.106118
0.089811
0.11641
0.0824799
0.0457526
0.0728208
0.0357819
0.0254007
0.0177024
0.0281972
0.0213463
0.0371445
0.303913
0.324763
0.133858
0.242684
0.026083
-0.0556035
-0.0970528
0.0916194
0.191275
0.202288
0.449947
0.549396
0.493225
0.516949
0.402919
0.436352
0.576999
0.449833
0.544985
0.469623
0.539738
-0.704703
-0.810799
-0.855928
-0.451826
-0.600463
-0.666384
-0.773725
-0.871269
-0.772146
0.134934
0.162143
0.15691
0.131557
0.145511
-0.487143
-0.275357
-0.422606
-0.093572
0.364266
-0.015626
0.192761
0.0570436
0.271313
)
;

boundaryField
{
    wall-4
    {
        type            zeroGradient;
    }
    velocity-inlet-5
    {
        type            zeroGradient;
    }
    velocity-inlet-6
    {
        type            zeroGradient;
    }
    pressure-outlet-7
    {
        type            fixedValue;
        value           uniform 0;
    }
    wall-8
    {
        type            zeroGradient;
    }
    frontAndBackPlanes
    {
        type            empty;
    }
}

