/*--------------------------------*- C++ -*----------------------------------*\
  =========                 |
  \\      /  F ield         | OpenFOAM: The Open Source CFD Toolbox
   \\    /   O peration     | Website:  https://openfoam.org
    \\  /    A nd           | Version:  6
     \\/     M anipulation  |
\*---------------------------------------------------------------------------*/
FoamFile
{
    version     2.0;
    format      ascii;
    class       volVectorField;
    location    "0";
    object      U_rec;
}
// * * * * * * * * * * * * * * * * * * * * * * * * * * * * * * * * * * * * * //

dimensions      [0 1 -1 0 0 0 0];

internalField   nonuniform List<vector> 
13046
(
(-0.195799 0.0781648 0)
(-0.627513 -0.288414 -5.42859e-23)
(-0.176723 -0.0637019 -2.19708e-22)
(-0.240431 0.00126348 0)
(-0.121684 -0.00639678 -3.36905e-22)
(-0.524889 -0.258878 0)
(-0.255687 0.0120784 6.13689e-23)
(-0.591657 -0.305138 1.43673e-23)
(-0.0941308 0.0128505 -3.86934e-22)
(-0.489881 0.201204 -3.01285e-22)
(-1.20169 -0.646279 0)
(0.0397733 0.114179 -7.08206e-23)
(-0.251385 0.0870168 -2.53778e-22)
(-0.776237 -0.385576 3.87574e-22)
(-0.0927473 -0.00790983 1.3586e-22)
(-0.450043 0.237099 2.26367e-22)
(0.0117859 0.0912309 -2.7826e-22)
(-1.25932 -0.590106 -1.77546e-21)
(-0.130195 0.030041 0)
(-0.372042 -0.182581 -1.39481e-22)
(-0.352895 -0.0995554 6.79259e-22)
(-0.457325 0.229179 1.42383e-22)
(0.0210773 0.0983595 3.62615e-22)
(-1.25011 -0.603785 0)
(-0.196859 0.0285484 3.06313e-22)
(-0.505289 -0.226237 -4.1145e-22)
(-0.183159 -0.0606372 0)
(-0.250405 0.108672 -3.92792e-22)
(-0.808998 -0.393528 -9.1946e-23)
(-0.102691 -0.0183153 -1.7406e-22)
(-0.190703 0.0963537 0)
(-0.654988 -0.287329 0)
(-0.193912 -0.0806451 2.23599e-22)
(-0.195575 0.0114858 -3.55891e-22)
(-0.205774 -0.0722265 1.09062e-22)
(-0.438044 -0.185599 6.93435e-22)
(-0.216068 -0.0111305 -5.26816e-22)
(-0.199508 -0.0571039 2.25931e-22)
(-0.40544 -0.170665 -3.42684e-22)
(-0.138996 0.125921 3.41486e-22)
(-0.380707 -0.230691 1.22104e-23)
(-0.591904 -0.209672 -1.44454e-22)
(-0.268274 -0.0692605 1.98145e-22)
(-0.219144 -0.052615 3.81904e-22)
(-0.300413 -0.111613 0)
(-0.285079 -0.0712185 1.85959e-22)
(-0.179454 -0.0233439 -5.89632e-22)
(-0.330142 -0.137433 -6.05575e-23)
(-0.209578 0.0685459 0)
(-0.645612 -0.30917 -1.05712e-24)
(-0.138674 -0.0391647 -4.41576e-23)
(-0.596034 -0.406508 -3.73195e-22)
(-0.1157 0.15542 0)
(-0.584992 -0.153 1.38417e-22)
(-0.673288 -0.465411 5.37592e-22)
(-0.55533 -0.131168 1.02258e-22)
(-0.0999526 0.152099 4.29969e-22)
(-1.15168 -0.459555 3.82165e-22)
(-0.353055 0.241406 0)
(-0.15695 -0.0648448 -1.40149e-22)
(-0.360316 0.0634794 -1.9916e-22)
(-0.945792 -0.552191 -4.27335e-22)
(0.00377209 0.0868425 -4.19147e-22)
(0.0282159 0.0926376 -3.10114e-23)
(-1.20438 -0.641704 8.83879e-22)
(-0.445131 0.175805 7.25339e-23)
(-0.333319 0.242902 0)
(-1.10489 -0.420587 0)
(-0.208314 -0.11552 0)
(-0.313608 0.233366 -1.02466e-22)
(-1.05992 -0.401554 0)
(-0.227937 -0.132931 -1.61586e-22)
(-1.19251 -0.47282 0)
(-0.372213 0.250605 1.91676e-23)
(-0.138749 -0.0527208 -3.71436e-23)
(-0.123149 0.0462399 0)
(-0.369493 -0.191148 1.80831e-22)
(-0.392144 -0.127043 -3.99903e-22)
(-0.0774518 0.00562935 -1.94691e-22)
(-0.398172 0.247818 -3.17613e-23)
(-1.23112 -0.516065 0)
(-0.210089 0.0293833 1.62925e-22)
(-0.537374 -0.249829 0)
(-0.152437 -0.0346854 0)
(0.0312781 0.0980789 7.76325e-23)
(-1.22024 -0.646762 8.6734e-22)
(-0.459606 0.186135 -6.21694e-23)
(-0.470905 0.118521 1.7132e-22)
(0.0364833 0.107548 0)
(-1.16261 -0.70455 5.93046e-22)
(0.00831227 0.116717 0)
(-0.526015 0.0641629 0)
(-1.1324 -0.775571 -9.56243e-23)
(-0.345147 0.145707 0)
(-0.368008 0.146429 8.37262e-23)
(-1.04559 -0.532881 -1.30154e-21)
(-1.08162 -0.565629 6.26287e-22)
(-0.0274731 0.0404012 -1.77165e-23)
(-0.00640949 0.0596397 3.58883e-23)
(0.0320232 0.109432 -6.1806e-24)
(-0.471836 0.100737 -1.69036e-22)
(-1.1431 -0.714706 0)
(-0.277512 -0.0553654 -3.00845e-24)
(-0.156238 -0.0127025 2.83583e-22)
(-0.381336 -0.174001 0)
(-0.0608154 0.121829 0)
(-0.453566 -0.0801118 -5.29022e-23)
(-0.656947 -0.418972 0)
(-0.109465 0.138412 5.72998e-22)
(-0.526657 -0.340357 0)
(-0.552922 -0.16036 -2.44552e-22)
(-0.472802 0.204828 0)
(0.0330075 0.116054 0)
(-1.05101 -0.584674 2.85674e-21)
(-0.233687 0.0739581 6.88408e-22)
(-0.721528 -0.350293 -1.97072e-23)
(-0.104721 -0.0123126 1.35631e-22)
(-0.370604 0.183801 1.39207e-22)
(-0.347055 0.16725 -2.80031e-22)
(-1.12576 -0.543617 1.20313e-21)
(-0.0369214 0.0343288 -2.4736e-23)
(-1.0721 -0.521802 -9.25896e-22)
(-0.0442245 0.0266493 2.30946e-23)
(-0.4867 0.208915 4.10417e-22)
(-1.18502 -0.631678 2.96348e-21)
(0.0388822 0.116574 4.36073e-23)
(-0.298832 0.132885 0)
(-0.940291 -0.469819 6.11709e-22)
(-0.0649138 0.00619712 1.424e-22)
(-0.157964 0.128964 0)
(-0.330371 -0.194141 -7.92134e-23)
(-0.63657 -0.242279 -1.59627e-23)
(0.00432353 0.119038 0)
(-0.510026 0.0516106 0)
(-1.11633 -0.760829 0)
(-0.411417 0.140645 0)
(-1.13359 -0.62569 2.38198e-21)
(0.0223142 0.0860086 -3.74107e-23)
(-0.208162 0.107982 0)
(-0.713073 -0.322922 0)
(-0.177693 -0.0766305 0)
(-0.321232 0.00775098 0)
(-0.728704 -0.417327 0)
(-0.0356085 0.0688497 0)
(-0.0999394 0.14097 0)
(-0.580931 -0.380559 0)
(-0.540752 -0.141522 1.84996e-22)
(-0.0622905 0.112924 -4.46634e-23)
(-0.438498 -0.0828622 -3.47184e-22)
(-0.64093 -0.397465 1.63216e-23)
(-0.36981 0.0783749 2.43989e-22)
(-0.98744 -0.57554 0)
(0.010064 0.0838362 5.29061e-22)
(-0.0640082 0.0749215 0)
(-0.360928 -0.0570016 3.82925e-22)
(-0.579106 -0.334815 2.17302e-23)
(-0.806504 -0.549947 0)
(-0.48807 -0.0659794 4.9594e-23)
(-0.871384 -0.587685 0)
(-0.46397 -0.0355438 4.45662e-23)
(-0.0576921 0.139042 0)
(-0.0380176 0.131853 0)
(-0.371469 -0.029126 6.44843e-23)
(-0.712939 -0.43519 -1.97219e-22)
(-0.034409 0.0919935 -1.85131e-22)
(-0.500578 0.188729 3.35452e-22)
(0.0412803 0.113658 0)
(-1.18722 -0.663562 2.86245e-21)
(-0.479645 0.209336 4.32101e-22)
(0.0360973 0.118783 2.3113e-23)
(-1.11051 -0.602871 0)
(-0.418208 0.154136 -2.23754e-23)
(-1.15476 -0.627247 0)
(0.0223432 0.0849864 3.76745e-23)
(-0.196176 0.167489 0)
(-0.756558 -0.28219 -1.04487e-22)
(-0.346007 -0.218237 -6.39655e-24)
(-0.384678 -0.0441461 2.99249e-22)
(-0.0444725 0.096695 1.04081e-22)
(-0.66675 -0.399662 0)
(0.041473 0.111469 0)
(-1.18668 -0.70333 0)
(-0.509768 0.160266 -3.45207e-22)
(-0.174248 0.155593 0)
(-0.701741 -0.254605 7.87902e-23)
(-0.362349 -0.219994 -8.18764e-25)
(-0.0569489 0.0863904 0)
(-0.377339 -0.0591772 0)
(-0.590742 -0.351136 0)
(-0.308895 -0.00308511 1.97404e-22)
(-0.680516 -0.387034 0)
(-0.0455727 0.0602621 0)
(-0.839918 -0.436174 1.20972e-23)
(-0.0548172 0.0225104 -1.45305e-22)
(-0.283082 0.118911 6.20785e-22)
(-0.897163 -0.445929 0)
(-0.0705837 0.00587257 -1.78762e-22)
(-0.4766 0.15359 1.62151e-22)
(0.0399508 0.105933 -2.72461e-23)
(-1.19808 -0.687365 3.72527e-21)
(0.0174028 0.115873 8.2597e-23)
(-0.482153 0.067033 -8.80887e-23)
(-1.11563 -0.732697 -2.58158e-21)
(-0.508291 0.0962058 6.14738e-22)
(-1.15628 -0.744572 0)
(0.0276371 0.112373 -6.03218e-23)
(-0.625502 -0.446497 2.2466e-23)
(-0.667644 -0.176401 -1.0859e-22)
(-0.147981 0.182171 0)
(-0.267529 0.0415494 -9.36514e-22)
(-0.39228 0.256788 6.52527e-23)
(-0.0979807 -0.0110084 1.33494e-22)
(-1.23342 -0.506388 0)
(-1.16325 -0.74538 0)
(-0.517914 0.111547 6.87583e-22)
(0.0318237 0.110923 0)
(-0.243902 -0.0254834 -8.10188e-22)
(-0.160205 -0.0256501 -2.21893e-22)
(-0.42231 -0.192466 4.3851e-22)
(-0.23684 0.119032 0)
(-0.79308 -0.371892 1.11943e-23)
(-0.136954 -0.0425106 -3.973e-23)
(0.00867993 0.11875 1.02171e-22)
(-0.492885 0.0541915 0)
(-1.10629 -0.744541 2.97418e-21)
(-0.2812 0.0542873 7.42887e-22)
(-0.818808 -0.434663 -7.20485e-22)
(-0.0476111 0.0318502 0)
(0.0386317 0.114548 0)
(-1.12608 -0.648213 -3.30178e-21)
(-0.507285 0.189362 0)
(-0.129198 0.173534 0)
(-0.624285 -0.152779 0)
(-0.674487 -0.488704 0)
(-0.488425 0.0886478 -5.39652e-22)
(-1.1449 -0.730392 0)
(0.0275051 0.112034 -2.39748e-23)
(-0.413457 -0.0303712 6.72857e-23)
(-0.792451 -0.510735 2.35778e-22)
(-0.029219 0.113915 0)
(-0.296447 0.147146 0)
(-0.951381 -0.461158 -5.62022e-22)
(-0.0830023 -0.00680079 9.38488e-23)
(-1.02994 -0.729396 2.46662e-21)
(-0.509299 -0.00491827 2.10043e-22)
(-0.0298591 0.135323 9.04991e-23)
(-0.480427 -0.0316352 0)
(-0.918889 -0.630349 6.58417e-22)
(-0.0392025 0.135588 -4.31869e-24)
(0.0356869 0.111713 6.17177e-23)
(-1.09851 -0.64941 0)
(-0.51389 0.180804 7.40478e-22)
(-0.143357 0.15432 3.08118e-22)
(-0.468458 -0.302462 5.07451e-23)
(-0.635324 -0.206801 -1.79352e-23)
(-0.429821 0.225304 -5.51314e-22)
(0.0327295 0.120485 2.78049e-22)
(-1.03985 -0.516473 0)
(-0.122313 0.0206977 -1.3607e-22)
(-0.315825 -0.0725388 -5.91375e-22)
(-0.410686 -0.204339 4.16142e-22)
(-0.369577 0.0100087 1.52709e-22)
(-0.388584 -0.0190117 3.34002e-23)
(-0.838862 -0.515457 5.34283e-22)
(-0.781255 -0.490882 0)
(-0.0248465 0.103698 1.6826e-22)
(-0.0109604 0.0962579 -1.54489e-22)
(-0.0530267 0.0294581 2.55171e-22)
(-0.411696 0.249234 3.78351e-23)
(-1.25558 -0.530346 3.79979e-21)
(-0.27587 0.150025 0)
(-0.912948 -0.426 0)
(-0.119954 -0.0336848 -1.13519e-22)
(-0.476481 -0.00960575 3.56901e-23)
(-0.969231 -0.668985 0)
(-0.0266559 0.131829 0)
(-0.391643 0.165383 -1.02603e-22)
(-1.13463 -0.583136 0)
(-0.00107468 0.0637436 -2.66055e-23)
(-0.236371 -0.0479877 1.63656e-22)
(-0.310156 -0.106661 1.63168e-22)
(-0.241165 -0.0727202 -8.54872e-23)
(-0.429428 -0.0158013 -3.98877e-23)
(-0.870527 -0.570459 0)
(-0.0225585 0.120834 -2.36559e-22)
(-0.280707 0.163234 0)
(-0.93699 -0.425161 -7.18883e-22)
(-0.132162 -0.0460808 3.52695e-23)
(-0.276751 0.0771187 0)
(-0.29438 0.0867246 7.36877e-23)
(-0.150534 0.162778 1.06353e-22)
(-0.483272 -0.32004 -2.43515e-22)
(-0.655749 -0.207744 5.13918e-22)
(-0.419618 0.00690266 -6.41047e-23)
(-0.917647 -0.599417 -8.4412e-22)
(-0.00840178 0.115515 2.16175e-22)
(-0.408587 0.16663 0)
(0.0115602 0.0757234 3.12487e-23)
(-1.16097 -0.606316 1.49767e-21)
(-0.109248 0.127667 -8.03301e-22)
(-0.494972 -0.316634 0)
(-0.535626 -0.160587 3.07056e-23)
(-0.0717599 0.14868 -3.24207e-22)
(-0.519074 -0.0779439 5.70081e-23)
(-0.807989 -0.568023 0)
(-0.33931 0.193994 -1.57951e-22)
(-1.08318 -0.487186 9.50732e-22)
(-0.093166 -0.0125731 -4.28776e-23)
(-0.134566 0.164499 3.89135e-23)
(-0.562599 -0.382389 0)
(-0.628284 -0.177507 -1.75151e-22)
(-0.358987 0.204104 0)
(-0.372357 0.200289 0)
(-1.12861 -0.509128 7.83812e-22)
(-0.0776563 0.0014861 6.80707e-23)
(-1.14623 -0.53486 -1.11444e-21)
(-0.0516592 0.0245383 -1.00844e-22)
(0.0420411 0.110412 4.84818e-23)
(-1.19819 -0.692192 0)
(-0.497894 0.167952 2.49818e-22)
(-0.325904 0.165298 1.76316e-22)
(-1.02951 -0.494453 0)
(-0.0686444 0.00639397 2.17656e-23)
(-0.892583 -0.503224 -9.76681e-21)
(0.023201 0.105589 -2.0674e-22)
(-0.417534 0.195951 -2.22686e-21)
(-0.362457 -0.0783226 -3.133e-22)
(-0.0825829 0.0637564 0)
(-0.499134 -0.276866 0)
(-0.335627 0.0573969 3.8793e-22)
(-0.894769 -0.511516 0)
(-0.0056769 0.0751707 3.94906e-22)
(0.0360268 0.100064 -9.4185e-25)
(-0.455829 0.150732 -2.63509e-22)
(-1.18563 -0.66882 -2.42486e-21)
(-0.699386 -0.491143 0)
(-0.567668 -0.125426 -9.73464e-23)
(-0.101807 0.159171 -4.87457e-22)
(-1.05809 -0.739051 3.76769e-21)
(-0.499547 0.0169347 1.65668e-22)
(-0.0144417 0.127648 0)
(-0.737451 -0.387413 2.12629e-22)
(-0.0632247 0.0263608 0)
(-0.331989 0.09881 3.15222e-22)
(-0.949329 -0.518073 -4.6332e-22)
(-0.0135319 0.0542555 9.67495e-23)
(-0.725178 -0.396805 -2.24664e-22)
(-0.0513196 0.0389525 3.80796e-24)
(-0.44152 0.231757 5.32457e-24)
(0.00201281 0.0798346 -1.09562e-22)
(-1.25661 -0.584191 2.60786e-21)
(-0.606878 -0.450422 0)
(-0.718699 -0.198903 -6.65663e-23)
(-0.170365 0.19438 0)
(-0.350217 0.108608 -3.21093e-22)
(-1.00412 -0.545771 5.65512e-22)
(-0.00195901 0.0649038 -7.49061e-23)
(-0.341738 -0.00299475 0)
(-0.733038 -0.436144 2.86603e-22)
(-0.0300071 0.0809207 0)
(-0.494913 -0.108929 0)
(-0.630507 -0.418067 0)
(-0.0797089 0.131956 0)
(-0.214519 0.0477278 -2.2544e-22)
(-0.599887 -0.28971 -1.8344e-23)
(-0.136028 -0.0302555 -4.10151e-24)
(-0.0883217 0.156717 3.99534e-22)
(-0.549661 -0.101419 -1.81196e-22)
(-0.766397 -0.540173 -5.9373e-22)
(-0.488198 0.133876 3.77064e-22)
(-1.18104 -0.70589 -3.2151e-21)
(0.0395386 0.108519 -1.70427e-23)
(-1.06784 -0.726102 -2.45758e-21)
(-0.484143 0.0309198 -1.67612e-22)
(-0.00277309 0.123324 1.32336e-22)
(-0.2746 0.222446 -3.02056e-22)
(-0.307933 -0.196909 -3.26532e-22)
(-0.971264 -0.350248 1.13255e-21)
(-0.385738 0.230458 2.86413e-23)
(-0.369629 0.222535 -5.55993e-23)
(-1.1634 -0.503156 2.54852e-22)
(-1.1969 -0.517449 0)
(-0.0761533 0.00661591 6.95929e-23)
(-0.0923571 -0.010029 2.95182e-23)
(0.0274417 0.111255 2.84527e-22)
(-0.939516 -0.50797 1.07562e-20)
(-0.424832 0.202967 -2.957e-22)
(-0.43725 0.230104 2.84707e-23)
(0.0339135 0.122218 -3.77716e-22)
(-1.08627 -0.528732 0)
(-0.382975 0.0221067 -4.89979e-22)
(-0.89708 -0.549844 1.84103e-22)
(-0.00475685 0.100409 0)
(0.0408407 0.107268 6.02646e-23)
(-0.483014 0.164506 -2.48116e-22)
(-1.20701 -0.683883 0)
(-0.312079 0.213606 4.31926e-22)
(-0.329405 0.214675 -2.98828e-22)
(-1.04326 -0.427365 -9.22588e-22)
(-1.07962 -0.451454 -3.92601e-22)
(-0.184966 -0.0899776 6.66316e-23)
(-0.148613 -0.0581582 2.81198e-23)
(0.0276055 0.107167 0)
(-1.13927 -0.748379 0)
(-0.544254 0.112361 -1.85008e-22)
(-0.401667 0.222946 6.47597e-22)
(0.0313159 0.118232 0)
(-0.984416 -0.476645 0)
(-0.361172 -0.121094 2.9361e-23)
(-0.161031 0.013119 3.61347e-22)
(-0.30001 -0.134178 1.08277e-22)
(-0.446035 0.210585 1.41747e-21)
(-1.02142 -0.547414 -4.17831e-21)
(0.0315496 0.116656 -1.59829e-23)
(-0.221615 0.168832 0)
(-0.813073 -0.322311 6.72377e-22)
(-0.278132 -0.16343 -5.63078e-23)
(-0.513974 0.149583 3.51834e-23)
(-1.18228 -0.714246 -5.61559e-21)
(0.0404506 0.111068 1.58971e-24)
(-0.782202 -0.491831 -2.78113e-22)
(0.013472 0.0894046 7.69412e-23)
(-0.409889 0.156468 1.08363e-21)
(-0.121851 0.110931 -2.85682e-22)
(-0.395291 -0.23107 4.8799e-23)
(-0.53372 -0.180253 3.87317e-22)
(-0.303693 -0.0525687 0)
(-0.47597 -0.244124 -4.56525e-22)
(-0.104577 0.0280476 3.31614e-22)
(-0.476239 0.220475 0)
(0.0371579 0.117018 -1.40118e-22)
(-1.19148 -0.618044 -9.1212e-23)
(-0.317045 -0.0490167 0)
(-0.506806 -0.26774 -3.61039e-23)
(-0.0866047 0.0457306 -4.84012e-22)
(-0.333039 -0.107621 2.55826e-22)
(-0.179023 -0.00679936 -1.97586e-22)
(-0.29107 -0.120064 7.02552e-23)
(-0.124896 0.176639 2.12158e-22)
(-0.622186 -0.139526 1.39805e-22)
(-0.738224 -0.544838 -6.14253e-22)
(-0.398383 -0.114915 0)
(-0.406111 -0.214073 0)
(-0.106072 0.0624683 4.92742e-23)
(-0.3927 -0.0954042 4.95383e-22)
(-0.466216 -0.252863 5.76831e-23)
(-0.0925143 0.0711443 6.53186e-24)
(-0.25595 0.216545 4.83445e-22)
(-0.918904 -0.323925 7.65661e-22)
(-0.353187 -0.239517 2.84575e-22)
(0.0332705 0.107234 -1.98564e-22)
(0.0371649 0.109428 1.36414e-22)
(-1.23234 -0.636419 -2.05054e-21)
(-1.22215 -0.647517 -1.31714e-21)
(-0.472384 0.213199 0)
(-0.4803 0.203469 3.08457e-22)
(-0.502247 0.136351 -4.42703e-22)
(-1.18243 -0.71514 3.26346e-21)
(0.03947 0.109992 3.00928e-23)
(-0.292242 -0.192129 1.55883e-22)
(-0.294844 0.235692 9.92994e-23)
(-1.01872 -0.366522 -1.44446e-21)
(-0.153253 0.149446 -2.81352e-22)
(-0.412966 -0.259688 3.49254e-23)
(-0.651303 -0.225451 1.71418e-23)
(-0.518589 -0.0551752 0)
(-0.906894 -0.644502 -6.81282e-22)
(-0.0611583 0.146882 4.44833e-24)
(-0.911777 -0.591549 -3.47428e-21)
(0.0203637 0.0948005 3.87833e-23)
(-0.494978 0.151446 7.86157e-22)
(0.0172226 0.113678 0)
(-0.52571 0.0808203 0)
(-1.14097 -0.770056 -2.00171e-21)
(-0.49254 0.202287 -4.28293e-22)
(0.038326 0.116948 0)
(-1.13793 -0.62994 3.23995e-21)
(0.0109305 0.0843622 3.16276e-34)
(-0.719917 -0.44818 4.99348e-21)
(-0.371897 0.150756 -1.10526e-21)
(-0.738004 -0.399605 -5.62834e-21)
(0.0165846 0.0910815 -3.15486e-34)
(-0.348403 0.177425 9.72416e-22)
(-1.01025 -0.625932 1.45777e-21)
(-0.410591 0.0545058 0)
(0.0123845 0.105307 -2.99588e-22)
(-1.0749 -0.702933 1.58606e-21)
(0.0267417 0.101552 9.6538e-24)
(-0.551536 0.132569 0)
(-0.425382 0.132225 -4.70867e-23)
(-1.13714 -0.646478 -1.52678e-21)
(0.0284139 0.0932975 6.01402e-23)
(-0.445371 0.252449 -5.75327e-22)
(0.0146312 0.10137 -1.49192e-22)
(-1.25104 -0.555642 0)
(-0.247471 0.0508867 1.73958e-22)
(-0.0840194 0.00935091 -6.75375e-23)
(-0.706711 -0.359634 -2.59597e-24)
(-1.14562 -0.759496 -1.11125e-21)
(0.0252815 0.109031 2.23421e-23)
(-0.540034 0.10279 -1.0953e-22)
(-0.534143 -0.071351 9.14641e-23)
(-0.0728883 0.152416 -9.54672e-23)
(-0.867085 -0.616192 0)
(-0.987847 -0.668735 0)
(-0.460129 0.00988494 0)
(-0.0123573 0.125493 0)
(0.00361647 0.0473144 0)
(-0.400274 -0.217908 5.20952e-21)
(-0.203925 0.091565 -1.09978e-21)
(-0.893941 -0.529003 -4.27599e-21)
(0.0215801 0.102788 1.03124e-22)
(-0.436061 0.184349 8.01776e-22)
(-0.238779 0.0382555 -4.71574e-22)
(-0.100689 -0.00097833 2.48163e-22)
(-0.639623 -0.324611 -3.37811e-24)
(-1.15344 -0.724976 -5.78719e-21)
(-0.533348 0.13569 5.04645e-22)
(0.0350264 0.108728 0)
(0.0248614 0.104609 -1.32246e-23)
(-0.554981 0.113125 0)
(-1.115 -0.745046 4.18679e-21)
(-0.472904 0.181282 2.09895e-22)
(0.0370877 0.104655 -1.4067e-22)
(-1.2191 -0.662196 0)
(-0.0245476 0.0546545 2.97132e-22)
(-1.24507 -0.561702 -2.05794e-21)
(-0.42081 0.23298 0)
(-0.248719 0.223221 -6.76318e-22)
(-0.904149 -0.307523 -9.76199e-22)
(-0.406256 -0.286599 9.60325e-23)
(-1.1366 -0.47707 -4.06855e-22)
(-0.353418 0.228214 1.62613e-22)
(-0.132101 -0.0445265 1.49868e-22)
(-0.0196086 0.062447 2.92543e-22)
(-0.430497 0.251298 0)
(-1.27388 -0.552377 0)
(-0.234773 0.153884 -1.44434e-22)
(-0.259594 0.164968 0)
(-0.83114 -0.355898 6.89247e-22)
(-0.896433 -0.389928 -7.36183e-22)
(-0.203082 -0.0966032 4.75887e-24)
(-0.177914 -0.0813977 -5.0542e-24)
(-0.217319 0.156177 1.38684e-22)
(-0.795823 -0.326311 0)
(-0.248863 -0.134752 -2.87438e-23)
(-0.307684 0.222646 0)
(-1.0394 -0.412555 1.48957e-21)
(-0.214141 -0.117045 -2.13663e-23)
(-1.04215 -0.701956 1.12008e-21)
(-0.469538 0.0264921 -7.04003e-23)
(-0.00233845 0.121867 -2.40044e-22)
(-1.17026 -0.737714 0)
(-0.511625 0.124719 -7.27759e-22)
(0.0359894 0.110381 0)
(0.0159747 0.114434 -6.39122e-23)
(-0.462458 0.0599446 9.5227e-23)
(-1.08958 -0.70738 8.00349e-22)
(-0.799119 -0.417158 8.15264e-22)
(0.0207089 0.0995074 -8.05142e-23)
(-0.366499 0.190896 0)
(-0.15445 0.10588 3.11952e-22)
(-0.163701 0.0942706 0)
(-0.29048 -0.152361 0)
(-0.595133 -0.23317 6.16724e-23)
(-0.256746 -0.125838 0)
(-0.593543 -0.24613 -1.10215e-22)
(-0.270538 0.205574 0)
(-0.244921 0.194334 0)
(-0.292387 -0.179285 3.8491e-23)
(-0.948919 -0.369449 -5.42205e-22)
(-0.259014 -0.148428 -2.19679e-22)
(-0.885797 -0.338664 9.25547e-22)
(-0.777262 -0.513766 0)
(0.0127671 0.086089 -7.71978e-23)
(-0.432964 0.146405 0)
(-1.16376 -0.721857 3.08007e-21)
(-0.525118 0.13602 -1.14937e-22)
(0.0369651 0.109878 -3.97504e-24)
(-0.173626 0.17393 -4.33661e-22)
(-0.461092 -0.310904 1.70385e-22)
(-0.710273 -0.23602 -5.88409e-22)
(-0.990302 -0.698711 -2.08628e-21)
(-0.502547 -0.0184034 -3.25667e-22)
(-0.0360258 0.137748 0)
(-0.0397942 0.0395992 -3.18075e-22)
(-1.23498 -0.549245 2.18902e-21)
(-0.411657 0.234239 4.95975e-23)
(-1.01721 -0.597837 0)
(-0.487236 0.187722 0)
(0.0296444 0.110294 0)
(-1.04811 -0.628694 0)
(-0.5055 0.178992 -5.17727e-22)
(0.0318114 0.108866 -1.30627e-23)
(-0.326223 0.200879 -1.99175e-22)
(-1.06188 -0.464125 -5.85642e-22)
(-0.126644 -0.0401045 -4.17201e-23)
(-0.0965057 0.118257 -8.2582e-23)
(-0.505948 -0.311547 0)
(-0.498316 -0.138143 -1.91213e-23)
(-0.4817 0.189656 -2.44577e-22)
(0.0382631 0.108131 -1.08116e-22)
(-1.22334 -0.660178 1.5316e-21)
(-1.02983 -0.653992 0)
(-0.428903 0.0538536 0)
(0.0130008 0.111573 2.64629e-22)
(0.015024 0.0806221 -1.63553e-25)
(-1.1929 -0.617282 -2.7122e-21)
(-0.425848 0.182572 2.26249e-23)
(-0.231342 0.193299 0)
(-0.333432 -0.213641 9.34342e-23)
(-0.852127 -0.317599 -3.60787e-22)
(-0.439525 -0.056594 -2.2415e-23)
(-0.741313 -0.478552 -3.46079e-22)
(-0.0460114 0.121019 0)
(-0.134958 0.133604 1.83964e-23)
(-0.42083 -0.262816 -1.10389e-23)
(-0.593349 -0.202379 -2.22095e-23)
(0.0413014 0.111285 1.72203e-23)
(-1.20578 -0.676433 -3.85125e-21)
(-0.495284 0.181509 -4.51409e-22)
(-0.390623 0.183544 -3.84032e-23)
(-1.15444 -0.571403 6.09765e-22)
(-0.0154397 0.053561 0)
(-0.129516 0.10022 -3.38356e-22)
(-0.353864 -0.195957 1.14121e-22)
(-0.532333 -0.189731 -2.62882e-22)
(-0.436526 0.255724 -1.40431e-22)
(-0.00808673 0.076087 -1.6216e-22)
(-1.27698 -0.55155 2.45505e-21)
(-0.203144 0.12385 -1.79915e-22)
(-0.727442 -0.317206 0)
(-0.207125 -0.100413 0)
(-0.32638 -0.0251185 -6.05749e-22)
(-0.616373 -0.347936 -2.99086e-23)
(-0.0556632 0.0642372 0)
(-0.974669 -0.639191 0)
(-0.43827 0.0165863 9.1861e-23)
(-0.00445713 0.119797 0)
(-0.445479 0.239795 2.26951e-22)
(0.0314531 0.119969 4.55223e-23)
(-1.17023 -0.550013 -4.35677e-21)
(-0.441662 0.246982 -5.9906e-22)
(0.0272981 0.116688 0)
(-1.19618 -0.54374 3.54506e-21)
(0.00736724 0.0755399 -2.53407e-23)
(-1.2072 -0.605583 1.93723e-21)
(-0.425112 0.195266 -4.62834e-23)
(-0.476037 -0.0777572 2.06973e-23)
(-0.758658 -0.50844 2.51604e-22)
(-0.060465 0.132817 0)
(0.0323351 0.122664 -4.16919e-23)
(-1.11194 -0.520926 4.06702e-21)
(-0.428237 0.237016 0)
(0.0341491 0.0995102 0)
(-1.16217 -0.668353 1.7656e-21)
(-0.446036 0.135683 1.4898e-23)
(0.00526226 0.070371 -8.53676e-23)
(-0.600897 -0.399529 -5.12601e-21)
(-0.329949 0.122618 0)
(-0.291306 0.16239 9.35857e-22)
(-0.638506 -0.321836 0)
(0.0145222 0.0803675 -1.06329e-22)
(-0.0145167 0.0662322 -1.50184e-23)
(-1.26275 -0.566997 0)
(-0.431545 0.241427 0)
(0.0406684 0.113793 0)
(-1.16659 -0.671181 0)
(-0.509907 0.181632 -8.51766e-22)
(-0.462202 0.213129 1.37758e-22)
(-0.453589 0.204724 -1.11658e-22)
(0.0261934 0.0987472 9.51406e-23)
(-1.24548 -0.624147 6.20608e-22)
(0.0239903 0.0937243 1.15183e-22)
(-1.23668 -0.626641 -9.02614e-22)
(-0.450501 0.121253 -1.4669e-23)
(-1.1509 -0.680942 -1.04902e-21)
(0.0345141 0.102836 0)
(-0.0585422 0.148084 0)
(-0.946898 -0.683807 0)
(-0.527607 -0.0454612 0)
(-0.173575 0.0644858 0)
(-0.218669 -0.0918382 -4.47329e-22)
(-0.548385 -0.236313 8.5641e-23)
(-0.446662 0.0853972 -1.58009e-23)
(-1.10341 -0.687213 -2.98218e-22)
(0.0269118 0.107848 1.55535e-22)
(0.0201655 0.111062 1.13313e-22)
(-0.446429 0.0694868 2.15614e-23)
(-1.07941 -0.686253 4.13433e-22)
(-0.419732 0.25804 -2.31401e-23)
(-0.0423792 0.040658 -1.49649e-22)
(-1.27422 -0.532458 -3.96912e-21)
(-0.281433 0.214917 0)
(-0.97897 -0.375817 -4.42577e-22)
(-0.260297 -0.154201 2.15358e-22)
(-0.241745 0.180095 0)
(-0.86285 -0.345233 -8.82901e-22)
(-0.262891 -0.153959 3.0199e-25)
(-0.393068 0.0846001 -3.09748e-22)
(-1.03578 -0.61445 -2.65214e-22)
(0.0182669 0.0926385 -1.2541e-22)
(-0.407689 0.0771023 0)
(-1.04394 -0.632072 -2.28966e-22)
(0.0199613 0.0995142 1.14047e-22)
(-0.124088 0.0845325 0)
(-0.355744 -0.190593 -1.29494e-22)
(-0.484266 -0.16857 2.00844e-22)
(-0.268301 0.175209 0)
(-0.918895 -0.393444 0)
(-0.184141 -0.0916743 3.281e-24)
(0.0182727 0.109995 -5.40735e-23)
(-1.13461 -0.770228 5.85639e-21)
(-0.544621 0.0886162 0)
(-0.517688 0.164818 -9.45702e-22)
(0.0283757 0.104121 0)
(-1.017 -0.636815 -2.41252e-21)
(-0.515614 0.153384 -6.91317e-23)
(0.0239363 0.0987179 0)
(-0.974351 -0.626517 7.09539e-21)
(-0.176158 0.143501 2.09017e-22)
(-0.320667 -0.184991 1.50188e-24)
(-0.693714 -0.268244 -1.06011e-22)
(-0.9418 -0.564655 1.70619e-22)
(0.0244051 0.104116 -1.47395e-22)
(-0.471871 0.179278 0)
(-0.408437 0.197524 1.24515e-22)
(-0.00932752 0.0613917 -4.84143e-23)
(-1.19087 -0.583164 0)
(0.0194415 0.0960637 1.73695e-23)
(-0.891928 -0.568899 4.47823e-21)
(-0.472795 0.159816 0)
(-0.258582 -0.0193893 5.65763e-22)
(-0.124935 0.00122308 3.94603e-22)
(-0.484377 -0.235325 2.30358e-23)
(-0.300494 0.105572 -9.19383e-23)
(-0.909101 -0.470883 1.25063e-22)
(-0.0444693 0.0282138 -1.3301e-22)
(-0.697562 -0.472325 -5.15131e-22)
(-0.505004 -0.102088 -2.05407e-23)
(-0.077928 0.139303 0)
(0.0292072 0.10442 0)
(-1.10491 -0.716694 1.84642e-21)
(-0.548831 0.131403 0)
(-1.01268 -0.661184 0)
(-0.438417 0.0383162 0)
(0.00604218 0.115989 0)
(0.00753967 0.0911392 0)
(-0.445605 0.249301 2.31087e-22)
(-1.26693 -0.565711 -2.4098e-21)
(-0.322491 0.113104 0)
(-0.95621 -0.503609 -3.37273e-23)
(-0.026856 0.0418919 1.30261e-22)
(-0.175756 0.0497275 0)
(-0.217749 -0.0879501 3.99093e-22)
(-0.511779 -0.218426 0)
(-1.13492 -0.712507 5.46778e-21)
(-0.536071 0.146201 -4.78805e-22)
(0.0349131 0.107965 0)
(0.0311931 0.0945056 3.72049e-23)
(-1.1859 -0.653136 -1.18547e-22)
(-0.443617 0.161801 8.10546e-23)
(-0.465738 0.226179 0)
(-0.461954 0.224759 -6.02037e-22)
(0.0356017 0.120145 7.44555e-23)
(0.0357187 0.12108 1.14847e-22)
(-1.1619 -0.582524 2.45524e-21)
(-1.12932 -0.576139 -2.01961e-21)
(-0.347462 0.0189393 0)
(-0.815209 -0.489453 -1.29412e-21)
(-0.0149902 0.0848387 2.41339e-22)
(-0.962286 -0.593479 -1.99414e-21)
(-0.396403 0.0409491 0)
(0.00696312 0.10387 -2.06836e-22)
(-0.277283 0.00318527 -3.91941e-22)
(-0.607277 -0.324179 -8.81189e-23)
(-0.0731538 0.0326469 5.04371e-22)
(-1.06498 -0.671738 -4.63593e-21)
(-0.53237 0.156714 -9.16697e-22)
(-1.05184 -0.68069 2.33886e-21)
(0.0303379 0.105225 0)
(-0.541474 0.14375 8.86227e-22)
(0.0271525 0.102059 0)
(-0.369748 0.131136 0)
(-1.0613 -0.574386 0)
(0.00207388 0.0670104 9.39936e-23)
(-0.52879 0.158443 -9.91482e-22)
(-0.528724 0.162856 1.91629e-21)
(-1.13601 -0.695214 -3.05248e-21)
(-1.10502 -0.676254 7.16541e-21)
(0.0365704 0.109641 -5.8629e-23)
(0.034456 0.10886 -1.40161e-23)
(-0.400118 0.0243014 0)
(-0.923909 -0.580783 1.53443e-21)
(-0.0024607 0.108852 2.77575e-22)
(-0.299272 0.052458 3.59653e-22)
(-0.846144 -0.462841 6.09997e-22)
(-0.0279779 0.048861 0)
(-0.450527 0.245958 0)
(0.0234455 0.109563 0)
(-1.23188 -0.566704 -3.4053e-21)
(-0.333103 0.0385832 2.88724e-22)
(-0.839698 -0.486482 3.84834e-22)
(-0.0115684 0.0766636 -3.28192e-22)
(-0.279988 0.0192642 1.79112e-22)
(-0.677979 -0.372342 1.02687e-22)
(-0.0559573 0.0412833 2.35787e-22)
(-0.457587 0.23299 0)
(0.0329489 0.119091 0)
(-1.1852 -0.575539 4.55289e-21)
(-0.324949 0.131114 0)
(-0.993981 -0.505461 -2.12122e-22)
(-0.0336481 0.0337393 -3.65078e-23)
(-0.846935 -0.615034 0)
(-0.570204 -0.0936246 0)
(-0.0921408 0.16253 -1.22247e-23)
(-0.234419 0.201987 -1.75934e-23)
(-0.861718 -0.309236 0)
(-0.359996 -0.239875 -2.89977e-22)
(-1.09066 -0.76621 -1.57756e-21)
(-0.0101471 0.124397 0)
(-0.514581 0.0298895 0)
(0.00722082 0.0653896 2.30552e-22)
(-0.546744 -0.307426 -7.28808e-21)
(-0.274004 0.123931 1.5392e-21)
(-0.321341 0.0766913 0)
(-0.893029 -0.494432 -3.75595e-22)
(-0.0154771 0.0589431 -1.27628e-22)
(-0.461537 0.231078 -4.04185e-22)
(0.0262345 0.106018 -4.13801e-22)
(-1.24409 -0.598014 0)
(-0.506549 -0.367758 1.65883e-22)
(-0.811353 -0.25598 4.45154e-22)
(-0.209753 0.208433 -1.49055e-22)
(-0.355677 0.201305 0)
(0.0247812 0.105194 1.48369e-22)
(-0.839525 -0.411591 0)
(-0.0729426 0.0951772 3.53769e-22)
(-0.07615 0.1098 -3.5935e-22)
(-0.538277 -0.323345 0)
(-0.418243 -0.0938952 1.79936e-22)
(-0.565418 -0.350962 -2.28223e-23)
(-0.451891 -0.107396 -1.21063e-22)
(-0.302472 -0.022088 3.71415e-22)
(-0.570193 -0.306896 5.1036e-23)
(-0.0727753 0.0452587 0)
(-0.104489 0.107144 3.29209e-22)
(-0.0901638 0.0948399 0)
(-0.445611 -0.264474 -9.03143e-23)
(-0.495609 -0.151987 1.55092e-22)
(-0.469014 -0.273863 9.10875e-23)
(-0.446095 -0.120565 9.11171e-24)
(-0.306066 0.0717515 2.07917e-23)
(-0.791706 -0.438566 1.90831e-22)
(-0.0321757 0.0528455 -2.9328e-22)
(-0.311877 0.037551 -6.45603e-22)
(-0.792098 -0.445843 -6.37341e-24)
(-0.0263231 0.0633934 0)
(0.0226467 0.0973779 0)
(-0.989674 -0.652994 0)
(-0.53399 0.141523 -1.22195e-21)
(-0.195335 0.143867 -1.93001e-22)
(-0.735139 -0.296205 0)
(-0.269567 -0.14727 -7.89194e-24)
(-0.517289 0.166555 1.2903e-21)
(-1.1663 -0.69335 -3.07439e-21)
(0.0401136 0.112103 3.43677e-23)
(-0.397481 0.105701 0)
(-0.415701 0.114731 4.51507e-23)
(-1.0733 -0.618219 3.30706e-22)
(-1.1076 -0.639844 -1.46013e-21)
(0.0219148 0.0897708 -1.08167e-22)
(0.0271287 0.0940327 -5.81466e-23)
(-0.189217 0.127821 0)
(-0.703732 -0.292973 0)
(-0.24655 -0.129521 1.64155e-23)
(-0.294874 0.199912 1.66972e-22)
(-0.994531 -0.413319 0)
(-0.189531 -0.0923299 -6.06276e-23)
(-0.361199 0.0986853 -8.79722e-23)
(-1.00439 -0.568006 0)
(0.00792796 0.0759487 0)
(-0.16954 0.0215307 4.30202e-22)
(-0.410531 -0.158868 -1.0956e-22)
(-0.256888 -0.109437 1.20454e-22)
(-0.428612 0.0919127 0)
(-1.0929 -0.663004 0)
(0.0270595 0.102755 -1.67033e-22)
(-0.154835 0.076293 0)
(-0.264536 -0.126063 3.79347e-23)
(-0.535094 -0.21769 0)
(-0.378741 0.044609 -2.31751e-22)
(-0.934887 -0.572956 8.62185e-22)
(0.00295752 0.0959406 -2.71733e-23)
(-0.291234 0.186173 1.67192e-22)
(-0.977715 -0.421017 0)
(-0.162984 -0.0735239 -1.12967e-22)
(-0.158816 0.0418183 -4.26246e-22)
(-0.141877 0.0517977 -1.86541e-22)
(-0.448615 -0.177515 1.20556e-22)
(-0.263078 -0.119256 -2.48428e-22)
(-0.441244 -0.165694 0)
(-0.301669 -0.148403 -3.95217e-22)
(-0.109422 0.0771293 -1.80036e-22)
(-0.391188 -0.216104 1.32605e-23)
(-0.0961135 0.0844571 1.16794e-22)
(-0.443028 -0.140286 -3.01756e-22)
(-0.455832 -0.259146 -5.98849e-23)
(-0.432237 -0.121587 7.49064e-23)
(-0.228278 0.138542 2.12965e-22)
(-0.248824 0.137445 0)
(-0.801757 -0.353957 -3.5668e-22)
(-0.842743 -0.38528 2.81488e-22)
(-0.181642 -0.0802335 -5.64981e-23)
(-0.142655 -0.0485323 1.00205e-22)
(-0.0129942 0.0619613 0)
(-1.23003 -0.577986 1.27626e-21)
(-0.420892 0.219526 3.31951e-23)
(-0.101654 0.165689 1.53604e-22)
(-0.580954 -0.112334 -2.20213e-22)
(-0.787981 -0.56966 1.01629e-21)
(0.00244391 0.0766464 1.16426e-22)
(0.0119378 0.0825802 -8.05045e-23)
(-1.24139 -0.595802 -1.10447e-21)
(-1.23052 -0.610099 -1.7716e-21)
(-0.435176 0.220553 -1.64682e-22)
(-0.439431 0.208121 1.03373e-22)
(-0.14859 0.175577 3.03553e-22)
(-0.5742 -0.399854 2.04252e-22)
(-0.662907 -0.189816 -3.77614e-23)
(-0.211683 -0.0230188 6.82918e-22)
(-0.236481 -0.0782711 0)
(-0.350792 -0.130608 -4.966e-22)
(-0.431877 0.108836 1.43843e-23)
(-1.11724 -0.66368 1.65295e-21)
(0.0303536 0.10065 0)
(-0.166822 0.118317 0)
(-0.283186 -0.157464 -1.5456e-23)
(-0.639289 -0.254248 3.727e-23)
(-0.304385 0.186922 0)
(-1.00631 -0.44131 0)
(-0.138794 -0.0516551 1.05726e-22)
(-0.396543 0.223273 -5.6378e-23)
(-0.392977 0.211739 0)
(-1.20376 -0.544351 -5.18366e-22)