/*--------------------------------*- C++ -*----------------------------------*\
  =========                 |
  \\      /  F ield         | OpenFOAM: The Open Source CFD Toolbox
   \\    /   O peration     | Website:  https://openfoam.org
    \\  /    A nd           | Version:  6
     \\/     M anipulation  |
\*---------------------------------------------------------------------------*/
FoamFile
{
    version     2.0;
    format      ascii;
    class       volScalarField;
    location    "0";
    object      p;
}
// * * * * * * * * * * * * * * * * * * * * * * * * * * * * * * * * * * * * * //

dimensions      [0 2 -2 0 0 0 0];

internalField   nonuniform List<scalar> 
13046
(
0.488989
0.386127
0.454841
0.469374
0.47311
0.395974
0.464221
0.390822
0.478677
0.485951
0.140479
0.443661
0.490547
0.351974
0.465241
0.516885
0.427276
0.181568
0.488238
0.424657
0.433751
0.508672
0.435496
0.17587
0.478745
0.410464
0.452419
0.492989
0.351544
0.459105
0.503332
0.373768
0.446602
0.474739
0.455718
0.415697
0.465755
0.461105
0.424212
0.515434
0.411197
0.386831
0.447478
0.461819
0.443124
0.450752
0.464221
0.435007
0.482255
0.381526
0.46026
0.363566
0.536205
0.378951
0.360013
0.381002
0.532085
0.267154
0.542415
0.407629
0.458943
0.315098
0.496251
0.459126
0.222308
0.493775
0.548416
0.277676
0.397375
0.547827
0.287193
0.39833
0.252124
0.546383
0.40556
0.491274
0.428995
0.423714
0.417151
0.533867
0.239948
0.476199
0.402979
0.458249
0.454043
0.207419
0.492874
0.453815
0.486813
0.22813
0.509213
0.41021
0.213733
0.500818
0.49252
0.295911
0.284522
0.461544
0.468528
0.496684
0.442021
0.237632
0.453929
0.470838
0.423546
0.517682
0.405794
0.371471
0.520649
0.386254
0.389963
0.466483
0.430261
0.063622
0.490581
0.364132
0.461527
0.512686
0.509305
0.274006
0.448613
0.291132
0.451434
0.484652
0.121876
0.439922
0.499697
0.316774
0.464779
0.516781
0.417011
0.378753
0.510155
0.410774
0.233892
0.483212
0.260807
0.475822
0.508315
0.362932
0.445364
0.453305
0.366503
0.491654
0.523576
0.37346
0.394182
0.513604
0.414117
0.378398
0.465771
0.300669
0.493264
0.504171
0.430782
0.390946
0.333965
0.397248
0.322203
0.404435
0.528478
0.525304
0.438151
0.354271
0.509078
0.471266
0.456047
0.146635
0.478724
0.430701
0.0841883
0.486768
0.250498
0.470877
0.532017
0.3507
0.409083
0.433981
0.509473
0.36351
0.471089
0.165638
0.455661
0.528807
0.363346
0.405817
0.507225
0.42414
0.385137
0.454805
0.372258
0.489185
0.339302
0.476517
0.497847
0.329159
0.462722
0.472065
0.471423
0.207965
0.508146
0.425112
0.244237
0.430594
0.212298
0.495101
0.349703
0.359999
0.543121
0.471248
0.537068
0.410705
0.242804
0.193317
0.433185
0.495675
0.458781
0.468958
0.42037
0.49988
0.357581
0.45231
0.513677
0.413055
0.24695
0.473231
0.345421
0.482791
0.453925
0.109399
0.457613
0.540355
0.366776
0.341141
0.432412
0.231192
0.497369
0.417052
0.340428
0.519052
0.50499
0.318332
0.456749
0.269847
0.39598
0.525033
0.400961
0.307183
0.525496
0.454592
0.104217
0.447693
0.527897
0.395349
0.372431
0.493065
0.418297
0.0429804
0.482806
0.445393
0.416003
0.441983
0.427501
0.334827
0.347066
0.513199
0.501844
0.411931
0.537646
0.221727
0.511962
0.32907
0.448117
0.402911
0.291151
0.529227
0.498759
0.267845
0.45982
0.45541
0.439928
0.457453
0.416656
0.32298
0.521179
0.518225
0.32056
0.442904
0.482564
0.484778
0.534696
0.388896
0.363426
0.423766
0.310958
0.517125
0.493478
0.461039
0.257765
0.524663
0.394005
0.389001
0.536374
0.384976
0.32726
0.525853
0.286198
0.432641
0.540687
0.369246
0.369425
0.52565
0.517826
0.275644
0.431808
0.268855
0.441172
0.466064
0.179775
0.465328
0.509197
0.304091
0.449079
0.00235505
0.433472
0.448831
0.436502
0.499291
0.394287
0.463488
0.327616
0.491179
0.47309
0.474227
0.22804
0.351616
0.37583
0.53291
0.258711
0.401534
0.522782
0.365122
0.477086
0.479439
0.320405
0.478075
0.360406
0.486902
0.521558
0.428033
0.19702
0.353953
0.346837
0.54836
0.480173
0.309316
0.475934
0.441484
0.359994
0.502936
0.397764
0.366565
0.526163
0.480733
0.386108
0.464847
0.536174
0.381703
0.332043
0.456334
0.2111
0.478224
0.264739
0.408878
0.515998
0.546685
0.388146
0.310364
0.53481
0.53338
0.265267
0.25133
0.419802
0.421181
0.424438
0.0183965
0.465137
0.497278
0.420419
0.0588186
0.444715
0.32407
0.500901
0.465441
0.476932
0.192797
0.534822
0.534807
0.29825
0.287449
0.415313
0.419681
0.484119
0.165341
0.425009
0.49185
0.412751
0.0237021
0.429201
0.479019
0.439523
0.477202
0.0424172
0.421792
0.531201
0.342894
0.415442
0.45019
0.173047
0.479117
0.00810861
0.427402
0.418976
0.510333
0.411211
0.39887
0.44802
0.412926
0.479922
0.490131
0.439197
0.120153
0.44347
0.404064
0.486285
0.435089
0.471868
0.443824
0.543459
0.362221
0.336108
0.424072
0.421599
0.491417
0.432252
0.399456
0.50131
0.546453
0.320003
0.383819
0.444787
0.452619
0.169344
0.165144
0.493494
0.485133
0.449186
0.200343
0.477704
0.390295
0.548562
0.29651
0.52649
0.397647
0.374119
0.389535
0.300029
0.532211
0.0577875
0.449342
0.414597
0.505421
0.415412
0.204551
0.474667
0.439643
0.102202
0.421388
-0.0101444
0.422576
-0.0316904
0.418408
0.44807
0.295283
0.445566
0.500361
0.124425
0.471089
0.419379
0.473042
0.256938
0.480001
0.526215
0.411509
0.143409
0.477975
0.468836
0.373669
0.179405
0.491756
0.42293
0.38462
0.5356
0.307851
0.28748
0.410396
0.52446
0.411191
-0.08816
0.399181
0.0212529
0.432836
0.433687
0.476849
0.471926
0.380805
0.164841
0.435273
0.475118
0.487084
0.413735
0.154363
0.483667
0.457761
0.197336
0.425713
0.223344
0.523831
0.548623
0.319549
0.380594
0.272696
0.535266
0.419848
0.415241
0.533429
0.190893
0.51916
0.522769
0.343128
0.328732
0.432285
0.435199
0.522987
0.349664
0.424344
0.538695
0.295545
0.411798
0.274994
0.413925
0.515152
0.190238
0.437632
0.492228
0.505792
0.430519
0.26028
-0.0283632
0.421385
0.45863
0.507765
0.500982
0.432023
0.38588
0.439403
0.387952
0.539435
0.534533
0.404011
0.314255
0.410484
0.3322
0.0123041
0.443867
0.407081
0.175413
0.438336
0.477751
0.53831
0.381415
0.357699
0.28338
0.395707
0.526598
0.423629
0.232374
0.527092
0.0616237
0.449095
0.439855
0.0811145
0.445427
0.447133
0.526472
0.293027
0.43135
0.522458
0.391649
0.398905
0.486409
0.453686
0.176933
0.287757
0.434579
0.507159
0.459381
0.237263
0.497481
0.534192
0.400675
0.337985
0.412109
0.347528
0.521753
0.520556
0.403303
0.383497
0.45788
0.167973
0.475352
0.507226
0.263265
0.451645
0.507247
0.421211
0.398418
0.532124
0.411199
0.173799
0.507498
0.364912
0.438373
0.445752
0.379062
0.498415
0.297621
0.422679
0.514549
0.511198
0.413327
0.0922921
0.5177
0.411118
0.104161
0.451911
0.232724
0.504991
0.4025
0.345786
0.523833
0.407243
0.0673189
0.50591
0.479346
0.23907
0.471658
0.428781
-0.0286099
0.403487
0.443108
-0.0445976
0.41014
0.424841
0.199586
0.526559
0.458896
0.134374
0.461465
0.507903
0.504564
0.438743
0.182774
0.444186
0.201308
0.460172
0.244702
0.48486
0.534889
0.294192
0.382614
0.494375
0.447759
0.393778
0.444153
0.257586
0.500419
0.506642
0.437664
0.265208
0.540006
0.409934
0.201776
0.541728
0.306076
0.406681
0.534869
0.333194
0.412338
0.457285
0.294571
0.492942
0.450099
0.287503
0.49842
0.504969
0.419836
0.408261
0.52451
0.322014
0.432674
0.502979
0.187251
0.40871
0.428089
0.457575
0.0833138
0.42145
0.451371
0.0800843
0.520172
0.417558
0.367758
0.0443274
0.437339
0.437131
0.510512
0.448509
0.245068
0.442906
0.0443216
0.418561
0.462297
0.476412
0.404754
0.490252
0.330826
0.46947
0.352971
0.394773
0.529037
0.476907
0.138006
0.423303
0.285207
0.427571
0.514822
0.414619
0.527412
0.163792
0.485554
0.321569
0.473919
0.488409
0.451419
0.40107
0.141894
0.434961
0.474606
0.47013
0.232557
0.482011
0.49786
0.491958
0.425753
0.425968
0.0994801
0.0814937
0.445672
0.343402
0.502599
0.305113
0.445136
0.500648
0.45495
0.386574
0.486325
0.106708
0.427975
0.107213
0.464949
0.422298
0.46909
0.483247
0.289821
0.477947
0.444222
0.441939
0.13359
0.116345
0.465589
0.45908
0.42996
0.317946
0.513732
0.461098
0.342538
0.481394
0.516696
0.418808
0.131157
0.457909
0.33483
0.498314
0.460822
0.369133
0.48735
0.506038
0.417136
0.105228
0.499378
0.306116
0.46421
0.315469
0.371077
0.538747
0.541872
0.329316
0.393074
0.244
0.52093
0.398418
0.415799
-0.0661629
0.411274
0.472236
0.329994
0.484283
0.513091
0.426577
0.153
0.366338
0.332514
0.547954
0.468361
0.405009
-0.00446395
0.509731
0.514435
0.389735
0.416976
0.38347
0.412027
0.449892
0.388819
0.490748
0.511908
0.504779
0.401787
0.405906
0.406416
0.411489
0.472556
0.351707
0.490413
0.457251
0.351901
0.494901
0.466248
0.0906958
0.411778
0.521338
0.360728
0.422151
0.45352
0.144567
0.464454
0.468201
0.469346
0.282013
0.26659
0.484104
0.482704
0.511585
0.371724
0.429883
0.533271
0.308259
0.418501
0.469013
0.303445
0.487216
0.480146
0.421694
0.443357
0.451975
0.267667
0.496849
0.499398
0.43498
0.399384
0.444333
0.316323
0.505852
0.525596
0.316477
0.425687
0.483619
0.489554
0.414692
0.444248
0.417224
0.435115
0.503184
0.411583
0.501241
0.416725
0.413682
0.415312
0.511931
0.511054
0.349496
0.342779
0.43991
0.445221
0.434296
0.225785
0.520002
0.539546
0.372574
0.325961
0.438374
0.445277
0.211569
0.21613
0.514318
0.506725
0.539633
0.367439
0.361884
0.466246
0.452444
0.432878
0.460194
0.258107
0.490462
0.514697
0.42807
0.375686
0.52389
0.309169
0.430307
0.525791
0.521482
0.245039
0.432159
0.250958
0.43792
0.482197
0.278907
0.475378
0.475266
0.0154297
0.409149
0.362151
0.344603
0.545467
0.547061
0.540214
0.373606
0.330456
0.381882
0.339248
0.424254
0.270852
0.512809
0.53236
0.317831
0.415721
0.542634
0.373478
0.35251
0.535517
0.531576
0.386977
0.402686
0.353488
0.347905
0.538163
0.387259
0.34079
0.472553
0.28668
0.483069
0.4983
0.430397
0.408069
0.500281
0.43224
0.134042
0.54524
0.373678
0.343579
0.521516
0.515784
0.309415
0.298749
0.437404
0.444723
0.431804
0.149401
0.504899
0.511942
0.4252
0.136083
0.508109
0.422545
0.124243
0.517166
0.44094
0.240567
0.527544
0.3288
0.420461
0.0740866
-0.110192
0.195409
0.0749046
-0.00344107
0.0586326
-0.0891446
0.144959
-0.195348
-0.0171002
-0.0188069
-0.242668
0.0233905
-0.0257391
-0.232326
-0.052583
0.102851
-0.209962
-0.141165
-0.0851892
-0.190817
-0.195883
0.0296081
0.39923
0.196363
-0.0992398
0.0147201
-0.251768
-0.154711
0.0327573
-0.245892
-0.0950123
-0.184709
-0.220542
-0.242341
-0.185276
0.143304
0.0116343
0.0840349
0.156383
-0.215644
0.401594
-0.22303
-0.023671
0.246594
-0.2601
-0.256145
-0.249579
-0.232436
-0.236376
0.240035
-0.19216
-0.0555219
-0.261011
-0.239105
0.231183
-0.0857586
-0.17886
-0.252646
-0.0364642
-0.242077
-0.21688
0.205569
0.154549
-0.197239
-0.0791735
-0.166728
0.35134
0.0171814
0.194745
-0.318797
-0.276996
-0.106223
-0.0551807
-0.288066
-0.222158
-0.0210712
-0.250946
-0.0142078
0.0905984
-0.194458
-0.213555
-0.215461
-0.113606
-0.29962
-0.0118797
-0.298536
0.0908365
-0.246828
0.257485
-0.0900234
-0.0516506
0.190412
-0.215829
-0.00467564
0.0215888
-0.22135
-0.249975
-0.00451061
-0.323043
-0.112275
0.0408461
0.258251
0.3596
-0.0843208
0.0961687
-0.237758
-0.0794575
-0.221848
0.141988
0.0580394
-0.0888454
-0.182837
-0.289916
0.165055
0.206577
-0.263339
0.0864724
-0.319648
-0.211673
-0.220942
0.304615
0.354258
-0.0448686
-0.123619
-0.0848256
-0.247938
0.301079
0.085151
-0.0639917
-0.332633
0.257706
-0.21415
0.120385
0.0698654
0.0937303
-0.236821
-0.35491
-0.189295
-0.0813763
-0.0433652
-0.00329371
0.128315
-0.124549
0.210299
-0.253408
-0.116537
0.117613
-0.190841
-0.240463
-0.238121
-0.0653916
0.0747404
0.0804413
-0.0490389
-0.259908
-0.0587883
0.00365739
0.1917
-0.0275005
-0.100498
-0.123049
0.120448
0.08944
0.179283
-0.231495
0.384746
-0.216478
0.186085
0.294535
-0.175139
0.313407
0.0901481
0.175844
-0.150404
-0.332514
-0.247999
0.206484
-0.181026
-0.18649
0.101214
-0.182938
-0.217771
-0.246569
-0.168067
0.288886
-0.051242
-0.217554
-0.0478674
-0.249014
0.393943
0.104078
0.212155
-0.163797
-0.353414
0.256659
0.317626
-0.166016
-0.244852
0.375657
-0.150814
0.133528
-0.217238
-0.0480474
0.127894
0.168194
-0.111733
-0.253432
0.131657
-0.0726628
-0.265124
0.227608
0.101183
-0.239737
-0.0941472
0.270969
-0.310574
0.145862
0.0483085
-0.305391
-0.327018
-0.260323
-0.0620659
0.0111704
-0.130263
-0.11524
-0.0832898
-0.202144
0.0644159
-0.0797725
0.200632
-0.284557
-0.105501
-0.260968
-0.179539
-0.152089
-0.205248
-0.341668
0.229348
0.117162
-0.178756
0.299258
0.147344
0.409182
-0.0287828
-0.371666
-0.224842
-0.268074
0.0151839
-0.304267
-0.12429
0.229488
-0.0705135
-0.159613
-0.117323
-0.272617
0.218403
-0.203892
0.0676208
-0.186759
-0.204726
-0.228424
0.0981881
-0.120496
-0.143967
-0.0719073
-0.259701
-0.105262
-0.115378
-0.277831
-0.0990477
0.0285653
-0.228269
-0.250556
-0.260891
-0.300049
-0.249714
-0.163959
-0.288761
-0.369549
-0.162778
-0.252902
-0.297129
-0.161082
0.0911868
-0.295516
0.113125
-0.0967134
-0.167221
0.236104
-0.233933
-0.0896831
0.230214
0.118977
-0.0162627
0.172506
-0.245528
0.0717397
0.0516974
-0.0980737
0.11849
-0.229274
0.0580713
-0.402103
-0.286132
-0.348809
-0.259268
-0.261842
-0.0888441
-0.212896
-0.326055
-0.251204
-0.189751
0.397406
0.108756
-0.0493629
-0.0626907
0.106656
-0.011506
-0.121793
-0.255663
-0.126729
-0.239439
0.241846
0.154589
-0.0736921
-0.220391
-0.189972
0.398223
0.178504
0.152056
-0.0347494
-0.183284
-0.18374
-0.240469
-0.254714
-0.280187
-0.246078
0.0942481
0.0652118
-0.257897
-0.287178
-0.0301311
0.0733274
-0.0302233
0.0898514
0.062222
-0.0016363
-0.134961
0.270249
0.18872
-0.129888
0.169977
0.128044
-0.370497
0.091748
-0.199359
-0.212783
-0.223859
0.134767
-0.263994
-0.0862523
0.258103
-0.337473
-0.120571
-0.138067
-0.186443
-0.213433
-0.217447
0.018848
0.0635139
-0.282645
-0.342589
-0.255933
-0.272946
0.0646786
0.2168
-0.0153782
0.0875887
0.0989901
0.108227
-0.353168
0.0501796
0.101773
-0.333775
-0.305151
-0.0603255
-0.243023
0.0780056
-0.0516089
-0.168049
0.262505
0.185074
-0.183344
0.140911
0.357336
0.0809038
0.195848
0.156956
0.111911
-0.155533
-0.217704
0.390668
0.155939
0.175178
-0.252917
-0.282753
-0.336878
0.151774
-0.00061254
0.111328
0.197215
0.108882
0.086311
0.0662972
-0.140132
-0.036972
-0.152749
-0.228468
-0.271651
-0.14938
-0.117176
-0.280973
-0.0171687
-0.195142
0.14316
0.185488
-0.315607
0.147389
0.202497
-0.0444111
-0.250639
-0.122522
0.1021
-0.0136783
-0.203135
-0.225846
0.127388
0.0707652
0.246698
-0.30966
-0.230904
-0.0873607
-0.0414452
0.188902
-0.00789071
0.307615
0.0116549
0.0545241
-0.237432
0.195855
-0.15069
0.0442113
-0.211996
0.0708184
-0.0348726
0.380406
-0.0741176
-0.280368
0.0998528
-0.113273
0.0805703
-0.250755
-0.22373
-0.173775
0.240215
0.104516
0.0903965
0.038564
-0.252001
0.240039
0.347046
-0.284545
0.382607
0.27278
0.0779801
0.173439
-0.157347
-0.232591
-0.237454
-0.219347
0.0296415
-0.128472
0.0791265
0.305088
-0.232641
-0.270706
-0.240991
0.159004
0.385527
-0.247825
0.0760233
-0.00580163
0.207248
0.0811532
-0.0329899
-0.290484
0.306208
0.374743
-0.0698199
-0.222476
0.15081
0.00696175
0.187689
-0.141068
-0.0777746
-0.0331989
0.0983209
0.0676609
-0.212461
-0.0824039
-0.0282376
-0.0222596
0.0929834
-0.25564
0.0114605
0.0587735
-0.203932
0.189129
0.0228161
-0.290604
0.264956
0.0810126
-0.00946181
0.323044
-0.0428923
-0.292124
-0.0198579
0.0844983
0.17682
-0.234461
-0.202488
-0.115693
-0.0804334
-0.197631
-0.106047
-0.0664287
-0.301907
-0.160168
0.248149
0.343707
0.375521
0.156353
0.374893
0.381087
0.260741
-0.366715
-0.120626
-0.0814549
0.324092
-0.251263
0.0184407
-0.246111
-0.219461
0.0629535
0.304794
-0.24796
-0.229675
-0.0243216
-0.0659225
-0.221052
-0.290009
0.383362
0.290655
0.162449
0.0294724
-0.328267
0.157466
-0.0927966
-0.25573
-0.0314026
-0.289558
-0.251342
-0.0117697
-0.217536
-0.114206
0.269654
0.228521
-0.35063
0.0826528
-0.115345
-0.0819305
-0.0525386
0.25156
-0.187965
0.0286693
-0.251508
0.169472
-0.251621
-0.248588
0.359867
-0.345433
-0.3072
-0.0647906
-0.147203
-0.372957
0.0110907
-0.149827
-0.379613
-0.204155
-0.346265
-0.27278
-0.205483
-0.349825
-0.136649
-0.103637
-0.298703
0.0167459
0.277694
0.264681
-0.283052
-0.246926
0.277771
-0.319763
0.0237105
0.356719
-0.138093
0.348692
-0.116863
0.110496
0.160775
0.0737992
-0.277466
0.00094812
-0.0297548
-0.206158
0.0688718
-0.255196
-0.280997
-0.151629
0.0395364
-0.333342
-0.294463
0.284388
0.0239271
-0.0626372
0.00594755
-0.251759
0.268829
0.0089654
-0.238246
0.0201681
-0.221367
-0.285542
-0.364934
-0.0611816
-0.0419696
-0.271667
-0.0778606
-0.193652
0.353097
0.26279
-0.250976
-0.201305
0.310306
0.108943
-0.126332
-0.0760782
-0.260093
0.371538
0.100567
-0.348725
0.173798
0.0673735
0.220805
-0.0885727
-0.249695
-0.0630307
-0.0354656
-0.11951
-0.0130201
0.409339
-0.215154
-0.0939813
-0.195008
0.28027
0.358255
0.358755
-0.0420719
0.0297307
0.069557
0.139339
0.281574
-0.0702162
0.027292
0.0924996
-0.0677657
0.00193041
-0.212196
0.0907195
-0.311205
-0.220186
-0.000497132
-0.301172
-0.0839276
0.0405836
0.276525
0.362549
-0.250523
-0.268433
-0.322638
0.257172
-0.252017
-0.200269
-0.333171
0.298264
-0.141189
-0.152778
-0.244625
-0.135465
-0.208286
-0.125469
0.0796441
-0.0016208
0.290393
0.389804
-0.133148
0.190699
-0.349926
0.164288
0.215343
0.221746
0.033645
-0.169933
-0.166656
-0.274498
-0.341553
0.101055
-0.337553
0.153271
-0.235476
0.248544
-0.25437
-0.325829
0.0993845
0.228691
-0.166454
-0.19512
-0.0725456
0.264878
-0.166912
-0.141398
-0.337753
0.0683411
0.194691
0.307124
-0.369853
-0.224272
0.180871
-0.0470198
0.329706
-0.0416075
-0.251155
-0.387232
-0.347221
-0.197848
-0.318212
0.27256
-0.319254
0.0825265
-0.151629
-0.262135
0.255666
-0.37196
0.296236
-0.0331328
-0.127586
0.0697551
0.163822
0.0762213
0.0926768
-0.210828
-0.145674
-0.301379
-0.311131
0.00360041
-0.15858
0.358466
-0.299231
0.178229
-0.0794202
0.204752
0.319071
-0.301432
-0.278579
-0.119068
0.0221446
-0.320726
0.260817
-0.21763
-0.123903
-0.264859
0.110782
-0.355049
-0.0838763
-0.290649
0.363856
-0.346838
-0.159371
0.143081
0.179778
-0.318447
-0.325361
-0.189627
-0.289726
0.223292
-0.103617
0.0140188
0.115858
-0.0168385
0.2008
0.368257
0.166012
0.192893
-0.0743955
0.0544645
-0.303263
0.0142869
-0.249389
0.0214102
0.0837801
0.0643404
-0.286582
-0.195253
0.153177
-0.215071
0.0611515
0.088595
0.232711
-0.237136
0.285422
-0.125213
0.101556
-0.0390538
-0.294127
-0.212337
-0.267582
-0.00770944
-0.116487
-0.113419
0.178383
0.207833
0.0348449
-0.182189
0.200633
0.310567
0.28667
0.212029
0.0547805
-0.0135529
-0.210762
0.344028
0.126269
0.0999385
-0.2248
-0.167296
-0.291881
-0.0267434
-0.0607006
-0.0378872
0.101442
0.197687
-0.128018
-0.0542957
0.174888
-0.0405585
0.0597218
-0.221621
0.00780482
-0.155061
-0.33344
-0.144179
0.0899979
-0.254489
-0.36423
-0.0892499
-0.192136
-0.0148737
-0.209583
-0.165876
0.200706
0.238949
-0.148793
-0.127442
0.033208
-0.196953
-0.210037
-0.241129
-0.235342
-0.293862
0.18839
-0.111554
-0.180077
-0.0276909
-0.0650454
0.167147
0.0657561
0.360205
0.126508
-0.250954
-0.152234
-0.212412
0.0383863
0.206217
0.135123
-0.0966552
-0.308863
-0.246629
-0.259916
-0.135417
-0.149441
-0.145119
-0.25354
0.217652
-0.0145409
0.261802
0.15242
-0.140981
-0.0813989
0.0439397
0.319365
-0.339944
-0.325482
0.0497732
0.331272
-0.219642
-0.237479
0.0194234
-0.0627732
0.112945
-0.227109
-0.313207
-0.135491
-0.302848
-0.217602
0.0688398
-0.241584
-0.203654
-0.0562987
-0.226735
-0.0975515
-0.0803197
-0.0302886
0.213979
-0.257971
0.371108
0.119701
-0.237057
-0.385293
-0.0623211
0.00647681
0.11563
-0.227321
-0.261384
0.0788512
-0.282196
-0.0654467
0.381488
0.198983
-0.051407
0.0246314
-0.285259
0.304492
0.381923
0.237072
0.0335602
0.235792
0.0149023
-0.292929
-0.345763
-0.325449
0.317615
-0.202942
0.12938
-0.0137565
0.380549
-0.252741
-0.0520187
-0.267603
-0.228565
-0.241763
0.356737
-0.133635
0.109334
0.180123
0.140246
-0.280055
-0.0939639
-0.0486609
0.185501
-0.349832
-0.0938632
-0.207014
0.268306
0.0811825
-0.252572
0.132478
-0.190875
0.195518
-0.262851
0.0742741
0.151154
0.194803
-0.271892
-0.076098
-0.258274
0.0543271
0.230257
-0.104807
0.0903578
-0.139282
0.063405
-0.0082409
0.313496
-0.0944155
0.226685
-0.337439
-0.175994
-0.273769
0.283522
0.138254
-0.0210412
-0.275729
0.0854375
0.0648753
0.323
0.0966437
-0.255359
-0.264454
0.350101
0.34025
0.0627465
0.314685
-0.246455
-0.268722
-0.160522
-0.155192
-0.312273
0.0890282
-0.0349445
-0.245817
-0.169893
0.303368
-0.198895
0.0598407
-0.0679053
-0.179314
-0.133911
-0.337585
-0.313685
-0.212446
0.137683
0.0807563
-0.2431
-0.184938
0.214676
0.0026966
-0.247834
0.0729913
0.277213
-0.22842
-0.0674867
0.399814
-0.0249207
-0.249315
0.15006
0.116555
0.304404
-0.042659
-0.179963
-0.124464
-0.30894
0.275963
0.103046
0.218544
-0.0563116
-0.0105276
-0.27159
0.24021
-0.213543
-0.249356
-0.240663
-0.0413404
0.165511
-0.395649
-0.0695021
-0.315845
0.273837
0.370475
0.0797868
-0.21808
0.0900665
0.334006
-0.0886494
0.216088
0.126171
0.083288
0.0146995
-0.166255
0.212982
0.229063
0.237531
-0.00917489
-0.0493132
0.0730247
-0.0294995
0.0386648
-0.137183
0.319291
0.0932433
0.256256
-0.0327205
0.290009
-0.253739
0.328056
-0.0172832
0.289216
0.290644
0.205438
0.396944
-0.256546
0.155631
0.00456802
-0.280246
-0.0808423
-0.240238
0.226973
0.091698
-0.13331
-0.112994
-0.221213
0.0157013
-0.253678
0.289862
-0.197555
0.133763
-0.3579
-0.134268
-0.270434
0.349547
0.0880384
-0.086299
-0.0398253
-0.257315
-0.212275
-0.169687
-0.257516
0.0517603
0.256582
-0.273638
-0.142724
-0.26067
-0.250438
0.0871066
0.0430255
-0.0202874
0.299543
-0.314675
0.062053
-0.0555137
0.220534
0.357596
-0.0244334
-0.143758
-0.277872
-0.0587378
0.048363
-0.259404
0.235067
-0.238474
-0.256789
-0.250239
-0.0676363
-0.117149
0.0639641
-0.317405
-0.111467
-0.272038
0.0229669
-0.0119977
0.0509387
0.101399
0.0838667
-0.320503
0.0991342
-0.344608
0.325236
-0.234428
-0.258272
-0.249742
0.217032
0.243865
-0.176024
0.100715
0.0543641
-0.260525
0.00838431
-0.250843
-0.0758022
0.230256
0.0230586
0.217164
0.341533
0.0734056
0.105385
0.297387
-0.275135
-0.170428
-0.17772
-0.111241
0.150187
0.308125
-0.247229
-0.132331
-0.171902
-0.0866482
-0.151211
-0.138024
-0.0149538
0.0937638
0.169969
-0.03826
-0.0949687
0.29001
0.23513
-0.246114
0.117561
-0.264828
-0.283524
0.0714622
-0.281715
0.126156
-0.297995
0.144863
0.369098
0.249759
-0.306029
0.286527
0.134231
0.0847151
0.297768
0.133098
0.268304
0.0407833
-0.289649
-0.277945
0.102459
-0.274233
0.161602
0.0524769
0.266192
0.0549286
0.308939
-0.187593
-0.065415
0.0553431
-0.168073
-0.260073
0.132365
0.351548
-0.193332
0.227277
-0.173784
-0.123812
-0.104128
0.108811
0.217321
0.0561505
-0.290351
0.193903
0.0947099
0.340577
-0.183851
-0.338578
0.0107238
0.0679607
0.332555
0.108915
-0.170084
0.334656
-0.0852585
-0.256004
-0.278513
-0.392467
0.036419
-0.243133
0.331516
0.377591
-0.0856849
0.371504
0.074406
-0.1805
0.316124
-0.269596
0.308971
-0.283193
0.22937
-0.142033
-0.16116
0.08325
-0.133871
0.2741
0.202205
0.220117
-0.107502
-0.0967907
-0.28583
0.230097
0.0534438
0.0764005
0.0670561
0.0527072
-0.346001
-0.228221
-0.142986
-0.298689
-0.123326
-0.304764
-0.171603
0.248783
-0.150935
-0.129946
0.00662431
-0.192618
-0.0606814
-0.127759
-0.165603
-0.209889
0.155612
0.229884
0.0775103
0.0402262
-0.360215
-0.201614
0.147739
0.0096913
-0.307705
0.25484
-0.233894
-0.00424257
-0.0579949
0.0403722
0.186427
-0.145219
0.0462809
0.176114
-0.0238779
0.397513
-0.0240429
-0.283502
-0.0942336
0.0953502
0.0205467
0.376662
0.0301439
-0.0406829
-0.0725523
0.0476142
0.193814
-0.238336
0.265247
-0.0829879
0.0885059
0.06092
-0.000278291
-0.210811
0.229252
0.334805
-0.0659982
-0.177171
-0.142451
-0.13112
-0.285742
-0.168502
0.168499
-0.261914
-0.281337
0.0974911
-0.246472
-0.0152499
-0.0552894
0.0275362
-0.0740142
0.246332
-0.160622
0.114941
0.334296
-0.24125
0.211355
-0.00392878
-0.156052
0.0787265
0.245462
-0.0134718
-0.134305
0.0725547
-0.150699
-0.175843
-0.184777
-0.211077
-0.358236
0.314351
0.341032
-0.267111
-0.0269328
0.0149333
-0.284441
0.0729044
-0.241996
-0.0341035
0.0661651
-0.309
-0.364277
0.197115
-0.00566164
-0.0750094
-0.0216211
-0.284219
-0.280601
0.201092
0.114105
-0.00842131
-0.318754
0.258903
0.0966553
-0.183077
-0.120594
-0.247477
0.32126
-0.239189
-0.0599577
-0.236116
-0.077196
0.249705
-0.115904
0.212309
-0.114675
-0.0169708
-0.00979841
0.326863
0.38929
-0.0194039
0.342588
-0.108596
-0.158179
-0.156853
-0.238863
-0.167107
0.229375
0.161789
-0.0735529
-0.063775
-0.366222
0.135408
-0.159118
0.0272753
0.234811
-0.187104
-0.162025
-0.152635
-0.167424
0.118043
-0.335375
-0.0751445
0.27853
0.0748812
-0.33071
0.166464
-0.169611
-0.139946
-0.0519609
0.165763
0.114347
0.122668
0.0885881
-0.182071
0.0775141
-0.0041118
0.249165
-0.0914034
-0.153607
0.0177484
-0.256461
-0.0307423
0.325311
0.102984
0.358779
-0.135114
-0.0555407
-0.217921
-0.162298
0.109352
-0.274218
-0.297546
-0.00651416
0.118633
-0.291795
-0.0675362
0.0495307
0.106102
0.0361551
0.383178
-0.0276398
-0.0592341
0.21367
-0.071036
0.0340783
0.211496
-0.241267
-0.00891518
0.0806777
-0.0389746
0.337761
-0.284816
-0.235198
0.0992098
-0.00975296
-0.242793
-0.125012
-0.137479
0.353449
0.314294
0.0948848
0.236188
-0.219204
0.158324
-0.0845613
0.175016
0.291383
-0.28019
-0.140985
0.361856
-0.0798202
-0.307682
-0.329031
0.249145
0.357043
-0.173697
0.00700539
0.0221692
-0.253433
-0.100512
-0.291973
0.112604
-0.166513
-0.197059
0.285159
-0.252137
0.112758
-0.0724343
-0.0445568
-0.00989921
-0.313132
-0.0903633
-0.255688
0.00105665
0.0577586
0.280545
0.130109
0.0516809
-0.167665
-0.317006
-0.230908
-0.0969782
-0.134434
0.188909
0.138489
-0.171417
-0.223585
0.122836
0.132259
0.368178
0.175848
0.30568
-0.0693008
-0.261844
-0.136683
-0.185954
0.328645
-0.109516
-0.12039
0.286102
-0.2576
0.0488561
0.0110609
-0.048871
0.0127012
-0.135562
-0.254434
0.126905
-0.260343
-0.0354723
-0.159921
0.265876
-0.136308
0.396943
-0.194516
-0.161981
-0.332602
-0.368903
-0.135929
0.0588596
0.0762751
0.0482775
-0.155075
0.317035
0.0199923
-0.24476
-0.238023
-0.0919723
-0.277118
0.00948267
-0.285618
-0.250307
-0.204327
-0.00383927
-0.267261
-0.0377279
0.312344
0.0341471
0.241794
0.101029
-0.261803
-0.198108
-0.102756
0.213936
-0.284639
0.00725485
-0.0427602
-0.249347
-0.297964
-0.0552445
0.13714
-3.42545e-05
0.368762
0.144638
-0.153719
-0.0335813
-0.294204
0.341994
0.0123847
0.205703
0.0661499
0.0366796
-0.323903
-0.159195
0.0757594
0.277684
0.0657563
-0.144507
-0.265977
0.386324
-0.00935621
0.196273
0.313226
-0.0521809
-0.144146
-0.292776
0.151499
0.127036
-0.241203
-0.0777724
0.0584331
0.248617
-0.157808
0.290052
0.369127
-0.239765
-0.188855
0.300567
-0.220359
-0.228406
-0.131181
-0.200973
-0.0941
-0.214585
-0.273258
-0.172434
-0.00624107
-0.098745
-0.238978
-0.143037
-0.34949
-0.208043
-0.0835043
-0.198127
-0.299707
0.254615
0.3504
0.332313
-0.0401685
-0.315858
0.400703
-0.235714
-0.149158
0.0736564
-0.280927
0.0852033
-0.0148688
-0.233051
-0.279287
-0.28294
-0.271995
-0.254679
-0.248559
-0.326901
-0.212763
-0.168317
-0.22875
0.278352
-0.129869
0.0754523
-0.0139624
0.100626
-0.308376
-0.248212
0.379068
-0.041639
0.135908
-0.245159
-0.0658192
0.370117
-0.281875
0.0398665
0.115339
-0.338803
-0.0120852
-0.259629
-0.155224
0.00745532
-0.224326
-0.138037
-0.278694
-0.235059
-0.101463
-0.257408
-0.131267
-0.285705
-0.252497
0.351722
-0.168905
-0.0788983
-0.152296
0.29006
-0.233013
-0.266259
0.169581
-0.217503
-0.203593
0.0308407
0.0758577
-0.319169
0.165555
0.115883
0.34822
0.145885
-0.246728
-0.249205
-0.289647
0.0470861
-0.309711
-0.149724
-0.0405989
-0.170868
-0.0406384
-0.0967457
0.380574
-0.197729
-0.0141128
-0.0608921
0.325619
-0.250587
0.361809
-0.111927
-0.256893
-0.0461
-0.00584782
-0.302214
0.233044
0.0333704
0.164831
-0.230959
0.0528878
-0.226536
0.388004
0.311082
0.0114131
-0.044811
0.0553801
-0.31548
-0.331759
0.135859
0.390757
0.0610672
-0.0213794
0.0518805
-0.309829
-0.217756
-0.0678965
-0.192021
-0.16425
-0.197888
-0.0383962
-0.291371
-0.158132
0.389613
0.144525
-0.320775
0.0327058
-0.122146
-0.264715
0.0943643
-0.254865
-0.209267
0.07583
0.0839621
-0.165364
-0.181731
0.161251
-0.217829
-0.194112
-0.240655
-0.10852
-0.181231
0.261996
-0.309729
-0.261535
-0.245949
-0.243684
0.00784937
-0.107205
0.292592
0.00967052
0.107052
-0.16044
-0.108602
-0.0460819
0.0489891
-0.258504
-0.195927
-0.354758
0.113265
-0.234171
-0.253607
0.249648
-0.0947184
0.208554
0.0240203
-0.156754
-0.190813
-0.231757
0.0161623
-0.0338234
0.368568
-0.254764
-0.315127
-0.0594858
-0.285892
-0.0418228
0.0910493
0.067221
-0.164954
-0.221685
-0.218706
0.0420844
-0.225557
0.0827075
0.386797
0.342744
-0.196571
-0.110359
0.0881602
0.116778
-0.0906366
-0.224352
-0.00339523
-0.259674
-0.16573
0.229152
-0.0898349
-0.309193
-0.103579
-0.141318
-0.306023
-0.214075
-0.0964457
-0.0431216
0.370914
-0.230739
-0.26816
-0.139074
0.101869
-0.273625
-0.0799174
-0.247518
0.0164368
-0.251266
-0.107902
-0.240185
-0.00725754
0.0594229
-0.24123
-0.315083
-0.178956
-0.0722659
0.0645586
0.395014
-0.0272633
-0.253461
-0.242615
-0.242008
-0.210614
-0.273916
-0.254473
0.29564
0.150917
-0.0405674
-0.0302013
-0.295941
0.0540379
0.342029
-0.22661
-0.185756
-0.309203
-0.362849
-0.205759
-0.29398
-0.367764
0.153224
0.223236
-0.291288
-0.303665
-0.197198
0.28908
-0.300072
0.14903
0.110295
-0.103862
-0.291016
-0.116178
0.0667817
-0.330165
-0.254994
-0.229917
-0.206524
-0.107434
0.181985
-0.148476
-0.228812
0.0244192
-0.224957
-0.200427
0.215496
-0.00525324
0.214353
-0.132491
-0.27652
0.107756
0.152233
-0.147405
-0.280963
0.239375
-0.00467625
-0.265304
0.159222
-0.0551721
0.275878
-0.117664
-0.234177
0.0717222
-0.225837
-0.165559
-0.183492
-0.263115
-0.319793
-0.282514
-0.170745
-0.359476
0.219264
-0.17612
-0.205618
-0.101615
-0.133615
0.352135
0.359157
-0.324186
0.168614
0.0674284
-0.340002
0.230048
-0.349708
-0.283085
-0.164857
-0.247128
0.0979905
-0.298929
-0.295885
-0.0808552
-0.258749
0.0799544
-0.307509
0.15498
0.0258626
0.31515
0.00395582
-0.243342
-0.283047
-0.274716
0.387736
0.148536
-0.0838726
-0.187482
-0.100733
-0.262866
0.138326
0.0452506
-0.109401
-0.0338276
0.330888
-0.248572
-0.189319
0.105623
-0.31214
-0.196892
0.259523
-0.265504
-0.113185
0.2834
-0.195071
-0.346208
-0.256465
-0.0777884
-0.251241
0.351555
-0.141089
-0.301064
-0.203927
-0.108776
-0.12777
0.202091
0.149063
-0.271316
-0.317073
-0.245331
-0.0796815
0.0428151
-0.0804962
0.182096
-0.123857
0.207965
-0.288013
0.290687
-0.124065
-0.195091
-0.080042
0.188109
0.331618
0.281338
-0.217932
-0.238816
0.0369564
0.336547
-0.262918
0.240268