/*--------------------------------*- C++ -*----------------------------------*\
  =========                 |
  \\      /  F ield         | OpenFOAM: The Open Source CFD Toolbox
   \\    /   O peration     | Website:  https://openfoam.org
    \\  /    A nd           | Version:  6
     \\/     M anipulation  |
\*---------------------------------------------------------------------------*/
FoamFile
{
    version     2.0;
    format      ascii;
    class       volVectorField;
    location    "0";
    object      U;
}
// * * * * * * * * * * * * * * * * * * * * * * * * * * * * * * * * * * * * * //

dimensions      [0 1 -1 0 0 0 0];

internalField   nonuniform List<vector> 
13046
(
(-0.462781 -0.250947 0)
(-0.64521 -0.359111 -2.92888e-21)
(-0.458111 -0.474156 -6.76445e-21)
(-0.517313 -0.269329 0)
(-0.438117 -0.412055 -6.52846e-21)
(-0.604259 -0.40249 0)
(-0.523741 -0.252835 1.01668e-21)
(-0.620243 -0.416258 1.4342e-21)
(-0.419216 -0.416691 -7.1949e-21)
(-0.496278 0.0310157 4.79892e-21)
(-0.854872 -0.458453 0)
(-0.168286 -0.461629 4.43123e-21)
(-0.478324 -0.209422 -3.42006e-21)
(-0.679219 -0.388051 -4.20144e-21)
(-0.404921 -0.484139 3.80181e-21)
(-0.421348 -0.00580879 -6.15403e-21)
(-0.247523 -0.560814 1.0215e-20)
(-0.868781 -0.38573 1.4347e-21)
(-0.445593 -0.343641 0)
(-0.547227 -0.436765 -3.23612e-21)
(-0.572892 -0.304594 9.89848e-21)
(-0.435536 -0.000227651 -2.69935e-21)
(-0.233501 -0.543929 -1.36779e-20)
(-0.864997 -0.401208 0)
(-0.4852 -0.285318 4.23666e-21)
(-0.606956 -0.367379 -7.35555e-21)
(-0.470785 -0.435379 0)
(-0.460809 -0.199187 -6.49321e-21)
(-0.690023 -0.375889 1.2468e-21)
(-0.408282 -0.500159 -6.55195e-21)
(-0.444381 -0.242329 0)
(-0.658186 -0.342924 0)
(-0.459528 -0.493625 6.87832e-21)
(-0.489826 -0.301472 -4.92211e-21)
(-0.483455 -0.421567 2.31782e-21)
(-0.587964 -0.363059 1.2892e-20)
(-0.505612 -0.311011 -7.31989e-21)
(-0.485033 -0.403402 3.653e-21)
(-0.574548 -0.372611 -6.64486e-21)
(-0.375575 -0.270132 5.81115e-21)
(-0.525224 -0.538108 1.17522e-21)
(-0.659879 -0.276595 -4.66764e-21)
(-0.529013 -0.343002 3.19423e-21)
(-0.501252 -0.365927 5.54454e-21)
(-0.534448 -0.378594 0)
(-0.538863 -0.327244 2.08744e-21)
(-0.480647 -0.363002 -8.48612e-21)
(-0.54268 -0.393434 -1.00686e-21)
(-0.472974 -0.242282 0)
(-0.64624 -0.372783 -2.0482e-22)
(-0.438395 -0.465101 -1.75116e-23)
(-0.586536 -0.596018 6.48753e-21)
(-0.296312 -0.277613 0)
(-0.678199 -0.209444 -5.83939e-21)
(-0.608597 -0.599831 -9.21059e-21)
(-0.672884 -0.196384 -9.85427e-21)
(-0.280261 -0.290922 9.07948e-21)
(-0.810453 -0.293636 -8.7915e-22)
(-0.345812 -0.107955 0)
(-0.395173 -0.651043 5.38234e-21)
(-0.555449 -0.150198 -3.34171e-21)
(-0.708945 -0.484716 2.22257e-21)
(-0.303497 -0.434117 -1.69874e-20)
(-0.246837 -0.514008 8.3877e-21)
(-0.816824 -0.446353 -1.16753e-21)
(-0.489137 -0.0510738 -6.6772e-21)
(-0.326479 -0.124068 0)
(-0.799343 -0.271675 0)
(-0.422785 -0.666653 0)
(-0.32719 -0.136992 -2.85285e-21)
(-0.786336 -0.269643 0)
(-0.434258 -0.657956 4.1172e-21)
(-0.826446 -0.293169 0)
(-0.343315 -0.0942087 4.7234e-23)
(-0.379878 -0.661407 5.35409e-23)
(-0.434867 -0.331333 0)
(-0.541011 -0.453277 3.50129e-21)
(-0.587905 -0.304949 -6.96749e-21)
(-0.342344 -0.636791 5.97955e-21)
(-0.366403 -0.071025 -9.66422e-21)
(-0.837867 -0.321799 0)
(-0.493898 -0.271703 2.27693e-21)
(-0.61396 -0.378419 0)
(-0.454266 -0.430987 0)
(-0.234125 -0.514177 -7.41232e-21)
(-0.830243 -0.44665 -8.29039e-22)
(-0.486007 -0.0350888 4.00914e-21)
(-0.563836 -0.0577739 -6.6582e-21)
(-0.201696 -0.440703 0)
(-0.789375 -0.518615 -8.89975e-22)
(-0.13761 -0.35797 0)
(-0.639079 -0.0519432 0)
(-0.775942 -0.596147 1.02788e-22)
(-0.468981 -0.13358 0)
(-0.482871 -0.117448 3.43182e-21)
(-0.754301 -0.407402 4.31814e-21)
(-0.763927 -0.424798 -2.00572e-21)
(-0.339843 -0.524567 -3.45372e-21)
(-0.317104 -0.515153 8.82132e-21)
(-0.199037 -0.425108 -4.53704e-22)
(-0.580466 -0.0670966 6.51331e-21)
(-0.777508 -0.5355 0)
(-0.538017 -0.309667 3.55397e-23)
(-0.465534 -0.37347 4.5662e-21)
(-0.558755 -0.402323 0)
(-0.318408 -0.326568 0)
(-0.632721 -0.209698 -3.10562e-21)
(-0.612634 -0.543034 0)
(-0.329871 -0.285106 9.96479e-21)
(-0.569992 -0.561497 0)
(-0.659987 -0.235542 -1.11794e-20)
(-0.499042 0.103551 0)
(-0.1016 -0.349737 0)
(-0.815354 -0.446529 -3.46899e-22)
(-0.482077 -0.223386 9.39862e-21)
(-0.665096 -0.384242 1.83603e-21)
(-0.416043 -0.471425 6.95811e-21)
(-0.438586 -0.107892 4.35957e-21)
(-0.444982 -0.126091 -8.12352e-21)
(-0.786752 -0.384372 -3.67138e-21)
(-0.335474 -0.561136 3.83502e-21)
(-0.766541 -0.38547 2.16134e-21)
(-0.34778 -0.547889 -3.58266e-21)
(-0.488315 0.0476393 -4.25212e-21)
(-0.857421 -0.452577 -1.07424e-21)
(-0.158548 -0.451437 -1.9483e-21)
(-0.457889 -0.163425 0)
(-0.726299 -0.388924 -3.07938e-21)
(-0.37331 -0.522365 8.02753e-21)
(-0.383409 -0.255209 0)
(-0.506749 -0.538819 -5.83434e-21)
(-0.668633 -0.288737 2.79487e-22)
(-0.15365 -0.358314 0)
(-0.637001 -0.0677755 0)
(-0.764229 -0.592556 0)
(-0.512996 -0.0915299 0)
(-0.779533 -0.460096 -5.08047e-21)
(-0.273255 -0.493357 -9.66718e-21)
(-0.438068 -0.229607 0)
(-0.673437 -0.345646 0)
(-0.447775 -0.509144 0)
(-0.559081 -0.210893 0)
(-0.646479 -0.470217 0)
(-0.3586 -0.402922 0)
(-0.317001 -0.291952 0)
(-0.586501 -0.568635 0)
(-0.660033 -0.221721 6.06068e-21)
(-0.335679 -0.33587 -9.95726e-22)
(-0.623399 -0.220472 -6.633e-21)
(-0.608844 -0.53053 5.96967e-21)
(-0.544897 -0.138605 8.24377e-21)
(-0.723678 -0.48115 0)
(-0.294068 -0.451175 2.20436e-20)
(-0.378736 -0.362876 0)
(-0.586031 -0.244505 7.10406e-21)
(-0.600896 -0.480698 -1.55305e-21)
(-0.651525 -0.588188 0)
(-0.65294 -0.167459 7.30164e-21)
(-0.672087 -0.580778 0)
(-0.640681 -0.153687 4.35259e-21)
(-0.25921 -0.322562 0)
(-0.249586 -0.34194 0)
(-0.590628 -0.204765 9.25825e-22)
(-0.636755 -0.504621 3.05729e-21)
(-0.332318 -0.375811 -4.35697e-21)
(-0.519297 0.0232685 -4.87288e-21)
(-0.16403 -0.447461 0)
(-0.843012 -0.477275 -1.63527e-21)
(-0.491445 0.0839112 -3.96052e-21)
(-0.122933 -0.394967 -8.72063e-22)
(-0.840161 -0.447552 0)
(-0.500087 -0.0807284 -5.29119e-21)
(-0.790673 -0.451864 0)
(-0.269569 -0.505368 1.09763e-20)
(-0.350801 -0.223492 0)
(-0.706964 -0.270758 1.43089e-21)
(-0.500865 -0.5896 3.31624e-21)
(-0.599522 -0.213182 6.01211e-21)
(-0.340549 -0.361593 2.10488e-21)
(-0.624298 -0.504926 0)
(-0.155379 -0.431776 0)
(-0.826914 -0.509642 0)
(-0.549913 0.00377201 4.11086e-21)
(-0.357912 -0.238149 0)
(-0.692158 -0.269908 -3.11037e-21)
(-0.511393 -0.572323 8.80142e-22)
(-0.362325 -0.35361 0)
(-0.594717 -0.234757 0)
(-0.602041 -0.492495 0)
(-0.553908 -0.222976 3.06139e-21)
(-0.634301 -0.46202 0)
(-0.370251 -0.401006 0)
(-0.691355 -0.411751 2.46223e-23)
(-0.377419 -0.477279 -4.74072e-21)
(-0.466632 -0.176829 1.02625e-20)
(-0.713064 -0.389466 0)
(-0.381405 -0.509535 -1.00587e-20)
(-0.533385 -0.0375592 -7.06651e-21)
(-0.205463 -0.469041 6.87095e-21)
(-0.815154 -0.491085 -3.95573e-21)
(-0.184731 -0.389768 6.75763e-21)
(-0.612142 -0.076431 3.83127e-21)
(-0.762433 -0.567072 4.3885e-21)
(-0.606018 -0.0457781 -1.14351e-20)
(-0.789607 -0.558099 0)
(-0.158408 -0.393447 -6.5669e-21)
(-0.591802 -0.641613 -3.30039e-22)
(-0.707903 -0.190785 2.64086e-21)
(-0.263456 -0.248218 0)
(-0.518886 -0.2175 -1.42898e-20)
(-0.353516 -0.0724608 4.8105e-21)
(-0.35473 -0.649253 -3.62021e-21)
(-0.840488 -0.310873 0)
(-0.79907 -0.554827 0)
(-0.598384 -0.0290765 -1.07881e-20)
(-0.148449 -0.397468 0)
(-0.521998 -0.300854 -1.06281e-20)
(-0.466005 -0.391677 -3.59052e-21)
(-0.57442 -0.392221 9.69566e-21)
(-0.447904 -0.207901 0)
(-0.68969 -0.361816 -1.81894e-22)
(-0.427685 -0.510337 -3.72495e-21)
(-0.174259 -0.373164 5.30055e-21)
(-0.626425 -0.0776118 0)
(-0.757495 -0.582681 -5.05371e-21)
(-0.520149 -0.204252 1.156e-20)
(-0.682341 -0.424015 7.42706e-21)
(-0.374107 -0.463411 0)
(-0.125774 -0.396283 0)
(-0.831353 -0.483113 9.96977e-22)
(-0.531955 0.0580794 0)
(-0.253541 -0.263559 0)
(-0.6976 -0.182064 0)
(-0.60764 -0.638093 0)
(-0.596872 -0.0624901 1.00316e-20)
(-0.778353 -0.550712 0)
(-0.178151 -0.405383 -9.03116e-23)
(-0.614927 -0.178351 2.75631e-21)
(-0.652492 -0.541227 -2.24717e-21)
(-0.291054 -0.358708 0)
(-0.443364 -0.161207 0)
(-0.731137 -0.373965 2.88616e-21)
(-0.384161 -0.535988 6.16333e-21)
(-0.725411 -0.619228 -6.69459e-21)
(-0.659435 -0.103651 -6.4627e-21)
(-0.178664 -0.333107 4.30761e-21)
(-0.649173 -0.140403 0)
(-0.686137 -0.595664 -2.86055e-21)
(-0.22812 -0.33681 -1.55975e-22)
(-0.108635 -0.369288 -5.96352e-21)
(-0.819057 -0.491918 0)
(-0.547395 0.0639635 -4.69521e-21)
(-0.332756 -0.258991 5.43148e-21)
(-0.546955 -0.580483 -3.99496e-21)
(-0.682052 -0.245384 4.74047e-22)
(-0.438132 0.120159 4.44293e-21)
(-0.112334 -0.361129 -8.03913e-21)
(-0.822104 -0.383432 0)
(-0.44051 -0.361661 -2.15021e-21)
(-0.558294 -0.294817 -8.02293e-21)
(-0.561791 -0.428481 9.48001e-21)
(-0.58259 -0.17283 3.62915e-21)
(-0.600398 -0.18539 9.41371e-23)
(-0.671468 -0.507833 -5.45894e-21)
(-0.652083 -0.523119 0)
(-0.308906 -0.37178 3.96252e-21)
(-0.305139 -0.393946 -4.01965e-21)
(-0.318717 -0.625968 -7.83135e-21)
(-0.373252 -0.0528737 5.02175e-21)
(-0.852726 -0.329068 -3.9727e-21)
(-0.431912 -0.176025 0)
(-0.724937 -0.356768 0)
(-0.406861 -0.542879 -8.11385e-21)
(-0.643876 -0.125173 -1.66131e-21)
(-0.703757 -0.597096 0)
(-0.215069 -0.347451 0)
(-0.471916 -0.0982767 -4.20984e-21)
(-0.784991 -0.419004 0)
(-0.304055 -0.531488 3.87569e-21)
(-0.514229 -0.342576 2.13533e-21)
(-0.541853 -0.364943 3.04555e-21)
(-0.509994 -0.378536 -1.07531e-21)
(-0.62101 -0.156926 -5.53031e-21)
(-0.674861 -0.557061 0)
(-0.264788 -0.361455 -6.99274e-21)
(-0.416468 -0.169125 0)
(-0.734836 -0.345654 3.65522e-21)
(-0.408701 -0.558855 -5.09689e-21)
(-0.499616 -0.198224 0)
(-0.50296 -0.183718 1.20567e-21)
(-0.320072 -0.250912 2.00888e-21)
(-0.548883 -0.595305 1.16791e-20)
(-0.691181 -0.236376 -1.13263e-20)
(-0.6096 -0.144869 -5.94483e-21)
(-0.690782 -0.549348 4.44852e-21)
(-0.257761 -0.377543 6.38296e-21)
(-0.481704 -0.0847385 0)
(-0.286187 -0.522671 -1.37459e-20)
(-0.794244 -0.43095 -2.45459e-21)
(-0.347531 -0.291568 -1.37828e-20)
(-0.560731 -0.549475 0)
(-0.652582 -0.246867 3.73265e-21)
(-0.243987 -0.30717 -8.55859e-21)
(-0.667178 -0.161108 -4.05941e-21)
(-0.650455 -0.609265 0)
(-0.403841 -0.12602 -4.15939e-21)
(-0.777709 -0.344911 -3.08208e-21)
(-0.372651 -0.586855 2.2972e-21)
(-0.299542 -0.262957 7.20456e-22)
(-0.574919 -0.605413 0)
(-0.689925 -0.214779 8.02418e-21)
(-0.405218 -0.111566 0)
(-0.420287 -0.101499 0)
(-0.792728 -0.349991 -1.87716e-21)
(-0.360279 -0.591959 -6.0889e-21)
(-0.796958 -0.368173 2.66166e-21)
(-0.342574 -0.578654 6.3812e-21)
(-0.178861 -0.454364 -5.25812e-21)
(-0.829011 -0.494737 0)
(-0.534917 -0.007739 -5.36926e-21)
(-0.4353 -0.140352 4.76398e-21)
(-0.754727 -0.373018 0)
(-0.367267 -0.55182 2.11827e-21)
(-0.72587 -0.398149 2.22656e-22)
(-0.0624928 -0.252173 7.21172e-21)
(-0.469106 0.145482 1.14763e-20)
(-0.583814 -0.264066 -3.72288e-21)
(-0.398402 -0.353436 0)
(-0.580289 -0.467445 0)
(-0.543898 -0.166637 8.05131e-21)
(-0.694572 -0.469498 0)
(-0.323123 -0.43655 1.30002e-20)
(-0.228867 -0.483668 -4.38512e-21)
(-0.522483 -0.0562928 1.43272e-20)
(-0.803746 -0.477987 3.19907e-21)
(-0.616887 -0.612259 0)
(-0.6798 -0.18578 3.65984e-21)
(-0.264691 -0.28324 -1.02888e-20)
(-0.736852 -0.607342 -7.88421e-21)
(-0.647292 -0.093095 -4.12348e-21)
(-0.17416 -0.347182 0)
(-0.660107 -0.419558 -7.77732e-21)
(-0.391876 -0.445283 0)
(-0.508157 -0.155992 9.20365e-21)
(-0.716839 -0.438367 2.51602e-21)
(-0.335864 -0.479007 3.85306e-21)
(-0.653486 -0.435949 4.5323e-21)
(-0.38093 -0.431716 2.02138e-23)
(-0.4183 -0.0251141 -3.5912e-22)
(-0.265905 -0.573398 4.79749e-21)
(-0.858139 -0.379925 -2.10918e-21)
(-0.582914 -0.662685 0)
(-0.722733 -0.19122 8.25972e-22)
(-0.257941 -0.234149 0)
(-0.512697 -0.142229 -9.37412e-21)
(-0.734016 -0.444599 -3.06795e-21)
(-0.320723 -0.48107 -4.66445e-21)
(-0.573006 -0.20296 0)
(-0.643957 -0.487627 -4.43995e-21)
(-0.34325 -0.390913 0)
(-0.647938 -0.210301 0)
(-0.601697 -0.563067 0)
(-0.310464 -0.310252 0)
(-0.487722 -0.253322 -3.15241e-21)
(-0.632379 -0.3815 -4.47388e-21)
(-0.440031 -0.448391 -6.63948e-23)
(-0.249347 -0.294117 1.05706e-20)
(-0.676932 -0.169363 1.00953e-20)
(-0.638364 -0.616172 4.31636e-21)
(-0.558217 -0.0413851 -6.39692e-21)
(-0.804734 -0.513669 3.31995e-21)
(-0.189848 -0.445069 -6.65358e-21)
(-0.739924 -0.589327 5.39663e-21)
(-0.633691 -0.0951127 4.17706e-21)
(-0.186415 -0.363536 5.32218e-21)
(-0.315281 -0.164219 -8.63341e-21)
(-0.472936 -0.655126 6.09335e-21)
(-0.766497 -0.251824 -4.77302e-21)
(-0.384384 -0.0873161 2.72111e-21)
(-0.383461 -0.101754 -2.39059e-21)
(-0.807578 -0.3313 -6.04197e-22)
(-0.821411 -0.334337 0)
(-0.347817 -0.61817 -2.14228e-21)
(-0.362456 -0.61645 -1.93517e-21)
(-0.0787501 -0.285626 -9.73908e-21)
(-0.758074 -0.395362 -2.45181e-22)
(-0.464046 0.134607 2.7459e-21)
(-0.433766 0.103014 -2.73011e-22)
(-0.132099 -0.398729 1.11554e-20)
(-0.843644 -0.385244 0)
(-0.58531 -0.161801 -1.29194e-20)
(-0.689135 -0.514049 -1.16464e-21)
(-0.293705 -0.401155 0)
(-0.1981 -0.473174 -1.32003e-20)
(-0.52424 -0.0248529 5.33871e-21)
(-0.825227 -0.484972 0)
(-0.360659 -0.144092 1.25661e-20)
(-0.371475 -0.130461 -9.48107e-21)
(-0.774245 -0.300582 3.49391e-21)
(-0.783923 -0.312233 1.28141e-21)
(-0.420427 -0.624552 -3.67211e-21)
(-0.400359 -0.618503 -1.88721e-21)
(-0.109925 -0.36424 0)
(-0.799917 -0.562443 0)
(-0.612533 -0.00452472 1.98582e-21)
(-0.415522 0.136867 -5.22034e-21)
(-0.0985769 -0.326463 0)
(-0.793815 -0.356944 0)
(-0.570194 -0.330042 6.11827e-23)
(-0.468869 -0.331998 4.78585e-21)
(-0.523614 -0.422355 2.17872e-21)
(-0.47108 0.120198 -9.35949e-21)
(-0.804363 -0.417816 5.07416e-22)
(-0.0957103 -0.333224 5.21801e-22)
(-0.367354 -0.207249 0)
(-0.715966 -0.289602 -6.27699e-21)
(-0.474446 -0.584197 -5.73237e-23)
(-0.564694 -0.00568459 3.24907e-23)
(-0.820202 -0.521882 4.18971e-21)
(-0.157426 -0.424433 -3.83876e-27)
(-0.643607 -0.403382 9.0192e-24)
(-0.0321138 -0.182594 -4.15592e-21)
(-0.491282 0.132999 -4.62349e-21)
(-0.385242 -0.286604 -4.91436e-21)
(-0.534762 -0.518705 3.70189e-21)
(-0.642439 -0.277724 1.14477e-20)
(-0.554384 -0.280436 0)
(-0.580212 -0.432382 -1.04563e-20)
(-0.428495 -0.373281 6.1334e-21)
(-0.46951 0.0514946 0)
(-0.167715 -0.46479 5.76195e-21)
(-0.863588 -0.435709 -9.55045e-23)
(-0.56286 -0.266355 0)
(-0.587206 -0.444506 -3.54643e-21)
(-0.411725 -0.368298 -8.66359e-21)
(-0.557904 -0.337027 4.61228e-21)
(-0.481896 -0.340351 -2.56026e-21)
(-0.5237 -0.406987 1.16814e-21)
(-0.236968 -0.264817 5.22805e-21)
(-0.702221 -0.169384 -3.54774e-21)
(-0.626471 -0.652758 4.76973e-21)
(-0.593063 -0.289818 0)
(-0.552253 -0.462108 0)
(-0.41904 -0.328066 7.47717e-22)
(-0.596033 -0.271019 5.88904e-21)
(-0.5706 -0.470935 2.75682e-21)
(-0.405271 -0.339771 1.05589e-22)
(-0.306233 -0.179613 1.30347e-20)
(-0.754731 -0.24293 -4.97898e-21)
(-0.492446 -0.657115 -6.07609e-21)
(-0.208737 -0.505871 8.75046e-21)
(-0.19728 -0.492037 -9.12392e-21)
(-0.858039 -0.436317 1.2235e-21)
(-0.851616 -0.450974 8.65751e-22)
(-0.471235 0.00792427 0)
(-0.485601 0.00881451 -4.91302e-21)
(-0.570102 -0.0278844 7.82322e-21)
(-0.810758 -0.521621 -2.72668e-21)
(-0.172594 -0.427328 8.23227e-21)
(-0.462761 -0.673214 -3.96099e-21)
(-0.307267 -0.149527 2.7553e-21)
(-0.780433 -0.249535 6.08824e-21)
(-0.347903 -0.254673 -4.95456e-21)
(-0.530285 -0.569924 -3.73194e-21)
(-0.68134 -0.258916 3.56778e-21)
(-0.668819 -0.136939 0)
(-0.681083 -0.622323 2.96052e-21)
(-0.212472 -0.314894 1.61341e-22)
(-0.723966 -0.480293 6.38546e-22)
(-0.0493374 -0.239861 -4.10265e-21)
(-0.570517 0.096938 -3.79517e-21)
(-0.137364 -0.368106 0)
(-0.627531 -0.0417073 0)
(-0.782694 -0.584717 1.81081e-21)
(-0.506001 0.0683522 4.43693e-21)
(-0.12983 -0.408279 0)
(-0.844275 -0.464721 -9.78485e-22)
(-0.0273384 -0.15549 -1.50767e-32)
(-0.596918 -0.367106 2.06446e-22)
(-0.456456 0.138025 4.81606e-21)
(-0.616947 -0.319645 -2.4282e-22)
(-0.039691 -0.174577 1.50398e-32)
(-0.414303 0.162176 -4.28449e-21)
(-0.724521 -0.523571 -5.90738e-21)
(-0.58294 -0.127905 0)
(-0.260116 -0.416383 -1.31975e-20)
(-0.791423 -0.543336 -4.42966e-22)
(-0.0786587 -0.324074 -4.37794e-21)
(-0.61112 0.0358311 0)
(-0.528539 -0.0858255 -6.43459e-21)
(-0.779022 -0.476964 3.11884e-21)
(-0.257349 -0.479338 6.57016e-21)
(-0.396191 0.0279724 1.28005e-20)
(-0.22306 -0.551992 3.27266e-21)
(-0.889773 -0.362029 0)
(-0.503694 -0.228073 2.41892e-21)
(-0.407995 -0.449415 -2.3617e-21)
(-0.654159 -0.405936 1.87488e-21)
(-0.796765 -0.570991 8.90577e-22)
(-0.117349 -0.366659 4.83638e-21)
(-0.617779 -0.016202 2.09685e-21)
(-0.675911 -0.144243 -4.17103e-21)
(-0.22013 -0.303469 -2.90594e-21)
(-0.668469 -0.625298 0)
(-0.710895 -0.58248 0)
(-0.630524 -0.119741 0)
(-0.217789 -0.361451 0)
(-0.00805838 -0.0517267 0)
(-0.336469 -0.177198 6.82459e-22)
(-0.274339 0.106894 3.67825e-21)
(-0.722427 -0.424364 3.21865e-22)
(-0.0570358 -0.2452 -5.1275e-21)
(-0.496142 0.134828 -4.71641e-21)
(-0.504555 -0.24343 -6.3858e-21)
(-0.420026 -0.439726 5.59872e-21)
(-0.63752 -0.402385 2.29377e-21)
(-0.811673 -0.538763 3.20572e-21)
(-0.589859 0.00378009 -4.52826e-21)
(-0.125266 -0.387177 0)
(-0.0947002 -0.343282 -4.96284e-21)
(-0.622684 0.00588056 0)
(-0.794577 -0.566437 -2.31047e-21)
(-0.501609 -0.0235639 -4.91266e-21)
(-0.214554 -0.493813 1.38695e-20)
(-0.832852 -0.461719 0)
(-0.300012 -0.594987 -9.70224e-21)
(-0.845352 -0.360139 2.60283e-21)
(-0.403555 -0.0498247 0)
(-0.290135 -0.183388 -1.62357e-20)
(-0.755807 -0.229692 6.34737e-21)
(-0.512454 -0.673033 -1.91116e-21)
(-0.801847 -0.31417 9.36305e-22)
(-0.366428 -0.112026 5.57168e-21)
(-0.386038 -0.631957 -5.75639e-21)
(-0.281852 -0.605947 -8.54658e-21)
(-0.382984 -0.0234107 0)
(-0.870721 -0.345708 0)
(-0.4017 -0.199624 -2.46596e-21)
(-0.401075 -0.182875 0)
(-0.711871 -0.320735 -6.34241e-21)
(-0.728322 -0.325649 6.7813e-21)
(-0.447588 -0.555664 1.02728e-21)
(-0.431555 -0.567102 -1.09278e-21)
(-0.387389 -0.211837 2.36677e-21)
(-0.706466 -0.304962 0)
(-0.467538 -0.563648 1.89512e-21)
(-0.343971 -0.14359 0)
(-0.77703 -0.286118 -5.67999e-21)
(-0.431917 -0.640152 1.31484e-21)
(-0.729868 -0.57983 -2.79903e-21)
(-0.627146 -0.106138 4.30247e-21)
(-0.202486 -0.370673 -1.08874e-20)
(-0.803594 -0.542697 0)
(-0.583762 -0.0220499 1.18226e-20)
(-0.153315 -0.409181 0)
(-0.205625 -0.396808 -3.43122e-21)
(-0.605692 -0.0929059 -2.90891e-21)
(-0.750265 -0.557122 -1.80378e-21)
(-0.664568 -0.330461 4.65741e-23)
(-0.0538727 -0.210468 2.66242e-21)
(-0.42181 0.158975 0)
(-0.413456 -0.264423 4.43378e-21)
(-0.429983 -0.263952 0)
(-0.498041 -0.508265 0)
(-0.650809 -0.30932 1.33975e-20)
(-0.487598 -0.494627 0)
(-0.645595 -0.325176 -8.53944e-21)
(-0.347794 -0.170258 0)
(-0.343377 -0.18856 0)
(-0.475307 -0.614802 -7.16464e-23)
(-0.754757 -0.280776 3.75951e-21)
(-0.457416 -0.623278 9.52421e-21)
(-0.738452 -0.273691 -8.07047e-21)
(-0.637148 -0.423634 0)
(-0.0308118 -0.178825 5.86546e-21)
(-0.523075 0.120573 0)
(-0.811322 -0.53315 -2.12937e-21)
(-0.580458 -0.0072529 1.3741e-21)
(-0.140252 -0.405751 2.92162e-21)
(-0.314961 -0.237977 -8.77047e-21)
(-0.53955 -0.611212 -4.16671e-21)
(-0.704567 -0.236807 1.16692e-20)
(-0.710715 -0.615016 6.03108e-21)
(-0.658338 -0.11688 1.07756e-20)
(-0.193775 -0.331571 0)
(-0.314884 -0.606455 1.03816e-20)
(-0.839408 -0.35096 -2.76934e-21)
(-0.394844 -0.0608247 6.40358e-21)
(-0.790995 -0.46611 0)
(-0.529195 0.101001 0)
(-0.0832806 -0.318202 0)
(-0.801239 -0.486774 0)
(-0.549343 0.0851735 4.07985e-21)
(-0.0874975 -0.328548 1.0042e-21)
(-0.389047 -0.134011 -5.2027e-21)
(-0.77444 -0.329662 1.88611e-21)
(-0.392747 -0.599354 2.79306e-21)
(-0.356089 -0.303498 -1.29815e-21)
(-0.56765 -0.534674 0)
(-0.64035 -0.246102 2.88114e-23)
(-0.500049 -0.00623463 5.72295e-21)
(-0.200571 -0.487149 8.03434e-21)
(-0.844133 -0.461323 -1.00928e-21)
(-0.730288 -0.539079 0)
(-0.595482 -0.116565 0)
(-0.241749 -0.403808 1.14294e-20)
(-0.273652 -0.531805 2.64851e-21)
(-0.811323 -0.428132 4.13372e-21)
(-0.473325 -0.0650997 1.4254e-20)
(-0.333059 -0.197931 0)
(-0.491168 -0.62026 -6.27371e-21)
(-0.732513 -0.263474 4.18349e-21)
(-0.628537 -0.188338 1.90339e-23)
(-0.636974 -0.549628 3.2959e-21)
(-0.297147 -0.341821 0)
(-0.359756 -0.271651 5.22039e-23)
(-0.536279 -0.55075 -1.25505e-21)
(-0.664303 -0.264274 -4.67184e-21)
(-0.180396 -0.461368 7.77018e-23)
(-0.840232 -0.480578 2.20028e-21)
(-0.520461 0.00343807 6.55598e-21)
(-0.451215 -0.0937251 -2.5692e-21)
(-0.795773 -0.399993 -1.35389e-21)
(-0.314675 -0.551303 0)
(-0.403122 -0.286071 -4.80535e-21)
(-0.523102 -0.50455 8.21604e-21)
(-0.637175 -0.293344 -7.55155e-21)
(-0.380751 -0.00471514 4.88911e-21)
(-0.262883 -0.595507 3.72108e-21)
(-0.8826 -0.346982 -1.54552e-21)
(-0.418673 -0.226407 -2.94912e-21)
(-0.680539 -0.330129 0)
(-0.458873 -0.52426 0)
(-0.567571 -0.233453 -1.10292e-20)
(-0.616233 -0.46586 2.14283e-21)
(-0.378117 -0.383157 0)
(-0.709049 -0.56015 0)
(-0.616075 -0.130304 8.49582e-21)
(-0.238247 -0.375835 0)
(-0.419555 0.0754601 -2.92278e-21)
(-0.163958 -0.46554 -1.1667e-21)
(-0.875509 -0.383016 8.9409e-22)
(-0.404118 0.065275 8.07539e-21)
(-0.180385 -0.49431 0)
(-0.883918 -0.369107 -1.21562e-21)
(-0.279834 -0.547232 2.35748e-21)
(-0.819585 -0.412524 -2.36753e-21)
(-0.456345 -0.0611735 -1.30601e-20)
(-0.645241 -0.183621 -3.70991e-21)
(-0.637175 -0.574384 -3.30499e-21)
(-0.280121 -0.325374 0)
(-0.141841 -0.422117 1.06733e-21)
(-0.857843 -0.371888 -8.38785e-22)
(-0.411821 0.0988818 0)
(-0.235335 -0.473511 0)
(-0.790101 -0.48623 -2.35003e-21)
(-0.534261 -0.0694155 -1.61075e-21)
(-0.0155803 -0.10881 4.45429e-21)
(-0.502191 -0.329146 -8.8834e-23)
(-0.424291 0.122479 0)
(-0.355912 0.163659 -4.86446e-21)
(-0.538677 -0.256986 0)
(-0.0306371 -0.132706 4.36079e-21)
(-0.282287 -0.593965 -7.11914e-23)
(-0.860931 -0.361337 0)
(-0.399584 -0.0302505 0)
(-0.143944 -0.421515 0)
(-0.836628 -0.490374 0)
(-0.534821 0.0338564 8.8773e-21)
(-0.457241 -0.0117966 -5.06496e-21)
(-0.460719 -0.0275867 4.09697e-21)
(-0.2305 -0.530995 -4.41461e-21)
(-0.855435 -0.420898 -4.2709e-22)
(-0.243215 -0.534386 -7.19308e-21)
(-0.842166 -0.423455 8.62369e-22)
(-0.550799 -0.0730872 3.01632e-21)
(-0.78272 -0.50249 1.57412e-21)
(-0.226735 -0.456739 0)
(-0.195327 -0.311238 0)
(-0.69446 -0.633263 0)
(-0.674294 -0.125308 0)
(-0.457041 -0.273932 0)
(-0.479227 -0.465809 -1.1919e-20)
(-0.627304 -0.345774 4.61494e-21)
(-0.579922 -0.0893905 8.26993e-21)
(-0.759132 -0.530429 6.14845e-22)
(-0.221328 -0.424609 9.96194e-21)
(-0.22228 -0.410939 6.60957e-21)
(-0.592738 -0.0974098 -1.14996e-20)
(-0.748358 -0.542169 -8.52449e-22)
(-0.365623 -0.0353626 5.29007e-21)
(-0.303764 -0.62894 4.05312e-21)
(-0.867156 -0.326765 4.1513e-21)
(-0.337334 -0.160787 0)
(-0.764591 -0.274323 1.71119e-21)
(-0.454529 -0.636948 -9.33756e-21)
(-0.36245 -0.194567 0)
(-0.729061 -0.28934 8.24034e-21)
(-0.465294 -0.596929 -6.70041e-23)
(-0.552897 -0.12373 -1.04638e-20)
(-0.736646 -0.495145 8.16274e-22)
(-0.274891 -0.446844 -5.58799e-21)
(-0.566004 -0.117766 0)
(-0.737646 -0.509782 7.62559e-22)
(-0.260105 -0.435199 5.2222e-21)
(-0.414154 -0.299793 0)
(-0.528909 -0.487391 -1.29656e-20)
(-0.621684 -0.297256 4.20499e-21)
(-0.387585 -0.175587 0)
(-0.736043 -0.318007 0)
(-0.431099 -0.581924 1.45333e-21)
(-0.11542 -0.353836 -1.05458e-20)
(-0.787344 -0.584498 -4.95069e-21)
(-0.63332 -0.024412 0)
(-0.571218 0.0783638 5.63302e-21)
(-0.0762206 -0.308426 0)
(-0.780061 -0.49983 5.26954e-22)
(-0.580437 0.0822915 3.02739e-23)
(-0.0600764 -0.274973 0)
(-0.756884 -0.498841 -1.38622e-21)
(-0.377438 -0.238947 3.47502e-21)
(-0.499044 -0.553846 -1.38093e-21)
(-0.684258 -0.288165 -9.78323e-23)
(-0.750756 -0.450901 1.11014e-22)
(-0.0646378 -0.270494 7.77725e-21)
(-0.52933 0.114253 0)
(-0.444509 -0.0749439 1.11774e-20)
(-0.30124 -0.559107 4.91862e-21)
(-0.812809 -0.397324 0)
(-0.0477021 -0.233994 -1.17912e-21)
(-0.714647 -0.461419 -4.71497e-22)
(-0.546474 0.11031 0)
(-0.531053 -0.279235 7.41593e-21)
(-0.442665 -0.395888 7.65209e-21)
(-0.590808 -0.408323 -2.77291e-23)
(-0.489275 -0.173263 -1.50431e-21)
(-0.710143 -0.412388 -9.55934e-22)
(-0.366255 -0.49167 -5.52643e-21)
(-0.618995 -0.580836 7.56216e-21)
(-0.655302 -0.192771 8.32184e-21)
(-0.286899 -0.310493 0)
(-0.0936906 -0.346994 0)
(-0.799184 -0.546438 -6.78673e-22)
(-0.606679 0.0227901 0)
(-0.722883 -0.553974 0)
(-0.607409 -0.11763 0)
(-0.233241 -0.390571 0)
(-0.24235 -0.569864 0)
(-0.399158 0.00775076 -4.76018e-21)
(-0.883761 -0.364215 1.51511e-21)
(-0.492572 -0.157525 0)
(-0.72195 -0.423494 4.8685e-22)
(-0.350208 -0.493063 5.39693e-21)
(-0.466624 -0.283258 0)
(-0.48284 -0.452633 1.024e-20)
(-0.615201 -0.350608 0)
(-0.812708 -0.534777 -3.03071e-21)
(-0.586373 0.0237785 4.29811e-21)
(-0.112316 -0.374474 0)
(-0.245845 -0.500359 -5.50484e-21)
(-0.80478 -0.462256 1.51435e-22)
(-0.505445 -0.05959 6.41831e-23)
(-0.456799 0.0697639 0)
(-0.460378 0.0859893 5.54247e-21)
(-0.15607 -0.445825 -2.82245e-21)
(-0.139758 -0.418276 -3.39418e-21)
(-0.864244 -0.415375 -5.97163e-22)
(-0.854842 -0.418351 4.91113e-22)
(-0.569307 -0.182173 0)
(-0.666523 -0.491434 1.27941e-20)
(-0.324307 -0.404231 6.2921e-21)
(-0.708953 -0.518156 8.31638e-21)
(-0.583566 -0.139368 0)
(-0.270194 -0.407907 -7.00847e-21)
(-0.538496 -0.243755 -6.26824e-21)
(-0.620492 -0.432347 3.65747e-21)
(-0.402108 -0.405921 9.39713e-21)
(-0.796054 -0.519178 1.46342e-21)
(-0.581902 0.0577219 5.8263e-21)
(-0.78609 -0.530351 -6.61984e-22)
(-0.0849367 -0.333368 0)
(-0.597783 0.0526114 -5.63332e-21)
(-0.0746539 -0.317882 0)
(-0.500543 -0.122654 0)
(-0.754195 -0.441414 0)
(-0.311075 -0.499408 6.10021e-21)
(-0.568491 0.0337237 7.96203e-21)
(-0.569085 0.0492564 -1.49378e-20)
(-0.819508 -0.519859 9.7572e-22)
(-0.81328 -0.513415 -2.77849e-21)
(-0.114028 -0.383892 8.32953e-21)
(-0.101435 -0.363129 -5.65961e-23)
(-0.596477 -0.147825 0)
(-0.693769 -0.531966 -7.92116e-21)
(-0.275932 -0.390814 9.07035e-21)
(-0.532546 -0.192872 6.21789e-21)
(-0.685619 -0.43947 -5.83111e-21)
(-0.354708 -0.453958 0)
(-0.411048 0.0407059 0)
(-0.203951 -0.524668 0)
(-0.88553 -0.377913 1.16759e-21)
(-0.553865 -0.176914 4.59228e-21)
(-0.677019 -0.475765 -3.57161e-21)
(-0.328646 -0.420887 -1.02729e-20)
(-0.535109 -0.224325 2.64474e-21)
(-0.639653 -0.440132 -4.29492e-21)
(-0.384899 -0.418405 5.53874e-21)
(-0.438463 0.0644158 0)
(-0.168211 -0.467207 0)
(-0.875002 -0.402883 -1.55918e-21)
(-0.473645 -0.148347 0)
(-0.738218 -0.406473 9.92927e-22)
(-0.348758 -0.513773 -5.91553e-21)
(-0.660118 -0.643257 0)
(-0.690568 -0.148025 0)
(-0.216741 -0.286903 -3.7907e-22)
(-0.3182 -0.193644 -4.12139e-22)
(-0.739391 -0.250464 0)
(-0.497892 -0.636832 9.48909e-21)
(-0.750843 -0.610507 3.00759e-21)
(-0.153495 -0.341155 0)
(-0.650582 -0.0771699 0)
(-0.016715 -0.0931645 -1.0607e-20)
(-0.459058 -0.250292 -9.54782e-22)
(-0.352513 0.131749 -5.15214e-21)
(-0.523496 -0.168075 0)
(-0.698112 -0.448032 3.55437e-21)
(-0.339338 -0.45755 -5.08893e-21)
(-0.437592 0.0185454 8.6736e-21)
(-0.213328 -0.526157 1.45136e-20)
(-0.874519 -0.401289 0)
(-0.547556 -0.668631 -2.39241e-21)
(-0.739829 -0.209799 -4.43722e-21)
(-0.271638 -0.207834 -3.57902e-21)
(-0.396636 0.160249 0)
(-0.0643625 -0.232522 -3.81277e-21)
(-0.696574 -0.320204 0)
(-0.364871 -0.333788 6.29999e-21)
(-0.348122 -0.323782 -6.44532e-21)
(-0.583784 -0.504483 0)
(-0.610567 -0.244547 5.09576e-21)
(-0.587478 -0.525296 -7.68095e-21)
(-0.625339 -0.2355 -4.07343e-21)
(-0.55454 -0.248713 5.89131e-21)
(-0.60747 -0.444779 4.97734e-21)
(-0.399756 -0.387055 0)
(-0.376859 -0.301214 5.65967e-21)
(-0.381032 -0.31791 0)
(-0.552425 -0.516529 -4.47877e-21)
(-0.633665 -0.265242 4.45842e-21)
(-0.562929 -0.500363 4.51462e-21)
(-0.617649 -0.262985 -8.1513e-24)
(-0.520766 -0.180012 4.02053e-22)
(-0.668475 -0.448288 -2.57973e-21)
(-0.360347 -0.434835 -6.82402e-21)
(-0.544759 -0.19419 -1.07339e-20)
(-0.665819 -0.461401 6.72432e-23)
(-0.352163 -0.423131 0)
(-0.0582477 -0.28188 0)
(-0.759335 -0.519728 0)
(-0.59968 0.0665843 6.26497e-21)
(-0.390183 -0.227489 -3.20774e-21)
(-0.690953 -0.301802 0)
(-0.479339 -0.5509 2.61144e-21)
(-0.550678 0.0238266 -1.40225e-20)
(-0.828923 -0.508441 1.4288e-21)
(-0.137157 -0.414289 -4.76178e-21)
(-0.537403 -0.111303 0)
(-0.539136 -0.0972415 6.20038e-21)
(-0.752382 -0.480591 -1.01791e-21)
(-0.765612 -0.48511 3.02372e-21)
(-0.273281 -0.463776 -6.82598e-21)
(-0.259161 -0.465875 -6.33504e-21)
(-0.407382 -0.236096 0)
(-0.677768 -0.316133 0)
(-0.475878 -0.5307 1.24821e-21)
(-0.370814 -0.156753 4.07388e-21)
(-0.75988 -0.305814 0)
(-0.426943 -0.60914 3.17495e-21)
(-0.526956 -0.135037 -3.04246e-21)
(-0.731187 -0.463838 0)
(-0.30483 -0.467013 0)
(-0.471838 -0.314541 5.94343e-21)
(-0.58463 -0.341929 -2.5048e-21)
(-0.505 -0.429408 2.70187e-21)
(-0.566088 -0.0978952 0)
(-0.756058 -0.513468 0)
(-0.241233 -0.438142 -1.05705e-20)
(-0.438234 -0.28063 0)
(-0.496025 -0.477548 1.48813e-21)
(-0.628511 -0.326012 0)
(-0.573128 -0.150385 -6.41698e-21)
(-0.701277 -0.507535 -4.48136e-21)
(-0.290718 -0.417989 -8.97961e-22)
(-0.386551 -0.161067 4.13882e-21)
(-0.75126 -0.320934 0)
(-0.418273 -0.590547 6.68815e-21)
(-0.459751 -0.30349 -5.88651e-21)
(-0.444427 -0.30934 -2.69481e-21)
(-0.598771 -0.336557 2.55285e-21)
(-0.503751 -0.445276 -5.42369e-21)
(-0.600757 -0.321614 0)
(-0.516408 -0.455089 -9.42035e-21)
(-0.407917 -0.31528 -2.7238e-21)
(-0.542188 -0.482284 6.03399e-21)
(-0.396004 -0.323924 1.75814e-21)
(-0.609728 -0.286835 -6.04605e-21)
(-0.560236 -0.490383 -2.85054e-21)
(-0.610476 -0.273254 3.36001e-23)
(-0.417247 -0.205835 3.48709e-21)
(-0.432212 -0.194341 0)
(-0.700117 -0.334393 4.73333e-21)
(-0.707377 -0.350466 -3.69934e-21)
(-0.442494 -0.536801 -6.05563e-21)
(-0.423593 -0.531312 1.01189e-20)
(-0.293495 -0.578619 0)
(-0.835207 -0.37861 -1.45377e-21)
(-0.421073 -0.054602 -6.9498e-21)
(-0.233923 -0.282659 4.59207e-21)
(-0.690257 -0.161966 5.59142e-21)
(-0.642807 -0.638214 -7.50674e-21)
(-0.273767 -0.566921 -4.92543e-21)
(-0.265606 -0.551889 4.01611e-21)
(-0.842772 -0.391949 1.25727e-21)
(-0.835597 -0.409098 2.16405e-21)
(-0.430182 -0.038487 1.78669e-20)
(-0.447763 -0.0421609 -9.30968e-21)
(-0.285984 -0.251283 6.43054e-21)
(-0.575967 -0.623699 -3.86991e-21)
(-0.701141 -0.209043 1.10762e-21)
(-0.501836 -0.330094 9.67423e-21)
(-0.503962 -0.395888 0)
(-0.558764 -0.359492 -9.08378e-21)
(-0.553384 -0.0885099 -2.99087e-21)