/*--------------------------------*- C++ -*----------------------------------*\
  =========                 |
  \\      /  F ield         | OpenFOAM: The Open Source CFD Toolbox
   \\    /   O peration     | Website:  https://openfoam.org
    \\  /    A nd           | Version:  6
     \\/     M anipulation  |
\*---------------------------------------------------------------------------*/
FoamFile
{
    version     2.0;
    format      ascii;
    class       volScalarField;
    location    "0";
    object      p;
}
// * * * * * * * * * * * * * * * * * * * * * * * * * * * * * * * * * * * * * //

dimensions      [0 2 -2 0 0 0 0];

internalField   nonuniform List<scalar> 
13046
(
0.197798
0.172443
0.20393
0.201058
0.203674
0.174426
0.190597
0.176756
0.207634
0.118236
-0.0234983
0.187732
0.196202
0.145425
0.200252
0.140828
0.184763
-0.000537312
0.210863
0.19309
0.18959
0.137285
0.187234
-0.00437128
0.197906
0.189658
0.19894
0.190166
0.148628
0.2021
0.204699
0.157685
0.197076
0.202727
0.203307
0.185594
0.199676
0.205224
0.19107
0.204084
0.191172
0.162379
0.195136
0.207792
0.198128
0.197704
0.200268
0.196447
0.192041
0.17002
0.205362
0.164275
0.205538
0.145216
0.17132
0.13973
0.208444
0.0700768
0.182496
0.183252
0.16984
0.127458
0.202822
0.19174
0.0438269
0.150196
0.186837
0.0772926
0.178783
0.1913
0.0850808
0.178755
0.0560546
0.178701
0.183172
0.211485
0.201701
0.18131
0.187581
0.167763
0.0475715
0.195471
0.184824
0.198981
0.190098
0.0292799
0.141747
0.135719
0.196717
0.0565236
0.19786
0.114653
0.0546344
0.177285
0.170707
0.106328
0.0970927
0.195123
0.197821
0.198845
0.133652
0.0651438
0.199611
0.203637
0.191525
0.211479
0.152686
0.174775
0.204585
0.183612
0.156304
0.0845058
0.185078
-0.0807358
0.197349
0.156647
0.197747
0.174038
0.177442
0.084364
0.192104
0.101091
0.192443
0.111946
-0.0388457
0.186721
0.189751
0.116298
0.201116
0.202943
0.191611
0.159546
0.19856
0.118428
0.0718812
0.161113
0.0791348
0.196543
0.202935
0.15157
0.194808
0.178503
0.170814
0.204539
0.202558
0.173777
0.159892
0.209947
0.163243
0.182671
0.171007
0.114059
0.201757
0.213447
0.173745
0.179803
0.150127
0.14346
0.141561
0.143396
0.206902
0.206934
0.178901
0.154541
0.204794
0.113166
0.189273
-0.0203035
0.0971406
0.185256
-0.0669801
0.159359
0.068009
0.195544
0.205545
0.133519
0.188528
0.178627
0.204949
0.161552
0.192813
0.00258684
0.115245
0.204564
0.144165
0.183687
0.212735
0.166896
0.175129
0.182272
0.171618
0.203277
0.139101
0.205375
0.1898
0.12975
0.19842
0.136014
0.193378
0.0364491
0.199648
0.129737
0.0750144
0.118166
0.0486227
0.196036
0.158386
0.131446
0.202619
0.188197
0.169882
0.182811
0.0489918
0.0313699
0.11852
0.195507
0.195874
0.206297
0.190091
0.19331
0.154085
0.199339
0.200967
0.123036
0.0794054
0.185512
0.145035
0.207854
0.188448
-0.0481526
0.0951903
0.203058
0.132813
0.152288
0.124826
0.0622601
0.198038
0.155607
0.149813
0.208763
0.186689
0.122413
0.201344
0.104443
0.125955
0.20013
0.138328
0.132007
0.203964
0.189094
-0.0486335
0.0870908
0.208502
0.186853
0.144767
0.0980376
0.181706
-0.104125
0.206709
0.194931
0.188077
0.165189
0.162283
0.146619
0.15353
0.208885
0.203568
0.181684
0.16339
0.0330995
0.191383
0.130645
0.195604
0.138334
0.115217
0.204291
0.165462
0.0819882
0.194203
0.198657
0.192394
0.206566
0.152123
0.139934
0.206486
0.19372
0.120253
0.194523
0.187227
0.187062
0.210336
0.180511
0.134726
0.152925
0.128987
0.204998
0.156939
0.193869
0.075004
0.211687
0.181653
0.153266
0.207671
0.135329
0.143508
0.181329
0.0927787
0.187895
0.206666
0.16748
0.140034
0.175457
0.173279
0.0843853
0.187803
0.0786673
0.191073
0.191926
0.010787
0.121195
0.180082
0.111068
0.194339
-0.126885
0.183347
0.0679321
0.189031
0.206208
0.174724
0.175596
0.135861
0.202699
0.195083
0.142072
0.0513707
0.166502
0.133439
0.207638
0.0922815
0.125683
0.200378
0.162777
0.203896
0.172837
0.130821
0.201811
0.154598
0.206488
0.149609
0.185201
0.0137069
0.164467
0.120656
0.205019
0.168659
0.12323
0.19919
0.173129
0.162868
0.208188
0.154905
0.165677
0.20829
0.198696
0.16955
0.203867
0.203947
0.138717
0.149074
0.127476
0.0398768
0.194655
0.0971139
0.124897
0.201828
0.192099
0.175906
0.105071
0.171988
0.17526
0.0735844
0.060472
0.182468
0.18495
0.183084
-0.116516
0.0773441
0.104172
0.181997
-0.0955384
0.163951
0.140464
0.201352
0.191781
0.134661
0.0226727
0.186396
0.1854
0.0997402
0.0896895
0.187942
0.185579
0.19313
0.0120066
0.100744
0.0926601
0.180679
-0.116024
0.186343
0.20761
0.19947
0.0871818
-0.0972077
0.183692
0.202534
0.13112
0.185607
0.116827
0.00960333
0.193481
-0.1113
0.186688
0.0425919
0.204674
0.189289
0.169398
0.189133
0.194915
0.205437
0.114948
0.186471
-0.0456718
0.184866
0.18813
0.205765
0.189789
0.206211
0.201433
0.207293
0.124442
0.154014
0.179077
0.198649
0.207776
0.190248
0.175868
0.205825
0.195362
0.111536
0.174526
0.188035
0.190096
-0.00499654
-0.00705083
0.12911
0.126498
0.11742
0.0323008
0.194339
0.18163
0.192697
0.0903624
0.203438
0.18145
0.151783
0.13442
0.126902
0.201214
-0.0724344
0.18831
0.0545366
0.197204
0.113227
0.0438365
0.100737
0.186652
-0.0523713
0.186032
-0.123457
0.0428793
-0.148178
0.18331
0.0599302
0.116997
0.154693
0.200557
-0.0210395
0.191277
0.0805058
0.152908
0.0774505
0.197619
0.135207
0.180251
-0.033977
0.192383
0.201899
0.172253
0.0237966
0.194714
0.106498
0.134594
0.201742
0.132445
0.110461
0.139259
0.204634
0.185141
-0.184154
0.0210949
-0.106719
0.185328
0.0568221
0.196127
0.205075
0.1716
0.00542948
0.0992173
0.193092
0.19385
0.0897001
0.00289713
0.133476
0.19085
0.0223395
0.184949
0.0364573
0.156832
0.200498
0.107812
0.175949
0.076531
0.18139
0.188471
0.183221
0.154615
0.00640629
0.19755
0.196188
0.136056
0.126493
0.192424
0.195015
0.20002
0.140034
0.190815
0.1918
0.094164
0.188539
0.103798
0.132029
0.202026
0.0259764
0.118019
0.195759
0.199679
0.136723
0.0888704
-0.148896
0.182258
0.0692706
0.207408
0.204597
0.197397
0.162797
0.201204
0.16733
0.198807
0.194188
0.185167
0.107306
0.185708
0.126668
-0.107583
0.1866
0.0432623
0.0107689
0.104683
0.193776
0.202633
0.171765
0.137403
0.11457
0.128742
0.201896
0.184738
0.0431903
0.161583
-0.0774956
0.0762503
0.186885
-0.0616845
0.0789048
0.187964
0.185688
0.096415
0.191751
0.211802
0.177008
0.16045
0.130703
0.189401
0.00627989
0.110357
0.145937
0.203175
0.193919
0.0550217
0.156261
0.196522
0.186384
0.129525
0.158664
0.155028
0.206876
0.206112
0.187398
0.156509
0.190075
-0.000115828
0.122583
0.167187
0.0763863
0.192266
0.207074
0.193072
0.169238
0.147377
0.181088
-0.00869663
0.197188
0.155891
0.198164
0.183054
0.169015
0.2087
0.119611
0.146293
0.203169
0.115952
0.181583
-0.0698737
0.122358
0.180818
-0.0636033
0.192067
0.0496798
0.157466
0.151378
0.160281
0.205318
0.180202
-0.0885981
0.105776
0.195922
0.0630066
0.148065
0.185651
-0.137423
0.033412
0.0517606
-0.156836
0.182536
0.185643
0.0148735
0.154773
0.189776
-0.0267695
0.105266
0.140877
0.14469
0.186229
0.00655855
0.188457
0.0229963
0.141509
0.0693935
0.197391
0.206003
0.122788
0.123116
0.207145
0.198584
0.170023
0.14351
0.082511
0.200237
0.200948
0.14517
0.0900912
0.160603
0.182247
0.0142071
0.197517
0.0986983
0.184852
0.199001
0.124846
0.18243
0.156984
0.112238
0.202326
0.153916
0.107307
0.202519
0.207456
0.187414
0.176526
0.196678
0.119094
0.197288
0.196259
0.0279705
0.101026
0.071697
0.189036
-0.0596899
0.0630919
0.189661
-0.0572174
0.203117
0.191756
0.150561
-0.0890689
0.186754
0.0642462
0.163929
0.191487
0.0591108
0.187523
-0.0838501
0.0525641
0.199559
0.204896
0.180092
0.185914
0.13864
0.201295
0.161439
0.150138
0.206512
0.192081
-0.0135112
0.088617
0.107337
0.14725
0.203058
0.181613
0.141887
-0.0159881
0.177992
0.13124
0.202896
0.20733
0.201401
0.173283
-0.0127152
0.0958107
0.191986
0.194788
0.0529159
0.148806
0.111851
0.104676
0.183563
0.183454
-0.0624
-0.0750131
0.171081
0.151911
0.20749
0.124417
0.158485
0.20056
0.18467
0.174359
0.209438
-0.0407163
0.0790678
-0.0360284
0.190251
0.0784179
0.190376
0.169999
0.102607
0.201013
0.0966674
0.0886834
-0.0212815
-0.0341152
0.191264
0.190159
0.154221
0.134382
0.207482
0.179432
0.14934
0.203451
0.12879
0.182455
-0.0422777
0.179676
0.140855
0.20531
0.187
0.161461
0.205217
0.11489
0.182052
-0.056555
0.183059
0.113426
0.196055
0.142883
0.124475
0.203925
0.199907
0.118137
0.182212
0.0813929
0.199108
0.115988
0.184629
-0.168305
0.0311623
0.175341
0.137949
0.202404
0.132896
0.184176
-0.020677
0.170622
0.113147
0.202511
0.0689073
0.181286
-0.130288
0.209528
0.206956
0.176813
0.169817
0.17849
0.168107
0.187751
0.174171
0.208254
0.205502
0.209251
0.184715
0.172685
0.193288
0.168682
0.178542
0.153814
0.208414
0.180944
0.156036
0.208667
0.190128
-0.0498025
0.0655325
0.201528
0.148238
0.188554
0.105066
-0.0148673
0.191032
0.157989
0.154473
0.101319
0.0878289
0.199153
0.197319
0.197929
0.161268
0.193582
0.189811
0.108173
0.186473
0.167238
0.116796
0.203181
0.204474
0.186661
0.196814
0.150092
0.0903699
0.200294
0.204807
0.192819
0.175388
0.162579
0.130703
0.206051
0.18776
0.117183
0.187437
0.204045
0.205165
0.181226
0.201997
0.182659
0.198052
0.206741
0.183361
0.210609
0.180497
0.199243
0.172489
0.197511
0.195562
0.142472
0.139395
0.196472
0.193532
0.186259
0.0403454
0.159694
0.203411
0.131136
0.148488
0.188642
0.189906
0.0283571
0.0336198
0.153119
0.150564
0.205405
0.172548
0.13357
0.20246
0.20095
0.192561
0.150721
0.0806784
0.198821
0.206618
0.193615
0.156155
0.1859
0.111915
0.188672
0.170243
0.170151
0.0551335
0.18854
0.0621644
0.189318
0.163888
0.0958375
0.197847
0.07672
-0.118297
0.182008
0.166701
0.122282
0.202189
0.199774
0.201189
0.173082
0.116214
0.181
0.122545
0.139439
0.0978333
0.201598
0.191092
0.117007
0.188439
0.205923
0.170457
0.128154
0.198257
0.202722
0.177181
0.189438
0.13843
0.131781
0.199032
0.183227
0.126784
0.163338
0.103081
0.200449
0.205843
0.19309
0.1789
0.121539
0.18495
-0.0363362
0.205634
0.173139
0.121147
0.188624
0.18396
0.111348
0.104193
0.18849
0.193964
0.185042
-0.0209097
0.128854
0.129024
0.183712
-0.0352345
0.122043
0.183378
-0.0441207
0.16489
0.189376
0.054376
0.193002
0.126165
0.190132
0.00692909
0.0128744
0.131685
0.00970963
0.0868156
-0.0545579
0.0470512
0.0329055
-0.0508837
0.0776729
0.0752765
-0.0700623
-0.00153361
0.0772632
-0.0169255
-0.0105987
0.0139499
-0.0185158
0.00534636
0.0496448
0.00426601
-0.0194952
0.0889083
0.178776
0.139654
0.0186756
0.096455
-0.0721279
0.0207401
-0.00582605
-0.066635
0.0418008
0.00486976
-0.00620939
-0.0588982
0.012534
0.123651
0.0866271
0.0154617
0.0614537
-0.0300618
0.178604
-0.0465126
0.0762632
0.118275
-0.0378412
-0.0315639
-0.0490435
-0.0670543
-0.0500839
0.143706
0.00515012
-0.00869008
-0.0428202
-0.064432
0.13843
0.0511899
0.00830713
-0.0535871
0.0704876
-0.0529046
-0.0426546
0.14036
0.040557
0.00574817
0.0531624
0.0157788
0.167958
0.0879646
0.0993073
-0.0964041
-0.0737647
-0.00810682
0.0628547
-0.0808502
-0.00740659
0.0262069
-0.0642653
0.0660162
0.109317
-0.0153627
-0.00288009
-0.0614658
-0.0237074
-0.0437356
0.0728457
-0.0424041
0.00700652
-0.0194723
0.145891
-0.0154145
0.0686452
0.138686
-0.00421946
-0.00508294
-0.0932165
-0.0492686
-0.0476468
-0.00501282
-0.0990883
0.0402558
0.0921492
0.126164
0.170075
-0.0179851
0.00431623
-0.07
-0.00716028
-0.048308
0.121545
0.0963116
0.048754
-0.0450555
-0.0812214
0.0660968
0.107809
-0.0266181
0.00664263
-0.0953807
-0.0223863
-0.0101339
0.155031
0.163072
0.0654125
0.0187051
-0.000386413
-0.0694037
0.158578
-0.00794279
0.0604962
-0.101683
0.14205
-0.0596575
-0.0193243
-0.000965951
0.107734
-0.0141854
-0.115414
-0.0400396
0.0472106
-0.0125921
0.0743693
0.0648681
-0.0191418
0.115559
-0.0414922
-0.0293096
0.116046
-0.0406224
-0.0208254
-0.0686745
0.0314448
0.0133197
0.111043
0.0684557
-0.0328616
0.0627067
0.0762407
0.129189
0.0269718
-0.00763483
-0.0202966
0.088628
-0.00637348
0.0621468
-0.0655308
0.175315
-0.0218144
0.119406
0.156969
0.00961979
0.162183
0.114818
0.127292
-0.0403426
-0.103474
-0.0702995
0.132164
-0.0464777
-0.0532638
-0.0083943
-0.0512037
-0.0197423
-0.0364151
0.0148573
0.157169
0.066581
-0.0317407
0.0701944
-0.0443634
0.17635
-0.0320835
0.111631
-0.0238755
-0.110104
0.146157
0.161147
-0.0274487
-0.0454521
0.174246
0.0228726
0.0187133
-0.04802
0.0633022
0.120775
0.0836552
-0.0267396
-0.0542902
0.0958918
0.0253534
-0.0642289
0.0688979
-0.0131979
-0.0623461
-0.00233307
0.114145
-0.0919932
0.0276043
0.0925974
-0.0461104
-0.0992919
-0.0308624
-0.00777567
0.00891873
0.0331029
0.0403766
-0.0202002
-0.0581739
-0.00633397
0.0518295
0.0830014
-0.0363118
0.0424752
-0.039127
-0.0457824
0.0239635
-0.0280326
-0.108404
0.0887031
0.115072
0.0123633
0.149359
0.123211
0.17843
-0.00726346
-0.119873
-0.0174549
-0.0338567
0.00943448
-0.0874411
0.0299891
0.142362
0.0621339
0.0210373
-0.0306233
-0.0313674
0.0952404
0.00304573
0.0672652
-0.0391724
-0.0109707
-0.0348906
-0.0193982
-0.0258993
-0.0226029
-0.0141449
-0.0623258
0.0430397
0.0192189
-0.0329491
0.0485936
0.00616644
-0.0219618
-0.0539051
-0.0308656
-0.0543642
-0.0458868
0.0182806
-0.0848952
-0.124478
-0.00184064
-0.0742152
-0.094798
0.0202055
-0.0302212
-0.0913416
0.11211
0.0458624
-0.0344327
0.0933996
-0.0617952
0.0407416
0.0697156
-0.010634
-0.00279489
0.104079
-0.0169872
0.0832362
-0.061491
-0.0280205
0.115138
-0.0371069
-0.00314756
-0.137204
-0.086927
-0.111448
-0.0783387
-0.0450078
0.047884
-0.0533982
-0.100256
-0.0583437
-0.0296733
0.177606
0.00236001
0.0615019
0.0383892
-0.021498
0.0158953
-0.028216
-0.0705273
0.034819
-0.0312209
0.14148
0.0770888
-0.0211205
-0.0306662
0.0069131
0.178982
0.090228
0.124573
0.0689765
-0.0221819
0.0116382
-0.0241859
-0.0617721
-0.0824947
-0.0460119
0.0195602
0.0680719
-0.0569691
-0.0839714
-0.00473249
0.0196278
-0.00767896
0.0155239
0.100075
0.00508387
-0.0180113
0.137382
0.11417
-0.0268632
0.0533802
0.121485
-0.0772328
-0.0333268
-0.0242238
-0.0528293
-0.0631607
0.119318
-0.0632419
0.00287487
0.133766
-0.107672
0.0210072
-0.0238411
0.0105196
-0.0264775
-0.0403934
-0.0931091
0.0213846
-0.0806152
-0.0627191
-0.0351396
-0.0386596
0.079325
0.140289
-0.0068464
0.0437036
0.0261883
0.00108178
-0.113923
0.0958155
0.0613545
-0.0594967
-0.0906543
0.0349881
-0.0712448
0.00950519
-0.0161873
-0.0388458
0.106219
0.137174
-0.0245263
0.0833336
0.170624
0.100792
0.111332
0.128929
0.0161884
-0.0230177
-0.0607069
0.176393
0.103271
0.118176
-0.0515904
-0.0437116
-0.102961
0.0891323
0.00920898
-0.000573326
0.120173
0.0678815
-0.00426604
0.0206039
-0.0257254
-0.00625141
-0.0287174
-0.0324931
-0.0305851
-0.0420031
-0.0118121
-0.0837387
0.0147343
-0.0501633
0.071077
0.0445394
-0.0933361
0.123618
0.134598
0.0670941
-0.0472547
0.023369
-0.0305715
0.0767792
0.00300097
-0.0712197
0.120247
-0.0471668
0.143458
-0.0900541
-0.0213132
0.00997633
0.0652083
0.0979494
-0.00505094
0.156716
-0.00252393
0.10211
-0.0211677
0.0752264
-0.0207876
-0.00228473
-0.0373956
0.107208
0.0151932
0.173785
0.0537476
-0.0840735
0.00325406
0.0400032
-0.0379344
-0.0459526
-0.0188226
-0.044871
0.146098
-0.00613864
-0.0150468
0.0853924
-0.0502088
0.141194
0.167662
-0.0400348
0.174673
0.15113
0.104774
0.12036
0.0248608
-0.0683476
-0.0510941
-0.0256598
0.093812
-0.00848585
-0.0453838
0.154805
-0.0580659
-0.0292857
-0.0546598
0.127954
0.177013
-0.0560626
0.100114
0.0455436
0.139891
0.025261
0.0726494
-0.0386011
0.157524
0.171303
0.0576874
-0.0476542
0.0982163
0.00796896
0.0536022
0.00770983
0.00645533
0.0423343
0.0119719
-0.0445741
-0.0598637
0.00955956
0.0511949
0.0335823
0.115321
-0.0607477
0.00717701
0.0616876
-0.0552249
0.133307
-0.00608194
-0.0393159
0.13487
0.108502
0.0388638
0.16221
-0.0153332
-0.0457886
0.0759642
0.0371291
0.0427673
-0.0228447
-0.0347983
0.0410049
0.0577475
-0.0336325
-0.0207936
0.0309871
-0.0907643
-0.0451321
0.141441
0.168441
0.17245
0.0318052
0.176069
0.175379
0.14995
-0.117864
0.0356029
0.0367159
0.161213
-0.0412427
-0.0025526
-0.068776
-0.0480322
-0.0552769
0.15532
-0.019036
-0.0119643
0.0753665
0.0570205
-0.0333282
-0.0390925
0.174245
0.155097
0.124287
0.0680784
-0.0565403
0.0838077
0.0473339
-0.0439576
0.0162241
-0.0801445
-0.056294
0.0303059
-0.00870371
-0.0148612
0.142657
0.141467
-0.11149
0.106959
-0.0181769
-0.0212425
0.00338675
0.139279
-0.0157468
0.0673147
-0.0208305
0.126657
-0.0388918
-0.0184946
0.170045
-0.101677
-0.0931675
-0.0167525
-0.0390121
-0.122636
-0.0990093
-0.0342327
-0.121019
-0.00286787
-0.107769
-0.0702893
-0.00869535
-0.0673212
-0.0323832
-0.0100015
-0.0868886
-0.0923288
0.152185
0.119199
-0.0385486
-0.0732853
0.123455
-0.0530235
-0.00213486
0.168852
-0.0281924
0.167922
-0.00256699
0.112549
0.0336408
-0.0245791
-0.0742547
0.0348111
0.0318583
-0.00324133
-0.0258734
-0.0363237
-0.0760543
-0.0378737
0.00400006
-0.102023
-0.0832363
0.152396
-0.00877301
0.0581928
0.0820588
-0.0428332
0.106642
0.0836746
-0.0676128
-0.0950765
-0.0187326
-0.0828902
-0.120066
0.0633389
0.0672509
-0.0381711
0.0451754
-0.0276473
0.170112
0.14899
-0.0254042
-0.032072
0.159604
0.117307
0.0356029
0.0416004
-0.0421046
0.173271
0.0432053
-0.111406
0.129401
0.100342
0.142236
0.0250713
-0.0543165
0.000113792
0.0688334
0.0368279
-0.12079
0.180238
-0.0188824
-0.0231226
0.00282536
0.128514
0.167259
0.170389
0.0478795
0.027397
0.0900421
0.119279
0.138323
0.0595163
0.0951269
-0.0140283
-0.0147898
0.0435515
-0.0592439
-0.0139299
-0.0930546
-0.0205668
0.0837986
-0.0886736
0.0191599
0.000431904
0.112958
0.16969
-0.0211703
-0.0772259
-0.0998028
0.0954229
-0.0476001
-0.0453509
-0.0974715
0.140953
0.021528
0.0256647
-0.0751035
0.0304232
-0.043822
-0.0233249
0.0801033
0.0806529
0.143855
0.173844
-0.0313586
0.124122
-0.110927
0.130119
0.142033
0.142334
0.0892675
-0.0448014
-0.0439067
-0.0366074
-0.109491
0.0418199
-0.10487
0.0622339
-0.0708525
0.121784
-0.0421956
-0.102057
0.10871
0.0986726
-0.00655976
-0.00609995
0.056441
0.140362
0.020039
0.00724239
-0.106113
0.0998215
0.0525794
0.155511
-0.119349
-0.0090427
0.130584
0.0678572
0.162544
0.0728983
-0.033974
-0.132466
-0.110945
-0.00828842
-0.0920098
0.152797
-0.105755
0.0138818
-0.00405811
-0.0618675
0.108721
-0.119753
0.137534
0.0699524
0.02925
-0.0404469
0.0738585
0.000975731
0.0223494
-0.0139072
-0.00222495
-0.045639
-0.057746
0.0853288
-0.0436531
0.174369
-0.0516094
0.0388544
0.0511895
0.0920095
0.15314
-0.0457531
-0.0334455
-0.0302806
0.0256337
-0.0565869
0.148742
-0.0479813
0.0128391
-0.0448588
0.104322
-0.0713877
0.0237741
-0.081074
0.171458
-0.11107
-0.0440423
0.0146312
0.113241
-0.0988646
-0.0917853
-0.0498632
-0.0834241
0.13953
0.0125483
0.0691975
0.112457
0.059329
0.0488545
0.170457
0.0456694
0.095144
0.0490821
0.0407296
-0.0910564
0.0407216
-0.0193735
0.0042514
0.0497855
-0.0114168
-0.0857662
0.00521839
0.0211279
-0.0519397
0.0982448
0.0351565
0.0849718
-0.0206555
0.150575
-0.000497483
0.0260884
0.0528785
-0.087375
-0.0505074
-0.0454674
0.033694
0.0271227
0.0383934
0.134625
0.0912977
0.0925045
0.011688
0.124697
0.155926
0.15248
0.0559678
0.0352794
0.0440467
-0.0628904
0.16395
0.116396
0.10392
-0.00728245
-0.0475468
-0.0896087
0.042387
0.0671208
-0.0156808
0.103844
0.120221
0.03681
-0.00995296
0.0536497
-0.00221863
-0.00358018
-0.00649388
-0.00292026
0.0256151
-0.0999378
0.0287058
0.0321227
-0.0249303
-0.116052
0.0300101
0.00594954
0.0612403
-0.0296563
0.0196765
0.135625
0.145271
0.0258387
-0.00281283
0.0938951
0.0060042
-0.0485035
-0.0540379
-0.0238473
-0.0850442
0.133982
0.00918404
0.0137924
0.0700964
0.0610153
0.072272
-0.01294
0.173065
0.070441
-0.0547925
0.00413078
-0.00147104
0.0933627
0.131032
0.0725013
0.0362267
-0.0967597
-0.0602621
-0.0252878
0.0344147
0.0105848
0.0257956
-0.0520809
0.141994
0.0502493
0.107818
0.120238
0.0200404
-0.0179472
0.0390402
0.163328
-0.0641106
-0.103428
0.0395449
0.168633
-0.0360582
-0.0254838
0.0866021
0.0673816
0.106743
-0.00760704
-0.0980534
0.0327922
-0.088907
-0.0333625
0.1052
-0.0155723
-0.0593628
-0.0204464
-0.0387511
0.0420968
-0.00562346
-0.00313501
0.128427
-0.0578107
0.170779
0.104934
-0.0702752
-0.126021
0.0173098
0.0797024
0.11783
-0.0109169
-0.0251884
-0.000843793
-0.0344404
0.0101032
0.17462
0.13024
0.0714848
0.0104523
-0.0886985
0.142822
0.175764
0.141719
0.0934986
0.130443
0.0344647
-0.0825428
-0.11205
-0.103893
0.153093
0.00346613
-0.00645311
0.00796489
0.173964
-0.0408574
-0.0105943
-0.0783381
-0.00976722
-0.0549026
0.169738
0.0331437
0.0833236
0.127195
0.117802
-0.0339479
0.0453298
0.024585
0.0860373
-0.071466
0.042255
-0.0374085
0.147396
-0.0214372
-0.0492644
-0.00855371
-0.0197177
0.13434
-0.0402509
0.103429
0.122454
0.129145
-0.0741886
0.0196031
-0.0255654
0.000726446
0.141534
0.0232904
0.0473268
0.0300915
-0.0518568
0.00924801
0.147114
0.049214
0.143871
-0.108753
-0.0450719
-0.0415081
0.152585
0.000866853
0.0180284
-0.0725565
-0.00968132
0.0163999
0.152231
0.0250953
-0.0224693
-0.0786418
0.168381
0.165023
-0.0536983
0.145168
-0.0372752
-0.0727444
-0.0424806
0.00408383
-0.0895008
0.0633138
0.00470142
-0.0429966
-0.0147001
0.133548
-0.00611997
0.102506
0.0047065
-0.0511816
-0.00799779
-0.109289
-0.0963055
-0.0152602
0.0209339
0.0503887
-0.059699
-0.00740012
0.124369
0.0513274
-0.0431982
-0.0279637
0.133668
-0.0103565
0.0120261
0.18098
0.0373932
-0.045943
0.0131512
-0.00697036
0.158238
-0.000848937
-0.00580244
0.0397035
-0.0921752
0.136259
-0.0172948
0.126721
0.0210952
0.081092
-0.0695927
0.109331
-0.0144629
-0.0708448
-0.056043
0.0226738
0.132254
-0.132229
-0.0143431
-0.0513441
0.153361
0.171877
-0.00402808
-0.0382655
0.0620903
0.157425
0.00525713
0.138033
0.117024
0.102021
0.0846009
0.0196163
0.084123
0.0795707
0.144111
0.0194681
0.0282379
-0.00336277
-0.00484603
0.0263998
-0.0366362
0.157921
-0.00910223
0.138303
0.0161725
0.152362
-0.0512132
0.163855
0.0785134
0.131279
0.153931
0.135257
0.179479
-0.0311001
0.123634
0.0273251
-0.0428374
-0.0135717
-0.0597025
0.143647
-0.00861087
0.032309
0.041436
-0.020414
0.0526508
-0.0540239
0.146641
0.00310136
0.0977366
-0.114195
-0.0300955
-0.0383486
0.170702
0.000274368
0.053237
-0.00286955
-0.0356068
-0.0606631
-0.0115083
-0.043731
0.0972948
0.14802
-0.0811384
0.0275428
-0.0393009
-0.0476627
0.10797
-0.00575033
-0.00481316
0.15806
-0.1005
0.0446825
0.0679001
0.131429
0.169089
-0.00346224
-0.0282513
-0.076983
-0.00371632
-0.000826347
-0.0398087
0.102452
-0.0387938
-0.0681803
-0.0230725
0.0213762
-0.0129973
0.00528006
-0.0520493
0.0143431
-0.0790268
0.0895359
0.0802172
0.00724788
0.0944523
-0.0184868
-0.0968098
-0.00346617
-0.103463
0.161464
-0.0317143
-0.0433791
-0.050611
0.122296
0.14293
0.015165
0.0935979
0.00222908
-0.0599399
0.0316195
-0.0397867
-0.0161549
0.143015
0.0465041
0.0838429
0.163291
0.097022
0.0355632
0.154253
-0.0832643
0.0173359
0.0137038
0.0389018
0.0252521
0.151591
-0.0424152
0.0344677
0.000171446
-0.00890902
-0.0375785
-0.0248945
0.0791674
0.109907
0.125372
0.0287929
0.0293519
0.152784
0.111374
-0.0176271
0.0532319
-0.0718176
-0.034519
0.100753
-0.082156
0.119455
-0.0473656
0.12714
0.173526
0.146638
-0.0555366
0.13073
0.117691
-0.0260156
0.151949
0.00691896
0.150834
0.0971058
-0.0409629
-0.0740202
0.0561592
-0.0304151
0.022621
-0.00136781
0.116282
0.008311
0.155951
-0.0505347
-0.00842719
-0.000378734
-0.0474311
-0.0441806
0.111326
0.169205
-0.0537952
0.104783
0.00705951
0.0346565
0.00299017
0.0635682
0.138305
0.100835
-0.0465053
0.132189
0.107523
0.167661
-0.0488453
-0.0636381
-0.0025137
0.0900694
0.160308
0.112301
-0.00414146
0.163739
0.0156747
-0.0784216
-0.0744342
-0.129422
0.0286757
-0.0693862
0.166564
0.17139
0.0283301
0.178796
0.10272
0.0105537
0.160748
-0.0752181
0.150795
-0.0359594
0.143196
-0.0127835
-0.0426562
0.088748
0.0230368
0.150764
0.137072
0.140923
-0.0290904
-0.0297019
-0.09166
0.126832
0.0992075
-0.00193936
0.039019
0.100636
-0.108056
-0.0418869
-0.0350953
-0.0428192
0.0341265
-0.0452389
0.0137305
0.100814
0.0119682
0.0237529
0.0821245
-0.0244019
0.00270674
0.0324629
0.01197
-0.0260217
0.124159
0.14848
-0.00272959
0.0970713
-0.111989
-0.0375821
0.128197
0.0901133
-0.0537614
0.144673
-0.0651163
0.0801604
0.00809375
0.0224507
0.12988
-0.0116447
0.0894932
0.0970722
0.0649338
0.178123
0.067282
-0.0797588
0.0448843
0.0305862
0.089041
0.173178
0.0675315
0.0209151
-0.0159213
0.0240429
0.131175
-0.0599529
0.124737
-0.0227624
0.0567624
0.0968827
0.0816686
-2.30965e-05
0.12871
0.16343
0.00107396
-0.0206409
0.0201779
-0.0328472
-0.0786728
0.0161589
0.0958072
-0.0611025
-0.081688
-0.000419114
-0.0748629
0.0769029
0.0175863
0.0916105
-0.0101936
0.1422
0.0131438
0.116886
0.165988
-0.0508862
0.136062
0.0103278
0.019406
0.0405208
0.129136
-0.00635545
-0.00426275
0.0428038
-0.0410035
-0.019191
-0.0457862
-0.0626562
-0.111595
0.162614
0.171813
-0.066225
-0.00646648
0.0854296
-0.0877663
-0.00553241
-0.0372802
0.0693666
0.0832096
-0.0932778
-0.114459
0.136754
-0.00191923
0.0418083
-0.00481216
-0.0809318
-0.074753
0.0622589
0.116714
0.0473584
-0.0960347
0.14408
0.11538
-0.0398296
0.0351268
-0.0417401
0.165006
-0.0314493
0.0102822
-0.0639848
0.0566288
0.149075
0.0403005
0.0603906
-0.0233044
0.0229545
0.0521899
0.16112
0.177677
-0.0068531
0.16522
-0.0190715
0.0223211
0.0240983
-0.0173136
-0.023104
0.127312
0.0235962
0.033877
-0.0245542
-0.074512
0.0290174
-0.0403694
0.0713128
0.143399
-0.042909
-0.028386
0.0203795
-0.0218775
0.00771249
-0.11112
-0.0043268
0.132613
-0.0337415
-0.0583857
0.0938968
0.0175171
0.00190506
0.0544602
0.114864
-0.0111677
-0.00281283
0.11047
-0.0100421
-0.00658558
0.0272223
0.128436
0.053745
0.0227666
-0.00212181
-0.0571234
-0.010984
0.162652
0.112633
0.171545
0.000315052
0.064917
-0.0570255
0.0084439
0.117815
-0.0832144
-0.0868916
0.0807559
0.115385
-0.0860736
-0.00843457
0.00161485
-0.00948717
-0.000319473
0.176893
0.0165913
-0.00919051
0.0602386
-0.0153148
0.086273
0.06536
-0.0634923
0.000959241
0.0997642
0.0195735
0.164707
-0.0802248
-0.0428386
0.070646
0.0494732
-0.0178046
0.0378182
-0.0378584
0.16825
0.148758
0.0715902
0.130854
-0.0487423
0.123888
0.0516246
0.0768073
0.155006
-0.0866621
-0.0176957
0.171468
0.0536899
-0.0958471
-0.0579201
0.120923
0.168795
0.00460443
0.0862818
-0.00297498
-0.0708169
-0.0268758
-0.0955855
0.117236
-0.0320941
0.00509774
0.154185
-0.0550413
-0.00803989
-0.0178771
0.0334668
-0.00196271
-0.0529992
-0.0167098
-0.0664225
0.0231294
0.0995903
0.152922
0.087441
0.0105593
-0.0227656
-0.0987687
-0.0399122
0.0454962
0.03065
0.0860837
0.0923109
-0.0232005
-0.00920287
0.110557
0.117841
0.170982
0.129751
0.157418
0.0155708
-0.0725719
-0.0331637
-0.0502276
0.161583
0.0241306
-0.0226592
0.153788
-0.0681725
0.102073
0.0817611
-0.00357141
0.000189646
-0.0158866
-0.0534531
0.115817
-0.0316621
0.0696451
0.00427755
0.150237
0.0316809
0.177066
-0.0439353
0.00312616
-0.064144
-0.11572
-0.014251
0.0960794
-0.0107871
-0.0610074
0.0218923
0.14803
0.0897658
-0.0489498
-0.0678597
-0.0237067
-0.0743654
0.00104992
-0.0786601
-0.018848
-0.0528699
0.0818221
-0.0666777
-0.0051079
0.141148
0.0307459
0.0832222
0.109397
-0.0262219
0.00418905
-0.0313726
0.10799
-0.0365064
0.00744565
0.0151675
-0.0594409
-0.0864715
-0.00983128
0.00340603
0.0878505
0.171649
0.122681
0.0253816
0.0738511
-0.0856556
0.164957
0.0497101
0.100554
0.00414679
0.0811265
-0.0550596
-0.0163771
0.10174
0.149431
0.0942292
0.0265041
-0.0372534
0.175806
0.0107718
0.112677
0.16016
0.0628631
-0.00632639
-0.0864644
0.109313
0.057857
-0.0611246
0.0533491
0.0477468
0.146938
-0.0310143
0.155139
0.172339
-0.020109
-0.0413669
0.158683
-0.0621002
-0.0570089
-0.0118289
-0.0539271
-0.00564673
-0.0495551
-0.0766415
0.00134992
-0.000617547
-0.025817
-0.0410813
0.0298458
-0.0683405
-0.0434223
0.0487596
0.00521288
-0.082357
0.142996
0.169346
0.160587
-0.00694824
-0.0941122
0.179121
-0.0688186
0.00248565
-0.00159587
-0.0437329
0.00495509
0.0798748
-0.0346558
-0.0505855
-0.0836847
-0.0821641
-0.063421
-0.0400934
-0.0974766
-0.00272576
0.0188326
-0.0104444
0.150873
0.026071
0.0737492
0.0124903
0.112274
-0.0475742
-0.0372018
0.17916
0.00167549
0.0549402
-0.0697381
0.0632019
0.17145
-0.0340443
0.0592189
0.0551569
-0.0615749
-0.00752932
-0.0595942
-0.0429267
0.0839359
-0.0550572
-0.00164452
-0.0495388
-0.0196702
-0.023377
-0.0576561
0.00402613
-0.0360358
-0.0505741
0.167441
-0.00114513
0.0047535
0.0230626
0.147377
-0.0315578
-0.0800501
0.107062
-0.0613244
-0.0190405
0.00050576
0.0352859
-0.05567
0.0256056
0.0390002
0.168449
0.120902
-0.0752296
-0.0475377
-0.0856369
-0.00100401
-0.0975923
-0.0398853
0.00360538
-0.0393279
0.00253886
0.0485126
0.178953
-0.0260359
0.0769279
0.0255117
0.162308
-0.0438478
0.172249
0.0415335
-0.0662006
0.0524956
0.0834159
-0.0438155
0.12423
0.0011678
0.126798
-0.0436124
-0.0641722
-0.0084064
0.177732
0.166984
0.0837461
0.0573597
0.0793742
-0.0951959
-0.0594214
0.0868594
0.177124
-0.0515361
0.0244567
0.00350255
-0.0482014
-0.0141779
-0.0212262
-0.0538776
-0.0311191
-0.0486739
-0.0056788
-0.0396009
-0.0041118
0.176766
0.115946
-0.0999638
0.0973407
-0.0313631
-0.0640905
0.104724
-0.0535865
-0.0207628
0.0754099
-0.0415665
-0.0381618
0.00272213
0.121692
-0.0573349
-0.0390793
-0.0293049
0.0445303
-0.0501044
0.148277
-0.0916182
-0.0438434
-0.0300742
-0.0497023
0.0629661
0.046532
0.149301
-0.00439734
0.0972759
0.018705
0.0428403
-0.0101727
0.066568
-0.061542
-0.0574418
-0.115307
0.0592341
-0.0124095
-0.0312659
0.135995
0.0143211
0.0619697
0.0634769
-0.0330255
-0.0489962
-0.0322695
0.0498495
-0.00388417
0.177241
-0.0696702
-0.0942097
-0.00398143
-0.0502932
-0.00594435
0.00469162
0.0839855
-0.0187491
-0.00559863
-0.0560652
0.00383531
-0.00964898
-0.0182128
0.174299
0.160126
-0.0488842
-0.0257564
0.116071
0.0472795
-0.01909
-0.0650347
-0.0110177
-0.0645195
0.0171331
0.140772
-0.0180124
-0.0891735
0.0470646
0.00451489
-0.09021
-0.054598
0.00992531
0.0711941
0.175922
-0.0609404
-0.0837864
0.0290552
0.116664
-0.0309045
0.0320326
-0.0329005
-0.00111133
-0.037878
0.0441367
-0.0157951
-0.00383566
0.0983375
-0.0308501
-0.102075
0.0138047
-0.0100569
0.102459
0.177283
-0.00110011
-0.0433908
-0.0395329
-0.0383339
-0.0564187
-0.0427297
-0.0621919
0.153798
0.11
0.0696428
0.00400989
-0.0850697
0.0945324
0.165349
-0.0476092
0.0105085
-0.0534483
-0.11219
0.000551369
-0.0450929
-0.119778
0.00701305
0.0806204
-0.0825339
-0.0895179
-0.0508781
0.120018
-0.0869206
0.104628
0.0342533
-0.0208786
-0.0399176
-0.0285583
0.102866
-0.102445
-0.0396956
-0.0227496
-0.0591732
0.0296045
0.0909508
0.0278015
-0.0112163
0.0873445
-0.0576726
-0.0507211
0.137251
-0.00586311
0.133872
0.030164
-0.0321659
0.0553141