/*--------------------------------*- C++ -*----------------------------------*\
  =========                 |
  \\      /  F ield         | OpenFOAM: The Open Source CFD Toolbox
   \\    /   O peration     | Website:  https://openfoam.org
    \\  /    A nd           | Version:  6
     \\/     M anipulation  |
\*---------------------------------------------------------------------------*/
FoamFile
{
    version     2.0;
    format      ascii;
    class       volVectorField;
    location    "0";
    object      U;
}
// * * * * * * * * * * * * * * * * * * * * * * * * * * * * * * * * * * * * * //

dimensions      [0 1 -1 0 0 0 0];

internalField   nonuniform List<vector> 
9000
(
(0.586783 0.128473 0)
(0.461952 0.0609765 0)
(0.285495 0.0197834 0)
(0.20241 0.00910871 0)
(0.157335 0.00457589 0)
(0.130213 0.00248929 0)
(0.112906 0.00147714 0)
(0.101363 0.000933618 0)
(0.0934295 0.000613905 0)
(0.0878813 0.000412999 0)
(0.0839667 0.000280858 0)
(0.0811966 0.000191423 0)
(0.0792396 0.000129917 0)
(0.0778638 8.732e-05 0)
(0.0769042 5.78108e-05 0)
(0.0762419 3.74738e-05 0)
(0.0757908 2.36013e-05 0)
(0.0754884 1.42866e-05 0)
(0.0752895 8.17363e-06 0)
(0.0751613 4.29366e-06 0)
(0.0750805 1.95502e-06 0)
(0.0750305 6.65639e-07 0)
(0.0749996 7.77883e-08 0)
(0.0749799 -5.21939e-08 0)
(0.0749658 1.06571e-07 0)
(0.074954 4.37671e-07 0)
(0.0749422 8.61217e-07 0)
(0.0749292 1.32178e-06 0)
(0.0749149 1.77934e-06 0)
(0.0748994 2.20233e-06 0)
(0.0748836 2.56219e-06 0)
(0.074869 2.82875e-06 0)
(0.0748578 2.96603e-06 0)
(0.074853 2.9279e-06 0)
(0.0748587 2.65308e-06 0)
(0.0748804 2.05864e-06 0)
(0.0749258 1.03083e-06 0)
(0.075005 -5.88997e-07 0)
(0.0751323 -3.02798e-06 0)
(0.0753277 -6.62578e-06 0)
(0.0756198 -1.19279e-05 0)
(0.0760513 -1.99127e-05 0)
(0.0766888 -3.26258e-05 0)
(0.0776425 -5.50282e-05 0)
(0.0791121 -0.000100725 0)
(0.0815072 -0.000215484 0)
(0.0857375 -0.000575718 0)
(0.093662 -0.00160475 0)
(0.114782 -0.0065451 0)
(0.167199 -0.0472348 0)
(0.942509 0.30527 0)
(0.854402 0.222174 0)
(0.651024 0.125116 0)
(0.515465 0.0717136 0)
(0.424606 0.0429335 0)
(0.362967 0.0270814 0)
(0.320505 0.0178714 0)
(0.29077 0.012183 0)
(0.269669 0.00848117 0)
(0.25457 0.00597597 0)
(0.243724 0.00423414 0)
(0.235929 0.00300209 0)
(0.230342 0.00212212 0)
(0.226358 0.00149105 0)
(0.223537 0.00103858 0)
(0.221558 0.000715366 0)
(0.220185 0.000486069 0)
(0.219244 0.000325004 0)
(0.218609 0.000213369 0)
(0.218187 0.000137351 0)
(0.21791 8.68e-05 0)
(0.21773 5.42744e-05 0)
(0.217613 3.43371e-05 0)
(0.217536 2.30313e-05 0)
(0.217481 1.7484e-05 0)
(0.217438 1.56056e-05 0)
(0.2174 1.58597e-05 0)
(0.217364 1.7085e-05 0)
(0.217328 1.83556e-05 0)
(0.217293 1.88677e-05 0)
(0.217262 1.78424e-05 0)
(0.21724 1.44362e-05 0)
(0.217235 7.64872e-06 0)
(0.217255 -3.7828e-06 0)
(0.217314 -2.15181e-05 0)
(0.217431 -4.78e-05 0)
(0.217631 -8.57303e-05 0)
(0.217946 -0.000139699 0)
(0.218423 -0.000216091 0)
(0.219129 -0.000324511 0)
(0.220157 -0.000480045 0)
(0.221647 -0.000707711 0)
(0.223812 -0.00105197 0)
(0.226997 -0.00159855 0)
(0.231787 -0.00252863 0)
(0.23924 -0.00426434 0)
(0.251365 -0.00788594 0)
(0.271908 -0.0162555 0)
(0.31136 -0.0374386 0)
(0.383233 -0.103108 0)
(1.02188 0.312037 0)
(1.01166 0.308233 0)
(0.869156 0.218346 0)
(0.741522 0.145637 0)
(0.638956 0.096876 0)
(0.561709 0.0655938 0)
(0.504777 0.0453455 0)
(0.463068 0.031885 0)
(0.432533 0.0226836 0)
(0.410183 0.0162459 0)
(0.393843 0.0116644 0)
(0.38193 0.00836745 0)
(0.373283 0.00598037 0)
(0.367043 0.0042486 0)
(0.362574 0.00299393 0)
(0.359401 0.0020887 0)
(0.357171 0.00143999 0)
(0.355622 0.000979398 0)
(0.354558 0.000656314 0)
(0.353837 0.000433183 0)
(0.353354 0.00028216 0)
(0.353033 0.000182644 0)
(0.352819 0.000119445 0)
(0.352674 8.13994e-05 0)
(0.352571 6.03129e-05 0)
(0.352493 5.01489e-05 0)
(0.352428 4.64028e-05 0)
(0.352371 4.5612e-05 0)
(0.35232 4.49656e-05 0)
(0.352277 4.19834e-05 0)
(0.352245 3.42361e-05 0)
(0.352234 1.90809e-05 0)
(0.352257 -6.61436e-06 0)
(0.352329 -4.67938e-05 0)
(0.352475 -0.000106628 0)
(0.352726 -0.000193089 0)
(0.353124 -0.000315806 0)
(0.353727 -0.000488384 0)
(0.354614 -0.000730558 0)
(0.355898 -0.00107185 0)
(0.357735 -0.00155806 0)
(0.360357 -0.00226352 0)
(0.364109 -0.00331516 0)
(0.369527 -0.00494275 0)
(0.37747 -0.00758873 0)
(0.389353 -0.0121595 0)
(0.407544 -0.0206163 0)
(0.435723 -0.0373076 0)
(0.480551 -0.0718183 0)
(0.545628 -0.147698 0)
(1.03439 0.272621 0)
(1.06991 0.343147 0)
(0.991252 0.286819 0)
(0.894527 0.213776 0)
(0.801776 0.15375 0)
(0.724191 0.109903 0)
(0.662858 0.078867 0)
(0.615688 0.0569205 0)
(0.57994 0.0412638 0)
(0.553097 0.029977 0)
(0.533082 0.0217702 0)
(0.518257 0.0157691 0)
(0.50735 0.0113697 0)
(0.499385 0.00814524 0)
(0.493616 0.00578839 0)
(0.489476 0.00407422 0)
(0.486533 0.00283625 0)
(0.484463 0.00195037 0)
(0.483023 0.00132376 0)
(0.482033 0.000886894 0)
(0.481357 0.000587837 0)
(0.4809 0.000387865 0)
(0.48059 0.00025822 0)
(0.480376 0.000177605 0)
(0.480224 0.000130261 0)
(0.480111 0.000104472 0)
(0.480022 9.14025e-05 0)
(0.479948 8.41773e-05 0)
(0.479888 7.71448e-05 0)
(0.479844 6.52599e-05 0)
(0.479823 4.35411e-05 0)
(0.479837 6.55195e-06 0)
(0.479904 -5.21487e-05 0)
(0.480048 -0.000140651 0)
(0.480302 -0.000269524 0)
(0.48071 -0.000452971 0)
(0.481332 -0.000710514 0)
(0.482247 -0.0010696 0)
(0.483566 -0.00156975 0)
(0.485439 -0.00226943 0)
(0.488079 -0.003258 0)
(0.491787 -0.00467692 0)
(0.497002 -0.00675939 0)
(0.504371 -0.00990645 0)
(0.514866 -0.014837 0)
(0.529936 -0.0228882 0)
(0.551686 -0.0366071 0)
(0.582695 -0.060825 0)
(0.625655 -0.104056 0)
(0.678162 -0.1805 0)
(1.03136 0.232475 0)
(1.08532 0.347193 0)
(1.05513 0.32671 0)
(0.993364 0.26543 0)
(0.920766 0.20349 0)
(0.852774 0.152397 0)
(0.794848 0.113113 0)
(0.747905 0.0836716 0)
(0.710955 0.0617789 0)
(0.682413 0.0455174 0)
(0.660662 0.0334307 0)
(0.644268 0.024445 0)
(0.632031 0.0177722 0)
(0.622983 0.0128303 0)
(0.616354 0.00918629 0)
(0.611545 0.00651533 0)
(0.608091 0.00457248 0)
(0.605634 0.00317245 0)
(0.603905 0.00217499 0)
(0.6027 0.00147412 0)
(0.601867 0.000989947 0)
(0.601294 0.000662484 0)
(0.600899 0.00044687 0)
(0.600624 0.00030965 0)
(0.600428 0.000225882 0)
(0.600283 0.000176872 0)
(0.600172 0.000148386 0)
(0.600086 0.000129232 0)
(0.600023 0.000110102 0)
(0.599985 8.2601e-05 0)
(0.599983 3.83789e-05 0)
(0.600032 -3.17041e-05 0)
(0.600155 -0.00013847 0)
(0.600382 -0.000295473 0)
(0.600755 -0.000520344 0)
(0.601329 -0.000836649 0)
(0.60218 -0.00127658 0)
(0.603406 -0.00188503 0)
(0.605142 -0.00272597 0)
(0.607569 -0.00389272 0)
(0.610936 -0.00552512 0)
(0.61559 -0.00783878 0)
(0.622011 -0.0111763 0)
(0.630876 -0.0160984 0)
(0.643121 -0.0235463 0)
(0.659998 -0.0351266 0)
(0.683028 -0.0535768 0)
(0.713496 -0.0833962 0)
(0.751311 -0.131043 0)
(0.791565 -0.203897 0)
(1.02516 0.197184 0)
(1.08306 0.333935 0)
(1.08546 0.343454 0)
(1.05468 0.299006 0)
(1.0052 0.241854 0)
(0.952012 0.18867 0)
(0.90269 0.144412 0)
(0.860333 0.109339 0)
(0.825567 0.0821805 0)
(0.797859 0.0613973 0)
(0.776229 0.0456014 0)
(0.75961 0.033657 0)
(0.74701 0.0246685 0)
(0.737567 0.0179402 0)
(0.730568 0.0129347 0)
(0.725434 0.00923765 0)
(0.721707 0.00652969 0)
(0.719029 0.00456548 0)
(0.717123 0.0031569 0)
(0.715779 0.00216028 0)
(0.714838 0.00146641 0)
(0.714181 0.000992665 0)
(0.713723 0.000676798 0)
(0.713399 0.000472086 0)
(0.713168 0.000343443 0)
(0.712997 0.000264365 0)
(0.71287 0.000214491 0)
(0.712777 0.000177645 0)
(0.712715 0.000140229 0)
(0.712689 8.98542e-05 0)
(0.712712 1.41155e-05 0)
(0.712801 -0.000100608 0)
(0.712984 -0.000270432 0)
(0.713298 -0.000515467 0)
(0.713791 -0.000861745 0)
(0.714529 -0.00134383 0)
(0.715597 -0.00200857 0)
(0.71711 -0.00292061 0)
(0.719218 -0.00417095 0)
(0.722122 -0.00589011 0)
(0.72609 -0.00826947 0)
(0.731482 -0.0115958 0)
(0.738778 -0.0163079 0)
(0.748607 -0.0230902 0)
(0.761772 -0.0330218 0)
(0.779204 -0.0478028 0)
(0.801778 -0.0700473 0)
(0.829687 -0.103506 0)
(0.861261 -0.15258 0)
(0.891111 -0.220353 0)
(1.01947 0.167149 0)
(1.07478 0.311774 0)
(1.09737 0.343604 0)
(1.09115 0.316459 0)
(1.06365 0.267825 0)
(1.02709 0.216525 0)
(0.989274 0.170418 0)
(0.954457 0.13186 0)
(0.924458 0.100808 0)
(0.899678 0.0763385 0)
(0.8798 0.0573238 0)
(0.864196 0.0426975 0)
(0.852157 0.0315423 0)
(0.843002 0.0231016 0)
(0.836129 0.0167662 0)
(0.83103 0.012051 0)
(0.827288 0.00857406 0)
(0.82457 0.0060363 0)
(0.822615 0.00420535 0)
(0.82122 0.0029018 0)
(0.820231 0.00198801 0)
(0.819532 0.00135901 0)
(0.819038 0.000935209 0)
(0.818685 0.000656416 0)
(0.81843 0.000477133 0)
(0.818243 0.000362722 0)
(0.818106 0.000286338 0)
(0.81801 0.000226441 0)
(0.817953 0.000164724 0)
(0.817943 8.43481e-05 0)
(0.817994 -3.16664e-05 0)
(0.818125 -0.000202017 0)
(0.818369 -0.000448802 0)
(0.818766 -0.000799497 0)
(0.819371 -0.00128946 0)
(0.820257 -0.00196527 0)
(0.821516 -0.00288948 0)
(0.823272 -0.00414745 0)
(0.825684 -0.00585751 0)
(0.82896 -0.00818643 0)
(0.833368 -0.011373 0)
(0.839257 -0.0157646 0)
(0.847064 -0.0218732 0)
(0.857327 -0.0304601 0)
(0.870658 -0.0426556 0)
(0.887639 -0.060111 0)
(0.908569 -0.0851278 0)
(0.93288 -0.120596 0)
(0.958198 -0.169226 0)
(0.979584 -0.231607 0)
(1.01515 0.142145 0)
(1.06549 0.285724 0)
(1.09972 0.332529 0)
(1.1117 0.320718 0)
(1.10325 0.282033 0)
(1.083 0.235232 0)
(1.05782 0.189835 0)
(1.03224 0.14985 0)
(1.00877 0.11641 0)
(0.988503 0.089299 0)
(0.971699 0.0677693 0)
(0.958169 0.0509268 0)
(0.947515 0.0379091 0)
(0.939277 0.0279532 0)
(0.933003 0.0204142 0)
(0.928288 0.0147613 0)
(0.924787 0.0105656 0)
(0.922215 0.00748506 0)
(0.920343 0.0052499 0)
(0.918991 0.00364952 0)
(0.918021 0.00252078 0)
(0.917325 0.0017383 0)
(0.916826 0.00120631 0)
(0.916465 0.000851911 0)
(0.916201 0.000619593 0)
(0.916008 0.000466782 0)
(0.915868 0.000360187 0)
(0.915775 0.000272823 0)
(0.915728 0.000181509 0)
(0.915735 6.47088e-05 0)
(0.915813 -9.94493e-05 0)
(0.915986 -0.000335115 0)
(0.916285 -0.000670804 0)
(0.916757 -0.00114182 0)
(0.917459 -0.00179329 0)
(0.918467 -0.00268422 0)
(0.91988 -0.00389296 0)
(0.921822 -0.00552511 0)
(0.924454 -0.0077248 0)
(0.927979 -0.0106912 0)
(0.93265 -0.0147026 0)
(0.938781 -0.0201519 0)
(0.946746 -0.0275969 0)
(0.956961 -0.0378291 0)
(0.969831 -0.0519576 0)
(0.985619 -0.071488 0)
(1.00418 -0.0983276 0)
(1.02449 -0.134559 0)
(1.044 -0.181641 0)
(1.05856 -0.238816 0)
(1.01206 0.121406 0)
(1.05706 0.258533 0)
(1.09748 0.314172 0)
(1.12237 0.314724 0)
(1.12951 0.285884 0)
(1.1241 0.244997 0)
(1.11148 0.202177 0)
(1.09584 0.162528 0)
(1.07992 0.128147 0)
(1.06523 0.0995053 0)
(1.05248 0.0762783 0)
(1.04186 0.0578082 0)
(1.03327 0.0433459 0)
(1.02649 0.0321688 0)
(1.02124 0.0236319 0)
(1.01722 0.0171842 0)
(1.0142 0.0123685 0)
(1.01195 0.00881275 0)
(1.01029 0.00621924 0)
(1.00908 0.00435261 0)
(1.00819 0.00302888 0)
(1.00755 0.00210549 0)
(1.00707 0.00147274 0)
(1.00673 0.00104659 0)
(1.00647 0.000762578 0)
(1.00628 0.000570881 0)
(1.00615 0.000432188 0)
(1.00606 0.000314298 0)
(1.00603 0.000189241 0)
(1.00605 3.07629e-05 0)
(1.00616 -0.000187994 0)
(1.00636 -0.000496775 0)
(1.00671 -0.000930662 0)
(1.00724 -0.0015329 0)
(1.00802 -0.0023584 0)
(1.00912 -0.00347828 0)
(1.01064 -0.00498599 0)
(1.0127 -0.00700571 0)
(1.01546 -0.00970418 0)
(1.0191 -0.0133072 0)
(1.02386 -0.0181226 0)
(1.02999 -0.0245719 0)
(1.03779 -0.0332317 0)
(1.04755 -0.0448836 0)
(1.05948 -0.0605627 0)
(1.07357 -0.0815768 0)
(1.08938 -0.109429 0)
(1.10566 -0.145522 0)
(1.11999 -0.190445 0)
(1.129 -0.242793 0)
(1.00992 0.104025 0)
(1.05004 0.231589 0)
(1.09332 0.291276 0)
(1.12708 0.301034 0)
(1.14652 0.281045 0)
(1.15398 0.246568 0)
(1.1531 0.20753 0)
(1.14738 0.169594 0)
(1.13941 0.13555 0)
(1.1309 0.106449 0)
(1.12285 0.0823742 0)
(1.11574 0.0629282 0)
(1.10974 0.0475108 0)
(1.10484 0.0354749 0)
(1.10095 0.0262057 0)
(1.09791 0.0191562 0)
(1.09557 0.0138594 0)
(1.0938 0.0099278 0)
(1.09247 0.00704613 0)
(1.09148 0.0049623 0)
(1.09074 0.00347729 0)
(1.09019 0.00243567 0)
(1.08978 0.00171695 0)
(1.08947 0.00122819 0)
(1.08923 0.000897619 0)
(1.08906 0.000669283 0)
(1.08894 0.000498636 0)
(1.08886 0.000348782 0)
(1.08884 0.000187295 0)
(1.08888 -1.65948e-05 0)
(1.08901 -0.000294603 0)
(1.08925 -0.000681975 0)
(1.08963 -0.00122024 0)
(1.09021 -0.00196034 0)
(1.09103 -0.00296654 0)
(1.09219 -0.00432125 0)
(1.09376 -0.00613151 0)
(1.09588 -0.00853758 0)
(1.09867 -0.0117246 0)
(1.1023 -0.015938 0)
(1.10697 -0.0215044 0)
(1.11288 -0.0288576 0)
(1.12024 -0.0385694 0)
(1.12922 -0.051381 0)
(1.13986 -0.0682207 0)
(1.15196 -0.0901798 0)
(1.16488 -0.11839 0)
(1.1773 -0.153717 0)
(1.18707 -0.196181 0)
(1.19153 -0.244127 0)
(1.00845 0.0892087 0)
(1.04443 0.205518 0)
(1.08865 0.265673 0)
(1.12834 0.281705 0)
(1.15726 0.26914 0)
(1.1755 0.24094 0)
(1.18515 0.206336 0)
(1.18881 0.171107 0)
(1.18874 0.138454 0)
(1.18662 0.10986 0)
(1.18359 0.0857582 0)
(1.18035 0.0660016 0)
(1.17729 0.0501525 0)
(1.17459 0.037661 0)
(1.17231 0.0279653 0)
(1.17046 0.0205429 0)
(1.16897 0.0149347 0)
(1.16781 0.0107515 0)
(1.1669 0.00767164 0)
(1.1662 0.00543501 0)
(1.16566 0.00383418 0)
(1.16525 0.00270583 0)
(1.16493 0.00192248 0)
(1.16467 0.0013851 0)
(1.16448 0.00101665 0)
(1.16433 0.00075659 0)
(1.16422 0.000556207 0)
(1.16416 0.000374694 0)
(1.16416 0.000175727 0)
(1.16422 -7.55637e-05 0)
(1.16436 -0.00041542 0)
(1.16462 -0.000884263 0)
(1.16502 -0.00152968 0)
(1.16562 -0.0024098 0)
(1.16647 -0.00359739 0)
(1.16764 -0.00518488 0)
(1.16922 -0.00729089 0)
(1.17132 -0.0100686 0)
(1.17404 -0.0137167 0)
(1.17754 -0.0184933 0)
(1.18197 -0.0247331 0)
(1.18748 -0.0328675 0)
(1.19418 -0.0434452 0)
(1.20214 -0.0571462 0)
(1.21127 -0.0747762 0)
(1.22123 -0.0972142 0)
(1.23126 -0.125272 0)
(1.24011 -0.159415 0)
(1.2459 -0.199307 0)
(1.24657 -0.243263 0)
(1.00743 0.0763291 0)
(1.04003 0.18054 0)
(1.08415 0.238548 0)
(1.12772 0.258318 0)
(1.16379 0.251618 0)
(1.19087 0.229176 0)
(1.20967 0.199237 0)
(1.22189 0.167371 0)
(1.22932 0.136931 0)
(1.23348 0.109671 0)
(1.23554 0.0862939 0)
(1.23632 0.066868 0)
(1.23637 0.0511128 0)
(1.23605 0.0385847 0)
(1.23556 0.0287893 0)
(1.23502 0.021245 0)
(1.2345 0.0155152 0)
(1.23404 0.011222 0)
(1.23363 0.00804845 0)
(1.23328 0.00573507 0)
(1.23299 0.00407296 0)
(1.23274 0.00289641 0)
(1.23253 0.00207511 0)
(1.23235 0.00150714 0)
(1.23221 0.00111259 0)
(1.23209 0.000828111 0)
(1.23201 0.000602167 0)
(1.23196 0.000391029 0)
(1.23197 0.000155225 0)
(1.23204 -0.000143617 0)
(1.2322 -0.000545742 0)
(1.23247 -0.00109623 0)
(1.23288 -0.00184811 0)
(1.23348 -0.00286591 0)
(1.23433 -0.00422977 0)
(1.23547 -0.00604054 0)
(1.23701 -0.00842605 0)
(1.23901 -0.011549 0)
(1.24159 -0.0156166 0)
(1.24485 -0.0208925 0)
(1.24891 -0.0277105 0)
(1.25385 -0.0364878 0)
(1.25974 -0.0477363 0)
(1.26652 -0.0620633 0)
(1.27401 -0.0801483 0)
(1.28177 -0.102676 0)
(1.28904 -0.130198 0)
(1.29463 -0.162886 0)
(1.29697 -0.200202 0)
(1.29445 -0.240541 0)
(1.00672 0.0649053 0)
(1.03663 0.156663 0)
(1.08014 0.210642 0)
(1.12617 0.232049 0)
(1.16757 0.229702 0)
(1.20175 0.212297 0)
(1.22831 0.186969 0)
(1.24811 0.158845 0)
(1.26241 0.131223 0)
(1.2725 0.105978 0)
(1.27949 0.0839852 0)
(1.28425 0.0654813 0)
(1.28745 0.0503234 0)
(1.28956 0.0381721 0)
(1.29092 0.028608 0)
(1.29177 0.021201 0)
(1.29229 0.0155492 0)
(1.29258 0.0112974 0)
(1.29271 0.00814334 0)
(1.29275 0.00583661 0)
(1.29273 0.00417386 0)
(1.29267 0.0029925 0)
(1.29259 0.00216378 0)
(1.2925 0.00158627 0)
(1.29241 0.0011798 0)
(1.29234 0.000880166 0)
(1.29228 0.000634535 0)
(1.29226 0.000397395 0)
(1.29227 0.00012703 0)
(1.29236 -0.000217688 0)
(1.29252 -0.000680332 0)
(1.29278 -0.00130995 0)
(1.29319 -0.00216423 0)
(1.29377 -0.0033131 0)
(1.29458 -0.00484275 0)
(1.29567 -0.00686061 0)
(1.29711 -0.00950115 0)
(1.29897 -0.012933 0)
(1.30132 -0.0173674 0)
(1.30426 -0.0230674 0)
(1.30783 -0.0303576 0)
(1.3121 -0.0396324 0)
(1.31704 -0.0513586 0)
(1.32254 -0.0660656 0)
(1.32834 -0.0843124 0)
(1.33396 -0.106615 0)
(1.33863 -0.133315 0)
(1.34129 -0.164386 0)
(1.34063 -0.199184 0)
(1.33541 -0.236232 0)
(1.00623 0.0545745 0)
(1.03402 0.133796 0)
(1.07671 0.182402 0)
(1.12425 0.203756 0)
(1.16959 0.204396 0)
(1.20938 0.191237 0)
(1.24239 0.170282 0)
(1.26871 0.146076 0)
(1.28912 0.121695 0)
(1.30462 0.0990015 0)
(1.3162 0.0789529 0)
(1.32474 0.0618962 0)
(1.33097 0.0477988 0)
(1.33546 0.0364156 0)
(1.33866 0.0274027 0)
(1.34091 0.0203883 0)
(1.34246 0.0150141 0)
(1.34352 0.0109571 0)
(1.34421 0.00793858 0)
(1.34466 0.00572493 0)
(1.34492 0.00412499 0)
(1.34506 0.00298471 0)
(1.34511 0.00218124 0)
(1.34512 0.00161706 0)
(1.3451 0.00121441 0)
(1.34506 0.000910309 0)
(1.34504 0.000652195 0)
(1.34503 0.000394029 0)
(1.34506 9.28539e-05 0)
(1.34515 -0.000294359 0)
(1.34531 -0.00081372 0)
(1.34556 -0.00151743 0)
(1.34595 -0.00246692 0)
(1.34649 -0.00373636 0)
(1.34724 -0.00541657 0)
(1.34824 -0.00761958 0)
(1.34954 -0.010484 0)
(1.35119 -0.0141811 0)
(1.35326 -0.0189216 0)
(1.35579 -0.0249627 0)
(1.35881 -0.0326141 0)
(1.36232 -0.0422411 0)
(1.36624 -0.0542609 0)
(1.37042 -0.0691258 0)
(1.37453 -0.0872844 0)
(1.37809 -0.10911 0)
(1.38036 -0.134786 0)
(1.38041 -0.16415 0)
(1.37715 -0.196518 0)
(1.36962 -0.230561 0)
(1.00588 0.0450631 0)
(1.03203 0.111802 0)
(1.07387 0.154087 0)
(1.12232 0.174058 0)
(1.17053 0.176504 0)
(1.21469 0.166818 0)
(1.25292 0.149908 0)
(1.28471 0.129651 0)
(1.31039 0.108789 0)
(1.33065 0.0890576 0)
(1.34635 0.0714114 0)
(1.35834 0.056253 0)
(1.36737 0.0436271 0)
(1.37409 0.0333679 0)
(1.37902 0.0252032 0)
(1.3826 0.0188222 0)
(1.38516 0.0139164 0)
(1.38696 0.0102025 0)
(1.3882 0.00743257 0)
(1.38904 0.00539707 0)
(1.38958 0.00392292 0)
(1.38992 0.00286966 0)
(1.39012 0.00212446 0)
(1.39022 0.00159703 0)
(1.39026 0.00121459 0)
(1.39028 0.000917464 0)
(1.39028 0.00065495 0)
(1.39029 0.000381766 0)
(1.39033 5.47704e-05 0)
(1.39041 -0.00037005 0)
(1.39056 -0.000940477 0)
(1.3908 -0.00171097 0)
(1.39115 -0.00274569 0)
(1.39164 -0.00412186 0)
(1.3923 -0.00593336 0)
(1.39318 -0.00829496 0)
(1.3943 -0.0113469 0)
(1.39571 -0.0152601 0)
(1.39744 -0.020241 0)
(1.39951 -0.0265368 0)
(1.40192 -0.0344378 0)
(1.40462 -0.0442768 0)
(1.40749 -0.0564201 0)
(1.41034 -0.071247 0)
(1.41282 -0.0891087 0)
(1.41444 -0.110262 0)
(1.41452 -0.134771 0)
(1.41226 -0.162388 0)
(1.40674 -0.19243 0)
(1.39722 -0.223714 0)
(1.00564 0.0361629 0)
(1.03053 0.0905327 0)
(1.0716 0.125831 0)
(1.12057 0.143393 0)
(1.17083 0.146669 0)
(1.21833 0.139755 0)
(1.26069 0.12653 0)
(1.29694 0.110169 0)
(1.32699 0.0929935 0)
(1.3513 0.076527 0)
(1.37056 0.061648 0)
(1.38556 0.0487624 0)
(1.39706 0.0379595 0)
(1.40576 0.0291355 0)
(1.41226 0.0220833 0)
(1.41704 0.016553 0)
(1.42052 0.0122898 0)
(1.423 0.00905548 0)
(1.42475 0.00663943 0)
(1.42595 0.00486172 0)
(1.42676 0.00357272 0)
(1.42729 0.00265008 0)
(1.42762 0.00199476 0)
(1.42781 0.0015267 0)
(1.42792 0.0011806 0)
(1.42797 0.000901956 0)
(1.428 0.000643512 0)
(1.42803 0.000361985 0)
(1.42807 1.5101e-05 0)
(1.42815 -0.000441199 0)
(1.42829 -0.00105547 0)
(1.4285 -0.0018835 0)
(1.4288 -0.00299113 0)
(1.42921 -0.00445739 0)
(1.42977 -0.00637776 0)
(1.4305 -0.00886788 0)
(1.43142 -0.0120674 0)
(1.43255 -0.0161442 0)
(1.43391 -0.0212975 0)
(1.43548 -0.0277611 0)
(1.43724 -0.0358032 0)
(1.4391 -0.0457225 0)
(1.44092 -0.0578358 0)
(1.44247 -0.0724555 0)
(1.44339 -0.0898492 0)
(1.44322 -0.11018 0)
(1.44134 -0.133428 0)
(1.43703 -0.159292 0)
(1.42957 -0.187117 0)
(1.41835 -0.215855 0)
(1.00547 0.0277126 0)
(1.02942 0.0698413 0)
(1.06985 0.0976916 0)
(1.1191 0.112076 0)
(1.17081 0.115403 0)
(1.22077 0.110664 0)
(1.26629 0.100782 0)
(1.30603 0.0882201 0)
(1.33957 0.074823 0)
(1.36714 0.0618368 0)
(1.38931 0.0500047 0)
(1.40681 0.0396909 0)
(1.42038 0.0309995 0)
(1.43076 0.023871 0)
(1.43858 0.0181556 0)
(1.44439 0.0136626 0)
(1.44865 0.0101929 0)
(1.45172 0.00755765 0)
(1.45391 0.00558797 0)
(1.45544 0.00413854 0)
(1.45648 0.00308753 0)
(1.45717 0.00233457 0)
(1.45762 0.00179763 0)
(1.45789 0.00140957 0)
(1.45806 0.00111469 0)
(1.45815 0.000865455 0)
(1.4582 0.00061943 0)
(1.45824 0.000336508 0)
(1.45829 -2.3715e-05 0)
(1.45836 -0.000504433 0)
(1.45848 -0.00115408 0)
(1.45865 -0.00202884 0)
(1.45889 -0.00319521 0)
(1.45922 -0.00473282 0)
(1.45966 -0.0067373 0)
(1.46022 -0.00932349 0)
(1.46092 -0.0126285 0)
(1.46174 -0.0168147 0)
(1.4627 -0.0220721 0)
(1.46376 -0.0286187 0)
(1.46485 -0.0366992 0)
(1.46588 -0.046578 0)
(1.46666 -0.0585254 0)
(1.46697 -0.0727943 0)
(1.46644 -0.0895823 0)
(1.46464 -0.10898 0)
(1.46099 -0.130905 0)
(1.4549 -0.155035 0)
(1.44575 -0.18075 0)
(1.43309 -0.207128 0)
(1.00536 0.0195839 0)
(1.02865 0.0495879 0)
(1.06858 0.0696793 0)
(1.11796 0.0803287 0)
(1.17065 0.0831179 0)
(1.22235 0.0800795 0)
(1.27016 0.0732502 0)
(1.31245 0.0643788 0)
(1.3486 0.0548031 0)
(1.37864 0.0454438 0)
(1.40303 0.0368633 0)
(1.42244 0.0293483 0)
(1.43762 0.022992 0)
(1.4493 0.0177644 0)
(1.45816 0.0135648 0)
(1.46478 0.0102595 0)
(1.46966 0.00770589 0)
(1.47321 0.0057672 0)
(1.47574 0.00431992 0)
(1.47753 0.00325694 0)
(1.47876 0.00248775 0)
(1.47959 0.00193702 0)
(1.48013 0.00154237 0)
(1.48048 0.00125178 0)
(1.48069 0.00102098 0)
(1.48081 0.000810831 0)
(1.48089 0.000584966 0)
(1.48094 0.00030748 0)
(1.48098 -5.92558e-05 0)
(1.48104 -0.000556721 0)
(1.48113 -0.00123239 0)
(1.48125 -0.00214194 0)
(1.48143 -0.00335154 0)
(1.48167 -0.00494026 0)
(1.48198 -0.00700262 0)
(1.48236 -0.0096511 0)
(1.48281 -0.0130186 0)
(1.48332 -0.0172604 0)
(1.48387 -0.022555 0)
(1.4844 -0.0291039 0)
(1.48483 -0.0371275 0)
(1.48504 -0.0468571 0)
(1.48484 -0.0585206 0)
(1.48398 -0.0723188 0)
(1.48212 -0.0883919 0)
(1.47884 -0.106775 0)
(1.47364 -0.127345 0)
(1.46599 -0.149771 0)
(1.45541 -0.173481 0)
(1.44151 -0.197662 0)
(1.00529 0.0116707 0)
(1.02816 0.0296404 0)
(1.06775 0.0417737 0)
(1.11719 0.0483126 0)
(1.17048 0.050153 0)
(1.22329 0.0484737 0)
(1.27258 0.0444749 0)
(1.31655 0.0392014 0)
(1.35443 0.0334628 0)
(1.38612 0.0278236 0)
(1.41201 0.0226336 0)
(1.43272 0.0180757 0)
(1.44899 0.0142137 0)
(1.46157 0.0110346 0)
(1.47114 0.00848094 0)
(1.47833 0.00647333 0)
(1.48364 0.00492609 0)
(1.48751 0.00375609 0)
(1.4903 0.00288762 0)
(1.49226 0.00225442 0)
(1.49363 0.0017998 0)
(1.49456 0.00147573 0)
(1.49517 0.00124146 0)
(1.49557 0.00106175 0)
(1.49582 0.000905084 0)
(1.49597 0.000741924 0)
(1.49605 0.000542921 0)
(1.49611 0.000277219 0)
(1.49615 -8.92546e-05 0)
(1.49619 -0.000595517 0)
(1.49625 -0.00128732 0)
(1.49633 -0.00221901 0)
(1.49643 -0.00345549 0)
(1.49657 -0.00507428 0)
(1.49674 -0.00716757 0)
(1.49693 -0.00984424 0)
(1.49714 -0.0132316 0)
(1.49733 -0.0174763 0)
(1.49746 -0.0227446 0)
(1.49748 -0.0292205 0)
(1.49727 -0.0371004 0)
(1.49669 -0.0465849 0)
(1.49557 -0.0578635 0)
(1.49363 -0.0710928 0)
(1.49055 -0.0863665 0)
(1.48595 -0.103678 0)
(1.47939 -0.122879 0)
(1.47041 -0.143644 0)
(1.45861 -0.165447 0)
(1.44369 -0.187576 0)
(1.00526 0.00388134 0)
(1.02792 0.00987333 0)
(1.06735 0.0139379 0)
(1.11681 0.0161497 0)
(1.17039 0.016799 0)
(1.22373 0.0162723 0)
(1.27375 0.0149663 0)
(1.31856 0.0132287 0)
(1.35729 0.0113307 0)
(1.38981 0.00946259 0)
(1.41645 0.00774337 0)
(1.43782 0.00623594 0)
(1.45465 0.00496312 0)
(1.46769 0.00392153 0)
(1.47763 0.00309244 0)
(1.4851 0.00244946 0)
(1.49064 0.00196361 0)
(1.49468 0.00160639 0)
(1.4976 0.00135131 0)
(1.49966 0.00117451 0)
(1.5011 0.00105462 0)
(1.50208 0.000972365 0)
(1.50274 0.000909808 0)
(1.50317 0.000849545 0)
(1.50344 0.000773762 0)
(1.5036 0.000663263 0)
(1.5037 0.000496417 0)
(1.50375 0.000248054 0)
(1.50379 -0.000111735 0)
(1.50381 -0.00061888 0)
(1.50383 -0.00131674 0)
(1.50386 -0.00225761 0)
(1.50389 -0.00350432 0)
(1.50393 -0.00513191 0)
(1.50396 -0.00722926 0)
(1.50396 -0.00990053 0)
(1.50392 -0.0132663 0)
(1.50379 -0.0174639 0)
(1.50353 -0.0226465 0)
(1.50304 -0.0289804 0)
(1.50222 -0.0366394 0)
(1.50091 -0.0457954 0)
(1.49893 -0.0566044 0)
(1.49601 -0.0691857 0)
(1.49185 -0.0835963 0)
(1.4861 -0.0997998 0)
(1.47836 -0.117634 0)
(1.46825 -0.136785 0)
(1.45543 -0.156775 0)
(1.43967 -0.176979 0)
(1.00526 -0.0038676 0)
(1.02792 -0.00983424 0)
(1.06735 -0.013874 0)
(1.11681 -0.0160603 0)
(1.17039 -0.0166822 0)
(1.22374 -0.0161252 0)
(1.27375 -0.0147851 0)
(1.31856 -0.0130087 0)
(1.3573 -0.0110662 0)
(1.38982 -0.0091471 0)
(1.41647 -0.00736959 0)
(1.43784 -0.00579586 0)
(1.45467 -0.00444818 0)
(1.46771 -0.00332289 0)
(1.47766 -0.00240127 0)
(1.48514 -0.00165747 0)
(1.49068 -0.00106371 0)
(1.49474 -0.000593579 0)
(1.49766 -0.000223871 0)
(1.49973 6.4475e-05 0)
(1.50118 0.000285999 0)
(1.50218 0.000450644 0)
(1.50284 0.000563791 0)
(1.50328 0.000626294 0)
(1.50356 0.000634431 0)
(1.50373 0.000579735 0)
(1.50382 0.000448674 0)
(1.50388 0.000222155 0)
(1.5039 -0.000125134 0)
(1.5039 -0.000625563 0)
(1.50389 -0.00131956 0)
(1.50387 -0.00225674 0)
(1.50383 -0.00349717 0)
(1.50376 -0.00511263 0)
(1.50364 -0.00718785 0)
(1.50347 -0.00982145 0)
(1.50318 -0.0131265 0)
(1.50275 -0.0172303 0)
(1.5021 -0.0222727 0)
(1.50114 -0.0284028 0)
(1.49975 -0.035773 0)
(1.49778 -0.0445296 0)
(1.49501 -0.0547991 0)
(1.49122 -0.0666704 0)
(1.48611 -0.0801719 0)
(1.47936 -0.0952464 0)
(1.47062 -0.111726 0)
(1.45957 -0.129315 0)
(1.44592 -0.147581 0)
(1.42949 -0.165975 0)
(1.00529 -0.0116571 0)
(1.02816 -0.0296019 0)
(1.06775 -0.0417107 0)
(1.1172 -0.0482244 0)
(1.17049 -0.0500377 0)
(1.22331 -0.0483284 0)
(1.2726 -0.0442958 0)
(1.31658 -0.0389839 0)
(1.35446 -0.0332013 0)
(1.38616 -0.0275116 0)
(1.41205 -0.022264 0)
(1.43277 -0.0176405 0)
(1.44906 -0.0137043 0)
(1.46165 -0.0104424 0)
(1.47124 -0.00779704 0)
(1.47844 -0.00568955 0)
(1.48378 -0.00403534 0)
(1.48768 -0.00275335 0)
(1.49048 -0.00177111 0)
(1.49248 -0.00102709 0)
(1.49387 -0.000471313 0)
(1.49483 -6.49761e-05 0)
(1.49547 0.000220307 0)
(1.4959 0.000403441 0)
(1.49617 0.000494672 0)
(1.49633 0.000496238 0)
(1.49643 0.000402759 0)
(1.49647 0.000201369 0)
(1.49648 -0.000128417 0)
(1.49647 -0.000615087 0)
(1.49642 -0.00129573 0)
(1.49635 -0.00221679 0)
(1.49624 -0.00343501 0)
(1.49607 -0.00501827 0)
(1.49582 -0.00704647 0)
(1.49546 -0.00961206 0)
(1.49496 -0.0128201 0)
(1.49424 -0.0167874 0)
(1.49323 -0.0216407 0)
(1.49184 -0.0275127 0)
(1.48993 -0.0345359 0)
(1.48735 -0.0428337 0)
(1.48389 -0.0525078 0)
(1.47934 -0.0636219 0)
(1.47341 -0.0761831 0)
(1.46581 -0.0901206 0)
(1.45624 -0.105267 0)
(1.44443 -0.121347 0)
(1.43012 -0.137973 0)
(1.41319 -0.154663 0)
(1.00536 -0.0195708 0)
(1.02865 -0.0495505 0)
(1.06858 -0.069618 0)
(1.11797 -0.0802427 0)
(1.17066 -0.0830054 0)
(1.22237 -0.0799377 0)
(1.27018 -0.0730754 0)
(1.31249 -0.0641664 0)
(1.34864 -0.0545476 0)
(1.3787 -0.0451389 0)
(1.4031 -0.0365019 0)
(1.42253 -0.0289226 0)
(1.43773 -0.0224937 0)
(1.44944 -0.0171848 0)
(1.45832 -0.0128953 0)
(1.46497 -0.00949196 0)
(1.46989 -0.00683329 0)
(1.47347 -0.00478447 0)
(1.47605 -0.00322514 0)
(1.47788 -0.0020528 0)
(1.47916 -0.00118344 0)
(1.48004 -0.000550696 0)
(1.48063 -0.000104241 0)
(1.48102 0.000192038 0)
(1.48127 0.000361728 0)
(1.48143 0.000417332 0)
(1.48151 0.000361361 0)
(1.48155 0.000187072 0)
(1.48155 -0.00012116 0)
(1.48151 -0.000587778 0)
(1.48143 -0.00124626 0)
(1.48131 -0.00213954 0)
(1.48113 -0.00332055 0)
(1.48087 -0.00485282 0)
(1.4805 -0.00681091 0)
(1.47998 -0.00928063 0)
(1.47926 -0.0123587 0)
(1.47828 -0.0161515 0)
(1.47695 -0.0207728 0)
(1.47516 -0.0263399 0)
(1.4728 -0.0329672 0)
(1.46968 -0.0407581 0)
(1.46563 -0.0497932 0)
(1.46042 -0.0601162 0)
(1.4538 -0.0717184 0)
(1.44551 -0.0845215 0)
(1.43528 -0.0983634 0)
(1.42286 -0.11299 0)
(1.40807 -0.128055 0)
(1.39079 -0.143136 0)
(1.00547 -0.0277002 0)
(1.02943 -0.0698055 0)
(1.06985 -0.0976328 0)
(1.11911 -0.111993 0)
(1.17083 -0.115295 0)
(1.2208 -0.110527 0)
(1.26633 -0.100614 0)
(1.30608 -0.0880151 0)
(1.33963 -0.0745763 0)
(1.36722 -0.0615423 0)
(1.38942 -0.0496554 0)
(1.40693 -0.0392794 0)
(1.42054 -0.0305175 0)
(1.43094 -0.0233102 0)
(1.4388 -0.0175075 0)
(1.44465 -0.0129192 0)
(1.44896 -0.00934719 0)
(1.45209 -0.00660458 0)
(1.45433 -0.00452545 0)
(1.45592 -0.00296885 0)
(1.45703 -0.00181921 0)
(1.45779 -0.000984724 0)
(1.4583 -0.000394923 0)
(1.45865 2.05706e-06 0)
(1.45886 0.000242022 0)
(1.459 0.000346915 0)
(1.45907 0.000326578 0)
(1.4591 0.000180044 0)
(1.45908 -0.000103607 0)
(1.45903 -0.000544775 0)
(1.45892 -0.00117319 0)
(1.45876 -0.00202803 0)
(1.45852 -0.00315813 0)
(1.45817 -0.00462227 0)
(1.45769 -0.00648935 0)
(1.45702 -0.00883825 0)
(1.45612 -0.0117572 0)
(1.4549 -0.0153423 0)
(1.45329 -0.019695 0)
(1.45116 -0.024918 0)
(1.4484 -0.0311098 0)
(1.44483 -0.038356 0)
(1.44027 -0.0467198 0)
(1.43452 -0.0562294 0)
(1.42735 -0.0668648 0)
(1.4185 -0.0785446 0)
(1.40776 -0.0911147 0)
(1.39491 -0.104343 0)
(1.37979 -0.117923 0)
(1.3623 -0.131485 0)
(1.00564 -0.0361512 0)
(1.03053 -0.0904989 0)
(1.07161 -0.125775 0)
(1.12058 -0.143315 0)
(1.17086 -0.146566 0)
(1.21836 -0.139625 0)
(1.26074 -0.126369 0)
(1.297 -0.109974 0)
(1.32707 -0.0927583 0)
(1.3514 -0.076246 0)
(1.37069 -0.0613146 0)
(1.38571 -0.0483693 0)
(1.39726 -0.0374989 0)
(1.406 -0.0285992 0)
(1.41254 -0.0214631 0)
(1.41737 -0.0158411 0)
(1.42091 -0.0114793 0)
(1.42346 -0.00814132 0)
(1.42528 -0.00561927 0)
(1.42656 -0.00373738 0)
(1.42745 -0.00235187 0)
(1.42807 -0.00134851 0)
(1.42848 -0.000639164 0)
(1.42876 -0.000158236 0)
(1.42894 0.000140732 0)
(1.42905 0.000287951 0)
(1.42911 0.000299752 0)
(1.42912 0.000180383 0)
(1.42909 -7.6699e-05 0)
(1.42902 -0.000487993 0)
(1.42889 -0.00107949 0)
(1.42869 -0.00188646 0)
(1.4284 -0.00295346 0)
(1.42798 -0.00433432 0)
(1.4274 -0.00609204 0)
(1.42661 -0.00829844 0)
(1.42554 -0.0110333 0)
(1.42413 -0.0143827 0)
(1.42227 -0.0184363 0)
(1.41986 -0.0232838 0)
(1.41676 -0.0290089 0)
(1.41282 -0.0356824 0)
(1.40786 -0.043353 0)
(1.40169 -0.0520371 0)
(1.39408 -0.0617073 0)
(1.38483 -0.0722822 0)
(1.37373 -0.083618 0)
(1.36059 -0.0955056 0)
(1.34529 -0.107673 0)
(1.32775 -0.1198 0)
(1.00588 -0.0450524 0)
(1.03203 -0.111771 0)
(1.07388 -0.154035 0)
(1.12234 -0.173984 0)
(1.17055 -0.176408 0)
(1.21473 -0.166696 0)
(1.25297 -0.149757 0)
(1.28479 -0.129467 0)
(1.31048 -0.108568 0)
(1.33077 -0.0887929 0)
(1.34651 -0.0710972 0)
(1.35853 -0.0558823 0)
(1.3676 -0.0431923 0)
(1.37437 -0.0328613 0)
(1.37935 -0.0246169 0)
(1.383 -0.0181486 0)
(1.38562 -0.0131489 0)