/*--------------------------------*- C++ -*----------------------------------*\
  =========                 |
  \\      /  F ield         | OpenFOAM: The Open Source CFD Toolbox
   \\    /   O peration     | Website:  https://openfoam.org
    \\  /    A nd           | Version:  6
     \\/     M anipulation  |
\*---------------------------------------------------------------------------*/
FoamFile
{
    version     2.0;
    format      ascii;
    class       volVectorField;
    location    "0";
    object      U;
}
// * * * * * * * * * * * * * * * * * * * * * * * * * * * * * * * * * * * * * //

dimensions      [0 1 -1 0 0 0 0];

internalField   nonuniform List<vector> 
9000
(
(0.610682 0.133662 0)
(0.480776 0.0634552 0)
(0.297159 0.0205889 0)
(0.210692 0.00947912 0)
(0.163781 0.00476228 0)
(0.135552 0.00259094 0)
(0.117536 0.00153773 0)
(0.105518 0.000972156 0)
(0.0972557 0.000639439 0)
(0.091476 0.000430323 0)
(0.0873967 0.000292747 0)
(0.0845093 0.000199604 0)
(0.0824686 0.000135523 0)
(0.0810335 9.11231e-05 0)
(0.0800323 6.03502e-05 0)
(0.0793411 3.9131e-05 0)
(0.0788703 2.46479e-05 0)
(0.0785547 1.49162e-05 0)
(0.0783471 8.52373e-06 0)
(0.0782134 4.46128e-06 0)
(0.0781294 2.00774e-06 0)
(0.0780776 6.49812e-07 0)
(0.078046 2.45003e-08 0)
(0.078026 -1.22732e-07 0)
(0.0780122 3.13005e-08 0)
(0.0780008 3.6479e-07 0)
(0.0779895 7.94079e-07 0)
(0.0779772 1.2611e-06 0)
(0.0779636 1.72391e-06 0)
(0.0779489 2.14951e-06 0)
(0.0779341 2.50809e-06 0)
(0.0779207 2.76827e-06 0)
(0.077911 2.89271e-06 0)
(0.0779081 2.83362e-06 0)
(0.0779163 2.52752e-06 0)
(0.0779414 1.88853e-06 0)
(0.0779911 7.98836e-07 0)
(0.0780763 -9.05934e-07 0)
(0.0782115 -3.46124e-06 0)
(0.0784175 -7.2194e-06 0)
(0.0787242 -1.27466e-05 0)
(0.0791757 -2.10591e-05 0)
(0.0798411 -3.42826e-05 0)
(0.0808349 -5.75745e-05 0)
(0.0823646 -0.00010508 0)
(0.0848556 -0.000224376 0)
(0.089253 -0.000598805 0)
(0.0974889 -0.00166836 0)
(0.119437 -0.00680347 0)
(0.173882 -0.0490793 0)
(0.980815 0.317584 0)
(0.889214 0.231184 0)
(0.67762 0.130199 0)
(0.536557 0.0746306 0)
(0.442002 0.0446833 0)
(0.377847 0.0281885 0)
(0.333645 0.0186052 0)
(0.302685 0.012686 0)
(0.280709 0.0088336 0)
(0.264981 0.00622607 0)
(0.253679 0.00441269 0)
(0.245554 0.00312968 0)
(0.239729 0.00221302 0)
(0.235574 0.00155539 0)
(0.232631 0.00108369 0)
(0.230566 0.000746594 0)
(0.229133 0.00050733 0)
(0.228151 0.000339171 0)
(0.227489 0.000222542 0)
(0.227048 0.000143058 0)
(0.22676 9.01405e-05 0)
(0.226573 5.60328e-05 0)
(0.226453 3.50633e-05 0)
(0.226374 2.31025e-05 0)
(0.226319 1.71503e-05 0)
(0.226277 1.50241e-05 0)
(0.22624 1.51182e-05 0)
(0.226205 1.62193e-05 0)
(0.226171 1.73609e-05 0)
(0.226139 1.77049e-05 0)
(0.226112 1.64408e-05 0)
(0.226094 1.26922e-05 0)
(0.226093 5.42148e-06 0)
(0.22612 -6.68033e-06 0)
(0.226187 -2.53332e-05 0)
(0.226316 -5.28616e-05 0)
(0.22653 -9.24801e-05 0)
(0.226864 -0.00014874 0)
(0.227368 -0.000228264 0)
(0.228109 -0.000341018 0)
(0.229185 -0.000502657 0)
(0.23074 -0.000739158 0)
(0.232998 -0.00109669 0)
(0.236314 -0.00166432 0)
(0.241296 -0.00263028 0)
(0.249043 -0.00443319 0)
(0.261642 -0.0081955 0)
(0.282985 -0.016891 0)
(0.32397 -0.0388996 0)
(0.398614 -0.107124 0)
(1.06339 0.324572 0)
(1.05286 0.320684 0)
(0.904649 0.227193 0)
(0.771856 0.151553 0)
(0.665127 0.100823 0)
(0.584729 0.0682755 0)
(0.525464 0.0472078 0)
(0.482037 0.0332017 0)
(0.450236 0.0236262 0)
(0.426953 0.0169256 0)
(0.409927 0.012156 0)
(0.39751 0.00872274 0)
(0.388494 0.0062362 0)
(0.381987 0.00443163 0)
(0.377325 0.00312372 0)
(0.374014 0.00217968 0)
(0.371687 0.00150284 0)
(0.37007 0.00102202 0)
(0.368961 0.000684543 0)
(0.368209 0.00045129 0)
(0.367706 0.000293252 0)
(0.367373 0.000188953 0)
(0.367152 0.000122555 0)
(0.367003 8.24069e-05 0)
(0.366899 5.99551e-05 0)
(0.366821 4.88956e-05 0)
(0.366759 4.45234e-05 0)
(0.366704 4.32225e-05 0)
(0.366657 4.20599e-05 0)
(0.366617 3.84512e-05 0)
(0.366591 2.9869e-05 0)
(0.366587 1.3569e-05 0)
(0.366618 -1.36982e-05 0)
(0.366702 -5.60209e-05 0)
(0.366863 -0.000118758 0)
(0.367133 -0.000209135 0)
(0.367557 -0.000337132 0)
(0.368194 -0.000516857 0)
(0.369128 -0.000768778 0)
(0.370472 -0.00112352 0)
(0.372392 -0.00162863 0)
(0.375127 -0.00236126 0)
(0.379035 -0.00345322 0)
(0.384673 -0.00514317 0)
(0.392931 -0.00789069 0)
(0.40528 -0.0126374 0)
(0.424179 -0.0214209 0)
(0.453448 -0.0387586 0)
(0.500008 -0.074608 0)
(0.567585 -0.153433 0)
(1.07638 0.283513 0)
(1.11346 0.356949 0)
(1.0317 0.298405 0)
(0.931101 0.222444 0)
(0.834599 0.160007 0)
(0.753855 0.114395 0)
(0.69001 0.0821062 0)
(0.640897 0.0592715 0)
(0.603667 0.0429787 0)
(0.575703 0.0312313 0)
(0.554848 0.0226876 0)
(0.539395 0.0164385 0)
(0.528023 0.0118558 0)
(0.519717 0.0084959 0)
(0.513699 0.0060391 0)
(0.509378 0.0042515 0)
(0.506307 0.00295991 0)
(0.504148 0.00203519 0)
(0.502646 0.00138071 0)
(0.501613 0.00092408 0)
(0.50091 0.000611186 0)
(0.500435 0.000401667 0)
(0.500114 0.000265532 0)
(0.499894 0.000180565 0)
(0.49974 0.000130316 0)
(0.499627 0.000102552 0)
(0.49954 8.80476e-05 0)
(0.499469 7.96253e-05 0)
(0.499414 7.13898e-05 0)
(0.499375 5.80853e-05 0)
(0.499362 3.45315e-05 0)
(0.499386 -4.91698e-06 0)
(0.499466 -6.69412e-05 0)
(0.499626 -0.000159927 0)
(0.499902 -0.000294829 0)
(0.500338 -0.000486366 0)
(0.500997 -0.000754775 0)
(0.501961 -0.00112851 0)
(0.503345 -0.00164857 0)
(0.505305 -0.00237561 0)
(0.50806 -0.00340235 0)
(0.511925 -0.00487566 0)
(0.517354 -0.00703767 0)
(0.525019 -0.0103049 0)
(0.535928 -0.015424 0)
(0.551586 -0.0237838 0)
(0.574178 -0.0380305 0)
(0.606382 -0.0631828 0)
(0.650994 -0.108086 0)
(0.705511 -0.18749 0)
(1.07322 0.241706 0)
(1.12946 0.361093 0)
(1.09816 0.339864 0)
(1.03395 0.276169 0)
(0.958432 0.211762 0)
(0.88768 0.158622 0)
(0.827385 0.117758 0)
(0.778509 0.0871278 0)
(0.740027 0.064347 0)
(0.710293 0.0474224 0)
(0.687627 0.0348398 0)
(0.670539 0.0254828 0)
(0.657781 0.018532 0)
(0.648344 0.0133825 0)
(0.641429 0.009584 0)
(0.636412 0.00679867 0)
(0.632806 0.00477172 0)
(0.630243 0.00331035 0)
(0.628439 0.00226858 0)
(0.627183 0.00153605 0)
(0.626315 0.00102952 0)
(0.62572 0.000686485 0)
(0.625311 0.000460157 0)
(0.625028 0.000315637 0)
(0.624829 0.000226896 0)
(0.624683 0.000174417 0)
(0.624574 0.000143342 0)
(0.624492 0.000121988 0)
(0.624434 0.000100649 0)
(0.624404 7.05826e-05 0)
(0.624412 2.31069e-05 0)
(0.624474 -5.12676e-05 0)
(0.624613 -0.000163766 0)
(0.624861 -0.000328436 0)
(0.625262 -0.000563551 0)
(0.625873 -0.000893534 0)
(0.626772 -0.00135175 0)
(0.628061 -0.00198476 0)
(0.629879 -0.00285888 0)
(0.632415 -0.00407096 0)
(0.635928 -0.00576609 0)
(0.640775 -0.00816808 0)
(0.647458 -0.0116326 0)
(0.656675 -0.016742 0)
(0.669401 -0.0244738 0)
(0.686933 -0.0364967 0)
(0.710853 -0.0556545 0)
(0.742491 -0.0866212 0)
(0.781754 -0.136106 0)
(0.823544 -0.211777 0)
(1.06677 0.204962 0)
(1.12709 0.347238 0)
(1.12968 0.357233 0)
(1.09773 0.311074 0)
(1.04628 0.25167 0)
(0.990943 0.19637 0)
(0.93961 0.150341 0)
(0.89551 0.113855 0)
(0.859303 0.0855973 0)
(0.830437 0.0639676 0)
(0.807897 0.047524 0)
(0.790574 0.0350861 0)
(0.777436 0.0257232 0)
(0.767588 0.0187123 0)
(0.760286 0.0134947 0)
(0.754929 0.00963928 0)
(0.75104 0.00681411 0)
(0.748245 0.00476387 0)
(0.746257 0.00329274 0)
(0.744855 0.00225113 0)
(0.743875 0.00152527 0)
(0.743193 0.00102905 0)
(0.742718 0.000697554 0)
(0.742386 0.000482057 0)
(0.74215 0.000345942 0)
(0.741978 0.000261543 0)
(0.741853 0.000207608 0)
(0.741764 0.000167258 0)
(0.741708 0.000126315 0)
(0.741692 7.18833e-05 0)
(0.741726 -8.93526e-06 0)
(0.741831 -0.00013028 0)
(0.742034 -0.000308863 0)
(0.742373 -0.000565531 0)
(0.7429 -0.00092726 0)
(0.743682 -0.00142987 0)
(0.744807 -0.00212192 0)
(0.746395 -0.00307044 0)
(0.748601 -0.00436978 0)
(0.751633 -0.00615536 0)
(0.75577 -0.00862578 0)
(0.761384 -0.0120786 0)
(0.768974 -0.0169696 0)
(0.779193 -0.0240093 0)
(0.792872 -0.0343183 0)
(0.810979 -0.0496628 0)
(0.834422 -0.0727581 0)
(0.8634 -0.107501 0)
(0.89618 -0.158465 0)
(0.927164 -0.228856 0)
(1.06085 0.173697 0)
(1.11845 0.324131 0)
(1.14203 0.357336 0)
(1.13564 0.329196 0)
(1.10707 0.278675 0)
(1.06905 0.225353 0)
(1.02969 0.17741 0)
(0.993445 0.137306 0)
(0.962203 0.104999 0)
(0.936388 0.079535 0)
(0.915673 0.0597413 0)
(0.899407 0.0445111 0)
(0.886854 0.0328913 0)
(0.877306 0.0240961 0)
(0.870136 0.017492 0)
(0.864815 0.0125749 0)
(0.86091 0.00894746 0)
(0.858074 0.00629853 0)
(0.856034 0.00438628 0)
(0.85458 0.00302389 0)
(0.85355 0.00206798 0)
(0.852824 0.00140917 0)
(0.852312 0.000964452 0)
(0.851949 0.000671061 0)
(0.851688 0.000481516 0)
(0.8515 0.000359666 0)
(0.851365 0.000277495 0)
(0.851274 0.000212528 0)
(0.851225 0.000145688 0)
(0.851225 5.94465e-05 0)
(0.851288 -6.38457e-05 0)
(0.851437 -0.000243595 0)
(0.851704 -0.000502716 0)
(0.852131 -0.000869687 0)
(0.852775 -0.00138114 0)
(0.85371 -0.00208536 0)
(0.855035 -0.00304718 0)
(0.856876 -0.00435508 0)
(0.859397 -0.00613179 0)
(0.862816 -0.00855028 0)
(0.867409 -0.0118583 0)
(0.873538 -0.0164165 0)
(0.881658 -0.0227563 0)
(0.892326 -0.0316682 0)
(0.906176 -0.0443261 0)
(0.923813 -0.0624453 0)
(0.945547 -0.0884169 0)
(0.970788 -0.125244 0)
(0.99707 -0.175744 0)
(1.01927 -0.240534 0)
(1.05634 0.147674 0)
(1.10875 0.296989 0)
(1.14444 0.345766 0)
(1.15697 0.33359 0)
(1.14823 0.293436 0)
(1.12719 0.244809 0)
(1.10099 0.197618 0)
(1.07436 0.156037 0)
(1.04992 0.12125 0)
(1.0288 0.093039 0)
(1.01129 0.0706282 0)
(0.997188 0.0530906 0)
(0.986079 0.0395309 0)
(0.977486 0.0291568 0)
(0.970941 0.0212981 0)
(0.966021 0.0154031 0)
(0.962367 0.0110257 0)
(0.959683 0.00781011 0)
(0.957731 0.00547567 0)
(0.956322 0.00380301 0)
(0.955311 0.00262223 0)
(0.954589 0.00180267 0)
(0.954072 0.00124445 0)
(0.953701 0.000871552 0)
(0.953432 0.000626061 0)
(0.953237 0.000463544 0)
(0.953099 0.000349261 0)
(0.953011 0.000255067 0)
(0.952972 0.000156805 0)
(0.95299 3.20648e-05 0)
(0.953083 -0.000141882 0)
(0.953275 -0.000390097 0)
(0.9536 -0.000742147 0)
(0.954104 -0.00123462 0)
(0.954848 -0.00191429 0)
(0.955912 -0.00284227 0)
(0.957396 -0.00409979 0)
(0.959429 -0.00579632 0)
(0.962179 -0.0080813 0)
(0.965855 -0.0111613 0)
(0.970721 -0.0153252 0)
(0.977101 -0.0209806 0)
(0.985383 -0.0287068 0)
(0.996 -0.0393253 0)
(1.00937 -0.0539883 0)
(1.02577 -0.0742599 0)
(1.04504 -0.102122 0)
(1.06612 -0.13974 0)
(1.08638 -0.18863 0)
(1.10149 -0.248013 0)
(1.05314 0.126096 0)
(1.09996 0.268674 0)
(1.14206 0.326629 0)
(1.16802 0.327318 0)
(1.17549 0.297419 0)
(1.16989 0.254959 0)
(1.15678 0.21046 0)
(1.14051 0.169236 0)
(1.12392 0.133475 0)
(1.10862 0.103673 0)
(1.09533 0.0794971 0)
(1.08426 0.0602652 0)
(1.07531 0.045201 0)
(1.06823 0.0335543 0)
(1.06275 0.0246553 0)
(1.05856 0.0179313 0)
(1.05541 0.0129069 0)
(1.05306 0.00919528 0)
(1.05133 0.00648646 0)
(1.05006 0.00453547 0)
(1.04914 0.00315065 0)
(1.04847 0.00218345 0)
(1.04799 0.00151949 0)
(1.04763 0.00107111 0)
(1.04737 0.00077108 0)
(1.04718 0.000567393 0)
(1.04705 0.000419039 0)
(1.04696 0.000292437 0)
(1.04694 0.000158449 0)
(1.04698 -1.02402e-05 0)
(1.0471 -0.000241533 0)
(1.04732 -0.000566295 0)
(1.0477 -0.0010209 0)
(1.04827 -0.00165015 0)
(1.04909 -0.00251096 0)
(1.05025 -0.00367701 0)
(1.05184 -0.00524514 0)
(1.054 -0.00734409 0)
(1.05688 -0.0101468 0)
(1.06068 -0.0138873 0)
(1.06563 -0.0188852 0)
(1.07201 -0.0255778 0)
(1.08012 -0.0345639 0)
(1.09026 -0.0466549 0)
(1.10265 -0.0629261 0)
(1.11729 -0.0847362 0)
(1.1337 -0.113648 0)
(1.1506 -0.15112 0)
(1.16547 -0.197767 0)
(1.17482 -0.252135 0)
(1.05091 0.108017 0)
(1.09264 0.240628 0)
(1.1377 0.30278 0)
(1.17287 0.313045 0)
(1.19314 0.29236 0)
(1.20092 0.256579 0)
(1.20003 0.216024 0)
(1.19408 0.17659 0)
(1.18578 0.141185 0)
(1.17692 0.110908 0)
(1.16853 0.085851 0)
(1.16111 0.0656036 0)
(1.15486 0.0495447 0)
(1.14975 0.0370032 0)
(1.14569 0.0273407 0)
(1.14252 0.0199889 0)
(1.14008 0.0144626 0)
(1.13823 0.0103584 0)
(1.13684 0.00734848 0)
(1.13581 0.00517034 0)
(1.13504 0.0036167 0)
(1.13447 0.00252555 0)
(1.13404 0.00177131 0)
(1.13373 0.00125703 0)
(1.13349 0.000907831 0)
(1.13332 0.000665344 0)
(1.1332 0.000483095 0)
(1.13313 0.000322616 0)
(1.13311 0.000150133 0)
(1.13317 -6.63574e-05 0)
(1.13331 -0.000359799 0)
(1.13357 -0.000766756 0)
(1.13398 -0.00133028 0)
(1.13459 -0.00210316 0)
(1.13547 -0.00315197 0)
(1.13668 -0.00456211 0)
(1.13833 -0.00644449 0)
(1.14054 -0.00894451 0)
(1.14345 -0.0122541 0)
(1.14724 -0.0166279 0)
(1.1521 -0.0224048 0)
(1.15825 -0.0300348 0)
(1.1659 -0.0401117 0)
(1.17523 -0.0534052 0)
(1.18629 -0.0708797 0)
(1.19885 -0.0936693 0)
(1.21226 -0.122951 0)
(1.22516 -0.159627 0)
(1.23529 -0.203719 0)
(1.23992 -0.253517 0)
(1.04937 0.0926113 0)
(1.08679 0.213501 0)
(1.13281 0.276127 0)
(1.17413 0.292912 0)
(1.20424 0.279952 0)
(1.22325 0.250708 0)
(1.23332 0.214773 0)
(1.23714 0.178162 0)
(1.23707 0.144209 0)
(1.23486 0.114462 0)
(1.2317 0.0893784 0)
(1.22833 0.0688084 0)
(1.22513 0.0523001 0)
(1.22231 0.0392839 0)
(1.21994 0.0291766 0)
(1.218 0.0214358 0)
(1.21645 0.0155843 0)
(1.21524 0.0112173 0)
(1.21429 0.00800018 0)
(1.21357 0.00566216 0)
(1.21301 0.00398715 0)
(1.21258 0.00280499 0)
(1.21225 0.00198278 0)
(1.21199 0.00141724 0)
(1.21179 0.00102799 0)
(1.21164 0.000751867 0)
(1.21154 0.00053808 0)
(1.21149 0.000344085 0)
(1.21149 0.000132059 0)
(1.21156 -0.000134256 0)
(1.21172 -0.000492497 0)
(1.212 -0.000984591 0)
(1.21243 -0.00165986 0)
(1.21307 -0.00257854 0)
(1.21396 -0.003816 0)
(1.21519 -0.00546802 0)
(1.21685 -0.00765752 0)
(1.21903 -0.0105433 0)
(1.22188 -0.0143313 0)
(1.22553 -0.0192892 0)
(1.23013 -0.0257643 0)
(1.23586 -0.0342044 0)
(1.24283 -0.045179 0)
(1.2511 -0.0593946 0)
(1.26059 -0.0776882 0)
(1.27092 -0.100974 0)
(1.28134 -0.130096 0)
(1.29053 -0.165541 0)
(1.29654 -0.206962 0)
(1.29723 -0.252616 0)
(1.04831 0.079224 0)
(1.08221 0.187522 0)
(1.1281 0.247901 0)
(1.17344 0.268566 0)
(1.21098 0.261705 0)
(1.23918 0.238453 0)
(1.25876 0.207376 0)
(1.2715 0.174268 0)
(1.27923 0.142621 0)
(1.28357 0.114265 0)
(1.28572 0.0899371 0)
(1.28653 0.0697122 0)
(1.28659 0.0533019 0)
(1.28625 0.0402475 0)
(1.28573 0.0300362 0)
(1.28517 0.0221681 0)
(1.28464 0.0161894 0)
(1.28415 0.0117073 0)
(1.28373 0.00839215 0)
(1.28337 0.00597364 0)
(1.28306 0.00423429 0)
(1.28281 0.00300139 0)
(1.28259 0.00213912 0)
(1.28241 0.00154118 0)
(1.28227 0.00112423 0)
(1.28215 0.000822156 0)
(1.28207 0.000581243 0)
(1.28204 0.000355908 0)
(1.28205 0.000105066 0)
(1.28213 -0.000211173 0)
(1.28231 -0.000634593 0)
(1.28259 -0.00121194 0)
(1.28304 -0.00199818 0)
(1.28367 -0.00306016 0)
(1.28456 -0.0044809 0)
(1.28577 -0.00636487 0)
(1.28737 -0.00884452 0)
(1.28946 -0.0120885 0)
(1.29215 -0.0163116 0)
(1.29555 -0.0217874 0)
(1.29977 -0.028862 0)
(1.30492 -0.0379686 0)
(1.31103 -0.0496387 0)
(1.31808 -0.0645029 0)
(1.32586 -0.0832678 0)
(1.33392 -0.106646 0)
(1.34147 -0.13521 0)
(1.34727 -0.169144 0)
(1.3497 -0.207891 0)
(1.34709 -0.249787 0)
(1.04758 0.0673544 0)
(1.07866 0.162697 0)
(1.12389 0.218873 0)
(1.17178 0.241231 0)
(1.21486 0.238893 0)
(1.25044 0.220878 0)
(1.27809 0.194599 0)
(1.29871 0.165386 0)
(1.31361 0.136674 0)
(1.32412 0.110416 0)
(1.33141 0.087531 0)
(1.33637 0.0682667 0)
(1.3397 0.0524789 0)
(1.3419 0.0398171 0)
(1.34332 0.0298468 0)
(1.34422 0.0221215 0)
(1.34476 0.0162239 0)
(1.34506 0.0117848 0)
(1.3452 0.00848969 0)
(1.34525 0.00607782 0)
(1.34523 0.00433746 0)
(1.34517 0.00309919 0)
(1.34509 0.00222881 0)
(1.345 0.00162053 0)
(1.34491 0.00119072 0)
(1.34484 0.000872449 0)
(1.34479 0.000610603 0)
(1.34477 0.000357774 0)
(1.3448 7.05521e-05 0)
(1.34489 -0.000293804 0)
(1.34507 -0.000780518 0)
(1.34535 -0.00144044 0)
(1.34578 -0.00233337 0)
(1.3464 -0.00353171 0)
(1.34725 -0.00512477 0)
(1.3484 -0.00722381 0)
(1.3499 -0.00996819 0)
(1.35184 -0.0135327 0)
(1.35429 -0.0181362 0)
(1.35735 -0.0240516 0)
(1.36107 -0.0316158 0)
(1.36551 -0.041238 0)
(1.37064 -0.0534031 0)
(1.37636 -0.068661 0)
(1.38238 -0.0875929 0)
(1.38822 -0.110736 0)
(1.39307 -0.138447 0)
(1.39583 -0.170701 0)
(1.39515 -0.206833 0)
(1.38972 -0.245312 0)
(1.04707 0.0566245 0)
(1.07593 0.138931 0)
(1.1203 0.189509 0)
(1.16975 0.2118 0)
(1.21691 0.212559 0)
(1.25832 0.198956 0)
(1.29268 0.177225 0)
(1.32008 0.152087 0)
(1.34134 0.126749 0)
(1.35749 0.103148 0)
(1.36956 0.0822861 0)
(1.37847 0.0645291 0)
(1.38496 0.049846 0)
(1.38964 0.0379845 0)
(1.39298 0.0285886 0)
(1.39533 0.0212726 0)
(1.39696 0.0156644 0)
(1.39806 0.0114283 0)
(1.39879 0.00827429 0)
(1.39925 0.00595933 0)
(1.39953 0.00428429 0)
(1.39968 0.00308863 0)
(1.39974 0.00224432 0)
(1.39975 0.00164965 0)
(1.39973 0.00122352 0)
(1.39971 0.000900261 0)
(1.39968 0.000625072 0)
(1.39968 0.000350007 0)
(1.39972 3.03837e-05 0)
(1.39982 -0.000378499 0)
(1.39999 -0.000924487 0)
(1.40027 -0.00166169 0)
(1.40067 -0.00265376 0)
(1.40125 -0.00397751 0)
(1.40204 -0.005727 0)
(1.40308 -0.0080183 0)
(1.40444 -0.010995 0)
(1.40617 -0.0148346 0)
(1.40832 -0.0197555 0)
(1.41096 -0.0260246 0)
(1.4141 -0.0339631 0)
(1.41775 -0.0439503 0)
(1.42183 -0.0564194 0)
(1.42616 -0.0718405 0)
(1.43044 -0.0906802 0)
(1.43413 -0.113328 0)
(1.4365 -0.139975 0)
(1.43655 -0.170456 0)
(1.43317 -0.204065 0)
(1.42534 -0.239422 0)
(1.04671 0.0467492 0)
(1.07385 0.116079 0)
(1.11733 0.160075 0)
(1.16771 0.180914 0)
(1.21784 0.183542 0)
(1.26379 0.173543 0)
(1.30358 0.156014 0)
(1.33668 0.134984 0)
(1.36342 0.113305 0)
(1.38453 0.0927863 0)
(1.4009 0.0744257 0)
(1.4134 0.0586455 0)
(1.42281 0.0454951 0)
(1.42982 0.0348047 0)
(1.43497 0.0262928 0)
(1.4387 0.019637 0)
(1.44138 0.0145172 0)
(1.44326 0.0106389 0)
(1.44456 0.00774427 0)
(1.44543 0.00561511 0)
(1.44601 0.00407121 0)
(1.44636 0.00296622 0)
(1.44657 0.00218254 0)
(1.44668 0.00162601 0)
(1.44673 0.00122075 0)
(1.44675 0.000904524 0)
(1.44675 0.000624504 0)
(1.44677 0.000333545 0)
(1.44682 -1.32088e-05 0)
(1.44691 -0.000461462 0)
(1.44708 -0.00106078 0)
(1.44733 -0.00186759 0)
(1.4477 -0.00294838 0)
(1.44821 -0.00438309 0)
(1.44891 -0.00626897 0)
(1.44983 -0.0087249 0)
(1.451 -0.0118962 0)
(1.45247 -0.0159598 0)
(1.45428 -0.0211301 0)
(1.45643 -0.0276631 0)
(1.45894 -0.0358602 0)
(1.46174 -0.0460668 0)
(1.46473 -0.0586636 0)
(1.46769 -0.0740448 0)
(1.47026 -0.0925759 0)
(1.47195 -0.114525 0)
(1.47204 -0.139961 0)
(1.46969 -0.168629 0)
(1.46397 -0.199822 0)
(1.45409 -0.232314 0)
(1.04645 0.0375116 0)
(1.07229 0.0939865 0)
(1.11495 0.13071 0)
(1.16585 0.149031 0)
(1.21812 0.152509 0)
(1.26753 0.145383 0)
(1.31162 0.13168 0)
(1.34936 0.114698 0)
(1.38065 0.096852 0)
(1.40597 0.0797302 0)
(1.42604 0.0642495 0)
(1.44168 0.0508355 0)
(1.45368 0.0395839 0)
(1.46276 0.0303888 0)
(1.46953 0.0230364 0)
(1.47453 0.0172676 0)
(1.47816 0.0128179 0)
(1.48075 0.00943988 0)
(1.48258 0.0069144 0)
(1.48384 0.00505424 0)
(1.48469 0.00370353 0)
(1.48524 0.00273483 0)
(1.48559 0.00204487 0)
(1.48579 0.0015502 0)
(1.48591 0.00118272 0)
(1.48597 0.000885628 0)
(1.486 0.000609692 0)
(1.48604 0.000309876 0)
(1.48609 -5.77545e-05 0)
(1.48618 -0.00053893 0)
(1.48632 -0.001184 0)
(1.48654 -0.00205075 0)
(1.48686 -0.00320739 0)
(1.4873 -0.00473574 0)
(1.48789 -0.00673469 0)
(1.48865 -0.00932398 0)
(1.48961 -0.0126483 0)
(1.49079 -0.0168816 0)
(1.4922 -0.0222304 0)
(1.49384 -0.0289373 0)
(1.49567 -0.0372806 0)
(1.4976 -0.0475701 0)
(1.4995 -0.0601354 0)
(1.50111 -0.0753011 0)
(1.50207 -0.0933463 0)
(1.50189 -0.114442 0)
(1.49994 -0.138568 0)
(1.49547 -0.165416 0)
(1.48773 -0.194307 0)
(1.47608 -0.224155 0)
(1.04628 0.0287435 0)
(1.07114 0.0725 0)
(1.11312 0.101473 0)
(1.1643 0.116476 0)
(1.21806 0.119992 0)
(1.27003 0.115116 0)
(1.31741 0.104882 0)
(1.35877 0.0918447 0)
(1.3937 0.0779261 0)
(1.42242 0.064424 0)
(1.44553 0.0521137 0)
(1.46376 0.0413771 0)
(1.47792 0.0323245 0)
(1.48874 0.024896 0)
(1.4969 0.0189368 0)
(1.50297 0.0142496 0)
(1.50742 0.0106275 0)
(1.51063 0.00787446 0)
(1.51292 0.00581482 0)
(1.51451 0.0042973 0)
(1.51561 0.00319505 0)
(1.51633 0.00240348 0)
(1.5168 0.00183709 0)
(1.51709 0.0014259 0)
(1.51727 0.00111183 0)
(1.51737 0.000845355 0)
(1.51743 0.000582294 0)
(1.51747 0.000280939 0)
(1.51752 -0.000100673 0)
(1.5176 -0.000607352 0)
(1.51772 -0.0012893 0)
(1.5179 -0.0022047 0)
(1.51816 -0.00342242 0)
(1.51851 -0.00502489 0)
(1.51897 -0.00711115 0)
(1.51956 -0.00980011 0)
(1.52028 -0.0132338 0)
(1.52114 -0.0175805 0)
(1.52214 -0.0230371 0)
(1.52324 -0.0298299 0)
(1.52438 -0.0382127 0)
(1.52544 -0.04846 0)
(1.52627 -0.0608528 0)
(1.52658 -0.0756543 0)
(1.52604 -0.0930706 0)
(1.52417 -0.113197 0)
(1.52039 -0.135951 0)
(1.51406 -0.160997 0)
(1.50457 -0.187697 0)
(1.49142 -0.215094 0)
(1.04616 0.0203109 0)
(1.07033 0.0514725 0)
(1.11179 0.0723723 0)
(1.1631 0.0834788 0)
(1.21788 0.0864202 0)
(1.27165 0.0832991 0)
(1.32139 0.0762277 0)
(1.36542 0.0670223 0)
(1.40306 0.0570746 0)
(1.43435 0.0473438 0)
(1.45977 0.0384166 0)
(1.48001 0.0305933 0)
(1.49583 0.0239726 0)
(1.50802 0.0185245 0)
(1.51727 0.0141452 0)
(1.52418 0.0106963 0)
(1.52928 0.00802975 0)
(1.53298 0.00600352 0)
(1.53563 0.00448911 0)
(1.5375 0.00337506 0)
(1.53879 0.00256709 0)
(1.53966 0.00198673 0)
(1.54023 0.00156896 0)
(1.54059 0.00125957 0)
(1.54081 0.00101241 0)
(1.54094 0.000786732 0)
(1.54102 0.000544698 0)
(1.54108 0.000248999 0)
(1.54113 -0.000139416 0)
(1.54119 -0.00066355 0)
(1.54128 -0.00137259 0)
(1.54142 -0.00232417 0)
(1.5416 -0.0035868 0)
(1.54185 -0.00524234 0)
(1.54218 -0.00738864 0)
(1.54257 -0.0101422 0)
(1.54304 -0.0136406 0)
(1.54358 -0.0180448 0)
(1.54415 -0.02354 0)
(1.5447 -0.0303349 0)
(1.54515 -0.0386584 0)
(1.54537 -0.0487507 0)
(1.54516 -0.0608488 0)
(1.54427 -0.0751618 0)
(1.54234 -0.0918361 0)
(1.53893 -0.110909 0)
(1.53353 -0.132256 0)
(1.5256 -0.155535 0)
(1.51461 -0.180152 0)
(1.50019 -0.205267 0)
(1.04609 0.0121033 0)
(1.06981 0.0307655 0)
(1.11093 0.0433866 0)
(1.16229 0.0502055 0)
(1.21769 0.052144 0)
(1.27261 0.0504212 0)
(1.32389 0.0462813 0)
(1.36966 0.0408097 0)
(1.4091 0.0348483 0)
(1.44212 0.0289851 0)
(1.46909 0.0235852 0)
(1.49069 0.0188399 0)
(1.50766 0.0148166 0)
(1.52078 0.0115028 0)
(1.53077 0.00883897 0)
(1.53827 0.00674316 0)
(1.54382 0.00512638 0)
(1.54786 0.00390224 0)
(1.55077 0.00299201 0)
(1.55283 0.00232671 0)
(1.55426 0.00184729 0)
(1.55523 0.00150373 0)
(1.55587 0.00125355 0)
(1.55629 0.00106002 0)
(1.55655 0.000890353 0)
(1.5567 0.000713793 0)
(1.5568 0.000499847 0)
(1.55685 0.00021649 0)
(1.5569 -0.000171607 0)
(1.55694 -0.000704863 0)
(1.557 -0.00143065 0)
(1.55708 -0.00240521 0)
(1.5572 -0.00369574 0)
(1.55734 -0.00538245 0)
(1.55752 -0.0075608 0)
(1.55772 -0.0103435 0)
(1.55793 -0.0138624 0)
(1.55813 -0.0182695 0)
(1.55827 -0.0237372 0)
(1.55828 -0.0304562 0)
(1.55806 -0.0386305 0)
(1.55747 -0.0484685 0)
(1.5563 -0.0601671 0)
(1.55429 -0.0738897 0)
(1.55109 -0.0897345 0)
(1.54632 -0.107696 0)
(1.53951 -0.127622 0)
(1.53019 -0.149175 0)
(1.51794 -0.171813 0)
(1.50245 -0.194796 0)
(1.04605 0.00402509 0)
(1.06957 0.0102478 0)
(1.1105 0.0144755 0)
(1.16189 0.0167818 0)
(1.21758 0.017465 0)
(1.27306 0.016925 0)
(1.32509 0.0155728 0)
(1.37174 0.0137697 0)
(1.41207 0.0117976 0)
(1.44595 0.00985473 0)
(1.47371 0.00806529 0)
(1.49599 0.00649505 0)
(1.51354 0.00516808 0)
(1.52714 0.00408113 0)
(1.53751 0.00321488 0)
(1.54531 0.00254198 0)
(1.5511 0.00203237 0)
(1.55532 0.00165638 0)
(1.55837 0.00138647 0)
(1.56052 0.00119777 0)
(1.56203 0.00106802 0)
(1.56306 0.000977135 0)
(1.56374 0.000906437 0)
(1.56419 0.00083781 0)
(1.56447 0.000752736 0)
(1.56464 0.000631281 0)
(1.56474 0.000451012 0)
(1.5648 0.000185847 0)
(1.56484 -0.000195183 0)
(1.56486 -0.000729269 0)
(1.56488 -0.00146128 0)
(1.56491 -0.00244531 0)
(1.56495 -0.00374639 0)
(1.56498 -0.00544215 0)
(1.56501 -0.0076246 0)
(1.56501 -0.0104016 0)
(1.56497 -0.013898 0)
(1.56483 -0.0182561 0)
(1.56455 -0.0236347 0)
(1.56405 -0.0302063 0)
(1.56319 -0.0381513 0)
(1.56184 -0.0476484 0)
(1.55978 -0.0588598 0)
(1.55675 -0.07191 0)
(1.55243 -0.0868593 0)
(1.54646 -0.103671 0)
(1.53842 -0.122178 0)
(1.52793 -0.142056 0)
(1.51462 -0.162811 0)
(1.49826 -0.183794 0)
(1.04605 -0.00401095 0)
(1.06957 -0.0102076 0)
(1.1105 -0.01441 0)
(1.16189 -0.0166901 0)
(1.21758 -0.0173455 0)
(1.27306 -0.0167748 0)
(1.3251 -0.0153881 0)
(1.37174 -0.0135457 0)
(1.41208 -0.0115288 0)
(1.44596 -0.00953466 0)
(1.47373 -0.00768666 0)
(1.49601 -0.00604994 0)
(1.51356 -0.00464803 0)
(1.52717 -0.00347742 0)
(1.53754 -0.0025189 0)
(1.54535 -0.00174574 0)
(1.55114 -0.00112916 0)
(1.55538 -0.000641751 0)
(1.55843 -0.000259412 0)
(1.5606 3.76643e-05 0)
(1.56211 0.000264605 0)
(1.56315 0.000431767 0)
(1.56384 0.000544778 0)
(1.5643 0.000604565 0)
(1.56459 0.000607318 0)
(1.56477 0.000544306 0)
(1.56487 0.000401553 0)
(1.56492 0.000159331 0)
(1.56494 -0.000208526 0)
(1.56494 -0.000735483 0)
(1.56493 -0.00146334 0)
(1.56491 -0.00244343 0)
(1.56486 -0.00373787 0)
(1.56478 -0.00542093 0)
(1.56466 -0.00758029 0)
(1.56448 -0.0103181 0)
(1.56418 -0.0137514 0)
(1.56373 -0.018012 0)
(1.56305 -0.0232451 0)
(1.56205 -0.0296052 0)
(1.5606 -0.0372505 0)
(1.55855 -0.0463332 0)
(1.55568 -0.0569849 0)
(1.55174 -0.0692985 0)
(1.54644 -0.0833044 0)
(1.53943 -0.0989444 0)
(1.53036 -0.116046 0)
(1.51889 -0.134302 0)
(1.50472 -0.153267 0)
(1.48766 -0.172371 0)
(1.04609 -0.0120894 0)
(1.06982 -0.0307259 0)
(1.11093 -0.0433219 0)
(1.1623 -0.0501151 0)
(1.2177 -0.052026 0)
(1.27262 -0.0502727 0)
(1.32391 -0.0460988 0)
(1.36969 -0.0405883 0)
(1.40913 -0.0345826 0)
(1.44215 -0.0286686 0)
(1.46914 -0.0232108 0)
(1.49074 -0.0183996 0)
(1.50773 -0.0143022 0)
(1.52086 -0.0109055 0)
(1.53087 -0.0081503 0)
(1.53839 -0.00595513 0)
(1.54396 -0.00423231 0)
(1.54803 -0.00289764 0)
(1.55096 -0.00187581 0)
(1.55304 -0.00110281 0)
(1.5545 -0.000526613 0)
(1.5555 -0.000106801 0)
(1.55617 0.000186237 0)
(1.55661 0.000372257 0)
(1.5569 0.000462023 0)
(1.55707 0.000457979 0)
(1.55716 0.000354665 0)
(1.55721 0.000138856 0)
(1.55722 -0.000210572 0)
(1.5572 -0.00072303 0)
(1.55715 -0.00143684 0)
(1.55707 -0.00240002 0)
(1.55695 -0.00367123 0)
(1.55677 -0.00532071 0)
(1.55651 -0.00743113 0)
(1.55613 -0.0100982 0)
(1.5556 -0.0134307 0)
(1.55485 -0.0175496 0)
(1.5538 -0.0225864 0)
(1.55234 -0.0286787 0)
(1.55036 -0.0359641 0)
(1.54767 -0.0445708 0)
(1.54409 -0.0546048 0)
(1.53935 -0.066133 0)
(1.5332 -0.0791632 0)
(1.52531 -0.0936234 0)
(1.51538 -0.109341 0)
(1.50311 -0.126031 0)
(1.48826 -0.143292 0)
(1.47068 -0.160626 0)
(1.04616 -0.0202974 0)
(1.07033 -0.051434 0)
(1.1118 -0.0723093 0)
(1.16311 -0.0833907 0)
(1.21789 -0.086305 0)
(1.27167 -0.0831543 0)
(1.32142 -0.0760494 0)
(1.36545 -0.0668061 0)
(1.40311 -0.056815 0)
(1.43441 -0.0470344 0)
(1.45985 -0.0380505 0)
(1.4801 -0.0301627 0)
(1.49595 -0.0234693 0)
(1.50816 -0.0179399 0)
(1.51743 -0.013471 0)
(1.52438 -0.00992452 0)
(1.52951 -0.00715383 0)
(1.53325 -0.00501887 0)
(1.53594 -0.00339451 0)
(1.53785 -0.00217411 0)
(1.53919 -0.00127022 0)
(1.5401 -0.000613691 0)
(1.54072 -0.000152042 0)
(1.54113 0.000152431 0)
(1.54139 0.000324408 0)
(1.54155 0.000377049 0)
(1.54163 0.000313136 0)
(1.54167 0.000125833 0)
(1.54166 -0.000200907 0)
(1.54162 -0.000692281 0)
(1.54154 -0.00138285 0)
(1.54141 -0.00231696 0)
(1.54121 -0.00354935 0)
(1.54093 -0.0051457 0)
(1.54054 -0.00718318 0)
(1.54 -0.00975058 0)
(1.53924 -0.012948 0)
(1.53822 -0.0168858 0)
(1.53683 -0.0216819 0)
(1.53497 -0.0274579 0)
(1.53251 -0.0343326 0)
(1.52927 -0.0424135 0)
(1.52506 -0.0517847 0)
(1.51965 -0.0624922 0)
(1.51278 -0.0745275 0)
(1.50417 -0.0878105 0)
(1.49355 -0.102174 0)
(1.48066 -0.117355 0)
(1.4653 -0.132995 0)
(1.44735 -0.148658 0)
(1.04628 -0.0287306 0)
(1.07114 -0.0724632 0)
(1.11313 -0.101412 0)
(1.16431 -0.116392 0)
(1.21808 -0.119882 0)
(1.27006 -0.114977 0)
(1.31744 -0.10471 0)
(1.35882 -0.091636 0)
(1.39376 -0.0776754 0)
(1.42251 -0.0641251 0)
(1.44563 -0.0517599 0)
(1.46389 -0.0409608 0)
(1.47808 -0.0318377 0)
(1.48893 -0.0243303 0)
(1.49713 -0.0182841 0)
(1.50324 -0.0135019 0)
(1.50774 -0.00977845 0)
(1.511 -0.00691939 0)
(1.51334 -0.00475228 0)
(1.515 -0.00313048 0)
(1.51616 -0.00193364 0)
(1.51695 -0.00106613 0)
(1.51749 -0.000454462 0)
(1.51784 -4.45061e-05 0)
(1.51807 0.000201166 0)
(1.5182 0.000305567 0)
(1.51827 0.000279129 0)
(1.5183 0.000121045 0)
(1.51828 -0.000179825 0)
(1.51821 -0.000644461 0)
(1.5181 -0.00130353 0)
(1.51792 -0.00219747 0)
(1.51767 -0.00337676 0)
(1.5173 -0.00490217 0)
(1.51679 -0.006845 0)
(1.51609 -0.00928686 0)
(1.51514 -0.0123191 0)
(1.51387 -0.0160413 0)
(1.51219 -0.0205586 0)
(1.50998 -0.0259777 0)
(1.5071 -0.0324006 0)
(1.50339 -0.0399165 0)
(1.49865 -0.0485914 0)
(1.49268 -0.058455 0)
(1.48523 -0.0694874 0)
(1.47605 -0.0816048 0)
(1.46489 -0.0946482 0)
(1.45155 -0.108378 0)
(1.43585 -0.122476 0)
(1.41769 -0.136561 0)
(1.04645 -0.0374995 0)
(1.07229 -0.0939518 0)
(1.11496 -0.130652 0)
(1.16587 -0.148951 0)
(1.21814 -0.152404 0)
(1.26756 -0.14525 0)
(1.31166 -0.131516 0)
(1.34942 -0.114499 0)
(1.38074 -0.0966129 0)
(1.40608 -0.079445 0)
(1.42617 -0.0639116 0)
(1.44184 -0.0504378 0)
(1.45387 -0.0391185 0)
(1.46299 -0.0298478 0)
(1.46982 -0.0224116 0)
(1.47486 -0.0165515 0)
(1.47855 -0.012004 0)
(1.48121 -0.00852361 0)
(1.48311 -0.00589401 0)
(1.48445 -0.00393234 0)
(1.48538 -0.00248893 0)
(1.48602 -0.00144474 0)
(1.48645 -0.0007079 0)
(1.48674 -0.000209939 0)
(1.48692 9.7679e-05 0)
(1.48703 0.000246595 0)
(1.48709 0.000254007 0)
(1.4871 0.000124552 0)
(1.48706 -0.00014835 0)
(1.48698 -0.000581619 0)
(1.48684 -0.00120202 0)
(1.48663 -0.00204597 0)
(1.48631 -0.00315948 0)
(1.48587 -0.0045982 0)
(1.48526 -0.00642729 0)
(1.48443 -0.00872109 0)
(1.48331 -0.0115622 0)
(1.48183 -0.0150397 0)
(1.4799 -0.0192467 0)
(1.47739 -0.0242762 0)
(1.47416 -0.0302151 0)
(1.47007 -0.037137 0)
(1.46491 -0.0450929 0)
(1.45849 -0.0541002 0)
(1.45059 -0.0641312 0)
(1.44098 -0.0751021 0)
(1.42945 -0.0868646 0)
(1.41582 -0.0992024 0)
(1.39993 -0.111834 0)
(1.38172 -0.124427 0)
(1.04671 -0.0467381 0)
(1.07386 -0.116047 0)
(1.11734 -0.160021 0)
(1.16772 -0.180839 0)
(1.21787 -0.183443 0)
(1.26383 -0.173419 0)
(1.30363 -0.15586 0)
(1.33676 -0.134797 0)
(1.36352 -0.11308 0)
(1.38465 -0.0925178 0)
(1.40105 -0.0741073 0)
(1.41359 -0.0582703 0)
(1.42304 -0.0450558 0)
(1.4301 -0.0342936 0)
(1.4353 -0.0257021 0)
(1.4391 -0.0189595 0)
(1.44184 -0.0137464 0)
(1.4438 -0.00977011 0)