/*--------------------------------*- C++ -*----------------------------------*\
  =========                 |
  \\      /  F ield         | OpenFOAM: The Open Source CFD Toolbox
   \\    /   O peration     | Website:  https://openfoam.org
    \\  /    A nd           | Version:  6
     \\/     M anipulation  |
\*---------------------------------------------------------------------------*/
FoamFile
{
    version     2.0;
    format      ascii;
    class       volScalarField;
    location    "0";
    object      p;
}
// * * * * * * * * * * * * * * * * * * * * * * * * * * * * * * * * * * * * * //

dimensions      [0 2 -2 0 0 0 0];

internalField   nonuniform List<scalar> 
13046
(
0.461751
0.343711
0.3881
0.447513
0.416723
0.344914
0.443204
0.338559
0.418916
0.479964
0.0180898
0.319979
0.471519
0.29023
0.385231
0.50217
0.295256
0.0716228
0.449218
0.373888
0.40613
0.495873
0.307986
0.0623442
0.451982
0.371527
0.394573
0.471124
0.293195
0.377034
0.47696
0.327036
0.371138
0.445826
0.40482
0.376559
0.436389
0.414975
0.38655
0.473629
0.331795
0.354534
0.413104
0.424978
0.404916
0.421752
0.422082
0.391256
0.456609
0.33419
0.393379
0.258533
0.477185
0.351614
0.254195
0.357871
0.469654
0.196411
0.511898
0.274244
0.447905
0.219505
0.406054
0.339675
0.104963
0.485096
0.513988
0.211399
0.263292
0.512518
0.225015
0.267172
0.175484
0.517221
0.271252
0.453321
0.377375
0.396032
0.285843
0.509195
0.152827
0.450967
0.35952
0.397667
0.334189
0.0853812
0.484507
0.447517
0.377628
0.0927216
0.403002
0.403254
0.0555563
0.486881
0.479308
0.207118
0.190223
0.3577
0.363616
0.391329
0.434977
0.0973146
0.428115
0.426825
0.3776
0.455956
0.3861
0.283601
0.467559
0.296981
0.364492
0.463586
0.312681
-0.0448261
0.470989
0.306531
0.384428
0.496489
0.492628
0.184363
0.334192
0.206739
0.342208
0.47871
0.00443914
0.314497
0.481834
0.243744
0.370511
0.478617
0.33587
0.342336
0.410681
0.403303
0.0741323
0.474428
0.150841
0.365839
0.484095
0.310905
0.365733
0.439197
0.293462
0.422375
0.465192
0.279399
0.371062
0.454547
0.395752
0.298145
0.455914
0.199503
0.399602
0.449134
0.409829
0.326347
0.220806
0.380049
0.204218
0.38929
0.454646
0.447765
0.422977
0.26878
0.439871
0.466023
0.33756
0.0109497
0.474595
0.30955
-0.0277992
0.476972
0.141701
0.357339
0.492545
0.309078
0.31296
0.417928
0.443448
0.280879
0.354976
0.0306807
0.450229
0.487552
0.32502
0.312643
0.45041
0.402582
0.313224
0.439582
0.301484
0.422181
0.269736
0.394036
0.479925
0.258677
0.370759
0.466286
0.356729
0.0764462
0.407772
0.417376
0.0975864
0.425656
0.0559363
0.391428
0.230446
0.33115
0.47987
0.453962
0.509217
0.268674
0.161005
0.0416877
0.427802
0.384961
0.431342
0.421829
0.377942
0.475782
0.304695
0.36963
0.416387
0.404303
0.0934664
0.457835
0.276349
0.404728
0.337165
-0.023591
0.453917
0.473613
0.34053
0.218326
0.426269
0.0797688
0.396469
0.400054
0.240156
0.44719
0.485047
0.247894
0.363006
0.120193
0.384286
0.433197
0.386873
0.179221
0.443269
0.342486
-0.0312971
0.445378
0.479419
0.303109
0.341627
0.486696
0.294437
-0.052038
0.438544
0.420747
0.363894
0.429899
0.411675
0.238063
0.25546
0.440736
0.423619
0.272922
0.51529
0.132009
0.490159
0.264185
0.353439
0.389025
0.158821
0.440936
0.486338
0.166667
0.348759
0.420049
0.402919
0.418471
0.402204
0.211722
0.442339
0.494798
0.256918
0.34172
0.466198
0.470342
0.485062
0.289582
0.330315
0.410766
0.196499
0.433801
0.482065
0.350253
0.150281
0.475761
0.310717
0.360211
0.46242
0.364933
0.206967
0.504179
0.207191
0.315488
0.484247
0.264595
0.339088
0.504763
0.498885
0.191758
0.312987
0.182391
0.322546
0.349604
0.0440408
0.459558
0.489691
0.226375
0.344339
-0.0863294
0.31485
0.446894
0.414526
0.448321
0.3281
0.451557
0.239391
0.405529
0.362243
0.466882
0.100022
0.23848
0.353255
0.468086
0.108173
0.390355
0.428442
0.303057
0.404246
0.466537
0.234087
0.389839
0.29321
0.415811
0.506453
0.296104
0.0892963
0.23194
0.314801
0.487921
0.468702
0.21712
0.382388
0.42486
0.28174
0.434412
0.374907
0.272224
0.46498
0.457196
0.337305
0.4014
0.464509
0.360665
0.211681
0.451341
0.0673186
0.369766
0.117476
0.399095
0.423369
0.505373
0.264303
0.257013
0.512609
0.509984
0.18248
0.164843
0.288272
0.295851
0.306037
-0.0733189
0.462543
0.489338
0.293661
-0.041259
0.434821
0.22083
0.418059
0.347067
0.471372
0.0633658
0.504198
0.507067
0.232762
0.21806
0.298672
0.297893
0.377017
0.00464652
0.422134
0.485188
0.285791
-0.0592026
0.396431
0.443552
0.391126
0.473771
-0.0530902
0.301475
0.496238
0.295278
0.314125
0.445037
0.0324343
0.362446
-0.0825717
0.322578
0.42215
0.466611
0.33632
0.370156
0.42589
0.36296
0.430013
0.48193
0.313658
0.00317555
0.421473
0.347643
0.43324
0.401916
0.436156
0.399993
0.474183
0.337498
0.208613
0.398953
0.364899
0.447241
0.409947
0.333402
0.452479
0.502259
0.270691
0.26082
0.317611
0.329447
0.0524789
0.0444225
0.483509
0.476581
0.444566
0.0516427
0.370657
0.263406
0.508218
0.240876
0.481005
0.305131
0.340331
0.373376
0.164816
0.449756
-0.0670729
0.34273
0.415584
0.399714
0.40881
0.0467362
0.47027
0.31817
-0.0168102
0.31624
-0.0883626
0.426887
-0.100002
0.30679
0.450132
0.177364
0.437105
0.408293
-0.0329417
0.365416
0.418179
0.464752
0.139622
0.374066
0.510434
0.272631
0.0406896
0.45932
0.398468
0.316616
0.0184622
0.383967
0.41866
0.366429
0.45554
0.176335
0.157687
0.397301
0.434821
0.308068
-0.126509
0.408074
-0.0750024
0.319534
0.43357
0.456999
0.407201
0.32657
0.00577889
0.432701
0.369888
0.381128
0.410583
-0.00963715
0.476203
0.341484
0.0688451
0.294551
0.124991
0.504945
0.500823
0.274234
0.254927
0.198376
0.508164
0.29545
0.274278
0.513921
0.0960655
0.490189
0.496295
0.290371
0.269927
0.338237
0.338396
0.490837
0.301737
0.330862
0.505274
0.234438
0.290643
0.132779
0.40381
0.423711
0.0445418
0.431334
0.38075
0.408908
0.422707
0.11985
-0.0995987
0.304569
0.458424
0.473185
0.469349
0.359705
0.349914
0.371133
0.350016
0.504542
0.496146
0.295891
0.260434
0.29576
0.283021
-0.0905734
0.336094
0.408996
0.0158047
0.434963
0.37225
0.488726
0.274997
0.320767
0.139455
0.38286
0.438581
0.291425
0.137672
0.506737
-0.0523175
0.448153
0.326392
-0.044127
0.444186
0.334249
0.501293
0.22189
0.31647
0.471954
0.310816
0.372151
0.479687
0.331573
0.051952
0.166031
0.424782
0.414207
0.34218
0.128051
0.486298
0.492618
0.294236
0.292693
0.394309
0.249029
0.452167
0.475546
0.319153
0.352331
0.337591
0.0364065
0.469615
0.49259
0.16741
0.335921
0.467875
0.350874
0.367326
0.513147
0.267714
0.0771372
0.478174
0.318147
0.358114
0.427316
0.311286
0.437008
0.17488
0.411769
0.426192
0.500204
0.280846
-0.00643357
0.504472
0.274722
0.00475816
0.330815
0.127871
0.492198
0.384728
0.24085
0.454728
0.275525
-0.026295
0.495571
0.368854
0.115439
0.464532
0.322668
-0.103306
0.408241
0.445118
-0.100831
0.29774
0.287866
0.100912
0.508776
0.342575
-0.001411
0.457071
0.498088
0.494148
0.309849
0.0683495
0.320103
0.0865274
0.453151
0.114262
0.379747
0.450537
0.153719
0.366888
0.466499
0.384056
0.352248
0.436011
0.126505
0.399249
0.406782
0.428969
0.13538
0.518018
0.267933
0.110953
0.505861
0.250672
0.287097
0.5007
0.280954
0.306491
0.447547
0.186185
0.39868
0.440402
0.172408
0.404044
0.465607
0.352444
0.37786
0.49643
0.263672
0.332573
0.399733
0.0147583
0.402894
0.42722
0.348057
-0.0532521
0.422211
0.34711
-0.0551289
0.482408
0.331341
0.328853
-0.0667467
0.327714
0.437832
0.496257
0.327738
0.145252
0.335073
-0.0685943
0.419516
0.439594
0.424139
0.355193
0.475195
0.254097
0.38193
0.249674
0.373484
0.463278
0.371029
-0.0238617
0.421336
0.16036
0.416852
0.422293
0.275959
0.511221
0.0615372
0.470726
0.242067
0.383015
0.460051
0.391906
0.361646
-0.00923702
0.431951
0.363481
0.35504
0.112598
0.473086
0.490287
0.485263
0.299978
0.301602
-0.0121354
-0.0273881
0.431391
0.257797
0.427423
0.192115
0.435653
0.411614
0.433494
0.329111
0.426273
-0.037391
0.426095
-0.0398337
0.355181
0.420768
0.359711
0.471125
0.193433
0.378655
0.441443
0.440327
-0.0107246
-0.0258881
0.354317
0.348645
0.416514
0.21287
0.430633
0.44394
0.264969
0.401596
0.502813
0.282731
0.0280702
0.444789
0.250373
0.417632
0.442657
0.30317
0.418907
0.4965
0.284792
0.00219223
0.485256
0.222499
0.362594
0.181768
0.350641
0.463022
0.498955
0.283699
0.279889
0.0797625
0.426548
0.388489
0.309772
-0.116197
0.417856
0.459294
0.246548
0.398986
0.501804
0.296394
0.041465
0.243697
0.294205
0.493369
0.465578
0.286909
-0.074515
0.455769
0.459336
0.315234
0.393801
0.302345
0.390341
0.429594
0.328154
0.433182
0.464944
0.456776
0.326703
0.379745
0.338486
0.386593
0.458199
0.279352
0.416422
0.441668
0.276942
0.422176
0.36049
-0.0568541
0.411105
0.487851
0.316044
0.332601
0.449513
0.00608984
0.349154
0.459365
0.461684
0.170423
0.148882
0.385289
0.379485
0.479148
0.329371
0.348548
0.503357
0.245327
0.305095
0.456742
0.208299
0.394633
0.447219
0.386768
0.390516
0.443608
0.144127
0.396244
0.467487
0.368712
0.362476
0.432036
0.21556
0.420979
0.497496
0.252671
0.316217
0.450159
0.453685
0.380758
0.389338
0.386646
0.378304
0.460589
0.343539
0.456207
0.388608
0.352225
0.390623
0.484718
0.487407
0.297035
0.284418
0.351932
0.352691
0.304013
0.126396
0.503971
0.467422
0.35048
0.198044
0.309233
0.32025
0.106789
0.107226
0.499518
0.493954
0.482402
0.258138
0.331883
0.434198
0.408025
0.396194
0.452199
0.135596
0.386185
0.481431
0.349856
0.335344
0.497892
0.241607
0.319867
0.505913
0.503584
0.15563
0.303379
0.159271
0.312813
0.472222
0.173419
0.372174
0.471628
-0.0658741
0.290724
0.241456
0.309794
0.488561
0.496469
0.49045
0.252015
0.288578
0.267576
0.300832
0.414555
0.135547
0.417587
0.499794
0.259787
0.306435
0.489612
0.261688
0.317574
0.487888
0.488754
0.281358
0.302485
0.315248
0.30791
0.491148
0.27701
0.300603
0.462012
0.182923
0.384145
0.463336
0.3671
0.375119
0.491316
0.306435
0.0153303
0.493294
0.258783
0.306642
0.498672
0.494215
0.239496
0.224463
0.327918
0.335515
0.302204
0.0362937
0.49544
0.500164
0.289789
0.0300569
0.498074
0.292656
0.0137388
0.501023
0.314821
0.144441
0.495161
0.273948
0.317649
-0.119937
-0.195498
0.0362011
-0.120037
-0.0744522
-0.0639832
-0.151105
-0.060956
-0.280359
-0.0837958
-0.086584
-0.320122
-0.153446
-0.0945539
-0.269547
-0.187452
-0.101929
-0.262404
-0.214525
-0.140122
-0.231618
-0.257946
-0.0554377
0.25827
0.0547094
-0.186209
-0.05352
-0.327312
-0.20097
-0.146496
-0.319812
-0.156993
-0.230629
-0.253611
-0.314017
-0.220963
0.0278053
-0.0638542
-0.115638
-0.0437873
-0.275669
0.280324
-0.293374
-0.0947487
0.0613136
-0.299631
-0.292313
-0.304883
-0.312259
-0.302649
0.073827
-0.230117
-0.185367
-0.299014
-0.314299
0.0663493
-0.138237
-0.224046
-0.30723
-0.104961
-0.30746
-0.287854
0.0596468
-0.0520219
-0.23304
-0.133482
-0.211428
0.19619
-0.0601195
0.00572043
-0.383432
-0.342576
-0.209747
-0.114172
-0.353938
-0.25572
-0.148919
-0.322214
-0.10739
-0.0123139
-0.253333
-0.247091
-0.300952
-0.21999
-0.32563
-0.0995051
-0.324287
-0.117383
-0.278559
0.085789
-0.206081
-0.107658
0.0498028
-0.249674
-0.167393
-0.0850268
-0.292992
-0.303489
-0.167883
-0.388393
-0.167386
-0.0473706
0.0756873
0.212984
-0.205002
-0.105427
-0.317619
-0.193823
-0.29328
0.0233651
-0.0369858
-0.142822
-0.269317
-0.355073
-0.0392206
0.0189243
-0.293338
-0.120869
-0.385113
-0.266101
-0.256416
0.13386
0.204511
-0.107724
-0.195019
-0.194334
-0.323448
0.126736
-0.102011
-0.120197
-0.396506
0.0819398
-0.299302
-0.0405982
-0.122241
-0.0124255
-0.268996
-0.418873
-0.269999
-0.150182
-0.184527
-0.0934638
-0.0606846
-0.2224
0.0274131
-0.294372
-0.227654
0.00751279
-0.272188
-0.276512
-0.318395
-0.162395
-0.123225
-0.015439
-0.107727
-0.296479
-0.115626
-0.0906646
0.0325548
-0.150369
-0.207551
-0.221374
-0.0434012
-0.098183
-0.0250312
-0.310967
0.247284
-0.268183
0.0155575
0.130063
-0.219807
0.140802
-0.00655659
0.0281222
-0.254028
-0.396756
-0.324026
0.0427997
-0.269962
-0.279401
-0.0838615
-0.276937
-0.266796
-0.292134
-0.21361
0.125359
-0.108344
-0.277951
-0.111203
-0.298831
0.267227
-0.0570849
0.02722
-0.243872
-0.414575
0.108757
0.164296
-0.246382
-0.299506
0.236573
-0.197668
-0.0738924
-0.2909
-0.111454
0.0118036
-0.0263646
-0.223844
-0.308281
-0.031265
-0.169464
-0.32562
0.0564197
-0.0815356
-0.313192
-0.197582
0.104675
-0.376683
-0.0639255
-0.0451936
-0.330608
-0.391179
-0.294069
-0.186273
-0.152452
-0.174541
-0.161388
-0.209777
-0.289344
-0.124561
-0.135818
0.00516612
-0.312193
-0.155726
-0.296845
-0.266624
-0.193803
-0.269438
-0.405907
0.0370504
0.0064008
-0.216876
0.129553
0.0103577
0.284142
-0.175941
-0.432774
-0.265629
-0.299583
-0.146946
-0.369482
-0.181045
0.0912072
-0.12746
-0.19981
-0.234277
-0.302358
0.0228279
-0.237468
-0.0861341
-0.272429
-0.253379
-0.284491
-0.0819476
-0.226114
-0.234803
-0.196902
-0.324275
-0.156847
-0.191635
-0.304207
-0.147984
-0.149871
-0.272306
-0.311111
-0.294738
-0.332885
-0.30062
-0.204263
-0.359952
-0.433124
-0.228621
-0.329768
-0.368464
-0.20151
-0.0816656
-0.366944
-0.0115967
-0.148619
-0.253453
0.0498418
-0.309053
-0.157081
0.0620973
-0.0584327
-0.169404
-0.00255061
-0.27524
-0.0680949
-0.073707
-0.219804
-0.0083981
-0.286568
-0.130967
-0.461923
-0.357258
-0.413193
-0.335555
-0.301662
-0.142783
-0.292095
-0.391841
-0.316194
-0.265009
0.271604
-0.0929144
-0.113764
-0.15467
-0.0607997
-0.147055
-0.227852
-0.328684
-0.171885
-0.284447
0.0933061
-0.0336213
-0.207213
-0.277734
-0.227338
0.252534
-0.0163477
0.0311521
-0.100014
-0.25472
-0.219385
-0.279329
-0.320769
-0.351188
-0.300664
-0.103013
-0.0861392
-0.313998
-0.356722
-0.177241
-0.118103
-0.180832
-0.103693
-0.0385845
-0.159346
-0.225383
0.0903975
0.0110204
-0.229997
-0.0359598
0.0167251
-0.392905
-0.0787342
-0.263353
-0.291841
-0.304137
0.00107113
-0.324573
-0.192686
0.0800204
-0.402601
-0.190942
-0.2285
-0.223349
-0.271233
-0.285336
-0.0938635
-0.120883
-0.350952
-0.365035
-0.296826
-0.306967
-0.073662
0.0710171
-0.172574
-0.0995807
-0.0952477
-0.0837915
-0.416752
-0.0510944
-0.0747134
-0.357732
-0.371597
-0.156557
-0.322396
-0.115414
-0.193426
-0.256172
0.0919442
0.042156
-0.255793
-0.0388115
0.198169
-0.0363995
0.0137235
0.0293377
-0.0933292
-0.242743
-0.298164
0.247639
-0.0146145
0.0133061
-0.309684
-0.318311
-0.399209
-0.0290311
-0.15576
-0.0919574
0.0229156
-0.0654995
-0.102476
-0.120612
-0.230766
-0.179984
-0.24131
-0.283107
-0.3014
-0.255069
-0.216683
-0.352152
-0.152859
-0.280929
-0.0471192
-0.00813228
-0.380686
0.0250243
0.0623573
-0.105939
-0.298762
-0.189351
-0.0612332
-0.0842103
-0.23694
-0.311346
0.012959
-0.0782934
0.0990802
-0.373206
-0.273119
-0.187029
-0.107095
0.000409245
-0.170518
0.153739
-0.160542
-0.0398868
-0.27559
-0.000468665
-0.238673
-0.139691
-0.280623
-0.0311902
-0.166499
0.231276
-0.131573
-0.352173
-0.105304
-0.160448
-0.076805
-0.297995
-0.267761
-0.264569
0.0813906
-0.0865987
-0.0974753
-0.068075
-0.306079
0.0916314
0.193053
-0.316067
0.227218
0.100095
-0.0217618
0.0167308
-0.197779
-0.312793
-0.303685
-0.272522
-0.05006
-0.221153
-0.065395
0.14876
-0.306168
-0.299093
-0.308886
0.0346857
0.260304
-0.310106
-0.0383052
-0.126799
0.0667318
-0.111319
-0.0949207
-0.317279
0.138584
0.22048
-0.134133
-0.292726
-0.0209419
-0.151511
-0.00859239
-0.210229
-0.187675
-0.139456
-0.101795
-0.0865663
-0.295179
-0.18588
-0.13039
-0.145854
-0.0111332
-0.320816
-0.158125
-0.0934152
-0.288521
0.0558405
-0.155476
-0.317788
0.0857206
-0.0231114
-0.136086
0.169424
-0.19012
-0.322314
-0.0933407
-0.106769
-0.0162057
-0.276743
-0.27375
-0.161612
-0.130497
-0.271964
-0.214544
-0.163252
-0.369783
-0.259335
0.0763042
0.184568
0.2182
-0.0509615
0.223292
0.249278
0.0974308
-0.427432
-0.17677
-0.161726
0.177622
-0.295435
-0.152686
-0.320706
-0.292419
-0.0761791
0.131242
-0.278728
-0.267367
-0.0886035
-0.132913
-0.281047
-0.317751
0.250024
0.116948
0.0352083
-0.0964184
-0.352728
-0.0273948
-0.154438
-0.299838
-0.168833
-0.353255
-0.314574
-0.144087
-0.256326
-0.215449
0.0949426
0.0762109
-0.413855
-0.0185362
-0.215413
-0.210895
-0.172691
0.0755614
-0.252101
-0.0953935
-0.28178
0.0410978
-0.295306
-0.27863
0.197399
-0.405869
-0.375344
-0.199707
-0.24792
-0.435232
-0.0797949
-0.246659
-0.438559
-0.245446
-0.410087
-0.336408
-0.250079
-0.373384
-0.237922
-0.208237
-0.363034
-0.0860524
0.104274
0.0874538
-0.311551
-0.323098
0.111167
-0.345117
-0.151554
0.203337
-0.234302
0.185532
-0.211008
0.000828391
-0.0392295
-0.102692
-0.342364
-0.136927
-0.149767
-0.245788
-0.10865
-0.293666
-0.34379
-0.253696
-0.13979
-0.396399
-0.359214
0.119792
-0.153013
-0.122456
-0.078593
-0.294366
0.111995
-0.0736946
-0.316273
-0.0763845
-0.267174
-0.354466
-0.427774
-0.121022
-0.104517
-0.304603
-0.150515
-0.264695
0.190162
0.0900416
-0.286451
-0.271097
0.157619
0.00466457
-0.175769
-0.154818
-0.302063
0.215173
-0.0889126
-0.412006
0.0452277
-0.0447299
0.0738646
-0.176305
-0.311526
-0.183128
-0.100295
-0.16703
-0.0889033
0.291127
-0.265158
-0.213501
-0.237189
0.107958
0.192289
0.220715
-0.135939
-0.130027
-0.0534498
0.0045667
0.108595
-0.123345
-0.048733
-0.0860271
-0.195714
-0.127159
-0.295158
-0.0878385
-0.377484
-0.269256
-0.0740705
-0.368238
-0.178354
-0.144841
0.118506
0.222587
-0.281853
-0.340976
-0.388576
0.09861
-0.305055
-0.280466
-0.396098
0.132279
-0.195365
-0.192992
-0.325525
-0.184889
-0.281577
-0.226826
-0.0656335
-0.0748812
0.121311
0.25705
-0.236885
0.0231871
-0.412559
0.0329096
0.0859458
0.0809594
-0.0667793
-0.263122
-0.261931
-0.304765
-0.406746
-0.0900206
-0.400617
-0.0464868
-0.317558
0.066872
-0.296738
-0.391916
-0.0199533
0.0357249
-0.233914
-0.246259
-0.132339
0.0901678
-0.206069
-0.21272
-0.402056
-0.0437131
0.00127006
0.138305
-0.431468
-0.258171
0.0491683
-0.108503
0.171035
-0.10363
-0.291264
-0.448994
-0.411163
-0.248545
-0.380545
0.107447
-0.389609
-0.110183
-0.226764
-0.321296
0.0767039
-0.432232
0.129973
-0.0987151
-0.182759
-0.0822307
-0.0319292
-0.116311
-0.100627
-0.260297
-0.222614
-0.328445
-0.344054
-0.0685951
-0.256812
0.207324
-0.329361
-0.0161827
-0.140612
0.0104644
0.14882
-0.328423
-0.306376
-0.230477
-0.132716
-0.347991
0.115473
-0.29265
-0.199733
-0.304431
-0.0293208
-0.378979
-0.17368
-0.355691
0.225334
-0.411017
-0.259188
-0.0489389
0.00837145
-0.385646
-0.387398
-0.279858
-0.357145
0.0592143
-0.193411
-0.0991581
0.00269478
-0.120041
0.024642
0.229632
-0.0388841
0.000272744
-0.145046
-0.114339
-0.371262
-0.12568
-0.279305
-0.151196
-0.0897888
-0.121359
-0.356556
-0.230944
-0.0479242
-0.290453
-0.0498756
-0.0993063
0.050023
-0.276631
0.110689
-0.212919
-0.102131
-0.130299
-0.362972
-0.290813
-0.306063
-0.139597
-0.184052
-0.16734
0.0373371
0.0124515
-0.0500897
-0.222681
0.0295835
0.13586
0.135359
0.0376451
-0.115823
-0.131938
-0.298269
0.174426
-0.00267943
-0.0282859
-0.256553
-0.265019
-0.362192
-0.139062
-0.111526
-0.188707
-0.0295152
0.0242989
-0.171418
-0.187973
-0.0300061
-0.174926
-0.133013
-0.254378
-0.1598
-0.194555
-0.395739
-0.187569
-0.0999249
-0.28729
-0.42598
-0.172121
-0.230359
-0.116717
-0.272736
-0.204262
0.0587643
0.0747402
-0.190516
-0.214259
-0.0493791
-0.230675
-0.288606
-0.307786
-0.27695
-0.360946
0.0364167
-0.199393
-0.217547
-0.0965001
-0.118783
-0.0273039
-0.119083
0.200097
-0.0596019
-0.311368
-0.219173
-0.24538
-0.0471292
0.0600293
-0.0496393
-0.166734
-0.378834
-0.315493
-0.290373
-0.177401
-0.212811
-0.189265
-0.308493
0.065057
-0.128725
0.0862483
0.0131622
-0.198689
-0.208642
-0.113529
0.148184
-0.365463
-0.39225
-0.108333
0.165605
-0.28283
-0.279156
-0.0610655
-0.114311
-0.0229774
-0.25891
-0.381044
-0.178246
-0.368398
-0.279655
-0.0232017
-0.271618
-0.291075
-0.199738
-0.286847
-0.157522
-0.194096
-0.171803
0.0413857
-0.316043
0.234097
-0.0229351
-0.317093
-0.445151
-0.170732
-0.0878667
0.00473009
-0.261663
-0.290989
-0.114697
-0.309175
-0.177774
0.251759
0.0374269
-0.103534
-0.143158
-0.358386
0.144742
0.228686
0.0699133
-0.0545446
0.0557976
-0.127406
-0.357216
-0.411037
-0.392504
0.146142
-0.238951
-0.0533046
-0.163308
0.224869
-0.298464
-0.187447
-0.341211
-0.260102
-0.307819
0.226964
-0.176695
-0.0496272
0.0451279
-0.00489734
-0.308107
-0.148176
-0.159687
-0.00950305
-0.375924
-0.15864
-0.277993
0.116623
-0.100072
-0.301852
-0.033162
-0.255824
0.0559571
-0.298172
-0.0230156
0.00619957
0.0386008
-0.340699
-0.176399
-0.289394
-0.134352
0.0868994
-0.184333
-0.0968578
-0.182247
-0.0669467
-0.162752
0.159363
-0.145353
0.0762912
-0.40309
-0.267949
-0.308796
0.135612
-0.052155
-0.15647
-0.338958
-0.102474
-0.122419
0.175525
-0.102929
-0.285144
-0.339107
0.217886
0.182843
-0.0715061
0.166002
-0.292875
-0.340255
-0.258436
-0.218453
-0.375284
-0.0781296
-0.166622
-0.297611
-0.242212
0.159956
-0.248051
-0.0342375
-0.182568
-0.274679
-0.221506
-0.403268
-0.380622
-0.261033
-0.0586017
-0.0911773
-0.313042
-0.243208
0.0379632
-0.121111
-0.298393
-0.103726
0.0995263
-0.261546
-0.180365
0.256536
-0.141366
-0.301308
-0.0345833
-0.0628459
0.157389
-0.174248
-0.239527
-0.166653
-0.373749
0.0988811
-0.0773032
0.0421734
-0.168074
-0.0823242
-0.33449
0.05457
-0.263992
-0.323769
-0.310998
-0.158848
0.0277207
-0.454739
-0.200488
-0.34157
0.10419
0.22147
-0.115587
-0.284061
-0.0781711
0.199168
-0.190767
0.0563217
0.0114353
-0.0353567
-0.0777183
-0.203896
0.016683
0.052399
0.08983
-0.151528
-0.157223
-0.119691
-0.17347
-0.124215
-0.245543
0.166769
-0.0890506
0.0790466
-0.1581
0.13695
-0.306029
0.187281
-0.0843376
0.127957
0.133122
0.0666971
0.249444
-0.293926
0.0319379
-0.140367
-0.31197
-0.206905
-0.311931
0.0737106
-0.090489
-0.177838
-0.161772
-0.26765
-0.112248
-0.310977
0.120116
-0.234461
-0.0273686
-0.420186
-0.235301
-0.302519
0.222898
-0.10861
-0.137813
-0.175493
-0.29434
-0.297678
-0.239682
-0.29789
-0.0375603
0.100477
-0.345574
-0.18638
-0.300403
-0.302127
-0.0185023
-0.142063
-0.174377
0.127005
-0.383405
-0.110003
-0.10869
0.0654738
0.209741
-0.174087
-0.238713
-0.345804
-0.19173
-0.14027
-0.300565
0.0489041
-0.290833
-0.326819
-0.283836
-0.171919
-0.215175
-0.128714
-0.342808
-0.193468
-0.344037
-0.0568111
-0.080837
-0.135303
-0.0407417
-0.0895756
-0.386217
-0.102376
-0.405627
0.164118
-0.284469
-0.301428
-0.305829
0.0372417
0.0945383
-0.214944
-0.0470069
-0.137091
-0.319356
-0.136597
-0.295374
-0.200951
0.0834905
-0.118657
0.0241464
0.173487
-0.0472768
-0.0954416
0.146262
-0.349877
-0.208157
-0.215518
-0.16166
-0.0490927
0.142764
-0.297241
-0.175094
-0.230811
-0.198909
-0.252395
-0.233494
-0.0813638
-0.014452
0.0388135
-0.156218
-0.176316
0.120532
0.0484676
-0.275907
-0.0716384
-0.334082
-0.309234
-0.0270176
-0.3527
0.00177192
-0.325989
0.019508
0.217303
0.0987391
-0.335813
0.120244
0.00485133
-0.0768142
0.123065
-0.0641055
0.115703
-0.0428015
-0.31695
-0.340337
-0.0764428
-0.302119
-0.0227097
-0.140699
0.0949761
-0.135496
0.136364
-0.275439
-0.189333
-0.131916
-0.264982
-0.302262
-0.00885526
0.183096
-0.280961
0.038557
-0.223243
-0.171166
-0.201664
-0.072578
0.0762554
-0.0333534
-0.320616
0.0585011
-0.0109392
0.181648
-0.274441
-0.363482
-0.159591
-0.0589634
0.160566
-0.00652398
-0.233623
0.18958
-0.183832
-0.334628
-0.34155
-0.451813
-0.12299
-0.320462
0.162427
0.239332
-0.171577
0.221147
-0.0236543
-0.219538
0.170629
-0.340499
0.146554
-0.310654
0.0857328
-0.226372
-0.258619
-0.054741
-0.193511
0.120453
0.0542779
0.0743962
-0.226388
-0.220264
-0.360228
0.0496324
-0.0352717
-0.114762
-0.105184
-0.0344791
-0.409015
-0.290749
-0.241638
-0.325059
-0.174901
-0.330152
-0.213141
0.0676449
-0.209546
-0.192172
-0.0710736
-0.260687
-0.186657
-0.174798
-0.215562
-0.270477
0.03144
0.0809753
-0.11482
-0.0426368
-0.421341
-0.275862
0.026542
-0.0619903
-0.337118
0.101145
-0.311462
-0.0811388
-0.173021
-0.123064
0.0517992
-0.22683
-0.0619606
-0.00688078
-0.112829
0.258059
-0.109079
-0.350894
-0.148239
-0.105579
-0.0619592
0.245264
-0.0932486
-0.160774
-0.203485
-0.118228
0.0568012
-0.307645
0.0870118
-0.209561
-0.0857484
-0.0492149
-0.0796795
-0.243673
0.0525542
0.185648
-0.186669
-0.251207
-0.200675
-0.240352
-0.353409
-0.210288
-0.0103071
-0.32193
-0.350811
-0.102561
-0.325729
-0.0840976
-0.172177
-0.0579276
-0.195046
0.0782624
-0.214179
-0.00842647
0.176317
-0.304941
0.070052
-0.15151
-0.204017
-0.103299
0.064063
-0.170599
-0.220867
-0.101093
-0.252527
-0.25174
-0.273391
-0.297743
-0.419682
0.150449
0.180224
-0.32712
-0.180158
-0.0639245
-0.356137
-0.127657
-0.291004
-0.103244
-0.0636715
-0.376753
-0.426049
0.0534677
-0.163651
-0.154618
-0.176183
-0.351919
-0.34365
0.00286919
-0.00368344
-0.126018
-0.383581
0.0875062
-0.00417759
-0.266159
-0.17407
-0.296384
0.156044
-0.285614
-0.177473
-0.313852
-0.130207
0.081379
-0.163258
0.0353913
-0.222636
-0.151646
-0.12522
0.174867
0.247353
-0.17421
0.195252
-0.216854
-0.200494
-0.197653
-0.273094
-0.24874
0.0493146
-0.0404619
-0.162946
-0.206016
-0.388013
-0.0709773
-0.258118
-0.092685
0.0801862
-0.272705
-0.250493
-0.201451
-0.248935
-0.0766646
-0.403009
-0.191514
0.104325
-0.0786588
-0.354694
-0.0167851
-0.208046
-0.217469
-0.127871
0.00293168
-0.0839805
-0.0629238
-0.0086939
-0.24372
-0.114436
-0.14546
0.0670711
-0.137974
-0.195592
-0.155122
-0.311879
-0.180749
0.175873
-0.00152346
0.200744
-0.215323
-0.112402
-0.295767
-0.218825
0.00345519
-0.347141
-0.364615
-0.0772973
0.00799505
-0.360576
-0.191846
-0.136314
-0.0861654
-0.146246
0.236887
-0.153619
-0.188603
0.0408031
-0.202475
-0.0733383
0.0228466
-0.313952
-0.162826
-0.0453644
-0.159477
0.18259
-0.352288
-0.294962
-0.0667115
-0.123489
-0.275252
-0.1723
-0.245157
0.202795
0.167284
-0.0679132
0.0567405
-0.29426
0.012549
-0.137989
-0.0221532
0.144534
-0.353009
-0.230474
0.229515
-0.134216
-0.375916
-0.354201
0.0657763
0.218012
-0.226314
-0.0656722
-0.153439
-0.326045
-0.219458
-0.365954
-0.000902298
-0.253297
-0.232026
0.112375
-0.311561
-0.0844489
-0.203812
-0.154351
-0.164721
-0.34007
-0.205291
-0.325407
-0.146137
-0.0332168
0.125463
-0.0397788
-0.135596
-0.245362
-0.38451
-0.29119
-0.148262
-0.180183
-0.00823918
-0.0316037
-0.248782
-0.258061
-0.0186328
0.0152042
0.220578
0.0341211
0.158574
-0.175712
-0.334244
-0.23915
-0.278767
0.179613
-0.183511
-0.224531
0.135871
-0.327446
-0.0384911
-0.0822544
-0.181568
-0.156248
-0.225786
-0.309891
0.010491
-0.295772
-0.102994
-0.22184
0.108774
-0.183793
0.261748
-0.275311
-0.222871
-0.359169
-0.429505
-0.22775
-0.0558817
-0.113465
-0.0791596
-0.197141
0.16291
-0.0569915
-0.304196
-0.31547
-0.214308
-0.342859
-0.15735
-0.348616
-0.279379
-0.28701
-0.0773329
-0.327485
-0.176404
0.170555
-0.126544
0.0749244
-0.00677913
-0.291992
-0.233745
-0.222851
0.0259316
-0.312452
-0.150035
-0.16359
-0.317517
-0.364014
-0.187692
-0.052829
-0.0679205
0.214455
0.0261692
-0.194153
-0.09964
-0.361306
0.197666
-0.121597
0.0147615
-0.125824
-0.0757718
-0.349061
-0.240235
-0.0244526
0.1056
-0.052773
-0.187971
-0.298578
0.238382
-0.15351
0.016302
0.164378
-0.118118
-0.224324
-0.361465
-0.00960113
-0.0651561
-0.312696
-0.133169
-0.105379
0.0855142
-0.25021
0.116508
0.222408
-0.276254
-0.269816
0.14934
-0.302836
-0.30343
-0.224138
-0.285424
-0.198189
-0.288621
-0.342955
-0.229978
-0.163689
-0.221015
-0.293453
-0.184264
-0.373215
-0.284323
-0.143802
-0.232544
-0.362929
0.101485
0.199514
0.1621
-0.17976
-0.379978
0.277126
-0.316065
-0.220236
-0.125799
-0.313557
-0.113665
-0.0813436
-0.286706
-0.316142
-0.353608
-0.346813
-0.322679
-0.293771
-0.389301
-0.247145
-0.206114
-0.261706
0.127392
-0.190787
-0.0734146
-0.159932
-0.0136496
-0.334392
-0.293086
0.248056
-0.179089
-0.0687001
-0.320585
-0.120371
0.212436
-0.308903
-0.0983087
-0.0687539
-0.362106
-0.170248
-0.320126
-0.257867
-0.0733785
-0.300419
-0.218717
-0.31666
-0.273195
-0.216349
-0.31744
-0.210481
-0.312693
-0.302815
0.210314
-0.230431
-0.188666
-0.194893
0.111598
-0.283302
-0.342138
-0.00406841
-0.30069
-0.260676
-0.147394
-0.108368
-0.345615
-0.0237889
-0.0836619
0.189681
0.0242029
-0.327264
-0.30129
-0.359233
-0.139071
-0.378514
-0.252287
-0.169467
-0.259686
-0.174938
-0.149764
0.226133
-0.264987
-0.0890801
-0.166963
0.172691
-0.297826
0.195492
-0.159184
-0.325601
-0.133958
-0.0812195
-0.327793
0.0512458
-0.146638
0.0370797
-0.294068
-0.0904155
-0.259713
0.234995
0.149412
-0.0678359
-0.128327
-0.0758695
-0.379961
-0.356612
-0.0391546
0.260735
-0.0856462
-0.153147
-0.13471
-0.335519
-0.261024
-0.204736
-0.282385
-0.25282
-0.279243
-0.17934
-0.31872
-0.229516
0.249895
-0.00211162
-0.387534
-0.0479776
-0.232435
-0.324695
-0.0319954
-0.308635
-0.264375
-0.0705522
-0.0710529
-0.259651
-0.231038
0.0133721
-0.296679
-0.273286
-0.283377
-0.155061
-0.275859
0.0975426
-0.374853
-0.301949
-0.286414
-0.305178
-0.10612
-0.151976
0.112414
-0.159466
-0.0400176
-0.202742
-0.1615
-0.190613
-0.0907675
-0.322811
-0.287668
-0.417621
-0.0742253
-0.266812
-0.290631
0.0713516
-0.186651
0.0206951
-0.102992
-0.24611
-0.276091
-0.284392
-0.114907
-0.182072
0.214592
-0.326888
-0.380172
-0.196775
-0.319287
-0.179366
-0.107398
-0.0654161
-0.245031
-0.254208
-0.294506
-0.142028
-0.259451
-0.108948
0.239641
0.200117
-0.278719
-0.221296
-0.0125411
-0.0782672
-0.209083
-0.306916
-0.169294
-0.325375
-0.206491
0.0870442
-0.212048
-0.373266
-0.152754
-0.215321
-0.372313
-0.29285
-0.191469
-0.103075
0.227688
-0.306666
-0.344911
-0.182835
-0.00457745
-0.301712
-0.166108
-0.291162
-0.157112
-0.293906
-0.155967
-0.271257
-0.170014
-0.0343079
-0.284969
-0.384905
-0.21546
-0.193279
-0.0270546
0.257173
-0.174403
-0.299258
-0.293338
-0.291733
-0.295118
-0.30677
-0.320087
0.138938
-0.00350435
-0.104966
-0.167997
-0.361722
-0.0543988
0.191419
-0.295733
-0.221465
-0.337163
-0.42321
-0.240297
-0.322047
-0.430064
-0.0091453
0.0328915
-0.35514
-0.370219
-0.282488
0.142057
-0.364227
-0.0108624
-0.0908077
-0.21949
-0.318506
-0.227404
-0.0259678
-0.395487
-0.29518
-0.274186
-0.29467
-0.178146
-0.00853411
-0.188698
-0.262712
-0.0593548
-0.300743
-0.281678
0.0527634
-0.169577
0.0489441
-0.179133
-0.304979
-0.0738744
0.0277538
-0.218608
-0.353013
0.0859396
-0.169436
-0.293227
0.0155382
-0.196906
0.104957
-0.221122
-0.280447
-0.0881117
-0.273367
-0.263054
-0.232462
-0.330377
-0.388207
-0.347226
-0.269441
-0.419961
0.0766603
-0.272158
-0.265141
-0.171986
-0.208412
0.201939
0.20633
-0.349183
-0.0380098
-0.0232857
-0.363942
0.087378
-0.410179
-0.313308
-0.209383
-0.309106
-0.00645113
-0.330271
-0.32448
-0.192776
-0.315816
-0.114223
-0.378978
0.0333834
-0.084834
0.150907
-0.0906635
-0.316625
-0.353342
-0.337196
0.248693
-0.0288317
-0.141629
-0.240871
-0.172505
-0.290383
0.0178671
-0.0553859
-0.223799
-0.131584
0.166037
-0.27967
-0.22582