/*--------------------------------*- C++ -*----------------------------------*\
  =========                 |
  \\      /  F ield         | OpenFOAM: The Open Source CFD Toolbox
   \\    /   O peration     | Website:  https://openfoam.org
    \\  /    A nd           | Version:  6
     \\/     M anipulation  |
\*---------------------------------------------------------------------------*/
FoamFile
{
    version     2.0;
    format      ascii;
    class       volVectorField;
    location    "0";
    object      U;
}
// * * * * * * * * * * * * * * * * * * * * * * * * * * * * * * * * * * * * * //

dimensions      [0 1 -1 0 0 0 0];

internalField   nonuniform List<vector> 
13046
(
(-0.448728 -0.205538 0)
(-0.598366 -0.304927 -3.74748e-21)
(-0.436013 -0.391163 -8.47989e-21)
(-0.493942 -0.223429 0)
(-0.422384 -0.339649 -7.98903e-21)
(-0.560982 -0.339711 0)
(-0.500215 -0.209622 1.2297e-21)
(-0.573479 -0.352525 1.86151e-21)
(-0.4065 -0.342801 -8.79811e-21)
(-0.491878 0.0402299 5.68315e-21)
(-0.838409 -0.438604 0)
(-0.199922 -0.503794 5.8091e-21)
(-0.462927 -0.171475 -4.06987e-21)
(-0.625807 -0.331606 -5.64071e-21)
(-0.392602 -0.399657 4.75459e-21)
(-0.420043 0.00893562 -7.22917e-21)
(-0.271237 -0.542186 1.35102e-20)
(-0.827244 -0.346739 2.49152e-21)
(-0.431104 -0.282669 0)
(-0.511324 -0.364635 -4.07964e-21)
(-0.539647 -0.255215 1.21884e-20)
(-0.433368 0.0133979 -3.17348e-21)
(-0.25729 -0.5326 -1.80807e-20)
(-0.82624 -0.364188 0)
(-0.4667 -0.235414 5.10797e-21)
(-0.565182 -0.310374 -9.27319e-21)
(-0.448304 -0.359692 0)
(-0.448357 -0.162189 -7.70365e-21)
(-0.636025 -0.321997 1.66257e-21)
(-0.394287 -0.41326 -8.19558e-21)
(-0.433086 -0.197813 0)
(-0.609975 -0.291306 0)
(-0.436708 -0.407556 8.6242e-21)
(-0.469702 -0.249047 -5.9342e-21)
(-0.459369 -0.349038 2.88185e-21)
(-0.549596 -0.305555 1.62211e-20)
(-0.48273 -0.257621 -8.8957e-21)
(-0.461419 -0.333874 4.48558e-21)
(-0.53777 -0.312831 -8.34246e-21)
(-0.375155 -0.2198 6.91123e-21)
(-0.486393 -0.446261 1.52486e-21)
(-0.614359 -0.234504 -5.89979e-21)
(-0.50107 -0.285474 3.92927e-21)
(-0.476506 -0.303482 6.78439e-21)
(-0.503904 -0.315896 0)
(-0.509968 -0.273002 2.54048e-21)
(-0.459679 -0.300199 -1.03866e-20)
(-0.509643 -0.32864 -1.25381e-21)
(-0.457628 -0.19892 0)
(-0.598187 -0.317065 -2.64773e-22)
(-0.420084 -0.383535 -5.46759e-25)
(-0.52952 -0.496612 8.87803e-21)
(-0.309623 -0.227226 0)
(-0.631529 -0.177972 -7.42021e-21)
(-0.545847 -0.502329 -1.26235e-20)
(-0.627696 -0.166996 -1.23543e-20)
(-0.296382 -0.238974 1.08455e-20)
(-0.746926 -0.250909 -1.2761e-21)
(-0.350345 -0.0819963 0)
(-0.383527 -0.546357 7.15146e-21)
(-0.530461 -0.124022 -3.98339e-21)
(-0.644677 -0.419273 3.1576e-21)
(-0.311673 -0.363485 -2.09725e-20)
(-0.26317 -0.46824 1.07557e-20)
(-0.758797 -0.400358 -1.87488e-21)
(-0.478277 -0.0350462 -7.87806e-21)
(-0.333632 -0.0961557 0)
(-0.735666 -0.231296 0)
(-0.403514 -0.553803 0)
(-0.334433 -0.107276 -3.34612e-21)
(-0.723996 -0.229618 0)
(-0.412148 -0.544587 5.54998e-21)
(-0.762359 -0.250566 0)
(-0.347871 -0.0698864 5.2042e-23)
(-0.372367 -0.559434 5.85693e-23)
(-0.422721 -0.271944 0)
(-0.505142 -0.378239 4.41278e-21)
(-0.55265 -0.256181 -8.6229e-21)
(-0.343637 -0.551986 8.00716e-21)
(-0.368603 -0.049495 -1.13245e-20)
(-0.776544 -0.277689 0)
(-0.474382 -0.224389 2.73325e-21)
(-0.570237 -0.320019 0)
(-0.434726 -0.355531 0)
(-0.253038 -0.480993 -9.57581e-21)
(-0.777108 -0.404767 -1.4076e-21)
(-0.476724 -0.0205935 4.7299e-21)
(-0.543186 -0.0452481 -7.98168e-21)
(-0.224725 -0.405009 0)
(-0.723277 -0.468771 -1.43512e-21)
(-0.171963 -0.343294 0)
(-0.6076 -0.0459628 0)
(-0.699191 -0.545321 1.81642e-22)
(-0.457047 -0.106529 0)
(-0.469615 -0.0929521 4.05423e-21)
(-0.693092 -0.354096 6.21468e-21)
(-0.701675 -0.370979 -2.8991e-21)
(-0.338944 -0.441759 -4.37934e-21)
(-0.320446 -0.438099 1.1188e-20)
(-0.223066 -0.386938 -5.6594e-22)
(-0.557043 -0.0543333 7.80794e-21)
(-0.708522 -0.483208 0)
(-0.509956 -0.258144 2.67081e-23)
(-0.446573 -0.308299 5.55616e-21)
(-0.52273 -0.336838 0)
(-0.326716 -0.267729 0)
(-0.593728 -0.177013 -3.83544e-21)
(-0.555227 -0.457498 0)
(-0.337217 -0.23258 1.18726e-20)
(-0.519186 -0.468098 0)
(-0.615787 -0.199677 -1.4036e-20)
(-0.510181 0.113193 0)
(-0.139947 -0.500615 0)
(-0.892443 -0.480724 -1.23009e-21)
(-0.46554 -0.183374 1.12019e-20)
(-0.613515 -0.327477 2.41397e-21)
(-0.402265 -0.388846 8.67151e-21)
(-0.431521 -0.0832695 5.13078e-21)
(-0.43656 -0.0993418 -9.56805e-21)
(-0.725475 -0.335129 -5.29415e-21)
(-0.335694 -0.478237 4.92157e-21)
(-0.705503 -0.334775 3.18384e-21)
(-0.345345 -0.462261 -4.59804e-21)
(-0.486946 0.056479 -5.04564e-21)
(-0.857112 -0.440954 -2.36671e-21)
(-0.192338 -0.514769 -2.56787e-21)
(-0.446647 -0.131722 0)
(-0.66794 -0.335355 -4.26755e-21)
(-0.36567 -0.434376 1.00897e-20)
(-0.381943 -0.20742 0)
(-0.471662 -0.4459 -7.5464e-21)
(-0.621314 -0.245114 3.68577e-22)
(-0.188077 -0.331661 0)
(-0.604252 -0.0593482 0)
(-0.684078 -0.534071 0)
(-0.496884 -0.0714475 0)
(-0.715819 -0.406599 -7.7178e-21)
(-0.285092 -0.430007 -1.22612e-20)
(-0.428154 -0.187062 0)
(-0.623116 -0.294433 0)
(-0.426561 -0.420331 0)
(-0.531564 -0.175703 0)
(-0.591427 -0.400241 0)
(-0.357612 -0.331491 0)
(-0.326566 -0.238726 0)
(-0.53182 -0.474809 0)
(-0.616138 -0.187976 7.59586e-21)
(-0.340829 -0.275002 -1.2035e-21)
(-0.585628 -0.185792 -8.13536e-21)
(-0.553943 -0.446536 7.92093e-21)
(-0.52199 -0.113765 9.85956e-21)
(-0.659067 -0.418432 0)
(-0.303234 -0.380019 2.72473e-20)
(-0.375169 -0.297407 0)
(-0.553319 -0.204792 8.6678e-21)
(-0.552457 -0.405074 -2.03584e-21)
(-0.581308 -0.498606 0)
(-0.611782 -0.142398 9.0355e-21)
(-0.599493 -0.496557 0)
(-0.602094 -0.1306 5.33376e-21)
(-0.278821 -0.267835 0)
(-0.270487 -0.285727 0)
(-0.558129 -0.171672 1.12688e-21)
(-0.579906 -0.428391 4.13188e-21)
(-0.337064 -0.309275 -5.27005e-21)
(-0.512625 0.0314129 -5.78418e-21)
(-0.192931 -0.488045 0)
(-0.822769 -0.46045 -3.18717e-21)
(-0.49717 0.0926938 -4.68736e-21)
(-0.161356 -0.515441 -1.15712e-21)
(-0.887017 -0.460552 0)
(-0.486255 -0.0616113 -6.26636e-21)
(-0.728241 -0.400299 0)
(-0.281866 -0.444102 1.39306e-20)
(-0.354971 -0.180561 0)
(-0.654667 -0.230472 1.87057e-21)
(-0.463964 -0.486374 4.35811e-21)
(-0.565213 -0.178954 7.38142e-21)
(-0.34432 -0.297037 2.53489e-21)
(-0.568999 -0.426738 0)
(-0.183022 -0.451689 0)
(-0.788238 -0.48316 0)
(-0.537358 0.0104887 4.91455e-21)
(-0.360873 -0.192959 0)
(-0.641922 -0.229478 -4.01813e-21)
(-0.473248 -0.472784 1.14348e-21)
(-0.361877 -0.289784 0)
(-0.560869 -0.197 0)
(-0.551817 -0.415307 0)
(-0.526705 -0.185928 3.69924e-21)
(-0.581823 -0.39244 0)
(-0.367242 -0.329685 0)
(-0.63523 -0.353085 8.59968e-24)
(-0.370449 -0.394849 -5.89527e-21)
(-0.453734 -0.143421 1.21754e-20)
(-0.655751 -0.334986 0)
(-0.372825 -0.422633 -1.26427e-20)
(-0.518369 -0.0251068 -8.38908e-21)
(-0.228444 -0.443963 8.84308e-21)
(-0.758424 -0.448219 -6.73951e-21)
(-0.212688 -0.351434 8.41928e-21)
(-0.58291 -0.0645916 4.63277e-21)
(-0.686449 -0.507484 7.12992e-21)
(-0.580526 -0.0380697 -1.37807e-20)
(-0.721923 -0.51259 0)
(-0.188347 -0.376857 -8.22822e-21)
(-0.528284 -0.531482 -4.54494e-22)
(-0.656573 -0.16296 3.3775e-21)
(-0.282964 -0.2041 0)
(-0.497035 -0.179807 -1.71349e-20)
(-0.357184 -0.0507236 5.63713e-21)
(-0.355033 -0.560484 -4.8686e-21)
(-0.778224 -0.26711 0)
(-0.739568 -0.516893 0)
(-0.575991 -0.0229448 -1.30052e-20)
(-0.176689 -0.394786 0)
(-0.49696 -0.249928 -1.29178e-20)
(-0.446034 -0.323481 -4.40815e-21)
(-0.536461 -0.329431 1.22148e-20)
(-0.437216 -0.168938 0)
(-0.636607 -0.309352 -2.41852e-22)
(-0.409891 -0.421252 -4.71759e-21)
(-0.204641 -0.336965 6.52588e-21)
(-0.594891 -0.0666498 0)
(-0.678715 -0.521991 -8.21002e-21)
(-0.498505 -0.168509 1.38424e-20)
(-0.626512 -0.363401 1.00678e-20)
(-0.368016 -0.382926 0)
(-0.157672 -0.489902 0)
(-0.847737 -0.490607 2.38904e-21)
(-0.530536 0.0639731 0)
(-0.274812 -0.217607 0)
(-0.648168 -0.155751 0)
(-0.540737 -0.531136 0)
(-0.571387 -0.0520593 1.20902e-20)
(-0.707164 -0.499448 0)
(-0.205216 -0.373933 -5.75765e-23)
(-0.579635 -0.150241 3.37324e-21)
(-0.588573 -0.461238 -3.11004e-21)
(-0.303537 -0.296611 0)
(-0.434237 -0.129319 0)
(-0.673108 -0.322279 3.99355e-21)
(-0.373967 -0.445553 7.80841e-21)
(-0.639288 -0.541032 -1.04496e-20)
(-0.61995 -0.0902373 -7.95911e-21)
(-0.211976 -0.291606 5.25046e-21)
(-0.609686 -0.119981 0)
(-0.609028 -0.511144 -4.23819e-21)
(-0.25316 -0.284339 -1.88575e-22)
(-0.13782 -0.476719 -7.71195e-21)
(-0.845287 -0.508568 0)
(-0.547083 0.0680874 -5.62999e-21)
(-0.339828 -0.210509 6.44365e-21)
(-0.499992 -0.481062 -5.31995e-21)
(-0.634182 -0.208404 6.06821e-22)
(-0.454315 0.134667 5.25211e-21)
(-0.162259 -0.525661 -1.06809e-20)
(-0.926569 -0.410344 0)
(-0.426338 -0.297696 -2.61988e-21)
(-0.527606 -0.246557 -9.85699e-21)
(-0.523827 -0.358894 1.2047e-20)
(-0.552632 -0.144599 4.35092e-21)
(-0.567281 -0.155589 8.49884e-23)
(-0.60849 -0.435587 -7.53199e-21)
(-0.590586 -0.445778 0)
(-0.317781 -0.306881 4.79268e-21)
(-0.314265 -0.326627 -4.90437e-21)
(-0.327039 -0.553558 -1.04852e-20)
(-0.374829 -0.0332173 5.89109e-21)
(-0.793619 -0.284989 -6.46488e-21)
(-0.424151 -0.141558 0)
(-0.668075 -0.306512 0)
(-0.392394 -0.449797 -1.02902e-20)
(-0.606009 -0.107031 -2.0451e-21)
(-0.624743 -0.51634 0)
(-0.241677 -0.296465 0)
(-0.460948 -0.0759509 -4.97316e-21)
(-0.723144 -0.368126 0)
(-0.310011 -0.458055 4.97267e-21)
(-0.488519 -0.2844 2.62524e-21)
(-0.51089 -0.304679 3.78694e-21)
(-0.483256 -0.314423 -1.3188e-21)
(-0.585465 -0.132468 -6.7906e-21)
(-0.605417 -0.47718 0)
(-0.282291 -0.301507 -8.48108e-21)
(-0.411009 -0.135317 0)
(-0.677365 -0.296775 5.0416e-21)
(-0.393613 -0.463413 -6.54791e-21)
(-0.481383 -0.162675 0)
(-0.484615 -0.15037 1.43194e-21)
(-0.329277 -0.204001 2.37606e-21)
(-0.500344 -0.492942 1.55259e-20)
(-0.642068 -0.200834 -1.45477e-20)
(-0.576473 -0.122043 -7.23454e-21)
(-0.620519 -0.4743 6.36787e-21)
(-0.27585 -0.316939 7.73893e-21)
(-0.470109 -0.0644515 0)
(-0.29541 -0.456228 -1.75712e-20)
(-0.732467 -0.38075 -3.81758e-21)
(-0.351368 -0.23774 -1.64111e-20)
(-0.513728 -0.458029 0)
(-0.609251 -0.20889 4.69993e-21)
(-0.266646 -0.255698 -1.02346e-20)
(-0.623704 -0.137519 -5.09146e-21)
(-0.577595 -0.515264 0)
(-0.400845 -0.0982899 -4.88905e-21)
(-0.716777 -0.297861 -4.38062e-21)
(-0.364927 -0.492758 2.9916e-21)
(-0.31233 -0.214797 8.5299e-22)
(-0.519575 -0.502397 0)
(-0.641241 -0.18253 1.01891e-20)
(-0.402278 -0.0857334 0)
(-0.415698 -0.0772473 0)
(-0.731311 -0.303001 -2.7536e-21)
(-0.355559 -0.500671 -7.87634e-21)
(-0.735682 -0.320132 3.90252e-21)
(-0.341778 -0.493712 8.29511e-21)
(-0.205461 -0.46016 -6.81672e-21)
(-0.786108 -0.462716 0)
(-0.522765 0.0016154 -6.37818e-21)
(-0.42792 -0.111402 5.6153e-21)
(-0.694764 -0.322995 0)
(-0.360457 -0.461985 2.69437e-21)
(-0.873114 -0.47286 2.67054e-21)
(-0.101235 -0.447506 9.42163e-21)
(-0.496809 0.161077 1.37301e-20)
(-0.55037 -0.221459 -4.57126e-21)
(-0.391856 -0.289922 0)
(-0.536538 -0.39225 0)
(-0.520039 -0.137797 9.64597e-21)
(-0.63304 -0.404571 0)
(-0.32755 -0.363019 1.59838e-20)
(-0.247679 -0.441504 -5.58897e-21)
(-0.507499 -0.0413118 1.70055e-20)
(-0.743363 -0.431095 5.21106e-21)
(-0.550292 -0.512715 0)
(-0.633705 -0.158322 4.60811e-21)
(-0.283789 -0.233361 -1.22896e-20)
(-0.65295 -0.535294 -1.26128e-20)
(-0.610725 -0.0809163 -5.04724e-21)
(-0.207185 -0.30715 0)
(-0.607252 -0.357941 -1.02946e-20)
(-0.383095 -0.366961 0)
(-0.490052 -0.127229 1.09424e-20)
(-0.656172 -0.379579 3.54502e-21)
(-0.336199 -0.399703 4.78151e-21)
(-0.600507 -0.37152 6.02754e-21)
(-0.374562 -0.355675 3.51045e-23)
(-0.416346 -0.00889373 -4.21795e-22)
(-0.283792 -0.535444 6.34655e-21)
(-0.808707 -0.338418 -3.66238e-21)
(-0.51994 -0.546815 0)
(-0.669025 -0.163428 1.07052e-21)
(-0.277852 -0.192396 0)
(-0.494421 -0.115492 -1.11442e-20)
(-0.671394 -0.386523 -4.32383e-21)
(-0.324074 -0.404263 -5.84265e-21)
(-0.543556 -0.169456 0)
(-0.587795 -0.415087 -6.00134e-21)
(-0.345177 -0.321772 0)
(-0.606298 -0.178031 0)
(-0.544893 -0.47234 0)
(-0.320667 -0.254304 0)
(-0.469601 -0.208674 -3.78456e-21)
(-0.585958 -0.323518 -5.80107e-21)
(-0.422452 -0.369699 -5.18083e-23)
(-0.271349 -0.244097 1.26571e-20)
(-0.631497 -0.144619 1.26239e-20)
(-0.567067 -0.518231 6.18479e-21)
(-0.540138 -0.0304719 -7.64367e-21)
(-0.745357 -0.471823 5.70489e-21)
(-0.213621 -0.42377 -8.4513e-21)
(-0.658825 -0.520751 8.5648e-21)
(-0.599584 -0.0818278 5.11292e-21)
(-0.216385 -0.320089 6.51235e-21)
(-0.324801 -0.130937 -1.01467e-20)
(-0.440033 -0.538409 8.2468e-21)
(-0.706048 -0.214522 -6.5489e-21)
(-0.384235 -0.0641511 3.1885e-21)
(-0.383337 -0.0768666 -2.80222e-21)
(-0.745437 -0.286035 -8.84857e-22)
(-0.759371 -0.289162 0)
(-0.34705 -0.530893 -2.83392e-21)
(-0.357478 -0.523261 -2.51643e-21)
(-0.121063 -0.475359 -1.26859e-20)
(-0.89379 -0.45515 -2.94124e-21)
(-0.487999 0.150267 3.25602e-21)
(-0.446229 0.116138 -3.22353e-22)
(-0.180008 -0.541492 1.47891e-20)
(-0.92152 -0.399626 0)
(-0.555448 -0.135204 -1.55868e-20)
(-0.623512 -0.442633 -1.6531e-21)
(-0.304861 -0.33435 0)
(-0.222272 -0.45835 -1.6994e-20)
(-0.511416 -0.0133084 6.34154e-21)
(-0.773895 -0.445469 0)
(-0.363504 -0.113298 1.47519e-20)
(-0.372819 -0.101627 -1.11239e-20)
(-0.713582 -0.25761 4.87168e-21)
(-0.722529 -0.268104 1.81352e-21)
(-0.401453 -0.518512 -4.83216e-21)
(-0.386488 -0.516522 -2.46553e-21)
(-0.138872 -0.395335 0)
(-0.755254 -0.542373 0)
(-0.592009 -0.00350519 2.39814e-21)
(-0.437181 0.155014 -6.17092e-21)
(-0.152138 -0.513426 0)
(-0.928087 -0.395039 0)
(-0.536329 -0.276744 4.3116e-23)
(-0.450872 -0.273808 5.80438e-21)
(-0.492481 -0.351616 2.73336e-21)
(-0.487926 0.132805 -1.11169e-20)
(-0.906421 -0.458135 1.79929e-21)
(-0.138597 -0.501678 6.90406e-22)
(-0.368958 -0.166944 0)
(-0.66199 -0.246927 -8.34432e-21)
(-0.444149 -0.481938 -3.62838e-23)
(-0.549683 0.0012725 3.42256e-23)
(-0.77644 -0.494002 7.79077e-21)
(-0.183824 -0.440036 4.69605e-24)
(-0.803842 -0.507678 7.5944e-23)
(-0.0473511 -0.37278 -5.3867e-21)
(-0.527037 0.145335 -5.58545e-21)
(-0.382882 -0.23374 -5.86826e-21)
(-0.495414 -0.431007 4.79409e-21)
(-0.599502 -0.234884 1.44286e-20)
(-0.525211 -0.23426 0)
(-0.538634 -0.36347 -1.33111e-20)
(-0.415874 -0.306779 7.46637e-21)
(-0.469566 0.0612569 0)
(-0.204104 -0.526407 7.6035e-21)
(-0.864233 -0.420657 -1.11268e-22)
(-0.532806 -0.222656 0)
(-0.543411 -0.373931 -4.59091e-21)
(-0.402078 -0.302373 -1.05433e-20)
(-0.52559 -0.282 5.72434e-21)
(-0.461449 -0.281229 -3.09789e-21)
(-0.493371 -0.338832 1.45463e-21)
(-0.261189 -0.220088 6.22498e-21)
(-0.652457 -0.145304 -4.48236e-21)
(-0.55323 -0.544332 6.83142e-21)
(-0.55754 -0.243509 0)
(-0.51327 -0.386006 0)
(-0.40955 -0.268903 8.98346e-22)
(-0.560347 -0.227526 7.23136e-21)
(-0.52818 -0.393947 3.55301e-21)
(-0.397977 -0.278468 1.27115e-22)
(-0.317356 -0.144245 1.53265e-20)
(-0.695767 -0.206998 -6.6694e-21)
(-0.454102 -0.539212 -8.183e-21)
(-0.236595 -0.510457 1.15565e-20)
(-0.224212 -0.501681 -1.19226e-20)
(-0.823956 -0.403402 2.29943e-21)
(-0.818354 -0.420897 1.60706e-21)
(-0.466285 0.0198982 0)
(-0.47971 0.0197965 -5.81827e-21)
(-0.551637 -0.0192261 9.34199e-21)
(-0.755453 -0.484189 -4.92596e-21)
(-0.198942 -0.420644 1.04484e-20)
(-0.432043 -0.553378 -5.34066e-21)
(-0.317513 -0.118366 3.23129e-21)
(-0.71828 -0.212164 8.35456e-21)
(-0.352477 -0.206856 -5.8784e-21)
(-0.487981 -0.471832 -4.92071e-21)
(-0.632997 -0.21999 4.54116e-21)
(-0.625757 -0.117891 0)
(-0.600555 -0.531451 4.38587e-21)
(-0.240978 -0.266676 1.95073e-22)
(-0.825987 -0.560936 1.93004e-21)
(-0.0638409 -0.412902 -5.24944e-21)
(-0.588858 0.09978 -4.59222e-21)
(-0.16983 -0.358474 0)
(-0.599122 -0.0364007 0)
(-0.711921 -0.539774 3.32895e-21)
(-0.507148 0.076144 5.26502e-21)
(-0.165529 -0.506357 0)
(-0.868072 -0.468861 -2.34472e-21)
(-0.0428122 -0.341918 -1.9466e-32)
(-0.766263 -0.475655 -6.8192e-22)
(-0.496566 0.153231 5.75271e-21)
(-0.801496 -0.406968 7.61267e-22)
(-0.0740726 -0.369746 1.94157e-32)
(-0.451379 0.183764 -5.11316e-21)
(-0.654663 -0.456896 -8.63459e-21)
(-0.555055 -0.106368 0)
(-0.276527 -0.35385 -1.62787e-20)
(-0.792973 -0.559571 -1.1624e-21)
(-0.10113 -0.416324 -5.6171e-21)
(-0.600572 0.0337126 0)
(-0.510811 -0.0672813 -7.65091e-21)
(-0.714507 -0.423619 4.76727e-21)
(-0.271543 -0.421091 8.26638e-21)
(-0.398814 0.0415135 1.50155e-20)
(-0.257795 -0.570106 4.46855e-21)
(-0.870552 -0.329765 0)
(-0.48393 -0.188049 2.92057e-21)
(-0.39631 -0.370154 -2.93621e-21)
(-0.602979 -0.345716 2.47664e-21)
(-0.741859 -0.542071 1.68249e-21)
(-0.147905 -0.383273 6.09973e-21)
(-0.594322 -0.0140582 2.53061e-21)
(-0.631172 -0.12401 -5.20096e-21)
(-0.247592 -0.25557 -3.48842e-21)
(-0.589453 -0.530515 0)
(-0.633455 -0.506066 0)
(-0.595152 -0.101944 0)
(-0.243209 -0.309043 0)
(-0.0160565 -0.15869 0)
(-0.466845 -0.246603 2.27108e-22)
(-0.305237 0.121315 4.38784e-21)
(-0.860197 -0.506584 1.52806e-21)
(-0.0863522 -0.437461 -6.67952e-21)
(-0.523831 0.147502 -5.64399e-21)
(-0.48414 -0.200961 -7.65061e-21)
(-0.406521 -0.362161 6.92062e-21)
(-0.589079 -0.34159 2.96897e-21)
(-0.774414 -0.520184 6.52186e-21)
(-0.57352 0.00664026 -5.44495e-21)
(-0.152591 -0.421466 0)
(-0.122518 -0.391904 -6.33184e-21)
(-0.603068 0.00476751 0)
(-0.760779 -0.557547 -4.81153e-21)
(-0.491456 -0.0110034 -5.81009e-21)
(-0.23636 -0.474166 1.79237e-20)
(-0.783116 -0.422741 0)
(-0.310624 -0.532316 -1.28566e-20)
(-0.788448 -0.315642 4.12742e-21)
(-0.402214 -0.0310253 0)
(-0.303839 -0.147875 -1.91135e-20)
(-0.696706 -0.195691 8.50327e-21)
(-0.46796 -0.551269 -2.58318e-21)
(-0.739597 -0.269984 1.35928e-21)
(-0.36842 -0.0855769 6.53426e-21)
(-0.375454 -0.531054 -7.64655e-21)
(-0.300521 -0.560233 -1.14939e-20)
(-0.384212 -0.00647572 0)
(-0.819918 -0.302972 0)
(-0.398099 -0.160958 -2.91084e-21)
(-0.397676 -0.146677 0)
(-0.657534 -0.274061 -8.50493e-21)
(-0.671946 -0.278791 9.0918e-21)
(-0.42421 -0.458836 1.31879e-21)
(-0.411217 -0.468785 -1.40335e-21)
(-0.385868 -0.170987 2.79383e-21)
(-0.653388 -0.260129 0)
(-0.439613 -0.46508 2.47121e-21)
(-0.349085 -0.112758 0)
(-0.71612 -0.244448 -7.9004e-21)
(-0.410315 -0.530146 1.7358e-21)
(-0.651134 -0.509988 -4.32061e-21)
(-0.593457 -0.0905765 5.23088e-21)
(-0.229731 -0.321992 -1.33651e-20)
(-0.746671 -0.505806 0)
(-0.563935 -0.0157417 1.42391e-20)
(-0.180722 -0.407905 0)
(-0.230669 -0.34981 -4.24228e-21)
(-0.57642 -0.0780757 -3.51253e-21)
(-0.675195 -0.494603 -2.80831e-21)
(-0.841409 -0.407819 -1.01964e-22)
(-0.0940494 -0.412941 3.464e-21)
(-0.456168 0.179765 0)
(-0.406745 -0.215451 5.28403e-21)
(-0.420704 -0.215433 0)
(-0.466773 -0.420723 0)
(-0.605421 -0.262051 1.71401e-20)
(-0.459023 -0.409087 0)
(-0.600316 -0.275594 -1.09022e-20)
(-0.352561 -0.135569 0)
(-0.348997 -0.151234 0)
(-0.44327 -0.506597 -5.63837e-23)
(-0.696141 -0.23979 5.0603e-21)
(-0.429728 -0.514205 1.25915e-20)
(-0.681776 -0.233589 -1.07833e-20)
(-0.783877 -0.530664 0)
(-0.0412448 -0.365562 7.50799e-21)
(-0.557791 0.129592 0)
(-0.768 -0.510288 -4.04591e-21)
(-0.56407 -0.00247969 1.64328e-21)
(-0.165954 -0.426468 3.72701e-21)
(-0.325173 -0.193341 -1.0369e-20)
(-0.492196 -0.504693 -5.57617e-21)
(-0.653173 -0.201505 1.50411e-20)
(-0.626697 -0.533165 9.34073e-21)
(-0.61829 -0.101088 1.32681e-20)
(-0.224799 -0.285896 0)
(-0.321981 -0.534631 1.37563e-20)
(-0.78052 -0.306176 -4.39172e-21)
(-0.394147 -0.0407572 7.51431e-21)
(-0.871167 -0.512327 0)
(-0.541455 0.107591 0)
(-0.11321 -0.476108 0)
(-0.856986 -0.522635 0)
(-0.555328 0.089674 4.87141e-21)
(-0.115736 -0.468901 1.29642e-21)
(-0.388052 -0.104866 -6.11037e-21)
(-0.713938 -0.283797 2.69316e-21)
(-0.380263 -0.500586 3.64892e-21)
(-0.358206 -0.247801 -1.54459e-21)
(-0.520656 -0.446251 0)
(-0.598781 -0.207857 1.57955e-23)
(-0.49149 0.00511421 6.76852e-21)
(-0.225439 -0.486157 1.04753e-20)
(-0.802184 -0.427657 -1.87117e-21)
(-0.657954 -0.472178 0)
(-0.566285 -0.0972537 0)
(-0.261402 -0.346295 1.40823e-20)
(-0.285593 -0.473338 3.37318e-21)
(-0.751888 -0.380478 6.49235e-21)
(-0.463597 -0.0466539 1.68076e-20)
(-0.340316 -0.159261 0)
(-0.454804 -0.510405 -8.30556e-21)
(-0.676752 -0.224738 5.55074e-21)
(-0.59055 -0.158949 2.61665e-23)
(-0.57469 -0.465352 4.56219e-21)
(-0.309193 -0.281865 0)
(-0.361989 -0.220952 5.91576e-23)
(-0.494193 -0.457081 -1.63321e-21)
(-0.618611 -0.224055 -5.94697e-21)
(-0.207037 -0.477431 6.46715e-23)
(-0.804257 -0.452179 4.28835e-21)
(-0.511061 0.012875 7.78196e-21)
(-0.443059 -0.0712071 -3.02373e-21)
(-0.734573 -0.350661 -2.01226e-21)
(-0.319136 -0.47582 0)
(-0.397696 -0.233437 -5.72727e-21)
(-0.487131 -0.418926 1.05076e-20)
(-0.594546 -0.247948 -9.50777e-21)
(-0.382906 0.0108859 5.73176e-21)
(-0.287567 -0.570301 5.07288e-21)
(-0.839755 -0.306646 -2.82312e-21)
(-0.412077 -0.18387 -3.494e-21)
(-0.630011 -0.281343 0)
(-0.434302 -0.432842 0)
(-0.537739 -0.194991 -1.34475e-20)
(-0.566338 -0.393775 2.8087e-21)
(-0.374164 -0.314628 0)
(-0.634654 -0.48632 0)
(-0.582678 -0.110103 1.0338e-20)
(-0.259929 -0.318951 0)
(-0.426283 0.0880622 -3.44101e-21)
(-0.210067 -0.559666 -1.58106e-21)
(-0.908202 -0.374521 2.4358e-21)
(-0.409837 0.0781056 9.50071e-21)
(-0.226172 -0.569363 0)
(-0.901933 -0.352172 -2.68622e-21)
(-0.291448 -0.488126 3.06136e-21)
(-0.761046 -0.365593 -3.81607e-21)
(-0.448761 -0.0425334 -1.53928e-20)
(-0.604863 -0.155732 -4.60697e-21)
(-0.571686 -0.485655 -4.57166e-21)
(-0.29582 -0.268649 0)
(-0.192802 -0.55614 1.43552e-21)
(-0.926531 -0.379466 -2.27942e-21)
(-0.423593 0.113086 0)
(-0.253436 -0.425184 0)
(-0.726267 -0.435278 -3.82415e-21)
(-0.516709 -0.0532803 -1.91329e-21)
(-0.0217797 -0.273338 5.68768e-21)
(-0.666718 -0.443517 8.71788e-22)
(-0.466842 0.137065 0)
(-0.393034 0.187614 -5.76572e-21)
(-0.725328 -0.338773 0)
(-0.0638141 -0.311018 5.62726e-21)
(-0.29867 -0.545731 -4.31071e-23)
(-0.808679 -0.318602 0)
(-0.399131 -0.013015 0)
(-0.17245 -0.480394 0)
(-0.824704 -0.480825 0)
(-0.528602 0.0399795 1.05974e-20)
(-0.452148 0.00210131 -5.95697e-21)
(-0.454322 -0.0125957 4.81858e-21)
(-0.253464 -0.513491 -5.81168e-21)
(-0.811103 -0.382012 -7.74977e-22)
(-0.262732 -0.50095 -9.39653e-21)
(-0.791272 -0.381397 1.46405e-21)
(-0.531015 -0.0575507 3.60083e-21)
(-0.716968 -0.450785 2.53796e-21)
(-0.246105 -0.409546 0)
(-0.226718 -0.266482 0)
(-0.609387 -0.543502 0)
(-0.630977 -0.10855 0)
(-0.44308 -0.224744 0)
(-0.453894 -0.385261 -1.48914e-20)
(-0.583774 -0.29252 5.90396e-21)
(-0.554824 -0.0734123 9.95824e-21)
(-0.688312 -0.47159 9.56426e-22)
(-0.242994 -0.374182 1.23925e-20)
(-0.244567 -0.359396 8.17755e-21)
(-0.565124 -0.0808548 -1.38461e-20)
(-0.675629 -0.479403 -1.32624e-21)
(-0.368084 -0.0172025 6.19208e-21)
(-0.317477 -0.56706 5.47159e-21)
(-0.811309 -0.283114 6.75572e-21)
(-0.34355 -0.127584 0)
(-0.704838 -0.23405 2.36815e-21)
(-0.427061 -0.52536 -1.23438e-20)
(-0.364901 -0.156237 0)
(-0.673394 -0.246994 1.09548e-20)
(-0.436562 -0.492397 -4.07992e-23)
(-0.52983 -0.101408 -1.25152e-20)
(-0.669942 -0.433415 1.20482e-21)
(-0.287368 -0.380172 -6.92527e-21)
(-0.5413 -0.0969085 0)
(-0.669309 -0.447074 1.12751e-21)
(-0.275521 -0.372265 6.45421e-21)
(-0.406519 -0.245202 0)
(-0.493068 -0.405089 -1.65923e-20)
(-0.581222 -0.250828 5.27702e-21)
(-0.386339 -0.140326 0)
(-0.679142 -0.272312 0)
(-0.410196 -0.481298 1.88457e-21)
(-0.147484 -0.364446 -1.32515e-20)
(-0.725715 -0.553645 -9.27647e-21)
(-0.606506 -0.0223829 0)
(-0.576169 0.0798736 6.77689e-21)
(-0.0994975 -0.449374 0)
(-0.835214 -0.544808 1.49115e-21)
(-0.589161 0.0830886 3.01033e-23)
(-0.0782435 -0.427731 0)
(-0.828557 -0.556192 -4.09265e-21)
(-0.377216 -0.193688 4.11272e-21)
(-0.464544 -0.457572 -1.7939e-21)
(-0.634773 -0.24501 -9.36634e-23)
(-0.86452 -0.520457 1.6338e-22)
(-0.090245 -0.449998 1.01001e-20)
(-0.54963 0.122344 0)
(-0.437715 -0.0543759 1.31475e-20)
(-0.308972 -0.490025 6.36713e-21)
(-0.75292 -0.349619 0)
(-0.0641055 -0.414821 -1.51021e-21)
(-0.833598 -0.54614 -1.84367e-21)
(-0.57025 0.116261 0)
(-0.505145 -0.232099 9.00194e-21)
(-0.426804 -0.326209 9.36293e-21)
(-0.54923 -0.343596 -1.2259e-23)
(-0.473205 -0.140956 -1.78664e-21)
(-0.652008 -0.355214 -1.3196e-21)
(-0.361022 -0.408103 -6.90803e-21)
(-0.556614 -0.488371 1.04287e-20)
(-0.612905 -0.16356 1.04112e-20)
(-0.301596 -0.255541 0)
(-0.118455 -0.416548 0)
(-0.783425 -0.548558 -1.59324e-21)
(-0.592728 0.0218951 0)
(-0.649099 -0.484167 0)
(-0.576088 -0.0988144 0)
(-0.254902 -0.33446 0)
(-0.270426 -0.562139 0)
(-0.400292 0.0221937 -5.57967e-21)
(-0.849141 -0.326402 2.76713e-21)
(-0.476671 -0.12777 0)
(-0.662165 -0.366164 6.62713e-22)
(-0.347786 -0.411089 6.74782e-21)
(-0.450851 -0.232834 0)
(-0.457469 -0.374533 1.27846e-20)
(-0.573306 -0.29612 0)
(-0.792212 -0.528428 -6.16622e-21)
(-0.57388 0.0253799 5.168e-21)
(-0.138877 -0.434152 0)
(-0.261993 -0.452061 -7.09301e-21)
(-0.744807 -0.41452 2.45515e-22)
(-0.492283 -0.043227 6.72035e-23)
(-0.461113 0.08009 0)
(-0.467364 0.0964916 6.55875e-21)
(-0.195654 -0.538494 -3.73055e-21)
(-0.181976 -0.534728 -4.49755e-21)
(-0.890526 -0.411177 -1.53874e-21)
(-0.900875 -0.424413 1.2655e-21)
(-0.541145 -0.151709 0)
(-0.606578 -0.420961 1.76329e-20)
(-0.329432 -0.334243 7.67707e-21)
(-0.640303 -0.449758 1.21374e-20)
(-0.554778 -0.116277 0)
(-0.285184 -0.343767 -8.57813e-21)
(-0.512966 -0.202544 -7.60203e-21)
(-0.572407 -0.366297 4.8038e-21)
(-0.392668 -0.333727 1.1488e-20)
(-0.819946 -0.545048 3.57851e-21)
(-0.579336 0.0578242 7.03819e-21)
(-0.808288 -0.558665 -1.6757e-21)
(-0.108787 -0.445341 0)
(-0.593605 0.0511216 -6.80517e-21)
(-0.0955302 -0.43039 0)
(-0.484746 -0.0980522 0)
(-0.691449 -0.385691 0)
(-0.315469 -0.423797 7.64668e-21)
(-0.559561 0.0359651 9.54394e-21)
(-0.564293 0.0511109 -1.79005e-20)
(-0.80874 -0.516887 2.37123e-21)
(-0.822953 -0.525668 -6.2367e-21)
(-0.140751 -0.451631 1.07654e-20)
(-0.127678 -0.457646 -7.55907e-23)
(-0.565362 -0.123702 0)
(-0.625531 -0.458873 -1.1349e-20)
(-0.290334 -0.327162 1.10934e-20)
(-0.509498 -0.15931 7.48841e-21)
(-0.627683 -0.377507 -7.97543e-21)
(-0.352515 -0.375518 0)
(-0.413763 0.0533942 0)
(-0.24153 -0.561923 0)
(-0.877368 -0.350777 2.58052e-21)
(-0.527982 -0.146721 5.52657e-21)
(-0.617208 -0.408029 -4.91294e-21)
(-0.332684 -0.348661 -1.26131e-20)
(-0.510572 -0.186126 3.17227e-21)
(-0.588251 -0.374142 -5.6393e-21)
(-0.378442 -0.344395 6.78253e-21)
(-0.442891 0.0761798 0)
(-0.209137 -0.55002 0)
(-0.893782 -0.392135 -3.45855e-21)
(-0.460447 -0.119347 0)
(-0.677802 -0.351828 1.39147e-21)
(-0.346612 -0.430096 -7.475e-21)
(-0.579845 -0.543062 0)
(-0.643373 -0.12744 0)
(-0.244797 -0.241185 -4.53871e-22)
(-0.327645 -0.155754 -4.8513e-22)
(-0.682797 -0.213393 0)
(-0.45913 -0.523407 1.27331e-20)
(-0.666111 -0.545137 4.89231e-21)
(-0.189653 -0.310285 0)
(-0.614737 -0.0680272 0)
(-0.0318295 -0.242753 -1.36049e-20)
(-0.623644 -0.341835 -3.1774e-22)
(-0.390466 0.149961 -6.14852e-21)
(-0.502592 -0.138115 0)
(-0.638167 -0.385991 4.87606e-21)
(-0.339859 -0.379918 -6.31491e-21)
(-0.436442 0.0310529 1.02001e-20)
(-0.242747 -0.538333 1.93113e-20)
(-0.847925 -0.369445 0)
(-0.493382 -0.548853 -3.29818e-21)
(-0.683248 -0.178967 -5.79708e-21)
(-0.288842 -0.169215 -4.23129e-21)
(-0.428456 0.18266 0)
(-0.111306 -0.436847 -5.09177e-21)
(-0.874622 -0.389688 0)
(-0.364773 -0.273224 7.55617e-21)
(-0.351435 -0.264886 -7.73225e-21)
(-0.53608 -0.423325 0)
(-0.573789 -0.205857 6.32098e-21)
(-0.537174 -0.440511 -1.01907e-20)
(-0.586532 -0.198698 -5.07419e-21)
(-0.526266 -0.207362 7.1492e-21)
(-0.560484 -0.375473 6.4435e-21)
(-0.391636 -0.317956 0)
(-0.375557 -0.245963 6.75874e-21)
(-0.378423 -0.259786 0)
(-0.509755 -0.430348 -5.80936e-21)
(-0.592466 -0.224018 5.57549e-21)
(-0.519279 -0.418329 5.85533e-21)
(-0.579208 -0.221583 2.60307e-24)
(-0.499909 -0.148112 4.82166e-22)
(-0.612295 -0.383374 -3.49219e-21)
(-0.357629 -0.358756 -8.36742e-21)
(-0.51986 -0.160902 -1.29204e-20)
(-0.608915 -0.394402 9.17271e-23)
(-0.351467 -0.349049 0)
(-0.0753883 -0.419749 0)
(-0.81008 -0.570448 0)
(-0.601981 0.0648461 7.58913e-21)
(-0.388003 -0.184198 -3.79628e-21)
(-0.640016 -0.256942 0)
(-0.449641 -0.454861 3.37003e-21)
(-0.541289 0.0286843 -1.67476e-20)
(-0.806549 -0.494951 3.00091e-21)
(-0.164744 -0.462424 -6.15488e-21)
(-0.517017 -0.0900361 0)
(-0.519269 -0.0778926 7.37278e-21)
(-0.686441 -0.422372 -1.50221e-21)
(-0.699373 -0.428935 4.65212e-21)
(-0.285526 -0.397864 -8.54007e-21)
(-0.273685 -0.404931 -7.97203e-21)
(-0.402423 -0.191731 0)
(-0.62821 -0.269069 0)
(-0.447763 -0.438257 1.59591e-21)
(-0.372222 -0.124165 4.78764e-21)
(-0.700616 -0.262106 0)
(-0.406645 -0.504735 4.17021e-21)
(-0.506886 -0.109919 -3.62675e-21)
(-0.667674 -0.403792 0)
(-0.311243 -0.393442 0)
(-0.454197 -0.259369 7.16601e-21)
(-0.547823 -0.287519 -3.17511e-21)
(-0.476782 -0.356504 3.39067e-21)
(-0.542446 -0.0798124 0)
(-0.686974 -0.454455 0)
(-0.259434 -0.381624 -1.31488e-20)
(-0.427193 -0.229779 0)
(-0.466951 -0.395437 1.87177e-21)
(-0.585602 -0.275728 0)
(-0.545694 -0.124942 -7.72667e-21)
(-0.635639 -0.439131 -6.36884e-21)
(-0.301263 -0.349833 -1.10094e-21)
(-0.385776 -0.128105 4.86538e-21)
(-0.692666 -0.275575 0)
(-0.40015 -0.489645 8.68912e-21)
(-0.444497 -0.24958 -7.09804e-21)
(-0.431536 -0.25393 -3.23119e-21)
(-0.560162 -0.283598 3.19621e-21)
(-0.474757 -0.369502 -6.77327e-21)
(-0.562544 -0.271011 0)
(-0.484672 -0.378167 -1.18817e-20)
(-0.400903 -0.258153 -3.26991e-21)
(-0.504337 -0.401996 7.73662e-21)
(-0.390663 -0.264846 2.10916e-21)
(-0.571482 -0.241749 -7.51717e-21)
(-0.518233 -0.409759 -3.67283e-21)
(-0.572938 -0.230021 4.34938e-23)
(-0.411171 -0.166479 4.13194e-21)
(-0.424029 -0.157141 0)
(-0.646814 -0.28566 6.29749e-21)
(-0.652499 -0.300042 -4.92057e-21)
(-0.420801 -0.44322 -7.70386e-21)
(-0.406197 -0.439241 1.28463e-20)
(-0.304619 -0.516139 0)
(-0.777549 -0.332844 -2.35613e-21)
(-0.417598 -0.0356852 -8.1643e-21)
(-0.258875 -0.235698 5.49317e-21)
(-0.642693 -0.138858 7.06398e-21)
(-0.567716 -0.535844 -1.07533e-20)
(-0.288983 -0.517861 -6.5033e-21)
(-0.280866 -0.504085 5.2764e-21)
(-0.788427 -0.347518 2.03738e-21)
(-0.780862 -0.364768 3.48765e-21)
(-0.42639 -0.0213284 2.10098e-20)
(-0.4421 -0.0252936 -1.09533e-20)
(-0.301344 -0.205369 7.61315e-21)
(-0.518219 -0.51672 -5.25908e-21)
(-0.650891 -0.177984 1.41645e-21)
(-0.478673 -0.2736 1.17695e-20)
(-0.477606 -0.328552 0)
(-0.525098 -0.300983 -1.12732e-20)
(-0.532064 -0.0710526 -3.57008e-21)
(-0.700597 -0.446216 -5.25506e-21)