/*--------------------------------*- C++ -*----------------------------------*\
  =========                 |
  \\      /  F ield         | OpenFOAM: The Open Source CFD Toolbox
   \\    /   O peration     | Website:  https://openfoam.org
    \\  /    A nd           | Version:  6
     \\/     M anipulation  |
\*---------------------------------------------------------------------------*/
FoamFile
{
    version     2.0;
    format      ascii;
    class       volScalarField;
    location    "0";
    object      p;
}
// * * * * * * * * * * * * * * * * * * * * * * * * * * * * * * * * * * * * * //

dimensions      [0 2 -2 0 0 0 0];

internalField   nonuniform List<scalar> 
918
(
0.546164
0.629069
-0.0145381
0.513373
0.00389277
0.593686
-0.796808
0.378535
0.532326
-0.148319
-0.00129716
0.439916
0.462997
0.194586
-1.29881
0.0274493
0.528498
-0.852037
0.398497
0.0153486
0.298557
0.5635
0.524831
0.427039
0.47548
0.252355
0.347217
-0.0169886
0.00142068
-0.0178682
0.00486101
0.0138962
0.0233714
0.466448
0.513173
0.535115
0.429157
0.150983
-0.543271
-0.595919
-0.613751
-0.918041
0.408907
0.434408
-0.269844
0.338901
0.310838
0.439662
0.517223
0.528363
0.529523
0.539952
0.550904
0.255938
-0.183938
-0.249312
-0.115956
-0.0960311
0.0758861
-0.0171106
-0.015374
0.00580729
-0.010164
0.395582
0.434298
0.428964
0.446217
0.440325
0.553154
0.524707
0.54641
0.479062
0.49119
0.433043
0.370785
0.16728
0.184288
0.188678
0.156829
-1.55501
-2.0727
-0.944365
-0.756635
0.00534397
0.0195317
0.0328707
0.528509
0.53699
0.515465
0.522111
0.626118
-0.755764
-1.01963
0.473403
0.45277
0.533937
0.508565
0.415967
0.444449
-0.00195796
-0.000487114
0.000452501
0.0205248
-0.011484
0.160058
0.179207
0.365321
0.407547
0.438705
0.44801
0.44305
0.222488
0.483041
0.490373
0.0173606
0.168182
0.214417
0.225005
0.269639
0.203175
0.353687
0.360147
0.0127052
0.0110151
0.0231491
0.0136296
0.0145824
0.421902
0.41193
0.443686
0.42821
0.444438
0.0450889
-0.121769
0.258642
0.403738
-0.379088
-0.390888
-0.832543
-0.768519
-0.981663
0.717828
0.445732
0.472368
-0.212427
-0.182121
-0.295525
-0.118406
-0.167696
0.463879
0.439751
0.448935
0.427075
0.438137
0.441323
0.53534
0.528879
0.531855
0.246941
0.320389
0.234114
0.180153
-0.510487
-0.293706
-0.511197
-0.0677633
-0.0611379
0.0651285
0.0846794
0.0756687
0.0380431
-0.0558532
-0.0147081
-0.0231995
0.00867626
0.00849544
0.400988
0.374074
0.38666
0.398156
0.435684
0.428299
0.424148
0.42977
0.329765
0.39301
0.393774
0.360415
-2.59509
-4.28194
-0.55743
-0.413228
0.0187259
0.00910699
0.00336587
-0.0104163
0.00172888
-0.00362849
0.0605543
0.0689372
0.0169586
0.0382432
0.519064
0.527331
0.617872
0.669737
0.558578
0.561824
0.439116
0.445886
0.447204
0.445336
-0.00174668
-0.00813091
-0.00839789
0.269243
0.189358
0.230888
0.199759
0.105088
0.257195
0.295539
0.512378
0.512257
0.524892
0.0945561
0.0980992
0.398904
0.428709
0.380552
0.409433
0.461665
0.484199
0.459294
0.396428
0.413254
0.405941
0.438719
0.436684
0.439697
0.443687
0.43164
0.434668
-0.202048
-0.424717
0.646256
0.590738
0.477441
0.556662
0.691058
0.722808
0.508505
0.477779
0.49977
-0.0765643
-0.100149
0.175094
0.145312
0.338072
0.347151
0.340779
0.32811
0.182286
0.29714
0.274118
0.225585
0.298282
-0.372782
-1.42073
-0.781879
-0.0519909
-0.281076
-0.135885
0.0356915
0.0654062
0.0471191
0.645882
0.685143
0.358977
0.470945
0.455138
0.180455
0.154164
0.258377
0.184512
0.210755
0.247999
0.169312
0.677349
0.654895
0.697733
0.690281
0.714718
0.0548403
0.0197261
-0.0162463
0.106007
0.115751
0.116782
0.664835
0.693649
0.718753
0.369195
0.437964
0.019626
0.0141234
0.496334
0.475037
0.00736922
0.0190037
-0.280277
-1.18629
0.145595
0.447993
0.437422
0.471916
-0.139242
0.20201
-0.0126322
0.0722859
0.048831
0.425559
0.38895
0.352716
0.0108696
0.017796
-0.0301209
-0.351869
0.449241
0.439644
0.467134
0.47015
0.504573
-0.00439098
0.00774103
0.0253975
-0.0317937
0.000223301
0.0252062
0.429137
0.42018
-0.206972
0.453057
0.461015
0.488035
0.451676
0.472795
0.48872
0.00697575
0.0231501
0.025715
0.145416
0.287542
0.0177665
0.247866
-0.262302
-0.349299
-0.502883
-0.0825207
0.0366073
-0.139989
0.131745
0.425839
0.335572
0.204643
0.0342352
0.156708
0.0912098
0.440976
0.449949
0.423035
0.460301
0.45334
0.443121
0.459281
0.444515
0.448251
0.463295
-0.0646963
-0.10301
-0.129939
-0.189781
0.244676
0.338423
0.160423
0.207611
0.123644
-0.0166205
0.0163612
-0.00767946
-0.0128602
0.033697
0.0629402
0.031363
0.0685031
0.0231928
0.0433542
0.0158787
0.0235699
-0.00226679
0.413435
0.41916
0.416328
0.445372
0.407791
0.403939
0.388521
0.380166
0.411029
0.352003
0.341415
0.357963
0.0212374
0.0174442
0.0117427
0.0444635
0.0197574
-0.0178323
-0.0313405
-0.0528604
-0.0331791
-0.0261287
-0.0114709
-0.00448662
-0.280787
-0.448999
0.575026
0.507812
0.259558
0.463147
0.464402
0.449303
0.438456
0.472428
0.488854
0.48234
0.434958
0.432199
0.439079
0.419264
0.440042
-0.146643
-0.297385
-0.0603516
-0.180213
0.125823
0.488199
0.286244
0.29123
0.272693
0.38754
-0.72016
-0.495845
0.202723
0.249141
-0.884349
-0.632538
-0.81446
-0.621838
-0.528666
0.0965033
0.133018
0.128518
0.110564
0.0264779
-0.14978
0.4679
-0.054191
-0.0121027
0.239713
0.118661
-0.0261354
0.459179
0.477052
0.300153
0.263526
0.389656
0.374033
0.385508
0.371393
0.394594
0.39542
0.171152
0.225486
0.173848
0.49046
0.409746
0.416727
0.375305
0.462242
0.458605
0.455262
0.456461
0.466413
0.443073
0.445788
0.438347
0.422207
0.449589
0.435418
0.429197
-0.0763796
-0.0534209
-0.151335
-0.231155
-0.192307
-0.279283
-0.138168
0.0550639
-0.050504
0.185839
0.277885
0.0764628
-0.150858
-0.0622545
-0.053496
0.123234
0.070185
0.06319
0.146827
0.14452
0.0966462
0.188298
0.178529
0.0305322
0.0517258
0.00613283
0.00604751
0.0886222
0.0884423
0.102871
0.0365458
0.0526458
0.00685249
0.0117206
0.0477931
0.0554642
0.0708438
0.025891
0.00259989
0.0170042
0.0217319
0.0171897
0.0792866
0.0353014
0.435723
0.435043
0.434129
0.42216
0.440371
0.454544
0.39344
0.410523
0.427363
0.417445
0.391389
0.385575
0.384257
0.405254
0.40493
0.412979
0.443614
0.436333
0.409474
0.414961
0.382712
0.398809
0.349467
0.35088
0.376275
0.0116167
-0.00611913
-0.00713217
0.00770113
7.30499e-05
0.0106893
0.0467615
0.0540148
0.0786561
0.0435641
0.0670252
-0.046463
-0.00658277
-0.11219
-0.00106193
-0.256693
-0.307998
-0.388861
0.561902
0.613754
0.493402
0.408559
0.453139
0.51313
0.540847
0.361378
0.424408
0.416361
0.637719
0.631677
0.405153
0.389216
0.448369
0.430039
0.42929
0.0045842
0.1659
0.189591
0.29606
0.314175
0.31109
0.356086
0.348834
0.457869
0.417106
0.477705
0.491986
0.46105
0.486539
0.508363
0.324095
0.412773
0.460035
0.422553
0.422788
0.435055
0.420577
0.419536
0.404913
0.408145
0.398551
0.336634
0.376072
0.366845
0.378662
0.405354
0.402763
0.400924
0.395032
0.438619
0.428348
0.428393
0.455116
0.445762
0.369902
0.34631
0.362134
0.376922
0.371383
0.356193
0.361505
0.400409
0.504494
0.334984
-0.0842439
0.00458655
-0.14619
-0.125045
-0.0480755
0.193706
-0.270809
-0.325542
-0.696002
0.532253
-0.906819
-0.323695
-0.483766
0.22371
0.210838
0.128774
0.0827063
0.176202
0.468621
0.48256
0.489742
0.36874
0.356887
0.269901
0.315274
0.48705
0.479033
0.501146
0.430714
0.294613
0.340147
0.39997
0.379403
0.307949
0.309855
0.343761
0.24893
0.272521
0.367305
0.363991
0.350347
0.417747
0.465472
0.457194
0.443644
0.36405
0.397669
0.380999
0.4191
0.429598
0.419483
0.455393
0.431175
0.420094
0.427337
0.435639
0.439965
0.422103
0.447724
0.457448
0.487823
0.463039
-0.00705499
0.01108
-0.0270051
-0.0352384
0.0368568
-0.00696704
-0.132282
-0.146379
0.03215
0.00079248
-0.0221648
-0.061634
-0.00844413
0.0282023
0.115047
0.135565
0.129805
0.0660347
0.213599
0.295417
0.324084
0.264654
0.174434
0.180627
0.220292
0.0462077
0.0640524
0.0477845
0.0693899
0.0607948
-0.0376687
-0.0260931
-0.0225645
0.0325744
0.0076339
-0.0354608
0.000429121
0.00359139
-0.00595025
0.00190567
-0.000570479
0.414346
0.381583
0.343984
0.325003
0.348014
0.360751
0.417307
0.422635
0.444068
0.437984
0.429303
0.425189
0.441261
-0.0160602
-1.02168e-05
-0.0249106
0.0201013
0.0167124
-0.0188072
0.0101134
0.27634
0.118931
0.219472
0.0381166
-0.181378
-0.0891051
0.480489
0.593427
0.619587
0.598217
0.550975
0.55473
0.607531
0.629353
0.412024
0.503615
0.424312
0.608891
0.596302
0.634716
0.509346
0.373944
0.537839
0.632069
0.405823
0.400914
0.44409
0.290204
0.310507
0.37824
0.541422
0.379752
0.378688
0.440215
0.390358
0.409828
0.44942
0.420181
0.493128
0.304039
0.307371
0.21802
0.454367
0.480109
0.50683
0.472771
0.492592
0.458459
0.46463
0.468453
0.490726
0.478668
-0.472531
-0.241712
-1.17614
-1.10335
-0.593234
0.427954
0.577038
-0.0664668
0.260141
-0.115732
0.096327
0.286809
0.335278
0.32533
0.252128
0.359624
0.411737
0.418869
0.359753
0.283403
0.230212
0.449804
0.458574
0.434361
0.453582
0.457933
0.457746
0.401898
0.431912
0.41288
0.440863
0.439398
0.440331
0.0955161
0.0652345
0.0964078
0.0595962
0.017019
0.0697021
-0.0304253
-0.0593483
-0.000559424
0.0297294
0.0076737
0.0297651
0.300845
0.292694
0.0926483
0.210449
0.0454082
-0.0817757
-0.0973009
0.0569808
0.174558
0.171127
0.429321
0.525727
0.459159
0.493979
0.409236
0.453889
0.572612
0.51294
0.572637
0.508681
0.514215
0.102784
-0.164677
-0.242521
-0.719493
-0.244645
0.139536
0.0109077
-0.301383
-0.489116
0.43712
0.435712
0.386838
0.370826
0.353971
0.0850532
0.140503
0.366309
0.622932
0.441777
0.345378
0.373267
0.496659
0.474839
)
;

boundaryField
{
    wall-4
    {
        type            zeroGradient;
    }
    velocity-inlet-5
    {
        type            zeroGradient;
    }
    velocity-inlet-6
    {
        type            zeroGradient;
    }
    pressure-outlet-7
    {
        type            fixedValue;
        value           uniform 0;
    }
    wall-8
    {
        type            zeroGradient;
    }
    frontAndBackPlanes
    {
        type            empty;
    }
}

