/*--------------------------------*- C++ -*----------------------------------*\
  =========                 |
  \\      /  F ield         | OpenFOAM: The Open Source CFD Toolbox
   \\    /   O peration     | Website:  https://openfoam.org
    \\  /    A nd           | Version:  6
     \\/     M anipulation  |
\*---------------------------------------------------------------------------*/
FoamFile
{
    version     2.0;
    format      ascii;
    class       volScalarField;
    location    "0";
    object      p;
}
// * * * * * * * * * * * * * * * * * * * * * * * * * * * * * * * * * * * * * //

dimensions      [0 2 -2 0 0 0 0];

internalField   nonuniform List<scalar> 
13046
(
1.43539
1.33458
1.51115
1.42045
1.50667
1.38559
1.38845
1.38347
1.52275
0.845854
0.981451
1.51282
1.40087
1.29549
1.52087
1.02009
1.5089
0.985686
1.50142
1.45156
1.3879
0.989233
1.51286
0.990401
1.43543
1.38825
1.49316
1.38188
1.28272
1.52207
1.45713
1.30353
1.50382
1.45355
1.49134
1.39447
1.44665
1.49288
1.41624
1.4896
1.4749
1.26156
1.43758
1.47661
1.44769
1.42808
1.47536
1.4489
1.40812
1.33667
1.51613
1.42552
1.52246
1.17641
1.423
1.14496
1.53275
1.05323
1.32924
1.50101
1.24605
1.29259
1.53875
1.52197
1.10306
1.08571
1.37083
1.05219
1.49191
1.39858
1.06821
1.4903
1.0265
1.30092
1.50173
1.50239
1.46727
1.35805
1.50987
1.22368
1.02837
1.42093
1.38437
1.49926
1.51817
1.0764
1.03464
1.01011
1.53103
1.1625
1.53167
0.892692
1.19204
1.28319
1.24098
1.20462
1.195
1.52418
1.53044
1.53465
1.01305
1.18671
1.42217
1.4885
1.43535
1.5407
1.2111
1.41786
1.50847
1.45031
1.21602
0.603624
1.50492
0.874843
1.4102
1.31827
1.51313
1.26064
1.29021
1.14507
1.51994
1.17952
1.51979
0.798837
0.949385
1.51086
1.35255
1.22676
1.52998
1.47797
1.48282
1.26077
1.53037
0.934548
1.22245
1.16531
1.1781
1.53056
1.44433
1.28471
1.50492
1.30436
1.37572
1.52768
1.51035
1.433
1.21139
1.53267
1.24135
1.42435
1.23446
1.26352
1.53674
1.53804
1.31788
1.41739
1.3773
1.13643
1.35498
1.12844
1.54009
1.54215
1.28615
1.37165
1.52902
0.827879
1.51544
1.00468
0.686352
1.50625
0.899069
1.15091
1.15281
1.52927
1.48628
1.18698
1.48603
1.29318
1.52673
1.38945
1.52319
1.05407
0.84841
1.4901
1.21467
1.4764
1.53848
1.29226
1.41505
1.32542
1.38122
1.52207
1.28816
1.53345
1.36428
1.25406
1.52382
0.990349
1.52462
1.11085
1.53565
0.99686
1.21854
0.908613
1.16639
1.52651
1.42247
1.10921
1.51643
1.35661
1.24782
1.50424
1.01714
1.131
0.884329
1.52856
1.42555
1.49845
1.42141
1.4061
1.28238
1.51622
1.53649
0.973182
1.23252
1.33718
1.30668
1.53697
1.51281
0.958062
0.700864
1.52173
1.105
1.40809
0.965501
1.18974
1.53069
1.2026
1.3659
1.54251
1.34703
1.21819
1.52692
1.29078
1.00135
1.53199
1.09158
1.33969
1.53676
1.51204
0.962437
0.647317
1.51548
1.46655
1.19554
0.659378
1.50132
0.814101
1.49921
1.39662
1.43463
1.22818
1.23462
1.34294
1.36658
1.54358
1.53319
1.50329
1.18164
1.00984
1.38399
1.22667
1.51671
1.08173
1.31104
1.54297
1.20746
1.16089
1.52434
1.45497
1.43396
1.47648
1.1687
1.3456
1.54223
1.39244
1.2001
1.51547
1.35295
1.34197
1.52155
1.46109
1.17187
1.16066
1.32116
1.54086
1.15692
1.52412
1.15207
1.52629
1.45191
1.24039
1.54264
1.11004
1.37488
1.31812
1.1383
1.51033
1.52121
1.43669
1.16954
1.28368
1.25889
1.12101
1.51092
1.12132
1.51771
1.52093
1.0647
0.896771
1.31689
1.19062
1.51971
0.781355
1.50384
0.456814
1.3547
1.51141
1.41898
1.27697
1.30547
1.53477
1.52694
1.04669
1.13387
1.41643
1.11174
1.53212
1.26645
0.99197
1.53471
1.34124
1.52615
1.27076
1.27082
1.53195
1.342
1.53109
1.07691
1.50972
1.0101
1.43401
1.08034
1.51808
1.24457
1.25615
1.5299
1.28375
1.37186
1.53651
1.21157
1.41635
1.53202
1.42634
1.35377
1.51288
1.52898
1.11445
1.3878
0.956305
1.1316
1.52481
1.2664
0.997552
1.53637
1.42351
1.47931
1.09264
1.25103
1.2818
1.08685
1.06511
1.50466
1.50616
1.50217
0.79828
0.523129
0.710758
1.50271
0.832392
1.20457
1.32758
1.53018
1.5218
0.967339
1.08161
1.3685
1.34936
1.11458
1.10896
1.50301
1.50467
1.51949
1.10099
0.77088
0.624517
1.50007
0.772481
1.39373
1.48408
1.46794
0.594916
0.831072
1.50325
1.46632
1.19275
1.49045
0.864053
1.0743
1.52507
0.813371
1.50303
0.307928
1.49565
1.468
1.28824
1.37711
1.4334
1.5057
0.818265
1.51129
0.932623
1.35845
1.42612
1.51199
1.41118
1.47922
1.46725
1.53709
1.0705
1.40441
1.3417
1.46253
1.50377
1.3585
1.42939
1.50723
1.44875
1.09746
1.47306
1.51508
1.51857
1.00274
1.00851
0.939577
0.915744
0.89708
1.12041
1.52289
1.48754
1.41611
1.06113
1.49501
1.4656
1.2197
1.06627
1.3409
1.52997
0.918062
1.50695
0.420402
1.53077
0.87713
1.16841
0.720752
1.50971
0.931692
1.50216
0.778987
0.274899
0.726868
1.50073
0.362103
1.28068
1.15054
1.53344
1.03603
1.51354
0.622903
1.12268
1.18291
1.53169
0.95951
1.50141
0.912661
1.38437
1.51759
1.34921
1.12441
1.52424
0.814342
1.08116
1.53036
1.35518
1.2972
1.08431
1.54505
1.50072
0.633691
0.0807622
0.821321
1.50405
0.410235
1.40342
1.51864
1.35913
1.08229
0.76884
1.51833
1.51979
0.710701
1.08816
0.98023
1.51892
1.07183
1.50919
1.037
1.1463
1.47709
1.07595
1.47198
1.08045
1.32059
1.50904
1.50639
1.10813
0.971528
1.43096
1.41463
1.22263
1.20058
1.50441
1.51075
1.45062
1.22007
1.49712
1.39829
1.0929
1.50267
1.27767
1.04103
1.53651
1.11481
0.881565
1.52981
1.53391
1.04259
1.241
0.732529
1.50146
0.429054
1.48673
1.46864
1.49194
1.29448
1.49821
1.31122
1.44014
1.43535
1.48833
1.12668
1.49575
1.15272
0.842808
1.50485
0.312539
1.09141
0.815277
1.52047
1.49616
1.45495
1.16481
1.31053
1.03115
1.53539
1.50835
1.04244
1.18133
0.893469
0.546713
1.50754
0.930149
0.576262
1.50943
1.3473
1.13361
1.51333
1.53116
1.44191
1.26397
0.943147
1.51708
1.03975
1.27515
1.11286
1.54103
1.52516
1.11305
1.13294
1.45393
1.48577
1.14924
1.21184
1.38288
1.5356
1.50175
1.46791
1.24226
1.51784
1.0387
0.891456
1.2161
1.13793
1.52133
1.49469
1.47634
1.30395
1.05708
1.50338
0.944926
1.43334
1.27108
1.50531
1.34085
1.39222
1.53147
1.30517
1.11638
1.53879
0.809879
1.50205
0.860317
0.858205
1.50165
0.865681
1.52215
1.09303
1.13808
1.1706
1.39193
1.53059
1.49887
0.822215
0.744092
1.52975
1.15975
1.08084
1.5024
0.757535
0.193718
0.311608
0.681635
1.49877
1.51066
0.99759
1.11342
1.51602
0.997771
0.768779
1.00593
1.04358
1.51196
1.01804
1.5155
1.05025
1.05695
1.17899
1.53085
1.54487
1.33256
1.02018
1.46839
1.49585
1.34209
1.07434
1.21905
1.53729
1.53898
1.08626
1.23894
1.14935
1.50442
0.973391
1.431
1.10261
1.49538
1.44743
1.1747
1.48933
1.17516
1.25845
1.53843
1.14975
1.25668
1.53916
1.49769
1.46596
1.33311
1.4149
1.17663
1.51301
1.52614
1.14348
0.806959
0.543578
1.51073
0.951705
0.486322
1.50882
0.954238
1.47616
1.48796
1.23715
0.872667
1.50535
0.462313
1.1841
1.52056
1.1035
1.5059
0.885026
0.401343
1.42023
1.5058
1.40564
1.33523
1.27361
1.52746
1.40434
1.18016
1.53196
1.51651
1.05401
0.682631
1.27931
1.11169
1.54145
1.50372
1.01199
0.945224
1.29878
1.26056
1.53321
1.47143
1.49666
1.35781
1.04417
0.723046
1.51871
1.52762
1.12787
1.08837
0.781621
0.728916
1.50473
1.50442
0.89985
0.876935
1.26374
1.34602
1.53936
1.29785
1.17555
1.53254
1.36592
1.38618
1.52845
0.989466
0.604887
1.00174
1.51343
0.591467
1.51377
1.23513
1.2152
1.53539
0.718463
0.661703
1.02045
0.996142
1.51703
1.51324
1.17539
1.32144
1.5471
1.31951
1.31478
1.53095
0.911953
1.50499
0.906617
1.29235
1.32281
1.53765
1.35768
1.36168
1.52673
0.81263
1.50258
0.890316
1.31307
1.2251
1.52501
1.37299
1.05053
1.53217
1.46705
1.12149
1.4799
1.24521
1.53052
0.938538
1.50089
0.672496
0.154997
1.28482
1.29663
1.53334
0.94401
1.50732
0.960685
1.45395
1.07663
1.49902
0.472424
1.49722
0.731985
1.52558
1.52057
1.4285
1.29333
1.43007
1.26603
1.36319
1.39853
1.52325
1.50407
1.51545
1.45346
1.28936
1.45556
1.29025
1.30887
1.33449
1.53806
1.31359
1.34354
1.53811
1.51119
0.980376
0.51389
1.4628
1.24133
1.4904
0.776727
1.02417
1.51807
1.16952
1.13538
1.23104
1.20745
1.53275
1.53056
1.44794
1.27275
1.49566
1.38843
1.14174
1.5013
1.22792
1.25564
1.53844
1.47012
1.39231
1.47657
1.11407
1.22569
1.53663
1.47207
1.48368
1.33954
1.20779
1.30587
1.54319
1.38063
1.16924
1.50392
1.47224
1.48285
1.37006
1.48665
1.36417
1.47781
1.50088
1.45182
1.51439
1.33734
1.46178
1.30724
1.4263
1.41193
1.24601
1.24846
1.50929
1.51102
1.5125
1.05605
1.15341
1.52826
1.08071
1.3872
1.51607
1.51808
1.0408
1.06115
1.10565
1.09316
1.51628
1.44261
1.13273
1.4594
1.47541
1.42331
1.10835
1.20256
1.5347
1.48102
1.49078
1.27273
1.36276
1.16604
1.50803
1.22829
1.22941
1.06834
1.51455
1.0905
1.51604
1.19657
1.20718
1.53062
0.533726
0.770349
1.49861
1.44443
1.09663
1.50353
1.48385
1.4847
1.46179
1.09175
1.46921
1.11174
1.06645
1.26211
1.53843
1.40464
1.15014
1.5
1.51278
1.44966
1.13446
1.47385
1.47811
1.4655
1.48462
1.16465
1.16388
1.47164
1.47396
1.12843
1.19827
1.22899
1.53511
1.48333
1.47661
1.34599
0.868652
1.50801
0.946097
1.50771
1.45506
1.11309
1.36664
1.33473
1.18048
1.16858
1.50998
1.51925
1.50897
0.968621
0.916916
0.913873
1.50731
0.927236
0.866028
1.50514
0.92052
1.18993
1.51719
1.0839
1.41365
1.17659
1.50113
1.17437
1.31325
1.42468
1.18192
1.38917
0.945632
1.35088
1.20815
1.22878
1.38162
1.3786
1.21731
1.1948
1.37949
1.30529
1.22594
1.18631
1.31098
1.3136
1.35431
1.31804
1.30214
1.39039
1.49817
1.44144
1.3169
1.40022
1.22972
1.33331
1.1771
1.2423
1.34593
1.32441
1.3054
1.26308
1.33461
1.42951
1.38828
1.2118
1.28382
1.30033
1.49684
1.2732
1.37717
1.38245
1.30471
1.30935
1.30454
1.21989
1.28092
1.44521
1.31272
1.23006
1.33095
1.23829
1.44121
1.35909
1.32633
1.31873
1.37257
1.28064
1.2766
1.44338
1.2231
1.3287
1.36082
1.32868
1.47062
1.38925
1.35761
1.24247
1.26264
1.27663
1.36452
1.25161
1.30097
1.30288
1.25925
1.36392
1.40767
1.30668
1.32087
1.21667
1.23506
1.29592
1.37058
1.29358
1.18744
1.30631
1.44177
1.23746
1.37344
1.43758
1.30482
1.20708
0.868099
1.26319
1.30925
1.20581
1.23678
1.34821
1.39504
1.38893
1.46989
1.22725
1.16452
1.21954
1.24903
1.26702
1.4281
1.40004
1.34741
1.24064
1.27205
1.28903
1.36825
1.30746
1.18964
1.22415
1.30522
1.311
1.43922
1.45883
1.36824
1.32458
1.27732
1.22801
1.46345
1.11736
1.36104
1.24004
1.43531
1.21966
1.0478
1.15695
1.40766
1.29409
1.19376
1.26148
1.34921
1.21414
1.37265
1.3117
1.25917
1.3858
1.33324
1.22617
1.41788
1.2616
1.31457
1.21661
1.32301
1.21194
1.41291
1.37173
1.3048
1.36672
1.37303
1.42481
1.30444
1.27063
1.25621
1.36403
1.11598
1.26581
1.2232
1.49177
1.30954
1.39988
1.4662
1.32403
1.46903
1.41732
1.42583
1.21893
1.2309
1.22404
1.4257
1.23192
1.21506
1.09896
1.21653
1.30939
1.31806
1.32844
1.46565
1.37036
1.29761
1.37294
1.31763
1.49387
1.02775
1.37824
1.27404
1.23518
1.45235
1.47266
1.26895
1.30494
1.48954
1.33385
1.17751
1.26163
1.36635
1.42293
1.33117
1.23472
1.32101
1.37067
1.31903
1.29948
1.23635
1.09121
1.24968
1.28086
1.32739
1.22794
1.19582
1.39667
1.29519
1.23124
1.31481
1.23777
1.23867
1.34644
1.34875
1.22071
1.21809
1.14771
1.35645
1.30921
1.27784
1.34422
1.33083
1.23592
1.3335
1.29649
1.20903
1.30029
1.4162
1.32335
1.4274
1.4191
1.49791
1.21662
1.19873
1.31185
1.31018
1.23517
1.23633
1.33781
1.4446
1.36563
1.32914
1.22576
1.29142
1.32825
1.31934
1.33838
1.26071
1.31696
1.2997
1.07781
1.23485
1.26771
1.23148
1.27601
1.34862
1.32425
1.3057
1.35407
1.20878
1.3066
1.29139
1.31101
1.28606
1.31869
1.33162
1.21795
1.17736
1.31186
1.2153
1.20379
1.32595
1.05081
1.20616
1.40898
1.34716
1.25313
1.30384
1.24559
1.34419
1.23056
1.07936
1.21829
1.3757
1.3076
1.36357
0.943262
1.21226
1.41025
1.29767
1.16243
1.16968
1.21646
1.22844
1.20921
1.32739
1.35989
1.24488
1.21372
1.27562
1.28178
1.4949
1.14942
1.36908
1.33675
1.05328
1.26515
1.23263
1.23821
1.34519
1.32102
1.44774
1.32735
1.21273
1.30273
1.31512
1.49886
1.33746
1.43061
1.37178
1.29282
1.32997
1.30982
1.27004
1.22102
1.30326
1.19776
1.33892
1.31242
1.23819
1.22172
1.2231
1.21628
1.18864
1.40022
1.23766
1.26992
1.42485
1.38828
1.23925
1.24968
1.4266
1.24817
1.04022
1.2986
1.24493
1.22637
1.41367
1.29874
1.28682
1.40914
1.24038
1.32623
1.25672
1.32681
1.3044
1.28352
0.883718
1.2401
1.24082
1.256
1.3054
1.30111
1.359
1.44573
1.20797
1.28093
1.21629
1.12763
1.211
1.39285
1.31618
1.26034
1.2567
1.33172
1.21519
1.18166
1.2125
1.24658
1.31705
1.43554
1.28823
1.34071
1.48075
1.39613
1.37986
1.43084
1.18869
1.27598
1.22683
1.49405
1.37708
1.40214
1.30102
1.29196
1.23635
1.35019
1.24591
1.14141
1.40172
1.3258
1.12654
1.23472
1.25222
1.22246
1.25849
1.30356
1.30474
1.21326
1.27119
1.22075
1.26673
1.23447
1.31726
1.20082
1.23169
1.4256
1.44054
1.37036
1.33193
1.33044
1.03432
1.37549
1.31569
1.20026
1.42266
0.993872
1.44973
1.26154
1.31338
1.29994
1.36659
1.35933
1.20877
1.46817
1.20568
1.40146
1.31684
1.2952
1.27569
1.1781
1.28385
1.40453
1.28379
1.49141
1.35715
1.21714
1.1596
1.35251
1.01641
1.33126
1.31626
1.22815
1.45075
1.11333
1.10062
1.38091
1.31066
1.44789
1.48104
1.28878
1.49233
1.45125
1.4035
1.40608
1.33873
1.21891
1.27601
1.3077
1.39537
1.28538
0.987793
1.46744
1.25267
1.28931
1.27168
1.43091
1.49203
1.28175
1.39717
1.32786
1.44571
1.23258
1.37649
1.27562
1.46737
1.48783
1.36158
1.27128
1.36904
1.23331
1.22753
1.31822
1.28941
1.33282
1.1784
1.00765
1.22584
1.29728
1.34228
1.31206
1.41452
1.2769
1.23719
1.33516
1.22577
1.43738
1.18445
1.27556
1.40785
1.40706
1.31864
1.47351
1.20681
1.30209
1.37752
1.26879
1.20621
1.30908
1.28096
1.34796
1.36497
1.27902
1.2385
1.3234
1.22972
1.21598
1.44136
1.47024
1.48926
1.20025
1.48852
1.49079
1.45528
1.22278
1.3444
1.33638
1.47206
1.32731
1.1948
1.22864
1.26913
0.970253
1.4637
1.30288
1.30214
1.37908
1.36044
1.2994
1.2791
1.49081
1.45542
1.42702
1.35061
1.27608
1.33791
1.35124
1.32338
1.28313
1.27198
1.28241
1.30528
1.31822
1.26531
1.43226
1.44598
1.21209
1.40598
1.25101
1.22486
1.26716
1.42924
1.30321
1.35059
1.30888
1.42736
1.31525
1.3135
1.48464
1.2433
1.22379
1.21601
1.22182
1.18731
0.839814
1.23489
1.20941
1.32146
1.20724
1.27536
1.31816
1.26172
1.23009
1.2675
1.27856
0.87
1.44971
1.35822
1.30997
1.22292
1.35795
1.28014
1.19313
1.48339
1.24057
1.48187
1.29116
1.41482
1.19331
1.07833
1.26784
1.30639
1.31347
1.32287
1.08292
1.32083
1.29641
1.2256
1.20115
1.25185
1.27302
1.46059
1.17772
1.36131
1.38046
1.33506
1.31169
1.38278
1.22289
0.845207
1.31426
1.22619
1.19191
1.36725
1.37162
1.30955
1.34717
1.28911
1.48444
1.44792
1.30197
1.28487
1.47052
1.4201
1.3464
1.34107
1.31356
1.48965
1.27362
1.21041
1.43268
1.39291
1.44707
1.32313
1.28844
1.26509
1.37301
1.34716
0.777691
1.49869
1.31332
1.22403
1.31335
1.3745
1.47539
1.48334
1.34371
1.27754
1.38243
1.4162
1.40034
1.36829
1.39823
1.08629
1.22847
1.32022
1.2238
1.08532
1.22534
1.31311
1.3832
1.23752
1.31523
1.19406
1.33579
1.48444
1.29976
1.23432
1.21492
1.29114
1.3084
1.25753
1.23719
1.40937
1.33309
1.33669
1.2047
1.34156
1.26479
1.24721
1.36045
1.38151
1.41118
1.49222
1.22981
1.41326
1.21743
1.43214
1.43998
1.44678
1.38518
1.22566
1.22333
1.30371
1.19805
1.26661
1.24747
1.28926
1.20837
1.39032
1.32809
1.20823
1.40587
1.33269
1.30693
1.31572
1.35789
1.41915
1.33715
1.31488
1.21469
1.39541
1.21577
1.44309
1.19498
1.31922
1.43369
1.3716
1.47544
1.37584
1.31869
1.17146
1.22383
1.3129
1.25506
1.45962
1.1833
1.18954
1.30491
1.30532
1.33953
1.20841
1.39954
1.36968
1.33898
1.01205
1.31074
1.15469
1.20768
1.30522
1.30471
1.29155
1.27524
1.38835
1.22297
1.47909
1.30788
1.1958
1.35555
1.33442
1.45302
1.2894
1.27517
1.22164
1.27798
1.294
1.45413
1.26217
1.31755
1.31866
1.39232
1.26348
1.32071
1.26395
1.48526
1.19979
1.21763
1.14476
1.39066
1.21022
1.24138
1.22603
1.24514
1.43912
1.3095
1.35651
1.4158
1.34977
1.19027
1.48579
1.22947
1.34388
1.35088
1.29078
1.21923
1.31177
1.29604
1.21382
1.29646
1.13131
1.22047
1.31779
1.16344
1.24959
1.39001
1.25609
1.28439
1.29965
1.43694
1.30105
1.22807
1.34903
1.23806
1.25614
1.31731
1.30744
1.33357
1.33989
1.4356
1.32935
1.39153
1.32822
1.41381
1.46281
1.46147
1.20338
1.28277
1.32863
1.20965
1.47402
1.41383
1.39543
1.31095
1.2203
1.21221
1.33093
1.37442
1.20314
1.39387
1.40502
1.3491
1.22691
1.24429
1.23894
1.16857
1.30886
1.20839
1.33442
1.24346
1.3411
1.24874
1.30249
1.20297
1.33189
1.32992
1.35623
1.29689
1.33345
1.43883
1.44633
1.32853
1.29427
1.39019
1.32466
1.25558
1.27505
1.31458
1.24068
1.43054
1.30642
1.32649
1.37288
1.36975
1.30599
1.12452
1.4854
1.32355
1.29362
1.3162
1.31795
1.39132
1.4387
1.32486
1.34046
1.20109
1.26223
1.29536
1.34651
1.32186
1.32584
1.30885
1.4449
1.33616
1.32498
1.4184
1.32978
1.22442
1.29521
1.4737
1.25484
1.20596
1.2936
1.47841
1.29025
1.31193
1.38841
1.37532
1.39979
1.3152
1.21282
1.34278
1.2674
1.29351
1.40615
1.30376
1.21427
1.20659
1.29461
1.34811
1.26219
1.22822
1.41393
1.3057
1.48657
1.39692
1.21345
1.19036
1.30266
1.37292
1.41951
1.30699
1.29466
1.15459
1.3014
1.2895
1.49066
1.42714
1.38057
1.23253
1.20324
1.40349
1.49351
1.4399
1.39212
1.419
1.29818
1.27959
1.193
1.20702
1.44943
1.32063
1.09266
1.2532
1.49102
1.31096
1.22632
1.21763
1.31168
1.27248
1.45062
1.33989
1.36163
1.43208
1.40502
1.28597
1.35112
1.30861
1.33002
1.24831
1.34662
1.27992
1.45564
1.08587
1.32574
1.07179
1.29881
1.43808
1.3319
1.40483
1.41093
1.42785
1.25631
1.31065
1.29798
1.17557
1.44918
1.32739
1.28535
1.33848
0.959652
1.2541
1.41291
1.35315
1.44881
1.20191
1.22734
1.3062
1.45984
1.11665
1.27979
1.29067
1.1142
1.22106
1.41643
1.22823
1.2967
1.21704
1.44369
1.47914
0.964587
1.40174
1.31774
1.25672
1.22257
1.31748
1.2635
1.32712
1.25497
1.312
1.29672
1.36362
1.30807
1.40249
1.27945
1.21412
1.28762
1.20052
1.22593
1.30499
1.17108
1.30133
1.26126
1.31371
1.40328
1.33368
1.31301
1.07048
1.40667
1.2989
1.29146
1.50094
1.32187
1.31328
1.13207
1.09201
1.46623
1.2429
1.31322
1.34829
1.26481
1.41207
1.0782
1.40946
1.30408
1.38209
1.2919
1.35439
1.30713
1.22669
1.26674
1.30324
1.43213
1.19373
1.22601
1.26781
1.45517
1.47907
1.14645
1.28635
1.32214
1.4201
1.29167
1.43897
1.4176
1.39662
1.38088
1.3297
1.30254
1.27277
1.44946
1.27929
1.31454
1.1511
1.22183
1.2668
1.21795
1.46964
1.09894
1.42621
1.28356
1.46116
1.31735
1.47344
1.38075
1.36595
1.46223
1.44195
1.49897
1.30455
1.42546
1.28667
1.31422
1.23376
1.25792
1.44802
1.10158
1.32927
1.34778
1.30838
1.33588
1.30519
1.41851
1.31186
1.37509
1.20398
1.23817
1.32078
1.43827
1.15099
1.35783
1.23213
1.31938
1.21694
1.30044
1.3325
1.39603
1.45539
1.21833
1.32554
1.30927
1.31966
1.40804
1.17042
1.21518
1.46119
1.19984
1.29539
1.37472
1.44337
1.48376
1.2245
1.25252
1.2415
1.25651
1.17943
1.30899
1.34265
1.30809
1.24494
1.3002
1.30963
1.26968
1.18128
1.26956
1.3151
1.23421
1.39059
1.38156
1.20736
1.38094
1.07648
1.25488
1.13954
1.23941
1.47272
1.31362
1.31828
1.30565
1.39725
1.44889
1.3247
1.37397
1.18806
1.30441
1.29827
1.31761
1.2257
1.44964
1.32017
1.29839
1.47411
1.39175
1.25125
1.46331
1.20866
1.32917
1.32482
1.34486
1.17582
1.42995
1.30602
1.33573
1.31721
1.25986
1.22684
1.25556
1.38023
1.40918
1.42966
1.31008
1.3312
1.43974
1.3622
1.30623
1.28945
1.25386
1.29487
1.40459
1.22304
1.41787
1.30841
1.42704
1.48195
1.45332
1.30134
1.37522
1.4164
1.03995
1.4367
1.13886
1.45763
1.39839
1.30313
1.29787
1.30286
1.29972
1.14885
1.18419
1.34225
1.20837
1.4641
1.22715
1.24309
1.17233
1.21585
1.31945
1.40421
1.48268
1.22481
1.34885
1.32334
1.33684
1.29239
1.31335
1.4436
1.40055
1.30568
1.43612
1.40806
1.48175
1.22436
1.25974
1.20033
1.37875
1.46795
1.41262
1.31151
1.47561
1.30621
1.20496
1.29339
1.18856
1.27218
1.227
1.47877
1.4884
1.32869
1.4886
1.40347
1.31775
1.4706
1.24727
1.42426
1.29213
1.44866
1.28794
1.22191
1.37356
1.33523
1.45928
1.43993
1.44643
1.21665
1.20971
1.19324
1.40368
1.40091
1.14687
1.28417
1.40235
1.21641
1.28986
1.23087
1.2778
1.34257
1.27933
1.32487
1.31216
1.32514
1.33189
1.38147
1.29386
1.26961
1.34126
1.328
1.30048
1.42805
1.45277
1.14636
1.39714
1.21335
1.27347
1.43086
1.39295
1.28465
1.45455
1.23201
1.38058
1.28204
1.25187
1.43277
1.29005
1.38532
1.36388
1.36262
1.49652
1.36623
1.24391
1.35871
1.24404
1.38857
1.48876
1.35452
1.29889
1.22274
1.25075
1.43465
1.25535
1.37468
1.21365
1.31061
1.39186
1.38204
1.31475
1.41935
1.47616
1.26721
1.2889
1.3326
1.22287
1.25369
1.32536
1.36532
1.29705
1.23751
1.14717
1.21034
1.37804
1.29841
1.39077
1.24112
1.44332
1.32801
1.41161
1.46347
1.28496
1.44261
1.25053
1.33269
1.28047
1.40581
1.21009
1.29821
1.28609
1.22055
1.28972
1.23464
1.21275
1.2116
1.47387
1.48357
1.30929
1.22208
1.3883
1.21265
1.1584
1.30637
1.37086
1.37312
1.21603
1.21287
1.43973
1.21518
1.34343
1.21805
1.23352
1.29104
1.24336
1.41579
1.33793
1.24906
1.44632
1.41718
1.25171
1.34312
1.30747
1.46549
1.31047
1.28665
1.22496
1.35802
1.44364
1.34842
1.2263
1.24063
1.28724
1.33808
1.473
1.49109
1.21092
1.47858
1.24681
1.33097
1.33644
1.30657
1.27941
1.41183
1.16842
1.33148
1.2051
1.2502
1.20411
1.22532
1.3593
1.44759
1.2488
1.26369
1.33256
1.27853
1.14027
1.1873
1.26058
1.38838
1.02396
1.26849
1.35542
1.33059
1.308
1.3558
1.39827
1.10906
1.10545
1.41481
1.31007
1.1363
1.29386
1.40262
1.36278
1.32936
1.2005
1.32166
1.20855
1.47303
1.4135
1.48712
1.30241
1.36926
1.23581
1.32388
1.42057
1.216
1.24622
1.3816
1.41578
1.22365
1.24577
1.18384
1.1058
1.18806
1.48898
1.28209
1.24026
1.22026
1.2214
1.3762
1.2473
1.24193
1.22948
1.38801
1.29315
1.47648
1.24641
1.2949
1.33728
1.34231
1.29955
1.34707
1.21583
1.48216
1.3919
1.34047
1.41222
1.26603
1.41505
1.35062
1.31027
1.46242
1.20939
1.275
1.48458
1.35223
1.21812
1.26086
1.37682
1.48251
1.32083
1.38849
1.19576
1.23043
1.21718
1.19121
1.4176
1.26242
1.31873
1.45784
1.29594
1.11473
1.22764
1.31852
1.22104
1.28978
1.23338
1.25327
1.28185
1.39839
1.4609
1.35595
1.21994
1.28325
1.20745
1.29628
1.36015
1.33074
1.3255
1.36465
1.28426
1.3104
1.39823
1.41854
1.48627
1.43038
1.46634
1.30281
1.24136
1.23196
1.22117
1.4738
1.32803
1.25155
1.46053
1.24985
1.40235
1.37622
1.24403
1.20544
1.27514
1.31162
1.41729
1.29649
1.3707
1.31796
1.45806
1.34153
1.4956
1.25291
1.31729
1.27413
1.20672
1.28016
1.38626
1.1252
0.948778
1.32616
1.42042
1.39174
1.29329
1.2241
1.21966
1.26479
1.20957
1.2904
1.30602
1.23695
1.38222
1.30982
1.22932
1.38103
1.28057
1.2618
1.40803
1.28617
1.31398
1.2097
1.36585
1.27443
1.23003
1.28657
1.26858
1.25372
1.23067
1.12314
1.3914
1.48726
1.42568
1.33696
1.37592
1.23363
1.47757
1.32618
1.35232
1.18523
1.37401
1.26808
1.28754
1.40445
1.44206
1.38568
1.33377
1.32637
1.49404
1.25378
1.38706
1.46995
1.36421
1.29874
1.22436
1.39285
1.29343
1.25409
1.35826
1.3062
1.45174
1.25122
1.4572
1.48728
1.30979
1.25263
1.46859
1.22115
1.25096
1.28109
1.23732
1.26939
1.25434
1.24547
1.31835
1.21946
1.21752
1.30412
1.33067
1.26735
1.26747
1.35083
1.3206
1.26223
1.4518
1.46727
1.46601
1.22339
1.26065
1.49624
1.2163
1.31268
1.16474
1.30649
1.17385
1.38172
1.30627
1.31381
1.23264
1.20999
1.2608
1.32573
1.25422
1.31361
1.32986
1.30359
1.45977
1.33477
1.34884
1.26633
1.41077
1.26834
1.31336
1.48143
1.25599
1.27909
1.23049
1.367
1.48461
1.2702
1.33521
1.29544
1.24609
1.20617
1.29794
1.21565
1.38297
1.25181
1.301
1.31199
1.30981
1.22539
1.29709
1.30909
1.28523
1.32727
1.45502
1.31428
1.28391
1.32452
1.44405
1.31215
1.21047
1.38197
1.22024
1.30699
1.19383
1.2645
1.28216
1.16116
1.25155
1.48315
1.42195
1.20584
1.31727
1.22446
1.17723
1.21347
1.21954
1.25673
1.24105
1.2582
1.35534
1.49491
1.29371
1.3773
1.31316
1.47283
1.31943
1.48731
1.34649
1.25381
1.34985
1.38391
1.29329
1.39837
1.19343
1.42947
1.28905
0.962098
1.31505
1.49575
1.46435
1.3812
1.35529
1.36577
1.26645
1.28054
1.35206
1.49358
0.987168
1.29446
1.18733
1.27209
1.31663
1.21017
1.21834
1.2611
1.24021
1.23265
1.28374
1.30862
1.4946
1.40716
1.22286
1.39852
1.22176
1.30822
1.39888
1.3144
1.30687
1.35208
1.00738
1.24524
1.32291
1.41871
1.23967
1.26507
1.31724
1.35309
1.21765
1.45195
1.24067
1.32405
1.3131
1.29018
1.35048
1.35685
1.44866
1.19787
1.37796
1.32406
1.34935
1.21991
1.34373
1.27783
1.21066
1.22782
1.30087
1.30539
1.31493
1.41951
1.30934
1.23496
1.3485
1.24779
1.24152
1.30663
1.33051
1.22646
1.49106
1.23712
1.24446
1.25536
1.31412
1.22973
1.16141
1.37111
1.28751
1.31189
1.24495
1.19372
1.30405
1.10525
1.49006
1.44152
1.23654
1.22724
1.41508
1.27235
1.22886
1.21452
1.19051
1.26603
1.32675
1.44618
1.22925
1.25741
1.35507
1.31133
1.23961
1.23871
1.303
1.37407
1.48007
1.23484
1.2038
1.33694
1.41719
1.29299
1.33116
1.30781
1.20015
1.31839
1.35038
1.30139
1.21062
1.39635
1.31299
1.19131
1.32662
1.24034
1.40491
1.49511
1.22838
1.31783
1.30309
1.31312
1.2275
1.32353
1.26742
1.46351
1.39789
1.37115
1.25178
1.25129
1.38952
1.47894
1.27533
1.3242
1.2938
1.21669
1.31201
1.30522
1.21571
1.09743
1.27965
1.28705
1.23956
1.23234
1.33368
1.27904
1.39008
1.24037
1.23667
1.2791
1.22359
1.40353
1.21962
1.32758
1.30797
1.21517
1.33459
1.34196
1.33787
1.30846
1.38589
1.24316
1.23774
1.43472
1.20431
1.42904
1.34085
1.2833
1.29918
1.42609
1.31266
1.21581
1.4536
1.19731
1.29706
1.41622
1.20706
1.46118
1.2414
1.31228
1.03761
1.31632
1.22246
1.32401
1.2651
1.19922
1.27663
1.21265
1.22398
1.44584
1.21582
1.30245
1.33738
1.3156
1.48135
1.48439
1.28417
1.22071
1.40814
1.27187
1.44672
1.23699
1.29059
1.33307
1.28732
1.41094
1.30762
1.3118
1.25678
1.3172
1.16541
1.19029
1.42835
0.877317
1.43813
1.37025
1.2542
1.22604
1.28348
1.48788
1.35533
1.35621
1.31673
1.33577
1.30588
1.4251
1.39102
1.22357
1.34521
1.4525
1.30297
1.32141
1.32985
1.22887
1.23047
1.36111
1.32115
1.30087
1.4624
1.22006
1.24153
1.32089
1.28906
1.29587
1.45873
1.24632
1.26016
1.26265
1.29849
1.24349
1.43774
1.22819
1.29461
1.27731
1.28551
1.21692
1.21803
1.34963
1.2314
1.22096
1.42251
1.29868
1.34601
1.22228
1.2189
1.27528
1.4193
1.47489
1.34585
1.30033
1.30054
1.40319
1.45536
1.24668
1.44899
1.27084
1.35296
1.34798
1.43385
1.30628
1.42551
1.4413
1.21357
1.18431
1.30197
1.28736
1.28755
1.08547
1.09559
1.37798
1.40877
1.22798
1.45469
1.3144
1.38657
1.31306
1.23008
1.40626
1.39281
1.30303
1.2116
1.22858
1.48664
1.37355
1.49629
1.21211
1.28475
1.32271
1.41445
1.35252
1.38026
1.3022
1.45404
1.28932
1.28893
1.32022
1.28997
1.33376
1.06378
1.40397
1.31324
1.32813
1.44883
1.2093
1.22858
1.24356
1.2759
1.42879
1.25229
1.34858
1.07356
1.25197
1.30029
1.2529
1.2325
1.38788
1.24436
1.23866
1.30799
1.32782
1.44091
1.28545
1.29899
1.42939
1.29306
1.46852
1.30871
1.36865
1.29236
1.25606
1.48986
1.22306
1.2697
1.33265
1.44692
1.37071
1.30925
1.1875
1.49405
1.32064
1.29211
1.38491
1.47904
1.37573
1.35605
1.21668
1.20454
1.31162
1.2242
1.31247
1.32282
1.21858
1.44406
1.48244
1.45229
1.32868
1.31401
1.22255
1.28841
1.36148
1.23614
1.36069
1.46086
1.277
1.31491
1.30979
1.38845
1.35315
1.31297
1.22135
1.37548
1.18927
1.05584
1.26998
1.5017
1.20805
1.40183
1.3024
1.18705
1.43129
1.3252
1.47227
0.990714
1.31142
1.33517
1.45103
1.2891
1.44521
1.3243
1.20575
1.29687
1.2955
1.2982
1.19755
1.38687
1.31059
1.23845
1.20799
1.30297
1.38863
1.18243
1.32345
1.43014
1.24408
1.41632
1.22304
1.17542
1.20606
1.30085
1.25578
1.22085
1.1873
1.17962
1.29664
1.29124
1.38992
1.30761
1.4334
1.20888
1.32464
1.22188
1.26836
1.19075
1.33124
1.49627
1.26247
1.25771
1.49906
1.2915
1.33919
1.35655
1.26834
1.31899
1.32072
1.31642
1.46181
1.47732
1.48069
1.32007
1.2588
1.27814
1.2765
1.41544
1.33579
1.26001
1.1774
1.259
1.31807
1.47498
1.30514
1.46419
1.26769
1.30562
1.28134
1.20581
1.26926
1.26063
1.43989
1.23329
1.23679
1.23365
1.49662
1.32024
1.23768
1.22203
1.19963
1.37627
1.30779
1.28727
1.25017
1.32801
1.22577
1.3058
1.29467
1.23153
1.42269
1.43154
1.28431
1.44097
1.44219
1.42538
1.31146
1.28203
1.26949
1.30731
1.46276
1.31423
1.32616
1.43105
1.48214
1.45787
1.43275
1.1946
1.36207
1.31319
1.29081
1.20669
1.29873
1.4207
1.49626
1.46892
1.2164
1.26703
1.22424
1.08998
1.30753
1.48852
1.33437
1.38935
1.39467
1.38814
1.37668
1.18143
1.27991
1.26784
1.22307
1.23672
1.29895
1.21647
1.21177
1.20475
1.44016
1.34069
1.21395
1.45566
1.20847
1.24447
1.30737
1.21709
1.35098
1.37716
1.21941
1.29278
1.48289
1.48237
1.363
1.36737
1.26655
1.31645
1.30509
1.20634
1.3335
1.32155
1.20477
1.35983
1.34442
1.23396
0.922493
1.18913
1.46198
1.24543
1.36927
1.31901
1.42425
1.30593
1.21466
1.40048
1.3589
1.34275
1.31758
1.26501
1.23677
1.20752
1.35782
1.20376
1.38722
1.3302
1.23932
1.33953
1.23086
1.25178
1.48664
1.2778
1.36656
1.22449
1.24013
1.23323
1.28557
1.42173
1.43413
1.31312
1.46601
1.20874
1.43911
1.40577
1.36222
1.23257
1.4111
1.21841
1.36914
1.34615
1.04856
1.28753
1.22059
1.46846
1.36801
1.19666
1.23495
1.30284
1.30305
1.37161
1.2983
1.31193
1.49733
1.18186
1.47647
1.31413
1.28838
1.22427
1.41323
1.23809
1.42689
0.909248
1.24345
1.3554
1.39307
1.32091
1.33885
1.24895
1.25832
1.38062
1.35988
1.1982
1.37889
1.3157
1.42251
1.06351
1.31307
1.1815
1.25389
1.3354
1.25625
0.97268
1.19155
1.44318
1.33915
1.25605
1.43928
1.25947
1.37072
1.11354
1.25621
1.23663
1.42949
1.46844
1.36433
1.31339
1.312
1.15465
1.35317
1.20859
1.41271
1.10876
1.29941
1.13195
1.2299
1.30533
1.44527
1.30064
1.30636
1.24756
1.25494
1.40278
1.30025
1.31136
1.49505
1.36016
1.20758
1.37881
1.42508
1.29564
1.12636
1.23089
1.31315
1.20808
1.29566
1.01555
1.34755
1.31452
1.42786
1.26691
1.38718
1.4187
1.31324
1.21285
1.27792
1.19441
1.28981
1.18956
1.32487
1.33349
1.31852
1.41517
1.41338
1.12836
1.45401
1.30775
1.41986
1.36514
1.3027
1.32462
1.32173
1.21907
1.45365
1.46381
1.45662
1.30916
1.40846
1.32483
1.39729
1.40182
1.36077
1.31159
1.16298
1.30569
1.35711
1.44011
1.26397
1.28883
1.35972
1.24704
1.38825
1.32077
1.3363
1.2165
1.45516
1.36724
1.38618
1.40234
1.48069
1.2738
1.27839
1.43796
1.22077
1.44351
1.38051
1.30289
1.28954
1.47829
1.31782
1.31421
1.20508
1.2166
1.32802
1.24366
1.31299
1.45388
1.29675
1.39648
1.28963
1.21313
1.46338
1.36425
1.29801
1.00902
1.45683
1.00274
1.23355
1.27758
1.45934
1.46967
1.23378
1.47085
1.26988
1.22779
1.39694
1.25472
1.24733
1.3554
1.35219
1.21818
1.35207
1.02575
1.24649
1.31613
1.37263
1.28431
1.20017
1.22195
1.29762
1.31492
1.21271
1.31708
1.39244
1.34763
1.21548
1.21376
1.23474
1.30474
1.30213
1.32876
1.18942
1.34468
1.22164
1.22163
1.31636
1.20906
1.40395
1.39588
1.34163
1.20841
1.33268
1.13068
1.40456
1.45681
1.47466
1.4438
1.15429
1.25884
1.41996
1.19506
1.37393
1.35916
1.39215
1.24312
1.14014
1.05714
1.35496
1.36893
1.21672
1.33955
1.24838
1.27188
1.47196
1.20228
1.25514
1.4152
1.30159
1.46759
1.37643
1.25527
1.24947
1.32636
1.27752
1.30422
1.2669
1.20024
1.5035
1.27941
1.42632
1.22676
1.46313
1.36809
1.37375
1.3793
1.19431
1.4028
1.40274
1.24923
1.16317
1.42695
1.43872
1.26439
1.3129
1.37244
1.46843
1.2726
1.21353
1.32661
1.46395
1.32256
1.33391
1.43869
1.41538
1.2216
1.36043
1.34475
1.33023
1.33882
1.29634
1.3241
1.30587