/*--------------------------------*- C++ -*----------------------------------*\
  =========                 |
  \\      /  F ield         | OpenFOAM: The Open Source CFD Toolbox
   \\    /   O peration     | Website:  https://openfoam.org
    \\  /    A nd           | Version:  6
     \\/     M anipulation  |
\*---------------------------------------------------------------------------*/
FoamFile
{
    version     2.0;
    format      ascii;
    class       volVectorField;
    location    "0";
    object      U;
}
// * * * * * * * * * * * * * * * * * * * * * * * * * * * * * * * * * * * * * //

dimensions      [0 1 -1 0 0 0 0];

internalField   nonuniform List<vector> 
918
(
(0.985841 0.00395821 0)
(-0.00402711 2.96741 0)
(0.00121057 1.64615 0)
(0.980816 -0.00210596 0)
(-0.00493311 1.61164 -9.43056e-22)
(0.0013783 2.951 -1.35394e-18)
(0.849889 1.15284 5.07152e-19)
(0.496228 0.22215 -5.40469e-21)
(0.999949 -0.000416669 0)
(0.0393891 1.26634 0)
(-0.0131725 1.36279 0)
(0.825272 -0.00625659 0)
(0.00888997 2.93466 0)
(0.00364497 2.79722 0)
(-0.00049752 3.20205 8.11022e-19)
(-0.0057992 1.52043 -1.14624e-20)
(0.592718 0.0921346 3.32791e-19)
(0.239708 1.18927 3.91013e-19)
(0.966333 0.00504628 0)
(0.00417768 1.50232 0)
(0.214614 0.268425 -2.90831e-19)
(1.00134 -0.00537465 0)
(1.00147 -0.00852572 0)
(0.977233 -0.00518163 0)
(0.74901 -0.0124103 0)
(0.030443 2.63743 0)
(-0.0107216 2.91556 4.49254e-19)
(-0.0111341 1.6724 0)
(-0.0114878 1.76639 0)
(-0.0134926 1.66947 0)
(0.00158453 1.80296 0)
(0.00451412 1.62316 7.38356e-22)
(-0.00641632 1.53181 0)
(-0.0197979 2.98958 -4.73268e-23)
(-0.013765 3.00796 1.0659e-18)
(0.00162849 2.99972 0)
(0.877422 -0.00612461 0)
(0.350433 0.885558 -3.52724e-20)
(0.852295 1.16651 -7.2603e-19)
(0.97894 1.04455 6.78067e-19)
(0.719223 1.24847 -1.18065e-19)
(0.74475 1.18933 6.65016e-19)
(0.53184 0.305111 5.27141e-21)
(0.529751 0.200295 0)
(1.20858 0.552617 0)
(0.488386 0.317256 2.45436e-20)
(0.453326 0.229854 -2.54772e-20)
(0.92523 -0.00321388 0)
(1.00037 -0.000193388 0)
(0.999922 0.000283829 0)
(1.00374 -0.00699475 0)
(1.00053 -0.00094595 0)
(1.00004 -2.07529e-05 0)
(0.0468274 1.57716 -3.68103e-19)
(0.00631344 1.37372 0)
(0.0499341 1.2053 0)
(0.00269577 1.44511 0)
(0.0386386 1.29782 0)
(0.00169411 1.56481 0)
(-0.0146168 1.52245 0)
(0.000805212 1.35605 0)
(-0.0199748 1.54842 0)
(-0.012795 1.39225 0)
(0.902825 0.00214864 0)
(0.905289 0.00840984 0)
(0.843086 0.00143823 0)
(0.895973 0.0129303 0)
(0.811857 -0.00765847 0)
(0.0137513 3.00356 4.87607e-19)
(0.0115929 3.00439 0)
(0.00741819 3.00384 0)
(0.0106678 2.99806 5.43983e-24)
(0.0062294 2.96192 -7.33711e-19)
(0.0117339 2.98451 0)
(0.00825757 2.90906 0)
(0.0219505 2.93295 9.76903e-25)
(0.00450422 2.82712 0)
(0.026313 2.91932 0)
(-0.00123947 2.74629 0)
(0.311004 3.60614 0)
(-0.12781 3.68846 0)
(0.150763 3.29273 -7.51557e-19)
(0.00567356 3.02283 0)
(-0.00741617 1.785 0)
(-0.00180827 1.64302 1.13058e-20)
(-0.00504845 1.53402 -1.64139e-20)
(0.657333 0.156505 -1.14528e-19)
(0.612472 0.0580858 -1.09338e-19)
(0.619402 0.188595 -3.42259e-19)
(0.574976 0.128045 -2.29812e-19)
(0.291718 1.10289 0)
(0.240744 1.24436 -3.96343e-19)
(0.350587 1.237 6.63239e-19)
(0.989505 0.00870895 0)
(0.947209 0.00907802 0)
(0.999806 0.000850315 0)
(1.0037 0.00767974 0)
(1.00329 0.00896324 -5.59047e-19)
(0.992874 0.00695009 4.2831e-19)
(-0.00763704 1.61004 0)
(-0.00218993 1.49376 0)
(-0.0111838 1.68047 0)
(-0.0113971 1.634 0)
(0.00509779 1.51415 0)
(0.244189 0.293259 8.92391e-20)
(0.298605 0.266025 0)
(0.994082 -0.00622302 0)
(0.955513 -0.00517967 0)
(0.87275 0.0199943 0)
(0.837694 0.0388989 0)
(0.786925 0.00231114 0)
(1.03304 -0.00185834 0)
(0.793006 0.0419517 0)
(0.670296 -0.0289842 4.25746e-19)
(-0.0343819 2.86663 2.50422e-19)
(0.0361597 2.91343 0)
(0.0451606 2.8902 0)
(0.00507089 2.70046 0)
(-0.00802478 2.98789 4.16566e-19)
(-0.0124299 2.89907 0)
(-0.00972933 2.99247 -1.31149e-18)
(-0.00964024 2.93232 4.51839e-19)
(-0.00732305 1.8137 0)
(-0.00649168 1.80898 0)
(-0.000617887 1.64536 -2.04169e-22)
(0.00283204 1.6232 0)
(-0.00952886 1.52205 0)
(0.93708 -0.0024869 0)
(0.872269 -0.00194464 0)
(0.868674 0.0098928 0)
(0.942376 -0.00168796 0)
(0.892004 -0.00464084 0)
(0.475842 1.08699 3.65914e-20)
(0.526061 1.16764 0)
(0.31384 0.804601 8.23035e-22)
(0.250174 0.675173 0)
(0.967284 1.05992 -1.99636e-19)
(1.08937 0.877403 4.08109e-19)
(0.409336 1.2962 0)
(0.599328 1.28829 0)
(0.508878 1.25881 0)
(0.143257 0.0439808 -5.94282e-20)
(0.566904 0.276417 0)
(0.552411 0.175115 6.68162e-20)
(1.05019 0.92301 0)
(1.12602 0.767728 0)
(1.15622 0.702506 -3.58211e-19)
(1.18595 0.612806 0)
(1.24114 0.397392 3.43723e-20)
(0.955864 -0.00436758 0)
(0.962199 -0.00379003 0)
(0.908259 -0.00412029 0)
(0.985719 -0.00607453 0)
(0.977161 -0.00457977 0)
(0.94129 -0.00337037 0)
(0.999816 0.00244141 0)
(1.00088 0.00110722 0)
(1.00006 0.000617217 0)
(0.0308914 1.71255 1.99068e-19)
(0.0914812 1.54702 0)
(0.0167359 1.73477 3.2454e-19)
(0.0288109 1.59626 -2.73176e-19)
(0.0619782 1.21702 -3.2644e-19)
(-0.0115996 1.29219 0)
(0.102443 1.14559 0)
(0.00695983 1.48707 0)
(0.0129736 1.32177 0)
(-0.00593218 1.67594 -7.76267e-22)
(-0.0096748 1.57988 0)
(0.00232702 1.67643 -3.77382e-20)
(0.0042489 1.57851 7.21153e-20)
(-0.00356331 1.50831 0)
(0.00149069 1.5222 0)
(0.0115851 1.33954 0)
(-0.022271 1.57262 0)
(-0.0127109 1.42603 0)
(0.973124 0.0162984 0)
(0.922288 0.00894309 0)
(0.95651 0.00970945 0)
(0.894111 0.00325543 0)
(0.84442 -0.00742726 0)
(0.923407 -0.000150371 0)
(0.91576 0.00918659 0)
(0.842761 -0.0019942 0)
(0.00959039 3.06473 -4.13636e-21)
(0.0134903 3.05757 0)
(0.0122649 2.97264 0)
(0.0075604 2.88102 0)
(0.909397 4.0114 0)
(1.21224 3.38672 7.58789e-19)
(0.0804224 3.10495 0)
(-0.0148507 2.92776 0)
(-0.0101593 1.79422 0)
(-0.0113627 1.78698 0)
(-0.00916518 1.78977 0)
(-0.000396831 1.79252 3.12979e-21)
(-0.00859142 1.78719 0)
(-0.00129305 1.78508 0)
(-0.00661555 1.5538 1.37086e-21)
(-0.00664217 1.66908 2.27514e-20)
(-0.00501172 1.65609 1.67679e-20)
(-0.004928 1.53684 0)
(0.689875 0.126616 1.66907e-19)
(0.651204 0.0375885 -1.6257e-19)
(0.219735 1.36096 0)
(0.342876 0.911553 -1.69277e-19)
(0.163488 1.44723 -5.31386e-19)
(0.243374 1.27124 5.30371e-19)
(0.913255 0.0122347 0)
(0.970409 0.0124975 0)
(0.976429 0.0110805 0)
(0.930206 0.00886941 0)
(-0.0187103 1.59256 0)
(-0.0144387 1.60211 0)
(-0.0101349 1.4589 0)
(0.458021 0.336284 2.23581e-19)
(0.377055 0.309097 -2.72207e-19)
(0.392244 0.251486 0)
(1.14924 0.0867663 -5.85774e-21)
(1.137 0.0402903 0)
(1.0651 0.0345355 0)
(0.980639 0.00215257 0)
(0.69809 0.0790784 0)
(0.72682 0.0321094 -6.94831e-19)
(0.644358 0.0036023 2.73465e-19)
(0.0109289 2.98209 3.10751e-19)
(-0.0275603 2.8676 3.34591e-20)
(0.00645037 3.04987 -8.93314e-21)
(0.0154886 3.04141 3.40567e-19)
(-0.00962805 2.99999 1.50718e-20)
(-0.00864524 2.95404 -6.16146e-23)
(-0.0151026 3.01282 -2.89021e-19)
(0.0124737 3.02391 2.04327e-19)
(0.00602651 3.03184 -3.26833e-19)
(0.951618 0.00906017 0)
(0.944692 0.00477536 0)
(0.878242 0.00356438 0)
(0.961358 0.0131612 0)
(0.9458 0.0172254 0)
(0.88906 0.0110155 0)
(0.925487 -0.000659769 0)
(0.92985 0.00723256 0)
(0.848574 -0.00392625 0)
(0.67002 1.40814 2.21947e-19)
(0.695559 1.52488 0)
(0.178596 0.380082 1.35891e-20)
(0.162774 0.489926 1.00915e-19)
(0.211048 0.620868 -5.2085e-20)
(0.184716 0.516375 9.52034e-20)
(0.314132 0.62512 3.47287e-19)
(0.154212 0.111799 1.198e-19)
(0.607271 0.22112 2.48047e-19)
(0.587521 0.240095 6.04129e-20)
(0.565231 0.148946 1.23956e-19)
(1.23028 0.456145 2.34796e-19)
(1.25159 0.249956 2.4419e-19)
(0.00844721 1.73969 1.24988e-19)
(0.0136539 1.60775 0)
(1.0199 0.0268575 0)
(0.989641 0.0184873 0)
(0.948273 -0.000340866 0)
(0.0111401 3.07214 0)
(0.0173129 2.94581 5.71669e-19)
(0.0142403 2.95887 0)
(0.00629403 2.85396 -5.68369e-19)
(0.00869702 3.0886 1.34385e-19)
(0.0107547 3.08091 0)
(0.716335 1.82159 -1.70939e-19)
(1.25575 2.618 5.65998e-19)
(0.698607 1.99479 -1.14009e-18)
(0.0226967 2.98395 -2.32351e-19)
(0.0418042 3.01075 0)
(-0.0321649 2.88491 0)
(-0.000549495 1.66854 -4.54018e-21)
(-0.00693774 1.67819 -5.08361e-20)
(-0.00384276 1.57354 -3.30755e-21)
(0.279157 1.2453 5.08972e-19)
(0.299361 0.61373 -3.44115e-19)
(0.0598582 1.65156 3.41572e-19)
(0.100344 1.54902 -4.18321e-19)
(0.144073 1.4235 5.15301e-20)
(0.00775044 3.11646 -7.37943e-19)
(0.0187451 3.11658 8.13746e-19)
(-0.00466195 2.98194 3.70011e-19)
(0.000114424 2.97787 -3.36334e-19)
(-0.0153831 2.883 -3.76962e-19)
(0.0119448 3.09551 -9.82684e-19)
(0.00474905 3.10521 9.79938e-19)
(0.189468 0.532014 0)
(0.10354 0.429864 -2.16337e-19)
(0.164027 0.142375 9.23255e-20)
(0.315704 0.744828 3.69717e-19)
(0.254427 0.177881 -5.65374e-19)
(1.23375 0.17023 -5.44997e-20)
(1.24562 0.308928 0)
(1.22751 0.114727 9.86601e-20)
(-0.01556 1.70811 -1.0028e-21)
(-0.00756216 1.72155 0)
(-0.00231977 1.59895 0)
(0.342359 1.1412 -1.60864e-19)
(0.370307 0.982922 -3.38454e-19)
(0.260649 0.333356 5.64335e-19)
(1.00464 -0.0106205 0)
(1.00661 -0.00765284 1.03034e-19)
(-0.00639604 1.80309 0)
(-0.0112165 1.80998 0)
(1.00184 0.00294159 1.02109e-21)
(1.00294 0.00847653 2.09295e-19)
(-0.00176572 1.79695 -4.2041e-21)
(-0.00232322 1.79545 0)
(0.0524139 3.18048 1.08394e-19)
(0.383573 3.55626 0)
(1.06525 0.687757 5.45667e-20)
(1.01036 0.00974962 -1.50518e-21)
(1.01474 -0.0166745 0)
(1.00159 0.000454979 8.67623e-23)
(-0.154914 1.5636 0)
(0.00775832 2.001 0)
(-0.0157634 1.79213 0)
(-0.0275293 1.83836 5.24024e-20)
(0.00172724 1.8164 2.80527e-20)
(1.00381 0.0099589 1.11481e-21)
(1.04722 0.0142252 0)
(1.07903 0.0341104 0)
(-0.0111781 1.78728 0)
(-0.00664976 1.80745 0)
(-0.0156877 1.79571 0)
(0.167913 1.18435 -2.88361e-19)
(1.00862 -0.00838669 0)
(1.01144 -0.0130515 0)
(1.00254 0.000224333 1.28967e-19)
(1.00574 -0.00574354 -1.54697e-19)
(1.00096 -0.000710623 0)
(-0.0130863 1.78777 0)
(-0.00974572 1.79601 0)
(-0.00962818 1.79464 0)
(-0.0131476 1.79876 0)
(-0.00943521 1.79484 0)
(-0.0122565 1.79818 0)
(1.01967 0.0033473 0)
(1.02472 0.00879457 -9.3821e-22)
(0.759833 1.26786 3.6608e-19)
(1.00265 0.000471676 -1.28215e-19)
(1.00309 0.00365443 1.56779e-19)
(1.00122 0.00196898 0)
(1.0103 0.00903371 1.26561e-19)
(1.0077 0.00990762 -1.57479e-19)
(1.00873 0.0109291 0)
(-0.00625048 1.80797 0)
(-0.00463212 1.8033 8.68287e-21)
(-0.00529026 1.8028 -5.93469e-21)
(1.18226 0.268848 -1.16198e-19)
(1.11782 0.0819728 0)
(0.0615374 3.08629 -3.75005e-19)
(0.0534336 2.86506 -2.89248e-20)
(0.123222 3.2048 4.79799e-19)
(0.128811 3.22142 -3.42523e-20)
(0.149817 3.26412 0)
(0.0238877 3.13737 8.9967e-20)
(0.0732397 3.16275 3.68365e-19)
(0.0707006 3.18457 -1.72833e-19)
(0.0298936 3.12573 0)
(0.708044 0.343029 0)
(0.6325 0.397677 0)
(1.06811 0.713182 -2.01224e-19)
(1.03324 0.863022 3.02899e-19)
(1.11715 0.592126 0)
(1.14904 0.54589 0)
(1.01373 0.00909571 -2.35645e-19)
(1.01191 0.00619356 2.91525e-19)
(1.01619 -0.0173856 0)
(1.0095 -0.0233874 0)
(1.00843 0.000288331 0)
(1.01075 0.00153755 0)
(1.00366 0.00334858 0)
(1.00872 0.00759597 0)
(1.00679 0.00522993 0)
(1.00348 0.00499614 0)
(-0.12377 1.58884 0)
(-0.096504 1.64023 0)
(-0.16458 1.52936 0)
(-0.138379 1.4639 0)
(0.00555167 2.0198 0)
(0.0775845 2.00997 -2.15698e-19)
(0.000861637 1.99348 0)
(-0.00839077 1.94942 1.02302e-19)
(-0.0249983 1.88538 -9.71254e-20)
(-0.0165557 1.7915 0)
(-0.0215135 1.7892 0)
(-0.0183327 1.79009 0)
(-0.014363 1.77119 0)
(-0.0385893 1.82103 -2.85267e-20)
(-0.00390657 1.82332 3.96953e-20)
(-0.0169432 1.83965 5.10451e-20)
(0.000161808 1.82851 0)
(-0.00519777 1.81987 -6.20918e-20)
(-0.00892595 1.8154 -3.6338e-20)
(-0.0299909 1.81625 2.20701e-20)
(-0.0146195 1.82129 -5.10878e-20)
(-0.0139517 1.82854 -6.20545e-20)
(1.00982 0.0158365 2.27849e-19)
(1.00848 0.00303679 -2.81856e-19)
(1.00695 0.0174838 -2.3757e-19)
(0.994955 0.0171749 3.04697e-19)
(1.04085 0.0183715 0)
(1.04269 0.0115203 0)
(1.06375 0.0345315 0)
(1.04994 0.0244948 0)
(1.05896 0.0113018 0)
(1.10221 0.0719293 0)
(1.07764 0.0451863 0)
(1.09947 0.0401094 0)
(-0.00783833 1.79857 -1.0575e-21)
(-0.0111146 1.78866 0)
(-0.00965018 1.79061 0)
(-0.00653849 1.8099 1.02761e-20)
(-0.00701821 1.80904 -4.68837e-22)
(-0.0142134 1.78598 1.09666e-20)
(-0.0134688 1.78859 -1.11641e-20)
(-0.0138305 1.7938 0)
(-0.0113657 1.79437 0)
(-0.0117552 1.79469 0)
(-0.0150502 1.79588 0)
(-0.0164888 1.79832 0)
(0.377357 1.20592 6.34293e-19)
(0.381605 1.33487 2.33546e-19)
(0.549953 2.41383 -1.21884e-19)
(0.197227 2.22674 3.31408e-19)
(0.25522 2.47459 -1.00511e-19)
(1.01535 -0.0135544 0)
(1.01654 -0.0104152 0)
(1.01602 -0.0155306 0)
(1.00948 -0.000904799 0)
(1.00455 -0.000764817 0)
(1.00683 -0.00409094 0)
(1.0098 -0.00456168 0)
(1.0103 -0.00556529 0)
(1.02362 0.0105072 2.21319e-19)
(1.01524 0.0155088 -2.82149e-19)
(1.02595 0.00628179 -2.16233e-19)
(1.0233 0.00604674 2.67576e-19)
(0.745605 1.29607 0)
(0.643701 1.37969 4.50347e-19)
(0.857717 1.20057 2.58277e-19)
(0.874594 1.19668 -3.4396e-19)
(1.12261 2.61801 -4.02113e-19)
(0.823806 0.10282 1.67278e-19)
(1.12404 0.0972965 0)
(1.16699 0.172601 9.806e-20)
(1.14955 0.15147 4.27084e-21)
(0.972212 0.136207 0)
(0.111146 3.02548 -6.42092e-20)
(0.109152 2.90134 -4.36636e-19)
(0.0509744 2.34339 2.97923e-19)
(0.182509 0.0809902 -1.30169e-19)
(0.353535 3.45955 -3.30404e-19)
(0.20096 3.34513 0)
(0.232828 3.40633 4.30187e-19)
(0.243699 3.08543 -1.13734e-19)
(0.27769 3.207 0)
(0.00668484 3.11948 2.00106e-20)
(0.0188611 3.12847 -2.48549e-19)
(0.0168232 3.12413 3.65128e-19)
(0.0374647 3.13799 0)
(0.0354497 3.14962 0)
(1.23882 2.59796 0)
(0.511487 0.809079 -1.27353e-19)
(0.950193 1.0334 -1.47925e-19)
(0.959049 1.07513 0)
(0.820539 0.961327 5.58303e-20)
(1.01878 0.895076 1.79502e-20)
(0.431335 0.45646 -3.21947e-19)
(0.731034 0.320857 -1.62456e-20)
(0.724614 0.289575 1.29241e-19)
(0.629485 0.427356 1.03565e-20)
(0.563143 0.424121 -4.30783e-19)
(0.704728 0.361379 0)
(0.678147 0.442209 2.18756e-19)
(0.687227 0.444166 0)
(0.676204 0.407222 0)
(0.684167 0.364334 0)
(0.723681 0.621563 5.57275e-20)
(1.17789 0.284601 8.30177e-20)
(1.17381 0.419853 0)
(1.16926 0.399714 0)
(0.778933 0.212072 1.93444e-19)
(0.768553 0.52198 -1.05044e-19)
(0.689805 0.498026 1.67712e-19)
(0.881181 0.407959 -1.37166e-19)
(1.01576 0.013309 1.52269e-19)
(1.01263 0.00744659 -1.57555e-19)
(1.00892 0.0110555 0)
(1.01665 -0.00154439 0)
(1.01593 -0.0153985 -1.3628e-19)
(1.0048 -0.0199156 1.34902e-19)
(1.03256 0.00749253 0)
(1.02767 0.00880104 0)
(1.01401 0.00422959 0)
(1.01478 0.00827209 0)
(1.02025 -0.000440669 0)
(1.01663 -0.0029953 0)
(-0.0693514 1.67822 0)
(-0.0552084 1.69645 0)
(-0.253192 1.53617 8.34623e-20)
(0.09055 1.29387 1.40794e-19)
(-0.114712 1.41824 2.71486e-19)
(-0.0332937 1.31074 -4.56606e-19)
(-0.241719 1.50908 0)
(-0.328526 1.9602 6.9882e-20)
(-0.295453 1.94059 0)
(-0.00487163 2.48895 1.4728e-19)
(-0.0654445 2.49175 1.87698e-19)
(-0.361211 1.96036 -6.17844e-20)
(-0.0854145 1.28828 1.52418e-19)
(-0.243884 1.48213 -1.21425e-19)
(-0.089474 1.27189 4.56915e-19)
(-0.29531 2.01349 0)
(-0.202082 2.04924 -3.05516e-19)
(-0.0762413 1.85527 -2.37329e-20)
(-0.0225443 1.89819 0)
(-0.0557399 1.88604 9.99939e-20)
(-0.0627938 1.87099 0)
(-0.0122705 1.9367 -1.12059e-19)
(-0.0128098 1.92036 0)
(-0.0281677 1.79903 -2.18462e-20)
(-0.0368527 1.80149 0)
(-0.045348 1.78565 0)
(-0.0329801 1.79556 2.45195e-20)
(-0.0358309 1.84794 -2.47199e-21)
(-0.0307947 1.87551 1.14717e-19)
(-0.0302291 1.86149 7.9875e-22)
(-0.016639 1.80636 1.99576e-20)
(-0.0203709 1.80431 1.24425e-20)
(-0.0251627 1.78834 0)
(-0.0260494 1.78837 0)
(-0.0740918 1.82388 5.82411e-20)
(-0.0649393 1.78143 3.95513e-20)
(-0.0623011 1.79968 -5.6303e-20)
(-0.0979685 1.84099 0)
(-0.010975 1.80266 -3.37918e-20)
(-0.00963327 1.81077 1.51869e-20)
(-0.0103909 1.80994 -5.10103e-21)
(-0.0132805 1.80743 -2.4193e-20)
(-0.0144316 1.8115 -8.33842e-21)
(-0.0142185 1.813 4.12443e-20)
(1.02297 0.00535406 -1.42974e-19)
(1.01639 0.0110813 1.48514e-19)
(1.01777 0.00567453 0)
(0.996699 0.0453622 2.12713e-19)
(0.994294 0.0311805 -2.56003e-19)
(0.96725 0.0289603 3.00198e-19)
(0.989139 0.0864458 -2.7885e-20)
(1.0218 0.00736436 0)
(1.03478 0.0108088 1.21332e-19)
(1.0298 0.00689997 -1.19798e-19)
(1.03455 0.0430347 -6.36129e-21)
(1.03771 0.0263981 5.64996e-20)
(1.01987 0.0534108 0)
(1.01493 0.0463768 -2.20083e-20)
(1.01684 0.0205498 0)
(1.01744 0.0197745 0)
(1.03183 0.0101459 0)
(1.02685 0.00720398 0)
(1.02475 0.0209963 4.5153e-20)
(1.02695 0.0170469 -1.04503e-19)
(1.02665 0.0291428 -4.451e-20)
(1.02601 0.0347464 -5.32717e-20)
(1.01718 0.0528182 9.03915e-20)
(1.05299 0.0472296 0)
(1.04426 0.0847899 0)
(-0.0115744 1.80252 -1.42534e-20)
(-0.0118371 1.79365 -1.20635e-21)
(-0.0133846 1.79212 0)
(-0.00856946 1.80422 1.47569e-20)
(-0.00902344 1.80019 2.17146e-21)
(-0.00854971 1.8026 -2.31227e-21)
(-0.0123874 1.81494 3.27378e-20)
(-0.01122 1.81171 -1.83242e-21)
(-0.0142909 1.81102 8.96407e-21)
(-0.010779 1.8137 -1.62547e-20)
(-0.0143365 1.81164 1.9411e-20)
(-0.0145984 1.78649 2.72073e-22)
(-0.0151057 1.78705 1.62182e-20)
(0.375041 1.0801 -3.58513e-19)
(0.275563 1.3873 -6.09883e-19)
(0.648282 1.39506 -4.36367e-19)
(0.513378 1.36204 -2.22626e-19)
(0.505146 1.4131 0)
(0.632666 2.39435 9.00756e-20)
(0.671078 2.40285 1.56622e-19)
(0.268936 2.33268 7.51127e-20)
(0.150097 2.56085 -1.57506e-19)
(0.235947 2.55671 1.35263e-19)
(0.501508 2.40718 0)
(0.385757 2.33394 -2.64123e-19)
(0.0380948 2.10677 5.48273e-19)
(0.145598 2.23092 -5.00974e-20)
(0.175547 2.07899 -7.3931e-19)
(0.913766 2.35633 6.91177e-20)
(0.852834 2.39228 0)
(1.00928 -0.00237102 5.05406e-21)
(1.01133 -0.00586643 -4.20407e-21)
(1.01162 -0.00996423 -7.37844e-20)
(1.01408 -0.0123249 7.45979e-20)
(1.01496 -0.00732484 0)
(0.668858 1.27462 0)
(0.652524 1.18556 0)
(0.760503 1.05235 0)
(0.63245 1.136 0)
(1.15858 2.63795 3.02216e-20)
(1.03533 2.35513 0)
(0.761233 2.20118 -6.07091e-22)
(0.910082 2.48857 0)
(0.961868 2.55309 1.51667e-20)
(0.943771 2.49369 -1.01069e-20)
(0.819581 0.134675 0)
(0.799168 0.161151 4.91451e-20)
(0.890769 0.122351 2.43078e-19)
(0.861912 0.0995948 -1.00889e-19)
(0.863277 0.0763788 -2.91455e-19)
(1.01667 0.222826 -1.10734e-19)
(0.93794 0.251074 -8.62218e-21)
(0.905064 0.266322 2.0732e-19)
(0.970463 0.207033 1.53725e-19)
(0.916317 0.164012 -2.98822e-19)
(0.876058 0.18326 3.97075e-20)
(0.914232 0.258976 -7.18227e-20)
(0.886352 0.198606 0)
(0.979996 0.1703 1.40453e-19)
(1.00259 0.171454 0)
(1.00189 0.199512 0)
(1.05852 0.09319 3.39112e-20)
(1.01235 0.155459 -6.50051e-21)
(1.00403 0.225296 -2.2325e-20)
(1.03345 0.187745 0)
(1.01167 0.0215909 1.12127e-19)
(1.01211 0.0398707 1.29088e-19)
(1.01484 0.026636 -1.10646e-19)
(1.00865 0.0453105 -8.70083e-20)
(0.999388 0.0494038 -1.50389e-19)
(0.972613 0.137211 0)
(0.988264 0.084939 0)
(0.967605 0.0470195 -1.09294e-19)
(0.926684 0.0580427 4.71791e-20)
(0.996323 0.0800885 1.24059e-19)
(1.01483 0.0908886 -1.10191e-19)
(1.01488 0.135526 1.05356e-19)
(1.00503 0.122924 0)
(1.02649 0.085577 0)
(1.01367 0.0728695 -4.89611e-20)
(1.01237 0.0714281 -9.80439e-20)
(0.529096 1.13395 -8.39604e-20)
(0.571264 1.56694 1.38917e-19)
(1.11633 2.77393 9.15035e-20)
(1.18736 3.13413 -6.02335e-20)
(1.22341 2.75012 4.25343e-19)
(1.2748 2.72438 -2.14326e-19)
(1.23532 2.3332 -1.6307e-20)
(1.16884 3.03805 1.84756e-19)
(1.18094 2.99426 -2.07934e-19)
(1.18001 3.28369 -1.94121e-19)
(1.3912 2.99682 2.34246e-19)
(1.40802 2.92563 0)
(0.519871 0.831076 -4.0618e-21)
(0.246192 1.27463 1.79255e-19)
(0.478378 0.5433 2.08733e-19)
(0.329622 0.322644 2.47054e-19)
(0.556633 0.448488 2.41139e-19)
(0.537014 0.514288 -3.70065e-19)
(0.539682 0.518619 3.06506e-19)
(0.517693 0.476293 -1.25748e-19)
(0.490134 0.435359 2.91316e-19)
(0.781654 0.248083 -1.06675e-19)
(0.745148 0.297779 0)
(0.749334 0.255785 8.04318e-21)
(0.68292 0.524743 1.10065e-19)
(0.63993 0.500894 -4.11051e-19)
(0.611999 0.49466 1.55171e-20)
(0.626267 0.4722 0)
(0.662224 0.73226 6.93997e-20)
(0.739676 0.789115 2.67717e-20)
(0.695302 0.826401 -3.58602e-20)
(0.789942 0.797186 -1.11842e-21)
(0.872759 0.831766 1.47195e-20)
(0.873418 0.847537 -1.51637e-20)
(0.794492 0.63196 -9.7691e-20)
(0.876315 0.695054 1.04093e-21)
(0.934351 0.705985 0)
(0.931288 0.682981 9.88302e-21)
(0.964274 0.29735 2.74512e-20)
(1.07519 0.288281 -2.29847e-20)
(0.999377 0.261386 4.43973e-20)
(0.936432 0.329815 -7.03777e-20)
(0.969683 0.422598 0)
(1.05646 0.382596 0)
(0.860469 0.350928 5.66338e-21)
(0.83819 0.272907 0)
(0.838655 0.254193 1.13813e-19)
(0.898058 0.264761 1.76524e-21)
(0.87451 0.420189 3.74265e-19)
(0.809909 0.489824 9.54036e-20)
(0.824013 0.447914 -1.31691e-19)
(0.77497 0.419832 1.40723e-19)
(0.748753 0.422814 1.03134e-19)
(0.74831 0.42617 -1.00414e-19)
(1.02041 -0.00334477 1.18578e-19)
(1.02605 -0.00692633 0)
(1.02052 -0.0109907 8.01373e-20)
(1.01755 -0.0111462 -1.78727e-19)
(1.03498 0.00197248 8.64251e-20)
(1.03066 0.00758086 -1.82783e-19)
(1.0273 0.0105435 0)
(1.02253 0.012524 -3.74428e-20)
(1.02607 0.00311643 9.56592e-20)
(1.02185 0.0109305 -4.90162e-20)
(1.02329 0.0117262 3.53587e-20)
(-0.0273705 1.76226 0)
(-0.0491326 1.77926 0)
(-0.0507602 1.72424 0)
(-0.033647 1.73354 0)
(-0.167096 1.72196 -4.33751e-20)
(-0.17129 1.63627 1.07365e-20)
(-0.245914 1.91808 -9.59446e-21)
(-0.309279 1.70611 -6.59333e-20)
(-0.0914803 1.77997 -2.73928e-20)
(-0.100304 1.77759 1.90375e-20)
(-0.126816 1.71794 3.84333e-21)
(-0.10751 1.7385 1.3279e-20)
(-0.0686721 1.75687 1.16894e-21)
(-0.0669812 1.76685 -2.23711e-21)
(-0.0780925 1.93238 -1.0575e-19)
(-0.0769103 1.98255 0)
(-0.190113 2.00761 4.93332e-20)
(-0.226875 1.93729 2.82071e-20)
(-0.258274 2.25318 -2.67576e-21)
(-0.114138 2.28146 0)
(-0.127956 2.3359 -2.1042e-19)
(-0.104807 2.42773 1.49807e-19)
(-0.232195 2.17223 -7.26829e-20)
(-0.208283 2.08218 1.67591e-20)
(-0.132683 2.14764 0)
(-0.0607895 1.81816 -7.41714e-20)
(-0.0503544 1.82609 -1.01085e-19)
(-0.0507192 1.82316 0)
(-0.0599785 1.84574 -3.3771e-21)
(-0.066525 1.8443 3.88998e-20)
(-0.0169452 1.79905 3.62236e-21)
(-0.0209704 1.79656 -5.8304e-20)
(-0.0235233 1.7973 1.3028e-20)
(-0.0184762 1.79841 2.44269e-20)
(-0.0186628 1.80022 0)
(-0.024775 1.79474 0)
(-0.022905 1.7943 1.91477e-20)
(-0.0254697 1.7903 -5.60126e-21)
(-0.0275334 1.79192 0)
(-0.0278196 1.78905 1.48975e-20)
(-0.0229873 1.79307 -2.90081e-20)
(1.02875 0.0208555 0)
(1.03144 0.0201534 -1.10827e-20)
(1.02935 0.0164033 -8.35059e-20)
(1.02967 0.0191525 0)
(1.02971 0.0232831 0)
(1.03108 0.0125748 -3.275e-21)
(1.03128 0.0124343 1.39681e-19)
(1.02681 0.0108672 1.7046e-19)
(1.02629 0.009233 0)
(1.02146 0.00812619 0)
(1.02413 0.0164231 8.43835e-20)
(1.02007 0.0135627 0)
(1.0213 0.0115768 0)
(-0.0139816 1.80297 0)
(-0.0151464 1.78798 1.17831e-21)
(-0.0142943 1.79532 7.72376e-21)
(-0.0231189 1.791 0)
(-0.0167334 1.78907 1.09508e-20)
(-0.0147154 1.78782 -5.483e-21)
(-0.0171116 1.78726 0)
(0.736932 1.79611 0)
(0.333758 1.49879 9.86224e-19)
(0.362985 2.01765 0)
(0.651034 1.15981 -1.03252e-18)
(0.55911 1.18925 0)
(0.556336 1.13501 4.24887e-19)
(1.02386 2.6831 -1.90682e-21)
(0.939286 2.36613 -8.44455e-20)
(0.843798 2.07459 1.9725e-19)
(0.855721 2.37681 5.63378e-20)
(0.925934 2.51653 0)
(0.95317 2.49382 0)
(0.901452 2.35139 0)
(0.875568 2.33656 -2.09637e-19)
(0.765571 2.58033 1.00411e-19)
(0.906563 2.49904 3.14541e-21)
(0.91625 2.47808 -2.42685e-21)
(0.727064 2.41241 0)
(0.819821 2.39476 0)
(0.782201 2.41237 -1.40049e-19)
(0.888223 2.52877 0)
(0.553178 1.07689 0)
(0.498479 0.9042 3.25316e-20)
(0.507402 0.957748 2.90396e-21)
(0.469508 1.0649 0)
(0.487183 1.00848 -4.83735e-20)
(0.728297 0.850373 1.95634e-20)
(0.759291 0.983719 0)
(0.742785 0.971594 -6.67993e-20)
(0.630341 0.989452 0)
(0.614677 0.92135 0)
(1.13106 2.79008 5.37685e-20)
(1.10758 2.85395 9.31867e-20)
(0.871321 2.40415 -2.08261e-19)
(0.833561 2.38941 2.52001e-20)
(1.09483 2.7565 0)
(1.05222 2.72024 -3.19512e-20)
(1.06087 2.48347 -3.10057e-20)
(0.930195 2.19598 -1.6113e-20)
(0.517578 1.4327 0)
(0.468708 1.12091 7.31522e-20)
(0.547437 1.22261 0)
(0.836551 0.216097 0)
(0.805602 0.175625 0)
(0.779901 0.194404 0)
(0.830855 0.215293 -1.80254e-19)
(0.789475 0.215318 1.12426e-19)
(0.927293 0.0557589 -9.52216e-20)
(0.935519 0.103852 0)
(0.915999 0.106314 4.4892e-20)
(0.886031 0.0688888 1.84876e-19)
(0.88706 0.0640716 -1.13818e-19)
(1.10617 3.3769 -6.65208e-19)
(1.17082 3.29947 0)
(1.12766 3.45145 -1.41254e-18)
(0.666041 3.5982 1.20837e-18)
(1.00704 3.0954 3.04046e-19)
(0.503371 0.83172 1.00141e-19)
(0.492447 0.813025 0)
(0.395067 0.555237 -4.73441e-20)
(0.405079 0.679881 2.08129e-19)
(0.497808 0.542524 -6.70611e-20)
(0.494422 0.556947 7.43813e-20)
(0.626685 0.546781 1.50156e-19)
(0.645529 0.56965 0)
(0.574199 0.621317 0)
(0.548519 0.565842 0)
(0.914535 0.585083 -4.32614e-20)
(0.852658 0.525728 -9.09108e-20)
(0.884625 0.575262 2.03929e-20)
(0.910774 0.486499 -6.33763e-20)
(0.993096 0.456992 0)
(1.00797 0.566398 4.84378e-21)
(0.820669 0.36836 -2.20751e-19)
(0.817729 0.353955 -2.65673e-19)
(0.814921 0.368816 1.72226e-19)
(0.802192 0.332838 -2.05159e-19)
(0.827272 0.291293 -1.51316e-19)
(0.807027 0.294439 1.85623e-19)
(1.03641 0.00400145 -8.98406e-20)
(1.03642 0.00588613 1.84284e-19)
(1.0221 0.0044116 1.12457e-19)
(1.02773 0.0076744 -1.35367e-19)
(1.0296 0.0203557 0)
(1.03282 0.0141945 -2.20211e-19)
(-0.0935328 1.84407 1.82172e-20)
(-0.111555 1.84672 0)
(-0.136222 1.88559 7.10675e-20)
(-0.168872 1.92733 -5.97193e-20)
(-0.216393 1.9018 1.75164e-20)
(-0.180697 1.88365 0)
(-0.014223 1.80363 0)
(-0.0229218 1.79677 -6.04535e-21)
(-0.0212268 1.79194 5.44976e-21)
(-0.019261 1.79097 1.18028e-21)
(-0.017615 1.80218 -1.03775e-20)
(-0.0154212 1.80304 6.73966e-21)
(0.640947 1.40313 3.4854e-19)
(0.731196 1.48586 -3.69712e-19)
(0.648966 1.24576 3.97462e-19)
(0.831258 1.39866 -2.43761e-20)
(0.659748 1.27628 0)
(0.641951 1.2602 4.2499e-19)
(0.644771 1.31506 -4.10966e-19)
(0.632011 1.17831 -3.88004e-19)
(0.689424 1.22953 0)
(0.613403 1.27704 0)
(0.79578 2.58769 -1.52779e-19)
(0.733006 2.54451 2.27661e-19)
(0.839466 2.5794 -1.55202e-19)
(0.707774 2.57381 -7.91172e-20)
(0.480837 2.75744 -1.59369e-20)
(0.377638 2.74523 -6.76399e-20)
(0.957892 2.3179 -1.11002e-19)
(0.988494 2.362 0)
(0.857954 2.08789 -1.19344e-19)
(1.02655 2.69925 0)
(1.01262 2.67334 0)
(0.617604 2.3337 2.53432e-19)
(1.08931 3.0791 3.16613e-19)
(0.978778 2.98926 -3.50483e-19)
(0.339221 0.938367 0)
(0.377876 0.846018 -7.63556e-20)
(0.545396 0.752468 -1.86699e-20)
(0.403363 2.17169 0)
(0.417061 2.76868 -2.13152e-19)
(0.440315 2.52027 0)
(0.654401 0.692833 -1.43748e-19)
(0.714049 0.670727 2.03399e-19)
(0.706289 0.637372 -2.03286e-19)
(0.599242 0.658369 -2.34127e-20)
(0.671901 0.610763 -9.94767e-20)
(0.968845 2.79193 -2.392e-19)
(1.00411 2.80075 2.37864e-19)
(0.596863 2.28961 -1.43404e-19)
(0.588585 1.77381 6.68525e-20)
(0.701962 1.94511 1.02791e-19)
(0.960945 2.46679 -5.84457e-20)
(0.955945 2.43365 -1.2863e-19)
(0.677237 1.92115 -6.31664e-21)
(0.463095 1.4084 -6.73124e-20)
)
;

boundaryField
{
    wall-4
    {
        type            noSlip;
    }
    velocity-inlet-5
    {
        type            fixedValue;
        value           uniform (1 0 0);
    }
    velocity-inlet-6
    {
        type            fixedValue;
        value           uniform (0 3 0);
    }
    pressure-outlet-7
    {
        type            zeroGradient;
    }
    wall-8
    {
        type            noSlip;
    }
    frontAndBackPlanes
    {
        type            empty;
    }
}

