/*--------------------------------*- C++ -*----------------------------------*\
  =========                 |
  \\      /  F ield         | OpenFOAM: The Open Source CFD Toolbox
   \\    /   O peration     | Website:  https://openfoam.org
    \\  /    A nd           | Version:  6
     \\/     M anipulation  |
\*---------------------------------------------------------------------------*/
FoamFile
{
    version     2.0;
    format      ascii;
    class       volScalarField;
    location    "0";
    object      P_rec;
}
// * * * * * * * * * * * * * * * * * * * * * * * * * * * * * * * * * * * * * //

dimensions      [0 2 -2 0 0 0 0];

internalField   nonuniform List<scalar> 
918
(
0.582155
0.266224
0.117144
0.605269
-0.00252244
0.15014
-0.782087
0.527026
0.611825
-0.130863
0.0348128
0.473172
-0.0141507
-0.0140387
-1.2018
0.0219276
0.591739
-0.741784
0.431199
0.0260133
-0.120402
0.608978
0.536039
0.426242
0.519202
-0.0995894
0.0761651
-0.0379359
-0.0600386
-0.0453942
-0.00257844
0.0524349
0.00886479
0.132873
0.122416
0.166338
0.440088
0.207866
-0.648777
-0.69867
-0.692668
-0.867006
0.53816
0.552427
-0.268705
0.505513
0.478663
0.440839
0.589022
0.615008
0.541336
0.591257
0.621363
0.25601
-0.185077
-0.25687
-0.0787082
-0.0746063
0.0762998
0.0303216
0.0179673
0.0653757
0.0515757
0.390477
0.464173
0.459849
0.485238
0.483504
0.228856
0.186142
0.233722
-0.0174316
0.124382
-0.0382449
0.0832496
-0.0106531
0.0271111
-0.0326815
-0.0498861
-1.46439
-2.21677
-0.735404
-0.606275
0.00569419
0.0235642
0.0322749
0.582118
0.583826
0.57823
0.588266
0.712305
-0.673967
-0.8477
0.464926
0.464897
0.596175
0.546711
0.485131
0.41418
0.0232834
0.019819
0.0130088
0.0426288
0.0340151
0.0854774
0.211486
0.404417
0.440043
0.483405
0.509449
0.497268
0.22468
0.557786
0.555131
-0.116803
0.0451097
-0.0985788
-0.0140779
0.0878366
0.0556536
0.158316
0.195749
-0.0651892
-0.0116765
0.0392698
0.00215812
0.029025
0.438552
0.428535
0.453483
0.442732
0.447814
0.109829
0.0144653
0.28086
0.317359
-0.522609
-0.560383
-0.764927
-0.782521
-0.896971
0.492582
0.556782
0.572701
-0.379119
-0.244467
-0.413521
-0.156883
-0.202635
0.445622
0.437083
0.437937
0.445304
0.44888
0.449924
0.598109
0.590425
0.628378
0.267689
0.345963
0.240083
0.200538
-0.484271
-0.356662
-0.462705
-0.0432715
-0.00416782
0.0648595
0.100591
0.112325
0.0813549
0.000137722
0.0166946
0.00585209
0.0200297
0.0206167
0.394279
0.378532
0.391966
0.401815
0.457385
0.45613
0.461875
0.464127
0.168138
0.155939
0.110952
0.0870463
-3.00663
-5.16107
-0.417354
-0.328239
-0.00303164
-0.0143218
-0.00540815
-0.0883384
-0.0165741
-0.0448517
0.06969
0.0415333
0.0345453
0.0542565
0.579761
0.593147
0.703476
0.725121
0.631973
0.626092
0.462656
0.472685
0.467351
0.469708
0.0340675
0.0202665
0.035827
0.441431
0.326833
0.38332
0.191767
0.0966708
0.272172
0.312281
0.581938
0.565478
0.587162
-0.122493
-0.0377772
0.305413
0.0384784
0.288936
0.104737
0.0634601
0.10752
0.0299334
0.406913
0.424172
0.420873
0.449411
0.457219
0.456984
0.459544
0.451085
0.454904
-0.144442
-0.437726
0.423496
0.417703
0.357416
0.403708
0.554737
0.604214
0.578978
0.567584
0.577125
-0.0563444
-0.0922868
0.151493
0.141339
0.342334
0.357614
0.347809
0.0842201
0.0442439
0.0822685
0.0690215
0.0458451
0.0968736
-0.410222
-1.76492
-1.00684
-0.143209
-0.221546
-0.195118
0.0392032
0.10568
0.0717809
0.690619
0.740054
0.396641
0.556384
0.509221
-0.159294
-0.0766745
0.0308426
-0.0950032
-0.0435524
0.0381717
-0.00972045
0.419969
0.397746
0.416593
0.621052
0.681276
0.0589837
-0.00380222
-0.0445844
0.124169
0.11516
0.116285
0.723893
0.681434
0.718223
0.413749
0.40133
-0.0619553
-0.00417653
0.518921
0.547099
-0.064971
-0.0286385
-0.125694
-0.784864
0.0581947
0.467692
0.424476
0.481975
-0.185508
0.174414
0.00528084
0.0180449
-0.0372801
0.444071
0.370468
0.339331
-0.0641115
0.00625949
-0.00356304
-0.450754
0.476631
0.45987
0.46632
0.47828
0.492026
-0.00703672
-0.0152808
0.0312407
-0.0367408
0.0451449
0.0416903
0.448996
0.438411
-0.438837
0.460081
0.485655
0.483982
0.498601
0.499772
0.486836
-0.0159
0.0326776
0.0384466
0.159704
0.266051
-0.0334322
-0.101255
-0.00193178
-0.137076
-0.323219
-0.0655749
-0.060837
-0.0638958
-0.0553639
0.542932
0.506314
0.145743
-0.0420533
0.128376
0.0940523
0.463735
0.482384
0.454592
0.467244
0.486091
0.433127
0.501666
0.468379
0.464519
0.510472
-0.130655
-0.0467618
-0.142306
-0.269333
0.243864
0.346818
0.154226
0.220216
0.094286
-0.0127432
0.0470788
-0.0182182
0.00792798
0.000717953
0.102152
0.032955
0.139029
0.017586
0.111031
-0.0406283
0.14153
-0.00607167
0.426914
0.4474
0.444548
0.487254
0.404047
0.423103
0.40088
0.398493
0.419499
0.349621
0.368091
0.368427
0.0141228
0.013874
0.0464739
0.0215281
0.0455994
-0.0304048
-0.0268179
-0.0265828
-0.00447917
-0.0503862
-0.0104979
-0.00321717
-0.375538
-0.533468
0.618697
0.526094
-0.0664225
0.434489
0.480848
0.452956
0.4934
0.503575
0.537344
0.500366
0.476793
0.445285
0.461902
0.443698
0.463312
-0.352488
-0.425936
-0.276918
-0.32406
0.128673
0.562097
0.318106
0.265405
0.257707
0.423541
0.363021
0.0948446
-0.217556
-0.344753
-0.519861
-0.389903
-0.544582
-0.0855936
-0.0312695
-0.1155
-0.0392051
0.0380432
-0.0253457
-0.0357347
-0.109538
0.446558
-0.168807
-0.148802
0.0797621
-0.00721913
0.232321
0.542684
0.5529
0.483387
0.459662
0.528739
0.501211
0.500712
0.531115
0.53754
0.442319
0.206952
0.196303
0.129673
0.552121
0.46581
0.500955
0.384498
0.485776
0.490116
0.468117
0.457777
0.496759
0.45737
0.452312
0.428938
0.421141
0.462741
0.466517
0.434557
-0.0065305
-0.0153645
-0.149034
-0.364722
-0.227664
-0.322035
-0.205449
-0.116819
-0.16814
-0.0808114
0.17348
-0.148594
-0.318065
-0.180112
-0.287728
-0.0386256
-0.124618
0.125794
0.12853
0.121454
0.141774
0.182542
0.155526
0.0360731
0.0440314
0.0807006
-0.00231423
0.129379
0.0889131
0.156873
0.0604072
0.116681
0.0699174
0.0290132
-0.00557189
0.105509
0.04853
0.00463544
0.0300441
0.0167983
-0.0756549
-0.0740787
0.183384
0.0487754
0.470622
0.453109
0.455066
0.474216
0.508771
0.500377
0.444695
0.447025
0.476247
0.44465
0.413902
0.394762
0.384322
0.41778
0.429134
0.425227
0.467844
0.458499
0.43023
0.451701
0.396153
0.416222
0.367987
0.388724
0.417475
-0.102224
0.0243849
-0.0379177
-0.0450531
0.0131925
0.0537947
0.114719
0.0313132
0.121214
0.0924397
0.0613683
0.0326274
0.0605402
-0.255363
-0.163665
-0.363975
-0.446078
-0.537923
0.587892
0.66998
0.545695
0.383368
0.432286
0.542364
0.652815
0.377521
0.401494
0.501228
0.400685
0.597762
0.46527
0.449892
0.471545
0.493722
0.46788
-0.199429
-0.0575827
-0.0174355
0.09208
0.196363
0.255134
0.129166
0.081263
0.173922
0.199453
0.543269
0.56403
0.529484
0.562838
0.558012
0.356542
0.450919
0.479189
0.476152
0.477097
0.499548
0.508434
0.502482
0.430733
0.428132
0.433493
0.390722
0.415274
0.387339
0.387275
0.442593
0.420431
0.421341
0.433455
0.483437
0.460487
0.490239
0.536727
0.514443
0.413879
0.394706
0.420282
0.430674
0.409024
0.407693
0.401582
0.130558
0.151032
0.0737489
-0.108915
0.0152454
-0.0478585
-0.0980292
-0.0801169
0.0603677
-0.418952
-0.358575
-0.87281
0.327329
0.428311
0.198172
-0.0807748
0.43869
0.477069
0.46176
0.359095
0.368447
0.535445
0.556992
0.565934
0.492172
0.485578
0.50623
0.490603
0.443384
0.316751
0.246784
0.292528
0.131094
0.192842
0.347378
0.289334
0.247454
0.280037
0.368597
0.273816
0.300209
0.374728
0.336074
0.328473
0.453448
0.499909
0.51694
0.458253
0.368443
0.430304
0.415754
0.463408
0.505199
0.508551
0.468383
0.448858
0.459291
0.45047
0.438413
0.456872
0.424868
0.473264
0.479125
0.487442
0.481196
-0.0109647
0.0124195
0.0290291
-0.0159969
-0.0724918
-0.125792
-0.145144
-0.147173
0.0746943
0.0463654
-0.0679682
-0.0115629
0.0925733
0.0384139
0.0580465
0.0633528
-0.0231895
-0.0787705
0.0895431
0.262451
0.260833
0.200127
0.0649568
0.0970564
0.208244
0.0312401
0.130791
0.0814367
0.0402984
0.0410132
0.0212956
0.118624
0.0496411
0.0903321
0.0395174
-0.120142
0.0474259
0.104127
-0.0519099
0.00937297
0.0439628
0.432159
0.436343
0.420424
0.400844
0.408381
0.40642
0.443337
0.470246
0.471453
0.470371
0.477738
0.45927
0.46552
0.0123814
0.138126
0.168428
0.0984533
0.0496832
-0.00586628
-0.0240458
0.0866777
-0.0844511
-0.0346517
-0.175114
-0.282778
-0.224996
0.33183
0.361143
0.360124
0.55332
0.414066
0.318883
0.413173
0.537826
0.252886
0.338756
0.227
0.590493
0.532153
0.632447
0.398904
0.0438338
0.128152
0.274518
0.00499627
0.00529753
0.125759
0.136229
0.139755
0.131982
0.210182
0.191009
0.16461
0.0614787
0.0989067
0.2425
0.225525
0.303632
0.358565
0.0694987
0.0924461
0.0308546
0.518521
0.54462
0.566852
0.538852
0.559439
0.499747
0.496517
0.529429
0.55713
0.545684
-0.728382
-0.472422
-1.29443
-0.59803
-0.305671
0.431042
0.161259
0.80278
0.629906
0.494993
0.515056
0.516009
0.47577
0.533027
0.533965
0.283258
0.377427
0.318663
0.358329
0.268851
0.194981
0.498923
0.485748
0.512489
0.532348
0.489023
0.531311
0.386395
0.429945
0.411857
0.44748
0.47214
0.492637
0.0718904
0.013412
0.016881
-0.000444774
-0.00706956
-0.0193119
-0.0482067
-0.0135157
0.180802
0.116109
0.0530953
0.112428
0.00522359
-0.00663698
-0.122513
-0.0408939
-0.135871
-0.269
-0.250812
-0.212687
-0.114563
-0.0377298
0.321995
0.472056
0.378144
0.506022
0.333412
0.480406
0.359109
0.364902
0.389772
0.287492
0.331167
-0.0170313
-0.318475
-0.215277
0.884972
0.970181
0.599782
0.333572
0.0986356
0.423565
0.467965
0.399173
0.41699
0.500327
0.460008
-0.115293
-0.0169343
-0.0860953
-0.020774
0.132408
0.0617427
0.0679261
0.0592076
0.0687448
)
;

boundaryField
{
    wall-4
    {
        type            calculated;
        value           nonuniform List<scalar> 
100
(
0.582155
0.266224
0.117144
0.605269
0.15014
-0.782087
0.527026
-0.130863
0.0348128
0.473172
-0.0141507
-0.0140387
-1.2018
0.591739
-0.741784
0.431199
0.0260133
-0.120402
0.426242
0.519202
-0.0995894
0.0761651
-0.0379359
0.132873
0.440088
-0.69867
-0.867006
0.552427
-0.268705
0.478663
0.440839
-0.25687
-0.0746063
0.0179673
0.0515757
0.390477
0.459849
0.483504
0.124382
0.0832496
0.0271111
-0.0498861
-2.21677
-0.606275
0.583826
0.588266
-0.8477
0.464897
0.41418
0.019819
0.0340151
0.211486
0.440043
0.497268
0.22468
0.555131
-0.116803
-0.0140779
0.0556536
0.195749
0.428535
0.453483
0.447814
-0.560383
-0.896971
0.572701
-0.413521
-0.202635
0.437937
0.449924
-0.462705
-0.00416782
0.00585209
0.0206167
0.378532
0.401815
0.457385
0.464127
0.0870463
-0.328239
0.593147
0.462656
0.469708
0.035827
0.38332
0.0966708
0.312281
0.587162
-0.0377772
0.104737
0.420873
0.456984
0.454904
0.577125
-0.0922868
0.347809
0.0690215
-0.195118
-0.0435524
-0.0445844
)
;
    }
    velocity-inlet-5
    {
        type            calculated;
        value           nonuniform List<scalar> 8(0.582155 0.605269 0.611825 0.608978 0.615008 0.621363 0.596175 0.628378);
    }
    velocity-inlet-6
    {
        type            calculated;
        value           nonuniform List<scalar> 4(0.266224 0.15014 0.166338 0.233722);
    }
    pressure-outlet-7
    {
        type            calculated;
        value           uniform 0;
    }
    wall-8
    {
        type            calculated;
        value           nonuniform List<scalar> 
34
(
-0.00252244
0.0219276
0.00886479
0.207866
0.25601
0.0762998
0.0322749
0.712305
0.029025
0.0144653
0.317359
0.492582
0.345963
0.200538
0.100591
0.0813549
-5.16107
0.06969
0.0542565
0.725121
0.626092
-0.437726
0.423496
0.403708
0.604214
0.141339
-1.00684
0.0717809
0.740054
0.509221
0.416593
0.681276
0.116285
0.718223
)
;
    }
    frontAndBackPlanes
    {
        type            empty;
    }
}

