/*--------------------------------*- C++ -*----------------------------------*\
  =========                 |
  \\      /  F ield         | OpenFOAM: The Open Source CFD Toolbox
   \\    /   O peration     | Website:  https://openfoam.org
    \\  /    A nd           | Version:  6
     \\/     M anipulation  |
\*---------------------------------------------------------------------------*/
FoamFile
{
    version     2.0;
    format      ascii;
    class       volVectorField;
    location    "0";
    object      U;
}
// * * * * * * * * * * * * * * * * * * * * * * * * * * * * * * * * * * * * * //

dimensions      [0 1 -1 0 0 0 0];

internalField   nonuniform List<vector> 
13046
(
(-0.391661 -0.291324 0)
(-1.01655 -0.790031 -4.94909e-22)
(-0.507124 -0.388181 -1.6616e-21)
(-0.560963 -0.432533 0)
(-0.445459 -0.318887 -1.39718e-21)
(-0.916317 -0.736547 0)
(-0.558616 -0.42877 2.33812e-22)
(-0.969354 -0.784977 2.25046e-22)
(-0.400851 -0.272127 -1.6546e-21)
(-0.0596683 -0.213052 2.03932e-21)
(-0.979193 -0.718634 0)
(-0.0770723 0.0915449 1.33037e-21)
(-0.384887 -0.31163 -8.09233e-22)
(-1.11265 -0.865628 -2.33141e-22)
(-0.387649 -0.26836 1.11662e-21)
(0.008476 -0.162825 -2.08619e-21)
(-0.119778 -0.00164041 3.26305e-21)
(-1.0579 -0.728556 -1.24612e-21)
(-0.427654 -0.301402 0)
(-0.754861 -0.613329 -6.86e-22)
(-0.758171 -0.580607 2.3554e-21)
(-0.00604262 -0.174834 -1.05106e-21)
(-0.108982 0.0183431 -4.35296e-21)
(-1.05242 -0.73123 0)
(-0.485294 -0.365474 9.39031e-22)
(-0.913717 -0.716098 -1.51482e-21)
(-0.529708 -0.407258 0)
(-0.332515 -0.269023 -1.53432e-21)
(-1.1321 -0.870324 8.63908e-23)
(-0.393488 -0.281491 -1.67897e-21)
(-0.344523 -0.252969 0)
(-1.04202 -0.794678 0)
(-0.517887 -0.408641 1.6897e-21)
(-0.513145 -0.384569 -1.09102e-21)
(-0.563353 -0.440827 5.09406e-22)
(-0.847592 -0.666098 2.64315e-21)
(-0.558967 -0.422031 -1.59869e-21)
(-0.557889 -0.427071 8.35704e-22)
(-0.81157 -0.640984 -1.34993e-21)
(-0.230909 -0.139406 1.16072e-21)
(-0.716498 -0.626034 3.39555e-22)
(-1.00614 -0.737063 -1.0343e-21)
(-0.650629 -0.502059 6.72445e-22)
(-0.587158 -0.451882 1.20184e-21)
(-0.69077 -0.5449 0)
(-0.672245 -0.51762 5.07258e-22)
(-0.524925 -0.394883 -1.8549e-21)
(-0.722084 -0.575117 -2.24694e-22)
(-0.411059 -0.313755 0)
(-1.0271 -0.80483 -3.03293e-23)
(-0.459511 -0.346323 -2.21493e-23)
(-0.903836 -0.828453 1.17497e-21)
(-0.120497 -0.0228362 0)
(-1.00212 -0.694115 -1.58968e-21)
(-0.97063 -0.891586 -1.63103e-21)
(-0.96348 -0.674289 -3.13828e-21)
(-0.109569 -0.00427643 1.84758e-21)
(-1.21735 -0.806538 1.90543e-22)
(-0.00870523 -0.0815458 0)
(-0.368075 -0.317201 1.73363e-21)
(-0.512409 -0.410023 -9.86086e-22)
(-1.17347 -0.964866 -8.31076e-23)
(-0.207056 -0.0466592 -3.98395e-21)
(-0.143106 0.0130539 2.35059e-21)
(-1.16143 -0.874519 5.933e-22)
(-0.180166 -0.245362 -2.41331e-21)
(-0.0018294 -0.0619111 0)
(-1.22471 -0.798603 0)
(-0.434179 -0.400152 0)
(-0.0190664 -0.0618628 -6.2927e-22)
(-1.22455 -0.807146 0)
(-0.46324 -0.430605 1.24348e-21)
(-1.20053 -0.781446 0)
(0.012195 -0.0803695 3.3585e-23)
(-0.33587 -0.291291 -3.29524e-23)
(-0.394384 -0.275268 0)
(-0.745863 -0.614798 8.36736e-22)
(-0.806061 -0.621699 -1.54265e-21)
(-0.254934 -0.187742 1.98476e-21)
(0.0102688 -0.110035 -2.59722e-21)
(-1.17257 -0.773813 0)
(-0.494383 -0.373191 5.01631e-22)
(-0.936126 -0.738198 0)
(-0.487423 -0.361285 0)
(-0.12807 0.030043 -2.12941e-21)
(-1.12965 -0.842968 5.97449e-22)
(-0.142858 -0.23347 1.481e-21)
(-0.360365 -0.336568 -2.9723e-21)
(-0.113408 0.0758253 0)
(-1.16865 -0.949072 3.89796e-22)
(-0.0672133 0.129671 0)
(-0.550058 -0.414156 0)
(-1.14234 -0.996344 -5.82713e-23)
(-0.263635 -0.257068 0)
(-0.271851 -0.268004 1.0307e-21)
(-1.21196 -0.921605 -6.80791e-22)
(-1.21248 -0.928269 3.34312e-22)
(-0.264018 -0.132428 -9.78305e-22)
(-0.229145 -0.0872492 2.4109e-21)
(-0.10991 0.0808912 -1.13015e-22)
(-0.418225 -0.36901 2.90767e-21)
(-1.17008 -0.969706 0)
(-0.65713 -0.504785 -4.46544e-24)
(-0.493045 -0.36528 9.88403e-22)
(-0.776661 -0.624387 0)
(-0.181766 -0.0572391 0)
(-0.844425 -0.610541 -9.32311e-22)
(-0.974262 -0.859688 0)
(-0.170502 -0.0710557 2.01005e-21)
(-0.855191 -0.763475 0)
(-0.970671 -0.697998 -3.01281e-21)
(0.0349132 -0.180019 0)
(-0.0388686 0.122019 0)
(-0.746618 -0.539339 1.72093e-21)
(-0.414288 -0.326228 2.26359e-21)
(-1.07951 -0.839769 2.45422e-22)
(-0.407905 -0.285931 1.58848e-21)
(-0.162001 -0.199894 1.17837e-21)
(-0.201328 -0.216279 -2.13464e-21)
(-1.21462 -0.887748 6.49557e-22)
(-0.252207 -0.137377 1.09405e-21)
(-1.21646 -0.901179 -5.46341e-22)
(-0.274477 -0.158861 -1.02228e-21)
(-0.0231161 -0.200075 -2.03875e-21)
(-0.932657 -0.672985 1.89469e-21)
(-0.067019 0.096162 -5.96462e-22)
(-0.281945 -0.249182 0)
(-1.18889 -0.906313 1.47389e-22)
(-0.327691 -0.215935 2.11797e-21)
(-0.232833 -0.1505 0)
(-0.660129 -0.5717 -1.49353e-21)
(-1.04094 -0.765705 6.26188e-23)
(-0.0709049 0.119889 0)
(-0.585343 -0.435288 0)
(-1.16043 -1.01629 0)
(-0.30106 -0.298189 0)
(-1.2023 -0.938762 1.45654e-21)
(-0.175344 -0.0120937 -2.59527e-21)
(-0.318045 -0.241715 0)
(-1.08304 -0.823613 0)
(-0.492405 -0.389645 0)
(-0.615428 -0.475536 0)
(-1.05729 -0.877143 0)
(-0.276993 -0.137058 0)
(-0.157494 -0.0499818 0)
(-0.902564 -0.807686 0)
(-0.957049 -0.681579 1.69734e-21)
(-0.208829 -0.0834485 -2.06458e-22)
(-0.831535 -0.613193 -2.02365e-21)
(-0.96785 -0.840599 1.19545e-21)
(-0.469413 -0.386886 2.85018e-21)
(-1.18842 -0.968714 0)
(-0.200673 -0.0449942 5.23478e-21)
(-0.295875 -0.16796 0)
(-0.739039 -0.561899 1.8253e-21)
(-0.935675 -0.79152 -2.38272e-22)
(-1.07372 -0.96987 0)
(-0.857884 -0.604825 2.65637e-21)
(-1.11451 -0.994975 0)
(-0.795712 -0.56856 1.66374e-21)
(-0.111002 0.0207841 0)
(-0.113049 0.0287891 0)
(-0.718433 -0.540925 2.96465e-22)
(-1.03586 -0.88405 3.26454e-22)
(-0.22877 -0.0958862 -9.25956e-22)
(-0.100566 -0.231366 -2.24755e-21)
(-0.0782856 0.102517 0)
(-0.986737 -0.741239 1.93163e-21)
(0.0218118 -0.186743 -1.92461e-21)
(-0.0469722 0.114224 -2.6544e-22)
(-0.815008 -0.586266 0)
(-0.255644 -0.274684 -1.84885e-21)
(-1.19729 -0.923958 0)
(-0.16953 -0.0136577 2.95645e-21)
(-0.144846 -0.0920243 0)
(-1.12558 -0.79575 2.09049e-22)
(-0.650302 -0.588179 9.30708e-22)
(-0.756196 -0.559485 1.8124e-21)
(-0.233541 -0.101633 4.35984e-22)
(-0.999418 -0.850702 0)
(-0.0819133 0.110926 0)
(-1.04612 -0.820947 0)
(-0.202008 -0.268058 2.08897e-21)
(-0.170605 -0.10335 0)
(-1.09129 -0.777395 -5.33521e-22)
(-0.676458 -0.598086 2.26997e-22)
(-0.264656 -0.141127 0)
(-0.757018 -0.56811 0)
(-0.939139 -0.803867 0)
(-0.618324 -0.481829 8.12534e-22)
(-1.02565 -0.850543 0)
(-0.298899 -0.165035 0)
(-1.14073 -0.89896 3.54066e-23)
(-0.330333 -0.202241 -1.19214e-21)
(-0.320128 -0.269953 2.42111e-21)
(-1.17283 -0.898695 0)
(-0.342144 -0.223666 -2.65377e-21)
(-0.247315 -0.287406 -2.91734e-21)
(-0.113996 0.069464 1.88109e-21)
(-1.13505 -0.889109 2.5441e-21)
(-0.0948969 0.095751 1.66155e-21)
(-0.532973 -0.418806 1.82417e-21)
(-1.17741 -1.00942 -1.55992e-21)
(-0.438323 -0.367087 -6.02549e-21)
(-1.13588 -0.95444 0)
(-0.0849578 0.116975 -1.647e-21)
(-0.915341 -0.864114 -6.82838e-23)
(-1.07331 -0.709098 7.32994e-22)
(-0.0600273 0.0180157 0)
(-0.505928 -0.397643 -3.77758e-21)
(0.0230265 -0.0949815 1.18684e-21)
(-0.275124 -0.215881 -1.20796e-21)
(-1.17484 -0.76925 0)
(-1.10507 -0.918011 0)
(-0.378799 -0.343674 -5.87742e-21)
(-0.0826161 0.121691 0)
(-0.598451 -0.456667 -2.41364e-21)
(-0.502785 -0.375068 -8.21396e-22)
(-0.822696 -0.659116 1.93755e-21)
(-0.311707 -0.245161 0)
(-1.12818 -0.858974 -1.43739e-23)
(-0.435317 -0.32275 -9.68829e-22)
(-0.0831506 0.104916 1.248e-21)
(-0.574696 -0.43869 0)
(-1.17022 -1.01833 1.79577e-21)
(-0.49631 -0.38852 3.12309e-21)
(-1.12577 -0.897122 3.23263e-22)
(-0.321117 -0.188746 0)
(-0.0584674 0.124357 0)
(-0.880349 -0.665447 -2.11346e-21)
(-0.0647424 -0.217205 0)
(-0.0632566 0.025057 0)
(-1.03348 -0.687677 0)
(-0.958906 -0.906927 0)
(-0.449958 -0.381176 5.28569e-21)
(-1.16137 -0.972557 0)
(-0.09551 0.099614 1.71784e-23)
(-0.751463 -0.552913 8.63943e-22)
(-1.07723 -0.941637 -2.00018e-22)
(-0.166522 -0.0281458 0)
(-0.246048 -0.222637 0)
(-1.19429 -0.897122 -1.29367e-22)
(-0.345396 -0.238771 1.75227e-21)
(-1.17026 -1.05898 9.28512e-22)
(-0.755504 -0.523365 -3.23799e-21)
(-0.0652708 0.0988644 9.66463e-22)
(-0.798063 -0.563298 0)
(-1.13729 -1.02218 8.626e-24)
(-0.0931419 0.0534314 -3.3378e-23)
(-0.0538899 0.133024 -1.71882e-21)
(-0.854007 -0.652757 0)
(-0.0755175 -0.215186 -2.76936e-21)
(-0.150943 -0.0692003 1.06905e-21)
(-0.788053 -0.710398 -9.49232e-22)
(-1.04418 -0.740999 1.02971e-22)
(0.107156 -0.163407 2.16514e-21)
(-0.0262059 0.102482 -2.4777e-21)
(-0.687863 -0.456293 0)
(-0.42734 -0.303615 -4.67388e-22)
(-0.708346 -0.544947 -1.93153e-21)
(-0.798888 -0.649809 2.0205e-21)
(-0.637259 -0.489046 1.42746e-21)
(-0.712181 -0.532684 5.33826e-23)
(-1.1157 -0.946463 -3.34486e-22)
(-1.0762 -0.93012 0)
(-0.193648 -0.0523975 8.41925e-22)
(-0.197995 -0.0495054 -9.04687e-22)
(-0.213986 -0.139665 -2.60522e-21)
(0.018834 -0.116002 1.29601e-21)
(-1.14861 -0.760162 2.494e-21)
(-0.238004 -0.205426 0)
(-1.18437 -0.880308 0)
(-0.393018 -0.289783 -2.32202e-21)
(-0.75097 -0.535667 -7.72307e-22)
(-1.15904 -1.03822 0)
(-0.091376 0.0652014 0)
(-0.217689 -0.244314 -1.26506e-21)
(-1.20753 -0.909325 0)
(-0.208801 -0.071375 1.11095e-21)
(-0.605544 -0.463266 5.0107e-22)
(-0.703157 -0.548483 6.22011e-22)
(-0.615826 -0.476894 -2.51788e-22)
(-0.739375 -0.540078 -2.1114e-21)
(-1.1216 -0.984756 0)
(-0.138811 0.00797745 -1.55081e-21)
(-0.200964 -0.181186 0)
(-1.19499 -0.876266 -1.34252e-22)
(-0.398373 -0.308528 -1.40008e-21)
(-0.427789 -0.345877 0)
(-0.417285 -0.339874 3.37653e-22)
(-0.126484 -0.0494221 4.03361e-22)
(-0.795493 -0.728477 2.74755e-21)
(-1.05974 -0.741355 -2.45913e-21)
(-0.678477 -0.507738 -2.42194e-21)
(-1.14687 -0.997841 -8.14629e-23)
(-0.13951 0.0150506 1.41179e-21)
(-0.217322 -0.248606 0)
(-0.184643 -0.0382052 -3.90933e-21)
(-1.19911 -0.906856 9.97434e-22)
(-0.200322 -0.0988156 -2.77797e-21)
(-0.830186 -0.738355 0)
(-0.954796 -0.696283 9.12669e-22)
(-0.0878868 0.0354838 -1.77735e-21)
(-0.8976 -0.618102 -1.37815e-21)
(-1.06789 -0.982351 0)
(-0.121733 -0.15487 -1.01754e-21)
(-1.22026 -0.867106 4.42978e-22)
(-0.320972 -0.232531 6.7532e-22)
(-0.11056 -0.0229966 1.45751e-22)
(-0.870158 -0.800921 0)
(-1.04154 -0.717038 2.09977e-21)
(-0.104749 -0.152832 0)
(-0.118941 -0.171759 0)
(-1.21799 -0.862843 4.66078e-22)
(-0.292846 -0.201297 -1.81735e-21)
(-1.21281 -0.871227 -6.66624e-22)
(-0.259952 -0.156454 1.92466e-21)
(-0.0927754 0.0945944 -1.49293e-21)
(-1.06593 -0.829662 0)
(-0.188263 -0.265771 -2.40227e-21)
(-0.199459 -0.203933 1.21582e-21)
(-1.21258 -0.896167 0)
(-0.310302 -0.203055 6.1792e-22)
(-0.582363 -0.404222 -5.77657e-21)
(-0.0196774 0.113743 2.16695e-21)
(0.0921802 -0.148061 7.01057e-21)
(-0.762011 -0.578823 -1.01412e-21)
(-0.330912 -0.209027 0)
(-0.867696 -0.725041 0)
(-0.507287 -0.409971 2.52581e-21)
(-1.15361 -0.943686 0)
(-0.232502 -0.0826522 2.99562e-21)
(-0.131887 0.0418429 -1.21867e-21)
(-0.255955 -0.289283 5.7364e-21)
(-1.16175 -0.905221 -1.61765e-21)
(-0.986543 -0.91507 0)
(-0.971968 -0.668135 1.16728e-21)
(-0.0900422 0.0143562 -2.09444e-21)
(-1.17331 -1.04947 1.99189e-21)
(-0.691314 -0.492896 -2.09082e-21)
(-0.0707896 0.101544 0)
(-1.07677 -0.86348 -8.74321e-22)
(-0.349023 -0.215561 0)
(-0.391055 -0.336334 2.73044e-21)
(-1.1828 -0.93656 -1.45126e-22)
(-0.257365 -0.117549 9.58736e-22)
(-1.06488 -0.867694 4.31124e-22)
(-0.329014 -0.194818 8.48146e-23)
(-0.00977696 -0.161813 -1.15327e-22)
(-0.143429 -0.029725 1.52004e-21)
(-1.09648 -0.755079 1.83391e-21)
(-0.892141 -0.86319 0)
(-1.10849 -0.721849 2.03836e-22)
(-0.0417975 0.0237818 0)
(-0.381578 -0.329381 -2.78008e-21)
(-1.19913 -0.945825 1.7657e-22)
(-0.23201 -0.0847592 -1.23495e-21)
(-0.650596 -0.499172 0)
(-1.05265 -0.889827 -4.73718e-22)
(-0.248717 -0.111039 0)
(-0.90014 -0.645077 0)
(-0.948147 -0.850758 0)
(-0.16163 -0.0466721 0)
(-0.459853 -0.351983 -6.94238e-22)
(-0.987653 -0.780201 -6.81982e-22)
(-0.460801 -0.34138 3.86075e-23)
(-0.0837048 0.0307266 2.2068e-21)
(-0.945764 -0.644042 3.74063e-21)
(-1.03811 -0.957925 4.77836e-22)
(-0.303046 -0.315162 -3.11187e-21)
(-1.13207 -0.905584 -2.20349e-21)
(-0.104807 0.0882131 -1.76395e-21)
(-1.17879 -1.03647 -1.2456e-21)
(-0.64449 -0.472668 2.1163e-21)
(-0.0834508 0.0928914 1.19542e-21)
(-0.0331782 -0.04189 -1.82077e-21)
(-0.568105 -0.534471 1.69285e-21)
(-1.21601 -0.800192 -1.25612e-23)
(-0.0360389 -0.126791 7.17086e-22)
(-0.0535279 -0.126532 -5.95085e-22)
(-1.21243 -0.831102 1.55083e-22)
(-1.20002 -0.817816 0)
(-0.266712 -0.18669 -6.51973e-22)
(-0.297171 -0.220618 -5.84526e-22)
(-0.0224678 0.112122 -2.91665e-21)
(-0.61458 -0.421523 6.3595e-21)
(0.0949147 -0.157687 1.45842e-21)
(0.10189 -0.166573 -1.27081e-22)
(-0.0333918 0.0954946 3.43929e-21)
(-0.735788 -0.485835 0)
(-0.627678 -0.479358 -4.58167e-21)
(-1.14588 -0.967475 -6.33064e-24)
(-0.18549 -0.029145 0)
(-0.107063 0.0734406 -3.63183e-21)
(-0.204817 -0.271659 2.38766e-21)
(-1.11135 -0.860819 0)
(-0.0691995 -0.100456 2.87093e-21)
(-0.0714788 -0.111149 -2.17291e-21)
(-1.22101 -0.835845 -2.66583e-22)
(-1.22314 -0.841052 -1.6181e-22)
(-0.427195 -0.367482 -1.13252e-21)
(-0.378817 -0.31164 -5.78409e-22)
(-0.0667036 0.143588 0)
(-1.03147 -0.860168 0)
(-0.34307 -0.319191 1.23717e-21)
(0.127546 -0.158858 -2.54527e-21)
(-0.0180692 0.0984814 0)
(-0.619435 -0.398277 0)
(-0.767401 -0.59566 6.45256e-23)
(-0.479122 -0.349582 1.07036e-21)
(-0.680216 -0.547772 4.73655e-22)
(0.075546 -0.169472 -5.13849e-21)
(-0.695209 -0.482348 -2.51659e-21)
(-0.0297494 0.114186 1.59368e-22)
(-0.154463 -0.114505 0)
(-1.15369 -0.820369 -5.54526e-22)
(-0.572138 -0.504231 -3.09683e-23)
(-0.247278 -0.290349 -6.03227e-23)
(-1.0615 -0.844763 -3.80041e-21)
(-0.0858552 0.114058 -6.65078e-24)
(-0.510818 -0.380172 -1.63196e-22)
(-0.0223389 0.113343 -1.25872e-21)
(0.0652212 -0.130806 -3.19407e-21)
(-0.261715 -0.158464 -9.84839e-22)
(-0.740636 -0.63728 9.11148e-22)
(-0.954808 -0.707115 2.52286e-21)
(-0.678802 -0.522574 0)
(-0.864266 -0.703281 -2.20898e-21)
(-0.40155 -0.275835 1.28475e-21)
(0.00572356 -0.189168 0)
(-0.0647168 0.0865376 1.77326e-21)
(-0.925022 -0.657245 3.82347e-23)
(-0.69066 -0.528119 0)
(-0.883262 -0.726201 -6.14566e-22)
(-0.364318 -0.236699 -1.82551e-21)
(-0.733493 -0.570085 9.62244e-22)
(-0.516922 -0.38518 -5.739e-22)
(-0.672861 -0.536561 2.60688e-22)
(-0.0501996 0.0442729 1.08077e-21)
(-1.02416 -0.675182 -1.33336e-21)
(-1.00773 -0.959931 6.2598e-22)
(-0.80769 -0.616134 0)
(-0.776648 -0.645508 0)
(-0.356285 -0.236505 1.54926e-22)
(-0.803056 -0.601723 1.5917e-21)
(-0.831874 -0.689758 5.94602e-22)
(-0.334879 -0.207417 2.16471e-23)
(-0.0374416 -0.0338642 2.72826e-21)
(-1.201 -0.791063 -4.80378e-22)
(-0.62525 -0.596901 -1.70207e-21)
(-0.0972677 0.0557822 2.65758e-21)
(-0.0936645 0.0675137 -2.71526e-21)
(-1.03967 -0.754102 -1.34104e-21)
(-1.03844 -0.759603 -8.64641e-22)
(-0.0537174 -0.200704 0)
(-0.0736842 -0.213867 -2.08762e-21)
(-0.301264 -0.306631 3.76396e-21)
(-1.10564 -0.889974 2.20577e-21)
(-0.093728 0.106211 2.17103e-21)
(-0.541423 -0.522803 -1.19952e-21)
(-0.00827195 -0.0366891 6.07258e-22)
(-1.22335 -0.794137 1.60106e-23)
(-0.17028 -0.0937223 -9.75596e-22)
(-0.734132 -0.653944 -9.08681e-22)
(-1.05725 -0.754529 7.78351e-22)
(-0.866181 -0.588964 0)
(-1.12447 -1.03304 -8.93168e-24)
(-0.0684246 0.0671278 3.45267e-23)
(-0.660399 -0.524002 -2.18998e-21)
(-0.0392524 0.140248 -1.18733e-21)
(-0.0497738 -0.18097 -2.73496e-21)
(-0.0711674 0.129562 0)
(-0.489258 -0.387045 0)
(-1.12831 -0.97051 -1.32015e-21)
(-0.021762 -0.200948 2.12453e-21)
(-0.0557077 0.115341 0)
(-0.867874 -0.638186 2.07453e-21)
(-0.0166501 0.10142 -4.5074e-33)
(-0.452947 -0.326761 2.91233e-21)
(0.0913165 -0.116277 3.31473e-21)
(-0.444465 -0.287573 -3.28372e-21)
(-0.00873616 0.0943916 4.49732e-33)
(0.124059 -0.124355 -2.9297e-21)
(-1.18651 -0.997511 4.8867e-22)
(-0.554554 -0.439638 0)
(-0.154949 0.0156311 -3.07257e-21)
(-0.891799 -0.731354 9.86863e-22)
(-0.0562547 0.153311 -1.20431e-21)
(-0.231652 -0.266274 0)
(-0.324596 -0.313224 -2.38305e-21)
(-1.19561 -0.944627 -9.42241e-22)
(-0.15945 0.0116303 1.69595e-21)
(0.0746613 -0.14565 4.35892e-21)
(-0.0890607 0.0163283 1.07608e-21)
(-0.956191 -0.626251 0)
(-0.47398 -0.375586 6.42901e-22)
(-0.382857 -0.253012 -5.47081e-22)
(-1.06139 -0.842615 2.32627e-22)
(-1.06637 -0.898472 -7.47232e-22)
(-0.0685611 0.139965 1.23694e-21)
(-0.393532 -0.34062 1.12694e-21)
(-0.905326 -0.607691 -1.67026e-21)
(-0.0670404 0.0606794 -6.13473e-22)
(-1.10231 -1.01685 0)
(-1.1673 -1.03307 0)
(-0.699101 -0.506017 0)
(-0.100305 0.0612585 0)
(-0.00317282 0.0495497 0)
(-0.22466 -0.133995 2.9597e-21)
(0.104833 -0.0638822 2.84027e-21)
(-0.597729 -0.432511 -2.56186e-21)
(-0.0253514 0.120193 -1.52123e-21)
(0.0644772 -0.151309 -2.64788e-21)
(-0.497079 -0.385518 -1.60184e-21)
(-0.411414 -0.284699 1.33244e-21)
(-1.01389 -0.810202 3.39149e-22)
(-1.0202 -0.829097 -3.9269e-21)
(-0.271062 -0.291257 -2.67411e-21)
(-0.0712637 0.135442 0)
(-0.0612376 0.151251 -1.31578e-21)
(-0.331252 -0.310603 0)
(-0.98681 -0.829797 2.7544e-21)
(-0.152351 -0.243277 -2.02458e-21)
(-0.113047 0.056631 3.96995e-21)
(-1.10655 -0.834924 0)
(-0.18655 -0.0881532 -3.10776e-21)
(-1.14787 -0.787168 -1.41385e-21)
(-0.0192889 -0.145736 0)
(-0.0234796 -0.0150339 -3.33749e-21)
(-1.19757 -0.780231 6.12223e-22)
(-0.681312 -0.65991 -5.38487e-22)
(-1.21712 -0.826549 -2.02727e-22)
(-0.0407357 -0.104488 1.33331e-21)
(-0.347091 -0.284165 -1.85256e-21)
(-0.158063 -0.071975 -2.79943e-21)
(0.037955 -0.130329 0)
(-1.08662 -0.718815 0)
(-0.206595 -0.163161 -5.22675e-22)
(-0.186627 -0.158687 0)
(-1.15562 -0.843525 -3.37469e-22)
(-1.18432 -0.858852 3.61114e-22)
(-0.494328 -0.404145 2.86668e-22)
(-0.455038 -0.371485 -3.05075e-22)
(-0.193269 -0.145032 5.01888e-22)
(-1.14043 -0.825397 0)
(-0.548036 -0.466196 5.08179e-22)
(-0.0469765 -0.0797836 0)
(-1.22086 -0.825575 3.66144e-22)
(-0.456204 -0.411377 4.15865e-22)
(-1.17807 -1.03288 5.51412e-22)
(-0.648495 -0.480777 1.96423e-21)
(-0.0951647 0.0772884 -2.50785e-21)
(-1.10304 -0.904802 0)
(-0.329369 -0.320571 6.22842e-21)
(-0.0838252 0.116942 0)
(-0.108446 0.0762311 -8.09638e-22)
(-0.548807 -0.431982 -1.43917e-21)
(-1.18404 -1.01047 4.3027e-22)
(-0.488155 -0.310805 4.77463e-22)
(-0.009872 0.098609 7.88215e-22)
(0.126985 -0.134367 0)
(-0.29612 -0.203131 9.14525e-22)
(-0.330797 -0.23466 0)
(-0.627231 -0.523673 0)
(-1.00362 -0.753454 2.35452e-21)
(-0.595958 -0.48761 0)
(-0.998603 -0.759811 -1.53261e-21)
(-0.0824762 -0.0815614 0)
(-0.0972627 -0.0798691 0)
(-0.571358 -0.517449 6.88557e-23)
(-1.20685 -0.826365 2.26951e-22)
(-0.523524 -0.46696 2.79472e-21)
(-1.18693 -0.817508 -6.78219e-22)
(-0.525355 -0.409736 0)
(-0.0273057 0.120405 1.71748e-21)
(0.0284336 -0.138506 0)
(-1.04338 -0.83964 2.09723e-21)
(-0.269484 -0.299045 7.14266e-22)
(-0.0775846 0.125592 7.95538e-22)
(-0.106093 -0.0438366 -1.76913e-21)
(-0.767497 -0.708895 -9.352e-22)
(-1.10105 -0.759881 2.45535e-21)
(-1.16088 -1.05255 -7.31996e-22)
(-0.78128 -0.542809 5.31985e-21)
(-0.0707087 0.0850152 0)
(-0.209288 -0.120017 3.32385e-21)
(-1.16305 -0.7943 1.50396e-21)
(-0.019407 -0.138142 1.75712e-21)
(-0.734531 -0.548403 0)
(0.00152478 -0.183041 0)
(-0.0396677 0.131757 0)
(-0.785778 -0.602524 0)
(-0.0505292 -0.201271 2.2354e-21)
(-0.0465101 0.137639 2.92789e-22)
(-0.105098 -0.134996 -1.19533e-21)
(-1.22014 -0.859617 -3.01614e-22)
(-0.361898 -0.283921 8.56005e-22)
(-0.22164 -0.11155 -2.68778e-22)
(-0.846081 -0.740201 0)
(-0.918224 -0.670973 5.88396e-23)
(-0.121343 -0.2328 2.35834e-21)
(-0.102267 0.0690916 2.34153e-21)
(-1.07187 -0.799892 1.00618e-21)
(-1.18547 -1.00819 0)
(-0.568346 -0.441343 0)
(-0.135553 0.0394651 2.63346e-21)
(-0.168074 -0.0239102 7.45557e-22)
(-1.17999 -0.879999 -1.81208e-21)
(-0.169779 -0.230559 4.68809e-21)
(-0.0913628 -0.0662833 0)
(-0.618976 -0.569321 -1.84291e-21)
(-1.17338 -0.806391 4.46689e-22)
(-0.8138 -0.589804 -1.3119e-22)
(-1.04076 -0.914445 2.93125e-22)
(-0.164248 -0.0309334 0)
(-0.204254 -0.114402 2.8703e-23)
(-0.753428 -0.665944 -3.11142e-22)
(-1.00883 -0.734024 -1.01815e-21)
(-0.0909431 0.0912233 4.27402e-24)
(-1.04395 -0.79465 -2.59886e-21)
(-0.140484 -0.244633 3.02428e-21)
(-0.166509 -0.212008 -7.58337e-22)
(-1.20671 -0.889327 3.72887e-22)
(-0.219839 -0.0936411 0)
(-0.294779 -0.191719 -9.91379e-22)
(-0.701342 -0.593507 1.84144e-21)
(-0.950688 -0.712678 -1.65502e-21)
(0.0604984 -0.131081 1.51364e-21)
(-0.131651 -0.0427687 1.23893e-21)
(-1.03998 -0.678659 1.61316e-21)
(-0.272425 -0.204686 -6.34391e-22)
(-1.09498 -0.821171 0)
(-0.520111 -0.425207 0)
(-0.674733 -0.513357 -2.85063e-21)
(-0.971268 -0.81086 3.28917e-22)
(-0.306038 -0.175502 0)
(-1.16957 -1.0164 0)
(-0.668542 -0.495199 3.46244e-21)
(-0.122211 0.040432 0)
(0.0910357 -0.162196 -1.15659e-21)
(-0.0496175 0.0732561 -3.72542e-22)
(-0.829378 -0.546102 -2.63069e-21)
(0.0971425 -0.153998 3.09584e-21)
(-0.0564196 0.0570024 0)
(-0.857431 -0.555675 2.22761e-21)
(-0.171775 -0.0380425 7.17495e-22)
(-1.17471 -0.860573 1.29039e-21)
(-0.129277 -0.209187 -4.20001e-21)
(-0.856458 -0.615104 -1.42622e-21)
(-1.04717 -0.936978 -4.67997e-22)
(-0.133527 -0.00528449 0)
(-0.0349819 0.0839293 3.41349e-22)
(-0.746595 -0.481095 2.4579e-21)
(0.115554 -0.160143 0)
(-0.139942 0.0374412 0)
(-1.18207 -0.935699 1.17664e-21)
(-0.309951 -0.312139 -6.35293e-22)
(-0.0147678 0.0876008 1.32074e-21)
(-0.369999 -0.27588 -2.99692e-21)
(0.0908207 -0.0933469 0)
(0.131736 -0.113106 -2.87239e-21)
(-0.363577 -0.216487 0)
(-0.00303283 0.0782956 1.31294e-21)
(-0.161592 -0.0628267 9.20268e-24)
(-1.10877 -0.750057 0)
(0.0092547 -0.143122 0)
(-0.0696239 0.116873 0)
(-0.959067 -0.727519 0)
(-0.108297 -0.232792 4.61193e-21)
(-0.0575939 -0.196416 -1.84979e-21)
(-0.0875877 -0.205408 1.49636e-21)
(-0.115919 0.0269712 -1.33303e-21)
(-1.08352 -0.777519 4.09138e-22)
(-0.129546 0.0123041 -2.17831e-21)
(-1.11823 -0.812543 -6.219e-22)
(-0.353236 -0.33551 1.2185e-21)
(-1.17946 -0.949654 -6.90203e-22)
(-0.131717 0.0503258 0)
(-0.0575376 0.0836057 0)
(-1.14024 -1.05578 0)
(-0.852935 -0.577161 0)
(-0.404154 -0.297101 0)
(-0.564556 -0.445594 -2.70663e-21)
(-0.954948 -0.737584 7.75885e-22)
(-0.470232 -0.392357 3.52093e-21)
(-1.18829 -0.989717 -1.67292e-22)
(-0.125175 0.0567382 2.46136e-21)
(-0.123602 0.0585451 1.56507e-21)
(-0.523361 -0.420087 -4.89605e-21)
(-1.18923 -1.0051 2.31492e-22)
(0.045825 -0.11328 1.48894e-21)
(-0.188204 -0.117673 1.33368e-21)
(-1.11066 -0.723529 -2.60763e-21)
(-0.0585852 -0.0684255 0)
(-1.21406 -0.820924 -6.84192e-23)
(-0.517119 -0.473368 -2.73968e-21)
(-0.131556 -0.106941 0)
(-1.17602 -0.828198 7.27525e-22)
(-0.546488 -0.482814 6.90888e-23)
(-0.458856 -0.384096 -3.61614e-21)
(-1.19684 -0.980707 -1.40105e-22)
(-0.1757 -0.011927 -1.3573e-21)
(-0.486117 -0.4023 0)
(-1.19401 -0.988219 -1.03353e-22)
(-0.158757 0.009922 1.24112e-21)
(-0.329326 -0.217112 0)
(-0.712555 -0.594394 -2.80573e-21)
(-0.90463 -0.684904 9.19006e-22)
(-0.155174 -0.141813 0)
(-1.19195 -0.855705 0)
(-0.455542 -0.385394 4.35518e-22)
(-0.0637297 0.143043 -2.6929e-21)
(-1.07719 -0.921732 3.92204e-21)
(-0.449143 -0.365545 0)
(-0.0823503 -0.208006 3.58338e-21)
(-0.046839 0.143642 0)
(-0.774285 -0.607697 -1.55144e-21)
(-0.0859037 -0.199788 4.84134e-23)
(-0.0442478 0.145615 0)
(-0.732161 -0.583674 4.50867e-21)
(-0.20445 -0.13464 7.14589e-22)
(-0.639238 -0.551533 -3.5616e-22)
(-1.0812 -0.786832 -7.56999e-23)
(-0.656056 -0.490904 6.27097e-23)
(-0.0337422 0.130351 2.32605e-21)
(0.0195398 -0.167614 0)
(-0.126217 -0.197351 3.34049e-21)
(-0.198612 -0.0734445 1.47416e-21)
(-1.1904 -0.865019 0)
(-0.0343023 0.132917 -3.45977e-22)
(-0.627472 -0.487582 2.72628e-21)
(-0.00474417 -0.165218 0)
(-0.607774 -0.463885 1.68844e-21)
(-0.446925 -0.317455 1.63555e-21)
(-0.876832 -0.704145 4.37753e-23)
(-0.369986 -0.312434 -4.21307e-22)
(-1.1722 -0.914645 1.21885e-23)
(-0.308923 -0.178988 -1.46918e-21)
(-0.998098 -0.903027 1.17076e-21)
(-0.904698 -0.641887 2.64881e-21)
(-0.131672 -0.014469 0)
(-0.060994 0.149143 0)
(-0.941189 -0.770938 1.25193e-21)
(-0.255211 -0.281596 0)
(-1.17993 -1.01814 0)
(-0.614392 -0.465169 0)
(-0.124635 0.0461932 0)
(-0.110666 -0.00629366 0)
(0.0505261 -0.146101 -1.63859e-21)
(-1.01483 -0.675805 -1.58226e-21)
(-0.353563 -0.310391 0)
(-1.18751 -0.929715 1.55689e-23)
(-0.277046 -0.143754 1.43229e-21)
(-0.436688 -0.321294 0)
(-0.569442 -0.447334 2.32509e-21)
(-0.921785 -0.715763 0)
(-0.968182 -0.781098 3.7093e-21)
(-0.22403 -0.273291 2.53591e-21)
(-0.0659529 0.140048 0)
(-0.144204 0.0195505 -1.55205e-21)
(-1.17003 -0.901058 -8.01516e-23)
(-0.226618 -0.271175 -1.22635e-22)
(0.0489271 -0.176879 0)
(0.0586785 -0.176083 2.68736e-21)
(-0.0527552 0.0911639 -8.69891e-22)
(-0.0444732 0.100604 -1.05063e-21)
(-0.855702 -0.58724 1.57862e-21)
(-0.810615 -0.558808 -1.29846e-21)
(-0.608033 -0.475123 0)
(-1.1057 -0.930947 7.47947e-22)
(-0.225237 -0.0810864 1.41533e-21)
(-1.17177 -0.987115 -6.35459e-22)
(-0.579809 -0.453863 0)
(-0.163792 0.0023252 -1.58581e-21)
(-0.592796 -0.451548 -1.48162e-21)
(-0.975621 -0.798419 4.77419e-22)
(-0.362052 -0.234619 2.15989e-21)
(-0.845946 -0.673109 -2.99705e-21)
(-0.136945 -0.231889 3.85077e-21)
(-0.845624 -0.683694 1.50042e-21)
(-0.0529424 0.145576 0)
(-0.172783 -0.24469 -3.72924e-21)
(-0.0528914 0.150146 0)
(-0.320081 -0.299914 0)
(-1.20792 -0.94213 0)
(-0.221877 -0.0730839 1.62482e-21)
(-0.169928 -0.25145 4.74963e-21)
(-0.135032 -0.235531 -8.89238e-21)
(-0.944025 -0.746374 -2.02807e-21)
(-0.887913 -0.696084 4.72478e-21)
(-0.0635661 0.135303 2.35583e-21)
(-0.0574377 0.139263 6.74473e-24)
(-0.636345 -0.482878 0)
(-1.15103 -0.988369 1.72896e-22)
(-0.159398 -0.00134916 2.06151e-21)
(-0.511787 -0.400467 1.64506e-21)
(-1.13855 -0.914345 -1.86347e-22)
(-0.285786 -0.14857 0)
(0.069261 -0.155547 0)
(-0.0756981 0.039863 0)
(-0.932884 -0.617643 -2.13793e-21)
(-0.557988 -0.441005 1.34622e-21)
(-1.12393 -0.930923 -1.88489e-22)
(-0.236252 -0.0917003 -2.36633e-21)
(-0.563743 -0.436347 6.50079e-22)
(-1.03104 -0.844699 -5.61764e-22)
(-0.333341 -0.200919 1.25486e-21)
(0.0632307 -0.170664 0)
(-0.0575874 0.0775624 0)
(-0.869167 -0.587373 2.88592e-21)
(-0.299224 -0.273079 0)
(-1.20288 -0.920354 -6.66485e-23)
(-0.280118 -0.152105 -1.52898e-21)
(-1.08484 -1.01619 0)
(-0.953122 -0.631715 0)
(-0.0521158 0.0645307 -7.99837e-23)
(-0.0680298 -0.0458895 -8.58402e-23)
(-1.17968 -0.797253 0)
(-0.642254 -0.603856 2.67293e-21)
(-1.16425 -1.04029 -8.74054e-22)
(-0.062001 0.118804 0)
(-0.65436 -0.470121 0)
(-0.00637725 0.0707751 -3.16613e-21)
(-0.316794 -0.200995 -4.14227e-21)
(0.113622 -0.0876364 -3.97685e-21)
(-0.451418 -0.367971 0)
(-1.15885 -0.932447 1.05958e-22)
(-0.26104 -0.118148 -1.26587e-21)
(0.0121328 -0.172309 3.20566e-21)
(-0.0916672 0.0397347 4.54033e-21)
(-1.00442 -0.692204 0)
(-0.790398 -0.766777 -5.6874e-22)
(-1.16111 -0.755472 -9.30564e-22)
(-0.029226 0.00739845 -7.22531e-22)
(0.138418 -0.143784 0)
(-0.00827263 0.0950001 -1.18262e-21)
(-0.501316 -0.30721 0)
(-0.257805 -0.138852 1.28729e-21)
(-0.223989 -0.105635 -1.32068e-21)
(-0.888666 -0.764316 0)
(-0.820383 -0.613181 1.20092e-21)
(-0.90704 -0.789446 -1.54029e-21)
(-0.859715 -0.636867 -1.06321e-21)
(-0.649035 -0.495158 1.40508e-21)
(-0.939536 -0.77244 8.62242e-22)
(-0.349476 -0.221673 0)
(-0.257549 -0.148777 1.13435e-21)
(-0.277595 -0.162808 0)
(-0.794728 -0.685584 -1.00264e-21)
(-0.918437 -0.679621 1.10764e-21)
(-0.822577 -0.704569 1.0109e-21)
(-0.862018 -0.640174 -2.95211e-23)
(-0.461528 -0.368436 1.06319e-22)
(-1.10482 -0.899078 -1.58398e-22)
(-0.291159 -0.153499 -1.63769e-21)
(-0.550438 -0.43078 -3.00532e-21)
(-1.10016 -0.902169 3.94923e-24)
(-0.273211 -0.133161 0)
(-0.0474996 0.150842 0)
(-0.771356 -0.626333 0)
(-0.140883 -0.222854 4.4887e-21)
(-0.215907 -0.154124 -6.59958e-22)
(-1.10665 -0.806776 0)
(-0.580198 -0.491699 6.74203e-22)
(-0.158244 -0.249432 -7.23403e-21)
(-0.986736 -0.766285 -2.01105e-21)
(-0.0711081 0.121953 -1.34575e-21)
(-0.39781 -0.349727 0)
(-0.375902 -0.338698 2.30145e-21)
(-1.20247 -0.966728 1.74881e-22)
(-1.20098 -0.962473 -8.7392e-22)
(-0.175146 -0.0115056 -1.74859e-21)
(-0.160925 0.0091288 -1.63733e-21)
(-0.257858 -0.186064 0)
(-1.08305 -0.804649 0)
(-0.565022 -0.470232 3.17541e-22)
(-0.100923 -0.11291 8.99743e-22)
(-1.21418 -0.84545 0)
(-0.44426 -0.376288 9.64522e-22)
(-0.41185 -0.350601 -9.79794e-22)
(-1.19352 -0.959957 0)
(-0.210139 -0.0607243 0)
(-0.474802 -0.349699 1.25453e-21)
(-0.823363 -0.643431 -4.82254e-22)
(-0.625451 -0.500123 6.24722e-22)
(-0.447973 -0.381544 0)
(-1.19478 -0.983263 0)
(-0.142268 0.0350771 -2.6151e-21)
(-0.364703 -0.259269 0)
(-0.613016 -0.497327 3.36666e-22)
(-0.950345 -0.728115 0)
(-0.563643 -0.445087 -2.13789e-21)
(-1.16359 -0.977112 1.6717e-22)
(-0.189072 -0.0275643 -2.10686e-22)
(-0.133948 -0.137463 9.14464e-22)
(-1.20879 -0.858962 0)
(-0.420433 -0.34746 1.93279e-21)
(-0.436128 -0.315283 -1.24244e-21)
(-0.403016 -0.284741 -5.62155e-22)
(-0.863371 -0.671863 5.09312e-22)
(-0.628474 -0.506071 -1.22294e-21)
(-0.85914 -0.665279 0)
(-0.668779 -0.546622 -2.2017e-21)
(-0.327627 -0.216612 -5.71396e-22)
(-0.751982 -0.634151 1.2149e-21)
(-0.307938 -0.188599 3.69782e-22)
(-0.860527 -0.653671 -1.41369e-21)
(-0.818752 -0.69164 -6.15301e-22)
(-0.845369 -0.635696 3.32678e-23)
(-0.2464 -0.193308 7.49893e-22)
(-0.26328 -0.213093 0)
(-1.13806 -0.844896 3.59476e-22)
(-1.15634 -0.8633 -2.80933e-22)
(-0.478172 -0.382737 -1.59684e-21)
(-0.430211 -0.324949 2.65084e-21)
(-0.181848 -0.072277 0)
(-1.16336 -0.818723 8.52129e-22)
(-0.0569651 -0.166714 -2.12683e-21)
(-0.0614788 0.0471411 9.5951e-22)
(-0.977477 -0.652149 2.10105e-21)
(-1.04735 -0.981249 -8.61878e-22)
(-0.155969 -0.0371679 -1.55009e-21)
(-0.150821 -0.0205107 1.21375e-21)
(-1.13601 -0.804202 -7.37642e-22)
(-1.14307 -0.825291 -1.18051e-21)
(-0.0503353 -0.175753 5.64724e-21)
(-0.084024 -0.195339 -2.98637e-21)
(-0.0840324 -0.00712925 1.30007e-21)
(-0.874987 -0.817175 -8.6276e-22)
(-1.06647 -0.724619 2.05438e-22)
(-0.564242 -0.428133 2.10493e-21)
(-0.606841 -0.47193 0)
(-0.754413 -0.590275 -1.87394e-21)
(-0.396604 -0.353403 -1.20859e-21)
(-1.19333 -0.969683 9.93628e-22)
(-0.143735 0.0333198 0)
(-0.266216 -0.184236 0)
(-0.612059 -0.521014 -3.02293e-22)
(-1.03852 -0.773219 -6.9664e-22)
(-0.136961 -0.145125 0)