/*--------------------------------*- C++ -*----------------------------------*\
  =========                 |
  \\      /  F ield         | OpenFOAM: The Open Source CFD Toolbox
   \\    /   O peration     | Website:  https://openfoam.org
    \\  /    A nd           | Version:  6
     \\/     M anipulation  |
\*---------------------------------------------------------------------------*/
FoamFile
{
    version     2.0;
    format      ascii;
    class       volScalarField;
    location    "0";
    object      P_rec;
}
// * * * * * * * * * * * * * * * * * * * * * * * * * * * * * * * * * * * * * //

dimensions      [0 2 -2 0 0 0 0];

internalField   nonuniform List<scalar> 
13046
(
0.927538
0.881075
0.877922
0.939539
0.89941
0.874411
0.92851
0.870176
0.894667
0.742861
0.352645
0.836045
0.933313
0.8231
0.868833
0.790458
0.817725
0.429299
0.927645
0.891674
0.921338
0.783242
0.824224
0.418111
0.93055
0.904051
0.884261
0.920008
0.822783
0.86254
0.934126
0.86168
0.86692
0.932305
0.900992
0.902536
0.929182
0.907421
0.908168
0.9136
0.850645
0.879185
0.916395
0.925032
0.916211
0.928058
0.912244
0.904552
0.922635
0.869123
0.879956
0.801648
0.895327
0.850401
0.802223
0.846252
0.894484
0.647155
0.875562
0.809134
0.898945
0.747357
0.871338
0.838655
0.541001
0.833526
0.879627
0.669123
0.803507
0.888423
0.695989
0.805043
0.605591
0.865088
0.807986
0.926509
0.895287
0.912755
0.814249
0.848905
0.569426
0.930171
0.892026
0.883544
0.834611
0.498632
0.811017
0.815493
0.854871
0.555147
0.861897
0.771336
0.536237
0.895256
0.885378
0.71402
0.685756
0.844464
0.847782
0.858631
0.816763
0.573586
0.934221
0.913724
0.89594
0.900972
0.87685
0.819035
0.902193
0.83363
0.874456
0.639289
0.837213
0.201379
0.934431
0.845093
0.869623
0.881306
0.891814
0.663883
0.831932
0.70407
0.835251
0.72278
0.312697
0.834394
0.91845
0.759231
0.855711
0.915892
0.85111
0.869466
0.863639
0.784556
0.574237
0.868094
0.635733
0.850306
0.931672
0.844277
0.85898
0.917879
0.833409
0.885749
0.89565
0.819856
0.879266
0.902164
0.895449
0.838422
0.897136
0.720166
0.86916
0.909101
0.909722
0.856036
0.766143
0.853747
0.74782
0.852826
0.885681
0.882839
0.91607
0.809094
0.892632
0.732635
0.840383
0.3623
0.675119
0.835921
0.237702
0.86164
0.608011
0.845216
0.913481
0.822897
0.833932
0.916474
0.897028
0.821472
0.846876
0.413441
0.751164
0.912749
0.843404
0.832573
0.906523
0.898145
0.841839
0.922185
0.843653
0.888449
0.801525
0.874204
0.920411
0.785378
0.856097
0.805933
0.847534
0.508959
0.863193
0.81106
0.592892
0.774718
0.518363
0.859426
0.782792
0.818174
0.887021
0.925407
0.854456
0.806065
0.5741
0.481898
0.7721
0.856668
0.927719
0.909048
0.900429
0.921468
0.837741
0.857296
0.864566
0.798897
0.596149
0.921456
0.808973
0.879031
0.842128
0.290873
0.680495
0.88548
0.821937
0.769689
0.795342
0.5569
0.860134
0.876686
0.77865
0.888969
0.908578
0.762521
0.85336
0.658075
0.806735
0.868084
0.840209
0.724198
0.877216
0.845266
0.279863
0.659422
0.909878
0.832627
0.854883
0.655979
0.828912
0.160667
0.91768
0.930634
0.886383
0.89308
0.890141
0.779176
0.793047
0.889813
0.881151
0.807567
0.838399
0.533485
0.914142
0.78771
0.845561
0.83858
0.69582
0.87452
0.869942
0.645329
0.839284
0.918347
0.912382
0.921595
0.869891
0.754433
0.883051
0.91454
0.772994
0.841004
0.921227
0.921316
0.909377
0.821289
0.835401
0.869373
0.73408
0.878606
0.852648
0.838411
0.616713
0.91349
0.838091
0.869982
0.885103
0.834985
0.753439
0.887127
0.693943
0.823697
0.898024
0.806773
0.839155
0.874999
0.875474
0.663752
0.821783
0.648678
0.827137
0.84335
0.4386
0.766073
0.895318
0.730263
0.836879
0.102727
0.837518
0.574241
0.927124
0.910837
0.853313
0.908546
0.771394
0.872098
0.847271
0.822626
0.548116
0.787632
0.833608
0.89158
0.631743
0.805356
0.866483
0.837925
0.877657
0.897015
0.760364
0.862521
0.827025
0.887577
0.811922
0.818501
0.469686
0.788343
0.795358
0.888931
0.889541
0.736437
0.856263
0.907733
0.818355
0.890685
0.873578
0.808972
0.898577
0.934123
0.869579
0.886526
0.883018
0.838374
0.764183
0.790274
0.510398
0.851917
0.635021
0.805825
0.868071
0.885508
0.804837
0.741178
0.861957
0.869335
0.641414
0.607093
0.811033
0.815265
0.835791
0.123136
0.602353
0.675576
0.8272
0.187932
0.890004
0.763424
0.876699
0.845363
0.797072
0.475597
0.88654
0.88812
0.717827
0.697262
0.820051
0.81723
0.857063
0.419786
0.720278
0.640712
0.827759
0.122837
0.911874
0.927523
0.900649
0.636203
0.165772
0.835417
0.914988
0.812544
0.829321
0.760262
0.431463
0.849549
0.107547
0.846959
0.51447
0.915361
0.855012
0.894045
0.928517
0.891897
0.906033
0.723753
0.831305
0.304883
0.923621
0.875768
0.904065
0.914869
0.925624
0.908622
0.887125
0.808683
0.763335
0.914807
0.884919
0.917485
0.928157
0.854869
0.915412
0.888911
0.759995
0.802693
0.828253
0.834607
0.411848
0.404844
0.773372
0.76821
0.7656
0.482151
0.851026
0.808258
0.884465
0.712443
0.907396
0.829984
0.858939
0.8259
0.715851
0.873405
0.20306
0.850564
0.564538
0.859813
0.765237
0.509441
0.691709
0.837563
0.276643
0.847281
0.0766709
0.503672
0.0408106
0.840483
0.537459
0.70618
0.869072
0.868369
0.32882
0.855616
0.655223
0.852482
0.621203
0.852595
0.766254
0.811568
0.342804
0.930642
0.876946
0.858498
0.452952
0.857887
0.74127
0.82735
0.875475
0.731294
0.684852
0.839839
0.873663
0.847315
-0.0477072
0.42874
0.128175
0.841674
0.557077
0.934589
0.888687
0.866442
0.404574
0.713344
0.853636
0.856797
0.690387
0.39283
0.791656
0.837873
0.472296
0.814779
0.530052
0.8315
0.894415
0.758393
0.801465
0.660371
0.878249
0.817462
0.811267
0.817719
0.459533
0.916064
0.91301
0.812832
0.788692
0.841637
0.841839
0.915683
0.825036
0.838693
0.893562
0.715385
0.818063
0.657447
0.822454
0.869504
0.471171
0.768549
0.853286
0.865413
0.827147
0.62972
0.053651
0.838054
0.563318
0.928079
0.928303
0.866371
0.879839
0.874377
0.882459
0.905934
0.895498
0.822046
0.759383
0.819412
0.790917
0.130284
0.848887
0.514583
0.422959
0.729715
0.853019
0.898312
0.808844
0.826539
0.682713
0.815016
0.871862
0.813242
0.553508
0.840916
0.204522
0.618825
0.844027
0.239784
0.633803
0.845665
0.893431
0.710706
0.826877
0.914242
0.836449
0.883635
0.78115
0.837085
0.434604
0.685162
0.853216
0.868993
0.838051
0.574489
0.846533
0.896498
0.822309
0.800679
0.881385
0.790661
0.891056
0.911986
0.842129
0.871801
0.840301
0.414142
0.763279
0.869145
0.636913
0.832609
0.922655
0.863717
0.892531
0.799301
0.808425
0.414529
0.919085
0.850444
0.857529
0.921458
0.845773
0.901708
0.706278
0.854761
0.874627
0.715112
0.820687
0.244346
0.730852
0.81703
0.265031
0.832664
0.564631
0.845092
0.867463
0.790298
0.887529
0.819841
0.194171
0.687275
0.851525
0.582384
0.839902
0.848004
0.0532175
0.469588
0.51717
0.00572233
0.837747
0.815981
0.481004
0.822975
0.843155
0.340869
0.711966
0.797451
0.810809
0.826726
0.445851
0.829528
0.487137
0.828655
0.588323
0.854533
0.876508
0.697973
0.804869
0.936682
0.880136
0.883577
0.840633
0.622136
0.862879
0.865712
0.847188
0.642514
0.828032
0.807926
0.48658
0.901396
0.737471
0.816071
0.90741
0.792212
0.822354
0.872446
0.69808
0.863632
0.866595
0.684979
0.865788
0.924832
0.863131
0.902804
0.911131
0.776604
0.840824
0.858696
0.463917
0.732214
0.616481
0.849193
0.246082
0.594706
0.852131
0.237922
0.915703
0.846063
0.853174
0.17114
0.845866
0.580648
0.857897
0.830459
0.594894
0.847686
0.176694
0.554832
0.937383
0.90633
0.882456
0.915904
0.785893
0.863024
0.795787
0.863776
0.892002
0.855824
0.354688
0.67977
0.683718
0.854688
0.871439
0.812434
0.786268
0.392278
0.904284
0.764158
0.859814
0.937257
0.887443
0.890304
0.363741
0.699402
0.851641
0.843487
0.561022
0.837246
0.706984
0.686251
0.828036
0.829791
0.262742
0.229748
0.903838
0.796945
0.885755
0.728178
0.877138
0.871242
0.920665
0.860551
0.89691
0.291264
0.643921
0.29814
0.849882
0.642936
0.852761
0.888573
0.697502
0.855661
0.696115
0.669669
0.341949
0.307503
0.849694
0.849928
0.874016
0.746396
0.879123
0.915018
0.802186
0.872612
0.752325
0.817098
0.320885
0.916155
0.78743
0.882436
0.92559
0.840208
0.890227
0.720178
0.821996
0.271848
0.907438
0.739827
0.849773
0.738754
0.809261
0.877508
0.897909
0.783125
0.814568
0.594869
0.863647
0.782045
0.845119
-0.0170303
0.457015
0.904963
0.779416
0.869115
0.768104
0.822506
0.373622
0.79623
0.77705
0.891358
0.578475
0.830623
0.065987
0.908543
0.904297
0.843558
0.899822
0.83886
0.897865
0.926536
0.85691
0.903175
0.911922
0.913773
0.849868
0.901033
0.864168
0.900004
0.91059
0.813425
0.884488
0.919186
0.813216
0.886519
0.852951
0.263224
0.604339
0.917586
0.843675
0.840795
0.719271
0.365149
0.846144
0.868947
0.858813
0.676381
0.644007
0.85814
0.855473
0.916403
0.862569
0.850839
0.895032
0.742156
0.821313
0.889064
0.721713
0.863613
0.929736
0.907306
0.891153
0.855064
0.645955
0.86223
0.929865
0.869297
0.892897
0.887341
0.74786
0.876596
0.897116
0.757664
0.824017
0.927468
0.925491
0.904249
0.89137
0.909807
0.88426
0.920071
0.859036
0.918081
0.910634
0.877078
0.906488
0.919869
0.921088
0.824238
0.814091
0.84992
0.845834
0.819529
0.544478
0.841716
0.879868
0.821172
0.755787
0.823953
0.82771
0.508899
0.519407
0.826973
0.826026
0.894599
0.805339
0.826334
0.928367
0.907803
0.911714
0.852123
0.625779
0.858455
0.925704
0.856017
0.863504
0.896152
0.7427
0.826083
0.862293
0.865881
0.594282
0.820432
0.609148
0.823525
0.875719
0.673405
0.852573
0.604398
0.103104
0.83082
0.793046
0.796559
0.890187
0.890658
0.894249
0.79966
0.777988
0.810586
0.796624
0.836714
0.653987
0.8685
0.895333
0.763998
0.824613
0.898902
0.801851
0.814501
0.894895
0.905909
0.815935
0.830175
0.822701
0.816942
0.893521
0.816831
0.801951
0.878844
0.688313
0.858252
0.926769
0.872265
0.903134
0.739863
0.826992
0.328562
0.897261
0.801775
0.799313
0.904606
0.898328
0.745711
0.722954
0.82888
0.83407
0.825888
0.370343
0.762755
0.757526
0.821202
0.338011
0.738829
0.823193
0.308404
0.856651
0.824894
0.584495
0.900998
0.785339
0.830934
0.352817
0.494882
0.724116
0.357661
0.657792
0.183663
0.588086
0.448747
0.297091
0.652734
0.650247
0.266206
0.354677
0.643228
0.492445
0.35588
0.392139
0.455834
0.496865
0.61123
0.531113
0.443681
0.67223
0.808173
0.741341
0.500308
0.672828
0.282468
0.551544
0.347281
0.298032
0.58725
0.509794
0.518003
0.336022
0.530203
0.721468
0.666631
0.409123
0.528607
0.415542
0.830842
0.361689
0.643619
0.683
0.447974
0.456273
0.388215
0.274667
0.363086
0.747843
0.539898
0.358094
0.433138
0.293619
0.743351
0.61095
0.518469
0.379863
0.63237
0.35825
0.371696
0.743819
0.469026
0.5192
0.614667
0.542729
0.782725
0.669023
0.636857
0.242673
0.28889
0.414434
0.631371
0.274995
0.518437
0.485109
0.328778
0.617491
0.701173
0.454082
0.510569
0.281146
0.340744
0.440123
0.627799
0.442183
0.389061
0.484037
0.748259
0.358605
0.636538
0.737834
0.523011
0.357244
0.131744
0.334911
0.39364
0.355669
0.240012
0.568974
0.676694
0.693637
0.787332
0.346749
0.370901
0.279477
0.370635
0.337467
0.719233
0.683131
0.612392
0.323676
0.293705
0.542664
0.656949
0.464971
0.38878
0.221095
0.449918
0.508669
0.75327
0.776402
0.635581
0.51452
0.419905
0.266682
0.767317
0.317834
0.627961
0.232041
0.739999
0.282052
0.32731
0.339388
0.700027
0.50747
0.192188
0.352446
0.594294
0.352867
0.635017
0.552812
0.374113
0.678083
0.429206
0.335044
0.711234
0.360557
0.467676
0.268079
0.520047
0.405038
0.698966
0.636241
0.456181
0.629825
0.634947
0.723055
0.49147
0.408739
0.36835
0.627515
0.317279
0.529072
0.285745
0.81093
0.451551
0.690854
0.770428
0.534831
0.772797
0.704778
0.724466
0.311277
0.225206
0.265664
0.726292
0.315771
0.293907
0.315574
0.296009
0.464802
0.425616
0.534344
0.769481
0.635246
0.421087
0.623296
0.40993
0.823565
0.295556
0.670536
0.376953
0.210581
0.75838
0.781552
0.369139
0.393278
0.808316
0.556659
0.412364
0.342108
0.63286
0.716484
0.589892
0.352909
0.38179
0.642196
0.506119
0.345898
0.566624
0.323234
0.311016
0.422509
0.662842
0.228365
0.437799
0.6781
0.434487
0.225271
0.451446
0.360866
0.405149
0.580784
0.593687
0.338328
0.290517
0.333298
0.614703
0.589423
0.467254
0.601217
0.436819
0.316961
0.567613
0.418294
0.207295
0.59709
0.710426
0.548515
0.742364
0.71401
0.829962
0.357919
0.181992
0.480775
0.453935
0.39906
0.236491
0.563328
0.751705
0.617325
0.563851
0.34332
0.469417
0.614174
0.525802
0.570482
0.36259
0.475254
0.417892
0.312555
0.339074
0.377312
0.36021
0.324839
0.596846
0.51121
0.459573
0.604494
0.36285
0.471655
0.365008
0.454424
0.433348
0.403916
0.557383
0.238782
0.179169
0.477209
0.260293
0.233548
0.564014
0.292284
0.232472
0.700162
0.606665
0.346917
0.608855
0.303801
0.589651
0.566363
0.333089
0.361462
0.659042
0.490525
0.619173
0.184929
0.329351
0.700559
0.41041
0.342144
0.15587
0.247003
0.222133
0.254691
0.429408
0.605427
0.318109
0.214491
0.344555
0.397017
0.824868
0.369308
0.629383
0.544926
0.310361
0.424921
0.340211
0.287956
0.584406
0.432532
0.751725
0.587782
0.337312
0.428919
0.541768
0.805475
0.60429
0.723344
0.64094
0.417257
0.540103
0.469189
0.336125
0.246196
0.397727
0.395704
0.57996
0.373222
0.273298
0.357219
0.416711
0.353042
0.385783
0.685041
0.399738
0.38055
0.732332
0.675305
0.33723
0.507547
0.717311
0.389156
0.285803
0.42772
0.322572
0.284748
0.705397
0.351315
0.43927
0.715323
0.237632
0.524734
0.353996
0.535944
0.432217
0.38137
0.149502
0.427779
0.271628
0.419101
0.447297
0.450843
0.608537
0.746438
0.353681
0.496975
0.415807
0.347595
0.203178
0.672527
0.551928
0.42464
0.276326
0.53892
0.265131
0.36798
0.347992
0.332644
0.642441
0.733864
0.41038
0.602764
0.786468
0.680937
0.666859
0.727077
0.404493
0.391482
0.287394
0.806076
0.654173
0.694614
0.381603
0.43968
0.217939
0.616878
0.410433
0.364943
0.69397
0.569745
0.324864
0.423489
0.348396
0.35645
0.355384
0.431171
0.457335
0.308651
0.402846
0.252843
0.425869
0.314394
0.565223
0.490708
0.229356
0.722347
0.739764
0.636927
0.407947
0.532742
0.295214
0.653822
0.53093
0.270133
0.716093
0.241493
0.754425
0.259645
0.464533
0.464475
0.636852
0.636915
0.355299
0.77627
0.367272
0.683403
0.463924
0.569631
0.394317
0.350188
0.385279
0.686392
0.455036
0.800185
0.618331
0.245365
0.367891
0.591726
0.254838
0.412321
0.464409
0.307602
0.752992
0.336124
0.31713
0.652771
0.390404
0.751211
0.790231
0.449657
0.797687
0.756272
0.695063
0.702081
0.553827
0.278003
0.357886
0.440641
0.676501
0.429997
0.243784
0.773913
0.320704
0.4749
0.349354
0.727888
0.820115
0.33005
0.682063
0.542152
0.745063
0.42879
0.644401
0.462817
0.771729
0.795164
0.600953
0.353567
0.641785
0.389866
0.506811
0.506297
0.445304
0.548979
0.382345
0.241709
0.29054
0.460857
0.565208
0.508661
0.703153
0.341226
0.408737
0.560949
0.291122
0.73707
0.347808
0.46279
0.71524
0.695619
0.524156
0.783441
0.344426
0.436601
0.643119
0.479908
0.480759
0.46429
0.387656
0.594182
0.618222
0.387455
0.350299
0.528371
0.246429
0.307252
0.744219
0.781498
0.795076
0.453941
0.793725
0.814565
0.759151
0.198978
0.558172
0.551285
0.784891
0.421072
0.354715
0.271075
0.351128
0.221234
0.767463
0.488606
0.49896
0.649128
0.603821
0.410154
0.459569
0.81463
0.762121
0.725217
0.58918
0.420039
0.604986
0.582959
0.422318
0.4607
0.299652
0.350607
0.492232
0.490972
0.389636
0.741393
0.748673
0.205192
0.697655
0.359619
0.35462
0.41167
0.733906
0.445578
0.597197
0.478704
0.728803
0.434096
0.477795
0.787521
0.211952
0.246015
0.342577
0.31556
0.178184
0.104376
0.325078
0.181059
0.498008
0.199255
0.305769
0.490656
0.40427
0.329077
0.397611
0.285464
0.130735
0.755449
0.676129
0.444992
0.271814
0.683557
0.426911
0.353679
0.793305
0.332177
0.786147
0.439664
0.706833
0.452553
0.291905
0.300539
0.503096
0.508653
0.500678
0.294849
0.43993
0.313561
0.313467
0.371383
0.234542
0.291497
0.765146
0.345462
0.625134
0.651373
0.424974
0.660983
0.656339
0.270921
0.111381
0.462814
0.247392
0.185841
0.624148
0.637381
0.446769
0.576857
0.410146
0.787552
0.753004
0.472774
0.398347
0.779101
0.710871
0.570311
0.563284
0.431387
0.793255
0.490049
0.202687
0.731327
0.669484
0.748411
0.516649
0.360761
0.408952
0.640348
0.588283
0.0537453
0.83594
0.459026
0.341799
0.523997
0.695006
0.778671
0.802771
0.573639
0.463859
0.658269
0.710249
0.717202
0.621088
0.676565
0.305592
0.358525
0.526866
0.287565
0.296528
0.231839
0.455604
0.66098
0.252508
0.502428
0.364681
0.677721
0.80332
0.488406
0.281046
0.221977
0.638361
0.398765
0.343723
0.221099
0.730952
0.547387
0.566857
0.261177
0.559108
0.342253
0.354484
0.61739
0.659261
0.731763
0.817929
0.324327
0.707717
0.205745
0.729404
0.750172
0.749771
0.655267
0.308222
0.307619
0.455002
0.201424
0.482286
0.232831
0.53538
0.267051
0.695555
0.427523
0.214003
0.695031
0.624686
0.466179
0.475614
0.616648
0.729286
0.546484
0.492443
0.209385
0.674764
0.511644
0.758117
0.181416
0.495378
0.733391
0.633266
0.782843
0.632219
0.440057
0.166073
0.215542
0.480279
0.241261
0.763111
0.212019
0.376986
0.459552
0.349678
0.655839
0.186212
0.721225
0.643327
0.565641
0.241475
0.569503
0.339251
0.407121
0.48636
0.459385
0.437636
0.425738
0.663435
0.316454
0.789592
0.427613
0.474312
0.603626
0.616184
0.762464
0.43949
0.476329
0.329316
0.460785
0.413417
0.761855
0.350021
0.496916
0.430587
0.671398
0.396176
0.516185
0.285153
0.803909
0.197837
0.307164
0.401663
0.678
0.218943
0.224195
0.296606
0.271515
0.740802
0.485191
0.600404
0.707443
0.578841
0.504617
0.80611
0.485768
0.620462
0.585727
0.500446
0.231395
0.517108
0.494507
0.377898
0.516689
0.323606
0.245613
0.536695
0.421993
0.316055
0.662307
0.463761
0.598599
0.485643
0.746892
0.453303
0.440442
0.583277
0.271814
0.340614
0.432604
0.504963
0.540151
0.587686
0.73403
0.609896
0.676988
0.529897
0.709607
0.767018
0.768902
0.529014
0.484113
0.540648
0.280541
0.777025
0.705819
0.68015
0.51136
0.312739
0.23704
0.543197
0.63153
0.34428
0.67527
0.699934
0.58148
0.358417
0.506622
0.378953
0.352004
0.514646
0.367979
0.566659
0.221852
0.566005
0.455324
0.474746
0.187178
0.533072
0.511446
0.604897
0.417735
0.556599
0.740577
0.748876
0.574457
0.445938
0.678568
0.532456
0.345957
0.343355
0.456444
0.261279
0.729509
0.473967
0.544063
0.643545
0.625225
0.562291
0.319082
0.789017
0.568063
0.35925
0.488373
0.519949
0.678565
0.736791
0.572403
0.563872
0.222348
0.323838
0.481279
0.575588
0.499787
0.576832
0.383713
0.745898
0.55307
0.647957
0.714238
0.541496
0.340335
0.497994
0.776037
0.417552
0.216143
0.494327
0.78183
0.401841
0.460374
0.668135
0.626768
0.685385
0.501726
0.228361
0.577962
0.28392
0.410265
0.693718
0.49844
0.286428
0.342199
0.398376
0.589243
0.399477
0.368838
0.712047
0.367487
0.807855
0.683002
0.269021
0.170658
0.47317
0.627251
0.711952
0.504604
0.481149
0.348814
0.4546
0.450752
0.816802
0.726429
0.636279
0.400709
0.239282
0.731273
0.796202
0.743159
0.675195
0.719648
0.492519
0.28705
0.197248
0.218708
0.75794
0.517232
0.353149
0.417367
0.79316
0.430499
0.35984
0.252972
0.50569
0.336072
0.788076
0.58302
0.62541
0.730046
0.690755
0.466732
0.604863
0.495667
0.601168
0.410422
0.574626
0.376285
0.761114
0.303186
0.409903
0.354882
0.435791
0.738374
0.437425
0.692997
0.70278
0.727137
0.308567
0.492168
0.478328
0.34915
0.750102
0.51534
0.509176
0.577507
0.202319
0.423269
0.743317
0.607503
0.750221
0.207352
0.30446
0.441366
0.768776
0.378714
0.454902
0.328984
0.315797
0.406791
0.752297
0.434264
0.487136
0.25988
0.780564
0.787192
0.208095
0.741889
0.420117
0.311616
0.310361
0.509639
0.248479
0.562302
0.401142
0.410294
0.442071
0.718302
0.503052
0.687699
0.433464
0.297094
0.43414
0.206798
0.238873
0.489222
0.410647
0.522237
0.318411
0.46678
0.700378
0.557098
0.411797
0.288799
0.717845
0.51351
0.460178
0.805091
0.524487
0.40496
0.405706
0.336826
0.777862
0.380608
0.476598
0.589624
0.265956
0.724911
0.315409
0.708177
0.484503
0.653999
0.332782
0.65673
0.47519
0.272208
0.345951
0.48251
0.729253
0.168999
0.346338
0.438675
0.760325
0.788108
0.342525
0.389035
0.556202
0.76673
0.446792
0.739995
0.713633
0.679879
0.645855
0.559977
0.591511
0.584511
0.753604
0.455607
0.506582
0.340803
0.359933
0.451422
0.315638
0.779421
0.307137
0.7325
0.444288
0.768879
0.391338
0.788863
0.653471
0.699864
0.769212
0.740856
0.801259
0.458114
0.723901
0.478067
0.438044
0.344292
0.321173
0.749418
0.308751
0.587168
0.592153
0.46909
0.562778
0.376575
0.735071
0.535555
0.651808
0.192285
0.341747
0.443435
0.787097
0.351711
0.612893
0.365403
0.442706
0.282115
0.450072
0.429018
0.684314
0.758688
0.250072
0.580038
0.440381
0.397936
0.697616
0.345076
0.356472
0.766139
0.219148
0.513155
0.634843
0.738471
0.797512
0.370847
0.35851
0.262721
0.409655
0.350687
0.437128
0.642922
0.415083
0.278927
0.482137
0.49161
0.393786
0.354972
0.436264
0.502553
0.276682
0.671746
0.65591
0.385635
0.656077
0.290303
0.259682
0.353523
0.21317
0.780018
0.424592
0.426578
0.378003
0.693396
0.753519
0.549291
0.637564
0.364437
0.361397
0.490878
0.427183
0.344824
0.750926
0.534035
0.588628
0.777357
0.670788
0.467573
0.772178
0.245323
0.55475
0.549176
0.594536
0.429798
0.747
0.417451
0.587066
0.487306
0.390968
0.314409
0.366357
0.654944
0.700586
0.727027
0.498299
0.525446
0.752014
0.661914
0.490729
0.516841
0.299605
0.461016
0.689514
0.245047
0.709935
0.43176
0.722423
0.789599
0.757053
0.423467
0.70162
0.711337
0.259101
0.747458
0.384821
0.763865
0.681294
0.444655
0.320077
0.532373
0.463859
0.428846
0.362353
0.667355
0.388784
0.767842
0.30585
0.374823
0.348578
0.302965
0.428183
0.694027
0.783556
0.30077
0.64521
0.516963
0.589261
0.453201
0.550461
0.745694
0.687807
0.43636
0.736801
0.700187
0.787445
0.299284
0.418017
0.354388
0.644949
0.771947
0.705157
0.476249
0.789761
0.480836
0.254631
0.318271
0.166395
0.458702
0.285065
0.780829
0.809795
0.528588
0.794844
0.69258
0.548633
0.783242
0.299882
0.745391
0.459307
0.751714
0.417679
0.309731
0.642123
0.540939
0.764815
0.740197
0.747749
0.327146
0.329113
0.233961
0.703104
0.685449
0.335313
0.48685
0.686711
0.203933
0.390397
0.325855
0.452064
0.575762
0.445653
0.548947
0.628202
0.52102
0.532693
0.662389
0.419285
0.427043
0.583017
0.526933
0.42692
0.723862
0.754368
0.337623
0.681707
0.191903
0.377605
0.726004
0.667492
0.431122
0.756077
0.291865
0.654297
0.433126
0.429716
0.733775
0.422276
0.659788
0.640194
0.610185
0.811201
0.621393
0.266607
0.600509
0.454151
0.66815
0.813424
0.604279
0.47729
0.343547
0.431941
0.735958
0.292871
0.688984
0.335032
0.538775
0.668372
0.655419
0.523522
0.721016
0.788714
0.419806
0.41885
0.532325
0.320461
0.286592
0.553611
0.643672
0.350917
0.266768
0.35723
0.263184
0.652673
0.474037
0.673066
0.366577
0.746976
0.515882
0.699687
0.776741
0.365357
0.742475
0.408671
0.541872
0.490679
0.708536
0.358239
0.447106
0.499763
0.316433
0.426904
0.303203
0.282783
0.193343
0.777919
0.787632
0.349772
0.369193
0.665954
0.244195
0.349442
0.43223
0.636233
0.643836
0.225681
0.193003
0.73942
0.364986
0.570023
0.357528
0.256419
0.320842
0.530247
0.707184
0.566001
0.253328
0.749698
0.706648
0.341077
0.573136
0.421879
0.776051
0.440913
0.450217
0.271989
0.620833
0.748449
0.591482
0.537081
0.355465
0.466476
0.56204
0.784027
0.798854
0.353709
0.792452
0.364252
0.561111
0.558199
0.488026
0.401949
0.710532
0.435354
0.534101
0.340181
0.394619
0.435288
0.310269
0.607135
0.751272
0.342493
0.38166
0.547549
0.410201
0.363227
0.203617
0.398056
0.705766
0.247061
0.423672
0.625801
0.553625
0.472665
0.6131
0.686516
0.347392
0.351727
0.701346
0.466622
0.331356
0.481573
0.706069
0.610928
0.568039
0.36101
0.373008
0.349077
0.785069
0.705961
0.791942
0.466436
0.632124
0.290226
0.506628
0.710913
0.251444
0.264618
0.657854
0.710973
0.24023
0.380873
0.356896
0.334043
0.35227
0.796224
0.442822
0.375987
0.536671
0.343242
0.638899
0.54451
0.281799
0.382772
0.65903
0.464695
0.786553
0.282616
0.391432
0.582137
0.573542
0.496217
0.577057
0.315182
0.794443
0.740543
0.586285
0.71317
0.354442
0.707838
0.615626
0.576008
0.772588
0.244844
0.395594
0.807049
0.618947
0.236829
0.427796
0.682042
0.801396
0.509326
0.665182
0.358275
0.270329
0.331043
0.231153
0.709729
0.367129
0.534763
0.762349
0.360305
0.347517
0.358901
0.518425
0.371033
0.426324
0.348057
0.305442
0.465134
0.687312
0.767362
0.619278
0.402857
0.396103
0.219995
0.398458
0.599885
0.583868
0.598005
0.632943
0.398054
0.50897
0.680207
0.715437
0.79973
0.729626
0.777388
0.473967
0.29189
0.333433
0.296451
0.785892
0.528461
0.368712
0.769726
0.297903
0.685219
0.637267
0.386261
0.358894
0.394246
0.381681
0.712439
0.466619
0.638247
0.495999
0.761878
0.56663
0.816987
0.332958
0.502241
0.414101
0.184125
0.40996
0.651987
0.324093
0.188069
0.568295
0.749472
0.671337
0.3788
0.27998
0.334711
0.303997
0.360544
0.30445
0.487537
0.31026
0.658606
0.344303
0.367488
0.73626
0.47452
0.601031
0.703403
0.485499
0.535257
0.327715
0.655951
0.468984
0.386693
0.454294
0.321709
0.27698
0.365169
0.380702
0.664125
0.792969
0.721124
0.564595
0.63908
0.248051
0.792773
0.543738
0.636181
0.369647
0.640544
0.429476
0.420466
0.691454
0.7507
0.656751
0.57325
0.443253
0.80447
0.411723
0.675815
0.780848
0.625823
0.445394
0.24132
0.67592
0.529544
0.311404
0.616184
0.523137
0.754667
0.360982
0.762426
0.800372
0.476132
0.333314
0.776913
0.279807
0.318752
0.417878
0.313629
0.39673
0.319148
0.284295
0.494922
0.369212
0.330599
0.409139
0.580575
0.401606
0.358536
0.608475
0.533167
0.256265
0.754676
0.783458
0.771315
0.357419
0.252681
0.82619
0.270058
0.473682
0.353046
0.439033
0.370793
0.655427
0.41433
0.429306
0.265779
0.247372
0.314669
0.420515
0.235586
0.519009
0.55699
0.50949
0.766115
0.528474
0.597738
0.433399
0.700247
0.446929
0.431758
0.801861
0.412821
0.519231
0.284429
0.626067
0.787138
0.476545
0.569225
0.524531
0.428672
0.354855
0.358309
0.307225
0.66143
0.325207
0.456359
0.427319
0.478361
0.335329
0.359502
0.475205
0.462101
0.400691
0.783824
0.485862
0.436815
0.571492
0.751574
0.428491
0.250836
0.663658
0.28173
0.445506
0.356399
0.468833
0.424813
0.438422
0.471346
0.789313
0.720052
0.260296
0.397418
0.247046
0.348383
0.235521
0.311511
0.400981
0.327476
0.410539
0.597152
0.796114
0.416072
0.643169
0.503742
0.783645
0.418866
0.787612
0.597083
0.292491
0.581101
0.648696
0.438733
0.698879
0.35559
0.727688
0.382479
0.213921
0.499726
0.797682
0.775052
0.665451
0.591604
0.619842
0.262498
0.412647
0.614835
0.818182
0.226148
0.477495
0.35999
0.443396
0.472911
0.338895
0.293437
0.373687
0.31137
0.376665
0.455733
0.464578
0.810449
0.698263
0.232759
0.677702
0.32536
0.350238
0.682454
0.384246
0.44528
0.608062
0.262005
0.350923
0.505302
0.714793
0.300377
0.363471
0.443275
0.597886
0.297031
0.756389
0.248325
0.42936
0.449981
0.375312
0.588264
0.600449
0.754119
0.354234
0.648476
0.563382
0.587691
0.349018
0.584036
0.334112
0.287768
0.213912
0.537671
0.50263
0.450995
0.724034
0.487803
0.53568
0.58035
0.339443
0.320037
0.421201
0.554492
0.356236
0.794386
0.28449
0.250365
0.412557
0.431706
0.362996
0.35971
0.632806
0.420609
0.511923
0.297003
0.356901
0.511804
0.315768
0.79507
0.774245
0.30233
0.335304
0.701126
0.497111
0.341097
0.277789
0.345835
0.308425
0.55777
0.749675
0.339369
0.257136
0.597184
0.480842
0.248971
0.301233
0.475968
0.638913
0.794828
0.290081
0.250921
0.577336
0.708284
0.46897
0.543689
0.444987
0.355214
0.432318
0.598373
0.500215
0.356584
0.68682
0.444846
0.215724
0.548743
0.367149
0.690105
0.812275
0.361285
0.422425
0.427118
0.417451
0.286523
0.437586
0.306002
0.770591
0.687815
0.638537
0.405062
0.266944
0.671943
0.790712
0.359547
0.543334
0.426436
0.190769
0.529316
0.436373
0.200543
0.394659
0.5827
0.296485
0.252801
0.309239
0.688686
0.281309
0.676275
0.458371
0.358883
0.458468
0.328753
0.691544
0.220818
0.431994
0.467138
0.284789
0.542986
0.616459
0.570654
0.505001
0.670735
0.303554
0.301504
0.735908
0.353209
0.730187
0.578657
0.472153
0.528739
0.72239
0.481055
0.243332
0.755447
0.350113
0.47846
0.712576
0.340654
0.763486
0.34778
0.446604
0.258318
0.440093
0.306239
0.499513
0.325752
0.215596
0.313325
0.299491
0.195942
0.747717
0.298689
0.436357
0.552248
0.490441
0.794048
0.794042
0.419694
0.481027
0.693513
0.409825
0.750786
0.206913
0.454342
0.533467
0.366363
0.702628
0.425914
0.431899
0.382794
0.36559
0.355138
0.221421
0.725954
0.146315
0.75477
0.637132
0.325391
0.252931
0.322396
0.799487
0.623309
0.605595
0.478199
0.543705
0.474258
0.72013
0.666644
0.330777
0.573758
0.764413
0.486101
0.539023
0.57238
0.232698
0.296257
0.673346
0.440804
0.459196
0.765243
0.29538
0.212598
0.379417
0.455056
0.491765
0.780013
0.350309
0.275321
0.355544
0.454401
0.355774
0.73865
0.470838
0.32451
0.429884
0.360943
0.33772
0.397398
0.584767
0.50305
0.32337
0.723346
0.444404
0.695777
0.324501
0.291694
0.418721
0.715367
0.779215
0.689557
0.524123
0.499734
0.682815
0.769916
0.285198
0.751595
0.315529
0.602307
0.599476
0.735704
0.519362
0.721036
0.746445
0.36153
0.358196
0.437072
0.482564
0.315321
0.357927
0.303227
0.658801
0.701563
0.278227
0.758444
0.513193
0.674627
0.47834
0.321184
0.693541
0.672714
0.425798
0.38741
0.306944
0.8019
0.631698
0.82247
0.279495
0.314603
0.465813
0.70873
0.593424
0.72269
0.512492
0.774938
0.37716
0.442339
0.539459
0.393509
0.584608
0.281777
0.687846
0.484858
0.533972
0.752439
0.26999
0.281616
0.222198
0.54861
0.726824
0.382559
0.593393
0.289241
0.270333
0.463332
0.368731
0.34473
0.719957
0.492361
0.339979
0.452184
0.546955
0.752666
0.551567
0.458849
0.726261
0.489164
0.779177
0.532845
0.641411
0.46335
0.282369
0.796842
0.320758
0.529726
0.569238
0.747511
0.627476
0.497618
0.366723
0.806767
0.451938
0.332728
0.663821
0.794998
0.645008
0.609909
0.26526
0.209322
0.550829
0.325109
0.448039
0.523723
0.32241
0.75018
0.802805
0.759467
0.396192
0.439674
0.344659
0.41101
0.606963
0.301892
0.617185
0.769824
0.287193
0.430444
0.374573
0.685125
0.607591
0.440524
0.329762
0.649194
0.350582
0.272587
0.31316
0.806603
0.214559
0.683834
0.566111
0.356415
0.763571
0.556777
0.793146
0.263725
0.431569
0.528566
0.755925
0.412486
0.745912
0.559405
0.215081
0.505761
0.387334
0.426166
0.208153
0.665542
0.432433
0.328911
0.247682
0.507762
0.726963
0.155366
0.403772
0.728047
0.431345
0.71115
0.203649
0.357872
0.351946
0.472946
0.413528
0.264013
0.350996
0.168454
0.454031
0.460647
0.674972
0.516479
0.731134
0.339111
0.436985
0.267659
0.493137
0.165041
0.441
0.81668
0.453192
0.39481
0.801137
0.339881
0.552414
0.589884
0.259766
0.401675
0.487803
0.533882
0.767232
0.793095
0.79487
0.543566
0.433535
0.476201
0.320318
0.701
0.595829
0.358431
0.405441
0.388476
0.482535
0.797237
0.454075
0.792735
0.431869
0.573279
0.324968
0.349076
0.2678
0.373645
0.743472
0.389417
0.279365
0.305955
0.800625
0.404666
0.324147
0.3179
0.349681
0.634979
0.509812
0.520921
0.433072
0.6332
0.255646