/*--------------------------------*- C++ -*----------------------------------*\
  =========                 |
  \\      /  F ield         | OpenFOAM: The Open Source CFD Toolbox
   \\    /   O peration     | Website:  https://openfoam.org
    \\  /    A nd           | Version:  6
     \\/     M anipulation  |
\*---------------------------------------------------------------------------*/
FoamFile
{
    version     2.0;
    format      ascii;
    class       volVectorField;
    location    "0";
    object      U;
}
// * * * * * * * * * * * * * * * * * * * * * * * * * * * * * * * * * * * * * //

dimensions      [0 1 -1 0 0 0 0];

internalField   nonuniform List<vector> 
10000
(
(6.17711e-07 -5.44404e-07 0)
(7.18781e-05 -1.44749e-05 0)
(0.00022464 -2.71352e-05 0)
(0.000442735 -3.73025e-05 0)
(0.000713238 -4.49658e-05 0)
(0.00102225 -4.99407e-05 0)
(0.00135498 -5.20181e-05 0)
(0.00169627 -5.11465e-05 0)
(0.00203156 -4.7532e-05 0)
(0.00234778 -4.16214e-05 0)
(0.00263411 -3.40238e-05 0)
(0.00288233 -2.54146e-05 0)
(0.00308703 -1.64517e-05 0)
(0.00324543 -7.71932e-06 0)
(0.00335717 2.94517e-07 0)
(0.003424 7.18812e-06 0)
(0.0034492 1.25988e-05 0)
(0.00343821 1.71596e-05 0)
(0.00339477 2.12398e-05 0)
(0.00332278 2.42658e-05 0)
(0.00322696 2.62363e-05 0)
(0.0031118 2.7331e-05 0)
(0.00298152 2.77145e-05 0)
(0.00283993 2.75289e-05 0)
(0.00269042 2.68968e-05 0)
(0.00253598 2.59243e-05 0)
(0.00237917 2.47045e-05 0)
(0.00222221 2.33137e-05 0)
(0.00206693 2.18144e-05 0)
(0.00191484 2.026e-05 0)
(0.00176715 1.86927e-05 0)
(0.00162483 1.7143e-05 0)
(0.00148859 1.56347e-05 0)
(0.00135894 1.4187e-05 0)
(0.00123626 1.28113e-05 0)
(0.00112074 1.15127e-05 0)
(0.00101248 1.02956e-05 0)
(0.000911487 9.16237e-06 0)
(0.000817675 8.11126e-06 0)
(0.000730908 7.13842e-06 0)
(0.000650998 6.24043e-06 0)
(0.000577722 5.41464e-06 0)
(0.000510834 4.65708e-06 0)
(0.000450063 3.96188e-06 0)
(0.000395125 3.32438e-06 0)
(0.000345728 2.74155e-06 0)
(0.000301577 2.21008e-06 0)
(0.000262373 1.72616e-06 0)
(0.000227819 1.28563e-06 0)
(0.000197619 8.8507e-07 0)
(0.000171486 5.22486e-07 0)
(0.000149139 1.95627e-07 0)
(0.000130307 -9.87911e-08 0)
(0.000114729 -3.63747e-07 0)
(0.000102157 -6.01692e-07 0)
(9.23558e-05 -8.15038e-07 0)
(8.51095e-05 -1.006e-06 0)
(8.02184e-05 -1.17721e-06 0)
(7.75023e-05 -1.33228e-06 0)
(7.68e-05 -1.47487e-06 0)
(7.79769e-05 -1.60434e-06 0)
(8.09094e-05 -1.72041e-06 0)
(8.54963e-05 -1.82694e-06 0)
(9.16474e-05 -1.92737e-06 0)
(9.92946e-05 -2.02478e-06 0)
(0.000108397 -2.12293e-06 0)
(0.000118942 -2.22619e-06 0)
(0.000130949 -2.3388e-06 0)
(0.000144473 -2.46532e-06 0)
(0.000159604 -2.61114e-06 0)
(0.000176473 -2.78234e-06 0)
(0.000195252 -2.98579e-06 0)
(0.000216164 -3.23e-06 0)
(0.000239491 -3.52559e-06 0)
(0.000265578 -3.88527e-06 0)
(0.000294848 -4.32439e-06 0)
(0.00032781 -4.86205e-06 0)
(0.000365068 -5.52137e-06 0)
(0.000407333 -6.32905e-06 0)
(0.00045542 -7.31475e-06 0)
(0.000510244 -8.51042e-06 0)
(0.000572801 -9.94809e-06 0)
(0.000644118 -1.16553e-05 0)
(0.000725178 -1.36486e-05 0)
(0.000816805 -1.59249e-05 0)
(0.000919484 -1.84504e-05 0)
(0.00103314 -2.11469e-05 0)
(0.00115681 -2.38751e-05 0)
(0.00128832 -2.64168e-05 0)
(0.0014238 -2.84542e-05 0)
(0.00155722 -2.95395e-05 0)
(0.00167973 -2.90412e-05 0)
(0.00177908 -2.60528e-05 0)
(0.00183807 -1.92406e-05 0)
(0.0018345 -6.62592e-06 0)
(0.00173761 1.48603e-05 0)
(0.00151288 4.7372e-05 0)
(0.001133 8.89063e-05 0)
(0.00061937 0.000124924 0)
(0.000121481 0.000114736 0)
(1.31631e-05 -7.10705e-05 0)
(0.00021087 -0.00022185 0)
(0.000584306 -0.000355799 0)
(0.00110001 -0.000466097 0)
(0.00172958 -0.000551349 0)
(0.00244344 -0.000609814 0)
(0.00321054 -0.00064041 0)
(0.00399994 -0.000643455 0)
(0.00478239 -0.000620923 0)
(0.00553172 -0.000576228 0)
(0.00622579 -0.000513765 0)
(0.0068471 -0.000438402 0)
(0.00738288 -0.00035503 0)
(0.00782503 -0.000268236 0)
(0.00816969 -0.000182106 0)
(0.00841678 -0.000100149 0)
(0.00856991 -2.53297e-05 0)
(0.00863329 4.05708e-05 0)
(0.00862036 9.85736e-05 0)
(0.0085363 0.000149323 0)
(0.00838978 0.000191805 0)
(0.00818951 0.000226207 0)
(0.00794396 0.000253104 0)
(0.00766128 0.000273168 0)
(0.00734914 0.000287113 0)
(0.00701462 0.000295663 0)
(0.00666417 0.00029953 0)
(0.00630357 0.000299399 0)
(0.00593793 0.000295908 0)
(0.0055717 0.000289648 0)
(0.0052087 0.000281155 0)
(0.00485216 0.000270908 0)
(0.00450475 0.000259326 0)
(0.00416864 0.000246771 0)
(0.00384554 0.000233556 0)
(0.00353677 0.000219941 0)
(0.00324328 0.000206144 0)
(0.00296574 0.000192343 0)
(0.00270455 0.000178682 0)
(0.00245987 0.000165277 0)
(0.0022317 0.000152217 0)
(0.00201987 0.000139574 0)
(0.00182408 0.0001274 0)
(0.00164393 0.000115733 0)
(0.00147894 0.000104602 0)
(0.00132856 9.40256e-05 0)
(0.00119219 8.40143e-05 0)
(0.0010692 7.45719e-05 0)
(0.000958902 6.5697e-05 0)
(0.000860629 5.73834e-05 0)
(0.000773689 4.96211e-05 0)
(0.000697394 4.23959e-05 0)
(0.000631066 3.56885e-05 0)
(0.00057404 2.94767e-05 0)
(0.000525673 2.37354e-05 0)
(0.000485354 1.84363e-05 0)
(0.000452505 1.35473e-05 0)
(0.000426586 9.03296e-06 0)
(0.000407102 4.85397e-06 0)
(0.000393607 9.67222e-07 0)
(0.000385703 -2.66917e-06 0)
(0.000383079 -6.08885e-06 0)
(0.000385453 -9.31185e-06 0)
(0.000392568 -1.2373e-05 0)
(0.000404216 -1.53265e-05 0)
(0.000420251 -1.8225e-05 0)
(0.000440603 -2.11264e-05 0)
(0.000465278 -2.40941e-05 0)
(0.000494368 -2.71958e-05 0)
(0.000528051 -3.05048e-05 0)
(0.000566601 -3.41011e-05 0)
(0.000610395 -3.80746e-05 0)
(0.000659923 -4.25268e-05 0)
(0.000715801 -4.7574e-05 0)
(0.000778785 -5.33487e-05 0)
(0.000849788 -6.00018e-05 0)
(0.000929888 -6.77019e-05 0)
(0.00102034 -7.66319e-05 0)
(0.00112258 -8.69805e-05 0)
(0.00123819 -9.89276e-05 0)
(0.00136889 -0.00011262 0)
(0.0015164 -0.000128135 0)
(0.00168239 -0.000145427 0)
(0.00186819 -0.000164258 0)
(0.00207454 -0.000184108 0)
(0.00230118 -0.000204069 0)
(0.00254634 -0.000222726 0)
(0.00280607 -0.000238033 0)
(0.00307345 -0.000247195 0)
(0.00333779 -0.000246551 0)
(0.00358358 -0.000231442 0)
(0.00378954 -0.000196041 0)
(0.00392751 -0.000133009 0)
(0.00396091 -3.33301e-05 0)
(0.00384531 0.000115083 0)
(0.00352532 0.000321441 0)
(0.0029543 0.000578089 0)
(0.00211327 0.000835649 0)
(0.00108619 0.00095352 0)
(0.00016221 0.00063613 0)
(2.08019e-05 -0.000210318 0)
(0.000305894 -0.000583615 0)
(0.00082504 -0.000903416 0)
(0.00153083 -0.0011665 0)
(0.00238438 -0.0013701 0)
(0.00334709 -0.00151102 0)
(0.0043795 -0.00158791 0)
(0.00544343 -0.00160248 0)
(0.00650352 -0.00155961 0)
(0.00752845 -0.00146677 0)
(0.00849169 -0.00133311 0)
(0.00937185 -0.00116855 0)
(0.0101527 -0.00098302 0)
(0.0108227 -0.0007859 0)
(0.0113752 -0.000585644 0)
(0.011807 -0.000389622 0)
(0.0121187 -0.000204028 0)
(0.0123143 -3.44915e-05 0)
(0.0123976 0.000116751 0)
(0.0123835 0.000250714 0)
(0.0122794 0.000367285 0)
(0.0120955 0.000466127 0)
(0.0118418 0.000547858 0)
(0.0115281 0.000613446 0)
(0.011164 0.000664059 0)
(0.0107585 0.000701001 0)
(0.0103202 0.00072564 0)
(0.00985709 0.000739365 0)
(0.00937653 0.000743549 0)
(0.00888511 0.000739513 0)
(0.00838876 0.000728508 0)
(0.00789272 0.000711695 0)
(0.00740153 0.000690138 0)
(0.00691911 0.000664795 0)
(0.00644876 0.00063652 0)
(0.00599322 0.000606065 0)
(0.0055547 0.00057408 0)
(0.00513497 0.000541126 0)
(0.00473535 0.000507679 0)
(0.00435679 0.000474142 0)
(0.00399993 0.000440851 0)
(0.00366509 0.00040808 0)
(0.00335237 0.000376055 0)
(0.00306164 0.00034496 0)
(0.00279259 0.00031494 0)
(0.00254476 0.000286107 0)
(0.00231756 0.000258547 0)
(0.00211029 0.000232319 0)
(0.00192218 0.000207464 0)
(0.00175238 0.000184003 0)
(0.00160003 0.000161939 0)
(0.0014642 0.000141259 0)
(0.00134398 0.000121936 0)
(0.00123843 0.000103931 0)
(0.00114665 8.71914e-05 0)
(0.00106776 7.16535e-05 0)
(0.0010009 5.7242e-05 0)
(0.000945269 4.38711e-05 0)
(0.000900123 3.14453e-05 0)
(0.000864773 1.98595e-05 0)
(0.000838603 8.99769e-06 0)
(0.00082107 -1.25608e-06 0)
(0.000811739 -1.09944e-05 0)
(0.000810315 -2.02677e-05 0)
(0.000816422 -2.91737e-05 0)
(0.000829792 -3.78692e-05 0)
(0.000850251 -4.65063e-05 0)
(0.000877739 -5.52472e-05 0)
(0.000912313 -6.42663e-05 0)
(0.000954151 -7.37502e-05 0)
(0.00100356 -8.39004e-05 0)
(0.00106097 -9.49367e-05 0)
(0.00112698 -0.000107103 0)
(0.00120233 -0.000120672 0)
(0.00128792 -0.000135947 0)
(0.00138484 -0.00015326 0)
(0.00149436 -0.000172972 0)
(0.00161792 -0.000195451 0)
(0.00175715 -0.000221054 0)
(0.00191376 -0.000250082 0)
(0.00208953 -0.000282718 0)
(0.00228616 -0.000318932 0)
(0.00250504 -0.000358358 0)
(0.00274704 -0.000400129 0)
(0.00301205 -0.000442673 0)
(0.00329852 -0.000483477 0)
(0.00360277 -0.00051883 0)
(0.00391819 -0.00054356 0)
(0.0042343 -0.000550795 0)
(0.0045357 -0.000531755 0)
(0.00480097 -0.000475571 0)
(0.00500157 -0.00036912 0)
(0.00510069 -0.000196777 0)
(0.00505333 6.01025e-05 0)
(0.00480351 0.000420617 0)
(0.0042989 0.000889618 0)
(0.00350313 0.00143199 0)
(0.00242467 0.00192501 0)
(0.00119413 0.00207378 0)
(0.000155062 0.0012991 0)
(2.35775e-05 -0.000386183 0)
(0.000358345 -0.0010357 0)
(0.00096575 -0.00158056 0)
(0.00178706 -0.00202551 0)
(0.00277539 -0.00236843 0)
(0.00388579 -0.00260605 0)
(0.00507381 -0.00273813 0)
(0.0062977 -0.00276903 0)
(0.00751975 -0.0027076 0)
(0.0087072 -0.0025661 0)
(0.00983271 -0.00235888 0)
(0.0108743 -0.00210105 0)
(0.0118152 -0.00180754 0)
(0.0126431 -0.00149228 0)
(0.0133502 -0.00116784 0)
(0.0139319 -0.000845156 0)
(0.0143868 -0.000533458 0)
(0.0147165 -0.000240398 0)
(0.0149225 2.73064e-05 0)
(0.0150128 0.000266775 0)
(0.0149979 0.000478703 0)
(0.0148867 0.000662804 0)
(0.0146895 0.000819637 0)
(0.014416 0.000950287 0)
(0.014076 0.00105617 0)
(0.0136789 0.00113896 0)
(0.0132338 0.0012005 0)
(0.0127496 0.00124273 0)
(0.0122345 0.00126766 0)
(0.0116962 0.00127725 0)
(0.0111417 0.00127345 0)
(0.0105777 0.00125811 0)
(0.0100099 0.00123295 0)
(0.00944359 0.00119961 0)
(0.00888343 0.00115955 0)
(0.00833342 0.00111413 0)
(0.00779704 0.00106455 0)
(0.00727721 0.00101188 0)
(0.00677636 0.00095706 0)
(0.00629644 0.000900907 0)
(0.00583898 0.000844132 0)
(0.00540511 0.000787345 0)
(0.00499561 0.000731063 0)
(0.00461094 0.000675723 0)
(0.0042513 0.000621689 0)
(0.00391661 0.00056926 0)
(0.00360659 0.000518678 0)
(0.00332079 0.000470134 0)
(0.00305858 0.000423771 0)
(0.00281923 0.00037969 0)
(0.00260188 0.000337954 0)
(0.0024056 0.00029859 0)
(0.00222943 0.000261591 0)
(0.00207234 0.000226923 0)
(0.00193331 0.000194521 0)
(0.0018113 0.000164296 0)
(0.00170533 0.000136133 0)
(0.00161441 0.000109897 0)
(0.00153763 8.54318e-05 0)
(0.00147413 6.2563e-05 0)
(0.00142312 4.10971e-05 0)
(0.00138388 2.08228e-05 0)
(0.00135581 1.5194e-06 0)
(0.00133838 -1.69826e-05 0)
(0.00133141 -3.47641e-05 0)
(0.00133442 -5.20163e-05 0)
(0.00134712 -6.90403e-05 0)
(0.00136934 -8.61269e-05 0)
(0.00140103 -0.00010358 0)
(0.00144228 -0.000121723 0)
(0.00149335 -0.0001409 0)
(0.00155461 -0.000161479 0)
(0.0016266 -0.000183863 0)
(0.00171002 -0.000208491 0)
(0.00180572 -0.000235839 0)
(0.00191472 -0.000266419 0)
(0.0020382 -0.000300761 0)
(0.00217747 -0.000339389 0)
(0.00233396 -0.000382775 0)
(0.00250913 -0.00043126 0)
(0.00270441 -0.000484949 0)
(0.00292101 -0.000543559 0)
(0.00315972 -0.000606208 0)
(0.00342062 -0.000671152 0)
(0.0037026 -0.00073546 0)
(0.00400289 -0.000794642 0)
(0.0043163 -0.000842238 0)
(0.00463443 -0.000869412 0)
(0.00494462 -0.000864583 0)
(0.00522892 -0.000813143 0)
(0.0054629 -0.000697269 0)
(0.00561467 -0.000495911 0)
(0.00564428 -0.000184851 0)
(0.0055032 0.00026323 0)
(0.00513829 0.000867629 0)
(0.00450586 0.00161972 0)
(0.00358608 0.00244671 0)
(0.00241269 0.00314194 0)
(0.00114238 0.00325462 0)
(0.000132155 0.00195351 0)
(2.37707e-05 -0.000579521 0)
(0.000384043 -0.00153761 0)
(0.00104264 -0.0023326 0)
(0.00193296 -0.00297699 0)
(0.00300174 -0.00347054 0)
(0.00419872 -0.00381137 0)
(0.00547553 -0.00400185 0)
(0.00678806 -0.00405037 0)
(0.00809753 -0.00397089 0)
(0.00937123 -0.00378127 0)
(0.0105825 -0.00350148 0)
(0.0117104 -0.00315199 0)
(0.0127394 -0.00275257 0)
(0.0136582 -0.00232143 0)
(0.0144597 -0.00187477 0)
(0.0151397 -0.00142657 0)
(0.0156965 -0.000988549 0)
(0.0161305 -0.000570243 0)
(0.016444 -0.000180067 0)
(0.0166376 0.000175523 0)
(0.0167211 0.000493535 0)
(0.0167018 0.0007744 0)
(0.0165888 0.00101852 0)
(0.016391 0.00122696 0)
(0.0161173 0.00140121 0)
(0.0157765 0.00154313 0)
(0.0153772 0.00165484 0)
(0.0149279 0.00173863 0)
(0.0144367 0.00179694 0)
(0.0139114 0.00183222 0)
(0.0133592 0.00184693 0)
(0.012787 0.00184348 0)
(0.0122013 0.00182417 0)
(0.011608 0.00179121 0)
(0.0110124 0.00174665 0)
(0.0104194 0.00169241 0)
(0.00983343 0.00163026 0)
(0.00925831 0.00156178 0)
(0.0086974 0.00148843 0)
(0.00815359 0.00141151 0)
(0.00762931 0.00133218 0)
(0.00712655 0.00125145 0)
(0.00664691 0.00117022 0)
(0.00619159 0.00108927 0)
(0.00576145 0.00100927 0)
(0.00535705 0.00093081 0)
(0.00497862 0.000854357 0)
(0.00462617 0.000780318 0)
(0.00429947 0.000709014 0)
(0.00399808 0.000640695 0)
(0.00372141 0.000575544 0)
(0.00346874 0.000513682 0)
(0.00323921 0.000455173 0)
(0.0030319 0.000400023 0)
(0.00284583 0.000348193 0)
(0.00267999 0.000299593 0)
(0.00253334 0.000254093 0)
(0.00240487 0.000211525 0)
(0.00229359 0.000171684 0)
(0.00219854 0.000134334 0)
(0.00211884 9.92065e-05 0)
(0.00205366 6.60096e-05 0)
(0.00200227 3.44227e-05 0)
(0.00196403 4.097e-06 0)
(0.00193838 -2.52207e-05 0)
(0.0019253 -5.36415e-05 0)
(0.00192424 -8.14771e-05 0)
(0.00193489 -0.0001092 0)
(0.00195706 -0.00013726 0)
(0.00199073 -0.000166123 0)
(0.00203599 -0.000196279 0)
(0.00209308 -0.000228244 0)
(0.00216239 -0.000262572 0)
(0.00224444 -0.000299852 0)
(0.0023399 -0.000340712 0)
(0.00244955 -0.000385806 0)
(0.0025743 -0.000435793 0)
(0.00271513 -0.000491292 0)
(0.00287309 -0.000552814 0)
(0.00304917 -0.000620655 0)
(0.00324425 -0.000694744 0)
(0.00345892 -0.00077443 0)
(0.00369326 -0.000858196 0)
(0.00394654 -0.000943294 0)
(0.0042168 -0.00102531 0)
(0.00450034 -0.00109764 0)
(0.00479102 -0.00115096 0)
(0.00507945 -0.00117261 0)
(0.00535196 -0.00114619 0)
(0.00558961 -0.00105112 0)
(0.00576705 -0.000862612 0)
(0.00585174 -0.000551918 0)
(0.00580368 -8.68933e-05 0)
(0.00557524 0.000564714 0)
(0.00512194 0.00141654 0)
(0.00441011 0.0024414 0)
(0.00343573 0.00352297 0)
(0.00225194 0.00436955 0)
(0.00102672 0.00438766 0)
(0.000105997 0.00254539 0)
(2.31369e-05 -0.000780551 0)
(0.000396956 -0.0020672 0)
(0.00108667 -0.00312946 0)
(0.0020201 -0.00398484 0)
(0.00313854 -0.00463508 0)
(0.00438673 -0.00508081 0)
(0.00571272 -0.00532846 0)
(0.00707032 -0.00539194 0)
(0.00842017 -0.00529155 0)
(0.00973002 -0.00505169 0)
(0.0109746 -0.00469858 0)
(0.0121347 -0.00425835 0)
(0.0131968 -0.00375566 0)
(0.0141518 -0.00321286 0)
(0.0149942 -0.00264947 0)
(0.0157213 -0.0020821 0)
(0.0163328 -0.00152447 0)
(0.0168295 -0.000987651 0)
(0.0172137 -0.00048051 0)
(0.0174875 -1.10954e-05 0)
(0.0176533 0.000414517 0)
(0.0177185 0.00079477 0)
(0.0176903 0.00113007 0)
(0.0175762 0.00142143 0)
(0.0173838 0.00167033 0)
(0.0171204 0.00187866 0)
(0.0167938 0.00204868 0)
(0.0164111 0.00218287 0)
(0.0159798 0.0022839 0)
(0.0155067 0.00235451 0)
(0.0149987 0.00239752 0)
(0.0144623 0.00241569 0)
(0.0139038 0.00241174 0)
(0.013329 0.00238831 0)
(0.0127435 0.00234789 0)
(0.0121523 0.00229287 0)
(0.0115603 0.00222547 0)
(0.0109718 0.00214776 0)
(0.0103908 0.00206165 0)
(0.00982079 0.00196889 0)
(0.0092649 0.00187108 0)
(0.00872585 0.00176967 0)
(0.00820594 0.00166597 0)
(0.00770713 0.00156113 0)
(0.00723096 0.00145619 0)
(0.00677865 0.00135206 0)
(0.00635107 0.00124953 0)
(0.00594881 0.00114927 0)
(0.00557215 0.00105185 0)
(0.00522114 0.000957737 0)
(0.00489559 0.000867292 0)
(0.00459515 0.000780792 0)
(0.00431926 0.000698425 0)
(0.00406726 0.000620295 0)
(0.00383835 0.00054643 0)
(0.00363168 0.000476784 0)
(0.00344633 0.000411247 0)
(0.00328135 0.000349648 0)
(0.0031358 0.000291761 0)
(0.00300874 0.000237309 0)
(0.00289925 0.000185972 0)
(0.00280647 0.000137388 0)
(0.00272961 9.1158e-05 0)
(0.00266795 4.6844e-05 0)
(0.00262084 3.95761e-06 0)
(0.00258776 -3.78201e-05 0)
(0.00256883 -7.86403e-05 0)
(0.00256342 -0.00011896 0)
(0.00257122 -0.000159425 0)
(0.00259201 -0.000200646 0)
(0.00262573 -0.000243248 0)
(0.00267241 -0.000287881 0)
(0.00273224 -0.000335226 0)
(0.00280549 -0.000385999 0)
(0.00289254 -0.000440941 0)
(0.00299386 -0.000500808 0)
(0.00310999 -0.000566332 0)
(0.00324151 -0.000638167 0)
(0.00338897 -0.0007168 0)
(0.00355285 -0.000802416 0)
(0.00373343 -0.000894699 0)
(0.00393066 -0.000992571 0)
(0.00414395 -0.00109383 0)
(0.00437191 -0.00119471 0)
(0.00461194 -0.00128931 0)
(0.00485973 -0.00136895 0)
(0.00510867 -0.00142148 0)
(0.00534898 -0.00143055 0)
(0.00556684 -0.00137502 0)
(0.00574335 -0.0012286 0)
(0.00585354 -0.00095985 0)
(0.00586601 -0.000532911 0)
(0.00574213 9.12606e-05 0)
(0.00543959 0.000944496 0)
(0.0049221 0.0020326 0)
(0.00416622 0.00330638 0)
(0.00318115 0.00460349 0)
(0.00203368 0.00555051 0)
(0.000893541 0.00542978 0)
(8.18651e-05 0.00306001 0)
(2.26821e-05 -0.000985769 0)
(0.000406147 -0.00261434 0)
(0.00111812 -0.00395571 0)
(0.00208157 -0.00502917 0)
(0.00323261 -0.00583809 0)
(0.00451114 -0.0063865 0)
(0.00586181 -0.00668636 0)
(0.00723666 -0.00675863 0)
(0.00859597 -0.00663126 0)
(0.00990833 -0.00633617 0)
(0.0111501 -0.00590652 0)
(0.0123042 -0.00537449 0)
(0.0133596 -0.0047698 0)
(0.0143096 -0.00411885 0)
(0.015151 -0.00344431 0)
(0.0158833 -0.00276513 0)
(0.0165079 -0.00209665 0)
(0.0170271 -0.00145104 0)
(0.0174442 -0.000837721 0)
(0.0177626 -0.000264373 0)
(0.0179841 0.000262316 0)
(0.0181125 0.000737311 0)
(0.0181539 0.00116066 0)
(0.0181142 0.00153337 0)
(0.0179996 0.00185683 0)
(0.0178159 0.00213294 0)
(0.0175693 0.00236397 0)
(0.0172657 0.00255247 0)
(0.0169111 0.00270121 0)
(0.0165115 0.00281309 0)
(0.0160724 0.00289109 0)
(0.0155996 0.00293818 0)
(0.0150986 0.00295733 0)
(0.0145746 0.0029514 0)
(0.0140328 0.00292321 0)
(0.0134781 0.00287543 0)
(0.0129152 0.00281061 0)
(0.0123484 0.00273116 0)
(0.0117818 0.00263936 0)
(0.0112194 0.00253734 0)
(0.0106645 0.00242705 0)
(0.0101203 0.00231034 0)
(0.00958974 0.00218888 0)
(0.0090752 0.00206421 0)
(0.00857883 0.00193773 0)
(0.00810245 0.00181068 0)
(0.00764753 0.00168419 0)
(0.00721522 0.00155924 0)
(0.00680639 0.00143668 0)
(0.0064216 0.00131724 0)
(0.00606118 0.00120153 0)
(0.0057252 0.00109002 0)
(0.00541354 0.000983072 0)
(0.00512589 0.000880942 0)
(0.00486178 0.000783774 0)
(0.00462063 0.000691615 0)
(0.00440174 0.000604417 0)
(0.00420437 0.00052205 0)
(0.00402769 0.000444301 0)
(0.00387088 0.000370889 0)
(0.0037331 0.000301469 0)
(0.00361352 0.000235639 0)
(0.00351136 0.000172945 0)
(0.00342588 0.000112883 0)
(0.00335639 5.48926e-05 0)
(0.00330221 -1.64738e-06 0)
(0.00326302 -5.70706e-05 0)
(0.00323889 -0.000111596 0)
(0.00322917 -0.000165854 0)
(0.00323352 -0.000220635 0)
(0.00325166 -0.000276684 0)
(0.00328345 -0.000334759 0)
(0.0033288 -0.000395645 0)
(0.00338773 -0.000460147 0)
(0.00346029 -0.000529083 0)
(0.00354663 -0.000603262 0)
(0.00364687 -0.000683444 0)
(0.00376116 -0.00077027 0)
(0.00388957 -0.000864151 0)
(0.00403205 -0.000965111 0)
(0.00418832 -0.00107256 0)
(0.00435779 -0.00118497 0)
(0.0045393 -0.00129948 0)
(0.00473093 -0.00141133 0)
(0.00492965 -0.00151321 0)
(0.00513085 -0.00159449 0)
(0.00532774 -0.00164037 0)
(0.00551064 -0.00163101 0)
(0.00566606 -0.00154085 0)
(0.00577584 -0.00133822 0)
(0.00581617 -0.000985622 0)
(0.00575774 -0.000440938 0)
(0.00556447 0.000339476 0)
(0.00520112 0.00138466 0)
(0.00463835 0.00269036 0)
(0.00386229 0.00418336 0)
(0.0028926 0.00565511 0)
(0.00180504 0.00665647 0)
(0.000764907 0.00636569 0)
(6.17931e-05 0.00349776 0)
(2.27849e-05 -0.00119516 0)
(0.000416046 -0.00317614 0)
(0.0011473 -0.00480473 0)
(0.00213421 -0.0060996 0)
(0.00330751 -0.00706548 0)
(0.00460251 -0.00771085 0)
(0.00596079 -0.00805475 0)
(0.00733302 -0.00812674 0)
(0.00867957 -0.00796371 0)
(0.00997019 -0.00760612 0)
(0.0111831 -0.00709468 0)
(0.0123038 -0.006468 0)
(0.0133237 -0.00576102 0)
(0.0142387 -0.00500417 0)
(0.0150483 -0.00422313 0)
(0.0157542 -0.00343891 0)
(0.0163599 -0.00266822 0)
(0.0168695 -0.00192394 0)
(0.0172877 -0.00121579 0)
(0.0176186 -0.000550996 0)
(0.0178666 6.4672e-05 0)
(0.0180328 0.000624959 0)
(0.0181221 0.00112825 0)
(0.0181395 0.00157567 0)
(0.0180893 0.00196859 0)
(0.0179762 0.00230886 0)
(0.0178048 0.00259876 0)
(0.0175798 0.00284088 0)
(0.0173055 0.00303802 0)
(0.0169866 0.00319313 0)
(0.0166274 0.00330924 0)
(0.0162324 0.00338939 0)
(0.015806 0.00343663 0)
(0.0153527 0.00345395 0)
(0.0148767 0.00344427 0)
(0.0143823 0.00341041 0)
(0.0138737 0.00335512 0)
(0.0133549 0.003281 0)
(0.0128299 0.00319055 0)
(0.0123024 0.00308616 0)
(0.0117758 0.00297006 0)
(0.0112535 0.00284436 0)
(0.0107386 0.00271107 0)
(0.0102338 0.00257202 0)
(0.00974172 0.00242892 0)
(0.00926453 0.00228335 0)
(0.00880418 0.00213675 0)
(0.00836232 0.00199041 0)
(0.0079403 0.00184548 0)
(0.0075392 0.00170295 0)
(0.00715983 0.0015637 0)
(0.00680274 0.00142844 0)
(0.00646826 0.00129775 0)
(0.0061565 0.00117207 0)
(0.00586738 0.0010517 0)
(0.00560065 0.000936834 0)
(0.00535595 0.000827521 0)
(0.00513278 0.000723714 0)
(0.00493055 0.000625261 0)
(0.00474863 0.000531912 0)
(0.00458632 0.000443338 0)
(0.00444292 0.000359129 0)
(0.00431771 0.00027881 0)
(0.00420999 0.000201844 0)
(0.00411907 0.000127631 0)
(0.00404434 5.54848e-05 0)
(0.00398501 -1.5316e-05 0)
(0.00394113 -8.5044e-05 0)
(0.0039125 -0.000154046 0)
(0.00389848 -0.000223134 0)
(0.00389867 -0.000293174 0)
(0.00391272 -0.000365008 0)
(0.00394032 -0.000439489 0)
(0.0039812 -0.000517477 0)
(0.00403513 -0.00059983 0)
(0.00410191 -0.000687372 0)
(0.00418129 -0.000780849 0)
(0.004273 -0.000880848 0)
(0.00437666 -0.00098767 0)
(0.00449177 -0.00110116 0)
(0.00461757 -0.00122043 0)
(0.00475299 -0.00134354 0)
(0.00489643 -0.00146698 0)
(0.00504561 -0.00158508 0)
(0.00519722 -0.00168926 0)
(0.00534654 -0.0017671 0)
(0.00548687 -0.00180137 0)
(0.00560886 -0.00176902 0)
(0.00569972 -0.00164043 0)
(0.00574236 -0.00137903 0)
(0.00571469 -0.000941892 0)
(0.00558972 -0.000281572 0)
(0.00533495 0.000647894 0)
(0.00492204 0.00187092 0)
(0.004328 0.00337215 0)
(0.0035472 0.00505328 0)
(0.00260734 0.00666076 0)
(0.00158938 0.00767704 0)
(0.000650407 0.00719599 0)
(4.60659e-05 0.0038665 0)
(2.34841e-05 -0.00140998 0)
(0.000427977 -0.00375267 0)
(0.00117762 -0.00567365 0)
(0.00218373 -0.00718967 0)
(0.00337143 -0.00830721 0)
(0.00467168 -0.00904057 0)
(0.0060236 -0.00941759 0)
(0.00737705 -0.00947798 0)
(0.00869297 -0.00926881 0)
(0.00994271 -0.00883995 0)
(0.0111068 -0.00824026 0)
(0.0121732 -0.00751507 0)
(0.0131362 -0.00670463 0)
(0.0139944 -0.00584335 0)
(0.0147499 -0.00495974 0)
(0.0154068 -0.00407665 0)
(0.0159705 -0.00321185 0)
(0.016447 -0.00237866 0)
(0.0168423 -0.00158674 0)
(0.0171619 -0.000842893 0)
(0.0174106 -0.000151792 0)
(0.0175923 0.000481589 0)
(0.0177083 0.00105388 0)
(0.0177637 0.00156623 0)
(0.0177616 0.00202006 0)
(0.0177055 0.00241731 0)
(0.0175987 0.00276032 0)
(0.0174444 0.00305172 0)
(0.0172459 0.00329436 0)
(0.0170061 0.00349118 0)
(0.0167282 0.0036452 0)
(0.0164154 0.00375946 0)
(0.0160709 0.00383695 0)
(0.0156979 0.00388067 0)
(0.0152998 0.00389351 0)
(0.0148799 0.00387834 0)
(0.0144418 0.0038379 0)
(0.0139887 0.0037749 0)
(0.0135242 0.00369191 0)
(0.0130515 0.00359143 0)
(0.012574 0.00347586 0)
(0.0120949 0.0033475 0)
(0.0116171 0.00320854 0)
(0.0111435 0.00306105 0)
(0.0106768 0.002907 0)
(0.0102194 0.00274821 0)
(0.00977366 0.0025864 0)
(0.00934147 0.00242312 0)
(0.00892457 0.00225981 0)
(0.00852445 0.00209773 0)
(0.00814235 0.00193801 0)
(0.00777923 0.00178161 0)
(0.00743586 0.00162934 0)
(0.00711275 0.00148185 0)
(0.00681022 0.00133964 0)
(0.0065284 0.00120307 0)
(0.00626727 0.00107232 0)
(0.00602665 0.000947472 0)
(0.00580623 0.00082847 0)
(0.00560561 0.000715138 0)
(0.00542432 0.000607195 0)
(0.00526181 0.000504267 0)
(0.0051175 0.000405894 0)
(0.00499079 0.00031154 0)
(0.00488105 0.000220596 0)
(0.00478765 0.000132384 0)
(0.00471004 4.60942e-05 0)
(0.00464724 -3.90319e-05 0)
(0.00459987 -0.00012316 0)
(0.00456716 -0.000206805 0)
(0.00454858 -0.000290914 0)
(0.00454361 -0.000376386 0)
(0.00455175 -0.000464102 0)
(0.00457252 -0.000554945 0)
(0.00460541 -0.000649774 0)
(0.00464991 -0.000749396 0)
(0.00470545 -0.000854511 0)
(0.0047714 -0.000965622 0)
(0.00484702 -0.0010829 0)
(0.00493139 -0.001206 0)
(0.00502337 -0.00133376 0)
(0.00512152 -0.00146381 0)
(0.00522393 -0.0015921 0)
(0.00532806 -0.00171213 0)
(0.00543046 -0.00181416 0)
(0.00552642 -0.00188418 0)
(0.00560947 -0.00190276 0)
(0.00567077 -0.00184398 0)
(0.00569838 -0.00167454 0)
(0.00567647 -0.00135347 0)
(0.00558496 -0.000833107 0)
(0.00539885 -6.15024e-05 0)
(0.00509059 0.00100718 0)
(0.00463755 0.00239212 0)
(0.0040225 0.004066 0)
(0.00324668 0.00590512 0)
(0.00234378 0.00761312 0)
(0.00139705 0.00861188 0)
(0.000553139 0.00792897 0)
(3.42333e-05 0.00417661 0)
(2.46699e-05 -0.00163155 0)
(0.00044157 -0.00434445 0)
(0.00120857 -0.00656024 0)
(0.0022296 -0.00829373 0)
(0.00342401 -0.00955427 0)
(0.0047189 -0.0103638 0)
(0.00605153 -0.0107608 0)
(0.00737165 -0.0107966 0)
(0.00864135 -0.0105297 0)
(0.00983403 -0.0100201 0)
(0.0109327 -0.00932522 0)
(0.0119284 -0.00849739 0)
(0.012818 -0.00758214 0)
(0.0136032 -0.00661776 0)
(0.0142884 -0.00563536 0)
(0.0148801 -0.00465937 0)
(0.0153857 -0.0037083 0)
(0.0158128 -0.0027956 0)
(0.0161688 -0.00193058 0)
(0.0164603 -0.00111933 0)
(0.0166927 -0.00036554 0)
(0.0168717 0.000327479 0)
(0.016997 0.000956587 0)
(0.0170739 0.00152249 0)
(0.0171045 0.00202684 0)
(0.0170915 0.00247176 0)
(0.0170371 0.00285978 0)
(0.0169433 0.00319367 0)
(0.016812 0.00347634 0)
(0.0166451 0.00371075 0)
(0.0164445 0.00389988 0)
(0.0162119 0.0040467 0)
(0.0159495 0.00415411 0)
(0.0156594 0.004225 0)
(0.0153437 0.00426217 0)
(0.015005 0.00426837 0)
(0.0146458 0.00424629 0)
(0.0142686 0.00419855 0)
(0.0138763 0.00412772 0)
(0.0134716 0.00403629 0)
(0.0130574 0.00392671 0)
(0.0126364 0.00380134 0)
(0.0122116 0.00366246 0)
(0.0117856 0.0035123 0)
(0.011361 0.00335296 0)
(0.0109404 0.00318646 0)
(0.010526 0.00301472 0)
(0.01012 0.00283952 0)
(0.00972447 0.00266251 0)
(0.00934103 0.0024852 0)
(0.00897127 0.00230895 0)
(0.0086165 0.00213496 0)
(0.00827783 0.00196427 0)
(0.00795614 0.00179774 0)
(0.00765211 0.00163608 0)
(0.00736622 0.00147981 0)
(0.00709878 0.00132931 0)
(0.00684993 0.00118479 0)
(0.00661967 0.00104633 0)
(0.00640788 0.000913851 0)
(0.00621429 0.000787169 0)
(0.00603859 0.000665973 0)
(0.00588036 0.000549856 0)
(0.00573915 0.00043832 0)
(0.00561442 0.000330783 0)
(0.00550563 0.000226586 0)
(0.0054122 0.000124989 0)
(0.00533354 2.50701e-05 0)
(0.0052687 -7.38171e-05 0)
(0.00521837 -0.000171809 0)
(0.00518155 -0.0002696 0)
(0.00515768 -0.000368161 0)
(0.00514612 -0.000468377 0)
(0.00514617 -0.000571111 0)
(0.00515715 -0.000677196 0)
(0.00517828 -0.00078739 0)
(0.00520873 -0.00090232 0)
(0.00524759 -0.00102239 0)
(0.00529379 -0.00114763 0)
(0.00534614 -0.00127749 0)
(0.0054032 -0.00141055 0)
(0.00546323 -0.00154408 0)
(0.00552412 -0.0016735 0)
(0.00558316 -0.00179161 0)
(0.00563685 -0.00188764 0)
(0.0056806 -0.00194615 0)
(0.00570823 -0.00194579 0)
(0.00571145 -0.00185803 0)
(0.00567923 -0.00164629 0)
(0.00559703 -0.00126573 0)
(0.00544684 -0.000664478 0)
(0.00520559 0.000213011 0)
(0.00485184 0.00140916 0)
(0.00436643 0.00293959 0)
(0.00373785 0.00476382 0)
(0.0029729 0.00673298 0)
(0.00210958 0.00851061 0)
(0.00123122 0.00946595 0)
(0.00047289 0.00857613 0)
(2.55901e-05 0.00443853 0)
(2.61917e-05 -0.00186066 0)
(0.000455725 -0.00495114 0)
(0.00123787 -0.00746145 0)
(0.00226848 -0.00940547 0)
(0.00346119 -0.0107974 0)
(0.00473987 -0.0116689 0)
(0.00604064 -0.012071 0)
(0.0073138 -0.0120682 0)
(0.00852316 -0.0117314 0)
(0.00964455 -0.0111314 0)
(0.0106639 -0.0103346 0)
(0.0115752 -0.00940026 0)
(0.0123785 -0.00837924 0)
(0.013078 -0.00731349 0)
(0.0136811 -0.00623645 0)
(0.0141962 -0.00517379 0)
(0.0146327 -0.00414444 0)
(0.0149996 -0.00316163 0)
(0.0153055 -0.00223406 0)
(0.015558 -0.00136685 0)
(0.0157627 -0.000562655 0)
(0.0159267 0.00017753 0)
(0.0160492 0.000851278 0)
(0.0161352 0.00145884 0)
(0.0161866 0.00200249 0)
(0.0162052 0.00248478 0)
(0.0161921 0.00290854 0)
(0.0161487 0.00327677 0)
(0.0160756 0.00359249 0)
(0.0159736 0.00385872 0)
(0.0158434 0.00407839 0)
(0.0156859 0.00425439 0)
(0.0155018 0.0043895 0)
(0.0152923 0.00448644 0)
(0.0150585 0.00454785 0)
(0.014802 0.00457631 0)
(0.0145243 0.00457432 0)
(0.0142272 0.00454438 0)
(0.0139128 0.00448891 0)
(0.0135832 0.00441033 0)
(0.0132407 0.00431099 0)
(0.0128876 0.00419324 0)
(0.0125263 0.00405938 0)
(0.0121592 0.00391164 0)
(0.0117888 0.00375222 0)
(0.0114175 0.00358325 0)
(0.0110474 0.00340675 0)
(0.0106809 0.00322467 0)
(0.0103198 0.00303884 0)
(0.00996623 0.00285095 0)
(0.00962178 0.00266256 0)
(0.00928802 0.00247508 0)
(0.0089663 0.00228974 0)
(0.0086578 0.00210761 0)
(0.00836347 0.0019296 0)
(0.00808411 0.00175643 0)
(0.00782032 0.00158864 0)
(0.00757253 0.00142661 0)
(0.00734104 0.00127056 0)
(0.00712596 0.00112055 0)
(0.00692729 0.000976512 0)
(0.00674494 0.000838225 0)
(0.00657868 0.000705369 0)
(0.0064282 0.000577513 0)
(0.00629313 0.000454138 0)
(0.00617302 0.000334637 0)
(0.00606735 0.00021832 0)
(0.00597556 0.000104401 0)
(0.00589685 -8.08156e-06 0)
(0.00583085 -0.000119532 0)
(0.00577759 -0.000230204 0)
(0.00573614 -0.000340925 0)
(0.00570583 -0.000452567 0)
(0.00568587 -0.000565951 0)
(0.00567539 -0.000681851 0)
(0.00567345 -0.000800954 0)
(0.00567902 -0.000923796 0)
(0.00569097 -0.00105066 0)
(0.00570803 -0.00118143 0)
(0.00572877 -0.00131538 0)
(0.00575154 -0.00145083 0)
(0.00577444 -0.00158472 0)
(0.00579517 -0.00171201 0)
(0.00581097 -0.00182486 0)
(0.00581837 -0.00191161 0)
(0.00581289 -0.00195558 0)
(0.0057887 -0.00193367 0)
(0.00573807 -0.00181507 0)
(0.00565085 -0.00156028 0)
(0.00551385 -0.00112109 0)
(0.00531076 -0.000442073 0)
(0.00502145 0.000533814 0)
(0.00462885 0.00184654 0)
(0.0041175 0.00350666 0)
(0.00348083 0.00546029 0)
(0.00273015 0.00753419 0)
(0.00190638 0.00935499 0)
(0.00109123 0.0102468 0)
(0.00040789 0.00914966 0)
(1.94112e-05 0.0046617 0)