/*--------------------------------*- C++ -*----------------------------------*\
  =========                 |
  \\      /  F ield         | OpenFOAM: The Open Source CFD Toolbox
   \\    /   O peration     | Website:  https://openfoam.org
    \\  /    A nd           | Version:  6
     \\/     M anipulation  |
\*---------------------------------------------------------------------------*/
FoamFile
{
    version     2.0;
    format      ascii;
    class       volScalarField;
    location    "./ITHACAoutput/Offline/1";
    object      P_rec;
}
// * * * * * * * * * * * * * * * * * * * * * * * * * * * * * * * * * * * * * //

dimensions      [0 2 -2 0 0 0 0];

internalField   nonuniform List<scalar> 
13046
(
0.872226
0.82405
0.856238
0.879019
0.867709
0.829277
0.866497
0.824044
0.867848
0.700992
0.324158
0.856922
0.870729
0.776702
0.855492
0.750829
0.838765
0.394829
0.883869
0.85222
0.861183
0.741598
0.844293
0.385898
0.875996
0.848777
0.854803
0.860827
0.770519
0.85181
0.880323
0.808651
0.848685
0.878067
0.864778
0.848857
0.873184
0.868488
0.855608
0.875969
0.833075
0.81715
0.864172
0.876873
0.865838
0.872263
0.867766
0.859474
0.865327
0.813644
0.858963
0.794356
0.877131
0.789983
0.790389
0.78393
0.879554
0.600349
0.836296
0.824306
0.83065
0.716429
0.867873
0.854181
0.510462
0.776293
0.844668
0.621469
0.818471
0.852613
0.647363
0.818015
0.560664
0.827049
0.824508
0.883203
0.856565
0.8513
0.831594
0.806688
0.52501
0.873243
0.839867
0.856179
0.85193
0.469111
0.757554
0.752264
0.869927
0.534742
0.881457
0.707776
0.530014
0.835583
0.8233
0.672534
0.647321
0.848836
0.853884
0.873729
0.751057
0.555826
0.87491
0.871571
0.851094
0.879847
0.810866
0.795296
0.87542
0.817234
0.811622
0.61808
0.857107
0.166407
0.87506
0.796914
0.853551
0.825396
0.834861
0.621579
0.84188
0.659836
0.842199
0.68548
0.282613
0.85601
0.855282
0.714903
0.852791
0.875353
0.836136
0.808741
0.880638
0.718876
0.567281
0.804028
0.604411
0.860476
0.878165
0.792428
0.845064
0.853328
0.795103
0.867724
0.873758
0.805625
0.814289
0.879183
0.828939
0.811426
0.828271
0.690226
0.867935
0.880514
0.844467
0.82172
0.753106
0.787567
0.733823
0.786253
0.878968
0.879887
0.848503
0.783392
0.875213
0.690641
0.861414
0.339419
0.648168
0.855804
0.205034
0.798683
0.576079
0.857184
0.875945
0.76485
0.828383
0.850143
0.875937
0.795994
0.868434
0.391244
0.700968
0.876163
0.785056
0.825021
0.879885
0.833761
0.810672
0.859234
0.805591
0.867624
0.75834
0.863454
0.859369
0.739957
0.851084
0.747552
0.864624
0.48505
0.877767
0.743946
0.580011
0.714846
0.506179
0.877244
0.783579
0.757827
0.873839
0.861919
0.814001
0.826336
0.529058
0.468568
0.71168
0.877609
0.870067
0.870839
0.851501
0.866022
0.783618
0.846939
0.880099
0.731873
0.586284
0.857716
0.766441
0.866569
0.864292
0.267903
0.646465
0.874819
0.760879
0.769492
0.732085
0.543181
0.875642
0.808759
0.757743
0.878688
0.850216
0.713483
0.851247
0.653347
0.739703
0.879841
0.773718
0.713604
0.87886
0.866135
0.257098
0.628287
0.879268
0.820521
0.791968
0.637859
0.847644
0.121869
0.877567
0.870425
0.845595
0.826712
0.822324
0.751719
0.767876
0.877277
0.872026
0.826924
0.798145
0.491498
0.85935
0.737182
0.843152
0.767425
0.68707
0.880321
0.811276
0.607691
0.849179
0.868158
0.860901
0.874642
0.80103
0.736601
0.878607
0.861003
0.722529
0.840514
0.859378
0.857833
0.880485
0.813054
0.775414
0.799226
0.716071
0.877164
0.795442
0.850438
0.58064
0.882992
0.820575
0.808436
0.880423
0.768792
0.745818
0.837788
0.646758
0.832166
0.877864
0.801752
0.778898
0.826938
0.822684
0.617576
0.832744
0.604643
0.838482
0.863854
0.415756
0.714821
0.840004
0.682916
0.841264
0.0576284
0.857776
0.567605
0.863937
0.877793
0.822601
0.841379
0.737486
0.865557
0.862328
0.762632
0.5222
0.778256
0.770861
0.878955
0.625882
0.736339
0.879907
0.792166
0.861458
0.834521
0.719735
0.859617
0.787083
0.868924
0.768548
0.837678
0.434176
0.790497
0.736861
0.875669
0.827261
0.697438
0.857212
0.840415
0.785394
0.873928
0.808375
0.793191
0.878836
0.874659
0.819296
0.861565
0.876886
0.773565
0.758354
0.731462
0.49135
0.868337
0.624628
0.740143
0.879764
0.85525
0.814763
0.688741
0.817834
0.824612
0.595035
0.563083
0.827186
0.82857
0.854033
0.0807501
0.591493
0.653725
0.846984
0.152922
0.823278
0.736184
0.871154
0.863003
0.742141
0.451139
0.845102
0.843304
0.664555
0.648558
0.828205
0.827845
0.877763
0.409423
0.667993
0.62652
0.848018
0.0769984
0.855635
0.880135
0.859932
0.619159
0.12551
0.854226
0.873434
0.758046
0.826825
0.705703
0.411972
0.871933
0.0594905
0.861708
0.516266
0.876785
0.833914
0.831396
0.86671
0.847975
0.870715
0.688615
0.853275
0.275095
0.860637
0.835848
0.871197
0.859589
0.877307
0.864992
0.880142
0.747273
0.762298
0.85172
0.848824
0.876923
0.864704
0.826378
0.879168
0.86055
0.706043
0.811024
0.850455
0.856114
0.381236
0.3766
0.730303
0.722541
0.710858
0.463937
0.8694
0.819106
0.85412
0.661332
0.874902
0.820129
0.798172
0.761213
0.711693
0.877286
0.174851
0.870118
0.55235
0.880114
0.703502
0.501287
0.659595
0.859073
0.246859
0.859751
0.0207757
0.51064
-0.0172622
0.853519
0.540152
0.682192
0.802397
0.87144
0.314975
0.876942
0.617504
0.788558
0.59256
0.863422
0.73327
0.833677
0.307179
0.869569
0.858671
0.808902
0.443244
0.879103
0.683939
0.762158
0.877022
0.728169
0.673344
0.768712
0.879257
0.854895
-0.130244
0.453567
0.0846068
0.861028
0.551367
0.874224
0.865032
0.818201
0.391181
0.66593
0.873612
0.879682
0.643623
0.383133
0.739741
0.855733
0.445017
0.833213
0.490269
0.787542
0.868067
0.703369
0.810017
0.612688
0.834092
0.830055
0.832385
0.77831
0.421025
0.867592
0.863948
0.758264
0.735114
0.83658
0.839609
0.870864
0.76803
0.832891
0.853084
0.662013
0.827036
0.645734
0.755461
0.878514
0.454925
0.710139
0.874789
0.876438
0.760193
0.615016
0.000621693
0.853402
0.560597
0.881136
0.878583
0.845708
0.819955
0.851975
0.822618
0.865606
0.860074
0.824238
0.706529
0.824763
0.733288
0.0907073
0.866531
0.515991
0.409671
0.677858
0.872995
0.872065
0.806664
0.768621
0.677199
0.749186
0.880301
0.831204
0.512576
0.796975
0.17205
0.599472
0.863293
0.211687
0.609561
0.866593
0.844398
0.661159
0.834895
0.884213
0.817329
0.821086
0.731506
0.85672
0.407188
0.664156
0.784286
0.874408
0.852719
0.54061
0.789366
0.863022
0.822787
0.740675
0.813678
0.772008
0.877782
0.877474
0.826387
0.809096
0.860775
0.389837
0.714896
0.812966
0.597044
0.844131
0.880086
0.840475
0.831219
0.763691
0.831249
0.376324
0.869041
0.79227
0.844496
0.856718
0.811346
0.876043
0.690404
0.786342
0.87679
0.688835
0.842281
0.207687
0.703032
0.839428
0.229347
0.84829
0.528875
0.790255
0.803061
0.774411
0.876995
0.841445
0.155154
0.666453
0.864849
0.556475
0.776308
0.861274
-0.00519813
0.485095
0.525116
-0.0637324
0.851244
0.836442
0.443627
0.779964
0.864684
0.318539
0.672237
0.750846
0.761015
0.846258
0.413652
0.847497
0.454614
0.766034
0.564747
0.867591
0.882562
0.693876
0.740849
0.883634
0.853796
0.829509
0.771942
0.602875
0.873735
0.875535
0.776872
0.624754
0.78973
0.828844
0.447188
0.862487
0.684836
0.823602
0.867241
0.739506
0.823637
0.805853
0.668391
0.86707
0.798133
0.659251
0.870957
0.881974
0.838259
0.843107
0.862578
0.721625
0.83959
0.881696
0.458707
0.675106
0.591608
0.870387
0.224228
0.573604
0.87078
0.21428
0.874725
0.834399
0.792425
0.136243
0.863344
0.568969
0.803206
0.844666
0.55697
0.866638
0.141834
0.546672
0.877044
0.871146
0.838702
0.85413
0.740882
0.857019
0.782744
0.799739
0.878311
0.87687
0.343328
0.636594
0.667391
0.783661
0.876964
0.834093
0.750499
0.355793
0.841644
0.720268
0.856981
0.883324
0.857589
0.836417
0.347849
0.65569
0.874198
0.858832
0.532163
0.776358
0.676624
0.659687
0.847832
0.849964
0.231346
0.196713
0.835907
0.765546
0.874279
0.703392
0.809884
0.87134
0.857456
0.817462
0.871139
0.272134
0.612345
0.280307
0.872248
0.609993
0.875114
0.823533
0.661285
0.86006
0.655438
0.634227
0.322942
0.287305
0.871036
0.870242
0.803336
0.721569
0.876374
0.847091
0.760595
0.862734
0.719222
0.839481
0.286471
0.847247
0.755666
0.871984
0.861115
0.800998
0.868654
0.691491
0.844218
0.235993
0.846133
0.698297
0.850355
0.735651
0.745939
0.878672
0.866729
0.726154
0.817304
0.590187
0.881511
0.714891
0.855836
-0.0912186
0.476331
0.840552
0.740875
0.862676
0.730436
0.842827
0.340797
0.801559
0.720308
0.871774
0.574029
0.847404
0.00854293
0.879123
0.878075
0.817108
0.835339
0.815824
0.834188
0.86205
0.818485
0.873964
0.877642
0.87852
0.827406
0.836859
0.834379
0.835149
0.846482
0.773741
0.870208
0.850879
0.775372
0.872139
0.874562
0.244935
0.579369
0.873917
0.786627
0.832154
0.675877
0.343953
0.867929
0.803985
0.794343
0.646167
0.615914
0.863915
0.864108
0.870571
0.802991
0.838284
0.852095
0.689715
0.827374
0.82217
0.686884
0.864431
0.878654
0.852069
0.855693
0.786558
0.622933
0.871402
0.880812
0.845245
0.835605
0.817033
0.720036
0.873615
0.851266
0.704986
0.828522
0.877224
0.878161
0.846622
0.857786
0.849906
0.852149
0.880817
0.832267
0.880723
0.850378
0.844128
0.841141
0.86845
0.867288
0.769351
0.7627
0.841648
0.84011
0.837186
0.506182
0.793523
0.877041
0.758708
0.752759
0.842678
0.845714
0.472971
0.484734
0.778991
0.77538
0.875948
0.80132
0.765787
0.876226
0.865537
0.859636
0.785205
0.601618
0.868701
0.880171
0.839686
0.805383
0.847983
0.691717
0.831588
0.813403
0.814455
0.552546
0.836187
0.567718
0.837908
0.812184
0.639648
0.859198
0.594392
0.0537178
0.848171
0.796726
0.739693
0.872357
0.868191
0.869039
0.805536
0.721866
0.811737
0.73621
0.767158
0.63995
0.877608
0.854534
0.708531
0.82854
0.876074
0.80098
0.756552
0.866709
0.871289
0.81456
0.82573
0.763787
0.756209
0.8661
0.81692
0.742403
0.813184
0.655758
0.863035
0.880538
0.845006
0.843916
0.704307
0.84757
0.298731
0.874888
0.80252
0.741439
0.852983
0.844167
0.697482
0.675373
0.833015
0.839507
0.846653
0.338671
0.724979
0.721176
0.84376
0.304534
0.705192
0.844225
0.275805
0.804645
0.840403
0.545055
0.858081
0.729562
0.831586
0.366264
0.497808
0.752525
0.372838
0.666065
0.14725
0.587631
0.465628
0.295743
0.661818
0.659645
0.259573
0.371557
0.649654
0.474897
0.372213
0.409821
0.440525
0.496128
0.614075
0.519762
0.43312
0.687162
0.829755
0.766994
0.502913
0.679134
0.275061
0.542603
0.361872
0.289182
0.588506
0.494945
0.502408
0.325866
0.511614
0.742655
0.678384
0.431868
0.552587
0.401323
0.843697
0.35134
0.652406
0.710369
0.426234
0.432423
0.368067
0.270168
0.349673
0.778026
0.530282
0.371543
0.405657
0.28585
0.774158
0.61248
0.503881
0.357262
0.638267
0.344048
0.362567
0.770493
0.486547
0.50015
0.617354
0.532512
0.805895
0.680935
0.664246
0.220836
0.269462
0.423304
0.634633
0.256194
0.503673
0.501592
0.318082
0.629388
0.71899
0.441762
0.490658
0.280113
0.348983
0.411024
0.63803
0.413063
0.411556
0.461737
0.778295
0.370624
0.639353
0.762607
0.508469
0.375725
0.0890849
0.32478
0.372179
0.373465
0.219067
0.561598
0.692679
0.718457
0.806079
0.359511
0.386473
0.276476
0.380742
0.327155
0.742404
0.701736
0.612831
0.325218
0.27305
0.567409
0.683955
0.438743
0.411498
0.200822
0.435707
0.491767
0.778024
0.794966
0.641971
0.511299
0.430195
0.257622
0.79779
0.321831
0.630344
0.208417
0.771078
0.281273
0.316056
0.350969
0.718829
0.49114
0.171478
0.349275
0.600026
0.368369
0.647725
0.579597
0.380253
0.706184
0.402121
0.34676
0.730881
0.358317
0.44355
0.263415
0.526277
0.428074
0.716667
0.64111
0.433605
0.633647
0.648183
0.753124
0.505661
0.418416
0.375272
0.653388
0.320165
0.549679
0.282054
0.831845
0.434978
0.718457
0.797485
0.524049
0.802476
0.722035
0.753053
0.318436
0.20294
0.257155
0.756427
0.318224
0.29705
0.315216
0.299312
0.44901
0.401582
0.522353
0.796685
0.639049
0.408255
0.624261
0.387422
0.839208
0.284288
0.69902
0.37281
0.184093
0.780033
0.804475
0.366217
0.373038
0.828821
0.549022
0.427361
0.333392
0.63983
0.738832
0.615676
0.366294
0.359018
0.66702
0.513162
0.324612
0.568671
0.323335
0.302119
0.431203
0.668629
0.208651
0.454463
0.697251
0.403735
0.202849
0.424579
0.373607
0.426571
0.576208
0.590857
0.351284
0.291811
0.343676
0.618852
0.61184
0.444462
0.60004
0.408078
0.318429
0.56112
0.407266
0.186105
0.612492
0.729492
0.538536
0.765826
0.739033
0.846594
0.374557
0.157325
0.461921
0.426785
0.418833
0.215155
0.559218
0.768905
0.617727
0.555432
0.359619
0.449088
0.636215
0.508918
0.59072
0.362837
0.458652
0.401262
0.311512
0.347858
0.380768
0.374851
0.307335
0.596451
0.509938
0.431674
0.60279
0.380997
0.454497
0.347029
0.428526
0.408472
0.38109
0.549703
0.226741
0.158614
0.470288
0.253133
0.221329
0.556096
0.287825
0.220336
0.724255
0.606275
0.347289
0.622317
0.295976
0.595348
0.564385
0.328348
0.378516
0.686815
0.468361
0.638776
0.15198
0.340136
0.723457
0.394374
0.354062
0.1308
0.234389
0.199581
0.247616
0.403213
0.609111
0.313684
0.195408
0.328834
0.391518
0.841564
0.381806
0.639439
0.551399
0.301565
0.439798
0.350374
0.277578
0.580654
0.408136
0.77497
0.614911
0.351595
0.414801
0.53127
0.828583
0.629603
0.746147
0.64831
0.410278
0.52508
0.448531
0.321037
0.232528
0.378163
0.410807
0.600504
0.350689
0.258603
0.372854
0.438254
0.370633
0.399902
0.704534
0.42096
0.383761
0.763818
0.702615
0.34368
0.527769
0.738732
0.35601
0.279476
0.417377
0.318696
0.280942
0.729075
0.330746
0.449322
0.742801
0.215612
0.52181
0.355544
0.520969
0.418268
0.370777
0.112504
0.450857
0.255499
0.387902
0.425771
0.426936
0.627072
0.77174
0.369646
0.522897
0.432826
0.35303
0.180897
0.690096
0.577348
0.395508
0.257015
0.547755
0.259961
0.382358
0.364721
0.334607
0.649377
0.759275
0.403967
0.628308
0.811118
0.703319
0.694525
0.750922
0.422578
0.393357
0.283247
0.828502
0.680525
0.72164
0.361177
0.416392
0.192645
0.643285
0.430811
0.378367
0.72327
0.594791
0.329993
0.446091
0.350558
0.371915
0.356991
0.415787
0.430443
0.31622
0.408863
0.240403
0.441215
0.314969
0.591324
0.498913
0.208062
0.744331
0.764814
0.643734
0.382307
0.529374
0.284922
0.661971
0.515655
0.268403
0.737896
0.22211
0.776769
0.235722
0.444042
0.471861
0.644335
0.664978
0.373702
0.799857
0.387884
0.699631
0.440372
0.59127
0.396143
0.365711
0.375016
0.702698
0.471698
0.823123
0.622608
0.233194
0.383707
0.589324
0.239503
0.3866
0.444299
0.309685
0.781736
0.340411
0.321006
0.670459
0.368938
0.775153
0.813271
0.425375
0.823308
0.786945
0.712918
0.728607
0.540788
0.275063
0.34403
0.424137
0.689926
0.434125
0.224573
0.798725
0.311996
0.452402
0.336287
0.750496
0.83561
0.311125
0.704208
0.5568
0.770116
0.450462
0.650852
0.438853
0.799569
0.819118
0.600565
0.343193
0.667585
0.408181
0.518623
0.504396
0.455811
0.560385
0.397479
0.224789
0.288564
0.4692
0.574194
0.522277
0.721426
0.325425
0.432296
0.582312
0.289998
0.759293
0.363382
0.439056
0.741628
0.715562
0.539648
0.806941
0.359769
0.408222
0.651584
0.506049
0.490849
0.444522
0.379511
0.590894
0.617528
0.380924
0.360547
0.535718
0.229364
0.313283
0.776238
0.805439
0.820178
0.469986
0.815328
0.832297
0.788201
0.172397
0.550699
0.553916
0.804213
0.394881
0.370523
0.26159
0.342921
0.199326
0.796787
0.467458
0.483432
0.656806
0.605984
0.395491
0.436783
0.832474
0.792402
0.746448
0.605123
0.389734
0.631796
0.581617
0.397269
0.479056
0.279302
0.333595
0.509377
0.471166
0.397488
0.77136
0.77543
0.182732
0.715933
0.365493
0.372319
0.426143
0.764493
0.435588
0.614016
0.454245
0.74782
0.411603
0.45217
0.813762
0.184748
0.22976
0.35651
0.321971
0.155939
0.0502786
0.330322
0.153068
0.479569
0.178366
0.285664
0.473998
0.372768
0.336441
0.406282
0.262657
0.0866239
0.785421
0.69279
0.415595
0.264663
0.695366
0.3982
0.370694
0.816534
0.336008
0.812856
0.444218
0.726392
0.464274
0.290316
0.281689
0.521476
0.522176
0.481987
0.295072
0.413785
0.290215
0.320745
0.389862
0.20927
0.270469
0.792227
0.361016
0.630683
0.664219
0.397744
0.664031
0.669102
0.264501
0.0602366
0.443766
0.231593
0.163504
0.626877
0.644843
0.419792
0.578712
0.402712
0.813944
0.784172
0.451945
0.389314
0.802119
0.730093
0.562824
0.565739
0.407875
0.817364
0.51447
0.179957
0.753008
0.685519
0.774134
0.520011
0.343607
0.422891
0.648495
0.587341
-0.0114832
0.849047
0.441842
0.355224
0.512763
0.710698
0.804036
0.821007
0.582709
0.485888
0.680279
0.736003
0.7378
0.622648
0.689005
0.302464
0.374347
0.542678
0.285246
0.29367
0.212661
0.437605
0.67249
0.234328
0.509548
0.385109
0.685898
0.821673
0.469771
0.270472
0.202787
0.64153
0.377357
0.34038
0.196404
0.751748
0.541412
0.558082
0.256925
0.550382
0.333782
0.361746
0.639796
0.669402
0.7525
0.834728
0.332163
0.73778
0.181798
0.75415
0.762161
0.772116
0.670134
0.312074
0.311919
0.428741
0.182045
0.505971
0.207976
0.560691
0.263453
0.723748
0.401564
0.194958
0.718025
0.646104
0.459913
0.459699
0.620899
0.756234
0.531768
0.489034
0.187844
0.694157
0.520886
0.783595
0.157719
0.473588
0.755492
0.638322
0.807398
0.633248
0.414873
0.143147
0.193059
0.465657
0.215553
0.79212
0.199178
0.391219
0.45637
0.327509
0.671846
0.159623
0.739802
0.649878
0.562281
0.223724
0.594964
0.349584
0.423554
0.474804
0.456683
0.409368
0.401659
0.674906
0.324846
0.810957
0.398272
0.483237
0.605951
0.641356
0.791454
0.411045
0.454425
0.341288
0.482036
0.383557
0.781569
0.342488
0.494812
0.405152
0.694164
0.363568
0.521166
0.264855
0.82269
0.176836
0.313553
0.406855
0.705502
0.201477
0.198302
0.298976
0.254506
0.771464
0.488921
0.613351
0.72818
0.587731
0.503665
0.824681
0.503003
0.646643
0.587303
0.523622
0.214576
0.535515
0.474657
0.397509
0.540468
0.330588
0.231485
0.523682
0.430857
0.308717
0.676976
0.486688
0.609617
0.469584
0.774256
0.455756
0.46451
0.591694
0.25641
0.336552
0.407112
0.522401
0.53785
0.588657
0.760876
0.633967
0.691121
0.515086
0.740609
0.796418
0.791028
0.527879
0.507918
0.554614
0.280393
0.805186
0.730721
0.702275
0.493407
0.321211
0.223404
0.556151
0.63132
0.359479
0.696676
0.730676
0.573868
0.37385
0.524588
0.394634
0.369229
0.497714
0.388448
0.556989
0.196219
0.556736
0.478242
0.452433
0.163283
0.536099
0.491263
0.620112
0.406393
0.544795
0.765223
0.778727
0.56726
0.447638
0.690927
0.516558
0.341419
0.328804
0.434433
0.243557
0.757008
0.476161
0.530759
0.652928
0.627066
0.586932
0.324534
0.814612
0.594552
0.340685
0.48245
0.503747
0.690531
0.764529
0.598579
0.565209
0.20904
0.310577
0.461806
0.565867
0.491642
0.571306
0.361912
0.774094
0.564917
0.657708
0.741341
0.537174
0.353881
0.519433
0.80571
0.389474
0.198297
0.515436
0.808755
0.388609
0.439741
0.681238
0.624749
0.710419
0.480693
0.211801
0.570601
0.262927
0.396902
0.710183
0.478317
0.287173
0.361665
0.383424
0.590087
0.411406
0.385059
0.741565
0.346579
0.825366
0.709963
0.264235
0.144471
0.484127
0.636563
0.733095
0.487176
0.460197
0.360895
0.426474
0.462108
0.832425
0.757165
0.635028
0.421473
0.229163
0.746976
0.820429
0.773939
0.691963
0.752167
0.511095
0.264209
0.178348
0.201427
0.786018
0.499302
0.351677
0.437809
0.817345
0.409537
0.376479
0.242939
0.48543
0.321102
0.795422
0.57758
0.652135
0.754026
0.713511
0.443997
0.608114
0.50713
0.62735
0.382765
0.573593
0.367343
0.784361
0.303902
0.38686
0.34603
0.42598
0.763041
0.408623
0.710675
0.725695
0.757312
0.294326
0.499576
0.456284
0.363515
0.774236
0.515895
0.534843
0.571853
0.172061
0.445141
0.758417
0.607909
0.776863
0.188336
0.30672
0.415772
0.78841
0.382414
0.472059
0.308374
0.319754
0.427748
0.76357
0.457182
0.466654
0.251481
0.787523
0.811344
0.180989
0.752415
0.395731
0.299911
0.316262
0.505633
0.223036
0.586902
0.41644
0.389871
0.437372
0.719786
0.493043
0.705388
0.445403
0.301811
0.435903
0.187871
0.22092
0.478044
0.420429
0.546161
0.306224
0.45432
0.728994
0.572531
0.390676
0.28799
0.744313
0.498006
0.471133
0.826133
0.537746
0.384065
0.407262
0.333956
0.79725
0.395457
0.466814
0.58282
0.243222
0.751696
0.314043
0.738194
0.49547
0.663307
0.312678
0.679543
0.462116
0.263569
0.334854
0.496089
0.755575
0.141686
0.3607
0.412473
0.789996
0.808337
0.354626
0.377018
0.580531
0.772983
0.453792
0.769953
0.733367
0.70116
0.658009
0.549122
0.611599
0.593393
0.777661
0.47439
0.516761
0.352644
0.375439
0.472714
0.324282
0.8012
0.306644
0.763023
0.45827
0.791127
0.367962
0.805015
0.662579
0.708313
0.793128
0.765326
0.823353
0.436219
0.743713
0.497304
0.409369
0.35867
0.310276
0.776909
0.307787
0.581669
0.589297
0.452766
0.581435
0.356199
0.756989
0.524569
0.677611
0.168627
0.349841
0.414452
0.78896
0.363348
0.613925
0.37958
0.416122
0.281288
0.44403
0.402236
0.697214
0.784813
0.2376
0.57331
0.416953
0.37451
0.718263
0.359129
0.373175
0.79594
0.203909
0.537356
0.636415
0.771453
0.819854
0.389199
0.363782
0.245837
0.428216
0.366608
0.414128
0.665694
0.395703
0.264713
0.461843
0.499853
0.399375
0.371074
0.40921
0.504468
0.265472
0.685329
0.665537
0.406641
0.680056
0.28475
0.23809
0.365904
0.186334
0.805044
0.403185
0.402471
0.357473
0.721768
0.776488
0.538429
0.658803
0.382708
0.340064
0.511149
0.403478
0.357241
0.775312
0.553114
0.606707
0.805398
0.693327
0.493264
0.793332
0.236752
0.543796
0.538379
0.594836
0.440701
0.768733
0.397371
0.580939
0.477327
0.402771
0.321415
0.37233
0.662585
0.721294
0.750474
0.51078
0.526243
0.778425
0.686446
0.468991
0.541478
0.285839
0.433699
0.708846
0.231867
0.733864
0.401179
0.745008
0.810776
0.781885
0.39402
0.715204
0.736607
0.245027
0.773732
0.392712
0.787434
0.696128
0.415213
0.297097
0.556675
0.438543
0.430401
0.38227
0.678937
0.410766
0.79721
0.307629
0.38946
0.362241
0.307662
0.403746
0.720018
0.811859
0.302594
0.669037
0.505146
0.58596
0.459241
0.575133
0.76869
0.70325
0.407764
0.758633
0.717836
0.813062
0.301548
0.38923
0.370752
0.664108
0.8014
0.727957
0.468338
0.808831
0.486895
0.248704
0.295799
0.13987
0.479026
0.279553
0.809618
0.828613
0.532846
0.816011
0.709607
0.539708
0.802509
0.287763
0.764962
0.433403
0.776014
0.418601
0.315411
0.66447
0.535544
0.78867
0.767681
0.772954
0.339628
0.343409
0.224617
0.731818
0.701328
0.344692
0.509937
0.702507
0.180742
0.37664
0.332441
0.426508
0.571789
0.418296
0.539327
0.639172
0.513822
0.526429
0.673126
0.410678
0.442416
0.58083
0.516668
0.413754
0.746269
0.78085
0.347741
0.695317
0.166468
0.370778
0.748663
0.67773
0.404238
0.781895
0.287076
0.666987
0.44531
0.448969
0.755426
0.421331
0.67858
0.66906
0.61913
0.83348
0.631609
0.249258
0.605469
0.479504
0.682087
0.829052
0.622907
0.490913
0.358502
0.451121
0.757911
0.278056
0.70896
0.347897
0.563364
0.686361
0.668091
0.506499
0.753626
0.810099
0.433065
0.412576
0.525325
0.329885
0.269798
0.545053
0.672746
0.329967
0.252488
0.369859
0.25814
0.660775
0.486746
0.688813
0.379733
0.778122
0.504684
0.720917
0.800159
0.350318
0.767028
0.426985
0.53157
0.51598
0.737629
0.376397
0.448839
0.523523
0.325111
0.42197
0.304413
0.283619
0.168239
0.805238
0.813457
0.327175
0.389625
0.679543
0.232606
0.367155
0.413858
0.645134
0.667756
0.20873
0.168156
0.765848
0.382815
0.575161
0.374975
0.239602
0.299234
0.542508
0.72962
0.584027
0.231682
0.781015
0.725616
0.339075
0.569035
0.401488
0.802302
0.42099
0.46287
0.265389
0.622658
0.776529
0.588005
0.540896
0.366012
0.48283
0.57529
0.806117
0.817223
0.370649
0.813607
0.374693
0.552748
0.546907
0.467266
0.399859
0.742112
0.445027
0.538502
0.360396
0.360935
0.452423
0.315921
0.624089
0.778062
0.342606
0.383331
0.539162
0.408025
0.369809
0.187852
0.410382
0.72514
0.229064
0.393503
0.652757
0.542552
0.470661
0.623017
0.713672
0.355462
0.351896
0.71963
0.457751
0.340553
0.500685
0.734682
0.607787
0.56151
0.379889
0.349025
0.365178
0.805753
0.724008
0.817417
0.46544
0.636419
0.283377
0.496669
0.730983
0.241068
0.246379
0.667673
0.728211
0.224079
0.395902
0.372579
0.338493
0.36846
0.815919
0.457209
0.392867
0.538041
0.356968
0.65373
0.554644
0.270087
0.402141
0.677037
0.47755
0.809859
0.265996
0.375062
0.607036
0.590854
0.479806
0.56965
0.323678
0.816987
0.744325
0.610553
0.742802
0.347676
0.732711
0.616057
0.601053
0.791991
0.234028
0.397929
0.82185
0.620431
0.220943
0.40073
0.706115
0.818803
0.49863
0.676052
0.376933
0.259049
0.342755
0.221725
0.731493
0.368496
0.521201
0.792988
0.341187
0.355002
0.377267
0.528472
0.38995
0.39682
0.35843
0.292045
0.484911
0.701742
0.791242
0.644871
0.426519
0.392837
0.203035
0.382951
0.601619
0.580224
0.623269
0.659605
0.394223
0.494888
0.702741
0.73487
0.821358
0.756735
0.796504
0.483917
0.281016
0.34268
0.299934
0.807295
0.527511
0.378741
0.790463
0.284618
0.700484
0.647034
0.402818
0.376006
0.396818
0.359881
0.732618
0.445993
0.646782
0.488142
0.787555
0.558699
0.837613
0.32953
0.495361
0.384107
0.158775
0.413707
0.665576
0.33162
0.155679
0.561509
0.767221
0.683679
0.36133
0.274819
0.348294
0.286088
0.377981
0.281186
0.465182
0.308724
0.670242
0.321175
0.383876
0.739363
0.49657
0.602427
0.719836
0.466158
0.522188
0.340809
0.682721
0.446818
0.404126
0.467736
0.307298
0.257797
0.381342
0.384643
0.672805
0.816253
0.741618
0.554862
0.645221
0.229854
0.812072
0.560999
0.662623
0.38743
0.65953
0.401803
0.418741
0.709967
0.779903
0.673408
0.568109
0.41388
0.828333
0.429265
0.704754
0.800989
0.632709
0.444358
0.225259
0.702775
0.554906
0.3007
0.619774
0.546283
0.784045
0.365543
0.793038
0.822824
0.454786
0.329672
0.799736
0.277062
0.311313
0.422012
0.314259
0.403869
0.310421
0.270435
0.48535
0.387508
0.342821
0.391135
0.573152
0.368937
0.352688
0.613982
0.518054
0.231967
0.780395
0.803355
0.799254
0.372783
0.228944
0.842723
0.265421
0.468424
0.369936
0.411821
0.387596
0.664434
0.394701
0.403585
0.252871
0.238522
0.300282
0.394631
0.209577
0.502631
0.546008
0.492749
0.788956
0.519981
0.619607
0.453442
0.722114
0.421696
0.40908
0.814463
0.431446
0.545613
0.277018
0.628053
0.811343
0.453992
0.588218
0.548737
0.400294
0.372358
0.338481
0.314055
0.67563
0.318557
0.454994
0.401526
0.45831
0.34606
0.339576
0.47489
0.437712
0.376753
0.798106
0.477502
0.446866
0.564603
0.783618
0.408299
0.242852
0.691062
0.279159
0.43142
0.372948
0.492338
0.395199
0.442713
0.494851
0.814576
0.739602
0.255901
0.375062
0.23231
0.362752
0.220622
0.318409
0.415987
0.329041
0.428031
0.594565
0.819774
0.406561
0.651433
0.512683
0.805983
0.395856
0.815402
0.594743
0.277422
0.587767
0.655499
0.409602
0.727875
0.371909
0.750225
0.367915
0.194231
0.479407
0.820693
0.799728
0.675576
0.596894
0.639271
0.238902
0.381373
0.640718
0.837167
0.20614
0.494316
0.376056
0.416998
0.453053
0.355884
0.295288
0.375513
0.308113
0.395223
0.431738
0.460251
0.832006
0.724457
0.214432
0.690275
0.335915
0.327844
0.705592
0.361832
0.429879
0.630392
0.248008
0.356053
0.492135
0.743667
0.295845
0.359283
0.419807
0.594206
0.300713
0.785375
0.227546
0.403467
0.426915
0.358877
0.60159
0.595652
0.786756
0.371449
0.6697
0.557652
0.5847
0.365415
0.603122
0.316809
0.28982
0.189768
0.562742
0.484024
0.425968
0.753567
0.492853
0.544707
0.597633
0.341701
0.32024
0.401142
0.57379
0.373824
0.818102
0.273015
0.229016
0.432403
0.403702
0.378128
0.37266
0.653189
0.418593
0.493792
0.288477
0.374001
0.497448
0.323156
0.816588
0.788233
0.299136
0.345479
0.717757
0.521369
0.353077
0.276168
0.361401
0.290829
0.550806
0.771061
0.351994
0.234012
0.593485
0.477651
0.229292
0.296077
0.481794
0.643708
0.812349
0.282246
0.245272
0.57217
0.727738
0.444466
0.549327
0.424435
0.372521
0.407853
0.596206
0.481538
0.374523
0.700479
0.423305
0.201651
0.536896
0.379728
0.706732
0.833628
0.377747
0.399267
0.409775
0.395776
0.285408
0.408314
0.288868
0.79408
0.71571
0.646012
0.422643
0.247424
0.693618
0.812823
0.348697
0.530361
0.396824
0.164303
0.51535
0.406481
0.176158
0.385033
0.595739
0.273314
0.233923
0.308993
0.68789
0.257727
0.705268
0.481584
0.372701
0.433857
0.338582
0.707358
0.20061
0.40512
0.449395
0.285127
0.542022
0.643447
0.561945
0.490629
0.683003
0.296222
0.297849
0.766402
0.370231
0.760956
0.57702
0.450232
0.552931
0.744805
0.476308
0.231014
0.782575
0.367046
0.454948
0.737944
0.355045
0.794432
0.356062
0.426983
0.244653
0.417888
0.311668
0.484936
0.311282
0.200188
0.293429
0.304372
0.169499
0.771451
0.302762
0.423441
0.55175
0.488576
0.816042
0.817413
0.388537
0.49764
0.710058
0.377944
0.773121
0.179844
0.429766
0.519643
0.349587
0.720054
0.39708
0.401803
0.393284
0.342595
0.367768
0.209416
0.746667
0.108494
0.777281
0.652458
0.315885
0.239414
0.301388
0.816118
0.649929
0.607593
0.463515
0.541661
0.448801
0.743212
0.682958
0.341926
0.583241
0.789685
0.464656
0.526101
0.597035
0.212837
0.294894
0.69233
0.412705
0.462433
0.796041
0.296896
0.185515
0.355797
0.466313
0.472437
0.797961
0.35746
0.254808
0.350031
0.459776
0.365609
0.76215
0.490649
0.301277
0.403187
0.345327
0.351045
0.421533
0.587122
0.519053
0.33269
0.752529
0.416467
0.698496
0.334149
0.293509
0.429557
0.744164
0.805577
0.699612
0.508833
0.484039
0.695471
0.791989
0.270304
0.777161
0.297544
0.622997
0.601384
0.755415
0.506064
0.745073
0.778551
0.37986
0.374375
0.425565
0.503406
0.293596
0.355597
0.300598
0.66712
0.725986
0.270623
0.78517
0.50267
0.685313
0.468076
0.326931
0.712778
0.68996
0.395668
0.407403
0.309509
0.823983
0.645249
0.841456
0.279121
0.29368
0.436574
0.727782
0.59919
0.728305
0.535022
0.793958
0.36247
0.448226
0.526844
0.380353
0.580973
0.274577
0.704132
0.482032
0.529829
0.778346
0.267616
0.275214
0.195994
0.568648
0.754242
0.394665
0.615777
0.284265
0.250273
0.469162
0.377547
0.35625
0.733978
0.512115
0.347924
0.439
0.5655
0.779231
0.573435
0.432228
0.747403
0.509579
0.799761
0.520097
0.649675
0.438305
0.264232
0.816099
0.328842
0.55146
0.56645
0.772416
0.633227
0.483673
0.38205
0.829847
0.428569
0.311759
0.676642
0.813727
0.659717
0.610048
0.260785
0.190233
0.540511
0.334966
0.41812
0.516636
0.332593
0.779132
0.81834
0.779414
0.371959
0.412432
0.359529
0.407135
0.616268
0.295609
0.638536
0.789965
0.26345
0.402077
0.352517
0.713053
0.618296
0.413179
0.340554
0.656126
0.368638
0.261967
0.295977
0.829566
0.196983
0.700391
0.59064
0.371968
0.7773
0.548897
0.806442
0.246246
0.401422
0.517326
0.784804
0.409411
0.771826
0.55259
0.197936
0.488787
0.369697
0.416891
0.191466
0.693055
0.40411
0.33323
0.239196
0.490553
0.739146
0.127008
0.378467
0.750546
0.454159
0.738688
0.17905
0.374564
0.368271
0.448838
0.383547
0.257315
0.368441
0.144971
0.426416
0.436327
0.686886
0.536775
0.75404
0.354039
0.409635
0.261363
0.516561
0.137865
0.411108
0.837276
0.47734
0.407094
0.823305
0.320039
0.536979
0.584425
0.234748
0.380349
0.470298
0.555219
0.791864
0.811234
0.815129
0.565391
0.453567
0.455206
0.302105
0.714989
0.621766
0.358001
0.421708
0.4002
0.463804
0.809722
0.443548
0.804377
0.402926
0.596654
0.304979
0.365126
0.244261
0.377684
0.765197
0.409889
0.26906
0.307037
0.823562
0.380196
0.327637
0.32609
0.366442