/*--------------------------------*- C++ -*----------------------------------*\
  =========                 |
  \\      /  F ield         | OpenFOAM: The Open Source CFD Toolbox
   \\    /   O peration     | Website:  https://openfoam.org
    \\  /    A nd           | Version:  6
     \\/     M anipulation  |
\*---------------------------------------------------------------------------*/
FoamFile
{
    version     2.0;
    format      ascii;
    class       volVectorField;
    location    "./ITHACAoutput/Offline/1";
    object      U_rec;
}
// * * * * * * * * * * * * * * * * * * * * * * * * * * * * * * * * * * * * * //

dimensions      [0 1 -1 0 0 0 0];

internalField   nonuniform List<vector> 
13046
(
(-0.264138 0.0510522 0)
(-0.733908 -0.367391 -2.15919e-21)
(-0.211211 -0.180679 -4.32599e-21)
(-0.297458 -0.0404814 0)
(-0.131455 -0.105604 -4.18318e-21)
(-0.618216 -0.356538 0)
(-0.326049 -0.019708 6.92612e-22)
(-0.697768 -0.407463 1.05155e-21)
(-0.0967859 -0.0876115 -4.49216e-21)
(-0.835687 0.335427 1.61607e-21)
(-1.42211 -0.73968 0)
(0.0555568 0.0092481 2.40317e-21)
(-0.367769 0.0844855 -2.23409e-21)
(-0.907309 -0.473246 -2.8059e-21)
(-0.105648 -0.122682 2.28718e-21)
(-0.766547 0.375662 -2.22772e-21)
(0.00204219 -0.0189286 5.67664e-21)
(-1.4789 -0.658277 -5.81318e-22)
(-0.142575 -0.0461767 0)
(-0.442445 -0.293264 -2.28797e-21)
(-0.413929 -0.158034 7.23958e-21)
(-0.77944 0.367104 -8.96702e-22)
(0.0172772 -0.0101463 -7.58929e-21)
(-1.47001 -0.677307 0)
(-0.241883 -0.019301 2.85422e-21)
(-0.592396 -0.310363 -5.49961e-21)
(-0.212197 -0.168618 0)
(-0.374001 0.114043 -3.99919e-21)
(-0.943676 -0.474287 8.51141e-22)
(-0.122967 -0.136678 -3.98256e-21)
(-0.263961 0.0735533 0)
(-0.764689 -0.357834 0)
(-0.235041 -0.201437 4.40221e-21)
(-0.231623 -0.0460396 -3.31638e-21)
(-0.238284 -0.176278 1.56433e-21)
(-0.513127 -0.268302 9.5735e-21)
(-0.252753 -0.0725061 -5.06427e-21)
(-0.228544 -0.155609 2.45075e-21)
(-0.475434 -0.258084 -4.85556e-21)
(-0.183898 0.0861926 3.37344e-21)
(-0.466968 -0.368828 7.60271e-22)
(-0.690778 -0.251052 -3.44737e-21)
(-0.310688 -0.145429 2.25887e-21)
(-0.250487 -0.138217 3.77669e-21)
(-0.349986 -0.201882 0)
(-0.331716 -0.140116 1.52606e-21)
(-0.20145 -0.107053 -5.83331e-21)
(-0.387834 -0.233322 -7.15049e-22)
(-0.284524 0.0437984 0)
(-0.75622 -0.392663 -1.49538e-22)
(-0.162271 -0.152802 -7.01142e-23)
(-0.725182 -0.564501 4.31539e-21)
(-0.145451 0.107378 0)
(-0.695047 -0.16269 -3.93698e-21)
(-0.81502 -0.626282 -6.14613e-21)
(-0.673128 -0.134404 -6.5082e-21)
(-0.118405 0.0942193 4.82184e-21)
(-1.33215 -0.494599 -3.17625e-22)
(-0.575165 0.330233 0)
(-0.214388 -0.202032 3.20727e-21)
(-0.545492 0.0931819 -2.15339e-21)
(-1.11172 -0.674529 1.30716e-21)
(0.0315536 -0.0179003 -9.38195e-21)
(0.0424033 -0.0181929 4.53055e-21)
(-1.40865 -0.735596 -8.1577e-23)
(-0.747423 0.277974 -3.03137e-21)
(-0.535246 0.320839 0)
(-1.27533 -0.446189 0)
(-0.277642 -0.259981 0)
(-0.498336 0.298879 -1.41647e-21)
(-1.22328 -0.427775 0)
(-0.299992 -0.27846 2.54072e-21)
(-1.38033 -0.505383 0)
(-0.611388 0.350839 2.01064e-23)
(-0.193236 -0.189134 -5.5283e-23)
(-0.136641 -0.0254019 0)
(-0.441882 -0.306813 2.45959e-21)
(-0.459661 -0.185452 -5.07278e-21)
(-0.117037 -0.121343 3.4661e-21)
(-0.663113 0.363558 -4.24516e-21)
(-1.43044 -0.559632 0)
(-0.263664 -0.0120003 1.52267e-21)
(-0.631366 -0.33773 0)
(-0.173591 -0.140268 0)
(0.0447558 -0.0117907 -4.00085e-21)
(-1.42905 -0.738828 1.74271e-22)
(-0.775815 0.298156 1.78274e-21)
(-0.781068 0.202444 -3.20784e-21)
(0.0734235 -0.0017181 0)
(-1.36432 -0.827963 -1.40482e-22)
(0.0488783 0.00789772 0)
(-0.853695 0.137281 0)
(-1.3341 -0.925602 -6.59579e-24)
(-0.556688 0.198556 0)
(-0.598741 0.208414 1.83632e-21)
(-1.21732 -0.620466 2.13821e-21)
(-1.26078 -0.658899 -9.7264e-22)
(-0.0301893 -0.0765723 -1.91956e-21)
(-0.00111255 -0.055075 4.94784e-21)
(0.0719512 0.000646526 -2.35554e-22)
(-0.774833 0.177977 3.14119e-21)
(-1.34202 -0.844904 0)
(-0.325396 -0.116552 -9.79736e-24)
(-0.172625 -0.100362 2.99182e-21)
(-0.449791 -0.273345 0)
(-0.0564364 0.0491602 0)
(-0.560104 -0.0915014 -2.0951e-21)
(-0.789093 -0.56403 0)
(-0.135863 0.0879816 5.67829e-21)
(-0.641935 -0.488014 0)
(-0.652742 -0.183481 -7.96597e-21)
(-0.815941 0.351094 0)
(0.0464373 0.0203119 0)
(-1.26796 -0.681625 2.40334e-21)
(-0.330033 0.0620832 6.1646e-21)
(-0.844905 -0.437687 1.33924e-21)
(-0.11901 -0.124858 4.1579e-21)
(-0.60888 0.260458 2.32638e-21)
(-0.564011 0.228952 -4.39513e-21)
(-1.30845 -0.617475 -1.72773e-21)
(-0.0513583 -0.0856432 2.17118e-21)
(-1.24611 -0.598582 8.15473e-22)
(-0.0576447 -0.0930633 -2.0281e-21)
(-0.832757 0.349126 -1.1055e-21)
(-1.40747 -0.723277 1.9702e-21)
(0.0520985 0.013552 -1.06616e-21)
(-0.46928 0.16301 0)
(-1.09502 -0.552405 -1.7988e-21)
(-0.077904 -0.113314 4.71836e-21)
(-0.217127 0.0985108 0)
(-0.407448 -0.330218 -3.88006e-21)
(-0.741264 -0.288046 1.95085e-22)
(0.0432558 0.0125561 0)
(-0.815394 0.116493 0)
(-1.31541 -0.912058 0)
(-0.676992 0.216086 0)
(-1.32493 -0.730179 -1.74653e-21)
(0.0428194 -0.0255184 -5.25197e-21)
(-0.298872 0.0942785 0)
(-0.831221 -0.393016 0)
(-0.216746 -0.200292 0)
(-0.430838 -0.00037861 0)
(-0.861964 -0.538981 0)
(-0.0181417 -0.0281239 0)
(-0.119959 0.0862383 0)
(-0.705081 -0.531431 0)
(-0.644195 -0.158546 4.35641e-21)
(-0.0582748 0.0380061 -5.66693e-22)
(-0.538828 -0.0988412 -4.6855e-21)
(-0.768422 -0.539352 4.23226e-21)
(-0.574304 0.11515 4.88856e-21)
(-1.15832 -0.694087 0)
(0.0380397 -0.023555 1.21577e-20)
(-0.0564273 -0.0088225 0)
(-0.443498 -0.0848782 4.97303e-21)
(-0.690799 -0.460654 -1.08917e-21)
(-0.965887 -0.70969 0)
(-0.631645 -0.0554561 4.75845e-21)
(-1.03813 -0.744211 0)
(-0.627759 -0.0172709 2.75592e-21)
(-0.0503845 0.0624807 0)
(-0.0198679 0.0467668 0)
(-0.482295 -0.0373804 6.58649e-22)
(-0.848261 -0.568112 2.0667e-21)
(-0.0158276 0.0027151 -2.44799e-21)
(-0.852497 0.31819 -1.65319e-21)
(0.0630122 0.00769386 0)
(-1.40256 -0.76463 1.42177e-21)
(-0.825078 0.353977 -8.6164e-22)
(0.0487455 0.0204704 -4.86037e-22)
(-1.33156 -0.69647 0)
(-0.693089 0.237636 -2.64528e-21)
(-1.34918 -0.727332 0)
(0.0390234 -0.0269678 5.96391e-21)
(-0.286461 0.159544 0)
(-0.877605 -0.31631 9.54485e-22)
(-0.43238 -0.364955 2.1764e-21)
(-0.485132 -0.0571684 4.24133e-21)
(-0.0305392 0.0130253 1.205e-21)
(-0.796405 -0.533105 0)
(0.0728294 0.00308547 0)
(-1.39876 -0.816368 0)
(-0.862365 0.275343 1.34006e-21)
(-0.24851 0.1375 0)
(-0.81521 -0.290255 -2.19912e-21)
(-0.449578 -0.363532 5.71508e-22)
(-0.0475613 0.00534673 0)
(-0.464081 -0.0831228 0)
(-0.706405 -0.479872 0)
(-0.405204 -0.0202424 2.09972e-21)
(-0.805863 -0.505949 0)
(-0.0310792 -0.0354703 0)
(-0.98242 -0.532355 2.21281e-23)
(-0.0556486 -0.0900604 -2.85143e-21)
(-0.436763 0.139343 6.32058e-21)
(-1.04607 -0.530566 0)
(-0.0819269 -0.111996 -5.90995e-21)
(-0.800241 0.255268 -3.18996e-21)
(0.0688522 -0.00359665 3.67318e-21)
(-1.40573 -0.797024 3.97865e-22)
(0.0581884 0.00913017 3.42332e-21)
(-0.775023 0.132212 1.99325e-21)
(-1.31279 -0.87697 1.04193e-21)
(-0.838954 0.178484 -5.06531e-21)
(-1.36034 -0.880101 0)
(0.0695449 0.00253071 -3.34978e-21)
(-0.764825 -0.61591 -2.1525e-22)
(-0.787281 -0.175713 1.73428e-21)
(-0.19673 0.14921 0)
(-0.36806 0.0289077 -9.45519e-21)
(-0.651352 0.374426 2.1858e-21)
(-0.143764 -0.140756 -2.13376e-21)
(-1.43206 -0.54681 0)
(-1.36903 -0.877339 0)
(-0.86292 0.204202 -4.35873e-21)
(0.0730129 0.000517901 0)
(-0.288013 -0.0821313 -7.52438e-21)
(-0.178756 -0.119982 -2.4074e-21)
(-0.49714 -0.287446 7.05396e-21)
(-0.352123 0.122446 0)
(-0.924427 -0.447956 -1.26895e-22)
(-0.167955 -0.164649 -2.25434e-21)
(0.0483693 0.0130482 2.65827e-21)
(-0.784554 0.117 0)
(-1.30272 -0.893852 -1.20101e-21)
(-0.397395 0.0511279 7.56886e-21)
(-0.959389 -0.536469 4.94633e-21)
(-0.0432785 -0.0783223 0)
(0.0613018 0.0111328 0)
(-1.33999 -0.751604 -2.32021e-21)
(-0.866638 0.325206 0)
(-0.163723 0.129049 0)
(-0.746763 -0.14919 0)
(-0.819962 -0.658596 0)
(-0.800864 0.163604 4.44324e-21)
(-1.34592 -0.864808 0)
(0.0690628 0.0033671 -3.34046e-23)
(-0.549407 -0.0254131 1.81986e-21)
(-0.944064 -0.655272 -1.44344e-21)
(-0.00827663 0.0265489 0)
(-0.467834 0.181991 0)
(-1.10627 -0.53698 1.69676e-21)
(-0.104802 -0.128913 3.7104e-21)
(-1.21998 -0.894313 -2.98955e-21)
(-0.752239 0.0382926 -3.58514e-21)
(-0.00416862 0.0408921 2.08936e-21)
(-0.663642 -0.0063536 0)
(-1.09355 -0.790862 -1.59351e-21)
(-0.020568 0.0490514 -7.79627e-23)
(0.0608696 0.00830901 -3.18181e-21)
(-1.31029 -0.756144 0)
(-0.878003 0.314547 -7.00414e-22)
(-0.193954 0.120434 3.05929e-21)
(-0.575497 -0.452749 -2.69965e-21)
(-0.742148 -0.232817 3.21324e-22)
(-0.748069 0.380361 7.40564e-22)
(0.0344074 0.031088 -4.52634e-21)
(-1.26716 -0.599777 0)
(-0.130569 -0.062556 -1.43667e-21)
(-0.372811 -0.127076 -5.86272e-21)
(-0.4873 -0.312298 6.86105e-21)
(-0.518482 0.0201635 2.24235e-21)
(-0.520382 -0.0164194 3.84906e-23)
(-0.993032 -0.647634 -3.60357e-21)
(-0.929113 -0.630275 0)
(-0.0023272 0.0132317 2.22529e-21)
(0.0162151 -0.000185023 -2.268e-21)
(-0.0863592 -0.0930523 -4.53676e-21)
(-0.690935 0.373246 2.27135e-21)
(-1.46291 -0.576616 5.46749e-22)
(-0.430639 0.177041 0)
(-1.06083 -0.495869 0)
(-0.152005 -0.159011 -4.85807e-21)
(-0.685153 0.0240424 -9.63503e-22)
(-1.14959 -0.828954 0)
(-0.00141095 0.0397494 0)
(-0.645955 0.242897 -2.25092e-21)
(-1.32199 -0.670841 0)
(0.00203465 -0.0515062 2.12058e-21)
(-0.272109 -0.123859 1.50684e-21)
(-0.360854 -0.191135 2.18365e-21)
(-0.278181 -0.16277 -7.59597e-22)
(-0.592088 0.00120233 -3.50271e-21)
(-1.03485 -0.719559 0)
(0.00203521 0.0308285 -3.70324e-21)
(-0.441173 0.195927 0)
(-1.08733 -0.4895 2.14027e-21)
(-0.170099 -0.173977 -3.00517e-21)
(-0.405618 0.0797593 0)
(-0.441792 0.0995372 7.51947e-22)
(-0.205936 0.132546 1.0926e-21)
(-0.594372 -0.473974 7.73738e-21)
(-0.765795 -0.228514 -7.59054e-21)
(-0.602774 0.0312272 -3.62778e-21)
(-1.08681 -0.74428 2.61895e-21)
(0.0220265 0.0201752 3.37959e-21)
(-0.677198 0.251377 0)
(0.0198854 -0.0380639 -7.57847e-21)
(-1.3548 -0.697839 -5.03031e-22)
(-0.134502 0.0744132 -7.88219e-21)
(-0.60196 -0.460814 0)
(-0.631858 -0.188067 2.62853e-21)
(-0.0712455 0.077203 -4.37184e-21)
(-0.663911 -0.0651307 -2.65415e-21)
(-0.969628 -0.733882 0)
(-0.551159 0.260068 -2.21501e-21)
(-1.2556 -0.545789 -1.49512e-21)
(-0.12676 -0.139023 1.32098e-21)
(-0.177484 0.12611 3.91746e-22)
(-0.687619 -0.541754 0)
(-0.739465 -0.188059 5.44282e-21)
(-0.588019 0.282673 0)
(-0.613507 0.28468 0)
(-1.30881 -0.568945 -7.18016e-22)
(-0.108892 -0.124189 -3.47337e-21)
(-1.33118 -0.601887 1.01529e-21)
(-0.074457 -0.0975126 3.6639e-21)
(0.0700326 0.0020401 -2.80372e-21)
(-1.40924 -0.800243 0)
(-0.842269 0.283758 -2.11476e-21)
(-0.52434 0.217298 2.61211e-21)
(-1.19572 -0.566968 0)
(-0.0896282 -0.11567 1.2476e-21)
(-1.09868 -0.602567 -8.86954e-21)
(0.0317094 0.0219904 3.98268e-21)
(-0.731253 0.344676 6.22078e-22)
(-0.434246 -0.117163 -2.78777e-21)
(-0.0814989 -0.0161183 0)
(-0.596056 -0.397198 0)
(-0.498996 0.0767651 5.12817e-21)
(-1.05175 -0.629223 0)
(0.0180022 -0.0294614 7.31213e-21)
(0.0621007 -0.00993386 -2.34958e-21)
(-0.761726 0.244825 6.60159e-21)
(-1.38849 -0.774946 2.26196e-22)
(-0.846827 -0.65571 0)
(-0.690364 -0.1244 2.3619e-21)
(-0.120425 0.103521 -5.46615e-21)
(-1.25027 -0.899232 -2.72506e-21)
(-0.761628 0.0669408 -2.15407e-21)
(0.0176768 0.027873 0)
(-0.866054 -0.489392 -5.54991e-21)
(-0.0610296 -0.0804028 0)
(-0.517187 0.129769 5.36496e-21)
(-1.10964 -0.620996 1.50149e-21)
(-0.000870003 -0.0573699 2.19963e-21)
(-0.853716 -0.50546 3.14464e-21)
(-0.0426662 -0.064456 -2.05953e-23)
(-0.748954 0.361389 -1.48737e-22)
(-0.010205 -0.0328662 2.70222e-21)
(-1.47152 -0.65003 8.54145e-22)
(-0.744992 -0.624268 0)
(-0.841812 -0.196872 5.1612e-22)
(-0.232634 0.171446 0)
(-0.553014 0.150445 -5.46298e-21)
(-1.1739 -0.649865 -1.82839e-21)
(0.0137295 -0.0467867 -2.60968e-21)
(-0.455804 -0.0079765 0)
(-0.868732 -0.563371 -3.00048e-21)
(-0.0102729 -0.0135031 0)
(-0.601033 -0.12041 0)
(-0.76044 -0.568402 0)
(-0.086519 0.0666588 0)
(-0.28187 0.0159902 -2.10818e-21)
(-0.703714 -0.378153 -3.26061e-21)
(-0.154888 -0.139363 -9.25664e-24)
(-0.0978705 0.0936862 5.41752e-21)
(-0.684834 -0.0924866 6.43753e-21)
(-0.923365 -0.707458 2.69066e-21)
(-0.817076 0.228467 -2.56571e-21)
(-1.38628 -0.824042 -4.18892e-22)
(0.075021 -0.000916369 -3.48857e-21)
(-1.26034 -0.880387 1.9644e-21)
(-0.746831 0.081817 2.18253e-21)
(0.0331643 0.0216371 2.71303e-21)
(-0.424453 0.262832 -4.30284e-21)
(-0.39534 -0.349585 3.76184e-21)
(-1.121 -0.370924 -2.50117e-21)
(-0.63945 0.331676 1.24864e-21)
(-0.607901 0.312026 -1.16394e-21)
(-1.34838 -0.5532 -2.27717e-22)
(-1.38892 -0.568091 0)
(-0.111617 -0.119239 -1.22858e-21)
(-0.13108 -0.138354 -1.12157e-21)
(0.0348981 0.0256296 -5.39498e-21)
(-1.15194 -0.602266 9.77273e-21)
(-0.742309 0.350823 5.88298e-22)
(-0.758808 0.384711 -5.93584e-23)
(0.0343866 0.030185 6.26338e-21)
(-1.31481 -0.609075 0)
(-0.551029 0.041157 -8.1992e-21)
(-1.05979 -0.683405 -7.14981e-22)
(0.0246585 0.00189817 0)
(0.0672284 -0.00152345 -7.06449e-21)
(-0.815044 0.27342 2.10305e-21)
(-1.41743 -0.789753 0)
(-0.498002 0.272605 6.40968e-21)
(-0.531688 0.283396 -4.7529e-21)
(-1.20586 -0.46763 1.80264e-21)
(-1.24884 -0.496013 6.20992e-22)
(-0.244558 -0.228459 -2.22799e-21)
(-0.199851 -0.192205 -1.11633e-21)
(0.0686041 -0.00387686 0)
(-1.34429 -0.880448 0)
(-0.913797 0.209882 6.9517e-22)
(-0.701814 0.378617 -8.69485e-22)
(0.0306848 0.034084 0)
(-1.21209 -0.559552 0)
(-0.421718 -0.190544 3.69681e-23)
(-0.181822 -0.0584786 3.24435e-21)
(-0.354329 -0.23995 1.53635e-21)
(-0.773775 0.360248 -1.17831e-21)
(-1.24169 -0.641363 -3.51514e-21)
(0.0399187 0.0257615 2.9536e-22)
(-0.332862 0.17373 0)
(-0.942201 -0.363941 -4.06945e-21)
(-0.350661 -0.304658 -7.17591e-23)
(-0.866706 0.260216 8.19992e-23)
(-1.39215 -0.832472 -2.00219e-21)
(0.075149 0.00173937 4.76378e-24)
(-0.96841 -0.596257 -2.5153e-22)
(0.0273098 0.00973822 -2.32596e-21)
(-0.720849 0.286405 6.4487e-23)
(-0.152458 0.0614827 -2.90929e-21)
(-0.481339 -0.365139 2.50075e-21)
(-0.624695 -0.22359 8.45672e-21)
(-0.363953 -0.0994923 0)
(-0.56482 -0.353993 -7.61809e-21)
(-0.107898 -0.059731 3.83466e-21)
(-0.816745 0.365845 0)
(0.0450709 0.0147891 3.17249e-21)
(-1.41525 -0.705641 -1.51952e-22)
(-0.38337 -0.088989 0)
(-0.602884 -0.381414 -2.51989e-21)
(-0.0849292 -0.0402268 -5.46116e-21)
(-0.38843 -0.180486 3.31484e-21)
(-0.20252 -0.0818456 -1.7138e-21)
(-0.341566 -0.220532 8.29564e-22)
(-0.155218 0.128345 2.61334e-21)
(-0.754519 -0.129419 -2.20289e-21)
(-0.894741 -0.721152 2.98809e-21)
(-0.468719 -0.165539 0)
(-0.48822 -0.332715 0)
(-0.115037 -0.00781623 4.68444e-22)
(-0.466712 -0.137402 4.41056e-21)
(-0.558614 -0.374644 1.93115e-21)
(-0.0965596 -0.00252635 6.56256e-23)
(-0.388999 0.24438 6.53979e-21)
(-1.06031 -0.341243 -2.9378e-21)
(-0.44907 -0.396563 -3.77037e-21)
(0.0408111 -3.34949e-05 4.79703e-21)
(0.0500449 0.00253379 -4.93196e-21)
(-1.45104 -0.723026 -9.91193e-22)
(-1.43975 -0.738514 -5.68968e-22)
(-0.804576 0.347171 0)
(-0.817308 0.335276 -1.65463e-21)
(-0.842485 0.235668 3.19456e-21)
(-1.39033 -0.835095 9.39138e-22)
(0.0760216 0.000175523 4.33225e-21)
(-0.379117 -0.34625 -2.44373e-21)
(-0.460604 0.290132 1.3635e-21)
(-1.17478 -0.384388 3.18701e-21)
(-0.210936 0.1197 -2.79281e-21)
(-0.509041 -0.405096 -2.48316e-21)
(-0.758478 -0.257045 2.56309e-21)
(-0.697935 -0.0298247 0)
(-1.08206 -0.813234 1.64958e-21)
(-0.0528031 0.0668814 8.05747e-23)
(-1.10486 -0.703502 -2.71913e-21)
(0.0461023 -0.00180105 -2.18264e-21)
(-0.85349 0.277778 -2.80381e-22)
(0.0591376 0.00361858 0)
(-0.863768 0.161012 0)
(-1.34356 -0.915866 -4.19808e-22)
(-0.843242 0.342794 1.15465e-21)
(0.0550366 0.0153752 0)
(-1.35778 -0.727439 2.27798e-21)
(0.0212704 0.0127451 -8.66885e-33)
(-0.89946 -0.550751 4.77266e-21)
(-0.661501 0.27812 -1.4123e-22)
(-0.928432 -0.490745 -5.38465e-21)
(0.0204041 0.0226042 8.64839e-33)
(-0.622064 0.320946 1.12264e-22)
(-1.18933 -0.759989 -3.19802e-21)
(-0.630693 0.0956359 0)
(0.0475498 0.00176618 -6.99753e-21)
(-1.2772 -0.826717 1.11009e-21)
(0.0638393 -0.00756911 -2.25236e-21)
(-0.934574 0.244713 0)
(-0.700373 0.208647 -3.39255e-21)
(-1.3304 -0.756873 1.01128e-21)
(0.0546444 -0.0173507 3.53627e-21)
(-0.764828 0.404836 4.24569e-21)
(0.000706065 -0.00427675 1.87323e-21)
(-1.48188 -0.616785 0)
(-0.339872 0.0355958 1.65928e-21)
(-0.088606 -0.0988239 -1.43954e-21)
(-0.829741 -0.457328 1.37977e-21)
(-1.35049 -0.896175 -3.25093e-22)
(0.0672653 -0.00229885 2.40759e-21)
(-0.901359 0.195004 9.09868e-22)
(-0.697072 -0.0502304 -2.59352e-21)
(-0.0717071 0.0788108 -1.45964e-21)
(-1.03828 -0.786329 0)
(-1.1692 -0.823645 0)
(-0.677352 0.0465186 0)
(0.018608 0.0294562 0)
(0.00564369 0.0115304 0)
(-0.516873 -0.280232 5.30722e-21)
(-0.373707 0.173875 -6.19356e-22)
(-1.09643 -0.632497 -3.73003e-21)
(0.0346442 0.0163072 -2.80045e-21)
(-0.760169 0.328144 -4.60293e-22)
(-0.316309 0.0123903 -4.27176e-21)
(-0.108189 -0.107105 3.54183e-21)
(-0.751932 -0.421374 1.66312e-21)
(-1.36136 -0.84791 -2.89457e-21)
(-0.899814 0.243489 -1.32687e-21)
(0.0730303 -0.0012327 0)
(0.065831 -0.00682284 -2.50231e-21)
(-0.933313 0.213779 0)
(-1.31754 -0.878087 2.06031e-21)
(-0.79957 0.296086 -1.91349e-21)
(0.0556835 -0.00410787 7.4777e-21)
(-1.43072 -0.759187 0)
(-0.0460538 -0.0632181 -5.46982e-21)
(-1.45213 -0.621054 5.4909e-23)
(-0.708111 0.353451 0)
(-0.37384 0.2485 -8.20666e-21)
(-1.04307 -0.319526 3.74269e-21)
(-0.513163 -0.450194 -1.18465e-21)
(-1.31527 -0.520934 3.37746e-22)
(-0.576139 0.312157 2.77785e-21)
(-0.181955 -0.178384 -3.42526e-21)
(-0.0440553 -0.0534397 -4.88541e-21)
(-0.729773 0.388673 0)
(-1.49222 -0.605768 0)
(-0.356919 0.163479 -1.42693e-21)
(-0.402413 0.187529 0)
(-0.964637 -0.411828 -4.16189e-21)
(-1.03998 -0.446589 4.45404e-21)
(-0.256831 -0.22856 6.33928e-22)
(-0.227486 -0.213599 -6.75318e-22)
(-0.325091 0.15804 1.37001e-21)
(-0.923349 -0.376212 0)
(-0.313163 -0.271275 1.17442e-21)
(-0.488727 0.282512 0)
(-1.20067 -0.447303 -2.93099e-21)
(-0.281553 -0.259754 8.05231e-22)
(-1.23048 -0.85348 -1.14552e-21)
(-0.71654 0.071923 2.37735e-21)
(0.0330281 0.021235 -5.51011e-21)
(-1.37663 -0.866659 0)
(-0.856768 0.222992 4.7908e-21)
(0.0751639 0.000320147 0)
(0.055601 0.00901011 -1.78281e-21)
(-0.732883 0.117474 -1.43935e-21)
(-1.28259 -0.849336 -6.67514e-22)
(-0.997696 -0.506597 7.84786e-22)
(0.0238684 0.0264488 1.48458e-21)
(-0.650857 0.338439 0)
(-0.205896 0.0697746 2.74725e-21)
(-0.217111 0.0583974 0)
(-0.354998 -0.280266 0)
(-0.694163 -0.290064 9.76039e-21)
(-0.312504 -0.24991 0)
(-0.69279 -0.310341 -6.27225e-21)
(-0.42116 0.24245 0)
(-0.373161 0.214976 0)
(-0.372433 -0.325687 3.60258e-23)
(-1.09671 -0.403815 2.32074e-21)
(-0.333187 -0.292699 5.88031e-21)
(-1.02402 -0.371261 -5.17522e-21)
(-0.956028 -0.621078 0)
(0.0309794 0.00253568 3.18797e-21)
(-0.758874 0.272512 0)
(-1.37065 -0.842967 1.22282e-21)
(-0.885078 0.241947 4.66322e-22)
(0.074649 0.000412556 1.51441e-21)
(-0.245158 0.154048 -4.68025e-21)
(-0.569843 -0.467121 -2.69232e-21)
(-0.825476 -0.255452 7.79107e-21)
(-1.17527 -0.863406 2.80718e-21)
(-0.722087 0.0180606 6.03427e-21)
(-0.0139957 0.0472353 0)
(-0.0660656 -0.0810981 5.84965e-21)
(-1.4377 -0.605635 -5.82749e-23)
(-0.689886 0.350393 2.94583e-21)
(-1.2276 -0.701424 0)
(-0.84003 0.328123 0)
(0.0486694 0.0134132 0)
(-1.25798 -0.736022 0)
(-0.866339 0.31422 8.79045e-22)
(0.0556414 0.00793873 5.38498e-22)
(-0.526261 0.264073 -2.71484e-21)
(-1.22972 -0.517367 9.13571e-22)
(-0.170563 -0.170985 1.6504e-21)
(-0.113148 0.0591968 -7.56862e-22)
(-0.612599 -0.45198 0)
(-0.590173 -0.166317 -3.8708e-23)
(-0.817409 0.312232 2.22953e-21)
(0.0558046 0.000273346 4.31911e-21)
(-1.43891 -0.755955 6.62266e-22)
(-1.21329 -0.79292 0)
(-0.662023 0.0996869 0)
(0.049887 0.00851641 6.04104e-21)
(0.0210268 -0.0324688 1.45087e-21)
(-1.39256 -0.705806 6.74335e-22)
(-0.712189 0.281333 6.75929e-21)
(-0.348022 0.206267 0)
(-0.421561 -0.364001 -4.00963e-21)
(-0.98526 -0.346455 2.77762e-21)
(-0.563331 -0.0560892 1.72176e-23)
(-0.886713 -0.62659 2.11628e-21)
(-0.0335545 0.0408178 0)
(-0.178217 0.0929054 1.85755e-23)
(-0.515814 -0.404802 -8.45796e-22)
(-0.693404 -0.237582 -3.35621e-21)
(0.0643507 0.00377681 1.01581e-23)
(-1.42028 -0.779407 -1.91284e-21)
(-0.840758 0.303906 2.22388e-21)
(-0.646243 0.268234 -1.27457e-21)
(-1.34372 -0.650749 -4.82883e-22)
(-0.0221432 -0.0638202 0)
(-0.162257 0.0516296 -2.97943e-21)
(-0.430238 -0.325451 5.49545e-21)
(-0.622189 -0.24058 -5.5787e-21)
(-0.743876 0.40121 1.76834e-21)
(-0.0302482 -0.0364673 2.13542e-21)
(-1.50138 -0.605797 1.1547e-21)
(-0.294787 0.112896 -1.76161e-21)
(-0.8464 -0.380106 0)
(-0.257037 -0.22844 0)
(-0.411662 -0.048723 -7.71518e-21)
(-0.732075 -0.468364 1.50285e-21)
(-0.0444448 -0.0254313 0)
(-1.15352 -0.786706 0)
(-0.644749 0.0492734 5.18333e-21)
(0.0284075 0.0228851 0)
(-0.769373 0.39512 -7.72821e-22)
(0.0275377 0.02266 -6.64419e-22)
(-1.40365 -0.624066 -3.44833e-21)
(-0.762218 0.403605 2.1616e-21)
(0.0189421 0.0177083 0)
(-1.43045 -0.61168 2.43837e-21)
(0.00662306 -0.0384342 1.28395e-21)
(-1.40867 -0.687063 -1.60289e-23)
(-0.712744 0.299098 -6.20531e-21)
(-0.60448 -0.0750906 -2.36735e-21)
(-0.910219 -0.664412 -2.19576e-21)
(-0.0553964 0.057101 0)
(0.0284235 0.0302795 6.08615e-22)
(-1.34583 -0.597378 3.21486e-21)
(-0.741965 0.39321 0)
(0.0631999 -0.0104073 0)
(-1.36093 -0.780445 -1.79965e-22)
(-0.740545 0.220253 -7.80757e-22)
(0.0151234 0.00835534 2.5567e-21)
(-0.757177 -0.49928 -4.81885e-21)
(-0.593015 0.231926 0)
(-0.524617 0.29827 -8.12972e-23)
(-0.816027 -0.403174 0)
(0.0151646 0.0232347 2.54403e-21)
(-0.0347984 -0.0491516 -1.25624e-23)
(-1.47696 -0.626506 0)
(-0.730294 0.372972 0)
(0.0656802 0.0080978 0)
(-1.38174 -0.776669 0)
(-0.868749 0.310528 2.59748e-21)
(-0.785582 0.340752 -2.02285e-21)
(-0.767462 0.324584 1.6367e-21)
(0.029512 -0.0103756 -2.41217e-21)
(-1.46222 -0.704675 2.55866e-22)
(0.028261 -0.0166564 -3.9649e-21)
(-1.44852 -0.709284 -1.81348e-22)
(-0.743687 0.200841 1.54827e-21)
(-1.34876 -0.799772 2.48847e-22)
(0.0681708 -0.00664681 0)
(-0.0472383 0.0656451 0)
(-1.12761 -0.855437 0)
(-0.726433 -0.0136911 0)
(-0.221422 0.0227683 0)
(-0.261072 -0.20772 -7.84049e-21)
(-0.641164 -0.310437 3.40233e-21)
(-0.719651 0.149 4.54912e-21)
(-1.29626 -0.818976 2.03171e-22)
(0.0658164 0.000352662 5.21949e-21)
(0.0591903 0.00532094 3.39956e-21)
(-0.708733 0.127137 -6.32528e-21)
(-1.26972 -0.824044 -2.81378e-22)
(-0.708662 0.393165 2.2053e-21)
(-0.0748901 -0.0794701 2.33046e-21)
(-1.48887 -0.578016 -5.71057e-22)
(-0.439581 0.258619 0)
(-1.13095 -0.406592 8.84126e-22)
(-0.336532 -0.300728 -5.76444e-21)
(-0.368969 0.196564 0)
(-0.998578 -0.385222 5.34171e-21)
(-0.333971 -0.295752 -1.64031e-23)
(-0.619666 0.13175 -6.20725e-21)
(-1.21507 -0.737251 3.83907e-22)
(0.050031 -0.014976 -3.05883e-21)
(-0.642342 0.126433 0)
(-1.2259 -0.759304 3.76621e-22)
(0.0546341 -0.00714313 2.7916e-21)
(-0.148445 0.0287297 0)
(-0.430062 -0.316006 -8.65511e-21)
(-0.566521 -0.22184 3.13227e-21)
(-0.418124 0.203819 0)
(-1.06469 -0.445472 0)
(-0.237673 -0.226188 9.0643e-22)
(0.0606533 -0.00144824 -5.21514e-21)
(-1.33639 -0.912427 1.50019e-21)
(-0.902991 0.176146 0)
(-0.886785 0.295416 8.1501e-22)
(0.0561246 0.00197374 0)
(-1.21862 -0.749053 -1.82481e-21)
(-0.884987 0.278842 -1.81151e-22)
(0.0523659 -0.00230359 0)
(-1.17225 -0.739532 5.49616e-21)
(-0.251045 0.124165 2.02341e-21)
(-0.398516 -0.323444 -8.91864e-22)
(-0.806283 -0.31281 -1.54764e-22)
(-1.14555 -0.668479 2.56415e-22)
(0.0425874 0.0112304 4.29325e-21)
(-0.818226 0.318129 0)
(-0.681599 0.295578 5.40366e-21)
(-0.017143 -0.0549358 2.7341e-21)
(-1.38715 -0.659476 0)
(0.04087 0.00369899 -6.40025e-22)
(-1.08661 -0.679026 3.78752e-21)
(-0.819425 0.290618 0)
(-0.312694 -0.0658608 5.23537e-21)
(-0.134258 -0.0931011 4.90049e-21)
(-0.571857 -0.335804 1.27584e-23)
(-0.461705 0.127699 -9.382e-22)
(-1.06162 -0.565708 -6.16166e-22)
(-0.0445231 -0.0865713 -3.22208e-21)
(-0.840152 -0.628533 5.05059e-21)
(-0.623024 -0.104246 5.55689e-21)
(-0.08341 0.0719201 0)
(0.0672732 -0.00542 0)
(-1.30833 -0.841281 1.18199e-21)
(-0.92809 0.241552 0)
(-1.19499 -0.805455 0)
(-0.666502 0.0806045 0)
(0.0420735 0.0151544 0)
(-0.0076503 -0.0181017 0)
(-0.761877 0.395542 -1.51553e-21)
(-1.49324 -0.626319 -1.13343e-21)
(-0.505074 0.146813 0)
(-1.1158 -0.60147 3.3994e-22)
(-0.0224635 -0.072574 3.14647e-21)
(-0.217443 0.0028699 0)
(-0.257959 -0.20052 6.74857e-21)
(-0.598687 -0.295058 0)
(-1.34279 -0.833539 2.73376e-21)
(-0.90692 0.261964 1.26035e-21)
(0.0708809 -0.00115297 0)
(0.0510937 -0.0161537 -2.99491e-21)
(-1.38685 -0.754501 6.88445e-24)
(-0.741515 0.257864 1.72503e-22)
(-0.802391 0.375203 0)
(-0.79728 0.375797 1.20187e-21)
(0.0400146 0.0213431 -1.55805e-21)
(0.0412077 0.0242633 -1.89953e-21)
(-1.38825 -0.665121 1.85002e-21)
(-1.35542 -0.661801 -1.52191e-21)
(-0.486704 0.0268251 0)
(-0.963448 -0.617181 8.41999e-21)
(0.00943252 -0.013585 3.54444e-21)
(-1.1351 -0.726518 4.53768e-21)
(-0.595569 0.0725978 0)
(0.0403485 0.00263387 -3.77097e-21)
(-0.353516 -0.0249108 -4.33814e-21)
(-0.717814 -0.432211 2.5705e-21)
(-0.0687608 -0.0645422 5.85858e-21)
(-1.26955 -0.788477 -3.1528e-21)
(-0.907072 0.281247 1.08422e-21)
(-1.25386 -0.801008 1.65478e-21)
(0.061983 -0.000403734 0)
(-0.921017 0.26293 -1.04729e-21)
(0.0612609 -0.00469555 0)
(-0.597353 0.188285 0)
(-1.2386 -0.675 0)
(0.0147083 -0.0460829 3.40747e-21)
(-0.897867 0.278776 1.93248e-21)
(-0.900306 0.287132 -3.47741e-21)
(-1.34626 -0.810538 -2.08258e-21)
(-1.31428 -0.789885 4.52697e-21)
(0.068974 0.00218842 4.40163e-21)
(0.0651576 0.00297333 -1.36663e-23)
(-0.580576 0.0514881 0)
(-1.09177 -0.720569 -4.62735e-21)
(0.0285756 0.0110012 4.88989e-21)
(-0.426395 0.0562836 4.14066e-21)
(-0.993004 -0.569887 -3.85383e-21)
(-0.0150162 -0.0591582 0)
(-0.774414 0.39882 0)
(0.0148288 0.00632137 0)
(-1.46303 -0.634435 -2.34303e-21)
(-0.478692 0.050453 3.0858e-21)
(-0.989015 -0.608031 -2.33551e-21)
(0.0120312 -0.0248847 -5.79986e-21)
(-0.372297 0.00127885 1.76448e-21)
(-0.800024 -0.482988 -3.01983e-21)
(-0.0465127 -0.0587409 3.32757e-21)
(-0.787783 0.383944 0)
(0.0328558 0.0198251 0)
(-1.41577 -0.653765 3.12387e-21)
(-0.516347 0.171314 0)
(-1.15805 -0.59405 5.68146e-22)
(-0.0354325 -0.0825675 -3.35965e-21)
(-1.01711 -0.790712 0)
(-0.726519 -0.0728054 0)
(-0.101097 0.0963406 -1.87473e-22)
(-0.352169 0.217584 -2.12755e-22)
(-0.995725 -0.331661 0)
(-0.45487 -0.394479 6.08768e-21)
(-1.28689 -0.926032 9.22033e-22)
(0.0241674 0.0211226 0)
(-0.803663 0.0884108 0)
(0.0110691 0.0144953 -6.1324e-21)
(-0.698669 -0.389332 -7.42465e-21)
(-0.497562 0.233221 8.66688e-22)
(-0.485938 0.0966185 0)
(-1.04702 -0.603563 2.3449e-21)
(0.00124131 -0.049317 -2.90285e-21)
(-0.789457 0.373558 3.01363e-21)
(0.0239732 -1.95809e-05 8.08339e-21)
(-1.46926 -0.671488 0)
(-0.629698 -0.537029 -1.53543e-21)
(-0.939912 -0.2608 -2.72559e-21)
(-0.302517 0.208407 -1.81362e-21)
(-0.62781 0.351326 0)
(0.0249459 0.0321906 -2.22791e-21)
(-1.05115 -0.498881 0)
(-0.0722031 0.0223275 3.68448e-21)
(-0.0793636 0.0405149 -3.75871e-21)
(-0.646307 -0.456228 0)
(-0.503833 -0.122699 3.62878e-21)
(-0.681266 -0.490355 -5.45609e-21)
(-0.544304 -0.13159 -2.89795e-21)
(-0.376487 -0.0535826 4.09275e-21)
(-0.676294 -0.420357 3.54672e-21)
(-0.0670396 -0.0459062 0)
(-0.123625 0.0497225 3.3483e-21)
(-0.0983183 0.0290388 0)
(-0.540276 -0.399462 -3.13008e-21)
(-0.58305 -0.190243 3.23669e-21)
(-0.565556 -0.404661 3.15486e-21)
(-0.528411 -0.158171 2.15884e-23)
(-0.453934 0.084041 2.58947e-22)
(-0.931429 -0.550828 -1.7596e-21)
(-0.0176933 -0.0515351 -4.056e-21)
(-0.438316 0.0399428 -7.171e-21)
(-0.933147 -0.563303 4.47055e-23)
(-0.00827688 -0.0386917 0)
(0.0550867 -0.00703296 0)
(-1.18519 -0.771813 0)
(-0.912093 0.26158 6.83889e-22)
(-0.28502 0.13376 -1.86844e-21)
(-0.853694 -0.346005 0)
(-0.336075 -0.282339 1.64058e-21)
(-0.878282 0.288039 -4.258e-21)
(-1.37891 -0.805031 -1.76789e-21)
(0.0700822 0.00499945 -2.50924e-21)
(-0.639048 0.162784 0)
(-0.676485 0.18112 3.26755e-21)
(-1.25705 -0.733681 -4.791e-22)
(-1.29708 -0.755235 9.98829e-22)
(0.0504112 -0.0194306 -3.74032e-21)
(0.0568226 -0.0156149 -3.41246e-21)
(-0.271016 0.111786 0)
(-0.818421 -0.350404 0)
(-0.3057 -0.260639 8.04738e-22)
(-0.467001 0.247166 2.12835e-21)
(-1.1502 -0.45729 0)
(-0.247968 -0.229582 1.91652e-21)
(-0.568642 0.14163 -1.75819e-21)
(-1.17576 -0.680005 0)
(0.0301496 -0.033771 0)
(-0.196347 -0.0417517 3.95487e-21)
(-0.480031 -0.233125 -1.8698e-21)
(-0.302419 -0.216655 1.84843e-21)
(-0.689735 0.153665 0)
(-1.28264 -0.789516 0)
(0.0631851 -0.00514174 -5.55342e-21)
(-0.195906 0.0307533 0)
(-0.319068 -0.24661 9.65638e-22)
(-0.625015 -0.283243 0)
(-0.565272 0.0718071 -4.03516e-21)
(-1.10116 -0.70363 -2.6308e-21)
(0.0336502 -0.00647685 -4.91707e-22)
(-0.460261 0.228225 2.19834e-21)
(-1.13209 -0.472614 0)
(-0.213018 -0.207132 3.95006e-21)
(-0.187342 -0.0162734 -3.91801e-21)
(-0.165497 -0.00944118 -1.72589e-21)
(-0.524566 -0.249019 1.87039e-21)
(-0.31314 -0.231384 -3.68284e-21)
(-0.516063 -0.230664 0)
(-0.361289 -0.263922 -6.49029e-21)
(-0.124132 0.0135609 -1.69502e-21)
(-0.470927 -0.340409 4.01679e-21)
(-0.105038 0.0163934 1.0889e-21)
(-0.519813 -0.189292 -4.41905e-21)
(-0.547506 -0.387917 -1.99634e-21)
(-0.511065 -0.16408 1.07148e-22)
(-0.342663 0.14234 2.0848e-21)
(-0.379329 0.150271 0)
(-0.932143 -0.417091 3.23608e-21)
(-0.980082 -0.454393 -2.52852e-21)
(-0.227861 -0.208322 -3.70549e-21)
(-0.178247 -0.173223 6.15397e-21)
(-0.027597 -0.0543136 0)
(-1.43419 -0.645363 7.84476e-23)
(-0.707483 0.333294 -3.0555e-21)
(-0.117774 0.106267 2.2971e-21)
(-0.72151 -0.0987163 3.47247e-21)
(-0.949982 -0.743472 -4.69204e-21)
(-0.00674463 -0.0369691 -2.75473e-21)
(0.00986707 -0.0300038 2.20798e-21)
(-1.45039 -0.667889 -6.7758e-23)
(-1.43808 -0.688049 1.49344e-23)
(-0.734774 0.341684 7.74553e-21)
(-0.74108 0.324133 -4.01253e-21)
(-0.199834 0.143488 3.37446e-21)
(-0.703988 -0.564034 -2.51853e-21)
(-0.778155 -0.197327 7.6658e-22)
(-0.243628 -0.093302 6.70755e-21)
(-0.273414 -0.174316 0)
(-0.409741 -0.213112 -6.50353e-21)
(-0.704185 0.178102 -1.53528e-21)
(-1.3097 -0.785107 -1.12674e-21)
(0.0641424 -0.00833089 0)
(-0.230347 0.0895027 0)
(-0.348395 -0.288879 -7.65917e-22)
(-0.744602 -0.308334 -3.10287e-21)
(-0.485283 0.235578 0)