/*--------------------------------*- C++ -*----------------------------------*\
  =========                 |
  \\      /  F ield         | OpenFOAM: The Open Source CFD Toolbox
   \\    /   O peration     | Website:  https://openfoam.org
    \\  /    A nd           | Version:  6
     \\/     M anipulation  |
\*---------------------------------------------------------------------------*/
FoamFile
{
    version     2.0;
    format      ascii;
    class       volScalarField;
    location    "0";
    object      P_rec;
}
// * * * * * * * * * * * * * * * * * * * * * * * * * * * * * * * * * * * * * //

dimensions      [0 2 -2 0 0 0 0];

internalField   nonuniform List<scalar> 
918
(
0.650018
0.305475
0.13137
0.679073
-0.00161199
0.164402
-0.771564
0.564803
0.690806
-0.162169
0.0300548
0.52941
-0.0551752
-0.0391507
-1.12875
0.0250191
0.642774
-0.730295
0.48305
0.0278257
-0.218927
0.681878
0.599193
0.476219
0.574601
-0.145591
0.0539362
-0.0480714
-0.0695039
-0.0529418
0.000924572
0.0653047
0.016254
0.101534
0.131039
0.196444
0.49199
0.253435
-0.63772
-0.682194
-0.682074
-0.857473
0.578054
0.594189
-0.225653
0.540387
0.508674
0.493459
0.663891
0.694997
0.606622
0.664775
0.699778
0.248026
-0.209754
-0.272197
-0.120061
-0.123295
0.0615383
0.0200326
0.00321382
0.0643355
0.0532322
0.442345
0.519928
0.515588
0.541687
0.539162
0.262502
0.234646
0.293595
-0.0605232
0.114622
-0.0674002
0.0633011
-0.029756
0.0085554
-0.049346
-0.0665179
-1.37688
-2.11812
-0.672284
-0.555593
0.00365111
0.0248246
0.0342681
0.632716
0.634496
0.628472
0.637409
0.710489
-0.662921
-0.84786
0.517123
0.517895
0.672137
0.61409
0.542672
0.462486
0.0237834
0.0206859
0.0111866
0.0464466
0.0355839
0.0468404
0.195425
0.453303
0.491742
0.538265
0.566045
0.552121
0.275305
0.616022
0.610656
-0.118657
0.024768
-0.129179
-0.0412315
0.0699163
0.0388708
0.140661
0.172823
-0.0729023
-0.0116109
0.0448724
0.00708747
0.0343229
0.491245
0.481004
0.507933
0.495308
0.500616
0.153641
0.0637944
0.321974
0.357086
-0.49987
-0.533704
-0.761639
-0.773357
-0.891552
0.530933
0.601863
0.617219
-0.349321
-0.205001
-0.378183
-0.115218
-0.156706
0.497436
0.489343
0.48969
0.497418
0.502916
0.503157
0.673301
0.664926
0.709752
0.254871
0.340736
0.237959
0.183969
-0.472879
-0.368401
-0.459993
-0.0973751
-0.0448873
0.0480591
0.0811521
0.0997553
0.0726168
-0.0370122
-0.00336813
-0.023063
0.0238157
0.0205698
0.445928
0.43007
0.444233
0.453674
0.511041
0.509839
0.518596
0.51938
0.156488
0.143843
0.094303
0.0710928
-2.89502
-5.03222
-0.374262
-0.295994
-0.00323471
-0.0181406
-0.00656546
-0.0990929
-0.0197301
-0.0496235
0.0680225
0.0376651
0.0372588
0.0561593
0.632801
0.646997
0.700721
0.728972
0.63505
0.634358
0.516377
0.527569
0.520974
0.5242
0.0327063
0.0232047
0.0370914
0.467318
0.332439
0.398149
0.241791
0.146215
0.32236
0.363187
0.636625
0.619187
0.641087
-0.129721
-0.0519454
0.293787
0.00617865
0.266973
0.0650507
0.0419729
0.116016
-0.00877039
0.458871
0.476389
0.473653
0.50141
0.512308
0.510851
0.513335
0.50474
0.508856
-0.0983443
-0.386597
0.46095
0.454589
0.395374
0.441157
0.589982
0.635575
0.628243
0.613076
0.624978
-0.00665283
-0.0424212
0.132088
0.121726
0.393668
0.409213
0.399162
0.0670202
0.027323
0.0643951
0.0525772
0.0288974
0.0812145
-0.368228
-1.70317
-0.959441
-0.138128
-0.200308
-0.183956
0.0315127
0.10571
0.0686049
0.701331
0.751321
0.386965
0.554509
0.505315
-0.187827
-0.09748
0.0137665
-0.116902
-0.056902
0.0215538
-0.0286397
0.457639
0.43242
0.453557
0.651342
0.713359
0.108768
0.0420818
0.00319117
0.101218
0.092446
0.0897099
0.737512
0.708397
0.736355
0.464745
0.449578
-0.0698017
-0.00645101
0.580151
0.612611
-0.0777661
-0.0313386
-0.108618
-0.694592
0.104292
0.521236
0.473536
0.538091
-0.212106
0.111566
-0.0123913
0.003769
-0.0429378
0.496126
0.418239
0.388503
-0.0727587
0.00366811
-0.0124141
-0.443922
0.533832
0.514726
0.520841
0.535409
0.549775
-0.00621536
-0.0167756
0.0335312
-0.0391803
0.0483789
0.0469848
0.501861
0.490566
-0.429609
0.51449
0.543413
0.541252
0.556952
0.557666
0.542518
-0.0152524
0.0366494
0.0455959
0.209176
0.312451
-0.0443005
-0.151884
0.0136215
-0.11573
-0.284209
-0.0621816
-0.0752059
-0.0606947
-0.0799754
0.588836
0.544768
0.195732
0.00150058
0.179252
0.147269
0.518644
0.539414
0.507282
0.52197
0.543833
0.481439
0.560949
0.522388
0.517458
0.570253
-0.179667
-0.086267
-0.143291
-0.273183
0.198081
0.329141
0.0924981
0.202217
0.055663
-0.0247193
0.046094
-0.0436783
-0.0176366
-0.0310868
0.107265
0.0330961
0.137123
0.0234647
0.118524
-0.0672011
0.154671
-0.0151344
0.477337
0.501409
0.498239
0.545113
0.45313
0.476643
0.454862
0.449968
0.473427
0.400851
0.420116
0.421351
0.0173402
0.0190331
0.0548117
0.0202684
0.0499337
-0.0297808
-0.0206621
-0.0231928
-0.00376584
-0.0509767
-0.0189517
-0.00422015
-0.354347
-0.524756
0.632615
0.539932
0.00848752
0.48434
0.53857
0.507594
0.551781
0.561696
0.599141
0.557915
0.53289
0.498154
0.517616
0.497507
0.518939
-0.336874
-0.404126
-0.260834
-0.298111
0.166344
0.615643
0.371457
0.315986
0.309666
0.470839
0.416915
0.132438
-0.299493
-0.458523
-0.44443
-0.343826
-0.481976
-0.0298951
0.0396402
-0.122253
-0.0580719
0.0216384
-0.0358502
-0.033939
-0.0711032
0.505458
-0.134996
-0.117888
0.121459
0.032125
0.237751
0.589728
0.599012
0.521501
0.491332
0.573017
0.544041
0.544391
0.57491
0.580159
0.496467
0.257914
0.249937
0.17941
0.602183
0.517103
0.551167
0.432741
0.543725
0.548442
0.523196
0.510851
0.556021
0.511675
0.506281
0.478993
0.469566
0.517657
0.520627
0.485262
-0.05348
-0.0683126
-0.157766
-0.341002
-0.207792
-0.305603
-0.18148
-0.0900359
-0.208196
0.00530334
0.196731
-0.0777227
-0.259194
-0.11639
-0.210767
0.0513429
-0.0131131
0.0440928
0.0868576
0.044268
0.0603964
0.142238
0.122249
0.00929065
0.00959663
0.0485994
-0.0308059
0.114054
0.0559105
0.129252
0.0615081
0.121518
0.0729683
0.0301263
-0.071756
0.0596819
-0.00284036
-0.086502
0.0325791
0.0169339
-0.0857103
-0.0825345
0.197987
0.0566113
0.527761
0.507273
0.509624
0.531106
0.569819
0.558176
0.497467
0.501026
0.537294
0.500034
0.468373
0.447405
0.432549
0.470721
0.481978
0.477148
0.52376
0.513655
0.483807
0.507195
0.448939
0.469991
0.416464
0.442632
0.474404
-0.107747
0.0342119
-0.0335087
-0.0425828
0.0187611
0.064755
0.128556
0.0310186
0.130502
0.100974
0.0631934
0.0404882
0.0683678
-0.210994
-0.100663
-0.332972
-0.428511
-0.522617
0.609064
0.690087
0.56777
0.403998
0.46248
0.564743
0.665333
0.382854
0.418173
0.51421
0.43475
0.6253
0.521539
0.504049
0.527307
0.554047
0.524569
-0.169612
-0.0268802
0.0135304
0.134133
0.229712
0.292969
0.151943
0.106059
0.193673
0.216248
0.594216
0.615751
0.583827
0.618901
0.613541
0.404169
0.502482
0.527506
0.532463
0.52856
0.550262
0.565848
0.557009
0.478765
0.479487
0.486027
0.446824
0.470213
0.440662
0.44303
0.497451
0.473403
0.472834
0.487962
0.542331
0.510113
0.546051
0.597333
0.570981
0.464147
0.447665
0.47491
0.483805
0.463126
0.46246
0.453204
0.149076
0.172666
0.108373
-0.0573421
0.061601
-0.00546284
-0.0509134
-0.0356695
0.0961848
-0.363164
-0.311364
-0.818684
0.382879
0.46503
0.228569
-0.0850103
0.468783
0.517466
0.501107
0.380651
0.3863
0.584532
0.605203
0.615706
0.540522
0.529145
0.551791
0.53271
0.501206
0.35918
0.280004
0.339457
0.176345
0.240807
0.395017
0.335283
0.295623
0.331404
0.418211
0.323543
0.346369
0.425411
0.381916
0.380233
0.50349
0.547859
0.56986
0.506312
0.413158
0.481884
0.463905
0.512208
0.555278
0.556417
0.523197
0.501282
0.513485
0.504234
0.490041
0.510539
0.473983
0.528672
0.534652
0.544011
0.537689
-0.0550609
-0.0344301
-0.0171261
-0.0600777
-0.161647
-0.197695
-0.191943
-0.188576
0.0176098
-0.0235782
-0.148633
-0.0757857
0.0417554
-0.0190377
-0.0148488
-0.0051362
-0.0628958
-0.129698
0.143448
0.2984
0.288511
0.230913
0.115306
0.126421
0.23666
-0.0281406
0.113518
0.05396
0.00499498
-0.0230784
0.0135416
0.12283
0.0407596
0.0900153
0.0211806
-0.140851
0.0496742
0.109507
-0.0588756
0.00650038
0.0443355
0.484438
0.49234
0.476646
0.455547
0.462463
0.459599
0.496829
0.52965
0.528349
0.527074
0.537322
0.515398
0.521585
0.0194434
0.16095
0.195608
0.102549
0.0613459
-0.00808969
-0.0330776
0.105133
-0.0201875
0.0255089
-0.136097
-0.249942
-0.187093
0.347817
0.391921
0.391087
0.59055
0.449361
0.357074
0.452194
0.576948
0.266746
0.363252
0.246916
0.612679
0.562212
0.660747
0.430699
0.0640128
0.173104
0.325511
0.0130295
0.0299004
0.152547
0.181419
0.183917
0.166704
0.249641
0.226427
0.197047
0.0878997
0.127712
0.281107
0.258153
0.342262
0.394794
0.0930081
0.119782
0.0655076
0.571092
0.595329
0.61812
0.591652
0.611355
0.554151
0.548018
0.585069
0.616074
0.604616
-0.675883
-0.426098
-1.20689
-0.491431
-0.208536
0.509673
0.211048
0.893098
0.704353
0.550631
0.566949
0.566788
0.524991
0.589038
0.586203
0.329793
0.424986
0.361383
0.404815
0.313342
0.24228
0.550374
0.534254
0.563199
0.58109
0.536503
0.580709
0.433063
0.482903
0.459781
0.499951
0.529287
0.552273
-0.0176565
-0.0920569
-0.0562369
-0.0643777
-0.0847536
-0.115349
-0.0490417
-0.0156989
0.199733
0.133882
0.0638023
0.128116
0.0239183
0.0131251
-0.0985332
-0.0257061
-0.100605
-0.238821
-0.214106
-0.188919
-0.0967653
-0.0121902
0.359226
0.502641
0.414888
0.549643
0.400026
0.540141
0.389427
0.399383
0.423816
0.313416
0.34858
0.063983
-0.265774
-0.138601
0.985346
1.08121
0.69481
0.429767
0.181585
0.509144
0.524407
0.44917
0.466931
0.555826
0.510943
-0.0637686
0.0293656
-0.0355245
0.00531457
0.163187
0.100175
0.104424
0.0897198
0.0983826
)
;

boundaryField
{
    wall-4
    {
        type            calculated;
        value           nonuniform List<scalar> 
100
(
0.650018
0.305475
0.13137
0.679073
0.164402
-0.771564
0.564803
-0.162169
0.0300548
0.52941
-0.0551752
-0.0391507
-1.12875
0.642774
-0.730295
0.48305
0.0278257
-0.218927
0.476219
0.574601
-0.145591
0.0539362
-0.0480714
0.101534
0.49199
-0.682194
-0.857473
0.594189
-0.225653
0.508674
0.493459
-0.272197
-0.123295
0.00321382
0.0532322
0.442345
0.515588
0.539162
0.114622
0.0633011
0.0085554
-0.0665179
-2.11812
-0.555593
0.634496
0.637409
-0.84786
0.517895
0.462486
0.0206859
0.0355839
0.195425
0.491742
0.552121
0.275305
0.610656
-0.118657
-0.0412315
0.0388708
0.172823
0.481004
0.507933
0.500616
-0.533704
-0.891552
0.617219
-0.378183
-0.156706
0.48969
0.503157
-0.459993
-0.0448873
-0.023063
0.0205698
0.43007
0.453674
0.511041
0.51938
0.0710928
-0.295994
0.646997
0.516377
0.5242
0.0370914
0.398149
0.146215
0.363187
0.641087
-0.0519454
0.0650507
0.473653
0.510851
0.508856
0.624978
-0.0424212
0.399162
0.0525772
-0.183956
-0.056902
0.00319117
)
;
    }
    velocity-inlet-5
    {
        type            calculated;
        value           nonuniform List<scalar> 8(0.650018 0.679073 0.690806 0.681878 0.694997 0.699778 0.672137 0.709752);
    }
    velocity-inlet-6
    {
        type            calculated;
        value           nonuniform List<scalar> 4(0.305475 0.164402 0.196444 0.293595);
    }
    pressure-outlet-7
    {
        type            calculated;
        value           uniform 0;
    }
    wall-8
    {
        type            calculated;
        value           nonuniform List<scalar> 
34
(
-0.00161199
0.0250191
0.016254
0.253435
0.248026
0.0615383
0.0342681
0.710489
0.0343229
0.0637944
0.357086
0.530933
0.340736
0.183969
0.0811521
0.0726168
-5.03222
0.0680225
0.0561593
0.728972
0.634358
-0.386597
0.46095
0.441157
0.635575
0.121726
-0.959441
0.0686049
0.751321
0.505315
0.453557
0.713359
0.0897099
0.736355
)
;
    }
    frontAndBackPlanes
    {
        type            empty;
    }
}

