/*--------------------------------*- C++ -*----------------------------------*\
  =========                 |
  \\      /  F ield         | OpenFOAM: The Open Source CFD Toolbox
   \\    /   O peration     | Website:  https://openfoam.org
    \\  /    A nd           | Version:  6
     \\/     M anipulation  |
\*---------------------------------------------------------------------------*/
FoamFile
{
    version     2.0;
    format      ascii;
    class       volScalarField;
    location    "0";
    object      p;
}
// * * * * * * * * * * * * * * * * * * * * * * * * * * * * * * * * * * * * * //

dimensions      [0 2 -2 0 0 0 0];

internalField   nonuniform List<scalar> 
145945
(
2.33892e-06
2.3386e-06
2.3386e-06
2.33864e-06
2.33878e-06
2.33888e-06
2.33899e-06
2.33905e-06
2.33909e-06
2.33907e-06
2.33903e-06
2.33894e-06
2.33887e-06
2.33874e-06
2.33874e-06
2.33869e-06
2.33904e-06
2.3386e-06
2.33847e-06
2.3385e-06
2.33859e-06
2.33875e-06
2.33886e-06
2.33898e-06
2.33904e-06
2.33908e-06
2.33906e-06
2.33902e-06
2.33893e-06
2.33884e-06
2.33871e-06
2.33865e-06
2.33858e-06
2.33872e-06
2.3386e-06
2.3385e-06
2.33854e-06
2.33868e-06
2.33885e-06
2.33898e-06
2.3391e-06
2.33917e-06
2.33921e-06
2.3392e-06
2.33915e-06
2.33905e-06
2.33895e-06
2.33881e-06
2.33871e-06
2.33862e-06
2.33872e-06
2.33863e-06
2.33859e-06
2.33868e-06
2.33885e-06
2.33904e-06
2.33919e-06
2.33932e-06
2.33939e-06
2.33943e-06
2.33942e-06
2.33937e-06
2.33927e-06
2.33915e-06
2.33899e-06
2.33886e-06
2.33873e-06
2.33876e-06
2.33878e-06
2.33875e-06
2.33885e-06
2.33904e-06
2.33924e-06
2.3394e-06
2.33952e-06
2.3396e-06
2.33964e-06
2.33963e-06
2.33958e-06
2.33947e-06
2.33935e-06
2.33919e-06
2.33903e-06
2.33889e-06
2.33891e-06
2.33888e-06
2.33886e-06
2.33898e-06
2.33919e-06
2.3394e-06
2.33956e-06
2.33969e-06
2.33977e-06
2.33981e-06
2.3398e-06
2.33974e-06
2.33964e-06
2.33951e-06
2.33934e-06
2.33917e-06
2.33901e-06
2.33901e-06
2.33899e-06
2.33898e-06
2.3391e-06
2.33932e-06
2.33952e-06
2.33969e-06
2.33982e-06
2.3399e-06
2.33994e-06
2.33993e-06
2.33987e-06
2.33977e-06
2.33964e-06
2.33947e-06
2.33929e-06
2.33913e-06
2.33912e-06
2.33905e-06
2.33904e-06
2.33917e-06
2.33939e-06
2.3396e-06
2.33977e-06
2.3399e-06
2.33999e-06
2.34003e-06
2.34002e-06
2.33996e-06
2.33985e-06
2.33972e-06
2.33955e-06
2.33937e-06
2.33919e-06
2.33918e-06
2.33909e-06
2.33908e-06
2.33921e-06
2.33943e-06
2.33964e-06
2.33981e-06
2.33994e-06
2.34003e-06
2.34007e-06
2.34006e-06
2.34e-06
2.3399e-06
2.33976e-06
2.33959e-06
2.33941e-06
2.33923e-06
2.33922e-06
2.33907e-06
2.33906e-06
2.3392e-06
2.33942e-06
2.33963e-06
2.3398e-06
2.33993e-06
2.34002e-06
2.34006e-06
2.34004e-06
2.33999e-06
2.33988e-06
2.33975e-06
2.33958e-06
2.33939e-06
2.33922e-06
2.3392e-06
2.33903e-06
2.33902e-06
2.33915e-06
2.33937e-06
2.33958e-06
2.33974e-06
2.33987e-06
2.33996e-06
2.34e-06
2.33999e-06
2.33993e-06
2.33983e-06
2.33969e-06
2.33952e-06
2.33934e-06
2.33917e-06
2.33916e-06
2.33894e-06
2.33893e-06
2.33905e-06
2.33927e-06
2.33947e-06
2.33964e-06
2.33977e-06
2.33985e-06
2.3399e-06
2.33988e-06
2.33983e-06
2.33972e-06
2.33959e-06
2.33942e-06
2.33924e-06
2.33908e-06
2.33907e-06
2.33887e-06
2.33884e-06
2.33895e-06
2.33915e-06
2.33935e-06
2.33951e-06
2.33964e-06
2.33972e-06
2.33976e-06
2.33975e-06
2.33969e-06
2.33959e-06
2.33946e-06
2.3393e-06
2.33914e-06
2.33899e-06
2.339e-06
2.33874e-06
2.33871e-06
2.33881e-06
2.339e-06
2.33919e-06
2.33935e-06
2.33947e-06
2.33955e-06
2.33959e-06
2.33958e-06
2.33952e-06
2.33942e-06
2.3393e-06
2.33914e-06
2.33899e-06
2.33885e-06
2.33887e-06
2.33874e-06
2.33865e-06
2.33871e-06
2.33886e-06
2.33903e-06
2.33917e-06
2.33929e-06
2.33937e-06
2.33941e-06
2.33939e-06
2.33934e-06
2.33924e-06
2.33914e-06
2.33899e-06
2.33888e-06
2.33878e-06
2.33886e-06
2.33869e-06
2.33858e-06
2.33863e-06
2.33873e-06
2.33889e-06
2.33901e-06
2.33913e-06
2.33919e-06
2.33923e-06
2.33922e-06
2.33917e-06
2.33908e-06
2.33899e-06
2.33885e-06
2.33878e-06
2.3387e-06
2.33881e-06
2.33904e-06
2.33872e-06
2.33872e-06
2.33876e-06
2.33891e-06
2.33901e-06
2.33912e-06
2.33918e-06
2.33922e-06
2.3392e-06
2.33917e-06
2.33907e-06
2.339e-06
2.33887e-06
2.33886e-06
2.33881e-06
2.33915e-06
2.26515e-06
2.26511e-06
2.26537e-06
2.26563e-06
2.26595e-06
2.26622e-06
2.26644e-06
2.26658e-06
2.26664e-06
2.26661e-06
2.2665e-06
2.26631e-06
2.26607e-06
2.26577e-06
2.26552e-06
2.26522e-06
2.26524e-06
2.26511e-06
2.26524e-06
2.26554e-06
2.26587e-06
2.26622e-06
2.26651e-06
2.26674e-06
2.26689e-06
2.26696e-06
2.26693e-06
2.26681e-06
2.2666e-06
2.26634e-06
2.26602e-06
2.26571e-06
2.26537e-06
2.26521e-06
2.26537e-06
2.26554e-06
2.26585e-06
2.26622e-06
2.2666e-06
2.26692e-06
2.26717e-06
2.26733e-06
2.2674e-06
2.26736e-06
2.26724e-06
2.26702e-06
2.26673e-06
2.26638e-06
2.26602e-06
2.26567e-06
2.26547e-06
2.26563e-06
2.26587e-06
2.26622e-06
2.26664e-06
2.26704e-06
2.26738e-06
2.26764e-06
2.26781e-06
2.26788e-06
2.26784e-06
2.26771e-06
2.26748e-06
2.26718e-06
2.26681e-06
2.26641e-06
2.26602e-06
2.26574e-06
2.26595e-06
2.26622e-06
2.2666e-06
2.26704e-06
2.26746e-06
2.26781e-06
2.26808e-06
2.26825e-06
2.26833e-06
2.26829e-06
2.26815e-06
2.26792e-06
2.26761e-06
2.26722e-06
2.2668e-06
2.26637e-06
2.26606e-06
2.26622e-06
2.26651e-06
2.26692e-06
2.26738e-06
2.26781e-06
2.26817e-06
2.26844e-06
2.26862e-06
2.2687e-06
2.26866e-06
2.26852e-06
2.26828e-06
2.26796e-06
2.26756e-06
2.26712e-06
2.26667e-06
2.26632e-06
2.26644e-06
2.26674e-06
2.26717e-06
2.26764e-06
2.26808e-06
2.26844e-06
2.26872e-06
2.2689e-06
2.26898e-06
2.26894e-06
2.2688e-06
2.26856e-06
2.26823e-06
2.26783e-06
2.26737e-06
2.26691e-06
2.26655e-06
2.26658e-06
2.26689e-06
2.26733e-06
2.26781e-06
2.26825e-06
2.26862e-06
2.2689e-06
2.26908e-06
2.26916e-06
2.26912e-06
2.26898e-06
2.26874e-06
2.2684e-06
2.268e-06
2.26753e-06
2.26706e-06
2.26668e-06
2.26664e-06
2.26696e-06
2.2674e-06
2.26788e-06
2.26833e-06
2.2687e-06
2.26898e-06
2.26916e-06
2.26923e-06
2.2692e-06
2.26905e-06
2.26881e-06
2.26848e-06
2.26807e-06
2.26761e-06
2.26713e-06
2.26675e-06
2.26661e-06
2.26693e-06
2.26736e-06
2.26784e-06
2.26829e-06
2.26866e-06
2.26894e-06
2.26912e-06
2.2692e-06
2.26916e-06
2.26902e-06
2.26878e-06
2.26845e-06
2.26803e-06
2.26757e-06
2.26709e-06
2.26672e-06
2.2665e-06
2.26681e-06
2.26724e-06
2.26771e-06
2.26815e-06
2.26852e-06
2.2688e-06
2.26898e-06
2.26905e-06
2.26902e-06
2.26888e-06
2.26864e-06
2.26831e-06
2.2679e-06
2.26744e-06
2.26697e-06
2.26661e-06
2.26631e-06
2.2666e-06
2.26702e-06
2.26748e-06
2.26792e-06
2.26828e-06
2.26856e-06
2.26874e-06
2.26881e-06
2.26878e-06
2.26864e-06
2.2684e-06
2.26807e-06
2.26767e-06
2.26722e-06
2.26676e-06
2.26641e-06
2.26607e-06
2.26634e-06
2.26673e-06
2.26718e-06
2.26761e-06
2.26796e-06
2.26823e-06
2.26841e-06
2.26848e-06
2.26845e-06
2.26831e-06
2.26807e-06
2.26775e-06
2.26736e-06
2.26693e-06
2.2665e-06
2.26617e-06
2.26577e-06
2.26602e-06
2.26638e-06
2.26681e-06
2.26722e-06
2.26756e-06
2.26783e-06
2.268e-06
2.26807e-06
2.26803e-06
2.2679e-06
2.26767e-06
2.26736e-06
2.26698e-06
2.26657e-06
2.26617e-06
2.26587e-06
2.26552e-06
2.26571e-06
2.26602e-06
2.26641e-06
2.2668e-06
2.26712e-06
2.26737e-06
2.26754e-06
2.26761e-06
2.26757e-06
2.26744e-06
2.26722e-06
2.26693e-06
2.26657e-06
2.2662e-06
2.26585e-06
2.26562e-06
2.26522e-06
2.26537e-06
2.26567e-06
2.26602e-06
2.26637e-06
2.26667e-06
2.26691e-06
2.26706e-06
2.26713e-06
2.26709e-06
2.26697e-06
2.26676e-06
2.2665e-06
2.26617e-06
2.26585e-06
2.2655e-06
2.26532e-06
2.26524e-06
2.26521e-06
2.26547e-06
2.26574e-06
2.26606e-06
2.26633e-06
2.26655e-06
2.26669e-06
2.26675e-06
2.26672e-06
2.26661e-06
2.26641e-06
2.26617e-06
2.26587e-06
2.26562e-06
2.26532e-06
2.26533e-06
2.2123e-06
2.21344e-06
2.21452e-06
2.21547e-06
2.21633e-06
2.21697e-06
2.21744e-06
2.21773e-06
2.21784e-06
2.21777e-06
2.21752e-06
2.21709e-06
2.21649e-06
2.21566e-06
2.21469e-06
2.21349e-06
2.2123e-06
2.21344e-06
2.21445e-06
2.2155e-06
2.21646e-06
2.21731e-06
2.21795e-06
2.21842e-06
2.2187e-06
2.21881e-06
2.21874e-06
2.2185e-06
2.21807e-06
2.21746e-06
2.21664e-06
2.21566e-06
2.21451e-06
2.21344e-06
2.21452e-06
2.2155e-06
2.21648e-06
2.21741e-06
2.21822e-06
2.21886e-06
2.21932e-06
2.2196e-06
2.21971e-06
2.21964e-06
2.2194e-06
2.21897e-06
2.21838e-06
2.21758e-06
2.21663e-06
2.21554e-06
2.21452e-06
2.21547e-06
2.21646e-06
2.21741e-06
2.21831e-06
2.21911e-06
2.21974e-06
2.22019e-06
2.22046e-06
2.22057e-06
2.2205e-06
2.22026e-06
2.21985e-06
2.21926e-06
2.21849e-06
2.21755e-06
2.2165e-06
2.21547e-06
2.21633e-06
2.21731e-06
2.21822e-06
2.21911e-06
2.21989e-06
2.22051e-06
2.22095e-06
2.22123e-06
2.22133e-06
2.22126e-06
2.22103e-06
2.22062e-06
2.22004e-06
2.21928e-06
2.21836e-06
2.21734e-06
2.21633e-06
2.21697e-06
2.21795e-06
2.21886e-06
2.21974e-06
2.22051e-06
2.22112e-06
2.22156e-06
2.22183e-06
2.22193e-06
2.22187e-06
2.22163e-06
2.22123e-06
2.22066e-06
2.2199e-06
2.21899e-06
2.21799e-06
2.21697e-06
2.21744e-06
2.21842e-06
2.21932e-06
2.22019e-06
2.22095e-06
2.22156e-06
2.22199e-06
2.22226e-06
2.22237e-06
2.2223e-06
2.22207e-06
2.22167e-06
2.2211e-06
2.22036e-06
2.21945e-06
2.21846e-06
2.21744e-06
2.21773e-06
2.2187e-06
2.2196e-06
2.22046e-06
2.22123e-06
2.22183e-06
2.22226e-06
2.22253e-06
2.22263e-06
2.22257e-06
2.22234e-06
2.22194e-06
2.22137e-06
2.22063e-06
2.21973e-06
2.21874e-06
2.21773e-06
2.21784e-06
2.21881e-06
2.21971e-06
2.22057e-06
2.22133e-06
2.22193e-06
2.22237e-06
2.22264e-06
2.22274e-06
2.22267e-06
2.22244e-06
2.22204e-06
2.22148e-06
2.22074e-06
2.21984e-06
2.21885e-06
2.21784e-06
2.21777e-06
2.21874e-06
2.21964e-06
2.2205e-06
2.22126e-06
2.22187e-06
2.2223e-06
2.22257e-06
2.22267e-06
2.22261e-06
2.22238e-06
2.22198e-06
2.22141e-06
2.22067e-06
2.21977e-06
2.21878e-06
2.21777e-06
2.21752e-06
2.2185e-06
2.2194e-06
2.22026e-06
2.22103e-06
2.22163e-06
2.22207e-06
2.22234e-06
2.22244e-06
2.22238e-06
2.22214e-06
2.22174e-06
2.22118e-06
2.22043e-06
2.21953e-06
2.21854e-06
2.21752e-06
2.21709e-06
2.21807e-06
2.21897e-06
2.21985e-06
2.22062e-06
2.22123e-06
2.22167e-06
2.22194e-06
2.22204e-06
2.22198e-06
2.22174e-06
2.22134e-06
2.22077e-06
2.22002e-06
2.21911e-06
2.21811e-06
2.21709e-06
2.21649e-06
2.21746e-06
2.21838e-06
2.21926e-06
2.22004e-06
2.22066e-06
2.2211e-06
2.22137e-06
2.22148e-06
2.22141e-06
2.22118e-06
2.22077e-06
2.22019e-06
2.21943e-06
2.21851e-06
2.2175e-06
2.21649e-06
2.21566e-06
2.21664e-06
2.21758e-06
2.21849e-06
2.21928e-06
2.21991e-06
2.22036e-06
2.22063e-06
2.22074e-06
2.22067e-06
2.22043e-06
2.22002e-06
2.21943e-06
2.21866e-06
2.21772e-06
2.21668e-06
2.21566e-06
2.21469e-06
2.21567e-06
2.21663e-06
2.21755e-06
2.21836e-06
2.21899e-06
2.21945e-06
2.21973e-06
2.21984e-06
2.21977e-06
2.21953e-06
2.21911e-06
2.21851e-06
2.21772e-06
2.21677e-06
2.2157e-06
2.21469e-06
2.21349e-06
2.21451e-06
2.21554e-06
2.2165e-06
2.21734e-06
2.21799e-06
2.21846e-06
2.21874e-06
2.21885e-06
2.21878e-06
2.21854e-06
2.21811e-06
2.2175e-06
2.21668e-06
2.2157e-06
2.21455e-06
2.2135e-06
2.2123e-06
2.21344e-06
2.21452e-06
2.21547e-06
2.21633e-06
2.21697e-06
2.21744e-06
2.21773e-06
2.21784e-06
2.21777e-06
2.21752e-06
2.21709e-06
2.21649e-06
2.21566e-06
2.21469e-06
2.2135e-06
2.21229e-06
2.15957e-06
2.16154e-06
2.16333e-06
2.16502e-06
2.16645e-06
2.16752e-06
2.16828e-06
2.16874e-06
2.16892e-06
2.16881e-06
2.1684e-06
2.1677e-06
2.16671e-06
2.16534e-06
2.16365e-06
2.16171e-06
2.15959e-06
2.16154e-06
2.16319e-06
2.16494e-06
2.16659e-06
2.16799e-06
2.16904e-06
2.16978e-06
2.17024e-06
2.17041e-06
2.1703e-06
2.1699e-06
2.16922e-06
2.16824e-06
2.16691e-06
2.16526e-06
2.16335e-06
2.16157e-06
2.16333e-06
2.16494e-06
2.16661e-06
2.1682e-06
2.16954e-06
2.17055e-06
2.17127e-06
2.1717e-06
2.17187e-06
2.17176e-06
2.17138e-06
2.17072e-06
2.16978e-06
2.16851e-06
2.16692e-06
2.16508e-06
2.16336e-06
2.16502e-06
2.16659e-06
2.1682e-06
2.16973e-06
2.17102e-06
2.172e-06
2.17269e-06
2.17312e-06
2.17328e-06
2.17317e-06
2.17281e-06
2.17217e-06
2.17126e-06
2.17004e-06
2.1685e-06
2.16673e-06
2.16505e-06
2.16645e-06
2.16799e-06
2.16954e-06
2.17102e-06
2.17227e-06
2.17322e-06
2.1739e-06
2.17431e-06
2.17447e-06
2.17436e-06
2.17401e-06
2.17339e-06
2.1725e-06
2.17132e-06
2.16983e-06
2.16812e-06
2.16648e-06
2.16752e-06
2.16904e-06
2.17055e-06
2.172e-06
2.17322e-06
2.17415e-06
2.17481e-06
2.17522e-06
2.17537e-06
2.17527e-06
2.17492e-06
2.17432e-06
2.17345e-06
2.1723e-06
2.17083e-06
2.16917e-06
2.16755e-06
2.16828e-06
2.16978e-06
2.17127e-06
2.17269e-06
2.1739e-06
2.17481e-06
2.17546e-06
2.17586e-06
2.17601e-06
2.17591e-06
2.17557e-06
2.17497e-06
2.17412e-06
2.17298e-06
2.17155e-06
2.16992e-06
2.16831e-06
2.16874e-06
2.17024e-06
2.1717e-06
2.17312e-06
2.17431e-06
2.17522e-06
2.17586e-06
2.17625e-06
2.1764e-06
2.17631e-06
2.17596e-06
2.17538e-06
2.17453e-06
2.1734e-06
2.17198e-06
2.17037e-06
2.16877e-06
2.16892e-06
2.17041e-06
2.17187e-06
2.17328e-06
2.17447e-06
2.17537e-06
2.17601e-06
2.1764e-06
2.17655e-06
2.17646e-06
2.17612e-06
2.17553e-06
2.17469e-06
2.17357e-06
2.17215e-06
2.17054e-06
2.16895e-06
2.16881e-06
2.1703e-06
2.17176e-06
2.17317e-06
2.17436e-06
2.17527e-06
2.17591e-06
2.17631e-06
2.17646e-06
2.17636e-06
2.17602e-06
2.17543e-06
2.17459e-06
2.17346e-06
2.17204e-06
2.17043e-06
2.16884e-06
2.1684e-06
2.1699e-06
2.17138e-06
2.17281e-06
2.17401e-06
2.17492e-06
2.17557e-06
2.17596e-06
2.17612e-06
2.17602e-06
2.17568e-06
2.17508e-06
2.17423e-06
2.1731e-06
2.17166e-06
2.17004e-06
2.16843e-06
2.1677e-06
2.16922e-06
2.17072e-06
2.17217e-06
2.17339e-06
2.17432e-06
2.17497e-06
2.17538e-06
2.17553e-06
2.17543e-06
2.17508e-06
2.17448e-06
2.17362e-06
2.17246e-06
2.17101e-06
2.16935e-06
2.16773e-06
2.16671e-06
2.16824e-06
2.16978e-06
2.17126e-06
2.17251e-06
2.17345e-06
2.17412e-06
2.17453e-06
2.17469e-06
2.17459e-06
2.17423e-06
2.17362e-06
2.17273e-06
2.17156e-06
2.17007e-06
2.16837e-06
2.16674e-06
2.16535e-06
2.16691e-06
2.16851e-06
2.17004e-06
2.17132e-06
2.1723e-06
2.17299e-06
2.17341e-06
2.17357e-06
2.17346e-06
2.1731e-06
2.17246e-06
2.17156e-06
2.17034e-06
2.16881e-06
2.16705e-06
2.16538e-06
2.16365e-06
2.16526e-06
2.16692e-06
2.1685e-06
2.16983e-06
2.17084e-06
2.17155e-06
2.17198e-06
2.17215e-06
2.17204e-06
2.17166e-06
2.17101e-06
2.17007e-06
2.16881e-06
2.16723e-06
2.1654e-06
2.16368e-06
2.16171e-06
2.16335e-06
2.16508e-06
2.16673e-06
2.16812e-06
2.16917e-06
2.16992e-06
2.17037e-06
2.17054e-06
2.17043e-06
2.17004e-06
2.16935e-06
2.16837e-06
2.16705e-06
2.1654e-06
2.16349e-06
2.16173e-06
2.15959e-06
2.16157e-06
2.16336e-06
2.16505e-06
2.16648e-06
2.16755e-06
2.16831e-06
2.16878e-06
2.16895e-06
2.16884e-06
2.16843e-06
2.16773e-06
2.16674e-06
2.16537e-06
2.16368e-06
2.16173e-06
2.15961e-06
2.10801e-06
2.11028e-06
2.1123e-06
2.11428e-06
2.11593e-06
2.11718e-06
2.11808e-06
2.11862e-06
2.11883e-06
2.11869e-06
2.11822e-06
2.11739e-06
2.11622e-06
2.11465e-06
2.11265e-06
2.11046e-06
2.10802e-06
2.11028e-06
2.11217e-06
2.11416e-06
2.1161e-06
2.11773e-06
2.11898e-06
2.11986e-06
2.1204e-06
2.12061e-06
2.12047e-06
2.12e-06
2.11918e-06
2.11802e-06
2.11647e-06
2.11452e-06
2.11233e-06
2.1103e-06
2.1123e-06
2.11416e-06
2.11612e-06
2.11799e-06
2.11957e-06
2.12078e-06
2.12164e-06
2.12216e-06
2.12236e-06
2.12223e-06
2.12177e-06
2.12098e-06
2.11986e-06
2.11835e-06
2.11647e-06
2.11431e-06
2.11232e-06
2.11428e-06
2.1161e-06
2.11799e-06
2.11981e-06
2.12134e-06
2.12251e-06
2.12335e-06
2.12386e-06
2.12405e-06
2.12393e-06
2.12348e-06
2.12271e-06
2.12162e-06
2.12016e-06
2.11833e-06
2.11624e-06
2.1143e-06
2.11593e-06
2.11773e-06
2.11957e-06
2.12134e-06
2.12284e-06
2.12398e-06
2.1248e-06
2.12529e-06
2.12548e-06
2.12536e-06
2.12493e-06
2.12418e-06
2.12311e-06
2.12169e-06
2.11991e-06
2.11788e-06
2.11595e-06
2.11718e-06
2.11898e-06
2.12078e-06
2.12251e-06
2.12398e-06
2.12511e-06
2.1259e-06
2.12639e-06
2.12658e-06
2.12646e-06
2.12603e-06
2.1253e-06
2.12425e-06
2.12286e-06
2.12111e-06
2.11912e-06
2.1172e-06
2.11808e-06
2.11986e-06
2.12164e-06
2.12335e-06
2.1248e-06
2.1259e-06
2.12669e-06
2.12717e-06
2.12736e-06
2.12724e-06
2.12682e-06
2.12609e-06
2.12506e-06
2.12369e-06
2.12196e-06
2.12001e-06
2.1181e-06
2.11862e-06
2.1204e-06
2.12216e-06
2.12386e-06
2.12529e-06
2.12639e-06
2.12717e-06
2.12765e-06
2.12784e-06
2.12772e-06
2.1273e-06
2.12658e-06
2.12556e-06
2.12419e-06
2.12248e-06
2.12055e-06
2.11864e-06
2.11883e-06
2.12061e-06
2.12236e-06
2.12405e-06
2.12548e-06
2.12658e-06
2.12736e-06
2.12784e-06
2.12802e-06
2.1279e-06
2.12748e-06
2.12677e-06
2.12574e-06
2.12439e-06
2.12268e-06
2.12075e-06
2.11885e-06
2.11869e-06
2.12047e-06
2.12223e-06
2.12393e-06
2.12536e-06
2.12646e-06
2.12724e-06
2.12772e-06
2.1279e-06
2.12778e-06
2.12737e-06
2.12665e-06
2.12562e-06
2.12426e-06
2.12255e-06
2.12062e-06
2.11872e-06
2.11822e-06
2.12e-06
2.12177e-06
2.12348e-06
2.12493e-06
2.12603e-06
2.12682e-06
2.1273e-06
2.12748e-06
2.12737e-06
2.12695e-06
2.12622e-06
2.12519e-06
2.12382e-06
2.1221e-06
2.12015e-06
2.11824e-06
2.11739e-06
2.11918e-06
2.12098e-06
2.12271e-06
2.12418e-06
2.1253e-06
2.1261e-06
2.12658e-06
2.12677e-06
2.12665e-06
2.12622e-06
2.12549e-06
2.12444e-06
2.12306e-06
2.12131e-06
2.11933e-06
2.11741e-06
2.11622e-06
2.11802e-06
2.11986e-06
2.12162e-06
2.12311e-06
2.12425e-06
2.12506e-06
2.12556e-06
2.12575e-06
2.12562e-06
2.12519e-06
2.12444e-06
2.12338e-06
2.12196e-06
2.12019e-06
2.11817e-06
2.11624e-06
2.11465e-06
2.11647e-06
2.11835e-06
2.12016e-06
2.12169e-06
2.12286e-06
2.12369e-06
2.12419e-06
2.12439e-06
2.12426e-06
2.12382e-06
2.12306e-06
2.12196e-06
2.12051e-06
2.11869e-06
2.11661e-06
2.11467e-06
2.11265e-06
2.11452e-06
2.11647e-06
2.11833e-06
2.11991e-06
2.12111e-06
2.12196e-06
2.12248e-06
2.12268e-06
2.12255e-06
2.1221e-06
2.12131e-06
2.12019e-06
2.11869e-06
2.11682e-06
2.11467e-06
2.11267e-06
2.11046e-06
2.11233e-06
2.11431e-06
2.11624e-06
2.11788e-06
2.11912e-06
2.12001e-06
2.12055e-06
2.12076e-06
2.12062e-06
2.12015e-06
2.11933e-06
2.11817e-06
2.11661e-06
2.11467e-06
2.1125e-06
2.11048e-06
2.10802e-06
2.1103e-06
2.11232e-06
2.1143e-06
2.11595e-06
2.1172e-06
2.1181e-06
2.11864e-06
2.11885e-06
2.11872e-06
2.11824e-06
2.11741e-06
2.11624e-06
2.11467e-06
2.11267e-06
2.11048e-06
2.10803e-06
2.06037e-06
2.06274e-06
2.06481e-06
2.0669e-06
2.06861e-06
2.06993e-06
2.07087e-06
2.07144e-06
2.07166e-06
2.07152e-06
2.07101e-06
2.07014e-06
2.06891e-06
2.06727e-06
2.06515e-06
2.06291e-06
2.06037e-06
2.06274e-06
2.06471e-06
2.06677e-06
2.06881e-06
2.07053e-06
2.07185e-06
2.07279e-06
2.07336e-06
2.07358e-06
2.07343e-06
2.07293e-06
2.07206e-06
2.07083e-06
2.06919e-06
2.06712e-06
2.06486e-06
2.06274e-06
2.06481e-06
2.06677e-06
2.06884e-06
2.07082e-06
2.07249e-06
2.07378e-06
2.07469e-06
2.07525e-06
2.07546e-06
2.07532e-06
2.07483e-06
2.07398e-06
2.07278e-06
2.07118e-06
2.06918e-06
2.06691e-06
2.06481e-06
2.0669e-06
2.06881e-06
2.07082e-06
2.07274e-06
2.07437e-06
2.07563e-06
2.07653e-06
2.07707e-06
2.07728e-06
2.07714e-06
2.07666e-06
2.07583e-06
2.07466e-06
2.0731e-06
2.07115e-06
2.06894e-06
2.0669e-06
2.06861e-06
2.07053e-06
2.07249e-06
2.07437e-06
2.07598e-06
2.07721e-06
2.07809e-06
2.07862e-06
2.07883e-06
2.07869e-06
2.07822e-06
2.07741e-06
2.07625e-06
2.07473e-06
2.07282e-06
2.07066e-06
2.06862e-06
2.06993e-06
2.07185e-06
2.07377e-06
2.07563e-06
2.07721e-06
2.07842e-06
2.07929e-06
2.07981e-06
2.08001e-06
2.07988e-06
2.07942e-06
2.07862e-06
2.07748e-06
2.07598e-06
2.0741e-06
2.07197e-06
2.06993e-06
2.07087e-06
2.07279e-06
2.07469e-06
2.07652e-06
2.07809e-06
2.07929e-06
2.08014e-06
2.08066e-06
2.08086e-06
2.08073e-06
2.08027e-06
2.07948e-06
2.07836e-06
2.07687e-06
2.07501e-06
2.07292e-06
2.07087e-06
2.07144e-06
2.07336e-06
2.07525e-06
2.07707e-06
2.07862e-06
2.07981e-06
2.08066e-06
2.08118e-06
2.08138e-06
2.08125e-06
2.08079e-06
2.08001e-06
2.07889e-06
2.07741e-06
2.07557e-06
2.07349e-06
2.07145e-06
2.07166e-06
2.07358e-06
2.07546e-06
2.07728e-06
2.07883e-06
2.08001e-06
2.08086e-06
2.08138e-06
2.08158e-06
2.08145e-06
2.08099e-06
2.08021e-06
2.07909e-06
2.07762e-06
2.07578e-06
2.07371e-06
2.07166e-06
2.07152e-06
2.07343e-06
2.07532e-06
2.07714e-06
2.07869e-06
2.07988e-06
2.08073e-06
2.08125e-06
2.08145e-06
2.08132e-06
2.08086e-06
2.08008e-06
2.07896e-06
2.07748e-06
2.07564e-06
2.07356e-06
2.07152e-06
2.07101e-06
2.07293e-06
2.07483e-06
2.07666e-06
2.07822e-06
2.07942e-06
2.08027e-06
2.08079e-06
2.08099e-06
2.08086e-06
2.0804e-06
2.07962e-06
2.07849e-06
2.07701e-06
2.07515e-06
2.07306e-06
2.07102e-06
2.07014e-06
2.07206e-06
2.07398e-06
2.07583e-06
2.07741e-06
2.07862e-06
2.07948e-06
2.08001e-06
2.08021e-06
2.08008e-06
2.07962e-06
2.07882e-06
2.07768e-06
2.07618e-06
2.07431e-06
2.07219e-06
2.07014e-06
2.06891e-06
2.07083e-06
2.07278e-06
2.07466e-06
2.07625e-06
2.07748e-06
2.07836e-06
2.07889e-06
2.07909e-06
2.07896e-06
2.07849e-06
2.07768e-06
2.07653e-06
2.07501e-06
2.07311e-06
2.07095e-06
2.06891e-06
2.06727e-06
2.06919e-06
2.07118e-06
2.0731e-06
2.07473e-06
2.07598e-06
2.07687e-06
2.07741e-06
2.07762e-06
2.07748e-06
2.07701e-06
2.07618e-06
2.07501e-06
2.07345e-06
2.07152e-06
2.06932e-06
2.06727e-06
2.06515e-06
2.06712e-06
2.06918e-06
2.07115e-06
2.07282e-06
2.0741e-06
2.07501e-06
2.07557e-06
2.07578e-06
2.07564e-06
2.07515e-06
2.07431e-06
2.07311e-06
2.07152e-06
2.06953e-06
2.06726e-06
2.06516e-06
2.06291e-06
2.06486e-06
2.06691e-06
2.06894e-06
2.07066e-06
2.07198e-06
2.07292e-06
2.07349e-06
2.07371e-06
2.07356e-06
2.07306e-06
2.07219e-06
2.07095e-06
2.06932e-06
2.06726e-06
2.06501e-06
2.06291e-06
2.06037e-06
2.06274e-06
2.06481e-06
2.0669e-06
2.06862e-06
2.06993e-06
2.07087e-06
2.07145e-06
2.07166e-06
2.07152e-06
2.07102e-06
2.07014e-06
2.06891e-06
2.06727e-06
2.06515e-06
2.06291e-06
2.06037e-06
2.01631e-06
2.01861e-06
2.02063e-06
2.02271e-06
2.0244e-06
2.02571e-06
2.02665e-06
2.02722e-06
2.02744e-06
2.02729e-06
2.02679e-06
2.02592e-06
2.02469e-06
2.02308e-06
2.02096e-06
2.01878e-06
2.01631e-06
2.01861e-06
2.02054e-06
2.02257e-06
2.0246e-06
2.02631e-06
2.02763e-06
2.02857e-06
2.02915e-06
2.02937e-06
2.02922e-06
2.02871e-06
2.02784e-06
2.0266e-06
2.02497e-06
2.02291e-06
2.02069e-06
2.01861e-06
2.02063e-06
2.02257e-06
2.02462e-06
2.0266e-06
2.02828e-06
2.02957e-06
2.0305e-06
2.03106e-06
2.03127e-06
2.03113e-06
2.03063e-06
2.02978e-06
2.02857e-06
2.02696e-06
2.02496e-06
2.02271e-06
2.02063e-06
2.02271e-06
2.0246e-06
2.0266e-06
2.02853e-06
2.03018e-06
2.03145e-06
2.03236e-06
2.03292e-06
2.03313e-06
2.03299e-06
2.0325e-06
2.03166e-06
2.03046e-06
2.02889e-06
2.02693e-06
2.02472e-06
2.02271e-06
2.0244e-06
2.02631e-06
2.02828e-06
2.03018e-06
2.0318e-06
2.03306e-06
2.03395e-06
2.0345e-06
2.03471e-06
2.03457e-06
2.03409e-06
2.03326e-06
2.03208e-06
2.03053e-06
2.02861e-06
2.02643e-06
2.0244e-06
2.02571e-06
2.02763e-06
2.02957e-06
2.03145e-06
2.03306e-06
2.0343e-06
2.03518e-06
2.03572e-06
2.03593e-06
2.03579e-06
2.03531e-06
2.0345e-06
2.03333e-06
2.0318e-06
2.0299e-06
2.02775e-06
2.02571e-06
2.02665e-06
2.02857e-06
2.0305e-06
2.03236e-06
2.03395e-06
2.03518e-06
2.03606e-06
2.03659e-06
2.0368e-06
2.03666e-06
2.03619e-06
2.03538e-06
2.03423e-06
2.03271e-06
2.03082e-06
2.0287e-06
2.02665e-06
2.02722e-06
2.02915e-06
2.03106e-06
2.03291e-06
2.0345e-06
2.03572e-06
2.03659e-06
2.03713e-06
2.03733e-06
2.0372e-06
2.03672e-06
2.03592e-06
2.03477e-06
2.03326e-06
2.03138e-06
2.02927e-06
2.02722e-06
2.02744e-06
2.02937e-06
2.03127e-06
2.03313e-06
2.03471e-06
2.03593e-06
2.0368e-06
2.03733e-06
2.03753e-06
2.0374e-06
2.03693e-06
2.03612e-06
2.03498e-06
2.03347e-06
2.03159e-06
2.02949e-06
2.02744e-06
2.02729e-06
2.02922e-06
2.03113e-06
2.03299e-06
2.03457e-06
2.03579e-06
2.03666e-06
2.0372e-06
2.0374e-06
2.03726e-06
2.03679e-06
2.03599e-06
2.03484e-06
2.03333e-06
2.03145e-06
2.02935e-06
2.02729e-06
2.02679e-06
2.02871e-06
2.03063e-06
2.0325e-06
2.03409e-06
2.03531e-06
2.03619e-06
2.03673e-06
2.03693e-06
2.03679e-06
2.03632e-06
2.03551e-06
2.03436e-06
2.03284e-06
2.03096e-06
2.02884e-06
2.02679e-06
2.02592e-06
2.02784e-06
2.02978e-06
2.03166e-06
2.03326e-06
2.0345e-06
2.03538e-06
2.03592e-06
2.03612e-06
2.03599e-06
2.03551e-06
2.0347e-06
2.03354e-06
2.03201e-06
2.0301e-06
2.02796e-06
2.02592e-06
2.02469e-06
2.0266e-06
2.02857e-06
2.03046e-06
2.03208e-06
2.03333e-06
2.03423e-06
2.03477e-06
2.03498e-06
2.03484e-06
2.03436e-06
2.03354e-06
2.03236e-06
2.03082e-06
2.02889e-06
2.02672e-06
2.02469e-06
2.02308e-06
2.02497e-06
2.02696e-06
2.02889e-06
2.03053e-06
2.0318e-06
2.03271e-06
2.03326e-06
2.03347e-06
2.03333e-06
2.03284e-06
2.03201e-06
2.03082e-06
2.02925e-06
2.0273e-06
2.0251e-06
2.02308e-06
2.02096e-06
2.02291e-06
2.02496e-06
2.02693e-06
2.02861e-06
2.0299e-06
2.03082e-06
2.03138e-06
2.0316e-06
2.03145e-06
2.03096e-06
2.03011e-06
2.0289e-06
2.0273e-06
2.0253e-06
2.02304e-06
2.02096e-06
2.01878e-06
2.02069e-06
2.02271e-06
2.02472e-06
2.02643e-06
2.02775e-06
2.0287e-06
2.02927e-06
2.02949e-06
2.02935e-06
2.02884e-06
2.02796e-06
2.02672e-06
2.0251e-06
2.02304e-06
2.02084e-06
2.01878e-06
2.01631e-06
2.01861e-06
2.02063e-06
2.02271e-06
2.0244e-06
2.02571e-06
2.02665e-06
2.02722e-06
2.02744e-06
2.02729e-06
2.02679e-06
2.02592e-06
2.02469e-06
2.02308e-06
2.02096e-06
2.01878e-06
2.01631e-06
1.97526e-06
1.97738e-06
1.97926e-06
1.98122e-06
1.98281e-06
1.98406e-06
1.98494e-06
1.98549e-06
1.9857e-06
1.98556e-06
1.98508e-06
1.98425e-06
1.98308e-06
1.98157e-06
1.97957e-06
1.97754e-06
1.97526e-06
1.97738e-06
1.97919e-06
1.98108e-06
1.983e-06
1.98461e-06
1.98587e-06
1.98678e-06
1.98733e-06
1.98754e-06
1.9874e-06
1.98691e-06
1.98608e-06
1.98489e-06
1.98335e-06
1.98139e-06
1.97932e-06
1.97738e-06
1.97926e-06
1.98108e-06
1.98302e-06
1.9849e-06
1.9865e-06
1.98774e-06
1.98862e-06
1.98917e-06
1.98937e-06
1.98923e-06
1.98876e-06
1.98794e-06
1.98677e-06
1.98524e-06
1.98334e-06
1.98121e-06
1.97926e-06
1.98122e-06
1.983e-06
1.9849e-06
1.98674e-06
1.98832e-06
1.98954e-06
1.99042e-06
1.99096e-06
1.99116e-06
1.99103e-06
1.99055e-06
1.98974e-06
1.98859e-06
1.98708e-06
1.98521e-06
1.98312e-06
1.98122e-06
1.98281e-06
1.98461e-06
1.9865e-06
1.98832e-06
1.98989e-06
1.9911e-06
1.99197e-06
1.9925e-06
1.9927e-06
1.99257e-06
1.9921e-06
1.99129e-06
1.99015e-06
1.98866e-06
1.98681e-06
1.98473e-06
1.9828e-06
1.98405e-06
1.98587e-06
1.98774e-06
1.98954e-06
1.9911e-06
1.9923e-06
1.99316e-06
1.99369e-06
1.99389e-06
1.99376e-06
1.99329e-06
1.9925e-06
1.99137e-06
1.98988e-06
1.98805e-06
1.98599e-06
1.98405e-06
1.98494e-06
1.98678e-06
1.98862e-06
1.99042e-06
1.99197e-06
1.99316e-06
1.99402e-06
1.99454e-06
1.99474e-06
1.99461e-06
1.99415e-06
1.99336e-06
1.99223e-06
1.99076e-06
1.98893e-06
1.98689e-06
1.98494e-06
1.98549e-06
1.98733e-06
1.98917e-06
1.99096e-06
1.9925e-06
1.99369e-06
1.99454e-06
1.99507e-06
1.99526e-06
1.99513e-06
1.99467e-06
1.99388e-06
1.99276e-06
1.99129e-06
1.98947e-06
1.98745e-06
1.98549e-06
1.9857e-06
1.98754e-06
1.98937e-06
1.99116e-06
1.9927e-06
1.99389e-06
1.99474e-06
1.99526e-06
1.99546e-06
1.99533e-06
1.99487e-06
1.99408e-06
1.99297e-06
1.9915e-06
1.98968e-06
1.98766e-06
1.98569e-06
1.98556e-06
1.9874e-06
1.98923e-06
1.99103e-06
1.99257e-06
1.99376e-06
1.99461e-06
1.99513e-06
1.99533e-06
1.9952e-06
1.99474e-06
1.99395e-06
1.99283e-06
1.99136e-06
1.98954e-06
1.98752e-06
1.98555e-06
1.98508e-06
1.98691e-06
1.98876e-06
1.99055e-06
1.9921e-06
1.99329e-06
1.99415e-06
1.99467e-06
1.99487e-06
1.99474e-06
1.99428e-06
1.99349e-06
1.99236e-06
1.99089e-06
1.98907e-06
1.98703e-06
1.98508e-06
1.98425e-06
1.98608e-06
1.98793e-06
1.98974e-06
1.99129e-06
1.9925e-06
1.99336e-06
1.99388e-06
1.99408e-06
1.99395e-06
1.99349e-06
1.99269e-06
1.99156e-06
1.99008e-06
1.98825e-06
1.98619e-06
1.98425e-06
1.98308e-06
1.98489e-06
1.98677e-06
1.98859e-06
1.99016e-06
1.99137e-06
1.99223e-06
1.99276e-06
1.99297e-06
1.99283e-06
1.99236e-06
1.99156e-06
1.99042e-06
1.98893e-06
1.98708e-06
1.98501e-06
1.98308e-06
1.98157e-06
1.98335e-06
1.98524e-06
1.98708e-06
1.98866e-06
1.98988e-06
1.99076e-06
1.9913e-06
1.9915e-06
1.99136e-06
1.99089e-06
1.99008e-06
1.98893e-06
1.98742e-06
1.98556e-06
1.98347e-06
1.98157e-06
1.97957e-06
1.9814e-06
1.98334e-06
1.98521e-06
1.98681e-06
1.98805e-06
1.98893e-06
1.98948e-06
1.98968e-06
1.98954e-06
1.98907e-06
1.98825e-06
1.98709e-06
1.98556e-06
1.98366e-06
1.98152e-06
1.97957e-06
1.97754e-06
1.97933e-06
1.98121e-06
1.98312e-06
1.98473e-06
1.98599e-06
1.9869e-06
1.98745e-06
1.98766e-06
1.98752e-06
1.98703e-06
1.98619e-06
1.98501e-06
1.98347e-06
1.98152e-06
1.97946e-06
1.97754e-06
1.97526e-06
1.97738e-06
1.97926e-06
1.98122e-06
1.98281e-06
1.98405e-06
1.98494e-06
1.98549e-06
1.98569e-06
1.98556e-06
1.98508e-06
1.98425e-06
1.98308e-06
1.98157e-06
1.97957e-06
1.97754e-06
1.97525e-06
1.93685e-06
1.93876e-06
1.94045e-06
1.94224e-06
1.94368e-06
1.94483e-06
1.94565e-06
1.94615e-06
1.94634e-06
1.94621e-06
1.94577e-06
1.94501e-06
1.94393e-06
1.94256e-06
1.94073e-06
1.93889e-06
1.93684e-06
1.93876e-06
1.94039e-06
1.94211e-06
1.94386e-06
1.94534e-06
1.9465e-06
1.94733e-06
1.94784e-06
1.94804e-06
1.94791e-06
1.94746e-06
1.94669e-06
1.94559e-06
1.94418e-06
1.94239e-06
1.94052e-06
1.93875e-06
1.94045e-06
1.94211e-06
1.94388e-06
1.9456e-06
1.94708e-06
1.94822e-06
1.94904e-06
1.94955e-06
1.94974e-06
1.94961e-06
1.94917e-06
1.94841e-06
1.94733e-06
1.94592e-06
1.94417e-06
1.94222e-06
1.94045e-06
1.94224e-06
1.94386e-06
1.9456e-06
1.9473e-06
1.94876e-06
1.9499e-06
1.95072e-06
1.95122e-06
1.95141e-06
1.95128e-06
1.95084e-06
1.95008e-06
1.94901e-06
1.94761e-06
1.94589e-06
1.94397e-06
1.94224e-06
1.94368e-06
1.94534e-06
1.94707e-06
1.94876e-06
1.95022e-06
1.95135e-06
1.95216e-06
1.95266e-06
1.95285e-06
1.95272e-06
1.95228e-06
1.95153e-06
1.95047e-06
1.94908e-06
1.94736e-06
1.94544e-06
1.94368e-06
1.94483e-06
1.9465e-06
1.94822e-06
1.9499e-06
1.95135e-06
1.95248e-06
1.95328e-06
1.95378e-06
1.95397e-06
1.95384e-06
1.9534e-06
1.95266e-06
1.9516e-06
1.95021e-06
1.94851e-06
1.94661e-06
1.94483e-06
1.94564e-06
1.94733e-06
1.94904e-06
1.95072e-06
1.95216e-06
1.95328e-06
1.95409e-06
1.95458e-06
1.95477e-06
1.95464e-06
1.95421e-06
1.95346e-06
1.95241e-06
1.95103e-06
1.94933e-06
1.94744e-06
1.94564e-06
1.94615e-06
1.94784e-06
1.94955e-06
1.95122e-06
1.95266e-06
1.95378e-06
1.95458e-06
1.95508e-06
1.95526e-06
1.95514e-06
1.9547e-06
1.95396e-06
1.95291e-06
1.95153e-06
1.94983e-06
1.94795e-06
1.94614e-06
1.94634e-06
1.94804e-06
1.94974e-06
1.95141e-06
1.95285e-06
1.95397e-06
1.95477e-06
1.95526e-06
1.95545e-06
1.95532e-06
1.95489e-06
1.95415e-06
1.9531e-06
1.95172e-06
1.95003e-06