/*--------------------------------*- C++ -*----------------------------------*\
  =========                 |
  \\      /  F ield         | OpenFOAM: The Open Source CFD Toolbox
   \\    /   O peration     | Website:  https://openfoam.org
    \\  /    A nd           | Version:  6
     \\/     M anipulation  |
\*---------------------------------------------------------------------------*/
FoamFile
{
    version     2.0;
    format      ascii;
    class       volScalarField;
    location    "./ITHACAoutput/Offline/1";
    object      P_rec;
}
// * * * * * * * * * * * * * * * * * * * * * * * * * * * * * * * * * * * * * //

dimensions      [0 2 -2 0 0 0 0];

internalField   nonuniform List<scalar> 
13046
(
0.846218
0.798134
0.828374
0.853006
0.840163
0.802433
0.840948
0.797174
0.840054
0.688463
0.303197
0.829752
0.845523
0.750955
0.827688
0.734625
0.811416
0.373639
0.856745
0.82468
0.835047
0.726047
0.816987
0.364612
0.849876
0.822324
0.826946
0.835992
0.745027
0.82401
0.854224
0.783204
0.820763
0.851449
0.837116
0.822224
0.846442
0.840841
0.828664
0.849528
0.805327
0.793158
0.837178
0.84959
0.838731
0.845716
0.840395
0.832212
0.839661
0.787605
0.831147
0.766799
0.850487
0.76788
0.762888
0.762614
0.852794
0.578782
0.813531
0.796767
0.8082
0.690153
0.84044
0.826803
0.487013
0.75819
0.821056
0.600263
0.790923
0.82843
0.625955
0.790415
0.539486
0.80491
0.797015
0.856055
0.828951
0.825611
0.804165
0.786086
0.503354
0.847307
0.813345
0.828369
0.824565
0.446161
0.740597
0.735277
0.842819
0.510196
0.854788
0.692947
0.505081
0.81304
0.80159
0.647743
0.622539
0.82117
0.826297
0.846681
0.733783
0.530855
0.84857
0.844208
0.823808
0.852657
0.788198
0.767832
0.848797
0.789621
0.788888
0.61104
0.830041
0.148106
0.849641
0.771004
0.825715
0.80359
0.812292
0.597791
0.814254
0.635568
0.814529
0.674092
0.262427
0.828852
0.831345
0.689929
0.825037
0.849128
0.808355
0.78458
0.85395
0.702943
0.541836
0.783914
0.579714
0.833061
0.852404
0.767185
0.817142
0.829588
0.768155
0.840197
0.847165
0.778099
0.791815
0.852107
0.805957
0.783965
0.806281
0.664299
0.840616
0.853019
0.819725
0.794303
0.725902
0.766705
0.706782
0.765641
0.85208
0.852978
0.824949
0.756276
0.848165
0.678352
0.834294
0.317836
0.639369
0.8287
0.186073
0.779015
0.551835
0.82976
0.84986
0.741757
0.800619
0.826364
0.848905
0.768754
0.841407
0.368881
0.687972
0.849911
0.761642
0.797243
0.85242
0.809362
0.783235
0.83503
0.778602
0.84014
0.732435
0.835767
0.835054
0.714686
0.823288
0.731347
0.837447
0.461418
0.850892
0.726797
0.554599
0.699837
0.481633
0.850443
0.756082
0.737137
0.847401
0.837228
0.792924
0.798919
0.507776
0.444651
0.697481
0.850817
0.843584
0.843266
0.824448
0.840834
0.758308
0.819081
0.853279
0.715053
0.56065
0.833551
0.74025
0.838882
0.837262
0.247403
0.63704
0.848292
0.740373
0.74206
0.715712
0.518187
0.848728
0.786431
0.730607
0.851564
0.826386
0.68876
0.823536
0.62696
0.722045
0.85323
0.753975
0.686733
0.852068
0.839161
0.236655
0.619982
0.852639
0.792818
0.769191
0.630043
0.820497
0.104774
0.850347
0.844475
0.818227
0.804353
0.799488
0.724903
0.740782
0.85
0.844793
0.799486
0.778541
0.470158
0.834823
0.712589
0.815363
0.747945
0.660438
0.853497
0.790396
0.583431
0.82161
0.840972
0.833858
0.847293
0.779619
0.709643
0.851623
0.836478
0.698368
0.812735
0.834987
0.833758
0.853852
0.785347
0.75291
0.77811
0.68936
0.850171
0.775582
0.822924
0.556491
0.856098
0.792865
0.784709
0.853591
0.748213
0.718606
0.814895
0.623398
0.804493
0.851295
0.774152
0.756689
0.804756
0.801019
0.594433
0.805125
0.58133
0.8109
0.836717
0.393054
0.700756
0.816855
0.658596
0.813563
0.0416193
0.830768
0.564064
0.838761
0.850734
0.795123
0.81835
0.711135
0.838061
0.835067
0.745082
0.498155
0.750811
0.75026
0.852242
0.599777
0.718958
0.853217
0.765744
0.83371
0.811792
0.69396
0.832015
0.760467
0.841355
0.751107
0.81028
0.412466
0.762986
0.716561
0.849299
0.805118
0.67184
0.829588
0.816765
0.758332
0.846541
0.785606
0.765696
0.85191
0.848663
0.792951
0.833775
0.850255
0.753053
0.73107
0.715756
0.467303
0.841249
0.598564
0.722616
0.852966
0.830483
0.787186
0.667348
0.796566
0.802601
0.572536
0.540893
0.799649
0.801005
0.826967
0.0643071
0.586534
0.644745
0.819821
0.135187
0.801626
0.709536
0.84401
0.835854
0.726622
0.428101
0.821302
0.819947
0.642103
0.626022
0.800593
0.800224
0.851076
0.386147
0.65633
0.619471
0.820879
0.061187
0.829247
0.853025
0.832381
0.612556
0.108242
0.827145
0.847652
0.734693
0.799025
0.69224
0.38912
0.844957
0.0432076
0.834799
0.515646
0.85015
0.806188
0.806998
0.841242
0.820713
0.843173
0.676893
0.826098
0.255105
0.835412
0.808532
0.843685
0.83293
0.850105
0.837519
0.853481
0.727454
0.734926
0.826505
0.821245
0.849668
0.839413
0.798828
0.852237
0.835298
0.684758
0.783425
0.823175
0.8289
0.359739
0.354995
0.715682
0.708408
0.696402
0.440226
0.842339
0.791549
0.829603
0.640354
0.848531
0.792398
0.774969
0.74198
0.684777
0.850662
0.155818
0.843332
0.549027
0.853383
0.689145
0.476742
0.649901
0.831984
0.227075
0.832823
0.00550002
0.510952
-0.0315596
0.826481
0.538862
0.655999
0.781946
0.844321
0.293111
0.850257
0.60935
0.769218
0.567761
0.836079
0.718693
0.806372
0.287568
0.844478
0.830876
0.782544
0.419475
0.852403
0.671197
0.742464
0.850407
0.701128
0.646861
0.749218
0.852334
0.827896
-0.141707
0.45824
0.0679501
0.834078
0.548559
0.848698
0.837304
0.791697
0.368181
0.654385
0.846734
0.852988
0.633243
0.360177
0.723916
0.828462
0.422155
0.805789
0.468295
0.768495
0.842384
0.682596
0.782406
0.59044
0.81138
0.802488
0.805001
0.760377
0.400278
0.842265
0.839018
0.734115
0.711129
0.808768
0.811811
0.845246
0.744111
0.805076
0.828818
0.63999
0.79943
0.619485
0.736977
0.851679
0.43134
0.696095
0.847871
0.849538
0.741999
0.589253
-0.0142086
0.82635
0.557896
0.854594
0.852247
0.817866
0.794956
0.824151
0.797308
0.840513
0.834905
0.796555
0.684171
0.797065
0.710835
0.0734276
0.839701
0.515294
0.386394
0.665237
0.846065
0.845831
0.778999
0.746373
0.650575
0.730756
0.853617
0.80375
0.490551
0.777193
0.153428
0.593621
0.836334
0.192171
0.602908
0.839665
0.820981
0.638001
0.807242
0.857207
0.789637
0.797033
0.716679
0.829482
0.384978
0.638007
0.764463
0.847269
0.825275
0.517029
0.770252
0.837514
0.795122
0.71839
0.791217
0.744751
0.850818
0.85092
0.798656
0.785422
0.83361
0.367604
0.70114
0.792058
0.57325
0.816557
0.853402
0.812687
0.806329
0.746911
0.803899
0.356108
0.843455
0.76747
0.816666
0.831864
0.784152
0.848618
0.663885
0.766298
0.849839
0.677593
0.815056
0.189443
0.690737
0.812181
0.210842
0.820837
0.505699
0.771144
0.781556
0.747107
0.850167
0.814241
0.137865
0.656643
0.837597
0.532028
0.757954
0.834377
-0.0199832
0.487277
0.524875
-0.0763796
0.824196
0.809039
0.42229
0.761804
0.837639
0.29721
0.66125
0.734866
0.744054
0.818902
0.391864
0.820121
0.432158
0.747985
0.539938
0.840391
0.855782
0.667065
0.72248
0.857152
0.825959
0.803547
0.753257
0.577439
0.846665
0.848515
0.757847
0.599036
0.77096
0.801438
0.426499
0.837645
0.662875
0.795955
0.841856
0.716414
0.795867
0.784962
0.642547
0.839661
0.777746
0.633362
0.843701
0.855193
0.810477
0.817769
0.837741
0.698012
0.811832
0.855012
0.434497
0.662284
0.585558
0.843531
0.20413
0.568773
0.843971
0.194364
0.848612
0.806606
0.768522
0.118246
0.836408
0.564986
0.783127
0.817148
0.533674
0.839788
0.123676
0.543853
0.850861
0.843617
0.811655
0.830288
0.715201
0.829315
0.75534
0.777793
0.851495
0.850159
0.320938
0.627059
0.641144
0.763831
0.849991
0.806754
0.734682
0.335477
0.818489
0.694686
0.829285
0.856648
0.829747
0.810237
0.325675
0.645361
0.847361
0.831476
0.508235
0.758014
0.665874
0.650114
0.820631
0.822799
0.212086
0.178052
0.812825
0.738705
0.84694
0.677
0.788817
0.844197
0.83208
0.790461
0.843441
0.251211
0.604794
0.259167
0.845405
0.602712
0.848387
0.801822
0.636132
0.832534
0.645365
0.625473
0.301274
0.266215
0.844131
0.843352
0.781955
0.6949
0.849148
0.82299
0.734318
0.835073
0.705658
0.812218
0.267018
0.823827
0.729075
0.844635
0.836173
0.774217
0.841063
0.68005
0.816982
0.21711
0.822937
0.673242
0.822637
0.70849
0.726726
0.85208
0.841113
0.704366
0.789654
0.564354
0.85489
0.698673
0.828845
-0.103718
0.479438
0.817417
0.714754
0.835059
0.715996
0.815523
0.320145
0.773999
0.699782
0.8457
0.57016
0.820303
-0.00565637
0.851961
0.851153
0.789581
0.810928
0.788281
0.810603
0.836807
0.791303
0.846483
0.85092
0.851413
0.799726
0.812608
0.806735
0.810837
0.822808
0.747144
0.842619
0.826943
0.748642
0.844656
0.847825
0.224275
0.573806
0.848017
0.762494
0.804315
0.664558
0.322187
0.840929
0.783399
0.774617
0.620694
0.590773
0.836524
0.836783
0.844765
0.778353
0.810452
0.827847
0.666822
0.799696
0.800316
0.661138
0.836948
0.851836
0.825565
0.828003
0.767076
0.597426
0.844237
0.854387
0.817401
0.809932
0.795218
0.693545
0.846344
0.827036
0.681568
0.80082
0.850376
0.851261
0.820502
0.830055
0.823984
0.824412
0.853948
0.804562
0.853583
0.825198
0.816475
0.816545
0.843123
0.842187
0.744737
0.737924
0.813801
0.812241
0.809709
0.483785
0.7743
0.850473
0.738891
0.725482
0.815263
0.818296
0.450719
0.462106
0.760794
0.75732
0.849493
0.773741
0.744462
0.84933
0.838013
0.832727
0.766021
0.576465
0.841496
0.853843
0.811809
0.780698
0.824101
0.668208
0.803898
0.792618
0.793532
0.530063
0.808672
0.544815
0.810358
0.791251
0.614563
0.831726
0.589162
0.0382725
0.821056
0.76918
0.718989
0.846163
0.842318
0.843139
0.777937
0.700993
0.784148
0.714908
0.748319
0.613912
0.850711
0.82994
0.685652
0.800874
0.849672
0.773354
0.734904
0.840841
0.845378
0.786917
0.798029
0.741539
0.733683
0.840372
0.789317
0.720762
0.792085
0.630336
0.835584
0.853847
0.817196
0.818283
0.691478
0.820322
0.278383
0.848627
0.774906
0.720108
0.829011
0.820815
0.673596
0.65146
0.805259
0.811817
0.81937
0.31789
0.711068
0.707485
0.816485
0.284639
0.692527
0.816969
0.256056
0.784545
0.812894
0.522162
0.833249
0.706246
0.80388
0.342047
0.470952
0.725216
0.348532
0.638757
0.128663
0.560406
0.440596
0.269866
0.634477
0.6323
0.233649
0.346682
0.622341
0.447747
0.34674
0.385179
0.413631
0.469168
0.586745
0.492541
0.406311
0.659803
0.80248
0.739687
0.47607
0.651833
0.248969
0.515397
0.337292
0.26302
0.561256
0.467865
0.475171
0.299484
0.484474
0.715336
0.651031
0.406708
0.526466
0.374619
0.816561
0.324892
0.62508
0.68327
0.399232
0.405409
0.34141
0.244238
0.323177
0.750715
0.503004
0.346052
0.378778
0.25975
0.746836
0.585173
0.47678
0.330659
0.610971
0.31756
0.33608
0.743183
0.461268
0.473017
0.590041
0.505311
0.778526
0.653581
0.637336
0.194705
0.243249
0.39695
0.607286
0.230008
0.476414
0.475072
0.291703
0.602157
0.691623
0.414914
0.463515
0.254219
0.323257
0.38398
0.610776
0.386008
0.386705
0.434611
0.750997
0.344852
0.612025
0.735307
0.481213
0.350561
0.0718842
0.298516
0.3455
0.348322
0.192924
0.534434
0.665329
0.691339
0.778637
0.333906
0.362228
0.250462
0.354941
0.300874
0.715083
0.67439
0.585468
0.299191
0.246748
0.541135
0.65695
0.411678
0.386645
0.174816
0.408827
0.46458
0.750711
0.767491
0.614626
0.484329
0.403902
0.231677
0.770506
0.298751
0.602992
0.182282
0.743782
0.25538
0.294049
0.326972
0.691468
0.463888
0.145462
0.323018
0.572748
0.343001
0.620449
0.55305
0.354149
0.679072
0.37529
0.321035
0.703538
0.331995
0.416539
0.237496
0.499418
0.402889
0.68933
0.613777
0.406567
0.606313
0.620917
0.725801
0.479098
0.39213
0.349223
0.626348
0.297135
0.523721
0.256032
0.804631
0.408084
0.691245
0.770231
0.496855
0.775199
0.694707
0.725714
0.292687
0.176844
0.231214
0.729123
0.292265
0.271231
0.292567
0.273494
0.422038
0.374764
0.495194
0.76943
0.611716
0.3815
0.597008
0.360672
0.812064
0.262713
0.67195
0.346533
0.157994
0.752753
0.777231
0.339972
0.346371
0.801594
0.521796
0.402801
0.307086
0.612485
0.711488
0.589004
0.340417
0.332399
0.639947
0.486354
0.298132
0.542965
0.300656
0.275908
0.404862
0.641868
0.182647
0.429549
0.669903
0.376703
0.176782
0.397596
0.348043
0.400915
0.548941
0.563561
0.325744
0.265932
0.319781
0.59152
0.585371
0.417272
0.572698
0.381189
0.292488
0.53384
0.380567
0.160067
0.586098
0.702145
0.511275
0.738528
0.71171
0.819486
0.349245
0.131298
0.434864
0.399766
0.393322
0.189134
0.532017
0.741604
0.590434
0.528146
0.333738
0.42195
0.609564
0.481718
0.563891
0.33648
0.431679
0.374504
0.289067
0.322086
0.354539
0.349191
0.280981
0.569145
0.483007
0.40461
0.575483
0.356017
0.42746
0.320488
0.401518
0.381409
0.354368
0.522449
0.200759
0.132598
0.443399
0.227192
0.195337
0.528795
0.265846
0.194357
0.696918
0.578928
0.321178
0.595907
0.269835
0.568069
0.53879
0.305821
0.353242
0.659741
0.441219
0.611696
0.133155
0.314591
0.696136
0.36765
0.329844
0.104771
0.208368
0.173415
0.221675
0.376341
0.581823
0.287548
0.169404
0.302393
0.364976
0.814417
0.357811
0.612115
0.524417
0.279618
0.413899
0.324572
0.251435
0.553372
0.381312
0.747686
0.588242
0.326114
0.388003
0.503996
0.80131
0.602865
0.718827
0.620965
0.383659
0.497881
0.421488
0.294624
0.206551
0.351462
0.386218
0.573613
0.324098
0.232409
0.347516
0.412954
0.345311
0.375392
0.677182
0.395282
0.357572
0.73652
0.675478
0.317873
0.502038
0.711407
0.328942
0.257708
0.390644
0.292525
0.254979
0.701767
0.304236
0.422884
0.715597
0.189411
0.494796
0.329589
0.493768
0.391478
0.344242
0.0945395
0.425281
0.229347
0.36077
0.398784
0.39989
0.600041
0.744437
0.344452
0.496685
0.40784
0.329681
0.154828
0.662769
0.550756
0.368378
0.230735
0.520798
0.234038
0.357944
0.339298
0.308603
0.622776
0.731972
0.377379
0.601493
0.783774
0.675986
0.667443
0.723595
0.397871
0.366976
0.257318
0.801229
0.653429
0.694418
0.334544
0.389354
0.166586
0.616392
0.405039
0.354476
0.69605
0.568102
0.306768
0.4206
0.324612
0.346539
0.330897
0.388949
0.403385
0.290493
0.38256
0.214371
0.415246
0.288936
0.564773
0.473876
0.182025
0.716991
0.737504
0.616393
0.355582
0.50232
0.263308
0.634603
0.488417
0.242534
0.710555
0.20172
0.749484
0.209543
0.417054
0.445254
0.616978
0.638041
0.348527
0.772601
0.362709
0.672296
0.413389
0.564972
0.369764
0.341199
0.348477
0.675389
0.445319
0.795898
0.595267
0.207217
0.359509
0.562052
0.218634
0.359855
0.41734
0.283854
0.754438
0.317287
0.298072
0.643179
0.342266
0.747866
0.786032
0.398286
0.796007
0.759651
0.685548
0.701367
0.513594
0.249093
0.317558
0.397292
0.662576
0.407585
0.204226
0.771477
0.285755
0.425236
0.309844
0.723165
0.808437
0.284812
0.676862
0.529966
0.742812
0.425035
0.623517
0.411669
0.772316
0.791872
0.573344
0.316802
0.640548
0.382737
0.493244
0.477403
0.429354
0.533441
0.373051
0.204079
0.262637
0.442638
0.547192
0.495602
0.694095
0.298984
0.406552
0.555507
0.264112
0.731975
0.338595
0.411866
0.714429
0.688208
0.512891
0.77969
0.33445
0.381208
0.624272
0.47997
0.465854
0.417515
0.352986
0.563592
0.590224
0.354411
0.334768
0.508803
0.203274
0.287525
0.748927
0.778091
0.792875
0.444961
0.78796
0.805092
0.760917
0.146298
0.523555
0.526858
0.776962
0.368085
0.345671
0.235623
0.316549
0.179309
0.769511
0.440304
0.456244
0.629467
0.578743
0.368797
0.409625
0.805278
0.765109
0.71912
0.578119
0.36268
0.605022
0.554412
0.370441
0.45262
0.252972
0.307126
0.482836
0.444094
0.371305
0.744072
0.748121
0.15667
0.688566
0.339589
0.346579
0.400087
0.737208
0.408796
0.586965
0.427146
0.720488
0.384713
0.425095
0.786493
0.158689
0.203657
0.331053
0.296237
0.129919
0.0341376
0.30448
0.127016
0.452503
0.152355
0.25938
0.44695
0.345705
0.310652
0.380088
0.236369
0.0693435
0.758128
0.665847
0.388589
0.238684
0.668419
0.371139
0.345882
0.789295
0.310207
0.785622
0.417666
0.699047
0.439461
0.26788
0.255405
0.494891
0.495472
0.454905
0.272426
0.386877
0.263856
0.294968
0.36495
0.183123
0.244159
0.764958
0.336348
0.60334
0.636903
0.370938
0.637454
0.641779
0.238571
0.0439977
0.416813
0.205583
0.13748
0.599569
0.617506
0.392792
0.551555
0.376098
0.786697
0.756872
0.424845
0.362739
0.774864
0.702757
0.535611
0.538642
0.38097
0.790104
0.488432
0.153917
0.725683
0.65825
0.746828
0.493112
0.317088
0.396792
0.621156
0.560054
-0.0258384
0.821975
0.414917
0.329589
0.485554
0.683628
0.776626
0.793769
0.555626
0.459742
0.653016
0.708668
0.710618
0.595353
0.661668
0.280053
0.348728
0.515953
0.259342
0.271378
0.186625
0.410685
0.645129
0.208209
0.482725
0.360223
0.659036
0.79445
0.442605
0.244306
0.176752
0.615191
0.35064
0.314124
0.17034
0.724494
0.514245
0.530817
0.231014
0.523199
0.307531
0.33579
0.612736
0.642044
0.725257
0.807546
0.30644
0.710494
0.155739
0.726818
0.734844
0.744811
0.642853
0.286256
0.286119
0.401694
0.156039
0.480039
0.181817
0.534512
0.237555
0.69661
0.374723
0.168956
0.690684
0.619408
0.433069
0.432758
0.593571
0.728999
0.504582
0.462118
0.161818
0.666845
0.495515
0.75627
0.131701
0.446492
0.728166
0.611009
0.780164
0.60598
0.38797
0.117127
0.166946
0.438673
0.189449
0.764843
0.173203
0.366727
0.429598
0.30103
0.645051
0.133576
0.712566
0.622516
0.535054
0.203032
0.568506
0.325714
0.398676
0.447714
0.429931
0.382318
0.374581
0.647562
0.299013
0.7836
0.37129
0.458352
0.578674
0.61464
0.764114
0.383973
0.427192
0.315581
0.455889
0.356586
0.754287
0.316118
0.467933
0.37825
0.666919
0.336533
0.494282
0.238602
0.79546
0.15083
0.287796
0.382969
0.678343
0.175479
0.172265
0.273116
0.228325
0.744142
0.462139
0.586263
0.700839
0.560695
0.478764
0.797459
0.477593
0.619848
0.560118
0.497247
0.188579
0.508891
0.447454
0.372294
0.514127
0.306958
0.205477
0.496433
0.406509
0.282601
0.649732
0.460904
0.583361
0.442434
0.746978
0.429101
0.439059
0.564577
0.230192
0.310259
0.38019
0.495775
0.51077
0.561342
0.733544
0.607306
0.663751
0.487922
0.713322
0.769127
0.763766
0.50267
0.48169
0.527761
0.254535
0.77787
0.70338
0.674995
0.466213
0.295336
0.197422
0.529245
0.60402
0.334188
0.669419
0.70342
0.546616
0.348328
0.498951
0.369002
0.344827
0.470501
0.363263
0.529711
0.170153
0.529512
0.45257
0.425322
0.137262
0.509115
0.464194
0.592905
0.379684
0.517551
0.737903
0.75142
0.539937
0.421017
0.663549
0.489355
0.315103
0.30241
0.407484
0.217421
0.72969
0.449428
0.503529
0.625579
0.599762
0.560574
0.30104
0.787313
0.567882
0.31418
0.455538
0.476555
0.663161
0.737229
0.571933
0.538053
0.183056
0.284268
0.434645
0.538636
0.46469
0.54396
0.335276
0.746787
0.538
0.631007
0.714006
0.510022
0.328319
0.493072
0.778452
0.362341
0.172281
0.48915
0.781507
0.361954
0.412752
0.653883
0.59748
0.683114
0.453553
0.185768
0.543332
0.236615
0.370212
0.682832
0.451133
0.261317
0.336222
0.356779
0.562826
0.385319
0.359605
0.714312
0.320006
0.798146
0.682664
0.238322
0.118446
0.457571
0.609373
0.70575
0.459991
0.433032
0.336937
0.399407
0.435681
0.805221
0.729832
0.607748
0.396009
0.203189
0.719717
0.793156
0.746635
0.664596
0.724881
0.484674
0.237943
0.152343
0.175391
0.758673
0.47215
0.328711
0.411868
0.790036
0.382648
0.350941
0.216971
0.458253
0.294754
0.767911
0.550279
0.625084
0.726709
0.68626
0.416843
0.580789
0.480456
0.600681
0.355623
0.546418
0.340876
0.757091
0.28132
0.3601
0.323522
0.399231
0.735719
0.381726
0.683322
0.698426
0.729985
0.267987
0.472841
0.42914
0.339095
0.746944
0.488968
0.508526
0.544565
0.152834
0.419145
0.731087
0.580589
0.749565
0.162313
0.280891
0.388778
0.761143
0.358912
0.445777
0.281934
0.296674
0.402512
0.736226
0.431801
0.439478
0.225478
0.760047
0.784114
0.161435
0.725114
0.368945
0.273552
0.290473
0.478585
0.196918
0.560191
0.390607
0.363113
0.410643
0.692721
0.465909
0.67803
0.41909
0.276005
0.409338
0.161851
0.194819
0.450933
0.396172
0.519744
0.279965
0.427444
0.70179
0.545629
0.363909
0.265644
0.71708
0.47075
0.444614
0.798789
0.510963
0.357329
0.383529
0.311264
0.769985
0.369792
0.439883
0.555534
0.217005
0.724454
0.291562
0.710956
0.468839
0.635972
0.286238
0.652647
0.435083
0.23757
0.30842
0.469517
0.728236
0.115621
0.33517
0.385332
0.762712
0.78089
0.330763
0.350445
0.55388
0.745597
0.427303
0.74263
0.706018
0.673842
0.630739
0.521849
0.585193
0.567373
0.750362
0.448135
0.49002
0.328728
0.350114
0.446771
0.298578
0.773955
0.284059
0.735741
0.432046
0.763866
0.341296
0.777758
0.635232
0.681275
0.765861
0.738022
0.796007
0.409179
0.716379
0.470935
0.382395
0.33306
0.284004
0.749606
0.285145
0.554308
0.562007
0.425766
0.554533
0.329596
0.729736
0.497301
0.650489
0.142606
0.323945
0.38749
0.761507
0.339436
0.586606
0.354119
0.389194
0.255413
0.417264
0.375388
0.669849
0.75753
0.21163
0.545954
0.389998
0.347823
0.690905
0.33465
0.347901
0.768654
0.177921
0.510891
0.609102
0.74417
0.792628
0.363719
0.337696
0.219773
0.402074
0.342047
0.38719
0.638893
0.368941
0.238646
0.434696
0.473151
0.373154
0.346643
0.382083
0.477571
0.23932
0.657972
0.638189
0.381585
0.652857
0.262568
0.211836
0.342094
0.160268
0.777794
0.376398
0.375604
0.330881
0.694595
0.749198
0.511171
0.631694
0.358006
0.313516
0.484665
0.376634
0.331718
0.74802
0.526395
0.580359
0.778113
0.66601
0.467452
0.766075
0.210787
0.516541
0.511122
0.567517
0.416201
0.741415
0.370563
0.553607
0.450372
0.376721
0.295643
0.346213
0.635234
0.693939
0.723151
0.484114
0.499288
0.751159
0.659498
0.441844
0.51527
0.259596
0.406589
0.681501
0.205888
0.706524
0.374192
0.717681
0.783352
0.754597
0.367028
0.688122
0.709257
0.223959
0.746432
0.368856
0.760158
0.668777
0.388175
0.270713
0.530284
0.411451
0.406364
0.35752
0.652116
0.385638
0.769932
0.281719
0.363685
0.337899
0.281891
0.376866
0.692717
0.78458
0.276688
0.642178
0.478049
0.558624
0.432622
0.548576
0.741386
0.675889
0.380759
0.731319
0.690482
0.785829
0.275709
0.362115
0.345771
0.636909
0.774091
0.700599
0.441435
0.781584
0.460208
0.222777
0.269415
0.113835
0.453012
0.253491
0.782371
0.801407
0.505887
0.788662
0.68225
0.512423
0.775253
0.26148
0.737657
0.406288
0.748711
0.392119
0.289621
0.637292
0.508423
0.761401
0.740357
0.745652
0.314011
0.317864
0.198671
0.704615
0.673976
0.320958
0.483771
0.675157
0.154712
0.35003
0.306652
0.399364
0.544539
0.391175
0.512077
0.612625
0.486749
0.49937
0.645759
0.384021
0.41615
0.553531
0.489543
0.387003
0.71894
0.753563
0.32397
0.667958
0.140444
0.344309
0.721337
0.650405
0.377172
0.754623
0.26101
0.639641
0.419056
0.423327
0.728107
0.394813
0.651277
0.642071
0.591924
0.806232
0.604347
0.223144
0.578192
0.453791
0.654737
0.801847
0.595814
0.464385
0.332963
0.425523
0.730597
0.252006
0.681913
0.322409
0.536823
0.659069
0.640753
0.479282
0.726334
0.782859
0.40686
0.385962
0.498225
0.304178
0.243539
0.517779
0.645733
0.303472
0.226369
0.345952
0.232213
0.633421
0.460156
0.661446
0.353991
0.750817
0.477634
0.693609
0.772835
0.323797
0.739725
0.40125
0.504409
0.489791
0.71042
0.351173
0.42219
0.497278
0.299321
0.395308
0.278546
0.257743
0.142214
0.778001
0.786229
0.300672
0.364089
0.652194
0.206612
0.342874
0.386985
0.617809
0.640516
0.18274
0.142101
0.73853
0.357581
0.548018
0.349656
0.213547
0.272828
0.516826
0.702281
0.557023
0.205482
0.753711
0.698277
0.31293
0.541803
0.374657
0.774996
0.394092
0.436452
0.239457
0.595315
0.749241
0.560716
0.515495
0.340102
0.456474
0.548326
0.778869
0.789754
0.345422
0.786367
0.348739
0.525469
0.519682
0.440136
0.373368
0.714857
0.420477
0.511552
0.334919
0.333855
0.427486
0.290135
0.596979
0.75076
0.316407
0.356976
0.511973
0.381474
0.346212
0.161852
0.384328
0.697996
0.208262
0.366403
0.625842
0.515306
0.443854
0.595716
0.686454
0.332035
0.328852
0.692296
0.430865
0.316927
0.474227
0.707488
0.580499
0.534211
0.354885
0.322455
0.339927
0.778501
0.696658
0.790192
0.438681
0.60909
0.257434
0.469652
0.703645
0.215079
0.220205
0.640318
0.700864
0.198086
0.370045
0.348007
0.315405
0.343753
0.78848
0.431037
0.367099
0.51273
0.33145
0.626517
0.528912
0.244085
0.37664
0.649816
0.451139
0.782609
0.239763
0.348424
0.580228
0.563822
0.452614
0.542409
0.297986
0.789747
0.717073
0.583705
0.715561
0.321271
0.705428
0.588698
0.574574
0.764724
0.208052
0.371588
0.794622
0.593067
0.194885
0.373597
0.679063
0.791567
0.471562
0.648707
0.352006
0.233053
0.317178
0.195764
0.704154
0.34223
0.493964
0.765701
0.314675
0.331598
0.351542
0.50167
0.364598
0.369789
0.332786
0.265806
0.458614
0.674377
0.763974
0.617915
0.401158
0.366401
0.177035
0.356289
0.57435
0.552877
0.596636
0.63258
0.367757
0.467702
0.675494
0.707523
0.794115
0.729396
0.769245
0.457324
0.254815
0.316831
0.274089
0.780049
0.500503
0.352677
0.763194
0.258417
0.673144
0.619804
0.377019
0.351003
0.370516
0.333254
0.705274
0.418886
0.619447
0.46117
0.760278
0.531473
0.810423
0.303382
0.468344
0.357044
0.132753
0.387276
0.638367
0.308181
0.136692
0.534196
0.739872
0.656328
0.334729
0.24882
0.322744
0.259776
0.352925
0.254857
0.438043
0.282685
0.642884
0.294707
0.358376
0.712155
0.470353
0.576412
0.692474
0.438943
0.494929
0.315242
0.655749
0.41961
0.378749
0.441384
0.280999
0.231546
0.355739
0.361109
0.64548
0.788989
0.714285
0.52761
0.617911
0.203803
0.784828
0.534189
0.635748
0.362812
0.632278
0.374691
0.392176
0.682617
0.752608
0.646179
0.540815
0.386939
0.801083
0.403469
0.67762
0.773735
0.605384
0.417698
0.199251
0.675565
0.528617
0.274487
0.592446
0.519748
0.756746
0.339362
0.765747
0.795579
0.427716
0.303557
0.772474
0.251166
0.285103
0.395545
0.288193
0.377744
0.284285
0.244244
0.458349
0.362199
0.317231
0.364395
0.545817
0.341895
0.326305
0.586643
0.490829
0.205864
0.753122
0.775949
0.771927
0.347376
0.202775
0.815575
0.239505
0.441597
0.345634
0.384824
0.363168
0.637087
0.367965
0.376636
0.226743
0.212564
0.273997
0.367848
0.183461
0.475424
0.518747
0.465529
0.761687
0.492958
0.592651
0.42734
0.694775
0.394533
0.382213
0.786949
0.405402
0.519436
0.250957
0.600732
0.783989
0.42674
0.561347
0.522478
0.373096
0.347222
0.311949
0.288312
0.648265
0.292317
0.428292
0.374586
0.431237
0.320452
0.313047
0.448097
0.410567
0.350045
0.770647
0.450554
0.420475
0.537272
0.756287
0.381489
0.2169
0.663941
0.253258
0.404597
0.348157
0.466391
0.368139
0.418406
0.469131
0.787337
0.712262
0.229983
0.348375
0.206273
0.338257
0.194555
0.292673
0.39012
0.303052
0.402031
0.567303
0.792448
0.379888
0.624144
0.485917
0.778732
0.369052
0.788117
0.567425
0.251272
0.560646
0.628221
0.382557
0.700697
0.347132
0.722892
0.341342
0.174257
0.452273
0.793346
0.77245
0.648199
0.56974
0.612148
0.212673
0.354353
0.613796
0.809988
0.1859
0.467839
0.351443
0.389859
0.426071
0.330427
0.269442
0.349206
0.282116
0.369589
0.404608
0.433437
0.804787
0.697161
0.188334
0.662945
0.310237
0.301351
0.678265
0.335193
0.403042
0.603382
0.227065
0.329886
0.465076
0.716329
0.269804
0.332927
0.392916
0.566917
0.274894
0.758093
0.201422
0.376589
0.399963
0.332293
0.57455
0.568369
0.759445
0.346477
0.642553
0.530345
0.557439
0.339993
0.576181
0.290404
0.263987
0.163632
0.536345
0.456827
0.398999
0.726308
0.466087
0.519059
0.570648
0.315718
0.294185
0.374377
0.546932
0.348414
0.790817
0.246908
0.20285
0.406201
0.376732
0.352673
0.348584
0.626034
0.391994
0.466602
0.262489
0.349283
0.470224
0.299978
0.789202
0.760786
0.273221
0.319811
0.690441
0.495356
0.327488
0.250256
0.336418
0.264575
0.523529
0.743765
0.326385
0.207845
0.566214
0.4508
0.203176
0.270052
0.455089
0.616386
0.784898
0.256231
0.219307
0.544873
0.700398
0.417329
0.522295
0.397486
0.347567
0.380985
0.568899
0.45434
0.349328
0.673109
0.396391
0.175677
0.509648
0.354011
0.679386
0.806393
0.352374
0.372433
0.38292
0.369002
0.259512
0.381368
0.26266
0.766823
0.68846
0.618671
0.396773
0.221253
0.666254
0.785588
0.322253
0.503121
0.369806
0.138276
0.488103
0.379479
0.150038
0.362061
0.569555
0.247001
0.207792
0.282991
0.661088
0.231463
0.678041
0.455992
0.346792
0.406697
0.312925
0.680003
0.174545
0.37826
0.422379
0.259256
0.51495
0.616642
0.534675
0.463448
0.655631
0.270131
0.271917
0.739086
0.345104
0.733643
0.549736
0.423047
0.526613
0.717469
0.449442
0.205047
0.755285
0.341987
0.427797
0.710646
0.329675
0.767149
0.330233
0.400072
0.22337
0.391054
0.285875
0.457908
0.284886
0.174196
0.267041
0.278595
0.143459
0.74415
0.276964
0.396652
0.524651
0.461692
0.788809
0.79017
0.361504
0.472311
0.682715
0.350896
0.745821
0.153791
0.402665
0.492518
0.32304
0.692704
0.370096
0.374825
0.367358
0.316047
0.343661
0.183438
0.719332
0.0907307
0.74993
0.625166
0.289552
0.213366
0.274994
0.788616
0.622989
0.580297
0.436582
0.514616
0.421702
0.715872
0.655652
0.316287
0.556175
0.762302
0.437512
0.498863
0.570301
0.186793
0.269008
0.665365
0.385771
0.435782
0.768761
0.271026
0.159445
0.329184
0.43979
0.445242
0.770511
0.331436
0.228563
0.323688
0.433165
0.339598
0.734842
0.465263
0.2749
0.376115
0.318816
0.325514
0.39617
0.559917
0.493528
0.307024
0.725236
0.389424
0.671591
0.308474
0.26765
0.403301
0.716865
0.778329
0.672677
0.481552
0.45684
0.668138
0.764589
0.244167
0.749867
0.271196
0.595939
0.574063
0.728088
0.478826
0.717745
0.75121
0.354708
0.349985
0.398785
0.477079
0.267246
0.332643
0.278219
0.639748
0.698612
0.24466
0.757885
0.475512
0.657934
0.441122
0.300984
0.685423
0.662631
0.368688
0.382306
0.283655
0.796765
0.618056
0.814299
0.253242
0.267335
0.40955
0.700427
0.571989
0.701166
0.508521
0.766539
0.335905
0.421695
0.499599
0.353735
0.553639
0.252744
0.676789
0.455134
0.502728
0.751046
0.241717
0.24925
0.169876
0.542566
0.726898
0.368816
0.588757
0.262221
0.224057
0.442519
0.351569
0.330568
0.706777
0.48652
0.321935
0.412149
0.538712
0.751955
0.547264
0.405144
0.720077
0.483196
0.772508
0.492824
0.622312
0.41118
0.237981
0.788692
0.303102
0.52545
0.539161
0.745128
0.605919
0.456531
0.357503
0.802625
0.4017
0.285348
0.649284
0.786484
0.632409
0.582728
0.234855
0.164186
0.513191
0.30928
0.391113
0.489501
0.306926
0.751841
0.791102
0.752134
0.345275
0.385469
0.334022
0.380578
0.589147
0.269426
0.611351
0.762698
0.237204
0.375107
0.325921
0.685932
0.591006
0.386201
0.314922
0.62877
0.343792
0.240433
0.269587
0.802245
0.170985
0.673049
0.564246
0.347336
0.749819
0.521617
0.778957
0.225469
0.374449
0.490255
0.757507
0.382863
0.744521
0.525298
0.171937
0.461552
0.34306
0.39018
0.165469
0.665853
0.377128
0.307332
0.213234
0.463338
0.711927
0.100967
0.351754
0.72322
0.42846
0.711364
0.15302
0.350114
0.343073
0.421722
0.356436
0.231381
0.343642
0.118956
0.399338
0.409207
0.659519
0.510251
0.726722
0.328629
0.382719
0.235433
0.490629
0.111837
0.38418
0.810061
0.45133
0.380894
0.795956
0.293583
0.50978
0.557204
0.208565
0.3536
0.443293
0.528569
0.764601
0.783989
0.787899
0.5387
0.427761
0.42799
0.275743
0.687685
0.59499
0.331842
0.397155
0.374119
0.436787
0.782215
0.416656
0.776868
0.375801
0.57024
0.278579
0.339884
0.218033
0.351521
0.737883
0.384267
0.243043
0.281179
0.796233
0.353459
0.301713
0.300342