/*--------------------------------*- C++ -*----------------------------------*\
  =========                 |
  \\      /  F ield         | OpenFOAM: The Open Source CFD Toolbox
   \\    /   O peration     | Website:  https://openfoam.org
    \\  /    A nd           | Version:  6
     \\/     M anipulation  |
\*---------------------------------------------------------------------------*/
FoamFile
{
    version     2.0;
    format      ascii;
    class       volScalarField;
    location    "0";
    object      P_rec;
}
// * * * * * * * * * * * * * * * * * * * * * * * * * * * * * * * * * * * * * //

dimensions      [0 2 -2 0 0 0 0];

internalField   nonuniform List<scalar> 
918
(
0.534503
0.357307
0.0958826
0.551075
-0.00219767
0.255829
-0.773436
0.509235
0.555538
-0.109706
0.0320106
0.434638
0.0950439
0.0539442
-1.22199
0.022615
0.561826
-0.729841
0.394556
0.023954
-0.0297866
0.556833
0.493123
0.394089
0.480574
-0.016882
0.144538
-0.0339379
-0.0501897
-0.0397702
-0.00244365
0.0447843
0.0116645
0.219206
0.21843
0.258124
0.403202
0.148203
-0.633797
-0.689353
-0.671974
-0.846019
0.517246
0.530925
-0.300004
0.488068
0.464632
0.407592
0.536022
0.557949
0.497386
0.53919
0.564785
0.274293
-0.143315
-0.208976
-0.06346
-0.0628278
0.0824956
0.0266654
0.0153632
0.0547975
0.0435089
0.357521
0.426222
0.42219
0.444246
0.444661
0.312897
0.271205
0.314746
0.0994826
0.217698
0.0705592
0.166127
0.0589204
0.0943748
0.0353285
0.0205482
-1.50434
-2.26886
-0.746829
-0.605299
0.00578928
0.0231526
0.0317193
0.549856
0.551949
0.548719
0.55854
0.696907
-0.652633
-0.843827
0.427948
0.426648
0.542756
0.499818
0.442248
0.383271
0.0207366
0.0156109
0.0110227
0.0388145
0.0293613
0.134044
0.240407
0.372415
0.40342
0.445465
0.469863
0.456131
0.19119
0.515993
0.522136
-0.0610344
0.0988909
-0.0184235
0.051445
0.152565
0.119018
0.2235
0.260296
-0.0538882
-0.00953913
0.0395955
0.00467554
0.0288282
0.402687
0.392956
0.417149
0.406571
0.411299
0.0784809
-0.0074404
0.187091
0.193825
-0.516486
-0.561079
-0.730791
-0.740287
-0.881533
0.570748
0.532125
0.546776
-0.387436
-0.262972
-0.430298
-0.18769
-0.234906
0.409292
0.402826
0.403031
0.407622
0.41376
0.413821
0.544639
0.538191
0.569418
0.281079
0.353545
0.261161
0.217671
-0.438343
-0.294837
-0.423839
-0.0372764
-0.00546675
0.0733501
0.105161
0.112272
0.0821437
-0.00611601
0.0125644
0.00189061
0.0179364
0.0207434
0.357707
0.343257
0.359362
0.368057
0.41973
0.418
0.423137
0.423828
0.230673
0.221809
0.183964
0.161392
-3.06716
-5.25782
-0.398559
-0.303001
-0.000764681
-0.0113557
-0.00397552
-0.0745574
-0.0132305
-0.037326
0.0679484
0.0453565
0.0345407
0.054683
0.545349
0.556254
0.702419
0.745569
0.617655
0.617785
0.424262
0.433123
0.428732
0.428742
0.0304568
0.0159888
0.0294658
0.432472
0.33477
0.384381
0.155109
0.0627073
0.238894
0.275917
0.54461
0.529017
0.548808
-0.0571953
0.0187474
0.350853
0.134065
0.339318
0.189166
0.160466
0.199548
0.132859
0.372769
0.387939
0.385289
0.413821
0.419723
0.418823
0.420728
0.413936
0.418125
-0.154223
-0.44644
0.290728
0.249868
0.198606
0.237411
0.635331
0.694401
0.55145
0.541883
0.5533
-0.0889995
-0.129995
0.172049
0.156251
0.307184
0.323855
0.313364
0.154137
0.111244
0.151609
0.13675
0.110673
0.160024
-0.409004
-1.79938
-1.01248
-0.0948569
-0.190418
-0.151781
0.045102
0.101214
0.0733396
0.717837
0.767708
0.391115
0.54254
0.49797
-0.0746965
-0.00450521
0.0969814
-0.0187646
0.0282088
0.101329
0.0553127
0.453373
0.314386
0.399266
0.708384
0.771856
0.0290953
-0.0390662
-0.0765856
0.127929
0.126452
0.121362
0.75841
0.753581
0.779474
0.379665
0.373162
-0.0503108
-0.00402868
0.475668
0.49777
-0.0548939
-0.0236358
-0.104017
-0.831301
0.0226456
0.431021
0.391533
0.443166
-0.11764
0.19037
0.00599411
0.029494
-0.0199843
0.407631
0.340012
0.308213
-0.0551895
0.0103954
-0.00288127
-0.386687
0.43561
0.419793
0.429244
0.440242
0.453388
-0.00709506
-0.0120554
0.0278836
-0.0318157
0.0379159
0.0368229
0.412266
0.402122
-0.411199
0.42316
0.445485
0.446023
0.457001
0.458368
0.44876
-0.0108418
0.0299355
0.0383378
0.136005
0.240611
0.010846
-0.0188003
0.0127803
-0.119232
-0.30089
-0.0293418
-0.0126669
-0.0338204
0.00638624
0.516162
0.488669
0.1101
-0.0617047
0.101233
0.0639514
0.425381
0.442157
0.416043
0.42722
0.443692
0.399546
0.458128
0.429598
0.427439
0.466571
-0.0730582
-0.0262588
-0.0723658
-0.193306
0.26968
0.348321
0.181713
0.240749
0.104991
-0.00781617
0.0417145
-0.0137324
0.00713044
0.011737
0.0996895
0.0359126
0.134024
0.0227303
0.104979
-0.0240602
0.129628
0.00379984
0.392222
0.410307
0.407693
0.445703
0.369372
0.38666
0.363492
0.363681
0.379319
0.314362
0.330707
0.330451
0.0141952
0.0124224
0.0407486
0.0256659
0.0447875
-0.0249593
-0.0237949
-0.0245692
-0.00523852
-0.0433434
-0.00790109
-0.00117637
-0.303634
-0.476606
0.645219
0.529074
0.18807
0.402226
0.441195
0.417053
0.448808
0.460402
0.491803
0.459828
0.436906
0.40876
0.423343
0.406991
0.423643
-0.339742
-0.40677
-0.26538
-0.318546
0.0640842
0.52472
0.284162
0.231696
0.219965
0.387028
0.297025
0.077719
-0.119351
-0.225795
-0.525589
-0.370725
-0.542207
-0.0922133
-0.0210635
-0.0519687
0.0212316
0.0893151
0.0297177
0.00865389
-0.125806
0.42745
-0.187355
-0.163123
0.0499124
-0.0319421
0.242632
0.516005
0.52673
0.466895
0.445229
0.500524
0.474476
0.473549
0.506757
0.512187
0.40745
0.176688
0.162486
0.0958757
0.523955
0.430904
0.468359
0.358578
0.444864
0.448536
0.429829
0.420893
0.454083
0.4206
0.415684
0.395526
0.388197
0.42347
0.426836
0.401457
-0.000381878
-0.0132855
-0.0750475
-0.274914
-0.159257
-0.255001
-0.116182
0.0534496
-0.0314364
0.151899
0.301746
0.0373019
-0.17487
-0.0472877
-0.0977974
0.14065
0.0812869
0.127632
0.137424
0.14311
0.139789
0.196699
0.171581
0.0387554
0.0488786
0.0742069
0.0018871
0.127557
0.0953521
0.152188
0.0615444
0.108311
0.0630365
0.0270506
0.0172896
0.103577
0.0589177
0.0191209
0.0293937
0.0195034
-0.0595607
-0.0552377
0.164576
0.0492676
0.430914
0.416057
0.418007
0.436662
0.467048
0.462121
0.408683
0.407717
0.432176
0.404765
0.378627
0.363067
0.354757
0.384193
0.393508
0.390901
0.428762
0.420462
0.394191
0.412465
0.363527
0.382237
0.336021
0.349829
0.374179
-0.0835294
0.0211096
-0.0306971
-0.0378654
0.0136063
0.0481351
0.105763
0.0334138
0.111189
0.0860309
0.0618786
0.0266047
0.0523954
-0.145441
-0.0150526
-0.332385
-0.381079
-0.486432
0.635613
0.700313
0.569598
0.454992
0.514152
0.585311
0.654428
0.402015
0.433685
0.498191
0.456455
0.689659
0.423751
0.41149
0.43145
0.448749
0.428487
-0.209033
-0.0973885
-0.0490231
0.0470673
0.104221
0.148615
0.0183398
0.176048
0.242862
0.195081
0.505304
0.52585
0.491535
0.52432
0.520745
0.323849
0.41306
0.449041
0.436947
0.442347
0.463051
0.466741
0.464632
0.396082
0.390224
0.395705
0.350842
0.375037
0.348523
0.344547
0.40525
0.384363
0.386338
0.39509
0.442673
0.424012
0.448888
0.491079
0.47466
0.378476
0.358815
0.381575
0.391521
0.369934
0.368968
0.365543
-0.106546
-0.0675687
-0.017856
-0.182823
-0.0517234
-0.0865661
-0.129676
-0.160152
-0.0142918
-0.44895
-0.379694
-0.898389
0.319123
0.359226
0.191035
-0.0641106
0.425968
0.459597
0.442889
0.352625
0.3654
0.508188
0.529517
0.537156
0.46301
0.459266
0.48552
0.469892
0.41391
0.280326
0.217744
0.255964
0.103608
0.159834
0.322472
0.261388
0.214028
0.239458
0.33643
0.243085
0.274714
0.344256
0.309021
0.294904
0.426155
0.471833
0.486778
0.438462
0.344814
0.398737
0.391803
0.439655
0.477107
0.481729
0.427979
0.411794
0.420413
0.412422
0.402925
0.418988
0.391935
0.43421
0.438157
0.446054
0.440557
-0.00831105
0.0166789
0.0244212
-0.0175968
-0.0096444
-0.0521826
-0.04717
-0.0666917
0.0759816
0.0563701
-0.026411
-0.00147646
0.0860011
0.0445127
0.113659
0.131965
0.0799467
0.024952
0.223011
0.348392
0.349626
0.311376
0.196639
0.204109
0.289629
0.0466117
0.126152
0.0821661
0.0536449
0.0540171
0.0194308
0.102808
0.0461128
0.0848312
0.0405059
-0.0997475
0.0426279
0.0898345
-0.0426814
0.00990872
0.0400507
0.396114
0.396908
0.380294
0.361032
0.369766
0.370935
0.40516
0.428867
0.431543
0.430364
0.43565
0.420575
0.426618
0.0132037
0.119166
0.144604
0.086998
0.0456353
-0.00517334
-0.0184084
0.169727
0.0658919
0.14457
-0.0646251
-0.217991
-0.132038
0.307965
0.388446
0.295834
0.639749
0.500782
0.378759
0.470177
0.616664
0.3414
0.472627
0.361326
0.654069
0.622348
0.699379
0.526085
-0.034411
0.104399
0.245362
-0.131392
-0.0735576
0.0979193
0.0873715
0.102199
0.0787266
0.172012
0.0780709
0.0432857
-0.0679854
-0.0141582
0.138578
0.15249
0.163859
0.184522
-0.0661082
-0.115189
-0.0964218
0.485523
0.509358
0.532586
0.505354
0.526654
0.463295
0.461968
0.492208
0.516021
0.503659
-0.730259
-0.470288
-1.31534
-0.661027
-0.318817
0.435769
0.174782
0.747937
0.594616
0.462221
0.486413
0.49247
0.454086
0.505039
0.506304
0.253275
0.348575
0.2955
0.331014
0.246427
0.175145
0.471786
0.45643
0.486333
0.505379
0.46038
0.503471
0.357161
0.395801
0.377082
0.409735
0.430451
0.447234
0.100209
0.0377242
0.0810048
0.0698736
0.0527989
0.0285577
-0.0387684
-0.0107903
0.157569
0.104397
0.0504959
0.102272
-0.0195795
0.0424191
-0.0571282
0.0281057
-0.146583
-0.222266
-0.224694
-0.177836
-0.12036
-0.0826485
0.437022
0.578701
0.50572
0.608389
0.471619
0.582178
0.25084
0.197522
0.220105
0.207486
0.2729
0.0276106
-0.305203
-0.204091
0.785449
0.898314
0.605962
0.367531
0.118683
0.396233
0.436536
0.367755
0.387999
0.470756
0.436851
-0.135865
-0.0788129
-0.0517084
0.00836136
-0.0317898
-0.013202
-0.0288195
0.010294
-0.0273751
)
;

boundaryField
{
    wall-4
    {
        type            calculated;
        value           nonuniform List<scalar> 
100
(
0.534503
0.357307
0.0958826
0.551075
0.255829
-0.773436
0.509235
-0.109706
0.0320106
0.434638
0.0950439
0.0539442
-1.22199
0.561826
-0.729841
0.394556
0.023954
-0.0297866
0.394089
0.480574
-0.016882
0.144538
-0.0339379
0.219206
0.403202
-0.689353
-0.846019
0.530925
-0.300004
0.464632
0.407592
-0.208976
-0.0628278
0.0153632
0.0435089
0.357521
0.42219
0.444661
0.217698
0.166127
0.0943748
0.0205482
-2.26886
-0.605299
0.551949
0.55854
-0.843827
0.426648
0.383271
0.0156109
0.0293613
0.240407
0.40342
0.456131
0.19119
0.522136
-0.0610344
0.051445
0.119018
0.260296
0.392956
0.417149
0.411299
-0.561079
-0.881533
0.546776
-0.430298
-0.234906
0.403031
0.413821
-0.423839
-0.00546675
0.00189061
0.0207434
0.343257
0.368057
0.41973
0.423828
0.161392
-0.303001
0.556254
0.424262
0.428742
0.0294658
0.384381
0.0627073
0.275917
0.548808
0.0187474
0.189166
0.385289
0.418823
0.418125
0.5533
-0.129995
0.313364
0.13675
-0.151781
0.0282088
-0.0765856
)
;
    }
    velocity-inlet-5
    {
        type            calculated;
        value           nonuniform List<scalar> 8(0.534503 0.551075 0.555538 0.556833 0.557949 0.564785 0.542756 0.569418);
    }
    velocity-inlet-6
    {
        type            calculated;
        value           nonuniform List<scalar> 4(0.357307 0.255829 0.258124 0.314746);
    }
    pressure-outlet-7
    {
        type            calculated;
        value           uniform 0;
    }
    wall-8
    {
        type            calculated;
        value           nonuniform List<scalar> 
34
(
-0.00219767
0.022615
0.0116645
0.148203
0.274293
0.0824956
0.0317193
0.696907
0.0288282
-0.0074404
0.193825
0.570748
0.353545
0.217671
0.105161
0.0821437
-5.25782
0.0679484
0.054683
0.745569
0.617785
-0.44644
0.290728
0.237411
0.694401
0.156251
-1.01248
0.0733396
0.767708
0.49797
0.399266
0.771856
0.121362
0.779474
)
;
    }
    frontAndBackPlanes
    {
        type            empty;
    }
}

