/*--------------------------------*- C++ -*----------------------------------*\
  =========                 |
  \\      /  F ield         | OpenFOAM: The Open Source CFD Toolbox
   \\    /   O peration     | Website:  https://openfoam.org
    \\  /    A nd           | Version:  6
     \\/     M anipulation  |
\*---------------------------------------------------------------------------*/
FoamFile
{
    version     2.0;
    format      ascii;
    class       volVectorField;
    location    "0";
    object      U_rec;
}
// * * * * * * * * * * * * * * * * * * * * * * * * * * * * * * * * * * * * * //

dimensions      [0 1 -1 0 0 0 0];

internalField   nonuniform List<vector> 
918
(
(0.987599 -0.00224935 0)
(-0.0095409 2.98952 0)
(-0.00665416 1.71925 0)
(0.981216 0.00397676 0)
(-0.00917948 1.68121 5.49264e-17)
(0.00465441 2.98103 -2.75242e-17)
(0.956087 1.41562 3.44821e-18)
(0.486316 0.26473 2.36157e-19)
(0.997949 0.00044153 0)
(0.0434835 1.67305 0)
(-0.00674537 1.64849 0)
(0.911212 -9.68394e-05 0)
(-0.000603541 2.98432 0)
(0.00452406 2.88671 0)
(0.00442964 2.91449 1.67963e-17)
(-0.00457029 1.65946 3.29698e-17)
(0.658897 0.147996 -3.24532e-20)
(0.203052 1.87821 -3.58296e-17)
(0.984605 0.010584 0)
(0.0044676 1.66542 0)
(0.0203588 0.0452319 5.38031e-18)
(0.991346 0.00869664 0)
(1.00566 0.00903471 0)
(1.01118 -0.00107209 0)
(0.835504 -0.0142877 0)
(0.0190369 2.91181 0)
(-0.00760681 2.9406 -8.89959e-17)
(-0.00662792 1.73464 0)
(0.00430234 1.76755 0)
(-0.00893331 1.74285 0)
(-0.0111181 1.79052 0)
(-0.00939054 1.69872 5.47085e-17)
(-0.00483478 1.65949 0)
(0.00459396 3.00955 5.55622e-22)
(0.00512733 3.02238 -5.35298e-17)
(0.0195988 3.00909 0)
(0.94515 -0.0011651 0)
(0.500144 1.06021 -1.09762e-17)
(0.941752 1.44831 -9.83883e-18)
(1.07412 1.23972 2.37472e-17)
(0.7994 1.60387 9.27702e-18)
(0.804016 1.56674 1.41754e-17)
(0.515427 0.322048 5.63626e-20)
(0.548469 0.237817 0)
(1.26381 0.671035 0)
(0.43552 0.331381 5.89327e-20)
(0.42862 0.242031 8.67031e-19)
(0.951468 -0.00214315 0)
(0.996783 0.00243834 0)
(0.997888 0.00298891 0)
(0.992746 0.00358242 0)
(0.983882 0.00733669 0)
(0.998593 0.0116851 0)
(0.0134162 1.56976 3.95075e-18)
(0.039148 1.76443 0)
(0.0678233 1.7074 0)
(0.0149416 1.74725 0)
(0.00960014 1.64492 0)
(-0.00925675 1.6604 0)
(-0.0085863 1.70451 0)
(-0.00719942 1.64682 0)
(-0.0120395 1.71412 0)
(-0.00565869 1.65752 0)
(0.976272 0.0109785 0)
(0.947009 0.00873916 0)
(0.924384 -0.0029572 0)
(0.937046 0.0137819 0)
(0.892675 0.0139852 0)
(-0.0175642 3.0429 2.3942e-17)
(-0.00202646 2.976 0)
(-0.0266516 3.02083 0)
(0.0278049 3.03789 -5.6496e-23)
(-0.0011995 3.02419 3.72608e-17)
(0.0178681 3.00966 0)
(0.00424914 2.95405 0)
(0.00457029 2.96507 -1.38262e-23)
(0.00404617 2.89528 0)
(0.00917569 2.97066 0)
(0.00778995 2.87163 0)
(0.282435 3.21036 0)
(-0.0670043 3.28816 0)
(0.100159 2.97766 7.08813e-18)
(-0.00218349 2.81458 0)
(0.0035095 1.75281 0)
(-0.00345843 1.70572 3.19872e-17)
(-0.00298912 1.6632 3.3038e-17)
(0.701004 0.174294 -4.3685e-18)
(0.693745 0.0999267 2.3247e-18)
(0.669084 0.20654 2.01464e-17)
(0.649433 0.166221 -8.47391e-18)
(0.201603 1.38039 0)
(0.279804 1.93488 -4.29134e-17)
(0.427619 1.8478 -3.60569e-17)
(0.995248 0.00724457 0)
(0.97149 0.0089183 0)
(0.997254 -0.00549903 0)
(1.00192 0.00143549 0)
(1.00319 0.0149341 1.3713e-16)
(1.00329 0.0114486 1.15344e-16)
(-0.00157647 1.71142 0)
(0.00439802 1.66882 0)
(-0.00535443 1.74619 0)
(-0.0104677 1.71875 0)
(-0.00223822 1.67354 0)
(0.0144002 0.265242 -2.55643e-18)
(0.198752 0.188407 0)
(1.01076 -0.0132301 0)
(0.984989 0.00135331 0)
(0.90758 0.0330818 0)
(0.877904 0.0325648 0)
(0.86444 0.00607192 0)
(1.1009 0.00963256 0)
(0.840843 0.0217202 0)
(0.788928 0.00726842 1.96446e-17)
(-0.0182435 2.87595 2.11174e-17)
(0.00951327 2.98004 0)
(-0.0441273 3.01804 0)
(0.00548254 2.85936 0)
(-0.0065034 2.98506 -3.3081e-17)
(-0.00331844 2.92961 0)
(-0.0115498 2.98855 -1.20644e-17)
(-0.0129094 2.95134 2.26183e-17)
(0.00476237 1.77029 0)
(0.00447278 1.76416 0)
(0.00382449 1.70724 -2.36879e-21)
(-0.000354271 1.70502 0)
(0.00386609 1.65727 0)
(0.974317 0.00538262 0)
(0.950664 0.00678543 0)
(0.933966 -0.00795063 0)
(0.974255 -0.00333545 0)
(0.943956 -0.00444227 0)
(0.559336 1.20864 -4.47774e-18)
(0.687522 1.28798 0)
(0.397084 0.94709 -1.28872e-18)
(0.437304 0.787776 0)
(1.05424 1.26697 1.67394e-17)
(1.16169 1.04234 3.63198e-18)
(0.439994 1.87004 0)
(0.627477 1.74729 0)
(0.630961 1.71423 0)
(0.399926 0.670098 -5.28807e-18)
(0.568658 0.297143 0)
(0.585408 0.231891 -4.12585e-18)
(1.13747 1.07565 0)
(1.20631 0.873491 0)
(1.22393 0.843834 -3.79514e-18)
(1.27229 0.691141 0)
(1.29809 0.504611 -2.77063e-17)
(0.974247 0.00515617 0)
(0.970914 -0.00377691 0)
(0.94489 0.00298512 0)
(0.998682 -0.00533262 0)
(0.982118 -0.00518833 0)
(0.970888 0.000646803 0)
(0.990877 -0.0031767 0)
(0.988141 -0.000673725 0)
(0.99861 -0.0018615 0)
(0.0205242 1.59325 2.86099e-17)
(0.0278826 1.54378 0)
(0.0187113 1.62584 -3.21325e-18)
(0.0131578 1.59943 3.59272e-18)
(0.114362 1.88992 -4.10508e-17)
(0.0528133 1.81728 0)
(0.112317 1.79821 0)
(-0.00100527 1.72531 0)
(0.00296769 1.6319 0)
(-0.00766166 1.70324 2.56442e-20)
(0.000528554 1.66716 0)
(-0.00792644 1.70286 -3.11893e-17)
(0.00379956 1.66206 -2.14177e-18)
(-0.00200972 1.71711 0)
(-0.00496503 1.71092 0)
(0.00114411 1.63893 0)
(-0.0066627 1.71969 0)
(0.000546083 1.6633 0)
(1.0144 0.0179168 0)
(0.99517 0.000758862 0)
(0.99629 0.0106045 0)
(0.969105 0.00462719 0)
(0.931596 0.000330356 0)
(0.961153 0.00887799 0)
(0.955921 0.00474774 0)
(0.926669 0.0028276 0)
(0.0103159 3.04081 4.74349e-20)
(0.0153879 3.03574 0)
(0.00803514 2.99184 0)
(0.00450636 2.93553 0)
(0.997339 3.72576 0)
(1.365 2.79862 -1.20283e-18)
(0.0118895 2.89104 0)
(-0.0131303 2.8092 0)
(0.0045215 1.75589 0)
(0.00595442 1.74695 0)
(0.00242471 1.74869 0)
(-0.00559681 1.77915 -7.31328e-17)
(0.000722683 1.75852 0)
(-0.00254898 1.77187 0)
(0.00363447 1.65719 -6.49783e-17)
(0.00500177 1.70483 -3.32385e-17)
(-0.00374328 1.70272 3.18073e-17)
(0.00155487 1.65742 0)
(0.726436 0.131651 -1.81597e-17)
(0.714656 0.0692326 -1.0747e-17)
(0.188672 1.37961 0)
(0.26419 1.3104 7.54398e-19)
(0.133153 1.44349 -2.55924e-17)
(0.125724 1.43293 -3.05486e-17)
(0.936633 0.00678909 0)
(0.978805 0.0102561 0)
(0.98651 0.0161309 0)
(0.95499 0.0163291 0)
(0.0013351 1.71979 0)
(0.00572484 1.71579 0)
(0.00521379 1.66988 0)
(0.353402 0.332534 -1.89363e-18)
(0.23774 0.308181 1.6498e-18)
(0.333028 0.214168 0)
(1.1969 0.10057 -6.09229e-19)
(1.19868 0.0502623 0)
(1.10334 0.0538046 0)
(1.0405 0.00308757 0)
(0.752381 0.105807 0)
(0.788636 0.0749721 3.38836e-17)
(0.743995 0.0590997 -2.15153e-17)
(-0.0130316 2.95914 -3.29807e-17)
(-0.00826687 2.90374 -5.51825e-17)
(0.00743568 3.03115 9.11111e-20)
(0.0328668 3.01947 -3.55467e-17)
(-0.0161344 3.00151 -1.89907e-19)
(-0.0129223 2.9793 7.25044e-22)
(-0.0119177 3.02811 -2.86357e-18)
(-0.000389439 2.99082 -8.20991e-18)
(0.0482987 3.02171 -2.78538e-17)
(0.994463 0.00424533 0)
(0.986898 0.0116559 0)
(0.962354 0.00510981 0)
(0.968356 0.0095688 0)
(0.964486 -0.00171039 0)
(0.929169 0.00222195 0)
(0.964591 -0.00137182 0)
(0.963038 -0.00308673 0)
(0.932456 -0.00804674 0)
(0.771377 1.46624 3.49868e-18)
(0.866346 1.5383 0)
(0.338273 0.442492 1.23225e-18)
(0.411653 0.729896 -3.56106e-18)
(0.394222 0.780113 -1.17686e-17)
(0.384217 0.569181 -1.80172e-17)
(0.437077 0.985274 -6.98625e-19)
(0.402213 0.849782 1.85991e-17)
(0.652702 0.239396 -1.19018e-17)
(0.609774 0.278004 -3.54988e-18)
(0.621522 0.205459 3.88778e-18)
(1.29862 0.51751 -2.38538e-17)
(1.30435 0.326811 4.16733e-18)
(0.011191 1.65674 -3.30416e-17)
(0.00879257 1.6347 0)
(1.05256 0.0272672 0)
(1.02668 0.0135289 0)
(1.00841 -0.000803373 0)
(0.0136644 3.04799 0)
(0.0130984 2.97052 -3.53598e-17)
(0.0102101 2.98202 0)
(0.00373045 2.91603 -2.07938e-17)
(0.0111286 3.0607 1.43792e-17)
(0.0109484 3.05428 0)
(0.854907 1.77412 -3.53065e-18)
(1.22075 2.35748 -8.68403e-18)
(0.93967 1.86289 -1.60168e-17)
(-0.0244357 2.92476 3.25459e-17)
(-0.0220654 2.88954 0)
(-0.0205581 2.84172 0)
(-0.00850483 1.69825 6.45225e-17)
(0.00278418 1.69497 1.48234e-18)
(-0.00781852 1.64906 6.44264e-17)
(0.250716 1.32277 -1.58861e-17)
(0.322092 1.25308 -1.13853e-17)
(0.0352536 1.56005 -3.13169e-17)
(0.076117 1.50315 -2.66141e-17)
(0.0612121 1.49783 -5.81906e-17)
(-0.0219944 3.07449 1.23006e-16)
(-0.00877583 3.07071 9.7294e-17)
(0.00488016 2.98631 2.29836e-17)
(-0.0102069 2.98083 -2.23417e-17)
(-0.000515733 2.9312 3.32773e-17)
(0.0167061 3.06652 -8.37266e-17)
(-0.0053663 3.06001 -1.27208e-16)
(0.489495 0.883892 0)
(0.471172 0.786918 -3.41828e-18)
(0.362684 0.493404 -1.68593e-17)
(0.417938 1.09158 2.93013e-17)
(0.409825 1.0205 2.48607e-17)
(1.27896 0.206039 -2.59941e-18)
(1.31155 0.360268 0)
(1.27712 0.183257 2.10836e-18)
(-0.00685192 1.70152 2.47652e-20)
(0.00559682 1.68404 0)
(-6.16094e-05 1.66016 0)
(0.300799 1.2511 1.18075e-18)
(0.355659 1.1716 -3.07888e-17)
(0.370497 1.15948 -2.98332e-17)
(1.00189 -0.0226738 0)
(0.999518 -0.00931731 1.16928e-17)
(0.00108237 1.77211 0)
(-0.0094004 1.78812 0)
(1.00289 -0.00126724 4.47449e-19)
(1.00426 0.00237861 1.45572e-17)
(0.000700556 1.7763 -7.27831e-17)
(-0.000969975 1.77763 0)
(-0.016803 2.98592 2.23574e-17)
(0.312727 3.02255 0)
(1.11201 0.711358 -2.47138e-17)
(1.00068 0.00611421 8.13326e-17)
(1.00244 -0.00502975 0)
(1.00527 -0.00287742 3.417e-19)
(0.0144322 1.86056 0)
(0.0115037 1.66841 0)
(-0.00152864 1.79924 0)
(0.0217421 1.73674 -7.31217e-17)
(-0.000479236 1.75274 7.07839e-17)
(0.987435 0.0161691 7.97175e-17)
(1.03349 0.0157897 0)
(1.05786 0.0310549 0)
(0.0126271 1.75684 0)
(0.0112004 1.75663 0)
(-0.00728482 1.77532 0)
(0.128668 1.87413 -8.13925e-17)
(1.0079 -0.0171694 0)
(1.00708 -0.0202527 0)
(0.998645 0.00254865 -2.05272e-17)
(0.994177 -0.00491169 2.59732e-17)
(0.997004 -0.00468358 0)
(0.00569537 1.75447 0)
(0.00275223 1.7686 0)
(0.00679584 1.75456 0)
(-0.00205841 1.77844 0)
(-0.0179713 1.7762 0)
(-0.00809084 1.77331 0)
(1.01404 0.00571872 0)
(1.00867 0.00432754 8.14981e-17)
(0.772718 1.33339 -1.7132e-19)
(0.999528 -0.00602456 2.0869e-17)
(0.997659 0.00272394 -2.57083e-17)
(1.00256 0.00273534 0)
(0.99764 0.00985434 3.3609e-17)
(1.00638 0.00988939 4.83803e-17)
(1.00157 0.00441497 0)
(0.0123375 1.76323 0)
(0.00618281 1.76761 -3.72337e-17)
(0.00235312 1.76302 -3.25653e-17)
(1.14134 0.256942 -6.03857e-17)
(1.08807 0.0849556 0)
(-0.211845 2.9849 2.99113e-17)
(-0.235383 3.20333 7.70555e-19)
(-0.0243851 3.03679 4.24674e-17)
(-0.0291674 2.99042 3.58799e-17)
(0.0493295 2.96404 0)
(-0.0240399 3.03618 1.21211e-17)
(-0.0851821 3.13458 1.99156e-17)
(-0.0740333 3.02574 1.87001e-17)
(-0.0516515 3.10136 0)
(0.646364 0.345878 0)
(0.511998 0.387401 0)
(1.08172 0.822374 2.6659e-17)
(1.06122 0.876289 3.86095e-17)
(1.12847 0.621052 0)
(1.14219 0.5681 0)
(1.00388 0.00521864 1.54607e-17)
(1.00332 0.00526198 -1.64614e-17)
(1.00617 -0.0027292 0)
(1.00717 -0.00359909 0)
(1.00874 0.00245565 0)
(1.01001 0.0100032 0)
(1.00757 0.00275716 0)
(1.00597 0.0104181 0)
(1.00326 0.00552851 0)
(0.994268 0.00496074 0)
(0.0226487 1.85682 0)
(0.000791588 1.8611 0)
(0.0466254 1.87105 0)
(0.0255239 1.88274 0)
(0.0119591 1.65624 0)
(0.0105218 1.65669 3.43532e-17)
(0.0277593 1.6719 0)
(0.0200152 1.67115 3.04935e-17)
(0.0331486 1.69738 -6.59401e-17)
(-0.00810138 1.80258 0)
(0.0005945 1.79805 0)
(0.00599022 1.80752 0)
(-0.00289849 1.82475 0)
(0.033312 1.76769 -7.10511e-17)
(-0.0146341 1.7424 -4.71651e-17)
(0.0209074 1.74492 3.49436e-17)
(0.00271154 1.75408 0)
(0.0223021 1.75717 3.15603e-17)
(0.00933627 1.76159 -6.76886e-17)
(-0.000255815 1.78571 -1.10814e-16)
(-0.00371948 1.73447 -4.423e-17)
(0.0208462 1.74176 3.84071e-17)
(0.991883 0.0172553 -1.02002e-17)
(0.997564 0.00310761 1.45991e-17)
(0.987147 0.0297552 1.46228e-17)
(0.973521 0.0210309 -1.38098e-17)
(1.03049 0.00850804 0)
(1.035 0.00591519 0)
(1.04564 0.0319062 0)
(1.03323 0.0180268 0)
(1.04558 0.0139916 0)
(1.0801 0.0653612 0)
(1.06342 0.0576155 0)
(1.08166 0.0408906 0)
(0.00131889 1.77031 9.54679e-18)
(0.0160642 1.74194 0)
(-0.00402607 1.75293 0)
(0.00280856 1.75708 -1.45191e-17)
(0.00573589 1.75954 3.20166e-20)
(-0.00238259 1.77976 4.1989e-17)
(-0.0133279 1.77043 4.29856e-17)
(0.00110818 1.77031 0)
(-0.0257908 1.77461 0)
(-0.00916537 1.76773 0)
(0.00183544 1.77861 0)
(-0.00187653 1.78414 0)
(0.236133 1.84531 -5.07961e-17)
(0.276307 1.7959 4.09206e-17)
(0.303192 1.51288 2.94315e-19)
(0.145714 1.58302 2.74153e-17)
(0.163358 1.79034 3.46691e-17)
(1.00223 -0.0156785 0)
(1.00496 -0.0159231 0)
(1.00214 -0.0184145 0)
(1.01132 -0.00369886 0)
(0.997921 -0.00779766 0)
(0.988612 -0.00515598 0)
(1.00005 -0.0114115 0)
(0.995865 -0.00867582 0)
(1.00868 0.000912449 -1.03628e-17)
(1.01265 -0.00161609 1.58601e-17)
(1.00761 0.00791022 1.48693e-17)
(1.0032 0.00672504 -1.54016e-17)
(0.71834 1.43795 0)
(0.643641 1.48526 -7.15471e-17)
(0.848778 1.28764 6.97712e-17)
(0.910165 1.22661 6.19976e-17)
(0.993362 2.20164 -2.76355e-17)
(0.815161 0.123559 -2.06431e-17)
(1.09798 0.128653 0)
(1.15323 0.193093 -8.78758e-17)
(1.14436 0.1381 2.41418e-19)
(0.953066 0.136577 0)
(-0.0769745 2.72583 4.82887e-17)
(-0.347455 2.63628 7.00481e-17)
(-0.760897 2.66778 4.85464e-18)
(-0.589619 0.234704 -1.03874e-17)
(0.218395 3.00529 -1.48401e-17)
(0.0591018 2.9955 0)
(0.144647 2.97759 -7.418e-18)
(0.0296419 2.72042 7.89016e-17)
(0.1956 2.74496 0)
(-0.0204185 3.06175 -4.95173e-19)
(-0.0318869 3.07364 -2.07698e-17)
(-0.00450096 3.10087 -3.10783e-17)
(-0.0333251 3.11506 0)
(-0.0450285 3.05945 0)
(1.17402 2.21924 0)
(0.552087 1.07125 4.81831e-17)
(1.01315 1.0605 -3.43638e-17)
(0.970009 1.16342 0)
(0.843612 1.04519 -1.28868e-17)
(1.04439 1.00469 -5.92226e-17)
(0.187976 0.416924 2.93569e-19)
(0.659845 0.348444 1.15668e-17)
(0.691875 0.314474 1.12083e-17)
(0.462729 0.453877 1.23787e-21)
(0.435304 0.400706 4.52811e-18)
(0.607837 0.389021 0)
(0.590463 0.473426 9.06204e-18)
(0.608095 0.431372 0)
(0.533448 0.421697 0)
(0.58622 0.362117 0)
(0.700285 0.67008 3.0892e-17)
(1.15162 0.327018 3.95499e-17)
(1.16793 0.45562 0)
(1.17831 0.386395 0)
(0.76377 0.232312 1.74974e-17)
(0.735086 0.639864 3.56542e-17)
(0.623996 0.562321 8.88873e-18)
(0.865805 0.433987 -7.5374e-17)
(1.00903 -0.00196052 2.98012e-17)
(1.00516 0.0114275 4.72277e-17)
(1.00651 0.00729954 0)
(1.01027 0.0154801 0)
(1.0024 -0.00128883 -2.91828e-17)
(1.00358 0.00256128 -4.51337e-17)
(1.0067 -0.000713111 0)
(0.999466 0.00178178 0)
(1.01323 0.00510436 0)
(1.01015 0.00403552 0)
(1.0167 0.00407845 0)
(1.01312 0.000172662 0)
(0.0128574 1.85458 0)
(0.0114287 1.84658 0)
(0.0290441 1.84671 -4.84263e-17)
(0.102188 1.88837 -3.69995e-17)
(0.0626258 1.89759 7.68571e-17)
(0.0492202 1.89685 2.99941e-17)
(0.0476257 1.84394 0)
(0.0545515 1.77572 7.11021e-17)
(0.0292761 1.76812 0)
(0.128559 1.77926 3.71162e-17)
(0.16544 1.68363 -4.47627e-17)
(0.0619862 1.79559 6.62435e-17)
(0.105922 1.82824 -3.81755e-17)
(0.0615983 1.83665 -4.06572e-17)
(0.0843089 1.80097 -7.23717e-18)
(0.0818415 1.78266 0)
(0.11543 1.77631 -5.19555e-17)
(0.0350387 1.72122 6.0031e-18)
(0.0339006 1.68525 0)
(0.0223692 1.69551 -7.13074e-17)
(0.0227218 1.69473 0)
(0.0325352 1.67367 3.36548e-17)
(0.0278209 1.67866 0)
(0.0294954 1.76599 5.30514e-17)
(0.0496032 1.77524 0)
(0.0272368 1.79272 0)
(0.016573 1.78744 4.97948e-17)
(0.00450378 1.72162 -1.12867e-16)
(0.0358877 1.70875 -6.81656e-17)
(0.0118736 1.72209 -1.60184e-20)
(0.00478899 1.75327 7.32828e-17)
(-0.0118014 1.77955 -3.81272e-17)
(-0.00334306 1.7935 0)
(-0.00740806 1.79818 0)
(0.0367689 1.7677 2.79257e-17)
(0.0279174 1.79884 2.35944e-17)
(0.0357016 1.78012 5.94755e-17)
(0.0310665 1.76897 0)
(0.00201129 1.7537 9.92607e-17)
(-0.00522788 1.75574 1.58432e-17)
(0.00551752 1.76207 -1.84514e-17)
(0.00987404 1.7681 7.51578e-17)
(0.0148136 1.73336 -3.52441e-18)
(0.00506795 1.74083 -4.38801e-17)
(0.998648 0.0115572 4.65623e-17)
(0.997303 0.00195118 2.97606e-17)
(0.996275 0.00469836 0)
(0.98608 0.0620127 -6.73077e-17)
(0.96396 0.0440888 1.48032e-17)
(0.946402 0.030186 -7.27658e-18)
(0.983961 0.102336 1.6049e-18)
(1.0205 0.00923631 0)
(1.02532 0.0155355 -4.599e-17)
(1.02818 0.00821049 -2.9753e-17)
(1.02251 0.0377513 3.22166e-18)
(1.0232 0.0275726 -9.85246e-18)
(1.00125 0.0360257 0)
(0.989514 0.0340181 2.86476e-19)
(0.994977 0.0253817 0)
(0.995325 0.0276187 0)
(1.00654 0.0178004 0)
(0.999753 0.00831848 0)
(0.996696 0.026617 3.8352e-18)
(0.999271 0.0225892 2.90989e-17)
(1.01696 0.0375786 -5.61029e-18)
(0.997748 0.0284857 9.9652e-18)
(0.998539 0.0537779 2.62047e-17)
(1.03157 0.0529409 0)
(1.03127 0.091596 0)
(0.00691633 1.76073 -5.07962e-17)
(0.0262622 1.74084 -7.76537e-19)
(0.00229554 1.75459 0)
(0.0149618 1.76632 -5.22003e-17)
(0.0141543 1.77052 8.56493e-18)
(0.0135624 1.76204 -3.74807e-18)
(0.00179952 1.76032 -7.47682e-17)
(0.00917161 1.75607 -1.33922e-19)
(0.00964338 1.75178 -4.98278e-18)
(-0.00359523 1.757 3.30491e-17)
(0.00087136 1.76176 3.19502e-17)
(0.00680796 1.76783 -2.21966e-17)
(-6.86417e-06 1.76875 -3.76062e-17)
(0.142742 1.7499 2.47921e-17)
(0.126694 1.79002 -8.66756e-18)
(0.577721 1.58174 -7.94993e-17)
(0.3874 1.73349 3.72936e-17)
(0.468487 1.65488 0)
(0.337564 1.51041 -3.71533e-18)
(0.386376 1.44924 -6.87528e-19)
(0.203528 1.55889 -7.08875e-18)
(0.203474 1.60548 -3.13154e-17)
(0.269595 1.62739 -2.83444e-17)
(0.285721 1.529 0)
(0.219229 1.54683 -1.18116e-17)
(0.0643409 1.63108 -2.47238e-21)
(0.118704 1.60653 5.95628e-17)
(0.0537331 1.61737 7.37518e-18)
(0.731597 1.71261 -3.52011e-17)
(0.548845 1.52466 0)
(1.01785 -0.00391975 -2.32673e-19)
(1.00101 -0.0115971 2.8807e-19)
(1.00294 -0.0124912 -7.02605e-18)
(1.02423 -0.00356086 -1.55887e-17)
(1.02286 -0.00203902 0)
(0.609963 1.2286 0)
(0.635987 1.14432 0)
(0.74461 1.18512 0)
(0.716021 1.06163 0)
(0.981194 2.2441 2.78417e-17)
(0.879279 2.02674 0)
(0.620348 2.26247 -1.06746e-18)
(0.448487 2.09358 0)
(0.550506 2.17387 7.15905e-17)
(0.627201 2.17617 6.42551e-17)
(0.812677 0.152497 0)
(0.799468 0.155933 -1.16422e-18)
(0.875785 0.132348 7.8293e-18)
(0.826954 0.119897 -2.72844e-17)
(0.836892 0.0928162 3.68944e-19)
(1.00308 0.240631 -2.45417e-17)
(0.880629 0.311969 2.75231e-17)
(0.848271 0.289394 2.39741e-17)
(0.928481 0.211328 1.13978e-17)
(0.887966 0.16322 3.95843e-17)
(0.879871 0.17832 -1.06566e-17)
(0.8924 0.243498 1.8442e-18)
(0.868465 0.210061 0)
(0.946214 0.182162 2.05509e-17)
(0.981577 0.176558 0)
(0.967074 0.232085 0)
(1.03627 0.128529 -1.25303e-17)
(0.99606 0.181653 3.0289e-17)
(0.989658 0.214137 2.08056e-17)
(1.05053 0.209392 0)
(0.992931 0.0284402 -3.62518e-17)
(0.996723 0.0299765 2.8226e-17)
(1.00011 0.0349786 -2.41813e-17)
(1.00826 0.0499736 4.21707e-17)
(0.988761 0.0572832 -5.21447e-17)
(0.921532 0.133659 0)
(0.948761 0.0798521 0)
(0.938554 0.0485268 4.32515e-17)
(0.913978 0.0532858 8.17622e-18)
(1.00244 0.108115 -3.83084e-17)
(1.00376 0.140945 -2.41656e-17)
(1.00712 0.158443 -9.96398e-18)
(0.986821 0.158872 0)
(1.00992 0.0978311 0)
(1.0045 0.0873391 3.49181e-17)
(0.997996 0.0905827 -2.45752e-17)
(0.731184 1.44265 2.53983e-17)
(0.774818 1.80606 -1.94599e-17)
(0.985791 2.34561 1.92633e-17)
(1.04776 2.56529 -2.44122e-18)
(1.05672 2.30849 -2.48529e-17)
(1.13979 2.31946 4.54307e-18)
(1.09768 2.03759 7.93127e-18)
(1.06548 2.48405 -1.45316e-17)
(1.05479 2.48091 -1.4823e-17)
(1.10595 2.65299 -1.57854e-18)
(1.22553 2.51559 2.63477e-18)
(1.29091 2.45099 0)
(0.521124 1.11932 -3.26329e-18)
(-0.184693 1.43335 -1.42709e-17)
(0.0442261 0.616274 -6.74983e-18)
(-0.11209 0.812849 -1.69747e-17)
(0.358793 0.453699 -8.59267e-18)
(0.370921 0.505292 2.85085e-18)
(0.318768 0.589614 -6.18378e-18)
(0.230188 0.484654 2.4722e-18)
(0.333556 0.38414 -7.13521e-18)
(0.7432 0.268828 2.35824e-17)
(0.700373 0.304957 0)
(0.726708 0.270444 5.92736e-18)
(0.595706 0.563815 -1.14516e-17)
(0.522432 0.534472 1.32272e-17)
(0.427012 0.58726 -5.66716e-18)
(0.50228 0.481942 0)
(0.593325 0.926956 -2.39749e-17)
(0.771186 0.858206 4.56964e-17)
(0.708049 1.02179 4.97284e-17)
(0.799577 0.868935 1.30096e-17)
(0.91975 0.902462 -4.10448e-18)
(0.91532 0.943095 -5.53476e-18)
(0.774479 0.746078 5.18112e-18)
(0.833943 0.790031 9.51257e-18)
(0.935709 0.825338 0)
(0.936263 0.725317 2.51468e-17)
(0.935529 0.32548 4.88973e-17)
(1.06216 0.313438 -1.95951e-17)
(0.985268 0.287811 -4.85851e-17)
(0.90199 0.398044 4.63203e-17)
(0.981067 0.453361 0)
(1.02168 0.426349 0)
(0.772754 0.402001 4.85244e-17)
(0.792714 0.288686 0)
(0.787669 0.286666 -1.43793e-17)
(0.831273 0.315736 6.60826e-17)
(0.827813 0.49606 -8.34717e-17)
(0.766964 0.560088 -4.90137e-19)
(0.79088 0.507217 7.80386e-18)
(0.71194 0.471173 -1.41967e-18)
(0.699468 0.488357 -5.81277e-18)
(0.64377 0.469072 -7.55039e-19)
(1.01799 0.0149403 -4.60128e-17)
(1.01485 0.00230991 0)
(1.02219 0.0111273 1.02459e-17)
(1.00896 0.0193096 -1.35602e-17)
(1.01734 0.0101065 -2.32334e-17)
(1.01039 0.013385 2.88966e-18)
(1.0037 0.00700281 0)
(1.00713 -0.00202756 1.26489e-17)
(1.01648 0.0064746 -8.66711e-19)
(1.01085 0.00361902 -3.17075e-18)
(1.0119 0.00310543 8.45351e-18)
(-0.00824701 1.82245 0)
(0.0117716 1.81659 0)
(0.0199311 1.83626 0)
(0.00026251 1.8311 0)
(0.0353905 1.83289 -6.2647e-18)
(0.0250249 1.84549 -1.04236e-16)
(0.0196727 1.77811 -3.14528e-17)
(0.0201924 1.84754 -8.34819e-17)
(0.0216105 1.80226 5.56982e-17)
(0.0367468 1.81888 5.91557e-17)
(0.0324123 1.83975 1.16321e-16)
(0.0272519 1.83918 5.58868e-17)
(0.0182911 1.82338 9.85273e-18)
(0.0105473 1.83049 1.48785e-18)
(0.024886 1.69393 -6.65828e-17)
(0.0378266 1.70055 0)
(0.0243333 1.72598 -3.97013e-17)
(0.0179462 1.76895 -5.13922e-18)
(0.0877162 1.71493 -1.72545e-17)
(0.0742562 1.63994 0)
(0.0838832 1.64145 5.33011e-17)
(0.106622 1.66353 4.70296e-17)
(0.0639268 1.71797 -5.99696e-17)
(0.0450833 1.72223 -8.00857e-17)
(0.0183171 1.64433 0)
(0.031738 1.74799 3.19678e-17)
(0.0219363 1.71828 -2.04418e-17)
(0.0271683 1.74526 0)
(0.0381752 1.72187 2.03744e-17)
(0.0244533 1.72847 1.6608e-17)
(0.00189853 1.78051 9.16526e-18)
(-0.00369561 1.77695 -9.63477e-17)
(-0.0127605 1.77361 -6.43007e-17)
(-0.0171696 1.76741 4.48424e-17)
(0.00368364 1.76336 0)
(0.0161137 1.7797 0)
(0.00481941 1.78083 -3.80461e-17)
(0.00295814 1.76936 -3.49465e-18)
(0.00638778 1.77611 0)
(-0.00271542 1.79162 3.20422e-17)
(0.000887827 1.78471 1.12466e-18)
(1.01082 0.027985 0)
(1.01414 0.0252522 2.6631e-19)
(0.998026 0.0183127 4.31814e-17)
(1.01171 0.0185907 0)
(1.00873 0.0122316 0)
(1.00661 0.00140354 2.07235e-17)
(1.00672 0.0086447 -5.31305e-17)
(1.00121 0.00430546 -1.70253e-17)
(1.00039 0.0043038 0)
(1.00662 0.00783482 0)
(0.999862 0.0135743 2.82618e-17)
(0.997887 0.014583 0)
(1.00574 0.0113666 0)
(-0.00680806 1.76115 0)
(0.00192895 1.7659 -4.00618e-17)
(0.0033256 1.75048 4.13223e-17)
(0.00388394 1.76501 0)
(0.00857524 1.77499 -3.79409e-17)
(-9.35083e-05 1.77181 -1.8315e-17)
(-0.00205791 1.76822 0)
(0.193721 1.98445 0)
(0.0664741 1.82275 2.37004e-17)
(0.10198 1.84708 0)
(0.104221 1.75039 7.84186e-17)
(0.236667 1.57873 0)
(0.186165 1.71819 3.35799e-17)
(0.792161 2.17048 -2.59398e-19)
(0.745244 1.78483 -2.4871e-17)
(0.764096 1.73261 -2.14497e-17)
(0.583777 1.571 -7.97852e-18)
(0.523755 1.91492 0)
(0.579348 1.98866 0)
(0.695973 1.67147 0)
(0.667733 1.55002 -2.79706e-18)
(0.298368 2.02041 -3.70819e-17)
(0.440356 1.92086 3.81603e-18)
(0.3865 2.08175 2.41082e-18)
(0.431722 1.48213 0)
(0.503914 1.50537 0)
(0.483432 1.45694 8.91986e-19)
(0.424036 1.78778 0)
(0.785383 1.07301 0)
(0.688862 1.14142 -6.06132e-17)
(0.66965 1.07521 -5.7388e-18)
(0.75479 1.1133 0)
(0.729972 1.19593 -7.05628e-17)
(0.745675 1.04943 -9.42244e-18)
(0.794423 1.14242 0)
(0.79682 1.07201 -2.9142e-17)
(0.756461 1.14626 0)
(0.683852 1.09794 0)
(0.92164 2.38208 1.37936e-17)
(0.945003 2.42652 -9.39812e-18)
(0.809974 2.22472 -3.89442e-17)
(0.765476 2.22183 -2.76236e-18)
(0.89232 2.3173 0)
(0.817611 2.31731 -4.85313e-18)
(0.843019 2.11773 -4.5531e-18)
(0.796488 1.91975 -7.39882e-18)
(0.47 1.95301 0)
(0.535368 1.35299 3.03731e-17)
(0.547024 1.33558 0)
(0.828932 0.201631 0)
(0.795263 0.192426 0)
(0.769168 0.200579 0)
(0.82467 0.241147 -6.81454e-18)
(0.771468 0.226789 4.56729e-18)
(0.918543 0.0770923 1.316e-17)
(0.901972 0.118306 0)
(0.87292 0.100473 -8.73528e-19)
(0.855753 0.0789453 -5.15116e-18)
(0.870858 0.0532909 -4.62207e-18)
(1.08153 2.78848 -1.51892e-17)
(1.03739 2.6961 0)
(0.979864 2.8614 -5.22817e-17)
(0.625366 3.06255 -2.88756e-17)
(0.775847 2.5928 1.21775e-17)
(0.515782 1.24762 -2.49708e-17)
(0.611239 1.15372 0)
(0.253164 0.841864 6.6935e-18)
(0.275504 0.966775 3.93325e-17)
(0.200216 0.796459 9.71797e-18)
(0.27301 0.635752 4.90414e-18)
(0.489978 0.606289 -8.94248e-18)
(0.527449 0.652975 0)
(0.478587 0.777809 0)
(0.363049 0.739607 0)
(0.914882 0.669897 1.00125e-17)
(0.837323 0.6005 7.81232e-18)
(0.844265 0.633278 -3.28552e-18)
(0.860031 0.527292 2.02122e-17)
(0.966718 0.550925 0)
(0.949832 0.600339 -1.02104e-17)
(0.748288 0.429375 1.05295e-17)
(0.758669 0.380642 2.52549e-17)
(0.686526 0.420571 -4.39536e-18)
(0.688213 0.39978 2.67272e-18)
(0.766449 0.343695 -8.29364e-18)
(0.730489 0.333833 -1.64803e-17)
(1.01818 0.00594883 -3.67607e-17)
(1.01655 0.000779432 -3.43582e-17)
(1.02334 0.0156739 3.49531e-17)
(1.01997 0.0150566 4.95758e-17)
(1.00604 0.0230654 0)
(0.996646 0.00962692 -1.30882e-17)
(0.0473982 1.76414 2.53811e-17)
(0.0441297 1.78434 0)
(0.0256411 1.76611 -4.50316e-17)
(0.0188099 1.76392 -5.50897e-17)
(0.0141075 1.77995 -3.49405e-17)
(0.0279439 1.79276 0)
(0.0256484 1.77769 0)
(0.0151983 1.77073 -1.85758e-17)
(0.00320838 1.75846 -1.91681e-17)
(-0.00118849 1.76615 -4.75462e-17)
(-0.00825122 1.76377 -9.60495e-18)
(0.0224963 1.76801 -4.14252e-18)
(0.350585 1.89323 -1.06583e-16)
(0.239806 1.91217 -1.24741e-16)
(0.156383 1.74506 7.34869e-17)
(0.146576 1.94732 -4.75835e-18)
(0.502456 1.30445 0)
(0.315149 1.52027 7.35111e-17)
(0.401139 1.38329 6.47942e-17)
(0.203065 1.50908 6.45773e-17)
(0.322011 1.51298 0)
(0.442703 1.29922 0)
(0.288116 1.95637 -4.54709e-17)
(0.34492 1.68931 -6.36308e-17)
(0.388238 1.75822 -5.31142e-17)
(0.312022 1.65679 -2.17988e-18)
(0.239835 1.83052 1.95685e-18)
(0.256019 1.64328 -1.84926e-17)
(0.75819 1.8829 -1.00505e-17)
(0.794536 1.98315 0)
(0.776767 1.82464 4.47873e-18)
(0.823846 2.25001 0)
(0.79114 2.22064 0)
(0.610914 1.97432 -2.30693e-18)
(0.98593 2.5174 -2.90952e-18)
(0.866406 2.49173 -1.16598e-18)
(0.158953 1.22902 0)
(0.203188 1.17366 -1.42715e-17)
(0.505188 1.13301 -3.41184e-17)
(0.365792 1.88776 0)
(0.371844 2.33696 6.24996e-18)
(0.200485 2.28582 0)
(0.637604 0.843675 -1.32053e-17)
(0.666791 0.82041 -4.68951e-17)
(0.683828 0.758126 -2.12937e-17)
(0.516736 0.800432 -1.65051e-18)
(0.58408 0.692128 1.72362e-18)
(0.917572 2.31344 -9.97877e-18)
(0.971988 2.32011 -7.45311e-18)
(0.687778 1.93739 8.87324e-18)
(0.736143 1.6721 2.85197e-17)
(0.863912 1.81931 3.81336e-17)
(0.951516 2.1121 -2.81184e-17)
(0.927012 2.14163 -1.87186e-17)
(0.803015 1.70714 6.44614e-19)
(0.757841 1.4765 3.10214e-17)
)
;

boundaryField
{
    wall-4
    {
        type            calculated;
        value           uniform (0 0 0);
    }
    velocity-inlet-5
    {
        type            calculated;
        value           uniform (1 0 0);
    }
    velocity-inlet-6
    {
        type            calculated;
        value           uniform (0 3 0);
    }
    pressure-outlet-7
    {
        type            calculated;
        value           nonuniform List<vector> 8((-0.00653614 1.71946 0) (-0.00922947 1.68099 5.49264e-17) (0.00466952 1.76759 0) (-0.0107409 1.79033 0) (0.00364821 1.75255 0) (0.00470626 1.76386 0) (0.00248655 1.7484 0) (-0.00232834 1.77159 0));
    }
    wall-8
    {
        type            calculated;
        value           uniform (0 0 0);
    }
    frontAndBackPlanes
    {
        type            empty;
    }
}

