/*--------------------------------*- C++ -*----------------------------------*\
  =========                 |
  \\      /  F ield         | OpenFOAM: The Open Source CFD Toolbox
   \\    /   O peration     | Website:  https://openfoam.org
    \\  /    A nd           | Version:  6
     \\/     M anipulation  |
\*---------------------------------------------------------------------------*/
FoamFile
{
    version     2.0;
    format      ascii;
    class       volVectorField;
    location    "0";
    object      U_rec;
}
// * * * * * * * * * * * * * * * * * * * * * * * * * * * * * * * * * * * * * //

dimensions      [0 1 -1 0 0 0 0];

internalField   nonuniform List<vector> 
9000
(
(0.580011 0.148921 0)
(0.461029 0.0642727 0)
(0.279083 0.0217871 0)
(0.196272 0.00966681 0)
(0.151401 0.00558811 0)
(0.124859 0.0029108 0)
(0.108698 0.0026091 0)
(0.097568 0.000707567 0)
(0.0892523 -3.00024e-05 0)
(0.084022 -0.000438189 0)
(0.0804747 0.00193246 0)
(0.0777689 0.001915 0)
(0.0749639 0.00222559 0)
(0.0746267 0.00183219 0)
(0.0744342 -0.000104167 0)
(0.0732737 -0.00105481 0)
(0.0722575 -0.00101716 0)
(0.071466 0.000450917 0)
(0.0712831 0.00123148 0)
(0.0716755 0.00247264 0)
(0.0721821 0.00129746 0)
(0.0717938 0.00198329 0)
(0.0715298 0.00108343 0)
(0.0715381 0.00102218 0)
(0.0714712 0.00115555 0)
(0.0721367 0.00153251 0)
(0.0709989 -0.000548331 0)
(0.0712445 0.000135561 0)
(0.0718925 -0.00105052 0)
(0.0709459 -0.00102969 0)
(0.0719042 -9.05267e-06 0)
(0.0716951 -0.00167422 0)
(0.0713395 -0.00176891 0)
(0.0715274 -0.00156199 0)
(0.0707744 -0.00121529 0)
(0.0709322 -0.000838079 0)
(0.0711878 0.000208257 0)
(0.0716861 -0.00115728 0)
(0.0720924 -0.000509509 0)
(0.0726795 -0.000506844 0)
(0.0730016 -0.000321962 0)
(0.0725396 -0.000681924 0)
(0.0731434 -4.61697e-05 0)
(0.0740302 1.61437e-05 0)
(0.0760542 -0.00131347 0)
(0.0779352 -0.00266056 0)
(0.0811779 -0.0024239 0)
(0.0900471 -0.000969702 0)
(0.109864 -0.00819376 0)
(0.159879 -0.0470966 0)
(0.918667 0.329219 0)
(0.836134 0.226562 0)
(0.635527 0.127153 0)
(0.501277 0.072956 0)
(0.410841 0.0441314 0)
(0.350747 0.027112 0)
(0.310168 0.0201847 0)
(0.280682 0.0103592 0)
(0.259918 0.00697765 0)
(0.247332 0.00348484 0)
(0.237415 0.00632271 0)
(0.228438 0.00590379 0)
(0.221215 0.00465291 0)
(0.217791 0.00486468 0)
(0.216158 0.00140538 0)
(0.214536 -0.000457008 0)
(0.213436 -0.00177403 0)
(0.211869 0.000127398 0)
(0.211135 0.00250584 0)
(0.210533 0.00427461 0)
(0.211133 0.00357438 0)
(0.210536 0.00328712 0)
(0.209485 0.00221872 0)
(0.210134 0.00295583 0)
(0.2102 0.00357836 0)
(0.209868 0.00117705 0)
(0.208163 -0.000164585 0)
(0.208982 4.77106e-05 0)
(0.209594 -0.00333248 0)
(0.209625 -0.00107301 0)
(0.210177 -0.00136148 0)
(0.20897 -0.00295565 0)
(0.209548 -0.00397822 0)
(0.210222 -0.00378229 0)
(0.208827 -0.00196186 0)
(0.209438 -0.000845066 0)
(0.209382 -0.00042551 0)
(0.210746 -0.000804263 0)
(0.212628 -0.00142739 0)
(0.21343 -0.000488363 0)
(0.214119 -0.00157669 0)
(0.214544 -0.00339497 0)
(0.21702 -0.00262262 0)
(0.218812 -0.00347266 0)
(0.223443 -0.00435418 0)
(0.231007 -0.00769524 0)
(0.24381 -0.0107617 0)
(0.264121 -0.0164617 0)
(0.300349 -0.0398773 0)
(0.370732 -0.101199 0)
(0.994449 0.314971 0)
(0.987186 0.308725 0)
(0.848287 0.218459 0)
(0.721047 0.144577 0)
(0.618365 0.0966046 0)
(0.544338 0.0652347 0)
(0.488369 0.0446967 0)
(0.446848 0.0292405 0)
(0.417981 0.0215262 0)
(0.399168 0.0154872 0)
(0.385058 0.0119472 0)
(0.370364 0.0078812 0)
(0.360216 0.00710774 0)
(0.354776 0.00766912 0)
(0.350803 0.00328766 0)
(0.347813 0.00122164 0)
(0.346183 0.000919254 0)
(0.345428 0.000492754 0)
(0.344383 0.00321895 0)
(0.342949 0.00359681 0)
(0.342786 0.00518128 0)
(0.341543 0.00226434 0)
(0.34127 0.00271396 0)
(0.34243 0.00358916 0)
(0.34015 0.00379073 0)
(0.339858 0.000387204 0)
(0.339462 -0.000268113 0)
(0.33839 -0.00235291 0)
(0.340585 -0.00486524 0)
(0.341104 -0.0021873 0)
(0.340724 -0.003066 0)
(0.339497 -0.00287161 0)
(0.339798 -0.00297517 0)
(0.342152 -0.00323307 0)
(0.341243 -0.00144498 0)
(0.340715 0.000361831 0)
(0.341309 0.000238691 0)
(0.342918 0.00121821 0)
(0.345356 -0.00152684 0)
(0.346851 -0.000446202 0)
(0.347019 -0.00234681 0)
(0.349476 -0.00476339 0)
(0.353924 -0.00640547 0)
(0.358208 -0.00801672 0)
(0.365909 -0.0101343 0)
(0.376818 -0.0149738 0)
(0.395769 -0.0225826 0)
(0.423753 -0.041573 0)
(0.46611 -0.0739588 0)
(0.529075 -0.145491 0)
(1.00601 0.271595 0)
(1.0435 0.339756 0)
(0.965527 0.285376 0)
(0.869206 0.210025 0)
(0.777204 0.152415 0)
(0.700758 0.10875 0)
(0.641132 0.0751641 0)
(0.596128 0.0559007 0)
(0.562259 0.0416121 0)
(0.537933 0.030849 0)
(0.51874 0.0218039 0)
(0.503398 0.0138309 0)
(0.492667 0.0128515 0)
(0.483044 0.0101385 0)
(0.476955 0.00560303 0)
(0.475109 0.0033492 0)
(0.472537 0.00278965 0)
(0.470981 0.0015908 0)
(0.469974 0.00343233 0)
(0.468222 0.00183334 0)
(0.466961 0.0038784 0)
(0.465307 0.000802667 0)
(0.465942 0.00258821 0)
(0.466574 0.00242937 0)
(0.463812 0.00219762 0)
(0.462559 0.000444565 0)
(0.461489 -0.00203922 0)
(0.461113 -0.00136914 0)
(0.464365 -0.00381423 0)
(0.465318 -0.0028704 0)
(0.465034 -0.00138368 0)
(0.464026 -0.00194725 0)
(0.464034 -0.000976213 0)
(0.466279 -0.00242872 0)
(0.466323 -0.00233423 0)
(0.465963 0.000997755 0)
(0.466156 -2.76615e-05 0)
(0.467198 0.000414996 0)
(0.470528 -0.00160373 0)
(0.473393 -0.00241177 0)
(0.473884 -0.00489387 0)
(0.476784 -0.0059238 0)
(0.483062 -0.00946064 0)
(0.489198 -0.0120833 0)
(0.499244 -0.0173778 0)
(0.514331 -0.0260422 0)
(0.535058 -0.0395674 0)
(0.566379 -0.0661601 0)
(0.608712 -0.105896 0)
(0.659641 -0.179311 0)
(1.00142 0.230081 0)
(1.05757 0.34283 0)
(1.02795 0.323507 0)
(0.965008 0.260966 0)
(0.892574 0.198483 0)
(0.824551 0.14815 0)
(0.769808 0.112279 0)
(0.725923 0.0831993 0)
(0.689343 0.063597 0)
(0.663236 0.0473367 0)
(0.642451 0.0339689 0)
(0.6261 0.023893 0)
(0.614139 0.0194105 0)
(0.602927 0.012841 0)
(0.596402 0.00855573 0)
(0.59339 0.00583788 0)
(0.590364 0.00275941 0)
(0.589502 0.00138426 0)
(0.587415 0.00366632 0)
(0.585411 0.00379421 0)
(0.584194 0.00286632 0)
(0.582639 0.000200525 0)
(0.583524 0.00106162 0)
(0.583431 0.000255076 0)
(0.580123 0.000683319 0)
(0.577895 0.000132375 0)
(0.578926 -0.00147846 0)
(0.57797 0.000618118 0)
(0.57993 -0.00137089 0)
(0.582877 -0.00231788 0)
(0.582149 0.00058827 0)
(0.580636 0.000389138 0)
(0.580188 0.000544227 0)
(0.582349 -0.00044974 0)
(0.584674 -0.000144534 0)
(0.583643 -0.00015878 0)
(0.582993 -0.00218751 0)
(0.585345 -0.00163665 0)
(0.58867 -0.00477797 0)
(0.591625 -0.00555406 0)
(0.593589 -0.00911006 0)
(0.597758 -0.0101801 0)
(0.604637 -0.0143303 0)
(0.612777 -0.0203413 0)
(0.624039 -0.0288301 0)
(0.640119 -0.0395784 0)
(0.662393 -0.056797 0)
(0.694143 -0.0864265 0)
(0.731788 -0.131604 0)
(0.770522 -0.200107 0)
(0.996135 0.194237 0)
(1.05552 0.330561 0)
(1.05616 0.338399 0)
(1.02275 0.29251 0)
(0.973853 0.23456 0)
(0.923647 0.185664 0)
(0.875594 0.144819 0)
(0.834776 0.108856 0)
(0.802004 0.084189 0)
(0.774857 0.0640587 0)
(0.75329 0.0466766 0)
(0.738374 0.0349037 0)
(0.725933 0.0256603 0)
(0.713419 0.0169563 0)
(0.707126 0.0131051 0)
(0.703879 0.00917774 0)
(0.700418 0.00550783 0)
(0.700813 0.00498555 0)
(0.699897 0.00522438 0)
(0.695413 0.0044671 0)
(0.69211 0.00296664 0)
(0.691449 0.00126436 0)
(0.692635 0.000898803 0)
(0.692962 -0.000630731 0)
(0.690397 -0.000675472 0)
(0.687422 0.00228515 0)
(0.688003 -0.000288138 0)
(0.687577 0.000205912 0)
(0.688674 0.00109072 0)
(0.692746 -0.00105605 0)
(0.693424 0.000727789 0)
(0.690707 0.000413576 0)
(0.689959 0.00353973 0)
(0.692474 0.00365383 0)
(0.693383 0.00233168 0)
(0.69199 -0.000798135 0)
(0.693401 -0.00155165 0)
(0.695184 -0.00269145 0)
(0.699231 -0.00621024 0)
(0.703412 -0.00864721 0)
(0.705569 -0.0106055 0)
(0.710684 -0.0148436 0)
(0.717475 -0.0199895 0)
(0.72589 -0.0287689 0)
(0.739671 -0.0397632 0)
(0.758288 -0.053616 0)
(0.778939 -0.0718462 0)
(0.807432 -0.102896 0)
(0.840346 -0.150915 0)
(0.868459 -0.215687 0)
(0.990361 0.164349 0)
(1.04682 0.307767 0)
(1.06648 0.337564 0)
(1.05741 0.310213 0)
(1.03249 0.263593 0)
(0.997947 0.216011 0)
(0.9593 0.170141 0)
(0.926643 0.132017 0)
(0.898232 0.102265 0)
(0.873486 0.0771335 0)
(0.854181 0.0578259 0)
(0.839522 0.0437182 0)
(0.826561 0.0313256 0)
(0.816261 0.0223433 0)
(0.810542 0.0170706 0)
(0.805988 0.0121076 0)
(0.803553 0.00776456 0)
(0.80393 0.0081873 0)
(0.800777 0.00637237 0)
(0.797037 0.00293204 0)
(0.794974 0.00293323 0)
(0.793929 0.00149367 0)
(0.794347 -0.000653189 0)
(0.794507 -0.000264146 0)
(0.794064 -0.00163107 0)
(0.789945 0.00126671 0)
(0.789606 0.000487985 0)
(0.791014 -0.000293549 0)
(0.791127 0.00145659 0)
(0.794726 0.00174861 0)
(0.79548 0.0014026 0)
(0.79464 0.00117586 0)
(0.794237 0.00351687 0)
(0.793788 0.00362478 0)
(0.794622 0.00105838 0)
(0.794571 -0.00152315 0)
(0.796098 -0.00173312 0)
(0.797954 -0.00431305 0)
(0.801803 -0.00549958 0)
(0.807219 -0.0101298 0)
(0.810031 -0.0126198 0)
(0.815022 -0.0180824 0)
(0.822636 -0.0243677 0)
(0.831649 -0.0341024 0)
(0.84557 -0.0464126 0)
(0.864638 -0.0642961 0)
(0.885317 -0.0878896 0)
(0.908787 -0.119456 0)
(0.933891 -0.166513 0)
(0.954016 -0.227423 0)
(0.986781 0.139912 0)
(1.038 0.280891 0)
(1.06856 0.325405 0)
(1.0783 0.31511 0)
(1.07144 0.279821 0)
(1.05257 0.232433 0)
(1.02586 0.188008 0)
(1.00221 0.148857 0)
(0.97958 0.114013 0)
(0.95893 0.0871908 0)
(0.942974 0.0660105 0)
(0.930656 0.0496385 0)
(0.919411 0.0364562 0)
(0.909602 0.0281397 0)
(0.904129 0.0196599 0)
(0.900302 0.0135675 0)
(0.898781 0.0089249 0)
(0.899796 0.00710238 0)
(0.895663 0.00457815 0)
(0.891722 0.00551268 0)
(0.889453 0.00223194 0)
(0.887192 0.00148982 0)
(0.889069 2.32706e-05 0)
(0.890027 -0.000680792 0)
(0.889126 -0.00174521 0)
(0.8862 -0.0014711 0)
(0.884726 0.00222677 0)
(0.88603 0.000274227 0)
(0.887583 -0.000719408 0)
(0.890337 0.000886055 0)
(0.890932 -0.000447927 0)
(0.889798 0.00215386 0)
(0.889225 0.000746992 0)
(0.889058 0.00082377 0)
(0.888891 -0.00145384 0)
(0.889582 -0.00232607 0)
(0.891763 -0.00373331 0)
(0.893937 -0.0063309 0)
(0.897943 -0.00657401 0)
(0.902916 -0.00999822 0)
(0.906708 -0.0168327 0)
(0.912268 -0.0218957 0)
(0.919675 -0.0306185 0)
(0.928238 -0.0410711 0)
(0.941899 -0.0537603 0)
(0.959462 -0.0747211 0)
(0.978586 -0.100067 0)
(0.999429 -0.135104 0)
(1.01844 -0.180239 0)
(1.03063 -0.234372 0)
(0.982892 0.120809 0)
(1.02833 0.253733 0)
(1.06671 0.306344 0)
(1.09072 0.306987 0)
(1.09761 0.280855 0)
(1.09127 0.238156 0)
(1.07842 0.197837 0)
(1.06314 0.160697 0)
(1.04791 0.124238 0)
(1.03389 0.0955539 0)
(1.02209 0.0726361 0)
(1.01209 0.0561822 0)
(1.00317 0.0416498 0)
(0.994725 0.031133 0)
(0.989345 0.0240201 0)
(0.986426 0.0165884 0)
(0.985425 0.0105842 0)
(0.986331 0.00737404 0)
(0.984242 0.00238339 0)
(0.979645 0.00466104 0)
(0.976309 0.0022242 0)
(0.976147 0.00352206 0)
(0.976198 0.00244687 0)
(0.976644 -0.00246282 0)
(0.976935 -0.00247135 0)
(0.975388 -0.00422657 0)
(0.973812 -0.000909355 0)
(0.972436 -0.000808101 0)
(0.974539 -0.00134205 0)
(0.977847 -0.00241655 0)
(0.97962 -0.00288345 0)
(0.978722 -0.00148413 0)
(0.97694 -0.00156471 0)
(0.976515 -0.000807896 0)
(0.977317 -0.00103118 0)
(0.978171 -0.00289454 0)
(0.979173 -0.00507634 0)
(0.982803 -0.00738244 0)
(0.987462 -0.00898584 0)
(0.990432 -0.0126438 0)
(0.994445 -0.0204328 0)
(1.00078 -0.025912 0)
(1.00795 -0.0359785 0)
(1.01776 -0.0478331 0)
(1.02923 -0.0614529 0)
(1.0453 -0.0829185 0)
(1.06239 -0.109202 0)
(1.0779 -0.145051 0)
(1.09314 -0.189464 0)
(1.10041 -0.240113 0)
(0.980216 0.102405 0)
(1.02031 0.225525 0)
(1.06163 0.283216 0)
(1.09527 0.29264 0)
(1.11386 0.274376 0)
(1.12105 0.239071 0)
(1.12097 0.202511 0)
(1.11386 0.16677 0)
(1.1047 0.133732 0)
(1.09706 0.103932 0)
(1.09075 0.07819 0)
(1.08484 0.0614141 0)
(1.07721 0.0457784 0)
(1.07161 0.0337436 0)
(1.06763 0.0272034 0)
(1.06385 0.0197935 0)
(1.06415 0.0145356 0)
(1.06523 0.00829533 0)
(1.06413 0.00395546 0)
(1.06123 0.0025797 0)
(1.05814 0.0047438 0)
(1.05654 0.00515737 0)
(1.05412 0.0021714 0)
(1.05588 -0.00256671 0)
(1.05698 -0.00321941 0)
(1.05535 -0.00468496 0)
(1.05523 -0.00279246 0)
(1.0543 -0.0030121 0)
(1.05492 -0.000598561 0)
(1.05793 -0.00306715 0)
(1.06029 -0.00363435 0)
(1.05962 -0.00492331 0)
(1.05908 -0.00350264 0)
(1.05945 -0.00243737 0)
(1.05778 -0.00143386 0)
(1.0575 -0.00326003 0)
(1.06019 -0.00434477 0)
(1.06378 -0.00760276 0)
(1.0683 -0.0119867 0)
(1.07103 -0.015978 0)
(1.07585 -0.0225496 0)
(1.082 -0.02962 0)
(1.08792 -0.041042 0)
(1.09715 -0.0531349 0)
(1.10821 -0.0711389 0)
(1.1218 -0.0908179 0)
(1.13578 -0.120886 0)
(1.14771 -0.153156 0)
(1.15779 -0.195151 0)
(1.16231 -0.241582 0)
(0.978076 0.0867414 0)
(1.01446 0.199184 0)
(1.05807 0.257936 0)
(1.09792 0.275355 0)
(1.12503 0.262685 0)
(1.14201 0.235038 0)
(1.15246 0.200706 0)
(1.15494 0.166827 0)
(1.15345 0.135845 0)
(1.15024 0.108224 0)
(1.15008 0.0830391 0)
(1.14814 0.064318 0)
(1.14273 0.0483163 0)
(1.14067 0.0355175 0)
(1.13766 0.0262811 0)
(1.13524 0.0212217 0)
(1.13431 0.0165963 0)
(1.13554 0.0100246 0)
(1.13642 0.00582798 0)
(1.13515 0.00326583 0)
(1.13285 0.0049754 0)
(1.129 0.00443893 0)
(1.12552 0.00143224 0)
(1.1278 0.000262475 0)
(1.12971 -0.00302066 0)
(1.12939 -0.00381286 0)
(1.12873 -0.00177831 0)
(1.12765 -6.37965e-05 0)
(1.12854 -0.00234308 0)
(1.13038 -0.00179541 0)
(1.13283 -0.0040606 0)
(1.13375 -0.00532577 0)
(1.13375 -0.00403741 0)
(1.13324 -0.0041465 0)
(1.13242 -0.00367123 0)
(1.13233 -0.00336098 0)
(1.13334 -0.00431457 0)
(1.13595 -0.00769658 0)
(1.14159 -0.0127496 0)
(1.14451 -0.0183117 0)
(1.14867 -0.0238783 0)
(1.15358 -0.0346582 0)
(1.15961 -0.0466792 0)
(1.16798 -0.0604424 0)
(1.17738 -0.0780668 0)
(1.18901 -0.0998105 0)
(1.20073 -0.127956 0)
(1.21005 -0.161434 0)
(1.21534 -0.199329 0)
(1.21656 -0.240944 0)
(0.977178 0.0752949 0)
(1.01011 0.176799 0)
(1.0541 0.232564 0)
(1.0977 0.252326 0)
(1.1313 0.244995 0)
(1.15759 0.223903 0)
(1.17671 0.192957 0)
(1.18772 0.161674 0)
(1.1935 0.132666 0)
(1.19653 0.1056 0)
(1.20033 0.0829747 0)
(1.20247 0.0649327 0)
(1.20006 0.0495181 0)
(1.19957 0.0344658 0)
(1.20024 0.0240232 0)
(1.19944 0.0193081 0)
(1.19822 0.0145854 0)
(1.19968 0.0115574 0)
(1.20056 0.00697082 0)
(1.20093 0.00378546 0)
(1.19886 0.00348361 0)
(1.19405 0.00298122 0)
(1.19092 0.00141366 0)
(1.19253 0.00107648 0)
(1.19385 -0.00289894 0)
(1.1956 -0.00292967 0)
(1.19701 -0.00170135 0)
(1.19373 -0.000783989 0)
(1.19368 -0.0024776 0)
(1.19673 -0.00108504 0)
(1.19843 -0.00314054 0)
(1.20024 -0.00314201 0)
(1.2005 -0.00360736 0)
(1.20022 -0.00531751 0)
(1.19946 -0.00514586 0)
(1.19882 -0.00601929 0)
(1.20024 -0.00839407 0)
(1.20238 -0.00959326 0)
(1.2065 -0.013276 0)
(1.21026 -0.0207313 0)
(1.21291 -0.0272097 0)
(1.21678 -0.0386297 0)
(1.22285 -0.050235 0)
(1.23058 -0.0650569 0)
(1.23893 -0.0820362 0)
(1.24855 -0.104535 0)
(1.25638 -0.130881 0)
(1.26248 -0.165952 0)
(1.2659 -0.20051 0)
(1.26363 -0.238845 0)
(0.976226 0.0635715 0)
(1.00638 0.152583 0)
(1.04996 0.205848 0)
(1.0964 0.223171 0)
(1.13624 0.222601 0)
(1.1681 0.206988 0)
(1.1943 0.178933 0)
(1.21371 0.151292 0)
(1.22587 0.123627 0)
(1.2343 0.0990458 0)
(1.24429 0.0783889 0)
(1.25002 0.0612461 0)
(1.24827 0.0470609 0)
(1.25023 0.0338313 0)
(1.25411 0.0240652 0)
(1.25558 0.0188787 0)
(1.25544 0.0139448 0)
(1.25675 0.0106091 0)
(1.25713 0.00648738 0)
(1.2581 0.00330731 0)
(1.25735 0.00155432 0)
(1.25273 0.00124666 0)
(1.24903 0.00119684 0)
(1.24979 0.00116231 0)
(1.25197 -0.000144143 0)
(1.25496 0.000412697 0)
(1.25478 -0.00220115 0)
(1.25231 -0.00149171 0)
(1.25385 -0.000117754 0)
(1.25527 -0.00127629 0)
(1.25701 -0.00114928 0)
(1.25909 -0.00229755 0)
(1.25842 -0.0036086 0)
(1.25855 -0.00638742 0)
(1.25861 -0.00767788 0)
(1.25771 -0.00926182 0)
(1.25953 -0.0109401 0)
(1.26229 -0.0110149 0)
(1.26484 -0.0157658 0)
(1.26704 -0.023086 0)
(1.26968 -0.0304856 0)
(1.27315 -0.0401566 0)
(1.27881 -0.0521026 0)
(1.28549 -0.0665411 0)
(1.29211 -0.085789 0)
(1.2994 -0.107739 0)
(1.30387 -0.133284 0)
(1.30745 -0.165901 0)
(1.30882 -0.197198 0)
(1.30379 -0.233994 0)
(0.975873 0.0529158 0)
(1.00492 0.130518 0)
(1.04614 0.17811 0)
(1.09397 0.197239 0)
(1.1398 0.196829 0)
(1.17516 0.184058 0)
(1.20743 0.15945 0)
(1.23364 0.135424 0)
(1.25204 0.111135 0)
(1.26676 0.0909104 0)
(1.28017 0.0726039 0)
(1.28951 0.0556997 0)
(1.29163 0.0444499 0)
(1.29512 0.0340916 0)
(1.30144 0.0245465 0)
(1.30394 0.0199227 0)
(1.30409 0.0129512 0)
(1.30539 0.0102772 0)
(1.30667 0.00562252 0)
(1.30806 0.00256275 0)
(1.30804 -0.00113457 0)
(1.30408 -0.00160371 0)
(1.30094 -3.49937e-05 0)
(1.30162 0.00279032 0)
(1.30331 0.00391296 0)
(1.30461 0.00210577 0)
(1.30581 -0.000971984 0)
(1.30519 -0.00034851 0)
(1.3045 0.0012881 0)
(1.30686 0.000504149 0)
(1.30845 0.000204109 0)
(1.30957 -0.00107854 0)
(1.30944 -0.00352157 0)
(1.30983 -0.00505857 0)
(1.31009 -0.00795069 0)
(1.30974 -0.00896581 0)
(1.31305 -0.0103263 0)
(1.3139 -0.0121256 0)
(1.31442 -0.0182346 0)
(1.31714 -0.024041 0)
(1.31965 -0.0318344 0)
(1.32198 -0.0414656 0)
(1.32656 -0.0533799 0)
(1.33148 -0.0684257 0)
(1.33655 -0.087243 0)
(1.34272 -0.109285 0)
(1.34448 -0.134598 0)
(1.34586 -0.16241 0)
(1.34459 -0.193366 0)
(1.33702 -0.226797 0)
(0.976036 0.0426827 0)
(1.00337 0.108538 0)
(1.04439 0.148303 0)
(1.09216 0.170107 0)
(1.13947 0.169461 0)
(1.17916 0.156469 0)
(1.21602 0.140513 0)
(1.2496 0.118314 0)
(1.27413 0.0981799 0)
(1.29328 0.0801008 0)
(1.31019 0.0654463 0)
(1.32356 0.0508083 0)
(1.3285 0.0397262 0)
(1.33236 0.0314273 0)
(1.34095 0.024866 0)
(1.3441 0.0176033 0)
(1.34545 0.0107859 0)
(1.34821 0.00895775 0)
(1.3483 0.00542558 0)
(1.34981 0.000763125 0)
(1.3506 -0.00128201 0)
(1.34914 -0.00397488 0)
(1.34742 -0.000197624 0)
(1.34762 0.00302692 0)
(1.34698 0.00326698 0)
(1.34734 0.00150282 0)
(1.34875 -0.000192922 0)
(1.34933 -0.00170458 0)
(1.35011 0.000871404 0)
(1.35061 0.00349042 0)
(1.35218 0.00137747 0)
(1.35318 0.000189339 0)
(1.35294 -0.00300936 0)
(1.35328 -0.00494197 0)
(1.35403 -0.00678045 0)
(1.35468 -0.0068987 0)
(1.35669 -0.00999154 0)
(1.35723 -0.0142135 0)
(1.35764 -0.0199099 0)
(1.3598 -0.0265885 0)
(1.36103 -0.0349593 0)
(1.36341 -0.0429738 0)
(1.36699 -0.0546424 0)
(1.37024 -0.0697323 0)
(1.37368 -0.0867169 0)
(1.3775 -0.108357 0)
(1.37831 -0.13493 0)
(1.37748 -0.158929 0)
(1.37321 -0.189042 0)
(1.36481 -0.220126 0)
(0.976615 0.0325435 0)
(1.00265 0.0865433 0)
(1.04299 0.11961 0)
(1.09111 0.137232 0)
(1.13807 0.138051 0)
(1.18299 0.128693 0)
(1.2248 0.119176 0)
(1.26023 0.100814 0)
(1.29026 0.082713 0)
(1.31483 0.0675175 0)
(1.3353 0.0551416 0)
(1.34975 0.0427649 0)
(1.35803 0.0324416 0)
(1.3653 0.0266453 0)
(1.37346 0.023843 0)
(1.37602 0.0142208 0)
(1.37988 0.0111514 0)
(1.38355 0.00632825 0)
(1.38269 0.00333828 0)
(1.38531 4.87242e-05 0)
(1.38599 -0.000152114 0)
(1.38604 -0.00246857 0)
(1.38658 -0.000129004 0)
(1.38498 0.00162879 0)
(1.38343 -0.00152359 0)
(1.38342 -0.00046417 0)
(1.38483 -0.00239125 0)
(1.38657 -0.0010106 0)
(1.38867 0.0010735 0)
(1.38843 0.00262026 0)
(1.38767 0.00208209 0)
(1.38874 -0.000847858 0)
(1.38881 -0.00328004 0)
(1.39042 -0.00683487 0)
(1.39214 -0.0063978 0)
(1.3917 -0.00958681 0)
(1.39263 -0.0106124 0)
(1.39287 -0.0170478 0)
(1.39213 -0.0217719 0)
(1.39404 -0.0285142 0)
(1.39675 -0.0371714 0)
(1.39856 -0.0451349 0)
(1.39955 -0.0562755 0)
(1.40198 -0.0700606 0)
(1.40344 -0.0866031 0)
(1.40438 -0.107859 0)
(1.40396 -0.132874 0)
(1.4023 -0.156617 0)
(1.39459 -0.184003 0)
(1.38391 -0.213383 0)
(0.97748 0.0256971 0)
(1.00244 0.0644954 0)
(1.04092 0.0921403 0)
(1.08881 0.105321 0)
(1.13754 0.107655 0)
(1.18645 0.103926 0)
(1.23066 0.093567 0)
(1.26855 0.0805893 0)
(1.30278 0.0659294 0)
(1.33091 0.0529062 0)
(1.35417 0.042906 0)
(1.37111 0.0321722 0)
(1.38214 0.0245016 0)
(1.39192 0.0194285 0)
(1.39901 0.0173211 0)
(1.40221 0.0123116 0)
(1.40716 0.01039 0)
(1.40979 0.00517207 0)
(1.41081 0.00281947 0)
(1.41424 0.00160938 0)
(1.41529 0.00111349 0)
(1.41564 -0.000518227 0)
(1.41627 -0.000989644 0)
(1.41293 0.000768604 0)
(1.41208 -0.00206021 0)
(1.4134 -0.00186218 0)
(1.41459 -0.00128124 0)
(1.41721 0.000783758 0)
(1.41855 0.00194103 0)
(1.41793 0.00111904 0)
(1.41695 0.00105484 0)
(1.41718 0.000696766 0)
(1.41724 -0.00257807 0)
(1.41991 -0.00652346 0)
(1.42117 -0.00698772 0)
(1.42129 -0.0109576 0)
(1.42173 -0.0136081 0)
(1.42053 -0.0201846 0)
(1.42143 -0.0246731 0)
(1.42178 -0.0282517 0)
(1.42346 -0.0379399 0)
(1.42498 -0.0480413 0)
(1.42592 -0.0583352 0)
(1.4265 -0.0714524 0)
(1.42561 -0.0867975 0)
(1.42406 -0.107079 0)
(1.42334 -0.128921 0)
(1.41959 -0.153137 0)
(1.41012 -0.180294 0)
(1.39795 -0.204872 0)
(0.975619 0.0207306 0)
(1.0007 0.0449775 0)
(1.04063 0.0640017 0)
(1.08836 0.073416 0)
(1.13878 0.0780181 0)
(1.18809 0.0757525 0)
(1.2339 0.0679762 0)
(1.27478 0.0578391 0)
(1.31082 0.0486435 0)
(1.34273 0.0382249 0)
(1.36798 0.030691 0)
(1.38593 0.0224945 0)
(1.39927 0.0167937 0)
(1.41123 0.0133303 0)
(1.41992 0.00763572 0)
(1.42326 0.00656059 0)
(1.42706 0.0045348 0)
(1.43016 0.00313863 0)
(1.43216 0.00370012 0)
(1.43595 0.00309333 0)
(1.43629 0.00309947 0)
(1.4362 -0.000455862 0)
(1.43873 -0.0013089 0)
(1.43576 0.000207519 0)
(1.43306 -0.000110303 0)
(1.43542 -0.000820342 0)
(1.4379 0.000758951 0)
(1.44027 0.00233564 0)
(1.4407 0.00145458 0)
(1.44005 0.00123745 0)
(1.43982 -0.000326202 0)
(1.43936 -0.00025104 0)
(1.43753 -0.00277404 0)
(1.44104 -0.00516692 0)
(1.44326 -0.0098935 0)
(1.44184 -0.0109495 0)
(1.44209 -0.015444 0)
(1.4414 -0.0222779 0)
(1.44322 -0.0269605 0)
(1.44255 -0.0306499 0)
(1.44233 -0.0399185 0)
(1.44423 -0.0489709 0)
(1.44396 -0.0601443 0)
(1.44353 -0.072868 0)
(1.44121 -0.0877229 0)
(1.43766 -0.104744 0)
(1.43498 -0.12438 0)
(1.42907 -0.147621 0)
(1.41926 -0.171478 0)
(1.40687 -0.195281 0)
(0.973952 0.0123624 0)
(0.997924 0.0281333 0)
(1.03843 0.0375847 0)
(1.0884 0.0432314 0)
(1.13982 0.0438983 0)
(1.18943 0.0423047 0)
(1.2359 0.038556 0)
(1.2788 0.0325629 0)
(1.31722 0.0293458 0)
(1.34961 0.0233141 0)
(1.37649 0.0188504 0)
(1.39658 0.0134904 0)
(1.41157 0.00945832 0)
(1.42223 0.00910374 0)
(1.43107 0.00283435 0)
(1.43701 0.00142001 0)
(1.44179 0.0011499 0)
(1.44588 0.00174673 0)
(1.4477 0.00205548 0)
(1.45068 0.0021364 0)
(1.44967 0.00274021 0)
(1.44971 -6.53555e-05 0)
(1.45393 0.000325246 0)
(1.45038 -0.000180694 0)
(1.44803 0.000170492 0)
(1.45066 0.00087275 0)
(1.45352 0.00131568 0)
(1.45517 0.00282991 0)
(1.45529 0.00253055 0)
(1.45455 0.00214344 0)
(1.45379 0.00105358 0)
(1.45382 -0.00231651 0)
(1.45239 -0.00319309 0)
(1.45397 -0.00442817 0)
(1.45662 -0.0109745 0)
(1.45735 -0.0124687 0)
(1.45497 -0.0138943 0)
(1.45416 -0.0209537 0)
(1.4577 -0.0261225 0)
(1.45577 -0.0336789 0)
(1.45483 -0.039905 0)
(1.45584 -0.0470172 0)
(1.45468 -0.0588657 0)
(1.45357 -0.0698536 0)
(1.45019 -0.0855213 0)
(1.44586 -0.102448 0)
(1.44067 -0.11925 0)
(1.43391 -0.139799 0)
(1.42214 -0.160797 0)
(1.40742 -0.184537 0)
(0.974192 0.00446345 0)
(0.997413 0.00823439 0)
(1.03792 0.00997178 0)
(1.08698 0.0130904 0)
(1.1385 0.0108945 0)
(1.19013 0.0104239 0)
(1.23769 0.00893473 0)
(1.28231 0.0103367 0)
(1.32089 0.00997875 0)
(1.35389 0.00731952 0)
(1.38099 0.00408223 0)
(1.40062 0.0012279 0)
(1.41765 -0.00160508 0)
(1.42887 -0.000125604 0)
(1.43696 -0.000562682 0)
(1.44393 -0.000188332 0)
(1.44922 -0.00021978 0)
(1.4527 3.57421e-05 0)
(1.45452 -0.00106115 0)
(1.45834 0.000219004 0)
(1.45679 0.000589288 0)
(1.45685 0.00145319 0)
(1.461 0.000865991 0)
(1.45765 -0.00205135 0)
(1.45594 0.00071264 0)
(1.45863 0.00142344 0)
(1.46173 0.00264741 0)
(1.46353 0.00253723 0)
(1.46303 0.00428435 0)
(1.46202 0.00230446 0)
(1.46049 0.00114477 0)
(1.46011 -0.00121785 0)
(1.45971 -0.00308105 0)
(1.46018 -0.00451563 0)
(1.46247 -0.00957022 0)
(1.46514 -0.0114793 0)
(1.46216 -0.0138371 0)
(1.45993 -0.016886 0)
(1.46216 -0.0227178 0)
(1.46137 -0.0320857 0)
(1.46182 -0.0383695 0)
(1.46092 -0.0448536 0)
(1.45869 -0.0544725 0)
(1.45592 -0.0671122 0)
(1.45037 -0.0811224 0)
(1.4465 -0.097913 0)
(1.44078 -0.11475 0)
(1.43165 -0.133907 0)
(1.41872 -0.154828 0)
(1.40144 -0.176574 0)
(0.972494 -0.00178535 0)
(0.994846 -0.0108981 0)
(1.03776 -0.0150767 0)
(1.08744 -0.0189857 0)
(1.13853 -0.0221809 0)
(1.19026 -0.0217728 0)
(1.23919 -0.0216903 0)
(1.28386 -0.0154738 0)
(1.32077 -0.0115202 0)
(1.35219 -0.0107492 0)
(1.37914 -0.0115 0)
(1.39995 -0.00873963 0)
(1.41772 -0.00943157 0)
(1.43045 -0.008271 0)
(1.43827 -0.00628293 0)
(1.4445 -0.00502235 0)
(1.44938 -0.00178105 0)
(1.45243 -0.00285981 0)
(1.45502 -0.00231672 0)
(1.45904 -0.00057567 0)
(1.4578 -0.00239222 0)
(1.4572 0.00072536 0)
(1.45901 -0.00126709 0)
(1.45787 -0.00346532 0)
(1.45797 0.00166795 0)
(1.4597 0.00315718 0)
(1.46222 0.00383194 0)
(1.46421 0.00321742 0)
(1.46348 0.00369052 0)
(1.46068 0.00171415 0)
(1.46022 0.000608822 0)
(1.45986 -0.00238207 0)
(1.45922 -0.00418789 0)
(1.45908 -0.00378196 0)
(1.46187 -0.00688458 0)
(1.46489 -0.00778068 0)
(1.46261 -0.0133249 0)
(1.46014 -0.0154721 0)
(1.45985 -0.0214475 0)
(1.45851 -0.0281383 0)
(1.45984 -0.0353442 0)
(1.45908 -0.0440095 0)
(1.45477 -0.052393 0)
(1.45083 -0.0649743 0)
(1.44536 -0.0781912 0)
(1.43942 -0.0910839 0)
(1.4329 -0.110528 0)
(1.42256 -0.12754 0)
(1.40827 -0.1476 0)
(1.3908 -0.166394 0)
(0.971779 -0.0119681 0)
(0.995402 -0.0298979 0)
(1.03772 -0.0408598 0)
(1.0851 -0.0512727 0)
(1.13755 -0.0554786 0)
(1.18906 -0.0551983 0)
(1.23885 -0.050984 0)
(1.28448 -0.0438869 0)
(1.31889 -0.0365864 0)
(1.34828 -0.0300851 0)
(1.3758 -0.0240986 0)
(1.39518 -0.0185205 0)
(1.41123 -0.0162971 0)
(1.42377 -0.014383 0)
(1.43155 -0.0113209 0)
(1.43927 -0.0090009 0)
(1.44316 -0.00602838 0)
(1.44501 -0.0057851 0)
(1.44851 -0.00354632 0)
(1.45102 -0.00258354 0)
(1.45039 -0.00341533 0)
(1.45033 -0.000510532 0)
(1.45148 -0.000356906 0)
(1.45257 -0.000152997 0)
(1.45321 0.00248586 0)
(1.45301 0.00299722 0)
(1.45501 0.00442599 0)
(1.45714 0.00219987 0)
(1.45572 -0.000825536 0)
(1.4539 0.000842195 0)
(1.45146 0.000652096 0)
(1.45084 -0.0035481 0)
(1.4531 -0.00348435 0)
(1.45296 -0.00365614 0)
(1.4551 -0.00432205 0)
(1.45664 -0.00714858 0)
(1.45352 -0.0121131 0)
(1.45147 -0.0166106 0)
(1.45114 -0.0221035 0)
(1.45004 -0.0261804 0)
(1.45005 -0.0326872 0)
(1.44873 -0.0446463 0)
(1.4444 -0.0522193 0)
(1.43905 -0.0638306 0)
(1.43348 -0.0764375 0)
(1.42602 -0.0865321 0)
(1.41789 -0.102923 0)
(1.40764 -0.119699 0)
(1.39247 -0.137294 0)
(1.37568 -0.152351 0)
(0.972757 -0.0212967 0)
(0.996647 -0.0491712 0)
(1.03762 -0.0700435 0)
(1.08499 -0.0818277 0)
(1.13675 -0.0860607 0)
(1.18843 -0.085988 0)
(1.23728 -0.0772616 0)
(1.28034 -0.0678379 0)
(1.3138 -0.0576028 0)
(1.34241 -0.0467323 0)
(1.36741 -0.0375126 0)
(1.38447 -0.0299264 0)
(1.39961 -0.0240232 0)
(1.41198 -0.0204025 0)
(1.41958 -0.0143409 0)
(1.42583 -0.0109948 0)
(1.42921 -0.0111268 0)
(1.43176 -0.00803522 0)
(1.43474 -0.00340249 0)
(1.43702 -0.00467433 0)
(1.43699 -0.00231809 0)
(1.43715 2.46929e-05 0)
(1.43759 0.00114673 0)
(1.43824 0.00191593 0)
(1.43854 0.000922554 0)
(1.43963 0.000800562 0)
(1.44041 0.00332598 0)
(1.43991 0.000202809 0)
(1.44145 -0.00313085 0)
(1.44057 -0.00128821 0)
(1.43647 -0.00133107 0)
(1.43673 -0.00218302 0)
(1.43881 -0.00256675 0)
(1.43843 -0.00526573 0)
(1.44013 -0.00679417 0)
(1.44114 -0.00981499 0)
(1.43821 -0.0139575 0)
(1.43569 -0.0177829 0)
(1.43605 -0.0223831 0)
(1.43434 -0.0258806 0)
(1.43141 -0.0328289 0)
(1.43039 -0.0423516 0)
(1.42684 -0.0494225 0)
(1.42028 -0.0617756 0)
(1.41626 -0.0724841 0)
(1.40801 -0.0834536 0)
(1.39682 -0.0962956 0)
(1.38585 -0.111764 0)
(1.37184 -0.126459 0)
(1.35453 -0.139002 0)
(0.974075 -0.0292966 0)
(0.998528 -0.0688956 0)
(1.03894 -0.0971577 0)
(1.0856 -0.110378 0)
(1.13515 -0.116255 0)
(1.18638 -0.112404 0)
(1.23429 -0.102484 0)
(1.27511 -0.0905053 0)
(1.30603 -0.0763263 0)
(1.33112 -0.0621401 0)
(1.35457 -0.048363 0)
(1.36979 -0.0391888 0)
(1.38196 -0.0288084 0)
(1.39391 -0.0238753 0)
(1.40107 -0.0198535 0)
(1.40468 -0.0140802 0)
(1.40845 -0.010261 0)
(1.41293 -0.00742179 0)
(1.41381 -0.00324571 0)
(1.41479 -0.00405328 0)
(1.41668 -0.00327387 0)
(1.41595 -0.00072447 0)
(1.41611 0.000517448 0)
(1.41615 0.00102396 0)
(1.41635 -0.00225383 0)
(1.41844 -0.00095145 0)
(1.41869 3.50044e-05 0)
(1.41706 0.000307445 0)
(1.41908 -0.000533202 0)
(1.41921 -0.00167213 0)
(1.41525 -0.00237667 0)
(1.41483 -0.000878234 0)
(1.41623 -0.00413654 0)
(1.41535 -0.00520373 0)
(1.41779 -0.00789112 0)
(1.41832 -0.0107134 0)
(1.41516 -0.0150688 0)
(1.41283 -0.0178287 0)
(1.41348 -0.0225777 0)
(1.41169 -0.0268448 0)
(1.40827 -0.0309857 0)
(1.40694 -0.0382981 0)
(1.40159 -0.0459698 0)
(1.39452 -0.0553128 0)
(1.3903 -0.0654702 0)
(1.38178 -0.078647 0)
(1.37082 -0.0911221 0)
(1.35915 -0.103164 0)
(1.34517 -0.115885 0)
(1.32735 -0.12743 0)
(0.975362 -0.037583 0)
(1.00085 -0.0887303 0)
(1.04143 -0.125909 0)
(1.0869 -0.142689 0)
(1.13498 -0.144837 0)
(1.18417 -0.137529 0)
(1.22785 -0.12467 0)
(1.26529 -0.110146 0)
(1.29425 -0.0943083 0)
(1.3178 -0.0747778 0)
(1.33639 -0.0586215 0)
(1.34908 -0.0464667 0)
(1.35976 -0.0341221 0)
(1.36704 -0.0281128 0)
(1.37471 -0.0247715 0)
(1.38072 -0.016515 0)
(1.38184 -0.00909665 0)
(1.38493 -0.00637305 0)
(1.38546 -0.00617221 0)
(1.3855 -0.00319027 0)
(1.38801 -0.00401087 0)
(1.38796 -0.00267586 0)
(1.38754 -0.000993086 0)
(1.3855 -0.00121584 0)
(1.38635 -0.00352142 0)
(1.38993 -0.00135093 0)
(1.3904 -0.00143139 0)
(1.38897 0.000425586 0)
(1.38991 -0.000236036 0)
(1.38907 -0.00124031 0)
(1.38685 -0.00253173 0)
(1.38557 -0.00192717 0)
(1.3865 -0.00602949 0)
(1.38673 -0.00627544 0)
(1.38734 -0.0085954 0)
(1.38788 -0.0116313 0)
(1.38494 -0.0142694 0)
(1.38289 -0.0180137 0)
(1.38314 -0.0211754 0)
(1.38231 -0.0271026 0)
(1.37811 -0.0302459 0)
(1.37545 -0.0371442 0)
(1.3709 -0.0441695 0)
(1.36321 -0.0503471 0)
(1.35713 -0.0611417 0)
(1.34811 -0.0728771 0)
(1.33805 -0.083714 0)
(1.3264 -0.0940314 0)
(1.31233 -0.105709 0)
(1.29384 -0.117876 0)
(0.977013 -0.0459916 0)
(1.00265 -0.109109 0)
(1.04236 -0.154826 0)
(1.0898 -0.174006 0)
(1.13597 -0.172566 0)
(1.18056 -0.165192 0)
(1.22018 -0.147193 0)
(1.25236 -0.1275 0)
(1.27871 -0.10798 0)
(1.29875 -0.0869744 0)
(1.31301 -0.070288 0)
(1.32309 -0.0543344 0)
(1.32961 -0.0423766 0)
(1.33494 -0.0336977 0)
(1.34266 -0.0249841 0)
(1.34845 -0.018681 0)
(1.34862 -0.0138745 0)