/*--------------------------------*- C++ -*----------------------------------*\
  =========                 |
  \\      /  F ield         | OpenFOAM: The Open Source CFD Toolbox
   \\    /   O peration     | Website:  https://openfoam.org
    \\  /    A nd           | Version:  6
     \\/     M anipulation  |
\*---------------------------------------------------------------------------*/
FoamFile
{
    version     2.0;
    format      ascii;
    class       volScalarField;
    location    "0";
    object      p;
}
// * * * * * * * * * * * * * * * * * * * * * * * * * * * * * * * * * * * * * //

dimensions      [0 2 -2 0 0 0 0];

internalField   nonuniform List<scalar> 
13046
(
1.31625
1.28999
1.36947
1.33863
1.36813
1.31718
1.3027
1.31907
1.37689
0.676694
0.645088
1.26702
1.28196
1.22322
1.34869
0.826899
1.26479
0.715356
1.37754
1.36406
1.33162
0.803992
1.26799
0.707993
1.3313
1.34051
1.37058
1.25147
1.21893
1.34791
1.32535
1.24864
1.35624
1.3573
1.37962
1.33713
1.35937
1.38628
1.35588
1.31757
1.33939
1.2148
1.36102
1.38797
1.36877
1.35612
1.37127
1.36958
1.29547
1.28479
1.36875
1.27386
1.30275
1.1122
1.28183
1.07459
1.30801
0.915668
1.11344
1.2781
1.13869
1.17285
1.3244
1.28473
0.885631
0.919162
1.14779
0.926469
1.27272
1.17809
0.954158
1.27741
0.867669
1.08178
1.27492
1.37564
1.3781
1.30319
1.27552
1.01405
0.853166
1.32032
1.33131
1.36628
1.27883
0.833734
0.865038
0.869401
1.28362
0.937072
1.26482
0.764608
0.932216
1.13281
1.09225
1.08974
1.06287
1.31251
1.3122
1.28424
0.87913
0.968521
1.35251
1.37301
1.36054
1.34116
1.14277
1.29988
1.31093
1.31736
1.15941
0.455396
1.26043
0.436323
1.29544
1.25392
1.34963
1.08852
1.1266
1.0077
1.29957
1.06363
1.30576
0.630467
0.586549
1.26427
1.20937
1.12885
1.33526
1.3088
1.33901
1.21335
1.26627
0.810523
0.988154
1.01808
1.01093
1.29933
1.30631
1.22797
1.3464
1.21997
1.29377
1.34642
1.30279
1.29537
1.1546
1.3393
1.17755
1.32071
1.12028
1.13182
1.31621
1.37362
1.25353
1.32842
1.23059
1.05582
1.20677
1.04266
1.30561
1.30428
1.21605
1.26068
1.32912
0.667318
1.26643
0.67039
0.526837
1.26211
0.486084
0.996143
0.969975
1.29642
1.29327
1.12451
1.32133
1.22689
1.33126
1.27944
1.26973
0.742855
0.696005
1.30233
1.15783
1.31723
1.36664
1.22699
1.31489
1.24508
1.30104
1.34749
1.20743
1.3495
1.22813
1.16937
1.33505
0.836463
1.27931
0.865184
1.27813
0.873002
1.00143
0.775982
0.90923
1.26706
1.25073
1.03401
1.27906
1.26073
1.0288
1.26577
0.845255
0.8518
0.746234
1.26542
1.34661
1.38311
1.35459
1.2678
1.22919
1.3458
1.27612
0.852102
1.01448
1.23551
1.22653
1.355
1.26163
0.574251
0.548891
1.28286
1.02867
1.23529
0.835185
0.957921
1.27608
1.12526
1.2388
1.32617
1.19557
1.13224
1.33245
1.09449
0.892672
1.26772
0.998682
1.1766
1.28956
1.26162
0.567805
0.503371
1.31772
1.3213
1.13851
0.499179
1.25894
0.357659
1.37072
1.33466
1.35246
1.1398
1.15615
1.22848
1.25121
1.3369
1.32273
1.26559
0.970926
0.809672
1.22837
1.15356
1.32766
0.982955
1.13438
1.28928
1.0479
1.00903
1.3005
1.37154
1.35792
1.38899
1.08294
1.20721
1.31006
1.22633
1.11854
1.32359
1.24001
1.22454
1.3159
1.30699
1.10781
1.06843
1.17661
1.30631
0.99813
1.29522
0.983434
1.33972
1.32207
1.1857
1.30057
1.02791
1.21458
1.13466
1.022
1.29639
1.30085
1.28007
1.10526
1.09709
1.07707
0.99078
1.29121
0.979241
1.29451
1.272
0.774569
0.739263
1.15378
1.09097
1.31223
0.277575
1.25658
0.331957
1.30012
1.3523
1.32102
1.1726
1.19861
1.33068
1.28556
0.894493
0.915295
1.26599
1.03527
1.30017
1.05936
0.880019
1.27081
1.27242
1.35554
1.14737
1.17254
1.32875
1.26046
1.3557
0.881656
1.26959
0.765927
1.26024
0.999887
1.27613
1.11578
1.14627
1.32025
1.20528
1.27748
1.34637
1.15007
1.28093
1.32422
1.32402
1.29455
1.36965
1.28681
1.03616
1.22735
0.81037
0.881847
1.27735
1.06787
0.884941
1.27881
1.20274
1.27612
1.00112
1.04877
1.08292
0.947428
0.905223
1.27455
1.28214
1.25933
0.310086
0.385472
0.542603
1.2583
0.395566
1.11042
1.20742
1.31104
1.27558
0.808553
0.815262
1.16719
1.1493
1.0146
0.994859
1.29511
1.2898
1.25762
0.781194
0.632148
0.466276
1.25686
0.293738
1.33248
1.37683
1.37595
0.445678
0.373306
1.26085
1.27963
1.12737
1.3143
0.713612
0.773018
1.26869
0.307528
1.26098
0.207531
1.32996
1.34109
1.24146
1.30781
1.36323
1.37186
0.647099
1.26302
0.569901
1.29034
1.3478
1.36672
1.34572
1.37991
1.38031
1.2897
0.986911
1.23266
1.28442
1.369
1.36641
1.3085
1.32411
1.34947
1.22598
1.01395
1.2755
1.26831
1.27015
0.70913
0.706124
0.761963
0.744886
0.752647
0.851066
1.27352
1.28267
1.18906
0.954654
1.30431
1.31316
1.16708
0.973812
1.16524
1.27491
0.467849
1.25611
0.303402
1.26515
0.746287
0.896613
0.560523
1.26269
0.543008
1.26379
0.253644
0.182127
0.182074
1.2637
0.254535
1.13455
1.04067
1.30018
0.66155
1.25484
0.488746
0.980568
1.00499
1.29712
0.758626
1.25578
0.589944
1.28167
1.35569
1.29387
0.82453
1.26029
0.676022
0.991495
1.2765
1.18285
1.12044
0.98294
1.29489
1.26973
0.0285008
0.029762
0.331153
1.25714
0.292413
1.30637
1.36601
1.30009
0.760297
0.62734
1.2639
1.25711
0.575588
0.749482
0.816583
1.27592
0.810587
1.27018
0.830977
0.948206
1.24469
0.989385
1.27717
0.950396
1.11562
1.28906
1.26451
0.898505
0.723846
1.26433
1.24372
1.15829
1.12896
1.32766
1.32743
1.27653
1.16188
1.32613
1.18784
0.990804
1.2958
1.09257
0.93193
1.2837
0.831934
0.740454
1.26989
1.28221
0.924315
1.0472
0.198613
1.26192
0.308125
1.33929
1.33173
1.35812
1.24676
1.36578
1.26454
1.23443
1.23285
1.30168
1.03968
1.30065
1.0837
0.347648
1.25731
0.211973
0.783741
0.671292
1.26659
1.2847
1.28542
1.10335
1.12632
0.928365
1.27571
1.27144
0.851541
0.980361
0.450744
0.410011
1.26059
0.509445
0.437814
1.25987
1.15786
1.02693
1.30326
1.34772
1.31674
1.20969
0.775005
1.27237
0.753392
1.11388
1.00176
1.30268
1.2907
0.919871
0.964916
1.24807
1.30388
1.08479
1.13966
1.25315
1.3189
1.31994
1.32951
1.19149
1.2705
0.736419
0.728045
1.04604
0.984667
1.29609
1.34219
1.35211
1.25719
0.847412
1.25826
0.669799
1.28343
1.22112
1.34674
1.27063
1.3036
1.3616
1.14484
1.01617
1.29744
0.625991
1.25742
0.465777
0.666307
1.25581
0.48872
1.28718
0.897007
0.962334
1.09695
1.25916
1.30604
1.25461
0.395129
0.565623
1.28933
0.95694
0.934513
1.26194
0.214622
0.11788
0.212599
0.11675
1.26175
1.26974
0.760928
0.910398
1.26485
0.645579
0.614829
0.823076
0.865119
1.27097
0.747557
1.27616
0.806572
0.91813
0.978318
1.28894
1.28637
1.14834
0.921288
1.35067
1.36608
1.29042
0.948985
1.02734
1.29128
1.29152
0.966596
1.05359
0.934779
1.26428
0.744115
1.21905
1.00548
1.29482
1.25531
1.10323
1.30353
1.05582
1.11684
1.31429
1.03238
1.10409
1.30733
1.35114
1.34629
1.28655
1.23587
1.09986
1.32718
1.25872
0.847549
0.673493
0.411141
1.25807
0.529986
0.360943
1.25916
0.525211
1.3018
1.33468
1.18571
0.406458
1.26067
0.338096
1.00653
1.28988
0.927263
1.25743
0.419917
0.286299
1.3455
1.37301
1.33402
1.20857
1.19369
1.33569
1.2652
1.11129
1.30953
1.25665
0.696789
0.545553
1.1105
1.00565
1.29635
1.25971
0.809934
0.653659
1.16794
1.16955
1.33382
1.36139
1.37516
1.30325
0.695939
0.580353
1.26054
1.28884
0.919765
0.929687
0.607961
0.561784
1.26142
1.26026
0.510555
0.464726
1.17621
1.24581
1.33738
1.16106
1.07217
1.30437
1.28643
1.31382
1.37434
0.595134
0.468845
0.609161
1.25818
0.458548
1.25479
1.09617
1.08565
1.31642
0.573324
0.519166
0.661002
0.614914
1.26289
1.26155
1.08069
1.19108
1.32142
1.22246
1.23182
1.34181
0.718088
1.25788
0.564802
1.1983
1.21929
1.3347
1.2733
1.28048
1.35718
0.630139
1.25842
0.511399
1.17071
1.11904
1.32095
1.20258
0.9606
1.277
1.2518
1.04596
1.29532
1.02138
1.26141
0.820251
1.26571
0.0876853
0.088558
1.17298
1.20035
1.33462
0.757341
1.26453
0.650054
1.27011
0.993334
1.26266
0.338586
1.25785
0.212387
1.35173
1.33313
1.31817
1.23603
1.3166
1.20881
1.29202
1.31619
1.36698
1.33252
1.35314
1.33277
1.24197
1.3523
1.2341
1.20021
1.25168
1.35342
1.223
1.25739
1.3494
1.25464
0.564543
0.387642
1.29338
1.18804
1.32777
0.625465
0.682149
1.26552
1.04033
1.00065
1.08196
1.03896
1.30639
1.29811
1.29093
1.22943
1.33979
1.19386
1.05093
1.29869
1.10598
1.13303
1.32241
1.36312
1.337
1.37039
0.988098
1.05179
1.29668
1.3398
1.35516
1.29336
1.10831
1.18265
1.32213
1.19628
1.08647
1.30202
1.35917
1.35909
1.31638
1.37789
1.3142
1.37071
1.35112
1.33849
1.36129
1.28874
1.36703
1.25224
1.27069
1.26079
1.18576
1.18319
1.33851
1.33162
1.27628
0.85373
0.962
1.27878
0.998012
1.22103
1.27681
1.27929
0.817327
0.839396
0.916211
0.911256
1.28986
1.28317
1.06337
1.36914
1.37942
1.35734
0.975213
1.01992
1.29521
1.3254
1.34691
1.22318
1.18062
1.07528
1.30276
1.03191
1.04059
0.898183
1.28353
0.926847
1.28757
1.0563
1.06325
1.30669
0.38996
0.274138
1.25867
1.26481
1.01857
1.26884
1.25313
1.26102
1.27495
1.01202
1.29126
1.03935
0.954043
1.0776
1.2871
1.2093
1.07187
1.30375
1.28983
1.27906
1.06386
1.26385
1.27639
1.29279
1.31686
1.10404
1.09981
1.25477
1.29775
1.06014
1.06695
1.08884
1.31232
1.35033
1.35828
1.3
0.690627
1.26347
0.602114
1.28063
1.28068
1.03852
1.19339
1.16217
1.08692
1.06577
1.30679
1.31065
1.26584
0.651081
0.735057
0.723426
1.26126
0.593154
0.681119
1.26124
0.566266
1.00382
1.28508
0.904773
1.22681
1.10696
1.31213
0.779152
0.949097
1.1894
0.787803
1.12071
0.474298
1.0435
0.869686
0.75605
1.10823
1.10397
0.723173
0.792026
1.10424
0.930018
0.806452
0.813192
0.905445
0.946928
1.05884
0.97205
0.893972
1.12699
1.25254
1.20652
0.957886
1.1387
0.736196
0.999467
0.773257
0.7529
1.03786
0.961088
0.954323
0.787805
0.980721
1.18186
1.12294
0.839556
0.974179
0.868683
1.2641
0.815301
1.10284
1.13884
0.885549
0.896899
0.837823
0.730953
0.815628
1.20799
0.976881
0.811079
0.876713
0.75032
1.20122
1.06057
0.969147
0.830972
1.0909
0.810709
0.824866
1.20773
0.895196
0.968296
1.06446
0.989707
1.24371
1.12519
1.09324
0.699912
0.749244
0.870018
1.08244
0.732737
0.953155
0.941992
0.778846
1.07469
1.16019
0.905057
0.955245
0.737343
0.797243
0.875905
1.08846
0.878087
0.809419
0.924072
1.2103
0.813555
1.09261
1.20472
0.958879
0.799301
0.36782
0.792978
0.843353
0.798216
0.695386
1.02709
1.13208
1.15347
1.25271
0.799597
0.780733
0.731026
0.830097
0.796406
1.17877
1.13875
1.05867
0.779299
0.748194
0.989778
1.11489
0.906828
0.810009
0.683866
0.897112
0.947219
1.21864
1.24115
1.08681
0.970963
0.877504
0.72774
1.22582
0.710735
1.07863
0.689445
1.20087
0.739706
0.666577
0.7562
1.15765
0.9403
0.646184
0.808527
1.04683
0.797617
1.09391
1.00521
0.831762
1.13821
0.875588
0.786896
1.1702
0.813866
0.913791
0.725581
0.979967
0.836841
1.16296
1.0915
0.895668
1.08186
1.09556
1.18657
0.948111
0.86456
0.825558
1.08875
0.710621
0.967336
0.73951
1.249
0.900318
1.15574
1.22428
0.97934
1.2308
1.16953
1.18623
0.766107
0.68201
0.725196
1.18945
0.770894
0.747525
0.69579
0.750857
0.910405
0.8752
0.98398
1.22505
1.08866
0.869634
1.08623
0.858321
1.25734
0.625719
1.12761
0.83767
0.670466
1.21132
1.2296
0.828196
0.844139
1.24851
1.00443
0.822496
0.79821
1.08316
1.17894
1.04768
0.803023
0.831957
1.10459
0.965323
0.798424
0.984889
0.692699
0.765647
0.879478
1.11676
0.691623
0.854569
1.13285
0.870743
0.685468
0.896438
0.817196
0.852509
1.02756
1.04135
0.791103
0.74389
0.743757
1.06275
1.03426
0.896525
1.04696
0.88248
0.772372
1.01088
0.870163
0.663472
1.04273
1.1686
0.989234
1.20668
1.17997
1.25968
0.804033
0.638513
0.923653
0.894808
0.845531
0.701517
1.01351
1.20677
1.07604
1.00617
0.790944
0.902451
1.06649
0.968905
1.03459
0.81517
0.92525
0.866677
0.673803
0.795608
0.835003
0.811204
0.781508
1.04563
0.968754
0.898342
1.05554
0.809048
0.913063
0.816781
0.897284
0.862624
0.853574
0.99993
0.69973
0.628636
0.929834
0.71706
0.685386
1.00534
0.638283
0.688191
1.16299
1.05301
0.804543
1.05395
0.759944
1.03756
0.985163
0.694723
0.809363
1.11777
0.929817
1.08441
0.471736
0.777835
1.16601
0.859559
0.761815
0.604724
0.702301
0.674171
0.708994
0.872006
1.05419
0.773637
0.674326
0.797433
0.850977
1.25751
0.76941
1.0792
1.0046
0.655734
0.880372
0.793517
0.743706
1.0308
0.884306
1.20492
1.03853
0.78603
0.87674
0.97992
1.25105
1.06343
1.18309
1.09303
0.871548
0.985583
0.910677
0.788325
0.706135
0.846039
0.823114
1.04143
0.823591
0.726191
0.808627
0.853429
0.801923
0.810473
1.14579
0.84638
0.840323
1.18964
1.13909
0.79595
0.940739
1.17959
0.812514
0.625838
0.87902
0.776821
0.741214
1.17162
0.802422
0.895939
1.17562
0.688408
0.979165
0.814313
0.981792
0.882249
0.834086
0.394308
0.870058
0.728033
0.843849
0.887849
0.886717
1.07395
1.20587
0.797843
0.94767
0.850137
0.739604
0.657619
1.13476
1.00593
0.850079
0.727842
0.995344
0.721727
0.794066
0.793275
0.789896
1.09243
1.20177
0.86403
1.06009
1.24677
1.1418
1.12846
1.1911
0.822365
0.847416
0.744018
1.24947
1.11769
1.15783
0.831318
0.873873
0.679997
1.07544
0.859482
0.759385
1.15692
1.0247
0.72282
0.864579
0.809318
0.807916
0.814076
0.877636
0.898908
0.761494
0.859578
0.709126
0.881911
0.769771
1.01818
0.902623
0.692262
1.18214
1.19682
1.08947
0.856727
0.987147
0.628985
1.10687
0.971133
0.718646
1.17751
0.555222
1.2078
0.719233
0.910785
0.921291
1.08704
1.09343
0.799776
1.22548
0.80527
1.14758
0.911286
1.01054
0.85084
0.776495
0.839154
1.1535
0.911336
1.24279
1.06645
0.702868
0.776141
1.0397
0.584469
0.860701
0.912914
0.764709
1.21313
0.719712
0.69512
1.11238
0.839571
1.20463
1.23681
0.884019
1.24567
1.21747
1.15319
1.1649
1.00529
0.731573
0.810737
0.889652
1.13515
0.885085
0.554288
1.22255
0.775464
0.908211
0.80175
1.18859
1.25492
0.791037
1.14277
1.0009
1.20589
0.868878
1.09891
0.891754
1.22305
1.23921
1.06176
0.808363
1.10404
0.838894
0.929486
0.955131
0.903098
1.0064
0.800757
0.56695
0.74589
0.917701
1.02702
0.967795
1.16981
0.793598
0.854357
1.02324
0.748893
1.19557
0.780004
0.891583
1.17646
1.1588
0.982279
1.23105
0.788847
0.873286
1.10198
0.927388
0.893673
0.908821
0.84122
1.0424
1.07252
0.841739
0.805599
0.98436
0.703133
0.759136
1.20374
1.24443
1.24399
0.869451
1.25451
1.25265
1.21692
0.655436
1.01656
1.00803
1.23298
0.869711
0.790573
0.730877
0.805807
0.522822
1.2195
0.926349
0.936871
1.10404
1.06226
0.862661
0.889341
1.25227
1.22296
1.1818
1.05296
0.850895
1.05794
1.04076
0.867489
0.916154
0.752788
0.804111
0.950421
0.938029
0.845653
1.2004
1.20606
0.661098
1.15685
0.819122
0.802452
0.867256
1.19526
0.898469
1.05678
0.920126
1.18539
0.877514
0.922099
1.23775
0.679265
0.699913
0.792524
0.769116
0.631749
0.322401
0.783814
0.639984
0.947157
0.659091
0.764021
0.937112
0.831099
0.784616
0.854229
0.740056
0.369701
1.21758
1.13155
0.885206
0.726326
1.14152
0.858269
0.789037
1.23835
0.793083
1.23392
0.896123
1.16473
0.864911
0.660041
0.756241
0.961006
0.967203
0.948376
0.665327
0.884716
0.768802
0.771861
0.805615
0.693669
0.745494
1.21805
0.771655
1.07428
1.11029
0.871922
1.10132
1.11471
0.729527
0.333268
0.911442
0.708006
0.638649
1.0807
1.08963
0.886851
1.03333
0.862898
1.23832
1.21509
0.911865
0.851416
1.22848
1.1732
1.0246
1.02044
0.873409
1.2427
0.936586
0.658757
1.18973
1.13635
1.20818
0.97433
0.813055
0.864109
1.09254
1.03443
0.228456
1.26396
0.908225
0.792695
0.965532
1.15555
1.24053
1.24564
1.02995
0.916366
1.11725
1.17404
1.17982
1.0743
1.13701
0.677749
0.807667
0.987308
0.743906
0.671198
0.692094
0.905159
1.11776
0.710171
0.956956
0.796398
1.12385
1.24557
0.923397
0.733993
0.679256
1.06967
0.846568
0.79862
0.685164
1.19053
0.996212
1.01277
0.713383
1.01275
0.801149
0.81241
1.07787
1.11324
1.19472
1.2559
0.781759
1.172
0.662236
1.19303
1.20672
1.20769
1.1187
0.763873
0.763634
0.891985
0.656771
0.927952
0.689624
0.980949
0.720326
1.14974
0.872888
0.671009
1.15751
1.07625
0.917735
0.928666
1.06909
1.19076
0.997546
0.946179
0.667074
1.13927
0.929676
1.22123
0.637797
0.94107
1.19126
1.0891
1.22979
1.09396
0.886535
0.613853
0.669374
0.928832
0.705165
1.22041
0.659351
0.804764
0.914294
0.803535
1.10516
0.643231
1.18225
1.09506
1.01489
0.571232
1.01852
0.754879
0.838576
0.927943
0.915249
0.872623
0.853384
1.12072
0.767264
1.25243
0.863571
0.883977
1.05629
1.06643
1.21766
0.87391
0.904455
0.781377
0.913221
0.8484
1.21505
0.8039
0.953114
0.871427
1.13722
0.82319
0.970977
0.7416
1.24589
0.653808
0.760584
0.793343
1.1407
0.676377
0.692279
0.75588
0.726903
1.20298
0.941752
1.06416
1.16449
1.04362
0.910069
1.24794
0.912104
1.07657
1.04286
0.954257
0.691296
0.974655
0.928919
0.819344
0.969027
0.724739
0.703118
0.97646
0.823593
0.774808
1.13026
0.907361
1.03392
0.922276
1.21116
0.909709
0.874046
1.04142
0.722939
0.793097
0.872051
0.961808
0.995369
1.03523
1.20023
1.06074
1.1332
0.979478
1.17233
1.22046
1.21968
0.938945
0.935013
0.999926
0.732807
1.23163
1.16967
1.14288
0.950155
0.762783
0.692982
1.00222
1.08847
0.786899
1.13972
1.16079
1.03202
0.809324
0.9378
0.830914
0.770248
0.952752
0.805777
1.01293
0.685901
1.01573
0.896253
0.913392
0.645141
0.990908
0.964043
1.06087
0.868423
1.00227
1.19887
1.21136
1.01655
0.901471
1.13539
0.975261
0.798304
0.799048
0.903246
0.718668
1.19646
0.932094
0.989243
1.095
1.07848
1.00929
0.716578
1.24596
1.02418
0.812684
0.94208
0.960536
1.13456
1.19072
1.02659
1.01731
0.677687
0.779263
0.915205
1.02728
0.95633
1.01755
0.833588
1.20884
1.01582
1.09938
1.17573
0.990962
0.795474
0.951287
1.2305
0.841288
0.67055
0.947527
1.23866
0.852855
0.904341
1.12303
1.08643
1.14869
0.945068
0.682956
1.02586
0.735601
0.86091
1.15346
0.935219
0.73948
0.784438
0.849546
1.03991
0.854686
0.818664
1.17513
0.817979
1.25005
1.14422
0.723505
0.625657
0.931019
1.0931
1.17434
0.942705
0.915423
0.758263
0.893565
0.907385
1.25604
1.18849
1.09592
0.845047
0.692489
1.19413
1.24589
1.20507
1.13444
1.17939
0.948088
0.744212
0.651251
0.671973
1.21518
0.962944
0.720399
0.86778
1.24527
0.872795
0.809262
0.711351
0.946047
0.793065
1.26225
1.02884
1.08226
1.18589
1.16064
0.898678
1.05111
0.952212
1.05295
0.830437
1.03024
0.831797
1.21278
0.673166
0.854845
0.705367
0.88784
1.19686
0.881724
1.1504
1.17178
1.18748
0.759086
0.949892
0.914634
0.776201
1.20596
0.974056
0.960098
1.02288
0.500988
0.872569
1.20706
1.05727
1.21072
0.661516
0.763191
0.880144
1.22003
0.755326
0.90909
0.779996
0.707314
0.844081
1.21879
0.868853
0.921656
0.714815
1.25596
1.23339
0.508192
1.20508
0.870312
0.761044
0.765512
0.955175
0.713243
1.01871
0.855788
0.85822
0.893428
1.17677
0.943733
1.14918
0.889427
0.750246
0.889062
0.659991
0.693968
0.928039
0.816013
0.974707
0.775497
0.920917
1.16267
1.01646
0.858606
0.649698
1.17563
0.948079
0.917065
1.25894
0.983116
0.85216
0.788109
0.705563
1.22788
0.834698
0.927727
1.03952
0.722213
1.18272
0.678185
1.16998
0.942668
1.1127
0.784589
1.1092
0.919242
0.729806
0.79742
0.939748
1.19639
0.620964
0.801173
0.865731
1.2213
1.25275
0.748289
0.841649
1.01234
1.23507
0.904086
1.20216
1.17153
1.14244
1.10972
1.00346
1.03537
1.01338
1.20944
0.909997
0.964036
0.750875
0.809089
0.901372
0.769927
1.2277
0.69003
1.19268
0.902124
1.21921
0.840682
1.23743
1.10973
1.16191
1.22058
1.19741
1.25597
0.898294
1.18111
0.931636
0.878151
0.804979
0.776593
1.21045
0.693222
1.02956
1.0418
0.912112
1.01899
0.826594
1.19964
0.972677
1.11265
0.649616
0.796576
0.885953
1.26486
0.758542
1.06388
0.819438
0.887089
0.737657
0.902304
0.87348
1.14086
1.21433
0.70791
1.02102
0.880743
0.848308
1.15829
0.768357
0.804851
1.22559
0.672572
0.966616
1.09106
1.19085
1.23982
0.818721
0.814236
0.725065
0.860626
0.779806
0.878358
1.09127
0.863451
0.740969
0.919032
0.94998
0.851465
0.785084
0.86394
0.955393
0.72978
1.12821
1.11246
0.819229
1.1169
0.659555
0.711892
0.750566
0.677504
1.2282
0.877196
0.869947
0.830267
1.15522
1.20725
0.992542
1.10475
0.793636
0.81243
0.946842
0.872864
0.798651
1.20886
0.991906
1.03077
1.22943
1.13326
0.90848
1.22224
0.701642
0.998047
0.991359
1.03957
0.835781
1.2118
0.862177
1.03205
0.939961
0.846262
0.772607
0.822341
1.11051
1.16148
1.18333
0.958422
0.986651
1.21438
1.11628
0.929094
0.965344
0.753988
0.8963
1.14594
0.706084
1.17512
0.869709
1.18885
1.25529
1.21247
0.857589
1.16176
1.17252
0.607556
1.21237
0.775628
1.21736
1.14043
0.88259
0.774587
0.984031
0.901351
0.818373
0.788308
1.12119
0.823217
1.2206
0.760548
0.827994
0.772549
0.755624
0.870431
1.15628
1.23769
0.754616
1.09834
0.965463
1.03284
0.908944
1.0062
1.20157
1.14666
0.873155
1.193
1.15696
1.23581
0.756813
0.842553
0.795015
1.10993
1.22633
1.16543
0.927699
1.23655
0.939439
0.70819
0.772411
0.620435
0.9101
0.738351
1.23487
1.24999
0.985415
1.25776
1.14934
0.987133
1.23147
0.750323
1.21036
0.894077
1.20837
0.874059
0.76493
1.10388
0.993864
1.21726
1.20174
1.20621
0.7787
0.774664
0.684316
1.16499
1.14385
0.745263
0.938245
1.14637
0.663558
0.841002
0.7807
0.881985
1.02521
0.876408
0.991388
1.07704
0.971049
0.98862
1.11591
0.872301
0.88121
1.02734
0.976206
0.878887
1.18215
1.21892
0.745929
1.14054
0.652785
0.830985
1.19094
1.12802
0.861335
1.20968
0.745966
1.1109
0.890806
0.877104
1.18969
0.878782
1.12079
1.09687
1.07064
1.25163
1.07966
0.726119
1.04831
0.894774
1.12634
1.25356
1.06158
0.933924
0.79708
0.878237
1.1914
0.758176
1.14685
0.783291
0.994004
1.13278
1.11336
0.964285
1.17918
1.23445
0.874767
0.873217
0.986623
0.776804
0.741213
0.996502
1.09843
0.803662
0.722692
0.758817
0.716354
1.10656
0.931436
1.13187
0.822008
1.20583
0.970514
1.16805
1.23907
0.817704
1.19845
0.859666
0.992364
0.940813
1.16861
0.8008
0.90332
0.950276
0.768572
0.88015
0.764787
0.734942
0.653541
1.23008
1.24353
0.800979
0.815427
1.12088
0.698279
0.761248
0.875088
1.09118
1.10119
0.685846
0.650264
1.2018
0.809362
1.02551
0.807441
0.7168
0.77354
0.960226
1.17162
1.01936
0.707873
1.2073
1.17016
0.798366
1.02457
0.865758
1.23842
0.88683
0.906873
0.732904
1.07155
1.2154
1.04072
0.951722
0.809812
0.922944
1.02296
1.23117
1.26448
0.799174
1.23748
0.819963
1.00663
1.00696
0.927955
0.857056
1.17097
0.838073
0.993896
0.780109
0.818506
0.856999
0.768351
1.06871
1.20882
0.796711
0.835331
0.996444
0.863646
0.761014
0.65331
0.853852
1.16681
0.585372
0.851318
1.08486
0.99806
0.927521
1.06296
1.15091
0.72501
0.726796
1.16207
0.91692
0.733745
0.93778
1.16549
1.06443
1.00992
0.797883
0.824809
0.793286
1.23269
1.16498
1.23928
0.920479
1.08543
0.751265
0.959744
1.17418
0.706216
0.72065
1.11309
1.169
0.700751
0.833737
0.785964
0.7131
0.786512
1.26077
0.899646
0.826566
0.949418
0.796913
1.10351
0.970202
0.744558
0.828931
1.12804
0.922474
1.23334
0.736879
0.842866
1.03906
1.02641
0.930677
1.03001
0.767589
1.23886
1.21006
1.04409
1.17532
0.806646
1.17525
1.06328
1.02412
1.22349
0.698245
0.852917
1.24984
1.06721
0.690482
0.852981
1.13989
1.24564
0.958073
1.1222
0.792821
0.729927
0.781498
0.679735
1.1736
0.822213
0.975129
1.22146
0.813418
0.729102
0.806913
0.978076
0.815846
0.859466
0.804193
0.761374
0.919148
1.14452
1.21959
1.07925
0.839411
0.853329
0.676618
0.849668
1.04915
1.02603
1.04998
1.09327
0.854846
0.94623
1.14813
1.17273
1.2431
1.19172
1.22711
0.930875
0.745744
0.787151
0.753937
1.23273
0.983248
0.82243
1.22102
0.75446
1.1484
1.10183
0.838294
0.801188
0.852772
0.831761
1.16957
0.902097
1.0927
0.948098
1.21695
1.01844
1.25214
0.790937
0.950729
0.841825
0.64468
0.866323
1.12244
0.719695
0.47841
1.00902
1.21034
1.12846
0.829732
0.733851
0.785992
0.757685
0.805091
0.760084
0.926173
0.766219
1.11499
0.797345
0.817545
1.19783
0.926744
1.02826
1.16019
0.916464
0.974468
0.773124
1.11256
0.897048
0.83478
0.910351
0.779688
0.730565
0.815121
0.760662
1.12472
1.24109
1.18013
1.01148
1.09823
0.708428
1.23887
1.00452
1.09169
0.793521
1.09993
0.857049
0.875578
1.14774
1.21201
1.12233
1.01659
0.88729
1.24723
0.864035
1.13618
1.22985
1.07955
0.900894
0.70138
1.14035
0.97827
0.768012
1.0651
0.978287
1.21346
0.815589
1.22198
1.24364
0.918849
0.792927
1.22733
0.736899
0.774226
0.873326
0.766442
0.856843
0.780278
0.739247
0.94601
0.81516
0.783009
0.856993
1.02425
0.829509
0.81315
1.05682
0.974958
0.722435
1.20676
1.24917
1.22734
0.808371
0.711386
1.25812
0.726203
0.930666
0.769319
0.877323
0.787762
1.11179
0.866663
0.865484
0.719572
0.703601
0.771054
0.870013
0.69826
0.959142
1.00106
0.946075
1.21765
0.988913
1.05781
0.886185
1.16403
0.873947
0.877312
1.27433
0.863729
0.96586
0.73867
1.08129
1.24369
0.903536
1.02685
0.972699
0.849633
0.795487
0.809462
0.761021
1.11822
0.780067
0.912582
0.864983
0.920478
0.789535
0.811621
0.929852
0.894277
0.848323
1.25205
0.936905
0.894412
1.01198
1.21007
0.87906
0.70703
1.12614
0.738653
0.897442
0.792493
0.916834
0.856091
0.833933
0.91101
1.23721
1.17716
0.713484
0.847278
0.70549
0.776487
0.687568
0.766354
0.855993
0.785818
0.863393
1.05138
1.25443
0.869159
1.10187
0.961671
1.23091
0.864125
1.24244
1.04405
0.753484
1.04088
1.11185
0.874466
1.15823
0.792331
1.18603
0.834809
0.507357
0.943045
1.25391
1.2399
1.11904
1.05267
1.0832
0.718011
0.844539
1.07472
1.25255
0.538306
0.934294
0.790609
0.871728
0.921855
0.784394
0.748476
0.827347
0.770508
0.824723
0.887175
0.918714
1.24967
1.16281
0.687116
1.14007
0.778612
0.802846
1.14675
0.833413
0.896152
1.06598
0.582943
0.802676
0.955355
1.17683
0.757805
0.818045
0.892077
1.04833
0.752693
1.21452
0.706549
0.872507
0.894578
0.826315
1.0497
1.05211
1.21193
0.791897
1.11495
1.00298
1.04071
0.801751
1.04472
0.788713
0.740571
0.666702
0.989842
0.940551
0.895121
1.18583
0.943399
0.958151
1.04339
0.797489
0.774684
0.873212
1.01021
0.812109
1.25181
0.741928
0.707054
0.862636
0.868086
0.815526
0.772297
1.09521
0.874223
0.952043
0.759276
0.794092
0.94722
0.69762
1.25105
1.24017
0.762925
0.789274
1.16992
0.941959
0.796402
0.731277
0.780567
0.768175
0.998661
1.20461
0.797584
0.717151
1.05031
0.935793
0.707647
0.760455
0.93072
1.09553
1.26237
0.749389
0.700757
1.02138
1.17322
0.904022
0.997843
0.887454
0.79584
0.878033
1.04799
0.935791
0.802576
1.14276
0.890651
0.667253
0.991369
0.822515
1.14873
1.25135
0.816515
0.866818
0.869377
0.867105
0.746812
0.879245
0.767947
1.22048
1.14785
1.09361
0.85671
0.724377
1.13157
1.23556
0.813417
0.985248
0.859899
0.653172
0.967419
0.874165
0.652081
0.755155
1.02035
0.751682
0.710295
0.765582
1.1393
0.737751
1.13489
0.895604
0.811179
0.888849
0.782857
1.14972
0.678012
0.878033
0.909966
0.739923
0.998681
1.07076
1.01682
0.941865
1.12488
0.761774
0.761881
1.19931
0.795933
1.19245
1.0225
0.903419
0.978873
1.18071
0.936116
0.701644
1.21574
0.787986
0.913677
1.17755
0.785747
1.22504
0.804611
0.893358
0.603913
0.894409
0.762927
0.952063
0.776661
0.669929
0.764868
0.752518
0.659304
1.2053
0.753005
0.887412
1.00733
0.945519
1.23824
1.23908
0.852396
0.904372
1.15468
0.83927
1.20627
0.672686
0.887792
0.986137
0.817889
1.16052
0.860267
0.870094
0.840926
0.817009
0.771982
0.671812
1.18563
0.387219
1.21921
1.09406
0.777091
0.709216
0.776738
1.26693
1.08178
1.0589
0.931639
1.00127
0.91335
1.18268
1.12998
0.784908
1.03249
1.22511
0.92515
0.980811
1.0306
0.693218
0.75673
1.12932
0.884601
0.91567
1.22528
0.748755
0.677131
0.829496
0.910772
0.925658
1.24755
0.806607
0.729842
0.809899
0.910681
0.810321
1.19404
0.898473
0.781672
0.860378
0.813535
0.78907
0.833566
1.03951
0.927767
0.777263
1.18722
0.880624
1.14821
0.778373
0.748361
0.875779
1.18072
1.2299
1.13352
0.95885
0.934324
1.14497
1.23586
0.744098
1.2069
0.76983
1.05918
1.04503
1.19345
0.955292
1.17695
1.20548
0.80854
0.790723
0.888486
0.936198
0.771027
0.718422
0.685051
1.11222
1.16165
0.736124
1.21418
0.953306
1.12937
0.927347
0.773692
1.15621
1.13323
0.863385
0.822419
0.763517
1.24269
1.09684
1.25483
0.733884
0.769997
0.910549
1.16854
1.04926
1.18786
0.968465
1.24176
0.829097
0.898481
0.981245
0.845476
1.02713
0.641824
1.14589
0.936968
0.983838
1.20869
0.723926
0.739398
0.681466
0.988469
1.1879
0.838447
1.05003
0.655474
0.725992
0.920068
0.826293
0.801368
1.18062
0.925365
0.795215
0.903858
1.00482
1.21448
0.992503
0.895413
1.18441
0.943521
1.2281
0.969606
1.0925
0.898033
0.736728
1.25584
0.774213
0.967747
1.01071
1.20197
1.07962
0.935922
0.795157
1.24672
0.907248
0.787476
1.11782
1.24031
1.10254
1.05972
0.723473
0.662193
0.987707
0.781397
0.891151
0.969798
0.77647
1.21326
1.24736
1.21233
0.844784
0.880233
0.798597
0.866027
1.07234
0.753678
1.0717
1.22089
0.747095
0.866798
0.825056
1.14475
1.05927
0.879814
0.783254
1.10302
0.783645
0.630082
0.763127
1.25605
0.672869
1.14117
1.01254
0.787446
1.22915
0.997403
1.26706
0.572714
0.870576
0.98558
1.2102
0.868928
1.20603
0.999295
0.672354
0.939555
0.837727
0.878437
0.663225
1.1287
0.869375
0.787784
0.701098
0.943846
1.18589
0.608277
0.854084
1.18548
0.875869
1.17535
0.666923
0.778538
0.79553
0.910728
0.838221
0.723849
0.781813
0.620748
0.891378
0.894749
1.13092
0.972645
1.1881
0.784673
0.879853
0.7273
0.936491
0.621156
0.885639
1.25375
0.901713
0.847797
1.26091
0.792234
1.00093
1.04764
0.720214
0.844996
0.939253
0.99331
1.21988
1.23941
1.23896
1.00385
0.883807
0.905149
0.775071
1.17186
1.05275
0.817803
0.816388
0.842877
0.931816
1.26908
0.900744
1.26607
0.859385
1.02392
0.778639
0.792865
0.724476
0.831045
1.20037
0.836912
0.739241
0.766472
1.25141
0.852085
0.780848
0.771886
0.788471
1.09763
0.965937
0.96887
0.881441
1.08096
0.711137
0.927709
0.944436
0.847229
1.17963
1.1897
0.785412
1.19731
1.22424
1.18183
0.964835
0.882783
0.837354
0.909768
1.22497
0.93024
1.0063
1.18904
1.24268
1.21437
1.19401
0.797957
1.05986
0.94529
0.793521
0.695096
0.899736
1.17386
1.25461
1.22691
0.823774
0.770672
0.749684
0.674359
1.04906
1.25237
1.03136
1.12118
1.1313
1.12552
1.10007
0.780026
0.858627
0.825742
0.759958
0.810698
0.885576
0.738229
0.833844
0.803458
1.20597
1.02328
0.702879
1.25867
0.814378
0.815597
0.914655
0.766269
1.09358
1.10387
0.810638
1.01508
1.23699
1.24304
1.06765
1.08778
0.914166
0.959854
0.908401
0.716281
0.997759
0.990696
0.823768
1.0639
1.03314
0.738705
0.455666
0.801003
1.22552
0.83669
1.08061
0.880664
1.22959
0.908063
0.773812
1.14613
1.06604
1.05756
0.993981
0.757361
0.858268
0.724342
1.06512
0.778946
1.1669
0.883846
0.817666
1.01941
0.725499
0.872125
1.24868
0.743859
1.08821
0.82879
0.774595
0.856701
0.891215
1.17286
1.19302
0.883623
1.22241
0.698451
1.2037
1.15405
1.11406
0.803027
1.1675
0.756641
1.09797
1.04814
0.62001
0.881039
0.748004
1.22445
1.08741
0.70589
0.765623
0.919544
0.797441
1.09056
0.788812
0.982939
1.2502
0.793185
1.23145
0.992742
1.07705
0.714486
1.16508
0.801989
1.19367
0.436983
0.770198
1.0562
1.13687
0.96835
1.08144
0.776978
0.882194
1.10619
1.06504
0.805736
1.10421
1.07224
1.18989
0.644187
0.890373
0.640232
0.999911
1.1017
0.999722
0.540619
0.836929
1.21112
1.01997
0.849291
1.19917
0.903812
1.0975
0.708021
0.894376
0.786449
1.19216
1.22525
1.07908
0.930732
0.886007
0.751749
1.06242
0.803934
1.17201
0.703976
0.928494
0.729257
0.687882
1.00092
1.20041
0.92894
0.923699
0.803309
0.790479