/*--------------------------------*- C++ -*----------------------------------*\
  =========                 |
  \\      /  F ield         | OpenFOAM: The Open Source CFD Toolbox
   \\    /   O peration     | Website:  https://openfoam.org
    \\  /    A nd           | Version:  6
     \\/     M anipulation  |
\*---------------------------------------------------------------------------*/
FoamFile
{
    version     2.0;
    format      ascii;
    class       volScalarField;
    location    "./ITHACAoutput/Offline/1";
    object      P_rec;
}
// * * * * * * * * * * * * * * * * * * * * * * * * * * * * * * * * * * * * * //

dimensions      [0 2 -2 0 0 0 0];

internalField   nonuniform List<scalar> 
40000
(
-0.00285868
-0.00286013
-0.00286274
-0.0028658
-0.00286873
-0.00287111
-0.00287267
-0.0028733
-0.0028729
-0.00287138
-0.00286877
-0.00286509
-0.00286031
-0.00285446
-0.00284756
-0.00283963
-0.00283071
-0.00282078
-0.00280991
-0.00279805
-0.00278525
-0.00277152
-0.00275688
-0.00274132
-0.00272488
-0.00270755
-0.00268934
-0.00267026
-0.00265033
-0.00262956
-0.00260793
-0.00258548
-0.00256219
-0.0025381
-0.00251318
-0.00248746
-0.00246095
-0.00243365
-0.00240556
-0.00237671
-0.00234707
-0.00231669
-0.00228555
-0.00225367
-0.00222105
-0.0021877
-0.00215365
-0.00211887
-0.00208341
-0.00204728
-0.00201047
-0.00197302
-0.0019349
-0.00189616
-0.00185683
-0.00181689
-0.00177637
-0.0017353
-0.00169368
-0.00165156
-0.00160894
-0.00156583
-0.00152229
-0.00147833
-0.00143396
-0.00138923
-0.00134415
-0.00129875
-0.00125306
-0.00120712
-0.00116096
-0.0011146
-0.00106808
-0.00102142
-0.000974668
-0.000927829
-0.000880962
-0.000834092
-0.000787238
-0.000740447
-0.000693736
-0.000647147
-0.000600692
-0.000554424
-0.000508342
-0.000462484
-0.00041687
-0.000371529
-0.000326476
-0.000281728
-0.0002373
-0.000193211
-0.000149467
-0.000106067
-6.30641e-05
-2.0396e-05
2.18914e-05
6.3806e-05
0.000105355
0.000146549
0.000187388
0.000227893
0.000268079
0.00030795
0.000347534
0.000386859
0.000425935
0.000464801
0.000503463
0.000541951
0.000580319
0.00061858
0.000656777
0.000694938
0.000733086
0.000771272
0.000809518
0.000847843
0.000886318
0.000924929
0.000963731
0.00100275
0.00104199
0.00108151
0.00112129
0.0011614
0.00120179
0.00124251
0.00128357
0.00132495
0.00136669
0.00140872
0.0014511
0.00149378
0.00153675
0.00158
0.00162351
0.00166723
0.00171116
0.00175524
0.00179943
0.00184371
0.00188803
0.00193233
0.00197658
0.00202072
0.0020647
0.00210846
0.00215198
0.00219517
0.002238
0.00228038
0.00232229
0.00236366
0.00240447
0.00244462
0.0024841
0.00252284
0.00256082
0.00259797
0.00263428
0.00266967
0.00270415
0.00273768
0.0027702
0.0028017
0.00283216
0.00286155
0.00288987
0.00291707
0.00294316
0.00296812
0.00299194
0.0030146
0.00303613
0.00305646
0.00307566
0.00309365
0.0031105
0.00312614
0.00314062
0.0031539
0.003166
0.0031769
0.00318662
0.00319511
0.00320241
0.00320848
0.00321334
0.00321696
0.00321937
0.00322056
0.00322059
0.00321951
0.00321743
0.00321456
0.00321117
0.0032077
0.00320484
0.0032033
-0.00285724
-0.00285868
-0.00286103
-0.00286364
-0.00286609
-0.00286803
-0.00286924
-0.00286958
-0.00286894
-0.0028673
-0.00286459
-0.00286084
-0.00285602
-0.0028502
-0.00284334
-0.00283546
-0.00282658
-0.00281673
-0.00280591
-0.00279414
-0.00278144
-0.00276782
-0.00275327
-0.00273782
-0.00272148
-0.00270427
-0.00268617
-0.00266721
-0.0026474
-0.00262674
-0.00260524
-0.0025829
-0.00255975
-0.00253579
-0.002511
-0.00248542
-0.00245905
-0.00243188
-0.00240392
-0.0023752
-0.00234571
-0.00231547
-0.00228446
-0.00225271
-0.00222024
-0.00218704
-0.00215313
-0.00211852
-0.00208321
-0.00204721
-0.00201055
-0.00197322
-0.00193526
-0.00189668
-0.00185747
-0.00181766
-0.00177729
-0.00173636
-0.00169488
-0.00165289
-0.0016104
-0.00156743
-0.00152401
-0.00148017
-0.00143592
-0.00139129
-0.00134632
-0.00130102
-0.00125543
-0.00120957
-0.00116348
-0.0011172
-0.00107075
-0.00102414
-0.000977435
-0.000930636
-0.000883812
-0.000836958
-0.000790121
-0.00074333
-0.000696606
-0.000650012
-0.000603517
-0.000557228
-0.000511086
-0.000465176
-0.000419499
-0.000374072
-0.000328925
-0.000284086
-0.000239541
-0.000195314
-0.000151445
-0.000107905
-6.47391e-05
-2.19216e-05
2.05414e-05
6.26364e-05
0.000104369
0.000145752
0.000186784
0.000227509
0.000267886
0.000307971
0.00034777
0.000387314
0.000426601
0.000465682
0.000504548
0.000543271
0.000581872
0.00062033
0.000658741
0.0006971
0.00073544
0.000773823
0.000812239
0.000850753
0.000889375
0.000928149
0.000967111
0.00100625
0.00104562
0.00108524
0.00112512
0.00116529
0.00120575
0.00124652
0.00128761
0.00132901
0.00137073
0.00141276
0.00145509
0.00149773
0.00154063
0.0015838
0.00162721
0.00167081
0.00171459
0.00175852
0.00180257
0.00184665
0.00189078
0.00193489
0.00197893
0.00202283
0.00206658
0.00211013
0.00215337
0.0021963
0.00223886
0.00228099
0.00232263
0.00236373
0.00240426
0.00244414
0.00248335
0.00252183
0.00255954
0.00259643
0.00263248
0.00266764
0.00270186
0.00273514
0.00276745
0.00279873
0.00282899
0.00285817
0.00288628
0.00291332
0.00293922
0.00296403
0.0029877
0.00301023
0.00303162
0.00305184
0.00307092
0.00308882
0.00310558
0.00312115
0.00313556
0.00314879
0.00316084
0.00317172
0.00318142
0.00318992
0.00319724
0.00320337
0.00320832
0.00321207
0.00321464
0.00321608
0.00321639
0.00321567
0.00321404
0.00321167
0.00320881
0.00320588
0.00320331
0.00320176
-0.00285462
-0.00285634
-0.00285868
-0.00286097
-0.00286298
-0.0028645
-0.00286533
-0.00286535
-0.00286448
-0.00286264
-0.00285983
-0.002856
-0.00285117
-0.00284533
-0.0028385
-0.00283067
-0.00282186
-0.00281209
-0.00280137
-0.00278969
-0.00277711
-0.00276358
-0.00274917
-0.00273384
-0.00271764
-0.00270057
-0.00268261
-0.00266381
-0.00264413
-0.00262363
-0.00260228
-0.00258012
-0.00255711
-0.00253331
-0.00250869
-0.00248328
-0.00245706
-0.00243006
-0.00240229
-0.00237374
-0.00234443
-0.00231435
-0.00228353
-0.00225197
-0.00221967
-0.00218665
-0.00215291
-0.00211846
-0.00208334
-0.00204753
-0.00201104
-0.0019739
-0.0019361
-0.00189769
-0.00185866
-0.00181904
-0.00177884
-0.00173807
-0.00169675
-0.00165492
-0.00161258
-0.00156974
-0.00152648
-0.00148278
-0.00143865
-0.00139415
-0.00134929
-0.00130411
-0.00125862
-0.00121286
-0.00116687
-0.00112065
-0.00107426
-0.00102771
-0.000981043
-0.000934291
-0.000887485
-0.000840642
-0.000793803
-0.000746995
-0.000700261
-0.000653604
-0.000607082
-0.0005607
-0.000514485
-0.000468479
-0.000422695
-0.000377151
-0.000331885
-0.000286874
-0.000242202
-0.000197814
-0.000153758
-0.000110033
-6.66538e-05
-2.36371e-05
1.9043e-05
6.13647e-05
0.000103321
0.000144952
0.000186247
0.000227208
0.000267857
0.000308204
0.000348271
0.000388073
0.000427629
0.000466973
0.000506121
0.000545093
0.000583942
0.00062266
0.000661325
0.000699923
0.000738516
0.000777114
0.000815748
0.000854472
0.000893288
0.00093226
0.000971377
0.00101069
0.00105019
0.00108993
0.00112992
0.00117018
0.00121073
0.00125154
0.00129266
0.00133409
0.0013758
0.00141782
0.00146012
0.00150269
0.00154551
0.00158859
0.00163187
0.00167534
0.00171898
0.00176273
0.00180658
0.00185048
0.00189439
0.00193825
0.00198205
0.00202569
0.00206918
0.00211243
0.00215539
0.00219801
0.00224027
0.00228207
0.00232341
0.0023642
0.00240439
0.00244395
0.00248284
0.00252099
0.00255839
0.00259499
0.00263072
0.00266556
0.00269951
0.0027325
0.00276452
0.00279554
0.00282553
0.00285447
0.00288234
0.00290916
0.00293486
0.00295946
0.00298294
0.0030053
0.00302652
0.00304659
0.00306552
0.00308331
0.00309995
0.00311544
0.00312976
0.00314292
0.00315493
0.00316577
0.00317544
0.00318397
0.00319133
0.00319754
0.00320257
0.00320647
0.00320925
0.00321093
0.00321159
0.00321127
0.00321011
0.00320824
0.00320589
0.00320329
0.00320073
0.00319891
-0.00285155
-0.00285371
-0.00285639
-0.00285868
-0.00286055
-0.00286185
-0.00286246
-0.00286228
-0.00286123
-0.00285927
-0.00285635
-0.00285246
-0.0028476
-0.00284175
-0.00283494
-0.00282715
-0.00281839
-0.00280868
-0.00279803
-0.00278645
-0.00277395
-0.00276054
-0.00274622
-0.00273102
-0.00271494
-0.00269795
-0.00268014
-0.00266148
-0.00264194
-0.00262156
-0.00260036
-0.00257832
-0.00255547
-0.00253181
-0.00250734
-0.00248208
-0.00245601
-0.00242917
-0.00240156
-0.00237316
-0.00234402
-0.0023141
-0.00228344
-0.00225203
-0.00221989
-0.00218704
-0.00215345
-0.00211918
-0.0020842
-0.00204854
-0.00201221
-0.00197524
-0.00193761
-0.00189933
-0.00186045
-0.00182097
-0.0017809
-0.00174026
-0.00169909
-0.00165738
-0.00161516
-0.00157246
-0.00152929
-0.00148569
-0.00144167
-0.00139724
-0.00135248
-0.00130736
-0.00126195
-0.00121625
-0.00117029
-0.00112412
-0.00107776
-0.00103123
-0.000984557
-0.000937802
-0.000890976
-0.000844113
-0.000797232
-0.000750385
-0.00070359
-0.000656867
-0.000610252
-0.000563778
-0.000517479
-0.000471353
-0.000425439
-0.000379763
-0.000334333
-0.000289191
-0.000244332
-0.000199782
-0.000155538
-0.000111633
-6.80644e-05
-2.4828e-05
1.80612e-05
6.06045e-05
0.000102779
0.00014464
0.000186155
0.00022734
0.000268237
0.000308809
0.000349104
0.000389143
0.000428938
0.000468514
0.000507873
0.000547085
0.000586145
0.000625095
0.000663961
0.000702769
0.000741537
0.000780332
0.000819155
0.000858049
0.000897021
0.00093613
0.000975388
0.00101481
0.00105443
0.00109428
0.00113436
0.00117469
0.00121529
0.00125616
0.00129731
0.00133875
0.00138047
0.00142247
0.00146475
0.00150728
0.00155005
0.00159305
0.00163625
0.00167962
0.00172312
0.00176676
0.00181046
0.00185421
0.00189795
0.00194164
0.00198522
0.00202868
0.00207196
0.00211497
0.00215772
0.00220011
0.00224212
0.00228368
0.00232476
0.00236529
0.00240523
0.00244453
0.00248316
0.00252107
0.0025582
0.00259451
0.00262998
0.00266459
0.00269829
0.00273104
0.00276282
0.00279359
0.00282335
0.00285209
0.00287977
0.00290637
0.00293188
0.0029563
0.0029796
0.0030018
0.00302287
0.00304281
0.00306162
0.00307928
0.00309582
0.0031112
0.00312545
0.00313855
0.00315051
0.00316133
0.003171
0.00317952
0.00318692
0.00319319
0.0031983
0.00320233
0.00320526
0.00320715
0.00320803
0.00320798
0.00320709
0.00320548
0.00320331
0.00320071
0.00319777
0.00319542
-0.00284863
-0.00285127
-0.00285438
-0.00285683
-0.00285871
-0.00285992
-0.00286041
-0.00286012
-0.00285895
-0.00285687
-0.00285389
-0.00284996
-0.00284506
-0.00283922
-0.0028324
-0.00282463
-0.00281593
-0.00280627
-0.00279569
-0.00278418
-0.00277174
-0.00275844
-0.00274422
-0.00272911
-0.00271313
-0.00269628
-0.00267857
-0.00266001
-0.0026406
-0.00262036
-0.00259929
-0.00257739
-0.00255468
-0.00253116
-0.00250683
-0.00248171
-0.00245579
-0.00242909
-0.00240163
-0.00237338
-0.00234437
-0.00231461
-0.00228409
-0.00225284
-0.00222086
-0.00218814
-0.00215471
-0.00212057
-0.00208575
-0.00205022
-0.00201404
-0.00197719
-0.00193968
-0.00190156
-0.0018628
-0.00182344
-0.00178349
-0.00174297
-0.0017019
-0.0016603
-0.00161816
-0.00157556
-0.00153247
-0.00148894
-0.00144498
-0.00140064
-0.00135591
-0.00131084
-0.00126545
-0.00121978
-0.00117384
-0.00112766
-0.00108129
-0.00103474
-0.000988066
-0.000941277
-0.000894398
-0.000847464
-0.000800532
-0.000753592
-0.000706695
-0.000659883
-0.000613159
-0.000566562
-0.000520128
-0.000473861
-0.000427809
-0.000381974
-0.000336384
-0.000291059
-0.000246015
-0.000201284
-0.000156851
-0.000112742
-6.89745e-05
-2.55341e-05
1.75711e-05
6.03013e-05
0.000102716
0.00014479
0.000186545
0.00022795
0.000269044
0.00030985
0.000350368
0.000390607
0.000430616
0.000470394
0.000509972
0.000549378
0.000588625
0.000627766
0.000666808
0.000705787
0.000744738
0.000783692
0.000822651
0.000861695
0.000900814
0.000940028
0.000979409
0.00101894
0.00105866
0.00109858
0.00113875
0.00117911
0.00121978
0.00126068
0.00130186
0.00134332
0.00138503
0.00142703
0.00146928
0.00151178
0.00155451
0.00159745
0.00164058
0.00168388
0.0017273
0.00177083
0.00181443
0.00185806
0.00190166
0.0019452
0.00198866
0.00203195
0.00207505
0.00211792
0.00216046
0.00220266
0.00224448
0.00228584
0.00232671
0.00236702
0.00240675
0.00244584
0.00248425
0.0025219
0.00255882
0.00259493
0.00263018
0.00266456
0.00269803
0.00273057
0.00276215
0.00279271
0.00282228
0.0028508
0.0028783
0.00290471
0.00293006
0.0029543
0.00297744
0.0029995
0.00302041
0.00304022
0.00305891
0.00307646
0.00309289
0.0031082
0.00312236
0.00313541
0.00314732
0.0031581
0.00316776
0.00317629
0.00318371
0.00319001
0.0031952
0.00319933
0.00320238
0.00320442
0.00320546
0.00320557
0.00320482
0.00320331
0.00320113
0.00319835
0.00319494
0.00319204
-0.00284623
-0.00284932
-0.00285288
-0.00285554
-0.00285749
-0.0028587
-0.00285915
-0.00285878
-0.00285755
-0.00285541
-0.00285237
-0.0028484
-0.00284349
-0.00283762
-0.00283083
-0.00282308
-0.0028144
-0.00280479
-0.00279426
-0.00278282
-0.00277047
-0.00275722
-0.00274309
-0.00272808
-0.0027122
-0.00269545
-0.00267785
-0.00265941
-0.0026401
-0.00261999
-0.00259905
-0.00257728
-0.00255468
-0.0025313
-0.00250711
-0.00248211
-0.00245634
-0.00242979
-0.00240244
-0.00237433
-0.00234546
-0.00231584
-0.00228547
-0.00225436
-0.00222251
-0.00218993
-0.00215663
-0.00212263
-0.00208794
-0.00205255
-0.00201648
-0.00197976
-0.00194237
-0.00190435
-0.0018657
-0.00182643
-0.0017866
-0.00174616
-0.00170518
-0.00166364
-0.0016216
-0.00157904
-0.00153601
-0.00149252
-0.00144861
-0.00140429
-0.00135958
-0.00131453
-0.00126914
-0.00122344
-0.00117749
-0.00113129
-0.00108488
-0.00103828
-0.000991536
-0.000944664
-0.00089771
-0.000850692
-0.000803644
-0.000756607
-0.000709593
-0.000662634
-0.000615773
-0.00056903
-0.000522431
-0.000476006
-0.000429769
-0.000383758
-0.00033799
-0.000292469
-0.000247232
-0.00020229
-0.000157649
-0.00011334
-6.93359e-05
-2.5698e-05
1.76095e-05
6.05892e-05
0.000103211
0.000145509
0.00018745
0.000229069
0.000270387
0.000311396
0.000352121
0.000392571
0.000432767
0.000472734
0.000512502
0.000552096
0.000591511
0.000630824
0.000670021
0.000709143
0.000748251
0.000787324
0.000826427
0.000865581
0.000904813
0.000944141
0.000983602
0.00102323
0.00106302
0.00110302
0.00114321
0.00118367
0.00122434
0.00126528
0.00130649
0.00134796
0.00138968
0.00143166
0.00147389
0.00151637
0.00155906
0.00160197
0.00164504
0.00168828
0.00173165
0.0017751
0.00181861
0.00186213
0.00190564
0.00194907
0.00199241
0.00203559
0.00207855
0.00212126
0.00216368
0.00220574
0.00224738
0.00228858
0.00232928
0.00236941
0.00240897
0.00244788
0.00248609
0.00252359
0.00256029
0.00259621
0.00263127
0.00266546
0.00269874
0.00273106
0.00276246
0.00279284
0.00282222
0.00285058
0.00287788
0.00290412
0.00292931
0.00295338
0.00297638
0.00299828
0.00301908
0.00303874
0.00305731
0.00307477
0.0030911
0.00310632
0.0031204
0.00313339
0.00314525
0.003156
0.00316565
0.00317416
0.0031816
0.00318792
0.00319318
0.00319738
0.00320051
0.00320264
0.00320377
0.00320398
0.00320331
0.00320178
0.00319952
0.0031965
0.00319257
0.00318916
-0.00284466
-0.00284812
-0.00285206
-0.00285495
-0.00285702
-0.00285829
-0.00285873
-0.00285833
-0.00285704
-0.00285487
-0.00285179
-0.00284778
-0.00284285
-0.00283698
-0.0028302
-0.00282246
-0.0028138
-0.00280424
-0.00279377
-0.00278238
-0.00277009
-0.00275693
-0.00274287
-0.00272794
-0.00271215
-0.0026955
-0.002678
-0.00265965
-0.00264048
-0.00262046
-0.00259962
-0.00257798
-0.00255552
-0.00253225
-0.00250818
-0.00248331
-0.00245766
-0.00243124
-0.00240402
-0.00237606
-0.00234732
-0.00231783
-0.00228758
-0.00225658
-0.00222486
-0.00219241
-0.00215923
-0.00212536
-0.00209077
-0.0020555
-0.00201953
-0.00198291
-0.00194563
-0.00190769
-0.00186913
-0.00182995
-0.00179018
-0.0017498
-0.00170888
-0.00166741
-0.00162539
-0.00158288
-0.00153987
-0.0014964
-0.00145249
-0.00140816
-0.00136345
-0.00131836
-0.00127295
-0.00122721
-0.00118119
-0.00113493
-0.00108843
-0.00104175
-0.000994902
-0.000947937
-0.000900847
-0.000853704
-0.00080653
-0.000759333
-0.000712155
-0.000665037
-0.00061801
-0.00057109
-0.000524287
-0.00047768
-0.000431253
-0.000385029
-0.000339042
-0.000293301
-0.000247859
-0.000202697
-0.000157847
-0.000113295
-6.90884e-05
-2.52081e-05
1.83073e-05
6.15063e-05
0.000104346
0.000146844
0.000189023
0.00023085
0.000272359
0.000313576
0.000354494
0.000395126
0.000435513
0.000475647
0.000515585
0.000555338
0.000594933
0.000634369
0.000673709
0.000712973
0.000752183
0.000791387
0.000830606
0.000869834
0.000909156
0.000948575
0.000988107
0.00102779
0.00106764
0.00110768
0.00114794
0.00118841
0.00122912
0.00127009
0.0013113
0.00135277
0.0013945
0.00143648
0.0014787
0.00152115
0.00156383
0.00160669
0.00164973
0.00169292
0.00173623
0.00177962
0.00182307
0.00186652
0.00190996
0.00195331
0.00199656
0.00203962
0.0020825
0.00212509
0.00216739
0.00220933
0.00225084
0.00229193
0.00233249
0.00237249
0.00241189
0.00245066
0.00248871
0.00252604
0.0025626
0.00259834
0.00263325
0.00266726
0.00270038
0.00273254
0.00276376
0.00279398
0.00282319
0.00285138
0.00287852
0.00290462
0.00292965
0.00295359
0.00297642
0.00299819
0.00301886
0.00303841
0.00305686
0.00307421
0.00309044
0.00310556
0.0031196
0.00313251
0.00314432
0.00315502
0.00316464
0.00317316
0.00318059
0.00318696
0.00319224
0.00319648
0.00319967
0.00320185
0.00320305
0.00320329
0.00320261
0.00320103
0.00319862
0.00319535
0.00319094
0.0031871
-0.00284405
-0.00284781
-0.00285207
-0.00285517
-0.00285735
-0.00285869
-0.00285915
-0.00285876
-0.00285745
-0.00285525
-0.00285214
-0.00284812
-0.00284317
-0.0028373
-0.00283051
-0.0028228
-0.00281418
-0.00280464
-0.00279419
-0.00278287
-0.00277064
-0.00275753
-0.00274355
-0.00272869
-0.00271298
-0.00269643
-0.00267902
-0.00266077
-0.00264169
-0.00262178
-0.00260106
-0.00257952
-0.00255715
-0.002534
-0.00251005
-0.0024853
-0.00245977
-0.00243346
-0.00240638
-0.00237852
-0.00234988
-0.00232052
-0.00229039
-0.00225951
-0.0022279
-0.00219556
-0.00216249
-0.0021287
-0.00209422
-0.00205904
-0.00202317
-0.00198663
-0.00194941
-0.00191155
-0.00187306
-0.00183393
-0.0017942
-0.00175388
-0.00171298
-0.00167152
-0.00162953
-0.00158702
-0.001544
-0.00150053
-0.00145659
-0.00141221
-0.00136744
-0.0013223
-0.00127681
-0.00123099
-0.00118488
-0.00113851
-0.0010919
-0.0010451
-0.000998107
-0.000950985
-0.000903747
-0.000856444
-0.000809067
-0.000761701
-0.00071433
-0.000667038
-0.000619773
-0.000572655
-0.000525646
-0.000478798
-0.000432134
-0.000385692
-0.000339467
-0.000293502
-0.000247819
-0.000202416
-0.000157321
-0.000112541
-6.81057e-05
-2.40057e-05
1.97697e-05
6.31798e-05
0.000106252
0.000148962
0.000191344
0.000233378
0.000275096
0.000316509
0.000357609
0.000398415
0.000438969
0.000479287
0.000519366
0.000559261
0.000598976
0.000638555
0.000678027
0.000717396
0.00075671
0.000796004
0.000835297
0.000874616
0.000914007
0.000953487
0.000993065
0.0010328
0.00107271
0.00111278
0.00115305
0.00119355
0.00123428
0.00127524
0.00131647
0.00135794
0.00139966
0.00144162
0.00148382
0.00152625
0.00156889
0.00161172
0.00165475
0.0016979
0.00174117
0.00178451
0.00182791
0.00187131
0.00191468
0.00195798
0.00200114
0.00204414
0.00208694
0.00212945
0.00217166
0.00221353
0.00225495
0.00229591
0.00233638
0.00237627
0.00241557
0.00245419
0.00249213
0.00252933
0.00256576
0.00260137
0.00263612
0.00266999
0.00270298
0.002735
0.00276607
0.00279614
0.0028252
0.00285324
0.00288024
0.00290618
0.00293105
0.00295486
0.00297757
0.00299921
0.00301974
0.00303919
0.00305752
0.00307477
0.00309091
0.00310596
0.00311989
0.00313275
0.00314452
0.00315518
0.00316477
0.00317327
0.0031807
0.00318707
0.00319236
0.00319663
0.00319986
0.00320207
0.0032033
0.00320353
0.00320281
0.00320115
0.00319859
0.00319504
0.00319025
0.00318604
-0.00284448
-0.00284847
-0.00285299
-0.00285625
-0.00285857
-0.00285997
-0.00286047
-0.00286008
-0.00285878
-0.00285655
-0.00285344
-0.0028494
-0.00284445
-0.00283857
-0.00283178
-0.00282408
-0.00281548
-0.00280597
-0.00279556
-0.00278427
-0.0027721
-0.00275905
-0.00274512
-0.00273035
-0.0027147
-0.00269822
-0.00268089
-0.00266274
-0.00264374
-0.00262394
-0.00260329
-0.00258186
-0.00255962
-0.00253655
-0.00251271
-0.00248809
-0.00246265
-0.00243645
-0.00240947
-0.00238172
-0.0023532
-0.00232393
-0.0022939
-0.00226314
-0.00223161
-0.00219935
-0.00216638
-0.00213268
-0.00209828
-0.00206317
-0.00202736
-0.00199088
-0.00195373
-0.00191591
-0.00187745
-0.00183835
-0.00179865
-0.00175834
-0.00171744
-0.00167597
-0.00163394
-0.0015914
-0.00154835
-0.00150481
-0.0014608
-0.00141637
-0.00137151
-0.00132626
-0.00128066
-0.00123473
-0.00118848
-0.00114195
-0.0010952
-0.00104822
-0.00100106
-0.000953757
-0.000906311
-0.000858793
-0.000811233
-0.000763612
-0.000716034
-0.000668486
-0.000620991
-0.000573609
-0.00052636
-0.000479254
-0.000432347
-0.000385639
-0.000339161
-0.00029293
-0.000246973
-0.000201329
-0.000155983
-0.000110949
-6.62473e-05
-2.19107e-05
2.21058e-05
6.57415e-05
0.000109039
0.000151971
0.000194568
0.000236823
0.000278724
0.000320311
0.000361592
0.000402591
0.000443287
0.000483767
0.000523996
0.000564009
0.00060385
0.000643543
0.000683104
0.00072257
0.000761973
0.000801345
0.000840698
0.000880077
0.000919529
0.000959049
0.000998667
0.00103842
0.00107834
0.00111843
0.00115872
0.00119922
0.00123994
0.00128091
0.00132212
0.00136358
0.00140527
0.00144722
0.0014894
0.00153181
0.00157442
0.00161722
0.0016602
0.00170331
0.00174654
0.00178986
0.00183321
0.00187658
0.00191989
0.00196314
0.00200626
0.00204922
0.00209195
0.00213442
0.00217655
0.00221833
0.00225968
0.00230058
0.00234094
0.00238076
0.00241995
0.0024585
0.00249634
0.00253343
0.00256976
0.00260526
0.00263989
0.00267366
0.0027065
0.00273841
0.00276933
0.00279928
0.00282822
0.00285612
0.002883
0.0029088
0.00293356
0.00295723
0.00297982
0.00300134
0.00302176
0.00304109
0.00305931
0.00307646
0.0030925
0.00310745
0.00312134
0.00313413
0.00314583
0.00315645
0.003166
0.00317448
0.00318189
0.00318825
0.00319357
0.00319784
0.00320109
0.0032033
0.00320451
0.00320474
0.00320395
0.0032022
0.00319949
0.00319572
0.00319058
0.0031861
-0.00284603
-0.00285018
-0.0028549
-0.0028583
-0.00286069
-0.00286218
-0.00286272
-0.00286234
-0.00286103
-0.00285881
-0.00285568
-0.00285162
-0.00284666
-0.00284078
-0.00283399
-0.00282631
-0.00281771
-0.00280823
-0.00279785
-0.00278658
-0.00277446
-0.00276146
-0.0027476
-0.00273287
-0.00271731
-0.00270088
-0.00268365
-0.00266557
-0.00264665
-0.00262692
-0.00260639
-0.00258502
-0.00256288
-0.00253992
-0.00251618
-0.00249163
-0.00246631
-0.0024402
-0.00241332
-0.00238566
-0.00235723
-0.00232805
-0.00229811
-0.00226741
-0.00223597
-0.0022038
-0.00217089
-0.00213726
-0.00210291
-0.00206785
-0.00203209
-0.00199565
-0.00195853
-0.00192073
-0.00188227
-0.00184318
-0.00180346
-0.00176312
-0.00172219
-0.00168068
-0.00163861
-0.001596
-0.00155285
-0.00150922
-0.00146512
-0.00142056
-0.00137557
-0.00133019
-0.00128443
-0.00123832
-0.0011919
-0.00114519
-0.00109823
-0.00105104
-0.00100366
-0.000956118
-0.000908439
-0.000860666
-0.000812836
-0.000764984
-0.000717115
-0.000669303
-0.000621538
-0.000573871
-0.000526329
-0.000478947
-0.000431732
-0.000384741
-0.000337966
-0.000291463
-0.000245229
-0.000199294
-0.000153676
-0.000108376
-6.341e-05
-1.88046e-05
2.54547e-05
6.93273e-05
0.000112875
0.000156024
0.000198836
0.000241293
0.000283396
0.000325176
0.000366628
0.000407783
0.000448646
0.000489253
0.000529609
0.00056976
0.000609706
0.000649488
0.000689133
0.000728679
0.00076815
0.000807578
0.000847001
0.000886408
0.000925877
0.000965411
0.00100506
0.00104483
0.00108473
0.00112482
0.0011651
0.00120559
0.00124629
0.00128724
0.00132843
0.00136984
0.00141151
0.00145342
0.00149557
0.00153795
0.00158053
0.00162329
0.00166623
0.0017093
0.0017525
0.00179576
0.00183907
0.00188239
0.00192569
0.00196889
0.00201197
0.00205487
0.00209756
0.00213997
0.00218207
0.0022238
0.00226509
0.00230593
0.00234623
0.00238599
0.00242511
0.00246357
0.00250134
0.00253836
0.0025746
0.00261002
0.00264455
0.00267821
0.00271096
0.00274276
0.00277359
0.00280341
0.00283223
0.00286002
0.00288678
0.00291247
0.0029371
0.00296066
0.00298315
0.00300454
0.00302485
0.00304407
0.00306221
0.00307926
0.00309522
0.0031101
0.00312389
0.00313661
0.00314825
0.00315882
0.00316833
0.0031768
0.00318419
0.00319054
0.00319584
0.00320011
0.00320335
0.00320556
0.00320675
0.00320694
0.0032061
0.00320426
0.0032014
0.00319744
0.00319205
0.00318734
-0.0028487
-0.00285297
-0.00285782
-0.00286133
-0.00286379
-0.00286532
-0.00286589
-0.00286551
-0.00286421
-0.002862
-0.00285885
-0.0028548
-0.00284981
-0.00284394
-0.00283715
-0.00282947
-0.00282088
-0.00281143
-0.00280107
-0.00278984
-0.00277774
-0.00276479
-0.00275096
-0.00273632
-0.0027208
-0.00270445
-0.00268727
-0.00266924
-0.00265041
-0.00263077
-0.0026103
-0.00258903
-0.00256695
-0.00254408
-0.00252041
-0.00249596
-0.00247071
-0.00244469
-0.00241788
-0.00239031
-0.00236196
-0.00233285
-0.00230298
-0.00227235
-0.00224098
-0.00220885
-0.00217599
-0.00214241
-0.00210808
-0.00207305
-0.00203732
-0.00200088
-0.00196375
-0.00192594
-0.00188746
-0.00184834
-0.00180858
-0.0017682
-0.00172719
-0.0016856
-0.00164344
-0.00160072
-0.00155747
-0.00151368
-0.00146944
-0.00142473
-0.00137956
-0.00133399
-0.00128803
-0.00124172
-0.00119507
-0.00114812
-0.00110091
-0.00105346
-0.00100581
-0.000957993
-0.000910035
-0.000861963
-0.000813836
-0.000765674
-0.000717506
-0.000669357
-0.000621274
-0.0005733
-0.000525432
-0.00047772
-0.000430194
-0.000382873
-0.000335793
-0.00028896
-0.000242435
-0.000196182
-0.000150262
-0.000104685
-5.94457e-05
-1.45515e-05
2.99665e-05
7.41091e-05
0.000117885
0.000161286
0.000204297
0.000246976
0.000289267
0.000331237
0.000372863
0.000414168
0.000455189
0.000495926
0.000536406
0.000576657
0.000616709
0.000656583
0.000696309
0.000735909
0.000775431
0.000814893
0.000854327
0.000893764
0.000933251
0.000972788
0.00101242
0.00105218
0.00109207
0.00113212
0.00117238
0.00121283
0.00125349
0.00129439
0.00133552
0.0013769
0.00141852
0.00146038
0.00150247
0.00154479
0.00158733
0.00163004
0.00167293
0.00171597
0.0017591
0.00180233
0.00184561
0.00188888
0.00193213
0.00197529
0.00201833
0.00206119
0.00210383
0.0021462
0.00218827
0.00222996
0.00227122
0.00231201
0.00235226
0.00239197
0.00243104
0.00246946
0.00250717
0.00254411
0.00258028
0.00261562
0.00265009
0.00268367
0.00271632
0.00274803
0.00277876
0.00280852
0.00283723
0.00286494
0.00289157
0.00291717
0.00294169
0.00296516
0.00298753
0.00300881
0.00302901
0.00304815
0.00306618
0.00308314
0.00309903
0.00311382
0.00312754
0.0031402
0.00315178
0.0031623
0.00317178
0.00318019
0.00318757
0.00319389
0.00319918
0.00320343
0.00320666
0.00320885
0.00321003
0.00321017
0.00320927
0.00320734
0.00320438
0.00320027
0.00319469
0.00318982
-0.00285251
-0.00285685
-0.00286177
-0.00286535
-0.00286789
-0.00286942
-0.00287001
-0.00286965
-0.00286835
-0.00286612
-0.00286297
-0.0028589
-0.00285392
-0.00284804
-0.00284124
-0.00283356
-0.002825
-0.00281554
-0.00280521
-0.002794
-0.00278194
-0.00276902
-0.00275524
-0.00274061
-0.00272515
-0.00270887
-0.00269174
-0.00267379
-0.00265502
-0.00263544
-0.00261503
-0.00259384
-0.00257183
-0.00254904
-0.00252543
-0.00250104
-0.00247587
-0.00244991
-0.00242317
-0.00239566
-0.00236737
-0.00233831
-0.00230849
-0.00227793
-0.00224658
-0.00221448
-0.00218166
-0.00214808
-0.00211378
-0.00207874
-0.00204301
-0.00200654
-0.00196939
-0.00193153
-0.00189302
-0.00185382
-0.00181397
-0.00177348
-0.00173238
-0.00169067
-0.00164836
-0.00160549
-0.00156209
-0.00151813
-0.0014737
-0.00142877
-0.00138338
-0.00133758
-0.00129136
-0.00124479
-0.00119787
-0.00115064
-0.00110313
-0.00105537
-0.0010074
-0.000959248
-0.000910967
-0.00086256
-0.000814085
-0.000765564
-0.000717042
-0.000668532
-0.000620094
-0.000571739
-0.000523514
-0.000475462
-0.000427566
-0.000379895
-0.000332469
-0.000285297
-0.000238415
-0.000191847
-0.000145599
-9.96896e-05
-5.41554e-05
-8.99061e-06
3.58168e-05
8.02195e-05
0.000124251
0.000167896
0.000211159
0.000254041
0.00029654
0.000338695
0.00038049
0.000421953
0.000463106
0.000503981
0.000544583
0.000584924
0.000625067
0.000664994
0.000704796
0.000744433
0.000783987
0.000823476
0.00086292
0.000902361
0.000941826
0.000981337
0.00102095
0.00106066
0.00110051
0.00114051
0.00118071
0.0012211
0.0012617
0.00130253
0.0013436
0.00138489
0.00142645
0.00146822
0.00151026
0.00155251
0.00159496
0.00163761
0.00168043
0.00172339
0.00176647
0.00180965
0.00185286
0.00189609
0.00193928
0.00198241
0.0020254
0.00206823
0.00211083
0.00215317
0.0021952
0.00223684
0.00227807
0.00231882
0.00235905
0.00239871
0.00243775
0.00247612
0.00251377
0.00255069
0.0025868
0.00262207
0.00265649
0.00269002
0.0027226
0.00275424
0.0027849
0.00281457
0.0028432
0.00287081
0.00289737
0.00292287
0.0029473
0.00297066
0.00299294
0.00301414
0.00303426
0.00305329
0.00307124
0.00308811
0.0031039
0.00311864
0.00313227
0.00314487
0.00315641
0.00316688
0.0031763
0.00318469
0.00319201
0.00319832
0.0032036
0.00320783
0.00321104
0.0032132
0.00321434
0.00321446
0.00321351
0.00321151
0.00320844
0.00320422
0.00319851
0.00319352
-0.00285747
-0.00286182
-0.00286679
-0.00287041
-0.00287295
-0.00287453
-0.00287511
-0.00287477
-0.00287345
-0.00287121
-0.00286805
-0.00286397
-0.00285897
-0.00285307
-0.00284629
-0.00283861
-0.00283003
-0.00282058
-0.00281027
-0.00279909
-0.00278705
-0.00277416
-0.00276042
-0.00274583
-0.00273041
-0.00271417
-0.00269708
-0.00267918
-0.00266046
-0.00264092
-0.00262059
-0.00259945
-0.0025775
-0.00255476
-0.00253122
-0.00250689
-0.00248177
-0.00245586
-0.00242917
-0.00240171
-0.00237347
-0.00234443
-0.00231465
-0.0022841
-0.00225277
-0.0022207
-0.00218787
-0.00215428
-0.00211996
-0.0020849
-0.00204911
-0.0020126
-0.00197537
-0.00193745
-0.00189883
-0.00185953
-0.00181957
-0.00177895
-0.00173769
-0.00169581
-0.00165334
-0.00161028
-0.00156664
-0.00152246
-0.00147778
-0.00143259
-0.00138695
-0.00134085
-0.00129433
-0.00124744
-0.00120018
-0.00115263
-0.00110477
-0.00105666
-0.00100831
-0.000959784
-0.000911114
-0.000862318
-0.000813436
-0.000764524
-0.000715601
-0.000666687
-0.000617831
-0.000569089
-0.000520457
-0.000471992
-0.000423709
-0.000375646
-0.000327822
-0.000280286
-0.000233031
-0.000186115
-0.000139525
-9.32848e-05
-4.74095e-05
-1.9291e-06
4.31594e-05
8.78705e-05
0.000132166
0.000176061
0.000219547
0.000262663
0.000305359
0.000347715
0.000389685
0.000431306
0.000472599
0.000513587
0.0005543
0.000594741
0.000634941
0.000674952
0.000714786
0.000754462
0.00079403
0.000833511
0.000872959
0.00091238