/*--------------------------------*- C++ -*----------------------------------*\
  =========                 |
  \\      /  F ield         | OpenFOAM: The Open Source CFD Toolbox
   \\    /   O peration     | Website:  https://openfoam.org
    \\  /    A nd           | Version:  6
     \\/     M anipulation  |
\*---------------------------------------------------------------------------*/
FoamFile
{
    version     2.0;
    format      ascii;
    class       volScalarField;
    location    "./ITHACAoutput/Offline/1";
    object      nutRec;
}
// * * * * * * * * * * * * * * * * * * * * * * * * * * * * * * * * * * * * * //

dimensions      [0 2 -1 0 0 0 0];

internalField   nonuniform List<scalar> 
115600
(
8.14063e-10
2.34068e-10
2.04794e-10
1.94507e-10
1.83845e-10
1.7024e-10
1.55793e-10
1.42146e-10
1.30563e-10
1.20407e-10
1.11516e-10
1.03747e-10
9.6974e-11
9.10787e-11
8.5957e-11
8.1517e-11
7.76774e-11
7.4365e-11
7.15135e-11
6.90628e-11
6.696e-11
6.51591e-11
6.36223e-11
6.23187e-11
6.12242e-11
6.03198e-11
5.95906e-11
5.90235e-11
5.86063e-11
5.83267e-11
5.81731e-11
5.81703e-11
5.83408e-11
5.86234e-11
5.89962e-11
5.9445e-11
5.99585e-11
6.05283e-11
6.11478e-11
6.18114e-11
6.2514e-11
6.32515e-11
6.40203e-11
6.48188e-11
6.56479e-11
6.65131e-11
6.74267e-11
6.84136e-11
6.95154e-11
7.0821e-11
7.24606e-11
7.48426e-11
7.85347e-11
8.6857e-11
1.10943e-10
2.38859e-10
5.18122e-08
2.86365e-08
2.54977e-08
2.41886e-08
2.25874e-08
2.04857e-08
1.82335e-08
1.61195e-08
1.43356e-08
1.28324e-08
1.1566e-08
1.04977e-08
9.59511e-09
8.83093e-09
8.18312e-09
7.63378e-09
7.16825e-09
6.7742e-09
6.44106e-09
6.15966e-09
5.92206e-09
5.72155e-09
5.55254e-09
5.41058e-09
5.2922e-09
5.19477e-09
5.11629e-09
5.0552e-09
5.01016e-09
4.97991e-09
4.96326e-09
4.96186e-09
4.97776e-09
5.00587e-09
5.04377e-09
5.0898e-09
5.14272e-09
5.20155e-09
5.26555e-09
5.33412e-09
5.40671e-09
5.48283e-09
5.56203e-09
5.64396e-09
5.72844e-09
5.81567e-09
5.90644e-09
6.00254e-09
6.1074e-09
6.22806e-09
6.37658e-09
6.58436e-09
6.91008e-09
7.58766e-09
9.48346e-09
1.50502e-08
2.69152e-07
2.63572e-07
2.66513e-07
2.6387e-07
2.53393e-07
2.36726e-07
2.17131e-07
1.97221e-07
1.78679e-07
1.62207e-07
1.47698e-07
1.34976e-07
1.2385e-07
1.14137e-07
1.05679e-07
9.83422e-08
9.20105e-08
8.65782e-08
8.19445e-08
7.80122e-08
7.46885e-08
7.18875e-08
6.95338e-08
6.75634e-08
6.59252e-08
6.45801e-08
6.34993e-08
6.26611e-08
6.20482e-08
6.16452e-08
6.14374e-08
6.14345e-08
6.1648e-08
6.20317e-08
6.2553e-08
6.31862e-08
6.39111e-08
6.47106e-08
6.55716e-08
6.64826e-08
6.74333e-08
6.84134e-08
6.94119e-08
7.04176e-08
7.14199e-08
7.24099e-08
7.33829e-08
7.43419e-08
7.53033e-08
7.63088e-08
7.74494e-08
7.89303e-08
8.12486e-08
8.5707e-08
9.77796e-08
1.19296e-07
5.39323e-07
6.57172e-07
7.10596e-07
7.2235e-07
7.0869e-07
6.79533e-07
6.42659e-07
6.0357e-07
5.65843e-07
5.31055e-07
4.99622e-07
4.71374e-07
4.46056e-07
4.23384e-07
4.0311e-07
3.8505e-07
3.69059e-07
3.55013e-07
3.42788e-07
3.3224e-07
3.23216e-07
3.15547e-07
3.09071e-07
3.03635e-07
2.99113e-07
2.95406e-07
2.92442e-07
2.90171e-07
2.88557e-07
2.87566e-07
2.87166e-07
2.87358e-07
2.88126e-07
2.89375e-07
2.91012e-07
2.92951e-07
2.95117e-07
2.97448e-07
2.99892e-07
3.02406e-07
3.04949e-07
3.07479e-07
3.09951e-07
3.12318e-07
3.14526e-07
3.16523e-07
3.1826e-07
3.19697e-07
3.20812e-07
3.21619e-07
3.22215e-07
3.22858e-07
3.24299e-07
3.28369e-07
3.43383e-07
3.74252e-07
7.46059e-07
1.01369e-06
1.15901e-06
1.21575e-06
1.22006e-06
1.19382e-06
1.15107e-06
1.10107e-06
1.04983e-06
1.00071e-06
9.55075e-07
9.13258e-07
8.75212e-07
8.40722e-07
8.09575e-07
7.81607e-07
7.56689e-07
7.34705e-07
7.15522e-07
6.98965e-07
6.84824e-07
6.72858e-07
6.62815e-07
6.54454e-07
6.47566e-07
6.41984e-07
6.37586e-07
6.34287e-07
6.32028e-07
6.30758e-07
6.30425e-07
6.31002e-07
6.32434e-07
6.34598e-07
6.37356e-07
6.40572e-07
6.44123e-07
6.47904e-07
6.51828e-07
6.55821e-07
6.59817e-07
6.63745e-07
6.6753e-07
6.71091e-07
6.74334e-07
6.77166e-07
6.7949e-07
6.81221e-07
6.82293e-07
6.8269e-07
6.82481e-07
6.81988e-07
6.82028e-07
6.85245e-07
7.01678e-07
7.46341e-07
8.89288e-07
1.25646e-06
1.49789e-06
1.62132e-06
1.66783e-06
1.66723e-06
1.63898e-06
1.59573e-06
1.54568e-06
1.49406e-06
1.44347e-06
1.39532e-06
1.35012e-06
1.30805e-06
1.26921e-06
1.23366e-06
1.20152e-06
1.1728e-06
1.1475e-06
1.12549e-06
1.10659e-06
1.09055e-06
1.07708e-06
1.06588e-06
1.0567e-06
1.04932e-06
1.04358e-06
1.03936e-06
1.03659e-06
1.03521e-06
1.03514e-06
1.03632e-06
1.03864e-06
1.04197e-06
1.04613e-06
1.05095e-06
1.05628e-06
1.06195e-06
1.06786e-06
1.0739e-06
1.07998e-06
1.08601e-06
1.0919e-06
1.09752e-06
1.10277e-06
1.10751e-06
1.11164e-06
1.11503e-06
1.11762e-06
1.11941e-06
1.1205e-06
1.12135e-06
1.12309e-06
1.12909e-06
1.15188e-06
1.21024e-06
9.9889e-07
1.38633e-06
1.69501e-06
1.88419e-06
1.98384e-06
2.02409e-06
2.02672e-06
2.00652e-06
1.97324e-06
1.93328e-06
1.89065e-06
1.84728e-06
1.80463e-06
1.76337e-06
1.72403e-06
1.68708e-06
1.65292e-06
1.62186e-06
1.59409e-06
1.56966e-06
1.54853e-06
1.53049e-06
1.51532e-06
1.50273e-06
1.49248e-06
1.48435e-06
1.47817e-06
1.47384e-06
1.47128e-06
1.47043e-06
1.47122e-06
1.47353e-06
1.47725e-06
1.4822e-06
1.48823e-06
1.49512e-06
1.5027e-06
1.51079e-06
1.51926e-06
1.52799e-06
1.53686e-06
1.54577e-06
1.55462e-06
1.56326e-06
1.57157e-06
1.57943e-06
1.58669e-06
1.59327e-06
1.59911e-06
1.60424e-06
1.6089e-06
1.61367e-06
1.62005e-06
1.63166e-06
1.66336e-06
1.73073e-06
1.10693e-06
1.43305e-06
1.76418e-06
2.00242e-06
2.15355e-06
2.24007e-06
2.28227e-06
2.29526e-06
2.28955e-06
2.27226e-06
2.24806e-06
2.21978e-06
2.18915e-06
2.15745e-06
2.12568e-06
2.09467e-06
2.06513e-06
2.03766e-06
2.01269e-06
1.9905e-06
1.9712e-06
1.95475e-06
1.94101e-06
1.9298e-06
1.92091e-06
1.91416e-06
1.90944e-06
1.90667e-06
1.90579e-06
1.90678e-06
1.90958e-06
1.91407e-06
1.92009e-06
1.92753e-06
1.93619e-06
1.94588e-06
1.95641e-06
1.96761e-06
1.97932e-06
1.99143e-06
2.00381e-06
2.01635e-06
2.02893e-06
2.04143e-06
2.05372e-06
2.06566e-06
2.07715e-06
2.08809e-06
2.09848e-06
2.1084e-06
2.11817e-06
2.12845e-06
2.1411e-06
2.1593e-06
2.19932e-06
2.27042e-06
1.24043e-06
1.43379e-06
1.73439e-06
1.99374e-06
2.18537e-06
2.31621e-06
2.40058e-06
2.45166e-06
2.47964e-06
2.49183e-06
2.49328e-06
2.48731e-06
2.47592e-06
2.46088e-06
2.44357e-06
2.42509e-06
2.40642e-06
2.38837e-06
2.37162e-06
2.35666e-06
2.34378e-06
2.33309e-06
2.32461e-06
2.31824e-06
2.31385e-06
2.31135e-06
2.31068e-06
2.31179e-06
2.31471e-06
2.31941e-06
2.32592e-06
2.33408e-06
2.34381e-06
2.35497e-06
2.36741e-06
2.38094e-06
2.39539e-06
2.41058e-06
2.42638e-06
2.44265e-06
2.45929e-06
2.4762e-06
2.49324e-06
2.51032e-06
2.52729e-06
2.54404e-06
2.56049e-06
2.57655e-06
2.59225e-06
2.60771e-06
2.62329e-06
2.63965e-06
2.65878e-06
2.68308e-06
2.72907e-06
2.79964e-06
1.41687e-06
1.42643e-06
1.64348e-06
1.88592e-06
2.09766e-06
2.26399e-06
2.38808e-06
2.47817e-06
2.54252e-06
2.58784e-06
2.61918e-06
2.64007e-06
2.65288e-06
2.65965e-06
2.66198e-06
2.6612e-06
2.65846e-06
2.65477e-06
2.65098e-06
2.64775e-06
2.64555e-06
2.64466e-06
2.6452e-06
2.64721e-06
2.65065e-06
2.65548e-06
2.66171e-06
2.66935e-06
2.67847e-06
2.68912e-06
2.70135e-06
2.71506e-06
2.73019e-06
2.74666e-06
2.76431e-06
2.783e-06
2.80257e-06
2.82286e-06
2.84375e-06
2.86511e-06
2.88688e-06
2.90893e-06
2.93116e-06
2.95348e-06
2.97576e-06
2.9979e-06
3.01982e-06
3.04147e-06
3.06287e-06
3.08414e-06
3.10568e-06
3.12801e-06
3.15309e-06
3.1823e-06
3.23148e-06
3.29862e-06
1.64522e-06
1.44407e-06
1.53656e-06
1.71836e-06
1.9188e-06
2.10268e-06
2.25774e-06
2.3834e-06
2.48355e-06
2.56304e-06
2.62626e-06
2.67663e-06
2.7168e-06
2.74888e-06
2.77458e-06
2.79532e-06
2.81239e-06
2.82692e-06
2.83989e-06
2.85212e-06
2.86422e-06
2.87661e-06
2.88954e-06
2.90315e-06
2.91748e-06
2.93258e-06
2.94849e-06
2.9653e-06
2.9831e-06
3.00201e-06
3.02212e-06
3.04339e-06
3.0658e-06
3.08929e-06
3.11377e-06
3.13911e-06
3.16517e-06
3.19183e-06
3.21897e-06
3.2465e-06
3.27434e-06
3.30241e-06
3.33063e-06
3.35889e-06
3.3871e-06
3.41517e-06
3.44301e-06
3.47059e-06
3.49791e-06
3.52509e-06
3.55245e-06
3.58037e-06
3.61059e-06
3.64341e-06
3.69338e-06
3.75522e-06
1.93525e-06
1.51307e-06
1.46073e-06
1.54352e-06
1.69273e-06
1.86431e-06
2.03174e-06
2.18247e-06
2.31309e-06
2.42451e-06
2.51931e-06
2.60016e-06
2.66941e-06
2.72898e-06
2.78052e-06
2.82548e-06
2.86519e-06
2.90083e-06
2.93351e-06
2.96412e-06
2.99342e-06
3.02195e-06
3.05007e-06
3.078e-06
3.1059e-06
3.13386e-06
3.16197e-06
3.19036e-06
3.21917e-06
3.24856e-06
3.27866e-06
3.30948e-06
3.34105e-06
3.37335e-06
3.40632e-06
3.43986e-06
3.47387e-06
3.50825e-06
3.5429e-06
3.57774e-06
3.61273e-06
3.64777e-06
3.68283e-06
3.7178e-06
3.75261e-06
3.78717e-06
3.82139e-06
3.85523e-06
3.88868e-06
3.9218e-06
3.95482e-06
3.98792e-06
4.02251e-06
4.05781e-06
4.10677e-06
4.16226e-06
2.30789e-06
1.65736e-06
1.45794e-06
1.42086e-06
1.48163e-06
1.60152e-06
1.7494e-06
1.90318e-06
2.0506e-06
2.18634e-06
2.30887e-06
2.41862e-06
2.51666e-06
2.6043e-06
2.68286e-06
2.75361e-06
2.81779e-06
2.87659e-06
2.93109e-06
2.98228e-06
3.031e-06
3.07788e-06
3.1234e-06
3.16788e-06
3.21153e-06
3.25451e-06
3.29696e-06
3.33904e-06
3.38092e-06
3.42277e-06
3.46479e-06
3.50703e-06
3.54953e-06
3.59233e-06
3.6354e-06
3.67868e-06
3.72208e-06
3.76554e-06
3.80897e-06
3.85232e-06
3.89553e-06
3.93858e-06
3.98139e-06
4.0239e-06
4.06602e-06
4.10768e-06
4.14879e-06
4.18928e-06
4.22912e-06
4.26827e-06
4.30686e-06
4.34483e-06
4.38319e-06
4.42016e-06
4.46692e-06
4.51563e-06
2.7966e-06
1.90637e-06
1.56433e-06
1.40519e-06
1.35726e-06
1.3895e-06
1.47701e-06
1.59854e-06
1.73659e-06
1.87875e-06
2.01749e-06
2.14895e-06
2.27154e-06
2.38494e-06
2.4895e-06
2.58591e-06
2.67505e-06
2.75788e-06
2.8354e-06
2.90855e-06
2.97817e-06
3.04499e-06
3.10952e-06
3.17218e-06
3.23326e-06
3.29296e-06
3.35146e-06
3.40893e-06
3.46558e-06
3.5216e-06
3.57718e-06
3.63246e-06
3.68749e-06
3.74232e-06
3.79696e-06
3.85138e-06
3.90554e-06
3.95936e-06
4.0128e-06
4.06582e-06
4.11837e-06
4.17041e-06
4.22191e-06
4.27279e-06
4.32299e-06
4.37242e-06
4.42097e-06
4.46856e-06
4.51509e-06
4.56046e-06
4.60465e-06
4.64734e-06
4.68909e-06
4.72727e-06
4.77123e-06
4.81329e-06
3.45118e-06
2.31047e-06
1.82538e-06
1.54775e-06
1.38729e-06
1.31338e-06
1.30842e-06
1.35804e-06
1.44753e-06
1.56294e-06
1.6925e-06
1.82747e-06
1.96203e-06
2.09271e-06
2.21767e-06
2.33617e-06
2.44811e-06
2.55384e-06
2.65396e-06
2.74912e-06
2.84008e-06
2.92748e-06
3.01186e-06
3.09366e-06
3.1732e-06
3.25074e-06
3.32647e-06
3.40059e-06
3.47328e-06
3.54475e-06
3.61522e-06
3.68484e-06
3.75369e-06
3.82184e-06
3.8893e-06
3.9561e-06
4.02218e-06
4.08753e-06
4.15209e-06
4.21583e-06
4.27871e-06
4.34071e-06
4.40179e-06
4.46187e-06
4.52089e-06
4.57875e-06
4.63533e-06
4.6905e-06
4.74412e-06
4.79598e-06
4.84591e-06
4.89333e-06
4.93835e-06
4.97761e-06
5.01869e-06
5.0547e-06
4.37549e-06
2.9721e-06
2.32672e-06
1.9225e-06
1.64468e-06
1.45641e-06
1.34211e-06
1.29153e-06
1.29486e-06
1.34201e-06
1.42272e-06
1.52714e-06
1.64656e-06
1.77399e-06
1.90427e-06
2.03396e-06
2.16095e-06
2.28413e-06
2.40304e-06
2.51768e-06
2.6283e-06
2.73525e-06
2.83891e-06
2.93964e-06
3.0377e-06
3.13333e-06
3.22671e-06
3.31802e-06
3.40741e-06
3.49509e-06
3.58124e-06
3.66604e-06
3.74962e-06
3.83201e-06
3.91325e-06
3.99334e-06
4.0723e-06
4.15007e-06
4.22665e-06
4.30199e-06
4.37606e-06
4.44884e-06
4.52027e-06
4.59029e-06
4.65882e-06
4.72574e-06
4.79091e-06
4.85416e-06
4.91529e-06
4.97397e-06
5.0299e-06
5.08222e-06
5.1306e-06
5.17113e-06
5.20976e-06
5.24077e-06
5.72134e-06
4.04435e-06
3.20114e-06
2.64374e-06
2.23129e-06
1.91492e-06
1.67572e-06
1.50509e-06
1.39609e-06
1.34166e-06
1.33433e-06
1.36643e-06
1.43027e-06
1.51832e-06
1.62367e-06
1.74032e-06
1.86353e-06
1.98977e-06
2.11662e-06
2.24257e-06
2.36675e-06
2.48869e-06
2.60824e-06
2.72535e-06
2.84006e-06
2.95242e-06
3.0625e-06
3.17035e-06
3.27609e-06
3.37981e-06
3.48168e-06
3.58181e-06
3.68033e-06
3.77733e-06
3.87278e-06
3.96666e-06
4.05899e-06
4.14975e-06
4.23891e-06
4.32643e-06
4.41228e-06
4.49642e-06
4.57879e-06
4.65932e-06
4.73789e-06
4.81439e-06
4.88864e-06
4.96042e-06
5.02944e-06
5.09531e-06
5.15755e-06
5.21506e-06
5.26713e-06
5.3094e-06
5.34645e-06
5.37395e-06
7.46306e-06
5.58881e-06
4.53301e-06
3.80268e-06
3.24158e-06
2.78582e-06
2.41005e-06
2.10409e-06
1.86282e-06
1.68209e-06
1.55713e-06
1.48243e-06
1.452e-06
1.45964e-06
1.49921e-06
1.56469e-06
1.65036e-06
1.75107e-06
1.86241e-06
1.98081e-06
2.10355e-06
2.22867e-06
2.35478e-06
2.48092e-06
2.60645e-06
2.73091e-06
2.85398e-06
2.97546e-06
3.0952e-06
3.21315e-06
3.32929e-06
3.44364e-06
3.55626e-06
3.66719e-06
3.7764e-06
3.8838e-06
3.98935e-06
4.09303e-06
4.19478e-06
4.29457e-06
4.39235e-06
4.48804e-06
4.58158e-06
4.67287e-06
4.76178e-06
4.84815e-06
4.93177e-06
5.01238e-06
5.08962e-06
5.16299e-06
5.23185e-06
5.29494e-06
5.35117e-06
5.39593e-06
5.43268e-06
5.45862e-06
9.20464e-06
7.39165e-06
6.20777e-06
5.33978e-06
4.65162e-06
4.07414e-06
3.57705e-06
3.14612e-06
2.7751e-06
2.46141e-06
2.20353e-06
1.9996e-06
1.84677e-06
1.74122e-06
1.67843e-06
1.65357e-06
1.66165e-06
1.69774e-06
1.75712e-06
1.83531e-06
1.92833e-06
2.03265e-06
2.14535e-06
2.26406e-06
2.38688e-06
2.51234e-06
2.63932e-06
2.76693e-06
2.89451e-06
3.02157e-06
3.14776e-06
3.27282e-06
3.39661e-06
3.519e-06
3.6399e-06
3.75915e-06
3.87654e-06
3.99198e-06
4.1054e-06
4.21668e-06
4.32576e-06
4.43253e-06
4.53686e-06
4.63864e-06
4.7377e-06
4.83382e-06
4.92677e-06
5.01623e-06
5.10176e-06
5.1828e-06
5.25855e-06
5.32758e-06
5.38857e-06
5.4368e-06
5.47495e-06
5.50174e-06
1.05292e-05
9.07323e-06
7.93686e-06
7.0321e-06
6.28332e-06
5.63653e-06
5.06454e-06
4.55174e-06
4.0897e-06
3.67461e-06
3.30529e-06
2.98189e-06
2.70481e-06
2.474e-06
2.28855e-06
2.14659e-06
2.04541e-06
1.98167e-06
1.95169e-06
1.95163e-06
1.97763e-06
2.02595e-06
2.09301e-06
2.17552e-06
2.27049e-06
2.3753e-06
2.48768e-06
2.60574e-06
2.72788e-06
2.85284e-06
2.9796e-06
3.10738e-06
3.23552e-06
3.36357e-06
3.49113e-06
3.61792e-06
3.74353e-06
3.86763e-06
3.99002e-06
4.11052e-06
4.22893e-06
4.34509e-06
4.45879e-06
4.56984e-06
4.67803e-06
4.78309e-06
4.88471e-06
4.98251e-06
5.07601e-06
5.16452e-06
5.24717e-06
5.32243e-06
5.38879e-06
5.44164e-06
5.48322e-06
5.51372e-06
1.13529e-05
1.0378e-05
9.45119e-06
8.63083e-06
7.90958e-06
7.263e-06
6.6756e-06
6.13616e-06
5.63711e-06
5.17391e-06
4.74434e-06
4.34789e-06
3.98514e-06
3.65736e-06
3.36592e-06
3.11195e-06
2.89604e-06
2.71808e-06
2.57715e-06
2.47166e-06
2.39945e-06
2.35796e-06
2.34438e-06
2.35577e-06
2.38913e-06
2.44154e-06
2.51016e-06
2.59235e-06
2.68568e-06
2.788e-06
2.89741e-06
3.0123e-06
3.13133e-06
3.25338e-06
3.37751e-06
3.50296e-06
3.62911e-06
3.75525e-06
3.88089e-06
4.0056e-06
4.12901e-06
4.25077e-06
4.37056e-06
4.48807e-06
4.60295e-06
4.71486e-06
4.8234e-06
4.92811e-06
5.02842e-06
5.1236e-06
5.21269e-06
5.2941e-06
5.36629e-06
5.42495e-06
5.47227e-06
5.50976e-06
1.18057e-05
1.1264e-05
1.0621e-05
9.97404e-06
9.35855e-06
8.77818e-06
8.2321e-06
7.71722e-06
7.23008e-06
6.76779e-06
6.32843e-06
5.91101e-06
5.51542e-06
5.1423e-06
4.79282e-06
4.46854e-06
4.17116e-06
3.90236e-06
3.66356e-06
3.45577e-06
3.2795e-06
3.13466e-06
3.02062e-06
2.9362e-06
2.87982e-06
2.84953e-06
2.84314e-06
2.85831e-06
2.89263e-06
2.94367e-06
3.00913e-06
3.08681e-06
3.17472e-06
3.27104e-06
3.3742e-06
3.48276e-06
3.59557e-06
3.71151e-06
3.82964e-06
3.94915e-06
4.06928e-06
4.1894e-06
4.30893e-06
4.42731e-06
4.54404e-06
4.65861e-06
4.77046e-06
4.87904e-06
4.98368e-06
5.08356e-06
5.17768e-06
5.26448e-06
5.34253e-06
5.40795e-06
5.46333e-06
5.51128e-06
1.20396e-05
1.18142e-05
1.14451e-05
1.10066e-05
1.05443e-05
1.00779e-05
9.61749e-06
9.16803e-06
8.7312e-06
8.30729e-06
7.89606e-06
7.49726e-06
7.11085e-06
6.7371e-06
6.37664e-06
6.03045e-06
5.69985e-06
5.38636e-06
5.09168e-06
4.81758e-06
4.56579e-06
4.33785e-06
4.13504e-06
3.95828e-06
3.80804e-06
3.68436e-06
3.58679e-06
3.51445e-06
3.46612e-06
3.44023e-06
3.43504e-06
3.44864e-06
3.47909e-06
3.52443e-06
3.58276e-06
3.65229e-06
3.73132e-06
3.81831e-06
3.9119e-06
4.01087e-06
4.11402e-06
4.22026e-06
4.32866e-06
4.43831e-06
4.5484e-06
4.65817e-06
4.76688e-06
4.87376e-06
4.97803e-06
5.07876e-06
5.17493e-06
5.26509e-06
5.348e-06
5.42046e-06
5.48578e-06
5.54739e-06
1.21597e-05
1.21391e-05
1.19902e-05
1.17497e-05
1.14535e-05
1.1124e-05
1.0776e-05
1.04193e-05
1.00597e-05
9.70053e-06
9.34377e-06
8.99053e-06
8.64153e-06
8.29737e-06
7.95864e-06
7.62605e-06
7.30047e-06
6.98297e-06
6.67479e-06
6.37736e-06
6.09224e-06
5.82112e-06
5.56572e-06
5.32771e-06
5.10866e-06
4.90994e-06
4.73267e-06
4.57761e-06
4.44515e-06
4.33532e-06
4.24776e-06
4.18178e-06
4.13638e-06
4.11036e-06
4.10232e-06
4.11075e-06
4.1341e-06
4.17073e-06
4.21904e-06
4.2778e-06
4.34554e-06
4.42087e-06
4.50249e-06
4.5892e-06
4.67984e-06
4.77336e-06
4.86872e-06
4.96497e-06
5.06112e-06
5.15617e-06
5.24909e-06
5.33853e-06
5.42363e-06
5.50195e-06
5.57783e-06
5.65514e-06
1.2225e-05
1.23289e-05
1.23383e-05
1.22611e-05
1.21179e-05
1.1926e-05
1.16987e-05
1.14475e-05
1.118e-05
1.09016e-05
1.06159e-05
1.03253e-05
1.00317e-05
9.73604e-06
9.43946e-06
9.14273e-06
8.84665e-06
8.55205e-06
8.25985e-06
7.97109e-06
7.68693e-06
7.40868e-06
7.13775e-06
6.87568e-06
6.62405e-06
6.38446e-06
6.15851e-06
5.94766e-06
5.75327e-06
5.57645e-06
5.41808e-06
5.27876e-06
5.15877e-06
5.05812e-06
4.97653e-06
4.91345e-06
4.86812e-06
4.83952e-06
4.82642e-06
4.82782e-06
4.8426e-06
4.86949e-06
4.90725e-06
4.95464e-06
5.01036e-06
5.07319e-06
5.14197e-06
5.21555e-06
5.29285e-06
5.3728e-06
5.45441e-06
5.53654e-06
5.6188e-06
5.69956e-06
5.78428e-06
5.87696e-06
1.22652e-05
1.24434e-05
1.25592e-05
1.26051e-05
1.25885e-05
1.25192e-05
1.24067e-05
1.2261e-05
1.20895e-05
1.18981e-05
1.16914e-05
1.14726e-05
1.12441e-05
1.10079e-05
1.07653e-05
1.05174e-05
1.02652e-05
1.00095e-05
9.75107e-06
9.49084e-06
9.2297e-06
8.9686e-06
8.70865e-06
8.45101e-06
8.19696e-06
7.94787e-06
7.70516e-06
7.4703e-06
7.24475e-06
7.02996e-06
6.82727e-06
6.63792e-06
6.46299e-06
6.30338e-06
6.15978e-06
6.03266e-06
5.92226e-06
5.82855e-06
5.75111e-06
5.68928e-06
5.6428e-06
5.61109e-06
5.59342e-06
5.58896e-06
5.59677e-06
5.61583e-06
5.64511e-06
5.6836e-06
5.73032e-06
5.78431e-06
5.84481e-06
5.91101e-06
5.98309e-06
6.06026e-06
6.14903e-06
6.25324e-06
1.22935e-05
1.2517e-05
1.27024e-05
1.2836e-05
1.29167e-05
1.29483e-05
1.29359e-05
1.28864e-05
1.2806e-05
1.26999e-05
1.25727e-05
1.24279e-05
1.22684e-05
1.20961e-05
1.1913e-05
1.17205e-05
1.15196e-05
1.13112e-05
1.10964e-05
1.08758e-05
1.06503e-05
1.04208e-05
1.0188e-05
9.95279e-06
9.71629e-06
9.47953e-06
9.24363e-06
9.00981e-06
8.77934e-06
8.55352e-06
8.3337e-06
8.12118e-06
7.91727e-06
7.72319e-06
7.54008e-06
7.36899e-06
7.21084e-06
7.0664e-06
6.93598e-06
6.81924e-06
6.71676e-06
6.62884e-06
6.55548e-06
6.49658e-06
6.4519e-06
6.42102e-06
6.40345e-06
6.39865e-06
6.40606e-06
6.42518e-06
6.4557e-06
6.49738e-06
6.55107e-06
6.61689e-06
6.70214e-06
6.81041e-06
1.23158e-05
1.25686e-05
1.27993e-05
1.29932e-05
1.31455e-05
1.32555e-05
1.33248e-05
1.33575e-05
1.33578e-05
1.33297e-05
1.32771e-05
1.32033e-05
1.3111e-05
1.30025e-05
1.28797e-05
1.27441e-05
1.2597e-05
1.24394e-05
1.22724e-05
1.20968e-05
1.19133e-05
1.17227e-05
1.15258e-05
1.13232e-05
1.11158e-05
1.09046e-05
1.06903e-05
1.04739e-05
1.02565e-05
1.00391e-05
9.82283e-06
9.60891e-06
9.39852e-06
9.19286e-06
8.99317e-06
8.80062e-06
8.61641e-06
8.44182e-06
8.2772e-06
8.12272e-06
7.97943e-06
7.84824e-06
7.72976e-06
7.62452e-06
7.53307e-06
7.4557e-06
7.39261e-06
7.34396e-06
7.30989e-06
7.29057e-06
7.28638e-06
7.29782e-06
7.32654e-06
7.37352e-06
7.44664e-06
7.54934e-06
1.23342e-05
1.26073e-05
1.28678e-05
1.31027e-05
1.33061e-05
1.34746e-05
1.36079e-05
1.37074e-05
1.37753e-05
1.38146e-05
1.38283e-05
1.38189e-05
1.37888e-05
1.37402e-05
1.36749e-05
1.35944e-05
1.35e-05
1.3393e-05
1.32743e-05
1.31448e-05
1.30052e-05
1.28564e-05
1.2699e-05
1.25338e-05
1.23613e-05
1.21825e-05
1.19979e-05
1.18085e-05
1.16148e-05
1.14179e-05
1.12187e-05
1.10181e-05
1.08172e-05
1.0617e-05
1.04186e-05
1.02232e-05
1.0032e-05
9.8463e-06
9.66631e-06
9.49265e-06
9.32657e-06
9.16919e-06
9.02138e-06
8.88414e-06
8.75852e-06
8.64541e-06
8.54558e-06
8.45985e-06
8.38906e-06
8.33407e-06
8.296e-06
8.27614e-06
8.27688e-06
8.29998e-06
8.35361e-06
8.4414e-06
1.23495e-05
1.26369e-05
1.29178e-05
1.31807e-05
1.34196e-05
1.36307e-05
1.38122e-05
1.39637e-05
1.40863e-05
1.41817e-05
1.42515e-05
1.4298e-05
1.43228e-05
1.4328e-05
1.4315e-05
1.42854e-05
1.42403e-05
1.41809e-05
1.41083e-05
1.40233e-05
1.39268e-05
1.38194e-05
1.37019e-05
1.35751e-05
1.34394e-05
1.32956e-05
1.31443e-05
1.2986e-05
1.28216e-05
1.26518e-05
1.24772e-05
1.22987e-05
1.21171e-05
1.19334e-05
1.17483e-05
1.1563e-05
1.13788e-05
1.11963e-05
1.1016e-05
1.08387e-05
1.06655e-05
1.04978e-05
1.03362e-05
1.01821e-05
1.00368e-05
9.90134e-06
9.77696e-06
9.6649e-06
9.56648e-06
9.48311e-06
9.41651e-06
9.36855e-06
9.34218e-06
9.33974e-06
9.36942e-06
9.43537e-06
1.23617e-05
1.26595e-05
1.29541e-05
1.32358e-05
1.34993e-05
1.37406e-05
1.39572e-05
1.41482e-05
1.43134e-05
1.44534e-05
1.45694e-05
1.46625e-05
1.47342e-05
1.47858e-05
1.48187e-05
1.48341e-05
1.48333e-05
1.48171e-05
1.47868e-05
1.4743e-05
1.46866e-05
1.46183e-05
1.4539e-05
1.44492e-05
1.43495e-05
1.42405e-05
1.41228e-05
1.3997e-05
1.38638e-05
1.37235e-05
1.3577e-05
1.34249e-05
1.32679e-05
1.31066e-05
1.2942e-05
1.27749e-05
1.26063e-05
1.24365e-05
1.22662e-05
1.20964e-05
1.1928e-05
1.17619e-05
1.15991e-05
1.14409e-05
1.12885e-05
1.11431e-05
1.10062e-05
1.0879e-05
1.07631e-05
1.06604e-05
1.05727e-05
1.05023e-05
1.04525e-05
1.04258e-05
1.04302e-05
1.04706e-05
1.23707e-05
1.26755e-05
1.29791e-05
1.3273e-05
1.35528e-05
1.38148e-05
1.40564e-05
1.42763e-05
1.44735e-05
1.46481e-05
1.48005e-05
1.49313e-05
1.50415e-05
1.5132e-05
1.52038e-05
1.5258e-05
1.52955e-05
1.53174e-05
1.53244e-05
1.53174e-05
1.52973e-05
1.52646e-05
1.52202e-05
1.51646e-05
1.50985e-05
1.50224e-05
1.49369e-05
1.48425e-05
1.47398e-05
1.46292e-05
1.45115e-05
1.4387e-05
1.42563e-05
1.41203e-05
1.39794e-05
1.38345e-05
1.36861e-05
1.35346e-05
1.33808e-05
1.32254e-05
1.30692e-05
1.29131e-05
1.2758e-05
1.26048e-05
1.24549e-05
1.23094e-05
1.21695e-05
1.20367e-05
1.19126e-05
1.17989e-05
1.16977e-05
1.16113e-05
1.15429e-05
1.14951e-05
1.14753e-05
1.14896e-05
1.23767e-05
1.26852e-05
1.29937e-05
1.32948e-05
1.35847e-05
1.38599e-05
1.41183e-05
1.43582e-05
1.45787e-05
1.4779e-05
1.49591e-05
1.51193e-05
1.526e-05
1.5382e-05
1.54858e-05
1.55722e-05
1.56422e-05
1.56963e-05
1.57355e-05
1.57606e-05
1.57721e-05
1.57708e-05
1.57574e-05
1.57326e-05
1.56968e-05
1.56507e-05
1.55947e-05
1.55294e-05
1.54553e-05
1.53729e-05
1.52826e-05
1.51851e-05
1.50807e-05
1.49701e-05
1.48538e-05
1.47323e-05
1.4606e-05
1.44754e-05
1.43412e-05
1.4204e-05
1.40644e-05
1.39231e-05
1.37809e-05
1.36389e-05
1.34978e-05
1.33588e-05
1.32231e-05
1.30917e-05
1.29664e-05
1.28487e-05
1.27405e-05
1.26438e-05
1.25617e-05
1.24966e-05
1.24554e-05
1.2445e-05
1.23796e-05
1.26885e-05
1.29983e-05
1.33022e-05
1.35969e-05
1.38796e-05
1.4148e-05
1.44009e-05
1.46368e-05
1.4855e-05
1.50552e-05
1.52372e-05
1.54013e-05
1.55477e-05
1.56768e-05
1.57893e-05
1.58857e-05
1.59666e-05
1.60328e-05
1.60849e-05
1.61235e-05
1.61493e-05
1.61628e-05
1.61648e-05
1.61557e-05
1.61361e-05
1.61064e-05
1.60673e-05
1.60192e-05
1.59625e-05
1.58977e-05
1.58252e-05
1.57456e-05
1.56592e-05
1.55666e-05
1.5468e-05
1.53639e-05
1.52548e-05
1.51412e-05
1.50235e-05
1.49023e-05
1.47783e-05
1.4652e-05
1.45242e-05
1.43957e-05
1.42673e-05
1.414e-05
1.4015e-05
1.38934e-05
1.37765e-05
1.36662e-05
1.3564e-05
1.34727e-05
1.33943e-05
1.33349e-05
1.33026e-05
1.23792e-05
1.26854e-05
1.29929e-05
1.32958e-05
1.35909e-05
1.38758e-05
1.41486e-05
1.44079e-05
1.46528e-05
1.48822e-05
1.50956e-05
1.52927e-05
1.54734e-05
1.56379e-05
1.57861e-05
1.59187e-05
1.60359e-05
1.61382e-05
1.62262e-05
1.63006e-05
1.63617e-05
1.64101e-05
1.64465e-05
1.64714e-05
1.64853e-05
1.64887e-05
1.64821e-05
1.64661e-05
1.6441e-05
1.64072e-05
1.63652e-05
1.63154e-05
1.62584e-05
1.61943e-05
1.61235e-05
1.60465e-05
1.59636e-05
1.58752e-05
1.57817e-05
1.56835e-05
1.55811e-05
1.54749e-05
1.53654e-05
1.52533e-05
1.5139e-05
1.50234e-05
1.49072e-05
1.47911e-05
1.46762e-05
1.45636e-05
1.44546e-05
1.43505e-05
1.42535e-05
1.41653e-05
1.40914e-05
1.40407e-05
1.23755e-05
1.26757e-05
1.29775e-05
1.32753e-05
1.35666e-05
1.38491e-05
1.41213e-05
1.43818e-05
1.46297e-05
1.48642e-05
1.50847e-05
1.52906e-05
1.54819e-05
1.56583e-05
1.58199e-05
1.59669e-05
1.60997e-05
1.62184e-05
1.63235e-05
1.64154e-05
1.64946e-05
1.65617e-05
1.66169e-05
1.66611e-05
1.66944e-05
1.67174e-05
1.67306e-05
1.67345e-05
1.67293e-05
1.67157e-05
1.66938e-05
1.66643e-05
1.66273e-05
1.65832e-05
1.65324e-05
1.64751e-05
1.64117e-05
1.63426e-05
1.6268e-05
1.61884e-05
1.61039e-05
1.60151e-05
1.59224e-05
1.5826e-05
1.57265e-05
1.56244e-05
1.55202e-05
1.54146e-05
1.53082e-05
1.52018e-05
1.50963e-05
1.49929e-05
1.48931e-05
1.47982e-05
1.47133e-05
1.46478e-05
1.23686e-05
1.26595e-05
1.29518e-05
1.3241e-05
1.35243e-05
1.38e-05
1.40667e-05
1.43233e-05
1.45689e-05
1.4803e-05
1.50248e-05
1.52339e-05
1.543e-05
1.56128e-05
1.57824e-05
1.59387e-05
1.60818e-05
1.62121e-05
1.63297e-05
1.64348e-05
1.65281e-05
1.66098e-05
1.66803e-05
1.674e-05
1.67894e-05
1.68289e-05
1.68588e-05
1.68796e-05
1.68918e-05
1.68955e-05
1.68912e-05
1.68793e-05
1.68601e-05
1.68338e-05
1.68007e-05
1.67613e-05
1.67156e-05
1.6664e-05
1.66069e-05
1.65445e-05
1.64769e-05
1.64045e-05
1.63276e-05
1.62464e-05
1.61614e-05
1.60727e-05
1.59808e-05
1.58861e-05
1.5789e-05
1.56899e-05
1.55896e-05
1.54886e-05
1.53883e-05
1.52897e-05
1.5197e-05
1.51206e-05
1.23582e-05
1.26364e-05
1.29158e-05
1.31922e-05
1.34634e-05
1.3728e-05
1.39847e-05
1.42325e-05
1.44709e-05
1.46992e-05
1.4917e-05
1.51239e-05
1.53195e-05
1.55035e-05
1.56758e-05
1.58364e-05
1.59853e-05
1.61224e-05
1.62481e-05
1.63625e-05
1.64659e-05
1.65585e-05
1.66407e-05
1.67127e-05
1.67751e-05
1.6828e-05
1.68718e-05
1.6907e-05
1.69337e-05
1.69524e-05
1.69633e-05
1.69668e-05
1.69631e-05
1.69526e-05
1.69354e-05
1.69119e-05
1.68822e-05
1.68467e-05
1.68054e-05
1.67586e-05
1.67066e-05
1.66496e-05
1.65875e-05
1.65208e-05
1.64495e-05
1.63739e-05
1.62941e-05
1.62103e-05
1.61229e-05
1.60318e-05
1.59376e-05
1.58407e-05
1.57419e-05
1.56421e-05
1.55449e-05
1.54613e-05
1.23444e-05
1.26063e-05
1.28688e-05
1.31284e-05
1.33835e-05
1.36325e-05
1.38745e-05
1.41088e-05
1.43351e-05
1.45527e-05
1.47615e-05
1.49611e-05
1.51511e-05
1.53313e-05
1.55015e-05
1.56617e-05
1.58116e-05
1.59514e-05
1.60811e-05
1.62007e-05
1.63105e-05
1.64105e-05
1.65011e-05
1.65824e-05
1.66547e-05
1.67183e-05
1.67735e-05
1.68204e-05
1.68595e-05
1.68908e-05
1.69148e-05
1.69317e-05
1.69418e-05
1.69452e-05
1.69422e-05
1.6933e-05
1.69177e-05
1.68966e-05
1.68699e-05
1.68377e-05
1.68e-05
1.67571e-05
1.67091e-05
1.66559e-05
1.65978e-05
1.65347e-05
1.64668e-05
1.63939e-05
1.63163e-05
1.62339e-05
1.61468e-05
1.60553e-05
1.59599e-05
1.58614e-05
1.57634e-05
1.56764e-05
1.23268e-05
1.25685e-05
1.28103e-05
1.3049e-05
1.32833e-05
1.35122e-05
1.37351e-05
1.39513e-05
1.41607e-05
1.4363e-05
1.45579e-05
1.47453e-05
1.4925e-05
1.50967e-05
1.52602e-05
1.54154e-05
1.55622e-05
1.57004e-05
1.58301e-05
1.59511e-05
1.60637e-05
1.61679e-05
1.62637e-05
1.63513e-05
1.64308e-05
1.65026e-05
1.65666e-05
1.66231e-05
1.66722e-05
1.67143e-05
1.67496e-05
1.67782e-05
1.68003e-05
1.68161e-05
1.68259e-05
1.68295e-05
1.68275e-05
1.68197e-05
1.68064e-05
1.67876e-05
1.67634e-05
1.67339e-05
1.66991e-05
1.66589e-05
1.66135e-05
1.65627e-05
1.65065e-05
1.64447e-05
1.63773e-05
1.63043e-05
1.62254e-05
1.6141e-05
1.60512e-05
1.5957e-05
1.58616e-05
1.57756e-05
1.23053e-05
1.25226e-05
1.27391e-05
1.29524e-05
1.31615e-05
1.33658e-05
1.35649e-05
1.37585e-05
1.39465e-05
1.41289e-05
1.43055e-05
1.44763e-05
1.46412e-05
1.47999e-05
1.49525e-05
1.50985e-05
1.52381e-05
1.53708e-05
1.54967e-05
1.56157e-05
1.57278e-05
1.58328e-05
1.59308e-05
1.60219e-05
1.6106e-05
1.61834e-05
1.6254e-05
1.63179e-05
1.63753e-05
1.64265e-05
1.64713e-05
1.651e-05
1.65428e-05
1.65698e-05
1.6591e-05
1.66065e-05
1.66167e-05
1.66213e-05
1.66206e-05
1.66145e-05
1.66032e-05
1.65865e-05
1.65646e-05
1.65372e-05
1.65043e-05
1.64658e-05
1.64217e-05
1.63715e-05
1.63152e-05
1.62526e-05
1.61835e-05
1.61081e-05
1.60267e-05
1.59402e-05
1.58516e-05
1.57713e-05
1.22792e-05
1.24676e-05
1.26541e-05
1.28372e-05
1.30164e-05
1.31916e-05
1.33623e-05
1.35289e-05
1.36913e-05
1.38495e-05
1.40037e-05
1.4154e-05
1.43001e-05
1.44421e-05
1.45797e-05
1.47129e-05
1.48415e-05
1.49652e-05
1.50839e-05
1.51974e-05
1.53058e-05
1.54086e-05
1.5506e-05
1.55979e-05
1.56842e-05
1.57648e-05
1.58399e-05
1.59094e-05
1.59733e-05
1.60317e-05
1.60846e-05
1.61322e-05
1.61744e-05
1.62114e-05
1.62432e-05
1.62699e-05
1.62914e-05
1.63079e-05
1.63193e-05
1.63257e-05
1.63269e-05
1.63231e-05
1.63139e-05
1.62995e-05
1.62795e-05
1.6254e-05
1.62225e-05
1.61849e-05
1.6141e-05
1.60905e-05
1.60335e-05
1.59698e-05
1.59001e-05
1.58255e-05
1.57488e-05
1.56797e-05
1.22479e-05
1.24019e-05
1.25533e-05
1.27013e-05
1.2846e-05
1.29874e-05
1.31258e-05
1.32613e-05
1.33944e-05
1.3525e-05
1.36534e-05
1.37797e-05
1.39038e-05
1.40256e-05
1.41452e-05
1.42622e-05
1.43766e-05
1.44882e-05
1.45966e-05
1.47018e-05
1.48035e-05
1.49015e-05
1.49956e-05
1.50859e-05
1.51719e-05
1.52538e-05
1.53313e-05
1.54045e-05
1.54732e-05
1.55374e-05
1.55971e-05
1.56523e-05
1.5703e-05
1.57492e-05
1.57909e-05
1.5828e-05
1.58605e-05
1.58886e-05
1.5912e-05
1.59308e-05
1.59448e-05
1.5954e-05
1.59583e-05
1.59574e-05
1.59513e-05
1.59396e-05
1.59223e-05
1.5899e-05
1.58695e-05
1.58337e-05
1.57915e-05
1.57433e-05
1.56897e-05
1.5632e-05
1.55733e-05
1.55218e-05
1.22105e-05
1.2324e-05
1.24349e-05
1.25429e-05
1.26486e-05
1.27526e-05
1.28551e-05
1.29566e-05
1.30575e-05
1.31578e-05
1.32579e-05
1.33577e-05
1.34575e-05
1.35568e-05
1.36559e-05
1.37544e-05
1.38522e-05
1.39491e-05
1.40448e-05
1.41391e-05
1.42318e-05
1.43225e-05
1.44112e-05
1.44975e-05
1.45812e-05
1.46623e-05
1.47405e-05
1.48157e-05
1.48877e-05
1.49564e-05
1.50217e-05
1.50836e-05
1.51419e-05
1.51966e-05
1.52476e-05
1.52949e-05
1.53384e-05
1.5378e-05
1.54136e-05
1.54451e-05
1.54725e-05
1.54956e-05
1.55142e-05
1.55281e-05
1.55373e-05
1.55414e-05
1.55402e-05
1.55336e-05
1.55214e-05
1.55036e-05
1.54803e-05
1.5452e-05
1.54198e-05
1.53853e-05