/*--------------------------------*- C++ -*----------------------------------*\
  =========                 |
  \\      /  F ield         | OpenFOAM: The Open Source CFD Toolbox
   \\    /   O peration     | Website:  https://openfoam.org
    \\  /    A nd           | Version:  6
     \\/     M anipulation  |
\*---------------------------------------------------------------------------*/
FoamFile
{
    version     2.0;
    format      ascii;
    class       volScalarField;
    location    "0";
    object      p;
}
// * * * * * * * * * * * * * * * * * * * * * * * * * * * * * * * * * * * * * //

dimensions      [0 2 -2 0 0 0 0];

internalField   nonuniform List<scalar> 
11644
(
0.106112
0.107072
0.108899
0.111597
0.115185
0.119671
0.125054
0.131322
0.138445
0.146366
0.154992
0.164184
0.173745
0.183413
0.192859
0.201693
0.20949
0.215818
0.220289
0.222604
0.222605
0.220289
0.215819
0.209491
0.201694
0.192859
0.183414
0.173746
0.164185
0.154993
0.146366
0.138445
0.131322
0.125054
0.119671
0.115186
0.111598
0.1089
0.107073
0.106113
0.104933
0.105843
0.107635
0.110313
0.11389
0.118376
0.123777
0.130089
0.137295
0.14535
0.154178
0.163653
0.173591
0.18373
0.193732
0.203178
0.211592
0.218478
0.223373
0.22592
0.22592
0.223374
0.218478
0.211593
0.203178
0.193732
0.183731
0.173592
0.163654
0.154179
0.145351
0.137295
0.13009
0.123778
0.118377
0.113891
0.110314
0.107636
0.105844
0.104934
0.102152
0.103031
0.104787
0.107431
0.110984
0.115464
0.120893
0.127288
0.134656
0.142988
0.152241
0.162329
0.173094
0.184291
0.19556
0.206422
0.216289
0.224504
0.230427
0.233535
0.233535
0.230427
0.224504
0.216289
0.206422
0.195561
0.184292
0.173095
0.16233
0.152242
0.142989
0.134657
0.127288
0.120893
0.115465
0.110984
0.107432
0.104787
0.103032
0.102153
0.0976594
0.098508
0.100216
0.102802
0.106298
0.11074
0.116174
0.12265
0.130217
0.138919
0.148779
0.15978
0.171833
0.184735
0.19812
0.21142
0.223866
0.234506
0.242342
0.246511
0.246511
0.242343
0.234506
0.223866
0.211421
0.198121
0.184736
0.171834
0.159781
0.14878
0.13892
0.130218
0.122651
0.116175
0.110741
0.106299
0.102803
0.100216
0.0985087
0.0976601
0.091495
0.0922987
0.0939247
0.0964019
0.0997736
0.104099
0.109452
0.115925
0.123625
0.13267
0.143182
0.15527
0.168983
0.184229
0.200697
0.217721
0.234286
0.248997
0.260157
0.266204
0.266204
0.260158
0.248997
0.234287
0.217722
0.200698
0.18423
0.168984
0.155271
0.143183
0.13267
0.123626
0.115926
0.109453
0.104099
0.0997743
0.0964027
0.0939255
0.0922994
0.0914957
0.0837174
0.0844495
0.0859398
0.0882251
0.0913615
0.0954278
0.10053
0.106803
0.11442
0.123591
0.134574
0.147669
0.163185
0.181289
0.201887
0.224408
0.24724
0.268793
0.285694
0.295087
0.295087
0.285694
0.268794
0.247241
0.224409
0.201888
0.18129
0.163187
0.14767
0.134575
0.123592
0.114421
0.106804
0.10053
0.0954286
0.0913622
0.0882259
0.0859405
0.0844502
0.0837181
0.0743995
0.0750246
0.0763073
0.0782891
0.0810334
0.0846327
0.0892151
0.0949539
0.102079
0.110894
0.121801
0.135339
0.152253
0.173441
0.199041
0.229107
0.249208
0.28033
0.306344
0.323506
0.327407
0.316947
0.294972
0.266518
0.229108
0.199043
0.173443
0.152254
0.13534
0.121802
0.110895
0.10208
0.0949547
0.0892159
0.0846334
0.0810341
0.0782898
0.076308
0.0750253
0.0744002
0.0636698
0.0641468
0.0651374
0.0666812
0.0688394
0.071704
0.075407
0.080134
0.0861416
0.0937844
0.103574
0.116291
0.133002
0.154099
0.181735
0.215687
0.258479
0.304721
0.349303
0.380558
0.38753
0.367375
0.327913
0.281083
0.237383
0.198955
0.168449
0.133003
0.116292
0.103575
0.0937854
0.0861425
0.0801348
0.0754078
0.0717047
0.0688401
0.0666819
0.065138
0.0641474
0.0636704
0.0517388
0.0520259
0.0526368
0.0536007
0.0549627
0.0567934
0.0591981
0.062331
0.0664139
0.0717593
0.0788253
0.0883892
0.101783
0.12581
0.153625
0.193126
0.242428
0.309215
0.384115
0.446562
0.467882
0.435865
0.368452
0.294127
0.230298
0.171524
0.138916
0.101784
0.0883904
0.0788263
0.0717602
0.0664146
0.0623317
0.0591988
0.0567941
0.0549633
0.0536013
0.0526374
0.0520265
0.0517394
0.0389088
0.0389707
0.0391265
0.0393858
0.0397623
0.0402816
0.0409852
0.0419394
0.0432481
0.0450607
0.0475749
0.0511139
0.0564081
0.0783737
0.0973871
0.13331
0.186856
0.276297
0.402553
0.540266
0.5998
0.525139
0.384995
0.263404
0.172676
0.111015
0.0870154
0.0564093
0.0511148
0.0475758
0.0450614
0.0432487
0.04194
0.0409858
0.0402822
0.0397629
0.0393863
0.039127
0.0389713
0.0389093
0.0255697
0.0253863
0.0250416
0.0245187
0.0237885
0.0228123
0.0215374
0.0198933
0.0177883
0.0150961
0.0115887
0.00677216
-0.000166073
0.0125813
0.00885234
0.0243007
0.0491765
0.106102
0.271414
0.592566
0.818182
0.56931
0.263826
0.095506
0.0337784
0.00716483
0.0107443
-0.000165367
0.00677279
0.0115892
0.0150966
0.0177888
0.0198938
0.0215379
0.0228127
0.0237889
0.0245191
0.025042
0.0253867
0.0255701
0.0121793
0.0117524
0.0109079
0.00960011
0.00775403
0.00526157
0.00196766
-0.00234975
-0.00800455
-0.0154392
-0.0253372
-0.0389741
-0.0586951
-0.0610112
-0.0954096
-0.119663
-0.167326
-0.228005
-0.232803
-0.236639
-0.241308
-0.171637
-0.118833
-0.0766857
-0.0586952
-0.038974
-0.0253369
-0.015439
-0.00800425
-0.00234942
0.001968
0.00526193
0.00775439
0.00960048
0.0109082
0.0117528
0.0121797
-0.000775862
-0.00141912
-0.00271012
-0.00471814
-0.00755589
-0.0113874
-0.0164481
-0.0230745
-0.0317434
-0.0431237
-0.0581913
-0.0785566
-0.106855
-0.122918
-0.177292
-0.22984
-0.320321
-0.455134
-0.64988
-0.643932
-0.443564
-0.310058
-0.212195
-0.148
-0.106856
-0.078557
-0.0581914
-0.0431237
-0.0317433
-0.0230744
-0.0164479
-0.0113871
-0.00755562
-0.00471785
-0.00270982
-0.00141881
-0.000775551
-0.0128324
-0.0136429
-0.0152799
-0.0178258
-0.0214128
-0.0262321
-0.0325536
-0.0407538
-0.0513532
-0.0650631
-0.0828744
-0.106238
-0.137014
-0.15993
-0.214532
-0.267795
-0.340574
-0.418281
-0.473707
-0.471391
-0.409731
-0.328099
-0.246191
-0.185864
-0.137015
-0.106239
-0.0828748
-0.0650633
-0.0513533
-0.0407538
-0.0325534
-0.0262319
-0.0214126
-0.0178256
-0.0152797
-0.0136427
-0.0128322
-0.0236035
-0.0245191
-0.0263737
-0.0292508
-0.0332816
-0.038653
-0.0456226
-0.0545378
-0.0658587
-0.0801876
-0.0983163
-0.121271
-0.149979
-0.173608
-0.218079
-0.259894
-0.30627
-0.343971
-0.362726
-0.361868
-0.357995
-0.362898
-0.361452
-0.340357
-0.297071
-0.241355
-0.195437
-0.14998
-0.121272
-0.0983168
-0.0801879
-0.0658589
-0.0545378
-0.0456226
-0.0386529
-0.0332815
-0.0292507
-0.0263735
-0.0245189
-0.0236033
-0.0328178
-0.0337747
-0.0357154
-0.0387141
-0.0428854
-0.048389
-0.0554388
-0.0643107
-0.0753515
-0.0889875
-0.105734
-0.126114
-0.150245
-0.172354
-0.205224
-0.236428
-0.265075
-0.284437
-0.295374
-0.299026
-0.299349
-0.298614
-0.293417
-0.280322
-0.258918
-0.22104
-0.189237
-0.150245
-0.126114
-0.105734
-0.0889878
-0.0753517
-0.0643108
-0.0554388
-0.048389
-0.0428853
-0.0387141
-0.0357153
-0.0337746
-0.0328177
-0.0403341
-0.0412768
-0.0431891
-0.0461305
-0.0501909
-0.0554928
-0.0621953
-0.0704948
-0.0806231
-0.0928369
-0.107412
-0.124663
-0.144857
-0.166944
-0.184527
-0.206694
-0.225799
-0.238325
-0.245274
-0.248249
-0.24886
-0.247787
-0.243971
-0.235786
-0.215858
-0.196075
-0.166944
-0.144858
-0.124663
-0.107413
-0.0928371
-0.0806233
-0.0704949
-0.0621953
-0.0554928
-0.0501908
-0.0461305
-0.043189
-0.0412767
-0.0403341
-0.0461318
-0.0470179
-0.048815
-0.0515664
-0.0553357
-0.0602075
-0.0662872
-0.0736979
-0.0825724
-0.0930333
-0.105164
-0.118972
-0.134242
-0.149897
-0.165292
-0.179424
-0.192531
-0.20017
-0.204423
-0.206347
-0.206786
-0.206032
-0.203617
-0.198615
-0.185089
-0.172883
-0.149898
-0.134242
-0.118972
-0.105164
-0.0930334
-0.0825725
-0.073698
-0.0662872
-0.0602075
-0.0553357
-0.0515664
-0.048815
-0.0470178
-0.0461318
-0.0502856
-0.051087
-0.0527117
-0.0551876
-0.0585544
-0.0628633
-0.0681737
-0.0745481
-0.082042
-0.0906832
-0.100434
-0.111134
-0.122432
-0.133643
-0.145898
-0.155085
-0.164156
-0.168698
-0.171205
-0.172334
-0.172596
-0.172147
-0.170733
-0.167767
-0.158607
-0.150954
-0.133643
-0.122432
-0.111135
-0.100434
-0.0906833
-0.0820421
-0.0745481
-0.0681737
-0.0628633
-0.0585544
-0.0551876
-0.0527117
-0.051087
-0.0502856
-0.0529363
-0.0536379
-0.0550592
-0.0572157
-0.0601275
-0.0638193
-0.0683157
-0.0736354
-0.0797819
-0.086728
-0.0943847
-0.102543
-0.110798
-0.11863
-0.128091
-0.134026
-0.140321
-0.142878
-0.144236
-0.144809
-0.144938
-0.144718
-0.143989
-0.142351
-0.136159
-0.131429
-0.11863
-0.110798
-0.102543
-0.0943848
-0.0867281
-0.079782
-0.0736354
-0.0683157
-0.0638193
-0.0601276
-0.0572157
-0.0550592
-0.0536379
-0.0529363
-0.0542637
-0.0548606
-0.0560691
-0.0578948
-0.0603437
-0.0634211
-0.0671278
-0.0714537
-0.0763693
-0.0818135
-0.087677
-0.0937537
-0.0995845
-0.104285
-0.112479
-0.116176
-0.119868
-0.121443
-0.122058
-0.122339
-0.122509
-0.122591
-0.122434
-0.121725
-0.116158
-0.114949
-0.104285
-0.0995844
-0.0937537
-0.087677
-0.0818136
-0.0763693
-0.0714537
-0.0671278
-0.0634212
-0.0603437
-0.0578948
-0.0560691
-0.0548606
-0.0542637
-0.0544641
-0.0549591
-0.0559604
-0.0574671
-0.0594753
-0.0619779
-0.0649603
-0.0683957
-0.0722368
-0.0764055
-0.0807787
-0.0851672
-0.0892834
-0.0927996
-0.0956153
-0.100954
-0.101715
-0.101977
-0.101939
-0.101888
-0.101945
-0.102098
-0.102225
-0.102114
-0.101495
-0.0956151
-0.0927994
-0.0892834
-0.0851672
-0.0807787
-0.0764055
-0.0722368
-0.0683957
-0.0649603
-0.0619779
-0.0594753
-0.0574671
-0.0559604
-0.0549591
-0.0544641
-0.0537334
-0.054134
-0.0549438
-0.0561577
-0.057766
-0.0597542
-0.0620998
-0.0647681
-0.067706
-0.0708338
-0.074035
-0.0771447
-0.0799379
-0.0821585
-0.0837561
-0.0847631
-0.0846138
-0.0839883
-0.0833819
-0.0830283
-0.0830283
-0.0833817
-0.0839881
-0.0846135
-0.0847628
-0.0837559
-0.0821583
-0.0799378
-0.0771447
-0.0740349
-0.0708338
-0.067706
-0.0647681
-0.0620998
-0.0597542
-0.057766
-0.0561577
-0.0549439
-0.054134
-0.0537334
-0.052256
-0.0525725
-0.0532119
-0.0541668
-0.0554249
-0.0569685
-0.0587721
-0.0607993
-0.0629982
-0.0652956
-0.0675887
-0.0697384
-0.0715675
-0.0728943
-0.0736597
-0.0737884
-0.0733841
-0.0728111
-0.0723183
-0.0720429
-0.0720429
-0.0723181
-0.0728109
-0.0733838
-0.0737882
-0.0736595
-0.0728941
-0.0715674
-0.0697383
-0.0675887
-0.0652956
-0.0629983
-0.0607993
-0.0587721
-0.0569686
-0.0554249
-0.0541668
-0.0532119
-0.0525725
-0.052256
-0.0501981
-0.0504417
-0.0509338
-0.0516664
-0.0526263
-0.0537955
-0.0551488
-0.0566518
-0.0582576
-0.0599021
-0.0614983
-0.0629328
-0.0640689
-0.0647748
-0.0649945
-0.0647175
-0.0640978
-0.0633729
-0.062756
-0.0624055
-0.0624055
-0.0627558
-0.0633727
-0.0640976
-0.0647173
-0.0649944
-0.0647747
-0.0640688
-0.0629328
-0.0614983
-0.0599021
-0.0582576
-0.0566518
-0.0551488
-0.0537956
-0.0526264
-0.0516664
-0.0509339
-0.0504418
-0.0501982
-0.047705
-0.0478869
-0.0482547
-0.0488005
-0.049512
-0.0503721
-0.0513582
-0.0524397
-0.0535763
-0.0547139
-0.0557804
-0.0566837
-0.0573166
-0.0575798
-0.0574292
-0.0568827
-0.0560654
-0.0551814
-0.0544458
-0.0540309
-0.0540309
-0.0544457
-0.0551813
-0.0560653
-0.0568825
-0.0574291
-0.0575797
-0.0573166
-0.0566838
-0.0557805
-0.0547139
-0.0535764
-0.0524398
-0.0513582
-0.0503722
-0.049512
-0.0488005
-0.0482547
-0.0478869
-0.047705
-0.0449004
-0.0450309
-0.0452956
-0.0456875
-0.0461955
-0.0468048
-0.0474958
-0.0482429
-0.0490126
-0.0497604
-0.0504271
-0.0509374
-0.0512045
-0.0511497
-0.0507372
-0.0499938
-0.0490347
-0.0480484
-0.047243
-0.0467919
-0.0467919
-0.047243
-0.0480484
-0.0490347
-0.0499937
-0.0507372
-0.0511498
-0.0512046
-0.0509375
-0.0504272
-0.0497604
-0.0490126
-0.0482429
-0.0474958
-0.0468048
-0.0461956
-0.0456876
-0.0452957
-0.045031
-0.0449004
-0.0418877
-0.0419762
-0.0421568
-0.0424237
-0.0427673
-0.0431755
-0.0436321
-0.0441165
-0.0446019
-0.0450522
-0.0454192
-0.0456406
-0.0456445
-0.0453649
-0.0447712
-0.043892
-0.0428359
-0.0417793
-0.0409247
-0.0404469
-0.0404469
-0.0409247
-0.0417793
-0.0428359
-0.0438921
-0.0447713
-0.045365
-0.0456446
-0.0456407
-0.0454193
-0.0450523
-0.044602
-0.0441166
-0.0436321
-0.0431755
-0.0427674
-0.0424237
-0.0421569
-0.0419762
-0.0418878
-0.0387522
-0.0388067
-0.0389197
-0.0390862
-0.0392985
-0.039547
-0.0398192
-0.040099
-0.0403654
-0.04059
-0.0407334
-0.0407435
-0.0405589
-0.040122
-0.0394042
-0.0384317
-0.0373057
-0.0361948
-0.0352994
-0.0347989
-0.0347989
-0.0352995
-0.0361948
-0.0373058
-0.0384318
-0.0394043
-0.0401222
-0.0405591
-0.0407437
-0.0407335
-0.0405901
-0.0403655
-0.0400991
-0.0398193
-0.0395471
-0.0392986
-0.0390862
-0.0389197
-0.0388068
-0.0387523
-0.0355632
-0.0355907
-0.0356498
-0.0357365
-0.0358449
-0.0359676
-0.0360955
-0.0362168
-0.0363155
-0.0363694
-0.0363463
-0.0362019
-0.035882
-0.035334
-0.0345293
-0.0334906
-0.0323123
-0.0311581
-0.0302292
-0.0297095
-0.0297096
-0.0302292
-0.0311582
-0.0323124
-0.0334907
-0.0345295
-0.0353342
-0.0358822
-0.0362021
-0.0363464
-0.0363695
-0.0363156
-0.0362169
-0.0360956
-0.0359677
-0.0358449
-0.0357365
-0.0356498
-0.0355908
-0.0355632
-0.0323766
-0.032383
-0.0323996
-0.0324233
-0.0324499
-0.0324742
-0.03249
-0.032489
-0.0324597
-0.0323849
-0.0322378
-0.0319799
-0.0315616
-0.0309332
-0.0300655
-0.0289773
-0.0277584
-0.0265695
-0.025613
-0.0250777
-0.0250778
-0.0256131
-0.0265696
-0.0277585
-0.0289775
-0.0300657
-0.0309334
-0.0315618
-0.03198
-0.032238
-0.032385
-0.0324598
-0.0324891
-0.0324901
-0.0324743
-0.0324499
-0.0324234
-0.0323996
-0.032383
-0.0323766
-0.0292372
-0.0292274
-0.0292108
-0.0291852
-0.0291478
-0.0290955
-0.0290246
-0.0289299
-0.0288035
-0.0286318
-0.0283922
-0.0280499
-0.0275584
-0.0268695
-0.0259531
-0.0248256
-0.0235735
-0.0223563
-0.0213778
-0.02083
-0.02083
-0.0213778
-0.0223564
-0.0235737
-0.0248258
-0.0259533
-0.0268697
-0.0275586
-0.0280501
-0.0283924
-0.0286319
-0.0288036
-0.02893
-0.0290247
-0.0290956
-0.0291478
-0.0291852
-0.0292109
-0.0292274
-0.0292372
-0.0261811
-0.026159
-0.0261167
-0.0260526
-0.0259655
-0.0258542
-0.0257169
-0.025551
-0.0253512
-0.0251067
-0.0247976
-0.0243913
-0.0238432
-0.0231058
-0.0221491
-0.0209884
-0.0197086
-0.0184686
-0.0174732
-0.0169162
-0.0169163
-0.0174733
-0.0184687
-0.0197087
-0.0209886
-0.0221493
-0.023106
-0.0238433
-0.0243914
-0.0247978
-0.0251069
-0.0253513
-0.0255511
-0.025717
-0.0258543
-0.0259656
-0.0260527
-0.0261167
-0.026159
-0.0261811
-0.0232371
-0.0232058
-0.0231437
-0.0230502
-0.0229251
-0.0227688
-0.0225813
-0.0223619
-0.0221071
-0.0218079
-0.0214457
-0.0209893
-0.020395
-0.0196165
-0.0186245
-0.0174348
-0.0161323
-0.0148755
-0.013869
-0.0133065
-0.0133066
-0.0138691
-0.0148757
-0.0161324
-0.0174349
-0.0186247
-0.0196167
-0.0203952
-0.0209894
-0.0214459
-0.021808
-0.0221072
-0.022362
-0.0225814
-0.0227688
-0.0229251
-0.0230502
-0.0231438
-0.0232058
-0.0232372
-0.0204289
-0.0203905
-0.0203136
-0.0201979
-0.0200444
-0.0198548
-0.0196302
-0.0193714
-0.0190758
-0.0187352
-0.0183318
-0.0178345
-0.017201
-0.0163862
-0.0153628
-0.0141486
-0.0128292
-0.0115627
-0.0105516
-0.00998757
-0.0099876
-0.0105517
-0.0115628
-0.0128294
-0.0141487
-0.015363
-0.0163863
-0.0172011
-0.0178347
-0.0183319
-0.0187353
-0.0190758
-0.0193714
-0.0196303
-0.0198548
-0.0200445
-0.0201979
-0.0203136
-0.0203906
-0.0204289
-0.0177756
-0.017732
-0.0176442
-0.0175125
-0.0173388
-0.0171255
-0.0168747
-0.0165876
-0.0162623
-0.0158906
-0.0154546
-0.0149235
-0.0142559
-0.0134091
-0.012359
-0.011126
-0.00979717
-0.008529
-0.00752052
-0.00695916
-0.00695918
-0.00752059
-0.00852911
-0.0097973
-0.0111262
-0.0123591
-0.0134092
-0.014256
-0.0149236
-0.0154547
-0.0158907
-0.0162624
-0.0165877
-0.0168747
-0.0171255
-0.0173389
-0.0175125
-0.0176442
-0.0177321
-0.0177757
-0.0152935
-0.015246
-0.0151508
-0.0150085
-0.0148216
-0.0145929
-0.0143249
-0.0140189
-0.0136729
-0.0132783
-0.0128167
-0.0122577
-0.0115614
-0.010688
-0.00961739
-0.00837332
-0.00704386
-0.00578313
-0.00478491
-0.00423065
-0.00423067
-0.00478497
-0.00578322
-0.00704396
-0.00837344
-0.00961751
-0.0106881
-0.0115615
-0.0122578
-0.0128168
-0.0132784
-0.013673
-0.014019
-0.0143249
-0.0145929
-0.0148217
-0.0150085
-0.0151508
-0.015246
-0.0152935
-0.0129959
-0.012946
-0.0128464
-0.0126984
-0.0125045
-0.0122677
-0.0119903
-0.0116736
-0.0113147
-0.0109045
-0.0104241
-0.00984351
-0.00912486
-0.00823205
-0.00714919
-0.00590354
-0.00458367
-0.0033402
-0.00236009
-0.00181732
-0.00181734
-0.00236014
-0.00334027
-0.00458376
-0.00590364
-0.00714929
-0.00823214
-0.00912495
-0.00984358
-0.0104241
-0.0109046
-0.0113148
-0.0116736
-0.0119904
-0.0122677
-0.0125045
-0.0126984
-0.0128464
-0.012946
-0.0129959
-0.0108947
-0.0108433
-0.0107423
-0.010593
-0.0103978
-0.0101593
-0.00987986
-0.00955975
-0.00919546
-0.00877688
-0.00828481
-0.00769017
-0.00695733
-0.00605417
-0.0049693
-0.00373315
-0.00243408
-0.00121805
-0.000263907
0.000263072
0.000263058
-0.000263947
-0.00121811
-0.00243415
-0.00373323
-0.00496938
-0.00605425
-0.0069574
-0.00769023
-0.00828486
-0.00877691
-0.00919549
-0.00955977
-0.00987987
-0.0101593
-0.0103978
-0.010593
-0.0107423
-0.0108433
-0.0108946
-0.00899934
-0.00894793
-0.00884816
-0.00870154
-0.00851012
-0.00827616
-0.00800126
-0.00768491
-0.00732261
-0.0069034
-0.0064079
-0.00580806
-0.0050709
-0.00416832
-0.00309328
-0.00187885
-0.000612359
0.000565921
0.0014864
0.00199347
0.00199346
0.00148637
0.00056587
-0.000612422
-0.00187892
-0.00309334
-0.00416838
-0.00507095
-0.0058081
-0.00640794
-0.00690342
-0.00732262
-0.00768492
-0.00800126
-0.00827616
-0.00851011
-0.00870153
-0.00884814
-0.00894792
-0.00899932
-0.00731775
-0.00726754
-0.00717158
-0.00703138
-0.00684854
-0.00662474
-0.00636082
-0.00605532
-0.00570268
-0.00529121
-0.00480149
-0.00420666
-0.00347651
-0.00258685
-0.00153458
-0.000354773
0.000867158
0.00199757
0.00287702
0.00336028
0.00336027
0.002877
0.00199753
0.000867106
-0.000354828
-0.00153463
-0.0025869
-0.00347655
-0.0042067
-0.00480151
-0.00529122
-0.00570269
-0.00605532
-0.00636081
-0.00662473
-0.00684852
-0.00703136
-0.00717156
-0.00726751
-0.00731772
-0.00585531
-0.00580756
-0.00571781
-0.00558747
-0.00541763
-0.00520936
-0.00496265
-0.00467505
-0.00434003
-0.00394521
-0.0034713
-0.00289272
-0.00218193
-0.00131839
-0.00030237
0.000829805
0.00199547
0.00306841
0.00390004
0.00435598
0.00435597
0.00390002
0.00306838
0.00199542
0.00082976
-0.000302413
-0.00131843
-0.00218196
-0.00289275
-0.00347131
-0.00394522
-0.00434002
-0.00467504
-0.00496263
-0.00520934
-0.00541761
-0.00558744
-0.00571778
-0.00580753
-0.00585528
-0.00461453
-0.00457046
-0.00448913
-0.00437179
-0.00421905
-0.00403133
-0.00380781
-0.00354508
-0.00323571
-0.00286679
-0.00241917
-0.00186859
-0.00118995
-0.000365939
0.000600468
0.0016725
0.002771
0.00377789
0.00455578
0.00498139
0.00498139
0.00455576
0.00377786
0.00277097
0.00167246
0.000600432
-0.00036597
-0.00118998
-0.00186861
-0.00241918
-0.00286679
-0.00323571
-0.00354507
-0.00380779
-0.00403131
-0.00421902
-0.00437176
-0.00448909
-0.00457043
-0.0046145
-0.00359438
-0.00355512
-0.00348418
-0.00338267
-0.00325074
-0.0030882
-0.00289346
-0.00266228
-0.00238642
-0.0020525
-0.00164161
-0.00113066
-0.000496712
0.000274889
0.00117918
0.00217976
0.0032017
0.00413541
0.00485491
0.00524792
0.00524792
0.00485489
0.00413538
0.00320166
0.00217973
0.00117915
0.000274863
-0.000496732
-0.00113067
-0.00164162
-0.0020525
-0.00238641
-0.00266227
-0.00289344
-0.00308817
-0.00325071
-0.00338264
-0.00348415
-0.00355509
-0.00359435
-0.0027897
-0.00275625
-0.00269743
-0.00261419
-0.00250628
-0.00237299
-0.00221205
-0.00201847
-0.00178334
-0.00149291
-0.00112846
-0.000667922
-9.01316e-05
0.000617529
0.00144889
0.00236865
0.00330668
0.00416208
0.0048201
0.0051791
0.0051791
0.00482008
0.00416206
0.00330665
0.00236862
0.00144886
0.000617506
-9.01489e-05
-0.000667932
-0.00112847
-0.00149291
-0.00178333
-0.00201846
-0.00221203
-0.00237296
-0.00250625
-0.00261416
-0.0026974
-0.00275622
-0.00278966
-0.00219081
-0.00216403
-0.00211873
-0.00205571
-0.00197441
-0.00187366
-0.00175063
-0.00159971
-0.00141141
-0.00117166
-0.000861908
-0.000460872
5.12515e-05
0.000685672
0.00143574
0.00226796
0.00311731
0.00389157
0.00448675
0.00481127
0.00481127
0.00448674
0.00389155
0.00311728
0.00226793
0.00143572
0.00068565
5.12339e-05
-0.000460883
-0.000861913
-0.00117166
-0.0014114
-0.0015997
-0.00175061
-0.00187363
-0.00197438
-0.00205568
-0.0021187
-0.002164
-0.00219077
-0.0017834
-0.00176396
-0.00173318
-0.00169173
-0.0016388
-0.00157286
-0.00149064
-0.00138597
-0.0012489
-0.00106507
-0.00081604
-0.000481089
-4.13581e-05
0.000513531
0.00117709
0.0019181
0.00267688
0.00336957
0.00390229
0.00419278
0.00419278
0.00390228
0.00336955
0.00267685
0.00191807
0.00117706
0.000513506
-4.13783e-05
-0.000481104
-0.000816048
-0.00106507
-0.00124889
-0.00138596
-0.00149063
-0.00157284
-0.00163877
-0.0016917
-0.00173315
-0.00176393
-0.00178337
-0.00154878
-0.00153709
-0.00152135
-0.00150208
-0.0014783
-0.0014482
-0.0014081
-0.0013514
-0.00126776
-0.00114256
-0.000957399
-0.000691927
-0.000327888
0.000144723
0.000720053
0.00136948
0.00203863
0.00265159
0.00312382
0.00338152
0.00338152
0.0031238
0.00265157
0.00203861
0.00136945
0.000720022
0.000144695
-0.000327912
-0.000691947
-0.000957412
-0.00114257
-0.00126776
-0.0013514
-0.00140808
-0.00144818
-0.00147828
-0.00150205
-0.00152132
-0.00153707
-0.00154875
-0.00146447
-0.00146069
-0.00145994
-0.00146262
-0.00146763
-0.00147292
-0.00147447
-0.00146533
-0.00143477
-0.00136799
-0.00124657
-0.00105041
-0.000761646
-0.000370339
0.000118567
0.000679176
0.00126223
0.00179922
0.00221416
0.00244094
0.00244093
0.00221415
0.0017992
0.0012622
0.000679143
0.000118533
-0.000370372
-0.000761676
-0.00105044
-0.00124659
-0.00136801
-0.00143478
-0.00146533
-0.00147447
-0.00147291
-0.00146762
-0.0014626
-0.00145992
-0.00146067
-0.00146445
-0.00150521
-0.00150918
-0.00152279
-0.00154631
-0.00157855
-0.00161726
-0.00165812
-0.00169384
-0.00171342
-0.00170185
-0.00164073
-0.00151022
-0.00129271
-0.000978257
-0.000570801
-9.35775e-05
0.000408989
0.00087524
0.001237
0.00143512
0.00143511
0.00123698
0.000875215
0.000408958
-9.36134e-05
-0.000570839
-0.000978294
-0.00129275
-0.00151025
-0.00164075
-0.00170187
-0.00171343
-0.00169385
-0.00165812
-0.00161726
-0.00157854
-0.00154629
-0.00152277
-0.00150916
-0.0015052
-0.0016442
-0.00165541
-0.00168216
-0.00172456
-0.00178136
-0.00185008
-0.00192613
-0.00200194
-0.00206626
-0.00210398
-0.00209681
-0.0020252
-0.00187191
-0.001627
-0.00129353
-0.000892246
-0.0004631
-6.1429e-05
0.000251769
0.000423723
0.000423718
0.000251753
-6.14543e-05
-0.000463133
-0.000892284
-0.00129357
-0.00162704
-0.00187195
-0.00202523
-0.00209684
-0.002104
-0.00206628
-0.00200195
-0.00192614
-0.00185008
-0.00178135
-0.00172456
-0.00168216
-0.00165541
-0.00164419
-0.00185444
-0.00187213
-0.00191028
-0.00196887
-0.00204655
-0.00214066
-0.00224634
-0.00235575
-0.00245749
-0.00253647
-0.00257464
-0.00255293
-0.00245463
-0.00227
-0.00200141
-0.0016674
-0.00130379
-0.000960087
-0.000690628
-0.000542286
-0.000542292
-0.000690643
-0.000960112
-0.00130383
-0.00166744
-0.00200145
-0.00227004
-0.00245467
-0.00255297
-0.00257467
-0.0025365
-0.00245752
-0.00235577
-0.00224636
-0.00214067
-0.00204656
-0.00196887
-0.00191028
-0.00187212
-0.00185444
-0.00211018
-0.0021333
-0.00218073
-0.00225226
-0.00234649
-0.00246051
-0.00258923
-0.00272462
-0.00285521
-0.00296609
-0.00303965
-0.00305756
-0.00300385
-0.00286927
-0.00265574
-0.00237986
-0.0020737
-0.0017813
-0.0015508
-0.00142357
-0.00142358
-0.00155082
-0.00178132
-0.00207373
-0.0023799
-0.00265578
-0.00286932
-0.0030039
-0.0030576
-0.00303969
-0.00296612
-0.00285524
-0.00272464
-0.00258925
-0.00246052
-0.0023465
-0.00225227
-0.00218073
-0.0021333
-0.00211018
-0.00238804
-0.00241539
-0.00246973
-0.00255067
-0.00265671
-0.00278473
-0.00292944
-0.00308268
-0.00323308
-0.00336606
-0.00346471
-0.00351166
-0.003492
-0.0033972
-0.00322898
-0.00300229
-0.00274571
-0.00249821
-0.00230212
-0.00219362
-0.00219362
-0.00230213
-0.00249824
-0.00274574
-0.00300232
-0.00322901
-0.00339724
-0.00349205
-0.0035117
-0.00346475
-0.00336609
-0.00323311
-0.00308271
-0.00292946
-0.00278475
-0.00265672
-0.00255068
-0.00246974
-0.0024154
-0.00238805
-0.00266797
-0.00269827
-0.00275708
-0.00284383
-0.00295691
-0.00309304
-0.00324675
-0.00340989
-0.00357129
-0.00371693
-0.00383084
-0.00389686
-0.00390138
-0.0038368
-0.00370487
-0.00351908
-0.0033048
-0.00309626
-0.00293031
-0.00283831
-0.00283831
-0.00293032
-0.00309628
-0.00330483
-0.00351911
-0.0037049
-0.00383684
-0.00390142
-0.0038969
-0.00383088
-0.00371697
-0.00357132
-0.00340992
-0.00324678
-0.00309306
-0.00295693
-0.00284384
-0.00275709
-0.00269828
-0.00266798
-0.00293378
-0.00296575
-0.00302668
-0.00311582
-0.00323148
-0.00337021
-0.00352648
-0.00369222
-0.00385668
-0.00400657
-0.00412706
-0.00420342
-0.00422352
-0.00418084
-0.00407729
-0.00392507
-0.00374657
-0.00357158
-0.00343187
-0.00335431
-0.00335432
-0.00343188
-0.00357159
-0.00374659
-0.00392509
-0.00407732
-0.00418088
-0.00422356
-0.00420345
-0.00412709
-0.0040066
-0.00385671
-0.00369225
-0.0035265
-0.00337023
-0.0032315
-0.00311584
-0.00302669
-0.00296577
-0.00293379
-0.00317333
-0.00320579
-0.0032667
-0.00335519
-0.00346947
-0.003606
-0.00375926
-0.00392143
-0.00408227
-0.00422944
-0.00434939
-0.00442898
-0.00445766
-0.00443005
-0.00434827
-0.00422336
-0.00407493
-0.00392866
-0.00381166
-0.00374666
-0.00374666
-0.00381166
-0.00392867
-0.00407494
-0.00422338
-0.00434829
-0.00443007
-0.00445769
-0.00442901
-0.00434942
-0.00422947
-0.0040823
-0.00392146
-0.00375929
-0.00360602
-0.00346949
-0.00335521
-0.00326672
-0.00320581
-0.00317334
-0.00337838
-0.00341031
-0.0034694
-0.00355469
-0.00366433
-0.00379475
-0.00394056
-0.00409426
-0.00424631
-0.00438542
-0.00449945
-0.00457691
-0.00460883
-0.00459098
-0.00452568
-0.00442288
-0.00429962
-0.00417781
-0.00408031
-0.00402616
-0.00402616
-0.00408032
-0.00417782
-0.00429963
-0.00442289
-0.0045257
-0.00459099
-0.00460885
-0.00457693
-0.00449948
-0.00438544
-0.00424633
-0.00409428
-0.00394058
-0.00379477
-0.00366434
-0.00355471
-0.00346942
-0.00341032
-0.00337839
-0.00354425
-0.00357479
-0.00363064
-0.00371075
-0.00381326
-0.00393465
-0.00406972
-0.00421144
-0.00435106
-0.00447841
-0.00458284
-0.00465446
-0.00468586
-0.00467386
-0.00462096
-0.00453603
-0.00443377
-0.00433268
-0.00425183
-0.00420696
-0.00420696
-0.00425183
-0.00433268
-0.00443377
-0.00453604
-0.00462097
-0.00467387
-0.00468588
-0.00465448
-0.00458286
-0.00447843
-0.00435108
-0.00421146
-0.00406973
-0.00393467
-0.00381327
-0.00371077
-0.00363065
-0.00357481
-0.00354426
-0.00366921
-0.00369772
-0.00374929
-0.00382283
-0.00391649
-0.00402688
-0.00414908
-0.00427662
-0.00440157
-0.00451498
-0.00460761
-0.00467116
-0.00469963
-0.00469076
-0.00464716
-0.0045767
-0.00449191
-0.00440828
-0.00434153
-0.00430453
-0.00430453
-0.00434153
-0.00440828
-0.00449191
-0.0045767
-0.00464717
-0.00469077
-0.00469963
-0.00467117
-0.00460762
-0.00451499
-0.00440159
-0.00427663
-0.00414909
-0.00402689
-0.0039165
-0.00382284
-0.0037493
-0.00369773
-0.00366922
-0.00375386
-0.00377992
-0.00382654
-0.00389267
-0.00397649
-0.00407479
-0.00418301
-0.00429529
-0.00440458
-0.00450309
-0.00458299
-0.0046374
-0.00466159
-0.00465409
-0.00461752
-0.00455879
-0.0044885
-0.00441948
-0.00436458
-0.00433421
-0.00433421
-0.00436457
-0.00441948
-0.00448849
-0.00455878
-0.00461752
-0.00465409
-0.00466159
-0.0046374
-0.00458299
-0.0045031
-0.00440459
-0.00429529
-0.00418302
-0.0040748
-0.00397649
-0.00389267
-0.00382655
-0.00377992
-0.00375387
-0.00380056
-0.0038239
-0.00386526
-0.00392359
-0.00399719
-0.00408306
-0.00417706
-0.00427393
-0.00436754
-0.0044512
-0.00451836
-0.00456344
-0.0045828
-0.0045756
-0.0045444
-0.0044952
-0.0044369
-0.00438003
-0.004335
-0.00431015
-0.00431015
-0.00433499
-0.00438003
-0.00443689
-0.00449519
-0.00454439
-0.0045756
-0.0045828
-0.00456344
-0.00451836
-0.0044512
-0.00436754
-0.00427393
-0.00417706
-0.00408307
-0.0039972
-0.00392359
-0.00386526
-0.0038239
-0.00380056
-0.00381275
-0.00383329
-0.00386934
-0.00391991
-0.00398341
-0.00405711
-0.00413727
-0.00421932
-0.00429793
-0.00436748
-0.00442257
-0.00445875
-0.00447327
-0.00446579
-0.00443874
-0.0043973
-0.00434887
-0.00430203
-0.00426514
-0.00424485
-0.00424485
-0.00426514
-0.00430202
-0.00434886
-0.00439729
-0.00443873
-0.00446578
-0.00447326
-0.00445874
-0.00442257
-0.00436748
-0.00429793
-0.00421932
-0.00413727
-0.0040571
-0.00398341
-0.00391991
-0.00386934
-0.00383329
-0.00381275
-0.00379455
-0.00381233
-0.00384324
-0.00388637
-0.00394027
-0.00400248
-0.00406972
-0.00413799
-0.00420279
-0.00425943
-0.00430353
-0.00433158
-0.0043416
-0.00433358
-0.00430979
-0.00427467
-0.00423432
-0.00419569
-0.00416546
-0.0041489
-0.0041489
-0.00416546
-0.00419568
-0.00423431
-0.00427466
-0.00430978
-0.00433357
-0.00434159
-0.00433157
-0.00430352
-0.00425943
-0.00420278
-0.00413798
-0.00406971
-0.00400248
-0.00394027
-0.00388637
-0.00384323
-0.00381232
-0.00379455
-0.00375033
-0.00376547
-0.00379158
-0.00382782
-0.00387288
-0.00392458
-0.00398006
-0.00403593
-0.00408838
-0.00413358
-0.00416798
-0.0041889
-0.00419492
-0.0041863
-0.00416511
-0.00413511
-0.00410133
-0.00406937
-0.00404454
-0.00403098
-0.00403098
-0.00404453
-0.00406936
-0.00410132
-0.0041351
-0.0041651
-0.00418629
-0.00419491
-0.00418888
-0.00416797
-0.00413356
-0.00408837
-0.00403592
-0.00398006
-0.00392457
-0.00387287
-0.00382781
-0.00379157
-0.00376546
-0.00375032
-0.00368437
-0.00369709
-0.00371883
-0.00374885
-0.00378599
-0.00382833
-0.00387343
-0.00391841
-0.00396011
-0.0039954
-0.00402148
-0.00403631
-0.00403893
-0.00402976
-0.00401065
-0.00398479
-0.0039563
-0.0039297
-0.00390919
-0.00389805
-0.00389805
-0.00390919
-0.00392969
-0.00395629
-0.00398478
-0.00401063
-0.00402974
-0.00403892
-0.0040363
-0.00402147
-0.00399538
-0.00396009
-0.00391839
-0.00387342
-0.00382832
-0.00378598
-0.00374884
-0.00371882
-0.00369708
-0.00368436
-0.00360074
-0.00361128
-0.00362916
-0.00365371
-0.00368391
-0.00371812
-0.00375425
-0.00378988
-0.00382243
-0.00384936
-0.00386847
-0.00387823
-0.00387804
-0.00386839
-0.00385096
-0.00382843
-0.00380417
-0.00378183
-0.00376475
-0.00375552
-0.00375552
-0.00376475
-0.00378182
-0.00380416
-0.00382841
-0.00385094
-0.00386837
-0.00387802
-0.00387822
-0.00386845
-0.00384934
-0.00382241
-0.00378987
-0.00375424
-0.00371811
-0.0036839
-0.0036537