/*--------------------------------*- C++ -*----------------------------------*\
  =========                 |
  \\      /  F ield         | OpenFOAM: The Open Source CFD Toolbox
   \\    /   O peration     | Website:  https://openfoam.org
    \\  /    A nd           | Version:  6
     \\/     M anipulation  |
\*---------------------------------------------------------------------------*/
FoamFile
{
    version     2.0;
    format      ascii;
    class       volScalarField;
    location    "0";
    object      p;
}
// * * * * * * * * * * * * * * * * * * * * * * * * * * * * * * * * * * * * * //

dimensions      [0 2 -2 0 0 0 0];

internalField   nonuniform List<scalar> 
918
(
0.184452
0.955244
0.00622369
0.183753
0.000948094
0.924058
-0.855499
0.370148
0.162486
-0.151416
0.019079
0.156298
0.77529
0.539743
-1.52998
0.015429
0.323379
-0.697035
0.161643
0.00533787
0.442556
0.16896
0.172221
0.164359
0.217168
0.515702
0.647858
0.00136466
-0.00382676
-0.00151432
0.00349551
0.000764517
0.00546028
0.797131
0.843421
0.862101
0.134268
-0.0344119
-0.721674
-0.792218
-0.770394
-0.877065
0.358183
0.360039
-0.531303
0.370366
0.382324
0.150667
0.16171
0.16247
0.16417
0.162927
0.164193
0.283712
-0.187341
-0.261953
-0.0855054
-0.0636984
0.073493
0.0188273
0.0101983
0.0228121
0.0241863
0.0925491
0.151498
0.147349
0.162289
0.171602
0.880729
0.852735
0.875487
0.800449
0.817722
0.749514
0.721621
0.560901
0.584336
0.524871
0.512219
-1.99988
-2.97271
-0.936087
-0.652656
0.00179857
0.0210294
0.0249784
0.308985
0.311139
0.318016
0.330415
0.793512
-0.675465
-0.777275
0.160439
0.159529
0.167756
0.169467
0.165797
0.165372
0.0134684
0.0229938
0.000240215
0.00611428
0.00609658
0.417049
0.414758
0.163898
0.161276
0.179739
0.202665
0.193513
-0.0715714
0.231991
0.251006
0.342645
0.506419
0.501995
0.510979
0.622152
0.590649
0.679169
0.703849
0.00604979
0.00167065
0.0108221
0.00824329
0.0100171
0.129115
0.123485
0.141908
0.135468
0.136555
-0.123095
-0.263234
0.0353698
0.0582371
-0.646951
-0.699665
-0.751012
-0.800171
-0.861985
0.146423
0.346784
0.351118
-0.543374
-0.466534
-0.604842
-0.404507
-0.470425
0.139501
0.148028
0.144082
0.1581
0.152655
0.154357
0.165499
0.162793
0.164352
0.30697
0.374259
0.241061
0.216365
-0.497012
-0.333915
-0.4535
-0.0336902
-0.0268311
0.085357
0.0961452
0.0638169
0.0618032
0.00255841
0.0121555
0.00709323
0.0240372
0.0268644
0.0869514
0.0758072
0.10003
0.10688
0.143483
0.143023
0.145538
0.146645
0.669391
0.692691
0.70074
0.677032
-3.97169
-6.67805
-0.295183
-0.130371
0.00216846
0.00318004
0.00135284
0.00353119
0.00380651
0.00121228
0.0390648
0.0387558
0.0291169
0.0351084
0.296057
0.299045
0.76617
0.77951
0.73014
0.68539
0.149029
0.151238
0.157055
0.1534
0.0270227
0.0250568
0.0284674
0.381633
0.39868
0.397021
-0.106811
-0.195409
-0.0230259
0.00450687
0.287583
0.265965
0.29068
0.407119
0.448595
0.717167
0.741271
0.729
0.744968
0.793057
0.812982
0.777885
0.112272
0.121625
0.116624
0.148395
0.145318
0.146226
0.143307
0.143136
0.141675
-0.393453
-0.761458
0.120634
0.115802
0.0880155
0.094797
0.221844
0.297668
0.325704
0.336399
0.335776
-0.353074
-0.405686
0.180121
0.166264
0.0295328
0.0614986
0.0452969
0.645962
0.60794
0.655467
0.63098
0.594206
0.617329
-0.692693
-2.47023
-1.4208
0.279903
0.0732568
0.171182
0.0542521
0.0424546
0.0473979
0.736426
0.732294
0.426846
0.567845
0.533016
0.477172
0.503648
0.565338
0.495512
0.530728
0.564318
0.539206
0.111503
0.128421
0.107283
0.371359
0.439261
-0.22933
-0.292847
-0.330762
0.105991
0.139842
0.125476
0.663999
0.520576
0.615789
0.162044
0.161711
0.0115754
0.0204119
0.16436
0.164468
0.00667839
0.00828106
0.174565
-1.30366
-0.213644
0.155088
0.145608
0.160402
-0.152498
0.293777
0.0175011
0.0800105
0.0573077
0.152202
0.10187
0.0647682
0.00758176
0.0199074
0.0165044
-0.473425
0.159216
0.156838
0.159906
0.1611
0.161866
0.00922943
0.010851
0.0071863
0.0134272
0.0112348
0.0104759
0.130449
0.141153
-0.504012
0.160118
0.162133
0.161818
0.156629
0.160598
0.158706
0.0149579
0.0105342
0.00965171
-0.124853
0.00164586
0.392082
0.496963
0.320364
0.138914
-0.150888
0.311686
0.373233
0.28242
0.436667
0.327666
0.346649
-0.161621
-0.303399
-0.150377
-0.212114
0.152396
0.150851
0.142906
0.139804
0.155223
0.153189
0.157963
0.155877
0.158589
0.159564
-0.0876057
-0.0669084
-0.207101
-0.283465
0.318735
0.404726
0.194894
0.230819
0.132141
0.0220582
0.021453
0.0166882
0.0158777
0.0503293
0.0609422
0.0741938
0.0619849
0.0475234
0.04565
0.0516823
0.0580486
0.0627771
0.147361
0.146097
0.150514
0.158595
0.109942
0.112465
0.0834069
0.100494
0.0916102
0.0371229
0.0654205
0.0430485
0.00827471
0.00893319
0.00741015
0.0239853
0.0265113
0.0152218
0.0128808
0.0136805
0.0110292
0.0117336
0.0200505
0.0224408
-0.516258
-0.590629
0.679483
0.624488
-0.608651
0.14898
0.15275
0.150745
0.155053
0.157775
0.158103
0.156341
0.154022
0.142316
0.144768
0.139475
0.140678
-0.458017
-0.596283
-0.408139
-0.483182
-0.210888
0.271073
0.0102302
-0.0443441
-0.0532686
0.159731
0.352377
0.307388
0.431763
0.424946
-0.746728
-0.317122
-0.664453
-0.115205
-0.14739
0.412215
0.458437
0.477251
0.431699
0.381958
-0.394689
0.155984
-0.388066
-0.364816
-0.195051
-0.265379
0.373447
0.31027
0.31863
0.334561
0.361025
0.317857
0.305019
0.300728
0.32867
0.335368
0.139093
-0.0815518
-0.12637
-0.166131
0.293631
0.17798
0.230286
0.142941
0.146457
0.149704
0.149199
0.135498
0.137407
0.13446
0.140018
0.142803
0.150506
0.151144
0.147003
0.14856
-0.0385847
-0.0207297
-0.183476
-0.429461
-0.305553
-0.395822
-0.286759
-0.0475797
0.0229339
-0.315521
0.0865713
-0.237811
-0.53174
-0.390981
-0.627095
-0.230648
-0.403415
0.0863759
0.1444
0.15392
0.137143
0.193647
0.176213
0.0353911
0.0427218
0.0269736
0.0261678
0.0825779
0.103377
0.103833
0.04465
0.0487068
0.0239368
0.0246589
0.0581369
0.0372854
0.0468149
0.0566071
0.0197565
0.0232909
0.0276536
0.0345369
0.0370518
0.0382785
0.140885
0.14364
0.140998
0.154889
0.163512
0.177035
0.151416
0.128264
0.117971
0.122602
0.101743
0.106647
0.107525
0.11584
0.132842
0.139167
0.137972
0.13917
0.126289
0.127621
0.113399
0.118206
0.10124
0.0840945
0.0730372
0.0175919
0.0115219
0.0152126
0.0147314
0.0104999
0.0120688
0.0409072
0.0315046
0.0348041
0.0305925
0.0377176
0.0174212
0.0184866
-0.629476
-0.69794
-0.561494
-0.592023
-0.628445
0.579915
0.634822
0.528275
0.263406
0.247093
0.47771
0.665235
0.380525
0.467378
0.485719
0.0960809
0.370322
0.153221
0.152895
0.150248
0.149807
0.15082
-0.375709
-0.277048
-0.257514
-0.215308
-0.0938705
0.00911767
0.015288
-0.183166
-0.0429914
0.0209329
0.269582
0.282064
0.225836
0.247636
0.245674
0.079499
0.157014
0.196805
0.156491
0.205596
0.232455
0.187781
0.22047
0.161984
0.123804
0.12122
0.0647494
0.0940561
0.0760252
0.0538194
0.142304
0.12372
0.132593
0.124407
0.142759
0.175016
0.168841
0.188186
0.205711
0.132396
0.0886419
0.102917
0.130723
0.0874239
0.100589
0.11754
-0.199166
-0.281134
-0.183131
-0.499748
-0.361372
-0.341334
-0.37746
-0.447263
-0.149132
-0.787277
-0.711262
-1.38959
0.0915497
0.499492
0.332962
0.344244
0.358482
0.334145
0.338112
0.364372
0.374564
0.285043
0.302323
0.305108
0.258506
0.291352
0.305585
0.307786
0.120685
0.0523401
0.0342675
-0.0056607
-0.142844
-0.114482
0.0712861
0.0116243
-0.0590849
-0.0580983
0.11426
0.00523151
0.0674075
0.106319
0.0553379
-0.00631758
0.199139
0.256999
0.246117
0.215087
0.131597
0.150139
0.16735
0.203864
0.234032
0.268083
0.140217
0.144091
0.146253
0.144103
0.139505
0.14307
0.143889
0.144854
0.145544
0.14771
0.146562
0.0140538
0.0144255
-0.00228048
0.00888242
-0.0325486
-0.0610601
-0.0104956
-0.0731696
0.0245861
0.0189661
-0.0179403
-0.0170891
-0.00537931
0.00617096
0.0993132
0.108976
0.090384
0.0521981
-0.0275538
0.256904
0.23821
0.111572
0.0176177
0.106788
0.216843
0.0676411
0.0757222
0.0676919
0.0826371
0.077914
0.0322614
0.0276342
0.0321939
0.0416267
0.0367103
0.0289527
0.0233461
0.0248867
0.0274055
0.0269463
0.0273166
0.12714
0.121206
0.124583
0.118351
0.117407
0.130166
0.13354
0.134242
0.138547
0.140523
0.132742
0.136754
0.140056
0.0274568
0.0217296
0.0235706
0.0232567
0.0225694
0.0199153
0.0206458
-0.324983
-0.703026
-0.705104
-0.537316
-0.559949
-0.551583
0.14176
0.0500736
0.117228
0.240542
0.134528
0.034336
0.0861003
0.188619
-0.131056
0.0636247
-0.101828
0.480328
0.33661
0.478474
0.118164
-0.13886
-0.00910804
0.0174138
-0.140531
-0.051139
-0.0321772
-0.15717
-0.125215
-0.0966792
-0.0189917
-0.12658
-0.161304
-0.358773
-0.158584
-0.0939317
-0.109157
0.0202703
0.0735906
-0.0549467
-0.185785
-0.241783
0.252439
0.272834
0.287627
0.260757
0.280687
0.210907
0.200274
0.218878
0.228511
0.223296
-1.0384
-0.653155
-1.81459
-1.22279
-0.763996
0.118928
0.095632
0.34758
0.262819
0.338895
0.326504
0.275017
0.240102
0.253861
0.289251
-0.00401454
0.100577
0.0624262
0.0855035
0.0171264
-0.0566314
0.215985
0.22191
0.24749
0.274805
0.248914
0.277862
0.136726
0.136866
0.13893
0.136987
0.132269
0.134239
0.0659316
0.0526132
0.0417558
0.0297037
0.0290762
0.0336583
0.0313404
0.0290357
0.0252385
0.0251367
0.0285
0.0332136
-0.189902
-0.307553
-0.443968
-0.368511
-0.382513
-0.490373
-0.483246
-0.402494
-0.273374
-0.29542
-0.110144
0.232911
0.019813
0.227738
-0.185599
0.0575185
0.121291
0.0825499
0.11361
0.0167442
0.119095
-0.361693
-0.56278
-0.597011
0.412287
0.36994
0.161475
-0.0978947
-0.199724
0.097978
0.153306
0.118309
0.155176
0.206695
0.201118
-0.396695
-0.326083
-0.222037
0.0673663
-0.165448
-0.16956
-0.181939
-0.0161566
-0.0567678
)
;

boundaryField
{
    wall-4
    {
        type            zeroGradient;
    }
    velocity-inlet-5
    {
        type            zeroGradient;
    }
    velocity-inlet-6
    {
        type            zeroGradient;
    }
    pressure-outlet-7
    {
        type            fixedValue;
        value           uniform 0;
    }
    wall-8
    {
        type            zeroGradient;
    }
    frontAndBackPlanes
    {
        type            empty;
    }
}

