/*--------------------------------*- C++ -*----------------------------------*\
  =========                 |
  \\      /  F ield         | OpenFOAM: The Open Source CFD Toolbox
   \\    /   O peration     | Website:  https://openfoam.org
    \\  /    A nd           | Version:  6
     \\/     M anipulation  |
\*---------------------------------------------------------------------------*/
FoamFile
{
    version     2.0;
    format      ascii;
    class       volVectorField;
    location    "0";
    object      U;
}
// * * * * * * * * * * * * * * * * * * * * * * * * * * * * * * * * * * * * * //

dimensions      [0 1 -1 0 0 0 0];

internalField   nonuniform List<vector> 
918
(
(0.985896 0.00367407 0)
(-0.00397387 2.96738 0)
(-0.00103347 1.6699 0)
(0.980939 -0.00217706 0)
(-0.00631848 1.64244 -9.57656e-22)
(0.00136356 2.95103 -1.34206e-18)
(0.86307 1.1318 5.13393e-19)
(0.514857 0.246258 -5.06959e-21)
(0.999895 -0.000216785 0)
(0.0712145 1.42056 0)
(-0.012861 1.47518 0)
(0.856593 -0.00489184 0)
(0.00876777 2.93497 0)
(0.00317108 2.79737 0)
(-0.00313722 3.19867 8.09963e-19)
(-0.00391053 1.56276 -1.11407e-20)
(0.610862 0.110273 3.085e-19)
(0.270028 1.51117 3.50729e-19)
(0.967434 0.00978805 0)
(0.00619002 1.54945 0)
(0.234781 0.285438 -2.85412e-19)
(1.00134 -0.00501342 0)
(1.00123 -0.00863852 0)
(0.976656 -0.00533198 0)
(0.778759 -0.0180195 0)
(0.0313356 2.63392 0)
(-0.0107251 2.91542 4.44403e-19)
(-0.00568034 1.69127 0)
(-0.0112358 1.76903 0)
(-0.0124388 1.6902 0)
(0.00108404 1.80121 0)
(0.00377285 1.65608 7.49789e-22)
(-0.0044597 1.57201 0)
(-0.0197484 2.98958 -4.68666e-23)
(-0.0137579 3.00794 1.05648e-18)
(0.00161391 2.99973 0)
(0.894494 -0.00616401 0)
(0.35263 0.914285 -1.08605e-20)
(0.834322 1.16943 -7.6451e-19)
(0.980327 1.00537 7.04058e-19)
(0.696327 1.26538 -1.15622e-19)
(0.717706 1.2384 6.4514e-19)
(0.556534 0.308374 4.94432e-21)
(0.550172 0.20828 0)
(1.20727 0.557726 0)
(0.503328 0.330029 2.2755e-20)
(0.479035 0.248424 -2.36186e-20)
(0.922833 -0.00166774 0)
(1.00039 0.000384002 0)
(0.999975 0.000326644 0)
(1.00433 -0.00707414 0)
(1.00046 -0.000347045 0)
(1.00011 -4.22234e-05 0)
(0.0393612 1.57924 -3.9414e-19)
(0.0371144 1.57201 0)
(0.117643 1.46498 0)
(0.0246853 1.58567 0)
(0.0367195 1.42854 0)
(-6.97928e-05 1.61125 0)
(-0.0190032 1.58726 0)
(-0.0143424 1.45624 0)
(-0.0179349 1.6167 0)
(-0.0124908 1.49757 0)
(0.926137 0.00687494 0)
(0.919388 0.0032632 0)
(0.865563 -0.00280136 0)
(0.914788 0.00922499 0)
(0.837046 0.00374667 0)
(0.0136747 3.00359 4.83045e-19)
(0.0114646 3.00434 0)
(0.00738009 3.00384 0)
(0.0106366 2.9981 5.38246e-24)
(0.0060639 2.96206 -7.26844e-19)
(0.0118315 2.98482 0)
(0.00871811 2.90891 0)
(0.0217024 2.93265 9.62953e-25)
(0.00396334 2.82824 0)
(0.0283921 2.91939 0)
(-0.000596914 2.7459 0)
(0.307899 3.59626 0)
(-0.126451 3.68049 0)
(0.146713 3.2888 -7.50566e-19)
(0.00679938 3.02307 0)
(0.0122027 1.76565 0)
(-0.00227667 1.6563 1.09887e-20)
(-0.00175159 1.56329 -2.04046e-20)
(0.68265 0.155645 -1.05558e-19)
(0.633461 0.0550447 -1.00424e-19)
(0.645107 0.19542 -3.16813e-19)
(0.607536 0.132249 -2.12357e-19)
(0.255111 1.25973 0)
(0.213962 1.52509 -3.81183e-19)
(0.392482 1.39884 6.27796e-19)
(0.98965 0.0109002 0)
(0.949699 0.010934 0)
(0.999829 0.000865635 0)
(1.00355 0.00793153 0)
(1.00303 0.0108037 -4.63077e-19)
(0.992824 0.00614708 3.55023e-19)
(-0.00119669 1.64798 0)
(0.00634278 1.55778 0)
(-0.0126674 1.70302 0)
(-0.00742757 1.66095 0)
(0.00520041 1.55661 0)
(0.269078 0.31142 8.69252e-20)
(0.321417 0.283627 0)
(0.993031 -0.0056952 0)
(0.958215 -0.00175171 0)
(0.885661 0.0306129 0)
(0.852595 0.0323661 0)
(0.808185 0.0102233 0)
(1.04556 0.00896145 0)
(0.813987 0.0164026 0)
(0.711658 -0.0346475 3.86288e-19)
(-0.0332916 2.86896 2.37372e-19)
(0.0360114 2.91284 0)
(0.0468003 2.88896 0)
(0.0042308 2.69937 0)
(-0.00783213 2.98763 4.11624e-19)
(-0.0130233 2.89915 0)
(-0.00981161 2.99247 -1.29678e-18)
(-0.0095288 2.93245 4.46613e-19)
(-0.00571198 1.80566 0)
(-0.00244798 1.79923 0)
(0.002198 1.6645 -2.63238e-22)
(0.00305119 1.65421 0)
(-0.00306007 1.56105 0)
(0.947447 0.00115704 0)
(0.894325 0.00554307 0)
(0.87886 -0.00505393 0)
(0.948767 -0.00326827 0)
(0.894622 -0.00224891 0)
(0.496976 1.09458 5.82793e-21)
(0.534456 1.16453 0)
(0.287779 0.845327 5.20689e-21)
(0.235634 0.715599 0)
(0.946947 1.05002 -2.06879e-19)
(1.082 0.855089 4.24893e-19)
(0.350208 1.41974 0)
(0.548022 1.3369 0)
(0.588253 1.28454 0)
(0.164049 -0.0454864 -5.94926e-20)
(0.58663 0.290629 0)
(0.580059 0.203068 6.2418e-20)
(1.04621 0.910246 0)
(1.125 0.752946 0)
(1.15594 0.696596 -3.74758e-19)
(1.20105 0.603605 0)
(1.25401 0.414253 3.55376e-20)
(0.953916 -0.000768319 0)
(0.95866 -0.00524198 0)
(0.909578 -0.00362868 0)
(0.987131 -0.00374739 0)
(0.975273 -0.00194514 0)
(0.944983 -0.00132666 0)
(1.00013 0.00249208 0)
(1.00036 0.00104495 0)
(1.00005 0.000568998 0)
(0.0290561 1.64863 2.15084e-19)
(0.0764722 1.54086 0)
(0.00538588 1.68379 3.44735e-19)
(0.0134909 1.58203 -2.95725e-19)
(0.0681495 1.56682 -2.88825e-19)
(0.0551822 1.60238 0)
(0.145026 1.4847 0)
(0.00425582 1.57242 0)
(0.0201274 1.39985 0)
(-5.82039e-05 1.68682 -8.54659e-22)
(0.0108476 1.60801 0)
(-0.0099443 1.69213 -4.41752e-20)
(-0.0110872 1.59615 8.40688e-20)
(-0.00130727 1.56692 0)
(-0.0211316 1.57404 0)
(-0.00427347 1.41849 0)
(-0.0147991 1.63589 0)
(-0.00814216 1.51717 0)
(0.986247 0.0180721 0)
(0.945007 0.00952954 0)
(0.971082 0.00988168 0)
(0.917542 0.00444423 0)
(0.873477 -0.00557736 0)
(0.938093 0.00496276 0)
(0.931604 0.0092723 0)
(0.86967 0.0049869 0)
(0.00862827 3.06451 -4.09054e-21)
(0.0142062 3.05706 0)
(0.0125241 2.97225 0)
(0.00778677 2.88049 0)
(0.896764 3.99528 0)
(1.19677 3.36699 7.51622e-19)
(0.0794554 3.10478 0)
(-0.0147582 2.92979 0)
(-0.00303305 1.79541 0)
(0.00635194 1.76982 0)
(0.00628246 1.77366 0)
(0.00379575 1.78472 1.8152e-21)
(0.0116256 1.76848 0)
(0.0105501 1.77593 0)
(-0.0012862 1.5688 3.57493e-21)
(-0.00295185 1.67381 2.49513e-20)
(-0.00107679 1.66539 2.08316e-20)
(-0.0043837 1.56705 0)
(0.696235 0.123499 1.51406e-19)
(0.665238 0.0509067 -1.47236e-19)
(0.223006 1.33325 0)
(0.318395 1.08527 -1.81848e-19)
(0.150457 1.45139 -5.29128e-19)
(0.190794 1.36627 5.29057e-19)
(0.908724 0.0139429 0)
(0.972626 0.0189677 0)
(0.978954 0.0124242 0)
(0.934767 0.0154275 0)
(-0.0131942 1.64411 0)
(-0.00115439 1.65024 0)
(0.00155532 1.53743 0)
(0.462017 0.350689 2.07601e-19)
(0.400491 0.322576 -2.54931e-19)
(0.401145 0.253277 0)
(1.16589 0.0871781 -8.34334e-21)
(1.15307 0.0353988 0)
(1.0757 0.0407473 0)
(0.990326 -0.00256626 0)
(0.726977 0.100782 0)
(0.765677 0.0472251 -6.28274e-19)
(0.686816 0.0326851 2.46839e-19)
(0.0114785 2.98179 2.9891e-19)
(-0.0282372 2.86802 3.11343e-20)
(0.00734152 3.04994 -8.83178e-21)
(0.0151305 3.04159 3.3794e-19)
(-0.00976152 2.99992 1.48985e-20)
(-0.0088206 2.95389 -6.10184e-23)
(-0.0150286 3.01288 -2.86342e-19)
(0.012196 3.02423 2.01674e-19)
(0.00611115 3.03143 -3.22699e-19)
(0.967313 0.00764793 0)
(0.96037 0.00750847 0)
(0.903921 0.00637108 0)
(0.95832 0.0156367 0)
(0.944054 0.00993579 0)
(0.880318 0.0122769 0)
(0.939806 -0.00375473 0)
(0.935631 -0.00429502 0)
(0.873762 -0.0112686 0)
(0.675297 1.39372 2.01637e-19)
(0.692611 1.50895 0)
(0.189597 0.126183 -6.7472e-21)
(0.11814 0.417497 3.14585e-20)
(0.166553 0.620334 -6.25832e-20)
(0.222927 0.484805 1.36088e-19)
(0.426421 0.609765 4.58372e-19)
(0.203595 0.129225 2.02614e-19)
(0.64152 0.220836 2.31333e-19)
(0.618165 0.258389 5.64303e-20)
(0.597311 0.15897 1.19461e-19)
(1.24084 0.460567 2.49464e-19)
(1.26717 0.251334 2.62196e-19)
(-0.0130866 1.68138 1.38498e-19)
(-0.000253692 1.57124 0)
(1.02793 0.0217673 0)
(1.0045 0.0137398 0)
(0.960535 -0.00485997 0)
(0.0114699 3.07223 0)
(0.0173793 2.94527 5.64723e-19)
(0.0143122 2.95848 0)
(0.00599686 2.85329 -5.61899e-19)
(0.00690175 3.08787 1.32734e-19)
(0.0101816 3.07998 0)
(0.706987 1.8038 -1.67534e-19)
(1.24015 2.59616 5.54598e-19)
(0.688987 1.97605 -1.12461e-18)
(0.0232938 2.98621 -2.20031e-19)
(0.0420439 3.01325 0)
(-0.0305559 2.88905 0)
(-0.0105108 1.67158 -5.89115e-21)
(-0.00120141 1.6734 -5.90696e-20)
(-0.00231958 1.57897 -3.89146e-21)
(0.26964 1.22087 5.71493e-19)
(0.343749 0.932058 -3.86652e-19)
(0.0495683 1.6026 3.60437e-19)
(0.0846759 1.54198 -4.39335e-19)
(0.125616 1.45309 5.29265e-20)
(0.00516172 3.11839 -7.69088e-19)
(0.0142299 3.11845 8.65984e-19)
(-0.00414287 2.98223 3.61483e-19)
(-0.000757817 2.97852 -3.22548e-19)
(-0.0146722 2.88247 -3.6828e-19)
(0.0117954 3.09745 -9.72854e-19)
(0.00536815 3.10189 9.84621e-19)
(0.359631 0.492464 0)
(0.165703 0.416479 2.59638e-19)
(0.133127 -0.15137 -1.02094e-19)
(0.435721 0.795148 5.77053e-19)
(0.348894 0.463518 -8.7421e-19)
(1.24586 0.173902 -6.05755e-20)
(1.26246 0.310684 0)
(1.24235 0.122545 1.07225e-19)
(0.00760303 1.67697 -1.11838e-21)
(-0.00473714 1.66713 0)
(0.00789249 1.57947 0)
(0.302695 1.07742 -2.03639e-19)
(0.362945 0.953345 -4.49277e-19)
(0.347864 0.732248 7.84141e-19)
(1.00301 -0.00784219 0)
(1.00552 -0.00702695 8.44612e-20)
(-0.00437654 1.8015 0)
(-0.00803257 1.80625 0)
(1.00231 0.00256914 8.33202e-22)
(1.00328 0.00855474 1.7261e-19)
(0.00379868 1.78597 -2.35349e-21)
(0.00182613 1.78607 0)
(0.0480935 3.18428 9.37045e-20)
(0.385396 3.55387 0)
(1.08027 0.678891 6.63428e-20)
(1.00912 0.00661704 -1.47659e-21)
(1.00507 -0.0189676 0)
(1.00067 0.00024733 2.01759e-22)
(-0.00649558 1.77281 0)
(0.0341255 1.81715 0)
(-0.0273556 1.78967 0)
(0.0166856 1.79475 6.31011e-20)
(-0.00930703 1.79941 2.83537e-20)
(1.00442 0.00828416 1.424e-21)
(1.04526 0.0154268 0)
(1.07603 0.024582 0)
(-0.00165644 1.77625 0)
(-0.00237139 1.7919 0)
(-0.00463505 1.79495 0)
(-0.00657797 1.61166 -2.50836e-19)
(1.01201 -0.0102925 0)
(1.01261 -0.0172418 0)
(1.00452 -0.000581925 1.06528e-19)
(1.00407 -0.00500502 -1.28364e-19)
(1.00138 -0.00208926 0)
(-0.00848941 1.78523 0)
(-0.00353633 1.79748 0)
(-0.00505955 1.79213 0)
(-0.00502209 1.79763 0)
(-0.00606069 1.79537 0)
(-0.00613776 1.79746 0)
(1.02106 0.0125441 0)
(1.02355 0.00347036 -5.26861e-22)
(0.724137 1.24846 3.75171e-19)
(1.00184 -0.000807891 -1.05671e-19)
(1.00262 0.00320951 1.29912e-19)
(1.00105 0.00165745 0)
(1.0086 0.0075996 1.02247e-19)
(1.00786 0.00834677 -1.27915e-19)
(1.00773 0.00662183 0)
(-0.000681478 1.79182 0)
(0.00379757 1.7862 1.03025e-20)
(0.00473655 1.78687 -7.98897e-21)
(1.16761 0.265917 -1.51163e-19)
(1.10888 0.0815456 0)
(0.0644475 3.08556 -3.63568e-19)
(0.0553985 2.86299 -2.84471e-20)
(0.1282 3.20626 4.55546e-19)
(0.135218 3.22288 -2.47842e-20)
(0.145543 3.26714 0)
(0.025571 3.13787 8.54187e-20)
(0.0758998 3.16254 3.57058e-19)
(0.0729786 3.18642 -1.64519e-19)
(0.0318459 3.12451 0)
(0.705892 0.358309 0)
(0.607288 0.400868 0)
(1.07898 0.721723 -2.31502e-19)
(1.02344 0.864933 3.35768e-19)
(1.10604 0.579613 0)
(1.13437 0.551612 0)
(1.00995 0.00706246 -1.95672e-19)
(1.00761 0.00906394 2.41005e-19)
(1.00652 -0.0181159 0)
(1.00745 -0.0155015 0)
(1.01413 -0.00672514 0)
(1.01506 0.00205278 0)
(1.0042 0.0033741 0)
(1.00884 0.00782617 0)
(1.0071 0.00438537 0)
(1.00442 0.00479956 0)
(-0.00460091 1.78142 0)
(-0.0132461 1.79285 0)
(-0.0106663 1.77132 0)
(-0.0363951 1.75251 0)
(0.0342088 1.82395 0)
(0.0566462 1.82766 -2.26945e-19)
(0.0155575 1.82563 0)
(0.00327162 1.81189 1.09362e-19)
(0.00661734 1.80553 -1.14424e-19)
(-0.0264302 1.79289 0)
(-0.0184861 1.7944 0)
(-0.0244395 1.79262 0)
(-0.0209062 1.79652 0)
(-0.00448064 1.79802 -3.41791e-20)
(-0.0113419 1.79906 4.09053e-20)
(0.00259064 1.80145 5.23591e-20)
(-0.0113771 1.79622 0)
(-0.00496657 1.80294 -6.51157e-20)
(-0.00360951 1.80091 -3.82259e-20)
(-0.0044384 1.79986 2.83882e-20)
(-0.00877334 1.79705 -5.35521e-20)
(-0.00881589 1.79922 -6.29823e-20)
(1.0105 0.0144106 1.77919e-19)
(1.00875 0.00384944 -2.2549e-19)
(1.00589 0.0212116 -1.89417e-19)
(0.989707 0.0228848 2.46869e-19)
(1.03939 0.0168565 0)
(1.04338 0.00972339 0)
(1.0633 0.032923 0)
(1.04535 0.0146301 0)
(1.06099 0.00989005 0)
(1.09853 0.0608521 0)
(1.07641 0.0457433 0)
(1.09959 0.0427052 0)
(0.00612245 1.77436 -9.66631e-22)
(-0.00313949 1.76923 0)
(0.00293417 1.77066 0)
(-0.0057813 1.79482 1.11661e-20)
(-0.0050506 1.79292 -5.70724e-22)
(-0.0119845 1.77709 1.05717e-20)
(-0.00829858 1.78519 -1.04955e-20)
(-0.00803694 1.79513 0)
(-0.00755139 1.79614 0)
(-0.00784724 1.79611 0)
(-0.00652033 1.79492 0)
(-0.00779586 1.79638 0)
(0.086028 1.51558 4.88871e-19)
(0.194369 1.4267 2.04463e-19)
(0.411283 1.78533 -1.38486e-19)
(0.236628 1.74822 3.56754e-19)
(-0.055751 2.2335 7.68205e-20)
(1.0067 -0.0187957 0)
(1.0126 -0.0170212 0)
(1.00881 -0.0216844 0)
(1.01063 -0.00600855 0)
(1.00482 -0.00237609 0)
(1.00393 -0.00456044 0)
(1.0074 -0.00616607 0)
(1.00581 -0.0118469 0)
(1.02465 0.00300329 1.71155e-19)
(1.02411 0.00459018 -2.24368e-19)
(1.02301 0.0034877 -1.65753e-19)
(1.01944 0.00458989 2.08925e-19)
(0.733274 1.25911 0)
(0.585168 1.28934 4.40744e-19)
(0.829692 1.16288 2.77292e-19)
(0.864157 1.15055 -3.68465e-19)
(1.15052 2.58348 -3.08829e-19)
(0.809455 0.125582 1.5128e-19)
(1.11118 0.0889489 0)
(1.16769 0.1853 1.2889e-19)
(1.15332 0.147229 6.08382e-21)
(0.973128 0.135779 0)
(0.124669 3.02822 -9.07732e-20)
(0.11492 2.89973 -4.19696e-19)
(0.0583403 2.3342 2.92914e-19)
(0.194318 0.112462 -1.24166e-19)
(0.342341 3.4551 -3.37454e-19)
(0.201611 3.34335 0)
(0.228759 3.41185 4.39371e-19)
(0.247562 3.08973 -4.96838e-20)
(0.286602 3.21708 0)
(0.00893123 3.11879 1.9392e-20)
(0.0199663 3.12829 -2.44665e-19)
(0.0186193 3.12408 3.59432e-19)
(0.0397443 3.13752 0)
(0.0378136 3.15012 0)
(1.23001 2.57283 0)
(0.50375 0.834681 -1.14417e-19)
(0.969497 1.02833 -1.60308e-19)
(0.968337 1.0442 0)
(0.853536 0.91317 6.36268e-20)
(1.01805 0.882425 2.00636e-20)
(0.440929 0.470156 -3.02841e-19)
(0.730594 0.344763 -1.63661e-20)
(0.741961 0.295536 1.20098e-19)
(0.608384 0.433111 9.69783e-21)
(0.559122 0.431958 -4.0084e-19)
(0.703649 0.370211 0)
(0.663789 0.433885 1.99348e-19)
(0.67386 0.440021 0)
(0.662518 0.404539 0)
(0.674897 0.360605 0)
(0.720294 0.625754 4.51686e-20)
(1.16092 0.269339 1.07636e-19)
(1.16241 0.413927 0)
(1.17091 0.391055 0)
(0.795426 0.221375 1.78484e-19)
(0.779535 0.538373 -9.19338e-20)
(0.701049 0.493401 1.45995e-19)
(0.866823 0.418376 -1.16449e-19)
(1.02017 0.00854551 1.21128e-19)
(1.01259 0.0117322 -1.27486e-19)
(1.01454 0.0137914 0)
(1.01844 0.0109146 0)
(1.00988 -0.00446051 -1.07513e-19)
(1.00784 -0.00378239 1.07068e-19)
(1.02349 0.00746636 0)
(1.02186 0.00402819 0)
(1.01744 0.00610885 0)
(1.02004 0.0119247 0)
(1.02876 0.00454646 0)
(1.02167 0.00211895 0)
(-0.0110099 1.79649 0)
(-0.00446905 1.79506 0)
(-0.0148374 1.78193 3.73134e-20)
(-0.0159412 1.65448 1.06978e-19)
(-0.031612 1.74811 2.13231e-19)
(-0.0470341 1.70868 -3.56884e-19)
(-0.047102 1.78218 0)
(-0.0313178 1.82645 -6.94329e-20)
(-0.0086969 1.81956 0)
(0.00153646 2.16613 -1.10146e-19)
(0.118198 2.00333 3.68603e-19)
(-0.0587131 1.85043 6.17831e-20)
(-0.0991197 1.71 6.1086e-20)
(-0.0748465 1.75782 -4.89403e-20)
(-0.155491 1.70929 9.71681e-20)
(-0.0574358 1.91021 0)
(-0.0792877 1.94204 -3.59551e-20)
(-0.0093571 1.80748 -3.0891e-20)
(-0.0133043 1.80189 0)
(-0.0109106 1.78967 1.31392e-19)
(-0.0133844 1.79613 0)
(-0.00465821 1.80904 -1.22733e-19)
(-0.0137212 1.80385 0)
(-0.0119347 1.79311 -2.48624e-20)
(0.0012575 1.79787 0)
(-0.0024607 1.8036 0)
(-0.013498 1.79232 2.82854e-20)
(0.0130243 1.7994 -1.08753e-21)
(0.0146042 1.80637 1.36738e-19)
(0.0211916 1.80197 9.21893e-22)
(-0.0110392 1.78898 2.21683e-20)
(-0.0104838 1.79012 1.30006e-20)
(-0.0176467 1.79828 0)
(-0.0145318 1.7996 0)
(0.00545933 1.79466 7.1914e-20)
(0.00904935 1.79874 4.84683e-20)
(0.00749807 1.7956 -6.82648e-20)
(0.0018377 1.7995 0)
(-0.00913761 1.78517 -4.09979e-20)
(-0.0078526 1.7935 1.7758e-20)
(-0.0106077 1.79372 -5.43119e-21)
(-0.00889463 1.78892 -2.72847e-20)
(-0.00427607 1.79755 -9.0844e-21)
(-0.00411463 1.79961 4.32198e-20)
(1.01793 0.00687079 -1.13462e-19)
(1.01134 0.00741072 1.2015e-19)
(1.01108 0.00489011 0)
(0.992527 0.0497149 1.74053e-19)
(0.987859 0.0300214 -2.13026e-19)
(0.965052 0.0297151 2.48784e-19)
(0.98935 0.0966847 -2.22469e-20)
(1.02636 0.0085827 0)
(1.0356 0.0107381 8.94668e-20)
(1.03621 0.00569819 -8.87797e-20)
(1.03272 0.0362834 -4.54838e-21)
(1.03164 0.0239572 4.09831e-20)
(1.00661 0.0419936 0)
(0.998439 0.0386654 -1.65197e-20)
(1.00691 0.0226422 0)
(1.01516 0.015499 0)
(1.02123 0.00827432 0)
(1.01929 0.00524525 0)
(1.01073 0.0225633 3.38913e-20)
(1.01988 0.013783 -7.9996e-20)
(1.0189 0.0365018 -3.24886e-20)
(1.01036 0.0379897 -3.99302e-20)
(1.00644 0.0410279 6.19012e-20)
(1.04537 0.0439678 0)
(1.04051 0.0820048 0)
(-0.00892379 1.78536 -1.47699e-20)
(-0.0087425 1.77464 -1.25529e-21)
(-0.00812568 1.7775 0)
(-0.00156382 1.78755 1.48638e-20)
(-0.00443224 1.78177 2.10906e-21)
(-0.00121309 1.78684 -2.44667e-21)
(-0.003282 1.80086 3.36217e-20)
(-0.00792588 1.79749 -2.07418e-21)
(-0.00437673 1.79678 9.89515e-21)
(-0.00373306 1.79772 -1.74957e-20)
(-0.00261192 1.79831 2.07144e-20)
(-0.0109277 1.78693 2.55091e-22)
(-0.0131964 1.77832 1.71379e-20)
(-0.0521073 1.46472 -2.44042e-19)
(-0.155088 1.72812 -2.26772e-19)
(0.594757 1.26543 -4.22521e-19)
(0.365146 1.31659 -1.9632e-19)
(0.462635 1.32502 0)
(0.427646 1.8462 1.49654e-19)
(0.552146 1.68579 2.07996e-19)
(0.300587 1.74336 4.6908e-20)
(0.266702 1.89528 -4.20718e-19)
(0.295128 1.9982 4.05847e-19)
(0.396834 1.76325 0)
(0.358353 1.72613 -3.20627e-19)
(0.0867444 1.81226 6.06317e-19)
(0.177623 1.7791 -4.23049e-20)
(0.0979053 1.78755 -8.30524e-19)
(0.906871 2.44227 -1.75243e-19)
(0.763425 2.13816 0)
(1.01335 -0.0157697 4.12413e-21)
(1.00658 -0.0149683 -3.3821e-21)
(1.00432 -0.0134779 -5.83575e-20)
(1.02115 -0.0132535 5.92156e-20)
(1.0255 -0.0137454 0)
(0.749334 1.07363 0)
(0.778487 1.05886 0)
(0.761406 1.08888 0)
(0.714081 1.11934 0)
(1.16662 2.6195 2.43124e-20)
(1.05355 2.31447 0)
(1.10537 2.35394 -3.07847e-21)
(0.708374 2.71602 0)
(1.00931 2.71666 1.44975e-19)
(1.03616 2.65899 -9.43907e-20)
(0.823513 0.147216 0)
(0.805188 0.155884 4.43455e-20)
(0.878965 0.126953 2.13581e-19)
(0.84263 0.105501 -9.1047e-20)
(0.857032 0.0723294 -2.56686e-19)
(1.00492 0.211724 -7.69474e-20)
(0.915723 0.251595 -8.42931e-21)
(0.904801 0.271642 1.83253e-19)
(0.955339 0.17495 1.20879e-19)
(0.900421 0.168169 -2.56596e-19)
(0.881742 0.170555 3.47507e-20)
(0.942409 0.233874 -5.75455e-20)
(0.902362 0.182109 0)
(0.974979 0.160252 1.18945e-19)
(0.997437 0.177412 0)
(0.995287 0.180824 0)
(1.04175 0.101728 2.20223e-20)
(1.01018 0.162258 -7.58765e-21)
(0.999872 0.224077 -1.41448e-20)
(1.04476 0.196242 0)
(1.0057 0.0262559 8.56111e-20)
(1.00326 0.0332332 9.74294e-20)
(1.00807 0.0306747 -8.42435e-20)
(1.00985 0.037715 -6.56215e-20)
(1.00206 0.0524436 -1.22503e-19)
(0.947792 0.130518 0)
(0.987286 0.0930004 0)
(0.962209 0.0401487 -9.02486e-20)
(0.922257 0.0550216 4.07035e-20)
(1.00945 0.0863945 9.52723e-20)
(1.00549 0.102629 -7.80694e-20)
(1.01455 0.148844 7.6088e-20)
(1.01376 0.136075 0)
(1.01906 0.0784023 0)
(1.00787 0.0716334 -3.39577e-20)
(1.01409 0.0700903 -7.33201e-20)
(0.762154 1.23124 -4.50724e-20)
(0.719403 1.45409 5.49539e-20)
(1.09586 2.72148 2.10767e-20)
(1.17817 3.11606 -5.20224e-20)
(1.23084 2.71889 3.47039e-19)
(1.27304 2.69529 -1.92733e-19)
(1.2439 2.31344 -1.73046e-20)
(1.16085 3.00959 1.3771e-19)
(1.18194 2.95691 -1.21961e-19)
(1.16977 3.26676 -1.87374e-19)
(1.38177 2.96785 2.25849e-19)
(1.39557 2.90136 0)
(0.493546 0.869469 -4.9057e-21)
(0.256968 1.29728 1.64464e-19)
(0.488966 0.542425 1.96988e-19)
(0.347191 0.334441 2.36836e-19)
(0.562353 0.447094 2.22474e-19)
(0.539051 0.508138 -3.48501e-19)
(0.536748 0.50539 2.91454e-19)
(0.525559 0.465908 -1.18478e-19)
(0.510282 0.42084 2.72514e-19)
(0.787613 0.256294 -9.69121e-20)
(0.76026 0.285354 0)
(0.762699 0.259752 8.36479e-21)
(0.673728 0.524002 1.00587e-19)
(0.643856 0.482319 -3.74486e-19)
(0.608995 0.501944 1.48057e-20)
(0.625355 0.459917 0)
(0.65751 0.725533 5.9947e-20)
(0.758143 0.742811 4.08051e-21)
(0.713913 0.780113 -1.01516e-20)
(0.790936 0.782377 7.04698e-21)
(0.886825 0.820319 1.67991e-20)
(0.893465 0.83252 -1.72404e-20)
(0.787113 0.62869 -8.02628e-20)
(0.85688 0.718044 -6.57501e-21)
(0.929411 0.711556 0)
(0.9328 0.681101 1.92243e-20)
(0.952192 0.293873 1.95561e-20)
(1.07836 0.264653 -3.66582e-20)
(0.993462 0.231926 3.12661e-20)
(0.927457 0.335879 -5.19454e-20)
(0.961564 0.430486 0)
(1.04848 0.385708 0)
(0.811152 0.370712 1.0827e-21)
(0.8446 0.275573 0)
(0.840783 0.254464 1.02408e-19)
(0.871344 0.268948 4.01399e-21)
(0.868861 0.427709 3.14508e-19)
(0.826742 0.486863 7.3886e-20)
(0.824252 0.444227 -1.1695e-19)
(0.755066 0.42725 1.251e-19)
(0.740084 0.436675 9.28996e-20)
(0.714788 0.440422 -9.07788e-20)
(1.02145 0.0139122 9.41773e-20)
(1.03004 0.00350557 0)
(1.02755 0.000794361 6.43703e-20)
(1.01615 0.0050122 -1.42951e-19)
(1.03225 0.0065401 6.78653e-20)
(1.02935 0.00662654 -1.43505e-19)
(1.02513 0.00534388 0)
(1.02196 0.00644221 -3.01912e-20)
(1.02916 0.00488353 7.53142e-20)
(1.02383 0.00895869 -3.91707e-20)
(1.0231 0.00942573 2.8501e-20)
(-0.00413115 1.8033 0)
(-0.00253814 1.80309 0)
(0.00489661 1.80415 0)
(0.00161978 1.80271 0)
(-0.0170099 1.79847 -5.76782e-21)
(-0.0131849 1.79241 1.33129e-21)
(-0.0277219 1.81535 -2.25303e-20)
(-0.031717 1.79296 -3.17716e-20)
(0.00574095 1.80258 -3.99358e-20)
(-0.00249759 1.80095 2.86995e-20)
(-0.00964846 1.80555 -6.68064e-21)
(-0.00169751 1.81541 5.14147e-21)
(0.00166582 1.81143 5.876e-22)
(0.00434088 1.80957 -3.40897e-21)
(-0.00748118 1.79387 -1.44051e-19)
(0.00673776 1.80581 0)
(-0.00123594 1.79464 7.79235e-20)
(-0.00155749 1.8079 5.16857e-20)
(0.0203961 1.88711 -5.54562e-20)
(0.0910814 1.84276 0)
(0.0893917 1.8665 -3.97257e-19)
(0.119688 1.93421 2.73993e-19)
(0.0322014 1.83982 -1.51401e-19)
(0.00784872 1.81313 8.36338e-20)
(0.00509703 1.81639 0)
(0.00558355 1.79688 -9.03062e-20)
(0.00332453 1.79718 -1.19596e-19)
(0.0027829 1.79655 0)
(0.0111414 1.80393 -3.25781e-21)
(-0.00081452 1.80798 4.84667e-20)
(-0.0220195 1.7899 3.5865e-21)
(-0.0217713 1.79004 -6.53489e-20)
(-0.0194836 1.78249 1.63947e-20)
(-0.0174541 1.77749 2.56361e-20)
(-0.0152084 1.79224 0)
(-0.0143016 1.78216 0)
(-0.0091252 1.79667 1.80512e-20)
(-0.00819823 1.78187 -5.95998e-21)
(-0.0133014 1.78211 0)
(-0.0137692 1.79976 1.4186e-20)
(-0.0112064 1.79928 -2.70734e-20)
(1.02107 0.0179535 0)
(1.02296 0.016315 -8.3553e-21)
(1.01858 0.0127422 -6.24885e-20)
(1.02073 0.018541 0)
(1.02127 0.023905 0)
(1.0216 0.00580976 -4.01391e-21)
(1.0217 0.00674469 1.06762e-19)
(1.01889 0.00753535 1.30608e-19)
(1.01876 0.00781726 0)
(1.01783 0.00758198 0)
(1.01836 0.011134 6.46012e-20)
(1.01752 0.00968431 0)
(1.01894 0.0100529 0)
(-0.0125242 1.786 0)
(-0.0130672 1.7765 1.75042e-21)
(-0.0135467 1.77822 9.12028e-21)
(-0.00925388 1.78148 0)
(-0.0122355 1.77933 1.28193e-20)
(-0.0096342 1.7835 -5.54527e-21)
(-0.00735182 1.78313 0)
(0.0610094 2.44013 0)
(-0.272575 1.83643 5.03494e-19)
(-0.15383 2.17912 0)
(-0.0544013 1.51191 -7.67901e-19)
(0.199323 1.1116 0)
(0.032193 1.38494 3.61893e-19)
(1.07726 2.84684 4.60734e-21)
(0.946943 2.57082 2.14446e-19)
(0.835039 2.27982 -2.79215e-19)
(0.811606 2.25504 1.06061e-19)
(0.875926 2.67243 0)
(0.945549 2.62661 0)
(0.874594 2.38916 0)
(0.877497 2.23445 -3.09782e-19)
(0.318841 2.69397 -9.47682e-21)
(0.644397 2.74685 3.36951e-21)
(0.676588 2.70007 -2.58418e-21)
(0.548309 1.91387 0)
(0.72083 2.08878 0)
(0.632541 1.89569 -2.09823e-19)
(0.492626 2.57118 0)
(0.658958 1.07454 0)
(0.491351 0.924779 -6.98614e-21)
(0.516356 0.965018 3.58819e-22)
(0.54894 1.09326 0)
(0.486284 1.11951 1.60928e-20)
(0.758162 0.853411 2.62963e-20)
(0.791658 0.992373 0)
(0.753954 0.934955 -7.90663e-20)
(0.6298 1.05262 0)
(0.603137 0.936245 0)
(1.15924 2.76049 2.26183e-20)
(1.1237 2.80997 3.26831e-20)
(1.03278 2.24296 -8.37242e-20)
(1.09985 2.32477 5.40098e-20)
(1.13272 2.76822 0)
(1.16341 2.76423 -7.15948e-20)
(1.05128 2.48272 -6.7143e-20)
(0.89971 2.15943 -1.65655e-20)
(0.887707 1.63281 0)
(0.819559 1.1401 3.95088e-20)
(0.782055 1.07912 0)
(0.8485 0.193126 0)
(0.820987 0.167073 0)
(0.786523 0.188069 0)
(0.845212 0.200184 -1.61979e-19)
(0.807144 0.208917 1.01695e-19)
(0.923538 0.0536607 -8.21319e-20)
(0.920679 0.0959693 0)
(0.887717 0.104998 3.94041e-20)
(0.882506 0.060642 1.56875e-19)
(0.891385 0.0550018 -9.68754e-20)
(1.08404 3.35878 -6.56586e-19)
(1.15602 3.28725 0)
(1.10218 3.44225 -1.41188e-18)
(0.641447 3.59515 1.20328e-18)
(0.972167 3.11322 3.34378e-19)
(0.506846 0.834557 9.18671e-20)
(0.437826 0.875934 0)
(0.388091 0.549951 -4.35457e-20)
(0.400368 0.682741 1.86364e-19)
(0.500745 0.526309 -6.2453e-20)
(0.494437 0.543486 6.84028e-20)
(0.604296 0.520878 1.37455e-19)
(0.626877 0.5617 0)
(0.593009 0.605279 0)
(0.53812 0.545014 0)
(0.918629 0.566616 -4.87041e-20)
(0.857775 0.524296 -7.005e-20)
(0.890591 0.562293 3.87891e-21)
(0.905692 0.477225 -5.08759e-20)
(0.987883 0.464739 0)
(0.9802 0.559849 8.9132e-21)
(0.783353 0.380864 -2.00677e-19)
(0.79552 0.357066 -2.32868e-19)
(0.764763 0.405556 1.57206e-19)
(0.765496 0.358856 -1.9081e-19)
(0.832119 0.288139 -1.29938e-19)
(0.810905 0.293326 1.62664e-19)
(1.03032 0.00833558 -6.87549e-20)
(1.0293 0.0107021 1.42102e-19)
(1.02345 0.016973 8.77921e-20)
(1.02593 0.0186899 -1.04182e-19)
(1.01991 0.0221401 0)
(1.02321 0.00898921 -1.70159e-19)
(-0.00230938 1.80116 1.76401e-20)
(-0.00919967 1.80001 0)
(-0.00658111 1.79582 1.50629e-19)
(-0.00199509 1.8051 -1.34388e-19)
(-0.0221431 1.80964 4.1702e-20)
(-0.0212998 1.80494 0)
(-0.00930345 1.78491 0)
(-0.0103859 1.78102 -7.11089e-21)
(-0.0119882 1.77849 6.18842e-21)
(-0.0116012 1.77894 1.24972e-21)
(-0.0105772 1.78427 -1.25987e-20)
(-0.00915433 1.786 7.71123e-21)
(0.78843 1.77118 8.41547e-19)
(0.491625 1.86388 -9.02736e-19)
(0.0968952 1.49029 5.96803e-19)
(0.0755463 2.08703 -4.27813e-20)
(0.724426 1.01691 0)
(0.402972 1.04654 4.83059e-19)
(0.502732 1.03654 -4.68541e-19)
(0.294323 0.949979 -5.83605e-19)
(0.660084 1.02294 0)
(0.759166 1.01258 0)
(0.178984 2.64637 1.43428e-20)
(0.301816 2.37806 6.82876e-19)
(0.450227 2.50634 -4.47947e-19)
(0.297291 2.27597 -1.25443e-19)
(0.0823323 2.42976 1.83749e-19)
(0.212831 2.15855 -4.91066e-19)
(0.913019 2.45592 1.62054e-19)
(0.94754 2.40759 0)
(0.795237 2.15508 -4.07498e-20)
(1.0647 2.79756 0)
(1.07512 2.80935 0)
(0.585877 2.34704 2.3883e-19)
(1.0897 3.15937 3.04675e-19)
(0.954546 3.06007 -3.31274e-19)
(0.346499 0.973306 0)
(0.347636 0.854896 -6.54781e-20)
(0.510644 0.768061 -2.15767e-20)
(0.360221 2.15569 0)
(0.451461 2.80773 -2.4195e-19)
(0.41915 2.54223 0)
(0.673392 0.662119 -1.2285e-19)
(0.723709 0.67266 1.67041e-19)
(0.722066 0.6246 -1.61981e-19)
(0.619184 0.627846 -2.09221e-20)
(0.663787 0.59674 -8.89699e-20)
(0.937352 2.82805 -2.30262e-19)
(1.00842 2.82726 1.77508e-19)
(0.523722 2.22714 -9.68701e-20)
(0.607633 1.85259 3.62369e-20)
(0.634057 1.9298 -4.86339e-21)
(0.926726 2.4832 -8.168e-20)
(0.940866 2.4302 -3.9041e-20)
(0.582444 1.86843 -7.78063e-22)
(0.417387 1.43052 -1.69158e-21)
)
;

boundaryField
{
    wall-4
    {
        type            noSlip;
    }
    velocity-inlet-5
    {
        type            fixedValue;
        value           uniform (1 0 0);
    }
    velocity-inlet-6
    {
        type            fixedValue;
        value           uniform (0 3 0);
    }
    pressure-outlet-7
    {
        type            zeroGradient;
    }
    wall-8
    {
        type            noSlip;
    }
    frontAndBackPlanes
    {
        type            empty;
    }
}

