/*--------------------------------*- C++ -*----------------------------------*\
  =========                 |
  \\      /  F ield         | OpenFOAM: The Open Source CFD Toolbox
   \\    /   O peration     | Website:  https://openfoam.org
    \\  /    A nd           | Version:  6
     \\/     M anipulation  |
\*---------------------------------------------------------------------------*/
FoamFile
{
    version     2.0;
    format      ascii;
    class       volScalarField;
    location    "0";
    object      P_rec;
}
// * * * * * * * * * * * * * * * * * * * * * * * * * * * * * * * * * * * * * //

dimensions      [0 2 -2 0 0 0 0];

internalField   nonuniform List<scalar> 
13046
(
0.788443
0.74322
0.729699
0.800508
0.75259
0.73144
0.791813
0.727239
0.746692
0.671525
0.240469
0.693695
0.798416
0.686299
0.721268
0.700746
0.674581
0.315924
0.782713
0.745047
0.781797
0.696718
0.681226
0.304251
0.790753
0.763026
0.735959
0.786989
0.687429
0.714997
0.794573
0.72621
0.71864
0.790011
0.753555
0.760513
0.786248
0.759932
0.764487
0.77247
0.703459
0.751233
0.772288
0.779377
0.7715
0.786186
0.766188
0.759063
0.785333
0.730619
0.731978
0.656374
0.753628
0.732566
0.657434
0.732214
0.752289
0.532318
0.753297
0.664531
0.778467
0.608676
0.726013
0.694756
0.41683
0.734444
0.753199
0.556082
0.658892
0.759131
0.581957
0.660032
0.492592
0.745922
0.663783
0.78153
0.748324
0.775501
0.670404
0.737308
0.453998
0.791401
0.750713
0.735481
0.690963
0.37682
0.71762
0.722276
0.712055
0.425884
0.721227
0.689363
0.405786
0.773925
0.768213
0.582806
0.554697
0.698398
0.702141
0.716015
0.722197
0.442301
0.793432
0.767668
0.750491
0.756362
0.755464
0.673827
0.760425
0.687587
0.753069
0.59537
0.695602
0.101717
0.798462
0.707324
0.721839
0.763638
0.770352
0.537793
0.686378
0.575485
0.689238
0.65712
0.204203
0.692221
0.789956
0.626793
0.708778
0.775826
0.703784
0.740684
0.722876
0.697181
0.441183
0.759054
0.505382
0.705785
0.793861
0.709974
0.710837
0.790637
0.690562
0.739497
0.754112
0.674404
0.759307
0.758018
0.772354
0.693188
0.778872
0.58338
0.724536
0.762566
0.777472
0.710474
0.623117
0.741939
0.605793
0.742234
0.743009
0.740149
0.790219
0.665667
0.748705
0.662476
0.698238
0.247146
0.622355
0.694119
0.134915
0.75476
0.479851
0.700712
0.774299
0.699873
0.68709
0.789505
0.753115
0.677328
0.704847
0.294721
0.677635
0.7727
0.71868
0.685543
0.760263
0.767799
0.696306
0.79262
0.700487
0.742326
0.664225
0.727296
0.790067
0.65135
0.708898
0.716409
0.704644
0.384078
0.72135
0.717357
0.45964
0.691572
0.389411
0.718292
0.638393
0.707822
0.74662
0.793213
0.740647
0.662353
0.46059
0.356064
0.69285
0.715557
0.786214
0.76193
0.756194
0.786643
0.703314
0.709441
0.723019
0.706954
0.46195
0.791869
0.670169
0.732021
0.70052
0.180896
0.624641
0.744696
0.712478
0.625724
0.705391
0.425608
0.7183
0.757214
0.635555
0.744905
0.780628
0.631457
0.706719
0.520323
0.7112
0.727472
0.734128
0.583344
0.735326
0.703894
0.170148
0.609247
0.768016
0.686112
0.73332
0.60808
0.687116
0.0666596
0.772352
0.791967
0.740613
0.773209
0.767909
0.637644
0.649938
0.744892
0.7367
0.663838
0.731832
0.419585
0.782717
0.657187
0.698472
0.73369
0.556318
0.732485
0.756937
0.516937
0.694045
0.773217
0.768044
0.775592
0.755145
0.612652
0.739892
0.783151
0.64471
0.694096
0.790542
0.792265
0.767545
0.674951
0.715353
0.75607
0.5936
0.735517
0.744751
0.693534
0.488898
0.770124
0.691352
0.74347
0.742767
0.724803
0.610588
0.764048
0.569921
0.677901
0.756651
0.661277
0.720852
0.755476
0.758513
0.540826
0.676381
0.524961
0.681884
0.700845
0.318176
0.687167
0.77091
0.60133
0.690555
0.0139867
0.696237
0.547851
0.792726
0.766416
0.707343
0.785061
0.632115
0.72633
0.703829
0.726373
0.421094
0.64334
0.72325
0.749751
0.495315
0.710928
0.72549
0.697662
0.7302
0.774832
0.624033
0.71638
0.685809
0.740957
0.716057
0.674993
0.353842
0.644006
0.68702
0.748906
0.770326
0.601103
0.710238
0.781105
0.675111
0.745061
0.752069
0.663724
0.755317
0.795146
0.729342
0.73862
0.741719
0.728657
0.62098
0.703321
0.383529
0.709463
0.49858
0.710509
0.726536
0.753292
0.659821
0.627227
0.747057
0.750724
0.521761
0.488977
0.666435
0.670357
0.694287
0.0322444
0.568788
0.621827
0.685338
0.0908861
0.773674
0.622964
0.732874
0.702717
0.710921
0.353568
0.758978
0.762774
0.598388
0.577406
0.674589
0.67177
0.716696
0.2971
0.653714
0.596648
0.686121
0.0350747
0.770962
0.782709
0.753824
0.594444
0.0710298
0.69381
0.777341
0.688244
0.682315
0.684462
0.310523
0.70772
0.0172742
0.706013
0.50297
0.773181
0.707793
0.763908
0.792225
0.746753
0.759254
0.656321
0.689101
0.197259
0.788701
0.73049
0.757468
0.772525
0.780352
0.76213
0.745752
0.70265
0.619919
0.780039
0.738176
0.772102
0.793219
0.708435
0.771577
0.754301
0.646579
0.657567
0.685265
0.691889
0.297104
0.289603
0.691592
0.68884
0.684876
0.356927
0.708803
0.663503
0.753553
0.600591
0.766796
0.683218
0.735221
0.722734
0.575047
0.732457
0.100122
0.710087
0.539556
0.718908
0.685444
0.380709
0.634522
0.695722
0.170076
0.706231
-0.00892673
0.496969
-0.0401558
0.699023
0.522493
0.568433
0.758832
0.72495
0.212744
0.715454
0.606059
0.747337
0.490359
0.708456
0.68465
0.668991
0.237004
0.796326
0.729286
0.718489
0.327984
0.717332
0.669413
0.721918
0.734487
0.589774
0.545947
0.734693
0.731117
0.705905
-0.115399
0.444343
0.0363266
0.700612
0.534499
0.798058
0.741195
0.725544
0.282931
0.647206
0.712469
0.716447
0.630215
0.2717
0.703882
0.694698
0.350915
0.670927
0.412939
0.72766
0.757749
0.64767
0.656435
0.54204
0.75613
0.672477
0.668017
0.719455
0.348487
0.780615
0.779556
0.684387
0.661268
0.694354
0.694824
0.778767
0.697747
0.691412
0.763735
0.59822
0.672721
0.519945
0.722385
0.727679
0.346775
0.689913
0.711567
0.723369
0.728282
0.494601
-0.0297642
0.69656
0.541155
0.786271
0.787513
0.718458
0.746609
0.726491
0.747574
0.771892
0.761112
0.675998
0.640407
0.673356
0.671385
0.0354724
0.708248
0.502889
0.299907
0.658136
0.711578
0.7586
0.662898
0.708036
0.543591
0.715674
0.730766
0.669212
0.436195
0.733426
0.10339
0.580959
0.702807
0.134533
0.591957
0.70453
0.767716
0.587743
0.681077
0.770249
0.689713
0.755362
0.698374
0.694208
0.316491
0.547731
0.7461
0.725468
0.693705
0.449609
0.742332
0.760433
0.676334
0.682015
0.761351
0.646884
0.747728
0.770354
0.695188
0.745547
0.697777
0.295939
0.685874
0.755978
0.510828
0.687402
0.780132
0.716068
0.759758
0.706805
0.665509
0.305942
0.782207
0.718527
0.709859
0.788638
0.701441
0.755611
0.56699
0.746849
0.731951
0.650098
0.678554
0.145011
0.660604
0.67485
0.164494
0.688347
0.441724
0.740907
0.752424
0.646549
0.745063
0.677908
0.0993942
0.62948
0.70797
0.453422
0.739716
0.707083
-0.0300278
0.472607
0.507522
-0.0672645
0.696325
0.672476
0.367116
0.723542
0.70134
0.226984
0.648345
0.708873
0.717362
0.683408
0.329708
0.685927
0.367747
0.730065
0.457615
0.711206
0.734808
0.55786
0.705893
0.795109
0.732042
0.745206
0.739045
0.488407
0.719943
0.722925
0.744033
0.507461
0.725598
0.66458
0.37592
0.768664
0.620513
0.670436
0.771792
0.669322
0.675656
0.759693
0.561792
0.718731
0.75645
0.548643
0.721682
0.781739
0.715406
0.767681
0.778171
0.651156
0.694132
0.718248
0.336919
0.66006
0.577638
0.708366
0.138074
0.562025
0.711503
0.130723
0.776256
0.698775
0.725783
0.072887
0.704791
0.552207
0.748864
0.685759
0.471363
0.706942
0.0778219
0.532359
0.79749
0.759544
0.738362
0.788001
0.649927
0.716319
0.651382
0.746587
0.749492
0.715498
0.236081
0.623659
0.545905
0.747691
0.728683
0.669546
0.69854
0.283136
0.779881
0.628782
0.713179
0.794682
0.739241
0.750702
0.24612
0.639302
0.710666
0.699535
0.434535
0.736979
0.644476
0.629619
0.68585
0.687808
0.15844
0.128333
0.78014
0.655138
0.740547
0.589289
0.763823
0.727596
0.785003
0.717062
0.749412
0.179471
0.597642
0.18545
0.70904
0.598066
0.712413
0.771444
0.56462
0.710213
0.637212
0.617355
0.226602
0.194829
0.708455
0.708874
0.759042
0.605944
0.734759
0.785834
0.663049
0.725934
0.675752
0.67467
0.215856
0.790726
0.6469
0.737202
0.792198
0.698014
0.743474
0.654227
0.679716
0.169511
0.782818
0.607164
0.703293
0.596713
0.706178
0.736667
0.761352
0.667039
0.668878
0.460008
0.723207
0.693356
0.703796
-0.0895955
0.464458
0.780763
0.641216
0.722765
0.687186
0.679674
0.262819
0.65154
0.667547
0.752782
0.550459
0.689084
-0.0141986
0.763777
0.760862
0.697567
0.769527
0.69302
0.771856
0.791583
0.712452
0.756722
0.769318
0.769246
0.702984
0.771605
0.717445
0.770041
0.783642
0.672553
0.737902
0.790957
0.671725
0.740451
0.712631
0.15271
0.568085
0.779208
0.715209
0.693304
0.654089
0.249305
0.704433
0.757676
0.751819
0.542052
0.511444
0.713515
0.711347
0.778432
0.731505
0.703144
0.76519
0.620425
0.675336
0.771295
0.585726
0.718168
0.786377
0.765917
0.743593
0.749445
0.511746
0.718779
0.788552
0.721206
0.756042
0.770056
0.608241
0.732019
0.767331
0.63321
0.677727
0.784035
0.781769
0.764852
0.743619
0.771476
0.736538
0.776591
0.711757
0.773299
0.776251
0.730243
0.774925
0.784343
0.786762
0.693362
0.682459
0.702331
0.698192
0.675328
0.425357
0.737004
0.739032
0.715113
0.612926
0.680134
0.683789
0.390509
0.399172
0.727357
0.727109
0.753931
0.660167
0.712501
0.78461
0.760982
0.768089
0.747891
0.493302
0.714892
0.78503
0.708091
0.731939
0.768101
0.617815
0.679895
0.749758
0.752656
0.474788
0.675887
0.487555
0.678691
0.762587
0.540982
0.707597
0.569477
0.0169333
0.689193
0.648359
0.686181
0.750997
0.75305
0.756378
0.654643
0.666707
0.665349
0.682992
0.734708
0.517447
0.726307
0.763754
0.642353
0.678622
0.758445
0.656349
0.699104
0.757032
0.767711
0.67008
0.683844
0.704244
0.696898
0.756441
0.671375
0.686546
0.764899
0.554146
0.713217
0.784115
0.724295
0.766414
0.666915
0.684475
0.219144
0.757558
0.656458
0.685563
0.776064
0.772899
0.618864
0.596137
0.682295
0.687877
0.683082
0.258961
0.684507
0.680363
0.678635
0.230955
0.666737
0.680732
0.20187
0.747543
0.68032
0.462958
0.768129
0.661407
0.68454
0.228205
0.362347
0.58578
0.232755
0.522034
0.0824847
0.45384
0.319784
0.168223
0.516731
0.51421
0.137487
0.227814
0.507797
0.360117
0.227398
0.265365
0.324472
0.364244
0.476099
0.397933
0.3123
0.535454
0.665941
0.602791
0.367736
0.536959
0.153348
0.418141
0.221446
0.168772
0.452846
0.377431
0.384928
0.206233
0.397717
0.583443
0.530095
0.280583
0.395384
0.284824
0.689021
0.231587
0.507953
0.54422
0.316753
0.325026
0.258145
0.145866
0.233089
0.608539
0.406262
0.229605
0.30283
0.164454
0.604104
0.476042
0.385941
0.250207
0.497087
0.228337
0.241428
0.605112
0.338919
0.386829
0.479642
0.409466
0.640325
0.532401
0.500161
0.11438
0.160091
0.283434
0.49572
0.14626
0.385196
0.352842
0.19905
0.482418
0.56342
0.322605
0.378239
0.152258
0.211797
0.309201
0.492573
0.311147
0.261502
0.352062
0.608819
0.229274
0.501165
0.5995
0.389752
0.229495
0.0371685
0.205288
0.263574
0.227992
0.111622
0.435455
0.53986
0.554561
0.644116
0.217955
0.245815
0.150377
0.241217
0.207852
0.581284
0.546117
0.476987
0.194227
0.164874
0.408689
0.519646
0.333577
0.261324
0.0930789
0.318532
0.376058
0.612454
0.633004
0.499846
0.381808
0.28891
0.138117
0.62698
0.197563
0.492359
0.103837
0.600491
0.153199
0.210717
0.215555
0.562326
0.374402
0.0640492
0.222496
0.459592
0.224616
0.499549
0.418519
0.244017
0.540341
0.299008
0.206029
0.573302
0.230376
0.336305
0.139337
0.38708
0.276507
0.56181
0.500746
0.324806
0.494359
0.499445
0.584649
0.359048
0.277842
0.238434
0.491631
0.197129
0.395894
0.156589
0.669297
0.320271
0.553223
0.630416
0.401706
0.632262
0.567524
0.586051
0.182377
0.0970496
0.137046
0.587785
0.186464
0.16501
0.196884
0.1671
0.333179
0.295167
0.401363
0.629583
0.499695
0.290145
0.488528
0.279755
0.681935
0.180954
0.53282
0.246794
0.0827213
0.618565
0.641034
0.23905
0.263133
0.66674
0.423081
0.285393
0.212267
0.497173
0.578568
0.454594
0.223323
0.252146
0.506049
0.373398
0.216547
0.432707
0.204445
0.181627
0.291474
0.523854
0.100309
0.309196
0.541228
0.303699
0.0971722
0.320489
0.232205
0.275459
0.446712
0.459199
0.209747
0.161563
0.209879
0.479491
0.453937
0.335017
0.466179
0.306476
0.187769
0.433619
0.287379
0.0791386
0.460988
0.572462
0.414917
0.601492
0.576312
0.688314
0.229813
0.0541067
0.348918
0.322872
0.269913
0.108416
0.429591
0.612117
0.482508
0.42986
0.213657
0.337507
0.477685
0.392933
0.436242
0.232231
0.343577
0.287112
0.19469
0.209994
0.247052
0.231143
0.195517
0.4622
0.37861
0.328404
0.469765
0.235647
0.339838
0.23516
0.323307
0.302127
0.273847
0.423718
0.110385
0.0509337
0.345211
0.131589
0.104961
0.429896
0.176318
0.103963
0.562739
0.471503
0.217141
0.472505
0.174528
0.454973
0.432817
0.214436
0.233445
0.522117
0.35845
0.483859
0.0827602
0.200766
0.563243
0.279734
0.217484
0.0278682
0.118371
0.0937949
0.125965
0.299077
0.470743
0.188642
0.0863905
0.214832
0.266291
0.683211
0.245003
0.493951
0.4116
0.194368
0.294653
0.210983
0.158823
0.450173
0.302037
0.612213
0.45262
0.20881
0.297934
0.408146
0.663307
0.468587
0.585192
0.505076
0.286329
0.407091
0.337602
0.206461
0.117761
0.267451
0.269494
0.445421
0.243593
0.144331
0.229101
0.287797
0.224926
0.25988
0.548138
0.270055
0.250384
0.592421
0.537999
0.208125
0.375425
0.579516
0.258398
0.17068
0.296656
0.192912
0.155799
0.567941
0.221848
0.307844
0.576006
0.109216
0.391789
0.224538
0.402964
0.301195
0.251033
0.0515844
0.297918
0.142809
0.287728
0.316089
0.319566
0.473492
0.607468
0.225897
0.364531
0.287896
0.225992
0.0750655
0.536005
0.4179
0.293202
0.1475
0.405563
0.136404
0.242535
0.219567
0.203238
0.504366
0.595656
0.279477
0.467347
0.644294
0.54392
0.529489
0.588943
0.277355
0.260892
0.15854
0.664005
0.517513
0.557075
0.251626
0.308396
0.090088
0.48102
0.280428
0.240979
0.556073
0.435302
0.204077
0.293919
0.219006
0.228215
0.225626
0.300153
0.326055
0.17975
0.272063
0.124166
0.295373
0.184958
0.430785
0.360624
0.101263
0.584058
0.600867
0.501231
0.278078
0.399709
0.180569
0.517447
0.39777
0.141212
0.578157
0.13265
0.614818
0.131315
0.333112
0.332516
0.50099
0.500274
0.227547
0.635849
0.239324
0.546723
0.332671
0.434825
0.263674
0.224591
0.25488
0.549768
0.323288
0.65864
0.482991
0.116867
0.242885
0.457452
0.143743
0.282387
0.33307
0.178701
0.613761
0.215455
0.197318
0.516743
0.26042
0.611743
0.649167
0.318119
0.655579
0.616548
0.55747
0.564414
0.420605
0.148994
0.227901
0.309548
0.539815
0.298619
0.134841
0.633651
0.191168
0.342768
0.219455
0.589506
0.678527
0.200821
0.545071
0.408587
0.606215
0.29931
0.508605
0.330671
0.631483
0.653552
0.466641
0.223632
0.505445
0.261049
0.375532
0.373625
0.313747
0.415304
0.256542
0.131399
0.16162
0.328992
0.431316
0.375807
0.565996
0.211582
0.27865
0.426858
0.162268
0.598273
0.221193
0.330612
0.57579
0.558375
0.390909
0.642749
0.216299
0.30576
0.507584
0.347927
0.351197
0.332748
0.257131
0.45967
0.483361
0.25689
0.221096
0.395131
0.11789
0.178354
0.604851
0.639481
0.653094
0.324677
0.65095
0.672908
0.619604
0.0710692
0.424832
0.417717
0.643982
0.290909
0.228006
0.142398
0.221213
0.113725
0.627069
0.356417
0.366301
0.513173
0.469324
0.279528
0.327614
0.673011
0.621994
0.586722
0.454612
0.289176
0.469437
0.448902
0.292027
0.328685
0.170655
0.220884
0.359836
0.359031
0.259212
0.601599
0.609381
0.0770632
0.560072
0.230139
0.225247
0.281199
0.594606
0.314185
0.462362
0.346983
0.590101
0.303392
0.346229
0.646002
0.0843442
0.117436
0.214149
0.186727
0.0501561
0.0144552
0.195995
0.0533437
0.365964
0.071276
0.176837
0.358689
0.273451
0.199995
0.267057
0.156838
0.0357429
0.615587
0.537083
0.314206
0.143016
0.543811
0.295951
0.227078
0.652079
0.203217
0.645135
0.308184
0.569037
0.324048
0.17429
0.171559
0.370319
0.375754
0.368611
0.176358
0.309295
0.18474
0.184549
0.244317
0.106482
0.162677
0.625158
0.219315
0.489635
0.515388
0.294866
0.522586
0.520238
0.142237
0.0211452
0.331413
0.118948
0.057757
0.489121
0.501698
0.31581
0.442837
0.279287
0.646348
0.613474
0.340908
0.267686
0.638638
0.573203
0.436708
0.429517
0.300703
0.65156
0.358056
0.0746502
0.592694
0.533312
0.609286
0.383814
0.23094
0.278373
0.504573
0.453904
-0.0277627
0.694331
0.327662
0.212942
0.390864
0.555041
0.636098
0.6613
0.439536
0.332338
0.521925
0.572486
0.577162
0.48615
0.54002
0.187967
0.229563
0.393632
0.158702
0.179424
0.103579
0.324319
0.524573
0.123976
0.369733
0.237622
0.537992
0.661926
0.356133
0.151907
0.0936877
0.501141
0.268573
0.213831
0.0931644
0.589972
0.414056
0.433048
0.132351
0.425705
0.212554
0.224844
0.481997
0.52286
0.591241
0.676164
0.195521
0.569641
0.0777287
0.591111
0.610526
0.610509
0.519371
0.179304
0.178707
0.323773
0.0732347
0.350665
0.104686
0.402055
0.138236
0.556604
0.297236
0.0858075
0.557756
0.487765
0.334327
0.343892
0.481471
0.589734
0.413508
0.360048
0.0813404
0.538203
0.379909
0.617118
0.0534951
0.363436
0.594636
0.497927
0.642213
0.497284
0.309352
0.0379441
0.0873591
0.348361
0.113257
0.623408
0.083434
0.251241
0.327814
0.22036
0.517533
0.0583887
0.580216
0.507265
0.431856
0.131159
0.434984
0.215918
0.279675
0.353987
0.327627
0.30662
0.294396
0.527148
0.187287
0.647161
0.297113
0.345075
0.468927
0.479835
0.621099
0.308347
0.343716
0.200286
0.329324
0.28312
0.621912
0.219956
0.36452
0.300058
0.53479
0.265589
0.383285
0.156366
0.662425
0.0697503
0.178292
0.277148
0.540645
0.0907048
0.0963637
0.167732
0.14273
0.601789
0.352829
0.465687
0.569646
0.44477
0.374535
0.664556
0.354877
0.484108
0.451559
0.367798
0.10312
0.384062
0.361943
0.249779
0.383795
0.201157
0.117104
0.403363
0.295342
0.18674
0.526333
0.332854
0.462791
0.353287
0.606825
0.321665
0.310549
0.449004
0.142826
0.210713
0.302016
0.372096
0.406942
0.452989
0.59567
0.473648
0.539988
0.39708
0.571349
0.626359
0.628714
0.397385
0.352007
0.407151
0.151647
0.635465
0.568187
0.543361
0.378717
0.183487
0.108577
0.409598
0.496424
0.216191
0.538657
0.561776
0.447572
0.229743
0.374718
0.249816
0.226647
0.381806
0.240077
0.432782
0.0940483
0.432418
0.324829
0.342894
0.0593052
0.399984
0.379416
0.469827
0.286852
0.423114
0.601629
0.609686
0.440032
0.314341
0.541451
0.39954
0.215919
0.213673
0.325257
0.132642
0.591243
0.341883
0.41077
0.507584
0.490136
0.428053
0.197135
0.647165
0.433509
0.229549
0.356197
0.387236
0.541486
0.597952
0.437722
0.430043
0.0939014
0.194335
0.34911
0.441884
0.367481
0.442175
0.253844
0.607035
0.419366
0.509623
0.576237
0.408182
0.211696
0.365562
0.635512
0.286085
0.0878327
0.362103
0.641049
0.271191
0.329024
0.531513
0.491991
0.548321
0.369511
0.0999368
0.443947
0.155111
0.27952
0.556428
0.365979
0.157533
0.213609
0.267888
0.45487
0.269059
0.240239
0.573676
0.237827
0.666213
0.545836
0.140237
0.0428092
0.341166
0.492149
0.574186
0.372014
0.348977
0.225148
0.323407
0.319153
0.675032
0.587804
0.501343
0.271673
0.110613
0.589878
0.654194
0.604034
0.538358
0.580648
0.360143
0.15847
0.0690343
0.0903282
0.616534
0.384669
0.232392
0.286858
0.65091
0.299739
0.23105
0.124361
0.373239
0.206515
0.64393
0.44866
0.489541
0.591436
0.553707
0.33476
0.469891
0.363057
0.465397
0.278941
0.44072
0.246008
0.621233
0.185006
0.279847
0.236116
0.304538
0.599486
0.307097
0.555626
0.565516
0.588534
0.179175
0.359687
0.346273
0.223806
0.610858
0.382681
0.376219
0.443348
0.0983545
0.292481
0.601299
0.472579
0.611148
0.0791032
0.17559
0.310404
0.628505
0.255694
0.323294
0.199772
0.195459
0.278234
0.609878
0.304766
0.354829
0.131072
0.636712
0.646434
0.102599
0.59975
0.289767
0.182132
0.181429
0.376896
0.120474
0.42809
0.271278
0.27995
0.310572
0.576983
0.370314
0.550653
0.302244
0.168154
0.302737
0.0785334
0.110373
0.356766
0.284937
0.389146
0.189039
0.335194
0.56223
0.423208
0.281458
0.171501
0.577781
0.380363
0.328256
0.662237
0.391319
0.274749
0.28156
0.217625
0.637197
0.251373
0.344673
0.455368
0.13753
0.584975
0.197196
0.569761
0.352176
0.518064
0.203537
0.518702
0.343147
0.143404
0.216015
0.350253
0.591045
0.0411368
0.21776
0.307028
0.620591
0.644766
0.219143
0.258599
0.422137
0.623549
0.315243
0.601091
0.575504
0.543006
0.510197
0.426194
0.455866
0.449638
0.614155
0.324031
0.373796
0.217309
0.231866
0.320516
0.186792
0.638688
0.188798
0.593057
0.313107
0.62859
0.261479
0.647716
0.517419
0.559515
0.628983
0.601944
0.658419
0.326673
0.585447
0.345888
0.307392
0.215566
0.191682
0.610356
0.1902
0.452229
0.45772
0.337377
0.428764
0.246767
0.594621
0.402046
0.515375
0.0643431
0.212322
0.312813
0.643304
0.228082
0.477897
0.236893
0.311998
0.153273
0.318494
0.298797
0.547107
0.619129
0.121552
0.445275
0.309442
0.268021
0.560169
0.219506
0.228445
0.625804
0.0907327
0.380069
0.499578
0.599679
0.65636
0.242062
0.228624
0.134175
0.278797
0.22481
0.306235
0.50525
0.284565
0.150201
0.349991
0.359154
0.26329
0.22958
0.304739
0.369841
0.147645
0.535054
0.519784
0.257883
0.519742
0.173619
0.131085
0.230093
0.0854337
0.639301
0.294027
0.296091
0.248178
0.555269
0.61399
0.415742
0.501791
0.237997
0.231842
0.358383
0.296676
0.216309
0.611743
0.400522
0.453071
0.636038
0.534111
0.336253
0.63174
0.116679
0.42115
0.415628
0.459793
0.302695
0.605702
0.286834
0.452383
0.355233
0.260754
0.185526
0.236307
0.518745
0.56308
0.588511
0.365667
0.392554
0.611807
0.523967
0.358608
0.384018
0.170453
0.3295
0.552321
0.116659
0.572263
0.30125
0.584567
0.646523
0.61747
0.292899
0.561344
0.57339
0.147158
0.606917
0.260548
0.623967
0.544436
0.313738
0.191159
0.399114
0.332371
0.303319
0.235657
0.528472
0.26065
0.627311
0.176739
0.245329
0.223555
0.174093
0.297688
0.556642
0.642144
0.171709
0.507648
0.384319
0.454478
0.321332
0.416516
0.606512
0.550598
0.305588
0.597906
0.562514
0.646672
0.170403
0.286709
0.227223
0.509103
0.630636
0.567432
0.344292
0.648701
0.348612
0.125871
0.189317
0.0385606
0.327559
0.155941
0.64014
0.668188
0.395508
0.652269
0.555179
0.414834
0.642477
0.170518
0.603996
0.327702
0.612338
0.286675
0.180783
0.506054
0.40784
0.624927
0.601374
0.60867
0.198387
0.200481
0.105267
0.564598
0.548417
0.212521
0.354867
0.549709
0.0760066
0.259993
0.196863
0.320301
0.441752
0.314132
0.41538
0.490811
0.388217
0.399764
0.5258
0.288303
0.295819
0.448629
0.394128
0.295933
0.585523
0.615405
0.214669
0.544726
0.0641364
0.247162
0.588
0.531334
0.299999
0.616636
0.16268
0.518158
0.302075
0.299938
0.594942
0.291165
0.523529
0.503533
0.475359
0.669139
0.486207
0.137996
0.465985
0.323376
0.531637
0.671728
0.469277
0.345124
0.214907
0.302275
0.597052
0.164189
0.549745
0.206573
0.405129
0.532037
0.519332
0.39059
0.582096
0.647832
0.288828
0.287793
0.39939
0.191613
0.157603
0.419853
0.507025
0.221445
0.138002
0.233463
0.134387
0.51646
0.341827
0.536316
0.237272
0.607608
0.383365
0.562582
0.635028
0.235384
0.603472
0.278895
0.408753
0.358431
0.569592
0.230334
0.315543
0.367336
0.187365
0.295675
0.174372
0.153857
0.0655045
0.637624
0.646741
0.220503
0.240161
0.529447
0.115593
0.224327
0.301315
0.500616
0.507571
0.0974629
0.0651009
0.600726
0.237026
0.436026
0.22938
0.127881
0.191774
0.397389
0.569657
0.431731
0.124831
0.610115
0.569162
0.211333
0.439223
0.291202
0.634998
0.309914
0.318594
0.143265
0.485485
0.609283
0.457103
0.404893
0.225829
0.334598
0.428059
0.643211
0.655018
0.225853
0.651406
0.234458
0.427256
0.424756
0.355919
0.271103
0.571789
0.30764
0.40094
0.211526
0.263771
0.306896
0.181383
0.472175
0.611944
0.212548
0.25105
0.414225
0.27915
0.240445
0.0751894
0.267715
0.565805
0.13621
0.292479
0.489615
0.420118
0.340675
0.477874
0.549191
0.225038
0.231029
0.563962
0.334876
0.208921
0.349257
0.567051
0.476299
0.433884
0.233684
0.243545
0.221167
0.644197
0.568166
0.65084
0.334484
0.496681
0.161452
0.374236
0.573284
0.122797
0.135967
0.521541
0.572962
0.111903
0.251099
0.231039
0.213365
0.225952
0.652739
0.311778
0.246459
0.404787
0.214657
0.503283
0.411201
0.153128
0.253812
0.522994
0.332899
0.645531
0.153592
0.26111
0.447426
0.439241
0.36367
0.443214
0.186356
0.653258
0.598591
0.45149
0.57436
0.22436
0.57025
0.48019
0.441085
0.632151
0.116215
0.264972
0.665483
0.483407
0.108323
0.296277
0.543358
0.659935
0.376783
0.528805
0.231208
0.14164
0.202401
0.102433
0.57217
0.236909
0.401539
0.622387
0.23062
0.225349
0.229511
0.385399
0.242644
0.295539
0.219223
0.176158
0.33333
0.550011
0.627338
0.483561
0.273858
0.265506
0.0916812
0.268024
0.465473
0.449093
0.462287
0.496848
0.267416
0.376336
0.543448
0.577243
0.658247
0.591164
0.636738
0.341893
0.162656
0.204136
0.167528
0.64502
0.395404
0.238688
0.629392
0.168738
0.548444
0.501947
0.256553
0.231689
0.263711
0.251892
0.574368
0.334767
0.502548
0.363691
0.622177
0.432961
0.67535
0.203342
0.369737
0.283173
0.0563752
0.279018
0.516337
0.202401
0.0852922
0.434028
0.607366
0.534721
0.248717
0.151003
0.206142
0.174871
0.233183
0.175697
0.355524
0.180941
0.522297
0.215153
0.238762
0.594292
0.342637
0.465554
0.565552
0.352904
0.401846
0.19904
0.518579
0.3366
0.258156
0.322698
0.192372
0.148148
0.23619
0.25767
0.528095
0.6513
0.582889
0.430898
0.503625
0.119659
0.651566
0.410119
0.499259
0.243453
0.504636
0.298114
0.289389
0.55416
0.610733
0.520874
0.439048
0.312739
0.662706
0.281768
0.538304
0.640197
0.490465
0.313852
0.112949
0.538913
0.396265
0.182084
0.480983
0.389886
0.615263
0.230802
0.622295
0.658817
0.344394
0.20375
0.636605
0.151028
0.189269
0.286757
0.184194
0.266402
0.189767
0.155289
0.362664
0.240962
0.201893
0.278641
0.445972
0.270955
0.228402
0.4733
0.400088
0.128149
0.615103
0.640745
0.629861
0.229061
0.124459
0.684493
0.141299
0.341801
0.227907
0.308168
0.245112
0.519296
0.28382
0.298711
0.136924
0.118743
0.18531
0.290347
0.107633
0.386161
0.42334
0.37664
0.626083
0.395758
0.462724
0.302372
0.562916
0.315058
0.301073
0.657613
0.282133
0.386159
0.155377
0.490877
0.644651
0.343802
0.434968
0.391593
0.296723
0.227271
0.228704
0.178342
0.524963
0.195552
0.324623
0.296727
0.346545
0.206647
0.229874
0.343168
0.330256
0.270821
0.640462
0.353732
0.305439
0.437028
0.611165
0.2978
0.122173
0.526718
0.152897
0.314268
0.229838
0.337464
0.293849
0.311724
0.340314
0.648337
0.5817
0.131483
0.267439
0.118509
0.222779
0.10692
0.182661
0.271047
0.198072
0.280107
0.462798
0.653684
0.285137
0.507645
0.371011
0.642811
0.288542
0.645968
0.462342
0.163563
0.446915
0.513269
0.307815
0.560333
0.229055
0.589136
0.252261
0.106863
0.36754
0.655034
0.634375
0.528705
0.457262
0.484504
0.13412
0.282065
0.479168
0.67659
0.117907
0.345274
0.23395
0.311735
0.34138
0.210378
0.164527
0.243264
0.182186
0.247436
0.324029
0.332786
0.668765
0.560811
0.104311
0.541261
0.196522
0.220964
0.545478
0.25444
0.314067
0.472787
0.15049
0.220833
0.372994
0.576678
0.171219
0.233246
0.312457
0.463433
0.168116
0.616839
0.119908
0.298959
0.318923
0.245235
0.453796
0.466052
0.613798
0.227087
0.512452
0.429225
0.453468
0.22063
0.449476
0.204631
0.15884
0.0857875
0.4042
0.370047
0.319998
0.584872
0.355402
0.4027
0.44597
0.209981
0.190596
0.290591
0.420579
0.22789
0.652429
0.155464
0.121908
0.281435
0.301152
0.234559
0.235409
0.497206
0.289513
0.37928
0.168182
0.230557
0.378881
0.194938
0.651935
0.631047
0.173422
0.206469
0.564153
0.364999
0.212455
0.148847
0.218655
0.179323
0.423918
0.610303
0.21066
0.128795
0.462863
0.348706
0.120546
0.172094
0.343751
0.503434
0.651356
0.161108
0.122088
0.443071
0.570868
0.337117
0.410173
0.313853
0.22812
0.301744
0.463746
0.367619
0.228762
0.549483
0.313869
0.0872339
0.415284
0.237941
0.552949
0.670367
0.233067
0.291993
0.296217
0.287026
0.157741
0.307126
0.177036
0.630353
0.550448
0.502862
0.274966
0.138353
0.535041
0.64979
0.229517
0.409992
0.295691
0.0630896
0.396058
0.305674
0.0724091
0.273605
0.447398
0.167811
0.124277
0.179925
0.548802
0.152799
0.539023
0.327841
0.229114
0.326511
0.199979
0.554252
0.0925673
0.301639
0.335471
0.15588
0.409696
0.48026
0.436746
0.372448
0.533879
0.174349
0.17259
0.597134
0.225587
0.591446
0.444443
0.339922
0.395685
0.584091
0.348965
0.114871
0.616218
0.2227
0.346479
0.574826
0.212404
0.623748
0.218504
0.315512
0.145483
0.309286
0.177346
0.367388
0.196199
0.0872122
0.184172
0.170578
0.0682796
0.608565
0.169784
0.305199
0.418769
0.358134
0.652932
0.652736
0.288986
0.350366
0.556374
0.279084
0.611346
0.0792829
0.322765
0.40069
0.236406
0.564941
0.295367
0.301448
0.252983
0.23617
0.23088
0.0928002
0.587512
0.0491297
0.613166
0.501299
0.195663
0.124308
0.193206
0.655366
0.487361
0.470812
0.346448
0.410506
0.342668
0.582096
0.530346
0.202024
0.439666
0.622387
0.35398
0.405738
0.437871
0.10447
0.167379
0.534448
0.310203
0.327386
0.625367
0.166413
0.0849068
0.249844
0.323199
0.359275
0.636813
0.220556
0.14663
0.225418
0.322686
0.225893
0.599664
0.340445
0.195482
0.298778
0.23106
0.209104
0.26849
0.450567
0.371333
0.194601
0.584913
0.313347
0.555454
0.195707
0.162768
0.287812
0.577234
0.638421
0.549512
0.390675
0.367104
0.546213
0.627616
0.156287
0.612229
0.18628
0.46725
0.464631
0.596819
0.386251
0.582746
0.60582
0.233853
0.23293
0.305868
0.350382
0.186352
0.237174
0.185714
0.522274
0.563743
0.149433
0.618859
0.380403
0.537596
0.346391
0.19179
0.556376
0.536162
0.295387
0.259569
0.177991
0.660622
0.496444
0.680823
0.150592
0.185616
0.334858
0.570836
0.458969
0.581472
0.379505
0.632171
0.247017
0.310791
0.406101
0.263039
0.449918
0.166658
0.550752
0.352609
0.400848
0.613021
0.141132
0.152781
0.0942514
0.414658
0.588361
0.252905
0.458423
0.173133
0.141628
0.331434
0.238904
0.21576
0.578903
0.361002
0.210324
0.320793
0.413247
0.612356
0.417587
0.327498
0.587839
0.356813
0.63849
0.399338
0.5054
0.331622
0.153491
0.65355
0.191836
0.396496
0.435121
0.608318
0.492234
0.365155
0.240939
0.665192
0.321057
0.203525
0.527277
0.653779
0.509116
0.474939
0.136526
0.0810232
0.41676
0.196292
0.317222
0.39078
0.193587
0.610405
0.661278
0.619578
0.266425
0.308944
0.216108
0.280104
0.472329
0.172485
0.481783
0.629504
0.158604
0.299938
0.244883
0.546929
0.472408
0.309765
0.20101
0.513087
0.223812
0.158648
0.183886
0.664
0.0863576
0.546877
0.431482
0.230384
0.619964
0.422918
0.649318
0.152736
0.301188
0.395923
0.616142
0.281578
0.606963
0.425416
0.086824
0.372828
0.257133
0.2951
0.0798576
0.5287
0.301803
0.19964
0.119002
0.374982
0.58555
0.0275924
0.273845
0.589499
0.301163
0.573319
0.0758274
0.23242
0.224128
0.341165
0.282306
0.135377
0.224397
0.0404662
0.322736
0.32893
0.538056
0.383544
0.592523
0.210782
0.306502
0.138995
0.361281
0.0372973
0.310631
0.67478
0.321953
0.26413
0.658387
0.210509
0.419333
0.455891
0.131544
0.271561
0.355974
0.400403
0.627235
0.651867
0.653706
0.40986
0.30323
0.343688
0.191082
0.564241
0.460521
0.228492
0.278645
0.258197
0.350782
0.653092
0.322491
0.648883
0.300427
0.43841
0.195701
0.221134
0.139393
0.243455
0.604265
0.260009
0.150593