/*--------------------------------*- C++ -*----------------------------------*\
  =========                 |
  \\      /  F ield         | OpenFOAM: The Open Source CFD Toolbox
   \\    /   O peration     | Website:  https://openfoam.org
    \\  /    A nd           | Version:  6
     \\/     M anipulation  |
\*---------------------------------------------------------------------------*/
FoamFile
{
    version     2.0;
    format      ascii;
    class       surfaceScalarField;
    location    "0";
    object      Phi_rec;
}
// * * * * * * * * * * * * * * * * * * * * * * * * * * * * * * * * * * * * * //

dimensions      [0 3 -1 0 0 0 0];

internalField   nonuniform List<scalar> 
17780
(
0.00132168
0.000971133
0.000939643
0.000590745
0.000603528
0.000302534
0.000441428
0.000167829
0.000350764
0.000100996
0.000296547
6.09887e-05
0.000261895
4.63053e-05
0.000237203
2.24849e-05
0.000220001
1.41184e-05
0.000208852
6.194e-06
0.000200909
1.67728e-05
0.000193909
1.58863e-05
0.000189917
1.39754e-05
0.000189242
1.36057e-05
0.000187522
2.64523e-06
0.000184757
-3.06932e-06
0.000182461
-5.66843e-06
0.000181223
1.17555e-06
0.000181489
7.59249e-06
0.00018263
1.37056e-05
0.00018278
9.89587e-06
0.000181952
1.07048e-05
0.000181628
6.70652e-06
0.000181554
8.0795e-06
0.000182315
9.61479e-06
0.000181716
5.50223e-06
0.000180584
-1.44996e-06
0.00018172
3.71139e-07
0.000181342
-8.90378e-06
0.000181358
-4.2729e-06
0.000182311
-2.78546e-06
0.000181595
-9.40603e-06
0.000181384
-1.16756e-05
0.000180669
-1.08574e-05
0.000179915
-6.45522e-06
0.000180442
-3.42125e-06
0.000181401
-4.43661e-07
0.000182552
-3.98677e-06
0.000183815
-3.93668e-06
0.000184972
-2.02391e-06
0.000184797
-3.8593e-06
0.000184979
-8.28325e-06
0.000186873
-5.42298e-06
0.000190569
-7.02156e-06
0.000195526
-1.15116e-05
0.000202028
-2.10327e-05
0.000217398
-2.67765e-05
0.000253799
-3.539e-05
0.000342397
-9.75992e-05
-0.000301059
0.000579302
0.00222781
0.00130834
0.00186842
0.00108724
0.00144333
0.000702004
0.00115809
0.000441862
0.000966977
0.000285879
0.000839159
0.000187594
0.000750195
0.000131808
0.000686388
8.04563e-05
0.000644035
5.79179e-05
0.000615453
3.85551e-05
0.000591453
3.71268e-05
0.000570876
2.80156e-05
0.000557352
2.3901e-05
0.000550925
2.54694e-05
0.000546787
9.54056e-06
0.000543326
1.55906e-06
0.000539937
-1.73228e-06
0.000537014
1.26239e-06
0.000535318
1.16309e-05
0.000535315
1.59894e-05
0.000535318
1.77846e-05
0.000533225
1.12754e-05
0.000532716
1.00178e-05
0.000533626
1.32923e-05
0.00053329
1.49657e-05
0.000530706
3.17402e-06
0.000529584
-8.8316e-07
0.000531403
-4.68646e-06
0.000532222
-1.66554e-05
0.000532966
-6.62751e-06
0.000532138
-8.99871e-06
0.000531343
-1.18421e-05
0.000532936
-1.41303e-05
0.000532026
-1.4256e-05
0.000531037
-6.92627e-06
0.000531747
-9.88856e-07
0.000533413
-3.87131e-07
0.000537541
8.32983e-07
0.000540955
-6.00861e-06
0.000542853
-1.90633e-06
0.000544272
-7.97736e-06
0.000547959
-1.65781e-05
0.000553379
-1.83426e-05
0.000561533
-2.33382e-05
0.000577011
-2.94249e-05
0.000602856
-4.60332e-05
0.000644873
-6.77024e-05
0.000716607
-0.000117823
0.000851861
-0.000231103
-0.000500791
0.00103621
0.00251577
0.00119123
0.0023303
0.00131707
0.00199248
0.00102335
0.0017006
0.000720268
0.00147626
0.000505832
0.00131121
0.000353434
0.00118743
0.000243503
0.00109805
0.000172983
0.00103749
0.000128289
0.000995678
9.41583e-05
0.000959093
6.85915e-05
0.00092754
4.41332e-05
0.000907738
4.05679e-05
0.000895776
3.61932e-05
0.000886927
1.80762e-05
0.000881054
9.29719e-06
0.000878022
7.54224e-06
0.000875734
4.23828e-06
0.000872584
1.35145e-05
0.000870556
1.10312e-05
0.00086877
1.84018e-05
0.000866846
6.22793e-06
0.000867974
1.07668e-05
0.000866555
1.22209e-05
0.000863292
1.21585e-05
0.000862421
1.68329e-06
0.000860561
-4.69425e-06
0.000861992
-7.56857e-06
0.000865442
-1.76385e-05
0.000865623
-1.02833e-05
0.000863589
-9.0494e-06
0.000862421
-9.79979e-06
0.000865798
-8.03906e-06
0.00086764
-1.15133e-05
0.000865824
-7.68982e-06
0.000865915
2.74683e-06
0.000868719
4.12986e-07
0.000873865
3.3014e-06
0.000878867
-6.37505e-06
0.000880986
-5.82107e-06
0.000884324
-1.47219e-05
0.000893095
-2.17197e-05
0.000904182
-3.22338e-05
0.000919395
-4.08264e-05
0.000943012
-5.58702e-05
0.0009809
-8.32806e-05
0.00104045
-0.000126178
0.00112969
-0.000218714
0.0012633
-0.00036511
-0.00065934
0.00140018
0.00260192
0.00101875
0.00255062
0.00138626
0.00232942
0.00123666
0.00209037
0.00095665
0.00187652
0.000712767
0.00170377
0.000521865
0.00157092
0.000380798
0.00147076
0.00028261
0.00139686
0.000213771
0.00134158
0.000158877
0.00129772
0.000113346
0.0012646
7.66771e-05
0.00123874
6.5575e-05
0.00121878
4.67127e-05
0.00120869
2.87884e-05
0.00120307
1.86828e-05
0.00119783
1.12864e-05
0.00119457
6.0534e-06
0.00119106
1.44253e-05
0.00118724
1.14337e-05
0.00118353
1.36997e-05
0.00118224
2.03459e-06
0.00118385
7.40847e-06
0.00118115
5.44567e-06
0.00117606
5.84313e-06
0.00117311
1.1612e-06
0.00117128
-7.15722e-06
0.00117494
-1.53895e-06
0.00118028
-1.05467e-05
0.00118114
-1.0555e-05
0.0011795
-1.63381e-06
0.00117824
-3.18462e-06
0.00118111
-8.9856e-07
0.00118403
-5.86884e-06
0.00118364
-5.05803e-06
0.00118343
1.67943e-06
0.00118501
-4.5256e-06
0.00119057
-2.50802e-06
0.00119845
-1.29888e-05
0.00120272
-1.62051e-05
0.00120703
-2.84668e-05
0.00121868
-3.27265e-05
0.00123444
-4.83313e-05
0.00125498
-6.58552e-05
0.00128687
-9.38317e-05
0.00133231
-0.000133232
0.00139834
-0.000195632
0.00149178
-0.000309756
0.00161009
-0.000482113
-0.000770186
0.00171025
0.00261394
0.000861587
0.00264771
0.0013675
0.00253027
0.00134429
0.00235845
0.00112415
0.00218016
0.000879607
0.0020243
0.0006781
0.00189907
0.000522302
0.00179689
0.000390199
0.00171728
0.000300281
0.00165773
0.00022636
0.00161056
0.000163893
0.00157459
0.000119504
0.00154515
9.16128e-05
0.00152262
6.05777e-05
0.0015105
4.40399e-05
0.00150282
3.05323e-05
0.00149788
1.68154e-05
0.00149413
1.29539e-05
0.00148893
1.80684e-05
0.00148484
1.67854e-05
0.00148132
1.18482e-05
0.00148047
2.97185e-06
0.00148148
3.97485e-06
0.00147717
-7.73555e-07
0.00147014
2.80736e-09
0.00146862
4.89493e-06
0.00146873
-3.60575e-06
0.00147001
1.65415e-06
0.00147624
-5.90472e-07
0.00147907
-6.8773e-06
0.00147623
2.64665e-06
0.00147375
1.60142e-06
0.00147594
8.26476e-06
0.00148164
6.47546e-06
0.00148329
4.40833e-06
0.00148117
-1.97991e-06
0.00148335
-7.63277e-06
0.00149056
-8.82924e-06
0.00149854
-2.23559e-05
0.0015048
-2.88794e-05
0.00151259
-4.00747e-05
0.00152662
-5.08475e-05
0.00154568
-6.97162e-05
0.0015703
-9.97386e-05
0.001605
-0.000139283
0.00165366
-0.000189211
0.00172219
-0.000261151
0.00181023
-0.00038431
0.00190711
-0.00057348
-0.000844003
0.00197893
0.00260462
0.000728048
0.0026809
0.0012962
0.00263936
0.00137276
0.00253492
0.00122413
0.00240914
0.00101183
0.0022844
0.000815939
0.00217156
0.000639845
0.00207812
0.000489381
0.00200202
0.00037885
0.00194015
0.000286911
0.00189381
0.000212378
0.00185906
0.000159797
0.00182735
0.000115836
0.00180346
7.98967e-05
0.00179133
6.13497e-05
0.00178281
4.32788e-05
0.00177891
2.69906e-05
0.00177824
2.67784e-05
0.00177138
2.35684e-05
0.00176149
1.50358e-05
0.00175646
1.19844e-05
0.00175713
5.59766e-06
0.00175905
4.89218e-07
0.00175621
-1.83161e-06
0.00174918
-4.70294e-06
0.00174615
7.19428e-06
0.00174635
3.82578e-07
0.00174721
-2.0451e-07
0.00175378
5.14489e-06
0.00175982
1.37423e-06
0.00175724
4.29159e-06
0.00175285
3.18965e-06
0.00175511
1.42923e-05
0.00175946
1.47403e-05
0.00175886
6.83975e-06
0.0017589
-4.76341e-06
0.00176296
-6.72166e-06
0.00177037
-1.42767e-05
0.00178083
-2.38318e-05
0.00178888
-3.81821e-05
0.00179812
-4.7209e-05
0.00181324
-6.68999e-05
0.00183254
-9.01003e-05
0.0018607
-0.000127679
0.00190181
-0.000174976
0.00195163
-0.000239385
0.00201397
-0.000324262
0.00209187
-0.000451343
0.00216928
-0.000644325
-0.000899435
0.00221727
0.00258622
0.000617693
0.00268292
0.00119526
0.00269643
0.0013463
0.00265333
0.00126998
0.00257788
0.00110374
0.00248497
0.000910929
0.00239444
0.000727578
0.0023169
0.000570648
0.00224939
0.000439451
0.00219345
0.000333923
0.0021503
0.000251674
0.00211521
0.00018975
0.00208566
0.000137786
0.00206531
0.00010263
0.00205225
7.46782e-05
0.00204337
5.22066e-05
0.00204075
3.39404e-05
0.00203722
3.10841e-05
0.00202846
2.22591e-05
0.00202109
1.7161e-05
0.00201715
1.0492e-05
0.00201635
6.054e-06
0.00201709
-1.29152e-06
0.00201674
-1.93647e-06
0.00201095
-6.88002e-06
0.00200529
-4.40723e-07
0.00200666
5.48449e-06
0.0020086
-7.30172e-08
0.00201332
1.45944e-06
0.00201885
5.31016e-06
0.00201875
1.89412e-06
0.00201719
6.71439e-06
0.00201611
8.60841e-06
0.00201661
8.98007e-06
0.00201762
-8.62162e-07
0.0020195
-7.87912e-06
0.00202381
-1.11646e-05
0.00203107
-2.168e-05
0.00204284
-2.45803e-05
0.00205329
-4.09334e-05
0.0020632
-5.98618e-05
0.0020792
-8.12238e-05
0.0021003
-0.000111684
0.00212941
-0.000152654
0.00217126
-0.000203385
0.00222169
-0.000282221
0.00227769
-0.000381541
0.00233931
-0.000516716
0.00239668
-0.000703838
-0.000937352
0.0024284
0.00257048
0.000529253
0.00267434
0.00108547
0.00272555
0.00128283
0.00272926
0.00126338
0.00269663
0.00113877
0.00263878
0.000955894
0.00257485
0.000783834
0.00251609
0.000628912
0.00246112
0.0004841
0.00241463
0.00037136
0.00237871
0.000281779
0.00234878
0.000215087
0.00232203
0.000158774
0.00230261
0.000120499
0.0022908
8.88075e-05
0.002284
6.13185e-05
0.00228335
3.96758e-05
0.00227938
2.94376e-05
0.00226913
1.41599e-05
0.00226124
2.0674e-05
0.00225549
9.05126e-06
0.002255
1.01723e-05
0.00225861
5.00303e-06
0.00225868
-6.40602e-06
0.00225383
-8.591e-06
0.00224825
-1.16046e-05
0.00224804
2.63923e-06
0.00225167
-1.12564e-06
0.00225715
-4.23356e-06
0.00226141
-3.15953e-06
0.00226074
-6.82177e-06
0.00225858
1.30093e-06
0.00225765
-1.72481e-06
0.00225724
-3.5198e-08
0.00225792
-5.11876e-06
0.00226157
-1.06766e-05
0.00226711
-1.79665e-05
0.00227497
-2.79247e-05
0.00228638
-3.167e-05
0.00229751
-4.60457e-05
0.00230939
-7.57345e-05
0.00232585
-9.7126e-05
0.00234611
-0.000135261
0.00237431
-0.00018053
0.00241393
-0.000233913
0.00246048
-0.000320018
0.00251117
-0.000424792
0.00256172
-0.000568664
0.0026013
-0.000750418
-0.000963102
0.00261764
0.00255326
0.000453077
0.00265969
0.000972985
0.00273892
0.0011971
0.00277819
0.00121769
0.00277893
0.00112767
0.00275459
0.000969356
0.00271888
0.000813286
0.00268015
0.000665302
0.00264301
0.000524167
0.00261022
0.000405381
0.00258252
0.000306535
0.00255848
0.000239023
0.00253642
0.000177724
0.00251886
0.000131895
0.00250831
0.000104142
0.00250332
7.39739e-05
0.0025032
5.1079e-05
0.00250169
3.18656e-05
0.0024932
1.28981e-05
0.00248313
1.47172e-05
0.00247868
1.41525e-05
0.00247854
1.76199e-05
0.00247918
9.36287e-06
0.00248012
-1.0241e-05
0.00247853
-1.15903e-05
0.00247457
-1.81388e-05
0.00247083
-7.56302e-06
0.00247176
-7.8085e-06
0.00247864
-3.99602e-06
0.0024851
-1.11987e-05
0.00248622
-1.33044e-05
0.00248283
-1.3085e-05
0.00248004
-1.03679e-05
0.00248052
-6.67079e-06
0.00248264
-5.08928e-06
0.00248501
-1.25848e-05
0.0024909
-1.9219e-05
0.00250143
-3.05175e-05
0.00251112
-4.26718e-05
0.00251999
-5.81971e-05
0.00253313
-8.73483e-05
0.00255027
-0.000112814
0.00257182
-0.000156425
0.00259883
-0.00020502
0.00263376
-0.000269193
0.00267583
-0.000352687
0.00271718
-0.00046705
0.00275619
-0.000605299
0.00278474
-0.00078068
-0.000977733
0.00278954
0.00253967
0.000383893
0.00264303
0.00086218
0.00273822
0.00109874
0.00280456
0.00115341
0.00283732
0.00109074
0.00284636
0.000963
0.00283724
0.000819103
0.00281659
0.000677754
0.00279525
0.00054775
0.00277754
0.000431124
0.00276202
0.000327677
0.00274481
0.00025556
0.002728
0.000191277
0.00271584
0.000140811
0.00270598
0.000108742
0.00270155
8.33917e-05
0.0027033
6.32959e-05
0.00270327
3.7253e-05
0.00269818
1.9897e-05
0.00269058
1.18835e-05
0.00268463
1.97397e-05
0.00267953
1.94798e-05
0.00267869
7.29826e-06
0.00268233
-4.70979e-06
0.00268166
-1.27114e-05
0.00267944
-1.73046e-05
0.00267811
-9.33436e-06
0.00267774
-6.30418e-06
0.00268236
-6.0374e-06
0.00268918
-9.94594e-06
0.00269134
-1.57051e-05
0.00268982
-2.08988e-05
0.0026896
-1.54013e-05
0.00268795
-1.34634e-05
0.00268549
-1.04622e-05
0.00268857
-1.35425e-05
0.00269654
-1.76811e-05
0.00270685
-3.11639e-05
0.00271606
-5.03233e-05
0.00272564
-6.97141e-05
0.00273958
-9.43475e-05
0.0027549
-0.000130576
0.00277412
-0.000178153
0.00279986
-0.00023062
0.00283114
-0.000302922
0.00286612
-0.000386976
0.00289898
-0.000505121
0.0029269
-0.000638552
0.00294542
-0.000800702
-0.000979417
0.00294382
0.00252952
0.000328843
0.00263106
0.000763218
0.00273702
0.000995854
0.00282205
0.00107151
0.00287805
0.00103103
0.0029129
0.000932172
0.00292933
0.000799684
0.00293059
0.000667398
0.00292462
0.000545584
0.00292033
0.000434516
0.00291766
0.000337401
0.00290833
0.000262714
0.00289884
0.000198879
0.00289239
0.000142284
0.0028855
0.000102287
0.00288125
8.24091e-05
0.00288163
6.33997e-05
0.00288431
4.3881e-05
0.00288381
2.60229e-05
0.00287926
1.43324e-05
0.00287146
1.71785e-05
0.00286217
1.5057e-05
0.00286064
5.7561e-06
0.00286596
2.68621e-06
0.00286799
-1.20654e-05
0.00286676
-1.3745e-05
0.00286455
-7.12396e-06
0.00286433
-1.78546e-06
0.00286779
-9.86236e-06
0.00287324
-5.92825e-06
0.00287753
-1.4711e-05
0.00287871
-1.72904e-05
0.00287807
-1.5624e-05
0.00287639
-1.93237e-05
0.00287525
-1.80119e-05
0.00287643
-1.91564e-05
0.00288104
-2.59147e-05
0.00289152
-3.52138e-05
0.00290238
-5.29474e-05
0.00291136
-7.93721e-05
0.00292288
-0.000103813
0.00293678
-0.000148873
0.00295504
-0.000196819
0.00297759
-0.000254824
0.00300428
-0.000325041
0.0030339
-0.00041482
0.00306059
-0.000525405
0.00307911
-0.000664529
0.00308738
-0.00081158
-0.000973857
0.00307907
0.00252285
0.000281802
0.00262049
0.000668585
0.00273168
0.00089006
0.00282969
0.000965503
0.00290574
0.000949601
0.0029634
0.000875181
0.00300167
0.000755443
0.00302299
0.00063583
0.00303419
0.000520759
0.00304286
0.00041587
0.0030504
0.000327954
0.00305005
0.000256474
0.00304636
0.000196329
0.00304659
0.00013886
0.00304643
9.77869e-05
0.00304387
7.76504e-05
0.00304417
5.80138e-05
0.00304714
4.50682e-05
0.00304873
2.73617e-05
0.00304658
1.44155e-05
0.00303785
1.02277e-05
0.00302776
8.57013e-06
0.00302584
5.2746e-06
0.00302955
4.51006e-06
0.00303346
-6.22747e-06
0.00303748
-5.16754e-06
0.00303511
-7.98891e-06
0.00303089
-4.69267e-06
0.00303471
-5.34994e-06
0.00304074
-4.88172e-06
0.00304521
-8.80579e-06
0.00304785
-1.11482e-05
0.00304784
-1.47622e-05
0.00304653
-2.38844e-05
0.00304476
-2.61593e-05
0.00304575
-3.11505e-05
0.00305026
-3.93801e-05
0.00305823
-4.19599e-05
0.00306824
-5.90781e-05
0.00307638
-8.90715e-05
0.00308466
-0.000117234
0.00309727
-0.000160037
0.00311479
-0.000207828
0.0031352
-0.000267202
0.00315799
-0.000340714
0.00318012
-0.000430911
0.0031978
-0.000536214
0.00320988
-0.000673594
0.00321134
-0.000807249
-0.000959748
0.00319606
0.00251691
0.000236372
0.00261049
0.000574612
0.00272475
0.000779473
0.00283426
0.000853616
0.0029253
0.000851762
0.00299902
0.000794235
0.00305693
0.000687368
0.00309702
0.000582495
0.00312317
0.00047701
0.00314657
0.000386022
0.00316653
0.00030688
0.00317159
0.000237712
0.00317187
0.00018603
0.00317929
0.000138095
0.00318608
9.88465e-05
0.00318777
7.88963e-05
0.00318927
5.46919e-05
0.00319141
4.24651e-05
0.00319313
2.46203e-05
0.0031934
1.19295e-05
0.00318659
8.44793e-07
0.00317603
-7.45544e-07
0.0031723
2.32847e-06
0.00317603
7.98721e-06
0.0031826
7.60438e-06
0.00318619
5.05572e-06
0.00318283
-6.51335e-06
0.00318164
-3.81444e-06
0.0031854
2.29226e-06
0.00318942
-1.66108e-06
0.00319428
-2.01954e-06
0.00319608
-6.96435e-06
0.00319542
-1.45956e-05
0.00319566
-2.33661e-05
0.0031946
-3.18642e-05
0.00319578
-3.71428e-05
0.00320159
-4.33104e-05
0.00320833
-4.71084e-05
0.00321437
-6.91534e-05
0.00322052
-9.57957e-05
0.00322827
-0.000126627
0.00323985
-0.000165795
0.00325552
-0.00021421
0.0032724
-0.000274038
0.00329005
-0.000351281
0.00330496
-0.000440551
0.00331519
-0.000543758
0.00332148
-0.000666397
0.00331683
-0.000792742
-0.00093529
0.00329565
0.0025146
0.000193972
0.00260376
0.00048519
0.00271678
0.000662625
0.00283567
0.000745853
0.00293874
0.000743828
0.0030246
0.000691613
0.00309885
0.000609317
0.00315549
0.000515495
0.00319755
0.000425305
0.00323328
0.000347524
0.00326218
0.000280576
0.00327674
0.000216499
0.00328388
0.000171121
0.00329634
0.000133203
0.00330754
0.000100465
0.00331092
7.62995e-05
0.00331277
4.82703e-05
0.00331604
3.91058e-05
0.00331943
2.24591e-05
0.00332119
6.75814e-06
0.00331613
-4.91974e-06
0.00330711
-1.13544e-05
0.003304
-5.07164e-07
0.00330702
1.17708e-05
0.00331081
1.45293e-05
0.00331399
7.2656e-06
0.00331474
-2.43955e-06
0.00331307
-4.25233e-06
0.0033152
4.29556e-06
0.00332021
8.01503e-06
0.00332365
3.10651e-06
0.00332493
-1.91927e-06
0.00332527
-1.33847e-05
0.0033261
-2.04364e-05
0.00332599
-3.00476e-05
0.00332975
-3.23488e-05
0.00333504
-4.13883e-05
0.00333679
-5.36098e-05
0.0033409
-7.75739e-05
0.00334754
-0.000102912
0.00335368
-0.000135713
0.00336245
-0.000171515
0.0033745
-0.000219365
0.00338718
-0.000280515
0.00340145
-0.000353161
0.00341152
-0.000441802
0.00341551
-0.0005471
0.00341565
-0.000652241
0.00340443
-0.000776188
-0.000907142
0.00337909
0.00251285
0.000152623
0.00259957
0.000395921
0.00271223
0.000543847
0.00283291
0.000623998
0.00294333
0.00062445
0.00304052
0.000579154
0.00312997
0.000527502
0.00320375
0.000445178
0.00325921
0.000367554
0.00330502
0.000299986
0.00334349
0.000245086
0.00336675
0.000190207
0.00337794
0.000146713
0.00339376
0.000118064
0.00340866
9.90241e-05
0.00341439
6.47074e-05
0.00341961
4.4606e-05
0.00342324
3.10774e-05
0.00342528
1.78132e-05
0.00342819
1.64672e-06
0.00342736
-2.92848e-06
0.00342333
-1.31151e-05
0.0034214
-7.01575e-07
0.00342084
9.40808e-06
0.0034205
3.48261e-06
0.00342275
2.04116e-06
0.00342528
-5.32684e-06
0.00342701
-5.60181e-06
0.00342863
3.85499e-06
0.00343126
1.23086e-05
0.00343454
6.91584e-06
0.00343551
-1.45601e-06
0.00343565
-1.28995e-05
0.00343703
-2.40497e-05
0.00343881
-2.68986e-05
0.0034422
-3.36147e-05
0.00344544
-4.1974e-05
0.00344664
-6.36118e-05
0.00344991
-8.47617e-05
0.00345421
-0.000111999
0.00345879
-0.000146554
0.00346635
-0.000178967
0.00347503
-0.000225245
0.00348352
-0.000283833
0.00349273
-0.00035186
0.00349861
-0.000438907
0.00349859
-0.000543603
0.00349213
-0.000640484
0.00347606
-0.000757186
-0.000879919
0.00344681
0.00251267
0.000118154
0.00259687
0.00030652
0.00270911
0.000429825
0.00282977
0.000492445
0.00294639
0.000498931
0.00305649
0.000472434
0.00315455
0.000432136
0.00323767
0.000368534
0.00330701
0.000302023
0.00336423
0.000244723
0.00340858
0.000199276
0.00343746
0.000152328
0.00345722
0.000115767
0.00347682
9.3673e-05
0.00349044
8.36829e-05
0.00349861
5.39451e-05
0.00350818
4.37905e-05
0.00351175
2.33789e-05
0.00351401
1.25123e-05
0.0035182
3.35946e-06
0.00351913
1.93224e-06
0.00351988
-6.09872e-06
0.00351853
-2.31441e-06
0.00351453
4.81757e-06
0.00351255
-7.34199e-06
0.00351434
-4.79741e-06
0.00351835
-7.5408e-06
0.00352323
-5.50863e-07
0.0035256
6.0241e-06
0.00352433
7.48817e-06
0.00352472
6.25655e-06
0.00352618
-4.29263e-07
0.00352831
-1.20273e-05
0.00353253
-2.72663e-05
0.00353417
-2.73234e-05
0.0035348
-4.18626e-05
0.00353628
-4.93237e-05
0.00353565
-7.57427e-05
0.00353714
-9.44385e-05
0.00354301
-0.000115377
0.00354875
-0.000152608
0.0035523
-0.00018926
0.00355664
-0.000232745
0.00356157
-0.000287327
0.00356462
-0.000352025
0.00356529
-0.000436316
0.00356266
-0.000531407
0.00355077
-0.000628733
0.00352744
-0.000739435
-0.000848961
0.00349572
0.00251349
9.41947e-05
0.00259397
0.000222154
0.00270355
0.000316937
0.00282616
0.000362871
0.00295009
0.000377022
0.00306829
0.000364912
0.00317252
0.000328132
0.00326411
0.000281224
0.00334329
0.000232796
0.00340855
0.000185195
0.00345962
0.000149583
0.00349516
0.000111126
0.0035216
8.39571e-05
0.00354304
6.66053e-05
0.00355612
5.07435e-05
0.0035665
3.83695e-05
0.00357612
3.03377e-05
0.00358075
1.68894e-05
0.00358642
1.3239e-05
0.00359211
9.53685e-06
0.0035939
8.53158e-06
0.00359515
-2.01478e-06
0.00359171
-4.71473e-06
0.0035864
1.92738e-06
0.00358699
-4.47417e-06
0.00359018
-5.52325e-06
0.00359504
-1.14463e-06
0.00360007
6.24371e-06
0.00360096
6.79568e-06
0.00359894
4.67688e-06
0.003598
1.36221e-06
0.00359837
7.80389e-07
0.00360183
-1.10021e-05
0.00360682
-2.38812e-05
0.00360857
-3.44263e-05
0.00360929
-4.46326e-05
0.00360833
-5.91399e-05
0.00360795
-8.63669e-05
0.00360953
-0.000104978
0.00361211
-0.000119715
0.00361618
-0.000158188
0.0036193
-0.000197051
0.00362122
-0.000240604
0.00362084
-0.000293031
0.00361775
-0.000354305
0.00361487
-0.000429996
0.00360921
-0.000514166
0.00359245
-0.000610478
0.00356499
-0.00071402
-0.000812222
0.00352885
0.00250892
6.71449e-05
0.00259139
0.000148362
0.00270261
0.000206193
0.00282715
0.00023681
0.00295372
0.000247555
0.00307446
0.00023976
0.00318451
0.00021639
0.00328218
0.000183655
0.00336847
0.000158461
0.00344107
0.000125056
0.00349594
0.000100689
0.00353571
7.31488e-05
0.00356786
5.33726e-05
0.00359409
4.56087e-05
0.00360938
2.12962e-05
0.00361846
1.62285e-05
0.00362724
1.15545e-05
0.00363372
9.91995e-06
0.00364108
1.16778e-05
0.00364632
1.06003e-05
0.00364665
1.18302e-05
0.00364977
-1.09906e-06
0.00364921
-2.04718e-06
0.00364201
-3.68724e-09
0.00364157
5.50696e-08
0.00364773
3.04038e-08
0.00365389
4.1286e-06
0.00365744
1.03983e-05
0.00365716
7.99165e-06
0.00365605
6.75572e-06
0.00365518
1.35761e-06
0.00365227
-5.3424e-06
0.00365441
-1.22533e-05
0.00366168
-1.96268e-05
0.0036627
-4.25257e-05
0.00366121
-4.77029e-05
0.00366064
-5.9722e-05
0.00366208
-8.79294e-05
0.00366355
-0.000107922
0.00366241
-0.000130739
0.00366454
-0.000162179
0.00366663
-0.000194972
0.00366575
-0.000241684
0.00366225
-0.000289788
0.00365481
-0.000351719
0.00364692
-0.000420602
0.00363601
-0.000494538
0.00361607
-0.000583408
0.00358792
-0.000674446
-0.000770949
0.00354956
0.00250328
3.41396e-05
0.00258507
7.37984e-05
0.00269985
9.65199e-05
0.0028285
0.000114336
0.00295672
0.000111251
0.00307868
0.000107081
0.00319213
9.64613e-05
0.00329539
8.71502e-05
0.00338532
7.98979e-05
0.0034606
6.22487e-05
0.00352026
4.66073e-05
0.00356482
2.99193e-05
0.0035974
1.59703e-05
0.0036222
1.82499e-05
0.00364099
4.62045e-06
0.00365462
2.50113e-06
0.00366589
1.88118e-06
0.0036734
3.60495e-06
0.0036795
1.99661e-06
0.00368201
4.75469e-06
0.00368078
6.72576e-06
0.00368618
2.77417e-06
0.00368704
2.36706e-06
0.00367956
-4.59458e-06
0.00367993
1.72508e-06
0.00368691
4.58688e-06
0.00369263
7.96383e-06
0.00369487
1.0807e-05
0.00369408
1.37388e-05
0.00369218
8.92178e-06
0.00369127
4.34426e-06
0.00368948
-7.30749e-06
0.00368967
-1.28779e-05
0.00369503
-1.83043e-05
0.00369932
-4.18691e-05
0.00369724
-4.87791e-05
0.0036932
-5.64575e-05
0.00369666
-7.69773e-05
0.0036987
-9.93037e-05
0.00369506
-0.000133656
0.00369514
-0.000159034
0.00369495
-0.00018661
0.00369208
-0.000230167
0.00368638
-0.000278103
0.0036766
-0.000338321
0.00366454
-0.00040674
0.00364938
-0.000474995
0.00362587
-0.000555576
0.00359227
-0.000640653
-0.000732986
0.00355113
0.00250293
5.4399e-06
0.00258378
-5.41139e-06
0.0026974
-1.03711e-05
0.00282502
-1.1977e-05
0.00295593
-2.29281e-05
0.00308184
-2.30554e-05
0.00319885
-2.59139e-05
0.00330449
-1.04397e-05
0.0033954
-3.13726e-06
0.00347173
-6.97387e-06
0.00353109
-1.50758e-05
0.00357766
-1.52684e-05
0.00361355
-2.24302e-05
0.00363809
-1.707e-05
0.00365724
-1.39224e-05
0.00367283
-1.06044e-05
0.00368398
-4.08819e-06
0.00369071
-5.76413e-06
0.00369789
-6.89355e-06
0.00370078
-7.61434e-07
0.00369889
-3.70477e-06
0.00370424
4.37642e-06
0.00370526
-8.70044e-07
0.00369883
-1.12684e-05
0.00370008
4.76549e-06
0.00370743
9.22653e-06
0.00371366
1.30748e-05
0.00371531
1.15943e-05
0.00371339
1.60953e-05
0.00371016
8.05013e-06
0.00370772
3.44127e-06
0.00370674
-7.43992e-06
0.00370683
-1.48981e-05
0.00371033
-1.69907e-05
0.00371662
-3.35603e-05
0.00371623
-3.92555e-05
0.00370962
-5.52996e-05
0.00370961
-6.58421e-05
0.00371144
-8.98068e-05
0.00371102
-0.000122402
0.00371044
-0.000149771
0.00370646
-0.000180504
0.00370013
-0.000217024
0.00368957
-0.000268199
0.00367762
-0.000323443
0.00366546
-0.000383671
0.00364662
-0.000457297
0.00361864
-0.000530699
0.00358032
-0.000613877
-0.000696169
0.00353607
0.00249752
-2.78991e-05
0.00258031
-8.27949e-05
0.00269778
-0.000113545
0.00282565
-0.000142649
0.00295614
-0.000157704
0.0030839
-0.00015633
0.00320273
-0.000147623
0.00330631
-0.000120597
0.00339308
-9.77483e-05
0.00346721
-8.2984e-05
0.00352789
-7.23528e-05
0.00357691
-5.54162e-05
0.00361566
-5.23045e-05
0.00364177
-4.60579e-05
0.00365963
-3.57986e-05
0.00367376
-2.85244e-05
0.00368384
-1.59025e-05
0.00369101
-1.75997e-05
0.00369941
-1.19502e-05
0.00370293
-6.46087e-06
0.00370061
-1.18437e-05
0.00370215
3.84747e-07
0.003703
-3.35573e-06
0.00370168
-7.41338e-06
0.00370401
8.36719e-06
0.00370941
1.24236e-05
0.00371513
1.66881e-05
0.00371673
1.09098e-05
0.00371225
5.71715e-06
0.0037081
5.08179e-06
0.00370706
2.4425e-06
0.00370579
-1.21708e-05
0.00370479
-1.57152e-05
0.00370816
-1.52425e-05
0.00371555
-2.28975e-05
0.00371649
-3.04565e-05
0.00371044
-5.17957e-05
0.00370694
-6.52809e-05
0.00370487
-8.85578e-05
0.00370484
-0.000110407
0.00370557
-0.00013823
0.00369914
-0.000180086
0.00368868
-0.000212452
0.00367674
-0.000261541
0.00366226
-0.000313939
0.00364646
-0.000360571
0.00362507
-0.000433295
0.00359384
-0.000501864
0.00355355
-0.000578294
-0.000647004
0.00350878
0.00249732
-6.74943e-05
0.00258096
-0.000160466
0.00269476
-0.00022512
0.00282143
-0.000270233
0.00295338
-0.000287418
0.00308197
-0.000286747
0.0032031
-0.000260503
0.00330472
-0.000226976
0.00338575
-0.000191379
0.00345804
-0.000156106
0.00351761
-0.000125224
0.00356261
-9.84842e-05
0.00359894
-8.19738e-05
0.00362477
-7.07264e-05
0.00364446
-5.21887e-05
0.00365922
-4.06746e-05
0.00366652
-3.49009e-05
0.00367332
-2.81237e-05
0.00368096
-1.41643e-05
0.00368335
-1.47922e-05
0.00368248
-1.1697e-05
0.00368387
-1.04068e-06
0.00368671
1.54604e-06
0.00368892
3.51726e-06
0.00368948
6.85389e-06
0.00369176
7.6379e-06
0.003697
1.5662e-05
0.00369789
4.78806e-06
0.00369377
-8.13662e-06
0.00368837
-1.01397e-06
0.00368449
-1.49464e-06
0.00368656
-1.17632e-05
0.00368924
-1.24186e-05
0.00369178
-1.8253e-05
0.00369645
-2.27105e-05
0.00369444
-3.45855e-05
0.00368787
-5.30776e-05
0.00368485
-6.9972e-05
0.00368304
-9.04568e-05
0.00368165
-0.00010582
0.00367999
-0.000133122
0.00367282
-0.000176721
0.00366053
-0.000206424
0.00364668
-0.000255053
0.00363015
-0.000302359
0.00361038
-0.000345089
0.00358706
-0.00040441
0.00355481
-0.000469847
0.00351427
-0.000535384
-0.000591402
0.00346914
0.00250014
-0.000102656
0.00258242
-0.000239612
0.0026945
-0.000339402
0.00282029
-0.000390233
0.00295158
-0.000410832
0.00307919
-0.000402929
0.00319587
-0.000365113
0.00329303
-0.000321685
0.00337185
-0.000272125
0.00343993
-0.000221246
0.00349337
-0.000174541
0.00353427
-0.000140496
0.00356922
-0.000107415
0.0035946
-9.00317e-05
0.0036122
-6.95405e-05
0.00362444
-5.10089e-05
0.00363199
-4.35119e-05
0.00363902
-3.14585e-05
0.00364571
-1.35613e-05
0.00364857
-1.77827e-05
0.00364875
-1.14128e-05
0.0036495
-1.47712e-06
0.00365089
3.32136e-06
0.0036521
5.90865e-06
0.00365386
-2.7723e-06
0.00365623
-3.80892e-07
0.00365658
6.74521e-06
0.0036579
9.47054e-07
0.00365873
-7.53951e-06
0.0036524
-6.11745e-06
0.00364752
-7.64277e-06
0.00365049
-6.33601e-06
0.00365264
-1.37387e-05
0.00365432
-2.13922e-05
0.00365776
-2.99565e-05
0.00365532
-4.18227e-05
0.00364839
-5.90773e-05
0.00364564
-7.2443e-05
0.00364393
-9.1418e-05
0.00363803
-0.000107168
0.00363302
-0.000129666
0.00362723
-0.00016383
0.00361439
-0.000193736
0.00360096
-0.000237762
0.0035854
-0.000280096
0.00356075
-0.000329091
0.00353264
-0.000380463
0.00350095
-0.00043629
0.00346123
-0.000491932
-0.000540818
0.00341441
0.0025042
-0.000135702
0.00258649
-0.000319901
0.00269696
-0.000452814
0.00281905
-0.000513804
0.00294696
-0.000530187
0.00307282
-0.000507609
0.00318547
-0.000461414
0.00327655
-0.000407639
0.00334768
-0.000346705
0.00340933
-0.00027824
0.00345845
-0.000217446
0.00349325
-0.000174119
0.00352389
-0.000127952
0.00354818
-0.000105714
0.00356187
-9.07449e-05
0.00357125
-6.22359e-05
0.00358174
-3.93993e-05
0.00358855
-2.80907e-05
0.00359092
-1.91933e-05
0.00359456
-1.47724e-05
0.00359603
-1.48537e-05
0.00359532
-6.96393e-06
0.00359557
-1.02496e-06
0.00359587
-4.5159e-07
0.00359877
-1.17974e-05
0.00360174
-4.74855e-06
0.0036
-2.91494e-06
0.00360049
1.4032e-06
0.0036032
-1.65528e-06
0.00359834
-6.01547e-06
0.00359278
-1.00769e-05
0.00359401
-5.8111e-06
0.00359467
-2.07671e-05
0.00359665
-2.34377e-05
0.00360041
-3.36102e-05
0.00359707
-4.55072e-05
0.00359009
-5.97064e-05
0.00358795
-7.29081e-05
0.0035865
-8.89621e-05
0.00357988
-0.000109649
0.00357386
-0.00012442
0.00356539
-0.000153255
0.00354962
-0.000183072
0.00353529
-0.000214558
0.00351912
-0.000257071
0.00349441
-0.000307626
0.00346572
-0.00035493
0.00343319
-0.000400299
0.00339284
-0.000449816
-0.00049794
0.00334357
0.00250879
-0.00016958
0.00259261
-0.000401524
0.00270178
-0.000569893
0.0028205
-0.000643002
0.00294396
-0.000644544
0.00306186
-0.000614828
0.00316486
-0.000552236
0.00324917
-0.000482801
0.00331585
-0.000411023
0.00336937
-0.000328707
0.00340911
-0.000262004
0.0034388
-0.000204905
0.00346162
-0.000155532
0.00348062
-0.000125682
0.00349799
-0.000101181
0.00350706
-7.15924e-05
0.00351242
-4.67473e-05
0.00351701
-3.09816e-05
0.00351774
-2.87711e-05
0.00352098
-1.70692e-05
0.00352411
-1.89544e-05
0.00352351
-1.42282e-05
0.00352038
-1.14977e-05
0.00351886
-1.07326e-05
0.00352449
-1.3725e-05
0.00352964
-3.51485e-06
0.00352841
-5.64225e-06
0.00352778
-2.58282e-06
0.00352789
-5.54132e-06
0.00352402
-7.48725e-06
0.00351958
-6.50613e-06
0.00351912
-8.68227e-06
0.00352059
-2.33681e-05
0.00352166
-2.90247e-05
0.00352311
-3.82375e-05
0.00352006
-4.93239e-05
0.00351371
-5.89234e-05
0.00351141
-7.09388e-05
0.00351067
-8.10308e-05
0.00350428
-0.000104815
0.00349557
-0.000118718
0.00348642
-0.000144336
0.0034709
-0.000172434
0.00345343
-0.000198371
0.00343428
-0.000240813
0.00341007
-0.000284328
0.00338252
-0.000320892
0.0033499
-0.000362193
0.0033086
-0.00040983
-0.000459738
0.00325781