/*--------------------------------*- C++ -*----------------------------------*\
  =========                 |
  \\      /  F ield         | OpenFOAM: The Open Source CFD Toolbox
   \\    /   O peration     | Website:  https://openfoam.org
    \\  /    A nd           | Version:  6
     \\/     M anipulation  |
\*---------------------------------------------------------------------------*/
FoamFile
{
    version     2.0;
    format      ascii;
    class       volVectorField;
    location    "0";
    object      U;
}
// * * * * * * * * * * * * * * * * * * * * * * * * * * * * * * * * * * * * * //

dimensions      [0 1 -1 0 0 0 0];

internalField   nonuniform List<vector> 
10000
(
(4.60001 4.18017 0)
(3.78495 0.462414 0)
(-0.531262 0.0246378 0)
(0.069038 -0.034318 0)
(0.324933 -0.339288 0)
(1.28014 -0.601495 0)
(2.95227 -0.752633 0)
(5.18315 -0.784643 0)
(7.71626 -0.711862 0)
(10.2205 -0.548823 0)
(12.3734 -0.3092 0)
(13.9199 -0.0250227 0)
(14.6745 0.283369 0)
(14.5363 0.589737 0)
(13.3278 0.897058 0)
(11.5786 1.25718 0)
(6.28079 -0.128769 0)
(7.55717 -0.209826 0)
(3.95389 1.52785 0)
(1.55489 1.44397 0)
(-0.972486 1.05517 0)
(-3.36333 0.846396 0)
(-5.86915 0.699333 0)
(-8.39951 0.603776 0)
(-10.7016 0.485641 0)
(-12.8201 0.35087 0)
(-14.7544 0.256869 0)
(-16.3223 0.172617 0)
(-17.5618 0.0674745 0)
(-18.5342 -0.0292081 0)
(-19.1586 -0.0946761 0)
(-19.4266 -0.147755 0)
(-19.3824 -0.210095 0)
(-19.0481 -0.264246 0)
(-18.4463 -0.294709 0)
(-17.5848 -0.314643 0)
(-16.4685 -0.336261 0)
(-15.1454 -0.358774 0)
(-13.7045 -0.364068 0)
(-12.1503 -0.351467 0)
(-10.4441 -0.341098 0)
(-8.65688 -0.332103 0)
(-6.90721 -0.313941 0)
(-5.21461 -0.294416 0)
(-3.54603 -0.277019 0)
(-1.90437 -0.251826 0)
(-0.34922 -0.224497 0)
(1.03214 -0.200862 0)
(2.24566 -0.182281 0)
(3.35123 -0.170389 0)
(4.34033 -0.149151 0)
(5.17078 -0.11477 0)
(5.80809 -0.0905402 0)
(6.23592 -0.0791963 0)
(6.49655 -0.0641415 0)
(6.63133 -0.041941 0)
(6.56291 -0.0234315 0)
(6.32349 -0.0353718 0)
(5.94881 -0.0617619 0)
(5.58384 -0.0875166 0)
(5.32026 -0.0199805 0)
(4.84144 0.066522 0)
(4.26307 0.0736631 0)
(3.39247 0.0672998 0)
(2.36912 0.0631302 0)
(1.35154 0.0607237 0)
(0.393156 0.0478377 0)
(-0.540365 0.039735 0)
(-1.44665 0.0452423 0)
(-2.30684 0.0521204 0)
(-3.12398 0.0484436 0)
(-3.88579 0.0422441 0)
(-4.55377 0.040535 0)
(-5.11179 0.0345992 0)
(-5.57707 0.0221022 0)
(-5.95733 0.0143857 0)
(-6.24186 0.0147021 0)
(-6.42865 0.0122345 0)
(-6.52816 0.000315859 0)
(-6.54207 -0.0118427 0)
(-6.46131 -0.0145416 0)
(-6.28963 -0.0139724 0)
(-6.04977 -0.0222287 0)
(-5.7589 -0.0383089 0)
(-5.40308 -0.0517817 0)
(-4.94899 -0.0628758 0)
(-4.38314 -0.0786671 0)
(-3.72919 -0.0957748 0)
(-3.02858 -0.0991637 0)
(-2.34634 -0.0798452 0)
(-1.77563 -0.0479799 0)
(-1.50145 -0.0239673 0)
(-1.35271 -0.120868 0)
(-1.73616 0.108582 0)
(-1.55764 0.313239 0)
(-1.70229 0.1794 0)
(-1.71644 0.149086 0)
(-1.73327 0.122059 0)
(-1.48963 0.0125896 0)
(-0.535122 -0.292207 0)
(0.666952 3.00243 0)
(-0.229046 0.130961 0)
(-2.42784 1.04709 0)
(-2.55082 0.267872 0)
(-2.63572 -0.984064 0)
(-1.84986 -2.31638 0)
(-0.110341 -3.44103 0)
(2.38919 -4.16135 0)
(5.39915 -4.38389 0)
(8.63416 -4.10644 0)
(11.7767 -3.37871 0)
(14.5511 -2.2937 0)
(16.7174 -0.91893 0)
(18.0823 0.680454 0)
(18.6205 2.48009 0)
(17.2191 4.56926 0)
(18.7439 5.57408 0)
(7.59276 4.29447 0)
(7.98925 3.28264 0)
(6.58625 3.14915 0)
(4.24317 3.52695 0)
(1.59293 4.05821 0)
(-1.68873 4.31877 0)
(-5.40073 4.33763 0)
(-9.1565 4.13499 0)
(-12.8055 3.76269 0)
(-16.3627 3.3172 0)
(-19.6255 2.81097 0)
(-22.4906 2.2487 0)
(-24.9616 1.66063 0)
(-26.9328 1.06619 0)
(-28.3377 0.470202 0)
(-29.1839 -0.123594 0)
(-29.4608 -0.690229 0)
(-29.1379 -1.20701 0)
(-28.2134 -1.68084 0)
(-26.7411 -2.11045 0)
(-24.7613 -2.49141 0)
(-22.3214 -2.79673 0)
(-19.475 -3.0109 0)
(-16.2692 -3.1654 0)
(-12.8112 -3.27221 0)
(-9.23251 -3.30729 0)
(-5.579 -3.26161 0)
(-1.88636 -3.15688 0)
(1.74661 -3.00466 0)
(5.22055 -2.82038 0)
(8.44345 -2.60564 0)
(11.3828 -2.34141 0)
(14.0465 -2.04167 0)
(16.3758 -1.72883 0)
(18.2942 -1.40738 0)
(19.7792 -1.08838 0)
(20.8185 -0.767682 0)
(21.4185 -0.418471 0)
(21.5982 -0.0369291 0)
(21.3446 0.346418 0)
(20.5931 0.699784 0)
(19.0006 0.784257 0)
(17.4584 0.644401 0)
(15.6565 0.558302 0)
(14.9084 0.868932 0)
(13.2334 1.44548 0)
(11.1396 1.87623 0)
(8.28889 1.94958 0)
(5.44916 1.84979 0)
(2.67386 1.82327 0)
(-0.0239616 1.78685 0)
(-2.64414 1.73116 0)
(-5.14771 1.65452 0)
(-7.50131 1.55318 0)
(-9.6681 1.42506 0)
(-11.6068 1.27196 0)
(-13.2945 1.09884 0)
(-14.728 0.915017 0)
(-15.903 0.726532 0)
(-16.8117 0.533054 0)
(-17.4552 0.338302 0)
(-17.8403 0.151645 0)
(-17.9705 -0.0196722 0)
(-17.8596 -0.175206 0)
(-17.5395 -0.32259 0)
(-17.0363 -0.473659 0)
(-16.3503 -0.636394 0)
(-15.4632 -0.808141 0)
(-14.3526 -0.984165 0)
(-13.0102 -1.14812 0)
(-11.4633 -1.26456 0)
(-9.77915 -1.27701 0)
(-8.08298 -1.12265 0)
(-6.5652 -0.739769 0)
(-5.58949 -0.108358 0)
(-4.74871 0.7419 0)
(-7.34441 0.0432 0)
(-4.03265 -0.783222 0)
(-3.55633 -0.460357 0)
(-2.94285 -0.298726 0)
(-2.47552 -0.425294 0)
(-1.95107 -0.895117 0)
(-0.633442 -1.34241 0)
(-0.0337384 -0.675127 0)
(-0.498392 0.131545 0)
(-2.90148 1.64468 0)
(-4.16876 0.896128 0)
(-5.02124 -0.902436 0)
(-4.94486 -3.03963 0)
(-3.97577 -5.01033 0)
(-2.36927 -6.44074 0)
(-0.372691 -7.12611 0)
(1.80716 -7.05727 0)
(4.00818 -6.32242 0)
(6.14501 -5.04939 0)
(8.15608 -3.36421 0)
(10.0143 -1.36355 0)
(11.8184 0.851163 0)
(13.6158 3.08264 0)
(15.2986 6.25754 0)
(19.0343 6.05228 0)
(17.079 5.57562 0)
(12.1903 6.72605 0)
(9.64382 6.01824 0)
(6.79774 6.97178 0)
(3.80387 7.64224 0)
(0.804166 7.88672 0)
(-2.15189 7.80812 0)
(-5.09596 7.45986 0)
(-8.06546 6.89077 0)
(-10.9111 6.1646 0)
(-13.5647 5.31274 0)
(-16.0124 4.33079 0)
(-18.1285 3.23759 0)
(-19.8101 2.07658 0)
(-21.0021 0.881272 0)
(-21.6592 -0.323919 0)
(-21.7543 -1.50931 0)
(-21.2355 -2.66746 0)
(-20.071 -3.75134 0)
(-18.2785 -4.7161 0)
(-15.9116 -5.55546 0)
(-13.0174 -6.27386 0)
(-9.61543 -6.85778 0)
(-5.77713 -7.27438 0)
(-1.64558 -7.505 0)
(2.66968 -7.55667 0)
(7.10379 -7.47872 0)
(11.5665 -7.2758 0)
(15.9355 -6.91483 0)
(20.0846 -6.41008 0)
(23.927 -5.79304 0)
(27.401 -5.09107 0)
(30.4344 -4.33718 0)
(32.9537 -3.53735 0)
(34.8986 -2.68198 0)
(36.233 -1.7888 0)
(36.9572 -0.876644 0)
(37.0689 0.0587623 0)
(36.5575 1.03309 0)
(35.3385 2.06017 0)
(33.7848 2.92763 0)
(30.4512 3.2266 0)
(27.0873 2.83546 0)
(23.1207 2.48788 0)
(21.551 3.32927 0)
(18.8515 4.74297 0)
(15.6723 5.62184 0)
(10.7724 5.58211 0)
(6.48616 5.32676 0)
(2.20294 5.25312 0)
(-1.94304 5.086 0)
(-5.87806 4.84407 0)
(-9.57958 4.53788 0)
(-13.0126 4.16667 0)
(-16.1058 3.73528 0)
(-18.813 3.25155 0)
(-21.1399 2.73153 0)
(-23.0917 2.19286 0)
(-24.6431 1.64943 0)
(-25.7781 1.11574 0)
(-26.5189 0.605285 0)
(-26.8935 0.122777 0)
(-26.9166 -0.333228 0)
(-26.6121 -0.765036 0)
(-26.0178 -1.18438 0)
(-25.1521 -1.61145 0)
(-24.0004 -2.05381 0)
(-22.5325 -2.49825 0)
(-20.7368 -2.9111 0)
(-18.6414 -3.23776 0)
(-16.297 -3.39003 0)
(-13.776 -3.25291 0)
(-11.1679 -2.72321 0)
(-8.51881 -1.75949 0)
(-6.44491 -0.517544 0)
(-1.80342 -0.687835 0)
(-3.66799 -1.25814 0)
(-3.28559 -0.813069 0)
(-3.02799 -0.74722 0)
(-2.36782 -1.24142 0)
(-1.57696 -2.18575 0)
(-0.398091 -2.45027 0)
(-0.136429 0.876596 0)
(-1.30776 2.79052 0)
(-3.23773 3.79703 0)
(-4.23217 2.25605 0)
(-4.45257 -0.502139 0)
(-3.77296 -3.49644 0)
(-2.40849 -6.07802 0)
(-0.709619 -7.85037 0)
(1.00672 -8.67217 0)
(2.52866 -8.6084 0)
(3.75982 -7.81265 0)
(4.70052 -6.46937 0)
(5.41028 -4.78869 0)
(5.96158 -2.89623 0)
(6.47745 -0.930234 0)
(7.1292 0.944318 0)
(7.24069 2.92375 0)
(10.2623 6.1444 0)
(-1.02727 8.70155 0)
(13.0598 7.00738 0)
(7.68278 8.32236 0)
(6.56775 9.6706 0)
(4.81304 10.1917 0)
(3.28866 10.2476 0)
(1.91667 10.0446 0)
(0.55746 9.66256 0)
(-0.859174 9.09333 0)
(-2.20953 8.32092 0)
(-3.48184 7.35062 0)
(-4.69706 6.18121 0)
(-5.72495 4.83031 0)
(-6.47322 3.33775 0)
(-6.92995 1.73409 0)
(-7.05299 0.0359117 0)
(-6.77944 -1.6968 0)
(-6.02797 -3.41373 0)
(-4.75246 -5.07314 0)
(-2.97536 -6.63737 0)
(-0.724976 -8.07244 0)
(2.01618 -9.34239 0)
(5.27498 -10.3975 0)
(8.98108 -11.2017 0)
(12.9987 -11.7629 0)
(17.2303 -12.0689 0)
(21.6283 -12.1138 0)
(26.1454 -11.8991 0)
(30.6455 -11.4116 0)
(34.9431 -10.6678 0)
(38.942 -9.72461 0)
(42.5818 -8.61385 0)
(45.7636 -7.3466 0)
(48.4051 -5.95073 0)
(50.4287 -4.45422 0)
(51.7443 -2.88514 0)
(52.3332 -1.28038 0)
(52.2242 0.338076 0)
(51.4108 1.97855 0)
(49.8747 3.64107 0)
(47.609 5.38873 0)
(45.0313 6.94337 0)
(40.4654 7.65076 0)
(34.4884 6.8771 0)
(28.2306 5.97932 0)
(26.0342 7.24688 0)
(23.0463 9.70717 0)
(18.4014 10.9413 0)
(11.7726 10.5633 0)
(6.35677 10.082 0)
(0.92035 9.78035 0)
(-4.21833 9.31788 0)
(-9.03816 8.72453 0)
(-13.5028 8.0139 0)
(-17.5541 7.20073 0)
(-21.1484 6.29628 0)
(-24.2653 5.32483 0)
(-26.8958 4.32329 0)
(-29.0279 3.32045 0)
(-30.6581 2.33397 0)
(-31.8037 1.38257 0)
(-32.4861 0.484498 0)
(-32.7263 -0.357383 0)
(-32.5668 -1.15437 0)
(-32.0598 -1.92653 0)
(-31.2225 -2.69144 0)
(-30.0381 -3.4591 0)
(-28.4902 -4.22602 0)
(-26.5828 -4.96757 0)
(-24.3337 -5.61443 0)
(-21.7606 -6.04466 0)
(-18.9141 -6.11072 0)
(-15.8755 -5.71945 0)
(-12.8476 -4.84101 0)
(-10.1243 -4.01795 0)
(-7.60841 -2.79328 0)
(-6.14817 -1.47648 0)
(-4.935 -1.08409 0)
(-4.00773 -1.18543 0)
(-2.82981 -1.98782 0)
(-1.54318 -3.32376 0)
(-0.26039 -3.34676 0)
(-0.251636 1.54642 0)
(-1.32875 4.41828 0)
(-2.30348 4.94223 0)
(-2.01553 2.4649 0)
(-0.523823 -1.37877 0)
(1.90893 -5.19931 0)
(4.82177 -8.15126 0)
(7.72785 -9.87879 0)
(10.2416 -10.3704 0)
(12.138 -9.81996 0)
(13.3317 -8.51274 0)
(13.8139 -6.70663 0)
(13.6878 -4.67231 0)
(13.105 -2.59856 0)
(12.2222 -0.572596 0)
(11.3625 1.29122 0)
(10.9645 3.00754 0)
(9.96145 5.57174 0)
(19.3009 3.74933 0)
(10.9358 6.28573 0)
(5.2817 11.4725 0)
(5.55287 10.6761 0)
(4.85497 10.7679 0)
(4.35844 10.7226 0)
(4.01794 10.5196 0)
(3.75024 10.1625 0)
(3.49531 9.60534 0)
(3.3918 8.80794 0)
(3.46774 7.7706 0)
(3.66958 6.50163 0)
(4.06247 5.00656 0)
(4.69295 3.30297 0)
(5.54799 1.43306 0)
(6.65193 -0.557518 0)
(8.0358 -2.61703 0)
(9.73248 -4.69809 0)
(11.7738 -6.76854 0)
(14.1504 -8.77296 0)
(16.8425 -10.6389 0)
(19.8756 -12.3131 0)
(23.2858 -13.7554 0)
(26.9978 -14.9192 0)
(30.905 -15.7837 0)
(34.9742 -16.3186 0)
(39.1755 -16.4874 0)
(43.4567 -16.2781 0)
(47.703 -15.7064 0)
(51.737 -14.7835 0)
(55.4611 -13.5385 0)
(58.8451 -12.0114 0)
(61.7949 -10.2285 0)
(64.1893 -8.22493 0)
(65.9372 -6.0571 0)
(66.9615 -3.77871 0)
(67.2327 -1.42803 0)
(66.7629 0.959629 0)
(65.5459 3.35146 0)
(63.5671 5.7157 0)
(60.8529 8.04501 0)
(57.4802 10.4247 0)
(53.6077 12.736 0)
(48.6801 13.9539 0)
(39.9008 12.5193 0)
(31.252 10.7838 0)
(28.2364 12.5168 0)
(25.8075 16.1789 0)
(19.1014 17.3336 0)
(11.9744 16.3269 0)
(5.84938 15.5762 0)
(-0.21596 14.8253 0)
(-5.88911 13.8796 0)
(-11.1617 12.7579 0)
(-15.9696 11.4826 0)
(-20.2577 10.0838 0)
(-24.0037 8.59537 0)
(-27.2052 7.05532 0)
(-29.8514 5.5052 0)
(-31.9297 3.98362 0)
(-33.4532 2.52442 0)
(-34.4572 1.14622 0)
(-34.9776 -0.150787 0)
(-35.0565 -1.37556 0)
(-34.7431 -2.53896 0)
(-34.0687 -3.66173 0)
(-33.0412 -4.77537 0)
(-31.6589 -5.89801 0)
(-29.9183 -7.00524 0)
(-27.8144 -8.00888 0)
(-25.343 -8.76122 0)
(-22.545 -9.08712 0)
(-19.4481 -8.83124 0)
(-16.4473 -7.79055 0)
(-13.0902 -6.2278 0)
(-10.613 -4.84485 0)
(-8.34097 -3.47011 0)
(-6.45566 -2.71278 0)
(-4.92524 -2.63107 0)
(-3.3272 -3.40899 0)
(-1.63996 -4.74675 0)
(-0.194725 -4.21732 0)
(-0.257872 2.06621 0)
(-0.788891 5.03502 0)
(-0.443826 4.53518 0)
(1.57744 0.715388 0)
(5.10923 -4.34424 0)
(9.57177 -8.88777 0)
(14.2779 -11.9635 0)
(18.6672 -13.3228 0)
(22.3722 -13.124 0)
(25.1763 -11.6976 0)
(27.0184 -9.47655 0)
(27.8825 -6.82066 0)
(27.8019 -4.01571 0)
(26.9171 -1.35125 0)
(25.3102 1.02126 0)
(23.1064 2.97394 0)
(20.5654 4.34768 0)
(17.0153 5.21286 0)
(15.6217 7.96591 0)
(6.20422 14.267 0)
(15.4254 11.3684 0)
(10.8497 11.0584 0)
(10.1613 11.3775 0)
(8.87744 11.2216 0)
(7.99616 10.827 0)
(7.47064 10.2364 0)
(7.24358 9.42873 0)
(7.44889 8.38846 0)
(8.0831 7.10586 0)
(9.0482 5.57832 0)
(10.3703 3.8206 0)
(12.0731 1.86585 0)
(14.1127 -0.251659 0)
(16.4516 -2.48448 0)
(19.0692 -4.80026 0)
(21.9589 -7.14825 0)
(25.1205 -9.4791 0)
(28.5295 -11.735 0)
(32.1333 -13.8489 0)
(35.9158 -15.7595 0)
(39.9083 -17.4274 0)
(44.0478 -18.798 0)
(48.2267 -19.8148 0)
(52.4222 -20.4347 0)
(56.6283 -20.6306 0)
(60.7965 -20.3775 0)
(64.8233 -19.675 0)
(68.5708 -18.5332 0)
(71.9616 -16.9666 0)
(74.9691 -15.0066 0)
(77.5163 -12.703 0)
(79.4964 -10.1092 0)
(80.817 -7.27885 0)
(81.405 -4.27259 0)
(81.2438 -1.15613 0)
(80.3433 2.01004 0)
(78.6798 5.1741 0)
(76.2365 8.28348 0)
(73.0531 11.2973 0)
(69.211 14.2071 0)
(64.8124 17.0619 0)
(59.7508 20.0551 0)
(54.829 21.7551 0)
(43.5904 19.5421 0)
(32.6195 16.9641 0)
(28.6435 19.3856 0)
(27.2071 23.4357 0)
(18.2827 23.455 0)
(12.01 21.9269 0)
(5.61591 21.0078 0)
(-0.600387 19.7248 0)
(-6.39812 18.1582 0)
(-11.7153 16.3872 0)
(-16.5001 14.4494 0)
(-20.7245 12.3894 0)
(-24.3697 10.262 0)
(-27.4173 8.12651 0)
(-29.8615 6.03184 0)
(-31.7246 4.01489 0)
(-33.0451 2.10458 0)
(-33.8562 0.319176 0)
(-34.1997 -1.34201 0)
(-34.138 -2.89719 0)
(-33.7275 -4.38476 0)
(-32.9941 -5.84804 0)
(-31.9386 -7.31168 0)
(-30.5525 -8.75606 0)
(-28.8245 -10.1005 0)
(-26.7435 -11.1879 0)
(-24.334 -11.8114 0)
(-21.5405 -11.7367 0)
(-18.818 -10.6371 0)
(-16.3476 -9.73019 0)
(-13.0647 -7.58828 0)
(-10.3394 -5.78486 0)
(-7.87504 -4.71092 0)
(-5.77101 -4.51184 0)
(-3.76417 -5.2463 0)
(-1.76677 -6.41141 0)
(-0.180205 -5.10351 0)
(-0.244127 2.37749 0)
(-0.118611 4.64416 0)
(1.6119 2.49199 0)
(5.31668 -3.03787 0)
(10.5811 -9.31216 0)
(16.5831 -14.3594 0)
(22.536 -17.2876 0)
(27.9185 -18.0178 0)
(32.4855 -16.9318 0)
(36.088 -14.5035 0)
(38.6843 -11.2231 0)
(40.3064 -7.53941 0)
(40.9281 -3.74632 0)
(40.595 -0.130968 0)
(39.3633 3.07327 0)
(37.2606 5.77062 0)
(34.4838 7.89547 0)
(30.9293 9.49878 0)
(27.4789 11.4405 0)
(26.5695 10.3295 0)
(23.6287 11.5033 0)
(19.3169 13.0844 0)
(17.5946 12.9913 0)
(15.3301 12.5095 0)
(13.6771 11.7866 0)
(12.4571 10.7968 0)
(11.6636 9.53418 0)
(11.4727 8.00295 0)
(11.9075 6.21211 0)
(12.8955 4.18241 0)
(14.4686 1.95035 0)
(16.6212 -0.427712 0)
(19.2848 -2.92758 0)
(22.3984 -5.51665 0)
(25.9059 -8.1517 0)
(29.773 -10.7759 0)
(33.9574 -13.3318 0)
(38.3886 -15.7694 0)
(42.9847 -18.0397 0)
(47.6949 -20.0761 0)
(52.5125 -21.822 0)
(57.3636 -23.2268 0)
(62.1329 -24.2338 0)
(66.7789 -24.7913 0)
(71.2899 -24.8663 0)
(75.6276 -24.4376 0)
(79.694 -23.488 0)
(83.3653 -22.0174 0)
(86.5874 -20.0482 0)
(89.3467 -17.6161 0)
(91.5734 -14.7641 0)
(93.1824 -11.5462 0)
(94.1102 -8.03202 0)
(94.2947 -4.29915 0)
(93.7161 -0.424592 0)
(92.3958 3.51521 0)
(90.326 7.44559 0)
(87.4871 11.293 0)
(83.9105 14.9944 0)
(79.6756 18.5111 0)
(74.8993 21.8319 0)
(69.7071 25.0138 0)
(63.9303 28.5202 0)
(58.9766 30.4325 0)
(46.4581 27.3377 0)
(34.275 23.803 0)
(32.2456 27.0089 0)
(29.0086 30.6774 0)
(18.766 29.2825 0)
(12.8415 27.3732 0)
(6.26449 25.8717 0)
(0.153583 23.932 0)
(-5.45424 21.6782 0)
(-10.5366 19.193 0)
(-15.0546 16.5527 0)
(-18.9877 13.8313 0)
(-22.3229 11.0936 0)
(-25.0561 8.39693 0)
(-27.2003 5.79618 0)
(-28.7863 3.34524 0)
(-29.8556 1.07475 0)
(-30.4656 -1.01797 0)
(-30.691 -2.96067 0)
(-30.5971 -4.79523 0)
(-30.2187 -6.57077 0)
(-29.5684 -8.32739 0)
(-28.6493 -10.0749 0)
(-27.4475 -11.7654 0)
(-25.9406 -13.2668 0)
(-24.1331 -14.4247 0)
(-21.8194 -15.0356 0)
(-20.1616 -14.4601 0)
(-17.6527 -12.4936 0)
(-14.6566 -10.6239 0)
(-11.5811 -8.62752 0)
(-8.76253 -7.23707 0)
(-6.26714 -6.82641 0)
(-3.96877 -7.42847 0)
(-1.80541 -8.29171 0)
(-0.17469 -6.04413 0)
(-0.23708 2.37707 0)
(0.487514 3.28623 0)
(3.41817 -0.955693 0)
(8.43793 -8.31652 0)
(14.7893 -15.6183 0)
(21.5107 -20.8474 0)
(27.8932 -23.352 0)
(33.5384 -23.3106 0)
(38.3428 -21.305 0)
(42.3044 -17.9495 0)
(45.4106 -13.7253 0)
(47.7034 -9.08017 0)
(49.1558 -4.35413 0)
(49.7106 0.206469 0)
(49.3639 4.34394 0)
(48.1103 7.86938 0)
(46.0467 10.6491 0)
(43.202 12.5408 0)
(40.4514 13.7839 0)
(36.4721 13.9237 0)
(37.9053 17.4447 0)
(31.6405 17.8922 0)
(28.2755 16.9716 0)
(24.4471 15.4806 0)
(21.3959 14.042 0)
(18.9284 12.3956 0)
(17.0721 10.4603 0)
(16.0029 8.22729 0)
(15.7436 5.7247 0)
(16.2242 3.00063 0)
(17.4926 0.0954215 0)
(19.5386 -2.92968 0)
(22.2649 -6.0136 0)
(25.6078 -9.12337 0)
(29.5111 -12.2118 0)
(33.9171 -15.2155 0)
(38.7487 -18.0737 0)
(43.8967 -20.7374 0)
(49.2539 -23.1608 0)
(54.7497 -25.2884 0)
(60.3416 -27.0532 0)
(65.9223 -28.3996 0)
(71.3594 -29.2825 0)
(76.595 -29.6637 0)
(81.5961 -29.4958 0)
(86.3152 -28.7515 0)
(90.659 -27.4213 0)
(94.499 -25.51 0)
(97.7778 -23.0364 0)
(100.502 -20.037 0)
(102.626 -16.5634 0)
(104.07 -12.6748 0)
(104.768 -8.44375 0)
(104.684 -3.95935 0)
(103.83 0.683676 0)
(102.232 5.39289 0)
(99.8749 10.0772 0)
(96.7521 14.6482 0)
(92.9141 19.0276 0)
(88.4365 23.1489 0)
(83.4032 26.9631 0)
(77.9447 30.4656 0)
(72.1833 33.7699 0)
(66.3364 37.4795 0)
(60.3836 38.8241 0)
(47.9156 34.626 0)
(34.425 31.4682 0)
(34.3014 34.9484 0)
(28.0542 36.5908 0)
(20.1275 34.4215 0)
(14.1371 32.3303 0)
(7.84585 29.9488 0)
(2.10729 27.1802 0)
(-3.0936 24.156 0)
(-7.74197 20.9474 0)
(-11.8277 17.6276 0)
(-15.3393 14.2782 0)
(-18.2635 10.9822 0)
(-20.6018 7.81628 0)
(-22.3873 4.84146 0)
(-23.6763 2.09337 0)
(-24.5357 -0.421872 0)
(-25.0413 -2.72146 0)
(-25.2652 -4.84471 0)
(-25.2603 -6.85798 0)
(-25.0629 -8.82593 0)
(-24.7009 -10.7718 0)
(-24.1829 -12.6249 0)
(-23.5661 -14.1561 0)
(-23.0252 -15.0033 0)
(-22.5378 -14.2009 0)
(-22.9094 -10.7816 0)
(-15.6612 -15.1599 0)
(-13.5238 -13.7515 0)
(-10.9996 -11.6017 0)
(-8.46721 -9.92926 0)
(-6.0491 -9.28088 0)
(-3.77407 -9.70705 0)
(-1.67701 -10.2119 0)
(-0.153256 -6.97698 0)
(-0.223393 2.0644 0)
(1.02286 1.09427 0)
(4.86701 -5.42872 0)
(10.7036 -14.4762 0)
(17.4711 -22.4559 0)
(24.1765 -27.5061 0)
(30.2895 -29.3593 0)
(35.6121 -28.5287 0)
(40.1698 -25.7178 0)
(44.0884 -21.604 0)
(47.4092 -16.671 0)
(50.1288 -11.2855 0)
(52.2167 -5.78149 0)
(53.5834 -0.400037 0)
(54.122 4.63872 0)
(53.7469 9.09645 0)
(52.4278 12.7764 0)
(50.0658 15.4831 0)
(46.5294 17.2236 0)
(42.5039 17.1734 0)
(35.7704 19.1195 0)
(31.984 18.704 0)
(32.1786 18.8782 0)
(29.6257 18.0365 0)
(27.0017 16.7799 0)
(24.2296 14.8326 0)
(21.8028 12.2874 0)
(20.0749 9.29062 0)
(19.1575 5.95858 0)
(19.0256 2.39213 0)
(19.7584 -1.33425 0)
(21.3956 -5.16689 0)
(23.852 -9.01221 0)
(27.0472 -12.8024 0)
(30.9353 -16.49 0)
(35.4639 -20.0077 0)
(40.5356 -23.2844 0)
(46.0172 -26.2713 0)
(51.7823 -28.9137 0)
(57.7512 -31.159 0)
(63.8678 -32.9499 0)
(69.991 -34.2342 0)
(75.9549 -34.9604 0)
(81.698 -35.0982 0)
(87.1866 -34.6123 0)
(92.3417 -33.4748 0)
(97.046 -31.6747 0)
(101.178 -29.2236 0)
(104.689 -26.1516 0)
(107.572 -22.5003 0)
(109.778 -18.3286 0)
(111.248 -13.7076 0)
(111.935 -8.71474 0)
(111.803 -3.44516 0)
(110.861 1.98631 0)
(109.155 7.46918 0)
(106.697 12.9055 0)
(103.487 18.1991 0)
(99.5682 23.2504 0)
(95.0078 27.9637 0)
(89.8905 32.2678 0)
(84.3389 36.1378 0)
(78.5134 39.6139 0)
(72.425 42.9049 0)
(67.5119 46.4863 0)
(59.3141 46.3728 0)
(47.0193 41.0059 0)
(38.8549 39.7032 0)
(36.321 42.7236 0)
(26.8558 41.2017 0)
(21.4795 38.2115 0)
(15.6447 35.7663 0)
(10.0731 32.6597 0)
(4.9893 29.1602 0)
(0.379865 25.4108 0)
(-3.7202 21.5124 0)
(-7.27734 17.5762 0)
(-10.2732 13.7104 0)
(-12.7146 10.0029 0)
(-14.6374 6.52021 0)
(-16.0957 3.31479 0)
(-17.1528 0.411795 0)
(-17.8867 -2.1942 0)
(-18.387 -4.54904 0)
(-18.7243 -6.74087 0)
(-18.9321 -8.86947 0)
(-19.005 -10.9891 0)
(-18.8507 -13.0561 0)
(-18.3228 -14.8675 0)
(-16.9227 -16.2367 0)
(-15.7554 -17.7919 0)
(-7.76747 -26.9676 0)
(-12.1043 -18.7041 0)
(-10.7052 -15.6102 0)
(-9.28594 -13.6 0)
(-7.32289 -12.1025 0)
(-5.24845 -11.4589 0)
(-3.24119 -11.7847 0)
(-1.40541 -11.9476 0)
(-0.116798 -7.79589 0)
(-0.190142 1.4795 0)
(1.53558 -1.76388 0)
(6.02157 -10.5726 0)
(12.2151 -20.9651 0)
(18.8764 -29.1762 0)
(25.0902 -33.7328 0)
(30.5341 -34.8167 0)
(35.2392 -33.2542 0)
(39.3536 -29.837 0)
(43.0385 -25.1973 0)
(46.3809 -19.7942 0)
(49.351 -13.9136 0)
(51.8619 -7.81404 0)
(53.812 -1.74364 0)
(55.0556 4.08863 0)
(55.463 9.45446 0)
(55.0002 14.1296 0)
(53.655 17.9242 0)
(51.2098 20.7815 0)
(48.9219 22.2165 0)
(43.1449 23.1965 0)
(46.0023 23.6517 0)
(41.2482 22.9432 0)
(36.1356 22.1402 0)
(31.9583 20.4123 0)
(28.1456 17.9417 0)
(25.0289 14.7386 0)
(22.757 10.9727 0)
(21.3331 6.8013 0)
(20.7125 2.34722 0)
(20.9687 -2.27053 0)
(22.1664 -6.97951 0)
(24.2601 -11.6827 0)
(27.1623 -16.2674 0)
(30.8269 -20.6614 0)
(35.2204 -24.8005 0)
(40.2387 -28.5991 0)
(45.7407 -31.9932 0)
(51.6023 -34.9319 0)
(57.7307 -37.3635 0)
(64.0544 -39.2291 0)
(70.4349 -40.481 0)
(76.6968 -41.0711 0)
(82.7503 -40.967 0)
(88.552 -40.1438 0)
(94.0276 -38.5817 0)
(99.0511 -36.2731 0)
(103.474 -33.235 0)
(107.235 -29.5144 0)
(110.341 -25.1644 0)
(112.747 -20.2441 0)
(114.389 -14.8357 0)
(115.216 -9.041 0)
(115.194 -2.96786 0)
(114.344 3.26691 0)
(112.728 9.54379 0)
(110.361 15.7435 0)
(107.243 21.7498 0)
(103.421 27.4526 0)
(98.9704 32.7496 0)
(93.9772 37.5543 0)
(88.5489 41.8077 0)
(82.815 45.4993 0)
(76.9511 48.7034 0)
(70.7838 51.8742 0)
(67.7829 54.8993 0)
(56.9698 52.2283 0)
(42.5553 46.4929 0)
(41.1607 46.7953 0)
(38.0761 48.2045 0)
(28.472 45.0001 0)
(23.5547 41.4684 0)
(17.9694 37.9545 0)
(13.013 34.0027 0)
(8.54795 29.7595 0)
(4.56043 25.3454 0)
(1.0806 20.88 0)
(-1.88121 16.484 0)
(-4.33781 12.2602 0)
(-6.31686 8.29915 0)
(-7.86508 4.67825 0)
(-9.04738 1.44077 0)
(-9.94985 -1.4188 0)
(-10.6796 -3.95483 0)
(-11.3295 -6.26739 0)
(-11.9461 -8.48964 0)
(-12.5343 -10.7405 0)
(-13.008 -13.0788 0)
(-13.2428 -15.4101 0)
(-12.9054 -17.4876 0)
(-11.786 -18.5411 0)
(-14.8909 -14.3207 0)
(-13.0978 -16.5895 0)
(-10.6761 -16.6738 0)
(-8.27365 -15.4837 0)
(-6.11533 -14.1343 0)
(-4.20553 -13.413 0)
(-2.51353 -13.5675 0)
(-1.04511 -13.3719 0)
(-0.0736456 -8.43078 0)
(-0.137189 0.652701 0)
(2.04604 -5.14482 0)
(6.96662 -16.0908 0)
(13.1922 -27.388 0)
(19.4212 -35.398 0)
(24.9186 -39.2349 0)
(29.5887 -39.5509 0)
(33.6352 -37.3814 0)
(37.3163 -33.5718 0)
(40.7921 -28.655 0)
(44.1301 -22.9888 0)
(47.2822 -16.7949 0)
(50.093 -10.2526 0)
(52.4171 -3.59019 0)
(54.0893 2.95816 0)
(54.9361 9.14964 0)
(54.8848 14.7342 0)
(53.9105 19.5234 0)
(51.5151 23.451 0)
(49.4267 26.4712 0)
(41.4265 28.2915 0)
(33.288 21.8114 0)
(37.9094 21.7575 0)
(35.241 25.3428 0)
(31.331 24.0782 0)
(28.138 21.2108 0)
(25.2747 17.3926 0)
(23.0134 12.9243 0)
(21.4488 7.98544 0)
(20.6096 2.68789 0)
(20.6104 -2.82817 0)
(21.5258 -8.4304 0)
(23.3477 -14.0113 0)
(26.0026 -19.4406 0)
(29.4248 -24.5996 0)
(33.5976 -29.4062 0)
(38.4404 -33.7807 0)
(43.7967 -37.6445 0)
(49.5339 -40.9381 0)
(55.5814 -43.6093 0)
(61.875 -45.6009 0)
(68.2597 -46.8617 0)
(74.5546 -47.3533 0)
(80.678 -47.0421 0)
(86.5891 -45.9031 0)
(92.2008 -43.9241 0)
(97.3759 -41.1128 0)
(101.962 -37.494 0)
(105.901 -33.1173 0)
(109.199 -28.0495 0)
(111.804 -22.368 0)
(113.64 -16.1671 0)
(114.665 -9.5601 0)
(114.852 -2.66759 0)
(114.22 4.38137 0)
(112.82 11.4503 0)
(110.674 18.4023 0)
(107.797 25.1113 0)
(104.239 31.4601 0)
(100.068 37.3342 0)
(95.3634 42.6266 0)
(90.2252 47.2548 0)
(84.773 51.1772 0)
(79.1558 54.4081 0)
(73.5968 57.0658 0)
(67.9081 60.0451 0)
(66.6426 62.1102 0)
(54.4057 56.75 0)
(43.6035 52.0613 0)
(39.8278 52.5508 0)
(34.6024 50.6916 0)
(29.3836 46.8005 0)
(24.8198 43.0132 0)
(20.231 38.6547 0)
(16.0724 33.9368 0)
(12.3261 29.0391 0)
(9.02602 24.0799 0)
(6.19016 19.1883 0)
(3.81194 14.4918 0)
(1.87361 10.1041 0)
(0.331603 6.11808 0)
(-0.888654 2.59199 0)
(-1.88327 -0.474249 0)
(-2.76283 -3.13102 0)
(-3.63173 -5.48101 0)
(-4.55909 -7.68273 0)
(-5.58557 -9.9256 0)
(-6.66121 -12.3742 0)
(-7.72211 -15.0334 0)
(-8.28086 -17.6894 0)
(-9.10876 -19.2316 0)
(-9.24129 -20.4796 0)
(-7.85811 -20.5068 0)
(-6.66561 -19.3588 0)
(-5.27655 -17.6405 0)
(-3.88826 -15.974 0)
(-2.61982 -14.9947 0)
(-1.5108 -14.9014 0)
(-0.575843 -14.3632 0)
(-0.015293 -8.82503 0)
(-0.0734304 -0.424184 0)
(2.55533 -8.95034 0)
(7.7653 -21.7549 0)
(13.8175 -33.4949 0)
(19.47 -40.9682 0)
(24.213 -43.9657 0)
(28.1853 -43.5925 0)
(31.7046 -41.0051 0)
(35.0814 -37.0151 0)
(38.4745 -32.0367 0)
(41.8998 -26.2815 0)
(45.2691 -19.8884 0)
(48.3638 -12.9783 0)
(50.9697 -5.75234 0)
(52.8974 1.51288 0)
(53.9754 8.51071 0)
(54.192 14.9146 0)
(53.6913 20.4496 0)
(52.559 24.8981 0)
(53.2876 28.7499 0)
(49.0216 31.0053 0)
(63.3994 29.018 0)
(36.6404 26.943 0)
(36.1135 30.3187 0)
(29.3448 28.1521 0)
(25.8838 24.4699 0)
(23.009 19.9829 0)
(20.7307 14.881 0)
(19.1283 9.24497 0)
(18.2437 3.16532 0)
(18.2185 -3.21708 0)
(19.0974 -9.71231 0)
(20.841 -16.1583 0)
(23.3968 -22.41 0)
(26.7056 -28.331 0)
(30.7296 -33.8093 0)
(35.3922 -38.7602 0)
(40.5617 -43.1052 0)
(46.1119 -46.7735 0)
(51.9659 -49.704 0)
(58.0669 -51.8495 0)
(64.275 -53.155 0)
(70.4171 -53.578 0)
(76.4117 -53.0852 0)
(82.2186 -51.6621 0)
(87.7589 -49.3056 0)
(92.9014 -46.0259 0)
(97.4913 -41.8541 0)
(101.462 -36.8472 0)
(104.824 -31.0873 0)
(107.533 -24.6694 0)
(109.516 -17.6963 0)
(110.72 -10.2913 0)
(111.116 -2.59581 0)
(110.721 5.24239 0)
(109.588 13.0773 0)
(107.742 20.7639 0)
(105.198 28.1627 0)
(102.001 35.139 0)
(98.2141 41.5643 0)
(93.9132 47.3227 0)
(89.1981 52.3229 0)
(84.1728 56.5013 0)
(78.9438 59.8246 0)
(73.6756 62.3064 0)
(68.5653 64.1149 0)
(63.7238 66.4126 0)
(62.2188 66.5143 0)
(48.9251 60.4675 0)
(46.1418 57.3403 0)
(41.9939 56.4272 0)
(33.9666 52.0041 0)
(30.2384 47.3367 0)
(26.0424 42.7869 0)
(22.2839 37.7407 0)
(18.9062 32.4406 0)
(15.9026 27.0483 0)
(13.3086 21.7178 0)
(11.1249 16.6055 0)
(9.33308 11.8434 0)
(7.89322 7.53705 0)
(6.72869 3.76005 0)
(5.74223 0.535477 0)
(4.82592 -2.171 0)
(3.86332 -4.45796 0)
(2.74993 -6.49981 0)
(1.38723 -8.53256 0)
(-0.246413 -10.7945 0)
(-2.21144 -13.3588 0)
(-3.65108 -15.867 0)
(-4.6892 -15.9771 0)
(-2.80087 -19.319 0)
(-2.71267 -20.4695 0)
(-2.44004 -19.9747 0)
(-1.97483 -18.5447 0)
(-1.40554 -16.9244 0)
(-0.861499 -15.8508 0)
(-0.416834 -15.5978 0)
(-0.0802426 -14.824 0)
(0.0408492 -8.9468 0)
(-0.00293966 -1.76985 0)
(3.06015 -13.0901 0)
(8.45707 -27.4159 0)
(14.2115 -39.1704 0)
(19.2688 -45.8688 0)
(23.3519 -48.0126 0)
(26.7778 -47.0829 0)
(29.949 -44.2941 0)
(33.1983 -40.3423 0)
(36.6749 -35.4889 0)
(40.333 -29.7824 0)
(44.022 -23.2524 0)
(47.4545 -15.9732 0)
(50.3227 -8.13046 0)
(52.3686 -0.0509941 0)
(53.3719 7.86432 0)
(53.2747 15.1395 0)
(52.1007 21.27 0)
(50.0302 25.6074 0)
(48.407 28.0147 0)
(42.4784 26.337 0)
(55.4399 35.5455 0)
(24.8208 40.6333 0)
(28.1731 36.4939 0)
(22.8711 31.7964 0)
(20.3576 27.2977 0)
(17.7362 22.3466 0)
(15.5487 16.7357 0)
(14.0606 10.4238 0)
(13.3328 3.54769 0)
(13.4944 -3.69192 0)
(14.5745 -11.0594 0)
(16.4927 -18.3427 0)
(19.1646 -25.368 0)
(22.5277 -31.9963 0)
(26.553 -38.1054 0)
(31.1616 -43.5917 0)
(36.2179 -48.3751 0)
(41.6037 -52.3921 0)
(47.2516 -55.5744 0)
(53.118 -57.8664 0)
(59.0733 -59.2117 0)
(64.9496 -59.5724 0)
(70.6754 -58.92 0)
(76.2217 -57.2406 0)
(81.522 -54.5348 0)
(86.4545 -50.8195 0)
(90.8718 -46.1371 0)
(94.7132 -40.551 0)
(97.9909 -34.1482 0)
(100.67 -27.0371 0)
(102.681 -19.338 0)
(103.967 -11.1867 0)
(104.5 -2.73764 0)
(104.299 5.84828 0)
(103.417 14.4117 0)
(101.873 22.7936 0)
(99.6781 30.84 0)
(96.8731 38.4038 0)
(93.5185 45.3502 0)
(89.6867 51.558 0)
(85.4705 56.9245 0)
(80.9564 61.3712 0)
(76.2173 64.8489 0)
(71.3564 67.3495 0)
(66.525 68.9449 0)
(61.7824 69.9629 0)
(58.7345 71.2706 0)
(53.2023 67.8397 0)
(44.5781 62.795 0)
(40.935 60.1928 0)
(38.9074 56.9388 0)
(33.5414 51.7599 0)
(30.3451 46.5819 0)
(26.9189 41.1583 0)
(23.9179 35.4732 0)
(21.273 29.695 0)
(19.0061 23.9844 0)
(17.1134 18.5061 0)
(15.5682 13.409 0)
(14.3322 8.81664 0)
(13.3366 4.82489 0)
(12.4902 1.48489 0)
(11.6915 -1.22307 0)
(10.8281 -3.39283 0)
(9.79456 -5.20778 0)
(8.49687 -6.93373 0)
(6.94039 -8.92559 0)
(5.05586 -11.6155 0)
(3.88152 -15.9381 0)
(5.19965 -20.8654 0)
(4.07203 -20.4002 0)
(2.93505 -20.3497 0)
(1.96487 -19.8128 0)
(1.41028 -18.5708 0)
(1.11143 -17.0523 0)
(0.894735 -15.9591 0)
(0.654499 -15.6293 0)
(0.389677 -14.7498 0)
(0.0892221 -8.80645 0)
(0.080651 -3.40286 0)
(3.54288 -17.5031 0)
(9.03877 -32.9895 0)
(14.4589 -44.3989 0)
(18.9794 -50.1717 0)
(22.5437 -51.5223 0)
(25.595 -50.2136 0)
(28.5951 -47.4396 0)
(31.8887 -43.7337 0)
(35.6149 -39.1739 0)
(39.6704 -33.6302 0)
(43.8213 -26.9955 0)
(47.6981 -19.291 0)
(50.887 -10.6928 0)
(53.0397 -1.58445 0)
(53.8647 7.5537 0)
(53.24 16.1222 0)
(51.0536 23.54 0)
(47.4208 29.1487 0)
(41.87 32.6173 0)
(35.6224 32.1252 0)
(24.0507 42.4444 0)
(21.0637 46.4442 0)
(21.3595 38.5471 0)
(16.8638 34.0949 0)
(13.5593 29.9601 0)
(10.1494 24.8457 0)
(7.66208 18.6401 0)
(6.22511 11.4858 0)
(5.7661 3.68119 0)
(6.3069 -4.47177 0)
(7.79691 -12.7019 0)
(10.1003 -20.7838 0)
(13.1079 -28.5302 0)
(16.7456 -35.7927 0)
(20.9737 -42.4514 0)
(25.7016 -48.404 0)
(30.7867 -53.5648 0)
(36.1199 -57.864 0)
(41.6424 -61.2362 0)
(47.3153 -63.6231 0)
(53.0177 -64.9757 0)
(58.592 -65.2556 0)
(63.9818 -64.4348 0)
(69.1727 -62.5008 0)
(74.1157 -59.4607 0)
(78.7026 -55.3385 0)
(82.7979 -50.1833 0)
(86.3544 -44.0651 0)
(89.3939 -37.0765 0)
(91.8926 -29.3337 0)
(93.7898 -20.9714 0)
(95.0341 -12.1376 0)
(95.5945 -2.99792 0)
(95.4933 6.27336 0)
(94.7821 15.5015 0)
(93.479 24.5149 0)
(91.5916 33.15 0)
(89.1589 41.2507 0)
(86.2358 48.6742 0)
(82.8847 55.2932 0)
(79.1903 60.9966 0)
(75.2355 65.698 0)
(71.0879 69.3442 0)
(66.8388 71.9237 0)
(62.6254 73.48 0)
(58.6854 74.1685 0)
(54.8197 74.5023 0)
(54.8354 73.9489 0)
(45.8217 68.4353 0)
(43.758 64.1034 0)
(38.6004 60.5796 0)
(34.8361 55.348 0)
(32.0163 49.7547 0)
(29.3802 44.0884 0)
(26.9143 38.0765 0)
(24.7519 31.9518 0)
(22.9161 25.9 0)
(21.4101 20.0903 0)
(20.2103 14.6898 0)
(19.2847 9.84377 0)
(18.5757 5.67119 0)
(17.9948 2.24193 0)
(17.4454 -0.454197 0)
(16.8274 -2.51395 0)
(16.0556 -4.1242 0)
(15.0558 -5.54551 0)
(13.8617 -7.15197 0)
(12.0731 -9.4273 0)
(11.918 -13.6379 0)
(10.7811 -16.1727 0)
(8.08915 -17.5625 0)
(6.41471 -18.5472 0)
(5.08907 -18.6447 0)
(4.08882 -17.7956 0)
(3.24311 -16.453 0)
(2.42679 -15.3901 0)
(1.58763 -15.0495 0)
(0.785709 -14.1935 0)
(0.123499 -8.44149 0)
(0.176843 -5.3281 0)
(3.98999 -22.1495 0)
(9.5148 -38.4271 0)
(14.6174 -49.2123 0)
(18.6985 -53.9952 0)