/*--------------------------------*- C++ -*----------------------------------*\
  =========                 |
  \\      /  F ield         | OpenFOAM: The Open Source CFD Toolbox
   \\    /   O peration     | Website:  https://openfoam.org
    \\  /    A nd           | Version:  6
     \\/     M anipulation  |
\*---------------------------------------------------------------------------*/
FoamFile
{
    version     2.0;
    format      ascii;
    class       volScalarField;
    location    "./ITHACAoutput/Offline/1";
    object      p;
}
// * * * * * * * * * * * * * * * * * * * * * * * * * * * * * * * * * * * * * //

dimensions      [0 2 -2 0 0 0 0];

internalField   nonuniform List<scalar> 
40000
(
28.064
28.0625
28.0571
28.0477
28.0355
28.0216
28.0069
27.992
27.978
27.965
27.9535
27.9439
27.9363
27.931
27.9279
27.927
27.9286
27.9325
27.9386
27.947
27.9575
27.9703
27.9852
28.002
28.0208
28.0414
28.0639
28.0881
28.1141
28.1417
28.1708
28.2016
28.2338
28.2675
28.3027
28.3392
28.3771
28.4163
28.4568
28.4985
28.5414
28.5855
28.6308
28.6771
28.7245
28.7729
28.8222
28.8725
28.9235
28.9754
29.0281
29.0813
29.1352
29.1895
29.2443
29.2994
29.3546
29.41
29.4654
29.5207
29.5757
29.6303
29.6844
29.7379
29.7905
29.8421
29.8926
29.9418
29.9894
30.0354
30.0795
30.1216
30.1614
30.1988
30.2336
30.2655
30.2945
30.3203
30.3427
30.3617
30.3769
30.3883
30.3957
30.399
30.3981
30.3928
30.3831
30.3689
30.3502
30.327
30.2991
30.2667
30.2297
30.1884
30.1427
30.0927
30.0387
29.9808
29.9191
29.854
29.7856
29.7144
29.6405
29.5643
29.4861
29.4064
29.3255
29.2438
29.1618
29.0799
28.9986
28.9183
28.8395
28.7626
28.6881
28.6164
28.5481
28.4834
28.4229
28.3669
28.3158
28.2699
28.2297
28.1951
28.1668
28.1447
28.129
28.1199
28.1174
28.1217
28.1325
28.15
28.1741
28.2045
28.2412
28.2838
28.332
28.3857
28.4444
28.5077
28.5754
28.6468
28.7217
28.7994
28.8795
28.9616
29.045
29.1294
29.2141
29.2987
29.3827
29.4657
29.5471
29.6266
29.7037
29.778
29.8491
29.9169
29.9809
30.0408
30.0966
30.1479
30.1947
30.2367
30.2741
30.3066
30.3343
30.3572
30.3753
30.3887
30.3976
30.4021
30.4023
30.3984
30.3906
30.379
30.364
30.3458
30.3245
30.3006
30.2742
30.2456
30.2149
30.1827
30.1491
30.1146
30.0792
30.0435
30.0078
29.9725
29.9381
29.9052
29.8742
29.846
29.8213
29.8008
29.7855
29.7761
29.7731
29.774
28.0655
28.064
28.0592
28.051
28.0402
28.0279
28.0149
28.0018
27.9893
27.9778
27.9677
27.9592
27.9526
27.9481
27.9456
27.9453
27.9472
27.9513
27.9576
27.9659
27.9765
27.989
28.0036
28.02
28.0384
28.0586
28.0805
28.1041
28.1294
28.1562
28.1847
28.2147
28.2461
28.279
28.3132
28.3488
28.3858
28.4239
28.4635
28.5041
28.546
28.589
28.6332
28.6784
28.7245
28.7717
28.8199
28.869
28.9188
28.9694
29.0208
29.0728
29.1254
29.1785
29.2319
29.2857
29.3398
29.3939
29.4481
29.5021
29.5559
29.6094
29.6623
29.7147
29.7662
29.8168
29.8662
29.9144
29.9612
30.0064
30.0497
30.0911
30.1304
30.1672
30.2016
30.2332
30.2619
30.2876
30.31
30.329
30.3444
30.3561
30.3639
30.3678
30.3675
30.363
30.3542
30.341
30.3235
30.3014
30.275
30.2441
30.2088
30.1693
30.1254
30.0774
30.0254
29.9696
29.9103
29.8475
29.7816
29.7127
29.6413
29.5677
29.4921
29.415
29.3367
29.2578
29.1784
29.0991
29.0203
28.9425
28.8661
28.7917
28.7194
28.6499
28.5837
28.5211
28.4624
28.4081
28.3586
28.3141
28.2751
28.2416
28.2141
28.1927
28.1775
28.1687
28.1663
28.1705
28.1811
28.198
28.2214
28.2509
28.2864
28.3277
28.3745
28.4265
28.4834
28.5448
28.6103
28.6794
28.7519
28.8271
28.9046
28.9839
29.0647
29.1462
29.2281
29.3098
29.391
29.4711
29.5496
29.6263
29.7005
29.7721
29.8407
29.9058
29.9674
30.025
30.0786
30.1279
30.1726
30.2129
30.2486
30.2796
30.3059
30.3276
30.3447
30.3574
30.3656
30.3695
30.3693
30.3653
30.3574
30.3461
30.3314
30.3137
30.2932
30.27
30.2445
30.2171
30.1878
30.157
30.125
30.0921
30.0587
30.025
29.9914
29.9583
29.9263
29.8956
29.867
29.841
29.8183
29.7995
29.7855
29.7767
29.774
29.7749
28.0708
28.0688
28.064
28.0564
28.0471
28.0364
28.0252
28.014
28.0034
27.9935
27.985
27.9779
27.9725
27.9688
27.9672
27.9675
27.9699
27.9743
27.9807
27.9891
27.9995
28.0118
28.026
28.0421
28.0599
28.0795
28.1007
28.1236
28.1481
28.1741
28.2017
28.2306
28.261
28.2928
28.326
28.3604
28.3961
28.4331
28.4713
28.5107
28.5512
28.5928
28.6355
28.6793
28.7241
28.7697
28.8164
28.8639
28.9122
28.9613
29.0111
29.0615
29.1125
29.164
29.2159
29.2681
29.3206
29.3732
29.4258
29.4783
29.5307
29.5827
29.6342
29.6853
29.7355
29.7848
29.8331
29.8803
29.926
29.9702
30.0127
30.0533
30.0919
30.1282
30.1621
30.1934
30.2219
30.2475
30.27
30.2892
30.305
30.3171
30.3256
30.3301
30.3308
30.3273
30.3198
30.308
30.2919
30.2715
30.2469
30.2179
30.1848
30.1474
30.1058
30.0603
30.0109
29.9578
29.9012
29.8412
29.7782
29.7124
29.6441
29.5735
29.5011
29.4271
29.3521
29.2761
29.1999
29.1237
29.048
28.9732
28.8997
28.828
28.7586
28.6916
28.6279
28.5675
28.511
28.4587
28.411
28.3682
28.3306
28.2984
28.2718
28.2513
28.2367
28.2281
28.2259
28.2298
28.2401
28.2564
28.2789
28.3074
28.3416
28.3813
28.4264
28.4765
28.5312
28.5903
28.6532
28.7198
28.7894
28.8617
28.9361
29.0123
29.0897
29.1679
29.2464
29.3247
29.4024
29.479
29.5542
29.6273
29.6983
29.7666
29.8319
29.894
29.9525
30.0072
30.058
30.1047
30.147
30.185
30.2185
30.2476
30.2722
30.2923
30.3081
30.3195
30.3269
30.33
30.3294
30.3249
30.317
30.3057
30.2914
30.2741
30.2542
30.232
30.2077
30.1815
30.1537
30.1246
30.0945
30.0636
30.0324
30.001
29.9699
29.9395
29.9101
29.8821
29.8561
29.8326
29.812
29.7951
29.7822
29.7741
29.7712
29.7718
28.0803
28.077
28.0714
28.0639
28.055
28.0453
28.0352
28.0252
28.0158
28.0073
27.9999
27.9938
27.9894
27.9866
27.9857
27.9866
27.9893
27.994
28.0006
28.0091
28.0194
28.0315
28.0455
28.0612
28.0786
28.0977
28.1183
28.1405
28.1643
28.1895
28.2162
28.2443
28.2737
28.3046
28.3366
28.3701
28.4047
28.4404
28.4775
28.5156
28.5549
28.5952
28.6367
28.6791
28.7225
28.7669
28.812
28.8582
28.9051
28.9528
29.0011
29.0501
29.0997
29.1497
29.2003
29.251
29.3022
29.3534
29.4047
29.4559
29.507
29.5578
29.6082
29.658
29.7072
29.7555
29.8029
29.8492
29.8941
29.9377
29.9796
30.0197
30.0578
30.0938
30.1275
30.1587
30.1872
30.2129
30.2356
30.2551
30.2714
30.2842
30.2933
30.2989
30.3004
30.2981
30.2918
30.2813
30.2668
30.2481
30.2251
30.198
30.1667
30.1314
30.0919
30.0487
30.0015
29.9508
29.8966
29.8392
29.7787
29.7155
29.6497
29.5818
29.5121
29.4407
29.3683
29.2949
29.2212
29.1475
29.0744
29.0019
28.9308
28.8614
28.7941
28.7292
28.6674
28.6088
28.5541
28.5033
28.4571
28.4155
28.3789
28.3477
28.3219
28.3019
28.2876
28.2794
28.2772
28.281
28.2909
28.3068
28.3286
28.3562
28.3894
28.428
28.4716
28.5201
28.5732
28.6304
28.6913
28.7557
28.8231
28.893
28.965
29.0385
29.1133
29.1888
29.2645
29.34
29.4148
29.4886
29.5608
29.6311
29.6992
29.7648
29.8272
29.8866
29.9425
29.9946
30.043
30.0873
30.1274
30.1632
30.1948
30.222
30.2449
30.2635
30.2779
30.2881
30.2943
30.2966
30.2953
30.2903
30.282
30.2706
30.2563
30.2393
30.2198
30.1982
30.1746
30.1493
30.1227
30.0949
30.0662
30.037
30.0074
29.978
29.9489
29.9205
29.8931
29.8672
29.8431
29.8213
29.8022
29.7864
29.774
29.7659
29.7626
29.7624
28.0926
28.0878
28.0808
28.0727
28.0637
28.0544
28.0449
28.0358
28.0273
28.0197
28.0133
28.0081
28.0045
28.0025
28.0021
28.0035
28.0067
28.0116
28.0184
28.0269
28.0372
28.0492
28.063
28.0784
28.0954
28.114
28.134
28.1556
28.1787
28.2033
28.2291
28.2564
28.2849
28.3148
28.3459
28.3782
28.4118
28.4465
28.4824
28.5193
28.5574
28.5965
28.6367
28.6779
28.72
28.763
28.8069
28.8517
28.8973
28.9436
28.9906
29.0383
29.0865
29.1353
29.1844
29.234
29.2838
29.3339
29.384
29.4341
29.484
29.5338
29.5831
29.632
29.6803
29.7279
29.7745
29.8201
29.8645
29.9075
29.949
29.9887
30.0266
30.0625
30.0962
30.1275
30.1562
30.1822
30.2053
30.2255
30.2423
30.2559
30.266
30.2724
30.2752
30.274
30.2691
30.26
30.2469
30.2299
30.2086
30.1834
30.1539
30.1205
30.0831
30.042
29.997
29.9484
29.8965
29.8413
29.7831
29.7221
29.6588
29.5931
29.5257
29.4567
29.3864
29.3154
29.2439
29.1723
29.1012
29.0308
28.9616
28.894
28.8285
28.7654
28.705
28.6479
28.5945
28.545
28.4998
28.4592
28.4236
28.393
28.3678
28.3482
28.3342
28.3262
28.324
28.3277
28.3373
28.3527
28.3739
28.4008
28.433
28.4706
28.5131
28.5604
28.612
28.6677
28.727
28.7896
28.8551
28.923
28.9929
29.0644
29.1369
29.21
29.2834
29.3565
29.4289
29.5002
29.5698
29.6377
29.7032
29.7662
29.8262
29.8831
29.9365
29.9864
30.0324
30.0744
30.1124
30.1462
30.1758
30.2012
30.2224
30.2394
30.2523
30.2612
30.2663
30.2676
30.2654
30.2598
30.251
30.2392
30.2246
30.2076
30.1883
30.167
30.1439
30.1193
30.0934
30.0666
30.0391
30.0111
29.983
29.9551
29.9275
29.9007
29.875
29.8506
29.8279
29.8074
29.7893
29.7738
29.7617
29.7531
29.7486
29.7472
28.1067
28.1002
28.0914
28.0824
28.0731
28.0636
28.0545
28.0459
28.038
28.0311
28.0254
28.021
28.018
28.0166
28.0168
28.0186
28.0222
28.0274
28.0343
28.043
28.0532
28.0651
28.0786
28.0937
28.1104
28.1285
28.1481
28.1691
28.1916
28.2154
28.2406
28.267
28.2947
28.3236
28.3538
28.3851
28.4177
28.4513
28.4861
28.5219
28.5588
28.5968
28.6357
28.6757
28.7165
28.7583
28.8009
28.8445
28.8888
28.9338
28.9796
29.026
29.0731
29.1205
29.1686
29.2169
29.2656
29.3146
29.3636
29.4127
29.4617
29.5105
29.559
29.6072
29.6548
29.7016
29.7478
29.7929
29.8368
29.8796
29.9208
29.9605
29.9983
30.0344
30.0682
30.0998
30.1289
30.1555
30.1792
30.2001
30.2177
30.2322
30.2433
30.2509
30.2549
30.2551
30.2515
30.244
30.2325
30.2171
30.1976
30.1741
30.1466
30.1151
30.0797
30.0405
29.9976
29.9511
29.9012
29.8481
29.7921
29.7332
29.6719
29.6083
29.5429
29.4759
29.4076
29.3385
29.2688
29.1991
29.1297
29.0609
28.9934
28.9273
28.8632
28.8014
28.7424
28.6864
28.634
28.5855
28.5411
28.5012
28.4662
28.4361
28.4114
28.392
28.3783
28.3703
28.368
28.3714
28.3808
28.3958
28.4165
28.4427
28.4743
28.5109
28.5525
28.5987
28.6491
28.7035
28.7615
28.8226
28.8864
28.9528
29.0208
29.0905
29.1611
29.2322
29.3035
29.3745
29.4448
29.5138
29.5813
29.6468
29.7102
29.7708
29.8287
29.8832
29.9345
29.982
30.026
30.0659
30.1018
30.1336
30.1612
30.1847
30.2042
30.2196
30.231
30.2385
30.2422
30.2424
30.2391
30.2326
30.2231
30.2108
30.1958
30.1785
30.1592
30.1379
30.1151
30.0909
30.0656
30.0395
30.0128
29.9858
29.9589
29.9321
29.9058
29.8802
29.8558
29.8326
29.8109
29.7912
29.7736
29.7584
29.7459
29.7365
29.7302
29.7272
28.1217
28.1133
28.1026
28.0924
28.0823
28.0726
28.0636
28.0552
28.0477
28.0413
28.0362
28.0323
28.0299
28.029
28.0297
28.032
28.0358
28.0413
28.0484
28.057
28.0673
28.0792
28.0925
28.1073
28.1236
28.1414
28.1605
28.181
28.2028
28.2259
28.2504
28.2761
28.3029
28.331
28.3603
28.3906
28.4221
28.4547
28.4884
28.5233
28.5591
28.5959
28.6336
28.6724
28.7121
28.7527
28.7942
28.8365
28.8797
28.9235
28.9681
29.0134
29.0593
29.1057
29.1526
29.2
29.2476
29.2956
29.3438
29.3921
29.4402
29.4883
29.5362
29.5837
29.6308
29.6773
29.723
29.7678
29.8117
29.8543
29.8955
29.9353
29.9734
30.0097
30.044
30.0761
30.1058
30.1331
30.1577
30.1793
30.1981
30.2137
30.226
30.2348
30.2402
30.2419
30.2399
30.2339
30.2242
30.2104
30.1927
30.171
30.1454
30.1158
30.0823
30.045
30.004
29.9596
29.9116
29.8605
29.8063
29.7494
29.69
29.6282
29.5645
29.4993
29.4327
29.3652
29.2972
29.229
29.1609
29.0936
29.0273
28.9623
28.8994
28.8386
28.7805
28.7254
28.6737
28.6259
28.5821
28.5428
28.5081
28.4784
28.4537
28.4345
28.4208
28.4126
28.4103
28.4135
28.4225
28.4372
28.4573
28.483
28.5138
28.5498
28.5905
28.6357
28.6851
28.7384
28.7952
28.8551
28.9176
28.9825
29.0491
29.1172
29.1862
29.2557
29.3252
29.3944
29.4628
29.5299
29.5954
29.659
29.7203
29.7789
29.8346
29.8872
29.9363
29.9818
30.0236
30.0615
30.0954
30.1253
30.151
30.1727
30.1904
30.2041
30.2138
30.2199
30.2222
30.2211
30.2167
30.2091
30.1987
30.1856
30.1701
30.1524
30.1326
30.1112
30.0884
30.0643
30.0393
30.0137
29.9876
29.9613
29.9351
29.9092
29.8839
29.8593
29.8357
29.8133
29.7924
29.773
29.7556
29.7403
29.7272
29.7165
29.7084
29.7032
28.1367
28.1265
28.1137
28.1021
28.0913
28.0812
28.0719
28.0635
28.0563
28.0502
28.0455
28.0422
28.0402
28.0397
28.0408
28.0434
28.0475
28.0532
28.0605
28.0693
28.0795
28.0912
28.1045
28.1191
28.1351
28.1524
28.1711
28.1911
28.2124
28.2348
28.2586
28.2836
28.3096
28.3369
28.3652
28.3947
28.4253
28.4569
28.4896
28.5233
28.5581
28.5938
28.6305
28.6683
28.7068
28.7463
28.7867
28.8279
28.87
28.9127
28.9563
29.0005
29.0454
29.0908
29.1368
29.1833
29.2301
29.2773
29.3247
29.3722
29.4199
29.4674
29.5148
29.562
29.6088
29.655
29.7006
29.7454
29.7892
29.832
29.8736
29.9137
29.9522
29.9891
30.024
30.0568
30.0875
30.1157
30.1412
30.1641
30.1841
30.201
30.2147
30.225
30.2319
30.2352
30.2348
30.2306
30.2226
30.2107
30.1949
30.175
30.1511
30.1234
30.0919
30.0565
30.0174
29.9748
29.9286
29.8794
29.827
29.7718
29.7141
29.6539
29.5918
29.528
29.4629
29.3968
29.33
29.2631
29.1962
29.1298
29.0645
29.0005
28.9383
28.8782
28.8208
28.7663
28.7152
28.6677
28.6242
28.5851
28.5505
28.5208
28.4963
28.477
28.4632
28.4549
28.4522
28.4551
28.4637
28.4779
28.4976
28.5226
28.5529
28.5881
28.628
28.6724
28.7209
28.7733
28.829
28.8879
28.9492
29.0129
29.0783
29.1451
29.2127
29.2807
29.3487
29.4163
29.4831
29.5485
29.6122
29.6741
29.7335
29.7903
29.8442
29.8948
29.9419
29.9855
30.0254
30.0613
30.0932
30.1211
30.1451
30.165
30.1808
30.1927
30.2008
30.2052
30.2061
30.2036
30.1978
30.1892
30.1777
30.1636
30.1473
30.1289
30.1086
30.0868
30.0637
30.0397
30.0147
29.9892
29.9634
29.9376
29.9118
29.8865
29.8618
29.8379
29.8148
29.793
29.7724
29.7534
29.7359
29.7201
29.7061
29.694
29.6836
29.6764
28.151
28.1389
28.1242
28.1113
28.0995
28.0887
28.0792
28.0708
28.0636
28.0578
28.0534
28.0504
28.0488
28.0487
28.0501
28.053
28.0574
28.0633
28.0707
28.0795
28.0899
28.1015
28.1145
28.1289
28.1447
28.1616
28.1799
28.1994
28.2201
28.2421
28.2652
28.2893
28.3147
28.3411
28.3687
28.3974
28.427
28.4577
28.4895
28.5222
28.5559
28.5907
28.6264
28.6631
28.7006
28.7391
28.7785
28.8187
28.8597
28.9016
28.9442
28.9875
29.0315
29.0761
29.1213
29.167
29.2132
29.2597
29.3066
29.3536
29.4008
29.4481
29.4952
29.5422
29.5889
29.6352
29.6808
29.7259
29.7701
29.8132
29.8553
29.896
29.9354
29.973
30.0087
30.0427
30.0744
30.1038
30.1307
30.1549
30.1764
30.1948
30.2101
30.2221
30.2307
30.2357
30.2372
30.2348
30.2287
30.2187
30.2046
30.1868
30.1649
30.1391
30.1094
30.076
30.0387
29.9979
29.9535
29.9059
29.8551
29.8015
29.7453
29.6867
29.626
29.5635
29.4996
29.4345
29.3688
29.3028
29.2368
29.1713
29.1066
29.0432
28.9815
28.9219
28.8648
28.8106
28.7596
28.7122
28.6688
28.6297
28.5951
28.5653
28.5405
28.521
28.5068
28.4982
28.495
28.4975
28.5057
28.5193
28.5384
28.5628
28.5924
28.6269
28.666
28.7097
28.7575
28.8089
28.8638
28.9215
28.982
29.0446
29.1088
29.1744
29.2408
29.3076
29.3743
29.4405
29.5058
29.5697
29.632
29.6922
29.75
29.805
29.8571
29.9059
29.9513
29.9931
30.0311
30.0651
30.0952
30.1212
30.1432
30.1612
30.1753
30.1854
30.1918
30.1945
30.1938
30.1898
30.1826
30.1726
30.1599
30.1447
30.1274
30.108
30.0871
30.0647
30.0412
30.0167
29.9916
29.9661
29.9404
29.9147
29.8892
29.8642
29.8398
29.8162
29.7936
29.772
29.7516
29.7324
29.7148
29.6984
29.6834
29.6697
29.657
29.6477
28.164
28.1503
28.1336
28.1193
28.1066
28.0953
28.0853
28.0767
28.0696
28.0639
28.0597
28.0569
28.0556
28.0559
28.0576
28.0608
28.0654
28.0715
28.0789
28.0879
28.0981
28.1097
28.1226
28.1368
28.1523
28.169
28.1869
28.2059
28.2261
28.2475
28.27
28.2935
28.3182
28.3438
28.3706
28.3984
28.4273
28.4571
28.488
28.5198
28.5527
28.5864
28.6212
28.657
28.6936
28.7311
28.7696
28.8089
28.849
28.8901
28.9319
28.9744
29.0177
29.0616
29.1063
29.1514
29.197
29.2432
29.2897
29.3365
29.3835
29.4306
29.4778
29.5248
29.5717
29.6182
29.6643
29.7098
29.7546
29.7985
29.8413
29.883
29.9233
29.962
29.9991
30.0342
30.0673
30.0982
30.1267
30.1525
30.1756
30.1959
30.213
30.2269
30.2374
30.2444
30.2478
30.2475
30.2434
30.2354
30.2236
30.2076
30.1878
30.1639
30.1361
30.1045
30.0691
30.03
29.9874
29.9414
29.8922
29.8401
29.7852
29.7279
29.6684
29.607
29.5442
29.4801
29.4152
29.3498
29.2845
29.2195
29.1553
29.0922
29.0308
28.9713
28.9143
28.86
28.809
28.7615
28.7178
28.6784
28.6435
28.6133
28.5881
28.5681
28.5534
28.5441
28.5404
28.5423
28.5497
28.5627
28.5811
28.6048
28.6336
28.6673
28.7058
28.7486
28.7954
28.8461
28.9
28.957
29.0165
29.078
29.1413
29.2058
29.2711
29.3367
29.4021
29.4671
29.5311
29.5937
29.6546
29.7133
29.7696
29.8231
29.8735
29.9206
29.9643
30.0043
30.0404
30.0727
30.1008
30.1251
30.1452
30.1614
30.1736
30.1819
30.1865
30.1875
30.1851
30.1794
30.1707
30.1592
30.1451
30.1287
30.1101
30.0899
30.068
30.0448
30.0206
29.9956
29.9701
29.9443
29.9184
29.8926
29.8672
29.8423
29.8181
29.7946
29.772
29.7505
29.7301
29.7108
29.6926
29.6754
29.6594
29.6442
29.6293
29.618
28.1751
28.1599
28.1415
28.126
28.1123
28.1003
28.0899
28.0812
28.0739
28.0684
28.0642
28.0617
28.0606
28.0612
28.0631
28.0666
28.0714
28.0776
28.0853
28.0942
28.1044
28.116
28.1288
28.1428
28.158
28.1743
28.1919
28.2105
28.2303
28.251
28.2729
28.2959
28.3199
28.3449
28.3709
28.398
28.426
28.4551
28.4851
28.5162
28.5481
28.5811
28.615
28.6499
28.6856
28.7225
28.7601
28.7987
28.8381
28.8784
28.9195
28.9615
29.0042
29.0477
29.0918
29.1366
29.182
29.228
29.2743
29.3211
29.3682
29.4155
29.4629
29.5103
29.5576
29.6048
29.6515
29.6978
29.7434
29.7884
29.8323
29.8751
29.9168
29.9569
29.9955
30.0323
30.0671
30.0997
30.1301
30.1579
30.183
30.2053
30.2245
30.2406
30.2532
30.2625
30.2681
30.2699
30.268
30.2622
30.2525
30.2387
30.2209
30.1992
30.1734
30.1437
30.1102
30.0728
30.0319
29.9875
29.9398
29.889
29.8354
29.7793
29.7209
29.6605
29.5984
29.535
29.4708
29.4059
29.341
29.2763
29.2122
29.1493
29.0878
29.0282
28.971
28.9165
28.8651
28.8171
28.7729
28.7329
28.6973
28.6665
28.6406
28.6198
28.6043
28.5943
28.5898
28.5908
28.5973
28.6094
28.6269
28.6497
28.6776
28.7105
28.748
28.7899
28.8359
28.8856
28.9386
28.9946
29.0531
29.1137
29.176
29.2395
29.3037
29.3683
29.4326
29.4963
29.5591
29.6205
29.68
29.7373
29.7921
29.8441
29.8929
29.9385
29.9806
30.0188
30.0532
30.0837
30.1101
30.1325
30.1508
30.1651
30.1754
30.1818
30.1847
30.1839
30.1796
30.1723
30.1619
30.1489
30.1333
30.1155
30.0957
30.0741
30.0511
30.027
30.002
29.9762
29.9501
29.9238
29.8975
29.8715
29.8458
29.8208
29.7965
29.773
29.7504
29.7288
29.7081
29.6885
29.6698
29.6518
29.6348
29.6181
29.601
29.5879
28.1841
28.1675
28.1475
28.1308
28.1163
28.1036
28.0928
28.0839
28.0766
28.0709
28.067
28.0647
28.0638
28.0646
28.0667
28.0703
28.0753
28.0817
28.0894
28.0984
28.1087
28.1202
28.1328
28.1467
28.1616
28.1777
28.1949
28.2132
28.2325
28.2528
28.2741
28.2965
28.3199
28.3443
28.3696
28.396
28.4233
28.4517
28.4809
28.5112
28.5424
28.5746
28.6078
28.642
28.6771
28.7131
28.7502
28.7881
28.827
28.8667
28.9074
28.9488
28.9913
29.0344
29.0784
29.123
29.1684
29.2143
29.2609
29.3078
29.3552
29.403
29.4509
29.499
29.5472
29.5952
29.6429
29.6904
29.7373
29.7835
29.8289
29.8734
29.9166
29.9586
29.9991
30.0378
30.0747
30.1094
30.142
30.172
30.1995
30.2241
30.2457
30.2642
30.2793
30.291
30.2991
30.3034
30.3039
30.3004
30.293
30.2816
30.2661
30.2464
30.2227
30.195
30.1633
30.1278
30.0886
30.0458
29.9995
29.9502
29.8977
29.8427
29.7852
29.7257
29.6643
29.6015
29.5377
29.4732
29.4084
29.3436
29.2796
29.2164
29.1547
29.0947
29.0369
28.9818
28.9297
28.881
28.836
28.7951
28.7586
28.7268
28.6998
28.6779
28.6614
28.6502
28.6446
28.6444
28.6499
28.6608
28.6772
28.6988
28.7257
28.7575
28.7939
28.8347
28.8796
28.9283
28.9802
29.0352
29.0927
29.1522
29.2135
29.2758
29.339
29.4024
29.4656
29.5283
29.5898
29.6499
29.7081
29.7641
29.8175
29.8681
29.9155
29.9595
29.9999
30.0366
30.0692
30.098
30.1226
30.1431
30.1596
30.172
30.1805
30.1851
30.1859
30.1833
30.1774
30.1681
30.156
30.1413
30.1241
30.1047
30.0835
30.0606
30.0364
30.0111
29.985
29.9584
29.9315
29.9045
29.8777
29.8512
29.8253
29.7998
29.7753
29.7515
29.7287
29.7069
29.686
29.6659
29.6466
29.628
29.6099
29.5919
29.573
29.5581
28.1904
28.1727
28.1513
28.1335
28.1182
28.1051
28.0939
28.0847
28.0773
28.0717
28.0678
28.0656
28.065
28.0659
28.0683
28.072
28.0772
28.0837
28.0915
28.1006
28.1108
28.1222
28.1348
28.1485
28.1632
28.1791
28.1959
28.2138
28.2327
28.2525
28.2734
28.2953
28.3181
28.3419
28.3667
28.3924
28.4191
28.4468
28.4754
28.5051
28.5356
28.5672
28.5997
28.6333
28.6678
28.7033
28.7398
28.7773
28.8158
28.8552
28.8956
28.9369
28.9791
29.0222
29.0662
29.1109
29.1564
29.2027
29.2496
29.2972
29.3453
29.3938
29.4426
29.4917
29.541
29.5902
29.6394
29.6883
29.7368
29.7848
29.832
29.8784
29.9238
29.9679
30.0106
30.0517
30.091
30.1283
30.1634
30.1961
30.2262
30.2536
30.2779
30.2991
30.317
30.3314
30.3422
30.3493
30.3525
30.3517
30.3467
30.3378
30.3247
30.3073
30.2858
30.2603
30.2306
30.1969
30.1594
30.1183
30.0735
30.0254
29.9742
29.9202
29.8636
29.8047
29.744
29.6816
29.618
29.5536
29.4888
29.4239
29.3595
29.2958
29.2335
29.1729
29.1143
29.0582
29.0052
28.9553
28.9092
28.8671
28.8293
28.7961
28.7677
28.7444
28.7264
28.7137
28.7065
28.705
28.709
28.7184
28.7333
28.7536
28.779
28.8093
28.8444
28.8839
28.9275
28.9749
29.0256
29.0793
29.1357
29.194
29.2541
29.3153
29.3772
29.4395
29.5015
29.5629
29.6233
29.6821
29.739
29.7937
29.8457
29.8948
29.9408
29.9832
30.0221
30.057
30.0881
30.1151
30.1379
30.1566
30.1713
30.1818
30.1883
30.1911
30.19
30.1855
30.1776
30.1667
30.1527
30.1362
30.1173
30.0963
30.0734
30.0491
30.0235
29.997
29.9697
29.942
29.9142
29.8864
29.8588
29.8317
29.8052
29.7793
29.7544
29.7303
29.7072
29.685
29.6637
29.6433
29.6234
29.604
29.585
29.5658
29.5453
29.5291
28.194
28.1751
28.1526
28.1339
28.1179
28.1043
28.0927
28.0834
28.0759
28.0704
28.0666
28.0645
28.064
28.0651
28.0676
28.0716
28.0769
28.0835
28.0914
28.1005
28.1107
28.1221
28.1346
28.1481
28.1627
28.1782
28.1948
28.2124
28.2309
28.2504
28.2708
28.2922
28.3145
28.3378
28.362
28.3872
28.4134
28.4405
28.4685
28.4977
28.5277
28.5587
28.5908
28.6239
28.6579
28.6931
28.7292
28.7664
28.8047
28.844
28.8843
28.9256
28.9679
29.0112
29.0555
29.1007
29.1467
29.1936
29.2413
29.2897
29.3388
29.3884
29.4385
29.4889
29.5397
29.5906
29.6415
29.6923
29.7429
29.793
29.8426
29.8914
29.9392
29.986
30.0314
30.0752
30.1174
30.1576
30.1957
30.2315
30.2647
30.2951
30.3225
30.3469
30.3679
30.3854
30.3993
30.4093
30.4154
30.4175
30.4155
30.4092
30.3987
30.384
30.3648
30.3414
30.3139
30.2823
30.2466
30.2071
30.1638
30.1171
30.0671
30.014
29.9582
29.9
29.8397
29.7775
29.7141
29.6496
29.5846
29.5194
29.4543
29.3899
29.3268
29.2652
29.2054
29.1481
29.0937
29.0424
28.9947
28.951
28.9114
28.8764
28.8462
28.8211
28.8012
28.7867
28.7776
28.7741
28.7761
28.7838
28.7968
28.8153
28.8388
28.8674
28.9008
28.9386
28.9806
29.0264
29.0756
29.1278
29.1827
29.2396
29.2983
29.3581
29.4188
29.4797
29.5403
29.6004
29.6594
29.7169
29.7724
29.8257
29.8763
29.924
29.9684
30.0094
30.0466
30.08
30.1093
30.1346
30.1556
30.1726
30.1853
30.1939
30.1986
30.1994
30.1965
30.19
30.1802
30.1672
30.1515
30.1331
30.1124
30.0897
30.0652
30.0393
30.0123
29.9843
29.9558
29.927
29.8981
29.8692
29.8408
29.813
29.7857
29.7594
29.7339
29.7095
29.6859
29.6633
29.6416
29.6206
29.6003
29.5803
29.5605
29.5403
29.5185
29.5012
28.1943
28.1746
28.1511
28.1317
28.1152
28.1011
28.0894
28.0798
28.0723
28.0669
28.0631
28.0612
28.0609
28.0621
28.0648
28.0689
28.0743
28.0811
28.089
28.0982
28.1084
28.1197
28.1321
28.1454
28.1599
28.1753
28.1915
28.2089
28.227
28.2462
28.2662
28.2872
28.3091
28.3319
28.3557
28.3804
28.4061
28.4327
28.4604
28.489
28.5187
28.5494
28.5811
28.6139
28.6477
28.6827
28.7187
28.7558
28.7941
28.8334
28.8739
28.9155
28.9582
29.0019
29.0468
29.0927
29.1396
29.1875
29.2362
29.2859
29.3363
29.3874
29.4391
29.4915
29.5442
29.5971
29.6503
29.7035
29.7565
29.8093
29.8615
29.9132
29.964
30.0138
30.0625
30.1096
30.1551
30.1987
30.2402
30.2795
30.3162
30.3502
30.3813
30.4091
30.4337
30.4547
30.4719
30.4854
30.4948
30.5001
30.5012
30.498
30.4904
30.4782
30.4618
30.4409
30.4157
30.3862
30.3524
30.3147
30.273
30.2276
30.1788
30.1268
30.0718
30.0141
29.9541
29.8922
29.8287
29.764
29.6984
29.6325
29.5667
29.5014
29.4371
29.3741
29.313
29.2541
29.1978
29.1447
29.095
29.0492
29.0075
28.9703
28.9377
28.9103
28.8879
28.8711
28.8596
28.8537
28.8533
28.8585
28.8692
28.8853
28.9066
28.933
28.9642
28.9999
29.0398
29.0836
29.1309
29.1813
29.2343
29.2895
29.3465
29.4047
29.4638
29.5231
29.5823
29.6408
29.6984
29.7544
29.8084
29.8601
29.9093
29.9554
29.9983
30.0376
30.0732
30.1049
30.1325
30.156
30.1753
30.1904
30.2013
30.208
30.2108
30.2096
30.2048
30.1963
30.1845
30.1697
30.152
30.1317
30.1092
30.0847
30.0585
30.031
30.0024
29.973
29.943
29.9129
29.8828
29.8529
29.8236
29.7948
29.7669
29.7398
29.7138
29.6888
29.6648
29.6418
29.6197
29.5983
29.5775
29.557
29.5366
29.5157
29.493
29.4749
28.1914
28.171
28.1468
28.1268
28.1098
28.0955
28.0835
28.0739
28.0664
28.0609
28.0574
28.0555
28.0554
28.0568
28.0597
28.0639
28.0695
28.0764
28.0844
28.0935
28.1038
28.115
28.1273
28.1406
28.1548
28.17
28.1861
28.2032
28.2211
28.2399
28.2596
28.2802
28.3018
28.3243
28.3477
28.3721
28.3974
28.4237
28.451
28.4794
28.5088
28.5392
28.5708
28.6034
28.6372
28.6722
28.7083
28.7455
28.784
28.8237
28.8647
28.9068
28.9502
28.9947
29.0405
29.0875
29.1356
29.1848
29.2351
29.2863
29.3386
29.3916
29.4455
29.5001
29.5552
29.6108
29.6666
29.7226
29.7786
29.8346
29.8902
29.9452
29.9995
30.053
30.1053
30.1562
30.2056
30.2532
30.2987
30.3419
30.3826
30.4207
30.4558
30.4877
30.5162
30.5411
30.5624
30.5795
30.5927
30.6016
30.6061
30.6062
30.6018
30.5928
30.5792
30.5611
30.5383
30.5112
30.4796
30.4436
30.4037
30.3598
30.3122
30.2612
30.207
30.1498
30.0902
30.0283
29.9646
29.8995
29.8334
29.7666
29.6997
29.6332
29.5673
29.5027
29.4396
29.3787
29.3204
29.2648
29.2127
29.1642
29.1199
29.0799
29.0446
29.0142
28.9889
28.969
28.9545
28.9456
28.9421
28.9444
28.9521
28.9653
28.9838
29.0074
29.0359
29.0689
29.1063
29.1477
29.1925
29.2405
29.2914
29.3445
29.3993
29.4555
29.5126
29.5701
29.6275
29.6843
29.74
29.7943
29.8467
29.8968
29.9443
29.9887
30.0299
30.0675
30.1014
30.1314
30.1573
30.179
30.1965
30.2097
30.2187
30.2236
30.2244
30.2213
30.2144
30.2039
30.1903
30.1734
30.1538
30.1316
30.1072
30.0809
30.0529
30.0237
29.9935
29.9625
29.9311
29.8996
29.8682
29.8373
29.8068
29.7772
29.7484
29.7206
29.6939
29.6683
29.6439
29.6204
29.598
29.5763
29.5551
29.5342
29.5134
29.492
29.4687
29.45
28.1849
28.1641
28.1392
28.1189
28.1017
28.0872
28.0751
28.0654
28.058
28.0527
28.0492
28.0475
28.0475
28.0491
28.0521
28.0566
28.0622
28.0692
28.0772
28.0864
28.0967
28.1079
28.1202
28.1334
28.1475
28.1625
28.1785
28.1952
28.2129
28.2316
28.251
28.2714
28.2927
28.315
28.3381
28.3622
28.3873
28.4133
28.4405
28.4687
28.498
28.5284
28.56
28.5927
28.6266
28.6618
28.6982
28.736
28.775
28.8153
28.857
28.9
28.9444
28.9902
29.0372
29.0856
29.1353
29.1863
29.2385
29.2919
29.3464
29.4018
29.4584
29.5156
29.5737
29.6324
29.6915
29.7509
29.8105
29.8702
29.9296
29.9886
30.0471
30.1047
30.1613
30.2167
30.2705
30.3225
30.3726
30.4204
30.4658
30.5084
30.5481
30.5846
30.6176
30.647
30.6725
30.694
30.7113
30.7243
30.7327
30.7366
30.7357
30.7301
30.7198
30.7046
30.6847
30.66
30.6308
30.597
30.5589
30.5166
30.4703
30.4203
30.3669
30.3104
30.2509
30.189
30.125
30.0593
29.9923
29.9245
29.8563
29.7881
29.7205
29.6538
29.5886
29.5251
29.4641
29.4058
29.3507
29.2991
29.2515
29.2081
29.1693
29.1353
29.1065
29.0828
29.0647
29.052
29.0449
29.0435
29.0476
29.0572
29.0721
29.0922
29.1173
29.1471
29.1812
29.2195
29.2613
29.3065
29.3545
29.405
29.4572
29.511
29.5658
29.6209
29.6761
29.7308
29.7844
29.8367
29.8873
29.9354
29.981
30.0236
30.063
30.0988
30.1309
30.159
30.1831
30.2029
30.2186
30.2299
30.237
30.2399
30.2388
30.2337
30.2249
30.2124
30.1967
30.1779
30.1563
30.1322
30.1059
30.0778
30.048
30.017
29.9851
29.9525
29.9197
29.8868
29.8541
29.822
29.7904
29.7598
29.7301
29.7016
29.6742
29.6481
29.6231
29.5994
29.5765
29.5545
29.5331
29.5121
29.491
29.4694
29.4458
29.4271
28.1749
28.1537
28.1285
28.108
28.0907
28.076
28.064
28.0544
28.0471
28.0418
28.0385
28.037
28.0372
28.0389
28.0421
28.0467
28.0525
28.0595
28.0677
28.077
28.0872
28.0985
28.1107
28.1238
28.1378
28.1527
28.1685
28.1852
28.2027
28.2211
28.2405
28.2607
28.2818
28.3038
28.3268
28.3508
28.3758
28.4019
28.429
28.4572
28.4865
28.5171
28.5489
28.5819
28.6163
28.6519
28.6889
28.7274
28.7672
28.8085
28.8513
28.8956
28.9413
28.9886
29.0374
29.0877
29.1395
29.1926
29.2473
29.3032
29.3605
29.419
29.4786
29.5392
29.6008
29.6632
29.7261
29.7896
29.8534
29.9174
29.9813
30.045
30.1082
30.1707
30.2322
30.2926
30.3514
30.4087
30.464
30.5171
30.5676
30.6155
30.6604
30.702
30.7401
30.7745
30.805
30.8313
30.8532
30.8708
30.8836
30.8917
30.8948
30.8931
30.8863
30.8745
30.8577
30.836
30.8093
30.7778
30.7417
30.7012
30.6563
30.6075
30.5549
30.4989
30.4396
30.3777
30.3133
30.2469
30.1789
30.1098
30.0399
29.9699
29.9
29.8309
29.7629
29.6966
29.6324
29.5707
29.512
29.4566
29.4051
29.3577
29.3147
29.2764
29.2432
29.2152
29.1925
29.1754
29.1638
29.1578
29.1575
29.1627
29.1733
29.1892
29.2101
29.2358
29.266
29.3004
29.3386
29.3802
29.4248
29.4719
29.521
29.5717
29.6235
29.676
29.7285
29.7806
29.8319
29.8818
29.93
29.976
30.0195
30.06
30.0973
30.1312
30.1613
30.1874
30.2095
30.2274
30.2411
30.2505
30.2556
30.2566
30.2534
30.2464
30.2355
30.2211
30.2034
30.1826
30.1591
30.1331
30.1049
30.0749
30.0433
30.0106
29.977
29.9428
29.9085
29.8741
29.8401
29.8067
29.7741
29.7424
29.7119
29.6826
29.6546
29.6279
29.6025
29.5783
29.5553
29.5331
29.5116
29.4904
29.4694
29.4479
29.4244
29.4057
28.1612
28.1398
28.1145
28.0939
28.0765
28.062
28.0501
28.0406
28.0334
28.0283
28.0253
28.024
28.0243
28.0263
28.0296
28.0343
28.0403
28.0475
28.0557
28.065
28.0753
28.0866
28.0988
28.1119
28.1258
28.1406
28.1563
28.173
28.1904
28.2087
28.2279
28.248
28.2691
28.291
28.314
28.338
28.363
28.3893
28.4165
28.4449
28.4746
28.5055
28.5378
28.5713
28.6063
28.6428
28.6807
28.7202
28.7611
28.8037
28.848
28.8939
28.9415
28.9907
29.0417
29.0944
29.1487
29.2046
29.2621
29.3213
29.3819
29.4439
29.5073
29.5719
29.6376
29.7043
29.7718
29.84
29.9087
29.9777
30.0468
30.1158
30.1844
30.2525
30.3197
30.3858
30.4506
30.5136
30.5749
30.6339
30.6904
30.7442
30.7949
30.8424
30.8862
30.9263
30.9623
30.994
31.0213
31.0439
31.0617
31.0745
31.0821
31.0847
31.082
31.074
31.0606
31.0421
31.0183
30.9895
30.9557
30.9171
30.8739
30.8263
30.7746
30.7191
30.6602
30.598
30.5331
30.4659
30.3967
30.326
30.2542