/*--------------------------------*- C++ -*----------------------------------*\
  =========                 |
  \\      /  F ield         | OpenFOAM: The Open Source CFD Toolbox
   \\    /   O peration     | Website:  https://openfoam.org
    \\  /    A nd           | Version:  6
     \\/     M anipulation  |
\*---------------------------------------------------------------------------*/
FoamFile
{
    version     2.0;
    format      ascii;
    class       volScalarField;
    location    "./ITHACAoutput/Offline/1";
    object      P_rec;
}
// * * * * * * * * * * * * * * * * * * * * * * * * * * * * * * * * * * * * * //

dimensions      [0 2 -2 0 0 0 0];

internalField   nonuniform List<scalar> 
40000
(
0.0163816
0.0163819
0.0163816
0.0163803
0.016378
0.0163748
0.0163708
0.0163661
0.016361
0.0163554
0.0163495
0.0163434
0.0163372
0.0163309
0.0163246
0.0163182
0.0163119
0.0163057
0.0162995
0.0162935
0.0162875
0.0162816
0.0162759
0.0162702
0.0162646
0.0162591
0.0162537
0.0162483
0.0162431
0.0162378
0.0162326
0.0162275
0.0162224
0.0162173
0.0162123
0.0162073
0.0162024
0.0161975
0.0161926
0.0161878
0.016183
0.0161783
0.0161737
0.0161691
0.0161646
0.0161603
0.016156
0.0161519
0.0161479
0.0161441
0.0161405
0.016137
0.0161338
0.0161308
0.016128
0.0161255
0.0161232
0.0161213
0.0161196
0.0161182
0.0161172
0.0161164
0.0161161
0.0161161
0.0161164
0.0161171
0.0161182
0.0161197
0.0161216
0.0161239
0.0161266
0.0161297
0.0161331
0.016137
0.0161413
0.0161459
0.0161509
0.0161563
0.0161621
0.0161682
0.0161746
0.0161814
0.0161884
0.0161957
0.0162033
0.0162111
0.0162191
0.0162272
0.0162355
0.0162439
0.0162523
0.0162608
0.0162692
0.0162776
0.0162858
0.0162939
0.0163017
0.0163093
0.0163166
0.0163235
0.0163299
0.0163359
0.0163412
0.016346
0.01635
0.0163534
0.0163559
0.0163575
0.0163582
0.0163579
0.0163566
0.0163541
0.0163505
0.0163457
0.0163396
0.0163322
0.0163234
0.0163132
0.0163016
0.0162885
0.016274
0.0162579
0.0162403
0.0162212
0.0162005
0.0161784
0.0161546
0.0161294
0.0161027
0.0160746
0.016045
0.016014
0.0159817
0.0159481
0.0159133
0.0158773
0.0158402
0.015802
0.015763
0.015723
0.0156822
0.0156407
0.0155986
0.015556
0.0155129
0.0154695
0.0154257
0.0153819
0.0153379
0.015294
0.0152501
0.0152065
0.0151631
0.0151201
0.0150775
0.0150354
0.0149939
0.0149531
0.0149129
0.0148736
0.0148352
0.0147976
0.014761
0.0147255
0.0146909
0.0146575
0.0146252
0.0145941
0.0145642
0.0145356
0.0145082
0.0144821
0.0144573
0.0144338
0.0144117
0.014391
0.0143716
0.0143536
0.0143371
0.014322
0.0143083
0.014296
0.0142852
0.0142759
0.014268
0.0142616
0.0142566
0.0142529
0.0142507
0.0142499
0.0142503
0.0142519
0.0142545
0.0142581
0.0142624
0.014267
0.0142717
0.0142758
0.0142788
0.0142801
0.0163813
0.0163816
0.0163813
0.0163801
0.0163779
0.0163749
0.0163712
0.0163669
0.0163621
0.0163568
0.0163513
0.0163455
0.0163396
0.0163335
0.0163274
0.0163213
0.0163152
0.0163092
0.0163032
0.0162972
0.0162914
0.0162856
0.0162799
0.0162743
0.0162688
0.0162633
0.0162579
0.0162526
0.0162473
0.0162421
0.0162369
0.0162318
0.0162267
0.0162216
0.0162166
0.0162116
0.0162066
0.0162017
0.0161968
0.016192
0.0161872
0.0161825
0.0161778
0.0161733
0.0161688
0.0161645
0.0161602
0.0161561
0.0161522
0.0161484
0.0161447
0.0161413
0.0161381
0.016135
0.0161323
0.0161298
0.0161275
0.0161255
0.0161238
0.0161224
0.0161214
0.0161207
0.0161203
0.0161202
0.0161206
0.0161212
0.0161223
0.0161237
0.0161255
0.0161278
0.0161304
0.0161334
0.0161367
0.0161405
0.0161447
0.0161492
0.0161541
0.0161593
0.0161649
0.0161709
0.0161771
0.0161836
0.0161905
0.0161975
0.0162049
0.0162124
0.0162201
0.016228
0.0162359
0.016244
0.0162521
0.0162602
0.0162683
0.0162763
0.0162841
0.0162918
0.0162993
0.0163064
0.0163133
0.0163197
0.0163257
0.0163312
0.0163362
0.0163405
0.0163441
0.016347
0.0163491
0.0163503
0.0163506
0.0163499
0.0163481
0.0163453
0.0163413
0.0163361
0.0163296
0.0163219
0.0163128
0.0163023
0.0162904
0.0162771
0.0162624
0.0162461
0.0162284
0.0162091
0.0161884
0.0161662
0.0161424
0.0161172
0.0160906
0.0160625
0.016033
0.0160022
0.0159701
0.0159367
0.0159021
0.0158664
0.0158296
0.0157918
0.0157531
0.0157135
0.0156732
0.0156321
0.0155905
0.0155483
0.0155057
0.0154628
0.0154196
0.0153762
0.0153328
0.0152894
0.0152462
0.015203
0.0151602
0.0151178
0.0150757
0.0150341
0.0149932
0.0149529
0.0149133
0.0148745
0.0148366
0.0147995
0.0147634
0.0147283
0.0146942
0.0146612
0.0146294
0.0145986
0.0145691
0.0145408
0.0145137
0.014488
0.0144634
0.0144403
0.0144184
0.0143979
0.0143787
0.0143609
0.0143445
0.0143295
0.0143159
0.0143037
0.0142929
0.0142835
0.0142755
0.0142689
0.0142638
0.0142599
0.0142574
0.0142562
0.0142562
0.0142573
0.0142594
0.0142623
0.0142659
0.0142699
0.0142739
0.0142775
0.0142801
0.0142815
0.0163816
0.0163819
0.0163816
0.0163804
0.0163784
0.0163756
0.0163722
0.0163682
0.0163637
0.0163588
0.0163536
0.0163483
0.0163427
0.0163369
0.0163312
0.0163253
0.0163195
0.0163137
0.0163079
0.0163021
0.0162964
0.0162908
0.0162852
0.0162797
0.0162742
0.0162688
0.0162634
0.0162581
0.0162529
0.0162476
0.0162425
0.0162373
0.0162322
0.0162271
0.0162221
0.016217
0.0162121
0.0162071
0.0162022
0.0161974
0.0161926
0.0161879
0.0161832
0.0161786
0.0161742
0.0161698
0.0161655
0.0161614
0.0161575
0.0161537
0.0161501
0.0161466
0.0161434
0.0161404
0.0161376
0.0161351
0.0161328
0.0161308
0.0161291
0.0161277
0.0161267
0.0161259
0.0161255
0.0161254
0.0161257
0.0161263
0.0161273
0.0161287
0.0161304
0.0161325
0.016135
0.0161379
0.0161412
0.0161448
0.0161488
0.0161532
0.0161579
0.0161629
0.0161683
0.016174
0.01618
0.0161863
0.0161929
0.0161997
0.0162067
0.0162139
0.0162213
0.0162288
0.0162364
0.0162441
0.0162518
0.0162595
0.0162671
0.0162747
0.0162821
0.0162893
0.0162963
0.0163029
0.0163093
0.0163152
0.0163207
0.0163257
0.0163301
0.0163338
0.016337
0.0163393
0.0163409
0.0163415
0.0163413
0.0163401
0.0163378
0.0163345
0.0163301
0.0163244
0.0163176
0.0163094
0.0162999
0.0162891
0.0162769
0.0162633
0.0162483
0.0162318
0.0162139
0.0161945
0.0161737
0.0161514
0.0161276
0.0161024
0.0160758
0.0160478
0.0160184
0.0159878
0.0159558
0.0159227
0.0158884
0.015853
0.0158166
0.0157792
0.0157409
0.0157017
0.0156619
0.0156213
0.0155802
0.0155386
0.0154966
0.0154543
0.0154117
0.015369
0.0153263
0.0152835
0.0152409
0.0151984
0.0151563
0.0151145
0.0150731
0.0150322
0.0149919
0.0149523
0.0149133
0.0148752
0.0148378
0.0148014
0.0147658
0.0147313
0.0146978
0.0146653
0.0146339
0.0146037
0.0145747
0.0145468
0.0145202
0.0144947
0.0144706
0.0144477
0.0144262
0.0144059
0.014387
0.0143694
0.0143532
0.0143383
0.0143248
0.0143126
0.0143019
0.0142924
0.0142843
0.0142776
0.0142722
0.0142681
0.0142652
0.0142636
0.0142631
0.0142636
0.0142651
0.0142674
0.0142703
0.0142735
0.0142769
0.0142801
0.0142828
0.0142844
0.016383
0.0163831
0.0163828
0.0163816
0.0163796
0.016377
0.0163737
0.0163699
0.0163657
0.0163611
0.0163562
0.0163511
0.0163458
0.0163403
0.0163348
0.0163292
0.0163236
0.0163179
0.0163123
0.0163067
0.0163011
0.0162956
0.0162901
0.0162847
0.0162793
0.0162739
0.0162686
0.0162633
0.0162581
0.0162529
0.0162477
0.0162426
0.0162374
0.0162323
0.0162273
0.0162222
0.0162173
0.0162123
0.0162074
0.0162025
0.0161976
0.0161929
0.0161882
0.0161836
0.0161792
0.0161748
0.0161705
0.0161664
0.0161624
0.0161586
0.0161549
0.0161515
0.0161483
0.0161452
0.0161424
0.0161399
0.0161376
0.0161356
0.0161339
0.0161325
0.0161313
0.0161305
0.0161301
0.0161299
0.0161302
0.0161308
0.0161317
0.016133
0.0161346
0.0161367
0.0161391
0.0161419
0.016145
0.0161485
0.0161524
0.0161566
0.0161612
0.0161661
0.0161713
0.0161768
0.0161826
0.0161887
0.016195
0.0162016
0.0162083
0.0162152
0.0162223
0.0162295
0.0162368
0.0162442
0.0162515
0.0162589
0.0162661
0.0162733
0.0162803
0.0162871
0.0162937
0.0162999
0.0163058
0.0163114
0.0163164
0.0163209
0.0163249
0.0163282
0.0163309
0.0163328
0.0163339
0.0163341
0.0163334
0.0163318
0.0163292
0.0163254
0.0163206
0.0163146
0.0163073
0.0162988
0.0162891
0.0162779
0.0162655
0.0162516
0.0162364
0.0162197
0.0162016
0.0161821
0.0161611
0.0161387
0.0161149
0.0160897
0.0160631
0.0160351
0.0160058
0.0159753
0.0159435
0.0159106
0.0158765
0.0158413
0.0158051
0.015768
0.01573
0.0156913
0.0156518
0.0156116
0.0155709
0.0155298
0.0154882
0.0154464
0.0154043
0.0153621
0.0153199
0.0152777
0.0152356
0.0151937
0.0151521
0.0151108
0.01507
0.0150297
0.01499
0.0149509
0.0149125
0.0148749
0.0148381
0.0148021
0.0147671
0.014733
0.0147
0.014668
0.0146371
0.0146073
0.0145787
0.0145512
0.0145249
0.0144998
0.014476
0.0144535
0.0144322
0.0144122
0.0143935
0.0143761
0.01436
0.0143453
0.0143318
0.0143197
0.0143089
0.0142995
0.0142913
0.0142844
0.0142789
0.0142745
0.0142714
0.0142694
0.0142685
0.0142687
0.0142697
0.0142715
0.014274
0.0142769
0.0142801
0.0142833
0.0142864
0.0142886
0.0163853
0.0163853
0.0163848
0.0163835
0.0163815
0.0163789
0.0163758
0.0163721
0.0163681
0.0163637
0.016359
0.0163541
0.016349
0.0163438
0.0163384
0.016333
0.0163276
0.0163222
0.0163167
0.0163112
0.0163058
0.0163004
0.016295
0.0162896
0.0162843
0.016279
0.0162737
0.0162685
0.0162633
0.0162581
0.0162529
0.0162477
0.0162426
0.0162375
0.0162324
0.0162273
0.0162223
0.0162173
0.0162124
0.0162075
0.0162026
0.0161978
0.0161932
0.0161885
0.016184
0.0161796
0.0161753
0.0161711
0.0161671
0.0161633
0.0161596
0.0161561
0.0161529
0.0161498
0.016147
0.0161444
0.0161421
0.01614
0.0161383
0.0161368
0.0161357
0.0161348
0.0161343
0.0161341
0.0161343
0.0161348
0.0161357
0.0161369
0.0161385
0.0161405
0.0161428
0.0161455
0.0161485
0.0161519
0.0161556
0.0161597
0.0161641
0.0161689
0.0161739
0.0161793
0.0161849
0.0161907
0.0161969
0.0162032
0.0162097
0.0162164
0.0162233
0.0162302
0.0162372
0.0162442
0.0162513
0.0162583
0.0162653
0.0162721
0.0162788
0.0162852
0.0162914
0.0162973
0.0163028
0.016308
0.0163126
0.0163168
0.0163203
0.0163233
0.0163256
0.016327
0.0163278
0.0163276
0.0163266
0.0163246
0.0163216
0.0163175
0.0163123
0.016306
0.0162984
0.0162896
0.0162795
0.0162682
0.0162554
0.0162414
0.0162259
0.016209
0.0161908
0.0161711
0.01615
0.0161275
0.0161036
0.0160784
0.0160518
0.0160238
0.0159946
0.0159641
0.0159324
0.0158996
0.0158656
0.0158306
0.0157947
0.0157578
0.01572
0.0156815
0.0156423
0.0156025
0.0155622
0.0155214
0.0154802
0.0154387
0.0153971
0.0153553
0.0153135
0.0152717
0.0152301
0.0151887
0.0151475
0.0151068
0.0150665
0.0150266
0.0149874
0.0149488
0.0149108
0.0148737
0.0148373
0.0148019
0.0147673
0.0147337
0.0147011
0.0146695
0.014639
0.0146097
0.0145814
0.0145543
0.0145283
0.0145036
0.0144801
0.0144578
0.0144368
0.014417
0.0143985
0.0143813
0.0143654
0.0143508
0.0143374
0.0143253
0.0143146
0.0143051
0.0142969
0.0142899
0.0142842
0.0142797
0.0142763
0.0142741
0.0142729
0.0142727
0.0142735
0.014275
0.0142773
0.0142801
0.0142832
0.0142867
0.0142904
0.0142933
0.0163886
0.0163884
0.0163876
0.0163862
0.0163841
0.0163814
0.0163783
0.0163747
0.0163708
0.0163665
0.016362
0.0163573
0.0163524
0.0163473
0.0163422
0.0163369
0.0163317
0.0163264
0.0163211
0.0163157
0.0163104
0.0163051
0.0162998
0.0162945
0.0162893
0.016284
0.0162788
0.0162736
0.0162684
0.0162632
0.016258
0.0162529
0.0162477
0.0162426
0.0162375
0.0162324
0.0162274
0.0162223
0.0162174
0.0162124
0.0162075
0.0162027
0.016198
0.0161933
0.0161887
0.0161843
0.01618
0.0161758
0.0161717
0.0161678
0.0161641
0.0161606
0.0161573
0.0161542
0.0161513
0.0161487
0.0161463
0.0161442
0.0161424
0.0161409
0.0161397
0.0161388
0.0161383
0.016138
0.0161381
0.0161386
0.0161394
0.0161405
0.016142
0.0161439
0.0161462
0.0161488
0.0161517
0.016155
0.0161586
0.0161625
0.0161668
0.0161714
0.0161763
0.0161815
0.0161869
0.0161926
0.0161986
0.0162047
0.016211
0.0162175
0.0162241
0.0162308
0.0162375
0.0162443
0.0162511
0.0162579
0.0162645
0.0162711
0.0162774
0.0162836
0.0162894
0.016295
0.0163002
0.016305
0.0163093
0.0163131
0.0163164
0.016319
0.0163209
0.0163221
0.0163224
0.016322
0.0163206
0.0163183
0.0163149
0.0163105
0.0163051
0.0162984
0.0162906
0.0162815
0.0162712
0.0162596
0.0162466
0.0162323
0.0162167
0.0161996
0.0161812
0.0161614
0.0161402
0.0161176
0.0160936
0.0160683
0.0160416
0.0160137
0.0159844
0.015954
0.0159223
0.0158896
0.0158557
0.0158208
0.015785
0.0157482
0.0157107
0.0156724
0.0156334
0.0155938
0.0155537
0.0155132
0.0154723
0.0154312
0.0153899
0.0153484
0.015307
0.0152656
0.0152244
0.0151833
0.0151426
0.0151022
0.0150623
0.0150229
0.0149841
0.0149459
0.0149084
0.0148717
0.0148358
0.0148007
0.0147666
0.0147334
0.0147012
0.01467
0.0146399
0.0146108
0.0145829
0.0145562
0.0145305
0.0145061
0.0144829
0.0144609
0.0144401
0.0144206
0.0144023
0.0143852
0.0143695
0.0143549
0.0143417
0.0143297
0.0143189
0.0143094
0.0143011
0.0142941
0.0142883
0.0142836
0.0142801
0.0142776
0.0142763
0.0142759
0.0142764
0.0142778
0.01428
0.0142828
0.0142861
0.0142899
0.0142943
0.0142979
0.0163927
0.0163922
0.0163911
0.0163894
0.0163872
0.0163844
0.0163813
0.0163777
0.0163738
0.0163697
0.0163653
0.0163606
0.0163559
0.016351
0.016346
0.0163409
0.0163358
0.0163306
0.0163254
0.0163202
0.016315
0.0163098
0.0163046
0.0162994
0.0162942
0.016289
0.0162838
0.0162786
0.0162734
0.0162683
0.0162631
0.016258
0.0162528
0.0162477
0.0162425
0.0162374
0.0162323
0.0162273
0.0162222
0.0162173
0.0162123
0.0162075
0.0162027
0.016198
0.0161933
0.0161888
0.0161845
0.0161802
0.0161761
0.0161722
0.0161684
0.0161648
0.0161615
0.0161583
0.0161554
0.0161527
0.0161503
0.0161482
0.0161463
0.0161447
0.0161435
0.0161425
0.0161419
0.0161416
0.0161417
0.016142
0.0161428
0.0161439
0.0161453
0.0161471
0.0161492
0.0161517
0.0161546
0.0161577
0.0161613
0.0161651
0.0161692
0.0161737
0.0161785
0.0161835
0.0161888
0.0161943
0.0162001
0.016206
0.0162122
0.0162184
0.0162249
0.0162313
0.0162379
0.0162445
0.016251
0.0162575
0.0162639
0.0162702
0.0162763
0.0162822
0.0162877
0.0162931
0.016298
0.0163025
0.0163065
0.01631
0.016313
0.0163153
0.0163169
0.0163178
0.0163179
0.0163171
0.0163154
0.0163129
0.0163092
0.0163046
0.0162988
0.0162919
0.0162838
0.0162745
0.016264
0.0162521
0.016239
0.0162245
0.0162087
0.0161915
0.0161729
0.0161529
0.0161315
0.0161088
0.0160848
0.0160594
0.0160326
0.0160046
0.0159754
0.0159449
0.0159132
0.0158805
0.0158467
0.0158119
0.0157761
0.0157394
0.015702
0.0156638
0.015625
0.0155856
0.0155457
0.0155054
0.0154647
0.0154238
0.0153827
0.0153415
0.0153004
0.0152593
0.0152183
0.0151776
0.0151372
0.0150972
0.0150576
0.0150186
0.0149801
0.0149423
0.0149052
0.0148688
0.0148333
0.0147986
0.0147648
0.014732
0.0147001
0.0146693
0.0146395
0.0146108
0.0145832
0.0145568
0.0145315
0.0145074
0.0144844
0.0144626
0.0144421
0.0144228
0.0144047
0.0143878
0.0143721
0.0143577
0.0143446
0.0143326
0.0143219
0.0143124
0.0143041
0.014297
0.0142911
0.0142863
0.0142827
0.0142801
0.0142786
0.0142781
0.0142786
0.0142799
0.014282
0.0142849
0.0142885
0.0142928
0.0142979
0.0143022
0.0163976
0.0163967
0.0163952
0.0163932
0.0163908
0.0163879
0.0163847
0.016381
0.0163772
0.016373
0.0163687
0.0163642
0.0163595
0.0163547
0.0163498
0.0163449
0.0163399
0.0163349
0.0163298
0.0163247
0.0163196
0.0163145
0.0163093
0.0163042
0.0162991
0.0162939
0.0162887
0.0162836
0.0162785
0.0162733
0.0162681
0.016263
0.0162578
0.0162526
0.0162475
0.0162423
0.0162372
0.0162321
0.016227
0.016222
0.016217
0.0162121
0.0162073
0.0162025
0.0161978
0.0161932
0.0161888
0.0161845
0.0161803
0.0161763
0.0161725
0.0161688
0.0161654
0.0161622
0.0161592
0.0161565
0.016154
0.0161518
0.0161499
0.0161483
0.016147
0.0161459
0.0161453
0.0161449
0.0161449
0.0161452
0.0161458
0.0161468
0.0161482
0.0161499
0.016152
0.0161544
0.0161571
0.0161602
0.0161637
0.0161674
0.0161714
0.0161758
0.0161804
0.0161853
0.0161905
0.0161959
0.0162015
0.0162073
0.0162132
0.0162193
0.0162256
0.0162319
0.0162382
0.0162446
0.0162509
0.0162572
0.0162634
0.0162695
0.0162753
0.016281
0.0162864
0.0162914
0.0162961
0.0163004
0.0163041
0.0163074
0.0163101
0.0163122
0.0163135
0.0163142
0.016314
0.016313
0.0163111
0.0163083
0.0163044
0.0162995
0.0162935
0.0162864
0.0162781
0.0162686
0.0162579
0.0162458
0.0162325
0.0162178
0.0162018
0.0161844
0.0161657
0.0161456
0.0161241
0.0161013
0.0160771
0.0160516
0.0160247
0.0159967
0.0159673
0.0159368
0.0159051
0.0158723
0.0158385
0.0158037
0.0157679
0.0157313
0.0156939
0.0156558
0.0156171
0.0155778
0.015538
0.0154977
0.0154572
0.0154165
0.0153756
0.0153346
0.0152936
0.0152528
0.0152121
0.0151716
0.0151314
0.0150917
0.0150524
0.0150136
0.0149754
0.0149379
0.0149011
0.0148651
0.0148298
0.0147955
0.014762
0.0147295
0.014698
0.0146675
0.014638
0.0146096
0.0145823
0.0145562
0.0145311
0.0145073
0.0144846
0.0144631
0.0144427
0.0144236
0.0144057
0.014389
0.0143735
0.0143592
0.0143461
0.0143342
0.0143236
0.0143141
0.0143058
0.0142987
0.0142927
0.0142878
0.0142841
0.0142815
0.0142799
0.0142793
0.0142797
0.0142811
0.0142833
0.0142864
0.0142903
0.014295
0.0143009
0.0143059
0.016403
0.0164018
0.0163998
0.0163975
0.0163948
0.0163917
0.0163884
0.0163847
0.0163808
0.0163766
0.0163723
0.0163678
0.0163632
0.0163585
0.0163538
0.0163489
0.016344
0.0163391
0.0163341
0.0163291
0.0163241
0.016319
0.016314
0.0163089
0.0163039
0.0162987
0.0162936
0.0162885
0.0162834
0.0162783
0.0162731
0.0162679
0.0162627
0.0162575
0.0162523
0.0162472
0.016242
0.0162368
0.0162317
0.0162266
0.0162216
0.0162166
0.0162117
0.0162069
0.0162021
0.0161975
0.016193
0.0161886
0.0161844
0.0161803
0.0161764
0.0161727
0.0161692
0.0161659
0.0161628
0.01616
0.0161575
0.0161552
0.0161532
0.0161515
0.0161502
0.0161491
0.0161483
0.0161479
0.0161478
0.0161481
0.0161486
0.0161496
0.0161509
0.0161525
0.0161545
0.0161568
0.0161595
0.0161625
0.0161658
0.0161694
0.0161734
0.0161776
0.0161821
0.0161869
0.016192
0.0161972
0.0162027
0.0162084
0.0162142
0.0162202
0.0162262
0.0162324
0.0162386
0.0162448
0.0162509
0.016257
0.016263
0.0162689
0.0162746
0.0162801
0.0162852
0.0162901
0.0162946
0.0162986
0.0163022
0.0163053
0.0163077
0.0163096
0.0163108
0.0163112
0.0163108
0.0163096
0.0163075
0.0163045
0.0163005
0.0162954
0.0162892
0.0162819
0.0162734
0.0162637
0.0162528
0.0162406
0.0162271
0.0162122
0.016196
0.0161785
0.0161596
0.0161394
0.0161177
0.0160948
0.0160705
0.0160449
0.0160179
0.0159897
0.0159603
0.0159297
0.0158979
0.015865
0.0158311
0.0157963
0.0157605
0.0157238
0.0156864
0.0156483
0.0156096
0.0155703
0.0155305
0.0154904
0.0154499
0.0154093
0.0153684
0.0153276
0.0152868
0.015246
0.0152055
0.0151651
0.0151252
0.0150856
0.0150465
0.015008
0.0149701
0.0149328
0.0148962
0.0148605
0.0148255
0.0147914
0.0147582
0.014726
0.0146947
0.0146645
0.0146353
0.0146072
0.0145802
0.0145543
0.0145295
0.0145059
0.0144834
0.0144622
0.0144421
0.0144231
0.0144054
0.0143888
0.0143735
0.0143593
0.0143463
0.0143345
0.0143239
0.0143144
0.0143061
0.014299
0.014293
0.0142881
0.0142844
0.0142817
0.0142801
0.0142795
0.0142799
0.0142813
0.0142837
0.014287
0.0142912
0.0142965
0.014303
0.0143086
0.016409
0.0164073
0.0164049
0.0164022
0.0163992
0.0163959
0.0163924
0.0163886
0.0163846
0.0163804
0.0163761
0.0163716
0.0163671
0.0163624
0.0163577
0.0163529
0.0163481
0.0163433
0.0163384
0.0163335
0.0163286
0.0163236
0.0163186
0.0163136
0.0163086
0.0163035
0.0162984
0.0162934
0.0162882
0.0162831
0.0162779
0.0162727
0.0162675
0.0162623
0.0162571
0.0162519
0.0162467
0.0162415
0.0162363
0.0162311
0.016226
0.016221
0.016216
0.0162111
0.0162063
0.0162015
0.016197
0.0161925
0.0161882
0.016184
0.0161801
0.0161763
0.0161727
0.0161693
0.0161662
0.0161633
0.0161607
0.0161584
0.0161563
0.0161546
0.0161531
0.016152
0.0161511
0.0161506
0.0161505
0.0161506
0.0161512
0.016152
0.0161533
0.0161548
0.0161567
0.016159
0.0161616
0.0161645
0.0161677
0.0161713
0.0161751
0.0161793
0.0161837
0.0161884
0.0161933
0.0161985
0.0162038
0.0162094
0.0162151
0.0162209
0.0162269
0.0162328
0.0162389
0.016245
0.016251
0.0162569
0.0162628
0.0162685
0.016274
0.0162793
0.0162843
0.016289
0.0162933
0.0162972
0.0163006
0.0163035
0.0163058
0.0163075
0.0163085
0.0163088
0.0163083
0.0163069
0.0163046
0.0163014
0.0162972
0.016292
0.0162856
0.0162782
0.0162696
0.0162597
0.0162486
0.0162362
0.0162226
0.0162076
0.0161913
0.0161736
0.0161546
0.0161342
0.0161124
0.0160893
0.0160649
0.0160391
0.016012
0.0159837
0.0159541
0.0159234
0.0158915
0.0158585
0.0158245
0.0157895
0.0157537
0.0157169
0.0156795
0.0156413
0.0156025
0.0155631
0.0155234
0.0154832
0.0154427
0.0154021
0.0153613
0.0153205
0.0152797
0.015239
0.0151986
0.0151584
0.0151185
0.0150791
0.0150401
0.0150018
0.014964
0.0149269
0.0148905
0.014855
0.0148202
0.0147864
0.0147534
0.0147214
0.0146904
0.0146604
0.0146315
0.0146036
0.0145769
0.0145512
0.0145267
0.0145033
0.014481
0.01446
0.01444
0.0144213
0.0144037
0.0143873
0.0143721
0.0143581
0.0143452
0.0143334
0.0143229
0.0143135
0.0143052
0.0142981
0.0142921
0.0142872
0.0142834
0.0142807
0.0142791
0.0142785
0.014279
0.0142805
0.0142831
0.0142866
0.0142912
0.0142969
0.0143041
0.0143102
0.0164153
0.0164132
0.0164103
0.0164073
0.0164039
0.0164003
0.0163966
0.0163926
0.0163885
0.0163843
0.0163799
0.0163755
0.016371
0.0163664
0.0163617
0.016357
0.0163523
0.0163475
0.0163427
0.0163378
0.016333
0.0163281
0.0163232
0.0163182
0.0163132
0.0163082
0.0163032
0.0162981
0.016293
0.0162878
0.0162827
0.0162775
0.0162722
0.016267
0.0162617
0.0162565
0.0162512
0.0162459
0.0162407
0.0162355
0.0162303
0.0162252
0.0162201
0.0162152
0.0162102
0.0162055
0.0162008
0.0161962
0.0161918
0.0161876
0.0161835
0.0161796
0.016176
0.0161725
0.0161693
0.0161664
0.0161637
0.0161613
0.0161591
0.0161573
0.0161558
0.0161546
0.0161537
0.0161531
0.0161529
0.016153
0.0161534
0.0161542
0.0161554
0.0161569
0.0161587
0.0161609
0.0161634
0.0161663
0.0161694
0.0161729
0.0161767
0.0161807
0.0161851
0.0161897
0.0161945
0.0161996
0.0162049
0.0162103
0.0162159
0.0162216
0.0162274
0.0162333
0.0162392
0.0162452
0.0162511
0.0162569
0.0162626
0.0162682
0.0162736
0.0162787
0.0162836
0.0162882
0.0162924
0.0162961
0.0162994
0.0163021
0.0163043
0.0163059
0.0163067
0.0163069
0.0163062
0.0163047
0.0163023
0.016299
0.0162947
0.0162893
0.0162828
0.0162752
0.0162665
0.0162565
0.0162453
0.0162328
0.016219
0.0162039
0.0161874
0.0161696
0.0161504
0.0161299
0.016108
0.0160847
0.0160601
0.0160342
0.016007
0.0159785
0.0159488
0.0159179
0.0158858
0.0158527
0.0158186
0.0157835
0.0157474
0.0157106
0.015673
0.0156347
0.0155958
0.0155563
0.0155164
0.0154762
0.0154357
0.0153949
0.0153541
0.0153133
0.0152725
0.0152318
0.0151913
0.0151512
0.0151114
0.015072
0.0150332
0.0149949
0.0149572
0.0149202
0.0148841
0.0148486
0.014814
0.0147803
0.0147476
0.0147158
0.014685
0.0146552
0.0146265
0.0145989
0.0145723
0.0145469
0.0145225
0.0144994
0.0144773
0.0144564
0.0144367
0.0144181
0.0144007
0.0143845
0.0143694
0.0143554
0.0143427
0.014331
0.0143205
0.0143112
0.014303
0.0142959
0.0142899
0.014285
0.0142812
0.0142786
0.014277
0.0142765
0.014277
0.0142787
0.0142814
0.0142852
0.0142901
0.0142962
0.014304
0.0143106
0.016422
0.0164194
0.016416
0.0164125
0.0164088
0.016405
0.016401
0.0163969
0.0163927
0.0163883
0.0163839
0.0163794
0.0163749
0.0163703
0.0163657
0.016361
0.0163563
0.0163516
0.0163469
0.0163421
0.0163373
0.0163325
0.0163276
0.0163227
0.0163177
0.0163128
0.0163077
0.0163027
0.0162976
0.0162925
0.0162873
0.0162821
0.0162768
0.0162716
0.0162662
0.0162609
0.0162556
0.0162503
0.016245
0.0162397
0.0162344
0.0162292
0.0162241
0.016219
0.016214
0.0162091
0.0162044
0.0161997
0.0161952
0.0161909
0.0161868
0.0161828
0.016179
0.0161755
0.0161722
0.0161692
0.0161664
0.0161639
0.0161617
0.0161598
0.0161582
0.0161569
0.016156
0.0161553
0.016155
0.0161551
0.0161555
0.0161562
0.0161573
0.0161587
0.0161605
0.0161626
0.0161651
0.0161679
0.0161709
0.0161744
0.0161781
0.016182
0.0161863
0.0161908
0.0161956
0.0162006
0.0162057
0.0162111
0.0162166
0.0162222
0.0162279
0.0162337
0.0162395
0.0162453
0.0162511
0.0162569
0.0162625
0.016268
0.0162732
0.0162783
0.016283
0.0162875
0.0162916
0.0162952
0.0162984
0.016301
0.0163031
0.0163046
0.0163053
0.0163054
0.0163046
0.016303
0.0163005
0.0162971
0.0162927
0.0162872
0.0162807
0.016273
0.0162641
0.016254
0.0162427
0.0162301
0.0162162
0.016201
0.0161844
0.0161664
0.0161471
0.0161264
0.0161044
0.016081
0.0160562
0.0160301
0.0160028
0.0159741
0.0159442
0.0159131
0.0158809
0.0158476
0.0158132
0.015778
0.0157417
0.0157047
0.0156669
0.0156284
0.0155893
0.0155497
0.0155097
0.0154693
0.0154286
0.0153878
0.0153469
0.0153059
0.015265
0.0152243
0.0151838
0.0151436
0.0151038
0.0150644
0.0150256
0.0149873
0.0149497
0.0149128
0.0148767
0.0148414
0.0148069
0.0147734
0.0147408
0.0147091
0.0146785
0.0146489
0.0146203
0.0145929
0.0145665
0.0145413
0.0145171
0.0144942
0.0144723
0.0144516
0.014432
0.0144136
0.0143964
0.0143803
0.0143653
0.0143515
0.0143388
0.0143273
0.0143169
0.0143076
0.0142994
0.0142923
0.0142864
0.0142816
0.0142778
0.0142752
0.0142736
0.0142732
0.0142739
0.0142757
0.0142786
0.0142826
0.0142879
0.0142944
0.0143026
0.0143096
0.0164289
0.0164259
0.0164219
0.016418
0.0164139
0.0164098
0.0164055
0.0164012
0.0163968
0.0163924
0.0163879
0.0163834
0.0163788
0.0163742
0.0163696
0.016365
0.0163604
0.0163557
0.016351
0.0163463
0.0163415
0.0163368
0.0163319
0.0163271
0.0163222
0.0163172
0.0163122
0.0163072
0.0163021
0.0162969
0.0162917
0.0162865
0.0162812
0.0162759
0.0162706
0.0162652
0.0162598
0.0162545
0.0162491
0.0162437
0.0162384
0.0162331
0.0162278
0.0162227
0.0162176
0.0162126
0.0162078
0.016203
0.0161985
0.016194
0.0161898
0.0161857
0.0161819
0.0161783
0.0161749
0.0161718
0.0161689
0.0161663
0.0161641
0.0161621
0.0161604
0.016159
0.016158
0.0161573
0.016157
0.016157
0.0161573
0.016158
0.016159
0.0161604
0.0161621
0.0161641
0.0161665
0.0161692
0.0161723
0.0161756
0.0161792
0.0161832
0.0161874
0.0161918
0.0161965
0.0162014
0.0162065
0.0162117
0.0162171
0.0162227
0.0162283
0.016234
0.0162397
0.0162455
0.0162511
0.0162568
0.0162623
0.0162677
0.0162729
0.0162778
0.0162825
0.0162868
0.0162908
0.0162944
0.0162975
0.0163001
0.0163021
0.0163035
0.0163042
0.0163041
0.0163033
0.0163016
0.0162991
0.0162956
0.0162911
0.0162856
0.016279
0.0162712
0.0162623
0.0162521
0.0162407
0.016228
0.016214
0.0161987
0.016182
0.0161639
0.0161445
0.0161237
0.0161015
0.0160779
0.016053
0.0160268
0.0159992
0.0159704
0.0159403
0.015909
0.0158766
0.015843
0.0158085
0.015773
0.0157365
0.0156993
0.0156612
0.0156225
0.0155832
0.0155434
0.0155031
0.0154625
0.0154217
0.0153807
0.0153395
0.0152984
0.0152574
0.0152165
0.0151759
0.0151356
0.0150957
0.0150563
0.0150175
0.0149792
0.0149416
0.0149047
0.0148686
0.0148333
0.0147989
0.0147655
0.0147329
0.0147014
0.0146709
0.0146414
0.014613
0.0145857
0.0145595
0.0145344
0.0145105
0.0144877
0.014466
0.0144455
0.0144261
0.0144078
0.0143907
0.0143747
0.0143599
0.0143462
0.0143336
0.0143222
0.0143118
0.0143026
0.0142945
0.0142875
0.0142816
0.0142768
0.0142731
0.0142705
0.0142691
0.0142687
0.0142695
0.0142714
0.0142745
0.0142788
0.0142843
0.0142912
0.0142999
0.0143073
0.0164359
0.0164324
0.0164279
0.0164235
0.0164191
0.0164146
0.0164101
0.0164056
0.0164011
0.0163965
0.0163919
0.0163873
0.0163827
0.0163781
0.0163735
0.0163689
0.0163643
0.0163597
0.016355
0.0163503
0.0163456
0.0163409
0.0163361
0.0163313
0.0163264
0.0163215
0.0163165
0.0163115
0.0163064
0.0163012
0.016296
0.0162908
0.0162854
0.0162801
0.0162747
0.0162693
0.0162639
0.0162584
0.016253
0.0162475
0.0162421
0.0162367
0.0162314
0.0162261
0.016221
0.0162159
0.0162109
0.0162061
0.0162014
0.0161969
0.0161926
0.0161884
0.0161845
0.0161808
0.0161773
0.0161741
0.0161712
0.0161685
0.0161662
0.0161641
0.0161624
0.0161609
0.0161598
0.0161591
0.0161587
0.0161586
0.0161589
0.0161595
0.0161605
0.0161618
0.0161634
0.0161654
0.0161678
0.0161704
0.0161734
0.0161767
0.0161802
0.0161841
0.0161882
0.0161926
0.0161972
0.016202
0.016207
0.0162122
0.0162175
0.016223
0.0162285
0.0162341
0.0162398
0.0162454
0.016251
0.0162566
0.016262
0.0162673
0.0162724
0.0162773
0.0162819
0.0162862
0.0162901
0.0162936
0.0162966
0.0162991
0.0163011
0.0163024
0.0163031
0.016303
0.0163021
0.0163004
0.0162979
0.0162943
0.0162898
0.0162842
0.0162776
0.0162698
0.0162608
0.0162506
0.0162391
0.0162264
0.0162123
0.0161969
0.0161801
0.016162
0.0161424
0.0161215
0.0160992
0.0160755
0.0160504
0.016024
0.0159962
0.0159672
0.0159369
0.0159054
0.0158728
0.015839
0.0158042
0.0157684
0.0157317
0.0156942
0.0156559
0.0156169
0.0155773
0.0155373
0.0154967
0.0154559
0.0154148
0.0153735
0.0153322
0.0152908
0.0152496
0.0152085
0.0151678
0.0151273
0.0150873
0.0150477
0.0150087
0.0149704
0.0149327
0.0148958
0.0148597
0.0148244
0.0147901
0.0147566
0.0147241
0.0146927
0.0146623
0.0146329
0.0146046
0.0145774
0.0145513
0.0145264
0.0145026
0.0144799
0.0144584
0.014438
0.0144188
0.0144007
0.0143837
0.0143678
0.0143531
0.0143395
0.0143271
0.0143157
0.0143055
0.0142964
0.0142883
0.0142814
0.0142755
0.0142708
0.0142672
0.0142646
0.0142632
0.0142629
0.0142638
0.0142659
0.0142692
0.0142737
0.0142794
0.0142866
0.0142957
0.0143034
0.016443
0.0164391
0.016434
0.0164292
0.0164243
0.0164195
0.0164148
0.01641
0.0164053
0.0164006
0.0163959
0.0163912
0.0163866
0.016382
0.0163773
0.0163727
0.0163681
0.0163635
0.0163589
0.0163543
0.0163496
0.0163449
0.0163401
0.0163353
0.0163305
0.0163256
0.0163206
0.0163156
0.0163105
0.0163053
0.0163001
0.0162948
0.0162895
0.0162841
0.0162786
0.0162732
0.0162677
0.0162621
0.0162566
0.0162511
0.0162456
0.0162401
0.0162347
0.0162294
0.0162241
0.0162189
0.0162139
0.0162089
0.0162042
0.0161995
0.0161951
0.0161909
0.0161868
0.0161831
0.0161795
0.0161762
0.0161732
0.0161705
0.0161681
0.0161659
0.0161641
0.0161626
0.0161615
0.0161607
0.0161602
0.01616
0.0161602
0.0161608
0.0161617
0.016163
0.0161646
0.0161665
0.0161688
0.0161714
0.0161743
0.0161775
0.016181
0.0161848
0.0161888
0.0161931
0.0161976
0.0162024
0.0162073
0.0162124
0.0162177
0.016223
0.0162285
0.016234
0.0162396
0.0162451
0.0162507
0.0162561
0.0162615
0.0162667
0.0162717
0.0162765
0.0162811
0.0162853
0.0162892
0.0162926
0.0162956
0.0162981
0.0163
0.0163013
0.0163019
0.0163018
0.0163009
0.0162992
0.0162966
0.0162931
0.0162886
0.016283
0.0162763
0.0162685
0.0162595
0.0162492
0.0162378
0.016225
0.0162109
0.0161954
0.0161786
0.0161603
0.0161407
0.0161197
0.0160972
0.0160734
0.0160482
0.0160216
0.0159937
0.0159645
0.015934
0.0159022
0.0158693
0.0158353
0.0158003
0.0157642
0.0157272
0.0156894
0.0156508
0.0156115
0.0155717
0.0155312
0.0154904
0.0154493
0.0154079
0.0153663
0.0153247
0.015283
0.0152416
0.0152003
0.0151592
0.0151186
0.0150783
0.0150386
0.0149995
0.014961
0.0149232