/*--------------------------------*- C++ -*----------------------------------*\
  =========                 |
  \\      /  F ield         | OpenFOAM: The Open Source CFD Toolbox
   \\    /   O peration     | Website:  https://openfoam.org
    \\  /    A nd           | Version:  6
     \\/     M anipulation  |
\*---------------------------------------------------------------------------*/
FoamFile
{
    version     2.0;
    format      ascii;
    class       volVectorField;
    location    "0";
    object      U;
}
// * * * * * * * * * * * * * * * * * * * * * * * * * * * * * * * * * * * * * //

dimensions      [0 1 -1 0 0 0 0];

internalField   nonuniform List<vector> 
13046
(
(-0.371694 0.127559 0)
(-0.699109 -0.312606 -4.32497e-21)
(-0.170948 -0.173172 -8.74843e-21)
(-0.355777 0.0246963 0)
(-0.0999549 -0.0922457 -8.27201e-21)
(-0.58188 -0.314931 0)
(-0.406812 0.0534443 1.32583e-21)
(-0.664132 -0.365541 2.14087e-21)
(-0.0658395 -0.0772194 -8.92608e-21)
(-1.18083 0.524425 3.04059e-21)
(-1.45879 -0.705966 0)
(0.0814488 -0.0123051 5.16529e-21)
(-0.53395 0.183907 -4.21915e-21)
(-0.878487 -0.418604 -6.23582e-21)
(-0.0652075 -0.123253 4.62483e-21)
(-1.10107 0.580655 -4.29052e-21)
(0.0267654 -0.0339409 1.22772e-20)
(-1.51051 -0.608058 1.19918e-21)
(-0.148246 -0.014984 0)
(-0.403854 -0.26691 -4.54663e-21)
(-0.406083 -0.100779 1.38453e-20)
(-1.11717 0.571316 -1.6963e-21)
(0.0428386 -0.026367 -1.64121e-20)
(-1.50192 -0.629997 0)
(-0.298042 0.039429 5.45821e-21)
(-0.555184 -0.262604 -1.07366e-20)
(-0.173073 -0.154045 0)
(-0.549456 0.220382 -7.58544e-21)
(-0.915405 -0.416198 1.85567e-21)
(-0.0830044 -0.138305 -8.1215e-21)
(-0.383879 0.153079 0)
(-0.730867 -0.298344 0)
(-0.195817 -0.194972 8.90313e-21)
(-0.262527 0.00413515 -6.34142e-21)
(-0.199829 -0.15712 3.10705e-21)
(-0.477565 -0.222616 1.87139e-20)
(-0.268397 -0.0236154 -9.74e-21)
(-0.193428 -0.133682 4.80435e-21)
(-0.439112 -0.216214 -9.53385e-21)
(-0.281089 0.148408 6.59983e-21)
(-0.437543 -0.357421 1.5643e-21)
(-0.671657 -0.180492 -6.71813e-21)
(-0.292608 -0.1036 4.38365e-21)
(-0.225541 -0.106105 7.34324e-21)
(-0.3159 -0.167545 0)
(-0.319464 -0.0939031 2.87026e-21)
(-0.182849 -0.0773542 -1.13222e-20)
(-0.350142 -0.20052 -1.39913e-21)
(-0.397801 0.121481 0)
(-0.721786 -0.339607 -3.04276e-22)
(-0.121752 -0.146515 -8.14637e-23)
(-0.707489 -0.550987 9.42369e-21)
(-0.231253 0.159927 0)
(-0.72791 -0.0766727 -7.90519e-21)
(-0.799403 -0.610317 -1.34389e-20)
(-0.738319 -0.0430695 -1.27547e-20)
(-0.19185 0.136691 9.6972e-21)
(-1.32357 -0.419382 -1.12137e-21)
(-0.844336 0.511214 0)
(-0.194192 -0.209659 6.84239e-21)
(-0.774814 0.216571 -4.03535e-21)
(-1.09871 -0.63319 3.28625e-21)
(0.0556426 -0.0271055 -1.92916e-20)
(0.0755136 -0.0382995 9.62076e-21)
(-1.42127 -0.687704 -1.37351e-21)
(-1.07649 0.457669 -5.72173e-21)
(-0.786868 0.493746 0)
(-1.25948 -0.366848 0)
(-0.259538 -0.26598 0)
(-0.734985 0.460695 -2.79932e-21)
(-1.20379 -0.348082 0)
(-0.281179 -0.283256 5.45621e-21)
(-1.37781 -0.430688 0)
(-0.894102 0.540883 6.41606e-23)
(-0.173986 -0.197698 -5.79675e-23)
(-0.15782 0.00930085 0)
(-0.403756 -0.283273 4.86782e-21)
(-0.449704 -0.126402 -9.79727e-21)
(-0.0953961 -0.13167 7.47186e-21)
(-0.96548 0.564318 -8.25262e-21)
(-1.43906 -0.491417 0)
(-0.33155 0.051938 2.90083e-21)
(-0.594534 -0.290819 0)
(-0.135503 -0.127943 0)
(0.0765181 -0.0322633 -8.57023e-21)
(-1.44711 -0.692802 -8.25426e-22)
(-1.11344 0.48358 3.36683e-21)
(-1.11642 0.363198 -6.05436e-21)
(0.0990786 -0.0252935 0)
(-1.37306 -0.791825 -1.11923e-21)
(0.0536956 -0.0134793 0)
(-1.1993 0.281889 0)
(-1.34295 -0.901755 1.19902e-22)
(-0.815889 0.345268 0)
(-0.874114 0.361359 3.48024e-21)
(-1.20631 -0.563424 6.13007e-21)
(-1.25427 -0.604804 -2.84045e-21)
(0.00789215 -0.0885416 -4.02474e-21)
(0.0362838 -0.0692534 1.03813e-20)
(0.0934384 -0.0220161 -4.9325e-22)
(-1.10436 0.334205 5.92412e-21)
(-1.34845 -0.810799 0)
(-0.327398 -0.0648914 -1.18276e-23)
(-0.15241 -0.0754231 5.84063e-21)
(-0.411159 -0.239144 0)
(-0.0964288 0.0757839 0)
(-0.634456 -0.00475738 -4.04456e-21)
(-0.769026 -0.541177 0)
(-0.215795 0.138337 1.11907e-20)
(-0.619601 -0.472907 0)
(-0.666791 -0.104726 -1.54129e-20)
(-1.1385 0.529214 0)
(0.0641114 0.00205248 0)
(-1.32131 -0.666779 1.04652e-21)
(-0.470172 0.152456 1.16444e-20)
(-0.813515 -0.384318 2.77092e-21)
(-0.0787979 -0.122622 8.53788e-21)
(-0.890929 0.427664 4.42903e-21)
(-0.828618 0.384033 -8.37875e-21)
(-1.30402 -0.556054 -5.12819e-21)
(-0.0171112 -0.0983712 4.59463e-21)
(-1.23567 -0.53723 2.88916e-21)
(-0.0216739 -0.104414 -4.29176e-21)
(-1.17532 0.539929 -2.07696e-21)
(-1.44926 -0.692447 9.69566e-24)
(0.0760275 -0.00663988 -2.30348e-21)
(-0.692232 0.291885 0)
(-1.0751 -0.493475 -4.4662e-21)
(-0.0387535 -0.12036 9.72505e-21)
(-0.330119 0.17011 0)
(-0.376594 -0.321429 -7.94318e-21)
(-0.714658 -0.218061 3.88774e-22)
(0.0447529 -0.00544844 0)
(-1.14686 0.256606 0)
(-1.3211 -0.886727 0)
(-0.979783 0.377309 0)
(-1.32609 -0.682408 -6.86724e-21)
(0.0775927 -0.0439001 -1.1053e-20)
(-0.441081 0.182212 0)
(-0.798275 -0.331643 0)
(-0.1777 -0.19683 0)
(-0.560397 0.0925375 0)
(-0.837497 -0.501866 0)
(-0.00319 -0.0235455 0)
(-0.19335 0.13179 0)
(-0.684876 -0.515503 0)
(-0.67533 -0.075928 8.35299e-21)
(-0.0941241 0.0633816 -1.13476e-21)
(-0.605391 -0.0125993 -8.85063e-21)
(-0.745809 -0.515808 8.7675e-21)
(-0.824118 0.244677 9.19454e-21)
(-1.14754 -0.65092 0)
(0.0658518 -0.0352164 2.50273e-20)
(-0.0637558 0.0100539 0)
(-0.50153 -0.00678145 9.51149e-21)
(-0.661697 -0.431253 -2.27483e-21)
(-0.953472 -0.688307 0)
(-0.770933 0.04606 9.15041e-21)
(-1.02744 -0.720024 0)
(-0.807132 0.0907337 5.28049e-21)
(-0.0934898 0.0841507 0)
(-0.0486708 0.058339 0)
(-0.598411 0.0538166 1.23121e-21)
(-0.826285 -0.537442 4.53638e-21)
(-0.0219198 0.012506 -4.92166e-21)
(-1.20261 0.5038 -3.11724e-21)
(0.0893458 -0.015885 0)
(-1.43548 -0.733606 -1.0096e-21)
(-1.15737 0.537363 -1.63095e-21)
(0.068603 0.00176306 -1.05486e-21)
(-1.38201 -0.674986 0)
(-1.00331 0.405322 -4.9675e-21)
(-1.3531 -0.678479 0)
(0.0738945 -0.0455677 1.25577e-20)
(-0.434972 0.253426 0)
(-0.851314 -0.239262 2.0176e-21)
(-0.407642 -0.360643 4.51674e-21)
(-0.574703 0.0296611 8.02331e-21)
(-0.0440411 0.0288628 2.40008e-21)
(-0.77348 -0.504611 0)
(0.0988293 -0.0233067 0)
(-1.42344 -0.785202 0)
(-1.21698 0.451165 2.5178e-21)
(-0.380655 0.221154 0)
(-0.79011 -0.214922 -4.48732e-21)
(-0.423645 -0.357036 1.18682e-21)
(-0.0613722 0.0250011 0)
(-0.524595 -0.00536599 0)
(-0.679371 -0.451491 0)
(-0.515252 0.0638834 3.96744e-21)
(-0.778607 -0.468978 0)
(-0.0156004 -0.028704 0)
(-0.958405 -0.480319 1.27271e-23)
(-0.0167133 -0.0941335 -5.78895e-21)
(-0.643093 0.258879 1.19968e-20)
(-1.02332 -0.472687 0)
(-0.0422493 -0.117659 -1.21835e-20)
(-1.14197 0.429948 -5.9953e-21)
(0.098893 -0.0275437 7.81414e-21)
(-1.42166 -0.757826 -4.35942e-21)
(0.0679825 -0.00971396 7.20425e-21)
(-1.09773 0.27653 3.78861e-21)
(-1.31669 -0.847615 5.78105e-21)
(-1.18612 0.33204 -9.68047e-21)
(-1.37199 -0.850837 0)
(0.0860365 -0.022231 -7.07184e-21)
(-0.751533 -0.606113 -4.73939e-22)
(-0.817693 -0.0849119 3.49985e-21)
(-0.302827 0.21787 0)
(-0.501384 0.117414 -1.78459e-20)
(-0.949134 0.576688 4.28079e-21)
(-0.124294 -0.150462 -4.59605e-21)
(-1.43981 -0.477588 0)
(-1.38457 -0.849464 0)
(-1.21672 0.365958 -8.15913e-21)
(0.0921652 -0.0261781 0)
(-0.306126 -0.0286689 -1.43532e-20)
(-0.149442 -0.0990712 -4.71895e-21)
(-0.458835 -0.248795 1.39289e-20)
(-0.520499 0.227094 0)
(-0.8946 -0.388013 -2.72259e-22)
(-0.128887 -0.16507 -4.67058e-21)
(0.0522832 -0.00400402 5.55755e-21)
(-1.10559 0.258993 0)
(-1.30649 -0.866937 -6.66432e-21)
(-0.55172 0.148342 1.42692e-20)
(-0.935311 -0.487625 1.11125e-20)
(-0.00639226 -0.0815111 0)
(0.0838752 -0.0124761 0)
(-1.37985 -0.729073 -2.5173e-22)
(-1.21166 0.50664 0)
(-0.255087 0.185468 0)
(-0.802593 -0.0575226 0)
(-0.807329 -0.646686 0)
(-1.13776 0.315643 8.48946e-21)
(-1.35383 -0.833301 0)
(0.0858669 -0.0197197 -4.21009e-23)
(-0.696093 0.072972 3.49713e-21)
(-0.927839 -0.627453 -3.30626e-21)
(-0.0253911 0.036143 0)
(-0.691768 0.315212 0)
(-1.08578 -0.475053 4.19168e-21)
(-0.0672328 -0.135712 7.63853e-21)
(-1.21852 -0.872213 -9.64277e-21)
(-1.02653 0.16207 -6.9136e-21)
(-0.0250989 0.0405654 4.37807e-21)
(-0.868135 0.105895 0)
(-1.08552 -0.767343 -4.20776e-21)
(-0.0501655 0.058655 -1.61168e-22)
(0.0818504 -0.0164555 -6.84173e-21)
(-1.35013 -0.736866 0)
(-1.22331 0.490725 -1.34816e-21)
(-0.301794 0.18832 6.01764e-21)
(-0.553223 -0.442393 -5.65293e-21)
(-0.735863 -0.154352 6.53991e-22)
(-1.05475 0.56519 1.39129e-21)
(0.0490809 0.0195541 -9.87195e-21)
(-1.33381 -0.584432 0)
(-0.123885 -0.037792 -2.79394e-21)
(-0.379421 -0.0693039 -1.1184e-20)
(-0.448987 -0.281825 1.36234e-20)
(-0.69682 0.125502 4.15573e-21)
(-0.666755 0.0822284 3.38766e-23)
(-0.976141 -0.612728 -8.19393e-21)
(-0.911113 -0.600138 0)
(-0.0100026 0.0203466 4.4738e-21)
(0.0219605 -0.000596749 -4.59099e-21)
(-0.0646088 -0.104342 -9.78029e-21)
(-1.00343 0.577469 4.43591e-21)
(-1.47868 -0.510695 -3.84328e-21)
(-0.639863 0.302934 0)
(-1.0367 -0.431777 0)
(-0.11558 -0.163815 -1.002e-20)
(-0.924097 0.143446 -1.85682e-21)
(-1.1437 -0.804774 0)
(-0.0219931 0.0425266 0)
(-0.940998 0.408568 -4.26281e-21)
(-1.32114 -0.61571 0)
(0.0382092 -0.0670801 4.51968e-21)
(-0.25726 -0.0833858 2.91532e-21)
(-0.3302 -0.152941 4.27414e-21)
(-0.246907 -0.132185 -1.46135e-21)
(-0.777524 0.108805 -6.72221e-21)
(-1.02264 -0.691881 0)
(-0.0138604 0.0368155 -7.55503e-21)
(-0.656244 0.327004 0)
(-1.06402 -0.423025 5.25984e-21)
(-0.136015 -0.178785 -6.32594e-21)
(-0.580727 0.182744 0)
(-0.637869 0.211716 1.41583e-21)
(-0.319509 0.204092 2.16151e-21)
(-0.57393 -0.46439 1.63304e-20)
(-0.761434 -0.1474 -1.55618e-20)
(-0.818396 0.145642 -6.88831e-21)
(-1.07614 -0.71389 6.58828e-21)
(0.016861 0.0188628 6.8945e-21)
(-0.982283 0.42082 0)
(0.0553027 -0.0555144 -1.60451e-20)
(-1.35816 -0.645206 -3.0783e-21)
(-0.210979 0.12233 -1.5508e-20)
(-0.576736 -0.445421 0)
(-0.641001 -0.109518 5.16483e-21)
(-0.123661 0.104613 -8.90414e-21)
(-0.797931 0.0354262 -5.20956e-21)
(-0.958593 -0.715061 0)
(-0.811634 0.419819 -4.25267e-21)
(-1.24324 -0.477494 -4.25423e-21)
(-0.0961434 -0.148176 2.82053e-21)
(-0.277565 0.189124 7.76023e-22)
(-0.669874 -0.530653 0)
(-0.756599 -0.101118 1.09358e-20)
(-0.862561 0.452281 0)
(-0.897884 0.458571 0)
(-1.30189 -0.501728 -2.49991e-21)
(-0.0790963 -0.13491 -7.36896e-21)
(-1.32832 -0.538199 3.53817e-21)
(-0.0431244 -0.109582 7.80043e-21)
(0.0981966 -0.0229873 -6.00291e-21)
(-1.43253 -0.765273 0)
(-1.19378 0.46409 -3.96443e-21)
(-0.772976 0.364804 4.98584e-21)
(-1.18061 -0.503935 0)
(-0.054059 -0.1249 2.58801e-21)
(-1.16102 -0.604125 -4.99184e-21)
(0.0429352 0.00885742 8.67e-21)
(-1.02331 0.512453 1.22665e-21)
(-0.461364 -0.0469315 -5.2441e-21)
(-0.0917411 0.00722243 0)
(-0.563234 -0.369402 0)
(-0.706292 0.191865 9.63276e-21)
(-1.03488 -0.586361 0)
(0.0440946 -0.0367798 1.49273e-20)
(0.0939112 -0.0321545 -4.9724e-21)
(-1.09336 0.417107 1.24286e-20)
(-1.39951 -0.732057 3.82276e-21)
(-0.833272 -0.640118 0)
(-0.764006 -0.0329804 4.66969e-21)
(-0.194694 0.148626 -1.09914e-20)
(-1.25049 -0.875649 -1.09494e-20)
(-1.0566 0.196721 -4.15143e-21)
(0.00656786 0.0200961 0)
(-0.838009 -0.442358 -1.16948e-20)
(-0.0256528 -0.0793068 0)
(-0.750832 0.25678 1.01774e-20)
(-1.09334 -0.570955 3.73081e-21)
(0.035536 -0.0673298 4.51784e-21)
(-0.826413 -0.46176 6.76031e-21)
(-0.011766 -0.0624696 -3.41517e-23)
(-1.07957 0.563166 -2.84598e-22)
(0.0158074 -0.0475758 5.80143e-21)
(-1.49643 -0.595513 -1.76425e-21)
(-0.73244 -0.616554 0)
(-0.862618 -0.105097 1.0782e-21)
(-0.352188 0.250757 0)
(-0.802936 0.285889 -1.03704e-20)
(-1.162 -0.599893 -4.54527e-21)
(0.0495363 -0.0589842 -5.41884e-21)
(-0.586286 0.086324 0)
(-0.846133 -0.528767 -6.58717e-21)
(-0.00331715 -0.00847378 0)
(-0.659154 -0.0341508 0)
(-0.740671 -0.549415 0)
(-0.143673 0.100688 0)
(-0.377727 0.0884809 -4.01395e-21)
(-0.668725 -0.328906 -6.65604e-21)
(-0.115391 -0.130676 -1.39646e-23)
(-0.161822 0.130415 1.10305e-20)
(-0.791219 0.00518197 1.26245e-20)
(-0.911597 -0.690792 6.36956e-21)
(-1.16332 0.39618 -4.90064e-21)
(-1.40048 -0.788587 3.60777e-21)
(0.101828 -0.0260676 -7.40314e-21)
(-1.26046 -0.854064 7.52709e-21)
(-1.04278 0.213803 4.20789e-21)
(0.0290792 0.0109561 5.6297e-21)
(-0.628844 0.401919 -8.58263e-21)
(-0.377726 -0.351678 8.18258e-21)
(-1.09572 -0.289026 -6.30907e-21)
(-0.933702 0.52016 2.42761e-21)
(-0.890008 0.491848 -2.26272e-21)
(-1.34427 -0.483557 -7.95758e-22)
(-1.39062 -0.49971 0)
(-0.0863524 -0.130238 -2.65329e-21)
(-0.105113 -0.148573 -2.38444e-21)
(0.0478146 0.0129552 -1.1746e-20)
(-1.21541 -0.598496 5.50022e-21)
(-1.04009 0.520663 1.06491e-21)
(-1.07153 0.573857 -1.11897e-22)
(0.0504981 0.0184494 1.3657e-20)
(-1.37831 -0.588966 0)
(-0.753796 0.154607 -1.53928e-20)
(-1.0458 -0.648079 -1.73828e-21)
(0.032103 -0.000739715 0)
(0.0970403 -0.0253967 -1.5039e-20)
(-1.16175 0.452248 3.94468e-21)
(-1.43707 -0.750676 0)
(-0.735296 0.428327 1.24886e-20)
(-0.783956 0.447173 -9.29242e-21)
(-1.18653 -0.39276 4.75964e-21)
(-1.23369 -0.422711 1.75205e-21)
(-0.220593 -0.234173 -4.71627e-21)
(-0.174666 -0.199415 -2.36201e-21)
(0.0858312 -0.0334312 0)
(-1.36425 -0.857869 0)
(-1.27775 0.366954 1.3156e-21)
(-0.99048 0.56016 -1.63334e-21)
(0.043317 0.0254832 0)
(-1.28594 -0.550221 0)
(-0.3993 -0.140628 2.66867e-23)
(-0.188635 -0.0218797 6.25221e-21)
(-0.31482 -0.214751 3.03681e-21)
(-1.08309 0.537789 -2.20142e-21)
(-1.302 -0.630046 -1.53073e-21)
(0.0552401 0.0111285 6.42368e-22)
(-0.501878 0.279677 0)
(-0.912392 -0.28956 -8.96236e-21)
(-0.323455 -0.303154 -8.49419e-23)
(-1.22115 0.434461 1.46688e-22)
(-1.41423 -0.8024 3.69475e-21)
(0.100586 -0.0250764 7.5167e-24)
(-1.02443 -0.604709 -1.368e-22)
(0.0366536 -0.0050001 -5.03157e-21)
(-1.00173 0.433139 6.31624e-23)
(-0.229342 0.113992 -5.69562e-21)
(-0.450399 -0.350513 5.12539e-21)
(-0.610394 -0.154642 1.64721e-20)
(-0.391911 -0.0361979 0)
(-0.528018 -0.321015 -1.51222e-20)
(-0.0965745 -0.0395896 7.60806e-21)
(-1.15633 0.561249 0)
(0.0680642 -0.00357749 6.86475e-21)
(-1.45896 -0.673595 -1.73854e-22)
(-0.420653 -0.0217307 0)
(-0.568799 -0.349137 -5.1607e-21)
(-0.0778004 -0.0212161 -1.08017e-20)
(-0.365664 -0.133852 6.46916e-21)
(-0.198494 -0.0462408 -3.30391e-21)
(-0.303311 -0.192945 1.62319e-21)
(-0.242092 0.1814 5.32824e-21)
(-0.835643 -0.0323493 -4.37327e-21)
(-0.884251 -0.708834 7.00853e-21)
(-0.465314 -0.103352 0)
(-0.452746 -0.308697 0)
(-0.137704 0.0264655 9.1199e-22)
(-0.478973 -0.0680566 8.30031e-21)
(-0.525683 -0.349699 3.92984e-21)
(-0.116055 0.0271629 1.28253e-22)
(-0.578092 0.372589 1.30425e-20)
(-1.0346 -0.25868 -6.67468e-21)
(-0.432057 -0.396923 -8.15759e-21)
(0.0683142 -0.0196625 1.0368e-20)
(0.0778388 -0.0182709 -1.05924e-20)
(-1.48253 -0.681749 7.51822e-22)
(-1.47031 -0.699465 6.31532e-22)
(-1.14716 0.543154 0)
(-1.16247 0.529829 -3.11339e-21)
(-1.19417 0.402624 6.11378e-21)
(-1.40767 -0.802545 -2.61358e-21)
(0.101548 -0.0262176 9.18017e-21)
(-0.363139 -0.34928 -5.24633e-21)
(-0.679849 0.443144 2.69144e-21)
(-1.15253 -0.301835 8.04012e-21)
(-0.325403 0.191464 -5.49391e-21)
(-0.484252 -0.396092 -5.19202e-21)
(-0.741232 -0.180665 5.07546e-21)
(-0.890269 0.0799181 0)
(-1.07497 -0.793614 4.35541e-21)
(-0.0958965 0.0842985 1.66493e-22)
(-1.14822 -0.70004 -7.95779e-22)
(0.0606356 -0.0253298 -4.70884e-21)
(-1.17367 0.431276 -5.79914e-22)
(0.0694452 -0.0205491 0)
(-1.21533 0.31091 0)
(-1.35445 -0.891626 1.93256e-21)
(-1.18159 0.526483 2.17169e-21)
(0.0770641 -0.00575595 0)
(-1.40263 -0.703408 2.47058e-22)
(0.0286247 0.00108093 -1.87454e-32)
(-0.958548 -0.565375 3.02004e-21)
(-0.92738 0.421091 -2.83175e-22)
(-0.99814 -0.503121 -3.41829e-21)
(0.0273635 0.0144375 1.87008e-32)
(-0.879047 0.478641 2.32389e-22)
(-1.18243 -0.723851 -8.66146e-21)
(-0.891588 0.22641 0)
(0.0617528 -0.00935454 -1.44906e-20)
(-1.30608 -0.810386 7.57491e-23)
(0.081613 -0.0378429 -4.82928e-21)
(-1.29284 0.402755 0)
(-1.01031 0.369875 -6.39165e-21)
(-1.33302 -0.712374 4.18064e-21)
(0.0873148 -0.0369594 7.41927e-21)
(-1.09679 0.614944 8.18766e-21)
(0.0204205 -0.0163726 4.10737e-21)
(-1.52861 -0.571293 0)
(-0.466751 0.123584 3.13384e-21)
(-0.0512605 -0.095838 -2.93193e-21)
(-0.799064 -0.409042 2.85374e-21)
(-1.36762 -0.873017 8.86289e-22)
(0.0828227 -0.0304545 5.12687e-21)
(-1.26272 0.350232 1.69937e-21)
(-0.860354 0.0558393 -5.08357e-21)
(-0.123424 0.103662 -2.99768e-21)
(-1.03007 -0.768089 0)
(-1.16377 -0.79716 0)
(-0.928603 0.168416 0)
(0.00779052 0.027038 0)
(0.00759542 0.00806025 0)
(-0.568091 -0.300918 3.86872e-21)
(-0.53616 0.265614 -1.19429e-21)
(-1.15402 -0.633292 -1.81872e-21)
(0.0466342 0.000693145 -6.0665e-21)
(-1.05711 0.493443 -8.6508e-22)
(-0.418874 0.0906291 -8.05492e-21)
(-0.0714301 -0.100285 7.08417e-21)
(-0.718672 -0.374611 3.40195e-21)
(-1.38463 -0.82235 2.09569e-21)
(-1.26109 0.410089 -2.53785e-21)
(0.0944938 -0.030289 0)
(0.0821481 -0.0371117 -5.35066e-21)
(-1.29879 0.369885 0)
(-1.33917 -0.858696 -1.60723e-21)
(-1.14264 0.48087 -3.61462e-21)
(0.0862911 -0.0263747 1.60119e-20)
(-1.45188 -0.716874 0)
(-0.0203528 -0.076533 -1.18294e-20)
(-1.46829 -0.560342 2.83777e-21)
(-1.02615 0.552878 0)
(-0.555133 0.375619 -1.63859e-20)
(-1.02089 -0.234883 8.50281e-21)
(-0.498287 -0.449577 -2.56679e-21)
(-1.30678 -0.448613 1.19263e-21)
(-0.845404 0.489531 5.39663e-21)
(-0.158519 -0.186885 -7.30644e-21)
(-0.022386 -0.0654137 -1.05721e-20)
(-1.05463 0.59889 0)
(-1.52028 -0.547439 0)
(-0.535968 0.273455 -2.75427e-21)
(-0.600688 0.309538 0)
(-0.934531 -0.343165 -9.26773e-21)
(-1.01305 -0.377113 9.91752e-21)
(-0.224313 -0.228813 1.31486e-21)
(-0.195438 -0.216292 -1.40079e-21)
(-0.490103 0.261036 2.64338e-21)
(-0.892534 -0.305585 0)
(-0.282772 -0.269656 2.47511e-21)
(-0.721881 0.43985 0)
(-1.18088 -0.3706 -7.7053e-21)
(-0.26027 -0.264581 1.69868e-21)
(-1.22834 -0.825859 -3.94442e-21)
(-0.998808 0.200966 4.53615e-21)
(0.0292701 0.0119782 -1.14818e-20)
(-1.39302 -0.837915 0)
(-1.21056 0.388851 8.97315e-21)
(0.0972365 -0.0268676 0)
(0.0652384 -0.00748329 -3.70763e-21)
(-1.03733 0.257511 -2.73264e-21)
(-1.28337 -0.818076 -2.50237e-21)
(-1.06764 -0.514756 5.10341e-22)
(0.0321161 0.0180944 3.23118e-21)
(-0.918774 0.5014 0)
(-0.304697 0.136494 5.30063e-21)
(-0.313695 0.125657 0)
(-0.319623 -0.269833 0)
(-0.66469 -0.225793 1.95973e-20)
(-0.274353 -0.23977 0)
(-0.66056 -0.249193 -1.25202e-20)
(-0.626869 0.378636 0)
(-0.557692 0.33548 0)
(-0.349856 -0.326025 2.21269e-23)
(-1.0713 -0.326359 5.27966e-21)
(-0.31075 -0.295091 1.24612e-20)
(-0.995788 -0.293551 -1.14204e-20)
(-1.00464 -0.62836 0)
(0.0412832 -0.0150101 6.88707e-21)
(-1.05052 0.418691 0)
(-1.39209 -0.815718 -1.76711e-21)
(-1.24501 0.410588 8.86922e-22)
(0.0974092 -0.0277537 3.22523e-21)
(-0.374923 0.235674 -9.30281e-21)
(-0.550064 -0.46027 -5.78583e-21)
(-0.812792 -0.173045 1.60378e-20)
(-1.17149 -0.841118 8.73275e-21)
(-0.970515 0.137306 1.16475e-20)
(-0.0398322 0.0519664 0)
(-0.0408003 -0.0935628 1.26506e-20)
(-1.45013 -0.542733 -3.01731e-21)
(-1.00188 0.548139 5.67255e-21)
(-1.27682 -0.690111 0)
(-1.16712 0.499177 0)
(0.0656294 -0.00742882 0)
(-1.30184 -0.721588 0)
(-1.19985 0.484125 1.67886e-21)
(0.0744347 -0.0159626 1.16014e-21)
(-0.776366 0.423332 -5.252e-21)
(-1.21476 -0.446908 2.62249e-21)
(-0.142236 -0.178532 3.49262e-21)
(-0.176387 0.100927 -1.48035e-21)
(-0.586444 -0.434364 0)
(-0.60417 -0.0883679 -7.6079e-23)
(-1.16371 0.500446 4.21168e-21)
(0.0852012 -0.0219111 9.27181e-21)
(-1.46487 -0.715749 -7.35088e-22)
(-1.20879 -0.759107 0)
(-0.933806 0.232535 0)
(0.0608762 -0.00300432 1.25095e-20)
(0.0550293 -0.0504593 3.06943e-21)
(-1.40151 -0.654005 5.08761e-21)
(-1.03029 0.462018 1.27775e-20)
(-0.522038 0.320366 0)
(-0.400369 -0.362877 -8.43e-21)
(-0.957912 -0.267747 5.96068e-21)
(-0.679905 0.0399891 8.03152e-23)
(-0.869382 -0.602141 4.84787e-21)
(-0.0642916 0.0585113 0)
(-0.275385 0.154019 4.20042e-23)
(-0.488866 -0.393015 -1.74042e-21)
(-0.681593 -0.16332 -6.64726e-21)
(0.0924803 -0.0200899 1.06482e-23)
(-1.44745 -0.743968 1.35809e-21)
(-1.19075 0.488164 4.19259e-21)
(-0.941553 0.440519 -2.42184e-21)
(-1.34415 -0.592538 -1.80326e-21)
(0.0123833 -0.0784517 0)
(-0.237101 0.105839 -5.74852e-21)
(-0.396403 -0.31104 1.12493e-20)
(-0.601313 -0.174827 -1.08685e-20)
(-1.07206 0.614786 3.42806e-21)
(-0.00999644 -0.0480548 4.66008e-21)
(-1.53717 -0.551625 -9.07719e-22)
(-0.440574 0.203604 -3.38193e-21)
(-0.813452 -0.315912 0)
(-0.220889 -0.224856 0)
(-0.491462 0.0309742 -1.47405e-20)
(-0.703361 -0.434804 3.1386e-21)
(-0.0371281 -0.0123986 0)
(-1.14644 -0.756877 0)
(-0.886049 0.169427 9.84738e-21)
(0.0241491 0.0193645 0)
(-1.09241 0.594392 -1.47857e-21)
(0.0456852 0.0105775 -1.45258e-21)
(-1.46224 -0.593769 -1.20738e-21)
(-1.08599 0.60749 4.15031e-21)
(0.0368355 0.00645683 0)
(-1.48738 -0.576765 2.47524e-22)
(0.0393544 -0.0553561 2.74132e-21)
(-1.41919 -0.632857 -2.65128e-21)
(-1.03167 0.483595 -1.17597e-20)
(-0.718107 0.0218973 -4.56503e-21)
(-0.894932 -0.642689 -4.88754e-21)
(-0.0996083 0.0796483 0)
(0.0441242 0.0202556 1.33074e-21)
(-1.41187 -0.574872 1.11987e-21)
(-1.05008 0.586075 0)
(0.0944518 -0.0320079 0)
(-1.36756 -0.738039 -2.81373e-21)
(-1.065 0.386065 -1.46869e-21)
(0.0206521 -0.00158922 5.52556e-21)
(-0.811666 -0.520579 -2.8885e-21)
(-0.836215 0.356698 0)
(-0.746902 0.448134 -5.86779e-23)
(-0.889081 -0.420494 0)
(0.0200591 0.0183646 5.51067e-21)
(-0.0106441 -0.0622795 -2.17114e-23)
(-1.50079 -0.568828 0)
(-1.0547 0.579635 0)
(0.0903506 -0.0166995 0)
(-1.41584 -0.749389 0)
(-1.2202 0.492307 4.90074e-21)
(-1.1257 0.536113 -3.82585e-21)
(-1.1026 0.51665 3.0949e-21)
(0.0581429 -0.0287486 -5.20749e-21)
(-1.48892 -0.657335 -3.17738e-22)
(0.0584718 -0.0352072 -8.50202e-21)
(-1.46951 -0.660138 8.59486e-22)
(-1.06684 0.361484 2.91176e-21)
(-1.3546 -0.760151 1.98145e-21)
(0.09654 -0.0285637 0)
(-0.087294 0.0807364 0)
(-1.12255 -0.836189 0)
(-0.944587 0.100677 0)
(-0.299138 0.0853017 0)
(-0.220826 -0.195606 -1.57307e-20)
(-0.60641 -0.25561 6.81382e-21)
(-1.0271 0.295782 8.56828e-21)
(-1.29752 -0.78341 8.3476e-22)
(0.0855856 -0.0184662 1.08868e-20)
(0.0736067 -0.0109804 7.09265e-21)
(-1.00729 0.269451 -1.19203e-20)
(-1.26901 -0.790484 -1.15659e-21)
(-1.02771 0.605022 4.27467e-21)
(-0.0549062 -0.0903142 5.05056e-21)
(-1.51253 -0.514666 4.0112e-21)
(-0.651935 0.400803 0)
(-1.10721 -0.328085 2.30295e-21)
(-0.315874 -0.303601 -1.22156e-20)
(-0.553066 0.313559 0)
(-0.969768 -0.30962 1.17659e-20)
(-0.307841 -0.296093 -3.75868e-23)
(-0.888852 0.268834 -1.16787e-20)
(-1.20832 -0.695962 1.16232e-21)
(0.0763699 -0.0291109 -6.31822e-21)
(-0.918501 0.264514 0)
(-1.22074 -0.720404 1.09934e-21)
(0.0765505 -0.0218015 5.78062e-21)
(-0.205481 0.0763543 0)
(-0.394634 -0.299053 -1.77759e-20)
(-0.547656 -0.158246 6.08967e-21)
(-0.6233 0.332136 0)
(-1.03884 -0.374274 0)
(-0.207653 -0.229002 1.88152e-21)
(0.0722944 -0.0284458 -1.10963e-20)
(-1.35067 -0.890598 -5.10167e-21)
(-1.26386 0.328292 0)
(-1.22566 0.461406 1.58115e-21)
(0.0740169 -0.023743 0)
(-1.25814 -0.737635 -4.27082e-22)
(-1.21897 0.435634 -3.44688e-22)
(0.0687224 -0.0282133 0)
(-1.21217 -0.73067 1.5067e-21)
(-0.382441 0.206878 3.92641e-21)
(-0.369378 -0.317066 -1.85052e-21)
(-0.777754 -0.241379 -1.99216e-22)
(-1.1977 -0.663437 3.12441e-22)
(0.057122 -0.00821374 9.2923e-21)
(-1.13519 0.48237 0)
(-0.990405 0.477779 1.0263e-20)
(0.0155809 -0.0703021 5.81403e-21)
(-1.39346 -0.601835 0)
(0.0542644 -0.0170726 -1.384e-21)
(-1.13465 -0.678367 1.63894e-21)
(-1.13131 0.445402 0)
(-0.351008 -0.00338802 9.98421e-21)
(-0.108227 -0.076062 9.68993e-21)
(-0.534725 -0.297514 7.96637e-24)
(-0.672907 0.248483 -1.76627e-21)
(-1.04111 -0.511973 -1.43687e-21)
(-0.00545598 -0.0935813 -6.61297e-21)
(-0.823513 -0.609441 1.11558e-20)
(-0.706184 -0.01124 1.08433e-20)
(-0.140777 0.103707 0)
(0.0859293 -0.0355807 0)
(-1.33458 -0.822172 -1.37425e-22)
(-1.28952 0.402961 0)
(-1.18987 -0.774195 0)
(-0.932445 0.209988 0)
(0.0459676 0.00624892 0)
(0.0138459 -0.0310618 0)
(-1.09482 0.605357 -2.91442e-21)
(-1.53236 -0.576004 8.90741e-22)
(-0.737275 0.277513 0)
(-1.09915 -0.548842 7.47335e-22)
(0.0157215 -0.0819091 6.45992e-21)
(-0.279616 0.0615647 0)
(-0.217631 -0.186182 1.35232e-20)
(-0.564 -0.242972 0)
(-1.37008 -0.811054 -1.97847e-21)
(-1.26453 0.43081 2.41323e-21)
(0.0922262 -0.0302592 0)
(0.0844301 -0.0368928 -6.37408e-21)
(-1.39668 -0.708925 1.76697e-22)
(-1.06744 0.433783 3.04585e-22)
(-1.13437 0.567956 0)
(-1.12299 0.566497 2.27516e-21)
(0.0603031 0.00539508 -3.37764e-21)
(0.0601415 0.0086073 -4.14216e-21)
(-1.43959 -0.636632 4.69676e-22)
(-1.40995 -0.637575 -3.86399e-22)
(-0.655984 0.132329 0)
(-0.944244 -0.580319 1.91811e-20)
(0.0216365 -0.0144462 7.17529e-21)
(-1.12538 -0.690287 1.2184e-20)
(-0.834956 0.195056 0)
(0.0521737 -0.00603041 -7.72856e-21)
(-0.43677 0.049959 -8.28612e-21)
(-0.685943 -0.392511 5.40309e-21)
(-0.0435883 -0.0545751 1.164e-20)
(-1.30457 -0.77339 -7.38141e-23)
(-1.25683 0.447068 2.09059e-21)
(-1.28667 -0.787007 1.78126e-22)
(0.081131 -0.0281656 0)
(-1.27246 0.423925 -2.01674e-21)
(0.0791572 -0.0336158 0)
(-0.869932 0.337906 0)
(-1.2313 -0.624084 0)
(0.0515524 -0.0603747 7.0777e-21)
(-1.25424 0.449403 3.66569e-21)
(-1.25295 0.456248 -6.61932e-21)
(-1.3774 -0.787765 -6.0237e-23)
(-1.34909 -0.770714 -5.94213e-22)
(0.0910747 -0.0257185 9.43433e-21)
(0.0860229 -0.0242218 -1.46147e-23)
(-0.79589 0.170708 0)
(-1.08063 -0.687602 -1.16962e-20)
(0.0317981 0.00769574 1.00197e-20)
(-0.592565 0.159455 7.82721e-21)
(-0.97116 -0.522749 -8.75454e-21)
(0.0185935 -0.064053 0)
(-1.10671 0.605746 0)
(0.0349989 -0.00663011 0)
(-1.51161 -0.593661 -2.3792e-22)
(-0.662173 0.159861 5.78942e-21)
(-0.969854 -0.567758 -5.34104e-21)
(0.0324225 -0.0286266 -1.18092e-20)
(-0.486504 0.0845853 3.34421e-21)
(-0.771027 -0.441782 -6.34601e-21)
(-0.0197892 -0.0536249 6.67461e-21)
(-1.11533 0.581678 0)
(0.0530603 0.00554278 0)
(-1.4686 -0.622107 2.47399e-22)
(-0.757681 0.307222 0)
(-1.1427 -0.537344 1.44491e-21)
(0.00333997 -0.0928495 -7.02517e-21)
(-1.00907 -0.775025 0)
(-0.869343 0.0335894 0)
(-0.164573 0.130041 -3.85728e-22)
(-0.527204 0.334667 -4.22518e-22)
(-0.970415 -0.250434 0)
(-0.435916 -0.393209 1.29625e-20)
(-1.29016 -0.903361 4.13088e-21)
(0.0167417 0.0086554 0)
(-1.12116 0.223265 0)
(0.0148739 0.00868487 -1.32673e-20)
(-0.75961 -0.410873 -5.41196e-21)
(-0.709371 0.355682 1.6713e-21)
(-0.697846 0.213445 0)
(-1.02841 -0.556753 5.34314e-21)
(0.0343292 -0.056806 -5.96212e-21)
(-1.12755 0.576501 5.73923e-21)
(0.0481718 -0.0162179 1.75217e-20)
(-1.50742 -0.627577 0)
(-0.616096 -0.532779 -3.37944e-21)
(-0.932156 -0.172156 -5.81152e-21)
(-0.452319 0.310872 -3.65558e-21)
(-0.885225 0.518141 0)
(0.0337905 0.0257489 -4.8711e-21)
(-1.12826 -0.504729 0)
(-0.103975 0.0498178 7.27754e-21)
(-0.123719 0.0712602 -7.43028e-21)
(-0.61842 -0.43257 0)
(-0.539915 -0.0472089 7.02983e-21)
(-0.6559 -0.468781 -1.12982e-20)
(-0.583012 -0.0527964 -5.61916e-21)
(-0.441546 0.0198025 7.80952e-21)
(-0.644432 -0.385173 7.25692e-21)
(-0.0522312 -0.0317741 0)
(-0.185455 0.0936738 6.55032e-21)
(-0.14048 0.0649432 0)
(-0.510693 -0.38219 -6.3755e-21)
(-0.580937 -0.119024 6.27706e-21)
(-0.535326 -0.383651 6.42567e-21)
(-0.53857 -0.0882497 3.03157e-23)
(-0.647863 0.194426 4.91465e-22)
(-0.90783 -0.507395 -3.88509e-21)
(0.011565 -0.0529996 -8.14787e-21)
(-0.599105 0.142154 -1.34967e-20)
(-0.910643 -0.522446 1.00768e-22)
(0.0155317 -0.039384 0)
(0.0713937 -0.0351718 0)
(-1.21994 -0.762707 0)
(-1.25545 0.417493 1.37554e-21)
(-0.43146 0.225386 -3.62343e-21)
(-0.822284 -0.276061 0)
(-0.304729 -0.278301 3.42288e-21)
(-1.23313 0.464773 -8.01863e-21)
(-1.40894 -0.778242 6.11242e-22)
(0.0944782 -0.0214993 -5.37683e-21)
(-0.922198 0.308663 0)
(-0.975369 0.333793 6.14928e-21)
(-1.25281 -0.689543 -1.45011e-21)
(-1.2965 -0.711781 4.08743e-21)
(0.0810682 -0.035738 -7.78491e-21)
(0.087514 -0.0340062 -7.15935e-21)
(-0.407167 0.197684 0)
(-0.785815 -0.284408 0)
(-0.271406 -0.255724 1.65312e-21)
(-0.692423 0.392568 4.17005e-21)
(-1.12783 -0.383217 0)
(-0.221867 -0.234297 4.06382e-21)
(-0.821765 0.277576 -3.31366e-21)
(-1.16553 -0.633634 0)
(0.0627094 -0.0464954 0)
(-0.220209 0.00184482 7.61182e-21)
(-0.449994 -0.183408 -3.68557e-21)
(-0.262663 -0.195411 3.68318e-21)
(-0.988185 0.301175 0)
(-1.28195 -0.751036 0)
(0.0868479 -0.0233056 -1.15808e-20)
(-0.270696 0.0887079 0)
(-0.280467 -0.233238 1.96677e-21)
(-0.593055 -0.224121 0)
(-0.792389 0.192726 -7.61587e-21)
(-1.08874 -0.666441 -6.61546e-21)
(0.0494576 -0.0138979 -1.00505e-21)
(-0.682906 0.368289 4.27572e-21)
(-1.10939 -0.401316 0)
(-0.183875 -0.212044 8.38647e-21)
(-0.226628 0.0308888 -7.5422e-21)
(-0.204641 0.0339578 -3.33209e-21)
(-0.494508 -0.196669 3.66185e-21)
(-0.27302 -0.212644 -7.32578e-21)
(-0.491556 -0.174934 0)
(-0.322036 -0.244522 -1.29569e-20)
(-0.166326 0.0533979 -3.29981e-21)
(-0.436268 -0.320413 8.30513e-21)
(-0.141812 0.0515093 2.11974e-21)
(-0.511297 -0.125169 -8.50805e-21)
(-0.514787 -0.366429 -4.0623e-21)
(-0.517708 -0.0953961 1.68088e-22)
(-0.512769 0.246936 4.00594e-21)
(-0.565198 0.263113 0)
(-0.901595 -0.351703 7.00797e-21)
(-0.951784 -0.390868 -5.4775e-21)
(-0.192609 -0.207915 -7.67047e-21)
(-0.141332 -0.175293 1.27526e-20)
(0.00100989 -0.0687175 0)
(-1.44745 -0.586482 -1.55059e-21)
(-1.0258 0.526733 -5.83346e-21)
(-0.189141 0.147083 4.70806e-21)
(-0.831092 0.00226671 6.89652e-21)
(-0.939943 -0.728669 -1.10844e-20)
(0.0217562 -0.0524631 -5.93108e-21)
(0.0403354 -0.0468807 4.75971e-21)
(-1.46879 -0.613169 1.34261e-21)
(-1.45483 -0.635052 2.42622e-21)
(-1.06092 0.538581 1.47594e-20)
(-1.06916 0.51683 -7.64928e-21)
(-0.308957 0.213169 6.76105e-21)
(-0.688075 -0.554159 -5.46802e-21)
(-0.79404 -0.109778 1.58021e-21)
(-0.242135 -0.0513656 1.29167e-20)
(-0.238381 -0.148101 0)
(-0.377343 -0.171182 -1.27085e-20)
(-1.01219 0.331689 -2.88975e-21)
(-1.31124 -0.74495 -4.61917e-21)
(0.0916118 -0.0279572 0)
(-0.346182 0.162906 0)
(-0.314258 -0.280783 -1.57462e-21)
(-0.714673 -0.242564 -6.31507e-21)
(-0.718668 0.381284 0)
(-1.14581 -0.426224 0)
(-0.153047 -0.188891 -7.80379e-21)
(-0.962455 0.516646 -6.46514e-21)
(-0.952963 0.492981 0)
(-1.40508 -0.540184 1.04825e-21)
(-0.0489881 -0.104998 -7.31979e-21)
(-1.38452 -0.552287 -2.83348e-21)