/*--------------------------------*- C++ -*----------------------------------*\
  =========                 |
  \\      /  F ield         | OpenFOAM: The Open Source CFD Toolbox
   \\    /   O peration     | Website:  https://openfoam.org
    \\  /    A nd           | Version:  6
     \\/     M anipulation  |
\*---------------------------------------------------------------------------*/
FoamFile
{
    version     2.0;
    format      ascii;
    class       volVectorField;
    location    "0";
    object      U;
}
// * * * * * * * * * * * * * * * * * * * * * * * * * * * * * * * * * * * * * //

dimensions      [0 1 -1 0 0 0 0];

internalField   nonuniform List<vector> 
13046
(
(0.64588 0.282605 0)
(0.551616 0.00112754 5.51584e-21)
(0.279148 -0.0374289 1.24582e-20)
(0.628209 0.209405 0)
(0.324224 0.0397411 1.12349e-20)
(0.470344 -0.0259443 0)
(0.672543 0.233932 -1.61446e-21)
(0.478258 -0.0512475 -2.83011e-21)
(0.302312 0.0431176 1.24094e-20)
(0.996686 0.48653 -4.70112e-21)
(0.724083 -0.234233 0)
(0.0391057 -0.0791424 -8.32176e-21)
(0.759696 0.332668 1.01509e-20)
(0.557559 -0.0529499 8.73849e-21)
(0.229485 -0.0343425 -6.87348e-21)
(0.971079 0.548378 -2.39799e-21)
(0.0715947 -0.112746 -1.33185e-20)
(0.763533 -0.162169 -4.46594e-21)
(0.434548 0.137402 0)
(0.390654 -0.034233 6.03955e-21)
(0.577782 0.123724 -1.69088e-20)
(0.979602 0.539878 2.63572e-21)
(0.0634683 -0.104625 2.66767e-20)
(0.753674 -0.177418 -1.47209e-21)
(0.584123 0.210108 -6.85156e-21)
(0.508707 0.0136065 1.01721e-20)
(0.32337 0.0012162 0)
(0.763592 0.359463 -1.81588e-22)
(0.576348 -0.0495965 -2.55364e-21)
(0.21792 -0.0527916 2.37603e-20)
(0.650076 0.301669 0)
(0.574664 0.0137512 0)
(0.270566 -0.0590844 -1.26803e-20)
(0.543251 0.178398 2.39972e-20)
(0.347641 0.0115432 -4.19129e-21)
(0.49886 0.0319833 -1.57782e-20)
(0.534286 0.157823 7.53122e-23)
(0.369004 0.0353551 0)
(0.477142 0.0295893 0)
(0.550023 0.289042 -8.87546e-21)
(0.32299 -0.130532 -1.15064e-20)
(0.676325 0.0933302 8.26874e-21)
(0.487329 0.0970361 -5.5361e-21)
(0.431258 0.0775218 5.65682e-21)
(0.439555 0.0422505 0)
(0.518386 0.110001 -3.48936e-21)
(0.421451 0.0913705 0)
(0.422396 0.0178946 1.82711e-21)
(0.667372 0.281854 0)
(0.535748 -0.0200102 3.97001e-22)
(0.266001 -0.0241729 -6.03869e-24)
(0.390676 -0.209556 -1.44122e-20)
(0.472485 0.294198 0)
(0.818113 0.162599 1.0005e-20)
(0.417243 -0.225472 2.05203e-20)
(0.858538 0.18586 1.06608e-20)
(0.431764 0.27123 -1.39586e-20)
(0.749807 -0.0345466 1.98831e-21)
(0.87606 0.562469 0)
(0.182869 -0.172977 -1.0963e-20)
(0.919685 0.350573 4.79236e-21)
(0.55607 -0.16735 -5.21746e-21)
(0.19633 0.0371892 2.88744e-20)
(0.0833076 -0.068373 -1.52183e-20)
(0.690054 -0.188139 3.28892e-21)
(1.01274 0.484298 7.57998e-21)
(0.84213 0.558429 0)
(0.758599 -0.00687936 -9.25923e-21)
(0.209085 -0.192124 -3.20486e-21)
(0.815211 0.537923 3.79714e-21)
(0.750613 0.00404896 1.25481e-20)
(0.22053 -0.190399 4.35993e-21)
(0.76464 -0.0433876 2.06035e-23)
(0.896733 0.578695 -1.45749e-22)
(0.170676 -0.177136 2.38234e-24)
(0.454247 0.161402 0)
(0.373791 -0.0523752 -6.57714e-21)
(0.594663 0.112352 1.20483e-20)
(0.135616 -0.154097 -1.21647e-20)
(0.930685 0.5798 1.12644e-20)
(0.759512 -0.0843503 4.38768e-21)
(0.613954 0.224275 -3.57948e-21)
(0.498809 -0.00390864 3.63637e-21)
(0.310142 0.011798 0)
(0.0725266 -0.0749256 1.36638e-20)
(0.703907 -0.197023 0)
(1.01798 0.493226 -4.49587e-21)
(1.05629 0.416871 7.85746e-21)
(0.0957708 -0.00908668 0)
(0.639302 -0.243446 2.55982e-21)
(0.123405 0.0535994 0)
(1.10595 0.349521 0)
(0.598548 -0.308624 -3.43664e-22)
(0.910629 0.440029 9.63777e-21)
(0.941411 0.44618 -1.33938e-20)
(0.632705 -0.114958 -1.0108e-20)
(0.638507 -0.137245 4.74529e-21)
(0.151818 -0.0631369 6.26199e-21)
(0.137167 -0.0539943 -1.60452e-20)
(0.109877 0.009138 7.67138e-22)
(1.05991 0.399561 -7.68843e-21)
(0.623134 -0.254175 0)
(0.550776 0.136693 3.17578e-23)
(0.397024 0.0834443 0)
(0.428278 -0.000503924 0)
(0.375578 0.201918 -2.50435e-20)
(0.809974 0.207947 4.89026e-21)
(0.426716 -0.176556 0)
(0.478438 0.274682 -3.8221e-21)
(0.370658 -0.172522 0)
(0.757924 0.144668 1.88315e-20)
(0.904408 0.454607 0)
(0.0150773 -0.0768863 1.13535e-20)
(0.697954 -0.266287 3.60254e-21)
(0.719617 0.307366 -7.08895e-21)
(0.542256 -0.0400071 -3.69957e-21)
(0.24683 -0.0226552 -1.24191e-20)
(0.93259 0.492294 -5.59618e-21)
(0.907236 0.466986 5.22234e-21)
(0.677921 -0.109986 -2.80422e-21)
(0.135399 -0.0957245 -7.1871e-21)
(0.654176 -0.100719 2.73341e-21)
(0.14874 -0.0854436 6.71475e-21)
(0.977075 0.489823 1.17417e-20)
(0.730107 -0.23826 5.07947e-21)
(0.0332983 -0.082997 3.7279e-21)
(0.843661 0.410671 0)
(0.609606 -0.0822858 6.70783e-21)
(0.180571 -0.0665692 -3.647e-20)
(0.588642 0.310894 0)
(0.301898 -0.12323 1.15825e-20)
(0.659048 0.070178 -4.76384e-22)
(0.145047 0.0712241 0)
(1.09496 0.341804 0)
(0.588386 -0.298279 0)
(0.994419 0.445378 0)
(0.646361 -0.179479 1.31858e-20)
(0.117008 -0.0380117 1.6233e-20)
(0.68696 0.325675 0)
(0.58752 -0.000554705 0)
(0.253521 -0.0719844 0)
(0.789674 0.269671 0)
(0.484093 -0.122161 0)
(0.280825 0.0767656 0)
(0.455001 0.264963 3.5365e-21)
(0.390537 -0.185357 0)
(0.788218 0.164372 -1.01356e-20)
(0.380616 0.189051 2.42784e-20)
(0.787913 0.204069 1.05646e-20)
(0.424858 -0.162201 -1.2515e-20)
(0.941267 0.369055 -1.11319e-20)
(0.575613 -0.172468 0)
(0.174546 0.0157751 -3.75702e-20)
(0.358793 0.132808 0)
(0.720585 0.202142 -2.30272e-20)
(0.427623 -0.110086 -3.21238e-21)
(0.469814 -0.235779 -5.73246e-21)
(0.919329 0.240046 -1.11843e-20)
(0.495638 -0.240428 0)
(0.949593 0.267417 -6.40487e-21)
(0.340472 0.207712 -1.21302e-20)
(0.296274 0.171745 1.1648e-20)
(0.812043 0.245626 -1.45534e-21)
(0.463089 -0.152469 -6.58257e-21)
(0.308378 0.11918 7.09004e-21)
(1.01727 0.472995 4.81578e-21)
(0.0397306 -0.0701876 -4.32456e-21)
(0.706305 -0.247871 6.34145e-21)
(0.932501 0.470123 3.35049e-21)
(0.0210854 -0.0807714 1.70535e-21)
(0.718122 -0.254276 0)
(0.997834 0.461623 -1.85967e-22)
(0.661145 -0.1777 0)
(0.106125 -0.0515109 -1.9611e-20)
(0.644686 0.384502 0)
(0.709389 0.0652381 -2.65187e-21)
(0.290058 -0.164897 -6.80179e-21)
(0.786782 0.228764 -9.58818e-21)
(0.33491 0.142956 0)
(0.445852 -0.144125 0)
(0.0474364 -0.0483807 0)
(0.678244 -0.263549 0)
(1.0508 0.445545 -4.01503e-21)
(0.61199 0.355012 0)
(0.69941 0.077797 5.74208e-21)
(0.30282 -0.153058 -1.75883e-21)
(0.356747 0.147621 0)
(0.736819 0.202152 0)
(0.422898 -0.124352 0)
(0.756013 0.248515 -4.77066e-21)
(0.471331 -0.108672 0)
(0.29327 0.0759719 0)
(0.559452 -0.0851654 4.40925e-23)
(0.211433 -0.0206227 8.43349e-21)
(0.819553 0.386511 -1.47613e-20)
(0.592841 -0.0737149 0)
(0.194774 -0.0545626 3.76736e-20)
(1.04564 0.453813 8.93339e-21)
(0.0749003 -0.043703 -1.23668e-20)
(0.67399 -0.229968 1.24024e-20)
(0.139007 0.0513026 -1.12739e-20)
(1.07103 0.363008 -4.82337e-21)
(0.597739 -0.273699 -1.28255e-20)
(1.09014 0.384105 1.31592e-20)
(0.62363 -0.281023 0)
(0.0977617 0.0175226 1.10703e-20)
(0.393462 -0.247073 5.91832e-21)
(0.861723 0.157313 -4.48018e-21)
(0.508118 0.354964 -1.18282e-20)
(0.747708 0.284775 9.34353e-21)
(0.918426 0.589223 -5.80962e-21)
(0.147275 -0.164605 7.48559e-21)
(0.771048 -0.0734281 -2.05769e-23)
(0.635525 -0.285507 0)
(1.08556 0.398978 3.77579e-21)
(0.0789157 -0.00282814 0)
(0.561643 0.16157 1.76719e-20)
(0.368173 0.0570987 0)
(0.453009 0.00275988 -5.9928e-21)
(0.741293 0.361427 0)
(0.589711 -0.0300706 3.67463e-22)
(0.230812 -0.0655076 -6.99914e-21)
(0.149897 0.0683828 -8.62426e-21)
(1.07959 0.350872 0)
(0.587845 -0.286529 1.47728e-20)
(0.781798 0.307393 0)
(0.544345 -0.09379 -1.58426e-20)
(0.221293 -0.00359191 0)
(0.0244644 -0.070436 0)
(0.693657 -0.270699 -5.45043e-21)
(0.989537 0.456541 0)
(0.467186 0.322982 1.27925e-20)
(0.885529 0.173293 0)
(0.412265 -0.254141 0)
(1.07778 0.383626 -1.15444e-20)
(0.61641 -0.269839 0)
(0.110219 0.0218234 3.07935e-23)
(0.879711 0.258227 -1.25682e-20)
(0.477225 -0.196401 -5.00444e-21)
(0.297278 0.145351 1.6287e-20)
(0.838125 0.426715 0)
(0.622822 -0.0703979 -6.26334e-21)
(0.182257 -0.0808268 -3.79068e-21)
(0.546061 -0.298961 1.84094e-20)
(1.06295 0.295604 8.80137e-21)
(0.229208 0.148096 -6.78408e-21)
(0.984875 0.272887 0)
(0.509192 -0.25959 7.25163e-21)
(0.284605 0.1723 2.43679e-22)
(0.020045 -0.0663785 8.74366e-21)
(0.67608 -0.282857 0)
(0.989688 0.440134 3.71151e-21)
(0.54342 0.325484 -1.65729e-20)
(0.343587 -0.176906 8.46806e-21)
(0.747121 0.11644 8.3053e-22)
(0.836062 0.475672 -3.52673e-21)
(0.0193705 -0.0836591 9.42355e-22)
(0.729685 -0.227179 0)
(0.400242 0.109909 -3.69669e-21)
(0.589847 0.143455 1.36905e-20)
(0.409078 -0.0334063 -1.80377e-20)
(0.88144 0.293378 -5.0129e-21)
(0.860513 0.265069 -3.28753e-23)
(0.50478 -0.174486 1.21986e-20)
(0.480246 -0.178882 1.19975e-20)
(0.288768 0.125861 -1.29335e-20)
(0.250724 0.0911963 6.68782e-21)
(0.119046 -0.145787 1.59231e-20)
(0.942226 0.57848 -5.99923e-21)
(0.767712 -0.0974113 0)
(0.805548 0.417789 0)
(0.627409 -0.0455919 0)
(0.201266 -0.0908743 1.511e-20)
(1.0133 0.294156 2.32046e-21)
(0.529911 -0.269631 0)
(0.250705 0.147279 0)
(0.965771 0.472459 -4.99317e-21)
(0.663949 -0.143714 0)
(0.120149 -0.0699044 -7.14584e-21)
(0.476011 0.106399 -3.75535e-21)
(0.463649 0.0586681 -5.44762e-21)
(0.419379 0.0566112 1.87857e-21)
(0.93191 0.279094 8.17511e-21)
(0.502213 -0.220687 0)
(0.273222 0.141087 1.12529e-20)
(0.807758 0.436077 0)
(0.645461 -0.0394528 -7.80747e-21)
(0.19941 -0.106241 9.74421e-21)
(0.795429 0.332169 -1.5149e-20)
(0.829633 0.352405 1.21925e-20)
(0.550039 0.34049 1.30981e-20)
(0.345504 -0.190533 -2.45799e-20)
(0.76451 0.119958 1.83692e-20)
(0.955305 0.302453 8.36032e-21)
(0.522482 -0.223402 -1.06223e-20)
(0.238276 0.111085 -1.0265e-20)
(0.984841 0.475158 1.80919e-20)
(0.108715 -0.0646211 2.51959e-20)
(0.670194 -0.159874 6.55396e-21)
(0.482849 0.259018 5.75336e-21)
(0.363836 -0.158224 0)
(0.733613 0.141462 -6.37579e-21)
(0.356624 0.233016 1.31096e-20)
(0.932788 0.231502 6.47149e-21)
(0.466246 -0.253043 0)
(0.88405 0.496184 1.82551e-21)
(0.684603 -0.0669551 6.86468e-21)
(0.162381 -0.120798 -4.46609e-21)
(0.508785 0.324085 -1.08093e-21)
(0.375958 -0.210312 0)
(0.808365 0.149442 -1.38091e-20)
(0.908182 0.514118 0)
(0.927794 0.513283 0)
(0.698384 -0.079246 4.45857e-21)
(0.150811 -0.122229 1.16208e-20)
(0.695811 -0.0993419 -6.30474e-21)
(0.137198 -0.110467 -1.23435e-20)
(0.054857 -0.0543328 9.59753e-21)
(0.686748 -0.247055 0)
(1.04549 0.459723 5.6355e-21)
(0.877565 0.458479 0)
(0.647378 -0.0834267 3.16626e-21)
(0.162975 -0.091533 -3.95055e-21)
(0.641161 -0.265789 -1.03371e-20)
(0.00671195 -0.0686341 -1.40137e-20)
(0.791574 0.420617 -8.08806e-21)
(0.667474 0.170397 1.85971e-20)
(0.389439 0.138169 0)
(0.406843 -0.0849597 6.77052e-21)
(0.880764 0.336691 -1.14796e-20)
(0.541605 -0.147006 0)
(0.20879 0.0325538 -2.20527e-20)
(0.0865937 -0.0447965 7.84736e-21)
(1.03393 0.455913 -1.63899e-20)
(0.667009 -0.212847 -9.32594e-21)
(0.424793 -0.238731 7.69261e-21)
(0.879739 0.189773 0)
(0.425508 0.284891 1.58153e-20)
(0.560812 -0.295494 2.24978e-20)
(1.07118 0.315291 5.35369e-21)
(0.196657 0.116224 0)
(0.518807 -0.0771172 7.98252e-21)
(0.248727 0.0135785 0)
(0.893077 0.381704 -1.25085e-20)
(0.578554 -0.1294 -5.75473e-21)
(0.177702 -0.017214 -6.75024e-21)
(0.504588 -0.0911257 -2.84014e-22)
(0.256713 0.0313889 -6.57338e-23)
(0.974308 0.548195 1.26587e-20)
(0.0823247 -0.115212 -1.87333e-20)
(0.754534 -0.149386 6.56098e-21)
(0.383325 -0.260861 -7.70673e-21)
(0.867256 0.146167 -1.43179e-21)
(0.540727 0.387147 0)
(0.920322 0.39769 1.27491e-20)
(0.595803 -0.141927 7.02592e-21)
(0.163439 -0.0177716 1.64957e-20)
(0.806746 0.266908 0)
(0.477321 -0.139896 4.81705e-21)
(0.284775 0.0931629 0)
(0.810342 0.190565 6.30314e-21)
(0.411742 -0.189534 0)
(0.411782 0.230054 0)
(0.652364 0.256684 4.96713e-21)
(0.515575 -0.0180098 8.76939e-21)
(0.28496 -0.00430719 -2.47651e-23)
(0.391084 0.26174 -1.62786e-20)
(0.915493 0.213123 -1.57184e-20)
(0.450142 -0.251195 -2.08338e-20)
(1.06329 0.430005 6.93946e-21)
(0.655597 -0.249027 -1.05579e-20)
(0.0782501 -0.0261613 -1.85626e-22)
(0.568488 -0.2822 -1.52122e-20)
(1.0625 0.32862 -5.42791e-21)
(0.182738 0.0977145 -8.59799e-21)
(0.751549 0.502977 1.18056e-20)
(0.259382 -0.202048 -6.50112e-21)
(0.758944 0.0379098 0)
(0.927654 0.552592 -3.26262e-21)
(0.911065 0.540923 2.99505e-21)
(0.722512 -0.0716053 1.4189e-21)
(0.735081 -0.0813573 -6.17825e-21)
(0.140161 -0.140646 4.27498e-21)
(0.151851 -0.141275 3.76014e-21)
(0.0103536 -0.0731697 1.42318e-20)
(0.671221 -0.254213 1.13818e-20)
(0.810077 0.432742 -2.25796e-21)
(0.857123 0.488951 2.31684e-22)
(0.0243988 -0.0889819 0)
(0.746711 -0.220353 0)
(0.915537 0.310355 1.85401e-20)
(0.525301 -0.186579 2.74152e-21)
(0.235492 0.0841632 0)
(0.0653716 -0.0544323 2.38115e-20)
(1.04239 0.463039 -7.06146e-21)
(0.686349 -0.230645 0)
(0.828461 0.511668 -1.65055e-20)
(0.857175 0.520028 1.23623e-20)
(0.71607 -0.020463 -7.33236e-21)
(0.712823 -0.0373765 -2.81179e-21)
(0.204367 -0.160992 7.40773e-21)
(0.18569 -0.150753 3.72085e-21)
(0.0578651 -0.0123674 0)
(0.626889 -0.304884 0)
(1.08882 0.382021 -2.02727e-21)
(0.778733 0.464832 4.14091e-21)
(0.017292 -0.0802504 -8.86745e-21)
(0.719366 -0.218792 0)
(0.532436 0.0874223 4.70126e-23)
(0.466786 0.141525 -8.0442e-21)
(0.379901 -0.00738436 -4.02337e-21)
(0.853687 0.454633 7.05577e-21)
(0.702148 -0.254005 -5.27097e-21)
(0.0141081 -0.0779905 -1.7649e-20)
(0.695509 0.404471 -1.4175e-20)
(0.685822 0.0357091 1.22822e-20)
(0.261806 -0.149365 1.01366e-23)
(1.05909 0.435866 -1.04164e-22)
(0.668831 -0.269021 -1.51569e-20)
(0.0551293 -0.0392657 4.88405e-21)
(0.562086 -0.284961 -3.14246e-22)
(-0.000170671 -0.0594437 1.61017e-20)
(0.760563 0.348386 2.98936e-21)
(0.515452 0.255441 7.6659e-21)
(0.337833 -0.115275 4.90973e-22)
(0.664588 0.106785 -2.02446e-20)
(0.626188 0.170833 0)
(0.424323 -0.0485326 1.9979e-20)
(0.371839 0.0994821 -1.03591e-20)
(0.96296 0.504162 -1.18552e-20)
(0.035744 -0.0886373 -1.11168e-20)
(0.74251 -0.225904 -5.58834e-25)
(0.653398 0.183234 0)
(0.422691 -0.0650172 7.02472e-21)
(0.362635 0.110699 1.46308e-20)
(0.513287 0.0865117 -8.18293e-21)
(0.459121 0.123365 8.49309e-21)
(0.395329 0.0118119 -2.11961e-21)
(0.446155 0.320241 7.84241e-21)
(0.923131 0.189039 5.58e-21)
(0.433616 -0.274514 -1.14901e-20)
(0.618009 0.127552 0)
(0.376199 -0.0665178 0)
(0.438517 0.172527 -1.20565e-21)
(0.655847 0.157694 -9.95747e-21)
(0.39351 -0.0809456 -5.43427e-21)
(0.417075 0.16224 -1.71404e-22)
(0.717254 0.482771 -1.79544e-20)
(0.768935 0.0533283 9.43173e-21)
(0.2796 -0.2125 1.29179e-20)
(0.0543498 -0.0877395 -1.67857e-20)
(0.0501356 -0.0817733 1.70425e-20)
(0.736564 -0.205582 -4.44906e-21)
(0.725364 -0.219015 -3.09885e-21)
(0.998303 0.513604 -9.85381e-21)
(1.00733 0.503486 1.48355e-20)
(1.07108 0.425528 -8.58188e-21)
(0.656801 -0.259959 9.4441e-21)
(0.0701175 -0.0237036 0)
(0.249532 -0.211561 -8.37062e-21)
(0.777219 0.533546 -3.65836e-21)
(0.77126 0.0301677 0)
(0.568759 0.327861 0)
(0.324078 -0.160381 7.71993e-21)
(0.717115 0.0975722 -6.32139e-21)
(0.997096 0.253951 0)
(0.499481 -0.279074 -7.50192e-21)
(0.313813 0.207889 -2.52144e-22)
(0.594035 -0.308232 -5.27427e-21)
(0.00414946 -0.0603356 0)
(0.904483 0.365683 8.04651e-21)
(0.10401 0.0334494 0)
(1.10268 0.364768 0)
(0.609235 -0.303573 -6.39614e-21)
(0.963073 0.469415 -3.94251e-21)
(0.0244255 -0.0776201 0)
(0.713966 -0.257397 5.34871e-21)
(-0.000384113 -0.0551769 5.97108e-32)
(0.534947 -0.271401 4.80811e-21)
(0.698735 0.332732 -2.98819e-21)
(0.572142 -0.23267 -5.37922e-21)
(0.00430378 -0.0572224 -5.95679e-32)
(0.669332 0.378906 2.66687e-21)
(0.567415 -0.213638 1.4544e-20)
(0.98519 0.351363 0)
(0.185994 0.0550799 2.20352e-20)
(0.6217 -0.311573 2.86498e-21)
(0.0283155 -0.0393729 0)
(1.04698 0.380221 0)
(1.01193 0.437474 8.01079e-21)
(0.64156 -0.197263 -8.18232e-21)
(0.113541 -0.0275422 -1.14847e-20)
(0.932235 0.554871 -1.26803e-20)
(0.0609175 -0.118322 -6.78177e-21)
(0.792277 -0.16107 0)
(0.720909 0.287506 -3.79964e-21)
(0.258695 0.00513007 4.20878e-21)
(0.519482 -0.0583567 -3.8472e-21)
(0.622899 -0.305197 0)
(0.0712164 0.00168284 -8.12711e-21)
(1.09554 0.377234 -2.32663e-21)
(0.975448 0.240242 6.34904e-21)
(0.342101 0.232403 4.4795e-21)
(0.484315 -0.273946 0)
(0.541031 -0.261054 0)
(1.0135 0.309501 0)
(0.224444 0.123057 -8.02516e-21)
(0.000199071 -0.0288271 0)
(0.339426 -0.154855 3.98154e-21)
(0.401633 0.200606 -1.86373e-21)
(0.626996 -0.283027 -5.19795e-21)
(0.00454879 -0.0672595 9.74388e-21)
(0.816122 0.406067 3.52743e-21)
(0.685053 0.261303 9.82969e-21)
(0.278647 0.0131346 -9.91783e-21)
(0.50494 -0.0447884 -4.4539e-21)
(0.64759 -0.289159 -1.34145e-20)
(1.07334 0.41035 4.33755e-21)
(0.048491 -0.0299267 0)
(0.0503374 -0.0149402 8.51721e-21)
(1.08713 0.375211 0)
(0.618101 -0.313877 1.00475e-20)
(1.02893 0.484879 5.15862e-21)
(0.0645936 -0.06748 -2.55179e-20)
(0.7006 -0.213693 -1.27053e-20)
(0.103906 -0.124632 1.92413e-20)
(0.74844 -0.122134 -6.94603e-21)
(0.961721 0.556644 0)
(0.69435 0.488391 2.26945e-20)
(0.796466 0.069725 -1.20164e-20)
(0.301827 -0.232064 1.22961e-20)
(0.729729 -0.0511383 -2.11784e-21)
(0.884504 0.547164 -7.11831e-21)
(0.172429 -0.157132 1.17083e-20)
(0.0940175 -0.135326 1.72937e-20)
(0.950618 0.575389 0)
(0.779723 -0.124379 5.07836e-21)
(0.732385 0.39824 3.56333e-21)
(0.770236 0.42573 0)
(0.643844 0.00270328 1.27893e-20)
(0.65455 -0.0124444 -1.36723e-20)
(0.236598 -0.114151 -7.91131e-21)
(0.2196 -0.119468 0)
(0.697404 0.388573 3.50137e-21)
(0.659398 0.0248737 0)
(0.256102 -0.128289 -3.79127e-21)
(0.813816 0.523027 0)
(0.732922 -0.00640117 1.18465e-20)
(0.216676 -0.176334 -2.67235e-21)
(0.560917 -0.270067 7.54745e-21)
(1.04404 0.325261 -5.67197e-21)
(0.19286 0.0975544 1.76771e-20)
(0.64476 -0.277835 0)
(1.07654 0.413312 -1.37988e-21)
(0.0691742 -0.0149278 0)
(0.155086 0.0555644 5.70406e-21)
(1.05027 0.35798 3.54262e-21)
(0.588104 -0.259252 4.92861e-21)
(0.611352 -0.233449 7.3569e-22)
(0.00670242 -0.062783 -6.31472e-24)
(0.704229 0.403473 0)
(0.582609 0.282917 -6.90989e-21)
(0.594517 0.276 0)
(0.301887 -0.0894528 1.80435e-21)
(0.616303 0.0612511 -2.47493e-20)
(0.296535 -0.0714857 -2.28332e-21)
(0.591927 0.0437514 1.57332e-20)
(0.76166 0.481312 0)
(0.719839 0.450973 2.3061e-21)
(0.260104 -0.173682 -9.68059e-24)
(0.722768 0.0184398 -7.40624e-21)
(0.242742 -0.172353 -1.95058e-20)
(0.7198 0.0339947 1.56488e-20)
(0.54315 -0.29654 0)
(-0.00133562 -0.0583904 -1.75644e-20)
(0.794649 0.3375 0)
(0.652267 -0.282423 7.93816e-21)
(1.07387 0.417559 -1.37032e-21)
(0.0533479 -0.0316 -5.12654e-21)
(0.586798 0.368335 4.31883e-21)
(0.333657 -0.199005 8.86096e-21)
(0.767159 0.106029 -2.07369e-20)
(0.53185 -0.288409 -1.63844e-20)
(1.03862 0.285211 -1.47752e-20)
(0.252588 0.163686 0)
(0.114526 -0.131783 -2.0578e-20)
(0.747081 -0.11025 7.39051e-21)
(0.952751 0.559317 0)
(0.665475 -0.285569 0)
(0.918409 0.4291 0)
(0.0104692 -0.0708366 0)
(0.663141 -0.28923 0)
(0.952686 0.424317 -6.58393e-21)
(0.0136074 -0.0666074 0)
(0.860123 0.502902 6.84477e-21)
(0.693165 -0.0495064 -4.26605e-21)
(0.178465 -0.134473 -5.50743e-21)
(0.459716 0.235814 2.02654e-21)
(0.374572 -0.145426 0)
(0.72481 0.153489 -6.76259e-21)
(1.02219 0.488389 -6.01065e-21)
(0.0560743 -0.0726821 -1.48853e-20)
(0.71256 -0.220026 1.84103e-20)
(0.570834 -0.231291 0)
(1.00648 0.351607 0)
(0.179546 0.0652504 -1.90043e-20)
(0.0955996 -0.0763899 -4.81187e-21)
(0.691004 -0.166486 -1.12162e-20)
(0.994451 0.495874 -1.66778e-20)
(0.693022 0.440388 -2.34914e-21)
(0.277433 -0.184228 1.29794e-20)
(0.733008 0.049975 -7.99211e-21)
(0.858848 0.238054 1.21907e-20)
(0.456432 -0.19382 -7.44624e-21)
(0.336983 0.175402 -1.58983e-20)
(0.537719 0.292762 -1.4666e-22)
(0.333823 -0.147293 2.5265e-21)
(0.704418 0.10671 8.28355e-21)
(0.0498931 -0.0649904 5.81257e-21)
(0.702621 -0.239956 -8.53314e-21)
(1.02937 0.47211 -6.47699e-21)
(0.95692 0.494301 3.12008e-21)
(0.682584 -0.130301 3.31959e-21)
(0.120953 -0.0875242 0)
(0.52758 0.250764 7.49307e-21)
(0.329748 -0.0963168 -1.59075e-20)
(0.635235 0.0917703 1.33548e-20)
(0.942935 0.574729 -5.06966e-21)
(0.0827506 -0.133025 -7.6978e-21)
(0.790663 -0.135189 -4.0449e-23)
(0.679095 0.3433 4.3158e-21)
(0.610256 0.010166 0)
(0.255159 -0.0908747 0)
(0.728388 0.22652 1.77406e-20)
(0.448933 -0.101626 -4.35593e-21)
(0.323522 0.101491 0)
(0.540806 -0.240106 0)
(0.99118 0.313093 -1.1956e-20)
(0.220833 0.109012 8.40169e-21)
(0.893185 0.516616 0)
(0.0357208 -0.0997733 2.38e-21)
(0.775011 -0.20032 -5.79921e-21)
(0.896097 0.531303 -4.90626e-21)
(0.0425897 -0.106289 -7.60512e-21)
(0.786333 -0.184081 5.58481e-21)
(0.0954484 -0.0889844 -4.39791e-21)
(0.70488 -0.156033 6.64568e-21)
(0.987336 0.509876 1.53497e-20)
(0.880144 0.226582 5.63812e-21)
(0.453994 -0.217088 1.49058e-20)
(0.358146 0.203677 0)
(0.0287669 -0.0944609 -2.17961e-21)
(0.766493 -0.206514 5.42253e-21)
(0.845048 0.499929 0)
(0.100212 -0.0299048 0)
(0.650502 -0.212007 6.83878e-21)
(1.03013 0.439908 1.89577e-21)
(-0.00234614 -0.046898 -8.77489e-21)
(0.458632 -0.258885 -5.42372e-21)
(0.621573 0.273878 0)
(0.567115 0.349404 3.14324e-21)
(0.520625 -0.195782 0)
(0.00450543 -0.0486307 -8.78793e-21)
(0.093186 -0.126659 -7.79758e-24)
(0.764939 -0.131807 8.67012e-22)
(0.959983 0.564817 0)
(0.0328269 -0.065531 0)
(0.694256 -0.263729 0)
(1.01775 0.458937 -8.3563e-21)
(0.998061 0.519422 5.37225e-21)
(1.0021 0.515117 -4.34601e-21)
(0.0649889 -0.0940939 8.41981e-21)
(0.737266 -0.185117 1.46306e-21)
(0.0725369 -0.0899357 0)
(0.72314 -0.180417 0)
(1.03895 0.423506 -3.68905e-21)
(0.637953 -0.224683 -4.52487e-21)
(0.105931 -0.0145153 0)
(0.294312 0.205108 0)
(0.511896 -0.295287 0)
(1.02724 0.263228 0)
(0.587918 0.24349 -9.22807e-21)
(0.305962 -0.0375819 2.18078e-20)
(0.550974 0.0303897 -8.68446e-21)
(1.03713 0.384706 -1.06051e-20)
(0.605314 -0.238674 -1.67582e-21)
(0.135082 0.0252542 -1.6826e-20)
(0.153623 0.0450465 -1.09481e-20)
(1.03369 0.369189 1.47527e-20)
(0.590829 -0.24343 2.32527e-21)
(0.940668 0.588965 -5.9402e-21)
(0.109556 -0.147945 -8.27583e-21)
(0.783639 -0.103915 0)
(0.772405 0.498804 0)
(0.735766 0.0173941 -3.52001e-21)
(0.23988 -0.182178 1.912e-20)
(0.725294 0.430046 0)
(0.694881 0.0256292 -1.6131e-20)
(0.2511 -0.156233 -6.86752e-24)
(0.973874 0.380449 1.41439e-20)
(0.588887 -0.193379 -2.03264e-21)
(0.160367 0.016864 9.55743e-21)
(0.991056 0.375366 0)
(0.586744 -0.208058 -1.91075e-21)
(0.161312 0.0278248 -8.78831e-21)
(0.503642 0.222899 0)
(0.342455 -0.0801068 2.51078e-20)
(0.619315 0.0973843 0)
(0.777544 0.443585 0)
(0.668982 -0.0125097 9.04216e-21)
(0.216701 -0.132846 -2.86803e-21)
(0.0833607 0.0191196 1.75978e-20)
(0.608995 -0.313388 1.44338e-20)
(1.10715 0.364381 0)
(0.969112 0.405068 1.42625e-22)
(0.0122377 -0.0613458 -5.39699e-21)
(0.636067 -0.302266 -3.80855e-21)
(0.9519 0.378775 1.93593e-22)
(0.00874613 -0.0589956 0)
(0.613024 -0.307669 1.09218e-20)
(0.622387 0.344347 -5.16311e-21)
(0.290722 -0.132312 2.75819e-21)
(0.668531 0.0602634 1.35522e-22)
(0.636042 -0.289233 -1.71516e-22)
(0.0059097 -0.0677632 -2.23381e-20)
(0.88057 0.405922 0)
(0.970779 0.513095 -1.33405e-20)
(0.108727 -0.0955193 0)
(0.70226 -0.136897 0)
(0.00250616 -0.0628246 8.85383e-21)
(0.597741 -0.302752 5.87018e-21)
(0.869566 0.371853 -6.18735e-21)
(0.611106 0.18906 -1.22796e-20)
(0.349367 0.0624347 -1.31587e-20)
(0.452317 -0.0231895 -5.52141e-23)
(0.843876 0.378334 2.14828e-21)
(0.580346 -0.0961023 2.09966e-21)
(0.193422 -0.0330054 8.63838e-21)
(0.431554 -0.213631 -1.70284e-20)
(0.855947 0.205901 -2.02512e-20)
(0.395916 0.23215 0)
(0.0364202 -0.0340275 0)
(0.629856 -0.306598 3.59316e-21)
(1.06265 0.389995 0)
(0.559536 -0.242152 0)
(1.00991 0.337318 0)
(0.193283 0.0830064 0)
(0.0703895 -0.121508 0)
(0.949652 0.559908 4.60991e-21)
(0.784888 -0.152657 -5.06173e-21)
(0.879547 0.396388 0)
(0.591206 -0.114774 -1.04487e-21)
(0.177722 -0.0323212 1.71908e-23)
(0.571007 0.224167 8.91274e-21)
(0.319577 -0.0233504 -1.87173e-20)
(0.536829 0.0323563 0)
(0.651132 -0.2937 1.26922e-20)
(1.05277 0.414167 -4.12236e-21)
(0.0370584 -0.0414361 0)
(0.0893615 -0.055498 1.01026e-20)
(0.674256 -0.197306 -4.34901e-22)
(1.01794 0.470375 -2.51332e-22)
(0.927633 0.499612 0)
(0.908189 0.491504 -4.68875e-21)
(0.0311469 -0.0908602 -5.45194e-21)
(0.0258641 -0.0876843 6.73794e-21)
(0.749608 -0.222812 3.57526e-21)
(0.741638 -0.232007 -2.93967e-21)
(0.853928 0.298451 0)
(0.504336 -0.155803 -1.42602e-20)
(0.251186 0.0752746 -1.04641e-20)
(0.548578 -0.201814 -2.04173e-20)
(0.958524 0.334065 0)
(0.202415 0.0671327 1.15757e-20)
(0.694933 0.233797 1.00446e-20)
(0.467534 -0.0704672 -7.42035e-21)
(0.300763 0.0604109 -1.618e-20)
(0.641349 -0.303836 -8.35707e-21)
(1.01006 0.405443 -5.08583e-21)
(0.625821 -0.311073 3.97903e-21)
(0.0187461 -0.0554163 5.71586e-21)
(1.01836 0.387885 4.76326e-21)
(0.0200534 -0.0500128 0)
(0.946113 0.431255 0)
(0.623041 -0.149575 0)
(0.142793 -0.0379012 -1.07959e-20)
(1.03829 0.425292 -5.20913e-21)
(1.01845 0.420112 1.31735e-20)
(0.663683 -0.287706 -5.47863e-21)
(0.660189 -0.292804 1.37848e-20)
(0.0302944 -0.0520902 -1.50511e-20)
(0.0229786 -0.0574744 5.58507e-24)
(0.940109 0.319373 0)
(0.530506 -0.205994 1.89301e-20)
(0.229772 0.0947438 -1.49993e-20)
(0.810336 0.316478 -9.34869e-21)
(0.540173 -0.113369 1.2678e-20)
(0.215254 0.0100337 0)
(0.931663 0.542413 0)
(0.0510826 -0.109896 -1.04844e-21)
(0.783455 -0.178957 -5.36472e-21)
(0.856676 0.316292 -6.86947e-21)
(0.520078 -0.144167 0)
(0.232833 0.052109 1.73801e-20)
(0.736854 0.261851 -4.04665e-21)
(0.48582 -0.0878105 8.70216e-21)
(0.277277 0.0482862 -9.4751e-21)
(0.916756 0.511762 0)
(0.036301 -0.0970302 0)
(0.766318 -0.209302 7.4002e-21)
(0.883444 0.416622 0)
(0.613428 -0.105209 -2.22599e-21)
(0.165486 -0.0538912 1.07274e-20)
(0.472925 -0.284431 0)
(0.973446 0.22741 0)
(0.37262 0.265901 5.7684e-22)
(0.689318 0.452653 5.78825e-22)
(0.75428 0.0600962 0)
(0.285984 -0.199974 -1.00831e-20)
(0.571301 -0.306598 -8.80048e-21)
(0.172356 0.102183 0)
(1.09311 0.323296 0)
(0.00066738 -0.0408523 2.11127e-20)
(0.439962 -0.200293 -5.57594e-21)
(0.529663 0.269306 2.61032e-21)
(0.870305 0.352975 0)
(0.55248 -0.127865 -7.78582e-21)
(0.200331 0.00786145 0)
(0.969252 0.533449 -8.70435e-21)
(0.0544727 -0.102146 -2.84842e-20)
(0.761759 -0.184781 1.09358e-20)
(0.342677 -0.247058 0)
(0.830894 0.10897 7.83769e-21)
(0.617414 0.439525 0)
(0.685224 0.41973 0)
(0.00997952 -0.0660793 5.26776e-21)
(0.648353 -0.218761 0)
(0.400951 0.178879 -1.00531e-20)
(0.412717 0.201261 1.02915e-20)
(0.398434 -0.12603 0)
(0.719918 0.17605 -8.53505e-21)
(0.398444 -0.147484 1.6096e-20)
(0.747185 0.174672 6.85466e-21)
(0.687916 0.21479 -9.44597e-21)
(0.446138 -0.0750151 -9.85999e-21)
(0.328903 0.0886816 0)
(0.476815 0.231718 -8.83583e-21)
(0.43883 0.202079 0)
(0.358721 -0.121094 0)
(0.683256 0.130041 0)
(0.374697 -0.111913 9.05195e-21)
(0.68361 0.146303 -4.786e-23)
(0.841777 0.340362 -5.92597e-22)
(0.518273 -0.112262 5.5259e-21)
(0.238487 0.0319408 1.17003e-20)
(0.816123 0.305295 1.60587e-20)
(0.511121 -0.123477 0)
(0.247196 0.0484755 0)
(0.0125118 -0.05297 0)
(0.604106 -0.316457 0)
(0.987651 0.371065 -4.84101e-21)
(0.661146 0.359176 1.41748e-20)
(0.651564 0.0392084 0)
(0.270949 -0.121577 -5.1189e-21)
(1.03684 0.443678 1.12116e-20)
(0.678974 -0.273471 -6.35494e-21)
(0.0353374 -0.0557077 8.58977e-21)
(0.982409 0.404901 0)
(1.00398 0.416321 -7.70673e-21)
(0.60936 -0.187184 2.53289e-21)
(0.623356 -0.19773 -8.05874e-21)
(0.140651 -0.00469148 1.19143e-20)
(0.126914 -0.0109918 1.10857e-20)
(0.652647 0.336069 0)
(0.626153 0.0301206 0)
(0.270675 -0.102156 -2.40795e-21)
(0.809454 0.486529 -5.55888e-21)
(0.69938 -0.0150921 0)
(0.211032 -0.151047 -6.37662e-21)
(0.933522 0.391731 4.04832e-21)
(0.589339 -0.1602 0)
(0.161869 -0.00349888 -1.08851e-20)
(0.506518 0.167251 -9.70329e-21)
(0.52475 0.0617548 -4.70487e-21)
(0.357214 -0.00705408 -5.01908e-21)
(1.01808 0.392912 0)
(0.606293 -0.220537 0)
(0.138281 0.0159076 1.78831e-20)
(0.562537 0.242174 0)
(0.3135 -0.0567146 -2.76314e-21)
(0.576636 0.0540804 0)
(0.933761 0.336695 9.13325e-21)
(0.544026 -0.188319 1.05314e-20)
(0.208519 0.0586051 1.5e-21)
(0.811463 0.467372 -5.59738e-21)
(0.678886 -0.0269651 -1.03072e-20)
(0.202725 -0.134916 0)
(0.520973 0.191876 9.61983e-21)
(0.502333 0.190202 4.31412e-21)
(0.544046 0.0588268 -4.59596e-21)
(0.341551 -0.0252273 9.92879e-21)
(0.569774 0.0769423 0)
(0.345951 -0.0420332 1.76946e-20)
(0.467477 0.197239 4.38754e-21)
(0.359059 -0.0831176 -1.17168e-20)
(0.442638 0.190794 -2.82599e-21)
(0.630182 0.116667 0)
(0.376832 -0.0994672 -5.74313e-21)
(0.665595 0.141687 9.75655e-21)
(0.724287 0.378235 -5.11751e-21)
(0.762361 0.388993 0)
(0.62121 -0.0059884 -9.50473e-21)
(0.613127 -0.0273893 7.41796e-21)
(0.235732 -0.0961916 2.28773e-20)
(0.220147 -0.0843734 -1.90311e-20)
(0.10051 -0.112457 0)
(0.731633 -0.132458 4.07728e-21)
(0.970385 0.539066 7.87648e-21)
(0.40329 0.282076 -1.94251e-20)
(0.938484 0.210504 -8.80409e-21)
(0.453835 -0.271001 1.80436e-20)
(0.087558 -0.10747 9.59683e-21)
(0.083886 -0.0968736 0)
(0.736061 -0.150369 -3.52465e-21)
(0.722416 -0.162995 -6.07202e-21)
(0.979901 0.538365 -2.00299e-20)
(0.991649 0.523554 1.04006e-20)
(0.524254 0.349612 0)
(0.375939 -0.226088 9.67557e-21)
(0.82494 0.144198 -2.00953e-21)
(0.492497 0.128964 -2.04093e-20)
(0.392836 0.0364044 0)
(0.479602 0.0554224 1.61273e-20)
(1.02184 0.410625 3.65986e-21)
(0.622375 -0.215685 9.09812e-21)
(0.123667 -0.0019829 0)
(0.608418 0.306431 0)
(0.289396 -0.104435 2.29476e-21)
(0.629649 0.0529052 8.03763e-21)
(0.833574 0.4749 0)
(0.676629 -0.0397809 0)
(0.19027 -0.127623 1.52817e-21)
(0.943568 0.545637 0)
(0.947002 0.529985 0)
(0.729422 -0.102415 -2.16197e-21)
(0.125577 -0.127147 1.17145e-20)
(0.714493 -0.108476 5.89801e-21)
(0.124143 -0.115615 -1.58419e-20)
(0.970332 0.430357 -7.63612e-21)
(0.628391 -0.165328 -8.45877e-21)
(0.131824 -0.0321032 -5.18909e-21)
(0.754145 0.437258 -5.3371e-21)
(0.681354 -0.230368 0)
(0.0122795 -0.0730695 6.45428e-21)
(0.357738 -0.2445 0)
(0.835719 0.123038 -6.4018e-21)
(0.581521 0.406834 0)
(0.650519 0.453886 -5.87464e-21)
(0.63369 0.430416 6.32574e-21)
(0.321221 -0.231738 6.29833e-21)
(0.803201 0.0899773 0)
(0.323636 -0.220224 0)
(0.790312 0.092246 0)
(1.03829 0.342542 1.29252e-20)
(0.571454 -0.259598 -1.71458e-20)
(0.177631 0.0763471 -8.15859e-22)
(0.781852 0.475746 1.14065e-20)
(0.702856 0.000271824 0)