/*--------------------------------*- C++ -*----------------------------------*\
  =========                 |
  \\      /  F ield         | OpenFOAM: The Open Source CFD Toolbox
   \\    /   O peration     | Website:  https://openfoam.org
    \\  /    A nd           | Version:  6
     \\/     M anipulation  |
\*---------------------------------------------------------------------------*/
FoamFile
{
    version     2.0;
    format      ascii;
    class       volScalarField;
    location    "0";
    object      P_rec;
}
// * * * * * * * * * * * * * * * * * * * * * * * * * * * * * * * * * * * * * //

dimensions      [0 2 -2 0 0 0 0];

internalField   nonuniform List<scalar> 
918
(
0.534294
0.356905
0.0955719
0.550691
-0.00223323
0.255976
-0.772009
0.509268
0.555102
-0.109827
0.0319544
0.4345
0.0962896
0.0547539
-1.22177
0.0226432
0.561626
-0.729929
0.394457
0.0239759
-0.0272486
0.556562
0.492985
0.394114
0.480418
-0.0158722
0.145229
-0.0337217
-0.0499754
-0.0396343
-0.00248575
0.0445351
0.0115346
0.220143
0.218623
0.257922
0.403207
0.145322
-0.632334
-0.688059
-0.670448
-0.844765
0.517239
0.530896
-0.299782
0.48816
0.464837
0.407571
0.535655
0.557482
0.497226
0.538873
0.564363
0.27424
-0.143286
-0.20861
-0.0634548
-0.062772
0.0824636
0.0266075
0.0153218
0.0546615
0.0433698
0.357513
0.426084
0.422057
0.444074
0.444472
0.312558
0.270538
0.313871
0.100914
0.218316
0.0715321
0.166895
0.0596201
0.0950637
0.0359769
0.0212487
-1.50434
-2.2689
-0.746477
-0.604996
0.00586972
0.0231474
0.0315683
0.549684
0.551766
0.548539
0.558399
0.695874
-0.652577
-0.843921
0.42792
0.426609
0.54236
0.499548
0.44208
0.383263
0.0207719
0.0156102
0.0110814
0.0387887
0.0293609
0.135508
0.241479
0.372411
0.403378
0.445313
0.469637
0.455921
0.191207
0.515686
0.521911
-0.0604158
0.099657
-0.0175562
0.0522326
0.153262
0.119676
0.224265
0.261218
-0.0537048
-0.0095354
0.039574
0.00453582
0.0287456
0.402642
0.392921
0.417122
0.406598
0.411284
0.0764096
-0.00870625
0.183398
0.1901
-0.515384
-0.560151
-0.730311
-0.739099
-0.88088
0.573279
0.53201
0.546639
-0.386806
-0.262697
-0.429809
-0.187484
-0.234821
0.409303
0.402827
0.403058
0.40757
0.413716
0.413798
0.544266
0.537847
0.568918
0.280851
0.353182
0.261207
0.217625
-0.438161
-0.294298
-0.423723
-0.0374322
-0.00567908
0.0733206
0.105098
0.112228
0.0821546
-0.00635058
0.0125086
0.00175817
0.0178207
0.0207077
0.357649
0.343228
0.359339
0.368027
0.419643
0.417937
0.422978
0.423702
0.231319
0.22238
0.184576
0.16205
-3.06732
-5.25762
-0.398143
-0.302611
-0.0007231
-0.0112647
-0.00392865
-0.0743269
-0.0131487
-0.037234
0.0679303
0.045435
0.0344198
0.054717
0.545119
0.556044
0.701354
0.744584
0.616821
0.617109
0.42425
0.433069
0.428681
0.428639
0.0304705
0.015925
0.0293687
0.432773
0.335438
0.384864
0.155122
0.0627612
0.238907
0.275904
0.54437
0.528813
0.548505
-0.056655
0.0194029
0.351501
0.135153
0.340154
0.190402
0.161188
0.19963
0.134056
0.372731
0.387891
0.385232
0.413802
0.419655
0.418747
0.420649
0.413874
0.418069
-0.155054
-0.446697
0.291938
0.249417
0.195112
0.235211
0.636959
0.69529
0.551312
0.541742
0.553163
-0.088923
-0.129917
0.172054
0.15622
0.307142
0.323866
0.31333
0.154792
0.111868
0.152247
0.137372
0.111265
0.16065
-0.408673
-1.79901
-1.01186
-0.0943846
-0.190017
-0.151266
0.0451593
0.101197
0.0733857
0.716954
0.766839
0.390605
0.541871
0.497404
-0.0737509
-0.00377992
0.097697
-0.0179388
0.0288378
0.101968
0.0559708
0.456416
0.317106
0.402608
0.708582
0.77177
0.0291628
-0.0390024
-0.0765022
0.127824
0.126328
0.121164
0.757531
0.753149
0.778755
0.37962
0.373207
-0.0501195
-0.00398403
0.475511
0.49751
-0.0546838
-0.0236586
-0.103658
-0.83143
0.0226984
0.431
0.391577
0.443102
-0.117331
0.190247
0.00599794
0.0295806
-0.0196696
0.407549
0.340022
0.308255
-0.0551155
0.0105056
-0.00274953
-0.385613
0.435494
0.419692
0.429197
0.440157
0.453321
-0.00716448
-0.0120263
0.027867
-0.031819
0.0378483
0.0367214
0.412232
0.402093
-0.409311
0.42309
0.445374
0.445957
0.456898
0.45827
0.44872
-0.0108585
0.029888
0.038266
0.136126
0.2407
0.0113335
-0.0176637
0.0129294
-0.118808
-0.300287
-0.0289594
-0.0120012
-0.0333665
0.00725266
0.516047
0.488737
0.110357
-0.0613934
0.101075
0.0639312
0.425286
0.442048
0.41601
0.427175
0.443584
0.399622
0.457985
0.429546
0.427429
0.466448
-0.0728215
-0.0263209
-0.0721299
-0.192914
0.269647
0.34794
0.181527
0.240746
0.104961
-0.00774817
0.0416132
-0.013776
0.00711142
0.0117676
0.0997231
0.035881
0.133929
0.0228208
0.10491
-0.0239953
0.129358
0.0037261
0.392159
0.410175
0.407586
0.445507
0.369376
0.386598
0.363425
0.363641
0.379212
0.31436
0.33063
0.330385
0.0141557
0.0122906
0.0406275
0.0257595
0.0447264
-0.0249773
-0.0239693
-0.024633
-0.00528548
-0.0433944
-0.00778995
-0.0011892
-0.302547
-0.47547
0.644125
0.528402
0.188091
0.402286
0.441088
0.417001
0.448644
0.460297
0.491704
0.4598
0.436834
0.408726
0.423255
0.406918
0.42354
-0.337685
-0.405281
-0.263899
-0.317412
0.0617039
0.52448
0.284081
0.231772
0.219936
0.386898
0.296782
0.0772634
-0.117384
-0.223187
-0.525161
-0.369817
-0.541633
-0.0913255
-0.0198279
-0.0515101
0.0219844
0.0900968
0.0303204
0.008969
-0.125997
0.426905
-0.186791
-0.162422
0.0499333
-0.0318106
0.243266
0.515849
0.526591
0.466986
0.445442
0.500435
0.474379
0.47347
0.50673
0.512133
0.407078
0.176573
0.16252
0.0958513
0.523853
0.430694
0.468139
0.358467
0.444762
0.448417
0.429771
0.420889
0.453957
0.420607
0.415627
0.395539
0.388224
0.423375
0.426784
0.401492
-0.000609688
-0.0135513
-0.0749871
-0.274099
-0.158895
-0.254528
-0.115959
0.0541148
-0.0309136
0.151747
0.301872
0.0378073
-0.174302
-0.0468513
-0.0966025
0.140895
0.0817999
0.127098
0.137405
0.142795
0.139296
0.196583
0.171622
0.038789
0.0488043
0.0738245
0.00175618
0.127459
0.0951392
0.15188
0.061517
0.108145
0.0629216
0.0270062
0.017173
0.1033
0.058809
0.0188632
0.0293499
0.0195126
-0.0594053
-0.0551134
0.164362
0.049164
0.430796
0.415952
0.417938
0.436513
0.466796
0.461951
0.408568
0.407652
0.431984
0.404663
0.378557
0.363056
0.354758
0.38414
0.393423
0.390826
0.42867
0.420369
0.394129
0.412361
0.363496
0.382216
0.335989
0.349666
0.374043
-0.083456
0.0208945
-0.0307958
-0.0379747
0.0135398
0.0480026
0.105562
0.0334531
0.11105
0.0859402
0.0618612
0.0264511
0.0522336
-0.14419
-0.0139378
-0.330677
-0.379734
-0.485046
0.634721
0.6994
0.568786
0.454633
0.513535
0.584405
0.653232
0.40158
0.433259
0.497617
0.459552
0.689143
0.42361
0.41144
0.43139
0.448567
0.428383
-0.207292
-0.0962039
-0.0487013
0.0467931
0.101579
0.144938
0.0217141
0.180645
0.246056
0.197501
0.505079
0.525621
0.491306
0.524073
0.520567
0.323739
0.4129
0.448991
0.436707
0.442129
0.46283
0.466491
0.464392
0.395971
0.390116
0.395569
0.350662
0.374846
0.348384
0.344397
0.405145
0.384275
0.386285
0.39497
0.442522
0.423915
0.448717
0.490827
0.474435
0.378397
0.358728
0.38142
0.391358
0.369855
0.368859
0.365459
-0.111553
-0.0727023
-0.0207127
-0.185418
-0.0541447
-0.0877128
-0.131136
-0.162855
-0.0175345
-0.4508
-0.380391
-0.898646
0.317905
0.359141
0.191058
-0.0637933
0.426223
0.459752
0.443032
0.352975
0.365821
0.508087
0.529347
0.536996
0.462826
0.459136
0.485644
0.469929
0.413353
0.28007
0.217385
0.25577
0.103425
0.159652
0.322372
0.261365
0.213926
0.239429
0.336323
0.242902
0.274585
0.344144
0.309108
0.294966
0.42602
0.471746
0.486525
0.438393
0.344791
0.398592
0.391754
0.439596
0.476967
0.481646
0.427903
0.41174
0.420335
0.412344
0.402902
0.418936
0.39196
0.434159
0.438084
0.445973
0.440482
-0.0082478
0.016542
0.0241456
-0.0177103
-0.00943712
-0.0519064
-0.047094
-0.0666304
0.0755461
0.0559186
-0.0264425
-0.00176445
0.0857151
0.0443462
0.11343
0.131898
0.0803159
0.0253143
0.223044
0.348145
0.34941
0.311233
0.196822
0.204331
0.289591
0.0464211
0.12576
0.0819121
0.0534003
0.0537373
0.0193824
0.102539
0.0460745
0.0847542
0.0406207
-0.0995577
0.042592
0.0897078
-0.0426726
0.00992238
0.0400649
0.396079
0.396762
0.380085
0.360803
0.369616
0.370802
0.405084
0.428671
0.431411
0.430242
0.435476
0.42047
0.426513
0.0130704
0.118707
0.144099
0.0869342
0.0453501
-0.00519254
-0.0182548
0.172952
0.0673971
0.145991
-0.0617352
-0.216329
-0.130205
0.310629
0.392417
0.299647
0.63968
0.502177
0.380179
0.471329
0.617629
0.344091
0.474794
0.364528
0.653339
0.622104
0.698683
0.527036
-0.0363815
0.101271
0.243166
-0.135621
-0.0781099
0.0973835
0.0868006
0.101753
0.077613
0.170596
0.0766087
0.0415349
-0.0681942
-0.0112938
0.137839
0.154007
0.160712
0.181441
-0.0630205
-0.116432
-0.0956424
0.485341
0.509202
0.532417
0.505136
0.52649
0.463081
0.461865
0.491991
0.51577
0.503354
-0.730758
-0.471603
-1.3154
-0.661397
-0.319022
0.434701
0.172079
0.748066
0.594562
0.462112
0.486345
0.492479
0.454023
0.504905
0.506209
0.253227
0.348529
0.295543
0.330964
0.246522
0.175142
0.471698
0.456359
0.486246
0.505246
0.460384
0.503353
0.357208
0.395743
0.377085
0.409708
0.430334
0.447058
0.0999173
0.0375385
0.0808974
0.0698242
0.0528476
0.0286758
-0.0388228
-0.0108411
0.157219
0.104058
0.0503878
0.10204
-0.0143442
0.0473253
-0.0531775
0.0324551
-0.144452
-0.219798
-0.222704
-0.173914
-0.115846
-0.0797628
0.43775
0.578217
0.505949
0.607291
0.471251
0.581197
0.253453
0.196706
0.220574
0.209041
0.275232
0.026576
-0.306077
-0.204621
0.785976
0.898733
0.606251
0.368058
0.119365
0.397465
0.436147
0.367472
0.387738
0.470516
0.436741
-0.138021
-0.0813966
-0.0547172
0.00406904
-0.0379327
-0.0167954
-0.0328175
0.00525508
-0.0332953
)
;

boundaryField
{
    wall-4
    {
        type            calculated;
        value           nonuniform List<scalar> 
100
(
0.534294
0.356905
0.0955719
0.550691
0.255976
-0.772009
0.509268
-0.109827
0.0319544
0.4345
0.0962896
0.0547539
-1.22177
0.561626
-0.729929
0.394457
0.0239759
-0.0272486
0.394114
0.480418
-0.0158722
0.145229
-0.0337217
0.220143
0.403207
-0.688059
-0.844765
0.530896
-0.299782
0.464837
0.407571
-0.20861
-0.062772
0.0153218
0.0433698
0.357513
0.422057
0.444472
0.218316
0.166895
0.0950637
0.0212487
-2.2689
-0.604996
0.551766
0.558399
-0.843921
0.426609
0.383263
0.0156102
0.0293609
0.241479
0.403378
0.455921
0.191207
0.521911
-0.0604158
0.0522326
0.119676
0.261218
0.392921
0.417122
0.411284
-0.560151
-0.88088
0.546639
-0.429809
-0.234821
0.403058
0.413798
-0.423723
-0.00567908
0.00175817
0.0207077
0.343228
0.368027
0.419643
0.423702
0.16205
-0.302611
0.556044
0.42425
0.428639
0.0293687
0.384864
0.0627612
0.275904
0.548505
0.0194029
0.190402
0.385232
0.418747
0.418069
0.553163
-0.129917
0.31333
0.137372
-0.151266
0.0288378
-0.0765022
)
;
    }
    velocity-inlet-5
    {
        type            calculated;
        value           nonuniform List<scalar> 8(0.534294 0.550691 0.555102 0.556562 0.557482 0.564363 0.54236 0.568918);
    }
    velocity-inlet-6
    {
        type            calculated;
        value           nonuniform List<scalar> 4(0.356905 0.255976 0.257922 0.313871);
    }
    pressure-outlet-7
    {
        type            calculated;
        value           uniform 0;
    }
    wall-8
    {
        type            calculated;
        value           nonuniform List<scalar> 
34
(
-0.00223323
0.0226432
0.0115346
0.145322
0.27424
0.0824636
0.0315683
0.695874
0.0287456
-0.00870625
0.1901
0.573279
0.353182
0.217625
0.105098
0.0821546
-5.25762
0.0679303
0.054717
0.744584
0.617109
-0.446697
0.291938
0.235211
0.69529
0.15622
-1.01186
0.0733857
0.766839
0.497404
0.402608
0.77177
0.121164
0.778755
)
;
    }
    frontAndBackPlanes
    {
        type            empty;
    }
}

