/*--------------------------------*- C++ -*----------------------------------*\
  =========                 |
  \\      /  F ield         | OpenFOAM: The Open Source CFD Toolbox
   \\    /   O peration     | Website:  https://openfoam.org
    \\  /    A nd           | Version:  6
     \\/     M anipulation  |
\*---------------------------------------------------------------------------*/
FoamFile
{
    version     2.0;
    format      ascii;
    class       volVectorField;
    location    "0";
    object      U_rec;
}
// * * * * * * * * * * * * * * * * * * * * * * * * * * * * * * * * * * * * * //

dimensions      [0 1 -1 0 0 0 0];

internalField   nonuniform List<vector> 
918
(
(0.98558 -0.00384613 0)
(-0.0112908 2.9926 0)
(-0.012121 1.70568 0)
(0.978017 0.00637922 0)
(-0.00834307 1.66757 5.73127e-17)
(0.00510187 2.98408 -2.42797e-17)
(0.941061 1.41888 4.4913e-18)
(0.477686 0.246204 2.73642e-19)
(0.996434 0.000394135 0)
(0.0346605 1.59927 0)
(-0.00460074 1.5899 0)
(0.896214 -0.00294147 0)
(-0.00281142 2.98952 0)
(0.00456962 2.89182 0)
(-0.00103609 2.90543 1.88117e-17)
(-0.00615366 1.63455 3.45254e-17)
(0.646906 0.137747 -2.04402e-18)
(0.193717 1.67655 -3.66193e-17)
(0.981917 0.00734385 0)
(0.00611322 1.64113 0)
(0.000115755 0.0175201 6.85818e-18)
(0.986605 0.0087527 0)
(1.00292 0.00982446 0)
(1.01506 -0.0002813 0)
(0.81154 -0.0035449 0)
(0.0183642 2.92775 0)
(-0.00700694 2.94064 -9.44173e-17)
(-0.0109082 1.72827 0)
(0.00157465 1.76554 0)
(-0.0137652 1.72547 0)
(-0.00785183 1.78832 0)
(-0.00882095 1.68082 5.70233e-17)
(-0.00575406 1.63814 0)
(0.00859317 3.0117 7.48673e-22)
(0.00726727 3.02366 -5.93604e-17)
(0.0211535 3.01178 0)
(0.934248 -0.00437681 0)
(0.587849 1.12496 -1.21367e-17)
(0.957591 1.42958 -1.19982e-17)
(1.07564 1.26017 2.61651e-17)
(0.811512 1.55478 9.46939e-18)
(0.775533 1.53912 1.58585e-17)
(0.500505 0.311152 3.2028e-20)
(0.53131 0.231551 0)
(1.27368 0.680153 0)
(0.424793 0.323655 -5.84128e-20)
(0.411628 0.231784 1.02824e-18)
(0.955085 -0.00221763 0)
(0.996172 0.00270019 0)
(0.996549 0.0032369 0)
(0.99089 0.00259926 0)
(0.980982 0.00918577 0)
(0.99733 0.0130462 0)
(0.0277987 1.58432 5.32739e-18)
(0.0244194 1.6896 0)
(0.0462801 1.61626 0)
(0.0155176 1.70007 0)
(0.0168925 1.61104 0)
(-0.00725264 1.6587 0)
(-0.00632819 1.67059 0)
(-0.00329661 1.59152 0)
(-0.0141491 1.67974 0)
(-0.00795834 1.60196 0)
(0.96669 0.00463246 0)
(0.93665 0.00913355 0)
(0.909811 0.000285934 0)
(0.928131 0.010776 0)
(0.882062 0.0008802 0)
(-0.0187638 3.0457 2.33599e-17)
(-0.00337815 2.97492 0)
(-0.0296921 3.02501 0)
(0.0258233 3.04199 -7.79853e-23)
(-0.00428923 3.02651 4.1324e-17)
(0.0179164 3.01288 0)
(0.00447031 2.9573 0)
(0.00271497 2.96639 -1.84585e-23)
(0.00441042 2.89782 0)
(0.0087168 2.9735 0)
(0.0080759 2.87908 0)
(0.271831 3.18706 0)
(-0.0661485 3.26591 0)
(0.0920024 2.96546 6.19928e-18)
(0.000466005 2.80712 0)
(0.00481875 1.7577 0)
(-0.00351337 1.69114 3.32139e-17)
(-0.00104493 1.63714 3.4632e-17)
(0.688414 0.169189 -3.85329e-18)
(0.676284 0.0961673 3.11265e-18)
(0.646647 0.207287 2.30862e-17)
(0.624832 0.166438 -7.5074e-18)
(0.215838 1.32093 0)
(0.242799 1.72316 -4.54179e-17)
(0.381749 1.65332 -3.65186e-17)
(0.994238 0.00599219 0)
(0.970205 0.00413511 0)
(0.9954 -0.0061385 0)
(1.00115 0.000679847 0)
(1.00457 0.0147751 1.51698e-16)
(1.00643 0.0145106 1.13551e-16)
(-0.00178704 1.69595 0)
(0.0015583 1.6421 0)
(-0.00414683 1.73104 0)
(-0.0109727 1.70594 0)
(-7.00871e-05 1.65194 0)
(-0.0138032 0.250922 -3.05324e-18)
(0.181879 0.171341 0)
(1.01385 -0.0153983 0)
(0.983267 -0.002757 0)
(0.903722 0.0291785 0)
(0.865032 0.0442465 0)
(0.850603 0.00943815 0)
(1.09202 0.00323205 0)
(0.82232 0.0329923 0)
(0.758486 -0.0111694 1.71825e-17)
(-0.0199465 2.87723 2.03194e-17)
(0.00515413 2.98344 0)
(-0.051332 3.02532 0)
(0.00482247 2.86989 0)
(-0.00610116 2.98395 -3.60694e-17)
(-0.00150909 2.93049 0)
(-0.0116568 2.98723 -7.78188e-18)
(-0.0142138 2.9506 2.19534e-17)
(0.00430112 1.77831 0)
(0.000693603 1.77768 0)
(0.00182511 1.6946 1.23665e-21)
(-0.00392266 1.68861 0)
(0.000278827 1.63547 0)
(0.966447 0.00124413 0)
(0.935115 0.00143294 0)
(0.922774 0.000484063 0)
(0.967207 -0.00172268 0)
(0.937606 -0.00110394 0)
(0.65129 1.24125 -3.82005e-18)
(0.736279 1.28081 0)
(0.507639 1.07471 -1.43609e-18)
(0.47697 0.999815 0)
(1.07263 1.26945 1.70154e-17)
(1.18146 1.06383 4.74587e-18)
(0.438121 1.69591 0)
(0.64246 1.64664 0)
(0.578812 1.61445 0)
(0.302074 0.512334 -5.04049e-18)
(0.550913 0.295582 0)
(0.572611 0.221558 -4.66642e-18)
(1.15568 1.08848 0)
(1.22006 0.889836 0)
(1.24082 0.860419 -4.96259e-18)
(1.27402 0.706398 0)
(1.29848 0.506873 -2.89035e-17)
(0.971789 0.00325551 0)
(0.974477 -0.00460736 0)
(0.945771 -0.00146678 0)
(0.998215 -0.0071572 0)
(0.987408 -0.00684384 0)
(0.970629 -0.00101652 0)
(0.988147 -0.00360241 0)
(0.986475 -0.000354353 0)
(0.997454 -0.00176294 0)
(0.0283639 1.62249 2.92082e-17)
(0.0364506 1.5502 0)
(0.0275164 1.65817 -4.5213e-18)
(0.0166083 1.60794 4.83937e-18)
(0.0802527 1.70893 -4.343e-17)
(0.0347649 1.69785 0)
(0.0651846 1.637 0)
(0.00605368 1.70438 0)
(0.015533 1.59023 0)
(-0.00641387 1.70205 3.25878e-20)
(0.00638509 1.65773 0)
(-0.00737535 1.70461 -3.22017e-17)
(0.00112098 1.65837 -2.86501e-18)
(0.0108099 1.68887 0)
(-0.00087031 1.67686 0)
(0.00780411 1.58666 0)
(-0.0119497 1.6908 0)
(-0.00673902 1.62051 0)
(1.00496 0.0190932 0)
(0.983692 0.00692755 0)
(0.9893 0.00916177 0)
(0.956539 0.00258668 0)
(0.916161 -0.00474497 0)
(0.952982 0.00326753 0)
(0.946502 0.00979087 0)
(0.911526 0.00223078 0)
(0.011102 3.04053 6.44057e-20)
(0.0168099 3.03439 0)
(0.00875997 2.99324 0)
(0.00496111 2.93794 0)
(0.980774 3.70036 0)
(1.34789 2.7553 -9.34373e-19)
(0.00945847 2.88359 0)
(-0.0116288 2.80323 0)
(-0.00388092 1.77263 0)
(-0.00145753 1.76057 0)
(-0.00196147 1.76306 0)
(-0.00227767 1.77655 -7.63066e-17)
(-0.0015823 1.76061 0)
(0.0044238 1.76847 0)
(0.00348736 1.64141 -6.77777e-17)
(0.00290183 1.69978 -3.48907e-17)
(-0.0040968 1.69521 3.2983e-17)
(-0.00190231 1.63933 0)
(0.714783 0.137695 -2.00383e-17)
(0.711909 0.0747949 -1.01313e-17)
(0.204559 1.34913 0)
(0.271747 1.20279 1.03479e-18)
(0.137835 1.44134 -2.58757e-17)
(0.136401 1.41958 -3.26674e-17)
(0.947177 0.00796815 0)
(0.980593 0.00844991 0)
(0.985395 0.00926114 0)
(0.957629 0.00816236 0)
(-0.00944021 1.69701 0)
(0.00145432 1.69545 0)
(-0.00155822 1.63239 0)
(0.34647 0.32561 -3.07165e-18)
(0.217667 0.290464 3.00262e-18)
(0.312319 0.208507 0)
(1.18436 0.102858 -7.74347e-19)
(1.1893 0.0554714 0)
(1.09583 0.0485079 0)
(1.03418 0.000247249 0)
(0.740835 0.101547 0)
(0.774975 0.051681 4.05925e-17)
(0.729523 0.0429976 -2.4385e-17)
(-0.015427 2.95726 -3.59772e-17)
(-0.00800178 2.9063 -5.75736e-17)
(0.00902986 3.02967 1.26036e-19)
(0.0362555 3.01742 -3.82564e-17)
(-0.0172816 2.99989 -2.52542e-19)
(-0.0156407 2.97973 9.76825e-22)
(-0.0138141 3.03098 -2.02056e-18)
(0.000444249 2.99061 -9.23282e-18)
(0.0545878 3.0227 -2.78897e-17)
(0.984572 0.00527998 0)
(0.9757 0.0115078 0)
(0.946897 0.00527421 0)
(0.973218 0.00967001 0)
(0.961518 0.00878423 0)
(0.926922 0.0086485 0)
(0.954774 -0.00333881 0)
(0.955389 0.00165926 0)
(0.914664 -0.00578952 0)
(0.795578 1.44307 4.66077e-18)
(0.874674 1.50465 0)
(0.388078 0.698355 1.16591e-18)
(0.349086 0.824573 -4.61598e-18)
(0.403983 0.941124 -1.17111e-17)
(0.42779 0.869909 -1.98859e-17)
(0.422012 0.892984 -3.06167e-18)
(0.298822 0.608203 1.89841e-17)
(0.626975 0.233173 -1.38181e-17)
(0.593978 0.263759 -4.06777e-18)
(0.603514 0.190606 3.36816e-18)
(1.29646 0.526072 -2.38309e-17)
(1.2979 0.329264 5.47837e-18)
(0.00574168 1.67612 -3.498e-17)
(0.00192366 1.61957 0)
(1.04886 0.0288057 0)
(1.02309 0.0180654 0)
(1.00289 -0.00095798 0)
(0.0145415 3.04722 0)
(0.0125077 2.971 -3.90827e-17)
(0.0104008 2.98296 0)
(0.00432385 2.91797 -1.94801e-17)
(0.0112531 3.05908 1.44618e-17)
(0.0111673 3.05352 0)
(0.848878 1.73803 -3.96936e-18)
(1.19437 2.32216 -8.06225e-18)
(0.93078 1.8268 -1.75919e-17)
(-0.0282451 2.92064 3.55213e-17)
(-0.0248598 2.88311 0)
(-0.0212445 2.8398 0)
(-0.0155259 1.69778 6.73002e-17)
(0.00409982 1.69034 2.06465e-18)
(-0.0116588 1.63912 6.72038e-17)
(0.259685 1.27501 -1.73823e-17)
(0.306748 1.06782 -1.13275e-17)
(0.0372244 1.58387 -3.33579e-17)
(0.0745261 1.51928 -2.6976e-17)
(0.0627566 1.49329 -6.07039e-17)
(-0.0248562 3.07137 1.31739e-16)
(-0.0119394 3.0683 9.7367e-17)
(0.00531601 2.9861 2.24255e-17)
(-0.00942348 2.98106 -2.17343e-17)
(0.00201439 2.93412 3.62671e-17)
(0.016798 3.0651 -8.33177e-17)
(-0.00651116 3.05709 -1.36763e-16)
(0.382525 0.830462 0)
(0.310541 0.788763 -1.44273e-18)
(0.33416 0.521563 -1.85197e-17)
(0.394601 0.991628 2.9356e-17)
(0.353435 0.750673 2.77908e-17)
(1.27223 0.202494 -3.26005e-18)
(1.3014 0.362819 0)
(1.26839 0.179408 2.77774e-18)
(-0.00397467 1.69425 3.23522e-20)
(0.00297977 1.68367 0)
(0.00113751 1.63671 0)
(0.298508 1.17905 1.53217e-18)
(0.349189 1.10435 -3.14183e-17)
(0.324289 0.917048 -3.24257e-17)
(1.00127 -0.021529 0)
(1.00333 -0.0130594 1.05547e-17)
(0.00184262 1.77736 0)
(-0.00941096 1.79394 0)
(1.00402 -0.000937775 4.69737e-19)
(1.00233 0.00192759 1.19335e-17)
(0.00143356 1.77481 -7.58389e-17)
(0.00287037 1.77532 0)
(-0.0220077 2.97348 2.18252e-17)
(0.299399 3.0022 0)
(1.0992 0.698096 -2.52614e-17)
(1.00443 0.00631399 8.48276e-17)
(1.00811 -0.00835892 0)
(1.00661 -0.00084572 3.56247e-19)
(-0.0536055 1.78023 0)
(0.000443947 1.75245 0)
(-0.00242066 1.80408 0)
(0.0305652 1.73412 -7.66631e-17)
(-7.66066e-05 1.75341 7.35473e-17)
(0.989118 0.0107878 8.3143e-17)
(1.03598 0.0231456 0)
(1.06063 0.0317156 0)
(0.000513918 1.77064 0)
(0.0059679 1.76507 0)
(-0.0122619 1.77652 0)
(0.105337 1.63153 -8.56229e-17)
(1.00635 -0.0122016 0)
(1.00918 -0.015886 0)
(0.997261 0.00482823 -2.34828e-17)
(0.997023 -0.00548334 2.95763e-17)
(0.998388 -0.00446668 0)
(-0.00473425 1.76637 0)
(0.00182134 1.77184 0)
(-0.000178601 1.76501 0)
(-0.0052627 1.78077 0)
(-0.0192025 1.77691 0)
(-0.00982957 1.77371 0)
(1.0117 0.00911337 0)
(1.01172 0.00369977 8.49996e-17)
(0.82009 1.3961 6.78491e-19)
(1.00155 -0.0067956 2.38398e-17)
(0.999606 0.00388213 -2.93028e-17)
(1.00518 0.0035954 0)
(0.999663 0.0103476 3.30343e-17)
(1.00704 0.0130188 5.29214e-17)
(1.00627 0.0100977 0)
(0.00721719 1.76891 0)
(0.00649839 1.76632 -3.89673e-17)
(0.00290619 1.76606 -3.38569e-17)
(1.1551 0.262774 -6.5848e-17)
(1.09508 0.081935 0)
(-0.231008 2.97289 3.32755e-17)
(-0.249621 3.21746 9.3743e-19)
(-0.0305132 3.02011 4.1345e-17)
(-0.0373658 2.97467 3.8281e-17)
(0.0488703 2.95552 0)
(-0.0279517 3.02627 1.19676e-17)
(-0.0930579 3.12902 1.87891e-17)
(-0.0822693 3.01433 2.07669e-17)
(-0.0591004 3.09677 0)
(0.647095 0.346191 0)
(0.51428 0.385815 0)
(1.08153 0.828787 2.62488e-17)
(1.068 0.906353 4.22966e-17)
(1.13141 0.630993 0)
(1.14645 0.561129 0)
(1.00583 0.00383582 1.9947e-17)
(1.00148 0.00410648 -2.19154e-17)
(1.00853 -0.00955916 0)
(1.00513 -0.0147074 0)
(1.0035 0.00651014 0)
(1.00713 0.00461571 0)
(1.00453 0.00572675 0)
(1.00286 0.00560096 0)
(1.00391 0.00388812 0)
(0.993945 0.00642678 0)
(-0.035284 1.78938 0)
(-0.0423231 1.81522 0)
(-0.0285589 1.76713 0)
(-0.0355143 1.75555 0)
(0.00279325 1.75127 0)
(0.0203384 1.74478 3.63871e-17)
(0.00936957 1.74468 0)
(-0.00959018 1.72886 3.13483e-17)
(0.0147474 1.70948 -6.81189e-17)
(-0.0116912 1.8055 0)
(-0.00256884 1.799 0)
(0.00989949 1.81261 0)
(0.00239921 1.82611 0)
(0.0340031 1.76646 -7.37463e-17)
(-0.0138649 1.7382 -4.95677e-17)
(0.0288309 1.74 3.59834e-17)
(0.00558268 1.75067 0)
(0.0238731 1.75944 3.35587e-17)
(0.00758247 1.76514 -7.02051e-17)
(0.00422377 1.78528 -1.15837e-16)
(-0.00194636 1.7298 -4.56431e-17)
(0.0262656 1.73668 4.06137e-17)
(0.992237 0.0170729 -1.40521e-17)
(0.994806 0.0010819 1.95406e-17)
(0.988063 0.0256151 1.85946e-17)
(0.974406 0.0206668 -1.854e-17)
(1.02995 0.0113187 0)
(1.03351 0.0107363 0)
(1.04517 0.0323321 0)
(1.03538 0.0277384 0)
(1.04331 0.0123179 0)
(1.0848 0.0675305 0)
(1.06331 0.0596916 0)
(1.08267 0.0412591 0)
(-0.00703946 1.77303 9.96952e-18)
(0.00361145 1.75485 0)
(-0.014431 1.75855 0)
(-0.000608541 1.7644 -1.52697e-17)
(0.00225856 1.76759 3.87553e-20)
(-0.00910815 1.78793 4.36413e-17)
(-0.0206111 1.77614 4.49709e-17)
(-0.00230179 1.77108 0)
(-0.030311 1.77646 0)
(-0.0109864 1.77078 0)
(-0.00206334 1.77945 0)
(-0.00619294 1.78996 0)
(0.263305 1.59742 -5.13957e-17)
(0.343045 1.58879 4.32001e-17)
(0.339306 1.74951 5.18325e-19)
(0.177717 1.72008 2.79094e-17)
(0.0632946 2.04627 3.57998e-17)
(1.00822 -0.0164292 0)
(1.0114 -0.00932373 0)
(1.01331 -0.0115379 0)
(1.00587 0.000955823 0)
(0.997786 -0.00304479 0)
(0.989992 -0.00121893 0)
(1.00352 -0.00309941 0)
(1.00277 -0.00278911 0)
(1.00939 0.00216805 -1.44476e-17)
(1.00891 0.00296648 2.115e-17)
(1.0112 0.00566849 1.90855e-17)
(1.00596 0.00581666 -2.05242e-17)
(0.760699 1.4806 0)
(0.701088 1.49942 -7.34852e-17)
(0.890595 1.34899 7.36654e-17)
(0.948318 1.27039 6.34363e-17)
(1.01885 2.09731 -3.14841e-17)
(0.812782 0.119862 -2.282e-17)
(1.10577 0.132014 0)
(1.16001 0.193974 -8.92772e-17)
(1.13814 0.137686 3.52571e-19)
(0.951428 0.144638 0)
(-0.0888199 2.70283 4.87084e-17)
(-0.375186 2.61292 7.57515e-17)
(-0.804579 2.68754 3.49346e-18)
(-0.645165 0.23314 -1.01446e-17)
(0.196218 2.99776 -1.63473e-17)
(0.0531619 2.98587 0)
(0.143821 2.97238 -6.57575e-18)
(0.0161442 2.70964 8.61364e-17)
(0.192903 2.74003 0)
(-0.0224391 3.05657 -6.28723e-19)
(-0.035734 3.06823 -2.0408e-17)
(-0.00682711 3.09836 -3.42374e-17)
(-0.0374571 3.11133 0)
(-0.0514878 3.05133 0)
(1.14033 2.16328 0)
(0.492925 1.05642 5.12501e-17)
(1.02318 1.09292 -3.65787e-17)
(0.997595 1.21574 0)
(0.847135 1.07372 -1.28808e-17)
(1.04249 1.02859 -6.17731e-17)
(0.174646 0.410452 1.98079e-18)
(0.657459 0.343086 1.20654e-17)
(0.685289 0.298927 1.0896e-17)
(0.45504 0.45838 -5.30788e-20)
(0.419822 0.397214 6.8771e-18)
(0.608888 0.391566 0)
(0.581253 0.48129 8.11271e-18)
(0.605645 0.439985 0)
(0.539525 0.413624 0)
(0.588797 0.359155 0)
(0.677248 0.696342 3.11552e-17)
(1.1628 0.335156 4.35817e-17)
(1.17757 0.461324 0)
(1.17247 0.386678 0)
(0.756443 0.229802 1.70168e-17)
(0.729097 0.632788 3.79816e-17)
(0.609218 0.571667 7.78185e-18)
(0.859726 0.434208 -7.67335e-17)
(1.00406 0.00502469 2.86096e-17)
(1.00151 0.0159563 5.17841e-17)
(1.00001 0.013345 0)
(1.00757 0.0126514 0)
(1.00227 -0.0121552 -2.80525e-17)
(0.996964 -0.00385301 -4.94304e-17)
(1.01304 0.00185336 0)
(1.00466 0.00254367 0)
(1.01114 0.000952852 0)
(1.00649 0.00576806 0)
(1.01399 6.547e-05 0)
(1.0095 -0.00532246 0)
(-0.0174756 1.82398 0)
(-0.00510665 1.82257 0)
(-0.0904198 1.74824 -4.97654e-17)
(0.0497134 1.68781 -3.81597e-17)
(-0.00334918 1.74248 8.10569e-17)
(-0.00811358 1.7021 2.98019e-17)
(-0.0729719 1.72927 0)
(-0.066713 1.84509 7.49392e-17)
(-0.091637 1.82861 0)
(0.000855119 2.04615 3.92176e-17)
(0.0741848 1.93196 -4.77222e-17)
(-0.0790744 1.84551 6.83799e-17)
(-0.0101301 1.65806 -3.93853e-17)
(-0.0776976 1.71246 -4.27351e-17)
(-0.0556082 1.64941 -6.371e-18)
(-0.0735048 1.89117 0)
(-0.031484 1.89489 -5.50458e-17)
(-0.000192842 1.72474 6.50418e-18)
(0.00355166 1.70512 0)
(-0.0356028 1.719 -7.50373e-17)
(-0.0287759 1.70856 0)
(-0.00201955 1.7175 3.55935e-17)
(-0.0030575 1.70994 0)
(0.0392448 1.78138 5.57651e-17)
(0.0570534 1.7845 0)
(0.0328869 1.80656 0)
(0.0234732 1.80959 5.14236e-17)
(0.00681211 1.71657 -1.17714e-16)
(0.027819 1.7149 -7.1866e-17)
(0.0153874 1.72251 -2.22357e-20)
(0.0115395 1.75627 7.61703e-17)
(-0.00479301 1.7828 -3.9906e-17)
(-0.00804551 1.79485 0)
(-0.0153208 1.80151 0)
(0.0165188 1.77525 2.84251e-17)
(0.0164029 1.81159 2.39365e-17)
(0.0325099 1.78898 6.28738e-17)
(-0.0184015 1.78097 0)
(0.00248653 1.76576 1.03972e-16)
(-0.00817619 1.76543 1.63184e-17)
(0.00411491 1.77189 -1.91786e-17)
(0.0175461 1.77623 7.86781e-17)
(0.01844 1.73308 -3.575e-18)
(0.00686007 1.74225 -4.62205e-17)
(1.00205 0.012147 5.0937e-17)
(0.995742 0.00422404 2.87221e-17)
(0.996968 0.00783869 0)
(0.988623 0.0503713 -7.32196e-17)
(0.965124 0.0496153 1.87116e-17)
(0.94822 0.0356195 -1.11778e-17)
(0.983968 0.0970356 2.08128e-18)
(1.01756 0.0126598 0)
(1.02397 0.0137481 -5.02319e-17)
(1.02418 0.00871375 -2.8752e-17)
(1.0245 0.0391549 3.49301e-18)
(1.02525 0.0341507 -1.14112e-17)
(1.00978 0.0449099 0)
(1.00166 0.0427211 6.8897e-19)
(0.997909 0.0257863 0)
(0.999157 0.0247395 0)
(1.01188 0.0228059 0)
(1.00247 0.00877054 0)
(1.00545 0.0270685 3.18416e-18)
(1.00791 0.0201545 3.21418e-17)
(1.02168 0.034832 -4.96447e-18)
(1.01163 0.0332462 1.13479e-17)
(1.00884 0.0606399 2.54568e-17)
(1.03398 0.0571215 0)
(1.02655 0.0907194 0)
(0.00609577 1.77692 -5.27674e-17)
(0.0166302 1.7538 -7.92743e-19)
(-0.00452033 1.76791 0)
(0.0110956 1.77691 -5.46403e-17)
(0.00246421 1.78065 8.90204e-18)
(0.00758593 1.77065 -3.87563e-18)
(-0.000996915 1.76503 -7.83036e-17)
(0.0100374 1.76317 -1.1875e-19)
(0.012877 1.75567 -5.29444e-18)
(-0.00544975 1.76382 3.4638e-17)
(-0.00317639 1.76804 3.31068e-17)
(0.00485752 1.76429 -2.31534e-17)
(-0.00400985 1.77056 -3.94378e-17)
(0.164812 1.4755 2.49931e-17)
(0.0703356 1.66541 -1.03448e-17)
(0.659164 1.53843 -8.39763e-17)
(0.482217 1.55731 3.83835e-17)
(0.550383 1.55731 0)
(0.366789 1.77686 -4.15167e-18)
(0.467197 1.70974 -1.03276e-18)
(0.227358 1.71193 -7.38e-18)
(0.190617 1.88542 -3.1346e-17)
(0.22908 1.92176 -3.04848e-17)
(0.323427 1.74251 0)
(0.26661 1.70332 -1.17904e-17)
(0.064749 1.74286 -1.39972e-18)
(0.139158 1.73142 6.21239e-17)
(0.0847511 1.70647 9.43537e-18)
(0.754404 1.98927 -3.82754e-17)
(0.635891 1.89857 0)
(1.00929 0.0025092 -3.24513e-19)
(1.0046 -0.0117362 3.69142e-19)
(1.00059 -0.0232599 -6.09883e-18)
(1.01701 -0.0120322 -1.75001e-17)
(1.01664 -0.00223398 0)
(0.752194 1.35271 0)
(0.705684 1.32301 0)
(0.778617 1.23468 0)
(0.718924 1.29462 0)
(0.995163 2.12582 2.90823e-17)
(0.93992 1.94029 0)
(0.821783 1.93322 -1.12616e-18)
(0.66739 2.15048 0)
(0.782235 2.15562 7.60374e-17)
(0.850209 2.09923 6.61273e-17)
(0.801111 0.158961 0)
(0.78747 0.15878 -1.54438e-18)
(0.870312 0.135225 5.99378e-18)
(0.832325 0.111575 -2.76899e-17)
(0.851781 0.0826222 2.80121e-18)
(1.00965 0.252667 -2.26967e-17)
(0.887853 0.29338 2.87087e-17)
(0.863712 0.282575 2.3015e-17)
(0.94123 0.215578 1.00856e-17)
(0.878743 0.169363 4.42576e-17)
(0.863941 0.192784 -1.14742e-17)
(0.880584 0.251797 2.73285e-18)
(0.858694 0.221237 0)
(0.951487 0.196172 1.99262e-17)
(0.988022 0.190933 0)
(0.980047 0.249846 0)
(1.03671 0.123743 -1.39691e-17)
(1.00076 0.189999 3.15959e-17)
(0.988858 0.22129 2.21798e-17)
(1.03384 0.20901 0)
(0.991874 0.027876 -3.95741e-17)
(0.998351 0.0326486 2.72083e-17)
(1.00189 0.0355348 -2.34991e-17)
(1.00213 0.0513308 4.54681e-17)
(0.981975 0.0526685 -5.22351e-17)
(0.934954 0.149476 0)
(0.961856 0.0797975 0)
(0.943925 0.0519177 4.63537e-17)
(0.917662 0.0519249 8.05907e-18)
(0.992132 0.0987817 -4.19526e-17)
(1.00863 0.126822 -2.26693e-17)
(1.00928 0.157204 -1.25789e-17)
(0.983316 0.154797 0)
(1.01172 0.0923403 0)
(1.00685 0.0819813 3.74532e-17)
(0.991536 0.0828991 -2.39716e-17)
(0.645519 1.34773 2.59716e-17)
(0.625305 1.4941 -1.97531e-17)
(0.929375 2.21596 2.10564e-17)
(0.988497 2.48598 -2.81054e-18)
(1.05012 2.1965 -2.32039e-17)
(1.1092 2.24318 3.77176e-18)
(1.11155 1.98162 8.26251e-18)
(1.0134 2.38056 -1.4023e-17)
(1.02309 2.3566 -1.71115e-17)
(1.05525 2.59596 -2.18932e-18)
(1.18112 2.46445 3.31067e-18)
(1.2492 2.41654 0)
(0.46465 1.11666 -3.28787e-18)
(-0.177639 1.41464 -1.56542e-17)
(0.0295231 0.594143 -8.10638e-18)
(-0.100538 0.814768 -1.89438e-17)
(0.342876 0.458079 -1.01895e-17)
(0.358614 0.5115 5.06451e-18)
(0.306915 0.594542 -8.16575e-18)
(0.220309 0.464308 3.20423e-18)
(0.313456 0.382502 -8.82561e-18)
(0.734412 0.274318 2.53116e-17)
(0.691495 0.302365 0)
(0.712535 0.265913 6.18296e-18)
(0.592162 0.571593 -1.26556e-17)
(0.507636 0.537426 1.63865e-17)
(0.424962 0.579322 -5.91301e-18)
(0.48877 0.485968 0)
(0.580321 0.929626 -2.5869e-17)
(0.748758 0.890841 4.64801e-17)
(0.686298 1.01436 5.31895e-17)
(0.771952 0.929019 1.40784e-17)
(0.900264 0.916661 -4.08456e-18)
(0.901875 0.983331 -5.97401e-18)
(0.778031 0.754017 7.16985e-18)
(0.837022 0.813063 9.443e-18)
(0.926078 0.853699 0)
(0.92808 0.736299 2.69352e-17)
(0.940228 0.318468 5.03593e-17)
(1.05723 0.31207 -2.1668e-17)
(0.992295 0.301069 -5.17957e-17)
(0.898614 0.394977 4.95135e-17)
(0.987569 0.454948 0)
(1.03065 0.420015 0)
(0.78981 0.40266 5.062e-17)
(0.791207 0.289141 0)
(0.782312 0.283495 -1.5853e-17)
(0.867191 0.309498 6.89273e-17)
(0.820901 0.504682 -9.23241e-17)
(0.754568 0.553393 -1.87675e-18)
(0.787299 0.512596 9.44986e-18)
(0.70622 0.47053 -2.88211e-18)
(0.690551 0.491019 -6.82656e-18)
(0.64675 0.475253 -5.44515e-20)
(1.01735 0.00796469 -4.9965e-17)
(1.0162 -0.00438768 0)
(1.02349 0.00124911 9.36296e-18)
(1.00808 0.00991323 -1.11621e-17)
(1.02286 0.00675706 -2.56777e-17)
(1.0138 0.0138158 6.0715e-18)
(1.00874 0.00952048 0)
(1.00969 0.00207751 1.38169e-17)
(1.01662 0.00825993 -2.47138e-18)
(1.00943 0.00824605 -2.50669e-18)
(1.0113 0.0046883 8.22969e-18)
(-0.000682766 1.82525 0)
(0.0154653 1.8312 0)
(0.0132274 1.82239 0)
(0.00346 1.82625 0)
(-0.0514785 1.81149 -7.83352e-18)
(-0.0608026 1.79792 -1.08306e-16)
(-0.0906433 1.82268 -3.24396e-17)
(-0.104107 1.81613 -8.74595e-17)
(-0.0107086 1.80616 5.88817e-17)
(-0.00473252 1.82139 6.10893e-17)
(-0.0365327 1.82478 1.21326e-16)
(-0.0178495 1.8324 5.90427e-17)
(-0.00415585 1.82862 1.03789e-17)
(0.00184122 1.84097 1.64535e-18)
(-0.0373013 1.73212 -6.87069e-17)
(-0.014823 1.76346 0)
(-0.0580405 1.79993 -4.17419e-17)
(-0.0889356 1.82331 -5.69158e-18)
(-0.0119671 1.87862 -1.7708e-17)
(0.0371125 1.81394 0)
(0.0282964 1.83736 5.6786e-17)
(0.0347628 1.89194 4.82017e-17)
(-0.0196009 1.84353 -6.17859e-17)
(-0.0318481 1.82681 -8.39142e-17)
(-0.0188711 1.77554 0)
(0.0188175 1.74355 3.41072e-17)
(0.017226 1.71026 -2.04778e-17)
(0.0220686 1.73524 0)
(0.0268139 1.72153 2.12527e-17)
(-0.000273829 1.72983 1.69413e-17)
(0.00480571 1.79431 9.48999e-18)
(-0.00686794 1.783 -9.94194e-17)
(-0.016563 1.78176 -6.73497e-17)
(-0.0143338 1.78172 4.64082e-17)
(0.0107893 1.7821 0)
(0.012291 1.78762 0)
(0.00116325 1.78399 -3.99638e-17)
(-0.00164326 1.76805 -3.55474e-18)
(-0.000108187 1.77996 0)
(-0.0101504 1.79533 3.31827e-17)
(-0.0024921 1.79 1.6197e-18)
(1.01621 0.0327785 0)
(1.02253 0.0272969 4.87284e-19)
(1.00458 0.019682 4.65023e-17)
(1.01479 0.0145808 0)
(1.01287 0.00844415 0)
(1.01424 0.00220589 2.1617e-17)
(1.01142 0.0105044 -5.77907e-17)
(1.00534 0.00666023 -2.06582e-17)
(1.00093 0.00580996 0)
(1.00571 0.0094165 0)
(1.00339 0.0138664 2.80195e-17)
(1.00025 0.015791 0)
(1.00455 0.0137889 0)
(-0.00426833 1.7733 0)
(0.00281435 1.77255 -4.17893e-17)
(0.00482895 1.7619 4.29902e-17)
(0.00120633 1.76414 0)
(0.0110139 1.77715 -3.97215e-17)
(0.000231119 1.7684 -1.90198e-17)
(-0.00514422 1.76362 0)
(0.338978 2.0487 0)
(0.0170161 1.75151 2.69542e-17)
(0.0867014 1.98055 0)
(0.249206 1.46354 7.90949e-17)
(0.390899 1.34383 0)
(0.306634 1.45146 3.61764e-17)
(0.86726 2.21424 -2.34324e-19)
(0.773049 2.02102 -2.40286e-17)
(0.709423 1.84523 -2.43475e-17)
(0.668676 1.92503 -8.74753e-18)
(0.713204 2.12214 0)
(0.768097 2.09372 0)
(0.711107 1.9705 0)
(0.713618 1.916 -1.40978e-18)
(0.411571 2.22114 -3.74864e-17)
(0.610212 2.15535 4.26416e-18)
(0.611852 2.18339 2.28259e-18)
(0.465616 1.82285 0)
(0.576956 1.88678 0)
(0.552492 1.80555 1.32439e-18)
(0.529262 2.11689 0)
(0.640518 1.2634 0)
(0.558213 1.15949 -6.17723e-17)
(0.551532 1.14727 -5.89555e-18)
(0.606912 1.26051 0)
(0.561508 1.24071 -7.57747e-17)
(0.730071 1.0451 -9.34871e-18)
(0.786488 1.18079 0)
(0.79366 1.09318 -3.1237e-17)
(0.677009 1.21922 0)
(0.614136 1.14868 0)
(0.944846 2.19859 1.52516e-17)
(0.927611 2.26371 -9.19149e-18)
(0.813207 1.96543 -4.16081e-17)
(0.83027 1.96805 -2.55519e-18)
(0.930647 2.18767 0)
(0.900071 2.1832 -5.48792e-18)
(0.891497 2.03364 -4.13192e-18)
(0.823079 1.83274 -7.72765e-18)
(0.717163 1.55847 0)
(0.673559 1.31901 3.21151e-17)
(0.685205 1.33292 0)
(0.815449 0.209038 0)
(0.783377 0.189615 0)
(0.764286 0.20103 0)
(0.805264 0.241335 -5.73944e-18)
(0.756903 0.224286 4.0036e-18)
(0.923922 0.07443 1.47102e-17)
(0.915608 0.115616 0)
(0.882047 0.0936725 -1.31528e-18)
(0.859132 0.0727251 -6.98334e-18)
(0.871335 0.0540977 -3.79597e-18)
(1.03915 2.75774 -1.67746e-17)
(0.981583 2.66574 0)
(0.93877 2.83772 -5.60582e-17)
(0.584996 3.04098 -2.87186e-17)
(0.729986 2.56814 1.37071e-17)
(0.463849 1.16947 -2.73777e-17)
(0.503702 1.11037 0)
(0.239176 0.82704 7.23603e-18)
(0.260763 0.932701 3.93446e-17)
(0.185746 0.795219 1.05242e-17)
(0.256707 0.6351 4.69852e-18)
(0.478627 0.625635 -1.02605e-17)
(0.50643 0.682151 0)
(0.459941 0.776188 0)
(0.342884 0.730167 0)
(0.900528 0.681223 9.87276e-18)
(0.829266 0.604502 9.45602e-18)
(0.846701 0.640347 -4.62763e-18)
(0.86132 0.528826 2.21537e-17)
(0.972738 0.556243 0)
(0.961706 0.61673 -1.02802e-17)
(0.75544 0.421977 1.27916e-17)
(0.762553 0.370318 2.8663e-17)
(0.702786 0.414953 -5.96559e-18)
(0.710965 0.380213 4.09411e-18)
(0.768729 0.329599 -7.56531e-18)
(0.751374 0.313101 -1.8519e-17)
(1.02657 0.00530528 -3.6799e-17)
(1.0243 0.00352614 -3.90267e-17)
(1.02483 0.0117918 3.45478e-17)
(1.02411 0.00960496 5.40196e-17)
(1.01375 0.0235855 0)
(0.998837 0.0156096 -9.89672e-18)
(-0.0185019 1.77776 2.63212e-17)
(-0.0193979 1.79675 0)
(-0.0704011 1.79985 -4.82638e-17)
(-0.0814893 1.80623 -5.6248e-17)
(-0.0970509 1.81292 -3.71138e-17)
(-0.0715656 1.82 0)
(0.0347006 1.7862 0)
(0.0170183 1.77715 -1.92791e-17)
(0.00390196 1.75936 -2.00708e-17)
(-0.00017621 1.76858 -4.95941e-17)
(-0.00750805 1.77215 -9.87091e-18)
(0.0277652 1.77385 -4.40054e-18)
(0.69216 1.59317 -1.09155e-16)
(0.596381 1.68477 -1.3218e-16)
(0.393638 1.49023 7.80535e-17)
(0.437932 1.74258 -5.06675e-18)
(0.70346 1.3428 0)
(0.532496 1.36108 7.79415e-17)
(0.604699 1.3567 6.63278e-17)
(0.484203 1.25996 6.59788e-17)
(0.669045 1.32436 0)
(0.708948 1.31297 0)
(0.350085 2.21634 -4.92273e-17)
(0.381269 2.04589 -6.85871e-17)
(0.448759 2.09019 -5.38809e-17)
(0.328257 2.02811 -2.03931e-18)
(0.202563 2.17979 1.51548e-18)
(0.225162 2.01906 -1.80501e-17)
(0.776043 1.96563 -9.36497e-18)
(0.827499 1.95893 0)
(0.739625 1.80274 5.74969e-18)
(0.884621 2.16655 0)
(0.86432 2.17968 0)
(0.556166 2.02873 -1.25521e-18)
(0.921215 2.50578 -1.92675e-18)
(0.793144 2.49683 -2.39683e-18)
(0.176294 1.23383 0)
(0.199425 1.18197 -1.42929e-17)
(0.435705 1.09217 -3.47253e-17)
(0.378656 1.96623 0)
(0.384547 2.35306 5.79692e-18)
(0.200811 2.30876 0)
(0.611553 0.841412 -1.19053e-17)
(0.649304 0.84069 -5.15989e-17)
(0.65864 0.787925 -1.95499e-17)
(0.489593 0.808151 -1.49559e-18)
(0.558892 0.712273 2.75319e-18)
(0.821458 2.30675 -1.1246e-17)
(0.892985 2.28963 -6.42856e-18)
(0.62677 1.97009 7.38708e-18)
(0.615109 1.71017 3.09285e-17)
(0.656892 1.74073 4.12033e-17)
(0.827284 2.07448 -2.92385e-17)
(0.847 2.06919 -2.08092e-17)
(0.664203 1.7236 5.79193e-19)
(0.523532 1.45096 3.18077e-17)
)
;

boundaryField
{
    wall-4
    {
        type            calculated;
        value           uniform (0 0 0);
    }
    velocity-inlet-5
    {
        type            calculated;
        value           uniform (1 0 0);
    }
    velocity-inlet-6
    {
        type            calculated;
        value           uniform (0 3 0);
    }
    pressure-outlet-7
    {
        type            calculated;
        value           nonuniform List<vector> 8((-0.0122685 1.70584 0) (-0.00843368 1.66725 5.73127e-17) (0.00187501 1.76576 0) (-0.00712391 1.78823 0) (0.00493132 1.75734 0) (0.00104453 1.77734 0) (-0.00189252 1.76268 0) (0.00462318 1.76818 0));
    }
    wall-8
    {
        type            calculated;
        value           uniform (0 0 0);
    }
    frontAndBackPlanes
    {
        type            empty;
    }
}

