/*--------------------------------*- C++ -*----------------------------------*\
  =========                 |
  \\      /  F ield         | OpenFOAM: The Open Source CFD Toolbox
   \\    /   O peration     | Website:  https://openfoam.org
    \\  /    A nd           | Version:  6
     \\/     M anipulation  |
\*---------------------------------------------------------------------------*/
FoamFile
{
    version     2.0;
    format      ascii;
    class       volScalarField;
    location    "./ITHACAoutput/Offline/1";
    object      p;
}
// * * * * * * * * * * * * * * * * * * * * * * * * * * * * * * * * * * * * * //

dimensions      [0 2 -2 0 0 0 0];

internalField   nonuniform List<scalar> 
13046
(
0.277426
0.676831
0.308608
0.427482
0.275086
0.597451
0.429144
0.613202
0.244461
0.680679
0.0420882
0.0562515
0.283981
0.670966
0.205295
0.39768
0.0983261
0.21822
0.292015
0.480468
0.560355
0.464519
0.0867761
0.187132
0.357753
0.640905
0.332978
0.259454
0.678154
0.227094
0.222573
0.688365
0.290189
0.376257
0.368748
0.589707
0.409782
0.375711
0.562487
0.092454
0.403322
0.707869
0.46474
0.423102
0.485249
0.49301
0.356974
0.505934
0.30993
0.664352
0.284226
0.432458
-0.0645282
0.682926
0.471626
0.693441
-0.0725721
0.583986
0.00249465
0.201119
0.446702
0.568224
0.0613494
0.0612475
0.356752
0.431881
-0.0654083
0.62631
0.222649
-0.0780739
0.655532
0.23449
0.535837
0.0167517
0.186561
0.265371
0.47885
0.593525
0.158152
0.128684
0.461037
0.366924
0.638422
0.300944
0.0584812
0.296988
0.470792
0.595309
0.00163524
0.33248
-0.0861054
0.760051
0.245544
0.272374
0.324755
0.606527
0.555119
0.116854
0.103823
-0.0155427
0.610007
0.347869
0.495508
0.329253
0.526455
0.0267417
0.638556
0.509294
0.0118119
0.457772
0.695124
0.95272
0.0597744
-0.222532
0.297766
0.681014
0.218692
0.224371
0.219232
0.559977
0.124861
0.605779
0.134389
0.728125
-0.0277066
0.062602
0.247428
0.636953
0.169715
0.0996208
0.368992
0.712998
-0.0945355
0.715666
0.310408
0.411689
0.47841
0.0589216
0.206899
0.703092
0.261569
0.5017
0.615521
0.125278
-0.00657998
0.467411
0.689882
0.058956
0.642752
0.535721
0.44527
0.546818
0.0593933
0.157669
0.553467
0.545346
0.483233
0.654223
0.484735
0.634977
-0.0670665
-0.0604941
0.558085
0.549909
0.0721221
0.713333
0.032241
0.0587814
0.852975
0.0636893
-0.155155
0.406232
0.438883
0.069842
-0.00432326
0.724169
0.337659
0.568275
0.0726187
0.540666
0.0183466
0.113543
0.737671
0.0166195
0.716572
0.350533
0.122383
0.562186
0.525757
0.495595
0.616865
0.142434
0.639467
0.173269
0.253309
0.662513
0.171092
0.584421
0.0237175
0.282631
-0.0572851
0.65959
0.351192
0.722716
0.255404
-0.0557893
0.405243
0.704743
-0.139928
0.411175
0.0650334
0.172841
0.473914
0.194727
0.754124
-0.0403756
0.441354
0.338974
0.558614
0.217826
0.70222
0.246717
-0.0780565
0.68616
0.347174
0.414371
0.631277
0.170653
0.0289815
-0.070001
0.861628
-0.136927
0.697627
0.410828
0.660734
0.317554
-0.0450608
0.587536
0.51219
0.00534166
0.22282
0.650806
0.185435
0.402048
0.688009
-0.127541
0.648286
0.462874
-0.089802
0.0191893
-0.0942071
0.934818
-0.0120538
0.41268
0.719939
0.868701
0.0810777
-0.272304
0.283147
0.537797
0.51971
0.537166
0.558859
0.56391
0.542594
0.0418192
0.038648
0.142709
0.169416
0.408255
0.171335
0.69607
0.200901
0.642806
0.435025
-0.0901986
0.316081
0.517778
0.0930277
0.431685
0.484531
0.439501
0.594903
0.506764
-0.031546
0.130782
0.686482
0.208086
0.34579
0.337798
-0.0436809
0.395193
0.70678
0.579871
0.501573
-0.0251269
0.371289
0.0797022
0.473501
0.0430478
0.438042
0.665162
-0.102681
0.663009
0.450022
0.124008
0.62061
0.161065
-0.0746657
0.414387
0.687149
0.145765
0.1946
0.583371
0.15109
0.544557
0.140925
0.027103
0.171298
0.662673
0.193581
0.637594
0.160777
-0.399681
0.0543575
1.15192
0.575957
0.184751
0.508046
0.430945
0.592747
0.0897353
0.0352599
0.517339
0.348686
0.458084
0.707383
-0.0980123
0.373695
0.697577
-0.111767
0.643645
0.191934
0.373244
0.618769
0.113853
0.61153
0.17299
0.33629
0.101834
0.286811
0.402501
0.713961
-0.165771
0.381039
0.601298
0.0934302
0.527331
0.573708
0.103791
0.651216
0.471702
-0.00286359
0.338451
0.641348
0.277914
-0.111637
0.682317
0.44901
0.63075
0.279536
-0.00235422
0.391971
0.683129
-0.0854057
-0.0885624
0.276187
0.696943
0.125101
0.100784
0.567101
0.518322
0.145017
0.159161
0.0663664
-0.356125
1.05524
0.796553
0.0823584
-0.219595
0.55302
0.569172
0.0221088
0.0302889
0.597024
0.231675
0.0192045
0.0426346
0.664819
0.636775
0.223154
0.198143
-0.0533135
0.0995191
0.849612
0.897466
0.0894367
-0.347131
0.555154
0.338296
0.448078
0.964337
-0.280559
0.0742443
0.0146644
0.724954
0.292084
0.731565
0.133203
0.00382202
-0.39564
0.0459298
1.33059
0.120952
0.427406
0.6799
0.52238
0.571577
0.254837
0.694956
0.0673518
-0.0251611
0.528985
0.55849
0.217285
0.52819
0.369697
0.454884
-0.162705
0.705685
0.423669
0.595716
0.494626
0.220822
0.593655
0.484483
0.184891
-0.112826
0.717524
0.297671
0.0751975
0.0623863
0.156834
0.133068
0.545002
0.600872
0.696283
0.233179
-0.010334
0.274951
-0.106783
0.677596
0.0139344
0.384062
0.720641
0.66839
0.43508
-0.128366
-0.247565
0.00456007
1.2083
-0.072536
0.770984
0.216776
0.824109
0.0549899
-0.0929614
0.055081
-0.444568
1.39346
-0.499426
0.0683054
1.28376
0.520242
0.539121
0.000219773
-0.0420186
-0.0393791
1.00218
0.469024
0.449141
0.0428082
0.441288
0.108221
0.0752615
0.368487
0.213641
0.673945
0.146712
-0.0602187
0.81376
0.661513
-0.136279
0.437973
0.431879
0.633926
-0.067781
0.0702891
-0.654954
1.68226
-0.36351
0.0483133
1.20249
0.376532
0.238871
0.649365
0.097155
0.830555
-0.0290073
-0.0563058
0.909265
0.0519339
0.550287
0.0443556
0.246623
0.122537
0.384929
0.24576
-0.161894
0.719322
0.320094
0.593238
0.0503992
0.188461
0.127475
0.256062
0.277195
0.102973
0.101836
0.71267
0.70473
0.262266
0.234064
0.0724728
0.725814
0.289123
-0.0357837
0.665778
0.240156
0.422132
0.641531
-0.0735921
0.186626
0.750625
-0.0211145
-0.0480165
0.620958
0.407833
-0.475071
0.0690368
1.18968
0.166188
0.211504
0.365589
0.685805
0.355586
0.684103
-0.041383
-0.0261578
0.29402
0.705253
0.262903
0.72996
-0.364511
0.0165619
1.3406
0.132666
0.770395
-0.0253202
-0.0619892
0.363794
0.717493
0.424396
0.667129
-0.124673
0.131594
0.428121
0.197048
-0.226986
1.04621
0.0398327
-0.174046
1.02317
0.0265139
0.0834578
0.639326
0.192052
0.0617102
0.44666
0.648173
0.584006
0.048545
0.179638
0.478605
0.57273
-0.0119487
0.0795572
0.412061
0.377475
-0.0469308
0.318422
0.7369
0.604962
0.504507
-0.00252481
0.0545301
0.409094
0.69982
0.0383746
0.138797
0.650585
0.275715
0.515662
0.109615
0.160671
0.409588
0.671141
0.304504
0.123181
0.202319
0.174322
0.712353
0.295621
0.511062
0.568847
0.157292
0.475746
0.603072
-0.0417765
0.650686
0.0994982
-0.11954
0.574035
0.104437
-0.0742102
0.0918679
0.405579
0.346341
0.64667
0.506123
-0.0383095
0.102954
-0.211562
0.717329
0.0304104
0.388378
0.505328
0.040431
-0.4886
1.52182
1.34314
-0.566665
0.0790656
0.117911
0.304355
0.275232
0.0251064
0.0115918
0.801103
0.467174
0.436611
0.0748762
0.22281
0.07578
0.288959
0.54387
0.392031
0.0149115
-0.139032
0.418916
0.694536
0.278722
0.334913
0.65418
0.574959
0.408526
-0.0113577
-0.0223285
0.581659
0.424439
0.197655
0.138446
0.333504
-0.0571081
0.687451
0.261076
0.00488207
0.720044
0.269347
0.479102
0.525108
0.0467638
0.517468
0.496036
0.0219086
0.189574
0.413732
0.647567
0.074632
0.697564
0.242887
-0.0871475
0.159692
0.823287
1.06329
0.00238765
-0.166936
1.13426
0.00130014
-0.183111
0.0715861
0.349911
0.720808
-0.284184
0.0352073
1.14748
0.289321
0.102893
0.460374
0.0226247
-0.287103
1.22073
0.45506
0.278673
0.574717
0.312189
0.655798
0.149819
0.478964
0.652635
-0.0467909
-0.0453825
0.00523315
0.935353
0.458247
0.59346
-0.0339115
0.111537
0.379896
0.159952
0.324306
0.628524
0.140594
0.303326
0.348428
0.632574
0.0206955
0.887968
-0.0190456
0.0548895
0.374682
0.454745
0.71559
0.785728
0.0757304
0.0730335
-0.0894411
-0.152356
0.509441
0.577428
0.0795793
0.536441
0.534799
0.00246534
0.453862
0.594161
0.21511
-0.0933826
1.00187
-0.0916602
-0.00725047
1.03869
-0.0233166
0.366041
0.555771
0.0940968
0.880426
0.93244
-0.00375347
-0.0575163
-3.24225e-05
0.00233974
0.570306
0.530118
0.0117408
0.427149
0.637782
0.131944
0.518706
0.102172
0.023407
0.459174
0.582607
0.0916421
0.442969
0.613322
0.17168
0.654602
0.0934396
-0.0804544
0.273813
0.626146
0.125804
0.438302
0.698599
-0.155755
-0.0858055
0.726758
0.316506
0.334318
-0.125489
0.727517
0.0658381
-0.608233
1.57952
0.402957
0.621544
0.110783
0.509007
0.0860168
0.110495
0.362142
0.718785
-0.167511
1.08459
0.0924542
-0.458593
0.111946
0.0687287
0.49724
0.598173
0.499546
0.64148
0.498557
0.564789
0.202159
0.113418
0.139173
0.449701
0.669657
0.486434
0.635051
0.388748
0.608021
0.147211
0.457804
0.600461
0.131607
-0.0249599
-0.147348
1.11058
0.0866151
0.724245
0.305073
0.804885
0.0386108
0.0155567
0.451948
0.478268
0.513564
0.47377
0.0453495
0.032815
0.144258
0.723281
0.31638
0.0265716
0.682988
0.224761
0.428492
0.55673
0.0844651
0.337941
0.582108
0.400522
0.530512
0.452412
0.00778753
0.239015
0.358778
0.664392
0.522718
0.551331
0.0402665
0.0649443
0.693339
0.218636
0.301286
0.267615
0.610277
0.404128
0.615448
0.424137
0.1864
0.441579
0.172745
0.634992
0.493456
0.634697
0.150335
0.163828
0.706475
0.708701
0.260927
0.223972
0.110645
0.397163
0.270673
-0.145752
0.697322
0.440158
0.103121
0.0906071
0.334492
0.342533
0.330742
0.366761
-0.102846
0.415874
0.713972
0.411576
0.411699
0.533386
0.516152
0.433656
0.0187947
0.137367
0.338837
0.703684
0.0892876
0.672971
0.202097
0.178425
0.201801
0.47963
0.137015
0.496516
0.126706
0.393548
0.527649
0.0687608
1.00765
-0.389107
0.0888513
0.375583
0.712706
-0.151474
-0.150763
-0.111662
0.340388
0.725915
0.359007
0.732136
0.615959
0.424356
-0.0526985
0.0135362
0.705952
0.248826
-0.107407
0.374329
0.711381
-0.049122
-0.0278043
0.356234
0.349416
0.722217
0.727188
-0.0813533
0.351881
0.735805
0.423244
0.527662
0.0670123
0.235179
0.395425
0.650489
0.612015
0.0712997
0.0288055
-0.124655
0.366481
0.718037
0.12001
0.150485
0.670486
0.635716
0.184218
0.172925
0.0804121
0.0945416
0.55357
0.532243
0.0927649
0.042108
0.592978
0.0863837
-0.00776306
0.254019
0.115266
0.453027
0.0475176
0.708893
0.26053
-0.131934
0.0216042
0.294771
-0.131416
0.266526
-0.276881
0.192941
0.0317579
-0.327761
0.25764
0.254244
-0.37327
-0.161441
0.257883
0.0880714
-0.208909
-0.0683601
-0.0262457
0.038984
0.229515
0.1457
-0.0547375
0.26136
0.1239
0.279862
0.0283395
0.280583
-0.346782
0.159086
-0.160227
-0.327375
0.197679
0.0845144
0.146363
-0.259411
0.125477
0.257756
0.263227
-0.0719729
0.103384
-0.113373
0.0998841
-0.214811
0.256705
0.281833
-0.0126863
0.00290002
-0.178019
-0.359118
-0.216266
0.265944
0.171444
-0.209825
-0.0892346
-0.335479
0.259254
0.22587
0.100897
-0.220738
0.244077
-0.225611
-0.196297
0.275628
0.0603004
0.111037
0.227867
0.14975
0.270288
0.263857
0.230385
-0.436912
-0.362787
-0.133042
0.24918
-0.379689
0.152017
-0.0180987
-0.269609
0.215314
0.271643
-0.0337708
0.107007
-0.342415
-0.252471
0.00957759
0.230785
0.0172831
-0.0813465
0.0766247
0.295831
-0.216852
0.255602
0.292245
0.155531
-0.179565
-0.366161
-0.270712
-0.169735
-0.179072
-0.434161
0.164956
0.259016
0.300938
0.285817
-0.231085
-0.0921833
-0.347674
-0.205702
-0.268972
0.256402
0.256998
0.243371
-0.286191
-0.361416
0.133629
0.259475
0.0370744
-0.0820431
-0.461873
-0.0352827
0.116394
0.32357
0.283219
0.247239
0.0645025
-0.127031
-0.382108
0.253279
-0.14349
0.250687
-0.453999
0.28877
-0.344602
-0.0611906
-0.141617
0.266512
0.141874
-0.480522
-0.238985
0.20386
-0.202015
0.239663
0.11629
-0.203886
0.274038
-0.107024
-0.253297
0.264579
-0.21711
0.0192176
-0.366708
0.0576364
-0.0777236
0.277645
0.254097
0.0113336
0.245845
0.237063
0.286017
-0.00327487
-0.138665
-0.21633
0.207029
-0.138294
0.138781
-0.338025
0.127962
-0.0326462
0.280534
0.225601
0.139686
0.246931
0.279915
0.277248
-0.28912
-0.46023
-0.379533
0.292122
-0.292618
-0.318934
-0.133688
-0.315549
0.00276345
-0.0960079
0.130813
0.23235
0.250846
-0.0975709
0.233001
-0.138431
0.109029
-0.109329
0.267127
-0.202573
-0.491731
0.225592
0.191026
-0.216188
-0.166545
0.139091
0.168513
-0.0111362
-0.25229
0.24399
0.273731
0.174559
-0.225172
-0.218443
0.23052
0.0294804
-0.276111
0.259709
-0.118916
-0.306761
-0.122977
0.358277
-0.452392
0.0288011
0.255056
-0.000853185
-0.46059
-0.0119977
-0.214815
-0.115958
0.196062
0.216292
-0.2372
-0.328971
-0.149685
0.231967
0.203081
0.0904947
0.230214
-0.076572
-0.297024
0.192097
-0.10808
-0.468782
0.247993
0.264622
0.173964
0.323511
0.295034
0.0910223
-0.192508
-0.505091
0.0446425
0.00444332
-0.128598
-0.445758
0.166055
0.242884
0.236234
0.192974
-0.233781
0.0730472
0.237885
0.141054
0.127199
-0.211415
0.0145681
-0.102668
-0.126534
-0.254121
-0.202553
-0.208218
-0.296792
0.219759
0.0542092
0.0350555
0.22894
-0.157878
0.0287179
-0.219326
0.000792411
-0.00409744
-0.155689
0.176753
-0.420883
-0.485697
0.00302694
-0.380136
-0.415946
0.197187
-0.144193
-0.420225
0.284567
0.234902
-0.250275
0.268438
-0.323013
0.200242
0.276271
-0.0720566
-0.184312
0.25042
0.0922439
0.202879
-0.278257
-0.247135
0.287549
-0.119459
-0.142834
-0.519973
-0.402761
-0.457955
-0.385463
-0.0943566
0.211156
-0.293217
-0.462165
-0.250212
-0.14992
0.105774
-0.0788564
0.232367
0.0993129
-0.108177
-0.111942
-0.250641
-0.341507
0.204104
-0.0843634
0.231179
0.16613
-0.229245
-0.0817297
0.172844
0.131476
0.200613
0.254871
0.249194
-0.115654
0.152471
0.0272573
-0.263387
-0.411415
-0.153005
-0.0776226
0.149468
-0.226675
-0.366155
-0.195891
-0.067161
-0.19824
-0.0915786
0.279066
-0.129414
-0.199958
0.293613
0.2705
-0.263558
0.111636
0.266878
-0.0199886
-0.149236
-0.089558
-0.280256
-0.34723
0.289315
-0.261339
-0.0894223
0.301911
-0.441572
0.0856676
-0.245005
0.147207
-0.0781555
-0.181376
-0.342872
-0.0724732
-0.37569
0.0307864
-0.0168601
0.00874491
0.185834
0.252687
-0.185552
0.0377044
-0.0628765
-0.0975985
-0.478291
0.272113
0.106806
0.0337366
-0.378448
0.0873249
-0.371076
-0.116697
-0.207858
-0.277195
0.325816
0.292702
-0.128467
0.187476
0.237954
0.270047
0.263583
0.277173
-0.0471982
-0.17294
-0.34302
0.127924
0.243867
0.282233
-0.188802
-0.00326894
-0.481543
0.203554
-0.114853
-0.0759527
0.277823
0.133286
-0.140982
-0.0715763
-0.252639
-0.200184
-0.242227
-0.0730691
0.0251153
-0.288005
-0.149176
-0.39569
-0.110367
-0.294174
0.134955
0.151864
-0.453549
0.264371
0.244911
0.248996
-0.166041
0.101423
-0.118691
0.263227
0.156492
-0.347155
0.269453
-0.209551
0.229208
-0.423649
0.00557117
-0.0456846
0.248845
0.227933
-0.181662
0.192643
-0.155775
0.280411
0.00441186
0.176764
-0.166011
-0.153473
-0.173006
0.283199
-0.0565776
0.14239
0.236346
-0.40991
-0.0883549
0.204835
-0.194414
-0.152703
-0.00201441
-0.308114
0.258684
-0.108011
-0.137516
0.252695
-0.180001
0.230904
0.172865
0.031021
0.149678
0.279219
0.270038
0.289978
0.162178
-0.352242
-0.2225
-0.0577344
0.269643
-0.0953109
-0.196097
0.193789
-0.288762
0.0888949
-0.237343
0.263517
0.120415
-0.297373
0.274164
0.0847246
0.255528
-0.0523705
0.253025
0.0864096
0.215954
0.148708
0.205472
-0.234399
0.228718
-0.145463
0.144805
0.0556499
-0.0801473
0.101093
-0.0826681
-0.213557
-0.335686
-0.0528605
0.130104
0.0323116
0.289938
-0.258989
-0.103686
0.108069
-0.335691
0.252346
-0.16315
0.085515
0.309658
0.28208
0.0552103
0.186394
-0.205513
-0.0166716
0.255253
0.0162307
0.105726
0.0123165
-0.168682
0.219193
0.239402
-0.166999
-0.237565
0.0761016
-0.41623
-0.296127
0.272084
0.279264
0.154111
0.0590222
0.217646
0.13035
0.250878
-0.49976
0.148027
0.121086
0.182974
-0.121091
-0.166405
-0.374761
-0.238803
-0.227886
0.220372
0.0934031
0.107786
0.255904
0.210432
-0.124119
0.0734229
0.126139
0.282318
0.255293
0.159592
0.000341893
0.191175
0.18452
-0.111057
-0.0399291
-0.345235
-0.243626
-0.00374785
0.0626277
-0.17682
0.299475
0.247612
-0.475433
0.272479
-0.229588
-0.209159
-0.143715
0.294624
-0.0534197
0.176136
0.0636164
0.259282
-0.0691836
0.0546234
0.181027
-0.498862
-0.405838
-0.22193
-0.286993
-0.499049
-0.393895
-0.280115
-0.517866
0.0682563
-0.482184
-0.340501
0.0523078
-0.0102271
-0.268787
-0.161597
-0.389843
-0.363278
0.284699
0.323782
-0.00812722
-0.366608
0.345669
0.00749269
-0.165311
0.162653
-0.273819
0.183317
-0.0840825
0.2625
0.0635551
-0.166481
-0.341932
0.0207494
0.0303925
0.075101
-0.164926
-0.0577492
-0.349843
-0.291475
-0.14276
-0.464964
-0.366647
0.22403
-0.16618
0.240735
0.254528
-0.122661
0.363042
0.260223
-0.369121
-0.391429
-0.00542981
-0.414149
-0.490727
0.244604
0.245889
-0.0125567
0.166797
-0.124685
0.188306
0.286329
0.0535806
-0.145981
0.193944
0.271964
0.176771
0.142788
-0.0695944
0.167384
0.0253473
-0.480665
0.254704
0.271501
0.251945
0.0571181
-0.226625
-0.143661
0.246895
0.205286
-0.481041
0.0840711
-0.018244
-0.237201
0.136359
0.339299
0.22917
0.152639
0.148862
-0.0387174
0.251315
0.285656
0.334735
0.232342
0.268988
-0.140829
-0.20963
0.0581818
-0.339494
-0.153347
-0.44187
-0.0233854
0.266069
-0.411734
0.026547
-0.146504
0.352472
0.149295
0.0968544
-0.349889
-0.447777
0.337999
-0.154461
-0.250706
-0.473379
0.333155
0.141566
0.189481
-0.367477
0.159613
-0.260298
-0.23379
0.196123
0.261728
0.342928
0.118358
-0.278247
0.286919
-0.482295
0.275894
0.255077
0.244584
0.257749
-0.304435
-0.302249
0.0204649
-0.467996
0.0203604
-0.461995
0.109046
-0.360706
0.290632
-0.104166
-0.457629
0.281735
0.25175
-0.0178593
0.0134385
0.238581
0.31387
0.152448
0.0283157
-0.473928
0.272057
0.182394
0.316221
-0.501794
0.0772766
0.253081
0.248464
0.184392
0.246943
-0.0555633
-0.504354
-0.468716
0.028697
-0.456229
0.244718
-0.434248
-0.111679
-0.0372244
-0.275584
0.306851
-0.508647
0.336186
0.257096
0.172078
-0.210404
0.154831
-0.138285
-0.0678863
0.059308
-0.0400828
0.00851876
-0.00241452
0.262825
-0.288465
0.259623
-0.0456992
0.112833
0.216366
0.221821
0.264932
0.0150737
0.111889
-0.260575
-0.0484635
-0.045634
0.225567
-0.231507
0.0290951
-0.0771197
0.264098
-0.0309351
0.0538415
-0.370251
0.149422
-0.477615
-0.297459
0.00868531
0.266853
-0.450749
-0.472985
-0.324352
-0.379442
0.276644
0.00228083
0.181809
0.259282
0.151932
0.200821
0.143456
0.0898617
0.221283
0.182301
0.0327989
-0.437298
0.0433332
0.11657
-0.142414
0.0548556
-0.14834
-0.411622
0.162479
0.0435284
-0.304036
0.262956
-0.00859175
0.266739
0.0793453
0.312636
-0.059971
-0.0166861
0.164794
-0.36788
-0.252174
-0.0686301
0.0229799
0.112872
0.212246
0.288132
0.218513
0.268749
0.129389
0.285107
0.231363
0.208454
0.239667
-0.000841736
0.0823708
-0.337704
0.219337
0.282704
0.275987
0.127002
-0.289913
-0.420394
0.0889437
0.247766
-0.200166
0.270352
0.27852
0.198008
-0.206261
0.118451
-0.178288
-0.139587
0.135013
-0.16126
0.193479
-0.48317
0.179698
-0.0186065
0.0611782
-0.50064
0.0867281
0.0842904
0.195333
-0.10875
0.178444
0.256366
0.274589
0.21247
-0.0684454
0.275709
0.147217
-0.236928
-0.256729
-0.01472
-0.396981
0.298208
-0.0177112
0.163852
0.249166
0.236934
0.141751
-0.14937
0.222301
0.135788
-0.237507
0.0213595
0.132802
0.270388
0.238196
0.13825
0.151645
-0.433152
-0.287079
0.0903105
0.192403
0.0437841
0.216547
-0.194575
0.271895
0.104618
0.325735
0.280255
0.131679
-0.236439
0.011647
0.221428
0.0238783
-0.450325
0.00276002
0.231557
-0.135623
-0.00106453
0.260643
0.240347
0.276383
0.100537
-0.434233
0.199763
-0.375642
-0.118995
0.271263
0.113511
-0.33294
-0.216432
-0.147932
0.201879
-0.157352
-0.186884
0.289689
-0.231412
0.140436
0.270607
-0.363106
-0.51654
-0.0361348
0.223243
0.27478
0.114885
0.0922318
-0.129449
0.0296108
-0.0727412
0.128473
0.280148
0.250718
-0.120619
-0.404487
0.352807
0.161674
0.282435
0.273116
0.285021
0.000682727
-0.387978
-0.470328
-0.445845
0.26618
0.118651
-0.0337949
-0.107056
0.167453
-0.0727011
-0.204344
-0.396138
0.11464
-0.272068
0.356973
0.211962
0.202286
0.248636
0.28296
0.0776511
0.222472
0.00813777
0.195975
0.01743
0.169996
-0.193536
0.217957
-0.15294
-0.152051
-0.0292128
-0.0729493
0.253168
-0.076277
0.26522
0.298108
0.273545
-0.308456
0.00744382
0.0783903
-0.144752
0.232598
0.0546275
0.0634964
0.203678
-0.254857
-0.0954872
0.352597
0.231991
0.256749
-0.461254
-0.311564
-0.0226241
0.212214
-0.0084023
-0.0564775
-0.303713
-0.145885
-0.0912063
0.371139
-0.0346505
0.101197
-0.380581
0.366634
0.176741
-0.244333
0.377734
-0.110783
-0.30146
-0.296187
0.0713926
-0.45286
0.114737
-0.150891
-0.131296
-0.0654849
0.405494
0.0913109
0.275569
-0.100584
-0.311851
-0.0862403
-0.461832
-0.425929
0.0666464
-0.0111881
0.0595114
-0.301569
-0.0125337
0.289045
0.112607
-0.128446
-0.16741
0.308704
0.146001
-0.0477821
0.150514
0.0545678
-0.146522
0.032443
-0.0818461
0.198557
-0.180701
0.00875342
0.215911
-0.414588
0.314596
-0.111645
0.290223
-0.00792715
0.264748
-0.296698
0.279995
0.031154
-0.369489
-0.239116
-0.0204574
0.289975
-0.523373
-0.22593
0.0494351
0.273816
0.240633
-0.131396
-0.164507
0.108808
0.390762
-0.0786131
0.275771
0.264545
0.270187
0.247517
0.188766
0.225416
0.24565
0.237988
-0.0553261
0.0281178
-0.140033
-0.193449
-0.0562015
-0.279753
0.18681
-0.137117
0.298742
-0.0901839
0.207245
-0.187224
0.181634
0.26274
0.372642
0.211001
0.241214
0.161201
0.0149407
0.259157
-0.0113885
-0.0372208
-0.238276
-0.29117
0.260352
-0.138332
0.231928
0.214999
0.0154827
0.114361
-0.208189
0.332211
0.165678
0.242298
-0.492505
-0.251318
-0.0374137
0.408075
-0.11774
0.23403
-0.196724
-0.0465692
-0.342914
-0.0488025
-0.105054
0.270447
0.233583
-0.402104
0.224278
-0.039066
-0.172871
0.274307
-0.151504
-0.188671
0.262618
-0.439066
0.0576158
0.251645
0.226345
0.156827
-0.173658
-0.226953
-0.399724
-0.123165
-0.146171
-0.0480693
0.266379
-0.116985
-0.373427
0.0801108
0.00469685
-0.172109
-0.136169
0.0423975
0.037003
-0.359672
0.265959
0.264917
-0.118688
0.246226
-0.155604
-0.412068
-0.100247
-0.492897
0.191105
-0.0977431
-0.090571
-0.205486
0.285582
0.232887
0.174953
0.223456
-0.134719
-0.244428
0.000225627
-0.0914261
-0.230865
0.24276
0.0697657
0.222364
0.210812
0.264431
0.0141018
0.202591
-0.398764
0.179058
0.174386
0.215929
0.0366554
0.324776
-0.104718
0.225771
0.0277659
-0.173601
-0.291735
-0.213721
0.262156
0.277342
0.251303
0.0138074
0.073124
0.308664
0.279386
0.0946194
0.0637946
-0.330742
0.0558746
0.258755
-0.416184
0.283535
-0.0334071
0.289623
0.244692
0.232053
-0.0444901
0.351723
0.276006
-0.192582
0.316987
-0.0229505
0.224875
0.270433
0.0040154
-0.336456
0.0788401
0.0515401
0.0614274
-0.137419
0.337486
-0.111371
0.226073
-0.308725
-0.193195
-0.146002
-0.303573
-0.0874998
0.278045
0.204225
-0.316383
0.266713
0.0959134
0.221334
-0.0549534
0.112251
0.240775
0.271651
-0.0238901
0.248198
0.26568
0.182896
-0.319096
0.0190117
-0.170548
0.23707
0.231114
0.273691
0.00461431
0.174566
-0.0100457
-0.379164
-0.334549
-0.52217
-0.0467961
-0.339237
0.213301
0.133809
0.0773093
0.234372
0.265927
0.180227
0.188631
-0.318859
0.338434
0.0529619
0.238524
-0.129145
-0.297204
0.229765
0.12099
0.21844
0.265762
0.249059
-0.257095
-0.247818
-0.404914
0.292825
0.267336
-0.142372
0.00136796
0.270749
-0.485152
-0.161795
-0.276941
0.0616267
0.189166
0.0474794
0.170584
0.303817
0.0900118
0.105094
0.263458
-0.10849
-0.099291
0.203405
0.111294
-0.0876902
0.256085
0.273366
-0.138903
0.271684
-0.504401
-0.184084
0.280206
0.269674
-0.000306881
0.2255
-0.334635
0.260497
-0.109631
-0.0894329
0.2517
-0.118373
0.258818
0.225433
0.205568
0.1208
0.22364
-0.391579
0.203431
-0.00487589
0.268331
0.132577
0.183595
-0.0268285
-0.229158
-0.0811703
0.249136
-0.359837
0.320935
-0.237918
0.0883334
0.267102
0.263154
0.144796
0.284944
0.174078
-0.112489
-0.109024
0.107918
-0.275619
-0.353633
0.179409
0.228579
-0.259823
-0.385585
-0.100423
-0.369875
0.258527
-0.0264109
0.273174
-0.205619
0.269143
0.0826295
0.29137
0.288776
-0.213348
0.239931
-0.130745
0.137649
0.019481
0.296057
-0.183217
-0.0665084
0.0324663
-0.282847
-0.0888398
-0.321446
-0.337628
-0.499416
0.211612
0.224713
-0.280456
-0.174325
0.258547
-0.407117
-0.132322
-0.06862
0.247417
0.230817
-0.443875
-0.50112
0.268823
-0.175261
0.153211
-0.188294
-0.401954
-0.32244
0.186404
0.284222
0.123558
-0.419935
0.260072
0.276886
-0.254853
0.181577
-0.0953063
0.288769
-0.0495674
-0.0678835
-0.369954
0.246481
0.304082
0.214292
0.208868
-0.225437
-0.0383221
0.121409
0.181497
0.219828
-0.190908
0.167228
-0.21442
0.186305
0.173883
0.081494
-0.143554
0.283984
0.0702084
0.0844855
-0.21952
-0.0108931
0.00712193
-0.297663
0.187241
0.25127
-0.245536
-0.175779
0.149146
-0.120789
-0.072935
-0.453422
-0.158969
0.333871
-0.202875
0.0192485
0.212743
0.174941
-0.0129005
0.222826
0.275364
-0.0747905
-0.0673235
0.266131
-0.0124226
-0.140756
-0.0117511
0.296526
0.230337
0.197937
-0.164021
-0.241677
-0.19929
0.185029
0.266618
0.174477
-0.0239157
0.247224
-0.347164
0.0642035
0.27431
-0.397366
-0.395158
0.261716
0.265594
-0.425976
-0.180096
-0.145534
-0.0988899
-0.156168
0.228442
-0.0945028
-0.187745
0.216203
-0.226658
0.233436
0.20009
-0.367093
-0.15932
0.255529
-0.0495643
0.177722
-0.354549
-0.161405
0.144523
0.135884
0.110901
0.190104
-0.279591
0.162402
0.41784
0.150134
0.294179
-0.225936
0.290432
0.245332
0.171479
0.206999
-0.401976
-0.1663
0.148874
0.24803
-0.423367
0.038094
0.300308
0.154832
0.0796586
0.263689
-0.163491
-0.375836
-0.251148
-0.40777
0.283946
-0.211725
0.158066
0.264208
-0.237916
-0.0757648
-0.207367
0.054798
-0.172998
-0.0130189
-0.235355
-0.317645
-0.0367004
0.270209
0.217669
0.200569
-0.0976557
-0.166302
-0.444619
-0.146771
0.203915
0.221543
0.200651
0.215935
-0.160849
0.118445
0.273403
0.263817
0.148534
0.276332
0.197313
-0.0335268
-0.334219
-0.263218
-0.318922
0.178201
0.0864833
-0.208993
0.212549
-0.331856
0.280106
0.239222
-0.166693
-0.169481
-0.172034
-0.203634
0.261629
0.0491022
0.252074
0.0423469
0.22897
0.177467
0.113965
-0.27368
0.0585453
-0.0158244
-0.50988
-0.137391
0.250886
-0.144542
-0.282494
0.203167
0.340114
0.265684
-0.18838
-0.352253
-0.246884
-0.329192
-0.171351
-0.362615
0.0897824
-0.304981
0.264678
-0.295448
-0.192179
0.411795
-0.0167044
0.307066
0.270164
0.111489
0.164873
-0.251337
0.260447
0.0987131
-0.148689
-0.0658519
-0.298973
-0.374292
-0.197332
-0.0151312
0.269503
0.162243
0.260134
0.185694
0.252392
-0.420125
0.168209
0.091365
0.240114
-0.127899
0.234112
0.0309651
-0.111273
0.261266
0.298706
0.256765
0.200396
-0.0489395
0.136024
-0.127463
0.266692
0.192952
0.241882
-0.0701157
-0.424239
0.264818
0.0897871
-0.311376
0.23287
0.0589909
0.254467
-0.210656
0.268705
0.14973
0.0466119
-0.273659
0.200756
-0.351852
-0.293108
-0.119749
-0.302458
-0.171529
-0.301528
-0.354517
0.0456015
-0.172141
-0.249368
-0.127308
0.221966
-0.0257614
-0.221718
0.230293
0.154066
-0.435226
0.221895
0.290162
0.238994
-0.202559
-0.43908
0.10368
-0.363491
-0.0108633
-0.127622
-0.0238112
-0.106928
0.263325
-0.116329
-0.0667669
-0.380801
-0.397083
-0.304249
-0.121318
-0.466778
0.135223
0.183092
0.13184
0.212224
0.0926691
0.168931
-0.0898437
0.282988
0.0655547
-0.074035
0.282924
-0.118143
0.0973752
-0.345733
0.246244
0.199832
0.121004
0.127202
0.0671582
0.0639467
-0.184268
-0.24305
-0.293895
0.26607
-0.279102
-0.0456657
-0.0680065
0.0485835
-0.252303
-0.238925
-0.0126995
0.0707375
-0.178539
0.336118
0.0252364
-0.0940255
0.210406
0.28949
-0.087169
-0.391246
0.25431
-0.346044
-0.0508489
-0.158801
-0.00480999
-0.00463951
0.0690655
0.0167677
0.175304
0.261434
-0.369813
-0.171994
-0.411601
-0.149895
-0.419299
-0.290562
-0.15532
-0.278309
-0.129719
0.212406
0.194546
-0.11359
0.252427
0.0290526
0.185806
-0.118307
0.19714
0.223796
-0.350207
0.162095
0.258021
0.011838
0.291338
-0.156932
0.257497
-0.17859
-0.25
0.0949225
0.170273
0.295547
0.268748
0.180627
0.200652
-0.424145
-0.0231129
0.198123
0.117637
-0.234527
-0.0217533
-0.143806
0.0531218
0.0165074
-0.227095
-0.322924
-0.192321
-0.308297
-0.175082
0.0593861
-0.026316
0.127552
0.285037
-0.434094
0.276216
-0.268086
-0.277489
0.273923
-0.202098
-0.0486508
0.186916
-0.175701
-0.227384
0.0721832
0.280613
-0.330874
-0.212183
-0.0503544
0.219771
-0.314426
0.25913
-0.422839
-0.0889472
-0.0248475
-0.193702
0.160849
0.221932
0.273413
-0.172747
0.24101
0.195807
0.203396
-0.210053
0.151861
-0.276555
-0.324719
-0.475879
0.103038
0.11684
-0.0189781
0.300723
0.00378373
0.199522
0.141556
-0.264761
-0.295704
-0.0986739
0.102251
-0.201384
0.212453
-0.3486
-0.421227
-0.112405
-0.0541529
-0.196016
-0.112605
0.219518
-0.108218
0.125408
-0.342742
-0.152867
0.133971
-0.141207
0.182916
0.347824
-0.325632
-0.254665
0.290282
0.0438185
-0.244424
-0.347949
-0.180593
-0.325222
0.183316
0.237199
-0.24441
-0.423835
0.215521
0.0039322
-0.420936
-0.326573
-0.017267
0.256196
0.270467
-0.3403
-0.385174
0.202902
0.286953
0.0713572
0.106711
-0.0310532
-0.168312
-0.0777932
0.222815
0.11863
-0.179854
0.271456
-0.0412709
-0.435732
0.17267
-0.203048
0.265402
0.119179
-0.194641
-0.104286
-0.0778404
-0.114398
-0.344656
-0.056453
-0.335835
0.205071
0.273563
0.255979
-0.135731
-0.396913
0.266212
0.170328
-0.222164
0.166468
-0.0218435
-0.509772
0.156991
-0.0186981
-0.486628
0.0366329
0.24689
-0.376564
-0.41294
-0.302626
0.395083
-0.400114
0.259602
0.00636013
-0.213467
0.0709906
-0.262427
0.269137
-0.454425
-0.0897033
0.0172191
-0.334467
0.114332
0.212132
0.194752
0.11431
0.267287
-0.322633
-0.328917
0.286382
-0.179467
0.286727
0.196255
0.091592
0.0747547
0.258327
0.00604686
-0.411425
0.253319
-0.179752
0.0858381
0.29409
-0.214965
0.262132
-0.245468
-0.0389765
-0.195808
-0.0640016
-0.303116
0.0577161
-0.279729
-0.443673
-0.320699
-0.304881
-0.50805
0.246191
-0.309946
-0.0682046
0.130541
0.0188491
0.16202
0.162507
-0.014933
0.0959054
0.271727
-0.0151532
0.236719
-0.501921
0.039977
0.12318
-0.211853
0.265661
-0.0522852
-0.0388372
-0.19084
-0.254056
-0.127401
-0.423003
0.261218
-0.34113
0.317162
0.238612
-0.274188
-0.405099
-0.308742
0.237766
0.208393
0.221655
0.0144717
0.11248
0.0645682
0.274498
0.265651
-0.258398
0.145458
0.285981
0.0874421
0.160978
0.136522
-0.444748
-0.331341
0.311266
-0.0486792
-0.0506054
0.25672
-0.322661
-0.49705
-0.223302
-0.0534198
0.110683
0.3166
-0.240448
-0.386648
-0.224637
-0.0611245
-0.224946
0.244657
0.0554034
-0.320514
0.0173073
-0.223769
-0.23279
-0.105716
0.183156
0.130857
-0.269183
0.296615
0.0068932
0.384379
-0.269288
-0.325252
-0.128676
0.289555
0.203237
0.352553
0.164531
0.116059
0.275041
0.304124
-0.357311
0.236801
-0.310005
0.175582
0.218901
0.255492
0.144695
0.252306
0.279812
-0.172284
-0.129288