/*--------------------------------*- C++ -*----------------------------------*\
  =========                 |
  \\      /  F ield         | OpenFOAM: The Open Source CFD Toolbox
   \\    /   O peration     | Website:  https://openfoam.org
    \\  /    A nd           | Version:  6
     \\/     M anipulation  |
\*---------------------------------------------------------------------------*/
FoamFile
{
    version     2.0;
    format      ascii;
    class       volScalarField;
    location    "0";
    object      p;
}
// * * * * * * * * * * * * * * * * * * * * * * * * * * * * * * * * * * * * * //

dimensions      [0 2 -2 0 0 0 0];

internalField   nonuniform List<scalar> 
13046
(
0.395873
0.36925
0.413557
0.40175
0.412718
0.376704
0.386576
0.379628
0.41754
0.21662
0.106421
0.382962
0.390032
0.336536
0.408367
0.263359
0.381671
0.136507
0.418879
0.401934
0.390016
0.25622
0.384009
0.132725
0.398071
0.392015
0.408308
0.378463
0.338628
0.409213
0.404843
0.34942
0.406757
0.40698
0.41362
0.388515
0.405027
0.415989
0.397016
0.402446
0.398828
0.345811
0.401084
0.417087
0.405809
0.40236
0.408482
0.404305
0.386864
0.367105
0.414304
0.366896
0.402387
0.313078
0.37367
0.301352
0.405553
0.222788
0.349768
0.3853
0.341284
0.316159
0.405762
0.39023
0.200344
0.288121
0.359446
0.229447
0.381142
0.36884
0.239795
0.38184
0.203944
0.340887
0.384876
0.41863
0.411812
0.3778
0.387633
0.319446
0.196477
0.394112
0.387018
0.407866
0.387453
0.180626
0.271015
0.265759
0.393189
0.220506
0.389567
0.228474
0.219735
0.347541
0.334951
0.283023
0.272009
0.398367
0.400366
0.394862
0.26519
0.233293
0.402868
0.412113
0.398658
0.414556
0.325182
0.378629
0.401931
0.388908
0.330302
0.145026
0.378544
0.0248702
0.392426
0.350435
0.405827
0.337951
0.347123
0.251582
0.394222
0.27416
0.395265
0.202628
0.0842469
0.381586
0.37261
0.297503
0.407612
0.399929
0.399372
0.343522
0.390066
0.239438
0.243082
0.3143
0.249399
0.396811
0.39967
0.340764
0.403719
0.360309
0.370993
0.409573
0.398689
0.37715
0.332514
0.41238
0.339196
0.387307
0.339009
0.29813
0.403791
0.421941
0.363107
0.38591
0.347398
0.302016
0.33618
0.299467
0.404247
0.404175
0.360445
0.353344
0.407182
0.210166
0.383815
0.114417
0.170133
0.379466
0.0446756
0.309463
0.233948
0.395558
0.400783
0.307252
0.395709
0.362203
0.407646
0.362342
0.387214
0.14489
0.216941
0.401324
0.321538
0.390393
0.420174
0.352837
0.38055
0.36776
0.372445
0.408768
0.329306
0.412775
0.374977
0.31473
0.404887
0.260718
0.389968
0.191726
0.394103
0.260436
0.247255
0.232934
0.210802
0.388686
0.359115
0.288569
0.39513
0.377216
0.324052
0.382532
0.19607
0.186903
0.228944
0.388511
0.399036
0.416214
0.396485
0.383902
0.34395
0.406791
0.394288
0.250555
0.253635
0.369866
0.337973
0.415303
0.381774
0.0755785
0.172332
0.396107
0.288473
0.351367
0.249177
0.22985
0.392083
0.324762
0.347494
0.410043
0.366241
0.302542
0.407138
0.287114
0.259308
0.391286
0.287672
0.323336
0.398783
0.38167
0.0746553
0.156691
0.407255
0.393443
0.317908
0.166543
0.376873
-0.00763422
0.414433
0.394862
0.395002
0.335459
0.336269
0.341187
0.351881
0.412257
0.405173
0.380856
0.30887
0.177235
0.376069
0.31177
0.401788
0.286942
0.302729
0.399783
0.322871
0.250893
0.395302
0.406335
0.399085
0.416806
0.314544
0.334026
0.40548
0.378632
0.297285
0.400749
0.372539
0.371069
0.409291
0.386752
0.304645
0.313079
0.31973
0.403635
0.306385
0.393664
0.241734
0.414349
0.388774
0.333519
0.404291
0.291089
0.34022
0.352186
0.259463
0.390904
0.40335
0.371188
0.308378
0.340182
0.3352
0.248149
0.389768
0.242298
0.392829
0.386896
0.156673
0.230217
0.3535
0.286649
0.397848
-0.0405714
0.377044
0.106867
0.383374
0.411504
0.37983
0.351916
0.326906
0.406379
0.392458
0.275738
0.212363
0.367517
0.289281
0.403328
0.271531
0.257638
0.392515
0.360043
0.411223
0.344258
0.317597
0.405512
0.351897
0.41394
0.281169
0.383225
0.155905
0.366384
0.273619
0.396995
0.335561
0.307164
0.401835
0.353709
0.362886
0.412909
0.328518
0.368671
0.408626
0.397949
0.368508
0.413542
0.39786
0.294591
0.346588
0.248135
0.198271
0.389924
0.276832
0.25666
0.395214
0.372597
0.378958
0.263362
0.329898
0.338035
0.231868
0.2145
0.383152
0.386314
0.377248
-0.026026
0.125808
0.180011
0.37731
0.00606227
0.328901
0.332341
0.401237
0.388158
0.254955
0.172239
0.361572
0.358759
0.262971
0.251804
0.391257
0.388607
0.384016
0.159945
0.192564
0.154709
0.375862
-0.0293857
0.387958
0.415308
0.409302
0.145823
-4.43268e-05
0.378101
0.395998
0.306026
0.392238
0.221644
0.155463
0.387649
-0.0217497
0.37845
0.0585844
0.405584
0.396998
0.356739
0.385193
0.402164
0.413466
0.208313
0.381678
0.0762796
0.378599
0.394691
0.413275
0.393605
0.414654
0.411341
0.401387
0.274112
0.352671
0.372994
0.4079
0.414266
0.38635
0.381594
0.410656
0.37946
0.270131
0.377659
0.383968
0.385899
0.132051
0.130195
0.241423
0.236133
0.228723
0.18773
0.388401
0.385015
0.371139
0.243791
0.400059
0.387304
0.328759
0.279554
0.317586
0.393239
0.0375954
0.378797
0.0888515
0.389226
0.224112
0.205285
0.179394
0.380785
0.065889
0.37886
-0.0406511
0.0547375
-0.0734811
0.377962
0.0856765
0.301721
0.309834
0.398884
0.113399
0.381321
0.148097
0.299933
0.247788
0.396792
0.246954
0.376644
0.0882446
0.384337
0.409259
0.370304
0.176484
0.386122
0.205713
0.283735
0.394292
0.325186
0.296396
0.287648
0.401335
0.379855
-0.128023
0.00658149
-0.0145277
0.377538
0.0883562
0.391365
0.413916
0.370968
0.151525
0.190263
0.384974
0.384013
0.172149
0.147999
0.254789
0.38716
0.171889
0.383489
0.1847
0.298549
0.387819
0.262713
0.379458
0.234367
0.349139
0.390904
0.38163
0.288568
0.142095
0.38814
0.383167
0.316235
0.303498
0.399321
0.401825
0.392328
0.319503
0.39775
0.370447
0.25399
0.392492
0.285975
0.271109
0.396528
0.179307
0.227514
0.389629
0.394818
0.274829
0.265568
-0.0720681
0.377607
0.104121
0.409596
0.405172
0.407114
0.352839
0.41098
0.359819
0.385425
0.379309
0.389625
0.272071
0.390947
0.294767
-0.0120736
0.378108
0.0612185
0.159832
0.202892
0.386323
0.396069
0.3761
0.305775
0.300782
0.267364
0.394463
0.383827
0.193066
0.308435
0.0304157
0.129123
0.379721
0.0532265
0.136739
0.380279
0.360166
0.263034
0.395456
0.416191
0.383592
0.34391
0.245533
0.385581
0.148738
0.294
0.296401
0.401566
0.393435
0.214795
0.30105
0.383662
0.391056
0.297046
0.329903
0.354202
0.406944
0.405189
0.394498
0.337057
0.385368
0.141182
0.229846
0.324501
0.241885
0.393362
0.40978
0.40196
0.359703
0.273065
0.378541
0.121282
0.389774
0.343054
0.406058
0.374125
0.37183
0.416284
0.306978
0.29835
0.400319
0.205597
0.377035
0.0381865
0.218587
0.37663
0.0470744
0.391624
0.206345
0.30183
0.314718
0.359574
0.402399
0.375006
0.0105779
0.184793
0.394097
0.228157
0.288228
0.378405
-0.0591276
0.034607
0.068907
-0.0922303
0.376803
0.384254
0.155167
0.290755
0.383671
0.10504
0.193639
0.263567
0.273738
0.383533
0.147145
0.386186
0.170347
0.278582
0.237572
0.394673
0.399805
0.312245
0.260944
0.41068
0.408927
0.366839
0.286062
0.256817
0.397542
0.398188
0.290669
0.267335
0.300374
0.381358
0.151224
0.38159
0.259663
0.389635
0.388604
0.296882
0.388178
0.315213
0.295071
0.403186
0.308691
0.28925
0.402126
0.411956
0.395996
0.370989
0.382509
0.292635
0.403979
0.38668
0.184786
0.199968
0.125278
0.380456
0.0594073
0.107997
0.380358
0.060747
0.399242
0.399279
0.331782
0.013933
0.379087
0.104701
0.31525
0.39192
0.218468
0.378533
0.019866
0.0835175
0.401818
0.414333
0.384627
0.366707
0.326294
0.406633
0.362205
0.316999
0.404469
0.382759
0.125675
0.165854
0.291185
0.298499
0.400533
0.378614
0.261718
0.113237
0.353203
0.3172
0.407447
0.41291
0.412381
0.372124
0.125382
0.178674
0.383936
0.393229
0.213898
0.28833
0.199041
0.183915
0.378768
0.378329
0.0528615
0.0346234
0.347244
0.348374
0.411184
0.311873
0.318803
0.399702
0.378712
0.377606
0.418542
0.0860264
0.142893
0.0919605
0.38149
0.140423
0.380975
0.33474
0.280633
0.403455
0.178169
0.161095
0.112715
0.0945546
0.383854
0.382344
0.316629
0.326158
0.408674
0.363693
0.34238
0.408752
0.233866
0.378473
0.0775258
0.35987
0.334414
0.409481
0.378385
0.360792
0.412928
0.205282
0.377167
0.0563353
0.359415
0.293262
0.400665
0.337575
0.269077
0.395679
0.388188
0.280795
0.386935
0.256641
0.389324
0.238502
0.378754
-0.105665
0.026728
0.350903
0.328155
0.407047
0.244446
0.380664
0.109172
0.373507
0.267006
0.392139
0.108097
0.375168
-0.0549891
0.414507
0.40872
0.382581
0.356692
0.383324
0.348976
0.381921
0.37803
0.41627
0.406601
0.413518
0.3916
0.359051
0.401546
0.354553
0.358746
0.350171
0.414954
0.364619
0.353195
0.414169
0.380107
0.0738022
0.115406
0.396462
0.330315
0.395808
0.195277
0.120982
0.384559
0.313888
0.304378
0.279744
0.261631
0.399373
0.396563
0.39163
0.348356
0.4011
0.369565
0.275619
0.390536
0.333057
0.300739
0.405708
0.410379
0.389253
0.406606
0.298297
0.266624
0.398656
0.406915
0.40201
0.371419
0.329073
0.321123
0.40769
0.367704
0.289312
0.391383
0.409344
0.4106
0.381039
0.412376
0.381494
0.407961
0.411207
0.390802
0.415932
0.374235
0.4084
0.360859
0.388886
0.385819
0.326411
0.323616
0.403968
0.400505
0.385565
0.191149
0.304097
0.39557
0.280843
0.34522
0.387319
0.388278
0.17598
0.184248
0.290012
0.286833
0.399533
0.375946
0.295271
0.409275
0.410844
0.398199
0.297118
0.25324
0.397391
0.406416
0.402723
0.342923
0.363535
0.283494
0.392487
0.32549
0.326744
0.209701
0.389411
0.220175
0.390408
0.322569
0.27148
0.39884
0.125366
-0.0340356
0.375891
0.369008
0.278578
0.392853
0.387758
0.390298
0.376199
0.272765
0.385099
0.282783
0.282607
0.278059
0.397469
0.372648
0.285875
0.392862
0.400536
0.374337
0.291313
0.387929
0.394698
0.381497
0.395722
0.307008
0.301407
0.387005
0.387677
0.289774
0.323541
0.282079
0.401789
0.409614
0.402398
0.375365
0.222279
0.380522
0.0893985
0.398526
0.377172
0.281246
0.368734
0.359019
0.285011
0.276383
0.393075
0.398011
0.381237
0.109142
0.236706
0.235079
0.379899
0.0874342
0.221107
0.378987
0.07643
0.315804
0.389691
0.210656
0.377147
0.299267
0.395457
0.163258
0.210892
0.332653
0.167565
0.291785
0.0559339
0.250611
0.196541
0.130271
0.281785
0.278833
0.111801
0.160935
0.28204
0.189329
0.161846
0.173159
0.188147
0.206061
0.253151
0.20907
0.183458
0.291447
0.375263
0.341728
0.216384
0.302581
0.114883
0.226078
0.152636
0.12351
0.245043
0.210852
0.197259
0.137878
0.221165
0.326446
0.289586
0.180687
0.239475
0.174509
0.376374
0.151068
0.280119
0.31198
0.173371
0.17972
0.162184
0.114742
0.151527
0.34412
0.2078
0.16446
0.178313
0.123509
0.338821
0.256134
0.214254
0.163606
0.274682
0.149288
0.155265
0.342384
0.207056
0.213887
0.258016
0.220988
0.368483
0.290696
0.290257
0.101438
0.125398
0.180415
0.265731
0.116309
0.194814
0.215844
0.132642
0.268347
0.310078
0.188471
0.204816
0.118081
0.153554
0.166838
0.275625
0.167006
0.167429
0.187857
0.346755
0.161361
0.273751
0.340978
0.198454
0.161099
0.00433194
0.144292
0.165159
0.160801
0.0975061
0.245025
0.29509
0.320382
0.371533
0.15585
0.159555
0.113231
0.171359
0.146364
0.324725
0.299336
0.250162
0.13888
0.124232
0.245115
0.300031
0.183229
0.167694
0.0949647
0.18314
0.195927
0.354451
0.364245
0.268627
0.219873
0.186265
0.115644
0.358306
0.136854
0.263014
0.0970836
0.341862
0.120649
0.1161
0.152111
0.3089
0.187567
0.0694436
0.150648
0.250068
0.156619
0.277235
0.249349
0.16531
0.310623
0.179577
0.14643
0.317644
0.150587
0.189117
0.112552
0.227944
0.178832
0.314723
0.272776
0.177126
0.26661
0.27844
0.330312
0.217174
0.178578
0.163267
0.283759
0.137794
0.236661
0.117641
0.371093
0.185268
0.317433
0.35631
0.214855
0.362064
0.3187
0.328346
0.135423
0.0917305
0.11384
0.33292
0.134922
0.123996
0.132607
0.126081
0.187225
0.177663
0.220024
0.356821
0.270602
0.172693
0.275113
0.170975
0.37354
0.0993654
0.30541
0.167304
0.088415
0.345101
0.359053
0.162671
0.164936
0.370222
0.227766
0.176711
0.145001
0.266478
0.323237
0.270454
0.151184
0.164071
0.291516
0.221652
0.147971
0.241502
0.127454
0.129629
0.18619
0.30061
0.0984868
0.189366
0.295841
0.164823
0.0946177
0.181817
0.167192
0.181648
0.239104
0.245299
0.152233
0.121053
0.145129
0.255404
0.265084
0.165995
0.244804
0.181064
0.136725
0.228483
0.174424
0.0800169
0.269799
0.316317
0.216724
0.347461
0.325599
0.37552
0.161838
0.0680105
0.190253
0.178143
0.181025
0.105077
0.233832
0.340746
0.266908
0.224881
0.146154
0.174107
0.28039
0.208812
0.259607
0.151728
0.196127
0.17129
0.119202
0.15184
0.165747
0.160377
0.139983
0.247215
0.219831
0.177514
0.253171
0.171148
0.185056
0.152921
0.180824
0.154871
0.170045
0.223695
0.100671
0.0568616
0.200141
0.107973
0.0882961
0.22315
0.103764
0.0918539
0.314375
0.248164
0.151473
0.274883
0.128083
0.243595
0.241901
0.128836
0.166052
0.298873
0.190294
0.280118
0.0496931
0.143344
0.317321
0.168661
0.151342
0.0448642
0.0987165
0.0859268
0.102831
0.17529
0.253939
0.134542
0.0875241
0.143123
0.166943
0.374
0.154812
0.266235
0.238154
0.113095
0.194948
0.149375
0.119088
0.240122
0.182382
0.341133
0.263945
0.149205
0.175639
0.209944
0.375646
0.277652
0.32712
0.272156
0.176751
0.218454
0.185103
0.138432
0.103308
0.164165
0.180179
0.260532
0.158867
0.109493
0.165397
0.186901
0.161514
0.174651
0.303479
0.178256
0.169969
0.336071
0.310508
0.152321
0.2251
0.324904
0.125717
0.098925
0.178264
0.135031
0.119973
0.32129
0.148664
0.192604
0.330395
0.0930738
0.222499
0.160308
0.216784
0.179188
0.159719
0.00808199
0.192746
0.112648
0.139309
0.175247
0.171939
0.275634
0.341327
0.159779
0.223291
0.190737
0.148006
0.076783
0.298554
0.247791
0.143065
0.111651
0.233868
0.11002
0.167378
0.153202
0.145473
0.290973
0.33962
0.17316
0.272708
0.371497
0.30231
0.305674
0.331338
0.176183
0.168834
0.121932
0.372537
0.298776
0.317065
0.158991
0.165654
0.0932633
0.280001
0.184063
0.150729
0.318172
0.25596
0.142261
0.190736
0.157507
0.164261
0.15766
0.17495
0.179368
0.132285
0.17562
0.102616
0.194454
0.133036
0.256163
0.208516
0.0991079
0.324906
0.335514
0.2707
0.174157
0.225949
0.101467
0.278549
0.207588
0.105194
0.322501
0.0745981
0.342857
0.11324
0.187824
0.202906
0.267776
0.289707
0.161637
0.35544
0.163071
0.305723
0.189391
0.25511
0.170474
0.156103
0.162072
0.310638
0.201077
0.370371
0.256927
0.100982
0.157525
0.246238
0.0878514
0.174988
0.19044
0.134688
0.346872
0.138543
0.127243
0.287596
0.163683
0.341053
0.364797
0.166859
0.371537
0.351854
0.305701
0.31966
0.231209
0.113504
0.148914
0.181473
0.297054
0.183984
0.0762131
0.354244
0.134041
0.175006
0.144578
0.329456
0.372499
0.145921
0.302481
0.239654
0.341389
0.194124
0.276637
0.163625
0.356347
0.367935
0.262142
0.149147
0.292594
0.179153
0.221573
0.209761
0.196124
0.23933
0.169297
0.0794596
0.12223
0.201535
0.249372
0.225027
0.318913
0.141912
0.179808
0.25412
0.125966
0.333935
0.154222
0.163076
0.331495
0.311051
0.231271
0.359638
0.152309
0.167083
0.280216
0.214436
0.206873
0.185302
0.162857
0.245549
0.263228
0.162948
0.157084
0.228013
0.100651
0.130654
0.341864
0.369252
0.369807
0.194786
0.376291
0.371496
0.349913
0.0781542
0.240243
0.237337
0.359112
0.177447
0.160041
0.116405
0.147961
0.0629875
0.35388
0.187131
0.192956
0.279232
0.261203
0.171747
0.164349
0.371188
0.3559
0.325019
0.264611
0.150563
0.272396
0.251395
0.174278
0.201817
0.125529
0.147399
0.219921
0.199439
0.170948
0.342075
0.341334
0.0787673
0.308277
0.163072
0.152714
0.185746
0.338836
0.186459
0.264113
0.187831
0.32647
0.175283
0.191052
0.367859
0.0973419
0.097428
0.15385
0.13732
0.0618243
-0.00774291
0.145251
0.0710215
0.20453
0.0798075
0.133285
0.198661
0.137681
0.145151
0.17546
0.122414
0.0049276
0.352468
0.309123
0.175176
0.110856
0.313522
0.154545
0.159987
0.365863
0.151747
0.365427
0.190265
0.314359
0.194892
0.113157
0.127782
0.223922
0.224165
0.205058
0.113069
0.179495
0.137349
0.139465
0.167466
0.100653
0.123331
0.351325
0.150308
0.261372
0.284836
0.178994
0.291403
0.286716
0.11542
-0.00303493
0.18963
0.10502
0.065398
0.268225
0.271138
0.174651
0.247687
0.17152
0.368301
0.349845
0.181585
0.166638
0.357676
0.320158
0.241459
0.242803
0.172518
0.371073
0.220719
0.0782731
0.330109
0.302482
0.342687
0.223522
0.151372
0.182513
0.272605
0.242066
-0.0412827
0.377123
0.188837
0.150834
0.206763
0.320923
0.367781
0.36691
0.247808
0.208565
0.29082
0.321263
0.333584
0.265387
0.29919
0.124691
0.158985
0.235398
0.12214
0.124269
0.0971106
0.187599
0.28647
0.105185
0.215842
0.162625
0.301239
0.36715
0.184344
0.112846
0.0884891
0.276953
0.165321
0.145308
0.0993113
0.337631
0.226374
0.231077
0.10376
0.235932
0.14888
0.157908
0.276557
0.283257
0.340512
0.372399
0.145883
0.324333
0.0814998
0.332217
0.339117
0.341974
0.292302
0.133992
0.133919
0.174089
0.0751739
0.217623
0.097118
0.241429
0.108272
0.316543
0.177336
0.0843818
0.311073
0.284654
0.194645
0.199406
0.259661
0.338037
0.227273
0.20782
0.0837038
0.302357
0.219443
0.354959
0.0669485
0.199439
0.330956
0.272395
0.360433
0.278093
0.180314
0.0489628
0.0841206
0.197171
0.109149
0.352758
0.0738715
0.173112
0.195274
0.151813
0.296329
0.0714464
0.333253
0.272145
0.233951
0.083858
0.256973
0.15329
0.185291
0.190603
0.196394
0.163715
0.149153
0.289202
0.133925
0.374769
0.164885
0.201772
0.255279
0.278714
0.352654
0.162974
0.167257
0.144553
0.207167
0.156302
0.34708
0.14564
0.212616
0.172526
0.30462
0.135095
0.221555
0.121106
0.367843
0.0746575
0.132055
0.166757
0.310082
0.0875194
0.104825
0.130159
0.112211
0.340215
0.208942
0.267685
0.31456
0.258215
0.212382
0.368156
0.213617
0.283285
0.251958
0.223643
0.0964461
0.230217
0.184554
0.170932
0.232517
0.136916
0.100902
0.209843
0.177392
0.137014
0.300026
0.209024
0.264115
0.184467
0.349831
0.195576
0.194426
0.253433
0.107069
0.141238
0.171761
0.223515
0.229795
0.240892
0.337182
0.276958
0.294185
0.217891
0.32468
0.354807
0.35126
0.222641
0.216604
0.238918
0.11471
0.363209
0.318545
0.305155
0.198543
0.130246
0.0951273
0.238561
0.272986
0.150897
0.304805
0.318651
0.243245
0.162464
0.2243
0.172375
0.152875
0.198248
0.163504
0.230378
0.0983544
0.234604
0.204575
0.182439
0.0722328
0.230483
0.213829
0.262142
0.173542
0.225836
0.335986
0.346178
0.228066
0.191654
0.294769
0.212831
0.142706
0.145815
0.186592
0.109119
0.336222
0.205306
0.219073
0.273231
0.266756
0.254315
0.133982
0.372897
0.257431
0.152759
0.206119
0.205189
0.294537
0.332577
0.259252
0.239071
0.085991
0.136141
0.179898
0.240559
0.213162
0.226871
0.161404
0.343592
0.246377
0.293772
0.322054
0.223993
0.155268
0.223339
0.36232
0.138004
0.082695
0.22309
0.368288
0.166246
0.18445
0.289365
0.273747
0.308293
0.199611
0.0891485
0.238195
0.117297
0.169673
0.30762
0.18995
0.118875
0.14813
0.165705
0.246275
0.176949
0.168388
0.327415
0.155584
0.368921
0.305695
0.110216
0.060634
0.209071
0.281378
0.320377
0.19448
0.179838
0.152016
0.175378
0.198849
0.372071
0.331031
0.278569
0.181407
0.0930393
0.338911
0.373465
0.34237
0.295798
0.329494
0.220634
0.125946
0.0715604
0.0827899
0.352161
0.210167
0.136785
0.185341
0.37226
0.172235
0.161678
0.105531
0.196724
0.143944
0.37123
0.237159
0.27886
0.32836
0.318306
0.170483
0.249067
0.216986
0.272249
0.130202
0.245828
0.160131
0.346771
0.118005
0.170502
0.131287
0.18172
0.334831
0.180784
0.305537
0.323692
0.330091
0.124107
0.214247
0.18058
0.158214
0.342017
0.223935
0.227594
0.234476
0.0619957
0.186661
0.344383
0.252895
0.344829
0.0770165
0.134272
0.171006
0.350804
0.149138
0.201722
0.138426
0.134442
0.183431
0.350277
0.193437
0.182546
0.105327
0.369184
0.362877
0.0621397
0.341992
0.176956
0.125452
0.134849
0.207288
0.11382
0.252653
0.182708
0.169925
0.184316
0.326232
0.198015
0.305437
0.191219
0.125299
0.185275
0.0762773
0.0952984
0.189792
0.177169
0.23446
0.135813
0.197001
0.321954
0.246279
0.170569
0.109119
0.330231
0.192061
0.201382
0.379504
0.231388
0.168338
0.163806
0.134134
0.355614
0.174479
0.19813
0.245012
0.112745
0.333661
0.121431
0.324981
0.212818
0.284944
0.140975
0.298646
0.191546
0.114178
0.141675
0.213399
0.334681
0.0573844
0.158535
0.151515
0.354058
0.373015
0.147266
0.162658
0.250151
0.356264
0.196014
0.33928
0.317824
0.303692
0.28727
0.22428
0.265272
0.25666
0.343503
0.202739
0.221941
0.148778
0.165368
0.204393
0.138049
0.356644
0.131796
0.337494
0.201104
0.350982
0.165501
0.361036
0.282262
0.322984
0.352159
0.336304
0.378246
0.17818
0.324232
0.211536
0.173229
0.161556
0.134826
0.344662
0.132742
0.23271
0.245827
0.186761
0.247903
0.158321
0.34379
0.206055
0.294119
0.0738655
0.14966
0.17868
0.372065
0.152231
0.257397
0.169826
0.179669
0.118843
0.188263
0.177887
0.29868
0.347796
0.103617
0.228093
0.173414
0.169028
0.310304
0.151025
0.163416
0.35816
0.0826057
0.228337
0.27354
0.334275
0.365884
0.167234
0.156307
0.114859
0.177274
0.157574
0.172757
0.29014
0.171572
0.122867
0.1832
0.215129
0.173811
0.163426
0.151623
0.212861
0.111525
0.292229
0.283684
0.172019
0.29363
0.118173
0.107193
0.147072
0.0948045
0.359054
0.178923
0.173073
0.160896
0.318724
0.342394
0.219772
0.29106
0.162449
0.153414
0.218606
0.175243
0.156855
0.343642
0.237376
0.264314
0.362122
0.29875
0.208431
0.352734
0.0987764
0.222398
0.218299
0.242496
0.18312
0.349994
0.168563
0.236633
0.204049
0.17361
0.140104
0.15988
0.282117
0.311977
0.326543
0.22072
0.229707
0.351788
0.301836
0.189312
0.233542
0.124217
0.173372
0.303745
0.104375
0.321878
0.168367
0.329993
0.375241
0.346092
0.159648
0.323382
0.31925
0.102987
0.351369
0.15811
0.349495
0.300135
0.171171
0.13953
0.239713
0.177924
0.176429
0.158493
0.30394
0.173118
0.354965
0.129985
0.168448
0.156267
0.128804
0.173023
0.31245
0.368162
0.126689
0.293202
0.212344
0.236836
0.195346
0.248907
0.338353
0.302844
0.167791
0.332498
0.308923
0.365502
0.13034
0.139755
0.1615
0.290062
0.359534
0.314354
0.198492
0.361477
0.209758
0.101193
0.137535
0.0575538
0.207755
0.116135
0.365686
0.369532
0.227936
0.379258
0.304544
0.213393
0.35826
0.11969
0.348751
0.171148
0.342786
0.181133
0.134431
0.287011
0.227715
0.349891
0.338133
0.341598
0.143769
0.141279
0.0873663
0.323867
0.302026
0.148867
0.219944
0.303708
0.0827086
0.161474
0.143353
0.161254
0.238873
0.160105
0.21824
0.28415
0.215832
0.226917
0.283988
0.175817
0.186375
0.236831
0.217706
0.177919
0.325621
0.350499
0.148157
0.299444
0.0792654
0.157842
0.331216
0.294696
0.155394
0.345513
0.120853
0.283337
0.194393
0.196673
0.330047
0.182914
0.291756
0.289959
0.267092
0.373742
0.27003
0.114088
0.25143
0.202341
0.291845
0.370737
0.265646
0.210583
0.156542
0.197878
0.331362
0.131717
0.316802
0.148392
0.242452
0.299315
0.285153
0.205211
0.3283
0.361186
0.184245
0.176599
0.224644
0.142596
0.119901
0.220191
0.289392
0.1495
0.110348
0.151277
0.105676
0.279609
0.20808
0.294196
0.166481
0.342581
0.218014
0.319618
0.366309
0.152547
0.336866
0.186124
0.224729
0.220384
0.326038
0.160877
0.191896
0.223821
0.135412
0.178402
0.136126
0.115934
0.0789951
0.361393
0.37155
0.150355
0.164055
0.288662
0.0966859
0.148804
0.173058
0.272808
0.282439
0.0936652
0.0786043
0.338305
0.165936
0.243733
0.164158
0.109198
0.136887
0.233586
0.319433
0.244716
0.104839
0.344093
0.318414
0.1472
0.239669
0.169732
0.365697
0.178977
0.198152
0.119316
0.259542
0.350289
0.245318
0.230028
0.155814
0.208039
0.248561
0.359077
0.379218
0.160639
0.362891
0.161189
0.226618
0.229899
0.189441
0.170748
0.325591
0.181681
0.233003
0.144264
0.128578
0.191723
0.137399
0.27019
0.343318
0.144069
0.160751
0.225437
0.172009
0.157128
0.0704014
0.177462
0.326633
0.0924218
0.146752
0.285213
0.222974
0.20091
0.257128
0.313604
0.134811
0.14115
0.313765
0.193616
0.142418
0.21382
0.324751
0.259765
0.226027
0.161841
0.162049
0.156527
0.359808
0.314051
0.36908
0.19751
0.269111
0.127753
0.212856
0.320942
0.101318
0.109975
0.283564
0.316268
0.101686
0.169423
0.16085
0.134307
0.160197
0.378065
0.200938
0.167024
0.229072
0.156688
0.28739
0.237891
0.125075
0.172292
0.300437
0.20724
0.361631
0.115359
0.162909
0.261601
0.248091
0.186722
0.243376
0.136395
0.365157
0.344672
0.263387
0.328778
0.146627
0.32504
0.253284
0.259545
0.352842
0.0966406
0.172451
0.368391
0.255239
0.0928082
0.144274
0.313317
0.366424
0.20943
0.289772
0.159905
0.11562
0.145666
0.0834387
0.320028
0.157072
0.210019
0.354737
0.15345
0.138416
0.156117
0.227657
0.167434
0.157818
0.15879
0.127976
0.206536
0.300926
0.351475
0.280398
0.178247
0.171832
0.086622
0.165695
0.25248
0.231995
0.271303
0.286722
0.172014
0.19658
0.311072
0.318575
0.36777
0.331237
0.355362
0.208035
0.118974
0.145159
0.12832
0.359685
0.225281
0.160176
0.351528
0.125228
0.305665
0.283815
0.172808
0.165204
0.173679
0.161377
0.316921
0.175221
0.272938
0.207297
0.349727
0.236937
0.373122
0.144228
0.206484
0.144289
0.0739435
0.177234
0.297556
0.136181
0.0508399
0.224372
0.346018
0.292886
0.157744
0.11644
0.14894
0.126899
0.16699
0.133052
0.188369
0.131779
0.284819
0.14996
0.166974
0.336331
0.212216
0.259908
0.310029
0.176115
0.207707
0.139913
0.299614
0.164674
0.17779
0.201609
0.138865
0.113491
0.163715
0.15238
0.292774
0.369093
0.324108
0.231052
0.278155
0.105663
0.36278
0.242404
0.290004
0.163667
0.281963
0.148882
0.179061
0.304278
0.34932
0.29577
0.230152
0.18133
0.372254
0.187412
0.308692
0.35777
0.266173
0.190621
0.101688
0.308094
0.238592
0.132
0.257111
0.233903
0.347234
0.154149
0.3554
0.36855
0.188166
0.146014
0.35667
0.11911
0.13413
0.179595
0.13101
0.179215
0.140278
0.11735
0.205593
0.168121
0.146707
0.168291
0.231672
0.139015
0.1508
0.251582
0.210896
0.118699
0.343201
0.370388
0.359846
0.16377
0.109918
0.374752
0.112216
0.203175
0.153776
0.169675
0.161963
0.283345
0.173823
0.167079
0.107282
0.10005
0.13312
0.17762
0.104459
0.202779
0.223804
0.193539
0.349935
0.229502
0.26781
0.192944
0.315013
0.154471
0.175657
0.381558
0.181128
0.232713
0.116852
0.267667
0.370819
0.165327
0.252441
0.236705
0.136707
0.158849
0.151204
0.132287
0.286458
0.136004
0.195198
0.167281
0.188351
0.150933
0.152276
0.202643
0.168814
0.169843
0.368861
0.201958
0.192794
0.224563
0.347696
0.178616
0.101836
0.303141
0.119329
0.185791
0.162375
0.211466
0.153207
0.181959
0.211483
0.36615
0.321442
0.103983
0.168096
0.102507
0.15699
0.0899251
0.13591
0.182279
0.143477
0.182339
0.253569
0.378407
0.174753
0.280746
0.21968
0.35937
0.172512
0.371347
0.245217
0.127693
0.253469
0.28796
0.165848
0.320452
0.162847
0.327521
0.159698
0.0532095
0.198979
0.376797
0.36733
0.284945
0.259106
0.278001
0.111558
0.149973
0.278843
0.372497
0.0688755
0.211757
0.163324
0.155319
0.194139
0.148357
0.124519
0.157641
0.135858
0.167784
0.165514
0.19677
0.372737
0.316947
0.0915286
0.301482
0.143418
0.15144
0.306504
0.162459
0.184664
0.270188
0.0841144
0.14644
0.208731
0.323071
0.129048
0.153116
0.182883
0.249941
0.127287
0.34837
0.104176
0.174989
0.1814
0.155866
0.260874
0.252792
0.349391
0.15919
0.295142
0.221325
0.247511
0.16027
0.260983
0.141516
0.119295
0.0820637
0.24183
0.193297
0.181527
0.3345
0.210077
0.232685
0.260351
0.150508
0.136054
0.175978
0.243853
0.167407
0.377031
0.119188
0.103915
0.176768
0.16771
0.166398
0.158506
0.283088
0.177409
0.200205
0.131075
0.165286
0.194159
0.125495
0.373307
0.361077
0.134485
0.149594
0.319913
0.223933
0.155456
0.115156
0.151678
0.133859
0.221174
0.340477
0.156528
0.112592
0.252509
0.204236
0.104781
0.130905
0.204366
0.275585
0.377587
0.124816
0.0974047
0.233
0.319802
0.175113
0.231906
0.17776
0.162697
0.177106
0.248655
0.188707
0.163157
0.299344
0.180386
0.0786525
0.219044
0.166052
0.305331
0.373
0.170174
0.172568
0.170021
0.173868
0.125558
0.17632
0.135692
0.35241
0.309619
0.273277
0.181451
0.11308
0.296184
0.36286
0.150932
0.215858
0.158758
0.0800601
0.204377
0.168769
0.0754002
0.15246
0.258509
0.12884
0.105345
0.13173
0.309152
0.12242
0.303077
0.204494
0.157019
0.163741
0.146243
0.304988
0.0882925
0.179157
0.184947
0.119434
0.231837
0.279232
0.23295
0.194577
0.288849
0.130272
0.133186
0.338371
0.159675
0.334511
0.235126
0.170899
0.237981
0.3243
0.204249
0.100813
0.348263
0.155186
0.179922
0.325069
0.149754
0.356322
0.156004
0.18225
0.0965296
0.186412
0.133884
0.208835
0.132732
0.0815687
0.130062
0.126715
0.0842179
0.340886
0.127306
0.181005
0.235384
0.208713
0.364349
0.36665
0.153612
0.2098
0.309055
0.14434
0.341194
0.0930698
0.168089
0.223513
0.152425
0.311393
0.162509
0.169348
0.174317
0.158301
0.158762
0.0800674
0.327099
0.00824682
0.353557
0.276962
0.132304
0.104223
0.137285
0.379112
0.282317
0.256204
0.200921
0.234208
0.184182
0.325463
0.297053
0.147807
0.250277
0.357164
0.187145
0.213196
0.258653
0.0982401
0.131669
0.308193
0.178652
0.198987
0.356937
0.123908
0.0949992
0.162815
0.197461
0.183342
0.367727
0.153199
0.114614
0.149353
0.196682
0.154427
0.333464
0.207476
0.142843
0.154323
0.151159
0.150649
0.174808
0.249141
0.219506
0.142846
0.332203
0.167978
0.313387
0.143423
0.124655
0.185782
0.328493
0.361845
0.305415
0.196454
0.188376
0.303949
0.363161
0.121872
0.342467
0.132811
0.265315
0.245696
0.331867
0.197848
0.322615
0.3461
0.167727
0.16767
0.181915
0.215065
0.137074
0.133839
0.132329
0.281389
0.31182
0.118885
0.347685
0.201931
0.290744
0.196965
0.135696
0.309558
0.297256
0.165388
0.173468
0.133484
0.367649
0.282255
0.3739
0.115691
0.135942
0.187247
0.315962
0.254661
0.334848
0.229677
0.364926
0.157598
0.191108
0.212821
0.163896
0.233584
0.112361
0.303733
0.203652
0.221746
0.343261
0.110028
0.120795
0.0941427
0.24556
0.328681
0.173284
0.26147
0.118613
0.112409
0.200579
0.164952
0.157127
0.33103
0.219459
0.147331
0.188197
0.243192
0.351504
0.247324
0.17474
0.32696
0.218402
0.356443
0.203688
0.270665
0.172582
0.116771
0.375422
0.139703
0.23621
0.227624
0.339811
0.267477
0.192885
0.16642
0.371973
0.192519
0.143628
0.286079
0.363861
0.280749
0.254573
0.111518
0.077404
0.210865
0.145386
0.179197
0.212689
0.142151
0.350036
0.366935
0.345471
0.169439
0.174019
0.157334
0.175383
0.271296
0.121861
0.26861
0.351395
0.127617
0.167571
0.158846
0.314404
0.255811
0.173003
0.146588
0.277269
0.155667
0.109844
0.127657
0.377983
0.0855514
0.301226
0.254693
0.161214
0.354122
0.220026
0.378384
0.0782378
0.170128
0.225914
0.345407
0.177262
0.341494
0.220244
0.0845309
0.188351
0.1606
0.178811
0.0784446
0.301518
0.167459
0.146407
0.0977639
0.1931
0.332737
0.0502215
0.171935
0.327533
0.193102
0.323061
0.0892322
0.157337
0.158301
0.180641
0.137518
0.113128
0.154985
0.05518
0.173023
0.170718
0.29284
0.23129
0.329711
0.148787
0.177605
0.114616
0.222511
0.0588876
0.181663
0.373912
0.201604
0.169602
0.381266
0.144143
0.228093
0.254393
0.115355
0.165799
0.202112
0.239951
0.352127
0.362863
0.364155
0.244804
0.198583
0.168984
0.136074
0.321694
0.269883
0.157848
0.173727
0.171044
0.197986
0.378685
0.184572
0.376359
0.149299
0.26069
0.137385
0.155841