/*--------------------------------*- C++ -*----------------------------------*\
  =========                 |
  \\      /  F ield         | OpenFOAM: The Open Source CFD Toolbox
   \\    /   O peration     | Website:  https://openfoam.org
    \\  /    A nd           | Version:  6
     \\/     M anipulation  |
\*---------------------------------------------------------------------------*/
FoamFile
{
    version     2.0;
    format      ascii;
    class       volScalarField;
    location    "0";
    object      p;
}
// * * * * * * * * * * * * * * * * * * * * * * * * * * * * * * * * * * * * * //

dimensions      [0 2 -2 0 0 0 0];

internalField   nonuniform List<scalar> 
11644
(
0.106098
0.107059
0.108889
0.111591
0.115184
0.119676
0.125065
0.131341
0.138472
0.146402
0.155037
0.164238
0.173807
0.183483
0.192935
0.201776
0.209578
0.21591
0.220383
0.2227
0.2227
0.220384
0.215911
0.209579
0.201777
0.192936
0.183484
0.173808
0.164239
0.155038
0.146403
0.138473
0.131342
0.125066
0.119676
0.115185
0.111592
0.10889
0.10706
0.106099
0.104918
0.105829
0.107624
0.110306
0.113888
0.11838
0.123788
0.130108
0.137322
0.145386
0.154223
0.163707
0.173653
0.183801
0.19381
0.203262
0.211682
0.218571
0.22347
0.226018
0.226018
0.22347
0.218572
0.211682
0.203263
0.193811
0.183802
0.173654
0.163708
0.154224
0.145387
0.137323
0.130109
0.123789
0.118381
0.113888
0.110306
0.107625
0.10583
0.104918
0.102133
0.103013
0.104771
0.10742
0.110978
0.115465
0.120901
0.127304
0.134682
0.143023
0.152287
0.162384
0.173159
0.184364
0.195641
0.206509
0.216382
0.224602
0.230527
0.233637
0.233637
0.230528
0.224602
0.216383
0.20651
0.195642
0.184365
0.17316
0.162385
0.152287
0.143024
0.134683
0.127305
0.120902
0.115465
0.110979
0.107421
0.104772
0.103014
0.102134
0.0976328
0.098483
0.100194
0.102785
0.106287
0.110736
0.116179
0.122664
0.130241
0.138954
0.148824
0.159836
0.1719
0.184812
0.198205
0.211514
0.223965
0.23461
0.242449
0.246619
0.246619
0.24245
0.23461
0.223966
0.211514
0.198206
0.184813
0.171901
0.159837
0.148825
0.138955
0.130242
0.122665
0.11618
0.110737
0.106287
0.102786
0.100194
0.0984837
0.0976335
0.0914584
0.0922639
0.0938934
0.0963757
0.0997541
0.104087
0.10945
0.115934
0.123645
0.132702
0.143228
0.155329
0.169053
0.184311
0.200789
0.217822
0.234393
0.249109
0.260273
0.266321
0.266321
0.260273
0.24911
0.234394
0.217823
0.20079
0.184312
0.169054
0.15533
0.143228
0.132703
0.123646
0.115935
0.109451
0.104088
0.0997548
0.0963765
0.0938941
0.0922646
0.0914591
0.0836672
0.0844013
0.0858956
0.0881867
0.0913307
0.0954064
0.100519
0.106805
0.114436
0.123622
0.134619
0.147729
0.163261
0.181378
0.201988
0.224518
0.247358
0.268916
0.285819
0.295214
0.295214
0.28582
0.268917
0.247359
0.224519
0.201989
0.181379
0.163262
0.14773
0.13462
0.123623
0.114436
0.106806
0.10052
0.0954072
0.0913315
0.0881875
0.0858963
0.084402
0.0836679
0.0743314
0.0749588
0.076246
0.0782345
0.0809876
0.0845976
0.0891929
0.0949461
0.102087
0.11092
0.121845
0.135402
0.152334
0.173539
0.199153
0.22923
0.249332
0.28046
0.306477
0.32364
0.327541
0.31708
0.295104
0.266646
0.229231
0.199155
0.17354
0.152335
0.135403
0.121846
0.11092
0.102088
0.0949469
0.0891936
0.0845984
0.0809883
0.0782352
0.0762467
0.0749594
0.074332
0.0635786
0.0640582
0.0650539
0.0666053
0.0687736
0.0716507
0.0753686
0.0801127
0.0861395
0.0938033
0.103615
0.116356
0.13309
0.154198
0.181853
0.215819
0.258619
0.304865
0.349444
0.380698
0.387669
0.367516
0.328056
0.281225
0.23752
0.199081
0.168559
0.133091
0.116357
0.103616
0.0938042
0.0861403
0.0801135
0.0753694
0.0716514
0.0687743
0.066606
0.0650546
0.0640588
0.0635792
0.0516181
0.0519082
0.0525249
0.0534975
0.054871
0.0567161
0.0591381
0.062291
0.0663966
0.0717673
0.078861
0.0884543
0.101878
0.12592
0.153761
0.193279
0.242585
0.309372
0.384262
0.446698
0.468013
0.436003
0.368602
0.294285
0.230454
0.17167
0.139041
0.10188
0.0884555
0.0788619
0.0717682
0.0663974
0.0622917
0.0591387
0.0567167
0.0548716
0.0534981
0.0525255
0.0519088
0.0516187
0.038751
0.0388164
0.0389787
0.0392477
0.0396373
0.040173
0.0408964
0.0418739
0.0432094
0.0450523
0.0476005
0.0511768
0.0565112
0.0784984
0.09755
0.133489
0.187047
0.276483
0.40271
0.540381
0.599895
0.525258
0.385156
0.263592
0.17287
0.111194
0.0871608
0.0565125
0.0511778
0.0476013
0.0450531
0.0432101
0.0418745
0.040897
0.0401736
0.0396378
0.0392482
0.0389792
0.0388169
0.0387516
0.025366
0.0251863
0.0248488
0.0243368
0.0236211
0.0226633
0.021411
0.0197937
0.0177199
0.0150639
0.0115979
0.00682885
-5.50908e-05
0.0127257
0.00905794
0.0245426
0.0494558
0.1064
0.271655
0.592669
0.8182
0.569423
0.264071
0.0958043
0.0340601
0.00740007
0.0109203
-5.43785e-05
0.00682948
0.0115985
0.0150644
0.0177204
0.0197942
0.0214115
0.0226638
0.0236216
0.0243372
0.0248493
0.0251867
0.0253664
0.0119193
0.0114965
0.0106598
0.00936389
0.00753383
0.00506181
0.00179307
-0.002494
-0.00811274
-0.0155049
-0.0253528
-0.0389303
-0.0585794
-0.0608431
-0.0951428
-0.119313
-0.166856
-0.227399
-0.232213
-0.236037
-0.240702
-0.171179
-0.118509
-0.0764692
-0.0585794
-0.0389302
-0.0253526
-0.0155047
-0.00811244
-0.00249367
0.00179341
0.00506217
0.0075342
0.00936426
0.0106602
0.0114969
0.0119197
-0.00110388
-0.00174282
-0.00302535
-0.00502057
-0.00784094
-0.0116501
-0.016683
-0.0232756
-0.0319036
-0.0432347
-0.058243
-0.0785361
-0.106743
-0.12273
-0.176963
-0.229369
-0.319644
-0.454227
-0.648816
-0.642872
-0.442672
-0.309413
-0.211781
-0.147745
-0.106744
-0.0785365
-0.0582432
-0.0432347
-0.0319035
-0.0232754
-0.0166828
-0.0116498
-0.00784067
-0.00502028
-0.00302505
-0.00174252
-0.00110357
-0.0132414
-0.0140473
-0.0156753
-0.0182076
-0.021776
-0.0265711
-0.0328623
-0.0410252
-0.0515789
-0.0652329
-0.0829759
-0.106255
-0.136923
-0.15974
-0.214172
-0.267267
-0.339845
-0.417399
-0.472769
-0.470455
-0.408861
-0.327403
-0.245733
-0.185592
-0.136924
-0.106256
-0.0829763
-0.0652331
-0.0515789
-0.0410252
-0.0328622
-0.026571
-0.0217758
-0.0182073
-0.0156751
-0.0140471
-0.0132411
-0.0241073
-0.025018
-0.0268632
-0.0297259
-0.0337369
-0.0390825
-0.0460195
-0.054894
-0.0661646
-0.0804315
-0.0984836
-0.121343
-0.149931
-0.173444
-0.217736
-0.259389
-0.305612
-0.343235
-0.361997
-0.361171
-0.357314
-0.362196
-0.360719
-0.339624
-0.296438
-0.240918
-0.195186
-0.149932
-0.121344
-0.0984841
-0.0804318
-0.0661648
-0.054894
-0.0460195
-0.0390824
-0.0337368
-0.0297257
-0.026863
-0.0250179
-0.0241071
-0.0334307
-0.0343826
-0.0363134
-0.0392971
-0.0434475
-0.0489238
-0.0559386
-0.0647666
-0.0757528
-0.089321
-0.105983
-0.126259
-0.150258
-0.172246
-0.204946
-0.235986
-0.264541
-0.283877
-0.294843
-0.298529
-0.298865
-0.29811
-0.292876
-0.279761
-0.258404
-0.220677
-0.189044
-0.150259
-0.126259
-0.105984
-0.0893213
-0.075753
-0.0647667
-0.0559386
-0.0489237
-0.0434474
-0.039297
-0.0363133
-0.0343825
-0.0334306
-0.0410709
-0.0420083
-0.0439103
-0.046836
-0.0508745
-0.0561476
-0.0628129
-0.0710656
-0.0811352
-0.0932758
-0.10776
-0.1249
-0.144961
-0.166897
-0.184352
-0.206387
-0.225426
-0.237951
-0.244946
-0.247966
-0.248591
-0.247495
-0.24363
-0.235405
-0.215513
-0.195825
-0.166898
-0.144962
-0.124901
-0.107761
-0.093276
-0.0811353
-0.0710657
-0.0628129
-0.0561476
-0.0508745
-0.046836
-0.0439103
-0.0420083
-0.0410708
-0.0470068
-0.0478876
-0.049674
-0.052409
-0.0561554
-0.0609969
-0.0670374
-0.0743984
-0.0832103
-0.0935931
-0.105627
-0.119319
-0.134454
-0.149965
-0.165236
-0.179266
-0.192333
-0.199996
-0.204313
-0.206292
-0.206748
-0.205966
-0.203491
-0.198429
-0.18491
-0.172766
-0.149966
-0.134454
-0.11932
-0.105628
-0.0935933
-0.0832104
-0.0743985
-0.0670374
-0.0609969
-0.0561554
-0.052409
-0.049674
-0.0478875
-0.0470068
-0.0513129
-0.0521088
-0.0537225
-0.0561814
-0.0595245
-0.0638016
-0.0690708
-0.0753927
-0.0828204
-0.0913792
-0.101028
-0.111608
-0.122769
-0.133843
-0.145987
-0.155096
-0.16415
-0.168737
-0.171323
-0.172516
-0.172798
-0.172318
-0.170832
-0.167789
-0.15861
-0.150993
-0.133844
-0.122769
-0.111608
-0.101028
-0.0913793
-0.0828205
-0.0753927
-0.0690709
-0.0638017
-0.0595245
-0.0561814
-0.0537225
-0.0521088
-0.0513129
-0.0541291
-0.0548251
-0.0562352
-0.0583742
-0.0612615
-0.0649203
-0.0693737
-0.0746384
-0.0807155
-0.0875752
-0.0951268
-0.103161
-0.111281
-0.118983
-0.128343
-0.134222
-0.140519
-0.14314
-0.144593
-0.14524
-0.145391
-0.145134
-0.144323
-0.142591
-0.136359
-0.131641
-0.118984
-0.111281
-0.103161
-0.0951268
-0.0875753
-0.0807156
-0.0746384
-0.0693737
-0.0649203
-0.0612615
-0.0583742
-0.0562352
-0.0548251
-0.0541291
-0.0556342
-0.0562254
-0.0574225
-0.0592305
-0.0616542
-0.0646978
-0.0683602
-0.072629
-0.0774725
-0.0828271
-0.0885823
-0.0945346
-0.100233
-0.104805
-0.112908
-0.116577
-0.120281
-0.121941
-0.122666
-0.123031
-0.123226
-0.123266
-0.123015
-0.122197
-0.116569
-0.115354
-0.104805
-0.100233
-0.0945346
-0.0885823
-0.0828271
-0.0774725
-0.0726291
-0.0683602
-0.0646978
-0.0616542
-0.0592305
-0.0574225
-0.0562254
-0.0556342
-0.0560229
-0.0565122
-0.0575022
-0.0589911
-0.0609741
-0.0634424
-0.0663798
-0.0697569
-0.0735241
-0.077601
-0.081864
-0.0861283
-0.090118
-0.0935241
-0.0962651
-0.101579
-0.102395
-0.102772
-0.102862
-0.102901
-0.102977
-0.103073
-0.103088
-0.102851
-0.102143
-0.0962649
-0.0935239
-0.0901179
-0.0861282
-0.081864
-0.0776009
-0.0735241
-0.0697569
-0.0663798
-0.0634424
-0.0609741
-0.0589911
-0.0575022
-0.0565122
-0.0560229
-0.0554892
-0.0558843
-0.0566832
-0.0578798
-0.0594633
-0.0614177
-0.0637183
-0.0663282
-0.0691917
-0.0722271
-0.0753181
-0.0783053
-0.0809781
-0.0831043
-0.0846556
-0.0856816
-0.0856323
-0.085158
-0.084698
-0.0844337
-0.0844336
-0.0846979
-0.0851578
-0.085632
-0.0856813
-0.0846554
-0.0831041
-0.080978
-0.0783052
-0.075318
-0.0722271
-0.0691916
-0.0663282
-0.0637183
-0.0614177
-0.0594633
-0.0578798
-0.0566832
-0.0558843
-0.0554892
-0.0542152
-0.0545266
-0.0551558
-0.0560946
-0.0573292
-0.0588403
-0.0606003
-0.0625702
-0.0646959
-0.0669022
-0.0690871
-0.0711178
-0.0728324
-0.0740744
-0.0748118
-0.0749854
-0.0747003
-0.0742913
-0.0739523
-0.0737693
-0.0737693
-0.0739522
-0.0742911
-0.0747001
-0.0749851
-0.0748115
-0.0740742
-0.0728322
-0.0711177
-0.069087
-0.0669021
-0.0646959
-0.0625702
-0.0606003
-0.0588403
-0.0573292
-0.0560946
-0.0551558
-0.0545266
-0.0542152
-0.0523642
-0.0526036
-0.0530869
-0.053805
-0.0547437
-0.0558829
-0.0571954
-0.0586442
-0.0601801
-0.0617373
-0.0632304
-0.0645524
-0.0655828
-0.0662152
-0.0664219
-0.06621
-0.0657292
-0.0651835
-0.0647325
-0.0644814
-0.0644814
-0.0647323
-0.0651833
-0.0657289
-0.0662097
-0.0664216
-0.066215
-0.0655826
-0.0645523
-0.0632303
-0.0617373
-0.06018
-0.0586442
-0.0571954
-0.0558829
-0.0547437
-0.053805
-0.0530869
-0.0526036
-0.0523643
-0.0500784
-0.0502572
-0.050618
-0.051152
-0.0518454
-0.0526796
-0.0536295
-0.0546624
-0.0557353
-0.056793
-0.0577651
-0.0585668
-0.0591069
-0.0593113
-0.0591635
-0.0586991
-0.0580377
-0.0573489
-0.0567924
-0.0564848
-0.0564848
-0.0567923
-0.0573486
-0.0580375
-0.0586989
-0.0591633
-0.0593111
-0.0591067
-0.0585667
-0.057765
-0.0567929
-0.0557353
-0.0546624
-0.0536295
-0.0526796
-0.0518454
-0.051152
-0.050618
-0.0502572
-0.0500784
-0.0474777
-0.0476067
-0.0478669
-0.0482502
-0.0487445
-0.0493334
-0.049995
-0.0507016
-0.0514173
-0.0520965
-0.052682
-0.0531057
-0.0532969
-0.0532008
-0.0528083
-0.0521634
-0.0513756
-0.0505987
-0.0499845
-0.0496476
-0.0496475
-0.0499843
-0.0505985
-0.0513754
-0.0521632
-0.0528082
-0.0532007
-0.0532968
-0.0531057
-0.0526819
-0.0520965
-0.0514173
-0.0507016
-0.049995
-0.0493334
-0.0487445
-0.0482502
-0.0478669
-0.0476067
-0.0474777
-0.044662
-0.0447506
-0.0449296
-0.0451919
-0.0455274
-0.0459222
-0.0463584
-0.0468133
-0.0472576
-0.0476545
-0.0479574
-0.0481112
-0.0480588
-0.0477574
-0.0472017
-0.0464371
-0.0455667
-0.0447327
-0.0440798
-0.0437225
-0.0437225
-0.0440797
-0.0447325
-0.0455666
-0.046437
-0.0472016
-0.0477573
-0.0480587
-0.0481112
-0.0479574
-0.0476545
-0.0472576
-0.0468133
-0.0463584
-0.0459222
-0.0455274
-0.0451919
-0.0449296
-0.0447507
-0.044662
-0.0417124
-0.0417688
-0.0418831
-0.0420498
-0.0422605
-0.0425042
-0.0427668
-0.0430302
-0.0432713
-0.0434607
-0.0435602
-0.0435243
-0.0433053
-0.0428674
-0.0422063
-0.0413649
-0.0404389
-0.039563
-0.0388794
-0.0385049
-0.0385049
-0.0388793
-0.0395629
-0.0404389
-0.0413648
-0.0422063
-0.0428674
-0.0433053
-0.0435243
-0.0435602
-0.0434607
-0.0432714
-0.0430302
-0.0427668
-0.0425043
-0.0422606
-0.0420499
-0.0418832
-0.0417689
-0.0417124
-0.0386943
-0.0387253
-0.038789
-0.038881
-0.038995
-0.0391226
-0.0392529
-0.0393724
-0.0394632
-0.0395017
-0.0394566
-0.0392892
-0.0389581
-0.0384311
-0.0377032
-0.0368129
-0.0358496
-0.0349428
-0.0342348
-0.0338462
-0.0338462
-0.0342348
-0.0349428
-0.0358496
-0.0368129
-0.0377032
-0.0384312
-0.0389582
-0.0392893
-0.0394566
-0.0395017
-0.0394633
-0.0393725
-0.039253
-0.0391226
-0.0389951
-0.038881
-0.038789
-0.0387253
-0.0386943
-0.0356597
-0.0356709
-0.0356953
-0.0357298
-0.0357697
-0.0358088
-0.0358396
-0.0358519
-0.0358323
-0.035762
-0.0356149
-0.0353573
-0.0349518
-0.0343677
-0.0335984
-0.0326778
-0.0316898
-0.0307606
-0.0300334
-0.0296334
-0.0296334
-0.0300334
-0.0307606
-0.0316899
-0.0326779
-0.0335985
-0.0343678
-0.0349519
-0.0353574
-0.035615
-0.0357621
-0.0358324
-0.035852
-0.0358396
-0.0358089
-0.0357697
-0.0357298
-0.0356953
-0.0356709
-0.0356598
-0.0326497
-0.0326456
-0.0326399
-0.0326305
-0.032614
-0.0325864
-0.0325426
-0.0324756
-0.0323754
-0.0322271
-0.0320085
-0.0316895
-0.031235
-0.0306151
-0.0298208
-0.0288817
-0.0278771
-0.026931
-0.0261886
-0.0257791
-0.0257791
-0.0261886
-0.0269311
-0.0278772
-0.0288818
-0.0298209
-0.0306153
-0.0312352
-0.0316896
-0.0320086
-0.0322272
-0.0323755
-0.0324757
-0.0325427
-0.0325865
-0.0326141
-0.0326305
-0.03264
-0.0326456
-0.0326498
-0.0296965
-0.0296808
-0.0296523
-0.0296096
-0.0295506
-0.0294729
-0.0293735
-0.0292481
-0.0290893
-0.0288853
-0.0286167
-0.0282559
-0.0277694
-0.027127
-0.0263173
-0.0253663
-0.0243497
-0.0233904
-0.0226354
-0.0222182
-0.0222182
-0.0226355
-0.0233905
-0.0243498
-0.0253664
-0.0263175
-0.0271272
-0.0277696
-0.0282561
-0.0286168
-0.0288854
-0.0290894
-0.0292482
-0.0293736
-0.0294729
-0.0295506
-0.0296096
-0.0296523
-0.0296808
-0.0296965
-0.0268251
-0.0268009
-0.0267554
-0.0266877
-0.0265967
-0.0264816
-0.0263412
-0.0261729
-0.0259718
-0.0257281
-0.0254246
-0.0250352
-0.0245272
-0.0238697
-0.0230494
-0.0220894
-0.0210631
-0.0200928
-0.0193274
-0.0189038
-0.0189038
-0.0193275
-0.0200929
-0.0210633
-0.0220896
-0.0230496
-0.0238699
-0.0245274
-0.0250354
-0.0254247
-0.0257282
-0.0259719
-0.026173
-0.0263413
-0.0264817
-0.0265968
-0.0266877
-0.0267555
-0.026801
-0.0268252
-0.0240556
-0.0240253
-0.0239672
-0.0238808
-0.023766
-0.0236233
-0.0234527
-0.0232534
-0.023022
-0.0227502
-0.0224221
-0.0220124
-0.0214888
-0.0208196
-0.0199902
-0.0190219
-0.0179868
-0.0170071
-0.0162334
-0.0158047
-0.0158047
-0.0162335
-0.0170072
-0.017987
-0.0190221
-0.0199904
-0.0208198
-0.0214889
-0.0220126
-0.0224222
-0.0227503
-0.0230221
-0.0232535
-0.0234528
-0.0236234
-0.0237661
-0.0238808
-0.0239672
-0.0240253
-0.0240556
-0.0214035
-0.021369
-0.0213017
-0.0212016
-0.0210694
-0.0209066
-0.0207143
-0.0204929
-0.0202401
-0.0199484
-0.0196026
-0.0191777
-0.0186411
-0.0179611
-0.0171222
-0.0161452
-0.0151018
-0.0141145
-0.0133347
-0.0129026
-0.0129026
-0.0133348
-0.0141146
-0.015102
-0.0161454
-0.0171224
-0.0179612
-0.0186413
-0.0191779
-0.0196027
-0.0199485
-0.0202402
-0.020493
-0.0207144
-0.0209066
-0.0210695
-0.0212016
-0.0213018
-0.0213691
-0.0214035
-0.0188815
-0.0188443
-0.0187705
-0.0186605
-0.018516
-0.018339
-0.0181317
-0.0178951
-0.0176275
-0.0173217
-0.0169626
-0.016525
-0.0159763
-0.0152848
-0.0144355
-0.0134496
-0.0123991
-0.0114066
-0.0106235
-0.0101898
-0.0101898
-0.0106236
-0.0114067
-0.0123992
-0.0134497
-0.0144357
-0.0152849
-0.0159764
-0.0165251
-0.0169627
-0.0173218
-0.0176275
-0.0178952
-0.0181318
-0.0183391
-0.018516
-0.0186606
-0.0187705
-0.0188443
-0.0188816
-0.0165002
-0.0164611
-0.016383
-0.0162664
-0.0161136
-0.0159274
-0.0157104
-0.0154639
-0.0151864
-0.0148706
-0.0145009
-0.0140518
-0.0134909
-0.0127873
-0.0119272
-0.010933
-0.00987769
-0.00888349
-0.00810061
-0.00766749
-0.00766751
-0.00810067
-0.00888359
-0.00987781
-0.0109332
-0.0119273
-0.0127874
-0.0134911
-0.0140519
-0.014501
-0.0148707
-0.0151865
-0.015464
-0.0157104
-0.0159275
-0.0161137
-0.0162664
-0.016383
-0.0164612
-0.0165002
-0.0142685
-0.0142282
-0.0141474
-0.014027
-0.0138696
-0.0136783
-0.0134559
-0.0132039
-0.0129203
-0.0125973
-0.0122188
-0.0117591
-0.0111861
-0.0104704
-0.00960041
-0.00860038
-0.00754394
-0.00655256
-0.00577404
-0.00534403
-0.00534405
-0.0057741
-0.00655264
-0.00754405
-0.0086005
-0.00960054
-0.0104706
-0.0111862
-0.0117592
-0.0122189
-0.0125974
-0.0129203
-0.0132039
-0.013456
-0.0136783
-0.0138696
-0.014027
-0.0141474
-0.0142282
-0.0142685
-0.0121941
-0.0121532
-0.0120712
-0.0119495
-0.0117907
-0.011598
-0.0113741
-0.0111202
-0.0108336
-0.0105059
-0.0101202
-0.00965098
-0.00906704
-0.00834094
-0.00746366
-0.00646178
-0.00540942
-0.0044264
-0.00365696
-0.00323279
-0.00323281
-0.00365701
-0.00442647
-0.00540951
-0.00646188
-0.00746377
-0.00834104
-0.00906713
-0.00965107
-0.0101203
-0.010506
-0.0108336
-0.0111202
-0.0113742
-0.011598
-0.0117907
-0.0119495
-0.0120712
-0.0121532
-0.0121941
-0.0102842
-0.0102431
-0.0101615
-0.0100408
-0.00988355
-0.00969283
-0.00947096
-0.00921843
-0.00893192
-0.00860204
-0.00821145
-0.00773478
-0.00714234
-0.00640918
-0.00552922
-0.0045312
-0.0034894
-0.00252106
-0.00176582
-0.00135036
-0.00135037
-0.00176586
-0.00252112
-0.00348947
-0.00453128
-0.0055293
-0.00640926
-0.00714242
-0.00773484
-0.0082115
-0.00860209
-0.00893195
-0.00921845
-0.00947097
-0.00969284
-0.00988356
-0.0100408
-0.0101615
-0.0102431
-0.0102842
-0.0085452
-0.00850457
-0.00842473
-0.00830723
-0.00815447
-0.00796897
-0.00775253
-0.00750483
-0.00722162
-0.00689267
-0.00650028
-0.00601968
-0.00542295
-0.00468792
-0.00381157
-0.00282457
-0.00180078
-0.000854018
-0.000118317
0.000285506
0.000285495
-0.000118351
-0.00085407
-0.00180084
-0.00282464
-0.00381164
-0.00468799
-0.00542301
-0.00601973
-0.00650032
-0.0068927
-0.00722164
-0.00750484
-0.00775254
-0.00796897
-0.00815446
-0.00830722
-0.00842471
-0.00850455
-0.00854519
-0.00698306
-0.00694345
-0.00686687
-0.00675484
-0.00660931
-0.00643226
-0.00622474
-0.0059855
-0.00570933
-0.00538524
-0.00499537
-0.00451579
-0.00392061
-0.00319057
-0.00232556
-0.00135786
-0.000360196
0.000557786
0.00126853
0.00165781
0.0016578
0.00126851
0.000557742
-0.000360249
-0.00135791
-0.00232562
-0.00319062
-0.00392065
-0.00451583
-0.0049954
-0.00538526
-0.00570934
-0.00598551
-0.00622474
-0.00643226
-0.0066093
-0.00675482
-0.00686685
-0.00694343
-0.00698304
-0.00560273
-0.00556486
-0.00549302
-0.00538862
-0.00525309
-0.00508773
-0.00489276
-0.00466598
-0.0044012
-0.00408679
-0.00370494
-0.00323271
-0.00264634
-0.00192947
-0.00108463
-0.000145169
0.000817895
0.00169988
0.00238038
0.00275231
0.0027523
0.00238036
0.00169984
0.00081785
-0.000145217
-0.00108467
-0.00192951
-0.00264638
-0.00323273
-0.00370496
-0.0040868
-0.0044012
-0.00466597
-0.00489276
-0.00508772
-0.00525307
-0.0053886
-0.005493
-0.00556484
-0.0056027
-0.00440787
-0.00437253
-0.0043069
-0.00421225
-0.00408942
-0.00393901
-0.00376039
-0.00355038
-0.00330192
-0.00300285
-0.00263549
-0.00217805
-0.00160887
-0.000914244
-9.90006e-05
0.000802988
0.00172307
0.00256213
0.00320746
0.00355947
0.00355946
0.00320744
0.0025621
0.00172303
0.000802949
-9.90381e-05
-0.000914277
-0.00160889
-0.00217807
-0.00263551
-0.00300285
-0.00330192
-0.00355037
-0.00376038
-0.00393899
-0.00408939
-0.00421222
-0.00430687
-0.0043725
-0.00440784
-0.00340019
-0.00336818
-0.0033102
-0.00322732
-0.00311982
-0.00298762
-0.00282921
-0.00264054
-0.00241373
-0.00213622
-0.00179054
-0.00135603
-0.00081301
-0.000150134
0.000625988
0.00148152
0.00235077
0.00314064
0.00374648
0.00407638
0.00407637
0.00374646
0.00314062
0.00235074
0.00148149
0.000625957
-0.00015016
-0.000813031
-0.00135605
-0.00179055
-0.00213622
-0.00241373
-0.00264052
-0.00282919
-0.00298759
-0.00311979
-0.00322729
-0.00331017
-0.00336815
-0.00340016
-0.00257878
-0.00255089
-0.0025019
-0.00243268
-0.00234301
-0.00223212
-0.00209774
-0.00193499
-0.00173532
-0.00148579
-0.00116923
-0.000766009
-0.000258176
0.000363652
0.00109162
0.00189251
0.00270407
0.00343957
0.00400248
0.00430857
0.00430857
0.00400246
0.00343955
0.00270404
0.00189249
0.00109159
0.000363629
-0.000258193
-0.000766019
-0.00116924
-0.00148579
-0.00173531
-0.00193498
-0.00209772
-0.00223209
-0.00234298
-0.00243265
-0.00250187
-0.00255085
-0.00257874
-0.00193946
-0.00191643
-0.00187765
-0.00182379
-0.00175416
-0.00166741
-0.00156059
-0.0014281
-0.00126078
-0.00104543
-0.00076512
-0.000401115
6.31005e-05
0.000635427
0.00130732
0.00204674
0.00279521
0.00347253
0.00399017
0.00427139
0.00427138
0.00399016
0.00347251
0.00279519
0.00204671
0.0013073
0.000635407
6.3085e-05
-0.000401124
-0.000765123
-0.00104542
-0.00126077
-0.00142808
-0.00156057
-0.00166739
-0.00175413
-0.00182376
-0.00187762
-0.0019164
-0.00193943
-0.00147437
-0.00145685
-0.00142928
-0.00139215
-0.00134438
-0.00128412
-0.00120783
-0.00110929
-0.000978848
-0.000803061
-0.000565212
-0.000247264
0.00016621
0.000682106
0.00129173
0.00196465
0.00264647
0.00326341
0.00373468
0.00399059
0.00399059
0.00373467
0.00326339
0.00264645
0.00196463
0.00129171
0.000682086
0.000166194
-0.000247274
-0.000565216
-0.00080306
-0.00097884
-0.00110928
-0.00120781
-0.0012841
-0.00134435
-0.00139212
-0.00142925
-0.00145682
-0.00147434
-0.00117168
-0.00116019
-0.00114457
-0.00112511
-0.00110043
-0.00106829
-0.00102463
-0.000962729
-0.000872505
-0.000740312
-0.000549566
-0.000282748
7.48209e-05
0.000529475
0.00107283
0.00167642
0.00229002
0.00284606
0.00327107
0.00350189
0.00350189
0.00327106
0.00284604
0.00229
0.0016764
0.00107281
0.000529452
7.48022e-05
-0.000282762
-0.000549574
-0.000740314
-0.000872501
-0.00096272
-0.00102462
-0.00106827
-0.00110041
-0.00112508
-0.00114454
-0.00116016
-0.00117165
-0.00101576
-0.00101065
-0.00100733
-0.00100593
-0.00100485
-0.0010015
-0.00099142
-0.00096746
-0.00091918
-0.000832749
-0.000691656
-0.000478731
-0.000179765
0.000211372
0.000686953
0.0012207
0.00176651
0.00226274
0.00264269
0.0028492
0.0028492
0.00264268
0.00226272
0.00176648
0.00122067
0.000686926
0.000211346
-0.000179787
-0.000478749
-0.000691668
-0.000832755
-0.000919181
-0.000967455
-0.00099141
-0.00100148
-0.00100483
-0.00100591
-0.00100731
-0.00101062
-0.00101574
-0.000987611
-0.000989
-0.000997917
-0.00101432
-0.00103646
-0.00106146
-0.00108454
-0.00109818
-0.00109165
-0.00105095
-0.000959621
-0.000800727
-0.000560339
-0.000232298
0.000176534
0.000642143
0.00112243
0.00156131
0.00189829
0.0020817
0.0020817
0.00189827
0.00156129
0.0011224
0.000642113
0.000176503
-0.000232328
-0.000560367
-0.00080075
-0.000959639
-0.00105096
-0.00109165
-0.00109818
-0.00108453
-0.00106145
-0.00103644
-0.00101431
-0.000997898
-0.00098898
-0.00098759
-0.00106567
-0.00107343
-0.00109403
-0.00112729
-0.00117133
-0.00122306
-0.00127741
-0.00132656
-0.00135955
-0.00136227
-0.00131831
-0.00121094
-0.00102643
-0.000758503
-0.000413084
-1.19598e-05
0.00040657
0.000791593
0.00108835
0.00125019
0.00125018
0.00108834
0.000791571
0.000406542
-1.19924e-05
-0.000413119
-0.000758538
-0.00102646
-0.00121096
-0.00131833
-0.00136229
-0.00135957
-0.00132657
-0.00127741
-0.00122306
-0.00117132
-0.00112728
-0.00109402
-0.00107341
-0.00106565
-0.00122685
-0.00124059
-0.00127187
-0.00132035
-0.00138407
-0.00145975
-0.00154208
-0.001623
-0.00169139
-0.00173308
-0.0017318
-0.00167109
-0.00153745
-0.0013245
-0.00103729
-0.000695502
-0.000333874
1.49856e-06
0.000261168
0.000403108
0.000403103
0.000261154
1.47579e-06
-0.000333903
-0.000695536
-0.00103733
-0.00132454
-0.00153749
-0.00167112
-0.00173183
-0.0017331
-0.00169141
-0.00162302
-0.00154209
-0.00145976
-0.00138407
-0.00132034
-0.00127187
-0.00124058
-0.00122685
-0.00144781
-0.00146687
-0.00150739
-0.00156885
-0.00164924
-0.00174513
-0.00185096
-0.00195853
-0.00205661
-0.00213114
-0.00216607
-0.00214534
-0.00205582
-0.00189116
-0.00165567
-0.0013671
-0.00105687
-0.000766569
-0.000540673
-0.000416884
-0.000416889
-0.000540688
-0.000766592
-0.0010569
-0.00136713
-0.00165571
-0.0018912
-0.00205586
-0.00214537
-0.0021661
-0.00213116
-0.00205664
-0.00195855
-0.00185097
-0.00174514
-0.00164925
-0.00156885
-0.00150739
-0.00146687
-0.0014478
-0.00170605
-0.00172959
-0.00177758
-0.00184934
-0.00194282
-0.00205443
-0.00217845
-0.00230658
-0.00242762
-0.00252771
-0.00259124
-0.00260271
-0.00254957
-0.00242566
-0.00223473
-0.00199282
-0.00172824
-0.00147834
-0.0012829
-0.00117553
-0.00117554
-0.00128292
-0.00147837
-0.00172827
-0.00199285
-0.00223477
-0.0024257
-0.00254961
-0.00260275
-0.00259127
-0.00252774
-0.00242765
-0.00230661
-0.00217847
-0.00205444
-0.00194283
-0.00184934
-0.00177758
-0.0017296
-0.00170606
-0.00198111
-0.00200811
-0.00206158
-0.00214069
-0.00224336
-0.00236584
-0.00250232
-0.00264448
-0.00278127
-0.0028992
-0.00298328
-0.00301883
-0.00299403
-0.00290315
-0.00274957
-0.00254777
-0.00232319
-0.00210914
-0.00194094
-0.00184833
-0.00184833
-0.00194095
-0.00210916
-0.00232321
-0.0025478
-0.00274961
-0.00290319
-0.00299407
-0.00301887
-0.00298332
-0.00289923
-0.0027813
-0.00264451
-0.00250235
-0.00236586
-0.00224337
-0.00214071
-0.00206159
-0.00200812
-0.00198111
-0.00225529
-0.00228468
-0.00234158
-0.00242504
-0.00253293
-0.00266141
-0.00280462
-0.00295432
-0.00309975
-0.00322798
-0.00332485
-0.00337665
-0.00337254
-0.00330738
-0.00318432
-0.00301646
-0.00282653
-0.00264403
-0.00250005
-0.00242062
-0.00242062
-0.00250006
-0.00264405
-0.00282655
-0.00301649
-0.00318435
-0.00330741
-0.00337258
-0.00337669
-0.00332489
-0.00322802
-0.00309978
-0.00295434
-0.00280464
-0.00266143
-0.00253294
-0.00242506
-0.00234159
-0.0022847
-0.0022553
-0.00251429
-0.00254498
-0.00260331
-0.00268825
-0.0027976
-0.0029275
-0.0030721
-0.00322335
-0.00337094
-0.00350265
-0.0036053
-0.00366638
-0.00367615
-0.00363018
-0.00353155
-0.00339207
-0.00323193
-0.00307702
-0.00295442
-0.00288669
-0.00288669
-0.00295442
-0.00307703
-0.00323195
-0.0033921
-0.00353157
-0.00363021
-0.00367618
-0.00366641
-0.00360533
-0.00350268
-0.00337097
-0.00322338
-0.00307213
-0.00292752
-0.00279762
-0.00268826
-0.00260333
-0.00254499
-0.0025143
-0.0027473
-0.00277827
-0.00283624
-0.00292006
-0.00302755
-0.00315484
-0.00329618
-0.00344384
-0.00358805
-0.00371748
-0.00382008
-0.00388463
-0.00390261
-0.00387037
-0.00379095
-0.00367501
-0.00354032
-0.00340939
-0.00330557
-0.00324817
-0.00324817
-0.00330557
-0.0034094
-0.00354033
-0.00367503
-0.00379098
-0.0038704
-0.00390263
-0.00388465
-0.00382011
-0.0037175
-0.00358808
-0.00344386
-0.0032962
-0.00315486
-0.00302757
-0.00292008
-0.00283626
-0.00277828
-0.00274731
-0.00294702
-0.00297738
-0.00303343
-0.00311396
-0.00321682
-0.00333819
-0.00347251
-0.00361245
-0.00374894
-0.0038716
-0.00396964
-0.00403317
-0.00405494
-0.00403208
-0.0039676
-0.00387108
-0.00375804
-0.00364786
-0.00356041
-0.00351206
-0.00351206
-0.00356041
-0.00364786
-0.00375805
-0.0038711
-0.00396762
-0.00403209
-0.00405496
-0.00403319
-0.00396966
-0.00387162
-0.00374896
-0.00361247
-0.00347253
-0.0033382
-0.00321684
-0.00311398
-0.00303344
-0.00297739
-0.00294703
-0.00310928
-0.00313827
-0.00319117
-0.00326673
-0.00336283
-0.00347577
-0.00360027
-0.0037295
-0.00385514
-0.00396786
-0.00405815
-0.00411749
-0.00413982
-0.00412303
-0.00407012
-0.0039896
-0.00389491
-0.00380256
-0.00372931
-0.00368883
-0.00368883
-0.00372931
-0.00380257
-0.00389491
-0.0039896
-0.00407012
-0.00412304
-0.00413983
-0.0041175
-0.00405817
-0.00396788
-0.00385515
-0.00372952
-0.00360029
-0.00347578
-0.00336285
-0.00326675
-0.00319119
-0.00313828
-0.00310929
-0.00323257
-0.00325965
-0.0033085
-0.00337787
-0.00346573
-0.00356855
-0.00368139
-0.00379798
-0.00391081
-0.00401165
-0.00409223
-0.00414536
-0.0041661
-0.00415302
-0.00410904
-0.0040417
-0.00396252
-0.00388542
-0.00382437
-0.00379066
-0.00379066
-0.00382437
-0.00388542
-0.00396252
-0.0040417
-0.00410904
-0.00415302
-0.0041661
-0.00414536
-0.00409224
-0.00401166
-0.00391083
-0.00379799
-0.00368141
-0.00356856
-0.00346574
-0.00337788
-0.00330851
-0.00325966
-0.00323258
-0.00331754
-0.00334231
-0.00338653
-0.00344899
-0.00352775
-0.0036195
-0.00371971
-0.00382268
-0.00392179
-0.00400984
-0.00407978
-0.00412565
-0.00414352
-0.00413253
-0.0040955
-0.00403903
-0.00397291
-0.00390876
-0.0038581
-0.00383018
-0.00383018
-0.0038581
-0.00390876
-0.0039729
-0.00403902
-0.0040955
-0.00413253
-0.00414352
-0.00412565
-0.00407979
-0.00400984
-0.0039218
-0.00382269
-0.00371971
-0.00361951
-0.00352775
-0.003449
-0.00338653
-0.00334231
-0.00331755
-0.00336639
-0.00338862
-0.00342793
-0.00348316
-0.00355249
-0.00363287
-0.0037202
-0.00380941
-0.0038947
-0.0039699
-0.00402908
-0.00406738
-0.00408177
-0.00407184
-0.00404026
-0.00399275
-0.00393758
-0.00388435
-0.00384247
-0.00381944
-0.00381944
-0.00384247
-0.00388435
-0.00393758
-0.00399275
-0.00404025
-0.00407184
-0.00408177
-0.00406738
-0.00402908
-0.0039699
-0.0038947
-0.00380942
-0.0037202
-0.00363287
-0.00355249
-0.00348316
-0.00342793
-0.00338863
-0.0033664
-0.00338238
-0.00340199
-0.00343635
-0.00348437
-0.00354438
-0.00361362
-0.00368841
-0.00376432
-0.00383633
-0.00389923
-0.00394812
-0.00397908
-0.00398984
-0.00398036
-0.00395309
-0.00391299
-0.00386694
-0.00382284
-0.0037883
-0.00376936
-0.00376936
-0.0037883
-0.00382283
-0.00386694
-0.00391298
-0.00395308
-0.00398035
-0.00398984
-0.00397907
-0.00394811
-0.00389922
-0.00383633
-0.00376432
-0.00368841
-0.00361362
-0.00354438
-0.00348437
-0.00343635
-0.00340199
-0.00338238
-0.00336936
-0.00338639
-0.00341595
-0.00345706
-0.0035082
-0.0035669
-0.00362992
-0.00369343
-0.00375314
-0.00380471
-0.00384414
-0.00386834
-0.00387565
-0.00386627
-0.00384246
-0.00380846
-0.00376997
-0.00373343
-0.00370498
-0.00368942
-0.00368942
-0.00370497
-0.00373343
-0.00376996
-0.00380845
-0.00384245
-0.00386626
-0.00387564
-0.00386833
-0.00384413
-0.0038047
-0.00375313
-0.00369342
-0.00362992
-0.0035669
-0.0035082
-0.00345706
-0.00341595
-0.00338639
-0.00336936
-0.00333143