/*--------------------------------*- C++ -*----------------------------------*\
  =========                 |
  \\      /  F ield         | OpenFOAM: The Open Source CFD Toolbox
   \\    /   O peration     | Website:  https://openfoam.org
    \\  /    A nd           | Version:  6
     \\/     M anipulation  |
\*---------------------------------------------------------------------------*/
FoamFile
{
    version     2.0;
    format      ascii;
    class       volVectorField;
    location    "0";
    object      U;
}
// * * * * * * * * * * * * * * * * * * * * * * * * * * * * * * * * * * * * * //

dimensions      [0 1 -1 0 0 0 0];

internalField   nonuniform List<vector> 
13046
(
(0.544298 0.214989 0)
(0.608793 -0.128755 4.39229e-21)
(0.231236 -0.0706212 9.86372e-21)
(0.524526 0.127851 0)
(0.237488 0.00460033 8.97008e-21)
(0.515678 -0.139568 0)
(0.570748 0.150893 -1.30405e-21)
(0.557881 -0.176085 -2.24838e-21)
(0.211851 0.0155294 9.86381e-21)
(1.0463 0.468688 -3.20858e-21)
(1.07966 -0.441056 0)
(-0.0122965 -0.00382468 -6.2286e-21)
(0.670727 0.258538 8.17322e-21)
(0.697918 -0.203676 6.70516e-21)
(0.160703 -0.0431158 -5.36843e-21)
(0.995527 0.527216 -1.81772e-21)
(0.0186852 -0.0333906 -9.98753e-21)
(1.12321 -0.35756 -2.52957e-21)
(0.329979 0.0862745 0)
(0.394154 -0.118574 4.85287e-21)
(0.505178 0.028399 -1.3694e-20)
(1.00738 0.517954 1.81343e-21)
(0.00926015 -0.0254063 1.99985e-20)
(1.11453 -0.37578 -7.6643e-22)
(0.478391 0.139203 -5.54116e-21)
(0.522575 -0.0978675 8.20923e-21)
(0.260797 -0.0438081 0)
(0.678654 0.289373 -1.81496e-22)
(0.724167 -0.202148 -1.96949e-21)
(0.15858 -0.0593907 1.86304e-20)
(0.551556 0.236815 0)
(0.63462 -0.116837 0)
(0.235615 -0.0918697 -1.00394e-20)
(0.438724 0.108346 1.94391e-20)
(0.286415 -0.0418605 -3.35938e-21)
(0.485137 -0.0697848 -1.2726e-20)
(0.433436 0.0850418 5.8313e-23)
(0.297826 -0.0196036 0)
(0.457108 -0.0669931 0)
(0.455213 0.240365 -7.04061e-21)
(0.372147 -0.207453 -9.06448e-21)
(0.661512 -0.029452 6.54849e-21)
(0.409103 0.0191543 -4.48046e-21)
(0.349622 0.0110418 4.58099e-21)
(0.386937 -0.0362779 0)
(0.438114 0.0273621 -2.84186e-21)
(0.329521 0.0323059 0)
(0.389568 -0.0630217 1.47411e-21)
(0.566635 0.209709 0)
(0.611707 -0.151007 3.14746e-22)
(0.204629 -0.0510661 2.63099e-23)
(0.53893 -0.342556 -1.11015e-20)
(0.390482 0.260555 0)
(0.765968 0.0446973 7.67124e-21)
(0.596846 -0.379359 1.58092e-20)
(0.795912 0.0701151 8.23662e-21)
(0.351526 0.242092 -1.08478e-20)
(1.00332 -0.203999 1.34692e-21)
(0.845937 0.521583 0)
(0.178147 -0.153726 -8.34691e-21)
(0.852436 0.268594 3.84332e-21)
(0.811768 -0.361306 -3.88342e-21)
(0.106247 0.0476959 2.22914e-20)
(0.0164627 -0.0108045 -1.1517e-20)
(1.03955 -0.403204 2.10153e-21)
(1.01452 0.438927 5.6532e-21)
(0.80585 0.517023 0)
(0.971091 -0.167 -6.35627e-21)
(0.223562 -0.192174 -2.43483e-21)
(0.771967 0.494148 2.94417e-21)
(0.939035 -0.152456 8.61393e-21)
(0.240535 -0.200096 3.31252e-21)
(1.03936 -0.214658 1.32358e-23)
(0.875553 0.540825 -1.18308e-22)
(0.161446 -0.149611 3.16235e-23)
(0.34768 0.110042 0)
(0.384291 -0.134623 -5.28135e-21)
(0.531332 0.0103382 9.73039e-21)
(0.105689 -0.104287 -9.17743e-21)
(0.920824 0.545491 8.47107e-21)
(1.07482 -0.263128 2.84583e-21)
(0.508566 0.149888 -2.89634e-21)
(0.535029 -0.119284 2.92775e-21)
(0.238927 -0.0258328 0)
(0.00870328 -0.0111433 1.02958e-20)
(1.06041 -0.411574 0)
(1.0311 0.45416 -3.33383e-21)
(1.05825 0.359656 5.82534e-21)
(0.0281414 0.0311372 0)
(0.990349 -0.478703 1.68368e-21)
(0.0712329 0.0770943 0)
(1.12219 0.286737 0)
(0.953504 -0.564209 -2.149e-22)
(0.860054 0.375888 7.57144e-21)
(0.899258 0.383284 -1.0488e-20)
(0.899204 -0.304335 -7.25481e-21)
(0.927924 -0.33531 3.39741e-21)
(0.0824734 -0.03597 4.79336e-21)
(0.0640352 -0.0207769 -1.23125e-20)
(0.0419877 0.0431421 5.81275e-22)
(1.05659 0.337495 -5.69997e-21)
(0.969809 -0.492969 0)
(0.462186 0.0528883 2.49799e-23)
(0.303737 0.0309243 0)
(0.417935 -0.0899867 0)
(0.282013 0.175423 -1.97055e-20)
(0.731103 0.10064 3.84274e-21)
(0.586821 -0.320779 0)
(0.388362 0.236513 -2.9963e-21)
(0.484683 -0.285184 0)
(0.707735 0.026068 1.47603e-20)
(0.982299 0.459975 0)
(-0.0187226 -0.000709866 8.44759e-21)
(1.00428 -0.446428 1.18632e-21)
(0.623643 0.232754 -5.72288e-21)
(0.658706 -0.181134 -2.90843e-21)
(0.17698 -0.0375902 -9.73569e-21)
(0.898552 0.438603 -4.37457e-21)
(0.861852 0.408075 4.08242e-21)
(0.969432 -0.300826 -1.92513e-21)
(0.078215 -0.0572792 -5.50326e-21)
(0.922666 -0.286192 1.95325e-21)
(0.0893049 -0.0556584 5.14124e-21)
(1.03296 0.477943 7.54709e-21)
(1.07929 -0.438663 2.32257e-21)
(-0.0146623 -0.00405967 2.78222e-21)
(0.776653 0.342927 0)
(0.820138 -0.255023 4.96824e-21)
(0.11791 -0.0556444 -2.83663e-20)
(0.495956 0.258511 0)
(0.332403 -0.186034 9.12673e-21)
(0.66944 -0.0569842 -3.49369e-22)
(0.0879118 0.0893033 0)
(1.09526 0.271982 0)
(0.937627 -0.550689 0)
(0.969419 0.385062 0)
(0.969353 -0.393643 9.0725e-21)
(0.0405742 0.00243416 1.23566e-20)
(0.594449 0.260821 0)
(0.671516 -0.139296 0)
(0.217768 -0.0983535 0)
(0.69679 0.178906 0)
(0.646372 -0.274803 0)
(0.181807 0.063302 0)
(0.366164 0.231234 2.77253e-21)
(0.527242 -0.312529 0)
(0.72946 0.0475208 -7.95811e-21)
(0.283617 0.161756 1.90967e-20)
(0.707319 0.0971333 8.42213e-21)
(0.572982 -0.301158 -9.86184e-21)
(0.88314 0.290089 -8.73743e-21)
(0.845743 -0.372899 0)
(0.0876948 0.0332269 -2.89725e-20)
(0.255518 0.103636 0)
(0.630517 0.103353 -1.85459e-20)
(0.533069 -0.234635 -2.54552e-21)
(0.699115 -0.421836 -4.36855e-21)
(0.848127 0.134308 -8.64997e-21)
(0.748265 -0.439606 0)
(0.881082 0.167005 -4.97494e-21)
(0.260293 0.190557 -9.35289e-21)
(0.216625 0.161848 8.98268e-21)
(0.722595 0.147358 -1.16825e-21)
(0.631974 -0.306856 -5.10211e-21)
(0.210608 0.103239 5.53437e-21)
(1.06785 0.451731 3.27321e-21)
(-0.0120613 0.000182827 -3.23746e-21)
(1.05907 -0.46027 3.37497e-21)
(1.00317 0.46952 2.01023e-21)
(-0.0182034 -0.00118819 1.27024e-21)
(1.04318 -0.442088 0)
(0.979544 0.405708 -1.72237e-22)
(0.990605 -0.391458 0)
(0.033179 -0.00573718 -1.4927e-20)
(0.566342 0.334706 0)
(0.753089 -0.0709731 -2.01291e-21)
(0.340012 -0.225751 -5.30231e-21)
(0.6972 0.128645 -7.63694e-21)
(0.235394 0.121926 0)
(0.597819 -0.286794 0)
(-0.00528714 0.01066 0)
(1.03691 -0.490396 0)
(1.09386 0.413238 -2.66603e-21)
(0.527542 0.305861 0)
(0.72192 -0.0537591 4.4509e-21)
(0.35482 -0.218339 -1.37628e-21)
(0.254678 0.11903 0)
(0.648296 0.101912 0)
(0.539722 -0.251338 0)
(0.659987 0.157042 -3.84212e-21)
(0.610455 -0.252276 0)
(0.193732 0.0585525 0)
(0.739916 -0.248273 3.69905e-23)
(0.132844 -0.0204211 6.611e-21)
(0.74501 0.316465 -1.18311e-20)
(0.786049 -0.2404 0)
(0.129112 -0.0486585 2.93079e-20)
(1.06046 0.408512 6.57864e-21)
(0.00958978 0.010207 -9.31067e-21)
(1.03241 -0.457678 7.66939e-21)
(0.0739042 0.0737076 -8.49834e-21)
(1.06169 0.292643 -3.60497e-21)
(0.94101 -0.519034 -8.59086e-21)
(1.1066 0.327299 9.45381e-21)
(0.981385 -0.526268 0)
(0.0396558 0.0508985 8.33354e-21)
(0.562074 -0.388927 4.4945e-21)
(0.823856 0.0360941 -3.38733e-21)
(0.437083 0.321184 -9.1261e-21)
(0.651187 0.201666 7.53752e-21)
(0.907135 0.557173 -4.41573e-21)
(0.124975 -0.119157 5.65714e-21)
(1.07906 -0.251666 -1.32216e-23)
(0.994025 -0.529219 0)
(1.1158 0.349836 2.61035e-21)
(0.0247844 0.0376012 0)
(0.463184 0.08233 1.43493e-20)
(0.282585 0.00787948 0)
(0.451843 -0.0942469 -4.80084e-21)
(0.654963 0.295612 0)
(0.719087 -0.179999 2.83378e-22)
(0.183678 -0.0787204 -5.50559e-21)
(0.0877982 0.08657 -6.52025e-21)
(1.07012 0.278158 0)
(0.930812 -0.535013 9.89986e-21)
(0.689943 0.225357 0)
(0.721955 -0.255669 -1.21599e-20)
(0.13714 -0.00557937 0)
(-0.0175814 0.000581889 0)
(1.02696 -0.473076 -2.40443e-21)
(1.05852 0.446472 0)
(0.395634 0.292751 9.872e-21)
(0.833786 0.0553382 0)
(0.599166 -0.412273 0)
(1.08031 0.320358 -8.29217e-21)
(0.968693 -0.511985 0)
(0.0471887 0.0527228 4.32532e-23)
(0.798795 0.158122 -9.89631e-21)
(0.689475 -0.372443 -3.82819e-21)
(0.207432 0.132502 1.26704e-20)
(0.772862 0.362625 0)
(0.830534 -0.241201 -4.64688e-21)
(0.128614 -0.070604 -2.9601e-21)
(0.866488 -0.543479 1.29972e-20)
(1.03087 0.207929 6.5521e-21)
(0.167222 0.149828 -5.1208e-21)
(0.924823 0.17469 0)
(0.783377 -0.47228 5.31196e-21)
(0.210254 0.165101 1.85978e-22)
(-0.0174317 0.000897908 6.51669e-21)
(1.00282 -0.483465 0)
(1.06539 0.431625 1.95541e-21)
(0.458304 0.282511 -1.30753e-20)
(0.438833 -0.272435 6.60249e-21)
(0.72647 -0.00966866 6.38447e-22)
(0.906904 0.488378 -1.95853e-21)
(-0.015786 0.00092349 7.00722e-22)
(1.03005 -0.389441 0)
(0.298433 0.0629017 -2.9623e-21)
(0.504316 0.0519559 1.11017e-20)
(0.423749 -0.125568 -1.44861e-20)
(0.801152 0.200156 -3.9342e-21)
(0.777079 0.16724 -3.55131e-23)
(0.72606 -0.354345 9.34147e-21)
(0.682439 -0.350478 9.17116e-21)
(0.195052 0.113631 -1.00833e-20)
(0.157504 0.0867862 5.20944e-21)
(0.0823252 -0.0860833 1.20123e-20)
(0.941114 0.547881 -4.54302e-21)
(1.10156 -0.278615 0)
(0.735041 0.355651 0)
(0.806409 -0.209284 0)
(0.15909 -0.0899347 1.17466e-20)
(0.96302 0.201075 1.75046e-21)
(0.822519 -0.495731 0)
(0.179272 0.146274 0)
(0.937154 0.416068 -3.7792e-21)
(0.974235 -0.344959 0)
(0.051068 -0.0274025 -5.42931e-21)
(0.389815 0.0340084 -3.04526e-21)
(0.407256 -0.0224678 -4.39905e-21)
(0.348989 -0.0113646 1.52297e-21)
(0.860264 0.181881 6.33676e-21)
(0.748843 -0.415935 0)
(0.18881 0.134446 8.66692e-21)
(0.74185 0.376479 0)
(0.827796 -0.202805 -5.74408e-21)
(0.165685 -0.105129 7.52199e-21)
(0.708972 0.254443 -1.21552e-20)
(0.749743 0.2756 9.78795e-21)
(0.468502 0.298417 1.03442e-20)
(0.450034 -0.290156 -1.91211e-20)
(0.746119 -0.00584624 1.40171e-20)
(0.889602 0.20944 6.47625e-21)
(0.785983 -0.428342 -7.91264e-21)
(0.155046 0.111324 -7.90583e-21)
(0.96365 0.420973 1.38789e-20)
(0.0385089 -0.0181758 1.91947e-20)
(0.996413 -0.367154 4.33395e-21)
(0.389414 0.219125 4.55743e-21)
(0.460338 -0.264737 0)
(0.684058 0.0243461 -4.99192e-21)
(0.281316 0.21408 1.01038e-20)
(0.865418 0.124341 4.95459e-21)
(0.699977 -0.443685 0)
(0.840982 0.443101 1.42789e-21)
(0.937129 -0.243408 4.87041e-21)
(0.125165 -0.096098 -3.41295e-21)
(0.428799 0.287684 -8.47577e-22)
(0.512921 -0.332872 0)
(0.769927 0.0278039 -1.06264e-20)
(0.873142 0.464434 0)
(0.897489 0.464011 0)
(0.974776 -0.26107 3.0758e-21)
(0.110409 -0.0895843 8.88115e-21)
(0.989549 -0.287929 -4.34346e-21)
(0.0880245 -0.0706127 -9.42615e-21)
(-0.00304805 0.00676169 7.19586e-21)
(1.04596 -0.472234 0)
(1.0806 0.426179 3.99624e-21)
(0.824516 0.398317 0)
(0.889841 -0.262298 2.29249e-21)
(0.1104 -0.0696967 -3.0572e-21)
(0.900045 -0.421528 -2.4725e-21)
(-0.0151191 -0.000414868 -1.04019e-20)
(0.875752 0.441236 -3.37968e-21)
(0.581403 0.0712164 1.50111e-20)
(0.284116 0.101771 0)
(0.475544 -0.192408 5.35141e-21)
(0.804727 0.253046 -9.14298e-21)
(0.772238 -0.328335 0)
(0.116881 0.0381907 -1.71187e-20)
(0.017286 0.00604642 5.93974e-21)
(1.03483 0.405011 -1.21621e-20)
(1.01732 -0.436139 -5.98991e-21)
(0.617612 -0.400518 5.83655e-21)
(0.818169 0.0750251 0)
(0.348633 0.256498 1.22923e-20)
(0.889895 -0.543368 1.54882e-20)
(1.0472 0.232863 3.95636e-21)
(0.135146 0.123613 0)
(0.661516 -0.225591 6.29184e-21)
(0.161999 0.00249209 0)
(0.827788 0.30642 -9.85932e-21)
(0.818115 -0.313582 -4.28461e-21)
(0.0943502 -0.00259767 -5.23823e-21)
(0.649751 -0.240849 -2.20187e-22)
(0.164645 0.0196492 -2.8963e-23)
(0.989436 0.520424 9.15343e-21)
(0.0295539 -0.0414824 -1.40959e-20)
(1.10993 -0.344416 3.71858e-21)
(0.547322 -0.401295 -5.84913e-21)
(0.843265 0.0216 -1.06082e-21)
(0.474476 0.351984 0)
(0.862381 0.325261 1.00478e-20)
(0.861129 -0.333714 5.2263e-21)
(0.0801913 0.00284449 1.27195e-20)
(0.716153 0.173294 0)
(0.648495 -0.296432 3.73681e-21)
(0.186508 0.0795896 0)
(0.738681 0.0785908 4.9206e-21)
(0.565748 -0.331232 0)
(0.322024 0.200943 0)
(0.549227 0.181738 4.01676e-21)
(0.577784 -0.143954 6.9501e-21)
(0.215416 -0.0343646 -1.98147e-23)
(0.315937 0.239211 -1.25403e-20)
(0.850961 0.102321 -1.19906e-20)
(0.668909 -0.431164 -1.57183e-20)
(1.08 0.380466 4.90636e-21)
(1.01297 -0.481736 -6.48674e-21)
(0.0147359 0.0217266 -1.39935e-22)
(0.898455 -0.525824 -1.05259e-20)
(1.03661 0.247614 -4.0105e-21)
(0.117495 0.108297 -6.54527e-21)
(0.697369 0.457974 9.15852e-21)
(0.308541 -0.240504 -4.95004e-21)
(0.886962 -0.109761 0)
(0.908695 0.512269 -2.47882e-21)
(0.883805 0.496413 2.30896e-21)
(1.00637 -0.250623 9.71841e-22)
(1.0378 -0.263333 -4.00393e-21)
(0.105483 -0.0965964 3.24079e-21)
(0.120935 -0.106284 2.87686e-21)
(-0.0164185 0.000622724 1.05606e-20)
(0.942598 -0.411969 2.72335e-21)
(0.891273 0.449401 -1.33686e-21)
(0.923772 0.497366 1.39251e-22)
(-0.0146236 -0.000870739 0)
(1.06 -0.387065 0)
(0.842165 0.219981 1.46074e-20)
(0.770249 -0.377367 2.05504e-21)
(0.144336 0.0853228 0)
(0.00296636 0.00506132 1.7928e-20)
(1.06562 0.423071 -5.03197e-21)
(1.04702 -0.455627 0)
(0.780496 0.46316 -1.2854e-20)
(0.814495 0.471963 9.59475e-21)
(0.917231 -0.183464 -5.22571e-21)
(0.941826 -0.205083 -1.98939e-21)
(0.203643 -0.160204 5.68755e-21)
(0.171976 -0.137379 2.85128e-21)
(0.0147572 0.0297107 0)
(0.979236 -0.544636 0)
(1.14368 0.34215 -1.35283e-21)
(0.849452 0.482789 2.29959e-21)
(-0.0148964 0.00291305 -6.57512e-21)
(1.00305 -0.370491 0)
(0.474577 -0.00615511 2.5543e-23)
(0.363652 0.0820325 -6.5041e-21)
(0.350483 -0.0802833 -3.23876e-21)
(0.931213 0.465703 3.57828e-21)
(0.998608 -0.424073 -1.73554e-21)
(-0.0176125 0.000391887 -1.3132e-20)
(0.620358 0.351587 -1.1255e-20)
(0.769244 -0.107279 9.21191e-21)
(0.284831 -0.189353 4.24962e-23)
(1.10099 0.400222 -1.17185e-22)
(1.02707 -0.500355 -8.70178e-21)
(0.000972354 0.0158105 3.65585e-21)
(0.791961 -0.433584 -8.40022e-23)
(-0.012603 -0.00490312 1.19674e-20)
(0.85509 0.370625 9.62152e-22)
(0.415341 0.207926 6.08968e-21)
(0.386355 -0.196645 3.88404e-22)
(0.631374 -0.0104599 -1.60908e-20)
(0.532958 0.0794285 0)
(0.467001 -0.152094 1.60386e-20)
(0.270516 0.0591736 -8.26531e-21)
(1.0162 0.495152 -7.69176e-21)
(-0.0127247 -0.00637028 -8.29658e-21)
(1.09107 -0.423592 6.36677e-23)
(0.560075 0.0899915 0)
(0.485762 -0.173264 5.57909e-21)
(0.259283 0.074457 1.16883e-20)
(0.450717 -0.0024402 -6.6105e-21)
(0.360628 0.0612044 6.86854e-21)
(0.355348 -0.0613929 -1.71013e-21)
(0.378 0.292915 6.02379e-21)
(0.869695 0.0732573 4.18664e-21)
(0.647115 -0.452435 -8.62958e-21)
(0.551176 0.0259878 0)
(0.407485 -0.153773 0)
(0.331285 0.125264 -9.65924e-22)
(0.579118 0.0559092 -8.06291e-21)
(0.451099 -0.180506 -4.32326e-21)
(0.310535 0.122425 -1.36914e-22)
(0.659368 0.438332 -1.39395e-20)
(0.862246 -0.089085 6.8448e-21)
(0.345645 -0.268379 9.87863e-21)
(-0.0021446 -0.0122238 -1.25781e-20)
(-0.00583606 -0.00807906 1.27681e-20)
(1.09716 -0.41385 -2.3542e-21)
(1.08526 -0.429101 -1.69836e-21)
(1.03177 0.490946 -6.86122e-21)
(1.0438 0.479284 1.02633e-20)
(1.09721 0.380734 -6.10108e-21)
(1.01703 -0.494217 5.55476e-21)
(0.010608 0.0241056 0)
(0.295504 -0.244067 -6.38877e-21)
(0.730167 0.490201 -2.83697e-21)
(0.920814 -0.119958 0)
(0.48208 0.281787 0)
(0.395121 -0.241373 6.03218e-21)
(0.71132 -0.0293294 -4.94372e-21)
(0.939467 0.153 0)
(0.773697 -0.49527 -5.49654e-21)
(0.245034 0.196702 -1.92419e-22)
(0.863655 -0.484404 -2.1211e-21)
(-0.0153608 -0.0051874 0)
(1.00636 0.372976 3.25303e-21)
(0.0522458 0.0621001 0)
(1.12629 0.307535 0)
(0.965131 -0.556978 -3.86693e-21)
(1.03016 0.462991 -2.48322e-21)
(-0.0178846 -0.00122239 0)
(1.04924 -0.454842 2.35964e-21)
(-0.010613 -0.00377486 4.44594e-32)
(0.747647 -0.409982 8.47387e-22)
(0.789781 0.358903 -8.69e-22)
(0.7887 -0.359954 -9.2812e-22)
(-0.0106176 0.000490029 -4.43544e-32)
(0.749839 0.409241 7.88341e-22)
(0.85994 -0.428478 1.06247e-20)
(0.934115 0.26941 0)
(0.102186 0.0695084 1.68669e-20)
(0.949152 -0.529253 1.32474e-21)
(-0.0038339 0.0102123 0)
(1.1296 0.360049 0)
(0.991522 0.376487 6.14141e-21)
(0.971096 -0.416958 -5.59812e-21)
(0.0374482 0.0122809 -8.75206e-21)
(0.969909 0.54601 -8.80215e-21)
(0.0130035 -0.0286824 -5.05091e-21)
(1.15019 -0.343062 0)
(0.622967 0.208394 -3.07044e-21)
(0.176422 -0.010538 3.31544e-21)
(0.641579 -0.200653 -3.04094e-21)
(0.978534 -0.550853 0)
(0.0253091 0.0396512 -6.0663e-21)
(1.14126 0.331819 -1.65866e-21)
(0.914425 0.136069 4.82327e-21)
(0.272192 0.216919 3.43318e-21)
(0.743984 -0.480361 0)
(0.838297 -0.487627 0)
(0.964963 0.219965 0)
(0.151428 0.12596 -6.13026e-21)
(-0.00313156 -0.00157429 0)
(0.459554 -0.226851 4.70312e-23)
(0.458452 0.225322 -4.28477e-25)
(0.887776 -0.443738 -1.5936e-21)
(-0.0156119 -0.00224627 7.23939e-21)
(0.905491 0.424663 1.657e-21)
(0.583979 0.182178 7.94674e-21)
(0.196882 -0.0099736 -7.87397e-21)
(0.596104 -0.177563 -3.52386e-21)
(1.00077 -0.520644 -7.22547e-21)
(1.12704 0.376237 2.76524e-21)
(0.00226207 0.0197077 0)
(0.0119655 0.0266919 6.33851e-21)
(1.15262 0.340467 0)
(0.962347 -0.550283 5.45767e-21)
(1.04939 0.447791 3.67354e-21)
(0.00234298 -0.00371305 -1.92175e-20)
(1.06158 -0.431795 -7.28494e-21)
(0.0562674 -0.0610021 1.45057e-20)
(1.08956 -0.312961 -4.32546e-21)
(0.962153 0.523275 0)
(0.637495 0.44636 1.76306e-20)
(0.869081 -0.0714448 -8.72087e-21)
(0.389949 -0.3046 9.37273e-21)
(0.987992 -0.224698 -1.4337e-21)
(0.851929 0.502562 -5.51452e-21)
(0.156338 -0.133964 8.9138e-21)
(0.0495895 -0.0611881 1.29855e-20)
(0.964391 0.552123 0)
(1.13314 -0.310075 2.75156e-21)
(0.654498 0.339864 2.8341e-21)
(0.699831 0.367644 0)
(0.761375 -0.146103 9.66763e-21)
(0.804488 -0.168972 -1.03393e-20)
(0.22586 -0.134667 -6.17982e-21)
(0.203029 -0.130798 0)
(0.617553 0.332962 2.76511e-21)
(0.748016 -0.118746 0)
(0.263134 -0.162052 -2.93716e-21)
(0.766716 0.476607 0)
(0.920873 -0.16702 8.43519e-21)
(0.228823 -0.183381 -2.05113e-21)
(0.879048 -0.506286 5.30283e-21)
(1.00918 0.24128 -4.28861e-21)
(0.123464 0.106992 1.3412e-20)
(1.00347 -0.519432 0)
(1.10748 0.367732 -9.43215e-22)
(0.0146334 0.0295149 0)
(0.0844555 0.075248 4.33947e-21)
(1.02676 0.282788 2.616e-21)
(0.919531 -0.497323 3.42267e-21)
(0.843059 -0.365346 1.04149e-22)
(-0.0123053 0.00188226 -1.01681e-24)
(0.783984 0.430226 0)
(0.482808 0.226366 -5.53836e-21)
(0.493014 0.215905 0)
(0.306622 -0.144148 1.43334e-21)
(0.626544 -0.0625999 -1.95532e-20)
(0.283676 -0.120512 -1.81383e-21)
(0.611895 -0.0803808 1.24817e-20)
(0.702634 0.4324 0)
(0.654125 0.401713 1.80597e-21)
(0.295794 -0.213012 -2.01555e-23)
(0.861306 -0.134294 -5.46267e-21)
(0.267659 -0.196927 -1.49969e-20)
(0.822986 -0.111745 1.16546e-20)
(0.77102 -0.449124 0)
(-0.0133641 -0.00718629 -1.30474e-20)
(0.896106 0.357501 0)
(1.00761 -0.514096 4.49034e-21)
(1.11988 0.379753 -9.21108e-22)
(0.00346098 0.0193046 -3.83787e-21)
(0.510187 0.325702 3.39084e-21)
(0.432331 -0.292465 6.84634e-21)
(0.766786 -0.0243022 -1.57692e-20)
(0.836657 -0.522988 -1.16323e-20)
(0.995257 0.192735 -1.10271e-20)
(0.187004 0.161451 0)
(0.0708523 -0.0733212 -1.55121e-20)
(1.0783 -0.298479 4.60076e-21)
(0.947861 0.524147 0)
(0.964205 -0.467004 0)
(1.00463 0.433775 0)
(-0.0185182 -0.00147952 0)
(0.973477 -0.481294 0)
(1.03733 0.42305 -3.65692e-21)
(-0.0180505 -0.000724196 0)
(0.814058 0.451283 5.34865e-21)
(0.924979 -0.220884 -3.03132e-21)
(0.153962 -0.118431 -4.2203e-21)
(0.362302 0.197458 1.6049e-21)
(0.470877 -0.253108 0)
(0.66559 0.0401773 -5.35475e-21)
(1.05351 0.458024 -4.28022e-21)
(-0.00291922 -0.00415835 -1.11543e-20)
(1.07497 -0.435593 1.04641e-20)
(0.875007 -0.454383 0)
(0.962412 0.270816 0)
(0.0999615 0.0794861 -1.45451e-20)
(0.0291879 -0.0217423 -3.66612e-21)
(1.02947 -0.375816 -7.3401e-21)
(0.986096 0.448687 -1.26137e-20)
(0.625431 0.392343 -1.83968e-21)
(0.329521 -0.236735 1.00408e-20)
(0.811257 -0.0930214 -6.00647e-21)
(0.778662 0.133926 9.57068e-21)
(0.650774 -0.358764 -5.6805e-21)
(0.246704 0.157196 -1.23632e-20)
(0.445704 0.247175 -1.05573e-22)
(0.402288 -0.233461 1.98934e-21)
(0.681594 -0.0161483 6.47666e-21)
(-0.00657682 0.00166322 4.35518e-21)
(1.0622 -0.459444 -4.54187e-21)
(1.0696 0.443808 -4.40249e-21)
(0.931343 0.442617 2.39553e-21)
(0.993865 -0.328264 2.2792e-21)
(0.0586887 -0.0424679 0)
(0.425054 0.199486 6.00597e-21)
(0.356799 -0.167934 -1.25988e-20)
(0.61119 -0.0251581 1.0631e-20)
(0.965927 0.55753 -3.61807e-21)
(0.0374171 -0.0514224 -5.74951e-21)
(1.14932 -0.318826 -1.43456e-22)
(0.589496 0.281809 3.44908e-21)
(0.688941 -0.128423 0)
(0.236067 -0.121471 0)
(0.633146 0.132145 1.42755e-20)
(0.563842 -0.23225 -3.43606e-21)
(0.221588 0.0776191 0)
(0.828986 -0.457381 0)
(0.935787 0.223505 -9.26023e-21)
(0.141896 0.113047 6.41944e-21)
(0.949209 0.518548 0)
(-0.00854012 -0.00791755 1.76916e-21)
(1.11293 -0.376463 -2.07607e-21)
(0.946696 0.531502 -3.19854e-21)
(-0.002769 -0.0128557 -5.65054e-21)
(1.13042 -0.359766 2.39462e-21)
(0.0327954 -0.0311614 -3.33515e-21)
(1.0448 -0.36143 4.16446e-21)
(0.981679 0.466156 1.16266e-20)
(0.804777 0.118903 4.31645e-21)
(0.661499 -0.38988 1.14025e-20)
(0.273182 0.183527 0)
(-0.0114948 -0.00260701 -1.62065e-21)
(1.08638 -0.372972 1.94441e-21)
(0.906546 0.508385 0)
(0.027606 0.0143407 0)
(0.992947 -0.437113 4.39657e-21)
(1.02246 0.383318 1.42375e-21)
(-0.00802639 -0.00535043 -6.5345e-21)
(0.637154 -0.38479 -1.20455e-21)
(0.709647 0.300758 0)
(0.637594 0.382971 1.1151e-21)
(0.709498 -0.301884 0)
(-0.00789314 0.00186376 -6.54239e-21)
(0.0453372 -0.0549573 1.40173e-24)
(1.11598 -0.322905 4.94365e-22)
(0.970815 0.537717 0)
(-0.01434 0.00261042 0)
(1.04272 -0.476315 0)
(1.07675 0.439667 -5.38115e-21)
(1.02254 0.491335 3.89208e-21)
(1.01659 0.481025 -3.14851e-21)
(0.00678788 -0.0201631 6.31537e-21)
(1.09888 -0.390909 8.04349e-22)
(0.0118929 -0.0212925 0)
(1.08102 -0.388659 0)
(1.02909 0.363453 -2.79531e-21)
(0.980274 -0.453594 -2.9782e-21)
(0.0332549 0.0250016 0)
(0.229958 0.195878 0)
(0.803031 -0.524223 0)
(0.978123 0.165704 0)
(0.482608 0.17862 -7.47393e-21)
(0.267807 -0.0827998 1.73789e-20)
(0.567349 -0.0878932 -6.91727e-21)
(1.01453 0.314318 -8.09194e-21)
(0.935661 -0.470649 -1.15214e-21)
(0.0609451 0.0521136 -1.27923e-20)
(0.0788608 0.0665155 -8.30858e-21)
(1.00544 0.294666 1.12571e-20)
(0.914292 -0.475925 1.59767e-21)
(0.947992 0.563923 -4.40997e-21)
(0.0718827 -0.0803079 -6.21198e-21)
(1.12857 -0.284647 0)
(0.717771 0.45139 0)
(0.884392 -0.136142 -2.50383e-21)
(0.268221 -0.206035 1.47006e-20)
(0.655947 0.377914 0)
(0.800256 -0.121619 -1.20963e-20)
(0.271391 -0.1893 9.04702e-24)
(0.925985 0.304416 1.10997e-20)
(0.882614 -0.405157 -1.4556e-21)
(0.0759988 0.0384056 7.35155e-21)
(0.947277 0.298636 0)
(0.888388 -0.424521 -1.37812e-21)
(0.0787474 0.0488747 -6.73315e-21)
(0.398214 0.171708 0)
(0.363196 -0.154335 1.98766e-20)
(0.581429 -0.0140252 0)
(0.712021 0.387274 0)
(0.823743 -0.168329 6.70225e-21)
(0.206273 -0.143864 -2.22649e-21)
(0.0382448 0.0510916 1.31293e-20)
(0.962906 -0.562913 8.63515e-21)
(1.14882 0.315018 0)
(1.05887 0.402572 7.57525e-23)
(-0.0162269 -0.000886405 -4.01195e-21)
(0.937814 -0.49565 -1.59541e-21)
(1.04917 0.379206 2.40621e-22)
(-0.0150754 -0.00265687 0)
(0.902977 -0.49592 4.45501e-21)
(0.534547 0.291421 -4.10466e-21)
(0.322189 -0.187813 2.15839e-21)
(0.700978 -0.0728436 1.70582e-22)
(0.912131 -0.458774 -2.33674e-22)
(-0.017297 -0.00299365 -1.6603e-20)
(0.973364 0.416967 0)
(0.956512 0.467258 -1.01858e-20)
(0.0488209 -0.0424308 0)
(1.02931 -0.33713 0)
(-0.0157331 -0.0052153 6.58174e-21)
(0.860294 -0.472561 2.00133e-21)
(0.968738 0.383938 -2.39469e-21)
(0.510501 0.105128 -9.96961e-21)
(0.257385 0.0229757 -1.05064e-20)
(0.48498 -0.1294 -4.84189e-23)
(0.770541 0.305122 1.72085e-21)
(0.790448 -0.268868 1.59002e-21)
(0.116545 -0.0249931 6.71867e-21)
(0.616079 -0.372733 -1.30927e-20)
(0.784271 0.094554 -1.57025e-20)
(0.311349 0.207096 0)
(-0.000455009 0.0149908 0)
(0.967509 -0.53142 1.75548e-21)
(1.13526 0.36381 0)
(0.860212 -0.467052 0)
(0.964093 0.25324 0)
(0.115812 0.0937521 0)
(0.0214547 -0.0369684 0)
(0.979376 0.544602 3.16664e-21)
(1.14602 -0.339437 -2.64379e-21)
(0.814628 0.32467 0)
(0.826438 -0.295867 -8.07858e-22)
(0.0989157 -0.0177076 -4.24951e-24)
(0.464562 0.15815 7.21943e-21)
(0.275033 -0.0716466 -1.49241e-20)
(0.542006 -0.080562 0)
(0.996149 -0.518904 6.82955e-21)
(1.11768 0.388485 -2.62846e-21)
(-0.00472043 0.0125769 0)
(0.0195828 -0.00293474 7.64666e-21)
(1.0195 -0.417031 -2.76776e-22)
(1.015 0.420789 -2.66384e-22)
(0.987828 0.497263 0)
(0.97336 0.493478 -2.81338e-21)
(-0.0136912 -0.00476599 -4.05883e-21)
(-0.015815 -0.00246894 5.02179e-21)
(1.08776 -0.407342 1.42412e-21)
(1.06988 -0.413372 -1.17125e-21)
(0.770249 0.207696 0)
(0.709827 -0.329039 -1.0881e-20)
(0.155924 0.0700081 -8.14777e-21)
(0.822984 -0.406438 -1.49426e-20)
(0.897561 0.248004 0)
(0.116128 0.0759546 8.91396e-21)
(0.594638 0.147178 8.11417e-21)
(0.56347 -0.197628 -5.83053e-21)
(0.204912 0.0354872 -1.28608e-20)
(0.961005 -0.510292 -3.89086e-21)
(1.09323 0.394258 -2.80075e-21)
(0.94317 -0.519828 1.78546e-21)
(-0.0132958 0.00287545 4.24966e-21)
(1.10572 0.374742 2.62569e-21)
(-0.00957514 0.00417423 0)
(0.901108 0.364508 0)
(0.909665 -0.350068 0)
(0.0646741 -0.00775591 -8.31248e-21)
(1.10453 0.403305 -3.08478e-21)
(1.09434 0.405033 7.8609e-21)
(1.00718 -0.506199 -2.54627e-21)
(0.992415 -0.502543 6.7153e-21)
(-0.0108324 0.00738876 -1.12293e-20)
(-0.0139357 0.00399852 7.39389e-24)
(0.872375 0.230052 0)
(0.791118 -0.406389 1.4103e-20)
(0.142201 0.0965269 -1.15558e-20)
(0.721823 0.232879 -7.51913e-21)
(0.738083 -0.281569 9.68731e-21)
(0.126374 0.0110356 0)
(0.974606 0.535425 0)
(0.00290692 -0.0198518 -7.80497e-22)
(1.13839 -0.362942 -2.30106e-21)
(0.774346 0.229228 -5.52203e-21)
(0.730351 -0.317351 0)
(0.138055 0.0511433 1.35077e-20)
(0.638844 0.174988 -3.26961e-21)
(0.613583 -0.229436 6.84206e-21)
(0.181965 0.0316992 -7.46639e-21)
(0.972453 0.50951 0)
(-0.00973589 -0.00789529 0)
(1.10994 -0.393108 3.2466e-21)
(0.823602 0.34864 0)
(0.857592 -0.286691 -1.64164e-21)
(0.0936297 -0.0341304 8.27227e-21)
(0.727614 -0.48898 0)
(0.915412 0.119961 0)
(0.305478 0.246213 4.41446e-22)
(0.624961 0.406555 4.51502e-22)
(0.827139 -0.0811552 0)
(0.351146 -0.259975 -7.74343e-21)
(0.913532 -0.562042 -5.99019e-21)
(0.116005 0.112715 0)
(1.0847 0.247778 0)
(-0.00592561 -0.00170047 1.57203e-20)
(0.602607 -0.299449 -6.58804e-23)
(0.602087 0.298213 6.00202e-25)
(0.795516 0.272966 0)
(0.773503 -0.305246 -5.94538e-21)
(0.111735 0.0148386 0)
(1.00569 0.516804 -6.07427e-21)
(0.0019804 -0.0192821 -2.13138e-20)
(1.12294 -0.379516 5.563e-21)
(0.469287 -0.353295 0)
(0.849192 -0.0251839 5.77344e-21)
(0.555179 0.399548 0)
(0.757626 0.445052 0)
(-0.01293 0.00427112 3.90908e-21)
(0.891747 -0.351923 0)
(0.298851 0.145055 -7.94681e-21)
(0.314248 0.168418 8.12845e-21)
(0.498222 -0.242495 0)
(0.641473 0.0704478 -6.80743e-21)
(0.515863 -0.270543 1.26852e-20)
(0.672997 0.0657107 5.42758e-21)
(0.590526 0.123578 -7.63429e-21)
(0.533616 -0.195532 -7.83027e-21)
(0.228144 0.0599939 0)
(0.375816 0.188687 -7.01822e-21)
(0.335437 0.161176 0)
(0.426088 -0.215107 0)
(0.631513 0.0164597 0)
(0.446075 -0.211813 7.25234e-21)
(0.617341 0.0385498 -4.67491e-23)
(0.760629 0.259814 -4.74636e-22)
(0.697043 -0.273241 4.27011e-21)
(0.14558 0.0265105 9.19256e-21)
(0.727447 0.218702 1.29158e-20)
(0.695633 -0.285552 0)
(0.151586 0.0422064 0)
(-0.0114835 -0.000280803 0)
(0.900568 -0.513743 0)
(1.08402 0.365409 -2.30445e-21)
(0.575172 0.303523 1.12736e-20)
(0.712263 -0.0979566 0)
(0.281838 -0.163174 -3.99535e-21)
(1.09324 0.4189 7.32768e-21)
(1.0304 -0.493708 -3.2387e-21)
(-0.0114178 0.00693334 6.41155e-21)
(0.942534 0.334285 0)
(0.974485 0.349841 -5.9088e-21)
(0.914644 -0.399502 1.81475e-21)
(0.94369 -0.415855 -5.53634e-21)
(0.0588792 0.0237822 9.1361e-21)
(0.0479359 0.02242 8.44803e-21)
(0.561738 0.27806 0)
(0.683589 -0.105032 0)
(0.26694 -0.142299 -1.89506e-21)
(0.754535 0.435237 -4.3509e-21)
(0.880781 -0.175513 0)
(0.208535 -0.155335 -4.89674e-21)
(0.877372 0.317125 3.17465e-21)
(0.861388 -0.358512 0)
(0.0771818 0.0169194 -8.39996e-21)
(0.401218 0.10399 -7.84027e-21)
(0.488939 -0.038173 -3.79872e-21)
(0.31607 -0.0697133 -4.01889e-21)
(0.988406 0.32213 0)
(0.92829 -0.445776 0)
(0.0601636 0.0433075 1.36028e-20)
(0.457439 0.18226 0)
(0.296685 -0.110381 -2.19419e-21)
(0.575076 -0.0631641 0)
(0.867629 0.250506 7.21431e-21)
(0.80165 -0.387776 7.82903e-21)
(0.119586 0.0660592 1.15869e-21)
(0.752935 0.412978 -4.39192e-21)
(0.863255 -0.188358 -7.63603e-21)
(0.187187 -0.135992 0)
(0.414055 0.130214 7.77124e-21)
(0.395309 0.132881 3.46945e-21)
(0.51764 -0.0468328 -3.69958e-21)
(0.310313 -0.0862093 7.955e-21)
(0.531399 -0.0292382 0)
(0.333127 -0.109863 1.41624e-20)
(0.361417 0.149632 3.50872e-21)
(0.391378 -0.166627 -9.26424e-21)
(0.337528 0.148415 -2.25793e-21)
(0.574822 0.00966805 0)
(0.43703 -0.197228 -4.63189e-21)
(0.599012 0.0347148 7.79472e-21)
(0.641752 0.316572 -4.08799e-21)
(0.683001 0.325542 0)
(0.735851 -0.15301 -7.28455e-21)
(0.757437 -0.181052 5.68716e-21)
(0.212177 -0.115499 1.78671e-20)
(0.181569 -0.0930427 -1.48589e-20)
(0.0470864 -0.0506161 0)
(1.07123 -0.329159 2.50529e-21)
(0.967886 0.501778 5.88329e-21)
(0.333086 0.259183 -1.49141e-20)
(0.878968 0.098956 -6.60368e-21)
(0.684385 -0.459702 1.35604e-20)
(0.0316603 -0.0397418 7.22725e-21)
(0.0242018 -0.0311286 0)
(1.08583 -0.351257 -2.16736e-21)
(1.07235 -0.367618 -3.80774e-21)
(0.986561 0.504854 -1.48863e-20)
(0.997379 0.486759 7.71188e-21)
(0.449047 0.312832 0)
(0.521458 -0.352223 7.43794e-21)
(0.79341 0.0204112 -1.55962e-21)
(0.396502 0.0593608 -1.65324e-20)
(0.329263 -0.0274617 0)
(0.434095 -0.0333749 1.30295e-20)
(0.998946 0.344674 2.7736e-21)
(0.951137 -0.440871 6.25119e-21)
(0.0469002 0.0313422 0)
(0.513579 0.249895 0)
(0.297108 -0.15647 1.8057e-21)
(0.65445 -0.0750322 6.34133e-21)
(0.778603 0.420202 0)
(0.881787 -0.205934 0)
(0.16641 -0.120529 1.17467e-21)
(0.928791 0.504757 0)
(0.928027 0.48568 0)
(1.0455 -0.291953 -1.41581e-21)
(0.0817351 -0.0767659 8.89248e-21)
(1.02816 -0.300087 3.86211e-21)
(0.0746729 -0.0668975 -1.20386e-20)
(0.93252 0.364873 -5.95638e-21)
(0.932538 -0.371767 -5.88325e-21)
(0.052952 0.00158722 -3.97837e-21)
(0.829082 0.457947 -2.57169e-21)
(0.946869 -0.376988 0)
(-0.0149592 0.00285807 4.79722e-21)
(0.494793 -0.361823 0)
(0.831523 -0.00685218 -4.70569e-21)
(0.515174 0.368551 0)
(0.588321 0.412337 -4.55694e-21)
(0.566867 0.388081 4.9432e-21)
(0.424185 -0.31891 4.81273e-21)
(0.845018 -0.0469222 0)
(0.424379 -0.308099 0)
(0.820908 -0.0437458 0)
(1.00535 0.262291 9.7733e-21)
(0.890537 -0.494863 -1.20032e-20)