/*--------------------------------*- C++ -*----------------------------------*\
  =========                 |
  \\      /  F ield         | OpenFOAM: The Open Source CFD Toolbox
   \\    /   O peration     | Website:  https://openfoam.org
    \\  /    A nd           | Version:  6
     \\/     M anipulation  |
\*---------------------------------------------------------------------------*/
FoamFile
{
    version     2.0;
    format      ascii;
    class       volScalarField;
    location    "0";
    object      p;
}
// * * * * * * * * * * * * * * * * * * * * * * * * * * * * * * * * * * * * * //

dimensions      [0 2 -2 0 0 0 0];

internalField   nonuniform List<scalar> 
13046
(
0.475424
0.366426
0.432058
0.456476
0.452718
0.374608
0.451543
0.369435
0.457336
0.477672
0.0982461
0.39765
0.47894
0.326742
0.43868
0.50672
0.380353
0.141763
0.472005
0.404831
0.418575
0.498909
0.39053
0.135041
0.46521
0.392077
0.431389
0.480715
0.327102
0.432013
0.490281
0.352656
0.421544
0.460453
0.43647
0.397575
0.451255
0.443028
0.406866
0.498546
0.385093
0.369414
0.431327
0.445544
0.426259
0.435967
0.446812
0.416542
0.468934
0.360559
0.437112
0.329262
0.514634
0.362973
0.326152
0.366165
0.509102
0.238466
0.52848
0.363095
0.448704
0.281223
0.465006
0.41716
0.18097
0.484881
0.533594
0.250287
0.353045
0.532793
0.261002
0.355359
0.221694
0.532839
0.35998
0.475085
0.40933
0.408337
0.372264
0.521262
0.20645
0.462978
0.383421
0.43644
0.411638
0.164171
0.48411
0.444987
0.447457
0.180997
0.469184
0.400697
0.15736
0.490704
0.482423
0.26279
0.250059
0.427029
0.433217
0.458908
0.432817
0.18881
0.439829
0.453179
0.404326
0.4949
0.39224
0.342517
0.500472
0.356825
0.37445
0.459059
0.38612
0.0269591
0.478907
0.340123
0.435538
0.502182
0.498673
0.240297
0.410559
0.259119
0.41516
0.476406
0.081103
0.393273
0.488484
0.288061
0.433972
0.50092
0.390382
0.360146
0.473173
0.40111
0.177467
0.474072
0.221844
0.437656
0.495869
0.340203
0.419292
0.442059
0.339511
0.467125
0.50199
0.34231
0.379339
0.491789
0.400887
0.351339
0.455895
0.264516
0.460915
0.483886
0.417286
0.367733
0.296658
0.384329
0.282778
0.392226
0.501819
0.497379
0.426131
0.32378
0.484706
0.463138
0.412756
0.0992937
0.471002
0.385169
0.04597
0.477437
0.211495
0.431584
0.515912
0.330406
0.379079
0.421645
0.485965
0.334243
0.428196
0.119116
0.447168
0.512303
0.344073
0.376018
0.48625
0.410437
0.359944
0.443275
0.345655
0.465502
0.312181
0.448906
0.48668
0.301304
0.432517
0.463618
0.430005
0.162096
0.471527
0.415474
0.193367
0.421887
0.1576
0.456593
0.310582
0.343468
0.519917
0.45962
0.523665
0.361876
0.210648
0.140327
0.424348
0.454628
0.444513
0.450583
0.401908
0.487288
0.334596
0.425389
0.478308
0.403032
0.193595
0.462097
0.318708
0.45644
0.410946
0.0631946
0.449848
0.515961
0.351092
0.300404
0.423393
0.178075
0.460644
0.404469
0.306347
0.493389
0.49336
0.29039
0.426074
0.217377
0.384845
0.491222
0.38906
0.263745
0.495637
0.413232
0.0572763
0.44025
0.509147
0.366482
0.355272
0.484994
0.37166
0.010547
0.465263
0.431188
0.395281
0.431084
0.415356
0.300545
0.315578
0.487528
0.474153
0.363813
0.525719
0.18756
0.500129
0.302578
0.417618
0.391151
0.246024
0.497383
0.488992
0.230955
0.422404
0.439227
0.423263
0.440805
0.404758
0.285393
0.493056
0.506041
0.294253
0.410401
0.471422
0.474174
0.515671
0.357981
0.345669
0.412409
0.271514
0.48753
0.483923
0.423256
0.219119
0.506012
0.366911
0.372672
0.509689
0.371239
0.287575
0.51419
0.255545
0.394519
0.51998
0.335718
0.352513
0.514179
0.506657
0.24354
0.392755
0.235992
0.401859
0.42387
0.132438
0.456897
0.497845
0.273911
0.415069
-0.0264439
0.389132
0.441792
0.422638
0.480261
0.369935
0.453068
0.295496
0.461758
0.434018
0.465419
0.183237
0.315125
0.361138
0.508936
0.205712
0.390666
0.48813
0.340391
0.452049
0.469188
0.288372
0.448291
0.334501
0.462452
0.511351
0.381616
0.157905
0.314878
0.329336
0.526087
0.470349
0.275555
0.443845
0.429366
0.331849
0.478682
0.383204
0.335549
0.503841
0.467856
0.364973
0.442693
0.510217
0.367572
0.291999
0.447984
0.160343
0.439005
0.213478
0.398465
0.482092
0.530048
0.347856
0.286711
0.523046
0.521299
0.233389
0.218302
0.375391
0.37971
0.379888
-0.0119748
0.457993
0.488791
0.372863
0.0239596
0.434422
0.287687
0.471611
0.422568
0.468604
0.147679
0.520901
0.521676
0.271204
0.259255
0.377897
0.379993
0.443824
0.108281
0.416944
0.483648
0.363869
-0.00382125
0.412857
0.463316
0.420552
0.469702
0.0108347
0.376177
0.516348
0.32096
0.383459
0.441662
0.124238
0.436083
-0.0202949
0.388434
0.413183
0.492966
0.385936
0.382576
0.434657
0.392716
0.460747
0.481385
0.393232
0.0792849
0.430057
0.38227
0.466306
0.418887
0.456016
0.425915
0.518154
0.346909
0.294724
0.409395
0.400567
0.473553
0.418166
0.37537
0.482921
0.529011
0.297558
0.344326
0.399172
0.408714
0.127808
0.122649
0.48427
0.476178
0.440897
0.148467
0.43869
0.348977
0.532089
0.272044
0.508768
0.367942
0.356164
0.376991
0.253376
0.502234
0.0154198
0.409202
0.407881
0.465838
0.406099
0.148672
0.46675
0.394203
0.0614292
0.38211
-0.0333605
0.417224
-0.0522028
0.376702
0.442337
0.254155
0.435805
0.467736
0.0689425
0.431158
0.411846
0.463905
0.215716
0.442977
0.5158
0.360585
0.105769
0.466179
0.444573
0.350148
0.122642
0.451124
0.414365
0.371432
0.506515
0.262916
0.243104
0.398985
0.492164
0.373196
-0.0961961
0.395428
-0.00988881
0.390333
0.426967
0.464675
0.449311
0.358265
0.108674
0.427496
0.43629
0.447264
0.405557
0.0955683
0.475032
0.416454
0.152257
0.380674
0.186793
0.512683
0.530117
0.2981
0.340506
0.243037
0.522212
0.379136
0.364985
0.522111
0.155451
0.505642
0.509908
0.31987
0.303798
0.402247
0.404146
0.508747
0.327693
0.394687
0.524
0.269616
0.372965
0.225772
0.403428
0.481906
0.139762
0.428644
0.45142
0.47053
0.420876
0.211434
-0.0503263
0.377484
0.452252
0.492683
0.486514
0.407955
0.367605
0.416279
0.36922
0.524549
0.518617
0.36921
0.290378
0.374027
0.309748
-0.0211351
0.403693
0.400866
0.118941
0.430386
0.439448
0.519433
0.347545
0.338906
0.233517
0.38421
0.494403
0.378727
0.196753
0.515619
0.0235462
0.442081
0.3974
0.0386952
0.438175
0.404748
0.513856
0.264421
0.39414
0.503502
0.364873
0.383233
0.477954
0.409431
0.133237
0.245746
0.424389
0.473938
0.418858
0.198202
0.487983
0.517353
0.367089
0.316629
0.399135
0.314267
0.496821
0.502845
0.375946
0.366371
0.413891
0.122135
0.467046
0.497025
0.22788
0.4127
0.490999
0.397342
0.381551
0.520911
0.359008
0.137875
0.493685
0.343485
0.412006
0.433151
0.353965
0.47653
0.2553
0.411924
0.482777
0.501878
0.363406
0.0573494
0.507828
0.359657
0.0683932
0.410126
0.194916
0.495176
0.389404
0.31061
0.498794
0.356888
0.0344955
0.496734
0.440225
0.19604
0.462806
0.389331
-0.0507512
0.398354
0.437389
-0.0600645
0.367654
0.376481
0.163059
0.515657
0.416272
0.0872836
0.453458
0.498898
0.495374
0.392521
0.141978
0.400329
0.160554
0.45123
0.199262
0.447607
0.504066
0.246556
0.370162
0.480737
0.42574
0.374358
0.434604
0.21215
0.464265
0.470743
0.427827
0.220393
0.528127
0.359347
0.167227
0.526502
0.281689
0.368616
0.520289
0.309958
0.378857
0.447464
0.256431
0.460101
0.440157
0.24731
0.465252
0.488931
0.396435
0.391739
0.511093
0.297101
0.400778
0.464492
0.125391
0.399622
0.420918
0.416684
0.0360921
0.414684
0.412254
0.0335173
0.504398
0.389935
0.348348
0.00735011
0.396336
0.43063
0.500418
0.407341
0.208536
0.402533
0.00686676
0.411944
0.449091
0.457029
0.384192
0.479552
0.301471
0.440336
0.318813
0.380624
0.505202
0.437266
0.080964
0.415587
0.242081
0.41698
0.481769
0.364345
0.516903
0.126351
0.474911
0.291531
0.443727
0.474545
0.430429
0.382439
0.0891031
0.426982
0.433033
0.429933
0.190328
0.47288
0.48944
0.48372
0.379157
0.379623
0.0603529
0.0437699
0.434251
0.312911
0.476239
0.265577
0.435077
0.469109
0.441963
0.363995
0.464782
0.0563264
0.420429
0.0559542
0.423973
0.414704
0.427919
0.47323
0.2549
0.4442
0.436441
0.434554
0.0836135
0.0669548
0.424053
0.417722
0.418625
0.282022
0.484409
0.449315
0.3134
0.454142
0.50666
0.368634
0.0937001
0.446958
0.304234
0.470414
0.448707
0.343734
0.463584
0.497041
0.367277
0.0689559
0.489162
0.274565
0.430714
0.270629
0.357106
0.511038
0.524755
0.307854
0.357337
0.185967
0.486094
0.387927
0.376592
-0.0788234
0.406812
0.461813
0.299141
0.455266
0.503754
0.379298
0.113309
0.327055
0.313117
0.527377
0.461254
0.359767
-0.0260892
0.489627
0.494003
0.363929
0.402604
0.355638
0.397849
0.43694
0.365616
0.469859
0.493728
0.485964
0.376179
0.390383
0.382776
0.396579
0.461789
0.324624
0.4649
0.445681
0.324201
0.469587
0.426724
0.0387488
0.404499
0.506799
0.339766
0.393347
0.44548
0.0964288
0.421696
0.458816
0.460294
0.242602
0.225147
0.449652
0.446457
0.497174
0.351459
0.403365
0.519632
0.282004
0.382163
0.458696
0.269118
0.455334
0.465172
0.404635
0.423456
0.442439
0.224678
0.461288
0.485051
0.412016
0.381085
0.433505
0.281218
0.476259
0.512353
0.289978
0.390982
0.46846
0.474006
0.397713
0.423995
0.401015
0.414322
0.486279
0.387602
0.483245
0.40093
0.391789
0.400481
0.498722
0.498796
0.326422
0.318108
0.411643
0.415485
0.389295
0.189099
0.509555
0.513281
0.358124
0.283203
0.393227
0.401817
0.17354
0.176818
0.504075
0.496951
0.518337
0.332509
0.344956
0.451168
0.434533
0.415858
0.450905
0.215333
0.453589
0.50007
0.402573
0.35609
0.511141
0.28163
0.394854
0.514413
0.510607
0.211205
0.38837
0.216593
0.395582
0.472744
0.241312
0.439986
0.467901
-0.0110836
0.36404
0.323123
0.326291
0.52421
0.527731
0.520981
0.334516
0.310107
0.345886
0.319761
0.41397
0.223992
0.478333
0.517985
0.292936
0.380956
0.522706
0.337986
0.3342
0.517102
0.514309
0.353068
0.371215
0.334198
0.328019
0.519754
0.352415
0.320843
0.462778
0.249739
0.448931
0.483186
0.408112
0.390946
0.491483
0.386509
0.0921421
0.525583
0.337439
0.324654
0.509582
0.503972
0.281282
0.269505
0.402321
0.409336
0.384412
0.109408
0.49594
0.502409
0.375176
0.098048
0.499044
0.37467
0.0850818
0.506658
0.397743
0.205049
0.513169
0.30484
0.387739
-0.0245707
-0.171126
0.103093
-0.0258357
-0.0601604
0.0183133
-0.138686
0.0511762
-0.250351
-0.0704492
-0.0726095
-0.292538
-0.0756526
-0.0808425
-0.267812
-0.136749
0.00185608
-0.252407
-0.195762
-0.131174
-0.228271
-0.242854
-0.0341718
0.346781
0.108335
-0.161245
-0.0399525
-0.301261
-0.195082
-0.0648047
-0.294538
-0.144676
-0.224648
-0.253561
-0.290822
-0.219843
0.0653555
-0.0468146
-0.0230057
0.0572521
-0.260555
0.355044
-0.271632
-0.0804143
0.164894
-0.297167
-0.291472
-0.290993
-0.284006
-0.282785
0.148876
-0.227927
-0.136576
-0.2976
-0.288514
0.138621
-0.129969
-0.21825
-0.292674
-0.0909736
-0.28784
-0.26629
0.116371
0.060761
-0.232038
-0.124557
-0.206233
0.294259
-0.0421058
0.100632
-0.358969
-0.319314
-0.175781
-0.103483
-0.330249
-0.255457
-0.104313
-0.298969
-0.0820864
0.017125
-0.239895
-0.247025
-0.270779
-0.181771
-0.329725
-0.0771303
-0.328422
-0.0146382
-0.279698
0.171492
-0.164606
-0.0984651
0.102954
-0.24927
-0.101249
-0.0130242
-0.269673
-0.29088
-0.100942
-0.363873
-0.157423
-0.024493
0.180127
0.308721
-0.160612
-0.00137542
-0.289601
-0.153084
-0.270025
0.0618254
-0.0109208
-0.134418
-0.239817
-0.331454
0.0656888
0.11507
-0.295685
-0.0196536
-0.36075
-0.254885
-0.255686
0.235704
0.303056
-0.0956446
-0.177271
-0.157433
-0.296466
0.220128
0.00157744
-0.110757
-0.372189
0.171613
-0.269278
0.0628995
-0.0248562
0.0190551
-0.269369
-0.395328
-0.243666
-0.135835
-0.129764
-0.0701532
0.0261684
-0.189558
0.11891
-0.290746
-0.187559
0.0419207
-0.246088
-0.275348
-0.290016
-0.13351
-0.0327591
0.00921353
-0.0976998
-0.295649
-0.105873
-0.0655722
0.0978523
-0.108124
-0.17189
-0.188044
0.0237488
0.00750368
0.0871489
-0.283544
0.329902
-0.258514
0.0922755
0.212908
-0.214449
0.235414
0.0188645
0.0840971
-0.216661
-0.372191
-0.296876
0.113908
-0.239311
-0.246167
0.0241176
-0.24339
-0.258876
-0.285346
-0.20773
0.206366
-0.0985639
-0.2633
-0.0987628
-0.289008
0.344014
0.0460629
0.121799
-0.218426
-0.391175
0.17849
0.245335
-0.220595
-0.285874
0.318979
-0.191581
0.0410002
-0.267249
-0.0992323
0.0471458
0.0689076
-0.184331
-0.293618
0.0362837
-0.140463
-0.30631
0.165383
0.0258106
-0.28838
-0.164203
0.210674
-0.352106
0.0528853
-0.0203227
-0.335087
-0.366861
-0.294589
-0.140341
-0.0880897
-0.16951
-0.15559
-0.162265
-0.258466
-0.0285034
-0.126487
0.112453
-0.31483
-0.148661
-0.296576
-0.236309
-0.189878
-0.252587
-0.381983
0.152315
0.0416047
-0.214592
0.231844
0.0589901
0.361087
-0.118417
-0.40997
-0.262045
-0.301165
-0.0826688
-0.345085
-0.170482
0.153301
-0.118075
-0.19662
-0.192912
-0.304122
0.132633
-0.237364
-0.0271045
-0.24472
-0.245649
-0.271431
0.0252987
-0.188502
-0.204974
-0.151229
-0.302882
-0.149046
-0.171696
-0.308171
-0.14124
-0.0729407
-0.26712
-0.293365
-0.295192
-0.334029
-0.289801
-0.201032
-0.334594
-0.409899
-0.212614
-0.302449
-0.342613
-0.198275
0.0242389
-0.341331
0.0283699
-0.140859
-0.224779
0.162809
-0.283326
-0.142957
0.170354
0.0520452
-0.108936
0.0778001
-0.277222
-0.0174921
0.00967579
-0.173874
0.0333254
-0.272705
-0.0372625
-0.439858
-0.3318
-0.388848
-0.308338
-0.299211
-0.133989
-0.265479
-0.367604
-0.295941
-0.2425
0.3483
0.0172144
-0.101192
-0.128584
0.0442601
-0.096958
-0.190261
-0.303566
-0.166433
-0.277687
0.160772
0.0562305
-0.156237
-0.264812
-0.225406
0.343461
0.0805297
0.0718444
-0.0870124
-0.234365
-0.218318
-0.277064
-0.299788
-0.32555
-0.287445
-0.00756152
-0.0284509
-0.298351
-0.33219
-0.119423
-0.0322627
-0.121451
-0.00997347
-0.0118163
-0.098315
-0.195611
0.188943
0.093928
-0.194659
0.0768072
0.0503829
-0.397892
0.0267839
-0.24675
-0.266044
-0.275924
0.0476059
-0.305685
-0.157944
0.177896
-0.377839
-0.173757
-0.197666
-0.221753
-0.258073
-0.265329
-0.0187137
-0.0416536
-0.326634
-0.370149
-0.293738
-0.307402
-0.0238556
0.129403
-0.10848
-0.0183305
-0.00326413
0.0246392
-0.392848
-0.0236516
0.00126873
-0.362172
-0.347492
-0.12823
-0.294254
-0.0223396
-0.13875
-0.225971
0.200395
0.0962301
-0.234809
0.0425733
0.296557
-0.000675344
0.102302
0.0719134
0.012347
-0.214912
-0.269686
0.335565
0.0599265
0.0827275
-0.294554
-0.317924
-0.375203
0.0537189
-0.0960975
0.0206332
0.103562
0.00977487
9.71627e-06
-0.0393008
-0.199712
-0.124615
-0.211611
-0.271848
-0.304025
-0.216772
-0.184032
-0.326803
-0.102955
-0.251771
0.0420838
0.109664
-0.356429
0.0658621
0.11724
-0.0946051
-0.289244
-0.173975
0.0420929
-0.0690251
-0.236572
-0.280649
0.0479444
0.0165796
0.166589
-0.349181
-0.268903
-0.155331
-0.0941222
0.0928883
-0.103967
0.232721
-0.0894731
-0.0160316
-0.273443
0.107831
-0.210702
-0.0547303
-0.260418
-0.00327905
-0.120199
0.321759
-0.121718
-0.32621
0.00260113
-0.154089
0.0222375
-0.289294
-0.262349
-0.232281
0.150259
0.022796
0.00969822
-0.0372511
-0.292849
0.15817
0.280604
-0.317499
0.321749
0.18734
0.00565051
0.08247
-0.194222
-0.284706
-0.283332
-0.26183
-0.0318274
-0.192219
0.0284943
0.228267
-0.281744
-0.301487
-0.287474
0.076793
0.335877
-0.289739
-0.00442857
-0.0862428
0.120639
-0.0245292
-0.083101
-0.320286
0.226393
0.313685
-0.121146
-0.270572
0.0543923
-0.0891914
0.107572
-0.193394
-0.150968
-0.10647
-0.000327729
0.009999
-0.265971
-0.152633
-0.0997374
-0.103439
0.0176107
-0.300171
-0.090251
-0.0354383
-0.258592
0.106292
-0.0752824
-0.320759
0.186752
0.00504049
-0.0919905
0.251503
-0.131601
-0.324851
-0.0776492
-0.0228461
0.0982251
-0.27253
-0.252571
-0.155913
-0.123373
-0.249638
-0.175978
-0.134359
-0.344959
-0.223528
0.157836
0.283218
0.312976
0.0667126
0.320501
0.328259
0.173228
-0.404166
-0.16631
-0.140527
0.25717
-0.28925
-0.0783765
-0.294146
-0.269119
0.0148847
0.223311
-0.280122
-0.265653
-0.0759159
-0.118868
-0.265846
-0.320376
0.329685
0.209763
0.0823932
-0.0538742
-0.357119
0.0599266
-0.142266
-0.294176
-0.119916
-0.331348
-0.295162
-0.0975648
-0.253934
-0.181641
0.188998
0.140701
-0.39025
0.00926661
-0.180733
-0.163927
-0.130084
0.165081
-0.236109
-0.0537654
-0.283752
0.0902114
-0.290134
-0.280716
0.294239
-0.382995
-0.350695
-0.148029
-0.211439
-0.412308
-0.0164858
-0.212615
-0.416383
-0.241639
-0.38669
-0.314208
-0.244641
-0.378014
-0.201959
-0.173186
-0.338986
-0.0161225
0.194706
0.195819
-0.314824
-0.295937
0.215945
-0.349175
-0.0747462
0.291857
-0.200243
0.279425
-0.181606
0.0352173
0.0768794
-0.000719519
-0.319636
-0.0877879
-0.109273
-0.242965
-0.00727184
-0.291451
-0.321086
-0.217297
-0.0623726
-0.37207
-0.335779
0.20131
-0.0734157
-0.111688
-0.0582428
-0.289131
0.212733
-0.0541869
-0.288493
-0.00997511
-0.260883
-0.329457
-0.404325
-0.110508
-0.0925336
-0.305654
-0.133336
-0.244434
0.28524
0.175201
-0.285976
-0.250899
0.236509
0.034454
-0.16859
-0.134627
-0.298155
0.310164
-0.00417756
-0.388101
0.0922633
-0.0103367
0.133612
-0.151337
-0.293073
-0.141388
-0.0874356
-0.160792
-0.0350395
0.364487
-0.256762
-0.16969
-0.233047
0.215248
0.297225
0.300771
-0.109178
-0.0676908
-0.0132813
0.0510235
0.212632
-0.114656
-0.0322144
0.019537
-0.148674
-0.0817531
-0.265787
0.0172258
-0.352915
-0.261318
-0.0583129
-0.343635
-0.15001
-0.0636643
0.219421
0.303475
-0.282821
-0.315851
-0.364239
0.19975
-0.293164
-0.254133
-0.372234
0.235173
-0.185916
-0.189651
-0.296715
-0.177562
-0.257829
-0.191912
-0.0114421
-0.058571
0.223894
0.336977
-0.199437
0.0964061
-0.388603
0.0778408
0.143465
0.139234
-0.0389988
-0.2299
-0.227915
-0.306879
-0.382878
-0.00356613
-0.376383
0.0530519
-0.288325
0.167567
-0.292245
-0.367444
0.016738
0.146342
-0.216816
-0.237024
-0.121899
0.186312
-0.203379
-0.194503
-0.377758
-0.010637
0.119646
0.238698
-0.408655
-0.258215
0.098389
-0.0972209
0.257237
-0.0918071
-0.28804
-0.426102
-0.38678
-0.239697
-0.356556
0.186167
-0.364077
-0.0186292
-0.206321
-0.302624
0.186279
-0.40929
0.234221
-0.0855338
-0.173229
0.0136935
0.0644477
-0.0174473
-0.00854968
-0.252802
-0.201197
-0.332076
-0.345139
-0.0532715
-0.222128
0.303284
-0.332103
0.100906
-0.12895
0.114508
0.249996
-0.332197
-0.308897
-0.190251
-0.0729769
-0.351294
0.184656
-0.268961
-0.179615
-0.301973
0.0213437
-0.383475
-0.147587
-0.332283
0.306455
-0.387235
-0.223138
0.0658853
0.0859046
-0.360886
-0.363903
-0.248052
-0.332892
0.130465
-0.166912
-0.063483
0.0390776
-0.089199
0.136182
0.31074
0.07539
0.0987511
-0.129046
-0.0460643
-0.346299
-0.0752217
-0.280918
-0.079964
-0.0163361
-0.0228296
-0.331157
-0.229761
0.0718468
-0.265016
-0.0157959
-0.0156293
0.162326
-0.273959
0.208534
-0.186918
-0.00531155
-0.105056
-0.338591
-0.265208
-0.304369
-0.0930138
-0.168573
-0.158865
0.0886192
0.118651
-0.0291423
-0.219499
0.106436
0.232263
0.210939
0.148522
-0.0468373
-0.0929459
-0.267007
0.275634
0.0398272
0.0148004
-0.257297
-0.230667
-0.33655
-0.103144
-0.103922
-0.128191
0.0155187
0.10399
-0.166635
-0.137816
0.0844897
-0.125117
-0.0410634
-0.254558
-0.0913458
-0.191554
-0.371682
-0.182811
-0.0145687
-0.28803
-0.402937
-0.149672
-0.227407
-0.0878041
-0.256426
-0.201861
0.114085
0.148362
-0.186711
-0.188114
-0.0295762
-0.230418
-0.263332
-0.286508
-0.272684
-0.336577
0.0969294
-0.173417
-0.215524
-0.0821342
-0.10988
0.070942
-0.0192846
0.298245
0.0238777
-0.293336
-0.202925
-0.245569
-0.0251329
0.120009
0.0346721
-0.150436
-0.353749
-0.292778
-0.291754
-0.173248
-0.198324
-0.184651
-0.294186
0.126957
-0.0919244
0.196558
0.0629687
-0.187607
-0.161093
-0.0519399
0.240818
-0.369351
-0.367576
-0.0455376
0.259779
-0.265676
-0.275281
-0.0416298
-0.106424
0.0239837
-0.25969
-0.356093
-0.173676
-0.344327
-0.263336
0.000788093
-0.273277
-0.259919
-0.145143
-0.270978
-0.146255
-0.154568
-0.118074
0.122569
-0.299281
0.31469
0.0284
-0.288679
-0.422753
-0.135643
-0.0622199
0.0371872
-0.261201
-0.29278
-0.0168762
-0.312954
-0.140372
0.329529
0.105008
-0.0953611
-0.0755635
-0.332327
0.246437
0.323648
0.146697
-0.0339092
0.145153
-0.0748988
-0.333148
-0.387214
-0.36775
0.249294
-0.237428
0.0606092
-0.107052
0.322165
-0.292292
-0.136742
-0.315
-0.261178
-0.286488
0.313601
-0.172211
0.014144
0.0969567
0.0499929
-0.310651
-0.139544
-0.123237
0.0897758
-0.379602
-0.144741
-0.256464
0.189531
0.00352031
-0.292221
0.072361
-0.239033
0.109299
-0.298243
0.00429629
0.0616547
0.102384
-0.317462
-0.145365
-0.290795
-0.0440735
0.147743
-0.163022
-0.0140643
-0.177789
0.0193266
-0.103751
0.258211
-0.137882
0.138403
-0.378885
-0.235307
-0.308815
0.21013
0.0640839
-0.107287
-0.317659
0.00251117
-0.0400346
0.271953
-0.00956263
-0.286867
-0.312761
0.306244
0.269794
0.0169434
0.26298
-0.285082
-0.315816
-0.223428
-0.204341
-0.35094
-0.00923296
-0.118571
-0.286781
-0.222405
0.253714
-0.24058
-0.0107104
-0.143994
-0.240568
-0.194735
-0.378876
-0.355968
-0.254132
0.0518053
-0.0201452
-0.289591
-0.230389
0.123817
-0.0794821
-0.288162
-0.000909597
0.203697
-0.261583
-0.143224
0.348269
-0.103079
-0.290148
0.0793492
0.0468365
0.234624
-0.125795
-0.226599
-0.162501
-0.349264
0.201116
0.0322379
0.127429
-0.131281
-0.0675903
-0.313627
0.161018
-0.256189
-0.297516
-0.288764
-0.119518
0.0761052
-0.432298
-0.151217
-0.345141
0.189
0.318491
-0.0146668
-0.265294
-0.0093556
0.288316
-0.157437
0.123477
0.0490977
0.00164163
-0.0535982
-0.201736
0.128657
0.16188
0.153809
-0.0989839
-0.122642
-0.0221968
-0.117344
-0.0593153
-0.206155
0.24875
0.01703
0.171682
-0.113845
0.214671
-0.293333
0.265431
-0.0712266
0.231454
0.212212
0.12195
0.344099
-0.292687
0.0767108
-0.0864812
-0.3139
-0.160583
-0.288029
0.137378
0.0148678
-0.173012
-0.154987
-0.261055
-0.0688244
-0.295145
0.221498
-0.232742
0.0390637
-0.396863
-0.200067
-0.304155
0.308197
-0.006434
-0.130125
-0.124155
-0.292988
-0.26734
-0.221108
-0.29487
-0.0135799
0.170755
-0.31961
-0.181907
-0.297681
-0.290247
0.010798
-0.054359
-0.113128
0.220181
-0.35831
-0.0412441
-0.1003
0.130167
0.294313
-0.116677
-0.206774
-0.321254
-0.144659
-0.0513449
-0.297055
0.156054
-0.279582
-0.301824
-0.284189
-0.13894
-0.182721
-0.0363378
-0.346611
-0.170561
-0.318789
-0.0383604
-0.0671112
-0.0539391
0.0114378
0.0137217
-0.361606
0.00688548
-0.382292
0.252012
-0.274813
-0.296624
-0.290847
0.126771
0.161487
-0.212255
0.00866996
-0.0492896
-0.30181
-0.0831661
-0.28936
-0.153818
0.144627
-0.0663483
0.136295
0.272696
-0.00970559
-0.00145842
0.224485
-0.323433
-0.2059
-0.213312
-0.154457
0.0669118
0.244698
-0.287751
-0.170846
-0.218273
-0.160007
-0.216229
-0.201525
-0.0679898
0.0161594
0.087778
-0.116988
-0.154424
0.216222
0.152755
-0.277745
0.0146119
-0.310167
-0.3133
0.000794529
-0.327077
0.0414081
-0.32963
0.0606876
0.315195
0.166069
-0.338779
0.225242
0.0476552
0.0232428
0.225418
0.0519841
0.188023
-0.0230877
-0.320817
-0.318281
0.00162863
-0.305121
0.0913351
-0.0519794
0.201435
-0.0512984
0.230196
-0.244718
-0.144699
-0.0424087
-0.229971
-0.298162
0.0425249
0.282654
-0.250141
0.144059
-0.215466
-0.165198
-0.17096
0.00684771
0.134951
-0.0106596
-0.32326
0.112444
0.0215921
0.269799
-0.242308
-0.367623
-0.0865985
-0.0167949
0.261471
0.0280252
-0.218652
0.269836
-0.153144
-0.306692
-0.319346
-0.429626
-0.0601316
-0.293806
0.255846
0.321012
-0.147654
0.317561
0.00433743
-0.216897
0.248292
-0.316338
0.247971
-0.313989
0.146304
-0.200643
-0.223818
-0.00512803
-0.181651
0.193724
0.111786
0.133397
-0.182459
-0.173975
-0.333517
0.141608
-0.0128685
-0.0159397
-0.0344145
-0.0131518
-0.385279
-0.273493
-0.206446
-0.328445
-0.16678
-0.334163
-0.20919
0.179651
-0.197646
-0.178633
-0.0528199
-0.241986
-0.142963
-0.168856
-0.207917
-0.255725
0.0748026
0.143043
-0.0155376
-0.0228128
-0.39823
-0.25324
0.0651109
-0.0472183
-0.339824
0.17018
-0.284762
-0.0644507
-0.133356
-0.0574835
0.105082
-0.20209
-0.0308039
0.0798828
-0.0892275
0.344127
-0.0878747
-0.326423
-0.139419
-0.0130915
-0.0429671
0.3235
-0.0522625
-0.119953
-0.154464
-0.0509166
0.112185
-0.282903
0.193556
-0.161435
-0.012784
-0.0169562
-0.0619026
-0.243843
0.138188
0.267364
-0.145084
-0.230007
-0.189386
-0.200807
-0.329726
-0.206495
0.072517
-0.303297
-0.325778
0.00420337
-0.29751
-0.0694354
-0.133443
-0.0382603
-0.151445
0.156833
-0.204548
0.0312268
0.273471
-0.285808
0.127435
-0.0954194
-0.197204
-0.0259209
0.160436
-0.107814
-0.19518
-0.0283122
-0.216179
-0.230398
-0.242185
-0.266917
-0.396495
0.236686
0.273104
-0.307767
-0.121361
-0.045326
-0.330201
-0.0274964
-0.282758
-0.0890763
-0.0198216
-0.351988
-0.402449
0.108182
-0.100568
-0.134591
-0.114844
-0.327479
-0.321924
0.121619
0.0321339
-0.0877734
-0.359306
0.170401
0.0230633
-0.238759
-0.165121
-0.287621
0.252512
-0.278991
-0.137797
-0.28643
-0.122067
0.162937
-0.157049
0.146137
-0.184966
-0.103059
-0.087884
0.257191
0.340757
-0.111889
0.27709
-0.179294
-0.196523
-0.193983
-0.272911
-0.223575
0.138656
0.0812425
-0.137692
-0.151885
-0.393381
0.039325
-0.222794
-0.0538104
0.14687
-0.244683
-0.222376
-0.194419
-0.223899
0.0338767
-0.37833
-0.150987
0.210334
0.0181523
-0.359383
0.0691807
-0.205577
-0.196088
-0.110518
0.0715624
0.0330582
0.0488947
0.0181588
-0.229556
-0.0131936
-0.0942486
0.16564
-0.131896
-0.19165
-0.0823936
-0.295951
-0.12081
0.257412
0.029723
0.293185
-0.192717
-0.102664
-0.268191
-0.207677
0.0335034
-0.320885
-0.34013
-0.0622347
0.0441268
-0.33536
-0.147342
-0.051053
0.0263014
-0.0633072
0.332397
-0.108693
-0.14159
0.150003
-0.152928
-0.0417168
0.137959
-0.288101
-0.103218
-0.00364134
-0.117706
0.269476
-0.328788
-0.27913
0.00175833
-0.087266
-0.27562
-0.165962
-0.205864
0.288718
0.264167
-0.00182824
0.14807
-0.27043
0.0683101
-0.129669
0.0792339
0.219727
-0.326726
-0.201872
0.306825
-0.125664
-0.350808
-0.357973
0.170206
0.298086
-0.217035
-0.0499242
-0.0783604
-0.300247
-0.175219
-0.339375
0.0325397
-0.225067
-0.23116
0.201075
-0.293984
0.031069
-0.155864
-0.119426
-0.103998
-0.343845
-0.163363
-0.301761
-0.0910287
-0.00890878
0.201058
0.0328821
-0.0546417
-0.221741
-0.359852
-0.275337
-0.140375
-0.174936
0.0946382
0.041368
-0.225314
-0.257519
0.0331989
0.0547763
0.307332
0.0859306
0.236231
-0.141442
-0.30946
-0.20313
-0.245978
0.260528
-0.164775
-0.189019
0.212011
-0.303455
-0.0179294
-0.0569573
-0.133095
-0.0850233
-0.196704
-0.295206
0.0494493
-0.295319
-0.0896626
-0.207987
0.181377
-0.177453
0.343651
-0.248156
-0.209671
-0.363181
-0.406947
-0.198641
-0.0198257
-0.0114729
0.00439193
-0.193243
0.261327
-0.0393929
-0.287474
-0.288173
-0.168757
-0.320088
-0.0878793
-0.325408
-0.281658
-0.258823
-0.0617451
-0.307622
-0.124135
0.264194
-0.0633205
0.181544
0.027247
-0.293329
-0.232475
-0.178016
0.12411
-0.314932
-0.0878281
-0.12145
-0.29466
-0.340226
-0.138563
0.0619672
-0.0545507
0.307851
0.0662647
-0.190666
-0.0868891
-0.336571
0.278695
-0.0749831
0.114537
-0.0366413
-0.0418011
-0.35295
-0.21619
0.00441488
0.198626
-0.0146842
-0.183266
-0.300022
0.32785
-0.0993735
0.102218
0.243138
-0.10525
-0.200949
-0.336315
0.0565147
0.0243344
-0.288487
-0.123874
-0.0400417
0.158376
-0.219858
0.208081
0.309285
-0.275133
-0.242673
0.225572
-0.273624
-0.278373
-0.194695
-0.256576
-0.162971
-0.263924
-0.318473
-0.218369
-0.10142
-0.17554
-0.281006
-0.1807
-0.378012
-0.260273
-0.133009
-0.232032
-0.338827
0.172259
0.296245
0.263302
-0.12663
-0.355366
0.353089
-0.287542
-0.201755
-0.027124
-0.314926
-0.0153528
-0.0683684
-0.274582
-0.315673
-0.328328
-0.320204
-0.299969
-0.286498
-0.365201
-0.246733
-0.203862
-0.26188
0.200873
-0.177757
-0.016665
-0.10563
0.0201267
-0.337772
-0.286854
0.335157
-0.129073
0.0304407
-0.294297
-0.111731
0.311978
-0.311669
-0.0481365
0.0140577
-0.366558
-0.105853
-0.30219
-0.220782
-0.0552966
-0.275309
-0.195529
-0.315255
-0.27121
-0.174003
-0.299634
-0.188505
-0.315822
-0.291843
0.303783
-0.216607
-0.151954
-0.190844
0.210095
-0.273722
-0.315203
0.0737551
-0.271256
-0.247866
-0.0689752
-0.0288639
-0.349705
0.0920126
0.0110162
0.279001
0.0674371
-0.298676
-0.289249
-0.334079
-0.0510953
-0.353453
-0.21521
-0.122848
-0.229394
-0.126157
-0.141238
0.32324
-0.246615
-0.0723479
-0.133382
0.25629
-0.289626
0.295199
-0.153071
-0.301575
-0.110174
-0.0644108
-0.331901
0.145869
-0.0662233
0.0827008
-0.276189
0.00102309
-0.259949
0.331715
0.241953
-0.0489373
-0.106667
-0.0310131
-0.355509
-0.360944
0.0374941
0.339393
0.00752037
-0.106266
-0.0493476
-0.33918
-0.255919
-0.152219
-0.250229
-0.224228
-0.251348
-0.126725
-0.321681
-0.210789
0.334722
0.0531216
-0.362824
-0.0297143
-0.192274
-0.305683
0.00824131
-0.294798
-0.252517
-0.0151791
0.0278089
-0.228308
-0.223417
0.0687559
-0.269398
-0.248246
-0.278427
-0.149082
-0.242169
0.176599
-0.350643
-0.299021
-0.283009
-0.287817
-0.0697489
-0.146716
0.210679
-0.0878711
0.0156604
-0.198764
-0.153154
-0.134855
-0.040074
-0.302003
-0.254912
-0.393512
0.0101155
-0.267562
-0.289287
0.164242
-0.159222
0.136313
-0.0601592
-0.21563
-0.247015
-0.272888
-0.0697058
-0.124756
0.309783
-0.301957
-0.355971
-0.147999
-0.320516
-0.127089
-0.00584562
-0.0197433
-0.221338
-0.254552
-0.267767
-0.0589646
-0.259107
-0.00115554
0.334609
0.294719
-0.24994
-0.180904
0.01459
0.0122888
-0.16533
-0.277802
-0.0985202
-0.302941
-0.203096
0.148968
-0.166984
-0.349165
-0.145791
-0.195676
-0.347779
-0.265726
-0.162207
-0.0925829
0.321741
-0.280496
-0.317582
-0.178073
0.0252244
-0.304533
-0.142629
-0.286243
-0.0825666
-0.289006
-0.149571
-0.272361
-0.103396
-0.00816875
-0.279757
-0.359635
-0.213854
-0.149535
-0.00287991
0.34162
-0.117271
-0.292504
-0.28395
-0.282029
-0.26536
-0.308176
-0.297397
0.218396
0.0584644
-0.093042
-0.117293
-0.337531
-0.0244208
0.275159
-0.274368
-0.220199
-0.340621
-0.400438
-0.239598
-0.325554
-0.406248
0.0944857
0.147929
-0.331432
-0.345727
-0.25337
0.238575
-0.340141
0.0547864
0.00519715
-0.178873
-0.321461
-0.186682
-0.0010227
-0.371241
-0.291982
-0.269025
-0.263429
-0.161305
0.0868658
-0.185273
-0.262449
-0.0385063
-0.274857
-0.253218
0.123105
-0.101256
0.12229
-0.173303
-0.30726
0.00643381
0.0703769
-0.200217
-0.32703
0.150916
-0.100212
-0.296061
0.0701645
-0.141413
0.188035
-0.184711
-0.273885
0.0102385
-0.264962
-0.228263
-0.224913
-0.308512
-0.36341
-0.324902
-0.233927
-0.397086
0.135097
-0.237762
-0.250916
-0.155371
-0.188701
0.286921
0.295474
-0.353654
0.0794954
-0.000362717
-0.368688
0.149094
-0.387209
-0.315348
-0.20385
-0.291021
0.0252851
-0.332482
-0.327716
-0.153602
-0.298732
-0.0178961
-0.353375
0.0751469
-0.0104445
0.252469
-0.0656188
-0.29265
-0.327619
-0.316235
0.340876
0.0507207
-0.131597
-0.230515
-0.155042
-0.293478
0.0558248
-0.0280271
-0.181823
-0.103106
0.268804
-0.280931
-0.224199
0.00454594
-0.353385
-0.251805
0.187514
-0.300439
-0.175509
0.196497
-0.251646
-0.383733
-0.296394
-0.152557
-0.283046
0.300521
-0.205738
-0.342593
-0.25609
-0.174244
-0.19672
0.119529
0.0524748
-0.311169