/*--------------------------------*- C++ -*----------------------------------*\
  =========                 |
  \\      /  F ield         | OpenFOAM: The Open Source CFD Toolbox
   \\    /   O peration     | Website:  https://openfoam.org
    \\  /    A nd           | Version:  6
     \\/     M anipulation  |
\*---------------------------------------------------------------------------*/
FoamFile
{
    version     2.0;
    format      ascii;
    class       volScalarField;
    location    "0";
    object      p;
}
// * * * * * * * * * * * * * * * * * * * * * * * * * * * * * * * * * * * * * //

dimensions      [0 2 -2 0 0 0 0];

internalField   nonuniform List<scalar> 
918
(
0.187651
0.955823
0.00664664
0.187069
0.000605579
0.924483
-0.856452
0.372029
0.165788
-0.224683
0.0178761
0.15909
0.775913
0.541682
-1.52349
0.0133342
0.325314
-0.730771
0.164804
0.0059916
0.442618
0.172163
0.175411
0.167414
0.22323
0.516396
0.64837
0.00254341
-0.00381985
-0.00165122
0.0030724
-0.000183643
0.00308299
0.797567
0.843819
0.862503
0.137513
-0.014431
-0.722446
-0.789519
-0.762954
-0.905282
0.360661
0.363259
-0.526671
0.374049
0.387541
0.153083
0.165074
0.165846
0.167506
0.16619
0.167652
0.247947
-0.287458
-0.370612
-0.142656
-0.103688
0.064809
0.0180512
0.00899697
0.026416
0.0248385
0.0952044
0.155322
0.153448
0.166079
0.174796
0.881301
0.853338
0.876098
0.800931
0.818198
0.750084
0.722144
0.562029
0.585147
0.527152
0.514392
-1.99273
-2.96897
-0.929617
-0.647054
0.00182296
0.0196668
0.0244221
0.313772
0.316351
0.321702
0.335258
0.760243
-0.716481
-0.836071
0.163924
0.163313
0.171196
0.172794
0.169119
0.168628
0.0137106
0.0212314
-3.97817e-05
0.0038498
0.00411803
0.4186
0.418418
0.166863
0.164398
0.183374
0.206867
0.197177
-0.0679103
0.235693
0.253044
0.344588
0.508117
0.503333
0.512244
0.622483
0.591382
0.680007
0.704567
0.00729701
0.00193518
0.0100448
0.00724097
0.0104941
0.132113
0.125407
0.14731
0.138706
0.14063
-0.10652
-0.250486
0.0585984
0.0776205
-0.641261
-0.691093
-0.783259
-0.808968
-0.871156
0.150851
0.350096
0.35347
-0.536394
-0.461773
-0.597772
-0.400136
-0.466425
0.144273
0.151028
0.147561
0.1611
0.155246
0.157362
0.168949
0.166214
0.167749
0.278936
0.365538
0.186427
0.180764
-0.616387
-0.452615
-0.562508
-0.0549471
-0.0400279
0.0733441
0.0839607
0.05883
0.0535152
-0.00897629
0.0104697
0.000313675
0.0243357
0.0248238
0.088408
0.0771123
0.103961
0.109721
0.147741
0.147791
0.149659
0.149677
0.6701
0.693302
0.701362
0.677641
-3.97166
-6.68678
-0.292137
-0.127385
0.00183978
0.0029311
0.00103118
0.00223875
0.00370529
0.0015302
0.0329279
0.0326137
0.0287366
0.0326109
0.301128
0.305016
0.715526
0.697038
0.703558
0.670262
0.153659
0.154992
0.160273
0.156559
0.0232432
0.0225299
0.0242923
0.385998
0.403957
0.400047
-0.103842
-0.193592
-0.0197478
0.00928785
0.290406
0.269708
0.290494
0.408791
0.450852
0.717882
0.741979
0.729618
0.745426
0.793486
0.813402
0.778436
0.113623
0.122129
0.117286
0.152407
0.149242
0.150046
0.147446
0.146873
0.144387
-0.382642
-0.754825
0.113619
0.117306
0.105011
0.105323
0.237835
0.336471
0.327321
0.340008
0.337206
-0.351779
-0.403016
0.157416
0.142401
0.0354026
0.0640087
0.0497414
0.646114
0.608703
0.655962
0.63153
0.594959
0.617515
-0.687431
-2.4725
-1.421
0.282194
0.0760008
0.173274
0.0506265
0.0352712
0.0454863
0.6553
0.707398
0.447227
0.586878
0.560146
0.478942
0.505813
0.566057
0.498092
0.532208
0.564257
0.539554
0.11953
0.114984
0.105815
0.419204
0.476623
-0.228707
-0.291822
-0.329567
0.0914395
0.122765
0.117433
0.68616
0.545255
0.636827
0.164856
0.164814
0.0119767
0.0222345
0.167866
0.168063
0.0059317
0.00720166
0.178246
-1.28718
-0.207819
0.157527
0.148738
0.16375
-0.284264
0.291809
0.0165835
0.0779544
0.05319
0.156786
0.105786
0.0682734
0.00713447
0.0170661
0.0140428
-0.51816
0.162425
0.160177
0.163311
0.164454
0.165281
0.00872034
0.0106757
0.0072634
0.0120357
0.0112268
0.00937457
0.132249
0.145203
-0.510757
0.1634
0.165486
0.165207
0.159289
0.163989
0.161967
0.0144289
0.00906898
0.00889774
-0.122741
0.00331962
0.393641
0.497009
0.323433
0.142493
-0.149649
0.314313
0.375207
0.285741
0.438169
0.332511
0.350779
-0.150757
-0.298162
-0.152748
-0.212308
0.155343
0.153446
0.145654
0.142995
0.158757
0.156801
0.161339
0.15909
0.161693
0.162738
-0.185544
-0.123329
-0.356141
-0.426677
0.246374
0.389106
0.20022
0.187043
0.119345
0.0202139
0.0233289
0.0166275
0.0160724
0.0422386
0.0550158
0.0720527
0.0580655
0.0481493
0.0382013
0.0412141
0.0485536
0.0508556
0.151543
0.148719
0.155303
0.162884
0.113175
0.114794
0.087677
0.102353
0.093566
0.0398082
0.0689042
0.0483992
0.0076166
0.00799503
0.00560615
0.0211348
0.0265676
0.0132164
0.0109275
0.0141735
0.0111253
0.0103017
0.0168371
0.0206345
-0.517996
-0.600188
0.642277
0.533532
-0.492228
0.151884
0.156061
0.15349
0.158338
0.161223
0.161888
0.160102
0.157114
0.146105
0.148514
0.143233
0.144733
-0.453037
-0.570712
-0.404018
-0.476214
-0.195524
0.275258
0.011692
-0.039789
-0.050719
0.16015
0.350949
0.306726
0.43003
0.423937
-0.734335
-0.316559
-0.658308
-0.113617
-0.139409
0.41357
0.459356
0.478579
0.43318
0.383859
-0.385617
0.161836
-0.38364
-0.35211
-0.174683
-0.266061
0.37588
0.313192
0.322054
0.339375
0.364908
0.3288
0.310782
0.305426
0.334204
0.342268
0.145176
-0.0848832
-0.121406
-0.164421
0.297997
0.182871
0.236124
0.144781
0.149848
0.153019
0.152428
0.136804
0.141209
0.137604
0.143507
0.146458
0.154191
0.154905
0.150726
0.152414
-0.0820062
-0.0515456
-0.338157
-0.520973
-0.465965
-0.525154
-0.479767
-0.419545
-0.247916
-0.459726
-0.0700722
-0.609919
-0.623203
-0.603465
-0.653922
-0.513199
-0.565444
0.0769885
0.137981
0.120536
0.153764
0.169231
0.169029
0.0319348
0.0353235
0.0157279
0.022418
0.0726112
0.0823148
0.090096
0.0354214
0.0356606
0.0236614
0.0228217
0.0278717
0.0158388
0.0238427
0.0332245
0.0203005
0.0225563
0.026354
0.0277181
0.0337142
0.037086
0.144093
0.14605
0.145279
0.159235
0.167429
0.18127
0.155455
0.130822
0.122532
0.124533
0.102976
0.10924
0.107549
0.117671
0.135814
0.142723
0.140777
0.142512
0.130142
0.131313
0.116793
0.121028
0.10252
0.0875862
0.0767696
0.0159361
0.0108023
0.0132389
0.0140967
0.010283
0.0116977
0.0368735
0.0289807
0.0333803
0.0297013
0.0338982
0.0175447
0.0169475
-0.492184
-0.500732
-0.546651
-0.563276
-0.630461
0.51743
0.63186
0.43274
0.204379
0.16099
0.446482
0.618565
0.310289
0.372175
0.459037
0.118515
0.429406
0.155935
0.155929
0.153791
0.15268
0.153723
-0.372053
-0.277577
-0.252365
-0.206036
-0.075871
0.0296406
-0.0771793
-0.146229
-0.0175587
0.0320087
0.272931
0.287556
0.227368
0.253755
0.253715
0.0791945
0.159707
0.204482
0.153863
0.207757
0.237332
0.195606
0.229053
0.163745
0.124
0.118518
0.0651049
0.0981878
0.0781877
0.0543675
0.146228
0.127291
0.135988
0.128488
0.146984
0.177969
0.172746
0.191424
0.209504
0.134792
0.0908737
0.105752
0.131058
0.0908283
0.104283
0.121
-0.188365
-0.279891
-0.156829
-0.461765
-0.345971
-0.327307
-0.363997
-0.423765
-0.124371
-0.768965
-0.70133
-1.38835
0.101949
0.498355
0.335021
0.343687
0.361968
0.33821
0.344611
0.368741
0.380109
0.287467
0.305004
0.306936
0.266644
0.298472
0.309766
0.313739
0.129305
0.0572358
0.0353331
-0.0022719
-0.137731
-0.102189
0.0746221
0.0146814
-0.0512521
-0.0470112
0.116565
0.00190173
0.0677343
0.107704
0.0570517
-0.00304739
0.196166
0.258402
0.243875
0.215625
0.136378
0.154646
0.174735
0.211069
0.237651
0.26989
0.143846
0.147889
0.149075
0.147456
0.143458
0.146871
0.147361
0.148645
0.149737
0.152435
0.151586
0.0111296
0.00485522
-0.0239711
-0.000269562
-0.14123
-0.176274
-0.207535
-0.215891
0.00792704
-0.0105969
-0.0881581
-0.0536421
-0.0241019
-0.0101022
0.0242584
0.0400348
-0.0872617
-0.114026
-0.228825
0.0354113
0.110313
-0.053986
-0.262416
-0.160647
-0.0727643
0.0448398
0.0640051
0.0572814
0.0581889
0.0563811
0.0293187
0.0262365
0.0262875
0.0296483
0.0299144
0.0240053
0.021985
0.0236759
0.0239817
0.0234276
0.0224385
0.13071
0.124358
0.126609
0.121118
0.120676
0.13251
0.136379
0.137773
0.142025
0.143969
0.136228
0.140068
0.143216
0.025703
0.0207375
0.0222177
0.0235194
0.0214474
0.0199415
0.0202503
-0.142241
-0.418998
-0.374344
-0.414646
-0.498458
-0.461864
0.148614
0.0706477
0.103594
0.287346
0.154053
0.0329213
0.100651
0.235672
0.00776812
0.132432
0.00719626
0.495819
0.364676
0.513483
0.171876
-0.126185
0.0103202
0.0329732
-0.122356
-0.0313653
-0.0283017
-0.1479
-0.111055
-0.0872916
-0.012143
-0.10577
-0.143193
-0.377594
-0.220593
-0.073231
-0.0923609
0.0359842
0.0864122
-0.121532
-0.207083
-0.252266
0.256496
0.279889
0.293822
0.261485
0.285303
0.215659
0.205341
0.222387
0.234279
0.227319
-1.04521
-0.663614
-1.81291
-1.20321
-0.753546
0.136433
0.114592
0.361426
0.27109
0.345758
0.331306
0.280145
0.246203
0.259763
0.29426
-0.000818651
0.104734
0.0662817
0.0898807
0.0169632
-0.0604558
0.224187
0.223132
0.250344
0.275949
0.249432
0.277858
0.139657
0.139805
0.14262
0.14001
0.136506
0.138248
0.0102531
0.0151644
-0.0614557
-0.0985461
-0.11535
-0.0697265
0.0299021
0.0287051
0.0244107
0.0238067
0.0284601
0.0308357
-0.163909
-0.209955
-0.354783
-0.241744
-0.368206
-0.440809
-0.45783
-0.369612
-0.262899
-0.273748
0.0334961
0.286508
0.132712
0.240548
-0.0346912
0.0801866
0.106746
0.0836336
0.109765
0.0159996
0.110706
-0.361686
-0.590276
-0.625708
0.415896
0.382889
0.184206
-0.0758818
-0.186721
0.104699
0.1635
0.131742
0.164065
0.212384
0.207056
-0.38794
-0.285267
-0.214233
0.0934158
-0.150669
-0.121772
-0.140597
0.0261841
-0.0273548
)
;

boundaryField
{
    wall-4
    {
        type            zeroGradient;
    }
    velocity-inlet-5
    {
        type            zeroGradient;
    }
    velocity-inlet-6
    {
        type            zeroGradient;
    }
    pressure-outlet-7
    {
        type            fixedValue;
        value           uniform 0;
    }
    wall-8
    {
        type            zeroGradient;
    }
    frontAndBackPlanes
    {
        type            empty;
    }
}

