/*--------------------------------*- C++ -*----------------------------------*\
  =========                 |
  \\      /  F ield         | OpenFOAM: The Open Source CFD Toolbox
   \\    /   O peration     | Website:  https://openfoam.org
    \\  /    A nd           | Version:  6
     \\/     M anipulation  |
\*---------------------------------------------------------------------------*/
FoamFile
{
    version     2.0;
    format      ascii;
    class       volVectorField;
    location    "0";
    object      U;
}
// * * * * * * * * * * * * * * * * * * * * * * * * * * * * * * * * * * * * * //

dimensions      [0 1 -1 0 0 0 0];

internalField   nonuniform List<vector> 
13046
(
(-1.00607 0.191242 0)
(-1.12976 -0.10905 -9.48106e-21)
(-0.799755 -0.0822332 -2.37786e-20)
(-1.05428 0.112286 0)
(-0.83336 0.00530711 -2.12222e-20)
(-1.04277 -0.11939 0)
(-1.07974 0.129465 2.8681e-21)
(-1.0492 -0.153797 4.94109e-21)
(-0.801596 0.0209819 -2.36262e-20)
(-1.29753 0.512193 9.4577e-21)
(-1.34847 -0.473812 0)
(-0.278288 -0.0306216 1.76934e-20)
(-1.06344 0.223375 -9.28919e-21)
(-1.1432 -0.166927 -1.4843e-20)
(-0.726201 -0.0605934 1.36009e-20)
(-1.17108 0.528698 -1.28862e-20)
(-0.365638 -0.167963 4.20384e-20)
(-1.39291 -0.352503 6.66794e-21)
(-0.901017 0.0875038 0)
(-0.946216 -0.112104 -1.09983e-20)
(-1.0873 0.0273027 2.95844e-20)
(-1.19442 0.523512 -5.37165e-21)
(-0.347071 -0.139212 -5.62206e-20)
(-1.37986 -0.375205 0)
(-1.00663 0.123518 1.24453e-20)
(-1.07526 -0.0835763 -2.3776e-20)
(-0.852373 -0.0434218 0)
(-1.05008 0.251758 -1.70724e-20)
(-1.16552 -0.168784 4.32794e-21)
(-0.710178 -0.0835942 -2.31617e-20)
(-0.987264 0.212474 0)
(-1.15472 -0.0972652 0)
(-0.787815 -0.113799 2.41878e-20)
(-0.992491 0.100324 -1.44457e-20)
(-0.880219 -0.04257 7.76887e-21)
(-1.05765 -0.0599858 4.14956e-20)
(-1.00415 0.0773055 -2.21753e-20)
(-0.896585 -0.0183562 1.1878e-20)
(-1.03328 -0.0598173 -2.16969e-20)
(-0.88345 0.239579 1.68168e-20)
(-0.833749 -0.21862 4.5194e-21)
(-1.21734 -0.0230579 -1.39528e-20)
(-1.00421 0.0203896 9.92754e-21)
(-0.948309 0.0121594 1.76283e-20)
(-0.980415 -0.0342384 0)
(-1.02905 0.0238342 6.17483e-21)
(-0.927374 0.0330854 -2.6816e-20)
(-0.972553 -0.057339 -3.31358e-21)
(-1.02639 0.188127 0)
(-1.11682 -0.128788 -6.84404e-22)
(-0.780101 -0.0607911 1.35017e-22)
(-0.860936 -0.334229 2.65773e-20)
(-0.777646 0.296073 0)
(-1.29593 0.0373475 -1.64083e-20)
(-0.880727 -0.358337 -3.77692e-20)
(-1.30967 0.0573163 -2.64918e-20)
(-0.744347 0.298844 2.72181e-20)
(-1.37252 -0.171195 -3.0901e-21)
(-0.988742 0.463824 0)
(-0.577292 -0.296558 2.20565e-20)
(-1.20961 0.224374 -8.5494e-21)
(-1.09365 -0.306843 9.00612e-21)
(-0.630137 0.0885018 -5.80431e-20)
(-0.431624 -0.0388083 3.17932e-20)
(-1.26847 -0.370672 -5.23325e-21)
(-1.21849 0.407146 -1.46578e-20)
(-0.953776 0.459793 0)
(-1.37627 -0.136689 0)
(-0.608305 -0.326961 0)
(-0.940041 0.441377 -7.33787e-21)
(-1.36299 -0.124845 0)
(-0.629433 -0.320604 1.71998e-20)
(-1.39243 -0.179345 0)
(-1.00115 0.483046 2.596e-22)
(-0.549848 -0.309652 1.41533e-22)
(-0.899848 0.114478 0)
(-0.924359 -0.129698 1.20911e-20)
(-1.11224 0.0122549 -2.11185e-20)
(-0.499197 -0.268616 2.50138e-20)
(-1.05012 0.495647 -2.23547e-20)
(-1.38688 -0.231524 0)
(-1.02734 0.131549 6.46433e-21)
(-1.07079 -0.10207 0)
(-0.831711 -0.0268117 0)
(-0.399946 -0.0459913 -2.87391e-20)
(-1.28956 -0.39046 -3.96529e-21)
(-1.23179 0.431637 8.71962e-21)
(-1.31026 0.330891 -1.45558e-20)
(-0.442022 0.110881 0)
(-1.16909 -0.440615 -4.23885e-21)
(-0.441771 0.261956 0)
(-1.41463 0.266005 0)
(-1.08163 -0.532093 5.80965e-22)
(-1.11964 0.322354 0)
(-1.14975 0.331697 8.19925e-21)
(-1.21549 -0.255418 1.65721e-20)
(-1.21402 -0.286914 -7.79863e-21)
(-0.592898 -0.0702674 -1.28304e-20)
(-0.561942 -0.045446 3.26386e-20)
(-0.462714 0.143841 -1.59023e-21)
(-1.32338 0.307852 1.42442e-20)
(-1.13986 -0.452209 0)
(-1.04274 0.0467053 -4.29668e-23)
(-0.900427 0.0324539 1.43986e-20)
(-0.986056 -0.080127 0)
(-0.752624 0.220353 0)
(-1.24848 0.0805073 -8.34186e-21)
(-0.929072 -0.296901 0)
(-0.811743 0.260483 2.94389e-20)
(-0.86418 -0.28111 0)
(-1.25523 0.0224675 -3.15537e-20)
(-1.35651 0.603324 0)
(-0.149448 -0.0128538 0)
(-1.39198 -0.580707 -4.48779e-21)
(-1.05265 0.200985 2.56184e-20)
(-1.12595 -0.149906 6.3515e-21)
(-0.751128 -0.0516661 2.42676e-20)
(-1.10471 0.383163 1.05792e-20)
(-1.09644 0.353235 -1.99179e-20)
(-1.27525 -0.256149 -1.38533e-20)
(-0.550484 -0.131001 1.46002e-20)
(-1.24735 -0.240722 8.27104e-21)
(-0.582408 -0.114517 -1.36496e-20)
(-1.30167 0.540274 -7.68619e-21)
(-1.37381 -0.490589 -7.21991e-21)
(-0.248189 -0.0437312 -7.95424e-21)
(-1.07743 0.297726 0)
(-1.20069 -0.210514 -1.11176e-20)
(-0.646865 -0.0926057 2.8909e-20)
(-0.906101 0.249125 0)
(-0.810014 -0.205513 -2.18352e-20)
(-1.21621 -0.0451792 7.1527e-22)
(-0.472749 0.266346 0)
(-1.39655 0.243477 0)
(-1.06228 -0.505669 0)
(-1.21065 0.340077 0)
(-1.20639 -0.343884 -2.17578e-20)
(-0.51349 0.00715399 -3.56196e-20)
(-0.996441 0.230237 0)
(-1.17298 -0.111817 0)
(-0.763138 -0.124891 0)
(-1.16233 0.145391 0)
(-1.03279 -0.236641 0)
(-0.737638 0.0925682 0)
(-0.790791 0.262488 0)
(-0.879649 -0.298242 0)
(-1.26563 0.038397 1.69965e-20)
(-0.771283 0.201112 -3.1588e-21)
(-1.22883 0.0779559 -1.81196e-20)
(-0.938266 -0.276565 2.2757e-20)
(-1.20964 0.246436 2.00575e-20)
(-1.11862 -0.315565 0)
(-0.603478 0.0656209 7.56699e-20)
(-0.799034 0.125199 0)
(-1.16309 0.08683 1.99133e-20)
(-0.973482 -0.214214 -5.64923e-21)
(-0.937203 -0.378338 0)
(-1.31188 0.10922 1.8973e-20)
(-0.966602 -0.389405 0)
(-1.3117 0.138103 1.10043e-20)
(-0.68492 0.273268 0)
(-0.654461 0.255487 0)
(-1.20228 0.121972 2.49591e-21)
(-0.994941 -0.266577 1.16925e-20)
(-0.734834 0.14031 -1.3897e-20)
(-1.32701 0.487084 -9.54175e-21)
(-0.286495 0.00718133 0)
(-1.31297 -0.498251 -9.69813e-21)
(-1.33584 0.581037 -6.82305e-21)
(-0.182873 -0.0315262 -3.63704e-21)
(-1.39718 -0.541259 0)
(-1.20433 0.362578 -1.19885e-20)
(-1.22906 -0.346272 0)
(-0.490774 -0.0166151 4.05235e-20)
(-0.893304 0.319186 0)
(-1.27779 -0.0556844 4.34048e-21)
(-0.764139 -0.266661 1.29927e-20)
(-1.20046 0.106802 1.64548e-20)
(-0.756634 0.153326 6.56548e-21)
(-0.975183 -0.254077 0)
(-0.316443 0.0722376 0)
(-1.25311 -0.506358 0)
(-1.35058 0.426786 7.8646e-21)
(-0.888201 0.294017 0)
(-1.25848 -0.0422723 -9.50838e-21)
(-0.789347 -0.250101 3.35105e-21)
(-0.784046 0.145089 0)
(-1.17977 0.0860863 0)
(-0.960145 -0.231382 0)
(-1.14335 0.131439 8.39471e-21)
(-1.02585 -0.218084 0)
(-0.758128 0.0820463 0)
(-1.1381 -0.208407 -1.18766e-22)
(-0.692934 -0.0285215 -1.65194e-20)
(-1.07617 0.272131 2.70337e-20)
(-1.18103 -0.197126 0)
(-0.671485 -0.0782228 -3.62104e-20)
(-1.28922 0.390112 -1.5224e-20)
(-0.403123 0.0459188 2.60221e-20)
(-1.23322 -0.433403 -2.00917e-20)
(-0.488291 0.211798 2.34738e-20)
(-1.3547 0.261427 8.64835e-21)
(-1.0887 -0.469017 2.1923e-20)
(-1.38041 0.30522 -2.424e-20)
(-1.13381 -0.498196 0)
(-0.421 0.196362 -2.31384e-20)
(-0.829238 -0.387004 -1.38431e-21)
(-1.34673 0.0295974 7.30448e-21)
(-0.761747 0.361815 0)
(-1.1033 0.172176 -3.86434e-20)
(-1.02862 0.506575 1.14698e-20)
(-0.512298 -0.290906 -1.52217e-20)
(-1.40059 -0.222572 0)
(-1.16264 -0.51708 0)
(-1.38413 0.340855 -2.18353e-20)
(-0.385884 0.172063 0)
(-1.03316 0.073779 -3.14412e-20)
(-0.882273 0.0106501 -1.16644e-20)
(-1.01481 -0.0847443 3.19192e-20)
(-1.0276 0.254957 0)
(-1.17857 -0.150628 -6.14005e-22)
(-0.728769 -0.105013 -1.35981e-20)
(-0.491528 0.24273 1.77697e-20)
(-1.37292 0.247438 0)
(-1.06626 -0.487078 -2.52783e-20)
(-1.11749 0.189425 3.10573e-20)
(-1.11687 -0.215806 2.71228e-20)
(-0.701204 -0.00565885 0)
(-0.220444 0.0257798 0)
(-1.32711 -0.558772 7.78694e-21)
(-1.37442 0.526695 0)
(-0.738279 0.349241 0)
(-1.3462 0.0447119 0)
(-0.850182 -0.396967 0)
(-1.35331 0.291166 2.12474e-20)
(-1.12248 -0.473426 0)
(-0.449851 0.181405 8.93108e-23)
(-1.25598 0.132092 7.2433e-21)
(-0.98005 -0.328422 -9.09544e-21)
(-0.690554 0.196601 0)
(-1.06251 0.314072 0)
(-1.21799 -0.200075 1.03856e-20)
(-0.646567 -0.11685 2.2686e-20)
(-0.993153 -0.481782 -3.26045e-20)
(-1.38709 0.176229 -1.50938e-20)
(-0.55863 0.309784 1.38323e-20)
(-1.33679 0.143282 0)
(-0.969049 -0.416212 -1.29982e-20)
(-0.630263 0.277165 -4.89112e-22)
(-0.201955 0.0517043 -2.33664e-20)
(-1.31139 -0.583337 0)
(-1.40571 0.516858 -7.3614e-21)
(-0.836973 0.293602 1.55896e-20)
(-0.824967 -0.28655 -1.58125e-20)
(-1.27309 -0.00739693 1.37626e-21)
(-1.2744 0.662272 7.08013e-21)
(-0.137664 -0.0790819 -3.41051e-20)
(-1.46776 -0.514837 0)
(-0.880273 0.0668272 -6.76499e-21)
(-1.07907 0.0463392 -2.40255e-20)
(-0.969859 -0.115301 3.25157e-20)
(-1.22309 0.166952 8.91991e-21)
(-1.23253 0.139349 1.48218e-22)
(-1.0271 -0.306533 -2.14454e-20)
(-0.995781 -0.307728 0)
(-0.699919 0.169618 1.2638e-20)
(-0.675235 0.14131 -1.32201e-20)
(-0.465477 -0.254667 -3.27262e-20)
(-1.07078 0.507605 1.18353e-20)
(-1.39818 -0.250161 -1.6249e-20)
(-1.0364 0.306586 0)
(-1.22356 -0.170794 0)
(-0.675704 -0.13824 -2.9982e-20)
(-1.34343 0.170427 -3.9722e-21)
(-0.992816 -0.435159 0)
(-0.600803 0.26823 0)
(-1.1563 0.364704 -1.00406e-20)
(-1.24439 -0.299498 0)
(-0.525062 -0.0686407 1.48139e-20)
(-0.983584 0.0331009 6.82146e-21)
(-1.00192 -0.0225021 9.72999e-21)
(-0.947927 -0.0102964 -3.41434e-21)
(-1.28344 0.151282 -1.40072e-20)
(-0.991513 -0.363023 0)
(-0.655454 0.215163 -2.24924e-20)
(-1.02101 0.328132 0)
(-1.24517 -0.16688 1.27464e-20)
(-0.665364 -0.165152 -1.93349e-20)
(-1.10136 0.216647 0)
(-1.11752 0.233722 3.1275e-21)
(-0.827162 0.311151 5.67609e-21)
(-0.815925 -0.307164 4.61412e-20)
(-1.2902 -0.0049068 -3.27662e-20)
(-1.28295 0.175918 -1.45214e-20)
(-1.01728 -0.372023 1.8627e-20)
(-0.627435 0.195506 2.05086e-20)
(-1.18084 0.372649 0)
(-0.498291 -0.048183 -5.19763e-20)
(-1.24641 -0.323777 -1.04932e-20)
(-0.82791 0.237116 -4.05464e-20)
(-0.869184 -0.263205 0)
(-1.23675 0.0226485 1.06904e-20)
(-0.67973 0.30186 -2.5833e-20)
(-1.33223 0.103546 -1.07588e-20)
(-0.919636 -0.402472 0)
(-1.04566 0.386131 -1.03483e-20)
(-1.29199 -0.203234 -1.09705e-20)
(-0.588786 -0.188039 9.03554e-21)
(-0.793973 0.313679 2.06911e-21)
(-0.839927 -0.334617 0)
(-1.30471 0.0243481 2.27376e-20)
(-1.06057 0.405651 0)
(-1.08585 0.408137 0)
(-1.30702 -0.220676 -7.07714e-21)
(-0.564669 -0.189034 -2.36445e-20)
(-1.3004 -0.247243 9.99377e-21)
(-0.544373 -0.163353 2.5046e-20)
(-0.341855 0.043975 -2.03664e-20)
(-1.26173 -0.476432 0)
(-1.32139 0.430331 -1.09601e-20)
(-1.07248 0.344463 1.17983e-20)
(-1.24431 -0.219841 0)
(-0.607829 -0.129928 7.90693e-21)
(-1.36537 -0.622706 1.1375e-20)
(-0.0773876 -0.0106214 2.99356e-20)
(-1.32696 0.653584 1.49711e-20)
(-1.13727 0.0602986 -1.0812e-20)
(-0.836089 0.112336 0)
(-0.959725 -0.175168 0)
(-1.1813 0.210521 2.03694e-20)
(-1.08907 -0.279695 0)
(-0.655576 0.0703276 4.39159e-20)
(-0.436682 0.0260723 -1.64175e-20)
(-1.26026 0.373201 3.12211e-20)
(-1.22514 -0.40222 1.51598e-20)
(-0.876169 -0.377743 0)
(-1.32682 0.0606252 9.80099e-21)
(-0.728125 0.320082 -3.08213e-20)
(-1.01924 -0.48524 -3.92603e-20)
(-1.38297 0.201892 -9.39046e-21)
(-0.531639 0.285391 0)
(-1.09177 -0.191762 -2.75564e-20)
(-0.738463 0.00649121 0)
(-1.15155 0.25972 2.29055e-20)
(-1.14358 -0.264387 9.69576e-21)
(-0.631603 0.000681942 1.34306e-20)
(-1.07308 -0.204284 1.62547e-20)
(-0.739298 0.0289931 2.59891e-22)
(-1.15269 0.502624 -7.84886e-22)
(-0.399835 -0.174699 1.95374e-20)
(-1.37649 -0.327421 -9.80231e-21)
(-0.807108 -0.407264 0)
(-1.36505 0.0187912 2.29961e-21)
(-0.768779 0.386983 0)
(-1.16886 0.273421 -2.3366e-20)
(-1.15675 -0.282556 -1.18265e-20)
(-0.604583 0.0104422 -1.67113e-20)
(-1.18335 0.143504 0)
(-1.01683 -0.25881 -1.69853e-20)
(-0.727293 0.115383 0)
(-1.26228 0.0657267 0)
(-0.905526 -0.309386 0)
(-0.76526 0.241806 0)
(-1.03361 0.161771 -8.9788e-21)
(-1.09353 -0.120422 -1.52171e-20)
(-0.801514 -0.042049 5.30878e-24)
(-0.701834 0.315733 3.20972e-20)
(-1.33532 0.0841117 2.61977e-20)
(-0.900326 -0.395316 1.89735e-20)
(-1.32318 0.359522 -1.31944e-20)
(-1.19756 -0.46003 1.70921e-20)
(-0.404648 0.0955687 -2.45598e-20)
(-1.03731 -0.46901 2.65328e-20)
(-1.36663 0.213465 9.51883e-21)
(-0.528953 0.258399 1.74996e-20)
(-0.90243 0.419254 -2.28042e-20)
(-0.678937 -0.33028 2.54633e-20)
(-1.35461 -0.0879004 -1.49915e-20)
(-1.05775 0.455587 6.41288e-21)
(-1.04367 0.438279 -5.80634e-21)
(-1.33874 -0.212207 -2.22963e-21)
(-1.35398 -0.225458 0)
(-0.524534 -0.23397 -8.70716e-21)
(-0.550245 -0.231875 -7.59906e-21)
(-0.0979673 -0.0298685 -4.04814e-20)
(-1.39926 -0.589457 -1.25406e-20)
(-1.32057 0.647509 4.62554e-21)
(-1.26258 0.646729 -4.70333e-22)
(-0.165487 -0.100381 4.72162e-20)
(-1.4689 -0.492479 0)
(-1.24083 0.179841 -3.26669e-20)
(-1.04471 -0.32234 -4.80023e-21)
(-0.653975 0.145602 0)
(-0.376698 0.0252936 -5.008e-20)
(-1.29084 0.412238 1.09099e-20)
(-1.25803 -0.439288 0)
(-0.977442 0.409057 3.16885e-20)
(-1.00114 0.414693 -2.38347e-20)
(-1.32721 -0.150939 1.15937e-20)
(-1.32692 -0.170066 4.46525e-21)
(-0.631799 -0.264106 -1.47196e-20)
(-0.606401 -0.247974 -7.46785e-21)
(-0.327647 0.196027 0)
(-1.16332 -0.569725 0)
(-1.43618 0.349888 3.81945e-21)
(-1.23904 0.692803 -8.27951e-21)
(-0.11405 -0.0843036 0)
(-1.47827 -0.51577 0)
(-1.0639 -0.00466871 -6.75854e-23)
(-0.937934 0.0815896 1.47292e-20)
(-0.928537 -0.0771198 7.34603e-21)
(-1.32376 0.63678 -1.38649e-20)
(-1.42223 -0.569219 6.56591e-21)
(-0.126765 -0.0382073 2.21017e-21)
(-0.928722 0.323004 0)
(-1.2701 -0.0863643 -1.99748e-20)
(-0.736013 -0.241414 3.49402e-23)
(-1.36083 0.411081 1.99706e-22)
(-1.23172 -0.511223 2.42005e-20)
(-0.34054 0.0953609 -1.83453e-23)
(-1.24842 -0.67311 3.48664e-22)
(-0.0560668 0.0259468 -1.72069e-20)
(-1.35368 0.577658 -5.32015e-21)
(-0.879222 0.210275 -1.45213e-20)
(-0.859998 -0.201478 1.38087e-20)
(-1.19526 -0.00856415 3.43051e-20)
(-1.09304 0.0673296 0)
(-0.986311 -0.138302 -3.58212e-20)
(-0.85286 0.0692973 1.96105e-20)
(-1.27733 0.562891 0)
(-0.248724 -0.0724479 2.37037e-20)
(-1.39204 -0.473735 -3.68874e-23)
(-1.11249 0.0754765 0)
(-0.981413 -0.157794 -1.25387e-20)
(-0.832969 0.0858822 -2.76112e-20)
(-1.04266 -0.00145069 1.45519e-20)
(-0.946127 0.0611052 -7.87664e-21)
(-0.941333 -0.0590115 3.84398e-21)
(-0.712744 0.36772 1.53535e-20)
(-1.36666 0.0583635 -9.18797e-21)
(-0.860382 -0.427503 2.11567e-20)
(-1.12757 0.0215741 0)
(-0.924136 -0.148351 0)
(-0.87734 0.132269 2.25407e-21)
(-1.14258 0.0478164 1.71203e-20)
(-0.942305 -0.166691 9.90048e-21)
(-0.855911 0.127413 3.23281e-22)
(-0.881045 0.408893 3.46128e-20)
(-1.35168 -0.0716028 -1.49296e-20)
(-0.704373 -0.343194 -2.51748e-20)
(-0.329933 -0.07353 3.55116e-20)
(-0.321126 -0.0501055 -3.61825e-20)
(-1.35255 -0.422039 6.60894e-21)
(-1.33571 -0.440699 4.71575e-21)
(-1.24338 0.506124 0)
(-1.26518 0.496523 -9.6841e-21)
(-1.35095 0.366676 1.6269e-20)
(-1.20089 -0.482361 -1.51576e-20)
(-0.378943 0.118605 3.03277e-20)
(-0.655069 -0.351615 -1.65381e-20)
(-0.904465 0.446767 7.07405e-21)
(-1.37381 -0.0959373 1.90936e-20)
(-0.863471 0.281597 -1.42307e-20)
(-0.814152 -0.260175 -1.45245e-20)
(-1.25768 -0.0231324 1.05371e-20)
(-1.3619 0.125111 0)
(-0.942404 -0.441216 1.34483e-20)
(-0.633579 0.316337 5.06351e-22)
(-1.24828 -0.681036 7.30822e-21)
(-0.120994 0.0856116 -1.60405e-20)
(-1.47219 0.519694 -5.24279e-21)
(-0.417771 0.237131 0)
(-1.41031 0.290849 0)
(-1.10556 -0.535131 1.06942e-20)
(-1.34028 0.554015 8.0388e-21)
(-0.210211 -0.0115924 0)
(-1.36922 -0.537232 -7.64152e-21)
(-0.0398573 0.0139275 -6.33082e-32)
(-1.21489 -0.663872 -4.38576e-21)
(-1.29688 0.582878 4.90682e-21)
(-1.29364 -0.582407 4.91909e-21)
(-0.0405407 -0.0130016 6.31636e-32)
(-1.22037 0.665436 -4.34852e-21)
(-1.07965 -0.368411 -2.51765e-20)
(-1.26983 0.225848 0)
(-0.58859 0.145179 -4.48763e-20)
(-1.2039 -0.621749 -4.30413e-21)
(-0.238351 0.165111 -1.63647e-20)
(-1.48005 0.413169 0)
(-1.23804 0.334144 -1.48612e-20)
(-1.19125 -0.369801 1.34945e-20)
(-0.499873 0.0374843 2.36961e-20)
(-1.16374 0.587001 2.61454e-20)
(-0.309619 -0.202556 1.42824e-20)
(-1.456 -0.359848 0)
(-1.07731 0.177304 6.77204e-21)
(-0.758449 -0.0101342 -8.16189e-21)
(-1.09653 -0.169302 6.64775e-21)
(-1.14489 -0.559008 5.45276e-21)
(-0.356954 0.211627 1.71316e-20)
(-1.42646 0.331022 4.34917e-21)
(-1.35824 0.112137 -1.05975e-20)
(-0.653828 0.325166 -8.89104e-21)
(-0.92472 -0.431353 0)
(-1.01298 -0.428807 0)
(-1.3318 0.187068 0)
(-0.584996 0.244171 0)
(-0.00761406 -0.000573112 0)
(-0.813293 -0.410425 -2.03134e-21)
(-0.814976 0.411308 2.02714e-21)
(-1.33519 -0.651085 6.25678e-21)
(-0.082287 0.010251 -2.08432e-20)
(-1.36767 0.624918 -6.61779e-21)
(-1.06405 0.157728 -1.76606e-20)
(-0.785048 -0.0113281 1.8966e-20)
(-1.08188 -0.149956 7.70761e-21)
(-1.20368 -0.549517 2.11823e-20)
(-1.41292 0.390848 -8.3549e-21)
(-0.310558 0.148583 0)
(-0.303817 0.209321 -1.80717e-20)
(-1.46369 0.358686 0)
(-1.16031 -0.598639 -1.61132e-20)
(-1.26256 0.43371 -1.01468e-20)
(-0.376165 -0.0144772 5.36872e-20)
(-1.28349 -0.418231 0)
(-0.451339 -0.198665 -3.98357e-20)
(-1.36716 -0.285306 1.05869e-20)
(-1.11224 0.485886 0)
(-0.855045 0.425048 -4.36794e-20)
(-1.36782 -0.057274 1.8998e-20)
(-0.719117 -0.373485 -7.99609e-21)
(-1.34813 -0.189125 3.28591e-21)
(-1.01076 0.445304 1.37367e-20)
(-0.575622 -0.263035 -2.35766e-20)
(-0.408489 -0.238591 -3.59844e-20)
(-1.10524 0.536011 0)
(-1.41717 -0.292365 0)
(-0.976924 0.302639 -6.66857e-21)
(-0.991055 0.324434 0)
(-1.23684 -0.11899 -2.09997e-20)
(-1.25297 -0.135816 2.24973e-20)
(-0.719625 -0.18416 3.87054e-21)
(-0.69058 -0.190418 -4.11955e-21)
(-0.949538 0.301426 6.39409e-21)
(-1.24546 -0.0958245 0)
(-0.741231 -0.207462 7.35901e-21)
(-0.953267 0.425468 0)
(-1.34374 -0.137648 -1.87308e-20)
(-0.637318 -0.293302 5.30383e-21)
(-1.03475 -0.448045 -1.31279e-20)
(-1.34754 0.206613 9.99448e-21)
(-0.5499 0.240694 -3.62083e-20)
(-1.1796 -0.511683 0)
(-1.37021 0.361689 2.4016e-20)
(-0.369599 0.144725 0)
(-0.519291 0.196723 -1.17128e-20)
(-1.3321 0.246241 -6.412e-21)
(-1.0819 -0.441776 -8.50237e-21)
(-1.34226 -0.571542 -6.59603e-22)
(-0.0540672 -0.0254664 1.10827e-20)
(-1.24466 0.672738 0)
(-0.931174 0.214512 1.28571e-20)
(-0.953204 0.202217 0)
(-0.823199 -0.16162 0)
(-1.1783 -0.0520867 4.19817e-20)
(-0.820842 -0.135096 0)
(-1.15909 -0.0671948 -2.67701e-20)
(-0.933673 0.389632 0)
(-0.916834 0.368101 0)
(-0.711265 -0.279463 -4.9537e-23)
(-1.32193 -0.107512 1.18877e-20)
(-0.683153 -0.2818 3.8232e-20)
(-1.30808 -0.0895372 -2.51965e-20)
(-1.19798 -0.692909 0)
(-0.0658539 0.0489196 2.34049e-20)
(-1.40782 0.555262 0)
(-1.20426 -0.535237 -1.26702e-20)
(-1.39225 0.385203 2.66793e-21)
(-0.328489 0.12931 1.08878e-20)
(-0.839045 0.32948 -2.47651e-20)
(-0.795853 -0.316309 -1.66921e-20)
(-1.30345 -0.0181448 3.38959e-20)
(-0.979136 -0.462553 2.90384e-20)
(-1.37193 0.161126 2.53515e-20)
(-0.584343 0.305341 0)
(-0.472513 -0.215466 4.26204e-20)
(-1.36644 -0.268863 -1.12565e-20)
(-1.09247 0.479634 1.48741e-20)
(-1.34572 -0.616116 0)
(-1.41019 0.57208 0)
(-0.139141 0.0262967 0)
(-1.31982 -0.612696 0)
(-1.42119 0.54021 6.96984e-21)
(-0.167252 0.0553205 3.97711e-21)
(-1.01872 0.395618 -1.30831e-20)
(-1.30294 -0.184245 6.84006e-21)
(-0.608248 -0.215531 1.1049e-20)
(-0.825556 0.215581 -3.84379e-21)
(-0.889189 -0.249379 0)
(-1.21903 0.0343671 -1.35675e-22)
(-1.27373 0.461459 1.18215e-20)
(-0.346257 -0.0233501 3.1574e-20)
(-1.30811 -0.433969 -5.49145e-21)
(-1.0725 -0.396045 0)
(-1.29461 0.229669 0)
(-0.567706 0.172859 3.8632e-20)
(-0.463508 -0.0698218 9.9498e-21)
(-1.2745 -0.33903 1.79302e-20)
(-1.1842 0.409401 3.21721e-20)
(-0.89608 0.366317 0)
(-0.727765 -0.29576 -2.5115e-20)
(-1.31221 -0.0748728 1.28962e-20)
(-1.2602 0.110806 2.14864e-22)
(-0.954878 -0.320661 1.3341e-20)
(-0.717927 0.213854 0)
(-0.862239 0.252215 3.03516e-22)
(-0.837182 -0.24272 -4.73757e-21)
(-1.23564 -0.0126191 -1.38029e-20)
(-0.325585 0.0127025 3.92529e-23)
(-1.29399 -0.471349 1.30533e-20)
(-1.31016 0.458209 1.28344e-20)
(-1.13292 0.390772 -5.98642e-21)
(-1.27409 -0.284873 -5.32764e-21)
(-0.522181 -0.107966 0)
(-0.900671 0.196842 -1.39362e-20)
(-0.857111 -0.175911 2.96479e-20)
(-1.17668 -0.0206096 -2.26581e-20)
(-1.1189 0.562133 1.04261e-20)
(-0.373668 -0.240125 1.61028e-20)
(-1.43776 -0.312181 -7.40799e-21)
(-0.975686 0.254279 -8.02353e-21)
(-1.19447 -0.105376 0)
(-0.759234 -0.151285 0)
(-1.14483 0.113056 -3.08442e-20)
(-1.0018 -0.207042 7.79313e-21)
(-0.782133 0.0954159 0)
(-1.02731 -0.397945 0)
(-1.30699 0.186233 2.07864e-20)
(-0.599003 0.215019 0)
(-1.22355 0.627641 -5.48707e-21)
(-0.218398 -0.141633 -5.06014e-21)
(-1.47391 -0.442437 7.33291e-21)
(-1.19545 0.626492 1.53086e-20)
(-0.240687 -0.170174 0)
(-1.4779 -0.411238 -7.52993e-21)
(-0.458896 -0.101906 9.25592e-21)
(-1.29762 -0.32618 -1.03745e-20)
(-1.16731 0.427228 -2.96368e-20)
(-1.2873 0.0963657 -9.53252e-21)
(-0.934628 -0.351002 -1.35845e-20)
(-0.713109 0.254183 0)
(-0.178158 -0.132316 4.63337e-21)
(-1.49237 -0.470586 -6.85393e-21)
(-1.22208 0.658179 0)
(-0.466329 0.0478969 0)
(-1.19854 -0.393941 -1.11173e-20)
(-1.26045 0.348209 -3.57418e-21)
(-0.0260292 0.0164296 1.85922e-20)
(-1.0733 -0.65346 5.24812e-21)
(-1.21302 0.519515 0)
(-1.07679 0.656119 -5.22324e-21)
(-1.21099 -0.517724 0)
(-0.0266195 -0.0166005 1.86026e-20)
(-0.418104 -0.210291 -2.27766e-23)
(-1.3927 -0.303085 0)
(-1.11919 0.517477 0)
(-0.26138 0.0336752 0)
(-1.30257 -0.527868 0)
(-1.36048 0.486536 1.64675e-20)
(-1.21338 0.486291 -1.06862e-20)
(-1.2033 0.463316 8.64374e-21)
(-0.364193 -0.101304 -1.779e-20)
(-1.3501 -0.379313 -2.20226e-21)
(-0.39293 -0.0916994 -2.8568e-20)
(-1.3234 -0.368822 4.12706e-21)
(-1.28079 0.326709 6.80907e-21)
(-1.17393 -0.411272 7.49854e-21)
(-0.470955 0.0837538 0)
(-0.60726 0.334464 0)
(-0.945805 -0.468779 0)
(-1.38265 0.135867 0)
(-0.97703 0.162423 0)
(-0.836861 -0.0927314 -4.10598e-20)
(-1.11979 -0.0718705 1.49375e-20)
(-1.30081 0.276647 1.90715e-20)
(-1.11919 -0.418054 2.8534e-21)
(-0.509069 0.142718 3.47088e-20)
(-0.530463 0.16597 2.25243e-20)
(-1.30823 0.25776 -2.65509e-20)
(-1.09502 -0.41902 -3.95739e-21)
(-1.07367 0.536005 1.19289e-20)
(-0.435664 -0.270031 1.7183e-20)
(-1.42197 -0.261102 1.69525e-20)
(-0.928453 0.40779 0)
(-1.33869 -0.109622 5.56605e-21)
(-0.668555 -0.2997 -3.74689e-20)
(-0.936405 0.341878 0)
(-1.28474 -0.0965077 2.6236e-20)
(-0.715234 -0.251708 6.9407e-23)
(-1.23572 0.259176 -2.5482e-20)
(-1.12202 -0.350044 3.43285e-21)
(-0.573108 0.0880394 -1.93702e-20)
(-1.25774 0.255567 0)
(-1.11017 -0.367961 3.27856e-21)
(-0.563866 0.112437 1.79024e-20)
(-0.902284 0.169092 0)
(-0.879667 -0.15725 -4.67412e-20)
(-1.15305 -0.0113068 1.28823e-20)
(-0.981117 0.343842 0)
(-1.27007 -0.136839 0)
(-0.678454 -0.213417 5.61477e-21)
(-0.374797 0.244666 -3.70847e-20)
(-1.11311 -0.567852 -2.99883e-20)
(-1.43933 0.309813 0)
(-1.45614 0.512721 8.74261e-21)
(-0.166881 0.0861911 0)
(-1.27265 -0.64143 5.40751e-21)
(-1.47803 0.496888 -3.8927e-22)
(-0.150367 0.100273 0)
(-1.25375 -0.657956 -1.52674e-20)
(-0.911034 0.277263 9.69431e-21)
(-0.787411 -0.21785 -5.25596e-21)
(-1.235 -0.0590106 -3.33406e-22)
(-1.32953 -0.643253 5.43973e-22)
(-0.109012 0.0332821 3.18281e-20)
(-1.42088 0.579446 0)
(-1.13967 0.420758 2.57677e-20)
(-0.489003 -0.122931 1.91452e-20)
(-1.29889 -0.297565 0)
(-0.100312 0.0593753 -4.72192e-21)
(-1.27118 -0.680473 -7.43301e-21)
(-1.44369 0.548427 0)
(-1.06001 0.0928164 2.18272e-20)
(-0.853198 0.0234565 2.48611e-20)
(-1.0202 -0.11324 1.24899e-22)
(-1.10907 0.259995 -3.90042e-21)
(-1.1587 -0.224077 -3.52895e-21)
(-0.665437 -0.036564 -1.96787e-20)
(-0.910076 -0.343616 3.1065e-20)
(-1.28759 0.078884 2.24111e-20)
(-0.736998 0.2646 0)
(-0.267085 0.166117 0)
(-1.19778 -0.599747 -5.50694e-21)
(-1.4581 0.400056 0)
(-1.05211 -0.406807 0)
(-1.30737 0.216221 0)
(-0.57429 0.194354 0)
(-0.345923 -0.204592 0)
(-1.15248 0.560793 -9.56904e-21)
(-1.43304 -0.339438 7.2788e-21)
(-1.12812 0.276634 0)
(-1.16324 -0.251787 1.76942e-21)
(-0.636719 -0.026454 1.92556e-20)
(-0.979478 0.144946 0)
(-0.853516 -0.0789011 3.51815e-20)
(-1.10115 -0.06728 0)
(-1.22703 -0.572943 -2.00138e-20)
(-1.42206 0.426468 7.94799e-21)
(-0.274939 0.130872 0)
(-0.448036 -0.00791024 -2.10701e-20)
(-1.24111 -0.382108 6.9604e-22)
(-1.23167 0.387425 4.21374e-22)
(-1.27659 0.591175 0)
(-1.28896 0.61098 9.54504e-21)
(-0.216517 -0.0886076 -1.16688e-20)
(-0.189885 -0.0754111 -1.43462e-20)
(-1.42634 -0.477921 -4.81392e-21)
(-1.43212 -0.502771 3.95982e-21)
(-1.19787 0.173761 0)
(-1.03963 -0.285663 4.99784e-20)
(-0.689385 0.112536 2.0722e-20)
(-1.06092 -0.349219 3.5376e-20)
(-1.257 0.207594 0)
(-0.61026 0.147249 -2.33016e-20)
(-1.1041 0.126671 -1.77281e-20)
(-1.03373 -0.174342 1.30278e-20)
(-0.787751 0.0451452 3.08252e-20)
(-1.25505 -0.623484 1.24745e-20)
(-1.45542 0.473019 9.50652e-21)
(-1.22972 -0.634166 -5.84026e-21)
(-0.202162 0.107952 0)
(-1.47692 0.449786 -9.17273e-21)
(-0.207548 0.132718 0)
(-1.16774 0.314658 0)
(-1.1893 -0.299302 0)
(-0.57093 -0.0158563 2.19042e-20)
(-1.40955 0.447478 1.38809e-20)
(-1.42874 0.470017 -2.58044e-20)
(-1.25829 -0.567997 8.14157e-21)
(-1.27167 -0.591738 -2.07492e-20)
(-0.252014 0.0970267 3.20949e-20)
(-0.220749 0.0891566 2.39361e-23)
(-1.26213 0.191269 0)
(-1.03499 -0.354426 -3.32448e-20)
(-0.632441 0.170965 3.01404e-20)
(-1.14102 0.196144 1.65729e-20)
(-1.10416 -0.237319 -2.16788e-20)
(-0.683814 0.0232541 0)
(-1.19016 0.591888 0)
(-0.28213 -0.171908 0)
(-1.45159 -0.391629 7.24148e-21)
(-1.18108 0.192067 1.21015e-20)
(-1.06476 -0.272784 -1.38238e-20)
(-0.679393 0.0844703 -3.45325e-20)
(-1.11528 0.151494 7.21367e-21)
(-1.05165 -0.195826 -1.53107e-20)
(-0.759749 0.0425419 1.83743e-20)
(-1.24168 0.603696 0)
(-0.232684 -0.12079 0)
(-1.44714 -0.452614 -1.01834e-20)
(-1.11041 0.299056 0)
(-1.19503 -0.23946 3.70814e-21)
(-0.618454 -0.0614037 -2.16159e-20)
(-0.900964 -0.445841 0)
(-1.37411 0.0972723 0)
(-0.662838 0.354161 -1.14601e-21)
(-0.879544 0.383567 -1.11049e-21)
(-1.33013 -0.0644033 0)
(-0.724695 -0.322761 3.89066e-20)
(-1.02874 -0.512199 1.53441e-20)
(-0.495284 0.298793 0)
(-1.40386 0.218926 0)
(-0.0178165 -0.000373776 -4.47115e-20)
(-1.0448 -0.533136 2.84243e-21)
(-1.04712 0.534945 -2.83672e-21)
(-1.15731 0.230268 0)
(-1.11193 -0.256579 1.33372e-20)
(-0.659012 0.0293995 -1.7744e-20)
(-1.20943 0.543094 1.76654e-20)
(-0.3131 -0.132773 6.01665e-20)
(-1.40205 -0.390948 0)
(-0.761322 -0.391254 -1.01837e-20)
(-1.36834 -0.019177 -1.25088e-20)
(-0.808492 0.40745 -1.00363e-20)
(-1.18693 0.694518 0)
(-0.0641541 -0.0480476 -1.67475e-20)
(-1.40653 -0.549345 0)
(-0.810194 0.166587 1.92527e-20)
(-0.800687 0.197582 -1.9745e-20)
(-0.93048 -0.22713 0)
(-1.18716 0.0597866 1.46548e-20)
(-0.91816 -0.253172 -2.92744e-20)
(-1.21349 0.0539021 -1.16069e-20)
(-1.11655 0.105778 1.66363e-20)
(-1.00735 -0.173551 1.75881e-20)
(-0.804122 0.0701188 0)
(-0.854982 0.197842 1.67398e-20)
(-0.841268 0.175114 0)
(-0.884083 -0.212387 -1.64978e-20)
(-1.19509 0.0137813 1.2951e-20)
(-0.906874 -0.205069 1.66252e-20)
(-1.18078 0.0322219 1.834e-22)
(-1.1426 0.218603 1.05985e-21)
(-1.07925 -0.2334 -9.52979e-21)
(-0.707388 0.0437995 -2.28565e-20)
(-1.15619 0.183886 -2.83761e-20)
(-1.06473 -0.245113 2.55386e-22)
(-0.707315 0.0670496 0)
(-0.172793 0.130882 0)
(-1.21928 -0.666013 0)
(-1.49494 0.463722 9.14926e-21)
(-0.938645 0.278499 -8.92916e-21)
(-1.22921 -0.0783757 0)
(-0.766841 -0.200163 9.87161e-21)
(-1.37317 0.454284 -2.62697e-20)
(-1.26986 -0.537188 9.6989e-21)
(-0.273664 0.0670697 -1.83126e-20)
(-1.22565 0.288221 0)
(-1.24124 0.305206 1.42876e-20)
(-1.15142 -0.346441 -4.27922e-21)
(-1.16499 -0.364385 1.34964e-20)
(-0.548985 0.0593236 -2.43297e-20)
(-0.521759 0.0611292 -2.28883e-20)
(-0.954445 0.25277 0)
(-1.20324 -0.0863646 0)
(-0.777312 -0.169098 4.593e-21)
(-0.978331 0.384258 1.06275e-20)
(-1.30603 -0.143138 0)
(-0.652889 -0.245639 1.26669e-20)
(-1.1889 0.270107 -7.40135e-21)
(-1.14022 -0.307079 0)
(-0.594039 0.0374499 0)
(-0.959719 0.0981869 1.77535e-20)
(-1.07065 -0.0315293 -8.16931e-21)
(-0.899953 -0.069054 9.27675e-21)
(-1.27449 0.280949 0)
(-1.12927 -0.392016 0)
(-0.52518 0.1148 -3.68525e-20)
(-0.949846 0.170463 0)
(-0.846728 -0.119611 5.20459e-21)
(-1.13603 -0.0513474 0)
(-1.23451 0.212371 -1.61672e-20)
(-1.06814 -0.33205 -1.81413e-20)
(-0.631283 0.1214 -3.00886e-21)
(-0.996023 0.36155 1.06441e-20)
(-1.28378 -0.15578 0)
(-0.653682 -0.214464 2.60661e-20)
(-0.954292 0.12487 -1.76047e-20)
(-0.931643 0.130417 -7.98421e-21)
(-1.0938 -0.0389422 8.03097e-21)
(-0.883202 -0.0876188 -1.83875e-20)
(-1.11015 -0.0241298 0)
(-0.889981 -0.109179 -3.26844e-20)
(-0.882113 0.15185 -8.23502e-21)
(-0.900551 -0.164363 2.17228e-20)
(-0.857079 0.160659 5.31861e-21)
(-1.14757 0.00864871 -1.78781e-20)
(-0.915389 -0.190061 -1.02535e-20)
(-1.16509 0.0288822 3.39873e-22)
(-0.989312 0.281197 9.51701e-21)
(-1.0187 0.282131 0)
(-1.21252 -0.125744 1.57995e-20)
(-1.20658 -0.148332 -1.23549e-20)
(-0.727188 -0.156149 -2.2311e-20)
(-0.708125 -0.134328 3.71464e-20)
(-0.455197 -0.165745 0)
(-1.34171 -0.297879 -6.26619e-21)
(-1.1287 0.462749 -1.5547e-20)
(-0.69286 0.345928 1.38312e-20)
(-1.35899 0.0801849 1.45067e-20)
(-0.889079 -0.423777 -3.30642e-20)
(-0.424095 -0.150584 -2.00566e-20)
(-0.422953 -0.118077 1.61459e-20)
(-1.34546 -0.326471 5.423e-21)
(-1.32366 -0.341708 9.48921e-21)
(-1.15317 0.478272 3.95406e-20)
(-1.17476 0.458106 -2.05302e-20)
(-0.786741 0.343007 1.83785e-20)
(-0.825331 -0.35735 -1.59245e-20)
(-1.32552 0.0168508 3.3051e-21)
(-0.981133 0.0544236 2.93549e-20)
(-0.927404 -0.0256044 0)
(-1.02378 -0.0295317 -2.87675e-20)
(-1.26641 0.304142 -6.7624e-21)
(-1.15521 -0.390462 -1.52338e-20)
(-0.506209 0.0884629 0)
(-0.931459 0.234859 0)
(-0.802956 -0.179149 -4.37357e-21)
(-1.19694 -0.0599225 -1.36829e-20)
(-1.01356 0.366869 0)
(-1.28228 -0.170207 0)
(-0.635832 -0.201303 -2.43096e-20)
(-1.08428 0.453875 -1.69565e-20)
(-1.0975 0.433269 0)
(-1.34382 -0.255571 3.37156e-21)
(-0.504316 -0.202806 -2.40469e-20)
(-1.32249 -0.261083 -9.23467e-21)
(-0.510973 -0.174623 3.24663e-20)
(-1.19245 0.316079 1.40654e-20)
(-1.18787 -0.320787 1.39654e-20)
(-0.545509 0.00647114 1.32658e-20)
(-1.24827 0.681541 1.0387e-20)
(-1.43539 -0.551677 0)
(-0.0904751 -0.0542579 -6.85607e-21)
(-0.786194 -0.383678 1.10602e-20)
(-1.35663 -0.00501709 1.02366e-20)
(-0.798126 0.386082 1.09245e-20)
(-0.836285 0.403832 1.13052e-20)
(-0.83966 0.383436 1.22865e-20)
(-0.746481 -0.369673 -1.21132e-20)
(-1.35822 -0.0363967 0)