/*--------------------------------*- C++ -*----------------------------------*\
  =========                 |
  \\      /  F ield         | OpenFOAM: The Open Source CFD Toolbox
   \\    /   O peration     | Website:  https://openfoam.org
    \\  /    A nd           | Version:  6
     \\/     M anipulation  |
\*---------------------------------------------------------------------------*/
FoamFile
{
    version     2.0;
    format      ascii;
    class       surfaceScalarField;
    location    "0";
    object      Phi_rec;
}
// * * * * * * * * * * * * * * * * * * * * * * * * * * * * * * * * * * * * * //

dimensions      [0 3 -1 0 0 0 0];

internalField   nonuniform List<scalar> 
17780
(
0.00134822
0.000990478
0.000958539
0.000602567
0.000615691
0.000308596
0.000450337
0.000171194
0.000357852
0.000103025
0.000302543
6.22173e-05
0.00026719
4.72403e-05
0.000241995
2.29431e-05
0.000224441
1.44093e-05
0.000213063
6.32544e-06
0.000204954
1.71149e-05
0.000197809
1.62106e-05
0.000193732
1.426e-05
0.00019304
1.38819e-05
0.000191283
2.70109e-06
0.000188461
-3.12874e-06
0.000186117
-5.78048e-06
0.000184853
1.20024e-06
0.000185124
7.74607e-06
0.000186288
1.39806e-05
0.000186441
1.00941e-05
0.000185597
1.09184e-05
0.000185267
6.83963e-06
0.000185192
8.24032e-06
0.000185969
9.8062e-06
0.000185359
5.61043e-06
0.000184206
-1.48148e-06
0.000185365
3.7707e-07
0.000184982
-9.08329e-06
0.000185
-4.3609e-06
0.000185973
-2.84338e-06
0.000185246
-9.59667e-06
0.000185032
-1.19118e-05
0.000184305
-1.10774e-05
0.000183539
-6.58674e-06
0.000184079
-3.49294e-06
0.000185061
-4.55693e-07
0.000186238
-4.06983e-06
0.00018753
-4.01869e-06
0.000188713
-2.06764e-06
0.000188537
-3.94018e-06
0.000188725
-8.452e-06
0.000190659
-5.53432e-06
0.000194431
-7.16294e-06
0.000199487
-1.17413e-05
0.000206116
-2.14509e-05
0.000221785
-2.7304e-05
0.000258893
-3.60758e-05
0.000349191
-9.94951e-05
-0.000306869
0.000590687
0.00227251
0.00133434
0.00190599
0.00110894
0.00147242
0.000716045
0.00118146
0.000450716
0.000986512
0.000291621
0.000856117
0.000191374
0.000765353
0.000134473
0.000700249
8.20944e-05
0.000657028
5.91046e-05
0.000627855
3.93519e-05
0.000603359
3.78921e-05
0.000582356
2.85967e-05
0.000568549
2.43962e-05
0.000561984
2.59933e-05
0.000557754
9.74217e-06
0.000554218
1.59814e-06
0.000550755
-1.76167e-06
0.000547772
1.29129e-06
0.00054604
1.18672e-05
0.000546037
1.63105e-05
0.000546039
1.81406e-05
0.000543905
1.15e-05
0.000543388
1.02164e-05
0.000544319
1.35557e-05
0.000543979
1.5262e-05
0.000541346
3.23315e-06
0.000540204
-9.06503e-07
0.000542063
-4.78575e-06
0.000542903
-1.69941e-05
0.000543667
-6.76698e-06
0.000542826
-9.1862e-06
0.00054202
-1.20867e-05
0.000543651
-1.44217e-05
0.000542729
-1.45498e-05
0.000541729
-7.07321e-06
0.00054246
-1.01835e-06
0.000544167
-4.05057e-07
0.000548386
8.39259e-07
0.000551876
-6.13944e-06
0.000553819
-1.95515e-06
0.000555273
-8.14752e-06
0.000559039
-1.69188e-05
0.000564571
-1.8716e-05
0.000572889
-2.38065e-05
0.000588672
-3.00081e-05
0.000615019
-4.69382e-05
0.000657848
-6.90215e-05
0.000730962
-0.000120105
0.000868802
-0.000235567
-0.000510432
0.00105669
0.00256622
0.0012148
0.00237715
0.00134327
0.00203262
0.00104376
0.00173491
0.000734681
0.00150607
0.000515986
0.0013377
0.000360554
0.00121141
0.00024843
0.00112021
0.000176502
0.00105842
0.000130913
0.00101574
9.60956e-05
0.000978396
7.00118e-05
0.000946189
4.50582e-05
0.000925972
4.14149e-05
0.000913757
3.6947e-05
0.000904718
1.84612e-05
0.000898718
9.50034e-06
0.000895618
7.70475e-06
0.000893279
4.3313e-06
0.000890063
1.37907e-05
0.000887993
1.12538e-05
0.000886172
1.87697e-05
0.00088421
6.3502e-06
0.000885363
1.09784e-05
0.000883919
1.24601e-05
0.000880594
1.2395e-05
0.000879708
1.70875e-06
0.000877817
-4.79826e-06
0.000879281
-7.7311e-06
0.000882807
-1.80031e-05
0.000882999
-1.05025e-05
0.000880933
-9.24535e-06
0.00087975
-1.00114e-05
0.000883204
-8.21719e-06
0.000885092
-1.1761e-05
0.000883251
-7.86159e-06
0.000883354
2.78218e-06
0.000886224
4.00448e-07
0.000891484
3.34624e-06
0.000896598
-6.52417e-06
0.00089877
-5.95872e-06
0.000902184
-1.5036e-05
0.000911136
-2.21701e-05
0.000922447
-3.28876e-05
0.00093796
-4.16422e-05
0.000962037
-5.69715e-05
0.00100066
-8.49056e-05
0.00106135
-0.000128622
0.0011523
-0.000222939
0.00128846
-0.000372135
-0.000672004
0.00142794
0.00265407
0.0010388
0.00260186
0.00141371
0.00237632
0.00126126
0.00213252
0.000975759
0.0019144
0.00072706
0.00173817
0.000532373
0.00160263
0.000388501
0.00150044
0.000288357
0.00142502
0.00021814
0.0013686
0.000162144
0.00132383
0.000115694
0.00129002
7.82808e-05
0.00126362
6.69459e-05
0.00124324
4.76961e-05
0.00123294
2.94031e-05
0.00122719
1.90858e-05
0.00122183
1.15325e-05
0.0012185
6.18844e-06
0.00121492
1.47227e-05
0.00121102
1.16665e-05
0.00120724
1.39735e-05
0.00120592
2.07122e-06
0.00120757
7.54998e-06
0.00120482
5.54537e-06
0.00119963
5.94857e-06
0.00119663
1.17025e-06
0.00119477
-7.31651e-06
0.0011985
-1.58764e-06
0.00120396
-1.07771e-05
0.00120484
-1.07882e-05
0.00120319
-1.69064e-06
0.00120191
-3.27463e-06
0.00120485
-9.44589e-07
0.00120784
-6.01564e-06
0.00120745
-5.18999e-06
0.00120726
1.68022e-06
0.00120888
-4.65089e-06
0.00121457
-2.59353e-06
0.00122261
-1.32835e-05
0.00122697
-1.65623e-05
0.00123138
-2.90655e-05
0.00124328
-3.34031e-05
0.00125935
-4.93079e-05
0.00128029
-6.7165e-05
0.0013128
-9.56748e-05
0.00135912
-0.000135823
0.00142641
-0.000199409
0.00152164
-0.000315718
0.0016422
-0.000491363
-0.000784949
0.00174425
0.00266633
0.000878442
0.00270087
0.00139446
0.00258118
0.00137095
0.00240598
0.00114656
0.00222413
0.00089722
0.00206515
0.000691743
0.00193739
0.000532863
0.00183313
0.000398133
0.00175189
0.000306419
0.00169111
0.000231014
0.00164296
0.000167287
0.00160624
0.000121995
0.00157618
9.35321e-05
0.00155318
6.1861e-05
0.00154079
4.49774e-05
0.00153295
3.11865e-05
0.0015279
1.71825e-05
0.00152406
1.32338e-05
0.00151876
1.84427e-05
0.00151458
1.7128e-05
0.00151099
1.20857e-05
0.00151013
3.02651e-06
0.00151116
4.04488e-06
0.00150676
-8.03003e-07
0.0014996
-1.45718e-08
0.00149806
4.9722e-06
0.00149817
-3.70103e-06
0.00149949
1.66118e-06
0.00150586
-6.30701e-07
0.00150875
-7.047e-06
0.00150587
2.66436e-06
0.00150335
1.59487e-06
0.00150559
8.38949e-06
0.00151143
6.5616e-06
0.00151313
4.4511e-06
0.00151098
-2.06764e-06
0.00151321
-7.83571e-06
0.00152059
-9.05639e-06
0.00152874
-2.28518e-05
0.00153513
-2.95021e-05
0.00154309
-4.09144e-05
0.0015574
-5.18906e-05
0.00157684
-7.11189e-05
0.00160195
-0.000101716
0.00163731
-0.000142012
0.0016869
-0.000192882
0.00175675
-0.000266179
0.00184646
-0.000391679
0.00194518
-0.000584457
-0.000860149
0.00201835
0.00265679
0.000742201
0.00273469
0.00132164
0.00269242
0.00139989
0.00258595
0.00124847
0.00245769
0.00103206
0.00233046
0.000832339
0.00221534
0.000652777
0.00212
0.000499331
0.00204234
0.000386596
0.0019792
0.000292814
0.00193189
0.000216777
0.00189641
0.000163127
0.00186404
0.000118269
0.00183965
8.15902e-05
0.00182726
6.26526e-05
0.00181855
4.42031e-05
0.00181456
2.75729e-05
0.00181387
2.7343e-05
0.00180687
2.40574e-05
0.00179678
1.53456e-05
0.00179164
1.22251e-05
0.00179233
5.70378e-06
0.00179429
4.86171e-07
0.0017914
-1.88676e-06
0.00178424
-4.82078e-06
0.00178115
7.31129e-06
0.00178137
3.59222e-07
0.00178225
-2.43801e-07
0.00178896
5.20905e-06
0.00179513
1.35858e-06
0.00179252
4.3301e-06
0.00178805
3.20192e-06
0.00179037
1.45238e-05
0.00179483
1.49767e-05
0.00179423
6.91531e-06
0.00179428
-4.92303e-06
0.00179844
-6.92211e-06
0.00180602
-1.46277e-05
0.0018167
-2.43709e-05
0.00182492
-3.90022e-05
0.00183435
-4.81985e-05
0.00184977
-6.82658e-05
0.00186945
-9.19057e-05
0.00189817
-0.0001302
0.00194007
-0.000178392
0.00199084
-0.000244018
0.00205437
-0.000330493
0.00213375
-0.000459978
0.00221262
-0.000656636
-0.000916621
0.00226151
0.00263801
0.000629623
0.00273671
0.0012186
0.00275059
0.00137281
0.0027067
0.00129517
0.00262977
0.00112576
0.00253502
0.000929219
0.00244267
0.000742276
0.00236355
0.000582247
0.00229466
0.00044844
0.00223756
0.0003408
0.00219352
0.000256893
0.0021577
0.00019371
0.00212753
0.000140685
0.00210674
0.000104801
0.00209341
7.62668e-05
0.00208433
5.33245e-05
0.00208164
3.46737e-05
0.00207804
3.17429e-05
0.0020691
2.27263e-05
0.00206158
1.75152e-05
0.00205755
1.07025e-05
0.00205675
6.1671e-06
0.0020575
-1.33332e-06
0.00205715
-1.99794e-06
0.00205125
-7.04706e-06
0.00204549
-4.83499e-07
0.00204689
5.55475e-06
0.00204887
-1.19337e-07
0.0020537
1.43827e-06
0.00205936
5.36145e-06
0.00205927
1.87222e-06
0.00205769
6.78373e-06
0.00205661
8.71111e-06
0.00205713
9.08559e-06
0.00205817
-9.57678e-07
0.00206011
-8.11726e-06
0.00206452
-1.14694e-05
0.00207193
-2.21935e-05
0.00208395
-2.51471e-05
0.00209463
-4.1818e-05
0.00210474
-6.111e-05
0.00212106
-8.28758e-05
0.00214258
-0.000113913
0.00217225
-0.000155657
0.00221491
-0.000207341
0.0022663
-0.000287669
0.00232337
-0.000388861
0.00238615
-0.000526594
0.0024446
-0.000717274
-0.000955247
0.00247691
0.00262194
0.000539413
0.00272793
0.00110657
0.00278024
0.001308
0.00278409
0.00128836
0.00275085
0.00116145
0.00269186
0.000975063
0.00262665
0.000799658
0.0025667
0.000641692
0.00251062
0.000494005
0.00246316
0.000379014
0.0024265
0.000287628
0.00239593
0.000219582
0.00236862
0.000162117
0.00234879
0.000123049
0.00233672
9.06968e-05
0.00232978
6.26328e-05
0.0023291
4.05346e-05
0.00232505
3.00707e-05
0.00231459
1.44693e-05
0.00230654
2.10999e-05
0.00230067
9.23233e-06
0.00230017
1.03655e-05
0.00230385
5.08413e-06
0.00230394
-6.56169e-06
0.00229899
-8.79786e-06
0.00229331
-1.18785e-05
0.0022931
2.64327e-06
0.00229682
-1.20294e-06
0.00230242
-4.37983e-06
0.00230678
-3.29022e-06
0.0023061
-7.03141e-06
0.00230391
1.24804e-06
0.00230298
-1.84416e-06
0.00230258
-1.25493e-07
0.00230329
-5.31575e-06
0.00230703
-1.09864e-05
0.0023127
-1.8422e-05
0.00232072
-2.85766e-05
0.00233237
-3.23898e-05
0.00234374
-4.70403e-05
0.00235585
-7.73041e-05
0.00237264
-9.90947e-05
0.00239331
-0.000137952
0.00242205
-0.000184072
0.00246243
-0.00023845
0.00250987
-0.000326182
0.00256153
-0.000432929
0.00261304
-0.000579528
0.00265336
-0.000764737
-0.00098148
0.00266999
0.00260437
0.000461722
0.00271295
0.000991809
0.00279382
0.00122049
0.00283392
0.0012417
0.00283473
0.00115009
0.00280994
0.000988768
0.00277352
0.00082969
0.002734
0.000678817
0.00269611
0.000534892
0.00266264
0.000413737
0.00263437
0.000312903
0.00260982
0.000244019
0.00258729
0.000181467
0.00256936
0.000134691
0.00255859
0.000106353
0.00255349
7.55536e-05
0.00255335
5.2175e-05
0.00255182
3.25537e-05
0.00254315
1.31863e-05
0.00253286
1.50247e-05
0.00252833
1.44345e-05
0.00252819
1.79594e-05
0.00252885
9.52664e-06
0.00252982
-1.04791e-05
0.0025282
-1.18637e-05
0.00252417
-1.85519e-05
0.00252036
-7.77266e-06
0.00252132
-8.02972e-06
0.00252835
-4.14805e-06
0.00253495
-1.15026e-05
0.0025361
-1.36576e-05
0.00253266
-1.34401e-05
0.00252983
-1.06752e-05
0.00253033
-6.90921e-06
0.0025325
-5.30043e-06
0.00253494
-1.29478e-05
0.00254097
-1.97136e-05
0.00255171
-3.12338e-05
0.00256161
-4.36216e-05
0.00257067
-5.9442e-05
0.00258408
-8.91524e-05
0.00260155
-0.000115094
0.00262352
-0.00015953
0.00265105
-0.000209034
0.00268666
-0.000274409
0.00272953
-0.00035947
0.00277167
-0.000475992
0.0028114
-0.000616854
0.00284049
-0.000795571
-0.000996385
0.00284537
0.00259049
0.000391171
0.00269592
0.00087878
0.00279306
0.00112014
0.00286077
0.00117609
0.00289422
0.00111237
0.00290348
0.000982256
0.00289418
0.00083561
0.00287311
0.000691517
0.00285134
0.000558955
0.00283326
0.000440007
0.00281742
0.000334485
0.00279985
0.000260904
0.0027827
0.000195305
0.00277027
0.000143799
0.0027602
0.000111057
0.00275567
8.51686e-05
0.00275745
6.46431e-05
0.00275742
3.80537e-05
0.00275223
2.03282e-05
0.00274448
1.21347e-05
0.00273841
2.0132e-05
0.0027332
1.98534e-05
0.00273235
7.41579e-06
0.00273606
-4.84311e-06
0.00273539
-1.30142e-05
0.00273315
-1.7709e-05
0.00273179
-9.58782e-06
0.00273142
-6.50527e-06
0.00273614
-6.24103e-06
0.00274311
-1.02367e-05
0.00274533
-1.61192e-05
0.00274379
-2.14243e-05
0.00274358
-1.58235e-05
0.0027419
-1.38527e-05
0.00273943
-1.07948e-05
0.00274258
-1.39383e-05
0.00275072
-1.81575e-05
0.00276124
-3.19042e-05
0.00277064
-5.14351e-05
0.00278042
-7.11951e-05
0.00279464
-9.62925e-05
0.00281027
-0.000133207
0.00282986
-0.000181683
0.00285609
-0.00023513
0.00288798
-0.00030879
0.00292362
-0.000394415
0.00295711
-0.000514792
0.00298556
-0.000650741
0.00300443
-0.000815971
-0.000998095
0.00300279
0.00258013
0.000335044
0.00268369
0.000777852
0.00279177
0.00101518
0.00287854
0.00109252
0.00293569
0.00105144
0.00297126
0.000950785
0.00298804
0.000815786
0.00298934
0.000680945
0.00298326
0.000556745
0.00297887
0.00044347
0.00297614
0.00034441
0.00296662
0.000268209
0.00295692
0.000203068
0.00295034
0.000145308
0.00294331
0.000104479
0.00293897
8.4171e-05
0.00293935
6.47522e-05
0.00294208
4.48171e-05
0.00294156
2.65782e-05
0.00293693
1.46322e-05
0.00292897
1.75177e-05
0.0029195
1.53386e-05
0.00291794
5.83876e-06
0.00292337
2.6955e-06
0.00292546
-1.23619e-05
0.0029242
-1.40858e-05
0.00292196
-7.34096e-06
0.00292175
-1.90545e-06
0.00292529
-1.01535e-05
0.00293085
-6.14981e-06
0.00293524
-1.5117e-05
0.00293645
-1.77567e-05
0.00293581
-1.6064e-05
0.00293411
-1.98437e-05
0.00293297
-1.85087e-05
0.00293419
-1.96768e-05
0.0029389
-2.65673e-05
0.0029496
-3.60443e-05
0.00296068
-5.41188e-05
0.00296984
-8.10503e-05
0.00298159
-0.000105948
0.00299577
-0.000151865
0.00301439
-0.000200712
0.00303737
-0.000259803
0.00306457
-0.000331332
0.00309476
-0.000422793
0.00312196
-0.000535458
0.00314084
-0.000677218
0.00314925
-0.000827056
-0.000992426
0.00314078
0.00257332
0.000287091
0.00267289
0.000681356
0.00278629
0.00090728
0.00288627
0.000984386
0.00296386
0.000968362
0.00302271
0.000892632
0.00306176
0.000770638
0.00308352
0.00064873
0.00309495
0.000531412
0.0031038
0.000424447
0.00311149
0.000334771
0.00311112
0.000261843
0.00310736
0.000200468
0.0031076
0.000141817
0.00310744
9.98892e-05
0.00310483
7.93174e-05
0.00310513
5.92585e-05
0.00310816
4.60278e-05
0.00310978
2.79429e-05
0.0031076
1.47154e-05
0.00309869
1.04254e-05
0.00308841
8.71834e-06
0.00308645
5.34315e-06
0.00309024
4.55067e-06
0.00309422
-6.41367e-06
0.00309834
-5.34407e-06
0.00309592
-8.23132e-06
0.00309163
-4.87993e-06
0.00309555
-5.56093e-06
0.00310169
-5.09285e-06
0.00310626
-9.10462e-06
0.00310897
-1.15031e-05
0.00310898
-1.51971e-05
0.00310766
-2.45076e-05
0.00310586
-2.68311e-05
0.00310688
-3.19219e-05
0.00311149
-4.03121e-05
0.00311962
-4.2933e-05
0.00312984
-6.03777e-05
0.00313815
-9.09466e-05
0.00314661
-0.000119637
0.00315946
-0.000163249
0.00317731
-0.000211933
0.00319812
-0.000272416
0.00322135
-0.000347302
0.0032439
-0.000439189
0.00326193
-0.000546467
0.00327424
-0.000686453
0.00327572
-0.000822637
-0.000978046
0.00326016
0.00256727
0.000240787
0.00266268
0.000585547
0.00277919
0.00079451
0.00289088
0.000870269
0.00298374
0.000868558
0.00305895
0.000810049
0.00311805
0.000701182
0.00315896
0.000594308
0.00318565
0.00048677
0.00320952
0.000393988
0.0032299
0.000313264
0.00323507
0.000242697
0.00323537
0.000189956
0.00324294
0.000141032
0.00324986
0.000100966
0.0032516
8.05848e-05
0.00325313
5.58669e-05
0.00325531
4.33692e-05
0.00325707
2.51431e-05
0.00325735
1.21766e-05
0.00325041
8.51338e-07
0.00323965
-7.87402e-07
0.00323584
2.33326e-06
0.00323965
8.09209e-06
0.00324636
7.68898e-06
0.00325003
5.07745e-06
0.00324661
-6.73411e-06
0.0032454
-3.9925e-06
0.00324923
2.22527e-06
0.00325335
-1.81748e-06
0.00325832
-2.1924e-06
0.00326016
-7.24563e-06
0.0032595
-1.50375e-05
0.00325977
-2.39891e-05
0.00325869
-3.26604e-05
0.0032599
-3.80439e-05
0.00326583
-4.43285e-05
0.00327271
-4.81909e-05
0.00327888
-7.06589e-05
0.00328516
-9.78072e-05
0.00329306
-0.000129217
0.00330486
-0.000169117
0.00332084
-0.000218436
0.00333805
-0.000279379
0.00335604
-0.000358069
0.00337125
-0.00044901
0.00338168
-0.000554153
0.00338809
-0.000679109
0.00338335
-0.000807845
-0.000953116
0.00336177
0.0025649
0.000197576
0.00265578
0.000494394
0.00277102
0.000675371
0.00289227
0.000760377
0.0029974
0.00075847
0.00308498
0.000705364
0.00316073
0.000621553
0.00321853
0.000525944
0.00326145
0.000434007
0.00329792
0.000354697
0.00332741
0.000286414
0.00334228
0.000221042
0.00334958
0.000174734
0.0033623
0.000136029
0.00337374
0.000102606
0.00337719
7.79279e-05
0.0033791
4.93097e-05
0.00338244
3.99358e-05
0.0033859
2.29326e-05
0.00338769
6.8969e-06
0.00338253
-5.033e-06
0.00337334
-1.16124e-05
0.00337017
-5.63351e-07
0.00337326
1.19463e-05
0.00337713
1.47475e-05
0.00338039
7.32573e-06
0.00338116
-2.58586e-06
0.00337946
-4.44647e-06
0.00338163
4.26084e-06
0.00338675
8.04422e-06
0.00339027
3.02785e-06
0.00339158
-2.10795e-06
0.00339194
-1.38108e-05
0.00339279
-2.1009e-05
0.00339269
-3.08159e-05
0.00339653
-3.31617e-05
0.00340193
-4.2374e-05
0.00340372
-5.48283e-05
0.00340792
-7.92518e-05
0.00341469
-0.000105067
0.00342097
-0.000138484
0.00342991
-0.000174948
0.00344219
-0.000223689
0.00345511
-0.000285979
0.00346966
-0.000359979
0.00347993
-0.000450282
0.00348401
-0.000557562
0.00348415
-0.000664677
0.00347272
-0.000790976
-0.00092443
0.00344689
0.00256312
0.000155441
0.0026515
0.000403407
0.00276635
0.000554278
0.0028894
0.000636125
0.00300202
0.000636722
0.00310116
0.000590654
0.00319241
0.000538085
0.00326769
0.000454197
0.00332429
0.000375073
0.00337105
0.000306179
0.00341031
0.000250186
0.00343406
0.000194199
0.00344549
0.000149815
0.00346164
0.000120568
0.00347686
0.00010112
0.00348272
6.60903e-05
0.00348806
4.55608e-05
0.00349176
3.17371e-05
0.00349385
1.81857e-05
0.00349682
1.67664e-06
0.00349598
-3.00762e-06
0.00349188
-1.34135e-05
0.00348992
-7.66244e-07
0.00348936
9.53178e-06
0.00348901
3.47449e-06
0.00349132
1.99094e-06
0.00349391
-5.53687e-06
0.00349567
-5.8291e-06
0.00349732
3.80526e-06
0.00350001
1.24174e-05
0.00350336
6.90644e-06
0.00350437
-1.64248e-06
0.00350452
-1.33231e-05
0.00350594
-2.47018e-05
0.00350776
-2.76107e-05
0.00351122
-3.4459e-05
0.00351453
-4.29775e-05
0.00351576
-6.50357e-05
0.00351909
-8.65872e-05
0.00352348
-0.000114338
0.00352815
-0.000149541
0.00353586
-0.000182548
0.00354471
-0.000229683
0.00355337
-0.00028936
0.00356276
-0.000358651
0.00356876
-0.00044733
0.00356874
-0.000553999
0.00356216
-0.000652697
0.00354579
-0.000771614
-0.000896694
0.00351598
0.00256292
0.000120327
0.00264873
0.000312294
0.00276315
0.00043805
0.00288617
0.000501993
0.00300509
0.000508719
0.00311739
0.000481807
0.00321743
0.000440798
0.00330223
0.000375995
0.00337299
0.000308199
0.00343138
0.000249777
0.00347666
0.000203426
0.00350614
0.00015553
0.00352633
0.00011822
0.00354635
9.56641e-05
0.00356026
8.54509e-05
0.00356861
5.50944e-05
0.00357838
4.47141e-05
0.00358204
2.38725e-05
0.00358435
1.27689e-05
0.00358864
3.41544e-06
0.00358959
1.94369e-06
0.00359035
-6.26316e-06
0.00358898
-2.41677e-06
0.0035849
4.84487e-06
0.00358289
-7.57202e-06
0.00358472
-4.98921e-06
0.00358882
-7.7996e-06
0.00359381
-6.81563e-07
0.00359623
6.01308e-06
0.00359494
7.49573e-06
0.00359534
6.22871e-06
0.00359683
-6.00422e-07
0.00359902
-1.24385e-05
0.00360333
-2.79885e-05
0.003605
-2.8049e-05
0.00360565
-4.28765e-05
0.00360716
-5.04792e-05
0.00360652
-7.74124e-05
0.00360805
-9.646e-05
0.00361403
-0.000117784
0.00361988
-0.000155717
0.00362351
-0.000193047
0.00362793
-0.000237333
0.00363296
-0.000292924
0.00363607
-0.000358822
0.00363676
-0.000444692
0.0036341
-0.000541571
0.00362198
-0.000640729
0.00359821
-0.000753534
-0.000865153
0.00356588
0.00256376
9.59343e-05
0.00264577
0.000226323
0.00275745
0.000322988
0.00288245
0.000369893
0.00300882
0.000384411
0.00312938
0.000372147
0.00323571
0.000334704
0.00332915
0.000286915
0.00340995
0.000237554
0.00347655
0.00018902
0.00352868
0.000152699
0.00356498
0.000113466
0.00359198
8.5741e-05
0.00361386
6.8025e-05
0.00362724
5.18268e-05
0.00363784
3.91855e-05
0.00364767
3.09746e-05
0.00365241
1.7239e-05
0.0036582
1.34992e-05
0.00366402
9.70736e-06
0.00366584
8.66807e-06
0.00366713
-2.10318e-06
0.00366364
-4.87006e-06
0.00365821
1.89246e-06
0.00365881
-4.65057e-06
0.00366208
-5.73275e-06
0.00366705
-1.2788e-06
0.00367218
6.24589e-06
0.00367309
6.79684e-06
0.00367103
4.62482e-06
0.00367008
1.23297e-06
0.00367045
6.29973e-07
0.00367398
-1.13962e-05
0.00367908
-2.45392e-05
0.00368087
-3.52974e-05
0.0036816
-4.57048e-05
0.00368064
-6.0495e-05
0.00368025
-8.82505e-05
0.00368187
-0.000107211
0.00368449
-0.00012221
0.00368864
-0.000161408
0.00369182
-0.000200994
0.00369378
-0.00024535
0.00369339
-0.000298745
0.00369025
-0.000361153
0.00368732
-0.000438257
0.00368157
-0.000524003
0.0036645
-0.000622133
0.00363652
-0.000727644
-0.000827719
0.0035997
0.0025591
6.83906e-05
0.00264314
0.000151143
0.00275648
0.00021012
0.00288344
0.000241383
0.0030125
0.000252399
0.00313563
0.000244508
0.00324789
0.000220722
0.00334753
0.000187369
0.00343559
0.000161697
0.00350968
0.000127636
0.0035657
0.000102784
0.00360631
7.4687e-05
0.00363914
5.45062e-05
0.00366593
4.65754e-05
0.00368155
2.17613e-05
0.00369083
1.65775e-05
0.00369981
1.17959e-05
0.00370645
1.01142e-05
0.00371395
1.18943e-05
0.0037193
1.07828e-05
0.00371965
1.20254e-05
0.00372285
-1.17464e-06
0.00372228
-2.15346e-06
0.00371493
-8.10252e-08
0.00371449
-3.30648e-08
0.00372078
-7.00017e-08
0.00372706
4.09776e-06
0.00373068
1.04814e-05
0.0037304
8.01481e-06
0.00372927
6.74271e-06
0.00372838
1.22555e-06
0.00372541
-5.61829e-06
0.0037276
-1.2675e-05
0.00373502
-2.02019e-05
0.00373606
-4.35607e-05
0.00373454
-4.88381e-05
0.00373396
-6.10897e-05
0.00373543
-8.98449e-05
0.00373694
-0.000110214
0.00373578
-0.000133454
0.00373795
-0.00016548
0.00374008
-0.000198874
0.00373919
-0.000246454
0.00373562
-0.000295443
0.00372804
-0.000358525
0.00372
-0.00042869
0.00370889
-0.000504002
0.00368859
-0.000594549
0.00365991
-0.000687313
-0.000785662
0.00362083
0.00255334
3.47735e-05
0.00263668
7.51798e-05
0.00275366
9.83489e-05
0.0028848
0.000116538
0.00301553
0.000113419
0.00313991
0.000109196
0.00325563
9.83887e-05
0.00336099
8.89105e-05
0.00345276
8.15254e-05
0.00352959
6.35285e-05
0.00359049
4.75751e-05
0.00363597
3.05492e-05
0.00366926
1.63148e-05
0.00369458
1.8633e-05
0.00371378
4.72121e-06
0.00372771
2.55032e-06
0.00373923
1.90813e-06
0.0037469
3.65637e-06
0.00375314
2.00593e-06
0.00375571
4.81051e-06
0.00375446
6.81106e-06
0.00375997
2.77018e-06
0.00376084
2.34458e-06
0.00375323
-4.76732e-06
0.00375361
1.6683e-06
0.00376073
4.5762e-06
0.00376657
8.00892e-06
0.00376885
1.08974e-05
0.00376804
1.38761e-05
0.00376611
8.95044e-06
0.00376519
4.27038e-06
0.00376336
-7.62442e-06
0.00376355
-1.33134e-05
0.00376902
-1.88535e-05
0.0037734
-4.28911e-05
0.00377127
-4.99358e-05
0.00376715
-5.77593e-05
0.00377068
-7.86733e-05
0.00377276
-0.000101422
0.00376904
-0.000136429
0.00376913
-0.000162273
0.00376895
-0.000190348
0.00376601
-0.000234711
0.00376021
-0.000283532
0.00375025
-0.000344871
0.00373796
-0.000414568
0.00372252
-0.000484091
0.00369858
-0.000566192
0.00366435
-0.000652881
-0.000746984
0.00362242
0.00255298
5.54895e-06
0.00263536
-5.52071e-06
0.00275116
-1.05812e-05
0.00288124
-1.22197e-05
0.00301473
-2.33913e-05
0.00314313
-2.35212e-05
0.00326247
-2.64388e-05
0.00337025
-1.06554e-05
0.00346302
-3.20831e-06
0.00354093
-7.1235e-06
0.00360152
-1.53892e-05
0.00364906
-1.55879e-05
0.00368572
-2.28957e-05
0.00371079
-1.74313e-05
0.00373035
-1.42244e-05
0.00374629
-1.08438e-05
0.00375768
-4.20199e-06
0.00376456
-5.91651e-06
0.00377189
-7.07452e-06
0.00377485
-8.25777e-07
0.00377293
-3.83556e-06
0.00377839
4.39938e-06
0.00377944
-9.6093e-07
0.00377288
-1.15776e-05
0.00377415
4.76792e-06
0.00378165
9.30802e-06
0.00378801
1.32221e-05
0.0037897
1.17008e-05
0.00378774
1.62803e-05
0.00378444
8.06179e-06
0.00378195
3.34986e-06
0.00378095
-7.7585e-06
0.00378104
-1.53735e-05
0.00378461
-1.75122e-05
0.00379102
-3.44143e-05
0.00379062
-4.02199e-05
0.00378388
-5.65764e-05
0.00378386
-6.73143e-05
0.00378573
-9.17343e-05
0.0037853
-0.00012495
0.00378471
-0.000152826
0.00378066
-0.000184122
0.0037742
-0.000221311
0.00376345
-0.000273439
0.00375127
-0.000329709
0.00373888
-0.000391056
0.0037197
-0.000466066
0.00369118
-0.00054085
0.00365213
-0.00062561
-0.000709477
0.00360705
0.00254746
-2.84081e-05
0.00263182
-8.43584e-05
0.00275154
-0.000115719
0.00288189
-0.000145423
0.00301493
-0.00016081
0.00314523
-0.000159439
0.00326644
-0.000150587
0.00337212
-0.00012304
0.00346065
-9.97494e-05
0.00353631
-8.46994e-05
0.00359825
-7.38602e-05
0.0036483
-5.65852e-05
0.00368786
-5.34101e-05
0.00371453
-4.70367e-05
0.00373279
-3.65702e-05
0.00374722
-2.91488e-05
0.00375753
-1.62737e-05
0.00376487
-1.80052e-05
0.00377344
-1.22439e-05
0.00377704
-6.64844e-06
0.00377468
-1.21437e-05
0.00377626
3.23896e-07
0.00377713
-3.49866e-06
0.00377578
-7.64652e-06
0.00377816
8.44158e-06
0.00378367
1.25696e-05
0.00378951
1.69086e-05
0.00379113
1.10034e-05
0.00378655
5.69577e-06
0.00378232
5.03645e-06
0.00378126
2.33371e-06
0.00377997
-1.25808e-05
0.00377895
-1.62042e-05
0.00378237
-1.57257e-05
0.00378991
-2.35346e-05
0.00379087
-3.12414e-05
0.00378469
-5.29995e-05
0.00378112
-6.67395e-05
0.00377901
-9.04587e-05
0.00377897
-0.000112714
0.00377971
-0.000141055
0.00377316
-0.0001837
0.0037625
-0.000216654
0.00375033
-0.000266658
0.00373559
-0.00032003
0.00371948
-0.000367515
0.00369769
-0.000441613
0.00366587
-0.000511471
0.00362483
-0.000589356
-0.000659376
0.00357921
0.00254726
-6.87474e-05
0.00263248
-0.000163492
0.00274846
-0.000229428
0.00287758
-0.000275481
0.00301213
-0.000293068
0.00314328
-0.000292445
0.00326683
-0.000265729
0.00337051
-0.000231572
0.00345319
-0.00019529
0.00352698
-0.000159328
0.00358779
-0.000127835
0.00363373
-0.000100559
0.00367082
-8.37138e-05
0.00369721
-7.22347e-05
0.00371733
-5.33184e-05
0.00373241
-4.15672e-05
0.00373987
-3.56725e-05
0.00374682
-2.87553e-05
0.00375462
-1.45139e-05
0.00375707
-1.51547e-05
0.00375619
-1.19992e-05
0.00375759
-1.13303e-06
0.0037605
1.4996e-06
0.00376276
3.50314e-06
0.00376333
6.899e-06
0.00376566
7.68957e-06
0.003771
1.5864e-05
0.00377191
4.76129e-06
0.0037677
-8.43281e-06
0.00376218
-1.17776e-06
0.00375823
-1.67797e-06
0.00376034
-1.21609e-05
0.00376306
-1.28366e-05
0.00376565
-1.87921e-05
0.00377041
-2.33394e-05
0.00376836
-3.54489e-05
0.00376165
-5.4303e-05
0.00375856
-7.15209e-05
0.00375672
-9.23936e-05
0.0037553
-0.000108035
0.0037536
-0.000135846
0.00374629
-0.000180272
0.00373377
-0.000210514
0.00371965
-0.000260053
0.00370281
-0.000308236
0.00368266
-0.000351747
0.0036589
-0.00041218
0.00362605
-0.000478851
0.00358474
-0.000545631
-0.000602709
0.00353875
0.00255014
-0.000104566
0.00263398
-0.000244133
0.00274821
-0.000345905
0.00287644
-0.000397807
0.00301032
-0.000418903
0.00314046
-0.000410932
0.00325949
-0.000372437
0.00335861
-0.000328199
0.00343903
-0.000277687
0.00350852
-0.000225811
0.00356308
-0.000178181
0.00360484
-0.000143452
0.00364051
-0.000109701
0.00366644
-9.19589e-05
0.00368442
-7.10445e-05
0.00369693
-5.2131e-05
0.00370465
-4.44742e-05
0.00371185
-3.21705e-05
0.00371867
-1.39089e-05
0.00372159
-1.82119e-05
0.00372178
-1.17135e-05
0.00372254
-1.58071e-06
0.00372396
3.30953e-06
0.00372519
5.94339e-06
0.00372698
-2.91838e-06
0.00372941
-4.87351e-07
0.00372977
6.77174e-06
0.00373111
8.47278e-07
0.00373195
-7.81933e-06
0.00372548
-6.37854e-06
0.0037205
-7.94396e-06
0.00372351
-6.61953e-06
0.00372571
-1.4177e-05
0.00372742
-2.19884e-05
0.00373091
-3.07255e-05
0.00372841
-4.28262e-05
0.00372134
-6.04176e-05
0.00371855
-7.40369e-05
0.00371681
-9.33714e-05
0.00371079
-0.000109409
0.00370568
-0.000132322
0.00369977
-0.000167126
0.00368667
-0.000197581
0.00367298
-0.000242428
0.00365713
-0.000285545
0.00363203
-0.000335452
0.00360338
-0.000387784
0.00357108
-0.000444659
0.00353061
-0.000501352
-0.000551161
0.0034829
0.00255428
-0.000138227
0.00263813
-0.000325944
0.00275073
-0.000461501
0.0028752
-0.000523785
0.00300564
-0.000540607
0.003134
-0.000517693
0.00324892
-0.000470671
0.00334183
-0.000415896
0.00341441
-0.000353792
0.00347734
-0.000283982
0.00352748
-0.000221981
0.00356301
-0.000177783
0.0035943
-0.000130681
0.0036191
-0.000107983
0.0036331
-9.2697e-05
0.00364268
-6.36018e-05
0.0036534
-4.02939e-05
0.00366036
-2.87467e-05
0.00366278
-1.96618e-05
0.0036665
-1.51468e-05
0.003668
-1.52266e-05
0.00366727
-7.17923e-06
0.00366753
-1.12363e-06
0.00366784
-5.42754e-07
0.00367079
-1.2122e-05
0.00367381
-4.93914e-06
0.00367204
-3.07767e-06
0.00367254
1.31738e-06
0.00367529
-1.81169e-06
0.00367033
-6.26829e-06
0.00366466
-1.04206e-05
0.0036659
-6.07717e-06
0.00366657
-2.13392e-05
0.00366859
-2.40676e-05
0.00367241
-3.44459e-05
0.00366899
-4.6578e-05
0.00366187
-6.10533e-05
0.00365968
-7.45061e-05
0.00365818
-9.08626e-05
0.00365143
-0.000111938
0.0036453
-0.000126971
0.00363667
-0.000156343
0.00362059
-0.00018671
0.00360598
-0.000218772
0.00358951
-0.000262077
0.00356432
-0.000313581
0.00353509
-0.000361769
0.00350195
-0.000407984
0.00346084
-0.000458435
-0.000507472
0.00341062
0.00255897
-0.000172739
0.00264439
-0.000409123
0.00275567
-0.000580848
0.0028767
-0.000655512
0.00300261
-0.000657222
0.00312286
-0.000627051
0.00322794
-0.000563321
0.00331396
-0.000492585
0.003382
-0.000419427
0.00343662
-0.000335492
0.00347719
-0.000267463
0.00350751
-0.000209215
0.00353081
-0.000158839
0.00355022
-0.000128373
0.00356795
-0.000103361
0.00357722
-7.31608e-05
0.0035827
-4.77999e-05
0.00358739
-3.1704e-05
0.00358814
-2.94378e-05
0.00359145
-1.74932e-05
0.00359465
-1.94114e-05
0.00359404
-1.45888e-05
0.00359083
-1.18044e-05
0.00358928
-1.10271e-05
0.00359502
-1.40846e-05
0.00360027
-3.67631e-06
0.00359901
-5.85408e-06
0.00359836
-2.74265e-06
0.00359847
-5.76894e-06
0.00359451
-7.76233e-06
0.00358998
-6.77078e-06
0.0035895
-8.99794e-06
0.00359098
-2.39843e-05
0.00359207
-2.97581e-05
0.00359355
-3.9157e-05
0.00359043
-5.0463e-05
0.00358394
-6.02475e-05
0.00358158
-7.24915e-05
0.00358082
-8.27679e-05
0.0035743
-0.000107004
0.00356541
-0.000121156
0.00355608
-0.000147249
0.00354026
-0.000175866
0.00352247
-0.000202274
0.00350295
-0.000245512
0.00347827
-0.000289841
0.0034502
-0.000327079
0.00341697
-0.000369151
0.00337489
-0.000417689
-0.000468551
0.00332313