/*--------------------------------*- C++ -*----------------------------------*\
  =========                 |
  \\      /  F ield         | OpenFOAM: The Open Source CFD Toolbox
   \\    /   O peration     | Website:  https://openfoam.org
    \\  /    A nd           | Version:  6
     \\/     M anipulation  |
\*---------------------------------------------------------------------------*/
FoamFile
{
    version     2.0;
    format      ascii;
    class       volVectorField;
    location    "0";
    object      U;
}
// * * * * * * * * * * * * * * * * * * * * * * * * * * * * * * * * * * * * * //

dimensions      [0 1 -1 0 0 0 0];

internalField   nonuniform List<vector> 
13046
(
(0.357792 0.0771104 0)
(0.581253 -0.222799 2.57746e-21)
(0.220976 -0.147757 5.76538e-21)
(0.36911 0.00419743 0)
(0.186278 -0.0824682 5.33954e-21)
(0.501474 -0.231459 0)
(0.399387 0.0231189 -7.95839e-22)
(0.548495 -0.264789 -1.30368e-21)
(0.159726 -0.070565 5.85106e-21)
(0.784366 0.319838 -2.16696e-21)
(0.968823 -0.449391 0)
(-0.0172382 -0.0239054 -3.55938e-21)
(0.450588 0.111353 5.06344e-21)
(0.680039 -0.290032 3.75535e-21)
(0.144127 -0.112656 -3.14401e-21)
(0.730701 0.354699 -1.1725e-21)
(0.0258851 -0.0584989 -5.6695e-21)
(1.01866 -0.384873 -9.61966e-22)
(0.224955 -0.0207685 0)
(0.383966 -0.206314 2.85718e-21)
(0.413161 -0.082884 -8.29191e-21)
(0.741717 0.347886 1.22382e-21)
(0.014077 -0.0496031 1.13527e-20)
(1.01005 -0.399806 -2.49199e-22)
(0.326078 0.0155 -3.37157e-21)
(0.493001 -0.194137 4.88381e-21)
(0.232931 -0.129288 0)
(0.454766 0.136843 -9.56368e-23)
(0.703028 -0.286847 -1.11236e-21)
(0.151154 -0.126032 1.08505e-20)
(0.357979 0.096046 0)
(0.603283 -0.212384 0)
(0.233037 -0.166122 -5.86735e-21)
(0.30708 -0.00874398 1.18081e-20)
(0.254428 -0.130393 -1.98475e-21)
(0.447179 -0.16818 -7.56616e-21)
(0.315426 -0.0293029 1.61174e-23)
(0.254381 -0.111831 0)
(0.421003 -0.164988 0)
(0.280436 0.102192 -4.26382e-21)
(0.384044 -0.280941 -5.2188e-21)
(0.584112 -0.132092 3.91886e-21)
(0.332611 -0.0864809 -2.68998e-21)
(0.283224 -0.0893796 2.74983e-21)
(0.341513 -0.133336 0)
(0.352592 -0.0795669 -1.74082e-21)
(0.253541 -0.0683787 0)
(0.358932 -0.157186 8.76508e-22)
(0.376048 0.072743 0)
(0.590995 -0.241944 1.83291e-22)
(0.188043 -0.127677 3.4962e-23)
(0.547609 -0.4096 -6.17875e-21)
(0.231154 0.121789 0)
(0.627301 -0.0625003 4.54658e-21)
(0.601929 -0.444536 8.79431e-21)
(0.63167 -0.0407208 4.97749e-21)
(0.203426 0.109111 -6.49175e-21)
(0.942568 -0.270701 6.80014e-22)
(0.589839 0.325802 0)
(0.195764 -0.199968 -4.72554e-21)
(0.601956 0.126629 2.41124e-21)
(0.791181 -0.42888 -2.07374e-21)
(0.0510694 -0.0235489 1.30544e-20)
(0.00736856 -0.047038 -6.61874e-21)
(0.966948 -0.442381 9.44189e-22)
(0.738877 0.277699 3.6871e-21)
(0.556364 0.319019 0)
(0.912161 -0.239446 -3.31748e-21)
(0.24183 -0.241145 -1.36589e-21)
(0.528035 0.300344 1.82408e-21)
(0.882696 -0.228646 4.49571e-21)
(0.258606 -0.251639 1.85858e-21)
(0.971464 -0.276834 6.29074e-24)
(0.615787 0.342777 -5.6838e-23)
(0.178978 -0.192743 3.1918e-23)
(0.227672 -0.00171344 0)
(0.379513 -0.219636 -3.11066e-21)
(0.442225 -0.099513 5.8565e-21)
(0.121327 -0.142422 -5.18341e-21)
(0.656465 0.350926 5.43205e-21)
(0.997692 -0.314626 1.34704e-21)
(0.347313 0.0238664 -1.77434e-21)
(0.513775 -0.213403 1.73727e-21)
(0.206793 -0.110207 0)
(0.00197203 -0.0433108 5.89362e-21)
(0.978581 -0.44413 0)
(0.755908 0.293189 -2.17936e-21)
(0.777592 0.217101 3.77095e-21)
(-0.007384 -0.0164471 0)
(0.92901 -0.513411 7.76336e-22)
(0.0130772 0.0128987 0)
(0.839904 0.165489 0)
(0.896388 -0.587858 -9.29479e-23)
(0.600485 0.211961 4.79069e-21)
(0.634281 0.220844 -6.64409e-21)
(0.862225 -0.37215 -3.77288e-21)
(0.886163 -0.397706 1.7583e-21)
(0.0749087 -0.0894149 2.76527e-21)
(0.0524667 -0.072085 -7.09983e-21)
(-0.00215134 -0.0097649 3.38452e-22)
(0.776684 0.197631 -3.68925e-21)
(0.913516 -0.528127 0)
(0.358799 -0.058775 1.28279e-23)
(0.230444 -0.0671973 0)
(0.395839 -0.183196 0)
(0.154445 0.0600929 -1.17899e-20)
(0.561965 -0.0165269 2.3429e-21)
(0.59124 -0.39291 0)
(0.229841 0.102211 -1.79617e-21)
(0.496016 -0.356661 0)
(0.58763 -0.08126 8.91258e-21)
(0.74595 0.327311 0)
(-0.0212451 -0.00857689 4.81377e-21)
(0.869442 -0.424744 -4.70833e-23)
(0.417113 0.0909375 -3.53508e-21)
(0.642284 -0.269961 -1.67317e-21)
(0.157112 -0.110735 -5.67596e-21)
(0.633218 0.264201 -2.77144e-21)
(0.601461 0.237663 2.58697e-21)
(0.918616 -0.362733 -9.56256e-22)
(0.0820415 -0.103688 -3.15136e-21)
(0.881166 -0.353701 1.00807e-21)
(0.0903915 -0.106249 2.94393e-21)
(0.776072 0.330037 5.20283e-21)
(0.960796 -0.440742 5.37396e-22)
(-0.0175585 -0.0209441 1.58588e-21)
(0.531304 0.181307 0)
(0.792373 -0.331862 2.68844e-21)
(0.112809 -0.114949 -1.64794e-20)
(0.310823 0.1152 0)
(0.344223 -0.258233 5.25779e-21)
(0.606508 -0.156526 -2.12666e-22)
(0.0229617 0.0188306 0)
(0.81404 0.149736 0)
(0.88757 -0.581377 0)
(0.696296 0.227644 0)
(0.917969 -0.445376 4.44957e-21)
(0.0190465 -0.0456565 7.13386e-21)
(0.388307 0.11515 0)
(0.64189 -0.232424 0)
(0.21756 -0.169381 0)
(0.494068 0.0473078 0)
(0.642524 -0.354159 0)
(0.106865 -0.0233957 0)
(0.213288 0.0997336 1.66208e-21)
(0.536458 -0.383037 0)
(0.593318 -0.0621682 -4.83093e-21)
(0.158118 0.0485441 1.14193e-20)
(0.543578 -0.022083 5.17444e-21)
(0.577786 -0.375217 -5.62581e-21)
(0.624701 0.144998 -5.5167e-21)
(0.819499 -0.437413 0)
(0.0406008 -0.0324284 -1.69576e-20)
(0.152502 0.00217024 0)
(0.473838 -0.0183668 -1.12997e-20)
(0.535185 -0.315784 -1.46422e-21)
(0.694642 -0.484448 -2.39582e-21)
(0.639013 0.0164226 -5.29563e-21)
(0.737795 -0.499776 0)
(0.651501 0.0450893 -3.07122e-21)
(0.137445 0.0750635 -5.54599e-21)
(0.106892 0.0566757 5.32744e-21)
(0.526419 0.021839 -7.23569e-22)
(0.631202 -0.382693 -2.85249e-21)
(0.112894 0.00796365 3.28528e-21)
(0.801794 0.30585 2.20523e-21)
(-0.0210349 -0.0217362 -1.85495e-21)
(0.953807 -0.467073 1.12224e-21)
(0.759084 0.331485 1.42261e-21)
(-0.0204205 -0.0119347 7.22767e-22)
(0.912125 -0.429732 0)
(0.705133 0.245384 -8.81933e-23)
(0.933646 -0.440746 0)
(0.0175918 -0.0500806 -8.61631e-21)
(0.363205 0.173855 0)
(0.689373 -0.167168 -1.16284e-21)
(0.355883 -0.291629 -3.02916e-21)
(0.517458 0.00605159 -4.68687e-21)
(0.129245 0.0202947 0)
(0.599813 -0.364008 0)
(-0.0237745 -0.0188325 0)
(0.945114 -0.502515 0)
(0.820294 0.272916 -1.80252e-21)
(0.33301 0.15214 0)
(0.654438 -0.152505 2.60512e-21)
(0.369504 -0.286819 -7.88205e-22)
(0.146149 0.0154003 0)
(0.489474 -0.0170236 0)
(0.543549 -0.330527 0)
(0.468735 0.0294094 -2.36429e-21)
(0.6081 -0.333727 0)
(0.118426 -0.0290265 0)
(0.72268 -0.329262 1.05474e-23)
(0.108843 -0.0883222 3.87453e-21)
(0.506519 0.160028 -7.35711e-21)
(0.762443 -0.320537 0)
(0.119741 -0.111028 1.70254e-20)
(0.782437 0.258539 4.30558e-21)
(-0.0115456 -0.0269586 -5.36037e-21)
(0.956664 -0.487565 3.2598e-21)
(0.0140212 0.00825071 -4.94951e-21)
(0.78219 0.16193 -2.29617e-21)
(0.892749 -0.555514 -4.04834e-21)
(0.824038 0.197552 6.10574e-21)
(0.916859 -0.551712 0)
(-0.00581443 -0.00197073 4.84778e-21)
(0.569818 -0.45075 2.47249e-21)
(0.684748 -0.0661944 -2.00946e-21)
(0.267619 0.166507 -5.45273e-21)
(0.447368 0.0662025 4.64893e-21)
(0.645313 0.360177 -2.80299e-21)
(0.141307 -0.157927 3.18833e-21)
(1.00096 -0.30389 -6.28529e-24)
(0.92129 -0.547974 0)
(0.835854 0.217647 1.73132e-21)
(-0.0136193 -0.00762253 0)
(0.342589 -0.0331066 8.72707e-21)
(0.225485 -0.0856069 0)
(0.428113 -0.188486 -2.81869e-21)
(0.434996 0.1422 0)
(0.694238 -0.267497 1.61105e-22)
(0.181874 -0.146454 -3.22007e-21)
(0.0223483 0.0162564 -3.81633e-21)
(0.790866 0.150327 0)
(0.884061 -0.569704 4.66402e-21)
(0.474585 0.0859759 0)
(0.707294 -0.336063 -6.76786e-21)
(0.104403 -0.0764109 0)
(-0.0256796 -0.015445 0)
(0.910923 -0.465267 -4.8674e-22)
(0.802798 0.309384 0)
(0.237034 0.14643 5.90048e-21)
(0.67432 -0.0485239 0)
(0.604196 -0.473425 0)
(0.797925 0.18656 -5.35706e-21)
(0.91131 -0.543706 0)
(-0.00108053 -0.00276224 3.40902e-23)
(0.585579 0.0344489 -6.06772e-21)
(0.685052 -0.44076 -2.10528e-21)
(0.103052 0.0330883 7.52917e-21)
(0.527672 0.197232 0)
(0.800365 -0.31837 -2.51896e-21)
(0.129696 -0.128676 -1.70453e-21)
(0.83647 -0.585725 6.5189e-21)
(0.764804 0.0903127 4.08873e-21)
(0.0753187 0.0540066 -3.00665e-21)
(0.684567 0.0545613 0)
(0.76836 -0.528193 2.78409e-21)
(0.102813 0.0604737 1.09743e-22)
(-0.0268215 -0.0145591 3.74646e-21)
(0.887244 -0.471177 0)
(0.810712 0.299795 1.41813e-21)
(0.281071 0.135424 -7.92421e-21)
(0.452305 -0.34156 3.74923e-21)
(0.628525 -0.112679 3.75655e-22)
(0.682734 0.350221 -1.42964e-21)
(-0.0141047 -0.00423662 3.98474e-22)
(0.87847 -0.368423 0)
(0.207787 -0.0380873 -1.77301e-21)
(0.395143 -0.061154 6.72906e-21)
(0.413729 -0.21461 -8.50598e-21)
(0.572645 0.0685234 -2.4821e-21)
(0.564587 0.0401751 -3.84735e-23)
(0.717241 -0.4245 5.14588e-21)
(0.678096 -0.421325 5.03947e-21)
(0.098099 0.0183715 -5.98516e-21)
(0.076179 0.00120424 3.07775e-21)
(0.0966332 -0.120902 6.78474e-21)
(0.675809 0.357535 -2.89133e-21)
(1.01644 -0.325417 0)
(0.496366 0.191348 0)
(0.776061 -0.29096 0)
(0.163927 -0.150316 6.80029e-21)
(0.709128 0.0781428 1.08905e-21)
(0.800988 -0.547079 0)
(0.0816196 0.0492788 0)
(0.666654 0.249434 -2.42228e-21)
(0.922234 -0.401627 0)
(0.0447614 -0.0732471 -3.10881e-21)
(0.308243 -0.0723741 -1.82669e-21)
(0.35393 -0.122422 -2.62181e-21)
(0.295743 -0.108961 9.16619e-22)
(0.628332 0.0569888 3.90639e-21)
(0.738138 -0.479199 0)
(0.0887375 0.0371894 5.12271e-21)
(0.501726 0.208106 0)
(0.793819 -0.283848 -3.12146e-21)
(0.174303 -0.163845 4.30492e-21)
(0.483355 0.109332 -7.55694e-21)
(0.514309 0.127161 6.08466e-21)
(0.288557 0.147794 6.26903e-21)
(0.463451 -0.357666 -1.08314e-20)
(0.645424 -0.10804 8.21264e-21)
(0.644162 0.0806144 4.04775e-21)
(0.769987 -0.488965 -4.21589e-21)
(0.0668687 0.0232297 -4.67352e-21)
(0.690633 0.256347 8.87501e-21)
(0.0299427 -0.0618274 1.10257e-20)
(0.938744 -0.418695 2.03899e-21)
(0.231427 0.0884572 2.75874e-21)
(0.471366 -0.337632 0)
(0.570285 -0.0856529 -2.98711e-21)
(0.152789 0.0919788 6.0142e-21)
(0.658821 0.0101435 2.99395e-21)
(0.695195 -0.503667 0)
(0.583777 0.264367 8.97248e-22)
(0.891147 -0.31306 2.55169e-21)
(0.136675 -0.145796 -1.94076e-21)
(0.259598 0.141007 -5.12252e-22)
(0.523298 -0.399277 0)
(0.645132 -0.0781468 -6.29219e-21)
(0.611417 0.283206 0)
(0.632811 0.284637 0)
(0.922404 -0.326193 1.54975e-21)
(0.12185 -0.136373 5.07109e-21)
(0.934316 -0.34906 -2.18752e-21)
(0.0964789 -0.115513 -5.36783e-21)
(-0.0195311 -0.0231098 4.12733e-21)
(0.956075 -0.489786 0)
(0.806045 0.279623 2.65965e-21)
(0.569863 0.22768 0)
(0.852488 -0.333541 1.21184e-21)
(0.114402 -0.122854 -1.76533e-21)
(0.757043 -0.380139 1.00513e-21)
(-0.016159 -0.00185941 -5.92776e-21)
(0.663062 0.317908 -2.67137e-21)
(0.45051 -0.0454214 9.14617e-21)
(0.176386 -0.00175977 0)
(0.476869 -0.276159 3.06944e-21)
(0.563145 0.111833 -5.73363e-21)
(0.75635 -0.400453 0)
(0.0633898 -0.0337618 -1.00503e-20)
(-0.00321229 -0.0338388 3.42278e-21)
(0.756258 0.250835 -7.92364e-21)
(0.949282 -0.473265 -2.68947e-21)
(0.621153 -0.463877 3.19145e-21)
(0.64782 -0.0334257 0)
(0.201544 0.119894 7.35787e-21)
(0.85404 -0.582785 7.52596e-21)
(0.774417 0.111916 2.48788e-21)
(0.0532644 0.0377853 0)
(0.6509 -0.309698 3.61826e-21)
(0.123196 -0.073549 0)
(0.576227 0.1547 -6.17608e-21)
(0.794834 -0.384762 -2.30391e-21)
(0.0655346 -0.0651531 -3.05184e-21)
(0.641436 -0.323883 -1.23645e-22)
(0.11466 -0.0589203 -1.25021e-23)
(0.72153 0.344705 6.01692e-21)
(0.0375308 -0.0700431 -7.99559e-21)
(1.01457 -0.378378 1.41423e-21)
(0.555999 -0.460693 -3.21733e-21)
(0.71248 -0.0786611 -6.19555e-22)
(0.296895 0.188794 0)
(0.604679 0.172196 6.29029e-21)
(0.832157 -0.401192 2.80961e-21)
(0.0519914 -0.0574275 7.39795e-21)
(0.512773 0.0431276 0)
(0.645231 -0.373276 2.09246e-21)
(0.102906 -0.00936709 0)
(0.580659 -0.0354882 2.9803e-21)
(0.572017 -0.401512 0)
(0.181391 0.078685 0)
(0.369488 0.0492512 2.4582e-21)
(0.558501 -0.236455 4.03041e-21)
(0.188932 -0.114439 -1.56999e-25)
(0.178001 0.109269 -7.45914e-21)
(0.66005 -0.00910623 -7.27649e-21)
(0.667635 -0.492178 -8.54237e-21)
(0.799315 0.237189 3.21033e-21)
(0.940979 -0.508952 -2.7355e-21)
(-0.0141301 -0.0190294 -8.07843e-23)
(0.86128 -0.566872 -5.15089e-21)
(0.763193 0.122773 -2.52124e-21)
(0.041009 0.0278886 -3.84535e-21)
(0.467989 0.270141 5.60901e-21)
(0.326452 -0.29669 -2.75403e-21)
(0.82761 -0.193017 0)
(0.643847 0.323925 -1.57916e-21)
(0.621466 0.308491 1.45673e-21)
(0.947217 -0.312896 4.89161e-22)
(0.971558 -0.321277 -1.89527e-21)
(0.119652 -0.137787 1.83057e-21)
(0.135547 -0.150646 1.63833e-21)
(-0.0169357 -0.0018997 6.024e-21)
(0.796516 -0.377211 -1.10688e-21)
(0.674271 0.323692 -9.65525e-22)
(0.694489 0.354742 9.86659e-23)
(-0.0121149 -0.00802154 0)
(0.911938 -0.371805 0)
(0.602438 0.086245 9.11488e-21)
(0.75631 -0.44457 1.10458e-21)
(0.0664211 0.00199998 0)
(-0.0139514 -0.0278458 1.0317e-20)
(0.788765 0.272713 -3.3444e-21)
(0.96422 -0.481762 0)
(0.53454 0.276187 -8.02335e-21)
(0.562333 0.284985 5.9889e-21)
(0.868021 -0.258748 -2.80327e-21)
(0.892075 -0.277155 -1.04661e-21)
(0.22081 -0.212821 3.23084e-21)
(0.188175 -0.18771 1.62359e-21)
(-0.0184005 -0.0092393 0)
(0.897905 -0.55043 0)
(0.866555 0.220181 -9.03321e-22)
(0.63882 0.347647 1.67903e-21)
(-0.01307 -5.30299e-05 -3.7236e-21)
(0.843821 -0.343364 0)
(0.405038 -0.111347 -4.87119e-24)
(0.25636 -0.0265859 -3.92606e-21)
(0.329793 -0.169883 -1.91422e-21)
(0.705312 0.333746 2.68474e-21)
(0.854843 -0.39815 6.88759e-23)
(-0.0183745 -0.00483988 -7.48228e-21)
(0.404968 0.186991 -6.91906e-21)
(0.719634 -0.199225 5.20709e-21)
(0.300385 -0.253404 4.62204e-23)
(0.826938 0.260868 -7.09254e-23)
(0.940011 -0.513711 -3.31336e-21)
(-0.0223119 -0.0169441 2.11128e-21)
(0.661776 -0.383249 2.0601e-23)
(-0.0148711 -0.00519794 6.85909e-21)
(0.649955 0.26462 8.2793e-22)
(0.253157 0.0776787 3.67548e-21)
(0.39598 -0.273151 2.24507e-22)
(0.547031 -0.116091 -9.6355e-21)
(0.40237 -0.0383574 0)
(0.461209 -0.240065 9.41413e-21)
(0.186544 -0.038882 -4.91705e-21)
(0.761087 0.343357 -5.28693e-21)
(-0.013066 -0.0224367 -4.72393e-21)
(0.969321 -0.426504 5.46505e-23)
(0.4213 -0.0283745 0)
(0.4839 -0.259438 3.22763e-21)
(0.170373 -0.023876 6.96469e-21)
(0.381958 -0.107205 -3.94702e-21)
(0.265335 -0.0449355 4.1471e-21)
(0.326173 -0.153463 -1.01686e-21)
(0.22503 0.147071 3.58772e-21)
(0.693312 -0.0324328 2.5218e-21)
(0.648131 -0.510302 -4.67227e-21)
(0.453508 -0.0836621 0)
(0.407527 -0.237527 0)
(0.210413 0.0123425 -5.83142e-22)
(0.463098 -0.0597333 -4.92417e-21)
(0.453069 -0.264129 -2.50559e-21)
(0.193333 0.0129599 -8.2384e-23)
(0.437841 0.253858 -8.53124e-21)
(0.796423 -0.174957 3.85291e-21)
(0.363117 -0.326214 5.5395e-21)
(-0.00316166 -0.0360386 -7.15121e-21)
(-0.00974634 -0.0318904 7.29974e-21)
(0.993227 -0.432812 -7.87646e-22)
(0.983074 -0.445823 -6.04293e-22)
(0.764832 0.330816 -4.5882e-21)
(0.776024 0.321376 6.88158e-21)
(0.817022 0.241965 -3.97675e-21)
(0.939645 -0.516241 2.20038e-21)
(-0.0178378 -0.0154622 0)
(0.313667 -0.297581 -3.58812e-21)
(0.494859 0.294726 -1.75864e-21)
(0.859645 -0.200131 0)
(0.299061 0.134424 0)
(0.409247 -0.311131 3.43332e-21)
(0.628583 -0.130643 -2.93953e-21)
(0.704183 0.0385953 0)
(0.759834 -0.548657 -2.88107e-21)
(0.12856 0.0822 -1.13523e-22)
(0.746124 -0.448796 -2.91553e-22)
(-0.0233214 -0.0132802 0)
(0.7732 0.262522 2.52439e-21)
(0.00149028 0.0048815 0)
(0.843875 0.183729 0)
(0.90274 -0.577559 -1.58768e-21)
(0.779742 0.323563 -1.7249e-21)
(-0.0224874 -0.0152693 0)
(0.926015 -0.447582 4.77692e-22)
(-0.0117569 -0.00215106 2.54478e-32)
(0.616664 -0.353999 -7.08495e-22)
(0.596032 0.255771 -8.1498e-22)
(0.643789 -0.310731 8.14486e-22)
(-0.010836 0.0027629 -2.53877e-32)
(0.562562 0.293923 7.36452e-22)
(0.831954 -0.485827 5.54708e-21)
(0.671189 0.131309 0)
(0.0371023 -0.00273313 9.86884e-21)
(0.851919 -0.518212 3.21756e-22)
(-0.0252266 -0.0150712 0)
(0.865292 0.243376 0)
(0.71597 0.221963 3.93104e-21)
(0.91845 -0.464619 -2.72678e-21)
(0.0106604 -0.0363281 -5.07347e-21)
(0.715828 0.376154 -5.89232e-21)
(0.021751 -0.0480031 -2.84126e-21)
(1.02444 -0.3596 0)
(0.423464 0.0701908 -1.88518e-21)
(0.142492 -0.0872764 1.93869e-21)
(0.6296 -0.287509 -1.74847e-21)
(0.90302 -0.561303 0)
(-0.0133859 -0.00527449 -3.52352e-21)
(0.862301 0.209241 -1.09219e-21)
(0.692786 0.023413 2.93915e-21)
(0.147572 0.0953236 2.03511e-21)
(0.734271 -0.536077 0)
(0.813867 -0.538931 0)
(0.70619 0.0946055 0)
(0.0627112 0.0361396 -3.60527e-21)
(-0.00319464 0.00263545 0)
(0.360565 -0.181773 -1.15628e-21)
(0.339859 0.15946 -2.41574e-22)
(0.751096 -0.401917 1.66209e-22)
(-0.0178673 -0.00461271 4.14173e-21)
(0.688934 0.304094 1.26615e-21)
(0.398829 0.0490753 4.89878e-21)
(0.159754 -0.0903246 -4.64608e-21)
(0.583533 -0.266968 -2.04481e-21)
(0.912927 -0.52707 -2.44937e-21)
(0.851704 0.246596 1.86778e-21)
(-0.0237552 -0.0134612 0)
(-0.0193104 -0.0100046 3.67235e-21)
(0.877779 0.221813 0)
(0.877761 -0.549708 1.89486e-21)
(0.773833 0.29104 2.434e-21)
(-0.0074469 -0.0343927 -1.1007e-20)
(0.975505 -0.458992 -2.79154e-21)
(0.0671239 -0.0948416 8.2002e-21)
(1.00604 -0.356965 -1.92392e-21)
(0.693836 0.340139 0)
(0.421759 0.258913 1.07702e-20)
(0.793137 -0.158978 -4.91066e-21)
(0.406149 -0.362032 5.23719e-21)
(0.930848 -0.290558 -7.23958e-22)
(0.594628 0.310096 -3.46819e-21)
(0.173026 -0.180701 5.04714e-21)
(0.0617048 -0.0900119 7.33481e-21)
(0.700582 0.367707 0)
(1.03247 -0.345705 9.9377e-22)
(0.431603 0.177962 1.74413e-21)
(0.467975 0.200224 0)
(0.725206 -0.234916 5.43612e-21)
(0.768178 -0.254438 -5.81289e-21)
(0.237334 -0.198774 -3.56324e-21)
(0.214916 -0.191657 0)
(0.402792 0.172313 1.70423e-21)
(0.704718 -0.210443 0)
(0.276442 -0.227623 -1.67195e-21)
(0.523705 0.285879 0)
(0.867995 -0.243227 4.53104e-21)
(0.246679 -0.236185 -1.16583e-21)
(0.846388 -0.55161 2.63817e-21)
(0.739494 0.114711 -2.70385e-21)
(0.0448524 0.0258732 7.86336e-21)
(0.928059 -0.53773 0)
(0.828201 0.232503 -6.24297e-22)
(-0.0179679 -0.0116018 0)
(0.0211003 0.00711833 2.53644e-21)
(0.751131 0.150051 1.67694e-21)
(0.877687 -0.539827 1.68187e-21)
(0.694579 -0.320247 -1.35964e-22)
(-0.0121883 0.00312248 -6.24503e-24)
(0.588975 0.310428 0)
(0.304219 0.0891714 -3.37049e-21)
(0.314974 0.0800037 0)
(0.312678 -0.219463 8.37019e-22)
(0.572358 -0.16355 -1.15054e-20)
(0.285281 -0.197018 -1.05927e-21)
(0.566199 -0.179644 7.36753e-21)
(0.471312 0.250352 0)
(0.432746 0.22604 1.10309e-21)
(0.313116 -0.273403 -1.86116e-23)
(0.809963 -0.218427 -3.06386e-21)
(0.285008 -0.254342 -8.50063e-21)
(0.769137 -0.199114 6.61187e-21)
(0.650715 -0.400092 0)
(-0.0168529 -0.00894498 -7.49602e-21)
(0.683495 0.252926 0)
(0.922345 -0.523723 1.66094e-21)
(0.84261 0.24609 -6.17072e-22)
(-0.0228009 -0.0145362 -2.21618e-21)
(0.320744 0.16836 2.05382e-21)
(0.446747 -0.357951 3.84966e-21)
(0.675063 -0.123768 -9.21789e-21)
(0.812617 -0.570039 -5.87086e-21)
(0.73783 0.0747219 -6.87054e-21)
(0.0882548 0.0603521 0)
(0.083064 -0.109271 -8.76941e-21)
(0.999208 -0.346017 2.0466e-21)
(0.680266 0.338289 0)
(0.835869 -0.441307 0)
(0.766062 0.307767 0)
(-0.0234797 -0.00971832 0)
(0.852377 -0.461147 0)
(0.793194 0.297641 -2.60038e-21)
(-0.0261262 -0.0125561 0)
(0.561856 0.268308 3.35169e-21)
(0.878744 -0.293048 -1.58198e-21)
(0.168177 -0.169699 -2.40313e-21)
(0.212979 0.0725378 9.69648e-22)
(0.480395 -0.32813 0)
(0.546858 -0.0720339 -3.22762e-21)
(0.781825 0.303111 -2.83596e-21)
(-0.0107373 -0.0313 -6.38283e-21)
(0.980381 -0.456913 3.95592e-21)
(0.843727 -0.507198 0)
(0.696257 0.135011 0)
(0.0329848 0.00597321 -8.51661e-21)
(0.0245783 -0.0603968 -2.10841e-21)
(0.961788 -0.421213 -3.4044e-21)
(0.712291 0.280907 -8.16827e-21)
(0.410003 0.218171 -1.1237e-21)
(0.346771 -0.298192 5.70262e-21)
(0.750477 -0.182488 -3.44496e-21)
(0.582668 0.012331 5.88025e-21)
(0.650376 -0.428312 -3.11843e-21)
(0.129215 0.0495459 -7.35227e-21)
(0.272706 0.108094 -6.0888e-23)
(0.41512 -0.305801 1.14285e-21)
(0.59282 -0.120414 3.85029e-21)
(-0.0180101 -0.0247016 2.48641e-21)
(0.965408 -0.474495 -1.51014e-21)
(0.799117 0.295503 -2.96628e-21)
(0.662456 0.270371 1.53592e-21)
(0.937529 -0.384704 1.1321e-21)
(0.0594575 -0.0863421 0)
(0.263075 0.0697298 3.65505e-21)
(0.363675 -0.245541 -7.29077e-21)
(0.538147 -0.130028 6.36668e-21)
(0.705926 0.376257 -2.39041e-21)
(0.0489371 -0.0766702 -3.23471e-21)
(1.03822 -0.347259 -1.36121e-22)
(0.382883 0.131659 2.12319e-21)
(0.654027 -0.220759 0)
(0.242344 -0.191183 0)
(0.461156 0.00737655 8.71216e-21)
(0.563449 -0.314791 -1.96495e-21)
(0.135081 -0.0165167 0)
(0.806717 -0.513048 0)
(0.680286 0.0955285 -5.78439e-21)
(0.057224 0.0264772 3.77639e-21)
(0.709495 0.365149 0)
(-0.00389127 -0.0195624 9.9944e-22)
(0.971258 -0.373746 -8.7119e-23)
(0.704929 0.372788 -2.19817e-21)
(0.00356635 -0.0262586 -3.18134e-21)
(0.990955 -0.362413 4.57273e-22)
(0.032999 -0.0680706 -1.91275e-21)
(0.973299 -0.406751 1.83673e-21)
(0.708896 0.295296 7.51718e-21)
(0.610068 0.000806623 2.63904e-21)
(0.660923 -0.455904 6.27873e-21)
(0.146685 0.0686353 0)
(-0.00733157 -0.0106435 -9.15516e-22)
(0.935151 -0.360299 8.51217e-23)
(0.67995 0.361979 0)
(0.000817012 -0.0306507 0)
(0.933302 -0.478806 1.97732e-21)
(0.744426 0.231247 9.22913e-22)
(-0.00869887 -0.00246997 -3.74647e-21)
(0.519423 -0.323318 5.42407e-22)
(0.533137 0.212217 0)
(0.475407 0.273322 9.93173e-22)
(0.567647 -0.253414 0)
(-0.00803024 0.00541476 -3.73961e-21)
(0.0561301 -0.0849181 8.25181e-24)
(1.02145 -0.36005 1.93312e-22)
(0.705297 0.355168 0)
(-0.024958 -0.0182504 0)
(0.936025 -0.477542 0)
(0.812578 0.299248 -3.67244e-21)
(0.752709 0.326724 2.57399e-21)
(0.744175 0.31471 -2.08228e-21)
(0.00764927 -0.0468422 3.59274e-21)
(1.0023 -0.418714 2.89306e-22)
(0.0114174 -0.0512618 0)
(0.993533 -0.421707 0)
(0.750151 0.215683 -1.79751e-21)
(0.923144 -0.494078 -1.37326e-21)
(-0.000484902 -0.0233572 0)
(0.118935 0.0824323 0)
(0.784603 -0.57298 0)
(0.732319 0.051527 0)
(0.31591 0.0493564 -4.57307e-21)
(0.257462 -0.162938 1.02065e-20)
(0.529451 -0.186449 -4.05978e-21)
(0.73834 0.174616 -5.16489e-21)
(0.890281 -0.515059 -5.60697e-22)
(0.00976257 -0.00802896 -7.45773e-21)
(0.0192477 0.000420386 -4.85544e-21)
(0.731655 0.157369 7.18188e-21)
(0.874176 -0.522263 7.77417e-22)
(0.684271 0.373018 -2.85739e-21)
(0.0860133 -0.111805 -3.50417e-21)
(1.03287 -0.325705 0)
(0.483945 0.265482 0)
(0.830714 -0.218103 -1.34919e-21)
(0.28606 -0.261993 8.33286e-21)
(0.433197 0.207533 0)
(0.751836 -0.210749 -6.83649e-21)
(0.28765 -0.250789 1.07436e-23)
(0.660858 0.159194 7.00578e-21)
(0.850008 -0.463234 -7.45221e-22)
(0.0284799 -0.024913 4.29483e-21)
(0.679595 0.155773 0)
(0.854517 -0.479913 -7.08921e-22)
(0.0255477 -0.015763 -3.93653e-21)
(0.248608 0.0478283 0)
(0.366552 -0.234902 1.14872e-20)
(0.504978 -0.120192 0)
(0.47785 0.215265 0)
(0.7844 -0.251842 3.69837e-21)
(0.220242 -0.203065 -1.2778e-21)
(-0.00598039 0.000250692 7.63089e-21)
(0.893023 -0.574241 3.48952e-21)
(0.86795 0.194469 0)
(0.81122 0.281391 5.39724e-23)
(-0.0265257 -0.0139284 -2.30845e-21)
(0.823529 -0.472261 -2.6367e-22)
(0.80589 0.265701 1.37201e-22)
(-0.0254089 -0.0145397 0)
(0.78909 -0.468457 6.55089e-22)
(0.339033 0.140161 -2.50633e-21)
(0.335635 -0.257431 1.23622e-21)
(0.643148 -0.170119 1.28758e-22)
(0.781438 -0.424554 -1.59179e-22)
(-0.0214905 -0.00843236 -9.50969e-21)
(0.742565 0.297046 0)
(0.685491 0.292853 -6.55736e-21)
(0.0519979 -0.0819126 0)
(0.963364 -0.387992 0)
(-0.0211878 -0.0105517 3.77531e-21)
(0.736686 -0.433046 -3.24708e-24)
(0.741563 0.272178 -1.88411e-21)
(0.371055 -0.0156669 -6.06679e-21)
(0.19504 -0.0689585 -6.25484e-21)
(0.471417 -0.221458 -2.4033e-23)
(0.529337 0.151297 1.0748e-21)
(0.768677 -0.346222 8.72934e-22)
(0.0967715 -0.088913 3.91667e-21)
(0.619344 -0.439746 -7.25647e-21)
(0.608251 -0.0206282 -9.49814e-21)
(0.173722 0.0845196 0)
(-0.0245228 -0.0139121 0)
(0.874442 -0.526287 4.80233e-22)
(0.866051 0.242758 0)
(0.83172 -0.519297 0)
(0.699723 0.120516 0)
(0.0411819 0.0153715 0)
(0.0307383 -0.0598383 0)
(0.719605 0.370363 2.13626e-21)
(1.03075 -0.363533 -8.83065e-22)
(0.564584 0.1683 0)
(0.80094 -0.368617 -4.51957e-22)
(0.0784485 -0.0791574 -3.75129e-24)
(0.30851 0.0322051 4.41835e-21)
(0.258959 -0.154605 -8.77139e-21)
(0.503209 -0.179501 0)
(0.900769 -0.518193 2.31543e-21)
(0.84957 0.260127 -1.7741e-21)
(-0.0263339 -0.0149051 0)
(0.00442077 -0.0421217 4.38487e-21)
(0.952255 -0.4571 -1.23258e-22)
(0.738742 0.261514 -1.63662e-22)
(0.741629 0.34936 0)
(0.733224 0.349123 -1.99136e-21)
(-0.0121828 -0.0171332 -2.30179e-21)
(-0.0149486 -0.0126225 2.85047e-21)
(0.955443 -0.403633 1.73561e-22)
(0.933105 -0.403712 -1.42738e-22)
(0.546625 0.0725608 0)
(0.701373 -0.402024 -5.96898e-21)
(0.0810127 -0.0127822 -4.81226e-21)
(0.801393 -0.468215 -7.81679e-21)
(0.642382 0.112432 0)
(0.0465201 -0.000116723 5.23957e-21)
(0.420924 0.020815 4.95295e-21)
(0.558145 -0.283775 -3.3331e-21)
(0.142775 -0.0518449 -7.63068e-21)
(0.8534 -0.494379 -9.43558e-22)
(0.835973 0.271977 -1.97644e-21)
(0.839426 -0.503383 3.82301e-22)
(-0.0275305 -0.0152084 2.44522e-21)
(0.84779 0.256845 1.85384e-21)
(-0.0265012 -0.0156227 0)
(0.63639 0.204574 0)
(0.871344 -0.41204 0)
(0.044895 -0.0617245 -4.82747e-21)
(0.838159 0.273407 -2.14973e-21)
(0.833684 0.278364 5.46497e-21)
(0.905471 -0.503358 -6.11877e-22)
(0.884848 -0.492596 1.84459e-21)
(-0.0276064 -0.0160172 -6.46408e-21)
(-0.0279567 -0.0153687 1.11874e-23)
(0.627466 0.0959441 0)
(0.773963 -0.469554 7.50574e-21)
(0.061267 0.0121004 -6.79464e-21)
(0.500049 0.0923133 -4.65795e-21)
(0.724326 -0.359207 5.36171e-21)
(0.0856033 -0.0601276 0)
(0.722476 0.370615 0)
(0.00975957 -0.0370968 -4.40787e-22)
(1.01001 -0.373899 -4.39258e-22)
(0.543606 0.0908452 -3.43841e-21)
(0.71915 -0.391682 0)
(0.07418 -0.0262023 7.94173e-21)
(0.445672 0.0440802 -2.01721e-21)
(0.608026 -0.313692 3.91203e-21)
(0.122948 -0.0511873 -4.41676e-21)
(0.728655 0.356718 0)
(-0.00626968 -0.0209837 0)
(0.975562 -0.392788 6.69444e-22)
(0.570398 0.18881 0)
(0.827417 -0.359124 -8.79736e-22)
(0.0825079 -0.0913119 4.77743e-21)
(0.719865 -0.543408 0)
(0.704174 0.00891848 0)
(0.172571 0.115176 2.61828e-22)
(0.410088 0.22908 2.75804e-22)
(0.76067 -0.170826 0)
(0.368312 -0.320385 -4.35534e-21)
(0.870181 -0.594467 -2.86948e-21)
(0.0416589 0.0322372 0)
(0.806588 0.128351 0)
(-0.006167 0.00215655 8.99934e-21)
(0.481569 -0.247276 1.61933e-21)
(0.448717 0.211428 3.38308e-22)
(0.552231 0.126962 0)
(0.756463 -0.379682 -3.28512e-21)
(0.0712085 -0.0537314 0)
(0.74446 0.351842 -4.0598e-21)
(0.00636859 -0.0403569 -1.20887e-20)
(1.00901 -0.397715 1.72057e-21)
(0.482355 -0.412495 0)
(0.749107 -0.11993 3.34341e-21)
(0.358469 0.223269 0)
(0.569516 0.32196 0)
(-0.0121559 0.00515422 2.20826e-21)
(0.733242 -0.309875 0)
(0.173336 0.0339754 -4.76606e-21)
(0.180139 0.0522461 4.87169e-21)
(0.504588 -0.320797 0)
(0.502879 -0.0450522 -4.11224e-21)
(0.523628 -0.346295 7.23698e-21)
(0.531721 -0.0483887 3.27176e-21)
(0.429635 0.000114594 -4.66361e-21)
(0.530994 -0.281181 -4.5301e-21)
(0.150068 -0.033045 0)
(0.225283 0.0644892 -4.23478e-21)
(0.199975 0.0437622 0)
(0.435076 -0.292391 0)
(0.530485 -0.0923437 0)
(0.453152 -0.290762 4.23889e-21)
(0.503423 -0.0725604 -2.60311e-23)
(0.525216 0.115367 -2.94027e-22)
(0.687032 -0.352389 2.38825e-21)
(0.0941767 -0.0498636 5.43275e-21)
(0.50816 0.0803158 8.02801e-21)
(0.686724 -0.363436 0)
(0.090981 -0.0370591 0)
(-0.0254686 -0.0161353 0)
(0.794456 -0.489022 0)
(0.83343 0.252758 -1.69156e-21)
(0.369975 0.149338 6.90526e-21)
(0.665409 -0.192938 0)
(0.293992 -0.231437 -2.28878e-21)
(0.825197 0.281877 4.98069e-21)
(0.930732 -0.496802 -9.89365e-22)
(-0.0264394 -0.0174904 3.68913e-21)
(0.673392 0.184516 0)
(0.700969 0.19958 -3.7855e-21)
(0.875709 -0.455627 9.29228e-22)
(0.89817 -0.467256 -2.69927e-21)
(0.0220792 -0.0332971 5.31016e-21)
(0.0136285 -0.0311705 4.89638e-21)
(0.361066 0.129163 0)
(0.641113 -0.199847 0)
(0.275723 -0.212898 -1.09462e-21)
(0.512657 0.253584 -2.68571e-21)
(0.835673 -0.254674 0)
(0.224852 -0.210609 -2.78109e-21)
(0.618558 0.166164 2.00671e-21)
(0.832001 -0.423134 0)
(0.04143 -0.0446205 -4.89101e-21)
(0.276718 -0.00984965 -4.75404e-21)
(0.434687 -0.140586 -2.26933e-21)
(0.294313 -0.157861 -2.3627e-21)
(0.71469 0.178162 0)
(0.885465 -0.494662 0)
(0.0129235 -0.0157453 7.93042e-21)
(0.293688 0.0537281 0)
(0.293972 -0.190073 -1.28052e-21)
(0.525671 -0.164508 0)
(0.617496 0.110946 4.50858e-21)
(0.78263 -0.452181 4.1805e-21)
(0.0531925 -0.00984021 6.81178e-22)
(0.510962 0.23649 -2.72526e-21)
(0.822399 -0.267293 -4.21423e-21)
(0.201431 -0.19231 0)
(0.276454 0.0118733 4.71061e-21)
(0.258599 0.0153798 2.10339e-21)
(0.463812 -0.14855 -2.20456e-21)
(0.296673 -0.171589 4.68919e-21)
(0.465448 -0.13311 0)
(0.326284 -0.19435 8.31046e-21)
(0.223992 0.0318504 2.1176e-21)
(0.394327 -0.24783 -5.33834e-21)
(0.205499 0.0325452 -1.36266e-21)
(0.483783 -0.0982908 0)
(0.442231 -0.277784 -2.72949e-21)
(0.489359 -0.0777142 4.70791e-21)
(0.422558 0.159269 -2.51379e-21)
(0.455055 0.166879 0)
(0.703618 -0.241942 -4.1329e-21)
(0.729423 -0.267375 3.22644e-21)
(0.219674 -0.181423 1.03057e-20)
(0.185407 -0.157269 -8.57676e-21)
(0.0549209 -0.0855803 0)
(0.993098 -0.374558 1.08334e-21)
(0.697571 0.323412 3.82169e-21)
(0.19171 0.123834 -8.8701e-21)
(0.685856 -0.0108408 -3.97551e-21)
(0.681516 -0.517405 7.32783e-21)
(0.0376573 -0.0714713 4.10418e-21)
(0.0266217 -0.0636091 0)
(1.00064 -0.390303 -9.37138e-22)
(0.990624 -0.406492 -1.67926e-21)
(0.716542 0.3295 -9.69843e-21)
(0.725138 0.315098 5.02847e-21)
(0.27563 0.159338 0)
(0.531807 -0.416454 4.15206e-21)
(0.668858 -0.0826477 -9.07967e-22)
(0.297654 -0.0493251 -9.98726e-21)
(0.286422 -0.121408 0)
(0.384696 -0.134007 7.77673e-21)
(0.72308 0.197624 1.78247e-21)
(0.902784 -0.487962 3.04697e-21)
(0.00780618 -0.0225144 0)
(0.324938 0.10773 0)
(0.30577 -0.22919 1.04285e-21)
(0.602428 -0.173699 3.70887e-21)
(0.531956 0.243104 0)
(0.841018 -0.282575 0)
(0.179631 -0.175292 6.69142e-22)
(0.661904 0.319808 0)
(0.660151 0.304716 0)
(0.976374 -0.345985 -6.70608e-22)
(0.0934179 -0.116373 5.06104e-21)
(0.963599 -0.35569 1.82191e-21)
(0.0839139 -0.10776 -6.85504e-21)
(0.663502 0.208264 -3.77964e-21)
(0.889839 -0.429657 -2.92576e-21)
(0.0297356 -0.0505955 -2.30994e-21)
(0.625276 0.330555 -1.95307e-21)
(0.79075 -0.341996 0)
(-0.0141543 0.00160302 2.72713e-21)
(0.506679 -0.422457 0)