/*--------------------------------*- C++ -*----------------------------------*\
  =========                 |
  \\      /  F ield         | OpenFOAM: The Open Source CFD Toolbox
   \\    /   O peration     | Website:  https://openfoam.org
    \\  /    A nd           | Version:  6
     \\/     M anipulation  |
\*---------------------------------------------------------------------------*/
FoamFile
{
    version     2.0;
    format      ascii;
    class       volVectorField;
    location    "0";
    object      uRec;
}
// * * * * * * * * * * * * * * * * * * * * * * * * * * * * * * * * * * * * * //

dimensions      [0 1 -1 0 0 0 0];

internalField   nonuniform List<vector> 
10000
(
(7.67227e-06 9.19877e-06 0)
(6.87987e-05 -4.59412e-06 0)
(0.000185407 -1.89639e-05 0)
(0.000361818 -3.00671e-05 0)
(0.000589474 -3.83098e-05 0)
(0.000854635 -4.37559e-05 0)
(0.00114232 -4.60045e-05 0)
(0.00143634 -4.47955e-05 0)
(0.00172175 -4.04443e-05 0)
(0.00198616 -3.3689e-05 0)
(0.00222022 -2.55701e-05 0)
(0.00241775 -1.71231e-05 0)
(0.00257577 -9.16131e-06 0)
(0.0026942 -2.30479e-06 0)
(0.00277535 2.95912e-06 0)
(0.00282459 6.04509e-06 0)
(0.00284255 6.33853e-06 0)
(0.0028548 1.57387e-05 0)
(0.00281223 2.15128e-05 0)
(0.00276184 1.6617e-05 0)
(0.00269943 1.63007e-05 0)
(0.00262671 1.63371e-05 0)
(0.00254552 1.61188e-05 0)
(0.00245801 1.5724e-05 0)
(0.00236661 1.49647e-05 0)
(0.00227286 1.40727e-05 0)
(0.00217876 1.31611e-05 0)
(0.00208588 1.20733e-05 0)
(0.0019947 1.10424e-05 0)
(0.0019063 1.02156e-05 0)
(0.0018216 9.31908e-06 0)
(0.00174027 8.39003e-06 0)
(0.00166239 7.75238e-06 0)
(0.00158873 7.24443e-06 0)
(0.00151902 6.5838e-06 0)
(0.00145254 5.96554e-06 0)
(0.00138948 5.62887e-06 0)
(0.00133015 5.37771e-06 0)
(0.00127405 4.94843e-06 0)
(0.00122055 4.51538e-06 0)
(0.00116977 4.31267e-06 0)
(0.00112199 4.19306e-06 0)
(0.0010768 3.94157e-06 0)
(0.0010337 3.62542e-06 0)
(0.000992752 3.41917e-06 0)
(0.000954173 3.32714e-06 0)
(0.00091786 3.19008e-06 0)
(0.000883461 2.95205e-06 0)
(0.000850867 2.73654e-06 0)
(0.000820299 2.61716e-06 0)
(0.000791866 2.52279e-06 0)
(0.000765403 2.36831e-06 0)
(0.000740722 2.14484e-06 0)
(0.000717839 1.92329e-06 0)
(0.000696953 1.76404e-06 0)
(0.000678179 1.62628e-06 0)
(0.000661473 1.44431e-06 0)
(0.000646649 1.22482e-06 0)
(0.000633669 9.39883e-07 0)
(0.000622926 8.83217e-07 0)
(0.00061327 1.07461e-06 0)
(0.000604886 1.03426e-06 0)
(0.000597378 9.01753e-07 0)
(0.000590279 8.32198e-07 0)
(0.000583956 6.23126e-07 0)
(0.000578848 3.43877e-07 0)
(0.000575494 1.35363e-07 0)
(0.000573766 -7.35649e-09 0)
(0.000573332 -9.45211e-08 0)
(0.000573863 -1.61611e-07 0)
(0.000575103 -2.19449e-07 0)
(0.000576905 -2.47086e-07 0)
(0.000579221 -2.30421e-07 0)
(0.000582055 -2.0866e-07 0)
(0.000585419 -2.39876e-07 0)
(0.000589385 -3.27809e-07 0)
(0.000594211 -4.6305e-07 0)
(0.000600366 -6.92897e-07 0)
(0.000608457 -1.07115e-06 0)
(0.000619271 -1.61604e-06 0)
(0.000633863 -2.36965e-06 0)
(0.000653563 -3.42433e-06 0)
(0.000679927 -4.87197e-06 0)
(0.000714784 -6.77749e-06 0)
(0.000760225 -9.21406e-06 0)
(0.000818402 -1.224e-05 0)
(0.000891217 -1.58307e-05 0)
(0.000980005 -1.98744e-05 0)
(0.00108506 -2.41792e-05 0)
(0.00120487 -2.84161e-05 0)
(0.00133531 -3.20272e-05 0)
(0.00146869 -3.41771e-05 0)
(0.00159302 -3.37762e-05 0)
(0.00168998 -2.87997e-05 0)
(0.00173424 -1.73914e-05 0)
(0.00169084 4.009e-06 0)
(0.00151562 3.90538e-05 0)
(0.0011687 8.65097e-05 0)
(0.000659617 0.000131307 0)
(0.000135813 0.000127797 0)
(1.43462e-05 -3.47199e-05 0)
(0.00017372 -0.000159678 0)
(0.000473685 -0.000282218 0)
(0.000898039 -0.000386184 0)
(0.00142628 -0.000467641 0)
(0.00203112 -0.000522866 0)
(0.00268313 -0.000549868 0)
(0.00335194 -0.000548971 0)
(0.00400968 -0.00052303 0)
(0.00463288 -0.000476725 0)
(0.00520312 -0.000415854 0)
(0.00570706 -0.000346269 0)
(0.00613617 -0.000273272 0)
(0.00648628 -0.000201518 0)
(0.00675701 -0.000134974 0)
(0.00695046 -7.67691e-05 0)
(0.00707744 -3.02074e-05 0)
(0.00711714 1.42229e-05 0)
(0.00717014 6.61252e-05 0)
(0.00709829 0.000103817 0)
(0.00701406 0.000124372 0)
(0.00689216 0.000143367 0)
(0.00673953 0.00015847 0)
(0.00656182 0.000169641 0)
(0.00636516 0.000176811 0)
(0.0061547 0.000180161 0)
(0.00593523 0.000180525 0)
(0.00571133 0.000178477 0)
(0.00548615 0.000174432 0)
(0.00526249 0.000169018 0)
(0.005043 0.000162745 0)
(0.0048292 0.000155858 0)
(0.00462204 0.000148673 0)
(0.00442269 0.000141452 0)
(0.00423175 0.000134297 0)
(0.00404917 0.000127333 0)
(0.00387506 0.000120676 0)
(0.00370944 0.000114371 0)
(0.00355203 0.000108334 0)
(0.00340244 0.000102613 0)
(0.00326044 9.72958e-05 0)
(0.00312581 9.22675e-05 0)
(0.0029981 8.74102e-05 0)
(0.00287687 8.27888e-05 0)
(0.00276205 7.84293e-05 0)
(0.00265351 7.42478e-05 0)
(0.00255093 7.01374e-05 0)
(0.00245402 6.60682e-05 0)
(0.00236271 6.21326e-05 0)
(0.00227709 5.83465e-05 0)
(0.00219711 5.45678e-05 0)
(0.00212255 5.07182e-05 0)
(0.00205326 4.68489e-05 0)
(0.00198931 4.30302e-05 0)
(0.00193086 3.92565e-05 0)
(0.00187793 3.54387e-05 0)
(0.00183031 3.14919e-05 0)
(0.00178787 2.74205e-05 0)
(0.00175128 2.3519e-05 0)
(0.0017191 2.0024e-05 0)
(0.0016935 1.71674e-05 0)
(0.0016723 1.5886e-05 0)
(0.00165143 1.4805e-05 0)
(0.00163339 1.31014e-05 0)
(0.00161663 1.12043e-05 0)
(0.00160193 8.3547e-06 0)
(0.00159138 5.1743e-06 0)
(0.00158491 2.40879e-06 0)
(0.00158193 1.42009e-07 0)
(0.00158177 -1.64419e-06 0)
(0.0015839 -3.03195e-06 0)
(0.00158794 -4.12086e-06 0)
(0.00159362 -5.02485e-06 0)
(0.00160081 -5.92897e-06 0)
(0.00160956 -7.07406e-06 0)
(0.00162011 -8.66622e-06 0)
(0.00163297 -1.08916e-05 0)
(0.00164903 -1.40413e-05 0)
(0.0016696 -1.85069e-05 0)
(0.00169631 -2.46889e-05 0)
(0.00173125 -3.30275e-05 0)
(0.00177697 -4.40465e-05 0)
(0.00183647 -5.82644e-05 0)
(0.00191307 -7.60532e-05 0)
(0.00201026 -9.75669e-05 0)
(0.0021314 -0.00012261 0)
(0.00227899 -0.000150354 0)
(0.00245382 -0.000179111 0)
(0.00265405 -0.000206142 0)
(0.00287385 -0.000227386 0)
(0.00310176 -0.000237118 0)
(0.00331894 -0.000227741 0)
(0.00349825 -0.000189703 0)
(0.00359871 -0.000112204 0)
(0.00357696 2.12763e-05 0)
(0.00336053 0.000226301 0)
(0.00288807 0.000501092 0)
(0.00211906 0.000798581 0)
(0.00111917 0.000968716 0)
(0.000174515 0.000678355 0)
(1.74726e-05 -0.000146156 0)
(0.000245422 -0.000448044 0)
(0.000668112 -0.000728779 0)
(0.00125322 -0.000968768 0)
(0.00196958 -0.00115693 0)
(0.00278114 -0.00128484 0)
(0.00365112 -0.00134975 0)
(0.00454402 -0.00135435 0)
(0.0054281 -0.00130553 0)
(0.00627655 -0.00121289 0)
(0.00706792 -0.00108726 0)
(0.00778609 -0.000939489 0)
(0.00841959 -0.000779558 0)
(0.00896114 -0.000616297 0)
(0.00940717 -0.000457235 0)
(0.00975677 -0.000308384 0)
(0.0100123 -0.000174202 0)
(0.0101825 -6.13325e-05 0)
(0.0102581 5.6311e-05 0)
(0.0102923 0.000156733 0)
(0.0102482 0.000219859 0)
(0.0101507 0.000284474 0)
(0.00999887 0.000340067 0)
(0.00980337 0.000383606 0)
(0.00957212 0.000415944 0)
(0.00931243 0.000437764 0)
(0.00903157 0.00045024 0)
(0.00873558 0.00045516 0)
(0.00842946 0.000453888 0)
(0.00811855 0.000447475 0)
(0.0078072 0.000437214 0)
(0.00749801 0.000424176 0)
(0.00719376 0.000409067 0)
(0.00689734 0.000392674 0)
(0.00661012 0.000375684 0)
(0.00633259 0.000358459 0)
(0.00606588 0.000341229 0)
(0.00581089 0.000324408 0)
(0.00556744 0.000308247 0)
(0.00533511 0.000292688 0)
(0.00511395 0.00027768 0)
(0.00490403 0.000263349 0)
(0.0047049 0.000249733 0)
(0.00451584 0.00023674 0)
(0.00433658 0.000224194 0)
(0.00416709 0.000211985 0)
(0.00400709 0.000200162 0)
(0.00385612 0.000188709 0)
(0.00371394 0.000177495 0)
(0.00358051 0.000166408 0)
(0.00345577 0.00015539 0)
(0.00333958 0.000144448 0)
(0.00323174 0.000133618 0)
(0.00313215 0.000122881 0)
(0.00304085 0.000112151 0)
(0.00295785 0.000101359 0)
(0.00288291 9.04781e-05 0)
(0.00281592 7.95042e-05 0)
(0.00275634 6.86875e-05 0)
(0.00270597 5.83424e-05 0)
(0.0026624 4.89535e-05 0)
(0.00262556 4.16154e-05 0)
(0.0026019 3.81412e-05 0)
(0.00257448 3.56372e-05 0)
(0.00255141 3.16014e-05 0)
(0.00252805 2.55112e-05 0)
(0.00250824 1.73199e-05 0)
(0.00249506 9.43554e-06 0)
(0.00248732 2.94346e-06 0)
(0.00248414 -2.28287e-06 0)
(0.00248471 -6.41925e-06 0)
(0.00248844 -9.80203e-06 0)
(0.00249489 -1.27886e-05 0)
(0.00250378 -1.57315e-05 0)
(0.00251507 -1.90734e-05 0)
(0.00252907 -2.33498e-05 0)
(0.00254637 -2.91118e-05 0)
(0.00256794 -3.69856e-05 0)
(0.00259521 -4.77709e-05 0)
(0.00263013 -6.23975e-05 0)
(0.00267503 -8.18351e-05 0)
(0.00273271 -0.000107064 0)
(0.00280638 -0.000138977 0)
(0.00289949 -0.000178133 0)
(0.00301543 -0.000224476 0)
(0.00315713 -0.000277033 0)
(0.00332622 -0.000333433 0)
(0.00352201 -0.00038935 0)
(0.00374028 -0.000437998 0)
(0.00397179 -0.000469664 0)
(0.00420046 -0.000471222 0)
(0.00440148 -0.000425749 0)
(0.00453933 -0.000312671 0)
(0.00456836 -0.000108804 0)
(0.00442286 0.000215744 0)
(0.0040398 0.000678455 0)
(0.00336352 0.00125468 0)
(0.00237954 0.00182481 0)
(0.00119944 0.0020741 0)
(0.000161652 0.00135604 0)
(1.89138e-05 -0.000287515 0)
(0.00028952 -0.000815529 0)
(0.000789772 -0.00128779 0)
(0.0014756 -0.00168651 0)
(0.00230728 -0.00199627 0)
(0.0032423 -0.00220624 0)
(0.00423923 -0.00231452 0)
(0.00526048 -0.00232734 0)
(0.00627354 -0.00225675 0)
(0.00725159 -0.00211795 0)
(0.00817329 -0.00192699 0)
(0.00902249 -0.0016995 0)
(0.00978747 -0.0014498 0)
(0.0104602 -0.00119038 0)
(0.0110359 -0.000931926 0)
(0.0115123 -0.000683318 0)
(0.0118907 -0.000451568 0)
(0.0121731 -0.000242363 0)
(0.0123449 -6.38795e-05 0)
(0.0125327 0.000107137 0)
(0.0125144 0.000273481 0)
(0.0124707 0.000398202 0)
(0.0123584 0.000507472 0)
(0.0121901 0.000597141 0)
(0.0119747 0.000667718 0)
(0.0117185 0.00072075 0)
(0.0114292 0.000757651 0)
(0.0111139 0.000780355 0)
(0.0107784 0.000791052 0)
(0.0104284 0.000791577 0)
(0.01007 0.000783649 0)
(0.0097074 0.000769049 0)
(0.00934434 0.000749302 0)
(0.00898479 0.000725688 0)
(0.00863154 0.000699367 0)
(0.00828641 0.00067137 0)
(0.00795147 0.000642501 0)
(0.00762837 0.000613362 0)
(0.00731766 0.000584413 0)
(0.00701963 0.000556006 0)
(0.00673495 0.000528369 0)
(0.00646395 0.000501684 0)
(0.00620624 0.000475967 0)
(0.00596131 0.000451111 0)
(0.00572908 0.000427072 0)
(0.00550955 0.000403829 0)
(0.00530241 0.000381309 0)
(0.00510701 0.000359357 0)
(0.00492304 0.000337806 0)
(0.0047505 0.000316556 0)
(0.0045893 0.000295597 0)
(0.00443915 0.000274906 0)
(0.00429973 0.000254416 0)
(0.00417086 0.000234043 0)
(0.00405253 0.000213755 0)
(0.00394469 0.000193593 0)
(0.00384707 0.000173597 0)
(0.00375929 0.000153754 0)
(0.00368113 0.000133923 0)
(0.00361181 0.000114368 0)
(0.00355318 9.58634e-05 0)
(0.00350568 7.91205e-05 0)
(0.00346193 6.63593e-05 0)
(0.00344003 6.08924e-05 0)
(0.003413 5.82843e-05 0)
(0.00338672 5.16333e-05 0)
(0.00335768 3.84472e-05 0)
(0.00333515 2.34497e-05 0)
(0.00332047 1.08907e-05 0)
(0.00331168 7.58061e-07 0)
(0.00330785 -7.44709e-06 0)
(0.00330814 -1.42341e-05 0)
(0.00331204 -2.02079e-05 0)
(0.00331915 -2.5994e-05 0)
(0.00332925 -3.22837e-05 0)
(0.00334251 -3.9906e-05 0)
(0.00335946 -4.98043e-05 0)
(0.00338098 -6.30205e-05 0)
(0.00340832 -8.07685e-05 0)
(0.00344323 -0.000104451 0)
(0.00348782 -0.000135521 0)
(0.00354458 -0.000175333 0)
(0.00361628 -0.000225012 0)
(0.00370578 -0.000285131 0)
(0.00381571 -0.000355237 0)
(0.00394799 -0.00043327 0)
(0.00410308 -0.000514904 0)
(0.0042789 -0.00059273 0)
(0.00446953 -0.000655429 0)
(0.00466369 -0.000687029 0)
(0.00484311 -0.000666301 0)
(0.00498038 -0.000566345 0)
(0.00503727 -0.000355842 0)
(0.0049657 3.8026e-06 0)
(0.00470273 0.000547105 0)
(0.0041933 0.00128304 0)
(0.00339876 0.00215484 0)
(0.00233031 0.0029597 0)
(0.00112556 0.00321802 0)
(0.000134416 0.00200914 0)
(1.90068e-05 -0.000443621 0)
(0.000315055 -0.00122881 0)
(0.000864811 -0.00191542 0)
(0.0016145 -0.00248657 0)
(0.00251702 -0.00292447 0)
(0.00352455 -0.0032186 0)
(0.0045924 -0.00337012 0)
(0.00568176 -0.00339053 0)
(0.00676044 -0.00329796 0)
(0.00780282 -0.00311356 0)
(0.00878906 -0.00285887 0)
(0.00970438 -0.00255411 0)
(0.0105382 -0.00221759 0)
(0.0112834 -0.001865 0)
(0.0119353 -0.00150951 0)
(0.0124915 -0.00116226 0)
(0.012951 -0.00083167 0)
(0.0133125 -0.00052659 0)
(0.0135866 -0.000259471 0)
(0.0137097 7.59859e-06 0)
(0.0138789 0.000243588 0)
(0.0139129 0.000440616 0)
(0.0138815 0.000616649 0)
(0.013777 0.000765253 0)
(0.0136134 0.000886393 0)
(0.0133987 0.000982111 0)
(0.0131403 0.00105458 0)
(0.012846 0.00110604 0)
(0.0125217 0.00113887 0)
(0.012174 0.00115553 0)
(0.0118092 0.00115841 0)
(0.0114321 0.00114973 0)
(0.0110474 0.0011315 0)
(0.0106599 0.00110568 0)
(0.0102736 0.00107408 0)
(0.00989097 0.00103823 0)
(0.00951508 0.000999374 0)
(0.00914863 0.000958613 0)
(0.00879319 0.000916909 0)
(0.00844982 0.000875026 0)
(0.00811974 0.000833455 0)
(0.00780397 0.000792514 0)
(0.00750265 0.000752477 0)
(0.00721567 0.000713516 0)
(0.00694325 0.000675654 0)
(0.00668554 0.000638853 0)
(0.00644226 0.000603023 0)
(0.00621287 0.000568022 0)
(0.00599708 0.000533722 0)
(0.00579485 0.000500047 0)
(0.00560601 0.000466935 0)
(0.00543019 0.000434263 0)
(0.00526691 0.000401931 0)
(0.00511591 0.000369918 0)
(0.00497715 0.000338242 0)
(0.00485053 0.000306952 0)
(0.00473559 0.000276104 0)
(0.00463182 0.000245726 0)
(0.00453885 0.000215799 0)
(0.00445627 0.00018618 0)
(0.00438349 0.000157038 0)
(0.00432065 0.000129827 0)
(0.00427281 0.000105746 0)
(0.00422673 8.74179e-05 0)
(0.0042078 8.1429e-05 0)
(0.00418733 8.00589e-05 0)
(0.00415822 6.90641e-05 0)
(0.0041243 4.73451e-05 0)
(0.00410083 2.63977e-05 0)
(0.00408428 1.01756e-05 0)
(0.00407343 -3.03526e-06 0)
(0.00406744 -1.40417e-05 0)
(0.00406559 -2.36439e-05 0)
(0.00406734 -3.27718e-05 0)
(0.00407236 -4.23839e-05 0)
(0.00408059 -5.35568e-05 0)
(0.00409238 -6.75716e-05 0)
(0.00410833 -8.58833e-05 0)
(0.00412937 -0.000110093 0)
(0.00415681 -0.000141944 0)
(0.00419233 -0.000183232 0)
(0.00423784 -0.000235609 0)
(0.00429532 -0.000300326 0)
(0.00436681 -0.000377812 0)
(0.00445405 -0.000467056 0)
(0.00455797 -0.000564818 0)
(0.00467799 -0.000664727 0)
(0.00481102 -0.000756228 0)
(0.00495021 -0.000823446 0)
(0.00508357 -0.000844207 0)
(0.00519233 -0.00078931 0)
(0.00524854 -0.000622208 0)
(0.0052163 -0.000300034 0)
(0.0050439 0.000224665 0)
(0.00468232 0.000986776 0)
(0.00408566 0.00198223 0)
(0.00323214 0.00311523 0)
(0.00215338 0.00409833 0)
(0.000998689 0.00430204 0)
(0.000105903 0.00258969 0)
(1.85933e-05 -0.000609059 0)
(0.000331175 -0.00167158 0)
(0.000914513 -0.00258784 0)
(0.00170622 -0.00333932 0)
(0.00265213 -0.00390678 0)
(0.00370004 -0.00428226 0)
(0.00480279 -0.00447257 0)
(0.00592107 -0.00449626 0)
(0.00702361 -0.00437855 0)
(0.00808637 -0.00414703 0)
(0.00909159 -0.00382888 0)
(0.0100265 -0.00344892 0)
(0.0108824 -0.00302905 0)
(0.011654 -0.00258794 0)
(0.0123381 -0.00214076 0)
(0.0129331 -0.00170004 0)
(0.0134394 -0.00127553 0)
(0.0138568 -0.000874994 0)
(0.0141901 -0.0005055 0)
(0.0144319 -0.000191184 0)
(0.0146266 9.65154e-05 0)
(0.0147068 0.000395336 0)
(0.0147371 0.000650186 0)
(0.0146951 0.000866542 0)
(0.0145924 0.00104678 0)
(0.0144346 0.00119378 0)
(0.014228 0.0013102 0)
(0.0139791 0.00139885 0)
(0.0136935 0.00146249 0)
(0.0133772 0.00150384 0)
(0.0130366 0.00152559 0)
(0.0126764 0.00153045 0)
(0.0123015 0.00152101 0)
(0.0119172 0.00149961 0)
(0.0115277 0.00146845 0)
(0.0111363 0.00142953 0)
(0.0107468 0.00138464 0)
(0.0103626 0.00133542 0)
(0.00998596 0.00128325 0)
(0.00961882 0.00122921 0)
(0.0092631 0.00117423 0)
(0.00892054 0.00111907 0)
(0.00859204 0.00106424 0)
(0.00827798 0.00101017 0)
(0.00797894 0.000957095 0)
(0.00769547 0.000905089 0)
(0.00742762 0.000854164 0)
(0.007175 0.000804329 0)
(0.00693746 0.000755521 0)
(0.006715 0.000707623 0)
(0.0065074 0.000660552 0)
(0.00631416 0.000614213 0)
(0.00613483 0.00056852 0)
(0.00596909 0.000523463 0)
(0.00581675 0.000479078 0)
(0.00567755 0.000435425 0)
(0.00555097 0.000392575 0)
(0.00543639 0.000350592 0)
(0.00533328 0.000309537 0)
(0.00524117 0.000269474 0)
(0.0051595 0.000230467 0)
(0.00508792 0.000192369 0)
(0.00502443 0.000156909 0)
(0.00497921 0.000126076 0)
(0.00493243 0.000102432 0)
(0.00492428 9.95303e-05 0)
(0.00490661 9.89865e-05 0)
(0.00487377 8.04855e-05 0)
(0.00483678 5.24116e-05 0)
(0.00481166 2.80808e-05 0)
(0.00479197 9.23836e-06 0)
(0.00477743 -6.44139e-06 0)
(0.00476723 -2.0001e-05 0)
(0.00476067 -3.25847e-05 0)
(0.00475729 -4.54234e-05 0)
(0.0047568 -5.98665e-05 0)
(0.00475921 -7.74749e-05 0)
(0.00476486 -0.000100008 0)
(0.00477429 -0.000129359 0)
(0.00478836 -0.000167529 0)
(0.00480812 -0.00021656 0)
(0.00483478 -0.000278315 0)
(0.00486962 -0.000354073 0)
(0.00491382 -0.000444027 0)
(0.00496828 -0.000546563 0)
(0.00503312 -0.000657319 0)
(0.00510701 -0.000767992 0)
(0.00518632 -0.000864993 0)
(0.00526392 -0.000928062 0)
(0.00532781 -0.000929126 0)
(0.00535968 -0.000831479 0)
(0.00533275 -0.000589592 0)
(0.0052116 -0.000151521 0)
(0.00495388 0.000536261 0)
(0.00451579 0.00150478 0)
(0.00386308 0.002734 0)
(0.00298815 0.00408631 0)
(0.00193781 0.00519271 0)
(0.000864239 0.00529294 0)
(8.10357e-05 0.00308944 0)
(1.85891e-05 -0.000781148 0)
(0.000344045 -0.00213513 0)
(0.000951908 -0.00329056 0)
(0.00177186 -0.00422524 0)
(0.00274309 -0.00491942 0)
(0.00380952 -0.00537002 0)
(0.00492249 -0.00559181 0)
(0.00604289 -0.00561198 0)
(0.00714073 -0.00546381 0)
(0.00819381 -0.00518189 0)
(0.00918655 -0.00479916 0)
(0.0101085 -0.00434515 0)
(0.0109531 -0.00384512 0)
(0.0117172 -0.00332041 0)
(0.0123991 -0.00278833 0)
(0.0129989 -0.00226251 0)
(0.0135176 -0.00175394 0)
(0.0139562 -0.0012716 0)
(0.0143167 -0.000822662 0)
(0.0145986 -0.000419224 0)
(0.0147928 -3.93809e-05 0)
(0.0149514 0.00031161 0)
(0.0150418 0.00063003 0)
(0.0150636 0.000907756 0)
(0.0150241 0.00114566 0)
(0.0149284 0.00134568 0)
(0.014782 0.00150972 0)
(0.0145905 0.0016403 0)
(0.0143586 0.00174016 0)
(0.0140916 0.00181219 0)
(0.0137952 0.00185931 0)
(0.0134738 0.0018844 0)
(0.0131318 0.00189028 0)
(0.0127745 0.00187964 0)
(0.0124061 0.00185498 0)
(0.0120302 0.00181868 0)
(0.0116507 0.00177293 0)
(0.0112717 0.00171968 0)
(0.0108959 0.00166073 0)
(0.0105257 0.00159758 0)
(0.0101638 0.00153154 0)
(0.00981254 0.00146377 0)
(0.00947337 0.0013952 0)
(0.00914736 0.00132644 0)
(0.00883561 0.001258 0)
(0.00853907 0.0011903 0)
(0.00825823 0.00112359 0)
(0.0079931 0.00105798 0)
(0.00774363 0.000993526 0)
(0.00750996 0.000930201 0)
(0.00729201 0.000867991 0)
(0.00708934 0.000806861 0)
(0.0069014 0.000746771 0)
(0.00672781 0.000687728 0)
(0.00656833 0.000629785 0)
(0.0064226 0.000573019 0)
(0.00628995 0.000517514 0)
(0.00616962 0.000463385 0)
(0.00606104 0.000410785 0)
(0.00596371 0.000359874 0)
(0.00587697 0.00031078 0)
(0.00580002 0.000263532 0)
(0.00573233 0.000217525 0)
(0.00567089 0.000174928 0)
(0.00563038 0.000137824 0)
(0.00557841 0.000110709 0)
(0.0055931 0.000115913 0)
(0.00556581 0.00011611 0)
(0.00552808 8.79616e-05 0)
(0.00549262 5.61797e-05 0)
(0.00546483 3.10426e-05 0)
(0.00544079 1.05998e-05 0)
(0.00542079 -6.8668e-06 0)
(0.00540403 -2.26618e-05 0)
(0.0053899 -3.82865e-05 0)
(0.00537792 -5.53599e-05 0)
(0.00536788 -7.56334e-05 0)
(0.00535978 -0.00010104 0)
(0.00535381 -0.000133703 0)
(0.00535031 -0.000175856 0)
(0.00534978 -0.000229692 0)
(0.00535279 -0.000297137 0)
(0.00535994 -0.00037945 0)
(0.00537172 -0.000476622 0)
(0.00538828 -0.000586504 0)
(0.00540913 -0.000703684 0)
(0.00543256 -0.000818094 0)
(0.00545476 -0.000913401 0)
(0.00546875 -0.00096538 0)
(0.00546299 -0.000940632 0)
(0.00542026 -0.000795677 0)
(0.00531463 -0.00047692 0)
(0.0051158 7.78872e-05 0)
(0.00478604 0.000920139 0)
(0.00429033 0.00207742 0)
(0.00360351 0.00351083 0)
(0.00272943 0.00504056 0)
(0.00172546 0.00622166 0)
(0.00074137 0.00618323 0)
(6.12525e-05 0.00351366 0)
(1.92672e-05 -0.000959527 0)
(0.000356498 -0.00261577 0)
(0.000983134 -0.00401513 0)
(0.00182139 -0.00513119 0)
(0.00280441 -0.00594558 0)
(0.00387313 -0.0064625 0)
(0.00497828 -0.00670661 0)
(0.0060815 -0.00671497 0)
(0.00715435 -0.00652979 0)
(0.00817662 -0.00619308 0)
(0.00913486 -0.00574359 0)
(0.0100211 -0.00521558 0)
(0.0108313 -0.00463781 0)
(0.0115638 -0.00403385 0)
(0.0122195 -0.00342266 0)
(0.0127999 -0.00281884 0)
(0.013307 -0.00223348 0)
(0.0137428 -0.00167541 0)
(0.0141074 -0.0011516 0)
(0.0144072 -0.000670471 0)
(0.0146176 -0.000244453 0)
(0.0147959 0.000148194 0)
(0.0149384 0.000540115 0)
(0.0150117 0.000885174 0)
(0.0150271 0.00118221 0)
(0.0149892 0.00143578 0)
(0.014902 0.00164828 0)
(0.0147703 0.00182235 0)
(0.0145978 0.00196094 0)
(0.0143886 0.00206701 0)
(0.0141473 0.00214361 0)
(0.0138776 0.00219365 0)
(0.0135833 0.00221996 0)
(0.0132691 0.00222542 0)
(0.0129391 0.00221275 0)
(0.0125966 0.00218445 0)
(0.0122456 0.00214297 0)
(0.0118902 0.00209056 0)
(0.0115335 0.00202925 0)
(0.0111781 0.00196093 0)
(0.0108272 0.00188728 0)
(0.0104836 0.00180973 0)
(0.0101493 0.00172955 0)
(0.00982558 0.00164777 0)
(0.00951428 0.0015652 0)
(0.00921693 0.00148252 0)
(0.00893433 0.00140028 0)
(0.00866679 0.00131886 0)
(0.00841465 0.00123847 0)
(0.00817834 0.00115926 0)
(0.0079579 0.00108136 0)
(0.00775296 0.00100486 0)
(0.00756307 0.000929827 0)
(0.00738789 0.000856307 0)
(0.00722707 0.00078437 0)
(0.00708015 0.000714124 0)
(0.00694641 0.000645725 0)
(0.00682506 0.000579357 0)
(0.00671539 0.000515206 0)
(0.00661677 0.000453463 0)
(0.0065285 0.000394317 0)
(0.00644975 0.000337907 0)
(0.00637952 0.000284169 0)
(0.00631661 0.000232187 0)
(0.00625946 0.000185021 0)
(0.00622171 0.000142516 0)
(0.00616868 0.000121397 0)
(0.00620048 0.000133944 0)
(0.00616384 0.000126874 0)
(0.00612063 9.25943e-05 0)
(0.00608602 6.10651e-05 0)
(0.00605352 3.70766e-05 0)
(0.00602363 1.67156e-05 0)
(0.00599605 -1.51181e-06 0)
(0.00597008 -1.90868e-05 0)
(0.00594517 -3.77471e-05 0)
(0.00592094 -5.93776e-05 0)
(0.0058971 -8.60417e-05 0)
(0.00587348 -0.000119997 0)
(0.00585004 -0.000163602 0)
(0.00582682 -0.000219136 0)
(0.00580382 -0.000288534 0)
(0.00578104 -0.000373014 0)
(0.00575837 -0.000472399 0)
(0.00573548 -0.000584096 0)
(0.00571145 -0.000701751 0)
(0.00568432 -0.000813695 0)
(0.00565032 -0.000901087 0)
(0.00560272 -0.000935952 0)
(0.00553059 -0.000879612 0)
(0.0054176 -0.000681208 0)
(0.00524171 -0.000279648 0)
(0.00498171 0.000377279 0)
(0.0045924 0.00136179 0)
(0.00405292 0.0026878 0)
(0.00334654 0.00429586 0)
(0.00248564 0.00596457 0)
(0.00153429 0.00717966 0)
(0.000636685 0.00697861 0)
(4.63058e-05 0.00387326 0)
(2.04074e-05 -0.00114425 0)
(0.000368902 -0.0031109 0)
(0.00100982 -0.00475504 0)
(0.00185788 -0.00604686 0)
(0.00284142 -0.00697214 0)
(0.00389943 -0.00754475 0)
(0.00498275 -0.00780085 0)
(0.00605418 -0.00778846 0)
(0.00708692 -0.0075591 0)
(0.00806294 -0.00716258 0)
(0.00897102 -0.00664373 0)
(0.00980544 -0.00604132 0)
(0.0105645 -0.00538767 0)
(0.011249 -0.00470861 0)
(0.0118617 -0.00402426 0)
(0.0124058 -0.0033499 0)
(0.0128851 -0.00269665 0)
(0.0133027 -0.00207254 0)
(0.0136608 -0.00148345 0)
(0.0139632 -0.000933374 0)
(0.0142059 -0.000434577 0)
(0.0143792 -1.21594e-05 0)
(0.0145479 0.000413931 0)
(0.0146543 0.00081727 0)
(0.0147075 0.00116731 0)
(0.0147166 0.00147013 0)
(0.0146821 0.00172829 0)
(0.0146072 0.0019444 0)
(0.0144936 0.00212152 0)
(0.0143441 0.00226256 0)
(0.014162 0.00237049 0)
(0.0139499 0.00244822 0)
(0.013711 0.00249846 0)
(0.0134493 0.00252397 0)
(0.0131682 0.00252756 0)
(0.0128709 0.00251178 0)
(0.0125611 0.00247911 0)
(0.0122426 0.00243202 0)
(0.0119187 0.0023728 0)
(0.011592 0.00230348 0)
(0.0112659 0.00222599 0)
(0.0109434 0.00214209 0)
(0.0106267 0.00205333 0)
(0.0103179 0.00196106 0)
(0.0100188 0.00186645 0)
(0.0097315 0.00177047 0)
(0.00945719 0.00167394 0)
(0.00919658 0.00157755 0)
(0.00895028 0.00148177 0)
(0.00871898 0.00138699 0)
(0.00850305 0.00129354 0)
(0.00830232 0.0012017 0)
(0.00811641 0.00111167 0)
(0.00794496 0.00102358 0)
(0.0077877 0.000937581 0)
(0.00764422 0.000853896 0)
(0.00751374 0.000772752 0)
(0.00739533 0.000694338 0)
(0.00728824 0.000618865 0)
(0.00719179 0.000546611 0)
(0.00710526 0.000477843 0)
(0.00702775 0.000412734 0)
(0.00695819 0.000351302 0)
(0.0068956 0.000293233 0)
(0.00683717 0.000237485 0)
(0.0067901 0.000188353 0)
(0.00674432 0.000141705 0)
(0.00672713 0.00013607 0)
(0.00673593 0.000153132 0)
(0.00669482 0.000135398 0)
(0.0066483 0.000101448 0)
(0.00660907 7.31661e-05 0)
(0.00656964 5.07264e-05 0)
(0.00653142 3.11173e-05 0)
(0.00649367 1.27792e-05 0)
(0.00645564 -6.10613e-06 0)
(0.00641679 -2.75532e-05 0)
(0.00637663 -5.3708e-05 0)
(0.00633472 -8.68418e-05 0)
(0.00629069 -0.000129332 0)
(0.00624421 -0.000183515 0)
(0.00619488 -0.000251361 0)
(0.00614216 -0.000334012 0)
(0.0060855 -0.000431116 0)
(0.00602422 -0.000539728 0)
(0.0059572 -0.000652776 0)
(0.00588243 -0.000757266 0)
(0.00579645 -0.000832225 0)
(0.00569341 -0.000846522 0)
(0.00556431 -0.000757331 0)
(0.00539273 -0.000510947 0)
(0.00516838 -5.06573e-05 0)
(0.00483411 0.000731093 0)
(0.00439782 0.00184893 0)
(0.00382591 0.00332406 0)
(0.00311004 0.00507913 0)
(0.00226876 0.00685308 0)
(0.00137007 0.00806913 0)
(0.000550846 0.00769012 0)
(3.53775e-05 0.00418006 0)
(2.17876e-05 -0.00133531 0)
(0.000380495 -0.00361771 0)
(0.00103107 -0.00550408 0)
(0.00188096 -0.00696313 0)
(0.00285503 -0.00798801 0)
(0.00389137 -0.00860462 0)
(0.00494144 -0.00886188 0)
(0.00596951 -0.00881948 0)
(0.00695059 -0.00853867 0)
(0.00786872 -0.00807714 0)
(0.00871503 -0.0074861 0)
(0.00948609 -0.0068089 0)
(0.0101824 -0.00608113 0)
(0.0108072 -0.00533085 0)
(0.0113652 -0.00457931 0)
(0.0118614 -0.00384214 0)
(0.0123012 -0.00313035 0)
(0.012689 -0.00245156 0)
(0.013029 -0.00181115 0)
(0.0133252 -0.00121195 0)
(0.0135759 -0.000666761 0)
(0.0137931 -0.000191599 0)
(0.0139323 0.000271695 0)
(0.014066 0.000727828 0)
(0.0141429 0.00111984 0)
(0.0141906 0.00146183 0)
(0.0142028 0.00175805 0)
(0.0141799 0.00201118 0)
(0.0141218 0.00222392 0)
(0.0140299 0.00239873 0)
(0.0139065 0.00253803 0)
(0.013753 0.00264439 0)
(0.0135718 0.00272038 0)
(0.0133663 0.00276847 0)
(0.0131395 0.00279122 0)
(0.0128937 0.00279128 0)
(0.0126324 0.00277112 0)
(0.0123593 0.00273319 0)
(0.0120772 0.00267987 0)
(0.0117888 0.0026134 0)
(0.0114973 0.00253584 0)
(0.011206 0.00244915 0)
(0.0109172 0.00235513 0)
(0.010633 0.00225537 0)
(0.0103557 0.00215136 0)
(0.0100875 0.00204436 0)
(0.00983003 0.0019355 0)
(0.00958425 0.0018257 0)
(0.00935108 0.00171579 0)
(0.00913157 0.00160645 0)
(0.0089263 0.00149827 0)
(0.00873528 0.00139167 0)
(0.0085583 0.00128705 0)
(0.00839513 0.00118477 0)
(0.00824563 0.00108511 0)
(0.0081094 0.000988364 0)
(0.00798563 0.000894827 0)
(0.00787338 0.000804778 0)
(0.0077719 0.000718512 0)
(0.00768048 0.000636332 0)
(0.00759827 0.000558518 0)
(0.00752433 0.000485295 0)
(0.00745754 0.00041677 0)
(0.00739663 0.000352829 0)
(0.00734072 0.000292601 0)
(0.00728367 0.000235568 0)
(0.00724576 0.000184524 0)
(0.00717506 0.000145883 0)
(0.0072083 0.000160961 0)
(0.00718151 0.000172171 0)
(0.00713819 0.000145758 0)
(0.00709384 0.000116438 0)
(0.00704898 9.37451e-05 0)
(0.00700212 7.44838e-05 0)
(0.00695401 5.68781e-05 0)
(0.0069039 3.92635e-05 0)
(0.00685123 1.96446e-05 0)
(0.00679547 -4.13228e-06 0)
(0.00673603 -3.43223e-05 0)
(0.00667226 -7.32657e-05 0)
(0.00660353 -0.000123293 0)
(0.00652913 -0.000186398 0)
(0.0064482 -0.00026367 0)
(0.0063598 -0.000354577 0)
(0.00626295 -0.000455887 0)
(0.0061564 -0.00056002 0)
(0.00603807 -0.000652943 0)
(0.00590467 -0.000711877 0)
(0.00575077 -0.000702896 0)
(0.00556763 -0.000578826 0)
(0.00534271 -0.000278247 0)
(0.00504692 0.000281316 0)
(0.00467937 0.00114 0)
(0.00420873 0.00237023 0)
(0.00361701 0.00397531 0)
(0.00289979 0.00585354 0)
(0.00208146 0.00770467 0)
(0.00123247 0.0088958 0)
(0.000481886 0.00832996 0)
(2.75324e-05 0.00444474 0)
(2.32821e-05 -0.00153231 0)
(0.000390197 -0.00413285 0)
(0.00104517 -0.00625578 0)
(0.00188913 -0.00787136 0)
(0.00284459 -0.00898334 0)
(0.00384976 -0.00963183 0)
(0.00485712 -0.00987943 0)
(0.00583253 -0.00979784 0)
(0.00675298 -0.0094584 0)
(0.00760454 -0.00892688 0)
(0.00838057 -0.00826086 0)
(0.00907999 -0.00750852 0)
(0.00970557 -0.00670859 0)
(0.0102627 -0.00589106 0)
(0.0107581 -0.00507816 0)
(0.0111985 -0.00428565 0)
(0.0115906 -0.00352407 0)
(0.0119397 -0.00280039 0)
(0.0122513 -0.00211967 0)
(0.012526 -0.00148616 0)
(0.012774 -0.000906118 0)
(0.0130187 -0.000362161 0)
(0.0131002 0.00014007 0)
(0.0132719 0.000617766 0)
(0.013379 0.00103723 0)
(0.0134687 0.00141004 0)
(0.0135269 0.00173884 0)
(0.013553 0.00202527 0)
(0.0135468 0.002271 0)
(0.0135087 0.00247785 0)
(0.0134406 0.00264774 0)
(0.0133434 0.00278267 0)
(0.0132187 0.00288487 0)
(0.0130693 0.00295667 0)
(0.0128976 0.00300039 0)
(0.0127056 0.00301848 0)
(0.0124961 0.0030134 0)
(0.0122725 0.00298756 0)
(0.0120372 0.00294333 0)
(0.0117928 0.00288297 0)
(0.0115423 0.00280868 0)
(0.0112889 0.00272252 0)
(0.0110348 0.00262646 0)
(0.0107823 0.00252232 0)
(0.0105339 0.00241178 0)
(0.0102917 0.00229637 0)
(0.0100577 0.00217747 0)
(0.00983317 0.00205637 0)
(0.00961917 0.00193416 0)
(0.00941696 0.00181181 0)
(0.00922735 0.00169015 0)
(0.00905062 0.00156988 0)
(0.00888676 0.00145166 0)
(0.00873567 0.00133601 0)
(0.00859726 0.00122339 0)
(0.00847128 0.00111422 0)
(0.008357 0.00100894 0)
(0.0082535 0.000907952 0)
(0.00815999 0.000811595 0)
(0.00807574 0.000720194 0)
(0.00799992 0.000634079 0)
(0.00793157 0.000553574 0)
(0.00786956 0.000478904 0)
(0.00781265 0.000410102 0)
(0.00775956 0.000346911 0)
(0.00770939 0.000287767 0)
(0.00765657 0.000233468 0)
(0.00761864 0.000181258 0)
(0.007561 0.000162407 0)
(0.007598 0.000190981 0)
(0.00755423 0.000191376 0)
(0.00750289 0.000165914 0)
(0.00745394 0.000143138 0)
(0.00740043 0.00012617 0)
(0.0073438 0.000111261 0)
(0.00728354 9.67347e-05 0)
(0.00721895 8.07769e-05 0)
(0.00714945 6.13152e-05 0)
(0.00707437 3.61402e-05 0)
(0.00699292 2.98462e-06 0)
(0.0069042 -4.03911e-05 0)
(0.00680731 -9.59286e-05 0)
(0.00670119 -0.000164694 0)
(0.00658462 -0.000246036 0)
(0.00645635 -0.000336481 0)
(0.00631498 -0.000428014 0)
(0.00615848 -0.000505752 0)
(0.00598369 -0.00054529 0)
(0.00578561 -0.000510077 0)
(0.00555623 -0.000349026 0)
(0.00528225 3.36154e-06 0)
(0.00494976 0.000620948 0)
(0.00454471 0.00157366 0)
(0.00404376 0.00291315 0)
(0.0034351 0.00463447 0)
(0.00271893 0.00661581 0)