/*--------------------------------*- C++ -*----------------------------------*\
  =========                 |
  \\      /  F ield         | OpenFOAM: The Open Source CFD Toolbox
   \\    /   O peration     | Website:  https://openfoam.org
    \\  /    A nd           | Version:  6
     \\/     M anipulation  |
\*---------------------------------------------------------------------------*/
FoamFile
{
    version     2.0;
    format      ascii;
    class       volScalarField;
    location    "0";
    object      p;
}
// * * * * * * * * * * * * * * * * * * * * * * * * * * * * * * * * * * * * * //

dimensions      [0 2 -2 0 0 0 0];

internalField   nonuniform List<scalar> 
13046
(
0.390185
0.363309
0.407102
0.395964
0.406417
0.37049
0.380981
0.373376
0.411129
0.215121
0.10146
0.376902
0.384622
0.33058
0.401983
0.260866
0.37556
0.131517
0.412722
0.395562
0.384119
0.253871
0.377916
0.127696
0.392308
0.385915
0.401868
0.373238
0.332742
0.402812
0.399109
0.343603
0.400296
0.401
0.407241
0.382411
0.39899
0.409601
0.390816
0.396653
0.392365
0.34049
0.394937
0.410822
0.399611
0.396349
0.402239
0.397995
0.38131
0.361118
0.407874
0.360479
0.396535
0.308341
0.367232
0.296935
0.399654
0.217906
0.345378
0.379043
0.336786
0.310003
0.399535
0.38407
0.194838
0.285081
0.354786
0.224671
0.374871
0.363985
0.235002
0.375535
0.199127
0.336696
0.378649
0.412481
0.405401
0.37207
0.38146
0.315718
0.191491
0.388422
0.380877
0.40145
0.381312
0.175209
0.268293
0.262967
0.387107
0.214733
0.383636
0.226194
0.213911
0.34312
0.330789
0.277244
0.266218
0.392075
0.394096
0.388804
0.262296
0.227411
0.396939
0.405882
0.392337
0.408426
0.320436
0.372167
0.396097
0.382464
0.325427
0.144859
0.372538
0.02048
0.386942
0.344441
0.399434
0.333804
0.342729
0.246059
0.387948
0.26852
0.388961
0.201407
0.0794611
0.375539
0.367689
0.291745
0.401246
0.394225
0.392921
0.338119
0.384163
0.23685
0.237104
0.310627
0.243621
0.390624
0.394083
0.334963
0.397276
0.355339
0.364664
0.403322
0.392867
0.370734
0.327721
0.406306
0.334356
0.380854
0.334669
0.29207
0.397617
0.415641
0.357711
0.379488
0.341022
0.297814
0.329832
0.295387
0.398272
0.398184
0.355433
0.347022
0.401111
0.208655
0.377783
0.10928
0.169552
0.37344
0.0401402
0.305933
0.22828
0.38936
0.395157
0.302119
0.389267
0.357097
0.401585
0.355991
0.38118
0.139601
0.215262
0.395623
0.316319
0.383949
0.413898
0.34755
0.374116
0.362617
0.366128
0.40253
0.323306
0.40643
0.369931
0.308886
0.398515
0.258181
0.383881
0.186166
0.388113
0.257517
0.24128
0.230637
0.205002
0.382748
0.352745
0.284219
0.389397
0.371945
0.320224
0.376357
0.191196
0.181277
0.226888
0.382554
0.393089
0.409869
0.390238
0.378562
0.338112
0.400365
0.388328
0.247705
0.247598
0.364796
0.33189
0.408954
0.37578
0.0706922
0.171533
0.390325
0.284213
0.345004
0.246509
0.223941
0.386095
0.320171
0.341123
0.403943
0.361395
0.296836
0.400798
0.280944
0.256145
0.385434
0.283868
0.317042
0.392856
0.375691
0.0697559
0.156152
0.401403
0.386979
0.312972
0.166103
0.37084
-0.0117453
0.408256
0.38904
0.388659
0.330918
0.331528
0.334898
0.345521
0.406078
0.399042
0.374678
0.305447
0.17231
0.370994
0.306096
0.395408
0.283215
0.296507
0.393812
0.318987
0.245214
0.38906
0.400106
0.392917
0.410494
0.310254
0.327703
0.399446
0.373568
0.291756
0.394365
0.367429
0.36606
0.403429
0.380289
0.299764
0.308912
0.313466
0.397595
0.302805
0.387451
0.23605
0.408344
0.3823
0.328312
0.398337
0.286926
0.333858
0.347706
0.254081
0.384594
0.397525
0.364771
0.303569
0.335937
0.331116
0.242786
0.383492
0.236898
0.386567
0.380836
0.151301
0.22826
0.348913
0.281009
0.391524
-0.04443
0.371062
0.107383
0.377769
0.405412
0.373441
0.347221
0.320741
0.400126
0.386346
0.272812
0.20669
0.361094
0.285089
0.397458
0.265419
0.254565
0.386616
0.353883
0.404851
0.339733
0.311558
0.399234
0.345707
0.407637
0.278341
0.37708
0.150818
0.360007
0.269354
0.391295
0.331239
0.301152
0.395562
0.348732
0.356542
0.406692
0.32366
0.362243
0.40262
0.39224
0.362425
0.407137
0.392023
0.290419
0.34023
0.245692
0.192581
0.383877
0.270692
0.253582
0.389273
0.36753
0.372641
0.258595
0.325959
0.333867
0.226681
0.20938
0.376918
0.380062
0.371243
-0.03
0.126042
0.179305
0.371277
0.00181903
0.324597
0.326085
0.395163
0.382083
0.252611
0.16682
0.35682
0.354149
0.257878
0.246671
0.384954
0.382307
0.378111
0.154444
0.191183
0.154485
0.369844
-0.0331784
0.381976
0.409142
0.402933
0.145744
-0.0041854
0.372085
0.390489
0.300771
0.385807
0.219851
0.150082
0.381633
-0.0257434
0.372499
0.0598637
0.399692
0.390538
0.351317
0.379587
0.395808
0.407184
0.206946
0.375639
0.0715264
0.373072
0.388311
0.407007
0.387546
0.408443
0.405001
0.395541
0.270089
0.346299
0.367419
0.401472
0.408103
0.380668
0.3752
0.404618
0.374218
0.265427
0.371322
0.377873
0.379827
0.126987
0.125101
0.239362
0.234175
0.226606
0.182081
0.382373
0.378712
0.366171
0.239144
0.394315
0.380862
0.323636
0.275847
0.311315
0.387403
0.0330241
0.37288
0.0895009
0.383282
0.221968
0.199524
0.178605
0.37476
0.061188
0.372889
-0.0444502
0.0561743
-0.0770304
0.371949
0.0866771
0.295563
0.305949
0.392812
0.108186
0.37543
0.147588
0.296468
0.241957
0.390635
0.2449
0.370558
0.0836314
0.378956
0.402892
0.364167
0.170887
0.380199
0.204067
0.279854
0.388457
0.318897
0.290194
0.283944
0.39531
0.373842
-0.131028
0.00887071
-0.0185588
0.371582
0.0891171
0.385826
0.407557
0.364827
0.146043
0.188899
0.379018
0.378109
0.171055
0.142551
0.252351
0.381057
0.166465
0.377322
0.17957
0.295277
0.382429
0.258189
0.373115
0.229294
0.344748
0.38464
0.375492
0.285633
0.137287
0.382784
0.377963
0.310742
0.298034
0.392901
0.395431
0.386873
0.314093
0.391318
0.365551
0.249056
0.386178
0.279799
0.267758
0.390567
0.173743
0.225491
0.383624
0.388829
0.271602
0.25951
-0.0756845
0.371587
0.10482
0.403714
0.399368
0.40064
0.347215
0.404518
0.354094
0.380213
0.374075
0.383264
0.267074
0.384573
0.289757
-0.0162582
0.372174
0.0623905
0.154279
0.201251
0.380353
0.390404
0.369689
0.300894
0.294553
0.263963
0.388582
0.377644
0.187949
0.304947
0.0259338
0.129204
0.373742
0.0485579
0.136645
0.374309
0.355521
0.257745
0.389142
0.410123
0.377127
0.338611
0.243395
0.379489
0.143497
0.287844
0.292691
0.395461
0.387253
0.209274
0.297704
0.378307
0.384685
0.292114
0.325234
0.347823
0.40092
0.399352
0.388035
0.331845
0.3793
0.135923
0.227992
0.320631
0.236338
0.387112
0.403844
0.395492
0.354126
0.270456
0.372428
0.116577
0.384306
0.337411
0.39963
0.3687
0.365489
0.410024
0.300758
0.294524
0.3943
0.204402
0.370984
0.0338585
0.217134
0.370575
0.0427059
0.385437
0.200932
0.298504
0.310328
0.353178
0.396465
0.36897
0.00647632
0.183973
0.387972
0.222417
0.285065
0.372442
-0.0628011
0.0363503
0.0701783
-0.0954164
0.3708
0.378107
0.150216
0.287746
0.377658
0.0999639
0.192443
0.261134
0.271033
0.377403
0.142026
0.380041
0.165069
0.275475
0.231721
0.388574
0.393874
0.305976
0.257505
0.404774
0.402487
0.360895
0.282727
0.250838
0.39147
0.392128
0.287212
0.261306
0.297185
0.375207
0.146454
0.376474
0.254767
0.383283
0.383247
0.29166
0.381774
0.311235
0.288981
0.396979
0.30485
0.283156
0.395982
0.405962
0.389541
0.365249
0.377351
0.2873
0.397595
0.380784
0.179068
0.198245
0.125281
0.374514
0.0545875
0.108311
0.374428
0.0559477
0.393583
0.39283
0.326441
0.00956297
0.37312
0.105181
0.311636
0.385704
0.213043
0.372597
0.0154819
0.0842817
0.395945
0.408039
0.378358
0.36181
0.320308
0.400318
0.355803
0.312414
0.398533
0.376859
0.120338
0.164995
0.285034
0.294746
0.394491
0.372504
0.259357
0.108476
0.34855
0.311222
0.401122
0.406912
0.405931
0.366139
0.120119
0.177651
0.377984
0.387073
0.208274
0.285201
0.197942
0.183093
0.372712
0.372291
0.048259
0.0301578
0.342477
0.342086
0.40499
0.305678
0.314702
0.393619
0.373161
0.371318
0.412166
0.0810246
0.142525
0.0869273
0.375549
0.140127
0.375067
0.330554
0.274752
0.397212
0.177215
0.160465
0.107554
0.0895091
0.377879
0.376382
0.312393
0.319884
0.40252
0.358626
0.336233
0.402445
0.232076
0.372405
0.0729455
0.355002
0.328216
0.403275
0.37299
0.354559
0.406624
0.204082
0.371105
0.0518744
0.354757
0.287445
0.39434
0.331238
0.265311
0.38987
0.382793
0.276006
0.380556
0.250565
0.383478
0.235784
0.372757
-0.10886
0.0286931
0.346209
0.322043
0.400756
0.242424
0.374566
0.104297
0.367147
0.262619
0.386583
0.108645
0.369163
-0.0584536
0.408372
0.402715
0.376144
0.351354
0.376887
0.343883
0.37638
0.371702
0.409996
0.400674
0.407429
0.385148
0.3537
0.395079
0.349269
0.353859
0.34396
0.408647
0.359586
0.346946
0.407909
0.374207
0.0688548
0.115501
0.390885
0.324859
0.389364
0.194018
0.115813
0.37855
0.310033
0.300785
0.273751
0.255721
0.393189
0.390412
0.386087
0.342757
0.394659
0.364644
0.270414
0.384195
0.328787
0.2947
0.399466
0.404331
0.383185
0.400199
0.294745
0.260631
0.392554
0.401061
0.395558
0.365549
0.324721
0.314903
0.401527
0.362781
0.283953
0.385031
0.403304
0.404553
0.375106
0.405939
0.375624
0.40151
0.40519
0.384362
0.409823
0.368566
0.401937
0.355488
0.383507
0.38052
0.320796
0.31792
0.39754
0.394083
0.37937
0.185941
0.300765
0.389777
0.276865
0.338866
0.381159
0.382117
0.170786
0.17895
0.286976
0.283826
0.393785
0.369534
0.290743
0.403163
0.404498
0.392027
0.29367
0.247335
0.391271
0.400634
0.396253
0.337353
0.358733
0.278098
0.386149
0.321692
0.322899
0.204514
0.38319
0.214872
0.384171
0.318635
0.265597
0.392628
0.125606
-0.0377833
0.369881
0.362642
0.27416
0.387237
0.382295
0.384801
0.369842
0.26824
0.378718
0.278193
0.27917
0.271951
0.391466
0.367609
0.2807
0.386516
0.394811
0.367926
0.286637
0.382427
0.389164
0.375109
0.389304
0.302116
0.296467
0.38157
0.381296
0.28507
0.319529
0.276117
0.395572
0.403653
0.395943
0.369537
0.220646
0.374454
0.0845545
0.392867
0.370768
0.27665
0.363872
0.354374
0.279515
0.270874
0.386712
0.391681
0.375137
0.104239
0.234847
0.233276
0.373821
0.0827693
0.219569
0.372915
0.0717533
0.312209
0.383473
0.205339
0.372001
0.293984
0.389089
0.157613
0.204904
0.326615
0.161904
0.28575
0.0513073
0.244578
0.190751
0.124405
0.275752
0.272802
0.105927
0.155203
0.276001
0.183296
0.156038
0.167454
0.182142
0.200058
0.247114
0.203031
0.177469
0.285419
0.369196
0.335722
0.210394
0.296549
0.108987
0.220041
0.146961
0.117604
0.23901
0.204824
0.191218
0.131943
0.215128
0.320436
0.283556
0.174913
0.233519
0.168527
0.370299
0.145125
0.27408
0.305858
0.167351
0.173696
0.156207
0.108868
0.145575
0.338102
0.201759
0.158649
0.172303
0.117611
0.332806
0.250099
0.208224
0.157635
0.268646
0.143336
0.149317
0.336378
0.201215
0.207851
0.251981
0.214951
0.362325
0.284667
0.284199
0.0955245
0.119475
0.174493
0.259694
0.110392
0.188772
0.209898
0.126707
0.262318
0.304054
0.182476
0.198779
0.112211
0.147714
0.160806
0.269591
0.160973
0.161696
0.18182
0.340701
0.155515
0.267714
0.334965
0.192412
0.155333
8.73763e-05
0.138373
0.159178
0.155037
0.0915913
0.238992
0.289064
0.31424
0.365309
0.150027
0.153923
0.107351
0.165508
0.140442
0.318715
0.293312
0.244122
0.133
0.118298
0.239125
0.293955
0.177195
0.161955
0.0890627
0.177141
0.189888
0.348292
0.357989
0.262593
0.213865
0.180353
0.109761
0.352265
0.131407
0.256976
0.0911659
0.335799
0.114777
0.110864
0.146506
0.302878
0.181525
0.0635455
0.144735
0.244031
0.150834
0.271201
0.243362
0.159421
0.304548
0.173574
0.140593
0.311627
0.144664
0.183093
0.106675
0.221951
0.173051
0.308702
0.266738
0.171099
0.260574
0.272406
0.32428
0.211222
0.172665
0.157387
0.277731
0.132348
0.230698
0.111759
0.36506
0.179263
0.311378
0.350313
0.20882
0.356024
0.312681
0.322327
0.129575
0.0858215
0.107958
0.326881
0.12905
0.118141
0.127245
0.120224
0.181211
0.171661
0.213991
0.350825
0.264567
0.16671
0.269077
0.164984
0.367485
0.0942021
0.299335
0.161389
0.0824971
0.339079
0.353046
0.156763
0.158958
0.364188
0.221727
0.171009
0.139078
0.260444
0.317222
0.26442
0.145328
0.158099
0.285482
0.215667
0.142015
0.235512
0.122112
0.123717
0.180271
0.294383
0.0925856
0.183582
0.289816
0.158792
0.0887103
0.175792
0.16137
0.175811
0.233067
0.23926
0.146412
0.115191
0.139554
0.249367
0.259051
0.159955
0.238764
0.17505
0.130856
0.222444
0.168448
0.0741151
0.263697
0.310298
0.210684
0.341283
0.319569
0.36947
0.156054
0.0621059
0.18423
0.172116
0.175213
0.0991736
0.227801
0.334727
0.260865
0.218841
0.140298
0.168072
0.2743
0.202772
0.253604
0.145804
0.190112
0.165304
0.113895
0.145992
0.159842
0.154548
0.134047
0.241176
0.213827
0.17148
0.24713
0.165389
0.179035
0.14696
0.174798
0.148843
0.164057
0.217657
0.0947764
0.050967
0.194143
0.102094
0.0824113
0.217107
0.0985468
0.0859656
0.308348
0.242124
0.145582
0.268776
0.122181
0.237561
0.235902
0.123488
0.160268
0.292829
0.184257
0.274091
0.0450378
0.137531
0.311291
0.16268
0.145707
0.0389644
0.0928251
0.0800075
0.0969556
0.169282
0.247906
0.128643
0.0816246
0.137176
0.160989
0.367956
0.149218
0.260203
0.232146
0.10788
0.189087
0.143529
0.113183
0.234084
0.176379
0.335114
0.257937
0.143396
0.169648
0.203903
0.369588
0.271602
0.321109
0.266122
0.170789
0.212415
0.179077
0.13249
0.0974184
0.158184
0.17448
0.254524
0.152898
0.103578
0.159601
0.181106
0.155721
0.168985
0.297449
0.172421
0.164069
0.329968
0.304445
0.146468
0.219177
0.318891
0.119684
0.0937465
0.172284
0.129129
0.114096
0.315261
0.142705
0.18667
0.324286
0.0871517
0.216488
0.154436
0.210745
0.173198
0.153766
0.00372373
0.186917
0.106738
0.133271
0.169228
0.165912
0.269614
0.335326
0.154008
0.217354
0.184989
0.142529
0.0708769
0.292522
0.241812
0.137027
0.10572
0.227868
0.104144
0.161719
0.147406
0.139597
0.284784
0.333604
0.167204
0.266688
0.365362
0.296282
0.299606
0.325329
0.170469
0.162906
0.11606
0.366474
0.292731
0.311023
0.153017
0.159628
0.087353
0.273968
0.178214
0.145147
0.312116
0.24997
0.136792
0.184915
0.151637
0.158462
0.151771
0.168953
0.173333
0.126442
0.169703
0.0967232
0.188583
0.127152
0.25017
0.20266
0.0932025
0.318892
0.329505
0.264665
0.168169
0.219931
0.0962993
0.272515
0.201546
0.0993368
0.316487
0.069693
0.336839
0.107317
0.181805
0.196952
0.261741
0.28365
0.155864
0.349415
0.157305
0.299693
0.18337
0.249102
0.164546
0.150433
0.156117
0.304608
0.195144
0.364342
0.25089
0.0950955
0.151893
0.240203
0.0828375
0.168996
0.184423
0.128831
0.340871
0.133107
0.121846
0.281565
0.157704
0.335036
0.358774
0.160827
0.365463
0.345813
0.299675
0.313622
0.22517
0.107628
0.142966
0.175475
0.291026
0.178034
0.0713101
0.348223
0.128126
0.168967
0.138633
0.323446
0.36647
0.139988
0.29645
0.233668
0.335388
0.188306
0.270604
0.157585
0.350344
0.361892
0.256105
0.143211
0.286555
0.173347
0.215678
0.203756
0.190185
0.233332
0.163634
0.0744848
0.11636
0.195584
0.243363
0.219056
0.312887
0.135965
0.173957
0.248123
0.120098
0.327926
0.148506
0.157035
0.325365
0.305024
0.225293
0.353624
0.146523
0.161056
0.274179
0.208516
0.20106
0.179281
0.156906
0.239509
0.257189
0.156996
0.151239
0.222018
0.094746
0.124811
0.335834
0.3631
0.363727
0.188976
0.370139
0.365453
0.343913
0.0722393
0.234211
0.231324
0.353064
0.171449
0.154321
0.110523
0.142028
0.0581471
0.347856
0.181094
0.186917
0.273199
0.255166
0.165767
0.158312
0.365137
0.349839
0.319002
0.258598
0.14453
0.266377
0.245359
0.168277
0.195874
0.119592
0.141448
0.21397
0.193409
0.165049
0.335993
0.335328
0.0728614
0.302253
0.157207
0.146876
0.179867
0.332768
0.18047
0.258101
0.181796
0.320452
0.169276
0.185018
0.361808
0.0914222
0.0915235
0.148043
0.13148
0.0559238
-0.0118221
0.139392
0.0651091
0.198501
0.0739039
0.127355
0.192637
0.131648
0.139301
0.169559
0.11648
0.000678983
0.346412
0.302939
0.169148
0.104977
0.307295
0.148512
0.154269
0.359834
0.145892
0.359411
0.184315
0.30834
0.189118
0.107851
0.121853
0.217962
0.218193
0.199027
0.107728
0.173483
0.131406
0.133609
0.161741
0.094731
0.117396
0.34532
0.144622
0.255337
0.278805
0.172995
0.285228
0.280686
0.109543
-0.00710427
0.183616
0.0991258
0.0594996
0.262183
0.265104
0.168626
0.241662
0.165556
0.362267
0.343804
0.175552
0.160679
0.351664
0.314142
0.235421
0.236784
0.166508
0.365019
0.214811
0.0723708
0.324097
0.296447
0.336685
0.217526
0.145415
0.176628
0.266572
0.236029
-0.0449796
0.371074
0.182828
0.145008
0.200725
0.314696
0.36161
0.360861
0.241795
0.202661
0.284792
0.315237
0.3274
0.259354
0.293163
0.119368
0.153163
0.229422
0.116271
0.11896
0.0912099
0.181588
0.280436
0.0992759
0.209861
0.156902
0.295024
0.361098
0.178307
0.106938
0.0825896
0.270837
0.159336
0.139394
0.0933968
0.331425
0.220345
0.225036
0.0978899
0.229897
0.142964
0.152036
0.270538
0.277226
0.334319
0.366314
0.140039
0.318283
0.0755941
0.326206
0.333096
0.33597
0.286267
0.128138
0.128066
0.16806
0.0692773
0.211727
0.0911966
0.235465
0.102403
0.310433
0.171333
0.078487
0.305045
0.278548
0.188654
0.193394
0.25362
0.331929
0.221233
0.20182
0.0778031
0.296322
0.213524
0.348809
0.0610456
0.193406
0.324943
0.266359
0.354424
0.272056
0.174302
0.0430679
0.078209
0.191157
0.103232
0.346757
0.0679912
0.167444
0.189291
0.145858
0.290169
0.0655389
0.327022
0.26611
0.227915
0.0788647
0.250975
0.147703
0.179561
0.184578
0.190414
0.157683
0.143123
0.283172
0.128075
0.36862
0.158861
0.195955
0.249245
0.272652
0.34654
0.15694
0.161214
0.138716
0.201267
0.150277
0.341061
0.139707
0.206621
0.166516
0.298583
0.129065
0.215566
0.115178
0.361801
0.0687601
0.126209
0.161153
0.304032
0.0816252
0.0989121
0.124292
0.106296
0.334192
0.202961
0.261664
0.308542
0.252197
0.206531
0.36209
0.207745
0.277225
0.245929
0.217698
0.0905513
0.224253
0.178513
0.165158
0.226577
0.131382
0.0950112
0.203801
0.171678
0.131116
0.293992
0.203157
0.258043
0.178434
0.343718
0.189611
0.188594
0.247414
0.101151
0.135319
0.165749
0.217556
0.223774
0.23485
0.331164
0.270892
0.288156
0.211852
0.31863
0.348762
0.345235
0.216724
0.210685
0.232928
0.10885
0.357122
0.312519
0.299124
0.192504
0.12439
0.0892412
0.232565
0.26695
0.145116
0.298773
0.312599
0.237206
0.156652
0.218383
0.166548
0.147228
0.192208
0.157741
0.224335
0.0924413
0.228565
0.198724
0.176404
0.0663283
0.224475
0.207797
0.256115
0.167566
0.219794
0.329979
0.340159
0.222024
0.185697
0.288739
0.206792
0.136783
0.139875
0.180577
0.103209
0.33019
0.199328
0.213031
0.267199
0.260721
0.248331
0.128468
0.36681
0.251428
0.146803
0.200118
0.199151
0.288508
0.326563
0.253256
0.233045
0.0801009
0.130213
0.173862
0.234518
0.207152
0.220827
0.155429
0.337587
0.240375
0.287573
0.316032
0.217964
0.149441
0.217411
0.356303
0.131968
0.0768008
0.217173
0.362256
0.160275
0.178432
0.283336
0.267711
0.302258
0.193575
0.0832534
0.232156
0.111361
0.163698
0.301597
0.18391
0.113017
0.142336
0.159734
0.240238
0.171063
0.162586
0.321358
0.149617
0.362842
0.299661
0.104344
0.0547301
0.203123
0.275348
0.314361
0.188443
0.1738
0.146439
0.169343
0.192919
0.365999
0.325
0.272534
0.175599
0.0871563
0.332664
0.367401
0.336341
0.289766
0.323426
0.214701
0.120014
0.0656649
0.0768942
0.34603
0.204132
0.131335
0.179467
0.366167
0.166229
0.155866
0.0996462
0.190683
0.138011
0.364899
0.231118
0.27284
0.322346
0.312266
0.164445
0.24303
0.211024
0.26621
0.124165
0.239799
0.154187
0.340747
0.112677
0.164512
0.125968
0.175739
0.328822
0.17477
0.299514
0.317651
0.324071
0.118175
0.208272
0.174543
0.152544
0.33601
0.217932
0.221639
0.228435
0.0572861
0.180781
0.33812
0.246856
0.33883
0.0711195
0.128411
0.164984
0.344775
0.143592
0.195809
0.132475
0.128998
0.177652
0.343984
0.18762
0.176507
0.0994413
0.362855
0.356867
0.0573624
0.335698
0.170959
0.119519
0.128997
0.201276
0.107901
0.246667
0.176855
0.163935
0.178342
0.319935
0.191987
0.29941
0.185303
0.119446
0.179323
0.0703828
0.0893926
0.183768
0.171518
0.228514
0.129892
0.190999
0.315886
0.240282
0.164579
0.103823
0.324076
0.186018
0.195437
0.373388
0.225408
0.162351
0.158225
0.128763
0.349579
0.168648
0.192124
0.23897
0.106819
0.32752
0.116097
0.318916
0.206857
0.278909
0.135025
0.292524
0.185526
0.108295
0.135732
0.207449
0.328661
0.0514764
0.152714
0.145478
0.348028
0.3668
0.141701
0.156698
0.244171
0.349945
0.190076
0.333261
0.311805
0.297663
0.281236
0.218238
0.259208
0.250631
0.337499
0.196825
0.21597
0.143204
0.159581
0.198519
0.132208
0.350595
0.12642
0.331413
0.195202
0.344951
0.159522
0.35498
0.276228
0.31672
0.346142
0.330295
0.372128
0.172153
0.318216
0.205605
0.167205
0.155716
0.128905
0.338659
0.127358
0.226665
0.239787
0.180746
0.241912
0.152351
0.337617
0.200015
0.288084
0.0679631
0.143799
0.172658
0.365701
0.146658
0.251359
0.164019
0.173653
0.112977
0.182282
0.171882
0.292653
0.341797
0.0977324
0.222048
0.167399
0.163044
0.30428
0.145359
0.157628
0.35211
0.0767183
0.222376
0.267503
0.328262
0.359865
0.161426
0.150421
0.108957
0.171375
0.151884
0.166744
0.28403
0.165583
0.116968
0.177163
0.209158
0.167907
0.157751
0.145586
0.20687
0.105618
0.2862
0.277651
0.166268
0.2876
0.112881
0.101264
0.141513
0.0888884
0.353034
0.172926
0.167067
0.154927
0.312648
0.336381
0.21373
0.285028
0.156743
0.147451
0.21266
0.169241
0.151038
0.337641
0.231399
0.258259
0.356059
0.292716
0.202541
0.346696
0.0928912
0.216358
0.212258
0.236458
0.1774
0.343797
0.16257
0.230589
0.198039
0.167729
0.13425
0.153991
0.276084
0.305955
0.320528
0.21475
0.223698
0.345687
0.295726
0.183275
0.227604
0.118297
0.167335
0.297723
0.0984826
0.315855
0.162341
0.323975
0.369037
0.340087
0.153623
0.317144
0.31323
0.0978927
0.345218
0.152516
0.343487
0.294109
0.165141
0.133584
0.233761
0.17189
0.170796
0.152786
0.297745
0.167352
0.348933
0.12412
0.162605
0.150619
0.122958
0.167016
0.306419
0.362101
0.120824
0.287096
0.206319
0.230795
0.189389
0.242923
0.332342
0.296817
0.161765
0.326484
0.302901
0.359499
0.124479
0.133719
0.155752
0.28403
0.353452
0.308332
0.192492
0.355429
0.203787
0.0953188
0.13159
0.0516482
0.201873
0.110244
0.359668
0.363461
0.221933
0.373118
0.29852
0.207352
0.352228
0.113766
0.342533
0.165111
0.336781
0.175194
0.12858
0.280982
0.221688
0.343882
0.332125
0.335596
0.137943
0.13547
0.0814908
0.317782
0.296001
0.143313
0.214032
0.297683
0.0768036
0.155507
0.137505
0.155216
0.232837
0.154068
0.212201
0.277992
0.209814
0.220896
0.277956
0.169847
0.18046
0.230793
0.211676
0.171933
0.319607
0.344497
0.142603
0.293416
0.0733583
0.151898
0.325205
0.288667
0.149364
0.339505
0.114964
0.277304
0.188487
0.190846
0.324031
0.17697
0.285723
0.283914
0.261062
0.367686
0.263996
0.108181
0.245397
0.196467
0.285815
0.364665
0.259632
0.204636
0.15072
0.192055
0.325346
0.125822
0.31063
0.142584
0.23648
0.293282
0.279118
0.199169
0.322241
0.355156
0.178338
0.170637
0.218617
0.136752
0.113975
0.214148
0.283355
0.143542
0.104443
0.145703
0.0998033
0.273576
0.202123
0.288163
0.160638
0.336559
0.211991
0.313586
0.360164
0.14659
0.330856
0.180284
0.218696
0.214459
0.319939
0.155106
0.185929
0.217895
0.129565
0.172432
0.130256
0.110072
0.0730891
0.355399
0.365521
0.144396
0.158239
0.282634
0.0908011
0.143171
0.167057
0.266774
0.276412
0.0877695
0.0726953
0.332298
0.160162
0.237709
0.158364
0.103299
0.13094
0.227605
0.31341
0.238715
0.0989169
0.33807
0.312395
0.141301
0.233633
0.163736
0.359595
0.172969
0.192218
0.113436
0.253502
0.344236
0.239278
0.224102
0.14995
0.202113
0.242556
0.353041
0.372998
0.154864
0.356855
0.15532
0.220575
0.22386
0.183407
0.164803
0.31952
0.175917
0.226999
0.138466
0.122543
0.185953
0.131543
0.264169
0.337314
0.138163
0.154826
0.219402
0.166056
0.151591
0.0645135
0.17158
0.320433
0.0873742
0.140716
0.279172
0.216933
0.194923
0.251096
0.307558
0.129306
0.135726
0.307746
0.187617
0.136889
0.207875
0.318644
0.253727
0.219986
0.156101
0.156081
0.150751
0.353779
0.308032
0.363068
0.191532
0.263075
0.121876
0.206839
0.314924
0.0954342
0.104058
0.277531
0.310248
0.0957931
0.163567
0.155167
0.128866
0.154487
0.371861
0.195045
0.161183
0.223162
0.150868
0.28136
0.231911
0.119186
0.166485
0.2944
0.20131
0.355601
0.109437
0.156936
0.255603
0.242088
0.180684
0.237338
0.130559
0.359128
0.338338
0.257385
0.322696
0.14069
0.319008
0.247244
0.253532
0.34681
0.0907588
0.16653
0.362329
0.249199
0.0869112
0.138237
0.307181
0.360359
0.203408
0.283742
0.154177
0.109733
0.139848
0.0775627
0.314009
0.151159
0.203978
0.348705
0.147493
0.132905
0.150283
0.22167
0.161647
0.151788
0.152959
0.122056
0.200614
0.294899
0.345468
0.274373
0.172449
0.165897
0.0807285
0.159719
0.246447
0.225952
0.265257
0.28069
0.166075
0.190544
0.305033
0.312556
0.361726
0.325223
0.349321
0.202081
0.113061
0.139305
0.122456
0.353644
0.219272
0.154294
0.345502
0.119315
0.299636
0.277783
0.16696
0.159455
0.167764
0.155402
0.310902
0.169189
0.266903
0.201288
0.343727
0.230898
0.367093
0.138329
0.200472
0.138257
0.068035
0.171299
0.291519
0.130687
0.0461777
0.21833
0.339776
0.286858
0.151777
0.110561
0.143123
0.120967
0.161233
0.127113
0.182332
0.125893
0.278785
0.144005
0.161167
0.330013
0.206301
0.253846
0.304006
0.170074
0.201665
0.134103
0.293532
0.158633
0.171996
0.195688
0.132937
0.107565
0.157894
0.146836
0.286743
0.363038
0.318094
0.225012
0.272118
0.0997618
0.356723
0.236412
0.283929
0.157988
0.275935
0.142847
0.173105
0.298255
0.343242
0.289735
0.224113
0.17531
0.366213
0.181565
0.30263
0.351745
0.260136
0.184656
0.0957933
0.30205
0.232636
0.126088
0.251075
0.22794
0.34123
0.148248
0.349354
0.362512
0.182136
0.140117
0.350668
0.113239
0.128219
0.173656
0.125126
0.173324
0.134376
0.111436
0.199579
0.162336
0.140882
0.162306
0.225627
0.132984
0.144867
0.245542
0.204855
0.112785
0.337181
0.364185
0.353748
0.157971
0.103997
0.368715
0.106343
0.197182
0.148132
0.163651
0.156309
0.277311
0.167835
0.161063
0.101378
0.0941664
0.127194
0.171623
0.0985402
0.196739
0.217762
0.187498
0.343916
0.223481
0.2618
0.18705
0.308988
0.148433
0.169653
0.375284
0.175245
0.226747
0.110961
0.261628
0.364691
0.159283
0.24645
0.230771
0.130665
0.153089
0.145243
0.126442
0.280423
0.13009
0.189225
0.161264
0.182323
0.145108
0.146315
0.196661
0.162777
0.16386
0.362584
0.195952
0.186867
0.21852
0.341598
0.172618
0.095954
0.297091
0.113459
0.179796
0.156658
0.205572
0.147175
0.17627
0.20561
0.360135
0.315424
0.098111
0.162114
0.0966103
0.151311
0.0840279
0.130065
0.176424
0.137599
0.17646
0.247531
0.372294
0.168781
0.274715
0.213701
0.353346
0.166516
0.365277
0.239177
0.121783
0.247448
0.281926
0.159816
0.314362
0.157127
0.321508
0.153735
0.0484092
0.192943
0.370675
0.361248
0.278913
0.25308
0.271976
0.105629
0.143943
0.272815
0.366474
0.0639905
0.205816
0.157632
0.149282
0.18812
0.142557
0.118659
0.151722
0.129977
0.161959
0.159478
0.190781
0.366707
0.310911
0.0856226
0.295453
0.137584
0.145482
0.30047
0.156485
0.178667
0.264176
0.079108
0.14054
0.202707
0.317046
0.123162
0.147188
0.176873
0.243902
0.121429
0.34236
0.0982642
0.16898
0.175384
0.149901
0.254862
0.246752
0.343314
0.153453
0.289107
0.215284
0.241471
0.15446
0.254977
0.135573
0.113438
0.0761479
0.235859
0.187255
0.175506
0.328413
0.204102
0.22673
0.254341
0.144634
0.13017
0.169985
0.237866
0.161592
0.370943
0.113287
0.097997
0.170861
0.161692
0.160591
0.152903
0.277061
0.17145
0.194166
0.125191
0.15957
0.18812
0.120048
0.367155
0.354787
0.128612
0.143763
0.313887
0.218023
0.149631
0.109286
0.145941
0.127934
0.215135
0.334462
0.150694
0.10667
0.24647
0.198243
0.0988697
0.125019
0.198399
0.269548
0.37136
0.118928
0.0915278
0.226961
0.31378
0.169075
0.225898
0.171747
0.156951
0.1711
0.242614
0.182667
0.157379
0.293317
0.174376
0.0727685
0.213003
0.160214
0.299308
0.366952
0.164368
0.166567
0.164024
0.167875
0.119683
0.170302
0.129774
0.346391
0.303585
0.267239
0.175593
0.107164
0.29015
0.356839
0.144988
0.209817
0.15273
0.0741501
0.198336
0.162742
0.069486
0.147027
0.252445
0.122903
0.099434
0.125849
0.302893
0.116488
0.297042
0.198639
0.151156
0.157702
0.140411
0.298964
0.0823872
0.173149
0.178927
0.113569
0.225818
0.273186
0.22691
0.18854
0.282819
0.124376
0.127312
0.332343
0.153909
0.328475
0.229089
0.164859
0.232036
0.318286
0.198253
0.0949255
0.342266
0.149437
0.173884
0.31904
0.143963
0.350304
0.150152
0.17624
0.0914105
0.180409
0.128028
0.202813
0.126792
0.0756778
0.124119
0.120865
0.0783048
0.33488
0.121453
0.175016
0.229363
0.202717
0.358314
0.360621
0.147581
0.203928
0.303033
0.138308
0.335182
0.0871529
0.162055
0.21748
0.146465
0.305372
0.156486
0.163323
0.168453
0.152337
0.153155
0.0741842
0.321086
0.00389899
0.34736
0.270931
0.126376
0.0983295
0.131339
0.372866
0.276286
0.250165
0.194911
0.228192
0.178148
0.319449
0.291021
0.141977
0.244264
0.350982
0.181107
0.207155
0.252654
0.0923382
0.125799
0.302021
0.172633
0.193026
0.350918
0.118048
0.0890818
0.156842
0.191514
0.177303
0.361469
0.147321
0.108687
0.143427
0.190725
0.148549
0.327449
0.201625
0.136899
0.14829
0.145203
0.144831
0.16901
0.24311
0.213593
0.137012
0.326157
0.161949
0.307132
0.137588
0.118789
0.179875
0.322453
0.35582
0.299207
0.19041
0.182338
0.297922
0.35695
0.115965
0.336461
0.126875
0.259305
0.239659
0.325853
0.191808
0.316599
0.339989
0.161952
0.161996
0.175928
0.209138
0.131134
0.12841
0.126975
0.275356
0.305795
0.113005
0.341684
0.1959
0.284713
0.190957
0.129827
0.30353
0.291227
0.159363
0.167717
0.127624
0.361626
0.276222
0.367867
0.109825
0.130003
0.181216
0.309942
0.248632
0.328551
0.223721
0.358688
0.151637
0.18516
0.206779
0.157929
0.227543
0.10713
0.297711
0.197656
0.215725
0.337257
0.104159
0.114915
0.0882247
0.239561
0.322668
0.167432
0.255463
0.11334
0.106487
0.194616
0.159081
0.15129
0.32478
0.213566
0.141459
0.182199
0.23721
0.345408
0.241338
0.168706
0.320947
0.212469
0.350403
0.197645
0.26463
0.166545
0.110846
0.369256
0.133862
0.230249
0.221586
0.333799
0.261445
0.186855
0.160747
0.365951
0.186512
0.137682
0.280049
0.357814
0.274717
0.248534
0.105638
0.0715048
0.204821
0.139545
0.173168
0.206661
0.136314
0.343968
0.360868
0.339447
0.163458
0.167999
0.151514
0.169431
0.26527
0.115954
0.262589
0.345363
0.121687
0.161551
0.152876
0.308314
0.249778
0.166982
0.140758
0.271235
0.149946
0.104662
0.121716
0.371888
0.0796546
0.295203
0.248686
0.155524
0.347808
0.213986
0.372095
0.073252
0.164103
0.219888
0.339395
0.171309
0.335491
0.214204
0.0786353
0.182309
0.154627
0.172835
0.0725505
0.295476
0.161437
0.140541
0.0918846
0.18706
0.326473
0.0443144
0.165948
0.321519
0.187253
0.31703
0.0833229
0.151684
0.152527
0.174605
0.131482
0.107247
0.149278
0.0492804
0.166989
0.164682
0.286811
0.225338
0.323699
0.142991
0.171591
0.108736
0.216613
0.0529804
0.175644
0.367868
0.195712
0.163698
0.375138
0.138192
0.222055
0.248356
0.10943
0.159812
0.196091
0.233971
0.34612
0.356804
0.358112
0.238815
0.19273
0.162943
0.130135
0.315665
0.26386