/*--------------------------------*- C++ -*----------------------------------*\
  =========                 |
  \\      /  F ield         | OpenFOAM: The Open Source CFD Toolbox
   \\    /   O peration     | Website:  https://openfoam.org
    \\  /    A nd           | Version:  6
     \\/     M anipulation  |
\*---------------------------------------------------------------------------*/
FoamFile
{
    version     2.0;
    format      ascii;
    class       volScalarField;
    location    "0";
    object      p;
}
// * * * * * * * * * * * * * * * * * * * * * * * * * * * * * * * * * * * * * //

dimensions      [0 2 -2 0 0 0 0];

internalField   nonuniform List<scalar> 
918
(
0.197476
0.983367
0.00516663
0.196855
0.000781052
0.95197
-0.862188
0.387915
0.175415
-0.127307
0.0242167
0.169076
0.803982
0.569194
-1.49321
0.0147637
0.340301
-0.634437
0.174775
0.005698
0.466852
0.1819
0.185285
0.17766
0.226528
0.547761
0.676315
0.000198018
-0.00226026
-0.000911695
0.00193185
0.000770544
0.00796376
0.825016
0.871328
0.890042
0.144572
0.0495982
-0.725355
-0.791734
-0.772878
-0.86989
0.372883
0.374574
-0.518518
0.384065
0.39347
0.165189
0.174896
0.175651
0.177152
0.175987
0.177457
0.307422
-0.153719
-0.234614
-0.0819863
-0.0758421
0.0832869
0.0188514
0.00908274
0.0248885
0.0256949
0.10485
0.164577
0.158831
0.172709
0.184163
0.908856
0.880711
0.903505
0.828939
0.845965
0.77813
0.750591
0.590299
0.613224
0.554594
0.545094
-1.95677
-2.92703
-0.901766
-0.617139
0.00121359
0.0225748
0.0287295
0.32095
0.324791
0.334413
0.34385
0.811464
-0.623748
-0.813446
0.173589
0.171946
0.180811
0.182538
0.178659
0.178467
0.0115216
0.0161003
-0.00204862
0.00652461
0.00390962
0.437868
0.431443
0.177317
0.173708
0.19134
0.215228
0.203865
-0.0602323
0.247066
0.269961
0.370441
0.540185
0.534279
0.543851
0.650321
0.61812
0.708822
0.733204
0.00715737
0.00229218
0.0105712
0.0102864
0.0108298
0.143161
0.137288
0.153611
0.146821
0.150505
-0.0500668
-0.195017
0.13323
0.162984
-0.644455
-0.69635
-0.726948
-0.780621
-0.872341
0.101974
0.363126
0.366949
-0.535559
-0.450547
-0.597141
-0.395212
-0.457507
0.15125
0.160925
0.15508
0.170641
0.165893
0.167301
0.178661
0.176044
0.17759
0.339894
0.416918
0.256257
0.234261
-0.436121
-0.277308
-0.392196
-0.0301365
-0.010371
0.092533
0.106389
0.0742886
0.0714349
-0.00142071
0.00409663
-0.0071867
0.0263213
0.0279707
0.0990999
0.0895231
0.113569
0.120078
0.15614
0.155152
0.15833
0.158678
0.698807
0.72164
0.730268
0.706782
-3.92058
-6.60466
-0.258898
-0.0937889
0.00177612
0.00196294
0.0012458
0.00199407
0.0028141
-0.000243249
0.0448852
0.038954
0.0316538
0.0346777
0.309782
0.308864
0.814268
0.868207
0.737235
0.728253
0.159242
0.163502
0.169638
0.166005
0.0290358
0.0212387
0.0314175
0.394322
0.411512
0.411081
-0.0986248
-0.183057
-0.010097
0.0170252
0.300569
0.278405
0.305954
0.433342
0.474937
0.745238
0.769828
0.757345
0.773021
0.820962
0.840697
0.806418
0.12522
0.134736
0.130244
0.160863
0.158278
0.159461
0.154326
0.156462
0.155742
-0.328938
-0.693017
0.18066
0.217941
0.210585
0.205223
0.243699
0.432407
0.342886
0.354732
0.358056
-0.337496
-0.393739
0.20032
0.181675
0.0441568
0.0741589
0.0587948
0.675091
0.63723
0.685015
0.660219
0.624012
0.646524
-0.622177
-2.39848
-1.34588
0.308674
0.106091
0.201946
0.0614947
0.0488953
0.0499012
0.862837
0.899487
0.470372
0.615174
0.568964
0.507662
0.537493
0.591009
0.521266
0.555346
0.591467
0.569775
0.0241603
0.0859664
0.0185566
0.553508
0.640645
-0.212005
-0.280959
-0.316877
0.118237
0.15461
0.134901
0.88055
0.717256
0.84296
0.174841
0.174968
0.0108179
0.0154231
0.177589
0.177279
0.00613154
0.010195
0.198664
-1.25745
-0.207686
0.168552
0.158923
0.17378
-0.101184
0.29084
0.024699
0.0902671
0.0601052
0.162127
0.115372
0.0755256
0.00693495
0.0186406
0.0152015
-0.467395
0.1706
0.168821
0.172952
0.174592
0.175054
0.00974644
0.0099671
0.0063025
0.0121838
0.00869929
0.00896879
0.145423
0.153512
-0.497842
0.173455
0.175396
0.17501
0.170333
0.173695
0.172198
0.0166508
0.0124777
0.0122464
-0.105267
0.0175261
0.424467
0.528417
0.355791
0.167809
-0.116145
0.338557
0.402526
0.306345
0.467154
0.344316
0.36189
-0.160497
-0.290811
-0.127951
-0.192428
0.166477
0.164318
0.155934
0.150207
0.167432
0.166343
0.170968
0.169893
0.172131
0.172853
-0.0607115
-0.0573764
-0.135984
-0.211697
0.319986
0.406751
0.235755
0.242586
0.145291
0.0255054
0.0272953
0.024336
0.00871267
0.061139
0.0628979
0.0745068
0.0751274
0.0483668
0.0460337
0.0543356
0.0547034
0.0589266
0.157532
0.158442
0.161504
0.169965
0.121768
0.125507
0.094323
0.112505
0.102788
0.0500809
0.0770971
0.0551079
0.00850461
0.0106224
0.00855727
0.0232479
0.0307048
0.0145174
0.0137812
0.0126055
0.0102535
0.0116178
0.0194745
0.0232536
-0.47842
-0.542536
0.874767
0.686863
0.0822817
0.16188
0.166013
0.163727
0.168176
0.170699
0.170564
0.167955
0.166824
0.154072
0.157236
0.152586
0.151825
-0.452422
-0.580403
-0.399178
-0.470913
-0.131814
0.286386
0.0262623
-0.0347931
-0.044412
0.169807
0.377865
0.340904
0.464342
0.451837
-0.720917
-0.282899
-0.63363
-0.087491
-0.153655
0.43929
0.488214
0.510125
0.461383
0.410114
-0.321888
0.174996
-0.383144
-0.361723
-0.190469
-0.248653
0.391347
0.330907
0.336257
0.352417
0.374276
0.330982
0.318575
0.311034
0.342683
0.349947
0.163795
-0.0608112
-0.11459
-0.153189
0.308263
0.194728
0.244326
0.166154
0.158526
0.161768
0.160667
0.148294
0.150864
0.147226
0.153984
0.154865
0.164306
0.164322
0.159696
0.161595
-0.0327153
-0.01651
-0.118124
-0.335651
-0.24545
-0.328404
-0.17936
0.124728
0.12141
0.223945
0.244946
0.0526924
-0.290889
-0.183004
-0.341747
0.0848877
-0.0308083
0.106199
0.158778
0.175114
0.141091
0.210322
0.193331
0.0394349
0.0503843
0.0307647
0.0316714
0.0972283
0.11903
0.110902
0.0493268
0.0490791
0.0259554
0.0271593
0.0749138
0.0425541
0.0562187
0.0653827
0.0229966
0.0247236
0.0288981
0.043386
0.040179
0.0443261
0.153401
0.155993
0.154127
0.167539
0.177552
0.189621
0.165196
0.140049
0.13118
0.135204
0.114469
0.117453
0.124315
0.13058
0.146124
0.151999
0.151465
0.152445
0.136626
0.139232
0.125316
0.130273
0.116383
0.0997612
0.0848556
0.018816
0.0115164
0.0145823
0.0159464
0.0102458
0.0122844
0.0426696
0.0339643
0.0396031
0.0347689
0.0375571
0.0175273
0.0184964
-0.488565
-0.416202
-0.586716
-0.540366
-0.609943
0.818988
0.852289
0.670227
0.447442
0.507034
0.704623
0.773884
0.415626
0.502176
0.531671
-0.0614184
0.554437
0.165869
0.165392
0.162099
0.160797
0.162572
-0.358748
-0.290513
-0.259996
-0.220344
-8.04524e-05
0.109252
0.0454159
-0.272085
-0.0650663
-0.0610538
0.279245
0.292136
0.238809
0.26381
0.258436
0.0976064
0.167262
0.210807
0.169953
0.220516
0.244275
0.196026
0.228978
0.173616
0.133854
0.133146
0.0792591
0.106667
0.0886401
0.0634835
0.153764
0.135473
0.144174
0.137387
0.155248
0.18654
0.180859
0.199085
0.219154
0.144687
0.105305
0.118498
0.142742
0.0996719
0.111702
0.130141
-0.0434953
-0.106595
-0.0150367
-0.442965
-0.288072
-0.268828
-0.309318
-0.36261
-0.0440653
-0.737375
-0.640315
-1.33144
0.1278
0.505947
0.348431
0.360599
0.369703
0.346531
0.354277
0.380652
0.386993
0.301069
0.320679
0.323106
0.272531
0.307676
0.316924
0.322212
0.133227
0.0603317
0.0499274
0.00614651
-0.123738
-0.0984094
0.0944694
0.0282994
-0.0473267
-0.0462395
0.126877
0.025117
0.0877455
0.125196
0.0725152
0.00894771
0.218239
0.269872
0.268007
0.237533
0.150787
0.164599
0.183796
0.221138
0.251201
0.2806
0.15219
0.158724
0.160582
0.156565
0.153516
0.156116
0.156362
0.157926
0.158142
0.15943
0.158471
0.00855313
0.0196495
-0.00433244
0.00396922
-0.00467756
-0.0322855
0.0536472
-0.0292787
0.034401
0.0314184
-0.00471752
-0.0142187
-0.00171738
0.0175933
0.161887
0.185155
0.174572
0.127714
0.209515
0.367391
0.353316
0.310047
0.200573
0.228498
0.311627
0.0861087
0.094627
0.08087
0.105109
0.100706
0.0270819
0.0274184
0.0333329
0.0416203
0.0359141
0.0301548
0.0258721
0.0265036
0.0303937
0.028902
0.0275994
0.139079
0.134677
0.136634
0.130165
0.129072
0.142539
0.145475
0.147062
0.151706
0.152719
0.14554
0.149339
0.152146
0.0285973
0.0237288
0.0249961
0.0245853
0.0262795
0.0221866
0.0211709
-0.566005
-0.555704
-0.461869
-0.67556
-0.531539
-0.583881
0.0164525
-0.158672
0.00678001
0.373571
0.183825
0.136232
0.122189
0.242327
-0.255728
0.0307274
-0.211114
0.71604
0.536944
0.676401
0.246963
-0.116705
0.0398256
0.0690536
-0.060949
0.0154575
-0.0166246
-0.134089
-0.109433
-0.0696693
0.0244937
-0.033963
0.0226947
-0.134195
0.0155889
-0.0264805
-0.0534136
0.132257
0.210577
-0.0786395
-0.0999917
-0.218011
0.263208
0.281273
0.29709
0.274093
0.292782
0.224059
0.213399
0.233525
0.241787
0.236563
-1.00306
-0.618345
-1.77642
-1.18026
-0.767494
0.147517
0.130356
0.35382
0.274847
0.351705
0.340022
0.289471
0.257816
0.267574
0.304593
0.0141176
0.115432
0.0781109
0.103816
0.0373625
-0.0326585
0.233354
0.236675
0.263252
0.292112
0.255291
0.294238
0.15036
0.151232
0.149649
0.147605
0.142997
0.145218
0.0903041
0.0680411
0.111346
0.0931748
0.0583581
0.0521958
0.0359006
0.0303644
0.0283986
0.0291932
0.0326129
0.037309
-0.354884
-0.482503
-0.734948
-0.676447
-0.399709
-0.518449
-0.514645
-0.577355
-0.430355
-0.354995
0.0764633
0.49773
0.22825
0.535709
0.288735
0.471113
0.106872
0.205272
0.209933
0.0450246
0.0558791
-0.307363
-0.514915
-0.559667
0.398419
0.363978
0.170432
-0.0807513
-0.234547
0.0662559
0.170317
0.132283
0.174196
0.224277
0.222538
-0.350701
-0.276142
-0.173051
0.103517
-0.0424862
-0.0623052
-0.0269716
0.0647628
0.0330719
)
;

boundaryField
{
    wall-4
    {
        type            zeroGradient;
    }
    velocity-inlet-5
    {
        type            zeroGradient;
    }
    velocity-inlet-6
    {
        type            zeroGradient;
    }
    pressure-outlet-7
    {
        type            fixedValue;
        value           uniform 0;
    }
    wall-8
    {
        type            zeroGradient;
    }
    frontAndBackPlanes
    {
        type            empty;
    }
}

