/*--------------------------------*- C++ -*----------------------------------*\
  =========                 |
  \\      /  F ield         | OpenFOAM: The Open Source CFD Toolbox
   \\    /   O peration     | Website:  https://openfoam.org
    \\  /    A nd           | Version:  6
     \\/     M anipulation  |
\*---------------------------------------------------------------------------*/
FoamFile
{
    version     2.0;
    format      ascii;
    class       volScalarField;
    location    "26497";
    object      nut;
}
// * * * * * * * * * * * * * * * * * * * * * * * * * * * * * * * * * * * * * //

dimensions      [0 2 -1 0 0 0 0];

internalField   nonuniform List<scalar> 
115600
(
8.15636e-10
2.34079e-10
2.04774e-10
1.94671e-10
1.84233e-10
1.70772e-10
1.56351e-10
1.42646e-10
1.30948e-10
1.20666e-10
1.11678e-10
1.03858e-10
9.70767e-11
9.12028e-11
8.61154e-11
8.17074e-11
7.78872e-11
7.45776e-11
7.17133e-11
6.92395e-11
6.71097e-11
6.52845e-11
6.37306e-11
6.24191e-11
6.13254e-11
6.0428e-11
5.97082e-11
5.91492e-11
5.87361e-11
5.84553e-11
5.82958e-11
5.8289e-11
5.8452e-11
5.87296e-11
5.91004e-11
5.95507e-11
6.00691e-11
6.06463e-11
6.12741e-11
6.19455e-11
6.26545e-11
6.33963e-11
6.41676e-11
6.49672e-11
6.57971e-11
6.66641e-11
6.75816e-11
6.85761e-11
6.9691e-11
7.10184e-11
7.26927e-11
7.51353e-11
7.89288e-11
8.74986e-11
1.12291e-10
2.43134e-10
5.19253e-08
2.86111e-08
2.54401e-08
2.41547e-08
2.26027e-08
2.05443e-08
1.83125e-08
1.61966e-08
1.43968e-08
1.28719e-08
1.15864e-08
1.05061e-08
9.59883e-09
8.83592e-09
8.19268e-09
7.64871e-09
7.18746e-09
6.79557e-09
6.46225e-09
6.17877e-09
5.938e-09
5.73411e-09
5.56229e-09
5.41857e-09
5.29963e-09
5.20266e-09
5.12528e-09
5.06545e-09
5.02139e-09
4.99155e-09
4.97465e-09
4.97283e-09
4.98775e-09
5.01496e-09
5.05221e-09
5.09799e-09
5.15111e-09
5.21055e-09
5.27541e-09
5.34492e-09
5.41835e-09
5.49508e-09
5.57462e-09
5.65662e-09
5.74101e-09
5.8281e-09
5.91881e-09
6.0151e-09
6.12055e-09
6.2425e-09
6.39337e-09
6.60546e-09
6.93889e-09
7.63355e-09
9.57581e-09
1.5198e-08
2.69826e-07
2.63548e-07
2.66048e-07
2.6345e-07
2.53366e-07
2.37178e-07
2.1793e-07
1.9814e-07
1.79511e-07
1.62817e-07
1.48053e-07
1.35124e-07
1.23881e-07
1.14144e-07
1.05732e-07
9.8476e-08
9.22266e-08
8.68527e-08
8.22415e-08
7.82956e-08
7.49312e-08
7.20769e-08
6.96712e-08
6.76617e-08
6.60034e-08
6.46576e-08
6.3591e-08
6.27746e-08
6.21831e-08
6.17941e-08
6.15895e-08
6.15819e-08
6.17808e-08
6.21467e-08
6.26516e-08
6.32736e-08
6.39946e-08
6.47979e-08
6.56686e-08
6.65922e-08
6.7555e-08
6.85438e-08
6.95458e-08
7.05492e-08
7.15441e-08
7.25228e-08
7.34824e-08
7.44276e-08
7.53765e-08
7.6373e-08
7.75106e-08
7.8999e-08
8.13439e-08
8.5864e-08
9.80958e-08
1.19503e-07
5.40774e-07
6.57632e-07
7.10105e-07
7.21756e-07
7.08759e-07
6.80586e-07
6.44558e-07
6.05904e-07
5.68136e-07
5.32946e-07
5.00937e-07
4.72139e-07
4.46437e-07
4.23608e-07
4.03388e-07
3.85526e-07
3.69787e-07
3.55963e-07
3.43869e-07
3.3334e-07
3.24228e-07
3.16403e-07
3.09748e-07
3.04157e-07
2.99535e-07
2.95799e-07
2.92868e-07
2.90672e-07
2.89144e-07
2.88222e-07
2.87854e-07
2.88039e-07
2.8876e-07
2.89941e-07
2.91505e-07
2.93384e-07
2.95516e-07
2.97841e-07
3.00304e-07
3.02851e-07
3.05428e-07
3.07981e-07
3.10457e-07
3.12805e-07
3.14972e-07
3.16908e-07
3.18569e-07
3.1992e-07
3.20943e-07
3.21657e-07
3.22162e-07
3.22724e-07
3.24106e-07
3.28167e-07
3.43306e-07
3.74221e-07
7.48119e-07
1.01475e-06
1.15878e-06
1.21525e-06
1.22042e-06
1.19559e-06
1.15415e-06
1.10492e-06
1.05375e-06
1.00409e-06
9.57612e-07
9.14925e-07
8.76224e-07
8.41417e-07
8.10295e-07
7.82608e-07
7.58094e-07
7.36496e-07
7.17572e-07
7.01093e-07
6.86848e-07
6.74645e-07
6.64308e-07
6.55674e-07
6.48596e-07
6.42939e-07
6.38577e-07
6.35395e-07
6.33284e-07
6.32143e-07
6.3188e-07
6.32458e-07
6.3382e-07
6.35867e-07
6.38494e-07
6.41596e-07
6.45073e-07
6.4883e-07
6.52773e-07
6.56814e-07
6.60862e-07
6.64827e-07
6.68618e-07
6.72144e-07
6.75313e-07
6.78034e-07
6.80219e-07
6.8179e-07
6.82688e-07
6.82903e-07
6.82513e-07
6.81853e-07
6.81759e-07
6.84944e-07
7.01607e-07
7.46901e-07
8.9173e-07
1.25803e-06
1.49804e-06
1.62112e-06
1.66859e-06
1.6697e-06
1.64311e-06
1.60092e-06
1.55107e-06
1.49888e-06
1.44727e-06
1.39801e-06
1.35194e-06
1.30941e-06
1.27055e-06
1.23534e-06
1.20372e-06
1.17552e-06
1.15059e-06
1.12871e-06
1.10971e-06
1.09337e-06
1.07951e-06
1.06794e-06
1.05849e-06
1.05099e-06
1.04529e-06
1.04122e-06
1.03865e-06
1.03744e-06
1.03748e-06
1.03866e-06
1.04089e-06
1.04407e-06
1.04805e-06
1.05272e-06
1.05794e-06
1.06357e-06
1.06951e-06
1.07561e-06
1.08177e-06
1.08786e-06
1.09376e-06
1.09934e-06
1.1045e-06
1.1091e-06
1.11305e-06
1.11624e-06
1.11861e-06
1.12017e-06
1.12105e-06
1.12172e-06
1.12334e-06
1.1294e-06
1.15269e-06
1.21226e-06
1.00156e-06
1.3883e-06
1.69556e-06
1.88433e-06
1.98495e-06
2.02704e-06
2.03158e-06
2.01268e-06
1.97978e-06
1.93932e-06
1.89561e-06
1.85102e-06
1.80735e-06
1.7655e-06
1.72609e-06
1.68949e-06
1.65591e-06
1.62547e-06
1.59816e-06
1.57393e-06
1.5527e-06
1.53435e-06
1.51873e-06
1.50571e-06
1.49514e-06
1.48685e-06
1.4807e-06
1.47654e-06
1.47421e-06
1.47357e-06
1.47448e-06
1.47681e-06
1.48042e-06
1.4852e-06
1.49102e-06
1.49773e-06
1.50519e-06
1.51325e-06
1.52175e-06
1.53056e-06
1.53953e-06
1.54852e-06
1.55739e-06
1.56601e-06
1.57423e-06
1.58194e-06
1.58903e-06
1.5954e-06
1.60102e-06
1.60594e-06
1.61041e-06
1.61504e-06
1.6214e-06
1.63321e-06
1.66572e-06
1.73465e-06
1.10975e-06
1.43534e-06
1.76515e-06
2.00289e-06
2.15487e-06
2.24323e-06
2.28748e-06
2.302e-06
2.29689e-06
2.27926e-06
2.25404e-06
2.22449e-06
2.19274e-06
2.16035e-06
2.12841e-06
2.09772e-06
2.06879e-06
2.042e-06
2.01759e-06
1.99568e-06
1.97634e-06
1.95959e-06
1.9454e-06
1.93372e-06
1.92446e-06
1.91753e-06
1.91282e-06
1.91021e-06
1.90958e-06
1.9108e-06
1.91375e-06
1.91826e-06
1.9242e-06
1.93145e-06
1.9399e-06
1.9494e-06
1.9598e-06
1.97096e-06
1.98272e-06
1.99492e-06
2.00742e-06
2.02006e-06
2.03269e-06
2.04519e-06
2.05741e-06
2.06922e-06
2.08055e-06
2.09131e-06
2.10151e-06
2.11126e-06
2.1209e-06
2.13112e-06
2.14385e-06
2.16238e-06
2.20343e-06
2.27614e-06
1.24341e-06
1.43635e-06
1.73578e-06
1.99454e-06
2.18683e-06
2.31937e-06
2.4058e-06
2.45857e-06
2.4874e-06
2.49948e-06
2.50006e-06
2.49285e-06
2.48029e-06
2.46445e-06
2.44687e-06
2.42863e-06
2.41056e-06
2.39325e-06
2.37714e-06
2.36256e-06
2.34974e-06
2.33882e-06
2.32991e-06
2.32306e-06
2.31828e-06
2.31556e-06
2.31486e-06
2.31613e-06
2.31929e-06
2.32425e-06
2.33093e-06
2.33915e-06
2.34881e-06
2.3598e-06
2.37203e-06
2.38536e-06
2.39968e-06
2.41483e-06
2.43067e-06
2.44705e-06
2.46383e-06
2.48085e-06
2.49798e-06
2.51507e-06
2.53201e-06
2.54867e-06
2.56498e-06
2.5809e-06
2.59645e-06
2.61178e-06
2.62728e-06
2.64365e-06
2.66294e-06
2.68764e-06
2.73471e-06
2.80676e-06
1.42007e-06
1.42924e-06
1.64529e-06
1.88706e-06
2.0992e-06
2.26698e-06
2.39303e-06
2.4849e-06
2.55032e-06
2.5958e-06
2.62648e-06
2.64624e-06
2.65788e-06
2.66376e-06
2.66571e-06
2.66507e-06
2.66289e-06
2.65996e-06
2.65689e-06
2.65416e-06
2.65214e-06
2.65111e-06
2.65129e-06
2.65284e-06
2.65587e-06
2.66045e-06
2.66662e-06
2.67439e-06
2.68375e-06
2.69467e-06
2.70711e-06
2.72091e-06
2.736e-06
2.75232e-06
2.76977e-06
2.78827e-06
2.8077e-06
2.82795e-06
2.84888e-06
2.87036e-06
2.89227e-06
2.91446e-06
2.9368e-06
2.95917e-06
2.98144e-06
3.00352e-06
3.02534e-06
3.04687e-06
3.06816e-06
3.08934e-06
3.11083e-06
3.1332e-06
3.15847e-06
3.18807e-06
3.23826e-06
3.30658e-06
1.64876e-06
1.44711e-06
1.53878e-06
1.71988e-06
1.92043e-06
2.10542e-06
2.26222e-06
2.38963e-06
2.49102e-06
2.57093e-06
2.63376e-06
2.68319e-06
2.72225e-06
2.7534e-06
2.77861e-06
2.79938e-06
2.81693e-06
2.8322e-06
2.84595e-06
2.85879e-06
2.8712e-06
2.88358e-06
2.89624e-06
2.90944e-06
2.92338e-06
2.9382e-06
2.95403e-06
2.97093e-06
2.98896e-06
3.00815e-06
3.0285e-06
3.0499e-06
3.0723e-06
3.09568e-06
3.11998e-06
3.14514e-06
3.17106e-06
3.19767e-06
3.22485e-06
3.2525e-06
3.28049e-06
3.30872e-06
3.33706e-06
3.3654e-06
3.39363e-06
3.42166e-06
3.44943e-06
3.47691e-06
3.50414e-06
3.53123e-06
3.55855e-06
3.58651e-06
3.6169e-06
3.65002e-06
3.70081e-06
3.76347e-06
1.93927e-06
1.51636e-06
1.46334e-06
1.54543e-06
1.6945e-06
1.86679e-06
2.03562e-06
2.18797e-06
2.3199e-06
2.43197e-06
2.52667e-06
2.60683e-06
2.6751e-06
2.73376e-06
2.78473e-06
2.8296e-06
2.86968e-06
2.90602e-06
2.93949e-06
2.97081e-06
3.00055e-06
3.02921e-06
3.05718e-06
3.0848e-06
3.11234e-06
3.14002e-06
3.16802e-06
3.19647e-06
3.22549e-06
3.25516e-06
3.28552e-06
3.3165e-06
3.34811e-06
3.38033e-06
3.41315e-06
3.44653e-06
3.48041e-06
3.51473e-06
3.54941e-06
3.58437e-06
3.61951e-06
3.65472e-06
3.68992e-06
3.72499e-06
3.75984e-06
3.79438e-06
3.82854e-06
3.86229e-06
3.89565e-06
3.92868e-06
3.96164e-06
3.99473e-06
4.02942e-06
4.06488e-06
4.1144e-06
4.1703e-06
2.31258e-06
1.66096e-06
1.46091e-06
1.42319e-06
1.48361e-06
1.6038e-06
1.75266e-06
1.9078e-06
2.05649e-06
2.19304e-06
2.31575e-06
2.42509e-06
2.52236e-06
2.60917e-06
2.68713e-06
2.75768e-06
2.82211e-06
2.8815e-06
2.93678e-06
2.98873e-06
3.03801e-06
3.08518e-06
3.1307e-06
3.17498e-06
3.21834e-06
3.26107e-06
3.30339e-06
3.3455e-06
3.38756e-06
3.42968e-06
3.47196e-06
3.51439e-06
3.55698e-06
3.59975e-06
3.64271e-06
3.68585e-06
3.72914e-06
3.77254e-06
3.816e-06
3.85945e-06
3.90282e-06
3.94603e-06
3.98899e-06
4.0316e-06
4.07378e-06
4.11543e-06
4.15649e-06
4.19689e-06
4.23662e-06
4.27565e-06
4.31414e-06
4.35204e-06
4.39038e-06
4.42733e-06
4.47433e-06
4.52303e-06
2.80222e-06
1.91043e-06
1.5677e-06
1.40795e-06
1.35954e-06
1.39173e-06
1.47975e-06
1.60225e-06
1.7414e-06
1.88443e-06
2.02358e-06
2.15491e-06
2.27698e-06
2.38971e-06
2.4937e-06
2.58983e-06
2.67909e-06
2.7624e-06
2.84062e-06
2.91454e-06
2.98482e-06
3.05206e-06
3.11676e-06
3.17937e-06
3.24026e-06
3.29976e-06
3.35814e-06
3.41562e-06
3.47242e-06
3.52867e-06
3.58452e-06
3.64001e-06
3.69517e-06
3.75002e-06
3.8046e-06
3.85892e-06
3.91298e-06
3.96676e-06
4.02022e-06
4.07333e-06
4.12602e-06
4.17823e-06
4.22987e-06
4.28086e-06
4.33111e-06
4.38054e-06
4.42904e-06
4.47652e-06
4.52292e-06
4.56813e-06
4.61216e-06
4.65467e-06
4.69627e-06
4.73422e-06
4.77808e-06
4.81969e-06
3.4581e-06
2.31528e-06
1.82933e-06
1.55106e-06
1.39003e-06
1.31578e-06
1.31089e-06
1.361e-06
1.45128e-06
1.56747e-06
1.69756e-06
1.83265e-06
1.96696e-06
2.09716e-06
2.22164e-06
2.33984e-06
2.45179e-06
2.55787e-06
2.65859e-06
2.75449e-06
2.84615e-06
2.9341e-06
3.0188e-06
3.10071e-06
3.1802e-06
3.25762e-06
3.33326e-06
3.40737e-06
3.48018e-06
3.55186e-06
3.62257e-06
3.69242e-06
3.76143e-06
3.82965e-06
3.89711e-06
3.96385e-06
4.02987e-06
4.09518e-06
4.15977e-06
4.22359e-06
4.2866e-06
4.34875e-06
4.40996e-06
4.47014e-06
4.52922e-06
4.58707e-06
4.64358e-06
4.69863e-06
4.75208e-06
4.80373e-06
4.85343e-06
4.90056e-06
4.94527e-06
4.98407e-06
5.02471e-06
5.05986e-06
4.38429e-06
2.97819e-06
2.33167e-06
1.92666e-06
1.64816e-06
1.45932e-06
1.34471e-06
1.29416e-06
1.29785e-06
1.34552e-06
1.42672e-06
1.5314e-06
1.6508e-06
1.77796e-06
1.90789e-06
2.0373e-06
2.16423e-06
2.28763e-06
2.40702e-06
2.52232e-06
2.63364e-06
2.74121e-06
2.84534e-06
2.94633e-06
3.04449e-06
3.14011e-06
3.23345e-06
3.32476e-06
3.41425e-06
3.50211e-06
3.58848e-06
3.67351e-06
3.75728e-06
3.83979e-06
3.92107e-06
4.00116e-06
4.08009e-06
4.15785e-06
4.23446e-06
4.30987e-06
4.38406e-06
4.45697e-06
4.52852e-06
4.59863e-06
4.6672e-06
4.7341e-06
4.79919e-06
4.8623e-06
4.92322e-06
4.98164e-06
5.03724e-06
5.08916e-06
5.13708e-06
5.17691e-06
5.21476e-06
5.24453e-06
5.73289e-06
4.05259e-06
3.20782e-06
2.64938e-06
2.23604e-06
1.91888e-06
1.67904e-06
1.50802e-06
1.39893e-06
1.34465e-06
1.33759e-06
1.36993e-06
1.43385e-06
1.5218e-06
1.62692e-06
1.74335e-06
1.86645e-06
1.9928e-06
2.12e-06
2.24649e-06
2.37131e-06
2.4939e-06
2.614e-06
2.73151e-06
2.84645e-06
2.95892e-06
3.06904e-06
3.17693e-06
3.28276e-06
3.38663e-06
3.48869e-06
3.58904e-06
3.68778e-06
3.78493e-06
3.88047e-06
3.9744e-06
4.06675e-06
4.15753e-06
4.24673e-06
4.33432e-06
4.42027e-06
4.50452e-06
4.587e-06
4.6676e-06
4.7462e-06
4.82267e-06
4.89681e-06
4.96842e-06
5.0372e-06
5.10275e-06
5.16458e-06
5.22158e-06
5.27302e-06
5.31437e-06
5.35034e-06
5.37629e-06
7.47819e-06
5.6002e-06
4.54236e-06
3.81063e-06
3.24837e-06
2.79156e-06
2.41486e-06
2.10815e-06
1.86638e-06
1.68539e-06
1.56039e-06
1.48573e-06
1.45532e-06
1.46291e-06
1.50233e-06
1.56761e-06
1.65314e-06
1.75384e-06
1.86536e-06
1.98414e-06
2.10741e-06
2.23313e-06
2.35981e-06
2.48643e-06
2.61231e-06
2.73699e-06
2.8602e-06
2.98177e-06
3.10161e-06
3.21969e-06
3.33601e-06
3.45056e-06
3.56339e-06
3.67451e-06
3.78386e-06
3.89135e-06
3.99697e-06
4.1007e-06
4.20251e-06
4.30238e-06
4.40024e-06
4.49603e-06
4.58966e-06
4.681e-06
4.76992e-06
4.85624e-06
4.93974e-06
5.02015e-06
5.09711e-06
5.1701e-06
5.23849e-06
5.30096e-06
5.35641e-06
5.40008e-06
5.43549e-06
5.45965e-06
9.22335e-06
7.40672e-06
6.2205e-06
5.35079e-06
4.6612e-06
4.08246e-06
3.58422e-06
3.15227e-06
2.78041e-06
2.46609e-06
2.20781e-06
2.00364e-06
1.85065e-06
1.74494e-06
1.68196e-06
1.65687e-06
1.66473e-06
1.70068e-06
1.76006e-06
1.83843e-06
1.93179e-06
2.03657e-06
2.14978e-06
2.26897e-06
2.3922e-06
2.51797e-06
2.64515e-06
2.77291e-06
2.90061e-06
3.0278e-06
3.15414e-06
3.27939e-06
3.40338e-06
3.52597e-06
3.64705e-06
3.76643e-06
3.88393e-06
3.99947e-06
4.11297e-06
4.22434e-06
4.33351e-06
4.44036e-06
4.54476e-06
4.64657e-06
4.74562e-06
4.84168e-06
4.9345e-06
5.02373e-06
5.10896e-06
5.18958e-06
5.26479e-06
5.33313e-06
5.39323e-06
5.44022e-06
5.47686e-06
5.50176e-06
1.05506e-05
9.09172e-06
7.95308e-06
7.04649e-06
6.29615e-06
5.64797e-06
5.07473e-06
4.56077e-06
4.09771e-06
3.68174e-06
3.31173e-06
2.98779e-06
2.7103e-06
2.47914e-06
2.29335e-06
2.15104e-06
2.04951e-06
1.98547e-06
1.95528e-06
1.95516e-06
1.98126e-06
2.02982e-06
2.09723e-06
2.18012e-06
2.27547e-06
2.38059e-06
2.49322e-06
2.61145e-06
2.73373e-06
2.85881e-06
2.98571e-06
3.11364e-06
3.24196e-06
3.3702e-06
3.49796e-06
3.62492e-06
3.75068e-06
3.87491e-06
3.99742e-06
4.11802e-06
4.23652e-06
4.35276e-06
4.46652e-06
4.5776e-06
4.68576e-06
4.79074e-06
4.89222e-06
4.98979e-06
5.08296e-06
5.17103e-06
5.25311e-06
5.32763e-06
5.39304e-06
5.44459e-06
5.48461e-06
5.51326e-06
1.1376e-05
1.03991e-05
9.47047e-06
8.64843e-06
7.92568e-06
7.27772e-06
6.68906e-06
6.14846e-06
5.64835e-06
5.18418e-06
4.75376e-06
4.35658e-06
3.99322e-06
3.6649e-06
3.37294e-06
3.11846e-06
2.90205e-06
2.7236e-06
2.58225e-06
2.47645e-06
2.40407e-06
2.36255e-06
2.34908e-06
2.36066e-06
2.39426e-06
2.4469e-06
2.51572e-06
2.59807e-06
2.69152e-06
2.79393e-06
2.90344e-06
3.01845e-06
3.13762e-06
3.25983e-06
3.38414e-06
3.50979e-06
3.63611e-06
3.7624e-06
3.88818e-06
4.01302e-06
4.13654e-06
4.25838e-06
4.37823e-06
4.49576e-06
4.61061e-06
4.72244e-06
4.83083e-06
4.93531e-06
5.03531e-06
5.13005e-06
5.21857e-06
5.29925e-06
5.37051e-06
5.42791e-06
5.47376e-06
5.50963e-06
1.18297e-05
1.12869e-05
1.06426e-05
9.99435e-06
9.37757e-06
8.79598e-06
8.24874e-06
7.73278e-06
7.24463e-06
6.7814e-06
6.34117e-06
5.92296e-06
5.52666e-06
5.15287e-06
4.80276e-06
4.47784e-06
4.17984e-06
3.91042e-06
3.67103e-06
3.46273e-06
3.28604e-06
3.14092e-06
3.02671e-06
2.94225e-06
2.8859e-06
2.85568e-06
2.84937e-06
2.8646e-06
2.89896e-06
2.95003e-06
3.01552e-06
3.09325e-06
3.18124e-06
3.27767e-06
3.38096e-06
3.48969e-06
3.60268e-06
3.71878e-06
3.83707e-06
3.95671e-06
4.07696e-06
4.19718e-06
4.31677e-06
4.43518e-06
4.55189e-06
4.66639e-06
4.77812e-06
4.88649e-06
4.99085e-06
5.09034e-06
5.18395e-06
5.2701e-06
5.34732e-06
5.41166e-06
5.46585e-06
5.51264e-06
1.20641e-05
1.18382e-05
1.14684e-05
1.1029e-05
1.05657e-05
1.00983e-05
9.63697e-06
9.18658e-06
8.74886e-06
8.3241e-06
7.91207e-06
7.51251e-06
7.12538e-06
6.75093e-06
6.38978e-06
6.04292e-06
5.71163e-06
5.39746e-06
5.10211e-06
4.82739e-06
4.57504e-06
4.34663e-06
4.14345e-06
3.96642e-06
3.816e-06
3.69219e-06
3.59453e-06
3.52211e-06
3.47369e-06
3.44773e-06
3.44246e-06
3.45602e-06
3.48645e-06
3.53182e-06
3.59022e-06
3.65985e-06
3.73901e-06
3.82612e-06
3.91989e-06
4.01901e-06
4.12228e-06
4.22863e-06
4.3371e-06
4.44679e-06
4.55689e-06
4.66663e-06
4.77525e-06
4.88199e-06
4.98605e-06
5.08649e-06
5.18229e-06
5.27196e-06
5.35428e-06
5.42598e-06
5.4906e-06
5.55175e-06
1.21844e-05
1.21638e-05
1.20146e-05
1.17736e-05
1.14768e-05
1.11466e-05
1.07979e-05
1.04404e-05
1.00801e-05
9.72022e-06
9.36277e-06
9.00886e-06
8.6592e-06
8.31437e-06
7.97498e-06
7.64172e-06
7.31547e-06
6.99729e-06
6.68844e-06
6.39036e-06
6.10464e-06
5.83297e-06
5.57708e-06
5.33867e-06
5.11928e-06
4.92028e-06
4.74276e-06
4.58747e-06
4.4548e-06
4.34477e-06
4.25703e-06
4.19089e-06
4.14538e-06
4.11929e-06
4.11123e-06
4.1197e-06
4.1431e-06
4.17982e-06
4.22825e-06
4.28713e-06
4.35499e-06
4.43043e-06
4.51215e-06
4.59893e-06
4.68961e-06
4.78315e-06
4.87851e-06
4.97472e-06
5.07079e-06
5.16573e-06
5.25848e-06
5.34771e-06
5.43259e-06
5.51065e-06
5.58652e-06
5.66432e-06
1.22499e-05
1.2354e-05
1.23634e-05
1.22861e-05
1.21425e-05
1.19502e-05
1.17225e-05
1.14707e-05
1.12027e-05
1.09238e-05
1.06375e-05
1.03464e-05
1.00522e-05
9.75596e-06
9.45878e-06
9.16144e-06
8.86474e-06
8.56951e-06
8.27669e-06
7.98732e-06
7.70258e-06
7.42378e-06
7.15235e-06
6.88982e-06
6.63777e-06
6.39781e-06
6.17151e-06
5.96034e-06
5.76564e-06
5.58853e-06
5.42989e-06
5.29033e-06
5.17014e-06
5.06934e-06
4.98766e-06
4.92454e-06
4.87921e-06
4.85064e-06
4.83759e-06
4.83908e-06
4.85395e-06
4.88096e-06
4.91885e-06
4.96634e-06
5.02217e-06
5.08512e-06
5.15401e-06
5.22771e-06
5.30513e-06
5.3852e-06
5.46695e-06
5.54926e-06
5.63179e-06
5.71295e-06
5.79853e-06
5.8928e-06
1.22901e-05
1.24687e-05
1.25848e-05
1.26308e-05
1.26141e-05
1.25446e-05
1.24319e-05
1.22859e-05
1.2114e-05
1.19223e-05
1.17152e-05
1.1496e-05
1.12671e-05
1.10304e-05
1.07873e-05
1.05389e-05
1.02861e-05
1.00299e-05
9.77091e-06
9.51015e-06
9.24848e-06
8.98689e-06
8.72646e-06
8.46837e-06
8.2139e-06
7.9644e-06
7.72131e-06
7.48608e-06
7.26017e-06
7.04503e-06
6.84202e-06
6.65238e-06
6.4772e-06
6.31739e-06
6.17365e-06
6.04645e-06
5.93602e-06
5.84234e-06
5.76486e-06
5.70309e-06
5.65669e-06
5.6251e-06
5.60759e-06
5.60331e-06
5.61132e-06
5.63062e-06
5.66018e-06
5.69899e-06
5.74608e-06
5.80051e-06
5.86153e-06
5.92839e-06
6.00133e-06
6.07966e-06
6.17025e-06
6.27717e-06
1.23185e-05
1.25425e-05
1.27283e-05
1.28621e-05
1.2943e-05
1.29746e-05
1.29622e-05
1.29126e-05
1.2832e-05
1.27257e-05
1.25983e-05
1.24533e-05
1.22934e-05
1.21208e-05
1.19373e-05
1.17443e-05
1.1543e-05
1.13342e-05
1.11189e-05
1.08979e-05
1.0672e-05
1.0442e-05
1.02088e-05
9.97321e-06
9.73632e-06
9.49917e-06
9.26288e-06
9.02869e-06
8.79785e-06
8.57168e-06
8.35152e-06
8.13869e-06
7.93451e-06
7.74021e-06
7.55694e-06
7.38575e-06
7.22756e-06
7.08318e-06
6.95265e-06
6.83595e-06
6.73357e-06
6.64576e-06
6.5726e-06
6.51397e-06
6.4696e-06
6.4391e-06
6.42199e-06
6.41774e-06
6.42581e-06
6.44572e-06
6.4772e-06
6.52005e-06
6.57523e-06
6.64297e-06
6.73094e-06
6.84294e-06
1.23408e-05
1.25942e-05
1.28253e-05
1.30196e-05
1.31722e-05
1.32824e-05
1.33519e-05
1.33846e-05
1.33849e-05
1.33568e-05
1.33041e-05
1.32302e-05
1.31377e-05
1.3029e-05
1.29059e-05
1.277e-05
1.26226e-05
1.24647e-05
1.22974e-05
1.21214e-05
1.19375e-05
1.17466e-05
1.15493e-05
1.13464e-05
1.11387e-05
1.09271e-05
1.07125e-05
1.04957e-05
1.02779e-05
1.00602e-05
9.84361e-06
9.62939e-06
9.41873e-06
9.21286e-06
9.013e-06
8.82035e-06
8.63612e-06
8.46168e-06
8.29685e-06
8.14239e-06
7.99921e-06
7.86813e-06
7.74986e-06
7.64499e-06
7.55395e-06
7.47708e-06
7.41462e-06
7.36674e-06
7.3336e-06
7.3154e-06
7.31257e-06
7.32566e-06
7.35644e-06
7.406e-06
7.48257e-06
7.58975e-06
1.23593e-05
1.26329e-05
1.2894e-05
1.31294e-05
1.33332e-05
1.3502e-05
1.36356e-05
1.37352e-05
1.38033e-05
1.38427e-05
1.38564e-05
1.3847e-05
1.38169e-05
1.37682e-05
1.37027e-05
1.36221e-05
1.35275e-05
1.34202e-05
1.33013e-05
1.31715e-05
1.30317e-05
1.28826e-05
1.27249e-05
1.25594e-05
1.23867e-05
1.22076e-05
1.20227e-05
1.18329e-05
1.16389e-05
1.14417e-05
1.12422e-05
1.10413e-05
1.08402e-05
1.06398e-05
1.04412e-05
1.02457e-05
1.00545e-05
9.86887e-06
9.68872e-06
9.51512e-06
9.34913e-06
9.19183e-06
9.04427e-06
8.90744e-06
8.78231e-06
8.66977e-06
8.57068e-06
8.48587e-06
8.4162e-06
8.36258e-06
8.32617e-06
8.30832e-06
8.31153e-06
8.33766e-06
8.3952e-06
8.48789e-06
1.23746e-05
1.26626e-05
1.29441e-05
1.32075e-05
1.34469e-05
1.36584e-05
1.38403e-05
1.39921e-05
1.41149e-05
1.42105e-05
1.42805e-05
1.43271e-05
1.4352e-05
1.43572e-05
1.43442e-05
1.43144e-05
1.42692e-05
1.42097e-05
1.41369e-05
1.40518e-05
1.39551e-05
1.38475e-05
1.37299e-05
1.36028e-05
1.34669e-05
1.33229e-05
1.31713e-05
1.30128e-05
1.28481e-05
1.2678e-05
1.25032e-05
1.23244e-05
1.21426e-05
1.19587e-05
1.17735e-05
1.15881e-05
1.14039e-05
1.12213e-05
1.10409e-05
1.08637e-05
1.06906e-05
1.05229e-05
1.03616e-05
1.02079e-05
1.0063e-05
9.9282e-06
9.80459e-06
9.6935e-06
9.59629e-06
9.51441e-06
9.44961e-06
9.40382e-06
9.38012e-06
9.38089e-06
9.41463e-06
9.48553e-06
1.23868e-05
1.26852e-05
1.29805e-05
1.32627e-05
1.35267e-05
1.37685e-05
1.39856e-05
1.4177e-05
1.43425e-05
1.44828e-05
1.4599e-05
1.46923e-05
1.47642e-05
1.48159e-05
1.48489e-05
1.48643e-05
1.48634e-05
1.48473e-05
1.48168e-05
1.47729e-05
1.47165e-05
1.46481e-05
1.45687e-05
1.44787e-05
1.43788e-05
1.42696e-05
1.41518e-05
1.40258e-05
1.38923e-05
1.37518e-05
1.36051e-05
1.34528e-05
1.32955e-05
1.31341e-05
1.29694e-05
1.28022e-05
1.26335e-05
1.24636e-05
1.22933e-05
1.21235e-05
1.19551e-05
1.17891e-05
1.16266e-05
1.14687e-05
1.13167e-05
1.11719e-05
1.10357e-05
1.09094e-05
1.07948e-05
1.06935e-05
1.06076e-05
1.05394e-05
1.04922e-05
1.04686e-05
1.04769e-05
1.0522e-05
1.23959e-05
1.27013e-05
1.30055e-05
1.33e-05
1.35804e-05
1.38429e-05
1.4085e-05
1.43053e-05
1.45029e-05
1.46779e-05
1.48306e-05
1.49617e-05
1.50721e-05
1.51628e-05
1.52347e-05
1.5289e-05
1.53266e-05
1.53485e-05
1.53555e-05
1.53486e-05
1.53284e-05
1.52957e-05
1.52512e-05
1.51955e-05
1.51293e-05
1.50531e-05
1.49674e-05
1.48729e-05
1.477e-05
1.46592e-05
1.45413e-05
1.44166e-05
1.42858e-05
1.41496e-05
1.40086e-05
1.38637e-05
1.37152e-05
1.35636e-05
1.34097e-05
1.32543e-05
1.30981e-05
1.2942e-05
1.27871e-05
1.26343e-05
1.24847e-05
1.23396e-05
1.22004e-05
1.20684e-05
1.19454e-05
1.1833e-05
1.17334e-05
1.1649e-05
1.15829e-05
1.15379e-05
1.15217e-05
1.15401e-05
1.24019e-05
1.2711e-05
1.30201e-05
1.33218e-05
1.36123e-05
1.38881e-05
1.4147e-05
1.43874e-05
1.46083e-05
1.4809e-05
1.49895e-05
1.515e-05
1.52911e-05
1.54133e-05
1.55173e-05
1.56039e-05
1.5674e-05
1.57282e-05
1.57675e-05
1.57926e-05
1.58042e-05
1.58029e-05
1.57895e-05
1.57646e-05
1.57288e-05
1.56826e-05
1.56265e-05
1.55611e-05
1.54869e-05
1.54043e-05
1.53139e-05
1.52162e-05
1.51117e-05
1.5001e-05
1.48846e-05
1.4763e-05
1.46366e-05
1.45059e-05
1.43716e-05
1.42343e-05
1.40947e-05
1.39534e-05
1.38114e-05
1.36695e-05
1.35287e-05
1.33901e-05
1.32548e-05
1.31241e-05
1.29997e-05
1.2883e-05
1.27761e-05
1.26811e-05
1.2601e-05
1.25383e-05
1.25e-05
1.24931e-05
1.24048e-05
1.27143e-05
1.30247e-05
1.33293e-05
1.36246e-05
1.39078e-05
1.41768e-05
1.44301e-05
1.46665e-05
1.48851e-05
1.50858e-05
1.52682e-05
1.54326e-05
1.55793e-05
1.57087e-05
1.58214e-05
1.5918e-05
1.59991e-05
1.60654e-05
1.61175e-05
1.61562e-05
1.61821e-05
1.61957e-05
1.61976e-05
1.61885e-05
1.61689e-05
1.61392e-05
1.61e-05
1.60518e-05
1.5995e-05
1.59301e-05
1.58575e-05
1.57778e-05
1.56913e-05
1.55986e-05
1.54999e-05
1.53957e-05
1.52865e-05
1.51727e-05
1.50549e-05
1.49337e-05
1.48097e-05
1.46834e-05
1.45557e-05
1.44273e-05
1.42992e-05
1.41722e-05
1.40476e-05
1.39266e-05
1.38106e-05
1.37012e-05
1.36003e-05
1.35105e-05
1.34339e-05
1.33768e-05
1.33472e-05
1.24044e-05
1.27112e-05
1.30193e-05
1.33228e-05
1.36185e-05
1.3904e-05
1.41773e-05
1.44372e-05
1.46825e-05
1.49124e-05
1.51263e-05
1.53238e-05
1.55049e-05
1.56696e-05
1.58182e-05
1.5951e-05
1.60685e-05
1.6171e-05
1.62592e-05
1.63337e-05
1.63949e-05
1.64435e-05
1.64799e-05
1.65049e-05
1.65188e-05
1.65222e-05
1.65157e-05
1.64995e-05
1.64744e-05
1.64405e-05
1.63985e-05
1.63486e-05
1.62915e-05
1.62273e-05
1.61564e-05
1.60793e-05
1.59963e-05
1.59077e-05
1.58141e-05
1.57158e-05
1.56133e-05
1.5507e-05
1.53975e-05
1.52853e-05
1.51711e-05
1.50556e-05
1.49395e-05
1.48237e-05
1.47091e-05
1.4597e-05
1.44886e-05
1.43853e-05
1.42893e-05
1.42024e-05
1.413e-05
1.40812e-05
1.24007e-05
1.27015e-05
1.30039e-05
1.33023e-05
1.35942e-05
1.38773e-05
1.415e-05
1.4411e-05
1.46594e-05
1.48944e-05
1.51153e-05
1.53217e-05
1.55134e-05
1.56901e-05
1.58521e-05
1.59994e-05
1.61324e-05
1.62513e-05
1.63566e-05
1.64487e-05
1.65281e-05
1.65953e-05
1.66507e-05
1.66949e-05
1.67283e-05
1.67513e-05
1.67646e-05
1.67684e-05
1.67633e-05
1.67496e-05
1.67277e-05
1.66981e-05
1.6661e-05
1.66168e-05
1.65659e-05
1.65085e-05
1.6445e-05
1.63757e-05
1.6301e-05
1.62212e-05
1.61366e-05
1.60477e-05
1.59548e-05
1.58583e-05
1.57587e-05
1.56565e-05
1.55523e-05
1.54467e-05
1.53404e-05
1.52341e-05
1.5129e-05
1.50259e-05
1.49266e-05
1.48324e-05
1.47483e-05
1.4684e-05
1.23937e-05
1.26852e-05
1.29782e-05
1.32679e-05
1.35518e-05
1.38281e-05
1.40953e-05
1.43524e-05
1.45985e-05
1.4833e-05
1.50553e-05
1.52648e-05
1.54613e-05
1.56446e-05
1.58145e-05
1.59711e-05
1.61145e-05
1.6245e-05
1.63628e-05
1.64682e-05
1.65617e-05
1.66435e-05
1.67141e-05
1.6774e-05
1.68234e-05
1.6863e-05
1.6893e-05
1.69138e-05
1.6926e-05
1.69297e-05
1.69254e-05
1.69134e-05
1.68941e-05
1.68677e-05
1.68346e-05
1.6795e-05
1.67492e-05
1.66975e-05
1.66402e-05
1.65776e-05
1.65098e-05
1.64372e-05
1.63601e-05
1.62788e-05
1.61935e-05
1.61046e-05
1.60125e-05
1.59176e-05
1.58203e-05
1.57211e-05
1.56207e-05
1.55197e-05
1.54194e-05
1.53209e-05
1.52284e-05
1.51524e-05
1.23833e-05
1.26621e-05
1.29421e-05
1.3219e-05
1.34908e-05
1.37559e-05
1.40131e-05
1.42614e-05
1.45003e-05
1.47291e-05
1.49473e-05
1.51546e-05
1.53506e-05
1.5535e-05
1.57077e-05
1.58686e-05
1.60177e-05
1.61552e-05
1.62811e-05
1.63957e-05
1.64993e-05
1.65921e-05
1.66744e-05
1.67466e-05
1.68091e-05
1.68621e-05
1.6906e-05
1.69412e-05
1.6968e-05
1.69866e-05
1.69976e-05
1.7001e-05
1.69973e-05
1.69866e-05
1.69694e-05
1.69457e-05
1.69159e-05
1.68802e-05
1.68388e-05
1.67918e-05
1.67396e-05
1.66822e-05
1.66199e-05
1.65529e-05
1.64813e-05
1.64054e-05
1.63252e-05
1.62411e-05
1.61532e-05
1.60617e-05
1.59671e-05
1.58698e-05
1.57705e-05
1.56703e-05
1.55729e-05
1.54891e-05
1.23695e-05
1.26319e-05
1.2895e-05
1.31551e-05
1.34107e-05
1.36602e-05
1.39027e-05
1.41375e-05
1.43642e-05
1.45823e-05
1.47915e-05
1.49915e-05
1.51819e-05
1.53625e-05
1.5533e-05
1.56935e-05
1.58438e-05
1.59838e-05
1.61137e-05
1.62336e-05
1.63436e-05
1.64438e-05
1.65345e-05
1.6616e-05
1.66884e-05
1.67522e-05
1.68074e-05
1.68544e-05
1.68935e-05
1.69249e-05
1.69489e-05
1.69658e-05
1.69758e-05
1.69791e-05
1.6976e-05
1.69667e-05
1.69513e-05
1.693e-05
1.69031e-05
1.68706e-05
1.68327e-05
1.67895e-05
1.67411e-05
1.66876e-05
1.66291e-05
1.65656e-05
1.64971e-05
1.64237e-05
1.63455e-05
1.62624e-05
1.61746e-05
1.60823e-05
1.59862e-05
1.58869e-05
1.57881e-05
1.57006e-05
1.23519e-05
1.25941e-05
1.28363e-05
1.30755e-05
1.33103e-05
1.35397e-05
1.3763e-05
1.39797e-05
1.41895e-05
1.43922e-05
1.45875e-05
1.47753e-05
1.49553e-05
1.51274e-05
1.52912e-05
1.54467e-05
1.55938e-05
1.57323e-05
1.58622e-05
1.59835e-05
1.60963e-05
1.62007e-05
1.62966e-05
1.63844e-05
1.64641e-05
1.65359e-05
1.66e-05
1.66566e-05
1.67058e-05
1.6748e-05
1.67833e-05
1.68118e-05
1.68339e-05
1.68497e-05
1.68593e-05
1.68629e-05
1.68607e-05
1.68527e-05
1.68392e-05
1.68201e-05
1.67956e-05
1.67658e-05
1.67306e-05
1.669e-05
1.66441e-05
1.65927e-05
1.65359e-05
1.64734e-05
1.64053e-05
1.63314e-05
1.62516e-05
1.61661e-05
1.60753e-05
1.598e-05
1.58836e-05
1.57968e-05
1.23303e-05
1.25481e-05
1.2765e-05
1.29787e-05
1.31883e-05
1.3393e-05
1.35925e-05
1.37865e-05
1.39749e-05
1.41576e-05
1.43346e-05
1.45057e-05
1.46709e-05
1.483e-05
1.49829e-05
1.51292e-05
1.5269e-05
1.5402e-05
1.55282e-05
1.56474e-05
1.57597e-05
1.58649e-05
1.59631e-05
1.60543e-05
1.61386e-05
1.62161e-05
1.62868e-05
1.63508e-05
1.64083e-05
1.64595e-05
1.65043e-05
1.65431e-05
1.65758e-05
1.66027e-05
1.66238e-05
1.66393e-05
1.66493e-05
1.66537e-05
1.66528e-05
1.66465e-05
1.66348e-05
1.66178e-05
1.65954e-05
1.65675e-05
1.65341e-05
1.6495e-05
1.64501e-05
1.63991e-05
1.63419e-05
1.62783e-05
1.62081e-05
1.61315e-05
1.60489e-05
1.59611e-05
1.58714e-05
1.57902e-05
1.23042e-05
1.24929e-05
1.26798e-05
1.28633e-05
1.30429e-05
1.32184e-05
1.33895e-05
1.35564e-05
1.37191e-05
1.38777e-05
1.40322e-05
1.41827e-05
1.43292e-05
1.44714e-05
1.46094e-05
1.47428e-05
1.48716e-05
1.49955e-05
1.51145e-05
1.52283e-05
1.53368e-05
1.54398e-05
1.55374e-05
1.56295e-05
1.57159e-05
1.57967e-05
1.58718e-05
1.59414e-05
1.60054e-05
1.60638e-05
1.61168e-05
1.61644e-05
1.62066e-05
1.62436e-05
1.62753e-05
1.63018e-05
1.63232e-05
1.63395e-05
1.63507e-05
1.63568e-05
1.63577e-05
1.63535e-05
1.63439e-05
1.63289e-05
1.63084e-05
1.62821e-05
1.62499e-05
1.62114e-05
1.61666e-05
1.6115e-05
1.60567e-05
1.59918e-05
1.59209e-05
1.5845e-05
1.57673e-05
1.56974e-05
1.22728e-05
1.24271e-05
1.25788e-05
1.27271e-05
1.28721e-05
1.30138e-05
1.31525e-05
1.32883e-05
1.34216e-05
1.35525e-05
1.36812e-05
1.38077e-05
1.3932e-05
1.40541e-05
1.41739e-05
1.42912e-05
1.44058e-05
1.45176e-05
1.46262e-05
1.47316e-05
1.48335e-05
1.49317e-05
1.5026e-05
1.51164e-05
1.52026e-05
1.52846e-05
1.53622e-05
1.54355e-05
1.55043e-05
1.55685e-05
1.56283e-05
1.56835e-05
1.57342e-05
1.57804e-05
1.5822e-05
1.5859e-05
1.58914e-05
1.59193e-05
1.59425e-05
1.5961e-05
1.59747e-05
1.59835e-05
1.59873e-05
1.59859e-05
1.59792e-05
1.59668e-05
1.59487e-05
1.59245e-05
1.5894e-05
1.58571e-05
1.58138e-05
1.57644e-05
1.57096e-05
1.56509e-05
1.55914e-05
1.55394e-05
1.22353e-05
1.23491e-05
1.24602e-05
1.25684e-05
1.26743e-05
1.27785e-05
1.28812e-05
1.29829e-05
1.3084e-05
1.31845e-05
1.32848e-05
1.33849e-05
1.34848e-05
1.35844e-05
1.36836e-05
1.37823e-05
1.38803e-05
1.39774e-05
1.40733e-05
1.41678e-05
1.42606e-05
1.43515e-05
1.44403e-05
1.45268e-05
1.46107e-05
1.46919e-05
1.47702e-05
1.48455e-05
1.49175e-05
1.49863e-05
1.50517e-05
1.51136e-05
1.51719e-05
1.52266e-05
1.52776e-05
1.53248e-05
1.53682e-05
1.54076e-05
1.5443e-05
1.54743e-05
1.55014e-05
1.55241e-05
1.55423e-05
1.55557e-05
1.55643e-05
1.55677e-05
1.55658e-05
1.55583e-05
1.55452e-05
1.55265e-05
1.55022e-05
1.54729e-05
1.54398e-05
1.54047e-05
1.53706e-05
1.53442e-05
1.21906e-05