/*--------------------------------*- C++ -*----------------------------------*\
  =========                 |
  \\      /  F ield         | OpenFOAM: The Open Source CFD Toolbox
   \\    /   O peration     | Website:  https://openfoam.org
    \\  /    A nd           | Version:  6
     \\/     M anipulation  |
\*---------------------------------------------------------------------------*/
FoamFile
{
    version     2.0;
    format      ascii;
    class       volVectorField;
    location    "0";
    object      U;
}
// * * * * * * * * * * * * * * * * * * * * * * * * * * * * * * * * * * * * * //

dimensions      [0 1 -1 0 0 0 0];

internalField   nonuniform List<vector> 
13046
(
(-0.188645 0.0274198 0)
(-0.732781 -0.384102 -1.04358e-21)
(-0.221816 -0.156052 -2.08707e-21)
(-0.256008 -0.061309 0)
(-0.138839 -0.0864579 -2.19053e-21)
(-0.6212 -0.362145 0)
(-0.271057 -0.046257 3.88632e-22)
(-0.696273 -0.412147 4.82098e-22)
(-0.103871 -0.0647229 -2.36148e-21)
(-0.594088 0.226517 1.0805e-21)
(-1.30224 -0.707025 0)
(0.0501295 0.0777893 1.08413e-21)
(-0.254812 0.0455455 -1.32115e-21)
(-0.895898 -0.486475 -1.01521e-21)
(-0.116952 -0.0901033 1.1284e-21)
(-0.537027 0.262031 -1.47525e-21)
(0.00176675 0.0427945 2.35987e-21)
(-1.36988 -0.646938 -1.38343e-21)
(-0.129202 -0.0397794 0)
(-0.449538 -0.286163 -1.12774e-21)
(-0.408677 -0.177343 3.95202e-21)
(-0.547129 0.253497 -6.03391e-22)
(0.0154557 0.0525655 -3.18093e-21)
(-1.35966 -0.662054 0)
(-0.200135 -0.0339655 1.61131e-21)
(-0.59696 -0.321974 -2.81389e-21)
(-0.22321 -0.150859 0)
(-0.252323 0.0716759 -2.39451e-21)
(-0.930172 -0.490247 3.26853e-22)
(-0.13358 -0.102645 -1.9237e-21)
(-0.179207 0.0493863 0)
(-0.762408 -0.378866 0)
(-0.244227 -0.175959 2.12394e-21)
(-0.204942 -0.0554863 -1.87215e-21)
(-0.248738 -0.162674 7.87693e-22)
(-0.518955 -0.278758 4.89812e-21)
(-0.235226 -0.0821884 -2.78461e-21)
(-0.237625 -0.144297 1.28863e-21)
(-0.482182 -0.265087 -2.45892e-21)
(-0.110531 0.0770828 1.97094e-21)
(-0.465238 -0.346772 3.32902e-22)
(-0.685597 -0.284299 -1.78876e-21)
(-0.310958 -0.151573 1.20096e-21)
(-0.254526 -0.135549 2.02411e-21)
(-0.357583 -0.202153 0)
(-0.328916 -0.150329 8.62084e-22)
(-0.20224 -0.101969 -3.13275e-21)
(-0.396538 -0.232114 -3.68115e-22)
(-0.205836 0.0182956 0)
(-0.754023 -0.407212 -6.90579e-23)
(-0.173645 -0.127033 -6.426e-23)
(-0.706462 -0.541197 1.50014e-21)
(-0.0775489 0.107218 0)
(-0.668421 -0.209465 -1.97897e-21)
(-0.791601 -0.603542 -2.13011e-21)
(-0.631321 -0.184324 -3.46014e-21)
(-0.0587346 0.101382 2.82891e-21)
(-1.28047 -0.520341 8.16498e-23)
(-0.391608 0.242129 0)
(-0.206869 -0.156025 1.26272e-21)
(-0.394629 0.0332245 -1.28535e-21)
(-1.07658 -0.669346 2.51628e-22)
(0.0289829 0.024609 -4.80426e-21)
(0.034641 0.040024 2.1057e-21)
(-1.32655 -0.723772 5.49619e-22)
(-0.519799 0.181858 -1.92541e-21)
(-0.363276 0.239182 0)
(-1.23333 -0.478201 0)
(-0.267356 -0.216183 0)
(-0.335447 0.224705 -8.83588e-22)
(-1.18778 -0.461744 0)
(-0.289886 -0.236916 9.37786e-22)
(-1.31949 -0.528815 0)
(-0.419361 0.256365 1.19444e-23)
(-0.185173 -0.140681 -3.85734e-23)
(-0.113933 -0.0204766 0)
(-0.448299 -0.296713 1.2201e-21)
(-0.455151 -0.206839 -2.70659e-21)
(-0.112307 -0.0691411 1.35427e-21)
(-0.457755 0.259997 -2.72396e-21)
(-1.35479 -0.573003 0)
(-0.215172 -0.0304413 8.71956e-22)
(-0.634515 -0.348134 0)
(-0.184364 -0.120462 0)
(0.0374047 0.0485393 -1.82861e-21)
(-1.33788 -0.723141 6.44008e-22)
(-0.542172 0.197271 1.13396e-21)
(-0.549701 0.115917 -1.97584e-21)
(0.0679325 0.0565808 0)
(-1.2868 -0.804083 3.54624e-22)
(0.0540787 0.0627285 0)
(-0.617721 0.0579215 0)
(-1.25467 -0.887566 -7.07511e-23)
(-0.377152 0.128698 0)
(-0.408559 0.133302 1.13332e-21)
(-1.17562 -0.627507 8.24676e-23)
(-1.21182 -0.661429 -1.05773e-23)
(-0.0396851 -0.0308259 -8.94803e-22)
(-0.0105139 -0.00648109 2.28912e-21)
(0.0688148 0.0574202 -1.21738e-22)
(-0.548468 0.0945164 1.93278e-21)
(-1.26826 -0.819835 0)
(-0.315334 -0.130348 3.42479e-24)
(-0.174144 -0.0910974 1.615e-21)
(-0.457748 -0.273208 0)
(-0.0192042 0.0658447 0)
(-0.513308 -0.13536 -1.14462e-21)
(-0.771954 -0.548793 0)
(-0.0724736 0.0883058 3.30542e-21)
(-0.630466 -0.467567 0)
(-0.634496 -0.224199 -4.25431e-21)
(-0.587312 0.242423 0)
(0.0425804 0.0959841 0)
(-1.12625 -0.62821 2.79436e-21)
(-0.234563 0.028239 3.63468e-21)
(-0.837683 -0.451026 5.89577e-22)
(-0.130325 -0.0953984 1.99611e-21)
(-0.413847 0.177949 1.44116e-21)
(-0.380568 0.154654 -2.71037e-21)
(-1.25483 -0.626212 8.17017e-24)
(-0.0573439 -0.0369991 9.5578e-22)
(-1.20221 -0.609479 -2.28197e-22)
(-0.0650334 -0.0471789 -8.9288e-22)
(-0.593301 0.237971 -7.75785e-22)
(-1.28059 -0.686922 2.72871e-21)
(0.0475813 0.0835893 -4.70458e-22)
(-0.314722 0.106525 0)
(-1.06808 -0.565283 -4.193e-22)
(-0.0876918 -0.0730501 2.23239e-21)
(-0.133459 0.0829233 0)
(-0.407701 -0.306062 -1.734e-21)
(-0.737482 -0.320038 9.77072e-23)
(0.0513699 0.0639224 0)
(-0.592959 0.0404 0)
(-1.24218 -0.878249 0)
(-0.468193 0.133338 0)
(-1.26268 -0.72287 8.70605e-22)
(0.0341678 0.0277771 -2.49419e-21)
(-0.198568 0.0648753 0)
(-0.825886 -0.41445 0)
(-0.225801 -0.171751 0)
(-0.348088 -0.0423007 0)
(-0.847833 -0.536077 0)
(-0.0155213 0.00166307 0)
(-0.0605299 0.0900318 0)
(-0.690198 -0.51121 0)
(-0.618538 -0.201744 2.36414e-21)
(-0.0237893 0.0549411 -3.12015e-22)
(-0.496062 -0.141514 -2.6574e-21)
(-0.754446 -0.525193 1.79638e-21)
(-0.4073 0.0520811 2.93972e-21)
(-1.11868 -0.68888 0)
(0.0332486 0.0213746 6.22215e-21)
(-0.0405321 0.010349 0)
(-0.404537 -0.120125 2.76403e-21)
(-0.685147 -0.453506 -4.60181e-22)
(-0.934242 -0.689044 0)
(-0.54964 -0.109864 2.65379e-21)
(-1.00187 -0.724253 0)
(-0.520378 -0.0745512 1.56706e-21)
(-0.010577 0.0839338 0)
(0.0105081 0.0752654 0)
(-0.411313 -0.0806812 3.82209e-22)
(-0.832047 -0.559626 7.4703e-22)
(0.000180493 0.0296617 -1.34154e-21)
(-0.606824 0.211496 -1.0911e-21)
(0.0560992 0.0765804 0)
(-1.28714 -0.728447 2.48997e-21)
(-0.591518 0.243969 -6.3082e-22)
(0.0450968 0.0941829 -2.13156e-22)
(-1.19325 -0.650098 0)
(-0.478884 0.150773 -1.65875e-21)
(-1.28244 -0.720109 0)
(0.0304466 0.0274942 2.82853e-21)
(-0.178262 0.130895 0)
(-0.868213 -0.353694 4.15411e-22)
(-0.42634 -0.335372 9.11443e-22)
(-0.42982 -0.0986502 2.39689e-21)
(-0.00998589 0.0355937 6.73357e-22)
(-0.78261 -0.52371 0)
(0.0653255 0.0699554 0)
(-1.29399 -0.7806 0)
(-0.613435 0.175419 8.86421e-22)
(-0.151211 0.115265 0)
(-0.808145 -0.326923 -1.03355e-21)
(-0.444599 -0.336613 2.44661e-22)
(-0.0274084 0.0245209 0)
(-0.423881 -0.119399 0)
(-0.698637 -0.471456 0)
(-0.334254 -0.0568406 1.20721e-21)
(-0.795886 -0.503949 0)
(-0.0288717 -0.00817246 0)
(-0.963899 -0.541466 3.37607e-23)
(-0.0661633 -0.0535504 -1.40668e-21)
(-0.294294 0.0882385 3.78336e-21)
(-1.02376 -0.543725 0)
(-0.0925371 -0.0736548 -2.79759e-21)
(-0.562326 0.159962 -2.01141e-21)
(0.0613031 0.0576657 1.75387e-21)
(-1.31655 -0.773774 2.7138e-21)
(0.0621103 0.0617004 1.80861e-21)
(-0.557607 0.0549609 1.19421e-21)
(-1.24358 -0.848733 -1.44739e-21)
(-0.59871 0.0941625 -3.08675e-21)
(-1.27649 -0.846902 0)
(0.0680668 0.0612124 -1.7569e-21)
(-0.740152 -0.587909 -7.16217e-23)
(-0.760277 -0.226908 8.63488e-22)
(-0.116077 0.138618 0)
(-0.27974 -0.00664406 -5.52944e-21)
(-0.449646 0.270167 1.39693e-21)
(-0.13678 -0.089041 -8.08235e-22)
(-1.35738 -0.562263 0)
(-1.27843 -0.840504 0)
(-0.615827 0.114773 -2.76393e-21)
(0.0694458 0.0625316 0)
(-0.269387 -0.0961784 -4.19006e-21)
(-0.185091 -0.107527 -1.26575e-21)
(-0.504156 -0.291301 3.52506e-21)
(-0.234595 0.0818376 0)
(-0.912827 -0.466522 -5.13118e-23)
(-0.177357 -0.131808 -1.02833e-21)
(0.0555914 0.0638962 1.45238e-21)
(-0.569853 0.0408856 0)
(-1.23361 -0.863081 1.66813e-21)
(-0.295175 0.0102458 4.45043e-21)
(-0.941734 -0.542922 1.70283e-21)
(-0.0529022 -0.0424775 0)
(0.054464 0.0841397 0)
(-1.21384 -0.704722 -3.10446e-21)
(-0.622425 0.218036 0)
(-0.0928622 0.126654 0)
(-0.709434 -0.201018 0)
(-0.79319 -0.631604 0)
(-0.569936 0.081783 2.70889e-21)
(-1.26919 -0.836253 0)
(0.0679699 0.0600316 -3.24429e-23)
(-0.460611 -0.0754975 1.01754e-21)
(-0.917953 -0.6416 -4.33304e-22)
(0.0147904 0.0555055 0)
(-0.31166 0.12318 0)
(-1.07904 -0.552737 4.05938e-22)
(-0.112933 -0.0887263 1.71665e-21)
(-1.16304 -0.863925 6.54112e-22)
(-0.580044 -0.0290359 -2.06576e-21)
(0.0196788 0.0781717 1.1843e-21)
(-0.540568 -0.0666717 0)
(-1.05172 -0.768269 -1.5348e-22)
(0.00999729 0.0790538 -4.42801e-23)
(0.0532376 0.0822516 -1.54237e-21)
(-1.18343 -0.705211 0)
(-0.632688 0.20956 -5.46936e-22)
(-0.112302 0.109507 1.80745e-21)
(-0.56497 -0.42829 -1.07671e-21)
(-0.730385 -0.273407 1.54715e-22)
(-0.53476 0.267793 5.91065e-22)
(0.0360066 0.105158 -1.91472e-21)
(-1.11291 -0.55243 0)
(-0.124265 -0.0518846 -7.74057e-22)
(-0.360571 -0.146363 -3.22005e-21)
(-0.493821 -0.308721 3.35808e-21)
(-0.405958 -0.0309938 1.36885e-21)
(-0.430448 -0.0653214 5.11739e-23)
(-0.966336 -0.63935 -1.14568e-21)
(-0.905648 -0.619158 0)
(0.0146722 0.0434578 1.21942e-21)
(0.0248561 0.0351237 -1.21532e-21)
(-0.0820682 -0.0388226 -1.77241e-21)
(-0.478527 0.265674 1.44551e-21)
(-1.37723 -0.586014 2.57522e-21)
(-0.284162 0.12344 0)
(-1.03879 -0.515244 0)
(-0.159033 -0.121164 -2.24281e-21)
(-0.537656 -0.0395857 -5.50428e-22)
(-1.10238 -0.804646 0)
(0.0232713 0.0749594 0)
(-0.442241 0.159469 -1.38957e-21)
(-1.26317 -0.671923 0)
(-0.00646378 -0.000241493 9.58776e-22)
(-0.270771 -0.127979 8.08641e-22)
(-0.36678 -0.195022 1.12712e-21)
(-0.285067 -0.159106 -4.11314e-22)
(-0.479037 -0.054475 -1.98265e-21)
(-1.00078 -0.703332 0)
(0.0243329 0.0629784 -2.04541e-21)
(-0.29038 0.139603 0)
(-1.06339 -0.511098 5.38936e-22)
(-0.174967 -0.135689 -1.2951e-21)
(-0.287452 0.0368583 0)
(-0.309619 0.0509231 4.52845e-22)
(-0.120381 0.119585 6.52178e-22)
(-0.581461 -0.448489 3.05289e-21)
(-0.752561 -0.271386 -3.60636e-21)
(-0.467681 -0.0273498 -2.11347e-21)
(-1.04884 -0.728856 4.78781e-22)
(0.0374844 0.057552 1.8712e-21)
(-0.466139 0.164063 0)
(0.0114278 0.0155564 -3.46567e-21)
(-1.2887 -0.694647 7.77497e-22)
(-0.073826 0.0760296 -4.59599e-21)
(-0.593914 -0.441221 0)
(-0.61613 -0.227606 1.36177e-21)
(-0.0254677 0.0948945 -2.53505e-21)
(-0.585721 -0.120211 -1.41626e-21)
(-0.935947 -0.710434 0)
(-0.370661 0.184317 -1.37142e-21)
(-1.21268 -0.56432 -9.45142e-23)
(-0.129228 -0.0946506 5.49165e-22)
(-0.100202 0.119124 2.32481e-22)
(-0.669795 -0.516764 0)
(-0.718909 -0.235504 2.72513e-21)
(-0.398356 0.199775 0)
(-0.41728 0.198182 0)
(-1.25753 -0.584627 1.78232e-22)
(-0.110727 -0.0772515 -1.49013e-21)
(-1.27463 -0.612855 -2.52478e-22)
(-0.077842 -0.048651 1.54157e-21)
(0.0624469 0.0674752 -1.31783e-21)
(-1.3074 -0.769592 0)
(-0.596428 0.182532 -1.36925e-21)
(-0.351477 0.148807 1.60363e-21)
(-1.15887 -0.581192 0)
(-0.0965661 -0.0722788 5.72074e-22)
(-0.952511 -0.538096 -9.73574e-21)
(0.029749 0.0971703 1.77349e-21)
(-0.526762 0.239816 7.5188e-22)
(-0.411892 -0.146929 -1.57146e-21)
(-0.0640917 -0.00174109 0)
(-0.595993 -0.390441 0)
(-0.362887 0.0225028 3.044e-21)
(-1.02335 -0.627329 0)
(0.0141937 0.010648 3.78525e-21)
(0.0540209 0.048819 -1.11718e-21)
(-0.531954 0.152657 4.15328e-21)
(-1.30818 -0.758064 -1.55574e-21)
(-0.820299 -0.6318 0)
(-0.644387 -0.175241 1.23607e-21)
(-0.0604841 0.109082 -3.20711e-21)
(-1.18921 -0.868616 1.69766e-21)
(-0.571591 -0.00308632 -1.25484e-21)
(0.0350197 0.0709282 0)
(-0.855083 -0.496031 -2.31412e-21)
(-0.0702005 -0.0490227 0)
(-0.358264 0.0706763 3.22236e-21)
(-1.07828 -0.624216 3.28624e-22)
(-0.010397 -0.0146935 1.09816e-21)
(-0.842532 -0.509088 1.24033e-21)
(-0.0492593 -0.0336539 -7.59777e-24)
(-0.522388 0.251716 -9.66105e-23)
(-0.0109897 0.0263618 1.12015e-21)
(-1.37105 -0.643553 2.03103e-21)
(-0.719778 -0.593506 0)
(-0.816992 -0.248622 2.39507e-22)
(-0.143958 0.153986 0)
(-0.382684 0.0853081 -3.28007e-21)
(-1.13507 -0.651077 -4.00296e-22)
(0.00456381 -0.00156153 -1.26918e-21)
(-0.373717 -0.0518763 0)
(-0.852396 -0.557932 -1.08469e-21)
(-0.00242633 0.0167246 0)
(-0.562836 -0.165131 0)
(-0.74352 -0.550147 0)
(-0.037747 0.0785041 0)
(-0.215816 -0.00704717 -1.20721e-21)
(-0.70362 -0.389695 -1.4922e-21)
(-0.166191 -0.115936 -2.2127e-23)
(-0.0444476 0.104891 3.12979e-21)
(-0.622166 -0.146578 3.46728e-21)
(-0.892232 -0.683018 6.41872e-22)
(-0.576374 0.136989 -1.60101e-21)
(-1.29914 -0.796751 -2.37776e-21)
(0.0681501 0.0602802 -1.74022e-21)
(-1.19925 -0.852279 -1.02754e-21)
(-0.553676 0.0113308 1.27135e-21)
(0.0460704 0.0670275 1.4997e-21)
(-0.281405 0.204083 -2.63656e-21)
(-0.382859 -0.3118 1.33097e-21)
(-1.09651 -0.40999 -5.98113e-22)
(-0.438198 0.236324 7.92846e-22)
(-0.414317 0.223074 -7.30434e-22)
(-1.29158 -0.570736 5.69806e-23)
(-1.32367 -0.582736 0)
(-0.10984 -0.0691747 -4.83555e-22)
(-0.129662 -0.0904506 -4.70907e-22)
(0.0336476 0.100868 -2.39721e-21)
(-1.00322 -0.543085 1.07241e-20)
(-0.533756 0.245395 4.44011e-22)
(-0.54148 0.270732 -4.37721e-23)
(0.0358509 0.103163 2.65451e-21)
(-1.16371 -0.566256 0)
(-0.422322 -0.0150799 -4.84783e-21)
(-1.02738 -0.673716 -1.65638e-22)
(0.0322269 0.0393545 0)
(0.059754 0.0612177 -3.36133e-21)
(-0.573676 0.174845 1.36113e-21)
(-1.32243 -0.765445 0)
(-0.333103 0.201763 3.97954e-21)
(-0.357402 0.206617 -2.95811e-21)
(-1.17137 -0.495759 3.07857e-22)
(-1.20854 -0.521116 4.8452e-23)
(-0.24013 -0.187066 -9.03392e-22)
(-0.196962 -0.148997 -4.61988e-22)
(0.0636771 0.0616727 0)
(-1.24473 -0.834462 0)
(-0.656562 0.120676 4.42749e-22)
(-0.502009 0.26776 -6.9411e-22)
(0.0341259 0.107786 0)
(-1.05274 -0.509276 0)
(-0.423252 -0.20469 5.42684e-23)
(-0.168422 -0.0574103 1.79211e-21)
(-0.363732 -0.231951 7.68181e-22)
(-0.556167 0.251256 -1.01526e-21)
(-1.09352 -0.586977 -4.08689e-21)
(0.0385683 0.101112 1.2797e-22)
(-0.21148 0.136272 0)
(-0.930715 -0.397557 -1.5765e-21)
(-0.348006 -0.272715 -7.57327e-23)
(-0.617353 0.162195 4.88821e-23)
(-1.29139 -0.795864 -4.65494e-21)
(0.0679243 0.0678751 -2.67418e-24)
(-0.833578 -0.524639 -2.77762e-22)
(0.0211304 0.0827931 -1.09313e-21)
(-0.522278 0.195331 -1.1495e-22)
(-0.0930274 0.0581261 -1.6698e-21)
(-0.480998 -0.346204 1.11315e-21)
(-0.619197 -0.255357 4.39292e-21)
(-0.340527 -0.122231 0)
(-0.568481 -0.351899 -3.72416e-21)
(-0.104176 -0.0449217 2.04868e-21)
(-0.580358 0.251972 0)
(0.0423464 0.0843783 1.38749e-21)
(-1.28633 -0.671432 -1.16838e-22)
(-0.354995 -0.115373 0)
(-0.603754 -0.378255 -1.1375e-21)
(-0.0784077 -0.0235708 -2.92678e-21)
(-0.390409 -0.191608 1.72767e-21)
(-0.195439 -0.0809622 -9.52141e-22)
(-0.350821 -0.214695 4.27065e-22)
(-0.0878378 0.128564 1.56101e-21)
(-0.70503 -0.184481 -1.16116e-21)
(-0.862714 -0.692254 7.24349e-22)
(-0.460598 -0.190802 0)
(-0.491742 -0.322555 0)
(-0.0908729 -0.00158333 2.63584e-22)
(-0.451234 -0.166763 2.4859e-21)
(-0.559184 -0.365464 8.83e-22)
(-0.0736746 0.00757528 3.65747e-23)
(-0.255941 0.193533 4.01019e-21)
(-1.04057 -0.382513 -1.06465e-21)
(-0.435224 -0.360488 -1.3746e-21)
(0.0364311 0.0649912 2.07134e-21)
(0.0444644 0.0682877 -2.23107e-21)
(-1.33952 -0.700069 -1.74035e-21)
(-1.3291 -0.712668 -1.10049e-21)
(-0.567 0.236591 0)
(-0.577402 0.225513 -1.10623e-21)
(-0.59688 0.14277 1.97886e-21)
(-1.297 -0.803462 2.6153e-21)
(0.0691857 0.0630736 2.16448e-21)
(-0.365124 -0.306251 -9.02939e-22)
(-0.309277 0.222567 8.51823e-22)
(-1.14481 -0.423098 7.62285e-22)
(-0.124973 0.10538 -1.65012e-21)
(-0.502318 -0.380343 -1.0218e-21)
(-0.750654 -0.295298 1.29336e-21)
(-0.585009 -0.0902193 0)
(-1.03928 -0.787062 1.58867e-22)
(-0.0135817 0.0913381 4.57809e-23)
(-0.975986 -0.635598 -3.39055e-21)
(0.0364332 0.0750373 -1.0953e-21)
(-0.622255 0.183854 -2.6472e-22)
(0.0607018 0.0615152 0)
(-0.620924 0.078387 0)
(-1.26032 -0.876889 -1.59453e-21)
(-0.604612 0.233692 8.09913e-22)
(0.05013 0.0881633 0)
(-1.22571 -0.682826 3.04698e-21)
(0.0163065 0.0819709 -4.00354e-33)
(-0.766745 -0.478089 5.0368e-21)
(-0.476963 0.190014 1.00985e-22)
(-0.78581 -0.426722 -5.67822e-21)
(0.0205833 0.0909807 3.99436e-33)
(-0.445711 0.222912 -9.90633e-23)
(-1.14283 -0.746348 -2.89026e-22)
(-0.459267 0.0287826 0)
(0.0505921 0.0468933 -3.68109e-21)
(-1.16331 -0.770814 1.52277e-21)
(0.0555087 0.0641161 -1.17348e-21)
(-0.677425 0.151676 0)
(-0.486881 0.125088 -2.08577e-21)
(-1.26536 -0.745319 -6.06552e-22)
(0.04662 0.0371001 1.73657e-21)
(-0.537975 0.285681 2.87484e-21)
(0.00417815 0.060164 7.18845e-22)
(-1.35277 -0.60045 0)
(-0.25442 0.00157108 9.5923e-22)
(-0.0988653 -0.0696974 -7.06612e-22)
(-0.822038 -0.465884 5.99236e-22)
(-1.25584 -0.852412 -9.20031e-22)
(0.0641906 0.0608663 1.27561e-21)
(-0.647319 0.107763 5.73001e-22)
(-0.602821 -0.10891 -1.41019e-21)
(-0.0266675 0.098087 -8.40739e-22)
(-0.998669 -0.760476 0)
(-1.12056 -0.801016 0)
(-0.51902 -0.0176016 0)
(0.0370194 0.0685145 0)
(0.00485768 0.0528854 0)
(-0.425063 -0.232721 5.31155e-21)
(-0.266706 0.119216 -2.06434e-22)
(-0.954544 -0.565615 -4.24002e-21)
(0.029995 0.092312 -1.30566e-21)
(-0.550064 0.225668 -4.3228e-22)
(-0.246112 -0.0156851 -2.49762e-21)
(-0.118191 -0.0815661 1.79854e-21)
(-0.748743 -0.429757 7.60658e-22)
(-1.25729 -0.80499 -5.14911e-21)
(-0.644485 0.14838 -8.64045e-22)
(0.0659925 0.0660363 0)
(0.0600964 0.060246 -1.32204e-21)
(-0.673513 0.124152 0)
(-1.21439 -0.827105 3.74648e-21)
(-0.561244 0.194082 -1.2366e-21)
(0.0482637 0.0582648 3.4336e-21)
(-1.33378 -0.738215 0)
(-0.0457022 -0.00763557 -2.19351e-21)
(-1.36577 -0.623985 -1.27574e-21)
(-0.490557 0.247758 0)
(-0.246357 0.199348 -5.04561e-21)
(-1.02341 -0.363291 1.35653e-21)
(-0.495742 -0.414027 -4.20679e-22)
(-1.26478 -0.542929 -8.68505e-23)
(-0.391476 0.226389 1.73946e-21)
(-0.177704 -0.132228 -1.34853e-21)
(-0.0403248 0.00480492 -1.91671e-21)
(-0.508763 0.274713 0)
(-1.38858 -0.604698 0)
(-0.229772 0.121846 -8.58221e-22)
(-0.262046 0.138003 0)
(-0.951596 -0.438931 -1.53505e-21)
(-1.02098 -0.472575 1.6427e-21)
(-0.259873 -0.195398 2.79464e-22)
(-0.23016 -0.177608 -2.97735e-22)
(-0.206707 0.121682 8.24144e-22)
(-0.912946 -0.406297 0)
(-0.313825 -0.239809 4.81227e-22)
(-0.327191 0.211404 0)
(-1.16687 -0.478219 -5.22721e-22)
(-0.274117 -0.218804 3.25626e-22)
(-1.17429 -0.828496 3.50703e-22)
(-0.533823 0.00375424 1.39746e-21)
(0.0462685 0.065412 -3.0294e-21)
(-1.28474 -0.830603 0)
(-0.609367 0.130669 3.04019e-21)
(0.0699504 0.0636428 0)
(0.0602739 0.0592855 -9.39203e-22)
(-0.529564 0.043429 -8.69881e-22)
(-1.21997 -0.825333 3.04799e-22)
(-0.851159 -0.445248 8.23109e-22)
(0.0246335 0.097356 6.58499e-22)
(-0.466327 0.236619 0)
(-0.133407 0.0558364 1.59603e-21)
(-0.146799 0.0429546 0)
(-0.359706 -0.258033 0)
(-0.692856 -0.317004 4.72791e-21)
(-0.319801 -0.227736 0)
(-0.692514 -0.333897 -3.07185e-21)
(-0.276381 0.185535 0)
(-0.241601 0.168235 0)
(-0.365247 -0.290979 2.92663e-23)
(-1.07366 -0.437938 8.17913e-22)
(-0.326146 -0.255414 2.31666e-21)
(-1.00716 -0.407337 -1.9951e-21)
(-0.828532 -0.548261 0)
(0.0223229 0.0764811 1.56713e-21)
(-0.551572 0.182849 0)
(-1.26999 -0.802733 2.61466e-21)
(-0.631854 0.146732 3.01665e-22)
(0.0674781 0.0666513 7.55716e-22)
(-0.148778 0.134243 -2.79443e-21)
(-0.556754 -0.439142 -1.0019e-21)
(-0.813649 -0.298899 3.66334e-21)
(-1.12381 -0.835646 -4.38475e-22)
(-0.569177 -0.0467025 3.46912e-21)
(0.0134541 0.0808619 0)
(-0.0650631 -0.0270699 2.3455e-21)
(-1.35715 -0.611914 1.35664e-21)
(-0.476773 0.246865 1.87684e-21)
(-1.09049 -0.643222 0)
(-0.607152 0.223366 0)
(0.0424004 0.0898937 0)
(-1.12615 -0.679564 0)
(-0.627078 0.211082 6.25385e-22)
(0.0483168 0.083795 2.57689e-22)
(-0.352732 0.190087 -1.69011e-21)
(-1.19062 -0.539371 4.41626e-23)
(-0.170519 -0.127899 6.8327e-22)
(-0.0613643 0.0644711 -4.39564e-22)
(-0.605376 -0.434747 0)
(-0.57292 -0.204731 -8.45402e-24)
(-0.576397 0.20707 1.44087e-21)
(0.048942 0.0647722 1.97409e-21)
(-1.33443 -0.73161 1.2779e-21)
(-1.16206 -0.775643 0)
(-0.483433 0.0309667 0)
(0.0546394 0.0545476 3.19246e-21)
(0.0137071 0.0235167 6.73156e-22)
(-1.31718 -0.699713 -1.50798e-21)
(-0.492456 0.186644 4.2828e-21)
(-0.223513 0.164476 0)
(-0.412439 -0.330502 -1.62136e-21)
(-0.970475 -0.384519 1.1533e-21)
(-0.493812 -0.105795 -2.2715e-23)
(-0.86368 -0.611151 6.35336e-22)
(-0.00170872 0.0640941 0)
(-0.104283 0.0853443 1.09948e-23)
(-0.510965 -0.382618 -3.69771e-22)
(-0.685189 -0.274005 -1.69351e-21)
(0.0571386 0.0702113 3.49092e-23)
(-1.31292 -0.748543 -3.35081e-21)
(-0.595855 0.199747 1.46772e-21)
(-0.442103 0.181223 -8.00779e-22)
(-1.28248 -0.65457 1.82143e-22)
(-0.0288174 -0.0125511 0)
(-0.104825 0.0461703 -1.731e-21)
(-0.433036 -0.306658 2.49442e-21)
(-0.619402 -0.269353 -2.89705e-21)
(-0.520614 0.283701 1.18485e-21)
(-0.0259008 0.0240563 8.09547e-22)
(-1.38755 -0.599821 2.02918e-21)
(-0.190842 0.0828178 -1.05057e-21)
(-0.84042 -0.40469 0)
(-0.263307 -0.199537 0)
(-0.359537 -0.0832057 -4.30123e-21)
(-0.725328 -0.464698 6.34945e-22)
(-0.0373433 -0.00262191 0)
(-1.10831 -0.768211 0)
(-0.4917 -0.0131283 3.01895e-21)
(0.0428403 0.0622767 0)
(-0.546225 0.277969 -5.48319e-22)
(0.0298466 0.0927398 -2.69612e-22)
(-1.25833 -0.590971 -4.15883e-21)
(-0.53947 0.284826 1.53295e-21)
(0.0226169 0.0861206 0)
(-1.28773 -0.584089 3.24901e-21)
(0.000715465 0.0174852 5.75048e-22)
(-1.33082 -0.683321 1.24911e-21)
(-0.492746 0.202009 -3.93529e-21)
(-0.536528 -0.126538 -1.31736e-21)
(-0.8838 -0.64549 -7.20002e-22)
(-0.0147734 0.0774484 0)
(0.0317273 0.102067 2.47056e-22)
(-1.19246 -0.557522 3.88069e-21)
(-0.528587 0.27803 0)
(0.0556202 0.0464991 0)
(-1.28827 -0.764824 1.12731e-21)
(-0.516575 0.132753 -4.87718e-22)
(0.00908372 0.0707924 1.19644e-21)
(-0.638913 -0.425991 -5.1691e-21)
(-0.426947 0.156932 0)
(-0.37484 0.20677 -2.56567e-22)
(-0.679912 -0.344338 0)
(0.01755 0.0841748 1.15256e-21)
(-0.0332233 0.00877331 -3.15546e-23)
(-1.3791 -0.624488 0)
(-0.508563 0.261809 0)
(0.0583696 0.0785464 0)
(-1.26369 -0.735447 0)
(-0.620988 0.205041 1.74667e-21)
(-0.550798 0.232728 -1.31646e-21)
(-0.535985 0.219858 1.06503e-21)
(0.0252281 0.0517036 -1.04415e-21)
(-1.35848 -0.689456 5.09514e-22)
(0.0230912 0.0435194 -1.72916e-21)
(-1.35325 -0.696913 -6.70498e-22)
(-0.521043 0.115876 9.51504e-22)
(-1.277 -0.781487 -6.27156e-22)
(0.0617781 0.049962 0)
(-0.0108363 0.0920788 0)
(-1.07987 -0.826507 0)
(-0.596514 -0.0769954 0)
(-0.164899 0.00820043 0)
(-0.271354 -0.187644 -3.83305e-21)
(-0.643508 -0.328182 1.64417e-21)
(-0.511332 0.07211 2.74097e-21)
(-1.23301 -0.799054 -1.26499e-22)
(0.0646028 0.0531026 2.69293e-21)
(0.0614139 0.0556694 1.80097e-21)
(-0.509129 0.0528349 -3.8099e-21)
(-1.21033 -0.803483 1.7526e-22)
(-0.492583 0.279835 1.43526e-21)
(-0.069115 -0.0233007 9.01043e-22)
(-1.39195 -0.583508 -2.68914e-21)
(-0.29099 0.197606 0)
(-1.10466 -0.441432 1.70832e-22)
(-0.327746 -0.26239 -2.27093e-21)
(-0.237642 0.151891 0)
(-0.983425 -0.418723 2.06934e-21)
(-0.33054 -0.261702 -1.48938e-23)
(-0.438449 0.0628613 -3.73232e-21)
(-1.16752 -0.727723 -2.37522e-23)
(0.0455991 0.0327385 -1.55948e-21)
(-0.457432 0.0560497 0)
(-1.17557 -0.746928 -6.14506e-24)
(0.0528284 0.0412629 1.45469e-21)
(-0.102945 0.0268293 0)
(-0.434413 -0.299563 -3.89948e-21)
(-0.564154 -0.248403 1.63212e-21)
(-0.27332 0.15077 0)
(-1.0437 -0.472971 0)
(-0.23845 -0.189506 3.92589e-22)
(0.0597324 0.0596706 -2.78071e-21)
(-1.24595 -0.867693 4.7793e-21)
(-0.650478 0.0910037 0)
(-0.6432 0.194959 6.29851e-22)
(0.0472282 0.0778616 0)
(-1.09239 -0.688777 -2.33714e-21)
(-0.643757 0.183233 -9.44961e-23)
(0.0428098 0.0739159 0)
(-1.04569 -0.676267 6.91315e-21)
(-0.154814 0.101763 1.20281e-21)
(-0.397128 -0.296695 -3.82706e-22)
(-0.800628 -0.345608 -1.27662e-22)
(-1.00695 -0.60491 1.87062e-22)
(0.0359034 0.0881305 2.01254e-21)
(-0.592537 0.216687 0)
(-0.46876 0.201491 3.4188e-21)
(-0.0224334 -0.00131186 1.20456e-21)
(-1.31637 -0.660823 0)
(0.0323526 0.0803582 -3.10569e-22)
(-0.953659 -0.60999 4.42102e-21)
(-0.596028 0.195209 0)
(-0.283097 -0.0858318 2.92342e-21)
(-0.138664 -0.0768973 2.56602e-21)
(-0.576323 -0.33868 6.11438e-24)
(-0.317107 0.0742732 -5.65039e-22)
(-1.03652 -0.574241 -1.84952e-22)
(-0.055086 -0.047026 -1.57205e-21)
(-0.817284 -0.608745 1.69773e-21)
(-0.572046 -0.153787 2.97601e-21)
(-0.0341036 0.0860155 0)
(0.0597196 0.0645134 0)
(-1.19861 -0.789412 1.73831e-21)
(-0.670112 0.147777 0)
(-1.14517 -0.786336 0)
(-0.49414 0.0135806 0)
(0.0513417 0.0590543 0)
(-0.00508087 0.0442937 0)
(-0.534432 0.278457 -1.03897e-21)
(-1.37453 -0.615318 -1.99489e-21)
(-0.345949 0.0865643 0)
(-1.08472 -0.607385 1.23888e-22)
(-0.0325666 -0.0301597 1.5359e-21)
(-0.171313 -0.00990885 0)
(-0.268508 -0.182501 3.31012e-21)
(-0.602233 -0.310711 0)
(-1.23219 -0.786012 4.86224e-21)
(-0.652536 0.164087 8.2026e-22)
(0.0632766 0.0687982 0)
(0.0428379 0.0416422 -1.36533e-21)
(-1.30906 -0.740963 -7.62493e-23)
(-0.515872 0.164461 1.07115e-22)
(-0.571304 0.261192 0)
(-0.569288 0.261937 8.82245e-22)
(0.0387185 0.0923867 -6.75099e-22)
(0.0401605 0.0968796 -8.02655e-22)
(-1.25003 -0.628261 2.33251e-21)
(-1.21289 -0.620048 -1.91883e-21)
(-0.378858 -0.0232733 0)
(-0.940299 -0.6115 2.66455e-21)
(0.014195 0.0217188 1.89941e-21)
(-1.09463 -0.71531 4.62642e-22)
(-0.440325 0.010817 0)
(0.0450676 0.0451311 -2.01367e-21)
(-0.298053 -0.0539612 -2.43411e-21)
(-0.714241 -0.434452 1.08041e-21)
(-0.0724161 -0.0407081 3.0795e-21)
(-1.14825 -0.731699 -4.38885e-21)
(-0.65668 0.182152 7.77521e-22)
(-1.13514 -0.742675 2.22813e-21)
(0.0530551 0.0736913 0)
(-0.668411 0.167138 -7.51425e-22)
(0.0523792 0.0690892 0)
(-0.410134 0.115012 0)
(-1.19149 -0.674735 0)
(0.00524625 0.0022994 1.65265e-21)
(-0.645158 0.178984 1.32895e-21)
(-0.649251 0.18689 -2.40764e-21)
(-1.23059 -0.763326 -2.89355e-21)
(-1.19355 -0.738198 6.64676e-21)
(0.0610007 0.0731515 2.15883e-21)
(0.0567635 0.07583 -2.52092e-23)
(-0.444033 -0.00907671 0)
(-1.0546 -0.707841 -8.1081e-22)
(0.03887 0.0498476 2.62351e-21)
(-0.317816 0.0107292 2.4035e-21)
(-0.972017 -0.573603 -1.26859e-21)
(-0.023148 -0.0218414 0)
(-0.546403 0.280013 0)
(0.0170573 0.072597 0)
(-1.33055 -0.612348 -3.12139e-21)
(-0.360237 -0.000776962 1.81339e-21)
(-0.965259 -0.605406 -7.32962e-22)
(0.0118883 0.0122638 -3.01475e-21)
(-0.297704 -0.0325457 1.02309e-21)
(-0.791948 -0.485185 -1.26918e-21)
(-0.0508561 -0.0308128 1.73095e-21)
(-0.560077 0.268424 0)
(0.0330274 0.0897772 0)
(-1.27644 -0.620589 4.19723e-21)
(-0.34954 0.108524 0)
(-1.12376 -0.602975 1.13248e-22)
(-0.0455906 -0.0393025 -1.55749e-21)
(-0.977691 -0.762304 0)
(-0.644415 -0.132574 0)
(-0.0489797 0.109669 -1.09549e-22)
(-0.227452 0.174361 -1.29859e-22)
(-0.979796 -0.372342 0)
(-0.442763 -0.360553 2.3219e-21)
(-1.21838 -0.89115 -8.02995e-22)
(0.0382589 0.0677481 0)
(-0.594511 0.0149552 0)
(0.0097012 0.0692667 -2.82341e-21)
(-0.581455 -0.328354 -7.43069e-21)
(-0.35562 0.159593 2.88916e-22)
(-0.344437 0.0431668 0)
(-1.02082 -0.605573 7.5964e-22)
(-0.00654816 -0.00930257 -1.44927e-21)
(-0.556057 0.25881 2.00567e-21)
(0.0227588 0.0647276 3.38455e-21)
(-1.34923 -0.652063 0)
(-0.608462 -0.504066 -5.03304e-22)
(-0.921441 -0.309113 -1.20059e-21)
(-0.194852 0.175508 -1.09784e-21)
(-0.450138 0.247692 0)
(0.0281054 0.103062 -9.3104e-22)
(-0.895898 -0.439778 0)
(-0.0409466 0.0360965 2.08007e-21)
(-0.039616 0.0530324 -2.12379e-21)
(-0.640653 -0.443874 0)
(-0.476351 -0.15836 1.9391e-21)
(-0.672014 -0.475733 -2.31675e-21)
(-0.515375 -0.17039 -1.55003e-21)
(-0.332244 -0.0828963 2.2963e-21)
(-0.673791 -0.419054 1.60006e-21)
(-0.0646692 -0.0250061 0)
(-0.0733977 0.0522402 1.92358e-21)
(-0.0609868 0.036565 0)
(-0.537808 -0.382701 -1.41205e-21)
(-0.573178 -0.223655 1.71766e-21)
(-0.563505 -0.390695 1.42318e-21)
(-0.513529 -0.190353 9.49577e-24)
(-0.325047 0.0349912 1.50915e-22)
(-0.914216 -0.55266 -6.33824e-22)
(-0.0233358 -0.016994 -2.11357e-21)
(-0.33422 -0.00607018 -4.18989e-21)
(-0.914787 -0.562655 1.49085e-23)
(-0.0106954 -0.0044634 0)
(0.0451176 0.0682396 0)
(-1.06441 -0.708222 0)
(-0.664037 0.16768 5.53771e-22)
(-0.179228 0.104798 -1.11094e-21)
(-0.847082 -0.376488 0)
(-0.337407 -0.253691 7.05289e-22)
(-0.627966 0.186086 -2.84644e-21)
(-1.26626 -0.763226 -2.78354e-21)
(0.0622112 0.0744162 -1.22416e-21)
(-0.446134 0.0891526 0)
(-0.471847 0.102716 2.01001e-21)
(-1.20454 -0.725465 2.96361e-23)
(-1.2378 -0.744358 -5.90104e-22)
(0.0435972 0.0305343 -1.85745e-21)
(0.0498036 0.0367851 -1.6762e-21)
(-0.172912 0.0854461 0)
(-0.813573 -0.377473 0)
(-0.310074 -0.233067 3.62927e-22)
(-0.309351 0.183211 1.30584e-21)
(-1.1216 -0.485735 0)
(-0.245306 -0.190121 7.77868e-22)
(-0.396982 0.0756497 -1.06357e-21)
(-1.13481 -0.677401 0)
(0.0227977 0.0123127 0)
(-0.173276 -0.0456414 2.21548e-21)
(-0.484153 -0.247059 -9.34179e-22)
(-0.312653 -0.205012 9.10756e-22)
(-0.487409 0.0772512 0)
(-1.22332 -0.773718 0)
(0.0600424 0.0468372 -2.86406e-21)
(-0.140147 0.0204465 0)
(-0.327326 -0.227167 4.58972e-22)
(-0.626891 -0.305102 0)
(-0.417683 0.0121694 -2.37725e-21)
(-1.06536 -0.694256 -5.06559e-22)
(0.036049 0.035098 -2.58034e-22)
(-0.304168 0.167008 1.34674e-21)
(-1.10485 -0.498351 0)
(-0.213566 -0.168017 1.6376e-21)
(-0.154781 -0.0214928 -2.19489e-21)
(-0.132447 -0.0110573 -9.78093e-22)
(-0.527825 -0.265532 9.5986e-22)
(-0.322956 -0.217219 -1.83452e-21)
(-0.517157 -0.250178 0)
(-0.369708 -0.250164 -3.16394e-21)
(-0.0877522 0.016707 -9.58324e-22)
(-0.47433 -0.32664 1.78193e-21)
(-0.0714853 0.023762 6.17495e-22)
(-0.513725 -0.216453 -2.37106e-21)
(-0.548435 -0.374384 -9.12706e-22)
(-0.497953 -0.194319 6.90151e-23)
(-0.222163 0.103445 1.24303e-21)
(-0.249057 0.105189 0)
(-0.920879 -0.441274 1.28457e-21)
(-0.96514 -0.475442 -1.00237e-21)
(-0.233469 -0.17608 -1.67184e-21)
(-0.185689 -0.138654 2.79074e-21)
(-0.0296355 0.00095635 0)
(-1.35242 -0.646698 8.48845e-22)
(-0.489195 0.231195 -1.96504e-21)
(-0.0600197 0.114746 1.33847e-21)
(-0.657452 -0.155448 1.83015e-21)
(-0.915542 -0.716106 -1.12396e-21)
(-0.00917404 0.0208111 -1.15042e-21)
(0.00526782 0.0280539 9.55567e-22)
(-1.3601 -0.662765 -7.35193e-22)
(-1.35011 -0.681358 -1.14295e-21)
(-0.510708 0.235943 4.98923e-21)
(-0.515239 0.220915 -2.58724e-21)
(-0.117097 0.132152 2.01581e-21)
(-0.683644 -0.537099 -8.87701e-22)
(-0.756899 -0.245779 3.58337e-22)
(-0.235232 -0.0980771 3.67575e-21)
(-0.282176 -0.167199 0)
(-0.416001 -0.220212 -3.37801e-21)
(-0.493729 0.0982316 -9.43031e-22)
(-1.24633 -0.769901 6.69052e-22)
(0.0587574 0.0454765 0)
(-0.145893 0.0717732 0)
(-0.352179 -0.264399 -3.45293e-22)
(-0.741682 -0.336433 -1.46208e-21)
(-0.322276 0.170214 0)
(-1.13448 -0.51974 0)
(-0.184566 -0.142019 -1.52479e-21)