/*--------------------------------*- C++ -*----------------------------------*\
  =========                 |
  \\      /  F ield         | OpenFOAM: The Open Source CFD Toolbox
   \\    /   O peration     | Website:  https://openfoam.org
    \\  /    A nd           | Version:  6
     \\/     M anipulation  |
\*---------------------------------------------------------------------------*/
FoamFile
{
    version     2.0;
    format      ascii;
    class       volVectorField;
    location    "0";
    object      U_rec;
}
// * * * * * * * * * * * * * * * * * * * * * * * * * * * * * * * * * * * * * //

dimensions      [0 1 -1 0 0 0 0];

internalField   nonuniform List<vector> 
13046
(
(-0.767986 0.28681 0)
(-0.693019 -0.0886514 -9.16323e-21)
(-0.344178 -0.145548 -2.06933e-20)
(-0.734629 0.18528 0)
(-0.355263 -0.0539645 -1.892e-20)
(-0.600841 -0.128495 0)
(-0.802702 0.225593 2.76561e-21)
(-0.62423 -0.159603 4.66799e-21)
(-0.325325 -0.0489075 -2.08134e-20)
(-1.59962 0.781544 7.57511e-21)
(-0.96475 -0.33532 0)
(-0.0394158 -0.121459 1.3802e-20)
(-0.962162 0.38184 -8.92221e-21)
(-0.731953 -0.151498 -1.43208e-20)
(-0.269974 -0.136846 1.13959e-20)
(-1.52986 0.850699 -1.05944e-20)
(-0.100936 -0.176274 3.29643e-20)
(-1.01124 -0.245944 7.05198e-21)
(-0.467636 0.0681411 0)
(-0.495578 -0.14469 -1.00523e-20)
(-0.675329 0.0678485 2.85593e-20)
(-1.54729 0.843142 -4.26694e-21)
(-0.0865491 -0.163917 -4.4054e-20)
(-1.00066 -0.265097 0)
(-0.669199 0.176987 1.16924e-20)
(-0.626727 -0.0770252 -2.2597e-20)
(-0.378982 -0.100997 0)
(-0.973459 0.421359 -1.62398e-20)
(-0.753647 -0.144109 4.19038e-21)
(-0.268263 -0.156794 -1.97484e-20)
(-0.777704 0.314231 0)
(-0.721131 -0.0685888 0)
(-0.345608 -0.171433 2.10565e-20)
(-0.612547 0.131354 -1.35779e-20)
(-0.405721 -0.0889028 6.9993e-21)
(-0.604222 -0.0560985 3.94332e-20)
(-0.603161 0.103505 -2.08077e-20)
(-0.421667 -0.0599519 1.07377e-20)
(-0.57606 -0.0621252 -2.03649e-20)
(-0.626591 0.277819 1.53058e-20)
(-0.452375 -0.262728 3.84813e-21)
(-0.822694 0.0442243 -1.38393e-20)
(-0.556668 0.0221902 9.33373e-21)
(-0.485255 -0.00589203 1.61189e-20)
(-0.514894 -0.0492229 0)
(-0.593961 0.0416993 5.9116e-21)
(-0.466219 0.0103984 -2.46772e-20)
(-0.507947 -0.0784305 -3.04886e-21)
(-0.800161 0.288757 0)
(-0.683423 -0.113736 -6.56434e-22)
(-0.317433 -0.1281 8.59045e-24)
(-0.563374 -0.365726 2.3425e-20)
(-0.518969 0.276402 0)
(-1.02557 0.163042 -1.67623e-20)
(-0.600355 -0.385667 -3.33476e-20)
(-1.09358 0.203104 -2.6722e-20)
(-0.461689 0.242551 2.39885e-20)
(-0.973214 -0.0971193 -3.21424e-21)
(-1.26221 0.775508 0)
(-0.272259 -0.292788 1.7971e-20)
(-1.2523 0.457376 -8.3429e-21)
(-0.769015 -0.296619 8.43266e-21)
(-0.182111 -0.0461795 -4.85058e-20)
(-0.0905077 -0.137957 2.53039e-20)
(-0.930927 -0.294549 -5.23589e-21)
(-1.53925 0.726214 -1.29202e-20)
(-1.19043 0.752126 0)
(-0.974049 -0.0602618 0)
(-0.311652 -0.323439 0)
(-1.13116 0.708836 -6.67764e-21)
(-0.960013 -0.0490054 0)
(-0.327158 -0.324271 1.4249e-20)
(-0.994415 -0.103676 0)
(-1.31433 0.81314 2.45965e-22)
(-0.255122 -0.294424 7.12688e-24)
(-0.48939 0.0999426 0)
(-0.481552 -0.166421 1.09046e-20)
(-0.700763 0.0536129 -2.03307e-20)
(-0.202591 -0.254479 1.99749e-20)
(-1.39612 0.842568 -1.95394e-20)
(-0.997962 -0.153273 0)
(-0.714471 0.201044 6.14909e-21)
(-0.626554 -0.0985826 0)
(-0.356558 -0.0871607 0)
(-0.0801386 -0.139625 -2.27153e-20)
(-0.945959 -0.301397 -4.03612e-21)
(-1.5699 0.752266 7.64375e-21)
(-1.59806 0.629641 -1.32536e-20)
(-0.071189 -0.0758867 0)
(-0.874892 -0.374366 -4.0681e-21)
(-0.0818934 -0.00950662 0)
(-1.68596 0.546968 0)
(-0.827694 -0.462719 5.42572e-22)
(-1.27186 0.590475 0)
(-1.33802 0.613054 7.59301e-21)
(-0.851062 -0.216909 1.63183e-20)
(-0.863862 -0.244435 -7.65377e-21)
(-0.18196 -0.156495 -1.03998e-20)
(-0.156852 -0.141749 2.66662e-20)
(-0.0794315 -0.0588019 -1.28768e-21)
(-1.58995 0.60243 1.29698e-20)
(-0.856011 -0.391576 0)
(-0.63146 0.0795247 -1.60273e-23)
(-0.434651 -0.000861292 1.30532e-20)
(-0.527484 -0.100835 0)
(-0.380191 0.149255 0)
(-1.01737 0.219749 -8.32989e-21)
(-0.605319 -0.321296 0)
(-0.523961 0.250829 2.64709e-20)
(-0.530605 -0.316523 0)
(-0.931799 0.125168 -3.16984e-20)
(-1.49973 0.757618 0)
(-0.012486 -0.0924339 0)
(-0.924232 -0.36569 -5.54058e-21)
(-0.889435 0.337684 2.45855e-20)
(-0.706594 -0.137034 6.07572e-21)
(-0.2883 -0.124833 2.07693e-20)
(-1.34299 0.685907 9.777e-21)
(-1.27883 0.633142 -1.8473e-20)
(-0.905528 -0.202013 -1.38102e-20)
(-0.178852 -0.189287 1.18976e-20)
(-0.873932 -0.194547 8.34977e-21)
(-0.191754 -0.181377 -1.11155e-20)
(-1.58357 0.793954 -5.75961e-21)
(-0.969986 -0.336865 -7.91856e-21)
(-0.0351274 -0.11998 -6.17598e-21)
(-1.13297 0.520666 0)
(-0.810714 -0.179851 -1.09331e-20)
(-0.222954 -0.167898 2.42247e-20)
(-0.686898 0.313876 0)
(-0.421083 -0.252119 -1.90557e-20)
(-0.806849 0.0134396 7.93801e-22)
(-0.104321 0.00618515 0)
(-1.64404 0.523089 0)
(-0.816802 -0.453707 0)
(-1.45439 0.63971 0)
(-0.879965 -0.295193 -2.11193e-20)
(-0.116814 -0.116472 -2.87263e-20)
(-0.840316 0.353188 0)
(-0.743584 -0.0835036 0)
(-0.327114 -0.185674 0)
(-0.993564 0.299146 0)
(-0.664045 -0.247365 0)
(-0.277455 -0.00745761 0)
(-0.490166 0.235143 0)
(-0.560121 -0.333617 0)
(-0.977815 0.157584 1.70707e-20)
(-0.387173 0.131684 -2.74964e-21)
(-0.979856 0.208917 -1.7986e-20)
(-0.598775 -0.303323 2.04588e-20)
(-1.30215 0.491309 1.9227e-20)
(-0.793426 -0.299 0)
(-0.161545 -0.0683975 6.30825e-20)
(-0.364887 0.0610434 0)
(-0.874987 0.192588 1.95405e-20)
(-0.584108 -0.237212 -5.19042e-21)
(-0.670368 -0.396385 0)
(-1.21304 0.295451 1.90021e-20)
(-0.703166 -0.399351 0)
(-1.27641 0.34314 1.09445e-20)
(-0.335681 0.15652 0)
(-0.278403 0.111283 0)
(-1.02594 0.272976 2.48281e-21)
(-0.64643 -0.286857 1.07485e-20)
(-0.29872 0.0432856 -1.20192e-20)
(-1.62922 0.76124 -7.72959e-21)
(-0.0345027 -0.11311 0)
(-0.942741 -0.355627 -9.92405e-21)
(-1.5355 0.774538 -4.94095e-21)
(-0.0204411 -0.103912 -2.82632e-21)
(-0.950909 -0.351879 0)
(-1.47477 0.670518 -1.08748e-20)
(-0.89733 -0.289933 0)
(-0.110845 -0.128596 3.26566e-20)
(-0.789436 0.427474 0)
(-0.8797 0.0166172 4.39897e-21)
(-0.418232 -0.304063 1.11333e-20)
(-0.981478 0.24545 1.6321e-20)
(-0.330508 0.0724463 5.7657e-21)
(-0.622987 -0.277925 0)
(-0.0307877 -0.0976423 0)
(-0.914031 -0.382935 0)
(-1.66234 0.710383 6.32878e-21)
(-0.731521 0.380064 0)
(-0.862048 0.030584 -9.53639e-21)
(-0.43312 -0.289836 2.89211e-21)
(-0.359325 0.0798341 0)
(-0.899546 0.196271 0)
(-0.584756 -0.253955 0)
(-0.935247 0.261533 8.17757e-21)
(-0.642175 -0.230744 0)
(-0.293587 -0.00907766 0)
(-0.748492 -0.192176 -6.13224e-23)
(-0.236614 -0.118009 -1.40716e-20)
(-1.08144 0.47718 2.57175e-20)
(-0.787211 -0.171636 0)
(-0.235238 -0.155895 -3.03547e-20)
(-1.60706 0.697476 -1.34242e-20)
(-0.0625343 -0.10616 2.06276e-20)
(-0.913089 -0.348551 -1.96122e-20)
(-0.101101 -0.0168267 1.89845e-20)
(-1.59319 0.543421 8.15511e-21)
(-0.828212 -0.422829 2.0351e-20)
(-1.66747 0.595643 -2.18105e-20)
(-0.85604 -0.421523 0)
(-0.0614617 -0.0454093 -1.86503e-20)
(-0.571624 -0.415328 -1.20425e-21)
(-1.09548 0.16793 7.48753e-21)
(-0.582189 0.362943 0)
(-0.929853 0.311529 -3.72063e-20)
(-1.37428 0.854151 1.01611e-20)
(-0.220683 -0.269693 -1.22564e-20)
(-1.00867 -0.140771 0)
(-0.867998 -0.422384 0)
(-1.68417 0.631612 -1.88144e-20)
(-0.0453878 -0.061208 0)
(-0.641635 0.112218 -3.00203e-20)
(-0.408049 -0.0330774 -1.05454e-20)
(-0.55865 -0.0957129 2.99284e-20)
(-0.936548 0.418497 0)
(-0.761203 -0.120761 -6.0332e-22)
(-0.294413 -0.174336 -1.15306e-20)
(-0.110285 0.00143685 1.45829e-20)
(-1.60375 0.52866 0)
(-0.816169 -0.440752 -2.34485e-20)
(-0.989286 0.351338 2.98075e-20)
(-0.731473 -0.204987 2.58967e-20)
(-0.23903 -0.0991806 0)
(-0.0163947 -0.100948 0)
(-0.922544 -0.3784 8.44998e-21)
(-1.6108 0.751372 0)
(-0.519517 0.314515 0)
(-1.13696 0.193769 0)
(-0.596967 -0.424055 0)
(-1.62688 0.583545 1.91204e-20)
(-0.848723 -0.410539 0)
(-0.0750908 -0.0444533 -5.46547e-23)
(-1.14551 0.307808 7.19888e-21)
(-0.674383 -0.342871 -8.23796e-21)
(-0.280572 0.0774226 0)
(-1.12743 0.543347 0)
(-0.823047 -0.162961 1.02163e-20)
(-0.235517 -0.1844 1.90011e-20)
(-0.768908 -0.467627 -2.93796e-20)
(-1.52851 0.428017 -1.48147e-20)
(-0.198498 0.0872096 1.15462e-20)
(-1.34904 0.363376 0)
(-0.722033 -0.422663 -1.1651e-20)
(-0.264865 0.112869 -4.1593e-22)
(-0.00911101 -0.0940529 -1.82464e-20)
(-0.900766 -0.392582 0)
(-1.61754 0.730277 -5.02495e-21)
(-0.62454 0.327827 1.4179e-20)
(-0.494386 -0.322536 -1.37977e-20)
(-0.919695 0.0860179 1.38981e-21)
(-1.40104 0.793962 4.91096e-21)
(-0.0232857 -0.0959555 -2.65287e-20)
(-0.963016 -0.312267 0)
(-0.427755 0.0320426 -6.17311e-21)
(-0.685625 0.0939255 -2.31177e-20)
(-0.521124 -0.142017 2.99017e-20)
(-1.16146 0.360019 8.59154e-21)
(-1.11464 0.313484 7.22197e-23)
(-0.705607 -0.310873 -1.98291e-20)
(-0.674374 -0.320657 0)
(-0.2732 0.0531914 1.09275e-20)
(-0.232296 0.0129855 -1.12956e-20)
(-0.177213 -0.237718 -2.6148e-20)
(-1.43401 0.855027 1.04702e-20)
(-1.01181 -0.167105 -1.7374e-20)
(-1.06529 0.518372 0)
(-0.818556 -0.132864 0)
(-0.267361 -0.200291 -2.50244e-20)
(-1.41752 0.406495 -3.93075e-21)
(-0.747956 -0.433197 0)
(-0.222787 0.0839092 0)
(-1.4055 0.669307 -9.29025e-21)
(-0.895479 -0.246414 0)
(-0.14255 -0.154977 1.18656e-20)
(-0.537312 0.0337033 6.29887e-21)
(-0.541146 -0.0278508 9.13198e-21)
(-0.479838 -0.0322676 -3.15284e-21)
(-1.24856 0.3545 -1.3947e-20)
(-0.709667 -0.372347 0)
(-0.250603 0.0736314 -1.90881e-20)
(-1.07668 0.547966 0)
(-0.839445 -0.122818 1.27275e-20)
(-0.272291 -0.218309 -1.60869e-20)
(-1.02009 0.388459 0)
(-1.08631 0.429051 2.9921e-21)
(-0.637702 0.349377 5.15423e-21)
(-0.499784 -0.340415 4.01375e-20)
(-0.945654 0.0951711 -3.33414e-20)
(-1.30211 0.396705 -1.42782e-20)
(-0.735093 -0.372319 1.71534e-20)
(-0.210376 0.039218 1.74199e-20)
(-1.4489 0.683623 0)
(-0.12434 -0.14485 -4.18427e-20)
(-0.905655 -0.265288 -1.04599e-20)
(-0.527929 0.230174 -3.65503e-20)
(-0.515791 -0.299259 0)
(-0.897276 0.11712 1.07227e-20)
(-0.358715 0.189748 -2.24673e-20)
(-1.23389 0.287785 -1.09205e-20)
(-0.66717 -0.42 0)
(-1.24641 0.668627 -9.55481e-21)
(-0.901415 -0.147147 -1.11291e-20)
(-0.228919 -0.226684 7.36977e-21)
(-0.574402 0.320913 1.8656e-21)
(-0.543834 -0.367085 0)
(-1.01105 0.1448 2.31527e-20)
(-1.30193 0.70831 0)
(-1.34417 0.719528 0)
(-0.9226 -0.16048 -7.17773e-21)
(-0.213453 -0.224861 -1.91896e-20)
(-0.924982 -0.186629 1.01522e-20)
(-0.189683 -0.20634 2.03612e-20)
(-0.0431628 -0.107049 -1.59722e-20)
(-0.923943 -0.363162 0)
(-1.64335 0.72748 -9.25671e-21)
(-1.21529 0.606184 1.09784e-20)
(-0.858832 -0.174404 0)
(-0.215496 -0.192379 6.5389e-21)
(-0.853475 -0.363966 1.57922e-20)
(-0.00443445 -0.068677 2.32634e-20)
(-1.34422 0.720363 9.34838e-21)
(-0.793965 0.141301 -1.06241e-20)
(-0.403773 0.067363 0)
(-0.547014 -0.205745 0)
(-1.17406 0.422509 1.98734e-20)
(-0.746538 -0.271654 0)
(-0.200439 -0.0534565 3.70672e-20)
(-0.078749 -0.112727 -1.3069e-20)
(-1.56565 0.685781 2.7735e-20)
(-0.905135 -0.329578 1.48112e-20)
(-0.612228 -0.402938 0)
(-1.12949 0.212981 9.87636e-21)
(-0.455311 0.261218 -2.71783e-20)
(-0.786004 -0.459759 -3.57974e-20)
(-1.55981 0.464557 -8.97991e-21)
(-0.160182 0.0515224 0)
(-0.692004 -0.186901 -2.61534e-20)
(-0.268338 -0.081044 0)
(-1.21314 0.491707 2.16953e-20)
(-0.786672 -0.242939 9.3082e-21)
(-0.186903 -0.108297 1.12523e-20)
(-0.67897 -0.205987 1.53764e-20)
(-0.266904 -0.0604571 7.60831e-23)
(-1.51567 0.836414 -6.71058e-22)
(-0.11632 -0.186002 1.54622e-20)
(-1.00113 -0.232147 -1.0363e-20)
(-0.558269 -0.433594 0)
(-1.10281 0.154209 2.37889e-21)
(-0.637282 0.412501 0)
(-1.2714 0.526422 -2.21327e-20)
(-0.812495 -0.256444 -1.1358e-20)
(-0.169038 -0.106314 -1.37614e-20)
(-1.02203 0.30146 0)
(-0.660872 -0.270387 -1.56153e-20)
(-0.276222 0.0128516 0)
(-1.01516 0.198385 0)
(-0.587893 -0.339117 0)
(-0.428973 0.186758 0)
(-0.776718 0.252413 -8.51675e-21)
(-0.656767 -0.114448 -1.44784e-20)
(-0.329738 -0.105804 -1.59288e-23)
(-0.406513 0.228635 2.7856e-20)
(-1.19768 0.257022 2.65481e-20)
(-0.646527 -0.418531 1.67594e-20)
(-1.63509 0.663038 -1.14078e-20)
(-0.891524 -0.374823 1.66653e-20)
(-0.0567738 -0.0881491 -1.9548e-20)
(-0.794637 -0.440584 2.42163e-20)
(-1.5442 0.479869 9.1086e-21)
(-0.145024 0.0305155 1.45873e-20)
(-1.0016 0.627875 -2.06899e-20)
(-0.383643 -0.346156 2.1367e-20)
(-0.958802 -0.00606318 -1.55974e-20)
(-1.37032 0.789424 5.68645e-21)
(-1.32422 0.756289 -5.24756e-21)
(-0.949966 -0.145584 -2.28302e-21)
(-0.968735 -0.155122 0)
(-0.205007 -0.241259 -7.03726e-21)
(-0.221606 -0.246884 -6.20353e-21)
(-0.00927661 -0.0765942 -3.14884e-20)
(-0.890027 -0.348297 -1.73947e-20)
(-1.36862 0.732156 3.24973e-21)
(-1.42707 0.80852 -3.41348e-22)
(-0.031196 -0.107301 3.67073e-20)
(-0.983202 -0.304277 0)
(-1.22941 0.394971 -3.17116e-20)
(-0.733808 -0.324519 -4.42718e-21)
(-0.214377 0.00559849 0)
(-0.0560335 -0.113122 -3.97087e-20)
(-1.62034 0.718998 9.21596e-21)
(-0.926597 -0.345358 0)
(-1.14342 0.670927 2.89342e-20)
(-1.20387 0.69704 -2.16909e-20)
(-0.922134 -0.0859588 1.19436e-20)
(-0.925954 -0.106763 4.56254e-21)
(-0.299848 -0.284607 -1.21632e-20)
(-0.271416 -0.267796 -6.12143e-21)
(-0.0242105 -0.062934 0)
(-0.85284 -0.439891 0)
(-1.72482 0.619531 3.20435e-21)
(-1.31413 0.782873 -5.76331e-21)
(-0.0204394 -0.0865842 0)
(-0.95094 -0.301521 0)
(-0.623708 0.0156455 -2.57131e-23)
(-0.511602 0.0766071 1.36124e-20)
(-0.463607 -0.112004 6.70488e-21)
(-1.42752 0.761523 -9.22426e-21)
(-0.929725 -0.348399 8.10624e-21)
(-0.0135186 -0.0883603 1.72029e-21)
(-0.876638 0.467766 0)
(-0.858623 -0.0238687 -2.01972e-20)
(-0.375168 -0.281038 -2.8663e-23)
(-1.66771 0.696619 2.29123e-22)
(-0.903557 -0.392941 2.37732e-20)
(-0.034125 -0.090733 5.05754e-24)
(-0.755127 -0.388689 4.77645e-22)
(0.0044493 -0.0553219 -1.34202e-20)
(-1.3013 0.616661 -3.00858e-21)
(-0.57289 0.228449 -1.31626e-20)
(-0.467144 -0.244283 1.21336e-20)
(-0.803057 0.0591555 3.39177e-20)
(-0.733467 0.132861 0)
(-0.550399 -0.159624 -3.30792e-20)
(-0.393877 0.0188067 1.75104e-20)
(-1.56203 0.816466 0)
(-0.0420674 -0.126079 1.84082e-20)
(-0.9835 -0.321026 -3.97709e-24)
(-0.773551 0.154441 0)
(-0.559673 -0.179668 -1.15763e-20)
(-0.377966 0.0334016 -2.47337e-20)
(-0.598002 0.012069 1.37359e-20)
(-0.506669 0.0532023 -7.24764e-21)
(-0.473404 -0.0883855 3.53701e-21)
(-0.491865 0.310215 1.35191e-20)
(-1.20399 0.225359 -9.35612e-21)
(-0.626053 -0.451213 1.85308e-20)
(-0.730889 0.0770013 0)
(-0.496355 -0.182971 0)
(-0.467564 0.114143 2.05688e-21)
(-0.780445 0.123497 1.68199e-20)
(-0.528414 -0.202053 8.95817e-21)
(-0.43823 0.0986366 2.92076e-22)
(-0.937965 0.588252 3.14555e-20)
(-0.965102 0.0143402 -1.54904e-20)
(-0.413045 -0.36269 -2.11345e-20)
(-0.0652136 -0.140651 2.7766e-20)
(-0.055562 -0.132694 -2.8276e-20)
(-0.980987 -0.303602 6.99365e-21)
(-0.968152 -0.320263 4.87247e-21)
(-1.58029 0.808419 0)
(-1.5971 0.796754 -7.75708e-21)
(-1.66155 0.663743 1.41663e-20)
(-0.892016 -0.386556 -1.4838e-20)
(-0.0465586 -0.0820435 2.42129e-20)
(-0.370647 -0.356859 -1.37199e-20)
(-1.05875 0.685718 6.43106e-21)
(-0.978037 -0.0130412 1.98797e-20)
(-0.660924 0.333775 -1.29456e-20)
(-0.464225 -0.300127 -1.26365e-20)
(-0.879769 0.0579335 1.05633e-20)
(-1.36642 0.339545 0)
(-0.71111 -0.450259 1.20551e-20)
(-0.304199 0.157475 4.30365e-22)
(-0.794306 -0.419796 8.09638e-21)
(0.00783174 -0.0702509 -1.25722e-20)
(-1.51383 0.635308 -3.36011e-21)
(-0.0638912 -0.0282922 0)
(-1.69459 0.574778 0)
(-0.838917 -0.45306 1.0052e-20)
(-1.57213 0.769328 6.02933e-21)
(-0.0211876 -0.10653 0)
(-0.947734 -0.359196 -8.30086e-21)
(0.00299183 -0.0471381 -4.96868e-32)
(-0.72079 -0.372654 -7.23758e-21)
(-1.21377 0.598464 2.70958e-21)
(-0.769121 -0.321346 8.10202e-21)
(-0.00261093 -0.0483187 4.95676e-32)
(-1.16146 0.670697 -2.4293e-21)
(-0.789179 -0.353315 -2.33901e-20)
(-1.38175 0.480675 0)
(-0.1588 -0.0220757 -3.71261e-20)
(-0.837729 -0.435858 -4.4243e-21)
(-0.00225342 -0.0749126 -1.29037e-20)
(-1.69908 0.63721 0)
(-1.48936 0.634976 -1.37769e-20)
(-0.875425 -0.317985 1.30892e-20)
(-0.105557 -0.103299 1.9212e-20)
(-1.50216 0.88096 2.09296e-20)
(-0.0891025 -0.172125 1.11539e-20)
(-1.04285 -0.235885 0)
(-0.886539 0.310142 6.50927e-21)
(-0.286953 -0.0922102 -7.03969e-21)
(-0.684212 -0.163729 6.30023e-21)
(-0.850535 -0.444975 5.16582e-21)
(-0.0346458 -0.0531314 1.36863e-20)
(-1.71887 0.606834 3.82382e-21)
(-1.31939 0.314203 -1.07322e-20)
(-0.341627 0.188825 -7.66293e-21)
(-0.692021 -0.445854 0)
(-0.761069 -0.420169 0)
(-1.42432 0.429184 0)
(-0.191926 0.0558091 0)
(0.000431101 -0.0168914 0)
(-0.462511 -0.215689 -5.87763e-21)
(-0.71787 0.378639 6.40222e-22)
(-0.836216 -0.385934 7.94241e-21)
(-0.000627258 -0.068507 -1.62235e-20)
(-1.37962 0.701245 -4.35514e-21)
(-0.824088 0.264857 -1.68912e-20)
(-0.309338 -0.0840638 1.65904e-20)
(-0.657194 -0.148702 7.37093e-21)
(-0.876159 -0.416084 2.09153e-20)
(-1.70443 0.664711 -6.65727e-21)
(-0.0216888 -0.0780988 0)
(-0.0169796 -0.0619425 -1.43123e-20)
(-1.73546 0.617337 0)
(-0.838971 -0.44885 -1.56481e-20)
(-1.5983 0.74842 -8.54352e-21)
(-0.0654204 -0.127066 4.24378e-20)
(-0.942115 -0.321336 0)
(-0.150179 -0.207635 -3.16767e-20)
(-0.992295 -0.201771 1.10616e-20)
(-1.46552 0.827726 0)
(-0.901644 0.593222 -3.97249e-20)
(-0.999276 0.0391775 1.97254e-20)
(-0.445228 -0.390467 -6.69478e-21)
(-0.951582 -0.120785 3.42167e-21)
(-1.26967 0.753627 1.24873e-20)
(-0.25471 -0.271884 -1.92007e-20)
(-0.13926 -0.21311 -2.84212e-20)
(-1.48059 0.87676 0)
(-1.02913 -0.197141 0)
(-0.934352 0.467887 -6.211e-21)
(-1.00586 0.518665 0)
(-0.817931 -0.0714598 -2.09912e-20)
(-0.839875 -0.0880717 2.2454e-20)
(-0.328622 -0.234042 3.26873e-21)
(-0.306509 -0.238159 -3.48139e-21)
(-0.873349 0.445208 5.95629e-21)
(-0.827533 -0.0423178 0)
(-0.360378 -0.254178 6.22706e-21)
(-1.12141 0.685413 0)
(-0.938795 -0.0672438 -1.93113e-20)
(-0.319777 -0.306106 4.38145e-21)
(-0.785065 -0.426224 -1.2064e-20)
(-1.49976 0.465491 9.61919e-21)
(-0.156789 0.0287195 -2.99336e-20)
(-0.878226 -0.411474 0)
(-1.67525 0.652898 2.06508e-20)
(-0.040034 -0.071806 0)
(-0.119209 -0.0151662 -9.60697e-21)
(-1.53423 0.522641 -5.95076e-21)
(-0.816788 -0.406556 -7.8676e-21)
(-0.816413 -0.321263 -1.11184e-21)
(-0.00573918 -0.0565795 8.6435e-21)
(-1.21387 0.700405 0)
(-0.673608 0.275685 1.18809e-20)
(-0.689373 0.267639 0)
(-0.405454 -0.210272 0)
(-0.753556 -0.00543776 4.12369e-20)
(-0.38826 -0.188147 0)
(-0.726565 -0.0307339 -2.6232e-20)
(-1.01214 0.601536 0)
(-0.929974 0.541182 0)
(-0.379882 -0.310415 -2.23225e-23)
(-0.916408 -0.0386195 1.21574e-20)
(-0.355149 -0.305978 3.19472e-20)
(-0.904046 -0.0195001 -2.57347e-20)
(-0.728238 -0.404591 0)
(0.00737167 -0.0567015 1.83525e-20)
(-1.35858 0.604872 0)
(-0.882421 -0.408934 -1.24413e-20)
(-1.6957 0.670069 2.1871e-21)
(-0.0278344 -0.0822264 8.57736e-21)
(-0.698945 0.392784 -2.23994e-20)
(-0.485116 -0.350586 -1.44665e-20)
(-0.950148 0.0789237 3.45394e-20)
(-0.751327 -0.456689 2.61691e-20)
(-1.46756 0.401484 2.49417e-20)
(-0.226649 0.104725 0)
(-0.166911 -0.220759 3.38825e-20)
(-0.988553 -0.188104 -1.17665e-20)
(-1.44025 0.822609 1.31728e-20)
(-0.884563 -0.390362 0)
(-1.52826 0.722182 0)
(-0.00373303 -0.0848585 0)
(-0.883308 -0.397901 0)
(-1.56891 0.710722 5.10546e-21)
(-0.00293623 -0.0864067 3.09804e-21)
(-1.20122 0.67185 -1.20189e-20)
(-0.905089 -0.125455 6.90334e-21)
(-0.256575 -0.246893 9.06051e-21)
(-0.494674 0.197823 -3.46561e-21)
(-0.527017 -0.283565 0)
(-0.883435 0.131514 -1.20906e-22)
(-1.60786 0.766549 9.95471e-21)
(-0.0571427 -0.126973 2.47221e-20)
(-0.955154 -0.325297 -5.67467e-21)
(-0.794937 -0.37588 0)
(-1.42748 0.490396 0)
(-0.148378 -0.00877749 3.20452e-20)
(-0.11323 -0.152393 8.00071e-21)
(-0.930351 -0.269176 1.78931e-20)
(-1.49222 0.73263 2.86574e-20)
(-0.883482 0.519518 0)
(-0.405867 -0.326336 -2.12493e-20)
(-0.915704 0.001848 1.3163e-20)
(-1.10871 0.275697 1.77505e-22)
(-0.647621 -0.342105 1.20858e-20)
(-0.329279 0.114543 0)
(-0.61017 0.281955 2.11206e-22)
(-0.472786 -0.284065 -4.14949e-21)
(-0.859616 0.0659954 -1.38407e-20)
(-0.0439485 -0.114741 2.73867e-23)
(-0.94187 -0.350656 1.33519e-20)
(-1.6296 0.749813 1.03928e-20)
(-1.39814 0.702864 -5.41231e-21)
(-0.915484 -0.226555 -5.33682e-21)
(-0.154785 -0.17482 0)
(-0.58907 0.22392 -1.28823e-20)
(-0.446945 -0.220293 2.62855e-20)
(-0.76658 0.0349474 -2.23795e-20)
(-1.48908 0.89101 8.54811e-21)
(-0.123117 -0.203212 1.26339e-20)
(-1.04179 -0.207118 -8.13143e-21)
(-0.832337 0.376477 -7.49544e-21)
(-0.766941 -0.0673067 0)
(-0.342029 -0.207996 0)
(-0.889061 0.228022 -3.02654e-20)
(-0.610531 -0.224547 7.15943e-21)
(-0.326496 0.0219306 0)
(-0.759958 -0.391802 0)
(-1.3777 0.424292 2.04352e-20)
(-0.189534 0.0384862 0)
(-1.46946 0.843381 -4.12051e-21)
(-0.0491193 -0.131216 -3.92588e-21)
(-1.01997 -0.281239 8.97551e-21)
(-1.46703 0.861324 1.15206e-20)
(-0.0606764 -0.143634 0)
(-1.03384 -0.261009 -8.70309e-21)
(-0.120532 -0.165964 7.28312e-21)
(-0.945597 -0.253189 -1.05792e-20)
(-1.48816 0.75338 -2.64356e-20)
(-1.13813 0.264997 -9.51836e-21)
(-0.647972 -0.372842 -1.21306e-20)
(-0.357785 0.150801 0)
(-0.0391049 -0.11618 3.59498e-21)
(-1.008 -0.287287 -8.39002e-21)
(-1.40249 0.823775 0)
(-0.0880596 -0.100819 0)
(-0.886843 -0.333568 -1.08586e-20)
(-1.54269 0.653813 -3.22934e-21)
(0.00393189 -0.0364709 1.46221e-20)
(-0.6215 -0.35744 8.14671e-21)
(-1.09888 0.512131 0)
(-0.994121 0.631104 -3.12061e-21)
(-0.704917 -0.273804 0)
(-0.00277187 -0.0366385 1.4609e-20)
(-0.135685 -0.203586 -1.82387e-23)
(-1.01245 -0.209982 0)
(-1.48576 0.858039 0)
(-0.0233853 -0.104318 0)
(-0.927547 -0.374183 0)
(-1.6397 0.745318 1.29061e-20)
(-1.56536 0.804642 -9.01714e-21)
(-1.55075 0.787154 7.29387e-21)
(-0.0817355 -0.154695 -1.39324e-20)
(-0.983453 -0.278622 -2.30469e-21)
(-0.0896252 -0.155433 -2.25793e-20)
(-0.96742 -0.27696 4.19845e-21)
(-1.54949 0.628415 6.2811e-21)
(-0.872488 -0.352042 7.19383e-21)
(-0.0868455 -0.0851664 0)
(-0.280516 0.155463 0)
(-0.72676 -0.470244 0)
(-1.43109 0.363584 0)
(-0.676353 0.223436 0)
(-0.379803 -0.147387 -3.63211e-20)
(-0.676864 -0.052118 1.44309e-20)
(-1.51827 0.560405 1.8103e-20)
(-0.836064 -0.377225 2.67642e-21)
(-0.104771 -0.0472308 2.82551e-20)
(-0.120689 -0.0275189 1.84616e-20)
(-1.50196 0.534835 -2.52051e-20)
(-0.819394 -0.387019 -3.71237e-21)
(-1.45312 0.886818 1.02428e-20)
(-0.164133 -0.235055 1.3591e-20)
(-1.03184 -0.171517 1.81407e-20)
(-1.03702 0.630277 0)
(-0.934377 -0.037602 5.74797e-21)
(-0.353129 -0.318047 -3.13164e-20)
(-0.933412 0.513224 0)
(-0.874649 -0.0339402 2.65258e-20)
(-0.362459 -0.287906 -1.02789e-23)
(-1.37191 0.521479 -2.44362e-20)
(-0.812062 -0.324216 3.26311e-21)
(-0.142404 -0.0637177 -1.6029e-20)
(-1.40641 0.521394 0)
(-0.811529 -0.342827 3.06841e-21)
(-0.13765 -0.0503647 1.47883e-20)
(-0.554005 0.18441 0)
(-0.456599 -0.201012 -4.15121e-20)
(-0.741668 0.0402556 1.25891e-20)
(-1.02653 0.548918 0)
(-0.857433 -0.0849102 0)
(-0.307609 -0.253794 4.71568e-21)
(-0.0440393 -0.037952 -2.96593e-20)
(-0.834148 -0.458801 -2.82351e-20)
(-1.7277 0.587397 0)
(-1.59825 0.686494 6.01305e-21)
(0.00175575 -0.0816695 0)
(-0.848283 -0.415474 5.85662e-21)
(-1.57842 0.647856 -4.93672e-22)
(0.00600507 -0.0759524 0)
(-0.819534 -0.420678 -1.67807e-20)
(-0.744333 0.366515 8.95937e-21)
(-0.410076 -0.262607 -4.53581e-21)
(-0.824216 0.00227014 -2.42874e-22)
(-0.84715 -0.393512 2.74763e-22)
(0.000560335 -0.0751414 2.48107e-20)
(-1.4795 0.693955 0)
(-1.44567 0.746388 2.30904e-20)
(-0.142689 -0.178645 1.52914e-20)
(-0.940177 -0.230531 0)
(0.00605599 -0.0684165 -3.69306e-21)
(-0.799209 -0.412368 -8.98049e-21)
(-1.46501 0.646145 0)
(-0.710585 0.156544 2.08793e-20)
(-0.379066 -0.0272718 2.21633e-20)
(-0.575654 -0.127242 5.12875e-23)
(-1.11938 0.471912 -3.73152e-21)
(-0.779209 -0.202236 -3.41375e-21)
(-0.218976 -0.130089 -1.64489e-20)
(-0.617797 -0.369725 2.76437e-20)
(-1.09266 0.232039 2.26156e-20)
(-0.409147 0.189283 0)
(-0.00888421 -0.0747674 0)
(-0.849989 -0.433156 -5.56024e-21)
(-1.71061 0.646213 0)
(-0.782099 -0.39149 0)
(-1.42824 0.470641 0)
(-0.160178 0.0106887 0)
(-0.10267 -0.183431 0)
(-1.51142 0.876473 -7.55047e-21)
(-1.03549 -0.228843 7.97894e-21)
(-1.19275 0.512113 0)
(-0.798143 -0.224603 1.70317e-21)
(-0.197579 -0.126406 1.60778e-20)
(-0.650731 0.196095 0)
(-0.389342 -0.131068 3.11714e-20)
(-0.656059 -0.0517268 0)
(-0.877251 -0.417507 -1.97781e-20)
(-1.68863 0.680097 6.33792e-21)
(-0.013114 -0.0829675 0)
(-0.089796 -0.125827 -1.67734e-20)
(-0.912693 -0.310362 6.91416e-22)
(-1.5355 0.703435 5.22195e-22)
(-1.52134 0.814435 0)
(-1.49641 0.808054 6.91494e-21)
(-0.0387589 -0.121177 -9.06679e-21)
(-0.0309029 -0.11213 -1.11423e-20)
(-0.989449 -0.311902 -5.53796e-21)
(-0.978728 -0.322181 4.55408e-21)
(-1.11268 0.361175 0)
(-0.699996 -0.28806 4.63521e-20)
(-0.237827 -0.00617977 1.76732e-20)
(-0.765347 -0.34038 3.28469e-20)
(-1.32198 0.443739 0)
(-0.17669 -0.0101005 -1.95517e-20)
(-0.837592 0.229639 -1.71785e-20)
(-0.620718 -0.183248 1.21935e-20)
(-0.314046 -0.0275809 2.71472e-20)
(-0.858443 -0.421267 1.29275e-20)
(-1.65094 0.679308 6.88241e-21)
(-0.840069 -0.431138 -6.15917e-21)
(-0.000545712 -0.0837203 0)
(-1.66431 0.654294 -6.62987e-21)
(0.00160639 -0.0792129 0)
(-1.33936 0.592205 0)
(-0.846811 -0.262421 0)
(-0.152957 -0.124499 1.80055e-20)
(-1.67452 0.695562 1.04956e-20)
(-1.65703 0.694537 -1.93602e-20)
(-0.891085 -0.406039 8.46338e-21)
(-0.883716 -0.408256 -2.13771e-20)
(-0.0112994 -0.0902915 2.51412e-20)
(-0.00599252 -0.0894542 -2.57848e-23)
(-1.27694 0.418896 0)
(-0.742731 -0.350868 -3.05929e-20)
(-0.204108 0.0197677 2.5316e-20)
(-1.04088 0.373042 1.61333e-20)
(-0.734025 -0.228506 -2.0645e-20)
(-0.222207 -0.0820632 0)
(-1.50885 0.867624 0)
(-0.0731411 -0.156648 0)
(-1.0326 -0.258058 8.36306e-21)
(-1.12376 0.388345 1.18531e-20)
(-0.71819 -0.271217 -1.28911e-20)
(-0.222483 -0.0325862 -2.92309e-20)
(-0.908029 0.277918 6.96492e-21)
(-0.652929 -0.203274 -1.43107e-20)
(-0.285426 -0.0418569 1.59265e-20)
(-1.49847 0.832651 0)
(-0.0482727 -0.130629 0)
(-1.01055 -0.29477 -1.15219e-20)
(-1.20979 0.543833 0)
(-0.82467 -0.207631 3.61382e-21)
(-0.194304 -0.149297 -1.78553e-20)
(-0.677684 -0.461434 0)
(-1.30789 0.295359 0)
(-0.386038 0.233299 -9.90856e-22)
(-0.882312 0.537968 -1.01256e-21)
(-0.94301 0.0188626 0)
(-0.420006 -0.347763 3.29517e-20)
(-0.797184 -0.46986 1.39797e-20)
(-0.133504 0.0381142 0)
(-1.62185 0.490919 0)
(0.000534033 -0.0286848 -3.5142e-20)
(-0.599698 -0.282004 8.22812e-21)
(-0.943215 0.506193 -8.95743e-22)
(-1.16017 0.441391 0)
(-0.754509 -0.245356 1.26634e-20)
(-0.20283 -0.0824141 -1.48558e-20)
(-1.54778 0.843701 1.42277e-20)
(-0.07368 -0.154377 4.70387e-20)
(-1.00965 -0.270424 0)
(-0.502477 -0.413529 -8.72657e-21)
(-1.04545 0.0969863 -1.29757e-20)
(-0.766905 0.501197 -9.03e-21)
(-1.17081 0.721697 0)
(-0.00998527 -0.061065 -1.30685e-20)
(-0.864326 -0.303417 0)
(-0.413899 0.120461 1.71507e-20)
(-0.42914 0.149212 -1.75585e-20)
(-0.552943 -0.257376 0)
(-0.875024 0.159155 1.4452e-20)
(-0.560279 -0.284889 -2.6317e-20)
(-0.9155 0.161808 -1.15633e-20)
(-0.825306 0.203345 1.6144e-20)
(-0.595775 -0.190911 1.62471e-20)
(-0.339397 0.00628972 0)
(-0.516003 0.193142 1.51401e-20)
(-0.464364 0.152327 0)
(-0.497926 -0.252088 -1.47431e-20)
(-0.823976 0.0921508 1.2882e-20)
(-0.515626 -0.239745 1.4857e-20)
(-0.822581 0.112098 6.88352e-23)
(-1.10384 0.414247 1.02529e-21)
(-0.705184 -0.231277 -9.0184e-21)
(-0.241603 -0.058054 -1.96303e-20)
(-1.04725 0.358546 -2.76956e-20)
(-0.699777 -0.246548 2.39147e-22)
(-0.24442 -0.0389411 0)
(0.00661768 -0.0755299 0)
(-0.809452 -0.434454 0)
(-1.62829 0.635557 6.14899e-21)
(-0.808122 0.39574 -8.25687e-21)
(-0.810444 -0.0255348 0)
(-0.378103 -0.247428 8.43798e-21)
(-1.66117 0.718774 -2.07627e-20)
(-0.91146 -0.389835 9.89638e-21)
(-0.0202565 -0.0977318 -1.43377e-20)
(-1.40359 0.565848 0)
(-1.45806 0.595042 1.32339e-20)
(-0.836459 -0.311831 -4.06733e-21)
(-0.85452 -0.322269 1.28846e-20)
(-0.12868 -0.0847028 -1.99235e-20)
(-0.113592 -0.0883531 -1.85402e-20)
(-0.788733 0.360599 0)
(-0.778622 -0.0413703 0)
(-0.36895 -0.22349 3.97619e-21)
(-1.09917 0.625132 9.73746e-21)
(-0.898531 -0.0822953 0)
(-0.306442 -0.274241 1.04788e-20)
(-1.2941 0.524596 -7.00744e-21)
(-0.80786 -0.28153 0)
(-0.157905 -0.0889817 0)
(-0.561394 0.112759 1.65317e-20)
(-0.624347 -0.0164395 -7.78506e-21)
(-0.431756 -0.111475 8.33226e-21)
(-1.47736 0.564502 0)
(-0.836072 -0.354639 0)
(-0.113518 -0.0591633 -3.00258e-20)
(-0.639068 0.216871 0)
(-0.403269 -0.170822 4.59455e-21)
(-0.700328 -0.019003 0)
(-1.27177 0.438313 -1.57363e-20)
(-0.75636 -0.324898 -1.70055e-20)
(-0.18792 -0.0219055 -2.52527e-21)
(-1.0951 0.595622 9.80964e-21)
(-0.875981 -0.100414 0)
(-0.2896 -0.253363 2.15866e-20)
(-0.579513 0.146132 -1.63887e-20)
(-0.553436 0.141089 -7.37412e-21)
(-0.651396 -0.0185422 7.69059e-21)
(-0.422139 -0.133395 -1.65367e-20)
(-0.678565 0.00682145 0)
(-0.439248 -0.153699 -2.93476e-20)
(-0.503823 0.147218 -7.48611e-21)
(-0.479831 -0.203944 1.93788e-20)
(-0.470462 0.137301 4.82366e-21)
(-0.750493 0.0666029 -1.74779e-20)
(-0.511638 -0.22523 -9.25924e-21)
(-0.796363 0.102056 3.23267e-22)
(-0.914157 0.437266 8.89283e-21)
(-0.981624 0.463695 0)
(-0.791451 -0.0855326 1.56149e-20)
(-0.792129 -0.112959 -1.21963e-20)
(-0.318673 -0.212146 -1.89277e-20)
(-0.290632 -0.195632 3.14913e-20)
(-0.139988 -0.193422 0)
(-0.974313 -0.218499 -6.48854e-21)
(-1.4721 0.799005 -1.35374e-20)
(-0.427393 0.256229 1.20046e-20)
(-1.23724 0.260277 1.4772e-20)
(-0.652344 -0.445153 -2.91453e-20)
(-0.119889 -0.181351 -1.58313e-20)
(-0.109156 -0.168842 1.26996e-20)
(-0.98061 -0.239277 5.61159e-21)
(-0.965804 -0.257033 9.67014e-21)
(-1.50469 0.811856 3.42606e-20)
(-1.51945 0.789605 -1.77698e-20)
(-0.603022 0.357979 1.65115e-20)
(-0.545918 -0.3875 -1.38004e-20)
(-1.03526 0.140302 3.35986e-21)
(-0.550981 0.0627387 2.75752e-20)
(-0.454661 -0.0582521 0)
(-0.565869 -0.0295584 -2.70718e-20)
(-1.4983 0.596148 -6.23991e-21)
(-0.854719 -0.345471 -1.45507e-20)
(-0.103568 -0.0762846 0)
(-0.716041 0.311263 0)
(-0.39467 -0.228238 -3.78783e-21)
(-0.774189 -0.0125399 -1.33986e-20)
(-1.139 0.615254 0)
(-0.879441 -0.116388 0)
(-0.270234 -0.241842 -2.01207e-20)
(-1.40391 0.78828 -1.50127e-20)
(-1.40005 0.760927 0)
(-0.966631 -0.183543 3.4676e-21)
(-0.18039 -0.220504 -1.93058e-20)
(-0.949965 -0.193665 -9.45676e-21)
(-0.173693 -0.207211 2.61108e-20)