/*--------------------------------*- C++ -*----------------------------------*\
  =========                 |
  \\      /  F ield         | OpenFOAM: The Open Source CFD Toolbox
   \\    /   O peration     | Website:  https://openfoam.org
    \\  /    A nd           | Version:  6
     \\/     M anipulation  |
\*---------------------------------------------------------------------------*/
FoamFile
{
    version     2.0;
    format      ascii;
    class       volScalarField;
    location    "23736";
    object      epsilon;
}
// * * * * * * * * * * * * * * * * * * * * * * * * * * * * * * * * * * * * * //

dimensions      [0 2 -3 0 0 0 0];

internalField   nonuniform List<scalar> 
115600
(
3.04143e-05
3.6403e-05
4.26425e-05
4.67312e-05
4.83188e-05
4.77287e-05
4.57663e-05
4.31404e-05
4.04008e-05
3.77137e-05
3.51915e-05
3.28866e-05
3.08159e-05
2.89748e-05
2.73486e-05
2.59182e-05
2.46641e-05
2.35677e-05
2.2612e-05
2.1782e-05
2.10643e-05
2.0447e-05
1.99198e-05
1.94736e-05
1.91006e-05
1.87936e-05
1.85464e-05
1.83537e-05
1.82104e-05
1.81123e-05
1.80555e-05
1.80371e-05
1.80685e-05
1.8139e-05
1.82423e-05
1.83742e-05
1.85316e-05
1.87114e-05
1.89113e-05
1.9129e-05
1.93628e-05
1.96111e-05
1.9873e-05
2.0148e-05
2.04362e-05
2.07389e-05
2.10589e-05
2.14012e-05
2.1775e-05
2.21973e-05
2.26964e-05
2.33437e-05
2.42622e-05
2.5966e-05
3.01553e-05
4.58155e-05
0.000120017
0.000177691
0.000222226
0.000251492
0.000265374
0.000266253
0.000258384
0.000245704
0.000231337
0.000216754
0.000202781
0.000189836
0.00017809
0.000167572
0.00015823
0.000149979
0.000142721
0.00013636
0.000130806
0.000125974
0.000121791
0.000118191
0.000115114
0.000112508
0.000110328
0.000108533
0.000107087
0.000105959
0.00010512
0.000104546
0.000104212
0.000104104
0.000104265
0.00010465
0.000105227
0.000105972
0.000106868
0.000107898
0.000109048
0.000110304
0.000111657
0.000113098
0.000114621
0.000116221
0.000117901
0.000119665
0.000121527
0.000123513
0.00012567
0.000128082
0.000130898
0.000134447
0.000139388
0.000147868
0.000167239
0.00021663
0.000215537
0.000376253
0.000498041
0.000579152
0.000623149
0.000637517
0.000631123
0.000611745
0.000585196
0.000556011
0.000526587
0.000498283
0.000471834
0.000447573
0.000425589
0.000405843
0.000388225
0.000372598
0.00035881
0.000346714
0.000336165
0.000327029
0.000319183
0.000312514
0.000306919
0.000302306
0.000298591
0.000295699
0.000293562
0.000292116
0.000291305
0.000291092
0.000291515
0.0002925
0.000293981
0.000295902
0.000298213
0.00030087
0.000303834
0.000307069
0.000310544
0.000314233
0.000318115
0.000322175
0.000326404
0.000330807
0.000335403
0.000340234
0.000345382
0.000350992
0.000357347
0.000364962
0.000375142
0.000390605
0.000423084
0.00047207
0.000249443
0.00046838
0.000629005
0.000735949
0.000798531
0.000828162
0.000835134
0.000827338
0.000810318
0.000788011
0.000763431
0.000738348
0.000713806
0.0006904
0.00066845
0.000648118
0.00062947
0.000612513
0.000597221
0.000583541
0.00057141
0.000560752
0.000551491
0.000543546
0.000536839
0.000531292
0.000526829
0.000523376
0.000520864
0.000519225
0.000518392
0.000518322
0.00051895
0.000520231
0.000522109
0.000524523
0.000527414
0.000530723
0.000534397
0.000538383
0.000542637
0.000547115
0.000551781
0.000556602
0.000561554
0.000566618
0.000571785
0.000577062
0.000582479
0.000588083
0.000594038
0.000600464
0.000608241
0.000617165
0.000634354
0.000634553
0.000239102
0.000465772
0.000625784
0.000729828
0.000790995
0.000821878
0.000832623
0.00083053
0.000820675
0.000806182
0.000789227
0.000771429
0.000753733
0.000736671
0.000720538
0.000705489
0.000691603
0.000678912
0.000667416
0.000657095
0.000647916
0.000639837
0.000632812
0.000626788
0.000621714
0.000617536
0.000614201
0.000611655
0.000609846
0.000608721
0.000608231
0.000608333
0.000608925
0.000609982
0.000611473
0.000613358
0.000615596
0.00061814
0.000620949
0.000623977
0.000627185
0.000630533
0.000633982
0.000637495
0.000641038
0.000644575
0.000648071
0.000651488
0.00065479
0.000657912
0.000660829
0.000663292
0.000665438
0.000665186
0.00066469
0.000638485
0.000207656
0.000423647
0.000576325
0.000673691
0.000729857
0.000757786
0.000767377
0.000765577
0.00075714
0.000745073
0.000731161
0.000716568
0.000702147
0.000688347
0.000675403
0.000663428
0.000652467
0.000642527
0.000633589
0.000625621
0.000618582
0.000612428
0.000607109
0.000602579
0.000598788
0.00059569
0.000593239
0.00059139
0.000590097
0.00058932
0.000589014
0.00058914
0.000589617
0.00059042
0.000591521
0.000592891
0.000594497
0.000596306
0.000598283
0.000600392
0.000602598
0.000604864
0.000607154
0.00060943
0.000611652
0.000613774
0.000615747
0.000617508
0.000618985
0.000620061
0.000620604
0.000620238
0.000618685
0.0006136
0.000604863
0.000574614
0.000168235
0.000361609
0.000506767
0.000601402
0.000656381
0.000683877
0.000693498
0.000692039
0.000684145
0.000672841
0.000659968
0.000646576
0.00063336
0.000620758
0.000608995
0.00059818
0.000588349
0.000579496
0.000571593
0.000564595
0.000558454
0.000553116
0.000548528
0.000544638
0.000541395
0.00053875
0.000536658
0.000535074
0.000533956
0.000533263
0.000532955
0.000532991
0.000533317
0.000533901
0.000534715
0.00053573
0.000536917
0.000538245
0.000539683
0.000541199
0.000542761
0.000544333
0.000545881
0.000547365
0.000548742
0.000549966
0.000550979
0.000551712
0.000552075
0.000551939
0.000551136
0.00054928
0.000545944
0.000539095
0.000527882
0.000501055
0.000129383
0.000290185
0.000424011
0.000517931
0.000575707
0.000606639
0.000619397
0.000620543
0.000614703
0.000604992
0.000593402
0.000581132
0.000568844
0.000557002
0.000545876
0.000535605
0.000526249
0.000517816
0.000510285
0.000503619
0.000497768
0.000492682
0.000488305
0.000484587
0.000481474
0.000478919
0.000476874
0.000475296
0.000474143
0.000473375
0.000472953
0.000472834
0.00047298
0.000473357
0.000473936
0.000474685
0.000475577
0.000476582
0.00047767
0.00047881
0.000479971
0.000481119
0.000482219
0.000483232
0.000484118
0.000484826
0.000485301
0.000485472
0.000485249
0.000484504
0.000483067
0.000480589
0.000476619
0.000469518
0.000458335
0.000436118
9.6014e-05
0.000219438
0.000334986
0.000425655
0.000487297
0.000524241
0.000542968
0.000549281
0.000547633
0.0005412
0.000532129
0.000521809
0.000511043
0.00050037
0.000490138
0.000480551
0.000471717
0.000463682
0.000456452
0.000450009
0.00044432
0.000439342
0.00043503
0.000431338
0.000428218
0.000425626
0.000423518
0.000421851
0.000420586
0.000419685
0.00041911
0.00041882
0.000418783
0.000418966
0.00041934
0.000419874
0.000420539
0.000421308
0.000422149
0.000423035
0.000423933
0.000424812
0.000425638
0.000426373
0.000426976
0.000427402
0.000427595
0.000427488
0.000426996
0.000426001
0.000424343
0.000421715
0.000417701
0.00041099
0.000400735
0.000382583
6.97734e-05
0.000157663
0.000248931
0.000330313
0.000393029
0.00043587
0.000461861
0.000475156
0.000479574
0.000478136
0.000473053
0.000465854
0.000457548
0.000448812
0.000440097
0.000431692
0.000423775
0.000416447
0.000409757
0.000403719
0.000398327
0.000393559
0.000389386
0.000385774
0.000382687
0.000380087
0.000377936
0.000376199
0.000374839
0.000373823
0.000373116
0.000372681
0.000372489
0.00037251
0.000372714
0.000373074
0.000373562
0.00037415
0.000374809
0.000375512
0.000376229
0.000376929
0.00037758
0.000378145
0.000378587
0.000378861
0.000378915
0.000378689
0.000378102
0.000377049
0.000375382
0.000372836
0.000369041
0.000362938
0.00035383
0.000338924
5.02231e-05
0.000109162
0.000174638
0.0002405
0.000298569
0.00034405
0.000376226
0.000396781
0.000408221
0.000412991
0.000413132
0.000410187
0.000405364
0.000399456
0.000393025
0.000386458
0.000380014
0.000373861
0.000368104
0.000362804
0.000357988
0.000353665
0.000349829
0.000346466
0.000343553
0.000341066
0.000338978
0.000337261
0.000335888
0.000334829
0.000334055
0.000333537
0.000333246
0.000333157
0.000333242
0.000333476
0.000333834
0.00033429
0.000334818
0.000335391
0.000335981
0.000336559
0.000337096
0.000337557
0.000337906
0.000338102
0.000338098
0.000337836
0.000337245
0.000336227
0.000334651
0.000332287
0.000328807
0.000323343
0.000315336
0.000302956
3.6115e-05
7.41003e-05
0.000117196
0.000164643
0.000212102
0.000254716
0.000289438
0.000315416
0.000333314
0.000344466
0.000350416
0.000352588
0.00035212
0.000349872
0.00034649
0.000342447
0.000338084
0.000333642
0.000329286
0.00032513
0.000321245
0.000317676
0.000314446
0.000311565
0.000309031
0.000306837
0.00030497
0.000303413
0.000302149
0.000301157
0.000300414
0.0002999
0.000299592
0.000299465
0.000299497
0.000299666
0.00029995
0.000300327
0.000300772
0.000301262
0.000301772
0.000302274
0.000302741
0.000303142
0.000303443
0.000303607
0.00030359
0.000303338
0.000302787
0.00030185
0.000300406
0.000298253
0.000295106
0.000290239
0.000283203
0.000272787
2.61241e-05
5.01338e-05
7.68179e-05
0.000107521
0.000141342
0.000175728
0.000207758
0.000235178
0.000257013
0.000273345
0.000284794
0.000292229
0.000296537
0.0002985
0.000298762
0.000297837
0.000296119
0.00029391
0.000291432
0.00028885
0.000286281
0.00028381
0.000281492
0.000279365
0.000277453
0.000275768
0.000274314
0.000273089
0.000272088
0.000271299
0.000270712
0.000270311
0.000270086
0.000270011
0.000270071
0.000270249
0.000270526
0.000270884
0.000271302
0.00027176
0.000272236
0.000272705
0.000273143
0.000273522
0.00027381
0.000273974
0.000273973
0.00027376
0.000273274
0.000272435
0.000271137
0.000269199
0.000266367
0.000262029
0.000255823
0.000246945
1.91231e-05
3.42382e-05
5.02715e-05
6.86911e-05
9.00172e-05
0.000113775
0.00013852
0.000162612
0.000184507
0.000203215
0.00021838
0.000230118
0.000238817
0.000244972
0.000249081
0.000251599
0.000252915
0.000253348
0.000253156
0.000252539
0.000251654
0.000250621
0.000249527
0.000248441
0.00024741
0.000246469
0.00024564
0.000244939
0.000244374
0.000243946
0.000243656
0.000243497
0.000243468
0.000243552
0.000243736
0.000244009
0.000244357
0.000244767
0.000245222
0.000245706
0.000246199
0.000246683
0.000247133
0.000247527
0.000247837
0.000248031
0.000248073
0.000247918
0.000247513
0.000246785
0.000245635
0.000243901
0.000241361
0.000237485
0.00023198
0.000224322
1.42134e-05
2.37511e-05
3.33435e-05
4.40366e-05
5.64739e-05
7.08962e-05
8.72141e-05
0.000104803
0.000122722
0.000139973
0.000155738
0.000169508
0.00018109
0.000190525
0.000198005
0.000203791
0.000208162
0.000211385
0.000213698
0.000215308
0.000216385
0.00021707
0.000217476
0.000217692
0.00021779
0.000217824
0.000217835
0.000217856
0.000217909
0.00021801
0.000218168
0.000218391
0.000218683
0.000219044
0.000219459
0.000219924
0.000220433
0.000220974
0.000221539
0.000222115
0.000222686
0.000223236
0.000223748
0.0002242
0.000224567
0.000224823
0.000224935
0.000224861
0.000224554
0.000223945
0.000222945
0.000221407
0.000219132
0.000215663
0.000210754
0.000204076
1.0684e-05
1.67032e-05
2.25102e-05
2.87493e-05
3.58479e-05
4.41073e-05
5.37459e-05
6.47615e-05
7.69373e-05
8.98539e-05
0.000102965
0.000115713
0.000127628
0.000138393
0.000147847
0.000155962
0.000162804
0.000168492
0.000173174
0.000177
0.000180115
0.00018265
0.000184718
0.00018642
0.000187836
0.000189035
0.000190074
0.000190996
0.000191839
0.000192629
0.000193388
0.000194133
0.000194877
0.000195631
0.000196392
0.000197155
0.00019792
0.000198682
0.000199437
0.000200177
0.000200892
0.00020157
0.000202197
0.000202755
0.000203223
0.000203578
0.000203791
0.000203824
0.000203634
0.000203158
0.000202315
0.000200969
0.000198941
0.000195835
0.00019144
0.000185568
8.07939e-06
1.18718e-05
1.547e-05
1.92238e-05
2.33686e-05
2.81045e-05
3.36107e-05
4.00037e-05
4.73334e-05
5.55612e-05
6.45476e-05
7.40597e-05
8.38012e-05
9.34585e-05
0.000102748
0.000111447
0.000119415
0.00012658
0.000132935
0.000138515
0.000143382
0.000147612
0.000151285
0.000154481
0.000157272
0.000159725
0.000161898
0.000163842
0.0001656
0.000167208
0.000168695
0.000170086
0.000171401
0.000172658
0.000173871
0.000175036
0.000176153
0.000177227
0.000178256
0.000179238
0.000180169
0.000181039
0.00018184
0.000182557
0.000183175
0.000183671
0.000184022
0.000184194
0.000184146
0.000183823
0.000183147
0.000181997
0.000180209
0.000177437
0.0001735
0.000168308
6.24804e-06
8.63957e-06
1.09371e-05
1.32942e-05
1.58262e-05
1.86466e-05
2.1858e-05
2.55508e-05
2.98001e-05
3.46577e-05
4.01424e-05
4.62317e-05
5.28561e-05
5.99002e-05
6.72115e-05
7.46172e-05
8.19449e-05
8.90419e-05
9.57879e-05
0.000102101
0.000107936
0.000113278
0.000118137
0.000122538
0.000126518
0.000130116
0.000133375
0.000136335
0.000139034
0.000141508
0.000143787
0.000145897
0.000147864
0.000149708
0.000151448
0.000153099
0.000154654
0.000156119
0.0001575
0.000158798
0.000160014
0.000161142
0.000162177
0.00016311
0.000163926
0.000164611
0.00016514
0.000165486
0.000165612
0.000165466
0.000164977
0.000164034
0.000162489
0.000160039
0.000156523
0.000151927
5.11505e-06
6.62421e-06
8.13153e-06
9.67631e-06
1.13055e-05
1.30765e-05
1.50406e-05
1.72503e-05
1.97575e-05
2.26105e-05
2.58504e-05
2.95062e-05
3.35914e-05
3.80999e-05
4.30035e-05
4.82506e-05
5.37673e-05
5.94632e-05
6.52388e-05
7.09949e-05
7.66415e-05
8.21039e-05
8.7326e-05
9.22705e-05
9.69175e-05
0.000101261
0.000105306
0.000109065
0.000112554
0.000115795
0.000118807
0.000121612
0.000124228
0.000126676
0.000128973
0.000131135
0.000133176
0.000135086
0.000136873
0.000138543
0.000140098
0.000141539
0.000142861
0.000144058
0.000145122
0.000146038
0.000146787
0.000147344
0.000147676
0.000147735
0.000147458
0.000146741
0.00014545
0.000143322
0.000140213
0.00013616
4.49376e-06
5.4492e-06
6.46e-06
7.51127e-06
8.61372e-06
9.7919e-06
1.10685e-05
1.24697e-05
1.40241e-05
1.5762e-05
1.77141e-05
1.99096e-05
2.23743e-05
2.51284e-05
2.81845e-05
3.1546e-05
3.52047e-05
3.91404e-05
4.33205e-05
4.77008e-05
5.22278e-05
5.68425e-05
6.14851e-05
6.60985e-05
7.06324e-05
7.50453e-05
7.93055e-05
8.33908e-05
8.72876e-05
9.09897e-05
9.44964e-05
9.78111e-05
0.000100941
0.000103893
0.000106679
0.00010931
0.000111797
0.000114144
0.000116343
0.000118399
0.000120315
0.000122094
0.000123732
0.000125227
0.00012657
0.000127749
0.00012875
0.000129549
0.000130117
0.000130409
0.000130367
0.000129898
0.00012888
0.000127085
0.000124385
0.00012085
4.17668e-06
4.79084e-06
5.4833e-06
6.2224e-06
7.00211e-06
7.82923e-06
8.71198e-06
9.66166e-06
1.06922e-05
1.18195e-05
1.30613e-05
1.44364e-05
1.59641e-05
1.76636e-05
1.95527e-05
2.16467e-05
2.39573e-05
2.64916e-05
2.92505e-05
3.22287e-05
3.54135e-05
3.87852e-05
4.23172e-05
4.59775e-05
4.973e-05
5.35368e-05
5.73605e-05
6.11657e-05
6.49214e-05
6.86008e-05
7.21827e-05
7.56508e-05
7.89937e-05
8.2204e-05
8.52778e-05
8.82144e-05
9.10161e-05
9.36884e-05
9.62211e-05
9.86063e-05
0.000100845
0.000102935
0.000104876
0.000106661
0.000108285
0.000109735
0.000110998
0.000112053
0.000112872
0.000113415
0.000113627
0.000113425
0.000112698
0.000111251
0.000108971
0.000105949
4.02278e-06
4.43204e-06
4.9192e-06
5.4547e-06
6.02706e-06
6.6346e-06
7.27853e-06
7.96263e-06
8.69283e-06
9.4768e-06
1.03236e-05
1.12436e-05
1.22482e-05
1.33496e-05
1.45607e-05
1.58944e-05
1.73634e-05
1.89793e-05
2.07523e-05
2.269e-05
2.47969e-05
2.70742e-05
2.95187e-05
3.21229e-05
3.48749e-05
3.77584e-05
4.07537e-05
4.38379e-05
4.69865e-05
5.01739e-05
5.33752e-05
5.65667e-05
5.97271e-05
6.28376e-05
6.58821e-05
6.88478e-05
7.17248e-05
7.45072e-05
7.71931e-05
7.97585e-05
8.21963e-05
8.44999e-05
8.66625e-05
8.86761e-05
9.05313e-05
9.2216e-05
9.37147e-05
9.50072e-05
9.60664e-05
9.68553e-05
9.73228e-05
9.73932e-05
9.6968e-05
9.58827e-05
9.40351e-05
9.15281e-05
3.95277e-06
4.24366e-06
4.60003e-06
5.00095e-06
5.4356e-06
5.89919e-06
6.38991e-06
6.90796e-06
7.45524e-06
8.03502e-06
8.65166e-06
9.31049e-06
1.00177e-05
1.07802e-05
1.16056e-05
1.25022e-05
1.34787e-05
1.4544e-05
1.57072e-05
1.69769e-05
1.83612e-05
1.98669e-05
2.14994e-05
2.3262e-05
2.51558e-05
2.71791e-05
2.93274e-05
3.15933e-05
3.39668e-05
3.6435e-05
3.8983e-05
4.15943e-05
4.42512e-05
4.69359e-05
4.96306e-05
5.23182e-05
5.49829e-05
5.76111e-05
6.01929e-05
6.27156e-05
6.51549e-05
6.74983e-05
6.9733e-05
7.18461e-05
7.38237e-05
7.56506e-05
7.73089e-05
7.87768e-05
8.0027e-05
8.10236e-05
8.17189e-05
8.20443e-05
8.19119e-05
8.11844e-05
7.97728e-05
7.77788e-05
3.92481e-06
4.1513e-06
4.42715e-06
4.74001e-06
5.08218e-06
5.4487e-06
5.83696e-06
6.2457e-06
6.67492e-06
7.12567e-06
7.5998e-06
8.09993e-06
8.62926e-06
9.19158e-06
9.79121e-06
1.0433e-05
1.11221e-05
1.18644e-05
1.26657e-05
1.35324e-05
1.44708e-05
1.54873e-05
1.65878e-05
1.77781e-05
1.90627e-05
2.04455e-05
2.19289e-05
2.35136e-05
2.51987e-05
2.69814e-05
2.88569e-05
3.08184e-05
3.28574e-05
3.49637e-05
3.71258e-05
3.9331e-05
4.1566e-05
4.38173e-05
4.60727e-05
4.83235e-05
5.05469e-05
5.27261e-05
5.48443e-05
5.68846e-05
5.88293e-05
6.06599e-05
6.23555e-05
6.38925e-05
6.52426e-05
6.63703e-05
6.72304e-05
6.77607e-05
6.78837e-05
6.74852e-05
6.64896e-05
6.49883e-05
3.9174e-06
4.11212e-06
4.34142e-06
4.59872e-06
4.87968e-06
5.18049e-06
5.4989e-06
5.83333e-06
6.18307e-06
6.54813e-06
6.92912e-06
7.32717e-06
7.74389e-06
8.18127e-06
8.64173e-06
9.12802e-06
9.64324e-06
1.01908e-05
1.07744e-05
1.13981e-05
1.20661e-05
1.27828e-05
1.35527e-05
1.43804e-05
1.52703e-05
1.62265e-05
1.72529e-05
1.83527e-05
1.95284e-05
2.07814e-05
2.21123e-05
2.35203e-05
2.50033e-05
2.65578e-05
2.81791e-05
2.98609e-05
3.15956e-05
3.33745e-05
3.51886e-05
3.70309e-05
3.88883e-05
4.07455e-05
4.25867e-05
4.43949e-05
4.61521e-05
4.78388e-05
4.94334e-05
5.09116e-05
5.22452e-05
5.33998e-05
5.43329e-05
5.49889e-05
5.52999e-05
5.51717e-05
5.45412e-05
5.34841e-05
3.91967e-06
4.10153e-06
4.30664e-06
4.53125e-06
4.77344e-06
5.0308e-06
5.30185e-06
5.58533e-06
5.88043e-06
6.18682e-06
6.50451e-06
6.83393e-06
7.17578e-06
7.5311e-06
7.90118e-06
8.28761e-06
8.69217e-06
9.11693e-06
9.56415e-06
1.00363e-05
1.05361e-05
1.10664e-05
1.16302e-05
1.22306e-05
1.28708e-05
1.35541e-05
1.42837e-05
1.50625e-05
1.58935e-05
1.6779e-05
1.77212e-05
1.87213e-05
1.97804e-05
2.08982e-05
2.2074e-05
2.33058e-05
2.45905e-05
2.59242e-05
2.73017e-05
2.87183e-05
3.01691e-05
3.16439e-05
3.31309e-05
3.46169e-05
3.60867e-05
3.75236e-05
3.89082e-05
4.02183e-05
4.14281e-05
4.25062e-05
4.34147e-05
4.41049e-05
4.4519e-05
4.45803e-05
4.4237e-05
4.35469e-05
3.92622e-06
4.10552e-06
4.30047e-06
4.50809e-06
4.72767e-06
4.95786e-06
5.1979e-06
5.44703e-06
5.70469e-06
5.97052e-06
6.24439e-06
6.52637e-06
6.81675e-06
7.11603e-06
7.4249e-06
7.74422e-06
8.07507e-06
8.41866e-06
8.77638e-06
9.14979e-06
9.54057e-06
9.95057e-06
1.03817e-05
1.08362e-05
1.1316e-05
1.18236e-05
1.23611e-05
1.29308e-05
1.3535e-05
1.41759e-05
1.48553e-05
1.55751e-05
1.63368e-05
1.71414e-05
1.79896e-05
1.88813e-05
1.98159e-05
2.07921e-05
2.18076e-05
2.28594e-05
2.39472e-05
2.50652e-05
2.62063e-05
2.73615e-05
2.85202e-05
2.96698e-05
3.07951e-05
3.18784e-05
3.2898e-05
3.3828e-05
3.46363e-05
3.52826e-05
3.57192e-05
3.58853e-05
3.57395e-05
3.53234e-05
3.9343e-06
4.11615e-06
4.30916e-06
4.51001e-06
4.71828e-06
4.93313e-06
5.15426e-06
5.38133e-06
5.61408e-06
5.85231e-06
6.09592e-06
6.34488e-06
6.59932e-06
6.85945e-06
7.12564e-06
7.39838e-06
7.67828e-06
7.96609e-06
8.26265e-06
8.56897e-06
8.88611e-06
9.21527e-06
9.55775e-06
9.91492e-06
1.02883e-05
1.06793e-05
1.10895e-05
1.15207e-05
1.19744e-05
1.24521e-05
1.29555e-05
1.3486e-05
1.4045e-05
1.46337e-05
1.52529e-05
1.59032e-05
1.6585e-05
1.72979e-05
1.80412e-05
1.88132e-05
1.9615e-05
2.04438e-05
2.12954e-05
2.21645e-05
2.30443e-05
2.39261e-05
2.47992e-05
2.56503e-05
2.6463e-05
2.72172e-05
2.78875e-05
2.84423e-05
2.88441e-05
2.90458e-05
2.90156e-05
2.87829e-05
3.94246e-06
4.12894e-06
4.32427e-06
4.52448e-06
4.72887e-06
4.93666e-06
5.14767e-06
5.3618e-06
5.57901e-06
5.79926e-06
6.02254e-06
6.24885e-06
6.47827e-06
6.71091e-06
6.94697e-06
7.18675e-06
7.4306e-06
7.67898e-06
7.93245e-06
8.19163e-06
8.45723e-06
8.73006e-06
9.01097e-06
9.30092e-06
9.60089e-06
9.91194e-06
1.02352e-05
1.05717e-05
1.09227e-05
1.12894e-05
1.16728e-05
1.20741e-05
1.24943e-05
1.29344e-05
1.33952e-05
1.38774e-05
1.43814e-05
1.49074e-05
1.5455e-05
1.60237e-05
1.66144e-05
1.72257e-05
1.78553e-05
1.85003e-05
1.91561e-05
1.98172e-05
2.04762e-05
2.11238e-05
2.1748e-05
2.23338e-05
2.28624e-05
2.33097e-05
2.36475e-05
2.38402e-05
2.38645e-05
2.37416e-05
3.94988e-06
4.14134e-06
4.34071e-06
4.54341e-06
4.74829e-06
4.95435e-06
5.16129e-06
5.36904e-06
5.57762e-06
5.78706e-06
5.99744e-06
6.2088e-06
6.42123e-06
6.63481e-06
6.84969e-06
7.06605e-06
7.28413e-06
7.50422e-06
7.7267e-06
7.95199e-06
8.18057e-06
8.413e-06
8.64988e-06
8.89186e-06
9.13966e-06
9.39403e-06
9.65576e-06
9.92565e-06
1.02045e-05
1.04933e-05
1.07927e-05
1.11036e-05
1.14268e-05
1.17631e-05
1.2113e-05
1.24773e-05
1.28562e-05
1.32499e-05
1.36582e-05
1.40817e-05
1.45203e-05
1.49734e-05
1.54397e-05
1.59174e-05
1.64036e-05
1.68947e-05
1.73856e-05
1.78697e-05
1.83386e-05
1.87814e-05
1.91842e-05
1.95292e-05
1.97957e-05
1.99575e-05
1.99979e-05
1.99332e-05
3.95615e-06
4.15194e-06
4.35541e-06
4.56165e-06
4.76906e-06
4.97634e-06
5.18291e-06
5.38862e-06
5.59336e-06
5.79716e-06
6.0001e-06
6.20223e-06
6.40364e-06
6.60443e-06
6.80471e-06
7.00462e-06
7.20433e-06
7.40407e-06
7.60408e-06
7.80469e-06
8.00624e-06
8.20914e-06
8.41382e-06
8.62078e-06
8.83053e-06
9.04364e-06
9.26069e-06
9.48229e-06
9.70905e-06
9.94161e-06
1.01806e-05
1.04267e-05
1.06804e-05
1.09423e-05
1.12131e-05
1.1493e-05
1.17824e-05
1.20815e-05
1.23903e-05
1.27092e-05
1.30381e-05
1.33767e-05
1.37241e-05
1.40791e-05
1.44399e-05
1.48039e-05
1.51676e-05
1.55263e-05
1.5874e-05
1.62027e-05
1.65023e-05
1.67598e-05
1.696e-05
1.70837e-05
1.71195e-05
1.70809e-05
3.96102e-06
4.1599e-06
4.36654e-06
4.57595e-06
4.78622e-06
4.99577e-06
5.20376e-06
5.40982e-06
5.61366e-06
5.81521e-06
6.01445e-06
6.21142e-06
6.40617e-06
6.59877e-06
6.78932e-06
6.97793e-06
7.16475e-06
7.34993e-06
7.5337e-06
7.71628e-06
7.89796e-06
8.07905e-06
8.2599e-06
8.44088e-06
8.6224e-06
8.8049e-06
8.98883e-06
9.17467e-06
9.3629e-06
9.55403e-06
9.74855e-06
9.94694e-06
1.01497e-05
1.03572e-05
1.057e-05
1.07884e-05
1.10126e-05
1.12426e-05
1.14789e-05
1.17215e-05
1.19704e-05
1.22253e-05
1.24856e-05
1.27506e-05
1.30188e-05
1.32885e-05
1.35571e-05
1.38212e-05
1.40764e-05
1.43169e-05
1.4535e-05
1.47214e-05
1.48647e-05
1.49512e-05
1.4973e-05
1.49422e-05
3.96429e-06
4.16468e-06
4.37297e-06
4.58429e-06
4.79656e-06
5.00804e-06
5.21766e-06
5.42481e-06
5.62906e-06
5.83014e-06
6.0279e-06
6.22228e-06
6.41327e-06
6.60088e-06
6.78517e-06
6.96622e-06
7.14414e-06
7.31906e-06
7.49116e-06
7.66064e-06
7.82773e-06
7.99268e-06
8.15578e-06
8.31735e-06
8.47772e-06
8.63725e-06
8.79632e-06
8.95531e-06
9.11462e-06
9.27467e-06
9.43585e-06
9.59858e-06
9.76324e-06
9.93021e-06
1.00998e-05
1.02724e-05
1.0448e-05
1.06269e-05
1.08093e-05
1.09954e-05
1.11849e-05
1.13777e-05
1.15735e-05
1.17716e-05
1.19709e-05
1.21702e-05
1.23675e-05
1.25603e-05
1.27453e-05
1.2918e-05
1.30729e-05
1.32027e-05
1.32993e-05
1.33524e-05
1.33569e-05
1.33242e-05
3.96576e-06
4.16588e-06
4.37396e-06
4.58538e-06
4.79802e-06
5.0101e-06
5.22039e-06
5.42809e-06
5.63266e-06
5.83363e-06
6.03071e-06
6.22371e-06
6.4125e-06
6.59702e-06
6.77726e-06
6.95325e-06
7.12505e-06
7.29277e-06
7.45654e-06
7.61652e-06
7.77291e-06
7.92593e-06
8.07583e-06
8.22287e-06
8.36735e-06
8.50957e-06
8.64986e-06
8.78855e-06
8.92598e-06
9.0625e-06
9.19846e-06
9.3342e-06
9.47006e-06
9.60635e-06
9.74335e-06
9.88125e-06
1.00203e-05
1.01607e-05
1.03025e-05
1.04459e-05
1.05908e-05
1.0737e-05
1.08842e-05
1.10319e-05
1.11794e-05
1.13256e-05
1.1469e-05
1.16077e-05
1.17391e-05
1.18598e-05
1.19655e-05
1.20508e-05
1.21095e-05
1.2134e-05
1.21212e-05
1.20819e-05
3.96533e-06
4.16326e-06
4.36907e-06
4.57844e-06
4.78935e-06
5.00002e-06
5.20917e-06
5.41591e-06
5.61959e-06
5.81965e-06
6.01562e-06
6.20719e-06
6.39412e-06
6.57625e-06
6.75349e-06
6.92578e-06
7.09314e-06
7.25561e-06
7.41329e-06
7.5663e-06
7.71479e-06
7.85895e-06
7.999e-06
8.13517e-06
8.26771e-06
8.3969e-06
8.52301e-06
8.64634e-06
8.76718e-06
8.88586e-06
9.00266e-06
9.11791e-06
9.23188e-06
9.34484e-06
9.457e-06
9.5686e-06
9.67986e-06
9.79093e-06
9.90192e-06
1.00129e-05
1.01238e-05
1.02346e-05
1.03449e-05
1.04543e-05
1.05624e-05
1.06681e-05
1.07704e-05
1.08677e-05
1.0958e-05
1.10385e-05
1.11059e-05
1.11561e-05
1.11843e-05
1.11849e-05
1.1156e-05
1.11083e-05
3.96295e-06
4.15667e-06
4.35802e-06
4.56303e-06
4.76979e-06
4.97664e-06
5.18231e-06
5.38589e-06
5.58667e-06
5.78406e-06
5.97749e-06
6.16654e-06
6.35087e-06
6.53023e-06
6.70443e-06
6.87333e-06
7.03688e-06
7.19506e-06
7.3479e-06
7.49547e-06
7.6379e-06
7.77532e-06
7.90791e-06
8.03586e-06
8.15939e-06
8.27874e-06
8.39415e-06
8.50589e-06
8.61422e-06
8.7194e-06
8.82172e-06
8.92145e-06
9.01882e-06
9.11404e-06
9.20736e-06
9.29899e-06
9.38911e-06
9.47786e-06
9.56535e-06
9.65163e-06
9.73666e-06
9.82036e-06
9.90251e-06
9.98277e-06
1.00607e-05
1.01355e-05
1.02062e-05
1.02717e-05
1.03302e-05
1.03796e-05
1.04172e-05
1.04396e-05
1.04435e-05
1.04244e-05
1.03815e-05
1.03251e-05
3.95858e-06
4.14604e-06
4.34067e-06
4.5389e-06
4.73898e-06
4.93937e-06
5.1389e-06
5.33669e-06
5.53203e-06
5.72433e-06
5.91304e-06
6.09765e-06
6.27776e-06
6.45303e-06
6.62321e-06
6.78808e-06
6.94751e-06
7.1014e-06
7.24974e-06
7.39254e-06
7.52984e-06
7.66175e-06
7.78839e-06
7.90991e-06
8.0265e-06
8.13833e-06
8.24563e-06
8.34861e-06
8.44752e-06
8.54257e-06
8.63402e-06
8.72208e-06
8.80694e-06
8.88885e-06
8.96801e-06
9.04461e-06
9.11879e-06
9.1907e-06
9.26042e-06
9.328e-06
9.39342e-06
9.45659e-06
9.51734e-06
9.57537e-06
9.63027e-06
9.68144e-06
9.72808e-06
9.76912e-06
9.80319e-06
9.82852e-06
9.84296e-06
9.84385e-06
9.8285e-06
9.79354e-06
9.73891e-06
9.67458e-06
3.95219e-06
4.13133e-06
4.31698e-06
4.50598e-06
4.69678e-06
4.888e-06
5.07858e-06
5.26774e-06
5.45482e-06
5.63926e-06
5.82057e-06
5.99826e-06
6.17187e-06
6.34104e-06
6.50546e-06
6.66486e-06
6.81904e-06
6.96786e-06
7.11121e-06
7.24904e-06
7.38135e-06
7.50818e-06
7.62959e-06
7.74568e-06
7.85658e-06
7.96243e-06
8.06341e-06
8.15968e-06
8.25145e-06
8.3389e-06
8.42222e-06
8.50158e-06
8.57721e-06
8.64928e-06
8.71797e-06
8.78345e-06
8.84584e-06
8.90527e-06
8.96181e-06
9.01549e-06
9.06629e-06
9.11414e-06
9.15887e-06
9.20023e-06
9.23785e-06
9.27121e-06
9.29963e-06
9.32219e-06
9.33773e-06
9.34478e-06
9.34157e-06
9.32597e-06
9.29587e-06
9.24873e-06
9.18494e-06
9.11417e-06
3.94379e-06
4.11252e-06
4.28695e-06
4.46432e-06
4.64328e-06
4.82264e-06
5.00149e-06
5.17915e-06
5.35507e-06
5.52875e-06
5.69979e-06
5.86776e-06
6.03223e-06
6.19283e-06
6.34924e-06
6.50115e-06
6.64834e-06
6.7906e-06
6.92778e-06
7.05976e-06
7.18649e-06
7.30794e-06
7.42411e-06
7.53504e-06
7.64081e-06
7.74149e-06
7.83722e-06
7.92811e-06
8.0143e-06
8.09592e-06
8.17313e-06
8.24609e-06
8.31495e-06
8.37988e-06
8.44102e-06
8.4985e-06
8.55242e-06
8.60287e-06
8.64992e-06
8.69359e-06
8.73384e-06
8.7706e-06
8.80371e-06
8.83295e-06
8.85798e-06
8.87834e-06
8.89342e-06
8.90243e-06
8.90437e-06
8.89801e-06
8.88187e-06
8.85424e-06
8.81348e-06
8.75768e-06
8.68757e-06
8.61243e-06
3.93336e-06
4.08963e-06
4.25066e-06
4.41408e-06
4.57875e-06
4.7437e-06
4.90816e-06
5.0716e-06
5.23357e-06
5.39369e-06
5.55163e-06
5.70707e-06
5.85966e-06
6.00905e-06
6.15494e-06
6.29704e-06
6.4351e-06
6.56889e-06
6.69822e-06
6.82294e-06
6.94292e-06
7.05809e-06
7.16839e-06
7.2738e-06
7.37433e-06
7.47001e-06
7.5609e-06
7.64706e-06
7.72856e-06
7.8055e-06
7.87798e-06
7.94613e-06
8.01006e-06
8.06987e-06
8.12568e-06
8.17757e-06
8.22564e-06
8.26993e-06
8.31047e-06
8.34729e-06
8.38032e-06
8.40948e-06
8.43463e-06
8.45554e-06
8.47191e-06
8.48331e-06
8.48919e-06
8.48888e-06
8.4815e-06
8.466e-06
8.44116e-06
8.4056e-06
8.35807e-06
8.29718e-06
8.2239e-06
8.14697e-06
3.92091e-06
4.06273e-06
4.20827e-06
4.35558e-06
4.50373e-06
4.65194e-06
4.79964e-06
4.94641e-06
5.09194e-06
5.23598e-06
5.37828e-06
5.51862e-06
5.65676e-06
5.79241e-06
5.92533e-06
6.05524e-06
6.18193e-06
6.30515e-06
6.4247e-06
6.5404e-06
6.6521e-06
6.75967e-06
6.863e-06
6.96203e-06
7.05669e-06
7.14697e-06
7.23286e-06
7.31436e-06
7.39149e-06
7.46429e-06
7.53283e-06
7.59716e-06
7.65734e-06
7.71345e-06
7.76554e-06
7.81366e-06
7.85787e-06
7.89818e-06
7.93459e-06
7.9671e-06
7.99563e-06
8.02009e-06
8.04032e-06
8.0561e-06
8.06715e-06
8.07307e-06
8.07339e-06
8.06747e-06
8.05459e-06
8.03383e-06
8.00422e-06
7.96465e-06
7.9142e-06
7.85192e-06
7.77896e-06
7.7034e-06
3.90653e-06
4.032e-06
4.16016e-06
4.28944e-06
4.41912e-06
4.54865e-06
4.6776e-06
4.80571e-06
4.9328e-06
5.05871e-06
5.18331e-06
5.30645e-06
5.428e-06
5.54778e-06
5.66557e-06
5.78119e-06
5.89442e-06
6.00507e-06
6.11292e-06
6.21781e-06
6.31955e-06
6.41799e-06
6.51299e-06
6.60444e-06
6.69225e-06
6.77632e-06
6.85662e-06
6.93307e-06
7.00566e-06
7.07437e-06
7.1392e-06
7.20015e-06
7.25725e-06
7.3105e-06
7.35993e-06
7.40553e-06
7.44733e-06
7.48529e-06
7.5194e-06
7.54961e-06
7.57583e-06
7.59795e-06
7.6158e-06
7.62917e-06
7.63779e-06
7.64128e-06
7.63923e-06
7.63107e-06
7.61619e-06
7.59383e-06
7.5632e-06
7.52348e-06
7.47403e-06
7.4143e-06
7.34556e-06
7.27507e-06
3.8904e-06
3.99785e-06
4.10702e-06
4.21672e-06
4.32647e-06
4.43588e-06
4.5447e-06
4.65277e-06
4.76004e-06
4.86645e-06
4.97195e-06
5.07648e-06
5.17998e-06
5.28235e-06
5.38347e-06
5.48319e-06
5.58135e-06
5.67778e-06
5.77233e-06
5.8648e-06
5.95504e-06
6.04289e-06
6.12819e-06
6.2108e-06
6.2906e-06
6.36747e-06
6.44131e-06
6.51204e-06
6.57956e-06
6.64383e-06
6.70479e-06
6.76239e-06
6.81661e-06
6.8674e-06
6.91475e-06
6.95862e-06
6.99897e-06
7.03575e-06
7.06891e-06
7.09836e-06
7.124e-06
7.1457e-06
7.1633e-06
7.17656e-06
7.18525e-06
7.18902e-06
7.18749e-06
7.18019e-06
7.16661e-06
7.14615e-06
7.11821e-06
7.08222e-06
7.03783e-06
6.98485e-06
6.92466e-06
6.8635e-06
3.87279e-06
3.96095e-06
4.05007e-06
4.13929e-06
4.2283e-06
4.31689e-06
4.40495e-06
4.49243e-06
4.57934e-06
4.66572e-06
4.75158e-06
4.83693e-06
4.92177e-06
5.00604e-06
5.08971e-06
5.17268e-06
5.25485e-06
5.3361e-06
5.41628e-06
5.49526e-06
5.5729e-06
5.64903e-06
5.72352e-06
5.79622e-06
5.86698e-06
5.93568e-06
6.00219e-06
6.06642e-06
6.12824e-06
6.18754e-06
6.24424e-06
6.29825e-06
6.34951e-06
6.39793e-06
6.44345e-06
6.48601e-06
6.52552e-06
6.56192e-06
6.5951e-06
6.62497e-06
6.65141e-06
6.67426e-06
6.69337e-06
6.70853e-06
6.71948e-06
6.72596e-06
6.72762e-06
6.7241e-06
6.71498e-06
6.69984e-06
6.67829e-06
6.64999e-06
6.6149e-06
6.57315e-06
6.52621e-06
6.4791e-06
3.85443e-06
3.92279e-06