/*--------------------------------*- C++ -*----------------------------------*\
  =========                 |
  \\      /  F ield         | OpenFOAM: The Open Source CFD Toolbox
   \\    /   O peration     | Website:  https://openfoam.org
    \\  /    A nd           | Version:  6
     \\/     M anipulation  |
\*---------------------------------------------------------------------------*/
FoamFile
{
    version     2.0;
    format      ascii;
    class       surfaceScalarField;
    location    "25815";
    object      phi;
}
// * * * * * * * * * * * * * * * * * * * * * * * * * * * * * * * * * * * * * //

dimensions      [0 3 -1 0 0 0 0];

internalField   nonuniform List<scalar> 
230394
(
7.05544e-08
-1.84584e-08
7.71896e-08
-6.63523e-09
8.12926e-08
-4.10308e-09
8.41652e-08
-2.87262e-09
8.62422e-08
-2.07694e-09
8.73864e-08
-1.14428e-09
8.78003e-08
-4.13842e-10
8.77542e-08
4.6086e-11
8.74254e-08
3.288e-10
8.69031e-08
5.22277e-10
8.62638e-08
6.39262e-10
8.55623e-08
7.01467e-10
8.48376e-08
7.24755e-10
8.41157e-08
7.21811e-10
8.34132e-08
7.02531e-10
8.27403e-08
6.72902e-10
8.21036e-08
6.36703e-10
8.15072e-08
5.96406e-10
8.09536e-08
5.53623e-10
8.04442e-08
5.09432e-10
7.99796e-08
4.64581e-10
7.956e-08
4.19593e-10
7.91852e-08
3.74795e-10
7.88548e-08
3.30396e-10
7.85682e-08
2.86548e-10
7.83249e-08
2.43317e-10
7.81242e-08
2.00672e-10
7.79656e-08
1.58543e-10
7.78488e-08
1.16817e-10
7.77735e-08
7.53223e-11
7.77416e-08
3.19448e-11
7.77598e-08
-1.82179e-11
7.78306e-08
-7.06968e-11
7.79499e-08
-1.19331e-10
7.81162e-08
-1.66316e-10
7.83297e-08
-2.13469e-10
7.8592e-08
-2.62271e-10
7.8906e-08
-3.13937e-10
7.92758e-08
-3.69773e-10
7.97072e-08
-4.3142e-10
8.02079e-08
-5.00738e-10
8.0788e-08
-5.80026e-10
8.14601e-08
-6.72153e-10
8.2241e-08
-7.80848e-10
8.31522e-08
-9.11183e-10
8.42224e-08
-1.07019e-09
8.54896e-08
-1.26725e-09
8.70072e-08
-1.51756e-09
8.88477e-08
-1.8404e-09
9.11291e-08
-2.28137e-09
9.40073e-08
-2.8782e-09
9.78622e-08
-3.85489e-09
1.03135e-07
-5.27297e-09
1.1224e-07
-9.10451e-09
1.31835e-07
-1.9595e-08
-9.08305e-08
2.22665e-07
2.1433e-07
-7.16241e-08
2.35556e-07
-2.78612e-08
2.4975e-07
-1.82976e-08
2.59312e-07
-1.24342e-08
2.65619e-07
-8.38455e-09
2.69163e-07
-4.68829e-09
2.70599e-07
-1.84901e-09
2.70626e-07
1.85759e-11
2.69767e-07
1.18789e-09
2.68323e-07
1.96649e-09
2.66516e-07
2.44585e-09
2.64508e-07
2.70944e-09
2.62414e-07
2.81908e-09
2.60312e-07
2.82345e-09
2.58255e-07
2.75978e-09
2.56276e-07
2.6519e-09
2.54397e-07
2.51532e-09
2.52633e-07
2.36031e-09
2.50993e-07
2.19378e-09
2.49482e-07
2.02045e-09
2.48103e-07
1.84364e-09
2.46857e-07
1.66567e-09
2.45744e-07
1.48812e-09
2.44762e-07
1.31205e-09
2.4391e-07
1.13818e-09
2.43187e-07
9.669e-10
2.42589e-07
7.98312e-10
2.42115e-07
6.32294e-10
2.41764e-07
4.68449e-10
2.41533e-07
3.05965e-10
2.41428e-07
1.36758e-10
2.41466e-07
-5.62341e-11
2.41651e-07
-2.55484e-10
2.41971e-07
-4.39279e-10
2.42421e-07
-6.16422e-10
2.43001e-07
-7.93016e-10
2.43713e-07
-9.73887e-10
2.44562e-07
-1.16325e-09
2.45558e-07
-1.36574e-09
2.46714e-07
-1.58702e-09
2.48046e-07
-1.83357e-09
2.4958e-07
-2.11322e-09
2.51343e-07
-2.43589e-09
2.53377e-07
-2.81442e-09
2.55732e-07
-3.26601e-09
2.58476e-07
-3.81419e-09
2.617e-07
-4.49135e-09
2.65529e-07
-5.34673e-09
2.70139e-07
-6.45044e-09
2.75795e-07
-7.93722e-09
2.82905e-07
-9.98798e-09
2.92231e-07
-1.31806e-08
3.05199e-07
-1.82412e-08
3.25864e-07
-2.97694e-08
3.65754e-07
-5.94851e-08
-1.57418e-07
4.32342e-07
3.47562e-07
-1.40736e-07
3.81799e-07
-6.20978e-08
4.04994e-07
-4.14924e-08
4.20802e-07
-2.82424e-08
4.31542e-07
-1.91243e-08
4.3844e-07
-1.15869e-08
4.42411e-07
-5.81944e-09
4.44209e-07
-1.77937e-09
4.44499e-07
8.97241e-10
4.43788e-07
2.6776e-09
4.4238e-07
3.85417e-09
4.40507e-07
4.58239e-09
4.38345e-07
4.98101e-09
4.36023e-07
5.14501e-09
4.33635e-07
5.14767e-09
4.31249e-07
5.03824e-09
4.28914e-07
4.8503e-09
4.26667e-07
4.6072e-09
4.24535e-07
4.32551e-09
4.22539e-07
4.01725e-09
4.20691e-07
3.69127e-09
4.19003e-07
3.35415e-09
4.1748e-07
3.01075e-09
4.16127e-07
2.66462e-09
4.14947e-07
2.31838e-09
4.1394e-07
1.97383e-09
4.13106e-07
1.63204e-09
4.12445e-07
1.29349e-09
4.11956e-07
9.57913e-10
4.11638e-07
6.23721e-10
4.11499e-07
2.76331e-10
4.11553e-07
-1.10557e-10
4.11805e-07
-5.07422e-10
4.12245e-07
-8.79526e-10
4.12869e-07
-1.24041e-09
4.13677e-07
-1.60041e-09
4.14671e-07
-1.96813e-09
4.15859e-07
-2.3516e-09
4.17253e-07
-2.75984e-09
4.1887e-07
-3.20388e-09
4.20733e-07
-3.6964e-09
4.22873e-07
-4.25264e-09
4.25329e-07
-4.89187e-09
4.28153e-07
-5.63901e-09
4.31414e-07
-6.52699e-09
4.35201e-07
-7.60058e-09
4.39631e-07
-8.92159e-09
4.44866e-07
-1.05816e-08
4.51131e-07
-1.27152e-08
4.58755e-07
-1.55609e-08
4.68251e-07
-1.94848e-08
4.80501e-07
-2.54302e-08
4.97231e-07
-3.4971e-08
5.22271e-07
-5.48092e-08
5.65033e-07
-1.02247e-07
-2.13451e-07
6.21065e-07
4.68369e-07
-2.05646e-07
5.04899e-07
-9.86277e-08
5.31257e-07
-6.78501e-08
5.49926e-07
-4.69114e-08
5.63259e-07
-3.2457e-08
5.72697e-07
-2.10248e-08
5.79158e-07
-1.22814e-08
5.83314e-07
-5.93449e-09
5.85711e-07
-1.50061e-09
5.86853e-07
1.53628e-09
5.87096e-07
3.61076e-09
5.86677e-07
5.00131e-09
5.8578e-07
5.87816e-09
5.84547e-07
6.37802e-09
5.83088e-07
6.60713e-09
5.81487e-07
6.63903e-09
5.79811e-07
6.52558e-09
5.78115e-07
6.30414e-09
5.76438e-07
6.00224e-09
5.74814e-07
5.64059e-09
5.73271e-07
5.23496e-09
5.71827e-07
4.79752e-09
5.705e-07
4.33763e-09
5.69303e-07
3.86246e-09
5.68243e-07
3.37753e-09
5.6733e-07
2.8869e-09
5.66569e-07
2.39343e-09
5.65964e-07
1.89882e-09
5.65518e-07
1.40344e-09
5.65237e-07
9.0518e-10
5.65128e-07
3.85281e-10
5.65201e-07
-1.83319e-10
5.65459e-07
-7.6577e-10
5.65904e-07
-1.32465e-09
5.66538e-07
-1.87455e-09
5.67366e-07
-2.42831e-09
5.68396e-07
-2.9976e-09
5.69638e-07
-3.59411e-09
5.7111e-07
-4.23133e-09
5.72832e-07
-4.92595e-09
5.74833e-07
-5.69738e-09
5.77149e-07
-6.56894e-09
5.79828e-07
-7.57012e-09
5.82927e-07
-8.73881e-09
5.86525e-07
-1.01248e-08
5.9072e-07
-1.17954e-08
5.95642e-07
-1.38431e-08
6.01463e-07
-1.64029e-08
6.08423e-07
-1.96748e-08
6.1686e-07
-2.3998e-08
6.27294e-07
-2.99195e-08
6.40566e-07
-3.87019e-08
6.5827e-07
-5.26753e-08
6.83359e-07
-7.98978e-08
7.22339e-07
-1.41227e-07
-2.60301e-07
7.69189e-07
5.85241e-07
-2.5578e-07
6.16192e-07
-1.29579e-07
6.40398e-07
-9.20554e-08
6.58431e-07
-6.4945e-08
6.71892e-07
-4.59181e-08
6.81982e-07
-3.11151e-08
6.89457e-07
-1.97564e-08
6.94869e-07
-1.13458e-08
6.98626e-07
-5.25799e-09
7.01104e-07
-9.41919e-10
7.02643e-07
2.07214e-09
7.03475e-07
4.1697e-09
7.03761e-07
5.5921e-09
7.0363e-07
6.50869e-09
7.03185e-07
7.05168e-09
7.0251e-07
7.31428e-09
7.01672e-07
7.3637e-09
7.00726e-07
7.24959e-09
6.99719e-07
7.00937e-09
6.98688e-07
6.67181e-09
6.97664e-07
6.25929e-09
6.96672e-07
5.78936e-09
6.95734e-07
5.27582e-09
6.94867e-07
4.72953e-09
6.94085e-07
4.15894e-09
6.93402e-07
3.57052e-09
6.92826e-07
2.96901e-09
6.92367e-07
2.35746e-09
6.92034e-07
1.73699e-09
6.91834e-07
1.10521e-09
6.91778e-07
4.41084e-10
6.91873e-07
-2.7857e-10
6.92125e-07
-1.01735e-09
6.92542e-07
-1.74151e-09
6.93133e-07
-2.46574e-09
6.93909e-07
-3.20445e-09
6.94883e-07
-3.97177e-09
6.96072e-07
-4.78267e-09
6.97496e-07
-5.65491e-09
6.9918e-07
-6.61075e-09
7.01159e-07
-7.67632e-09
7.03474e-07
-8.88317e-09
7.06175e-07
-1.02711e-08
7.09327e-07
-1.18913e-08
7.13013e-07
-1.38104e-08
7.17336e-07
-1.61182e-08
7.2243e-07
-1.89377e-08
7.28474e-07
-2.24461e-08
7.35705e-07
-2.69065e-08
7.44458e-07
-3.27509e-08
7.55235e-07
-4.06964e-08
7.68797e-07
-5.22641e-08
7.86572e-07
-7.04501e-08
8.10683e-07
-1.04009e-07
8.45845e-07
-1.76389e-07
-3.00434e-07
8.85978e-07
7.04355e-07
-2.88521e-07
7.25918e-07
-1.51143e-07
7.44398e-07
-1.10536e-07
7.59129e-07
-7.96754e-08
7.70677e-07
-5.74667e-08
7.79759e-07
-4.01964e-08
7.86843e-07
-2.68406e-08
7.92299e-07
-1.68022e-08
7.96417e-07
-9.37579e-09
7.99428e-07
-3.95318e-09
8.01575e-07
-7.45732e-11
8.03072e-07
2.67316e-09
8.04051e-07
4.61254e-09
8.04616e-07
5.94383e-09
8.04851e-07
6.81692e-09
8.04826e-07
7.3387e-09
8.04602e-07
7.58773e-09
8.04229e-07
7.62301e-09
8.03748e-07
7.48979e-09
8.03197e-07
7.22332e-09
8.02605e-07
6.85135e-09
8.01998e-07
6.39595e-09
8.01399e-07
5.87467e-09
8.00827e-07
5.30146e-09
8.00299e-07
4.68736e-09
7.99829e-07
4.04094e-09
7.99429e-07
3.36856e-09
7.99112e-07
2.67449e-09
7.98889e-07
1.96051e-09
7.9877e-07
1.22405e-09
7.98768e-07
4.42783e-10
7.98891e-07
-4.01249e-10
7.99145e-07
-1.2715e-09
7.99544e-07
-2.14011e-09
8.001e-07
-3.0221e-09
8.00829e-07
-3.9333e-09
8.01747e-07
-4.89013e-09
8.02875e-07
-5.91062e-09
8.04237e-07
-7.01665e-09
8.05862e-07
-8.23587e-09
8.07787e-07
-9.60108e-09
8.10056e-07
-1.1152e-08
8.12723e-07
-1.29387e-08
8.15857e-07
-1.50253e-08
8.19542e-07
-1.74956e-08
8.23885e-07
-2.0461e-08
8.29022e-07
-2.40746e-08
8.3513e-07
-2.85538e-08
8.42446e-07
-3.42225e-08
8.51292e-07
-4.15974e-08
8.62151e-07
-5.15552e-08
8.75709e-07
-6.58222e-08
8.93253e-07
-8.79937e-08
9.16273e-07
-1.27029e-07
9.48429e-07
-2.08545e-07
-3.35849e-07
9.83844e-07
8.27396e-07
-3.05416e-07
8.38717e-07
-1.62464e-07
8.49511e-07
-1.21329e-07
8.59081e-07
-8.9246e-08
8.67142e-07
-6.55278e-08
8.73876e-07
-4.69303e-08
8.79411e-07
-3.23758e-08
8.83894e-07
-2.12845e-08
8.87462e-07
-1.29445e-08
8.90243e-07
-6.73354e-09
8.92351e-07
-2.18317e-09
8.9393e-07
1.09484e-09
8.95095e-07
3.44683e-09
8.95914e-07
5.12552e-09
8.96444e-07
6.28627e-09
8.9674e-07
7.04315e-09
8.96846e-07
7.48161e-09
8.96802e-07
7.66678e-09
8.96643e-07
7.64915e-09
8.96398e-07
7.46845e-09
8.96093e-07
7.15622e-09
8.95751e-07
6.7377e-09
8.95392e-07
6.23312e-09
8.95035e-07
5.65869e-09
8.94695e-07
5.02731e-09
8.94387e-07
4.34907e-09
8.94124e-07
3.6315e-09
8.93919e-07
2.87971e-09
8.93784e-07
2.09586e-09
8.93731e-07
1.27718e-09
8.93773e-07
4.0053e-10
8.93919e-07
-5.47192e-10
8.94177e-07
-1.52999e-09
8.94563e-07
-2.52601e-09
8.95092e-07
-3.55101e-09
8.95781e-07
-4.6224e-09
8.9665e-07
-5.75894e-09
8.97721e-07
-6.98172e-09
8.99021e-07
-8.31668e-09
9.00582e-07
-9.79678e-09
9.02443e-07
-1.14614e-08
9.04649e-07
-1.33583e-08
9.07258e-07
-1.55478e-08
9.10339e-07
-1.81068e-08
9.1398e-07
-2.11356e-08
9.18286e-07
-2.47672e-08
9.23395e-07
-2.91836e-08
9.29482e-07
-3.4641e-08
9.36781e-07
-4.15217e-08
9.45604e-07
-5.042e-08
9.56412e-07
-6.23635e-08
9.6983e-07
-7.92403e-08
9.87033e-07
-1.05196e-07
1.00905e-06
-1.49048e-07
1.03889e-06
-2.38388e-07
-3.6791e-07
1.07095e-06
9.5348e-07
-3.09869e-07
9.55784e-07
-1.64767e-07
9.5846e-07
-1.24006e-07
9.61869e-07
-9.26552e-08
9.65361e-07
-6.90194e-08
9.68732e-07
-5.03014e-08
9.71801e-07
-3.54451e-08
9.74484e-07
-2.39677e-08
9.76759e-07
-1.52188e-08
9.78631e-07
-8.60602e-09
9.80121e-07
-3.6729e-09
9.81282e-07
-6.67293e-11
9.82177e-07
2.55214e-09
9.82839e-07
4.46404e-09
9.83299e-07
5.82546e-09
9.8359e-07
6.75209e-09
9.8374e-07
7.33196e-09
9.83774e-07
7.63291e-09
9.83715e-07
7.708e-09
9.83584e-07
7.59921e-09
9.834e-07
7.34008e-09
9.83181e-07
6.95753e-09
9.8294e-07
6.47327e-09
9.82694e-07
5.90471e-09
9.82456e-07
5.26577e-09
9.82238e-07
4.56731e-09
9.82052e-07
3.81746e-09
9.8191e-07
3.02163e-09
9.81824e-07
2.18201e-09
9.81806e-07
1.2954e-09
9.81868e-07
3.38222e-10
9.8202e-07
-6.99075e-10
9.82271e-07
-1.7817e-09
9.82639e-07
-2.89304e-09
9.83137e-07
-4.04989e-09
9.83786e-07
-5.27144e-09
9.84607e-07
-6.57896e-09
9.85622e-07
-7.99675e-09
9.8686e-07
-9.55485e-09
9.88355e-07
-1.12916e-08
9.90146e-07
-1.32528e-08
9.92282e-07
-1.54943e-08
9.9482e-07
-1.80864e-08
9.97832e-07
-2.11188e-08
1.0014e-06
-2.4708e-08
1.00565e-06
-2.9008e-08
1.01069e-06
-3.42292e-08
1.01672e-06
-4.06652e-08
1.02395e-06
-4.87543e-08
1.03269e-06
-5.91634e-08
1.04339e-06
-7.30633e-08
1.05662e-06
-9.24705e-08
1.07347e-06
-1.22042e-07
1.09464e-06
-1.70216e-07
1.12267e-06
-2.66424e-07
-3.97511e-07
1.15227e-06
1.08057e-06
-3.0543e-07
1.07629e-06
-1.60489e-07
1.07181e-06
-1.19525e-07
1.06899e-06
-8.98344e-08
1.0674e-06
-6.74278e-08
1.06675e-06
-4.96494e-08
1.06668e-06
-3.53725e-08
1.06691e-06
-2.42067e-08
1.06729e-06
-1.55974e-08
1.0677e-06
-9.01532e-09
1.06808e-06
-4.04573e-09
1.06838e-06
-3.68431e-10
1.0686e-06
2.33193e-09
1.06874e-06
4.32587e-09
1.06879e-06
5.76628e-09
1.06878e-06
6.76493e-09
1.06871e-06
7.40815e-09
1.06858e-06
7.76301e-09
1.0684e-06
7.88227e-09
1.06819e-06
7.80785e-09
1.06796e-06
7.57335e-09
1.06771e-06
7.20583e-09
1.06746e-06
6.72713e-09
1.06721e-06
6.15479e-09
1.06697e-06
5.50278e-09
1.06676e-06
4.78198e-09
1.06657e-06
4.00039e-09
1.06643e-06
3.16319e-09
1.06634e-06
2.27211e-09
1.06631e-06
1.32326e-09
1.06636e-06
2.92954e-10
1.06649e-06
-8.26546e-10
1.06671e-06
-2.00255e-09
1.06704e-06
-3.22252e-09
1.06749e-06
-4.50449e-09
1.06809e-06
-5.86967e-09
1.06885e-06
-7.34207e-09
1.0698e-06
-8.94935e-09
1.07098e-06
-1.07258e-08
1.0724e-06
-1.2715e-08
1.07412e-06
-1.49697e-08
1.07617e-06
-1.75534e-08
1.07864e-06
-2.05466e-08
1.08157e-06
-2.40515e-08
1.08506e-06
-2.82007e-08
1.08922e-06
-3.3169e-08
1.09419e-06
-3.91943e-08
1.10013e-06
-4.66069e-08
1.10727e-06
-5.58993e-08
1.11592e-06
-6.78068e-08
1.12649e-06
-8.36368e-08
1.13953e-06
-1.05509e-07
1.15604e-06
-1.38557e-07
1.17651e-06
-1.90686e-07
1.2031e-06
-2.9301e-07
-4.25242e-07
1.23083e-06
1.20636e-06
-2.9479e-07
1.19826e-06
-1.5239e-07
1.18868e-06
-1.09945e-07
1.18055e-06
-8.17008e-08
1.17404e-06
-6.0923e-08
1.16915e-06
-4.47536e-08
1.16554e-06
-3.17684e-08
1.16289e-06
-2.15536e-08
1.16092e-06
-1.3624e-08
1.15942e-06
-7.51896e-09
1.15826e-06
-2.88182e-09
1.15731e-06
5.76848e-10
1.1565e-06
3.14036e-09
1.15579e-06
5.03831e-09
1.15515e-06
6.40855e-09
1.15456e-06
7.35556e-09
1.15401e-06
7.95988e-09
1.15349e-06
8.28422e-09
1.15299e-06
8.37809e-09
1.15252e-06
8.28092e-09
1.15207e-06
8.02438e-09
1.15164e-06
7.634e-09
1.15123e-06
7.13039e-09
1.15086e-06
6.53005e-09
1.15052e-06
5.84603e-09
1.15021e-06
5.08838e-09
1.14995e-06
4.26429e-09
1.14973e-06
3.37808e-09
1.14957e-06
2.4305e-09
1.14948e-06
1.41666e-09
1.14946e-06
3.13237e-10
1.14952e-06
-8.8778e-10
1.14967e-06
-2.15693e-09
1.14994e-06
-3.48433e-09
1.15032e-06
-4.88955e-09
1.15085e-06
-6.39602e-09
1.15154e-06
-8.03069e-09
1.15241e-06
-9.82476e-09
1.1535e-06
-1.18169e-08
1.15484e-06
-1.40564e-08
1.15648e-06
-1.66024e-08
1.15845e-06
-1.95267e-08
1.16082e-06
-2.29198e-08
1.16367e-06
-2.68965e-08
1.16707e-06
-3.16052e-08
1.17114e-06
-3.72414e-08
1.17602e-06
-4.40701e-08
1.18187e-06
-5.24576e-08
1.18892e-06
-6.29492e-08
1.19746e-06
-7.63455e-08
1.20791e-06
-9.40845e-08
1.22077e-06
-1.18372e-07
1.23699e-06
-1.54778e-07
1.25689e-06
-2.10588e-07
1.28228e-06
-3.18395e-07
-4.51491e-07
1.30853e-06
1.32874e-06
-2.7976e-07
1.31918e-06
-1.42832e-07
1.30712e-06
-9.78851e-08
1.2955e-06
-7.00831e-08
1.28505e-06
-5.04735e-08
1.27626e-06
-3.5964e-08
1.26912e-06
-2.46269e-08
1.26339e-06
-1.58196e-08
1.25879e-06
-9.02351e-09
1.25507e-06
-3.80559e-09
1.25205e-06
1.4526e-10
1.24952e-06
3.09924e-09
1.24737e-06
5.29313e-09
1.24552e-06
6.89313e-09
1.2439e-06
8.02283e-09
1.24248e-06
8.77441e-09
1.24123e-06
9.21842e-09
1.2401e-06
9.40969e-09
1.23909e-06
9.39147e-09
1.23817e-06
9.19826e-09
1.23734e-06
8.85777e-09
1.23658e-06
8.39233e-09
1.23589e-06
7.8199e-09
1.23526e-06
7.15474e-09
1.2347e-06
6.40802e-09
1.2342e-06
5.58807e-09
1.23377e-06
4.70054e-09
1.2334e-06
3.74825e-09
1.2331e-06
2.73048e-09
1.23287e-06
1.64091e-09
1.23273e-06
4.57241e-10
1.23267e-06
-8.31083e-10
1.23271e-06
-2.19916e-09
1.23287e-06
-3.63826e-09
1.23315e-06
-5.16982e-09
1.23357e-06
-6.8197e-09
1.23416e-06
-8.618e-09
1.23493e-06
-1.05997e-08
1.23592e-06
-1.28079e-08
1.23717e-06
-1.52978e-08
1.2387e-06
-1.81353e-08
1.24057e-06
-2.14005e-08
1.24285e-06
-2.51938e-08
1.24559e-06
-2.96428e-08
1.2489e-06
-3.49118e-08
1.25287e-06
-4.12166e-08
1.25765e-06
-4.88495e-08
1.26341e-06
-5.82118e-08
1.27036e-06
-6.99009e-08
1.27879e-06
-8.47804e-08
1.28912e-06
-1.04413e-07
1.30183e-06
-1.31075e-07
1.31779e-06
-1.7074e-07
1.33722e-06
-2.30022e-07
1.36159e-06
-3.42758e-07
-4.76526e-07
1.38662e-06
1.446e-06
-2.61744e-07
1.43655e-06
-1.33376e-07
1.42448e-06
-8.5821e-08
1.41178e-06
-5.73778e-08
1.39916e-06
-3.78608e-08
1.38755e-06
-2.43506e-08
1.3774e-06
-1.44799e-08
1.36878e-06
-7.19385e-09
1.36154e-06
-1.78335e-09
1.35548e-06
2.2552e-09
1.35036e-06
5.26138e-09
1.346e-06
7.46548e-09
1.34224e-06
9.0446e-09
1.339e-06
1.01369e-08
1.33618e-06
1.08454e-08
1.33371e-06
1.12459e-08
1.33153e-06
1.13953e-08
1.3296e-06
1.13378e-08
1.32788e-06
1.11077e-08
1.32635e-06
1.07324e-08
1.32497e-06
1.02336e-08
1.32374e-06
9.62904e-09
1.32263e-06
8.93251e-09
1.32163e-06
8.15497e-09
1.32073e-06
7.30463e-09
1.31993e-06
6.38729e-09
1.31922e-06
5.40632e-09
1.31861e-06
4.36239e-09
1.31809e-06
3.25278e-09
1.31766e-06
2.06933e-09
1.31732e-06
7.9138e-10
1.31709e-06
-5.96191e-10
1.31697e-06
-2.07456e-09
1.31696e-06
-3.63495e-09
1.31709e-06
-5.3009e-09
1.31737e-06
-7.1009e-09
1.31782e-06
-9.06841e-09
1.31847e-06
-1.12423e-08
1.31933e-06
-1.36705e-08
1.32045e-06
-1.64142e-08
1.32186e-06
-1.95461e-08
1.32361e-06
-2.31549e-08
1.32577e-06
-2.73511e-08
1.3284e-06
-3.22749e-08
1.3316e-06
-3.8107e-08
1.33546e-06
-4.50834e-08
1.34014e-06
-5.35233e-08
1.34579e-06
-6.38631e-08
1.35264e-06
-7.6751e-08
1.36097e-06
-9.31118e-08
1.37118e-06
-1.14627e-07
1.38375e-06
-1.43637e-07
1.39948e-06
-1.86471e-07
1.41852e-06
-2.49062e-07
1.44198e-06
-3.66226e-07
-5.00532e-07
1.46599e-06
1.55703e-06
-2.41942e-07
1.54839e-06
-1.24741e-07
1.538e-06
-7.54262e-08
1.52649e-06
-4.58676e-08
1.51402e-06
-2.53899e-08
1.50142e-06
-1.17553e-08
1.48953e-06
-2.58517e-09
1.47877e-06
3.56639e-09
1.46924e-06
7.74056e-09
1.4609e-06
1.05956e-08
1.45364e-06
1.25235e-08
1.44732e-06
1.3782e-08
1.44182e-06
1.45477e-08
1.43701e-06
1.4945e-08
1.4328e-06
1.50612e-08
1.42909e-06
1.49565e-08
1.42581e-06
1.46743e-08
1.4229e-06
1.42465e-08
1.42031e-06
1.36972e-08
1.418e-06
1.30453e-08
1.41592e-06
1.23051e-08
1.41406e-06
1.14883e-08
1.41239e-06
1.06034e-08
1.41089e-06
9.65709e-09
1.40954e-06
8.65368e-09
1.40833e-06
7.59563e-09
1.40726e-06
6.4833e-09
1.40631e-06
5.31465e-09
1.40547e-06
4.08438e-09
1.40476e-06
2.78211e-09
1.40416e-06
1.3889e-09
1.40368e-06
-1.15424e-10
1.40333e-06
-1.72007e-09
1.40311e-06
-3.41662e-09
1.40304e-06
-5.22994e-09
1.40313e-06
-7.19137e-09
1.4034e-06
-9.33794e-09
1.40387e-06
-1.17126e-08
1.40457e-06
-1.43685e-08
1.40553e-06
-1.73726e-08
1.40678e-06
-2.08052e-08
1.40839e-06
-2.47632e-08
1.41041e-06
-2.93677e-08
1.41291e-06
-3.47718e-08
1.41597e-06
-4.11723e-08
1.41971e-06
-4.88256e-08
1.42427e-06
-5.80781e-08
1.42981e-06
-6.94006e-08
1.43655e-06
-8.34918e-08
1.44477e-06
-1.01336e-07
1.45487e-06
-1.24729e-07
1.4673e-06
-1.56063e-07
1.48282e-06
-2.01986e-07
1.50151e-06
-2.67759e-07
1.52417e-06
-3.88886e-07
-5.23638e-07
1.54728e-06
1.66131e-06
-2.21331e-07
1.65362e-06
-1.17044e-07
1.64552e-06
-6.73275e-08
1.63661e-06
-3.69572e-08
1.62636e-06
-1.51438e-08
1.61508e-06
-4.71936e-10
1.6034e-06
9.09474e-09
1.59187e-06
1.50989e-08
1.58094e-06
1.86684e-08
1.57088e-06
2.0652e-08
1.56179e-06
2.16115e-08
1.55366e-06
2.19104e-08
1.54643e-06
2.17802e-08
1.54001e-06
2.13677e-08
1.53431e-06
2.07646e-08
1.52924e-06
2.00271e-08
1.52472e-06
1.91906e-08
1.52069e-06
1.82779e-08
1.51708e-06
1.73043e-08
1.51385e-06
1.62799e-08
1.51094e-06
1.52119e-08
1.50832e-06
1.41049e-08
1.50596e-06
1.2962e-08
1.50384e-06
1.17844e-08
1.50192e-06
1.05721e-08
1.50019e-06
9.32355e-09
1.49864e-06
8.03557e-09
1.49725e-06
6.70279e-09
1.49602e-06
5.31691e-09
1.49493e-06
3.8649e-09
1.494e-06
2.32773e-09
1.4932e-06
6.8493e-10
1.49254e-06
-1.06461e-09
1.49204e-06
-2.91785e-09
1.49171e-06
-4.8963e-09
1.49155e-06
-7.03498e-09
1.49159e-06
-9.37477e-09
1.49184e-06
-1.1963e-08
1.49233e-06
-1.48578e-08
1.49309e-06
-1.81328e-08
1.49416e-06
-2.18755e-08
1.49559e-06
-2.61917e-08
1.49743e-06
-3.12131e-08
1.49977e-06
-3.71058e-08
1.50268e-06
-4.40828e-08
1.50627e-06
-5.24214e-08
1.51069e-06
-6.24947e-08
1.5161e-06
-7.48085e-08
1.52272e-06
-9.01105e-08
1.53082e-06
-1.09445e-07
1.54081e-06
-1.34711e-07
1.5531e-06
-1.68356e-07
1.5684e-06
-2.17291e-07
1.58679e-06
-2.86142e-07
1.6087e-06
-4.10796e-07
-5.45935e-07
1.63099e-06
1.75895e-06
-2.00516e-07
1.75201e-06
-1.10107e-07
1.74606e-06
-6.13754e-08
1.74e-06
-3.0901e-08
1.73301e-06
-8.15548e-09
1.72472e-06
7.81793e-09
1.71524e-06
1.85789e-08
1.70495e-06
2.53901e-08
1.69433e-06
2.92821e-08
1.68385e-06
3.11379e-08
1.67382e-06
3.16373e-08
1.66445e-06
3.1277e-08
1.65584e-06
3.03972e-08
1.64799e-06
2.92187e-08
1.64087e-06
2.78769e-08
1.63445e-06
2.64508e-08
1.62866e-06
2.49851e-08
1.62343e-06
2.35043e-08
1.61871e-06
2.20207e-08
1.61445e-06
2.05402e-08
1.6106e-06
1.90644e-08
1.60711e-06
1.75923e-08
1.60395e-06
1.61218e-08
1.60109e-06
1.4649e-08
1.59849e-06
1.31694e-08
1.59614e-06
1.16772e-08
1.59401e-06
1.01652e-08
1.59209e-06
8.62451e-09
1.59036e-06
7.04348e-09
1.58882e-06
5.40613e-09
1.58745e-06
3.69187e-09
1.58626e-06
1.88262e-09
1.58523e-06
-3.48481e-11
1.58438e-06
-2.06743e-09
1.58371e-06
-4.23285e-09
1.58325e-06
-6.56884e-09
1.58299e-06
-9.12011e-09
1.58297e-06
-1.19385e-08
1.5832e-06
-1.50875e-08
1.58371e-06
-1.86473e-08
1.58455e-06
-2.27133e-08
1.58576e-06
-2.74e-08
1.58739e-06
-3.28499e-08
1.58953e-06
-3.92426e-08
1.59226e-06
-4.68074e-08
1.59568e-06
-5.58425e-08
1.59993e-06
-6.6748e-08
1.60519e-06
-8.00643e-08
1.61166e-06
-9.65878e-08
1.61964e-06
-1.1742e-07
1.62949e-06
-1.44561e-07
1.64164e-06
-1.80505e-07
1.65673e-06
-2.32379e-07
1.67481e-06
-3.04221e-07
1.696e-06
-4.31987e-07
-5.67479e-07
1.71754e-06
1.85033e-06
-1.7995e-07
1.84397e-06
-1.03747e-07
1.83974e-06
-5.71436e-08
1.83607e-06
-2.72285e-08
1.83209e-06
-4.17749e-09
1.82718e-06
1.2722e-08
1.8211e-06
2.46656e-08
1.81381e-06
3.26719e-08
1.80551e-06
3.75826e-08
1.79651e-06
4.01431e-08
1.78716e-06
4.09832e-08
1.77781e-06
4.06252e-08
1.76873e-06
3.94823e-08
1.76009e-06
3.78615e-08
1.75199e-06
3.59755e-08
1.74448e-06
3.39615e-08
1.73756e-06
3.19037e-08
1.73121e-06
2.98502e-08
1.72541e-06
2.78269e-08
1.7201e-06
2.58451e-08
1.71526e-06
2.39082e-08
1.71084e-06
2.20144e-08
1.7068e-06
2.01588e-08
1.70311e-06
1.83346e-08
1.69975e-06
1.65336e-08
1.69668e-06
1.47465e-08
1.69388e-06
1.29626e-08
1.69134e-06
1.11694e-08
1.68903e-06
9.35196e-09
1.68694e-06
7.49127e-09
1.68507e-06
5.56455e-09
1.6834e-06
3.55315e-09
1.68192e-06
1.44262e-09
1.68065e-06
-7.89677e-10
1.67958e-06
-3.1683e-09
1.67874e-06
-5.72551e-09
1.67813e-06
-8.51022e-09
1.67777e-06
-1.15789e-08
1.67768e-06
-1.50009e-08
1.6779e-06
-1.8863e-08
1.67845e-06
-2.32686e-08
1.67939e-06
-2.83414e-08
1.68078e-06
-3.42348e-08
1.68268e-06
-4.11419e-08
1.68518e-06
-4.93088e-08
1.68839e-06
-5.90546e-08
1.69245e-06
-7.08065e-08
1.69753e-06
-8.51394e-08
1.70384e-06
-1.02897e-07
1.71166e-06
-1.2524e-07
1.72135e-06
-1.54257e-07
1.73334e-06
-1.92492e-07
1.74819e-06
-2.47232e-07
1.76596e-06
-3.21991e-07
1.78644e-06
-4.52471e-07
-5.88304e-07
1.80727e-06
1.93622e-06
-1.60665e-07
1.93046e-06
-9.79799e-08
1.92757e-06
-5.42563e-08
1.92566e-06
-2.5319e-08
1.92395e-06
-2.4654e-09
1.92184e-06
1.4834e-08
1.91898e-06
2.75191e-08
1.91517e-06
3.64879e-08
1.91028e-06
4.24669e-08
1.90435e-06
4.60742e-08
1.89751e-06
4.78248e-08
1.88998e-06
4.8156e-08
1.88202e-06
4.74392e-08
1.8739e-06
4.59847e-08
1.86583e-06
4.40417e-08
1.85799e-06
4.18004e-08
1.8505e-06
3.93995e-08
1.84341e-06
3.69339e-08
1.83678e-06
3.4465e-08
1.83059e-06
3.20293e-08
1.82485e-06
2.96463e-08
1.81954e-06
2.73238e-08
1.81464e-06
2.50621e-08
1.81012e-06
2.28566e-08
1.80595e-06
2.06992e-08
1.80212e-06
1.85797e-08
1.7986e-06
1.64853e-08
1.79537e-06
1.44014e-08
1.79241e-06
1.23104e-08
1.78971e-06
1.01906e-08
1.78726e-06
8.01723e-09
1.78504e-06
5.76974e-09
1.78305e-06
3.43417e-09
1.78128e-06
9.79814e-10
1.77974e-06
-1.63323e-09
1.77846e-06
-4.438e-09
1.77743e-06
-7.48065e-09
1.77667e-06
-1.08226e-08
1.77621e-06
-1.45389e-08
1.77607e-06
-1.87236e-08
1.77629e-06
-2.34881e-08
1.77691e-06
-2.89653e-08
1.778e-06
-3.532e-08
1.77961e-06
-4.27587e-08
1.78185e-06
-5.15446e-08
1.78481e-06
-6.20179e-08
1.78864e-06
-7.46328e-08
1.7935e-06
-8.9999e-08
1.79961e-06
-1.09007e-07
1.80724e-06
-1.32872e-07
1.81675e-06
-1.63769e-07
1.82855e-06
-2.04288e-07
1.84314e-06
-2.61818e-07
1.86057e-06
-3.39427e-07
1.88034e-06
-4.72237e-07
-6.08417e-07
1.90045e-06
2.01829e-06
-1.44019e-07
2.01324e-06
-9.29326e-08
2.0114e-06
-5.24198e-08
2.01074e-06
-2.46552e-08
2.01056e-06
-2.28744e-09
2.01038e-06
1.50214e-08
2.00988e-06
2.80182e-08
2.00883e-06
3.75333e-08
2.00706e-06
4.42413e-08
2.00443e-06
4.87022e-08
2.00089e-06
5.13681e-08
1.99644e-06
5.2606e-08
1.99116e-06
5.2717e-08
1.98519e-06
5.19515e-08
1.97871e-06
5.05191e-08
1.97192e-06
4.85963e-08
1.96499e-06
4.63308e-08
1.95808e-06
4.38436e-08
1.95131e-06
4.12298e-08
1.94478e-06
3.85604e-08
1.93854e-06
3.5885e-08
1.93263e-06
3.32359e-08
1.92706e-06
3.06314e-08
1.92184e-06
2.80793e-08
1.91696e-06
2.558e-08
1.91241e-06
2.31278e-08
1.90818e-06
2.0713e-08
1.90426e-06
1.83216e-08
1.90064e-06
1.59358e-08
1.89729e-06
1.35332e-08
1.89422e-06
1.10879e-08
1.89141e-06
8.57768e-09
1.88886e-06
5.98701e-09
1.88655e-06
3.2873e-09
1.8845e-06
4.23921e-10
1.88271e-06
-2.64993e-09
1.8812e-06
-5.97502e-09
1.87999e-06
-9.61358e-09
1.8791e-06
-1.36468e-08
1.87855e-06
-1.81758e-08
1.87839e-06
-2.332e-08
1.87864e-06
-2.92218e-08
1.87938e-06
-3.60572e-08
1.88067e-06
-4.40467e-08
1.88259e-06
-5.34705e-08
1.88527e-06
-6.469e-08
1.88882e-06
-7.81864e-08
1.89342e-06
-9.4604e-08
1.8993e-06
-1.14878e-07
1.9067e-06
-1.40281e-07
1.91599e-06
-1.73059e-07
1.92756e-06
-2.15853e-07
1.94184e-06
-2.76097e-07
1.9589e-06
-3.56487e-07
1.97791e-06
-4.91253e-07
-6.27807e-07
1.9973e-06
2.09886e-06
-1.30279e-07
2.09454e-06
-8.86098e-08
2.09348e-06
-5.13678e-08
2.09368e-06
-2.48527e-08
2.0945e-06
-3.10833e-09
2.09554e-06
1.39863e-08
2.09653e-06
2.70219e-08
2.0973e-06
3.67692e-08
2.09767e-06
4.38672e-08
2.09753e-06
4.88486e-08
2.09675e-06
5.21421e-08
2.09527e-06
5.40888e-08
2.09303e-06
5.49575e-08
2.09002e-06
5.49601e-08
2.08627e-06
5.42642e-08
2.08187e-06
5.30048e-08
2.0769e-06
5.12956e-08
2.07151e-06
4.92352e-08
2.06583e-06
4.69105e-08
2.05999e-06
4.43974e-08
2.05412e-06
4.17608e-08
2.0483e-06
3.90529e-08
2.04262e-06
3.63139e-08
2.03712e-06
3.35721e-08
2.03186e-06
3.08449e-08
2.02685e-06
2.81406e-08
2.0221e-06
2.54593e-08
2.01763e-06
2.27945e-08
2.01343e-06
2.0133e-08
2.00951e-06
1.74554e-08
2.00586e-06
1.47377e-08
2.00248e-06
1.19579e-08
1.99936e-06
9.0995e-09
1.99652e-06
6.1342e-09
1.99393e-06
3.01158e-09
1.99162e-06
-3.36519e-10
1.9896e-06
-3.96233e-09
1.98791e-06
-7.9171e-09
1.98655e-06
-1.2287e-08
1.98555e-06
-1.71801e-08
1.98496e-06
-2.27238e-08
1.9848e-06
-2.90697e-08
1.98515e-06
-3.64053e-08
1.98607e-06
-4.49649e-08
1.98765e-06
-5.50457e-08
1.98999e-06
-6.70304e-08
1.99323e-06
-8.14271e-08
1.99754e-06
-9.89142e-08
2.00313e-06
-1.20471e-07
2.01027e-06
-1.47423e-07
2.0193e-06
-1.82083e-07
2.03058e-06
-2.27139e-07
2.0445e-06
-2.90013e-07
2.06113e-06
-3.73116e-07
2.07935e-06
-5.09472e-07
-6.46443e-07
2.09798e-06
2.17996e-06
-1.18947e-07
2.17625e-06
-8.49025e-08
2.17575e-06
-5.08642e-08
2.17653e-06
-2.5636e-08
2.17801e-06
-4.58198e-09
2.17981e-06
1.21804e-08
2.18173e-06
2.51077e-08
2.18359e-06
3.49066e-08
2.18528e-06
4.21799e-08
2.18669e-06
4.7438e-08
2.18773e-06
5.10965e-08
2.18833e-06
5.34865e-08
2.18842e-06
5.48677e-08
2.18794e-06
5.54399e-08
2.18685e-06
5.53555e-08
2.18513e-06
5.47299e-08
2.18277e-06
5.36527e-08
2.17981e-06
5.21963e-08
2.1763e-06
5.04218e-08
2.17231e-06
4.83832e-08
2.16794e-06
4.61296e-08
2.16329e-06
4.37062e-08
2.15845e-06
4.11534e-08
2.15352e-06
3.85064e-08
2.14857e-06
3.57938e-08
2.14367e-06
3.30369e-08
2.13888e-06
3.02492e-08
2.13424e-06
2.7436e-08
2.12978e-06
2.45944e-08
2.12552e-06
2.17134e-08
2.12148e-06
1.87752e-08
2.11768e-06
1.57621e-08
2.11412e-06
1.26592e-08
2.11081e-06
9.43996e-09
2.10777e-06
6.05818e-09
2.10498e-06
2.44737e-09
2.10249e-06
-1.46802e-09
2.10032e-06
-5.74677e-09
2.09849e-06
-1.04635e-08
2.09705e-06
-1.57325e-08
2.09601e-06
-2.16888e-08
2.09544e-06
-2.84931e-08
2.09537e-06
-3.6344e-08
2.0959e-06
-4.54893e-08
2.0971e-06
-5.62433e-08
2.09908e-06
-6.90099e-08
2.10197e-06
-8.43233e-08
2.10595e-06
-1.02896e-07
2.11123e-06
-1.25748e-07
2.11807e-06
-1.54259e-07
2.12678e-06
-1.90795e-07
2.13773e-06
-2.38094e-07
2.15123e-06
-3.03505e-07
2.16735e-06
-3.89239e-07
2.18471e-06
-5.26829e-07
-6.64271e-07
2.20253e-06
2.26299e-06
-1.09414e-07
2.25975e-06
-8.16643e-08
2.25959e-06
-5.07114e-08
2.26076e-06
-2.68022e-08
2.26266e-06
-6.48406e-09
2.26497e-06
9.87737e-09
2.26746e-06
2.26158e-08
2.26999e-06
3.23691e-08
2.27248e-06
3.96995e-08
2.27482e-06
4.50938e-08
2.27696e-06
4.89545e-08
2.27884e-06
5.1605e-08
2.28041e-06
5.33001e-08
2.28161e-06
5.42365e-08
2.28241e-06
5.45629e-08
2.28275e-06
5.43899e-08
2.2826e-06
5.38006e-08
2.28194e-06
5.28572e-08
2.28075e-06
5.16083e-08
2.27904e-06
5.00922e-08
2.27683e-06
4.83412e-08
2.27415e-06
4.63834e-08
2.27106e-06
4.42442e-08
2.26762e-06
4.1947e-08
2.2639e-06
3.95133e-08
2.25998e-06
3.69618e-08
2.25592e-06
3.43076e-08
2.25179e-06
3.15609e-08
2.24766e-06
2.87257e-08
2.24358e-06
2.57988e-08
2.23958e-06
2.27707e-08
2.23571e-06
1.96303e-08
2.23201e-06
1.63674e-08
2.22849e-06
1.29594e-08
2.22518e-06
9.36494e-09
2.2221e-06
5.52685e-09
2.21927e-06
1.36168e-09
2.21673e-06
-3.21036e-09
2.21453e-06
-8.2609e-09
2.2127e-06
-1.38981e-08
2.21127e-06
-2.02639e-08
2.21031e-06
-2.75271e-08
2.20986e-06
-3.58967e-08
2.21e-06
-4.56337e-08
2.21083e-06
-5.70686e-08
2.21244e-06
-7.06258e-08
2.21499e-06
-8.68654e-08
2.21862e-06
-1.06532e-07
2.22356e-06
-1.30687e-07
2.23006e-06
-1.60758e-07
2.23842e-06
-1.99154e-07
2.24899e-06
-2.48664e-07
2.26199e-06
-3.16506e-07
2.27753e-06
-4.04773e-07
2.29394e-06
-5.43248e-07
-6.81227e-07
2.3109e-06
2.34886e-06
-1.01185e-07
2.34595e-06
-7.87541e-08
2.34598e-06
-5.07477e-08
2.34737e-06
-2.8192e-08
2.34954e-06
-8.65458e-09
2.35216e-06
7.25471e-09
2.35503e-06
1.97515e-08
2.358e-06
2.94014e-08
2.36097e-06
3.67222e-08
2.36389e-06
4.21746e-08
2.3667e-06
4.61459e-08
2.36936e-06
4.89508e-08
2.37182e-06
5.08391e-08
2.37405e-06
5.20048e-08
2.37602e-06
5.2595e-08
2.37769e-06
5.27199e-08
2.37903e-06
5.24612e-08
2.38e-06
5.18797e-08
2.38059e-06
5.10203e-08
2.38077e-06
4.9917e-08
2.38051e-06
4.8595e-08
2.37982e-06
4.70738e-08
2.3787e-06
4.53686e-08
2.37715e-06
4.34915e-08
2.37521e-06
4.14524e-08
2.37292e-06
3.92594e-08
2.37031e-06
3.69185e-08
2.36743e-06
3.44331e-08
2.36436e-06
3.18033e-08